/*--------------------------------*- C++ -*----------------------------------*\
  =========                 |
  \\      /  F ield         | OpenFOAM: The Open Source CFD Toolbox
   \\    /   O peration     | Website:  https://openfoam.org
    \\  /    A nd           | Version:  10
     \\/     M anipulation  |
\*---------------------------------------------------------------------------*/
FoamFile
{
    format      ascii;
    class       volVectorField;
    location    "5";
    object      U_0;
}
// * * * * * * * * * * * * * * * * * * * * * * * * * * * * * * * * * * * * * //

dimensions      [0 1 -1 0 0 0 0];

internalField   nonuniform List<vector> 
25600
(
(1.01789 -1.43017e-05 -1.33141e-05)
(1.01791 -7.66213e-06 1.02423e-05)
(1.01794 -2.83257e-05 1.25268e-05)
(1.01792 -1.38029e-05 -9.35134e-06)
(1.01792 1.58675e-05 -2.73979e-07)
(1.01791 -2.54754e-05 1.27262e-05)
(1.01792 -1.73255e-05 2.21001e-06)
(1.01794 2.19719e-05 -6.25239e-06)
(1.0179 2.27769e-05 6.62923e-06)
(1.01791 1.00946e-05 1.14156e-05)
(1.01795 7.68087e-06 -6.20381e-06)
(1.01788 -1.08287e-06 2.15417e-06)
(1.01791 2.26322e-05 8.78187e-06)
(1.01795 4.26224e-05 -7.8331e-07)
(1.01788 7.35513e-07 8.72073e-06)
(1.01791 -1.3246e-07 -5.8903e-07)
(1.01793 1.17996e-05 -1.39384e-06)
(1.01789 -7.30366e-06 1.43133e-05)
(1.01793 3.67882e-05 -5.25758e-06)
(1.01793 3.4469e-05 -8.73533e-07)
(1.01787 -5.9769e-05 1.35339e-05)
(1.01792 -7.65739e-06 -9.59677e-06)
(1.01794 3.64768e-05 3.2177e-06)
(1.01789 -2.71399e-05 4.51053e-06)
(1.01793 1.12788e-05 -5.38314e-06)
(1.01792 1.54533e-05 1.07519e-05)
(1.0179 -6.28925e-05 -1.29589e-05)
(1.01793 -6.59734e-06 -3.79108e-06)
(1.01793 2.19783e-06 1.16045e-05)
(1.01793 -1.0424e-05 -7.70051e-06)
(1.01791 -1.02337e-05 1.98356e-06)
(1.01791 1.84142e-05 -5.2571e-06)
(1.01792 -4.64535e-06 -6.83184e-07)
(1.01794 -5.64906e-05 1.07561e-05)
(1.01791 6.94661e-06 -9.38699e-06)
(1.01791 -2.55853e-05 2.60902e-06)
(1.01794 1.59692e-05 7.14292e-06)
(1.01791 6.23637e-06 -9.03729e-06)
(1.01793 -4.65922e-06 9.65346e-06)
(1.01794 2.89329e-05 5.07316e-06)
(1.0179 -2.90099e-05 -1.35765e-05)
(1.01793 1.18268e-05 1.50031e-05)
(1.01794 1.2645e-06 1.58168e-05)
(1.01791 -6.40946e-06 -1.74227e-05)
(1.01792 8.34292e-06 2.90559e-06)
(1.0179 7.79146e-07 2.14293e-05)
(1.01791 -4.25871e-06 -5.70246e-06)
(1.01794 1.82307e-05 -3.62024e-06)
(1.01788 6.57629e-06 1.3098e-05)
(1.01791 1.19888e-06 4.85211e-06)
(1.01796 2.63844e-05 -4.69034e-06)
(1.01786 -1.61118e-05 1.00348e-05)
(1.01792 2.09795e-05 1.13047e-06)
(1.01796 3.4652e-05 1.44004e-06)
(1.01787 -1.10706e-05 1.74764e-05)
(1.01792 1.99031e-05 -1.12728e-05)
(1.01793 1.85893e-05 5.35776e-06)
(1.01787 -1.64679e-05 1.66957e-05)
(1.01795 2.73361e-05 -1.45179e-05)
(1.01792 2.48458e-05 1.24726e-05)
(1.01786 -4.88707e-05 5.46896e-06)
(1.01795 1.58685e-05 -1.14643e-05)
(1.01792 1.6907e-05 1.56997e-05)
(1.01788 -3.96896e-05 -8.56998e-06)
(1.01794 2.33194e-05 2.68914e-06)
(1.01791 -1.61603e-05 1.13757e-05)
(1.01792 -3.83441e-05 -2.34666e-05)
(1.01793 2.02455e-05 1.03775e-05)
(1.0179 -1.48982e-05 5.99757e-06)
(1.01793 -2.04495e-05 -1.19583e-05)
(1.01793 -1.07473e-05 5.99223e-06)
(1.0179 7.33934e-07 -3.95931e-06)
(1.01792 -1.24945e-05 2.84321e-06)
(1.01796 -1.84223e-05 2.62545e-06)
(1.01791 1.3278e-05 -4.95944e-06)
(1.01789 -2.22702e-05 6.52896e-06)
(1.01794 -3.37144e-06 -3.69841e-07)
(1.01792 -4.85112e-06 -3.32325e-06)
(1.01792 1.50943e-06 1.17643e-05)
(1.01794 4.93382e-06 -6.78736e-07)
(1.0179 -3.75846e-05 -4.42859e-06)
(1.01794 2.83189e-05 1.87527e-05)
(1.01792 -2.0205e-05 1.09594e-05)
(1.01792 -1.01932e-06 -1.65004e-05)
(1.01792 1.08438e-05 1.0574e-05)
(1.0179 -3.65053e-06 2.20674e-05)
(1.01793 -1.97123e-06 -8.86022e-06)
(1.01795 2.20542e-05 3.546e-06)
(1.01788 -5.50141e-06 1.48705e-05)
(1.01793 2.24438e-05 5.40709e-07)
(1.01794 2.70704e-05 2.74083e-07)
(1.01787 -3.8717e-05 1.52951e-05)
(1.01795 5.71747e-05 -6.2003e-06)
(1.01793 2.25019e-05 1.11442e-05)
(1.01787 -1.41429e-05 1.85715e-05)
(1.01793 4.15518e-05 -1.93766e-05)
(1.0179 6.97825e-06 2.05685e-05)
(1.01789 -1.44706e-05 7.29004e-06)
(1.01796 4.26125e-05 -1.7266e-05)
(1.01787 1.04826e-05 2.69882e-05)
(1.01786 -5.12705e-05 -1.13435e-05)
(1.01798 3.63777e-05 -4.82373e-06)
(1.0179 -9.25894e-06 2.39134e-05)
(1.0179 -3.09543e-05 -2.33463e-05)
(1.01795 3.88887e-05 1.61601e-05)
(1.01787 -3.94881e-05 3.50609e-06)
(1.01794 -2.39246e-05 -2.56945e-05)
(1.01794 1.29421e-05 2.55256e-05)
(1.01789 -2.88285e-05 -8.43417e-06)
(1.01793 3.92514e-06 -6.66132e-06)
(1.01793 -1.83105e-05 7.59603e-06)
(1.01791 -8.75428e-06 -5.99125e-06)
(1.01791 -8.13704e-06 1.05739e-05)
(1.01796 -1.15322e-05 -6.31656e-06)
(1.01791 1.95246e-06 9.55535e-07)
(1.01789 -2.83359e-05 1.02478e-05)
(1.01795 1.51746e-05 -7.03271e-06)
(1.01791 -2.48829e-05 5.12075e-06)
(1.01793 1.87327e-05 1.00127e-05)
(1.01792 1.00801e-06 -8.72807e-06)
(1.01792 -1.69223e-05 1.10254e-05)
(1.01794 2.53179e-05 1.47812e-05)
(1.01791 -3.47117e-05 6.38034e-06)
(1.01793 2.0468e-05 -8.6026e-06)
(1.01792 7.87274e-06 1.63303e-05)
(1.01789 6.74503e-06 1.83311e-05)
(1.01793 -1.94975e-06 -5.82375e-06)
(1.01794 2.12483e-05 1.02066e-05)
(1.01788 -1.43806e-05 1.31038e-05)
(1.01794 4.23156e-05 1.13194e-06)
(1.01791 1.38673e-05 4.64083e-06)
(1.01789 -3.68017e-05 1.70995e-05)
(1.01797 7.10731e-05 -9.14286e-06)
(1.0179 -5.36506e-06 2.14882e-05)
(1.01789 1.71654e-05 1.03382e-05)
(1.01793 4.08085e-05 -1.76941e-05)
(1.01788 2.80612e-06 3.45868e-05)
(1.0179 -7.51523e-06 -9.88666e-06)
(1.01797 3.79868e-05 -4.29317e-06)
(1.01784 2.79109e-06 3.24171e-05)
(1.01788 -3.4536e-05 -2.92552e-05)
(1.01798 4.2208e-05 1.34409e-05)
(1.01787 -3.83026e-05 2.14218e-05)
(1.01792 -6.56007e-06 -3.08053e-05)
(1.01793 3.27114e-05 3.06341e-05)
(1.01786 -5.35149e-05 -1.13419e-05)
(1.01796 1.7167e-06 -1.63718e-05)
(1.01793 -8.85877e-06 2.84908e-05)
(1.01789 -3.06955e-05 -2.36717e-05)
(1.01793 2.43509e-05 7.15426e-06)
(1.01792 -3.38797e-05 1.51131e-07)
(1.01791 -1.05246e-05 -3.43754e-06)
(1.01792 -1.35802e-05 1.70672e-05)
(1.01797 2.98112e-06 -1.5295e-05)
(1.0179 -5.46326e-06 8.41054e-06)
(1.0179 -2.25663e-05 1.01796e-05)
(1.01794 1.73147e-05 -9.77127e-06)
(1.01792 -4.3146e-05 1.37526e-05)
(1.01794 3.66269e-05 1.84268e-06)
(1.01789 -2.15666e-05 -1.33239e-05)
(1.01793 1.31405e-05 2.28239e-05)
(1.01792 -5.52862e-06 3.09754e-06)
(1.01792 -4.10471e-05 1.01303e-05)
(1.01795 4.0256e-05 -1.33887e-06)
(1.01791 5.61724e-06 1.88922e-05)
(1.01789 1.60858e-05 1.79207e-05)
(1.01794 -1.24069e-05 2.34186e-06)
(1.01794 2.13728e-05 1.28761e-05)
(1.01789 -1.88532e-05 1.32517e-05)
(1.01795 6.91445e-05 5.32248e-06)
(1.01788 -9.16416e-06 6.81195e-06)
(1.01791 -1.84124e-05 1.97443e-05)
(1.01798 5.88409e-05 -7.83915e-06)
(1.01789 -1.49307e-05 3.16855e-05)
(1.0179 6.62479e-05 -1.93328e-07)
(1.01792 1.7548e-05 -3.0982e-06)
(1.01787 1.68095e-05 3.71302e-05)
(1.01791 -1.93449e-05 -2.60162e-05)
(1.01797 3.89272e-05 1.82199e-05)
(1.01782 8.73143e-06 2.01771e-05)
(1.01789 -2.24815e-05 -3.41313e-05)
(1.01798 3.27153e-05 3.3419e-05)
(1.01786 -5.47067e-05 6.85556e-06)
(1.01795 1.86286e-05 -2.57441e-05)
(1.01791 1.97395e-05 3.82861e-05)
(1.01785 -4.34058e-05 -2.47707e-05)
(1.01797 4.17994e-06 1.62341e-06)
(1.01792 -3.4998e-05 1.7769e-05)
(1.01791 -1.62182e-05 -2.79345e-05)
(1.01793 3.84687e-05 2.22944e-05)
(1.01791 -4.54081e-05 -1.4187e-05)
(1.01792 -6.8614e-06 6.70818e-06)
(1.01792 -2.90724e-05 1.55953e-05)
(1.01797 1.42916e-05 -1.95649e-05)
(1.01789 -8.06643e-06 1.70675e-05)
(1.01791 -1.34087e-05 7.59919e-06)
(1.01793 1.26702e-05 -8.03622e-06)
(1.01793 -5.72903e-05 1.87054e-05)
(1.01795 5.23348e-05 -9.45782e-06)
(1.01788 -3.54719e-05 -8.6899e-06)
(1.01794 4.27272e-05 2.70305e-05)
(1.0179 -5.59204e-05 -7.86672e-06)
(1.01794 -2.33125e-05 2.44192e-05)
(1.01796 5.10213e-05 -8.69695e-07)
(1.01791 1.56533e-05 2.478e-05)
(1.01788 2.70897e-05 2.0869e-05)
(1.01794 -2.67094e-05 9.01409e-06)
(1.01794 1.95683e-05 1.22941e-05)
(1.01791 -1.83472e-05 1.83677e-05)
(1.01795 0.000100384 8.68863e-06)
(1.01785 -3.53502e-05 7.44892e-06)
(1.01793 5.80369e-06 2.49623e-05)
(1.01797 1.64124e-05 -6.3163e-06)
(1.01791 9.93238e-06 3.86736e-05)
(1.01791 0.000107023 -8.68851e-06)
(1.0179 -5.73888e-06 1.54597e-05)
(1.01786 3.88182e-05 2.65175e-05)
(1.01792 -5.5864e-05 -2.77178e-05)
(1.01798 6.30573e-05 3.58169e-05)
(1.0178 1.23766e-05 -1.66256e-06)
(1.01789 -8.53885e-06 -2.01971e-05)
(1.01796 1.09332e-05 4.22008e-05)
(1.01786 -6.02225e-05 -8.30222e-06)
(1.01797 3.33347e-05 -1.29455e-05)
(1.01789 1.93507e-05 3.77873e-05)
(1.01785 -2.3801e-05 -2.9259e-05)
(1.01797 -1.43777e-05 1.39653e-05)
(1.01792 -4.97706e-05 -1.62789e-06)
(1.01794 -2.87892e-07 -1.84401e-05)
(1.01792 5.17353e-05 2.54853e-05)
(1.01789 -5.16421e-05 -2.54646e-05)
(1.01792 -5.57411e-06 2.06634e-05)
(1.01793 -5.62211e-05 5.88994e-06)
(1.01798 3.71884e-05 -1.53768e-05)
(1.01788 -5.61658e-06 2.28448e-05)
(1.01791 1.97886e-06 5.96677e-06)
(1.01792 -7.65983e-06 -6.15037e-06)
(1.01794 -6.93832e-05 1.8458e-05)
(1.01795 6.75118e-05 -1.97431e-05)
(1.01787 -4.01521e-05 4.66233e-06)
(1.01792 6.20945e-05 1.93997e-05)
(1.01789 -0.000111133 -1.14494e-05)
(1.01798 1.60175e-06 3.80625e-05)
(1.01798 4.57483e-05 -4.98131e-06)
(1.0179 4.66233e-05 3.78834e-05)
(1.01787 2.73142e-05 2.39379e-05)
(1.01793 -3.72242e-05 1.83278e-05)
(1.01794 8.18552e-06 9.85669e-06)
(1.01794 -3.92845e-06 2.99984e-05)
(1.01794 0.000135001 8.08782e-06)
(1.01782 -5.97854e-05 1.26261e-05)
(1.01794 2.6404e-05 3.01841e-05)
(1.01798 -3.99444e-05 -5.8407e-06)
(1.01794 7.08972e-05 4.79743e-05)
(1.01789 0.000125068 -1.20095e-05)
(1.01788 -4.93353e-06 3.22216e-05)
(1.01784 4.17944e-05 8.50239e-06)
(1.01793 -9.87803e-05 -1.91004e-05)
(1.01801 0.000111181 3.86835e-05)
(1.01778 5.05952e-06 -1.65317e-05)
(1.01789 1.42553e-05 3.42924e-07)
(1.01795 -2.58176e-05 3.41188e-05)
(1.01787 -5.72881e-05 -1.26462e-05)
(1.018 3.75838e-05 1.62705e-07)
(1.01788 4.37242e-05 3.42252e-05)
(1.01783 -1.36134e-05 -2.69646e-05)
(1.01795 -4.22325e-05 1.70131e-05)
(1.01793 -5.82493e-05 -1.80567e-05)
(1.01797 1.6691e-05 -6.26649e-06)
(1.0179 7.69958e-05 1.79537e-05)
(1.01787 -5.58949e-05 -2.6394e-05)
(1.01792 -8.92442e-06 2.75737e-05)
(1.01795 -9.32096e-05 -7.46185e-06)
(1.018 7.09679e-05 -2.95873e-06)
(1.01787 1.08707e-08 2.39654e-05)
(1.01791 2.50023e-05 7.54569e-06)
(1.01789 -4.60227e-05 -6.82128e-06)
(1.01797 -7.36511e-05 1.61431e-05)
(1.01797 8.32649e-05 -2.50192e-05)
(1.01786 -2.9916e-05 2.10426e-05)
(1.01789 6.85026e-05 4.36804e-06)
(1.01787 -0.000166324 -6.32467e-06)
(1.01803 2.41316e-05 4.68375e-05)
(1.01799 3.95476e-05 -4.01924e-06)
(1.0179 0.000102908 5.62315e-05)
(1.01784 1.69609e-05 2.50864e-05)
(1.01793 -4.44753e-05 2.98681e-05)
(1.01795 -1.64596e-05 5.6593e-06)
(1.01798 3.03501e-05 4.82628e-05)
(1.01792 0.000169317 2.30864e-06)
(1.01779 -7.79234e-05 2.52744e-05)
(1.01794 2.8383e-05 3.16355e-05)
(1.018 -9.85704e-05 -5.99073e-06)
(1.018 0.000154966 6.0721e-05)
(1.01787 0.000131413 -1.34881e-05)
(1.01786 2.22485e-05 4.53217e-05)
(1.01781 1.35636e-05 -1.12742e-05)
(1.01795 -0.000130885 -5.54419e-06)
(1.01804 0.00015717 2.86396e-05)
(1.01775 5.64966e-06 -1.92274e-05)
(1.01788 4.44043e-05 1.26752e-05)
(1.01792 -8.17133e-05 1.89258e-05)
(1.01789 -4.49328e-05 -8.29808e-06)
(1.01802 3.65171e-05 9.54982e-06)
(1.01787 9.80372e-05 3.4134e-05)
(1.0178 -1.83279e-05 -2.50858e-05)
(1.01794 -6.63496e-05 1.22433e-05)
(1.01795 -7.8262e-05 -3.22455e-05)
(1.01801 4.58862e-05 4.98315e-06)
(1.01788 0.000109845 7.76006e-06)
(1.01785 -5.57847e-05 -2.21079e-05)
(1.0179 -1.87654e-05 2.1814e-05)
(1.01797 -0.000138162 -1.59223e-05)
(1.01803 0.000122547 1.25711e-05)
(1.01785 6.00584e-06 2.10131e-05)
(1.01789 5.73947e-05 1.08834e-05)
(1.01786 -0.000106236 -1.41089e-05)
(1.01801 -6.91499e-05 1.23123e-05)
(1.01798 9.52441e-05 -2.62178e-05)
(1.01786 -1.92474e-06 3.36828e-05)
(1.01784 6.21114e-05 -9.77669e-06)
(1.01786 -0.000216225 1.83791e-06)
(1.01808 2.7269e-05 4.82312e-05)
(1.01801 4.2356e-05 6.52785e-06)
(1.01789 0.000180376 7.25638e-05)
(1.01779 1.40263e-06 2.94464e-05)
(1.01792 -5.21953e-05 3.97092e-05)
(1.01798 -5.83093e-05 1.73422e-06)
(1.01803 8.59406e-05 7.19954e-05)
(1.01789 0.000205777 -6.44022e-06)
(1.01775 -8.10225e-05 4.37242e-05)
(1.01793 6.22074e-06 2.08581e-05)
(1.01804 -0.00015173 -2.0974e-06)
(1.01806 0.000247116 7.56612e-05)
(1.01783 0.000143977 -1.50662e-05)
(1.01782 6.99674e-05 5.47932e-05)
(1.01776 -4.24777e-05 -3.31489e-05)
(1.018 -0.000149388 2.35594e-06)
(1.01808 0.000189665 1.4196e-05)
(1.01772 3.33481e-05 -1.11536e-05)
(1.01785 6.96981e-05 9.50671e-06)
(1.0179 -0.000148473 5.19594e-06)
(1.01793 -3.09659e-05 -2.88198e-06)
(1.01806 3.67076e-05 1.68452e-05)
(1.01785 0.000178598 3.70767e-05)
(1.01775 -3.35959e-05 -2.80741e-05)
(1.01792 -8.35368e-05 2.48805e-06)
(1.01798 -0.00011819 -5.02941e-05)
(1.01807 9.94035e-05 1.52618e-05)
(1.01785 0.0001471 2.42638e-07)
(1.01781 -4.05607e-05 -1.89678e-05)
(1.01788 -5.21614e-05 5.39353e-06)
(1.01802 -0.000184991 -2.05809e-05)
(1.01807 0.000181709 2.50286e-05)
(1.01783 2.36758e-05 1.598e-05)
(1.01785 9.98499e-05 1.60157e-05)
(1.01783 -0.000188283 -3.06756e-05)
(1.01807 -5.71891e-05 6.80267e-06)
(1.018 0.000100206 -2.21136e-05)
(1.01785 5.67418e-05 4.00236e-05)
(1.01777 3.58034e-05 -2.3578e-05)
(1.01786 -0.000262461 1.12097e-06)
(1.01814 4.00734e-06 4.36585e-05)
(1.01806 7.93715e-05 3.04555e-05)
(1.01788 0.000270677 8.76673e-05)
(1.01773 -1.06679e-05 3.80507e-05)
(1.0179 -6.33281e-05 3.99553e-05)
(1.01801 -0.000112408 8.64561e-07)
(1.0181 0.000159594 9.72047e-05)
(1.01784 0.000254823 -1.42011e-05)
(1.0177 -6.76884e-05 6.6357e-05)
(1.01791 -4.68035e-05 -4.71356e-06)
(1.0181 -0.000193091 8.07857e-06)
(1.01813 0.000344272 8.80673e-05)
(1.01779 0.000179818 -1.18107e-05)
(1.01777 0.000131841 5.85508e-05)
(1.01771 -0.000123348 -6.09524e-05)
(1.01806 -0.000171186 3.55091e-06)
(1.01812 0.000224714 5.0674e-07)
(1.0177 9.98109e-05 -1.12535e-06)
(1.0178 7.7887e-05 -9.13331e-06)
(1.01788 -0.000221546 -7.25924e-06)
(1.01798 -2.73596e-05 -3.82593e-06)
(1.01812 5.27383e-05 2.81261e-05)
(1.01783 0.000287335 4.21223e-05)
(1.01768 -4.73563e-05 -3.58685e-05)
(1.0179 -0.000110489 -1.75289e-05)
(1.01803 -0.000179219 -7.43594e-05)
(1.01813 0.000182422 2.77468e-05)
(1.01781 0.000193487 -7.62172e-06)
(1.01776 6.39889e-07 -2.59431e-05)
(1.01784 -0.000119223 -2.04277e-05)
(1.01808 -0.000221519 -2.18077e-05)
(1.01812 0.000242441 3.56699e-05)
(1.01782 6.73897e-05 1.13313e-05)
(1.01779 0.000142677 1.87968e-05)
(1.01779 -0.000286016 -6.27653e-05)
(1.01814 -4.90422e-05 -5.07821e-07)
(1.01803 0.000111094 -1.19722e-05)
(1.01784 0.000151504 4.01705e-05)
(1.01768 -9.29574e-07 -3.94934e-05)
(1.01785 -0.000317777 -1.52397e-05)
(1.01822 -5.17288e-05 4.08133e-05)
(1.01812 0.000162273 6.50068e-05)
(1.01785 0.000377402 0.000104986)
(1.01766 -6.11837e-06 4.49434e-05)
(1.01787 -9.70895e-05 2.49183e-05)
(1.01807 -0.000172324 7.68916e-06)
(1.01818 0.00025698 0.000125081)
(1.01779 0.000332801 -1.25637e-05)
(1.01763 -4.41927e-05 8.05124e-05)
(1.01788 -0.000127118 -5.18708e-05)
(1.01819 -0.000227848 2.73782e-05)
(1.01821 0.000442109 9.97884e-05)
(1.01774 0.000262076 -1.96926e-06)
(1.0177 0.000196399 5.19483e-05)
(1.01764 -0.000228039 -0.000106185)
(1.01814 -0.000199152 -9.61491e-06)
(1.01818 0.000270133 -2.66333e-06)
(1.01766 0.000198559 6.0325e-06)
(1.01772 7.68703e-05 -4.65851e-05)
(1.01786 -0.00029775 -2.57348e-05)
(1.01804 -3.91002e-05 -1.37377e-05)
(1.01819 9.45782e-05 4.7486e-05)
(1.01781 0.000419165 4.92133e-05)
(1.01759 -5.029e-05 -5.44466e-05)
(1.01787 -0.000155094 -5.77729e-05)
(1.0181 -0.000254922 -0.000107366)
(1.01821 0.000291881 4.69734e-05)
(1.01777 0.000268253 -1.12511e-05)
(1.01769 5.61199e-05 -4.75787e-05)
(1.01779 -0.000227151 -6.19736e-05)
(1.01816 -0.000250311 -2.88498e-05)
(1.01818 0.000306313 4.75129e-05)
(1.01779 0.000164027 9.55332e-06)
(1.01771 0.000176074 1.64046e-05)
(1.01775 -0.000398688 -0.000118586)
(1.01823 -5.87468e-05 -1.02009e-05)
(1.01808 0.000144966 4.84198e-06)
(1.01782 0.000278331 3.71453e-05)
(1.01755 -4.36175e-05 -6.92026e-05)
(1.01783 -0.000400552 -6.18932e-05)
(1.01831 -0.000121908 3.90707e-05)
(1.01821 0.000296421 0.000113674)
(1.01781 0.000500942 0.000133067)
(1.01756 1.80848e-05 4.22573e-05)
(1.01784 -0.000157027 -1.31444e-05)
(1.01814 -0.000226494 1.44584e-05)
(1.01828 0.000381447 0.000156298)
(1.01773 0.000460791 -1.47498e-06)
(1.01753 -2.23866e-05 8.14477e-05)
(1.01784 -0.000236865 -0.000121492)
(1.01831 -0.000259034 4.18897e-05)
(1.0183 0.000560437 0.000117241)
(1.0177 0.000397861 1.70959e-05)
(1.01759 0.000253904 2.80879e-05)
(1.01756 -0.000361362 -0.00017173)
(1.01823 -0.000237214 -4.31141e-05)
(1.01826 0.000356429 3.4337e-06)
(1.01762 0.000331051 4.72942e-06)
(1.01761 6.18561e-05 -0.000100468)
(1.01783 -0.000396932 -6.64424e-05)
(1.01812 -5.86858e-05 -3.22651e-05)
(1.01828 0.00018057 8.07745e-05)
(1.01778 0.000589622 5.87307e-05)
(1.01747 -4.31166e-05 -9.26678e-05)
(1.01783 -0.000239847 -0.00012921)
(1.01819 -0.00033461 -0.000148513)
(1.01832 0.000433824 7.23525e-05)
(1.01773 0.000391673 -1.53648e-05)
(1.01758 0.000117259 -9.19986e-05)
(1.01772 -0.000369875 -0.000122703)
(1.01827 -0.00027603 -4.47633e-05)
(1.01827 0.000385233 6.4093e-05)
(1.01777 0.000315834 8.89087e-06)
(1.01759 0.000192741 -1.19589e-06)
(1.0177 -0.000521288 -0.000212257)
(1.01834 -9.35965e-05 -2.32569e-05)
(1.01815 0.000228249 3.10685e-05)
(1.01778 0.000433234 3.85367e-05)
(1.01739 -8.18241e-05 -0.000126727)
(1.01782 -0.000543228 -0.000145263)
(1.01844 -0.000191847 3.5571e-05)
(1.01832 0.000490503 0.000181756)
(1.01775 0.000669751 0.000177361)
(1.01743 5.83791e-05 1.23491e-05)
(1.01779 -0.000260998 -8.41105e-05)
(1.01824 -0.000267911 2.26095e-05)
(1.0184 0.00055393 0.000202205)
(1.01765 0.000651046 2.42335e-05)
(1.0174 -1.46823e-05 4.71072e-05)
(1.0178 -0.000371939 -0.000231766)
(1.01845 -0.000296022 5.24737e-05)
(1.01842 0.000717278 0.00015361)
(1.01763 0.000601694 4.13999e-05)
(1.01744 0.000296211 -2.99422e-05)
(1.01747 -0.000528069 -0.000287276)
(1.01837 -0.000282924 -9.82729e-05)
(1.01837 0.00049387 3.41907e-05)
(1.01756 0.000499059 -5.81312e-06)
(1.01747 3.56314e-05 -0.000185538)
(1.01781 -0.000528051 -0.000147727)
(1.01822 -7.75099e-05 -6.3232e-05)
(1.0184 0.000320739 0.00013164)
(1.01773 0.000806226 7.30723e-05)
(1.01731 -2.99254e-05 -0.000166826)
(1.01777 -0.000372485 -0.000249744)
(1.01831 -0.000420957 -0.000208212)
(1.01845 0.000624059 0.000116932)
(1.01766 0.000579111 -1.15141e-05)
(1.01743 0.000162392 -0.000176632)
(1.01765 -0.000553952 -0.0002275)
(1.0184 -0.000308883 -7.79638e-05)
(1.01837 0.00051339 9.75034e-05)
(1.01772 0.000538115 1.21813e-05)
(1.01743 0.000186224 -4.36243e-05)
(1.01765 -0.000675021 -0.00036184)
(1.01847 -0.000148609 -4.70105e-05)
(1.01825 0.000374583 7.42245e-05)
(1.01772 0.000621742 4.68241e-05)
(1.01719 -0.000132333 -0.000239154)
(1.01779 -0.000762436 -0.000295262)
(1.01861 -0.000247713 2.13435e-05)
(1.01846 0.000747588 0.000287866)
(1.01767 0.000907167 0.000240724)
(1.01727 8.8215e-05 -5.71246e-05)
(1.01772 -0.000394035 -0.000219036)
(1.01837 -0.00029077 1.51307e-05)
(1.01854 0.000793686 0.000275567)
(1.01755 0.000927463 6.26765e-05)
(1.01721 -3.20635e-05 -3.08645e-05)
(1.01774 -0.000545579 -0.000411195)
(1.01862 -0.000324385 3.639e-05)
(1.01856 0.000946768 0.000221695)
(1.01755 0.000880208 7.13338e-05)
(1.01724 0.000310521 -0.000136576)
(1.01737 -0.000744983 -0.000473711)
(1.01853 -0.000323341 -0.000191175)
(1.01848 0.000717577 8.20421e-05)
(1.01747 0.000710026 -1.95921e-05)
(1.01729 -2.31798e-05 -0.000318056)
(1.01778 -0.000711869 -0.000306356)
(1.01836 -7.65356e-05 -0.000105302)
(1.01853 0.000549759 0.000211851)
(1.01766 0.00109336 9.88217e-05)
(1.0171 -2.96031e-05 -0.000304806)
(1.01769 -0.000565135 -0.000445009)
(1.01847 -0.000502255 -0.000292285)
(1.01861 0.000891093 0.00018561)
(1.01757 0.00084313 -5.47169e-06)
(1.01722 0.000191104 -0.00031818)
(1.01757 -0.000786973 -0.000392342)
(1.01858 -0.000351949 -0.000136396)
(1.01851 0.000715267 0.000151647)
(1.01765 0.000824779 1.44911e-05)
(1.01721 0.000162975 -0.00013287)
(1.01759 -0.000871741 -0.000596481)
(1.01864 -0.00021117 -8.75286e-05)
(1.01837 0.000608728 0.000148095)
(1.01763 0.000856871 6.92571e-05)
(1.01692 -0.000215067 -0.000435199)
(1.01776 -0.00108153 -0.000538825)
(1.01883 -0.000287268 -2.45146e-05)
(1.01861 0.00109796 0.000445011)
(1.01755 0.00124759 0.000318458)
(1.01705 8.23604e-05 -0.000202108)
(1.01765 -0.000590916 -0.000445771)
(1.01853 -0.000280098 -1.61132e-05)
(1.01871 0.00114806 0.000388531)
(1.0174 0.00130425 0.000112115)
(1.01696 -7.28713e-05 -0.000195832)
(1.01769 -0.000769797 -0.000697419)
(1.01883 -0.000334066 -8.00916e-06)
(1.01872 0.00127537 0.000333621)
(1.01743 0.00124429 9.96264e-05)
(1.01697 0.000276769 -0.000326844)
(1.01727 -0.00102909 -0.000786753)
(1.01873 -0.000346417 -0.000331225)
(1.01862 0.00105144 0.000173503)
(1.01733 0.00097928 -4.75279e-05)
(1.01705 -0.000120857 -0.000536477)
(1.01776 -0.000967165 -0.000580132)
(1.01853 -4.88502e-05 -0.000177211)
(1.01869 0.000896067 0.000323771)
(1.01754 0.00146408 0.000130784)
(1.01682 -5.89694e-05 -0.000534014)
(1.01761 -0.000836585 -0.00075633)
(1.01868 -0.00057391 -0.000427043)
(1.01879 0.00126649 0.000301137)
(1.01744 0.00120584 7.10741e-06)
(1.01695 0.000179444 -0.000554508)
(1.01747 -0.00109232 -0.000664578)
(1.01879 -0.000400133 -0.000228891)
(1.01867 0.00104131 0.000242431)
(1.01754 0.00119293 1.59641e-05)
(1.01693 0.000104926 -0.000297671)
(1.01752 -0.00114785 -0.000961)
(1.01885 -0.000265457 -0.000161843)
(1.01851 0.000953151 0.000266627)
(1.01749 0.00116791 9.99916e-05)
(1.01658 -0.000369674 -0.00078763)
(1.01772 -0.00152227 -0.0009501)
(1.0191 -0.00030021 -0.000122347)
(1.01878 0.00159652 0.000671827)
(1.01737 0.00169902 0.000401765)
(1.01676 9.22225e-06 -0.000475844)
(1.01759 -0.000842734 -0.000850176)
(1.01875 -0.000232086 -9.1627e-05)
(1.01888 0.00165972 0.000551463)
(1.01719 0.00179658 0.000156992)
(1.01665 -0.000182794 -0.000499483)
(1.01763 -0.00107376 -0.00117361)
(1.01908 -0.000295014 -0.000110131)
(1.0189 0.00174848 0.000497523)
(1.01725 0.00171052 0.000115076)
(1.01662 0.000178341 -0.000653805)
(1.01716 -0.00141349 -0.00129234)
(1.01898 -0.000326192 -0.000556099)
(1.01875 0.00155187 0.000295409)
(1.01712 0.00130787 -9.25237e-05)
(1.01675 -0.000301025 -0.000901743)
(1.01775 -0.00133038 -0.00103751)
(1.01876 4.02119e-05 -0.000290324)
(1.01885 0.0014056 0.000480222)
(1.01737 0.00194344 0.000166362)
(1.01647 -0.000151937 -0.000926321)
(1.01751 -0.0012168 -0.00124908)
(1.01894 -0.000618242 -0.000632897)
(1.01899 0.00178867 0.000463547)
(1.01725 0.00168591 3.29832e-06)
(1.0166 0.00011044 -0.000939113)
(1.01737 -0.00150835 -0.00110423)
(1.01905 -0.000418845 -0.000383529)
(1.01885 0.00152261 0.000372966)
(1.01736 0.00165324 -7.33723e-07)
(1.01657 4.82504e-06 -0.000596639)
(1.01744 -0.00151498 -0.00152082)
(1.0191 -0.000287024 -0.00029497)
(1.01867 0.00143977 0.000451356)
(1.01729 0.00157491 0.000131389)
(1.01625 -0.000620695 -0.00136881)
(1.01777 -0.00211719 -0.00162845)
(1.01945 -0.00028268 -0.000314808)
(1.01897 0.00229519 0.000988572)
(1.01714 0.00229877 0.000475813)
(1.01649 -0.000174062 -0.000972229)
(1.01758 -0.00121033 -0.00151841)
(1.01902 -8.41616e-05 -0.000239202)
(1.01907 0.00240888 0.000781499)
(1.01694 0.00242954 0.000186267)
(1.01634 -0.000392048 -0.00104499)
(1.01765 -0.00148575 -0.00193114)
(1.01938 -0.000174697 -0.000300504)
(1.01907 0.00239246 0.000727868)
(1.01703 0.00229398 0.000101022)
(1.01627 -3.31655e-05 -0.00120972)
(1.01713 -0.00191117 -0.00211354)
(1.0193 -0.000219361 -0.000903287)
(1.01888 0.00226518 0.000481327)
(1.01689 0.00171313 -0.000191903)
(1.01647 -0.000588455 -0.0015036)
(1.0178 -0.00183245 -0.00178639)
(1.01903 0.000208877 -0.000500376)
(1.019 0.00214384 0.000688872)
(1.01714 0.00253588 0.000183847)
(1.01611 -0.000356787 -0.00155842)
(1.01746 -0.00173231 -0.00203412)
(1.01926 -0.00061773 -0.000961511)
(1.01919 0.00250575 0.000699002)
(1.01702 0.00230754 -2.43101e-05)
(1.01623 -6.12909e-05 -0.00156272)
(1.01733 -0.00207173 -0.00181777)
(1.01937 -0.000388656 -0.000631552)
(1.01902 0.00221691 0.000567673)
(1.01716 0.00222947 -4.63389e-05)
(1.01622 -0.000193383 -0.00111033)
(1.01744 -0.00201362 -0.0023858)
(1.01943 -0.000253514 -0.000521681)
(1.01883 0.0021186 0.000726522)
(1.01706 0.00210408 0.000151883)
(1.0165 -0.00105446 -0.00215655)
(1.01828 -0.00287834 -0.00269746)
(1.01995 -0.000162895 -0.000708133)
(1.01919 0.00327105 0.0014297)
(1.01715 0.00300355 0.000650195)
(1.01675 -0.000510393 -0.00166498)
(1.01795 -0.00168881 -0.00259283)
(1.0194 0.000210745 -0.000533504)
(1.01931 0.00343735 0.0011245)
(1.01692 0.00316479 0.000314054)
(1.01658 -0.000773791 -0.00179564)
(1.01805 -0.00201832 -0.00309458)
(1.01974 0.000103544 -0.00067419)
(1.01927 0.00328193 0.00106531)
(1.0171 0.00297345 0.000199352)
(1.01644 -0.000445765 -0.0019671)
(1.01753 -0.00257305 -0.00334144)
(1.01967 1.88802e-05 -0.00147524)
(1.01904 0.00324357 0.000775114)
(1.01707 0.00214645 -0.00018131)
(1.01676 -0.0010845 -0.00232742)
(1.01823 -0.00249392 -0.00295604)
(1.01931 0.000529755 -0.000917759)
(1.01916 0.00315655 0.000993314)
(1.01719 0.00324641 0.000319413)
(1.01626 -0.000757089 -0.0024195)
(1.01775 -0.0024288 -0.0032255)
(1.01968 -0.000522316 -0.00151762)
(1.01943 0.00347256 0.00102861)
(1.0171 0.00305168 3.61618e-05)
(1.0163 -0.000409848 -0.00242418)
(1.01766 -0.00281275 -0.00294212)
(1.01972 -0.000259779 -0.00108616)
(1.01917 0.00316466 0.000877964)
(1.01727 0.00289079 1.53891e-05)
(1.0164 -0.000520199 -0.00180947)
(1.01789 -0.00266871 -0.00365692)
(1.01988 -0.000111986 -0.000952069)
(1.019 0.00303955 0.00113477)
(1.01714 0.00272977 0.00030221)
(1.01901 -0.00178011 -0.0022864)
(1.02016 -0.00377578 -0.00405951)
(1.02068 8.83588e-05 -0.00164169)
(1.01976 0.00450255 0.00205697)
(1.01848 0.00369642 0.00167497)
(1.0191 -0.00114893 -0.00178345)
(1.01942 -0.00227837 -0.00403414)
(1.01995 0.000710761 -0.00124678)
(1.01994 0.00474274 0.00173221)
(1.01832 0.00388182 0.00132721)
(1.01897 -0.0014262 -0.0019023)
(1.01953 -0.00262294 -0.00458003)
(1.02005 0.000612834 -0.0015714)
(1.01975 0.0043573 0.0016716)
(1.01871 0.00359792 0.00132696)
(1.01877 -0.00114766 -0.00208949)
(1.01921 -0.00333306 -0.00480508)
(1.02003 0.000467769 -0.00251755)
(1.01961 0.00440244 0.00144619)
(1.01919 0.00249597 0.000909252)
(1.01927 -0.00185025 -0.00254372)
(1.01975 -0.00328503 -0.00449023)
(1.0195 0.00104016 -0.00192951)
(1.01957 0.00438449 0.00152307)
(1.01873 0.00390147 0.00137505)
(1.01845 -0.00144997 -0.0026924)
(1.01905 -0.00325476 -0.00472071)
(1.02024 -0.000306588 -0.00254853)
(1.01994 0.00465986 0.00158702)
(1.01884 0.00378179 0.00100956)
(1.01831 -0.00104029 -0.00280405)
(1.01905 -0.00368641 -0.00449996)
(1.01994 3.34809e-05 -0.00215105)
(1.01946 0.0042955 0.00146372)
(1.01898 0.00348035 0.00109355)
(1.01867 -0.00110416 -0.00189113)
(1.01964 -0.00344526 -0.00520124)
(1.0205 0.00019536 -0.00192488)
(1.01941 0.00416608 0.00173969)
(1.01888 0.00328914 0.00147286)
(1.02515 -0.00273783 0.000652525)
(1.02311 -0.00465226 -0.00519408)
(1.02102 0.000364217 -0.00389146)
(1.02161 0.00551107 0.00297514)
(1.02295 0.00401845 0.00556608)
(1.02495 -0.00199096 0.000939289)
(1.02194 -0.00282726 -0.00556812)
(1.02041 0.00119877 -0.0031431)
(1.02198 0.00585968 0.00290383)
(1.02318 0.0042836 0.00527339)
(1.02484 -0.00223327 0.000993372)
(1.02188 -0.00304769 -0.00600118)
(1.0198 0.00117667 -0.00385177)
(1.02141 0.005225 0.00285437)
(1.02405 0.00384567 0.00578051)
(1.02472 -0.00205615 0.000731051)
(1.0221 -0.00403649 -0.00583146)
(1.01972 0.000969424 -0.00465108)
(1.0218 0.00532983 0.00310097)
(1.02551 0.00248923 0.00558052)
(1.02541 -0.00270992 0.000224387)
(1.0221 -0.00397504 -0.00585856)
(1.01921 0.0015641 -0.00425855)
(1.02114 0.00541481 0.00264647)
(1.02388 0.00423509 0.00548697)
(1.02399 -0.0023146 -0.000148208)
(1.02103 -0.00404701 -0.00593589)
(1.02032 -0.000123237 -0.00455192)
(1.02145 0.00567326 0.00267774)
(1.02451 0.00425616 0.00499359)
(1.02374 -0.00178788 -0.000544225)
(1.02117 -0.00452753 -0.00614782)
(1.01921 0.000358279 -0.00475164)
(1.02063 0.00520775 0.00260406)
(1.02431 0.00371882 0.00550781)
(1.02446 -0.00186249 0.000868673)
(1.0225 -0.00422143 -0.00630664)
(1.02076 0.000513542 -0.00419035)
(1.02076 0.00507888 0.00256822)
(1.02444 0.00345466 0.00594673)
(1.03045 -0.00317193 0.00782303)
(1.02192 -0.00524052 -0.00607964)
(1.01834 -0.000136306 -0.00790884)
(1.02487 0.00527002 0.00463193)
(1.02932 0.00379904 0.0137795)
(1.03011 -0.00242564 0.00761054)
(1.02158 -0.00312745 -0.00717531)
(1.01929 0.000821116 -0.00673657)
(1.02544 0.00575182 0.00510733)
(1.03075 0.00427315 0.0135846)
(1.0301 -0.0024614 0.00779675)
(1.02126 -0.00300522 -0.0073853)
(1.01771 0.000865272 -0.00791498)
(1.02417 0.00472543 0.00503836)
(1.03207 0.00360703 0.0149542)
(1.03014 -0.00238919 0.00739086)
(1.02175 -0.00436542 -0.00659446)
(1.01687 0.000606459 -0.00825069)
(1.02593 0.00482486 0.00647012)
(1.03396 0.0021739 0.0151742)
(1.0309 -0.00282829 0.00708614)
(1.02067 -0.00433735 -0.00703367)
(1.01714 0.00123915 -0.00807752)
(1.02439 0.00515573 0.0051431)
(1.03165 0.0041191 0.0141315)
(1.02905 -0.00249875 0.00621111)
(1.01979 -0.00449852 -0.00671556)
(1.01779 -0.000831674 -0.00777244)
(1.02362 0.00544384 0.00489912)
(1.0331 0.00426327 0.0135477)
(1.02953 -0.00179087 0.00560474)
(1.02004 -0.00503864 -0.00760538)
(1.01602 -0.00016766 -0.00910076)
(1.02305 0.00477022 0.00509282)
(1.03164 0.0035086 0.0149457)
(1.02984 -0.00210563 0.00743464)
(1.02183 -0.00469341 -0.00666904)
(1.01856 -2.43183e-05 -0.00789887)
(1.02291 0.00461288 0.00397254)
(1.03249 0.00310167 0.0153064)
(1.02472 -0.00223825 0.0138172)
(1.0105 -0.00553808 -0.0102305)
(1.01011 -0.00242527 -0.0131055)
(1.02492 0.00309554 0.00864782)
(1.02906 0.00348727 0.024721)
(1.02467 -0.00166631 0.0132333)
(1.01358 -0.003336 -0.0115982)
(1.01436 -0.00146193 -0.0115518)
(1.02508 0.00367709 0.00934036)
(1.03284 0.00421206 0.0246241)
(1.02526 -0.00132828 0.0132494)
(1.01351 -0.00261637 -0.0114634)
(1.01259 -0.00128368 -0.01262)
(1.02307 0.00222204 0.0094928)
(1.03398 0.00318742 0.026572)
(1.02502 -0.0014438 0.0126717)
(1.01245 -0.00435502 -0.0108223)