/*--------------------------------*- C++ -*----------------------------------*\
  =========                 |
  \\      /  F ield         | OpenFOAM: The Open Source CFD Toolbox
   \\    /   O peration     | Website:  https://openfoam.org
    \\  /    A nd           | Version:  10
     \\/     M anipulation  |
\*---------------------------------------------------------------------------*/
FoamFile
{
    format      ascii;
    class       surfaceScalarField;
    location    "6";
    object      phi;
}
// * * * * * * * * * * * * * * * * * * * * * * * * * * * * * * * * * * * * * //

dimensions      [0 3 -1 0 0 0 0];

internalField   nonuniform List<scalar> 
74080
(
0.00525104
1.75325e-05
-0.000209792
0.00528381
1.29344e-05
-0.000265825
0.00530059
-1.89303e-05
-0.00025263
0.00531832
-5.066e-05
-0.000183938
0.00535242
-4.80879e-05
-0.000111229
0.005375
3.87798e-05
-3.02265e-05
0.00539278
0.000147689
5.80651e-05
0.00539296
0.000204621
0.000139192
0.00535917
0.000181168
0.000205635
0.00530516
7.54719e-05
0.000221144
0.0052274
-3.04963e-05
0.000142831
0.0051432
-8.53274e-05
-2.23719e-05
0.005076
-5.77724e-05
-0.000197519
0.00504491
2.7817e-05
-0.000308315
0.00506748
0.000114255
-0.000314668
0.00513676
0.00017574
-0.000246556
0.00521066
0.000187417
-0.000167876
0.00526184
0.000143134
-5.76311e-05
0.00530137
5.87774e-05
4.86732e-05
0.00531675
1.09059e-05
7.44827e-05
0.0053098
2.4522e-05
2.45467e-05
0.00530227
3.86302e-05
-6.68123e-05
0.0052906
2.84365e-05
-0.000109255
0.0052878
-1.40749e-06
-8.37562e-05
0.00528422
-7.02912e-06
-4.37841e-05
0.00525664
3.41175e-05
-3.65096e-05
0.00522308
7.17043e-05
-9.08008e-05
0.00523394
7.75114e-05
-0.000179343
0.00530753
5.10189e-05
-0.000214731
0.00541646
4.18894e-05
-0.000156637
0.00549727
8.27171e-05
-5.33638e-05
0.00549036
0.000112051
1.423e-05
0.00541295
8.09652e-05
1.09589e-05
0.00530563
-2.03529e-05
2.59765e-05
0.00520766
-0.000136479
0.000117583
0.00513639
-0.000189783
0.000240316
0.00510697
-0.000204991
0.000308861
0.00512182
-0.000178172
0.000258183
0.00516104
-9.72797e-05
9.91031e-05
-2.00977e-05
-8.78342e-05
0.00474387
-0.000112888
-0.00012866
0.00477097
-8.34607e-05
-5.63833e-05
0.00471555
-6.75146e-05
-2.86829e-05
0.00464217
-6.97457e-05
-4.2925e-05
0.00461713
-5.50536e-05
-7.30047e-05
0.00466617
5.34018e-05
-5.96343e-05
0.00480812
0.00019442
-2.85365e-05
0.00498504
0.00028457
7.06278e-08
0.00507849
0.000285387
4.8783e-05
0.00503038
0.000184277
0.000109312
0.00488278
6.52104e-05
0.000128544
0.00474759
-1.70403e-05
3.25703e-05
0.00468463
-1.63935e-05
-0.000143301
0.00469402
2.91273e-05
-0.000306423
0.00474728
5.13217e-05
-0.000330889
0.00480979
4.41332e-05
-0.000205315
0.00483716
2.67974e-05
-7.56408e-06
0.00483075
9.09421e-06
0.00016946
0.00481492
-6.13194e-06
0.000211825
0.00480151
3.15797e-05
0.000101773
0.00482174
6.95262e-05
-4.19172e-05
0.00486401
4.64445e-05
-8.79697e-05
0.00488541
-2.50681e-06
-1.16393e-05
0.00487271
-3.79932e-05
9.31937e-05
0.00482243
-3.21357e-06
0.000136095
0.00478262
6.91442e-05
0.000101853
0.00481545
6.6674e-05
1.48575e-05
0.00491895
4.4507e-07
-4.96303e-05
0.00503328
-7.03268e-05
-3.41973e-05
0.00508663
-8.69978e-05
5.10945e-05
0.00506855
-2.64237e-05
0.000149325
0.00500287
4.45157e-05
0.000236597
0.00492622
4.39617e-05
0.000287457
0.0048303
-1.7452e-05
0.00030035
0.0046901
-6.67684e-05
0.000236157
0.00454125
-9.07626e-05
0.000110238
0.00444353
-0.000131248
-2.59598e-05
0.00442754
-0.00016078
-0.000147175
0.00450654
-0.000164898
-0.0002171
-0.000153119
-0.000206527
0.00396341
-0.000154979
-0.000270585
0.00402765
-0.000147479
-0.000144474
0.00407859
-0.000124521
-1.37351e-05
0.00411711
-9.81682e-05
7.38431e-05
0.00417817
-5.42259e-05
3.72647e-05
0.00433061
4.64397e-05
-8.46154e-05
0.00456562
0.000153307
-0.000138013
0.00474175
0.000234598
-6.35717e-05
0.00473255
0.000263323
0.000117231
0.00455471
0.000203438
0.000264275
0.00435235
8.88605e-05
0.000240752
0.00424592
-2.00833e-05
4.94338e-05
0.00423643
-7.04082e-05
-0.000163111
0.00427318
-8.40474e-05
-0.000236869
0.00430575
-0.000113444
-9.60196e-05
0.00431644
-0.000134923
0.000119153
0.00430286
-0.000103464
0.00026416
0.00428181
-5.11739e-05
0.000261823
0.00426242
-4.19394e-06
0.000135435
0.00425962
5.71135e-05
1.15135e-05
0.00430566
7.97508e-05
-2.88868e-05
0.00438595
5.50788e-05
2.30261e-05
0.00446681
1.25824e-05
0.000101472
0.00450967
-1.6337e-05
0.000129331
0.00447434
4.55629e-05
0.000137616
0.00439844
0.000139672
0.000141029
0.00434643
0.000143278
9.16919e-05
0.00436697
4.4391e-05
-9.54278e-06
0.0044628
-0.000103815
-7.67938e-05
0.00457034
-0.00018268
-1.73865e-05
0.00460655
-0.000129834
0.000231318
0.00456339
-3.45712e-05
0.00053125
0.00451566
-1.42687e-05
0.000612851
0.00448713
-2.97208e-05
0.000396602
0.0044177
2.95e-05
6.3806e-05
0.00428632
9.63e-05
-0.0001991
0.00412781
7.12667e-05
-0.000331782
0.00399264
7.17561e-06
-0.000387456
0.00391926
-7.99663e-05
-0.000397017
-0.000148428
-0.000360342
0.00362655
-8.7868e-05
-0.000289279
0.00368724
-0.000143618
-3.95604e-05
0.00379145
-0.000185829
0.000130206
0.00393235
-0.000200581
0.000200543
0.00406718
-0.000152741
0.000194749
0.0041605
-2.0667e-05
0.000170945
0.00416083
0.00014673
0.000138852
0.00406141
0.000275101
7.63114e-05
0.00392687
0.000307784
3.01506e-05
0.0038393
0.000212561
-5.62251e-07
0.00383262
3.40767e-05
-2.97726e-05
0.00385806
-0.000111736
-4.44379e-05
0.00384481
-0.00014838
-2.57712e-05
0.00377563
-0.000125129
6.80801e-05
0.00369657
-0.000121011
0.00016748
0.00366035
-0.000144287
0.000184144
0.00367939
-0.000127458
0.000103246
0.00373631
-8.31649e-05
-1.32343e-05
0.00377471
-3.38731e-05
-7.11228e-05
0.00380491
1.53992e-05
-6.65909e-05
0.00385707
3.9566e-05
-8.3333e-05
0.00390982
6.87371e-05
-0.000149029
0.0039637
6.54624e-05
-0.000175116
0.00400205
3.65523e-05
-6.68404e-05
0.00400843
7.52226e-05
0.000149262
0.00400084
0.000143951
0.000286065
0.00399486
0.000148759
0.000224579
0.00401588
3.86991e-05
5.06244e-05
0.00405302
-0.000156153
-1.50757e-05
0.00405026
-0.000249466
0.000117754
0.00398921
-0.000166127
0.000362261
0.00390504
-4.32285e-05
0.000514604
0.00387488
-5.75094e-05
0.000408561
0.00391378
-0.000142657
0.000206583
0.00393298
-0.00010531
7.41464e-05
0.00387231
1.27625e-05
-4.03712e-05
0.00374143
8.31342e-05
-0.000191526
0.00361473
0.000100895
-0.00039444
0.00357423
3.29208e-05
-0.000550198
-4.04993e-05
-0.000514131
0.00333306
-7.48479e-05
0.000123533
0.00323571
-9.10175e-05
0.000347183
0.00322627
-0.000143882
0.000226063
0.00333314
-0.000219846
-7.41745e-05
0.00347965
-0.000201156
-0.000274569
0.00359357
-8.1265e-05
-0.000205036
0.00364234
7.48043e-05
-1.82313e-05
0.00363229
0.000204165
0.000130446
0.00360395
0.000273287
0.000226671
0.00359496
0.00021671
0.000261809
0.0036191
8.02187e-05
0.000185894
0.00363165
-2.73528e-05
3.62894e-05
0.00359381
-6.26993e-05
-9.07525e-05
0.00350552
-3.50924e-05
-0.000151448
0.00338853
-2.77957e-05
-0.000140127
0.00329411
-6.58121e-05
-0.000136001
0.00328011
-7.11994e-05
-0.000189728
0.00332967
-6.06584e-05
-0.000218512
0.00335907
-2.89379e-05
-0.000113816
0.00335429
-6.54675e-06
7.90853e-05
0.00335059
1.58532e-05
0.000183441
0.00338968
8.07691e-05
0.000147841
0.00349265
8.63016e-05
5.28931e-05
0.00356954
5.65422e-05
1.74075e-05
0.0035479
7.96977e-05
0.000103329
0.00348306
0.000101889
0.000170559
0.00346287
8.07622e-05
0.000109039
0.00353995
-3.77893e-05
-1.9107e-05
0.00366293
-0.000202089
-6.40183e-05
0.00371676
-0.000259619
9.60526e-05
0.00366161
-0.000204448
0.00035962
0.00353862
-9.0976e-05
0.000449187
0.00345642
-3.8625e-05
0.000265843
0.00348584
-9.87939e-05
6.2823e-05
0.00358866
-0.000131756
-4.11395e-05
0.0036414
-8.2224e-05
-0.000132698
0.00356574
4.75726e-05
-0.000269642
0.00345647
0.000141019
-0.000447038
0.00342125
8.26262e-05
-0.00052416
-2.22544e-05
-0.000294914
0.00300852
-8.84081e-06
0.00026046
0.00290495
5.86098e-05
0.000237296
0.00284419
-4.73242e-05
2.20608e-05
0.00285939
-0.000292956
-0.00019391
0.00292713
-0.000390023
-0.000340188
0.00300757
-0.000264395
-0.000375373
0.00309053
-6.33218e-05
-0.000334458
0.00318506
8.78341e-05
-0.000172372
0.00326611
0.000176173
0.000120462
0.00334149
0.000174293
0.000281104
0.00341154
0.000116601
0.000186711
0.00342693
5.64862e-05
2.76507e-05
0.00334522
1.99478e-05
-2.87796e-05
0.00318772
4.5313e-05
1.42058e-05
0.00305953
5.33615e-05
6.14553e-06
0.00302649
3.63131e-05
-0.000181813
0.00307055
4.60574e-05
-0.000416561
0.00311633
3.80305e-05
-0.000411881
0.00310464
3.80084e-05
-0.00017033
0.00308478
-9.044e-06
4.41118e-05
0.00312278
-3.15456e-05
8.38596e-05
0.00321867
3.66261e-05
5.53275e-05
0.00331225
5.76781e-05
5.82179e-05
0.00329847
8.75445e-05
0.000110608
0.00319742
0.000143711
0.000130554
0.00313414
0.000112183
3.12399e-05
0.00314553
4.09702e-05
-8.42871e-05
0.00320673
-7.43906e-05
-0.000159314
0.00328078
-0.000177564
-0.000144192
0.00332637
-0.000179383
-1.77037e-05
0.00330893
-0.000159176
0.000156915
0.00320609
-8.54728e-05
0.000215427
0.00305498
7.90824e-06
9.89133e-05
0.00292423
3.08756e-05
-5.94631e-05
0.00287406
1.54986e-05
-0.000211892
0.00292395
-2.54695e-05
-0.000349627
0.00301625
-1.29539e-05
-0.000447326
0.00309432
5.42181e-06
-0.000457512
0.00312556
-4.69668e-05
-0.000302921
-6.55782e-05
8.61244e-06
0.00288948
4.78345e-05
0.000377448
0.00289506
3.03096e-05
0.0003597
0.00287411
-0.000116165
0.000156608
0.00279436
-0.000308061
-9.6526e-05
0.00266889
-0.000398498
-0.000205737
0.00257826
-0.000307814
-0.000203068
0.00258845
-0.00017378
-0.000129662
0.00270105
-8.18585e-05
5.39473e-05
0.0028834
-3.52006e-05
0.00021729
0.00308658
-2.29576e-05
0.000157258
0.00318464
-9.72828e-06
-1.62777e-06
0.0030979
1.37293e-05
-3.42746e-05
0.00291856
4.03032e-05
1.15903e-05
0.00278934
0.000111555
5.20296e-05
0.00279067
0.000134739
-1.30698e-05
0.00288856
0.000103382
-0.000210019
0.00297608
6.03609e-05
-0.000365378
0.00295585
3.21724e-05
-0.000364207
0.00284704
5.71205e-05
-0.000248783
0.00277231
7.81366e-06
-0.0001172
0.00279196
-6.38963e-05
3.21098e-05
0.00287981
-7.24485e-05
0.000174018
0.00297048
-0.000129485
0.000228027
0.00298614
-9.59843e-05
0.000222845
0.00298583
-8.29354e-06
0.000158987
0.00305756
-1.94823e-06
4.03252e-05
0.00312148
3.62887e-05
-3.27442e-05
0.00305779
4.76415e-05
-0.000100532
0.00286123
-6.17067e-06
-0.000140246
0.00263731
-4.96963e-05
-0.00012982
0.00252581
-0.000139049
-0.000117333
0.00254139
-0.000123597
-9.95673e-05
0.0026175
-5.23455e-05
-2.19281e-05
0.00264806
-1.30058e-05
0.000103245
0.0026145
8.15923e-06
7.18759e-05
0.00260058
-4.29127e-05
-0.000125603
0.0026772
-0.000126259
-0.000355116
0.00283079
-0.000165111
-0.000455462
0.00292567
-0.000118385
-0.000268456
-1.92061e-05
0.000129951
0.00256433
9.48241e-05
0.000331353
0.00261227
2.14073e-06
0.000222541
0.00268035
-0.000105279
-4.1224e-05
0.00268668
-0.000205623
-0.00024017
0.00259794
-0.000249851
-0.000209975
0.00250186
-0.000206431
-7.20043e-05
0.00248556
-0.000210195
5.03335e-05
0.00253263
-0.000233449
0.000149626
0.0026037
-0.000207749
0.000178716
0.00270196
-0.000180302
0.000114604
0.00280475
-0.000140933
7.49189e-05
0.00284169
-6.42524e-05
9.50978e-05
0.00279188
5.59363e-05
7.74327e-05
0.00269511
0.000194947
5.20614e-05
0.00264927
0.000179608
3.40666e-07
0.0026815
5.47885e-05
-5.82727e-05
0.00271865
-2.51526e-05
-4.51204e-05
0.00267169
7.60355e-07
-3.79395e-05
0.00254987
0.000132079
-9.94914e-05
0.00244263
0.000141128
-0.000158553
0.00239043
6.73143e-05
-8.60094e-05
0.00244141
-6.64619e-05
7.61538e-05
0.00259306
-0.000285246
0.000123576
0.00268794
-0.000279118
0.000118372
0.00268629
-0.000143752
6.63204e-05
0.00269027
-8.06349e-05
-7.21039e-07
0.00274071
2.85719e-05
1.09763e-05
0.00282611
4.48004e-05
1.57166e-05
0.00281529
3.92061e-05
1.09863e-05
0.00270319
2.20746e-05
-3.80193e-05
0.00261172
-0.000137774
-0.000118688
0.00259022
-0.000199259
-0.000112921
0.00256676
-0.000152839
3.02668e-05
0.00248438
-5.08484e-05
0.000157015
0.00241537
2.71441e-05
0.000126234
0.00242437
-1.43156e-05
-7.51637e-05
0.00250535
-0.000136195
-0.000315795
0.00262199
-0.000208434
-0.000398171
0.00265691
-9.96313e-05
-0.0001937
7.13272e-05
0.000158174
0.00217894
8.35885e-05
0.000161935
0.00219488
3.66283e-06
0.000151708
0.00223641
-5.2288e-05
4.54061e-05
0.00227491
-0.000127284
-8.62197e-05
0.00230091
-0.000176787
-0.000144136
0.00233963
-0.000174832
-0.000145179
0.00233927
-0.000204697
-9.85311e-05
0.00228172
-0.000245829
3.36201e-05
0.00224921
-0.000237975
0.00014789
0.00229439
-0.000192838
0.000189679
0.00239305
-0.00011191
0.000190688
0.00244823
5.82538e-06
0.000121502
0.00241479
0.000162445
1.04593e-05
0.00236345
0.000271333
-2.06375e-05
0.00236702
0.000169052
-1.79265e-05
0.00238953
7.22532e-06
-2.55495e-05
0.00238583
-6.08048e-05
3.66962e-06
0.00233388
1.6004e-05
5.24873e-05
0.00226275
0.000177581
0.000107539
0.0022174
0.000192256
0.000120838
0.00219675
0.000145423
5.88671e-05
0.00220983
1.66502e-05
-5.45939e-05
0.00223483
-0.000169942
-0.000170508
0.00221965
-0.000141436
-0.000174793
0.00222003
-9.91865e-05
-0.000134641
0.00233757
-0.00018621
-9.01567e-05
0.0025786
-0.000176908
-8.27757e-05
0.00281517
-0.000159359
-0.000132361
0.00287603
-6.71642e-05
-0.000107321
0.0027508
2.16118e-06
-3.2026e-05
0.0025823
-0.000160284
4.04444e-08
0.00247665
-0.000287182
3.5333e-05
0.00240559
-0.000263598
0.000110722
0.00232355
-0.000106118
0.000157213
0.00224484
1.98799e-05
0.000114327
0.00218955
-3.30855e-05
-1.25128e-05
0.00218566
-0.000179351
-0.000149373
0.00220095
-0.000202914
-0.000217168
0.00218137
-2.30468e-05
-0.000157195
0.000114716
3.82858e-05
0.00204029
4.00333e-05
0.000178223
0.00195078
-7.09823e-06
0.000113847
0.00189487
-5.90809e-05
5.14948e-05
0.00192278
-0.000181514
-3.04823e-05
0.00201242
-0.000257229
-0.000111377
0.00207828
-0.000174533
-0.000143994
0.00206033
-0.000108184
-0.000141867
0.00203785
-0.000170136
-9.97886e-05
0.00205785
-0.000238164
-2.65379e-05
0.00205603
-0.000159193
7.53746e-05
0.00203943
-6.14474e-06
0.000142991
0.00205046
0.000124698
7.65542e-05
0.00211396
0.000255037
-4.31121e-05
0.00218758
0.00032834
-4.7112e-05
0.00220115
0.000185984
4.85544e-05
0.00216572
-8.74041e-07
9.15687e-05
0.00212352
-0.000102738
8.58734e-05
0.00206216
-1.05374e-05
0.00010141
0.00203471
0.000162337
0.000117706
0.00205768
0.000205462
0.000103367
0.00206247
0.000240844
5.58668e-05
0.0020443
0.000125718
9.32294e-06
0.00201391
-0.000102184
-3.04259e-07
0.00200086
-0.000142017
-1.01862e-05
0.00206121
-0.000149408
-3.53153e-05
0.00223143
-0.000214647
-5.1122e-05
0.00244429
-0.000134124
-0.000148192
0.00253769
-2.7541e-05
-0.000233754
0.00246373
6.53292e-05
-0.000163742
0.00232512
4.53006e-05
-9.74492e-05
0.00220344
-0.000146715
-9.18213e-05
0.00209561
-0.000248095
-4.5564e-05
0.00199302
-0.000216218
4.68405e-07
0.00194853
-0.000115526
3.32609e-05
0.00196685
-5.25097e-05
3.78636e-05
0.00198013
-8.59926e-05
-5.11067e-05
0.00197711
-0.000170158
-0.000147144
0.00197434
-0.000145689
-0.000134489
0.001994
4.76004e-05
-2.20021e-05
0.000117113
0.000127345
0.00190197
1.95839e-05
0.000207931
0.00178128
2.21344e-06
0.000174768
0.00168768
-0.000123832
0.000128107
0.00171075
-0.000275682
-5.05092e-05
0.00183623
-0.000332827
-0.000210187
0.00195031
-0.000208768
-0.000166516
0.00192864
-4.78469e-05
-3.07086e-05
0.0018056
-3.44617e-05
3.88824e-05
0.00169487
-9.55408e-05
1.29801e-05
0.00165821
-0.000109501
2.33891e-05
0.00171318
-0.00011098
0.000102239
0.00183627
-4.98189e-05
8.53084e-05
0.00194884
0.000161532
1.94167e-05
0.00193615
0.000344049
7.00615e-05
0.00182425
0.000220517
0.000125434
0.00174319
-3.34506e-05
7.04324e-05
0.00171393
-0.000224317
3.26951e-05
0.00169597
-0.00019384
9.91833e-05
0.00175019
1.42421e-05
0.000132005
0.00183876
0.000162216
0.000103175
0.00188573
0.000271412
9.57526e-05
0.00193729
8.16819e-05
0.000194334
0.00200043
-0.000243036
0.000272316
0.00203452
-0.000253156
0.000141868
0.00203435
-0.0001606
-2.84095e-05
0.00203634
-5.85017e-05
-0.000117439
0.00203372
0.000168394
-0.000235616
0.0019972
0.00024978
-0.000281855
0.00192065
0.000236601
-0.000171186
0.00183703
0.000144802
-0.00011053
0.00179375
-0.000105142
-8.38504e-05
0.00178338
-0.00022791
-1.6663e-05
0.00178171
-0.000194157
4.43774e-05
0.001815
-0.000131275
4.58475e-05
0.00186785
-9.36538e-05
-2.14999e-05
0.00184457
-6.07297e-06
-0.000136756
0.0017601
-3.6828e-05
-0.00013775
0.00172434
-0.000165615
1.77541e-05
0.00179703
-0.000115971
0.000162045
-3.62815e-05
0.000233703
0.00188725
-2.18982e-05
4.77298e-05
0.00174907
-8.73473e-06
0.000114303
0.00163838
-0.000115044
0.000114192
0.0016147
-0.000244652
4.39105e-06
0.00163231
-0.000270418
-9.03983e-05
0.00170516
-0.000229684
-4.31992e-05
0.00173665
-0.000144003
9.51679e-05
0.0016826
-7.34716e-05
0.0002332
0.00163485
-7.88931e-05
0.000215363
0.00166859
-0.000144548
6.23216e-05
0.00174637
-0.000253798
2.93071e-05
0.00181815
-0.000219761
7.66367e-05
0.00185717
6.62587e-05
5.94835e-05
0.00180889
0.000345923
6.11254e-05
0.00171896
0.000200399
7.55019e-05
0.00165455
-8.84861e-05
3.8886e-05
0.00160786
-0.000227122
5.1387e-05
0.00158617
-0.000162401
9.90971e-05
0.00163459
5.02874e-05
7.4354e-05
0.00170998
0.00019649
5.84333e-05
0.00177088
0.000253588
0.000125864
0.00179719
4.6222e-05
0.000262045
0.00179611
-0.000206894
0.000243101
0.00179461
-0.000176729
2.01571e-05
0.00179117
-8.41924e-05
-0.000156485
0.00179152
-5.42063e-06
-0.000193924
0.00176412
0.000193837
-0.00024739
0.00170422
0.000202537
-0.000201786
0.0016217
0.000169537
-5.63879e-05
0.001569
8.27111e-05
-1.12224e-05
0.00159036
-0.000178935
-2.05098e-05
0.00167087
-0.000325564
4.84881e-05
0.00171475
-0.000278874
0.000182955
0.00170725
-0.000149133
0.000207108
0.0016909
-0.000106072
8.28298e-05
0.00164463
1.87729e-05
-5.65966e-05
0.00157877
-5.50715e-06
-5.92597e-05
0.00154837
-0.000189569
9.523e-06
0.00165623
-0.000155003
-1.51607e-06
-7.8486e-05
-1.95025e-05
0.00166201
-9.59773e-05
0.000138356
0.00160737
-5.68819e-05
0.000105294
0.00153464
-0.000165903
8.30626e-05
0.00149105
-0.000182373
7.43263e-07
0.00149707
-0.000149283
-1.06128e-05
0.00156888
-0.000302823
0.000103718
0.00160115
-0.000321798
0.000153348
0.00159119
-0.000177237
0.000174225
0.00159895
-0.000102997
0.000181575
0.00165494
-0.000156264
7.39387e-05
0.00173502
-0.000320638
1.10022e-05
0.00176375
-0.000343077
8.45459e-05
0.00170155
-4.11403e-05
0.000148084
0.00157642
0.000311011
0.000173775
0.00149066
0.000150599
0.000197529
0.00147616
-0.000149977
0.000123123
0.00144078
-0.000225158
2.89545e-05
0.00138616
-0.00010161
6.41916e-05
0.00140605
0.00014021
7.73379e-05
0.0015226
0.000245357
6.52609e-05
0.0016388
0.000314777
0.000148101
0.00169077
0.000151548
0.000178012
0.00171998
-0.000103198
8.73123e-05
0.00172894
-0.000143179
1.92976e-05
0.00169051
-0.000139771
-3.43688e-05
0.00162134
-6.16473e-05
-0.000131403
0.00157582
0.000186181
-0.000254099
0.00157985
0.000142124
-0.000247713
0.00154668
8.42402e-05
-0.000101323
0.00148244
3.52201e-05
-2.27826e-05
0.00148894
-0.000248998
2.20324e-05
0.00155528
-0.000376301
7.50366e-05
0.00154792
-0.00019682
0.000128751
0.00148072
-8.52644e-05
0.00021159
0.00147179
-0.000176238
0.000205174
0.00150591
-7.42248e-05
6.00016e-05
0.00149177
-3.57982e-05
-7.1469e-05
0.00142224
-0.000173452
-0.000108592
0.0014327
-0.000131156
-4.04259e-05
-0.000118406
0.000102614
0.00149766
-0.000150227
0.000139549
0.00154188
-0.000104681
7.32207e-05
0.00147045
-0.000252124
0.000100865
0.0013677
-0.000162029
-7.3709e-06
0.00135245
1.07973e-05
-0.000104997
0.00138454
-0.000178046
-2.43294e-05
0.00135936
-0.000343575
3.88551e-05
0.0013363
-0.000221076
3.98816e-05
0.00136377
-0.00012383
0.000124481
0.00139028
-0.000111397
0.000153139
0.00147814
-0.00032955
0.000101234
0.00162863
-0.000434474
-3.5969e-05
0.00166155
-7.61407e-06
-0.000192467
0.00157187
0.000431762
-0.000115455
0.00146481
0.000105659
0.000164021
0.00137479
-0.000250698
0.000194179
0.0013552
-0.000345234
0.000168386
0.00134605
-0.000257605
0.00022458
0.00142795
4.63681e-05
0.000128213
0.00159941
0.000213629
1.88034e-05
0.00164426
0.000380554
0.000132688
0.0015956
0.000208644
0.000164237
0.00157109
-0.000208325
7.00595e-05
0.00159652
-0.000365742
4.79754e-05
0.00157515
-0.000288729
5.38154e-05
0.00143404
-9.46437e-06
-2.77026e-05
0.00137533
0.000301912
-0.0002193
0.00144669
0.000121091
-0.000271545
0.00145957
4.06161e-05
-0.000186168
0.00140986
4.19843e-05
-0.000127992
0.00135776
-0.00024162
-3.1306e-05
0.00133499
-0.00038226
8.37581e-05
0.00133224
-0.000166742
8.7952e-05
0.00130362
-6.26422e-05
8.4098e-05
0.00132242
-0.000166879
0.00011732
0.00143093
-5.93882e-05
-1.30093e-05
0.00143378
5.71165e-05
-0.000118002
0.00133005
-6.49292e-05
-3.94548e-05
0.001286
-0.000131926
0.000154737
-0.000209394
0.00025158
0.00142313
-7.09511e-05
2.91699e-05
0.00129037
5.03753e-05
6.48277e-05
0.00111701
-0.000220903
0.000218626
0.00108778
-0.00029696
0.000133184
0.0011698
8.43359e-06
-5.12352e-05
0.00121727
-5.477e-05
-1.84842e-05
0.00117021
-0.000261799
1.39722e-05
0.00113217
-0.000273367
7.31924e-05
0.0011609
-0.000179527
9.56627e-05
0.00123701
-9.73557e-05
2.16128e-05
0.00134975
-0.000338863
2.80109e-05
0.00141542
-0.000344349
-2.0359e-06
0.00136246
0.000262294
-0.000134906
0.00132862
0.000584258
-5.60501e-05
0.00133505
-4.53517e-05
0.000192759
0.00129317
-0.000420237
0.000223742
0.00124424
-0.00042147
0.000183857
0.00120777
-0.00024303
0.000205707
0.00123978
0.000131574
0.000175816
0.00132847
0.000271149
0.000186357
0.00148026
0.000256372
0.000191399
0.00147831
0.000210289
-1.36535e-05
0.00131735
-8.6832e-05
-5.81793e-05
0.00129791
-0.000343199
1.85418e-05
0.00132806
-0.000316085
9.36803e-05
0.00133848
1.94022e-05
4.97512e-05
0.00145118
0.000296357
-0.000114395
0.00149865
5.66731e-05
-0.000107812
0.0014159
2.83088e-05
-0.000106921
0.0013817
-1.93515e-05
-0.0001305
0.00130787
-0.000238709
-4.41601e-05
0.00120851
-0.000303168
4.75995e-05
0.00120226
-5.87727e-05
-3.60907e-05
0.00121186
-5.61659e-05
-6.67278e-06
0.00119735
-0.000204615
0.000136075
0.00123406
9.25967e-06
-1.41893e-05
0.00123681
0.000222595
-0.000151997
0.00120867
4.37215e-05
3.45148e-05
0.0012759
-0.00018424
0.000181667
-0.000242308
0.000150892
0.00128716
8.90465e-06
-4.83654e-05
0.00117109
0.000140523
4.58771e-05
0.00100498
-0.000156339
0.000196792
0.00094201
-0.000309701
5.9181e-05
0.000985456
7.95475e-06
-9.69118e-05
0.00107951
-7.4939e-05
-2.06081e-06
0.00110107
-0.00030246
1.59857e-05
0.00105395
-0.00032294
-3.50684e-05
0.00105173
-0.000183052
-8.68786e-06
0.00115061
-0.000143656
2.98075e-05
0.00123213
-0.000304267
9.08587e-05
0.00126261
-0.000282355
0.000110673
0.00122418
0.000457876
6.68079e-06
0.00117706
0.000729457
6.38965e-08
0.00114243
-2.78565e-05
0.000134439
0.0011173
-0.000389275
0.000227934
0.00104076
-0.000420365
0.000217964
0.00103626
-0.000279485
5.7062e-05
0.00110124
0.000163859
-5.28137e-05
0.00110344
0.000300391
9.63937e-05
0.00115024
0.000188223
-1.74153e-05
0.00106918
0.000326644
-0.000159003
0.000913321
0.000115135
-4.38794e-05
0.000923402
-0.000328023
4.12293e-05
0.00101968
-0.000416774
7.16405e-05
0.00120647
-8.33452e-05
-9.21527e-06
0.0013382
0.00022732
-0.000119053
0.00120425
8.0771e-05
-2.44927e-05
0.00108425
2.73437e-05
4.23271e-05
0.00117061
-0.000124307
3.47954e-05
0.00120801
-0.000264865
2.81388e-05
0.00113739
-0.000284903
4.90394e-05
0.00108559
-8.03933e-05
1.8279e-05
0.00110359
-0.000180227
0.000110999
0.00107875
-0.00027357
0.00014647
0.00102004
0.000106354
-1.05179e-05
0.00105444
0.000297606
-5.38133e-06
0.00115866
-1.96854e-05
-8.34781e-06
0.00125086
-0.000211633
-4.74467e-05
-0.000130059
-1.74294e-05
0.00104793
7.23763e-05
-7.35622e-05
0.0011121
-2.18006e-05
-7.9456e-05
0.00106595
-0.000238254
4.07695e-05
0.000952133
-0.000154941
-5.5706e-05
0.000865672
0.000162821
-6.95033e-05
0.000958613
-9.73826e-05
-3.68648e-06
0.0010958
-0.000446918
2.07585e-05
0.00100435
-0.00033699
5.61108e-06
0.000894111
-0.000167742
-5.50247e-05
0.000956454
-0.000255814
-6.4793e-05
0.00101902
-0.00035802
0.000100218
0.00107266
-0.000278735
0.000161988
0.00111922
0.000499623
4.91072e-05
0.00111881
0.000729794
-1.02958e-05
0.00103925
2.8642e-05
0.00012862
0.00100073
-0.000267464
0.000140416
0.000993686
-0.000544453
0.000245679
0.001034
-0.00052115
0.000125128
0.00115475
0.000112984
-8.97062e-05
0.00115397
0.000351624
9.51356e-06
0.00107023
0.00021067
-0.000104634
0.000963228
0.000431096
-7.59725e-05
0.000842388
0.000171753
0.000102065
0.000808519
-0.00037487
3.82483e-05
0.000863537
-0.000440543
-8.5572e-05
0.000926726
4.96539e-05
-0.000208281
0.000964437
0.000272643
-0.000134037
0.000865717
8.15299e-05
-1.75579e-05
0.000840509
-2.98757e-05
1.09654e-05
0.00101352
-0.00032563
6.21193e-05
0.00112842
-0.00033407
0.000126906
0.00108128
-0.000184818
0.000172463
0.00104153
-0.000166993
0.000187848
0.00103125
-0.000302316
0.000179924
0.000955441
-0.000162092
9.88269e-05
0.000904025
0.000278555
-1.88873e-05
0.000971157
0.000295796
-7.92326e-05
0.00105707
-9.20076e-05
-4.08178e-05
0.00105357
-9.9979e-05
7.66171e-05
0.000101661
8.36364e-05
0.000911532
4.59551e-05
-6.7507e-05
0.00088228
-3.10133e-05
-6.12037e-05
0.00083016
-0.000264449
7.59752e-05
0.000753504
-9.69853e-05
2.67786e-05
0.000739821
0.000229969
-0.000112558
0.000871246
-0.000187116
1.56899e-05
0.00100298
-0.000486256
0.000103287
0.00100627
-0.000330019
3.8273e-05
0.000912903
-8.29884e-05
-1.86118e-05
0.00086076
-0.000178183
1.87728e-05
0.000886994
-0.000440641
0.000157731
0.000893711
-0.000206315
0.000139863
0.000981661
0.00056196
-0.00010539
0.00109055
0.000619041
-6.51433e-05
0.00098535
1.42984e-05
0.000114112
0.000969532
-0.000314185
0.000148778
0.000942818
-0.00053504
0.000226816
0.000867395
-0.000521158
0.000161345
0.0010057
9.21326e-05
6.49386e-05
0.00100172
0.00042937
9.44738e-05
0.000913682
0.00033822
-4.84557e-05
0.000906861
0.000529092
-7.18425e-05
0.00079228
0.00015475
0.000134602
0.000723182
-0.000418908
5.95566e-05
0.000746198
-0.000408137
-0.00017061
0.000777291
0.000164078
-0.000258704
0.000860791
0.000308529
-7.55417e-05
0.00084146
0.000103798
3.69161e-05
0.000814964
1.78029e-05
-1.75693e-05
0.000912831
-0.000371745
-3.46859e-05
0.000948473
-0.000359046
0.000101491
0.000890447
-0.000183073
0.000227183
0.00088935
-0.000202715
0.000234993
0.000878514
-0.000203236
0.000145259
0.000822858
-2.44004e-06
2.07216e-05
0.000854547
0.000383133
-4.20671e-05
0.00085794
0.00036535
-0.000104019
0.000798171
5.26263e-05
9.58325e-06
0.000808281
-2.85557e-05
0.000232501
8.18427e-05
0.00013617
0.000890082
-0.000109993
8.36803e-05
0.000738419
-2.64444e-05
6.47268e-05
0.000682824
-0.000279976
9.47105e-05
0.000706566
-0.000182549
3.89763e-05
0.000756952
0.000247752
-0.000146852
0.000833821
-0.000130362
-6.09717e-05
0.000877202
-0.000420813
4.53392e-05
0.000865615
-0.000243579
3.24448e-05
0.000794288
9.1246e-05
-2.57197e-05
0.000742136
-1.09427e-05
9.06239e-05
0.00079503
-0.000473772
0.000159802
0.000808368
-0.000132976
7.88926e-05
0.000876983
0.000637165
-0.000140612
0.000959988
0.000554117
-1.32315e-05
0.000856149
-4.82761e-05
0.000201089
0.000830869
-0.000374202
0.000158297
0.000775214
-0.000482752
0.000154029
0.000745773
-0.000485606
0.000139184
0.000891204
1.26503e-05
0.000176476
0.000912873
0.000475251
7.43693e-05
0.000869077
0.000505433
-8.63379e-05
0.000831408
0.000658957
-7.22771e-05
0.000671295
0.00019218
0.000116335
0.000591927
-0.000440781
1.02801e-05
0.000583846
-0.000419352
-0.000132669
0.000659412
0.000127014
-0.000198281
0.000786746
0.000287099
-0.000111399
0.000779681
0.000129612
2.68407e-05
0.000790062
9.42361e-06
-1.73136e-05
0.000851264
-0.000341819
-7.9922e-05
0.000765307
-0.000216655
7.15078e-05
0.000628164
-0.000128043
0.000166771
0.000646332
-0.000181445
0.000165044
0.00074634
-9.86559e-05
6.5609e-05
0.000812216
-3.04814e-05
1.65386e-05
0.00086895
0.000329381
-3.75046e-05
0.000828097
0.000413329
-6.14868e-05
0.000688373
0.000222153
-1.43655e-05
0.000665118
0.000101861
8.70303e-05
-5.31505e-05
8.68728e-05
0.000844983
-0.000270894
0.000101611
0.000668229
1.70202e-05
6.7051e-05
0.000549204
-0.000151528
4.81545e-05
0.000588421
-0.00032671
-7.35006e-05
0.000660658
0.000165552
-5.33657e-05
0.000715194
-8.0316e-06
-2.87806e-05
0.000755136
-0.000417712
-6.27824e-05
0.000731035
-0.000264044
-1.2287e-05
0.000709672
0.000191829
-4.25179e-05
0.000684259
9.12887e-05
5.06673e-05
0.000683215
-0.000451638
0.000130333
0.000769712
-9.75849e-05
-5.78531e-05
0.000882573
0.000658312
-0.00016076
0.000819245
0.000595984
0.000142627
0.000609034
5.0162e-05
0.000239158
0.000508882
-0.000384903
0.000182039
0.000492318
-0.000605653
0.000107514
0.000560253
-0.00050167
1.82979e-05
0.000724965
-1.13231e-05
9.44451e-05
0.000799382
0.000489989
4.51164e-05
0.000833926
0.000503553
-8.79171e-05
0.000857166
0.000590816
5.34644e-06
0.000762802
0.000169557
0.000100626
0.000647317
-0.000396404
-6.19645e-05
0.000555114
-0.00038977
-0.000148714
0.000599448
0.000171156
-0.000144256
0.000714682
0.000336509
-0.000112248
0.000692192
0.00014557
3.39899e-05
0.000718273
-3.66801e-05
6.9764e-05
0.000796848
-0.000219562
-9.25266e-05
0.000660595
-2.70855e-05
0.000123952
0.00049881
-0.000114293
0.000293788
0.000528959
-0.000177308
0.000148993
0.000596328
-8.40256e-05
5.58488e-06
0.000643915
-0.0001152
8.04836e-06
0.000784905
0.000200115
-8.3482e-05
0.000817949
0.000388858
-8.53055e-05
0.000651209
0.000354113
4.66892e-05
0.000611867
0.000275086
-4.09774e-05
-0.000196863
6.68963e-05
0.00068237
-0.000226971
-6.70629e-06
0.00055214
7.53698e-05
-1.62189e-05
0.000457821
-8.89685e-06
3.03887e-05
0.000502603
-0.000376282
-7.6892e-05
0.000562868
4.58861e-05
7.79192e-05
0.000541506
5.95238e-05
0.000145926
0.000579112
-0.000505749
-1.58583e-05
0.000552448
-0.000282993
-3.0623e-05
0.000561269
0.000196555
-1.01519e-05
0.000667784
-2.18636e-06
1.61335e-06
0.000662953
-0.000420434
0.000125192
0.000658714
3.3208e-05
-5.75577e-05
0.000768709
0.000654438
-0.000166277
0.000727188
0.000696766
9.3402e-05
0.000535649
0.000110981
0.000168328
0.000416223
-0.000491756
0.000207198
0.000371617
-0.000683343
0.000104718
0.000425018
-0.000416706
7.39712e-05
0.000602466
4.03022e-05
7.60705e-05
0.000719635
0.000434127
9.17551e-05
0.000760921
0.000578266
-7.82303e-05
0.000802694
0.000565895
1.17485e-05
0.0007471
6.2077e-06
0.000115148