/*--------------------------------*- C++ -*----------------------------------*\
  =========                 |
  \\      /  F ield         | OpenFOAM: The Open Source CFD Toolbox
   \\    /   O peration     | Website:  https://openfoam.org
    \\  /    A nd           | Version:  10
     \\/     M anipulation  |
\*---------------------------------------------------------------------------*/
FoamFile
{
    format      ascii;
    class       volVectorField;
    location    "2";
    object      UMean;
}
// * * * * * * * * * * * * * * * * * * * * * * * * * * * * * * * * * * * * * //

dimensions      [0 1 -1 0 0 0 0];

internalField   nonuniform List<vector> 
25600
(
(1.05833 0.00960589 0.0013161)
(1.06683 0.011204 -0.000217351)
(1.08806 0.0187054 0.00242496)
(1.10765 0.0268702 0.00732328)
(1.11353 0.027786 0.0118328)
(1.10717 0.0164724 0.011291)
(1.09357 0.000269516 0.0043323)
(1.08508 -0.00962076 -0.00492059)
(1.08508 -0.00978407 -0.0143512)
(1.08636 -0.00204907 -0.0202253)
(1.08522 0.00424037 -0.0229006)
(1.0791 0.00718925 -0.0245052)
(1.07799 0.00586257 -0.0264908)
(1.08989 -0.000268767 -0.0301484)
(1.11548 -0.00601495 -0.0301248)
(1.14895 -0.0106251 -0.0264582)
(1.16835 -0.0122754 -0.0211775)
(1.16354 -0.012004 -0.0161356)
(1.13897 -0.0102534 -0.014496)
(1.1079 -0.00813751 -0.0126253)
(1.0876 -0.00896712 -0.0114305)
(1.08592 -0.0127506 -0.00863163)
(1.10015 -0.0164651 -0.00364642)
(1.11905 -0.0186312 -0.000926365)
(1.13062 -0.0189774 -0.000950669)
(1.12323 -0.0157661 -0.00687064)
(1.10347 -0.0136816 -0.0146414)
(1.08649 -0.0105898 -0.0171197)
(1.07544 -0.00494237 -0.0108407)
(1.07741 -0.00115968 0.00746306)
(1.08841 0.00393226 0.0277921)
(1.09957 0.00716762 0.0394435)
(1.11537 0.0110776 0.0399811)
(1.13203 0.0169429 0.0272475)
(1.14551 0.0197344 0.0123809)
(1.1516 0.0229099 0.00195622)
(1.13991 0.0231876 -0.00447287)
(1.11321 0.0203178 -0.0035682)
(1.08333 0.0166542 -0.00203135)
(1.05943 0.0121772 -0.000326614)
(1.1392 0.00591724 -0.0175062)
(1.12219 -0.00356372 -0.0151805)
(1.11158 0.00114983 -0.00716535)
(1.10834 0.00983918 -0.00410424)
(1.10946 0.0160897 -0.00769145)
(1.11288 0.0127966 -0.0135504)
(1.10942 0.00475616 -0.0209587)
(1.10353 0.00138322 -0.0229919)
(1.09643 0.00368823 -0.0180448)
(1.09021 0.0168127 -0.00893824)
(1.09058 0.0334763 0.00564132)
(1.09052 0.0460627 0.0240057)
(1.09453 0.0497562 0.0404051)
(1.10407 0.0344623 0.0477561)
(1.11815 0.0163972 0.0371707)
(1.13748 0.00754522 0.0134058)
(1.14494 0.00868676 -0.00817708)
(1.14027 0.0181527 -0.018982)
(1.13031 0.0235103 -0.016861)
(1.11836 0.0209851 -0.00694085)
(1.11549 0.0118162 0.00108866)
(1.1191 -0.00214609 0.00652316)
(1.12012 -0.0128222 0.00769876)
(1.11079 -0.0178231 0.0051811)
(1.09105 -0.0206733 0.00334093)
(1.0695 -0.0192622 -0.00444383)
(1.05509 -0.0160522 -0.0151291)
(1.05591 -0.011759 -0.0263542)
(1.06899 -0.00513787 -0.0346178)
(1.09167 -0.000746402 -0.0298847)
(1.11463 0.00279739 -0.0176787)
(1.12347 0.00639046 -0.00295411)
(1.11906 0.00915273 0.0121163)
(1.10487 0.00883834 0.0196539)
(1.09039 0.00526629 0.0221581)
(1.08661 0.00847153 0.0207106)
(1.09268 0.0207156 0.0148672)
(1.10971 0.0335999 0.00821772)
(1.13138 0.0376503 -0.0036915)
(1.14239 0.0263498 -0.0143289)
(1.165 0.0156464 -0.0270879)
(1.12464 0.010195 -0.0163501)
(1.09728 0.00612364 -0.0146063)
(1.09056 0.0031951 -0.0268261)
(1.10264 0.00653455 -0.0398763)
(1.11818 0.0105108 -0.0414275)
(1.11895 0.01502 -0.0329145)
(1.10066 0.0228226 -0.0199776)
(1.07235 0.0247095 -0.00656805)
(1.05002 0.0190302 0.00901733)
(1.05004 0.00789867 0.0285434)
(1.06765 -0.00369039 0.0504166)
(1.09195 -0.0112714 0.0685893)
(1.10847 -0.0177104 0.0689186)
(1.10773 -0.014032 0.0484481)
(1.09776 -0.00449232 0.0221401)
(1.08447 0.00277698 0.00651763)
(1.08157 0.00870863 0.00761937)
(1.09128 0.00840344 0.0168696)
(1.10236 0.006149 0.0245907)
(1.10924 0.00233311 0.0256298)
(1.10782 -0.00449762 0.0205203)
(1.10103 -0.00765402 0.0107002)
(1.08557 -0.00762736 0.00155542)
(1.06551 -0.0070355 0.000386066)
(1.04691 -0.00630421 0.00391566)
(1.03142 -0.00687133 0.00911173)
(1.02916 -0.00712786 0.00542063)
(1.03454 -0.00457115 -0.0103859)
(1.04679 0.00233808 -0.0251447)
(1.06786 0.0124408 -0.0295141)
(1.0889 0.0245957 -0.0159688)
(1.107 0.0358529 0.00841773)
(1.11101 0.042418 0.0250281)
(1.10424 0.0447369 0.0294972)
(1.10758 0.0445158 0.0225473)
(1.12812 0.0423744 0.00636497)
(1.16281 0.0380374 -0.013065)
(1.1929 0.0322219 -0.0308929)
(1.19926 0.0247341 -0.0358419)
(1.07355 0.0155468 0.00186167)
(1.05031 0.00605565 -0.00590079)
(1.04045 0.00203039 -0.0338605)
(1.04846 0.00685811 -0.0660956)
(1.06955 0.0196122 -0.0812958)
(1.09183 0.0326234 -0.0722648)
(1.10129 0.0448145 -0.0464195)
(1.09484 0.0514128 -0.0117006)
(1.07718 0.0401459 0.0200323)
(1.05137 0.00961054 0.0396698)
(1.03094 -0.0248427 0.0428969)
(1.02323 -0.0404121 0.0316803)
(1.03004 -0.0277192 0.0133254)
(1.04465 0.000676132 -0.0111831)
(1.05372 0.026557 -0.0308314)
(1.05562 0.0339921 -0.0313043)
(1.05095 0.025055 -0.0117523)
(1.04807 0.0106741 0.0146267)
(1.05075 -0.00420849 0.0290591)
(1.05337 -0.0129784 0.026758)
(1.05247 -0.018966 0.0129661)
(1.04708 -0.0261078 -0.0026251)
(1.0447 -0.0271811 -0.0144641)
(1.04427 -0.0228153 -0.018962)
(1.04463 -0.0174888 -0.0145139)
(1.04245 -0.0138851 -0.00588523)
(1.03551 -0.0161591 0.00631416)
(1.03555 -0.0222059 0.016727)
(1.04164 -0.0274909 0.0246886)
(1.05745 -0.0249321 0.0344885)
(1.07624 -0.0103505 0.0465215)
(1.08328 0.0163659 0.0628094)
(1.08528 0.0423839 0.0742063)
(1.08569 0.0489398 0.0659552)
(1.09451 0.0381592 0.0408461)
(1.11588 0.0208104 0.0100824)
(1.13425 0.0109066 -0.0162117)
(1.1434 0.0151733 -0.0292157)
(1.13417 0.0243411 -0.0259812)
(1.10765 0.0253566 -0.0103647)
(1.0467 0.0282227 0.00987152)
(1.03369 0.016695 -0.019891)
(1.03114 -0.00408793 -0.0621574)
(1.04136 -0.0207545 -0.0869958)
(1.05751 -0.0215431 -0.0832353)
(1.06845 -0.00500671 -0.0585431)
(1.06897 0.0246619 -0.0202151)
(1.06578 0.0509906 0.0232287)
(1.05998 0.0523159 0.0541365)
(1.05017 0.0189781 0.059725)
(1.03953 -0.0243184 0.0327241)
(1.02602 -0.0424217 -0.0131271)
(1.01267 -0.0283076 -0.0475594)
(1.0111 -0.00175339 -0.0607548)
(1.02639 0.0175688 -0.0498019)
(1.0494 0.0227312 -0.0214885)
(1.06058 0.014452 0.00656955)
(1.053 -0.00237571 0.0210055)
(1.03304 -0.0201381 0.0149007)
(1.01288 -0.0305715 -0.00500904)
(1.00356 -0.0370946 -0.022121)
(1.00337 -0.0443272 -0.0282728)
(1.00866 -0.0447446 -0.0249296)
(1.01011 -0.0358465 -0.0178422)
(1.01119 -0.020305 -0.0148337)
(1.01877 -0.00838414 -0.0106116)
(1.02254 -0.0108027 0.00227927)
(1.01542 -0.0245259 0.0185108)
(0.999404 -0.0391898 0.0375291)
(0.994279 -0.038934 0.0559207)
(0.999704 -0.0243018 0.0689692)
(1.00747 -0.00524663 0.0749469)
(1.0203 0.0077149 0.0659787)
(1.02915 0.00940168 0.0433969)
(1.03805 0.0087849 0.018119)
(1.04855 0.00743606 -0.00518303)
(1.05759 0.00986169 -0.0234258)
(1.06972 0.0192517 -0.0269493)
(1.07205 0.0287099 -0.0125883)
(1.06262 0.0318781 0.00767323)
(1.07019 0.0343834 0.0255865)
(1.07133 0.0250843 -0.0238508)
(1.07758 0.00800276 -0.0688068)
(1.07671 -0.00681671 -0.0776164)
(1.07204 -0.0102499 -0.0548509)
(1.06448 0.00255976 -0.0188479)
(1.05999 0.0242245 0.0227212)
(1.06188 0.0424313 0.0607302)
(1.06339 0.0444323 0.0770786)
(1.05526 0.0226124 0.0640114)
(1.03859 -0.00521471 0.0275082)
(1.03118 -0.0175963 -0.00233737)
(1.02739 -0.0135946 -0.0122708)
(1.01901 -0.0112641 -0.0183394)
(1.0151 -0.0175255 -0.021654)
(1.02744 -0.0161449 -0.0152573)
(1.05031 -0.00497754 0.00098229)
(1.05308 -0.00301183 0.0196603)
(1.02878 -0.0162852 0.0232124)
(0.997773 -0.0329443 0.0095896)
(0.980204 -0.0471732 -0.00433662)
(0.979841 -0.0584429 -0.00747556)
(0.993718 -0.0584051 -7.0646e-05)
(1.01247 -0.0453696 0.00768876)
(1.03521 -0.025024 0.0104786)
(1.05633 -0.00714231 0.0203384)
(1.04534 -0.000406294 0.0364721)
(0.998227 -0.0117826 0.0454061)
(0.947779 -0.0420009 0.0421556)
(0.927696 -0.0667841 0.0308089)
(0.93702 -0.0673616 0.027355)
(0.962905 -0.0445399 0.0348871)
(0.991579 -0.0167318 0.0394762)
(1.00225 -0.00322547 0.0360579)
(1.00138 -0.00203066 0.0204002)
(1.00105 -0.00515843 -0.00768151)
(1.01153 -0.00460517 -0.0321478)
(1.0388 0.00313695 -0.030201)
(1.06477 0.0164898 0.00233513)
(1.07146 0.0300879 0.0349698)
(1.07678 0.0518229 0.01917)
(1.11895 0.0299279 -0.0197052)
(1.14864 0.00787254 -0.0449328)
(1.13099 -0.0074411 -0.0455591)
(1.08687 -0.0161092 -0.016932)
(1.05025 -0.0142204 0.0325005)
(1.04513 0.00375024 0.0797164)
(1.06398 0.0355584 0.0965908)
(1.07939 0.0558587 0.0851228)
(1.06542 0.0383228 0.0475949)
(1.03125 0.00213496 -0.0071255)
(1.02736 -0.0159209 -0.0355232)
(1.04771 -0.011662 -0.0372202)
(1.06113 -0.00870819 -0.0394045)
(1.05142 -0.0187929 -0.0382964)
(1.03003 -0.0264122 -0.0193686)
(1.01633 -0.022242 0.0155499)
(0.994429 -0.0240862 0.0364643)
(0.973975 -0.0348719 0.0215424)
(0.960608 -0.0414596 -0.00984997)
(0.949528 -0.0502838 -0.0215231)
(0.94754 -0.0654776 -0.00705356)
(0.961673 -0.0735841 0.0117281)
(0.987769 -0.0652233 0.0195742)
(1.01763 -0.0356356 0.0310477)
(1.02226 -0.000941655 0.054807)
(0.986109 0.0153261 0.0643303)
(0.944408 0.00102825 0.043734)
(0.916671 -0.0391063 0.00930474)
(0.906274 -0.0761054 -0.0119227)
(0.911815 -0.0863393 -0.00414167)
(0.92768 -0.0652596 0.0159162)
(0.941354 -0.0316473 0.0259813)
(0.950846 -0.0112097 0.026579)
(0.973361 -0.00480852 0.0244729)
(0.998239 -0.00626788 0.0217383)
(1.01304 -0.0046901 0.0186882)
(1.01768 0.00916311 0.019742)
(1.0232 0.0338517 0.0315684)
(1.04272 0.0548545 0.0405598)
(1.12705 0.00651568 0.0029412)
(1.15955 -0.00177015 -0.0259507)
(1.14366 -0.000990827 -0.0296701)
(1.08663 0.00494851 -0.020016)
(1.03965 0.014752 0.00529212)
(1.01275 0.0284598 0.0466453)
(1.02 0.0496952 0.0810875)
(1.05677 0.0697715 0.083823)
(1.08283 0.0589885 0.0714796)
(1.06595 0.0201009 0.0359416)
(1.02054 -0.00480233 -0.0185972)
(1.01788 0.000149301 -0.0474107)
(1.06196 0.0181256 -0.0640015)
(1.09723 0.0261702 -0.0780424)
(1.07832 0.012635 -0.0677641)
(1.02898 -0.008492 -0.0239875)
(1.00543 -0.0177996 0.0252157)
(1.00235 -0.0236662 0.0297847)
(1.00481 -0.0285283 -0.000318868)
(0.994144 -0.0287003 -0.0236299)
(0.971392 -0.0395807 -0.0254087)
(0.960526 -0.0582005 -0.01245)
(0.960039 -0.0641361 -0.000239515)
(0.959025 -0.0528151 0.012783)
(0.965326 -0.023716 0.0397024)
(0.970575 0.00704979 0.060095)
(0.969678 0.0247285 0.0450505)
(0.958655 0.0163607 0.0132767)
(0.932463 -0.0247786 -0.0102372)
(0.909221 -0.0618204 -0.0158754)
(0.896092 -0.069938 0.000939796)
(0.893392 -0.0562453 0.0178894)
(0.893545 -0.0373986 0.0147705)
(0.905099 -0.0266674 0.00750216)
(0.942739 -0.0153334 0.0159415)
(0.969546 0.00264337 0.0286336)
(0.974411 0.0260841 0.0360875)
(0.9781 0.0427535 0.0436604)
(1.01024 0.0390451 0.0530671)
(1.06697 0.0230489 0.0422569)
(1.01931 0.0381046 -0.045409)
(1.02943 0.0268372 -0.0409578)
(1.01373 -0.00971914 -0.00124182)
(0.986827 -0.0309575 0.0301529)
(0.986532 -0.0158128 0.0453524)
(0.996112 0.00901839 0.0708471)
(1.02841 0.0355771 0.0894577)
(1.06586 0.0487188 0.0777102)
(1.0694 0.0284566 0.0508687)
(1.02371 -0.0147195 0.018893)
(0.984334 -0.0429627 -0.0148178)
(1.02829 -0.0275676 -0.041859)
(1.08116 0.0112518 -0.0785289)
(1.07889 0.0439733 -0.103034)
(1.03881 0.0388061 -0.0695079)
(0.983567 -0.0010696 -0.00156105)
(0.957323 -0.0261172 0.0278149)
(0.959088 -0.0314971 0.00725437)
(0.97502 -0.0332221 -0.019036)
(0.98727 -0.0266351 -0.0308198)
(0.986087 -0.0305023 -0.0161331)
(0.98891 -0.0386534 0.015662)
(0.981022 -0.0346619 0.0312823)
(0.959309 -0.0345689 0.0310613)
(0.949907 -0.0312655 0.0348282)
(0.951027 -0.00708579 0.0358615)
(0.946735 0.0272553 0.0344663)
(0.92577 0.0300358 0.0378325)
(0.903022 -0.0154301 0.0204352)
(0.897341 -0.0653115 -0.0108113)
(0.902815 -0.0901947 -0.0240671)
(0.911678 -0.0786063 -0.0284142)
(0.904735 -0.0400668 -0.0385973)
(0.902756 -0.00678405 -0.0321275)
(0.916626 0.0057345 0.00396058)
(0.915262 0.00142168 0.0306346)
(0.940519 -0.00228484 0.0360787)
(0.998911 -0.00381842 0.0389329)
(1.04164 0.00530799 0.0257349)
(1.03161 0.0264287 -0.0109196)
(0.968287 -0.00431383 -0.0354795)
(0.987632 -0.033235 -0.00789638)
(0.945083 -0.0434869 0.0106188)
(0.913449 -0.014132 0.00509664)
(0.939689 0.0206691 0.0149073)
(0.989254 0.0317757 0.0462275)
(1.04451 0.0455884 0.0519312)
(1.07651 0.0595495 0.0144518)
(1.05883 0.0440095 -0.0226626)
(1.00303 -0.00321192 -0.0400842)
(0.959236 -0.0332604 -0.0510351)
(0.967424 -0.0115018 -0.0485668)
(0.966525 0.0246913 -0.058415)
(0.954264 0.038881 -0.0725834)
(0.958855 0.0142518 -0.039478)
(0.957097 -0.0161963 0.010519)
(0.959079 -0.0160674 0.0274938)
(0.972662 -0.0221957 0.0213615)
(0.988631 -0.036548 0.000497967)
(0.994124 -0.0353997 -0.00906525)
(1.00147 -0.0408798 0.0198009)
(1.00568 -0.0362528 0.0456519)
(0.991491 -0.0122546 0.0425313)
(0.980883 -0.016767 0.0355979)
(0.970522 -0.0320494 0.0256738)
(0.962729 -0.00849522 0.0197488)
(0.960881 0.0346065 0.0388944)
(0.960046 0.0330258 0.063325)
(0.961154 -0.0269025 0.0531159)
(0.928445 -0.0833801 0.014912)
(0.890712 -0.108248 -0.0146054)
(0.893819 -0.106134 -0.0271235)
(0.915709 -0.0766978 -0.0349943)
(0.949152 -0.0437099 -0.0273129)
(0.973049 -0.0177328 -0.00423345)
(0.969863 0.00186941 -0.00142244)
(0.961918 0.00987883 -0.0123039)
(0.91796 0.0144914 -0.0250367)
(0.87336 0.0250814 -0.0466825)
(0.907524 0.0213583 -0.0515408)
(0.960158 -0.0433052 0.00381831)
(0.920478 -0.0207736 -0.00390406)
(0.888522 0.00578964 -0.0293055)
(0.903051 0.0289472 -0.0481493)
(0.97209 0.0334742 -0.0273387)
(1.03256 0.0269806 -0.000777756)
(1.06386 0.0452075 -0.0179063)
(1.04618 0.0623908 -0.0519858)
(0.987908 0.0325441 -0.0506724)
(0.936607 -0.0196441 -0.0407771)
(0.924755 -0.0377777 -0.0437305)
(0.942776 -0.011942 -0.0401621)
(0.941573 0.0208842 -0.0521619)
(0.946314 0.0231162 -0.054961)
(0.961209 -0.00804677 -0.0160571)
(0.956987 -0.0265102 0.0189226)
(0.955884 -0.0107159 0.0288093)
(0.971566 -0.00463268 0.0218392)
(1.00072 -0.0217836 -0.00584787)
(1.03632 -0.0420314 -0.00479206)
(1.05709 -0.0476028 0.0517995)
(1.02622 -0.0220948 0.0749063)
(0.98607 -0.00213839 0.0571846)
(0.991222 -0.0215364 0.0498306)
(0.986029 -0.0277588 0.0253834)
(0.963861 0.00865955 0.00483922)
(0.957172 0.045814 0.0280968)
(0.983814 0.0345064 0.0622148)
(1.02535 -0.00860905 0.0591358)
(1.0076 -0.0450187 0.0219827)
(0.971981 -0.0832718 -0.00200139)
(0.974698 -0.116527 -0.0117371)
(0.969688 -0.0996859 -0.0314281)
(0.952581 -0.0385192 -0.0395015)
(0.944613 0.0168152 -0.0217126)
(0.931901 0.0198671 -0.0129034)
(0.911747 0.000432131 -0.0271456)
(0.886253 0.00777274 -0.0517793)
(0.898925 0.00448677 -0.054287)
(0.954745 -0.0301049 -0.0193752)
(0.915954 -0.0128774 -0.0172546)
(0.888854 0.000421414 -0.0110242)
(0.911704 0.00232061 -0.0253961)
(0.975157 0.00737335 -0.0397841)
(1.02404 0.00630122 -0.0182597)
(1.0167 0.00683179 -0.00755622)
(1.00507 0.0327811 -0.0409228)
(0.985464 0.0532123 -0.0680707)
(0.942844 0.0246384 -0.0468929)
(0.905706 -0.0251998 -0.0284024)
(0.906475 -0.0402273 -0.0460805)
(0.923217 -0.0130647 -0.0702507)
(0.936933 0.017002 -0.0752082)
(0.970822 0.013695 -0.0303466)
(0.96811 -0.0180291 0.0291998)
(0.928616 -0.0157291 0.0260874)
(0.922791 0.00890011 -0.00370833)
(0.954844 -0.0115177 0.0029708)
(1.00054 -0.0526646 0.0319965)
(1.02441 -0.0655456 0.070327)
(1.0185 -0.0366105 0.0911757)
(0.999279 0.0110394 0.0539641)
(0.986117 0.0204314 0.0233694)
(0.964886 -0.00463378 0.0243959)
(0.927375 -0.00458301 0.00393205)
(0.911557 0.0270422 -0.0133253)
(0.925207 0.0485318 0.00435853)
(0.971297 0.0251657 0.0351721)
(1.0126 -0.0175677 0.0372543)
(1.00656 -0.049694 0.0102338)
(0.97178 -0.0807652 -0.00848898)
(0.947168 -0.0899896 -0.0341414)
(0.931565 -0.0574482 -0.067852)
(0.940512 -0.0167196 -0.0559601)
(0.963859 0.0109563 -0.0154265)
(0.940082 0.00897766 -0.0147151)
(0.886451 -0.00563242 -0.0524859)
(0.872008 -0.00779674 -0.0835734)
(0.919315 -0.020014 -0.0727948)
(0.952766 -0.029423 -0.0376386)
(0.888056 -0.00312203 -0.0253658)
(0.909695 0.00453085 0.0184465)
(0.944162 5.42691e-05 0.00204565)
(1.00725 -0.00566103 -0.0371297)
(1.04012 0.00139229 -0.0166497)
(0.995412 0.0144767 0.00224583)
(0.965212 0.0330091 -0.0360542)
(0.976611 0.0414029 -0.0601555)
(0.975301 0.0144745 -0.0285389)
(0.948561 -0.0210443 -0.00909159)
(0.934872 -0.0318302 -0.0489067)
(0.934592 -0.017918 -0.093094)
(0.966104 0.00458792 -0.0712112)
(1.00569 0.00705757 0.00624277)
(0.963455 -0.00711717 0.0429684)
(0.925564 0.00752901 0.00961623)
(0.946915 0.0124458 -0.00547162)
(0.963384 -0.0369256 0.0323867)
(0.96983 -0.0761119 0.0694475)
(0.962 -0.0672909 0.0926751)
(0.959847 -0.0199149 0.0860731)
(0.989775 0.0296905 0.0352387)
(0.997391 0.0361885 0.00828726)
(0.946887 0.0139996 0.0140834)
(0.901652 0.00923883 0.00992724)
(0.887976 0.0347232 0.00394452)
(0.922443 0.052255 -0.000371202)
(0.988769 0.0224108 0.00409081)
(1.00918 -0.0206074 4.02835e-05)
(0.987024 -0.043299 -0.0177979)
(0.922264 -0.0701032 -0.0290374)
(0.876636 -0.0901649 -0.0475979)
(0.905556 -0.0739865 -0.0531643)
(0.956617 -0.0328372 -0.027153)
(0.961274 0.00900299 -0.0203343)
(0.916983 0.0142387 -0.0453061)
(0.888027 -0.00449373 -0.0589571)
(0.889644 -0.0158646 -0.0658219)
(0.892334 -0.026994 -0.0713918)
(0.888236 -0.0217029 -0.0622016)
(0.904776 4.95945e-05 -0.0377099)
(0.929578 0.00405841 -0.00610752)
(0.951215 -0.00224722 -0.022382)
(0.989855 -0.00843651 -0.0546286)
(0.982199 0.00150269 -0.0365789)
(0.924852 0.00988549 -0.0179536)
(0.938467 0.0126948 -0.0267245)
(1.0042 0.0145104 -0.0158949)
(0.992369 0.00335829 0.00752282)
(0.930767 -0.00583615 -0.0163497)
(0.913996 -0.0113822 -0.0742295)
(0.952612 -0.0122864 -0.082183)
(1.00975 0.0109182 -0.024722)
(0.986033 0.0296454 0.0290484)
(0.914269 0.00828648 0.0346846)
(0.937514 -0.00224798 0.0185317)
(0.977876 -0.0054539 0.0322174)
(0.964316 -0.0493225 0.0679098)
(0.959995 -0.0759707 0.0833134)
(0.946812 -0.0565359 0.0831467)
(0.949552 -0.0168779 0.0538584)
(0.993912 0.0211595 3.19707e-05)
(0.998365 0.035032 -0.0111426)
(0.939885 0.0208458 0.00507493)
(0.894364 0.0189946 0.00259951)
(0.881232 0.0450567 -0.010599)
(0.933648 0.045564 -0.0290866)
(0.997292 -0.00273154 -0.0296021)
(0.998866 -0.0361481 -0.0333113)
(0.999223 -0.0400565 -0.0416699)
(0.969767 -0.0629967 -0.0332352)
(0.908135 -0.087944 -0.0281316)
(0.86757 -0.0696052 -0.0172579)
(0.854595 -0.0223275 -0.00914601)
(0.866654 0.0122248 -0.0318191)
(0.865381 0.0046182 -0.0608829)
(0.871653 -0.00540512 -0.0566423)
(0.90595 -0.00139835 -0.0423485)
(0.908104 -0.00941774 -0.0446576)
(0.890102 -0.00988992 -0.0538311)
(0.925933 0.008446 -0.0499208)
(0.92513 0.00982042 -0.00517107)
(0.899668 -0.00383316 -0.0133295)
(0.92061 -0.00756826 -0.0474245)
(0.927501 0.00663815 -0.0262546)
(0.90818 0.00125785 0.0105361)
(0.93336 -0.0157988 0.0210742)
(0.974457 -0.00958482 0.026504)
(0.953557 0.0122839 0.0203667)
(0.907626 0.0261655 -0.0294494)
(0.890908 0.00497656 -0.078493)
(0.939842 -0.0168166 -0.0527395)
(0.994095 0.0219208 0.00444121)
(0.94624 0.0598034 0.0146114)
(0.908581 0.0189726 0.0250509)
(0.972277 -0.00655713 0.0518006)
(0.986454 -0.0141766 0.0695582)
(0.935926 -0.0657175 0.0790467)
(0.923298 -0.0842396 0.0666563)
(0.913765 -0.0506743 0.0475544)
(0.935747 -0.0208701 0.0211436)
(1.001 0.00551928 -0.0198756)
(0.999489 0.0290234 -0.0223744)
(0.931292 0.0261057 -0.00452854)
(0.894416 0.0319582 -0.0108899)
(0.896138 0.0516195 -0.0246744)
(0.963051 0.0266089 -0.0405837)
(1.01168 -0.0337421 -0.0516315)
(0.982381 -0.0603311 -0.0658039)
(0.986341 -0.0465207 -0.0470936)
(0.980047 -0.0446906 -0.0294329)
(0.913835 -0.0612758 -0.0479337)
(0.851743 -0.0624683 -0.0322565)
(0.821039 -0.0360936 -0.0206143)
(0.833049 -0.00448282 -0.0543342)
(0.845724 0.00503 -0.0689435)
(0.871968 0.0081886 -0.0402769)
(0.921568 0.0110255 -0.0227533)
(0.913837 -0.000512805 -0.0332173)
(0.89564 -0.00284013 -0.0600853)
(0.962625 0.0165905 -0.0392377)
(0.923051 0.0262176 0.00659044)
(0.853853 0.0143369 0.0199352)
(0.870662 0.00643052 -0.00332397)
(0.910822 0.0107726 0.0190019)
(0.946227 -0.00300506 0.0646603)
(0.965748 -0.0207734 0.0681591)
(0.958632 -0.0115322 0.0371545)
(0.923685 0.0193755 0.0119288)
(0.888788 0.0330071 -0.0223815)
(0.875936 0.00204418 -0.0576616)
(0.918197 -0.0160704 -0.0313539)
(0.951896 0.0400124 0.00942843)
(0.915264 0.0748631 0.00409826)
(0.93938 0.0149015 0.0225093)
(1.02252 -0.0106303 0.0564266)
(1.02963 -0.014385 0.0758309)
(0.956835 -0.0686206 0.0812508)
(0.900754 -0.0805152 0.0481014)
(0.890743 -0.0404687 0.0210724)
(0.939777 -0.0230101 0.00857657)
(1.00084 0.000511675 -0.0190271)
(0.976523 0.0390577 -0.0208531)
(0.908699 0.0392643 -0.0105094)
(0.896818 0.0355225 -0.0165517)
(0.912302 0.042329 -0.0202071)
(0.969886 0.00893716 -0.0358215)
(1.01575 -0.0439425 -0.071347)
(1.00524 -0.062699 -0.0837896)
(1.00861 -0.0433082 -0.034983)
(0.978269 -0.0268928 -0.0382502)
(0.914522 -0.0428441 -0.0876896)
(0.87308 -0.0644052 -0.0376233)
(0.85288 -0.0400494 0.00190944)
(0.854659 0.00864383 -0.0498646)
(0.852422 0.0271418 -0.0615412)
(0.887799 0.0249142 -0.0140556)
(0.941826 0.0241491 0.000642891)
(0.916141 0.00842983 -0.014682)
(0.914255 -0.000602099 -0.0390269)
(0.978985 0.027971 -0.01011)
(0.877502 0.0426435 0.0244882)
(0.76181 0.0212582 0.0425205)
(0.765211 0.00220888 0.0351882)
(0.862311 -0.0152719 0.0550311)
(0.973739 -0.0344305 0.091474)
(0.995674 -0.0379342 0.0777248)
(0.958716 -0.0159693 0.0172061)
(0.929722 0.0211388 -0.00925558)
(0.904806 0.02899 -0.0092651)
(0.876756 -0.00418049 -0.0208045)
(0.882018 -0.00502436 0.00225496)
(0.8879 0.0651464 0.0289796)
(0.91315 0.0820774 0.0203533)
(0.988203 0.00897108 0.0364566)
(1.04916 -0.0122397 0.0497665)
(1.06201 -0.0147133 0.0786161)
(0.98184 -0.0658745 0.0905101)
(0.90278 -0.069889 0.0289531)
(0.909096 -0.0300942 0.00358361)
(0.956769 -0.0224779 0.00438141)
(0.981496 0.00460625 -0.0241622)
(0.93866 0.0543651 -0.0289536)
(0.884385 0.0443244 -0.0161886)
(0.905736 0.0284933 -0.0171162)
(0.934845 0.0332039 -0.0192752)
(0.975319 -0.00200873 -0.0358212)
(1.01612 -0.0561207 -0.0829485)
(1.02496 -0.0724712 -0.0761183)
(1.0151 -0.0485143 -0.00815992)
(0.980066 -0.0114626 -0.0495904)
(0.957804 -0.0210456 -0.120185)
(0.908045 -0.0699938 -0.0317742)
(0.866966 -0.0531047 0.0472248)
(0.88555 0.0206432 -0.0144413)
(0.887409 0.0494127 -0.0371219)
(0.920374 0.0338537 0.0053545)
(0.949997 0.0302871 0.00654746)
(0.914025 0.0130943 -0.00894243)
(0.939951 -5.48565e-05 -0.0136658)
(0.958957 0.0377345 0.0115315)
(0.835034 0.0631736 0.0276354)
(0.74467 0.0346861 0.0244657)
(0.763364 -0.0144052 0.00757961)
(0.853146 -0.0611205 0.024532)
(0.957085 -0.0728735 0.0631377)
(0.967413 -0.0495645 0.0429324)
(0.922797 -0.013194 -0.0189333)
(0.930437 0.0273606 -0.0342007)
(0.926979 0.0286278 -0.00864515)
(0.878083 -0.00634429 0.00476811)
(0.838233 0.00958366 0.0320614)
(0.827379 0.0805397 0.0494717)
(0.933464 0.07356 0.0382046)
(1.02725 0.0062723 0.0622865)
(1.05905 -0.0114592 0.0599499)
(1.07127 -0.0220899 0.0847637)
(0.974377 -0.0601656 0.0998271)
(0.896159 -0.0532327 0.0194386)
(0.935222 -0.0196539 -0.00709841)
(0.964091 -0.0194227 -0.00529091)
(0.950071 0.0142046 -0.0419725)
(0.903571 0.0710292 -0.0396486)
(0.877441 0.0487073 -0.00490695)
(0.928587 0.0167484 -0.00836884)
(0.950809 0.0215388 -0.0361747)
(0.985207 0.00430399 -0.053336)
(1.04674 -0.0440956 -0.0773281)
(1.03989 -0.0695941 -0.0492258)
(0.980027 -0.0426875 0.000138588)
(0.948504 0.00244259 -0.0689857)
(0.971435 -0.0153784 -0.124445)
(0.913702 -0.0768983 -0.0299416)
(0.841764 -0.0536525 0.050253)
(0.867889 0.0356762 0.0103116)
(0.89894 0.063987 0.000301657)
(0.936522 0.0406612 0.0256469)
(0.942698 0.0402533 0.00969561)
(0.936451 0.0183493 -0.0118294)
(0.97543 -0.000131536 -0.00448359)
(0.948113 0.0448277 0.0190873)
(0.838514 0.0732451 0.0329348)
(0.803838 0.0388917 0.0157699)
(0.844937 -0.0240831 -0.00837049)
(0.867344 -0.0762067 0.0167718)
(0.89115 -0.0797324 0.0474215)
(0.881775 -0.0465057 0.00649424)
(0.860399 -0.00694283 -0.0548755)
(0.914946 0.0317811 -0.0494894)
(0.925335 0.0269943 -0.00684005)
(0.865426 -0.00755975 0.0105161)
(0.806441 0.0187099 0.045317)
(0.810921 0.0790772 0.0593771)
(0.981549 0.057958 0.059966)
(1.05434 0.00704686 0.0941616)
(1.03884 -0.00510037 0.0640502)
(1.0314 -0.0214057 0.0747313)
(0.942698 -0.0456354 0.103903)
(0.891614 -0.0392464 0.0204173)
(0.961998 -0.0140999 -0.00886091)
(0.97175 -0.0125288 -0.00998125)
(0.909729 0.0270609 -0.0642049)
(0.869293 0.0800417 -0.0464608)
(0.91506 0.0454625 0.0271468)
(0.975673 0.00162778 0.0119688)
(0.964244 0.0168692 -0.0445116)
(1.0112 0.0151158 -0.0559602)
(1.08054 -0.0365297 -0.0601615)
(1.02394 -0.0657778 -0.0410547)
(0.936354 -0.0245939 -0.00837803)
(0.925684 0.0224775 -0.0643986)
(0.941901 -0.0209212 -0.0920845)
(0.874968 -0.0901534 -0.013596)
(0.823081 -0.0505812 0.0413839)
(0.841997 0.0484812 0.0192816)
(0.890034 0.0649103 0.0259467)
(0.93231 0.0431656 0.0503302)
(0.949834 0.0467295 0.0338327)
(0.981714 0.019654 -0.000230971)
(1.00424 0.00196223 -0.00151631)
(0.927242 0.0471982 0.0191316)
(0.861662 0.0749106 0.0348832)
(0.874753 0.0372756 0.0142961)
(0.895305 -0.0265593 0.00798829)
(0.850589 -0.0727068 0.0464807)
(0.791511 -0.0752743 0.0316475)
(0.763683 -0.0494409 -0.0445638)
(0.785443 -0.00816774 -0.0910272)
(0.873828 0.0327959 -0.0509378)
(0.880686 0.0236522 -0.00256613)
(0.834418 -0.00849674 -0.000312637)
(0.807662 0.0216128 0.0309897)
(0.864652 0.0686508 0.0639836)
(1.02686 0.0461627 0.103714)
(1.02918 0.018835 0.109836)
(0.980286 0.0129778 0.0339254)
(0.95923 -0.0182271 0.0513959)
(0.90287 -0.0391069 0.0989034)
(0.892227 -0.0296887 0.0246063)
(0.961674 -0.0089343 7.64818e-05)
(0.954989 0.00147397 -0.00475572)
(0.870627 0.048398 -0.068042)
(0.886217 0.0867473 -0.0253088)
(1.00763 0.0348044 0.0656662)
(1.04356 -0.0089531 0.0348443)
(1.00649 0.0183213 -0.0338697)
(1.05931 0.0269809 -0.0528442)
(1.09035 -0.022614 -0.0501699)
(0.962501 -0.0508367 -0.0300542)
(0.882815 0.000261651 -0.0160442)
(0.93059 0.0437617 -0.0561331)
(0.935886 -0.0224097 -0.0444191)
(0.80674 -0.0935987 0.013025)
(0.749996 -0.0376358 0.039986)
(0.799956 0.0550184 0.0320005)
(0.878826 0.0556015 0.0456833)
(0.917808 0.038111 0.0679313)
(0.966863 0.043774 0.0523281)
(1.02099 0.0191514 0.0139204)
(1.0021 0.00396146 0.00132426)
(0.86625 0.0466 0.0135314)
(0.880871 0.0731967 0.0350769)
(0.936 0.0393269 0.0118199)
(0.926318 -0.0215061 0.0174022)
(0.853874 -0.0604068 0.0612235)
(0.757578 -0.07199 0.0175406)
(0.702923 -0.0576738 -0.073943)
(0.729644 -0.0118885 -0.0946824)
(0.806933 0.0309995 -0.0362589)
(0.817762 0.0172242 -0.00845467)
(0.820443 -0.0102036 -0.0163876)
(0.835206 0.0246409 0.0327349)
(0.914405 0.0643078 0.101203)
(1.0178 0.0480987 0.137903)
(0.998933 0.0368428 0.0924335)
(0.96302 0.023673 0.0044567)
(0.918327 -0.021366 0.0424031)
(0.868144 -0.0440253 0.0810182)
(0.888252 -0.0258709 0.0140367)
(0.943984 0.00203415 -0.0171111)
(0.904105 0.0241839 -0.034125)
(0.84745 0.0662988 -0.0554876)
(0.957769 0.0799246 0.0289031)
(1.08784 0.016074 0.0859325)
(1.06014 -0.0174443 0.0298891)
(1.00917 0.0229169 -0.0423219)
(1.09694 0.0416539 -0.0631599)
(1.09855 -0.00716509 -0.0480396)
(0.923985 -0.0371369 -0.025763)
(0.864806 0.0179058 -0.0207932)
(0.942685 0.0595039 -0.0427768)
(0.972264 -0.0184142 -0.00100725)
(0.811742 -0.0860027 0.0261196)
(0.712402 -0.0276837 0.032511)
(0.806916 0.0476283 0.0404715)
(0.903531 0.039273 0.0493465)
(0.904429 0.0258211 0.054746)
(0.960677 0.0345811 0.0385839)
(1.04221 0.0189461 0.0152259)
(0.973347 0.00881497 -0.000901178)
(0.805216 0.0417739 0.000529279)
(0.895148 0.0629356 0.0410942)
(0.954926 0.041366 0.0177776)
(0.956971 -0.0174698 0.0205245)
(0.894018 -0.0528757 0.0684986)
(0.789677 -0.0724826 0.0263062)
(0.70991 -0.0606263 -0.0620794)
(0.704359 -0.00866158 -0.0706914)
(0.758198 0.0276199 -0.0245249)
(0.810167 0.00788631 -0.0184494)
(0.828122 -0.00603982 -0.00548543)
(0.833189 0.0355592 0.0668212)
(0.91922 0.0696659 0.138859)
(0.980043 0.0539725 0.147301)
(0.984968 0.0410142 0.0775625)
(0.983138 0.026906 0.000978063)
(0.898716 -0.0227823 0.0418047)
(0.820115 -0.0434629 0.0309247)
(0.851943 -0.0128552 -0.0463144)
(0.905156 0.0212741 -0.0626949)
(0.87136 0.0382091 -0.0496763)
(0.861023 0.0614361 -0.015182)
(1.00018 0.0543348 0.0580636)
(1.09963 0.00344699 0.0546432)
(1.00481 -0.0148739 -0.0125844)
(0.975238 0.0286344 -0.0766061)
(1.13212 0.0471343 -0.0869205)
(1.10691 0.00220657 -0.0545225)
(0.909708 -0.0258329 -0.0194428)
(0.849693 0.0351615 -0.0241007)
(0.935077 0.0701553 -0.036093)
(1.02455 -0.0133378 0.0331155)
(0.856675 -0.0747601 0.0535493)
(0.741677 -0.0237121 0.0244522)
(0.862388 0.0293556 0.0295296)
(0.92893 0.0219739 0.032377)
(0.86707 0.0199765 0.0134513)
(0.927856 0.0284263 0.000401804)
(1.0375 0.0187179 0.00708214)
(0.914218 0.0195127 -0.0106763)
(0.804511 0.0301451 -0.00498854)
(0.887128 0.0514932 0.0587588)
(0.963883 0.0434322 0.0336747)
(1.02412 -0.0177618 0.0234766)
(0.917229 -0.0533337 0.0618771)
(0.769695 -0.0638114 0.0106632)
(0.690728 -0.0508777 -0.0617369)
(0.684199 -0.00288869 -0.0405755)
(0.751303 0.0185146 0.00334618)
(0.828659 0.00623425 -0.00587491)
(0.815031 0.0113146 0.0172556)
(0.812448 0.0478281 0.100611)
(0.899143 0.071793 0.146147)
(0.931282 0.0571573 0.140909)
(0.986863 0.037981 0.0680024)
(1.00986 0.0305018 -0.00113858)
(0.870465 -0.0152579 0.0372296)
(0.756256 -0.0333846 -0.0301187)
(0.781531 0.0025723 -0.121978)
(0.863446 0.0322305 -0.0922032)
(0.868767 0.0373684 -0.0378116)
(0.855217 0.048997 0.00504007)
(1.01001 0.03799 0.0451895)
(1.10131 0.00106225 0.0159881)
(0.947905 -0.00709966 -0.0572781)
(0.951402 0.0265614 -0.105034)
(1.14762 0.0432963 -0.103594)
(1.12292 0.00894814 -0.0630768)
(0.927952 -0.00777466 -0.00388297)
(0.813492 0.0541762 -0.0120201)
(0.949406 0.0740385 -0.0303356)
(1.07784 -0.0138153 0.0340086)
(0.87531 -0.0594008 0.0725048)
(0.765371 -0.0214239 0.0222383)
(0.860299 0.0157139 0.000360909)
(0.897671 0.0175603 -0.00416831)
(0.829518 0.02277 -0.0388723)
(0.893355 0.0247502 -0.0450631)
(0.991426 0.0244381 -0.0100348)
(0.870792 0.0278211 -0.0280536)
(0.829151 0.0185691 0.00779215)
(0.833812 0.0513976 0.083631)
(1.00534 0.0394383 0.0472714)