/*--------------------------------*- C++ -*----------------------------------*\
  =========                 |
  \\      /  F ield         | OpenFOAM: The Open Source CFD Toolbox
   \\    /   O peration     | Website:  https://openfoam.org
    \\  /    A nd           | Version:  10
     \\/     M anipulation  |
\*---------------------------------------------------------------------------*/
FoamFile
{
    format      ascii;
    class       volScalarField;
    location    "42.5";
    object      nut;
}
// * * * * * * * * * * * * * * * * * * * * * * * * * * * * * * * * * * * * * //

dimensions      [0 2 -1 0 0 0 0];

internalField   nonuniform List<scalar> 
25600
(
8.99187e-19
2.504e-17
1.30176e-16
1.97086e-16
6.5021e-17
4.28628e-19
1.0376e-17
1.22561e-16
7.63314e-16
3.91596e-16
1.30859e-17
1.19802e-17
3.98476e-17
3.42774e-16
2.36524e-16
4.41911e-17
2.32388e-18
4.9809e-19
6.40442e-22
4.29514e-18
8.11526e-17
6.07267e-17
3.85395e-18
2.80681e-18
1.29091e-16
9.40501e-17
7.21451e-19
1.4599e-19
1.59102e-18
3.65231e-18
4.68585e-17
5.85483e-17
7.19103e-18
1.50477e-17
1.69611e-17
3.54519e-17
2.49628e-18
9.30396e-19
3.58348e-19
1.22948e-19
1.77274e-19
2.23649e-18
9.42117e-18
1.53577e-16
4.81462e-16
9.64328e-17
2.85013e-17
4.55642e-18
2.95162e-16
1.02203e-15
3.50915e-16
2.22102e-18
1.0157e-18
1.47669e-17
1.21731e-16
1.60101e-16
4.37313e-17
2.94997e-18
4.35207e-19
1.36582e-17
4.93009e-17
2.49785e-18
9.73102e-19
5.63308e-17
1.50594e-16
7.63408e-18
5.33133e-18
8.36335e-18
1.39449e-17
1.17851e-17
8.47533e-18
1.1213e-16
8.21648e-17
6.63036e-19
2.95363e-19
1.27233e-17
9.56452e-18
3.97949e-18
3.56643e-19
1.22538e-19
2.47525e-19
2.65536e-19
1.74374e-19
6.59134e-18
1.78931e-16
3.34062e-16
3.19104e-17
2.0635e-19
6.17439e-18
3.68937e-16
1.01594e-15
2.13108e-16
6.75781e-18
5.91122e-18
8.10556e-19
5.9132e-18
8.60118e-18
7.30866e-18
6.65021e-18
1.9044e-17
3.55649e-18
2.51465e-19
3.58311e-17
2.31786e-16
4.51039e-17
5.12891e-19
2.61722e-17
9.49207e-17
8.73673e-17
1.40834e-17
1.19541e-18
6.91061e-17
5.97731e-16
1.70827e-16
1.73272e-18
1.37087e-17
2.29091e-17
4.6691e-18
4.01245e-19
1.01134e-19
1.71335e-19
1.53145e-18
6.07962e-19
7.72226e-21
1.13533e-17
2.68758e-16
3.3145e-16
4.95308e-17
5.84022e-18
2.34827e-17
5.43892e-16
6.00468e-16
1.1498e-16
4.86004e-18
2.22598e-20
9.78527e-20
1.86141e-19
1.93332e-18
1.83001e-17
1.47145e-17
2.99443e-17
9.03507e-18
2.45731e-16
1.95863e-16
2.41968e-18
1.69184e-18
9.30042e-17
1.47142e-16
2.87235e-16
2.03164e-16
9.77491e-18
4.95727e-18
6.17824e-16
1.18097e-15
4.69051e-17
5.97584e-17
1.23249e-17
1.59308e-17
5.82221e-18
1.10782e-19
2.41118e-19
3.0212e-18
8.55283e-18
5.96767e-19
9.81554e-18
6.04961e-17
5.69085e-16
5.29104e-16
2.70921e-17
2.73687e-17
8.69022e-17
4.76388e-16
2.51223e-16
3.29614e-17
1.35857e-17
4.08021e-19
1.45507e-18
5.66299e-18
2.98756e-17
8.70572e-18
4.88981e-17
1.00162e-16
3.53855e-16
5.61764e-17
7.55396e-20
1.81532e-17
1.44702e-16
6.00348e-17
2.03418e-16
6.27015e-16
2.32202e-16
1.65443e-19
1.01828e-16
1.33786e-15
4.37589e-16
2.55079e-17
1.9346e-18
2.27835e-17
1.98541e-17
2.24904e-19
3.40703e-19
2.2764e-18
1.84642e-17
9.25439e-18
1.22539e-17
3.57884e-18
2.5425e-16
9.78137e-16
1.58664e-16
2.38527e-17
4.63205e-18
2.22863e-16
2.13435e-16
4.13242e-17
5.72879e-17
9.04871e-18
2.33967e-17
7.20167e-18
2.45615e-17
4.72679e-18
2.60608e-17
2.94034e-16
2.22848e-16
9.97302e-18
1.19673e-18
5.27775e-17
7.95928e-17
5.64122e-18
3.2611e-17
5.14044e-16
9.85531e-16
3.0857e-17
1.05868e-17
5.29027e-16
1.0565e-15
6.566e-17
7.27974e-20
9.53766e-18
3.05652e-17
4.75742e-19
1.76958e-19
4.10302e-19
9.94332e-18
2.52604e-17
8.9145e-18
3.27558e-19
4.62521e-17
8.1387e-16
4.25994e-16
1.79403e-17
6.10662e-20
9.84958e-17
1.34796e-16
1.43704e-17
5.97278e-17
1.50416e-17
8.58482e-17
1.28896e-17
2.36068e-17
2.967e-18
2.80039e-17
3.59163e-16
6.86533e-17
4.35e-18
1.273e-17
8.76335e-17
3.76324e-17
1.53255e-18
1.07631e-18
1.65651e-16
1.74903e-15
4.09124e-16
2.76747e-18
8.81963e-17
1.33928e-15
3.81367e-16
1.24444e-19
1.40452e-18
3.08522e-17
7.7241e-19
9.18936e-20
2.69193e-20
2.11697e-18
2.83139e-17
1.88604e-17
6.85857e-19
3.59365e-18
4.4301e-16
5.9498e-16
4.57982e-17
6.49551e-20
5.48105e-17
1.10344e-16
3.22368e-18
3.75976e-17
9.97205e-18
1.36478e-16
2.30368e-17
4.30396e-17
5.7827e-18
7.55985e-17
2.56308e-16
1.51139e-17
4.04043e-18
5.23103e-17
9.37906e-17
6.38384e-17
4.28885e-17
1.98779e-18
1.76829e-17
1.69878e-15
1.64197e-15
1.23212e-17
2.17725e-18
9.76569e-16
9.19481e-16
6.15409e-18
5.04498e-19
2.44107e-17
1.32337e-18
1.04914e-19
2.77169e-21
1.36471e-18
2.79589e-17
2.40359e-17
1.09712e-17
5.03088e-19
2.06655e-16
5.83104e-16
8.63417e-17
6.63251e-19
3.1497e-17
1.09853e-16
3.70987e-18
3.80931e-17
9.67846e-18
1.86412e-16
2.71279e-17
9.9857e-17
2.25787e-17
1.44524e-16
1.16419e-16
3.23212e-18
3.1899e-18
1.13008e-16
7.67989e-17
1.56061e-16
1.82077e-16
2.5638e-17
4.71954e-18
8.92397e-16
3.21059e-15
1.79842e-16
1.9362e-19
4.8114e-16
1.12088e-15
4.81985e-17
1.05208e-18
1.32764e-17
2.08474e-18
5.67981e-19
4.94343e-21
3.84587e-18
5.62267e-17
9.7665e-18
7.15169e-17
2.10083e-19
8.4637e-17
4.65338e-16
9.09383e-17
5.28274e-18
1.95102e-17
8.2414e-17
1.90017e-18
1.09449e-16
1.2845e-17
3.74375e-16
1.42479e-17
2.95026e-16
1.07682e-16
1.56821e-16
2.68502e-17
1.17277e-19
2.06823e-17
2.11417e-16
4.09455e-17
3.62741e-16
2.94989e-16
2.51828e-16
2.60408e-17
2.54729e-16
4.59366e-15
5.98937e-16
1.90605e-18
2.29947e-16
7.23029e-16
2.36245e-16
3.30596e-18
3.12333e-18
3.63987e-18
1.57492e-17
3.33482e-18
8.92167e-17
6.00626e-16
7.48105e-17
7.82026e-16
3.32825e-18
6.60386e-17
7.1694e-16
1.55963e-16
1.18788e-16
1.65183e-16
8.27738e-17
5.82111e-17
1.20952e-15
1.75826e-17
2.36589e-15
3.34612e-17
2.30627e-15
1.31011e-15
2.44409e-17
5.85544e-17
3.48713e-17
9.62661e-16
7.5383e-16
2.47787e-17
1.94122e-15
2.70061e-16
4.92077e-15
3.55248e-16
2.71088e-17
1.17943e-14
4.66399e-16
1.89098e-16
5.86323e-16
8.08424e-17
2.09319e-15
5.99305e-17
1.38861e-16
6.55707e-17
1.64202e-14
8.19963e-15
3.41025e-14
6.28148e-14
1.62089e-14
7.56854e-14
1.29342e-14
2.76798e-14
1.01498e-13
2.8449e-14
3.3551e-14
4.82028e-14
2.23024e-14
5.88039e-14
1.03144e-13
8.4689e-15
2.02669e-13
1.06905e-14
1.35466e-13
1.13571e-13
2.65886e-14
2.59446e-14
2.77922e-14
1.24703e-13
3.61386e-14
5.3311e-14
1.00041e-13
2.67833e-14
4.47654e-13
4.97441e-14
2.32683e-14
2.59923e-13
1.80057e-14
6.83353e-14
6.192e-14
1.21301e-14
1.32107e-13
1.98624e-14
4.11511e-14
2.90545e-14
8.49994e-12
7.43528e-12
1.88441e-11
2.21468e-11
1.07132e-11
1.83088e-11
1.04834e-11
1.61297e-11
3.4734e-11
1.29393e-11
1.33524e-11
2.10879e-11
1.41055e-11
2.78565e-11
3.5383e-11
4.94743e-12
5.27015e-11
9.50919e-12
4.03568e-11
3.43844e-11
1.53837e-11
1.49707e-11
1.85666e-11
3.87052e-11
1.60901e-11
2.37738e-11
2.32455e-11
1.67714e-11
8.41372e-11
1.92857e-11
1.45185e-11
3.02364e-11
1.54969e-11
2.82837e-11
2.22497e-11
5.02863e-12
2.65066e-11
1.35881e-11
1.85047e-11
1.72034e-11
8.19574e-10
1.99519e-09
3.39946e-09
3.61638e-09
2.41547e-09
1.57963e-09
2.39387e-09
3.41712e-09
4.27099e-09
2.68687e-09
1.26374e-09
3.71996e-09
2.9671e-09
4.4675e-09
4.26971e-09
7.58263e-10
5.82939e-09
2.52688e-09
4.90022e-09
4.3407e-09
1.28106e-09
3.0033e-09
3.39968e-09
4.83654e-09
2.46678e-09
2.09347e-09
2.71206e-09
3.2088e-09
6.07269e-09
2.75065e-09
1.34741e-09
2.90834e-09
2.81532e-09
3.76258e-09
2.57976e-09
6.14562e-10
2.93649e-09
2.79102e-09
3.04749e-09
2.61917e-09
2.17793e-10
1.26896e-09
1.45323e-09
1.84529e-09
9.79078e-10
4.30313e-10
1.34248e-09
1.58076e-09
1.92011e-09
1.09716e-09
3.17869e-10
1.8487e-09
1.34556e-09
2.09086e-09
1.45141e-09
2.48806e-10
2.32725e-09
1.2806e-09
1.97718e-09
1.4998e-09
2.72017e-10
1.62421e-09
1.40647e-09
1.98425e-09
9.00287e-10
5.08068e-10
1.21835e-09
1.36548e-09
2.12677e-09
9.28613e-10
2.96879e-10
1.3108e-09
1.1251e-09
1.69958e-09
8.21983e-10
1.6449e-10
1.30879e-09
1.22194e-09
1.52056e-09
9.34885e-10
1.29186e-10
4.50908e-10
4.60875e-10
6.50225e-10
1.61453e-10
1.87292e-10
4.51087e-10
5.10533e-10
6.63039e-10
1.78586e-10
1.45291e-10
5.88197e-10
4.44926e-10
7.00338e-10
2.47148e-10
1.43e-10
6.72617e-10
4.44544e-10
6.23691e-10
2.38275e-10
1.30073e-10
5.58575e-10
4.29267e-10
6.31139e-10
1.47092e-10
1.84467e-10
4.0884e-10
4.28282e-10
6.59044e-10
1.27986e-10
1.26266e-10
4.35598e-10
3.43985e-10
5.73093e-10
1.22392e-10
9.67825e-11
4.29969e-10
3.9018e-10
5.33535e-10
1.39029e-10
8.43428e-11
1.4433e-10
1.76467e-10
1.23904e-10
2.53792e-11
1.03423e-10
1.34706e-10
1.93803e-10
1.23661e-10
3.01523e-11
8.78504e-11
1.74711e-10
1.65448e-10
1.41552e-10
3.54892e-11
8.97135e-11
1.84347e-10
1.67589e-10
1.08582e-10
3.42799e-11
8.47627e-11
1.72623e-10
1.44382e-10
1.20655e-10
2.45956e-11
9.71598e-11
1.29426e-10
1.46273e-10
1.1845e-10
2.43313e-11
7.58913e-11
1.35325e-10
1.19547e-10
1.10786e-10
2.28328e-11
7.65517e-11
1.33519e-10
1.43049e-10
9.58773e-11
2.68453e-11
3.96703e-11
5.3014e-11
3.57683e-11
1.94548e-11
2.13721e-11
4.89928e-11
4.65665e-11
3.93067e-11
1.75367e-11
2.56323e-11
4.1629e-11
6.06214e-11
3.22415e-11
2.09473e-11
2.54304e-11
3.90169e-11
6.33685e-11
2.99392e-11
1.62951e-11
2.64381e-11
3.68165e-11
6.03298e-11
2.56784e-11
2.00233e-11
2.67685e-11
4.32352e-11
4.4988e-11
2.61608e-11
1.70488e-11
2.86811e-11
3.48254e-11
4.97844e-11
2.25217e-11
1.75272e-11
2.60977e-11
3.80982e-11
4.8842e-11
2.73846e-11
1.53539e-11
2.56106e-11
1.36107e-11
1.17528e-11
8.04875e-12
1.39837e-11
1.17183e-11
1.65772e-11
9.87539e-12
9.29934e-12
1.12559e-11
1.43723e-11
1.34509e-11
1.33654e-11
8.29044e-12
1.13631e-11
1.57672e-11
1.12739e-11
1.40823e-11
7.66236e-12
1.18996e-11
1.58833e-11
1.10604e-11
1.38438e-11
7.17911e-12
1.38267e-11
1.45584e-11
1.39405e-11
1.08306e-11
7.53009e-12
1.17524e-11
1.51743e-11
1.18152e-11
1.23011e-11
7.45738e-12
1.23614e-11
1.3755e-11
1.28472e-11
1.14818e-11
7.75568e-12
1.24185e-11
1.34066e-11
4.67706e-12
4.08723e-12
4.75006e-12
6.15446e-12
3.74257e-12
5.19193e-12
3.6924e-12
5.30869e-12
4.96782e-12
4.85728e-12
3.85886e-12
4.93886e-12
4.94329e-12
5.36752e-12
5.49598e-12
3.47504e-12
5.69892e-12
4.56139e-12
6.03458e-12
5.01049e-12
3.97902e-12
5.84681e-12
4.31019e-12
6.86291e-12
4.06808e-12
4.70918e-12
5.27758e-12
4.70002e-12
5.94523e-12
4.46078e-12
4.09938e-12
4.99254e-12
5.01732e-12
5.96705e-12
4.07615e-12
4.59003e-12
4.21512e-12
5.00849e-12
5.69598e-12
4.3418e-12
2.51569e-12
1.69084e-12
2.18135e-12
2.09107e-12
1.60197e-12
2.41631e-12
1.82521e-12
2.18069e-12
1.92079e-12
2.04593e-12
1.87331e-12
2.51732e-12
1.97267e-12
2.20923e-12
2.23067e-12
2.09579e-12
2.5429e-12
2.03348e-12
2.46543e-12
1.74837e-12
2.73974e-12
2.23016e-12
2.10703e-12
2.67939e-12
1.62586e-12
2.5313e-12
2.12892e-12
2.22039e-12
2.14845e-12
1.96723e-12
2.17266e-12
2.00037e-12
2.48561e-12
1.99313e-12
1.86908e-12
2.3927e-12
1.67813e-12
2.42032e-12
1.81449e-12
1.81856e-12
1.01938e-12
8.19518e-13
9.59938e-13
8.89284e-13
8.70626e-13
1.01169e-12
8.77452e-13
9.54219e-13
9.46325e-13
9.41987e-13
9.31355e-13
1.08222e-12
9.35005e-13
1.01144e-12
1.01182e-12
1.03609e-12
9.62276e-13
1.12028e-12
9.49326e-13
8.85123e-13
1.25911e-12
7.80499e-13
1.1474e-12
9.21212e-13
9.82566e-13
9.8932e-13
8.45732e-13
1.08945e-12
7.59334e-13
1.18785e-12
8.07863e-13
8.53354e-13
1.22672e-12
7.27347e-13
1.10008e-12
8.80532e-13
7.81862e-13
1.11429e-12
7.21151e-13
9.36803e-13
4.95989e-13
4.24821e-13
3.88733e-13
4.87435e-13
3.88803e-13
4.41323e-13
4.69219e-13
4.2152e-13
4.39611e-13
4.36568e-13
4.54189e-13
4.23288e-13
4.96842e-13
4.29152e-13
4.4966e-13
4.69495e-13
4.04658e-13
5.31628e-13
4.01168e-13
4.19716e-13
5.02581e-13
3.8523e-13
4.65354e-13
3.86825e-13
4.81533e-13
3.47268e-13
4.85622e-13
4.23206e-13
3.27652e-13
5.95162e-13
3.07605e-13
4.33321e-13
5.30045e-13
3.29038e-13
5.30046e-13
3.86598e-13
3.84208e-13
4.74314e-13
4.08553e-13
3.82552e-13
2.91995e-13
1.70417e-13
1.83281e-13
2.56036e-13
1.56134e-13
2.1546e-13
2.21037e-13
1.78044e-13
2.09127e-13
2.02123e-13
1.93735e-13
1.88728e-13
2.35458e-13
1.64266e-13
2.29286e-13
2.04552e-13
1.65224e-13
2.44986e-13
1.84034e-13
1.76369e-13
2.56194e-13
1.63541e-13
2.10596e-13
1.94804e-13
1.94489e-13
1.73071e-13
2.21104e-13
1.91647e-13
1.61437e-13
2.675e-13
1.54547e-13
1.89078e-13
2.80163e-13
1.43738e-13
2.46674e-13
2.17969e-13
1.50934e-13
2.49224e-13
2.07697e-13
1.49291e-13
1.53011e-13
6.49577e-14
9.54206e-14
1.12429e-13
6.77094e-14
1.05022e-13
9.37244e-14
8.04545e-14
9.83369e-14
8.41738e-14
9.18812e-14
8.50946e-14
1.03397e-13
7.5781e-14
9.92708e-14
9.82871e-14
7.5427e-14
1.09326e-13
9.11705e-14
7.45621e-14
1.36375e-13
6.88951e-14
1.13215e-13
8.51313e-14
9.82314e-14
8.61464e-14
9.52034e-14
1.11171e-13
6.59276e-14
1.41832e-13
7.53011e-14
8.18775e-14
1.60397e-13
5.38606e-14
1.3407e-13
1.05042e-13
6.00531e-14
1.42671e-13
8.37106e-14
6.7244e-14
6.92399e-14
2.74299e-14
4.64449e-14
4.70077e-14
3.28768e-14
4.57742e-14
4.18878e-14
3.86697e-14
4.16506e-14
3.9458e-14
4.5048e-14
3.42755e-14
5.51211e-14
3.38268e-14
4.17742e-14
5.8043e-14
2.92643e-14
5.76306e-14
4.70292e-14
2.95852e-14
7.92208e-14
2.83969e-14
6.06451e-14
3.84013e-14
5.19191e-14
3.90483e-14
4.57416e-14
6.02394e-14
2.57177e-14
7.74833e-14
3.39084e-14
3.63657e-14
8.34194e-14
2.05449e-14
6.84481e-14
4.66484e-14
2.618e-14
6.96771e-14
3.49241e-14
3.17193e-14
3.19042e-14
1.20542e-14
2.03498e-14
2.11902e-14
1.55479e-14
1.90517e-14
2.07686e-14
1.74068e-14
1.81766e-14
1.97129e-14
2.06163e-14
1.49389e-14
2.95908e-14
1.41967e-14
1.98529e-14
3.19317e-14
1.08639e-14
3.29571e-14
2.17441e-14
1.2453e-14
4.35105e-14
1.10601e-14
3.26698e-14
1.63975e-14
2.64445e-14
1.73392e-14
2.11868e-14
3.09369e-14
9.42604e-15
4.02578e-14
1.49919e-14
1.45337e-14
4.35522e-14
7.47641e-15
3.14581e-14
2.20867e-14
1.04411e-14
3.24792e-14
1.56841e-14
1.32673e-14
1.49693e-14
5.01764e-15
8.58017e-15
9.65221e-15
6.84042e-15
8.0486e-15
9.98343e-15
7.45985e-15
8.08562e-15
9.35586e-15
9.34258e-15
6.38685e-15
1.50294e-14
5.95691e-15
8.88753e-15
1.67394e-14
3.8359e-15
1.71118e-14
9.81945e-15
4.88578e-15
2.20353e-14
4.17193e-15
1.58074e-14
6.55921e-15
1.26811e-14
7.17749e-15
8.91801e-15
1.53113e-14
2.9942e-15
2.00132e-14
6.25534e-15
5.14795e-15
2.28088e-14
2.29233e-15
1.39191e-14
1.06216e-14
3.5493e-15
1.52404e-14
6.85138e-15
5.02044e-15
6.7362e-15
1.87252e-15
3.26808e-15
4.13283e-15
2.72673e-15
3.13575e-15
4.31426e-15
2.99479e-15
3.23417e-15
4.02774e-15
3.92405e-15
2.37589e-15
7.05426e-15
2.22035e-15
3.42757e-15
8.26979e-15
1.06696e-15
7.96183e-15
4.10832e-15
1.53054e-15
1.04999e-14
1.31515e-15
6.74335e-15
2.38093e-15
5.36684e-15
2.66766e-15
3.23211e-15
7.25459e-15
7.04568e-16
9.35696e-15
2.36871e-15
1.49501e-15
1.14947e-14
5.14154e-16
5.7468e-15
4.85228e-15
9.42397e-16
6.90637e-15
2.71093e-15
1.63304e-15
2.62717e-15
5.30019e-16
9.93968e-16
1.49647e-15
8.39864e-16
9.81452e-16
1.51491e-15
9.74223e-16
9.94889e-16
1.41968e-15
1.32253e-15
6.56956e-16
2.78453e-15
6.11713e-16
1.00592e-15
3.54661e-15
1.60025e-16
3.15377e-15
1.38901e-15
3.07467e-16
4.39802e-15
2.59243e-16
2.43808e-15
6.65177e-16
1.85409e-15
7.9995e-16
8.8748e-16
3.09404e-15
7.38782e-17
3.93027e-15
6.84448e-16
2.83899e-16
5.25344e-15
5.09636e-17
2.03279e-15
1.92931e-15
1.38345e-16
2.77964e-15
8.3801e-16
3.87388e-16
7.22805e-16
8.72457e-17
1.55414e-16
3.66519e-16
1.45716e-16
1.72382e-16
3.34024e-16
1.97211e-16
1.58613e-16
3.15752e-16
2.81922e-16
7.80912e-17
7.58902e-16
9.36202e-17
1.28584e-16
1.17461e-15
2.92714e-18
7.83085e-16
3.59234e-16
1.23198e-17
1.36067e-15
1.84714e-17
5.42861e-16
1.13674e-16
3.89065e-16
1.58773e-16
1.06548e-16
1.05071e-15
4.5465e-19
1.11099e-15
1.56282e-16
7.62229e-18
1.91331e-15
5.18079e-19
3.81472e-16
6.50994e-16
1.6743e-18
7.60983e-16
1.83107e-16
2.9447e-17
1.07804e-16
3.22105e-18
1.71317e-18
4.2734e-17
4.73489e-18
5.07095e-18
2.67333e-17
1.20282e-17
2.71326e-18
2.53766e-17
2.03793e-17
4.29482e-20
1.08279e-16
2.15077e-18
2.81944e-19
2.5354e-16
6.1849e-18
7.29082e-17
5.64463e-17
4.8528e-18
2.51794e-16
1.17284e-21
3.40746e-17
5.86342e-18
2.44539e-17
9.98853e-18
1.79535e-19
2.40212e-16
1.85205e-17
1.50089e-16
2.57861e-17
1.16783e-17
5.1259e-16
5.66731e-18
9.0302e-18
1.75941e-16
1.10413e-17
9.9311e-17
2.11298e-17
3.40402e-19
3.16854e-18
5.02836e-17
1.56319e-16
1.62757e-16
3.2855e-17
2.79522e-19
3.52943e-17
1.6305e-16
8.40203e-16
4.47319e-16
2.92629e-17
2.95183e-17
2.88223e-17
2.72357e-16
2.33645e-16
6.31567e-17
4.52724e-18
5.81348e-19
4.09438e-21
3.84607e-18
6.804e-17
5.67424e-17
7.90406e-18
2.67121e-18
8.68038e-17
7.89713e-17
7.28607e-19
1.65554e-19
8.37021e-19
1.21165e-18
2.58785e-17
4.82175e-17
1.16175e-17
2.71061e-17
1.23762e-17
2.70131e-17
1.7559e-18
9.12643e-19
4.651e-19
3.15723e-19
6.18533e-19
6.6684e-18
1.96571e-17
2.75516e-16
5.14045e-16
5.48751e-17
4.68409e-17
2.45301e-18
2.54124e-16
9.11533e-16
3.88289e-16
7.22952e-18
5.02878e-19
5.79001e-18
4.72726e-17
1.0686e-16
4.72372e-17
7.72885e-18
7.54631e-19
7.75103e-18
3.33775e-17
2.26345e-18
2.13111e-18
3.43628e-17
1.00517e-16
7.38821e-18
5.42166e-18
9.98738e-18
8.5399e-18
5.40728e-18
4.70182e-18
6.217e-17
6.55874e-17
1.4191e-18
3.41592e-19
9.19547e-18
8.60616e-18
6.45547e-18
8.42359e-19
4.11544e-19
3.4696e-19
2.33331e-19
1.99711e-19
2.6302e-17
3.33332e-16
3.64337e-16
2.68167e-17
3.88068e-19
4.45378e-18
2.71515e-16
9.09623e-16
2.75016e-16
1.59006e-17
6.43109e-18
4.13979e-19
5.5181e-19
2.66351e-18
9.21614e-18
1.00636e-17
2.16927e-17
8.7948e-18
9.59873e-19
2.74774e-17
1.61467e-16
3.20958e-17
5.54235e-19
3.43467e-17
9.90971e-17
9.19777e-17
1.60864e-17
2.57135e-18
2.68952e-17
3.96425e-16
1.62139e-16
7.05384e-19
1.33441e-17
2.68401e-17
6.46603e-18
6.39412e-19
3.39237e-19
4.65276e-19
1.15274e-18
5.30128e-20
5.48638e-20
3.48783e-17
3.88946e-16
3.5234e-16
4.75188e-17
1.38146e-17
2.42732e-17
4.1049e-16
4.81362e-16
1.50751e-16
1.96272e-17
1.87762e-18
3.69891e-20
1.36988e-18
6.61476e-18
1.26868e-17
2.53876e-17
8.23489e-17
1.87572e-17
1.82996e-16
1.68362e-16
2.56579e-18
1.87031e-18
8.97326e-17
1.26888e-16
2.34005e-16
2.09462e-16
1.66464e-17
1.21396e-18
4.05729e-16
1.0418e-15
5.57721e-17
7.04439e-17
1.97782e-17
1.51805e-17
7.39579e-18
4.14399e-19
8.08292e-19
4.15901e-18
4.86787e-18
4.24732e-19
8.91519e-18
1.05479e-16
5.92541e-16
4.80819e-16
3.53432e-17
3.03131e-17
4.75183e-17
2.44542e-16
1.93828e-16
6.95672e-17
4.75898e-17
5.17503e-18
1.10273e-17
1.85757e-17
2.27149e-17
8.96212e-18
9.86847e-17
1.23696e-16
2.55148e-16
6.04766e-17
1.44027e-19
1.66577e-17
1.1005e-16
4.13912e-17
1.38205e-16
5.52868e-16
2.85031e-16
1.08239e-18
5.94561e-17
1.09905e-15
4.69251e-16
4.21563e-17
4.48689e-18
1.98761e-17
2.08665e-17
6.4651e-19
1.27589e-18
3.90901e-18
2.19046e-17
4.51028e-18
1.44168e-17
5.54848e-18
2.25484e-16
8.70939e-16
1.82721e-16
1.88059e-17
1.59916e-18
8.69929e-17
1.11439e-16
6.05417e-17
9.2626e-17
3.26604e-17
9.49114e-17
2.36387e-17
3.09087e-17
3.24794e-18
3.54096e-17
2.95265e-16
1.62561e-16
2.25661e-17
1.60656e-18
4.36915e-17
5.01137e-17
2.66417e-18
1.50876e-17
4.15011e-16
1.12529e-15
5.93053e-17
4.0855e-18
4.01002e-16
1.02657e-15
9.40049e-17
2.52423e-19
7.93894e-18
2.59525e-17
1.06942e-18
9.74853e-19
6.85677e-19
2.51218e-17
2.05342e-17
8.6249e-18
2.85231e-19
2.88059e-17
7.04198e-16
4.68729e-16
2.21579e-17
2.23747e-20
4.65654e-17
6.41676e-17
2.01707e-17
5.16419e-17
3.16559e-17
2.65825e-16
4.89962e-17
8.69336e-17
7.98872e-18
2.18357e-17
3.35763e-16
6.2897e-17
1.70086e-17
1.56384e-17
6.90912e-17
2.6791e-17
4.60896e-18
8.71546e-19
1.14239e-16
2.00497e-15
5.25615e-16
8.05084e-19
7.06201e-17
1.183e-15
4.73437e-16
1.70949e-19
1.07266e-18
2.14809e-17
1.34644e-18
7.34563e-19
1.43162e-20
1.61669e-17
3.07943e-17
1.93662e-17
1.98081e-19
2.06293e-18
3.65693e-16
6.51059e-16
6.98707e-17
3.04554e-21
2.77172e-17
6.97995e-17
3.74097e-18
2.02817e-17
1.6055e-17
3.44563e-16
7.63979e-17
2.89629e-16
2.74748e-17
5.09494e-17
2.36236e-16
3.04481e-17
1.5546e-17
6.65932e-17
8.2626e-17
4.48138e-17
9.79835e-17
1.1237e-17
9.99663e-18
2.12297e-15
1.65386e-15
2.54879e-17
7.50586e-18
7.4902e-16
1.19919e-15
4.2389e-18
4.28192e-19
1.38475e-17
1.76492e-18
1.08352e-18
5.04067e-20
1.53924e-17
3.45261e-17
5.14213e-17
2.79291e-18
5.58775e-19
1.48575e-16
6.28174e-16
1.33426e-16
2.35091e-20
1.09801e-17
8.46592e-17
3.05556e-19
2.69082e-17
2.62074e-17
3.71962e-16
7.52328e-17
7.64943e-16
6.8957e-17
5.46296e-17
1.1988e-16
2.82493e-17
1.54324e-17
1.84473e-16
7.32983e-17
4.74007e-17
5.42915e-16
8.01095e-17
1.25489e-17
1.42204e-15
2.41007e-15
3.64395e-16
4.9002e-18
2.64842e-16
1.72823e-15
1.9226e-17
8.89485e-19
8.03272e-18
1.54878e-18
6.02154e-18
1.35898e-18
4.16553e-17
7.02228e-17
9.33807e-17
2.86948e-17
7.28128e-19
5.61444e-17
4.49625e-16
1.6047e-16
1.5695e-18
1.40387e-17
7.1161e-17
2.42655e-17
1.03051e-16
9.05969e-17
5.65738e-16
5.69957e-17
1.8204e-15
1.47934e-16
3.85253e-17
8.14575e-17
2.13303e-17
4.85802e-17
4.09777e-16
6.30169e-17
1.26367e-17
1.68821e-15
3.66768e-16
5.52117e-17
7.49581e-16
1.85301e-15
1.59145e-15
9.42028e-18
4.61027e-17
1.69577e-15
3.41886e-17
7.56801e-18
1.26621e-17
2.80751e-19
6.65313e-17
6.14274e-17
4.24095e-16
6.37144e-16
3.59145e-16
2.21605e-16
7.81265e-17
2.46654e-16
1.68858e-16
2.72569e-16
2.87778e-17
2.96139e-16
4.57792e-17
1.12476e-15
8.85612e-16
1.79382e-16
1.79856e-15
1.40387e-16
6.05912e-15
8.3291e-16
1.2642e-16
3.42111e-16
1.5129e-16
9.44126e-16
1.62338e-15
1.74786e-16
2.0009e-17
4.1735e-15
1.89297e-15
6.79044e-16
3.61881e-16
8.68802e-16
3.32501e-15
1.11108e-16
9.7323e-17
6.06975e-16
6.00681e-17
2.24033e-16
3.14817e-16
4.83113e-17
6.65553e-15
5.13585e-15
2.27183e-14
2.81199e-14
2.19979e-14
6.54624e-15
4.49409e-15
2.71364e-14
9.00199e-15
2.31805e-14
3.47746e-15
1.02913e-14
1.38774e-14
4.29519e-14
2.65821e-14
2.27483e-15
2.81908e-14
1.13381e-14
7.63101e-14
2.90695e-14
3.55199e-15
1.25022e-14
1.82687e-14
3.79647e-14
4.76916e-14
8.40223e-15
4.25632e-15
3.02358e-14
4.03096e-14
5.11923e-14
7.2563e-15
2.06791e-15
1.18971e-14
1.02016e-14
1.30252e-14
3.35307e-15
3.73194e-15
1.43188e-14
2.62855e-14
9.21657e-15
3.5244e-12
2.32478e-12
3.57944e-12
2.77858e-12
3.77343e-12
2.74183e-12
2.43462e-12
4.15097e-12
1.63655e-12
4.62963e-12
2.64632e-12
2.75096e-12
3.8036e-12
3.02314e-12
3.61823e-12
3.57164e-12
4.16241e-12
2.95199e-12
4.68568e-12
3.91933e-12
4.29685e-12
2.79951e-12
3.59483e-12
2.64635e-12
6.28901e-12
3.62611e-12
2.36488e-12
5.73274e-12
3.00256e-12
8.79399e-12
4.0576e-12
1.30752e-12
5.22811e-12
1.44246e-12
3.31983e-12
4.29343e-12
1.78781e-12
3.55701e-12
3.14729e-12
2.54346e-12
9.38738e-10
6.43194e-10
5.18916e-10
2.98087e-10
6.7914e-10
7.79059e-10
6.93154e-10
5.1126e-10
2.21975e-10
8.50004e-10
8.72029e-10
6.97115e-10
5.29882e-10
2.68712e-10
7.93675e-10
9.89107e-10
8.0698e-10
4.66229e-10
4.05482e-10
7.9734e-10
1.25234e-09
6.56002e-10
5.54461e-10
2.40023e-10
1.0721e-09
9.29467e-10
7.00892e-10
7.87691e-10
3.10994e-10
1.3824e-09
9.58977e-10
4.91434e-10
8.58108e-10
1.71127e-10
8.08385e-10
1.05029e-09
5.78095e-10
6.3731e-10
3.20993e-10
6.45666e-10
1.13002e-08
9.25949e-09
3.01583e-09
2.45342e-09
7.83488e-09
1.09111e-08
9.063e-09
3.07323e-09
2.06628e-09
1.20494e-08
1.18704e-08
1.06052e-08
2.94879e-09
2.15056e-09
9.7012e-09
1.41122e-08
9.11842e-09
3.09787e-09
2.69277e-09
1.10312e-08
1.43343e-08
9.50498e-09
3.05262e-09
1.78662e-09
1.04751e-08
1.12668e-08
7.79249e-09
4.15955e-09
2.09055e-09
1.33852e-08
9.38905e-09
7.36553e-09
4.35104e-09
1.46169e-09
8.78976e-09
1.29816e-08
7.3957e-09
4.26508e-09
2.31597e-09
8.4161e-09
3.6734e-09
2.32331e-09
3.80347e-10
1.24314e-09
2.92988e-09
3.56676e-09
2.2277e-09
3.37484e-10
1.32652e-09
4.32611e-09
3.57383e-09
2.53782e-09
3.12779e-10
1.07212e-09
3.5837e-09
3.64613e-09
2.42146e-09
3.19048e-10
1.29171e-09
3.98019e-09
3.74366e-09
2.36824e-09
3.55366e-10
9.35837e-10
3.86027e-09
3.27713e-09
1.98411e-09
4.58012e-10
1.12825e-09
4.383e-09
2.75834e-09
2.22704e-09
4.95343e-10
9.08889e-10
3.75755e-09
3.84691e-09
2.16476e-09
5.64402e-10
1.23705e-09
3.37699e-09
8.46406e-10
2.74258e-10
7.19103e-11
6.58606e-10
7.72457e-10
8.17514e-10
2.67243e-10
7.25274e-11
7.48774e-10
9.99521e-10
7.59197e-10
3.19705e-10
6.38963e-11
5.62182e-10
8.51576e-10
7.51286e-10
3.3749e-10
8.03965e-11
6.42662e-10
8.92273e-10
8.1587e-10
3.11779e-10
6.4133e-11
5.4256e-10
9.64995e-10
7.34861e-10
2.54515e-10
9.41359e-11
5.91527e-10
1.07869e-09
6.69856e-10
3.31153e-10
9.3479e-11
5.53864e-10
1.12578e-09
8.27395e-10
3.09185e-10
1.17678e-10
6.43954e-10
9.24707e-10
9.65702e-11
1.9251e-11
7.50072e-11
1.9787e-10
1.2582e-10
9.36446e-11
1.98436e-11
8.86447e-11
2.06064e-10
1.39112e-10
8.6897e-11
2.96888e-11
7.91507e-11
1.61614e-10
1.29712e-10
8.84376e-11
3.46692e-11
9.57358e-11
1.80842e-10
1.29035e-10
1.11639e-10
2.50093e-11
7.6619e-11
1.77061e-10
1.44966e-10
1.02248e-10
2.59223e-11
9.41063e-11
1.79344e-10
1.79236e-10
9.32896e-11
3.39538e-11
9.42334e-11
1.8902e-10
1.94755e-10
9.31917e-11
2.94361e-11
1.02151e-10
1.86222e-10
1.55109e-10
1.11995e-11
1.48366e-11
2.67679e-11
2.61791e-11
1.6449e-11
1.23723e-11
1.49926e-11
2.98904e-11
2.57395e-11
1.76131e-11
1.18703e-11
1.69971e-11
2.85185e-11
2.7366e-11
1.62163e-11
1.27421e-11
1.97494e-11
3.06122e-11
2.95231e-11
1.63339e-11
1.56674e-11
1.60385e-11
3.02811e-11
2.80497e-11
1.61301e-11
1.6923e-11
2.12855e-11
3.17873e-11
2.92854e-11
2.00879e-11
1.34153e-11
2.10585e-11
3.40814e-11
2.85395e-11
2.08636e-11
1.20995e-11
1.79189e-11
3.20558e-11
2.40579e-11
1.98472e-11
4.48704e-12
4.99923e-12
5.23625e-12
4.9294e-12
5.11395e-12
5.31163e-12
5.11207e-12
5.07311e-12
6.56222e-12
4.67869e-12
5.1617e-12
6.08882e-12
4.57248e-12
8.75018e-12
4.34523e-12
5.31583e-12
6.49139e-12
5.12319e-12
6.6057e-12
5.05783e-12
5.51951e-12
5.78204e-12
6.11856e-12
5.60321e-12
4.69878e-12
5.76779e-12
6.81237e-12
5.47477e-12
6.13641e-12
4.6416e-12
4.68625e-12
6.68926e-12
5.06227e-12
5.33893e-12
5.13658e-12
4.24662e-12
5.55899e-12
5.33917e-12
4.13411e-12
6.02877e-12
1.459e-12
2.59509e-12
1.86065e-12
2.19837e-12
1.90968e-12
1.8972e-12
2.28656e-12
2.00365e-12
2.65082e-12
1.68118e-12
2.11295e-12
2.13997e-12
1.94008e-12
2.76628e-12
1.78574e-12
1.93189e-12
2.14103e-12
2.28179e-12
1.72576e-12
2.55851e-12
1.51623e-12
2.27084e-12
2.19156e-12
1.76223e-12
2.08758e-12
1.61037e-12
2.15476e-12
1.76675e-12
2.12373e-12
1.75516e-12
1.39665e-12
2.55193e-12
1.32998e-12
2.20353e-12
1.92545e-12
1.27285e-12
2.55429e-12
1.69913e-12
1.78798e-12
2.38e-12
7.66359e-13
1.55989e-12
6.59864e-13
1.43151e-12
7.30138e-13
1.03284e-12
1.28109e-12
8.01937e-13
1.19321e-12
8.22555e-13
1.02307e-12
1.06801e-12
9.70936e-13
8.77484e-13
1.01302e-12
8.26952e-13
1.16691e-12
9.19182e-13
6.92724e-13
1.39584e-12
4.62446e-13
1.74034e-12
5.77612e-13
1.09526e-12
8.98153e-13
6.30329e-13
1.57795e-12
4.80875e-13
1.29191e-12
7.68268e-13
6.37996e-13
1.80802e-12
4.31663e-13
1.40746e-12
7.81578e-13
7.29245e-13
1.51325e-12
6.25802e-13
1.10105e-12
9.79618e-13
5.70127e-13
5.82636e-13
4.07059e-13
8.69238e-13
2.85989e-13
8.30895e-13
4.93315e-13
4.10873e-13
7.47515e-13
4.36044e-13
4.82888e-13
6.70781e-13
4.62301e-13
4.57896e-13
7.51477e-13
2.98232e-13
7.54212e-13
4.80369e-13
3.8514e-13
8.30265e-13
2.52751e-13
9.48006e-13
2.41121e-13
9.03305e-13
3.23984e-13
5.16736e-13
8.2531e-13
1.94628e-13
1.13576e-12
3.16027e-13
4.19617e-13
1.0609e-12
2.06909e-13
9.77115e-13
4.09125e-13
4.63971e-13
7.01451e-13
4.3465e-13
5.7816e-13
5.0769e-13
2.85881e-13
2.91216e-13
3.4316e-13
3.58107e-13
1.80727e-13
5.6206e-13
1.95527e-13
3.31584e-13
3.84229e-13
2.4064e-13
3.06759e-13
4.19882e-13
2.13748e-13
3.39414e-13
4.5375e-13
1.31757e-13
5.80684e-13
2.37743e-13
2.42745e-13
5.42448e-13
1.41808e-13
5.55139e-13
1.61733e-13
5.31579e-13
1.60567e-13
4.19204e-13
3.78231e-13
1.31673e-13
7.40028e-13
1.38146e-13
3.16001e-13
5.77217e-13
1.03803e-13
6.35914e-13
2.31406e-13
2.5543e-13
4.32886e-13
2.72014e-13
2.70538e-13
3.89233e-13
1.31299e-13
2.00867e-13
2.08636e-13
1.75138e-13
1.46403e-13
2.86578e-13
1.13589e-13
2.34875e-13
1.90468e-13
1.6601e-13
1.75429e-13
2.63892e-13
1.15218e-13
2.26033e-13
2.52927e-13
8.1354e-14
3.81316e-13
1.17503e-13
1.59031e-13
3.24885e-13
8.16715e-14
3.2808e-13
1.03502e-13
2.96341e-13
9.43758e-14
2.77012e-13
1.82865e-13
9.48807e-14
4.14614e-13
7.20777e-14
2.1836e-13
2.99236e-13
5.91295e-14
3.91032e-13
1.22294e-13
1.53728e-13
2.72391e-13
1.42775e-13
1.60242e-13
2.64083e-13
7.02299e-14
1.32319e-13
1.10697e-13
1.0392e-13
9.38664e-14
1.51182e-13
7.40166e-14
1.33766e-13
1.09547e-13
1.00259e-13
9.79171e-14
1.63251e-13
5.82511e-14
1.48129e-13
1.3224e-13
4.72672e-14
2.34212e-13
5.9338e-14
9.56876e-14
1.87468e-13
4.18422e-14
1.95101e-13
6.06127e-14
1.55808e-13
5.9946e-14
1.54685e-13
9.69897e-14
6.28936e-14
2.17147e-13
4.30773e-14
1.29175e-13
1.64576e-13
3.52226e-14
2.23838e-13
6.97812e-14
8.91297e-14
1.62335e-13
7.8411e-14
9.71367e-14
1.54699e-13
3.79891e-14
7.57194e-14
5.8778e-14
5.93947e-14
5.16131e-14
8.23865e-14
4.1639e-14
7.21927e-14
6.08553e-14
5.38592e-14
5.46588e-14
8.75489e-14
3.01888e-14
8.62536e-14
6.50316e-14
2.70963e-14
1.27358e-13
2.97001e-14
5.42728e-14
9.98341e-14
2.0843e-14
1.11362e-13
3.02946e-14
8.56641e-14
3.37745e-14
7.93438e-14
5.61521e-14
3.32508e-14
1.18534e-13
2.45364e-14
6.84049e-14
9.5116e-14
1.79836e-14
1.27134e-13
3.87904e-14
4.75355e-14
9.45302e-14
4.10033e-14
5.52735e-14
8.62747e-14
1.85867e-14
3.85367e-14
2.96274e-14
2.99131e-14
2.56139e-14
4.16127e-14
2.05441e-14
3.59616e-14
3.05316e-14
2.63897e-14
2.6947e-14
4.39884e-14
1.4342e-14
4.302e-14
3.23929e-14
1.26086e-14
6.49247e-14
1.43509e-14
2.61006e-14
5.18e-14
9.36113e-15
5.75564e-14
1.43828e-14
4.41988e-14
1.62918e-14
3.98065e-14
3.00045e-14
1.49791e-14
6.47033e-14
1.15812e-14
3.41152e-14
5.19769e-14
7.66411e-15
6.89744e-14
1.92902e-14
2.29817e-14
5.12349e-14
1.94872e-14
2.83311e-14
4.46637e-14
7.52368e-15
1.6948e-14
1.32189e-14
1.26597e-14
1.09226e-14
1.84962e-14
8.60473e-15
1.54141e-14
1.35048e-14
1.10021e-14
1.14064e-14
1.99485e-14
5.51663e-15
1.89787e-14
1.47774e-14
4.40284e-15
3.14938e-14
5.64872e-15
1.06996e-14
2.50688e-14
3.22266e-15
2.7135e-14
5.8433e-15
1.99031e-14
6.77394e-15
1.76907e-14
1.40175e-14
5.45448e-15
3.25405e-14
4.33388e-15
1.49467e-14
2.54763e-14
2.46235e-15
3.36236e-14
8.21062e-15
9.17374e-15
2.49467e-14
7.7555e-15
1.23179e-14
2.06328e-14
2.19028e-15
5.88781e-15
4.63352e-15
4.03497e-15
3.60096e-15
6.55127e-15
2.69438e-15
5.13985e-15
4.80175e-15
3.42229e-15
3.76575e-15
7.37047e-15
1.48431e-15
6.75225e-15
5.52393e-15
9.47517e-16
1.33337e-14
1.45064e-15
3.4304e-15
1.0144e-14
6.60002e-16
1.07986e-14
1.66033e-15
7.27266e-15
2.06992e-15