/*--------------------------------*- C++ -*----------------------------------*\
  =========                 |
  \\      /  F ield         | OpenFOAM: The Open Source CFD Toolbox
   \\    /   O peration     | Website:  https://openfoam.org
    \\  /    A nd           | Version:  10
     \\/     M anipulation  |
\*---------------------------------------------------------------------------*/
FoamFile
{
    format      ascii;
    class       volScalarField;
    location    "3";
    object      nut;
}
// * * * * * * * * * * * * * * * * * * * * * * * * * * * * * * * * * * * * * //

dimensions      [0 2 -1 0 0 0 0];

internalField   nonuniform List<scalar> 
25600
(
6.38848e-06
6.38187e-06
6.38144e-06
6.3814e-06
6.37861e-06
6.38268e-06
6.38464e-06
6.38447e-06
6.38455e-06
6.38405e-06
6.38357e-06
6.38505e-06
6.3843e-06
6.38431e-06
6.38369e-06
6.38355e-06
6.38483e-06
6.38495e-06
6.38545e-06
6.38521e-06
6.38496e-06
6.38566e-06
6.38621e-06
6.3851e-06
6.38419e-06
6.38322e-06
6.38433e-06
6.38351e-06
6.38554e-06
6.38311e-06
6.3847e-06
6.38418e-06
6.38377e-06
6.38919e-06
6.38286e-06
6.38652e-06
6.39156e-06
6.37901e-06
6.39685e-06
6.37967e-06
4.57214e-06
4.57595e-06
4.57976e-06
4.57703e-06
4.57193e-06
4.57156e-06
4.57418e-06
4.57289e-06
4.57337e-06
4.57175e-06
4.56986e-06
4.57212e-06
4.57123e-06
4.57203e-06
4.57117e-06
4.57018e-06
4.57301e-06
4.57359e-06
4.57477e-06
4.57414e-06
4.57313e-06
4.57468e-06
4.57635e-06
4.57527e-06
4.57334e-06
4.57245e-06
4.5732e-06
4.57455e-06
4.57608e-06
4.57319e-06
4.57433e-06
4.57248e-06
4.57321e-06
4.57925e-06
4.56779e-06
4.57894e-06
4.57185e-06
4.57048e-06
4.58758e-06
4.56273e-06
3.78059e-06
3.78956e-06
3.79258e-06
3.78785e-06
3.78282e-06
3.78153e-06
3.78652e-06
3.78205e-06
3.7838e-06
3.78087e-06
3.78072e-06
3.78441e-06
3.78328e-06
3.78496e-06
3.78254e-06
3.78162e-06
3.78591e-06
3.78587e-06
3.78663e-06
3.7846e-06
3.78463e-06
3.78684e-06
3.78785e-06
3.78594e-06
3.78255e-06
3.78313e-06
3.78406e-06
3.78533e-06
3.78446e-06
3.78274e-06
3.78403e-06
3.7826e-06
3.78495e-06
3.78902e-06
3.77714e-06
3.79094e-06
3.78034e-06
3.78316e-06
3.79951e-06
3.77075e-06
3.32319e-06
3.33413e-06
3.33662e-06
3.32929e-06
3.32547e-06
3.32262e-06
3.33343e-06
3.32594e-06
3.32705e-06
3.32237e-06
3.32258e-06
3.32858e-06
3.32798e-06
3.32989e-06
3.32556e-06
3.3228e-06
3.3303e-06
3.33147e-06
3.332e-06
3.32792e-06
3.32751e-06
3.33113e-06
3.33412e-06
3.33035e-06
3.32433e-06
3.32648e-06
3.32813e-06
3.33134e-06
3.32723e-06
3.32596e-06
3.32742e-06
3.32517e-06
3.33214e-06
3.33184e-06
3.32166e-06
3.33134e-06
3.32598e-06
3.32776e-06
3.34137e-06
3.31524e-06
2.92108e-06
2.9361e-06
2.93933e-06
2.92691e-06
2.92453e-06
2.92002e-06
2.93911e-06
2.92811e-06
2.92666e-06
2.91952e-06
2.92002e-06
2.93029e-06
2.93119e-06
2.93304e-06
2.9258e-06
2.91945e-06
2.93147e-06
2.93499e-06
2.93501e-06
2.92759e-06
2.92643e-06
2.93221e-06
2.93916e-06
2.93148e-06
2.92142e-06
2.92578e-06
2.92891e-06
2.93564e-06
2.92632e-06
2.92584e-06
2.92658e-06
2.92354e-06
2.93782e-06
2.93091e-06
2.92198e-06
2.92803e-06
2.92826e-06
2.92964e-06
2.94001e-06
2.91497e-06
2.56638e-06
2.58641e-06
2.59168e-06
2.57039e-06
2.57024e-06
2.56413e-06
2.59479e-06
2.57999e-06
2.57315e-06
2.56307e-06
2.56407e-06
2.57934e-06
2.58341e-06
2.58431e-06
2.57242e-06
2.56176e-06
2.58066e-06
2.58826e-06
2.58584e-06
2.57394e-06
2.57236e-06
2.58163e-06
2.59525e-06
2.57957e-06
2.56363e-06
2.57158e-06
2.57733e-06
2.59039e-06
2.57237e-06
2.57353e-06
2.57258e-06
2.56813e-06
2.5946e-06
2.57704e-06
2.56835e-06
2.571e-06
2.57984e-06
2.58026e-06
2.58408e-06
2.56121e-06
2.25376e-06
2.28029e-06
2.29047e-06
2.25391e-06
2.25638e-06
2.24828e-06
2.29508e-06
2.27818e-06
2.26038e-06
2.24709e-06
2.2492e-06
2.27172e-06
2.2811e-06
2.27861e-06
2.26013e-06
2.24046e-06
2.27269e-06
2.28827e-06
2.27839e-06
2.26249e-06
2.25889e-06
2.27362e-06
2.29933e-06
2.26889e-06
2.2453e-06
2.25885e-06
2.26946e-06
2.29241e-06
2.2598e-06
2.26356e-06
2.26016e-06
2.25444e-06
2.30017e-06
2.26663e-06
2.25381e-06
2.25313e-06
2.27832e-06
2.27722e-06
2.2679e-06
2.24801e-06
1.97777e-06
2.01408e-06
2.03569e-06
1.97253e-06
1.97676e-06
1.96749e-06
2.03858e-06
2.02265e-06
1.98289e-06
1.96708e-06
1.97003e-06
2.00353e-06
2.02393e-06
2.01078e-06
1.98382e-06
1.94985e-06
2.00453e-06
2.03473e-06
2.01002e-06
1.98726e-06
1.97951e-06
2.00489e-06
2.05069e-06
1.99505e-06
1.96077e-06
1.98198e-06
2.0031e-06
2.04239e-06
1.98506e-06
1.99089e-06
1.98197e-06
1.98036e-06
2.05538e-06
1.99726e-06
1.97197e-06
1.96868e-06
2.02006e-06
2.01914e-06
1.98618e-06
1.97062e-06
1.73565e-06
1.7882e-06
1.83191e-06
1.72406e-06
1.72537e-06
1.71874e-06
1.82626e-06
1.81836e-06
1.73711e-06
1.71832e-06
1.72242e-06
1.77452e-06
1.81187e-06
1.77831e-06
1.7383e-06
1.68542e-06
1.7777e-06
1.8321e-06
1.78038e-06
1.74269e-06
1.72914e-06
1.77602e-06
1.85393e-06
1.75611e-06
1.70395e-06
1.73875e-06
1.78044e-06
1.84693e-06
1.74672e-06
1.74809e-06
1.73239e-06
1.74446e-06
1.86701e-06
1.77006e-06
1.71673e-06
1.71322e-06
1.80472e-06
1.81079e-06
1.73662e-06
1.72156e-06
1.52913e-06
1.60845e-06
1.69435e-06
1.51165e-06
1.49423e-06
1.50107e-06
1.66423e-06
1.67864e-06
1.52254e-06
1.49653e-06
1.5072e-06
1.5897e-06
1.65432e-06
1.58284e-06
1.51607e-06
1.44513e-06
1.6001e-06
1.6921e-06
1.59545e-06
1.52594e-06
1.50683e-06
1.59347e-06
1.72292e-06
1.55598e-06
1.46819e-06
1.52837e-06
1.60954e-06
1.72385e-06
1.54875e-06
1.52624e-06
1.50597e-06
1.55246e-06
1.75244e-06
1.59579e-06
1.48279e-06
1.48468e-06
1.63762e-06
1.66451e-06
1.52429e-06
1.49539e-06
1.37329e-06
1.48905e-06
1.65333e-06
1.3548e-06
1.27407e-06
1.32415e-06
1.57754e-06
1.63578e-06
1.35137e-06
1.29332e-06
1.33189e-06
1.46714e-06
1.57471e-06
1.43506e-06
1.31198e-06
1.23694e-06
1.49481e-06
1.64377e-06
1.47365e-06
1.33458e-06
1.32613e-06
1.47367e-06
1.68406e-06
1.41799e-06
1.24729e-06
1.35845e-06
1.51193e-06
1.70837e-06
1.40627e-06
1.31585e-06
1.30778e-06
1.4265e-06
1.74602e-06
1.50407e-06
1.26962e-06
1.29528e-06
1.53283e-06
1.61253e-06
1.37682e-06
1.28994e-06
1.33436e-06
1.45623e-06
1.76346e-06
1.31522e-06
1.05919e-06
1.23949e-06
1.61175e-06
1.75306e-06
1.27432e-06
1.10907e-06
1.24438e-06
1.45023e-06
1.60864e-06
1.38382e-06
1.12656e-06
1.12358e-06
1.50783e-06
1.74435e-06
1.46581e-06
1.17663e-06
1.24352e-06
1.44777e-06
1.78207e-06
1.40755e-06
1.04345e-06
1.28679e-06
1.52599e-06
1.85744e-06
1.36939e-06
1.10996e-06
1.19464e-06
1.40261e-06
1.90527e-06
1.56132e-06
1.09235e-06
1.20874e-06
1.52749e-06
1.71522e-06
1.37634e-06
1.11574e-06
1.57527e-06
1.55068e-06
2.09459e-06
1.51828e-06
8.82357e-07
1.395e-06
1.82527e-06
2.12802e-06
1.41382e-06
9.79236e-07
1.40417e-06
1.61422e-06
1.8203e-06
1.54522e-06
9.8868e-07
1.29263e-06
1.70483e-06
2.0817e-06
1.68142e-06
1.09507e-06
1.41108e-06
1.57442e-06
2.08785e-06
1.64977e-06
8.92491e-07
1.46362e-06
1.69933e-06
2.2462e-06
1.53904e-06
9.34913e-07
1.34065e-06
1.53274e-06
2.29792e-06
1.87598e-06
1.02375e-06
1.4017e-06
1.6871e-06
2.06536e-06
1.66331e-06
1.04242e-06
2.28039e-06
1.8551e-06
2.7357e-06
2.09775e-06
8.89252e-07
1.99418e-06
2.29573e-06
2.85761e-06
1.93298e-06
1.02726e-06
2.01775e-06
2.05126e-06
2.30575e-06
2.07988e-06
1.01983e-06
1.96812e-06
2.16238e-06
2.75131e-06
2.25172e-06
1.20355e-06
2.0519e-06
1.94388e-06
2.68712e-06
2.28296e-06
9.26863e-07
2.10293e-06
2.08903e-06
2.95983e-06
2.04868e-06
9.20876e-07
1.9861e-06
1.88757e-06
3.0069e-06
2.56655e-06
1.21577e-06
2.08972e-06
2.10783e-06
2.74815e-06
2.37323e-06
1.22493e-06
3.54922e-06
2.44786e-06
3.75051e-06
3.16418e-06
1.2861e-06
3.18005e-06
3.14175e-06
4.02271e-06
2.94962e-06
1.41888e-06
3.20947e-06
2.8659e-06
3.16043e-06
3.11989e-06
1.40695e-06
3.24452e-06
2.96456e-06
3.8339e-06
3.29053e-06
1.64592e-06
3.27202e-06
2.66589e-06
3.67286e-06
3.41981e-06
1.31921e-06
3.34266e-06
2.77929e-06
4.08455e-06
3.00744e-06
1.2725e-06
3.24948e-06
2.55663e-06
4.10086e-06
3.74991e-06
1.77409e-06
3.36983e-06
2.88874e-06
3.83393e-06
3.61556e-06
1.79432e-06
5.45484e-06
3.48874e-06
5.16981e-06
4.81205e-06
2.07147e-06
5.03517e-06
4.51567e-06
5.65452e-06
4.57276e-06
2.18561e-06
5.05395e-06
4.19523e-06
4.42072e-06
4.78276e-06
2.19543e-06
5.18721e-06
4.24916e-06
5.3601e-06
4.9091e-06
2.46107e-06
5.13604e-06
3.89077e-06
5.07186e-06
5.16565e-06
2.1027e-06
5.27006e-06
3.93659e-06
5.64832e-06
4.5216e-06
2.03152e-06
5.19854e-06
3.65736e-06
5.61532e-06
5.54136e-06
2.67135e-06
5.31413e-06
4.17253e-06
5.3495e-06
5.48993e-06
2.71883e-06
8.14816e-06
5.34348e-06
6.99178e-06
7.17173e-06
2.99067e-06
7.66189e-06
6.7125e-06
7.71305e-06
6.93489e-06
3.09682e-06
7.692e-06
6.34165e-06
6.09805e-06
7.18879e-06
3.16671e-06
7.90713e-06
6.26331e-06
7.32732e-06
7.21594e-06
3.3791e-06
7.74788e-06
5.89526e-06
6.89212e-06
7.67951e-06
3.12719e-06
8.01214e-06
5.96878e-06
7.60243e-06
6.70092e-06
2.9278e-06
7.97901e-06
5.47883e-06
7.51698e-06
8.09338e-06
3.61719e-06
8.0946e-06
6.32142e-06
7.28463e-06
8.14076e-06
3.61178e-06
1.21706e-05
8.99962e-06
9.01511e-06
1.03635e-05
3.24218e-06
1.1246e-05
1.03964e-05
9.85626e-06
1.0182e-05
2.95179e-06
1.15448e-05
9.99507e-06
8.05527e-06
1.04875e-05
3.63041e-06
1.17136e-05
9.63947e-06
9.39283e-06
1.03017e-05
3.17023e-06
1.16233e-05
9.34438e-06
8.86472e-06
1.1178e-05
3.80414e-06
1.19765e-05
9.83524e-06
9.51084e-06
9.70009e-06
3.18629e-06
1.19804e-05
8.76414e-06
9.56813e-06
1.15013e-05
3.65634e-06
1.21838e-05
1.02555e-05
9.36375e-06
1.16784e-05
3.07608e-06
1.81207e-05
1.51777e-05
1.08322e-05
1.41025e-05
7.87605e-06
1.61887e-05
1.61006e-05
1.13034e-05
1.40738e-05
6.62094e-06
1.72835e-05
1.55933e-05
9.9854e-06
1.45168e-05
8.64365e-06
1.70405e-05
1.48962e-05
1.06006e-05
1.38864e-05
6.9777e-06
1.77869e-05
1.4938e-05
1.08106e-05
1.54555e-05
6.61681e-06
1.74984e-05
1.63965e-05
1.05529e-05
1.3227e-05
7.46841e-06
1.73424e-05
1.42408e-05
1.12341e-05
1.53356e-05
6.78105e-06
1.75254e-05
1.63848e-05
1.11448e-05
1.5805e-05
8.26995e-06
2.26485e-05
2.0578e-05
9.40841e-06
1.65845e-05
2.41675e-05
2.16218e-05
2.13309e-05
8.55937e-06
1.69495e-05
2.38937e-05
2.24339e-05
2.02128e-05
9.38511e-06
1.7672e-05
2.49661e-05
2.19137e-05
1.98247e-05
7.5196e-06
1.62678e-05
2.36847e-05
2.39361e-05
2.03683e-05
1.0737e-05
1.85746e-05
2.1129e-05
2.25638e-05
2.24756e-05
7.64516e-06
1.55193e-05
2.37993e-05
2.17271e-05
1.97189e-05
8.99194e-06
1.76576e-05
2.2432e-05
2.11801e-05
2.14174e-05
1.02857e-05
1.84319e-05
2.61775e-05
1.87862e-05
2.1746e-05
9.14303e-06
1.55274e-05
4.02505e-05
2.09547e-05
2.21571e-05
8.62706e-06
1.67175e-05
4.10046e-05
1.99616e-05
2.02498e-05
9.3855e-06
1.76102e-05
4.091e-05
2.00104e-05
2.09746e-05
1.13173e-05
1.56895e-05
3.99009e-05
2.16426e-05
2.14437e-05
6.35619e-06
1.75672e-05
3.87893e-05
2.14523e-05
2.41848e-05
8.41376e-06
1.44751e-05
4.05506e-05
1.99645e-05
2.22394e-05
7.80013e-06
1.58394e-05
3.91762e-05
1.94988e-05
2.37425e-05
1.14788e-05
1.67616e-05
4.18339e-05
2.0691e-05
3.6932e-05
2.86117e-05
1.66615e-05
4.13943e-05
1.61586e-05
3.43585e-05
2.86663e-05
1.94808e-05
4.22114e-05
1.95378e-05
3.31596e-05
2.61175e-05
1.83113e-05
4.13076e-05
1.8366e-05
3.37053e-05
3.04758e-05
1.82925e-05
4.08087e-05
1.90663e-05
3.39938e-05
2.07574e-05
1.58444e-05
4.34701e-05
1.67617e-05
3.59426e-05
2.86502e-05
1.73294e-05
4.20767e-05
2.00519e-05
3.39953e-05
2.93783e-05
1.61369e-05
4.15601e-05
1.82828e-05
3.93939e-05
2.89393e-05
1.6752e-05
4.02535e-05
4.03312e-05
5.60879e-05
4.24295e-05
3.03595e-05
3.29833e-05
3.45582e-05
5.33871e-05
4.17701e-05
3.39808e-05
3.46308e-05
3.7806e-05
5.26001e-05
3.91598e-05
2.87122e-05
2.8927e-05
3.65063e-05
5.25654e-05
4.14153e-05
3.20777e-05
3.33281e-05
3.91399e-05
5.41135e-05
3.71694e-05
2.44837e-05
3.11273e-05
3.38316e-05
5.17845e-05
4.17477e-05
3.32997e-05
3.16529e-05
3.80778e-05
5.03168e-05
4.46954e-05
2.98037e-05
3.11821e-05
3.31739e-05
5.73476e-05
4.21126e-05
2.9351e-05
3.03942e-05
5.75336e-05
6.26946e-05
4.08577e-05
4.85151e-05
4.52841e-05
5.58456e-05
6.14475e-05
3.99047e-05
5.10217e-05
4.70424e-05
5.57431e-05
6.12982e-05
3.72056e-05
4.34354e-05
4.19381e-05
5.60901e-05
6.03445e-05
3.74382e-05
4.97782e-05
4.67573e-05
5.79825e-05
6.23899e-05
4.11223e-05
3.92121e-05
3.6612e-05
5.55395e-05
5.70362e-05
4.12776e-05
5.11369e-05
4.38039e-05
5.72763e-05
5.69202e-05
4.44441e-05
4.81787e-05
4.03575e-05
5.3464e-05
6.31676e-05
4.05458e-05
4.65358e-05
4.56257e-05
6.79873e-05
5.86019e-05
3.95728e-05
5.99118e-05
6.09383e-05
6.91071e-05
5.84883e-05
4.02085e-05
6.02656e-05
6.14535e-05
6.72296e-05
5.94807e-05
3.45923e-05
5.48526e-05
6.06638e-05
6.82037e-05
5.68147e-05
3.84925e-05
6.12705e-05
6.18711e-05
6.9067e-05
5.95553e-05
4.06678e-05
5.10485e-05
5.75237e-05
6.92806e-05
5.35572e-05
4.34672e-05
6.04714e-05
6.08319e-05
6.90887e-05
5.44324e-05
4.2697e-05
6.00775e-05
5.81171e-05
6.80684e-05
5.76868e-05
4.05227e-05
5.86371e-05
6.20176e-05
7.24466e-05
5.10601e-05
5.24123e-05
6.29798e-05
7.37053e-05
7.50526e-05
5.16379e-05
5.31324e-05
6.20443e-05
7.34075e-05
7.27252e-05
5.25725e-05
4.93722e-05
6.14331e-05
7.46113e-05
7.31262e-05
4.97624e-05
5.34903e-05
6.45972e-05
7.40925e-05
7.38574e-05
5.21409e-05
5.11409e-05
5.82121e-05
7.38867e-05
7.5067e-05
4.97866e-05
5.51936e-05
6.15902e-05
7.40429e-05
7.37966e-05
4.9832e-05
5.34503e-05
6.2726e-05
7.26471e-05
7.49189e-05
4.78659e-05
5.40538e-05
6.39771e-05
7.49937e-05
7.16147e-05
5.3213e-05
6.34672e-05
6.66396e-05
8.46804e-05
7.49667e-05
5.35645e-05
6.31968e-05
6.58801e-05
8.36974e-05
7.28972e-05
5.32489e-05
6.34607e-05
6.85676e-05
8.60021e-05
7.2362e-05
5.22809e-05
6.43008e-05
6.8347e-05
8.43218e-05
7.34183e-05
5.27219e-05
6.32527e-05
6.57602e-05
8.70315e-05
7.49042e-05
5.4876e-05
6.35763e-05
6.45802e-05
8.53991e-05
7.27785e-05
5.40921e-05
6.33595e-05
6.53435e-05
8.50753e-05
7.50659e-05
4.88956e-05
6.46842e-05
6.94114e-05
8.53368e-05
6.85742e-05
6.19274e-05
6.83051e-05
7.55011e-05
9.13624e-05
7.18877e-05
6.22536e-05
6.72451e-05
7.52714e-05
8.98622e-05
7.0371e-05
6.162e-05
7.0795e-05
7.86261e-05
9.30537e-05
6.92456e-05
6.11393e-05
6.86534e-05
7.7039e-05
9.02394e-05
7.05234e-05
6.12946e-05
7.01239e-05
7.60353e-05
9.51972e-05
7.22297e-05
6.36961e-05
6.66709e-05
7.36986e-05
9.24556e-05
6.91931e-05
6.35857e-05
6.71273e-05
7.4517e-05
9.29559e-05
7.16675e-05
5.82343e-05
6.89209e-05
7.86015e-05
9.11379e-05
6.65506e-05
6.90063e-05
7.08297e-05
8.53791e-05
9.36005e-05
6.9287e-05
6.98302e-05
6.93472e-05
8.53827e-05
9.17909e-05
6.82589e-05
6.91248e-05
7.47743e-05
8.84964e-05
9.56505e-05
6.7073e-05
6.85895e-05
7.08386e-05
8.66084e-05
9.18569e-05
6.83628e-05
6.90866e-05
7.3922e-05
8.60816e-05
9.83569e-05
7.01566e-05
7.06141e-05
6.84988e-05
8.39293e-05
9.49522e-05
6.64614e-05
7.11828e-05
6.85656e-05
8.54249e-05
9.60349e-05
6.84021e-05
6.63591e-05
7.09124e-05
8.80151e-05
9.26265e-05
6.58121e-05
7.32183e-05
7.30517e-05
9.23592e-05
9.28157e-05
6.79548e-05
7.45714e-05
7.15127e-05
9.24877e-05
9.0886e-05
6.71791e-05
7.36794e-05
7.74944e-05
9.52497e-05
9.50851e-05
6.6242e-05
7.31853e-05
7.29807e-05
9.33262e-05
9.06888e-05
6.74213e-05
7.39123e-05
7.63752e-05
9.29431e-05
9.79503e-05
6.91838e-05
7.47768e-05
7.06639e-05
9.12063e-05
9.42544e-05
6.51556e-05
7.56543e-05
7.01625e-05
9.32743e-05
9.56937e-05
6.64595e-05
7.1518e-05
7.28598e-05
9.43472e-05
9.13835e-05
6.49776e-05
7.48886e-05
7.433e-05
9.5525e-05
9.06062e-05
6.67264e-05
7.65589e-05
7.29496e-05
9.57694e-05
8.86927e-05
6.60122e-05
7.54495e-05
7.88467e-05
9.82122e-05
9.29222e-05
6.54417e-05
7.50894e-05
7.4377e-05
9.63378e-05
8.83268e-05
6.64128e-05
7.58888e-05
7.74253e-05
9.59288e-05
9.56962e-05
6.82426e-05
7.64592e-05
7.21133e-05
9.45966e-05
9.19917e-05
6.39705e-05
7.73508e-05
7.13416e-05
9.69765e-05
9.36134e-05
6.48988e-05
7.37851e-05
7.40645e-05
9.69362e-05
8.90005e-05
6.27742e-05
7.35395e-05
7.29319e-05
9.45911e-05
8.75166e-05
6.42568e-05
7.53566e-05
7.18113e-05
9.49295e-05
8.5742e-05
6.348e-05
7.39632e-05
7.74618e-05
9.71666e-05
8.9798e-05
6.33654e-05
7.38838e-05
7.32358e-05
9.53448e-05
8.52701e-05
6.39725e-05
7.45519e-05
7.58308e-05
9.48052e-05
9.2303e-05
6.61677e-05
7.532e-05
7.10157e-05
9.37257e-05
8.88029e-05
6.15512e-05
7.59522e-05
7.01394e-05
9.6187e-05
9.04744e-05
6.24546e-05
7.27249e-05
7.26565e-05
9.56146e-05
8.60118e-05
6.7463e-06
6.73533e-06
6.73351e-06
6.73587e-06
6.73487e-06
6.73893e-06
6.74005e-06
6.74004e-06
6.74223e-06
6.7429e-06
6.74239e-06
6.74297e-06
6.74242e-06
6.74359e-06
6.74332e-06
6.74247e-06
6.7421e-06
6.74193e-06
6.74325e-06
6.74371e-06
6.74381e-06
6.74347e-06
6.74351e-06
6.74385e-06
6.74461e-06
6.74333e-06
6.74313e-06
6.74057e-06
6.74197e-06
6.74106e-06
6.74339e-06
6.74272e-06
6.74039e-06
6.74591e-06
6.74131e-06
6.74357e-06
6.75055e-06
6.7319e-06
6.75522e-06
6.73868e-06
4.65351e-06
4.65793e-06
4.66017e-06
4.659e-06
4.65386e-06
4.65275e-06
4.65325e-06
4.65057e-06
4.65311e-06
4.65319e-06
4.65271e-06
4.65369e-06
4.65267e-06
4.65507e-06
4.65467e-06
4.65342e-06
4.65291e-06
4.6524e-06
4.65492e-06
4.65548e-06
4.65547e-06
4.6545e-06
4.65422e-06
4.65492e-06
4.65563e-06
4.65505e-06
4.65402e-06
4.65188e-06
4.6527e-06
4.65325e-06
4.6552e-06
4.65431e-06
4.65053e-06
4.65987e-06
4.64588e-06
4.66612e-06
4.64957e-06
4.64915e-06
4.67238e-06
4.6418e-06
4.03349e-06
4.03732e-06
4.03926e-06
4.0394e-06
4.03509e-06
4.0323e-06
4.03403e-06
4.02831e-06
4.03373e-06
4.03207e-06
4.03152e-06
4.03283e-06
4.03191e-06
4.03719e-06
4.03561e-06
4.0334e-06
4.03096e-06
4.03068e-06
4.03628e-06
4.03672e-06
4.03616e-06
4.03355e-06
4.03361e-06
4.03549e-06
4.0361e-06
4.03507e-06
4.03225e-06
4.0306e-06
4.03133e-06
4.03417e-06
4.03447e-06
4.03216e-06
4.02974e-06
4.03793e-06
4.02742e-06
4.04604e-06
4.02936e-06
4.02861e-06
4.05329e-06
4.02373e-06
3.5442e-06
3.54478e-06
3.54648e-06
3.54875e-06
3.54811e-06
3.54209e-06
3.54403e-06
3.53427e-06
3.54423e-06
3.54028e-06
3.53936e-06
3.54006e-06
3.53897e-06
3.54871e-06
3.54617e-06
3.54238e-06
3.53691e-06
3.53689e-06
3.54701e-06
3.54824e-06
3.54689e-06
3.54179e-06
3.54288e-06
3.54596e-06
3.54721e-06
3.54572e-06
3.5392e-06
3.53873e-06
3.53931e-06
3.5464e-06
3.54391e-06
3.53858e-06
3.53803e-06
3.54474e-06
3.54011e-06
3.55459e-06
3.53936e-06
3.53601e-06
3.56182e-06
3.5386e-06
3.11308e-06
3.10978e-06
3.11187e-06
3.11759e-06
3.12201e-06
3.11086e-06
3.11262e-06
3.09763e-06
3.11483e-06
3.10797e-06
3.10587e-06
3.10372e-06
3.10383e-06
3.11978e-06
3.1165e-06
3.10949e-06
3.09957e-06
3.10142e-06
3.11719e-06
3.12047e-06
3.11673e-06
3.1077e-06
3.11178e-06
3.11618e-06
3.11911e-06
3.1163e-06
3.10373e-06
3.10483e-06
3.10555e-06
3.12031e-06
3.11254e-06
3.10252e-06
3.10547e-06
3.11006e-06
3.1129e-06
3.12225e-06
3.10734e-06
3.10168e-06
3.12991e-06
3.11322e-06
2.73313e-06
2.72329e-06
2.72768e-06
2.73856e-06
2.7498e-06
2.73166e-06
2.73254e-06
2.71176e-06
2.73866e-06
2.72902e-06
2.72345e-06
2.71674e-06
2.7206e-06
2.74458e-06
2.7411e-06
2.72647e-06
2.70981e-06
2.71703e-06
2.74047e-06
2.74694e-06
2.73733e-06
2.72246e-06
2.73349e-06
2.73916e-06
2.74578e-06
2.73964e-06
2.71683e-06
2.7206e-06
2.72267e-06
2.7502e-06
2.73397e-06
2.71709e-06
2.72448e-06
2.72749e-06
2.74071e-06
2.74066e-06
2.72612e-06
2.7178e-06
2.75011e-06
2.74322e-06
2.39896e-06
2.37798e-06
2.38807e-06
2.40704e-06
2.42788e-06
2.4009e-06
2.3977e-06
2.37156e-06
2.41035e-06
2.39859e-06
2.38539e-06
2.37122e-06
2.38405e-06
2.41777e-06
2.41896e-06
2.38882e-06
2.36029e-06
2.37789e-06
2.41148e-06
2.42349e-06
2.40367e-06
2.38015e-06
2.40317e-06
2.40968e-06
2.42375e-06
2.40999e-06
2.37199e-06
2.3794e-06
2.3853e-06
2.43305e-06
2.40041e-06
2.37513e-06
2.38829e-06
2.39131e-06
2.42235e-06
2.40457e-06
2.38753e-06
2.37879e-06
2.41817e-06
2.42487e-06
2.10786e-06
2.06671e-06
2.08746e-06
2.11975e-06
2.15509e-06
2.11346e-06
2.10228e-06
2.07274e-06
2.12588e-06
2.11525e-06
2.08715e-06
2.0603e-06
2.08958e-06
2.13725e-06
2.14824e-06
2.09054e-06
2.04515e-06
2.07974e-06
2.12673e-06
2.15088e-06
2.11051e-06
2.07475e-06
2.11691e-06
2.12472e-06
2.15258e-06
2.12363e-06
2.06212e-06
2.07536e-06
2.0895e-06
2.16915e-06
2.10793e-06
2.07077e-06
2.09161e-06
2.09728e-06
2.15676e-06
2.11001e-06
2.0865e-06
2.07935e-06
2.13088e-06
2.15833e-06
1.86055e-06
1.78286e-06
1.82105e-06
1.87702e-06
1.93433e-06
1.86835e-06
1.84277e-06
1.81243e-06
1.88346e-06
1.88284e-06
1.82749e-06
1.77892e-06
1.83444e-06
1.90204e-06
1.93369e-06
1.8267e-06
1.75897e-06
1.81846e-06
1.88517e-06
1.9359e-06
1.85557e-06
1.79975e-06
1.87256e-06
1.88389e-06
1.93715e-06
1.88017e-06
1.78129e-06
1.80253e-06
1.83453e-06
1.9647e-06
1.85679e-06
1.79949e-06
1.82862e-06
1.84461e-06
1.9479e-06
1.85584e-06
1.81515e-06
1.81551e-06
1.89076e-06
1.95046e-06
1.66613e-06
1.52203e-06
1.59005e-06
1.68881e-06
1.77604e-06
1.66812e-06
1.61872e-06
1.59644e-06
1.68688e-06
1.71304e-06
1.61362e-06
1.52271e-06
1.61931e-06
1.71784e-06
1.7855e-06
1.60172e-06
1.49677e-06
1.5945e-06
1.69385e-06
1.78871e-06
1.63668e-06
1.54535e-06
1.67094e-06
1.69303e-06
1.78949e-06
1.68528e-06
1.52334e-06
1.5549e-06
1.62893e-06
1.83512e-06
1.65413e-06
1.55665e-06
1.59528e-06
1.63967e-06
1.80808e-06
1.64912e-06
1.57474e-06
1.59444e-06
1.70843e-06
1.81775e-06
1.55303e-06
1.28319e-06
1.4098e-06
1.58466e-06
1.70163e-06
1.5234e-06
1.43533e-06
1.45197e-06
1.55893e-06
1.63165e-06
1.46722e-06
1.28722e-06
1.45819e-06
1.60212e-06
1.72553e-06
1.43455e-06
1.25327e-06
1.42257e-06
1.57619e-06
1.72977e-06
1.47057e-06
1.3078e-06
1.52868e-06
1.57551e-06
1.73252e-06
1.55853e-06
1.28697e-06
1.34015e-06
1.5e-06
1.80568e-06
1.52474e-06
1.33476e-06
1.39874e-06
1.50772e-06
1.76373e-06
1.52373e-06
1.37639e-06
1.44535e-06
1.61686e-06
1.78653e-06
1.59091e-06
1.0818e-06
1.33708e-06
1.62933e-06
1.74324e-06
1.47032e-06
1.3183e-06
1.44847e-06
1.55491e-06
1.67607e-06
1.45859e-06
1.08775e-06
1.396e-06
1.60654e-06
1.78353e-06
1.37959e-06
1.0366e-06
1.36392e-06
1.59144e-06
1.79192e-06
1.41083e-06
1.09317e-06
1.49978e-06
1.58776e-06
1.79492e-06
1.5517e-06
1.08721e-06
1.22023e-06
1.51436e-06
1.90614e-06
1.52823e-06
1.13044e-06
1.28873e-06
1.51737e-06
1.85371e-06
1.5466e-06
1.25414e-06
1.44817e-06
1.68537e-06
1.88826e-06
1.8941e-06
9.70423e-07
1.49429e-06
1.93196e-06
1.9393e-06
1.59622e-06
1.33506e-06
1.70609e-06
1.77424e-06
1.88163e-06
1.70439e-06
9.97348e-07
1.53898e-06
1.82676e-06
2.00048e-06
1.5587e-06
9.16882e-07
1.55769e-06
1.84283e-06
2.01929e-06
1.58771e-06
9.52534e-07
1.69991e-06
1.83228e-06
2.00638e-06
1.77242e-06
1.00156e-06
1.36654e-06
1.78643e-06
2.17397e-06
1.78034e-06
9.71685e-07
1.40581e-06
1.78991e-06
2.12427e-06
1.83248e-06
1.29046e-06
1.73788e-06
2.0251e-06
2.15863e-06
2.58938e-06
1.0805e-06
2.02509e-06
2.60967e-06
2.33697e-06
2.04837e-06
1.60429e-06
2.34585e-06
2.34687e-06
2.27583e-06
2.34783e-06
1.17338e-06
2.02126e-06
2.39289e-06
2.41734e-06
2.13368e-06
1.06159e-06
2.15574e-06
2.45507e-06
2.46091e-06
2.14784e-06
1.03933e-06
2.26598e-06
2.42464e-06
2.39474e-06
2.35963e-06
1.20038e-06
1.96505e-06
2.43452e-06
2.64071e-06
2.41089e-06
9.85705e-07
1.92718e-06
2.46498e-06
2.61642e-06
2.50622e-06
1.61182e-06
2.42532e-06
2.7559e-06
2.62993e-06
3.78002e-06
1.57516e-06
3.00464e-06
3.76544e-06
2.9781e-06
2.99e-06
2.25504e-06
3.44291e-06
3.3878e-06
2.89568e-06
3.5066e-06
1.77694e-06
2.92625e-06
3.42809e-06
3.08702e-06
3.22536e-06
1.67293e-06
3.23021e-06
3.5395e-06
3.15496e-06
3.23921e-06
1.55314e-06
3.28225e-06
3.48119e-06
2.97963e-06
3.45812e-06
1.87143e-06
3.07441e-06
3.5533e-06
3.35375e-06
3.54252e-06
1.3777e-06
2.94164e-06
3.64153e-06
3.37143e-06
3.68341e-06
2.33441e-06
3.5705e-06
3.98182e-06
3.33757e-06
5.60967e-06
2.56752e-06
4.49194e-06
5.49848e-06
3.95405e-06
4.58233e-06
3.37137e-06
5.06355e-06
5.01535e-06
3.80377e-06
5.35354e-06
2.86016e-06
4.32091e-06
5.04071e-06
4.07169e-06
4.97654e-06
2.77568e-06
4.85537e-06
5.18486e-06
4.17318e-06
4.99579e-06
2.56508e-06
4.83115e-06
5.10165e-06
3.82554e-06
5.2223e-06
3.06084e-06
4.75684e-06
5.22626e-06
4.36037e-06
5.31229e-06
2.27076e-06
4.48767e-06
5.42726e-06
4.44209e-06
5.50463e-06
3.56412e-06
5.22692e-06
5.79923e-06
4.35265e-06
8.32993e-06
4.08615e-06
6.62782e-06
7.88553e-06
5.58567e-06
7.07365e-06
4.91716e-06
7.30183e-06
7.28908e-06
5.24914e-06
8.14579e-06
4.40373e-06
6.29909e-06
7.30631e-06
5.60061e-06
7.60878e-06
4.3638e-06
7.12826e-06
7.44943e-06
5.7625e-06
7.65773e-06
4.03669e-06
7.00393e-06
7.38197e-06
5.16962e-06
7.89242e-06
4.75231e-06
7.08148e-06
7.52378e-06
5.97279e-06
7.92559e-06
3.59662e-06
6.60338e-06
7.86803e-06
6.09703e-06
8.16027e-06
5.28747e-06
7.49813e-06
8.21725e-06
5.96507e-06
1.24033e-05
5.90178e-06
9.72901e-06
1.08112e-05
8.90795e-06
1.09439e-05
6.57413e-06
1.03646e-05
1.00412e-05
8.3149e-06
1.24211e-05
6.20029e-06
9.126e-06
1.01394e-05
8.44086e-06
1.15216e-05
6.20729e-06
1.03487e-05
1.01313e-05
8.92349e-06
1.16347e-05
5.76939e-06
1.00321e-05
1.02883e-05
7.82244e-06
1.18668e-05
6.7448e-06
1.0212e-05
1.03596e-05
9.1089e-06
1.16848e-05
5.1507e-06
9.27622e-06
1.08424e-05
9.05569e-06
1.20242e-05
7.01624e-06
1.0602e-05
1.10113e-05
9.12848e-06
1.79562e-05
8.04327e-06
1.45867e-05
1.36641e-05
1.48984e-05
1.66746e-05
8.76626e-06
1.46768e-05
1.25674e-05
1.42231e-05
1.83599e-05
8.8186e-06
1.35807e-05
1.30275e-05
1.39255e-05
1.70636e-05
8.53119e-06
1.5188e-05
1.25464e-05
1.49524e-05
1.71778e-05
8.16274e-06
1.43761e-05
1.33501e-05
1.30665e-05
1.75523e-05
9.84396e-06
1.43803e-05
1.31189e-05
1.47222e-05
1.69998e-05
7.66586e-06
1.27683e-05
1.36388e-05
1.39336e-05
1.76549e-05
8.95423e-06
1.52886e-05
1.33806e-05
1.50676e-05
2.25275e-05
1.58335e-05
2.24256e-05
1.37222e-05
2.19175e-05
2.18017e-05
1.76849e-05
2.12237e-05
1.15425e-05
2.1861e-05
2.29491e-05
1.69863e-05
2.13492e-05
1.33119e-05
2.20815e-05
2.23491e-05
1.63025e-05
2.28375e-05
1.20452e-05
2.31048e-05
2.20712e-05
1.6383e-05
2.12461e-05
1.42003e-05
2.04054e-05
2.31918e-05
1.91371e-05
2.06217e-05
1.29173e-05
2.12832e-05
2.23696e-05
1.61263e-05
1.95407e-05
1.38004e-05
2.03299e-05
2.27782e-05
1.88781e-05
2.35248e-05
1.21807e-05
2.35062e-05
2.11756e-05
2.89799e-05
3.22526e-05
8.77382e-06
2.86505e-05
2.02492e-05
3.11942e-05
3.00656e-05
9.77088e-06
3.14513e-05
2.06808e-05
2.9198e-05
3.15956e-05
8.03324e-06
3.0753e-05
2.22291e-05
2.8621e-05
3.21214e-05
8.7443e-06
3.17952e-05
2.18165e-05
2.90376e-05
3.0529e-05
9.60185e-06
2.83774e-05
2.32196e-05
3.09187e-05
2.92662e-05
9.09757e-06
2.84379e-05
2.1882e-05
2.79435e-05
3.07547e-05
1.09795e-05
2.91799e-05
2.02007e-05
3.37019e-05
3.45207e-05
9.26754e-06
3.28486e-05
1.62637e-05
3.77649e-05
3.9403e-05
1.74878e-05
3.54382e-05
1.69519e-05
3.96004e-05
3.72945e-05
2.19249e-05
3.92676e-05
1.64591e-05
3.77663e-05
3.87476e-05
1.64221e-05
3.67108e-05
1.73051e-05
3.70355e-05
3.83723e-05
1.94474e-05
3.77714e-05
1.80655e-05
3.74323e-05
3.81204e-05
1.35047e-05
3.58312e-05
1.78202e-05
3.73339e-05
3.70117e-05
1.85415e-05
3.70582e-05
1.58339e-05
3.52166e-05
4.02176e-05
1.77867e-05
3.814e-05
1.65996e-05
4.13078e-05
4.15666e-05
2.19648e-05
3.81453e-05
1.89988e-05
4.04514e-05
4.1068e-05
3.04382e-05
3.36314e-05
2.06286e-05
4.18118e-05
3.95884e-05
3.1018e-05
3.51023e-05
2.0704e-05
4.06277e-05
3.95954e-05
2.96337e-05
3.37569e-05
1.84154e-05
4.00404e-05
3.8661e-05
3.10925e-05
3.37724e-05
1.95261e-05
4.01236e-05
4.05126e-05
2.6616e-05
3.55793e-05
1.93431e-05
3.85033e-05
4.06937e-05
2.97231e-05
3.69625e-05
1.86927e-05
3.72517e-05
4.37058e-05
2.96141e-05
3.65922e-05
2.27654e-05
4.21895e-05
4.0883e-05
3.31786e-05
3.23014e-05
2.01954e-05
4.23249e-05
3.52608e-05
3.07048e-05
3.03989e-05
2.10237e-05
4.34151e-05
3.48778e-05
2.85149e-05
3.04871e-05
2.03695e-05
4.11654e-05
3.30016e-05
2.96427e-05
2.95752e-05
2.08276e-05
4.25663e-05
3.25474e-05
2.98147e-05
3.22371e-05
2.20167e-05
4.11914e-05
3.4564e-05
3.03793e-05
3.24714e-05
2.15014e-05
3.77894e-05
3.67857e-05
3.00181e-05
3.29654e-05
1.92593e-05
3.79215e-05
3.92495e-05
3.38588e-05
2.89263e-05
2.04239e-05
4.27336e-05
3.2765e-05
3.00942e-05
3.27244e-05
3.54824e-05
5.14137e-05
3.4894e-05
3.73962e-05
5.37486e-05
3.81821e-05
5.19685e-05
3.54733e-05
3.59349e-05
5.47023e-05
3.46441e-05
4.99206e-05
3.18956e-05
3.16198e-05
5.33866e-05
3.73547e-05
5.11172e-05
3.52484e-05
3.62807e-05
5.5521e-05
3.43539e-05
4.92456e-05
3.21754e-05
3.4034e-05
5.39544e-05
3.60838e-05
4.75052e-05
3.61668e-05
3.76894e-05
5.42022e-05
3.31871e-05
4.73658e-05
3.59108e-05
3.87528e-05
5.25432e-05
3.92403e-05
4.9846e-05
3.60629e-05
3.80888e-05
5.79969e-05
5.92283e-05
6.31665e-05
5.38759e-05
6.38994e-05
7.54309e-05
6.09278e-05
6.15824e-05
5.3595e-05
6.15845e-05
7.71924e-05
5.86903e-05
6.28799e-05
5.19487e-05
5.95428e-05
7.7283e-05
5.94971e-05
6.07521e-05
5.35898e-05
6.25406e-05
7.59814e-05
5.59913e-05
6.13807e-05
5.0837e-05
5.98941e-05
7.70416e-05
5.81688e-05
6.15889e-05
5.37085e-05
6.33953e-05
7.65197e-05
5.76085e-05
6.09183e-05
5.23093e-05
6.11871e-05
7.78933e-05
6.3467e-05
6.02358e-05
5.58705e-05
6.45931e-05
7.78338e-05
7.44661e-05
7.07039e-05
6.96462e-05
8.46462e-05
8.58994e-05
7.48031e-05
6.74642e-05
6.94107e-05
8.2488e-05
8.82902e-05
7.41643e-05
7.14392e-05
6.95873e-05
8.24589e-05
8.91144e-05
7.31412e-05
6.72342e-05
6.89364e-05
8.35725e-05
8.59041e-05
7.20233e-05
6.9313e-05
6.6881e-05
8.28805e-05
8.8381e-05
7.24492e-05
7.03085e-05
6.8358e-05
8.41829e-05
8.75293e-05
7.34276e-05
6.98276e-05
6.7865e-05
8.24525e-05
9.06694e-05
7.64871e-05
6.77311e-05
7.04727e-05
8.46824e-05
8.68473e-05
8.24627e-05
7.44882e-05
7.7786e-05
9.86861e-05
8.86047e-05
8.19864e-05
7.09921e-05
7.86167e-05
9.75828e-05
9.12073e-05
8.24684e-05
7.58972e-05
7.94001e-05
9.78445e-05
9.22107e-05
7.98676e-05
7.13539e-05
7.80168e-05
9.79777e-05
8.83382e-05
8.11887e-05
7.31761e-05
7.61899e-05
9.84689e-05
9.08339e-05
8.01503e-05
7.46125e-05
7.58774e-05
9.88669e-05
9.02187e-05
8.18725e-05
7.46978e-05
7.56527e-05
9.8322e-05
9.45624e-05
8.25495e-05
7.18811e-05
7.81319e-05
9.82521e-05
8.84583e-05
8.58125e-05
7.52028e-05
8.26112e-05
0.000106632
8.68022e-05
8.49796e-05
7.20008e-05
8.47533e-05
0.000106632
8.9347e-05
8.61613e-05
7.7017e-05
8.51926e-05
0.000106524
9.0249e-05
8.23289e-05
7.2929e-05
8.38472e-05
0.0001061
8.64946e-05
8.55713e-05
7.39307e-05
8.23998e-05
0.000107174
8.82875e-05
8.36855e-05
7.55635e-05
8.06271e-05
0.000107525
8.80681e-05
8.56398e-05
7.63146e-05
8.00966e-05
0.00010836
9.30078e-05
8.46467e-05
7.28137e-05
8.30156e-05
0.000105765
8.60149e-05
8.62781e-05
7.35343e-05
8.60673e-05
0.00010956
8.32253e-05
8.53768e-05
7.07247e-05
8.90989e-05
0.000110393
8.56394e-05
8.69219e-05
7.56115e-05
8.89342e-05
0.00010981
8.62307e-05
8.23186e-05
7.22485e-05
8.78156e-05
0.000109028
8.30449e-05
8.6754e-05
7.2414e-05
8.67008e-05
0.000110353
8.39066e-05