/*--------------------------------*- C++ -*----------------------------------*\
  =========                 |
  \\      /  F ield         | OpenFOAM: The Open Source CFD Toolbox
   \\    /   O peration     | Website:  https://openfoam.org
    \\  /    A nd           | Version:  10
     \\/     M anipulation  |
\*---------------------------------------------------------------------------*/
FoamFile
{
    format      ascii;
    class       volVectorField;
    location    "3";
    object      U;
}
// * * * * * * * * * * * * * * * * * * * * * * * * * * * * * * * * * * * * * //

dimensions      [0 1 -1 0 0 0 0];

internalField   nonuniform List<vector> 
25600
(
(1.0189 0.000194398 7.1321e-05)
(1.01878 0.000165277 7.07467e-05)
(1.01873 9.98844e-05 -1.30373e-05)
(1.01874 -6.4486e-06 4.57999e-05)
(1.01879 -1.48108e-05 9.12497e-05)
(1.01889 4.25416e-06 1.43426e-05)
(1.01883 -6.64895e-05 1.82664e-05)
(1.01882 -9.03698e-05 5.28518e-05)
(1.01894 -0.000128507 -9.84136e-08)
(1.01885 -0.000213177 -1.32946e-05)
(1.01885 -0.000157813 -1.52729e-06)
(1.01905 -9.73118e-05 -1.12133e-05)
(1.0189 -0.000196023 -2.35757e-05)
(1.01872 -0.000153841 -3.28379e-05)
(1.0189 -7.84335e-05 -1.00334e-05)
(1.01895 -0.000134389 -4.2928e-06)
(1.01879 -4.67883e-05 -1.27864e-05)
(1.01875 -4.24122e-05 1.36067e-05)
(1.01885 -0.000114707 1.44004e-05)
(1.01887 -2.66545e-05 6.80667e-06)
(1.01885 -2.14638e-05 2.15645e-05)
(1.01893 4.32215e-05 2.57162e-05)
(1.01888 0.000119984 3.59589e-05)
(1.01873 -2.36833e-05 2.75037e-05)
(1.01883 5.887e-06 1.23216e-05)
(1.01894 9.95642e-05 3.34944e-05)
(1.01887 -3.23738e-05 2.57365e-05)
(1.01886 9.1637e-06 -1.76712e-07)
(1.01887 8.24352e-05 1.60687e-05)
(1.01894 -7.3705e-05 2.80279e-05)
(1.01902 3.57389e-05 7.13464e-06)
(1.01889 0.000167344 -3.03921e-06)
(1.01887 -1.55814e-05 -1.94738e-06)
(1.01896 0.000134424 1.27908e-07)
(1.0188 0.000256225 -6.59151e-06)
(1.0188 -5.04739e-06 -3.87499e-05)
(1.01899 0.00014512 -2.32323e-05)
(1.01885 0.000329023 3.95715e-05)
(1.01868 0.000120501 -5.78871e-06)
(1.01882 0.000100723 -3.37023e-05)
(1.01893 0.000227448 0.000133068)
(1.01873 0.000183433 6.50792e-05)
(1.01864 0.000126302 -1.39799e-05)
(1.01867 -5.81252e-05 9.81817e-05)
(1.0188 -0.000107515 0.000104565)
(1.01889 -1.10456e-06 1.25201e-05)
(1.01878 -6.11333e-05 6.14623e-05)
(1.01879 -0.000125986 7.71192e-05)
(1.01889 -0.000111139 -6.3786e-08)
(1.01881 -0.00027873 1.38706e-05)
(1.01894 -0.000217117 2.28104e-05)
(1.01907 3.46977e-05 -8.63353e-06)
(1.01883 -0.000155685 -3.85328e-05)
(1.01877 -0.000207333 -4.79622e-05)
(1.01894 -3.39244e-05 -2.20215e-05)
(1.01895 -8.51055e-05 -3.93528e-05)
(1.01881 -8.84799e-06 -2.68721e-05)
(1.01871 -6.26838e-05 3.39043e-06)
(1.01885 -0.000148514 -2.51717e-05)
(1.01891 -5.72997e-05 4.41203e-06)
(1.0189 -7.19434e-05 2.52195e-05)
(1.01902 0.00014068 3.93441e-06)
(1.01882 0.00020301 4.67877e-05)
(1.01865 -0.000102402 4.16691e-05)
(1.0189 9.07906e-06 1.42472e-05)
(1.01892 0.000114766 4.05723e-05)
(1.01883 -8.25221e-05 2.3909e-05)
(1.01892 6.11199e-05 -3.15854e-06)
(1.01882 4.68887e-05 1.87001e-05)
(1.01893 -0.000176162 2.95688e-05)
(1.01915 0.000131187 5.48302e-06)
(1.01885 0.000183053 -5.3545e-06)
(1.01887 -2.39255e-05 -4.24103e-06)
(1.01908 0.000278971 1.47924e-06)
(1.01871 0.000171304 -1.54802e-05)
(1.01879 -5.95195e-05 -6.68932e-05)
(1.01916 0.000337504 -1.57593e-05)
(1.01879 0.000336122 6.16579e-05)
(1.01857 4.09453e-05 -4.31681e-05)
(1.01888 0.000141825 -2.30895e-05)
(1.01894 0.000225645 0.000218398)
(1.01869 0.00026025 2.18317e-05)
(1.01852 0.000159958 4.90365e-06)
(1.01854 -0.000174972 0.000183119)
(1.01884 -0.000212576 9.78956e-05)
(1.01893 -4.65136e-07 2.00176e-05)
(1.01873 -6.11558e-05 0.000137883)
(1.01877 -0.00012244 8.627e-05)
(1.01881 -0.000110926 -9.69133e-06)
(1.01876 -0.000418131 6.01431e-05)
(1.01912 -0.000215521 4.5774e-05)
(1.0191 0.000192806 -1.47222e-05)
(1.01869 -0.000169404 -5.86828e-05)
(1.01883 -0.000199914 -5.41131e-05)
(1.019 -1.06873e-05 -3.4855e-05)
(1.01897 -5.35023e-05 -8.19341e-05)
(1.01881 0.000112764 -2.52356e-05)
(1.01863 -0.000117216 -1.64205e-05)
(1.01885 -0.000205783 -6.69262e-05)
(1.01894 -0.000127413 2.36569e-05)
(1.01902 -0.000156869 8.82281e-06)
(1.01916 0.000339299 -1.39056e-05)
(1.01867 0.000257909 8.47354e-05)
(1.01856 -0.000215467 3.33792e-05)
(1.01901 8.4045e-05 1.73079e-05)
(1.01886 6.03284e-05 6.08447e-05)
(1.01882 -0.000141985 8.39248e-06)
(1.01897 0.000215262 5.01046e-08)
(1.01867 -7.22018e-05 2.81875e-05)
(1.01901 -0.000312688 2.47585e-05)
(1.01932 0.000307968 6.60151e-06)
(1.01876 0.000137808 -1.33083e-06)
(1.01895 2.27902e-05 -3.87282e-06)
(1.01913 0.000481585 -2.72541e-07)
(1.01851 -5.40351e-05 -4.44575e-05)
(1.01894 -4.25763e-05 -0.000104667)
(1.01934 0.000614865 1.23613e-05)
(1.0186 0.000241132 6.88614e-05)
(1.0185 -9.07148e-06 -0.00010804)
(1.01898 0.000211538 3.25356e-05)
(1.01897 0.000215555 0.000285327)
(1.01868 0.000461983 -4.41444e-05)
(1.01831 0.000177605 7.78467e-05)
(1.01838 -0.000365396 0.000273287)
(1.01894 -0.000341601 7.17472e-05)
(1.019 -9.28682e-06 6.27381e-05)
(1.01869 -4.98684e-05 0.000228186)
(1.01875 -3.35806e-05 6.7574e-05)
(1.01866 -0.000158238 3.24571e-06)
(1.01873 -0.000660681 0.000134755)
(1.01942 -0.000116962 6.58117e-05)
(1.01911 0.000372805 -2.97083e-05)
(1.01852 -0.000207917 -8.1498e-05)
(1.01889 -0.000115847 -4.76938e-05)
(1.01906 -6.94861e-05 -6.3142e-05)
(1.01905 2.66239e-06 -0.000124901)
(1.01876 0.000315765 -6.5592e-06)
(1.01846 -0.000234008 -6.18193e-05)
(1.01884 -0.000274746 -0.000100434)
(1.01895 -0.000323329 6.15605e-05)
(1.01926 -0.000228585 -4.73413e-05)
(1.01934 0.000686824 -2.46313e-07)
(1.01839 0.000232062 0.000139107)
(1.01851 -0.000294646 5.23925e-06)
(1.01912 0.000195534 5.09945e-05)
(1.01875 -0.000131981 7.96287e-05)
(1.01894 -0.000101559 -2.43283e-05)
(1.01897 0.00046114 2.11862e-05)
(1.01841 -0.000355222 2.26285e-05)
(1.01922 -0.00040511 9.2185e-06)
(1.0195 0.00052745 2.31949e-05)
(1.01863 1.05431e-05 1.00703e-05)
(1.01914 0.000254677 -1.51267e-06)
(1.01903 0.000626157 -1.61741e-05)
(1.01829 -0.000444365 -9.53374e-05)
(1.01931 0.00018295 -0.000132253)
(1.01939 0.000848644 6.6098e-05)
(1.0183 8.18463e-05 2.99044e-05)
(1.01854 8.4464e-05 -0.000190435)
(1.01906 0.000203432 0.000148579)
(1.01912 0.000307052 0.000316455)
(1.01867 0.000781544 -8.9292e-05)
(1.01794 0.000161003 0.000212901)
(1.01817 -0.00062627 0.000343115)
(1.01909 -0.000539307 5.20296e-05)
(1.01913 -3.97485e-05 0.000166953)
(1.01871 2.97856e-05 0.000305865)
(1.0187 0.000176883 2.57168e-05)
(1.01836 -0.000310543 5.35582e-05)
(1.01878 -0.00102032 0.000228049)
(1.01985 8.71286e-05 8.37538e-05)
(1.01904 0.000557478 -6.06888e-05)
(1.01834 -0.000174825 -0.000103209)
(1.01893 1.55853e-05 -2.4349e-05)
(1.01909 -0.000277447 -0.000129135)
(1.01924 0.000174382 -0.000151286)
(1.01864 0.000578292 1.98114e-05)
(1.01821 -0.000392395 -0.000150491)
(1.01879 -0.000357066 -9.26618e-05)
(1.01897 -0.000756982 9.68294e-05)
(1.01973 -0.000198007 -0.000134928)
(1.01949 0.00116041 7.56145e-05)
(1.01797 0.000111984 0.000173398)
(1.01853 -0.000250197 -4.72158e-05)
(1.01913 0.000212458 0.00012201)
(1.01865 -0.00045929 7.20664e-05)
(1.01924 0.000170713 -5.4556e-05)
(1.0188 0.000710742 5.65467e-05)
(1.01805 -0.000809821 -2.75297e-05)
(1.01963 -0.000395717 -4.53357e-07)
(1.01962 0.000683022 6.99234e-05)
(1.01856 -0.00011728 3.31104e-05)
(1.01939 0.000741531 6.47231e-06)
(1.01864 0.000515239 -5.38535e-05)
(1.01819 -0.00088439 -0.000155847)
(1.01986 0.0006461 -0.000137933)
(1.01927 0.00087882 0.000114066)
(1.01804 6.30789e-05 -6.36093e-05)
(1.01859 0.00029193 -0.000245395)
(1.01908 -4.46277e-05 0.00032706)
(1.01949 0.000643707 0.000314091)
(1.01859 0.00112845 -7.59745e-05)
(1.01739 0.000165052 0.000377201)
(1.01792 -0.000982885 0.000369363)
(1.01931 -0.000912716 8.46443e-05)
(1.01937 -9.60506e-05 0.00032501)
(1.01882 0.00027252 0.000330511)
(1.01854 0.000514595 -3.53134e-05)
(1.01788 -0.000647014 0.000144926)
(1.01898 -0.00148416 0.000334527)
(1.02043 0.000371783 0.000109602)
(1.01893 0.000760483 -0.000118745)
(1.01816 5.86049e-05 -0.00011672)
(1.01883 6.2137e-05 2.81555e-06)
(1.01916 -0.000676935 -0.00023278)
(1.0196 0.000551449 -0.000141671)
(1.0184 0.000831202 4.11183e-05)
(1.01785 -0.000514656 -0.000277542)
(1.01861 -0.000548838 -3.33177e-05)
(1.01905 -0.00151272 8.04547e-05)
(1.0205 2.82858e-05 -0.000225188)
(1.01955 0.00167433 0.000227605)
(1.01747 2.3217e-06 0.000150739)
(1.01857 -4.78127e-05 -8.99793e-05)
(1.01899 -5.78084e-05 0.000229124)
(1.01871 -0.000818581 1.19725e-05)
(1.0197 0.0007316 -4.24306e-05)
(1.01835 0.000828522 7.92056e-05)
(1.01768 -0.00135533 -0.000151003)
(1.02019 -0.00029843 2.83154e-05)
(1.01968 0.000658765 0.000153563)
(1.01865 -5.51468e-05 7.14518e-05)
(1.01955 0.00146318 1.82755e-05)
(1.01798 3.09497e-05 -0.000126349)
(1.01836 -0.00115696 -0.000221318)
(1.02045 0.00117315 -0.000123555)
(1.01902 0.000678825 0.000134026)
(1.01791 0.000466438 -0.000194528)
(1.01847 0.000370499 -0.000257931)
(1.01907 -0.000523754 0.000537767)
(1.02008 0.00117644 0.00032325)
(1.01838 0.00147655 4.3353e-06)
(1.01668 0.000343387 0.000561561)
(1.01753 -0.0015202 0.000391544)
(1.01961 -0.00153301 0.000237284)
(1.01982 -0.000143825 0.000490802)
(1.01905 0.000770676 0.000283756)
(1.01816 0.00100295 -7.31197e-05)
(1.01718 -0.00123291 0.000264075)
(1.01937 -0.0020387 0.000464958)
(1.02117 0.000672314 0.000145381)
(1.01885 0.00106344 -0.000221871)
(1.01792 0.000584747 -0.000114833)
(1.0185 -0.000136174 -1.16739e-06)
(1.01937 -0.00124725 -0.000377362)
(1.02012 0.00116771 -6.35972e-05)
(1.01801 0.00106423 8.16158e-06)
(1.01739 -0.000474871 -0.000417028)
(1.0182 -0.00102959 6.89461e-05)
(1.0193 -0.00257093 -1.97326e-05)
(1.0216 0.000506261 -0.000246729)
(1.01948 0.002156 0.000425355)
(1.01694 9.80267e-05 7.58284e-05)
(1.01849 0.000166841 -5.11638e-05)
(1.01868 -0.000706343 0.000324368)
(1.01909 -0.00100241 -9.20555e-05)
(1.02021 0.00151817 3.549e-05)
(1.01757 0.000803815 1.12555e-05)
(1.01738 -0.00189132 -0.000346155)
(1.02081 -0.000225726 0.000112058)
(1.01976 0.000451497 0.000250126)
(1.01901 0.000350855 0.000156083)
(1.01945 0.0022452 3.4608e-05)
(1.0171 -0.000795897 -0.000244812)
(1.01884 -0.00112969 -0.000258026)
(1.02094 0.00145351 -0.000119082)
(1.01884 0.000502038 0.000133455)
(1.01785 0.00141101 -0.00034358)
(1.01801 3.89211e-05 -0.00023267)
(1.01923 -0.00104027 0.000778877)
(1.02083 0.00164253 0.000361276)
(1.01813 0.00196965 0.00012013)
(1.01577 0.000772963 0.000701442)
(1.0169 -0.00242111 0.000458208)
(1.02003 -0.00241872 0.000516017)
(1.02058 -0.000141349 0.00061539)
(1.01942 0.00161259 0.000149241)
(1.01746 0.00163177 -0.00012244)
(1.01624 -0.00209136 0.000382262)
(1.01998 -0.00271969 0.000632071)
(1.02208 0.000908865 0.000168055)
(1.01887 0.00160168 -0.000404358)
(1.01751 0.00139616 -0.000107446)
(1.01784 -0.000706215 -7.67706e-05)
(1.01984 -0.00188058 -0.000547949)
(1.02083 0.00194584 3.96791e-05)
(1.01751 0.00135025 -0.000118824)
(1.01672 -0.000189243 -0.000541914)
(1.01748 -0.00199058 0.000172855)
(1.01985 -0.00381911 -0.000178145)
(1.02301 0.00114985 -0.00014285)
(1.01931 0.00260476 0.000610593)
(1.01638 0.000575089 -1.43996e-05)
(1.01813 0.000156677 5.74915e-05)
(1.01834 -0.001628 0.000379181)
(1.01988 -0.000921908 -0.000175953)
(1.02066 0.00238315 0.00014307)
(1.01651 0.000821838 -0.000228892)
(1.01712 -0.00235571 -0.000571128)
(1.02143 -0.000325717 0.000267167)
(1.01997 0.000167461 0.000360864)
(1.0196 0.00117583 0.000331864)
(1.01895 0.00290512 4.53053e-05)
(1.01615 -0.00178294 -0.000409485)
(1.01954 -0.000919111 -0.000268002)
(1.02132 0.00123068 -0.000143827)
(1.01897 0.000761542 0.000132272)
(1.01766 0.00269702 -0.000507684)
(1.01716 -0.000801472 -0.000199806)
(1.01966 -0.00136042 0.00105427)
(1.02168 0.00182957 0.000439573)
(1.01793 0.0028377 0.000286474)
(1.01452 0.00137995 0.000784984)
(1.01596 -0.00373648 0.000675015)
(1.02068 -0.00357059 0.000918985)
(1.02174 -8.87215e-05 0.000615355)
(1.01988 0.00286962 -9.59347e-05)
(1.01633 0.0023869 -0.000231494)
(1.01504 -0.00316916 0.000482433)
(1.0208 -0.00362297 0.000908499)
(1.02324 0.00102159 0.000146547)
(1.01905 0.00252077 -0.000706679)
(1.01678 0.0024603 -0.000122543)
(1.01688 -0.00167316 -0.000251608)
(1.02063 -0.00248439 -0.000742231)
(1.02168 0.0027416 0.000129861)
(1.01694 0.00183158 -0.000356131)
(1.01574 0.000287765 -0.000671973)
(1.01641 -0.0035425 0.000200711)
(1.02079 -0.00511076 -0.000293326)
(1.02469 0.00176582 9.98653e-05)
(1.01916 0.00311735 0.000711902)
(1.01572 0.00141521 -7.11354e-05)
(1.0174 -0.00023048 0.000168063)
(1.01811 -0.00263557 0.000354273)
(1.02101 -0.000708266 -0.00020445)
(1.02104 0.00329412 0.000224727)
(1.01523 0.000959933 -0.000656872)
(1.01679 -0.00283475 -0.000818881)
(1.02202 -0.000643935 0.000410092)
(1.02045 -6.87035e-05 0.000495846)
(1.02032 0.0023233 0.00061798)
(1.01801 0.00342096 8.78441e-07)
(1.01521 -0.00266249 -0.000629116)
(1.02028 -0.000755517 -0.000268922)
(1.02174 0.000549622 -0.000218997)
(1.01952 0.00172383 0.000146421)
(1.0171 0.00402627 -0.000741026)
(1.01602 -0.00193063 -0.000160266)
(1.02038 -0.00149574 0.00141782)
(1.02271 0.00169189 0.000541471)
(1.01787 0.00432275 0.000447302)
(1.01282 0.00205184 0.000818318)
(1.01466 -0.00542906 0.00103036)
(1.02158 -0.00502633 0.00143857)
(1.02335 1.08195e-05 0.00043126)
(1.02045 0.00452719 -0.000552038)
(1.01473 0.00324253 -0.000459424)
(1.01352 -0.00444024 0.000603473)
(1.02176 -0.00486445 0.00126932)
(1.02473 0.0010208 1.67941e-05)
(1.01945 0.00392597 -0.00116771)
(1.01562 0.00373593 -0.000186358)
(1.0156 -0.0029651 -0.000536299)
(1.02175 -0.00313542 -0.000950811)
(1.02271 0.00345338 0.000107437)
(1.01636 0.00269056 -0.000709426)
(1.01429 0.000873242 -0.000787003)
(1.01503 -0.00566801 0.000129098)
(1.02212 -0.00646026 -0.000344393)
(1.02659 0.00214958 0.000466372)
(1.01908 0.0039034 0.000782464)
(1.01484 0.00244442 -5.01782e-05)
(1.01628 -0.00095855 0.000309368)
(1.01806 -0.00363026 0.00031339)
(1.02244 -0.000570116 -0.000135602)
(1.02135 0.00437498 0.000197527)
(1.01374 0.00125796 -0.00129577)
(1.01636 -0.00343867 -0.0011069)
(1.0226 -0.00116412 0.000509425)
(1.02122 -0.000176766 0.000692083)
(1.02109 0.0036853 0.00107695)
(1.01671 0.00393792 -9.23686e-05)
(1.01425 -0.00328289 -0.000858031)
(1.02092 -0.000895357 -0.000311924)
(1.02237 -0.000318823 -0.000301921)
(1.02045 0.00336268 0.00019814)
(1.01604 0.0052263 -0.00104432)
(1.01468 -0.00296441 -0.000127219)
(1.02128 -0.00181715 0.00184461)
(1.02407 0.00134634 0.000607923)
(1.01799 0.00651218 0.000561103)
(1.01052 0.00283664 0.00082574)
(1.01301 -0.00736631 0.00155069)
(1.02274 -0.00693943 0.00201664)
(1.02544 0.000175072 -1.09472e-05)
(1.02106 0.0066275 -0.00131698)
(1.01261 0.0043056 -0.000810869)
(1.01164 -0.00595944 0.000748095)
(1.02284 -0.00658025 0.00175857)
(1.02664 0.000873086 -0.000273592)
(1.02005 0.00582386 -0.00184376)
(1.01394 0.00532332 -0.000335352)
(1.01401 -0.00436374 -0.000960134)
(1.02314 -0.00385724 -0.00124892)
(1.02397 0.00406096 -9.93924e-05)
(1.01581 0.00407104 -0.00121084)
(1.01228 0.00153569 -0.00100544)
(1.01333 -0.00826172 -8.68182e-05)
(1.02378 -0.008077 -0.000253444)
(1.02872 0.00219882 0.000905928)
(1.01914 0.00516025 0.000854211)
(1.01366 0.00350777 7.78203e-05)
(1.01483 -0.00184016 0.000446719)
(1.01814 -0.00463949 0.00028014)
(1.02412 -0.000605849 -4.18164e-06)
(1.02167 0.00573861 4.53046e-05)
(1.01199 0.00173029 -0.0021119)
(1.01572 -0.0041106 -0.00151776)
(1.02321 -0.00182032 0.00049026)
(1.02227 -0.000263729 0.000988865)
(1.02188 0.00515167 0.00166274)
(1.01513 0.00466083 -0.000252161)
(1.01318 -0.00360724 -0.00118629)
(1.02139 -0.00144314 -0.000480591)
(1.02335 -0.00114696 -0.000437447)
(1.02167 0.00550145 0.000249253)
(1.01453 0.00650611 -0.00141999)
(1.01312 -0.00367218 -6.01524e-05)
(1.02219 -0.00269567 0.0023008)
(1.02592 0.00102998 0.000543726)
(1.01831 0.00943269 0.000551701)
(1.00761 0.00382097 0.0007839)
(1.01092 -0.00944839 0.0021998)
(1.02412 -0.0094119 0.00257179)
(1.02806 0.000364232 -0.000877624)
(1.02174 0.00916928 -0.00251536)
(1.00991 0.00578386 -0.0012402)
(1.00926 -0.00772571 0.000930185)
(1.02396 -0.0089319 0.00230016)
(1.029 0.000554533 -0.000777908)
(1.02092 0.00818866 -0.00271525)
(1.01176 0.00733499 -0.000500547)
(1.01207 -0.00570822 -0.00147999)
(1.02469 -0.0048146 -0.00177669)
(1.0255 0.00451028 -0.00071079)
(1.0153 0.0060722 -0.00181599)
(1.00961 0.00237558 -0.00130907)
(1.01126 -0.011244 -0.000558901)
(1.02565 -0.0102391 -0.000109536)
(1.03115 0.00185496 0.00142034)
(1.01932 0.00685373 0.00108424)
(1.0121 0.00451705 0.000384252)
(1.01306 -0.00264044 0.000527128)
(1.01826 -0.00580944 0.000261308)
(1.02601 -0.000803619 0.000157891)
(1.02201 0.00754239 -0.000267179)
(1.00995 0.00240405 -0.00311038)
(1.01485 -0.00487132 -0.00216019)
(1.02379 -0.00255579 0.000268283)
(1.02353 -0.000409307 0.00136621)
(1.0227 0.00666412 0.00241352)
(1.01337 0.00572695 -0.000425787)
(1.01187 -0.00367943 -0.00172276)
(1.02166 -0.0022906 -0.000850688)
(1.02471 -0.001853 -0.000667752)
(1.02313 0.00790856 0.00028015)
(1.01264 0.00827484 -0.0018467)
(1.0112 -0.0040325 1.50537e-05)
(1.023 -0.00451408 0.00269229)
(1.02842 0.000766929 0.000224076)
(1.01877 0.0132104 0.000412975)
(1.00405 0.00560076 0.000700768)
(1.00833 -0.0116969 0.00275304)
(1.02564 -0.0126536 0.00291571)
(1.03118 0.000584561 -0.00239213)
(1.02248 0.0122183 -0.00421388)
(1.0066 0.00795357 -0.00163133)
(1.00621 -0.00977997 0.00122447)
(1.025 -0.0119854 0.0028256)
(1.0318 2.44517e-05 -0.00157123)
(1.02204 0.0111984 -0.00374822)
(1.00912 0.0102411 -0.000649347)
(1.00966 -0.00662549 -0.00221723)
(1.0263 -0.0062092 -0.00276012)
(1.02739 0.00470762 -0.00187898)
(1.01492 0.00883736 -0.00252196)
(1.00623 0.00366832 -0.00177697)
(1.00865 -0.0144828 -0.00146916)
(1.02756 -0.0131536 -8.34293e-05)
(1.03387 0.00123146 0.0018867)
(1.01961 0.00891577 0.00150264)
(1.01017 0.00557902 0.000821388)
(1.01095 -0.0033424 0.000430094)
(1.01827 -0.00729194 6.8821e-05)
(1.02812 -0.00104394 0.000334823)
(1.02238 0.00984421 -0.000602015)
(1.00752 0.00338511 -0.0043053)
(1.01367 -0.00551722 -0.00321506)
(1.02427 -0.00348318 -0.000260396)
(1.02491 -0.000731943 0.00167654)
(1.02356 0.00830972 0.00337805)
(1.01146 0.00745559 -0.000613489)
(1.01024 -0.00340122 -0.00272903)
(1.02171 -0.00343344 -0.00165453)
(1.02638 -0.00255776 -0.00114263)
(1.02483 0.0105324 0.000322239)
(1.01047 0.0111226 -0.00218539)
(1.00867 -0.00419269 -7.14191e-05)
(1.02367 -0.00755119 0.00281191)
(1.03168 0.000578273 -0.000691411)
(1.01954 0.0178535 0.000190491)
(0.99988 0.00840337 0.000529135)
(1.00501 -0.0142866 0.00275039)
(1.02725 -0.0167448 0.00246806)
(1.03486 0.000780769 -0.00491074)
(1.02334 0.015857 -0.00642087)
(1.00256 0.0111164 -0.00177598)
(1.00219 -0.0121752 0.00154028)
(1.02576 -0.0160294 0.00313571)
(1.03495 -0.000813139 -0.00270102)
(1.02353 0.0150262 -0.00473461)
(1.00613 0.0143148 -0.000579234)
(1.00664 -0.00697425 -0.00344452)
(1.02777 -0.00823174 -0.00486336)
(1.02974 0.00448654 -0.00391321)
(1.01476 0.0127612 -0.00306529)
(1.00216 0.00592698 -0.00242934)
(1.00534 -0.017837 -0.0034711)
(1.02936 -0.0169485 -0.000819763)
(1.03684 0.000440837 0.00217272)
(1.01995 0.0113707 0.00224661)
(1.00783 0.00708393 0.00128208)
(1.00837 -0.00388131 -0.000356289)
(1.01807 -0.00939308 -0.000711865)
(1.03038 -0.00112657 0.000308388)
(1.02273 0.0127287 -0.000877584)
(1.0047 0.0049907 -0.00573601)
(1.01203 -0.00576131 -0.00496747)
(1.02447 -0.00458785 -0.00152034)
(1.02631 -0.00141968 0.00164871)
(1.02454 0.0101697 0.0046124)
(1.00946 0.0100792 -0.000849364)
(1.00811 -0.00264807 -0.00460129)
(1.02143 -0.00466162 -0.00330195)
(1.02829 -0.00347791 -0.00229423)
(1.0269 0.0133241 0.000396714)
(1.00809 0.0155379 -0.00234596)
(1.00522 -0.00427974 -0.000617034)
(1.02415 -0.0120335 0.00212317)
(1.03576 0.000547556 -0.00255038)
(1.0204 0.0241421 0.000179004)
(0.995221 0.012972 -4.58912e-05)
(1.00168 -0.0173998 0.000870017)
(1.02943 -0.021445 0.000262798)
(1.03925 0.00103116 -0.00893216)
(1.02434 0.0205074 -0.00902489)
(0.99755 0.0155836 -0.00144691)
(0.997031 -0.0149018 0.00150779)
(1.02619 -0.0212296 0.00269137)
(1.03838 -0.00207049 -0.00434174)
(1.02518 0.0201391 -0.00536893)
(1.00283 0.0204438 -0.000338592)
(1.00355 -0.0062984 -0.00612866)
(1.02951 -0.0110566 -0.00908399)
(1.03277 0.00400109 -0.00725805)
(1.01489 0.0182422 -0.00316727)
(0.997631 0.00996611 -0.00360753)
(1.00196 -0.0209507 -0.00822126)
(1.03137 -0.0217777 -0.00391813)
(1.04007 -0.000563445 0.00166473)
(1.02028 0.0139925 0.00344046)
(1.00518 0.00936298 0.00141571)
(1.00534 -0.00393587 -0.00299046)
(1.01763 -0.0119754 -0.00311799)
(1.03277 -0.000843673 3.3055e-05)
(1.02298 0.0162619 -0.000947435)
(1.00146 0.00746278 -0.00764675)
(1.00987 -0.00559981 -0.00810717)
(1.02427 -0.00612186 -0.00425487)
(1.02759 -0.00229133 0.000894057)
(1.02565 0.012597 0.00641347)
(1.00738 0.0141373 -0.00128848)
(1.00552 -0.00132247 -0.0083997)
(1.02068 -0.00617669 -0.00674849)
(1.03028 -0.00456585 -0.00461849)
(1.02946 0.0166752 0.000542463)
(1.0055 0.0220439 -0.00220694)
(1.0007 -0.00475883 -0.00264321)
(1.02462 -0.0183777 -0.000486612)
(1.04105 0.000386578 -0.00574562)
(1.02043 0.0316417 0.000734835)
(0.991377 0.0191661 -0.00125232)
(1.00346 -0.0199892 -0.00358872)
(1.03618 -0.0261893 -0.00450708)
(1.04601 0.000648194 -0.0148754)
(1.02528 0.0258967 -0.0118502)
(0.990964 0.0213905 -0.000527362)
(0.993157 -0.018 0.000315539)
(1.02866 -0.0275278 0.000499647)
(1.0426 -0.00321963 -0.00653858)
(1.02609 0.0266524 -0.00488046)
(0.99971 0.0286673 0.00023825)
(1.00489 -0.00479029 -0.0117027)
(1.03557 -0.015445 -0.0173777)
(1.0376 0.00336977 -0.0122832)
(1.01489 0.0259811 -0.0019513)
(0.994377 0.0165136 -0.00628417)
(1.00414 -0.0235613 -0.0190301)
(1.03768 -0.02716 -0.0120314)
(1.04468 -0.000976985 -0.000350127)
(1.02025 0.01759 0.00534562)
(1.00341 0.0126712 0.000259241)
(1.00472 -0.00392703 -0.00992505)
(1.01883 -0.0147909 -0.00891408)
(1.03551 0.000312543 -0.00088939)
(1.02282 0.0209569 -0.000679584)
(0.998436 0.0114277 -0.0106194)
(1.00863 -0.00486334 -0.013966)
(1.02476 -0.00826046 -0.0100366)
(1.02905 -0.00350446 -0.00135288)
(1.02672 0.0159075 0.00882804)
(1.00535 0.0201638 -0.00216998)
(1.00333 0.00103644 -0.0156259)
(1.02011 -0.00773994 -0.0136892)
(1.0329 -0.00658438 -0.00934464)
(1.03251 0.0210098 0.000757701)
(1.002 0.0314263 -0.00156734)
(0.996366 -0.00536586 -0.00766107)
(1.02707 -0.0264595 -0.00679197)
(1.04822 0.00117314 -0.0101709)
(1.01606 0.0402127 0.000361754)
(0.994552 0.0250935 -0.00239597)
(1.02771 -0.0238308 -0.00538146)
(1.06075 -0.0293311 -0.00674582)
(1.06069 0.00170063 -0.0207232)
(1.02526 0.0328796 -0.0156325)
(0.984472 0.0276848 9.94952e-05)
(1.00452 -0.0230704 3.11404e-05)
(1.04507 -0.035444 -0.00132495)
(1.05057 -0.00323581 -0.0081837)
(1.02255 0.0352021 -0.00346377)
(0.998675 0.0388765 0.000897547)
(1.0269 -0.00288515 -0.0183699)
(1.06082 -0.0203077 -0.0285063)
(1.04898 0.00394574 -0.0182233)
(1.01324 0.0352936 0.000662117)
(0.997796 0.024647 -0.0104282)
(1.03082 -0.0250114 -0.035678)
(1.06373 -0.0318337 -0.0259846)
(1.05461 -0.000664199 -0.0042902)
(1.01778 0.0213742 0.00737)
(1.00831 0.0171509 -0.00308926)
(1.02062 -0.00296414 -0.0220425)
(1.03107 -0.0171518 -0.0183824)
(1.03995 0.00272669 -0.00181444)
(1.02209 0.0265921 -0.00063307)
(1.00017 0.0165153 -0.015218)
(1.01698 -0.00398265 -0.0230036)
(1.03212 -0.0106211 -0.0194179)
(1.03241 -0.0040932 -0.00498371)
(1.02701 0.0213137 0.0120673)
(1.00449 0.0283324 -0.00387888)
(1.00734 0.00340317 -0.0275912)
(1.02375 -0.00900456 -0.0253003)
(1.03907 -0.00856504 -0.016944)
(1.03615 0.0262209 0.00113132)
(0.995922 0.0433492 -0.000790009)
(1.00018 -0.00653872 -0.0159366)
(1.03995 -0.0357603 -0.0160727)
(1.05626 0.00472833 -0.0140803)
(1.00476 0.0488744 -0.00464909)
(1.01625 0.0278555 0.00159114)
(1.09647 -0.0289122 0.0124303)
(1.12284 -0.0313365 0.00908408)
(1.08941 0.0050748 -0.0184627)
(1.02165 0.0423658 -0.0216543)
(0.991722 0.0332493 -0.000219312)
(1.06169 -0.0307586 0.0105531)
(1.09618 -0.0409807 0.0079759)
(1.06539 -0.000248285 -0.00427444)
(1.00893 0.0443828 -0.00279383)
(1.00701 0.0469823 0.00340333)
(1.09409 -0.00391284 -0.0117375)
(1.12701 -0.0231876 -0.0294775)
(1.07347 0.00987584 -0.0210262)
(1.00805 0.0474899 0.00300551)
(1.0168 0.0295664 -0.0114108)
(1.10739 -0.0287715 -0.0428564)
(1.1318 -0.0324701 -0.0341844)
(1.0726 0.0039441 -0.00839067)
(1.01061 0.0244372 0.00567288)
(1.03867 0.0175214 -0.00353577)
(1.08633 -0.0028791 -0.0282104)
(1.07301 -0.0147939 -0.0249507)
(1.04563 0.00970628 -0.0024944)
(1.02376 0.0338512 -0.00163231)
(1.02272 0.0216635 -0.0164288)
(1.05798 -0.00415937 -0.0264986)
(1.06132 -0.0124226 -0.0263676)
(1.04173 -0.00258993 -0.00857963)
(1.02517 0.0295079 0.0149557)
(1.0093 0.0379122 -0.0048254)
(1.03437 0.00592933 -0.0382731)
(1.04527 -0.00910608 -0.0366268)
(1.05798 -0.00966767 -0.0239974)
(1.03773 0.0329485 0.00109067)
(0.985708 0.0557239 -0.00250766)
(1.03303 -0.0114624 -0.0196897)
(1.07849 -0.0439866 -0.0191737)
(1.05762 0.0107312 -0.0174993)
(0.984288 0.0527341 -0.0214949)
(1.0448 0.0210392 0.0101345)
(1.17859 -0.0382446 0.0561357)
(1.20631 -0.0280076 0.0516575)
(1.11873 0.0155073 -0.00533002)
(1.01287 0.0510972 -0.0323856)
(1.03338 0.0288355 -0.000286983)
(1.17039 -0.0426271 0.04135)
(1.18089 -0.0398503 0.0373611)
(1.07899 0.0103852 0.0030952)
(0.982434 0.0538548 -0.0133477)
(1.02818 0.0461721 0.0119141)
(1.19255 -0.0107738 0.0318894)
(1.22809 -0.0213821 0.00019719)
(1.11271 0.0230643 -0.0174583)
(1.00357 0.059894 0.00189354)
(1.05516 0.0258424 0.00331509)
(1.22338 -0.0397168 -0.0129486)
(1.2313 -0.031943 -0.0162826)
(1.07783 0.010521 -0.0139942)
(0.979714 0.0230782 -0.000569494)
(1.08936 0.00949109 0.0265609)
(1.21283 -0.0076685 0.00951317)
(1.15388 -0.00855918 -0.0124944)
(1.0565 0.0200014 -0.00634866)
(1.04547 0.03969 -0.00256179)
(1.08677 0.0232105 -0.000151198)
(1.14978 -0.00600123 -0.00426368)
(1.12135 -0.0107108 -0.0182109)
(1.05967 0.00450485 -0.0101964)
(1.02449 0.0397207 0.0148653)
(1.03292 0.0424029 0.00406632)
(1.10718 0.00403514 -0.0262532)
(1.10286 -0.00568229 -0.0331299)
(1.09787 -0.00438994 -0.0208125)
(1.0257 0.0449716 -0.0057292)
(0.984131 0.0629439 -0.00887027)
(1.11381 -0.0212539 -0.00104506)
(1.14203 -0.0488494 -0.000636616)
(1.01315 0.0195875 -0.0152509)
(0.940689 0.0480044 -0.0423941)
(1.06551 0.00470389 0.0141205)
(1.18668 -0.0544798 0.0861549)
(1.21774 -0.0307581 0.097386)
(1.11725 0.0252925 0.0265642)
(1.02062 0.0538063 -0.0302843)
(1.11671 0.0178855 0.00351396)
(1.28173 -0.0493067 0.074423)
(1.25932 -0.0340953 0.0706489)
(1.0664 0.0237548 0.00659771)
(0.918801 0.0555382 -0.0314163)
(1.0241 0.0309186 0.0299327)
(1.23118 -0.0207265 0.100156)
(1.29665 -0.0104192 0.0548188)
(1.14055 0.0415856 -0.0114711)
(1.00793 0.0676845 -0.00194647)
(1.1104 0.0146573 0.0332491)
(1.30937 -0.048749 0.0404136)
(1.28458 -0.0192116 0.0205126)
(1.04252 0.0226443 -0.0171589)
(0.914046 0.00311418 -0.0106333)
(1.07246 -0.0202536 0.0779496)
(1.30424 -0.01065 0.0965844)
(1.23043 0.00774609 0.0286493)
(1.04438 0.0304533 -0.0117932)
(1.06692 0.0394445 0.00130252)
(1.1536 0.0203368 0.036766)
(1.23969 -0.00323939 0.0498769)
(1.18606 0.00102637 0.00700918)
(1.07985 0.014725 -0.0152934)
(1.02917 0.0456055 0.0107925)
(1.07166 0.0397641 0.0370145)
(1.20957 0.000956148 0.0291286)
(1.18921 0.000305339 -0.00671762)
(1.14966 0.0038218 -0.0051596)
(1.00039 0.0554187 -0.0170169)
(1.02464 0.059679 -0.00784005)
(1.2284 -0.0279338 0.0371873)
(1.1903 -0.0459434 0.0356147)
(0.904151 0.020505 -0.0120232)
(0.937627 0.021393 -0.0330514)
(1.13754 -0.0167296 0.0438911)
(1.12471 -0.0613703 0.0903616)
(1.07044 -0.0328287 0.0985395)
(1.0089 0.0229198 0.0418425)
(1.00314 0.0363641 -0.0231947)
(1.1995 -0.00550551 0.0153136)
(1.34287 -0.048892 0.0947639)
(1.23176 -0.00879979 0.0712892)
(0.960159 0.0414943 -0.0117361)
(0.838472 0.0340364 -0.0347406)
(1.00737 -0.0111915 0.0527529)
(1.17199 -0.0450494 0.123521)
(1.25289 -0.0074624 0.0822925)
(1.11653 0.0518574 0.00186471)
(1.0352 0.0628632 0.00734183)
(1.20361 0.000309395 0.059001)
(1.33256 -0.0467555 0.0658157)
(1.22068 0.00189151 0.032262)
(1.02617 0.0344057 -0.0241506)
(0.942709 -0.0207845 -0.0160194)
(1.00491 -0.0650972 0.0889255)
(1.27885 -0.0267118 0.149487)
(1.24676 0.022905 0.0757609)
(1.01294 0.0321549 0.00129389)
(1.0771 0.0178687 0.028595)
(1.15171 0.00179158 0.0730295)
(1.23665 -0.00398851 0.091218)
(1.22362 0.0170993 0.0327353)
(1.10793 0.0234113 -0.00223731)
(1.01537 0.0388505 0.0232395)
(1.07938 0.022793 0.0698248)
(1.25939 -0.00701901 0.0895829)
(1.22411 0.00513488 0.0339488)
(1.16601 0.018004 0.0209482)
(0.969327 0.0561683 -0.0168267)
(1.11326 0.0390092 0.0131695)
(1.33802 -0.025178 0.0675358)
(1.14907 -0.0240602 0.0558634)
(0.954052 0.000746907 0.00981332)
(1.07554 -0.018269 0.0262463)
(1.17907 -0.0323011 0.0959231)
(1.00368 -0.0454774 0.0867597)
(0.884271 -0.0244511 0.0643162)
(0.905536 0.000609215 0.0140809)
(0.9788 -0.0113155 -0.0396352)
(1.17555 -0.0451834 0.0156952)
(1.21753 -0.0473001 0.0975475)
(1.11339 0.0167474 0.0729611)
(0.953379 0.0450652 -0.00626974)
(0.953858 0.001043 -0.0148119)
(1.03901 -0.0463073 0.0677844)
(1.05168 -0.0566217 0.0923534)
(1.07085 -0.00513986 0.0441828)
(1.01493 0.0499324 0.00205613)
(1.05145 0.0333868 0.0315854)
(1.25825 -0.0202598 0.0722641)
(1.27818 -0.033539 0.0565772)
(1.04309 0.0189533 0.014589)
(1.03867 0.0308352 -0.026473)
(1.0718 -0.0270678 0.0189886)
(0.973868 -0.0819302 0.0964523)
(1.13529 -0.0401878 0.14334)
(1.11063 0.03522 0.0637713)
(0.989236 0.0202924 0.00206357)
(1.05852 -0.0197037 0.0506682)
(1.04561 -0.0221019 0.079019)
(1.13185 -0.0106701 0.082163)
(1.18256 0.0260252 0.0331607)
(1.10998 0.0262034 0.00531883)
(0.979755 0.0181907 0.0265549)
(1.07825 -0.00462357 0.0853411)
(1.24739 -0.0128538 0.114494)
(1.16972 0.0133506 0.0513125)
(1.07915 0.0208217 0.0139622)
(0.976986 0.0413568 -0.00165017)
(1.1845 0.0165567 0.0471016)
(1.32396 -0.0139553 0.0787021)
(1.09348 -0.00413393 0.0645815)
(1.0632 -0.0285543 0.0048476)
(1.10056 -0.0451657 0.0448998)
(1.00532 -0.0337831 0.0853354)
(0.886177 -0.0359118 0.072428)
(0.837146 -0.0307141 0.0445861)
(0.888996 -0.0236055 -0.0274364)