/*--------------------------------*- C++ -*----------------------------------*\
  =========                 |
  \\      /  F ield         | OpenFOAM: The Open Source CFD Toolbox
   \\    /   O peration     | Website:  https://openfoam.org
    \\  /    A nd           | Version:  10
     \\/     M anipulation  |
\*---------------------------------------------------------------------------*/
FoamFile
{
    format      ascii;
    class       volSymmTensorField;
    location    "3";
    object      UPrime2Mean;
}
// * * * * * * * * * * * * * * * * * * * * * * * * * * * * * * * * * * * * * //

dimensions      [0 2 -2 0 0 0 0];

internalField   nonuniform List<symmTensor> 
25600
(
(1.77914e-05 -3.11952e-09 5.22845e-08 4.83596e-09 1.82239e-09 9.45616e-10)
(1.77337e-05 -8.1429e-08 1.41388e-08 3.67656e-09 7.14287e-10 3.48909e-10)
(1.77824e-05 -1.5442e-07 8.15377e-09 3.38431e-09 1.36687e-10 4.37457e-10)
(1.78303e-05 -2.07936e-07 3.07826e-08 3.457e-09 2.94662e-10 7.84945e-10)
(1.78865e-05 -2.20218e-07 8.2162e-09 4.03851e-09 5.50765e-10 4.69931e-10)
(1.79143e-05 -2.5066e-07 -1.34328e-08 4.8392e-09 3.07456e-10 8.79423e-11)
(1.79038e-05 -2.82377e-07 2.49696e-09 5.44111e-09 6.9795e-11 2.17715e-10)
(1.79854e-05 -2.87444e-07 -6.64337e-09 5.84756e-09 3.80296e-10 2.61292e-10)
(1.8002e-05 -2.8787e-07 -2.21162e-08 6.40776e-09 6.99529e-10 1.30076e-10)
(1.79385e-05 -2.57389e-07 -1.12437e-08 5.83848e-09 4.04755e-10 7.66939e-11)
(1.80412e-05 -1.98335e-07 -7.92637e-09 3.79187e-09 3.26871e-10 8.5717e-11)
(1.80375e-05 -1.81644e-07 -7.74798e-09 4.31338e-09 4.74124e-10 9.63965e-11)
(1.78677e-05 -1.54767e-07 -4.84835e-09 5.03538e-09 5.72329e-10 1.1611e-10)
(1.79314e-05 -7.01742e-08 5.19798e-09 2.69119e-09 2.55767e-10 9.91145e-11)
(1.80232e-05 -3.64116e-08 1.85704e-08 2.57471e-09 9.97744e-11 5.0698e-11)
(1.79038e-05 -5.70526e-09 1.98944e-08 2.50367e-09 2.5651e-10 7.83876e-11)
(1.78186e-05 5.28742e-08 2.77402e-08 1.03909e-09 1.71291e-10 1.06948e-10)
(1.78554e-05 4.73244e-08 3.59223e-08 1.402e-09 2.2664e-11 1.0612e-10)
(1.7875e-05 7.61592e-08 3.21034e-08 1.69531e-09 1.50032e-10 8.88689e-11)
(1.78241e-05 1.18241e-07 3.53628e-08 1.15371e-09 2.31193e-10 1.26009e-10)
(1.78195e-05 1.16206e-07 3.92174e-08 1.20078e-09 2.03865e-10 1.53499e-10)
(1.78269e-05 1.3776e-07 3.68855e-08 1.69687e-09 3.24177e-10 1.47184e-10)
(1.77442e-05 1.05921e-07 3.22554e-08 1.5219e-09 1.82472e-10 1.44422e-10)
(1.7763e-05 8.06808e-08 2.02054e-08 1.4702e-09 -5.31184e-11 7.51174e-11)
(1.7881e-05 1.3546e-07 1.718e-08 1.80065e-09 1.08691e-10 7.91006e-11)
(1.78602e-05 1.21633e-07 1.56902e-08 1.82451e-09 8.02436e-11 1.07035e-10)
(1.78139e-05 9.72418e-08 2.7552e-09 1.90027e-09 -1.20182e-10 3.93293e-11)
(1.78428e-05 1.46144e-07 2.80638e-09 2.14879e-09 -7.11686e-11 7.89819e-11)
(1.78528e-05 1.36658e-07 7.38731e-09 2.50639e-09 -2.05122e-10 1.69078e-10)
(1.78691e-05 1.34931e-07 -2.39713e-09 3.84347e-09 -4.14635e-10 1.51072e-10)
(1.78126e-05 2.07352e-07 -9.59774e-09 5.06622e-09 -1.82912e-10 9.80637e-11)
(1.77412e-05 1.85892e-07 -2.45935e-09 5.32706e-09 7.19804e-11 6.54355e-11)
(1.78025e-05 1.71123e-07 7.28205e-09 6.28064e-09 8.69685e-11 4.33296e-11)
(1.77597e-05 2.37219e-07 9.97072e-09 8.18218e-09 -2.53855e-11 1.08176e-10)
(1.76823e-05 1.62196e-07 8.32282e-09 5.35515e-09 2.97237e-10 2.82935e-10)
(1.78106e-05 1.24428e-07 1.49811e-08 6.30494e-09 1.10612e-09 4.43521e-10)
(1.781e-05 2.01411e-07 3.85269e-08 1.10764e-08 1.31231e-09 3.40724e-10)
(1.76518e-05 1.2167e-07 3.72385e-08 7.33925e-09 1.01281e-09 2.60178e-10)
(1.77131e-05 2.89094e-08 1.50117e-08 2.30702e-09 2.38511e-10 3.48968e-10)
(1.78441e-05 3.83065e-08 3.73151e-08 4.32997e-09 1.01819e-09 7.09546e-10)
(1.76684e-05 -2.07787e-08 7.1534e-08 6.22371e-09 2.61707e-09 1.76115e-09)
(1.75936e-05 -1.02608e-07 1.65635e-08 4.29744e-09 5.04849e-10 6.7608e-10)
(1.76629e-05 -1.84785e-07 3.3299e-08 4.16916e-09 -2.5446e-10 1.15868e-09)
(1.77695e-05 -2.47247e-07 5.31833e-08 4.54486e-09 -5.18991e-10 1.55458e-09)
(1.78658e-05 -2.37153e-07 1.44868e-08 4.88285e-09 -2.58352e-11 5.43369e-10)
(1.78645e-05 -2.4729e-07 5.83905e-09 6.03016e-09 -3.10123e-10 3.88416e-10)
(1.78698e-05 -2.97285e-07 2.27685e-08 6.95891e-09 -7.24832e-10 8.71117e-10)
(1.79945e-05 -2.89475e-07 -6.32814e-09 6.09212e-09 1.15297e-10 5.17682e-10)
(1.80239e-05 -2.7686e-07 -2.07326e-08 5.89137e-09 6.07796e-10 1.74609e-10)
(1.80256e-05 -2.68021e-07 -7.50274e-09 7.3479e-09 -2.36977e-11 2.22678e-10)
(1.814e-05 -1.60964e-07 -1.78041e-08 3.40686e-09 2.5535e-10 2.72844e-10)
(1.8054e-05 -1.37822e-07 -2.65684e-08 4.63258e-09 8.55032e-10 2.9547e-10)
(1.79503e-05 -1.7072e-07 -2.53708e-08 8.16132e-09 1.39395e-09 3.48473e-10)
(1.80733e-05 -4.69435e-08 -1.0177e-08 5.0687e-09 5.70659e-10 2.31789e-10)
(1.80865e-05 8.95929e-09 3.4447e-09 4.77898e-09 3.64262e-10 1.44622e-10)
(1.79657e-05 1.37562e-08 7.33884e-09 4.85456e-09 6.98559e-10 2.07387e-10)
(1.7868e-05 6.27555e-08 2.6211e-08 2.88075e-09 3.40087e-10 1.14075e-10)
(1.78839e-05 4.62913e-08 2.89763e-08 3.63477e-09 3.59519e-10 1.23014e-10)
(1.79419e-05 9.50054e-08 3.07217e-08 3.42947e-09 6.10705e-10 2.58805e-10)
(1.78616e-05 1.3003e-07 4.92834e-08 2.07954e-09 3.07762e-10 2.80919e-10)
(1.78454e-05 1.34407e-07 4.35703e-08 2.18448e-09 2.08724e-10 1.79884e-10)
(1.78073e-05 1.73069e-07 4.53259e-08 4.07366e-09 4.24257e-10 2.29208e-10)
(1.76687e-05 8.20866e-08 4.81944e-08 2.67049e-09 7.16453e-11 3.55082e-10)
(1.78009e-05 6.22305e-08 2.57571e-08 3.07833e-09 -2.79391e-10 1.48414e-10)
(1.79325e-05 1.58111e-07 1.86229e-08 2.91901e-09 1.85654e-10 1.24316e-10)
(1.78166e-05 1.10453e-07 1.33904e-08 2.61986e-09 6.3929e-11 1.34348e-10)
(1.78417e-05 9.67138e-08 -2.52644e-09 3.12114e-09 -6.35854e-11 6.78001e-11)
(1.78838e-05 1.6772e-07 1.41234e-09 3.13062e-09 -2.7657e-11 1.93248e-10)
(1.78476e-05 1.24937e-07 3.0165e-09 4.00874e-09 -4.60706e-10 3.38132e-10)
(1.79526e-05 1.64979e-07 -1.16413e-08 7.34373e-09 -6.43303e-10 3.16593e-10)
(1.78533e-05 2.5597e-07 -1.90297e-08 9.88717e-09 -1.8132e-10 2.70603e-10)
(1.77042e-05 1.75405e-07 -8.0834e-09 8.60834e-09 2.14504e-10 1.86325e-10)
(1.78595e-05 2.06481e-07 5.64099e-09 1.04909e-08 -1.34463e-10 1.43106e-10)
(1.77306e-05 2.48839e-07 1.02651e-08 1.16175e-08 -8.62944e-11 3.68863e-10)
(1.75854e-05 1.10899e-07 6.88003e-09 5.72306e-09 1.00954e-09 8.39232e-10)
(1.78742e-05 1.67978e-07 2.27558e-08 1.21646e-08 1.72907e-09 1.06853e-09)
(1.77874e-05 2.26338e-07 6.00098e-08 1.78908e-08 1.79896e-09 6.55334e-10)
(1.74824e-05 5.76692e-08 4.5447e-08 5.36603e-09 6.0495e-10 4.59971e-10)
(1.76622e-05 2.32697e-08 2.35405e-08 4.34896e-09 2.5377e-10 1.01123e-09)
(1.7819e-05 5.65703e-08 7.36187e-08 8.13424e-09 1.98774e-09 1.63021e-09)
(1.75289e-05 -4.19843e-08 8.29056e-08 9.46718e-09 3.98626e-09 3.10303e-09)
(1.74571e-05 -1.17587e-07 2.15941e-08 8.08279e-09 -3.60623e-10 2.05516e-09)
(1.75355e-05 -2.40317e-07 7.92826e-08 7.50849e-09 -1.89777e-09 3.18136e-09)
(1.77408e-05 -2.93055e-07 7.65067e-08 9.21071e-09 -2.62375e-09 2.98469e-09)
(1.78886e-05 -2.36997e-07 1.84849e-08 8.71048e-09 -9.19561e-10 8.60442e-10)
(1.78153e-05 -2.45032e-07 3.67732e-08 1.05162e-08 -1.61986e-09 1.71795e-09)
(1.78391e-05 -3.15522e-07 4.28255e-08 1.14549e-08 -2.1925e-09 2.61065e-09)
(1.80255e-05 -2.82995e-07 -1.65855e-08 7.79734e-09 1.99574e-10 7.86662e-10)
(1.80402e-05 -2.79935e-07 -1.34296e-08 7.22605e-09 4.4148e-10 4.30351e-10)
(1.81406e-05 -2.73199e-07 -1.54307e-09 1.14549e-08 -1.27706e-09 9.09649e-10)
(1.82699e-05 -9.8178e-08 -3.43867e-08 5.68594e-09 1.43361e-10 7.90241e-10)
(1.80212e-05 -1.17555e-07 -4.7793e-08 1.03214e-08 1.59555e-09 7.76165e-10)
(1.80329e-05 -1.78488e-07 -4.30976e-08 1.54284e-08 2.39477e-09 7.98454e-10)
(1.82523e-05 6.67181e-09 -1.89354e-08 1.18698e-08 3.75054e-10 4.33863e-10)
(1.81386e-05 3.4155e-08 -1.11936e-08 1.37656e-08 7.09466e-10 4.29067e-10)
(1.80074e-05 4.54751e-08 -7.44774e-10 1.1209e-08 1.10994e-09 5.02491e-10)
(1.78856e-05 7.18775e-08 2.90237e-08 8.63435e-09 5.19121e-10 1.51732e-10)
(1.79211e-05 2.06584e-08 1.96564e-08 1.24361e-08 1.46836e-09 4.63144e-10)
(1.80273e-05 1.25206e-07 3.89826e-08 9.07243e-09 1.40462e-09 7.74438e-10)
(1.78958e-05 1.33059e-07 6.73478e-08 5.19237e-09 1.05861e-10 5.63205e-10)
(1.78956e-05 1.68404e-07 4.59243e-08 5.88548e-09 7.27063e-11 2.80423e-10)
(1.77434e-05 2.16026e-07 6.67091e-08 1.24098e-08 5.29764e-10 6.45932e-10)
(1.75612e-05 2.55998e-08 6.43189e-08 6.61926e-09 -6.28393e-10 8.50603e-10)
(1.7895e-05 6.97526e-08 2.35151e-08 7.87335e-09 -2.9079e-10 2.34712e-10)
(1.79716e-05 1.86895e-07 2.50353e-08 6.93032e-09 5.37357e-10 2.98719e-10)
(1.77583e-05 7.07918e-08 5.99854e-09 5.62484e-09 1.37065e-10 2.28364e-10)
(1.79141e-05 1.27628e-07 -9.39765e-09 5.98911e-09 4.05551e-10 2.84421e-10)
(1.78965e-05 1.94904e-07 4.71621e-09 6.49429e-09 7.1449e-11 6.21841e-10)
(1.7854e-05 8.98039e-08 -8.26017e-09 1.13698e-08 -1.29331e-09 7.73864e-10)
(1.81044e-05 2.34569e-07 -2.73714e-08 1.86315e-08 -8.18301e-10 7.19117e-10)
(1.7848e-05 3.174e-07 -2.77801e-08 2.45828e-08 4.899e-10 6.62216e-10)
(1.76717e-05 1.59778e-07 -1.28238e-08 1.90493e-08 5.58274e-10 4.56747e-10)
(1.79433e-05 2.84249e-07 3.29831e-09 2.09349e-08 -8.11911e-10 5.42371e-10)
(1.76101e-05 2.35225e-07 8.87394e-09 1.72442e-08 5.14466e-10 1.3324e-09)
(1.75472e-05 5.7829e-08 6.81789e-09 1.38775e-08 3.72776e-09 2.45857e-09)
(1.80162e-05 2.78841e-07 4.27545e-08 2.91871e-08 2.33714e-09 2.326e-09)
(1.76507e-05 2.25274e-07 8.96483e-08 2.97106e-08 2.31497e-09 1.23444e-09)
(1.73202e-05 -1.95228e-08 4.73831e-08 6.53443e-09 -4.40984e-10 1.02377e-09)
(1.77024e-05 6.08946e-08 4.79216e-08 1.41175e-08 9.00948e-10 2.96597e-09)
(1.7776e-05 6.6928e-08 1.31716e-07 1.70655e-08 4.90866e-09 4.11062e-09)
(1.74074e-05 -2.92263e-08 8.13398e-08 2.04421e-08 6.62481e-09 5.42434e-09)
(1.72999e-05 -1.39016e-07 5.04634e-08 2.27291e-08 -4.01261e-09 6.20108e-09)
(1.74021e-05 -3.26781e-07 1.42182e-07 2.11368e-08 -7.12943e-09 7.70513e-09)
(1.7785e-05 -3.33882e-07 9.53027e-08 2.51278e-08 -6.77113e-09 4.88548e-09)
(1.79566e-05 -2.23143e-07 3.25532e-08 2.19499e-08 -2.81703e-09 2.66357e-09)
(1.77586e-05 -2.46716e-07 8.48852e-08 2.44576e-08 -4.35339e-09 5.7715e-09)
(1.78307e-05 -3.25744e-07 5.33355e-08 2.35669e-08 -4.2478e-09 5.59e-09)
(1.80645e-05 -2.60939e-07 -2.70869e-08 1.44441e-08 1.09746e-09 1.09544e-09)
(1.80472e-05 -3.07407e-07 7.4043e-09 1.56403e-08 -2.04637e-10 1.49399e-09)
(1.83175e-05 -2.60769e-07 2.97388e-09 2.46585e-08 -4.15598e-09 2.85274e-09)
(1.84019e-05 2.16238e-09 -5.88404e-08 1.95296e-08 -2.55646e-11 1.84183e-09)
(1.79405e-05 -1.28364e-07 -7.14014e-08 2.71496e-08 2.97203e-09 1.65132e-09)
(1.81701e-05 -1.58608e-07 -5.76268e-08 3.43098e-08 2.75756e-09 1.43685e-09)
(1.84413e-05 7.84724e-08 -2.4576e-08 3.59361e-08 -4.49569e-10 7.35175e-10)
(1.81803e-05 2.65643e-08 -3.07691e-08 3.9209e-08 1.69823e-09 1.11379e-09)
(1.80579e-05 1.02513e-07 -3.32574e-09 2.86099e-08 1.02293e-09 8.68331e-10)
(1.78594e-05 5.19911e-08 2.93942e-08 2.98417e-08 1.43607e-09 4.09438e-10)
(1.7995e-05 -2.29839e-08 6.9912e-09 4.23037e-08 5.24318e-09 1.74719e-09)
(1.81427e-05 1.6269e-07 6.21316e-08 2.60933e-08 2.53172e-09 1.7726e-09)
(1.79415e-05 1.08913e-07 8.32506e-08 1.645e-08 -1.35324e-09 1.00081e-09)
(1.79868e-05 2.52778e-07 5.08392e-08 1.97793e-08 -6.74964e-10 9.50399e-10)
(1.75996e-05 2.48504e-07 1.09865e-07 3.68172e-08 1.29438e-09 2.20548e-09)
(1.74647e-05 -5.60379e-08 6.73847e-08 2.11946e-08 -2.58545e-09 1.73235e-09)
(1.80629e-05 1.24929e-07 2.10861e-08 1.98538e-08 1.45398e-10 6.17456e-10)
(1.79528e-05 1.8514e-07 3.50905e-08 1.82493e-08 1.72999e-09 8.0957e-10)
(1.77364e-05 2.24568e-08 -1.20192e-08 1.69274e-08 1.14435e-09 5.83312e-10)
(1.8045e-05 2.18656e-07 -1.03738e-08 1.33684e-08 1.53366e-09 1.26302e-09)
(1.7835e-05 1.90268e-07 8.2149e-09 1.7448e-08 -1.89054e-10 1.88224e-09)
(1.79267e-05 5.08374e-08 -3.41755e-08 4.05989e-08 -2.63133e-09 1.59576e-09)
(1.83472e-05 3.74463e-07 -4.10701e-08 5.23148e-08 4.6568e-10 1.55383e-09)
(1.77786e-05 3.66778e-07 -3.32909e-08 6.16603e-08 3.69395e-09 1.55381e-09)
(1.76944e-05 1.7322e-07 -2.01825e-08 4.78284e-08 9.52763e-10 1.18457e-09)
(1.80204e-05 4.13135e-07 -1.08526e-09 4.56494e-08 -1.53691e-09 1.9202e-09)
(1.73971e-05 1.50351e-07 5.49402e-09 2.48836e-08 4.14326e-09 4.18669e-09)
(1.76576e-05 6.57254e-08 1.47144e-08 4.57417e-08 9.66452e-09 6.10894e-09)
(1.81806e-05 4.59478e-07 7.84358e-08 7.34952e-08 1.56558e-09 4.31224e-09)
(1.73683e-05 1.37765e-07 1.20951e-07 4.24437e-08 1.41396e-09 2.29733e-09)
(1.72552e-05 -4.04878e-08 4.67999e-08 2.63339e-08 -9.69963e-10 3.12648e-09)
(1.7801e-05 1.35978e-07 9.98171e-08 4.38279e-08 2.96619e-09 7.45142e-09)
(1.7686e-05 3.82331e-08 2.02322e-07 3.27134e-08 1.06775e-08 1.002e-08)
(1.73405e-05 4.89852e-08 8.06323e-08 6.2351e-08 9.26816e-09 1.12146e-08)
(1.70804e-05 -2.04771e-07 1.18891e-07 7.06267e-08 -1.47424e-08 1.55599e-08)
(1.73079e-05 -4.17706e-07 2.15053e-07 6.5986e-08 -1.91306e-08 1.63622e-08)
(1.79336e-05 -3.6495e-07 1.13064e-07 7.16528e-08 -1.34268e-08 7.69152e-09)
(1.80679e-05 -2.03824e-07 7.8011e-08 6.1444e-08 -7.16452e-09 8.8965e-09)
(1.77213e-05 -2.39268e-07 1.46694e-07 6.40326e-08 -9.1269e-09 1.51419e-08)
(1.78726e-05 -2.99154e-07 5.03858e-08 5.73303e-08 -5.05361e-09 8.68762e-09)
(1.80894e-05 -2.32152e-07 -2.45175e-08 3.96807e-08 3.96054e-09 2.0508e-09)
(1.80683e-05 -3.71833e-07 4.34606e-08 4.99881e-08 -2.99562e-09 5.30399e-09)
(1.86075e-05 -2.11413e-07 -1.15419e-09 6.61524e-08 -9.72476e-09 7.04756e-09)
(1.85146e-05 1.4315e-07 -9.04245e-08 7.07742e-08 -4.17047e-10 3.81277e-09)
(1.78471e-05 -1.54532e-07 -9.78499e-08 7.2377e-08 4.87087e-09 3.13258e-09)
(1.83954e-05 -8.32976e-08 -6.63694e-08 8.72958e-08 5.37508e-10 2.18988e-09)
(1.86132e-05 1.2811e-07 -3.31326e-08 1.08378e-07 -1.64133e-09 1.36871e-09)
(1.82715e-05 -6.55126e-10 -5.85076e-08 1.04143e-07 3.8724e-09 2.64162e-09)
(1.81379e-05 1.99365e-07 5.02999e-09 8.22899e-08 -1.69103e-10 1.02214e-09)
(1.77931e-05 -2.3608e-08 1.9265e-08 1.01669e-07 5.90344e-09 1.69954e-09)
(1.81598e-05 -5.83359e-08 1.05149e-11 1.26361e-07 1.47501e-08 5.15582e-09)
(1.82893e-05 1.81597e-07 1.06e-07 7.42967e-08 2.56697e-09 3.41225e-09)
(1.80619e-05 5.12271e-08 8.41784e-08 5.67957e-08 -6.29222e-09 1.6711e-09)
(1.81414e-05 4.28086e-07 7.34001e-08 6.97014e-08 -3.45609e-09 3.76923e-09)
(1.73448e-05 2.28176e-07 1.64384e-07 9.66272e-08 3.2364e-09 7.04267e-09)
(1.74526e-05 -1.17314e-07 4.4964e-08 6.65823e-08 -5.25891e-09 3.07483e-09)
(1.82825e-05 2.23702e-07 2.32356e-08 5.26965e-08 1.47244e-09 1.79652e-09)
(1.78647e-05 1.14912e-07 4.23973e-08 4.66005e-08 4.74729e-09 2.40738e-09)
(1.78401e-05 2.95227e-08 -4.73496e-08 4.81875e-08 5.80849e-09 2.52993e-09)
(1.81897e-05 3.70891e-07 -2.16632e-09 4.13576e-08 3.09327e-09 4.31446e-09)
(1.76843e-05 1.21974e-07 -8.67612e-09 5.30239e-08 -2.38409e-09 4.57789e-09)
(1.81654e-05 6.20984e-08 -7.5584e-08 1.27683e-07 -1.42987e-09 3.08175e-09)
(1.8683e-05 5.89431e-07 -4.17271e-08 1.46113e-07 8.33833e-09 3.49312e-09)
(1.76739e-05 3.96105e-07 -3.91367e-08 1.4609e-07 1.27802e-08 3.924e-09)
(1.78379e-05 2.67569e-07 -3.39557e-08 1.11365e-07 1.66947e-09 3.27342e-09)
(1.80102e-05 5.52612e-07 -3.37527e-09 9.93337e-08 6.62106e-10 5.86633e-09)
(1.71608e-05 -2.32662e-09 3.47096e-09 5.38602e-08 1.60381e-08 1.12342e-08)
(1.79897e-05 2.15723e-07 3.51496e-08 1.24642e-07 1.66498e-08 1.28742e-08)
(1.82456e-05 6.41587e-07 1.24752e-07 1.71389e-07 -2.86361e-09 7.02695e-09)
(1.70323e-05 -2.36659e-08 1.47088e-07 7.408e-08 -3.43307e-09 4.10746e-09)
(1.73645e-05 6.0143e-08 6.32453e-08 9.60769e-08 -2.74236e-10 9.06241e-09)
(1.78731e-05 1.64718e-07 1.87727e-07 1.13525e-07 9.45122e-09 1.61862e-08)
(1.76165e-05 -1.59202e-08 2.74775e-07 6.52499e-08 1.93217e-08 2.20052e-08)
(1.73166e-05 1.6887e-07 1.04775e-07 2.08195e-07 6.15219e-09 2.57602e-08)
(1.68317e-05 -3.19874e-07 2.30964e-07 2.04813e-07 -3.67458e-08 3.3251e-08)
(1.73491e-05 -4.71477e-07 2.84169e-07 1.87161e-07 -3.95866e-08 2.93442e-08)
(1.82101e-05 -4.20096e-07 1.44819e-07 2.02078e-07 -2.53698e-08 1.50725e-08)
(1.82765e-05 -1.88906e-07 1.68532e-07 1.73227e-07 -1.66912e-08 2.48304e-08)
(1.77816e-05 -1.83978e-07 2.00864e-07 1.72591e-07 -1.46737e-08 2.98646e-08)
(1.79819e-05 -2.03289e-07 4.44093e-08 1.54442e-07 -7.12691e-10 1.10737e-08)
(1.80726e-05 -2.21653e-07 1.23751e-09 1.22789e-07 9.80105e-09 5.49763e-09)
(1.81663e-05 -4.6733e-07 8.75708e-08 1.65434e-07 -1.26989e-08 1.52615e-08)
(1.90852e-05 -9.41715e-08 -1.06268e-08 1.85666e-07 -1.89806e-08 1.47271e-08)
(1.8627e-05 3.21358e-07 -1.23277e-07 2.14906e-07 -6.86982e-10 7.35604e-09)
(1.78229e-05 -1.55037e-07 -1.2648e-07 1.94154e-07 5.21421e-09 5.71115e-09)
(1.87213e-05 5.02987e-08 -6.44043e-08 2.37103e-07 -6.75259e-09 3.02286e-09)
(1.87993e-05 9.8259e-08 -5.50383e-08 2.94368e-07 -3.32868e-09 3.03032e-09)
(1.85394e-05 -3.04829e-09 -9.20784e-08 2.65738e-07 6.16152e-09 5.51795e-09)
(1.82747e-05 3.24165e-07 1.73332e-08 2.55667e-07 -4.08277e-10 1.30783e-09)
(1.77691e-05 -1.63806e-07 -8.22137e-09 3.17525e-07 2.05085e-08 5.98442e-09)
(1.84928e-05 -5.22697e-08 7.72013e-09 3.31423e-07 3.20213e-08 1.22444e-08)
(1.84863e-05 1.19545e-07 1.64452e-07 2.05488e-07 -4.13462e-09 6.48124e-09)
(1.83732e-05 2.921e-09 6.70498e-08 1.85615e-07 -1.64666e-08 3.96743e-09)
(1.83688e-05 7.2477e-07 1.27059e-07 2.28108e-07 -9.4291e-09 1.2059e-08)
(1.70184e-05 1.35709e-07 1.97592e-07 2.319e-07 3.50197e-09 1.91285e-08)
(1.76126e-05 -8.68367e-08 -3.83854e-09 1.79712e-07 -7.918e-09 6.50296e-09)
(1.85023e-05 3.09623e-07 3.94841e-08 1.43669e-07 3.72503e-09 4.09184e-09)
(1.77992e-05 -1.92835e-08 3.05555e-08 1.26176e-07 9.99968e-09 6.47479e-09)
(1.81496e-05 1.68165e-07 -8.71615e-08 1.2018e-07 1.62281e-08 9.53958e-09)
(1.8263e-05 5.33813e-07 1.99102e-08 1.33906e-07 5.49427e-09 1.18144e-08)
(1.75346e-05 1.24528e-08 -6.67397e-08 1.64618e-07 -6.65846e-09 8.67106e-09)
(1.86762e-05 1.81645e-07 -1.14067e-07 3.38034e-07 1.30588e-08 6.06492e-09)
(1.91254e-05 8.68299e-07 -8.25579e-09 3.7749e-07 3.78694e-08 9.39215e-09)
(1.76632e-05 4.51488e-07 -5.4026e-08 3.31918e-07 3.36807e-08 1.0632e-08)
(1.81293e-05 5.00604e-07 -4.95382e-08 2.40188e-07 6.23932e-09 8.79966e-09)
(1.78498e-05 6.16197e-07 -9.98854e-10 2.03218e-07 1.33883e-08 1.58007e-08)
(1.70801e-05 -1.37465e-07 9.55243e-09 1.81148e-07 4.36381e-08 2.61965e-08)
(1.85455e-05 5.54854e-07 6.94281e-08 3.00184e-07 1.66283e-08 2.31674e-08)
(1.81137e-05 7.00202e-07 1.77137e-07 3.39702e-07 -1.36427e-08 1.07414e-08)
(1.68363e-05 -1.06571e-07 1.81e-07 2.00781e-07 -8.5833e-09 8.33652e-09)
(1.76243e-05 2.9382e-07 1.09682e-07 2.91854e-07 5.57497e-12 2.17982e-08)
(1.78949e-05 5.12335e-08 3.02343e-07 2.51369e-07 2.40532e-08 3.39775e-08)
(1.77273e-05 1.54788e-08 3.48793e-07 1.60267e-07 3.71272e-08 4.33593e-08)
(1.73242e-05 2.66186e-07 1.85714e-07 6.20483e-07 -1.00331e-08 5.62099e-08)
(1.67204e-05 -3.80419e-07 3.84698e-07 5.40723e-07 -7.08459e-08 6.39202e-08)
(1.76183e-05 -4.85167e-07 3.60792e-07 4.74255e-07 -6.8073e-08 4.81857e-08)
(1.86749e-05 -5.41207e-07 2.2424e-07 5.39957e-07 -5.01389e-08 3.66952e-08)
(1.87567e-05 -1.44934e-07 3.02471e-07 4.69139e-07 -3.49108e-08 5.66571e-08)
(1.80876e-05 -2.74501e-08 2.34289e-07 4.58136e-07 -1.57127e-08 4.67023e-08)
(1.81913e-05 -2.76092e-08 5.56926e-08 4.23773e-07 1.47443e-08 1.51902e-08)
(1.80567e-05 -2.62643e-07 4.70336e-08 3.6456e-07 2.11122e-08 1.55188e-08)
(1.84906e-05 -5.65973e-07 1.2353e-07 5.00957e-07 -3.60429e-08 3.52391e-08)
(1.98764e-05 1.32841e-07 -1.45485e-08 5.08512e-07 -3.32587e-08 2.86053e-08)
(1.88327e-05 5.45109e-07 -1.59107e-07 5.69873e-07 -1.01259e-09 1.40221e-08)
(1.7995e-05 -7.10252e-08 -1.53453e-07 5.10417e-07 -2.43587e-09 1.01954e-08)
(1.91885e-05 2.062e-07 -5.29692e-08 6.24728e-07 -2.21818e-08 4.65544e-09)
(1.91734e-05 -3.19992e-08 -1.08144e-07 7.32967e-07 -7.79658e-09 7.38607e-09)
(1.91966e-05 7.73126e-08 -1.29314e-07 6.58194e-07 2.27474e-09 1.01426e-08)
(1.85533e-05 4.65369e-07 2.41148e-08 7.50186e-07 9.18409e-09 3.72351e-09)
(1.80053e-05 -3.17624e-07 -5.04133e-08 8.77228e-07 5.90093e-08 1.75831e-08)
(1.91163e-05 7.21717e-09 6.01411e-08 7.89784e-07 5.33515e-08 2.40846e-08)
(1.8864e-05 -9.3053e-08 2.29045e-07 5.55694e-07 -3.44883e-08 1.2615e-08)
(1.90912e-05 5.15254e-08 5.92026e-08 5.31264e-07 -3.68517e-08 1.3641e-08)
(1.87036e-05 1.13566e-06 2.26099e-07 6.43026e-07 -1.56471e-08 3.41535e-08)
(1.67704e-05 3.13436e-08 1.74337e-07 5.3416e-07 -7.63846e-09 4.33546e-08)
(1.80007e-05 7.3109e-08 -6.41518e-08 4.28251e-07 -1.48077e-08 1.45862e-08)
(1.86985e-05 2.88238e-07 7.38275e-08 3.63202e-07 1.14086e-08 8.29984e-09)
(1.79607e-05 -1.07123e-07 -1.6637e-08 3.48234e-07 2.4502e-08 1.67962e-08)
(1.87044e-05 4.69362e-07 -1.19817e-07 2.98732e-07 3.06033e-08 2.86677e-08)
(1.82152e-05 6.47183e-07 2.57961e-08 3.74377e-07 8.12712e-09 2.77089e-08)
(1.75949e-05 -3.99584e-08 -1.71227e-07 4.69103e-07 -2.42437e-09 1.52182e-08)
(1.959e-05 4.16879e-07 -1.14269e-07 7.97014e-07 6.28403e-08 1.35959e-08)
(1.97913e-05 1.21077e-06 5.90667e-08 8.77734e-07 1.14726e-07 2.8093e-08)
(1.79719e-05 6.16913e-07 -8.84149e-08 7.24966e-07 7.77081e-08 2.71773e-08)
(1.85631e-05 8.65788e-07 -4.6974e-08 5.18689e-07 2.71164e-08 2.12082e-08)
(1.75594e-05 5.33488e-07 2.52753e-09 4.15267e-07 5.09233e-08 3.82482e-08)
(1.73548e-05 -1.21827e-07 2.95773e-08 5.64888e-07 9.38036e-08 5.38081e-08)
(1.92823e-05 1.05409e-06 1.17995e-07 7.04507e-07 1.81821e-09 3.71041e-08)
(1.79014e-05 5.86144e-07 2.32629e-07 6.35566e-07 -3.22612e-08 1.81281e-08)
(1.70271e-05 6.89373e-08 2.52706e-07 5.75278e-07 -3.57455e-09 1.92245e-08)
(1.79579e-05 5.48176e-07 1.74513e-07 7.7662e-07 -5.76962e-10 4.55301e-08)
(1.80382e-05 -1.96777e-07 4.42935e-07 5.57798e-07 4.75533e-08 7.00322e-08)
(1.82026e-05 2.38761e-07 4.55109e-07 4.50458e-07 8.02442e-08 8.16307e-08)
(1.75833e-05 3.28571e-07 3.38938e-07 1.57689e-06 -3.13718e-08 1.09652e-07)
(1.70565e-05 -2.61482e-07 5.71279e-07 1.30696e-06 -1.09725e-07 1.10567e-07)
(1.82371e-05 -5.56173e-07 4.3989e-07 1.15937e-06 -1.16899e-07 7.84718e-08)
(1.95618e-05 -7.40303e-07 3.73802e-07 1.37908e-06 -1.05054e-07 8.73487e-08)
(1.98272e-05 5.29411e-09 4.58153e-07 1.19049e-06 -6.41275e-08 1.06581e-07)
(1.8848e-05 2.93946e-07 2.58889e-07 1.16502e-06 -6.966e-09 6.08639e-08)
(1.86143e-05 2.1988e-07 9.38496e-08 1.1099e-06 4.11938e-08 2.85903e-08)
(1.82379e-05 -3.81489e-07 1.02714e-07 1.00601e-06 3.37525e-08 3.96015e-08)
(1.93201e-05 -6.12602e-07 1.4155e-07 1.36786e-06 -8.23782e-08 6.79179e-08)
(2.12402e-05 5.00036e-07 2.89761e-09 1.32323e-06 -5.27077e-08 5.28538e-08)
(1.93822e-05 8.68552e-07 -2.05664e-07 1.39695e-06 -4.67763e-09 2.7576e-08)
(1.85775e-05 1.48497e-07 -1.76724e-07 1.29612e-06 -3.08491e-08 1.88661e-08)
(1.99802e-05 3.33422e-07 -4.49341e-08 1.54286e-06 -5.36926e-08 9.79765e-09)
(2.0117e-05 -1.9859e-07 -2.08836e-07 1.73472e-06 -2.05487e-08 1.96795e-08)
(2.0595e-05 3.05088e-07 -1.80624e-07 1.60172e-06 -2.01259e-08 1.69104e-08)
(1.92596e-05 6.28052e-07 -3.18634e-09 1.97086e-06 4.39892e-08 1.31818e-08)
(1.8889e-05 -3.71707e-07 -8.58843e-08 2.13694e-06 1.40201e-07 4.49461e-08)
(2.02466e-05 7.37768e-08 1.70889e-07 1.77754e-06 6.50738e-08 4.24891e-08)
(1.97389e-05 -4.66709e-07 2.88927e-07 1.45988e-06 -1.1825e-07 2.42093e-08)
(2.05385e-05 2.82215e-07 7.50714e-08 1.35502e-06 -8.20068e-08 4.15553e-08)
(1.92882e-05 1.62304e-06 3.38958e-07 1.56743e-06 -2.4267e-08 8.88342e-08)
(1.68813e-05 4.06635e-08 6.2703e-08 1.2091e-06 -5.12922e-08 8.4052e-08)
(1.86767e-05 3.17745e-07 -1.38505e-07 9.84935e-07 -4.31393e-08 2.80573e-08)
(1.90364e-05 1.2616e-07 9.55696e-08 8.74211e-07 2.18873e-08 1.71968e-08)
(1.8621e-05 1.63908e-08 -1.0165e-07 8.8295e-07 5.75198e-08 4.4166e-08)
(1.95223e-05 8.99512e-07 -1.57255e-07 7.6562e-07 4.40079e-08 6.89816e-08)
(1.81706e-05 7.37418e-07 -2.39957e-08 9.12113e-07 1.09936e-08 5.52788e-08)
(1.81415e-05 8.691e-08 -2.84534e-07 1.17635e-06 4.2957e-08 2.96023e-08)
(2.11102e-05 7.91746e-07 -3.91971e-08 1.76297e-06 1.88606e-07 3.45904e-08)
(2.09958e-05 1.67887e-06 1.52942e-07 1.88711e-06 2.78106e-07 8.0082e-08)
(1.88661e-05 9.91511e-07 -1.27673e-07 1.52139e-06 1.7314e-07 6.36898e-08)
(1.91927e-05 1.30188e-06 7.51662e-09 1.13881e-06 9.95336e-08 4.86994e-08)
(1.74056e-05 3.42358e-07 1.97102e-08 9.27621e-07 1.38967e-07 8.52325e-08)
(1.81878e-05 1.4268e-07 7.30673e-08 1.45046e-06 1.6687e-07 9.89297e-08)
(2.02371e-05 1.60329e-06 1.89477e-07 1.55845e-06 -2.43956e-08 5.7416e-08)
(1.79795e-05 4.52679e-07 3.2969e-07 1.29379e-06 -3.58244e-08 3.66879e-08)
(1.77844e-05 5.86017e-07 3.75008e-07 1.5182e-06 2.58755e-08 4.34453e-08)
(1.84384e-05 6.34855e-07 2.4435e-07 1.77924e-06 8.52824e-09 8.74085e-08)
(1.87229e-05 -3.89915e-07 6.09186e-07 1.32797e-06 9.90582e-08 1.38563e-07)
(1.9263e-05 6.8146e-07 6.35558e-07 1.27956e-06 1.79517e-07 1.50709e-07)
(1.8653e-05 5.21663e-07 6.08511e-07 3.56531e-06 -3.00785e-08 1.94732e-07)
(1.82589e-05 6.32319e-08 8.16847e-07 2.90098e-06 -1.40143e-07 1.82298e-07)
(1.95504e-05 -7.59732e-07 5.54978e-07 2.71248e-06 -2.16307e-07 1.41943e-07)
(2.1434e-05 -9.0841e-07 6.2152e-07 3.27816e-06 -2.31925e-07 1.87881e-07)
(2.2052e-05 3.29907e-07 6.15855e-07 2.82093e-06 -1.17901e-07 1.69646e-07)
(2.04577e-05 8.54197e-07 2.96433e-07 2.80259e-06 -1.50206e-09 7.94458e-08)
(1.95679e-05 5.21991e-07 1.61307e-07 2.71466e-06 6.66839e-08 6.93455e-08)
(1.91028e-05 -5.4242e-07 1.20918e-07 2.56236e-06 3.54191e-08 8.53636e-08)
(2.11654e-05 -5.26654e-07 1.47123e-07 3.3765e-06 -1.62882e-07 1.19492e-07)
(2.3706e-05 1.02187e-06 6.88634e-08 3.21019e-06 -8.31396e-08 1.01514e-07)
(2.07997e-05 1.38796e-06 -2.75581e-07 3.23783e-06 -3.49124e-08 5.77085e-08)
(1.99905e-05 5.23828e-07 -1.88619e-07 3.10935e-06 -1.13234e-07 3.7556e-08)
(2.16131e-05 3.98391e-07 -6.68133e-08 3.52632e-06 -1.25096e-07 2.60389e-08)
(2.23196e-05 -3.09711e-07 -3.62614e-07 3.9008e-06 -6.16893e-08 5.13547e-08)
(2.33419e-05 7.35504e-07 -2.64391e-07 3.771e-06 -7.39089e-08 2.87605e-08)
(2.10407e-05 8.53232e-07 -5.95132e-08 4.64645e-06 1.29779e-07 3.88395e-08)
(2.1076e-05 -2.36766e-07 -4.0133e-08 4.71209e-06 2.77446e-07 1.02328e-07)
(2.23592e-05 6.25094e-08 3.99928e-07 3.85797e-06 3.87846e-08 7.57361e-08)
(2.17231e-05 -8.95684e-07 3.95613e-07 3.60995e-06 -2.94995e-07 5.07778e-08)
(2.32488e-05 7.54149e-07 1.93416e-07 3.15821e-06 -1.83044e-07 1.07601e-07)
(2.05147e-05 2.18594e-06 4.17879e-07 3.38363e-06 -6.58866e-08 2.0341e-07)
(1.77676e-05 2.91812e-07 -1.25605e-07 2.6308e-06 -1.69684e-07 1.45609e-07)
(1.98649e-05 5.4019e-07 -2.25564e-07 2.22629e-06 -1.19384e-07 4.3788e-08)
(1.99627e-05 -5.03341e-08 9.6436e-08 2.08392e-06 3.79719e-08 3.52251e-08)
(2.00879e-05 4.27675e-07 -1.91583e-07 2.06596e-06 1.18055e-07 1.05556e-07)
(2.07498e-05 1.40296e-06 -1.97799e-07 1.8507e-06 6.0062e-08 1.43759e-07)
(1.85066e-05 9.38854e-07 -1.39029e-07 2.02976e-06 2.38997e-08 9.8879e-08)
(1.95571e-05 4.28188e-07 -3.38968e-07 2.64141e-06 1.89623e-07 6.96326e-08)
(2.36641e-05 1.36728e-06 1.24308e-07 3.68521e-06 4.65843e-07 9.32501e-08)
(2.3311e-05 2.39273e-06 2.44229e-07 3.81961e-06 5.87523e-07 1.94919e-07)
(2.07245e-05 1.64125e-06 -1.31749e-07 3.09546e-06 3.80468e-07 1.36709e-07)
(2.02457e-05 1.75048e-06 1.26826e-07 2.47777e-06 2.86032e-07 1.07727e-07)
(1.78911e-05 2.20201e-07 6.61015e-08 2.21074e-06 3.21679e-07 1.7728e-07)
(1.98547e-05 6.66423e-07 1.76966e-07 3.25011e-06 2.78121e-07 1.66963e-07)
(2.17336e-05 2.15215e-06 3.18243e-07 3.22116e-06 -3.52392e-08 9.44573e-08)
(1.89771e-05 5.66547e-07 5.36844e-07 2.83587e-06 1.71034e-08 8.49709e-08)
(1.93845e-05 1.45011e-06 5.59177e-07 3.69346e-06 9.85178e-08 9.07103e-08)
(1.95677e-05 5.04457e-07 3.09495e-07 3.68657e-06 4.68293e-08 1.61533e-07)
(2.05721e-05 -3.09549e-07 8.64406e-07 3.12653e-06 2.31803e-07 2.71628e-07)
(2.12826e-05 1.29668e-06 9.38731e-07 3.32465e-06 3.77006e-07 2.71178e-07)
(2.15352e-05 1.12336e-06 1.05468e-06 7.53556e-06 6.81397e-08 3.15439e-07)
(2.09662e-05 4.81372e-07 1.13519e-06 6.23192e-06 -1.73062e-07 2.91777e-07)
(2.23644e-05 -9.98e-07 7.23066e-07 6.09425e-06 -4.20975e-07 2.82667e-07)
(2.5172e-05 -8.40344e-07 9.61604e-07 7.17146e-06 -5.00787e-07 3.64711e-07)
(2.62704e-05 9.05114e-07 8.15816e-07 6.2336e-06 -2.3764e-07 2.48178e-07)
(2.36597e-05 1.76114e-06 3.50624e-07 6.28455e-06 -4.22295e-08 1.3664e-07)
(2.17763e-05 8.60303e-07 2.68622e-07 6.17513e-06 5.0305e-08 1.7972e-07)
(2.15875e-05 -6.02647e-07 8.49303e-08 6.03763e-06 1.47895e-09 1.68181e-07)
(2.49123e-05 -1.91668e-07 1.46326e-07 7.64016e-06 -2.99475e-07 2.03333e-07)
(2.82419e-05 1.76084e-06 1.95494e-07 7.26806e-06 -1.2238e-07 1.95569e-07)
(2.40346e-05 2.22068e-06 -3.77742e-07 7.13864e-06 -1.36714e-07 1.29096e-07)
(2.3056e-05 1.07145e-06 -1.76177e-07 7.00857e-06 -3.00326e-07 8.14478e-08)
(2.5084e-05 4.59906e-07 -1.3114e-07 7.53525e-06 -2.73243e-07 7.33776e-08)
(2.68564e-05 -2.43924e-07 -5.95566e-07 8.31354e-06 -1.7753e-07 1.31638e-07)
(2.85088e-05 1.44671e-06 -4.17486e-07 8.38718e-06 -1.9001e-07 5.74733e-08)
(2.50701e-05 1.3325e-06 -1.38742e-07 9.94617e-06 2.75614e-07 9.72556e-08)
(2.56405e-05 1.53363e-07 2.04595e-07 9.59664e-06 4.49032e-07 2.08104e-07)
(2.64425e-05 -7.24409e-08 8.24131e-07 8.0375e-06 -8.3379e-08 1.3519e-07)
(2.5804e-05 -1.25455e-06 6.5295e-07 8.20066e-06 -6.1131e-07 1.15298e-07)
(2.80693e-05 1.50813e-06 4.79214e-07 6.87996e-06 -3.71372e-07 2.66585e-07)
(2.31494e-05 2.93456e-06 4.73592e-07 6.78076e-06 -2.10521e-07 4.30927e-07)
(2.00411e-05 8.55715e-07 -3.60759e-07 5.516e-06 -4.33797e-07 2.52038e-07)
(2.2133e-05 7.06204e-07 -3.10859e-07 4.84686e-06 -2.71905e-07 6.49586e-08)
(2.2222e-05 2.06218e-08 1.10805e-07 4.74151e-06 7.93821e-08 8.31376e-08)
(2.28132e-05 1.14236e-06 -2.63266e-07 4.56525e-06 2.21578e-07 2.36878e-07)
(2.28317e-05 2.03395e-06 -2.50834e-07 4.11685e-06 1.10186e-07 2.79977e-07)
(1.98076e-05 1.42207e-06 -2.80782e-07 4.27394e-06 7.58325e-08 1.77577e-07)
(2.24024e-05 1.00955e-06 -2.75479e-07 5.44682e-06 5.18957e-07 1.6791e-07)
(2.8009e-05 2.2705e-06 3.60274e-07 7.29072e-06 9.98922e-07 2.34598e-07)
(2.75768e-05 3.50231e-06 3.43669e-07 7.38183e-06 1.15289e-06 4.2275e-07)
(2.41664e-05 2.58047e-06 -3.50349e-08 6.09252e-06 8.17941e-07 2.75815e-07)
(2.23535e-05 2.21686e-06 3.54211e-07 5.18432e-06 6.91058e-07 2.35479e-07)
(1.98025e-05 3.80655e-07 2.12393e-07 5.09874e-06 6.74902e-07 3.5354e-07)