/*--------------------------------*- C++ -*----------------------------------*\
  =========                 |
  \\      /  F ield         | OpenFOAM: The Open Source CFD Toolbox
   \\    /   O peration     | Website:  https://openfoam.org
    \\  /    A nd           | Version:  10
     \\/     M anipulation  |
\*---------------------------------------------------------------------------*/
FoamFile
{
    format      ascii;
    class       volSymmTensorField;
    location    "45";
    object      UPrime2Mean;
}
// * * * * * * * * * * * * * * * * * * * * * * * * * * * * * * * * * * * * * //

dimensions      [0 2 -2 0 0 0 0];

internalField   nonuniform List<symmTensor> 
25600
(
(0.00413402 8.37242e-08 -2.23304e-05 7.55269e-10 7.17387e-09 2.80138e-06)
(0.00411576 5.96389e-07 4.00804e-05 8.87137e-10 1.41758e-08 2.91694e-06)
(0.00410586 3.62743e-07 3.78993e-05 8.21452e-10 1.58144e-08 2.64937e-06)
(0.00407772 -5.39996e-07 1.77358e-05 8.41313e-10 9.95278e-09 2.65989e-06)
(0.00410293 -2.1219e-07 -2.83166e-05 9.65e-10 7.57198e-09 2.86198e-06)
(0.00412182 3.03136e-07 -8.02992e-06 8.97036e-10 9.68991e-09 2.45774e-06)
(0.00409916 6.15817e-07 2.47304e-05 8.94256e-10 1.28668e-08 2.48018e-06)
(0.00408409 -3.0699e-09 4.12068e-05 6.84854e-10 1.35575e-08 2.63328e-06)
(0.00410227 -1.89265e-07 8.28853e-07 7.19856e-10 1.50766e-08 2.42529e-06)
(0.00408353 -4.60427e-07 -1.86907e-05 8.40017e-10 1.50121e-08 2.58111e-06)
(0.00410489 1.40564e-08 -1.39931e-05 7.49009e-10 8.56969e-09 2.60121e-06)
(0.00408224 5.22168e-07 3.10172e-05 8.20485e-10 8.34709e-09 2.86988e-06)
(0.00408903 2.48819e-07 4.01596e-05 6.83663e-10 7.79591e-09 2.95455e-06)
(0.00405704 -3.06036e-07 1.46844e-05 6.25943e-10 3.26153e-09 2.76587e-06)
(0.00410273 -7.02915e-07 -2.54526e-05 9.0581e-10 1.47297e-08 2.88426e-06)
(0.00411266 -2.57862e-07 -6.95534e-06 9.77697e-10 1.5081e-08 2.65428e-06)
(0.00413404 1.22607e-06 3.10248e-05 1.74857e-09 2.926e-08 3.00954e-06)
(0.00409858 6.72873e-08 4.49839e-05 9.74762e-10 1.94185e-08 3.34144e-06)
(0.00410787 -6.20662e-07 6.70099e-06 9.55009e-10 1.7796e-08 3.05829e-06)
(0.00412677 -1.09814e-06 -2.73837e-05 1.23601e-09 2.54299e-08 3.07903e-06)
(0.00414889 2.17965e-07 -7.64997e-06 1.07688e-09 1.23152e-08 2.60927e-06)
(0.00412635 2.89379e-07 3.16255e-05 9.94297e-10 7.31869e-09 2.83511e-06)
(0.00409821 2.35339e-07 4.06373e-05 8.59282e-10 1.2621e-08 2.89319e-06)
(0.00412431 -6.99708e-07 1.00515e-05 9.47584e-10 8.0982e-09 2.83691e-06)
(0.00411339 3.37815e-07 -3.04244e-05 1.13665e-09 2.22387e-09 3.11509e-06)
(0.00414408 -1.35412e-07 -8.3052e-06 9.1148e-10 1.47727e-08 2.69409e-06)
(0.00412266 8.89218e-07 2.36488e-05 1.29928e-09 1.75986e-08 2.70836e-06)
(0.00410431 4.66098e-07 4.27346e-05 9.51744e-10 1.86093e-08 2.76297e-06)
(0.00411768 -8.20992e-07 -2.23356e-06 9.20969e-10 1.35082e-08 2.46763e-06)
(0.0041268 -5.72665e-07 -2.67004e-05 9.19823e-10 1.42746e-08 2.85479e-06)
(0.00412946 -2.14693e-08 -1.4662e-05 9.40569e-10 1.83567e-08 2.7427e-06)
(0.00413918 3.80988e-07 3.28432e-05 9.39005e-10 1.83662e-08 2.73673e-06)
(0.00411457 1.57605e-07 3.78438e-05 9.17742e-10 1.68454e-08 2.56609e-06)
(0.0041004 -8.15772e-07 1.20134e-05 8.72163e-10 1.02894e-08 2.49452e-06)
(0.00413262 -9.15431e-07 -2.92733e-05 1.03303e-09 1.77953e-08 2.74883e-06)
(0.00413475 2.45071e-07 -1.68027e-06 8.51911e-10 1.05493e-08 2.40871e-06)
(0.00412112 5.33687e-07 2.22237e-05 9.19847e-10 1.24705e-08 2.58595e-06)
(0.00408569 -1.24611e-07 4.61464e-05 7.36673e-10 1.19643e-08 3.02731e-06)
(0.00411431 -5.65762e-07 -4.14368e-07 7.62007e-10 1.29386e-08 2.73537e-06)
(0.00413284 -7.74335e-07 -2.69462e-05 8.99489e-10 1.69775e-08 3.09539e-06)
(0.0165697 -4.30847e-06 -4.16289e-05 2.43713e-08 -1.65295e-07 1.88735e-05)
(0.0164507 4.28519e-07 8.67903e-05 2.43603e-08 -1.65805e-07 1.92285e-05)
(0.0165438 5.80729e-07 0.000103232 2.34119e-08 -1.49595e-07 1.8307e-05)
(0.0163618 6.26265e-07 0.00011024 2.22523e-08 -1.03251e-07 1.89114e-05)
(0.0164349 -3.77292e-06 -3.38394e-05 2.4406e-08 -5.00502e-08 2.06785e-05)
(0.016419 -3.54038e-06 -1.00051e-05 2.494e-08 -9.06944e-08 1.7559e-05)
(0.0164916 1.67715e-06 4.84898e-05 2.52569e-08 -8.6028e-08 1.77483e-05)
(0.0163325 -2.62575e-07 0.000129779 2.11413e-08 -9.74525e-08 1.78639e-05)
(0.0164514 -2.0502e-08 6.27659e-05 2.19497e-08 -9.33741e-08 1.68055e-05)
(0.0162838 -1.70454e-06 2.13273e-06 2.09831e-08 -1.18208e-07 1.81759e-05)
(0.0164311 -3.91655e-06 -3.65959e-05 2.2269e-08 -1.57591e-07 1.77341e-05)
(0.0162758 6.35785e-07 5.47926e-05 2.13281e-08 -1.609e-07 1.94559e-05)
(0.0164218 3.10268e-07 0.000112279 2.20712e-08 -1.18155e-07 2.03608e-05)
(0.0162064 1.02275e-07 8.48713e-05 2.28825e-08 -6.96258e-08 1.99177e-05)
(0.0164054 -7.17714e-06 -1.90027e-05 2.91589e-08 -3.78052e-08 2.1165e-05)
(0.0163138 -6.2447e-06 -2.79418e-05 2.80775e-08 -1.51012e-07 2.02562e-05)
(0.0165944 -4.77648e-06 9.26818e-05 2.91698e-08 -1.98454e-07 2.468e-05)
(0.0164551 -7.71712e-07 0.000144924 2.83243e-08 -1.39064e-07 2.43962e-05)
(0.0165177 -6.0477e-06 0.000100397 3.01373e-08 -1.07171e-07 2.14984e-05)
(0.0165193 -8.79741e-06 -1.7039e-05 3.50807e-08 -7.66151e-08 1.98365e-05)
(0.0165517 -7.66206e-06 -8.1538e-08 3.62359e-08 -1.52809e-07 1.68638e-05)
(0.0166371 -2.04498e-06 3.87018e-05 3.63887e-08 -2.13834e-07 1.78324e-05)
(0.0164806 -1.48052e-06 0.000119546 2.73679e-08 -1.81162e-07 1.95275e-05)
(0.0166367 -3.94505e-06 6.48242e-05 2.37706e-08 -1.08407e-07 2.09377e-05)
(0.016518 -5.38719e-06 -4.65596e-05 2.47847e-08 3.20376e-08 2.21795e-05)
(0.0166457 -8.38133e-06 -5.25496e-06 3.17047e-08 -1.3739e-08 1.91317e-05)
(0.0165962 -1.34151e-06 1.20882e-05 3.30609e-08 -8.07232e-08 1.8104e-05)
(0.01657 -1.10495e-06 0.000130608 2.9946e-08 -1.47427e-07 1.83527e-05)
(0.0165715 -4.33695e-06 2.14191e-05 2.3846e-08 -1.06321e-07 1.82687e-05)
(0.0165919 -7.2669e-06 -1.96739e-05 2.39165e-08 -8.95652e-08 2.00064e-05)
(0.0165578 -5.5558e-06 -5.75085e-05 2.34827e-08 -2.36147e-08 1.98333e-05)
(0.0166327 -4.9576e-06 8.0322e-05 2.48022e-08 -3.04421e-08 2.16827e-05)
(0.0166397 3.35945e-09 0.000123258 2.55143e-08 -2.8821e-08 1.85342e-05)
(0.0164617 -4.3115e-06 9.64443e-05 2.41121e-08 -1.07592e-07 1.7229e-05)
(0.0165685 -5.88459e-06 -1.26617e-06 2.53627e-08 -1.30044e-07 1.82194e-05)
(0.0164587 -5.63931e-06 1.08075e-05 2.48163e-08 -1.76025e-07 1.83153e-05)
(0.0166434 6.58642e-07 7.00388e-05 2.5411e-08 -1.10768e-07 2.12136e-05)
(0.0164101 1.02456e-06 0.000178194 2.07457e-08 -9.26398e-08 2.27456e-05)
(0.0165818 -4.06128e-06 5.94144e-05 2.19469e-08 -8.15483e-08 2.05004e-05)
(0.0164485 -4.28125e-06 1.67201e-05 2.25101e-08 -1.33103e-07 2.08123e-05)
(0.0276481 -4.47377e-06 -6.17874e-05 1.00957e-07 -6.7601e-07 4.7966e-05)
(0.0273658 5.36397e-06 6.18907e-05 1.06497e-07 -5.72118e-07 4.99175e-05)
(0.0276477 3.44951e-06 0.000119392 1.05373e-07 -5.28269e-07 4.83491e-05)
(0.0272873 5.77531e-06 6.67696e-05 1.01602e-07 -5.06085e-07 4.67334e-05)
(0.0275413 1.98985e-07 -5.74439e-05 1.01206e-07 -3.46157e-07 4.7907e-05)
(0.0271788 -5.51253e-07 -7.05485e-05 9.36781e-08 -4.29011e-07 4.31444e-05)
(0.0275277 5.57368e-06 5.44121e-05 1.00573e-07 -4.37939e-07 4.62085e-05)
(0.0271576 3.4458e-06 0.000141149 8.73592e-08 -6.54783e-07 4.69586e-05)
(0.0275194 4.75368e-06 6.03821e-05 9.4531e-08 -5.96128e-07 4.57918e-05)
(0.0271184 3.91986e-06 -5.06667e-05 8.70734e-08 -5.62537e-07 5.02043e-05)
(0.0274266 -1.46273e-06 -6.80261e-05 9.63556e-08 -6.34795e-07 4.69449e-05)
(0.027155 6.89434e-06 7.12938e-05 9.18329e-08 -5.26588e-07 5.28146e-05)
(0.0274214 1.50587e-06 0.000142796 9.6055e-08 -4.8346e-07 5.31144e-05)
(0.0270861 6.1115e-06 8.35418e-05 9.63249e-08 -4.00938e-07 5.17224e-05)
(0.0273845 -5.90401e-06 -6.13287e-05 1.07771e-07 -4.02706e-07 5.46903e-05)
(0.0271713 -6.43707e-06 -5.27464e-05 1.08206e-07 -6.09995e-07 4.78998e-05)
(0.0275269 -5.73636e-06 6.49583e-05 1.23651e-07 -7.46893e-07 5.43348e-05)
(0.0273078 -1.76471e-06 0.000121791 1.2173e-07 -8.0967e-07 5.87676e-05)
(0.0276048 -9.49106e-06 7.94291e-05 1.23242e-07 -7.99422e-07 5.59596e-05)
(0.0274498 -1.01655e-05 -0.000106531 1.40366e-07 -7.41109e-07 5.31434e-05)
(0.0275736 -1.37055e-05 -3.39003e-05 1.39593e-07 -6.93284e-07 4.5043e-05)
(0.0276525 -8.05646e-06 1.56858e-05 1.4503e-07 -7.2023e-07 4.99532e-05)
(0.0276755 -3.06394e-06 0.000146323 1.11388e-07 -6.89283e-07 5.17151e-05)
(0.0277582 -9.88739e-06 2.23487e-05 1.07887e-07 -6.31406e-07 5.23842e-05)
(0.0277228 -5.46833e-06 -5.95159e-05 9.35621e-08 -4.50603e-07 5.66847e-05)
(0.0277167 -1.60023e-05 -0.000102454 1.20547e-07 -2.94339e-07 5.25463e-05)
(0.0277222 -3.9087e-06 4.7184e-05 1.15975e-07 -3.97137e-07 5.08552e-05)
(0.0277917 -5.96433e-06 0.000118333 1.16395e-07 -7.69806e-07 4.60635e-05)
(0.0277114 -5.68259e-06 4.49168e-05 9.11563e-08 -6.84665e-07 4.49164e-05)
(0.0276982 -1.01106e-05 -6.48816e-05 9.26325e-08 -4.98103e-07 5.18194e-05)
(0.0276959 -7.50756e-06 -0.000104727 8.39805e-08 -1.73375e-07 5.06301e-05)
(0.0275983 -8.94098e-06 2.79533e-05 9.45331e-08 -1.50629e-08 5.38592e-05)
(0.0278109 3.18809e-06 0.000133485 9.70638e-08 2.73962e-08 4.87845e-05)
(0.027453 -4.4534e-06 4.0226e-05 9.69261e-08 -3.0742e-07 4.47058e-05)
(0.0277422 -4.62937e-06 -1.55069e-05 9.96132e-08 -4.96284e-07 4.68793e-05)
(0.0273444 -6.85259e-06 -6.31028e-05 9.86498e-08 -6.92613e-07 4.80916e-05)
(0.0277587 -7.66819e-07 0.000111319 1.03392e-07 -7.55127e-07 5.87169e-05)
(0.0274708 1.33654e-06 0.000190048 9.23795e-08 -9.23004e-07 5.75553e-05)
(0.027804 -3.3666e-06 8.22141e-05 9.51765e-08 -8.275e-07 5.24915e-05)
(0.0274125 1.80198e-06 -2.91046e-05 9.48572e-08 -7.95654e-07 5.32665e-05)
(0.0332212 1.75036e-05 -0.000166161 3.98268e-07 2.03866e-08 9.94334e-05)
(0.0328491 3.26551e-05 -6.67716e-05 3.8928e-07 2.2222e-07 0.000105526)
(0.0331704 2.46218e-05 3.92487e-05 3.73125e-07 3.78229e-07 9.93651e-05)
(0.0327602 3.3226e-05 -6.87221e-05 3.55805e-07 7.10082e-08 9.26558e-05)
(0.0330824 2.24008e-05 -0.000148324 3.31787e-07 1.98253e-07 9.12218e-05)
(0.0326891 2.94332e-05 -0.000206758 3.14127e-07 5.62074e-09 8.5128e-05)
(0.0330161 2.42293e-05 -3.15019e-05 3.21532e-07 -4.17518e-08 8.90937e-05)
(0.0327094 3.26325e-05 7.28078e-06 3.34695e-07 -4.17852e-07 9.15125e-05)
(0.0330885 2.42667e-05 4.87111e-07 3.50471e-07 -2.23191e-07 9.22819e-05)
(0.0326219 3.18305e-05 -0.00018813 3.58833e-07 -4.70612e-08 0.000101043)
(0.0329857 1.77772e-05 -0.000167391 3.54991e-07 2.25772e-07 9.2958e-05)
(0.0325923 3.1007e-05 -4.35134e-05 3.28427e-07 3.33984e-07 9.96152e-05)
(0.0330239 1.89527e-05 6.65836e-05 3.21071e-07 5.47871e-07 9.5507e-05)
(0.0326149 3.15289e-05 -1.86584e-05 3.03098e-07 3.03138e-07 9.1299e-05)
(0.0329377 9.57141e-06 -9.36518e-05 3.33781e-07 1.20136e-07 9.26951e-05)
(0.0326118 1.78288e-05 -0.000185018 3.51691e-07 -3.88863e-07 8.81724e-05)
(0.0329843 1.01004e-05 1.57643e-05 4.06533e-07 -4.7789e-07 9.91771e-05)
(0.0326986 1.65117e-05 6.62974e-06 4.23507e-07 -6.94782e-07 0.000107682)
(0.0331259 3.24091e-06 2.39511e-05 4.54527e-07 -3.86944e-07 0.000109064)
(0.0328135 6.02421e-06 -0.000286603 4.91042e-07 2.02643e-09 0.000114227)
(0.0332129 9.81535e-08 -0.000150274 4.65581e-07 9.80893e-08 9.25402e-05)
(0.0329556 8.43748e-06 -0.000154636 4.31584e-07 -4.81444e-08 9.44978e-05)
(0.0332335 8.68667e-06 3.86333e-05 3.47531e-07 -1.89683e-07 9.9549e-05)
(0.0331065 6.96856e-06 -0.000148635 3.52064e-07 -1.05444e-07 0.000104994)
(0.0333479 1.24842e-05 -0.000205945 2.97797e-07 5.01151e-08 0.00011511)
(0.0330968 3.57358e-06 -0.000292843 3.41295e-07 3.59786e-07 0.000104284)
(0.0332099 1.17974e-05 -5.07328e-05 3.26892e-07 4.25656e-07 9.70539e-05)
(0.033164 1.61891e-05 -4.8483e-05 3.72563e-07 1.94884e-07 8.747e-05)
(0.0332449 1.32341e-05 -2.29512e-05 3.42099e-07 2.51069e-07 8.84923e-05)
(0.0330631 1.01835e-05 -0.000210181 3.8845e-07 7.20663e-07 0.000103113)
(0.0332938 1.37399e-05 -0.000219995 3.51089e-07 1.31759e-06 0.00010167)
(0.0329628 1.02504e-05 -9.14933e-05 3.7041e-07 1.40283e-06 0.000111464)
(0.0334272 2.47099e-05 5.64558e-05 3.23894e-07 1.39713e-06 0.000104928)
(0.0329891 1.80463e-05 -8.0407e-05 3.28921e-07 4.66061e-07 9.89848e-05)
(0.0333837 1.91693e-05 -0.000129696 3.35896e-07 -2.46896e-07 9.8436e-05)
(0.03288 2.29096e-05 -0.000191603 3.74578e-07 -8.76877e-07 9.14999e-05)
(0.0333084 1.90578e-05 -7.42033e-06 4.15994e-07 -1.24249e-06 9.53435e-05)
(0.0328489 2.05469e-05 -1.32566e-06 4.39382e-07 -1.45138e-06 9.72019e-05)
(0.0332728 1.97065e-05 1.30508e-05 4.22535e-07 -7.97874e-07 9.80529e-05)
(0.0328461 3.00185e-05 -0.000219689 4.0521e-07 -3.72764e-07 0.000109855)
(0.0331022 6.93815e-05 -0.000146217 1.35955e-06 1.72471e-06 0.000153101)
(0.032685 8.73888e-05 -0.000133815 1.33617e-06 1.74156e-06 0.000157823)
(0.0329952 6.87788e-05 4.8851e-05 1.22892e-06 2.18293e-06 0.000159922)
(0.0327357 8.73053e-05 -0.00014606 1.17244e-06 1.85195e-06 0.000156223)
(0.033064 6.78711e-05 -0.000198195 1.07654e-06 2.19908e-06 0.000160179)
(0.0327127 8.79565e-05 -0.000272945 1.0705e-06 1.62559e-06 0.000148783)
(0.0330185 6.95568e-05 -2.75078e-05 1.0819e-06 1.6911e-06 0.000156664)
(0.0327478 8.96718e-05 -2.77406e-05 1.16975e-06 1.28731e-06 0.000159278)
(0.033058 6.93763e-05 -2.222e-07 1.21665e-06 1.63345e-06 0.000158486)
(0.0327271 8.81483e-05 -0.000257868 1.27112e-06 1.9193e-06 0.000166677)
(0.0330124 6.42855e-05 -0.000187739 1.26148e-06 2.93259e-06 0.000148363)
(0.0326575 8.34813e-05 -0.00013906 1.19222e-06 3.07854e-06 0.000149695)
(0.032958 6.63523e-05 1.09603e-05 1.12361e-06 3.45086e-06 0.00014666)
(0.032667 8.4405e-05 -9.52342e-05 1.0335e-06 2.64796e-06 0.000144662)
(0.0329598 5.62062e-05 -0.000171945 1.06903e-06 2.18054e-06 0.000154849)
(0.0326489 7.31546e-05 -0.000248628 1.16102e-06 8.49775e-07 0.000146634)
(0.0329183 5.21244e-05 -1.8045e-05 1.39869e-06 5.89148e-07 0.00015723)
(0.0327341 6.22769e-05 -2.84206e-05 1.49776e-06 4.11237e-07 0.000161876)
(0.0330773 4.27869e-05 -1.59966e-05 1.61289e-06 1.24048e-06 0.000164484)
(0.0326913 5.60404e-05 -0.000288583 1.56769e-06 2.00585e-06 0.000177928)
(0.0331108 4.06582e-05 -0.00021301 1.48909e-06 2.74136e-06 0.000155703)
(0.032692 6.4397e-05 -0.000142302 1.33527e-06 2.67406e-06 0.000154895)
(0.0331585 5.28105e-05 -8.41471e-06 1.15463e-06 2.26692e-06 0.000148196)
(0.0326981 6.64441e-05 -0.000110831 1.16122e-06 2.33882e-06 0.000148394)
(0.0331143 6.0595e-05 -0.00016138 1.06568e-06 2.60956e-06 0.000156388)
(0.0326592 6.18617e-05 -0.000261666 1.12822e-06 1.86758e-06 0.000150272)
(0.0330269 6.00225e-05 -8.80807e-05 1.12724e-06 1.84419e-06 0.000149683)
(0.0326747 6.21335e-05 -6.58287e-05 1.28314e-06 1.62545e-06 0.000148517)
(0.0331118 6.31588e-05 -7.78937e-05 1.27172e-06 2.17841e-06 0.000147687)
(0.0327118 6.60789e-05 -0.000264342 1.43654e-06 2.5752e-06 0.000162425)
(0.0330995 6.57191e-05 -0.000200899 1.32913e-06 3.57438e-06 0.000161787)
(0.0327499 6.42223e-05 -0.000132708 1.37161e-06 3.4366e-06 0.000178201)
(0.0332105 7.32272e-05 4.05214e-05 1.17258e-06 3.57739e-06 0.000172085)
(0.0327986 7.36958e-05 -0.000123157 1.1637e-06 2.29441e-06 0.000163632)
(0.0331898 7.13002e-05 -0.000156993 1.09084e-06 1.57452e-06 0.000161314)
(0.032746 7.62635e-05 -0.000239438 1.19925e-06 4.70998e-07 0.000148674)
(0.0331259 7.19583e-05 -2.00475e-05 1.23371e-06 8.99951e-08 0.00015324)
(0.0327906 7.63752e-05 -1.66877e-05 1.34351e-06 -5.63559e-07 0.000158807)
(0.0332482 6.87321e-05 -1.42264e-06 1.34452e-06 3.93239e-07 0.000159416)
(0.0327755 8.92511e-05 -0.000232235 1.38428e-06 8.31187e-07 0.000165268)
(0.0292812 0.000117898 1.25371e-06 3.27667e-06 3.19094e-06 0.000193341)
(0.02893 0.000136078 3.23552e-05 3.31475e-06 2.64183e-06 0.000196003)
(0.0292617 0.000108521 0.000160575 3.06393e-06 2.89631e-06 0.000192564)
(0.0290783 0.000136407 6.0482e-05 2.8578e-06 3.03549e-06 0.000188903)
(0.0292081 0.00011368 1.91892e-05 2.68592e-06 3.89544e-06 0.000193812)
(0.0290707 0.000136367 -4.53443e-05 2.73734e-06 3.2685e-06 0.000189126)
(0.029293 0.000115133 0.000137459 2.81763e-06 3.255e-06 0.000203087)
(0.0290874 0.000134037 0.000116508 3.02648e-06 2.99674e-06 0.000211106)
(0.0293789 0.000112237 0.000133087 3.10237e-06 3.5138e-06 0.00020889)
(0.0290966 0.000131985 -0.000119769 3.1325e-06 4.0449e-06 0.000206948)
(0.0293343 0.000114963 -2.58257e-05 3.0026e-06 5.00145e-06 0.000182747)
(0.0290221 0.000131056 -3.68694e-05 2.84023e-06 5.27991e-06 0.000182651)
(0.0292401 0.000112099 0.000127187 2.69732e-06 5.4892e-06 0.000182588)
(0.029065 0.000129542 -1.13128e-05 2.55819e-06 4.52782e-06 0.000182068)
(0.0292649 0.000107881 -5.22287e-05 2.63467e-06 4.02319e-06 0.000188969)
(0.0289318 0.000125 -8.33885e-05 2.89009e-06 2.33092e-06 0.000186122)
(0.0292188 0.000105376 6.1995e-05 3.39089e-06 1.92823e-06 0.000195379)
(0.0288982 0.0001104 8.24679e-05 3.73732e-06 1.64545e-06 0.000192402)
(0.0291425 9.90117e-05 5.5865e-05 3.98053e-06 2.8321e-06 0.000189984)
(0.0288769 0.000113317 -7.44801e-05 3.85073e-06 3.16545e-06 0.000201537)
(0.0291454 9.83688e-05 -8.30836e-05 3.52961e-06 4.58623e-06 0.00019819)
(0.0287779 0.000117342 6.40227e-06 3.18484e-06 4.67525e-06 0.000198871)
(0.0292405 0.000109168 0.000133067 2.92317e-06 4.72962e-06 0.000189394)
(0.0287897 0.000121004 2.59252e-05 2.95614e-06 4.25555e-06 0.000184932)
(0.0292131 0.00011185 -4.37994e-06 2.8804e-06 4.59879e-06 0.000190903)
(0.0287277 0.000119213 -8.28048e-05 3.04206e-06 3.54977e-06 0.00018829)
(0.0291454 0.000112157 6.81378e-05 3.03943e-06 3.52081e-06 0.000196552)
(0.0287705 0.000113191 0.000104853 3.29689e-06 2.80953e-06 0.000200195)
(0.0292122 0.000113639 7.18225e-05 3.23501e-06 3.69422e-06 0.000197312)
(0.0288805 0.000122872 -0.000102544 3.47996e-06 4.20561e-06 0.000202518)
(0.0291679 0.000115877 -1.44246e-05 3.319e-06 5.5602e-06 0.000199766)
(0.0289229 0.000118808 -3.2399e-05 3.41978e-06 5.11737e-06 0.000209207)
(0.0291951 0.000120157 0.000166075 3.01823e-06 5.13096e-06 0.000212022)
(0.0290264 0.000126387 -4.55973e-05 2.98471e-06 3.87355e-06 0.000205344)
(0.0292737 0.000122472 -2.76879e-05 2.73787e-06 3.35588e-06 0.000203223)
(0.028957 0.000126556 -0.000117466 2.91203e-06 2.00649e-06 0.000191764)
(0.0292621 0.000120286 0.000118293 2.89815e-06 1.28782e-06 0.000197902)
(0.0290464 0.00012733 7.78982e-05 3.15626e-06 1.03605e-06 0.000193188)
(0.0293295 0.000117767 0.000146883 3.15912e-06 2.43907e-06 0.000196238)
(0.0289658 0.000139193 -6.86592e-05 3.29142e-06 2.66121e-06 0.000205181)
(0.0237553 0.000127545 0.000159392 6.01435e-06 4.2032e-06 0.000210602)
(0.0235337 0.000144373 0.00020976 5.94295e-06 3.51955e-06 0.00021592)
(0.0237957 0.000121729 0.000336026 5.54333e-06 3.15507e-06 0.000213777)
(0.0235459 0.000145095 0.000220184 5.25076e-06 3.18225e-06 0.000207425)
(0.0238425 0.000127794 0.000211367 5.0701e-06 3.44363e-06 0.000214282)
(0.0235471 0.000146251 0.000125683 5.3174e-06 2.95479e-06 0.000209437)
(0.0238802 0.000128313 0.000309772 5.59927e-06 2.81999e-06 0.000219648)
(0.0235962 0.000139497 0.000263535 5.97323e-06 3.12933e-06 0.000215686)
(0.023918 0.000124492 0.00032112 5.98104e-06 3.68547e-06 0.000210003)
(0.0235193 0.000139616 0.000134583 5.81309e-06 4.59587e-06 0.000200739)
(0.023854 0.000126646 0.000215984 5.46539e-06 5.05648e-06 0.000181596)
(0.0235101 0.0001404 0.000176293 5.11728e-06 5.10831e-06 0.00017667)
(0.0237573 0.000122289 0.000263011 4.92769e-06 5.09433e-06 0.000174934)
(0.0234554 0.000137938 0.000183312 4.79364e-06 4.743e-06 0.000173918)
(0.0237785 0.000123619 0.000152327 5.01645e-06 4.52142e-06 0.000183077)
(0.0233701 0.000138443 0.000123713 5.52221e-06 2.7706e-06 0.000189334)
(0.023714 0.000124337 0.0002167 6.22344e-06 1.93181e-06 0.000204978)
(0.0233793 0.000125297 0.000280943 6.76085e-06 1.42555e-06 0.000207635)
(0.0237014 0.000123008 0.00021743 7.08159e-06 2.43607e-06 0.000205341)
(0.023359 0.00012992 0.000137882 6.98879e-06 2.34297e-06 0.000210422)
(0.0236671 0.000127747 0.000157278 6.42911e-06 3.41695e-06 0.000207246)
(0.0233012 0.000130819 0.000201556 5.95862e-06 3.70402e-06 0.000206333)
(0.0237096 0.000125381 0.000307229 5.66159e-06 4.29049e-06 0.000200006)
(0.0233856 0.000131135 0.000221682 5.83987e-06 3.75689e-06 0.000195065)
(0.0236787 0.000124513 0.000204985 5.92814e-06 4.08563e-06 0.000201396)
(0.0233312 0.000133047 0.000146285 6.20696e-06 3.71478e-06 0.000198563)
(0.0236359 0.000123963 0.000283966 6.08489e-06 3.97801e-06 0.000209644)
(0.0234085 0.00012889 0.000302998 6.1873e-06 3.97957e-06 0.000203289)
(0.0236934 0.00012549 0.000275141 5.9547e-06 4.67668e-06 0.000200209)
(0.0234355 0.000135863 0.000166125 6.1852e-06 4.67554e-06 0.000206531)
(0.0236891 0.000129685 0.000176549 5.96197e-06 5.35072e-06 0.000207181)
(0.0234218 0.00013497 0.000208262 6.16769e-06 4.73898e-06 0.00020845)
(0.0237242 0.000130302 0.000294652 5.6733e-06 5.01363e-06 0.000200108)
(0.0234634 0.000139584 0.000210664 5.58864e-06 4.33305e-06 0.000191048)
(0.023699 0.000135613 0.000195798 5.16116e-06 3.83613e-06 0.000192635)
(0.023443 0.000139569 0.000132729 5.3353e-06 2.67199e-06 0.000187677)
(0.0236773 0.000128258 0.000247189 5.37003e-06 1.70585e-06 0.000194183)
(0.0235194 0.000137402 0.00025711 5.82174e-06 1.65292e-06 0.000195566)
(0.0237398 0.000130011 0.000252299 5.88375e-06 3.06243e-06 0.000200172)
(0.0235513 0.000146335 0.000114411 6.11006e-06 4.11733e-06 0.000213077)
(0.0179319 0.000106155 0.000258971 8.92226e-06 9.35226e-07 0.000177884)
(0.0177691 0.000112819 0.000307919 8.66105e-06 6.70172e-07 0.000180344)
(0.0179701 0.000100913 0.000365109 8.06472e-06 1.49867e-07 0.000179899)
(0.0177998 0.000111104 0.000332123 7.80816e-06 -5.02407e-07 0.000177642)
(0.0179871 0.000101004 0.000283972 7.75651e-06 -5.92044e-07 0.000182421)
(0.0178282 0.000113593 0.000287537 8.22896e-06 -6.47602e-07 0.000176622)
(0.0180122 0.000101205 0.00032619 8.75741e-06 -3.42175e-07 0.00018014)
(0.0178254 0.000109584 0.000345802 9.24269e-06 4.08833e-08 0.000179103)
(0.0180043 0.000100197 0.000327035 9.19596e-06 6.77768e-07 0.000174668)
(0.0178287 0.000111719 0.000267516 8.74197e-06 1.43812e-06 0.000171067)
(0.0179752 0.000101829 0.000269827 8.12077e-06 2.00572e-06 0.000162211)
(0.0177727 0.000110824 0.000300087 7.57387e-06 1.9277e-06 0.00015782)
(0.0179621 9.99806e-05 0.000334354 7.36119e-06 1.77911e-06 0.000155176)
(0.0177519 0.000108553 0.000314004 7.37146e-06 1.66446e-06 0.000155171)
(0.0179658 0.000102551 0.000268053 7.79651e-06 1.34155e-06 0.000165153)
(0.0177458 0.000111493 0.00027177 8.37136e-06 5.46137e-07 0.000164665)
(0.0179602 0.000104222 0.000327809 8.98783e-06 -9.38381e-08 0.000172812)
(0.0177584 0.000106642 0.00036072 9.51882e-06 -7.5043e-07 0.000172645)
(0.0179115 0.000104993 0.000334767 9.90701e-06 -7.4363e-07 0.000171642)
(0.0177517 0.000111096 0.000289292 9.96675e-06 -1.0962e-06 0.000176714)
(0.0178904 0.000111525 0.00029236 9.47226e-06 -1.72296e-07 0.000177046)
(0.0177308 0.00011002 0.000321928 9.01504e-06 4.44544e-07 0.000176849)
(0.0178861 0.000104369 0.000368711 8.78029e-06 7.89562e-07 0.000175045)
(0.0176841 0.000108824 0.000335097 9.18542e-06 1.18164e-07 0.000171545)
(0.0178675 0.000104313 0.000306137 9.46053e-06 9.75871e-08 0.000172318)
(0.0176598 0.000110259 0.000293184 9.85921e-06 1.9007e-07 0.000164363)
(0.017838 0.000102032 0.000334609 9.57792e-06 9.31088e-07 0.000164199)
(0.0176469 0.000102428 0.000352841 9.47507e-06 1.42433e-06 0.000162868)
(0.0178364 0.000101117 0.000331666 8.868e-06 1.79067e-06 0.000166603)
(0.0176734 0.000107961 0.000268965 8.94851e-06 1.48247e-06 0.000173773)
(0.0178733 0.000104677 0.000268858 8.72926e-06 1.13325e-06 0.000174496)
(0.0176422 0.00011175 0.000294313 8.94594e-06 8.85329e-07 0.000172027)
(0.0178809 0.000102923 0.000342468 8.48871e-06 1.12066e-06 0.000168076)
(0.0176982 0.000113136 0.000308834 8.40139e-06 9.73154e-07 0.000163382)
(0.0179084 0.000108424 0.000277814 7.86879e-06 4.88947e-07 0.000167932)
(0.0177204 0.000114008 0.000269477 7.96966e-06 -5.69451e-08 0.000166024)
(0.0179005 0.000103472 0.000306145 7.91283e-06 -7.58773e-07 0.000171993)
(0.0177596 0.000112521 0.000349216 8.3893e-06 -6.56179e-07 0.0001706)
(0.0179181 0.000104253 0.000299427 8.66989e-06 1.33044e-07 0.000168978)
(0.0178141 0.00011703 0.000259909 9.10034e-06 7.95406e-07 0.000172731)
(0.0126436 6.36077e-05 0.000268607 1.04975e-05 -5.12605e-06 0.000112409)
(0.0124976 6.83448e-05 0.000273432 1.01622e-05 -5.50897e-06 0.000113584)
(0.0126528 5.87523e-05 0.00030527 9.67458e-06 -6.10554e-06 0.000113366)
(0.0125253 6.73142e-05 0.000275218 9.52914e-06 -5.93228e-06 0.000113719)
(0.0126908 5.9554e-05 0.000264049 9.6755e-06 -6.12717e-06 0.000116433)
(0.012535 6.96912e-05 0.00025796 1.02071e-05 -5.68253e-06 0.000120613)
(0.0126751 5.96207e-05 0.000278348 1.07936e-05 -5.55759e-06 0.000123342)
(0.0125541 6.64809e-05 0.000302218 1.10791e-05 -5.31336e-06 0.000122184)
(0.0126951 5.79899e-05 0.000283466 1.08097e-05 -5.17816e-06 0.000120072)
(0.0125575 6.62169e-05 0.000266886 1.00368e-05 -4.72639e-06 0.000118811)
(0.0126877 6.1542e-05 0.000261578 9.19884e-06 -4.45382e-06 0.000115252)
(0.0125442 6.65177e-05 0.000282388 8.67579e-06 -4.17711e-06 0.000112953)
(0.01269 6.01853e-05 0.00029931 8.63715e-06 -4.21135e-06 0.000109741)
(0.0125535 6.54199e-05 0.000287722 8.88732e-06 -4.06092e-06 0.000108461)
(0.0126746 6.24711e-05 0.000280223 9.44073e-06 -4.17911e-06 0.000109773)
(0.0125345 6.93903e-05 0.000268588 9.95026e-06 -4.18377e-06 0.000109801)
(0.0126686 6.44514e-05 0.000302348 1.04054e-05 -4.58539e-06 0.000111867)
(0.0125489 7.07274e-05 0.000307367 1.08082e-05 -5.09784e-06 0.000111772)
(0.0126581 6.70618e-05 0.000306758 1.10994e-05 -5.34902e-06 0.000112776)
(0.0125417 7.321e-05 0.000276482 1.11987e-05 -5.20566e-06 0.000116922)
(0.0126573 6.96334e-05 0.00028377 1.08775e-05 -4.59593e-06 0.00011805)
(0.0125416 7.1248e-05 0.000292355 1.06381e-05 -4.19915e-06 0.000120432)
(0.0126523 6.55162e-05 0.000318392 1.06298e-05 -4.44248e-06 0.000121691)
(0.0125259 7.10767e-05 0.000294238 1.12043e-05 -4.92544e-06 0.000120337)
(0.0126498 6.72324e-05 0.000278197 1.16236e-05 -5.32907e-06 0.000119864)
(0.0125118 7.31216e-05 0.000272427 1.20167e-05 -4.97396e-06 0.000116003)
(0.0126296 6.62281e-05 0.000293469 1.1617e-05 -4.45485e-06 0.00011414)
(0.0125163 6.74582e-05 0.000307758 1.13019e-05 -3.43931e-06 0.000111904)
(0.0126332 6.3411e-05 0.000294195 1.06529e-05 -3.28027e-06 0.000113006)
(0.0125043 6.87746e-05 0.000279599 1.07005e-05 -3.36307e-06 0.000116179)
(0.0126254 6.39631e-05 0.000269818 1.05038e-05 -3.99077e-06 0.000118643)
(0.0124886 7.01462e-05 0.000294899 1.06391e-05 -4.38137e-06 0.000120572)
(0.0126345 5.9131e-05 0.000313584 1.02747e-05 -5.08644e-06 0.000119564)
(0.0124923 6.79741e-05 0.000296698 1.01179e-05 -5.25713e-06 0.000118307)
(0.012646 6.23073e-05 0.000270098 9.5953e-06 -5.95125e-06 0.000119979)
(0.0125042 7.05277e-05 0.000264904 9.63563e-06 -5.78745e-06 0.000117076)
(0.0126459 6.10961e-05 0.000281552 9.56179e-06 -5.85251e-06 0.000116394)
(0.0125057 6.8936e-05 0.000286771 9.97734e-06 -5.1409e-06 0.000113666)
(0.0126406 6.11778e-05 0.00028254 1.0318e-05 -4.81889e-06 0.000111063)
(0.0125014 7.13233e-05 0.000258995 1.06898e-05 -4.54547e-06 0.000112699)
(0.00810889 2.87225e-05 0.000149723 9.64977e-06 -7.92055e-06 6.18094e-05)
(0.008019 3.3742e-05 0.000169183 9.37479e-06 -8.00113e-06 6.11845e-05)
(0.00811557 2.57933e-05 0.000164216 9.17814e-06 -8.05455e-06 5.94532e-05)
(0.00802189 3.26568e-05 0.000169483 9.23075e-06 -7.84507e-06 6.03777e-05)
(0.00811339 2.72839e-05 0.000155683 9.60634e-06 -7.87435e-06 6.13657e-05)
(0.00802464 3.47779e-05 0.000161039 1.01416e-05 -7.5954e-06 6.26997e-05)
(0.00812074 2.78014e-05 0.000161882 1.0627e-05 -7.63966e-06 6.36043e-05)
(0.00803149 3.22876e-05 0.0001748 1.06995e-05 -7.54506e-06 6.42591e-05)
(0.00813168 2.59316e-05 0.000164395 1.0268e-05 -7.52329e-06 6.43215e-05)
(0.00803371 3.22934e-05 0.000163751 9.46061e-06 -7.25601e-06 6.47849e-05)
(0.00813539 2.7281e-05 0.000155124 8.7467e-06 -7.09136e-06 6.34564e-05)
(0.00804029 3.24682e-05 0.000169716 8.38899e-06 -6.98279e-06 6.34668e-05)
(0.0081354 2.62738e-05 0.000164246 8.45825e-06 -6.95944e-06 6.24089e-05)
(0.00804075 3.20889e-05 0.000171267 8.65068e-06 -6.9592e-06 6.15943e-05)
(0.00813481 2.83432e-05 0.000152033 9.0298e-06 -6.97869e-06 6.06742e-05)
(0.00803738 3.52706e-05 0.000163322 9.32643e-06 -6.89228e-06 5.95514e-05)
(0.00813454 3.05141e-05 0.000156878 9.56418e-06 -7.12594e-06 5.92432e-05)
(0.00803123 3.6336e-05 0.000172697 9.77365e-06 -7.40814e-06 5.97511e-05)
(0.00813559 3.21397e-05 0.0001602 9.9349e-06 -7.50323e-06 6.01009e-05)
(0.00803387 3.75522e-05 0.000165771 1.00303e-05 -7.17312e-06 6.17104e-05)
(0.00813225 3.29458e-05 0.000157834 9.90903e-06 -6.92924e-06 6.26235e-05)
(0.00803956 3.62433e-05 0.000177027 9.89049e-06 -6.71385e-06 6.45732e-05)
(0.00813557 3.03282e-05 0.000173811 1.00644e-05 -6.92445e-06 6.52993e-05)
(0.00804247 3.57613e-05 0.000179144 1.05093e-05 -7.05679e-06 6.62263e-05)
(0.00813187 3.24149e-05 0.000157589 1.07637e-05 -7.45799e-06 6.6323e-05)
(0.00804601 3.76248e-05 0.000165583 1.09985e-05 -7.14345e-06 6.48038e-05)
(0.00813269 3.29159e-05 0.000160677 1.07081e-05 -6.93737e-06 6.36102e-05)
(0.00804311 3.54746e-05 0.000175946 1.05314e-05 -6.3481e-06 6.36596e-05)
(0.00813124 3.121e-05 0.000163162 1.01996e-05 -6.38751e-06 6.3937e-05)
(0.00803631 3.67061e-05 0.000171309 1.02967e-05 -6.34651e-06 6.51275e-05)
(0.00812294 3.17263e-05 0.00016012 1.021e-05 -6.8051e-06 6.52179e-05)
(0.00803271 3.61842e-05 0.000180715 1.0247e-05 -6.98888e-06 6.59859e-05)
(0.00812532 2.80186e-05 0.000174881 9.97265e-06 -7.44549e-06 6.46161e-05)
(0.00802761 3.40719e-05 0.000180506 9.8122e-06 -7.32216e-06 6.42912e-05)
(0.00811601 2.89997e-05 0.00016111 9.44896e-06 -7.38077e-06 6.32789e-05)
(0.00802399 3.54234e-05 0.000166776 9.41095e-06 -6.78198e-06 6.25561e-05)
(0.00810649 2.88016e-05 0.000159273 9.40213e-06 -6.65253e-06 6.19657e-05)
(0.00801414 3.44376e-05 0.000170476 9.60246e-06 -6.41576e-06 6.27161e-05)
(0.00810343 2.83186e-05 0.000159517 9.74594e-06 -6.85854e-06 6.24231e-05)
(0.00801261 3.53549e-05 0.000159241 9.81367e-06 -7.28859e-06 6.35492e-05)
(0.00452285 1.08765e-05 5.79984e-05 7.89407e-06 -6.2892e-06 3.12328e-05)
(0.00447759 1.31059e-05 6.59486e-05 7.83984e-06 -6.28627e-06 3.08015e-05)
(0.00452035 9.32379e-06 5.92555e-05 7.86036e-06 -6.19351e-06 3.04159e-05)
(0.00447627 1.26613e-05 6.5443e-05 8.04472e-06 -6.08988e-06 3.08004e-05)