/*--------------------------------*- C++ -*----------------------------------*\
  =========                 |
  \\      /  F ield         | OpenFOAM: The Open Source CFD Toolbox
   \\    /   O peration     | Website:  https://openfoam.org
    \\  /    A nd           | Version:  10
     \\/     M anipulation  |
\*---------------------------------------------------------------------------*/
FoamFile
{
    format      ascii;
    class       volSymmTensorField;
    location    "20";
    object      UPrime2Mean;
}
// * * * * * * * * * * * * * * * * * * * * * * * * * * * * * * * * * * * * * //

dimensions      [0 2 -2 0 0 0 0];

internalField   nonuniform List<symmTensor> 
25600
(
(0.000109684 3.86591e-07 -3.5911e-08 1.98179e-07 -1.14818e-08 6.21574e-08)
(0.000109609 2.8522e-07 1.32047e-08 2.01868e-07 -7.38695e-09 6.00368e-08)
(0.000109663 3.83081e-07 -5.00417e-08 1.9507e-07 -2.75216e-08 6.12001e-08)
(0.000109743 -5.73529e-08 6.93682e-08 1.8036e-07 -2.90391e-08 4.84901e-08)
(0.000109274 3.04157e-07 8.81824e-08 2.08966e-07 -3.02106e-08 5.0148e-08)
(0.00010948 -1.97879e-07 7.40704e-08 2.13444e-07 -5.09077e-08 5.60382e-08)
(0.000109721 -1.22104e-07 1.7748e-07 2.42321e-07 -5.68645e-08 5.27263e-08)
(0.000109291 -1.1134e-07 9.7012e-08 2.55556e-07 -5.8689e-08 5.01261e-08)
(0.000109574 -4.72876e-07 2.369e-07 2.74463e-07 -5.55127e-08 4.69566e-08)
(0.000109446 -2.58748e-07 1.67223e-07 2.42014e-07 -4.77295e-08 3.97981e-08)
(0.000109641 -4.98423e-07 1.89394e-07 2.28766e-07 -4.13946e-08 3.71387e-08)
(0.000109742 -3.41981e-07 2.97864e-07 2.71386e-07 -4.04253e-08 4.25009e-08)
(0.000109485 -5.24677e-07 9.78507e-08 2.31418e-07 -5.01032e-08 4.50168e-08)
(0.000109606 -5.16116e-07 2.77624e-07 2.67102e-07 -3.98732e-08 4.95452e-08)
(0.000109491 -5.08549e-07 1.66821e-07 3.05638e-07 -4.42252e-08 4.99475e-08)
(0.000109555 -5.08725e-07 1.61782e-07 2.8425e-07 -4.50118e-08 4.77229e-08)
(0.000109424 -6.2508e-07 1.26491e-07 2.81105e-07 -2.5244e-08 4.40803e-08)
(0.000109335 -5.63837e-07 1.51777e-07 2.7473e-07 -1.34903e-08 3.51246e-08)
(0.000109435 -5.27047e-07 5.9947e-08 2.73972e-07 2.57516e-09 3.09011e-08)
(0.000109517 -5.43376e-07 5.36226e-08 2.72415e-07 1.08103e-08 3.65107e-08)
(0.000109476 -3.97075e-07 1.17407e-07 2.82939e-07 2.01428e-08 3.41693e-08)
(0.00010924 -4.59109e-07 -4.03214e-08 2.6243e-07 2.78474e-08 3.31347e-08)
(0.00010971 -2.5172e-07 7.12673e-08 2.52209e-07 1.81962e-08 3.53431e-08)
(0.000109216 -3.19693e-07 -4.82408e-08 2.57306e-07 2.25564e-08 3.58375e-08)
(0.000109423 -1.81742e-07 9.50732e-08 2.14142e-07 1.1103e-08 3.61669e-08)
(0.000109458 -1.22353e-07 -2.86171e-08 2.44656e-07 3.5172e-10 3.42697e-08)
(0.000109216 -8.81464e-08 -4.14282e-09 2.5176e-07 2.95988e-09 4.05249e-08)
(0.000109916 -9.30556e-08 9.69219e-08 2.0791e-07 -2.49634e-09 3.87996e-08)
(0.000109011 1.47399e-07 -4.97166e-08 2.2073e-07 5.52738e-09 3.874e-08)
(0.000109679 3.79584e-08 7.87624e-08 2.19292e-07 8.43311e-09 4.4202e-08)
(0.000109576 2.32868e-07 -3.39089e-08 1.81162e-07 6.13867e-09 3.87101e-08)
(0.000109555 3.15793e-07 4.20013e-08 1.93763e-07 7.60279e-09 3.80914e-08)
(0.000110209 2.85099e-07 -4.83253e-08 1.77701e-07 9.048e-09 3.97986e-08)
(0.000109378 5.57615e-07 2.93764e-10 1.60108e-07 4.90011e-09 3.7228e-08)
(0.000110362 3.66094e-07 -4.63832e-08 1.90128e-07 2.01843e-09 4.61683e-08)
(0.000109773 6.07618e-07 -8.9292e-08 1.72308e-07 -8.08663e-10 5.24481e-08)
(0.000109685 5.07189e-07 3.61204e-09 1.94478e-07 7.89961e-09 5.4645e-08)
(0.000110128 5.84962e-07 -1.37905e-07 2.06165e-07 6.95416e-09 5.66144e-08)
(0.000109523 4.78437e-07 -3.16389e-08 2.0453e-07 1.82031e-08 5.95963e-08)
(0.000109923 5.47699e-07 -1.08594e-07 2.15763e-07 7.7537e-09 7.01428e-08)
(0.00010949 4.37551e-07 -5.4712e-09 1.20848e-07 4.32337e-09 5.67357e-08)
(0.000109668 3.273e-07 4.56289e-08 1.66216e-07 9.0579e-09 5.69509e-08)
(0.000109368 4.62772e-07 1.71087e-08 1.70478e-07 -1.08912e-08 6.08492e-08)
(0.000109591 -3.22854e-08 1.1033e-07 1.62232e-07 -1.65972e-08 5.43504e-08)
(0.000109146 2.16335e-07 1.62602e-07 2.50404e-07 -1.8216e-08 5.63411e-08)
(0.000109061 -1.30436e-07 1.31735e-07 2.4572e-07 -3.19831e-08 6.47926e-08)
(0.000109812 -2.51782e-07 2.49116e-07 2.76094e-07 -3.49069e-08 6.11412e-08)
(0.000109009 -1.10585e-07 1.23852e-07 3.14305e-07 -2.97747e-08 5.86295e-08)
(0.000109487 -5.64373e-07 3.22192e-07 2.93365e-07 -1.73564e-08 6.00724e-08)
(0.000109444 -2.34208e-07 1.84666e-07 2.69927e-07 -1.43101e-08 4.91246e-08)
(0.000109538 -5.58101e-07 2.88785e-07 2.44059e-07 1.13885e-09 4.80892e-08)
(0.000109788 -3.7033e-07 3.49761e-07 2.74167e-07 3.19388e-09 5.93131e-08)
(0.000109309 -5.45008e-07 1.7939e-07 2.49412e-07 -1.3276e-08 5.77376e-08)
(0.000109726 -6.04828e-07 3.73242e-07 2.68726e-07 2.4329e-10 6.04171e-08)
(0.000109592 -4.471e-07 1.99914e-07 3.20141e-07 -1.47576e-08 6.39209e-08)
(0.00010947 -6.34284e-07 2.82419e-07 2.78316e-07 -2.40021e-08 6.26912e-08)
(0.000109405 -6.19985e-07 2.08687e-07 2.70902e-07 -2.09549e-09 5.04546e-08)
(0.00010943 -6.52227e-07 2.15346e-07 2.4975e-07 3.97183e-09 4.02443e-08)
(0.000109504 -5.82948e-07 1.36332e-07 2.48014e-07 1.29622e-08 3.48645e-08)
(0.000109622 -5.3672e-07 1.23776e-07 2.57675e-07 2.43006e-08 4.22344e-08)
(0.000109615 -5.17922e-07 1.42154e-07 2.49825e-07 3.94043e-08 4.09748e-08)
(0.000109442 -4.33397e-07 1.92819e-08 2.66308e-07 4.27792e-08 3.58481e-08)
(0.000109816 -2.90824e-07 8.76767e-08 2.67893e-07 4.08862e-08 3.86928e-08)
(0.000109344 -3.98683e-07 -2.95604e-08 2.596e-07 4.8884e-08 3.76119e-08)
(0.000109613 -1.61221e-07 7.86647e-08 2.35826e-07 3.50955e-08 3.24861e-08)
(0.000109628 -2.28055e-07 -2.38533e-08 2.2357e-07 2.31871e-08 3.03394e-08)
(0.000109396 -9.38319e-08 -3.13264e-08 1.97538e-07 2.07074e-08 3.75287e-08)
(0.00011014 -1.47916e-07 4.90173e-08 1.67837e-07 1.92212e-08 3.29277e-08)
(0.000109302 2.34639e-08 -6.97658e-08 1.50168e-07 3.03758e-08 3.94742e-08)
(0.000109874 8.89089e-08 5.81515e-08 1.44992e-07 3.38554e-08 4.93513e-08)
(0.000109925 1.16308e-07 -9.03917e-08 1.33622e-07 3.69296e-08 5.30652e-08)
(0.000109737 3.74863e-07 3.45717e-08 1.29495e-07 2.95793e-08 6.13464e-08)
(0.000110439 2.58359e-07 -4.23297e-08 1.5751e-07 1.81434e-08 6.45026e-08)
(0.000109537 5.46921e-07 -7.9979e-08 1.53758e-07 2.05014e-08 5.91993e-08)
(0.000110401 5.00018e-07 -2.98959e-08 1.66902e-07 1.372e-08 6.31143e-08)
(0.000109922 5.22312e-07 -1.20539e-07 1.65697e-07 9.47597e-09 7.16402e-08)
(0.00010975 6.58302e-07 -4.74961e-08 1.60797e-07 2.09637e-08 6.47086e-08)
(0.000110108 6.23722e-07 -1.04321e-07 1.44344e-07 1.39022e-08 6.02393e-08)
(0.000109536 5.26435e-07 -9.34698e-08 1.65351e-07 3.00417e-08 6.14595e-08)
(0.000109921 6.66961e-07 -6.18838e-08 1.66902e-07 2.67932e-08 6.34413e-08)
(0.00010918 4.68386e-07 3.02383e-08 1.96726e-07 3.44546e-09 6.5923e-08)
(0.000109639 3.71075e-07 8.47031e-08 2.67767e-07 1.29679e-08 6.90687e-08)
(0.000109061 4.33756e-07 5.75097e-08 2.42895e-07 3.58456e-09 7.28311e-08)
(0.000109318 2.33766e-10 1.52603e-07 2.10202e-07 -3.83085e-10 7.59252e-08)
(0.000109097 3.58911e-08 1.9581e-07 3.02985e-07 1.10397e-09 8.7531e-08)
(0.000108799 -1.25615e-07 1.66635e-07 2.49541e-07 -1.0262e-08 9.90126e-08)
(0.000109902 -3.63827e-07 3.07464e-07 2.51069e-07 -2.12632e-08 9.3636e-08)
(0.000108895 -2.28487e-07 1.5399e-07 2.90747e-07 -1.89827e-08 9.19889e-08)
(0.000109527 -6.57703e-07 4.09648e-07 2.56053e-07 -8.27385e-09 9.42547e-08)
(0.000109497 -3.65896e-07 2.30281e-07 2.71519e-07 -2.12093e-08 7.51936e-08)
(0.000109445 -6.5573e-07 4.11439e-07 2.48599e-07 -4.62132e-09 7.53033e-08)
(0.000109922 -5.32716e-07 4.05238e-07 2.70346e-07 2.03847e-09 8.83644e-08)
(0.000109207 -6.31139e-07 2.9086e-07 2.36247e-07 -1.68199e-08 7.69313e-08)
(0.00010996 -6.87091e-07 4.25917e-07 2.20819e-07 2.08685e-09 7.6357e-08)
(0.000109733 -5.00753e-07 2.33706e-07 2.75105e-07 -1.56171e-08 8.77921e-08)
(0.00010942 -7.80927e-07 3.39143e-07 2.26888e-07 -2.11395e-08 8.60416e-08)
(0.000109456 -7.06442e-07 2.65576e-07 2.20912e-07 9.4806e-09 6.3567e-08)
(0.000109505 -7.84707e-07 2.38018e-07 1.83418e-07 5.57108e-09 5.66679e-08)
(0.000109672 -7.17069e-07 1.9085e-07 2.0151e-07 4.33591e-10 4.94604e-08)
(0.000109693 -6.10247e-07 1.70885e-07 2.29728e-07 1.30823e-08 5.29464e-08)
(0.000109802 -6.86051e-07 1.34753e-07 2.04755e-07 2.79439e-08 5.01238e-08)
(0.000109724 -4.26913e-07 5.64283e-08 2.71947e-07 2.5688e-08 4.49496e-08)
(0.000109884 -3.83786e-07 7.88194e-08 2.69972e-07 3.46025e-08 4.81529e-08)
(0.000109567 -4.86973e-07 -1.21616e-08 2.42846e-07 4.07286e-08 4.85316e-08)
(0.000109785 -1.71132e-07 4.96863e-08 2.83082e-07 2.83123e-08 4.33903e-08)
(0.000109772 -3.37065e-07 -8.6945e-09 2.43739e-07 2.62592e-08 4.53252e-08)
(0.000109574 -1.38277e-07 -4.43711e-08 2.16079e-07 2.08642e-08 5.25708e-08)
(0.000110176 -2.11867e-07 1.07821e-08 2.44141e-07 2.48846e-08 4.21185e-08)
(0.000109564 -1.02095e-07 -5.9167e-08 1.9697e-07 4.49844e-08 5.64167e-08)
(0.000110003 1.02716e-07 1.0497e-08 1.97222e-07 4.94428e-08 6.67152e-08)
(0.000110114 1.07665e-08 -1.27816e-07 2.197e-07 5.47658e-08 7.53231e-08)
(0.000109896 3.5624e-07 1.06251e-08 2.04989e-07 4.45561e-08 8.8343e-08)
(0.000110514 2.59761e-07 -8.25054e-08 2.73223e-07 2.83455e-08 9.49153e-08)
(0.000109738 4.54468e-07 -1.42345e-07 2.82939e-07 3.60408e-08 8.6375e-08)
(0.000110367 6.22022e-07 -5.86985e-08 2.82386e-07 2.03256e-08 8.51487e-08)
(0.000110014 4.41911e-07 -1.62894e-07 3.00116e-07 1.50761e-08 9.66917e-08)
(0.000109847 8.00673e-07 -1.05138e-07 2.49907e-07 1.84625e-08 7.99204e-08)
(0.000109937 6.03901e-07 -8.0133e-08 2.20382e-07 7.64972e-09 7.30665e-08)
(0.000109536 6.08285e-07 -1.28748e-07 2.84993e-07 2.28112e-08 7.23247e-08)
(0.000109812 7.26026e-07 -1.86579e-08 2.64305e-07 2.03385e-08 6.54765e-08)
(0.000108898 4.7288e-07 3.07822e-08 3.22888e-07 -5.58508e-09 9.13561e-08)
(0.00010956 3.88929e-07 9.31713e-08 4.29053e-07 6.41996e-09 9.79417e-08)
(0.000108823 3.34331e-07 4.58499e-08 3.48847e-07 9.05005e-09 9.24876e-08)
(0.00010901 -8.87259e-09 1.89735e-07 3.03684e-07 1.38632e-08 9.94119e-08)
(0.000109068 -1.6049e-07 1.88427e-07 3.84424e-07 2.22776e-08 1.22474e-07)
(0.000108687 -1.86438e-07 2.02219e-07 2.69805e-07 8.01292e-09 1.31779e-07)
(0.00010989 -4.3338e-07 3.47718e-07 2.72668e-07 -1.08452e-08 1.19319e-07)
(0.000108847 -4.02756e-07 2.10546e-07 2.98527e-07 -1.43781e-08 1.21139e-07)
(0.000109589 -7.5073e-07 5.14392e-07 2.49667e-07 -8.63967e-09 1.20964e-07)
(0.00010954 -6.01766e-07 2.978e-07 3.06175e-07 -3.63586e-08 9.0746e-08)
(0.000109364 -7.65952e-07 5.50269e-07 2.93874e-07 -1.78213e-08 1.00885e-07)
(0.000110054 -7.85971e-07 4.9572e-07 3.31654e-07 -7.52368e-09 1.12353e-07)
(0.000109188 -7.80003e-07 4.17383e-07 2.98049e-07 -3.17901e-08 9.15923e-08)
(0.000110121 -7.98248e-07 4.92058e-07 2.52189e-07 -4.26847e-09 9.16706e-08)
(0.000109816 -7.00077e-07 3.01752e-07 3.03126e-07 -2.60374e-08 1.14174e-07)
(0.000109345 -9.24604e-07 3.83796e-07 2.7963e-07 -1.93646e-08 1.11407e-07)
(0.000109437 -9.05416e-07 3.15486e-07 2.63394e-07 1.72428e-08 8.22568e-08)
(0.000109498 -9.34911e-07 2.51939e-07 2.13437e-07 -2.4767e-09 8.75478e-08)
(0.000109785 -9.04104e-07 2.25561e-07 2.734e-07 -1.51672e-08 8.08647e-08)
(0.000109675 -7.67825e-07 1.96322e-07 3.04013e-07 2.89369e-09 7.58137e-08)
(0.000109984 -8.5454e-07 1.17212e-07 2.71462e-07 6.26419e-09 6.95427e-08)
(0.000109988 -4.45841e-07 4.66425e-08 3.87794e-07 1.36394e-09 7.43628e-08)
(0.000109884 -5.29403e-07 6.93461e-08 3.3464e-07 2.87001e-08 7.42665e-08)
(0.000109841 -5.51537e-07 -3.03186e-08 2.75704e-07 2.41219e-08 7.71016e-08)
(0.00010994 -2.18098e-07 2.32498e-08 3.8658e-07 1.77611e-08 7.76053e-08)
(0.00010994 -4.33736e-07 -1.05706e-08 2.85802e-07 3.48981e-08 8.87532e-08)
(0.000109782 -2.20264e-07 -5.21901e-08 2.51892e-07 2.46761e-08 9.31808e-08)
(0.000110132 -3.19455e-07 1.38067e-08 3.47965e-07 2.81296e-08 6.9528e-08)
(0.000109849 -2.19793e-07 -5.17269e-08 2.62441e-07 5.43789e-08 9.11114e-08)
(0.000110099 5.5089e-08 -2.24511e-08 2.71182e-07 4.75266e-08 9.70541e-08)
(0.000110208 -1.27967e-07 -1.38601e-07 3.28304e-07 5.04962e-08 9.84807e-08)
(0.000110101 3.02849e-07 -3.60335e-08 2.92784e-07 4.99314e-08 1.07208e-07)
(0.000110535 2.12736e-07 -1.47179e-07 3.58613e-07 3.02222e-08 1.18926e-07)
(0.000110021 3.32585e-07 -1.76564e-07 3.63822e-07 4.20145e-08 1.03042e-07)
(0.00011041 6.52552e-07 -1.30041e-07 3.654e-07 2.37358e-08 1.01019e-07)
(0.000110156 3.89086e-07 -2.07249e-07 3.90385e-07 1.79868e-08 1.13214e-07)
(0.00010997 8.54651e-07 -1.83765e-07 3.05341e-07 9.79227e-09 9.3078e-08)
(0.000109776 5.24571e-07 -7.29201e-08 3.00958e-07 4.7316e-09 9.38577e-08)
(0.000109599 6.9029e-07 -1.83449e-07 4.14266e-07 1.21143e-08 9.51099e-08)
(0.000109656 6.82474e-07 -2.69975e-08 3.72523e-07 4.08468e-09 8.48424e-08)
(0.00010873 4.21156e-07 5.93706e-09 4.07716e-07 -1.37378e-08 1.31519e-07)
(0.000109493 3.63982e-07 6.15214e-08 5.32089e-07 -9.06313e-09 1.4823e-07)
(0.000108641 1.44674e-07 6.08009e-09 4.05723e-07 5.12163e-09 1.25192e-07)
(0.000108692 -1.16383e-07 2.27041e-07 4.27352e-07 1.4684e-08 1.28518e-07)
(0.000109033 -3.8032e-07 1.74149e-07 4.78361e-07 2.58409e-08 1.62332e-07)
(0.00010866 -3.60182e-07 2.60012e-07 3.2783e-07 1.32595e-08 1.64002e-07)
(0.00010975 -5.16347e-07 3.61786e-07 4.20825e-07 -1.13375e-08 1.3757e-07)
(0.000108782 -6.394e-07 3.09636e-07 4.07172e-07 -1.4461e-08 1.49669e-07)
(0.000109626 -8.75082e-07 6.23495e-07 3.30717e-07 -9.73031e-09 1.41978e-07)
(0.000109561 -8.90635e-07 3.66292e-07 4.08666e-07 -3.83791e-08 9.83488e-08)
(0.000109312 -9.00482e-07 6.94115e-07 3.82516e-07 -9.52142e-09 1.30266e-07)
(0.000110187 -1.05492e-06 5.87007e-07 4.37852e-07 -5.58717e-09 1.36803e-07)
(0.000109259 -9.71158e-07 5.318e-07 4.09788e-07 -3.22795e-08 1.11007e-07)
(0.000110184 -9.4464e-07 5.7262e-07 3.5657e-07 4.0361e-09 1.14294e-07)
(0.000109909 -9.5235e-07 3.87798e-07 3.99253e-07 -2.31108e-08 1.48147e-07)
(0.000109292 -1.07388e-06 4.31937e-07 3.95577e-07 5.43501e-09 1.42094e-07)
(0.000109391 -1.20741e-06 3.74089e-07 3.53215e-07 3.43149e-08 1.0809e-07)
(0.000109499 -1.1034e-06 2.6337e-07 3.13017e-07 -2.91647e-09 1.30486e-07)
(0.00010985 -1.15089e-06 2.63715e-07 4.12649e-07 -5.04672e-09 1.33659e-07)
(0.000109664 -1.01818e-06 2.22336e-07 4.35278e-07 1.49143e-08 1.13555e-07)
(0.000110205 -1.0051e-06 1.03143e-07 4.41808e-07 -1.09712e-08 1.04272e-07)
(0.000110217 -5.5204e-07 4.56082e-08 5.97951e-07 -4.28325e-09 1.32102e-07)
(0.000109903 -7.32109e-07 8.65308e-08 4.80686e-07 3.88054e-08 1.20334e-07)
(0.000110145 -6.04578e-07 -5.17763e-08 4.38364e-07 9.96861e-09 1.27043e-07)
(0.000110087 -3.19167e-07 2.46285e-08 6.13912e-07 1.31139e-08 1.33107e-07)
(0.000110149 -4.94503e-07 -3.14774e-08 4.00135e-07 5.2367e-08 1.63186e-07)
(0.000109976 -3.61527e-07 -3.00359e-08 3.77192e-07 4.82964e-08 1.56888e-07)
(0.000110132 -4.40336e-07 2.21875e-08 5.21246e-07 4.04739e-08 1.08467e-07)
(0.000110201 -3.21344e-07 -4.93524e-08 3.61283e-07 7.4306e-08 1.46428e-07)
(0.000110212 -7.46557e-08 -3.66497e-08 3.74498e-07 4.9489e-08 1.48449e-07)
(0.000110364 -2.8111e-07 -1.37406e-07 4.63786e-07 4.14002e-08 1.30041e-07)
(0.000110407 2.13417e-07 -1.07568e-07 3.92102e-07 5.72695e-08 1.30035e-07)
(0.000110606 9.87463e-08 -1.88511e-07 3.97562e-07 2.42965e-08 1.49182e-07)
(0.000110392 2.08118e-07 -2.02946e-07 3.91422e-07 3.78368e-08 1.20505e-07)
(0.000110582 5.86219e-07 -2.10561e-07 3.99507e-07 2.34363e-08 1.24017e-07)
(0.000110376 3.7908e-07 -2.69446e-07 3.98828e-07 1.33335e-08 1.2993e-07)
(0.000110071 7.91424e-07 -2.59409e-07 3.00483e-07 -3.05015e-09 1.11938e-07)
(0.00010972 4.46041e-07 -7.89251e-08 3.34522e-07 7.7903e-09 1.26387e-07)
(0.000109751 7.37175e-07 -2.59977e-07 4.57461e-07 -8.3628e-10 1.36206e-07)
(0.000109517 5.5835e-07 -6.85844e-08 3.91853e-07 -1.18646e-08 1.21626e-07)
(0.000108681 3.05695e-07 -5.74662e-08 5.12869e-07 -1.12738e-08 1.89561e-07)
(0.000109459 2.875e-07 -1.89794e-08 5.84115e-07 -1.445e-08 2.24674e-07)
(0.000108485 -1.42021e-07 -5.15845e-08 4.68649e-07 3.82892e-09 1.82614e-07)
(0.000108428 -3.04485e-07 2.41338e-07 6.01083e-07 7.06862e-09 1.79805e-07)
(0.000109004 -6.43476e-07 1.46065e-07 5.53401e-07 2.0752e-08 2.23598e-07)
(0.00010869 -6.24938e-07 3.04737e-07 4.33964e-07 6.42324e-09 2.17116e-07)
(0.000109526 -6.60899e-07 3.25091e-07 6.81727e-07 -2.46539e-08 1.75138e-07)
(0.000108718 -9.46137e-07 4.35201e-07 6.06499e-07 -2.53814e-08 2.0481e-07)
(0.000109662 -1.06042e-06 6.85669e-07 5.0752e-07 -2.40692e-08 1.84707e-07)
(0.00010956 -1.24077e-06 4.26237e-07 6.07885e-07 -3.98876e-08 1.29232e-07)
(0.000109345 -1.07287e-06 8.14754e-07 5.56645e-07 -1.00656e-09 1.88857e-07)
(0.000110377 -1.31401e-06 6.43848e-07 5.9908e-07 -1.41347e-08 1.87509e-07)
(0.00010943 -1.20647e-06 6.11191e-07 5.91675e-07 -3.20036e-08 1.63966e-07)
(0.000110228 -1.10738e-06 6.48763e-07 5.70752e-07 7.61831e-09 1.69918e-07)
(0.000110091 -1.13096e-06 4.4877e-07 5.72299e-07 -2.20585e-08 2.12773e-07)
(0.000109291 -1.23125e-06 4.77419e-07 5.42973e-07 4.24031e-08 2.01e-07)
(0.000109375 -1.53464e-06 4.21287e-07 4.88164e-07 4.51474e-08 1.59176e-07)
(0.000109577 -1.2812e-06 2.72933e-07 4.52462e-07 -3.13805e-09 2.00458e-07)
(0.000109924 -1.46074e-06 3.30463e-07 5.31858e-07 3.21972e-08 2.23601e-07)
(0.000109808 -1.33552e-06 2.2612e-07 5.69747e-07 3.06892e-08 1.76583e-07)
(0.000110514 -1.15219e-06 8.68276e-08 6.26088e-07 -3.11386e-08 1.71851e-07)
(0.000110439 -7.9806e-07 5.70378e-08 7.61061e-07 1.6972e-08 2.29065e-07)
(0.000110032 -9.69442e-07 1.03391e-07 6.33794e-07 5.39778e-08 2.00023e-07)
(0.000110486 -7.03371e-07 -6.86009e-08 6.92256e-07 -6.45179e-09 2.02725e-07)
(0.000110311 -4.69043e-07 2.47757e-08 8.64633e-07 1.08816e-09 2.13247e-07)
(0.000110407 -5.69356e-07 -6.54096e-08 5.56101e-07 6.80753e-08 2.84663e-07)
(0.000110179 -5.55125e-07 1.01737e-08 6.13502e-07 8.47329e-08 2.42799e-07)
(0.000110281 -5.20628e-07 3.98348e-09 7.44441e-07 4.92614e-08 1.62561e-07)
(0.000110588 -4.19895e-07 -5.98053e-08 5.22585e-07 1.07928e-07 2.29348e-07)
(0.000110382 -2.23716e-07 -4.39049e-08 5.58686e-07 6.10092e-08 2.28183e-07)
(0.000110644 -3.88051e-07 -1.62173e-07 6.76754e-07 4.38591e-08 1.81377e-07)
(0.000110792 9.15676e-08 -1.96776e-07 5.88242e-07 8.20136e-08 1.77165e-07)
(0.000110757 -4.27658e-08 -2.24666e-07 4.95332e-07 2.49834e-08 2.04284e-07)
(0.000110809 6.94062e-08 -2.46777e-07 5.05354e-07 4.25449e-08 1.60224e-07)
(0.000110893 4.75249e-07 -3.03283e-07 5.28289e-07 2.66258e-08 1.81485e-07)
(0.000110641 3.85107e-07 -3.7923e-07 4.41092e-07 4.50929e-09 1.73977e-07)
(0.000110121 6.24418e-07 -3.20568e-07 3.80688e-07 -1.25127e-08 1.5504e-07)
(0.000109786 3.91451e-07 -1.30886e-07 4.47984e-07 1.22252e-08 1.83511e-07)
(0.000109947 7.12989e-07 -3.68348e-07 4.98762e-07 -1.20704e-08 2.05332e-07)
(0.000109384 3.61839e-07 -1.33929e-07 4.26221e-07 -1.21633e-08 1.76897e-07)
(0.00010876 1.7606e-07 -1.83168e-07 7.35119e-07 -7.93624e-09 2.8111e-07)
(0.000109451 1.60141e-07 -1.52856e-07 7.30889e-07 -1.70831e-08 3.40304e-07)
(0.000108366 -4.60737e-07 -1.3525e-07 6.87833e-07 -3.97858e-09 2.86497e-07)
(0.000108285 -5.54301e-07 1.9574e-07 8.87373e-07 -4.02004e-09 2.70399e-07)
(0.000109036 -9.36074e-07 8.6736e-08 7.01778e-07 1.16569e-08 3.21972e-07)
(0.00010879 -9.24015e-07 2.77853e-07 6.62131e-07 -1.13457e-08 3.20461e-07)
(0.000109308 -8.53304e-07 2.25425e-07 1.05694e-06 -4.16684e-08 2.59413e-07)
(0.000108732 -1.27441e-06 5.18016e-07 9.11891e-07 -5.1133e-08 3.10129e-07)
(0.000109741 -1.28696e-06 6.70048e-07 7.86936e-07 -5.148e-08 2.78546e-07)
(0.000109593 -1.60208e-06 4.72679e-07 9.52331e-07 -4.57507e-08 2.09248e-07)
(0.000109511 -1.23101e-06 8.79607e-07 8.92916e-07 -1.55794e-08 2.99794e-07)
(0.000110647 -1.51743e-06 6.41955e-07 8.74065e-07 -4.49818e-08 2.9274e-07)
(0.000109719 -1.50277e-06 6.52143e-07 9.30498e-07 -4.76286e-08 2.77687e-07)
(0.000110404 -1.23766e-06 6.82666e-07 9.90543e-07 -1.22673e-08 2.76753e-07)
(0.000110404 -1.18617e-06 4.41948e-07 8.95427e-07 -3.28433e-08 3.28795e-07)
(0.000109336 -1.41627e-06 4.91028e-07 8.15715e-07 7.18322e-08 3.17924e-07)
(0.000109441 -1.79876e-06 3.96774e-07 7.9194e-07 3.52526e-08 2.61566e-07)
(0.000109719 -1.49318e-06 2.71754e-07 7.13119e-07 -7.79383e-09 3.18093e-07)
(0.000110054 -1.80428e-06 3.56419e-07 7.47245e-07 7.05497e-08 3.6833e-07)
(0.000110169 -1.6649e-06 1.5891e-07 8.37276e-07 1.60034e-08 2.8794e-07)
(0.000110914 -1.32775e-06 4.30054e-08 8.66345e-07 -5.46002e-08 2.89831e-07)
(0.000110732 -1.14735e-06 4.54975e-08 9.23243e-07 5.90393e-08 3.79777e-07)
(0.000110338 -1.18927e-06 7.23045e-08 8.72976e-07 6.10237e-08 3.32106e-07)
(0.000110905 -8.40761e-07 -1.10882e-07 1.02079e-06 -2.70653e-08 3.10478e-07)
(0.000110671 -6.26471e-07 -1.90713e-08 1.07793e-06 -2.3807e-08 3.40927e-07)
(0.000110716 -6.72899e-07 -9.86035e-08 7.94954e-07 7.53031e-08 4.78081e-07)
(0.000110472 -7.39338e-07 3.74259e-08 9.4356e-07 1.05654e-07 3.59511e-07)
(0.000110618 -5.86494e-07 -4.00023e-08 9.80892e-07 4.11287e-08 2.44499e-07)
(0.000111024 -5.3022e-07 -6.31023e-08 7.91613e-07 1.44592e-07 3.59339e-07)
(0.000110684 -3.53717e-07 -5.90163e-08 8.31837e-07 6.73144e-08 3.48052e-07)
(0.000111058 -4.54971e-07 -2.13938e-07 9.76257e-07 5.93472e-08 2.65506e-07)
(0.000111244 -4.53649e-08 -2.82801e-07 9.14031e-07 1.18435e-07 2.72598e-07)
(0.000110991 -1.84426e-07 -2.8107e-07 7.02738e-07 3.55913e-08 3.01922e-07)
(0.000111282 -6.6899e-08 -3.11724e-07 7.97724e-07 5.77745e-08 2.43551e-07)
(0.00011138 3.96542e-07 -4.4135e-07 8.19118e-07 3.14823e-08 3.0189e-07)
(0.000110929 3.72761e-07 -5.43463e-07 6.09618e-07 -1.02056e-08 2.78206e-07)
(0.000110147 4.0135e-07 -3.83927e-07 6.70568e-07 -1.92124e-08 2.49947e-07)
(0.000109979 3.69435e-07 -2.61609e-07 7.43334e-07 1.12637e-08 2.90543e-07)
(0.000110156 6.3524e-07 -5.22317e-07 6.71591e-07 -2.31641e-08 3.31313e-07)
(0.000109284 1.21024e-07 -2.31349e-07 6.20718e-07 -2.97859e-09 2.7455e-07)
(0.00010898 2.77008e-08 -4.16602e-07 1.23877e-06 -1.40776e-08 4.4332e-07)
(0.000109509 -2.39121e-08 -3.73916e-07 1.16394e-06 -3.71644e-08 5.37306e-07)
(0.000108353 -7.96857e-07 -2.90758e-07 1.20729e-06 -3.19734e-08 4.85219e-07)
(0.000108345 -8.57924e-07 4.56996e-08 1.44123e-06 -1.87133e-08 4.3408e-07)
(0.000109221 -1.23445e-06 -5.57908e-08 1.12798e-06 -2.02669e-08 4.85194e-07)
(0.000109023 -1.21777e-06 1.30618e-07 1.14812e-06 -4.34099e-08 5.10229e-07)
(0.000109237 -1.07156e-06 4.50988e-08 1.64811e-06 -6.88001e-08 4.21417e-07)
(0.000108944 -1.59311e-06 4.89734e-07 1.41874e-06 -1.05151e-07 4.89207e-07)
(0.000109961 -1.53142e-06 5.55189e-07 1.25551e-06 -9.12884e-08 4.50583e-07)
(0.000109769 -1.93991e-06 4.63569e-07 1.574e-06 -7.65619e-08 3.72934e-07)
(0.000109915 -1.32518e-06 8.42577e-07 1.50534e-06 -7.63875e-08 4.95628e-07)
(0.000111025 -1.67308e-06 5.4726e-07 1.37265e-06 -1.18508e-07 4.9245e-07)
(0.000110189 -1.82035e-06 6.43365e-07 1.56727e-06 -1.03147e-07 4.96956e-07)
(0.000110886 -1.255e-06 6.38904e-07 1.73239e-06 -7.02336e-08 4.64124e-07)
(0.000110875 -1.12376e-06 3.64676e-07 1.47139e-06 -7.48566e-08 5.37128e-07)
(0.000109511 -1.56451e-06 4.25902e-07 1.3334e-06 8.21227e-08 5.5323e-07)
(0.000109631 -1.94558e-06 2.975e-07 1.37061e-06 1.81122e-08 4.662e-07)
(0.000109941 -1.73534e-06 2.48422e-07 1.22132e-06 -1.64145e-08 5.2433e-07)
(0.000110365 -2.10459e-06 3.05237e-07 1.24607e-06 8.56443e-08 6.16222e-07)
(0.000110797 -1.96902e-06 1.03102e-09 1.41724e-06 -2.93304e-08 5.01429e-07)
(0.000111443 -1.55653e-06 -4.77189e-08 1.35685e-06 -7.38149e-08 4.95796e-07)
(0.000111203 -1.50694e-06 -2.72421e-08 1.34758e-06 1.07344e-07 6.09232e-07)
(0.000110894 -1.37716e-06 -1.26458e-08 1.41392e-06 4.71072e-08 5.5068e-07)
(0.000111476 -9.96926e-07 -2.09461e-07 1.54017e-06 -4.04053e-08 4.86279e-07)
(0.000111215 -7.87462e-07 -1.13949e-07 1.44778e-06 -4.37962e-08 5.5675e-07)
(0.000111125 -7.41386e-07 -1.40423e-07 1.29939e-06 6.31329e-08 7.78915e-07)
(0.000110903 -8.66664e-07 2.36913e-08 1.44645e-06 9.89234e-08 5.3514e-07)
(0.000111141 -6.38389e-07 -1.12947e-07 1.39404e-06 3.48068e-08 3.97806e-07)
(0.000111534 -6.21913e-07 -8.50808e-08 1.31237e-06 1.85174e-07 5.77013e-07)
(0.000111142 -4.40629e-07 -1.20895e-07 1.28674e-06 7.45924e-08 5.33399e-07)
(0.000111629 -4.67025e-07 -3.12765e-07 1.46537e-06 9.26783e-08 4.16193e-07)
(0.000111793 -1.79929e-07 -4.03549e-07 1.44706e-06 1.68731e-07 4.58425e-07)
(0.000111334 -3.29152e-07 -3.83761e-07 1.12855e-06 6.07247e-08 4.70612e-07)
(0.000111877 -1.68509e-07 -4.33801e-07 1.36007e-06 7.6278e-08 3.94791e-07)
(0.000112063 3.43482e-07 -6.72307e-07 1.33369e-06 3.0672e-08 5.20162e-07)
(0.000111259 3.23085e-07 -7.56874e-07 1.02858e-06 -3.62715e-08 4.84225e-07)
(0.00011025 1.52613e-07 -4.97125e-07 1.26063e-06 -1.99413e-08 4.27475e-07)
(0.000110353 3.59957e-07 -5.11333e-07 1.32628e-06 -3.58144e-10 4.82538e-07)
(0.000110419 4.81865e-07 -7.4925e-07 1.10561e-06 -3.32351e-08 5.58343e-07)
(0.000109298 -1.46464e-07 -3.99767e-07 1.08587e-06 1.36355e-08 4.57465e-07)
(0.000109452 -9.11474e-08 -7.9775e-07 2.35176e-06 -4.32426e-08 7.41893e-07)
(0.000109771 -1.80063e-07 -7.02187e-07 2.18378e-06 -1.00472e-07 8.97591e-07)
(0.000108609 -1.08971e-06 -5.66631e-07 2.31634e-06 -9.80975e-08 8.69093e-07)
(0.000108791 -1.13519e-06 -2.39513e-07 2.57957e-06 -7.27887e-08 7.27111e-07)
(0.000109735 -1.4798e-06 -3.26147e-07 2.16307e-06 -1.1172e-07 7.84687e-07)
(0.00010952 -1.39456e-06 -1.52422e-07 2.17883e-06 -1.13599e-07 8.70008e-07)
(0.000109476 -1.2241e-06 -2.63346e-07 2.71072e-06 -1.48157e-07 7.23462e-07)
(0.000109485 -1.76273e-06 2.96703e-07 2.39237e-06 -2.09618e-07 7.90899e-07)
(0.00011042 -1.73058e-06 3.25104e-07 2.18823e-06 -1.62118e-07 7.70774e-07)
(0.000110267 -2.12483e-06 3.54926e-07 2.72919e-06 -1.67934e-07 6.89584e-07)
(0.000110672 -1.25018e-06 6.32251e-07 2.63857e-06 -2.10945e-07 8.3922e-07)
(0.000111612 -1.71237e-06 3.34563e-07 2.36265e-06 -2.64299e-07 8.71823e-07)
(0.000111061 -1.99504e-06 5.31359e-07 2.79213e-06 -2.33435e-07 9.10012e-07)
(0.000111884 -1.05162e-06 4.92011e-07 3.05482e-06 -1.81058e-07 8.08323e-07)
(0.000111628 -8.77994e-07 1.81177e-07 2.54675e-06 -1.52331e-07 9.32336e-07)
(0.00010994 -1.51922e-06 2.40683e-07 2.31807e-06 7.69294e-08 1.02604e-06)
(0.000110006 -1.95055e-06 1.08753e-07 2.40532e-06 2.42049e-08 8.65161e-07)
(0.000110341 -1.93653e-06 1.69511e-07 2.18239e-06 -2.3332e-08 9.0237e-07)
(0.000110999 -2.27389e-06 1.41758e-07 2.24888e-06 6.47702e-08 1.06271e-06)
(0.00011176 -2.21292e-06 -2.59679e-07 2.53219e-06 -8.51518e-08 9.12833e-07)
(0.000112256 -1.76373e-06 -1.90943e-07 2.39318e-06 -9.29853e-08 8.54809e-07)
(0.000112034 -1.75768e-06 -1.83397e-07 2.36382e-06 1.3927e-07 9.88935e-07)
(0.000111822 -1.51008e-06 -1.89235e-07 2.50647e-06 1.86262e-08 9.31706e-07)
(0.000112329 -1.14901e-06 -4.07329e-07 2.5502e-06 -2.79067e-08 7.89626e-07)
(0.000112072 -8.75787e-07 -2.58088e-07 2.34293e-06 -6.43738e-08 9.42729e-07)
(0.000111764 -6.86374e-07 -2.04962e-07 2.3281e-06 1.03301e-08 1.2688e-06)
(0.000111569 -8.91121e-07 -4.11351e-08 2.381e-06 5.90558e-08 8.28733e-07)
(0.000111932 -6.07742e-07 -2.10028e-07 2.2898e-06 3.47459e-08 6.89885e-07)
(0.000112222 -6.22631e-07 -1.29373e-07 2.30722e-06 2.28004e-07 9.62203e-07)
(0.00011184 -3.93417e-07 -2.42244e-07 2.1562e-06 8.84124e-08 8.45746e-07)
(0.000112391 -3.49133e-07 -4.61325e-07 2.38598e-06 1.4473e-07 7.05272e-07)
(0.000112463 -2.55037e-07 -5.56144e-07 2.41399e-06 2.32803e-07 8.08419e-07)
(0.000111848 -3.9526e-07 -5.42368e-07 2.02198e-06 7.90301e-08 7.76034e-07)
(0.000112689 -1.61904e-07 -6.6526e-07 2.39282e-06 8.05408e-08 6.83008e-07)
(0.000113024 3.61364e-07 -1.04218e-06 2.29897e-06 1.32654e-08 9.11712e-07)
(0.000111726 3.10212e-07 -1.06586e-06 1.91437e-06 -8.60229e-08 8.81062e-07)
(0.000110561 -2.99827e-08 -7.3716e-07 2.34551e-06 -1.00936e-08 7.59709e-07)
(0.00011099 4.289e-07 -9.10695e-07 2.45065e-06 -2.40676e-08 8.32309e-07)
(0.000110846 3.17258e-07 -1.08614e-06 2.03899e-06 -4.40702e-08 9.68766e-07)
(0.000109569 -3.47107e-07 -6.92678e-07 2.10173e-06 3.00728e-08 8.11819e-07)
(0.000110493 -1.57147e-07 -1.38809e-06 4.65786e-06 -1.00007e-07 1.29108e-06)
(0.000110598 -2.68545e-07 -1.24939e-06 4.36084e-06 -2.27245e-07 1.56759e-06)
(0.000109519 -1.30678e-06 -1.01823e-06 4.60091e-06 -2.28998e-07 1.56922e-06)
(0.000110007 -1.34052e-06 -7.38309e-07 4.92353e-06 -1.9959e-07 1.24262e-06)
(0.000110956 -1.63481e-06 -7.90282e-07 4.42468e-06 -2.89272e-07 1.33577e-06)
(0.000110613 -1.41782e-06 -6.18804e-07 4.34964e-06 -2.74977e-07 1.50136e-06)
(0.000110358 -1.24375e-06 -7.63812e-07 4.81265e-06 -3.41918e-07 1.248e-06)
(0.000110617 -1.78032e-06 -1.04885e-07 4.42952e-06 -4.08096e-07 1.29863e-06)
(0.000111396 -1.86752e-06 -6.83827e-08 4.21084e-06 -3.19924e-07 1.34377e-06)
(0.000111433 -2.05323e-06 4.31664e-08 4.99892e-06 -3.63989e-07 1.29162e-06)
(0.000112051 -9.87988e-07 2.12168e-07 4.88829e-06 -4.56292e-07 1.45606e-06)
(0.000112699 -1.55705e-06 -4.83227e-08 4.46537e-06 -5.1692e-07 1.59742e-06)
(0.00011265 -1.90781e-06 3.00824e-07 5.2452e-06 -4.47459e-07 1.7033e-06)
(0.000113664 -5.72106e-07 2.44501e-07 5.57846e-06 -3.20834e-07 1.49055e-06)
(0.000112912 -3.89758e-07 -9.32425e-08 4.72295e-06 -2.48726e-07 1.74503e-06)
(0.000110799 -1.22621e-06 -3.5354e-08 4.30304e-06 9.10847e-08 1.99296e-06)
(0.000110701 -1.89571e-06 -1.03815e-07 4.35878e-06 1.08431e-07 1.68091e-06)
(0.000111164 -2.07766e-06 6.61749e-08 4.03987e-06 -3.42278e-08 1.65727e-06)
(0.000112216 -2.36224e-06 -8.2275e-08 4.25113e-06 4.34747e-09 1.92894e-06)
(0.000113315 -2.37921e-06 -5.58892e-07 4.76433e-06 -1.24703e-07 1.71982e-06)
(0.000113686 -1.89919e-06 -3.68152e-07 4.58497e-06 -1.23719e-07 1.52961e-06)
(0.00011355 -1.86135e-06 -4.2444e-07 4.51703e-06 1.44374e-07 1.66818e-06)
(0.000113448 -1.61754e-06 -4.5118e-07 4.68126e-06 8.01912e-09 1.6128e-06)
(0.000113851 -1.2687e-06 -6.81661e-07 4.62423e-06 4.40519e-08 1.36207e-06)
(0.000113617 -8.53257e-07 -4.51035e-07 4.27122e-06 -1.08573e-07 1.65995e-06)
(0.000112984 -4.89926e-07 -3.0279e-07 4.31985e-06 -1.07906e-07 2.09095e-06)
(0.000112826 -8.08865e-07 -1.60615e-07 4.23225e-06 -1.47823e-08 1.36341e-06)
(0.000113319 -4.93377e-07 -3.4258e-07 4.12149e-06 2.69471e-08 1.27247e-06)
(0.000113428 -5.81908e-07 -2.47801e-07 4.15573e-06 2.6886e-07 1.65046e-06)
(0.000113053 -2.10403e-07 -4.74691e-07 3.85192e-06 1.28299e-07 1.41159e-06)