/*--------------------------------*- C++ -*----------------------------------*\
  =========                 |
  \\      /  F ield         | OpenFOAM: The Open Source CFD Toolbox
   \\    /   O peration     | Website:  https://openfoam.org
    \\  /    A nd           | Version:  10
     \\/     M anipulation  |
\*---------------------------------------------------------------------------*/
FoamFile
{
    format      ascii;
    class       volSymmTensorField;
    location    "5";
    object      UPrime2Mean;
}
// * * * * * * * * * * * * * * * * * * * * * * * * * * * * * * * * * * * * * //

dimensions      [0 2 -2 0 0 0 0];

internalField   nonuniform List<symmTensor> 
25600
(
(0.000214163 -5.40288e-07 2.17358e-05 2.08861e-08 5.60054e-09 2.03969e-05)
(0.000221721 -1.1943e-06 1.48081e-06 2.4942e-08 -2.31421e-09 1.87957e-05)
(0.000202164 -1.82914e-06 -6.34433e-05 4.37578e-08 1.29717e-06 7.68727e-05)
(0.000151486 -6.23065e-07 -3.34158e-05 1.30152e-08 1.81566e-07 5.18152e-05)
(0.000208195 1.64745e-06 3.50791e-06 3.66016e-08 -1.15256e-07 1.876e-05)
(0.000619998 6.25537e-06 -0.000209841 8.87247e-08 -2.55084e-06 0.000101683)
(0.000301316 -3.45088e-06 -0.000183333 7.9939e-08 2.85955e-06 0.000171543)
(9.33103e-05 5.6436e-07 1.11358e-05 6.24678e-08 9.74776e-07 4.30288e-05)
(0.000119746 1.47384e-07 1.71165e-05 1.49349e-08 1.06298e-07 1.81289e-05)
(8.83238e-05 -1.12381e-06 3.24014e-05 3.07394e-08 -4.56522e-07 2.39567e-05)
(4.97453e-05 -5.74051e-07 3.69948e-05 2.18254e-08 -9.07089e-07 6.42985e-05)
(4.47394e-05 -1.88499e-07 2.81765e-05 8.78412e-09 -7.03383e-09 7.46441e-05)
(6.60122e-05 4.96402e-07 2.49522e-05 5.03947e-08 4.90579e-07 2.92251e-05)
(0.000101897 1.2808e-06 9.00323e-06 7.18612e-08 -1.57221e-07 1.81536e-05)
(0.000144371 6.87497e-07 8.23136e-06 2.3958e-08 -4.80731e-08 1.67643e-05)
(0.00017467 1.02998e-07 1.0173e-05 1.35601e-08 -1.0928e-08 1.68377e-05)
(0.000206348 1.05831e-07 1.00882e-05 1.07572e-08 9.86941e-10 1.72377e-05)
(0.00020182 3.96459e-07 6.97546e-06 8.57483e-09 4.6909e-08 1.6615e-05)
(0.000166965 2.93728e-07 -7.90605e-06 5.03989e-09 4.395e-08 1.42822e-05)
(0.000174004 -6.61746e-07 -2.95014e-05 8.63971e-09 2.37949e-07 1.67818e-05)
(0.000212088 -8.76231e-07 -7.67602e-05 1.01376e-08 5.43852e-07 4.72477e-05)
(0.000183557 -3.49942e-07 -8.32264e-05 7.85071e-09 3.21084e-07 6.45692e-05)
(0.00013526 -9.67157e-08 -4.16252e-05 9.87021e-09 1.1115e-07 2.72386e-05)
(0.000104511 -1.04248e-07 -1.01128e-05 1.26275e-08 1.08503e-07 1.58535e-05)
(9.06066e-05 -3.29294e-07 -1.09499e-05 1.71584e-08 2.20665e-07 5.71773e-05)
(8.86352e-05 -5.72665e-07 -2.06536e-05 1.96435e-08 2.71404e-07 6.16727e-05)
(9.19994e-05 -2.61169e-07 -2.6526e-05 2.01555e-08 -2.82263e-07 3.86018e-05)
(0.000112233 4.49514e-07 -2.76719e-05 2.84398e-08 -2.55624e-07 2.81982e-05)
(0.000108248 1.21317e-07 -2.4164e-05 1.58278e-08 -3.18919e-08 2.52259e-05)
(0.000114133 -3.6354e-07 -1.95498e-05 1.03117e-08 3.94667e-08 2.51334e-05)
(9.07336e-05 -1.04248e-06 1.61111e-05 2.48604e-08 -6.18888e-07 4.38259e-05)
(5.34528e-05 -2.11939e-07 -6.07384e-06 1.50658e-08 -7.16854e-07 8.7049e-05)
(6.83303e-05 -3.40248e-07 -1.08503e-05 1.44709e-08 1.81326e-07 3.97374e-05)
(7.4628e-05 -4.50469e-07 3.76133e-06 2.30638e-08 -7.12724e-08 2.30534e-05)
(8.28423e-05 -1.60331e-07 7.20986e-06 1.17531e-08 4.539e-09 2.75859e-05)
(0.000110569 -2.76554e-07 3.48188e-05 1.20361e-08 -3.42438e-07 6.01621e-05)
(0.000138931 -2.30469e-07 6.0702e-05 1.15284e-08 -3.1416e-07 7.32585e-05)
(0.000107969 -6.12335e-08 3.76709e-05 1.16223e-08 -7.41947e-08 4.66957e-05)
(0.000116675 4.16156e-07 -1.49922e-06 2.07344e-08 -1.63649e-07 2.29718e-05)
(0.000185773 3.45632e-07 -2.92489e-05 2.12412e-08 -1.74208e-07 3.01457e-05)
(0.00168929 -1.76604e-05 0.000123177 7.82149e-07 -2.11291e-06 8.07403e-05)
(0.001906 -2.80201e-05 0.000235249 8.22418e-07 -3.62563e-06 0.000125046)
(0.00200659 -1.91834e-05 -0.000290489 5.28137e-07 -1.38217e-06 0.000209885)
(0.00138716 -7.94306e-06 -0.000251803 2.54079e-07 -3.80149e-06 0.000316828)
(0.000893519 -2.43713e-05 2.17193e-05 1.4023e-06 1.6542e-06 9.80922e-05)
(0.00432599 -0.000100778 -0.000945143 2.82857e-06 2.33278e-05 0.000347607)
(0.00768402 -1.67079e-05 -0.00237425 6.72699e-07 1.30675e-06 0.000894044)
(0.00117397 -4.26657e-06 -0.000297622 5.5167e-07 -3.37103e-06 0.000262192)
(0.000995879 -7.18922e-06 0.000110091 4.10968e-07 -3.42792e-06 0.000109617)
(0.000943179 -2.21314e-05 0.000267381 8.74704e-07 -9.22884e-06 0.000159522)
(0.000486898 -9.57515e-06 0.000275104 3.63816e-07 -8.67073e-06 0.00036999)
(0.000378074 -5.1884e-06 0.000145122 3.51832e-07 3.43306e-06 0.000373434)
(0.000503104 -1.35574e-06 0.000133172 1.08277e-06 4.83757e-06 0.000162371)
(0.00081055 2.68527e-06 8.48106e-05 8.30522e-07 -1.41307e-07 0.000103834)
(0.00125734 -5.75892e-06 5.62098e-05 4.09474e-07 -2.18832e-07 9.96148e-05)
(0.00153935 -8.24742e-06 4.26238e-05 4.19573e-07 5.54389e-07 0.000104342)
(0.00180691 -9.45748e-07 3.68601e-05 4.11444e-07 1.24921e-06 0.000110086)
(0.00196405 5.63002e-06 2.95998e-05 4.21842e-07 1.90835e-06 0.000103489)
(0.00183412 -2.59101e-06 -4.3464e-05 2.92239e-07 1.63599e-06 8.44014e-05)
(0.00175085 -2.02851e-05 -0.000188854 5.56967e-07 4.1991e-06 8.56533e-05)
(0.00187274 -2.6196e-05 -0.000384133 7.04158e-07 8.64389e-06 0.000152682)
(0.00173032 -2.18152e-05 -0.000350934 5.80515e-07 7.22408e-06 0.000135925)
(0.00143034 -1.44316e-05 -0.000134414 4.68324e-07 3.38444e-06 5.61997e-05)
(0.00112068 -9.38163e-06 3.96386e-05 4.899e-07 2.86339e-06 0.00012564)
(0.000883326 -1.06208e-05 2.20444e-05 6.17785e-07 5.11012e-06 0.000413583)
(0.000805126 -1.20467e-05 -3.06243e-05 6.06946e-07 3.3477e-06 0.000381223)
(0.000710891 -9.41242e-06 -6.37204e-05 4.43652e-07 -9.51276e-07 0.000141117)
(0.000877231 -3.77516e-06 -6.54806e-05 3.65168e-07 -2.68558e-07 9.35597e-05)
(0.000915412 -9.58122e-06 -8.75862e-05 3.04987e-07 3.21968e-07 8.67335e-05)
(0.000923661 -1.76204e-05 -0.000136303 5.33791e-07 1.56854e-06 9.9236e-05)
(0.0012666 -2.30533e-05 8.01926e-05 5.95722e-07 -3.12664e-06 0.000100189)
(0.000616595 -1.16268e-05 0.000129391 3.59184e-07 -3.25012e-06 0.000341625)
(0.000650715 -1.26969e-05 -0.000114133 4.31747e-07 4.80994e-06 0.000212157)
(0.000691928 -1.29048e-05 -2.03799e-05 4.52221e-07 2.18097e-06 0.000100359)
(0.000664413 -1.13121e-05 7.86424e-06 4.59278e-07 1.02512e-06 0.000104923)
(0.000843145 -1.62302e-05 0.000119579 6.06201e-07 -3.98649e-06 0.000199708)
(0.0010244 -1.83388e-05 0.000265335 5.58261e-07 -6.68352e-06 0.000298564)
(0.000891807 -1.4525e-05 0.000213358 5.22498e-07 -7.60525e-06 0.000283403)
(0.00087835 -8.16243e-06 6.05079e-05 4.19612e-07 -1.88705e-06 7.70429e-05)
(0.0013517 -2.07859e-06 -0.000179007 8.62284e-07 -7.32427e-06 0.000198055)
(0.00315405 -4.78398e-05 -9.10784e-05 4.33224e-06 -9.25291e-06 0.000162559)
(0.00315375 -7.47497e-05 0.000569839 4.50342e-06 -1.49485e-05 0.000324642)
(0.00333645 -7.13484e-05 0.00019325 3.91656e-06 -7.34095e-06 0.00013865)
(0.00354773 3.58337e-06 -0.000674725 3.2489e-06 -2.51654e-05 0.000478946)
(0.00224375 -4.36773e-05 -0.000114159 1.89932e-06 7.82351e-07 0.000194934)
(0.00181338 -0.000173593 -6.36573e-05 3.33818e-05 2.47717e-05 0.000183583)
(0.0160621 -0.000451559 -0.00369995 1.596e-05 0.00010276 0.00109599)
(0.0109494 0.000164735 -0.00234684 6.29619e-06 -5.01646e-05 0.000733401)
(0.00124564 -9.23704e-06 1.35464e-05 6.29712e-06 -2.66974e-05 0.000239959)
(0.0022191 -5.67178e-05 0.000466831 3.61342e-06 -2.25671e-05 0.000260365)
(0.00118757 -2.73252e-05 0.00060249 1.88758e-06 -2.14542e-05 0.000691437)
(0.00077217 -1.81577e-05 0.000201232 2.1649e-06 1.19585e-05 0.00074305)
(0.000923792 -1.35926e-05 0.000167697 6.3886e-06 1.72147e-05 0.000287943)
(0.00147101 -3.69184e-06 0.000162765 4.12228e-06 4.60292e-06 0.000202875)
(0.00240684 -3.45879e-05 0.000149534 2.10302e-06 1.33953e-06 0.000194371)
(0.00316444 -5.07538e-05 0.000101719 2.34492e-06 2.73511e-06 0.000202382)
(0.00386815 -3.85267e-05 6.80357e-05 1.98064e-06 5.0451e-06 0.000219855)
(0.00488259 -5.27832e-06 5.63663e-05 1.79074e-06 7.3806e-06 0.000213688)
(0.00525261 -6.32792e-06 -2.80398e-06 1.69664e-06 6.95676e-06 0.000167334)
(0.004855 -6.7765e-05 -0.000261933 2.49561e-06 9.00799e-06 0.000132784)
(0.00487649 -0.000107878 -0.000649087 4.02906e-06 2.1908e-05 0.000196571)
(0.004687 -0.000112305 -0.000569597 4.23058e-06 2.00243e-05 0.000162924)
(0.00395972 -8.13798e-05 -7.7781e-05 3.20928e-06 6.33912e-06 9.04279e-05)
(0.00304449 -4.75449e-05 0.000262548 2.9114e-06 5.27723e-06 0.000244153)
(0.00212229 -3.63157e-05 0.00026943 3.69291e-06 1.61426e-05 0.000772701)
(0.00182402 -3.6356e-05 0.000257433 3.41092e-06 9.53209e-06 0.00100734)
(0.0015079 -3.08019e-05 0.000105678 2.39092e-06 -3.28841e-06 0.000342347)
(0.0014903 -2.21317e-05 4.54687e-05 1.71299e-06 -1.49879e-06 0.000159249)
(0.00192684 -2.93141e-05 0.000150525 1.75295e-06 -2.74614e-06 0.000157547)
(0.00140218 -5.35735e-05 -5.9206e-05 4.24404e-06 2.35083e-06 0.000113512)
(0.00225331 -0.000100303 -0.000203968 6.08017e-06 9.24234e-06 0.000132933)
(0.00267225 -4.77915e-05 0.000332871 2.82293e-06 2.31269e-06 0.000212419)
(0.00137221 -4.25875e-05 5.9964e-06 3.84527e-06 2.33493e-05 0.000364454)
(0.00161041 -5.02745e-05 -0.000120712 2.84258e-06 1.06853e-05 0.000184126)
(0.00130866 -4.44777e-05 5.16848e-06 3.66122e-06 3.55628e-06 0.000155214)
(0.00157939 -6.14283e-05 0.000129628 3.8914e-06 -5.06748e-06 0.000189809)
(0.00181059 -6.48318e-05 0.00030847 3.40726e-06 -1.25335e-05 0.000282218)
(0.00174842 -6.5567e-05 0.000394477 4.37166e-06 -3.45584e-05 0.000535966)
(0.00169077 -5.16695e-05 0.000261155 3.09113e-06 -1.71248e-05 0.000240891)
(0.00230654 -4.18653e-05 -0.000129762 3.57214e-06 -1.25959e-05 0.000278449)
(0.00320747 -8.61961e-05 -0.000410921 1.05571e-05 -5.52984e-06 0.000334874)
(0.00377745 -7.91126e-05 0.000474753 1.04138e-05 -1.33233e-05 0.000248225)
(0.0024697 -8.10417e-05 0.000369318 1.05679e-05 -2.41919e-05 0.000366294)
(0.00295765 -4.23621e-05 -0.000368169 7.25971e-06 -1.18396e-05 0.000308008)
(0.0037868 2.01008e-05 -0.000506781 4.59769e-06 -2.30764e-05 0.000311596)
(0.00124906 -6.02841e-05 7.32054e-05 3.62856e-05 -2.07427e-05 0.000191511)
(0.00528188 -0.000554562 -0.00115955 7.75224e-05 0.000143366 0.000547864)
(0.0165148 0.000114864 -0.00289763 7.89764e-06 -3.66404e-05 0.000764875)
(0.00315849 0.000204102 -0.000503709 3.17895e-05 -7.41694e-05 0.000341336)
(0.00261661 -0.000102175 0.000415041 1.26342e-05 -4.05715e-05 0.000276394)
(0.00239691 -2.75654e-05 0.000913648 4.83582e-06 -1.4302e-05 0.000663472)
(0.00107937 -2.48671e-05 0.000257403 6.1592e-06 2.66088e-05 0.000928974)
(0.0010736 -4.74883e-05 8.33857e-05 1.62368e-05 3.04638e-05 0.00031574)
(0.00145183 -5.10486e-06 0.0001269 1.46413e-05 1.2888e-05 0.000240325)
(0.00243259 -4.73983e-05 0.000286105 5.67491e-06 9.12435e-06 0.000272088)
(0.00340284 -9.59863e-05 0.000266991 6.32177e-06 4.49119e-06 0.00026005)
(0.00428588 -0.000107977 0.000176012 6.22113e-06 7.45857e-06 0.000261433)
(0.00586282 -9.25073e-05 7.70265e-05 5.19146e-06 1.27492e-05 0.000262177)
(0.00794964 -6.00698e-05 4.73044e-05 4.66067e-06 1.43747e-05 0.000216296)
(0.00811317 -0.00012478 -0.000180235 5.9914e-06 1.43864e-05 0.000165185)
(0.00780328 -0.000208257 -0.000766173 9.58251e-06 3.19025e-05 0.000209909)
(0.00743931 -0.00024589 -0.000777794 1.23085e-05 3.4196e-05 0.00019442)
(0.00610158 -0.000186653 -1.76239e-05 1.00861e-05 5.93066e-06 0.000115578)
(0.00438025 -0.000108214 0.000492809 8.53077e-06 -1.41253e-06 0.000308319)
(0.00271212 -6.37807e-05 0.000466959 9.28457e-06 1.13245e-05 0.000838789)
(0.00231009 -5.79963e-05 0.000608359 8.79752e-06 1.66899e-06 0.00146951)
(0.00215662 -5.45847e-05 0.000477072 6.85855e-06 -1.08068e-05 0.000649598)
(0.00153293 -3.58081e-05 1.90442e-05 5.29497e-06 -1.31059e-06 0.000239618)
(0.00201602 -3.93268e-05 0.0004114 5.2526e-06 1.02324e-06 0.000453859)
(0.00155307 -6.66078e-05 9.69738e-05 8.23521e-06 -8.27605e-06 0.000257422)
(0.00137866 -9.47069e-05 -7.66267e-05 2.23857e-05 6.23607e-06 0.000146204)
(0.00256412 -0.000135349 -4.61557e-05 1.30043e-05 1.63255e-06 0.00012486)
(0.00234488 -2.84296e-05 0.000219902 1.24752e-05 1.53347e-05 0.000177578)
(0.00149305 -7.92032e-05 -4.85044e-05 8.55606e-06 1.25862e-05 0.000234541)
(0.00144759 -6.97056e-05 -1.38309e-05 1.24755e-05 -1.29723e-05 0.000234827)
(0.00183433 -0.000116167 0.000193974 1.15534e-05 -1.86084e-05 0.00022872)
(0.00194257 -9.94036e-05 0.000287425 7.95878e-06 -1.50695e-05 0.000224421)
(0.00176631 -0.000114755 0.000375821 1.28949e-05 -5.22486e-05 0.000426743)
(0.00189612 -0.000119817 0.000420238 1.46389e-05 -6.69875e-05 0.000537417)
(0.00232499 -0.000104905 3.0907e-05 1.04269e-05 -6.78535e-06 0.000159087)
(0.00273041 -0.000129322 -0.000586729 2.15312e-05 1.38855e-05 0.000408522)
(0.00403779 -7.48901e-05 0.000105456 1.81913e-05 -1.17717e-05 0.000127472)
(0.00195312 -5.76125e-05 0.000278886 1.77643e-05 -2.26744e-05 0.000360821)
(0.00165704 -6.20499e-05 -0.000107076 1.64708e-05 -4.57594e-06 0.00019054)
(0.00277385 4.62658e-05 -0.000427645 1.22859e-05 -3.96754e-05 0.000303618)
(0.00122579 -5.9573e-05 0.000102468 2.51067e-05 -4.89063e-05 0.000228863)
(0.00130188 -0.000202071 -5.52545e-05 0.000154683 4.76111e-05 0.000225405)
(0.0113511 -0.000120796 -0.00174142 1.26541e-05 -1.14265e-06 0.000502286)
(0.00445197 0.000432762 -0.000613032 7.86513e-05 -0.000112041 0.000320734)
(0.00231321 -0.000143879 0.000301125 3.07737e-05 -5.8081e-05 0.000251953)
(0.00332424 3.60571e-05 0.000685581 1.14396e-05 6.86828e-06 0.000330482)
(0.00135777 1.99292e-06 0.000349166 1.89203e-05 6.37546e-05 0.00064692)
(0.00139006 -0.000110418 -4.83322e-05 2.61763e-05 3.90643e-05 0.000279483)
(0.00105523 -4.34359e-05 7.0252e-05 2.52977e-05 5.73717e-06 0.000211527)
(0.00188545 -2.94462e-05 0.000346313 1.08193e-05 1.89676e-05 0.000312949)
(0.00251542 -8.06008e-05 0.000514766 9.20887e-06 1.86599e-06 0.000375863)
(0.00298112 -0.00012187 0.000366629 1.09674e-05 -1.80441e-06 0.000293733)
(0.00438779 -0.000187506 0.000134761 1.39924e-05 8.95077e-06 0.000242627)
(0.00744642 -0.000198943 -5.12372e-05 1.19825e-05 1.86825e-05 0.000202973)
(0.00931104 -0.000200286 -0.000172791 1.11757e-05 1.91899e-05 0.000169644)
(0.00915963 -0.000272686 -0.000774564 1.53651e-05 3.80816e-05 0.000217541)
(0.00872486 -0.000343082 -0.000914254 2.23012e-05 4.82607e-05 0.000227214)
(0.00700527 -0.00025236 -7.10645e-05 1.80829e-05 8.88564e-06 0.000129252)
(0.00488426 -0.000146978 0.000541518 1.47755e-05 -5.95107e-06 0.00030173)
(0.00287248 -9.25618e-05 0.000540754 1.51996e-05 -2.93176e-06 0.000748892)
(0.00248398 -0.000102445 0.000755594 1.66232e-05 -4.07074e-05 0.00144788)
(0.00256723 -0.000120588 0.000653495 1.65591e-05 -3.79727e-05 0.000756257)
(0.00171737 -4.52629e-05 -0.00013208 1.06597e-05 7.59413e-06 0.000288147)
(0.00142132 -5.52306e-05 0.000152258 1.17294e-05 -3.3762e-06 0.000763602)
(0.00143395 -6.96415e-05 9.52863e-05 1.44254e-05 1.93177e-06 0.000542313)
(0.00131078 -7.80687e-05 -8.81773e-05 3.10695e-05 -2.46452e-05 0.0002379)
(0.00121828 -0.000105761 1.69915e-05 3.06904e-05 -1.37642e-05 0.000149075)
(0.00184085 -6.59282e-05 1.7613e-05 1.89112e-05 -8.08518e-06 0.000142254)
(0.00141057 -7.41212e-05 2.5987e-05 1.59339e-05 -3.8096e-06 0.000180964)
(0.0012621 -8.37781e-05 -2.31248e-05 3.15789e-05 -2.86059e-05 0.000233391)
(0.00156389 -0.000166018 0.000155219 3.33052e-05 -5.07269e-05 0.000268325)
(0.00205712 -0.000124661 0.000288632 1.54753e-05 -1.9621e-05 0.000236764)
(0.0014846 -0.000143669 0.000273814 2.1941e-05 -5.26959e-05 0.000366825)
(0.00164941 -0.000192043 0.000431196 3.73222e-05 -0.000112853 0.000592414)
(0.00220355 -0.000173418 5.91632e-05 2.54109e-05 -1.73483e-05 0.000148263)
(0.00234308 -0.000175021 -0.000543842 3.90321e-05 2.49603e-05 0.0003239)
(0.00441501 -8.57752e-05 -0.000322236 2.82809e-05 -1.16521e-05 0.000133812)
(0.00198241 -5.79681e-05 0.000257008 2.74621e-05 -1.83212e-05 0.000198511)
(0.0010885 -6.07238e-05 -1.66124e-05 2.88572e-05 -9.81059e-06 0.000127233)
(0.00155255 1.07527e-05 -0.000189207 1.99514e-05 -3.33261e-05 0.0002143)
(0.00128758 -8.99179e-05 0.000245082 2.04782e-05 -5.55599e-05 0.000268636)
(0.000957534 -9.38561e-05 7.39186e-05 0.000235633 -0.000123496 0.000197296)
(0.00562833 -0.000352172 -0.000658251 3.72091e-05 2.46674e-05 0.000260628)
(0.0039781 0.000486082 -0.000466269 0.0001192 -0.000125919 0.00025131)
(0.00131837 -3.09449e-05 5.9621e-05 6.62925e-05 -5.01787e-05 0.000160771)
(0.00150097 9.84047e-06 2.08127e-05 2.17211e-05 -2.26523e-05 0.000140124)
(0.00117354 6.21062e-06 0.000117149 5.5897e-05 3.83669e-05 0.000192067)
(0.00210847 -0.000231698 -0.000128454 5.05332e-05 3.50563e-05 0.000183187)
(0.00167696 -0.000140998 0.000187582 2.70682e-05 -1.09296e-05 0.000172115)
(0.00105765 -4.64695e-05 0.000129631 1.40232e-05 7.63496e-06 0.000196908)
(0.00198434 -3.12593e-05 0.000643527 1.07785e-05 1.78777e-05 0.000506554)
(0.00174468 -7.30717e-05 0.000502251 1.10089e-05 -3.70063e-06 0.000484609)
(0.00240687 -0.00019905 0.000243817 2.50699e-05 -1.59576e-05 0.000240132)
(0.00523506 -0.000345992 -0.000106955 3.16289e-05 1.74525e-05 0.000152579)
(0.00845333 -0.000322223 -0.000388434 2.11474e-05 2.57226e-05 0.000146455)
(0.00906187 -0.000320292 -0.000940664 2.09587e-05 4.49375e-05 0.000229572)
(0.0085972 -0.000387976 -0.00105777 2.97082e-05 6.04774e-05 0.000258947)
(0.00664733 -0.000262214 -0.000136596 2.30614e-05 1.19825e-05 0.00013432)
(0.00484151 -0.000168586 0.000467948 1.97308e-05 -8.51159e-06 0.000281717)
(0.00315734 -0.000119349 0.000588159 1.97695e-05 -1.14926e-05 0.00064918)
(0.00279199 -0.000175233 0.00086877 2.95479e-05 -9.21293e-05 0.00121236)
(0.00267867 -0.000241669 0.000552397 4.55641e-05 -8.18641e-05 0.000561375)
(0.00160112 -8.00493e-05 -0.000230634 1.85561e-05 2.84955e-05 0.000317873)
(0.00124535 -6.057e-05 -0.000149381 1.96945e-05 -9.93254e-06 0.000863825)
(0.0012321 -7.87191e-05 -9.13895e-05 2.45158e-05 -1.28943e-05 0.00060271)
(0.00116352 -8.84309e-05 -6.36214e-05 3.85775e-05 -3.2615e-05 0.000289489)
(0.00103065 -6.15507e-05 -4.62665e-05 3.97223e-05 -2.45481e-05 0.000181742)
(0.000931319 -8.23225e-05 4.96085e-05 2.73618e-05 -7.57592e-06 0.000142974)
(0.00129771 -5.62526e-05 -4.80675e-05 2.77898e-05 -1.78966e-05 0.000188256)
(0.000952241 -9.80496e-05 -2.83973e-05 4.51089e-05 2.3296e-06 0.000206784)
(0.000967362 -9.89564e-05 -3.79019e-05 8.69049e-05 -4.25493e-05 0.00017857)
(0.00148634 -0.000163124 8.56527e-05 3.36816e-05 -2.26124e-05 0.000171325)
(0.00132789 -0.0001654 0.000222727 3.28113e-05 -4.75771e-05 0.00030931)
(0.00119892 -0.000208546 0.000320673 6.38542e-05 -0.000146416 0.00058177)
(0.00178453 -0.000231868 0.000123937 5.16743e-05 -4.27684e-05 0.000160312)
(0.00191967 -0.000229937 -0.000331587 6.40932e-05 2.28184e-05 0.000195919)
(0.00387083 -0.000138267 -0.000462515 4.17714e-05 -4.26948e-06 0.000174837)
(0.00238646 -0.000105816 0.000111453 4.04875e-05 -1.27759e-05 0.000112323)
(0.00123297 -0.000117244 7.99628e-05 4.23877e-05 -1.46221e-05 0.000118955)
(0.00109316 -2.49462e-05 -2.77294e-07 2.62202e-05 -1.25512e-05 0.000131665)
(0.00105298 -0.000103029 0.000315687 2.52463e-05 -5.69342e-05 0.000317882)
(0.000850901 -0.000183433 0.000177895 0.000264942 -0.000207004 0.000250997)
(0.00211595 -0.000309335 -0.000117632 6.84348e-05 1.75141e-05 0.000136198)
(0.00154771 0.000198194 -0.000138003 0.000133497 -0.000126637 0.000202578)
(0.00114802 3.23098e-05 8.90992e-05 6.93759e-05 -2.65098e-05 0.000113939)
(0.00145678 -0.000106059 0.000388054 3.31527e-05 -6.01906e-05 0.00031083)
(0.00115332 -0.000150256 0.000157472 7.80436e-05 -5.48082e-05 0.000154413)
(0.00136035 -0.000254533 -1.00198e-05 0.00010411 1.40515e-05 0.000125185)
(0.00240239 -0.000221752 0.000381304 4.02067e-05 -3.42275e-05 0.000171274)
(0.00109818 -2.05197e-05 7.87479e-05 2.127e-05 2.07004e-06 0.000101177)
(0.000992096 -3.12513e-05 0.000292216 1.4407e-05 1.84306e-05 0.000316759)
(0.00141848 -7.82347e-06 0.000618488 1.56324e-05 4.77496e-05 0.000626223)
(0.00112642 -0.000148531 0.000316168 3.25231e-05 -6.4129e-05 0.000397627)
(0.00225072 -0.000335737 5.78022e-05 6.45039e-05 -9.56508e-06 0.000106628)
(0.00511194 -0.000339562 -0.000497264 3.34775e-05 3.83347e-05 0.000130323)
(0.00786705 -0.000292178 -0.00127715 2.19783e-05 5.36855e-05 0.000311435)
(0.00780144 -0.000371851 -0.00128383 3.03985e-05 7.08677e-05 0.000321514)
(0.00534992 -0.000230142 -0.000233477 2.33869e-05 1.43471e-05 0.000116207)
(0.0040653 -0.000180189 0.000374819 2.32485e-05 -1.65704e-05 0.000265621)
(0.00325959 -0.000155945 0.00061552 2.36069e-05 -2.85326e-05 0.000589907)
(0.00314423 -0.00027826 0.000888613 5.07549e-05 -0.000135888 0.000907498)
(0.0027505 -0.000371499 0.000417057 9.5749e-05 -0.000104456 0.000379303)
(0.00148559 -0.000123458 -0.000242462 3.83031e-05 5.41692e-05 0.000322562)
(0.00115393 -7.00751e-05 -0.000231908 2.62214e-05 1.3766e-05 0.000855528)
(0.00114533 -6.55355e-05 -0.000242122 3.64314e-05 -2.86895e-05 0.000505103)
(0.00100905 -6.78548e-05 -0.000117233 5.45159e-05 -2.2403e-05 0.00022954)
(0.000901609 -5.59395e-05 -9.71112e-05 4.80427e-05 -1.16744e-05 0.000169656)
(0.000740692 -8.27053e-05 -1.70303e-05 3.66188e-05 -3.53193e-06 0.000134804)
(0.000859075 -4.50469e-05 -7.64153e-06 4.73534e-05 -1.35345e-05 0.000154421)
(0.000756081 -9.40362e-05 -7.21722e-05 3.83478e-05 -1.12258e-05 0.000195534)
(0.000808802 -9.53808e-06 -5.11208e-05 0.000112163 1.60634e-06 0.000166364)
(0.000781441 -0.000106795 -8.45464e-05 7.44468e-05 2.19654e-06 0.000162421)
(0.00111019 -0.0001848 2.7229e-05 5.40302e-05 -3.55451e-05 0.000194649)
(0.000934932 -0.000197412 0.000172688 7.96023e-05 -0.000137774 0.00046869)
(0.000973711 -0.000199009 7.78239e-05 8.28631e-05 -6.88833e-05 0.000190456)
(0.001864 -0.000319427 -0.00017619 9.48801e-05 1.21394e-05 0.000200095)
(0.00299587 -0.000232908 -0.000435334 5.85692e-05 1.67582e-05 0.000254503)
(0.00209719 -0.000180133 -0.000100202 5.6732e-05 2.05092e-06 0.000181435)
(0.00212702 -0.000208805 1.15001e-05 5.56612e-05 -6.4855e-06 0.000156719)
(0.00141863 -4.47199e-05 9.61802e-05 3.21808e-05 -7.32551e-06 0.000147309)
(0.00111193 -0.000112209 0.000341092 3.23825e-05 -6.39686e-05 0.000353042)
(0.000897304 -0.000212693 0.000212937 0.000248797 -0.000190637 0.000220218)
(0.000799889 -8.41576e-05 0.00010118 6.83811e-05 3.74081e-07 8.78215e-05)
(0.000734872 -5.12767e-05 9.70326e-05 0.000128763 -0.000117409 0.00018367)
(0.00125821 6.57545e-06 -3.97304e-05 4.35597e-05 -3.99331e-05 0.000137925)
(0.00138752 -0.000224776 0.000306379 7.05062e-05 -7.32003e-05 0.000189763)
(0.0011401 -0.000210612 0.000166081 8.29299e-05 -6.06297e-05 0.000158697)
(0.000789589 -0.000152456 -2.40722e-05 0.000121709 1.41384e-05 0.00013537)
(0.000658215 -0.000107932 3.62629e-05 7.78712e-05 -5.91754e-05 0.000152787)
(0.00104286 -1.25894e-05 0.000135896 2.98401e-05 2.18643e-06 0.000105948)
(0.000782541 -4.02442e-05 -0.000132667 2.04912e-05 -1.47611e-05 0.000184135)
(0.00091714 1.28115e-05 0.000412268 3.43176e-05 7.77581e-05 0.000467871)
(0.00121402 -0.00010629 0.000565742 2.35856e-05 -3.17251e-05 0.000480126)
(0.00057962 -0.0001438 0.000160046 9.76113e-05 -0.000118304 0.000274666)
(0.000571342 -0.00012955 4.88546e-06 7.24118e-05 4.3195e-06 7.96735e-05)
(0.00275857 -0.000204376 -0.000840617 2.84091e-05 6.49242e-05 0.000429935)
(0.00529552 -0.000250808 -0.00146953 2.53832e-05 7.22639e-05 0.000584423)
(0.00362707 -0.000150753 -0.00043451 2.02178e-05 2.08019e-05 0.000173004)
(0.00277056 -0.000153632 0.000226358 2.65781e-05 -2.3942e-05 0.000239434)
(0.00284121 -0.000182609 0.000616818 3.17491e-05 -6.08891e-05 0.000580396)
(0.00309108 -0.000392288 0.00086373 9.16781e-05 -0.000186422 0.000734376)
(0.00269212 -0.000488966 0.000417213 0.000158297 -0.00012759 0.000322434)
(0.00143766 -0.000165308 -0.000162514 5.63828e-05 4.17691e-05 0.000270081)
(0.000990698 -8.02585e-05 -0.00014441 3.46681e-05 2.13244e-05 0.000619088)
(0.000983034 -6.42362e-05 -0.000165973 4.43535e-05 -2.7981e-05 0.00036743)
(0.000920491 -3.33304e-05 -7.32429e-05 7.41735e-05 -1.4042e-06 0.000215951)
(0.000811714 -3.9173e-05 -9.37731e-05 6.05711e-05 2.35255e-06 0.000177759)
(0.000718928 -6.78232e-05 -7.55258e-05 4.72057e-05 1.14932e-06 0.000136398)
(0.000636528 -6.09096e-05 -9.59628e-06 6.07561e-05 -6.00437e-06 0.000151528)
(0.000727289 -5.05188e-05 -1.32789e-05 5.59137e-05 -2.76684e-05 0.000195937)
(0.000703955 -4.81981e-05 1.59868e-05 7.95856e-05 -3.16776e-06 0.000214174)
(0.00082321 5.87154e-06 3.34903e-05 0.000114702 2.94569e-05 0.000237812)
(0.000850522 -0.000175152 -7.38981e-05 9.05993e-05 -9.3903e-06 0.000185314)
(0.000910494 -0.000183234 8.56615e-05 8.46562e-05 -0.000111152 0.000346655)
(0.000760048 -0.000143749 2.08125e-05 9.8921e-05 -8.94164e-05 0.000248468)
(0.00210611 -0.000433295 1.64623e-05 0.000134196 -2.08556e-05 0.000119064)
(0.00243854 -0.000272165 -0.000284278 7.17744e-05 7.91004e-06 0.000194855)
(0.00130027 -0.000146029 -1.93778e-05 6.50328e-05 -1.36443e-05 0.000146364)
(0.00222071 -0.000240294 -3.58466e-05 7.29238e-05 -9.70567e-06 0.000133758)
(0.00181599 -5.33945e-05 0.000121853 4.18645e-05 -2.02161e-05 0.000117854)
(0.00107973 -0.00010431 0.000282685 4.90428e-05 -8.53432e-05 0.00032286)
(0.000858598 -0.000158025 0.000175313 0.000209701 -0.000176345 0.000220975)
(0.000948683 6.4236e-06 9.81552e-05 4.93836e-05 -1.75054e-05 9.71457e-05)
(0.000767153 -0.000145788 0.000181576 7.96568e-05 -8.62405e-05 0.000201244)
(0.00191989 -7.34116e-05 -0.000358607 3.49208e-05 -2.08155e-05 0.000266728)
(0.00190567 -0.000302317 0.000104911 7.49112e-05 -2.44922e-05 0.000127129)
(0.00119741 -0.000204448 0.000154452 7.09256e-05 -5.57388e-05 0.00018262)
(0.00123548 -0.000248446 -2.57684e-05 9.47076e-05 -1.27038e-05 0.000148549)
(0.000759382 -7.10296e-06 -7.03912e-05 0.000101183 -6.68123e-05 0.000167237)
(0.000504028 -6.85125e-05 3.98824e-05 3.85417e-05 -1.71488e-05 0.000158313)
(0.00202621 1.62208e-05 -0.00033521 3.65114e-05 -2.3532e-05 0.000177817)
(0.000552627 -7.71369e-05 -0.000112323 3.55166e-05 3.68594e-05 0.000408583)
(0.00163829 -2.19111e-05 0.000553193 3.35236e-05 1.54049e-05 0.000324231)
(0.00063778 -0.000127693 0.000312973 4.87963e-05 -7.34657e-05 0.000389268)
(0.0014262 0.000182604 -0.000619948 7.74737e-05 -0.000142203 0.000493598)
(0.0010426 9.98244e-05 0.000121396 5.43502e-05 1.71384e-05 0.000137433)
(0.000855223 -0.000109179 -0.000446016 3.4932e-05 8.87012e-05 0.000823824)
(0.00134719 -7.01929e-05 -0.000416849 2.32201e-05 1.85941e-05 0.000479316)
(0.00132757 -9.99898e-05 0.000124987 3.02302e-05 -1.50236e-05 0.000212935)
(0.00205088 -0.000210172 0.000668055 4.88192e-05 -9.17569e-05 0.000537008)
(0.00279122 -0.000531463 0.000948761 0.000151322 -0.000224537 0.000637584)
(0.00252018 -0.000580283 0.000415037 0.000198323 -0.000101006 0.000296646)
(0.00142294 -0.000173731 -2.80249e-05 4.87802e-05 1.3084e-05 0.00027939)
(0.000796146 -7.61722e-05 1.4501e-05 3.5306e-05 -1.61666e-05 0.000360671)
(0.000778289 -7.4146e-05 2.47784e-05 4.69332e-05 -3.01223e-05 0.00025479)
(0.000817892 -3.32603e-05 6.35748e-05 8.52501e-05 1.52111e-05 0.000272713)
(0.000798129 -1.74617e-05 -9.1661e-07 7.1546e-05 -1.26572e-06 0.0002149)
(0.000785434 -4.4747e-05 -4.74213e-05 5.53457e-05 1.04035e-08 0.000191608)
(0.000678484 -8.12633e-05 4.73221e-05 6.29981e-05 -5.61471e-06 0.000199622)
(0.000764875 -7.23925e-05 0.000114422 9.19733e-05 -5.89301e-05 0.000263861)
(0.000825052 -9.18387e-05 0.000186873 5.7698e-05 -3.45995e-05 0.000284527)
(0.00101914 3.27615e-05 0.000212921 0.000120996 2.0335e-05 0.000263998)
(0.000735643 -0.000120074 2.5168e-05 0.000135855 8.41318e-06 0.000164761)
(0.00084493 -0.000156468 9.89747e-05 9.51051e-05 -9.85226e-05 0.000226399)
(0.000774457 -0.000136313 0.000119173 0.000110522 -0.000122213 0.000231003)
(0.00205555 -0.000539011 6.76754e-05 0.000203067 -3.19703e-05 8.30323e-05)
(0.0018475 -0.000245905 -0.000115693 8.64612e-05 -1.79155e-05 0.000118463)
(0.000846779 -9.93848e-05 8.02854e-05 7.27956e-05 -4.14255e-05 0.000105192)
(0.00157146 -0.000205129 8.99998e-05 9.15483e-05 -3.86398e-05 0.00010572)
(0.0015796 -6.54585e-05 0.000106515 6.34935e-05 -2.67507e-05 0.000108076)
(0.00082298 -8.27275e-05 0.000147893 6.97149e-05 -7.87595e-05 0.000304303)
(0.000715727 -5.16902e-05 6.54051e-05 0.000203678 -0.000184858 0.000280163)
(0.000980429 -1.03454e-05 6.17667e-05 4.51775e-05 -2.55582e-05 0.000126137)
(0.000936627 -0.000169366 0.000166483 6.12202e-05 -4.90911e-05 0.000156379)
(0.00164868 -0.000175641 -0.00023262 4.81839e-05 9.78941e-06 0.000211378)
(0.00249867 -0.000342256 -2.35533e-05 8.29156e-05 7.04898e-06 0.000128694)
(0.00101433 -0.000185438 0.00019305 8.12878e-05 -3.28063e-05 0.00019223)
(0.00114988 -0.000247012 0.000157777 0.000101458 -2.77954e-05 0.000161813)
(0.000432724 -0.000126329 8.10981e-05 0.000102791 -5.27301e-05 0.000199603)
(0.000307852 -6.46951e-05 -3.3601e-06 6.91235e-05 -4.63626e-05 0.000264974)
(0.00181029 -8.21569e-05 -0.00017239 5.08389e-05 1.92736e-06 0.000136339)
(0.00128507 -2.96445e-05 -0.000495738 4.50724e-05 -8.16675e-06 0.000399465)
(0.000822135 -3.46153e-05 0.000221112 4.25019e-05 1.26903e-05 0.000237406)
(0.000824411 -5.97604e-06 0.000292061 4.01253e-05 3.12021e-05 0.000286337)
(0.00105281 -8.32225e-06 -0.000704325 3.04123e-05 -3.89799e-05 0.000823278)
(0.00343354 0.000226135 -0.000871899 4.80365e-05 -7.76437e-05 0.000393732)
(0.00106385 8.70323e-05 0.000552921 4.68341e-05 8.40502e-05 0.000585569)
(0.000435181 -2.42283e-05 7.43457e-05 3.24306e-05 4.36454e-05 0.000842054)
(0.000614121 -7.12247e-05 6.04978e-05 4.54988e-05 6.93052e-06 0.00024356)
(0.00179547 -0.000288274 0.00058486 8.49094e-05 -9.77662e-05 0.000371935)
(0.00283478 -0.000666792 0.000859201 0.000207774 -0.000193289 0.000426927)
(0.00235478 -0.000648336 0.00055095 0.000239742 -0.000126902 0.000296054)
(0.0017982 -0.000210043 0.000403553 4.86167e-05 -4.24487e-05 0.000259514)
(0.000889198 -6.36049e-05 0.000208967 3.94098e-05 -3.60675e-05 0.000203206)
(0.000815594 -8.65075e-05 0.00016751 5.57038e-05 -3.55367e-05 0.000174554)
(0.000924458 -3.15877e-05 0.000205372 0.000113278 1.7406e-05 0.00021467)
(0.000997234 7.16363e-06 0.000106686 9.51129e-05 -2.82383e-05 0.000137191)
(0.00101621 -4.93539e-05 -3.849e-05 6.08228e-05 -2.84503e-05 0.000165437)