# y+ ()       
# Time        	patch         	min           	max           	average       
15            	bottomWall	1.745833e+00	4.285321e+00	2.636317e+00
15            	topWall	1.734127e+00	4.448837e+00	2.622233e+00
