/*--------------------------------*- C++ -*----------------------------------*\
  =========                 |
  \\      /  F ield         | OpenFOAM: The Open Source CFD Toolbox
   \\    /   O peration     | Website:  https://openfoam.org
    \\  /    A nd           | Version:  10
     \\/     M anipulation  |
\*---------------------------------------------------------------------------*/
FoamFile
{
    format      ascii;
    class       volSymmTensorField;
    location    "30";
    object      UPrime2Mean;
}
// * * * * * * * * * * * * * * * * * * * * * * * * * * * * * * * * * * * * * //

dimensions      [0 2 -2 0 0 0 0];

internalField   nonuniform List<symmTensor> 
25600
(
(0.000153592 1.27145e-08 -1.11504e-06 1.17553e-11 -1.10368e-10 2.80805e-07)
(0.000153032 1.92923e-08 3.13518e-06 1.13433e-11 6.56248e-10 4.33589e-07)
(0.000152916 -1.32568e-08 3.31952e-06 9.3633e-12 -9.80615e-11 3.79363e-07)
(0.000153191 -7.25121e-09 -5.1217e-07 1.20074e-11 5.4175e-10 3.2172e-07)
(0.00015283 1.69299e-09 -3.65176e-06 1.17969e-11 2.30177e-10 4.66723e-07)
(0.000153068 -6.10874e-09 -1.38079e-06 1.25435e-11 1.47956e-10 2.77679e-07)
(0.000153097 5.90895e-09 2.97443e-06 6.85185e-12 7.74594e-10 3.75555e-07)
(0.000153805 4.3825e-09 2.93325e-06 9.29717e-12 6.27804e-10 3.42131e-07)
(0.000154055 -1.24912e-08 -4.11751e-07 1.07563e-11 6.55058e-10 3.61318e-07)
(0.000153365 -8.19051e-09 -3.82249e-06 7.99881e-12 4.66094e-10 5.13331e-07)
(0.000154026 7.14433e-10 -1.42669e-06 7.54896e-12 3.96191e-10 3.27444e-07)
(0.000153628 6.72033e-10 3.08947e-06 4.13965e-12 3.66551e-10 4.79986e-07)
(0.000153047 -5.25071e-09 3.33781e-06 4.54172e-12 2.95209e-10 3.8724e-07)
(0.000152589 -5.2196e-10 -4.97576e-07 9.2823e-12 5.46471e-10 3.24465e-07)
(0.000153269 -1.12725e-08 -3.86659e-06 1.40951e-11 8.96344e-10 5.01721e-07)
(0.000153141 4.15427e-09 -1.10725e-06 2.02177e-11 3.3936e-10 3.32146e-07)
(0.000152645 1.1855e-08 2.92959e-06 1.78806e-11 3.79686e-10 4.42968e-07)
(0.000153374 -1.89341e-08 3.36272e-06 1.79841e-11 -5.16727e-10 4.10414e-07)
(0.000153745 -8.49062e-09 -1.26956e-06 2.49891e-11 1.74037e-10 4.14222e-07)
(0.000152919 -1.07241e-08 -4.26695e-06 1.42502e-11 3.4234e-10 5.7403e-07)
(0.000154532 -1.76953e-09 -1.12536e-06 1.55557e-11 5.22156e-10 3.42625e-07)
(0.000152237 1.99067e-08 2.57996e-06 1.50696e-11 1.02952e-09 4.19085e-07)
(0.000153756 2.42237e-09 3.2613e-06 8.50269e-12 7.10589e-11 3.66096e-07)
(0.000152603 -1.30927e-09 -1.47937e-06 6.86058e-12 7.35196e-10 3.42722e-07)
(0.000153324 -3.48393e-10 -3.90588e-06 1.17522e-11 8.53621e-10 4.84927e-07)
(0.00015193 -4.52406e-09 -1.80389e-06 1.28314e-11 6.61095e-10 3.35452e-07)
(0.000152919 2.25819e-08 2.83512e-06 1.85988e-11 1.33287e-09 4.54442e-07)
(0.000152659 8.7823e-09 3.05389e-06 1.37425e-11 -2.99619e-11 3.65827e-07)
(0.000152592 -2.2888e-08 -5.90067e-07 1.12918e-11 1.46241e-10 3.16658e-07)
(0.000152787 -2.97148e-09 -3.5718e-06 4.32487e-12 -2.90814e-11 4.63507e-07)
(0.000152287 8.83479e-09 -1.60364e-06 9.06854e-12 4.24956e-10 3.48389e-07)
(0.00015435 -8.20048e-10 3.61988e-06 1.27333e-11 1.01666e-09 5.72248e-07)
(0.000152896 -7.9738e-09 3.73724e-06 1.06483e-11 6.06423e-10 4.63837e-07)
(0.000153455 -1.36462e-08 -4.01581e-07 1.10227e-11 6.99288e-10 3.37483e-07)
(0.000152316 5.55323e-09 -3.15021e-06 8.9853e-12 2.07856e-10 4.23411e-07)
(0.000152793 3.92535e-09 -1.03766e-06 9.85727e-12 4.90023e-10 2.87221e-07)
(0.000152557 -1.05192e-10 3.62689e-06 1.19244e-11 1.41511e-11 4.73806e-07)
(0.00015419 -1.10895e-08 3.46584e-06 1.15005e-11 -8.08313e-10 3.80637e-07)
(0.000153409 -1.16701e-08 -7.66081e-07 1.37406e-11 -3.52211e-10 3.69798e-07)
(0.000152296 -6.50394e-09 -3.84049e-06 9.21593e-12 -2.41467e-10 4.96069e-07)
(0.00139099 8.50297e-08 -1.0878e-05 1.31456e-10 -5.98195e-09 2.57605e-06)
(0.00138714 2.80301e-07 2.87423e-05 1.91696e-10 1.20118e-08 3.95293e-06)
(0.00138672 -8.06745e-08 3.08361e-05 6.8587e-11 -5.87211e-09 3.47003e-06)
(0.00138732 -1.75164e-07 -4.89412e-06 1.41019e-10 4.47146e-09 2.92882e-06)
(0.00138485 -2.59279e-07 -3.46776e-05 1.67647e-10 1.01243e-08 4.28307e-06)
(0.00138735 3.61222e-08 -1.28298e-05 1.26356e-10 4.82492e-09 2.56175e-06)
(0.00138599 -6.32432e-08 2.78952e-05 9.61297e-11 4.16452e-09 3.45862e-06)
(0.00139549 1.96753e-08 2.77406e-05 1.08819e-10 6.50306e-09 3.20195e-06)
(0.00139536 -2.04382e-07 -3.85218e-06 2.85272e-10 -2.72358e-10 3.32926e-06)
(0.00138962 -2.5169e-07 -3.66665e-05 1.46959e-10 1.34555e-08 4.73619e-06)
(0.00139464 -6.17336e-08 -1.35613e-05 1.62827e-10 8.34452e-09 2.961e-06)
(0.00139146 2.03701e-07 2.84547e-05 1.7351e-10 1.79679e-08 4.32019e-06)
(0.00138808 7.24926e-08 3.07747e-05 1.22729e-10 1.43514e-08 3.49571e-06)
(0.00138166 -8.93788e-08 -5.52432e-06 1.37e-10 8.56883e-09 2.96219e-06)
(0.00138828 -3.94693e-07 -3.69568e-05 3.43248e-10 1.39442e-08 4.5912e-06)
(0.00138641 2.42057e-07 -1.06537e-05 4.92838e-10 -1.09494e-08 3.045e-06)
(0.00138461 1.33836e-08 2.77328e-05 2.18642e-10 -1.04989e-08 4.10684e-06)
(0.00139048 -2.68615e-07 3.14414e-05 2.23405e-10 -1.72317e-08 3.78657e-06)
(0.00139276 -4.7664e-07 -1.18412e-05 4.1031e-10 4.03433e-09 3.79164e-06)
(0.00138575 -2.94081e-07 -3.97748e-05 2.78486e-10 9.44201e-09 5.25208e-06)
(0.00139951 5.12883e-09 -1.06623e-05 2.97314e-10 4.51547e-09 3.14211e-06)
(0.00137725 4.05318e-07 2.33998e-05 4.3873e-10 1.86365e-08 3.78402e-06)
(0.00139385 -1.2319e-07 3.04348e-05 1.26067e-10 -8.07236e-11 3.35659e-06)
(0.00138348 2.75132e-08 -1.44388e-05 1.28809e-10 1.00728e-08 3.17247e-06)
(0.00139022 -3.2073e-07 -3.65881e-05 2.91753e-10 1.98923e-08 4.42799e-06)
(0.0013757 -7.61567e-08 -1.70099e-05 2.02594e-10 3.35956e-09 3.09465e-06)
(0.00138374 1.92199e-07 2.59942e-05 2.17682e-10 1.22555e-08 4.1223e-06)
(0.00138472 -7.76639e-09 2.87077e-05 7.33624e-11 -4.09044e-09 3.36004e-06)
(0.00138298 -2.902e-07 -6.07891e-06 1.30257e-10 -4.08222e-09 2.94776e-06)
(0.00138367 -8.30261e-08 -3.36326e-05 5.09631e-11 -1.65509e-09 4.23044e-06)
(0.00138014 -2.17681e-07 -1.51604e-05 1.08387e-10 7.07572e-09 3.19905e-06)
(0.00139969 1.27403e-07 3.45906e-05 2.20103e-10 1.96117e-08 5.25945e-06)
(0.00138652 2.00046e-07 3.48626e-05 1.95653e-10 1.60227e-08 4.21814e-06)
(0.00139023 -2.81752e-07 -4.00618e-06 2.07156e-10 8.38034e-09 3.06777e-06)
(0.00137944 -4.86563e-09 -2.95168e-05 1.10941e-10 -1.14228e-09 3.85789e-06)
(0.00138427 1.68958e-08 -1.0225e-05 1.57489e-10 9.60341e-10 2.64112e-06)
(0.0013802 -5.93489e-09 3.44033e-05 1.44549e-10 -8.69821e-09 4.32612e-06)
(0.0013966 -3.74115e-07 3.21694e-05 2.56742e-10 -2.28661e-08 3.48852e-06)
(0.00138986 2.70086e-07 -7.37905e-06 2.65104e-10 -1.64835e-08 3.41197e-06)
(0.00138025 -8.01224e-08 -3.57483e-05 8.14545e-11 -3.58783e-09 4.53281e-06)
(0.00393615 3.04326e-07 -2.87181e-05 6.62594e-10 -3.97273e-08 7.73224e-06)
(0.00392876 9.54241e-07 8.49402e-05 1.03412e-09 3.5066e-08 1.20925e-05)
(0.00393743 -5.10259e-07 8.91997e-05 5.9303e-10 -4.32552e-08 1.00363e-05)
(0.00393513 -5.2226e-07 -1.98516e-05 5.96727e-10 -2.6975e-09 9.19906e-06)
(0.00393272 -9.44285e-07 -0.000101946 9.07881e-10 2.09045e-08 1.26984e-05)
(0.0039331 1.64427e-07 -3.75766e-05 6.08856e-10 9.92194e-09 7.50921e-06)
(0.00393251 -4.24699e-07 8.84447e-05 5.25548e-10 3.70219e-09 1.12487e-05)
(0.0039567 1.2273e-07 8.16386e-05 5.2222e-10 1.51949e-08 9.44924e-06)
(0.00395903 -7.56728e-07 -1.74154e-05 1.90198e-09 -4.49648e-08 1.06902e-05)
(0.00393957 -1.03354e-06 -0.000113026 7.5286e-10 4.29839e-08 1.43804e-05)
(0.00395854 -1.12246e-07 -3.25737e-05 9.83559e-10 3.52822e-08 8.86442e-06)
(0.00394547 7.24505e-07 8.91143e-05 8.17593e-10 6.26017e-08 1.3649e-05)
(0.003931 3.25357e-07 8.84888e-05 7.49786e-10 5.53325e-08 9.95526e-06)
(0.00392096 2.20836e-08 -2.3389e-05 6.781e-10 5.62831e-09 9.45057e-06)
(0.00394465 -1.38041e-06 -0.000113977 1.84147e-09 1.66003e-08 1.39474e-05)
(0.00393914 1.54393e-06 -2.81364e-05 3.40651e-09 -8.12885e-08 9.18878e-06)
(0.00391974 1.03921e-07 7.54318e-05 1.4978e-09 -6.73692e-08 1.19192e-05)
(0.00394959 -1.255e-06 9.11491e-05 1.40214e-09 -9.9529e-08 1.09969e-05)
(0.00394925 -1.50191e-06 -4.24616e-05 2.06523e-09 -3.58812e-08 1.24493e-05)
(0.00392262 -1.1662e-06 -0.000118271 1.66058e-09 1.17986e-08 1.55761e-05)
(0.00396823 -2.01248e-07 -2.40794e-05 1.52361e-09 -4.27618e-09 9.71129e-06)
(0.003909 1.4553e-06 7.60272e-05 2.18017e-09 5.31774e-08 1.20876e-05)
(0.00396158 -3.22117e-07 8.8328e-05 5.50515e-10 -9.38431e-09 9.68166e-06)
(0.00391291 4.67544e-07 -4.53104e-05 7.90267e-10 1.95841e-08 1.00847e-05)
(0.00393672 -1.39597e-06 -0.000109341 1.96022e-09 6.7631e-08 1.32377e-05)
(0.0039006 -6.03843e-07 -4.89325e-05 1.31136e-09 -2.11267e-08 9.09077e-06)
(0.00392322 7.50271e-07 8.72864e-05 1.42577e-09 4.36623e-08 1.3597e-05)
(0.00392967 -3.67033e-07 8.3944e-05 5.27762e-10 -4.32626e-08 9.74952e-06)
(0.00392301 -8.51276e-07 -1.56886e-05 7.35454e-10 -4.18727e-08 8.6353e-06)
(0.00392057 -1.3628e-07 -0.000104483 4.53305e-10 -2.43438e-08 1.29034e-05)
(0.00391335 -1.21942e-06 -4.531e-05 8.46176e-10 1.85424e-08 9.23017e-06)
(0.0039645 8.65485e-07 0.000103376 1.66566e-09 9.24431e-08 1.61867e-05)
(0.00392799 1.01649e-06 0.000101222 1.36405e-09 5.62452e-08 1.21179e-05)
(0.00393937 -1.35188e-06 -1.81484e-05 1.56641e-09 4.02244e-08 9.5646e-06)
(0.00391163 1.67604e-07 -8.75843e-05 6.90971e-10 -2.65717e-08 1.13679e-05)
(0.00392569 -5.85328e-08 -2.97917e-05 7.47841e-10 -9.29683e-09 7.8165e-06)
(0.00391997 -6.8046e-07 0.000110892 1.13537e-09 -9.5345e-08 1.46462e-05)
(0.00398178 -1.71944e-06 9.29195e-05 1.84578e-09 -1.14954e-07 1.00412e-05)
(0.00394432 2.42019e-06 -2.3608e-05 4.22433e-09 -1.3472e-07 1.0541e-05)
(0.00390835 -1.85447e-07 -0.000107935 5.70916e-10 -3.68946e-08 1.35549e-05)
(0.0072366 7.00343e-07 -5.88541e-05 2.90866e-09 -1.11391e-07 1.67343e-05)
(0.00720574 1.25017e-06 0.000139555 4.27895e-09 5.57982e-08 2.51346e-05)
(0.00719431 -1.21631e-06 0.000168141 3.87111e-09 -1.26634e-07 2.04749e-05)
(0.00719793 -7.82231e-07 -1.39639e-05 1.85788e-09 -2.85689e-08 1.84552e-05)
(0.00716099 -2.37284e-06 -0.000167342 3.02504e-09 2.8841e-08 2.46049e-05)
(0.00719025 -6.04344e-07 -8.74878e-05 1.54833e-09 -1.69745e-08 1.52377e-05)
(0.00718574 -2.27302e-06 0.000134043 2.47604e-09 -7.18549e-08 2.13735e-05)
(0.00726525 5.07783e-07 0.000153402 1.81531e-09 1.473e-08 1.95913e-05)
(0.00724114 -3.44049e-06 5.17492e-06 5.01514e-09 -7.12936e-08 2.0221e-05)
(0.00721361 -2.37289e-06 -0.000205765 2.5375e-09 8.37836e-08 2.97476e-05)
(0.00725051 -1.63077e-06 -7.61567e-05 2.17644e-09 4.49499e-08 1.76822e-05)
(0.00722773 1.69599e-06 0.00013253 2.40712e-09 1.46527e-07 2.59685e-05)
(0.00722619 1.31816e-06 0.000161944 3.32237e-09 1.38636e-07 1.9714e-05)
(0.00715945 -1.03023e-07 -6.05485e-06 2.23714e-09 1.27028e-08 1.64729e-05)
(0.00718957 -3.51745e-06 -0.000188323 5.86445e-09 -1.40077e-08 2.643e-05)
(0.00716977 4.46994e-06 -8.54665e-05 1.33425e-08 -3.05568e-07 1.78085e-05)
(0.00717206 -1.58845e-06 0.000125578 6.39738e-09 -3.34639e-07 2.53067e-05)
(0.00722511 -3.65902e-06 0.000171327 6.27183e-09 -3.14622e-07 2.23716e-05)
(0.00722465 -3.84456e-06 -4.25541e-05 7.10227e-09 -1.15436e-07 2.37971e-05)
(0.00719823 -2.65865e-06 -0.000223574 6.02798e-09 -2.5261e-08 3.31826e-05)
(0.00728116 -3.63788e-07 -6.23347e-05 5.78562e-09 -3.30104e-08 2.03413e-05)
(0.00713921 2.57269e-06 0.000104854 5.93686e-09 4.13883e-08 2.24189e-05)
(0.00724249 -1.32179e-06 0.000163943 2.9281e-09 -6.01915e-08 1.94255e-05)
(0.00718243 2.28404e-06 -6.53643e-05 3.51793e-09 -2.1377e-08 2.16499e-05)
(0.00723254 -3.81253e-06 -0.000199778 7.40692e-09 1.46349e-07 2.78734e-05)
(0.00712061 -1.03114e-06 -0.000115291 4.65785e-09 -1.05929e-07 1.80118e-05)
(0.00718542 6.82805e-07 0.000134554 5.29948e-09 3.33999e-08 2.69647e-05)
(0.00719734 -7.20793e-07 0.000157839 3.61302e-09 -1.45871e-07 1.994e-05)
(0.00715028 -2.2833e-06 1.09343e-05 3.7643e-09 -9.91473e-08 1.52279e-05)
(0.00719146 4.14457e-07 -0.000188067 2.68278e-09 -1.01976e-07 2.68021e-05)
(0.00714932 -3.40426e-06 -0.000100113 3.96556e-09 2.78632e-08 1.84679e-05)
(0.00726119 1.53942e-06 0.000169491 5.40779e-09 1.834e-07 3.29376e-05)
(0.00721691 2.39034e-06 0.000192727 5.26111e-09 1.09743e-07 2.44592e-05)
(0.00722894 -1.91606e-06 -1.58689e-05 4.19508e-09 3.97553e-08 1.93718e-05)
(0.00715112 1.39893e-06 -0.00015466 4.22297e-09 -1.43281e-07 2.30919e-05)
(0.00717783 -3.76775e-07 -7.44667e-05 2.69197e-09 -2.7592e-08 1.59165e-05)
(0.00714073 -3.35865e-06 0.000142121 9.08274e-09 -3.65554e-07 2.26891e-05)
(0.00723702 -4.72123e-06 0.00016684 7.66608e-09 -3.15491e-07 1.99145e-05)
(0.0071922 6.95074e-06 -4.32261e-06 2.14395e-08 -3.53007e-07 1.94666e-05)
(0.00717564 -5.86132e-07 -0.000202687 3.64011e-09 -7.45555e-08 2.89744e-05)
(0.0108965 7.5186e-07 -0.000126889 1.20434e-08 -2.22387e-07 2.68614e-05)
(0.0108571 -2.34747e-06 0.000126145 1.26723e-08 -2.01317e-07 3.50683e-05)
(0.0109263 -4.3621e-06 0.000242074 1.40477e-08 -2.90128e-07 3.44725e-05)
(0.0109783 -1.31316e-06 -2.60026e-05 8.47632e-09 4.1782e-08 3.78878e-05)
(0.0109193 -4.51814e-06 -0.000252081 9.31489e-09 8.29018e-08 4.55969e-05)
(0.0108956 3.06958e-07 -0.000156826 5.76899e-09 -4.70989e-08 2.50117e-05)
(0.010921 -5.85481e-06 0.000170949 1.11778e-08 -2.37098e-07 3.70654e-05)
(0.0109901 1.89195e-06 0.000225321 6.94125e-09 4.56167e-08 3.39626e-05)
(0.0109928 -7.74954e-06 4.44386e-05 1.66854e-08 -6.53897e-08 3.44514e-05)
(0.0109496 -2.98185e-06 -0.000290128 6.89841e-09 8.7199e-08 5.05268e-05)
(0.0109877 -5.50927e-06 -0.000139199 8.84719e-09 6.87706e-08 2.78331e-05)
(0.0109058 3.21506e-06 0.00010441 8.00258e-09 2.95524e-07 3.40796e-05)
(0.0109304 2.73189e-06 0.000225866 1.24163e-08 2.8467e-07 3.19324e-05)
(0.0108714 3.80546e-07 -3.79994e-08 7.45891e-09 1.19961e-08 2.86978e-05)
(0.0109302 -5.98619e-06 -0.000271696 1.55343e-08 -1.13302e-07 4.57547e-05)
(0.0108619 9.48157e-06 -0.000153964 3.97773e-08 -7.35628e-07 3.01239e-05)
(0.0108735 -6.2238e-06 0.000151139 3.21156e-08 -1.02812e-06 4.40302e-05)
(0.0110217 -7.80549e-06 0.000244152 2.18458e-08 -7.05195e-07 3.71648e-05)
(0.0109266 -6.18486e-06 1.04825e-05 1.87216e-08 -2.75267e-07 3.37657e-05)
(0.010932 -3.88787e-06 -0.000298954 1.91579e-08 -9.86961e-08 5.43152e-05)
(0.0109887 -1.09652e-06 -0.000148939 1.83986e-08 -1.00808e-07 3.3034e-05)
(0.0108505 7.61948e-06 0.000124948 2.72314e-08 4.07133e-07 3.88664e-05)
(0.0109457 -1.57187e-06 0.000222782 8.83672e-09 -8.9476e-08 3.12616e-05)
(0.0107816 7.653e-06 1.81044e-05 1.73261e-08 -1.87215e-07 2.41398e-05)
(0.0108928 -8.27966e-06 -0.000218935 2.50681e-08 2.85789e-07 3.82937e-05)
(0.0107567 9.26626e-07 -0.000185372 1.42255e-08 -2.93425e-07 2.98209e-05)
(0.0108507 -3.99289e-06 0.00012375 1.56951e-08 -3.96226e-07 3.85478e-05)
(0.0108573 -3.89124e-06 0.000235331 1.58077e-08 -3.96322e-07 3.4534e-05)
(0.0108956 -9.06048e-07 4.54791e-06 1.4879e-08 -3.34677e-07 3.03415e-05)
(0.0108248 2.50584e-06 -0.000225515 1.1322e-08 -2.85948e-07 4.0555e-05)
(0.0108543 -7.34059e-06 -0.00014149 1.62192e-08 -6.0825e-09 3.14763e-05)
(0.0109858 1.84992e-06 0.000185053 1.40949e-08 2.31701e-07 4.97569e-05)
(0.010939 4.63665e-06 0.000278455 1.88847e-08 2.04295e-07 4.03447e-05)
(0.0109484 -7.91301e-07 6.17225e-06 1.17136e-08 -1.84027e-08 3.15809e-05)
(0.0108446 1.1244e-06 -0.000215195 1.01326e-08 -1.20747e-07 3.95639e-05)
(0.0108564 -1.80275e-06 -0.000143112 1.02975e-08 -7.42769e-09 2.64483e-05)
(0.0107986 -2.59061e-06 0.000154841 1.26676e-08 -3.51551e-07 3.45383e-05)
(0.0110201 -9.00758e-06 0.000234724 2.30434e-08 -5.80904e-07 3.25402e-05)
(0.0109309 1.2599e-05 2.93856e-05 5.67486e-08 -5.82958e-07 3.30454e-05)
(0.0108335 2.65134e-06 -0.000239756 1.42523e-08 -3.8847e-07 4.26655e-05)
(0.0146162 1.5578e-06 -0.000167844 4.46254e-08 -2.04073e-07 4.01991e-05)
(0.0145085 -1.02631e-05 8.56194e-05 6.87662e-08 -7.14726e-07 4.80474e-05)
(0.0147368 -1.16358e-05 0.00024777 4.85228e-08 -6.18417e-07 4.64898e-05)
(0.0146669 4.01617e-06 9.29459e-05 2.86745e-08 -8.54158e-08 4.04073e-05)
(0.014456 -9.69681e-06 -0.000192595 4.27716e-08 5.25132e-07 5.07195e-05)
(0.0146679 -6.10107e-07 -0.000144516 2.16854e-08 -7.91602e-09 3.82413e-05)
(0.0146151 -1.17015e-05 0.000136728 4.48702e-08 -4.71043e-07 4.67276e-05)
(0.0147295 1.04601e-06 0.000249378 2.23037e-08 4.0703e-09 4.90007e-05)
(0.0147759 -1.20138e-05 8.41803e-05 4.54011e-08 -4.04071e-08 5.11106e-05)
(0.0146579 -7.67998e-07 -0.000295167 2.10599e-08 -7.8642e-08 6.38071e-05)
(0.0146958 -1.94286e-06 -0.00017116 1.94867e-08 1.94517e-07 3.62708e-05)
(0.0145569 1.29027e-06 1.59939e-05 1.36168e-08 2.37628e-07 3.81868e-05)
(0.0146003 -6.63924e-08 0.000243594 2.21065e-08 2.82078e-07 4.35135e-05)
(0.0146362 3.18524e-06 -2.26791e-05 2.26128e-08 -9.78518e-08 4.45861e-05)
(0.0145369 -6.13078e-06 -0.000241787 3.81267e-08 -4.22271e-07 5.23753e-05)
(0.014504 1.52773e-05 -0.000191715 9.12352e-08 -1.1781e-06 4.33471e-05)
(0.0145693 -9.02349e-06 9.61554e-05 8.35026e-08 -1.48933e-06 5.58558e-05)
(0.014592 -1.29594e-05 0.000253528 6.19804e-08 -1.13856e-06 5.05979e-05)
(0.0145267 -1.40851e-06 8.21311e-05 4.45801e-08 -7.20257e-07 4.18628e-05)
(0.0145992 -7.58403e-07 -0.000220351 5.22486e-08 -4.84805e-07 5.46475e-05)
(0.0144554 -3.11369e-06 -0.000272109 6.03437e-08 -7.56802e-08 4.73275e-05)
(0.014501 7.48198e-06 9.58049e-05 5.9456e-08 6.02441e-07 5.52502e-05)
(0.0146036 2.37357e-06 0.000244143 3.17522e-08 2.09782e-07 4.37698e-05)
(0.0144315 9.05654e-06 6.15642e-05 3.39312e-08 -6.18226e-08 3.46974e-05)
(0.0145193 -1.10092e-05 -0.000174251 5.74591e-08 2.29165e-07 4.4968e-05)
(0.0143659 5.42831e-06 -0.000219881 4.57902e-08 -5.72774e-07 4.17407e-05)
(0.0145414 -9.53399e-06 9.39069e-05 6.22433e-08 -9.33389e-07 5.31815e-05)
(0.014513 -1.02254e-05 0.000282388 5.57662e-08 -7.62426e-07 5.21298e-05)
(0.014638 7.09993e-08 1.00827e-05 4.86078e-08 -5.31772e-07 4.68246e-05)
(0.014477 4.86194e-06 -0.000204341 3.44804e-08 -3.56825e-07 5.09067e-05)
(0.0144713 -1.28563e-05 -0.000184708 5.91143e-08 7.91334e-08 4.21487e-05)
(0.0146013 3.56134e-07 8.35145e-05 3.18509e-08 -4.77132e-09 5.09753e-05)
(0.0145565 2.51299e-06 0.000298442 3.7304e-08 5.51156e-08 5.37935e-05)
(0.0147389 3.09439e-06 -6.41071e-06 3.97033e-08 -1.14163e-07 4.98736e-05)
(0.0145003 1.19415e-06 -0.000209811 4.21027e-08 1.87803e-07 5.21054e-05)
(0.0145475 -5.38837e-06 -0.000181166 4.78821e-08 2.0991e-07 3.89899e-05)
(0.0144839 -2.26217e-06 0.000152949 3.90344e-08 -1.8629e-07 5.21494e-05)
(0.0147228 -1.06259e-05 0.000245925 5.28357e-08 -5.67859e-07 4.3882e-05)
(0.0145423 1.78871e-05 0.000143446 1.1584e-07 -1.73474e-07 3.84742e-05)
(0.0144877 3.76145e-06 -0.000227754 4.5737e-08 -2.56514e-07 5.53834e-05)
(0.0177496 3.50875e-06 -0.000215307 1.35833e-07 5.68155e-07 5.2399e-05)
(0.0178087 -7.82027e-06 4.41213e-05 1.41937e-07 1.91905e-07 6.25295e-05)
(0.0178948 -1.11059e-05 0.000217116 1.11612e-07 -1.3966e-07 5.88012e-05)
(0.0179046 9.35207e-06 8.53127e-05 9.12096e-08 1.54074e-07 5.35214e-05)
(0.017863 -5.53131e-06 -0.000145781 8.34163e-08 5.1645e-07 5.71417e-05)
(0.0177604 3.3897e-06 -0.000213384 6.82522e-08 2.01442e-07 4.43392e-05)
(0.0178692 -1.38614e-05 7.97299e-05 1.12141e-07 -2.90608e-07 5.25964e-05)
(0.0178753 -1.77564e-06 0.000156325 7.19346e-08 -9.03775e-08 4.98085e-05)
(0.0179685 -5.29344e-06 0.000161525 7.62307e-08 -1.89638e-07 4.95872e-05)
(0.0176948 2.38644e-06 -0.000175225 6.48676e-08 1.24705e-07 5.36814e-05)
(0.0178996 -3.61974e-07 -7.46109e-05 5.34051e-08 4.04402e-07 3.64116e-05)
(0.0177084 -6.85314e-07 -6.57879e-05 4.22365e-08 3.35553e-07 3.74373e-05)
(0.0177135 -7.34947e-06 0.000142568 5.07626e-08 -9.17914e-09 4.06547e-05)
(0.0177098 6.15662e-06 9.64286e-06 6.41972e-08 -2.12341e-07 3.9323e-05)
(0.0177973 -3.3891e-06 -0.000139887 9.84062e-08 -6.2029e-07 4.49228e-05)
(0.0175245 2.16126e-05 -0.000219026 1.93571e-07 -1.4965e-06 4.85821e-05)
(0.0177338 -1.16055e-05 1.46018e-05 2.06216e-07 -1.62165e-06 6.28388e-05)
(0.0177667 -1.70647e-05 0.000232247 1.46838e-07 -1.33153e-06 6.28799e-05)
(0.0178239 2.33199e-06 3.32831e-05 1.10333e-07 -6.99012e-07 5.58123e-05)
(0.0177397 5.5006e-06 -0.000131005 1.32433e-07 -6.2957e-07 5.67282e-05)
(0.0177108 8.00682e-06 -0.000203484 1.47388e-07 -3.67635e-07 5.21383e-05)
(0.0175984 -6.89952e-06 1.46102e-05 1.60524e-07 -3.51329e-07 5.64169e-05)
(0.0178718 -8.52307e-08 0.000185741 8.42116e-08 2.20413e-07 4.81659e-05)
(0.0177426 3.5147e-06 6.76313e-05 7.34393e-08 1.73745e-07 4.15587e-05)
(0.0177395 -8.21059e-06 -0.000107103 1.03953e-07 -1.28929e-07 4.84805e-05)
(0.0175948 7.04159e-06 -0.000186929 1.09274e-07 -6.72166e-07 4.76168e-05)
(0.017724 -1.31128e-05 7.3119e-05 1.76053e-07 -1.1687e-06 6.54167e-05)
(0.0178137 -1.48282e-05 0.000233197 1.63743e-07 -7.32205e-07 5.69504e-05)
(0.0178434 -1.95039e-06 7.62713e-05 1.1202e-07 -1.50863e-07 4.57993e-05)
(0.0177641 6.92291e-06 -0.000117292 8.12267e-08 -8.01227e-08 5.00043e-05)
(0.01767 -7.23844e-06 -0.000188273 7.63057e-08 8.26633e-08 4.77573e-05)
(0.0177127 9.81476e-07 1.48866e-05 6.97982e-08 -1.4498e-07 5.52776e-05)
(0.0178205 -2.7261e-06 0.000182145 8.66422e-08 -2.90873e-07 4.84001e-05)
(0.0178303 9.96531e-06 8.55242e-05 1.28656e-07 -4.23465e-08 4.01096e-05)
(0.0177198 9.47719e-06 -9.24436e-05 1.33438e-07 2.4997e-07 4.33465e-05)
(0.0176368 -4.8643e-06 -0.000173352 1.48479e-07 6.80834e-07 4.11839e-05)
(0.0176059 -7.18193e-06 3.59245e-05 1.39767e-07 -5.59645e-08 4.93683e-05)
(0.0178276 -1.20322e-05 0.000197965 1.3178e-07 -2.75818e-07 5.0829e-05)
(0.0178099 2.06228e-05 9.17867e-05 1.99888e-07 2.80901e-08 5.02129e-05)
(0.0178416 4.14079e-06 -0.000176943 1.42408e-07 5.94844e-07 6.17851e-05)
(0.0200083 1.67731e-05 -0.000156445 3.068e-07 1.01383e-06 4.60692e-05)
(0.0200102 -4.26768e-06 -2.58838e-05 3.20875e-07 1.28474e-06 5.17104e-05)
(0.0200746 -2.22827e-06 9.85715e-05 2.26336e-07 1.16934e-06 4.986e-05)
(0.0201264 3.50125e-06 3.00983e-05 1.86973e-07 6.98243e-07 4.60598e-05)
(0.0201651 1.5363e-06 -0.000105376 1.76537e-07 4.87854e-07 4.8482e-05)
(0.0201323 1.19008e-05 -0.000100033 1.77521e-07 5.47304e-07 3.62651e-05)
(0.0201138 -6.32953e-06 -1.89799e-05 2.04806e-07 6.29278e-07 3.80815e-05)
(0.0200627 8.24581e-07 5.37136e-05 1.9607e-07 4.89787e-07 4.09688e-05)
(0.0201545 -1.04294e-06 2.0501e-05 2.12612e-07 3.21489e-07 3.98834e-05)
(0.0201704 8.6464e-06 -0.000114935 2.02352e-07 6.28388e-07 4.25382e-05)
(0.0200836 -1.5746e-06 -0.000110404 1.84581e-07 1.07511e-06 3.52722e-05)
(0.020028 -1.19298e-06 -3.13522e-05 1.37998e-07 7.2853e-07 3.65189e-05)
(0.0200478 -9.62373e-06 5.64075e-05 1.34601e-07 2.025e-07 3.45842e-05)
(0.020004 2.35013e-06 1.51148e-05 1.53889e-07 -4.24431e-08 3.35962e-05)
(0.0201138 1.98692e-06 -0.000121072 2.51619e-07 -4.44724e-07 4.35792e-05)
(0.0200409 2.33248e-05 -0.000103501 3.51087e-07 -3.65383e-07 4.07301e-05)
(0.0200991 -2.02223e-06 4.83886e-06 3.14156e-07 -1.16053e-07 5.1181e-05)
(0.0200943 -8.35762e-06 0.000126682 2.45077e-07 1.31739e-07 4.97054e-05)
(0.0200612 3.75359e-06 2.53556e-05 2.20032e-07 1.88978e-07 4.37051e-05)
(0.0201567 1.16109e-05 -6.16723e-05 2.88357e-07 -2.15583e-07 4.69516e-05)
(0.0199797 2.44217e-05 -0.000110039 3.81129e-07 -4.11064e-08 4.29311e-05)
(0.0200128 -2.724e-06 -1.34056e-05 3.73563e-07 2.23772e-07 4.42322e-05)
(0.0199498 -9.76805e-07 8.21609e-05 2.12842e-07 5.55316e-07 4.00615e-05)
(0.0199632 3.97615e-06 2.05257e-05 1.68195e-07 2.39031e-07 3.70941e-05)
(0.0199987 -2.0368e-06 -7.96143e-05 2.14297e-07 -2.78332e-07 4.24606e-05)
(0.0199674 1.16733e-05 -9.44135e-05 2.63688e-07 -4.82979e-07 3.78445e-05)
(0.0199015 -1.02394e-05 -2.1395e-05 3.98759e-07 -6.11496e-07 3.97664e-05)
(0.0199515 -2.20478e-05 8.00704e-05 4.24076e-07 -3.41677e-07 3.8011e-05)
(0.0199687 -3.54558e-06 8.78291e-06 2.42498e-07 2.69817e-07 3.67372e-05)
(0.0201225 3.59972e-06 -9.76393e-05 1.40664e-07 3.17359e-07 4.52191e-05)
(0.0200435 4.97614e-06 -0.000133429 1.38358e-07 -1.79769e-07 4.2045e-05)
(0.0199432 7.55801e-06 -4.95572e-05 1.44831e-07 -3.1917e-07 4.20325e-05)
(0.0200456 -7.05201e-06 5.47471e-05 2.04136e-07 -2.15555e-07 3.81535e-05)
(0.0200951 1.12474e-05 -1.01096e-06 2.80876e-07 2.47759e-08 3.47036e-05)
(0.0201425 1.6995e-05 -9.06083e-05 3.07737e-07 4.19291e-07 3.94172e-05)
(0.0200467 9.72372e-06 -0.000109163 2.91987e-07 9.69371e-07 3.76541e-05)
(0.019999 9.58824e-07 -2.17042e-05 2.67294e-07 9.02824e-07 4.51431e-05)
(0.0200625 -6.35208e-06 0.000121547 2.2879e-07 5.91008e-07 4.60956e-05)
(0.0200651 1.36832e-05 -1.4908e-05 2.48929e-07 3.4807e-07 4.19098e-05)
(0.020238 1.36341e-05 -9.2947e-05 2.83137e-07 4.74162e-07 4.5309e-05)
(0.0212463 2.46803e-05 -5.91983e-05 5.1243e-07 1.20721e-06 2.61418e-05)
(0.021181 5.98057e-06 -2.94537e-05 4.64082e-07 1.23502e-06 2.93912e-05)
(0.0212225 4.4036e-06 7.31877e-05 3.25779e-07 9.0766e-07 2.99587e-05)
(0.0211883 6.81543e-06 -4.04876e-05 3.28759e-07 7.54543e-07 2.69905e-05)
(0.0213124 3.6924e-06 -7.0692e-05 3.38081e-07 6.85585e-07 2.64791e-05)
(0.021214 1.73696e-05 -9.87883e-05 3.52538e-07 9.89937e-07 2.71394e-05)
(0.0212591 -3.53235e-07 -1.13645e-05 3.74181e-07 9.96142e-07 2.91486e-05)
(0.0212318 8.08864e-06 4.82869e-05 3.42237e-07 8.44231e-07 2.77539e-05)
(0.0212731 -3.43305e-06 -2.2417e-05 3.68972e-07 8.79642e-07 2.53413e-05)
(0.0212501 8.60867e-06 -7.51014e-05 3.3562e-07 9.06018e-07 2.62833e-05)
(0.0213041 6.03569e-06 -8.39273e-05 2.86106e-07 1.10723e-06 2.44588e-05)
(0.0212225 4.69861e-06 6.24351e-06 2.36126e-07 7.78555e-07 2.44565e-05)
(0.0212726 -9.57452e-08 4.13565e-05 2.27123e-07 3.81157e-07 2.25371e-05)
(0.0212302 3.99091e-06 1.06596e-05 3.39409e-07 2.31415e-07 2.1496e-05)
(0.0212187 5.28391e-06 -4.82632e-05 5.32487e-07 3.65961e-07 2.39174e-05)
(0.0212395 2.08664e-05 -5.18582e-05 6.04043e-07 8.3117e-07 2.43109e-05)
(0.0212435 8.35552e-06 3.69157e-05 5.15832e-07 1.17185e-06 2.80471e-05)
(0.0212499 8.23806e-06 6.94769e-05 4.03949e-07 1.23384e-06 2.70365e-05)
(0.0211638 9.30904e-06 2.99842e-05 3.96443e-07 9.64912e-07 2.58966e-05)
(0.021236 1.58173e-05 -6.18112e-05 5.24227e-07 7.08819e-07 2.88419e-05)
(0.0212113 2.29142e-05 -3.93761e-05 6.43657e-07 1.1433e-06 2.70879e-05)
(0.0212605 1.22095e-05 4.57665e-06 5.9742e-07 1.20602e-06 2.81926e-05)
(0.0211448 6.87846e-06 7.54634e-05 4.18357e-07 1.0553e-06 2.83728e-05)
(0.021198 1.25646e-05 -1.16984e-05 3.54752e-07 7.34638e-07 2.7376e-05)
(0.021152 3.93798e-06 -7.28254e-05 4.3966e-07 2.88318e-07 2.92703e-05)
(0.0212157 1.53122e-05 -7.94289e-05 5.20298e-07 6.74018e-08 2.72652e-05)
(0.0211373 2.20047e-06 -1.67685e-06 6.10548e-07 6.95151e-08 2.61959e-05)
(0.0212102 -1.08029e-05 4.29201e-05 5.86067e-07 4.80122e-07 2.26652e-05)
(0.0211201 -2.08439e-06 -8.90232e-06 3.4398e-07 8.54299e-07 2.15056e-05)
(0.0212151 1.46552e-06 -5.59781e-05 2.51698e-07 5.86998e-07 2.51971e-05)
(0.0211743 6.00289e-06 -8.25675e-05 2.80975e-07 9.56393e-08 2.65245e-05)
(0.0212266 9.1454e-06 1.08702e-05 3.13543e-07 -2.42576e-07 2.92459e-05)
(0.0211909 -8.5103e-06 4.91601e-05 4.06187e-07 -2.55696e-07 2.7927e-05)
(0.0212137 7.44058e-06 -5.60948e-06 4.20908e-07 1.39368e-07 2.61554e-05)
(0.0212322 1.16309e-05 -0.000100984 4.57667e-07 4.74375e-07 2.84731e-05)
(0.0212973 1.69035e-05 -6.8752e-05 4.60162e-07 9.66383e-07 2.57235e-05)
(0.0212491 9.02432e-06 -9.97371e-06 4.07193e-07 1.05722e-06 2.67098e-05)
(0.0212336 2.36487e-06 3.91595e-05 3.38382e-07 9.15803e-07 2.49639e-05)
(0.0211802 1.37792e-05 -4.90138e-06 3.70215e-07 8.34917e-07 2.21933e-05)
(0.0212176 1.43646e-05 -8.12308e-05 4.71067e-07 7.97491e-07 2.46816e-05)
(0.0211573 2.11772e-05 -5.00792e-05 4.94244e-07 8.29536e-07 1.33889e-05)
(0.0211262 1.55419e-05 -2.91085e-06 4.34976e-07 7.03263e-07 1.399e-05)
(0.0211916 8.60864e-06 2.16481e-05 3.80778e-07 6.17056e-07 1.2448e-05)
(0.0211232 1.75775e-05 1.28588e-05 4.24893e-07 5.85843e-07 1.15817e-05)
(0.0211505 1.28541e-05 -2.0606e-05 4.62443e-07 5.85784e-07 1.20688e-05)
(0.0211114 2.43735e-05 -3.09723e-05 4.65826e-07 7.30568e-07 1.20206e-05)
(0.0211646 9.38696e-06 -4.99663e-08 4.47111e-07 7.44222e-07 1.30088e-05)
(0.0211341 1.44401e-05 2.8289e-05 4.52464e-07 7.92024e-07 1.29842e-05)
(0.0211915 7.26673e-06 8.92401e-06 4.52463e-07 7.9307e-07 1.26141e-05)
(0.0211118 1.67718e-05 -2.63737e-05 3.97586e-07 7.31803e-07 1.26581e-05)
(0.0211715 1.08959e-05 -3.29465e-05 3.02063e-07 7.30168e-07 1.12154e-05)
(0.0211455 1.36253e-05 4.0239e-06 2.57801e-07 5.24975e-07 1.12898e-05)
(0.0211648 4.80252e-06 1.93202e-05 3.18113e-07 3.09211e-07 1.14318e-05)
(0.0211658 1.48936e-05 1.95309e-05 4.823e-07 3.41388e-07 1.14598e-05)
(0.0211597 1.12512e-05 -3.11361e-05 6.68423e-07 4.93644e-07 1.18109e-05)
(0.0211381 2.38322e-05 -1.70888e-05 7.05982e-07 9.14875e-07 1.0999e-05)
(0.021177 1.26886e-05 -6.72079e-06 5.72646e-07 1.11628e-06 1.11872e-05)
(0.0211298 1.60605e-05 3.03541e-05 4.65284e-07 1.0645e-06 1.14364e-05)
(0.0211646 1.32593e-05 5.14928e-06 4.86656e-07 9.02649e-07 1.12868e-05)
(0.0211002 2.17339e-05 -2.00335e-05 6.09958e-07 7.61254e-07 1.14776e-05)
(0.0211082 1.96701e-05 -2.73517e-05 6.92983e-07 8.58058e-07 1.14771e-05)
(0.0211369 1.82697e-05 1.90366e-05 6.83365e-07 8.81969e-07 1.31538e-05)
(0.0211428 9.77551e-06 4.07355e-05 5.65055e-07 8.74467e-07 1.38596e-05)
(0.0211552 1.81455e-05 3.05649e-05 5.27356e-07 8.39148e-07 1.45337e-05)
(0.0211252 1.13512e-05 -2.67424e-05 6.40126e-07 6.38135e-07 1.54382e-05)
(0.0211373 1.79153e-05 -2.68003e-05 6.93111e-07 5.22011e-07 1.32592e-05)
(0.0211253 1.04904e-05 -6.99874e-06 6.45974e-07 5.85892e-07 1.21045e-05)
(0.0211363 2.85745e-06 2.60234e-05 5.68892e-07 6.93154e-07 1.09305e-05)
(0.0211124 6.81505e-06 -1.22937e-06 4.00332e-07 7.17847e-07 1.06001e-05)
(0.0211019 1.31147e-05 -1.03959e-05 3.72982e-07 5.38317e-07 1.13195e-05)
(0.0210761 1.07573e-05 -4.25216e-05 4.3631e-07 3.96009e-07 1.14963e-05)
(0.0211127 1.36861e-05 1.15288e-05 4.59397e-07 2.12837e-07 1.24331e-05)
(0.0211218 5.39716e-07 1.61793e-05 5.06419e-07 2.51441e-07 1.20468e-05)
(0.0211187 1.23754e-05 1.9435e-05 5.19754e-07 4.04488e-07 1.17265e-05)
(0.0211121 1.41169e-05 -3.1055e-05 5.39448e-07 5.09985e-07 1.14478e-05)
(0.0211141 1.61587e-05 -2.87894e-05 5.11734e-07 7.53389e-07 1.02604e-05)
(0.0211243 1.20297e-05 -1.67654e-05 4.63171e-07 8.8669e-07 1.00293e-05)
(0.021102 6.93432e-06 6.85271e-06 4.22701e-07 8.9898e-07 1.03812e-05)
(0.0211354 1.64781e-05 -1.68759e-06 4.65289e-07 9.67282e-07 1.11441e-05)