# y+ ()       
# Time        	patch         	min           	max           	average       
92            	bottomWall	1.794178e+00	5.516577e+00	3.123315e+00
92            	topWall	1.589865e+00	6.016054e+00	3.148237e+00
