/*--------------------------------*- C++ -*----------------------------------*\
  =========                 |
  \\      /  F ield         | OpenFOAM: The Open Source CFD Toolbox
   \\    /   O peration     | Website:  https://openfoam.org
    \\  /    A nd           | Version:  10
     \\/     M anipulation  |
\*---------------------------------------------------------------------------*/
FoamFile
{
    format      ascii;
    class       volScalarField;
    location    "17";
    object      nut;
}
// * * * * * * * * * * * * * * * * * * * * * * * * * * * * * * * * * * * * * //

dimensions      [0 2 -1 0 0 0 0];

internalField   nonuniform List<scalar> 
25600
(
3.83023e-11
2.83014e-10
3.95804e-11
4.61355e-11
9.13208e-11
6.82394e-11
3.443e-11
6.71645e-11
4.72659e-11
8.70324e-13
1.77789e-10
4.02251e-13
1.09082e-13
1.28207e-10
3.59437e-13
7.44846e-14
1.59261e-10
1.05276e-10
3.77993e-11
2.22689e-10
6.06036e-11
5.19502e-13
2.74683e-11
6.14138e-13
3.57513e-11
1.73471e-10
6.30688e-14
4.00877e-13
2.42729e-10
4.22799e-14
1.17922e-11
2.06767e-11
8.40336e-14
1.40158e-10
7.99567e-14
1.28477e-13
2.74442e-10
1.03527e-13
1.16764e-10
8.18435e-11
1.23048e-12
3.42295e-11
1.77357e-12
1.80368e-11
2.33524e-11
9.74568e-11
9.24878e-13
2.50806e-10
2.75416e-10
8.82279e-13
1.25835e-10
8.68028e-14
2.68393e-14
3.44297e-13
7.83622e-14
1.0937e-13
4.30831e-11
5.73766e-13
4.96189e-13
1.6586e-12
2.26398e-13
6.47038e-13
3.42836e-13
6.28212e-14
1.35321e-13
1.37205e-10
7.55346e-11
2.4491e-10
1.82025e-10
1.46013e-13
1.58422e-10
4.86761e-13
6.66887e-12
1.65641e-10
8.24902e-14
4.25508e-11
4.42832e-11
1.23521e-14
1.66414e-10
1.51604e-12
2.67761e-14
2.97136e-12
1.28426e-10
1.38504e-13
9.18754e-11
2.72289e-10
7.58036e-12
2.5086e-10
5.04123e-11
9.38804e-14
1.30442e-10
6.06161e-14
2.21405e-13
1.87875e-10
7.99111e-12
9.78709e-11
1.96792e-10
9.04659e-11
3.33147e-10
1.4142e-10
1.65235e-13
8.89879e-14
2.24596e-14
1.11873e-13
2.90388e-10
3.86418e-10
5.59785e-11
5.11024e-11
3.56942e-11
1.66426e-12
1.81244e-10
2.4913e-13
1.27055e-10
9.07514e-14
7.93669e-14
3.92506e-10
7.43291e-12
1.55006e-11
1.4767e-10
7.14289e-14
6.16784e-11
2.69701e-13
7.74422e-11
1.30161e-12
2.843e-10
1.45913e-10
1.20688e-12
1.14414e-10
1.16873e-13
1.00422e-10
6.80046e-13
8.88734e-14
3.06616e-13
3.48755e-13
1.36428e-13
3.30528e-10
3.27417e-10
1.90588e-11
1.6614e-10
1.5136e-13
4.16115e-13
1.55037e-10
1.01149e-11
1.15116e-13
5.28025e-13
1.13468e-13
5.52132e-14
2.31468e-10
1.82587e-10
5.78778e-13
2.09721e-13
2.81319e-13
3.47331e-10
1.8075e-12
3.60477e-10
5.49022e-10
2.80057e-12
2.44729e-10
2.3255e-12
6.02097e-11
2.54742e-13
2.55803e-13
2.11358e-13
2.37535e-14
1.46009e-13
8.33988e-14
1.04074e-13
2.54515e-13
1.53422e-13
7.50265e-11
2.44668e-13
8.17618e-13
2.90283e-10
2.8931e-14
5.19233e-14
1.35979e-10
2.87913e-13
1.7189e-13
1.70764e-10
8.0165e-12
4.26266e-13
1.63034e-13
5.94326e-14
2.2011e-13
2.50771e-10
1.78148e-10
1.414e-10
9.32677e-11
1.38562e-12
3.25653e-13
2.23274e-13
2.30263e-13
2.81245e-13
2.86079e-13
3.9261e-10
7.74992e-11
1.67126e-12
3.27323e-10
9.67623e-14
5.54448e-11
2.2566e-13
1.66078e-10
4.11619e-10
2.7677e-10
1.64028e-10
1.1329e-10
2.12902e-10
1.08194e-13
5.30243e-13
2.69888e-10
3.07409e-13
5.34161e-13
1.29208e-10
7.66972e-14
6.52251e-11
6.85357e-10
1.71552e-10
1.9898e-10
1.74957e-10
7.87718e-14
6.07875e-14
8.42594e-14
2.38294e-11
2.69627e-10
1.27636e-10
1.85919e-12
1.0451e-10
5.39542e-13
2.02276e-13
5.69586e-13
6.50445e-11
1.65486e-10
1.65711e-10
1.54001e-13
1.34413e-12
1.16416e-13
2.42494e-12
3.16006e-10
1.5272e-13
2.77914e-13
2.33936e-13
1.93289e-14
3.60739e-14
5.18597e-14
2.69525e-13
1.14407e-10
9.11813e-11
1.7829e-13
4.29805e-13
1.22883e-13
1.41994e-14
9.4162e-14
4.34556e-10
1.58985e-10
3.05909e-10
1.31231e-10
1.72781e-13
6.86343e-13
3.50502e-12
3.64084e-13
1.72309e-11
4.77527e-14
1.20753e-13
4.35106e-10
3.47292e-10
1.07158e-10
3.43257e-12
2.87503e-14
1.39582e-13
7.69141e-11
2.05981e-13
7.28123e-14
2.93852e-14
1.71534e-13
1.85753e-10
2.21973e-13
1.94123e-10
2.15395e-10
1.93813e-13
4.79908e-11
3.83806e-10
4.7259e-10
3.12521e-10
2.09102e-13
1.89305e-11
1.91552e-10
8.24183e-11
1.36296e-13
2.95609e-10
3.09747e-12
2.4575e-14
4.06553e-10
3.9739e-10
8.1887e-14
2.29698e-10
5.24226e-10
6.09169e-13
1.80443e-13
3.63904e-13
4.14655e-12
1.8389e-12
5.99952e-11
1.96963e-13
2.1082e-13
1.68256e-12
3.04679e-10
2.15405e-10
8.38612e-11
1.74383e-10
5.21203e-13
1.33387e-13
1.25395e-10
1.43434e-10
2.23119e-10
3.65278e-10
7.85907e-11
3.45656e-10
5.55362e-11
2.45801e-12
3.89876e-10
3.46079e-13
1.94279e-11
1.02997e-10
1.45825e-13
1.24779e-13
3.14356e-10
2.87184e-10
1.97084e-10
3.95589e-10
9.38252e-13
1.79709e-10
6.75986e-10
2.12752e-10
2.04381e-13
5.48258e-11
2.78611e-10
1.0061e-10
4.19495e-10
4.24875e-10
2.96194e-10
7.53113e-14
1.99903e-13
1.93689e-10
7.5677e-10
8.5093e-11
2.22346e-13
1.9941e-11
1.1749e-13
2.4022e-10
5.38096e-10
5.03835e-12
4.11285e-10
4.20173e-12
1.41949e-10
5.94246e-10
1.34036e-10
5.28494e-10
3.00209e-10
6.97571e-13
1.97027e-10
3.94023e-10
4.9674e-10
1.44487e-10
5.0406e-11
3.77373e-10
2.82586e-13
6.17933e-13
2.72959e-10
1.34192e-12
2.48461e-10
2.95771e-10
1.33818e-11
4.78903e-14
7.40515e-14
1.81242e-10
4.76201e-10
8.04332e-13
3.13339e-11
4.10414e-11
1.20829e-13
1.93208e-13
2.20339e-13
3.8997e-13
1.33943e-13
2.09214e-13
3.26714e-10
2.26338e-13
2.54206e-13
2.63505e-13
1.21988e-13
1.29841e-13
5.79484e-10
3.13388e-14
2.9112e-12
5.89504e-10
1.3803e-12
1.55928e-10
1.70092e-12
3.14228e-13
1.43524e-10
2.33977e-10
6.2097e-10
1.2231e-13
1.31247e-13
1.09476e-10
5.50556e-10
1.0196e-09
5.38595e-10
2.13594e-13
1.8138e-13
1.47987e-10
8.0463e-10
5.71235e-10
1.61942e-13
4.98509e-10
5.58683e-10
3.70255e-13
3.19344e-13
1.34122e-13
1.97458e-14
9.45852e-14
1.80955e-13
3.2287e-10
1.22498e-09
1.65638e-09
7.71485e-10
1.18199e-12
3.79359e-10
1.55433e-10
4.62391e-13
6.82617e-11
6.9274e-10
3.81494e-10
1.78333e-13
1.16475e-10
3.95792e-10
4.70318e-10
5.67518e-10
8.96662e-10
1.22967e-10
2.16293e-13
5.36392e-13
1.32377e-10
5.77101e-10
7.26345e-13
1.40372e-13
6.78769e-13
8.15122e-10
6.61135e-10
1.70977e-13
1.43034e-10
1.33131e-10
1.3915e-13
3.50665e-13
7.73976e-11
1.2552e-13
5.59476e-11
3.66787e-10
1.77887e-10
3.88771e-13
7.84773e-14
2.34989e-12
3.49555e-13
3.13448e-13
5.62509e-14
2.26414e-10
8.83961e-10
2.67904e-13
1.35076e-12
4.47893e-13
3.99249e-12
7.76105e-10
2.67574e-10
1.99506e-11
1.40482e-12
2.02778e-10
1.05451e-09
4.23193e-11
2.61154e-10
1.6137e-10
1.00272e-09
1.83803e-11
4.78351e-13
8.75705e-10
1.07367e-09
1.75643e-10
3.14845e-13
1.22276e-13
4.28413e-11
5.21486e-11
7.77499e-10
4.90891e-10
2.47865e-10
5.74375e-10
1.00626e-09
9.92303e-10
1.52956e-13
5.43713e-13
9.18419e-10
3.22282e-11
1.12101e-13
2.07448e-13
5.45853e-13
6.83318e-10
4.58619e-10
2.62334e-13
6.94802e-14
4.23544e-11
3.35194e-10
2.00995e-13
1.51383e-13
3.71498e-13
3.95799e-13
2.4969e-10
1.01217e-12
1.70213e-13
2.54396e-10
5.55558e-10
7.29026e-10
5.92235e-10
6.04058e-13
4.98228e-10
3.48779e-13
7.60072e-12
4.75565e-11
6.41724e-14
1.8372e-12
7.30296e-13
3.00796e-10
1.82061e-10
4.60761e-13
5.69629e-14
1.20592e-12
1.13055e-13
2.92314e-13
8.2818e-10
3.28454e-13
9.42555e-10
2.11804e-10
3.81109e-13
3.69346e-13
1.84137e-12
4.33588e-13
7.18965e-11
1.23106e-09
6.86675e-10
2.37313e-12
6.32544e-10
4.74713e-10
1.70913e-13
1.68317e-10
4.91617e-10
3.07071e-13
3.01764e-13
1.17513e-10
7.01788e-11
3.85817e-10
1.9401e-13
4.36144e-10
1.82386e-10
3.01673e-13
1.39244e-11
1.4987e-10
4.61657e-11
1.05471e-09
1.05705e-10
5.87489e-14
3.19719e-11
2.07637e-13
8.75101e-10
2.89812e-10
2.01144e-13
6.0301e-11
5.96945e-12
2.3397e-10
1.35604e-14
1.32218e-13
6.2059e-10
7.88999e-10
1.78667e-13
1.3009e-13
1.32952e-13
1.41806e-10
1.015e-13
5.14634e-13
1.2504e-13
1.41327e-10
1.73021e-10
8.31586e-14
1.10866e-13
8.24462e-14
1.05304e-09
2.84154e-10
5.05572e-13
3.44589e-10
3.09667e-10
1.29565e-09
1.07022e-09
9.00406e-10
5.27072e-10
8.40641e-10
2.12018e-13
3.13637e-12
1.09866e-09
1.04948e-10
2.41397e-10
2.80877e-10
2.92754e-10
1.46363e-13
2.46678e-10
7.58591e-10
8.8378e-10
7.95207e-13
5.06987e-10
2.50747e-10
7.85776e-10
1.18007e-10
3.6071e-10
2.31392e-10
3.26094e-10
8.88334e-10
8.24284e-13
4.09513e-13
8.14838e-10
8.91585e-11
2.809e-12
3.42197e-10
1.31696e-13
6.64795e-11
6.31935e-10
6.57425e-12
5.681e-10
2.40664e-10
9.02199e-10
1.6915e-13
5.54886e-10
6.09556e-11
2.8739e-13
8.41342e-14
4.36489e-13
8.20938e-13
3.81763e-10
2.63619e-13
8.29102e-13
3.91951e-10
3.63766e-13
2.73428e-11
1.03713e-13
5.80021e-10
9.56017e-10
7.76412e-14
2.333e-13
8.90843e-10
1.60723e-13
6.47739e-14
2.05679e-10
2.83482e-13
2.33088e-10
6.11854e-10
2.19842e-13
8.02905e-14
6.51707e-12
1.31359e-13
1.37272e-12
5.67308e-10
1.15936e-09
6.81583e-10
1.6899e-10
5.11841e-11
5.24552e-14
8.62933e-14
2.81206e-10
1.62376e-13
4.16898e-13
3.95814e-10
8.85683e-10
2.0238e-10
5.3144e-10
1.95799e-12
1.49695e-13
2.49122e-12
1.15068e-10
9.57827e-14
1.54817e-13
6.99294e-13
1.05347e-12
5.21908e-10
6.93183e-14
4.41551e-13
1.28132e-09
7.40407e-12
1.45831e-10
1.92879e-10
7.26293e-13
2.16545e-10
1.57177e-13
7.12935e-10
3.68461e-10
7.95883e-13
4.97153e-10
2.4869e-13
3.46688e-14
2.90975e-10
4.56929e-13
2.31578e-13
9.84919e-14
6.46343e-13
1.59667e-11
4.38597e-13
3.71227e-10
1.42725e-10
1.12002e-09
1.01632e-09
3.70142e-10
1.16894e-09
9.83787e-10
5.39804e-10
1.17129e-13
2.28843e-10
2.83861e-12
2.30943e-13
2.22668e-13
3.45675e-13
1.60867e-09
2.04255e-10
7.70637e-11
3.0476e-12
1.23708e-09
5.63673e-10
2.85927e-11
6.02844e-10
2.04582e-10
1.98845e-10
1.00296e-09
6.38044e-10
1.4278e-10
4.37522e-11
2.1062e-10
4.87536e-10
1.03661e-09
4.61465e-12
3.21239e-10
5.92971e-10
7.35477e-13
1.02908e-12
1.07977e-10
6.80128e-13
1.22173e-12
7.85549e-11
1.73168e-13
2.82018e-10
4.44985e-10
6.59259e-10
1.11908e-10
1.03644e-13
5.47232e-10
6.12626e-10
4.01162e-10
5.85689e-13
7.41499e-14
3.55693e-10
5.46453e-10
4.05153e-13
1.52568e-10
4.773e-10
1.39635e-12
6.02878e-13
1.98235e-13
6.87157e-10
1.76262e-09
4.57106e-13
5.85571e-14
2.74728e-10
1.167e-13
5.07443e-14
5.87618e-10
4.31982e-10
1.00718e-09
8.41112e-10
1.13044e-12
3.14663e-12
4.29371e-13
1.73092e-12
1.92742e-10
6.83766e-10
8.52895e-10
1.65999e-10
2.15746e-13
8.86726e-10
2.39362e-14
9.18675e-13
7.10012e-10
8.44272e-14
2.26238e-13
1.58019e-10
4.35114e-10
8.70113e-11
6.93424e-10
6.59839e-14
3.27532e-13
5.20428e-13
5.88754e-13
5.70378e-10
2.14801e-10
3.28947e-10
7.89245e-14
4.16544e-10
4.99394e-13
2.35577e-13
7.05916e-10
7.16453e-13
6.56574e-11
4.13773e-10
1.63172e-13
3.35558e-10
1.21782e-13
1.38201e-10
1.78507e-10
2.05848e-10
1.35934e-10
1.38386e-12
1.06309e-12
9.95452e-13
3.39031e-13
3.19905e-10
1.51109e-11
6.681e-13
5.01516e-10
5.66764e-10
4.68983e-13
3.24553e-10
7.51864e-10
9.62953e-14
1.16058e-12
9.89337e-10
4.19247e-10
7.86626e-13
7.33957e-13
1.46101e-10
3.94633e-14
1.53211e-13
3.61954e-10
4.11633e-14
1.31406e-09
1.08708e-12
1.51885e-12
1.4662e-10
2.91641e-10
5.90465e-10
7.14943e-10
2.57092e-10
5.12589e-12
1.04152e-09
4.27757e-10
4.7734e-10
7.91473e-10
1.01009e-09
8.02452e-10
7.53301e-10
3.99436e-10
1.02233e-10
1.3348e-10
3.95306e-10
3.63401e-10
2.91356e-12
1.4394e-10
9.27614e-11
2.55275e-10
2.58242e-10
2.25229e-13
5.41069e-13
7.77805e-10
1.06762e-09
2.07886e-12
4.94059e-11
7.04191e-10
6.14277e-10
4.21204e-11
2.61319e-10
1.09138e-10
5.50083e-14
5.03526e-10
5.22772e-14
3.99342e-13
2.93686e-12
3.84998e-10
1.11676e-12
3.0143e-13
5.00106e-10
1.07157e-09
4.75235e-13
2.03733e-12
2.50029e-10
1.98828e-13
3.79702e-14
7.17861e-14
3.36097e-10
8.2482e-10
9.42937e-11
1.39935e-11
2.2238e-13
1.54711e-13
2.61149e-10
3.27468e-10
4.94946e-10
2.08779e-11
5.45794e-10
3.54805e-13
1.1569e-10
4.88663e-10
3.4059e-13
5.21662e-10
4.94086e-10
6.76256e-12
4.24844e-12
2.39415e-10
3.52461e-13
3.47302e-13
5.42918e-11
2.73061e-13
1.13187e-10
4.49211e-10
1.03868e-09
1.85183e-10
5.1782e-10
3.85263e-10
3.54444e-10
6.9944e-13
6.24812e-13
4.57922e-10
1.71637e-10
2.47847e-12
7.5783e-10
2.9302e-10
8.15004e-10
8.29992e-10
4.38955e-10
5.44855e-10
6.65055e-10
1.40504e-10
3.79969e-10
9.63291e-10
2.49591e-11
5.11798e-11
5.03658e-11
7.73558e-11
7.02625e-12
2.97456e-10
4.65219e-10
3.15539e-11
4.46456e-10
9.73291e-10
9.15122e-13
3.10974e-13
2.34243e-10
9.84911e-10
1.9625e-13
3.66439e-11
2.03265e-13
3.6604e-13
1.8952e-12
9.43651e-14
2.45037e-13
5.48521e-10
3.45071e-13
2.61173e-13
4.29319e-12
8.86975e-13
2.42505e-11
7.36291e-10
3.53516e-13
1.63487e-13
4.08356e-12
1.73772e-13
4.55086e-14
1.0259e-12
4.62228e-13
2.73279e-10
5.6772e-10
1.14009e-13
2.16083e-13
2.21631e-11
6.31873e-13
1.1041e-13
2.14526e-12
5.72851e-13
9.64583e-12
6.54765e-11
8.14044e-10
2.18624e-13
3.65767e-13
2.42621e-12
4.82545e-12
8.98541e-14
2.72507e-13
1.3585e-12
9.42641e-11
7.69879e-10
4.79863e-12
4.00744e-13
3.26702e-10
1.39927e-09
3.01787e-10
9.49231e-10
6.12169e-10
5.81687e-10
9.2806e-10
9.57761e-12
1.3159e-09
1.31415e-09
1.39561e-09
6.48475e-10
5.56917e-10
6.22598e-10
7.4659e-10
9.32733e-13
2.92482e-10
1.24415e-09
9.81372e-10
5.62931e-10
1.27591e-12
2.13501e-13
1.05937e-09
1.29187e-09
7.78018e-10
1.02308e-09
5.47672e-10
7.46937e-10
8.17868e-10
8.6744e-10
1.03467e-09
1.48745e-09
1.54927e-09
1.13229e-09
5.92415e-10
7.62083e-10
5.11243e-10
3.0517e-13
1.35741e-09
1.22745e-10
1.76019e-13
8.93097e-14
7.60354e-14
2.87143e-13
1.71555e-13
2.36558e-13
5.09309e-13
7.37393e-14
1.26959e-13
1.5519e-13
8.21926e-14
2.58001e-13
1.44452e-10
2.68621e-13
2.50452e-14
6.30695e-10
7.7469e-11
1.60458e-13
2.92094e-13
7.02793e-14
5.70623e-14
9.44847e-14
9.04567e-14
1.63472e-13
9.51135e-13
1.34829e-13
1.19679e-13
2.56094e-13
2.49871e-13
2.57774e-13
7.24549e-13
3.07418e-13
7.98897e-14
6.41353e-14
1.66109e-13
2.95082e-13
2.0883e-14
1.88619e-14
1.89583e-13
3.03916e-13
6.97396e-10
1.38195e-09
1.69728e-09
1.23931e-09
1.45708e-09
9.36081e-10
1.00003e-09
2.0783e-09
1.33236e-09
1.80909e-09
1.70945e-09
9.03134e-10
2.11681e-09
9.86551e-10
6.31877e-10
3.03153e-10
1.22355e-09
1.38058e-09
1.39394e-09
1.22231e-09
1.59042e-09
2.06723e-09
1.68021e-09
1.47667e-09
1.01527e-09
9.81654e-10
1.80701e-09
1.34999e-09
1.81051e-09
1.96446e-09
1.52204e-09
1.4807e-09
1.95556e-09
9.64025e-10
1.49316e-09
1.41319e-09
2.0223e-09
2.41786e-09
1.26915e-09
7.90367e-10
5.75432e-13
1.37721e-12
4.60785e-13
5.13832e-13
3.39648e-14
1.62349e-13
1.37076e-13
6.04352e-14
7.99707e-14
4.3704e-13
2.55704e-13
1.98075e-13
5.72265e-14
7.8941e-14
4.49338e-13
2.11658e-13
6.3112e-14
3.27348e-13
1.75012e-13
5.85152e-14
7.28425e-14
1.78445e-13
2.54987e-13
2.97023e-13
1.38266e-13
1.8351e-13
9.56659e-14
3.39046e-13
9.90779e-13
1.81343e-13
1.57198e-13
2.26265e-13
1.33103e-13
3.2433e-13
1.54129e-13
2.09058e-13
1.45281e-13
4.06689e-14
5.95733e-14
1.24002e-13
1.5181e-09
2.28442e-09
1.971e-09
1.69248e-09
2.38698e-09
1.73769e-09
1.90355e-09
1.09296e-09
1.9127e-09
2.39503e-09
1.85425e-09
2.71844e-09
2.25672e-09
2.2162e-09
1.98903e-09
2.69234e-09
2.28652e-09
2.33048e-09
2.14957e-09
2.11993e-09
2.26683e-09
1.88649e-09
2.3057e-09
2.22497e-09
1.72371e-09
2.30392e-09
2.53182e-09
2.37323e-09
2.45147e-09
2.27002e-09
2.16734e-09
2.28433e-09
1.95403e-09
1.64756e-09
2.29272e-09
2.3728e-09
2.3414e-09
2.39598e-09
2.78394e-09
1.75363e-09
9.49185e-13
5.29623e-13
2.14895e-14
8.71123e-14
1.88226e-13
8.69347e-14
3.72832e-14
2.91359e-14
3.50875e-13
6.06165e-13
6.66611e-14
3.38898e-13
8.95612e-13
5.07342e-13
1.96489e-13
2.40712e-13
1.24653e-12
4.94826e-13
2.70639e-13
2.95632e-13
3.82896e-13
4.76477e-13
3.92778e-14
1.15268e-13
3.65244e-14
2.02687e-13
3.77635e-13
3.69029e-13
2.11101e-13
1.41438e-13
1.37226e-13
1.48259e-13
4.19884e-14
1.662e-13
2.86379e-13
2.83377e-13
7.97202e-14
6.55363e-14
2.01728e-13
4.33297e-13
1.10723e-09
1.21478e-09
7.9608e-10
9.50938e-10
1.42414e-09
1.07146e-09
1.34328e-09
4.77736e-10
1.31469e-09
1.30287e-09
8.89516e-10
8.80682e-10
1.2288e-09
1.23381e-09
1.16758e-09
1.01978e-09
1.14442e-09
1.42967e-09
1.4407e-09
1.17306e-09
8.64931e-10
9.61881e-10
1.23939e-09
1.29895e-09
9.06697e-10
1.20459e-09
1.238e-09
1.24426e-09
1.39213e-09
1.33517e-09
1.29291e-09
1.32629e-09
9.008e-10
1.13104e-09
1.10124e-09
1.22728e-09
1.22662e-09
9.7184e-10
1.1978e-09
9.96091e-10
2.50509e-12
1.98733e-10
6.69896e-12
4.57493e-11
7.01827e-11
1.37927e-11
3.19786e-13
8.40126e-12
4.5374e-12
1.22156e-13
5.90078e-11
7.13046e-14
3.83026e-14
7.74163e-13
3.84405e-14
1.22987e-14
8.29269e-12
1.23345e-13
1.56245e-13
1.15257e-10
1.59425e-13
1.46708e-13
3.69155e-11
1.03707e-13
1.37408e-13
3.4571e-13
5.73191e-14
1.15098e-13
1.46099e-10
8.86635e-14
3.22715e-13
1.53619e-13
1.92527e-14
6.62423e-11
9.94367e-15
2.13965e-14
1.2803e-10
9.8401e-14
7.33242e-11
1.46815e-11
1.02912e-14
1.34936e-13
1.14899e-13
9.41091e-14
2.32404e-13
1.24559e-10
3.29299e-12
9.61088e-11
5.1067e-11
3.1867e-13
2.03797e-10
4.39883e-11
1.1288e-13
2.3794e-10
1.43176e-10
1.02691e-11
9.70713e-11
1.06107e-13
2.01193e-13
5.03493e-12
2.27903e-13
5.4219e-13
1.7419e-13
1.66785e-13
8.72229e-13
8.91928e-11
4.51482e-14
9.99709e-14
1.28375e-13
2.19863e-14
6.71465e-15
2.18534e-14
8.71369e-11
3.71561e-10
4.30436e-11
2.32757e-10
5.11538e-11
3.1841e-14
3.53531e-11
2.95609e-14
5.20948e-11
1.10016e-12
3.48409e-11
2.78817e-14
1.95609e-14
4.46486e-14
4.24189e-14
1.45141e-13
6.94182e-14
1.12697e-13
7.31149e-11
8.03911e-14
1.09054e-12
1.40853e-10
1.94109e-13
3.86248e-11
8.19934e-11
1.68484e-13
1.08019e-10
1.38987e-10
1.96373e-10
3.94903e-10
2.57075e-10
2.92233e-10
1.21257e-10
2.98991e-14
6.19607e-14
1.44561e-13
4.12173e-13
5.9824e-13
3.69857e-11
2.99596e-13
3.01809e-12
9.75933e-14
4.43801e-14
3.49365e-13
1.24191e-13
5.89925e-13
8.71744e-11
5.37074e-13
1.69832e-13
3.25518e-13
1.85648e-10
1.22224e-13
1.38629e-13
3.21524e-14
1.26998e-13
2.36841e-11
8.58197e-14
1.86414e-10
1.02668e-10
1.11877e-13
2.12094e-10
2.27317e-12
8.00982e-14
4.45048e-13
3.91168e-13
5.73241e-14
6.06027e-13
1.51401e-13
8.18194e-14
2.86985e-13
8.78876e-14
1.87637e-13
5.03056e-13
7.19893e-11
2.43674e-10
2.85872e-10
6.38209e-14
3.1628e-14
1.0863e-10
2.1136e-10
5.00379e-10
3.97367e-11
2.11272e-11
2.99555e-13
8.76088e-14
8.09254e-13
9.00039e-14
1.01882e-13
1.1177e-13
5.29312e-12
1.43915e-10
6.95293e-11
2.01168e-10
1.59948e-10
3.28506e-10
1.13461e-10
2.71389e-13
3.35691e-10
5.92302e-12
6.95068e-13
2.26037e-10
1.84417e-13
3.12651e-14
2.92829e-11
2.77643e-14
1.4179e-13
2.08357e-10
9.25391e-14
4.62523e-11
2.15783e-10
2.53738e-10
3.15384e-10
1.25234e-10
1.42774e-13
1.01476e-13
3.1243e-13
1.09894e-10
2.41341e-10
2.73645e-10
3.50627e-10
6.42904e-11
6.83073e-15
8.46881e-14
1.06821e-13
9.00571e-14
1.8489e-10
1.93276e-13
4.19946e-13
4.3667e-12
3.1636e-13
7.75696e-14
1.14305e-14
5.7199e-14
7.29654e-14
8.4819e-12
1.15687e-13
2.08687e-13
7.21897e-11
7.7516e-14
2.35249e-13
8.15669e-11
3.21772e-14
1.26037e-13
1.09068e-12
2.94829e-14
9.81748e-14
1.19162e-12
1.52692e-13
1.84424e-10
2.31449e-10
4.56168e-11
1.39699e-13
1.26653e-13
8.36378e-14
5.45829e-13
4.98675e-10
3.8608e-10
5.44429e-13
1.21859e-13
2.70185e-13
2.18394e-13
1.34175e-13
4.54564e-10
2.63407e-10
1.03593e-10
9.37873e-14
5.32828e-14
6.7054e-11
9.60037e-13
2.29989e-10
4.2298e-10
3.59728e-10
1.91834e-10
8.36257e-11
4.65976e-13
9.00993e-14
1.26976e-10
2.93646e-10
4.72265e-13
3.83917e-11
1.28322e-10
2.03352e-13
1.17254e-13
3.36232e-11
1.3186e-13
3.61485e-10
2.20573e-10
5.93067e-11
3.24923e-10
1.0271e-10
4.55889e-14
3.96984e-14
3.85623e-14
3.30583e-13
3.01225e-11
1.3999e-13
1.30024e-13
3.27737e-13
1.43622e-13
3.03388e-13
2.41411e-13
8.67831e-12
5.25068e-11
1.6272e-13
9.57731e-11
4.14027e-10
3.15166e-10
2.05185e-10
8.45397e-14
2.90908e-13
5.6021e-13
1.49142e-13
2.14463e-13
6.94563e-11
4.50099e-11
3.01386e-11
1.65295e-10
2.53399e-10
1.26291e-10
3.52919e-14
1.14325e-13
1.00772e-13
8.59767e-14
1.38188e-10
2.37692e-13
1.35916e-10
1.74456e-10
3.17834e-13
6.23285e-14
8.11896e-14
1.92847e-10
1.36757e-10
2.31711e-13
1.87014e-14
7.90016e-14
5.73674e-13
5.43813e-10
5.92492e-13
1.78333e-13
1.80507e-10
3.71377e-13
2.23279e-13
8.54386e-13
5.31266e-13
5.40792e-13
4.44745e-14
6.57816e-14
6.21961e-13
1.03883e-13
8.83163e-11
1.16684e-10
9.00853e-11
9.97435e-11
8.11575e-13
1.1888e-13
5.83439e-14
1.83167e-13
4.94964e-13
1.75696e-13
1.17795e-13
9.1772e-14
9.49098e-14
2.90918e-13
1.03475e-13
8.92893e-14
1.44043e-10
5.1481e-13
5.74805e-14
3.16527e-10
2.18279e-10
4.30597e-12
2.12644e-12
8.63329e-13
2.64179e-10
1.7688e-10
6.17098e-13
1.93738e-13
1.39901e-13
1.97746e-13
5.86551e-12
6.29066e-13
7.40837e-13
1.7116e-10
1.72056e-10
4.49102e-10
1.34542e-12
2.68566e-10
1.52085e-12
6.93834e-11
1.48638e-10
8.6731e-14
3.65583e-13
7.9606e-13
2.51217e-10
3.01115e-10
4.12757e-12
3.84529e-10
1.45735e-10
1.50192e-13
3.6794e-11
1.96344e-10
2.09392e-10
3.03594e-10
6.67203e-12
3.27726e-13
5.51695e-13
9.07331e-11
3.01697e-11
7.3919e-13
3.03499e-10
2.69517e-13
2.30694e-12
1.09244e-10
4.79824e-10
1.20419e-13
2.77066e-12
1.2982e-09
3.04732e-10
2.24328e-10
1.9142e-10
1.03886e-13
5.41683e-13
3.56462e-13
2.93762e-13
3.71183e-13
6.85845e-11
5.32578e-10
1.61807e-14
1.41294e-10
3.33428e-11
1.81149e-10
8.90191e-10
1.61399e-10
3.66269e-13
1.91501e-13
5.41633e-14
1.51097e-12
1.89768e-10
7.61045e-12
2.02028e-13
1.12381e-12
1.60363e-10
2.38847e-10
2.49312e-10
1.57006e-13
2.54911e-10
6.87127e-10
4.51127e-10
1.15984e-09
1.09937e-09
1.053e-12
2.78883e-13
8.97133e-14
3.17158e-13
1.30305e-13
3.38127e-13
2.86669e-12
1.67026e-13
1.26144e-13
2.50751e-12
2.78726e-10
5.07979e-10
6.75613e-11
1.33538e-13
1.27535e-13
1.7024e-13
3.14222e-13
4.74674e-14
8.42424e-10
1.06518e-09
4.1223e-11
6.90898e-13
4.84107e-13
2.70765e-13
6.33068e-11
7.43388e-13
7.00299e-14
3.13637e-13
1.9906e-10
1.84419e-13
2.16023e-13
2.70886e-12
2.0369e-10
7.86679e-14
4.57136e-13
4.21717e-11
5.87342e-11
2.05401e-13
2.38832e-12
8.09119e-13
1.99037e-13
8.77149e-11
2.06274e-10
2.1159e-10
5.27004e-13
1.73853e-13
7.66282e-10
9.77045e-10
6.3198e-13
5.58581e-12
3.94956e-14
2.30061e-13
6.04408e-10
1.12996e-12
2.67993e-10
9.14035e-13
2.72011e-10
1.97821e-13
2.20153e-13
5.84513e-14
2.11071e-13
2.55936e-13
7.27949e-13
4.93606e-10
5.52644e-11
3.57567e-10
1.45188e-10
2.33637e-13
2.9576e-13
1.90896e-13
1.10618e-12
2.75449e-11
1.02266e-13
6.47127e-14
9.49879e-13
1.0921e-11
2.4953e-13
6.62588e-13
7.80138e-10
6.28689e-10
8.48237e-14
2.69339e-12
9.31414e-10
2.914e-13
2.37267e-13
4.27673e-10
7.36535e-12
8.384e-14
1.24298e-13
4.31278e-10
4.28545e-13
7.47428e-11
4.17865e-13
1.7841e-13
1.62735e-13
1.91868e-13
1.08636e-13
7.08333e-14
1.96456e-12
4.57492e-10
2.72191e-10
1.1696e-09
5.55164e-10
8.84327e-11
4.53795e-10
2.58233e-10
7.99527e-11
4.11146e-10
2.69756e-13
9.28244e-11
8.68507e-13
2.20582e-10
6.47418e-10
5.83646e-11
6.72302e-10
1.03489e-12
1.24502e-13
1.79231e-10
3.35451e-11
5.68002e-10
1.17541e-09
1.42455e-10
2.77625e-13
1.6174e-13
1.28864e-13
7.72244e-14
2.0726e-13
8.18659e-13
8.27671e-10
5.84811e-10
7.87722e-14
4.87852e-10
5.93182e-10
1.0512e-14
1.74753e-13
2.48632e-13
5.2057e-13
6.43283e-14
1.53594e-10
1.74217e-09
7.60721e-13
3.06775e-13
1.30694e-13
6.61792e-13
3.46736e-13
6.88534e-14
3.05075e-14
2.42684e-10
7.75487e-13
1.08024e-10
2.89562e-10
1.91601e-13
1.79732e-13
1.83671e-13
8.31567e-10
2.03139e-12
3.32273e-13
7.29434e-14
2.74089e-12
1.50336e-12
5.79934e-13
9.8686e-13
6.37185e-10
1.90658e-12
5.32395e-10
1.29945e-10
6.98995e-10
1.76044e-13
9.0733e-14
6.01621e-10
1.23802e-13
2.14249e-13
9.61541e-10
3.68799e-10
6.40972e-10
5.49922e-14
8.7486e-14
4.72028e-14
1.99372e-12
2.68892e-10
1.07795e-12
3.24532e-13
2.54719e-10
1.13968e-10
2.59403e-13
9.8923e-11
2.91408e-10
5.27726e-14
2.08476e-13
1.44347e-13
6.9872e-11
2.21591e-10
1.42253e-13
4.25535e-13
5.16359e-13
4.75457e-14
1.54415e-13
4.96222e-12
4.34967e-10
1.52498e-09
6.78539e-10
2.27265e-10
5.59489e-11
4.85924e-14
1.20061e-13
3.30339e-12
1.59117e-12
2.99301e-13
4.79911e-11
6.56375e-14
3.45722e-14
9.00698e-13
2.11338e-13
2.02235e-14
3.16598e-13
1.21928e-13
5.37014e-10
1.59825e-14
2.17754e-09
2.1224e-10
4.80765e-13
3.13607e-13
9.9681e-11
4.56736e-13
9.91832e-14
4.88014e-12
2.33311e-10
1.26479e-10
2.35589e-13
3.36458e-13
5.96747e-10
4.48047e-13
5.44835e-13
1.55325e-13
6.91164e-10
6.66504e-11
1.91015e-13
7.52569e-11
1.00334e-12
9.92597e-14
1.65783e-13
6.96163e-11
3.9292e-12
3.17425e-13
2.70513e-12
3.87516e-10
5.37275e-10
1.68517e-14
1.2128e-10
2.53152e-13
3.00624e-14
4.97099e-14
8.55946e-13
3.25817e-10
1.24841e-12
3.30889e-13
1.20801e-13
5.87763e-11
4.90879e-12
1.8056e-09
2.64522e-13
1.06026e-09
1.86244e-13
1.24982e-13
5.23917e-14
7.87046e-14
7.73858e-13
4.71079e-10
2.37392e-13
4.0771e-13
6.15596e-10
1.20914e-10
1.38353e-11
3.08506e-10
4.35613e-10
4.876e-10
6.7402e-13
2.61677e-13
1.83187e-12
7.43395e-13
1.7939e-13
2.6105e-10
6.00498e-13
5.31882e-10
5.01425e-10
3.68461e-10
1.06841e-11
5.43769e-13
4.12338e-14
4.72602e-10
1.22633e-13
3.70215e-10
1.87037e-09
4.22528e-13
2.12228e-13
3.97444e-12
9.59379e-10
1.24614e-11
5.46219e-10
8.91589e-10
1.43089e-12
4.25217e-10
1.12654e-10
6.86625e-10
3.62162e-10
3.32779e-14
5.11465e-13
7.00847e-13
2.93227e-13
5.15678e-10
3.92908e-13
3.88179e-12
2.30246e-13
7.38899e-14
2.47617e-13
4.81366e-13
1.5163e-13
1.97657e-13
3.72998e-11
2.18438e-10
2.8895e-10
1.14673e-13
1.20659e-13
1.82412e-13
2.84814e-13
1.11266e-13
5.2548e-10
1.73778e-10
3.65747e-10
6.27789e-14
5.33046e-14
7.96105e-10
2.29365e-13
3.77107e-13
1.33203e-13
1.54997e-13
5.2761e-13
3.21661e-13
1.38645e-09
7.8032e-14
1.32107e-13
9.13938e-14
2.52481e-13
3.8216e-13
1.95762e-10
3.61406e-10
3.04301e-10
8.59525e-11
3.04592e-13
6.37911e-14
1.1574e-13
2.67699e-10
2.58295e-13
1.0402e-12
4.63373e-11
1.97144e-13
5.39428e-14
1.72659e-13
4.39628e-10
3.04457e-13
6.77043e-10
2.78014e-10
3.14735e-11
1.15276e-12
8.5062e-11
1.99698e-13
2.5484e-13
2.42645e-13
2.0836e-13
4.33257e-13
5.38322e-14
4.17847e-13
5.52744e-14
1.71607e-10
5.22577e-11
5.46991e-13
6.46853e-12
5.38172e-10
1.02334e-09
8.21677e-10
1.49968e-13
1.81345e-11
1.63685e-12
3.86533e-13
8.44124e-14
1.29621e-13
3.64377e-10
5.51966e-13
8.46205e-13
5.26705e-13
3.33665e-13
1.01344e-11
5.48608e-10
4.02432e-10
4.4617e-10
4.62273e-10
7.43121e-13
5.91925e-10
2.61056e-10
4.51324e-10
1.13712e-13
5.56015e-12
9.04583e-14
8.57465e-10
3.71907e-13
1.66259e-13
1.43098e-10
9.88646e-10
3.79255e-10
1.19681e-12
5.25162e-14
3.98816e-12
2.54362e-12
1.74795e-12
3.26322e-13
4.37168e-10
3.1315e-10
2.34883e-12
4.11455e-10
2.16328e-09
5.96543e-13
1.89494e-13
9.30677e-12
9.15912e-10
2.91674e-13
1.2695e-13
6.35336e-11
1.77308e-12
5.23894e-12
1.07289e-12
6.97357e-10
7.16888e-10
2.28744e-13
5.06024e-13
3.01209e-10
1.19276e-13
3.75598e-11
3.4171e-11
3.361e-10
1.02535e-12
3.85081e-10
1.65696e-13
9.51873e-14
1.91868e-12
9.57737e-15
6.77525e-11
2.09932e-13
1.08665e-13
1.39315e-12
2.16377e-13
1.63348e-10
9.65391e-10
2.06537e-09
4.75907e-13
6.21179e-10
2.22521e-10
4.508e-13
7.40223e-13
1.05465e-12
2.21869e-13
2.97325e-13
1.00008e-09
2.39552e-10
4.84998e-13
9.91468e-13
3.21997e-13
7.63852e-13
6.75967e-10
3.0258e-13
3.81659e-11
6.83633e-10
1.42685e-12
6.55235e-14
2.19027e-13
2.52738e-10
1.66438e-14
9.89295e-14
1.53188e-13
1.93777e-11
4.45839e-13
7.41257e-10
7.14949e-10
2.19721e-13
6.48322e-13
7.27408e-10
2.80015e-10
1.8652e-13
2.57521e-12
2.10795e-13
5.44044e-14
1.69829e-13
1.10991e-11
9.29309e-12
1.69017e-13
2.54181e-13
7.83304e-11
2.74189e-12
4.06616e-10
6.86604e-10
9.66043e-14
1.59025e-12
2.87547e-10
1.89093e-11
4.43014e-11
8.40413e-10
3.88349e-13
6.93061e-10
2.36934e-13
3.25787e-13
1.6431e-13
1.17999e-12
4.04046e-10
4.21782e-10
4.00214e-13
9.28596e-10
1.31765e-10
1.16081e-12
6.71818e-10
4.66883e-10
4.30805e-10
1.64687e-12
8.31145e-12
1.0822e-09
2.31237e-10
3.08435e-10
7.94179e-14
3.64874e-13
4.28853e-10
1.10586e-09
1.91945e-11
1.66871e-10
2.14767e-13
3.83559e-11
6.2814e-11
1.15401e-10
4.53931e-10
2.94169e-12
1.12757e-10
2.23645e-14
5.63409e-10
5.91052e-10
1.37862e-13
4.28163e-13
4.08319e-12
5.77964e-13
4.00329e-10
8.97988e-11
1.34529e-13
7.50098e-10
7.0037e-14
7.55625e-13
2.64067e-10
9.12248e-14
5.2188e-13
2.53471e-13
5.11979e-12
2.51419e-14
2.4443e-13
4.918e-13
2.22674e-12
1.54428e-10
6.01485e-13
2.11517e-13
4.50979e-13
8.85291e-14
1.55968e-13
1.61046e-13
2.47458e-13
3.68636e-13
1.1477e-13
1.91546e-12
1.3838e-13
5.22538e-13
4.49159e-13
1.12576e-13
3.63031e-14
4.18955e-10
1.00569e-12
7.97278e-10
1.9006e-09
1.32828e-11
1.37659e-09
1.19156e-09
4.82332e-10
4.10359e-10
5.26507e-10
1.32975e-10
2.87177e-10
7.25612e-14
1.59796e-09
1.03897e-09
1.13017e-09
1.39926e-12
9.1098e-10
1.06874e-09
8.28884e-14
1.11839e-13
2.14827e-10
1.26639e-09
1.60169e-13
8.91633e-10
1.3227e-09
7.049e-12
6.88042e-10
9.039e-10
4.30706e-10
1.28791e-09
7.53135e-10
8.6926e-13
3.96146e-10
3.48615e-10
8.78215e-10
8.3437e-10
2.20615e-10
6.11244e-10
1.97211e-09
3.5888e-10
1.50935e-12
3.57789e-13
1.75987e-13
5.71344e-14
2.14218e-13
2.77138e-13
9.94226e-13
2.26437e-13
1.17619e-13
1.19818e-13
3.376e-13
3.40854e-14
5.90107e-14
1.59425e-13
2.86414e-13
7.14232e-13
1.02055e-13
7.277e-13
8.01915e-14
1.41772e-13
1.7357e-13
6.88316e-13
3.7218e-13
1.71472e-13
3.30458e-14
6.16132e-14
2.70946e-14
8.19102e-14
1.3235e-13
6.07771e-14
1.1803e-13
4.26394e-14
4.38287e-14
3.58237e-14
1.11977e-13
1.23489e-13
3.22864e-10
1.26902e-13
1.64114e-13
8.96515e-14
2.57968e-13
1.09563e-09
1.72365e-09
3.03091e-09
1.79282e-09
1.11758e-09
1.42265e-09
1.11414e-09
1.6941e-09
1.82039e-09
9.93892e-10
2.46916e-09
1.25618e-11
1.23429e-09
1.64775e-09
6.77076e-10
1.58362e-09
1.67912e-09
1.40276e-09
7.1996e-10
1.26319e-09
2.75978e-10
1.65203e-09
2.3329e-09
1.04649e-09
8.05471e-10
1.77743e-09
1.41956e-09
1.42238e-09
1.10924e-09
9.74934e-10
1.21204e-09
1.37633e-09
1.43023e-09
1.39292e-09
9.46649e-10
4.10435e-10
7.85129e-10
1.07456e-09
2.44355e-09
1.33788e-09
9.69531e-13
8.69356e-13
3.74502e-14
6.43545e-14
7.32865e-14
2.80944e-14
6.04262e-14
8.07394e-14
9.01013e-14
3.78856e-14
7.23215e-14
7.2878e-14
1.12729e-13
2.23581e-13
1.67644e-13
4.31261e-13
2.87424e-14
1.25348e-13
2.14654e-13
8.12998e-13
3.27596e-13
1.77405e-13
2.90479e-13
8.81969e-14
1.00681e-13
1.33897e-13
1.17326e-13
1.02865e-13
4.22939e-14
8.61315e-14
5.96335e-14
1.60237e-13
1.45532e-13
1.60621e-13
2.25496e-13
2.40714e-13
1.02906e-13
8.73539e-13
1.17676e-13
6.93076e-14
1.87627e-09
1.81341e-09
2.58221e-09
1.28148e-09
2.27651e-09
2.36376e-09
2.16554e-09
2.15202e-09
2.37234e-09
2.38759e-09
2.99805e-09
2.27306e-09
1.4452e-09
2.36087e-09
2.23376e-09
2.05985e-09
2.57075e-09
2.40801e-09
2.17609e-09
1.91975e-09
2.60516e-09
2.2383e-09
2.85917e-09
1.06671e-09
1.93448e-09
1.9895e-09
1.92076e-09