/*--------------------------------*- C++ -*----------------------------------*\
  =========                 |
  \\      /  F ield         | OpenFOAM: The Open Source CFD Toolbox
   \\    /   O peration     | Website:  https://openfoam.org
    \\  /    A nd           | Version:  10
     \\/     M anipulation  |
\*---------------------------------------------------------------------------*/
FoamFile
{
    format      ascii;
    class       volSymmTensorField;
    location    "17";
    object      UPrime2Mean;
}
// * * * * * * * * * * * * * * * * * * * * * * * * * * * * * * * * * * * * * //

dimensions      [0 2 -2 0 0 0 0];

internalField   nonuniform List<symmTensor> 
25600
(
(0.000102708 3.14467e-05 -1.05511e-05 8.89481e-05 -6.52297e-06 5.08364e-05)
(0.000106716 2.56875e-05 -3.97216e-05 8.94225e-05 1.32491e-05 0.000143815)
(0.000111193 3.5674e-05 -5.96365e-05 8.21966e-05 -1.23155e-05 0.000234099)
(0.000140289 5.9444e-05 -8.96949e-05 9.32569e-05 -5.644e-05 0.000202885)
(0.000186611 8.55616e-05 -8.37245e-05 0.000107692 -5.76245e-05 0.000106818)
(0.00028285 0.000115018 -1.7464e-05 0.000116076 -2.27172e-05 3.96077e-05)
(0.000367624 0.000121815 8.62948e-05 0.000111442 1.073e-05 6.76785e-05)
(0.000382807 0.000100252 0.000147948 9.76524e-05 1.53935e-05 0.000119117)
(0.00041822 7.59414e-05 0.000153737 8.97718e-05 6.07409e-07 0.000114966)
(0.000407501 3.95016e-05 7.4516e-05 8.92739e-05 -1.72625e-05 5.73721e-05)
(0.000379081 -1.31418e-05 -7.65084e-06 9.72964e-05 -1.69536e-05 3.91357e-05)
(0.000324645 -5.12892e-05 -4.44635e-05 0.000121143 -9.68345e-07 4.74224e-05)
(0.000214382 -4.55813e-05 -3.05121e-05 0.000151377 3.31831e-06 4.54199e-05)
(0.00012883 -1.31287e-05 2.93221e-07 0.000179339 -2.33854e-05 3.84663e-05)
(9.94943e-05 2.45677e-05 3.1647e-06 0.000183329 -4.98713e-05 4.84301e-05)
(0.000105318 6.03408e-05 -9.9519e-06 0.000173382 -5.18543e-05 4.98275e-05)
(0.000134173 8.09588e-05 -5.01672e-06 0.000149826 -2.63421e-05 3.77322e-05)
(0.000163692 7.42473e-05 3.42921e-05 0.000116072 -1.17981e-06 5.4872e-05)
(0.00016196 3.4149e-05 6.3013e-05 9.65907e-05 -2.48574e-05 9.70258e-05)
(0.000110739 9.24534e-06 3.377e-05 0.000158616 -9.35827e-05 0.000119579)
(0.000121553 0.00010469 -3.26822e-05 0.000297876 -0.00012641 9.21871e-05)
(0.000344692 0.000297533 -5.79033e-05 0.000375368 -8.71217e-05 5.29903e-05)
(0.000658466 0.000381761 -2.81983e-05 0.000309536 -4.05946e-05 3.82647e-05)
(0.000660503 0.000266047 1.49528e-05 0.000191451 -1.65398e-05 3.72223e-05)
(0.000390362 0.000114837 2.27734e-05 0.000119214 -1.53747e-05 3.73884e-05)
(0.000147874 4.62671e-05 1.12318e-05 0.000100519 -1.92134e-05 3.61005e-05)
(0.000105029 3.9375e-05 4.92301e-06 0.000101799 -2.177e-05 3.63011e-05)
(0.00011258 4.28627e-05 6.37146e-06 0.000103018 -1.96496e-05 3.53182e-05)
(0.000104148 3.75555e-05 7.07685e-06 0.000100463 -1.50338e-05 3.87125e-05)
(0.000116929 2.79883e-05 -1.88132e-05 0.000105938 -3.08226e-06 7.34348e-05)
(0.000143971 1.09549e-05 -6.93182e-05 0.000122166 3.08512e-05 0.000165637)
(0.000126003 -5.15747e-07 -7.23369e-05 0.000148736 9.25822e-05 0.000272522)
(0.000102764 2.57531e-05 -1.24349e-05 0.000169923 0.000132776 0.00031304)
(0.000118034 6.59942e-05 6.08939e-05 0.000132814 7.92812e-05 0.000251073)
(0.000138845 4.3853e-05 6.52832e-05 8.51845e-05 -5.67524e-06 0.000131965)
(0.000122841 5.50122e-06 2.03634e-05 0.000108218 -3.28804e-05 4.93036e-05)
(0.000109498 7.97685e-06 -3.33065e-06 0.000178899 3.64043e-06 4.17658e-05)
(9.90118e-05 2.29433e-05 -6.64262e-06 0.000192003 4.19079e-05 6.94336e-05)
(9.41521e-05 3.34925e-05 8.73625e-07 0.000133047 2.61522e-05 7.15623e-05)
(9.76467e-05 3.77655e-05 2.5761e-06 8.42401e-05 -1.28183e-05 4.02414e-05)
(0.000309745 8.63312e-05 4.13351e-05 0.000121069 4.15702e-05 9.38605e-05)
(0.000307476 9.83979e-05 6.11815e-05 0.000103631 5.2506e-05 0.000204004)
(0.000311519 9.09944e-05 6.63152e-05 0.000115798 -3.36798e-05 0.000201483)
(0.00031405 0.000112688 4.15069e-05 0.000197699 -4.97124e-05 0.000116656)
(0.000344275 0.000147166 4.92859e-05 0.000182318 6.087e-06 7.49764e-05)
(0.000408069 0.000134169 0.000111124 0.00011659 3.72225e-05 0.000105978)
(0.000416708 6.08456e-05 0.000178826 0.000109409 -2.11704e-05 0.000214829)
(0.00037229 3.44147e-05 0.000166176 0.000157449 -9.74901e-05 0.000280345)
(0.000360641 3.82159e-05 0.000137384 0.000172617 -8.51333e-05 0.000212607)
(0.000361303 3.83824e-05 9.1358e-05 0.000151648 -1.57096e-05 9.40772e-05)
(0.000373763 4.72293e-05 4.05786e-05 0.000131488 2.91816e-05 8.63811e-05)
(0.000351635 6.83237e-05 3.76133e-05 0.000127467 3.84639e-05 0.000103121)
(0.000317368 9.95959e-05 6.79416e-05 0.000141704 3.13686e-05 8.7276e-05)
(0.000398178 0.000177848 3.60535e-05 0.00019305 -1.44366e-05 8.57876e-05)
(0.000492877 0.000260766 -6.07499e-05 0.000261842 -0.000100551 0.000158926)
(0.00046189 0.000246038 -9.93378e-05 0.000258909 -0.000145857 0.000240912)
(0.000350181 0.000144146 -1.7953e-05 0.000165053 -8.0216e-05 0.000215612)
(0.000301303 8.83384e-05 6.29634e-05 0.000111933 -2.9635e-06 0.000103498)
(0.000317002 9.26078e-05 3.88437e-05 0.000105043 7.86704e-06 9.04539e-05)
(0.000343246 0.000117291 -5.2208e-06 0.000116645 -1.91821e-05 0.00014015)
(0.000374491 0.000141899 -1.65643e-05 0.000133192 -3.12048e-05 0.000134927)
(0.000429261 0.000175295 -1.50427e-05 0.000152437 -3.1241e-05 0.000110111)
(0.000524842 0.000244864 -2.3792e-05 0.000197135 -4.0016e-05 0.000100447)
(0.000587722 0.000334629 -4.86636e-06 0.000290322 -3.7289e-05 8.51837e-05)
(0.000632063 0.000419896 8.05077e-05 0.000404611 3.30031e-05 7.37018e-05)
(0.000611929 0.000433896 0.000193764 0.000445901 0.000150795 0.000129618)
(0.000567322 0.00036386 0.000231496 0.000347865 0.000170507 0.000178041)
(0.000613671 0.000301416 0.000173131 0.000229738 8.32494e-05 0.000111503)
(0.00066239 0.000223619 -6.61682e-06 0.000147573 -7.06063e-06 7.66311e-05)
(0.000649022 0.00012682 -0.000186815 0.000108428 -5.31107e-06 0.000216137)
(0.00050921 6.92442e-05 -0.000203436 0.000110221 4.34126e-05 0.000329921)
(0.000329322 6.81421e-05 -5.99132e-05 0.000123432 7.97154e-05 0.000290966)
(0.00029453 0.000116441 6.61655e-05 0.000151703 8.87982e-05 0.00017689)
(0.000375669 0.000178632 9.84989e-05 0.000172407 6.20776e-05 9.93252e-05)
(0.000428042 0.000185396 4.83341e-05 0.000148974 1.55731e-05 6.655e-05)
(0.000358457 0.000124277 -1.33876e-05 0.000104473 -4.41936e-06 0.000116259)
(0.000302566 9.46487e-05 2.57452e-05 0.000108199 6.2342e-05 0.000282938)
(0.000321139 0.000132201 0.000138789 0.000150487 0.000158961 0.000444151)
(0.000355141 0.000141862 0.00017045 0.000127065 0.000112227 0.00034644)
(0.000334689 9.60328e-05 8.40127e-05 9.65175e-05 1.19357e-05 0.000111417)
(0.000395335 0.000207544 4.29579e-05 0.000351827 -0.000144534 0.000250357)
(0.000391438 0.000196128 6.63929e-05 0.000309502 -8.03613e-05 0.000186627)
(0.000371282 0.000151972 0.000122445 0.000210114 4.11074e-05 0.000133339)
(0.000358153 0.000103229 0.000139263 8.98098e-05 5.46181e-05 0.00017217)
(0.000356324 8.54126e-05 0.000135498 9.49415e-05 9.40237e-07 0.000176495)
(0.000372694 5.47552e-05 0.000154752 0.000148238 -2.99463e-05 0.000177861)
(0.000370875 5.33928e-05 0.000158683 0.000157571 -4.49437e-05 0.0001916)
(0.000349997 8.60241e-05 0.000129735 0.000131532 -3.30272e-05 0.000186814)
(0.000355023 0.000106276 0.000110483 0.000102985 3.49999e-06 0.000143044)
(0.000400925 0.000100847 0.000134849 7.90689e-05 2.83398e-05 0.00012307)
(0.00041994 8.33945e-05 0.000156536 8.0857e-05 2.33006e-05 0.000131716)
(0.000391413 8.52586e-05 0.000130789 8.51918e-05 3.02563e-05 0.00011843)
(0.000368828 9.28172e-05 0.000107563 8.07005e-05 2.96097e-05 0.000149849)
(0.000384314 0.000127991 7.51111e-05 0.000118373 -2.6361e-05 0.00019708)
(0.000448339 0.000247477 6.51309e-05 0.000326397 -6.70336e-05 0.000154451)
(0.000521856 0.000378576 0.000136788 0.000567274 4.05679e-05 0.000116317)
(0.000522096 0.000355813 0.000230897 0.000491567 0.000183624 0.000172875)
(0.000449945 0.000210299 0.00027185 0.000226813 0.000195837 0.00029792)
(0.000374405 8.32152e-05 0.000222641 8.87118e-05 3.28438e-05 0.000372822)
(0.000348124 9.12465e-05 0.000126607 0.000238222 -0.000157316 0.000370551)
(0.000368283 0.000173486 6.93632e-05 0.000476424 -0.000247291 0.00033021)
(0.000384816 0.000220705 6.19914e-05 0.000563304 -0.000202089 0.000242147)
(0.000399857 0.000218755 0.000112141 0.000464394 -1.90008e-05 0.000131599)
(0.000421631 0.00020008 0.000206203 0.000303538 0.000174526 0.000213021)
(0.000498451 0.000213175 0.000364269 0.00020726 0.000249703 0.000505567)
(0.000609477 0.000229076 0.00046441 0.000172692 0.00023117 0.000564904)
(0.000656105 0.000215484 0.000353147 0.00014644 0.000137679 0.000300789)
(0.000661692 0.000187649 0.000146185 0.000121715 4.71944e-05 0.000137675)
(0.000624576 0.000169261 -3.19928e-05 0.000111472 -1.1258e-05 0.000246009)
(0.000587373 0.000156484 -0.000111889 0.000106683 -3.64854e-05 0.000394625)
(0.000515102 0.000126641 -5.0133e-05 9.46039e-05 -7.82535e-06 0.000326063)
(0.00040657 8.04582e-05 7.71072e-05 8.31809e-05 4.26724e-05 0.000179846)
(0.000361368 9.12803e-05 0.000120778 0.000135164 3.22244e-05 0.000142176)
(0.000382472 0.0001454 9.2205e-05 0.000202623 -8.34946e-06 0.000151969)
(0.000374812 0.000135629 8.77649e-05 0.000170255 -9.03276e-07 0.000144495)
(0.000347983 9.35293e-05 0.000104524 0.00010032 1.82485e-05 0.000142975)
(0.000354306 9.10582e-05 0.000128364 7.94951e-05 4.18639e-05 0.00016282)
(0.000375435 0.000139412 0.000149359 0.000149379 8.71965e-05 0.000175261)
(0.000382509 0.000184124 0.000120814 0.000265613 5.63925e-05 0.000135264)
(0.000384165 0.000198754 7.2344e-05 0.00034758 -7.1407e-05 0.000173641)
(0.000436393 0.000187666 -6.46673e-06 0.000224365 -5.31164e-05 0.000162483)
(0.000479063 0.000183767 0.000175105 0.00019475 7.85331e-05 0.00015642)
(0.000404965 0.000161153 0.000262003 0.000194548 0.000169678 0.000451431)
(0.000320007 9.85945e-05 0.00011639 0.000153399 8.85527e-05 0.000356167)
(0.000321299 9.55199e-05 5.72404e-05 0.000142136 1.0783e-05 0.000133391)
(0.000320411 0.000118352 8.12831e-05 0.000193914 4.30351e-05 0.000109828)
(0.000319475 0.000132624 8.97524e-05 0.000220113 6.72402e-05 0.000123369)
(0.000324786 0.000120207 8.40516e-05 0.000164439 4.35778e-05 0.000112066)
(0.000354974 8.30967e-05 6.94054e-05 0.00013004 2.34992e-05 0.000101373)
(0.000362974 6.33103e-05 4.4607e-05 0.000132298 2.558e-05 0.000103373)
(0.000305376 8.09948e-05 4.4034e-05 0.000128334 2.17196e-05 0.000126385)
(0.000325594 6.09154e-05 0.000103104 0.000132107 9.96282e-06 0.000155975)
(0.000435115 9.79235e-05 0.00013506 0.000131773 3.90263e-05 0.000140653)
(0.000334656 9.29968e-05 6.82085e-05 0.000134851 2.70777e-05 0.000103878)
(0.000356466 0.000101487 0.000114721 0.000140843 5.17159e-05 0.000153874)
(0.00056476 0.000281716 0.000306474 0.000301135 0.000215749 0.000324242)
(0.000618584 0.00031431 0.00040377 0.000315664 0.000284332 0.000463023)
(0.000522669 0.000185177 0.000373872 0.000183061 0.000187956 0.000530518)
(0.00045406 4.40959e-05 0.000316811 0.00011779 -7.94948e-06 0.000500051)
(0.000478982 -6.10315e-05 0.00031673 0.000199193 -0.000151875 0.000448096)
(0.000512192 -0.000126469 0.000288481 0.000282864 -0.000177926 0.000337701)
(0.000411366 -8.64326e-05 0.000134974 0.00031747 -5.98943e-05 0.000154205)
(0.000315336 6.8576e-05 9.14748e-05 0.000293482 0.000117038 0.00019646)
(0.00052339 0.000247884 0.000322911 0.000282557 0.000222863 0.000401574)
(0.000811273 0.000356118 0.000391856 0.000286734 0.000187947 0.000318501)
(0.000564183 0.000227411 0.000117456 0.000219021 2.98901e-05 0.000137882)
(0.000320038 7.81644e-05 9.29312e-05 0.000128842 -8.89079e-06 0.000222303)
(0.000465199 0.00012912 0.000238663 0.000139272 6.97637e-05 0.000276536)
(0.000564693 0.000166753 0.000203631 0.000159391 5.92119e-05 0.000178596)
(0.000487656 0.000165928 9.54592e-05 0.00017742 2.12941e-05 0.000124278)
(0.000384793 0.000157506 6.31841e-05 0.000238377 -7.13566e-06 0.000123835)
(0.000382017 0.000181168 7.69445e-05 0.000358505 8.49434e-07 0.000117733)
(0.000424636 0.000274669 8.94734e-05 0.00054243 2.90577e-05 0.000114061)
(0.00043926 0.000300803 5.18902e-05 0.000557086 -3.33985e-05 0.000115052)
(0.000430781 0.000212691 -1.56763e-05 0.000312139 -0.000111842 0.000195101)
(0.00036878 0.000101188 -1.19378e-05 0.000140002 -2.88977e-05 0.000335212)
(0.000304061 7.09887e-05 7.91424e-05 0.000188625 0.000128126 0.00030073)
(0.000320933 0.000152884 0.000106245 0.000401676 0.000104007 0.000132706)
(0.000361971 0.000227876 2.67884e-05 0.000505044 -0.000117032 0.000153335)
(0.000384778 0.000219416 -4.11012e-05 0.000369284 -0.000187998 0.000286891)
(0.000388448 0.000188712 0.000152357 0.000313509 0.000181832 0.000280179)
(0.00041724 0.000143747 0.000258941 0.000162283 0.000165213 0.000581986)
(0.000449155 0.000123499 0.000295597 0.000130676 0.000108064 0.000607717)
(0.000444704 0.000115056 0.000209485 0.000125952 6.99919e-05 0.000355218)
(0.000400484 0.000103146 0.000125965 0.000119542 4.55336e-05 0.000221752)
(0.000365874 9.44002e-05 9.1549e-05 0.000119035 3.9443e-05 0.000189768)
(0.000358885 8.11751e-05 7.61299e-05 0.000111296 3.00469e-05 0.000187439)
(0.000365387 8.12783e-05 7.12051e-05 0.000112463 9.98035e-06 0.000199019)
(0.000389528 5.97436e-05 0.000106558 0.000126353 -7.16055e-06 0.000214558)
(0.000569153 2.14138e-05 0.000190649 0.000127249 -6.13352e-06 0.000227206)
(0.000858941 6.94577e-05 0.000234374 0.000106203 2.97649e-05 0.000208441)
(0.000800097 0.00023578 0.00015595 0.000165492 6.60779e-05 0.000171046)
(0.000478183 0.000195834 7.99617e-05 0.000384045 2.54e-05 0.000158778)
(0.000563871 -4.2212e-05 0.000172709 0.000269178 -6.51541e-05 0.000226577)
(0.00109491 0.000185492 0.000554502 0.000119526 0.000112659 0.000505118)
(0.001493 0.000707164 0.000855437 0.000480651 0.000509724 0.000743029)
(0.00137033 0.00083741 0.00074837 0.000731823 0.000604408 0.000662633)
(0.000972391 0.000544348 0.000454394 0.000531122 0.000391629 0.000441835)
(0.000715163 0.000256211 0.000235124 0.000226658 0.000157588 0.000263111)
(0.000658631 0.000135733 0.00015619 0.000117242 6.74282e-05 0.000201082)
(0.000605351 8.95496e-05 0.000110303 0.000111825 4.94811e-05 0.000175386)
(0.000504761 9.80266e-05 8.47489e-05 0.00011656 5.266e-05 0.000173745)
(0.000609933 0.000111587 0.000150264 0.000113878 5.45139e-05 0.000204793)
(0.000647781 0.000127225 0.000155764 0.000114217 6.0623e-05 0.000203815)
(0.000509558 0.000125344 8.02849e-05 0.000142384 4.83504e-05 0.000169654)
(0.000535455 5.32139e-05 0.000126387 0.000172738 -8.93016e-06 0.000218703)
(0.000637714 4.9751e-05 0.000181235 0.000133747 4.06127e-06 0.000240726)
(0.000552522 0.000160117 6.94955e-05 0.000150817 3.4136e-05 0.000169007)
(0.000526393 0.000277612 -5.56817e-05 0.000469323 -0.000224735 0.00036316)
(0.000581653 0.000427323 -0.000154401 0.000814022 -0.000443301 0.000502014)
(0.000609622 0.0004263 -6.49053e-05 0.000654027 -0.000184539 0.000257346)
(0.000642103 0.00032803 0.000148973 0.000331378 9.46516e-05 0.000188062)
(0.000617121 0.000275679 0.000305792 0.000253635 0.000189387 0.000365978)
(0.000545077 0.000287955 0.000253898 0.000311881 0.000203449 0.000321622)
(0.000482661 0.000264966 0.000113572 0.00033069 7.40929e-05 0.000169801)
(0.000379779 0.000153056 3.64692e-05 0.000220519 -3.31942e-05 0.000195912)
(0.000334458 7.85151e-05 8.1752e-05 0.000115049 2.75057e-05 0.000222432)
(0.000385135 0.000171692 9.54895e-05 0.000280599 6.0882e-05 0.00016573)
(0.000398219 0.000268031 5.44544e-05 0.000615536 -1.80523e-05 0.000158266)
(0.000381518 0.000246856 7.22241e-05 0.00060556 4.85252e-05 0.000154559)
(0.000500505 0.000124954 0.000102596 0.000179054 9.19366e-06 0.000155223)
(0.000649103 0.000129241 0.000214755 0.000141081 3.84081e-05 0.000218811)
(0.000643101 0.00020368 0.000267931 0.000208257 0.000122709 0.000300557)
(0.000542743 0.000203905 0.000226922 0.000287193 0.000185879 0.000339461)
(0.000507536 0.000186902 0.00021006 0.000279911 0.000185388 0.000354952)
(0.000579367 0.00020205 0.000240805 0.000221236 0.000131188 0.000298965)
(0.00069769 0.00013707 0.00024816 0.000141894 4.52879e-05 0.000238918)
(0.000625578 5.48358e-05 0.000231096 0.000133073 -1.07825e-05 0.000250994)
(0.0004668 5.07583e-05 0.000176999 0.000152778 -5.55348e-05 0.000343103)
(0.000411559 7.78225e-05 0.000118914 0.000156447 -5.46629e-05 0.000394993)
(0.000402533 7.93276e-05 0.000117486 0.000138136 9.06979e-06 0.000216941)
(0.000415843 0.000104122 5.93602e-05 0.000171885 -1.12288e-05 0.000146596)
(0.00039889 0.000102196 5.78402e-05 0.000279304 -9.65449e-05 0.000211197)
(0.000450233 2.80741e-06 0.00013947 0.00022092 -6.2532e-05 0.00019841)
(0.000913092 0.000118277 0.000230225 0.000139263 2.30906e-05 0.000181686)
(0.00149349 0.000587015 0.000329084 0.000374283 0.000130383 0.000199653)
(0.00163636 0.00094312 0.000343267 0.000741709 0.000203914 0.000201181)
(0.00116855 0.000760325 0.000139664 0.000744091 7.58047e-05 0.000146634)
(0.000596026 0.000302463 -2.07567e-05 0.000393804 -8.15405e-05 0.000172882)
(0.000403541 9.61161e-05 -3.60107e-07 0.00017264 -5.74561e-05 0.000260315)
(0.000370489 5.70918e-05 4.71165e-05 0.000139101 -3.30846e-07 0.000313149)
(0.000422956 6.9933e-05 0.000152684 0.000140662 4.2162e-05 0.000286668)
(0.000816709 0.000178025 0.000246913 0.000161908 6.66422e-05 0.000217293)
(0.00116214 0.000306335 0.000199715 0.000207525 5.8386e-05 0.000171865)
(0.00078265 0.000235182 6.45265e-05 0.000209744 1.60223e-05 0.00015024)
(0.000398073 6.70433e-05 5.12557e-05 0.000144249 7.80951e-06 0.000154168)
(0.000380446 5.01551e-05 4.45442e-05 0.000138838 -5.66149e-06 0.000168519)
(0.000356037 4.29372e-05 5.34533e-05 0.000239152 -0.00015227 0.000372368)
(0.000375985 -2.29473e-05 0.000152593 0.000248459 -0.000200197 0.000502937)
(0.000392265 -1.44828e-05 0.000119338 0.000167002 -5.05887e-05 0.000239852)
(0.000356378 2.00043e-05 6.79089e-05 0.000148987 2.23203e-05 0.000160952)
(0.000441531 0.000115681 0.000106626 0.000212699 4.58018e-05 0.000171761)
(0.000685026 0.000325237 0.000146773 0.000401582 6.7575e-05 0.000170016)
(0.000696956 0.000400555 0.000243227 0.00052964 0.000186202 0.000239605)
(0.000493451 0.000200684 0.000272187 0.000332522 0.000264268 0.000473059)
(0.000381712 4.22596e-05 0.000130255 0.000127615 7.70583e-05 0.000641831)
(0.000407278 5.68505e-05 5.6493e-05 0.000210216 -0.000191388 0.000549646)
(0.000424686 5.49033e-05 9.39367e-05 0.000503088 -0.000289724 0.000376717)
(0.000420009 1.15275e-05 0.000108508 0.000610986 -0.000224494 0.000258838)
(0.000416819 8.13468e-05 7.67336e-05 0.000389152 -8.43077e-05 0.000180096)
(0.000610087 0.000229446 4.80862e-08 0.000288122 -5.53949e-05 0.000275136)
(0.000608637 0.000149888 4.01435e-05 0.00016348 1.52075e-05 0.000242161)
(0.000565265 0.000140935 5.45559e-05 0.000177847 3.55868e-05 0.000221003)
(0.00056538 0.000159824 0.000103956 0.000206965 8.66332e-05 0.000247458)
(0.000698203 0.000246483 0.000255253 0.000254536 0.000189905 0.000410101)
(0.0012144 0.000395311 0.000490524 0.000273605 0.000231127 0.000484357)
(0.00174859 0.000293057 0.000522873 0.000177985 0.000113973 0.000392472)
(0.00119599 -8.77771e-06 0.000286426 0.000151168 2.55843e-07 0.000294916)
(0.000530215 -3.09182e-05 8.82461e-05 0.000329492 -8.65232e-05 0.000275291)
(0.00052155 0.000189693 -1.52613e-05 0.000521998 -0.000109679 0.000253536)
(0.000527171 0.000140819 4.88215e-05 0.000323386 4.27272e-05 0.000212397)
(0.000501437 4.32902e-05 4.71522e-05 0.000135688 -2.1298e-06 0.000324502)
(0.000508531 3.69697e-05 4.30803e-05 0.000236838 -0.000119186 0.000348488)
(0.000672815 3.77105e-06 9.92776e-05 0.000135239 -5.02348e-06 0.00023628)
(0.0013375 0.000366898 -8.60071e-05 0.000267182 -4.3875e-05 0.000232748)
(0.00180324 0.000646748 -0.000288815 0.000420214 -0.000150867 0.000301259)
(0.00171273 0.000545015 -0.000166302 0.000343476 -8.44475e-05 0.000251817)
(0.00115921 0.000333602 -4.7914e-05 0.000262461 -3.98841e-05 0.000226906)
(0.000718132 0.00014512 -6.92786e-05 0.000180369 -6.6683e-05 0.000278699)
(0.000616475 7.37135e-05 -0.000105574 0.000129628 -6.34431e-05 0.000543445)
(0.000589522 5.05757e-05 -0.000143971 0.000126672 -1.19509e-06 0.00104386)
(0.000535323 4.95802e-05 0.000134811 0.000130361 0.000104673 0.00111996)
(0.000905391 0.000153146 0.000472267 0.00014097 0.000126789 0.000713703)
(0.00121753 0.000274054 0.000402307 0.000182601 0.000114244 0.000409111)
(0.000782946 0.000192283 0.000208344 0.000192307 7.93787e-05 0.000306089)
(0.000562144 4.45422e-05 3.92402e-05 0.000115005 2.88915e-05 0.000346225)
(0.00079527 0.000106082 -0.000117696 0.000121938 -3.59379e-05 0.000396689)
(0.000908534 0.000162564 -1.92088e-05 0.000133575 -2.32431e-05 0.000253417)
(0.000852305 6.44884e-05 0.000250449 9.73353e-05 1.50421e-05 0.000310938)
(0.000619067 -9.3023e-06 0.000231188 0.000163561 -0.000130199 0.000515173)
(0.000578557 9.65882e-05 7.44441e-05 0.000214151 -8.00128e-05 0.00029019)
(0.000568384 6.24025e-05 0.000110202 0.000131375 4.95053e-05 0.000308068)
(0.000894261 0.000187339 -0.00022671 0.000153878 -0.000120067 0.000593582)
(0.00169526 0.000680649 -0.000287964 0.000421017 -0.000197796 0.000366907)
(0.00170277 0.000730107 0.000370448 0.000469718 0.000163171 0.000286048)
(0.00103973 0.000321824 0.000600151 0.000221366 0.000244368 0.000713968)
(0.000595955 6.69796e-05 0.000278562 0.000130641 -6.39096e-05 0.000692709)
(0.000520898 0.000131102 8.07062e-05 0.000360612 -0.000190124 0.000439097)
(0.000563415 0.000273657 1.44319e-05 0.000639552 -0.000216141 0.000362307)
(0.000602325 0.000326339 -3.13956e-05 0.000596929 -0.00018401 0.000332213)
(0.000683617 0.000136988 4.40281e-05 0.000254378 1.05632e-05 0.000180573)
(0.000634534 3.44147e-05 6.30281e-05 0.000132393 -7.28412e-06 0.00020328)
(0.00059253 3.7203e-05 3.63491e-05 0.000137802 8.25723e-06 0.000245438)
(0.000628903 2.78803e-05 -6.32617e-06 0.000220291 0.000129497 0.000366466)
(0.000656292 0.000144119 0.000124783 0.000344589 0.000226902 0.000423311)
(0.00140374 0.000355782 0.000441653 0.000248158 0.000157531 0.000373754)
(0.00199768 0.000313961 0.000471662 0.000183138 8.36205e-05 0.000297937)
(0.000898934 0.00015095 0.000154249 0.000177278 4.50934e-05 0.000210175)
(0.000917035 6.39746e-05 5.98152e-05 0.000149858 1.88196e-06 0.000161088)
(0.00187352 0.000260954 0.000400649 0.000181204 6.2919e-05 0.000253668)
(0.00221544 0.000266131 0.000750733 0.000167569 0.000106334 0.000454564)
(0.00188201 5.61837e-05 0.00055431 0.000139801 3.26591e-06 0.000344474)
(0.00166928 4.80575e-05 6.41884e-05 0.000148289 -3.59517e-06 0.000146108)
(0.0019222 0.000396184 -0.000406895 0.000241912 -0.00014702 0.000350457)
(0.00235375 0.000781499 -0.000576329 0.000464762 -0.000295081 0.00041841)
(0.00248168 0.000628387 -0.000229437 0.000332045 -0.000100816 0.000208448)
(0.00236252 0.000219728 0.000217943 0.000146109 1.53935e-05 0.000167742)
(0.0019887 8.1603e-05 0.00030489 0.000119392 6.49822e-06 0.000201091)
(0.00169973 8.93215e-05 0.000111575 0.000119882 -4.99502e-07 0.000153097)
(0.0015885 0.000138964 -0.000134698 0.000133584 -2.64052e-05 0.000188759)
(0.00119434 9.23547e-05 -0.000264556 0.000127661 -3.04429e-05 0.000372138)
(0.000775524 6.37518e-05 6.82706e-05 0.000163267 0.000138321 0.000588948)
(0.00139487 0.000436462 0.000506522 0.000346481 0.00028574 0.00053776)
(0.00163268 0.000592812 0.000413959 0.000441899 0.000234551 0.000347372)
(0.000920523 0.000213197 9.93684e-05 0.000249619 6.15619e-05 0.000216538)
(0.000946322 0.000110674 3.08589e-05 0.00013761 1.08588e-06 0.00019268)
(0.00134823 0.000133206 5.15346e-05 0.000138978 3.71511e-06 0.000190918)
(0.00144023 -0.000112688 1.00566e-05 0.000194124 4.13359e-06 0.000191295)
(0.00137668 -0.000370755 5.26363e-05 0.000487223 -1.53186e-05 0.000200158)
(0.0010563 -0.000268492 0.000112984 0.000646699 -9.45878e-05 0.000221862)
(0.000843306 -1.98685e-05 0.000121508 0.000345157 -0.000109003 0.000270272)
(0.000787601 5.86291e-05 9.76368e-05 0.00015469 -1.86725e-05 0.000238314)
(0.000849191 0.000101387 1.76242e-05 0.000148204 -2.85485e-06 0.000190643)
(0.00116429 0.000247 -0.000253806 0.000217839 -0.000115659 0.000381446)
(0.0011532 0.000211966 -0.000346869 0.000201199 -0.000146891 0.000520078)
(0.000758906 5.51266e-05 -0.000102015 0.000143758 -5.18417e-05 0.000465403)
(0.000685064 5.06396e-05 0.000139216 0.000156878 5.1993e-05 0.000379704)
(0.000792987 0.000236296 0.000126951 0.000389553 8.18466e-05 0.000217015)
(0.000755775 0.00036469 -4.20524e-06 0.000894574 -0.000134413 0.000207)
(0.000709896 0.00029866 -1.06634e-05 0.000807014 -0.000128291 0.000201199)
(0.00108897 0.000243748 9.27518e-05 0.000300804 5.16052e-05 0.000196874)
(0.000705597 4.64531e-05 4.64872e-05 0.000226194 5.19695e-05 0.000194374)
(0.000775368 -0.000113461 -8.68529e-05 0.000332584 0.00013303 0.000256085)
(0.000679085 -8.80057e-05 -6.05344e-05 0.000500854 0.000287678 0.00040882)
(0.00100891 0.000306885 0.000304768 0.00046705 0.000253969 0.000390097)
(0.00209813 0.000387535 0.000527586 0.00028033 0.000150704 0.000330862)
(0.00153836 0.000350535 0.000336364 0.000313687 0.00015002 0.000265219)
(0.000733789 6.516e-05 6.55765e-05 0.000364429 0.000105118 0.000187613)
(0.000795643 -5.59253e-05 5.15704e-05 0.000210108 2.71305e-06 0.00015153)
(0.00119079 0.000196272 0.000393293 0.000304702 0.000173592 0.000407613)
(0.00170876 0.000528242 0.000897736 0.000496085 0.00049791 0.000887017)
(0.00176688 0.000529901 0.000647457 0.000454425 0.000337873 0.000506074)
(0.00149036 0.000385651 -3.28318e-05 0.000387486 -3.35442e-05 0.000153992)
(0.00141079 0.000366383 -0.000431491 0.000385777 -0.000286897 0.000533048)
(0.0015649 0.000339283 -0.000466147 0.000315777 -0.000233226 0.000524598)
(0.0019031 0.000178761 -0.000148925 0.000202582 -2.42883e-05 0.000195081)
(0.00233064 -0.00010724 0.000331117 0.000176541 -1.24298e-05 0.000217176)
(0.00235714 -0.000272297 0.000506586 0.000198442 -6.97381e-05 0.00030682)
(0.00214189 -0.000338895 0.000347859 0.000226252 -6.84794e-05 0.000232621)
(0.00187144 -0.000262421 6.76968e-05 0.000212697 -1.26557e-05 0.000164483)
(0.00135873 -0.000150254 -0.00010585 0.000198756 2.16498e-05 0.000201613)
(0.00083239 -3.66853e-05 -1.23367e-06 0.000210848 5.72429e-05 0.000251546)
(0.00121085 0.000204664 0.000108012 0.000292094 4.75918e-05 0.000203119)
(0.00155432 0.000446813 -4.90092e-05 0.000450883 -3.75344e-05 0.000185477)
(0.00101023 0.000223863 -9.23364e-05 0.000413003 -0.000106031 0.000231338)
(0.000842191 -5.12437e-05 7.50995e-05 0.000228555 -3.27545e-05 0.000224911)
(0.00131022 -0.000169631 -1.21944e-05 0.000240703 9.73651e-06 0.000191169)
(0.00165928 -0.00047286 -0.000236414 0.000414897 0.000111903 0.000255583)
(0.00169277 -0.000642376 -0.000121208 0.00060488 6.28449e-05 0.000213222)
(0.00144485 -0.000412212 0.000270509 0.000418562 -0.000181667 0.000340679)
(0.00114645 -0.00010114 0.000460552 0.000187012 -8.37349e-05 0.000790295)
(0.000948514 -1.47231e-05 0.000300826 0.000174143 4.54066e-05 0.000734995)
(0.000876524 -2.61945e-05 5.88364e-05 0.000177354 1.764e-05 0.000260091)
(0.00090225 2.2374e-05 -0.000126287 0.00019524 -4.50092e-05 0.000295152)
(0.00079443 1.08724e-05 -0.000126256 0.000251623 -0.000210312 0.000701837)
(0.000763118 -5.96345e-05 9.24659e-05 0.000208837 -0.000156644 0.000700458)
(0.000840508 2.63932e-05 0.000153439 0.00015929 6.79574e-05 0.000397982)
(0.000793351 0.000208032 5.037e-06 0.000582588 4.36991e-05 0.000176673)
(0.000825489 0.000353754 -5.90485e-05 0.00113 -0.000171131 0.00021062)
(0.00103507 0.000460092 -9.94885e-06 0.000772946 -2.68028e-05 0.000188282)
(0.000768455 0.000140814 7.23397e-05 0.00028943 3.62246e-05 0.000247582)
(0.000588305 9.30658e-05 6.56733e-05 0.000398332 9.73728e-05 0.000234632)
(0.000524765 -1.76449e-05 3.56542e-05 0.000534763 0.000294866 0.000411895)
(0.00054477 4.34713e-05 0.000128891 0.000479938 0.000414182 0.000738134)
(0.0009715 0.000255246 0.000345785 0.000344604 0.00022895 0.000505753)
(0.0017307 0.000347421 0.000277707 0.000266583 9.53787e-05 0.000264942)
(0.00169536 0.000410344 0.000198252 0.000342723 9.15941e-05 0.0002107)
(0.00131942 0.000193821 0.000237777 0.000279765 9.40759e-05 0.000244404)
(0.00112394 -8.65475e-05 0.000132257 0.000184621 -8.53796e-07 0.000197283)
(0.000843585 -0.000138485 -7.87847e-05 0.000224222 9.85139e-05 0.000445742)
(0.000816722 2.64677e-05 0.000283687 0.000327856 0.00034526 0.000986476)
(0.000973372 0.000199727 0.000356428 0.000483278 0.000295003 0.000494038)
(0.000838206 0.000160823 8.8574e-05 0.000625603 -0.000138243 0.000282099)
(0.000772679 9.70288e-05 1.84722e-06 0.000605155 -0.000425193 0.000681392)
(0.00092972 0.000141237 -0.000164885 0.00035019 -0.00024748 0.000653103)
(0.00145254 3.37488e-05 -0.000151597 0.000214296 -1.22883e-05 0.000358286)
(0.00183671 -0.000167056 6.98833e-05 0.000245368 2.6509e-05 0.000249106)
(0.00153161 -0.000199152 0.000188776 0.000278576 5.90128e-06 0.000247863)
(0.00111671 -0.000142337 0.00019479 0.000304443 -2.77996e-05 0.000250138)
(0.000912268 -5.12576e-05 0.000150278 0.000254616 -2.8663e-05 0.000240404)
(0.000749082 -8.12125e-06 0.00013938 0.000219268 -1.33376e-05 0.000244724)
(0.000635359 6.2249e-05 9.09569e-05 0.000239917 -8.87904e-06 0.000251651)
(0.000909176 0.000276604 -4.05113e-05 0.000373527 -7.23259e-05 0.000298822)
(0.00101052 0.000468416 -0.00011837 0.000626638 -0.000152528 0.000326501)
(0.000622906 0.000198914 -2.09449e-05 0.000542235 -0.000124043 0.000297174)
(0.000625095 -8.26624e-05 0.000101499 0.000291851 -3.49527e-05 0.000258287)
(0.00101489 -0.000204133 6.57347e-05 0.000291432 3.12802e-05 0.000234031)
(0.00104629 -0.000328479 -3.14701e-05 0.000407967 9.8737e-05 0.000250021)
(0.000915736 -0.000318395 9.75386e-05 0.000487741 -2.73948e-05 0.000247117)
(0.000932718 -0.000228395 0.000396089 0.000383885 -0.00025221 0.00060604)
(0.000947778 -8.27958e-05 0.000632462 0.000223439 -0.000147388 0.00118592)
(0.000789214 5.87711e-06 0.000467617 0.00019543 -1.32789e-05 0.00103249)
(0.000571294 3.10941e-05 7.83595e-05 0.000190366 1.6502e-05 0.000327538)
(0.000635473 2.82933e-06 0.000133451 0.000190964 -3.60752e-05 0.000454928)
(0.00071254 -8.57086e-05 0.000347681 0.000226325 -0.000184095 0.000957266)
(0.000622672 -3.05653e-05 0.000216419 0.000215829 -7.68232e-05 0.000680497)