/*--------------------------------*- C++ -*----------------------------------*\
  =========                 |
  \\      /  F ield         | OpenFOAM: The Open Source CFD Toolbox
   \\    /   O peration     | Website:  https://openfoam.org
    \\  /    A nd           | Version:  10
     \\/     M anipulation  |
\*---------------------------------------------------------------------------*/
FoamFile
{
    format      ascii;
    class       volTensorField;
    location    "20";
    object      TauNN;
}
// * * * * * * * * * * * * * * * * * * * * * * * * * * * * * * * * * * * * * //

dimensions      [0 2 -2 0 0 0 0];

internalField   nonuniform List<tensor> 
25600
(
(0.00145425 -0.0129829 -0.0151391 -0.0129829 0.000161921 -0.00815433 -0.0151391 -0.00815433 0.000113634)
(0.00150236 -0.012979 -0.0151316 -0.012979 0.000158424 -0.0081516 -0.0151316 -0.0081516 0.000115766)
(0.00149591 -0.012974 -0.0151325 -0.012974 0.000156586 -0.00814815 -0.0151325 -0.00814815 0.000119147)
(0.0014866 -0.0129799 -0.0151347 -0.0129799 0.000159601 -0.0081522 -0.0151347 -0.0081522 0.000115254)
(0.00148687 -0.0129785 -0.0151358 -0.0129785 0.000159339 -0.00815123 -0.0151358 -0.00815123 0.000116071)
(0.00146969 -0.0129727 -0.0151376 -0.0129727 0.00015821 -0.00814783 -0.0151376 -0.00814783 0.000117562)
(0.0014856 -0.0129764 -0.0151339 -0.0129764 0.000158179 -0.00814989 -0.0151339 -0.00814989 0.000117075)
(0.001467 -0.012978 -0.0151394 -0.012978 0.000160183 -0.00815105 -0.0151394 -0.00815105 0.00011646)
(0.00148132 -0.0129791 -0.0151351 -0.0129791 0.000159537 -0.00815177 -0.0151351 -0.00815177 0.000115471)
(0.00147838 -0.0129806 -0.0151359 -0.0129806 0.0001602 -0.00815268 -0.0151359 -0.00815268 0.000114929)
(0.00148783 -0.0129809 -0.0151353 -0.0129809 0.00016006 -0.00815285 -0.0151353 -0.00815285 0.000114692)
(0.00146099 -0.0129719 -0.0151407 -0.0129719 0.00015905 -0.00814756 -0.0151407 -0.00814756 0.000116841)
(0.00145797 -0.0129755 -0.0151393 -0.0129755 0.000159681 -0.00814966 -0.0151393 -0.00814966 0.000116707)
(0.00147814 -0.0129829 -0.0151357 -0.0129829 0.000160845 -0.00815418 -0.0151357 -0.00815418 0.000113882)
(0.00146166 -0.0129761 -0.0151405 -0.0129761 0.000160333 -0.00815019 -0.0151405 -0.00815019 0.000115581)
(0.00141115 -0.012975 -0.0151528 -0.012975 0.000163536 -0.00815001 -0.0151528 -0.00815001 0.000115844)
(0.00145021 -0.0129831 -0.0151391 -0.0129831 0.000162007 -0.00815448 -0.0151391 -0.00815448 0.000113498)
(0.00145161 -0.0129804 -0.0151404 -0.0129804 0.000161679 -0.00815286 -0.0151404 -0.00815286 0.000114106)
(0.00147198 -0.0129784 -0.0151353 -0.0129784 0.000159673 -0.00815141 -0.0151353 -0.00815141 0.000114794)
(0.00148939 -0.0129818 -0.0151341 -0.0129818 0.000160119 -0.00815347 -0.0151341 -0.00815347 0.000113988)
(0.00149103 -0.0129777 -0.0151346 -0.0129777 0.00015872 -0.00815074 -0.0151346 -0.00815074 0.000116548)
(0.0014813 -0.0129783 -0.0151353 -0.0129783 0.000159303 -0.0081512 -0.0151353 -0.0081512 0.00011591)
(0.00148821 -0.0129819 -0.0151347 -0.0129819 0.000160193 -0.00815346 -0.0151347 -0.00815346 0.000114392)
(0.00149479 -0.0129776 -0.0151335 -0.0129776 0.000158541 -0.00815073 -0.0151335 -0.00815073 0.000115956)
(0.00145942 -0.0129769 -0.0151413 -0.0129769 0.000160693 -0.0081506 -0.0151413 -0.0081506 0.000115574)
(0.00146984 -0.0129786 -0.0151373 -0.0129786 0.000160156 -0.00815156 -0.0151373 -0.00815156 0.000115107)
(0.00148023 -0.0129797 -0.0151358 -0.0129797 0.000159837 -0.00815204 -0.0151358 -0.00815204 0.000115442)
(0.00147641 -0.0129812 -0.0151369 -0.0129812 0.000160565 -0.00815307 -0.0151369 -0.00815307 0.000114928)
(0.0014847 -0.0129808 -0.0151353 -0.0129808 0.000160145 -0.00815285 -0.0151353 -0.00815285 0.000114461)
(0.00149005 -0.0129761 -0.0151332 -0.0129761 0.000157916 -0.0081497 -0.0151332 -0.0081497 0.000116984)
(0.00149804 -0.0129755 -0.0151323 -0.0129755 0.000157133 -0.00814915 -0.0151323 -0.00814915 0.00011823)
(0.00146066 -0.012976 -0.0151428 -0.012976 0.000160611 -0.00815 -0.0151428 -0.00815 0.000116498)
(0.00144614 -0.0129757 -0.015142 -0.0129757 0.000160826 -0.00815007 -0.015142 -0.00815007 0.000115496)
(0.00149528 -0.012981 -0.0151328 -0.012981 0.000159489 -0.00815295 -0.0151328 -0.00815295 0.000114585)
(0.00148262 -0.0129752 -0.0151359 -0.0129752 0.000158351 -0.00814921 -0.0151359 -0.00814921 0.000117203)
(0.00145354 -0.0129715 -0.0151414 -0.0129715 0.000159047 -0.00814726 -0.0151414 -0.00814726 0.000117372)
(0.00148408 -0.0129815 -0.0151349 -0.0129815 0.000160186 -0.00815321 -0.0151349 -0.00815321 0.000114562)
(0.00150271 -0.0129787 -0.0151335 -0.0129787 0.000158424 -0.00815121 -0.0151335 -0.00815121 0.000117248)
(0.00149219 -0.0129756 -0.0151345 -0.0129756 0.00015778 -0.0081493 -0.0151345 -0.0081493 0.000118162)
(0.00146908 -0.0129783 -0.0151399 -0.0129783 0.000160495 -0.00815137 -0.0151399 -0.00815137 0.000116028)
(6.52904e-05 -0.0128008 -0.0154296 -0.0128008 3.39615e-05 -0.00811417 -0.0154296 -0.00811417 7.47604e-05)
(1.05765e-05 -0.0128059 -0.0154444 -0.0128059 4.53085e-05 -0.00811331 -0.0154444 -0.00811331 7.17601e-05)
(2.4733e-05 -0.012794 -0.0154361 -0.012794 2.42134e-05 -0.00812536 -0.0154361 -0.00812536 4.73451e-05)
(5.96843e-05 -0.0127961 -0.0154241 -0.0127961 2.30343e-05 -0.00812716 -0.0154241 -0.00812716 6.15858e-05)
(0.00021505 -0.0128313 -0.015424 -0.0128313 0.000120445 -0.00814577 -0.015424 -0.00814577 3.60646e-05)
(0.000108308 -0.0128175 -0.0154207 -0.0128175 8.68174e-05 -0.00815214 -0.0154207 -0.00815214 4.90251e-05)
(0.000108435 -0.0128153 -0.0154224 -0.0128153 8.05935e-05 -0.00814825 -0.0154224 -0.00814825 4.21656e-05)
(8.6834e-05 -0.0128182 -0.0154254 -0.0128182 6.35848e-05 -0.0081376 -0.0154254 -0.0081376 2.61995e-05)
(4.66978e-05 -0.0128493 -0.0153931 -0.0128493 0.000110066 -0.0081163 -0.0153931 -0.0081163 9.2696e-05)
(-9.2646e-05 -0.0128399 -0.0154248 -0.0128399 0.000114898 -0.00811392 -0.0154248 -0.00811392 8.53776e-05)
(4.35895e-05 -0.0127982 -0.0154368 -0.0127982 2.35305e-05 -0.00812095 -0.0154368 -0.00812095 5.62038e-05)
(0.000109666 -0.0128087 -0.0154173 -0.0128087 6.95876e-05 -0.00815242 -0.0154173 -0.00815242 8.0802e-05)
(0.000430476 -0.0128621 -0.0153093 -0.0128621 0.000110031 -0.00812841 -0.0153093 -0.00812841 0.000105584)
(0.00017041 -0.0128536 -0.0153681 -0.0128536 0.000104931 -0.00812027 -0.0153681 -0.00812027 9.87463e-05)
(0.000288085 -0.0128343 -0.0154269 -0.0128343 0.000126947 -0.00814618 -0.0154269 -0.00814618 3.18919e-05)
(0.0001899 -0.0128486 -0.0154264 -0.0128486 0.00013279 -0.00815037 -0.0154264 -0.00815037 3.22453e-05)
(0.000148194 -0.0128528 -0.0153925 -0.0128528 9.84591e-05 -0.00811293 -0.0153925 -0.00811293 9.6145e-05)
(5.91093e-05 -0.0128038 -0.0154326 -0.0128038 2.97378e-05 -0.00811752 -0.0154326 -0.00811752 6.42666e-05)
(3.10511e-05 -0.0128057 -0.0154403 -0.0128057 5.46708e-05 -0.00810359 -0.0154403 -0.00810359 9.06405e-05)
(-0.000100813 -0.0128372 -0.0154381 -0.0128372 0.000105947 -0.00810799 -0.0154381 -0.00810799 8.62956e-05)
(6.12431e-05 -0.0127967 -0.01543 -0.0127967 2.83648e-05 -0.00813176 -0.01543 -0.00813176 3.79713e-05)
(4.10389e-05 -0.0127987 -0.0154327 -0.0127987 3.30056e-05 -0.0081158 -0.0154327 -0.0081158 6.78398e-05)
(-5.30118e-05 -0.0128133 -0.015455 -0.0128133 7.24704e-05 -0.0081102 -0.015455 -0.0081102 7.36924e-05)
(2.85371e-05 -0.0127947 -0.0154344 -0.0127947 2.33716e-05 -0.00811918 -0.0154344 -0.00811918 6.74232e-05)
(6.69914e-05 -0.0128017 -0.0154275 -0.0128017 2.8746e-05 -0.00812003 -0.0154275 -0.00812003 7.63631e-05)
(-9.86323e-05 -0.0128352 -0.0154446 -0.0128352 0.000103482 -0.00810426 -0.0154446 -0.00810426 8.66009e-05)
(4.09225e-05 -0.0128001 -0.0154349 -0.0128001 3.34099e-05 -0.00811453 -0.0154349 -0.00811453 7.21499e-05)
(9.1154e-05 -0.0128135 -0.0154229 -0.0128135 5.47481e-05 -0.00813794 -0.0154229 -0.00813794 4.37967e-05)
(-4.46305e-05 -0.0128124 -0.0154547 -0.0128124 6.76364e-05 -0.00810923 -0.0154547 -0.00810923 7.39954e-05)
(0.000107462 -0.0128079 -0.0154233 -0.0128079 6.87355e-05 -0.00814597 -0.0154233 -0.00814597 4.74982e-05)
(7.97262e-05 -0.0127999 -0.0154277 -0.0127999 4.4173e-05 -0.008137 -0.0154277 -0.008137 3.92009e-05)
(0.000454664 -0.0128537 -0.0154382 -0.0128537 0.000120161 -0.00814296 -0.0154382 -0.00814296 2.62548e-05)
(8.26761e-05 -0.012798 -0.015416 -0.012798 2.63752e-05 -0.00811975 -0.015416 -0.00811975 7.27025e-05)
(3.82625e-05 -0.0128479 -0.0153986 -0.0128479 0.000109313 -0.00811748 -0.0153986 -0.00811748 9.36174e-05)
(0.000102898 -0.012797 -0.0154267 -0.012797 6.68054e-05 -0.00814481 -0.0154267 -0.00814481 4.22386e-05)
(0.000219596 -0.0128396 -0.0154109 -0.0128396 0.000131028 -0.00814642 -0.0154109 -0.00814642 5.16022e-05)
(0.000145004 -0.0128418 -0.0154161 -0.0128418 0.000120047 -0.00814933 -0.0154161 -0.00814933 4.60964e-05)
(0.000160658 -0.0128276 -0.0154343 -0.0128276 0.000114826 -0.00814243 -0.0154343 -0.00814243 3.07301e-05)
(-3.94763e-05 -0.0128108 -0.0154519 -0.0128108 5.74198e-05 -0.00812541 -0.0154519 -0.00812541 5.34772e-05)
(3.48406e-05 -0.0127997 -0.0154387 -0.0127997 3.27542e-05 -0.00811756 -0.0154387 -0.00811756 5.65131e-05)
(-8.81545e-05 -0.0128142 -0.0154612 -0.0128142 8.35593e-05 -0.00809835 -0.0154612 -0.00809835 9.00819e-05)
(0.000252638 -0.0128371 -0.0154158 -0.0128371 0.000127968 -0.00814482 -0.0154158 -0.00814482 4.28161e-05)
(3.80767e-06 -0.0127976 -0.0154409 -0.0127976 3.35477e-05 -0.00812502 -0.0154409 -0.00812502 5.00727e-05)
(0.00010114 -0.0128038 -0.015418 -0.0128038 6.84826e-05 -0.00815053 -0.015418 -0.00815053 7.46561e-05)
(0.000151933 -0.0128183 -0.0154154 -0.0128183 0.000106305 -0.00814883 -0.0154154 -0.00814883 5.354e-05)
(0.000102272 -0.0128115 -0.0154167 -0.0128115 6.17939e-05 -0.00815052 -0.0154167 -0.00815052 7.66383e-05)
(8.87933e-05 -0.0128084 -0.0154236 -0.0128084 6.13243e-05 -0.0081471 -0.0154236 -0.0081471 4.41269e-05)
(-2.06074e-05 -0.0128147 -0.0154551 -0.0128147 8.25825e-05 -0.00812179 -0.0154551 -0.00812179 6.27337e-05)
(-6.98904e-05 -0.0128426 -0.0154431 -0.0128426 0.000105031 -0.00810746 -0.0154431 -0.00810746 8.42294e-05)
(0.0001459 -0.0128567 -0.0153554 -0.0128567 0.000111227 -0.0081219 -0.0153554 -0.0081219 0.000100738)
(-1.04942e-05 -0.012802 -0.0154442 -0.012802 3.57023e-05 -0.00811604 -0.0154442 -0.00811604 6.4976e-05)
(0.000106579 -0.0128053 -0.0154137 -0.0128053 3.35081e-05 -0.00813179 -0.0154137 -0.00813179 0.000106291)
(0.000437894 -0.0128587 -0.0153108 -0.0128587 0.000102507 -0.00812557 -0.0153108 -0.00812557 0.000103511)
(-7.29499e-05 -0.0128513 -0.0153985 -0.0128513 0.000115791 -0.00811744 -0.0153985 -0.00811744 9.17292e-05)
(5.3383e-05 -0.0127898 -0.0154319 -0.0127898 2.18499e-05 -0.00812752 -0.0154319 -0.00812752 6.86623e-05)
(1.50177e-05 -0.0127977 -0.0154359 -0.0127977 6.12216e-05 -0.00811086 -0.0154359 -0.00811086 7.67854e-05)
(0.000274087 -0.0128465 -0.015364 -0.0128465 0.000106567 -0.00811843 -0.015364 -0.00811843 9.55034e-05)
(-7.84058e-05 -0.012817 -0.0154565 -0.012817 7.38389e-05 -0.00810434 -0.0154565 -0.00810434 8.09159e-05)
(-0.000100059 -0.0128162 -0.0154641 -0.0128162 9.04319e-05 -0.00809557 -0.0154641 -0.00809557 8.97314e-05)
(-0.000111147 -0.0128169 -0.0154588 -0.0128169 8.28713e-05 -0.00810175 -0.0154588 -0.00810175 8.38983e-05)
(8.2789e-05 -0.012802 -0.0154285 -0.012802 5.4598e-05 -0.0081364 -0.0154285 -0.0081364 3.18347e-05)
(9.91545e-06 -0.0127968 -0.0154327 -0.0127968 4.30272e-05 -0.00811383 -0.0154327 -0.00811383 7.48433e-05)
(4.05622e-05 -0.0127906 -0.0154259 -0.0127906 2.1314e-05 -0.00812805 -0.0154259 -0.00812805 5.13348e-05)
(-2.46827e-05 -0.0128051 -0.0154463 -0.0128051 4.73289e-05 -0.00810857 -0.0154463 -0.00810857 8.23956e-05)
(-3.30318e-05 -0.012812 -0.0154555 -0.012812 7.25294e-05 -0.00809911 -0.0154555 -0.00809911 9.204e-05)
(0.000210787 -0.0128487 -0.0153707 -0.0128487 9.84648e-05 -0.00811425 -0.0153707 -0.00811425 9.69334e-05)
(-1.11158e-05 -0.0128038 -0.0154437 -0.0128038 4.38211e-05 -0.00810988 -0.0154437 -0.00810988 7.81419e-05)
(0.000123476 -0.0128264 -0.0154208 -0.0128264 0.000102981 -0.00814853 -0.0154208 -0.00814853 3.99931e-05)
(-1.93081e-05 -0.0128043 -0.0154456 -0.0128043 5.14641e-05 -0.00811046 -0.0154456 -0.00811046 7.45467e-05)
(0.000196435 -0.0128244 -0.0154244 -0.0128244 0.000121304 -0.00814762 -0.0154244 -0.00814762 3.42268e-05)
(0.000110836 -0.0128066 -0.0154261 -0.0128066 8.1432e-05 -0.0081422 -0.0154261 -0.0081422 3.41936e-05)
(0.000215335 -0.0128412 -0.0154262 -0.0128412 0.000129488 -0.0081483 -0.0154262 -0.0081483 3.12872e-05)
(1.59107e-06 -0.0128246 -0.0154438 -0.0128246 0.000105008 -0.00810567 -0.0154438 -0.00810567 8.27005e-05)
(-6.30004e-05 -0.012813 -0.0154512 -0.012813 6.98454e-05 -0.00811423 -0.0154512 -0.00811423 6.84701e-05)
(7.78264e-06 -0.012796 -0.0154385 -0.012796 2.60794e-05 -0.00812013 -0.0154385 -0.00812013 5.55209e-05)
(5.54652e-05 -0.0127947 -0.0154194 -0.0127947 2.97131e-05 -0.00812572 -0.0154194 -0.00812572 0.000113351)
(0.000408172 -0.0128559 -0.0154223 -0.0128559 0.000125126 -0.00814285 -0.0154223 -0.00814285 3.84768e-05)
(0.000676233 -0.0128625 -0.0154483 -0.0128625 0.000112922 -0.00814206 -0.0154483 -0.00814206 4.5221e-05)
(-4.45172e-06 -0.0128092 -0.0154591 -0.0128092 6.00348e-05 -0.00813294 -0.0154591 -0.00813294 5.80924e-05)
(-5.93339e-05 -0.0128338 -0.0154532 -0.0128338 9.83448e-05 -0.00810945 -0.0154532 -0.00810945 8.13575e-05)
(-0.00015973 -0.012819 -0.0154666 -0.012819 9.39613e-05 -0.00809741 -0.0154666 -0.00809741 8.80808e-05)
(0.000488343 -0.0128517 -0.0154225 -0.0128517 0.00012181 -0.00814013 -0.0154225 -0.00814013 3.77678e-05)
(4.677e-05 -0.0127918 -0.0154294 -0.0127918 2.28097e-05 -0.00813117 -0.0154294 -0.00813117 4.15683e-05)
(8.48965e-05 -0.0127967 -0.0154188 -0.0127967 4.11201e-05 -0.00814598 -0.0154188 -0.00814598 0.000120315)
(-9.00439e-05 -0.0128159 -0.015458 -0.0128159 7.48659e-05 -0.00810142 -0.015458 -0.00810142 8.70718e-05)
(0.000104349 -0.0128069 -0.0154137 -0.0128069 5.27836e-05 -0.0081498 -0.0154137 -0.0081498 0.000102299)
(4.09325e-05 -0.0127969 -0.0154278 -0.0127969 3.80307e-05 -0.00811566 -0.0154278 -0.00811566 7.3053e-05)
(-5.40285e-05 -0.0128273 -0.0154488 -0.0128273 0.000107535 -0.00812056 -0.0154488 -0.00812056 7.28331e-05)
(7.87245e-05 -0.012804 -0.0154264 -0.012804 2.53039e-05 -0.00812524 -0.0154264 -0.00812524 4.70077e-05)
(-7.78557e-05 -0.0128232 -0.0154582 -0.0128232 8.25729e-05 -0.00810996 -0.0154582 -0.00810996 7.09504e-05)
(-0.00012883 -0.0128227 -0.0154553 -0.0128227 7.47253e-05 -0.00811259 -0.0154553 -0.00811259 7.01477e-05)
(7.45176e-05 -0.0127961 -0.0154157 -0.0127961 2.5477e-05 -0.00812382 -0.0154157 -0.00812382 8.14261e-05)
(0.000136839 -0.0128368 -0.0153965 -0.0128368 0.000119977 -0.00815089 -0.0153965 -0.00815089 8.57628e-05)
(3.49368e-05 -0.0127869 -0.0154301 -0.0127869 1.90884e-05 -0.00812829 -0.0154301 -0.00812829 5.42322e-05)
(-0.000131052 -0.0128251 -0.0154592 -0.0128251 8.06403e-05 -0.00810481 -0.0154592 -0.00810481 8.08463e-05)
(-1.77411e-06 -0.0128235 -0.0154456 -0.0128235 0.000103181 -0.00810784 -0.0154456 -0.00810784 8.31877e-05)
(-0.000128697 -0.0128077 -0.0154497 -0.0128077 8.6202e-05 -0.00810208 -0.0154497 -0.00810208 8.69279e-05)
(-0.000137344 -0.0128205 -0.0154578 -0.0128205 8.47245e-05 -0.00810457 -0.0154578 -0.00810457 8.11743e-05)
(-9.52832e-05 -0.0128168 -0.0154656 -0.0128168 8.8449e-05 -0.0080955 -0.0154656 -0.0080955 9.14583e-05)
(2.5454e-05 -0.0127979 -0.0154322 -0.0127979 3.1209e-05 -0.00811313 -0.0154322 -0.00811313 9.60339e-05)
(4.26628e-05 -0.0127936 -0.0154339 -0.0127936 1.97691e-05 -0.00812648 -0.0154339 -0.00812648 4.36536e-05)
(-7.7308e-05 -0.0128092 -0.0154486 -0.0128092 7.64829e-05 -0.00811136 -0.0154486 -0.00811136 7.74111e-05)
(2.58023e-05 -0.012788 -0.0154259 -0.012788 2.41193e-05 -0.00812826 -0.0154259 -0.00812826 5.03474e-05)
(-0.000105692 -0.0128133 -0.0154546 -0.0128133 7.32922e-05 -0.00810351 -0.0154546 -0.00810351 8.72588e-05)
(3.40903e-05 -0.012794 -0.0154229 -0.012794 3.44002e-05 -0.00811295 -0.0154229 -0.00811295 9.84215e-05)
(-0.000128665 -0.012825 -0.0154547 -0.012825 0.000101835 -0.00810116 -0.0154547 -0.00810116 8.5474e-05)
(3.42211e-05 -0.0127896 -0.015429 -0.0127896 2.17256e-05 -0.008124 -0.015429 -0.008124 7.79588e-05)
(7.41487e-05 -0.0128034 -0.0154227 -0.0128034 3.88749e-05 -0.00813902 -0.0154227 -0.00813902 5.03819e-05)
(4.13289e-05 -0.0127912 -0.0154231 -0.0127912 2.23379e-05 -0.00812462 -0.0154231 -0.00812462 7.37633e-05)
(0.000435216 -0.0128456 -0.0154363 -0.0128456 0.000119749 -0.00814128 -0.0154363 -0.00814128 2.35305e-05)
(9.35658e-05 -0.0128028 -0.0154256 -0.0128028 5.5259e-05 -0.00813998 -0.0154256 -0.00813998 4.32229e-05)
(-1.63247e-05 -0.0128082 -0.0154503 -0.0128082 6.89472e-05 -0.00810151 -0.0154503 -0.00810151 8.61555e-05)
(0.000109958 -0.0128316 -0.0154301 -0.0128316 0.000100272 -0.00810721 -0.0154301 -0.00810721 8.65206e-05)
(5.86998e-05 -0.0127942 -0.0154256 -0.0127942 3.28506e-05 -0.00813786 -0.0154256 -0.00813786 4.39899e-05)
(-9.15321e-05 -0.0128229 -0.0154545 -0.0128229 6.95299e-05 -0.00811458 -0.0154545 -0.00811458 6.5992e-05)
(-0.000150675 -0.0128185 -0.0154645 -0.0128185 8.53893e-05 -0.00809735 -0.0154645 -0.00809735 9.29232e-05)
(0.000103901 -0.0128032 -0.0154126 -0.0128032 6.3057e-05 -0.00815283 -0.0154126 -0.00815283 0.000107713)
(0.000349383 -0.0128574 -0.01544 -0.0128574 0.000124175 -0.00814437 -0.01544 -0.00814437 2.79982e-05)
(5.79999e-05 -0.0128014 -0.0154633 -0.0128014 4.74559e-05 -0.00813588 -0.0154633 -0.00813588 6.46805e-05)
(-4.05703e-05 -0.0128229 -0.0154537 -0.0128229 9.50439e-05 -0.0081126 -0.0154537 -0.0081126 7.77686e-05)
(-0.000134229 -0.0128151 -0.0154589 -0.0128151 7.25259e-05 -0.00810208 -0.0154589 -0.00810208 9.27678e-05)
(0.000189515 -0.0128222 -0.0154194 -0.0128222 0.000119134 -0.00814814 -0.0154194 -0.00814814 4.10003e-05)
(8.87756e-05 -0.012814 -0.0154271 -0.012814 7.07305e-05 -0.00814338 -0.0154271 -0.00814338 3.34206e-05)
(1.13488e-05 -0.0128018 -0.0154363 -0.0128018 4.1362e-05 -0.00811074 -0.0154363 -0.00811074 0.000111197)
(-0.00010759 -0.0128357 -0.0154315 -0.0128357 0.000107805 -0.00810717 -0.0154315 -0.00810717 8.84398e-05)
(-0.000120374 -0.0128152 -0.0154598 -0.0128152 8.42337e-05 -0.00809979 -0.0154598 -0.00809979 8.9028e-05)
(-2.97329e-05 -0.0128076 -0.0154476 -0.0128076 7.36881e-05 -0.00810689 -0.0154476 -0.00810689 8.31984e-05)
(6.88655e-05 -0.0128002 -0.015422 -0.0128002 2.98014e-05 -0.00813483 -0.015422 -0.00813483 4.2266e-05)
(6.43785e-05 -0.0127962 -0.0154204 -0.0127962 2.84e-05 -0.00813463 -0.0154204 -0.00813463 4.975e-05)
(6.52721e-05 -0.0127991 -0.015428 -0.0127991 3.44075e-05 -0.00813556 -0.015428 -0.00813556 3.63826e-05)
(-3.5908e-05 -0.0128019 -0.0154418 -0.0128019 3.92805e-05 -0.00811217 -0.0154418 -0.00811217 7.5547e-05)
(-0.000146965 -0.0128245 -0.0154533 -0.0128245 9.64642e-05 -0.00811524 -0.0154533 -0.00811524 7.41911e-05)
(0.000428866 -0.0128556 -0.0154143 -0.0128556 0.000126667 -0.00813962 -0.0154143 -0.00813962 4.94927e-05)
(0.000180157 -0.0128257 -0.0154175 -0.0128257 0.000124743 -0.0081497 -0.0154175 -0.0081497 4.38515e-05)
(-3.60138e-05 -0.0128052 -0.0154439 -0.0128052 4.5422e-05 -0.00811005 -0.0154439 -0.00811005 7.91973e-05)
(3.30952e-05 -0.0128042 -0.0154424 -0.0128042 6.55564e-05 -0.00810476 -0.0154424 -0.00810476 8.86456e-05)
(9.72225e-05 -0.0128129 -0.0154113 -0.0128129 7.17587e-05 -0.00815776 -0.0154113 -0.00815776 9.85142e-05)
(2.00533e-05 -0.0127921 -0.015428 -0.0127921 2.42647e-05 -0.00811913 -0.015428 -0.00811913 6.53649e-05)
(1.21494e-05 -0.0128066 -0.0154438 -0.0128066 5.57769e-05 -0.0081024 -0.0154438 -0.0081024 0.000102231)
(7.88255e-05 -0.012798 -0.0154221 -0.012798 3.52817e-05 -0.00813985 -0.0154221 -0.00813985 0.000108638)
(2.19541e-05 -0.0127959 -0.0154384 -0.0127959 2.61167e-05 -0.00812343 -0.0154384 -0.00812343 5.00735e-05)
(-0.000113723 -0.0128245 -0.0154504 -0.0128245 0.000105423 -0.0081151 -0.0154504 -0.0081151 7.66523e-05)
(-8.74805e-05 -0.0128113 -0.0154481 -0.0128113 7.16893e-05 -0.00811954 -0.0154481 -0.00811954 6.46264e-05)
(-4.63207e-05 -0.0128041 -0.0154435 -0.0128041 5.07309e-05 -0.00810526 -0.0154435 -0.00810526 9.15548e-05)
(2.83533e-05 -0.0127881 -0.0154161 -0.0127881 2.91467e-05 -0.00811979 -0.0154161 -0.00811979 9.07434e-05)
(-2.38832e-05 -0.0127991 -0.0154354 -0.0127991 4.72641e-05 -0.00810875 -0.0154354 -0.00810875 9.26748e-05)
(7.63958e-05 -0.0127873 -0.0154244 -0.0127873 4.04197e-05 -0.00814612 -0.0154244 -0.00814612 9.06271e-05)
(-6.35497e-05 -0.012807 -0.0154485 -0.012807 6.82752e-05 -0.00811106 -0.0154485 -0.00811106 7.52412e-05)
(7.44238e-05 -0.0127934 -0.0154223 -0.0127934 4.45387e-05 -0.00814796 -0.0154223 -0.00814796 8.9041e-05)
(0.000270182 -0.0128302 -0.0154267 -0.0128302 0.000123864 -0.00814471 -0.0154267 -0.00814471 3.07235e-05)
(0.000117761 -0.012825 -0.0154192 -0.012825 0.00010056 -0.00815063 -0.0154192 -0.00815063 4.51838e-05)
(1.3458e-05 -0.0128298 -0.0154361 -0.0128298 0.000102348 -0.00810432 -0.0154361 -0.00810432 8.53135e-05)
(-3.97163e-05 -0.0128129 -0.0154551 -0.0128129 8.95936e-05 -0.00810352 -0.0154551 -0.00810352 8.53663e-05)
(7.5611e-05 -0.0127992 -0.0154264 -0.0127992 5.21104e-05 -0.00814552 -0.0154264 -0.00814552 4.49484e-05)
(-4.76384e-06 -0.0128015 -0.0154417 -0.0128015 3.41772e-05 -0.00811965 -0.0154417 -0.00811965 5.62402e-05)
(-7.9383e-05 -0.0128121 -0.0154544 -0.0128121 6.49645e-05 -0.00810066 -0.0154544 -0.00810066 9.6859e-05)
(-0.000207339 -0.0128258 -0.0154598 -0.0128258 0.000105588 -0.00809918 -0.0154598 -0.00809918 8.60136e-05)
(5.0985e-05 -0.0128002 -0.0154384 -0.0128002 4.09165e-05 -0.00811631 -0.0154384 -0.00811631 6.56374e-05)
(7.2087e-05 -0.0128028 -0.0154656 -0.0128028 6.18349e-05 -0.00813749 -0.0154656 -0.00813749 6.9358e-05)
(-5.66405e-05 -0.0128166 -0.0154533 -0.0128166 8.81136e-05 -0.0081216 -0.0154533 -0.0081216 6.84391e-05)
(-7.72929e-05 -0.0128115 -0.0154522 -0.0128115 5.54129e-05 -0.00810936 -0.0154522 -0.00810936 7.98148e-05)
(2.66943e-05 -0.0127928 -0.0154349 -0.0127928 2.11342e-05 -0.00812388 -0.0154349 -0.00812388 4.98436e-05)
(8.30314e-05 -0.01281 -0.015425 -0.01281 4.79442e-05 -0.00813991 -0.015425 -0.00813991 3.84987e-05)
(3.77235e-05 -0.0127968 -0.0154248 -0.0127968 3.6849e-05 -0.0081117 -0.0154248 -0.0081117 0.000105033)
(-0.00010254 -0.0128135 -0.0154566 -0.0128135 7.80257e-05 -0.00810328 -0.0154566 -0.00810328 8.50383e-05)
(2.79312e-05 -0.0128379 -0.015407 -0.0128379 0.000108265 -0.00811222 -0.015407 -0.00811222 9.19495e-05)
(2.00065e-05 -0.0127998 -0.0154343 -0.0127998 3.91161e-05 -0.0081116 -0.0154343 -0.0081116 8.26208e-05)
(6.50144e-05 -0.0127969 -0.01542 -0.0127969 3.21237e-05 -0.00813751 -0.01542 -0.00813751 5.22729e-05)
(5.2835e-05 -0.0127896 -0.0154155 -0.0127896 2.57461e-05 -0.00812801 -0.0154155 -0.00812801 6.29912e-05)
(5.16879e-05 -0.012793 -0.0154262 -0.012793 2.75041e-05 -0.00813476 -0.0154262 -0.00813476 4.36172e-05)
(8.63971e-05 -0.0127967 -0.0154215 -0.0127967 4.72675e-05 -0.00814926 -0.0154215 -0.00814926 0.000101742)
(-0.000146233 -0.012826 -0.0154544 -0.012826 9.3074e-05 -0.00811544 -0.0154544 -0.00811544 7.33473e-05)
(0.000105168 -0.0128054 -0.0154092 -0.0128054 5.68882e-05 -0.00815342 -0.0154092 -0.00815342 0.000108917)
(6.18154e-05 -0.0127931 -0.0154152 -0.0127931 3.18942e-05 -0.00813686 -0.0154152 -0.00813686 0.000111147)
(-2.23751e-05 -0.0128 -0.0154377 -0.0128 4.00159e-05 -0.0081133 -0.0154377 -0.0081133 7.56476e-05)
(4.31112e-05 -0.012796 -0.0154252 -0.012796 3.97712e-05 -0.00811106 -0.0154252 -0.00811106 9.35545e-05)
(0.000176834 -0.0128302 -0.0153984 -0.0128302 0.000126991 -0.00814547 -0.0153984 -0.00814547 7.59991e-05)
(9.40592e-05 -0.0128091 -0.0154223 -0.0128091 7.54097e-05 -0.00815315 -0.0154223 -0.00815315 5.36373e-05)
(5.07261e-05 -0.0127976 -0.0154244 -0.0127976 3.38583e-05 -0.00811245 -0.0154244 -0.00811245 9.85348e-05)
(8.76814e-05 -0.0127999 -0.0154207 -0.0127999 4.31038e-05 -0.00814465 -0.0154207 -0.00814465 9.71115e-05)
(4.77444e-05 -0.0127941 -0.0154332 -0.0127941 2.16994e-05 -0.00812928 -0.0154332 -0.00812928 4.07593e-05)
(-2.28967e-06 -0.0128028 -0.0154448 -0.0128028 5.80729e-05 -0.00811815 -0.0154448 -0.00811815 6.80646e-05)
(-6.16477e-05 -0.012808 -0.0154476 -0.012808 6.04847e-05 -0.00811673 -0.0154476 -0.00811673 6.47236e-05)
(4.38878e-05 -0.0127901 -0.0154216 -0.0127901 2.62474e-05 -0.00813085 -0.0154216 -0.00813085 0.000100722)
(3.43187e-05 -0.0127872 -0.0154173 -0.0127872 2.54622e-05 -0.00812333 -0.0154173 -0.00812333 7.92338e-05)
(3.65761e-05 -0.0127891 -0.015418 -0.0127891 2.6134e-05 -0.00812513 -0.015418 -0.00812513 9.68191e-05)
(9.41012e-05 -0.0127927 -0.0154192 -0.0127927 5.38844e-05 -0.00815198 -0.0154192 -0.00815198 0.000103728)
(-0.000146981 -0.012822 -0.0154524 -0.012822 0.00010288 -0.00810951 -0.0154524 -0.00810951 7.93903e-05)
(9.63824e-05 -0.0127919 -0.015419 -0.0127919 5.90536e-05 -0.00815223 -0.015419 -0.00815223 0.000111281)
(-5.36287e-05 -0.0128125 -0.0154509 -0.0128125 5.56456e-05 -0.00812019 -0.0154509 -0.00812019 6.21103e-05)
(0.00011775 -0.0128314 -0.0154113 -0.0128314 0.000118871 -0.00815501 -0.0154113 -0.00815501 5.5327e-05)
(-2.05603e-05 -0.0128114 -0.0154459 -0.0128114 9.82802e-05 -0.00811103 -0.0154459 -0.00811103 8.09344e-05)
(4.93515e-06 -0.0127947 -0.0154336 -0.0127947 4.66777e-05 -0.00811558 -0.0154336 -0.00811558 7.64494e-05)
(6.08265e-05 -0.0127915 -0.0154273 -0.0127915 3.24042e-05 -0.00813759 -0.0154273 -0.00813759 4.47318e-05)
(7.10873e-05 -0.0127918 -0.0154291 -0.0127918 4.03815e-05 -0.00813784 -0.0154291 -0.00813784 3.75421e-05)
(7.33039e-05 -0.0127964 -0.0154172 -0.0127964 3.18084e-05 -0.00813757 -0.0154172 -0.00813757 8.69024e-05)
(-0.000106463 -0.0128313 -0.0154375 -0.0128313 0.000113966 -0.008105 -0.0154375 -0.008105 8.62042e-05)
(0.000157615 -0.0128464 -0.0153894 -0.0128464 0.000105633 -0.00811981 -0.0153894 -0.00811981 9.49909e-05)
(6.95581e-05 -0.0128007 -0.0154618 -0.0128007 4.45852e-05 -0.00813437 -0.0154618 -0.00813437 6.13767e-05)
(-2.82787e-05 -0.0128041 -0.0154499 -0.0128041 5.89691e-05 -0.00812397 -0.0154499 -0.00812397 6.19181e-05)
(-6.08661e-05 -0.0128119 -0.0154518 -0.0128119 5.36556e-05 -0.00810966 -0.0154518 -0.00810966 7.84036e-05)
(-0.000170303 -0.0128445 -0.0154299 -0.0128445 0.000115211 -0.00811737 -0.0154299 -0.00811737 8.22754e-05)
(1.00789e-05 -0.012801 -0.0154408 -0.012801 5.02453e-05 -0.00811515 -0.0154408 -0.00811515 7.05052e-05)
(2.09343e-05 -0.0127956 -0.0154267 -0.0127956 4.03206e-05 -0.0081089 -0.0154267 -0.0081089 9.83432e-05)
(1.80013e-05 -0.0127958 -0.0154297 -0.0127958 3.61317e-05 -0.00811185 -0.0154297 -0.00811185 8.86463e-05)
(-0.000131158 -0.0128309 -0.0154437 -0.0128309 0.000106939 -0.00810938 -0.0154437 -0.00810938 8.45326e-05)
(1.18268e-05 -0.012801 -0.0154375 -0.012801 3.83478e-05 -0.00811305 -0.0154375 -0.00811305 7.87919e-05)
(-5.27336e-05 -0.0128052 -0.0154431 -0.0128052 6.64291e-05 -0.0081122 -0.0154431 -0.0081122 8.06608e-05)
(3.29252e-05 -0.0127886 -0.0154204 -0.0127886 2.88394e-05 -0.00812382 -0.0154204 -0.00812382 6.49982e-05)
(-4.04194e-05 -0.0128034 -0.0154419 -0.0128034 4.88324e-05 -0.00810999 -0.0154419 -0.00810999 8.05505e-05)
(0.000189967 -0.0128138 -0.0153979 -0.0128138 0.000117511 -0.0081445 -0.0153979 -0.0081445 9.21917e-05)
(4.6368e-05 -0.0127887 -0.0154242 -0.0127887 2.46738e-05 -0.00813281 -0.0154242 -0.00813281 5.97816e-05)
(2.36489e-05 -0.0127925 -0.0154222 -0.0127925 3.56628e-05 -0.00811388 -0.0154222 -0.00811388 9.4565e-05)
(-0.000123091 -0.0128133 -0.0154593 -0.0128133 7.84862e-05 -0.00809809 -0.0154593 -0.00809809 9.83824e-05)
(-1.53954e-05 -0.0127975 -0.0154357 -0.0127975 3.57416e-05 -0.00811503 -0.0154357 -0.00811503 7.32142e-05)
(-1.69754e-05 -0.0127948 -0.0154275 -0.0127948 4.40388e-05 -0.0081122 -0.0154275 -0.0081122 9.1835e-05)
(0.000108223 -0.0128078 -0.0154114 -0.0128078 6.68095e-05 -0.00815257 -0.0154114 -0.00815257 0.000101605)
(8.44984e-05 -0.0128068 -0.0154182 -0.0128068 6.85283e-05 -0.00815649 -0.0154182 -0.00815649 7.27405e-05)
(-6.05335e-05 -0.0128041 -0.0154433 -0.0128041 6.8085e-05 -0.00810403 -0.0154433 -0.00810403 8.99321e-05)
(8.60612e-06 -0.0127979 -0.0154351 -0.0127979 3.16376e-05 -0.00811173 -0.0154351 -0.00811173 8.68836e-05)
(4.45819e-05 -0.0127936 -0.0154342 -0.0127936 2.18025e-05 -0.00812977 -0.0154342 -0.00812977 3.90962e-05)
(7.84607e-05 -0.012801 -0.0154212 -0.012801 2.87484e-05 -0.00813342 -0.0154212 -0.00813342 5.16918e-05)
(4.47886e-05 -0.0127913 -0.0154238 -0.0127913 2.15508e-05 -0.00812768 -0.0154238 -0.00812768 6.47316e-05)
(8.2521e-05 -0.0127952 -0.0154194 -0.0127952 4.87516e-05 -0.00815041 -0.0154194 -0.00815041 0.000103356)
(4.15104e-05 -0.0127877 -0.0154194 -0.0127877 2.44075e-05 -0.0081272 -0.0154194 -0.0081272 6.8403e-05)
(2.14759e-05 -0.0127914 -0.0154227 -0.0127914 2.93623e-05 -0.00812044 -0.0154227 -0.00812044 0.000105188)
(7.89811e-05 -0.012794 -0.015419 -0.012794 4.2224e-05 -0.00814786 -0.015419 -0.00814786 0.000112327)
(-6.76521e-05 -0.0128042 -0.0154435 -0.0128042 6.3334e-05 -0.00810774 -0.0154435 -0.00810774 8.40814e-05)
(0.000122572 -0.012797 -0.0154072 -0.012797 7.87907e-05 -0.00815081 -0.0154072 -0.00815081 0.000118582)
(-0.000141035 -0.0128454 -0.0154304 -0.0128454 0.000119654 -0.00812337 -0.0154304 -0.00812337 7.90434e-05)
(-0.000107867 -0.0128108 -0.0154468 -0.0128108 8.39253e-05 -0.00810468 -0.0154468 -0.00810468 9.03193e-05)
(3.0656e-05 -0.0128013 -0.015436 -0.0128013 7.89745e-05 -0.00811798 -0.015436 -0.00811798 8.0207e-05)
(-1.92479e-05 -0.012802 -0.0154463 -0.012802 5.60722e-05 -0.00812333 -0.0154463 -0.00812333 6.33335e-05)
(5.48056e-05 -0.0127877 -0.0154301 -0.0127877 2.60867e-05 -0.0081336 -0.0154301 -0.0081336 4.00193e-05)
(6.81719e-05 -0.0127892 -0.0154295 -0.0127892 4.05579e-05 -0.00813821 -0.0154295 -0.00813821 3.88852e-05)
(6.10793e-05 -0.0127954 -0.0154222 -0.0127954 2.38137e-05 -0.00812178 -0.0154222 -0.00812178 6.9153e-05)
(-8.99458e-05 -0.0128063 -0.0154483 -0.0128063 7.3408e-05 -0.00810208 -0.0154483 -0.00810208 9.0617e-05)
(3.70062e-05 -0.01284 -0.0154093 -0.01284 0.000112516 -0.00811573 -0.0154093 -0.00811573 8.85519e-05)
(5.16854e-05 -0.0127999 -0.0154523 -0.0127999 3.5566e-05 -0.00813009 -0.0154523 -0.00813009 5.19267e-05)