/*--------------------------------*- C++ -*----------------------------------*\
  =========                 |
  \\      /  F ield         | OpenFOAM: The Open Source CFD Toolbox
   \\    /   O peration     | Website:  https://openfoam.org
    \\  /    A nd           | Version:  10
     \\/     M anipulation  |
\*---------------------------------------------------------------------------*/
FoamFile
{
    format      ascii;
    class       volScalarField;
    location    "35";
    object      nut;
}
// * * * * * * * * * * * * * * * * * * * * * * * * * * * * * * * * * * * * * //

dimensions      [0 2 -1 0 0 0 0];

internalField   nonuniform List<scalar> 
25600
(
2.4691e-08
4.72281e-08
2.64989e-08
2.36031e-08
3.5372e-08
3.00301e-08
3.71208e-08
8.00959e-09
2.78676e-08
1.56492e-08
1.69695e-08
1.49532e-08
1.33503e-08
3.89059e-08
1.60022e-08
4.9507e-08
1.95729e-08
6.60405e-08
7.87292e-09
3.78865e-08
2.08575e-08
3.44517e-08
2.03625e-08
5.03592e-09
3.00073e-08
2.56219e-09
2.75421e-08
1.54125e-08
1.99728e-08
4.30469e-09
2.88206e-08
1.59607e-08
1.65161e-08
3.16092e-08
3.27985e-08
1.94071e-08
2.39067e-08
5.09435e-09
1.49356e-08
4.52058e-08
2.2606e-09
2.20252e-08
1.19774e-08
1.86207e-08
2.58482e-08
1.82093e-08
2.02072e-08
3.64694e-09
3.33723e-08
7.1638e-09
2.78174e-08
7.21287e-09
1.42091e-08
1.42345e-08
9.90584e-09
1.93444e-08
1.43199e-08
3.54249e-08
4.3587e-09
3.46803e-08
2.46635e-09
9.74746e-09
2.89285e-08
4.5502e-09
3.7907e-08
1.14907e-09
2.34324e-08
8.38938e-09
1.55106e-08
1.50183e-08
1.41433e-08
1.14966e-08
6.4153e-09
2.69667e-08
1.49054e-08
1.03783e-08
1.66479e-08
4.50867e-09
5.01675e-09
3.57298e-08
7.38254e-09
1.00723e-08
1.68836e-08
2.1551e-08
1.82512e-08
1.98633e-08
8.84309e-09
1.18581e-08
1.73022e-08
4.78748e-09
2.7851e-08
7.67484e-09
2.4242e-08
6.32584e-09
2.0338e-08
6.15345e-09
1.79435e-08
1.97135e-08
5.4217e-09
4.14558e-08
5.54324e-09
2.11117e-08
1.69086e-08
6.26342e-09
3.82997e-08
3.71256e-09
2.79828e-08
4.78969e-09
1.31685e-08
2.25328e-08
6.23833e-09
2.13189e-08
3.51088e-09
3.01743e-08
6.37002e-09
9.29529e-09
1.67994e-08
7.11246e-09
5.52269e-09
2.08559e-08
1.43491e-08
4.01249e-09
2.60175e-08
1.41717e-08
1.28776e-08
2.62163e-08
5.5798e-09
2.24313e-08
8.58975e-09
8.09269e-09
1.51364e-08
7.0825e-09
2.90837e-08
5.75338e-09
3.58836e-08
2.54648e-09
2.21028e-08
9.72828e-09
7.49114e-09
4.31315e-08
5.91625e-09
3.5761e-08
5.73584e-09
9.09595e-09
3.16156e-08
6.8193e-09
3.40203e-08
3.6994e-09
1.44306e-08
1.92728e-08
5.95504e-09
2.43342e-08
3.64396e-09
2.47409e-08
5.74224e-09
1.09325e-08
1.30738e-08
9.44715e-09
7.52816e-09
1.50714e-08
2.7422e-08
2.64598e-09
3.55151e-08
8.66125e-09
8.76727e-09
2.75675e-08
4.38066e-09
3.01606e-08
6.88913e-09
1.77204e-08
5.56219e-09
4.62164e-09
2.5958e-08
5.57613e-09
4.36507e-08
2.86756e-09
2.81552e-08
4.77336e-09
9.18631e-09
3.96472e-08
6.23175e-09
4.84295e-08
2.47309e-09
1.65574e-08
2.23831e-08
9.92313e-09
3.76528e-08
4.29151e-09
1.94559e-08
1.57332e-08
8.87468e-09
2.50343e-08
6.15506e-09
2.17637e-08
8.73726e-09
1.44091e-08
1.04004e-08
1.30718e-08
6.78011e-09
1.133e-08
3.42405e-08
2.62335e-09
4.37491e-08
5.14077e-09
6.79415e-09
2.50813e-08
3.39515e-09
3.13778e-08
7.03436e-09
2.58266e-08
4.85323e-09
4.61685e-09
2.09667e-08
5.78942e-09
4.40326e-08
3.94333e-09
3.31258e-08
5.48792e-09
1.25705e-08
3.27139e-08
6.05632e-09
5.32491e-08
2.41403e-09
2.60148e-08
1.59873e-08
1.33002e-08
3.87193e-08
6.37053e-09
2.4579e-08
1.57066e-08
1.29624e-08
2.77066e-08
9.97249e-09
2.04257e-08
1.24673e-08
1.82331e-08
1.07705e-08
1.98465e-08
6.41031e-09
9.75805e-09
3.32924e-08
2.52421e-09
4.5864e-08
6.02425e-09
7.1301e-09
2.37281e-08
3.27227e-09
2.92059e-08
8.7806e-09
2.85027e-08
6.57479e-09
1.52698e-08
1.66177e-08
8.87944e-09
4.0238e-08
4.14698e-09
3.87532e-08
5.13791e-09
1.97365e-08
2.67017e-08
4.20442e-09
5.44125e-08
3.30355e-09
3.01292e-08
1.80597e-08
1.32797e-08
4.24546e-08
1.09418e-08
2.54368e-08
2.1967e-08
1.58711e-08
3.11953e-08
1.75812e-08
1.74628e-08
2.004e-08
2.16267e-08
1.13739e-08
2.96001e-08
6.12097e-09
1.28314e-08
1.00517e-07
6.37953e-08
1.1328e-07
7.47664e-08
8.58089e-08
9.68651e-08
7.63062e-08
9.44909e-08
8.33408e-08
9.57909e-08
7.53058e-08
1.01116e-07
7.70598e-08
8.83079e-08
9.98636e-08
6.55659e-08
1.15766e-07
6.32099e-08
9.84443e-08
9.72225e-08
6.01619e-08
1.23145e-07
6.57705e-08
9.48729e-08
9.77676e-08
6.85195e-08
1.08932e-07
8.41234e-08
7.81079e-08
1.03998e-07
7.68446e-08
9.17668e-08
9.92454e-08
6.85222e-08
1.01503e-07
8.74491e-08
7.42107e-08
1.10788e-07
6.63004e-08
9.35322e-08
1.10727e-06
1.0798e-06
1.12228e-06
1.08848e-06
1.09964e-06
1.11003e-06
1.09046e-06
1.106e-06
1.09848e-06
1.10672e-06
1.08775e-06
1.11909e-06
1.08402e-06
1.10973e-06
1.10454e-06
1.08404e-06
1.12611e-06
1.07614e-06
1.11358e-06
1.10719e-06
1.07607e-06
1.13251e-06
1.07623e-06
1.10837e-06
1.10942e-06
1.08252e-06
1.11588e-06
1.09769e-06
1.08852e-06
1.11925e-06
1.08578e-06
1.10173e-06
1.1129e-06
1.07988e-06
1.11624e-06
1.09731e-06
1.08622e-06
1.12597e-06
1.07429e-06
1.11268e-06
8.20342e-06
8.19801e-06
8.21944e-06
8.20338e-06
8.20092e-06
8.22367e-06
8.19112e-06
8.22133e-06
8.1989e-06
8.2201e-06
8.19053e-06
8.23193e-06
8.1844e-06
8.22633e-06
8.20061e-06
8.20248e-06
8.22307e-06
8.18869e-06
8.21886e-06
8.21019e-06
8.18622e-06
8.23655e-06
8.17755e-06
8.22284e-06
8.2026e-06
8.19853e-06
8.21378e-06
8.20344e-06
8.19718e-06
8.21902e-06
8.19377e-06
8.20758e-06
8.21342e-06
8.19224e-06
8.21523e-06
8.20797e-06
8.18901e-06
8.23498e-06
8.17608e-06
8.22713e-06
3.15295e-05
3.15448e-05
3.15436e-05
3.15464e-05
3.15301e-05
3.15637e-05
3.15181e-05
3.1565e-05
3.15225e-05
3.15613e-05
3.1519e-05
3.1567e-05
3.15127e-05
3.15664e-05
3.15177e-05
3.15524e-05
3.15342e-05
3.15337e-05
3.15436e-05
3.15358e-05
3.15264e-05
3.15572e-05
3.1509e-05
3.15617e-05
3.15161e-05
3.15479e-05
3.15301e-05
3.15404e-05
3.15313e-05
3.1544e-05
3.15319e-05
3.15392e-05
3.15424e-05
3.15322e-05
3.15439e-05
3.1543e-05
3.15264e-05
3.15651e-05
3.1513e-05
3.15654e-05
6.98213e-05
6.98323e-05
6.98274e-05
6.98327e-05
6.98177e-05
6.98429e-05
6.98078e-05
6.98431e-05
6.98101e-05
6.98373e-05
6.98103e-05
6.98368e-05
6.98067e-05
6.98391e-05
6.98004e-05
6.98432e-05
6.9798e-05
6.98381e-05
6.98075e-05
6.98275e-05
6.98147e-05
6.98265e-05
6.98137e-05
6.98306e-05
6.98115e-05
6.98352e-05
6.98099e-05
6.98398e-05
6.98083e-05
6.98422e-05
6.98136e-05
6.98337e-05
6.98287e-05
6.98214e-05
6.98381e-05
6.98217e-05
6.98307e-05
6.98357e-05
6.98178e-05
6.98418e-05
0.000108903
0.000108885
0.000108902
0.000108892
0.000108887
0.000108903
0.00010888
0.000108898
0.000108886
0.00010889
0.000108888
0.00010889
0.000108889
0.000108886
0.000108891
0.00010889
0.00010888
0.000108908
0.000108863
0.000108922
0.000108863
0.000108912
0.000108888
0.000108885
0.000108913
0.000108878
0.000108905
0.000108903
0.000108876
0.000108929
0.000108867
0.000108922
0.000108889
0.000108897
0.000108908
0.000108887
0.000108906
0.000108893
0.000108899
0.000108893
0.000141039
0.000141004
0.000141048
0.000141009
0.000141028
0.000141029
0.000141014
0.000141029
0.000141022
0.00014102
0.000141025
0.000141023
0.000141024
0.000141018
0.000141039
0.000141002
0.000141049
0.000141011
0.000141023
0.000141053
0.000140985
0.000141076
0.000140993
0.000141041
0.000141045
0.000140997
0.000141066
0.000141009
0.00014103
0.000141053
0.000140997
0.000141063
0.00014101
0.000141036
0.000141033
0.000141024
0.000141029
0.000141032
0.000141022
0.000141025
0.000166137
0.000166123
0.000166163
0.00016611
0.000166155
0.000166129
0.000166136
0.000166138
0.000166136
0.000166134
0.000166136
0.00016614
0.000166129
0.000166141
0.000166143
0.000166116
0.000166173
0.000166098
0.00016617
0.00016613
0.000166122
0.00016618
0.000166094
0.000166176
0.000166129
0.000166129
0.00016617
0.000166112
0.000166158
0.000166144
0.000166124
0.000166163
0.000166125
0.000166146
0.000166144
0.000166136
0.000166137
0.000166152
0.00016612
0.000166153
0.000185084
0.0001851
0.000185112
0.000185077
0.00018512
0.000185081
0.000185109
0.00018509
0.000185103
0.000185092
0.000185097
0.000185103
0.000185085
0.000185111
0.000185091
0.000185091
0.000185123
0.00018506
0.000185142
0.000185067
0.000185113
0.000185111
0.000185075
0.000185131
0.000185082
0.000185108
0.000185111
0.000185088
0.000185115
0.000185101
0.000185097
0.000185113
0.000185097
0.0001851
0.000185112
0.000185092
0.000185104
0.000185112
0.000185079
0.000185125
0.000198882
0.000198911
0.000198902
0.000198889
0.000198914
0.000198883
0.000198912
0.000198884
0.000198912
0.000198886
0.000198904
0.000198901
0.000198888
0.000198916
0.000198885
0.000198906
0.000198911
0.000198877
0.000198938
0.000198869
0.000198928
0.000198896
0.000198901
0.000198917
0.000198897
0.000198911
0.000198909
0.000198904
0.000198909
0.000198911
0.0001989
0.000198914
0.000198906
0.000198899
0.000198921
0.000198889
0.000198914
0.000198907
0.000198887
0.000198924
0.000208445
0.000208472
0.000208457
0.000208457
0.000208467
0.000208451
0.00020847
0.000208447
0.000208475
0.000208445
0.000208472
0.000208458
0.000208457
0.000208476
0.000208449
0.000208476
0.000208466
0.000208455
0.000208491
0.000208443
0.000208493
0.000208456
0.000208478
0.00020847
0.000208473
0.000208469
0.000208477
0.000208468
0.000208471
0.000208478
0.000208461
0.000208478
0.000208468
0.000208461
0.000208482
0.000208449
0.000208479
0.00020846
0.000208456
0.000208478
0.000214569
0.000214588
0.000214575
0.000214579
0.000214582
0.000214575
0.000214586
0.000214572
0.000214594
0.000214568
0.000214596
0.000214577
0.000214586
0.000214593
0.000214578
0.000214599
0.000214586
0.000214587
0.000214603
0.000214576
0.000214609
0.00021458
0.000214602
0.000214587
0.0002146
0.000214585
0.000214602
0.000214585
0.000214592
0.000214595
0.000214581
0.000214596
0.000214585
0.000214581
0.000214596
0.000214569
0.000214596
0.000214574
0.00021458
0.000214588
0.000217923
0.000217934
0.000217927
0.00021793
0.000217933
0.000217929
0.000217936
0.000217928
0.000217944
0.000217924
0.000217949
0.00021793
0.000217943
0.000217942
0.000217937
0.000217948
0.00021794
0.000217943
0.00021795
0.000217935
0.000217954
0.000217935
0.000217951
0.000217936
0.000217951
0.000217932
0.000217952
0.000217932
0.000217942
0.00021794
0.000217931
0.000217941
0.000217932
0.000217929
0.000217941
0.000217919
0.000217942
0.000217922
0.000217931
0.000217933
0.000219067
0.000219072
0.00021907
0.000219071
0.000219075
0.000219072
0.000219078
0.000219072
0.000219085
0.00021907
0.000219089
0.000219074
0.000219086
0.000219082
0.000219082
0.000219085
0.000219083
0.000219082
0.000219087
0.000219078
0.000219088
0.000219077
0.000219086
0.000219075
0.000219088
0.000219069
0.000219088
0.000219068
0.00021908
0.000219074
0.00021907
0.000219075
0.00021907
0.000219066
0.000219077
0.000219059
0.000219078
0.000219062
0.000219072
0.00021907
0.000218461
0.000218463
0.000218464
0.000218463
0.000218468
0.000218465
0.00021847
0.000218466
0.000218475
0.000218464
0.000218479
0.000218466
0.000218476
0.000218471
0.000218473
0.000218472
0.000218474
0.00021847
0.000218475
0.000218467
0.000218474
0.000218467
0.000218471
0.000218463
0.000218473
0.000218456
0.000218473
0.000218455
0.000218467
0.00021846
0.000218459
0.000218461
0.00021846
0.000218455
0.000218466
0.00021845
0.000218467
0.000218453
0.000218463
0.00021846
0.000216481
0.000216481
0.000216485
0.000216482
0.000216488
0.000216484
0.000216489
0.000216485
0.000216493
0.000216483
0.000216495
0.000216484
0.000216493
0.000216487
0.00021649
0.000216487
0.00021649
0.000216483
0.000216491
0.000216482
0.000216487
0.000216482
0.000216484
0.000216478
0.000216486
0.000216472
0.000216487
0.00021647
0.000216482
0.000216475
0.000216476
0.000216477
0.000216477
0.000216472
0.000216483
0.000216469
0.000216485
0.000216473
0.000216482
0.000216479
0.000213437
0.000213435
0.00021344
0.000213435
0.000213442
0.000213437
0.000213442
0.000213438
0.000213445
0.000213436
0.000213446
0.000213436
0.000213444
0.000213438
0.000213441
0.000213437
0.000213441
0.000213433
0.000213441
0.000213431
0.000213437
0.000213432
0.000213433
0.000213429
0.000213435
0.000213424
0.000213437
0.000213423
0.000213433
0.000213427
0.000213429
0.000213429
0.000213431
0.000213426
0.000213437
0.000213424
0.000213438
0.000213428
0.000213436
0.000213433
0.000209576
0.000209573
0.000209579
0.000209573
0.00020958
0.000209575
0.00020958
0.000209575
0.000209581
0.000209573
0.000209582
0.000209572
0.000209579
0.000209573
0.000209576
0.000209572
0.000209576
0.000209568
0.000209576
0.000209566
0.000209572
0.000209567
0.000209569
0.000209566
0.000209571
0.000209561
0.000209573
0.000209561
0.000209571
0.000209565
0.000209568
0.000209567
0.00020957
0.000209565
0.000209575
0.000209564
0.000209577
0.000209567
0.000209576
0.000209572
0.000205102
0.000205098
0.000205104
0.000205098
0.000205104
0.000205099
0.000205104
0.000205098
0.000205104
0.000205096
0.000205104
0.000205095
0.000205102
0.000205096
0.000205099
0.000205094
0.000205099
0.000205091
0.000205099
0.000205089
0.000205096
0.00020509
0.000205093
0.00020509
0.000205095
0.000205087
0.000205097
0.000205086
0.000205096
0.00020509
0.000205094
0.000205093
0.000205096
0.000205091
0.000205101
0.000205091
0.000205103
0.000205094
0.000205102
0.000205098
0.000200177
0.000200174
0.000200179
0.000200173
0.000200179
0.000200173
0.000200178
0.000200173
0.000200178
0.00020017
0.000200178
0.000200169
0.000200175
0.000200169
0.000200172
0.000200168
0.000200172
0.000200165
0.000200173
0.000200164
0.000200171
0.000200165
0.000200168
0.000200165
0.00020017
0.000200163
0.000200173
0.000200163
0.000200172
0.000200167
0.00020017
0.000200169
0.000200172
0.000200168
0.000200177
0.000200167
0.000200179
0.00020017
0.000200177
0.000200174
0.000194933
0.00019493
0.000194935
0.000194928
0.000194935
0.000194928
0.000194933
0.000194928
0.000194933
0.000194925
0.000194932
0.000194924
0.00019493
0.000194924
0.000194927
0.000194923
0.000194927
0.00019492
0.000194928
0.000194919
0.000194926
0.000194921
0.000194924
0.000194922
0.000194926
0.00019492
0.000194929
0.00019492
0.000194929
0.000194924
0.000194927
0.000194927
0.00019493
0.000194925
0.000194934
0.000194924
0.000194935
0.000194927
0.000194933
0.00019493
0.000189479
0.000189475
0.000189481
0.000189473
0.00018948
0.000189474
0.000189478
0.000189473
0.000189478
0.00018947
0.000189477
0.000189469
0.000189474
0.00018947
0.000189472
0.000189468
0.000189473
0.000189466
0.000189474
0.000189465
0.000189472
0.000189468
0.000189471
0.000189468
0.000189473
0.000189466
0.000189476
0.000189467
0.000189475
0.000189472
0.000189474
0.000189474
0.000189477
0.000189472
0.000189481
0.000189471
0.000189481
0.000189474
0.000189479
0.000189476
0.000183871
0.000183866
0.000183873
0.000183865
0.000183871
0.000183865
0.000183869
0.000183864
0.000183869
0.000183861
0.000183868
0.000183861
0.000183865
0.000183862
0.000183864
0.00018386
0.000183865
0.000183857
0.000183866
0.000183858
0.000183863
0.000183861
0.000183863
0.00018386
0.000183866
0.000183858
0.000183869
0.00018386
0.000183867
0.000183865
0.000183866
0.000183866
0.00018387
0.000183863
0.000183874
0.000183863
0.000183873
0.000183867
0.00018387
0.000183868
0.000178353
0.000178346
0.000178354
0.000178346
0.000178351
0.000178347
0.00017835
0.000178345
0.000178351
0.000178342
0.000178349
0.000178343
0.000178346
0.000178343
0.000178346
0.000178341
0.000178348
0.000178339
0.000178347
0.000178341
0.000178344
0.000178343
0.000178345
0.000178342
0.000178349
0.00017834
0.000178351
0.000178344
0.000178348
0.000178348
0.000178348
0.000178347
0.000178353
0.000178344
0.000178356
0.000178346
0.000178353
0.00017835
0.000178351
0.00017835
0.000171832
0.000171821
0.00017183
0.000171824
0.000171826
0.000171824
0.000171826
0.00017182
0.000171828
0.000171819
0.000171824
0.000171821
0.000171821
0.00017182
0.000171823
0.000171816
0.000171825
0.000171815
0.000171823
0.000171819
0.000171819
0.00017182
0.000171823
0.000171816
0.000171828
0.000171816
0.000171826
0.000171823
0.000171822
0.000171826
0.000171826
0.000171821
0.000171832
0.000171819
0.000171831
0.000171825
0.000171827
0.000171828
0.000171827
0.000171825
1.4109e-08
4.66149e-08
1.06687e-08
2.27544e-08
3.66136e-08
1.54475e-08
3.31751e-08
6.82818e-09
3.21914e-08
9.58028e-09
1.12301e-08
1.943e-08
8.14813e-09
3.16476e-08
1.21854e-08
3.48815e-08
1.67466e-08
4.93758e-08
2.29989e-09
3.00009e-08
1.4692e-08
2.10479e-08
2.85376e-08
4.20306e-09
2.98941e-08
4.20095e-10
2.33017e-08
1.10752e-08
2.33884e-08
1.01109e-08
3.26543e-08
8.77121e-09
1.47003e-08
2.16493e-08
2.65908e-08
1.46379e-08
1.806e-08
4.31177e-09
7.75203e-09
3.72842e-08
2.96356e-09
2.74406e-08
7.41188e-09
1.69079e-08
2.56064e-08
1.44046e-08
1.87089e-08
4.05234e-09
2.87431e-08
8.23108e-09
2.25446e-08
1.07596e-08
1.04418e-08
1.75329e-08
9.18782e-09
1.71859e-08
1.52485e-08
2.89642e-08
4.53735e-09
3.13769e-08
4.34863e-09
8.85963e-09
2.73486e-08
5.2369e-09
3.73935e-08
1.5402e-09
2.47795e-08
7.15214e-09
1.82479e-08
1.50924e-08
1.19829e-08
1.11666e-08
5.8544e-09
2.83501e-08
1.23266e-08
7.63873e-09
2.04201e-08
2.86134e-09
6.95464e-09
3.2975e-08
7.47381e-09
9.87338e-09
1.61398e-08
1.65056e-08
2.22594e-08
1.57176e-08
1.06023e-08
1.25367e-08
1.31282e-08
6.57873e-09
2.12729e-08
1.03177e-08
2.0103e-08
8.21036e-09
1.79704e-08
6.05035e-09
2.02551e-08
1.69541e-08
6.85792e-09
3.9337e-08
6.18928e-09
2.15821e-08
1.55569e-08
6.63674e-09
3.67503e-08
4.13418e-09
2.75255e-08
5.66438e-09
1.36718e-08
2.23696e-08
5.16747e-09
2.38234e-08
4.20456e-09
2.93624e-08
6.45412e-09
7.23211e-09
2.0479e-08
5.3999e-09
7.43835e-09
2.24297e-08
1.37473e-08
3.4653e-09
2.8608e-08
1.04144e-08
1.67976e-08
1.9e-08
6.94882e-09
2.27005e-08
7.49255e-09
1.1557e-08
9.88509e-09
8.82871e-09
2.4826e-08
6.62727e-09
3.48174e-08
2.80228e-09
2.67672e-08
7.33659e-09
8.47321e-09
4.21567e-08
5.89353e-09
3.65371e-08
5.44561e-09
9.6957e-09
3.12886e-08
7.124e-09
3.32903e-08
4.75041e-09
1.38703e-08
2.03461e-08
4.94563e-09
2.7613e-08
4.38218e-09
2.45124e-08
5.97016e-09
1.06106e-08
1.47757e-08
9.5277e-09
8.30536e-09
1.84528e-08
2.51441e-08
2.67091e-09
3.89979e-08
7.11344e-09
1.24373e-08
1.93172e-08
4.93958e-09
2.93284e-08
6.92656e-09
2.21546e-08
3.6379e-09
5.98761e-09
2.14187e-08
5.91739e-09
4.30769e-08
2.93994e-09
3.28736e-08
3.20584e-09
9.14568e-09
4.03929e-08
5.78711e-09
5.01116e-08
2.20001e-09
1.63396e-08
2.32177e-08
9.9353e-09
3.76597e-08
4.87194e-09
1.87547e-08
1.61136e-08
8.29547e-09
2.6828e-08
7.25251e-09
2.02698e-08
1.0223e-08
1.4887e-08
1.16769e-08
1.60272e-08
6.52374e-09
1.48198e-08
3.15815e-08
2.75568e-09
4.68113e-08
4.97622e-09
1.08382e-08
1.73624e-08
3.60824e-09
2.92063e-08
7.41924e-09
2.85673e-08
4.27649e-09
5.73179e-09
1.70693e-08
5.77776e-09
4.44107e-08
3.66892e-09
3.69084e-08
4.16987e-09
1.11723e-08
3.53432e-08
5.56015e-09
5.66064e-08
2.10523e-09
2.59794e-08
1.66962e-08
1.32611e-08
3.90678e-08
6.99066e-09
2.38067e-08
1.63341e-08
1.3114e-08
2.87611e-08
1.18277e-08
1.81511e-08
1.47054e-08
1.85446e-08
1.16823e-08
2.38905e-08
5.82003e-09
1.29806e-08
2.99522e-08
2.6588e-09
4.70147e-08
5.88347e-09
1.15479e-08
1.74851e-08
3.67506e-09
2.62853e-08
9.16844e-09
2.984e-08
5.83908e-09
1.60822e-08
1.38414e-08
8.47276e-09
4.17222e-08
3.68629e-09
4.22765e-08
4.40273e-09
1.72502e-08
2.96105e-08
3.82549e-09
5.83659e-08
3.23223e-09
2.98887e-08
1.87923e-08
1.34445e-08
4.28587e-08
1.15873e-08
2.48856e-08
2.2551e-08
1.67559e-08
3.17982e-08
1.97752e-08
1.51349e-08
2.25893e-08
2.198e-08
1.18593e-08
3.38473e-08
5.29742e-09
1.65877e-08
9.63492e-08
6.46694e-08
1.12034e-07
7.27293e-08
8.82367e-08
9.1919e-08
7.8527e-08
9.13998e-08
8.25878e-08
9.64274e-08
7.27337e-08
1.01243e-07
7.56886e-08
8.66505e-08
1.00947e-07
6.25231e-08
1.16949e-07
6.25117e-08
9.53684e-08
9.96122e-08
5.67206e-08
1.24773e-07
6.48094e-08
9.30477e-08
9.80282e-08
6.71544e-08
1.08001e-07
8.40466e-08
7.64602e-08
1.03406e-07
7.71471e-08
8.9482e-08
1.01178e-07
6.43753e-08
1.037e-07
8.56826e-08
7.27148e-08
1.12597e-07
6.25037e-08
9.65911e-08
1.09682e-06
1.07391e-06
1.11409e-06
1.07964e-06
1.09456e-06
1.09852e-06
1.08601e-06
1.09552e-06
1.09125e-06
1.09919e-06
1.07854e-06
1.1112e-06
1.07599e-06
1.10006e-06
1.09844e-06
1.07259e-06
1.11986e-06
1.06686e-06
1.10376e-06
1.10108e-06
1.06502e-06
1.12521e-06
1.06784e-06
1.09857e-06
1.10269e-06
1.07296e-06
1.10783e-06
1.08986e-06
1.07998e-06
1.1111e-06
1.07866e-06
1.09186e-06
1.10787e-06
1.06862e-06
1.11187e-06
1.08755e-06
1.0787e-06
1.11961e-06
1.06424e-06
1.1081e-06
8.16779e-06
8.16343e-06
8.18415e-06
8.16687e-06
8.16735e-06
8.18427e-06
8.1586e-06
8.18103e-06
8.16477e-06
8.18112e-06
8.15428e-06
8.19281e-06
8.14814e-06
8.18601e-06
8.1656e-06
8.15995e-06
8.1891e-06
8.14661e-06
8.1831e-06
8.17047e-06
8.14974e-06
8.1965e-06
8.14335e-06
8.18167e-06
8.16994e-06
8.15832e-06
8.18006e-06
8.16569e-06
8.16293e-06
8.18198e-06
8.16039e-06
8.16992e-06
8.1817e-06
8.15369e-06
8.18468e-06
8.16986e-06
8.15672e-06
8.19919e-06
8.1418e-06
8.19282e-06
3.14654e-05
3.14743e-05
3.14765e-05
3.14769e-05
3.14615e-05
3.14924e-05
3.14505e-05
3.1491e-05
3.14559e-05
3.14862e-05
3.14514e-05
3.14926e-05
3.1444e-05
3.1493e-05
3.14492e-05
3.14781e-05
3.14683e-05
3.14582e-05
3.14796e-05
3.14607e-05
3.14639e-05
3.1482e-05
3.1449e-05
3.14865e-05
3.14573e-05
3.14743e-05
3.14702e-05
3.14697e-05
3.14699e-05
3.14751e-05
3.14698e-05
3.14709e-05
3.14804e-05
3.14633e-05
3.14827e-05
3.14728e-05
3.1465e-05
3.14942e-05
3.1451e-05
3.14942e-05
6.97628e-05
6.97598e-05
6.97664e-05
6.97636e-05
6.97521e-05
6.97773e-05
6.97405e-05
6.97779e-05
6.9745e-05
6.97701e-05
6.97484e-05
6.97689e-05
6.97457e-05
6.97739e-05
6.97384e-05
6.97808e-05
6.97367e-05
6.97762e-05
6.97488e-05
6.97645e-05
6.97594e-05
6.97608e-05
6.97621e-05
6.97627e-05
6.97616e-05
6.9767e-05
6.97585e-05
6.97734e-05
6.9754e-05
6.97776e-05
6.97563e-05
6.97701e-05
6.9769e-05
6.97575e-05
6.97773e-05
6.97562e-05
6.97699e-05
6.97675e-05
6.97584e-05
6.97702e-05
0.000108868
0.000108839
0.000108871
0.000108845
0.000108855
0.000108862
0.000108843
0.000108864
0.000108846
0.000108859
0.000108851
0.000108856
0.000108857
0.000108851
0.00010886
0.000108858
0.000108847
0.000108879
0.000108827
0.000108894
0.000108828
0.00010888
0.000108857
0.000108848
0.000108885
0.000108836
0.000108877
0.000108861
0.000108846
0.000108887
0.000108833
0.000108881
0.000108851
0.000108857
0.000108869
0.000108848
0.000108866
0.000108854
0.00010886
0.00010885
0.000141019
0.000140985
0.000141036
0.000140984
0.000141022
0.000141004
0.000141006
0.000141012
0.000141006
0.000141011
0.000141005
0.000141015
0.000141008
0.000141004
0.000141028
0.000140986
0.000141037
0.000140998
0.000141004
0.000141044
0.000140962
0.000141066
0.000140972
0.000141026
0.000141027
0.000140978
0.00014105
0.000140985
0.000141016
0.000141028
0.000140982
0.000141038
0.000140992
0.000141014
0.000141013
0.000141004
0.000141008
0.000141016
0.000141
0.00014101
0.000166127
0.000166125
0.000166158
0.000166106
0.00016616
0.000166117
0.000166145
0.000166128
0.00016614
0.000166133
0.000166132
0.000166144
0.000166123
0.000166142
0.000166141
0.000166111
0.000166173
0.000166093
0.000166165
0.00016613
0.000166111
0.000166182
0.000166082
0.000166176
0.000166118
0.000166126
0.000166161
0.000166106
0.000166152
0.000166135
0.000166121
0.000166152
0.000166123
0.000166136
0.000166141
0.000166129
0.000166131
0.00016615
0.000166112
0.000166155
0.000185084
0.000185114
0.000185113
0.000185087
0.000185127
0.000185084
0.000185123
0.000185088
0.000185118
0.000185094
0.000185105
0.000185111
0.000185088
0.000185119
0.000185095
0.000185095
0.00018513
0.000185063
0.000185147
0.000185073
0.000185113
0.00018512
0.000185073
0.00018514
0.00018508
0.000185117
0.00018511
0.000185097
0.000185115
0.000185107
0.000185101
0.000185115
0.000185106
0.0001851
0.000185122
0.000185095
0.000185111
0.000185119
0.000185083
0.000185136
0.000198889
0.00019893
0.000198907
0.000198907
0.000198923
0.000198897
0.000198927
0.000198892
0.000198929
0.000198894
0.000198919
0.000198911
0.000198899
0.000198928
0.000198896
0.000198916
0.000198924
0.000198886
0.00019895
0.00019888
0.000198937
0.00019891
0.000198908
0.000198932
0.000198903
0.000198927
0.000198915
0.000198921
0.000198915
0.000198928
0.000198908
0.000198926
0.000198919
0.000198907
0.000198937
0.000198898
0.000198929
0.000198918
0.000198899
0.00019894
0.000208459
0.000208494
0.000208468
0.000208479
0.000208479
0.00020847
0.000208485
0.000208463
0.000208493
0.000208459
0.000208491
0.000208473
0.000208474
0.000208492
0.000208466
0.000208492
0.000208483
0.00020847
0.000208508
0.000208459
0.000208508
0.000208474
0.000208491
0.000208489
0.000208486
0.000208488
0.000208489
0.000208489
0.000208481
0.0002085
0.000208472
0.000208498
0.000208483
0.000208477
0.000208501
0.000208462
0.000208498
0.000208475
0.000208473
0.000208496
0.000214587
0.000214611
0.000214591
0.000214603
0.000214598
0.000214598
0.000214604
0.000214593
0.000214613
0.000214588
0.000214616
0.000214596
0.000214607
0.000214613
0.000214598
0.000214618
0.000214607
0.000214605
0.000214625
0.000214595
0.000214629
0.000214601
0.00021462
0.000214609
0.000214617
0.000214606
0.000214618
0.000214608
0.000214607
0.000214619
0.000214595
0.000214619
0.000214601
0.000214601
0.000214616
0.000214586
0.000214618
0.000214592
0.0002146
0.000214608
0.000217944
0.000217959
0.000217947
0.000217955
0.000217952
0.000217954
0.000217956
0.000217952
0.000217965
0.000217948
0.00021797
0.000217953
0.000217965
0.000217965
0.000217959
0.00021797
0.000217962
0.000217964
0.000217973
0.000217956
0.000217976
0.000217957
0.000217972
0.000217959
0.000217971
0.000217955
0.000217971
0.000217955
0.000217961
0.000217964
0.000217948
0.000217966
0.00021795
0.000217953
0.000217962
0.00021794
0.000217965
0.000217943
0.000217953
0.000217955
0.00021909
0.000219098
0.000219092
0.000219097
0.000219097
0.000219098
0.0002191
0.000219098
0.000219107
0.000219096
0.000219111
0.000219099
0.000219108
0.000219106
0.000219105
0.000219109
0.000219106
0.000219105
0.000219111
0.000219101
0.000219111
0.0002191
0.000219108
0.000219098
0.000219109
0.000219093
0.000219109
0.000219092
0.0002191
0.000219099
0.00021909
0.000219101
0.00021909
0.000219092
0.000219099
0.000219083
0.000219102
0.000219085
0.000219095
0.000219094
0.000218484
0.000218489
0.000218487
0.000218489
0.000218491
0.000218491
0.000218493
0.000218492
0.000218498
0.00021849
0.000218501
0.000218492
0.000218499
0.000218497
0.000218496
0.000218497
0.000218497
0.000218493
0.000218499
0.000218491
0.000218497
0.00021849
0.000218494
0.000218487
0.000218495
0.000218481
0.000218495
0.00021848
0.000218489
0.000218485
0.00021848
0.000218488
0.000218481
0.000218481
0.000218488
0.000218476
0.000218491
0.000218479
0.000218487
0.000218486
0.000216505
0.000216508
0.000216509
0.000216508
0.000216511
0.00021651
0.000216513
0.000216511
0.000216516
0.000216509
0.000216518
0.00021651
0.000216515
0.000216513
0.000216513
0.000216512
0.000216514
0.000216508
0.000216514
0.000216506
0.00021651
0.000216506
0.000216507
0.000216503
0.000216509
0.000216497
0.00021651
0.000216496
0.000216505
0.000216501
0.000216499
0.000216503
0.0002165
0.000216499
0.000216506
0.000216496
0.000216509
0.000216499
0.000216506
0.000216505
0.00021346
0.000213461
0.000213463
0.000213462
0.000213465
0.000213463
0.000213466
0.000213463
0.000213468
0.000213461
0.000213469
0.000213462
0.000213466
0.000213463
0.000213463
0.000213462
0.000213464
0.000213457
0.000213464
0.000213456
0.00021346
0.000213457
0.000213457
0.000213454
0.000213458
0.000213449
0.00021346
0.000213448
0.000213456
0.000213453
0.000213452
0.000213455
0.000213454
0.000213452
0.00021346
0.000213451
0.000213462
0.000213454
0.000213461
0.00021346
0.000209599
0.000209599
0.000209602
0.000209599
0.000209603
0.0002096
0.000209603
0.0002096
0.000209604
0.000209598
0.000209604
0.000209598
0.000209601
0.000209598
0.000209598
0.000209596
0.000209599
0.000209592
0.000209599
0.000209591
0.000209595
0.000209592
0.000209592
0.000209591
0.000209594
0.000209587
0.000209596
0.000209586
0.000209594
0.000209591
0.000209591
0.000209593
0.000209593
0.000209591
0.000209599
0.00020959
0.000209601
0.000209593
0.000209599
0.000209598
0.000205124
0.000205124
0.000205126
0.000205123
0.000205127
0.000205124
0.000205126
0.000205123
0.000205127
0.000205121
0.000205126
0.00020512
0.000205123
0.000205121
0.000205121
0.000205119
0.000205121
0.000205115
0.000205121
0.000205114
0.000205119
0.000205115
0.000205116
0.000205115
0.000205118
0.000205112
0.00020512
0.000205112
0.000205119
0.000205116
0.000205117
0.000205119
0.000205119
0.000205117
0.000205124
0.000205116
0.000205126
0.000205119
0.000205125
0.000205123
0.000200199
0.000200198
0.000200201
0.000200197
0.000200201
0.000200197
0.0002002
0.000200196
0.0002002
0.000200194
0.000200199
0.000200193
0.000200196
0.000200194
0.000200194
0.000200192
0.000200194
0.000200189
0.000200195
0.000200188
0.000200193
0.00020019
0.000200191
0.00020019
0.000200193
0.000200188
0.000200196
0.000200188
0.000200195
0.000200192
0.000200193
0.000200195
0.000200195
0.000200193
0.0002002
0.000200192
0.000200202
0.000200195
0.0002002
0.000200198
0.000194954
0.000194953
0.000194956
0.000194952
0.000194956
0.000194952
0.000194954
0.000194951
0.000194954
0.000194948
0.000194953
0.000194948
0.000194951
0.000194948
0.000194948
0.000194947
0.000194949
0.000194944
0.00019495
0.000194943
0.000194948
0.000194945
0.000194946
0.000194946
0.000194949
0.000194944
0.000194952
0.000194944
0.000194951
0.000194949
0.000194949
0.000194951
0.000194952
0.00019495
0.000194956
0.000194948
0.000194957
0.000194951
0.000194955
0.000194954
0.0001895
0.000189498
0.000189501
0.000189496
0.0001895
0.000189496
0.000189498
0.000189495
0.000189498
0.000189493
0.000189498
0.000189492
0.000189495
0.000189493
0.000189493
0.000189491
0.000189494
0.000189489
0.000189495
0.000189489
0.000189493
0.000189491
0.000189492
0.000189492
0.000189495
0.00018949
0.000189498
0.000189491
0.000189497
0.000189496
0.000189495
0.000189497
0.000189498
0.000189495
0.000189503
0.000189494
0.000189503
0.000189497
0.0001895
0.0001895
0.000183891
0.000183888
0.000183892
0.000183887
0.000183891
0.000183887
0.000183889
0.000183886
0.000183889
0.000183883
0.000183888
0.000183883
0.000183885
0.000183884
0.000183884
0.000183882
0.000183886
0.00018388
0.000183886
0.000183881
0.000183884
0.000183884
0.000183884
0.000183883
0.000183887
0.000183881
0.00018389
0.000183883