/*--------------------------------*- C++ -*----------------------------------*\
  =========                 |
  \\      /  F ield         | OpenFOAM: The Open Source CFD Toolbox
   \\    /   O peration     | Website:  https://openfoam.org
    \\  /    A nd           | Version:  10
     \\/     M anipulation  |
\*---------------------------------------------------------------------------*/
FoamFile
{
    format      ascii;
    class       volVectorField;
    location    "35";
    object      U_0;
}
// * * * * * * * * * * * * * * * * * * * * * * * * * * * * * * * * * * * * * //

dimensions      [0 1 -1 0 0 0 0];

internalField   nonuniform List<vector> 
25600
(
(1.12833 -6.21356e-07 -2.6198e-06)
(1.12834 -2.17385e-06 3.75385e-06)
(1.12833 1.36673e-06 -3.22416e-06)
(1.12834 -5.67564e-06 3.5913e-06)
(1.12834 -1.3119e-05 -2.02123e-06)
(1.12835 -3.00706e-07 1.12752e-06)
(1.12834 5.36574e-07 5.58516e-07)
(1.12835 3.77081e-06 -2.37087e-07)
(1.12834 8.1893e-06 2.40185e-07)
(1.12834 -2.97319e-06 1.16997e-06)
(1.12834 2.22015e-07 -1.28745e-06)
(1.12834 -9.87637e-06 1.72003e-06)
(1.12835 2.92749e-06 -1.49266e-07)
(1.12834 -5.30178e-06 -7.8045e-07)
(1.12835 1.65022e-06 2.65373e-06)
(1.12835 -3.27999e-06 -2.70285e-06)
(1.12835 -4.00319e-06 3.16961e-06)
(1.12835 9.52996e-06 -1.97134e-06)
(1.12835 4.28498e-07 1.966e-06)
(1.12834 2.22787e-06 -8.27288e-07)
(1.12834 -9.52927e-06 1.0935e-06)
(1.12836 8.86508e-06 -2.59775e-07)
(1.12833 5.89842e-06 9.42308e-07)
(1.12835 -3.98171e-06 -1.43812e-07)
(1.12834 8.13156e-06 5.4556e-07)
(1.12834 -8.7689e-06 3.64901e-07)
(1.12834 8.95806e-06 6.87072e-07)
(1.12834 -8.13395e-06 -4.62433e-07)
(1.12834 4.97252e-06 1.37302e-06)
(1.12834 4.59409e-06 -1.99127e-07)
(1.12834 -1.53898e-05 2.20004e-07)
(1.12834 9.78876e-06 9.87554e-07)
(1.12835 -1.48032e-05 -1.32317e-07)
(1.12835 5.78446e-06 5.37411e-07)
(1.12835 8.80555e-06 5.89077e-07)
(1.12834 -3.74471e-06 -4.17831e-07)
(1.12835 2.71857e-06 1.69799e-06)
(1.12834 -3.95823e-06 -8.01466e-07)
(1.12835 3.66946e-06 2.43605e-07)
(1.12833 1.46982e-05 2.09852e-06)
(1.12834 4.33863e-06 -3.77659e-06)
(1.12835 -5.78659e-06 4.12248e-06)
(1.12834 5.0188e-06 -2.0411e-06)
(1.12834 -3.29234e-06 9.29784e-07)
(1.12834 -5.41301e-06 1.50701e-06)
(1.12834 5.71924e-06 -1.95466e-06)
(1.12834 -7.16275e-06 2.39945e-06)
(1.12834 7.77674e-06 -3.49843e-07)
(1.12834 -2.30481e-06 -7.72696e-07)
(1.12835 1.47387e-06 3.04117e-06)
(1.12834 6.59388e-07 -3.29803e-06)
(1.12834 -5.54933e-06 3.90195e-06)
(1.12834 6.34885e-06 -2.17557e-06)
(1.12834 -8.54432e-06 1.03884e-06)
(1.12834 8.06076e-06 1.89468e-06)
(1.12834 -7.20578e-06 -3.15244e-06)
(1.12835 3.51922e-06 4.88082e-06)
(1.12834 7.73469e-07 -3.98572e-06)
(1.12835 -8.29748e-07 3.60539e-06)
(1.12834 4.58718e-06 -1.1537e-06)
(1.12834 -7.93088e-06 3.07294e-07)
(1.12835 8.2338e-06 1.53477e-06)
(1.12833 -2.5266e-06 -9.28489e-07)
(1.12835 6.86666e-07 1.46691e-06)
(1.12834 3.47883e-06 -1.5421e-07)
(1.12834 -5.73394e-06 3.04739e-07)
(1.12835 7.053e-06 1.48794e-06)
(1.12834 -5.69693e-06 -1.38629e-06)
(1.12835 1.87553e-06 2.24362e-06)
(1.12834 4.60158e-06 -5.04569e-07)
(1.12835 -1.04246e-05 1.30114e-07)
(1.12834 9.91946e-06 1.52216e-06)
(1.12834 -9.6478e-06 -5.93456e-07)
(1.12834 4.46449e-06 7.11203e-07)
(1.12834 2.48168e-06 8.94766e-07)
(1.12835 -2.93242e-06 -9.48619e-07)
(1.12834 3.36557e-06 2.21999e-06)
(1.12834 -2.6278e-06 -8.77811e-07)
(1.12834 2.66618e-06 -3.02119e-07)
(1.12834 1.45206e-06 3.27151e-06)
(1.12834 7.78873e-06 -3.75116e-06)
(1.12835 -8.98457e-06 3.21665e-06)
(1.12834 7.69379e-06 2.57454e-07)
(1.12834 -4.89525e-06 -2.3876e-06)
(1.12835 -3.90098e-06 5.43351e-06)
(1.12834 5.87702e-06 -5.3733e-06)
(1.12834 -8.41997e-06 4.81294e-06)
(1.12834 9.76813e-06 -1.07292e-06)
(1.12834 -5.98218e-06 -1.32203e-06)
(1.12835 5.57487e-06 4.66678e-06)
(1.12834 -3.04056e-06 -5.02414e-06)
(1.12834 -2.43805e-06 5.75377e-06)
(1.12834 5.22463e-06 -3.53715e-06)
(1.12834 -9.21384e-06 1.95476e-06)
(1.12834 9.74824e-06 2.21597e-06)
(1.12834 -9.41142e-06 -4.33363e-06)
(1.12835 6.94081e-06 6.82326e-06)
(1.12833 -3.11528e-06 -5.43897e-06)
(1.12835 2.14399e-06 4.4066e-06)
(1.12834 3.31688e-06 -7.16033e-07)
(1.12834 -7.75147e-06 -7.66718e-07)
(1.12835 1.08498e-05 3.17393e-06)
(1.12833 -7.11007e-06 -2.2488e-06)
(1.12835 5.73573e-06 2.55919e-06)
(1.12833 -3.68055e-07 -5.2158e-07)
(1.12835 -3.04324e-06 5.88503e-07)
(1.12835 6.36298e-06 1.35906e-06)
(1.12833 -6.08619e-06 -8.50747e-07)
(1.12835 2.9557e-06 1.62744e-06)
(1.12834 3.01264e-06 4.85496e-07)
(1.12835 -8.44491e-06 -8.93777e-07)
(1.12834 8.17073e-06 2.70581e-06)
(1.12834 -7.19705e-06 -1.407e-06)
(1.12835 2.73678e-06 1.24105e-06)
(1.12834 2.89631e-06 8.29448e-07)
(1.12835 -2.19417e-06 -7.57991e-07)
(1.12834 2.39736e-06 1.89693e-06)
(1.12834 -7.3664e-07 -1.35789e-07)
(1.12835 2.79238e-06 -9.92304e-07)
(1.12834 -9.86788e-07 3.93089e-06)
(1.12834 8.14564e-06 -3.86638e-06)
(1.12835 -9.30383e-06 2.84019e-06)
(1.12834 8.74281e-06 1.59278e-06)
(1.12834 -4.72941e-06 -4.15169e-06)
(1.12835 -8.74011e-07 7.77987e-06)
(1.12834 5.15278e-06 -7.40802e-06)
(1.12834 -7.30473e-06 6.64373e-06)
(1.12834 9.02807e-06 -1.9363e-06)
(1.12834 -7.04482e-06 -1.13759e-06)
(1.12835 7.03904e-06 5.5437e-06)
(1.12834 -4.30964e-06 -6.17752e-06)
(1.12835 9.40253e-07 7.29796e-06)
(1.12834 3.13306e-06 -4.57648e-06)
(1.12834 -6.11626e-06 2.5753e-06)
(1.12834 8.05288e-06 2.87629e-06)
(1.12834 -7.87756e-06 -5.58078e-06)
(1.12835 7.85878e-06 8.63992e-06)
(1.12833 -5.93649e-06 -6.4786e-06)
(1.12835 4.73048e-06 4.81008e-06)
(1.12833 6.58649e-07 1.28166e-07)
(1.12834 -5.52801e-06 -1.78847e-06)
(1.12835 1.04326e-05 4.48744e-06)
(1.12833 -1.00076e-05 -2.92141e-06)
(1.12836 8.82892e-06 3.03055e-06)
(1.12833 -3.34243e-06 -2.57995e-07)
(1.12835 -1.30285e-06 3.66967e-07)
(1.12834 6.11973e-06 1.72289e-06)
(1.12833 -6.70184e-06 -5.94634e-07)
(1.12835 4.3393e-06 1.30208e-06)
(1.12833 1.4094e-06 1.25359e-06)
(1.12835 -5.76236e-06 -1.41515e-06)
(1.12834 6.86872e-06 3.31326e-06)
(1.12834 -4.78068e-06 -1.5165e-06)
(1.12835 1.40591e-06 1.35066e-06)
(1.12833 2.60576e-06 9.64559e-07)
(1.12835 -1.90954e-06 -2.98001e-07)
(1.12834 1.43261e-06 1.039e-06)
(1.12834 6.72792e-07 1.26807e-06)
(1.12834 1.33322e-06 -2.155e-06)
(1.12835 -2.40155e-06 4.89347e-06)
(1.12834 6.07224e-06 -3.96404e-06)
(1.12835 -7.07932e-06 2.96603e-06)
(1.12835 7.78955e-06 1.92175e-06)
(1.12833 -4.55879e-06 -4.45712e-06)
(1.12835 6.9225e-07 8.6915e-06)
(1.12833 3.24553e-06 -8.33839e-06)
(1.12834 -4.79881e-06 7.94168e-06)
(1.12834 6.89652e-06 -2.64838e-06)
(1.12834 -5.20998e-06 -7.14936e-07)
(1.12835 5.95731e-06 6.12188e-06)
(1.12833 -3.86467e-06 -6.96445e-06)
(1.12835 2.36582e-06 8.65145e-06)
(1.12834 4.45608e-07 -5.45029e-06)
(1.12834 -1.83017e-06 3.26363e-06)
(1.12834 3.64035e-06 3.31999e-06)
(1.12834 -3.95462e-06 -6.29358e-06)
(1.12835 6.15554e-06 9.79457e-06)
(1.12833 -6.20823e-06 -6.76276e-06)
(1.12836 7.03453e-06 4.61786e-06)
(1.12833 -2.21032e-06 1.44675e-06)
(1.12835 -2.44465e-06 -3.10891e-06)
(1.12835 9.01533e-06 6.04897e-06)
(1.12833 -9.99933e-06 -3.64626e-06)
(1.12836 1.01017e-05 3.51234e-06)
(1.12833 -4.3825e-06 1.4553e-07)
(1.12835 -5.9098e-07 1.4356e-07)
(1.12834 6.44108e-06 2.1909e-06)
(1.12833 -7.1955e-06 -4.69618e-07)
(1.12836 5.13645e-06 1.35509e-06)
(1.12833 1.06641e-06 1.52615e-06)
(1.12835 -5.25692e-06 -1.17332e-06)
(1.12834 6.57597e-06 3.01842e-06)
(1.12834 -3.53517e-06 -5.53279e-07)
(1.12835 1.52757e-10 4.39826e-07)
(1.12833 4.46547e-06 2.07884e-06)
(1.12835 -3.21646e-06 -6.03771e-07)
(1.12835 2.51674e-06 9.35339e-07)
(1.12834 1.0186e-06 2.13709e-06)
(1.12834 4.71753e-07 -2.82881e-06)
(1.12835 -6.02628e-07 5.58058e-06)
(1.12833 2.18348e-06 -3.93371e-06)
(1.12835 -2.83154e-06 3.37471e-06)
(1.12835 5.42513e-06 1.73646e-06)
(1.12833 -3.27972e-06 -3.93593e-06)
(1.12836 2.19249e-06 8.81454e-06)
(1.12833 1.72165e-06 -8.57638e-06)
(1.12835 -2.00827e-06 9.01835e-06)
(1.12834 4.22054e-06 -3.57975e-06)
(1.12834 -1.87381e-06 3.51669e-07)
(1.12835 2.87404e-06 5.96344e-06)
(1.12833 -8.46932e-07 -6.96717e-06)
(1.12835 2.13902e-06 9.38749e-06)
(1.12834 -1.06102e-06 -5.70615e-06)
(1.12835 2.66703e-06 3.50395e-06)
(1.12834 -1.0975e-06 4.05932e-06)
(1.12834 7.58529e-07 -6.93347e-06)
(1.12835 3.85304e-06 1.07514e-05)
(1.12833 -5.9258e-06 -6.70533e-06)
(1.12836 8.88495e-06 4.23206e-06)
(1.12833 -5.02786e-06 2.91094e-06)
(1.12835 8.6904e-07 -4.36516e-06)
(1.12834 6.68199e-06 7.65725e-06)
(1.12833 -8.83641e-06 -4.45958e-06)
(1.12836 9.67407e-06 4.30356e-06)
(1.12832 -3.75522e-06 2.63747e-07)
(1.12836 -1.38577e-06 2.36216e-07)
(1.12834 7.607e-06 2.43007e-06)
(1.12833 -7.52285e-06 7.97386e-10)
(1.12836 4.89349e-06 1.06691e-06)
(1.12833 2.61785e-06 2.24266e-06)
(1.12835 -6.78009e-06 -1.17948e-06)
(1.12834 8.55742e-06 2.9468e-06)
(1.12833 -3.91082e-06 3.74949e-07)
(1.12835 -5.34373e-07 -3.97423e-07)
(1.12833 6.30246e-06 3.25992e-06)
(1.12835 -5.54604e-06 -1.11981e-06)
(1.12835 4.80386e-06 1.32625e-06)
(1.12834 1.41535e-07 2.43459e-06)
(1.12834 -3.26601e-07 -2.87149e-06)
(1.12835 1.93844e-06 5.89729e-06)
(1.12833 -2.004e-06 -4.33243e-06)
(1.12835 2.20436e-06 4.59062e-06)
(1.12835 2.12862e-06 6.49638e-07)
(1.12833 -1.1775e-06 -2.44105e-06)
(1.12836 2.36809e-06 8.14616e-06)
(1.12833 1.13433e-06 -8.15675e-06)
(1.12835 -1.89736e-07 9.73266e-06)
(1.12834 2.2643e-06 -4.27265e-06)
(1.12834 1.53257e-06 1.44172e-06)
(1.12835 -8.39019e-07 5.76555e-06)
(1.12833 3.13648e-06 -6.84045e-06)
(1.12835 5.72772e-07 1.00143e-05)
(1.12834 -1.82171e-06 -5.75049e-06)
(1.12834 6.7011e-06 3.61813e-06)
(1.12834 -5.95551e-06 4.93092e-06)
(1.12834 5.79375e-06 -7.62333e-06)
(1.12835 1.08069e-06 1.19182e-05)
(1.12833 -4.87751e-06 -6.97806e-06)
(1.12836 1.03457e-05 4.40366e-06)
(1.12833 -7.25546e-06 3.83477e-06)
(1.12835 3.88391e-06 -5.08275e-06)
(1.12834 4.79392e-06 8.8863e-06)
(1.12833 -7.1829e-06 -4.86868e-06)
(1.12836 8.69312e-06 4.782e-06)
(1.12832 -1.85075e-06 7.04859e-07)
(1.12836 -3.37497e-06 1.47432e-07)
(1.12834 1.01219e-05 2.84968e-06)
(1.12833 -8.70835e-06 4.12233e-07)
(1.12836 5.01608e-06 8.69589e-07)
(1.12832 4.5939e-06 2.96269e-06)
(1.12835 -9.27602e-06 -1.23862e-06)
(1.12834 1.15902e-05 3.11827e-06)
(1.12833 -5.16262e-06 1.06842e-06)
(1.12836 -6.91534e-07 -9.62428e-07)
(1.12833 8.88134e-06 4.3851e-06)
(1.12834 -8.77939e-06 -1.66294e-06)
(1.12835 8.57853e-06 1.99692e-06)
(1.12833 -1.71154e-06 2.49721e-06)
(1.12834 -2.1208e-07 -2.73213e-06)
(1.12835 4.85065e-06 6.38745e-06)
(1.12833 -5.33056e-06 -4.57807e-06)
(1.12834 6.24481e-06 5.98138e-06)
(1.12834 -5.697e-08 -6.54845e-07)
(1.12833 4.65381e-07 -6.26407e-07)
(1.12835 2.67744e-06 7.2663e-06)
(1.12833 1.18694e-06 -7.45454e-06)
(1.12834 9.98898e-07 1.0319e-05)
(1.12834 1.104e-06 -4.75433e-06)
(1.12833 4.72165e-06 2.49067e-06)
(1.12835 -4.55399e-06 5.68173e-06)
(1.12833 7.84344e-06 -6.71008e-06)
(1.12834 -1.74392e-06 1.07962e-05)
(1.12833 -1.38318e-06 -5.92977e-06)
(1.12834 9.89848e-06 4.02468e-06)
(1.12834 -9.98827e-06 5.53993e-06)
(1.12834 1.05292e-05 -7.9187e-06)
(1.12834 -1.49329e-06 1.28207e-05)
(1.12833 -3.60509e-06 -7.031e-06)
(1.12835 1.13161e-05 4.6537e-06)
(1.12832 -8.60744e-06 4.61566e-06)
(1.12835 5.83136e-06 -5.55401e-06)
(1.12833 3.99897e-06 1.00153e-05)
(1.12833 -6.5131e-06 -5.1901e-06)
(1.12836 8.34678e-06 5.27672e-06)
(1.12831 -6.08348e-08 1.19369e-06)
(1.12836 -5.63904e-06 5.74841e-08)
(1.12833 1.31901e-05 3.41148e-06)
(1.12833 -1.02411e-05 7.579e-07)
(1.12836 5.18653e-06 7.48605e-07)
(1.12831 7.21226e-06 3.78823e-06)
(1.12835 -1.26619e-05 -1.36835e-06)
(1.12834 1.57259e-05 3.41258e-06)
(1.12832 -7.21297e-06 1.68869e-06)
(1.12836 -3.49058e-07 -1.38001e-06)
(1.12832 1.14514e-05 5.55379e-06)
(1.12834 -1.2381e-05 -2.43371e-06)
(1.12835 1.29148e-05 3.23218e-06)
(1.12833 -4.22313e-06 1.93295e-06)
(1.12834 4.62887e-07 -1.95563e-06)
(1.12834 7.13523e-06 6.5414e-06)
(1.12826 -8.08119e-06 -4.907e-06)
(1.12828 9.65098e-06 7.63697e-06)
(1.12827 -1.58358e-06 -2.05438e-06)
(1.12826 1.74968e-06 1.31248e-06)
(1.12828 2.83049e-06 6.52092e-06)
(1.12826 1.86075e-06 -6.90244e-06)
(1.12827 1.27006e-06 1.11893e-05)
(1.12827 9.13853e-07 -5.42706e-06)
(1.12826 7.25976e-06 3.74503e-06)
(1.12828 -7.96003e-06 5.56884e-06)
(1.12826 1.27646e-05 -6.52638e-06)
(1.12827 -4.75583e-06 1.16526e-05)
(1.12827 6.76412e-08 -5.99302e-06)
(1.12827 1.18708e-05 4.41696e-06)
(1.12827 -1.26836e-05 6.27141e-06)
(1.12827 1.41746e-05 -8.22151e-06)
(1.12827 -3.22458e-06 1.39158e-05)
(1.12827 -2.63411e-06 -7.23245e-06)
(1.12828 1.24298e-05 5.17804e-06)
(1.12825 -9.46951e-06 5.27092e-06)
(1.12829 7.15641e-06 -5.86793e-06)
(1.12826 4.20677e-06 1.11473e-05)
(1.12826 -6.5437e-06 -5.42829e-06)
(1.12829 8.68957e-06 5.85755e-06)
(1.12824 1.63326e-06 1.66814e-06)
(1.12829 -8.09277e-06 1.31269e-07)
(1.12826 1.69181e-05 3.85626e-06)
(1.12825 -1.23292e-05 1.3614e-06)
(1.1283 5.81805e-06 3.90988e-07)
(1.12824 9.76121e-06 4.95575e-06)
(1.12829 -1.63378e-05 -1.82042e-06)
(1.12827 2.04636e-05 4.19503e-06)
(1.12825 -9.85316e-06 1.89434e-06)
(1.12829 6.12146e-07 -1.34406e-06)
(1.12825 1.36673e-05 6.48906e-06)
(1.12827 -1.53907e-05 -3.10844e-06)
(1.12828 1.68019e-05 4.69265e-06)
(1.12825 -6.14465e-06 1.11861e-06)
(1.12828 1.01107e-06 -9.04461e-07)
(1.12827 9.42918e-06 6.6848e-06)
(1.12742 -9.98289e-06 -5.34164e-06)
(1.12744 1.20301e-05 9.66173e-06)
(1.12743 -2.08175e-06 -3.58264e-06)
(1.12742 2.56103e-06 3.3684e-06)
(1.12745 2.99115e-06 5.94305e-06)
(1.12742 3.25455e-06 -6.40859e-06)
(1.12743 6.35414e-07 1.23403e-05)
(1.12743 1.92565e-06 -6.01384e-06)
(1.12742 8.81895e-06 5.03317e-06)
(1.12744 -1.03818e-05 5.71634e-06)
(1.12742 1.72386e-05 -6.4351e-06)
(1.12743 -7.54715e-06 1.28852e-05)
(1.12743 1.93256e-06 -6.14457e-06)
(1.12742 1.33355e-05 5.02277e-06)
(1.12743 -1.45756e-05 7.14293e-06)
(1.12743 1.72029e-05 -8.57592e-06)
(1.12742 -4.2549e-06 1.54232e-05)
(1.12743 -2.04744e-06 -7.66295e-06)
(1.12744 1.37849e-05 6.14052e-06)
(1.12741 -1.01073e-05 5.72922e-06)
(1.12745 7.93657e-06 -5.88224e-06)
(1.12742 5.48264e-06 1.23006e-05)
(1.12742 -7.62534e-06 -5.55339e-06)
(1.12745 1.00011e-05 6.44573e-06)
(1.1274 2.93889e-06 2.25778e-06)
(1.12745 -1.06199e-05 1.81255e-07)
(1.12742 2.14105e-05 4.46932e-06)
(1.12741 -1.53519e-05 1.95515e-06)
(1.12746 7.49687e-06 7.67974e-08)
(1.1274 1.17419e-05 6.26466e-06)
(1.12745 -1.96518e-05 -2.38198e-06)
(1.12743 2.52753e-05 5.28458e-06)
(1.12741 -1.25684e-05 1.85758e-06)
(1.12746 1.7825e-06 -9.90946e-07)
(1.12741 1.57089e-05 7.2742e-06)
(1.12743 -1.80912e-05 -3.66268e-06)
(1.12744 2.03126e-05 6.29478e-06)
(1.12741 -7.6121e-06 3.04242e-07)
(1.12744 1.40978e-06 2.45444e-07)
(1.12743 1.14526e-05 6.97887e-06)
(1.12167 -1.073e-05 -6.83866e-06)
(1.12167 1.3007e-05 1.2954e-05)
(1.12167 -1.18648e-06 -6.15892e-06)
(1.12165 2.60119e-06 5.7455e-06)
(1.12169 3.48614e-06 5.86157e-06)
(1.12165 4.76578e-06 -7.09291e-06)
(1.12168 -2.69447e-07 1.49871e-05)
(1.12166 3.52062e-06 -7.92964e-06)
(1.12167 9.66257e-06 6.85632e-06)
(1.12167 -1.17638e-05 6.25009e-06)
(1.12167 2.0738e-05 -7.5638e-06)
(1.12166 -9.66031e-06 1.57196e-05)
(1.12168 3.87349e-06 -7.83733e-06)
(1.12166 1.41491e-05 6.32159e-06)
(1.12167 -1.53836e-05 8.10829e-06)
(1.12167 1.93166e-05 -9.96031e-06)
(1.12167 -4.5964e-06 1.83558e-05)
(1.12167 -1.54871e-06 -9.7908e-06)
(1.12168 1.4967e-05 8.1717e-06)
(1.12165 -1.01014e-05 5.54808e-06)
(1.12169 8.13668e-06 -6.08527e-06)
(1.12165 7.41237e-06 1.38145e-05)
(1.12167 -9.03028e-06 -6.4212e-06)
(1.12168 1.18767e-05 7.18234e-06)
(1.12165 3.71174e-06 2.69502e-06)
(1.12169 -1.22167e-05 -1.86014e-07)
(1.12167 2.51004e-05 5.26185e-06)
(1.12165 -1.7638e-05 2.10751e-06)
(1.1217 9.06726e-06 -4.03026e-07)
(1.12164 1.33909e-05 7.75405e-06)
(1.12168 -2.19711e-05 -3.53198e-06)
(1.12168 2.89121e-05 6.83285e-06)
(1.12165 -1.41704e-05 1.28385e-06)
(1.12169 2.52603e-06 -6.65151e-07)
(1.12166 1.75651e-05 8.29929e-06)
(1.12166 -1.97596e-05 -4.91686e-06)
(1.12169 2.2593e-05 8.62969e-06)
(1.12164 -7.78179e-06 -1.26971e-06)
(1.12169 1.26762e-06 1.47125e-06)
(1.12167 1.32944e-05 7.77585e-06)
(1.1026 -1.02692e-05 -1.00702e-05)
(1.1026 1.28793e-05 1.96286e-05)
(1.10261 3.5838e-07 -1.47222e-05)
(1.10258 2.36056e-06 1.26515e-05)
(1.10263 4.11895e-06 2.729e-06)
(1.10258 5.99573e-06 -9.25513e-06)
(1.10262 -9.52565e-07 2.11008e-05)
(1.10259 5.28843e-06 -1.64209e-05)
(1.10261 9.56077e-06 1.35418e-05)
(1.10259 -1.14112e-05 3.31222e-06)
(1.10262 2.22352e-05 -1.02965e-05)
(1.10259 -1.0402e-05 2.20964e-05)
(1.10262 5.65732e-06 -1.65806e-05)
(1.10259 1.38274e-05 1.28596e-05)
(1.10262 -1.44252e-05 4.93352e-06)
(1.10259 1.98e-05 -1.22695e-05)
(1.10262 -4.3171e-06 2.37641e-05)
(1.10259 -6.6754e-07 -1.79016e-05)
(1.10262 1.50693e-05 1.46365e-05)
(1.10259 -9.2492e-06 1.11687e-06)
(1.10263 8.21498e-06 -5.85893e-06)
(1.10259 8.43167e-06 1.52017e-05)
(1.10261 -9.26163e-06 -9.83216e-06)
(1.10261 1.29597e-05 9.05609e-06)
(1.1026 3.85438e-06 1.64793e-06)
(1.10261 -1.18293e-05 -1.48198e-06)
(1.10262 2.58809e-05 6.58227e-06)
(1.10258 -1.74854e-05 2.73139e-07)
(1.10264 9.6135e-06 -3.0855e-07)
(1.10258 1.40139e-05 8.71476e-06)
(1.10261 -2.17595e-05 -6.30043e-06)
(1.10262 2.94743e-05 9.83486e-06)
(1.10258 -1.35093e-05 -2.12487e-06)
(1.10263 2.50578e-06 1.11645e-06)
(1.1026 1.84751e-05 8.4974e-06)
(1.10259 -1.94288e-05 -8.0573e-06)
(1.10263 2.26571e-05 1.36466e-05)
(1.10258 -6.43669e-06 -7.29089e-06)
(1.10262 7.20668e-07 5.89892e-06)
(1.10259 1.44869e-05 6.64815e-06)
(1.06779 -8.48971e-06 -3.21891e-06)
(1.06779 1.14448e-05 1.98985e-05)
(1.0678 2.24429e-06 -2.63158e-05)
(1.06777 1.96217e-06 2.88782e-05)
(1.06782 4.53456e-06 -1.58267e-05)
(1.06776 6.94057e-06 1.0156e-06)
(1.06782 -1.49101e-06 1.92432e-05)
(1.06777 7.01509e-06 -2.77226e-05)
(1.06781 8.3409e-06 2.98507e-05)
(1.06778 -9.26265e-06 -1.55735e-05)
(1.06781 2.13017e-05 -4.65224e-07)
(1.06778 -9.66283e-06 2.06966e-05)
(1.06781 7.11094e-06 -2.82633e-05)
(1.06778 1.19622e-05 2.88582e-05)
(1.06781 -1.13105e-05 -1.34303e-05)
(1.06778 1.7943e-05 -2.55027e-06)
(1.06782 -3.08557e-06 2.13492e-05)
(1.06777 4.52756e-07 -2.68509e-05)
(1.06783 1.34894e-05 2.67535e-05)
(1.06777 -6.73831e-06 -1.30905e-05)
(1.06782 7.0418e-06 1.71269e-06)
(1.06779 9.00945e-06 1.16772e-05)
(1.06779 -8.21624e-06 -1.31117e-05)
(1.06781 1.2227e-05 1.28625e-05)
(1.06779 4.52914e-06 -3.06091e-06)
(1.06779 -1.08318e-05 -9.93348e-07)
(1.06782 2.44833e-05 7.25123e-06)
(1.06776 -1.53596e-05 -3.43712e-06)
(1.06783 8.78168e-06 2.30179e-06)
(1.06777 1.40172e-05 5.92483e-06)
(1.0678 -1.98663e-05 -7.16704e-06)
(1.06781 2.74272e-05 1.20614e-05)
(1.06777 -1.1174e-05 -8.21935e-06)
(1.06781 1.83812e-06 7.61868e-06)
(1.06779 1.83394e-05 1.3611e-06)
(1.06778 -1.75218e-05 -5.7094e-06)
(1.06781 2.08858e-05 1.56221e-05)
(1.06777 -4.31162e-06 -1.67334e-05)
(1.06781 2.54522e-07 1.82142e-05)
(1.06779 1.44418e-05 -7.11036e-06)
(1.02063 -6.20836e-06 1.48596e-05)
(1.02064 9.12491e-06 -5.76259e-07)
(1.02065 4.51866e-06 -1.66577e-05)
(1.02062 9.43397e-07 2.98177e-05)
(1.02067 5.22226e-06 -3.34448e-05)
(1.02061 7.15666e-06 2.4183e-05)
(1.02067 -1.65145e-06 -6.18026e-06)
(1.02062 8.23634e-06 -1.50459e-05)
(1.02067 6.58703e-06 2.96234e-05)
(1.02063 -6.18032e-06 -3.31448e-05)
(1.02067 1.8357e-05 2.26824e-05)
(1.02063 -7.29266e-06 -3.92349e-06)
(1.02066 7.04817e-06 -1.67264e-05)
(1.02064 1.0131e-05 2.98114e-05)
(1.02065 -7.60585e-06 -3.08225e-05)
(1.02064 1.42703e-05 1.93134e-05)
(1.02067 -3.8049e-07 -6.49148e-07)
(1.02061 -7.06489e-09 -1.68665e-05)
(1.0207 1.21623e-05 2.70395e-05)
(1.0206 -4.2568e-06 -2.54501e-05)
(1.02069 4.94279e-06 1.58177e-05)
(1.02063 9.95266e-06 -1.71507e-06)
(1.02065 -7.76797e-06 -7.89041e-06)
(1.02066 1.13434e-05 1.22653e-05)
(1.02063 4.87996e-06 -7.94081e-06)
(1.02065 -9.84695e-06 2.32583e-06)
(1.02067 2.24886e-05 4.51167e-06)
(1.02061 -1.30946e-05 -5.22104e-06)
(1.02068 7.65089e-06 4.3104e-06)
(1.02061 1.33955e-05 1.29903e-06)
(1.02066 -1.73608e-05 -4.56739e-06)
(1.02065 2.42591e-05 8.75969e-06)
(1.02063 -8.37802e-06 -8.9883e-06)
(1.02065 9.07658e-07 9.81506e-06)
(1.02064 1.74785e-05 -6.89131e-06)
(1.02063 -1.48171e-05 3.31131e-06)
(1.02066 1.78817e-05 4.61048e-06)
(1.02062 -1.6023e-06 -1.2723e-05)
(1.02065 -6.17592e-07 2.03001e-05)
(1.02065 1.38685e-05 -2.14226e-05)
(0.964624 -4.59511e-06 1.79008e-05)
(0.964648 7.2478e-06 -1.63665e-05)
(0.96464 6.11833e-06 2.19759e-06)
(0.964623 -1.50996e-07 9.54034e-06)
(0.964666 6.08754e-06 -2.52291e-05)
(0.96461 6.38194e-06 2.7012e-05)
(0.96467 -1.07621e-06 -2.4832e-05)
(0.964616 8.31741e-06 7.70856e-06)
(0.964665 5.19397e-06 6.45649e-06)
(0.964621 -3.4618e-06 -2.32312e-05)
(0.964663 1.48124e-05 2.50754e-05)
(0.964628 -4.43032e-06 -2.1884e-05)
(0.964653 5.71571e-06 5.07847e-06)
(0.964642 9.11718e-06 8.79861e-06)
(0.964643 -5.13549e-06 -2.28813e-05)
(0.964644 1.1007e-05 2.3253e-05)
(0.964656 1.89886e-06 -1.77618e-05)
(0.964617 -1.08817e-06 2.32384e-06)
(0.964688 1.1443e-05 1.00043e-05)
(0.964592 -3.03907e-06 -1.9675e-05)
(0.964691 3.61118e-06 1.84717e-05)
(0.96461 1.00622e-05 -1.25788e-05)
(0.964655 -7.32852e-06 2.17283e-06)
(0.964645 1.05303e-05 4.20549e-06)
(0.964632 4.54259e-06 -6.88458e-06)
(0.964644 -8.37557e-06 3.39947e-06)
(0.96465 1.97575e-05 7.45742e-07)
(0.964615 -1.0699e-05 -4.78487e-06)
(0.96467 6.4812e-06 4.24158e-06)
(0.964611 1.23379e-05 -2.17225e-06)
(0.964654 -1.45789e-05 -2.652e-06)
(0.964634 2.06696e-05 4.93838e-06)
(0.964633 -5.63416e-06 -7.7234e-06)
(0.964638 -9.51888e-08 6.83068e-06)
(0.964646 1.64143e-05 -7.90248e-06)
(0.964616 -1.23095e-05 5.0243e-06)
(0.964663 1.49256e-05 -3.89317e-06)
(0.964615 7.73229e-07 -3.65322e-06)
(0.964646 -1.62448e-06 8.75192e-06)
(0.964643 1.34053e-05 -1.79558e-05)
(0.902704 -3.51573e-06 9.83721e-06)
(0.902727 5.82204e-06 -1.66596e-05)
(0.902712 6.77048e-06 7.94318e-06)
(0.902709 -7.96059e-07 -5.55255e-06)
(0.902735 6.36465e-06 -1.02075e-05)
(0.902695 5.36585e-06 1.32858e-05)
(0.902744 -3.17572e-07 -2.23028e-05)
(0.902695 7.44181e-06 1.35397e-05)
(0.902745 4.46111e-06 -9.81056e-06)
(0.902696 -1.83435e-06 -6.62573e-06)
(0.902744 1.17326e-05 1.07429e-05)
(0.902703 -2.07593e-06 -1.88409e-05)
(0.902733 4.02933e-06 1.06734e-05)
(0.902719 8.54184e-06 -5.9775e-06)
(0.902719 -3.7541e-06 -8.37005e-06)
(0.902727 8.56544e-06 1.19313e-05)
(0.902724 3.2881e-06 -1.66399e-05)
(0.902706 -1.95212e-06 8.37813e-06)
(0.902753 1.06862e-05 -2.70107e-06)
(0.902679 -2.33391e-06 -8.3222e-06)
(0.902765 2.68713e-06 1.0099e-05)
(0.902683 9.62956e-06 -1.18222e-05)
(0.902743 -6.66651e-06 5.12554e-06)
(0.902709 9.46937e-06 -2.22987e-06)
(0.90272 4.18663e-06 -3.00803e-06)
(0.902714 -7.06389e-06 7.15975e-07)
(0.902726 1.70199e-05 -5.31752e-07)
(0.902698 -8.48394e-06 -4.44065e-06)
(0.902737 5.22727e-06 3.04125e-06)
(0.902695 1.12754e-05 -4.31334e-06)
(0.902727 -1.22017e-05 -1.36774e-06)
(0.90271 1.74097e-05 1.53054e-06)
(0.902714 -3.47171e-06 -6.86993e-06)
(0.90271 -9.1385e-07 4.19334e-06)
(0.902726 1.52222e-05 -7.69809e-06)
(0.90269 -1.03028e-05 2.96003e-06)
(0.902742 1.24407e-05 -5.90727e-06)
(0.902688 2.3114e-06 -1.08744e-06)
(0.902727 -2.33486e-06 3.74304e-07)
(0.902715 1.26656e-05 -1.04942e-05)
(0.837217 -2.83953e-06 2.81637e-06)
(0.837231 4.72502e-06 -1.26026e-05)
(0.837219 6.75627e-06 4.99712e-06)
(0.837221 -1.16848e-06 -9.75329e-06)
(0.837237 6.14878e-06 -3.21604e-06)
(0.83721 4.45837e-06 1.74288e-06)
(0.837246 1.94212e-07 -1.37158e-05)
(0.837208 6.3626e-06 7.77221e-06)
(0.837251 3.99714e-06 -1.2258e-05)
(0.837206 -1.0214e-06 1.67743e-07)
(0.837253 9.44348e-06 -4.31884e-07)
(0.83721 -6.20662e-07 -1.0296e-05)
(0.837244 2.72157e-06 5.73117e-06)
(0.837224 7.99026e-06 -8.40982e-06)
(0.837229 -3.04462e-06 -2.08466e-06)
(0.837235 6.95799e-06 2.99218e-06)
(0.837228 3.79142e-06 -1.05858e-05)
(0.837222 -2.3865e-06 5.81877e-06)
(0.837249 9.86256e-06 -5.70481e-06)
(0.837198 -2.02522e-06 -3.04956e-06)
(0.837263 2.20865e-06 3.47368e-06)
(0.837195 8.77196e-06 -7.8188e-06)
(0.837251 -5.95227e-06 2.99774e-06)
(0.837209 8.45561e-06 -3.41886e-06)
(0.837235 3.58804e-06 -1.84926e-06)
(0.837214 -5.79982e-06 -1.21382e-06)
(0.837236 1.44896e-05 -8.04466e-07)
(0.837205 -6.79456e-06 -4.76852e-06)
(0.83724 4.26484e-06 2.07202e-06)
(0.837205 9.97098e-06 -5.73941e-06)
(0.837229 -1.01567e-05 -5.92316e-07)
(0.837216 1.46128e-05 -1.50274e-06)
(0.83722 -2.10645e-06 -5.89943e-06)
(0.837215 -1.32536e-06 1.82663e-06)
(0.837232 1.3721e-05 -7.82239e-06)
(0.837198 -8.70426e-06 1.13887e-06)
(0.837247 1.03968e-05 -6.53776e-06)
(0.837194 3.03565e-06 -1.70138e-06)
(0.837238 -2.72004e-06 -3.10336e-06)
(0.837217 1.16567e-05 -7.06018e-06)
(0.769985 -2.38162e-06 -1.18428e-06)
(0.769989 3.9082e-06 -9.79336e-06)
(0.769986 6.26743e-06 1.01905e-06)
(0.769985 -1.26638e-06 -9.40399e-06)
(0.769998 5.65428e-06 -2.21886e-06)
(0.769978 3.70402e-06 -3.35821e-06)
(0.770005 5.1026e-07 -8.28812e-06)
(0.769977 5.3363e-06 1.58282e-06)
(0.77001 3.61639e-06 -9.26113e-06)
(0.769973 -5.59519e-07 -1.23617e-07)
(0.770015 7.7117e-06 -4.1714e-06)
(0.769974 1.90662e-07 -5.23616e-06)
(0.770009 1.8904e-06 7.57303e-07)
(0.769985 7.2168e-06 -6.25553e-06)
(0.769997 -2.50302e-06 -1.24406e-06)
(0.769994 5.7724e-06 -4.82348e-07)
(0.769992 3.7122e-06 -6.62415e-06)
(0.769988 -2.36615e-06 2.92976e-06)
(0.770003 8.77898e-06 -5.25937e-06)
(0.76997 -1.80038e-06 -1.53662e-06)
(0.770014 1.92031e-06 5.71517e-07)
(0.769963 7.61275e-06 -5.42457e-06)
(0.770008 -5.12832e-06 1.12726e-06)
(0.76997 7.33831e-06 -3.20385e-06)
(0.769998 2.94569e-06 -2.19475e-06)
(0.769971 -4.66538e-06 -1.66284e-06)
(0.769998 1.20404e-05 -1.79448e-06)
(0.769964 -5.39862e-06 -4.5558e-06)
(0.769999 3.42308e-06 6.80253e-07)
(0.769967 8.57321e-06 -6.48512e-06)
(0.769989 -8.38402e-06 -4.36297e-07)
(0.769977 1.20719e-05 -4.12038e-06)
(0.769982 -1.24684e-06 -4.90509e-06)
(0.769976 -1.49603e-06 -7.00935e-07)
(0.769992 1.20017e-05 -7.81571e-06)
(0.769962 -7.33781e-06 -4.61589e-07)
(0.770006 8.65423e-06 -7.21678e-06)
(0.769958 3.17788e-06 -2.75634e-06)
(0.770001 -2.77285e-06 -4.76663e-06)
(0.769976 1.04205e-05 -6.24505e-06)
(0.702399 -1.98735e-06 -3.23225e-06)
(0.702396 3.25844e-06 -8.32072e-06)
(0.702399 5.57846e-06 -1.65084e-06)
(0.702395 -1.17526e-06 -8.18025e-06)
(0.702407 5.0065e-06 -2.8628e-06)
(0.702391 3.11645e-06 -4.68061e-06)
(0.702412 6.59318e-07 -6.00742e-06)
(0.70239 4.43441e-06 -1.49533e-06)
(0.702417 3.26415e-06 -6.3116e-06)
(0.702387 -3.29466e-07 -1.82584e-06)
(0.702421 6.33882e-06 -3.87848e-06)
(0.702386 6.12795e-07 -3.47362e-06)
(0.702418 1.32671e-06 -1.36939e-06)
(0.702392 6.33224e-06 -4.03775e-06)
(0.702408 -2.0556e-06 -1.59879e-06)
(0.702398 4.75604e-06 -1.19687e-06)
(0.702402 3.38277e-06 -4.52871e-06)
(0.702395 -2.19262e-06 1.28314e-06)
(0.702407 7.55464e-06 -4.34255e-06)
(0.702383 -1.577e-06 -1.05305e-06)
(0.702413 1.60256e-06 -8.27227e-07)
(0.702376 6.4028e-06 -4.11307e-06)
(0.702409 -4.3276e-06 -3.69491e-08)
(0.702378 6.12936e-06 -3.26843e-06)
(0.702403 2.39831e-06 -2.525e-06)
(0.702376 -3.80165e-06 -2.14335e-06)
(0.702404 9.82628e-06 -2.86571e-06)
(0.702371 -4.26177e-06 -4.28135e-06)
(0.702404 2.60599e-06 -1.21875e-06)
(0.702374 7.26365e-06 -6.47441e-06)
(0.702395 -6.94457e-06 -1.31782e-06)
(0.702383 9.84532e-06 -5.94066e-06)
(0.70239 -6.95703e-07 -4.31252e-06)
(0.702383 -1.5615e-06 -3.20507e-06)
(0.702399 1.02856e-05 -7.54896e-06)
(0.702373 -6.15057e-06 -2.10947e-06)
(0.70241 7.1523e-06 -7.74288e-06)
(0.702371 3.0248e-06 -3.68102e-06)
(0.702409 -2.614e-06 -5.78238e-06)
(0.702384 9.08355e-06 -6.24734e-06)
(0.635497 -1.61467e-06 -4.05999e-06)
(0.63549 2.70814e-06 -7.41723e-06)
(0.635498 4.84283e-06 -2.88497e-06)
(0.635491 -1.00532e-06 -6.90954e-06)
(0.635504 4.30313e-06 -3.28279e-06)
(0.635489 2.64704e-06 -4.47318e-06)
(0.635507 6.73503e-07 -4.9116e-06)
(0.635489 3.66904e-06 -2.19821e-06)
(0.63551 2.88504e-06 -4.50126e-06)
(0.635485 -2.37338e-07 -2.56418e-06)
(0.635513 5.21509e-06 -2.56452e-06)
(0.635483 7.60485e-07 -2.99263e-06)
(0.63551 9.16197e-07 -1.52755e-06)
(0.635487 5.41659e-06 -2.71034e-06)
(0.635502 -1.71866e-06 -1.69927e-06)
(0.63549 3.86208e-06 -1.0868e-06)
(0.635497 2.92719e-06 -3.40774e-06)
(0.635486 -1.99497e-06 3.6893e-07)
(0.635499 6.33171e-06 -3.56253e-06)
(0.635478 -1.38803e-06 -1.10615e-06)
(0.6355 1.25001e-06 -1.66419e-06)
(0.635474 5.2756e-06 -3.41478e-06)
(0.635497 -3.64323e-06 -1.13111e-06)
(0.635473 4.96065e-06 -3.49672e-06)
(0.635494 1.95792e-06 -2.95169e-06)
(0.63547 -3.18404e-06 -2.93527e-06)
(0.635496 7.94105e-06 -3.68095e-06)
(0.635466 -3.3781e-06 -4.54453e-06)
(0.635496 1.8863e-06 -2.87848e-06)
(0.635469 6.10684e-06 -6.32763e-06)
(0.63549 -5.77986e-06 -2.84111e-06)
(0.635477 7.97448e-06 -6.77643e-06)
(0.635486 -3.51356e-07 -4.38356e-06)
(0.635478 -1.52812e-06 -5.14644e-06)
(0.635494 8.68355e-06 -7.13055e-06)
(0.635472 -5.10588e-06 -3.61564e-06)
(0.635504 5.8677e-06 -7.84906e-06)
(0.635471 2.74559e-06 -4.33609e-06)
(0.635504 -2.33473e-06 -6.28698e-06)
(0.635481 7.76159e-06 -6.21185e-06)
(0.570044 -1.27392e-06 -4.11347e-06)
(0.570035 2.21246e-06 -6.57633e-06)
(0.570045 4.12513e-06 -3.02447e-06)
(0.570036 -8.30307e-07 -5.69642e-06)
(0.570049 3.60282e-06 -3.14272e-06)
(0.570035 2.24188e-06 -3.71039e-06)
(0.570051 5.97459e-07 -3.98635e-06)
(0.570035 3.00727e-06 -1.85421e-06)
(0.570052 2.47082e-06 -3.40119e-06)
(0.570031 -2.16697e-07 -2.30976e-06)
(0.570054 4.25397e-06 -1.48903e-06)
(0.570029 7.36029e-07 -2.68384e-06)
(0.570051 6.04557e-07 -1.01857e-06)
(0.57003 4.51473e-06 -2.0788e-06)
(0.570044 -1.46267e-06 -1.52729e-06)
(0.570031 3.0733e-06 -9.78836e-07)
(0.57004 2.43295e-06 -2.85031e-06)
(0.570027 -1.78657e-06 -2.49538e-07)
(0.57004 5.17911e-06 -3.14656e-06)
(0.570021 -1.21991e-06 -1.53774e-06)
(0.570039 9.09746e-07 -2.21453e-06)
(0.570019 4.27686e-06 -3.31473e-06)
(0.570036 -3.0626e-06 -2.18004e-06)
(0.570018 3.92418e-06 -3.80209e-06)
(0.570035 1.59917e-06 -3.58631e-06)
(0.570015 -2.71929e-06 -3.73908e-06)
(0.570037 6.38501e-06 -4.38206e-06)
(0.570012 -2.69411e-06 -5.09375e-06)
(0.570038 1.31373e-06 -3.99345e-06)
(0.570015 5.10018e-06 -6.41953e-06)
(0.570033 -4.80958e-06 -4.18227e-06)
(0.570022 6.42675e-06 -6.93298e-06)
(0.570032 -1.3352e-07 -4.85495e-06)
(0.570023 -1.42318e-06 -6.17586e-06)
(0.570039 7.24035e-06 -6.68328e-06)
(0.570019 -4.18157e-06 -4.63349e-06)
(0.570047 4.76464e-06 -7.48396e-06)
(0.57002 2.43298e-06 -4.62927e-06)