/*--------------------------------*- C++ -*----------------------------------*\
  =========                 |
  \\      /  F ield         | OpenFOAM: The Open Source CFD Toolbox
   \\    /   O peration     | Website:  https://openfoam.org
    \\  /    A nd           | Version:  10
     \\/     M anipulation  |
\*---------------------------------------------------------------------------*/
FoamFile
{
    format      ascii;
    class       surfaceScalarField;
    location    "6";
    object      phi;
}
// * * * * * * * * * * * * * * * * * * * * * * * * * * * * * * * * * * * * * //

dimensions      [0 3 -1 0 0 0 0];

internalField   nonuniform List<scalar> 
300480
(
1.57761e-06
-4.86387e-07
8.47904e-07
1.48427e-06
-1.6826e-07
2.89263e-07
1.39675e-06
2.36306e-07
-5.31093e-07
1.45767e-06
4.5666e-07
-7.65905e-07
1.57202e-06
-3.0268e-07
4.03741e-07
1.56537e-06
-4.64097e-07
7.04278e-07
1.49342e-06
-1.67728e-07
2.71292e-07
1.41298e-06
1.79816e-07
-4.55296e-07
1.44954e-06
3.66871e-07
-6.0579e-07
1.52817e-06
-2.87224e-07
4.70831e-07
1.52765e-06
-4.56602e-07
7.78638e-07
1.47416e-06
-1.81454e-07
2.47565e-07
1.42073e-06
1.78775e-07
-4.23161e-07
1.49611e-06
3.44839e-07
-5.76837e-07
1.59792e-06
-3.46389e-07
5.22963e-07
1.55838e-06
-4.38015e-07
8.56239e-07
1.46293e-06
-1.58602e-07
3.14687e-07
1.37187e-06
3.33612e-07
-5.57961e-07
1.43122e-06
5.78222e-07
-8.93354e-07
1.56757e-06
-2.62146e-07
2.72253e-07
1.55086e-06
-4.85123e-07
8.22849e-07
1.44859e-06
-1.05716e-07
2.17948e-07
1.37378e-06
3.26233e-07
-6.11382e-07
1.44296e-06
4.75067e-07
-7.88337e-07
1.57764e-06
-2.54702e-07
3.36845e-07
1.57945e-06
-4.64789e-07
8.2481e-07
1.4897e-06
-1.84897e-07
2.53639e-07
1.42486e-06
2.49614e-07
-5.45737e-07
1.47261e-06
4.17165e-07
-7.29107e-07
1.57231e-06
-2.56418e-07
3.04138e-07
1.57693e-06
-4.32826e-07
8.36754e-07
1.47977e-06
-1.56783e-07
2.7229e-07
1.3909e-06
2.51899e-07
-4.84207e-07
1.44702e-06
4.71183e-07
-7.27704e-07
1.56694e-06
-2.2373e-07
3.50212e-07
1.57516e-06
-4.60866e-07
8.09909e-07
1.49653e-06
-1.98552e-07
2.99945e-07
1.41715e-06
2.03304e-07
-4.57359e-07
1.47595e-06
4.79462e-07
-7.1642e-07
-2.67274e-07
3.38693e-07
5.28596e-06
-1.63122e-06
2.71467e-06
4.958e-06
-5.43723e-07
1.06192e-06
4.65131e-06
1.03536e-06
-1.88653e-06
4.94879e-06
1.67794e-06
-2.74031e-06
5.30824e-06
-1.10777e-06
1.05812e-06
5.25177e-06
-1.54908e-06
2.28985e-06
4.99864e-06
-5.46457e-07
1.01693e-06
4.69792e-06
8.51187e-07
-1.65798e-06
4.9067e-06
1.3749e-06
-2.22996e-06
5.16203e-06
-1.0306e-06
1.27246e-06
5.12133e-06
-1.51534e-06
2.53978e-06
4.93237e-06
-6.15314e-07
9.73788e-07
4.73038e-06
8.30458e-07
-1.54657e-06
5.06686e-06
1.24772e-06
-2.12766e-06
5.38795e-06
-1.27696e-06
1.41936e-06
5.22202e-06
-1.44734e-06
2.76461e-06
4.87623e-06
-5.04487e-07
1.14453e-06
4.56218e-06
1.39004e-06
-2.00358e-06
4.87804e-06
2.10706e-06
-3.09105e-06
5.30419e-06
-9.23567e-07
6.69512e-07
5.188e-06
-1.61386e-06
2.65717e-06
4.83002e-06
-3.1353e-07
8.12619e-07
4.57753e-06
1.34269e-06
-2.13618e-06
4.89893e-06
1.73182e-06
-2.79262e-06
5.33181e-06
-9.3563e-07
8.29988e-07
5.29701e-06
-1.57905e-06
2.66632e-06
4.98053e-06
-6.18923e-07
9.58121e-07
4.74956e-06
1.07324e-06
-1.90875e-06
4.99073e-06
1.53364e-06
-2.60969e-06
5.30711e-06
-8.81612e-07
7.23699e-07
5.28538e-06
-1.42188e-06
2.69676e-06
4.952e-06
-5.39058e-07
1.02721e-06
4.63337e-06
1.08697e-06
-1.72198e-06
4.90163e-06
1.76697e-06
-2.60757e-06
5.29533e-06
-8.03966e-07
8.92864e-07
5.2852e-06
-1.56266e-06
2.61859e-06
5.00766e-06
-6.72252e-07
1.1183e-06
4.7087e-06
9.34717e-07
-1.65327e-06
4.99957e-06
1.78196e-06
-2.58143e-06
-1.01324e-06
8.45481e-07
9.90839e-06
-3.08077e-06
4.76753e-06
9.30632e-06
-1.03027e-06
2.3803e-06
8.70289e-06
2.40955e-06
-3.30322e-06
9.32561e-06
3.64912e-06
-5.51477e-06
9.97958e-06
-2.19015e-06
1.15896e-06
9.84374e-06
-2.90116e-06
4.08119e-06
9.38731e-06
-1.02403e-06
2.28131e-06
8.77803e-06
2.08712e-06
-2.95274e-06
9.23604e-06
3.05125e-06
-4.60354e-06
9.70699e-06
-2.00206e-06
1.56558e-06
9.58941e-06
-2.82243e-06
4.55197e-06
9.25454e-06
-1.18338e-06
2.24962e-06
8.84261e-06
2.02242e-06
-2.75794e-06
9.53762e-06
2.70985e-06
-4.41689e-06
1.01241e-05
-2.58551e-06
1.79891e-06
9.78601e-06
-2.67842e-06
4.91896e-06
9.14376e-06
-9.55803e-07
2.54477e-06
8.53706e-06
3.14094e-06
-3.5448e-06
9.21664e-06
4.54064e-06
-6.06734e-06
9.98667e-06
-1.70805e-06
4.6595e-07
9.71901e-06
-3.02728e-06
4.71251e-06
9.05748e-06
-5.54601e-07
1.91847e-06
8.5665e-06
3.02021e-06
-3.76679e-06
9.23425e-06
3.72039e-06
-5.57684e-06
1.00271e-05
-1.826e-06
6.98418e-07
9.93056e-06
-3.02389e-06
4.72182e-06
9.35046e-06
-1.24584e-06
2.2187e-06
8.89372e-06
2.46798e-06
-3.3314e-06
9.40634e-06
3.32949e-06
-5.23438e-06
9.97548e-06
-1.60287e-06
5.19458e-07
9.90421e-06
-2.61879e-06
4.76952e-06
9.30452e-06
-1.07253e-06
2.32559e-06
8.67445e-06
2.50545e-06
-3.00793e-06
9.2312e-06
3.87492e-06
-5.23103e-06
9.95876e-06
-1.51433e-06
8.5874e-07
9.90886e-06
-2.96293e-06
4.61646e-06
9.40435e-06
-1.31902e-06
2.48881e-06
8.79837e-06
2.23495e-06
-2.90127e-06
9.41217e-06
3.8993e-06
-5.2088e-06
-2.04105e-06
7.45775e-07
1.55465e-05
-4.33876e-06
6.6926e-06
1.46711e-05
-1.47792e-06
4.56029e-06
1.368e-05
4.26828e-06
-4.23212e-06
1.46673e-05
6.36885e-06
-9.22902e-06
1.56733e-05
-3.16187e-06
1.5462e-08
1.54281e-05
-4.01938e-06
5.81641e-06
1.47954e-05
-1.42896e-06
4.36158e-06
1.37752e-05
3.88788e-06
-3.84266e-06
1.45172e-05
5.45633e-06
-7.89524e-06
1.52525e-05
-2.80459e-06
6.72974e-07
1.5012e-05
-3.8739e-06
6.54717e-06
1.45645e-05
-1.69111e-06
4.3796e-06
1.38745e-05
3.76794e-06
-3.58105e-06
1.49857e-05
4.78793e-06
-7.615e-06
1.58976e-05
-3.91845e-06
1.00094e-06
1.5347e-05
-3.64231e-06
7.05778e-06
1.44116e-05
-1.38207e-06
4.85564e-06
1.34329e-05
5.41582e-06
-4.6102e-06
1.45367e-05
7.82124e-06
-9.94043e-06
1.5714e-05
-2.19921e-06
-1.0211e-06
1.52496e-05
-4.21569e-06
6.70684e-06
1.42722e-05
-7.27831e-07
3.87854e-06
1.34686e-05
5.21553e-06
-4.98159e-06
1.45305e-05
6.38342e-06
-9.26493e-06
1.5751e-05
-2.56719e-06
-7.59168e-07
1.55762e-05
-4.33245e-06
6.68478e-06
1.47373e-05
-1.955e-06
4.36468e-06
1.39913e-05
4.31903e-06
-4.2862e-06
1.48148e-05
5.78623e-06
-8.70275e-06
1.56704e-05
-2.01442e-06
-9.68512e-07
1.55281e-05
-3.52357e-06
6.75393e-06
1.46786e-05
-1.61659e-06
4.47137e-06
1.3649e-05
4.391e-06
-3.82054e-06
1.45228e-05
6.76865e-06
-8.70156e-06
1.56469e-05
-1.95901e-06
-4.44061e-07
1.55401e-05
-4.15731e-06
6.48443e-06
1.48241e-05
-1.97242e-06
4.70384e-06
1.38149e-05
4.04664e-06
-3.67285e-06
1.47934e-05
6.83763e-06
-8.7139e-06
-2.98779e-06
-6.51533e-07
2.22664e-05
-4.79205e-06
7.85412e-06
2.11727e-05
-1.59369e-06
7.74669e-06
1.97116e-05
6.47194e-06
-3.88185e-06
2.10249e-05
9.7512e-06
-1.36668e-05
2.24315e-05
-3.56895e-06
-3.03386e-06
2.20513e-05
-4.2777e-06
6.92873e-06
2.13365e-05
-1.45839e-06
7.41239e-06
1.98114e-05
6.22186e-06
-3.59032e-06
2.07998e-05
8.60008e-06
-1.19493e-05
2.18551e-05
-2.96883e-06
-2.13658e-06
2.14367e-05
-4.0316e-06
7.93117e-06
2.09624e-05
-1.79214e-06
7.52475e-06
1.99403e-05
6.06848e-06
-3.29629e-06
2.14517e-05
7.52256e-06
-1.15636e-05
2.27555e-05
-4.83048e-06
-1.71647e-06
2.19715e-05
-3.74596e-06
8.61775e-06
2.0807e-05
-1.49671e-06
8.25494e-06
1.93861e-05
7.93899e-06
-4.36266e-06
2.0901e-05
1.17458e-05
-1.44518e-05
2.25481e-05
-1.91958e-06
-4.48616e-06
2.18582e-05
-4.5421e-06
8.0482e-06
2.05991e-05
-6.07146e-07
6.88663e-06
1.94154e-05
7.72046e-06
-5.01274e-06
2.08406e-05
9.56615e-06
-1.36251e-05
2.25455e-05
-2.72964e-06
-4.21695e-06
2.22939e-05
-4.90823e-06
7.9169e-06
2.12548e-05
-2.49118e-06
7.55441e-06
2.01749e-05
6.44061e-06
-4.00091e-06
2.12872e-05
8.79755e-06
-1.27646e-05
2.24485e-05
-1.72663e-06
-4.39208e-06
2.22166e-05
-3.50329e-06
8.02763e-06
2.11937e-05
-1.87322e-06
7.60473e-06
1.96956e-05
6.55528e-06
-3.4138e-06
2.08377e-05
1.03155e-05
-1.27752e-05
2.24107e-05
-1.7739e-06
-3.63616e-06
2.22388e-05
-4.5178e-06
7.59247e-06
2.13828e-05
-2.31227e-06
7.88174e-06
1.98882e-05
6.26203e-06
-3.21138e-06
2.11913e-05
1.05279e-05
-1.28582e-05
-3.40044e-06
-4.02104e-06
3.01023e-05
-3.86843e-06
7.2922e-06
2.88852e-05
-9.0824e-07
1.16917e-05
2.69286e-05
8.93317e-06
-1.43322e-06
2.84158e-05
1.35321e-05
-1.79821e-05
3.02467e-05
-3.01447e-06
-8.48613e-06
2.97252e-05
-3.07474e-06
6.52686e-06
2.90742e-05
-6.60582e-07
1.12335e-05
2.70183e-05
9.09032e-06
-1.40374e-06
2.81018e-05
1.23411e-05
-1.60009e-05
2.95349e-05
-2.09395e-06
-7.34052e-06
2.88963e-05
-2.66565e-06
7.74903e-06
2.85061e-05
-9.72094e-07
1.14782e-05
2.71595e-05
8.96184e-06
-1.12696e-06
2.89323e-05
1.08518e-05
-1.54941e-05
3.06919e-05
-4.95066e-06
-6.78072e-06
2.97027e-05
-2.46284e-06
8.70623e-06
2.84158e-05
-8.00436e-07
1.25345e-05
2.65263e-05
1.04436e-05
-1.91192e-06
2.83279e-05
1.58412e-05
-1.86976e-05
3.05049e-05
-6.18568e-07
-1.03285e-05
2.96056e-05
-3.41667e-06
7.81937e-06
2.81265e-05
2.0649e-07
1.07621e-05
2.65407e-05
1.0357e-05
-3.02406e-06
2.81826e-05
1.29442e-05
-1.78096e-05
3.03997e-05
-1.99891e-06
-1.0121e-05
3.01132e-05
-4.17487e-06
7.43637e-06
2.89713e-05
-2.40317e-06
1.15485e-05
2.75704e-05
8.67222e-06
-1.65862e-06
2.88602e-05
1.20852e-05
-1.65676e-05
3.03268e-05
-4.5741e-07
-1.01455e-05
3.00006e-05
-1.9578e-06
7.63519e-06
2.89244e-05
-1.34934e-06
1.14863e-05
2.69562e-05
8.84185e-06
-1.03188e-06
2.82044e-05
1.41905e-05
-1.66072e-05
3.02559e-05
-6.34893e-07
-9.19223e-06
3.00387e-05
-3.47512e-06
6.99549e-06
2.91525e-05
-1.83245e-06
1.17503e-05
2.7154e-05
8.81968e-06
-7.58385e-07
2.86175e-05
1.47313e-05
-1.67841e-05
-2.91349e-06
-9.80205e-06
3.9054e-05
-1.34571e-06
4.05252e-06
3.7834e-05
1.04201e-06
1.55997e-05
3.54437e-05
1.15583e-05
3.68971e-06
3.68173e-05
1.72826e-05
-2.05927e-05
3.90523e-05
-1.41458e-06
-1.59094e-05
3.84369e-05
-1.45007e-07
3.68295e-06
3.8011e-05
1.38394e-06
1.50986e-05
3.55275e-05
1.24164e-05
3.2866e-06
3.6422e-05
1.63478e-05
-1.85488e-05
3.82622e-05
-4.02208e-08
-1.46268e-05
3.74251e-05
5.39996e-07
4.98793e-06
3.72173e-05
1.25314e-06
1.54832e-05
3.56456e-05
1.24306e-05
3.5066e-06
3.73839e-05
1.4566e-05
-1.78959e-05
3.96332e-05
-4.1287e-06
-1.38947e-05
3.85643e-05
3.3884e-07
6.36015e-06
3.72822e-05
1.25836e-06
1.6936e-05
3.49487e-05
1.27911e-05
3.31999e-06
3.67602e-05
1.93737e-05
-2.10231e-05
3.95247e-05
1.50404e-06
-1.80453e-05
3.85373e-05
-6.64524e-07
5.07172e-06
3.69063e-05
2.13248e-06
1.47749e-05
3.4954e-05
1.30823e-05
1.44279e-06
3.65283e-05
1.60792e-05
-2.02664e-05
3.92332e-05
-3.94376e-07
-1.79425e-05
3.9034e-05
-1.88917e-06
4.24478e-06
3.79116e-05
-1.19813e-06
1.55432e-05
3.62696e-05
1.08839e-05
3.28528e-06
3.75157e-05
1.52133e-05
-1.85808e-05
3.92604e-05
1.7029e-06
-1.76857e-05
3.88849e-05
1.33445e-06
4.59374e-06
3.78997e-05
4.58764e-07
1.53457e-05
3.55518e-05
1.11132e-05
3.84748e-06
3.66075e-05
1.79031e-05
-1.86788e-05
3.91239e-05
1.40186e-06
-1.66041e-05
3.89512e-05
-8.68785e-07
3.77241e-06
3.81622e-05
-3.69369e-08
1.5496e-05
3.57343e-05
1.15698e-05
4.26483e-06
3.70422e-05
1.90327e-05
-1.89288e-05
-1.46449e-06
-1.74875e-05
4.90784e-05
2.36658e-06
-2.04504e-06
4.80384e-05
4.13687e-06
1.82145e-05
4.53235e-05
1.42845e-05
1.101e-05
4.61326e-05
2.06643e-05
-1.95894e-05
4.86971e-05
7.98256e-07
-2.35263e-05
4.81605e-05
4.13051e-06
-1.83337e-06
4.81245e-05
4.50499e-06
1.77792e-05
4.54445e-05
1.59973e-05
1.01433e-05
4.57411e-05
2.02564e-05
-1.77517e-05
4.7933e-05
2.80085e-06
-2.22764e-05
4.70655e-05
5.31542e-06
-6.79e-07
4.71364e-05
4.72438e-06
1.82628e-05
4.54877e-05
1.63061e-05
1.01511e-05
4.67185e-05
1.84154e-05
-1.69227e-05
4.94177e-05
-2.65519e-06
-2.13807e-05
4.85508e-05
4.07672e-06
1.25991e-06
4.74559e-05
4.70181e-06
2.02026e-05
4.46934e-05
1.50642e-05
1.09004e-05
4.60009e-05
2.17247e-05
-1.94369e-05
4.94024e-05
3.62396e-06
-2.58127e-05
4.8665e-05
3.15694e-06
-5.04952e-07
4.70026e-05
5.05652e-06
1.77049e-05
4.4709e-05
1.57622e-05
8.29656e-06
4.57592e-05
1.87315e-05
-1.91624e-05
4.88631e-05
1.57359e-06
-2.5805e-05
4.90174e-05
1.57382e-06
-1.89443e-06
4.81043e-05
1.10482e-06
1.82535e-05
4.63047e-05
1.30117e-05
1.04103e-05
4.71283e-05
1.78438e-05
-1.7048e-05
4.90954e-05
4.14783e-06
-2.51775e-05
4.88399e-05
5.91702e-06
-1.3781e-06
4.8143e-05
3.47146e-06
1.79627e-05
4.55521e-05
1.33757e-05
1.06698e-05
4.59533e-05
2.10811e-05
-1.72504e-05
4.8854e-05
3.77281e-06
-2.40712e-05
4.89552e-05
2.73115e-06
-2.17393e-06
4.84407e-05
2.92259e-06
1.78642e-05
4.57108e-05
1.44725e-05
1.12359e-05
4.63657e-05
2.30605e-05
-1.7483e-05
5.25889e-07
-2.52249e-05
6.00447e-05
5.549e-06
-9.22088e-06
5.9553e-05
6.7894e-06
1.83472e-05
5.66244e-05
1.68465e-05
1.86339e-05
5.62081e-05
2.38279e-05
-1.41332e-05
5.89089e-05
2.69295e-06
-2.81725e-05
5.88302e-05
8.04206e-06
-8.26047e-06
5.94308e-05
7.00439e-06
1.79934e-05
5.68508e-05
1.92311e-05
1.74738e-05
5.6042e-05
2.39591e-05
-1.27333e-05
5.836e-05
5.46031e-06
-2.71776e-05
5.78327e-05
1.00453e-05
-7.38841e-06
5.83799e-05
7.68631e-06
1.85229e-05
5.67858e-05
1.99991e-05
1.70164e-05
5.68537e-05
2.23404e-05
-1.17832e-05
5.97848e-05
-1.25649e-06
-2.62322e-05
5.95815e-05
7.29325e-06
-5.27479e-06
5.90233e-05
8.03439e-06
2.09845e-05
5.58254e-05
1.741e-05
1.87963e-05
5.57414e-05
2.31638e-05
-1.31019e-05
5.9685e-05
4.50668e-06
-3.0419e-05
5.98899e-05
6.04584e-06
-7.23285e-06
5.85316e-05
7.46005e-06
1.83371e-05
5.58601e-05
1.82872e-05
1.55861e-05
5.56783e-05
2.12692e-05
-1.37324e-05
5.89525e-05
3.02148e-06
-3.04184e-05
5.99442e-05
4.4498e-06
-9.10441e-06
5.96104e-05
3.11344e-06
1.84471e-05
5.76967e-05
1.49201e-05
1.78253e-05
5.74622e-05
2.01699e-05
-1.13439e-05
5.94952e-05
5.90301e-06
-2.94922e-05
5.97623e-05
9.89642e-06
-8.43306e-06
5.96982e-05
6.14401e-06
1.81614e-05
5.70065e-05
1.5488e-05
1.76361e-05
5.60955e-05
2.39353e-05
-1.17059e-05
5.91307e-05
5.56958e-06
-2.84962e-05
5.99543e-05
5.54052e-06
-9.09686e-06
6.00434e-05
5.34107e-06
1.77186e-05
5.71532e-05
1.72018e-05
1.8342e-05
5.64398e-05
2.68874e-05
-1.18002e-05
2.22955e-06
-2.97637e-05
7.17135e-05
5.92756e-06
-1.41981e-05
7.2403e-05
6.37312e-06
1.58321e-05
6.95478e-05
1.79843e-05
2.40439e-05
6.72062e-05
2.73486e-05
-6.02924e-06
6.94149e-05
3.72164e-06
-2.68913e-05
7.03758e-05
9.231e-06
-1.26024e-05
7.20056e-05
6.21798e-06
1.54373e-05
6.98912e-05
2.04873e-05
2.28904e-05
6.75014e-05
2.7607e-05
-5.0157e-06
6.93393e-05
7.13565e-06
-2.63248e-05
6.97025e-05
1.22916e-05
-1.21721e-05
7.11031e-05
7.48743e-06
1.60247e-05
6.97696e-05
2.16872e-05
2.17406e-05
6.80075e-05
2.64591e-05
-4.29504e-06
7.04735e-05
-3.49688e-07
-2.5611e-05
7.1491e-05
7.58056e-06
-1.02174e-05
7.20168e-05
8.50357e-06
1.86746e-05
6.86865e-05
1.89753e-05
2.44231e-05
6.61315e-05
2.50258e-05
-4.15035e-06
6.98118e-05
3.88163e-06
-2.8662e-05
7.19214e-05
5.36985e-06
-1.21798e-05
7.15582e-05
6.77216e-06
1.63546e-05
6.86338e-05
1.96963e-05
2.09803e-05
6.64309e-05
2.45644e-05
-5.83554e-06
6.91761e-05
3.66298e-06
-2.86659e-05
7.15846e-05
4.46317e-06
-1.40975e-05
7.24285e-05
2.37186e-06
1.59162e-05
7.0591e-05
1.56037e-05
2.30063e-05
6.84979e-05
2.29876e-05
-3.43806e-06
7.00148e-05
6.58751e-06
-2.76864e-05
7.14573e-05
1.07204e-05
-1.35098e-05
7.25552e-05
5.86182e-06
1.5736e-05
7.00613e-05
1.64476e-05
2.23811e-05
6.71846e-05
2.7248e-05
-3.98798e-06
6.96153e-05
6.59137e-06
-2.70411e-05
7.17309e-05
5.16029e-06
-1.36429e-05
7.29725e-05
4.4861e-06
1.50544e-05
7.02292e-05
1.8423e-05
2.31802e-05
6.74115e-05
3.0997e-05
-3.82553e-06
3.35343e-06
-2.80633e-05
8.3816e-05
2.78704e-06
-1.44328e-05
8.6218e-05
1.80951e-06
1.1839e-05
8.41471e-05
1.617e-05
2.48379e-05
8.00048e-05
3.09672e-05
1.28717e-06
8.07574e-05
4.78859e-06
-2.08633e-05
8.26965e-05
6.75249e-06
-1.25893e-05
8.56528e-05
1.31318e-06
1.12255e-05
8.4566e-05
1.81316e-05
2.39024e-05
8.07055e-05
3.08944e-05
2.18525e-06
8.11689e-05
8.45064e-06
-2.05613e-05
8.24754e-05
1.08291e-05
-1.2597e-05
8.50846e-05
3.26303e-06
1.18632e-05
8.44946e-05
1.95296e-05
2.2206e-05
8.09285e-05
3.03959e-05
2.18369e-06
8.18199e-05
1.0664e-06
-2.05057e-05
8.39985e-05
4.34527e-06
-1.13571e-05
8.6084e-05
4.91726e-06
1.41049e-05
8.34607e-05
1.82338e-05
2.538e-05
7.85154e-05
2.76064e-05
3.8586e-06
8.04392e-05
3.52503e-06
-2.16154e-05
8.43188e-05
5.5109e-07
-1.27971e-05
8.5686e-05
1.87187e-06
1.26529e-05
8.3098e-05
1.86073e-05
2.23469e-05
7.90435e-05
2.84656e-05
1.22699e-06
8.02485e-05
4.62287e-06
-2.18889e-05
8.3682e-05
1.04356e-06
-1.42245e-05
8.60976e-05
-2.02728e-06
1.17997e-05
8.49125e-05
1.37378e-05
2.36003e-05
8.09872e-05
2.64613e-05
3.24223e-06
8.10761e-05
7.42361e-06
-2.108e-05
8.36584e-05
7.56087e-06
-1.40192e-05
8.6283e-05
1.61121e-06
1.1773e-05
8.4609e-05
1.4991e-05
2.27278e-05
8.00782e-05
3.09754e-05
2.6229e-06
8.08745e-05
7.97205e-06
-2.07886e-05
8.39686e-05
1.17902e-06
-1.35982e-05
8.67556e-05
-6.065e-07
1.10892e-05
8.48507e-05
1.65897e-05
2.35257e-05
8.02031e-05
3.50654e-05
3.11207e-06
4.92281e-06
-2.14057e-05
9.60778e-05
-9.89452e-07
-1.08716e-05
9.92675e-05
-4.5398e-06
7.97252e-06
9.89697e-05
1.11314e-05
2.06577e-05
9.4816e-05
3.2124e-05
6.03367e-06
9.38815e-05
6.3147e-06
-1.33018e-05
9.54596e-05
2.98791e-06
-9.02728e-06
9.87765e-05
-5.282e-06
7.13462e-06
9.94347e-05
1.23184e-05
1.97381e-05
9.56473e-05
3.16847e-05
6.64266e-06
9.44882e-05
9.93678e-06
-1.31702e-05
9.56003e-05
7.67504e-06
-9.34713e-06
9.86011e-05
-2.75061e-06
7.7073e-06
9.94305e-05
1.37298e-05
1.79839e-05
9.56181e-05
3.17429e-05
5.63913e-06
9.45246e-05
3.51515e-06
-1.3905e-05
9.64782e-05
2.80219e-07
-9.07039e-06
9.94884e-05
-7.86612e-07
9.13101e-06
9.86876e-05
1.44407e-05
2.11438e-05
9.35548e-05
2.89058e-05
8.45741e-06
9.30558e-05
4.49939e-06
-1.29452e-05
9.65376e-05
-4.76302e-06
-9.76572e-06
9.91304e-05
-5.06086e-06
8.66254e-06
9.79593e-05
1.43256e-05
1.93723e-05
9.38478e-05
3.02492e-05
5.9636e-06
9.33003e-05
6.1887e-06
-1.35056e-05
9.59513e-05
-2.74167e-06
-1.04875e-05
9.88608e-05
-7.61259e-06
7.77573e-06
9.9079e-05
9.13334e-06
1.93641e-05
9.51614e-05
2.79994e-05
6.88015e-06
9.37549e-05
8.71746e-06
-1.29793e-05
9.59991e-05
3.26296e-06
-1.05951e-05
9.91324e-05
-4.20456e-06
7.92769e-06
9.90544e-05
1.0761e-05
1.85165e-05
9.48911e-05
3.24124e-05
6.53158e-06
9.3961e-05
9.92831e-06
-1.30226e-05
9.62997e-05
-3.01771e-06
-1.00959e-05
9.94902e-05
-7.16478e-06
7.34433e-06
9.93546e-05
1.15112e-05
1.91554e-05
9.50074e-05
3.61824e-05
7.1543e-06
7.11206e-06
-1.32712e-05
0.000108069
-2.04754e-06
-6.00064e-06
0.000109708
-7.96723e-06
5.15588e-06
0.000111063
4.82213e-06
1.36231e-05
0.000109196
2.78553e-05
6.97443e-06
0.000107705
7.14485e-06
-6.84818e-06
0.000107947
1.31595e-06
-4.39886e-06
0.000109449
-9.04379e-06
4.32833e-06
0.00011138
5.37308e-06
1.26394e-05
0.000109804
2.75624e-05
7.08868e-06
0.0001082
1.03823e-05
-6.80524e-06
0.000108213
5.92182e-06
-4.85644e-06
0.000109516
-6.21451e-06
4.68003e-06
0.000111327
6.61543e-06
1.13208e-05
0.000109456
2.80321e-05
5.66492e-06
0.000107641
5.56143e-06
-8.10211e-06
0.000108222
-1.22991e-06
-5.28209e-06
0.000110101
-4.46943e-06
5.32406e-06
0.000111263
8.71574e-06
1.38081e-05
0.000108712
2.57586e-05
8.86657e-06
0.000107035
5.5667e-06
-5.72778e-06
0.000108178
-6.39777e-06
-5.37512e-06
0.000109813
-9.2375e-06
5.33159e-06
0.000110475
8.17596e-06
1.35409e-05
0.00010854
2.69681e-05
7.09227e-06
0.000107268
6.98908e-06
-6.31334e-06
0.000107931
-3.59087e-06
-5.49302e-06
0.000109208
-1.00823e-05
4.78309e-06
0.000110509
3.6194e-06
1.261e-05
0.000108844
2.47576e-05
6.94264e-06
0.000107251
9.02132e-06
-6.04206e-06
0.000107994
1.27063e-06
-5.71028e-06
0.000109464
-7.18853e-06
5.19325e-06
0.00011072
5.29047e-06
1.19307e-05
0.000109174
2.86458e-05
6.98582e-06
0.000107832
1.08553e-05
-6.35145e-06
0.000108266
-3.99699e-06
-5.49574e-06
0.000109545
-1.03581e-05
4.6838e-06
0.00011097
5.15402e-06
1.22601e-05
0.000109345
3.15822e-05
7.48518e-06
8.38089e-06
-6.32716e-06
0.000119374
-6.70635e-07
-2.02753e-06
0.000119167
-7.39836e-06
3.31706e-06
0.000120466
8.77338e-08
7.03264e-06
0.000120469
2.05896e-05
5.15282e-06
0.00011976
6.5714e-06
-2.84675e-06
0.000119509
1.98711e-06
-7.48695e-07
0.000119062
-8.78149e-06
2.58329e-06
0.000120482
2.70204e-07
6.07769e-06
0.00012073
2.06328e-05
5.06227e-06
0.00012003
9.19928e-06
-2.92961e-06
0.000119738
5.74138e-06
-1.24817e-06
0.000119208
-6.10248e-06
2.81602e-06
0.000120416
1.16492e-06
5.38856e-06
0.00012037
2.14276e-05
3.87343e-06
0.000119425
6.02617e-06
-4.15569e-06
0.000119259
-2.32407e-07
-1.95251e-06
0.000119448
-4.91874e-06
2.96333e-06
0.000120884
3.70533e-06
6.90802e-06
0.000120709
1.95872e-05
6.44092e-06
0.000119607
5.53253e-06
-1.5476e-06
0.000119233
-4.67843e-06
-1.87136e-06
0.000119235
-9.24667e-06
2.96005e-06
0.000120346
3.0047e-06
7.52697e-06
0.000120383
2.05011e-05
5.33723e-06
0.000119594
6.38512e-06
-2.04268e-06
0.00011926
-2.04459e-06
-1.55308e-06
0.000118819
-8.88859e-06
2.78877e-06
0.000119786
-4.31114e-07
6.44241e-06
0.000119999
1.86258e-05
4.88687e-06
0.000119359
7.85963e-06
-1.80503e-06
0.000119318
1.52855e-06
-1.7737e-06
0.000118981
-6.58721e-06
3.44283e-06
0.000120043
9.66688e-07
6.03542e-06
0.000120484
2.17381e-05
5.2352e-06
0.000119961
1.00499e-05
-2.21933e-06
0.000119539
-2.34405e-06
-1.8991e-06
0.000118884
-9.45053e-06
2.9726e-06
0.000120185
2.57346e-07
5.98677e-06
0.000120663
2.38708e-05
5.38532e-06
8.01279e-06
-1.9823e-06
0.000130929
9.94148e-07
7.97617e-08
0.000129999
-5.26232e-06
2.23814e-06
0.00013027
-2.25796e-06
3.03738e-06
0.000130662
1.38679e-05
3.23232e-06
0.000130893
5.32432e-06
-1.02173e-06
0.000131125
3.13849e-06
9.60076e-07
0.000129945
-6.79781e-06
1.54832e-06
0.000130092
-2.27209e-06
2.15924e-06
0.000130718
1.41665e-05
3.17391e-06
0.000131004
7.34514e-06
-1.19683e-06
0.000131278
5.71488e-06
4.89396e-07
0.000130105
-4.57507e-06
1.76894e-06
0.000130097
-1.83038e-06
1.9052e-06
0.000130615
1.49707e-05
2.3508e-06
0.000130758
5.40269e-06
-2.08236e-06
0.000130791
1.16254e-06
-1.54999e-07
0.000130127
-3.95804e-06
1.71034e-06
0.000130617
7.52836e-07
2.74732e-06
0.00013111
1.37152e-05
4.20014e-06
0.000131034
4.62918e-06
2.15982e-07
0.000130736
-2.39744e-06
-6.55146e-08
0.000129911
-7.33998e-06
1.62158e-06
0.00013032
1.11092e-08
3.59233e-06
0.000130939
1.42157e-05
3.30265e-06
0.000130919
5.0998e-06
-3.15918e-07
0.000130859
-2.96044e-07
3.67122e-07
0.000129808
-6.5353e-06
1.63795e-06
0.000129817
-2.48417e-06
2.73782e-06
0.000130458
1.28071e-05
3.02711e-06
0.000130696
6.14507e-06
2.23497e-08
0.000130892
2.14573e-06
1.63406e-07
0.000129894
-4.74122e-06
2.41025e-06
0.000129966
-1.41959e-06
2.58349e-06
0.000130763
1.50888e-05
3.53688e-06
0.000131141
8.35751e-06
-3.56311e-07
0.000131105
-4.03221e-07
-6.85206e-08
0.000129775
-7.06021e-06
1.96121e-06
0.00013
-2.34071e-06
2.27966e-06
0.000130869
1.66581e-05
3.48032e-06
6.72236e-06
7.25966e-08
0.000143617
1.95909e-06
6.65204e-07
0.000142694
-3.37784e-06
1.61445e-06
0.00014223
-3.01771e-06
1.36594e-06
0.000142422
8.98714e-06
2.21749e-06
0.000143103
4.05676e-06
-3.64836e-07
0.000143802
3.69469e-06
1.32514e-06
0.000142652
-4.98556e-06
9.7588e-07
0.000142001
-3.18216e-06
5.54104e-07
0.000142405
9.37159e-06
2.18792e-06
0.000143138
5.58311e-06
-5.7837e-07
0.000143894
5.26866e-06
8.72194e-07
0.000142796
-3.20677e-06
1.11834e-06
0.000142052
-3.07434e-06
4.49331e-07
0.000142473
1.00078e-05
1.57915e-06
0.000143148
4.46734e-06
-1.17774e-06
0.000143557
2.01426e-06
2.82534e-07
0.000142733
-2.96565e-06
1.08243e-06
0.000142448
-6.88856e-07
1.07918e-06
0.000142819
9.21608e-06
3.02631e-06
0.000143322
3.49914e-06
7.26877e-07
0.000143468
-7.72851e-07
3.99368e-07
0.0001425
-5.36684e-06
9.83993e-07
0.000142249
-1.35215e-06
1.84292e-06
0.000142789
9.41953e-06
2.18065e-06
0.000143199
3.8028e-06
2.21347e-07
0.000143579
7.16355e-07
8.74686e-07
0.00014257
-4.63208e-06
1.04545e-06
0.000141961
-3.24622e-06
1.18684e-06
0.000142437
8.45593e-06
2.02836e-06
0.000143035
4.60744e-06
5.27742e-07
0.000143594
2.33882e-06
6.30259e-07
0.000142631
-3.19799e-06
1.7882e-06
0.000142008
-2.45388e-06
1.18095e-06
0.000142548
1.00149e-05
2.5717e-06
0.000143346
6.5794e-06
2.82383e-07
0.00014381
8.35243e-07
3.65765e-07
0.000142544
-4.93897e-06
1.30704e-06
0.000141975
-3.38904e-06
7.84486e-07
0.00014257
1.12281e-05
2.52364e-06
5.27919e-06
7.55997e-07
0.000157661
2.26117e-06
6.62134e-07
0.000156919
-2.08486e-06
1.23677e-06
0.000156228
-3.08858e-06
7.82655e-07
0.000156257
5.66076e-06
1.66253e-06
0.000156965
3.04741e-06
-1.73392e-07
0.000157833
3.64377e-06
1.11551e-06
0.000156876
-3.68489e-06
6.20352e-07
0.000156014
-3.31439e-06
4.05214e-08
0.000156238
6.10224e-06
1.63755e-06
0.000156986
4.1751e-06
-3.87815e-07
0.000157892
4.52346e-06
7.16705e-07
0.000157
-2.25736e-06
6.70492e-07
0.000156062
-3.40446e-06
-6.52251e-08
0.000156334
6.48651e-06
1.11591e-06
0.000157072
3.62205e-06
-7.89779e-07
0.00015766
2.32169e-06
2.03028e-07
0.00015693
-2.21204e-06
7.20921e-07
0.000156365
-1.33128e-06
5.59514e-07
0.000156577
6.01565e-06
2.31245e-06
0.000157178
2.54219e-06
7.92658e-07
0.000157554
1.34414e-07
3.79321e-07
0.000156717
-3.85706e-06
6.72296e-07
0.000156206
-1.89456e-06
1.18653e-06
0.000156595
5.99999e-06
1.59256e-06
0.00015707
2.76269e-06
3.5541e-07
0.000157641
1.09197e-06
8.48009e-07
0.000156814
-3.31672e-06
6.92369e-07
0.00015603
-3.40213e-06
6.51693e-07
0.000156354
5.38802e-06
1.44439e-06
0.000156951
3.41801e-06
5.97704e-07
0.000157643
2.17811e-06
5.69688e-07
0.000156872
-2.18147e-06
1.38085e-06
0.000156034
-2.76355e-06
7.12009e-07
0.000156368
6.3993e-06
1.92665e-06
0.000157182
5.06825e-06
4.20915e-07
0.000157851
1.39499e-06
3.10089e-07
0.000156821
-3.42059e-06
8.78859e-07
0.000155986
-3.62973e-06
3.02679e-07
0.000156354
7.35095e-06
1.93329e-06
4.04755e-06
8.99074e-07
0.00017313
2.18363e-06
5.05449e-07
0.000172558
-1.21984e-06
9.4455e-07
0.000171855
-2.876e-06
5.48997e-07
0.000171829
3.47893e-06
1.23772e-06
0.000172429
2.29236e-06
-1.3181e-07
0.000173297
3.282e-06
7.87661e-07
0.000172513
-2.69928e-06
3.74036e-07
0.000171674
-3.11545e-06
-8.75186e-08
0.000171833
3.92485e-06
1.20833e-06
0.000172455
3.10955e-06
-3.40417e-07
0.000173336
3.7018e-06
4.563e-07
0.00017262
-1.56019e-06
3.34059e-07
0.000171705
-3.29929e-06
-2.21852e-07
0.000171896
4.10036e-06
7.25752e-07
0.000172542
2.92561e-06
-5.88362e-07
0.000173163
2.30653e-06
4.05701e-08
0.00017257
-1.62023e-06
4.91323e-07
0.00017196
-1.56038e-06
3.85224e-07
0.000172098
3.80771e-06
1.7187e-06
0.000172614
1.81763e-06
6.90529e-07
0.000173056
5.80356e-07
2.52696e-07
0.000172391
-2.7357e-06
4.77497e-07
0.000171828
-2.03418e-06
8.8243e-07
0.000172122
3.64523e-06
1.15772e-06
0.000172525
1.98057e-06
3.49705e-07
0.000173118
1.13139e-06
6.82223e-07
0.000172465
-2.38911e-06
4.64136e-07
0.000171682
-3.23636e-06
4.4944e-07
0.000171938
3.29204e-06
9.96733e-07
0.000172434
2.56373e-06
5.32941e-07
0.000173108
1.86296e-06
4.06054e-07
0.000172518
-1.49303e-06
1.05816e-06
0.000171678
-2.69891e-06
5.36811e-07
0.000171919
3.92544e-06
1.37624e-06
0.000172614
3.85806e-06
3.94245e-07
0.000173305
1.54374e-06
1.54765e-07
0.000172498
-2.32083e-06
5.60881e-07
0.000171641
-3.47278e-06
1.45246e-07
0.000171902
4.66899e-06
1.40386e-06
3.07032e-06
8.24615e-07
0.000190128
1.91482e-06
3.53003e-07
0.000189705
-6.59187e-07
7.08712e-07
0.000189028
-2.5053e-06
4.11645e-07
0.000189007
2.08075e-06
8.95593e-07
0.000189491
1.72362e-06
-1.16299e-07
0.000190296
2.79603e-06
5.0516e-07
0.000189664
-1.92704e-06
2.03163e-07
0.000188889
-2.73663e-06
-1.25572e-07
0.000189036
2.49986e-06
8.56269e-07
0.000189523
2.30206e-06
-3.21579e-07
0.00019032
2.91431e-06
2.41626e-07
0.000189756
-1.05044e-06
1.00064e-07
0.000188904
-2.9436e-06
-2.83387e-07
0.000189061
2.52537e-06
4.08511e-07
0.000189595
2.337e-06
-4.42922e-07
0.000190196
2.1246e-06
-1.0275e-07
0.00018973
-1.1474e-06
3.29973e-07
0.000189136
-1.53817e-06
2.92896e-07
0.000189241
2.32235e-06
1.22482e-06
0.00018965
1.28716e-06
5.57251e-07
0.000190094
7.48332e-07
1.42569e-07
0.000189582
-1.92547e-06
3.36226e-07
0.000189029
-1.93544e-06
6.77701e-07
0.000189258
2.08363e-06
8.10743e-07
0.000189578
1.41519e-06
3.05862e-07
0.00019013
1.00786e-06
5.14565e-07
0.000189629
-1.70305e-06
2.99752e-07
0.000188881
-2.86688e-06
3.42913e-07
0.000189108
1.89581e-06
6.50531e-07
0.000189509
1.92613e-06
4.52553e-07
0.000190108
1.50811e-06
2.67138e-07
0.000189674
-1.01212e-06
7.96634e-07
0.000188883
-2.41349e-06
4.33918e-07
0.000189078
2.28484e-06
9.2526e-07
0.000189649
2.90089e-06
3.17275e-07
0.000190296
1.44967e-06
3.24042e-08
0.000189679
-1.53598e-06
3.294e-07
0.000188852
-3.08442e-06
7.63732e-08
0.000189067
2.85657e-06
9.5329e-07
2.29677e-06
7.02605e-07
0.000208813
1.56229e-06
2.4021e-07
0.000208513
-3.10192e-07
5.23818e-07
0.000207888
-2.05983e-06
3.08205e-07
0.000207881
1.21532e-06
6.37371e-07
0.000208263
1.2872e-06
-9.98104e-08
0.000208981
2.28013e-06
3.01251e-07
0.000208481
-1.32645e-06
9.41091e-08
0.000207779
-2.26562e-06
-1.40342e-07
0.000207932
1.58236e-06
5.8184e-07
0.000208303
1.6977e-06
-3.00546e-07
0.000208988
2.21267e-06
9.46762e-08
0.000208564
-6.69519e-07
-5.83759e-08
0.000207782
-2.45022e-06
-3.02375e-07
0.000207923
1.51448e-06
1.73455e-07
0.00020836
1.83653e-06
-3.35309e-07
0.000208913
1.84872e-06
-1.80876e-07
0.000208555
-7.76925e-07
2.17416e-07
0.000208007
-1.3689e-06
2.27143e-07
0.000208089
1.37325e-06
8.42015e-07
0.000208402
9.05283e-07
4.36339e-07
0.000208818
7.49661e-07
7.18489e-08
0.000208433
-1.34104e-06
2.32453e-07
0.00020792
-1.69934e-06
5.17341e-07
0.000208095
1.09295e-06
5.52206e-07
0.000208343
9.96102e-07
2.60443e-07
0.000208831
8.14898e-07
3.77664e-07
0.000208459
-1.20549e-06
1.82766e-07
0.000207774
-2.40198e-06
2.69372e-07
0.000207969
1.00141e-06
4.02238e-07
0.000208293
1.43054e-06
3.73554e-07
0.000208805
1.16187e-06
1.73318e-07
0.000208495
-6.86614e-07
5.88935e-07
0.000207783
-2.02157e-06
3.51632e-07
0.000207934
1.24403e-06
5.87315e-07
0.000208403
2.15131e-06
2.37101e-07
0.000208976
1.23959e-06
-5.48386e-08
0.000208515
-9.89407e-07
1.69412e-07
0.000207758
-2.58589e-06
3.80048e-08
0.000207932
1.67255e-06
6.09063e-07
1.68061e-06
5.82902e-07
0.000229359
1.19838e-06
1.64509e-07
0.000229159
-1.04094e-07
3.81967e-07
0.00022861
-1.60687e-06
2.25445e-07
0.000228609
7.05953e-07
4.49625e-07
0.000228908
9.57363e-07
-8.11252e-08
0.000229521
1.78922e-06
1.6663e-07
0.000229138
-8.69266e-07
2.99321e-08
0.000228526
-1.77621e-06
-1.46435e-07
0.000228674
1.00614e-06
3.79793e-07
0.000228954
1.2506e-06
-2.73195e-07
0.000229516
1.62028e-06
7.86485e-09
0.000229213
-3.8465e-07
-1.58835e-07