/*--------------------------------*- C++ -*----------------------------------*\
  =========                 |
  \\      /  F ield         | OpenFOAM: The Open Source CFD Toolbox
   \\    /   O peration     | Website:  https://openfoam.org
    \\  /    A nd           | Version:  10
     \\/     M anipulation  |
\*---------------------------------------------------------------------------*/
FoamFile
{
    format      ascii;
    class       volScalarField;
    location    "6";
    object      pMean;
}
// * * * * * * * * * * * * * * * * * * * * * * * * * * * * * * * * * * * * * //

dimensions      [0 2 -2 0 0 0 0];

internalField   nonuniform List<scalar> 
102400
(
-0.000195545
-0.000102043
0.000127262
0.000220956
0.00014356
-0.000158423
-6.57088e-05
0.000110418
0.000189258
6.57278e-05
-0.000199275
-9.1567e-06
0.000156736
0.00027051
0.000136736
-0.000201293
-0.000123363
0.000143086
0.000273583
8.42564e-05
-0.000243498
-0.00011905
7.54225e-05
0.000201722
0.000118751
-0.000170019
-0.000115549
0.000153376
0.000256974
0.000140504
-0.000136243
-9.90678e-05
0.000117185
0.000242462
0.000123318
-0.000149903
-8.55387e-05
0.000156176
0.000250524
8.1401e-05
-0.000192623
-0.000102787
0.000125802
0.000221001
0.000145359
-0.000155795
-6.59836e-05
0.000110496
0.000188258
6.76853e-05
-0.000196571
-1.09773e-05
0.000155223
0.000270635
0.000138741
-0.000197198
-0.000125152
0.000141962
0.000273469
8.70128e-05
-0.000240624
-0.000118877
7.50342e-05
0.000202302
0.000119907
-0.000167497
-0.000116771
0.00015219
0.000257307
0.000142734
-0.000133058
-9.87078e-05
0.000116328
0.000242572
0.000125075
-0.000147135
-8.6737e-05
0.00015429
0.00025141
8.29632e-05
-0.000192375
-0.000104591
0.000126268
0.000224696
0.000150103
-0.000154692
-6.65756e-05
0.000112377
0.000191054
7.23467e-05
-0.000195827
-1.3578e-05
0.000155577
0.000275001
0.000144305
-0.000194349
-0.000125359
0.000143101
0.000278219
9.23554e-05
-0.000240717
-0.000120124
7.66947e-05
0.000206164
0.000124638
-0.000167095
-0.000118553
0.000152667
0.000262067
0.000147533
-0.000131774
-9.89291e-05
0.000117861
0.000245397
0.00012887
-0.000146613
-8.90233e-05
0.000154622
0.00025755
8.79354e-05
-0.000191838
-0.000104839
0.000131369
0.000230607
0.000154254
-0.000154006
-6.60021e-05
0.000116991
0.000196266
7.79859e-05
-0.000196738
-1.40024e-05
0.000160303
0.000278921
0.000147502
-0.000193262
-0.000124915
0.000147645
0.000281468
9.76962e-05
-0.000239183
-0.000120095
7.97618e-05
0.000211209
0.000129386
-0.000163759
-0.000117429
0.000156226
0.000266054
0.000153627
-0.000130372
-9.98769e-05
0.000122005
0.000251557
0.000135284
-0.0001447
-8.78736e-05
0.000157285
0.000261235
9.34429e-05
-0.000186862
-0.00010161
0.000135509
0.00023292
0.000159715
-0.000144867
-6.05328e-05
0.000123021
0.00020074
8.27357e-05
-0.000190833
-1.04993e-05
0.000165183
0.000284188
0.000150958
-0.000187595
-0.000115263
0.000151747
0.000285148
0.000100318
-0.000235399
-0.000112157
8.52596e-05
0.000212035
0.000134946
-0.000157788
-0.000113426
0.000158539
0.000271649
0.000157577
-0.000125602
-9.72678e-05
0.000125652
0.000252982
0.00013867
-0.000136072
-7.87033e-05
0.000158351
0.000259005
0.000103507
-0.000174614
-9.67487e-05
0.000131758
0.000227008
0.000159981
-0.000139239
-5.44944e-05
0.000118796
0.000195364
8.88564e-05
-0.000176155
-1.05137e-05
0.000161752
0.000277021
0.000149432
-0.000178009
-0.000104805
0.000145513
0.000272071
0.000101932
-0.000228308
-0.000113752
8.19066e-05
0.000201619
0.000140454
-0.000146398
-0.000103789
0.000149063
0.000256909
0.000161073
-0.000118919
-9.79924e-05
0.00011814
0.000247945
0.000145996
-0.000127509
-7.81256e-05
0.000151941
0.000244934
0.000106867
-0.000161701
-9.19934e-05
0.000108142
0.000197666
0.000166866
-0.000123867
-4.8614e-05
0.000102063
0.000175
8.96192e-05
-0.000162558
-4.78994e-06
0.000140175
0.000249667
0.000145403
-0.000163935
-9.99671e-05
0.000115719
0.000234529
0.000101112
-0.000215132
-0.000112315
6.16955e-05
0.00018323
0.000140899
-0.000133068
-0.000101024
0.000120801
0.000231452
0.00016027
-0.000108348
-9.89373e-05
9.67178e-05
0.000221052
0.000145126
-0.000117393
-7.49311e-05
0.000124268
0.000211366
0.000113342
-0.000143548
-0.000103169
6.84138e-05
0.000151473
0.000153087
-0.000109094
-4.89759e-05
6.38683e-05
0.000128559
9.09474e-05
-0.00013844
-1.15837e-05
0.000103764
0.000197331
0.000129194
-0.000145205
-9.61092e-05
6.26256e-05
0.000173901
8.88689e-05
-0.000194084
-0.000110551
2.73558e-05
0.000142125
0.000134004
-0.000107672
-9.93575e-05
7.5735e-05
0.000179642
0.000146865
-9.61199e-05
-0.000104021
5.56207e-05
0.000169838
0.00013406
-0.000100632
-7.85976e-05
8.03604e-05
0.000157347
0.000104861
-0.000115745
-9.51241e-05
2.1357e-05
9.23337e-05
0.000131834
-8.41692e-05
-4.83956e-05
2.34686e-05
7.70298e-05
7.71708e-05
-0.000109052
-9.34926e-06
5.97105e-05
0.000137086
0.000102865
-0.000123443
-0.000100613
2.30007e-06
9.98293e-05
6.65864e-05
-0.000163468
-0.000106596
-1.54786e-05
8.74659e-05
0.000115541
-7.93181e-05
-9.0281e-05
2.92263e-05
0.000119453
0.000124126
-7.57743e-05
-9.93985e-05
8.12696e-06
0.000102094
0.000107895
-8.00445e-05
-7.523e-05
2.83269e-05
8.92864e-05
8.0381e-05
-8.54051e-05
-8.16255e-05
-1.04793e-05
2.53451e-05
9.60784e-05
-5.98266e-05
-3.72399e-05
-7.97598e-06
1.79853e-05
5.5405e-05
-7.70927e-05
-5.36969e-06
2.28218e-05
6.91081e-05
7.43665e-05
-9.51704e-05
-9.20226e-05
-4.30875e-05
2.97035e-05
4.29803e-05
-0.000128981
-9.3382e-05
-4.5666e-05
2.69766e-05
8.93858e-05
-5.06099e-05
-7.18288e-05
-6.37614e-06
5.55621e-05
9.38531e-05
-4.91851e-05
-8.30733e-05
-2.66633e-05
3.44302e-05
7.91664e-05
-5.28202e-05
-6.24811e-05
-1.05522e-05
1.90899e-05
5.20226e-05
-5.69048e-05
-5.65293e-05
-2.39209e-05
-2.15478e-05
6.46042e-05
-3.56188e-05
-2.28911e-05
-2.13405e-05
-2.0973e-05
3.46828e-05
-4.75326e-05
8.95527e-06
5.19124e-06
2.08179e-05
4.70506e-05
-6.72235e-05
-7.23924e-05
-6.00747e-05
-2.40425e-05
1.68157e-05
-9.37409e-05
-6.77197e-05
-5.57772e-05
-1.49071e-05
5.87082e-05
-2.87535e-05
-4.77466e-05
-2.02073e-05
9.84928e-06
6.47683e-05
-2.62897e-05
-6.18327e-05
-3.92845e-05
-1.07839e-05
4.70281e-05
-3.06327e-05
-4.18808e-05
-2.49344e-05
-2.50843e-05
2.48949e-05
-3.38671e-05
-3.39514e-05
-1.91523e-05
-3.37846e-05
4.08338e-05
-1.66959e-05
-9.74856e-06
-1.99844e-05
-3.0425e-05
2.08927e-05
-2.46391e-05
1.86884e-05
1.34811e-06
1.74274e-06
3.04899e-05
-4.24946e-05
-5.16159e-05
-5.5306e-05
-3.94482e-05
3.04048e-06
-6.44827e-05
-4.27451e-05
-4.78487e-05
-2.8001e-05
3.75857e-05
-1.1089e-05
-2.69006e-05
-1.82583e-05
-7.57078e-06
4.33494e-05
-9.23165e-06
-3.94201e-05
-3.30506e-05
-2.48474e-05
2.96991e-05
-1.17837e-05
-2.31393e-05
-2.13454e-05
-3.65228e-05
9.23664e-06
-1.58804e-05
-1.87956e-05
-9.95206e-06
-2.86114e-05
3.40778e-05
-2.9014e-06
-1.67864e-06
-1.35236e-05
-2.62638e-05
1.71965e-05
-9.66103e-06
2.45067e-05
4.76142e-06
-1.18098e-06
2.38676e-05
-2.37086e-05
-3.48735e-05
-4.17663e-05
-3.48987e-05
1.64521e-06
-4.08377e-05
-2.45049e-05
-3.44768e-05
-2.42294e-05
2.92577e-05
1.42249e-06
-1.34933e-05
-1.15336e-05
-8.19586e-06
3.36016e-05
4.04266e-06
-2.37519e-05
-2.22397e-05
-2.06986e-05
2.43719e-05
2.41459e-06
-1.0015e-05
-1.16728e-05
-2.97268e-05
7.47525e-06
-3.41244e-06
-9.54468e-06
-2.06773e-06
-1.96269e-05
3.03152e-05
6.1458e-06
2.62423e-06
-6.97917e-06
-1.86798e-05
1.54549e-05
-3.66308e-07
2.503e-05
7.48011e-06
-2.14434e-07
2.05738e-05
-1.09251e-05
-2.26178e-05
-2.86919e-05
-2.5706e-05
4.18925e-06
-2.37667e-05
-1.29282e-05
-2.32599e-05
-1.72505e-05
2.51373e-05
9.38281e-06
-5.50879e-06
-5.78123e-06
-5.41912e-06
2.75525e-05
1.20429e-05
-1.30268e-05
-1.23956e-05
-1.35317e-05
2.29746e-05
1.19294e-05
-1.67815e-06
-3.05324e-06
-1.96658e-05
9.18104e-06
3.65604e-06
-4.05865e-06
2.70295e-06
-1.32494e-05
2.51825e-05
1.0645e-05
4.88003e-06
-1.96064e-06
-1.32163e-05
1.19855e-05
4.10313e-06
2.32576e-05
8.69139e-06
2.30385e-07
1.47958e-05
-3.82189e-06
-1.43536e-05
-1.92626e-05
-1.87439e-05
3.38926e-06
-1.30765e-05
-6.19519e-06
-1.56476e-05
-1.21644e-05
1.9399e-05
1.26657e-05
-1.15939e-06
-2.31634e-06
-3.43447e-06
2.02416e-05
1.55258e-05
-5.95613e-06
-5.93658e-06
-8.33774e-06
1.86812e-05
1.61747e-05
3.01159e-06
2.3191e-06
-1.2298e-05
7.94868e-06
6.52345e-06
-1.0928e-06
4.94542e-06
-9.60098e-06
1.86071e-05
1.139e-05
5.64661e-06
8.78648e-07
-9.67115e-06
8.09771e-06
5.37893e-06
2.01048e-05
8.39678e-06
-4.92841e-07
8.71587e-06
-7.29673e-07
-9.12055e-06
-1.30376e-05
-1.45593e-05
1.14491e-06
-7.51612e-06
-2.58881e-06
-1.07163e-05
-9.28893e-06
1.32548e-05
1.23943e-05
8.92619e-07
-6.25516e-07
-2.63489e-06
1.31546e-05
1.54246e-05
-1.77558e-06
-2.16529e-06
-5.77228e-06
1.34432e-05
1.6539e-05
5.25632e-06
4.91799e-06
-8.05989e-06
5.51908e-06
7.16253e-06
4.03801e-07
5.62084e-06
-7.20251e-06
1.29729e-05
1.05591e-05
5.50685e-06
2.31914e-06
-7.05686e-06
4.7992e-06
5.16328e-06
1.65677e-05
7.22956e-06
-1.13764e-06
3.61187e-06
1.84683e-07
-5.87614e-06
-9.08739e-06
-1.16297e-05
-1.2394e-06
-4.82317e-06
-7.64261e-07
-7.54728e-06
-7.43043e-06
8.00996e-06
1.06216e-05
1.72303e-06
3.66245e-08
-2.09928e-06
7.41258e-06
1.36486e-05
5.61902e-07
-3.65106e-07
-4.25846e-06
8.66228e-06
1.4825e-05
6.03361e-06
5.77106e-06
-5.33571e-06
3.13449e-06
6.80992e-06
1.07147e-06
5.59096e-06
-5.23135e-06
8.52989e-06
8.92158e-06
4.92184e-06
2.99571e-06
-4.94515e-06
2.4795e-06
4.34861e-06
1.31307e-05
5.84625e-06
-1.43374e-06
4.83251e-08
3.61547e-08
-3.88052e-06
-6.41629e-06
-9.44725e-06
-2.95091e-06
-3.53453e-06
5.8367e-08
-5.3726e-06
-5.98728e-06
4.12305e-06
8.32997e-06
1.87165e-06
2.75116e-07
-1.57537e-06
3.34702e-06
1.11821e-05
1.68511e-06
5.5783e-07
-3.23753e-06
4.95664e-06
1.23081e-05
6.04747e-06
5.84685e-06
-3.47603e-06
1.45654e-06
5.99963e-06
1.28825e-06
5.23872e-06
-3.59465e-06
5.44052e-06
7.17968e-06
4.22036e-06
3.25876e-06
-3.19807e-06
1.05246e-06
3.36219e-06
1.00986e-05
4.53035e-06
-1.42386e-06
-2.0609e-06
-4.79765e-07
-2.63854e-06
-4.57661e-06
-7.58255e-06
-3.83945e-06
-2.99358e-06
3.01095e-07
-3.80415e-06
-4.71879e-06
1.53815e-06
6.0412e-06
1.75705e-06
3.50699e-07
-1.02551e-06
7.94167e-07
8.57013e-06
2.10391e-06
9.41025e-07
-2.43026e-06
2.44931e-06
9.65363e-06
5.61683e-06
5.5106e-06
-2.09593e-06
5.81369e-07
5.07459e-06
1.27365e-06
4.74577e-06
-2.17095e-06
3.40711e-06
5.54751e-06
3.46731e-06
3.25272e-06
-1.74784e-06
3.25101e-07
2.44512e-06
7.5696e-06
3.39936e-06
-1.22007e-06
-3.00067e-06
-9.92312e-07
-1.91562e-06
-3.27329e-06
-5.92832e-06
-4.07619e-06
-2.72882e-06
2.22027e-07
-2.64763e-06
-3.55491e-06
-3.17326e-08
4.04456e-06
1.47497e-06
3.09802e-07
-4.79379e-07
-6.10016e-07
6.18839e-06
2.05221e-06
1.03878e-06
-1.71387e-06
9.40278e-07
7.20364e-06
4.93898e-06
4.97752e-06
-1.03085e-06
2.92949e-07
4.21346e-06
1.11867e-06
4.20697e-06
-9.81922e-07
2.15675e-06
4.1629e-06
2.78137e-06
3.09847e-06
-6.02086e-07
9.48636e-08
1.69234e-06
5.51236e-06
2.47625e-06
-9.23675e-07
-3.1423e-06
-1.34364e-06
-1.5086e-06
-2.33365e-06
-4.52077e-06
-3.86321e-06
-2.54008e-06
-2.77936e-09
-1.80655e-06
-2.55413e-06
-8.39059e-07
2.44316e-06
1.12545e-06
2.50667e-07
-3.5604e-08
-1.21143e-06
4.19106e-06
1.73691e-06
9.59402e-07
-1.09688e-06
1.53149e-07
5.15714e-06
4.1547e-06
4.35582e-06
-2.59407e-07
3.71962e-07
3.48492e-06
8.98578e-07
3.66465e-06
-5.76821e-08
1.42488e-06
3.06858e-06
2.20181e-06
2.83168e-06
2.16197e-07
1.25054e-07
1.13957e-06
3.89038e-06
1.75296e-06
-6.36647e-07
-2.80308e-06
-1.49787e-06
-1.2756e-06
-1.66231e-06
-3.35879e-06
-3.411e-06
-2.32283e-06
-2.55765e-07
-1.2283e-06
-1.74194e-06
-1.1301e-06
1.25387e-06
7.67965e-07
1.65266e-07
2.69294e-07
-1.32201e-06
2.6344e-06
1.31105e-06
8.04599e-07
-6.0791e-07
-1.72181e-07
3.52576e-06
3.37292e-06
3.70458e-06
2.37009e-07
6.45432e-07
2.90317e-06
6.59629e-07
3.13452e-06
5.85516e-07
1.02668e-06
2.25646e-06
1.70905e-06
2.4806e-06
7.40101e-07
2.91559e-07
8.08314e-07
2.65268e-06
1.21427e-06
-3.92937e-07
-2.27319e-06
-1.47625e-06
-1.13069e-06
-1.19133e-06
-2.42795e-06
-2.84398e-06
-2.06258e-06
-4.7544e-07
-8.52205e-07
-1.1519e-06
-1.10062e-06
4.44389e-07
4.38916e-07
6.93693e-08
4.09168e-07
-1.17505e-06
1.49318e-06
8.75323e-07
6.09979e-07
-2.79032e-07
-2.27521e-07
2.31544e-06
2.66946e-06
3.06646e-06
4.91622e-07
9.65926e-07
2.45047e-06
4.19471e-07
2.63866e-06
9.88011e-07
8.25862e-07
1.68661e-06
1.31391e-06
2.07911e-06
1.01757e-06
4.71568e-07
6.08021e-07
1.75735e-06
8.161e-07
-2.25401e-07
-1.70022e-06
-1.31062e-06
-1.01198e-06
-8.89575e-07
-1.70887e-06
-2.23992e-06
-1.76963e-06
-6.2049e-07
-6.31018e-07
-7.55502e-07
-9.25556e-07
-4.07954e-08
1.67727e-07
-3.26757e-08
3.8876e-07
-9.40346e-07
7.1901e-07
4.93801e-07
4.08081e-07
-9.65499e-08
-1.63171e-07
1.46706e-06
2.06806e-06
2.46583e-06
5.38455e-07
1.23779e-06
2.14969e-06
1.82174e-07
2.13889e-06
1.18491e-06
7.27491e-07
1.31102e-06
1.01309e-06
1.68223e-06
1.09584e-06
5.99648e-07
5.06962e-07
1.15345e-06
5.39478e-07
-1.10872e-07
-1.18941e-06
-1.07977e-06
-8.79625e-07
-6.90657e-07
-1.18528e-06
-1.69022e-06
-1.4523e-06
-6.81255e-07
-5.11517e-07
-5.11687e-07
-7.13696e-07
-2.90187e-07
-3.74453e-08
-1.3351e-07
2.75578e-07
-7.17068e-07
2.25608e-07
1.86312e-07
2.22768e-07
-2.02413e-08
-7.41317e-08
8.84223e-07
1.5747e-06
1.93121e-06
4.29066e-07
1.43045e-06
1.97964e-06
4.60863e-09
1.64178e-06
1.20524e-06
6.60552e-07
1.07196e-06
7.99899e-07
1.32098e-06
1.03666e-06
6.59092e-07
4.65303e-07
7.69583e-07
3.65014e-07
-2.90022e-08
-7.76289e-07
-8.20655e-07
-7.22875e-07
-5.47829e-07
-8.16227e-07
-1.22369e-06
-1.13703e-06
-6.68546e-07
-4.47188e-07
-3.78496e-07
-5.28445e-07
-3.87917e-07
-1.79302e-07
-2.20449e-07
1.18155e-07
-5.49963e-07
-6.63058e-08
-3.76195e-08
6.53164e-08
-1.31557e-08
-1.79559e-08
4.8924e-07
1.18791e-06
1.47622e-06
2.30444e-07
1.5127e-06
1.64031e-06
-2.23015e-07
1.42499e-06
1.17614e-06
6.04117e-07
9.13797e-07
6.5224e-07
1.02323e-06
9.08925e-07
6.57862e-07
4.5116e-07
5.47676e-07
2.75016e-07
3.66081e-08
-4.57479e-07
-5.69113e-07
-5.49867e-07
-4.26129e-07
-5.5778e-07
-8.52479e-07
-8.53935e-07
-6.04233e-07
-4.02544e-07
-3.12109e-07
-3.98626e-07
-4.03444e-07
-2.64302e-07
-2.86801e-07
-3.79153e-08
-4.47579e-07
-2.3047e-07
-1.915e-07
-6.38153e-08
-5.25668e-08
1.10129e-09
2.21789e-07
8.91107e-07
1.10513e-06
-1.36396e-08
1.51474e-06
1.39217e-06
-3.92202e-07
1.21264e-06
1.06897e-06
5.20925e-07
7.89867e-07
5.45711e-07
7.91926e-07
7.65503e-07
6.18436e-07
4.46281e-07
4.36279e-07
2.49738e-07
1.01149e-07
-2.17369e-07
-3.39988e-07
-3.68937e-07
-3.06345e-07
-3.69278e-07
-5.70009e-07
-6.13693e-07
-5.06993e-07
-3.60935e-07
-2.82278e-07
-3.21068e-07
-3.80065e-07
-3.09102e-07
-3.33018e-07
-1.71725e-07
-4.02349e-07
-3.2003e-07
-2.87423e-07
-1.64555e-07
-1.15591e-07
-9.09125e-09
3.99245e-08
6.57152e-07
8.04992e-07
-2.58958e-07
1.43992e-06
1.21563e-06
-5.54189e-07
9.89808e-07
9.23972e-07
4.22943e-07
6.85155e-07
4.64223e-07
6.23144e-07
6.34366e-07
5.62609e-07
4.43878e-07
3.98326e-07
2.70673e-07
1.72133e-07
-2.93978e-08
-1.39044e-07
-1.93026e-07
-1.83514e-07
-2.21488e-07
-3.58142e-07
-4.18069e-07
-3.97718e-07
-3.16371e-07
-2.64881e-07
-2.80974e-07
-3.51502e-07
-3.31849e-07
-3.65352e-07
-2.74311e-07
-3.975e-07
-3.74201e-07
-3.48212e-07
-2.45339e-07
-1.9033e-07
-4.49389e-08
-9.30903e-08
4.75495e-07
5.65299e-07
-4.88679e-07
1.3282e-06
1.05481e-06
-7.07627e-07
8.02524e-07
7.66336e-07
3.11308e-07
5.84086e-07
3.91671e-07
5.0174e-07
5.28018e-07
5.09049e-07
4.45899e-07
4.04155e-07
3.21574e-07
2.56134e-07
1.28276e-07
3.72896e-08
-2.74637e-08
-5.55127e-08
-9.35821e-08
-1.95585e-07
-2.61966e-07
-2.91036e-07
-2.66739e-07
-2.49892e-07
-2.65769e-07
-3.33925e-07
-3.47702e-07
-3.92263e-07
-3.54244e-07
-4.19535e-07
-4.17041e-07
-3.97876e-07
-3.14076e-07
-2.66492e-07
-1.02489e-07
-2.02688e-07
3.25745e-07
3.6656e-07
-6.99543e-07
1.19997e-06
9.06666e-07
-8.38673e-07
6.47279e-07
6.03966e-07
1.88661e-07
4.77264e-07
3.17355e-07
4.12484e-07
4.50017e-07
4.68899e-07
4.55587e-07
4.37755e-07
3.94475e-07
3.55058e-07
2.73751e-07
1.97843e-07
1.27163e-07
7.44274e-08
2.30398e-08
-6.60927e-08
-1.39151e-07
-1.97051e-07
-2.16431e-07
-2.34879e-07
-2.64633e-07
-3.33935e-07
-3.71941e-07
-4.25777e-07
-4.24432e-07
-4.65549e-07
-4.70679e-07
-4.54923e-07
-3.87099e-07
-3.53205e-07
-1.75862e-07
-3.07154e-07
1.92359e-07
1.91542e-07
-8.91849e-07
1.06222e-06
7.62427e-07
-9.7461e-07
5.23228e-07
4.42755e-07
5.67704e-08
3.57182e-07
2.31455e-07
3.37419e-07
3.95673e-07
4.46472e-07
4.77384e-07
4.93242e-07
4.88277e-07
4.74345e-07
4.22363e-07
3.57782e-07
2.8201e-07
2.09866e-07
1.39739e-07
4.67242e-08
-3.83389e-08
-1.16953e-07
-1.67414e-07
-2.15734e-07
-2.69576e-07
-3.51268e-07
-4.11312e-07
-4.7863e-07
-5.01653e-07
-5.3933e-07
-5.48107e-07
-5.35891e-07
-4.77028e-07
-4.56444e-07
-2.73563e-07
-4.24872e-07
5.90896e-08
9.01169e-09
-1.08773e-06
9.56327e-07
-0.0002865
-0.000237168
7.74701e-05
0.000209921
2.9377e-05
-0.000221823
-0.000226136
6.01649e-05
0.000213101
-1.6826e-05
-0.000250794
-0.000238691
5.69314e-05
0.000183588
-9.48189e-05
-0.000300112
-0.000220624
0.000134739
0.000292009
-7.02585e-05
-0.000297725
-0.000229096
7.28087e-05
0.000200553
-8.06656e-06
-0.000267231
-0.000227425
7.35664e-05
0.000202134
-3.77608e-05
-0.00026653
-0.000232816
6.28217e-05
0.000206788
-1.38231e-05
-0.000257373
-0.000205955
8.64254e-05
0.000227292
-4.34491e-05
-0.000287139
-0.0002391
7.34488e-05
0.000207742
3.05682e-05
-0.000222581
-0.000227052
5.67126e-05
0.000212585
-1.73373e-05
-0.000251947
-0.000240068
5.3004e-05
0.000181539
-9.3663e-05
-0.000301858
-0.000222373
0.000129957
0.000290584
-7.05456e-05
-0.000298488
-0.000230695
6.88804e-05
0.00019943
-8.34948e-06
-0.00026819
-0.000228524
6.90375e-05
0.000200112
-3.83475e-05
-0.00026745
-0.000234276
5.97881e-05
0.000204566
-1.33372e-05
-0.000258212
-0.00020745
8.23822e-05
0.000226263
-4.35655e-05
-0.000289531
-0.000245097
6.87925e-05
0.000207669
2.86195e-05
-0.000225168
-0.000230852
5.17272e-05
0.000213491
-1.7981e-05
-0.000253798
-0.000244349
4.873e-05
0.000180439
-9.58353e-05
-0.000305105
-0.000226536
0.000124122
0.000290776
-7.19037e-05
-0.000302059
-0.000232651
6.3786e-05
0.000200017
-7.06541e-06
-0.00027035
-0.000234427
6.41575e-05
0.000199144
-4.01496e-05
-0.000269775
-0.000238619
5.629e-05
0.000203362
-1.33391e-05
-0.000259853
-0.000211581
7.78491e-05
0.000226227
-4.40998e-05
-0.000293048
-0.000249142
6.25249e-05
0.000206202
2.89995e-05
-0.000226965
-0.000234917
4.61985e-05
0.00021199
-2.12921e-05
-0.000256715
-0.000247984
4.15383e-05
0.000180308
-9.76624e-05
-0.000309241
-0.0002324
0.000116318
0.000289218
-7.6428e-05
-0.0003046
-0.000240295
5.94351e-05
0.000195264
-1.31852e-05
-0.000273981
-0.000238562
5.8864e-05
0.000197668
-4.22868e-05
-0.000273747
-0.000243448
5.15188e-05
0.000201627
-1.75391e-05
-0.000262606
-0.000216372
7.22339e-05
0.000225437
-4.8539e-05
-0.00029512
-0.000256165
5.58826e-05
0.0002012
1.82495e-05
-0.000231007
-0.00023717
3.84074e-05
0.000206042
-2.43302e-05
-0.000260052
-0.000256356
3.61842e-05
0.000173959
-0.000105729
-0.000312364
-0.000237153
0.000109268
0.000284739
-8.35322e-05
-0.000311767
-0.000241559
5.37275e-05
0.000193662
-1.62565e-05
-0.000274147
-0.000244859
5.17724e-05
0.000192303
-4.97209e-05
-0.000277269
-0.000248646
4.70566e-05
0.000196931
-2.46714e-05
-0.000262594
-0.000222293
6.4539e-05
0.000220568
-5.31201e-05
-0.000294723
-0.000258115
4.47042e-05
0.000193879
1.62481e-05
-0.000224935
-0.000240567
2.6326e-05
0.000187147
-3.56262e-05
-0.000257838
-0.000256012
2.29092e-05
0.000164286
-0.000113064
-0.000313197
-0.000250011
9.14601e-05
0.000265952
-9.27197e-05
-0.000308612
-0.000250304
4.31269e-05
0.00018207
-2.54839e-05
-0.000275429
-0.000253389
3.93322e-05
0.000178319
-5.63022e-05
-0.000277469
-0.000254558
3.33695e-05
0.000187551
-3.25886e-05
-0.000262006
-0.000222164
5.23056e-05
0.000210685
-6.43147e-05
-0.000287052
-0.000263119
2.41768e-05
0.000170201
3.87546e-06
-0.000226442
-0.000247265
-4.80576e-07
0.000155602
-3.9819e-05
-0.000249029
-0.000272928
1.57695e-06
0.000141782
-0.000118383
-0.000305261
-0.000255547
6.2163e-05
0.000230031
-0.000104315
-0.000304318
-0.000256767
2.23623e-05
0.000157341
-2.96892e-05
-0.000259508
-0.000257493
1.2831e-05
0.000157082
-6.27766e-05
-0.000269246
-0.000259889
1.07783e-05
0.000163312
-3.98954e-05
-0.000248719
-0.000230164
2.78957e-05
0.000185248
-7.04008e-05
-0.000262094
-0.000262881
-1.17136e-05
0.000128024
-2.87298e-06
-0.000199103
-0.000250115
-4.18729e-05
0.000110718
-4.67409e-05
-0.000227287
-0.000263115
-3.38504e-05
0.000103193
-0.000123905
-0.000279455
-0.000255469
1.24997e-05
0.00017072
-0.000110209
-0.000277735
-0.000254364
-9.56994e-06
0.000117333
-3.39215e-05
-0.000237489
-0.000262018
-2.75932e-05
0.000113175
-6.48557e-05
-0.000247635
-0.000266545
-2.8508e-05
0.000122663
-4.574e-05
-0.000226616
-0.000226837
-8.33472e-06
0.000132061
-8.01344e-05
-0.00022665
-0.000245742
-4.22007e-05
7.23412e-05
-1.21627e-05
-0.00017811
-0.000229149
-7.18684e-05
5.93382e-05
-5.04518e-05
-0.000194222
-0.000242019
-6.26606e-05
6.00485e-05
-0.000116975
-0.000240803
-0.000237655
-3.21855e-05
0.00010563
-0.00011015
-0.000240627
-0.000238057
-3.89104e-05
7.85803e-05
-3.48999e-05
-0.000201452
-0.000235946
-5.95337e-05
7.12382e-05
-6.39756e-05
-0.000215679
-0.000252845
-6.4183e-05
7.2045e-05
-5.21436e-05
-0.000190668
-0.000211104
-4.1683e-05
7.97572e-05
-8.07294e-05
-0.000180088
-0.000208581
-5.89774e-05
3.41881e-05
-1.82602e-05
-0.000138543
-0.000200737
-8.54136e-05
2.27548e-05
-5.19822e-05
-0.000150668
-0.000203595
-7.57927e-05
2.35312e-05
-0.000110604
-0.000192694
-0.00020043
-5.42177e-05
5.53739e-05
-0.000103004
-0.000196072
-0.000202416
-5.34833e-05
4.26462e-05
-3.39982e-05
-0.000162213
-0.000204316
-7.3454e-05
4.01493e-05
-6.19946e-05
-0.00017593
-0.000219942
-8.2109e-05
2.65299e-05
-5.50344e-05
-0.00015357
-0.000181802
-5.54881e-05
3.71947e-05
-8.21087e-05
-0.000139661
-0.000166801
-5.45769e-05
9.57826e-06
-1.72066e-05
-0.000109566
-0.000157346
-7.61034e-05
5.69678e-06
-4.4382e-05
-0.000116136
-0.00015453
-6.71542e-05
6.72926e-06
-9.22312e-05
-0.000148836
-0.000153479
-5.06039e-05
3.0584e-05
-8.79785e-05
-0.000154447
-0.000156904
-4.97423e-05
2.58542e-05
-2.75632e-05
-0.000126159
-0.000156822
-6.62322e-05
2.01105e-05
-5.61312e-05
-0.00013711
-0.000174936
-7.90859e-05
5.86682e-06
-4.99709e-05
-0.000118631
-0.000138816
-4.93968e-05
1.72568e-05
-6.73539e-05
-0.000102706
-0.000120228
-3.68435e-05
7.88864e-06
-9.53956e-06
-7.90415e-05
-0.000115586
-5.56927e-05
5.09424e-06
-3.14382e-05
-8.17415e-05
-0.000108774
-4.96797e-05
6.16301e-06
-7.0267e-05
-0.000111118
-0.000110598
-3.36452e-05
2.62432e-05
-6.56113e-05
-0.000117156
-0.000114079
-3.56103e-05
2.00108e-05
-1.7733e-05
-9.37082e-05
-0.000115293
-4.97301e-05
1.68621e-05
-4.18006e-05
-0.000101887
-0.00012779
-5.87195e-05
4.59076e-06
-3.73925e-05
-8.8444e-05
-0.000101836
-3.32919e-05
1.52904e-05
-4.94785e-05
-7.22994e-05
-8.53888e-05
-1.98181e-05
1.17535e-05
2.11089e-06
-5.42755e-05
-8.01255e-05
-3.59409e-05
1.08087e-05
-1.48029e-05
-5.50771e-05
-7.22475e-05
-3.1521e-05
1.0609e-05
-4.88751e-05
-8.2401e-05
-7.78495e-05
-1.77961e-05
2.88088e-05
-4.38614e-05
-8.7248e-05
-7.99449e-05
-2.18448e-05
2.1982e-05
-5.74493e-06
-6.67636e-05
-8.04285e-05
-3.3228e-05
1.90925e-05
-2.69939e-05
-7.2311e-05
-8.96156e-05
-3.80773e-05
1.08277e-05
-2.20445e-05
-6.26632e-05
-7.00399e-05
-1.77933e-05
1.9354e-05
-2.9467e-05
-4.95588e-05
-5.87922e-05
-7.74992e-06
1.55359e-05
9.87735e-06
-3.47726e-05
-5.40637e-05
-2.15494e-05
1.42696e-05
-3.66976e-06
-3.49345e-05
-4.63745e-05
-1.88251e-05
1.33213e-05
-3.23545e-05
-6.12574e-05
-5.50908e-05
-8.07738e-06
2.86756e-05
-2.65504e-05
-6.42932e-05
-5.60469e-05
-1.26045e-05
2.16937e-05
2.33202e-06
-4.65501e-05
-5.5973e-05
-2.15502e-05
1.99139e-05
-1.55001e-05
-5.00257e-05
-6.15646e-05
-2.24127e-05
1.52093e-05
-9.91848e-06
-4.35678e-05
-4.88204e-05
-7.39072e-06
2.1447e-05
-1.51078e-05
-3.29625e-05
-4.12974e-05
-1.18452e-06
1.52898e-05
1.36459e-05
-2.18387e-05
-3.64304e-05
-1.24718e-05
1.46117e-05
3.17874e-06
-2.18667e-05
-2.96512e-05
-1.14283e-05
1.27851e-05
-2.12075e-05
-4.55616e-05
-3.95363e-05
-3.5807e-06
2.51666e-05
-1.49746e-05
-4.7383e-05
-3.96412e-05
-7.48666e-06
1.92793e-05
6.56781e-06
-3.19965e-05
-3.88349e-05
-1.43203e-05
1.80713e-05
-8.51037e-06
-3.40729e-05
-4.24511e-05
-1.3003e-05
1.56138e-05
-2.59446e-06
-2.98323e-05
-3.36512e-05
-1.51198e-06
2.00198e-05
-5.85961e-06
-2.14807e-05
-2.90258e-05
2.0894e-06
1.33515e-05
1.38067e-05
-1.32312e-05
-2.45973e-05
-7.17035e-06
1.26051e-05
5.63235e-06
-1.32688e-05
-1.88716e-05
-7.44558e-06
1.0332e-05
-1.40953e-05
-3.36111e-05
-2.8825e-05
-1.65342e-06
1.99692e-05
-7.91156e-06
-3.45775e-05
-2.83509e-05
-4.77433e-06
1.55057e-05
7.81387e-06
-2.15025e-05
-2.711e-05
-1.00311e-05
1.47614e-05
-4.55626e-06
-2.27487e-05
-2.93218e-05
-7.55506e-06
1.35458e-05
9.96423e-07
-1.99781e-05
-2.35752e-05
1.28923e-06
1.69058e-05
-9.57109e-07
-1.2971e-05
-2.03926e-05
3.3691e-06
1.05536e-05
1.25437e-05
-7.38329e-06
-1.65856e-05
-4.08952e-06
9.94322e-06
6.50952e-06
-7.34213e-06
-1.18266e-05
-5.28132e-06
7.46116e-06
-9.53614e-06
-2.4366e-05
-2.10991e-05
-1.04599e-06
1.46055e-05
-3.86907e-06
-2.47297e-05
-2.03426e-05
-3.38139e-06
1.17121e-05
7.67935e-06
-1.37625e-05
-1.87925e-05
-7.35444e-06
1.13327e-05
-2.31215e-06
-1.44946e-05
-2.01242e-05
-4.46507e-06
1.06606e-05
2.57974e-06
-1.27254e-05
-1.62285e-05
2.58749e-06
1.33648e-05
1.63801e-06
-7.09085e-06
-1.41836e-05
3.64678e-06
8.07215e-06
1.07021e-05
-3.49178e-06
-1.10212e-05
-2.28601e-06
7.43796e-06
6.30717e-06
-3.42079e-06
-7.16351e-06
-3.99004e-06
4.8901e-06
-6.53785e-06
-1.72852e-05
-1.54897e-05
-9.66878e-07
9.96064e-06
-1.67628e-06
-1.7263e-05
-1.46391e-05
-2.71944e-06
8.38628e-06
6.81492e-06
-8.26385e-06
-1.28556e-05
-5.5866e-06
8.28551e-06
-9.89028e-07
-8.65763e-06
-1.36204e-05
-2.67128e-06
7.90239e-06
3.09245e-06
-7.46278e-06
-1.09214e-05
2.89695e-06
1.01164e-05
2.8916e-06
-3.01621e-06
-9.66445e-06
3.45696e-06
6.03031e-06
8.76875e-06
-9.70601e-07
-7.14873e-06
-1.1977e-06
5.40627e-06
5.70973e-06
-8.54251e-07
-4.06362e-06
-3.1271e-06
2.9008e-06
-4.55677e-06
-1.20238e-05
-1.13433e-05
-1.08638e-06
6.29689e-06
-5.97418e-07
-1.17393e-05
-1.05135e-05
-2.39457e-06
5.76678e-06
5.69797e-06
-4.50176e-06
-8.60351e-06
-4.36169e-06
5.88226e-06
-2.19837e-07
-4.64178e-06
-9.01107e-06
-1.61602e-06
5.64736e-06
3.06453e-06
-3.83346e-06
-7.00349e-06
2.82383e-06
7.50746e-06
3.4119e-06
-3.74897e-07
-6.4399e-06
3.05421e-06
4.54338e-06
6.97247e-06
5.97008e-07
-4.43442e-06
-5.5421e-07
3.8898e-06
4.90133e-06
6.78879e-07
-2.08713e-06
-2.47908e-06
1.515e-06
-3.24509e-06
-8.18242e-06
-8.27777e-06
-1.2268e-06
3.64587e-06
-1.5832e-07
-7.7803e-06
-7.52678e-06
-2.21889e-06
3.77824e-06
4.53722e-06
-2.05627e-06
-5.60403e-06
-3.40905e-06
4.09007e-06
1.96763e-07
-2.01677e-06
-5.8046e-06
-9.81527e-07
3.96562e-06
2.73859e-06
-1.42505e-06
-4.14477e-06
2.56109e-06
5.48483e-06
3.5124e-06
1.2613e-06
-4.1634e-06
2.61891e-06
3.47262e-06
5.43553e-06
1.50428e-06
-2.57155e-06
-1.67261e-07
2.79849e-06
4.04957e-06
1.50261e-06
-8.33532e-07
-1.94701e-06
6.41798e-07
-2.38209e-06
-5.46512e-06
-6.0023e-06
-1.31323e-06
1.84902e-06
-6.25932e-08
-5.01361e-06
-5.36677e-06
-2.06529e-06
2.33908e-06
3.4637e-06
-5.76354e-07
-3.5185e-06
-2.65566e-06
2.78248e-06
3.835e-07
-4.26727e-07
-3.59781e-06
-5.88069e-07
2.74792e-06
2.30978e-06
3.01865e-08
-2.10138e-06
2.2675e-06
3.99572e-06
3.409e-06
2.14105e-06
-2.58404e-06
2.22268e-06
2.72499e-06
4.17274e-06
1.94005e-06
-1.30404e-06
7.15505e-08
2.04385e-06
3.22665e-06
1.79733e-06
-8.08261e-08
-1.4848e-06
1.43788e-07
-1.80037e-06
-3.60066e-06
-4.30984e-06
-1.33097e-06
6.91712e-07
-1.17583e-07
-3.16908e-06
-3.79782e-06
-1.88364e-06
1.31185e-06
2.51611e-06
2.21968e-07
-2.08377e-06
-2.03424e-06
1.84034e-06
4.25346e-07
4.2544e-07
-2.11794e-06
-3.42645e-07
1.88493e-06
1.87971e-06
8.24538e-07
-6.94622e-07
1.99451e-06
2.8838e-06
3.19385e-06
2.52354e-06
-1.51701e-06
1.89168e-06
2.18113e-06
3.16664e-06
2.08157e-06
-4.41651e-07
2.43898e-07
1.50841e-06
2.47541e-06
1.74648e-06
3.52037e-07
-1.07747e-06
-1.14199e-07
-1.38039e-06
-2.35158e-06
-3.05547e-06
-1.27832e-06
4.08195e-09
-2.2862e-07
-1.98132e-06
-2.65732e-06
-1.65961e-06
6.05842e-07
1.72704e-06
5.47275e-07
-1.13762e-06
-1.51678e-06
1.1819e-06
3.87781e-07
7.71422e-07
-1.16172e-06
-1.96182e-07
1.27751e-06
1.4822e-06
1.14957e-06
2.23073e-07
1.76088e-06
2.04598e-06
2.9476e-06
2.59755e-06
-8.41948e-07
1.63867e-06
1.80426e-06
2.38432e-06
2.01131e-06
1.20455e-07
3.80352e-07
1.13481e-06
1.85305e-06
1.53164e-06
5.59161e-07
-7.25547e-07
-2.14032e-07
-1.05731e-06
-1.52977e-06
-2.13492e-06
-1.16018e-06
-3.64141e-07
-3.36317e-07
-1.25176e-06
-1.83605e-06
-1.40037e-06
1.43032e-07
1.08806e-06
5.88009e-07
-5.4189e-07
-1.0889e-06
7.28089e-07
3.02856e-07
8.05076e-07
-5.75481e-07
-1.06411e-07
8.61749e-07
1.14058e-06
1.18848e-06
7.68004e-07
1.56742e-06
1.3943e-06
2.67395e-06
2.49444e-06
-4.64863e-07
1.43452e-06
1.53266e-06
1.76939e-06
1.81075e-06
4.69707e-07
4.92214e-07
8.88113e-07
1.36695e-06
1.25123e-06
6.1952e-07
-4.2519e-07
-2.13387e-07
-7.89126e-07
-9.94719e-07
-1.46623e-06
-9.86685e-07
-5.14125e-07
-4.09378e-07
-8.18329e-07
-1.25369e-06
-1.12025e-06
-1.32521e-07
5.98536e-07
4.68111e-07
-2.03618e-07
-7.48854e-07
4.17314e-07
1.91879e-07
6.64697e-07
-2.39913e-07
-5.4617e-08
5.61441e-07
8.67822e-07
1.05499e-06
1.03127e-06
1.40113e-06
8.82925e-07
2.41587e-06
2.3104e-06
-2.86207e-07
1.2633e-06
1.3212e-06
1.30025e-06
1.5562e-06
6.43721e-07
5.65851e-07
7.29877e-07
1.0166e-06
9.88957e-07
5.97866e-07
-1.87703e-07
-1.57219e-07
-5.59835e-07
-6.37747e-07
-9.75992e-07
-7.83949e-07
-5.31968e-07
-4.36437e-07
-5.71228e-07
-8.51129e-07
-8.56416e-07
-2.75006e-07
2.46758e-07
2.93049e-07
-4.91067e-08
-5.03166e-07
2.00603e-07
8.06678e-08
4.62013e-07
-7.5582e-08
-4.14362e-08
3.36283e-07
6.53296e-07
8.44729e-07
1.09852e-06
1.23804e-06
4.72214e-07
2.16654e-06
2.01867e-06
-2.56611e-07
1.17349e-06
1.16777e-06
9.55857e-07
1.29819e-06
6.95356e-07
6.00978e-07
6.31221e-07
7.76513e-07
7.70718e-07
5.42347e-07
-6.52747e-09
-7.29608e-08
-3.57367e-07
-3.88872e-07
-6.2083e-07
-5.82691e-07
-4.68414e-07
-4.12731e-07
-4.23715e-07
-5.81968e-07
-6.33237e-07
-3.27652e-07
1.77427e-08
1.19026e-07
-1.86683e-08
-3.5096e-07
4.46639e-08
-2.26753e-08
2.52353e-07
-3.13186e-08
-5.33045e-08
1.65418e-07
4.77425e-07
6.1468e-07
1.01786e-06
1.06462e-06
1.32459e-07