/*--------------------------------*- C++ -*----------------------------------*\
  =========                 |
  \\      /  F ield         | OpenFOAM: The Open Source CFD Toolbox
   \\    /   O peration     | Website:  https://openfoam.org
    \\  /    A nd           | Version:  10
     \\/     M anipulation  |
\*---------------------------------------------------------------------------*/
FoamFile
{
    format      ascii;
    class       volScalarField;
    location    "1";
    object      nut;
}
// * * * * * * * * * * * * * * * * * * * * * * * * * * * * * * * * * * * * * //

dimensions      [0 2 -1 0 0 0 0];

internalField   nonuniform List<scalar> 
25600
(
4.66821e-05
5.25362e-05
5.49428e-05
4.6841e-05
4.38425e-05
4.71834e-05
5.00095e-05
5.26967e-05
4.95532e-05
4.40637e-05
4.64402e-05
5.1069e-05
5.52487e-05
4.51852e-05
4.68012e-05
4.54937e-05
5.41635e-05
5.50875e-05
4.9743e-05
4.53195e-05
4.70116e-05
5.37451e-05
5.14393e-05
5.01792e-05
4.50141e-05
4.62647e-05
5.18345e-05
5.32984e-05
4.82798e-05
4.68901e-05
4.77003e-05
5.24332e-05
5.33571e-05
4.86278e-05
4.47404e-05
4.64107e-05
5.00854e-05
5.20581e-05
4.72888e-05
4.44197e-05
4.30768e-05
4.74141e-05
5.44529e-05
4.75153e-05
4.23147e-05
4.37668e-05
4.62996e-05
5.09523e-05
4.95155e-05
4.24872e-05
4.27365e-05
4.56598e-05
5.53105e-05
4.58456e-05
4.44566e-05
4.26195e-05
5.05172e-05
5.38138e-05
4.99126e-05
4.53052e-05
4.28106e-05
4.95925e-05
5.04152e-05
4.98155e-05
4.44365e-05
4.33106e-05
4.73768e-05
5.15545e-05
4.82894e-05
4.49202e-05
4.44924e-05
4.85426e-05
5.23904e-05
4.96009e-05
4.31631e-05
4.30114e-05
4.63421e-05
5.05047e-05
4.7712e-05
4.33879e-05
3.9253e-05
3.51522e-05
4.39013e-05
4.37964e-05
3.99088e-05
3.86801e-05
3.65615e-05
3.97231e-05
4.33522e-05
3.97494e-05
3.76314e-05
3.31691e-05
4.53589e-05
4.23454e-05
4.0626e-05
3.87891e-05
4.10422e-05
4.27583e-05
4.37232e-05
4.44074e-05
3.7982e-05
3.84669e-05
4.03317e-05
4.28836e-05
4.17028e-05
3.95721e-05
3.72093e-05
3.96608e-05
4.2109e-05
4.06288e-05
3.9902e-05
3.71864e-05
4.11625e-05
4.52456e-05
4.00145e-05
3.82213e-05
3.67687e-05
3.94377e-05
4.22557e-05
4.04925e-05
3.59291e-05
2.49917e-05
2.44466e-05
3.01556e-05
3.27744e-05
3.48483e-05
2.83496e-05
2.16607e-05
2.65262e-05
3.23966e-05
3.23478e-05
2.42742e-05
2.6961e-05
2.97631e-05
3.19111e-05
3.45665e-05
3.20907e-05
2.41247e-05
2.59833e-05
3.60718e-05
3.49787e-05
2.72838e-05
2.23268e-05
2.5288e-05
3.13582e-05
3.471e-05
2.85354e-05
2.03298e-05
2.54654e-05
3.00762e-05
3.51566e-05
2.59058e-05
2.05788e-05
3.03992e-05
3.17057e-05
3.3096e-05
2.80116e-05
2.20138e-05
2.7246e-05
3.03409e-05
2.55097e-05
2.07434e-05
9.05362e-06
1.17516e-05
1.78845e-05
2.4715e-05
2.33047e-05
9.94025e-06
9.35984e-06
1.92209e-05
2.05787e-05
2.17548e-05
1.18531e-05
1.30118e-05
1.66848e-05
2.52043e-05
2.18044e-05
9.44861e-06
8.65195e-06
1.86145e-05
2.58827e-05
1.77762e-05
9.31077e-06
8.26239e-06
1.58407e-05
2.35294e-05
2.08357e-05
8.6519e-06
9.88954e-06
1.49946e-05
2.27668e-05
1.90052e-05
7.73736e-06
1.40886e-05
1.71656e-05
2.22789e-05
2.13896e-05
1.00232e-05
1.18028e-05
1.46524e-05
1.27654e-05
1.47987e-05
6.25713e-06
9.62694e-06
9.83441e-06
1.01573e-05
1.48474e-05
8.18033e-06
1.24097e-05
9.14946e-06
1.02666e-05
1.69472e-05
5.7009e-06
8.7629e-06
7.34133e-06
1.38292e-05
7.76719e-06
8.27014e-06
1.31434e-05
9.03671e-06
1.374e-05
6.5076e-06
8.30408e-06
1.19608e-05
9.19416e-06
1.05511e-05
9.41572e-06
7.44595e-06
8.8077e-06
9.41604e-06
7.54942e-06
1.45638e-05
6.24296e-06
9.6981e-06
8.31627e-06
8.83326e-06
1.34351e-05
7.5155e-06
8.70409e-06
8.67674e-06
5.81734e-06
7.35817e-06
8.47025e-06
1.18929e-05
1.02091e-05
7.27287e-06
5.52525e-06
7.73747e-06
1.33051e-05
9.31445e-06
8.16823e-06
9.80219e-06
9.08468e-06
1.052e-05
8.86281e-06
5.49161e-06
5.54647e-06
1.02608e-05
1.37797e-05
9.82159e-06
7.57591e-06
4.99424e-06
9.29869e-06
1.26525e-05
9.61086e-06
5.13557e-06
2.81241e-06
6.55157e-06
1.09165e-05
1.03806e-05
5.34196e-06
9.10716e-06
5.29979e-06
1.42763e-05
8.34359e-06
3.4981e-06
5.91499e-06
5.97803e-06
1.1687e-05
1.03001e-05
8.47505e-06
4.18804e-06
9.13521e-06
1.12936e-05
1.0332e-05
6.15983e-06
3.16604e-06
6.89553e-06
1.15792e-05
9.52491e-06
5.6557e-06
3.53472e-06
1.08303e-05
9.96897e-06
9.86057e-06
5.41795e-06
7.34253e-06
9.60579e-06
1.12342e-05
9.22226e-06
5.49917e-06
4.38064e-06
8.64786e-06
1.17753e-05
1.01151e-05
4.55411e-06
2.12169e-06
6.23123e-06
1.17112e-05
9.47876e-06
5.52689e-06
4.62504e-06
7.70407e-06
1.45442e-05
8.69231e-06
3.11177e-06
3.32046e-06
7.89776e-06
1.37934e-05
1.03855e-05
1.06094e-05
7.92204e-06
6.95764e-06
9.73971e-06
1.03364e-05
6.15051e-06
5.95634e-06
8.80074e-06
1.01316e-05
1.08001e-05
5.9477e-06
9.1842e-06
8.14696e-06
9.35538e-06
1.16318e-05
7.91848e-06
6.94899e-06
7.81827e-06
9.27278e-06
1.14071e-05
6.52608e-06
3.01947e-06
6.61867e-06
1.07973e-05
1.02463e-05
5.23133e-06
4.40544e-06
6.04692e-06
1.02609e-05
1.04312e-05
7.3498e-06
1.04919e-05
7.26524e-06
1.01725e-05
8.84827e-06
5.85495e-06
5.71971e-06
9.13917e-06
1.11289e-05
1.03971e-05
1.16947e-05
1.10354e-05
5.77905e-06
8.17656e-06
9.60617e-06
1.08847e-05
1.28611e-05
9.37493e-06
8.1659e-06
1.08588e-05
1.18186e-05
1.32362e-05
7.34385e-06
9.29669e-06
1.12245e-05
1.09271e-05
9.20893e-06
6.56744e-06
7.58395e-06
1.32761e-05
9.40476e-06
5.31181e-06
5.84561e-06
8.70021e-06
1.09394e-05
1.04275e-05
1.09012e-05
5.95379e-06
8.81124e-06
1.12354e-05
1.03672e-05
1.21416e-05
6.25863e-06
8.12087e-06
9.79323e-06
8.85472e-06
1.13827e-05
7.79528e-06
8.74433e-06
9.69533e-06
1.10555e-05
1.18656e-05
5.16123e-06
5.87121e-06
8.09626e-06
1.17889e-05
1.29089e-05
6.25658e-06
6.02554e-06
7.3903e-06
1.37849e-05
1.32579e-05
6.667e-06
6.83442e-06
8.28603e-06
1.27128e-05
1.07753e-05
5.75181e-06
4.98531e-06
9.3735e-06
1.26221e-05
9.33524e-06
5.53454e-06
6.05993e-06
9.5507e-06
1.23973e-05
1.17212e-05
5.56895e-06
6.8487e-06
8.4521e-06
1.05109e-05
1.15842e-05
5.52252e-06
6.29299e-06
8.73572e-06
1.1038e-05
1.26791e-05
5.98277e-06
6.19863e-06
6.10036e-06
7.90028e-06
9.3332e-06
3.82279e-06
2.79894e-06
4.56675e-06
8.18833e-06
9.18847e-06
3.90021e-06
3.94519e-06
3.64297e-06
9.98412e-06
8.71917e-06
4.03817e-06
4.2951e-06
4.68981e-06
9.11788e-06
7.75646e-06
3.97671e-06
3.04491e-06
4.9466e-06
1.09878e-05
8.6236e-06
4.35553e-06
3.71206e-06
5.64872e-06
9.57451e-06
8.2285e-06
3.97275e-06
4.2949e-06
4.29033e-06
7.97296e-06
8.42388e-06
3.82948e-06
4.03136e-06
5.15224e-06
8.17968e-06
8.89755e-06
4.50095e-06
3.04523e-06
2.75114e-06
3.50141e-06
4.32646e-06
1.99889e-06
1.48067e-06
1.53313e-06
3.75803e-06
4.75833e-06
3.2295e-06
1.57091e-06
1.02767e-06
4.55876e-06
4.57212e-06
2.36355e-06
1.82834e-06
1.61798e-06
4.20538e-06
4.38419e-06
2.86007e-06
1.53138e-06
1.79933e-06
6.24989e-06
5.31137e-06
3.32503e-06
2.2494e-06
1.8638e-06
4.69496e-06
4.44567e-06
2.45556e-06
2.07918e-06
1.54333e-06
3.69776e-06
4.61004e-06
2.32983e-06
1.80505e-06
1.98218e-06
3.52118e-06
4.39056e-06
2.55515e-06
1.40475e-06
1.68038e-06
9.36381e-07
1.87293e-06
1.46131e-06
1.14767e-06
8.90712e-07
1.04787e-06
1.63206e-06
1.58939e-06
1.07173e-06
1.01821e-06
1.28162e-06
1.77278e-06
1.06892e-06
1.08144e-06
1.3677e-06
1.06103e-06
1.81006e-06
1.73363e-06
1.09759e-06
1.76989e-06
2.4487e-06
2.43073e-06
1.90967e-06
1.51111e-06
1.17973e-06
1.42913e-06
2.08005e-06
1.59711e-06
1.43982e-06
1.37643e-06
7.88971e-07
1.97325e-06
1.31075e-06
1.06704e-06
1.33653e-06
6.80953e-07
1.85297e-06
1.5475e-06
8.71151e-07
1.49594e-06
1.2155e-06
1.02217e-06
9.21857e-07
9.8298e-07
1.02174e-06
8.43666e-07
9.21017e-07
1.185e-06
9.77004e-07
8.91992e-07
8.76834e-07
9.5524e-07
7.41399e-07
8.62213e-07
1.28751e-06
4.8354e-07
1.01286e-06
1.2639e-06
9.84371e-07
1.84764e-06
1.1723e-06
1.19329e-06
1.34062e-06
1.36949e-06
1.33371e-06
1.20223e-06
1.32585e-06
1.15365e-06
1.26931e-06
1.31743e-06
5.28133e-07
1.2194e-06
8.38177e-07
8.32981e-07
1.34921e-06
4.30853e-07
9.56069e-07
9.13467e-07
7.76948e-07
1.45052e-06
1.2429e-06
9.12985e-07
7.22178e-07
8.78689e-07
1.00881e-06
1.00186e-06
7.91311e-07
7.96801e-07
8.64928e-07
7.70451e-07
1.03638e-06
8.78941e-07
5.00221e-07
6.59749e-07
1.1886e-06
7.22928e-07
7.82851e-07
9.43997e-07
8.31565e-07
1.65051e-06
1.52738e-06
9.51923e-07
9.87548e-07
1.1417e-06
1.21497e-06
1.29615e-06
1.11781e-06
8.40477e-07
1.04583e-06
1.20365e-06
6.92754e-07
1.00709e-06
6.40659e-07
7.12825e-07
1.22456e-06
5.6303e-07
7.34377e-07
7.29058e-07
6.62395e-07
1.15707e-06
1.18936e-06
8.40457e-07
5.94964e-07
7.58491e-07
9.10137e-07
8.55653e-07
6.77772e-07
6.78871e-07
7.45049e-07
6.1625e-07
8.65633e-07
8.093e-07
4.11796e-07
5.35353e-07
1.05877e-06
6.71546e-07
6.57339e-07
7.98329e-07
6.8831e-07
1.39817e-06
1.54135e-06
8.06836e-07
7.89218e-07
9.97691e-07
1.08229e-06
1.15584e-06
9.53205e-07
6.92859e-07
9.04229e-07
1.06749e-06
6.06214e-07
8.66149e-07
5.60778e-07
5.87409e-07
1.03178e-06
5.35706e-07
6.32691e-07
5.93098e-07
5.47136e-07
9.71382e-07
1.02935e-06
7.48354e-07
4.87846e-07
6.42353e-07
8.18713e-07
7.55645e-07
5.87314e-07
5.32953e-07
6.16983e-07
4.96067e-07
7.07895e-07
7.63736e-07
3.39235e-07
4.1149e-07
9.2512e-07
5.96446e-07
5.45151e-07
6.7747e-07
5.65355e-07
1.12855e-06
1.41066e-06
6.9093e-07
6.30204e-07
8.53504e-07
9.43146e-07
9.66499e-07
8.0745e-07
5.84113e-07
7.37618e-07
9.25055e-07
5.20328e-07
7.3504e-07
4.6884e-07
4.64932e-07
8.70573e-07
5.07102e-07
5.12276e-07
4.96315e-07
4.58335e-07
7.73654e-07
8.83761e-07
6.59138e-07
4.02071e-07
5.24801e-07
7.11518e-07
6.47938e-07
4.95402e-07
4.29662e-07
5.07134e-07
3.96016e-07
5.47366e-07
6.70497e-07
2.84185e-07
3.1101e-07
7.70908e-07
5.45775e-07
4.36401e-07
5.53107e-07
4.5772e-07
8.73411e-07
1.26541e-06
5.91082e-07
5.03752e-07
7.00973e-07
8.16035e-07
7.96465e-07
6.74742e-07
4.78653e-07
5.86911e-07
7.89102e-07
4.49814e-07
5.84947e-07
3.91074e-07
3.64695e-07
7.28657e-07
4.84915e-07
4.16655e-07
4.06596e-07
3.7063e-07
6.0088e-07
7.22767e-07
5.83872e-07
3.26756e-07
4.04763e-07
5.92214e-07
5.58226e-07
4.19828e-07
3.36904e-07
3.96827e-07
3.17736e-07
4.08904e-07
5.79919e-07
2.36604e-07
2.27386e-07
5.99626e-07
5.04373e-07
3.47389e-07
4.18863e-07
3.606e-07
6.57798e-07
1.07867e-06
5.10756e-07
3.89939e-07
5.4362e-07
6.76271e-07
6.5159e-07
5.43254e-07
3.9095e-07
4.55545e-07
6.48798e-07
3.93959e-07
4.54006e-07
3.2279e-07
2.80055e-07
5.68339e-07
4.51969e-07
3.35328e-07
3.18575e-07
2.95014e-07
4.50519e-07
5.66331e-07
5.03644e-07
2.59151e-07
2.99334e-07
4.72459e-07
4.78923e-07
3.53681e-07
2.61093e-07
3.01568e-07
2.53774e-07
3.00874e-07
4.8088e-07
1.94675e-07
1.63987e-07
4.49658e-07
4.57237e-07
2.70118e-07
3.08622e-07
2.76153e-07
4.78298e-07
8.7104e-07
4.45803e-07
2.95698e-07
4.08397e-07
5.4858e-07
5.36445e-07
4.32845e-07
3.12398e-07
3.42977e-07
5.13363e-07
3.48031e-07
3.40286e-07
2.56775e-07
2.10542e-07
4.06204e-07
4.06553e-07
2.71928e-07
2.44381e-07
2.28461e-07
3.2823e-07
4.22659e-07
4.16911e-07
2.06241e-07
2.10034e-07
3.57486e-07
4.01117e-07
2.9793e-07
1.97508e-07
2.17367e-07
2.00509e-07
2.12701e-07
3.66599e-07
1.58159e-07
1.1459e-07
3.15316e-07
3.97116e-07
2.13661e-07
2.22343e-07
2.01259e-07
3.28959e-07
6.72332e-07
3.78834e-07
2.24752e-07
2.8806e-07
4.29655e-07
4.39498e-07
3.43635e-07
2.39807e-07
2.4669e-07
3.90076e-07
2.98312e-07
2.52042e-07
2.01606e-07
1.51497e-07
2.76603e-07
3.46501e-07
2.28087e-07
1.82471e-07
1.69734e-07
2.37115e-07
3.01032e-07
3.34631e-07
1.59693e-07
1.38567e-07
2.50231e-07
3.23979e-07
2.44885e-07
1.46441e-07
1.51391e-07
1.57033e-07
1.42819e-07
2.71583e-07
1.28465e-07
7.73012e-08
2.02205e-07
3.29109e-07
1.74223e-07
1.54074e-07
1.40013e-07
2.22881e-07
4.9572e-07
3.12648e-07
1.64938e-07
1.90104e-07
3.18343e-07
3.53932e-07
2.66968e-07
1.77285e-07
1.71658e-07
2.83882e-07
2.50716e-07
1.83284e-07
1.48713e-07
1.04086e-07
1.76122e-07
2.78436e-07
1.90234e-07
1.31207e-07
1.21679e-07
1.68341e-07
2.0616e-07
2.54271e-07
1.16521e-07
8.87244e-08
1.64188e-07
2.48462e-07
1.96587e-07
1.08904e-07
1.00701e-07
1.15145e-07
9.68726e-08
1.90858e-07
1.02807e-07
4.99649e-08
1.18434e-07
2.54432e-07
1.42803e-07
1.05221e-07
9.39335e-08
1.44359e-07
3.39796e-07
2.51863e-07
1.18616e-07
1.21915e-07
2.17782e-07
2.72422e-07
2.04145e-07
1.29009e-07
1.1501e-07
1.93318e-07
2.00725e-07
1.34162e-07
1.05208e-07
6.85284e-08
1.05311e-07
2.07278e-07
1.5469e-07
9.27771e-08
8.28822e-08
1.15959e-07
1.32576e-07
1.80117e-07
8.56418e-08
5.53753e-08
9.9107e-08
1.75963e-07
1.53969e-07
7.8892e-08
6.34595e-08
8.09652e-08
6.70359e-08
1.23712e-07
8.11691e-08
3.10631e-08
6.19984e-08
1.77776e-07
1.15164e-07
7.09285e-08
5.84562e-08
8.62649e-08
2.15652e-07
1.91687e-07
8.51288e-08
7.54061e-08
1.34609e-07
1.98251e-07
1.5384e-07
8.99693e-08
7.23497e-08
1.21172e-07
1.48401e-07
9.90238e-08
7.36598e-08
4.2881e-08
5.8441e-08
1.39266e-07
1.23823e-07
6.42035e-08
5.34698e-08
7.41598e-08
8.08105e-08
1.18878e-07
5.93131e-08
3.26368e-08
5.3834e-08
1.13737e-07
1.1303e-07
5.49307e-08
3.78623e-08
5.1638e-08
4.54294e-08
7.54635e-08
6.21252e-08
1.78886e-08
2.92957e-08
1.1231e-07
8.87352e-08
4.68844e-08
3.48935e-08
4.96171e-08
1.30081e-07
1.33193e-07
5.97494e-08
4.47488e-08
7.56884e-08
1.34377e-07
1.13009e-07
5.92772e-08
4.36839e-08
7.07895e-08
1.02733e-07
7.0473e-08
4.99359e-08
2.56482e-08
2.9474e-08
8.64895e-08
9.34531e-08
4.4397e-08
3.2366e-08
4.45508e-08
4.54978e-08
7.2125e-08
3.72404e-08
1.7808e-08
2.61818e-08
6.68746e-08
7.69043e-08
3.73033e-08
2.15323e-08
2.94597e-08
2.95915e-08
4.36689e-08
4.36907e-08
9.34089e-09
1.27021e-08
6.38572e-08
6.49254e-08
3.23364e-08
1.99114e-08
2.63053e-08
7.25643e-08
8.68421e-08
4.06621e-08
2.57938e-08
3.85673e-08
8.2613e-08
7.78113e-08
3.88129e-08
2.49805e-08
3.82354e-08
6.63224e-08
4.88404e-08
3.35507e-08
1.44402e-08
1.36382e-08
4.8227e-08
6.54548e-08
3.06659e-08
1.87764e-08
2.49712e-08
2.27808e-08
3.9858e-08
2.18242e-08
8.93843e-09
1.19493e-08
3.50681e-08
4.78813e-08
2.40597e-08
1.17284e-08
1.5495e-08
1.86204e-08
2.38023e-08
2.80834e-08
4.48994e-09
5.11061e-09
3.22732e-08
4.34594e-08
2.10217e-08
1.05624e-08
1.27939e-08
3.79588e-08
5.28993e-08
2.6309e-08
1.41556e-08
1.79807e-08
4.56769e-08
5.05268e-08
2.48533e-08
1.35204e-08
1.87633e-08
3.98049e-08
3.15874e-08
2.0308e-08
7.68033e-09
5.71443e-09
2.27329e-08
4.28381e-08
2.01552e-08
1.04062e-08
1.29981e-08
1.06117e-08
2.00929e-08
1.17468e-08
3.99886e-09
4.90757e-09
1.59499e-08
2.69761e-08
1.46629e-08
6.01986e-09
7.11368e-09
1.10091e-08
1.22911e-08
1.60385e-08
2.01777e-09
1.78112e-09
1.38029e-08
2.56617e-08
1.29367e-08
5.35935e-09
5.56868e-09
1.83351e-08
2.99857e-08
1.62813e-08
7.43097e-09
7.87981e-09
2.21216e-08
3.04764e-08
1.52827e-08
6.97061e-09
8.26471e-09
2.06922e-08
1.93942e-08
1.08786e-08
3.87004e-09
2.22028e-09
8.18321e-09
2.50472e-08
1.27837e-08
5.45335e-09
6.48877e-09
5.00097e-09
8.89713e-09
5.52584e-09
1.45814e-09
1.85086e-09
6.20605e-09
1.33868e-08
8.25419e-09
2.92376e-09
3.01515e-09
5.54079e-09
6.09177e-09
8.2846e-09
1.07095e-09
5.55739e-10
4.9587e-09
1.32438e-08
7.49457e-09
2.51441e-09
2.15792e-09
7.93291e-09
1.5933e-08
9.49762e-09
3.83063e-09
3.19982e-09
9.25548e-09
1.64103e-08
9.04338e-09
3.32391e-09
3.25836e-09
9.53014e-09
1.10298e-08
5.40424e-09
1.66112e-09
8.13779e-10
2.4344e-09
1.28293e-08
7.71864e-09
2.68784e-09
3.23974e-09
2.5702e-09
3.84366e-09
2.20236e-09
3.30188e-10
6.25909e-10
2.14455e-09
5.79582e-09
4.1084e-09
1.30603e-09
1.35068e-09
2.27064e-09
3.01601e-09
3.9678e-09
1.24954e-09
2.24959e-10
1.39429e-09
6.27847e-09
3.94301e-09
1.03958e-09
6.9434e-10
2.72196e-09
7.88311e-09
5.44625e-09
2.0385e-09
1.28058e-09
3.22068e-09
8.07224e-09
5.25898e-09
1.55053e-09
1.02325e-09
4.04714e-09
6.05503e-09
3.01258e-09
5.90111e-10
3.29478e-10
7.46968e-10
5.74027e-09
4.20146e-09
1.41401e-09
1.72781e-09
1.4527e-09
2.25981e-09
1.62506e-09
2.09547e-11
2.82225e-10
8.33808e-10
2.97329e-09
1.92114e-09
4.00245e-10
7.49019e-10
1.02071e-09
2.19695e-09
2.05921e-09
1.03224e-09
2.01316e-10
1.63057e-10
3.31788e-09
2.12393e-09
2.59262e-10
2.82532e-10
2.90372e-10
3.47389e-09
2.86473e-09
1.20308e-09
7.43381e-10
8.74227e-10
4.57717e-09
3.52382e-09
8.82422e-10
1.63982e-10
1.39616e-09
3.89483e-09
2.94294e-09
5.76474e-10
2.33703e-10
2.62554e-10
2.69793e-09
2.45598e-09
1.03735e-09
1.11546e-09
3.18169e-05
3.71433e-05
3.29526e-05
2.65765e-05
2.80938e-05
2.76987e-05
3.52986e-05
3.48599e-05
2.5447e-05
2.62313e-05
3.13314e-05
4.37302e-05
3.63604e-05
2.75843e-05
2.82256e-05
3.00699e-05
4.04235e-05
3.34768e-05
2.58078e-05
2.52756e-05
3.40885e-05
4.11496e-05
3.32784e-05
2.77553e-05
2.40415e-05
3.062e-05
3.93974e-05
3.40287e-05
2.81622e-05
2.60765e-05
3.19598e-05
3.75623e-05
3.51521e-05
2.86664e-05
2.51858e-05
3.35617e-05
3.6791e-05
3.5842e-05
2.78806e-05
2.71365e-05
2.88951e-05
3.64836e-05
3.30611e-05
2.3336e-05
2.48394e-05
2.4124e-05
3.31729e-05
3.46853e-05
2.1907e-05
2.20789e-05
2.62366e-05
4.24729e-05
3.82779e-05
2.4776e-05
2.5001e-05
2.6592e-05
3.83391e-05
3.2943e-05
2.39739e-05
2.16021e-05
2.91154e-05
4.01534e-05
3.21622e-05
2.5957e-05
2.14211e-05
2.73063e-05
3.80248e-05
3.28391e-05
2.56144e-05
2.17485e-05
2.90236e-05
3.71803e-05
3.44328e-05
2.64449e-05
2.21259e-05
2.9684e-05
3.54316e-05
3.55323e-05
2.60289e-05
2.39593e-05
2.12287e-05
2.84292e-05
2.79952e-05
1.76883e-05
1.92708e-05
1.58258e-05
2.31072e-05
2.88768e-05
1.55182e-05
1.51297e-05
1.53681e-05
3.09215e-05
3.53538e-05
1.97819e-05
1.90768e-05
1.88901e-05
2.67108e-05
2.70883e-05
2.00192e-05
1.62818e-05
1.798e-05
3.00281e-05
2.51296e-05
2.13449e-05
1.61589e-05
1.9435e-05
2.92255e-05
2.56608e-05
2.06819e-05
1.45224e-05
2.10496e-05
2.854e-05
2.79654e-05
2.13093e-05
1.68793e-05
2.00699e-05
2.6305e-05
3.03844e-05
2.20078e-05
1.80651e-05
1.3229e-05
1.7057e-05
1.69096e-05
1.08082e-05
1.17792e-05
9.31178e-06
1.38413e-05
1.66741e-05
7.17483e-06
8.06595e-06
8.09017e-06
1.51082e-05
2.1684e-05
1.18041e-05
1.1225e-05
1.53836e-05
1.30856e-05
1.289e-05
9.62985e-06
1.18624e-05
9.27342e-06
1.51868e-05
1.04302e-05
1.05344e-05
8.64214e-06
1.20504e-05
1.87171e-05
1.33171e-05
1.21551e-05
6.40926e-06
1.25464e-05
1.67254e-05
1.7362e-05
1.05883e-05
1.05651e-05
1.17134e-05
1.32247e-05
1.93526e-05
1.44405e-05
1.00569e-05
8.04671e-06
1.07878e-05
1.02296e-05
6.60525e-06
3.98928e-06
7.6514e-06
1.34243e-05
1.06187e-05
5.82725e-06
5.07127e-06
8.12523e-06
9.07527e-06
9.346e-06
7.19566e-06
4.68212e-06
1.45408e-05
1.13167e-05
7.8898e-06
5.0824e-06
6.95297e-06
7.19115e-06
1.01788e-05
7.39105e-06
4.35618e-06
3.22146e-06
6.6469e-06
1.38281e-05
9.4474e-06
4.82409e-06
2.90984e-06
7.76715e-06
1.19258e-05
1.40957e-05
5.05332e-06
5.10213e-06
9.72739e-06
7.42267e-06
9.82549e-06
6.00036e-06
4.57217e-06
8.05952e-06
1.11607e-05
1.08582e-05
5.54857e-06
4.24907e-06
7.5665e-06
1.36888e-05
1.08466e-05
1.00395e-05
6.24349e-06
1.01387e-05
1.01919e-05
9.9572e-06
6.52081e-06
4.01493e-06
1.08289e-05
1.58611e-05
8.56758e-06
4.17677e-06
4.83111e-06
9.45342e-06
1.07791e-05
9.33248e-06
4.01035e-06
3.36643e-06
7.6808e-06
1.26278e-05
1.35629e-05
4.77856e-06
4.8659e-06
8.59274e-06
1.17208e-05
1.33959e-05
5.14446e-06
4.44182e-06
1.04036e-05
9.19722e-06
8.48572e-06
5.73902e-06
4.51779e-06
9.49037e-06
1.17381e-05
1.05945e-05
5.7117e-06
4.50793e-06
8.50497e-06
1.12179e-05
1.02175e-05
9.9953e-06
7.52229e-06
1.21306e-05
1.15811e-05
9.44504e-06
6.50753e-06
5.53394e-06
1.07762e-05
1.48293e-05
9.12876e-06
5.20915e-06
5.42931e-06
1.35083e-05
1.14102e-05
8.21662e-06
3.17821e-06
5.40964e-06
1.01726e-05
1.14574e-05
1.23564e-05
6.42525e-06
9.56683e-06
8.82682e-06
1.20203e-05
9.13421e-06
4.99821e-06
5.09268e-06
1.08343e-05
1.20788e-05
8.29966e-06
5.73305e-06
5.20643e-06
1.07854e-05
1.18411e-05
7.65078e-06
4.36956e-06
6.93033e-06
9.44382e-06
1.03785e-05
9.81913e-06
5.58045e-06
5.39581e-06
1.16134e-05
1.08735e-05
8.6853e-06
5.17035e-06
5.53945e-06
1.04981e-05
1.1845e-05
8.84941e-06
7.36509e-06
7.7626e-06
1.359e-05
1.18082e-05
8.4611e-06
5.08094e-06
6.73036e-06
1.42284e-05
1.12353e-05
8.16661e-06
5.44437e-06
8.39925e-06
1.07878e-05
1.19124e-05
8.37404e-06
5.33766e-06
5.73052e-06
9.54513e-06
1.44544e-05
9.7348e-06
3.51066e-06
4.09769e-06
1.01938e-05
1.1858e-05
7.42254e-06
3.53272e-06
7.66499e-06
9.76112e-06
1.13987e-05
1.00181e-05
4.48379e-06
4.64537e-06
9.99417e-06
9.61046e-06
6.96506e-06
2.74505e-06
8.18481e-06
1.091e-05
9.81815e-06
1.01494e-05
8.44537e-06
1.19641e-05
1.12622e-05
1.00634e-05
9.72246e-06
8.73353e-06
9.27936e-06
1.19683e-05
1.08062e-05
6.74786e-06
3.91331e-06
6.29283e-06
1.04184e-05
1.0155e-05
7.9055e-06
4.95429e-06
8.19346e-06
8.71583e-06
1.2524e-05
8.88539e-06
4.62249e-06
5.48131e-06
9.55876e-06
9.34073e-06
7.41958e-06
6.82556e-06
9.61991e-06
1.06073e-05
8.96102e-06
8.45362e-06
6.49473e-06
7.88602e-06
9.16119e-06
8.16198e-06
6.54364e-06
2.42301e-06
1.13942e-05
1.05257e-05
8.37713e-06
1.04009e-05
9.87179e-06
1.13742e-05
9.43736e-06
9.10887e-06
9.44874e-06
9.4033e-06
1.20142e-05
9.39775e-06
9.56713e-06
6.42476e-06
3.91753e-06
7.63125e-06
8.89419e-06
7.90375e-06
6.75212e-06
5.62472e-06
9.09706e-06
8.53173e-06
9.07694e-06
8.70572e-06
9.25876e-06
9.26582e-06
7.82886e-06
5.95389e-06
6.76513e-06
1.10472e-05
1.0462e-05
9.49552e-06
6.50778e-06
6.14558e-06
8.67292e-06
1.01883e-05
7.3514e-06
6.19158e-06
7.08908e-06
7.08644e-06
1.22175e-05
7.09332e-06
5.88139e-06
8.40415e-06
1.09293e-05
9.4591e-06
6.52619e-06
6.63098e-06
8.45758e-06
9.76217e-06
1.17639e-05
7.01794e-06
7.07744e-06
6.48039e-06
7.7334e-06
1.00363e-05
7.23057e-06
6.00265e-06
5.93351e-06
8.95978e-06
8.98808e-06
7.11203e-06
6.19346e-06
8.81369e-06
1.21343e-05
1.10777e-05
4.72696e-06
3.19861e-06
5.47128e-06
9.58736e-06
7.98338e-06
5.73401e-06
3.58337e-06
4.15064e-06
8.15373e-06
8.44766e-06
4.25867e-06
4.13245e-06
5.71537e-06
8.74461e-06
9.0229e-06
3.93481e-06
3.65134e-06
5.10554e-06
7.11991e-06
6.04567e-06
3.61496e-06
3.97813e-06
5.50897e-06
7.83021e-06
7.8112e-06
4.04391e-06
4.29887e-06
4.64833e-06
8.11452e-06
8.59943e-06
4.00096e-06
4.16687e-06
4.52909e-06
9.31824e-06
6.72906e-06
4.18557e-06
3.43305e-06
6.24527e-06
1.01341e-05
7.77296e-06
1.76573e-06
1.41228e-06
3.69481e-06
5.53798e-06
3.59359e-06
1.69005e-06
1.71693e-06
3.03171e-06
5.22853e-06
3.64682e-06
1.13296e-06
2.31708e-06
4.54922e-06
6.31751e-06
4.12296e-06
1.1539e-06
2.29364e-06
3.49069e-06
3.58134e-06
2.28383e-06
1.31289e-06
2.01922e-06
4.05482e-06
4.68346e-06
3.40682e-06
1.19639e-06
2.30603e-06
3.89535e-06
5.96944e-06
3.98404e-06
1.00838e-06
2.59569e-06
3.78863e-06
6.14352e-06
3.14352e-06
1.39123e-06
1.73526e-06
3.52971e-06
5.72865e-06
2.80664e-06
9.9632e-07
1.01773e-06
2.5118e-06
2.29408e-06
6.81045e-07
4.90772e-07
1.31944e-06
2.66511e-06
2.47401e-06
7.23652e-07
1.01489e-06
1.86107e-06
3.3992e-06
3.09871e-06
1.10456e-06
8.32824e-07
1.99934e-06
2.52395e-06
1.41664e-06
5.57292e-07
8.93561e-07
1.31491e-06
2.46781e-06
2.09928e-06
8.33875e-07
7.44072e-07
1.72137e-06
2.58416e-06
2.73467e-06
9.89924e-07
5.84285e-07
2.03743e-06
3.14594e-06
2.76671e-06
6.1939e-07
7.7815e-07
1.37539e-06
2.91066e-06
2.46285e-06
3.80527e-07
1.01307e-06
1.04085e-06
1.948e-06
1.13208e-06
5.22332e-07
8.03328e-07
1.14583e-06
2.21335e-06
1.24839e-06
6.8408e-07
1.21338e-06
1.56761e-06
2.33947e-06
1.40056e-06
8.05332e-07
9.69232e-07
1.79718e-06
1.81416e-06
6.69643e-07
7.45527e-07
8.85299e-07
1.19646e-06
1.73665e-06
1.0299e-06
5.81326e-07
8.28274e-07
1.47721e-06
1.85581e-06
1.289e-06
7.2223e-07
8.69016e-07
1.84689e-06
2.41235e-06
1.15504e-06
5.97578e-07
1.02964e-06
1.23814e-06
2.16062e-06
1.16398e-06
4.40303e-07
9.54832e-07
9.13544e-07
1.49479e-06
9.61902e-07
5.40651e-07
7.80467e-07
9.63342e-07
1.82527e-06
9.81604e-07
7.10666e-07
1.14393e-06
1.44436e-06
1.78993e-06
9.89952e-07
9.14414e-07
9.35148e-07
1.49308e-06
1.44743e-06
5.54772e-07
7.49276e-07
7.99516e-07
1.03814e-06
1.32956e-06
7.31659e-07
6.76845e-07
8.09574e-07
1.30669e-06
1.48119e-06
8.83707e-07
7.91973e-07
8.49247e-07
1.58442e-06
1.95992e-06
8.56469e-07
6.78204e-07
9.50488e-07
1.05321e-06
1.63384e-06
9.27935e-07
5.23316e-07
7.57111e-07
7.81909e-07
1.18979e-06
8.78558e-07
4.92341e-07
6.92599e-07
8.00303e-07
1.48471e-06
9.26069e-07
6.40056e-07
9.85546e-07
1.2364e-06
1.44469e-06
8.89478e-07
8.21634e-07
7.84546e-07
1.20408e-06
1.26199e-06
4.98436e-07
6.34699e-07
6.82414e-07
8.24086e-07
1.06976e-06
6.58749e-07
6.37148e-07
6.91076e-07
1.03218e-06
1.22082e-06
7.51616e-07
7.21514e-07
7.22496e-07
1.29533e-06
1.72433e-06
7.61699e-07
6.13284e-07
8.29338e-07
8.84774e-07
1.32945e-06
9.126e-07
4.77431e-07
6.10035e-07
6.79709e-07
9.42332e-07
8.14829e-07
4.27411e-07
5.5799e-07
6.40476e-07
1.17525e-06
8.9203e-07
5.43025e-07
7.88391e-07
1.0601e-06
1.17821e-06
8.08982e-07
6.99087e-07
6.56352e-07
9.59096e-07
1.09789e-06
4.56675e-07
5.2329e-07
5.57624e-07
6.53526e-07
8.83264e-07
6.0047e-07
5.48427e-07
5.59059e-07
8.1905e-07
1.0241e-06
6.83316e-07
6.19828e-07
6.02942e-07
1.03661e-06
1.49163e-06
6.90828e-07
5.24145e-07
6.94961e-07
7.34109e-07
1.07752e-06
8.41443e-07
4.11136e-07
4.63716e-07
5.74421e-07
7.39622e-07
7.06868e-07
3.67331e-07
4.30498e-07
5.01475e-07
9.32959e-07
8.27259e-07
4.45896e-07
6.11918e-07
8.86719e-07
9.59359e-07
7.07578e-07
5.89731e-07
5.33579e-07
7.4e-07
9.43928e-07
4.32792e-07
4.28458e-07
4.5212e-07
5.16398e-07
7.12341e-07
5.4179e-07
4.47266e-07
4.48311e-07
6.35878e-07
8.31625e-07
6.09908e-07
5.19442e-07
4.90207e-07
8.13125e-07
1.27157e-06
6.32974e-07
4.31594e-07
5.54556e-07
6.07984e-07
8.5837e-07
7.71484e-07
3.61614e-07
3.41391e-07
4.70951e-07
5.83543e-07
5.86259e-07
3.12654e-07
3.25042e-07
3.79503e-07
7.14044e-07
7.54601e-07
3.71109e-07
4.57377e-07
7.17951e-07
7.85681e-07
5.94797e-07
4.87672e-07
4.16066e-07
5.67232e-07
8.06778e-07
4.07915e-07
3.40428e-07
3.54179e-07
4.00556e-07
5.59829e-07
4.76451e-07
3.62129e-07
3.49131e-07
4.77054e-07
6.56871e-07
5.35574e-07
4.31249e-07
3.85322e-07
6.14594e-07
1.05351e-06
5.76461e-07
3.48755e-07
4.33863e-07
4.9546e-07
6.83092e-07
6.7691e-07
3.0892e-07
2.4656e-07
3.621e-07
4.59408e-07
4.7239e-07
2.63834e-07
2.39886e-07
2.78207e-07
5.24925e-07
6.66583e-07
3.09285e-07
3.27827e-07
5.5969e-07
6.29471e-07
4.89277e-07
3.95216e-07
3.16297e-07
4.19227e-07
6.69844e-07
3.76451e-07
2.66419e-07
2.64087e-07
2.98534e-07
4.23314e-07
4.15833e-07
2.95347e-07
2.63182e-07
3.46837e-07
5.02528e-07
4.71013e-07
3.6069e-07
2.93195e-07
4.45165e-07
8.4172e-07
5.1888e-07
2.86414e-07
3.25647e-07
3.90062e-07
5.33297e-07
5.6311e-07
2.63727e-07
1.71947e-07
2.61732e-07
3.54448e-07
3.75616e-07
2.22572e-07
1.74059e-07
1.95315e-07
3.60855e-07
5.39908e-07
2.60919e-07
2.30026e-07
4.03124e-07
5.01188e-07
3.8143e-07
3.15814e-07
2.30909e-07
2.89613e-07
5.26042e-07
3.49539e-07
2.04057e-07
1.88268e-07
2.16938e-07
3.14333e-07
3.55175e-07
2.41219e-07
1.93266e-07
2.40974e-07
3.70614e-07
3.9565e-07
2.86731e-07
2.14338e-07
3.09136e-07
6.47496e-07
4.60289e-07
2.30851e-07
2.32335e-07
2.87991e-07
4.08847e-07
4.54662e-07
2.17706e-07
1.18264e-07
1.76915e-07
2.61687e-07
2.96157e-07
1.77275e-07
1.20414e-07
1.30679e-07
2.36958e-07
4.1449e-07
2.17661e-07
1.57699e-07
2.70377e-07
3.94194e-07
2.92983e-07
2.38124e-07
1.63107e-07
1.89468e-07
3.86317e-07
3.08614e-07
1.49806e-07
1.31161e-07
1.49671e-07
2.24874e-07
2.86162e-07
1.88545e-07
1.35829e-07
1.62233e-07
2.61599e-07
3.1168e-07
2.17505e-07
1.52149e-07
2.03993e-07
4.63603e-07
3.92643e-07
1.81521e-07
1.59241e-07
2.00192e-07
3.03149e-07
3.54586e-07
1.75301e-07
7.93789e-08
1.11496e-07
1.87171e-07
2.23119e-07
1.36146e-07
8.15289e-08
8.37022e-08
1.43401e-07
2.91532e-07
1.73859e-07
1.04684e-07
1.6719e-07
2.9579e-07
2.2342e-07
1.69393e-07
1.11608e-07
1.17578e-07
2.63884e-07
2.52209e-07
1.11797e-07
8.63149e-08
9.66915e-08
1.5273e-07
2.18936e-07
1.43378e-07
9.29557e-08
1.0438e-07
1.68931e-07
2.30895e-07
1.67243e-07
1.03994e-07
1.27153e-07
3.09284e-07
3.1677e-07
1.40254e-07
1.05633e-07
1.30747e-07
2.14906e-07
2.64575e-07
1.37555e-07
5.16111e-08
6.55529e-08
1.26407e-07
1.58782e-07
1.01095e-07
5.33877e-08
5.09377e-08
8.21235e-08
1.87001e-07
1.34942e-07
6.76041e-08
9.64723e-08
2.05337e-07
1.66329e-07
1.17646e-07
7.19952e-08
6.93909e-08
1.65747e-07
1.96242e-07
8.30483e-08
5.4197e-08
5.84625e-08
9.62289e-08
1.57354e-07
1.08696e-07
6.10077e-08
6.27521e-08
1.01474e-07
1.61455e-07
1.22045e-07
6.7372e-08
7.58622e-08
1.91222e-07
2.39088e-07
1.05542e-07
6.74493e-08
7.92081e-08
1.43726e-07
1.88337e-07
1.04487e-07
3.20511e-08
3.6083e-08
7.9184e-08
1.09415e-07
7.09747e-08
3.37984e-08
2.88799e-08
4.49514e-08
1.13802e-07
9.96611e-08
4.24409e-08
5.24082e-08
1.2779e-07
1.20408e-07
7.70637e-08
4.36517e-08
3.8492e-08
9.07887e-08
1.38269e-07
6.13363e-08
3.29105e-08
3.21583e-08
5.58196e-08
1.04536e-07
7.81102e-08
3.80948e-08
3.61894e-08
5.7593e-08
1.03763e-07
8.37259e-08
4.22152e-08
4.34092e-08
1.04812e-07
1.66503e-07
7.84926e-08
4.09276e-08
4.45719e-08
8.94175e-08
1.29398e-07
7.72069e-08
1.88209e-08
1.88127e-08
4.56175e-08
7.11062e-08
4.88527e-08
2.05862e-08
1.54935e-08
2.28168e-08
6.3918e-08
6.78808e-08
2.5414e-08
2.71226e-08
7.09844e-08
8.07868e-08
4.9074e-08
2.51807e-08
1.99723e-08
4.46968e-08
8.79906e-08
4.48825e-08
1.89853e-08
1.59384e-08
2.75156e-08
6.42147e-08
5.2119e-08
2.3304e-08
1.95865e-08
2.94972e-08
5.99829e-08
5.46079e-08
2.52793e-08
2.33381e-08
5.30137e-08
1.05748e-07
5.65094e-08
2.38502e-08
2.34516e-08
4.97163e-08
8.37032e-08
5.38612e-08
1.07889e-08
8.97674e-09
2.40485e-08
4.32798e-08
3.224e-08
1.19522e-08
7.79099e-09
1.05308e-08
3.25321e-08
4.11895e-08
1.45562e-08
1.3565e-08
3.55278e-08
5.0264e-08
3.02448e-08
1.3922e-08
9.47348e-09
1.94448e-08
5.05163e-08
3.08189e-08
1.03766e-08
7.12073e-09
1.18017e-08
3.55454e-08
3.30921e-08
1.36888e-08
9.92134e-09
1.34483e-08
3.17262e-08
3.38376e-08
1.44159e-08
1.18448e-08
2.44801e-08
6.00522e-08
3.89049e-08
1.3427e-08
1.14727e-08
2.46905e-08
5.05844e-08
3.62176e-08
6.24011e-09
3.97849e-09
1.18499e-08
2.47629e-08
1.9698e-08
6.80554e-09
3.64659e-09
4.31657e-09
1.46319e-08
2.30011e-08
8.16592e-09
6.44199e-09
1.59124e-08
2.88303e-08
1.76442e-08
7.05285e-09
4.04902e-09
7.59567e-09
2.5825e-08
1.98455e-08
5.73949e-09
2.89083e-09
3.85307e-09
1.78414e-08
2.01374e-08
7.47893e-09
4.71712e-09
5.58931e-09
1.48927e-08
1.92379e-08
7.54836e-09
5.55996e-09
1.04333e-08
2.98278e-08
2.47538e-08
7.12657e-09
5.25316e-09
1.12709e-08
2.86563e-08
2.32237e-08
3.63476e-09
1.60975e-09
5.5928e-09
1.35928e-08
1.12613e-08
3.65914e-09
1.60103e-09
1.63213e-09
6.0372e-09
1.1825e-08
4.41023e-09
2.97583e-09
6.43017e-09
1.48874e-08
9.99618e-09
3.29884e-09
1.50014e-09
2.42676e-09
1.20351e-08
1.16685e-08
3.20464e-09
1.0797e-09
7.04571e-10
8.11848e-09
1.15467e-08
3.99644e-09