/*--------------------------------*- C++ -*----------------------------------*\
  =========                 |
  \\      /  F ield         | OpenFOAM: The Open Source CFD Toolbox
   \\    /   O peration     | Website:  https://openfoam.org
    \\  /    A nd           | Version:  10
     \\/     M anipulation  |
\*---------------------------------------------------------------------------*/
FoamFile
{
    format      ascii;
    class       surfaceScalarField;
    location    "1";
    object      phi_0;
}
// * * * * * * * * * * * * * * * * * * * * * * * * * * * * * * * * * * * * * //

dimensions      [0 3 -1 0 0 0 0];

internalField   nonuniform List<scalar> 
74080
(
4.23835e-05
3.21657e-06
1.66044e-06
4.38487e-05
-4.39277e-06
5.32295e-06
4.19048e-05
-8.44236e-06
3.01689e-07
3.84406e-05
3.70585e-07
-4.4816e-06
3.87274e-05
7.82236e-06
-2.28563e-06
4.12585e-05
3.31221e-06
3.31285e-06
4.2223e-05
-3.47812e-06
4.05937e-06
4.18222e-05
-7.48017e-06
3.10246e-07
3.9696e-05
-2.87578e-06
-1.39875e-06
3.89308e-05
5.89836e-06
-1.29676e-07
4.14091e-05
4.5313e-06
2.7005e-06
4.3594e-05
-5.49779e-06
1.4806e-06
4.08628e-05
-7.64145e-06
7.20853e-07
3.93235e-05
7.06863e-07
-1.61369e-06
4.02037e-05
6.55974e-06
-2.09666e-06
4.15429e-05
4.01108e-06
1.51714e-06
4.49344e-05
-8.23388e-06
2.65331e-06
4.33581e-05
-9.1605e-06
2.66523e-06
3.98666e-05
2.07893e-06
3.28871e-07
3.94951e-05
6.80111e-06
-2.7244e-06
4.28433e-05
-6.14506e-07
1.12849e-06
4.35748e-05
-5.68632e-06
3.15731e-06
4.16731e-05
-4.73807e-06
1.04101e-06
3.99939e-05
-2.57191e-07
-6.0436e-07
3.9118e-05
6.60748e-06
-4.31613e-07
4.15378e-05
4.90725e-06
1.76912e-06
4.35948e-05
-6.01741e-06
1.26053e-06
4.17576e-05
-6.5534e-06
-6.10218e-07
4.00644e-05
3.53037e-07
-3.21067e-06
4.08832e-05
4.46907e-06
-9.37093e-07
4.19513e-05
4.98776e-06
5.21444e-06
4.3406e-05
-5.48575e-06
3.03829e-06
4.17192e-05
-7.10997e-06
-1.03759e-06
3.89793e-05
8.06386e-07
-1.14176e-06
3.96209e-05
4.42077e-06
-2.40361e-07
4.08939e-05
4.23687e-06
1.49479e-06
4.19388e-05
-4.05073e-06
1.09739e-06
4.09669e-05
-7.14965e-06
-8.74915e-07
3.85268e-05
2.17147e-06
-7.44024e-07
5.88886e-06
-1.52684e-06
0.000137772
4.41934e-06
6.86304e-07
0.000148521
-2.11444e-05
1.40601e-05
0.00014056
-1.96697e-05
4.28724e-06
0.000124796
1.10728e-05
-1.20777e-05
0.000125035
2.38713e-05
-9.14048e-06
0.000135097
4.72218e-06
4.41184e-06
0.000142
-1.61077e-05
1.16071e-05
0.000140626
-2.09103e-05
3.82912e-06
0.00012892
1.57936e-06
-5.72784e-06
0.000124363
2.23791e-05
-5.76358e-06
0.000134973
8.49718e-06
4.26395e-06
0.000147359
-2.50549e-05
6.39437e-06
0.0001385
-2.1521e-05
4.38624e-06
0.000126749
1.11748e-05
-6.29246e-06
0.000127687
2.28202e-05
-8.39026e-06
0.000137683
3.86774e-06
2.49475e-06
0.000151593
-3.40091e-05
8.29266e-06
0.000145176
-2.50448e-05
6.84933e-06
0.000130731
1.51857e-05
-1.8844e-06
0.000127102
2.59319e-05
-1.0387e-05
0.00013967
-6.92595e-06
3.15114e-07
0.000146008
-2.41171e-05
8.98146e-06
0.000140145
-1.29834e-05
4.04054e-06
0.000131235
6.60638e-06
-2.9012e-06
0.000125951
2.41881e-05
-4.52566e-06
0.000135638
9.99542e-06
3.39271e-06
0.000145841
-2.48178e-05
5.11281e-06
0.00013996
-1.95144e-05
8.97215e-07
0.000130711
8.16286e-06
-9.25939e-06
0.000130705
1.65979e-05
-6.59076e-06
0.000138173
8.79412e-06
1.01455e-05
0.000146633
-2.33295e-05
1.06767e-05
0.000140912
-2.03091e-05
1.60093e-06
0.000128231
9.9113e-06
-4.83962e-06
0.000125978
1.89709e-05
-4.74788e-06
0.000133358
7.93203e-06
2.2944e-06
0.000141325
-1.90005e-05
4.69638e-06
0.000137575
-2.11227e-05
6.54764e-07
0.00012631
1.16071e-05
-3.04484e-06
2.29432e-05
-6.26179e-06
0.000238062
1.51274e-05
-7.86206e-06
0.000261904
-5.10046e-05
1.36866e-05
0.00025737
-3.94702e-05
1.16152e-05
0.000228228
3.53566e-05
-1.41361e-05
0.000222161
5.24775e-05
-1.66785e-05
0.000235366
1.13538e-05
-3.81336e-06
0.000250502
-3.99729e-05
1.18662e-05
0.000254584
-4.57343e-05
9.29805e-06
0.000234107
1.65778e-05
-5.76644e-06
0.000220637
5.56251e-05
-1.43379e-05
0.000232256
2.09908e-05
-4.14374e-06
0.0002599
-5.69942e-05
5.40098e-06
0.000254676
-4.84228e-05
9.88861e-06
0.000230373
3.11325e-05
-7.01185e-06
0.000226714
5.33659e-05
-1.5127e-05
0.000241694
6.66926e-06
-1.71052e-06
0.000267582
-7.44091e-05
9.81609e-06
0.00026313
-5.3733e-05
9.80188e-06
0.000241086
3.5405e-05
-1.25145e-06
0.000227343
6.52452e-05
-1.74157e-05
0.000241757
-6.08098e-06
-9.35718e-06
0.000257642
-5.45042e-05
8.55799e-06
0.000254101
-3.19062e-05
6.98006e-06
0.000239554
2.1723e-05
-2.98829e-06
0.000226345
5.72569e-05
-9.67517e-06
0.000236559
2.1822e-05
-9.65434e-08
0.00025552
-5.22826e-05
5.72691e-06
0.000252967
-4.38752e-05
2.84873e-06
0.000236986
2.17878e-05
-1.13169e-05
0.000232097
4.14599e-05
-1.54736e-05
0.000241803
1.76003e-05
5.15824e-06
0.000259445
-5.10466e-05
1.37158e-05
0.000257642
-4.50571e-05
6.8536e-06
0.000234666
2.70837e-05
-5.51092e-06
0.000223742
5.0037e-05
-1.18625e-05
0.000233007
1.89559e-05
-4.4484e-06
0.000249077
-4.25095e-05
4.28631e-06
0.000249271
-4.61421e-05
2.68786e-06
0.000231058
2.35595e-05
-2.76614e-06
5.46407e-05
-1.01754e-05
0.000339392
5.41448e-05
-7.85124e-06
0.000360443
-7.50387e-05
9.02711e-06
0.00036932
-8.01e-05
1.04882e-05
0.000341833
5.61691e-05
-1.66071e-05
0.000332476
9.10429e-05
-1.74836e-05
0.000337117
3.92917e-05
-4.85918e-06
0.000346272
-5.78051e-05
8.25753e-06
0.00035944
-9.21602e-05
6.24169e-06
0.00034537
2.29051e-05
-7.24795e-06
0.000328818
0.00010335
-1.69836e-05
0.000327219
6.08871e-05
-1.01437e-05
0.000358327
-8.62145e-05
1.75966e-08
0.000367055
-9.84747e-05
8.35966e-06
0.0003423
4.32537e-05
-8.447e-06
0.000338723
9.36763e-05
-1.59792e-05
0.000351224
2.56595e-05
1.33698e-06
0.000373175
-0.000109856
1.28403e-05
0.000371112
-9.80772e-05
6.6258e-06
0.000359616
3.49338e-05
-2.63731e-06
0.000344214
0.000117344
-1.74095e-05
0.000345237
2.22129e-05
-1.26726e-05
0.000356422
-7.92329e-05
5.48154e-06
0.000358817
-7.04057e-05
2.82293e-06
0.000351891
2.47404e-05
-7.0677e-06
0.000340168
0.000101815
-1.173e-05
0.000341674
5.4293e-05
1.59987e-06
0.000351742
-6.93023e-05
6.10186e-06
0.000354399
-8.35457e-05
-1.98705e-06
0.000346452
2.15676e-05
-1.55625e-05
0.000344561
7.20044e-05
-2.01243e-05
0.000345521
4.78408e-05
2.22638e-06
0.000357025
-7.1001e-05
1.10267e-05
0.000367462
-9.25225e-05
6.28432e-06
0.000348904
3.16851e-05
-6.76365e-06
0.000332876
9.39139e-05
-1.5248e-05
0.000334746
5.34879e-05
-8.77568e-06
0.000344829
-5.77314e-05
9.82124e-07
0.000352069
-8.805e-05
-1.31046e-06
0.000341392
1.73299e-05
-4.63417e-06
9.09215e-05
-1.01738e-05
0.000447841
0.00010517
2.87963e-07
0.000440828
-5.69205e-05
1.45302e-05
0.000445773
-0.000121379
1.02391e-05
0.000434532
5.01982e-05
-2.41475e-05
0.000443986
0.000105628
-1.94346e-05
0.000448813
7.62919e-05
4.24757e-06
0.000427551
-3.44376e-05
1.4269e-05
0.000425673
-0.000132704
3.84958e-06
0.000430581
-1.62817e-06
-1.63331e-05
0.000433372
0.000133014
-1.99031e-05
0.000428672
0.000115661
-7.34764e-06
0.000444435
-8.51497e-05
3.67049e-06
0.000448379
-0.000146137
7.39086e-06
0.000433626
3.29177e-05
-1.55315e-05
0.000449044
0.000112368
-1.58139e-05
0.000468417
4.95232e-05
1.00661e-05
0.000464191
-0.000104099
2.18903e-05
0.000439233
-0.000122321
5.14756e-06
0.000447263
-1.61526e-07
-9.38112e-06
0.000460465
0.000141189
-1.8579e-05
0.000455285
7.07606e-05
-8.66244e-06
0.000435337
-6.5626e-05
8.60798e-06
0.000423187
-0.000101195
-1.11138e-06
0.000431294
2.07938e-06
-2.02484e-05
0.000445391
0.000125004
-1.8013e-05
0.000452023
9.34896e-05
8.37813e-06
0.000431478
-4.59611e-05
1.42661e-05
0.00041674
-0.000110347
-5.7329e-06
0.000425499
-7.28647e-06
-2.38664e-05
0.000450926
7.50661e-05
-2.55258e-05
0.000452053
9.079e-05
3.29827e-06
0.000430737
-4.78718e-05
1.36112e-05
0.000438493
-0.000142414
4.8733e-06
0.000439793
3.69257e-06
-1.30817e-05
0.000438613
0.000118821
-1.72026e-05
0.000441893
9.86043e-05
-3.50907e-06
0.000426878
-3.76516e-05
4.37074e-06
0.000422541
-0.00012324
-3.77477e-06
0.000423948
-1.67417e-05
-1.06386e-05
9.90461e-05
-1.49528e-05
0.000549132
0.000138284
1.89603e-06
0.000514358
-5.22447e-06
1.89761e-05
0.000488958
-0.000134466
1.71468e-05
0.000489341
2.49714e-05
-2.7004e-05
0.000525563
8.65185e-05
-2.43947e-05
0.000548804
9.86404e-05
4.69579e-06
0.000505615
2.52346e-05
1.49335e-05
0.000464814
-0.000135985
9.54328e-06
0.000482535
-4.8166e-05
-1.64482e-05
0.000511147
0.000132479
-2.16689e-05
0.000521405
0.000161424
-1.17301e-05
0.000526742
-6.39044e-05
4.0164e-06
0.000500791
-0.000159381
1.11634e-05
0.000490235
1.33613e-05
-1.55678e-05
0.000535731
9.60278e-05
-1.51329e-05
0.000567762
6.42864e-05
1.17978e-05
0.000531081
-5.88805e-05
2.05778e-05
0.000473112
-0.000113493
4.23869e-06
0.000495742
-5.11745e-05
-9.66434e-06
0.000546412
0.000127674
-1.82421e-05
0.000546353
0.000124313
-1.28093e-05
0.000496899
-1.30805e-05
5.94925e-06
0.000457644
-0.000106693
2.24675e-06
0.00047728
-3.35675e-05
-2.33983e-05
0.000526237
0.00011062
-2.03715e-05
0.000546417
0.000123321
7.33463e-06
0.00050172
8.16819e-06
1.42595e-05
0.000463382
-0.000115213
-2.02466e-06
0.000479338
-4.74064e-05
-2.24249e-05
0.000525642
6.05482e-05
-3.07914e-05
0.00054042
0.000130105
-5.82346e-06
0.000496976
5.87221e-06
1.13261e-05
0.000488552
-0.000176738
8.25058e-06
0.00050056
-3.949e-05
-1.19577e-05
0.000515236
0.000123552
-1.55898e-05
0.00053416
0.000129806
-2.20552e-07
0.000502312
1.24922e-05
6.93919e-06
0.000475593
-0.000133176
1.3779e-06
0.000478878
-5.79245e-05
-1.08591e-05
7.7193e-05
-1.86987e-05
0.000634253
0.000153604
2.53407e-06
0.00057849
6.1409e-05
1.74194e-05
0.000523272
-0.000130224
2.14068e-05
0.000536754
-2.06467e-05
-2.23792e-05
0.000585363
5.87125e-05
-2.35029e-05
0.000619214
0.000119241
-2.51296e-06
0.0005781
8.52419e-05
8.50935e-06
0.000503067
-0.000110103
1.07794e-05
0.000515525
-9.69675e-05
-8.19564e-06
0.000574104
0.000105246
-1.29511e-05
0.000610296
0.000183003
-7.72598e-06
0.000594275
-2.86525e-05
2.39087e-06
0.000534335
-0.000141218
1.11402e-05
0.000534048
-1.50895e-05
-9.05952e-06
0.000606521
5.92354e-05
-1.30234e-05
0.000636651
8.63492e-05
9.42587e-06
0.000571475
5.40334e-06
1.36562e-05
0.000493165
-9.45389e-05
-9.57836e-07
0.000530635
-0.000111662
-6.92915e-06
0.000614845
9.09411e-05
-1.25615e-05
0.000608998
0.000187714
-1.2488e-05
0.000540375
5.37935e-05
-1.12731e-07
0.00048741
-0.000104554
-1.26938e-06
0.000516828
-7.95518e-05
-1.7335e-05
0.000589077
7.54706e-05
-1.47468e-05
0.000611058
0.00015312
7.38606e-06
0.000560446
6.58696e-05
7.51895e-06
0.000508613
-0.000114704
1.54727e-06
0.000521873
-9.22935e-05
-1.38478e-05
0.000576116
4.24501e-05
-2.84465e-05
0.000617389
0.000145891
-6.13625e-06
0.000579666
5.31309e-05
1.02784e-05
0.000532864
-0.000176905
1.12242e-05
0.000536445
-7.33922e-05
-7.7992e-06
0.00056937
0.00011857
-1.29665e-05
0.00060663
0.000142792
2.2839e-06
0.000576562
6.13436e-05
8.14848e-06
0.000526934
-0.000123094
4.91462e-06
0.000521619
-9.38772e-05
-6.61225e-06
3.59993e-05
-1.51437e-05
0.000693265
0.000155913
3.55497e-06
0.000626784
0.000125767
1.61607e-05
0.000549421
-0.000120765
1.7674e-05
0.000577255
-8.77006e-05
-1.4746e-05
0.000636959
2.56082e-05
-1.37814e-05
0.000675341
0.000137819
-2.25665e-06
0.000640524
0.000129607
6.77882e-06
0.000546883
-7.60048e-05
7.11645e-06
0.000550472
-0.000141772
-2.00596e-06
0.000637861
4.98203e-05
7.80142e-06
0.00069245
0.000179665
1.2976e-05
0.000642721
2.57448e-05
1.04876e-05
0.000557463
-0.000106615
8.81309e-06
0.00057877
-6.5191e-05
-2.61201e-06
0.000663781
1.7759e-05
-7.45615e-06
0.000683212
0.000124902
9.19467e-06
0.000608857
7.09885e-05
1.05061e-05
0.000525016
-7.60935e-05
-6.22181e-06
0.000573446
-0.000178992
-4.30949e-06
0.000676734
4.29582e-05
-4.09487e-06
0.000661911
0.000252257
-1.3704e-06
0.00057995
0.000121239
1.1748e-06
0.000521102
-0.000102108
-1.11128e-05
0.000557424
-0.000138868
-1.41462e-05
0.000640377
3.30439e-05
-7.86204e-06
0.000667197
0.000176684
1.83343e-05
0.00061328
0.000119008
9.16757e-06
0.000544194
-0.000109619
3.57259e-06
0.000564181
-0.000154029
-7.47688e-06
0.000633059
8.36439e-06
-1.5643e-05
0.00068431
0.000144657
1.10424e-05
0.00063867
9.9461e-05
1.60329e-05
0.000551829
-0.000144342
9.91252e-06
0.000556902
-0.000106219
-7.10989e-06
0.000620481
9.43184e-05
-9.25104e-06
0.00066895
0.000146128
1.07405e-05
0.000631288
0.000104955
1.26783e-05
0.000553891
-9.95097e-05
3.94355e-06
0.000547093
-0.000133365
-8.98612e-06
-1.81902e-05
-9.96593e-06
0.000728706
0.000149538
1.2611e-06
0.000670676
0.00017352
1.63913e-05
0.000584988
-0.000103829
1.19528e-05
0.000605867
-0.000142107
-1.10185e-05
0.000678453
-1.57302e-05
-2.48355e-06
0.000736443
0.000133072
5.53205e-06
0.000699413
0.000163856
1.06558e-05
0.000588772
-3.2123e-05
5.54194e-06
0.000584934
-0.000179498
-2.39854e-06
0.000688425
-2.67577e-05
2.15945e-05
0.000748127
0.000163778
2.74556e-05
0.00068332
8.16785e-05
1.40633e-05
0.000593375
-7.82658e-05
3.57801e-06
0.000613276
-0.000117316
-1.83303e-06
0.000698519
-2.30421e-05
-3.10894e-06
0.000723508
0.000150667
1.21387e-05
0.000652867
0.000128146
9.57711e-06
0.000567914
-5.48654e-05
-8.32503e-06
0.000612628
-0.00024774
8.17665e-07
0.000718246
-1.75222e-05
1.09905e-05
0.00071695
0.000287764
1.57474e-05
0.000639983
0.000173807
7.8847e-06
0.000573125
-9.53488e-05
-1.20744e-05
0.000602035
-0.000201012
-9.77493e-06
0.00068773
-2.16164e-05
6.82228e-06
0.000728452
0.000179435
3.38954e-05
0.000670596
0.000171987
1.70619e-05
0.000580181
-9.1869e-05
4.24535e-06
0.000596824
-0.000217931
-3.91051e-06
0.00067675
-3.8556e-05
-3.90966e-06
0.000724052
0.000139704
2.34119e-05
0.000674231
0.000139737
1.75667e-05
0.000581932
-0.000112565
7.51151e-06
0.000596912
-0.000148035
-6.05049e-06
0.000674156
5.02081e-05
3.13023e-06
0.000724044
0.000146787
1.33562e-05
0.000678824
0.000143163
1.32114e-05
0.000578538
-6.22167e-05
-4.40549e-06
0.000572888
-0.000170584
-1.1912e-05
-7.34399e-05
-2.64612e-06
0.000755534
0.000125499
-1.9492e-06
0.000711151
0.000209061
8.67762e-06
0.000630543
-7.09414e-05
8.16963e-06
0.000640898
-0.000171989
-4.97377e-06
0.000709991
-6.16491e-05
8.54492e-06
0.000763393
0.000120184
4.72214e-06
0.000722956
0.000196587
4.95e-06
0.00062567
8.55984e-06
5.15821e-06
0.00061886
-0.000202199
7.23278e-08
0.000717099
-0.000102373
1.90577e-05
0.000776696
0.000135502
1.8466e-05
0.000719461
0.000124768
6.22854e-06
0.000637258
-5.18546e-05
-3.06499e-06
0.000640232
-0.000146358
-2.63647e-06
0.000721337
-6.738e-05
-2.50864e-06
0.000758444
0.000144206
1.48849e-05
0.000701638
0.00016969
4.51665e-06
0.000618241
-2.47961e-05
-7.70714e-06
0.000634345
-0.000288311
1.15108e-05
0.000737715
-8.9798e-05
1.99548e-05
0.000768652
0.000279357
1.97202e-05
0.000705133
0.000215243
6.78731e-06
0.000632095
-7.53547e-05
-6.16678e-06
0.000647033
-0.000244636
-1.8103e-06
0.000726684
-8.24729e-05
1.71447e-05
0.00076505
0.000172972
3.39908e-05
0.000714782
0.000218251
1.26382e-05
0.000625434
-6.11403e-05
-7.115e-08
0.000625696
-0.000249649
-2.716e-06
0.000700189
-8.4418e-05
3.25492e-06
0.00074647
0.000127075
1.53791e-05
0.000708025
0.00016669
1.14944e-05
0.000626798
-8.00839e-05
4.01719e-06
0.000637075
-0.000178737
-2.36277e-06
0.000714154
-8.93284e-06
1.15913e-05
0.000761343
0.000131879
1.23418e-05
0.00071724
0.000174481
8.82886e-06
0.000621434
-1.95739e-05
-1.03989e-05
0.000608633
-0.000187522
-9.82252e-06
-0.000132393
9.38649e-06
0.000764297
9.0261e-05
-5.22164e-06
0.00074458
0.000224086
-2.16226e-06
0.000683679
-3.10027e-05
6.72769e-06
0.000680591
-0.000181676
3.74602e-06
0.000726058
-0.000101461
1.08629e-05
0.000769004
9.81514e-05
-3.74319e-06
0.000744573
0.000214855
-4.63006e-06
0.000673971
4.60743e-05
2.49549e-06
0.000659307
-0.000197928
7.00967e-06
0.000726694
-0.000154128
1.21329e-05
0.00077595
0.00010471
1.43235e-07
0.000739345
0.000157766
-6.88168e-06
0.00067479
-1.77067e-05
-8.50504e-06
0.000670424
-0.000157603
2.048e-06
0.000734741
-0.000106327
-1.60898e-06
0.000768833
0.000125816
5.20163e-06
0.000735189
0.000195945
-6.81524e-06
0.000670461
1.13351e-05
-7.75666e-06
0.000664565
-0.000289759
1.64297e-05
0.000750436
-0.000153936
1.62217e-05
0.000796218
0.00024459
8.04483e-06
0.000751554
0.000245652
-5.37163e-06
0.000683728
-3.99441e-05
-1.53632e-06
0.000678348
-0.000254631
1.17004e-05
0.000736864
-0.000130712
1.90712e-05
0.000772552
0.000155108
2.27939e-05
0.000744484
0.000243983
3.92331e-08
0.00067748
-2.43022e-05
-5.87751e-06
0.000663488
-0.000245794
3.72894e-06
0.000719008
-0.00011983
1.89978e-06
0.000761659
0.000104844
1.20088e-06
0.000738376
0.000184289
3.03169e-06
0.000672558
-3.96185e-05
1.84503e-06
0.000669337
-0.000186684
5.10436e-06
0.000728327
-5.84821e-05
1.0279e-05
0.000766309
0.000110533
7.85442e-07
0.000745667
0.000187556
-2.7267e-06
0.000683783
1.41284e-05
-1.09697e-05
0.00066023
-0.000180774
-2.54834e-06
-0.000169101
1.49694e-05
0.000768991
6.88309e-05
-6.95033e-06
0.000771694
0.00022208
-6.2061e-06
0.000738976
-5.17899e-06
4.15458e-06
0.000723459
-0.000176815
5.20596e-06
0.000738626
-0.000119244
7.26079e-06
0.000769654
7.85734e-05
-7.41109e-06
0.000774629
0.000204686
-7.61322e-06
0.00074519
5.86239e-05
1.04734e-07
0.000721715
-0.000174031
8.05736e-06
0.00074309
-0.000163795
7.03666e-06
0.000776299
7.90279e-05
-4.11478e-06
0.000770336
0.000164199
-9.31397e-06
0.000736627
2.62978e-06
-1.00298e-05
0.000721746
-0.000151911
6.3425e-06
0.000748684
-0.000115443
-1.09908e-06
0.000774584
0.00010771
-1.23703e-06
0.000771645
0.000192874
-7.06015e-06
0.000739184
3.02739e-05
-7.57573e-06
0.000716452
-0.000261586
1.15387e-05
0.000761345
-0.000176228
2.79322e-06
0.000802475
0.0002098
-3.5697e-06
0.00078746
0.000252442
-1.35504e-05
0.000745199
-1.31775e-05
-3.56116e-06
0.000721394
-0.000235384
1.26896e-05
0.000745188
-0.000144508
9.80676e-06
0.000776992
0.00013525
1.10754e-05
0.000776876
0.000241855
-7.02012e-06
0.000739494
-2.50212e-06
-8.36902e-06
0.000717747
-0.000224293
6.24648e-06
0.00074074
-0.000130266
-6.29051e-07
0.000771066
8.45848e-05
-2.77505e-06
0.000772032
0.000182777
1.11996e-06
0.000734813
-1.05954e-05
2.30543e-07
0.000719405
-0.000175386
7.62879e-06
0.000745333
-8.02414e-05
7.88566e-06
0.000772043
9.12374e-05
-3.50517e-06
0.000773524
0.000182014
-5.40078e-06
0.000742529
3.11087e-05
-1.04933e-05
0.000717051
-0.000165488
2.82824e-08
-0.000174402
1.29219e-05
0.000799314
5.88217e-05
-3.31719e-06
0.000820375
0.000201168
-1.54841e-06
0.000809887
2.44939e-06
2.55398e-06
0.000786968
-0.000161855
1.76789e-06
0.000779769
-0.000113962
3.51781e-06
0.000800171
6.73475e-05
-6.0422e-06
0.00081776
0.000181362
-4.10697e-06
0.000810833
5.32814e-05
3.91722e-07
0.000788205
-0.000148466
5.0157e-06
0.000782657
-0.000147542
3.54139e-06
0.000804089
6.39075e-05
-2.23361e-06
0.000816921
0.00015196
-4.99183e-06
0.000803741
7.92719e-06
-9.58755e-06
0.000784827
-0.000138524
3.16345e-06
0.000786328
-0.000102953
-1.31473e-06
0.000804317
9.5924e-05
-6.48612e-07
0.000819811
0.000170678
-1.80261e-06
0.000810265
3.14872e-05
-6.42596e-06
0.000779576
-0.000222868
6.34417e-06
0.000787761
-0.000164303
-1.1966e-06
0.000820422
0.000179789
-4.74864e-06
0.000831034
0.00023348
-1.13906e-05
0.000812906
-3.64148e-06
-5.08192e-06
0.000783164
-0.000205435
8.71343e-06
0.000780177
-0.000132312
3.43711e-06
0.000805199
0.000119256
7.11433e-06
0.000825561
0.000218818
-5.95956e-06
0.000809546
3.68883e-06
-1.03546e-05
0.00078339
-0.000196636
2.46422e-06
0.000781512
-0.000118914
-2.88282e-06
0.000801536
7.20295e-05
-2.22771e-06
0.00082003
0.000163746
4.06547e-06
0.000804731
7.51171e-07
-8.83262e-08
0.000784133
-0.000155731
3.67927e-06
0.000786297
-7.90168e-05
4.94756e-06
0.000802951
7.95467e-05
-1.95657e-06
0.000818834
0.000161195
-8.39635e-07
0.000810293
3.03186e-05
-9.23062e-06
0.000786602
-0.000146464
-4.27628e-06
-0.000156003
9.32966e-06
0.000861635
5.41823e-05
-9.81998e-07
0.000887796
0.000174987
1.32147e-06
0.000886552
2.88328e-06
2.02165e-06
0.000863538
-0.000143364
-2.1903e-06
0.000847742
-9.94118e-05
1.57965e-06
0.000862298
6.00884e-05
-3.60177e-06
0.000884498
0.000154648
-1.64166e-06
0.00088761
4.14305e-05
3.90445e-07
0.000867144
-0.000124738
2.11533e-06
0.000850362
-0.000122308
1.33409e-06
0.000864967
5.3709e-05
-2.99572e-07
0.000885002
0.000132311
-1.30678e-06
0.000881331
6.63103e-06
-9.56158e-06
0.0008621
-0.000123274
-2.25548e-07
0.000852647
-8.3286e-05
-1.23976e-06
0.000865332
8.62149e-05
2.42972e-06
0.000888083
0.000142523
1.80796e-06
0.000889364
2.52342e-05
-5.17539e-06
0.000857171
-0.00018445
2.95576e-06
0.000845879
-0.000137686
-1.15472e-06
0.000871871
0.000155379
-1.90084e-06
0.000894638
0.000201851
-6.63203e-06
0.000888977
-3.53615e-06
-5.56114e-06
0.000859956
-0.000174447
4.09838e-06
0.000845006
-0.000110444
7.18493e-07
0.000864514
0.000105014
7.9453e-06
0.000892458
0.000187556
-1.63365e-06
0.000887038
2.63191e-06
-1.03308e-05
0.000861603
-0.000170115
-6.75172e-07
0.000849439
-9.95733e-05
-3.65947e-06
0.000863189
6.42521e-05
-8.84539e-07
0.000887321
0.000138868
6.64046e-06
0.000882198
2.81931e-06
1.95725e-07
0.000861207
-0.000135898
6.5616e-07
0.000853555
-6.88297e-05
2.88835e-06
0.000864832
7.14891e-05
-4.94502e-07
0.000885745
0.000136382
1.65297e-06
0.00088648
2.29872e-05
-7.73224e-06
0.000865181
-0.000126878
-7.72753e-06
-0.000130401
6.92393e-06
0.000944894
4.92898e-05
8.19665e-07
0.000970691
0.000148318
2.44705e-06
0.000971852
2.38293e-06
1.89411e-06
0.000950569
-0.000123718
-3.96605e-06
0.000933466
-8.32702e-05
4.95869e-07
0.000945418
5.36233e-05
-2.14894e-06
0.000967312
0.000129346
-8.93742e-07
0.000972271
3.0042e-05
3.58096e-07
0.000954101
-0.000103674
1.10179e-06
0.000935786
-9.80758e-05
5.36107e-07
0.000947519
4.46834e-05
4.96457e-07
0.000968161
0.00011232
2.83212e-07
0.000966907
4.86455e-06
-8.69882e-06
0.000948672
-0.000107394
-2.58573e-06
0.000937555
-6.50134e-05
-7.8247e-07
0.000948217
7.63144e-05
3.60825e-06
0.000970661
0.000116037
3.12219e-06
0.000974442
1.84736e-05
-3.86355e-06
0.000944266
-0.000150083
1.75011e-06
0.000928187
-0.0001115
-2.6213e-07
0.000950902
0.000132708
3.46321e-07
0.00097541
0.000169185
-3.81773e-06
0.000973544
-5.45111e-06
-4.99127e-06
0.000947113
-0.000146394
2.65461e-06
0.000929924
-8.93852e-05
6.35767e-07
0.000946414
9.06513e-05
7.98941e-06
0.000974449
0.000156279
9.1263e-07
0.000972203
1.32313e-06
-9.2067e-06
0.000948667
-0.000145056
-2.45106e-06
0.000935028
-8.07734e-05
-3.35439e-06
0.000946162
5.73527e-05
-2.01058e-07
0.000969996
0.000114454
7.31652e-06
0.000968094
2.44577e-06
7.13654e-07
0.000948174
-0.000116185
-1.01427e-06
0.000938666
-5.76163e-05
1.57697e-06
0.000947823
6.3695e-05
3.18188e-07
0.000968529
0.000112366
2.50039e-06
0.000971437
1.56604e-05
-6.36384e-06
0.000952028
-0.000107656
-8.7086e-06
-0.000106203
5.83985e-06
0.00104073
4.29267e-05
2.12578e-06
0.00106452
0.000123318
2.35899e-06
0.00106579
2.7192e-06
1.89614e-06
0.00104651
-0.000104396
-4.20975e-06
0.00103067
-6.87359e-05
4.85732e-08
0.00104135
4.66747e-05
-1.22033e-06
0.0010614
0.00010669
-8.07036e-07
0.00106577
2.1317e-05
9.89891e-08
0.00104973
-8.49191e-05
8.06371e-07
0.00103279
-7.72382e-05
2.42435e-07
0.00104289
3.58657e-05
5.33447e-07
0.00106228
9.27817e-05
1.2569e-06
0.00106135
4.31096e-06
-7.5742e-06
0.00104428
-9.15255e-05
-3.44601e-06
0.00103439
-5.05141e-05
-1.00759e-07
0.00104414
6.59459e-05
3.62804e-06
0.00106414
9.31317e-05
3.47852e-06
0.00106795
1.30908e-05
-2.53735e-06
0.00104086
-0.000120283
1.28843e-06
0.00102518
-8.94968e-05
5.68607e-07
0.00104594
0.000110286
1.62613e-06
0.00106831
0.000139333
-2.27096e-06
0.00106707
-6.74986e-06
-4.3785e-06
0.00104353
-0.000121381
2.07701e-06
0.00102741
-7.1525e-05
8.24928e-07
0.00104193
7.61378e-05
7.25498e-06
0.00106764
0.000127696
2.13351e-06
0.00106629
9.68529e-07
-7.73105e-06
0.00104469
-0.000121372
-2.79945e-06
0.00103223
-6.46473e-05
-2.72862e-06
0.00104205
5.02153e-05
-4.50176e-08
0.00106354
9.24695e-05
6.98844e-06
0.00106265
1.94717e-06
1.19689e-06
0.00104417
-9.70395e-05
-1.74015e-06
0.00103542
-4.76999e-05
7.16906e-07
0.00104368
5.5526e-05
5.67e-07
0.00106228
9.09115e-05
2.47127e-06
0.00106527
1.00038e-05
-5.08133e-06
0.00104775
-8.95569e-05
-8.3192e-06
-8.51989e-05
5.01705e-06
0.00114676
3.5627e-05
2.99446e-06
0.00116814
0.000100741
1.92149e-06
0.00116922
3.68646e-06
1.8094e-06
0.00115197
-8.61637e-05
-3.73908e-06
0.00113799
-5.60628e-05
-2.89092e-07
0.00114748
3.94921e-05
-5.94271e-07
0.00116533
8.68033e-05
-8.62685e-07
0.00116882
1.49688e-05
-1.46211e-07
0.00115494
-6.84875e-05
7.09311e-07
0.00114002
-5.96288e-05
1.41884e-07
0.0011485
2.78799e-05
3.21617e-07
0.00116612
7.473e-05
1.49283e-06
0.00116529
4.71654e-06
-6.31648e-06
0.00114957
-7.60907e-05
-3.80414e-06
0.00114134
-3.96354e-05
5.60737e-07
0.00115035
5.55868e-05
3.24756e-06
0.00116743
7.35802e-05
3.52118e-06
0.00117088
8.92674e-06
-1.45204e-06
0.00114714
-9.46754e-05
8.61901e-07
0.00113293
-7.16168e-05
1.11917e-06
0.0011519
8.85687e-05
2.18055e-06
0.00117143
0.000112963
-1.27165e-06
0.00117009
-6.73868e-06
-3.94392e-06
0.00114944
-9.91912e-05
1.57491e-06
0.00113521
-5.68404e-05
9.41932e-07
0.00114796
6.20708e-05
6.10606e-06
0.00117068
0.000102711
2.60799e-06
0.00116978
1.44477e-06
-6.28905e-06
0.00115024
-9.93438e-05
-2.74801e-06
0.00113949
-5.1395e-05
-2.06865e-06
0.00114826
4.29936e-05
-4.53262e-08
0.00116679
7.33598e-05
6.29992e-06
0.00116663
2.01792e-06
1.53416e-06
0.00114983
-7.90456e-05
-1.9809e-06
0.00114221
-3.93836e-05
2.18962e-07
0.00114981
4.7091e-05
5.18641e-07
0.00116592
7.24519e-05
1.98637e-06
0.00116857
5.98719e-06
-3.99695e-06
0.00115299
-7.28163e-05
-7.60567e-06
-6.74362e-05
4.11601e-06
0.00126323
2.81649e-05
3.53594e-06
0.00128217
8.05515e-05
1.50917e-06
0.00128309
4.87606e-06
1.66727e-06
0.00126785
-6.94912e-05
-3.00567e-06
0.00125584
-4.52905e-05
-5.07285e-07
0.0012641
3.23623e-05
-8.02095e-08
0.00127973
6.94844e-05
-8.38267e-07
0.00128233
1.06058e-05
-3.39646e-07
0.00127058
-5.42521e-05
5.41944e-07
0.00125789
-4.49462e-05
5.56683e-08
0.0012646
2.09186e-05
6.7536e-08
0.0012803
5.84433e-05
1.46435e-06
0.00127974
5.48282e-06
-5.12805e-06
0.00126546
-6.12948e-05
-3.95079e-06
0.00125876
-3.14921e-05
9.30188e-07
0.00126701
4.55995e-05
2.89801e-06
0.00128124
5.73906e-05
3.14591e-06
0.00128425
5.71875e-06
-5.98304e-07
0.00126398
-7.29456e-05
3.95035e-07
0.00125131
-5.68134e-05
1.17087e-06
0.00126822
6.85878e-05
2.23306e-06
0.0012851
9.0307e-05
-9.67197e-07
0.00128363
-5.70905e-06
-3.60428e-06
0.00126575
-7.96188e-05
1.05931e-06
0.00125357
-4.48576e-05
8.8486e-07
0.00126452
4.91967e-05
4.83802e-06
0.00128412
8.10771e-05
2.67237e-06
0.00128365
2.20038e-06
-4.93969e-06
0.0012663
-7.93161e-05
-2.61765e-06
0.00125726
-4.06211e-05
-1.54132e-06
0.00126499
3.59617e-05
-3.90444e-08
0.00128045
5.70472e-05
5.48129e-06
0.001281
2.30635e-06
1.7552e-06
0.00126606
-6.24637e-05
-1.9593e-06
0.00125949
-3.23098e-05
-1.79642e-07
0.00126642
3.84896e-05
4.85698e-07
0.00128004
5.68878e-05
1.40572e-06
0.00128226
3.31267e-06
-3.14552e-06
0.00126882
-5.78377e-05
-6.72119e-06
-5.25617e-05
3.19343e-06
0.00139118
2.11242e-05
3.76976e-06
0.00140765
6.27754e-05
1.24623e-06
0.00140851
5.86721e-06
1.43941e-06
0.00139523
-5.46431e-05
-2.18308e-06
0.00138517
-3.61367e-05
-6.92205e-07
0.00139218
2.55298e-05
1.9275e-07
0.0014056
5.46193e-05
-7.49591e-07
0.00140747
7.74841e-06
-5.07097e-07
0.00139768
-4.21743e-05
3.557e-07
0.00138732
-3.3022e-05
1.93517e-08
0.00139226
1.50735e-05
-1.2792e-07
0.00140585
4.41565e-05
1.26809e-06
0.00140571
6.1356e-06
-3.96657e-06
0.00139306
-4.75899e-05
-3.89557e-06
0.00138761
-2.5115e-05
9.38429e-07
0.00139505
3.62788e-05
2.58715e-06
0.00140661
4.41954e-05
2.67326e-06
0.00140917
3.41914e-06
-1.11123e-07
0.00139238
-5.48238e-05
-5.44609e-08
0.00138121
-4.43834e-05
1.00218e-06
0.00139577
5.10486e-05
2.12252e-06
0.00141032
7.09174e-05
-7.10165e-07
0.00140875
-3.93074e-06
-3.30413e-06
0.00139353
-6.26212e-05
5.25993e-07
0.00138336
-3.50859e-05
7.42788e-07
0.00139257
3.78335e-05
3.71951e-06
0.00140909
6.27154e-05
2.5117e-06
0.00140898
2.89941e-06
-3.71446e-06
0.00139394
-6.15421e-05
-2.50976e-06
0.00138648
-3.1924e-05
-1.13284e-06
0.00139318
2.91145e-05
1.77945e-08
0.00140571
4.34099e-05
4.60778e-06
0.00140678
2.52685e-06
1.82868e-06
0.00139394
-4.77527e-05
-1.77871e-06
0.00138819
-2.62275e-05
-4.43969e-07
0.00139446
3.02032e-05
4.43033e-07
0.00140571
4.40002e-05
8.69949e-07
0.00140747
1.6702e-06
-2.50371e-06
0.00139623
-4.48637e-05
-5.71853e-06
-4.0201e-05
2.30749e-06
0.00153178
1.50003e-05
3.69424e-06
0.00154574
4.74538e-05
1.12409e-06
0.00154668
6.39276e-06
1.18954e-06
0.00153529
-4.16138e-05
-1.37704e-06
0.00152708
-2.84096e-05
-8.25047e-07
0.00153288
1.9263e-05
2.73357e-07
0.00154416
4.20407e-05
-5.9863e-07
0.00154546
6.01584e-06
-6.63107e-07
0.00153741
-3.20655e-05
1.83092e-07
0.00152932
-2.36504e-05
-1.05807e-09
0.00153271
1.04733e-05
-2.45853e-07
0.00154396
3.21257e-05
9.52721e-07
0.00154438
6.30241e-06
-2.95698e-06
0.00153349
-3.53441e-05
-3.63034e-06
0.00152903
-1.98424e-05
7.35882e-07
0.00153557
2.77496e-05
2.32765e-06
0.00154478
3.35967e-05
2.23029e-06
0.00154689
2.17648e-06
1.52353e-07
0.00153339
-4.0087e-05
-3.38048e-07
0.00152375
-3.38544e-05
6.58027e-07
0.00153577
3.63601e-05
1.90935e-06
0.00154823
5.4411e-05
-4.07729e-07
0.00154674
-1.94508e-06
-2.93574e-06
0.00153392
-4.79347e-05
-7.73965e-08
0.0015257
-2.72536e-05
5.90539e-07
0.00153325
2.81812e-05
2.80945e-06
0.00154682
4.73946e-05
2.24187e-06
0.00154699
3.40651e-06
-2.68582e-06
0.00153432
-4.62794e-05
-2.32151e-06
0.00152823
-2.49045e-05
-8.75649e-07
0.00153398
2.26722e-05
1.10899e-07
0.00154377
3.23681e-05
3.73863e-06
0.00154519
2.53047e-06
1.78149e-06
0.0015345
-3.52002e-05
-1.43048e-06
0.00152952
-2.10472e-05
-6.53051e-07
0.00153504
2.25937e-05
4.16034e-07
0.00154415
3.34812e-05
3.95347e-07
0.00154547
7.63819e-07
-1.96599e-06
0.00153626
-3.39028e-05
-4.68166e-06
-3.01409e-05
1.48113e-06
0.00168634
1.00069e-05
3.36607e-06
0.0016978
3.4569e-05
1.12737e-06
0.00169888
6.32434e-06
9.25456e-07
0.00168936
-3.05782e-05
-7.30481e-07
0.00168281
-2.17916e-05
-9.26961e-07
0.00168743
1.38232e-05
2.54005e-07
0.00169671
3.14972e-05
-3.49301e-07
0.0016976
4.9824e-06
-6.71672e-07
0.00169108
-2.37487e-05
2.05341e-08
0.00168506
-1.6537e-05
-1.07826e-09
0.00168718
7.14067e-06
-3.05117e-07
0.00169612
2.24047e-05
6.0139e-07
0.00169699
5.98509e-06
-2.12068e-06
0.00168796