/*--------------------------------*- C++ -*----------------------------------*\
  =========                 |
  \\      /  F ield         | OpenFOAM: The Open Source CFD Toolbox
   \\    /   O peration     | Website:  https://openfoam.org
    \\  /    A nd           | Version:  10
     \\/     M anipulation  |
\*---------------------------------------------------------------------------*/
FoamFile
{
    format      ascii;
    class       surfaceScalarField;
    location    "42.5";
    object      phi;
}
// * * * * * * * * * * * * * * * * * * * * * * * * * * * * * * * * * * * * * //

dimensions      [0 3 -1 0 0 0 0];

internalField   nonuniform List<scalar> 
74080
(
0.00574687
0.000305593
0.00258922
0.0055981
-0.000354698
0.00268109
0.00502103
0.000105876
0.00192847
0.00431017
0.000221617
0.00113902
0.00464228
0.00142446
5.41111e-05
0.00468935
0.0010698
0.00030483
0.00498678
0.000464212
-0.00140242
0.00523859
0.000893232
0.000809637
0.00520122
0.000109942
0.00158627
0.00485955
0.000303924
0.00172299
0.00477161
0.000525132
0.00173909
0.00567562
0.00048719
-0.000270908
0.00599506
0.000962848
0.000100537
0.00592348
0.000580756
0.00100331
0.00647961
-0.000455303
0.00205877
0.00635167
0.000230145
0.000410493
0.00685411
-9.02436e-05
0.00191281
0.00643288
0.000577063
0.00204606
0.00558269
0.00148542
2.86167e-06
0.00682825
-4.44235e-06
0.00172971
0.00645608
7.88033e-06
0.00089845
0.00572572
0.000777287
-0.000688564
0.00603876
0.000154642
0.00129027
0.0059804
-0.000427056
0.00250467
0.00623039
0.00111219
0.000739292
0.00590027
0.00199108
0.000158669
0.00501266
-3.13909e-05
0.00171916
0.00536744
0.000515854
0.000371413
0.00606716
0.00176329
0.000975572
0.0055699
-2.57976e-05
0.00194967
0.00633462
8.96188e-05
0.000587385
0.00669452
0.000249556
0.00150228
0.0060344
-0.000440409
0.0040277
0.00618425
0.000184661
0.00275891
0.00675621
0.000210058
0.000291176
0.00615449
0.000365861
0.00116296
0.00570704
0.000399494
0.00133669
0.00666078
0.000478522
0.00110792
0.0074177
0.000759083
0.00136012
0.000953145
0.00121192
0.00459064
0.000408241
0.00121421
0.00447891
0.00010386
-0.000128829
0.00479974
2.89389e-05
-0.000169889
0.00504584
-0.000208462
0.000783299
0.00488859
0.00130328
0.000519746
0.00564195
0.000136745
0.00028014
0.00640155
-0.000199918
-0.000111673
0.00632038
0.000679642
-0.000541301
0.00615053
-0.000625495
-2.62277e-05
0.00593293
0.000199761
0.000408929
0.00605172
0.000234076
0.000493082
0.00661848
0.000282334
-0.00041422
0.00655428
0.000734979
-0.00084224
0.00497127
0.000669634
0.000956098
0.00414889
0.00083319
0.000256449
0.00591892
0.000404054
-0.00201915
0.00627087
-0.000429457
0.000184086
0.00541298
0.00136047
0.000858004
0.00577621
0.00082792
-0.000598593
0.0062989
-0.000595151
-0.000685036
0.00570093
0.00108469
-0.00039041
0.00426967
0.00176719
0.000713272
0.00461925
1.08125e-05
0.000336474
0.00570249
-0.000862305
-0.000405331
0.0052928
0.00169601
0.000362925
0.00490701
0.00199333
0.00050062
0.00507008
7.40921e-05
-4.58974e-05
0.00457644
0.000625039
0.000351687
0.0040841
0.00165732
0.000756857
0.00505952
0.000153601
-0.000938055
0.00507791
3.85891e-05
-0.000825653
0.00354448
0.000159372
0.0019982
0.00423039
-0.000278468
0.000916849
0.00545944
0.000576895
2.32697e-05
0.00519767
0.000192762
0.000424268
0.00593027
-0.000511045
-5.20439e-05
0.00640926
-2.97108e-05
0.000988473
0.00615828
0.000508074
0.000259501
0.0063053
0.000985914
-0.00139054
0.00142867
0.000545109
0.00466702
0.000801085
3.82329e-05
0.00524202
0.000481489
0.000855573
0.00519906
-0.000408357
0.00160702
0.00480985
-0.000112868
0.00089298
0.00515305
0.000621545
0.00105716
0.00359923
0.000577774
0.00156939
0.00272198
0.0010157
0.000437136
0.00389593
-0.000263771
0.000320183
0.00468758
-0.00109229
6.182e-05
0.00535244
0.000382246
0.00013815
0.00521917
0.000883375
0.000892937
0.00498585
0.00139725
0.000234243
0.00533646
0.00108984
-0.000629942
0.00469004
0.000690139
0.000680357
0.0042075
0.00140426
0.00058176
0.00500374
0.00161256
-0.000587626
0.00505951
-0.00072296
0.00072832
0.00463544
0.00100322
0.00112642
0.00455818
0.00132813
0.000244031
0.00410289
-0.000997701
0.000806805
0.004976
0.000469042
0.000577647
0.00512387
0.00220237
-0.000105219
0.00367655
0.00113001
-0.000188223
0.00417378
-0.000382527
9.44581e-05
0.00512077
0.0011113
0.000589459
0.00516689
0.00102034
0.00130486
0.00540527
0.000182711
0.00065002
0.00510257
0.00108557
0.000536724
0.00439027
0.00170048
0.00063773
0.00421182
0.000773498
0.00091227
0.0044787
0.00032067
0.00106621
0.00402342
0.000164047
0.00138222
0.00439147
-0.000978104
0.00116106
0.00544444
-0.000529399
-0.000146119
0.00463494
0.000812176
-0.000261767
0.00369034
0.000434104
0.000332634
0.00459731
-0.00027741
-0.000320694
0.00451934
0.0011671
-0.000423227
0.00411065
0.00133879
0.000943175
0.000597494
0.000405028
0.0046286
0.00163553
-0.000830656
0.00417773
0.00101731
-0.000178002
0.00461639
-0.00107011
0.000500918
0.00365199
0.00107018
0.000240958
0.00358343
0.00100249
-0.000491504
0.00435344
0.000608568
-0.000977786
0.00436211
0.00118769
-0.000279902
0.00399295
-0.000592582
0.00055879
0.00357771
-0.000935012
0.000269347
0.00375951
0.000760774
-0.000333154
0.00425934
0.0011567
1.18294e-05
0.00483291
0.00126627
-0.00038105
0.00530315
0.00109962
-0.00087743
0.004686
0.00116725
-8.02495e-05
0.00470351
0.001124
0.000512335
0.00536457
0.00111464
0.000113836
0.00555675
-0.000287386
-0.000704578
0.00617571
-8.39155e-06
0.000280351
0.00479059
0.00197985
0.000605883
0.00286614
0.00107346
0.000629534
0.00319792
0.000283011
0.000577165
0.00466
0.00112284
0.000173945
0.00525464
0.000870141
-0.00029875
0.00491689
-0.000201103
0.000311134
0.00476919
0.00038996
0.000999716
0.00402801
0.000965027
0.000824838
0.00389679
0.00101473
0.000195964
0.00477944
0.00120986
-0.00021919
0.00506007
0.00108373
0.000274016
0.00515502
0.000692829
0.000188056
0.00517234
0.000528858
-9.90813e-05
0.00433768
0.00020383
0.000295047
0.00307349
-0.000482768
0.000838959
0.00363739
-0.000841205
0.000374107
0.00507526
0.000177071
-0.000309012
0.00480144
0.0013906
-0.00057784
0.00516312
-0.000184291
-0.000245657
0.00526545
0.000788138
0.000101379
0.00473128
0.00158155
0.000271997
0.000180571
-0.000437259
0.00520335
0.00112902
-0.0005099
0.00411831
0.000625354
0.000836056
0.00332202
0.000134756
0.000223657
0.00438346
0.0011414
-0.000660207
0.00378869
0.000752717
8.87644e-05
0.00402117
-0.000161594
0.000862393
0.00393337
0.00118209
6.86562e-05
0.00259816
0.000836406
-0.000579021
0.00337565
-0.00109067
9.64041e-05
0.00413718
0.000214007
0.00010231
0.00391824
0.00133039
-0.000365907
0.00379554
0.00123047
0.0001974
0.00396301
0.000202903
0.000906877
0.00369686
0.000848883
0.000676806
0.00381056
0.000808033
0.000698181
0.00493158
-3.47685e-05
0.000179286
0.00471791
0.000179833
-0.000104835
0.00481524
-8.16427e-05
-8.83677e-05
0.00545174
0.000839619
0.000633783
0.00427399
0.00166044
0.000922362
0.00305879
0.00104448
0.000269996
0.00341738
0.000751921
0.000445733
0.00415392
0.000117844
0.000682872
0.00426252
-0.000203863
0.00040863
0.0039272
0.00084286
0.00019929
0.00363466
0.00151287
-0.000213742
0.00426577
0.000743025
-0.000408697
0.00366269
0.0010829
0.000896339
0.00385234
0.000902044
0.000270478
0.00509102
-0.000116072
-0.000674526
0.00494352
0.000336134
-0.000104891
0.0048004
0.000675978
-0.000539209
0.003338
0.000615003
3.19874e-05
0.00205767
0.000288751
0.000689846
0.00337714
9.86005e-05
0.000139934
0.00437702
0.000526052
-0.000323174
0.00343355
0.00043095
0.000535669
0.00369836
0.00064121
0.00105349
0.00420188
0.000409354
0.000671669
0.000636305
-0.000129802
0.00401256
0.000126898
0.000282897
0.00389574
0.000472049
0.000607311
0.00384339
0.000370909
-0.000328149
0.00373577
0.000759527
-4.16214e-05
0.00348267
0.000676675
0.000821807
0.00396913
-0.000362424
0.00076877
0.00500013
0.000128453
-7.30616e-05
0.00389589
0.000986479
-0.000346956
0.00259335
8.71231e-05
-1.11499e-05
0.00365044
0.000273626
-0.000197416
0.00431345
0.00107585
0.000227768
0.00385822
0.00136522
0.000636054
0.00368537
0.000242442
0.000640417
0.00384263
0.000232504
0.000557668
0.00406677
0.000166484
5.42435e-05
0.00415652
1.96491e-05
-0.000501167
0.00431874
0.000492459
-0.000294794
0.00365807
0.000496954
0.000256527
0.00337574
0.000846062
0.000160074
0.0041797
0.000833047
0.000126862
0.00415374
0.000969791
-5.79402e-06
0.00373351
0.000605642
-0.000190873
0.0030248
0.000267104
0.000266065
0.00291977
0.000415044
-0.000273397
0.00377734
0.0009364
-0.000733646
0.00370337
0.00144571
0.00013169
0.0035592
1.93701e-05
0.00108878
0.00342906
0.000866041
0.0010626
0.00283683
0.00158503
0.000146794
0.0029385
0.000495814
-0.000389531
0.00383575
0.000200091
8.60616e-06
0.00414796
0.000586902
0.000598258
0.00428748
0.00128476
-0.000416157
0.00419977
0.00103463
-0.000413555
0.00309909
0.000819447
0.000497374
0.0029472
0.000496294
0.000324289
0.00280098
0.000817414
-0.000222112
0.00219444
0.000926176
0.000181292
0.00242935
7.8144e-05
0.00030159
-1.10557e-05
-0.000299495
0.00314942
0.000426798
-0.000295228
0.00305134
0.000841759
0.000282561
0.00393614
-0.000143845
0.000330378
0.00421974
0.000115058
0.000133328
0.00329167
0.00188194
6.68726e-05
0.00327528
0.000234081
0.000262916
0.0033736
-0.000246368
0.000162346
0.00336628
0.00109324
-0.000172375
0.00369202
0.000341057
-0.000327904
0.00401207
0.000362871
-0.000382027
0.00439327
0.000600585
-0.000110701
0.00423767
0.00110249
0.000642709
0.00346495
0.000722467
0.00084514
0.00309722
0.00016344
0.000146187
0.00343412
-0.000433873
-0.000378822
0.0033649
-0.000259229
-0.000174031
0.00336327
0.000443268
-8.60416e-05
0.00383174
0.000440348
-0.000504586
0.00365739
0.000744771
-0.000115384
0.00351172
0.000524564
0.000142312
0.00373193
0.00082517
-0.00033927
0.00355955
0.000163794
0.000493068
0.00271916
0.000613037
0.000880191
0.00287292
0.000206541
-3.28246e-05
0.0031443
0.000530764
-0.000155491
0.00285398
0.0017584
-1.95499e-05
0.00287811
0.000273249
-0.0002258
0.00313364
0.000581963
-8.6763e-05
0.00332129
0.00127323
-7.44074e-05
0.0027574
0.00083153
0.000196926
0.00219274
0.000832777
-0.000242729
0.00276148
0.000771247
-0.000642416
0.00305179
0.00127256
-5.98006e-05
0.00276107
0.00133009
-0.000188271
0.00239496
0.00126578
-0.000330096
0.00289998
0.00042942
-1.75602e-05
0.00386764
0.00022029
-0.000156267
0.00378148
0.000990838
-0.000276821
0.003112
0.000818036
-0.000152514
0.000385658
-0.000544595
0.00329172
0.000544908
9.04116e-05
0.00332005
0.000428242
8.10855e-05
0.00292102
0.000342141
-9.54979e-06
0.00312347
0.000462467
-0.000228734
0.00352585
0.00129569
0.00044207
0.00304551
0.000568014
0.000160511
0.00282021
0.000524156
-0.000368597
0.00244607
0.00148318
-0.00021085
0.00256404
0.00071164
-0.000173173
0.00375815
0.000271712
-0.00025744
0.0040407
0.000435692
-9.53686e-05
0.00325828
0.00099107
0.000594998
0.00245753
0.00079034
0.000587663
0.0021271
0.000747327
-0.000234091
0.00205228
0.000349582
-8.7165e-05
0.00294596
-0.000744578
0.000233046
0.00338155
-1.86588e-05
0.000211227
0.00329976
0.000841251
-0.000219615
0.00345829
0.000536447
-2.64773e-05
0.00270582
0.000589157
0.000516712
0.00239027
0.00120343
-0.00023316
0.00314436
-0.0003224
-0.000607773
0.00341765
0.000114982
0.00017025
0.00299572
0.000527146
-6.8787e-05
0.00278216
0.000700228
9.2042e-05
0.00278655
0.00176405
-1.93585e-06
0.00240659
0.000350376
7.09013e-05
0.00202301
0.000858009
0.000103956
0.00227109
0.000879275
-0.000112877
0.00279726
0.000210768
-0.000284461
0.00316712
0.00073133
-0.000270571
0.00297141
0.000814715
0.000123874
0.00292253
0.00100275
0.000424942
0.00336849
0.000749888
0.000187448
0.00319698
0.00137399
-0.000166759
0.00335511
0.000242908
-4.9491e-05
0.00338766
-0.000154023
0.00038633
0.00286213
0.00145868
-9.45469e-05
0.00309881
0.000774103
-0.000222262
0.000455284
4.63513e-05
0.00390177
8.03295e-05
-0.000127553
0.00352792
0.000713958
-0.000315226
0.00331715
0.000661066
1.193e-05
0.0032252
0.000489966
0.000115567
0.0031936
0.00116316
-0.000168927
0.00285731
0.000943326
-0.000318667
0.00251377
0.000481369
7.56853e-05
0.0022698
0.00134692
-0.000120729
0.00241888
0.00144581
-0.000803882
0.00289561
0.00044203
-0.000362522
0.00282331
0.000259129
0.000155241
0.00252343
0.00105413
-0.000255845
0.00233214
0.00110539
-0.00032817
0.00236846
0.000993099
2.87479e-05
0.00239454
0.000633295
0.000411691
0.00241578
-0.000551009
0.000266887
0.00254188
-4.69371e-05
3.33893e-05
0.003068
0.000473703
7.63075e-05
0.00325665
0.000252869
0.000208713
0.00312718
0.000471154
0.000274237
0.00308698
0.00120454
0.000112082
0.00257867
0.000100834
-1.76551e-05
0.00307465
-0.000197967
-0.000399036
0.00245059
0.00135219
-0.000418374
0.00139433
0.00164535
8.42795e-05
0.00248178
0.000804552
-0.000322999
0.00293594
0.000202948
-0.000341975
0.00282461
0.00093278
0.000309618
0.00298736
0.000503817
-1.7885e-05
0.0025333
0.000491574
-0.000359922
0.00272773
0.000622474
-0.000274352
0.00305438
0.000419899
-3.19863e-05
0.00280744
0.000980721
0.000100449
0.00358092
4.61086e-05
-0.00053638
0.00365545
0.00137267
-0.000755307
0.00290556
0.000519321
0.000345272
0.00280811
-0.000642283
0.00083761
0.00274315
0.00107054
0.000368228
0.00255221
0.000580231
6.79136e-05
-0.00040742
0.000178612
0.00240162
9.03197e-05
1.88414e-05
0.00281474
0.000534864
-0.000176156
0.00307656
0.000750475
-0.000183801
0.00285814
0.000694731
-8.94794e-05
0.00274963
0.00119987
-0.000325909
0.00311994
0.000496967
-0.000389197
0.00262
0.000587716
-9.47574e-05
0.00208565
0.00176358
-0.000133271
0.00250153
0.00141825
-0.000358577
0.00291476
0.000332444
-0.000217279
0.00300339
0.000211401
-0.000241459
0.00270404
0.00117777
-0.000318436
0.00254016
0.00124578
-0.000377551
0.00276965
0.000789631
-0.000129967
0.00283097
0.000441246
0.000121888
0.0026106
-6.46282e-05
-0.00029623
0.00251337
0.000351591
-0.000487926
0.00291459
0.000234524
1.08283e-05
0.0030355
0.000185312
0.000125533
0.00273605
0.000573116
0.000124674
0.00292372
0.000959
-7.35419e-05
0.00270319
0.000492363
-0.000109704
0.00256702
0.000120876
-0.000191227
0.00297612
0.000803461
-0.000173112
0.00314039
0.00127446
0.000160008
0.00300031
0.000674232
-2.37406e-05
0.00268229
0.000191755
-1.12421e-05
0.00281745
0.000620814
0.000103725
0.00317646
0.000149133
-0.000274057
0.00361093
0.000355665
-0.000397787
0.00371009
0.000507716
-8.22676e-05
0.00300864
0.000875928
-0.000115569
0.00266363
0.00113438
-0.000346572
0.00271967
4.85759e-05
-0.00041093
0.00228673
0.00170529
-0.000177729
0.0022142
0.000605514
-0.000242079
0.00230063
-0.000636886
-0.000230784
0.00214348
0.000996909
-0.00028312
0.00214435
0.000393522
-0.000380178
-0.000262628
-0.000106165
0.00214715
0.00036327
-8.93859e-05
0.00191867
0.000651666
-8.42529e-05
0.00224973
0.000603953
-0.000337737
0.00269765
0.000470367
-0.000346181
0.00266247
0.0010307
-0.000187181
0.00259237
0.00022257
-0.000140825
0.00229888
0.000631895
-0.000287475
0.0023369
0.00174066
-0.000432268
0.00266691
0.0013623
-0.000350736
0.00289064
0.000219884
-0.000244606
0.00272928
0.000203098
-0.000166487
0.00238742
0.00132403
-0.000191453
0.00236511
0.00122026
-0.000152422
0.00226804
0.00102962
-0.000280229
0.00215463
0.000692681
-0.000482433
0.00205613
0.000279315
-0.000475478
0.00221341
0.000527173
-0.000379239
0.00247425
0.000165462
-0.00028117
0.00258731
0.00017435
-0.000245945
0.00242297
0.00084571
-0.000200227
0.00250999
0.000746167
-0.000104738
0.00253552
0.000233821
0.000144968
0.00235491
0.000281199
0.000139317
0.00248397
0.000409243
8.55557e-05
0.00240135
0.00101511
0.000330982
0.00200227
0.00118951
-0.000223723
0.00191982
0.000534872
-0.00036407
0.00264567
7.33989e-05
-0.000153492
0.0026291
0.000207068
-0.000203718
0.00229487
0.000732359
-0.000265624
0.0025576
0.000422141
-0.000312601
0.00235505
0.00134164
-0.000356331
0.00213545
0.00134204
-0.000371747
0.00211097
-7.35223e-05
-0.000352416
0.00219353
0.00133243
0.000124044
0.00260812
9.05903e-06
0.00015484
0.0029103
-0.000840749
-0.000194723
0.00287855
0.000834025
-0.000183427
0.00263513
0.000398688
-0.000261814
8.72868e-05
-0.000337696
0.00228818
0.000133481
-4.61759e-05
0.0020266
0.00101464
-0.000238397
0.00172812
0.000953481
-0.000296451
0.00227037
8.08781e-05
-0.000240904
0.00269732
0.000691217
-0.000309521
0.00226552
0.000555009
-0.00025286
0.00177568
0.000886544
-0.000191919
0.00217725
0.00125128
-0.000381469
0.00278339
0.000902964
-0.000372097
0.00305388
1.15092e-05
-0.000127305
0.00282834
0.000368534
-7.21099e-05
0.00267964
0.00136235
-0.000151453
0.00269073
0.00113378
-6.94982e-05
0.00252231
0.00134253
-0.000152039
0.00225016
0.00100543
-0.00023107
0.00194674
0.000574842
-0.000125464
0.00228508
0.000273232
4.46451e-05
0.00250153
-0.000116682
1.48063e-05
0.00214487
0.000462762
-3.36766e-05
0.00197017
0.00105453
-9.60281e-05
0.00212295
0.000478914
-0.000111288
0.00220277
-0.000144394
6.17716e-05
0.00218552
0.000140069
0.000244141
0.00221316
0.000213333
0.000225603
0.00218444
0.000906257
0.000189651
0.00227427
0.00124905
-0.000218089
0.00235854
0.000614284
-0.000248367
0.00263634
-0.000323287
2.28777e-05
0.00241449
0.00044345
-0.000294054
0.00189625
0.00125323
-0.000106224
0.00190439
0.000515156
-9.55314e-05
0.00211475
0.00135569
-0.00026438
0.00208959
0.00130584
-0.000164894
0.0021973
-0.000152974
-0.000219676
0.00251993
0.000824416
5.88561e-05
0.00210702
-7.46513e-05
7.27476e-05
0.00225715
-0.000916464
-0.000378313
0.00252619
0.000826537
-0.000451888
0.00203754
0.000932893
-0.000315221
0.000210605
-0.000205006
0.00205876
2.6102e-05
-0.000176419
0.00212939
0.00104618
-0.000273648
0.00196043
0.00124482
-0.000292161
0.00206718
0.000162067
-0.000235188
0.0024029
0.000458154
-0.000387747
0.00211632
0.00064486
-0.000167157
0.00188194
0.000870035
-6.22134e-05
0.00213033
0.000841524
-0.000204575
0.00248885
0.000446999
-0.000230948
0.00263136
-0.000174578
-0.000160625
0.00246716
0.000490201
-7.09794e-05
0.00242018
0.00125493
-0.000183862
0.00224894
0.00119403
-7.47461e-05
0.00221425
0.00136776
0.000105806
0.00221206
0.00103159
-0.000148481
0.00200728
0.000777935
-0.000188272
0.00225785
8.44738e-05
-1.36436e-05
0.00235006
-0.000155965
-5.02609e-05
0.00201929
0.000643694
-2.64343e-05
0.00182267
0.00115269
-4.79972e-05
0.0013028
0.000769371
-0.000208814
0.00120715
-0.000149237
-0.000274651
0.00165384
-0.000191755
-0.000142331
0.00197131
-4.96283e-05
-0.000203948
0.00218174
0.000654126
-0.00010704
0.00237712
0.00112751
-0.000163302
0.00256754
0.000483456
-0.0001717
0.00242245
-0.000261231
-5.23824e-05
0.00193056
0.000861909
-0.000155184
0.00174147
0.00123048
8.55091e-05
0.00217007
0.000164876
-7.91491e-05
0.00242201
0.00125018
1.37222e-05
0.0023233
0.001145
5.19533e-05
0.00229075
-0.000200394
-6.90533e-05
0.00228277
0.000783967
0.00012409
0.00167645
0.000205949
2.27327e-05
0.00163386
-0.000659655
-0.000399008
0.00201632
0.000833541
-0.000470053
0.00188661
0.00112034
-0.000304669
0.000346723
-0.000284034
0.00157654
0.000312989
-0.000285207
0.0016528
0.00110812
-0.000292626
0.00187966
0.00105399
-0.000268296
0.00203775
9.14302e-05
-0.000101536
0.00216991
0.000337652
-0.00023752
0.0017213
0.000874829
-7.90547e-05
0.00148456
0.00107988
-7.63018e-05
0.00185756
0.000569803
-0.000299525
0.0020097
0.000208197
-0.00023806
0.00192774
-0.00017126
-0.000191503
0.00194957
0.000410628
-0.000126242
0.00188953
0.00109732
-6.93785e-05
0.00168273
0.0013987
-9.17732e-05
0.0018737
0.00114173
9.85974e-05
0.00194519
0.000777366
6.19928e-06
0.00170392
0.000881472
-0.000145042
0.00184404
-0.000140796
-0.000152468
0.00197581
-0.000293609
-0.000170272
0.0018153
0.000775929
-7.71721e-05
0.0015866
0.001464
-0.0002181
0.00101184
0.00135092
-0.00033191
0.00110555
-0.000212862
-0.000429433
0.00168983
-0.000707209
-0.000302292
0.00179123
-0.000249692
-0.000234667
0.00195597
0.000454656
-0.000217486
0.002267
0.000830005
-0.00013387
0.00225018
0.000502048
-3.01914e-05
0.00191599
0.000123799
-0.000136662
0.00178605
0.000922466
-0.000226329
0.00162819
0.00110358
5.58009e-05
0.00184869
-3.48025e-06
-0.000231411
0.00233149
0.000961029
-0.00015747
0.00206524
0.00112151
5.13477e-05
0.0019501
-0.000188642
-0.000229129
0.00202235
0.00083998
-2.02507e-05
0.00157337
0.00039242
-3.23263e-05
0.00150369
-0.000547956
-0.000181422
0.0017306
0.000796198
-7.30583e-05
0.0017272
0.00115754
-4.83228e-05
0.000573451
-0.000166339
0.00149621
0.000532432
-0.000247117
0.00156526
0.0011751
-0.000262202
0.0015518
0.00107631
-0.000237191
0.00149027
0.000211035
-0.000126174
0.00160924
0.000158427
-0.000324852
0.00152097
0.00090866
-0.000272878
0.00125073
0.00136803
-2.05376e-05
0.0014908
0.000522359
-0.000211206
0.00186423
-0.000122819
-0.000163521
0.00200036
-0.0003228
-9.30794e-05
0.00206706
0.000291281
-7.84455e-05
0.00183801
0.00103203
-4.59484e-05
0.00182836
0.00135083
-4.99193e-05
0.0019848
0.000904772
8.05027e-05
0.001736
0.00080868
1.45972e-05
0.00142625
0.00109846
-5.95594e-05
0.00144832
-0.000283163
-8.6822e-05
0.0015891
-0.000579934
-0.000113816
0.00146744
0.00102115
-0.000166014
0.00137
0.00187258
-0.0003584
0.00119235
0.00158046
-0.000255109
0.00110525
3.02661e-05
-0.000359901
0.00148734
-0.000808436
-0.000431909
0.00169365
-0.000386596
-0.000392241
0.00182247
0.00034941
-0.000326737
0.00202844
0.000599427
-0.000134868
0.00200259
0.000450711
-1.47655e-05
0.00173175
0.000445006
-5.09529e-05
0.00174703
0.00087371
-0.00019327
0.00168482
0.000956325
9.17447e-05
0.00160118
0.000219789
-0.000207651
0.0019921
0.000683486
-0.000244288
0.00178716
0.000973387
0.000126914
0.00163117
-0.000161662
-0.000124705
0.00175448
0.000785652
-2.06274e-05
0.00136343
0.000715032
-1.582e-05
0.00130672
-0.000361685
-0.000264162
0.00149546
0.000757795
-0.000121017
0.00155214
0.00119185
-7.42393e-05
0.0007075
-0.000116619
0.00143206
0.000747407
-0.000100792
0.00141885
0.00131401
-0.000284362
0.00153509
0.00107808
-0.000256104
0.00139441
0.000468728
-9.75935e-05
0.00136686
9.23502e-05
-0.000147934
0.0014501
0.000756571
-0.000324962
0.0014249
0.00137886
-0.000137927
0.0016696
0.000329418
-7.15332e-05
0.0018232
-0.000285294
-7.07415e-05
0.00166692
-0.000206661
-5.62951e-05
0.00164821
0.000203262
-8.16084e-05
0.00152674
0.000955679
-4.97651e-05
0.00158132
0.00125724
2.54824e-05
0.00177418
0.000663585
2.24266e-05
0.00168368
0.000785859
-3.83325e-05
0.00156869
0.00125935
-0.000132349
0.001579
-0.000361951
-0.000118168
0.00144154
-0.000670647
-5.22613e-05
0.00128323
0.00121394
-0.000117729
0.00137326
0.00222406
-0.000332202
0.00128052
0.00173616
-0.000139433
0.0011563
0.00016765
-0.000164787
0.00136504
-0.000814079
-0.000244
0.00162397
-0.000516012
-0.000343783
0.00169411
0.000389992
-0.000370338
0.00164151
0.000703339
-0.000174162
0.00172851
0.000374184
-6.81446e-05
0.00153289
0.000622213
-6.68005e-05
0.00146291
0.000785687
-0.000117885
0.00153432
0.000761535
1.84888e-05
0.00142428
0.000394004
-0.000130046
0.00182915
0.000190612
-0.000128109
0.00181142
0.000672337
0.000108379
0.00157423
-6.4622e-05
-6.5069e-05
0.00165468
0.000606191
2.98806e-05
0.00131878
0.00105361
-3.87398e-05
0.00130861
-0.00012679
-0.000307404
0.00145765
0.000722837
-4.04202e-05
0.00147617
0.00132325
-7.657e-05
0.0006876
-0.000113116
0.00135385
0.000929098
-6.59351e-05
0.00140488
0.0013392
-0.000219204
0.00157814
0.00104091
-0.000189936
0.00136317
0.000711864
-9.11827e-05
0.00137689
-4.0764e-05
-7.13841e-05
0.00155278
0.000566277
-0.000223121
0.00159361
0.00135884
-0.000132989
0.00181388
7.05639e-05
8.72736e-06
0.0018017
-0.000309634
-1.66809e-05
0.00141623
0.000167571
-6.06416e-05
0.00127036
0.000323006
-0.000100566
0.00127626
0.000927332
-0.000112988
0.00127023
0.00123351
5.10997e-05
0.00141
0.000502431
-9.45902e-06
0.00144396
0.000671464
-0.000129284
0.00159848
0.00116028
-0.000162356
0.00157773
-0.000418757
-1.85195e-05
0.00126368
-0.000618141
-5.98679e-05
0.00104996
0.00139716
-0.000119927
0.00116694
0.00248357
-0.000261591
0.00135367
0.00159332
-8.57353e-05
0.00142494
4.09455e-05
-7.98256e-07
0.00148099
-0.00078445
-3.63218e-05
0.00151191
-0.000374606
-0.000265147
0.00151939
0.000541957
-0.000348925
0.00137546
0.000923655
-0.000142002
0.00138451
0.000318885
-9.26871e-05
0.00141524
0.000525113
-3.32182e-05
0.00148161
0.000569076
-2.30461e-05
0.00143261
0.000721125
7.1817e-05
0.00135513
0.000431948
-5.49903e-05
0.0016273
-0.000182742
-8.13805e-05
0.00141675
0.000716546
1.89092e-05
0.00113815
0.000117838
-0.000158934
0.00136143
0.000416298
-8.73096e-05
0.00125559
0.00131766
-0.000146815
0.00115802
0.000189732
-0.000355856
0.00120981
0.000742463
-0.000150815
0.00131424
0.00123338
-7.7723e-05
0.000536772
-6.68522e-05
0.00122849
0.000979376
-9.78487e-05
0.0013897
0.00117821
-0.000133217
0.00143894
0.00109339
-0.000160806
0.00128642
0.000812583
-8.03049e-05
0.00111968
-8.21483e-05
-5.86922e-05
0.00120106
0.000551344
-0.000318522
0.00145577
0.00113092
-0.00018865
0.00167398
-0.000196342
-4.08447e-05
0.00158861
-0.000281805
-3.34398e-05
0.00112533
0.000573547
-6.42662e-05
0.00099212
0.000443254
-0.000115525
0.00112695
0.000892073
-0.000105162
0.00115444
0.00113896
3.3058e-05
0.00126691
0.000278723
5.35875e-05
0.00132188
0.000612622
-0.00021061
0.00133114
0.00113423
-0.000194904
0.00122306
-0.000473239
2.58552e-05
0.00116002
-0.000766129
-9.6239e-05
0.000916082
0.00165564
-0.000196089
0.00107549
0.00250851
-0.000133645
0.00144047
0.00121922
-5.54464e-05
0.00140217
-7.58215e-05
1.80338e-05
0.00143307
-0.000833894
-0.00010681
0.00134412
-0.00014307
-0.000252305
0.00106912
0.000929602
-0.000271306
0.000853597
0.00125757
-0.000176847
0.00105767
0.000127163
-0.000156813
0.00127533
0.000186476
-5.79297e-05
0.00118868
0.000561314
-9.1451e-05
0.00123293
0.000595304
-1.20523e-05
0.00131809
0.000291991
-3.33482e-05
0.001353
-0.000293279
-0.000109736
0.00115686
0.000800626
-3.76464e-05
0.0010005
0.000223884
-0.000128348
0.00125113
0.000227255
-0.00011294
0.00120745
0.00146031
-2.84707e-05
0.00110271
0.00043687
-0.000169964
0.00121707
0.000598569
-4.28023e-05
0.00124602
0.00107464
-1.35032e-05
0.000529987
-7.46747e-05
0.00120497
0.000954385
-6.25633e-05
0.00126943
0.00111535
-0.000116907
0.00118017
0.00128906
-0.000122173
0.00129981
0.000545611
-6.97785e-05
0.0013125
-0.0003089
2.2831e-05
0.00113552
0.000778417
-0.000258426
0.00127128
0.000878284
-0.000124324
0.00139789
-0.000323342
-0.000122672
0.0013004
-0.000182719
-7.7469e-05
0.00112664
0.000631415
-5.5783e-05
0.00107297
0.000438187
-0.000146977
0.00103165
0.000981576
-1.43862e-05
0.0010548
0.000964412
2.16267e-05
0.00111451
8.65741e-05
-4.19466e-05
0.00115121
0.000629991
-0.000222532
0.00103059
0.00122372
-0.000183532
0.00109366
-0.000661306
7.21515e-06
0.00125904
-0.00102229
-5.16704e-05
0.00099022
0.00193797
-7.40826e-05
0.00108025
0.00240214
-6.11808e-05
0.0012781
0.000995121
-0.000146095
0.00121757
-0.000145878
-1.59955e-05
0.00121016
-0.000905263
-4.17105e-05
0.00115433
3.48404e-05
-0.000232689
0.00100413
0.00120077
-0.000216563
0.00113554
0.00106097
-1.21577e-05
0.00134579
-0.000157106
3.68969e-05
0.00107246
0.000423477
-0.000106669
0.000913435
0.000668069
-0.000123363
0.00114498
0.0002929
-5.50153e-05
0.00123161
0.000255995
-0.000141139
0.00118245
-0.0002247
-0.000171345
0.00102672
0.000934648
-0.00014388
0.000967175
0.00023684
-0.000141758
0.00101297
0.000146638
-5.87844e-05
0.000962958
0.00153439
-1.45817e-05
0.000909365
0.000509372
-5.89611e-05
0.00105367
0.000393462
-0.000127166
0.00124159
0.000686528
-1.94494e-05
0.000412716
2.87088e-05
0.00114674
0.000864155
-0.000107881
0.00109489
0.00121171
-0.000101067
0.00117044
0.00133583
-0.000103089
0.00115835
0.000292164
-2.68703e-05
0.000922339
-0.000301173
-1.91653e-05
0.000922371
0.000801002
-0.000216956
0.00113944
0.000516467
-7.47419e-05
0.00114567
-0.000301092
-0.000136298
0.00106169
-0.000104749
-6.06005e-05
0.00100852
0.000549991
-6.83522e-05
0.00102191
0.000347308
-0.000118419
0.000971914
0.00105854
-4.51979e-05
0.000867704
0.000875538
1.78156e-05
0.000913022
-5.01075e-05
-0.000106968
0.00103268
0.000573725
-0.000177611
0.00109371
0.00116486
-0.000203734
0.00111649
-0.000656831
-9.82563e-05
0.00104493
-0.00084265
-0.000128281
0.00089037
0.00215168
-8.88003e-05
0.00107092
0.00209459
-1.51699e-05
0.00118504
0.000736926
-5.16033e-05
0.00114972
-0.000286561
-2.71233e-05
0.00114135
-0.000921489
-9.36813e-06
0.000952257
0.000342611
-0.000182844
0.000849075
0.00136329
-0.000110611
0.00111705
0.000639255
2.98064e-05
0.00137096
-0.00052804
3.08531e-05
0.00116353
0.000600094
-6.45912e-05
0.000945742
0.000823011
-7.4927e-05
0.000963063
0.000152303
-6.14962e-05
0.000970592
0.000277657
-0.000157152
0.000960337
-0.000144145
-0.000227313
0.000832468
0.00108726
-0.000165298
0.000800733
0.000271582
-0.000164047
0.000855064
4.78709e-05
-2.35622e-05
0.000972585
0.00141138
-1.94427e-05
0.000980732
0.000453706
-2.31645e-05
0.000989748
0.000244568
-4.00977e-05
0.00105052
0.000391774
2.3418e-05
0.000299664
-4.50708e-05
0.00107032
0.000705069
-0.000111304
0.000954341
0.0012905
-2.08282e-05
0.000863085
0.00146244
-5.5256e-05
0.00102817
-5.57286e-05
-1.63444e-05
0.000965653
-0.000338449
-6.19445e-05
0.000855739
0.000847002
-0.000108982
0.000872422
0.000403914
-9.55179e-05
0.000986208
-0.000388977
-0.000121057
0.000958183
-5.44527e-05
-6.92891e-05
0.000836143
0.000509006
-3.27054e-06
0.000881092
0.000246492
-9.99532e-05
0.000864863
0.00112314
-0.000129833
0.000763866
0.000816383
2.37322e-05
0.0008552
-0.000157684
-0.000185631
0.00101716
0.000439943
-0.000179285
0.00104115
0.0010295
-0.000116658
0.00102378
-0.000587336
-0.00015338
0.000950083
-0.000632941
-0.00011008
0.00085427
0.00228379
-0.000108881
0.00100623
0.0017809
7.60163e-06
0.00099227
0.000547326
-2.29195e-05
0.000881563
-0.000412585
9.18695e-05
0.000965935
-0.000951325
-5.53471e-05
0.000914735
0.000643064
-0.000202316
0.000823026
0.00139607
2.56539e-05
0.000834258
0.000448508
3.65575e-05
0.000957059
-0.000691979
-0.000155849
0.000993498
0.000534677
-4.66754e-05
0.000877893
0.000862562
-4.30464e-05
0.000832199
7.24802e-05
-6.79026e-05
0.000770095
0.00023368
-8.1631e-05
0.000726499
-0.00013535
-0.000129092
0.000745779
0.00106281
-8.4405e-05
0.000767766
0.000249308
-0.000180866
0.000740727
0.000123641
-0.000145251
0.0007609
0.00135004
1.50548e-05
0.000860983
0.000252651
-0.000125725
0.000959036
1.24291e-05
-2.55096e-05
0.00101356