/*--------------------------------*- C++ -*----------------------------------*\
  =========                 |
  \\      /  F ield         | OpenFOAM: The Open Source CFD Toolbox
   \\    /   O peration     | Website:  https://openfoam.org
    \\  /    A nd           | Version:  10
     \\/     M anipulation  |
\*---------------------------------------------------------------------------*/
FoamFile
{
    format      ascii;
    class       volScalarField;
    location    "5";
    object      pPrime2Mean;
}
// * * * * * * * * * * * * * * * * * * * * * * * * * * * * * * * * * * * * * //

dimensions      [0 4 -4 0 0 0 0];

internalField   nonuniform List<scalar> 
25600
(
5.14156e-07
5.23991e-07
9.1685e-07
1.90696e-06
4.33474e-07
8.74383e-07
5.44331e-07
9.35541e-07
8.51982e-07
5.15149e-07
6.12592e-07
9.79941e-07
4.10721e-07
5.57438e-07
6.03271e-07
6.94997e-07
5.45802e-07
5.31687e-07
1.12686e-06
4.3758e-07
6.42087e-07
8.59483e-07
5.94335e-07
8.75887e-07
5.18309e-07
5.68758e-07
5.63792e-07
5.75351e-07
7.59096e-07
6.36682e-07
6.64355e-07
5.63387e-07
5.71753e-07
1.10532e-06
5.03477e-07
5.32209e-07
8.0804e-07
6.51884e-07
9.43738e-07
6.65258e-07
5.20437e-07
5.34432e-07
9.27702e-07
1.92095e-06
4.38109e-07
8.8984e-07
5.56534e-07
9.50821e-07
8.68454e-07
5.24822e-07
6.2376e-07
9.92913e-07
4.15409e-07
5.68314e-07
6.1425e-07
7.10651e-07
5.53409e-07
5.384e-07
1.13747e-06
4.44174e-07
6.57377e-07
8.58083e-07
5.98175e-07
8.95169e-07
5.24046e-07
5.76659e-07
5.73137e-07
5.85447e-07
7.73853e-07
6.53889e-07
6.74916e-07
5.70623e-07
5.77662e-07
1.12636e-06
5.09792e-07
5.38494e-07
8.30632e-07
6.64187e-07
9.51082e-07
6.78813e-07
5.32271e-07
5.29396e-07
9.29402e-07
1.92892e-06
4.47076e-07
9.13489e-07
5.80039e-07
9.73783e-07
8.87005e-07
5.42685e-07
6.49578e-07
1.02201e-06
4.28523e-07
5.90869e-07
6.3712e-07
7.66097e-07
5.75589e-07
5.4967e-07
1.16503e-06
4.52861e-07
6.84664e-07
8.64258e-07
5.98545e-07
9.47527e-07
5.3143e-07
5.88274e-07
5.82683e-07
6.06466e-07
7.94286e-07
6.99636e-07
6.93222e-07
5.93949e-07
5.93657e-07
1.1583e-06
5.16039e-07
5.49687e-07
8.23347e-07
6.91462e-07
9.60805e-07
6.98482e-07
5.5129e-07
5.28026e-07
9.4371e-07
2.01074e-06
4.55149e-07
9.19678e-07
5.99756e-07
9.80654e-07
9.02324e-07
5.71322e-07
6.84322e-07
9.98114e-07
4.40028e-07
6.03786e-07
6.45992e-07
8.43083e-07
6.16849e-07
5.59004e-07
1.19156e-06
4.74959e-07
7.2578e-07
8.89131e-07
5.93607e-07
1.02016e-06
5.37232e-07
6.00441e-07
5.95625e-07
6.26088e-07
8.2325e-07
7.46937e-07
7.18454e-07
6.07881e-07
6.03763e-07
1.13363e-06
5.30079e-07
5.6544e-07
8.05665e-07
7.12699e-07
9.78023e-07
7.09335e-07
5.68103e-07
5.18697e-07
9.43898e-07
2.04892e-06
4.55415e-07
8.64105e-07
6.22795e-07
9.67417e-07
8.7794e-07
6.08405e-07
6.92939e-07
9.19568e-07
4.49222e-07
6.3273e-07
6.20473e-07
9.19778e-07
6.39463e-07
5.53208e-07
1.10831e-06
4.72657e-07
7.66173e-07
8.40314e-07
5.81034e-07
1.05863e-06
5.34868e-07
5.96498e-07
6.11829e-07
6.20296e-07
8.95169e-07
7.60405e-07
7.59312e-07
6.25851e-07
6.04964e-07
1.09432e-06
5.34681e-07
5.72671e-07
8.2361e-07
7.22624e-07
1.02556e-06
7.13798e-07
5.70786e-07
5.0352e-07
9.3533e-07
1.91753e-06
4.41031e-07
8.03261e-07
6.3309e-07
9.28777e-07
8.81432e-07
6.13352e-07
7.17136e-07
7.93188e-07
4.41024e-07
6.41596e-07
5.8149e-07
9.3973e-07
6.99152e-07
5.51154e-07
1.01165e-06
4.83953e-07
7.66446e-07
7.44511e-07
5.43901e-07
1.06203e-06
5.155e-07
5.78189e-07
6.31724e-07
5.86287e-07
9.0465e-07
7.29865e-07
7.0249e-07
6.07311e-07
5.80622e-07
9.84012e-07
5.14197e-07
5.57146e-07
8.46516e-07
6.97663e-07
9.55837e-07
7.11209e-07
5.01768e-07
4.42568e-07
9.19121e-07
1.52771e-06
3.93768e-07
6.95122e-07
5.81179e-07
8.07961e-07
9.66616e-07
5.28305e-07
6.83519e-07
6.10947e-07
3.86243e-07
6.1228e-07
4.76607e-07
7.93796e-07
7.27245e-07
5.21388e-07
7.86878e-07
4.13746e-07
6.17595e-07
6.1472e-07
4.70093e-07
8.7738e-07
4.4105e-07
4.99768e-07
6.03384e-07
5.06033e-07
7.80454e-07
6.67814e-07
6.12508e-07
5.1973e-07
5.20282e-07
7.92526e-07
4.45953e-07
4.97406e-07
6.35787e-07
5.99753e-07
7.94993e-07
6.48979e-07
3.98651e-07
3.52093e-07
8.34657e-07
1.29981e-06
3.0921e-07
5.49148e-07
4.53889e-07
6.53431e-07
9.19076e-07
3.96432e-07
6.33047e-07
4.83496e-07
3.12796e-07
5.53346e-07
3.70528e-07
6.18578e-07
6.70682e-07
4.44568e-07
5.72867e-07
3.22295e-07
4.65467e-07
5.27472e-07
3.49925e-07
6.45622e-07
3.38459e-07
3.89035e-07
4.87594e-07
3.97278e-07
5.77779e-07
5.48186e-07
4.99066e-07
3.90501e-07
4.07842e-07
5.66767e-07
3.64558e-07
4.12415e-07
4.53638e-07
4.82698e-07
6.806e-07
4.78584e-07
2.90478e-07
2.45866e-07
6.58371e-07
1.03436e-06
2.29389e-07
3.80195e-07
3.16644e-07
4.86237e-07
6.41974e-07
2.57633e-07
4.69745e-07
3.19384e-07
2.18098e-07
3.75063e-07
2.45506e-07
3.95124e-07
5.09786e-07
3.07471e-07
3.92747e-07
2.32031e-07
3.68138e-07
4.58904e-07
2.37016e-07
4.06295e-07
2.30475e-07
2.69266e-07
2.97434e-07
2.83014e-07
3.4702e-07
3.65651e-07
3.76626e-07
2.71338e-07
2.89054e-07
3.62783e-07
2.62771e-07
2.98872e-07
3.00896e-07
3.38044e-07
5.21273e-07
3.34465e-07
1.93628e-07
1.67381e-07
4.8451e-07
8.42588e-07
1.55302e-07
2.4567e-07
1.96827e-07
3.26123e-07
4.05224e-07
1.55573e-07
3.13572e-07
2.16687e-07
1.47153e-07
2.39486e-07
1.58131e-07
2.57766e-07
3.41041e-07
1.98061e-07
2.78634e-07
1.53171e-07
2.81984e-07
3.95841e-07
1.54085e-07
2.46629e-07
1.45215e-07
1.71068e-07
1.62396e-07
1.88752e-07
2.2042e-07
2.15632e-07
2.48587e-07
1.71033e-07
1.84361e-07
2.14914e-07
1.69859e-07
1.89365e-07
1.90701e-07
2.24325e-07
3.56472e-07
2.32342e-07
1.18062e-07
9.99619e-08
3.38311e-07
6.19734e-07
1.04003e-07
1.46649e-07
1.1145e-07
2.14968e-07
2.43651e-07
8.99198e-08
1.83864e-07
1.23819e-07
8.87367e-08
1.31906e-07
9.62403e-08
1.64789e-07
2.20595e-07
1.20944e-07
1.78925e-07
9.57667e-08
2.07422e-07
2.98213e-07
1.04205e-07
1.40052e-07
8.59692e-08
1.02163e-07
9.1346e-08
1.12901e-07
1.45595e-07
1.21163e-07
1.55229e-07
1.03039e-07
1.11293e-07
1.29861e-07
1.04556e-07
1.16057e-07
1.14494e-07
1.46633e-07
2.47524e-07
1.51547e-07
7.02225e-08
6.07132e-08
2.34103e-07
4.16134e-07
6.93388e-08
8.37659e-08
6.21227e-08
1.41366e-07
1.51814e-07
5.17957e-08
1.04758e-07
7.29577e-08
5.36387e-08
7.54727e-08
5.65236e-08
1.00141e-07
1.26173e-07
7.2465e-08
1.05717e-07
5.83759e-08
1.47158e-07
2.08553e-07
7.46498e-08
8.1088e-08
4.99646e-08
5.91953e-08
5.21842e-08
6.56151e-08
8.53329e-08
6.4558e-08
8.94427e-08
5.93418e-08
6.48965e-08
7.7923e-08
6.20672e-08
6.79824e-08
6.26431e-08
9.53586e-08
1.71183e-07
9.47446e-08
3.94445e-08
3.68993e-08
1.61357e-07
2.73283e-07
4.72004e-08
4.68607e-08
3.55355e-08
9.10948e-08
9.63588e-08
2.9577e-08
5.72387e-08
4.18209e-08
3.20844e-08
4.35955e-08
3.36108e-08
5.92652e-08
6.96852e-08
4.2644e-08
6.22505e-08
3.60988e-08
1.02265e-07
1.43688e-07
5.42937e-08
4.67761e-08
2.88511e-08
3.39831e-08
3.10049e-08
3.87091e-08
4.90845e-08
3.45504e-08
5.02931e-08
3.41493e-08
3.74031e-08
4.64455e-08
3.62921e-08
3.98469e-08
3.40209e-08
6.40222e-08
1.16224e-07
5.96496e-08
2.21198e-08
2.36725e-08
1.11689e-07
1.78331e-07
3.32842e-08
2.57377e-08
2.11956e-08
5.87212e-08
6.21737e-08
1.74901e-08
3.11809e-08
2.41916e-08
1.94132e-08
2.57906e-08
2.08224e-08
3.5347e-08
3.88332e-08
2.5668e-08
3.56603e-08
2.33159e-08
7.19449e-08
9.90377e-08
3.98479e-08
2.71634e-08
1.72307e-08
2.00114e-08
1.94201e-08
2.33126e-08
2.89237e-08
1.90113e-08
2.81092e-08
1.95888e-08
2.16267e-08
2.79628e-08
2.18206e-08
2.37897e-08
1.94704e-08
4.44844e-08
7.90158e-08
3.9269e-08
1.27933e-08
1.63602e-08
7.75607e-08
1.16129e-07
2.44929e-08
1.43577e-08
1.34121e-08
3.81926e-08
4.06191e-08
1.09223e-08
1.68238e-08
1.42545e-08
1.22406e-08
1.61824e-08
1.35599e-08
2.13422e-08
2.18373e-08
1.58706e-08
2.05599e-08
1.61724e-08
5.07649e-08
6.78243e-08
2.90984e-08
1.60901e-08
1.07134e-08
1.23368e-08
1.27253e-08
1.45441e-08
1.7411e-08
1.09766e-08
1.58274e-08
1.13212e-08
1.28531e-08
1.73339e-08
1.3637e-08
1.49134e-08
1.22844e-08
3.19351e-08
5.41015e-08
2.6829e-08
8.04421e-09
1.22444e-08
5.38147e-08
7.54256e-08
1.83857e-08
8.28178e-09
8.96405e-09
2.51754e-08
2.69272e-08
7.35859e-09
9.14315e-09
8.55345e-09
7.9553e-09
1.06463e-08
9.12873e-09
1.2882e-08
1.22885e-08
9.8798e-09
1.20397e-08
1.15932e-08
3.55156e-08
4.5994e-08
2.09037e-08
9.76208e-09
6.96887e-09
7.86836e-09
8.60802e-09
9.38816e-09
1.07236e-08
6.63382e-09
8.99679e-09
6.66397e-09
7.90303e-09
1.11449e-08
8.94632e-09
9.80693e-09
8.66683e-09
2.33891e-08
3.73575e-08
1.90292e-08
5.76078e-09
9.79805e-09
3.728e-08
4.90107e-08
1.40225e-08
5.21909e-09
6.35534e-09
1.67648e-08
1.80338e-08
5.31391e-09
5.05972e-09
5.21239e-09
5.27537e-09
7.3279e-09
6.28461e-09
7.75285e-09
6.99169e-09
6.1877e-09
7.26685e-09
8.44084e-09
2.43843e-08
3.07251e-08
1.46452e-08
6.05122e-09
4.66191e-09
5.27396e-09
5.92902e-09
6.18604e-09
6.76556e-09
4.18738e-09
5.12575e-09
3.96543e-09
5.02868e-09
7.42582e-09
6.22431e-09
6.96659e-09
6.85985e-09
1.74098e-08
2.59819e-08
1.39319e-08
4.72937e-09
8.15577e-09
2.57889e-08
3.1946e-08
1.07878e-08
3.70597e-09
4.74194e-09
1.13534e-08
1.2269e-08
4.09735e-09
2.96962e-09
3.24804e-09
3.49166e-09
5.13008e-09
4.31821e-09
4.59504e-09
3.9322e-09
3.76953e-09
4.42219e-09
6.04481e-09
1.62222e-08
2.00601e-08
9.91397e-09
3.78747e-09
3.16218e-09
3.61249e-09
4.1131e-09
4.1021e-09
4.34079e-09
2.74306e-09
2.94723e-09
2.37782e-09
3.36438e-09
5.15665e-09
4.59608e-09
5.31698e-09
5.76331e-09
1.30761e-08
1.82438e-08
1.05013e-08
4.28924e-09
6.89427e-09
1.78734e-08
2.09883e-08
8.3413e-09
3.00043e-09
3.73188e-09
7.84035e-09
8.4776e-09
3.2994e-09
1.9394e-09
2.0927e-09
2.2968e-09
3.59062e-09
2.97163e-09
2.6933e-09
2.1983e-09
2.25873e-09
2.73407e-09
4.19574e-09
1.03848e-08
1.26695e-08
6.4601e-09
2.3638e-09
2.15624e-09
2.50877e-09
2.89669e-09
2.75928e-09
2.82963e-09
1.84979e-09
1.70329e-09
1.44534e-09
2.36992e-09
3.76165e-09
3.62729e-09
4.37375e-09
5.0422e-09
9.96204e-09
1.30177e-08
8.11537e-09
4.02226e-09
5.88722e-09
1.24757e-08
1.39652e-08
6.4724e-09
2.66247e-09
3.08001e-09
5.54137e-09
5.96185e-09
2.74628e-09
1.47102e-09
1.4353e-09
1.52274e-09
2.50821e-09
2.082e-09
1.59461e-09
1.24545e-09
1.3406e-09
1.68679e-09
2.77859e-09
6.32478e-09
7.66364e-09
4.02695e-09
1.44924e-09
1.47351e-09
1.76859e-09
2.06607e-09
1.8951e-09
1.89068e-09
1.29513e-09
1.03229e-09
9.40167e-10
1.79141e-09
2.91851e-09
3.0542e-09
3.83495e-09
4.48594e-09
7.68626e-09
9.46936e-09
6.40744e-09
3.75978e-09
4.9899e-09
8.79215e-09
9.47544e-09
5.05022e-09
2.46643e-09
2.62909e-09
4.0298e-09
4.27459e-09
2.31337e-09
1.25225e-09
1.07368e-09
1.02817e-09
1.74617e-09
1.49722e-09
9.96159e-10
7.60313e-10
8.0576e-10
1.02509e-09
1.74013e-09
3.62114e-09
4.3819e-09
2.3776e-09
8.62406e-10
1.00913e-09
1.27542e-09
1.51042e-09
1.36719e-09
1.3312e-09
9.71128e-10
6.97297e-10
7.06288e-10
1.47336e-09
2.41444e-09
2.69948e-09
3.48225e-09
4.01807e-09
5.99835e-09
7.06476e-09
5.15366e-09
3.45459e-09
4.20436e-09
6.27612e-09
6.57177e-09
3.9679e-09
2.30044e-09
2.29631e-09
3.02523e-09
3.14543e-09
1.96088e-09
1.13676e-09
8.80921e-10
7.37052e-10
1.22396e-09
1.12961e-09
7.02004e-10
5.49828e-10
5.24692e-10
6.3153e-10
1.03107e-09
1.91097e-09
2.3347e-09
1.32785e-09
5.11991e-10
7.0504e-10
9.55848e-10
1.15567e-09
1.04849e-09
1.02227e-09
8.06029e-10
5.71468e-10
6.45056e-10
1.32105e-09
2.13042e-09
2.47624e-09
3.22135e-09
3.61014e-09
4.73162e-09
5.4135e-09
4.21781e-09
3.07426e-09
3.52019e-09
4.56212e-09
4.67974e-09
3.15049e-09
2.12962e-09
2.04047e-09
2.34715e-09
2.38124e-09
1.6713e-09
1.05665e-09
7.72254e-10
5.85039e-10
8.72891e-10
8.84386e-10
5.65579e-10
4.77123e-10
3.87776e-10
4.08381e-10
5.85927e-10
9.03651e-10
1.12639e-09
7.00027e-10
3.21997e-10
5.26532e-10
7.55574e-10
9.39276e-10
8.63449e-10
8.71882e-10
7.57611e-10
5.73596e-10
6.89354e-10
1.27699e-09
1.97026e-09
2.32075e-09
2.9825e-09
3.25217e-09
3.79412e-09
4.26418e-09
3.51016e-09
2.68596e-09
2.93883e-09
3.40238e-09
3.43321e-09
2.53218e-09
1.92102e-09
1.82601e-09
1.88109e-09
1.85758e-09
1.43723e-09
9.84438e-10
7.03019e-10
5.15459e-10
6.47554e-10
7.13052e-10
5.06338e-10
4.58773e-10
3.42751e-10
3.06311e-10
3.5254e-10
3.75397e-10
4.74329e-10
3.62146e-10
2.40988e-10
4.40671e-10
6.4198e-10
8.15015e-10
7.64906e-10
8.15245e-10
7.87136e-10
6.48373e-10
7.88767e-10
1.29371e-09
1.87918e-09
2.19522e-09
2.73711e-09
2.93874e-09
3.11378e-09
3.43824e-09
2.97377e-09
2.3349e-09
2.46316e-09
2.62707e-09
2.60924e-09
2.07081e-09
1.70248e-09
1.63867e-09
1.554e-09
1.4917e-09
1.24938e-09
9.14335e-10
6.56309e-10
4.88431e-10
5.15006e-10
5.85278e-10
4.67248e-10
4.40049e-10
3.46738e-10
2.65212e-10
2.66283e-10
1.61739e-10
1.75703e-10
2.14204e-10
2.26636e-10
4.16217e-10
5.94774e-10
7.57368e-10
7.2777e-10
8.07745e-10
8.63551e-10
7.63898e-10
9.12513e-10
1.34556e-09
1.82641e-09
2.08323e-09
2.4983e-09
2.66105e-09
2.6304e-09
2.83562e-09
2.56589e-09
2.04411e-09
2.08697e-09
2.11539e-09
2.06963e-09
1.73301e-09
1.49842e-09
1.46906e-09
1.32254e-09
1.2275e-09
1.09602e-09
8.45238e-10
6.22031e-10
4.81028e-10
4.46593e-10
4.90899e-10
4.31599e-10
4.123e-10
3.60003e-10
2.56448e-10
2.56401e-10
1.35583e-10
9.1718e-11
1.85216e-10
2.57765e-10
4.31309e-10
6.01098e-10
7.48781e-10
7.36407e-10
8.25727e-10
9.57976e-10
9.02928e-10
1.04024e-09
1.41067e-09
1.78473e-09
1.97489e-09
2.27633e-09
2.41446e-09
2.2898e-09
2.39923e-09
2.25259e-09
1.81466e-09
1.80225e-09
1.77772e-09
1.72077e-09
1.49123e-09
1.32598e-09
1.31882e-09
1.16217e-09
1.03176e-09
9.69236e-10
7.81738e-10
5.86498e-10
4.81918e-10
4.16303e-10
4.21513e-10
3.98912e-10
3.78749e-10
3.65164e-10
2.70983e-10
2.60892e-10
1.90277e-10
1.30219e-10
2.24921e-10
3.18721e-10
4.68551e-10
6.44995e-10
7.77499e-10
7.80057e-10
8.66142e-10
1.05325e-09
1.05151e-09
1.15504e-09
1.4727e-09
1.75213e-09
1.87499e-09
2.09454e-09
2.20743e-09
2.05183e-09
2.09062e-09
2.01208e-09
1.64357e-09
1.5971e-09
1.55545e-09
1.4991e-09
1.3306e-09
1.19164e-09
1.19388e-09
1.05446e-09
8.91506e-10
8.65168e-10
7.30498e-10
5.45874e-10
4.80959e-10
4.10719e-10
3.73393e-10
3.72496e-10
3.51193e-10
3.5486e-10
3.01601e-10
2.66022e-10
2.5571e-10
2.27067e-10
2.98828e-10
3.95597e-10
5.2044e-10
7.02347e-10
8.36544e-10
8.53044e-10
9.27308e-10
1.14291e-09
1.19142e-09
1.25064e-09
1.51802e-09
1.73235e-09
1.79023e-09
1.95344e-09
2.04636e-09
1.89201e-09
1.88412e-09
1.83503e-09
1.52355e-09
1.45612e-09
1.41712e-09
1.3634e-09
1.23808e-09
1.10164e-09
1.09829e-09
9.89924e-10
8.02526e-10
7.7557e-10
6.93003e-10
5.07818e-10
4.65479e-10
4.20498e-10
3.41656e-10
3.44196e-10
3.34729e-10
3.36763e-10
3.25701e-10
2.83699e-10
3.08346e-10
3.28808e-10
3.90033e-10
4.79242e-10
5.841e-10
7.5376e-10
9.15733e-10
9.49167e-10
1.00118e-09
1.2241e-09
1.31128e-09
1.33215e-09
1.54147e-09
1.72424e-09
1.73017e-09
1.84217e-09
1.93443e-09
1.8022e-09
1.75979e-09
1.71296e-09
1.43399e-09
1.36783e-09
1.3446e-09
1.29706e-09
1.20254e-09
1.06473e-09
1.03103e-09
9.48192e-10
7.58099e-10
6.94167e-10
6.50693e-10
4.79821e-10
4.24734e-10
4.15048e-10
3.2418e-10
3.08247e-10
3.21498e-10
3.21998e-10
3.27361e-10
3.08531e-10
3.47563e-10
4.01883e-10
4.73803e-10
5.67596e-10
6.55707e-10
8.04483e-10
9.99901e-10
1.05951e-09
1.08327e-09
1.2849e-09
1.40581e-09
1.40028e-09
1.54425e-09
1.715e-09
1.698e-09
1.76084e-09
1.86897e-09
1.79007e-09
1.73835e-09
1.63968e-09
1.2154e-09
1.3015e-09
1.32792e-09
1.29322e-09
1.21572e-09
1.08296e-09
1.00019e-09
9.19022e-10
7.4746e-10
6.29727e-10
5.80052e-10
4.547e-10
3.69485e-10
3.62135e-10
3.04924e-10
2.64634e-10
2.89222e-10
3.07568e-10
3.0523e-10
3.18918e-10
3.80977e-10
4.38244e-10
5.26158e-10
6.55465e-10
7.38847e-10
8.64778e-10
1.08117e-09
1.16513e-09
1.17138e-09
1.32489e-09
1.46108e-09
1.45158e-09
1.53651e-09
1.68712e-09
1.68968e-09
1.71503e-09
1.83829e-09
1.87228e-09
1.99539e-09
1.61244e-09
1.1411e-09
1.39418e-09
1.39598e-09
1.36679e-09
1.29352e-09
1.16438e-09
1.02617e-09
9.10037e-10
7.66385e-10
5.96121e-10
4.99362e-10
4.32929e-10
3.23511e-10
2.79803e-10
2.67977e-10
2.17541e-10
2.39157e-10
2.85288e-10
2.63445e-10
3.03992e-10
4.11015e-10
4.4887e-10
5.60287e-10
7.40486e-10
8.2805e-10
9.49714e-10
1.15919e-09
1.24988e-09
1.25926e-09
1.35765e-09
1.46787e-09
1.48115e-09
1.53303e-09
1.64228e-09
1.69197e-09
1.7133e-09
1.83669e-09
2.01117e-09
3.4079e-09
1.71957e-09
8.14999e-07
5.70629e-07
9.44924e-07
2.58399e-06
8.23328e-07
6.20442e-07
5.77773e-07
7.25025e-07
9.98991e-07
5.53712e-07
5.66147e-07
5.91942e-07
5.53641e-07
6.19374e-07
5.65604e-07
6.91482e-07
5.93023e-07
5.75963e-07
1.22184e-06
5.05156e-07
7.86272e-07
7.6842e-07
6.29827e-07
1.6121e-06
6.25691e-07
7.01996e-07
6.74611e-07
6.30853e-07
1.07736e-06
6.297e-07
6.46164e-07
6.34655e-07
5.88438e-07
8.08076e-07
5.2499e-07
7.63987e-07
6.90601e-07
6.64445e-07
1.87955e-06
5.69994e-07
8.28521e-07
5.772e-07
9.46436e-07
2.61438e-06
8.42013e-07
6.29873e-07
5.8603e-07
7.3336e-07
1.01863e-06
5.58903e-07
5.7325e-07
5.98459e-07
5.59458e-07
6.2608e-07
5.71687e-07
6.98242e-07
6.01438e-07
5.79151e-07
1.22865e-06
5.12073e-07
7.97582e-07
7.72637e-07
6.32692e-07
1.64593e-06
6.35929e-07
7.05532e-07
6.84184e-07
6.34857e-07
1.10068e-06
6.37737e-07
6.53605e-07
6.41126e-07
5.93451e-07
8.21209e-07
5.32079e-07
7.73057e-07
7.01236e-07
6.66834e-07
1.91099e-06
5.76304e-07
8.57285e-07
5.9679e-07
9.54486e-07
2.63823e-06
8.65298e-07
6.506e-07
5.97777e-07
7.44682e-07
1.03939e-06
5.72187e-07
5.86612e-07
6.08365e-07
5.68741e-07
6.33972e-07
5.88802e-07
7.13717e-07
6.199e-07
5.88344e-07
1.25728e-06
5.2356e-07
8.02114e-07
7.68319e-07
6.38646e-07
1.71342e-06
6.54909e-07
7.10499e-07
7.01711e-07
6.46225e-07
1.16267e-06
6.51072e-07
6.66346e-07
6.53449e-07
5.98612e-07
8.43127e-07
5.41593e-07
7.85628e-07
7.24063e-07
6.79145e-07
1.96378e-06
5.89632e-07
9.0685e-07
6.11977e-07
9.60265e-07
2.66418e-06
8.71567e-07
6.64366e-07
6.09831e-07
7.58945e-07
1.05556e-06
5.83237e-07
5.95214e-07
6.14283e-07
5.75938e-07
6.39323e-07
6.07281e-07
7.1862e-07
6.27407e-07
5.85935e-07
1.28358e-06
5.29579e-07
7.96182e-07
7.79807e-07
6.44633e-07
1.77417e-06
6.77741e-07
7.03302e-07
7.19249e-07
6.54187e-07
1.19126e-06
6.60663e-07
6.83497e-07
6.68462e-07
6.04879e-07
8.59034e-07
5.55994e-07
7.85933e-07
7.59652e-07
6.87339e-07
1.95603e-06
6.12951e-07
9.40826e-07
6.13695e-07
9.55706e-07
2.70355e-06
8.67909e-07
6.88326e-07
6.18736e-07
7.60508e-07
1.06314e-06
5.82835e-07
5.96911e-07
6.11693e-07
5.72634e-07
6.38879e-07
6.43145e-07
7.19217e-07
6.42383e-07
5.81898e-07
1.3554e-06
5.33198e-07
8.27547e-07
7.56221e-07
6.27765e-07
1.87262e-06
7.11795e-07
6.7107e-07
7.19642e-07
6.49161e-07
1.13324e-06
6.6131e-07
6.74823e-07
6.69556e-07
5.91765e-07
8.12852e-07
5.60876e-07
7.75262e-07
7.62728e-07
6.89435e-07
1.95969e-06
6.25194e-07
9.2161e-07
5.84734e-07
8.88143e-07
2.66019e-06
8.17509e-07
6.50421e-07
6.04663e-07
7.37806e-07
1.0911e-06
5.58407e-07
5.63373e-07
5.91656e-07
5.44751e-07
6.1045e-07
6.2042e-07
6.70354e-07
5.91988e-07
5.2786e-07
1.36686e-06
4.97939e-07
8.67303e-07
7.12568e-07
5.92934e-07
1.83905e-06
7.13059e-07
6.0392e-07
6.92329e-07
6.09656e-07
9.92494e-07
6.39413e-07
6.71774e-07
6.4174e-07
5.66927e-07
7.56483e-07
5.413e-07
7.10774e-07
7.19095e-07
6.39566e-07
1.89161e-06
6.1547e-07
8.06013e-07
5.00837e-07
7.70223e-07
2.50764e-06
7.94108e-07
5.92803e-07
5.47458e-07
6.68519e-07
9.58725e-07
4.73297e-07
4.8901e-07
5.06467e-07
4.67268e-07
5.25086e-07
5.17624e-07
5.85246e-07
5.38496e-07
4.55516e-07
1.41375e-06
4.45474e-07
7.69682e-07
6.2632e-07
5.15115e-07
1.53559e-06
6.23365e-07
5.1718e-07
5.91259e-07
5.24325e-07
7.62542e-07
5.73723e-07
5.72408e-07
5.39604e-07
4.69686e-07
6.13177e-07
4.79096e-07
6.11064e-07
6.03819e-07
5.73679e-07
1.67917e-06
5.27448e-07
6.19623e-07
4.03295e-07
6.52757e-07
2.11627e-06
6.48828e-07
4.47685e-07
4.17783e-07
5.51124e-07
7.59664e-07
3.85187e-07
3.91226e-07
3.9752e-07
3.72248e-07
4.11524e-07
4.10067e-07
4.73981e-07
4.49193e-07
3.63005e-07
1.39879e-06
3.37803e-07
5.47971e-07
5.13154e-07
4.2908e-07
9.77785e-07
4.91578e-07
4.10743e-07
4.71412e-07
4.18094e-07
5.32893e-07
4.75581e-07
5.00252e-07
4.30562e-07
3.67214e-07
4.58308e-07
3.91154e-07
4.89355e-07
4.59552e-07
4.64986e-07
1.26517e-06
4.22252e-07
4.57256e-07
3.00634e-07
5.38669e-07
1.68016e-06
4.70077e-07
3.35711e-07
3.2233e-07
4.29923e-07
6.32241e-07
2.95326e-07
2.99051e-07
3.07267e-07
2.8331e-07
3.04173e-07
2.90011e-07
3.37468e-07
3.27866e-07
2.76423e-07
1.05573e-06
2.48718e-07
3.8529e-07
3.84074e-07
3.48314e-07
5.80094e-07
3.7373e-07
3.07294e-07
3.63549e-07
3.23302e-07
3.85225e-07
3.55517e-07
3.86095e-07
3.21766e-07
2.73691e-07
3.35292e-07
2.91651e-07
3.66654e-07
3.39221e-07
3.64442e-07
8.35498e-07
3.10431e-07
3.30865e-07
2.06526e-07
4.28292e-07
1.16062e-06
3.26532e-07
2.34044e-07
2.22773e-07
3.02629e-07
4.50657e-07
2.00281e-07
2.12316e-07
2.13679e-07
2.00827e-07
2.12768e-07
1.95649e-07
2.35054e-07
2.23335e-07
2.07732e-07
6.86926e-07
1.70593e-07
2.75204e-07
2.6588e-07
2.66758e-07
3.83278e-07
2.60494e-07
2.20512e-07
2.63851e-07
2.40596e-07
2.78783e-07
2.48872e-07
2.68163e-07
2.2546e-07
1.95116e-07
2.33284e-07
2.01265e-07
2.43325e-07
2.39102e-07
2.72288e-07
5.55746e-07
2.20297e-07
2.10861e-07
1.34139e-07
3.3322e-07
7.98126e-07
2.04722e-07
1.55111e-07
1.43685e-07
2.09462e-07
2.91282e-07
1.32818e-07
1.45755e-07
1.41876e-07
1.3482e-07
1.40802e-07
1.27737e-07
1.58914e-07
1.42831e-07
1.47777e-07
3.97244e-07
1.15885e-07
2.04477e-07
1.9945e-07
1.95409e-07
2.30709e-07
1.61993e-07
1.47542e-07
1.73521e-07
1.69657e-07
1.91737e-07
1.63919e-07
1.75756e-07
1.52049e-07
1.33592e-07
1.55474e-07
1.33856e-07
1.6188e-07
1.60521e-07
1.9551e-07
3.92212e-07
1.54383e-07
1.25247e-07
8.37634e-08
2.51683e-07
5.3368e-07
1.28451e-07
9.87223e-08
8.99404e-08
1.41409e-07
1.90225e-07
8.29205e-08
9.33871e-08
9.07584e-08
8.71644e-08
9.00626e-08
8.10607e-08
1.0464e-07
9.05284e-08
1.0108e-07
2.23059e-07
7.66117e-08
1.53446e-07
1.57142e-07
1.38103e-07
1.39865e-07
9.61695e-08
9.32219e-08
1.08881e-07
1.15595e-07
1.29827e-07
1.04649e-07
1.10968e-07
9.67077e-08
8.73151e-08
9.86969e-08
8.6074e-08
1.02319e-07
1.0253e-07
1.37891e-07
2.63444e-07
1.03746e-07
7.30495e-08
5.28634e-08
1.85186e-07
3.55569e-07
8.32902e-08
6.22207e-08
5.66711e-08
9.62405e-08
1.23997e-07
5.28344e-08
5.91606e-08
5.77937e-08
5.59576e-08
5.65763e-08
5.07997e-08
6.8177e-08
5.61235e-08
6.73999e-08
1.22978e-07
5.13339e-08
1.1641e-07
1.23281e-07
9.74534e-08
8.46796e-08
5.69795e-08
5.94104e-08
6.91534e-08
7.77832e-08
8.83101e-08
6.6925e-08
7.09398e-08
6.07305e-08
5.70886e-08
6.24024e-08
5.48198e-08
6.48311e-08
6.51174e-08
9.81059e-08
1.77145e-07
7.01785e-08
4.12602e-08
3.39729e-08
1.33216e-07
2.34536e-07
5.54073e-08
3.83315e-08
3.59419e-08
6.45584e-08
7.98939e-08
3.33686e-08
3.66446e-08
3.60851e-08
3.54053e-08
3.49921e-08
3.16472e-08
4.34098e-08
3.51951e-08
4.38474e-08
6.65257e-08
3.48732e-08
8.70802e-08
9.63957e-08
6.90851e-08
5.11928e-08
3.37331e-08
3.78473e-08
4.45191e-08
5.23209e-08
6.05236e-08
4.31995e-08
4.47594e-08
3.76326e-08
3.66781e-08
3.90737e-08
3.51381e-08
4.0938e-08
4.11181e-08
6.90688e-08
1.17427e-07
4.73095e-08
2.32375e-08
2.31195e-08
9.44601e-08
1.53234e-07
3.81297e-08
2.34046e-08
2.3426e-08
4.34841e-08
5.19601e-08
2.18596e-08
2.27527e-08
2.27947e-08
2.25223e-08
2.15627e-08
1.95765e-08
2.65999e-08
2.18058e-08
2.77933e-08
3.53253e-08
2.40108e-08
6.38051e-08
7.31975e-08
4.87921e-08
3.09035e-08
2.01413e-08
2.42654e-08
2.92761e-08
3.50921e-08
4.08894e-08
2.82655e-08
2.83987e-08
2.33634e-08
2.35323e-08
2.46864e-08
2.26945e-08
2.64598e-08
2.67779e-08
4.90209e-08
7.7729e-08
3.24631e-08
1.33276e-08
1.65224e-08
6.59442e-08
9.91289e-08
2.69019e-08
1.42541e-08
1.54934e-08
2.91168e-08
3.36754e-08
1.44552e-08
1.39119e-08
1.43015e-08
1.40543e-08
1.30886e-08
1.18622e-08
1.57965e-08
1.34185e-08
1.72265e-08
1.86969e-08
1.662e-08
4.56046e-08
5.35064e-08
3.3969e-08
1.84711e-08
1.19449e-08
1.55669e-08
1.95547e-08
2.3533e-08
2.72392e-08
1.84878e-08
1.79065e-08
1.42999e-08
1.4849e-08
1.5641e-08
1.47504e-08
1.7436e-08
1.80229e-08
3.46924e-08
5.12262e-08
2.2421e-08
8.32456e-09
1.25626e-08
4.56422e-08
6.37574e-08
1.94372e-08
8.97849e-09
1.0482e-08
1.95645e-08
2.19834e-08
9.81807e-09
8.62066e-09
9.0576e-09
8.82108e-09
8.00072e-09
7.07693e-09
9.18854e-09
8.19002e-09
1.03214e-08
9.80762e-09
1.12467e-08
3.14987e-08
3.75342e-08
2.31745e-08
1.09191e-08
7.06308e-09
1.00048e-08
1.31121e-08
1.55981e-08
1.77311e-08
1.19644e-08
1.12027e-08
8.7048e-09
9.38854e-09
1.01012e-08
9.83391e-09
1.19324e-08
1.28289e-08
2.46986e-08
3.38436e-08
1.57767e-08
5.97235e-09
1.00093e-08
3.13743e-08
4.08842e-08
1.42793e-08
6.05445e-09
7.30691e-09
1.32311e-08
1.44964e-08
6.88561e-09
5.4849e-09
5.79312e-09
5.51237e-09
4.8776e-09
4.15066e-09
5.24261e-09
4.90959e-09
5.95823e-09
5.15521e-09
7.47406e-09
2.10491e-08
2.53114e-08
1.53801e-08
6.38431e-09
4.11437e-09
6.41305e-09
8.81682e-09
1.03048e-08
1.13854e-08
7.77395e-09
7.05095e-09
5.32261e-09
6.00452e-09
6.71799e-09
6.80483e-09
8.57095e-09
9.6627e-09
1.76759e-08
2.25624e-08
1.14143e-08
4.88645e-09
8.18851e-09
2.15177e-08
2.63117e-08
1.06328e-08
4.52038e-09
5.33196e-09
9.06187e-09
9.71309e-09
4.99109e-09
3.65616e-09
3.76206e-09
3.48888e-09
3.02061e-09
2.47637e-09
3.03587e-09
2.96825e-09
3.35999e-09
2.7305e-09
4.81283e-09
1.35059e-08
1.63731e-08
9.86349e-09
3.68412e-09
2.35606e-09
4.12753e-09
5.93789e-09
6.7868e-09
7.22332e-09
5.0286e-09
4.47397e-09
3.33286e-09
3.95569e-09
4.68903e-09
5.02604e-09
6.52415e-09
7.63943e-09
1.27892e-08
1.52809e-08
8.4929e-09
4.37801e-09
6.81663e-09
1.48169e-08
1.71207e-08
8.03179e-09
3.72268e-09
4.11264e-09
6.37128e-09
6.68632e-09
3.79985e-09
2.6509e-09
2.56179e-09
2.29128e-09
1.9552e-09
1.55909e-09
1.85733e-09
1.84164e-09
1.89664e-09
1.47967e-09
3.00329e-09
8.32225e-09
1.01467e-08
6.09166e-09
2.09116e-09
1.33304e-09
2.6727e-09
4.03245e-09
4.51954e-09
4.63434e-09
3.3441e-09
2.9539e-09
2.27257e-09
2.81055e-09
3.52071e-09
4.00945e-09
5.28904e-09
6.2923e-09
9.43804e-09
1.0639e-08
6.54675e-09
4.01318e-09
5.68328e-09
1.02649e-08
1.13348e-08
6.13412e-09
3.24474e-09
3.33987e-09
4.61266e-09
4.74476e-09
2.99718e-09
2.07051e-09
1.83387e-09
1.57699e-09
1.33769e-09
1.06435e-09
1.25135e-09
1.22363e-09
1.13195e-09
8.55311e-10
1.8099e-09
4.88681e-09
5.97742e-09
3.58756e-09
1.15457e-09
7.62206e-10
1.78181e-09
2.79463e-09
3.07686e-09
3.07334e-09
2.33624e-09
2.07118e-09
1.73474e-09
2.20752e-09
2.8609e-09
3.41452e-09
4.50363e-09
5.32229e-09
7.12228e-09
7.65809e-09
5.20021e-09
3.66681e-09
4.73249e-09
7.21724e-09
7.70452e-09
4.72972e-09
2.89876e-09
2.83841e-09
3.44743e-09
3.48245e-09
2.43308e-09
1.72668e-09
1.41008e-09
1.16051e-09
9.97658e-10
8.09228e-10
9.66832e-10
8.87281e-10
7.43597e-10
5.54193e-10
1.04353e-09
2.7087e-09
3.32041e-09
2.00328e-09
6.22877e-10
4.66471e-10
1.24828e-09
1.99632e-09
2.16966e-09
2.16226e-09
1.76097e-09
1.5888e-09
1.49766e-09
1.9304e-09
2.50756e-09
3.04551e-09
3.96585e-09
4.54549e-09
5.5039e-09
5.71961e-09
4.24718e-09
3.27895e-09
3.92343e-09
5.18367e-09
5.40538e-09
3.68464e-09
2.58486e-09
2.46181e-09
2.66022e-09
2.64136e-09
2.00961e-09
1.4889e-09
1.14638e-09
8.98639e-10
7.97174e-10
6.5534e-10
8.11217e-10
7.0349e-10
5.49654e-10
4.23619e-10
5.92632e-10
1.40143e-09
1.71212e-09
1.04821e-09
3.42044e-10
3.35484e-10
9.44179e-10
1.50088e-09
1.61402e-09
1.65303e-09
1.46448e-09
1.34805e-09
1.41083e-09
1.81463e-09
2.31217e-09
2.78521e-09
3.54847e-09
3.91903e-09
4.36105e-09
4.43774e-09
3.54733e-09
2.87373e-09
3.24484e-09
3.83148e-09
3.92854e-09
2.9105e-09
2.27401e-09
2.15202e-09
2.11751e-09
2.06129e-09
1.67519e-09
1.30355e-09
9.75461e-10
7.29897e-10
6.79972e-10
5.52671e-10
7.03653e-10
6.06637e-10
4.43112e-10
3.69363e-10
3.66606e-10
6.7833e-10
8.06851e-10
5.22659e-10
2.23096e-10
3.0202e-10
7.80645e-10
1.20088e-09
1.27745e-09
1.36912e-09
1.33275e-09
1.25094e-09
1.39726e-09
1.77901e-09
2.19526e-09
2.57637e-09
3.18528e-09
3.41125e-09
3.54083e-09
3.56787e-09
3.01728e-09
2.50036e-09
2.69345e-09
2.92955e-09
2.96781e-09
2.34198e-09
1.98008e-09
1.88926e-09
1.73615e-09
1.65347e-09
1.40957e-09
1.13954e-09
8.54429e-10
6.22446e-10
5.90249e-10
4.81065e-10
5.99342e-10
5.4483e-10
3.79059e-10
3.39654e-10
2.85458e-10
3.37125e-10
3.58947e-10
2.75615e-10
1.99988e-10
3.2765e-10
7.0684e-10
1.03381e-09
1.08661e-09
1.21567e-09
1.29334e-09
1.23766e-09
1.41088e-09
1.77164e-09
2.10703e-09
2.39515e-09
2.86019e-09
3.00293e-09
2.94989e-09
2.96201e-09
2.61568e-09
2.18689e-09
2.26344e-09
2.32659e-09
2.33755e-09
1.93256e-09
1.7088e-09
1.66332e-09
1.45799e-09
1.35732e-09
1.2017e-09
9.93916e-10
7.62642e-10
5.60405e-10
5.21494e-10
4.37383e-10
4.94472e-10
4.95615e-10
3.48968e-10
3.1392e-10
2.72044e-10
2.2871e-10
1.89028e-10
1.96766e-10
2.32531e-10
3.80829e-10
6.91602e-10
9.56848e-10
9.95285e-10
1.13973e-09
1.29824e-09
1.27333e-09
1.4344e-09
1.77097e-09
2.03441e-09
2.23119e-09
2.57256e-09
2.67265e-09
2.52868e-09
2.53132e-09
2.30942e-09
1.93638e-09
1.94415e-09
1.91995e-09
1.9228e-09
1.64653e-09
1.47358e-09
1.4759e-09
1.25752e-09
1.13465e-09
1.04488e-09
8.66754e-10
6.81434e-10
5.31721e-10
4.72616e-10
4.0498e-10
4.15892e-10
4.41843e-10
3.40154e-10
2.94416e-10
2.73399e-10
2.30706e-10
1.77172e-10
2.1329e-10
2.97714e-10
4.41564e-10
7.15901e-10
9.39221e-10
9.71424e-10
1.11009e-09
1.324e-09
1.33754e-09
1.45824e-09
1.76448e-09
1.97489e-09
2.08319e-09
2.32969e-09
2.40882e-09
2.23259e-09
2.21933e-09
2.07138e-09
1.74302e-09
1.71684e-09
1.64779e-09
1.64463e-09
1.45723e-09
1.29031e-09
1.32047e-09
1.12551e-09
9.64872e-10
9.26269e-10
7.74515e-10
6.06543e-10
5.15472e-10
4.50405e-10
3.75035e-10
3.73079e-10
3.90124e-10
3.35064e-10
2.96577e-10
2.69885e-10
2.6471e-10
2.4094e-10
2.76187e-10
3.79466e-10
5.04249e-10
7.55786e-10
9.63259e-10
9.97376e-10
1.11431e-09
1.35931e-09
1.41332e-09
1.47949e-09
1.7476e-09
1.92893e-09
1.9595e-09
2.13453e-09
2.20907e-09
2.03099e-09
1.99955e-09
1.89233e-09
1.60119e-09
1.55868e-09
1.48156e-09
1.46069e-09
1.34144e-09
1.16955e-09
1.19093e-09
1.05036e-09
8.48877e-10
8.28752e-10
7.22269e-10
5.4384e-10
4.90824e-10
4.493e-10
3.50528e-10
3.43535e-10
3.56511e-10
3.24019e-10
3.07134e-10
2.77519e-10
3.01377e-10
3.18879e-10
3.64335e-10
4.65915e-10
5.73502e-10
7.89559e-10
1.0147e-09
1.0586e-09
1.13892e-09
1.39433e-09
1.4862e-09
1.5053e-09
1.71779e-09
1.89279e-09
1.86911e-09
1.98061e-09
2.06739e-09
1.91066e-09
1.85843e-09
1.76945e-09
1.49262e-09
1.45237e-09
1.39831e-09
1.35693e-09
1.28206e-09
1.11518e-09
1.09343e-09
1.00273e-09
7.89793e-10
7.37747e-10
6.79029e-10
5.00711e-10
4.44793e-10
4.37787e-10
3.35075e-10
3.08434e-10
3.33564e-10
3.14568e-10
3.09371e-10
2.9942e-10
3.36128e-10
3.84068e-10
4.51135e-10
5.55995e-10
6.51439e-10
8.2691e-10