/*--------------------------------*- C++ -*----------------------------------*\
  =========                 |
  \\      /  F ield         | OpenFOAM: The Open Source CFD Toolbox
   \\    /   O peration     | Website:  https://openfoam.org
    \\  /    A nd           | Version:  10
     \\/     M anipulation  |
\*---------------------------------------------------------------------------*/
FoamFile
{
    format      ascii;
    class       volScalarField;
    location    "20";
    object      nut;
}
// * * * * * * * * * * * * * * * * * * * * * * * * * * * * * * * * * * * * * //

dimensions      [0 2 -1 0 0 0 0];

internalField   nonuniform List<scalar> 
102400
(
3.03233e-11
4.40349e-10
1.99041e-10
1.81852e-09
1.22227e-10
3.82695e-10
1.26978e-09
4.01332e-10
6.57861e-09
2.54473e-10
4.8929e-10
3.68609e-09
1.9437e-10
2.32847e-08
4.11334e-08
1.42269e-08
4.8243e-10
1.2781e-09
7.27433e-09
6.05405e-09
2.0968e-09
1.79026e-09
2.80856e-09
2.03894e-09
5.30212e-10
4.81028e-11
2.30223e-10
1.15693e-09
8.32182e-10
1.2375e-09
2.02995e-09
2.28657e-09
1.665e-09
5.91825e-10
7.33131e-10
3.04779e-10
7.07153e-12
4.86815e-10
5.30396e-10
4.65956e-11
1.95211e-10
1.32589e-09
2.60469e-09
1.94515e-09
5.57664e-10
4.96123e-09
3.5115e-09
5.1379e-09
1.28884e-08
1.72162e-10
3.38058e-09
2.85619e-08
1.32077e-09
2.2465e-07
2.33664e-07
1.0603e-07
9.02118e-09
7.89873e-08
3.09408e-07
1.52377e-07
1.54182e-08
1.80786e-08
3.40589e-08
2.26779e-08
1.01921e-08
2.86077e-09
7.55305e-09
1.70542e-08
1.48958e-08
1.75798e-08
1.27155e-08
1.71964e-08
1.863e-08
8.03399e-09
9.92138e-09
7.8709e-09
6.00901e-10
4.5526e-09
7.45522e-09
3.37887e-10
5.77594e-10
1.22136e-09
4.01431e-08
7.98177e-09
2.05304e-10
1.71677e-08
1.90304e-08
7.63499e-09
2.05976e-08
2.91586e-08
6.29423e-10
7.1091e-08
1.6401e-08
5.76111e-07
6.68395e-07
1.64012e-07
1.55608e-08
1.35334e-07
2.19869e-06
2.0447e-06
1.25439e-08
2.64119e-08
2.54355e-08
7.58928e-08
3.67396e-08
1.71874e-08
3.76592e-08
4.31026e-08
3.41875e-08
6.19832e-08
3.71475e-08
1.20002e-08
1.50127e-08
1.183e-08
2.27311e-08
5.46385e-08
2.96313e-08
1.68987e-09
2.49313e-08
2.9487e-09
3.51763e-09
6.63073e-09
1.40433e-07
5.66613e-07
4.49225e-09
6.65128e-09
1.8098e-07
5.05172e-09
3.53478e-08
2.29648e-07
1.33537e-07
1.24977e-07
1.91147e-07
2.28396e-07
3.82222e-06
5.86992e-07
2.69405e-07
5.46424e-08
8.80306e-06
1.34114e-05
1.3586e-07
6.60426e-06
1.01121e-06
4.45373e-09
2.58605e-09
1.79352e-07
2.16956e-08
1.0468e-07
4.89427e-08
9.27375e-08
1.19709e-07
1.23621e-08
4.498e-09
2.1565e-09
3.36583e-09
5.52854e-08
1.70021e-07
2.51606e-08
9.20744e-09
6.29289e-09
1.18927e-08
4.24368e-08
3.81947e-08
1.45764e-06
9.36046e-07
5.24812e-08
4.33296e-06
2.19306e-08
4.64187e-08
8.45114e-09
7.69837e-06
8.19285e-08
5.61366e-07
7.49607e-09
7.31937e-06
8.45492e-06
6.47887e-06
8.82279e-06
5.21131e-07
2.5217e-05
5.31739e-06
6.66279e-05
0.000105146
1.44754e-05
2.82989e-06
5.23479e-05
0.000106548
9.85241e-08
4.98507e-08
9.77955e-08
1.90022e-07
7.08467e-08
9.64254e-10
4.94284e-09
1.5152e-08
2.71865e-09
1.25178e-07
1.2996e-07
2.69861e-09
1.77988e-08
1.05258e-08
1.81744e-07
7.5094e-07
4.02362e-08
2.30777e-07
2.21113e-06
1.34503e-05
5.35157e-06
2.68182e-07
6.16119e-08
2.25221e-06
3.17274e-07
6.66172e-07
2.99169e-07
7.78292e-07
3.11526e-05
6.71123e-05
5.23487e-05
5.89122e-06
9.14033e-06
6.37547e-06
9.3194e-07
1.70403e-05
5.86336e-05
5.34945e-06
1.25315e-05
0.000113225
9.03436e-06
8.72652e-06
1.97911e-07
2.28188e-07
1.61804e-07
5.80231e-08
1.31755e-07
1.51868e-06
5.97646e-07
1.67458e-08
1.58588e-07
1.01907e-08
4.7437e-07
5.47872e-07
2.45966e-07
1.15846e-06
5.34583e-06
2.61025e-07
1.48397e-07
5.17708e-06
7.95765e-06
3.43887e-06
1.12426e-07
1.24078e-07
2.61554e-06
2.5383e-07
4.05054e-07
1.72544e-08
1.63475e-05
9.57088e-05
5.05783e-05
1.85725e-05
2.10299e-05
2.93071e-06
1.83358e-06
2.03602e-06
6.94146e-06
2.81923e-06
2.32353e-06
2.72084e-05
2.828e-05
1.32771e-06
1.06429e-05
1.98973e-06
3.51879e-07
3.25134e-07
1.92598e-08
1.21847e-05
4.62053e-05
1.041e-05
1.79619e-07
4.58456e-08
6.88741e-07
7.94584e-07
1.30683e-07
2.27174e-07
3.34655e-05
1.8802e-07
5.47896e-07
2.65166e-06
3.52417e-05
3.35688e-05
1.21875e-06
9.9348e-08
6.97765e-07
1.04945e-07
1.94106e-07
3.05783e-07
2.4054e-07
5.55493e-05
3.35289e-05
3.18326e-05
3.14433e-05
5.89992e-06
1.12915e-07
2.02738e-06
3.78348e-06
2.1002e-06
6.41534e-07
6.55098e-06
2.76312e-05
2.75768e-06
1.1529e-06
2.74506e-06
3.6276e-06
7.71294e-07
7.3758e-08
2.65498e-06
1.37481e-05
6.72766e-05
1.38581e-05
1.51533e-07
1.46482e-07
5.25598e-07
5.56112e-07
1.10513e-06
5.90144e-05
3.34184e-05
2.15987e-06
9.21758e-07
1.57033e-05
1.59863e-05
1.63455e-05
1.13712e-07
2.01321e-07
2.92289e-07
7.19608e-08
1.4916e-07
4.84275e-07
4.62414e-06
2.11913e-05
1.26571e-05
2.00068e-05
4.47335e-06
1.06273e-06
1.60236e-06
4.04735e-06
1.98451e-06
3.261e-08
1.05056e-06
3.78899e-05
3.00155e-05
1.45945e-06
9.00152e-07
4.96634e-06
4.1235e-06
5.66812e-07
8.01171e-08
2.68089e-06
3.07774e-06
9.40646e-05
2.03433e-05
7.69186e-08
1.75923e-06
3.04124e-06
5.97344e-06
7.07634e-05
9.85482e-05
4.05005e-06
5.16691e-07
3.6493e-05
5.58884e-06
2.51454e-05
8.76422e-07
9.7893e-06
1.43944e-06
6.90773e-08
1.8536e-07
2.24243e-07
2.49134e-07
3.93681e-06
1.09301e-06
4.60373e-06
3.42963e-06
5.45393e-06
2.15431e-06
4.57822e-06
5.43171e-06
6.90315e-07
1.69327e-07
1.49627e-05
5.30372e-05
5.46282e-06
3.96444e-06
3.12317e-07
4.8705e-06
2.30879e-06
2.6207e-07
8.45275e-07
1.13317e-06
4.30533e-06
8.47852e-05
6.56306e-05
5.10973e-05
2.35506e-06
1.0639e-05
6.69609e-05
9.84912e-05
1.3225e-05
1.92493e-06
6.14327e-05
2.32905e-05
1.42774e-05
1.3138e-05
1.81926e-05
1.2574e-06
1.57787e-05
2.91265e-05
4.1701e-09
1.92963e-06
1.56188e-06
4.20958e-07
1.07683e-06
3.11018e-06
1.40729e-05
1.65865e-05
1.91804e-06
1.48239e-05
7.89398e-06
9.45917e-06
1.86815e-05
5.19476e-05
1.52078e-05
6.88e-06
1.86656e-06
2.9669e-06
5.84426e-06
1.48764e-06
4.28782e-07
9.33294e-07
6.58024e-07
2.71971e-06
0.000105105
5.75932e-05
3.27878e-07
9.92377e-06
1.42608e-05
6.12571e-05
2.81986e-05
8.85691e-07
4.11692e-05
2.27481e-05
1.2045e-05
1.49606e-05
8.96456e-06
4.34581e-05
7.94176e-06
0.000112141
3.67202e-05
1.60449e-06
7.45159e-07
2.63794e-06
5.58172e-06
9.73739e-06
9.62964e-06
3.10985e-05
2.3725e-06
2.01406e-05
1.67059e-05
1.33868e-05
2.25794e-05
3.62115e-05
2.17164e-05
3.40641e-06
2.30022e-05
9.3026e-06
5.34212e-06
3.58226e-06
7.3121e-07
1.71391e-06
7.48597e-07
1.07156e-06
1.10907e-05
6.52299e-06
1.92434e-06
8.47794e-06
1.07654e-05
1.38387e-05
4.94033e-05
8.88784e-07
1.27086e-05
4.84789e-05
8.03449e-06
1.35656e-05
8.85467e-06
6.98307e-05
1.77824e-05
2.12421e-05
0.000113085
5.32108e-07
3.05739e-06
3.78626e-06
1.13623e-06
3.26463e-05
6.30541e-06
2.85722e-05
3.94294e-05
2.77686e-06
1.19244e-05
4.98847e-06
5.89211e-06
1.04246e-05
2.22993e-05
1.28589e-06
1.01179e-05
6.57588e-07
5.92736e-06
1.02027e-05
1.37225e-06
2.32101e-06
1.00245e-07
3.88164e-06
2.50879e-07
3.7882e-07
1.10848e-06
6.66114e-06
4.43692e-06
8.16417e-06
2.53339e-05
2.89427e-07
2.17669e-06
9.40364e-05
3.12805e-06
1.82878e-05
6.08072e-06
5.12047e-05
4.36279e-05
1.14853e-05
4.61668e-05
1.30404e-05
4.97879e-06
9.53468e-06
6.56168e-06
6.45153e-06
2.38256e-05
4.22211e-06
3.1997e-05
2.32638e-05
1.24283e-06
1.88636e-06
6.60366e-07
4.97458e-06
1.02826e-05
1.38357e-06
6.41816e-06
1.83706e-06
9.06925e-06
1.19247e-05
6.72031e-06
4.16327e-06
5.54943e-07
2.77272e-06
1.01039e-06
4.58281e-07
1.81934e-06
7.50733e-06
4.43099e-06
4.80536e-06
2.29804e-05
5.30443e-07
2.9351e-06
8.92971e-05
2.47141e-05
7.61423e-06
2.21774e-06
3.02987e-05
4.35926e-05
9.31575e-06
1.43421e-05
3.03924e-05
9.11422e-06
9.73937e-06
2.43454e-05
7.65291e-06
2.62272e-05
1.12671e-05
1.71645e-05
3.57616e-05
1.95261e-05
4.66475e-06
1.64894e-06
3.30772e-06
3.52479e-06
1.01146e-05
4.56185e-06
6.78876e-06
1.71445e-06
1.71531e-05
7.59285e-06
5.83325e-06
2.98418e-06
5.9812e-07
1.80478e-06
1.681e-06
4.2035e-06
6.31945e-06
8.29465e-06
5.20915e-06
6.35399e-06
1.12002e-05
6.72868e-06
2.81231e-05
5.00615e-05
1.19708e-05
3.48648e-06
1.17709e-05
3.75002e-05
8.45109e-06
2.57196e-05
1.9896e-05
1.55962e-05
1.34876e-05
1.80586e-05
1.39651e-05
3.44662e-06
2.06718e-05
5.81729e-06
1.75111e-05
2.29502e-05
1.79576e-05
1.22533e-05
2.91962e-05
3.88326e-06
1.97977e-05
1.04749e-05
1.18791e-05
4.91718e-06
6.11628e-06
9.94808e-06
9.74144e-06
2.85211e-06
1.39886e-06
1.62014e-06
3.44977e-06
1.72712e-05
3.79678e-06
7.68382e-06
8.64849e-06
1.76221e-06
1.86333e-05
5.32065e-06
2.04222e-05
3.21113e-05
8.7772e-06
2.53995e-05
4.46089e-06
1.69885e-05
6.41947e-06
7.45845e-06
1.03646e-05
6.68177e-06
2.64235e-05
1.68445e-06
5.90687e-06
2.1721e-06
5.10997e-06
8.44036e-06
5.46132e-06
7.9461e-06
1.13129e-05
1.14085e-05
4.93803e-06
8.32162e-06
4.65413e-06
1.16061e-05
4.54091e-05
5.43592e-06
3.20445e-06
7.65659e-06
8.7817e-06
7.02159e-06
4.97825e-06
1.20498e-05
3.3545e-06
6.7918e-06
4.36026e-06
5.08686e-06
1.75693e-05
1.91582e-06
4.67495e-06
1.29553e-06
1.07086e-05
1.90192e-05
3.72084e-06
2.90161e-05
3.85379e-06
6.7468e-06
3.42844e-06
6.66107e-06
1.20255e-05
5.5165e-06
1.03404e-05
1.09963e-05
1.75796e-06
4.2332e-06
1.35572e-06
3.53978e-06
5.9952e-06
3.8246e-07
2.58039e-06
3.38854e-06
2.64986e-06
4.53137e-06
4.54482e-06
4.93646e-06
4.11958e-05
4.98866e-06
2.24102e-06
5.48722e-06
8.06044e-06
7.04574e-06
2.81549e-06
2.22136e-05
2.07217e-06
3.0987e-06
6.4078e-06
1.34466e-05
1.67412e-05
3.59232e-06
7.91602e-07
2.61122e-06
3.90084e-06
5.75586e-06
4.53326e-06
8.0838e-06
1.58037e-06
1.67028e-05
1.63734e-05
6.49417e-06
4.47375e-06
3.51783e-06
2.00835e-05
2.06024e-05
2.74392e-07
1.11812e-05
1.14026e-06
1.41324e-06
9.15991e-06
1.64769e-05
1.35863e-06
7.86488e-07
1.16595e-06
3.75953e-06
1.69175e-06
4.20491e-06
1.76045e-05
3.24581e-05
1.31697e-05
2.21917e-06
5.42736e-06
7.51165e-06
1.28473e-06
1.0886e-05
3.2303e-07
2.46841e-06
7.81022e-06
1.70492e-05
1.0904e-05
4.33878e-06
1.55209e-06
1.93483e-06
1.85917e-06
5.55887e-06
4.66922e-06
3.64373e-06
3.02185e-07
1.57903e-05
9.06576e-06
3.76059e-06
1.66323e-06
3.20648e-06
2.32119e-06
2.37564e-05
2.33025e-05
6.11407e-06
1.35601e-06
2.29735e-06
6.68662e-06
4.7742e-06
1.12338e-06
2.74804e-06
4.11139e-07
3.41824e-06
2.03088e-06
2.9664e-06
4.00115e-06
1.66123e-05
1.16267e-05
3.35321e-06
1.60607e-05
1.18627e-05
2.34809e-06
1.19685e-05
1.09831e-06
2.38171e-06
4.23472e-06
6.83925e-06
4.30345e-06
3.18415e-06
2.3942e-06
2.43144e-07
2.71938e-06
3.40538e-06
3.30088e-06
2.03066e-06
7.80468e-07
4.60275e-06
1.67992e-06
6.36269e-07
8.51069e-07
1.41205e-06
1.26079e-06
5.00439e-06
1.86453e-06
2.2281e-06
1.48982e-06
9.05712e-07
3.35426e-06
7.24413e-07
9.78251e-07
2.38739e-06
5.57303e-07
1.6961e-06
2.55362e-06
2.30263e-06
5.75502e-07
5.79401e-06
4.91508e-06
2.43065e-06
8.34651e-06
8.23448e-06
2.37014e-06
4.62696e-06
1.1157e-06
2.79254e-06
1.84536e-06
2.27649e-06
2.56309e-06
2.51139e-06
1.18302e-06
6.23646e-07
1.72045e-06
1.65918e-06
2.49716e-06
9.04367e-07
1.84803e-06
1.54801e-06
1.56039e-06
4.17675e-07
1.3665e-07
1.33592e-06
2.36043e-07
1.79299e-06
5.12188e-07
1.0867e-06
1.19133e-06
5.9283e-07
2.38046e-06
7.4541e-07
6.94519e-07
1.09653e-06
1.15169e-06
9.76274e-07
1.5603e-06
1.78382e-06
5.02091e-07
3.35036e-06
2.47419e-06
2.0512e-06
1.54011e-06
3.879e-06
1.48232e-06
9.96253e-07
7.44421e-07
3.03295e-06
1.2407e-06
1.80165e-06
1.98746e-06
2.44463e-06
5.23181e-07
5.882e-07
9.68661e-07
1.15785e-06
2.05556e-06
4.17535e-07
2.1527e-06
5.75388e-07
1.05869e-06
8.36368e-08
2.95551e-08
1.12877e-07
6.67899e-07
3.04881e-07
3.73264e-07
6.66913e-07
8.32007e-07
8.60964e-07
7.32756e-07
3.64375e-07
2.34493e-07
1.4584e-07
7.58595e-07
7.54858e-07
6.77941e-07
1.99786e-06
1.22293e-07
5.91194e-07
7.73155e-07
1.14553e-06
5.40974e-07
2.14472e-06
8.67357e-07
7.61543e-07
9.37084e-08
2.90309e-06
7.08529e-07
1.25733e-06
1.62641e-06
2.27868e-06
5.41074e-08
2.08399e-07
1.64097e-07
3.92182e-07
1.70104e-06
3.66318e-07
2.01032e-06
1.71044e-07
1.9169e-07
1.93397e-08
1.37624e-08
1.86269e-07
1.09241e-07
3.04127e-07
1.51163e-07
3.74928e-07
1.92302e-07
1.93884e-07
1.85084e-06
2.63402e-07
1.10402e-08
3.15311e-08
9.94166e-08
3.77483e-07
1.66906e-07
1.73802e-06
3.69696e-09
3.38905e-07
3.81222e-07
1.86329e-07
1.42457e-07
1.45517e-07
4.0679e-07
2.72563e-07
5.68961e-09
2.42244e-06
4.67257e-07
7.7724e-07
1.39605e-06
7.64587e-07
3.63315e-09
1.12056e-08
1.03725e-08
3.7891e-08
6.5713e-07
5.70282e-07
8.68301e-07
6.01192e-08
5.127e-08
1.87994e-08
1.14942e-08
9.10113e-08
5.06202e-09
1.337e-07
3.4203e-08
2.51036e-08
4.72683e-08
5.06686e-08
9.31623e-07
5.90295e-08
7.85146e-09
4.13421e-08
8.93662e-10
7.15461e-08
9.48224e-08
9.93253e-07
2.8572e-09
9.94008e-08
3.37709e-08
9.528e-10
2.27387e-08
6.33683e-09
4.17486e-08
4.18937e-08
9.44089e-09
7.70817e-07
1.45651e-07
1.96042e-07
2.21926e-07
1.94973e-08
4.66055e-09
1.14311e-09
1.92833e-09
4.68161e-09
8.90025e-08
4.96603e-07
1.45582e-07
7.78808e-08
2.15763e-08
1.49121e-08
2.14807e-09
1.94847e-08
3.32468e-09
9.4158e-08
1.84701e-08
7.14559e-10
3.3622e-08
6.23759e-08
2.06369e-07
9.69628e-09
4.70642e-09
6.2674e-08
5.70041e-10
1.7486e-08
3.07284e-08
2.18311e-07
8.02453e-09
2.18583e-08
5.24082e-08
6.74556e-09
6.22617e-09
1.11234e-09
2.76307e-09
1.1829e-08
5.48103e-09
6.69523e-08
4.02009e-08
2.32862e-08
6.61327e-09
2.65862e-11
5.28397e-09
2.71491e-10
2.94575e-10
1.65829e-09
4.56534e-09
1.0218e-07
1.18384e-08
1.9136e-07
8.34113e-09
4.14362e-09
4.76739e-11
9.55277e-10
1.1087e-08
6.40084e-08
4.42539e-09
6.3643e-10
2.18437e-08
1.52452e-08
4.80032e-08
2.96686e-09
3.84705e-09
6.49233e-08
2.86804e-09
5.97892e-09
1.01627e-08
1.46023e-08
2.44515e-08
3.73467e-09
1.14049e-07
9.78032e-09
1.18212e-09
3.60737e-09
1.72689e-09
8.14982e-09
3.36785e-10
3.35096e-09
1.75494e-08
1.99272e-09
1.67953e-10
4.22217e-11
4.01707e-09
1.47642e-10
2.53565e-11
2.1584e-09
2.59411e-09
2.2427e-09
2.63235e-09
1.50866e-07
2.79604e-09
1.58052e-10
2.79921e-12
1.21927e-11
3.68142e-08
2.22982e-08
6.422e-11
2.71189e-09
5.66927e-09
1.89109e-09
2.22221e-08
2.07904e-09
3.19874e-09
4.49229e-08
1.31235e-08
1.82168e-09
2.20655e-09
3.56983e-10
6.23621e-08
2.21897e-09
6.41737e-08
7.09375e-09
1.08851e-10
2.2687e-08
1.00751e-09
2.31658e-09
5.00692e-11
2.21431e-10
3.6417e-09
1.91495e-09
2.08493e-09
3.98062e-11
2.98919e-09
2.48025e-10
4.01389e-12
3.01096e-09
2.01497e-09
7.81785e-12
7.88919e-09
1.7533e-08
1.07517e-09
1.13362e-10
5.78091e-12
2.73554e-10
4.16144e-08
2.04516e-09
5.34654e-12
4.69293e-09
5.2927e-10
5.51223e-10
1.51808e-08
1.90015e-09
5.89233e-09
1.76905e-08
2.25585e-08
9.03948e-11
5.23358e-10
3.74919e-10
6.84213e-08
1.41462e-09
3.40153e-09
2.23668e-09
9.02523e-10
2.42729e-08
1.50072e-11
2.07446e-11
3.90575e-10
7.00524e-11
2.00148e-09
4.56776e-09
1.20505e-09
7.86029e-11
4.37093e-09
1.68329e-10
1.41938e-13
3.46251e-09
2.93685e-10
1.19442e-11
2.11163e-09
3.72643e-10
5.98719e-10
5.51867e-10
8.07432e-12
9.21187e-10
1.78991e-08
9.75314e-11
8.72443e-11
1.41864e-09
6.1356e-12
7.52014e-11
7.55438e-09
1.53438e-09
2.97172e-08
1.24976e-08
1.84934e-09
3.77551e-10
2.11283e-09
5.13775e-09
1.64553e-08
5.5529e-11
3.07997e-12
3.57433e-08
1.93593e-09
1.31626e-09
2.1311e-13
2.1175e-10
6.17208e-12
2.3301e-10
5.75397e-09
2.73609e-09
1.21555e-11
2.03279e-08
7.73278e-09
8.19697e-11
1.79018e-10
1.1973e-09
1.49903e-11
2.74004e-12
2.89203e-11
5.00777e-12
3.20373e-10
1.67519e-09
3.33011e-11
3.23007e-09
3.43949e-09
5.62252e-11
2.97811e-10
1.10088e-09
5.12303e-11
5.02477e-12
7.84973e-10
2.77401e-09
2.24018e-08
1.50276e-10
1.55248e-10
2.99621e-08
1.31476e-08
3.86582e-09
1.23119e-09
1.15269e-09
6.36854e-09
9.16377e-08
1.83616e-10
2.04907e-09
1.00724e-09
5.92377e-10
5.40096e-12
3.46321e-09
6.69355e-09
1.2118e-11
3.46426e-08
8.26439e-08
2.1732e-10
2.18214e-10
1.32188e-09
2.35249e-10
9.27011e-12
3.40919e-10
4.67657e-11
1.55949e-10
3.50685e-11
1.64309e-09
9.68626e-11
2.45955e-09
2.76832e-10
9.2286e-10
1.69317e-10
2.21628e-09
3.67144e-10
7.44203e-11
4.03409e-10
2.57093e-09
2.69076e-09
1.15068e-09
2.09817e-08
4.47324e-08
1.76824e-09
1.3491e-10
1.1372e-09
3.30242e-08
3.17962e-08
1.836e-08
2.18293e-11
7.97876e-09
1.99142e-09
1.66715e-10
5.09958e-10
1.63873e-10
4.68539e-10
2.38661e-10
2.52044e-10
5.03333e-09
7.14903e-11
1.13558e-08
3.29888e-09
7.16857e-09
1.60893e-09
9.50704e-12
1.54739e-09
1.49433e-10
8.29634e-10
5.21486e-10
5.5129e-12
3.78597e-10
5.88793e-10
4.29309e-09
3.52091e-10
6.36186e-08
2.63358e-07
1.13489e-07
1.91004e-08
1.30681e-08
2.16212e-08
1.63555e-08
2.2199e-10
2.59881e-10
1.23942e-10
3.89168e-11
6.10733e-10
4.73631e-10
5.19178e-09
8.93609e-11
7.93871e-10
5.00659e-10
9.01929e-11
6.11304e-11
1.25712e-08
8.1037e-09
2.87594e-09
1.77647e-11
1.54122e-08
3.37609e-08
1.74696e-09
5.03452e-08
2.95516e-08
3.87826e-08
1.04944e-08
1.02892e-09
3.84104e-08
3.53812e-09
1.75332e-08
1.21189e-08
1.20328e-08
3.26947e-08
1.53412e-09
4.11917e-08
2.20655e-08
2.53545e-07
1.53917e-06
9.88671e-07
2.70172e-07
1.09541e-07
9.48225e-08
5.47441e-08
3.71836e-09
1.02001e-10
4.53438e-10
7.52778e-10
6.97852e-09
2.13785e-09
1.61314e-08
2.36121e-11
1.37142e-08
4.01442e-09
2.9578e-10
1.40512e-09
1.0866e-07
7.40345e-08
3.75738e-08
6.05714e-11
5.20275e-08
1.6953e-07
8.65884e-10
1.45273e-07
7.17861e-08
1.6098e-07
8.08769e-08
1.61675e-09
9.70272e-08
3.52928e-08
6.50497e-08
4.21956e-07
9.28693e-07
1.1559e-06
2.18164e-07
1.01573e-08
6.15986e-07
2.5673e-08
2.22585e-06
2.81025e-06
1.14746e-06
3.92233e-07
2.55039e-07
1.33486e-07
5.13452e-08
2.41739e-08
2.45147e-10
2.68557e-10
1.27039e-08
7.98747e-09
2.88039e-08
8.08631e-10
6.82993e-08
2.96429e-08
3.72109e-10
1.1316e-08
3.95955e-07
2.53909e-07
5.2846e-07
2.94757e-08
4.43181e-08
4.24918e-07
6.56512e-08
1.38789e-07
1.57003e-07
3.94267e-08
1.19765e-06
4.27474e-09
1.48551e-07
1.28529e-07
2.13334e-08
1.16346e-06
1.03668e-05
2.43719e-05
4.33693e-06
4.22701e-08
1.57526e-06
1.23143e-06
1.11676e-06
5.05576e-06
3.597e-06
1.61601e-06
9.39152e-07
1.96592e-07
4.05232e-08
3.29712e-07
1.18123e-07
1.93831e-09
7.91709e-09
4.34966e-08
5.90671e-08
7.15402e-09
1.70129e-07
1.44183e-07
6.19313e-09
3.70655e-08
4.96896e-07
2.33656e-07
2.20912e-06
1.16678e-06
1.0186e-08
7.01496e-07
6.8344e-07
7.31624e-09
7.60825e-07
4.64468e-08
3.16217e-07
2.12084e-06
5.65274e-08
3.96641e-07
2.36038e-07
4.49443e-07
1.38298e-05
3.29224e-05
3.07752e-05
1.17369e-06
2.11324e-06
7.967e-06
1.38748e-07
4.66832e-06
5.45755e-06
2.83559e-06
4.29473e-06
7.43278e-07
1.85774e-08
2.5725e-08
5.50532e-07
3.46943e-07
5.9379e-07
5.31436e-08
1.27793e-07
6.58521e-08
4.24891e-07
3.15843e-07
8.50029e-08
8.80824e-08
5.78297e-07
5.11947e-07
4.61529e-06
2.941e-05
8.83691e-06
4.70039e-07
1.68703e-06
4.871e-07
1.56006e-06
2.47963e-06
2.28431e-08
6.01338e-06
4.7105e-07
4.42137e-07
3.01894e-06
2.36102e-06
9.62873e-06
8.57237e-06
1.78277e-05
7.89467e-06
9.19915e-07
8.21366e-06
7.80485e-06
7.73572e-07
2.92944e-06
1.33723e-06
1.30622e-05
9.63346e-06
7.43873e-08
5.32931e-07
1.55617e-08
2.20848e-08
5.83011e-06
1.26653e-06
1.69992e-07
6.51783e-07
5.24606e-06
3.01781e-07
2.04004e-07
5.19766e-08
3.61844e-07
7.5298e-07
8.55393e-06
5.37402e-05
2.54045e-05
7.17798e-06
1.70925e-06
4.08578e-07
5.07036e-06
2.63527e-06
1.8432e-07
1.99778e-06
1.38217e-05
2.26119e-08
5.43296e-06
1.13489e-05
1.22007e-05
3.29303e-05
6.5984e-06
1.19636e-06
9.53932e-08
1.86626e-06
5.46052e-06
9.25512e-07
3.43689e-06
6.71059e-07
6.16878e-06
6.25748e-05
4.84791e-07
4.15622e-07
3.88515e-07
3.80672e-07
2.21953e-08
6.8158e-06
3.6057e-07
5.63328e-07
7.83949e-05
1.59899e-06
5.68817e-07
3.97577e-08
2.28758e-07
1.07304e-06
9.16624e-06
0.000109981
5.20504e-06
1.05368e-05
6.46613e-07
1.23334e-06
1.00369e-07
1.98897e-05
3.97917e-07
1.06747e-06
9.03442e-06
5.75309e-08
2.30356e-06
7.02046e-06
1.08711e-05
1.39374e-06
1.15892e-07
8.9638e-06
1.80391e-07
6.5456e-07
1.73673e-06
6.31967e-07
8.99589e-06
5.33634e-06
1.37159e-06
5.2493e-05
1.4298e-05
4.76355e-08
1.92263e-07
5.58116e-07
5.10679e-07
2.66596e-08
8.36296e-07
4.66486e-07
8.00879e-05
9.02603e-05
1.56181e-06
2.83265e-07
6.51863e-08
2.05446e-06
1.77802e-05
0.000111875
0.000175804
4.11377e-05
9.85088e-05
2.63552e-06
1.88599e-05
7.3659e-06
3.77187e-06
1.20081e-06
1.25909e-07
6.82785e-09
7.83639e-07
3.84862e-06
4.0939e-06
2.49602e-05
1.06412e-06
8.3081e-06
1.5897e-06
1.80861e-06
1.84244e-06
2.61515e-07
2.22494e-06
2.66211e-05
3.41811e-06
2.23847e-05
0.000108768
4.45883e-05
3.27643e-07
2.03779e-07
1.17285e-06
1.2727e-06
3.68568e-06
4.47242e-06
5.24922e-07
8.08206e-05
4.22023e-05
3.48991e-07
2.66273e-08
1.08125e-06
1.6293e-05
0.00012274
0.000227967
9.13615e-06
2.30968e-05
4.98759e-05
0.000149322
4.10212e-05
7.98632e-06
5.96111e-07
6.7217e-08
1.87642e-07
1.03073e-06
2.93549e-06
2.52833e-06
1.40312e-05
3.14569e-05
1.08054e-05
2.47859e-05
3.8316e-06
9.07839e-06
9.57324e-07
4.30153e-07
3.75796e-06
1.46767e-05
4.87676e-05
0.000128818
7.85047e-05
2.06989e-05
8.5587e-05
2.58803e-07
1.95785e-06
3.79295e-06
1.2041e-05
3.09648e-06
7.83488e-05
3.21568e-05
5.09986e-06
9.03473e-08
2.60442e-06
1.0222e-05
4.1908e-05
0.000243521
6.8899e-05
2.32154e-05
1.65612e-05
0.000299282
0.000160463
8.4504e-06
9.3286e-07
4.93505e-07
2.51385e-06
1.14155e-06
6.08708e-06
3.58249e-06
1.43517e-07
3.48848e-05
4.31223e-05
2.47493e-05
6.18592e-06
1.87625e-05
1.80904e-05
4.82525e-06
1.87702e-06
1.52322e-05
3.73785e-05
7.18786e-05
6.16622e-05
3.38778e-05
1.11777e-05
0.000122746
2.47154e-07
9.63021e-07
6.00341e-06
5.87008e-06
6.56034e-07
3.40956e-06
9.92968e-06
2.22221e-06
6.05045e-06
7.44676e-06
9.16507e-06
0.00021086
0.000107165
3.35772e-05
5.89133e-06
5.82885e-05
0.000147811
2.44509e-05
1.46254e-05
8.2179e-05
1.55256e-05
1.23861e-05
8.18991e-06
9.35279e-06
1.37313e-06
7.44655e-07
7.2883e-06
1.48156e-05
8.00797e-06
4.99435e-06
6.05399e-05
2.9631e-05
8.82799e-07
1.92706e-06
7.15466e-06
3.31307e-05
4.20953e-06
6.6996e-06
2.88752e-05
1.93081e-05
9.1304e-07
6.95038e-07
1.0843e-06
5.10518e-06
1.03788e-06
2.01449e-06
1.63894e-05
1.21084e-05
1.37905e-06
4.28305e-06
7.62113e-06
5.40826e-05
9.87e-05
1.50219e-05
5.40742e-06
2.55337e-05
2.811e-06
1.11082e-05
5.42958e-06
8.97283e-05
1.76726e-06
4.97637e-06
1.37441e-05
2.66999e-05
4.15323e-06
1.29572e-07
4.52051e-05
1.09021e-05
5.02559e-05
5.13374e-06
6.01906e-06
5.79663e-05
8.5985e-06
1.74871e-06
1.45851e-06
2.75238e-05
5.25859e-06
5.17769e-06
7.90122e-06
3.20273e-05
6.38579e-05
1.56122e-06
1.52953e-06
4.53386e-06
2.38717e-06
4.29622e-07
4.09819e-07
8.57497e-07
3.15322e-06
2.78178e-06
3.51558e-06
4.07879e-06
1.50155e-05
7.61019e-06
1.04104e-05
2.11191e-05
1.32419e-06
9.85514e-06
7.63282e-06
1.17699e-05
7.44259e-05
1.07683e-05
1.323e-05
3.22438e-05
1.45974e-05
5.10471e-07
4.67273e-06
6.45055e-05
3.01066e-05
1.06458e-05
1.67015e-06
7.08212e-06
9.62767e-06
2.76422e-06
1.36912e-06
2.20941e-06
1.61315e-05
1.88492e-06
1.80923e-06
5.24599e-05
4.77709e-05
3.99907e-06
5.04974e-06
2.01789e-06
3.07808e-06
4.60439e-09
3.18301e-06
1.43563e-07
2.66123e-06
1.61879e-06
1.79231e-06
9.95977e-07
1.42675e-06
2.71504e-06
1.47834e-06
2.31294e-05
1.82473e-05
6.39526e-06
9.02868e-06
2.28119e-06
7.40223e-05
1.31023e-05
4.06662e-06
2.1215e-05
2.19096e-05
1.05198e-05
1.32665e-06
1.43473e-05
1.08168e-05
5.6423e-06
1.85193e-06
2.51695e-06
3.74452e-06
2.48832e-06
2.84124e-06
1.23276e-07
8.00767e-06
1.17386e-06
3.76122e-06
8.44591e-07
2.99516e-05
2.12888e-05
8.22887e-05
8.34849e-07
1.67614e-06
2.63383e-07
1.01901e-07
3.93338e-07
1.74429e-06
4.71084e-07
4.17414e-07
1.11159e-06
1.15685e-06
2.25269e-06
1.24096e-06
2.63816e-05
3.77966e-06
6.46745e-06
7.5113e-06
6.73282e-07
2.69241e-05
2.73798e-05
1.1143e-05
6.64842e-05
1.08332e-05
7.83332e-06
3.92254e-07
1.50921e-06
9.49326e-06
2.6217e-06
4.53285e-06
1.64215e-06
1.52291e-06
3.33502e-06
5.1968e-06
1.50673e-07
3.0151e-06
1.61975e-06
3.06998e-06
1.63941e-06
2.44354e-06
4.85048e-06
8.47379e-06
4.53744e-06
1.78906e-06
1.61583e-07
2.04883e-07
4.30182e-07
2.27231e-06
1.81395e-07
8.44125e-07
2.06567e-06
1.43044e-06
2.2522e-06
3.32492e-06
1.05851e-05
3.50422e-05
9.85597e-06
1.9197e-05
2.86666e-07
1.11226e-05
1.84739e-05
2.55553e-05
5.24069e-05
1.36199e-05
4.07274e-06
9.48869e-07
2.50331e-07
4.84827e-06
1.43055e-06
1.07401e-06
9.80413e-07
3.70559e-07
4.06159e-06
1.22725e-05
1.44833e-06
2.20888e-06
1.62153e-06
2.89038e-06
3.53962e-06
5.41457e-06
3.66903e-06
7.28807e-06
8.49823e-06
8.11121e-06
3.11571e-06
3.8233e-06
1.51105e-06
3.87598e-06
2.72681e-07
3.03105e-06
4.51327e-06
2.81519e-06
2.47784e-06
6.89542e-06
7.877e-06
9.35104e-06
7.77861e-06
2.07767e-05
2.76691e-06
1.00576e-05
1.72145e-05
5.59687e-06
1.26018e-05
6.56758e-06
1.83429e-06
4.3181e-06
4.58154e-07
4.49953e-06
1.35928e-06
3.28708e-07
1.43584e-06
2.34788e-07
3.65972e-06
6.32162e-06
4.6628e-06
1.88455e-06
1.08538e-06
2.77837e-06
2.84229e-06
4.25998e-06
1.27048e-06
4.83043e-06
6.36568e-06
7.58217e-06
1.50835e-05
2.74798e-05
7.30346e-06
3.149e-06
1.30718e-06
7.83273e-06
4.47182e-06
5.62574e-06
3.12358e-06
4.74041e-06
4.67503e-06
5.23055e-06
2.20696e-06
2.76648e-05
1.26454e-05
1.00896e-05
1.41953e-05
3.0894e-06
6.63314e-06
6.00252e-06
7.06286e-07
4.46011e-06
2.3187e-06
6.81684e-06
2.89874e-06
9.98083e-07
2.16546e-06
1.42106e-06
4.34122e-06
9.86286e-07
4.26869e-06
2.23573e-06
6.51028e-07
2.68204e-06
1.33127e-06
1.65289e-06
1.75505e-06
2.9043e-06
4.68361e-06
1.88298e-06
1.37025e-05
2.90146e-05
9.82616e-06
1.33581e-06
2.36669e-06
2.30975e-06
1.34936e-06
5.9161e-06
3.94561e-06
4.226e-06
4.22005e-06
1.11655e-05
1.23376e-06
2.96353e-05
3.13761e-06
2.9785e-06
3.28818e-06
3.64206e-06
3.57732e-06
5.13932e-06
4.08987e-06
9.17869e-06
1.58821e-05
5.30544e-06
2.0041e-06
3.57684e-06
6.8029e-06
1.26828e-05
2.90375e-06
9.74427e-07
1.3859e-06
2.79531e-06
1.0212e-06
1.4116e-06
3.79341e-06
4.45649e-06
8.80099e-06
1.63572e-06
3.17376e-06
1.66959e-07
6.20211e-06
5.62361e-06
2.33118e-06
4.17934e-07
7.48942e-07
3.27914e-07
8.7335e-07
3.72667e-06
2.71604e-06
7.54893e-07
1.91503e-06
4.20713e-06
2.44732e-06
1.8458e-05
2.47537e-06
3.30175e-06
8.90598e-07
1.39196e-06
1.92275e-06
3.59058e-06
4.78004e-06
5.60143e-07
1.09014e-06
3.14383e-06
8.94166e-07
2.17536e-06
7.034e-06
1.77096e-06
1.15211e-06
1.41387e-06
7.57436e-07
6.70828e-07
2.03077e-06
5.94628e-07
1.91357e-06
8.64319e-06
1.7961e-05
2.51922e-06
8.24894e-06
4.34849e-06
2.77387e-06
2.70059e-06
4.64711e-07
1.11423e-06
1.82985e-06
2.7502e-07
1.5171e-06
7.53402e-07
3.32299e-06
6.57288e-07
7.71965e-07
2.23566e-06
1.66624e-06
1.16484e-06
1.45604e-06
5.29581e-07
3.61794e-07
1.70496e-06
1.2569e-06
1.23647e-06
1.71511e-06
2.63427e-07
4.05056e-07
1.66549e-06
6.07912e-07
2.65167e-06
7.73783e-06
1.23957e-06
6.96929e-07
1.22205e-06
8.20521e-07
8.1377e-07
1.4366e-06
2.8767e-07
3.16377e-06
1.36366e-05
1.44007e-05
1.42775e-06
1.73249e-05
4.81503e-06
1.69166e-06
2.23732e-06
2.02973e-07
8.04546e-07
1.2979e-06
7.22103e-07
2.99478e-06
2.10436e-07
6.67533e-07
9.92048e-07
4.90539e-07
2.35734e-06
1.14168e-06
6.50829e-07
8.67936e-07
8.49451e-07
4.20631e-07
2.12929e-06
2.18728e-06
5.55009e-07
2.20832e-06
7.50356e-07
1.68603e-07
3.34454e-07
6.7288e-07
2.37459e-06
1.55383e-06
8.00042e-07
2.22174e-07
2.09457e-07
5.85616e-07
3.67223e-07
1.0747e-06
3.1986e-07
2.27009e-07
4.94069e-06
4.332e-06
1.32838e-06
7.10167e-07
9.25373e-07
1.07683e-06
1.45905e-06
5.65257e-08
4.37268e-07
5.41391e-07
5.69875e-07
2.29954e-06
2.11227e-08
1.57414e-07
8.71286e-07
1.5184e-07
1.26199e-06
6.48473e-07
4.87535e-07
2.62412e-07
6.57964e-07
5.04831e-08
4.5645e-08
2.25909e-06
1.48112e-07
7.69372e-07
6.47682e-07
2.96127e-10
6.208e-07
5.18964e-08
6.63072e-07
3.03765e-06
5.04081e-07
1.26807e-07
2.98438e-07
3.84851e-08
3.65091e-08
5.01754e-07
8.47234e-08
4.04776e-08
1.98281e-06
5.02801e-06
1.07189e-06
5.36126e-07
8.73883e-08
7.22607e-07
1.34328e-06
4.4339e-08
6.19423e-08
1.46837e-07
1.41063e-07
4.95885e-07
3.11295e-09
1.40187e-09
1.47739e-07
4.87526e-09
8.15265e-08
1.21043e-07
4.14604e-07
9.42929e-08
8.42894e-08
2.97521e-09
1.63565e-09
7.06402e-07
4.59012e-09
6.199e-08
7.34467e-08
6.5062e-08
2.03338e-07
1.39936e-08
7.9532e-08
3.22938e-06
2.76183e-07
5.60834e-08
2.15906e-07
6.18308e-09
3.13248e-08
5.79578e-08
1.55157e-08
1.06561e-08
1.48501e-06
4.20086e-06
7.23939e-07
2.96765e-07
2.7328e-08
8.28877e-08
1.08193e-06
2.04114e-08
7.20655e-09
1.02704e-08
1.98699e-08
2.43573e-08
6.47849e-10
7.25058e-09
9.46289e-09
4.0322e-10
7.76741e-09
1.45529e-08
3.40838e-07
2.39924e-08
9.87796e-09
5.45221e-09
2.57928e-09
3.09475e-08
3.19388e-09
7.1149e-09
2.17558e-08
2.0753e-07
1.84481e-08
2.71807e-08
4.25992e-08
1.08757e-06
2.67341e-08
2.24156e-08
1.09691e-07
2.81908e-09
2.28384e-08
3.38518e-09
9.46092e-10
1.59548e-08
1.77656e-07
2.9841e-06
2.16559e-07
5.90272e-08
4.58783e-09
6.86682e-09
3.32809e-07
2.88926e-09
2.55375e-09
2.85734e-09
6.13976e-09
2.99503e-10
8.6643e-11
8.8731e-09
1.03344e-09
1.24858e-10
2.59397e-09
5.94007e-10
7.50915e-08
3.12218e-09
3.61521e-08
8.84747e-09
2.13264e-09
3.69501e-10
8.98285e-10
8.76934e-10
3.01746e-08
4.96667e-08
1.45354e-09
3.43783e-08
2.10378e-08
1.70422e-07
2.35694e-09
5.54805e-09
4.73873e-08
3.93526e-09
1.35206e-08
2.20189e-10
2.02493e-10
3.56927e-08
5.56962e-09
6.82644e-07
3.12831e-08
4.57159e-09
8.1935e-09
9.10332e-10
7.40533e-08
5.72067e-11
8.13777e-10
2.79261e-09
6.83073e-10
2.15188e-11
1.87274e-10
4.85838e-09
2.62105e-10
3.81675e-11
3.10792e-09
1.4662e-09
1.71349e-09
4.46373e-09
4.76762e-08
1.32238e-09
3.89927e-10
7.46513e-12
5.43319e-10
9.37009e-09
1.76809e-08
9.14605e-10
4.24654e-09
1.08054e-08
2.22867e-09
5.69996e-08
2.09854e-09
1.18477e-09
2.07903e-08
9.28273e-09
2.83545e-09
2.56071e-10
2.06906e-10
5.16629e-08
4.72727e-10
3.97261e-08
1.13487e-08
6.68762e-10
2.74927e-08
1.06336e-10
5.4795e-09
5.58117e-10
3.24568e-10
6.89438e-10
9.08606e-10
2.2152e-09
6.3028e-11
3.34986e-09
8.06436e-11
9.58051e-12
3.91046e-09
9.92982e-10
4.47606e-12
1.39755e-08
8.84643e-09
2.4622e-10
1.79945e-10
1.16435e-11
5.04003e-10
2.74411e-08
1.02217e-09
1.77041e-12
6.28617e-09
9.10929e-10
2.2864e-10
3.10952e-08
3.03101e-09
1.85863e-09
2.77422e-08
9.36474e-09
3.40249e-10
1.04517e-09
3.92492e-10
2.21892e-08
4.4359e-10
1.0803e-10
2.76673e-08
1.46964e-09
9.53131e-09
2.77371e-11
9.76794e-12
1.24619e-09
6.1593e-11
1.34926e-09
3.29239e-09
1.57173e-09
2.53255e-10
6.35353e-09
4.67486e-11
6.53069e-12
4.44189e-09
1.73778e-10
1.86039e-11
4.44297e-09
4.97486e-10
5.42444e-10
4.30257e-10
1.17154e-11
1.12609e-09
1.8662e-08
3.68012e-11
1.17408e-10
2.73382e-09
7.72638e-12
9.46768e-12
1.35686e-08
2.25688e-09
2.29223e-08
4.0435e-08