/*--------------------------------*- C++ -*----------------------------------*\
  =========                 |
  \\      /  F ield         | OpenFOAM: The Open Source CFD Toolbox
   \\    /   O peration     | Website:  https://openfoam.org
    \\  /    A nd           | Version:  10
     \\/     M anipulation  |
\*---------------------------------------------------------------------------*/
FoamFile
{
    format      ascii;
    class       surfaceScalarField;
    location    "20";
    object      phi_0;
}
// * * * * * * * * * * * * * * * * * * * * * * * * * * * * * * * * * * * * * //

dimensions      [0 3 -1 0 0 0 0];

internalField   nonuniform List<scalar> 
300480
(
1.03911e-05
3.28175e-08
-2.49161e-08
1.03918e-05
2.40038e-08
-2.59487e-08
1.03891e-05
2.67607e-08
-1.36574e-08
1.03851e-05
2.43548e-08
-2.1285e-08
1.03903e-05
2.11763e-08
-7.25258e-09
1.0383e-05
3.2138e-08
-2.28667e-08
1.03887e-05
2.03237e-08
-9.36285e-09
1.03924e-05
2.29249e-08
-2.2282e-08
1.03885e-05
2.89932e-08
-1.32036e-08
1.03964e-05
2.15626e-08
-1.75319e-08
1.03948e-05
3.42619e-08
-2.05994e-08
1.04018e-05
2.1948e-08
-2.68777e-08
1.03966e-05
3.43423e-08
-1.83296e-08
1.04088e-05
1.69257e-08
-3.13487e-08
1.0405e-05
3.68989e-08
-2.60212e-08
1.04021e-05
3.31102e-08
-2.99119e-08
1.04154e-05
1.48822e-08
-2.93275e-08
1.04072e-05
3.47885e-08
-2.70095e-08
1.04197e-05
1.47552e-08
-2.6382e-08
1.04108e-05
4.10374e-08
-3.57909e-08
1.04185e-05
2.59014e-08
-2.86281e-08
1.04233e-05
2.66242e-08
-3.78532e-08
1.04211e-05
2.9087e-08
-2.35304e-08
1.04293e-05
1.96026e-08
-3.55099e-08
1.04263e-05
3.8011e-08
-2.80598e-08
1.04322e-05
3.23875e-08
-4.54828e-08
1.04292e-05
3.47158e-08
-3.17883e-08
1.04338e-05
2.33778e-08
-3.57473e-08
1.04382e-05
2.33355e-08
-3.04214e-08
1.04301e-05
4.0749e-08
-4.16198e-08
1.04298e-05
3.45566e-08
-3.90149e-08
1.04324e-05
3.30585e-08
-4.57094e-08
1.0426e-05
2.99703e-08
-3.51259e-08
1.04209e-05
2.96403e-08
-3.36617e-08
1.04248e-05
2.61972e-08
-3.67938e-08
1.04112e-05
4.25778e-08
-4.05016e-08
1.04093e-05
3.13699e-08
-2.90194e-08
1.04088e-05
2.56551e-08
-3.9319e-08
1.03989e-05
2.79741e-08
-1.62693e-08
2.64468e-08
-2.94495e-08
3.51796e-05
1.28208e-07
-7.2642e-08
3.51743e-05
1.07503e-07
-8.25215e-08
3.51618e-05
1.12777e-07
-4.66401e-08
3.51529e-05
1.02797e-07
-6.8305e-08
3.51549e-05
9.91402e-08
-2.92625e-08
3.51433e-05
1.21128e-07
-6.87009e-08
3.5153e-05
9.12351e-08
-2.7573e-08
3.51552e-05
1.02447e-07
-6.71427e-08
3.51543e-05
1.10499e-07
-3.34631e-08
3.51688e-05
9.62126e-08
-6.09882e-08
3.51702e-05
1.26665e-07
-5.38572e-08
3.51842e-05
9.71121e-08
-7.74646e-08
3.51817e-05
1.26554e-07
-5.53508e-08
3.52035e-05
8.41022e-08
-9.20504e-08
3.51991e-05
1.38491e-07
-7.18569e-08
3.52048e-05
1.16485e-07
-9.21097e-08
3.52237e-05
8.52427e-08
-8.13318e-08
3.52161e-05
1.28537e-07
-8.97471e-08
3.52376e-05
8.29087e-08
-8.32148e-08
3.52274e-05
1.49632e-07
-1.06586e-07
3.52483e-05
1.05771e-07
-8.80296e-08
3.52546e-05
1.17193e-07
-1.11174e-07
3.52598e-05
1.16768e-07
-8.07319e-08
3.52749e-05
1.01431e-07
-1.13782e-07
3.52772e-05
1.44493e-07
-9.10867e-08
3.5292e-05
1.31315e-07
-1.34699e-07
3.52917e-05
1.35843e-07
-9.46343e-08
3.53051e-05
1.0725e-07
-1.21239e-07
3.53093e-05
1.13924e-07
-1.00284e-07
3.5301e-05
1.54254e-07
-1.35446e-07
3.53033e-05
1.36469e-07
-1.17353e-07
3.53032e-05
1.36473e-07
-1.40016e-07
3.52897e-05
1.25285e-07
-1.09837e-07
3.52803e-05
1.24224e-07
-1.20687e-07
3.5277e-05
1.20697e-07
-1.15609e-07
3.52508e-05
1.57812e-07
-1.26158e-07
3.52433e-05
1.27772e-07
-9.82174e-08
3.523e-05
1.16776e-07
-1.19592e-07
3.52077e-05
1.16735e-07
-6.47732e-08
1.18617e-07
-1.03629e-07
6.67632e-05
2.99808e-07
-1.44043e-07
6.67436e-05
2.6777e-07
-1.64942e-07
6.67151e-05
2.72076e-07
-9.99967e-08
6.66913e-05
2.53771e-07
-1.37804e-07
6.66804e-05
2.48272e-07
-6.60352e-08
6.66576e-05
2.8031e-07
-1.27637e-07
6.66596e-05
2.2749e-07
-5.19808e-08
6.66535e-05
2.50005e-07
-1.18005e-07
6.665e-05
2.52831e-07
-5.19851e-08
6.6664e-05
2.34336e-07
-1.05704e-07
6.66667e-05
2.82341e-07
-7.92863e-08
6.6684e-05
2.32153e-07
-1.24533e-07
6.66856e-05
2.79388e-07
-8.40333e-08
6.67116e-05
2.09073e-07
-1.45966e-07
6.67125e-05
3.04251e-07
-1.11561e-07
6.67249e-05
2.54924e-07
-1.49963e-07
6.67474e-05
2.16027e-07
-1.25447e-07
6.67444e-05
2.82554e-07
-1.54092e-07
6.6771e-05
2.13036e-07
-1.35164e-07
6.6766e-05
3.22866e-07
-1.77393e-07
6.6796e-05
2.4926e-07
-1.45839e-07
6.68066e-05
2.74161e-07
-1.85188e-07
6.6821e-05
2.67655e-07
-1.39829e-07
6.68445e-05
2.52281e-07
-1.94285e-07
6.68587e-05
3.19014e-07
-1.54212e-07
6.68875e-05
3.01387e-07
-2.2613e-07
6.68966e-05
3.04543e-07
-1.60199e-07
6.69237e-05
2.5923e-07
-2.13682e-07
6.69366e-05
2.76907e-07
-1.74896e-07
6.69385e-05
3.41806e-07
-2.38641e-07
6.69498e-05
3.11052e-07
-2.01706e-07
6.69548e-05
3.13602e-07
-2.46077e-07
6.69422e-05
2.90357e-07
-1.95412e-07
6.69334e-05
2.91981e-07
-2.27221e-07
6.6927e-05
2.9084e-07
-2.08651e-07
6.68953e-05
3.4821e-07
-2.32478e-07
6.68812e-05
3.00173e-07
-1.88924e-07
6.6856e-05
2.8443e-07
-2.25556e-07
6.68198e-05
2.7589e-07
-1.38316e-07
2.91746e-07
-2.04813e-07
0.000106078
5.61914e-07
-2.55434e-07
0.000106042
5.17419e-07
-2.87324e-07
0.00010599
5.20648e-07
-1.90061e-07
0.000105941
4.96247e-07
-2.508e-07
0.000105904
4.87973e-07
-1.36886e-07
0.000105855
5.31573e-07
-2.20816e-07
0.000105833
4.46152e-07
-9.76266e-08
0.000105801
4.87146e-07
-1.91522e-07
0.000105779
4.71425e-07
-7.96822e-08
0.000105776
4.49051e-07
-1.53019e-07
0.000105768
5.14417e-07
-1.04632e-07
0.000105776
4.35028e-07
-1.64085e-07
0.000105774
5.01578e-07
-1.01608e-07
0.000105795
3.97959e-07
-1.83846e-07
0.000105798
5.35709e-07
-1.34959e-07
0.000105812
4.5855e-07
-1.93768e-07
0.000105833
4.05701e-07
-1.47035e-07
0.000105834
4.92819e-07
-2.00662e-07
0.000105861
4.06071e-07
-1.70622e-07
0.000105862
5.53506e-07
-2.30427e-07
0.000105898
4.5442e-07
-1.88223e-07
0.000105912
4.93278e-07
-2.4484e-07
0.000105935
4.75024e-07
-1.83425e-07
0.000105969
4.70421e-07
-2.63634e-07
0.000105998
5.5315e-07
-1.99985e-07
0.000106048
5.38231e-07
-3.07688e-07
0.000106074
5.32639e-07
-2.10875e-07
0.000106124
4.74146e-07
-2.9517e-07
0.00010616
5.02143e-07
-2.37924e-07
0.000106185
5.96283e-07
-3.3554e-07
0.000106222
5.5254e-07
-2.81532e-07
0.000106248
5.61655e-07
-3.52993e-07
0.000106251
5.216e-07
-2.80479e-07
0.000106259
5.28501e-07
-3.39115e-07
0.000106265
5.37869e-07
-3.13185e-07
0.000106241
6.07035e-07
-3.48848e-07
0.000106233
5.47965e-07
-2.9717e-07
0.000106205
5.36662e-07
-3.64678e-07
0.000106161
5.07759e-07
-2.3561e-07
5.55998e-07
-3.43076e-07
0.000153864
9.09705e-07
-4.05991e-07
0.000153826
8.55615e-07
-4.51465e-07
0.000153761
8.53492e-07
-3.20692e-07
0.00015369
8.36857e-07
-4.19208e-07
0.000153625
8.28511e-07
-2.62883e-07
0.000153539
8.99124e-07
-3.78915e-07
0.000153482
7.63521e-07
-1.90031e-07
0.000153406
8.3445e-07
-3.18413e-07
0.000153342
7.94732e-07
-1.54291e-07
0.0001533
7.54752e-07
-2.21363e-07
0.000153256
8.48407e-07
-1.62515e-07
0.000153227
7.24204e-07
-2.14243e-07
0.000153203
8.0798e-07
-1.26399e-07
0.000153193
6.71842e-07
-2.18395e-07
0.00015318
8.35473e-07
-1.40868e-07
0.000153179
7.39418e-07
-2.28136e-07
0.000153182
6.66719e-07
-1.4925e-07
0.000153177
7.52598e-07
-2.11715e-07
0.000153189
6.66505e-07
-1.83935e-07
0.000153186
8.37739e-07
-2.47899e-07
0.000153219
7.12388e-07
-1.98798e-07
0.00015323
7.7022e-07
-2.74989e-07
0.000153249
7.23749e-07
-1.91025e-07
0.000153288
7.47022e-07
-3.04563e-07
0.000153325
8.27766e-07
-2.04537e-07
0.000153394
8.30243e-07
-3.62464e-07
0.000153441
8.04861e-07
-2.24038e-07
0.000153514
7.35682e-07
-3.40219e-07
0.000153586
7.72568e-07
-2.632e-07
0.00015365
8.93898e-07
-3.95317e-07
0.00015373
8.44596e-07
-3.29757e-07
0.000153801
8.67359e-07
-4.38319e-07
0.00015384
8.11169e-07
-3.45515e-07
0.000153888
8.09181e-07
-4.22406e-07
0.000153932
8.52019e-07
-4.13249e-07
0.00015394
9.18197e-07
-4.49301e-07
0.000153966
8.3882e-07
-3.85804e-07
0.000153962
8.68362e-07
-5.25556e-07
0.000153934
7.98254e-07
-3.37459e-07
8.97096e-07
-5.01086e-07
0.000210442
1.30179e-06
-5.53778e-07
0.000210443
1.25628e-06
-6.28901e-07
0.000210406
1.24106e-06
-4.6582e-07
0.000210347
1.24765e-06
-6.16407e-07
0.000210296
1.2377e-06
-4.21951e-07
0.000210192
1.37132e-06
-6.09039e-07
0.000210116
1.18429e-06
-3.51609e-07
0.000210006
1.27985e-06
-5.08902e-07
0.000209898
1.25123e-06
-3.31267e-07
0.000209807
1.15575e-06
-3.36247e-07
0.000209717
1.29482e-06
-2.93988e-07
0.000209623
1.13431e-06
-3.28608e-07
0.000209551
1.20948e-06
-1.99143e-07
0.000209478
1.06793e-06
-3.04369e-07
0.000209417
1.22122e-06
-1.62926e-07
0.000209375
1.0976e-06
-2.70089e-07
0.000209319
1.04374e-06
-1.84823e-07
0.000209284
1.07861e-06
-2.04537e-07
0.000209244
1.00881e-06
-1.93246e-07
0.000209213
1.19376e-06
-2.43166e-07
0.000209209
1.0204e-06
-1.73873e-07
0.000209196
1.11957e-06
-2.81198e-07
0.000209179
1.01195e-06
-1.58825e-07
0.00020919
1.08756e-06
-3.18034e-07
0.00020922
1.12126e-06
-1.44612e-07
0.000209275
1.16681e-06
-3.74361e-07
0.000209332
1.12166e-06
-1.92107e-07
0.000209403
1.02467e-06
-3.28884e-07
0.000209498
1.07781e-06
-2.31592e-07
0.0002096
1.2048e-06
-3.81299e-07
0.000209726
1.15e-06
-3.01449e-07
0.00020986
1.18707e-06
-4.5547e-07
0.000209952
1.15027e-06
-3.74725e-07
0.000210058
1.10695e-06
-4.31824e-07
0.00021017
1.19309e-06
-4.67353e-07
0.000210231
1.28465e-06
-5.18936e-07
0.000210323
1.11223e-06
-3.84461e-07
0.000210384
1.23985e-06
-6.58524e-07
0.000210407
1.12525e-06
-4.11077e-07
1.26365e-06
-6.15625e-07
0.000275522
1.65421e-06
-6.03121e-07
0.000275602
1.65633e-06
-7.39257e-07
0.000275667
1.63661e-06
-5.69108e-07
0.000275666
1.69884e-06
-7.98374e-07
0.000275708
1.64926e-06
-5.39477e-07
0.000275666
1.83204e-06
-8.13923e-07
0.00027563
1.67958e-06
-5.61598e-07
0.000275552
1.7698e-06
-7.13337e-07
0.000275449
1.8224e-06
-6.28235e-07
0.000275345
1.65477e-06
-5.19907e-07
0.000275256
1.78285e-06
-4.7262e-07
0.000275121
1.66797e-06
-5.40738e-07
0.000275018
1.71062e-06
-3.6242e-07
0.000274879
1.60153e-06
-5.04627e-07
0.00027475
1.74303e-06
-2.92915e-07
0.000274668
1.48767e-06
-3.2188e-07
0.000274516
1.53586e-06
-3.07009e-07
0.000274436
1.52471e-06
-2.607e-07
0.000274299
1.4651e-06
-2.6296e-07
0.000274206
1.6689e-06
-2.93094e-07
0.000274117
1.37534e-06
-1.35638e-07
0.000274034
1.56745e-06
-3.03468e-07
0.000273953
1.36962e-06
-1.20397e-07
0.000273856
1.56438e-06
-3.78497e-07
0.000273836
1.47767e-06
-6.14423e-08
0.000273812
1.50879e-06
-3.26845e-07
0.000273826
1.4934e-06
-1.30505e-07
0.000273848
1.35842e-06
-2.74522e-07
0.000273894
1.46362e-06
-1.83336e-07
0.000273985
1.55337e-06
-3.07866e-07
0.000274109
1.4584e-06
-1.77598e-07
0.000274284
1.46007e-06
-3.31784e-07
0.000274425
1.5049e-06
-3.40348e-07
0.000274581
1.45084e-06
-3.65469e-07
0.000274767
1.4923e-06
-4.05908e-07
0.000274888
1.70928e-06
-5.52843e-07
0.000275043
1.35546e-06
-2.52602e-07
0.000275197
1.57622e-06
-6.72907e-07
0.000275286
1.48236e-06
-4.34198e-07
1.60447e-06
-6.12581e-07
0.000348271
1.93948e-06
-5.03079e-07
0.000348422
1.94085e-06
-6.4264e-07
0.000348641
1.92577e-06
-4.82546e-07
0.000348725
2.16091e-06
-9.10298e-07
0.000348883
2.15957e-06
-6.48407e-07
0.000348991
2.18642e-06
-8.68803e-07
0.000349078
2.07318e-06
-6.70268e-07
0.000349135
2.1836e-06
-7.77691e-07
0.000349139
2.41959e-06
-9.47622e-07
0.000349085
2.32753e-06
-8.34336e-07
0.000349083
2.26119e-06
-6.52465e-07
0.00034901
2.13252e-06
-7.2491e-07
0.000348975
2.22116e-06
-5.52405e-07
0.000348873
2.22402e-06
-7.92962e-07
0.00034869
2.50175e-06
-6.73763e-07
0.00034863
1.94097e-06
-4.34036e-07
0.000348419
1.96736e-06
-4.31579e-07
0.00034835
2.00365e-06
-3.82143e-07
0.000348153
2.04184e-06
-4.40391e-07
0.000347985
2.38404e-06
-5.81607e-07
0.000347822
1.79792e-06
-1.66065e-07
0.000347621
2.0348e-06
-3.53103e-07
0.000347509
1.73833e-06
-6.20208e-08
0.000347263
2.19723e-06
-5.65095e-07
0.000347115
2.13133e-06
-1.94287e-07
0.000346945
1.93918e-06
-3.12168e-07
0.000346817
1.87607e-06
-5.73085e-08
0.000346745
1.6838e-06
-1.58303e-07
0.00034666
1.99335e-06
-1.97444e-07
0.000346632
2.10431e-06
-3.40876e-07
0.000346623
1.89784e-06
-1.01875e-07
0.000346723
1.70745e-06
-6.41847e-08
0.000346836
1.73926e-06
-1.55539e-07
0.000346984
1.92791e-06
-2.82811e-07
0.000347193
1.8417e-06
-2.63876e-07
0.000347345
2.1832e-06
-5.51756e-07
0.000347507
1.59828e-06
-5.82292e-09
0.000347728
1.79969e-06
-4.51982e-07
0.000347854
1.86413e-06
-3.98701e-07
2.00255e-06
-5.3143e-07
0.000427669
2.55561e-06
-5.30588e-07
0.000427776
2.27124e-06
-4.72241e-07
0.000428094
1.90608e-06
5.70888e-09
0.000428302
2.26709e-06
-5.96538e-07
0.000428503
2.87183e-06
-7.75696e-07
0.000428696
2.84976e-06
-9.96939e-07
0.000428883
2.41456e-06
-6.86009e-07
0.000429133
2.26074e-06
-4.50632e-07
0.000429387
2.65586e-06
-8.69108e-07
0.000429464
3.14253e-06
-1.19875e-06
0.000429552
3.10667e-06
-1.06258e-06
0.00042959
2.55132e-06
-8.5763e-07
0.000429717
2.39266e-06
-5.07072e-07
0.000429879
2.53797e-06
-7.91279e-07
0.000429769
3.44837e-06
-1.24873e-06
0.000429762
2.85715e-06
-9.46268e-07
0.000429539
2.4227e-06
-5.84863e-07
0.000429553
2.17522e-06
-3.57583e-07
0.000429523
2.30277e-06
-3.74954e-07
0.000429392
3.31864e-06
-1.12718e-06
0.00042925
2.65292e-06
-5.92977e-07
0.000428927
2.57034e-06
-5.67734e-07
0.000428841
1.84431e-06
1.50885e-07
0.000428639
2.51845e-06
-5.29558e-07
0.000428433
3.10123e-06
-6.72449e-07
0.00042813
2.87962e-06
-7.12853e-07
0.000427762
2.49004e-06
-2.27519e-07
0.00042754
1.81454e-06
9.6294e-08
0.000427334
2.32866e-06
-7.45442e-08
0.000427203
2.93085e-06
-5.69984e-07
0.000426957
2.8274e-06
-5.01737e-07
0.000426795
2.30815e-06
-1.09182e-08
0.000426716
1.73891e-06
2.63557e-07
0.000426733
2.24515e-06
-4.74578e-08
0.000426865
2.45077e-06
-1.87883e-07
0.000426956
2.97872e-06
-7.41299e-07
0.000427004
2.09295e-06
6.06037e-08
0.000427172
1.8346e-06
7.48521e-08
0.0004273
2.02826e-06
-9.3423e-08
2.6044e-06
-4.6456e-07
0.000512852
3.60544e-06
-7.6152e-07
0.000512758
3.51962e-06
-9.42884e-07
0.000512857
2.24262e-06
3.25979e-07
0.000513115
1.6071e-06
4.86355e-07
0.000513383
2.87355e-06
-2.55401e-07
0.000513571
3.97014e-06
-1.24292e-06
0.000513619
3.65514e-06
-1.18919e-06
0.000513796
2.54392e-06
-1.26218e-07
0.000514273
2.07752e-06
2.97233e-08
0.000514674
3.13369e-06
-7.89443e-07
0.000514933
4.32143e-06
-1.63351e-06
0.000514968
3.87712e-06
-1.47855e-06
0.000515052
2.70329e-06
-4.89838e-07
0.000515508
1.979e-06
-3.59797e-08
0.000515804
3.50669e-06
-1.08269e-06
0.00051603
4.16844e-06
-1.83774e-06
0.000515794
3.8389e-06
-1.37462e-06
0.000515657
2.61288e-06
-5.44202e-07
0.00051581
1.72946e-06
3.9832e-07
0.000516006
3.36376e-06
-1.01978e-06
0.000516173
3.85669e-06
-1.35104e-06
0.000515855
3.96027e-06
-1.4568e-06
0.000515633
2.21448e-06
5.8337e-08
0.000515559
1.92253e-06
2.5667e-07
0.00051562
3.23988e-06
-6.46722e-07
0.000515572
4.11514e-06
-1.44768e-06
0.000515117
4.05122e-06
-1.25121e-06
0.000514663
2.32456e-06
2.5662e-08
0.000514279
1.90194e-06
5.21129e-07
0.000514193
3.11056e-06
-3.23768e-07
0.000513976
4.07615e-06
-1.2752e-06
0.000513582
3.96168e-06
-9.29051e-07
0.000513163
2.233e-06
3.38632e-07
0.000512896
1.90174e-06
6.62933e-07
0.000512896
2.58422e-06
2.47744e-07
0.000512913
4.12655e-06
-1.1182e-06
0.000512786
3.56245e-06
-6.91274e-07
0.000512665
2.31322e-06
3.12911e-07
0.000512697
1.60316e-06
7.42302e-07
2.65033e-06
6.08754e-08
0.000602539
3.6059e-06
-4.02866e-07
0.000602422
5.28405e-06
-1.92567e-06
0.000602073
4.2703e-06
-5.74594e-07
0.00060191
1.50386e-06
1.42492e-06
0.00060211
1.54065e-06
1.29679e-06
0.00060248
3.92064e-06
-7.95034e-07
0.000602509
5.5414e-06
-2.19934e-06
0.000602248
4.44868e-06
-7.57273e-07
0.000602342
2.02803e-06
9.73708e-07
0.000602808
1.76181e-06
9.1164e-07
0.000603494
4.19946e-06
-1.28404e-06
0.000603816
5.77302e-06
-2.51242e-06
0.000603673
4.59435e-06
-1.30757e-06
0.00060381
1.89322e-06
7.75809e-07
0.000604309
2.06236e-06
5.49608e-07
0.000605108
4.0143e-06
-1.81873e-06
0.000605351
5.70326e-06
-2.63377e-06
0.00060507
4.61749e-06
-1.76264e-06
0.000604826
1.74701e-06
1.03937e-06
0.000604991
1.96378e-06
4.40981e-07
0.000605644
3.69771e-06
-1.28107e-06
0.000605891
5.7115e-06
-2.67876e-06
0.00060562
4.15543e-06
-1.21179e-06
0.000605295
1.7452e-06
1.08919e-06
0.00060536
1.91365e-06
6.29697e-07
0.000605837
3.91197e-06
-1.27458e-06
0.000605954
5.80204e-06
-2.7313e-06
0.000605607
4.30947e-06
-1.20299e-06
0.000604964
1.88084e-06
9.92081e-07
0.000604707
1.92448e-06
9.36252e-07
0.000604776
4.03291e-06
-1.24992e-06
0.000604643
5.90218e-06
-2.45811e-06
0.000604129
4.33461e-06
-9.1089e-07
0.000603463
2.01617e-06
1.17977e-06
0.000603222
1.57082e-06
1.49549e-06
0.000603283
4.1781e-06
-8.08122e-07
0.000603276
5.46777e-06
-1.93237e-06
0.000602913
4.37483e-06
-7.05501e-07
0.000602604
1.76392e-06
1.3501e-06
1.56709e-06
1.40326e-06
0.000694312
2.28969e-06
1.19779e-06
0.000694627
5.42862e-06
-2.45268e-06
0.000694476
6.58458e-06
-2.56812e-06
0.000693734
3.26594e-06
1.11861e-06
0.000693174
9.56672e-07
3.23967e-06
0.000693435
2.37327e-06
1.0149e-06
0.000693974
5.80008e-06
-2.86528e-06
0.000693862
6.72196e-06
-2.59253e-06
0.000693374
3.79008e-06
7.68838e-07
0.000693009
1.19232e-06
3.06326e-06
0.000693521
2.55277e-06
6.90575e-07
0.000694444
6.02583e-06
-3.02533e-06
0.000694731
6.81178e-06
-3.05071e-06
0.000694441
3.626e-06
5.43085e-07
0.00069424
1.35135e-06
2.87228e-06
0.000694992
2.2598e-06
6.61613e-08
0.000695983
5.76699e-06
-3.20385e-06
0.000696402
6.74254e-06
-3.81213e-06
0.000695964
3.53877e-06
4.49223e-07
0.000695393
1.274e-06
2.45432e-06
0.000695725
2.05595e-06
3.53556e-07
0.00069662
5.72796e-06
-3.13056e-06
0.000696959
6.3276e-06
-3.35278e-06
0.000696506
3.32636e-06
8.45482e-07
0.000696048
1.17772e-06
2.55793e-06
0.000696361
2.22228e-06
5.64564e-07
0.000697144
5.73075e-06
-3.40452e-06
0.000697521
6.33637e-06
-3.26309e-06
0.000696998
3.41965e-06
5.27757e-07
0.00069631
1.14313e-06
2.76052e-06
0.000696349
2.39623e-06
3.71322e-07
0.000696807
5.95104e-06
-3.3156e-06
0.000696814
6.55393e-06
-3.18966e-06
0.000695951
3.67979e-06
5.70501e-07
0.00069515
1.09741e-06
3.14051e-06
0.000695099
2.84403e-06
7.85173e-07
0.000695588
5.73354e-06
-2.59907e-06
0.000695646
6.59587e-06
-2.65468e-06
0.000695099
3.55167e-06
8.77132e-07
1.14763e-06
3.0975e-06
0.0007866
1.79956e-06
3.66287e-06
0.000786903
4.37172e-06
-1.20109e-06
0.000787553
6.80245e-06
-4.18544e-06
0.000787236
4.69207e-06
-8.49083e-07
0.000786041
1.85466e-06
4.03786e-06
0.000785404
1.7538e-06
3.69125e-06
0.00078597
4.75796e-06
-1.69329e-06
0.000786572
6.99776e-06
-4.27849e-06
0.000786478
5.15678e-06
-1.15307e-06
0.000785492
2.08956e-06
3.96495e-06
0.000784949
1.79594e-06
3.55794e-06
0.000785663
5.04845e-06
-1.70453e-06
0.000786652
7.08129e-06
-4.50791e-06
0.000786853
5.00387e-06
-1.27176e-06
0.000786079
2.22604e-06
3.93895e-06
0.000785888
1.37181e-06
3.16355e-06
0.000786697
4.58161e-06
-1.72204e-06
0.000787914
6.8104e-06
-5.20434e-06
0.000788221
4.8679e-06
-1.55022e-06
0.000787384
1.97373e-06
3.45024e-06
0.000786758
1.23453e-06
2.93702e-06
0.000787369
4.52811e-06
-1.69762e-06
0.0007884
6.51968e-06
-4.97219e-06
0.000788459
4.71375e-06
-9.77012e-07
0.000787742
1.86564e-06
3.5525e-06
0.000787273
1.36907e-06
3.4337e-06
0.000787893
4.48585e-06
-1.98482e-06
0.000788962
6.31066e-06
-4.80649e-06
0.000789135
4.64526e-06
-1.29151e-06
0.000788277
1.67735e-06
3.73886e-06
0.000787727
1.43624e-06
3.17629e-06
0.000788286
4.60371e-06
-2.10195e-06
0.000789161
6.61175e-06
-4.90792e-06
0.000788906
4.89392e-06
-1.50052e-06
0.000787689
1.82547e-06
3.7912e-06
0.000786918
2.17498e-06
3.33186e-06
0.000787416
4.7712e-06
-1.48264e-06
0.000788288
6.77308e-06
-4.18394e-06
0.000788365
4.86847e-06
-1.01986e-06
1.93197e-06
3.84591e-06
0.000880044
2.22187e-06
4.89397e-06
0.000879817
3.74732e-06
1.18979e-06
0.000880551
5.66205e-06
-3.54653e-06
0.00088094
4.21416e-06
-2.48162e-06
0.000880153
2.32081e-06
2.88761e-06
0.000879086
2.20994e-06
5.14913e-06
0.000879075
4.1483e-06
8.02308e-07
0.000879705
5.93871e-06
-3.66713e-06
0.000880211
4.66542e-06
-2.86276e-06
0.000879656
2.49688e-06
2.83522e-06
0.000878655
2.09156e-06
5.02667e-06
0.000878588
4.48888e-06
8.45202e-07
0.000879382
6.0872e-06
-3.8419e-06
0.000880136
4.47313e-06
-2.82793e-06
0.000879716
2.67433e-06
2.88325e-06
0.000879067
1.6428e-06
4.87053e-06
0.000879089
3.91615e-06
9.93196e-07
0.000880051
5.67204e-06
-4.26127e-06
0.000880927
4.30012e-06
-3.10015e-06
0.000880671
2.26114e-06
2.53947e-06
0.000879796
1.3972e-06
4.4008e-06
0.000879647
3.82705e-06
8.67101e-07
0.000880518
5.39403e-06
-4.26903e-06
0.000881038
4.352e-06
-2.58938e-06
0.000880732
2.26398e-06
2.62198e-06
0.000880002
1.60843e-06
5.00726e-06
0.00087994
3.87903e-06
6.71312e-07
0.000880818
5.06481e-06
-4.09231e-06
0.000881512
4.09373e-06
-2.76735e-06
0.000881136
1.89757e-06
2.83637e-06
0.000880348
1.56459e-06
4.84765e-06
0.000880396
3.71105e-06
5.38872e-07
0.000881335
5.28581e-06
-4.19063e-06
0.000881816
4.24589e-06
-3.11129e-06
0.000881071
2.03836e-06
2.70971e-06
0.000879977
2.39265e-06
4.65645e-06
0.000879893
4.1501e-06
8.92739e-07
0.000880743
5.67913e-06
-3.58968e-06
0.000881467
4.34654e-06
-2.55842e-06
2.21263e-06
2.77102e-06
0.000975973
2.34263e-06
4.20385e-06
0.000975637
3.37827e-06
2.50947e-06
0.000975879
4.39184e-06
-1.60243e-06
0.00097622
2.86532e-06
-2.27809e-06
0.000976043
1.80945e-06
1.35706e-06
0.000975458
2.42143e-06
4.47571e-06
0.000975261
3.77547e-06
2.31085e-06
0.000975408
4.74795e-06
-1.6323e-06
0.000975773
3.25266e-06
-2.62167e-06
0.000975755
1.95371e-06
1.32806e-06
0.000975241
2.14742e-06
4.38382e-06
0.000974963
4.09156e-06
2.40799e-06
0.000975094
4.9525e-06
-1.8275e-06
0.000975603
3.08526e-06
-2.55159e-06
0.000975629
2.15707e-06
1.36635e-06
0.000975359
1.73451e-06
4.32964e-06
0.000975128
3.51133e-06
2.58093e-06
0.000975353
4.48652e-06
-1.99933e-06
0.000975896
2.91747e-06
-2.72966e-06
0.000976078
1.73563e-06
1.22057e-06
0.000975751
1.41606e-06
3.91913e-06
0.000975416
3.42783e-06
2.38094e-06
0.000975667
4.13784e-06
-2.12796e-06
0.000975981
3.13056e-06
-2.42093e-06
0.000976067
1.80653e-06
1.22122e-06
0.000975804
1.66365e-06
4.4412e-06
0.000975546
3.60806e-06
2.2741e-06
0.000975755
3.82748e-06
-1.98312e-06
0.000976189
2.80235e-06
-2.548e-06
0.000976267
1.38037e-06
1.41993e-06
0.000975945
1.59092e-06
4.36746e-06
0.000975803
3.21436e-06
2.15821e-06
0.000976155
3.91121e-06
-1.98097e-06
0.00097654
2.82151e-06
-2.81169e-06
0.000976408
1.39833e-06
1.29916e-06
0.000975831
2.35364e-06
4.066e-06
0.000975577
3.72794e-06
2.28415e-06
0.000975833
4.47919e-06
-1.70012e-06
0.000976349
3.03326e-06
-2.40174e-06
1.59656e-06
1.36658e-06
0.00107665
2.04267e-06
2.71433e-06
0.00107659
2.7418e-06
2.27493e-06
0.0010765
3.15947e-06
-1.53519e-07
0.00107644
1.72812e-06
-1.13264e-06
0.00107647
1.15028e-06
5.81712e-07
0.00107647
2.17265e-06
2.95874e-06
0.00107649
3.07715e-06
2.20259e-06
0.00107635
3.58647e-06
-7.77904e-08
0.00107628
2.02918e-06
-1.3572e-06
0.00107637
1.29884e-06
6.42885e-07
0.00107639
1.80125e-06
2.85505e-06
0.00107639
3.32389e-06
2.33596e-06
0.00107618
3.77332e-06
-2.60842e-07
0.00107619
1.88663e-06
-1.25541e-06
0.00107626
1.49054e-06
6.45354e-07
0.00107642
1.44435e-06
2.8385e-06
0.00107641
2.81477e-06
2.46503e-06
0.00107625
3.34951e-06
-3.33556e-07
0.00107623
1.72796e-06
-1.3585e-06
0.00107637
1.18978e-06
5.98155e-07
0.00107654
1.11967e-06
2.60285e-06
0.00107647
2.79705e-06
2.29626e-06
0.00107636
2.94998e-06
-4.77432e-07
0.00107627
2.0491e-06
-1.22249e-06
0.00107637
1.26042e-06
5.18157e-07
0.00107656
1.3456e-06
2.9434e-06
0.00107655
3.06691e-06
2.17078e-06
0.00107638
2.73e-06
-3.7577e-07
0.00107631
1.73146e-06
-1.29782e-06
0.00107643
8.40844e-07
6.68863e-07
0.00107659
1.32755e-06
2.89404e-06
0.00107665
2.57953e-06
2.06628e-06
0.00107659
2.74019e-06
-3.26974e-07
0.00107651
1.67623e-06
-1.50579e-06
0.00107655
7.43107e-07
6.55227e-07
0.00107655
1.92739e-06
2.63138e-06
0.00107656
3.00607e-06
2.14245e-06
0.00107646
3.30658e-06
-2.69572e-07
0.00107646
1.91023e-06
-1.27681e-06
9.15515e-07
6.51178e-07
0.00118498
1.67153e-06
1.47674e-06
0.0011851
1.95812e-06
1.407e-06
0.00118497
2.05269e-06
3.44434e-07
0.00118472
1.01584e-06
-2.05986e-07
0.00118474
7.46928e-07
3.73671e-07
0.00118494
1.82414e-06
1.68389e-06
0.00118512
2.20074e-06
1.40023e-06
0.00118497
2.50073e-06
5.0496e-07
0.00118472
1.20326e-06
-3.3392e-07
0.00118473
9.00555e-07
5.21321e-07
0.0011849
1.41168e-06
1.57169e-06
0.0011851
2.36238e-06
1.56052e-06
0.00118489
2.61372e-06
3.3281e-07
0.0011847
1.07094e-06
-2.07012e-07
0.00118467
1.09362e-06
5.01036e-07
0.00118493
1.11338e-06
1.57872e-06
0.00118507
1.97962e-06
1.62963e-06
0.00118489
2.28683e-06
2.7571e-07
0.00118466
9.15883e-07
-2.56282e-07
0.00118466
9.37652e-07
4.81162e-07
0.00118494
8.33619e-07
1.46488e-06
0.00118504
2.0688e-06
1.52116e-06
0.0011849
1.89286e-06
1.64595e-07
0.00118466
1.29295e-06
-2.03322e-07
0.00118467
9.57429e-07
3.54881e-07
0.00118494
1.00558e-06
1.66612e-06
0.0011851
2.35996e-06
1.36298e-06
0.00118491
1.75143e-06
2.52481e-07
0.00118466
1.06267e-06
-2.92681e-07
0.00118467
5.84033e-07
4.61583e-07
0.00118494
1.04984e-06
1.6296e-06
0.00118513
1.87311e-06
1.25084e-06
0.001185
1.74776e-06
3.11853e-07
0.00118472
9.83146e-07
-4.70536e-07
0.00118472
4.25742e-07
5.39367e-07
0.00118491
1.48283e-06
1.41313e-06
0.00118511
2.14541e-06
1.3624e-06
0.00118496
2.21601e-06
2.40665e-07
0.00118474
1.1773e-06
-3.83925e-07
5.38177e-07
4.40605e-07
0.00130342
1.35378e-06
7.71413e-07
0.00130357
1.29474e-06
7.36371e-07
0.00130347
1.219e-06
3.67813e-07
0.00130324
5.8605e-07
2.21345e-07
0.00130324
5.05576e-07
2.94092e-07
0.00130341
1.50765e-06
9.58396e-07
0.00130359
1.43233e-06
7.46487e-07
0.00130351
1.6464e-06
5.62423e-07
0.00130329
6.49566e-07
1.2854e-07
0.00130327
6.58944e-07
4.97199e-07
0.00130339
1.1053e-06
8.25865e-07
0.00130359
1.54378e-06
9.10461e-07
0.00130346
1.69073e-06
3.90651e-07
0.00130331
5.14282e-07
2.64908e-07
0.00130324
8.63843e-07
4.62951e-07
0.00130343
8.46065e-07
8.50081e-07
0.00130355
1.27741e-06
9.59039e-07
0.00130346
1.45439e-06
3.50355e-07
0.00130325
3.78524e-07
2.44561e-07
0.00130321
8.18687e-07
4.40276e-07
0.00130341
6.28191e-07
7.88528e-07
0.00130352
1.46202e-06
8.87996e-07
0.00130343
1.09972e-06
2.58097e-07
0.00130324
7.65881e-07
2.79959e-07
0.00130322
7.89304e-07
3.00157e-07
0.00130339
7.44122e-07
9.2786e-07
0.00130357
1.73303e-06
7.18098e-07
0.00130346
9.96148e-07
3.50538e-07
0.00130324
6.33051e-07
1.8654e-07
0.00130321
4.72845e-07
3.68933e-07
0.0013034
8.44689e-07
8.94826e-07
0.00130358
1.28981e-06
5.9687e-07
0.00130349
1.02242e-06
4.13861e-07
0.00130325
5.50054e-07
4.99925e-10
0.00130323
2.98044e-07
4.95041e-07
0.00130336
1.14264e-06
6.90751e-07
0.00130357
1.4228e-06
7.31614e-07
0.00130348
1.36319e-06
2.71504e-07
0.00130328
6.98365e-07
3.09608e-08
3.42142e-07
3.43876e-07
0.00143368
1.08273e-06
4.36584e-07
0.00143379
8.23325e-07
3.91851e-07
0.00143373
6.75491e-07
2.9161e-07
0.00143355
3.30965e-07
3.14733e-07
0.00143355
3.129e-07
2.00896e-07
0.00143367
1.23677e-06
6.0809e-07
0.0014338
8.72605e-07
4.00871e-07
0.00143377
1.06295e-06
4.97394e-07
0.0014336
2.85469e-07
2.20537e-07
0.00143359
4.62687e-07
4.31195e-07
0.00143364
8.56048e-07
4.52325e-07
0.0014338
9.51407e-07
5.7053e-07
0.00143371
1.05743e-06
3.32485e-07
0.00143362
1.46338e-07
3.60915e-07
0.00143356
6.73991e-07
3.85986e-07
0.00143369
6.25668e-07
4.87277e-07
0.00143376
7.93559e-07
6.10044e-07
0.00143372
8.858e-07
2.86772e-07
0.00143357
3.68046e-08
3.6243e-07
0.00143354
6.93744e-07
3.51369e-07
0.00143367
4.57354e-07
4.41179e-07
0.00143375
1.02631e-06
5.51573e-07
0.0014337
5.86117e-07
2.05482e-07
0.00143356
3.98276e-07
3.91505e-07
0.00143355
6.39743e-07
2.153e-07
0.00143364
5.37812e-07
5.57745e-07
0.00143379
1.2733e-06
3.89762e-07
0.00143372
5.00535e-07
3.00897e-07
0.00143357
3.55319e-07
3.05437e-07
0.00143355
3.72389e-07
2.53532e-07
0.00143366
6.79718e-07
5.42765e-07
0.00143379
8.87988e-07
2.68699e-07
0.00143373
5.6463e-07
3.77458e-07
0.00143357
2.65321e-07
1.15568e-07
0.00143356
2.09669e-07
4.02852e-07
0.00143362
8.79707e-07
3.33537e-07
0.00143379
9.13206e-07
4.01299e-07
0.00143373
7.92911e-07
2.07558e-07
0.0014336
3.92931e-07
1.39915e-07
1.98752e-07
2.36234e-07
0.00157702
8.53126e-07
2.72722e-07
0.0015771
5.14287e-07
2.26335e-07
0.00157705
3.47458e-07
2.08815e-07
0.00157692
1.97991e-07
2.83411e-07
0.00157692
1.51745e-07
1.03941e-07
0.00157701
1.00649e-06
4.33535e-07
0.00157711
4.83457e-07
2.19789e-07
0.00157709
6.94982e-07
4.14848e-07
0.00157696
6.41808e-08
1.71088e-07
0.00157695
3.03684e-07
3.5393e-07
0.00157699
6.46049e-07
2.52974e-07
0.00157711
5.50633e-07
3.99529e-07
0.00157704
6.58236e-07
2.50842e-07
0.00157698
-7.28384e-08
3.09629e-07
0.00157693
5.09546e-07
2.97363e-07
0.00157703
4.38954e-07
2.94528e-07
0.00157706
4.77625e-07
4.39355e-07
0.00157705
5.23259e-07
1.91064e-07
0.00157692
-1.48337e-07
3.35086e-07
0.00157692
5.51171e-07
2.4249e-07
0.00157701
3.12554e-07
2.59141e-07
0.00157706
7.17924e-07
3.81797e-07
0.00157703
2.84604e-07
1.23262e-07
0.00157691
1.62933e-07
3.56715e-07
0.00157692
5.04638e-07
1.18064e-07
0.00157697
3.66978e-07
3.65885e-07
0.0015771
9.41393e-07
2.36026e-07
0.00157705
2.05066e-07
2.17847e-07
0.00157693
1.91165e-07
2.85167e-07
0.00157693
2.78537e-07
1.29686e-07
0.00157699
5.42997e-07
3.76978e-07
0.00157711
6.06566e-07
1.19864e-07
0.00157706
3.03728e-07
3.07502e-07
0.00157693
9.26759e-08
8.77404e-08
0.00157693
1.38154e-07
2.9831e-07
0.00157696
6.73124e-07
1.55842e-07
0.0015771
5.7346e-07
2.41772e-07
0.00157704
4.44406e-07
1.35182e-07
0.00157696
2.12802e-07
1.29976e-07
9.43813e-08
1.32776e-07
0.00173471
6.57052e-07
1.80556e-07
0.00173477
3.1643e-07
1.35944e-07
0.00173473
1.60877e-07
1.2984e-07
0.00173462
1.52533e-07
2.29958e-07
0.00173463
1.8282e-08
2.55607e-08
0.00173471
8.17409e-07
3.32831e-07
0.00173477
2.24603e-07
1.03594e-07
0.00173477
4.80184e-07
3.39432e-07
0.00173466
-5.02467e-08
8.86819e-08
0.00173466
1.88919e-07
2.9236e-07
0.00173469
4.69916e-07
1.23361e-07
0.00173478
2.94663e-07
2.95384e-07
0.00173472
4.20443e-07
1.72721e-07
0.00173467
-1.78109e-07
2.25439e-07
0.00173464
3.70644e-07
2.29291e-07
0.00173473
2.85546e-07
1.67632e-07
0.00173473
2.81773e-07
3.39825e-07
0.00173475
2.96915e-07
9.38234e-08
0.0017346
-2.097e-07
2.78178e-07
0.00173464
4.02317e-07
1.48339e-07
0.00173469
2.05494e-07
1.51124e-07