/*--------------------------------*- C++ -*----------------------------------*\
  =========                 |
  \\      /  F ield         | OpenFOAM: The Open Source CFD Toolbox
   \\    /   O peration     | Website:  https://openfoam.org
    \\  /    A nd           | Version:  10
     \\/     M anipulation  |
\*---------------------------------------------------------------------------*/
FoamFile
{
    format      ascii;
    class       volScalarField;
    location    "20";
    object      pMean;
}
// * * * * * * * * * * * * * * * * * * * * * * * * * * * * * * * * * * * * * //

dimensions      [0 2 -2 0 0 0 0];

internalField   nonuniform List<scalar> 
102400
(
1.8325e-06
-5.03853e-06
-6.61461e-07
1.28368e-05
1.06127e-05
8.51115e-06
-3.95721e-06
-2.01336e-06
3.65988e-06
8.63291e-06
2.9293e-06
-5.0932e-07
7.07006e-07
9.71338e-06
1.19909e-05
1.46391e-05
-1.78419e-07
5.48292e-06
1.22354e-05
1.57973e-05
6.48749e-06
-1.16814e-06
9.86492e-07
9.89636e-06
6.31592e-06
2.90695e-06
-4.55623e-06
-1.74011e-06
1.29039e-05
1.43834e-05
7.97879e-06
1.02736e-06
4.26534e-06
1.45022e-05
1.66614e-05
5.54696e-06
-3.05391e-07
-1.27395e-06
1.09589e-05
1.0884e-05
2.12475e-06
-4.71112e-06
-1.93375e-07
1.37243e-05
1.12249e-05
8.88671e-06
-3.49545e-06
-1.40549e-06
4.43278e-06
9.4631e-06
3.33988e-06
-8.3025e-08
1.24437e-06
1.05893e-05
1.26245e-05
1.49423e-05
-1.98282e-07
6.05221e-06
1.28902e-05
1.63413e-05
6.5776e-06
-9.37032e-07
1.37522e-06
1.05197e-05
6.61891e-06
3.19057e-06
-4.42099e-06
-1.32132e-06
1.36321e-05
1.48356e-05
8.29375e-06
1.20059e-06
4.73491e-06
1.52484e-05
1.7316e-05
5.77408e-06
6.65859e-08
-5.27123e-07
1.1583e-05
1.16086e-05
2.65496e-06
-4.25495e-06
6.07744e-07
1.4834e-05
1.27505e-05
9.44001e-06
-3.09192e-06
-4.06115e-07
5.4838e-06
1.07882e-05
4.1962e-06
4.39234e-07
2.10007e-06
1.22532e-05
1.44659e-05
1.58639e-05
6.95758e-07
6.83981e-06
1.46456e-05
1.75191e-05
6.99258e-06
-1.00203e-06
2.39978e-06
1.15795e-05
8.44132e-06
3.57556e-06
-4.18458e-06
-3.4862e-07
1.50182e-05
1.59997e-05
9.02901e-06
1.64011e-06
5.48062e-06
1.66275e-05
1.83604e-05
6.16266e-06
-1.7348e-07
4.2986e-07
1.30673e-05
1.26355e-05
2.79377e-06
-4.67659e-06
1.00102e-06
1.57658e-05
1.35167e-05
9.5985e-06
-3.22142e-06
7.66868e-08
5.69823e-06
1.17733e-05
3.88148e-06
4.17395e-07
2.49542e-06
1.31184e-05
1.56928e-05
1.65678e-05
4.73767e-08
7.79926e-06
1.54167e-05
1.81795e-05
7.5464e-06
-1.40675e-06
2.58699e-06
1.24492e-05
8.91317e-06
4.52175e-06
-4.61906e-06
5.17135e-07
1.55675e-05
1.64084e-05
9.31689e-06
6.4977e-07
5.06274e-06
1.76324e-05
1.92401e-05
6.65913e-06
-5.45459e-07
4.94818e-07
1.29206e-05
1.30068e-05
-1.68425e-07
-8.1432e-06
-1.82909e-06
1.32183e-05
1.18523e-05
7.47772e-06
-5.54524e-06
-2.55237e-06
3.94744e-06
1.0045e-05
2.32514e-06
-1.80981e-06
1.6819e-07
1.22667e-05
1.58405e-05
1.50424e-05
-1.12538e-06
5.93733e-06
1.42448e-05
1.59943e-05
4.47827e-06
-4.26319e-06
4.31328e-07
9.45267e-06
7.29021e-06
2.55251e-06
-8.13022e-06
-3.28836e-06
1.40684e-05
1.32985e-05
6.23958e-06
-3.06345e-06
1.29023e-06
1.49495e-05
1.53775e-05
2.99972e-06
-2.4721e-06
-2.7105e-06
8.76723e-06
1.04968e-05
-7.46461e-06
-1.55764e-05
-9.16929e-06
6.12757e-06
4.28995e-06
-1.0154e-06
-1.34248e-05
-1.09029e-05
-4.33767e-06
2.49109e-06
-3.48439e-06
-9.34852e-06
-6.23339e-06
6.19425e-06
1.05393e-05
8.52291e-06
-6.93452e-06
-1.13199e-06
6.52546e-06
7.54927e-06
-3.1404e-06
-1.45773e-05
-7.41341e-06
3.17296e-07
2.82252e-07
-5.62139e-06
-1.42369e-05
-1.09135e-05
3.37817e-06
3.55022e-06
-2.36032e-06
-1.29973e-05
-8.85927e-06
6.22845e-06
8.5698e-06
-4.69655e-06
-1.20779e-05
-1.06775e-05
-5.66262e-07
6.58102e-07
-1.72379e-05
-2.33378e-05
-1.83097e-05
-5.81887e-06
-4.27804e-06
-1.01449e-05
-2.21566e-05
-2.06896e-05
-1.37759e-05
-9.2474e-06
-1.45307e-05
-1.69087e-05
-1.40399e-05
-2.16531e-06
1.52292e-06
-1.46442e-06
-1.45738e-05
-1.09038e-05
-5.05574e-06
-3.62145e-06
-1.33241e-05
-2.53435e-05
-1.83722e-05
-9.84805e-06
-1.01867e-05
-1.62427e-05
-2.4219e-05
-2.23275e-05
-7.79969e-06
-7.84367e-06
-1.15726e-05
-2.32024e-05
-1.94362e-05
-4.87484e-06
-2.32714e-06
-1.44043e-05
-2.08487e-05
-2.10482e-05
-1.30615e-05
-9.56279e-06
-2.51249e-05
-3.25015e-05
-2.66626e-05
-1.51943e-05
-1.45469e-05
-2.0504e-05
-3.06969e-05
-3.10083e-05
-2.61738e-05
-1.84591e-05
-2.07166e-05
-2.34629e-05
-2.03399e-05
-1.19563e-05
-7.78005e-06
-1.10823e-05
-1.9454e-05
-1.82635e-05
-1.44488e-05
-1.44292e-05
-2.27635e-05
-3.20594e-05
-2.64695e-05
-1.96487e-05
-2.02577e-05
-2.51835e-05
-3.18118e-05
-3.19959e-05
-1.97176e-05
-1.90977e-05
-2.15986e-05
-3.20124e-05
-2.99654e-05
-1.61597e-05
-1.14139e-05
-2.07298e-05
-2.84193e-05
-2.89776e-05
-2.28178e-05
-1.88037e-05
-2.71117e-05
-3.1461e-05
-2.89563e-05
-1.85926e-05
-1.82706e-05
-2.26382e-05
-3.32569e-05
-3.4126e-05
-2.89259e-05
-2.1849e-05
-2.22508e-05
-2.34156e-05
-2.1989e-05
-1.50321e-05
-1.28355e-05
-1.47219e-05
-2.29271e-05
-2.16354e-05
-1.96349e-05
-2.01527e-05
-2.58291e-05
-3.32881e-05
-3.04103e-05
-2.35579e-05
-2.4457e-05
-2.83164e-05
-3.33671e-05
-3.46501e-05
-2.47178e-05
-2.2719e-05
-2.56148e-05
-3.36856e-05
-3.27339e-05
-2.21817e-05
-1.7742e-05
-2.44256e-05
-3.02478e-05
-3.12201e-05
-2.6468e-05
-2.3309e-05
-2.14303e-05
-2.5728e-05
-2.41599e-05
-1.629e-05
-1.68884e-05
-2.08732e-05
-2.81522e-05
-2.95137e-05
-2.54552e-05
-1.95809e-05
-1.81529e-05
-1.89969e-05
-1.85186e-05
-1.39805e-05
-1.14939e-05
-1.18312e-05
-1.79713e-05
-1.86927e-05
-1.62557e-05
-1.67758e-05
-2.09762e-05
-2.80962e-05
-2.64123e-05
-2.13931e-05
-2.12575e-05
-2.36279e-05
-2.72032e-05
-2.99667e-05
-2.23872e-05
-2.04217e-05
-2.24313e-05
-2.74155e-05
-2.81513e-05
-2.0489e-05
-1.56964e-05
-1.95434e-05
-2.47969e-05
-2.6373e-05
-2.33299e-05
-1.97985e-05
-1.48628e-05
-1.71253e-05
-1.75238e-05
-1.20836e-05
-1.19196e-05
-1.40031e-05
-1.96678e-05
-2.14406e-05
-1.91353e-05
-1.41426e-05
-1.26721e-05
-1.29203e-05
-1.31515e-05
-1.02297e-05
-8.19559e-06
-7.86567e-06
-1.24942e-05
-1.32922e-05
-1.21703e-05
-1.29888e-05
-1.52434e-05
-2.03783e-05
-2.03216e-05
-1.69819e-05
-1.60692e-05
-1.77259e-05
-1.96904e-05
-2.21011e-05
-1.76905e-05
-1.48332e-05
-1.58353e-05
-1.96846e-05
-2.14763e-05
-1.59253e-05
-1.19003e-05
-1.43592e-05
-1.78425e-05
-1.91948e-05
-1.71279e-05
-1.36758e-05
-9.51185e-06
-1.06224e-05
-1.18602e-05
-7.97133e-06
-7.72893e-06
-8.65183e-06
-1.22389e-05
-1.43336e-05
-1.29768e-05
-9.56017e-06
-8.33083e-06
-8.2822e-06
-8.77264e-06
-6.57819e-06
-5.25386e-06
-4.64169e-06
-7.8635e-06
-9.06728e-06
-8.45251e-06
-9.21401e-06
-1.05593e-05
-1.4322e-05
-1.52752e-05
-1.31853e-05
-1.19879e-05
-1.23873e-05
-1.36321e-05
-1.57453e-05
-1.33544e-05
-1.04644e-05
-1.13817e-05
-1.33166e-05
-1.518e-05
-1.18205e-05
-8.17344e-06
-8.85351e-06
-1.1464e-05
-1.28947e-05
-1.15661e-05
-9.16235e-06
-5.64538e-06
-5.79596e-06
-7.14793e-06
-4.66756e-06
-4.07406e-06
-3.99991e-06
-6.14133e-06
-8.00782e-06
-7.97829e-06
-5.74669e-06
-4.68122e-06
-3.85524e-06
-4.10141e-06
-2.98506e-06
-2.55177e-06
-2.11714e-06
-3.9769e-06
-5.23628e-06
-5.29065e-06
-5.8076e-06
-6.45735e-06
-9.12332e-06
-1.03718e-05
-9.32699e-06
-8.26504e-06
-8.13874e-06
-8.71484e-06
-1.01428e-05
-9.38751e-06
-7.14244e-06
-7.23174e-06
-8.37505e-06
-1.00977e-05
-8.07732e-06
-5.32503e-06
-5.14835e-06
-6.49686e-06
-7.67734e-06
-7.43574e-06
-5.70329e-06
-2.36899e-06
-1.97276e-06
-2.95137e-06
-1.45584e-06
-9.85856e-07
-6.34887e-07
-1.51091e-06
-3.18491e-06
-3.83105e-06
-2.69902e-06
-1.60864e-06
-3.91545e-07
-5.78178e-07
-1.20847e-07
-2.93869e-07
1.25988e-07
-9.62072e-07
-2.04126e-06
-2.51998e-06
-2.87495e-06
-3.17865e-06
-4.66773e-06
-5.93943e-06
-5.6558e-06
-4.8504e-06
-4.41988e-06
-4.72934e-06
-5.57843e-06
-5.92233e-06
-4.48088e-06
-4.27651e-06
-4.4033e-06
-5.64432e-06
-4.41853e-06
-2.55696e-06
-1.6995e-06
-2.47485e-06
-3.568e-06
-3.85307e-06
-2.60149e-06
-2.84945e-07
3.70558e-07
-2.69921e-07
5.87294e-07
9.92448e-07
1.4236e-06
1.2064e-06
-1.55929e-07
-1.08783e-06
-6.43394e-07
2.20937e-07
1.47963e-06
1.55332e-06
1.65399e-06
1.22895e-06
1.36319e-06
6.52396e-07
-1.39534e-07
-6.71973e-07
-1.00081e-06
-1.18375e-06
-1.89436e-06
-2.93217e-06
-3.09496e-06
-2.73015e-06
-2.16726e-06
-2.28737e-06
-2.76091e-06
-3.49538e-06
-2.68827e-06
-2.2252e-06
-1.75542e-06
-2.45097e-06
-1.87384e-06
-8.00126e-07
1.05439e-07
-1.16793e-07
-9.33063e-07
-1.43818e-06
-5.97782e-07
6.98681e-07
1.38148e-06
1.10382e-06
1.59887e-06
1.85371e-06
2.24836e-06
2.2812e-06
1.35859e-06
3.65755e-07
3.91911e-07
9.49727e-07
2.12931e-06
2.34352e-06
2.43241e-06
1.76859e-06
1.65644e-06
1.11174e-06
6.20659e-07
1.10569e-07
-2.04791e-07
-3.02136e-07
-5.85526e-07
-1.32849e-06
-1.6858e-06
-1.65113e-06
-1.09851e-06
-1.11946e-06
-1.30319e-06
-2.06189e-06
-1.67133e-06
-1.23337e-06
-5.53792e-07
-8.94987e-07
-5.39385e-07
3.47089e-10
7.16401e-07
8.70787e-07
3.5288e-07
-7.45775e-08
4.16892e-07
9.69754e-07
1.51784e-06
1.4441e-06
1.74643e-06
1.96804e-06
2.24673e-06
2.39357e-06
1.80303e-06
9.27733e-07
7.66156e-07
1.07149e-06
1.97425e-06
2.26299e-06
2.37998e-06
1.69578e-06
1.47827e-06
9.46902e-07
6.34523e-07
2.00185e-07
3.53066e-09
-1.12728e-07
-2.01926e-07
-7.06392e-07
-1.10493e-06
-1.19167e-06
-8.41554e-07
-7.39974e-07
-7.79614e-07
-1.38532e-06
-1.22901e-06
-9.14999e-07
-2.36559e-07
-3.33062e-07
-6.68558e-08
1.73137e-07
6.90498e-07
1.06209e-06
7.55864e-07
5.01013e-07
7.48417e-07
9.01082e-07
1.31527e-06
1.37385e-06
1.6142e-06
1.7976e-06
1.99573e-06
2.14451e-06
1.79503e-06
1.11248e-06
8.90678e-07
9.94059e-07
1.64157e-06
1.87641e-06
2.02371e-06
1.45961e-06
1.16839e-06
6.48166e-07
4.3356e-07
6.50977e-08
-3.53685e-08
-1.60635e-07
-1.71313e-07
-4.9709e-07
-8.59636e-07
-9.6321e-07
-7.9932e-07
-6.29685e-07
-5.83848e-07
-1.04296e-06
-1.0153e-06
-8.34375e-07
-2.59688e-07
-2.64615e-07
1.94746e-08
1.50431e-07
4.73972e-07
9.15136e-07
7.34531e-07
6.22049e-07
7.73793e-07
7.61544e-07
1.04809e-06
1.12033e-06
1.33655e-06
1.5286e-06
1.6749e-06
1.77267e-06
1.58134e-06
1.07286e-06
8.4013e-07
8.59268e-07
1.29491e-06
1.43686e-06
1.57117e-06
1.1116e-06
8.13327e-07
3.51561e-07
2.18771e-07
-1.08529e-07
-1.632e-07
-3.1392e-07
-2.87006e-07
-4.63208e-07
-7.70253e-07
-8.09829e-07
-8.04809e-07
-6.34443e-07
-5.76181e-07
-9.00461e-07
-9.26696e-07
-8.66528e-07
-3.74566e-07
-3.28414e-07
-5.43171e-08
6.44607e-08
2.33181e-07
6.63639e-07
5.58005e-07
5.7055e-07
6.76608e-07
5.99731e-07
8.00666e-07
8.63269e-07
1.05983e-06
1.24203e-06
1.36673e-06
1.41926e-06
1.31659e-06
9.27194e-07
7.34072e-07
7.44298e-07
1.01411e-06
1.05615e-06
1.11768e-06
7.8203e-07
5.2344e-07
1.44881e-07
6.43999e-08
-2.45371e-07
-2.77249e-07
-4.49018e-07
-4.13537e-07
-4.86792e-07
-7.44196e-07
-7.07793e-07
-8.08226e-07
-6.33205e-07
-5.91488e-07
-8.29677e-07
-8.31465e-07
-8.30009e-07
-4.18885e-07
-3.9406e-07
-1.31341e-07
-1.81082e-08
3.65464e-08
4.36078e-07
3.47439e-07
4.44565e-07
5.17128e-07
4.45031e-07
5.97191e-07
6.52608e-07
8.10981e-07
9.77608e-07
1.09213e-06
1.0865e-06
1.06597e-06
7.60184e-07
6.12593e-07
6.53602e-07
7.84801e-07
7.54512e-07
7.39162e-07
5.02929e-07
2.77578e-07
-3.83045e-08
-6.25226e-08
-3.65233e-07
-3.45234e-07
-5.50089e-07
-4.95194e-07
-5.16349e-07
-7.43204e-07
-6.33578e-07
-8.00833e-07
-6.1917e-07
-5.87585e-07
-7.75349e-07
-7.46732e-07
-7.72022e-07
-4.11153e-07
-4.20294e-07
-2.28999e-07
-1.18931e-07
-1.05112e-07
2.69902e-07
1.61426e-07
2.89034e-07
3.37142e-07
2.99668e-07
4.08029e-07
4.65607e-07
6.06633e-07
7.33388e-07
8.44974e-07
8.03152e-07
8.64189e-07
6.12265e-07
4.94017e-07
5.56703e-07
5.96533e-07
5.27787e-07
4.48664e-07
2.93512e-07
9.36491e-08
-1.80809e-07
-1.45082e-07
-4.59597e-07
-3.85074e-07
-6.13732e-07
-5.3229e-07
-5.3355e-07
-7.492e-07
-5.7663e-07
-7.92978e-07
-5.59976e-07
-5.3977e-07
-7.02855e-07
-6.44767e-07
-6.91534e-07
-3.91091e-07
-4.1745e-07
-2.944e-07
-1.89303e-07
-2.22929e-07
1.43473e-07
3.09218e-08
1.70488e-07
1.88537e-07
1.89986e-07
2.56797e-07
3.08271e-07
4.35154e-07
5.03201e-07
6.3499e-07
5.50651e-07
7.02526e-07
4.88727e-07
3.77815e-07
4.51621e-07
4.36579e-07
3.72237e-07
2.37465e-07
1.32914e-07
-4.25096e-08
-2.87505e-07
-1.93409e-07
-5.10326e-07
-3.92525e-07
-6.43391e-07
-5.44147e-07
-5.19771e-07
-7.3792e-07
-5.24168e-07
-7.81316e-07
-5.0953e-07
-4.89112e-07
-6.27306e-07
-5.62929e-07
-6.3385e-07
-3.87208e-07
-4.21742e-07
-3.47981e-07
-2.43133e-07
-3.10612e-07
3.52595e-08
-6.95767e-08
7.73324e-08
7.38984e-08
1.17349e-07
1.4785e-07
1.88183e-07
3.11964e-07
3.07106e-07
4.75135e-07
3.45521e-07
5.6408e-07
3.76174e-07
2.64669e-07
3.66339e-07
3.03388e-07
2.55964e-07
7.1447e-08
-3.32897e-09
-1.54396e-07
-3.67827e-07
-2.14988e-07
-5.25299e-07
-3.77781e-07
-6.31575e-07
-5.3166e-07
-4.87348e-07
-6.97797e-07
-4.62768e-07
-7.57304e-07
-4.68219e-07
-4.64048e-07
-5.87528e-07
-5.11878e-07
-5.89362e-07
-3.75506e-07
-3.97575e-07
-3.69425e-07
-2.66282e-07
-3.61996e-07
-4.99939e-08
-1.41e-07
1.00626e-08
-8.68214e-09
5.42573e-08
5.54088e-08
9.07088e-08
2.30882e-07
1.51043e-07
3.55708e-07
1.7848e-07
4.28658e-07
2.57392e-07
1.50036e-07
2.7453e-07
1.85273e-07
1.6013e-07
-4.81481e-08
-1.00129e-07
-2.12251e-07
-4.10465e-07
-2.26502e-07
-5.20292e-07
-3.58625e-07
-5.90788e-07
-4.97506e-07
-4.44508e-07
-6.419e-07
-4.02505e-07
-7.21599e-07
-4.41248e-07
-4.5234e-07
-5.70157e-07
-4.83062e-07
-5.52258e-07
-3.89552e-07
-3.83987e-07
-3.96286e-07
-2.79768e-07
-3.81949e-07
-1.20164e-07
-1.96186e-07
-4.031e-08
-8.26207e-08
7.19589e-09
-1.27298e-10
1.49516e-08
1.98437e-07
2.81031e-08
2.79613e-07
5.26756e-08
3.20094e-07
1.44206e-07
4.15968e-08
1.66465e-07
7.45629e-08
7.72508e-08
-1.35511e-07
-1.64789e-07
-2.36811e-07
-4.08116e-07
-2.35188e-07
-4.8563e-07
-3.55079e-07
-5.49957e-07
-4.78125e-07
-4.11985e-07
-5.95731e-07
-3.61583e-07
-6.74134e-07
-3.94951e-07
-4.18626e-07
-5.23554e-07
-4.58218e-07
-4.978e-07
-4.09389e-07
-3.72683e-07
-4.18174e-07
-2.98676e-07
-3.77639e-07
-1.86689e-07
-2.51144e-07
-9.63897e-08
-1.45463e-07
-6.18698e-08
-5.23328e-08
-7.47444e-08
1.64416e-07
-8.6407e-08
2.01491e-07
-3.70044e-08
2.25135e-07
6.58555e-08
-3.94044e-08
7.61602e-08
-2.4633e-08
1.37369e-08
-1.92269e-07
-1.88231e-07
-2.39479e-07
-3.62814e-07
-2.59389e-07
-4.31312e-07
-3.7678e-07
-4.97293e-07
-4.58727e-07
-3.73274e-07
-5.40189e-07
-3.31355e-07
-6.2252e-07
-3.57346e-07
-3.9186e-07
-4.66792e-07
-4.25262e-07
-4.31681e-07
-4.09312e-07
-3.70541e-07
-4.12517e-07
-3.47403e-07
-3.56914e-07
-2.72136e-07
-2.95491e-07
-1.60138e-07
-2.01303e-07
-1.28094e-07
-1.14906e-07
-1.4454e-07
1.12421e-07
-1.57549e-07
1.03085e-07
-7.32191e-08
1.26221e-07
4.53422e-09
-8.74597e-08
2.04498e-09
-8.7262e-08
-2.72937e-08
-2.30395e-07
-2.10711e-07
-2.6316e-07
-3.08462e-07
-2.95088e-07
-3.40582e-07
-3.87278e-07
-4.19802e-07
-4.27523e-07
-3.43821e-07
-4.79526e-07
-3.26118e-07
-5.50815e-07
-3.36391e-07
-3.59272e-07
-4.3191e-07
-3.93841e-07
-3.94553e-07
-3.80872e-07
-3.92773e-07
-3.56623e-07
-4.05518e-07
-3.21447e-07
-3.51418e-07
-3.42389e-07
-2.16217e-07
-2.6439e-07
-1.68487e-07
-1.75892e-07
-1.79899e-07
4.68782e-08
-1.88554e-07
-2.55797e-08
-9.45298e-08
2.17965e-08
-6.83382e-08
-1.02717e-07
-7.34976e-08
-1.27891e-07
-6.99838e-08
-2.57965e-07
-2.30074e-07
-2.93063e-07
-2.49719e-07
-3.2213e-07
-2.57044e-07
-3.87076e-07
-3.52111e-07
-3.77949e-07
-3.19826e-07
-3.94495e-07
-3.40416e-07
-4.58349e-07
-3.3534e-07
-3.24706e-07
-4.03579e-07
-3.59536e-07
-3.73364e-07
-3.39148e-07
-4.38189e-07
-2.93005e-07
-4.57584e-07
-3.02904e-07
-3.79105e-07
-4.04709e-07
-2.32698e-07
-3.3105e-07
-2.25063e-07
-2.60366e-07
-2.19744e-07
-7.48645e-08
-1.95281e-07
-1.80099e-07
-9.88415e-08
-6.04497e-08
-1.38626e-07
-7.74647e-08
-1.49118e-07
-1.42267e-07
-1.13911e-07
-2.38548e-07
-2.32808e-07
-2.74902e-07
-2.08785e-07
-3.0499e-07
-1.99619e-07
-3.60483e-07
-2.99551e-07
-3.35374e-07
-2.96098e-07
-3.08573e-07
-3.40896e-07
-3.70173e-07
-3.34286e-07
-3.10735e-07
-3.62216e-07
-3.41884e-07
-3.54115e-07
-2.98754e-07
-4.91759e-07
-2.44735e-07
-4.95905e-07
-3.29085e-07
-3.71778e-07
-4.7781e-07
-2.44345e-07
-3.82873e-07
-2.63566e-07
-3.38877e-07
-2.30978e-07
-2.03672e-07
-1.75569e-07
-3.07941e-07
-1.22497e-07
-1.28216e-07
-2.38166e-07
-4.79478e-08
-2.48833e-07
-1.55097e-07
-1.91149e-07
-2.03923e-07
-2.61527e-07
-2.3821e-07
-2.13569e-07
-2.63882e-07
-1.51509e-07
-3.3701e-07
-2.07468e-07
-3.11316e-07
-2.36377e-07
-2.43058e-07
-3.05554e-07
-3.12395e-07
-3.27286e-07
-3.05831e-07
-3.23419e-07
-3.21754e-07
-3.56915e-07
-2.71825e-07
-5.20257e-07
-2.11363e-07
-4.99077e-07
-3.67834e-07
-3.54455e-07
-5.10018e-07
-2.58961e-07
-4.05353e-07
-3.19094e-07
-3.83821e-07
-2.55767e-07
-2.90594e-07
-1.80549e-07
-3.7029e-07
-1.73358e-07
-1.81966e-07
-3.23877e-07
-5.78578e-08
-3.11509e-07
-2.02453e-07
-2.50855e-07
-1.79031e-07
-2.77562e-07
-1.95131e-07
-2.27637e-07
-2.31866e-07
-1.0762e-07
-3.24657e-07
-1.18035e-07
-2.84418e-07
-1.78061e-07
-1.80525e-07
-2.4208e-07
-2.53675e-07
-3.36123e-07
-2.71639e-07
-3.19548e-07
-3.0006e-07
-3.48316e-07
-2.99322e-07
-4.67613e-07
-2.2421e-07
-4.63402e-07
-4.22769e-07
-3.83635e-07
-5.31894e-07
-3.21202e-07
-4.24432e-07
-7.09243e-06
-1.55478e-05
-1.03627e-05
6.77131e-07
5.23641e-06
3.43652e-06
-5.9754e-06
-6.17848e-06
3.17966e-06
7.62047e-06
4.76824e-06
-4.62478e-06
-3.84228e-06
8.09992e-07
5.06598e-06
-1.15394e-05
-1.07987e-05
-1.52022e-05
-4.21228e-07
-2.37675e-06
-2.37984e-06
-1.78806e-05
-1.08288e-05
-4.67933e-06
-2.75718e-07
-4.53811e-06
-1.10872e-05
-9.70192e-06
-2.70577e-08
1.20621e-06
-8.86837e-06
-1.59651e-05
-1.28079e-05
-6.25729e-06
-1.23172e-06
-7.5276e-06
-1.03633e-05
-9.06182e-06
1.14839e-06
1.87252e-07
-8.14176e-06
-1.64921e-05
-1.10237e-05
8.95093e-08
4.74622e-06
2.50529e-06
-6.75097e-06
-6.83461e-06
2.62357e-06
6.85846e-06
3.8162e-06
-5.68454e-06
-4.52329e-06
1.51064e-07
4.69353e-06
-1.24989e-05
-1.14622e-05
-1.58453e-05
-5.36436e-07
-3.02775e-06
-3.011e-06
-1.91613e-05
-1.14102e-05
-5.37329e-06
-1.09543e-06
-5.4859e-06
-1.20711e-05
-1.03139e-05
-6.42322e-07
5.14183e-07
-9.78545e-06
-1.68134e-05
-1.33593e-05
-6.63702e-06
-1.87871e-06
-8.40569e-06
-1.1214e-05
-9.69777e-06
7.75959e-07
-4.65077e-07
-9.48313e-06
-1.84607e-05
-1.22e-05
-7.09832e-07
3.69233e-06
7.67885e-07
-8.40034e-06
-8.36514e-06
1.80056e-06
5.83247e-06
2.51122e-06
-7.41256e-06
-5.55025e-06
-1.00367e-06
3.38384e-06
-1.40342e-05
-1.34305e-05
-1.70727e-05
-1.30445e-06
-3.98833e-06
-4.80269e-06
-1.99922e-05
-1.28848e-05
-5.5659e-06
-1.47205e-06
-6.90055e-06
-1.35039e-05
-1.1642e-05
-1.03781e-06
-8.02381e-07
-1.13891e-05
-1.87152e-05
-1.47076e-05
-7.74338e-06
-2.40971e-06
-9.59367e-06
-1.24989e-05
-1.11669e-05
2.02758e-07
-1.24821e-06
-1.16232e-05
-1.98742e-05
-1.35035e-05
-2.13753e-06
3.52675e-06
-1.09829e-06
-1.01986e-05
-1.05654e-05
1.80894e-07
3.86965e-06
-2.18357e-07
-1.00085e-05
-7.64328e-06
-2.91659e-06
2.35266e-06
-1.65502e-05
-1.57146e-05
-1.96573e-05
-2.56404e-06
-5.66851e-06
-5.98201e-06
-2.34528e-05
-1.44098e-05
-7.73076e-06
-3.93159e-06
-9.96555e-06
-1.55493e-05
-1.37786e-05
-2.32408e-06
-2.33712e-06
-1.37776e-05
-2.12224e-05
-1.64121e-05
-9.19038e-06
-4.13645e-06
-1.17564e-05
-1.44772e-05
-1.32918e-05
-1.04785e-06
-2.9907e-06
-1.30661e-05
-2.26775e-05
-1.43959e-05
-4.18353e-06
7.04094e-07
-4.55706e-06
-1.21144e-05
-1.32202e-05
-2.69536e-06
8.68825e-07
-2.93364e-06
-1.46565e-05
-1.03249e-05
-6.83175e-06
-1.52137e-06
-2.0634e-05
-1.93249e-05
-2.20564e-05
-4.52581e-06
-7.01591e-06
-9.84582e-06
-2.40673e-05
-1.65636e-05
-8.50406e-06
-4.62429e-06
-1.18715e-05
-1.84633e-05
-1.67837e-05
-4.67771e-06
-5.416e-06
-1.61554e-05
-2.52069e-05
-1.86373e-05
-1.11034e-05
-6.05516e-06
-1.44644e-05
-1.71619e-05
-1.61083e-05
-3.44922e-06
-5.04548e-06
-1.55295e-05
-2.26391e-05
-1.54744e-05
-5.20707e-06
8.47693e-07
-3.32022e-06
-1.21362e-05
-1.49793e-05
-6.00993e-06
-4.15592e-06
-6.58709e-06
-1.62118e-05
-1.28181e-05
-1.02565e-05
-4.86038e-06
-2.4107e-05
-2.48746e-05
-2.67902e-05
-7.92288e-06
-1.00589e-05
-1.07068e-05
-2.65361e-05
-1.85599e-05
-1.07908e-05
-7.15004e-06
-1.58179e-05
-2.11088e-05
-1.91727e-05
-7.57175e-06
-7.47985e-06
-1.81087e-05
-2.76917e-05
-2.03006e-05
-1.34838e-05
-7.6473e-06
-1.88298e-05
-1.86342e-05
-1.95042e-05
-5.37196e-06
-7.65943e-06
-1.77287e-05
-2.3752e-05
-1.62807e-05
-8.17852e-06
-2.12486e-06
-9.03347e-06
-1.47088e-05
-1.72207e-05
-9.55507e-06
-7.33177e-06
-8.34249e-06
-2.17865e-05
-1.62978e-05
-1.35822e-05
-7.18744e-06
-2.68189e-05
-2.6446e-05
-2.92971e-05
-1.21163e-05
-1.41202e-05
-1.53901e-05
-2.89171e-05
-2.1179e-05
-1.41618e-05
-9.83876e-06
-1.67836e-05
-1.96858e-05
-1.98527e-05
-7.79901e-06
-8.74358e-06
-1.99721e-05
-2.82742e-05
-2.08745e-05
-1.44073e-05
-9.73592e-06
-1.94487e-05
-2.11764e-05
-2.3003e-05
-8.73517e-06
-9.54534e-06
-2.05726e-05
-2.66913e-05
-2.08976e-05
-1.25259e-05
-7.79113e-06
-9.86813e-06
-1.85654e-05
-2.19702e-05
-1.44678e-05
-1.25219e-05
-1.34117e-05
-2.30084e-05
-1.91834e-05
-1.73248e-05
-1.19393e-05
-2.81655e-05
-2.8241e-05
-3.28008e-05
-1.79147e-05
-1.97841e-05
-1.93909e-05
-3.11686e-05
-2.43127e-05
-2.01648e-05
-1.4777e-05
-1.99855e-05
-2.36235e-05
-2.16604e-05
-1.2259e-05
-1.20298e-05
-2.18568e-05
-3.03136e-05
-2.31106e-05
-1.76351e-05
-1.19268e-05
-2.15952e-05
-2.32775e-05
-2.59287e-05
-1.47579e-05
-1.47642e-05
-2.38488e-05
-3.12223e-05
-2.60777e-05
-2.16773e-05
-1.60113e-05
-2.04349e-05
-2.32248e-05
-2.57628e-05
-2.14615e-05
-1.92017e-05
-1.87463e-05
-2.68845e-05
-2.42233e-05
-2.28085e-05
-1.55726e-05
-3.0587e-05
-3.17318e-05
-3.59241e-05
-2.5064e-05
-2.59198e-05
-2.48447e-05
-3.49561e-05
-3.01272e-05
-2.5306e-05
-2.10348e-05
-2.36909e-05
-2.36338e-05
-2.31705e-05
-1.62718e-05
-1.5862e-05
-2.47094e-05
-3.2418e-05
-2.70216e-05
-2.12786e-05
-1.69933e-05
-2.49749e-05
-2.59123e-05
-3.03837e-05
-2.02421e-05
-1.84363e-05
-2.56024e-05
-3.06027e-05
-2.88999e-05
-2.37494e-05
-2.13988e-05
-2.12941e-05
-2.56628e-05
-2.89e-05
-2.50566e-05
-2.38159e-05
-2.12404e-05
-2.82701e-05
-2.65583e-05
-2.6445e-05
-2.10871e-05
-3.08233e-05
-3.28863e-05
-3.65269e-05
-2.88587e-05
-2.85869e-05
-2.75695e-05
-3.51975e-05
-3.1718e-05
-2.8311e-05
-2.44636e-05
-2.43164e-05
-2.50417e-05
-2.49573e-05
-1.93272e-05
-1.85368e-05
-2.56615e-05
-3.26599e-05
-2.8601e-05
-2.47759e-05
-2.07195e-05
-2.68371e-05
-2.85407e-05
-3.13301e-05
-2.39137e-05
-2.24222e-05
-2.19138e-05
-2.74027e-05
-2.60565e-05
-2.29676e-05
-1.99469e-05
-2.09132e-05
-2.22229e-05
-2.51897e-05
-2.3072e-05
-2.23705e-05
-2.01032e-05
-2.44854e-05
-2.33168e-05
-2.46757e-05
-1.96201e-05
-2.62287e-05
-2.85984e-05
-3.16402e-05
-2.67118e-05
-2.62382e-05
-2.54105e-05
-3.05893e-05
-2.91971e-05
-2.57965e-05
-2.20871e-05
-2.15226e-05
-2.10985e-05
-2.09889e-05
-1.92966e-05
-1.84506e-05
-2.2481e-05
-2.84766e-05
-2.62095e-05
-2.35181e-05
-1.96802e-05
-2.40631e-05
-2.45412e-05
-2.70413e-05
-2.19703e-05
-1.94588e-05
-1.71346e-05
-2.01505e-05
-1.99578e-05
-1.71297e-05
-1.52566e-05
-1.4721e-05
-1.53094e-05
-1.87993e-05
-1.75327e-05
-1.79629e-05
-1.47805e-05
-1.77406e-05
-1.72172e-05
-1.88633e-05
-1.55197e-05
-1.95279e-05
-2.16163e-05
-2.42934e-05
-2.13541e-05
-2.07119e-05
-1.9686e-05
-2.32797e-05
-2.26288e-05
-2.0451e-05
-1.78278e-05
-1.65784e-05
-1.60726e-05
-1.67943e-05
-1.59664e-05
-1.48726e-05
-1.6898e-05
-2.15485e-05
-2.04741e-05
-1.91107e-05
-1.60601e-05
-1.88329e-05
-1.92883e-05
-2.07457e-05
-1.75887e-05
-1.5727e-05
-1.17973e-05
-1.41432e-05
-1.382e-05
-1.21494e-05
-9.92208e-06
-9.88526e-06
-9.57945e-06
-1.24263e-05
-1.19022e-05
-1.25074e-05
-9.88864e-06
-1.13424e-05
-1.10447e-05
-1.28193e-05
-1.09192e-05
-1.29299e-05
-1.47037e-05
-1.69797e-05
-1.55049e-05
-1.48137e-05
-1.38965e-05
-1.60512e-05
-1.5837e-05
-1.4376e-05
-1.26447e-05
-1.14664e-05
-1.10326e-05
-1.17165e-05
-1.15858e-05
-1.09376e-05
-1.14962e-05
-1.48993e-05
-1.46144e-05
-1.42053e-05
-1.18926e-05
-1.34083e-05
-1.33107e-05
-1.4586e-05
-1.28926e-05
-1.13221e-05
-7.7898e-06
-9.01324e-06
-8.62645e-06
-7.4609e-06
-5.82336e-06
-5.70362e-06
-5.21348e-06
-7.42315e-06
-7.32811e-06
-7.97096e-06
-5.73966e-06
-6.24823e-06
-6.28268e-06
-7.8021e-06
-6.98046e-06
-7.95377e-06
-9.28034e-06
-1.1111e-05
-1.05328e-05
-1.01354e-05
-9.22109e-06
-1.03759e-05
-1.03369e-05
-9.57352e-06
-8.44757e-06
-7.52476e-06
-7.01914e-06
-7.77013e-06
-7.78469e-06
-7.53338e-06
-7.391e-06
-9.54455e-06
-9.73781e-06
-9.84518e-06
-8.24219e-06
-9.00869e-06
-8.80758e-06
-9.79177e-06
-8.90481e-06
-7.82471e-06
-4.68543e-06
-5.37063e-06
-4.96996e-06
-4.34767e-06
-3.15636e-06
-3.09966e-06
-2.49967e-06
-3.92571e-06
-4.04204e-06
-4.42513e-06
-3.03317e-06
-2.9974e-06
-3.0758e-06
-4.14735e-06
-4.15113e-06
-4.66902e-06
-5.6377e-06
-7.02444e-06
-6.98512e-06
-6.86368e-06
-6.05442e-06
-6.60703e-06
-6.41835e-06
-6.05813e-06
-5.44495e-06
-4.79158e-06
-4.27987e-06
-4.90441e-06
-5.00756e-06
-5.03525e-06
-4.59912e-06
-5.82927e-06
-6.11863e-06
-6.48482e-06
-5.5666e-06
-6.00446e-06
-5.5767e-06
-6.30317e-06
-5.69151e-06
-5.03895e-06
-2.90665e-06
-3.19164e-06
-2.7967e-06
-2.3758e-06
-1.57136e-06
-1.43484e-06
-8.07033e-07
-1.63342e-06
-1.88205e-06
-2.20522e-06
-1.35493e-06
-1.11162e-06
-1.14868e-06
-1.89233e-06
-2.36906e-06
-2.77881e-06
-3.48978e-06
-4.48779e-06
-4.66728e-06
-4.64874e-06
-4.03059e-06
-4.29607e-06
-4.02321e-06
-3.92167e-06
-3.59306e-06
-3.22047e-06
-2.69552e-06
-3.11329e-06
-3.304e-06
-3.50337e-06
-3.03988e-06
-3.60117e-06
-3.84565e-06
-4.26256e-06
-3.81214e-06
-4.10752e-06
-3.54691e-06
-3.97831e-06
-3.52987e-06
-3.208e-06
-1.8409e-06
-1.88132e-06
-1.47741e-06
-1.13051e-06
-5.99967e-07
-4.54777e-07
5.66527e-08
-3.47203e-07
-6.45298e-07
-8.69549e-07
-4.2653e-07
-1.45182e-07
-1.81449e-07
-6.5192e-07
-1.26279e-06
-1.65071e-06
-2.2271e-06
-2.98358e-06
-3.19961e-06
-3.28621e-06
-2.88617e-06
-3.0227e-06
-2.69798e-06
-2.64422e-06
-2.49085e-06
-2.34546e-06
-1.88654e-06
-2.11898e-06
-2.31511e-06
-2.53404e-06
-2.16081e-06
-2.36304e-06
-2.51157e-06
-2.85866e-06
-2.65793e-06
-2.93494e-06
-2.34993e-06
-2.58408e-06
-2.20405e-06
-2.05678e-06
-1.14353e-06
-1.05703e-06
-7.06269e-07
-3.66543e-07
-4.23387e-08
7.28524e-08
4.58928e-07
3.3049e-07
7.81682e-08
-1.08307e-07
9.59275e-08
3.43614e-07
2.99559e-07
6.77369e-09
-5.71116e-07
-9.92763e-07
-1.52525e-06
-2.07576e-06
-2.29124e-06
-2.40083e-06
-2.17608e-06
-2.24587e-06
-1.93536e-06
-1.90094e-06
-1.7949e-06
-1.78688e-06
-1.41033e-06
-1.57796e-06
-1.7173e-06
-1.87223e-06
-1.64611e-06
-1.66654e-06
-1.74539e-06
-1.96822e-06
-1.90842e-06
-2.17321e-06
-1.61639e-06
-1.72225e-06
-1.4001e-06
-1.29554e-06
-6.62691e-07
-5.33458e-07
-2.31026e-07
8.7156e-08
2.94396e-07
3.94937e-07
6.58721e-07
6.69404e-07
4.5546e-07
3.41556e-07
4.21466e-07
5.83579e-07
4.9488e-07
3.08836e-07
-1.70547e-07
-5.85402e-07
-1.07147e-06
-1.47114e-06
-1.71353e-06
-1.7853e-06
-1.70842e-06
-1.73891e-06
-1.49416e-06
-1.46498e-06
-1.34795e-06
-1.41659e-06
-1.12303e-06
-1.239e-06
-1.35665e-06
-1.47007e-06
-1.32328e-06
-1.23428e-06
-1.30267e-06
-1.41489e-06
-1.38046e-06
-1.64177e-06
-1.14812e-06
-1.19581e-06
-8.96516e-07
-7.87865e-07
-3.38235e-07
-1.97957e-07
3.8515e-08
3.34723e-07
4.87245e-07
5.81347e-07
7.34878e-07
8.1174e-07
6.13104e-07
5.28149e-07
5.58494e-07
6.66193e-07
5.51243e-07
4.09612e-07
5.04329e-08
-3.11076e-07
-7.4906e-07
-1.04439e-06
-1.32856e-06
-1.35921e-06
-1.3922e-06
-1.40902e-06
-1.23185e-06
-1.20465e-06
-1.05203e-06
-1.17985e-06
-9.16599e-07
-1.01769e-06
-1.12442e-06
-1.19922e-06
-1.09987e-06
-9.64261e-07
-1.0549e-06
-1.07171e-06
-1.0249e-06
-1.25801e-06
-8.28069e-07
-8.6006e-07
-5.65304e-07
-4.57578e-07
-1.37715e-07
-4.69354e-11
1.78492e-07
4.53546e-07
5.79195e-07
6.71549e-07
7.33112e-07
8.47436e-07
6.59022e-07
5.89161e-07
5.96164e-07
6.53376e-07
5.31048e-07
4.03284e-07
1.49434e-07
-1.48052e-07
-5.30002e-07
-7.16533e-07
-1.05106e-06
-1.04271e-06
-1.17158e-06
-1.16314e-06
-1.03595e-06
-1.04301e-06
-8.3894e-07
-1.02235e-06
-7.61944e-07
-8.63832e-07
-9.8075e-07
-1.0361e-06
-9.79117e-07
-7.97095e-07
-8.86567e-07
-8.54206e-07
-8.0247e-07
-9.99653e-07
-6.0804e-07
-6.5043e-07
-3.71772e-07
-2.74839e-07
-2.48291e-08
1.18571e-07
2.51533e-07
5.00724e-07
5.89783e-07
6.88503e-07
6.67644e-07
8.21124e-07
6.38228e-07
5.53363e-07
5.47327e-07
5.69975e-07
4.6306e-07
3.3015e-07
1.68247e-07
-6.19026e-08
-3.91775e-07
-4.771e-07
-8.48517e-07
-8.08354e-07
-1.00878e-06
-9.78245e-07
-8.70819e-07
-9.16883e-07
-6.84286e-07
-9.20941e-07
-6.62665e-07
-7.56146e-07
-8.76261e-07
-9.20298e-07
-8.87327e-07
-6.7982e-07
-7.58976e-07
-7.09384e-07
-6.49892e-07
-8.2303e-07
-4.6276e-07
-5.31097e-07
-2.7163e-07
-1.89522e-07
6.70871e-10
1.55107e-07
2.78616e-07
5.05472e-07
5.39235e-07
6.5827e-07
5.60588e-07
7.45233e-07
5.65467e-07
4.86856e-07
4.7917e-07
4.80137e-07
3.89557e-07
2.37151e-07
1.47137e-07
-3.87841e-08
-3.20218e-07
-3.11617e-07
-6.95845e-07
-6.32764e-07
-8.75136e-07
-8.2513e-07
-7.29331e-07
-8.2668e-07
-5.79368e-07
-8.6506e-07
-5.77429e-07
-6.60448e-07
-7.738e-07
-8.00666e-07
-7.9666e-07
-6.00989e-07
-6.73161e-07
-6.29789e-07
-5.60496e-07
-7.1197e-07
-3.8634e-07
-4.73984e-07
-2.38185e-07
-1.86413e-07
-1.5112e-08
1.47883e-07
2.65471e-07
4.84716e-07
4.51374e-07
5.94968e-07
4.33822e-07
6.52798e-07
4.65221e-07
3.9243e-07
3.98188e-07
3.80651e-07
3.098e-07
1.3799e-07
9.96077e-08
-5.53014e-08
-2.97376e-07
-2.26016e-07
-5.896e-07
-4.99374e-07
-7.55296e-07
-6.9903e-07
-6.15202e-07
-7.58461e-07
-4.95959e-07
-8.11602e-07
-5.14806e-07
-5.7787e-07
-6.75997e-07
-6.82516e-07
-6.96793e-07
-5.34297e-07
-5.94582e-07
-5.79344e-07
-5.06239e-07
-6.31988e-07
-3.45862e-07
-4.38396e-07
-2.27866e-07
-2.15416e-07
-6.19719e-08
7.76755e-08
1.79159e-07
4.13768e-07
3.22013e-07
5.10013e-07
3.00618e-07
5.56052e-07
3.5889e-07
2.9652e-07
3.13813e-07
2.88547e-07
2.35886e-07
4.75561e-08
3.91476e-08
-8.43052e-08
-2.88853e-07
-1.73688e-07
-4.95893e-07
-4.09521e-07
-6.51995e-07
-6.12199e-07
-5.23468e-07
-6.99363e-07
-4.30899e-07
-7.68798e-07
-4.70425e-07
-5.16261e-07
-5.89545e-07
-5.73744e-07
-5.84716e-07
-4.77397e-07
-5.10162e-07
-5.2435e-07
-4.54579e-07
-5.62237e-07
-3.32908e-07
-4.2092e-07
-2.34981e-07
-2.53894e-07
-1.08436e-07
1.29713e-08
6.65464e-08
3.3007e-07
1.67091e-07
4.22703e-07
1.7228e-07
4.65883e-07
2.5102e-07
2.07701e-07
2.20967e-07
1.95673e-07
1.66042e-07
-3.06919e-08
-1.01891e-08
-1.20958e-07
-2.75399e-07
-1.73916e-07
-4.0955e-07
-3.59643e-07
-5.35072e-07
-5.33914e-07
-4.28455e-07
-6.40384e-07
-3.85924e-07
-7.15977e-07
-4.28892e-07
-4.68859e-07
-5.29196e-07
-5.08848e-07
-4.94422e-07
-4.35743e-07
-4.31194e-07
-4.61517e-07
-4.16756e-07
-4.96399e-07
-3.48258e-07
-4.11879e-07
-2.48153e-07
-2.77235e-07