/*--------------------------------*- C++ -*----------------------------------*\
  =========                 |
  \\      /  F ield         | OpenFOAM: The Open Source CFD Toolbox
   \\    /   O peration     | Website:  https://openfoam.org
    \\  /    A nd           | Version:  10
     \\/     M anipulation  |
\*---------------------------------------------------------------------------*/
FoamFile
{
    format      ascii;
    class       volScalarField;
    location    "20";
    object      pPrime2Mean;
}
// * * * * * * * * * * * * * * * * * * * * * * * * * * * * * * * * * * * * * //

dimensions      [0 4 -4 0 0 0 0];

internalField   nonuniform List<scalar> 
102400
(
1.91516e-05
1.96384e-05
1.77079e-05
1.63098e-05
1.43479e-05
1.54194e-05
1.79411e-05
1.67933e-05
1.79777e-05
2.06298e-05
2.15385e-05
1.98984e-05
2.03151e-05
1.96909e-05
1.8316e-05
1.66057e-05
1.5206e-05
1.57966e-05
1.73168e-05
1.68552e-05
1.8042e-05
1.8195e-05
1.95033e-05
1.82863e-05
1.69516e-05
1.80618e-05
1.96292e-05
1.99151e-05
1.99253e-05
1.90455e-05
2.06471e-05
1.86661e-05
1.58168e-05
1.38135e-05
1.19428e-05
1.07508e-05
9.97222e-06
1.0744e-05
1.30809e-05
1.58423e-05
1.92946e-05
1.97945e-05
1.78485e-05
1.64332e-05
1.44439e-05
1.5521e-05
1.80693e-05
1.69163e-05
1.80962e-05
2.07371e-05
2.17326e-05
2.00507e-05
2.04868e-05
1.98566e-05
1.84436e-05
1.67447e-05
1.53263e-05
1.59214e-05
1.74348e-05
1.69422e-05
1.81522e-05
1.8308e-05
1.96098e-05
1.83936e-05
1.70584e-05
1.81486e-05
1.97668e-05
2.00307e-05
2.00667e-05
1.91704e-05
2.07932e-05
1.88158e-05
1.59432e-05
1.39119e-05
1.20098e-05
1.08373e-05
1.0039e-05
1.08243e-05
1.31664e-05
1.59302e-05
1.95288e-05
2.00399e-05
1.80221e-05
1.65387e-05
1.45269e-05
1.56821e-05
1.83064e-05
1.70946e-05
1.82292e-05
2.08592e-05
2.20993e-05
2.03182e-05
2.07969e-05
2.00791e-05
1.85888e-05
1.69119e-05
1.54605e-05
1.60063e-05
1.76141e-05
1.70867e-05
1.83838e-05
1.85055e-05
1.9738e-05
1.85845e-05
1.71829e-05
1.83042e-05
1.99853e-05
2.02353e-05
2.02643e-05
1.9375e-05
2.09714e-05
1.90713e-05
1.60956e-05
1.40569e-05
1.21138e-05
1.09922e-05
1.01775e-05
1.09429e-05
1.33113e-05
1.609e-05
1.98487e-05
2.02663e-05
1.82442e-05
1.67309e-05
1.46706e-05
1.58731e-05
1.85629e-05
1.72282e-05
1.83231e-05
2.09358e-05
2.2493e-05
2.04857e-05
2.10842e-05
2.02667e-05
1.8735e-05
1.7183e-05
1.55479e-05
1.60694e-05
1.78383e-05
1.72827e-05
1.8605e-05
1.87025e-05
1.97595e-05
1.8717e-05
1.73009e-05
1.84953e-05
2.03328e-05
2.05295e-05
2.05097e-05
1.95631e-05
2.11692e-05
1.94963e-05
1.62301e-05
1.42086e-05
1.21573e-05
1.10617e-05
1.02598e-05
1.10317e-05
1.34184e-05
1.62794e-05
1.99215e-05
2.02058e-05
1.81741e-05
1.6567e-05
1.47543e-05
1.59471e-05
1.85744e-05
1.72737e-05
1.82924e-05
2.10539e-05
2.29014e-05
2.05004e-05
2.13439e-05
2.02027e-05
1.85556e-05
1.70805e-05
1.52519e-05
1.59164e-05
1.79685e-05
1.7444e-05
1.88317e-05
1.87929e-05
1.93845e-05
1.87461e-05
1.73901e-05
1.87546e-05
2.067e-05
2.0727e-05
2.06978e-05
1.95884e-05
2.1237e-05
1.97972e-05
1.62682e-05
1.42844e-05
1.21928e-05
1.10959e-05
1.02799e-05
1.09679e-05
1.35371e-05
1.627e-05
1.98169e-05
2.00199e-05
1.81248e-05
1.66085e-05
1.48538e-05
1.60908e-05
1.83651e-05
1.71779e-05
1.8085e-05
2.09566e-05
2.28094e-05
2.02988e-05
2.13466e-05
1.97816e-05
1.81342e-05
1.69988e-05
1.49555e-05
1.59456e-05
1.79982e-05
1.75721e-05
1.89211e-05
1.88896e-05
1.89917e-05
1.85111e-05
1.7411e-05
1.88551e-05
2.07489e-05
2.08309e-05
2.08213e-05
1.9699e-05
2.11352e-05
2.01038e-05
1.62291e-05
1.42344e-05
1.22292e-05
1.12618e-05
1.03829e-05
1.10794e-05
1.35737e-05
1.63098e-05
1.96414e-05
1.98937e-05
1.79591e-05
1.63001e-05
1.48757e-05
1.58616e-05
1.79778e-05
1.69013e-05
1.7813e-05
2.07384e-05
2.22077e-05
1.99767e-05
2.08588e-05
1.92697e-05
1.77605e-05
1.67482e-05
1.47715e-05
1.58281e-05
1.78579e-05
1.75191e-05
1.87687e-05
1.87079e-05
1.85187e-05
1.80917e-05
1.73825e-05
1.88639e-05
2.06472e-05
2.08321e-05
2.08843e-05
1.99107e-05
2.10174e-05
2.05257e-05
1.63215e-05
1.41465e-05
1.2275e-05
1.13879e-05
1.05388e-05
1.09538e-05
1.34913e-05
1.62986e-05
1.92234e-05
1.96351e-05
1.75611e-05
1.59631e-05
1.47737e-05
1.54239e-05
1.73824e-05
1.64998e-05
1.73405e-05
2.07729e-05
2.13911e-05
1.96061e-05
2.00437e-05
1.8809e-05
1.7546e-05
1.64753e-05
1.47763e-05
1.58222e-05
1.75564e-05
1.72466e-05
1.8412e-05
1.82502e-05
1.8182e-05
1.76748e-05
1.73271e-05
1.8729e-05
2.02555e-05
2.06002e-05
2.06127e-05
1.99884e-05
2.09569e-05
2.08667e-05
1.653e-05
1.39749e-05
1.24222e-05
1.15771e-05
1.07929e-05
1.10042e-05
1.33564e-05
1.62308e-05
1.82674e-05
1.88779e-05
1.67862e-05
1.5177e-05
1.44159e-05
1.47155e-05
1.68196e-05
1.59745e-05
1.71345e-05
2.05862e-05
2.05807e-05
1.91562e-05
1.92061e-05
1.81366e-05
1.69388e-05
1.58668e-05
1.44546e-05
1.54256e-05
1.68487e-05
1.65782e-05
1.77233e-05
1.76033e-05
1.75908e-05
1.69838e-05
1.69777e-05
1.83071e-05
1.95403e-05
1.99947e-05
2.00332e-05
1.95721e-05
2.05863e-05
2.04008e-05
1.66789e-05
1.36592e-05
1.23752e-05
1.1583e-05
1.08745e-05
1.08888e-05
1.28563e-05
1.56982e-05
1.65097e-05
1.72875e-05
1.5615e-05
1.41697e-05
1.36851e-05
1.38567e-05
1.56268e-05
1.49327e-05
1.62288e-05
1.9116e-05
1.90002e-05
1.78672e-05
1.77748e-05
1.68086e-05
1.54926e-05
1.43908e-05
1.34268e-05
1.4537e-05
1.57264e-05
1.5529e-05
1.67102e-05
1.66367e-05
1.67003e-05
1.60314e-05
1.625e-05
1.7437e-05
1.83634e-05
1.88968e-05
1.89046e-05
1.85354e-05
1.93874e-05
1.90561e-05
1.60581e-05
1.30467e-05
1.17971e-05
1.10216e-05
1.03494e-05
1.01811e-05
1.17248e-05
1.4428e-05
1.45438e-05
1.52496e-05
1.40653e-05
1.28693e-05
1.23879e-05
1.24505e-05
1.38212e-05
1.32846e-05
1.4514e-05
1.66939e-05
1.65832e-05
1.5671e-05
1.55914e-05
1.50344e-05
1.35447e-05
1.24426e-05
1.16924e-05
1.29367e-05
1.42098e-05
1.41231e-05
1.49557e-05
1.50136e-05
1.52599e-05
1.47321e-05
1.49296e-05
1.60237e-05
1.69031e-05
1.73297e-05
1.71711e-05
1.68819e-05
1.74658e-05
1.71739e-05
1.48322e-05
1.22792e-05
1.08374e-05
9.8342e-06
9.17126e-06
9.15784e-06
1.0504e-05
1.28008e-05
1.2326e-05
1.28886e-05
1.21666e-05
1.12073e-05
1.05457e-05
1.0401e-05
1.13775e-05
1.10371e-05
1.21123e-05
1.36736e-05
1.36621e-05
1.31369e-05
1.3236e-05
1.31469e-05
1.16775e-05
1.04655e-05
9.83218e-06
1.09012e-05
1.21711e-05
1.21929e-05
1.25538e-05
1.27521e-05
1.32623e-05
1.29829e-05
1.31886e-05
1.41446e-05
1.50012e-05
1.54049e-05
1.51568e-05
1.48808e-05
1.53158e-05
1.50126e-05
1.32839e-05
1.11871e-05
9.51554e-06
8.39228e-06
7.87665e-06
8.03879e-06
9.20064e-06
1.0923e-05
9.53444e-06
9.98174e-06
9.55815e-06
8.91687e-06
8.29375e-06
8.05784e-06
8.67731e-06
8.4584e-06
9.32833e-06
1.04613e-05
1.04922e-05
1.02327e-05
1.05262e-05
1.06709e-05
9.43112e-06
8.3361e-06
7.80467e-06
8.72138e-06
9.77164e-06
9.77464e-06
9.72472e-06
9.96137e-06
1.05176e-05
1.04573e-05
1.08201e-05
1.15462e-05
1.23525e-05
1.27554e-05
1.26157e-05
1.23224e-05
1.26831e-05
1.23567e-05
1.09659e-05
9.26964e-06
7.65198e-06
6.69269e-06
6.40376e-06
6.57016e-06
7.48123e-06
8.55889e-06
6.8498e-06
7.16395e-06
7.00317e-06
6.63154e-06
6.1293e-06
5.93374e-06
6.2488e-06
6.10502e-06
6.68333e-06
7.50577e-06
7.54954e-06
7.45586e-06
7.79747e-06
8.03738e-06
7.12372e-06
6.21544e-06
5.86645e-06
6.56524e-06
7.36135e-06
7.42212e-06
7.0858e-06
7.2306e-06
7.64289e-06
7.61909e-06
7.96008e-06
8.44846e-06
9.045e-06
9.49481e-06
9.48559e-06
9.16827e-06
9.53497e-06
9.26796e-06
8.21679e-06
6.98494e-06
5.70053e-06
5.01405e-06
4.87545e-06
4.9811e-06
5.55055e-06
6.20503e-06
4.75695e-06
4.97139e-06
4.983e-06
4.78056e-06
4.43697e-06
4.28893e-06
4.39454e-06
4.26436e-06
4.65505e-06
5.22169e-06
5.3079e-06
5.31788e-06
5.61376e-06
5.89725e-06
5.2691e-06
4.53602e-06
4.32937e-06
4.76294e-06
5.35628e-06
5.47767e-06
5.04912e-06
5.0929e-06
5.39558e-06
5.34343e-06
5.52468e-06
5.75693e-06
6.15312e-06
6.5316e-06
6.60663e-06
6.25319e-06
6.52151e-06
6.43863e-06
5.80467e-06
5.08466e-06
4.12427e-06
3.62149e-06
3.53415e-06
3.62317e-06
3.93765e-06
4.33292e-06
3.21933e-06
3.36165e-06
3.46812e-06
3.34315e-06
3.09955e-06
2.98722e-06
3.00023e-06
2.89542e-06
3.17773e-06
3.55718e-06
3.64083e-06
3.67707e-06
3.90131e-06
4.17539e-06
3.73395e-06
3.13645e-06
3.03966e-06
3.3322e-06
3.78619e-06
3.94504e-06
3.55584e-06
3.54731e-06
3.75368e-06
3.68008e-06
3.74268e-06
3.83383e-06
4.11336e-06
4.37624e-06
4.46095e-06
4.12793e-06
4.30882e-06
4.33609e-06
4.01203e-06
3.5953e-06
2.92441e-06
2.54809e-06
2.48785e-06
2.56242e-06
2.73031e-06
2.97177e-06
2.12388e-06
2.21193e-06
2.3738e-06
2.30209e-06
2.11778e-06
2.03607e-06
2.00735e-06
1.93605e-06
2.14474e-06
2.36765e-06
2.42329e-06
2.46762e-06
2.63478e-06
2.86981e-06
2.57646e-06
2.07591e-06
2.01843e-06
2.19443e-06
2.51183e-06
2.70305e-06
2.44009e-06
2.42002e-06
2.54883e-06
2.48402e-06
2.49371e-06
2.51917e-06
2.71689e-06
2.89228e-06
2.98847e-06
2.71078e-06
2.79657e-06
2.8733e-06
2.70265e-06
2.45826e-06
2.01436e-06
1.72574e-06
1.66921e-06
1.73569e-06
1.83413e-06
1.99125e-06
1.33622e-06
1.38494e-06
1.5758e-06
1.53703e-06
1.40374e-06
1.35445e-06
1.3102e-06
1.26911e-06
1.42286e-06
1.54479e-06
1.58082e-06
1.62178e-06
1.74169e-06
1.95027e-06
1.77095e-06
1.36372e-06
1.32697e-06
1.42826e-06
1.62713e-06
1.80669e-06
1.64294e-06
1.63134e-06
1.71339e-06
1.65621e-06
1.63257e-06
1.63316e-06
1.77079e-06
1.89229e-06
1.97277e-06
1.76104e-06
1.78813e-06
1.89029e-06
1.79513e-06
1.64443e-06
1.36691e-06
1.14348e-06
1.0825e-06
1.12385e-06
1.18646e-06
1.28453e-06
8.12918e-07
8.35988e-07
1.02122e-06
9.9929e-07
8.97051e-07
8.78445e-07
8.31401e-07
8.17309e-07
9.32004e-07
9.91784e-07
1.01619e-06
1.04693e-06
1.13024e-06
1.31216e-06
1.22593e-06
9.04701e-07
8.75297e-07
9.28481e-07
1.0396e-06
1.18727e-06
1.09068e-06
1.09504e-06
1.1528e-06
1.1014e-06
1.05917e-06
1.05041e-06
1.14403e-06
1.22959e-06
1.28499e-06
1.13781e-06
1.13149e-06
1.24028e-06
1.19329e-06
1.09703e-06
9.23918e-07
7.52201e-07
6.91814e-07
7.12183e-07
7.48453e-07
8.0335e-07
4.77988e-07
4.87499e-07
6.58495e-07
6.41471e-07
5.58473e-07
5.70123e-07
5.21607e-07
5.2441e-07
6.12126e-07
6.35594e-07
6.57083e-07
6.76492e-07
7.26772e-07
8.83113e-07
8.66696e-07
6.08983e-07
5.8384e-07
6.14488e-07
6.6455e-07
7.78962e-07
7.20231e-07
7.3814e-07
7.82456e-07
7.3882e-07
6.89468e-07
6.71999e-07
7.38564e-07
7.9651e-07
8.26358e-07
7.37199e-07
7.11216e-07
8.04973e-07
7.94436e-07
7.36988e-07
6.27874e-07
4.98043e-07
4.44133e-07
4.46457e-07
4.65737e-07
4.98398e-07
2.73443e-07
2.75129e-07
4.31332e-07
4.14119e-07
3.41037e-07
3.77831e-07
3.31333e-07
3.3889e-07
4.10917e-07
4.12776e-07
4.35591e-07
4.51967e-07
4.71575e-07
5.97919e-07
6.19381e-07
4.19265e-07
4.01254e-07
4.19507e-07
4.28357e-07
5.17676e-07
4.82971e-07
5.05755e-07
5.43542e-07
5.07616e-07
4.62838e-07
4.37673e-07
4.86326e-07
5.25988e-07
5.38137e-07
4.90857e-07
4.59771e-07
5.33066e-07
5.42649e-07
5.03147e-07
4.34912e-07
3.39715e-07
2.9283e-07
2.83826e-07
2.91667e-07
3.1287e-07
1.54561e-07
1.4652e-07
2.90869e-07
2.75453e-07
2.04473e-07
2.57932e-07
2.18361e-07
2.23186e-07
2.83751e-07
2.72461e-07
2.9791e-07
3.20402e-07
3.15087e-07
4.10542e-07
4.48752e-07
2.94521e-07
2.8395e-07
3.00981e-07
2.82945e-07
3.5447e-07
3.34356e-07
3.53102e-07
3.88356e-07
3.62575e-07
3.26733e-07
2.95548e-07
3.3169e-07
3.57913e-07
3.60489e-07
3.4148e-07
3.10631e-07
3.63365e-07
3.82624e-07
3.48885e-07
3.09485e-07
2.40802e-07
1.99228e-07
1.8797e-07
1.85208e-07
2.01059e-07
9.31782e-08
7.03306e-08
2.04686e-07
1.93125e-07
1.21128e-07
1.84111e-07
1.54321e-07
1.51027e-07
2.02987e-07
1.8466e-07
2.11937e-07
2.44543e-07
2.23702e-07
2.88798e-07
3.33022e-07
2.11834e-07
2.06534e-07
2.30534e-07
1.95158e-07
2.53489e-07
2.43932e-07
2.52465e-07
2.87313e-07
2.69422e-07
2.4617e-07
2.12032e-07
2.3735e-07
2.56723e-07
2.53188e-07
2.53233e-07
2.24177e-07
2.57396e-07
2.83945e-07
2.49949e-07
2.3075e-07
1.80254e-07
1.40181e-07
1.33056e-07
1.22233e-07
1.37035e-07
6.75128e-08
2.7193e-08
1.49804e-07
1.4755e-07
7.18451e-08
1.36205e-07
1.20441e-07
1.06991e-07
1.53125e-07
1.33417e-07
1.56729e-07
1.99225e-07
1.7233e-07
2.09216e-07
2.52494e-07
1.57078e-07
1.54644e-07
1.89897e-07
1.4428e-07
1.90787e-07
1.88663e-07
1.86777e-07
2.20644e-07
2.05432e-07
1.96943e-07
1.65169e-07
1.78312e-07
1.95325e-07
1.88022e-07
2.00499e-07
1.75199e-07
1.91637e-07
2.2346e-07
1.86399e-07
1.80524e-07
1.4453e-07
1.04335e-07
1.03755e-07
8.49326e-08
1.01205e-07
6.27978e-08
6.16785e-09
1.11946e-07
1.2438e-07
4.62743e-08
1.03288e-07
1.06192e-07
8.37173e-08
1.22259e-07
1.07837e-07
1.19273e-07
1.66833e-07
1.42152e-07
1.55979e-07
1.97078e-07
1.22491e-07
1.20243e-07
1.65292e-07
1.15742e-07
1.51092e-07
1.52935e-07
1.42719e-07
1.76652e-07
1.601e-07
1.62883e-07
1.40864e-07
1.40989e-07
1.58189e-07
1.48531e-07
1.68685e-07
1.47093e-07
1.49675e-07
1.85035e-07
1.4658e-07
1.48964e-07
1.23881e-07
8.3892e-08
8.97943e-08
6.3301e-08
8.1534e-08
6.70619e-08
1.20423e-13
8.3083e-08
1.12736e-07
3.94591e-08
8.10032e-08
1.02421e-07
7.64201e-08
1.02162e-07
9.75316e-08
9.36984e-08
1.38313e-07
1.21101e-07
1.19209e-07
1.60167e-07
1.03324e-07
9.98296e-08
1.49765e-07
9.95421e-08
1.25567e-07
1.27642e-07
1.10665e-07
1.48358e-07
1.28295e-07
1.35512e-07
1.28312e-07
1.17747e-07
1.34602e-07
1.24324e-07
1.48493e-07
1.29937e-07
1.21728e-07
1.5999e-07
1.22693e-07
1.29059e-07
1.12491e-07
7.3741e-08
8.59595e-08
5.25589e-08
6.95164e-08
7.3571e-08
5.65506e-09
6.13592e-08
1.05679e-07
4.65597e-08
6.82738e-08
1.01401e-07
7.89351e-08
8.95032e-08
9.34362e-08
7.76969e-08
1.11963e-07
1.0396e-07
9.36989e-08
1.38229e-07
9.58688e-08
8.85791e-08
1.37277e-07
8.68027e-08
1.07935e-07
1.11559e-07
8.51725e-08
1.30675e-07
1.07994e-07
1.11651e-07
1.20196e-07
1.03841e-07
1.19621e-07
1.08478e-07
1.3369e-07
1.19743e-07
1.02375e-07
1.41946e-07
1.10478e-07
1.14624e-07
1.0476e-07
6.93912e-08
8.67317e-08
4.99833e-08
6.13024e-08
7.90406e-08
2.12245e-08
4.87238e-08
1.001e-07
5.88177e-08
6.2596e-08
9.90609e-08
8.18131e-08
8.12754e-08
8.99912e-08
7.06143e-08
9.19999e-08
9.09062e-08
7.90601e-08
1.23813e-07
9.46132e-08
8.03751e-08
1.23672e-07
7.67932e-08
9.27702e-08
1.04671e-07
6.84603e-08
1.16876e-07
9.91293e-08
9.09875e-08
1.11605e-07
9.61919e-08
1.09756e-07
9.83272e-08
1.20549e-07
1.14633e-07
8.93093e-08
1.25372e-07
1.0497e-07
1.03672e-07
9.61712e-08
6.79006e-08
8.65662e-08
5.30456e-08
5.68116e-08
8.08349e-08
4.24681e-08
4.4535e-08
9.30267e-08
6.7115e-08
5.91182e-08
9.41855e-08
7.91916e-08
7.6449e-08
8.4925e-08
6.93628e-08
8.10724e-08
7.99921e-08
7.50544e-08
1.09227e-07
9.23718e-08
7.67141e-08
1.06858e-07
7.39982e-08
8.05867e-08
9.86561e-08
6.42422e-08
1.00168e-07
9.54958e-08
7.77684e-08
9.90602e-08
9.3547e-08
1.01952e-07
9.14763e-08
1.07204e-07
1.08629e-07
8.19491e-08
1.05516e-07
1.00193e-07
9.56773e-08
8.28351e-08
6.66885e-08
8.37274e-08
5.81919e-08
5.67009e-08
7.50414e-08
6.01158e-08
4.5821e-08
7.93495e-08
6.7859e-08
5.59289e-08
8.79379e-08
7.24014e-08
7.21279e-08
7.83465e-08
6.92148e-08
7.66589e-08
6.80082e-08
7.74967e-08
9.38912e-08
8.11004e-08
7.82502e-08
8.63033e-08
7.37937e-08
7.73769e-08
8.50872e-08
6.85756e-08
8.28841e-08
8.75127e-08
7.74487e-08
8.40269e-08
9.29913e-08
9.73465e-08
8.36759e-08
9.42735e-08
9.71249e-08
7.80295e-08
8.35578e-08
9.11299e-08
9.2523e-08
6.96303e-08
6.40173e-08
7.93642e-08
6.21547e-08
5.7859e-08
6.09252e-08
6.59956e-08
5.20615e-08
6.18821e-08
6.35653e-08
5.76317e-08
8.0508e-08
6.84394e-08
6.82822e-08
7.28996e-08
6.90333e-08
7.62605e-08
5.96399e-08
8.01342e-08
8.36636e-08
6.49578e-08
8.20509e-08
7.03847e-08
6.85372e-08
8.15992e-08
7.02015e-08
7.50937e-08
7.41539e-08
7.48299e-08
8.36869e-08
6.90998e-08
8.64913e-08
9.36869e-08
7.31825e-08
8.05794e-08
8.21724e-08
7.58371e-08
6.68553e-08
7.79322e-08
9.09618e-08
6.27711e-08
5.85013e-08
7.12792e-08
6.28825e-08
5.56506e-08
4.93033e-08
6.71856e-08
6.75199e-08
5.44556e-08
6.24194e-08
6.97313e-08
7.55644e-08
6.79913e-08
6.53727e-08
7.33672e-08
7.2244e-08
7.26177e-08
6.10608e-08
7.75449e-08
7.71773e-08
5.78467e-08
8.17756e-08
6.42238e-08
6.13247e-08
8.03706e-08
6.15068e-08
7.88756e-08
7.07388e-08
6.75512e-08
8.79081e-08
6.06243e-08
7.85113e-08
8.80515e-08
6.59919e-08
7.00349e-08
7.12792e-08
7.92069e-08
6.38678e-08
6.98592e-08
8.81718e-08
6.50426e-08
5.3217e-08
6.17888e-08
6.51847e-08
5.46749e-08
2.03461e-05
2.19147e-05
2.00139e-05
1.98313e-05
1.98796e-05
2.10436e-05
2.58027e-05
2.43075e-05
2.71778e-05
2.96755e-05
2.74225e-05
2.72986e-05
2.6463e-05
2.5826e-05
2.68816e-05
2.72317e-05
2.66341e-05
2.41861e-05
2.32598e-05
2.17451e-05
2.22211e-05
2.14982e-05
2.18796e-05
2.06167e-05
1.8829e-05
1.9795e-05
2.02983e-05
2.21522e-05
2.22941e-05
2.1915e-05
2.25391e-05
2.15906e-05
1.97828e-05
1.8083e-05
1.73988e-05
1.7609e-05
1.74012e-05
1.70714e-05
1.87034e-05
1.90819e-05
2.04616e-05
2.20515e-05
2.01545e-05
1.99975e-05
2.00171e-05
2.1155e-05
2.59801e-05
2.44585e-05
2.73591e-05
2.98511e-05
2.756e-05
2.74805e-05
2.66402e-05
2.5982e-05
2.70378e-05
2.7398e-05
2.6792e-05
2.43322e-05
2.34216e-05
2.18573e-05
2.24139e-05
2.16718e-05
2.20387e-05
2.07489e-05
1.894e-05
1.99305e-05
2.04301e-05
2.22877e-05
2.24079e-05
2.20243e-05
2.26459e-05
2.17076e-05
1.99214e-05
1.8193e-05
1.74894e-05
1.77258e-05
1.74969e-05
1.71519e-05
1.88072e-05
1.91786e-05
2.06942e-05
2.23225e-05
2.0406e-05
2.03177e-05
2.02971e-05
2.14365e-05
2.63207e-05
2.47497e-05
2.77251e-05
3.03019e-05
2.78164e-05
2.7795e-05
2.6926e-05
2.62201e-05
2.72357e-05
2.76876e-05
2.70617e-05
2.45897e-05
2.37321e-05
2.20597e-05
2.27535e-05
2.19725e-05
2.21902e-05
2.08346e-05
1.90249e-05
2.01383e-05
2.06383e-05
2.25185e-05
2.25549e-05
2.21718e-05
2.28147e-05
2.19205e-05
2.01091e-05
1.83418e-05
1.76073e-05
1.7921e-05
1.76681e-05
1.72562e-05
1.90107e-05
1.93683e-05
2.09347e-05
2.26699e-05
2.06657e-05
2.0754e-05
2.05798e-05
2.17098e-05
2.66552e-05
2.50252e-05
2.82875e-05
3.09458e-05
2.81568e-05
2.82479e-05
2.73443e-05
2.65586e-05
2.743e-05
2.80653e-05
2.74238e-05
2.4932e-05
2.40813e-05
2.23069e-05
2.31778e-05
2.22937e-05
2.21737e-05
2.06866e-05
1.89751e-05
2.02223e-05
2.06925e-05
2.27134e-05
2.26711e-05
2.21753e-05
2.28454e-05
2.203e-05
2.0179e-05
1.84079e-05
1.77118e-05
1.80398e-05
1.7781e-05
1.72999e-05
1.92563e-05
1.96029e-05
2.10495e-05
2.30134e-05
2.08741e-05
2.12323e-05
2.08085e-05
2.19739e-05
2.67786e-05
2.51456e-05
2.85509e-05
3.13869e-05
2.85106e-05
2.86974e-05
2.78346e-05
2.7033e-05
2.7754e-05
2.86309e-05
2.76932e-05
2.52711e-05
2.44438e-05
2.25368e-05
2.36058e-05
2.24791e-05
2.20715e-05
2.01669e-05
1.88379e-05
2.00843e-05
2.06552e-05
2.28661e-05
2.26934e-05
2.21214e-05
2.27315e-05
2.21015e-05
2.0185e-05
1.83669e-05
1.77722e-05
1.79444e-05
1.77679e-05
1.7202e-05
1.93616e-05
1.9875e-05
2.10131e-05
2.32356e-05
2.08362e-05
2.12082e-05
2.08841e-05
2.19015e-05
2.65417e-05
2.51585e-05
2.82341e-05
3.11307e-05
2.86624e-05
2.896e-05
2.81142e-05
2.73854e-05
2.79585e-05
2.89458e-05
2.77178e-05
2.5519e-05
2.45443e-05
2.25735e-05
2.32318e-05
2.23736e-05
2.20671e-05
1.97222e-05
1.87605e-05
1.98928e-05
2.06846e-05
2.3024e-05
2.27698e-05
2.20263e-05
2.2502e-05
2.19478e-05
2.01165e-05
1.83498e-05
1.77953e-05
1.77413e-05
1.76886e-05
1.70076e-05
1.94274e-05
2.0085e-05
2.07255e-05
2.29697e-05
2.04405e-05
2.08381e-05
2.06437e-05
2.18224e-05
2.58022e-05
2.48392e-05
2.7381e-05
3.02612e-05
2.80786e-05
2.8756e-05
2.78797e-05
2.7377e-05
2.80072e-05
2.91196e-05
2.75824e-05
2.59041e-05
2.45205e-05
2.25271e-05
2.28619e-05
2.20967e-05
2.17861e-05
1.93098e-05
1.84291e-05
1.94106e-05
2.04151e-05
2.26771e-05
2.24256e-05
2.16231e-05
2.2073e-05
2.14861e-05
1.97897e-05
1.82144e-05
1.75227e-05
1.73147e-05
1.73796e-05
1.66854e-05
1.9444e-05
2.00509e-05
1.99178e-05
2.18147e-05
1.94987e-05
1.9975e-05
1.97803e-05
2.10112e-05
2.45527e-05
2.38106e-05
2.59961e-05
2.8572e-05
2.66692e-05
2.7666e-05
2.70897e-05
2.68979e-05
2.76955e-05
2.88376e-05
2.6839e-05
2.55162e-05
2.36153e-05
2.18213e-05
2.17839e-05
2.11794e-05
2.06853e-05
1.8681e-05
1.7712e-05
1.86608e-05
1.97072e-05
2.16126e-05
2.12509e-05
2.05805e-05
2.10581e-05
2.06971e-05
1.90115e-05
1.7933e-05
1.70649e-05
1.69373e-05
1.68383e-05
1.62137e-05
1.88567e-05
1.94396e-05
1.86795e-05
1.99694e-05
1.81686e-05
1.84676e-05
1.83086e-05
1.97461e-05
2.24756e-05
2.21014e-05
2.39822e-05
2.60657e-05
2.46901e-05
2.58781e-05
2.554e-05
2.56783e-05
2.64527e-05
2.7205e-05
2.51741e-05
2.38165e-05
2.17795e-05
2.05129e-05
2.0108e-05
1.94463e-05
1.86979e-05
1.72898e-05
1.6402e-05
1.73456e-05
1.82142e-05
1.98503e-05
1.96272e-05
1.92454e-05
1.98697e-05
1.93136e-05
1.76863e-05
1.70198e-05
1.61418e-05
1.61091e-05
1.56905e-05
1.5215e-05
1.75173e-05
1.81915e-05
1.69976e-05
1.76163e-05
1.63539e-05
1.61818e-05
1.63321e-05
1.77412e-05
1.99297e-05
1.98279e-05
2.13451e-05
2.30653e-05
2.18709e-05
2.30373e-05
2.28346e-05
2.34122e-05
2.41681e-05
2.43366e-05
2.26251e-05
2.08835e-05
1.92317e-05
1.84895e-05
1.77594e-05
1.69944e-05
1.61143e-05
1.51006e-05
1.44637e-05
1.54893e-05
1.63574e-05
1.76499e-05
1.78413e-05
1.77493e-05
1.84782e-05
1.73874e-05
1.57368e-05
1.53455e-05
1.4577e-05
1.44889e-05
1.37941e-05
1.36166e-05
1.53689e-05
1.6281e-05
1.50783e-05
1.51378e-05
1.43471e-05
1.36912e-05
1.40556e-05
1.53946e-05
1.70451e-05
1.71729e-05
1.81834e-05
1.97856e-05
1.87034e-05
1.97721e-05
1.95707e-05
2.04154e-05
2.13613e-05
2.13079e-05
1.99435e-05
1.79114e-05
1.6553e-05
1.60481e-05
1.51468e-05
1.43669e-05
1.34765e-05
1.27395e-05
1.22519e-05
1.3327e-05
1.42315e-05
1.51951e-05
1.58608e-05
1.59342e-05
1.66746e-05
1.54292e-05
1.36652e-05
1.32265e-05
1.25825e-05
1.24636e-05
1.1729e-05
1.18002e-05
1.292e-05
1.40228e-05
1.30878e-05
1.2773e-05
1.22554e-05
1.13472e-05
1.1623e-05
1.28413e-05
1.40512e-05
1.43472e-05
1.48893e-05
1.62283e-05
1.53833e-05
1.62491e-05
1.61105e-05
1.69318e-05
1.8097e-05
1.81355e-05
1.71063e-05
1.49819e-05
1.36816e-05
1.33413e-05
1.24127e-05
1.17695e-05
1.08956e-05
1.02599e-05
9.86582e-06
1.08422e-05
1.17931e-05
1.25423e-05
1.34687e-05
1.36009e-05
1.42692e-05
1.32196e-05
1.15364e-05
1.09797e-05
1.04249e-05
1.04769e-05
9.76783e-06
9.93051e-06
1.05586e-05
1.17519e-05
1.07329e-05
1.03531e-05
9.85545e-06
9.05355e-06
9.10396e-06
1.01575e-05
1.10833e-05
1.13824e-05
1.1688e-05
1.26162e-05
1.20085e-05
1.27438e-05
1.28117e-05
1.35744e-05
1.48139e-05
1.50214e-05
1.41825e-05
1.21623e-05
1.08636e-05
1.05885e-05
9.89645e-06
9.37154e-06
8.60376e-06
7.91048e-06
7.57921e-06
8.36961e-06
9.35443e-06
9.94913e-06
1.08553e-05
1.0992e-05
1.14475e-05
1.0747e-05
9.29202e-06
8.7411e-06
8.29684e-06
8.48137e-06
7.87485e-06
7.89477e-06
8.2835e-06
9.27857e-06
8.27537e-06
8.07724e-06
7.55998e-06
6.94449e-06
6.78786e-06
7.60804e-06
8.38057e-06
8.5722e-06
8.81468e-06
9.39709e-06
8.99989e-06
9.59099e-06
9.73127e-06
1.05043e-05
1.1675e-05
1.20931e-05
1.14324e-05
9.71371e-06
8.48944e-06
8.2554e-06
7.78667e-06
7.28515e-06
6.66983e-06
5.97624e-06
5.67961e-06
6.30899e-06
7.22744e-06
7.71221e-06
8.33878e-06
8.46919e-06
8.79391e-06
8.39833e-06
7.17332e-06
6.71442e-06
6.39375e-06
6.5013e-06
6.08719e-06
5.96957e-06
6.18681e-06
7.00636e-06
6.03456e-06
6.00885e-06
5.49655e-06
5.02724e-06
4.82578e-06
5.4125e-06
6.03377e-06
6.10193e-06
6.326e-06
6.67806e-06
6.46609e-06
6.97396e-06
7.10509e-06
7.76499e-06
8.7179e-06
9.15697e-06
8.71704e-06
7.3682e-06
6.37499e-06
6.09056e-06
5.83131e-06
5.41421e-06
4.96544e-06
4.36929e-06
4.13005e-06
4.63757e-06
5.42296e-06
5.8102e-06
6.14266e-06
6.2472e-06
6.49616e-06
6.28917e-06
5.35573e-06
4.98891e-06
4.76151e-06
4.73104e-06
4.47798e-06
4.32196e-06
4.40899e-06
5.11476e-06
4.20068e-06
4.23336e-06
3.81115e-06
3.45309e-06
3.311e-06
3.72861e-06
4.22891e-06
4.24164e-06
4.37717e-06
4.57451e-06
4.47462e-06
4.8602e-06
4.94451e-06
5.43632e-06
6.15198e-06
6.51019e-06
6.1961e-06
5.15897e-06
4.44911e-06
4.2308e-06
4.13906e-06
3.86983e-06
3.53353e-06
3.07624e-06
2.91286e-06
3.2978e-06
3.89688e-06
4.19555e-06
4.37172e-06
4.43628e-06
4.63567e-06
4.53416e-06
3.8719e-06
3.58564e-06
3.43173e-06
3.32812e-06
3.17629e-06
3.05848e-06
3.03827e-06
3.56432e-06
2.82663e-06
2.86399e-06
2.55614e-06
2.27597e-06
2.18146e-06
2.48309e-06
2.85236e-06
2.86277e-06
2.91251e-06
3.00718e-06
2.98351e-06
3.24561e-06
3.26678e-06
3.60823e-06
4.13027e-06
4.37814e-06
4.21701e-06
3.47885e-06
2.97853e-06
2.8672e-06
2.85673e-06
2.71184e-06
2.45139e-06
2.1046e-06
1.99895e-06
2.27723e-06
2.69469e-06
2.88243e-06
2.99258e-06
3.02859e-06
3.1873e-06
3.15325e-06
2.68728e-06
2.45448e-06
2.35334e-06
2.27838e-06
2.18155e-06
2.09997e-06
2.03977e-06
2.39397e-06
1.81927e-06
1.83246e-06
1.64438e-06
1.43141e-06
1.37162e-06
1.57957e-06
1.82988e-06
1.84788e-06
1.86824e-06
1.91037e-06
1.93513e-06
2.10124e-06
2.05783e-06
2.27055e-06
2.63752e-06
2.78593e-06
2.7315e-06
2.23705e-06
1.89177e-06
1.87155e-06
1.90027e-06
1.85864e-06
1.66945e-06
1.41074e-06
1.34918e-06
1.53973e-06
1.80782e-06
1.91208e-06
1.98551e-06
2.00514e-06
2.12865e-06
2.14048e-06
1.80663e-06
1.61644e-06
1.55918e-06
1.5268e-06
1.45178e-06
1.38238e-06
1.32181e-06
1.54524e-06
1.13072e-06
1.13021e-06
1.02277e-06
8.60641e-07
8.23343e-07
9.79624e-07
1.13428e-06
1.15445e-06
1.16763e-06
1.18212e-06
1.2336e-06
1.33524e-06
1.25272e-06
1.36666e-06
1.62405e-06
1.7024e-06
1.71842e-06
1.41447e-06
1.17362e-06
1.20778e-06
1.24119e-06
1.24964e-06
1.12039e-06
9.28633e-07
8.91456e-07
1.01977e-06
1.19392e-06
1.2387e-06
1.27813e-06
1.29222e-06
1.37699e-06
1.42e-06
1.19454e-06
1.04227e-06
1.01215e-06
1.00369e-06
9.33527e-07
8.78008e-07
8.3382e-07
9.65061e-07
6.82151e-07
6.80122e-07
6.34476e-07
5.11552e-07
4.79349e-07
6.11901e-07
6.96059e-07
7.03726e-07
7.16818e-07
7.2525e-07
7.86655e-07
8.50541e-07
7.52806e-07
8.05488e-07
9.88255e-07
1.01516e-06
1.06143e-06
8.95731e-07
7.23709e-07
7.74569e-07
8.10935e-07
8.36628e-07
7.51154e-07
6.12251e-07
5.91295e-07
6.80032e-07
7.9307e-07
7.94755e-07
8.10576e-07
8.24804e-07
8.8087e-07
9.36349e-07
7.92502e-07
6.69069e-07
6.51502e-07
6.53478e-07
5.93145e-07
5.47522e-07
5.12787e-07
5.89186e-07
4.0184e-07
4.00018e-07
3.98603e-07
3.06171e-07
2.75299e-07
3.97439e-07
4.36074e-07
4.25672e-07
4.41842e-07
4.49786e-07
5.1271e-07
5.596e-07
4.61563e-07
4.8351e-07
6.09542e-07
6.06679e-07
6.60152e-07
5.80986e-07
4.48804e-07
5.04297e-07
5.40266e-07
5.65508e-07
5.14647e-07
4.13702e-07
3.99693e-07
4.59168e-07
5.36078e-07
5.15562e-07
5.14773e-07
5.34996e-07
5.69182e-07
6.25927e-07
5.3984e-07
4.39415e-07
4.30521e-07
4.34661e-07
3.84e-07
3.41319e-07
3.10662e-07
3.55788e-07
2.35934e-07
2.29844e-07
2.63243e-07
1.91395e-07
1.56277e-07
2.70419e-07
2.85725e-07
2.6289e-07
2.79383e-07
2.83271e-07
3.47106e-07
3.86675e-07
2.96244e-07
3.07492e-07
3.9501e-07
3.71284e-07
4.2447e-07
3.96029e-07
2.87261e-07
3.41638e-07
3.73132e-07
3.90635e-07
3.65976e-07
2.94048e-07
2.8362e-07
3.18428e-07
3.77058e-07
3.48504e-07
3.3477e-07
3.62727e-07
3.77787e-07
4.27025e-07
3.81098e-07
2.97478e-07
2.95216e-07
2.9768e-07
2.55021e-07
2.15874e-07
1.87787e-07
2.18098e-07
1.43094e-07
1.28153e-07
1.87778e-07
1.32497e-07
8.82736e-08
1.93278e-07
1.99563e-07
1.69291e-07
1.84604e-07
1.83361e-07
2.45916e-07
2.84732e-07
2.05514e-07
2.11131e-07
2.72763e-07
2.36589e-07
2.84655e-07
2.87128e-07
1.93369e-07
2.45667e-07
2.71981e-07
2.78664e-07
2.70342e-07
2.21443e-07
2.14591e-07
2.31146e-07
2.77172e-07
2.49418e-07
2.26953e-07
2.62833e-07
2.63663e-07
2.99993e-07
2.83008e-07
2.12115e-07
2.13545e-07
2.13236e-07
1.75125e-07
1.43785e-07
1.16205e-07
1.40577e-07
9.63562e-08
6.91234e-08
1.44539e-07
1.05919e-07
4.91112e-08
1.43681e-07
1.5057e-07
1.16765e-07
1.30483e-07
1.26215e-07
1.81628e-07
2.22816e-07
1.58651e-07
1.56479e-07
2.02884e-07
1.58876e-07
2.01068e-07
2.23986e-07
1.39273e-07
1.87647e-07
2.08778e-07
2.05465e-07
2.0948e-07
1.75161e-07
1.7364e-07
1.78888e-07
2.11302e-07
1.92073e-07
1.64921e-07
2.04556e-07
1.97189e-07
2.18485e-07
2.22712e-07
1.60195e-07
1.63741e-07
1.63249e-07
1.26075e-07
1.04725e-07
7.55032e-08
9.93455e-08
7.81166e-08
3.59778e-08
1.14991e-07
9.71672e-08
2.95745e-08
1.08466e-07
1.24086e-07
9.02102e-08
1.01064e-07
9.86633e-08
1.37182e-07
1.80578e-07
1.3419e-07
1.23623e-07
1.63249e-07
1.17109e-07
1.50388e-07
1.87534e-07
1.0878e-07
1.50767e-07
1.67736e-07
1.55384e-07
1.71306e-07
1.42931e-07
1.47573e-07
1.49711e-07
1.66004e-07
1.57752e-07
1.30168e-07
1.69447e-07
1.58893e-07
1.65971e-07
1.85439e-07
1.27993e-07
1.33387e-07
1.33929e-07
9.7617e-08
8.64973e-08
5.32254e-08
7.83835e-08
7.50991e-08
1.9684e-08
9.11281e-08
9.64169e-08
2.65856e-08
8.35349e-08
1.11546e-07
8.12503e-08
8.58735e-08
8.99723e-08
1.06893e-07
1.46128e-07
1.18273e-07
1.01094e-07
1.3953e-07
9.7637e-08
1.19083e-07
1.65462e-07
9.20977e-08
1.25598e-07
1.39177e-07
1.19531e-07
1.47725e-07
1.20594e-07
1.2691e-07
1.33081e-07
1.35807e-07
1.34578e-07
1.11054e-07
1.47609e-07
1.3602e-07
1.32181e-07
1.62828e-07
1.09099e-07
1.14876e-07
1.17087e-07
8.21137e-08
8.05957e-08
4.33631e-08
6.738e-08
7.81594e-08
1.71598e-08
7.13711e-08
9.70034e-08
3.64383e-08
6.94602e-08
1.0544e-07
8.2974e-08
7.94923e-08
8.92801e-08
8.85146e-08
1.15383e-07
1.05078e-07
8.47389e-08
1.24984e-07
9.24048e-08
9.91563e-08
1.48739e-07
8.14664e-08
1.05644e-07
1.21095e-07
9.33186e-08
1.32215e-07
1.06706e-07
1.07564e-07
1.21458e-07
1.16224e-07
1.18881e-07
1.00501e-07
1.34049e-07
1.22996e-07
1.09832e-07
1.48192e-07
1.00924e-07
1.03068e-07
1.06048e-07
7.43222e-08
8.04181e-08
4.21452e-08
6.03384e-08
8.17885e-08
2.68444e-08
5.75938e-08
9.69416e-08
5.07085e-08
6.41104e-08
1.01286e-07
8.4849e-08
7.73267e-08
8.87864e-08
7.92212e-08
9.2824e-08
9.3224e-08
7.5254e-08
1.13969e-07
9.39786e-08
8.57503e-08
1.31447e-07
7.52604e-08
8.83108e-08
1.12393e-07
7.73003e-08
1.17903e-07
9.92492e-08
8.98349e-08
1.11145e-07
1.03879e-07
1.08415e-07
9.41836e-08
1.22499e-07
1.1605e-07
9.50668e-08
1.34001e-07
9.95196e-08
9.44173e-08
9.53192e-08
7.01799e-08
8.05679e-08
4.67364e-08
5.68741e-08
8.22611e-08
4.42607e-08
5.04551e-08
9.28204e-08
6.13601e-08
6.05981e-08
9.6429e-08
8.11606e-08
7.54968e-08
8.49479e-08
7.476e-08
8.02343e-08
8.18729e-08
7.40028e-08
1.01524e-07
9.24999e-08
7.86711e-08
1.11257e-07
7.6111e-08
7.60596e-08
1.036e-07
7.27273e-08
9.95992e-08
9.33453e-08
7.78193e-08
9.87258e-08
9.7724e-08
1.00897e-07
8.89947e-08
1.10368e-07
1.08657e-07
8.50366e-08
1.12911e-07
9.7814e-08
8.81441e-08
8.0968e-08
6.73694e-08
7.90278e-08
5.3979e-08
5.73316e-08
7.55493e-08
6.00813e-08
4.84188e-08
7.95111e-08
6.41467e-08
5.63192e-08
8.95463e-08
7.35531e-08
7.15601e-08
7.76149e-08
7.20065e-08
7.51952e-08
6.9032e-08
7.86375e-08
8.94914e-08
8.13221e-08
7.84885e-08
8.80762e-08
7.65183e-08
7.40172e-08
8.75666e-08
7.4958e-08
8.23733e-08
8.46887e-08
7.67143e-08
8.409e-08
9.47369e-08
9.56241e-08