/*--------------------------------*- C++ -*----------------------------------*\
  =========                 |
  \\      /  F ield         | OpenFOAM: The Open Source CFD Toolbox
   \\    /   O peration     | Website:  https://openfoam.org
    \\  /    A nd           | Version:  10
     \\/     M anipulation  |
\*---------------------------------------------------------------------------*/
FoamFile
{
    format      ascii;
    class       volScalarField;
    location    "5";
    object      p;
}
// * * * * * * * * * * * * * * * * * * * * * * * * * * * * * * * * * * * * * //

dimensions      [0 2 -2 0 0 0 0];

internalField   nonuniform List<scalar> 
102400
(
0.000138243
4.02431e-05
-6.61823e-05
-2.01362e-05
0.000168927
0.000117644
9.93245e-05
-9.38264e-06
-3.42923e-05
0.000141143
0.000109698
7.28405e-05
-2.19504e-05
4.31261e-07
0.000157154
9.91989e-05
3.24179e-05
-0.000135405
-3.89175e-05
0.000195691
0.000120915
9.98159e-06
-0.000102596
-3.7858e-05
0.000158596
0.000115847
5.11303e-05
-5.45026e-05
-1.25741e-05
0.000159357
0.000110386
5.02382e-05
-4.98792e-05
-2.48504e-05
0.000147854
0.000127751
7.08703e-05
-3.90897e-05
-3.70623e-05
0.000169082
0.000137537
4.10401e-05
-6.39009e-05
-2.00268e-05
0.000166098
0.000117046
0.000100077
-6.91158e-06
-3.43714e-05
0.000138866
0.000109278
7.36409e-05
-1.99824e-05
3.02759e-08
0.000154519
9.86285e-05
3.34035e-05
-0.000132705
-3.81797e-05
0.000193275
0.00012056
1.10965e-05
-0.00010031
-3.75598e-05
0.000156182
0.000114901
5.18192e-05
-5.22823e-05
-1.27574e-05
0.000157225
0.000109765
5.08679e-05
-4.7399e-05
-2.45389e-05
0.000145663
0.00012694
7.141e-05
-3.6648e-05
-3.66359e-05
0.000166251
0.000139215
4.27745e-05
-6.19158e-05
-2.09885e-05
0.000164522
0.000118682
0.000101871
-4.29907e-06
-3.50848e-05
0.000137685
0.000111004
7.56111e-05
-1.83417e-05
-1.84451e-06
0.000153282
0.000100276
3.54294e-05
-0.000130418
-3.92876e-05
0.000192204
0.000122465
1.29995e-05
-9.86755e-05
-3.86032e-05
0.00015489
0.000116061
5.34433e-05
-5.03915e-05
-1.39253e-05
0.000156355
0.000111115
5.24099e-05
-4.51308e-05
-2.48381e-05
0.000144543
0.000128345
7.28284e-05
-3.42453e-05
-3.77886e-05
0.000164751
0.000144144
4.54416e-05
-6.06976e-05
-2.32964e-05
0.000164948
0.000123487
0.000104805
-1.84511e-06
-3.65472e-05
0.000138369
0.00011589
7.90698e-05
-1.73463e-05
-4.73033e-06
0.000154263
0.000104969
3.84235e-05
-0.000129387
-4.22865e-05
0.000193248
0.000127455
1.55272e-05
-9.83314e-05
-4.11924e-05
0.000155465
0.000120242
5.6025e-05
-4.93765e-05
-1.63519e-05
0.00015739
0.000115276
5.49328e-05
-4.36763e-05
-2.65752e-05
0.000145217
0.000132971
7.51874e-05
-3.23252e-05
-4.04136e-05
0.000165437
0.000152473
4.89916e-05
-5.9808e-05
-2.74206e-05
0.00016688
0.000131721
0.000108921
8.36333e-07
-3.90683e-05
0.000140772
0.00012429
8.42996e-05
-1.6694e-05
-9.11185e-06
0.000157072
0.000112954
4.23323e-05
-0.000129684
-4.8122e-05
0.000195804
0.000135813
1.86988e-05
-9.89901e-05
-4.56933e-05
0.000157473
0.000127684
5.96437e-05
-4.90171e-05
-2.03057e-05
0.000159766
0.000122462
5.8488e-05
-4.28391e-05
-3.05909e-05
0.000147263
0.000141051
7.84539e-05
-3.05082e-05
-4.50879e-05
0.000167906
0.000163631
5.17809e-05
-5.83639e-05
-3.47042e-05
0.000169311
0.000142951
0.000109971
4.47141e-06
-4.39941e-05
0.000144341
0.000135939
8.58147e-05
-1.57822e-05
-1.60768e-05
0.000160736
0.000124023
4.55822e-05
-0.000130907
-5.85784e-05
0.000198529
0.000147314
2.18853e-05
-9.98539e-05
-5.32387e-05
0.000159884
0.000137944
6.29951e-05
-4.87697e-05
-2.73585e-05
0.00016225
0.000132267
6.17188e-05
-4.19973e-05
-3.83449e-05
0.00014978
0.000151944
8.28247e-05
-2.80191e-05
-5.3082e-05
0.000171341
0.000176707
5.41706e-05
-5.59124e-05
-4.73649e-05
0.000169906
0.0001562
0.000109853
9.46702e-06
-5.34198e-05
0.000146898
0.000151679
8.67456e-05
-1.43766e-05
-2.1561e-05
0.000163007
0.000136878
4.82434e-05
-0.000132186
-7.66419e-05
0.00019866
0.000160667
2.48998e-05
-0.000100261
-6.52627e-05
0.000160175
0.000149888
6.63982e-05
-4.828e-05
-3.93344e-05
0.000161929
0.000144701
6.4792e-05
-4.06029e-05
-5.23259e-05
0.000150595
0.000164182
8.65623e-05
-2.44094e-05
-6.68034e-05
0.00017379
0.000186503
5.50299e-05
-5.30921e-05
-6.7179e-05
0.000161792
0.000167168
0.000106104
1.52353e-05
-6.91255e-05
0.000141187
0.000164819
8.44732e-05
-1.3398e-05
-4.04837e-05
0.000157854
0.000148015
4.89668e-05
-0.000131903
-0.00010467
0.000188577
0.000171978
2.68733e-05
-0.000100131
-8.29519e-05
0.000151745
0.00016145
6.86812e-05
-4.76142e-05
-5.78402e-05
0.000151956
0.000154243
6.64622e-05
-3.86167e-05
-7.42343e-05
0.000140692
0.000174335
8.77979e-05
-2.0045e-05
-8.80954e-05
0.000160383
0.000188683
5.27448e-05
-5.03916e-05
-9.2189e-05
0.000137181
0.000171672
9.586e-05
2.1218e-05
-8.93837e-05
0.000119687
0.000171724
7.6025e-05
-1.39433e-05
-6.51362e-05
0.000138377
0.000152976
4.56559e-05
-0.000126303
-0.000140785
0.000162673
0.000176626
2.69629e-05
-9.86395e-05
-0.00010464
0.000127206
0.000166376
6.7932e-05
-4.62322e-05
-8.12861e-05
0.000126249
0.000157777
6.4962e-05
-3.57807e-05
-0.000101558
0.000115124
0.000177245
8.40347e-05
-1.48388e-05
-0.000114594
0.000131493
0.000178457
4.65062e-05
-4.70407e-05
-0.000110622
9.01772e-05
0.000165513
7.78721e-05
2.87793e-05
-0.000104145
7.70962e-05
0.000167273
6.08821e-05
-1.51931e-05
-8.33514e-05
9.86091e-05
0.00014763
3.64306e-05
-0.000110501
-0.000170051
0.000114818
0.000169854
2.48749e-05
-9.33701e-05
-0.000120211
8.07118e-05
0.000160624
6.24828e-05
-4.29631e-05
-9.88447e-05
7.96004e-05
0.000151332
5.92008e-05
-3.13839e-05
-0.000121578
6.8147e-05
0.000168204
7.41217e-05
-6.6219e-06
-0.000133813
8.10448e-05
0.000151985
3.94095e-05
-4.26012e-05
-0.000112515
2.8176e-05
0.000145721
5.91302e-05
1.66917e-05
-0.000104563
2.2036e-05
0.000148343
4.71351e-05
-2.13311e-05
-8.53199e-05
4.3143e-05
0.000128835
2.52229e-05
-0.000100964
-0.000177394
4.97254e-05
0.000147491
2.27499e-05
-8.20964e-05
-0.000120717
2.1079e-05
0.000137855
5.3621e-05
-3.57554e-05
-0.000101662
2.21041e-05
0.000132487
5.14102e-05
-2.78876e-05
-0.000124442
8.61785e-06
0.000138458
6.16731e-05
-1.40826e-05
-0.000135646
1.72396e-05
0.000113717
2.89986e-05
-3.58726e-05
-9.59513e-05
-1.3331e-05
0.00011205
4.07211e-05
9.1994e-06
-8.89131e-05
-1.30809e-05
0.000115886
3.30811e-05
-2.08481e-05
-7.07424e-05
3.60402e-06
9.61925e-05
1.45637e-05
-8.44527e-05
-0.000159582
3.21815e-06
0.000110428
1.81524e-05
-6.71667e-05
-0.000104559
-1.65466e-05
0.000104575
3.92944e-05
-2.74087e-05
-8.84729e-05
-1.51152e-05
0.000101662
4.01273e-05
-2.32009e-05
-0.000108178
-2.76647e-05
0.000101191
4.5603e-05
-1.55164e-05
-0.000118055
-2.31722e-05
7.97078e-05
1.61106e-05
-2.67418e-05
-6.97412e-05
-2.26628e-05
8.05711e-05
2.44444e-05
6.49432e-06
-6.57681e-05
-2.03404e-05
8.45989e-05
1.92051e-05
-1.3684e-05
-4.94435e-05
-9.41948e-06
6.58129e-05
5.4534e-06
-6.58013e-05
-0.000125877
-1.13824e-05
7.64892e-05
1.11072e-05
-4.9802e-05
-7.83182e-05
-2.46995e-05
7.41316e-05
2.25644e-05
-1.81503e-05
-6.6663e-05
-2.40264e-05
7.29249e-05
2.78043e-05
-1.67346e-05
-7.9864e-05
-3.29512e-05
6.80226e-05
2.87832e-05
-1.09849e-05
-8.84089e-05
-3.05475e-05
5.41217e-05
7.76966e-06
-1.43152e-05
-4.33688e-05
-1.34071e-05
5.45245e-05
1.41505e-05
9.61564e-06
-4.21844e-05
-1.47609e-05
5.76373e-05
9.72458e-06
-2.69194e-06
-2.85564e-05
-6.95296e-06
4.11702e-05
1.93992e-06
-4.45886e-05
-8.90074e-05
-7.7345e-06
5.07435e-05
7.06764e-06
-3.05713e-05
-5.12179e-05
-1.79621e-05
5.09407e-05
2.33125e-05
-6.98489e-06
-4.37115e-05
-1.91388e-05
4.91169e-05
1.98294e-05
-6.31926e-06
-4.97345e-05
-2.38356e-05
4.40964e-05
1.93172e-05
-1.17643e-06
-5.71785e-05
-2.11205e-05
3.56575e-05
2.8176e-06
-4.21629e-06
-2.2688e-05
-7.23511e-06
3.50747e-05
8.99911e-06
1.32809e-05
-2.44186e-05
-1.07607e-05
3.67456e-05
4.97863e-06
5.91357e-06
-1.18168e-05
-5.72158e-06
2.24985e-05
1.57306e-06
-2.78154e-05
-5.92255e-05
-5.93213e-06
3.23705e-05
7.44221e-06
-1.57865e-05
-2.95569e-05
-1.26771e-05
3.34705e-05
1.42125e-05
1.42597e-06
-2.50225e-05
-1.5418e-05
3.13308e-05
1.47796e-05
2.43728e-06
-2.69892e-05
-1.70795e-05
2.7081e-05
1.35912e-05
6.97005e-06
-3.21281e-05
-1.40737e-05
2.2152e-05
1.27605e-07
8.00915e-07
-8.99261e-06
-4.71084e-06
2.02583e-05
5.52572e-06
1.4264e-05
-1.24935e-05
-8.84404e-06
2.10373e-05
1.5642e-06
9.67755e-06
-1.23712e-06
-5.74855e-06
9.02562e-06
-2.03216e-06
-1.6786e-05
-3.78106e-05
-5.693e-06
1.87466e-05
2.53351e-06
-7.13536e-06
-1.48239e-05
-9.55125e-06
1.98698e-05
9.38705e-06
5.2433e-06
-1.18975e-05
-1.29113e-05
1.79924e-05
1.25136e-05
6.45902e-06
-1.1569e-05
-1.29193e-05
1.44829e-05
8.34165e-06
1.0075e-05
-1.4862e-05
-1.00236e-05
1.25207e-05
-1.03931e-06
2.61543e-06
-8.5982e-07
-2.92082e-06
1.04051e-05
2.49267e-06
1.28687e-05
-4.62969e-06
-7.63803e-06
1.05452e-05
-1.05491e-06
9.83601e-06
5.0578e-06
-5.94016e-06
5.97151e-07
-2.98306e-06
-1.00159e-05
-2.3274e-05
-5.70277e-06
9.15649e-06
-6.88725e-07
-2.79138e-06
-5.67204e-06
-7.18518e-06
1.0447e-05
5.37614e-06
6.17908e-06
-3.56394e-06
-1.1023e-05
8.59958e-06
7.54186e-06
7.28802e-06
-2.17169e-06
-9.8779e-06
5.70942e-06
4.32872e-06
1.00598e-05
-4.0746e-06
-7.64907e-06
6.48049e-06
-1.51062e-06
2.88514e-06
3.60565e-06
-1.36354e-06
4.2674e-06
3.91827e-07
1.05184e-05
2.27213e-07
-6.5603e-06
4.053e-06
-3.03564e-06
8.32991e-06
8.30898e-06
-5.55277e-06
-4.39972e-06
-4.04271e-06
-6.18476e-06
-1.31001e-05
-4.82676e-06
3.04732e-06
-2.74089e-06
-8.56783e-07
-4.97613e-07
-5.42034e-06
4.40458e-06
2.40496e-06
5.50003e-06
1.14515e-06
-8.93844e-06
2.85843e-06
4.52978e-06
6.61627e-06
3.08121e-06
-7.38113e-06
2.93794e-07
1.41921e-06
8.63707e-06
2.1829e-06
-6.29729e-06
3.11683e-06
-1.69585e-06
2.3877e-06
5.65984e-06
-3.96531e-07
8.75679e-07
-1.08406e-06
7.94412e-06
2.89372e-06
-5.48835e-06
3.67093e-07
-3.91047e-06
6.15792e-06
9.42114e-06
-4.80808e-06
-6.76326e-06
-4.7283e-06
-4.08607e-06
-6.29444e-06
-3.83619e-06
-4.39708e-07
-3.63588e-06
-3.6491e-07
2.16515e-06
-3.96481e-06
8.74386e-07
3.17503e-07
4.14152e-06
3.45757e-06
-7.03342e-06
-5.09529e-07
2.50427e-06
5.30963e-06
5.55629e-06
-5.35349e-06
-2.6174e-06
-4.96355e-07
6.73093e-06
5.55704e-06
-9.21148e-07
1.40899e-06
-1.60451e-06
1.67224e-06
6.16254e-06
1.75331e-07
-7.67659e-07
-1.91854e-06
5.57272e-06
4.02514e-06
-4.56614e-06
-1.52847e-06
-3.96914e-06
4.01038e-06
9.21745e-06
-3.90415e-06
-7.5186e-06
-4.99828e-06
-2.98872e-06
-2.25374e-06
-3.02369e-06
-2.17037e-06
-4.05001e-06
-5.01069e-07
3.22561e-06
-2.84977e-06
-1.00702e-06
-1.10033e-06
2.59008e-06
4.20072e-06
-5.36853e-06
-2.23956e-06
1.05068e-06
3.8261e-06
6.27555e-06
-3.76502e-06
-3.86469e-06
-1.63992e-06
4.85226e-06
7.78846e-06
-5.32428e-07
5.46504e-07
-1.33357e-06
9.07374e-07
5.75493e-06
4.69215e-07
-1.3523e-06
-2.23262e-06
3.60132e-06
4.19248e-06
-3.70192e-06
-2.34141e-06
-3.56381e-06
2.20458e-06
7.89996e-06
-3.00741e-06
-7.40415e-06
-4.71705e-06
-2.38513e-06
-1.51537e-07
-2.3592e-06
-2.8054e-06
-4.10002e-06
-8.34467e-07
3.33393e-06
-2.11236e-06
-1.83146e-06
-1.83849e-06
1.12258e-06
4.02634e-06
-4.0032e-06
-2.90181e-06
3.54025e-08
2.41039e-06
5.87505e-06
-2.53435e-06
-3.9312e-06
-2.14931e-06
3.25635e-06
7.78129e-06
-9.78446e-08
1.86841e-07
-9.80918e-07
4.1435e-07
4.88793e-06
6.39495e-07
-1.32489e-06
-2.18586e-06
2.05292e-06
3.7546e-06
-2.83112e-06
-2.98172e-06
-2.97621e-06
1.07442e-06
6.2167e-06
-2.0151e-06
-4.81586e-06
-4.27108e-06
-2.06749e-06
7.12336e-07
-1.8838e-06
-2.82732e-06
-3.91555e-06
-1.35222e-06
3.05374e-06
-1.60777e-06
-2.03309e-06
-1.99917e-06
1.95773e-07
3.57441e-06
-2.77969e-06
-2.94167e-06
-6.20405e-07
1.24648e-06
4.88136e-06
-1.45413e-06
-3.52958e-06
-2.24974e-06
2.0566e-06
6.76297e-06
2.31249e-07
1.09085e-07
-6.3578e-07
8.49686e-09
3.86038e-06
7.13325e-07
-1.06865e-06
-1.94204e-06
1.00731e-06
2.98604e-06
-1.85001e-06
-9.98938e-07
-2.35625e-06
1.36295e-07
4.49074e-06
-1.24518e-06
-3.74969e-06
-3.74157e-06
-1.88328e-06
8.49455e-07
-1.57786e-06
-2.55979e-06
-3.57162e-06
-1.58379e-06
2.31168e-06
-1.10411e-06
-1.8751e-06
-2.01177e-06
-4.46296e-07
2.71121e-06
-1.80712e-06
-2.62462e-06
-9.95288e-07
4.67051e-07
3.68028e-06
-7.93052e-07
-2.97927e-06
-2.13105e-06
1.11793e-06
5.35597e-06
5.10777e-07
2.02089e-07
-3.45331e-07
-6.64433e-08
2.84254e-06
7.15241e-07
-7.67643e-07
-1.61947e-06
3.5241e-07
2.53257e-06
-1.06642e-06
-1.13268e-06
-1.88534e-06
-4.47177e-07
2.9382e-06
-7.29005e-07
-2.9001e-06
-3.18755e-06
-1.7604e-06
6.16218e-07
-1.34776e-06
-2.1782e-06
-3.12404e-06
-1.66239e-06
1.49218e-06
-6.93555e-07
-1.59551e-06
-1.89031e-06
-8.27402e-07
1.77567e-06
-1.13788e-06
-2.18394e-06
-1.16557e-06
-7.37259e-08
2.54468e-06
-3.84625e-07
-2.34993e-06
-1.80301e-06
4.64487e-07
3.93176e-06
6.87622e-07
1.95906e-07
-1.34872e-07
-6.98474e-08
1.96483e-06
6.53877e-07
-4.95104e-07
-1.28231e-06
-2.39296e-08
1.80933e-06
-5.39076e-07
-9.60263e-07
-1.48787e-06
-7.36277e-07
1.69358e-06
-4.55112e-07
-2.18478e-06
-2.6408e-06
-1.60015e-06
2.58674e-07
-1.11175e-06
-1.80264e-06
-2.63849e-06
-1.61963e-06
7.40104e-07
-4.77179e-07
-1.32071e-06
-1.69658e-06
-1.00574e-06
9.27531e-07
-7.54265e-07
-1.74852e-06
-1.20456e-06
-4.29823e-07
1.49501e-06
-2.12969e-07
-1.79046e-06
-1.39335e-06
4.40358e-08
2.63866e-06
7.16856e-07
1.77424e-07
-5.62504e-09
-2.68217e-08
1.27222e-06
5.58217e-07
-2.98332e-07
-9.81915e-07
-2.25856e-07
1.10788e-06
-2.53891e-07
-7.50032e-07
-1.16003e-06
-8.93087e-07
7.88059e-07
-3.6659e-07
-1.63195e-06
-2.12547e-06
-1.40868e-06
-8.71472e-08
-9.48546e-07
-1.47846e-06
-2.1703e-06
-1.49094e-06
1.23092e-07
-4.28382e-07
-1.11044e-06
-1.48743e-06
-1.04626e-06
2.38442e-07
-5.97474e-07
-1.41658e-06
-1.17171e-06
-6.3771e-07
6.71857e-07
-1.92926e-07
-1.27093e-06
-1.10153e-06
-2.03007e-07
1.60336e-06
6.22827e-07
1.00507e-07
2.1e-08
-4.71278e-08
7.52213e-07
4.23912e-07
-1.84288e-07
-7.34647e-07
-3.00123e-07
5.52133e-07
-1.54854e-07
-5.86566e-07
-8.72418e-07
-5.25413e-07
2.08565e-07
-3.82409e-07
-1.2432e-06
-1.68059e-06
-1.26236e-06
-3.71832e-07
-8.59309e-07
-1.23361e-06
-1.76092e-06
-1.32127e-06
-3.17048e-07
-4.92275e-07
-9.82965e-07
-1.30244e-06
-1.01317e-06
-2.59287e-07
-5.90915e-07
-1.18425e-06
-1.10878e-06
-7.86258e-07
8.16912e-08
-2.83511e-07
-1.00209e-06
-9.08329e-07
-3.84174e-07
8.42893e-07
4.49894e-07
1.13758e-08
-2.42014e-08
-9.70937e-08
4.09024e-07
2.64874e-07
-1.47109e-07
-5.51309e-07
-3.3165e-07
1.54605e-07
-1.66695e-07
-4.88035e-07
-6.90364e-07
-6.03595e-07
-1.60813e-07
-4.3992e-07
-9.89864e-07
-1.32434e-06
-1.1367e-06
-5.63839e-07
-8.18938e-07
-1.06133e-06
-1.43795e-06
-1.21491e-06
-6.17858e-07
-6.17487e-07
-9.18313e-07
-1.16098e-06
-1.02624e-06
-5.91582e-07
-6.66474e-07
-1.05307e-06
-1.04877e-06
-9.60229e-07
-3.19167e-07
-4.15346e-07
-8.53717e-07
-7.81545e-07
-4.74704e-07
3.26406e-07
2.52024e-07
-9.63644e-08
-9.78635e-08
-1.73292e-07
1.1472e-07
9.56163e-08
-1.67678e-07
-4.41557e-07
-3.64072e-07
-1.0467e-07
-2.25694e-07
-4.39384e-07
-5.70971e-07
-5.81068e-07
-3.55243e-07
-4.82548e-07
-8.0567e-07
-1.04615e-06
-9.95143e-07
-6.63253e-07
-7.98141e-07
-9.42878e-07
-1.2019e-06
-1.12619e-06
-7.90619e-07
-7.3007e-07
-8.99035e-07
-1.06682e-06
-1.02913e-06
-8.02272e-07
-7.67767e-07
-9.94299e-07
-9.91655e-07
-9.47562e-07
-5.63634e-07
-5.37858e-07
-7.82569e-07
-7.02284e-07
-5.14096e-07
-1.41885e-08
5.42413e-08
-2.2224e-07
-1.69271e-07
-2.36348e-07
-8.67151e-08
-6.23317e-08
-2.22557e-07
-3.94925e-07
-3.86288e-07
-2.58955e-07
-2.91706e-07
-4.15955e-07
-4.92413e-07
-5.29485e-07
-4.31118e-07
-4.94898e-07
-6.78352e-07
-8.36673e-07
-8.57426e-07
-6.92365e-07
-7.71235e-07
-8.62271e-07
-1.03922e-06
-1.03839e-06
-8.6683e-07
-8.15733e-07
-9.04593e-07
-1.01447e-06
-1.02265e-06
-9.14033e-07
-8.60222e-07
-9.79261e-07
-9.57166e-07
-9.26536e-07
-7.10566e-07
-6.05466e-07
-7.56202e-07
-6.57529e-07
-5.30232e-07
-2.17178e-07
-1.07127e-07
-3.20129e-07
-2.86695e-07
-3.11252e-07
-2.24248e-07
-2.00227e-07
-2.93128e-07
-3.95187e-07
-4.05667e-07
-3.43732e-07
-3.41993e-07
-3.98946e-07
-4.41473e-07
-4.73481e-07
-4.3313e-07
-4.72785e-07
-5.77057e-07
-6.88474e-07
-7.32084e-07
-6.59048e-07
-7.26417e-07
-8.05617e-07
-9.33285e-07
-9.61801e-07
-8.84483e-07
-8.69534e-07
-9.2284e-07
-9.96722e-07
-1.01698e-06
-9.70286e-07
-9.16949e-07
-9.91799e-07
-9.43024e-07
-9.25498e-07
-8.02057e-07
-6.69553e-07
-7.61242e-07
-6.4784e-07
-5.5407e-07
-3.82182e-07
-2.49429e-07
-3.94907e-07
-3.41038e-07
-3.71085e-07
-3.38088e-07
-3.10892e-07
-3.75609e-07
-4.37186e-07
-4.37571e-07
-3.92295e-07
-3.73472e-07
-3.86414e-07
-4.10924e-07
-4.23152e-07
-3.96752e-07
-4.14973e-07
-4.83654e-07
-5.72445e-07
-6.28493e-07
-6.26812e-07
-6.81402e-07
-7.63187e-07
-8.70573e-07
-9.09313e-07
-8.9081e-07
-8.92527e-07
-9.47516e-07
-1.00762e-06
-1.03445e-06
-1.02051e-06
-9.71316e-07
-1.02371e-06
-9.60148e-07
-9.50621e-07
-8.61698e-07
-7.17193e-07
-7.76408e-07
-6.71078e-07
-5.89517e-07
-4.71584e-07
-3.7037e-07
6.90147e-05
-0.00011249
-0.000247465
-5.59974e-05
6.23907e-05
0.000101053
-3.84414e-05
-0.000213078
-8.61926e-05
2.57682e-05
0.000109269
-4.73746e-05
-0.000211523
-5.45605e-05
1.21938e-05
4.26848e-05
-0.000137909
-0.00027815
-1.62992e-05
0.000101709
5.14273e-05
-0.000126631
-0.000239823
-6.53966e-05
4.84445e-05
6.89692e-05
-8.10247e-05
-0.000213842
-6.70075e-05
3.55871e-05
6.67847e-05
-7.05246e-05
-0.000223588
-5.43946e-05
4.82817e-05
9.00844e-05
-5.21982e-05
-0.000229088
-7.14875e-05
4.55162e-05
6.63465e-05
-0.00010979
-0.000245874
-5.61519e-05
5.91575e-05
9.79779e-05
-3.59365e-05
-0.000211488
-8.51015e-05
2.25761e-05
0.000105535
-4.51473e-05
-0.000209627
-5.51595e-05
9.14843e-06
3.90436e-05
-0.00013517
-0.000277298
-1.7648e-05
9.82613e-05
4.8899e-05
-0.000124091
-0.000238592
-6.53187e-05
4.54968e-05
6.60278e-05
-7.8447e-05
-0.000212231
-6.74231e-05
3.22666e-05
6.37904e-05
-6.84037e-05
-0.000221934
-5.46791e-05
4.53001e-05
8.65212e-05
-4.94936e-05
-0.000227392
-7.14443e-05
4.22253e-05
6.47718e-05
-0.000107512
-0.000247075
-5.83306e-05
5.59255e-05
9.6321e-05
-3.36103e-05
-0.000212537
-8.65235e-05
1.90886e-05
0.000103429
-4.3036e-05
-0.000210407
-5.68418e-05
6.11029e-06
3.65468e-05
-0.000133388
-0.000279799
-2.05276e-05
9.49899e-05
4.73797e-05
-0.000122217
-0.000240212
-6.72352e-05
4.24951e-05
6.41083e-05
-7.61474e-05
-0.000213256
-6.96196e-05
2.89791e-05
6.19288e-05
-6.64817e-05
-0.000222901
-5.68889e-05
4.22167e-05
8.42309e-05
-4.6696e-05
-0.000228523
-7.35032e-05
3.85647e-05
6.44954e-05
-0.000106602
-0.000252466
-6.2876e-05
5.28594e-05
9.63335e-05
-3.26742e-05
-0.000217542
-9.04067e-05
1.55137e-05
0.000103318
-4.22716e-05
-0.000215056
-6.06981e-05
3.27524e-06
3.55948e-05
-0.000133875
-0.000287064
-2.51767e-05
9.19574e-05
4.70972e-05
-0.000121927
-0.000246076
-7.13242e-05
3.96214e-05
6.35092e-05
-7.50745e-05
-0.000218169
-7.37817e-05
2.59942e-05
6.15326e-05
-6.56427e-05
-0.000227829
-6.14028e-05
3.91423e-05
8.35447e-05
-4.47826e-05
-0.000233827
-7.79447e-05
3.45246e-05
6.54539e-05
-0.000106889
-0.000262443
-6.97652e-05
4.94288e-05
9.7782e-05
-3.35217e-05
-0.000226939
-9.68872e-05
1.13516e-05
0.000104833
-4.33492e-05
-0.000223781
-6.6598e-05
2.55778e-07
3.63048e-05
-0.000136791
-0.00029965
-3.16537e-05
8.84549e-05
4.80785e-05
-0.000123032
-0.000256646
-7.74331e-05
3.64833e-05
6.41112e-05
-7.51924e-05
-0.000227374
-7.96342e-05
2.29784e-05
6.24869e-05
-6.57889e-05
-0.000237136
-6.82552e-05
3.55631e-05
8.42438e-05
-4.37716e-05
-0.000243761
-8.47525e-05
2.9467e-05
6.7407e-05
-0.000106039
-0.000276174
-7.83672e-05
4.57028e-05
0.000100018
-3.19937e-05
-0.000240193
-0.000105482
6.73983e-06
0.000106897
-4.09488e-05
-0.000235716
-7.38035e-05
-2.74363e-06
3.86646e-05
-0.000133141
-0.000316878
-3.99666e-05
8.45433e-05
5.03099e-05
-0.000122409
-0.000271172
-8.47299e-05
3.34337e-05
6.5492e-05
-7.47091e-05
-0.000240193
-8.64923e-05
2.03377e-05
6.44117e-05
-6.48175e-05
-0.0002501
-7.7056e-05
3.16742e-05
8.57483e-05
-4.38375e-05
-0.000257709
-9.34176e-05
2.34281e-05
6.97156e-05
-0.000101514
-0.000290608
-8.8531e-05
4.25963e-05
0.000101723
-2.89199e-05
-0.000255039
-0.000115744
2.73025e-06
0.000107616
-3.76188e-05
-0.000248263
-8.20019e-05
-4.61971e-06
4.2175e-05
-0.000126689
-0.000335419
-5.13145e-05
8.12993e-05
5.35747e-05
-0.000118111
-0.000286686
-9.28433e-05
3.18906e-05
6.67786e-05
-7.14074e-05
-0.000253804
-9.42863e-05
1.94404e-05
6.65803e-05
-6.09924e-05
-0.000263822
-8.79691e-05
2.84618e-05
8.70755e-05
-4.1778e-05
-0.000272922
-0.000103966
1.7349e-05
7.07278e-05
-8.79867e-05
-0.000299034
-0.000100161
3.94225e-05
0.000100502
-1.99282e-05
-0.000266137
-0.000126819
-1.20239e-06
0.000104202
-2.94506e-05
-0.000255893
-9.10548e-05
-5.65222e-06
4.51549e-05
-0.000111837
-0.00034771
-6.80218e-05
7.82236e-05
5.67629e-05
-0.000105179
-0.000296852
-0.000101712
2.89497e-05
6.62008e-05
-6.09021e-05
-0.000261848
-0.000103111
1.60117e-05
6.73299e-05
-5.00689e-05
-0.000271758
-0.000101081
2.6121e-05
8.63136e-05
-3.33855e-05
-0.000282934
-0.000116377
1.77849e-05
6.56554e-05
-6.22215e-05
-0.000290526
-0.00010931
3.32312e-05
9.09803e-05
-2.58535e-06
-0.000264057
-0.00013406
-6.06105e-06
9.13221e-05
-1.40032e-05
-0.000250028
-9.69636e-05
-7.13044e-06
4.28733e-05
-8.49502e-05
-0.000342363
-8.76128e-05
7.23462e-05
5.57036e-05
-8.03158e-05
-0.00029193
-0.000108714
2.52175e-05
5.92924e-05
-4.06171e-05
-0.000254357
-0.000109844
1.11432e-05
6.18751e-05
-2.95374e-05
-0.000263741
-0.000112397
2.17116e-05
7.78521e-05
-1.62687e-05
-0.000277025
-0.000126706
1.60356e-05
5.0581e-05
-2.95123e-05
-0.000256757
-0.000110651
2.22522e-05
6.86689e-05
1.91639e-05
-0.000240664
-0.000133215
-1.22978e-05
6.53942e-05
5.94366e-06
-0.000224322
-9.31323e-05
-1.06218e-05
3.1872e-05
-4.92456e-05
-0.000312073
-9.97482e-05
6.12249e-05
4.63656e-05
-4.54352e-05
-0.000265545
-0.000109565
1.88366e-05
4.2874e-05
-1.4254e-05
-0.000224356
-0.000109715
3.7007e-06
4.61408e-05
-1.50454e-07
-0.000232481
-0.000115461
1.38621e-05
5.70374e-05
5.66515e-06
-0.000247473
-0.000128846
1.1017e-05
3.03454e-05
-6.16257e-06
-0.00020131
-0.000105436
1.21856e-05
4.00141e-05
3.28707e-05
-0.000183081
-0.00012566
-1.44532e-05
3.51945e-05
1.97401e-05
-0.000175897
-8.11508e-05
-1.23946e-05
1.61072e-05
-2.00518e-05
-0.00024292
-0.000101061
4.95436e-05
3.15345e-05
-1.76134e-05
-0.000209563
-0.000104494
1.37978e-05
2.26862e-05
3.7676e-06
-0.000174296
-0.000103391
-1.64137e-06
2.4449e-05
1.6923e-05
-0.000183266
-0.000110821
7.47843e-06
3.03222e-05
2.10476e-05
-0.000189902
-0.000123535
8.11143e-06
1.74322e-05
7.55297e-06
-0.000148552
-9.48519e-05
9.31839e-06
2.26789e-05
3.78018e-05
-0.000129955
-0.000113194
-9.60064e-06
1.72873e-05
2.60393e-05
-0.000130057
-6.79966e-05
-8.68205e-06
5.9293e-06
-2.44311e-06
-0.000180273
-9.11482e-05
4.34477e-05
2.20927e-05
1.22489e-07
-0.000154948
-9.38507e-05
1.36805e-05
1.06835e-05
1.29227e-05
-0.000128177
-9.25327e-05
-1.67608e-06
1.00966e-05
2.50792e-05
-0.000135849
-9.98e-05
7.09335e-06
1.35453e-05
2.846e-05
-0.000137261
-0.000112113
1.08013e-05
1.58989e-05
1.16635e-05
-0.000105715
-7.99334e-05
1.51127e-05
2.35436e-05
3.66021e-05
-8.79247e-05
-9.6193e-05
5.73108e-07
1.59542e-05
2.66853e-05
-9.15833e-05
-5.60189e-05
-3.11191e-07
3.75073e-06
3.61794e-06
-0.000129976
-7.55575e-05
4.29479e-05
2.33061e-05
6.86033e-06
-0.000110445
-7.90912e-05
1.78644e-05
1.0059e-05
1.46457e-05
-9.10811e-05
-7.80099e-05
2.7468e-06
7.82996e-06
2.5987e-05
-9.61367e-05
-8.43143e-05
1.25187e-05
1.09846e-05
2.83484e-05
-9.57118e-05
-9.57405e-05
1.77816e-05
1.98708e-05
1.00938e-05
-7.40937e-05
-6.19959e-05
2.0109e-05
2.30073e-05
3.24346e-05
-5.7662e-05
-7.73324e-05
7.17839e-06
2.11428e-05
2.22017e-05
-6.17982e-05
-4.39832e-05
5.59508e-06
5.8884e-06
3.62568e-06
-9.32346e-05
-5.89907e-05
4.02016e-05
2.09282e-05
6.32247e-06
-7.76106e-05
-6.21573e-05
1.89804e-05
1.43809e-05
1.24011e-05
-6.37529e-05
-6.11406e-05
5.28826e-06
1.15371e-05
2.16362e-05
-6.58421e-05
-6.6459e-05
1.55905e-05
1.45104e-05
2.27755e-05
-6.58958e-05
-7.59399e-05
2.05733e-05
2.09265e-05
7.49272e-06
-5.13455e-05
-4.3379e-05
2.04351e-05
2.16448e-05
2.74035e-05
-3.66633e-05
-5.62338e-05
8.41792e-06
2.24276e-05
1.69636e-05
-4.0428e-05
-3.35141e-05
6.63076e-06
5.86027e-06
2.08484e-06
-6.69512e-05
-4.21119e-05
3.39896e-05
1.86247e-05
4.32435e-06
-5.42875e-05
-4.49113e-05
1.64149e-05
1.60268e-05
9.38633e-06
-4.408e-05
-4.40439e-05
4.36496e-06
1.2696e-05
1.67354e-05
-4.37008e-05
-4.66162e-05
1.44307e-05
1.57612e-05
1.67592e-05
-4.51202e-05
-5.44329e-05
1.82983e-05
1.9027e-05
5.61471e-06
-3.54112e-05
-2.8893e-05
1.68578e-05
1.84236e-05
2.28083e-05
-2.29507e-05
-3.96177e-05
5.40053e-06
1.99862e-05
1.33877e-05
-2.66469e-05
-2.46546e-05
3.87526e-06
4.38654e-06
6.91022e-07
-4.77105e-05
-2.90037e-05
2.58183e-05
1.56744e-05
2.22076e-06
-3.78962e-05
-3.19405e-05
1.18017e-05
1.51436e-05
7.21906e-06
-3.0411e-05
-3.09233e-05
1.1708e-06
1.12562e-05
1.29442e-05
-2.86835e-05
-3.14492e-05
9.94689e-06
1.41455e-05
1.22195e-05
-3.06942e-05
-3.73368e-05
1.28361e-05
1.61413e-05
4.68045e-06
-2.42322e-05
-1.8949e-05
1.19598e-05
1.50572e-05
1.88982e-05
-1.42203e-05
-2.77606e-05
1.9865e-06
1.64475e-05
9.82832e-06
-1.80791e-05
-1.79371e-05
7.8037e-07
2.83859e-06
-2.75434e-07
-3.36206e-05
-2.00967e-05
1.80259e-05
1.29174e-05
5.67191e-07
-2.63752e-05
-2.26052e-05
7.27231e-06
1.33936e-05
5.74167e-06
-2.09709e-05
-2.15787e-05
-1.70974e-06
9.12756e-06
1.01041e-05
-1.86586e-05
-2.10476e-05
5.39866e-06
1.15164e-05
9.52155e-06
-2.07278e-05
-2.53286e-05
7.59463e-06
1.31034e-05
4.64157e-06
-1.64099e-05
-1.22482e-05
7.43904e-06
1.20918e-05
1.52102e-05
-8.79578e-06
-1.92288e-05
-7.76722e-07
1.28884e-05
8.13691e-06
-1.24839e-05
-1.29503e-05
-1.67378e-06
1.58164e-06
-7.61434e-07
-2.33965e-05
-1.40816e-05
1.10235e-05
1.05663e-05
-3.89522e-07
-1.842e-05
-1.60416e-05
3.65789e-06
1.12274e-05
4.96429e-06
-1.4464e-05
-1.50393e-05
-3.66161e-06
7.11175e-06
8.34649e-06
-1.20242e-05
-1.4062e-05
1.83649e-06
8.96219e-06
7.87377e-06
-1.39765e-05
-1.70601e-05
3.63326e-06
1.01576e-05
4.82836e-06
-1.09306e-05
-7.74452e-06
4.15712e-06
9.58399e-06
1.19104e-05
-5.42961e-06
-1.31006e-05
-2.55708e-06
9.73738e-06
6.85418e-06
-8.65329e-06
-9.36033e-06
-3.25411e-06
7.37426e-07
-6.44907e-07
-1.61116e-05
-9.7748e-06
5.9556e-06
8.59528e-06
-6.43606e-07
-1.29248e-05
-1.14329e-05
1.04759e-06
9.10543e-06
4.80941e-06
-9.96159e-06
-1.04849e-05
-4.66232e-06
5.44959e-06
7.11591e-06
-7.65104e-06
-9.40014e-06
-5.65564e-07
6.74543e-06
6.70912e-06
-9.35161e-06
-1.13544e-05
1.35932e-06
9.15015e-06
4.85476e-06
-7.1085e-06
-4.79601e-06
1.99514e-06
7.77081e-06
8.51878e-06
-3.37267e-06
-8.80503e-06
-3.41847e-06
7.02443e-06
5.73838e-06
-5.98184e-06
-6.94979e-06
-3.92192e-06
1.75497e-07
-3.24333e-07
-1.10595e-05
-7.10331e-06
2.49757e-06
6.68207e-06
-3.76188e-07
-9.15546e-06
-8.24361e-06
-6.5716e-07
7.14233e-06
4.62113e-06
-6.87444e-06
-7.38788e-06
-4.82851e-06
3.98525e-06
6.01084e-06
-4.82606e-06
-6.45579e-06
-1.92223e-06
4.90419e-06
5.79395e-06
-6.18372e-06
-7.39262e-06
-6.24279e-08
6.87722e-06
4.57376e-06
-4.47613e-06
-2.90075e-06
7.41912e-07
6.01222e-06
6.24421e-06
-2.10707e-06
-5.83219e-06
-3.50832e-06
5.16713e-06
4.73808e-06
-4.06357e-06
-5.04116e-06
-3.90247e-06
-2.73616e-07
-1.188e-07
-7.60526e-06
-5.33433e-06
3.23664e-07
4.95287e-06
-1.05414e-07
-6.55053e-06
-6.0648e-06
-1.61795e-06
5.37943e-06
4.24642e-06
-4.79127e-06
-5.30695e-06
-4.40889e-06
2.77078e-06
4.92218e-06
-3.00542e-06
-4.92218e-06
-2.46938e-06
3.27544e-06
5.00045e-06
-4.02819e-06
-4.75002e-06
-7.17542e-07
5.06747e-06
4.07983e-06
-2.69714e-06
-1.70343e-06
1.47911e-07
4.50811e-06
4.61171e-06
-1.27488e-06
-3.90749e-06
-3.18747e-06
3.40593e-06
3.83302e-06
-2.64531e-06
-3.64598e-06
-3.56491e-06
-5.15128e-07
-4.55048e-08
-5.21455e-06
-4.07765e-06
-9.16794e-07
3.45129e-06
4.95403e-08
-4.74378e-06
-4.56238e-06
-2.06166e-06
3.84643e-06
3.61614e-06
-3.34716e-06
-3.92155e-06
-3.78039e-06
1.85268e-06
3.86597e-06
-1.85062e-06
-3.52838e-06
-2.50769e-06
2.40722e-06
4.23354e-06
-2.67591e-06
-3.01929e-06
-8.40692e-07
3.62788e-06
3.46918e-06
-1.50509e-06
-9.58723e-07
-1.23177e-07
3.23871e-06
3.3925e-06
-8.22394e-07
-3.02722e-06
-2.82696e-06
2.11934e-06
3.01242e-06
-1.73708e-06
-2.68003e-06
-3.26609e-06
-1.07519e-06
-1.07553e-07
-3.62274e-06
-3.14366e-06
-1.46725e-06
2.18879e-06
8.20097e-08
-3.45689e-06
-3.50099e-06
-2.15667e-06
2.53958e-06
2.79119e-06
-2.35829e-06
-2.97004e-06
-3.12411e-06
1.04557e-06
2.87957e-06
-1.1457e-06
-2.52744e-06
-2.39437e-06
1.43926e-06
3.32923e-06
-1.71178e-06
-1.8986e-06
-7.37188e-07
2.51071e-06
2.82128e-06
-6.87693e-07
-4.98045e-07
-2.29131e-07
2.22734e-06
2.46354e-06
-5.16684e-07
-2.23179e-06
-2.47825e-06
1.03907e-06
2.21961e-06
-1.18082e-06
-2.0164e-06
-2.86328e-06
-1.2489e-06
-2.28875e-07
-2.57979e-06
-2.44376e-06
-1.74105e-06
1.18308e-06
2.0116e-08
-2.54934e-06
-2.73363e-06
-2.07716e-06
1.57965e-06
1.96359e-06
-1.68765e-06
-2.29518e-06
-2.53104e-06
3.93417e-07
1.99939e-06
-7.31553e-07
-1.8935e-06
-2.10758e-06
6.67135e-07
2.37665e-06
-1.04641e-06
-1.17256e-06
-5.37501e-07
1.65911e-06
2.18734e-06
-2.10199e-07
-2.26877e-07
-2.80009e-07
1.44474e-06
1.74431e-06
-3.39837e-07
-1.57112e-06
-2.0733e-06
2.83656e-07
1.47732e-06
-8.69202e-07
-1.54989e-06
-2.39795e-06
-1.27709e-06
-3.6476e-07
-1.89212e-06
-1.91304e-06
-1.71021e-06
4.84592e-07
-1.02845e-07
-1.91129e-06
-2.16082e-06
-1.91922e-06
6.05525e-07
1.21892e-06
-1.25265e-06
-1.81753e-06
-2.04622e-06
-7.26585e-08
1.25431e-06
-5.33709e-07
-1.42718e-06
-1.72747e-06
6.58706e-09
1.54908e-06
-5.68681e-07
-7.09638e-07
-3.41446e-07
1.02945e-06
1.60148e-06
8.00577e-09
-8.77057e-08
-2.98872e-07
8.40188e-07
1.16024e-06
-2.59031e-07
-1.14219e-06
-1.65328e-06
-1.68074e-07
8.39334e-07
-7.24664e-07
-1.21514e-06
-1.93309e-06
-1.22557e-06
-4.90139e-07
-1.45852e-06
-1.51752e-06
-1.56235e-06
-7.64989e-08
-2.65983e-07
-1.48516e-06
-1.73144e-06
-1.70375e-06
-3.63558e-08
5.92699e-07
-1.0012e-06
-1.47545e-06
-1.66084e-06
-4.27034e-07
6.39138e-07
-4.96356e-07
-1.11987e-06
-1.3191e-06
3.28969e-08
9.84478e-07
-3.20419e-07
-4.1272e-07
-1.9085e-07
5.98345e-07
1.10093e-06
1.19013e-07
-5.06245e-08
-2.87791e-07
4.13872e-07
6.91979e-07
-2.37339e-07
-8.01075e-07
-1.26623e-06
-4.00298e-07
3.51355e-07
-5.54373e-07
-9.56766e-07
-1.51296e-06
-1.11179e-06
-5.83716e-07
-1.18891e-06
-1.22352e-06
-1.36277e-06
-4.3327e-07
-4.34893e-07
-1.2234e-06
-1.41294e-06
-1.46802e-06
-4.4702e-07
8.83521e-08
-8.76805e-07
-1.23167e-06
-1.36437e-06