# y+ ()       
# Time        	patch         	min           	max           	average       
94            	bottomWall	1.609833e+00	5.738733e+00	3.144479e+00
94            	topWall	1.446307e+00	6.236438e+00	3.141920e+00
