# y+ ()       
# Time        	patch         	min           	max           	average       
80            	bottomWall	1.202675e+00	3.708047e+00	2.081887e+00
80            	topWall	1.250991e+00	3.546907e+00	2.067508e+00
