/*--------------------------------*- C++ -*----------------------------------*\
  =========                 |
  \\      /  F ield         | OpenFOAM: The Open Source CFD Toolbox
   \\    /   O peration     | Website:  https://openfoam.org
    \\  /    A nd           | Version:  10
     \\/     M anipulation  |
\*---------------------------------------------------------------------------*/
FoamFile
{
    format      ascii;
    class       volScalarField;
    location    "35";
    object      p;
}
// * * * * * * * * * * * * * * * * * * * * * * * * * * * * * * * * * * * * * //

dimensions      [0 2 -2 0 0 0 0];

internalField   nonuniform List<scalar> 
25600
(
0.0147427
0.0157418
0.00488836
0.00243385
0.00112576
-0.00201802
0.0163823
0.0110566
0.00188512
0.0088697
0.000513879
0.0208047
0.0224987
0.0220656
0.0136516
0.00222038
0.0142718
0.00500061
-0.000644886
0.00363078
-0.00757271
0.00861899
0.0222424
-0.00104828
-0.00544611
0.0163232
0.00637617
-0.00675623
0.003563
0.00730863
0.00140385
0.00592218
0.0134584
0.0119546
0.00247624
-0.00930097
-0.014098
-0.00928537
0.00721316
0.0123016
0.0150999
0.0156384
0.00528528
0.00279157
0.00147494
-0.00164797
0.0170142
0.0114168
0.00200554
0.00956742
0.00083146
0.0205669
0.0231674
0.0221559
0.0140348
0.00246173
0.0139564
0.00565333
-0.000448253
0.00357798
-0.00730108
0.00899289
0.0227828
-0.000890331
-0.00512723
0.0167956
0.00663748
-0.00655185
0.00389319
0.00782296
0.00165682
0.0062053
0.0137153
0.0125146
0.00271222
-0.00909086
-0.0138427
-0.00889533
0.00726717
0.0130773
0.0157651
0.0149837
0.00535174
0.00313955
0.00202274
-0.00152033
0.0175964
0.0117564
0.00238866
0.0102766
0.0010834
0.0190317
0.0237566
0.0221642
0.0143557
0.003292
0.0133564
0.00559777
-0.000244298
0.00326619
-0.00719583
0.0094485
0.0233703
-0.000743151
-0.00454209
0.017228
0.00667212
-0.00650408
0.00394928
0.0080775
0.00168982
0.00610328
0.013818
0.0130675
0.00321161
-0.00902952
-0.0139075
-0.0078603
0.00720992
0.0142005
0.0170425
0.0142187
0.00511352
0.00342276
0.00233433
-0.00175314
0.018003
0.0119651
0.00286768
0.011239
0.000689328
0.0166304
0.0243803
0.0218996
0.0141788
0.00461337
0.0128443
0.004662
-0.000454107
0.00277675
-0.00731801
0.00990453
0.0240233
-0.000885276
-0.00424552
0.017602
0.00644813
-0.00703054
0.00390456
0.0080807
0.00211575
0.00591937
0.0131374
0.0135126
0.00403781
-0.00902401
-0.0142337
-0.00706157
0.00646747
0.0154244
0.0188683
0.0135893
0.00462143
0.00382439
0.00250305
-0.00222691
0.0186535
0.0121311
0.00342719
0.0127458
0.000194758
0.0151334
0.0244909
0.0211195
0.014006
0.00639158
0.012793
0.00383919
-0.000794539
0.00231149
-0.0075748
0.0105032
0.0247011
-0.00156588
-0.00464157
0.0179245
0.00629874
-0.00768138
0.00421313
0.00793481
0.00396233
0.00679806
0.0115334
0.0135792
0.0052641
-0.00846635
-0.0143425
-0.0065549
0.00511778
0.0167705
0.0193123
0.0129252
0.00403216
0.00414936
0.00314967
-0.0023168
0.0194224
0.0123409
0.00413752
0.014593
0.000254155
0.0141896
0.0239101
0.0198368
0.0141894
0.00698105
0.012991
0.00359617
-0.00107958
0.00183454
-0.00800192
0.0108718
0.0253177
-0.00285989
-0.00541349
0.0182691
0.00646565
-0.00791557
0.00468594
0.00792634
0.00679003
0.00830344
0.00885271
0.0123659
0.00714567
-0.0075919
-0.0138658
-0.00592589
0.00440678
0.0182112
0.020097
0.0123588
0.00307358
0.00430633
0.00494818
-0.00145913
0.0202014
0.0134303
0.00429264
0.0166886
0.000859561
0.0130932
0.0232008
0.0183507
0.0148257
0.00727762
0.012327
0.00302462
-0.00126946
0.00188956
-0.00840696
0.0102924
0.0258808
-0.00294517
-0.00635275
0.0193407
0.00716104
-0.0081205
0.00478996
0.00821414
0.0091472
0.00903067
0.00525214
0.00980544
0.00823366
-0.00693136
-0.0126909
-0.00494859
0.00479756
0.0196161
0.0211691
0.0120154
0.000831081
0.00343094
0.00741114
-2.9629e-05
0.0208898
0.0148414
0.00207234
0.0179536
0.00198359
0.0123032
0.0222892
0.0168661
0.0154638
0.00905923
0.0106899
0.00162444
-0.00138668
0.00292875
-0.00849371
0.00843219
0.0259028
0.00038036
-0.0081876
0.0215838
0.0083037
-0.00801243
0.00451941
0.00793439
0.00999538
0.00913838
0.00251003
0.00735747
0.00929805
-0.00669678
-0.010757
-0.00415893
0.00483718
0.0206717
0.0221814
0.0117272
-0.00119187
0.00156774
0.00983691
0.00143836
0.019532
0.0138052
0.0010904
0.0173778
0.00303981
0.0115765
0.020991
0.0159408
0.0151459
0.0114279
0.00853918
0.000609292
-0.000718644
0.00449058
-0.00782748
0.00594087
0.0254194
0.00198959
-0.00881802
0.0193237
0.00859828
-0.0068263
0.00438277
0.00744187
0.0100893
0.00959344
0.00137552
0.00581284
0.0107338
-0.00621756
-0.00819273
-0.00366307
0.00443731
0.0212215
0.0219932
0.0112944
-0.00122395
0.000288403
0.0108099
0.00304776
0.0170333
0.012939
0.00447662
0.0174443
0.00344081
0.0106394
0.018743
0.0158549
0.0167185
0.0126072
0.00644629
5.30701e-05
0.000386957
0.00580534
-0.00651547
0.00499083
0.0242702
0.00314892
-0.00784236
0.0178791
0.00909705
-0.00369422
0.00377434
0.00693359
0.00945897
0.0110357
0.00234072
0.00515405
0.0133148
-0.0039785
-0.00519687
-0.00294279
0.0055294
0.0215329
0.0223266
0.0114592
0.00048195
-4.20895e-05
0.0108342
0.00495932
0.015629
0.0136738
0.00821914
0.0186956
0.00395914
0.00936351
0.0176786
0.0158984
0.0180058
0.0145566
0.0060704
-0.000366733
0.00218753
0.00647948
-0.00560334
0.00630675
0.0212558
0.00503276
-0.0073669
0.0177715
0.0109206
0.00133379
0.00355481
0.00646981
0.00844511
0.0125952
0.00570051
0.0061431
0.012862
-0.00145918
-0.0017394
-0.00107567
0.00692845
0.0217343
0.0216837
0.0116819
0.00374415
0.00153686
0.0101309
0.00566326
0.015736
0.0130503
0.00987163
0.0204649
0.00588965
0.00792972
0.0162291
0.0152413
0.0191218
0.0167723
0.0071756
0.000525903
0.00433272
0.0062209
-0.00502126
0.00845217
0.0214037
0.00636095
-0.00777912
0.0177988
0.01186
0.0063513
0.00526839
0.00556166
0.00728272
0.0140558
0.0100852
0.00631228
0.00888651
-0.007619
0.000974898
0.00209406
0.00802282
0.0219079
0.0203885
0.0112901
0.00838665
0.00641706
0.009316
0.00682365
0.0187864
0.0134068
0.00970426
0.0197797
0.00735726
0.00538903
0.0139647
0.0140397
0.0206862
0.0187333
0.00769814
0.00425003
0.00743805
0.00557673
-0.00522923
0.0109867
0.0268527
0.00781227
-0.00690583
0.0190186
0.0131795
0.00743331
0.00756923
0.00283607
0.00585982
0.014195
0.0129956
0.00632447
0.00529424
-0.00977397
0.002849
0.00489678
0.00834669
0.0204134
0.0177732
0.0105997
0.00872468
0.00779991
0.00607286
0.0071054
0.0191306
0.0126391
0.00679665
0.0184042
0.00874646
0.000309521
0.0100668
0.011939
0.0216888
0.0209819
0.00681966
0.004611
0.00985629
0.00438457
-0.00560234
0.0129879
0.0269193
0.0118775
-0.00207106
0.017652
0.0156847
0.00689321
0.0114406
-0.000357742
0.00303408
0.0140032
0.0109408
0.00506974
0.00156877
-0.00383464
0.00413699
0.00746079
0.0106086
0.0171927
0.0102181
0.00939703
0.0152653
0.00668777
0.0009239
0.00771555
0.0182749
0.0109756
0.00599831
0.0171368
0.0104517
-0.00204418
0.00853266
0.0116884
0.0221307
0.0211412
0.00490953
0.00486243
0.0105059
0.00303476
-0.00604846
0.0121663
0.0262937
0.0159495
-0.00398733
0.0144931
0.0149428
0.00529562
0.0181389
0.00121911
-0.0014377
0.0129827
0.0117533
0.00577899
-0.000838867
-8.66248e-05
0.00510996
0.0101405
0.0120847
0.0121811
0.000690344
0.00778894
0.014438
0.00348212
-0.0031512
0.00755528
0.0178513
0.0125144
0.00683363
0.0155032
0.0130269
0.00285299
0.00994947
0.00949958
0.0219378
0.0188573
0.00318928
0.0047195
0.0106694
0.00293944
-0.00485935
0.0143481
0.0260233
0.0157235
-0.00427756
0.00901556
0.00683131
0.00647476
0.0188126
0.00474877
-0.00301461
0.0129002
0.0107956
0.00677594
0.00144542
0.0019624
0.0010034
0.0104372
0.016628
0.00813086
-0.00357815
0.00741595
0.0174683
0.00274432
-0.00295439
0.00664358
0.0175631
0.0163031
0.00632934
0.0118783
0.0114387
0.000143672
0.0106871
0.0101683
0.0203506
0.0178652
0.00151164
0.00399979
0.0106854
0.00391187
-0.00189117
0.0149711
0.0282571
0.0151286
-0.00351308
0.00769284
0.00236873
0.00484168
0.0147985
0.00435358
-0.00173244
0.0134368
0.0110567
0.00846405
0.00325189
0.000104411
0.000778213
0.00585896
0.0118397
0.0066763
-0.00133442
0.013555
0.0178052
0.00228661
0.000493903
0.0108932
0.0174102
0.0150514
0.00523737
0.00648472
0.00270211
0.0089377
0.0153408
0.00688751
0.0149608
0.0126114
-0.000397239
0.00605052
0.0111933
0.00500219
0.00441213
0.0144016
0.0264458
0.00962156
-0.00174849
0.0125747
0.00263847
-0.00124868
0.0102743
0.0013283
0.00381084
0.0136931
0.0101964
0.00863248
0.00518126
-0.00378368
0.00428779
0.0104253
0.0121072
0.00670832
0.00605951
0.0138908
0.0121774
0.00532588
0.00861642
0.0171816
0.0167873
0.0100892
0.00258093
0.000912949
-0.00205098
0.0150608
0.00897208
0.0066094
0.0147762
0.00843312
0.00165373
0.0114105
0.0130468
0.00625303
0.00731039
0.0164432
0.0231074
0.0113234
0.00229191
0.0108065
0.00889999
0.00319889
0.00477639
0.002681
0.00853331
0.0124316
0.00839774
0.00734772
0.0100401
-0.0074286
-0.00230266
0.0154018
0.0152133
0.0109057
0.0132697
0.0151778
0.0120566
0.00161358
0.00403199
0.0230704
0.0190556
0.00818779
0.00450551
0.000938531
0.00330577
0.0135561
0.00851281
0.0192839
0.0139246
0.00569815
0.00762527
0.0149133
0.00927534
0.00673792
0.012988
0.0154243
0.0138459
0.0113145
0.00434173
0.0120956
0.0183913
0.00954963
0.00336664
0.0122661
0.00839405
0.00608265
0.00756861
0.00714263
0.00551843
-0.0130741
-0.00281285
0.0165293
0.00934775
0.010323
0.0149461
0.0132344
0.0148792
0.0053253
0.00586408
0.0298615
0.0192327
0.00530222
0.00631696
0.0018758
0.00203349
0.0199513
0.0144718
0.00838243
0.0107789
0.00450152
0.00846004
0.0138773
0.00684478
0.00816769
0.00973054
0.0152318
0.00848577
0.00801144
0.000272665
0.0113099
0.0242442
0.0192251
0.00682581
0.0162587
-0.00529415
-0.000210575
0.00955293
0.0203781
0.0137546
-0.00823417
-0.00385112
0.0112156
0.00805925
0.0105325
0.0120382
0.0174879
0.0239552
0.00700355
0.0122042
0.0380745
0.0207201
0.0041142
0.009616
0.00147993
0.00712019
0.0241847
0.00484255
-0.00271081
0.0109171
0.000779585
0.000452985
0.0141266
0.0136783
0.0120251
0.0206858
0.025067
0.00743589
0.000436396
-0.00516601
0.0102806
0.0206077
0.0144061
0.00919262
0.0144267
-0.0131304
0.00329708
0.019217
0.0223384
0.0164313
0.00187807
-0.00819596
0.00757405
0.0117946
0.0106395
0.0272657
0.012656
-0.00406497
-0.00220844
0.00605076
0.0246337
0.0125893
0.00635986
0.0146986
0.00144095
-0.0277677
0.00628111
0.0111807
-0.00121613
0.000119196
-0.0021829
0.00320431
0.0238366
0.0203357
0.0152897
0.0197784
0.0165106
0.00835367
0.00163717
0.00132149
0.0118574
0.0183362
0.0155967
0.0138146
0.00561895
-0.0173151
0.00819122
0.0317449
0.0168408
0.0153823
0.0108614
-0.00589533
-6.10998e-06
0.00531886
0.0121016
0.0161845
-0.0195979
-0.0110706
-0.00174778
0.00960253
0.0236126
0.0114386
-0.00499426
0.0138946
-0.000979092
-0.00706845
0.0106756
-0.000232549
-0.0044659
-0.00404774
0.0127298
0.0157574
0.0221258
0.0194054
0.0106208
0.0134434
0.0153075
0.00950619
0.00147201
0.0219788
0.0151814
0.00495496
0.0153994
0.0178806
-0.000971713
-0.0170614
0.0150579
0.0366322
0.0119845
0.017474
0.0233249
0.00174186
-0.00816958
-0.00251204
0.0243978
0.00221379
-0.00301328
-0.00311718
0.0175569
0.0143693
0.017315
0.0156743
0.00107288
0.0138618
-0.00556029
0.000984147
0.0283857
0.0227504
0.0237343
0.00959539
0.00241729
0.0186749
0.0276239
0.0221848
0.0117407
0.00406016
0.00356405
0.00969642
0.00966008
0.0227674
0.0141717
0.0115318
0.0248316
0.0440582
0.00489018
-0.00833147
0.024051
0.0218153
-0.00063677
0.0148901
0.0205653
0.00250206
-0.00523292
-0.000743496
0.0164254
0.0227736
0.0166009
0.0122878
-5.53731e-05
0.00397795
0.018821
0.0107047
-6.87215e-05
-0.0107077
-0.00650111
0.0204147
0.0262958
0.0115587
0.0052552
0.0113377
0.0241227
0.0432005
0.0155969
-0.00245507
0.00278814
0.00200583
0.00828479
0.0109984
0.0198572
0.00267199
0.00409532
0.0163933
0.00557155
0.00605358
-0.00224269
-0.00173989
0.029939
0.0111476
-0.000788943
0.0145045
0.00737237
0.011119
0.0366491
0.00284273
0.00734732
0.0307132
0.00351516
-0.00816804
0.0113171
0.0207603
0.0190422
0.0167426
0.0058729
0.0142685
0.0242928
0.0179987
0.0184071
0.0239299
0.00708516
0.0123886
0.026211
0.00197184
-0.0116748
0.0118198
0.0289404
0.0144342
0.00193273
0.00647767
0.0275975
0.00414899
0.0183861
0.00911371
0.0178488
0.0603361
0.011367
2.7231e-06
0.00990442
0.0152436
0.0179858
0.0183267
0.0191318
0.0282225
0.014381
-0.00772707
0.0207044
0.0134225
0.0102309
0.025522
0.0200684
0.00518229
0.0153756
0.026877
0.0088274
0.000230486
0.0164988
0.0183762
0.0106399
-0.00400786
0.0204991
0.0244321
0.00643448
0.0170883
0.00509596
-0.00211337
0.0137227
0.00701167
0.00306346
0.0179899
0.000330254
0.0210773
0.0240261
0.00905313
0.0150601
0.00110234
-0.000568511
0.00892655
0.012087
0.0213693
0.0137285
0.00785303
0.0229487
0.0320614
0.00902324
-0.00984316
0.00285381
0.0446248
0.020326
0.00118713
-0.00382741
0.000420607
0.0182069
0.0120289
-0.0145248
0.00369432
0.0230874
0.0239694
0.011135
0.000153401
0.00118802
-0.00764741
0.00671444
0.0278912
0.00575247
0.00202855
0.0108236
0.0225458
-0.00946895
-0.00242721
0.0380944
0.0381073
0.000549944
-0.00815699
0.0185206
0.0267994
0.00806784
-0.0045201
0.00470477
0.0227848
0.00773021
0.01345
0.0268897
0.0306068
0.00826268
-0.0352478
-0.0151119
-0.00327146
-0.0165308
0.0165719
-0.0294528
-0.0215085
0.031983
0.0146252
-0.0280114
0.00664213
0.0132999
0.0231686
-0.00170589
-0.0059981
0.0251689
0.0098806
0.028394
0.00457982
-0.0357827
0.0137933
0.0458738
0.00933544
-0.0171902
-0.007225
0.0102907
-0.00478964
0.030835
0.0389353
0.0391073
0.00068835
-0.0311331
0.00292897
0.0310342
0.02107
-0.00158474
0.0168625
0.0382967
0.0449293
-0.00367998
-0.0111035
0.0353784
0.0033451
0.0400553
0.0231527
0.0226173
0.0674176
0.0493351
-0.00448831
-0.0250989
0.0361556
0.0254493
-0.00548899
-0.0133074
0.0249946
0.0410486
-0.0263417
-0.0346615
-0.00493548
0.0107221
0.0516912
0.0256339
-0.0183302
0.010597
0.0324385
0.0537651
0.0192934
-0.0157107
-0.00531876
-0.00412907
-0.0217909
0.00475426
0.0104593
0.0213444
0.00633707
0.0140233
0.0358662
0.0302392
0.0185962
-0.00869268
-0.00242284
0.0154134
0.0270278
-0.0393708
-0.0152007
0.036853
0.00630716
0.00539721
0.0361251
0.0521713
0.000737564
-0.00162137
0.0541502
0.0378855
0.0240174
0.00758172
-0.000408041
0.0639773
0.0549765
0.0195708
0.00593186
0.0288837
0.0281632
0.0378176
0.0292858
0.0265148
0.0151622
-0.00646601
0.00716348
0.00307865
-0.0293836
-0.0282812
0.00641762
0.0122318
0.00118069
0.0132545
0.0219685
0.00241063
-0.0246684
-0.00685798
0.0190974
0.0380942
0.0214342
0.0246686
0.0201417
0.00858614
0.0127397
0.0186435
0.026396
0.0266459
0.0159927
0.0205057
0.0164326
0.0136939
0.0141909
0.0205151
0.0253178
0.0189066
0.0267616
0.0222372
0.0124711
0.00604617
0.00425005
0.0161913
0.0190195
0.00809677
0.00697407
0.0239946
0.0204045
0.0185394
0.0183044
0.0106433
0.0171627
0.0180684
0.00882095
0.0141823
0.0149117
0.00992185
0.0125883
0.0115445
0.013576
0.019069
0.0214761
0.0246922
0.0201709
0.00865522
0.0127229
0.0186003
0.0263415
0.0268105
0.0159332
0.020545
0.0165141
0.0134618
0.0140653
0.0204381
0.0253358
0.0189
0.0266708
0.0223324
0.0124212
0.00593714
0.00428163
0.0161461
0.0190348
0.00795678
0.00696445
0.0240899
0.020436
0.0186748
0.0183172
0.0105801
0.0172319
0.0180214
0.0086185
0.0142266
0.0149002
0.0099868
0.0124619
0.0114858
0.0135659
0.0191296
0.0214496
0.024258
0.0200891
0.00874296
0.0128282
0.018641
0.0262027
0.0270334
0.015947
0.0207006
0.0167523
0.0126712
0.0138698
0.020249
0.0255193
0.0189319
0.025803
0.022443
0.0122923
0.00557887
0.00437047
0.0162018
0.0191169
0.00766488
0.0069483
0.0243004
0.0205382
0.0188561
0.0182963
0.0106004
0.0172507
0.0178435
0.00897717
0.0143783
0.0151345
0.010053
0.0119814
0.0112263
0.0134809
0.0192593
0.0212936
0.0233776
0.0196359
0.00866547
0.0127533
0.0186824
0.0257586
0.0267868
0.0156401
0.0204203
0.0167202
0.0113607
0.0131866
0.0197726
0.025333
0.0189784
0.0246128
0.0222351
0.0119607
0.00493439
0.00444066
0.0160104
0.0190805
0.0070353
0.0066679
0.0244567
0.0205887
0.018902
0.018042
0.0103933
0.0169885
0.0168039
0.00886631
0.0145141
0.0154188
0.00998591
0.0110156
0.0101762
0.0130212
0.0192011
0.0212446
0.0226747
0.0190504
0.0084656
0.0126107
0.0187358
0.0250493
0.0259433
0.014391
0.0192637
0.0165775
0.0105483
0.012043
0.0187735
0.024919
0.0192075
0.0237016
0.0219005
0.0115685
0.0045134
0.00460009
0.0155269
0.0188113
0.00620776
0.00618415
0.0244634
0.0206728
0.0188489
0.0178843
0.00988493
0.0163583
0.0157738
0.00839676
0.0148329
0.0158965
0.0101488
0.00987668
0.00903216
0.012385
0.018974
0.021349
0.0221397
0.0183102
0.00804046
0.0121353
0.0186117
0.0239347
0.0246001
0.0125826
0.0174107
0.0166866
0.0104096
0.0109829
0.0174732
0.0243715
0.0195443
0.0228937
0.0213895
0.0110632
0.00449354
0.00479269
0.0146038
0.0182484
0.00561627
0.00551287
0.0241284
0.0205703
0.0186207
0.0179607
0.00922999
0.0151439
0.0152732
0.00768441
0.0151705
0.0165112
0.0105409
0.00876701
0.00816676
0.0119094
0.0187044
0.0217028
0.0220121
0.0172885
0.00713312
0.0115574
0.0182998
0.0221875
0.0231195
0.0105399
0.0153837
0.0172814
0.0107342
0.0102861
0.0162923
0.02356
0.0197248
0.0221405
0.0206857
0.0104333
0.00488856
0.00498755
0.0134857
0.0179531
0.00567833
0.00467215
0.0234719
0.020295
0.0181063
0.0182187
0.00852701
0.0137735
0.0146282
0.0068725
0.015344
0.0172013
0.0112448
0.00788983
0.00739969
0.0116749
0.01846
0.0221952
0.0222324
0.0158538
0.0052663
0.0108277
0.0179886
0.020136
0.0216268
0.00830008
0.0134326
0.0181876
0.0111627
0.00982232
0.0151547
0.0220832
0.0196158
0.0210944
0.0194124
0.00960916
0.0055357
0.00509719
0.0125517
0.0183523
0.00637609
0.00414707
0.0224398
0.0198152
0.0173263
0.0187557
0.00765079
0.0120564
0.0139265
0.00574163
0.0152294
0.0178942
0.0121975
0.00750763
0.00661388
0.0112625
0.0182856
0.0220465
0.0225637
0.0147387
0.0027739
0.0105181
0.0178354
0.0177503
0.0198492
0.00664218
0.0121553
0.0191084
0.0114457
0.00937515
0.0139256
0.0205445
0.0193223
0.0196956
0.0173416
0.00846309
0.00584989
0.00506159
0.011702
0.0193762
0.00736855
0.00436855
0.0211012
0.0180746
0.0167692
0.0194133
0.00667376
0.0112545
0.0136277
0.00470731
0.014649
0.0181834
0.0125472
0.00766117
0.00619658
0.0107112
0.0181211
0.0211066
0.022584
0.0151471
0.00124739
0.0109666
0.0178301
0.0150035
0.0178166
0.00676524
0.0126645
0.0197922
0.0115111
0.00864469
0.012754
0.0206926
0.0193544
0.0183092
0.0145946
0.0069723
0.00567662
0.00489235
0.0106382
0.0203833
0.00892335
0.0056382
0.019648
0.0166144
0.0165334
0.0194097
0.00564208
0.0106436
0.0145283
0.00450126
0.0135704
0.017395
0.0118527
0.00838326
0.00657454
0.0102244
0.0173436
0.0195296
0.0223571
0.0171162
0.000843605
0.0117407
0.0178905
0.0127991
0.0161152
0.00835837
0.0147336
0.0199911
0.0119477
0.00844447
0.0118809
0.0218921
0.0196505
0.0174466
0.0120661
0.00578598
0.00489243
0.00412408
0.00968878
0.020757
0.0108575
0.00721946
0.0181808
0.0159247
0.0166355
0.01877
0.00519714
0.00961768
0.0156686
0.00535635
0.0115976
0.0151497
0.00972433
0.00964527
0.007386
0.00978577
0.0158765
0.0173918
0.0218533
0.0195838
0.00159041
0.0123114
0.0154749
0.0114731
0.0148219
0.010022
0.0162394
0.0203352
0.0124771
0.0090869
0.0120973
0.0225998
0.0194654
0.0175524
0.0115386
0.0056297
0.00419381
0.00280045
0.00841942
0.0202068
0.0134742
0.00840426
0.0171305
0.0142357
0.0157215
0.0182933
0.00543927
0.00790897
0.0169428
0.00709992
0.00868774
0.0120636
0.00729235
0.0103481
0.00694324
0.00944003
0.0145804
0.0152466
0.0204239
0.0206797
0.00382596
0.0127177
0.017064
0.0114737
0.0134525
0.0101666
0.0159598
0.0212406
0.0124423
0.0100748
0.013614
0.0222332
0.0190944
0.0190163
0.0135245
0.00675506
0.00460658
0.000980531
0.00609114
0.018921
0.0161065
0.00991168
0.0168484
0.0121222
0.0140884
0.0194079
0.00686004
0.00593092
0.018487
0.0100698
0.00526074
0.00851834
0.00637832
0.0127568
0.006345
0.00725856
0.0136863
0.0126568
0.0192294
0.0197045
0.00724662
0.0134778
0.0211874
0.0128653
0.0115838
0.0106192
0.0143151
0.0216477
0.0135885
0.00984396
0.0140495
0.0211391
0.0189303
0.0182096
0.0154038
0.0101465
0.00560475
-0.00100584
0.005444
0.0180278
0.017912
0.011023
0.0167505
0.0115685
0.0131216
0.0223158
0.0107325
0.00496134
0.019582
0.0105585
0.0012314
0.00671489
0.00751749
0.0119992
0.00743571
0.00758712
0.0133912
0.011338
0.0196668
0.0217286
0.010081
0.0148819
0.0211252
0.0132552
0.00908381
0.0126037
0.0128562
0.0224138
0.0115922
0.00859765
0.0122688
0.0203417
0.0181998
0.0162178
0.0159935
0.0102793
0.00623532
-0.00145653
0.00479432
0.0181403
0.0179318
0.0107998
0.0166144
0.0127096
0.0126802
0.0235361
0.0153006
0.00522669
0.018972
0.0109025
0.000514591
0.00672544
0.00850979
0.0126522
0.00849072
0.00838041
0.0135268
0.01519
0.0192566
0.0191095
0.0127752
0.0120029
0.0194082
0.0145226
0.010139
0.0102709
0.0100304
0.0211642
0.0138928
0.00890623
0.00873396
0.0195418
0.0170085
0.014647
0.0153281
0.0104221
0.00654699
0.00047612
0.00739601
0.0184279
0.016735
0.00888412
0.0166217
0.0161792
0.0134463
0.0224858
0.0204311
0.0071574
0.0177251
0.0129089
0.00418554
0.00766531
0.00838726
0.0130694
0.0085046
0.00998638
0.0188513
0.0186053
0.0163566
0.016979
0.0129782
0.00655207
0.0162569
0.0155691
0.00874255
0.00850939
0.00868272
0.0121068
0.0108859
0.00467292
0.00672557
0.0194064
0.0177289
0.0129764
0.0144577
0.0110487
0.00643971
0.00302657
0.00820195
0.0172389
0.0172293
0.00745243
0.012011
0.014157
0.0147445
0.0199271
0.0218857
0.00826992
0.0185612
0.0131936
0.00542767
0.00957594
0.00770565
0.0121433
0.00791608
0.0131534
0.0259946
0.0183814
0.0114359
0.0146689
0.0134493
0.00487358
0.0128797
0.0127907
0.00516741
0.00668865
0.000823346
0.00160859
0.00917599
0.00953414
0.00797331
0.0164368
0.0160567
0.0106443
0.0134577
0.011233
0.00693359
0.00463415
0.00885952
0.0147419
0.0158816
0.0072086
0.0104512
0.0119919
0.0146372
0.0162008
0.0184568
0.00703865
0.0173708
0.0114903
0.00342946
0.0114271
0.00948642
0.0127395
0.00839515
0.0122768
0.0336041
0.0154277
0.0100691
0.0142761
0.0128678
0.004847
0.0123507
0.0130431
0.00376517
0.00313646
0.00306707
0.00235047
0.0110837
0.00984674
0.00435439
0.0138735
0.0157771
0.0092178
0.01232
0.0124142
0.0095227
0.00643114
0.00936448
0.0155267
0.0142956
0.00767836
0.0105846
0.00957322
0.0130648
0.016497
0.0165051
0.00783695
0.0174189
0.010237
0.00266186
0.0133047
0.010678
0.014425
0.0136103
0.00728585
0.0229583
0.0143316
0.00922408
0.0144712
0.012987
0.00682336
0.0125886
0.0169982
0.00610081
0.00592527
0.0137217
0.0040634
0.00440467
0.0091184
0.0123083
0.0135987
0.0157358
0.0103544
0.0112756
0.0113446
0.00988175
0.00780845
0.0117168
0.0142807
0.0146785
0.00964346
0.00869722
0.00893989
0.0121406
0.0133838
0.0182523
0.0119255
0.0209893
0.0123041
0.00157095
0.0147401
0.00989163
0.0155743
0.014243
0.000957825
0.0162303
0.0145496
0.012963
0.015499
0.0100892
0.00335864
0.0106376
0.0161051
0.0058423
0.0100556
0.0204187
0.00386667
-0.000278147
0.00212202
0.00945916
0.0125354
0.0131245
0.0140313
0.0141068
0.0142331
0.0108831
0.00747645
0.0128528
0.0143805
0.015114
0.0112192
0.00763577
0.0125102
0.0147605
0.0103422
0.0162385
0.0137055
0.018026
0.0139968
0.00183025
0.013687
0.0104255
0.014743
0.00986362
0.00554082
0.0142315
0.013672
0.0128177
0.0129115
0.00546077
0.00249249
0.0131635
0.0221998
0.00569335
0.0150108
0.00982126
0.00356088
0.00841564
0.00396786
0.00955784
0.0104481
0.0121219
0.0164907
0.0161138
0.0137311
0.00666936
0.00837067
0.0143882
0.014645
0.0146389
0.0118577
0.00657259
0.0123429
0.0153205
0.0130348
0.00631211
0.00817625
0.0127557
0.0158695
0.00168947
0.00835647
0.012307
0.00636239
0.00468177
0.00779721
0.0111892
0.00140569
0.0110544
0.0116246
0.000435404
0.0140476
0.017351
0.0167752
0.00908175
0.0137993
0.00347455
0.0193567
0.0137489
0.0102994
0.00671054
0.0037321
0.0139829
0.0153165
0.0228635
0.0196721
0.00586885
0.0125918
0.0106695
0.0193062
0.0165323
0.00324059
0.0020121
0.011547
0.0154451
0.0205144
0.0124617
0.0111365
0.0105621
0.0166779
0.00444476
0.009345
0.0147541
0.00551216
-0.00181654
0.0055397
0.0033721
0.0168493
0.00880061
0.00579475
0.00897842
0.0122767
0.0202248
0.0111603
-0.0117075
0.0101767
0.0105348
0.0296726
0.0186255
0.010523
0.00354158
0.000183032
0.0136463
0.0162836
0.023052
0.0224691
0.00942187
0.00182917
0.0104099
0.0184095
0.0114021
0.00947525
0.00405334
0.00749427
0.014053
0.0170649
-0.00255417
-0.00880002
0.0103565
0.0284943
0.0117712
0.0161172
0.0131204
0.0121115
0.00518081
0.00078249
0.00913811
0.01462
0.00451483
0.00452202
0.014541
0.0107669
0.0214134
0.00927121
-0.00183645
0.0115953
0.0158357
0.0175906
0.0200961
0.0246982
0.00726325
0.0102692
0.0149366
0.0155734
0.0244613
0.0107013
0.00145581
0.00515826
0.0103635
0.01131
0.0101714
0.00769389
0.00880387
0.0121855
0.0139006
0.0209267
0.00611458
-0.00611469
0.00998066
0.0127795
0.00607883
0.0121414
0.0164313
0.0187357
0.00931007
-0.00619968
0.00869634
0.00734752
0.0168312
0.00622192
0.00682292
0.0307911
0.0165107
-0.00377818
0.0111883
0.0135928
0.032847
0.0246499
0.0164032
0.0163032
0.00541301
0.0224795
0.0186076
0.0150749
0.0149893
-0.00477167
-0.00419716
0.0104788
0.00390373
0.00694856
0.0158764
0.0113653
0.0126183
0.0173916
0.0200348
0.018421
0.00511763
0.00546765
0.0143945
0.0145469
0.00855654
0.00912102
0.0269627
0.025781
0.00713954
0.00113991
0.00591346
0.016439
0.00768466
0.00953355
0.0143841
0.0233434
0.00659041
-0.00442364
0.00578174
0.00886951
0.0252535
0.0250019
0.0209389
0.0277909
0.0163583
0.0150514
-0.00211537
0.00634848
0.0251078
0.0103764
-8.49987e-05
0.00214808
0.0127857
0.0194771
0.0158669
0.0113836
0.0270507
0.00803618
-0.00370968
0.00103783
-0.000281699
0.0009998
0.00988679
-0.00715635
0.00716637
0.0447873
0.0364132
0.00939768
-0.00339574
0.00407776
0.0137166
0.0127866
0.0230739
-5.62336e-05
0.00112802
0.0090973
-0.00187781
0.00794368
0.0111977
0.0278336
0.0213019
0.00529745
0.0118669
0.0179386
0.0140487
0.0026885
-0.000412388
0.0178891
0.0103216
-0.0100619
0.00849761
0.0186342
-0.00113329
0.0118492
0.0149959
0.0152266
0.0100875
-0.00266012
-0.0117896
0.00161975
-0.00574517
-0.0120391
0.0127129
0.00322775
0.020835
0.0253642
0.00850595
0.00813119
0.000882885
0.0102565
0.00532515
0.010513
0.0101044
0.00607979
-0.00587026
-0.016764
0.0117787
0.0376482
0.00863039
-0.00507255
0.0093722
0.0112007
0.0148201
0.0256165
0.0286196
0.00425004
-0.000209775
0.0152839
-0.00698474
-0.0121825
0.0218937
0.0396923
0.00296943
-0.0106029
-0.00559386
0.00262416
0.00671021
0.0126434
0.0211224
0.040641
0.0105742
-0.00546582
0.0199202
0.0361028
0.0105679
0.00894734
0.0181613
0.0147691
0.0128991
-0.000241529
-0.0142566
0.00769965
0.0324292
0.0196582
-0.0247113
-0.00634322
0.0321897
0.0154592
-0.00373053
0.00925822
0.0134333
0.028968
0.0418908
0.0370442
0.0179886
-0.0178652
0.0218495
0.0220582
-0.0230257
0.0144566
0.0465213
0.00738632
-0.00124558
0.0104266
-0.0069661
-0.00163474
0.0205792
0.00773501
0.0330596
0.0295624
-0.0362025
-0.00724027
0.0228014
0.00204989
-0.0033127
0.0203101
0.0245547
0.0132478
0.00939603
-0.0031906
0.00798816
0.0083442
0.0081412
-0.00897585
0.00363396
0.0164348
-0.00634853
0.000900818
0.0251587
0.0300576
0.0336845
0.0513067
-0.0217684
0.00604536
0.00649856
-0.0550802
-0.0170166
0.0116377
0.00497683
0.0433383
0.0143592
0.0140501
0.0270442
-0.0220847
-0.0120765
0.00902324
0.0274308
0.00481239
-0.00798192
-0.0252771
0.0130894
0.0239057
-0.01689
0.00667386
0.02857
0.02872
0.0416844
0.0166092
-0.00528928
-0.00442704
0.000556378
-0.0166325
-0.00847456
0.0571353
0.00983007
-0.0326867
0.023075
0.0393482
0.043501
0.0277529
0.00422704
0.0161593
0.0115191
0.0149785
0.00945053
0.00874014
0.0290987
-0.0142201
0.0138856
0.0240968
0.00201561
0.000996209
0.00580346
0.00175151
0.0129379
0.00854963
0.0112104
-0.00157163
-0.0379924
0.0184737
0.0258499
-0.00515275
-0.0136291
-0.00701538
0.00703633
0.0363918
0.0161005
-0.0237185
0.00991867
0.0198447
0.0137909
0.0174604
0.0245503
0.0150474
0.00805086
0.00453133
0.0135745
0.0259887
0.0254837
0.0145158
0.0012869
0.0118167
0.00920582
0.00529654
0.01428
0.0240213
0.0160154
0.0172155
0.0207086
0.00826675
9.73284e-05
0.000904728
0.0168332
0.0252581
0.00248857
0.0049164
0.0251145
0.0218019
0.0192298
0.0163191
0.0123714
0.0134388
0.0110926
0.00822486
0.00956192
0.00533568
0.00460193
0.000112315
0.0102981
0.0197299
0.0155817
0.0173766
0.0245419
0.0148516
0.00806101
0.00442369
0.0134608
0.0258569
0.025358
0.0143746
0.00112778
0.0117044
0.00900831
0.00519064
0.0141963
0.0238946
0.0159297
0.0171048
0.0206979
0.00820881
-4.28582e-05
0.000689969
0.0167611
0.0253018
0.00231035
0.00473631
0.0251195
0.0218006
0.0191736
0.0162488
0.0123169
0.0132755
0.0110051
0.00816452
0.00945337
0.00523146
0.00455355
-5.31064e-05
0.0101254
0.0197711
0.01551
0.017351
0.0246601
0.0146204
0.00808871
0.00424746
0.0135784
0.0257718
0.0252918
0.0143917
0.000867953
0.0116874
0.00890001
0.00517991
0.0141416
0.0238825
0.0157451
0.0169592
0.0208749
0.00806753
-0.000249096
0.000761968
0.0167324
0.0255494
0.00220552
0.00480877
0.025213
0.0218197
0.0191561
0.0162594
0.0123147
0.0131869
0.0107838
0.0082154
0.00928971
0.00506483
0.00467554
-8.85355e-05
0.0100277
0.0198989
0.015497
0.0173316
0.0245882
0.0142002
0.0079214
0.00382622
0.0134612
0.025432
0.0249618
0.0141265
0.000347101
0.0115488
0.00875073
0.00514128
0.0140108
0.0236156
0.0153405
0.0165794
0.0209255
0.00764971
-0.000661701
0.000572
0.0166694
0.0255884
0.00186485
0.00454584
0.0251877
0.0217543
0.0189376
0.0159803
0.012164
0.0126151
0.0100672
0.00811961
0.00874318
0.00474396
0.00484716
-0.000281288
0.00963607
0.0199253
0.0154816
0.0174302
0.0243767
0.0136764
0.00772635
0.00335255
0.0131118
0.0248476
0.0241595
0.0135591
-0.000452772
0.0113865
0.00891648
0.0052611
0.0138541
0.0229955
0.0148776
0.016538
0.0209491
0.00707005
-0.00102213
0.000534214
0.0166034
0.0254165
0.00138931
0.00405367
0.0250735
0.0218072
0.0186185
0.015873
0.0120543
0.0119084
0.0089072
0.00853768
0.00799144
0.00447645
0.00524979
-0.000477308
0.00885854
0.0198975
0.0154984
0.0176497
0.0239422
0.0132232
0.00768147
0.00324243
0.0126023
0.0242281
0.0230184
0.012802
-0.00136913
0.0112366
0.0094638
0.00580488
0.0135209
0.0222311
0.0145287
0.0164502
0.0207827
0.00636261
-0.00113023
0.000678697
0.0164836
0.0250845
0.00133138
0.00363266
0.0248617
0.0217947
0.018041
0.0158399
0.0119643
0.0116057
0.00796017
0.00784082
0.00732164
0.00431166
0.00572523
-0.000466027
0.00752565
0.0197316
0.0154666
0.017744
0.0233451
0.0130068
0.00795999