/*--------------------------------*- C++ -*----------------------------------*\
  =========                 |
  \\      /  F ield         | OpenFOAM: The Open Source CFD Toolbox
   \\    /   O peration     | Website:  https://openfoam.org
    \\  /    A nd           | Version:  10
     \\/     M anipulation  |
\*---------------------------------------------------------------------------*/
FoamFile
{
    format      ascii;
    class       volTensorField;
    location    "35";
    object      TauNN;
}
// * * * * * * * * * * * * * * * * * * * * * * * * * * * * * * * * * * * * * //

dimensions      [0 2 -2 0 0 0 0];

internalField   nonuniform List<tensor> 
25600
(
(0.00147306 -0.0129755 -0.0151371 -0.0129755 0.000159193 -0.00814969 -0.0151371 -0.00814969 0.000115854)
(0.00147179 -0.012978 -0.0151351 -0.012978 0.00015953 -0.00815121 -0.0151351 -0.00815121 0.000114865)
(0.00148431 -0.0129812 -0.0151343 -0.0129812 0.00016 -0.00815304 -0.0151343 -0.00815304 0.000114368)
(0.00149438 -0.0129746 -0.0151319 -0.0129746 0.000157026 -0.00814875 -0.0151319 -0.00814875 0.000117617)
(0.00147595 -0.012973 -0.0151375 -0.012973 0.000157955 -0.00814782 -0.0151375 -0.00814782 0.000118311)
(0.00145981 -0.0129809 -0.0151395 -0.0129809 0.000161227 -0.00815292 -0.0151395 -0.00815292 0.000115134)
(0.00147509 -0.0129817 -0.0151372 -0.0129817 0.000160875 -0.00815341 -0.0151372 -0.00815341 0.000114329)
(0.00148772 -0.0129768 -0.0151344 -0.0129768 0.000158531 -0.00815019 -0.0151344 -0.00815019 0.000116424)
(0.00148662 -0.0129761 -0.0151335 -0.0129761 0.000157962 -0.00814969 -0.0151335 -0.00814969 0.000117185)
(0.00149569 -0.0129801 -0.0151338 -0.0129801 0.000159322 -0.00815228 -0.0151338 -0.00815228 0.00011536)
(0.00145678 -0.0129718 -0.0151456 -0.0129718 0.00015967 -0.00814725 -0.0151456 -0.00814725 0.000118723)
(0.00146551 -0.0129798 -0.0151372 -0.0129798 0.000160535 -0.00815232 -0.0151372 -0.00815232 0.000114605)
(0.00148196 -0.0129812 -0.0151348 -0.0129812 0.000160301 -0.00815322 -0.0151348 -0.00815322 0.000113687)
(0.00145575 -0.0129794 -0.0151393 -0.0129794 0.000161146 -0.00815224 -0.0151393 -0.00815224 0.000114292)
(0.00149364 -0.0129791 -0.0151327 -0.0129791 0.000158914 -0.00815173 -0.0151327 -0.00815173 0.000115201)
(0.00147937 -0.0129737 -0.0151355 -0.0129737 0.00015787 -0.00814831 -0.0151355 -0.00814831 0.000117433)
(0.00148285 -0.0129762 -0.0151335 -0.0129762 0.000158119 -0.00814985 -0.0151335 -0.00814985 0.000116874)
(0.00149009 -0.0129802 -0.0151348 -0.0129802 0.000159626 -0.00815233 -0.0151348 -0.00815233 0.000115358)
(0.00145897 -0.012971 -0.0151426 -0.012971 0.000159034 -0.00814695 -0.0151426 -0.00814695 0.000117767)
(0.00144638 -0.012969 -0.0151446 -0.012969 0.00015883 -0.00814573 -0.0151446 -0.00814573 0.000118814)
(0.00148005 -0.0129794 -0.0151358 -0.0129794 0.000159715 -0.00815185 -0.0151358 -0.00815185 0.000115618)
(0.00146578 -0.0129778 -0.0151401 -0.0129778 0.000160426 -0.00815103 -0.0151401 -0.00815103 0.000116196)
(0.00148495 -0.0129787 -0.0151351 -0.0129787 0.000159393 -0.0081515 -0.0151351 -0.0081515 0.000115509)
(0.00146863 -0.0129794 -0.0151375 -0.0129794 0.000160431 -0.00815206 -0.0151375 -0.00815206 0.000114844)
(0.00148191 -0.0129796 -0.0151349 -0.0129796 0.000159648 -0.00815205 -0.0151349 -0.00815205 0.000115251)
(0.0014905 -0.0129785 -0.0151348 -0.0129785 0.000159038 -0.00815127 -0.0151348 -0.00815127 0.000116301)
(0.0014967 -0.012975 -0.0151315 -0.012975 0.000156944 -0.00814888 -0.0151315 -0.00814888 0.000117788)
(0.00149238 -0.0129724 -0.0151314 -0.0129724 0.000156006 -0.00814721 -0.0151314 -0.00814721 0.000118868)
(0.0014648 -0.0129788 -0.0151388 -0.0129788 0.000160444 -0.00815159 -0.0151388 -0.00815159 0.0001157)
(0.00148689 -0.0129801 -0.0151353 -0.0129801 0.000159773 -0.00815234 -0.0151353 -0.00815234 0.000115353)
(0.00148933 -0.0129758 -0.0151345 -0.0129758 0.000158171 -0.00814953 -0.0151345 -0.00814953 0.000116862)
(0.00143349 -0.0129704 -0.0151481 -0.0129704 0.000160654 -0.0081469 -0.0151481 -0.0081469 0.000117294)
(0.00147303 -0.0129784 -0.0151375 -0.0129784 0.00015988 -0.0081513 -0.0151375 -0.0081513 0.000116192)
(0.00148329 -0.0129788 -0.0151362 -0.0129788 0.000159579 -0.00815149 -0.0151362 -0.00815149 0.000116014)
(0.001493 -0.0129749 -0.0151316 -0.0129749 0.000157073 -0.00814894 -0.0151316 -0.00814894 0.000117599)
(0.00149757 -0.0129747 -0.0151321 -0.0129747 0.000156812 -0.0081486 -0.0151321 -0.0081486 0.000118524)
(0.00145453 -0.0129784 -0.0151413 -0.0129784 0.000161267 -0.00815157 -0.0151413 -0.00815157 0.000114835)
(0.00148149 -0.0129749 -0.0151331 -0.0129749 0.000157766 -0.00814909 -0.0151331 -0.00814909 0.000116708)
(0.00149941 -0.0129761 -0.0151306 -0.0129761 0.000157044 -0.00814964 -0.0151306 -0.00814964 0.000117642)
(0.00150214 -0.0129778 -0.0151327 -0.0129778 0.000158061 -0.00815071 -0.0151327 -0.00815071 0.000117076)
(5.61911e-05 -0.0127956 -0.0154234 -0.0127956 2.32522e-05 -0.00812398 -0.0154234 -0.00812398 7.36946e-05)
(6.60583e-05 -0.0127977 -0.0154203 -0.0127977 2.85012e-05 -0.00811574 -0.0154203 -0.00811574 7.55028e-05)
(-4.6567e-05 -0.0128131 -0.0154525 -0.0128131 7.00942e-05 -0.00810785 -0.0154525 -0.00810785 7.66502e-05)
(5.62663e-05 -0.0127905 -0.0154278 -0.0127905 2.83213e-05 -0.00813525 -0.0154278 -0.00813525 4.54936e-05)
(0.000168789 -0.0128279 -0.0154203 -0.0128279 0.000118553 -0.00814891 -0.0154203 -0.00814891 3.90589e-05)
(9.47998e-05 -0.0128146 -0.0154207 -0.0128146 5.3488e-05 -0.00814002 -0.0154207 -0.00814002 4.90337e-05)
(4.01504e-05 -0.0128013 -0.015438 -0.0128013 3.38952e-05 -0.00811533 -0.015438 -0.00811533 6.51149e-05)
(8.00043e-05 -0.0128011 -0.0154241 -0.0128011 3.42424e-05 -0.00813458 -0.0154241 -0.00813458 6.08579e-05)
(0.000101091 -0.0128156 -0.0154218 -0.0128156 6.98064e-05 -0.00814675 -0.0154218 -0.00814675 4.47995e-05)
(3.02141e-05 -0.0127941 -0.0154349 -0.0127941 2.08788e-05 -0.00812276 -0.0154349 -0.00812276 5.09789e-05)
(0.000499719 -0.0128546 -0.015443 -0.0128546 0.000115647 -0.00814153 -0.015443 -0.00814153 2.63731e-05)
(9.51393e-05 -0.0128245 -0.0154193 -0.0128245 7.27159e-05 -0.00814844 -0.0154193 -0.00814844 4.4852e-05)
(5.43572e-06 -0.0128098 -0.0154505 -0.0128098 5.85456e-05 -0.00810471 -0.0154505 -0.00810471 8.16204e-05)
(-0.000138622 -0.0128378 -0.0154488 -0.0128378 0.000104617 -0.00810621 -0.0154488 -0.00810621 8.36086e-05)
(-7.5435e-05 -0.0128169 -0.0154562 -0.0128169 7.62554e-05 -0.00810848 -0.0154562 -0.00810848 7.69159e-05)
(5.07692e-05 -0.012796 -0.015427 -0.012796 2.29691e-05 -0.0081224 -0.015427 -0.0081224 6.26203e-05)
(-4.26008e-05 -0.0128434 -0.0154119 -0.0128434 0.000121286 -0.00811621 -0.0154119 -0.00811621 8.72228e-05)
(3.62529e-05 -0.0127942 -0.0154333 -0.0127942 2.06714e-05 -0.00812277 -0.0154333 -0.00812277 5.40655e-05)
(0.000222749 -0.0128259 -0.0154253 -0.0128259 0.000125416 -0.00814765 -0.0154253 -0.00814765 3.28814e-05)
(0.000379729 -0.0128565 -0.0154329 -0.0128565 0.000130042 -0.00814502 -0.0154329 -0.00814502 2.96656e-05)
(5.00022e-05 -0.0128014 -0.0154355 -0.0128014 3.72794e-05 -0.00811474 -0.0154355 -0.00811474 6.80304e-05)
(0.000106814 -0.0128188 -0.0154231 -0.0128188 8.20927e-05 -0.00814357 -0.0154231 -0.00814357 3.65893e-05)
(6.53878e-05 -0.0127996 -0.0154247 -0.0127996 2.46893e-05 -0.00812823 -0.0154247 -0.00812823 5.33625e-05)
(0.000104777 -0.0128146 -0.0154195 -0.0128146 6.3459e-05 -0.00814295 -0.0154195 -0.00814295 5.53073e-05)
(5.3369e-05 -0.0128051 -0.0154371 -0.0128051 3.78261e-05 -0.00811394 -0.0154371 -0.00811394 6.7148e-05)
(4.60932e-05 -0.0127961 -0.0154319 -0.0127961 2.1227e-05 -0.00812497 -0.0154319 -0.00812497 4.74295e-05)
(4.97646e-05 -0.0127908 -0.0154266 -0.0127908 2.29456e-05 -0.00813064 -0.0154266 -0.00813064 5.31512e-05)
(5.3087e-05 -0.0127914 -0.0154247 -0.0127914 2.31748e-05 -0.00813018 -0.0154247 -0.00813018 5.67302e-05)
(6.21513e-05 -0.0127989 -0.0154251 -0.0127989 2.33658e-05 -0.00812282 -0.0154251 -0.00812282 5.58769e-05)
(6.38126e-05 -0.0128005 -0.0154275 -0.0128005 2.54597e-05 -0.00812923 -0.0154275 -0.00812923 4.47161e-05)
(6.40705e-05 -0.0127933 -0.0154286 -0.0127933 2.54438e-05 -0.00813023 -0.0154286 -0.00813023 6.23355e-05)
(0.000199728 -0.0128359 -0.0154156 -0.0128359 0.000131467 -0.00814957 -0.0154156 -0.00814957 4.65783e-05)
(8.95401e-05 -0.0128156 -0.015423 -0.0128156 5.17951e-05 -0.00813926 -0.015423 -0.00813926 3.78565e-05)
(6.39425e-05 -0.0127994 -0.0154274 -0.0127994 2.51556e-05 -0.0081296 -0.0154274 -0.0081296 4.67467e-05)
(9.91693e-05 -0.0128102 -0.0154238 -0.0128102 6.99103e-05 -0.00814726 -0.0154238 -0.00814726 4.34489e-05)
(0.000109618 -0.0128093 -0.0154238 -0.0128093 8.18453e-05 -0.0081453 -0.0154238 -0.0081453 4.23245e-05)
(0.000140396 -0.0128205 -0.0154102 -0.0128205 9.34297e-05 -0.00814546 -0.0154102 -0.00814546 7.17138e-05)
(0.000102668 -0.0128077 -0.0154166 -0.0128077 3.15418e-05 -0.00812672 -0.0154166 -0.00812672 8.13956e-05)
(-8.58562e-05 -0.012819 -0.0154556 -0.012819 8.78192e-05 -0.00811126 -0.0154556 -0.00811126 7.46788e-05)
(1.45572e-05 -0.0127993 -0.0154438 -0.0127993 3.0186e-05 -0.00812209 -0.0154438 -0.00812209 5.11332e-05)
(-6.85839e-06 -0.0128022 -0.0154398 -0.0128022 4.42784e-05 -0.00810935 -0.0154398 -0.00810935 8.13842e-05)
(7.52422e-05 -0.0127983 -0.0154161 -0.0127983 2.50333e-05 -0.0081228 -0.0154161 -0.0081228 7.32471e-05)
(4.82026e-05 -0.0127919 -0.0154208 -0.0127919 2.37102e-05 -0.00812726 -0.0154208 -0.00812726 6.01646e-05)
(6.44462e-05 -0.0127909 -0.0154289 -0.0127909 3.81553e-05 -0.00813853 -0.0154289 -0.00813853 3.89465e-05)
(4.04481e-05 -0.0127939 -0.0154268 -0.0127939 2.3528e-05 -0.00811979 -0.0154268 -0.00811979 7.09268e-05)
(9.11759e-05 -0.0128125 -0.0154192 -0.0128125 6.28149e-05 -0.00815003 -0.0154192 -0.00815003 5.7568e-05)
(5.38961e-05 -0.012794 -0.0154214 -0.012794 2.24793e-05 -0.00812714 -0.0154214 -0.00812714 6.71225e-05)
(8.49895e-05 -0.0128002 -0.0154225 -0.0128002 3.95357e-05 -0.00813933 -0.0154225 -0.00813933 7.03253e-05)
(0.00014891 -0.0128312 -0.0154238 -0.0128312 0.000123128 -0.00815095 -0.0154238 -0.00815095 3.35859e-05)
(0.000164611 -0.0128201 -0.0154258 -0.0128201 0.000112927 -0.00814584 -0.0154258 -0.00814584 3.38156e-05)
(5.8961e-05 -0.012795 -0.0154317 -0.012795 2.57419e-05 -0.00813041 -0.0154317 -0.00813041 3.8912e-05)
(0.000179916 -0.0128561 -0.0154275 -0.0128561 0.000136368 -0.00815018 -0.0154275 -0.00815018 3.15063e-05)
(0.000117053 -0.0128193 -0.0154109 -0.0128193 6.73087e-05 -0.00814695 -0.0154109 -0.00814695 8.34849e-05)
(0.000210951 -0.0128547 -0.015356 -0.0128547 0.000103092 -0.00812051 -0.015356 -0.00812051 0.000101534)
(1.76834e-05 -0.0127976 -0.0154352 -0.0127976 2.99794e-05 -0.00811602 -0.0154352 -0.00811602 6.99434e-05)
(-0.000126138 -0.0128304 -0.0154491 -0.0128304 0.000105975 -0.00811388 -0.0154491 -0.00811388 7.88898e-05)
(5.839e-05 -0.0128486 -0.0153873 -0.0128486 0.000116339 -0.00811886 -0.0153873 -0.00811886 9.3627e-05)
(8.84738e-05 -0.0127938 -0.015427 -0.0127938 5.81279e-05 -0.0081447 -0.015427 -0.0081447 4.93682e-05)
(9.75866e-06 -0.0127955 -0.0154381 -0.0127955 2.6041e-05 -0.00812286 -0.0154381 -0.00812286 5.03213e-05)
(8.64178e-05 -0.0128031 -0.0154147 -0.0128031 3.48333e-05 -0.00813846 -0.0154147 -0.00813846 6.61769e-05)
(2.97559e-05 -0.0128001 -0.0154373 -0.0128001 4.49178e-05 -0.00811344 -0.0154373 -0.00811344 7.20034e-05)
(5.70898e-05 -0.0127966 -0.0154266 -0.0127966 2.42932e-05 -0.00813072 -0.0154266 -0.00813072 4.4608e-05)
(9.78271e-05 -0.012816 -0.0154224 -0.012816 7.76134e-05 -0.00814756 -0.0154224 -0.00814756 4.31079e-05)
(0.000216514 -0.0128391 -0.0154205 -0.0128391 0.000130725 -0.00814829 -0.0154205 -0.00814829 3.69987e-05)
(8.93176e-05 -0.0128082 -0.0154196 -0.0128082 4.21962e-05 -0.00814028 -0.0154196 -0.00814028 5.96068e-05)
(6.16133e-05 -0.0127975 -0.0154278 -0.0127975 3.07742e-05 -0.00813447 -0.0154278 -0.00813447 4.0986e-05)
(8.86538e-05 -0.0128044 -0.0154259 -0.0128044 6.46552e-05 -0.00814594 -0.0154259 -0.00814594 4.32988e-05)
(-5.13855e-05 -0.012811 -0.0154516 -0.012811 6.56642e-05 -0.00811529 -0.0154516 -0.00811529 7.15233e-05)
(-7.73924e-05 -0.0128112 -0.0154498 -0.0128112 7.39125e-05 -0.00811163 -0.0154498 -0.00811163 7.2422e-05)
(0.000126198 -0.0128245 -0.0154256 -0.0128245 0.000107433 -0.00814719 -0.0154256 -0.00814719 3.14184e-05)
(-2.64905e-05 -0.0128113 -0.0154527 -0.0128113 5.45605e-05 -0.00810501 -0.0154527 -0.00810501 8.52389e-05)
(-0.000200958 -0.0128259 -0.0154636 -0.0128259 0.000105694 -0.00809656 -0.0154636 -0.00809656 8.54189e-05)
(5.06173e-05 -0.0127951 -0.0154282 -0.0127951 2.86046e-05 -0.0081216 -0.0154282 -0.0081216 5.47061e-05)
(2.69834e-05 -0.0127971 -0.0154364 -0.0127971 2.94602e-05 -0.00811993 -0.0154364 -0.00811993 5.86827e-05)
(0.000145862 -0.0128225 -0.0154211 -0.0128225 0.000111291 -0.00815023 -0.0154211 -0.00815023 3.93628e-05)
(0.000113715 -0.0128122 -0.0154205 -0.0128122 8.61163e-05 -0.00814795 -0.0154205 -0.00814795 4.953e-05)
(6.61275e-05 -0.0128031 -0.0154302 -0.0128031 3.62026e-05 -0.00811747 -0.0154302 -0.00811747 0.000110133)
(0.000108188 -0.0128076 -0.0154221 -0.0128076 3.85376e-05 -0.00811701 -0.0154221 -0.00811701 0.000107112)
(-3.27831e-05 -0.0128103 -0.0154504 -0.0128103 6.87725e-05 -0.00811081 -0.0154504 -0.00811081 7.25691e-05)
(5.68204e-05 -0.0127947 -0.015433 -0.0127947 2.834e-05 -0.00812997 -0.015433 -0.00812997 3.39271e-05)
(-2.70085e-05 -0.0128038 -0.0154444 -0.0128038 5.08805e-05 -0.00811475 -0.0154444 -0.00811475 7.04152e-05)
(2.43152e-05 -0.0127979 -0.0154332 -0.0127979 3.7263e-05 -0.00811546 -0.0154332 -0.00811546 7.15313e-05)
(7.28251e-05 -0.0128002 -0.0154244 -0.0128002 4.10063e-05 -0.00814153 -0.0154244 -0.00814153 4.62647e-05)
(4.44188e-05 -0.0127894 -0.015431 -0.0127894 2.18852e-05 -0.00813092 -0.015431 -0.00813092 3.79755e-05)
(-0.000101847 -0.0128167 -0.0154561 -0.0128167 8.15563e-05 -0.00810792 -0.0154561 -0.00810792 7.95105e-05)
(7.26153e-05 -0.0127958 -0.0154125 -0.0127958 3.60764e-05 -0.0081417 -0.0154125 -0.0081417 8.81099e-05)
(9.18609e-05 -0.0128056 -0.0154144 -0.0128056 5.86821e-05 -0.00815348 -0.0154144 -0.00815348 9.61708e-05)
(9.7478e-05 -0.0128007 -0.0154215 -0.0128007 6.13053e-05 -0.00814905 -0.0154215 -0.00814905 6.90701e-05)
(9.42467e-05 -0.0128129 -0.0154273 -0.0128129 8.5116e-05 -0.008146 -0.0154273 -0.008146 3.11593e-05)
(0.000259131 -0.0128391 -0.0154304 -0.0128391 0.000124336 -0.00814545 -0.0154304 -0.00814545 2.91054e-05)
(-7.25637e-05 -0.0128464 -0.0154237 -0.0128464 0.000111937 -0.00811917 -0.0154237 -0.00811917 8.55294e-05)
(8.24385e-05 -0.0128022 -0.0154178 -0.0128022 3.12866e-05 -0.00813511 -0.0154178 -0.00813511 5.86993e-05)
(0.000125571 -0.0128194 -0.0154068 -0.0128194 6.05148e-05 -0.0081483 -0.0154068 -0.0081483 9.49194e-05)
(-4.8602e-05 -0.0128114 -0.0154532 -0.0128114 7.36986e-05 -0.00810427 -0.0154532 -0.00810427 8.31137e-05)
(5.67225e-05 -0.0127933 -0.0154246 -0.0127933 2.40611e-05 -0.00812859 -0.0154246 -0.00812859 7.6181e-05)
(-2.83809e-05 -0.0128101 -0.0154521 -0.0128101 6.75727e-05 -0.00811908 -0.0154521 -0.00811908 6.88667e-05)
(7.06997e-05 -0.012798 -0.0154233 -0.012798 3.3196e-05 -0.00813732 -0.0154233 -0.00813732 5.42329e-05)
(0.000163622 -0.0128089 -0.0154181 -0.0128089 0.000111197 -0.00814946 -0.0154181 -0.00814946 5.16855e-05)
(2.66175e-05 -0.0127902 -0.0154357 -0.0127902 2.16119e-05 -0.00812807 -0.0154357 -0.00812807 4.32186e-05)
(-5.9299e-05 -0.0128121 -0.015453 -0.0128121 8.18241e-05 -0.00810563 -0.015453 -0.00810563 8.32451e-05)
(3.77959e-05 -0.0127964 -0.0154295 -0.0127964 3.42863e-05 -0.00811546 -0.0154295 -0.00811546 7.31456e-05)
(2.01335e-05 -0.0127924 -0.0154287 -0.0127924 2.48518e-05 -0.00811997 -0.0154287 -0.00811997 6.43751e-05)
(6.56666e-05 -0.0127984 -0.0154258 -0.0127984 3.68543e-05 -0.00813838 -0.0154258 -0.00813838 4.5264e-05)
(0.000591374 -0.0128584 -0.0154309 -0.0128584 0.000120379 -0.00814159 -0.0154309 -0.00814159 3.34957e-05)
(0.000128232 -0.012828 -0.0154083 -0.012828 0.000108444 -0.00815359 -0.0154083 -0.00815359 6.92364e-05)
(5.40456e-05 -0.0127933 -0.0154256 -0.0127933 2.75806e-05 -0.00813488 -0.0154256 -0.00813488 5.02048e-05)
(0.000301904 -0.012843 -0.0154287 -0.012843 0.000125305 -0.00814405 -0.0154287 -0.00814405 2.8179e-05)
(-5.07055e-05 -0.0128121 -0.0154532 -0.0128121 7.49254e-05 -0.00811316 -0.0154532 -0.00811316 7.66587e-05)
(-7.53647e-05 -0.0128136 -0.0154503 -0.0128136 6.77279e-05 -0.00811416 -0.0154503 -0.00811416 6.96913e-05)
(0.000134231 -0.0128262 -0.0154291 -0.0128262 0.000111823 -0.0081451 -0.0154291 -0.0081451 2.86015e-05)
(-8.6168e-05 -0.0128161 -0.0154603 -0.0128161 8.01498e-05 -0.00809874 -0.0154603 -0.00809874 9.16797e-05)
(0.000515459 -0.0128653 -0.0152756 -0.0128653 9.5946e-05 -0.00813044 -0.0152756 -0.00813044 0.000109311)
(-0.000120108 -0.0128353 -0.0154403 -0.0128353 0.00011216 -0.00811448 -0.0154403 -0.00811448 7.86714e-05)
(-2.74091e-05 -0.0128074 -0.0154489 -0.0128074 5.21484e-05 -0.00811559 -0.0154489 -0.00811559 6.55904e-05)
(0.000109282 -0.0128076 -0.0154216 -0.0128076 7.32495e-05 -0.00814858 -0.0154216 -0.00814858 5.4329e-05)
(0.000100454 -0.0128057 -0.0154163 -0.0128057 6.36445e-05 -0.00815109 -0.0154163 -0.00815109 7.73232e-05)
(4.26391e-05 -0.0128056 -0.015437 -0.0128056 4.40347e-05 -0.00811728 -0.015437 -0.00811728 0.000121813)
(8.23102e-05 -0.0128109 -0.0154407 -0.0128109 5.61173e-05 -0.00810557 -0.0154407 -0.00810557 0.00010801)
(-9.03624e-06 -0.0128058 -0.0154452 -0.0128058 5.56361e-05 -0.00810975 -0.0154452 -0.00810975 7.49725e-05)
(9.30451e-05 -0.0128074 -0.0154268 -0.0128074 7.66824e-05 -0.008141 -0.0154268 -0.008141 3.22749e-05)
(4.03059e-05 -0.0127934 -0.0154297 -0.0127934 2.38562e-05 -0.00812365 -0.0154297 -0.00812365 5.51489e-05)
(-4.47859e-05 -0.0128073 -0.0154482 -0.0128073 6.25453e-05 -0.00811354 -0.0154482 -0.00811354 7.31154e-05)
(7.66985e-05 -0.0128012 -0.0154254 -0.0128012 4.49876e-05 -0.00814205 -0.0154254 -0.00814205 4.42287e-05)
(3.66406e-05 -0.0127914 -0.0154345 -0.0127914 2.02434e-05 -0.00812941 -0.0154345 -0.00812941 3.61149e-05)
(-7.25143e-05 -0.0128114 -0.0154523 -0.0128114 6.93941e-05 -0.00811009 -0.0154523 -0.00811009 7.76563e-05)
(-0.000143036 -0.0128158 -0.0154612 -0.0128158 8.57717e-05 -0.00809778 -0.0154612 -0.00809778 9.40859e-05)
(0.000146845 -0.0128163 -0.0153947 -0.0128163 0.000112399 -0.00814826 -0.0153947 -0.00814826 0.000104429)
(6.81676e-05 -0.0127953 -0.0154242 -0.0127953 3.93129e-05 -0.00814233 -0.0154242 -0.00814233 6.01937e-05)
(3.95035e-05 -0.0127917 -0.0154303 -0.0127917 2.21136e-05 -0.0081285 -0.0154303 -0.0081285 4.3857e-05)
(8.63028e-05 -0.0128127 -0.0154226 -0.0128127 7.52444e-05 -0.00814973 -0.0154226 -0.00814973 4.64792e-05)
(-0.000109442 -0.01283 -0.0154522 -0.01283 0.00010188 -0.00811367 -0.0154522 -0.00811367 7.83315e-05)
(-0.000111513 -0.0128185 -0.015457 -0.0128185 9.35011e-05 -0.00810286 -0.015457 -0.00810286 8.51033e-05)
(5.24612e-05 -0.0127913 -0.0154148 -0.0127913 3.41774e-05 -0.00811361 -0.0154148 -0.00811361 9.97539e-05)
(0.000111832 -0.0128167 -0.0154118 -0.0128167 9.28951e-05 -0.00815622 -0.0154118 -0.00815622 7.64505e-05)
(5.39489e-05 -0.0127917 -0.0154218 -0.0127917 2.54499e-05 -0.00812974 -0.0154218 -0.00812974 8.61821e-05)
(8.52558e-05 -0.0128049 -0.0154254 -0.0128049 5.76069e-05 -0.00814449 -0.0154254 -0.00814449 4.51572e-05)
(0.00020693 -0.0128277 -0.015417 -0.0128277 0.000126599 -0.00814868 -0.015417 -0.00814868 4.42412e-05)
(0.00013622 -0.0128034 -0.0154158 -0.0128034 9.5098e-05 -0.00815196 -0.0154158 -0.00815196 7.07602e-05)
(0.000133322 -0.0128174 -0.0154279 -0.0128174 0.000107077 -0.0081461 -0.0154279 -0.0081461 3.18556e-05)
(-4.03733e-05 -0.0128127 -0.0154539 -0.0128127 8.453e-05 -0.00810746 -0.0154539 -0.00810746 8.08882e-05)
(4.93613e-05 -0.0127936 -0.0154209 -0.0127936 2.6222e-05 -0.00811812 -0.0154209 -0.00811812 8.20058e-05)
(-3.52686e-05 -0.0128034 -0.015441 -0.0128034 4.92507e-05 -0.00810574 -0.015441 -0.00810574 8.97709e-05)
(-0.00016666 -0.0128281 -0.0154562 -0.0128281 9.40283e-05 -0.00810949 -0.0154562 -0.00810949 7.4946e-05)
(0.000213977 -0.012832 -0.015413 -0.012832 0.000129554 -0.00814676 -0.015413 -0.00814676 4.70372e-05)
(0.000128272 -0.012811 -0.0154054 -0.012811 5.03962e-05 -0.00815087 -0.0154054 -0.00815087 0.000117582)
(3.73367e-05 -0.0127886 -0.0154245 -0.0127886 2.17554e-05 -0.00812888 -0.0154245 -0.00812888 6.31698e-05)
(0.000290008 -0.0128446 -0.0154227 -0.0128446 0.000127082 -0.00814438 -0.0154227 -0.00814438 3.37538e-05)
(6.42442e-05 -0.0127963 -0.0154263 -0.0127963 3.24189e-05 -0.00811744 -0.0154263 -0.00811744 7.5597e-05)
(1.69263e-05 -0.0127927 -0.0154301 -0.0127927 2.50803e-05 -0.00811897 -0.0154301 -0.00811897 6.9076e-05)
(4.03761e-05 -0.012795 -0.0154348 -0.012795 2.11817e-05 -0.00812662 -0.0154348 -0.00812662 4.12968e-05)
(0.000121176 -0.0128103 -0.015408 -0.0128103 4.7877e-05 -0.00814709 -0.015408 -0.00814709 0.000110881)
(0.00040901 -0.0128585 -0.0153174 -0.0128585 0.000100163 -0.00812886 -0.0153174 -0.00812886 0.00010918)
(0.000178772 -0.0128571 -0.0153533 -0.0128571 0.000111584 -0.00812438 -0.0153533 -0.00812438 0.000100306)
(-4.71335e-05 -0.0128116 -0.0154515 -0.0128116 5.48292e-05 -0.00811564 -0.0154515 -0.00811564 6.29568e-05)
(5.63234e-05 -0.0127918 -0.0154252 -0.0127918 2.39915e-05 -0.00813001 -0.0154252 -0.00813001 7.22678e-05)
(7.59733e-05 -0.0127954 -0.0154129 -0.0127954 3.615e-05 -0.00814249 -0.0154129 -0.00814249 0.000110089)
(3.98627e-05 -0.0128013 -0.0154291 -0.0128013 4.21838e-05 -0.00811843 -0.0154291 -0.00811843 0.000122631)
(-4.32521e-05 -0.0128169 -0.0154627 -0.0128169 8.69003e-05 -0.00809643 -0.0154627 -0.00809643 9.14581e-05)
(-3.9376e-05 -0.012811 -0.0154521 -0.012811 6.4036e-05 -0.00810273 -0.0154521 -0.00810273 8.72025e-05)
(7.66864e-05 -0.0128014 -0.015425 -0.0128014 5.37161e-05 -0.00814479 -0.015425 -0.00814479 5.05214e-05)
(6.16348e-05 -0.0127953 -0.0154226 -0.0127953 2.32035e-05 -0.00812884 -0.0154226 -0.00812884 5.47122e-05)
(-0.000108395 -0.0128218 -0.0154555 -0.0128218 9.13718e-05 -0.00811469 -0.0154555 -0.00811469 7.42468e-05)
(7.07882e-05 -0.0127962 -0.0154245 -0.0127962 3.21439e-05 -0.00813692 -0.0154245 -0.00813692 5.65395e-05)
(5.96528e-05 -0.0127973 -0.0154329 -0.0127973 3.43665e-05 -0.00813309 -0.0154329 -0.00813309 2.71705e-05)
(3.86393e-05 -0.0127918 -0.015423 -0.0127918 2.59675e-05 -0.00811978 -0.015423 -0.00811978 7.63115e-05)
(-0.000159773 -0.0128292 -0.0154513 -0.0128292 0.000110252 -0.0080999 -0.0154513 -0.0080999 8.4601e-05)
(0.000134806 -0.01281 -0.0154024 -0.01281 9.83102e-05 -0.00815187 -0.0154024 -0.00815187 0.000108445)
(8.91696e-05 -0.0128029 -0.0154213 -0.0128029 5.03383e-05 -0.00814615 -0.0154213 -0.00814615 6.35178e-05)
(6.73823e-05 -0.012796 -0.0154212 -0.012796 2.89266e-05 -0.00813492 -0.0154212 -0.00813492 6.14014e-05)
(-2.65539e-05 -0.0127962 -0.0154326 -0.0127962 4.716e-05 -0.00811175 -0.0154326 -0.00811175 8.02009e-05)
(4.11915e-05 -0.0127915 -0.0154253 -0.0127915 2.43107e-05 -0.00812398 -0.0154253 -0.00812398 6.07102e-05)
(-9.97875e-05 -0.012811 -0.0154558 -0.012811 8.32638e-05 -0.00810073 -0.0154558 -0.00810073 8.76304e-05)
(6.93634e-07 -0.0127916 -0.0154201 -0.0127916 3.86335e-05 -0.00811408 -0.0154201 -0.00811408 0.000102893)
(7.80356e-05 -0.0127991 -0.0154158 -0.0127991 5.00993e-05 -0.00815165 -0.0154158 -0.00815165 9.12537e-05)
(3.07461e-05 -0.0127897 -0.0154215 -0.0127897 2.56452e-05 -0.00812303 -0.0154215 -0.00812303 8.87603e-05)
(0.000113321 -0.0128119 -0.0154202 -0.0128119 8.89834e-05 -0.00815148 -0.0154202 -0.00815148 5.20747e-05)
(2.76527e-05 -0.0127931 -0.0154277 -0.0127931 2.44138e-05 -0.00811885 -0.0154277 -0.00811885 7.17954e-05)
(3.30461e-05 -0.01279 -0.0154284 -0.01279 2.34463e-05 -0.00812413 -0.0154284 -0.00812413 8.77279e-05)
(8.61543e-05 -0.0128088 -0.015428 -0.0128088 6.7656e-05 -0.0081423 -0.015428 -0.0081423 3.05646e-05)
(3.12717e-05 -0.0127992 -0.0154381 -0.0127992 5.7174e-05 -0.00811138 -0.0154381 -0.00811138 8.07003e-05)
(7.58205e-05 -0.0127965 -0.0154146 -0.0127965 2.84124e-05 -0.00813073 -0.0154146 -0.00813073 0.000100327)
(-7.26214e-05 -0.0128115 -0.0154555 -0.0128115 7.27398e-05 -0.00809782 -0.0154555 -0.00809782 9.40322e-05)
(-0.000180009 -0.0128264 -0.0154575 -0.0128264 9.25663e-05 -0.0081062 -0.0154575 -0.0081062 7.99508e-05)
(-0.000152212 -0.0128191 -0.0154588 -0.0128191 8.74975e-05 -0.00810193 -0.0154588 -0.00810193 8.7504e-05)
(-1.62608e-05 -0.0128127 -0.0154545 -0.0128127 8.03372e-05 -0.00809754 -0.0154545 -0.00809754 9.78904e-05)
(2.02254e-05 -0.0127907 -0.015429 -0.0127907 2.303e-05 -0.00812121 -0.015429 -0.00812121 6.85414e-05)
(7.12495e-05 -0.0127966 -0.0154186 -0.0127966 2.539e-05 -0.00812859 -0.0154186 -0.00812859 7.50066e-05)
(9.18719e-05 -0.0128026 -0.0154188 -0.0128026 2.84584e-05 -0.00813121 -0.0154188 -0.00813121 6.07886e-05)
(6.73685e-05 -0.0127946 -0.0154202 -0.0127946 3.4439e-05 -0.00814086 -0.0154202 -0.00814086 8.41729e-05)
(-5.68794e-05 -0.0128087 -0.0154499 -0.0128087 6.03546e-05 -0.00811365 -0.0154499 -0.00811365 6.91996e-05)
(0.000159305 -0.0128345 -0.0153921 -0.0128345 0.000123487 -0.00814523 -0.0153921 -0.00814523 8.78753e-05)
(8.21037e-05 -0.0128078 -0.0154248 -0.0128078 4.40455e-05 -0.00814008 -0.0154248 -0.00814008 4.32986e-05)
(-0.00016865 -0.0128266 -0.0154561 -0.0128266 9.81093e-05 -0.00810762 -0.0154561 -0.00810762 7.67083e-05)
(-6.33726e-06 -0.0128013 -0.0154439 -0.0128013 3.17211e-05 -0.00811917 -0.0154439 -0.00811917 5.32501e-05)
(9.95115e-06 -0.0127963 -0.015435 -0.0127963 2.89277e-05 -0.00811619 -0.015435 -0.00811619 7.53563e-05)
(1.41223e-05 -0.0127973 -0.0154269 -0.0127973 3.94859e-05 -0.00811189 -0.0154269 -0.00811189 0.00010876)
(4.13665e-05 -0.0127952 -0.0154195 -0.0127952 3.88732e-05 -0.00811393 -0.0154195 -0.00811393 0.000112865)
(-6.02809e-05 -0.0128138 -0.0154565 -0.0128138 9.128e-05 -0.00810124 -0.0154565 -0.00810124 8.74682e-05)
(-9.79145e-05 -0.0128187 -0.0154643 -0.0128187 7.88473e-05 -0.00809695 -0.0154643 -0.00809695 9.3312e-05)
(2.9993e-05 -0.0127901 -0.0154261 -0.0127901 2.21481e-05 -0.00812303 -0.0154261 -0.00812303 8.13271e-05)
(5.47949e-05 -0.0127918 -0.0154211 -0.0127918 2.51862e-05 -0.00812327 -0.0154211 -0.00812327 6.61534e-05)
(-7.07754e-05 -0.012817 -0.0154554 -0.012817 7.78313e-05 -0.00812283 -0.0154554 -0.00812283 6.38631e-05)
(9.74379e-06 -0.0127989 -0.0154394 -0.0127989 2.88768e-05 -0.00811663 -0.0154394 -0.00811663 6.24616e-05)
(4.56306e-05 -0.0127943 -0.0154337 -0.0127943 2.23379e-05 -0.00813075 -0.0154337 -0.00813075 2.92207e-05)
(8.59958e-05 -0.0128036 -0.0154154 -0.0128036 4.02024e-05 -0.00814252 -0.0154154 -0.00814252 6.7918e-05)
(-0.000159592 -0.012832 -0.015444 -0.012832 0.000108085 -0.00810602 -0.015444 -0.00810602 8.56662e-05)
(-2.33644e-05 -0.0128016 -0.0154418 -0.0128016 3.88347e-05 -0.00810795 -0.0154418 -0.00810795 9.78866e-05)
(0.000147549 -0.0128234 -0.0154162 -0.0128234 0.000113037 -0.00815109 -0.0154162 -0.00815109 4.85699e-05)
(5.16194e-05 -0.0127928 -0.0154198 -0.0127928 2.4185e-05 -0.00812036 -0.0154198 -0.00812036 7.2092e-05)
(-8.5313e-05 -0.012806 -0.015447 -0.012806 7.30088e-05 -0.00810491 -0.015447 -0.00810491 8.49707e-05)
(4.01247e-05 -0.0127885 -0.015419 -0.0127885 2.48065e-05 -0.0081268 -0.015419 -0.0081268 6.76256e-05)
(-8.93703e-05 -0.0128086 -0.015452 -0.0128086 8.00186e-05 -0.00810323 -0.015452 -0.00810323 8.6993e-05)
(-1.97658e-05 -0.0127959 -0.0154308 -0.0127959 4.59157e-05 -0.0081089 -0.0154308 -0.0081089 9.8465e-05)
(-7.19075e-05 -0.0128079 -0.0154477 -0.0128079 6.8204e-05 -0.00810871 -0.0154477 -0.00810871 8.15016e-05)
(2.42494e-05 -0.0127916 -0.0154252 -0.0127916 2.74172e-05 -0.00812056 -0.0154252 -0.00812056 9.78351e-05)
(6.38719e-05 -0.0127934 -0.0154199 -0.0127934 2.59261e-05 -0.00813177 -0.0154199 -0.00813177 6.82121e-05)
(-5.08451e-05 -0.0128073 -0.0154476 -0.0128073 6.03875e-05 -0.00811314 -0.0154476 -0.00811314 7.13814e-05)
(-0.000147107 -0.0128243 -0.0154585 -0.0128243 8.1749e-05 -0.0081052 -0.0154585 -0.0081052 7.94658e-05)
(-3.82889e-05 -0.0128117 -0.0154514 -0.0128117 6.47304e-05 -0.0081219 -0.0154514 -0.0081219 5.91967e-05)
(1.56157e-05 -0.0127983 -0.0154339 -0.0127983 5.64736e-05 -0.00810926 -0.0154339 -0.00810926 8.87087e-05)
(9.64297e-05 -0.0128031 -0.0154123 -0.0128031 4.23747e-05 -0.00814586 -0.0154123 -0.00814586 0.000108796)
(-7.01227e-05 -0.0128111 -0.0154554 -0.0128111 7.4615e-05 -0.00809855 -0.0154554 -0.00809855 9.0842e-05)
(2.57007e-05 -0.012788 -0.0154258 -0.012788 2.30226e-05 -0.00812485 -0.0154258 -0.00812485 8.54159e-05)
(-5.70694e-06 -0.0128344 -0.0154196 -0.0128344 0.000109938 -0.00811062 -0.0154196 -0.00811062 8.93912e-05)
(-0.000109113 -0.0128159 -0.0154638 -0.0128159 9.31883e-05 -0.00809587 -0.0154638 -0.00809587 8.81883e-05)
(-8.51567e-05 -0.0128157 -0.0154521 -0.0128157 6.5788e-05 -0.00811343 -0.0154521 -0.00811343 6.63501e-05)
(-0.000108106 -0.0128153 -0.0154552 -0.0128153 8.41709e-05 -0.00810535 -0.0154552 -0.00810535 8.34894e-05)
(8.86786e-05 -0.0128083 -0.015422 -0.0128083 3.99993e-05 -0.00813669 -0.015422 -0.00813669 5.27383e-05)
(5.67775e-05 -0.0127928 -0.0154201 -0.0127928 2.52544e-05 -0.00812918 -0.0154201 -0.00812918 9.02406e-05)
(3.71843e-05 -0.0127872 -0.0154191 -0.0127872 2.59245e-05 -0.0081328 -0.0154191 -0.0081328 8.93791e-05)
(5.09359e-05 -0.0127929 -0.0154183 -0.0127929 2.82708e-05 -0.00811701 -0.0154183 -0.00811701 9.43347e-05)
(0.000203154 -0.0128489 -0.0154211 -0.0128489 0.000130922 -0.00814722 -0.0154211 -0.00814722 3.54929e-05)
(7.83983e-05 -0.0127982 -0.0154162 -0.0127982 4.1492e-05 -0.00814623 -0.0154162 -0.00814623 9.33054e-05)
(6.91538e-05 -0.0127883 -0.0154293 -0.0127883 3.9616e-05 -0.00814049 -0.0154293 -0.00814049 4.60684e-05)
(4.75153e-06 -0.0127972 -0.015436 -0.0127972 3.13048e-05 -0.00811656 -0.015436 -0.00811656 7.06503e-05)
(-4.81431e-05 -0.0128043 -0.0154421 -0.0128043 5.87709e-05 -0.00810469 -0.0154421 -0.00810469 9.46475e-05)
(4.87067e-05 -0.0127894 -0.0154113 -0.0127894 3.05661e-05 -0.0081178 -0.0154113 -0.0081178 9.92151e-05)
(1.29154e-05 -0.0127963 -0.0154336 -0.0127963 5.6982e-05 -0.00810826 -0.0154336 -0.00810826 8.96941e-05)
(-6.17566e-05 -0.0128129 -0.0154577 -0.0128129 6.26321e-05 -0.00809998 -0.0154577 -0.00809998 9.97359e-05)