/*--------------------------------*- C++ -*----------------------------------*\
  =========                 |
  \\      /  F ield         | OpenFOAM: The Open Source CFD Toolbox
   \\    /   O peration     | Website:  https://openfoam.org
    \\  /    A nd           | Version:  10
     \\/     M anipulation  |
\*---------------------------------------------------------------------------*/
FoamFile
{
    format      ascii;
    class       surfaceScalarField;
    location    "17.5";
    object      phi;
}
// * * * * * * * * * * * * * * * * * * * * * * * * * * * * * * * * * * * * * //

dimensions      [0 3 -1 0 0 0 0];

internalField   nonuniform List<scalar> 
74080
(
1.0937e-05
4.68913e-08
-2.65918e-08
1.09474e-05
3.16141e-08
-4.44395e-08
1.09499e-05
3.68989e-08
-3.42246e-08
1.09492e-05
3.68374e-08
-4.44214e-08
1.09562e-05
3.45641e-08
-3.72887e-08
1.09496e-05
4.87037e-08
-5.56661e-08
1.09502e-05
4.22351e-08
-4.02973e-08
1.09516e-05
4.05702e-08
-5.90021e-08
1.09485e-05
4.14719e-08
-3.70109e-08
1.09504e-05
4.29675e-08
-4.82358e-08
1.0945e-05
4.97302e-08
-4.20404e-08
1.09496e-05
4.44075e-08
-4.8465e-08
1.09485e-05
5.05209e-08
-4.51761e-08
1.09436e-05
5.07711e-08
-4.57382e-08
1.09512e-05
4.06802e-08
-3.62516e-08
1.09465e-05
5.11982e-08
-5.10776e-08
1.09438e-05
4.8095e-08
-4.46582e-08
1.09423e-05
5.00305e-08
-5.92423e-08
1.09397e-05
4.33894e-08
-4.74838e-08
1.09375e-05
4.09685e-08
-4.91639e-08
1.09281e-05
4.12676e-08
-4.19192e-08
1.09242e-05
3.73157e-08
-5.69872e-08
1.09167e-05
4.6984e-08
-4.6833e-08
1.09075e-05
4.87638e-08
-6.47793e-08
1.09004e-05
4.06808e-08
-3.66673e-08
1.08927e-05
3.33196e-08
-4.32527e-08
1.089e-05
2.69117e-08
-3.39431e-08
1.088e-05
3.81732e-08
-3.97876e-08
1.0876e-05
3.90021e-08
-3.16586e-08
1.0881e-05
2.89758e-08
-3.47798e-08
1.0868e-05
4.1421e-08
-1.17281e-08
1.08798e-05
9.74234e-09
-1.95536e-08
1.08831e-05
2.71647e-08
-1.05114e-08
1.08835e-05
3.42232e-08
-2.19297e-08
1.08921e-05
3.36974e-08
-1.19662e-08
1.09024e-05
2.84648e-08
-1.68345e-08
1.09115e-05
2.35381e-08
-1.44607e-08
1.09129e-05
3.70344e-08
-1.76687e-08
1.09319e-05
2.19646e-08
-2.67061e-08
4.53194e-08
-3.44929e-08
3.69692e-05
1.6754e-07
-8.51453e-08
3.69956e-05
1.39309e-07
-1.31263e-07
3.70087e-05
1.55652e-07
-1.08081e-07
3.7017e-05
1.56209e-07
-1.4544e-07
3.70303e-05
1.58882e-07
-1.26293e-07
3.70237e-05
1.92749e-07
-1.72904e-07
3.70283e-05
1.7505e-07
-1.32139e-07
3.70283e-05
1.77981e-07
-1.8149e-07
3.70235e-05
1.78104e-07
-1.24293e-07
3.7025e-05
1.85002e-07
-1.64649e-07
3.70173e-05
1.99444e-07
-1.33223e-07
3.70249e-05
1.88276e-07
-1.6207e-07
3.70215e-05
2.0455e-07
-1.38949e-07
3.70179e-05
1.97267e-07
-1.51754e-07
3.70292e-05
1.77437e-07
-1.26983e-07
3.70218e-05
2.01467e-07
-1.67032e-07
3.70189e-05
1.89031e-07
-1.40187e-07
3.70156e-05
1.96771e-07
-1.81025e-07
3.7009e-05
1.73691e-07
-1.42636e-07
3.69997e-05
1.7117e-07
-1.64877e-07
3.69776e-05
1.66696e-07
-1.3914e-07
3.69632e-05
1.62357e-07
-1.78753e-07
3.69393e-05
1.87085e-07
-1.46336e-07
3.69137e-05
1.85345e-07
-1.84556e-07
3.68892e-05
1.60059e-07
-1.12987e-07
3.68624e-05
1.41359e-07
-1.44872e-07
3.68414e-05
1.29997e-07
-1.02793e-07
3.68121e-05
1.55113e-07
-1.21888e-07
3.67975e-05
1.5289e-07
-8.4916e-08
3.67914e-05
1.2898e-07
-9.60266e-08
3.67689e-05
1.49028e-07
-3.69444e-08
3.67837e-05
7.18789e-08
-6.28819e-08
3.67839e-05
1.26679e-07
-2.80713e-08
3.67927e-05
1.34286e-07
-6.34685e-08
3.68146e-05
1.35243e-07
-2.8471e-08
3.68401e-05
1.16889e-07
-5.3835e-08
3.68648e-05
1.13036e-07
-3.9429e-08
3.68846e-05
1.44985e-07
-6.52033e-08
3.69282e-05
1.13711e-07
-7.42228e-08
1.76174e-07
-1.00875e-07
6.99021e-05
3.61146e-07
-1.22479e-07
6.99535e-05
3.22479e-07
-1.98963e-07
6.99921e-05
3.50669e-07
-1.64984e-07
7.00236e-05
3.55095e-07
-2.34379e-07
7.0055e-05
3.71039e-07
-2.076e-07
7.00652e-05
4.29694e-07
-2.89243e-07
7.00824e-05
4.00527e-07
-2.25518e-07
7.00914e-05
4.14791e-07
-3.12082e-07
7.00922e-05
4.13047e-07
-2.23667e-07
7.00983e-05
4.32357e-07
-2.98178e-07
7.00943e-05
4.5312e-07
-2.37631e-07
7.01062e-05
4.39609e-07
-2.96647e-07
7.01068e-05
4.6662e-07
-2.48225e-07
7.01066e-05
4.45054e-07
-2.78905e-07
7.0123e-05
4.18979e-07
-2.32299e-07
7.0121e-05
4.56611e-07
-3.00865e-07
7.01226e-05
4.30404e-07
-2.47268e-07
7.01246e-05
4.45593e-07
-3.17255e-07
7.01199e-05
3.98202e-07
-2.47867e-07
7.0112e-05
3.98549e-07
-2.98084e-07
7.00842e-05
3.88439e-07
-2.50584e-07
7.0065e-05
3.83432e-07
-3.15914e-07
7.00322e-05
4.27063e-07
-2.63462e-07
6.99926e-05
4.21645e-07
-3.26156e-07
6.99493e-05
3.68678e-07
-2.08904e-07
6.98961e-05
3.44443e-07
-2.73984e-07
6.98477e-05
3.26431e-07
-1.9469e-07
6.97893e-05
3.68192e-07
-2.32242e-07
6.97468e-05
3.58856e-07
-1.57855e-07
6.97122e-05
3.20348e-07
-1.8045e-07
6.9664e-05
3.4064e-07
-7.94509e-08
6.96535e-05
2.16401e-07
-1.21221e-07
6.9635e-05
3.07643e-07
-4.91597e-08
6.96339e-05
3.11643e-07
-1.08048e-07
6.96527e-05
3.16298e-07
-4.11194e-08
6.96766e-05
2.76145e-07
-8.4237e-08
6.97096e-05
2.74499e-07
-4.77762e-08
6.97443e-05
3.25458e-07
-1.00773e-07
6.98076e-05
2.78091e-07
-9.57101e-08
3.82992e-07
-1.49338e-07
0.000110442
6.18132e-07
-1.10323e-07
0.000110519
5.63728e-07
-2.13079e-07
0.000110592
5.99324e-07
-1.64956e-07
0.000110663
6.07498e-07
-2.64496e-07
0.000110732
6.39979e-07
-2.34327e-07
0.000110784
7.36096e-07
-3.66321e-07
0.000110836
6.92935e-07
-2.80592e-07
0.000110878
7.2912e-07
-4.18569e-07
0.000110907
7.21576e-07
-3.01853e-07
0.000110935
7.70081e-07
-4.2494e-07
0.000110953
7.94235e-07
-3.35042e-07
0.000110982
7.82967e-07
-4.30928e-07
0.000111
8.29335e-07
-3.65137e-07
0.000111013
7.86699e-07
-4.14607e-07
0.00011104
7.6274e-07
-3.45442e-07
0.000111053
8.17758e-07
-4.50061e-07
0.000111067
7.71608e-07
-3.61657e-07
0.000111084
7.9604e-07
-4.63799e-07
0.000111091
7.15185e-07
-3.56438e-07
0.0001111
7.1969e-07
-4.35259e-07
0.000111081
7.13789e-07
-3.75124e-07
0.000111072
7.03378e-07
-4.62853e-07
0.000111052
7.60382e-07
-3.88616e-07
0.000111014
7.69458e-07
-4.98644e-07
0.000110966
6.68395e-07
-3.19868e-07
0.000110892
6.515e-07
-4.32676e-07
0.000110816
6.27935e-07
-3.23234e-07
0.000110726
6.90311e-07
-3.83134e-07
0.000110642
6.7726e-07
-2.72535e-07
0.000110559
6.2197e-07
-3.07232e-07
0.00011046
6.36107e-07
-1.59408e-07
0.00011039
4.69085e-07
-2.17489e-07
0.000110318
5.89643e-07
-9.53189e-08
0.000110268
5.78376e-07
-1.66622e-07
0.000110248
5.93258e-07
-6.24501e-08
0.000110227
5.24088e-07
-1.15086e-07
0.000110233
5.08303e-07
-3.34701e-08
0.000110257
5.77945e-07
-1.11026e-07
0.000110311
5.13629e-07
-8.22588e-08
6.52816e-07
-1.51293e-07
0.00015916
9.31063e-07
-4.76923e-08
0.000159219
8.56714e-07
-1.64514e-07
0.000159293
8.85883e-07
-9.32706e-08
0.000159386
8.92037e-07
-2.06824e-07
0.000159489
9.18905e-07
-1.5254e-07
0.000159593
1.06117e-06
-3.47238e-07
0.0001597
9.99392e-07
-2.34315e-07
0.000159798
1.08045e-06
-4.47679e-07
0.000159891
1.05093e-06
-2.95831e-07
0.000159971
1.14838e-06
-4.86653e-07
0.000160047
1.17784e-06
-3.74894e-07
0.000160124
1.16027e-06
-5.03946e-07
0.000160192
1.25252e-06
-4.49967e-07
0.000160247
1.18741e-06
-5.23273e-07
0.000160308
1.17289e-06
-4.36341e-07
0.000160355
1.26374e-06
-5.97422e-07
0.000160396
1.19422e-06
-4.73774e-07
0.000160443
1.23441e-06
-6.12974e-07
0.000160469
1.11218e-06
-4.6582e-07
0.000160509
1.10894e-06
-5.54282e-07
0.00016052
1.12036e-06
-4.99296e-07
0.000160536
1.1314e-06
-6.24854e-07
0.000160562
1.15996e-06
-4.97174e-07
0.000160557
1.22424e-06
-6.95399e-07
0.000160538
1.05144e-06
-4.35714e-07
0.000160478
1.0389e-06
-5.93845e-07
0.000160402
1.03021e-06
-4.84764e-07
0.000160306
1.11366e-06
-5.67274e-07
0.000160197
1.1047e-06
-4.34393e-07
0.000160072
1.03642e-06
-4.82051e-07
0.000159922
1.03459e-06
-2.8816e-07
0.000159771
8.35715e-07
-3.70615e-07
0.000159623
9.99764e-07
-2.07884e-07
0.000159479
9.55989e-07
-2.73385e-07
0.000159383
9.71034e-07
-1.14305e-07
0.000159258
8.92391e-07
-1.8834e-07
0.000159162
8.35953e-07
-3.46219e-08
0.000159125
9.0291e-07
-1.08777e-07
0.000159094
8.39674e-07
-7.03532e-08
9.86934e-07
-1.12516e-07
0.000216606
1.30173e-06
1.90234e-08
0.000216544
1.21061e-06
-9.50902e-08
0.000216526
1.22614e-06
4.0335e-09
0.000216544
1.25695e-06
-1.29716e-07
0.000216594
1.22777e-06
8.28403e-09
0.000216685
1.37623e-06
-2.18721e-07
0.000216811
1.25303e-06
-3.00333e-08
0.000216935
1.41849e-06
-3.5758e-07
0.00021709
1.38044e-06
-1.71211e-07
0.000217224
1.51028e-06
-4.17073e-07
0.00021738
1.55226e-06
-2.99084e-07
0.00021754
1.47919e-06
-4.14924e-07
0.000217697
1.64542e-06
-4.11673e-07
0.000217843
1.59554e-06
-5.39895e-07
0.000217984
1.57309e-06
-4.30628e-07
0.000218116
1.71644e-06
-6.67219e-07
0.000218222
1.62563e-06
-5.29018e-07
0.000218332
1.71797e-06
-7.30169e-07
0.000218397
1.56805e-06
-5.75565e-07
0.000218476
1.54811e-06
-6.47507e-07
0.000218545
1.51225e-06
-5.63814e-07
0.0002186
1.63722e-06
-7.94166e-07
0.00021869
1.60609e-06
-5.85191e-07
0.000218748
1.75943e-06
-9.00506e-07
0.000218794
1.5253e-06
-5.74568e-07
0.000218801
1.4455e-06
-7.03024e-07
0.000218778
1.47817e-06
-6.37947e-07
0.000218741
1.60916e-06
-7.56371e-07
0.00021867
1.62121e-06
-6.34214e-07
0.000218548
1.53926e-06
-6.91887e-07
0.00021841
1.49145e-06
-4.42006e-07
0.000218213
1.26089e-06
-5.48006e-07
0.000218033
1.50416e-06
-3.86356e-07
0.000217801
1.49078e-06
-4.8701e-07
0.000217626
1.444e-06
-2.24313e-07
0.000217407
1.35393e-06
-3.14898e-07
0.00021713
1.29446e-06
-1.28335e-07
0.000216993
1.30683e-06
-1.35589e-07
0.000216787
1.29795e-06
-1.47476e-07
1.44094e-06
-1.23075e-07
0.000283233
1.81963e-06
-5.13091e-08
0.000282966
1.60629e-06
-6.80541e-08
0.000282763
1.55077e-06
1.19905e-07
0.000282599
1.75949e-06
-1.54951e-07
0.000282442
1.73177e-06
6.23592e-08
0.000282341
1.82541e-06
-1.67458e-07
0.00028235
1.45034e-06
2.84354e-07
0.000282365
1.6382e-06
-1.07445e-07
0.00028248
1.74233e-06
1.72204e-08
0.000282571
1.93184e-06
-2.76754e-07
0.000282716
1.97965e-06
-1.82016e-07
0.000282903
1.7087e-06
-1.28904e-07
0.000283128
1.85691e-06
-1.19476e-07
0.000283371
1.95054e-06
-3.91471e-07
0.000283597
1.97312e-06
-3.04784e-07
0.000283854
2.13638e-06
-5.89964e-07
0.00028409
1.90953e-06
-3.76767e-07
0.000284327
2.09126e-06
-6.57227e-07
0.000284485
2.00827e-06
-6.12071e-07
0.000284611
2.11454e-06
-7.60967e-07
0.00028476
1.86797e-06
-5.49174e-07
0.000284898
2.0404e-06
-8.44157e-07
0.000285088
1.99118e-06
-5.91309e-07
0.00028523
2.30681e-06
-1.06313e-06
0.000285336
2.16532e-06
-8.35941e-07
0.000285427
1.89373e-06
-7.99905e-07
0.000285509
1.84527e-06
-7.04705e-07
0.000285601
2.03484e-06
-8.51862e-07
0.000285666
2.19255e-06
-8.38657e-07
0.000285593
2.18568e-06
-9.86043e-07
0.000285552
1.99102e-06
-6.2494e-07
0.000285396
1.6417e-06
-6.71294e-07
0.0002853
1.89918e-06
-4.89159e-07
0.000285116
2.10776e-06
-7.74412e-07
0.000284901
2.10757e-06
-5.02916e-07
0.000284729
1.84197e-06
-4.65176e-07
0.000284311
1.78575e-06
-3.03245e-07
0.000284122
1.70399e-06
-1.6435e-07
0.000283786
1.86041e-06
-3.37773e-07
2.16415e-06
-3.75822e-07
0.000358775
2.83364e-06
-5.88947e-07
0.000358315
2.29676e-06
-3.6976e-07
0.00035793
1.67654e-06
3.19163e-07
0.000357647
2.0296e-06
-7.0091e-08
0.000357327
2.43966e-06
-6.80018e-08
0.000356893
2.8244e-06
-6.14377e-07
0.000356592
2.01485e-06
2.61495e-07
0.000356312
1.66291e-06
2.85263e-07
0.000356238
1.85889e-06
3.77426e-07
0.00035617
2.44923e-06
-1.22531e-07
0.000356098
2.80436e-06
-3.76012e-07
0.000356091
2.23848e-06
-4.71173e-08
0.000356172
1.8332e-06
3.92227e-07
0.000356404
1.99421e-06
9.07575e-08
0.000356616
2.38143e-06
-6.44056e-08
0.00035687
2.86921e-06
-6.15466e-07
0.000357161
2.23167e-06
-1.63319e-07
0.000357541
2.11823e-06
-1.62189e-07
0.000357872
2.03963e-06
-2.13274e-07
0.000358075
2.73233e-06
-7.65193e-07
0.000358254
2.58089e-06
-6.98874e-07
0.000358445
2.47515e-06
-8.35625e-07
0.000358803
2.05682e-06
-3.12184e-07
0.00035914
2.45032e-06
-8.00599e-07
0.000359354
2.88419e-06
-1.11617e-06
0.000359458
2.71491e-06
-1.17184e-06
0.000359596
2.32013e-06
-8.56393e-07
0.000359834
2.14279e-06
-7.26614e-07
0.000360183
2.39681e-06
-7.43712e-07
0.000360245
2.97296e-06
-1.32973e-06
0.00036028
2.83834e-06
-1.09387e-06
0.000360182
2.16869e-06
-9.07171e-07
0.000360206
1.96985e-06
-3.57753e-07
0.000360329
2.27274e-06
-7.29567e-07
0.000360183
2.92266e-06
-9.53987e-07
0.00036017
2.64647e-06
-8.55527e-07
0.000359765
2.35965e-06
-6.34564e-07
0.000359621
1.8322e-06
-5.59154e-08
0.000359464
2.02646e-06
-2.34624e-07
3.03876e-06
-8.30486e-07
0.000441569
3.90828e-06
-1.27844e-06
0.00044109
4.05807e-06
-1.65288e-06
0.000440497
2.37378e-06
-5.05763e-08
0.000440104
1.64995e-06
3.81872e-07
0.000439988
2.30413e-06
4.10084e-07
0.000439599
3.98647e-06
-1.24973e-06
0.000439035
3.80429e-06
-8.9188e-07
0.000438326
2.38064e-06
9.97441e-08
0.000437874
1.51025e-06
9.37053e-07
0.000437714
2.2631e-06
6.01897e-07
0.000437496
3.76832e-06
-6.85675e-07
0.000437192
3.90723e-06
-9.05396e-07
0.000436796
2.50569e-06
2.87975e-07
0.000436703
1.57627e-06
8.71039e-07
0.000436775
2.02359e-06
7.63402e-07
0.00043688
3.81893e-06
-7.20645e-07
0.000436931
3.60743e-06
-7.71944e-07
0.00043713
2.61303e-06
2.33391e-08
0.000437544
1.40551e-06
7.64588e-07
0.000437899
2.41738e-06
1.15467e-07
0.000438136
3.49654e-06
-8.11502e-07
0.000438145
3.9105e-06
-1.40485e-06
0.000438425
2.61193e-06
-3.23908e-07
0.000438969
1.82051e-06
1.66112e-07
0.000439541
2.66803e-06
-4.62523e-07
0.000439778
3.70754e-06
-1.51907e-06
0.000439792
3.76556e-06
-1.63826e-06
0.000439915
2.71693e-06
-9.32683e-07
0.000440531
1.76986e-06
-7.82722e-08
0.000441055
2.83655e-06
-9.21085e-07
0.000441296
3.89374e-06
-1.68666e-06
0.000441173
3.67217e-06
-1.87892e-06
0.000440984
2.58205e-06
-6.71107e-07
0.0004414
1.58277e-06
1.37956e-08
0.000441662
2.76751e-06
-7.29278e-07
0.000441951
3.6049e-06
-1.39868e-06
0.00044165
3.80066e-06
-1.64139e-06
0.000441362
2.4254e-06
-4.51572e-07
0.000441464
1.34813e-06
5.06748e-07
2.81536e-06
-4.83231e-07
0.000528236
2.9482e-06
-4.47426e-07
0.000528511
5.7549e-06
-3.1287e-06
0.000528024
4.91864e-06
-1.99638e-06
0.000527195
2.27064e-06
3.99916e-08
0.000526983
9.94893e-07
1.70985e-06
0.000527183
3.28817e-06
-4.8217e-07
0.000527089
5.73897e-06
-2.47098e-06
0.000526385
4.99974e-06
-1.62291e-06
0.000525347
2.31396e-06
5.77831e-07
0.000524835
1.2091e-06
1.98123e-06
0.000524748
3.15231e-06
1.7802e-07
0.000524697
5.73017e-06
-2.00869e-06
0.000524108
5.13954e-06
-1.35892e-06
0.000523395
2.37952e-06
7.77325e-07
0.000523038
7.62383e-07
2.19994e-06
0.000523023
3.24799e-06
2.74782e-07
0.000522923
5.42946e-06
-1.88281e-06
0.000522585
5.08239e-06
-1.36205e-06
0.000522533
1.88383e-06
9.18209e-07
0.000522768
9.40175e-07
1.87072e-06
0.000523274
2.78635e-06
3.35409e-07
0.000523314
5.66643e-06
-2.14897e-06
0.0005231
5.23104e-06
-1.67858e-06
0.000523201
2.31731e-06
4.49023e-07
0.000523933
1.23822e-06
1.28359e-06
0.000524745
3.05086e-06
-4.60294e-07
0.000524977
5.47022e-06
-2.44535e-06
0.0005247
5.27894e-06
-2.27346e-06
0.00052483
2.23488e-06
3.98053e-08
0.000525636
1.3271e-06
6.71028e-07
0.000526612
3.19494e-06
-1.00767e-06
0.000527011
5.32801e-06
-3.02211e-06
0.000526453
5.20082e-06
-2.47609e-06
0.000526304
2.02353e-06
1.02669e-07
0.000526715
1.34122e-06
6.84948e-07
0.000527632
2.83587e-06
-7.44732e-07
0.000527986
5.28678e-06
-2.77484e-06
0.00052754
4.86733e-06
-2.30171e-06
0.000527194
1.76005e-06
5.15301e-07
1.25542e-06
1.05649e-06
0.000615376
4.82156e-07
2.30265e-06
0.000616717
4.804e-06
-2.77326e-06
0.000617374
7.28387e-06
-4.52374e-06
0.000616697
5.03975e-06
-1.97444e-06
0.000615622
1.11644e-06
2.42276e-06
0.00061568
1.00516e-06
2.01057e-06
0.000616373
5.16544e-06
-2.59073e-06
0.000616666
7.50412e-06
-4.05621e-06
0.000615781
5.25097e-06
-1.54567e-06
0.000614531
1.61444e-06
2.76515e-06
0.000614037
1.30994e-06
2.41057e-06
0.000614433
5.27547e-06
-1.71789e-06
0.000614614
7.77173e-06
-3.66029e-06
0.000613863
5.48144e-06
-1.02164e-06
0.000612868
1.06063e-06
3.11075e-06
0.000612507
1.30045e-06
2.69993e-06
0.000612745
5.1537e-06
-1.73088e-06
0.000612479
7.81865e-06
-3.65903e-06
0.000611737
4.90885e-06
-8.07588e-07
0.000611015
9.94807e-07
2.95986e-06
0.00061125
6.30793e-07
2.83644e-06
0.000611956
5.12929e-06
-1.70729e-06
0.000612019
8.09241e-06
-3.82644e-06
0.000611344
5.41902e-06
-1.06464e-06
0.000611023
1.35256e-06
2.58837e-06
0.000611779
9.57186e-07
2.1718e-06
0.000612879
4.88424e-06
-1.92707e-06
0.000613161
7.98331e-06
-4.17017e-06
0.000612625
5.32969e-06
-1.41158e-06
0.000612377
1.36371e-06
2.1591e-06
0.000613297
1.01244e-06
1.53063e-06
0.000614847
4.51829e-06
-2.57218e-06
0.000615205
7.80113e-06
-4.8636e-06
0.00061449
4.9347e-06
-1.66288e-06
0.000613893
1.42108e-06
1.84718e-06
0.000614507
7.54739e-07
1.59618e-06
0.000615785
4.46371e-06
-2.38843e-06
0.00061621
7.22953e-06
-4.66567e-06
0.000615597
4.59856e-06
-1.31999e-06
1.30298e-06
2.19743e-06
0.0007028
-2.76246e-08
5.3069e-06
0.000703721
2.75461e-06
1.9502e-07
0.00070545
7.07276e-06
-5.54557e-06
0.000706198
7.01809e-06
-4.89315e-06
0.00070498
3.00897e-06
1.49297e-06
0.000703925
2.26179e-07
4.99816e-06
0.000704346
3.25155e-06
-2.5271e-07
0.000705549
7.36679e-06
-5.21547e-06
0.000705965
7.40813e-06
-4.74327e-06
0.000704797
3.57313e-06
1.90081e-06
0.000703386
9.88328e-07
4.90236e-06
0.000703287
3.69232e-06
6.20065e-07
0.000704305
7.96371e-06
-4.87928e-06
0.0007046
7.85715e-06
-3.9386e-06
0.000703532
3.21953e-06
2.49671e-06
0.000702335
8.92139e-07
5.52911e-06
0.000702498
3.60926e-06
6.87026e-07
0.000703181
8.03311e-06
-4.98195e-06
0.000703005
7.49967e-06
-3.84126e-06
0.000701577
3.11315e-06
2.30158e-06
0.000700315
2.21269e-07
5.61364e-06
0.000700703
3.41561e-06
7.83601e-07
0.000701912
8.33351e-06
-5.03122e-06
0.000702003
7.94358e-06
-3.97963e-06
0.000700822
3.52416e-06
1.98336e-06
0.000700037
6.03835e-07
5.06057e-06
0.000700786
3.18973e-06
6.06835e-07
0.000702186
8.10893e-06
-5.06364e-06
0.00070257
7.87861e-06
-4.12147e-06
0.000701589
3.45035e-06
1.96383e-06
0.000700918
6.33525e-07
4.5473e-06
0.000702096
2.6634e-06
1.87657e-07
0.000703907
7.74858e-06
-5.74844e-06
0.00070426
7.1741e-06
-4.50883e-06
0.00070314
3.31278e-06
1.32176e-06
0.00070232
3.57408e-07
4.31088e-06
0.000703111
2.70381e-06
1.82227e-07
0.000704577
7.14804e-06
-5.69165e-06
0.000705051
6.80256e-06
-4.26001e-06
3.36625e-06
1.54271e-06
0.000791737
9.61268e-07
6.22007e-06
0.000791255
2.35179e-06
3.95679e-06
0.000792494
6.02849e-06
-3.67861e-06
0.000794231
6.54546e-06
-6.35372e-06
0.000794125
3.70323e-06
-8.38158e-07
0.000792724
8.15846e-07
6.12632e-06
0.000792193
2.58209e-06
3.25292e-06
0.000793038
6.19782e-06
-3.5821e-06
0.000794338
6.92611e-06
-6.48287e-06
0.000794284
4.16802e-06
-4.07281e-07
0.000792849
1.71777e-06
5.74809e-06
0.000791806
3.27631e-06
3.80239e-06
0.000792491
7.07478e-06
-3.43989e-06
0.000793672
7.59472e-06
-5.85521e-06
0.000793511
4.14573e-06
2.8934e-07
0.00079211
1.74701e-06
6.58635e-06
0.000791484
3.24315e-06
4.16397e-06
0.000792297
6.97885e-06
-3.4876e-06
0.000793181
7.35098e-06
-5.77914e-06
0.000792576
4.07199e-06
-2.06263e-08
0.00079067
1.24105e-06
6.50156e-06
0.000789685
3.13724e-06
4.17151e-06
0.000790755
7.47805e-06
-3.5685e-06
0.000792013
7.77182e-06
-5.82662e-06
0.000791654
4.45959e-06
-3.22357e-07
0.000790131
1.60876e-06
5.96841e-06
0.000789479
2.93119e-06
3.86736e-06
0.000790543
7.14673e-06
-3.50459e-06
0.000791984
7.73744e-06
-5.84669e-06
0.000791845
4.32959e-06
7.22871e-08
0.000790429
1.64057e-06
5.66269e-06
0.000790032
2.427e-06
3.62192e-06
0.000791634
6.67269e-06
-3.94346e-06
0.000793183
6.82503e-06
-6.00783e-06
0.000792952
3.99043e-06
-6.48564e-07
0.00079161
1.14972e-06
5.28711e-06
0.000791065
2.45767e-06
3.48447e-06
0.000792169
6.18767e-06
-4.05684e-06
0.000793654
6.4503e-06
-5.93939e-06
4.22565e-06
-6.47652e-07
0.000882276
1.21077e-06
4.78451e-06
0.000881409
2.85581e-06
5.59534e-06
0.000881592
5.54296e-06
-5.97785e-07
0.000882784
5.05031e-06
-4.95251e-06
0.000883388
2.61858e-06
-2.28645e-06
0.000882745
8.11382e-07
4.8941e-06
0.000882075
2.63235e-06
5.03905e-06
0.000882127
5.44509e-06
-5.50655e-07
0.000882996
5.38672e-06
-5.34077e-06
0.000883573
2.95808e-06
-1.91735e-06
0.000883037
1.66007e-06
4.51927e-06
0.000882016
3.46926e-06
5.26788e-06
0.000881919
6.44758e-06
-5.96271e-07
0.000882757
6.1207e-06
-5.02029e-06
0.000883215
3.20513e-06
-1.44859e-06
0.000882583
1.88066e-06
5.19873e-06
0.000881847
3.56702e-06
5.761e-06
0.000882032
6.24493e-06
-5.62627e-07
0.000882825
5.87638e-06
-4.88366e-06
0.000883046
3.14006e-06
-1.75991e-06
0.000882
1.46578e-06
5.11871e-06
0.000880744
3.57515e-06
5.6496e-06
0.000880898
6.94575e-06
-6.60411e-07
0.000881928
6.35695e-06
-4.8106e-06
0.000882362
3.49525e-06
-1.8882e-06
0.000881548
1.80392e-06
4.68119e-06
0.000880563
3.35366e-06
5.32561e-06
0.000880646
6.53489e-06
-6.42076e-07
0.000881732
6.2755e-06
-4.8897e-06
0.000882291
3.28785e-06
-1.36451e-06
0.000881545
1.86277e-06
4.55612e-06
0.00088063
2.98128e-06
5.17777e-06
0.000881109
6.03867e-06
-9.30622e-07
0.000882399
5.31547e-06
-4.81747e-06
0.000882866
2.85021e-06
-1.9181e-06
0.000882233
1.15322e-06
4.24279e-06
0.000881357
2.89831e-06
5.03056e-06
0.000881497
5.73252e-06
-1.12486e-06
0.000882629
4.94981e-06
-4.88657e-06
3.19512e-06
-2.08024e-06
0.000975562
7.18419e-07
2.86022e-06
0.000975322
2.78388e-06
4.75014e-06
0.000975163
4.88443e-06
1.23631e-06
0.000975331
3.75359e-06
-2.47815e-06
0.000975633
1.32529e-06
-1.94924e-06
0.000975676
3.10321e-07
2.9973e-06
0.00097561
2.30992e-06
4.39799e-06
0.000975456
4.60958e-06
1.35271e-06
0.000975494
3.92965e-06
-2.83658e-06
0.000975758
1.54123e-06
-1.725e-06
0.000975895
9.82438e-07
2.7643e-06
0.000975657
3.08239e-06
4.49594e-06
0.000975385
5.58025e-06
1.26369e-06
0.000975414
4.62279e-06
-2.73554e-06
0.000975623
1.8908e-06
-1.46842e-06
0.000975675
1.30005e-06
3.1571e-06
0.000975591
3.32866e-06
4.88457e-06
0.000975505
5.35308e-06
1.28267e-06
0.000975576
4.40011e-06
-2.50965e-06
0.000975681
1.85697e-06
-1.68874e-06
0.00097553
9.45842e-07
3.176e-06
0.000975117
3.31975e-06
4.84285e-06
0.000974984
6.10448e-06
1.24023e-06
0.000975149
4.94912e-06
-2.41069e-06
0.000975394
2.14873e-06
-1.69245e-06
0.00097531
1.24273e-06
2.93599e-06
0.000975018
3.10262e-06
4.58082e-06
0.000974812
5.68721e-06
1.25479e-06
0.000974995
4.73193e-06
-2.57477e-06
0.000975297
1.90485e-06
-1.26675e-06
0.000975262
1.30659e-06
2.84263e-06
0.000974954
2.87919e-06
4.51752e-06
0.000974895
5.22794e-06
1.0312e-06
0.000975252
3.87585e-06
-2.39683e-06
0.000975488
1.49147e-06
-1.62281e-06
0.000975525
4.91715e-07
2.6767e-06
0.00097527
2.73823e-06
4.37454e-06
0.000975071
5.1287e-06
8.47221e-07
0.000975293
3.50306e-06
-2.49856e-06
1.81193e-06
-1.78571e-06
0.00107451
3.7287e-07
1.56387e-06
0.00107477
2.22382e-06
2.97161e-06
0.00107476
3.72575e-06
1.40737e-06
0.00107445
2.62187e-06
-6.89643e-07
0.00107432
6.48598e-07
-9.02734e-07
0.0010745
8.28023e-08
1.67391e-06
0.00107483
1.68006e-06
2.76667e-06
0.00107485
3.43662e-06
1.57389e-06
0.00107454
2.72682e-06
-1.03298e-06
0.00107437
7.30482e-07
-7.38413e-07
0.0010746
5.61148e-07
1.54377e-06
0.00107488
2.31455e-06
2.79802e-06
0.00107484
4.24222e-06
1.5038e-06
0.00107451
3.31181e-06
-9.87514e-07
0.00107434
1.09381e-06
-6.67838e-07
0.00107452
8.37925e-07
1.68047e-06
0.00107489
2.58733e-06
3.07675e-06
0.00107491
4.07635e-06
1.42177e-06
0.00107463
3.14656e-06
-7.18219e-07
0.00107439
1.07412e-06
-7.50131e-07
0.0010745
5.7566e-07
1.86882e-06
0.00107473
2.51951e-06
3.07806e-06
0.00107479
4.71308e-06
1.49499e-06
0.00107453
3.66718e-06
-6.30595e-07
0.00107438
1.30954e-06
-6.97842e-07
0.00107446
8.20657e-07
1.77186e-06
0.0010747
2.32299e-06
2.93355e-06
0.00107468
4.35295e-06
1.5488e-06
0.00107443
3.31616e-06
-7.87657e-07
0.0010743
1.07268e-06
-4.13305e-07
0.00107444
8.46349e-07
1.63721e-06
0.00107467
2.22265e-06
2.95353e-06
0.00107464
4.00677e-06
1.33411e-06
0.00107448
2.63607e-06
-5.85637e-07
0.00107431
7.51525e-07
-7.06141e-07
0.00107448
8.95783e-08
1.55421e-06
0.00107471
2.11375e-06
2.81241e-06
0.00107467
4.05541e-06
1.21135e-06
0.00107442
2.31002e-06
-7.16083e-07
1.05444e-06
-8.10721e-07
0.00118204
3.18888e-07
8.99058e-07
0.00118234
1.65438e-06
1.55646e-06
0.00118247
2.53399e-06
9.11758e-07
0.00118217
1.67082e-06
8.8594e-08
0.00118195
3.91364e-07
-1.46674e-07
0.00118203
1.8438e-07
9.80493e-07
0.00118234
1.16063e-06
1.40028e-06
0.00118247
2.30563e-06
1.08258e-06
0.00118221
1.75292e-06
-2.22853e-07
0.00118195
3.53662e-07
-2.76702e-08
0.00118204
5.04259e-07
8.8641e-07
0.00118236
1.62347e-06
1.40587e-06
0.00118248
2.91061e-06
1.03862e-06
0.00118221
2.18898e-06
-1.91906e-07
0.00118195
6.76243e-07
3.91921e-09
0.00118203
6.7726e-07
8.72206e-07
0.00118239
1.89351e-06
1.60153e-06
0.00118252
2.81886e-06
9.01932e-07
0.00118228
2.10089e-06
1.13235e-07
0.00118198
6.78046e-07
-5.18441e-08
0.00118203
5.1894e-07
1.17569e-06
0.00118233
1.78783e-06
1.62799e-06
0.00118252
3.30296e-06
1.02774e-06
0.0011823
2.52471e-06
1.77081e-07
0.00118206
8.49798e-07
2.0615e-08
0.00118206
6.88259e-07
1.15138e-06
0.00118235
1.57098e-06
1.57905e-06
0.00118247
3.03922e-06
1.13531e-06
0.00118223
2.08163e-06
4.33468e-08
0.00118199
6.32747e-07
2.35802e-07
0.00118204
6.91437e-07
9.62017e-07
0.00118236
1.56336e-06
1.65505e-06
0.00118242
2.77369e-06
9.42837e-07
0.00118223
1.61545e-06
2.34943e-07
0.00118195
4.34574e-07
-7.26728e-09
0.00118202
5.48259e-08
9.40478e-07
0.0011823
1.50896e-06
1.52479e-06
0.00118242
2.90758e-06
8.51187e-07
0.00118215
1.33633e-06
1.23445e-07
7.56666e-07
-9.4263e-08
0.00130016
3.36245e-07
5.55004e-07
0.00130034
1.23973e-06
8.07427e-07
0.00130048
1.62896e-06
5.13603e-07
0.00130028
9.73066e-07
2.96402e-07
0.00130015
2.37325e-07
1.46114e-07
0.00130016
3.21586e-07
6.16366e-07
0.00130033
8.3798e-07
6.56619e-07
0.00130047
1.47293e-06
6.80529e-07
0.00130032
1.04836e-06
3.38149e-08
0.00130013
1.0535e-07
2.46364e-07
0.00130013
5.38224e-07
5.34976e-07
0.00130034
1.13896e-06
6.50461e-07
0.00130047
1.90205e-06
6.48158e-07
0.00130033
1.34054e-06
4.40898e-08
0.00130015
3.85772e-07
2.60373e-07
0.00130014
6.07139e-07
4.53334e-07
0.00130036
1.39552e-06
8.34504e-07
0.00130049
1.85662e-06
5.00922e-07
0.00130038
1.33631e-06
3.34463e-07
0.00130016
4.0133e-07
2.15483e-07
0.00130015
5.27404e-07
8.09931e-07
0.00130032
1.26987e-06
8.44944e-07
0.0013005
2.2047e-06
6.59209e-07
0.00130041
1.64248e-06
3.87607e-07
0.00130024
5.11224e-07
2.87553e-07
0.00130019
6.34515e-07
8.06053e-07
0.00130035
1.02451e-06
8.38318e-07
0.00130048
2.03215e-06
7.81974e-07
0.00130035
1.17052e-06
2.37368e-07
0.00130017
3.5262e-07
4.63531e-07
0.00130016
6.19307e-07
5.91817e-07
0.00130037
1.06799e-06
9.62135e-07
0.00130045
1.83375e-06
5.8105e-07
0.00130035
8.73977e-07
4.51995e-07
0.00130014
2.50124e-07
2.41911e-07
0.00130014
1.21989e-07
5.93674e-07
0.00130029
1.06916e-06
8.28012e-07
0.00130046
1.99323e-06
5.03544e-07
0.00130027
6.57722e-07
3.42964e-07
5.67428e-07
1.76577e-07
0.00143015
3.12531e-07
3.53429e-07
0.00143025
9.17613e-07
4.7969e-07
0.00143037
1.02627e-06
3.08236e-07
0.00143023
5.29344e-07
3.01278e-07
0.00143017
1.21518e-07
1.71087e-07
0.00143017
3.68809e-07
4.03049e-07
0.00143025
6.27392e-07
3.22041e-07
0.00143037
9.11024e-07
4.66007e-07
0.00143027
6.21914e-07
5.773e-08
0.00143015
-7.55836e-08
2.58216e-07
0.00143013
5.37391e-07
3.26251e-07
0.00143025
7.89774e-07
3.0524e-07
0.00143037
1.22156e-06
4.45929e-07
0.00143028
7.86539e-07
4.34551e-08
0.00143016
1.71231e-07
2.82779e-07
0.00143014
5.26868e-07
2.16623e-07
0.00143027
1.03483e-06
5.06762e-07
0.00143037
1.19495e-06
3.03189e-07
0.00143033
8.28935e-07
3.55165e-07
0.00143017
1.93392e-07
2.20652e-07
0.00143016
4.91899e-07
5.85732e-07
0.00143023
9.02583e-07
4.86275e-07
0.00143038
1.43636e-06
4.71987e-07
0.00143035
1.03094e-06
3.96394e-07
0.00143024
2.48606e-07
2.92403e-07
0.00143018
5.57702e-07
5.87636e-07
0.00143027
6.27085e-07
4.97392e-07
0.00143037
1.34059e-06
5.95372e-07
0.0014303
5.68135e-07
2.26694e-07
0.00143018
1.5805e-07
4.69236e-07
0.00143016
5.20587e-07
3.61109e-07
0.00143028
7.0286e-07
6.54641e-07
0.00143036
1.18543e-06
3.78814e-07
0.0014303
3.9515e-07
4.49633e-07
0.00143015
1.13158e-07
2.46712e-07
0.00143014
1.47909e-07
3.78973e-07
0.0014302
7.38699e-07
5.17987e-07
0.00143037
1.33563e-06
3.0102e-07
0.00143022
2.43301e-07
3.60832e-07
4.1486e-07
1.78767e-07
0.00157318
2.58118e-07
2.20937e-07
0.00157324
6.61708e-07
3.13553e-07
0.00157335
6.42478e-07
1.8799e-07
0.00157322
2.80984e-07
2.38368e-07
0.0015732
4.82418e-08
1.23979e-07
0.0015732
3.41442e-07
2.61339e-07
0.00157325
4.8466e-07
1.58684e-07
0.00157335
5.40564e-07
3.38009e-07
0.00157326
3.98593e-07
2.65233e-08
0.00157318
-1.93669e-07
1.98045e-07
0.00157317
4.97991e-07
1.9189e-07
0.00157325
5.25987e-07
1.29419e-07
0.00157335
7.81242e-07
3.323e-07
0.00157328
4.6101e-07
-1.53287e-08
0.00157319
2.8649e-08
2.4437e-07
0.00157317
4.3466e-07
6.92308e-08
0.00157327
7.61569e-07
3.54351e-07
0.00157334
7.6199e-07
1.87897e-07
0.00157333
5.15572e-07
3.04128e-07
0.00157319
6.43488e-08
1.54827e-07
0.0015732
4.10414e-07
4.37788e-07
0.00157324
6.37224e-07
3.01614e-07
0.00157336
9.18432e-07
3.54999e-07
0.00157333
6.45065e-07
3.34126e-07
0.00157326
6.12476e-08
2.23346e-07
0.00157322
4.607e-07
4.4001e-07
0.00157327
3.4018e-07
3.08893e-07
0.00157336
8.84098e-07
4.82681e-07
0.00157328
2.06714e-07
1.4564e-07
0.0015732
3.44987e-08
4.1567e-07
0.0015732
3.95502e-07
2.01025e-07
0.00157327
4.37334e-07
4.97428e-07
0.00157334
7.50733e-07
2.44825e-07
0.00157329
1.29596e-07
3.78316e-07
0.00157317
1.31564e-08
1.85942e-07
0.00157319
1.24542e-07
2.33672e-07
0.00157319
4.93989e-07
3.60001e-07
0.00157336
8.7834e-07
1.59629e-07
0.00157321
2.81997e-08
3.18019e-07
2.8296e-07
1.0749e-07
0.00173052
2.04955e-07
1.35744e-07
0.00173055
4.63386e-07
2.11055e-07
0.00173065
3.97282e-07
9.85232e-08
0.00173053
1.58655e-07
1.64984e-07
0.00173052
1.45347e-08
7.69601e-08
0.00173054
2.81643e-07
1.65475e-07
0.00173056
3.9462e-07
6.6239e-08
0.00173065
2.87775e-07
2.46021e-07
0.00173058
3.05671e-07
-2.09444e-08
0.0017305
-2.50897e-07
1.38544e-07
0.00173052
4.45289e-07
1.03695e-07
0.00173056
3.44128e-07
2.31056e-08
0.00173065
4.91179e-07
2.57843e-07
0.00173059
2.88143e-07
-8.68022e-08
0.00173051
-4.753e-08
2.05759e-07
0.00173051
3.47372e-07
-2.72766e-08
0.00173059
5.57288e-07
2.67993e-07
0.00173063
4.81508e-07
1.05243e-07
0.00173064
3.30299e-07
2.42704e-07
0.00173051
8.60159e-09
9.2474e-08
0.00173055
3.16631e-07
3.32744e-07
0.00173056