# y+ ()       
# Time        	patch         	min           	max           	average       
99            	bottomWall	1.443360e+00	6.289196e+00	3.163718e+00
99            	topWall	1.686855e+00	6.178031e+00	3.119224e+00
