/*--------------------------------*- C++ -*----------------------------------*\
  =========                 |
  \\      /  F ield         | OpenFOAM: The Open Source CFD Toolbox
   \\    /   O peration     | Website:  https://openfoam.org
    \\  /    A nd           | Version:  10
     \\/     M anipulation  |
\*---------------------------------------------------------------------------*/
FoamFile
{
    format      ascii;
    class       volTensorField;
    location    "4";
    object      gradientUWrite;
}
// * * * * * * * * * * * * * * * * * * * * * * * * * * * * * * * * * * * * * //

dimensions      [0 0 -1 0 0 0 0];

internalField   nonuniform List<tensor> 
25600
(
(-0.0186058 -0.0379967 -0.167498 -0.172064 0.00474743 0.0417687 -0.141411 0.0485035 0.0180905)
(-0.0581114 0.035098 -0.160303 -0.0518829 0.0571336 -0.111441 -0.0949872 0.0349482 -0.00398981)
(-0.0392114 0.0792916 -0.0802243 0.0615015 0.0290145 -0.187003 -0.0504337 0.0368456 0.00442161)
(-0.00723505 0.0556036 -0.00268795 0.0838708 -0.0353615 -0.148641 -0.0470351 0.0457049 0.0382683)
(0.0237523 0.0134388 0.0499284 -0.00334653 -0.078888 -0.0387952 -0.07781 0.0219109 0.0636692)
(0.0484621 0.00244656 0.0676944 -0.116866 -0.0755511 0.0512711 -0.137211 0.0265398 0.0246852)
(0.0667854 0.0198154 0.0429275 -0.160386 -0.033127 0.0701416 -0.220933 0.0882842 -0.042483)
(0.102481 0.0304615 0.00757428 -0.0983119 0.00789026 0.0440071 -0.253063 0.172997 -0.119478)
(0.122335 -0.00995275 0.00107586 0.027762 -0.0111498 0.072228 -0.253183 0.207407 -0.128556)
(0.095039 -0.0897477 0.0251365 0.0843157 -0.0697682 0.177306 -0.20905 0.113768 -0.0376108)
(0.0467583 -0.139077 0.0713498 -0.000342101 -0.137585 0.269844 -0.118203 -0.0625732 0.0695326)
(-0.0158395 -0.120263 0.101795 -0.209235 -0.153041 0.271341 -0.0186989 -0.142976 0.163787)
(-0.103879 -0.069377 0.0678986 -0.453127 -0.0848115 0.131637 0.0779057 -0.0192347 0.190227)
(-0.180864 -0.0268633 -0.00410052 -0.622105 0.0303303 -0.060081 0.0981065 0.233642 0.162431)
(-0.215786 -0.034183 -0.0511593 -0.722262 0.102495 -0.159503 0.0265957 0.409728 0.151954)
(-0.174033 -0.0662431 -0.0411748 -0.770521 0.00951214 -0.135406 -0.0764963 0.358367 0.184457)
(-0.0552505 -0.0254495 -0.00883075 -0.716014 -0.181556 -0.0513661 -0.0894773 0.162637 0.256794)
(0.0493386 0.0960947 -0.0128507 -0.54514 -0.330305 0.00321237 0.0637818 -0.0385006 0.297195)
(0.0949448 0.211233 -0.082487 -0.317011 -0.325257 -0.0200551 0.303054 -0.140217 0.243835)
(0.0875677 0.236946 -0.165364 -0.103652 -0.185532 -0.0693713 0.415728 -0.13673 0.123771)
(0.0899863 0.160579 -0.15254 0.0149615 -0.0436161 -0.0772131 0.259303 -0.153556 -0.0112624)
(0.132573 0.0176583 -0.0359665 0.0126523 0.0383614 -0.0383949 -0.0839037 -0.208437 -0.135534)
(0.140594 -0.112381 0.11168 -0.0667934 0.0657017 0.0252963 -0.409639 -0.276559 -0.190853)
(0.0681195 -0.143416 0.197481 -0.14785 0.121119 0.049384 -0.541944 -0.311539 -0.178391)
(-0.0679936 -0.092312 0.168111 -0.152119 0.186655 -0.00182701 -0.477229 -0.24636 -0.141933)
(-0.139254 -0.00493977 0.0754179 -0.0610929 0.231678 -0.0951371 -0.313385 -0.0947624 -0.135089)
(-0.0919762 0.0621183 -0.0174112 0.103259 0.255503 -0.177123 -0.210332 0.0764413 -0.189817)
(-0.0293649 0.0196279 -0.0682918 0.24049 0.217406 -0.170632 -0.260393 0.171766 -0.219589)
(-0.00367685 -0.0727629 -0.080736 0.256372 0.173968 -0.0702396 -0.399024 0.161229 -0.169537)
(-0.04571 -0.105807 -0.0913635 0.148265 0.115327 0.0516154 -0.546943 0.156696 -0.0622775)
(-0.096246 -0.0817736 -0.0937197 -0.0549232 0.0269702 0.109919 -0.585135 0.207717 0.0665853)
(-0.086289 0.00560183 -0.0878438 -0.204178 -0.0430741 0.0556058 -0.490192 0.268267 0.14453)
(-0.0650244 0.120702 -0.0666907 -0.187724 -0.0705253 -0.0773554 -0.391622 0.293854 0.126213)
(-0.0117679 0.160479 -0.0101202 -0.0979821 0.000173134 -0.20248 -0.328994 0.233579 0.000294355)
(0.0614367 0.12553 0.0649523 0.000204843 0.117749 -0.237618 -0.37082 0.119354 -0.163168)
(0.0719963 0.0688355 0.128282 0.0840644 0.162628 -0.176981 -0.476601 0.0288115 -0.238373)
(0.0701587 -0.0069207 0.163298 0.0762678 0.118683 -0.0477837 -0.522903 -0.0207306 -0.190297)
(0.0664796 -0.0811638 0.14943 -0.0185334 0.0195021 0.10284 -0.490783 0.00570461 -0.0668328)
(0.0408984 -0.110522 0.0600759 -0.13135 -0.0814656 0.192183 -0.376097 0.0514366 0.0375026)
(0.026412 -0.0904098 -0.0727441 -0.203727 -0.0841588 0.169159 -0.230103 0.0531169 0.0546033)
(0.0565679 0.128934 -0.24339 -0.158477 0.145031 -0.187518 -0.171757 0.256726 -0.206216)
(0.108136 0.122147 -0.159794 0.0338689 0.199316 -0.0281445 -0.245562 0.20613 -0.315807)
(0.0727802 0.0467003 0.0168438 0.190428 0.106038 0.193688 -0.337407 0.0778743 -0.177673)
(-0.0239018 -0.0347427 0.137695 0.216405 -0.024243 0.322416 -0.468071 -0.0678845 0.0539004)
(-0.0677431 -0.0825301 0.160245 0.141735 -0.127154 0.312363 -0.583442 -0.184752 0.20507)
(-0.00790638 -0.0590217 0.0800903 0.0563728 -0.182199 0.202537 -0.556519 -0.20856 0.174173)
(0.0990676 0.00536651 -0.0469442 -0.000472688 -0.144975 0.0830945 -0.446294 -0.172513 0.0231881)
(0.175529 0.040001 -0.0916943 -0.0601802 -0.0965277 0.0511742 -0.367251 -0.134749 -0.093027)
(0.142471 0.0238195 -0.0281472 -0.168417 -0.104641 0.101355 -0.393585 -0.155573 -0.0648606)
(0.00648618 -0.0300712 0.05914 -0.256186 -0.123223 0.171603 -0.502161 -0.208631 0.103426)
(-0.144225 -0.0659249 0.106492 -0.27038 -0.119344 0.225471 -0.535041 -0.247311 0.260757)
(-0.25054 -0.0381815 0.0750689 -0.252072 -0.0246719 0.228323 -0.386568 -0.196967 0.28426)
(-0.278797 0.00766331 -0.0121333 -0.187608 0.118363 0.191816 -0.0756024 -0.0161216 0.154264)
(-0.233764 0.0214916 -0.074444 -0.0974256 0.195418 0.13015 0.257162 0.181197 0.0319264)
(-0.184274 -0.0700064 -0.0828054 -0.0486281 0.122187 0.0284534 0.415823 0.253531 0.0416719)
(-0.130521 -0.199145 -0.0561959 -0.088768 -0.0675665 -0.0757204 0.338552 0.173656 0.150389)
(-0.0330177 -0.184104 -0.0390961 -0.204305 -0.247666 -0.168805 0.112191 0.0545083 0.258914)
(0.0756335 -0.00101221 -0.0553689 -0.330882 -0.33989 -0.257841 -0.12636 -0.0106927 0.246575)
(0.183075 0.216458 -0.0916624 -0.417283 -0.32007 -0.323578 -0.258135 -0.0176889 0.108959)
(0.264241 0.282034 -0.102741 -0.440182 -0.254699 -0.291758 -0.304969 -0.0399256 -0.0368811)
(0.271993 0.168636 -0.0505538 -0.428513 -0.227161 -0.121632 -0.360328 -0.123961 -0.0782576)
(0.195913 0.00236482 0.0211089 -0.448799 -0.22852 0.0695809 -0.518562 -0.205499 0.00323001)
(0.0438781 -0.0534233 0.0737237 -0.473729 -0.185384 0.164276 -0.782502 -0.198359 0.13795)
(-0.107456 0.0441705 0.0865206 -0.398592 -0.0517858 0.153489 -1.00627 -0.105847 0.185933)
(-0.14155 0.157353 0.0633306 -0.208571 0.0918596 0.0926935 -1.05076 -0.0347829 0.0542805)
(0.0117992 0.193319 0.0548311 0.0565767 0.187009 0.0357605 -0.861359 -0.0489701 -0.187576)
(0.247466 0.11675 0.0460668 0.272744 0.168236 -0.00172351 -0.560943 -0.115306 -0.380623)
(0.335623 -0.0404139 0.0114914 0.325024 0.058012 -0.0309414 -0.38423 -0.212375 -0.38991)
(0.171599 -0.178302 -0.0297218 0.265291 0.0347566 -0.0397507 -0.448367 -0.312133 -0.191927)
(-0.169943 -0.247555 -0.0755888 0.136262 0.0894938 0.00215998 -0.662482 -0.358517 0.0787793)
(-0.42288 -0.234699 -0.110509 -0.0144309 0.137847 0.0730855 -0.808606 -0.330722 0.246946)
(-0.375116 -0.121122 -0.105008 -0.131307 0.113784 0.118843 -0.769261 -0.236648 0.257991)
(-0.161185 0.0744365 -0.0556937 -0.171386 -0.00982842 0.108767 -0.61507 -0.122195 0.160803)
(0.0557151 0.225483 0.0271301 -0.136617 -0.146281 0.0709008 -0.432567 -0.03799 0.0500994)
(0.210029 0.230992 0.103369 -0.0581 -0.238759 0.100355 -0.257337 0.0264428 0.00694855)
(0.196632 0.100792 0.15443 0.0294929 -0.29685 0.198318 -0.156538 0.0298028 0.0748627)
(0.0669602 -0.0994124 0.200597 0.0660257 -0.315885 0.297589 -0.134865 -0.0436319 0.21853)
(-0.0656023 -0.245898 0.172083 -0.0214979 -0.257887 0.284896 -0.176514 -0.0853255 0.328726)
(-0.132215 -0.208707 0.0199901 -0.16844 -0.1454 0.0808228 -0.219096 -0.0152181 0.287834)
(-0.0609566 -0.0146401 -0.158755 -0.238433 -0.00592864 -0.145479 -0.18505 0.145455 0.0712712)
(0.213822 0.147223 -0.0771953 -0.0115928 0.186228 -0.0479927 -0.265302 0.150304 -0.418682)
(0.246062 0.0107129 0.155554 0.0523558 0.121334 0.223503 -0.221737 0.254346 -0.370587)
(0.122198 -0.108881 0.219028 -0.0100864 0.0349605 0.292782 -0.117978 0.25315 -0.157893)
(-0.0490905 -0.145804 0.108398 -0.12045 0.0212827 0.200913 -0.0891019 0.110741 0.0159781)
(-0.117149 -0.12615 -0.0393506 -0.173593 0.0381662 0.064447 -0.167085 -0.102492 0.079628)
(-0.0744778 -0.0179086 -0.121116 -0.124523 0.0502955 -0.0387808 -0.237175 -0.177617 0.0204857)
(-0.0268367 0.0894758 -0.0906449 -0.111728 0.095675 -0.0228009 -0.280314 -0.0319201 -0.076482)
(-0.0300078 0.0647441 0.0136724 -0.240663 0.091995 0.0947444 -0.330197 0.189095 -0.070578)
(-0.0382148 -0.0289965 0.0981872 -0.421329 -0.00856781 0.156432 -0.515662 0.253914 0.0660492)
(0.00251213 -0.0965001 0.131054 -0.495038 -0.129955 0.0939911 -0.869007 0.122048 0.182765)
(0.0327937 -0.0507774 0.121536 -0.403871 -0.170684 0.000277781 -1.16768 -0.0807978 0.190036)
(0.0313837 0.0841332 0.0714818 -0.19898 -0.126262 0.0099057 -1.05303 -0.184064 0.123476)
(0.00832691 0.119965 -0.0207128 -0.00709453 -0.0222273 0.114993 -0.318613 -0.0858372 0.0460005)
(-0.0705379 -0.019297 -0.145837 0.116572 0.108274 0.118352 0.629113 0.100478 -0.000815383)
(-0.205747 -0.255312 -0.224592 0.155387 0.256214 -0.0871394 1.09779 0.247185 -0.0304347)
(-0.299046 -0.384738 -0.20596 0.156451 0.394396 -0.379408 0.844626 0.320625 -0.004814)
(-0.253808 -0.265489 -0.162462 0.256981 0.327582 -0.582298 0.332313 0.302252 0.0721719)
(-0.124711 0.0272783 -0.144941 0.386502 0.0465331 -0.508914 -0.0088191 0.137079 0.170845)
(0.0124113 0.282285 -0.11142 0.354031 -0.201977 -0.22826 -0.189731 -0.117531 0.239206)
(0.0943347 0.318018 0.00763575 0.107376 -0.286815 0.0435586 -0.337281 -0.372707 0.231739)
(0.0994042 0.183 0.156089 -0.231208 -0.26567 0.206696 -0.583809 -0.627372 0.210888)
(0.100876 0.050877 0.206086 -0.482379 -0.258984 0.239646 -0.823605 -0.782213 0.181005)
(0.17339 0.0393982 0.177741 -0.47116 -0.233627 0.236196 -0.846725 -0.744808 0.0750777)
(0.27182 0.103331 0.128084 -0.191191 -0.145171 0.265255 -0.697026 -0.526148 -0.110063)
(0.302401 0.128229 0.061047 0.0898896 -0.0645377 0.303018 -0.488621 -0.228167 -0.271381)
(0.273233 0.0763693 -0.00467478 0.14901 -0.0297843 0.2771 -0.349149 0.00239845 -0.274945)
(0.161297 -0.03978 -0.0668963 -0.0605243 -0.110699 0.102738 -0.328645 0.111197 -0.0885261)
(-0.00233787 -0.0964154 -0.0925381 -0.421746 -0.22662 -0.125973 -0.311075 0.0673804 0.163933)
(-0.144114 -0.056282 -0.0486725 -0.733542 -0.215177 -0.205966 -0.269588 -0.060338 0.323843)
(-0.288747 -0.0332949 0.00355096 -0.874014 -0.122327 -0.102357 -0.317979 -0.166229 0.378707)
(-0.347626 -0.0755607 0.00141924 -0.769459 -0.0519457 0.0530217 -0.458868 -0.211887 0.354538)
(-0.242592 -0.128268 -0.0598444 -0.52564 -0.0613471 0.151505 -0.565335 -0.188081 0.291318)
(-0.0781707 -0.0989589 -0.105408 -0.312368 -0.146439 0.212504 -0.569175 -0.109702 0.217371)
(0.0882228 -0.0232658 -0.0137012 -0.207501 -0.26613 0.290903 -0.488282 -0.0262858 0.152314)
(0.212568 0.0103846 0.174006 -0.257982 -0.360348 0.352572 -0.38753 0.00099723 0.164668)
(0.186166 0.00784737 0.29406 -0.400353 -0.346873 0.276304 -0.318777 -0.0546306 0.193858)
(0.0276243 0.0169446 0.238417 -0.535401 -0.210123 0.038054 -0.287572 -0.0898929 0.176575)
(-0.139779 0.0450897 -0.0280896 -0.586624 -0.0202397 -0.277702 -0.292352 -0.0329174 0.136921)
(-0.154569 0.0892822 -0.300116 -0.472532 0.129695 -0.487305 -0.272351 0.0152416 -0.0121396)
(0.0267178 0.157091 -0.302876 -0.22326 0.190172 -0.379982 -0.252737 0.0445648 -0.250772)
(0.278437 0.0787566 0.226208 -0.160191 -0.147731 0.519401 0.0457061 0.399092 -0.160855)
(0.121817 -0.00190811 0.125526 -0.0842153 -0.0847027 0.406965 0.340295 0.433133 -0.0977959)
(-0.0528633 -0.0428003 0.0182232 -0.0242356 0.113837 0.126271 0.603849 0.29927 -0.114101)
(-0.149328 -0.0424312 -0.0369271 -0.0938571 0.280205 0.000327899 0.621128 0.0695769 -0.153296)
(-0.0753047 -0.0646487 -0.0384229 -0.169728 0.255646 0.0244844 0.332265 -0.143134 -0.156284)
(0.0326281 -0.0119725 -0.0039182 -0.119683 0.113494 0.0469282 -0.195257 -0.187835 -0.0885651)
(0.000150663 0.0444211 0.0496374 -0.0201696 -0.037925 0.0695271 -0.813574 -0.130665 0.0712252)
(-0.076326 -0.0362528 0.0528692 0.0512766 -0.113978 0.129862 -1.10976 -0.104574 0.179032)
(-0.0655327 -0.148134 -0.0172225 0.119317 -0.113784 0.180061 -0.875381 -0.106799 0.148384)
(0.0192721 -0.158203 -0.0519168 0.14981 -0.0964414 0.126011 -0.429827 -0.0752779 0.0366518)
(0.0948368 -0.061766 0.0445361 0.164998 -0.0295606 -0.0481059 -0.210659 -0.151564 -0.10384)
(0.0739145 0.0847468 0.161134 0.16774 0.0152692 -0.193002 -0.106095 -0.384999 -0.145666)
(-0.0150399 0.194506 0.0687564 0.0155368 0.00698278 -0.212932 0.144341 -0.474113 -0.0489168)
(-0.0965526 0.227473 -0.233163 -0.220433 -0.0348917 -0.181411 0.370523 -0.189646 0.0717669)
(-0.156195 0.128614 -0.470562 -0.391284 -0.0575772 -0.195165 0.221513 0.321846 0.140884)
(-0.0693414 -0.16228 -0.44272 -0.294602 0.0275131 -0.314863 -0.25226 0.748841 -0.0221157)
(0.120148 -0.45348 -0.147849 0.0271371 0.175466 -0.476684 -0.639727 1.01596 -0.328467)
(0.130497 -0.397246 0.203106 0.331604 0.288487 -0.401689 -0.664096 1.01378 -0.414796)
(-0.042657 -0.0285966 0.322604 0.452662 0.272842 -0.0850841 -0.487292 0.58665 -0.234577)
(-0.191954 0.237341 0.234862 0.312803 0.198007 0.204543 -0.434701 -0.0716781 -0.0580199)
(-0.187846 0.190902 0.115915 0.0983162 0.145029 0.309743 -0.493697 -0.697493 -0.0233857)
(0.00656194 0.0309088 0.0601517 -0.0754717 0.0197398 0.255549 -0.455368 -1.04588 -0.0931833)
(0.27495 0.0407322 0.102472 -0.18109 -0.138028 0.23204 -0.402164 -0.958189 -0.151303)
(0.349567 0.176892 0.140624 -0.283556 -0.255466 0.248512 -0.498938 -0.491077 -0.121227)
(0.155036 0.2416 0.0720432 -0.403451 -0.313388 0.204232 -0.601918 0.0854608 0.0590277)
(-0.0776951 0.147917 -0.101412 -0.487228 -0.262951 0.0701497 -0.533816 0.299291 0.301001)
(-0.190204 -0.0457243 -0.26776 -0.533762 -0.161912 -0.143212 -0.295292 0.0313965 0.357145)
(-0.201964 -0.12419 -0.230454 -0.496338 -0.0623591 -0.219409 -0.161622 -0.27611 0.249582)
(-0.197719 -0.08866 -0.01366 -0.40001 -0.00389042 -0.0441326 -0.25582 -0.310745 0.1806)
(-0.207799 -0.105137 0.126652 -0.295346 0.00217798 0.184794 -0.42905 -0.159565 0.161445)
(-0.153677 -0.1743 0.0908537 -0.169324 -0.109621 0.28047 -0.521358 -0.0532583 0.191936)
(-0.0188284 -0.192934 0.0192058 -0.0486515 -0.277049 0.181042 -0.552454 -0.0404076 0.248981)
(0.0859547 -0.0955568 0.044764 0.0380454 -0.337226 -0.000733293 -0.586617 -0.0213367 0.234276)
(0.0996298 0.0417622 0.1289 0.0750736 -0.275983 -0.10932 -0.546434 -0.0275853 0.15252)
(0.0650241 0.150117 0.0987997 0.0275646 -0.124006 -0.1683 -0.29498 0.00986942 0.0585519)
(-0.0132428 0.20547 -0.0697301 -0.188245 0.0494594 -0.285463 0.0565341 0.137498 -0.0292021)
(-0.076897 0.157157 -0.213181 -0.468506 0.150057 -0.470883 0.189559 0.177594 -0.0857659)
(-0.0250035 0.0364862 -0.24177 -0.537195 0.148115 -0.546596 0.116387 0.1359 -0.152219)
(0.139398 -0.0231409 -0.0861548 -0.391875 0.0713499 -0.296546 -0.0591184 0.125082 -0.235702)
(0.294149 0.0435562 0.158978 -0.236936 -0.0647045 0.202971 -0.13616 0.226359 -0.241424)
(0.32425 0.127305 0.0900554 -0.19058 -0.225086 0.126112 0.77675 0.219641 -0.124788)
(0.327833 0.188631 -0.116309 -0.0451652 0.0138881 -0.062217 0.963962 0.135846 -0.307868)
(0.0996731 0.146941 -0.0776169 0.0760822 0.298105 0.0755932 0.753906 0.124231 -0.308231)
(-0.157811 -0.0393198 0.0254968 0.0356364 0.311636 0.296601 0.492227 0.120425 -0.0976608)
(-0.131023 -0.234684 -0.00736418 0.00471212 0.18362 0.202309 0.427828 0.199063 -0.0304847)
(0.0376512 -0.218343 -0.0796196 -0.0164465 0.0562424 -0.134251 0.330996 0.418502 -0.0707384)
(0.092655 -0.0703473 -0.0211084 -0.0762446 -0.154801 -0.316171 0.0205233 0.504708 0.0385518)
(0.0612695 0.00362502 0.0929083 -0.125331 -0.311706 -0.206052 -0.253831 0.27343 0.229534)
(0.0267549 -0.0278282 0.085052 -0.117453 -0.298471 -0.0180141 -0.150234 -0.0507359 0.284382)
(0.0353097 -0.0444547 -0.0417904 0.00480455 -0.151938 0.000275801 0.213623 -0.182218 0.131427)
(0.050712 0.0246987 -0.10386 0.214713 0.056658 -0.172548 0.284377 -0.145965 -0.130525)
(-0.0670669 0.109206 -0.0332008 0.259185 0.162632 -0.340186 -0.0491268 -0.0718494 -0.166454)
(-0.259537 0.0924059 -0.00463916 -0.0905935 0.108116 -0.346627 -0.369519 -0.00641829 0.0914444)
(-0.351409 -0.0410466 -0.141618 -0.617615 -0.0774093 -0.245071 -0.292341 0.0330906 0.428152)
(-0.252015 -0.177666 -0.338327 -0.959439 -0.286646 -0.128563 0.173867 -0.0536667 0.63293)
(0.00829474 -0.204964 -0.420221 -1.00888 -0.352785 -0.0084405 0.620265 -0.191367 0.485674)
(0.208901 -0.10393 -0.220572 -0.92787 -0.166541 0.0799938 0.570759 -0.0523419 -0.00519803)
(0.189813 0.0553241 0.154803 -0.724879 0.166748 0.0829527 0.278287 0.335087 -0.400257)
(-0.00546837 0.192064 0.343079 -0.355439 0.365374 -0.000812498 0.130151 0.544329 -0.411081)
(-0.174288 0.22318 0.298599 0.0356337 0.448568 -0.0717446 -0.154357 0.34375 -0.293468)
(-0.192534 0.0616795 0.187353 0.314268 0.462533 -0.00445832 -0.536514 -0.10151 -0.243595)
(-0.0989819 -0.144717 0.139617 0.276703 0.373088 0.12271 -0.666507 -0.411196 -0.226071)
(0.0401766 -0.148883 0.166076 -0.0829457 0.22231 0.149978 -0.541876 -0.452945 -0.189514)
(0.126667 -0.0100267 0.110187 -0.571654 -0.0141827 0.0170413 -0.304979 -0.410965 -0.0724605)
(0.149565 0.133417 -0.0600574 -0.887139 -0.285729 -0.204918 0.0175107 -0.31078 0.136835)
(0.152101 0.186576 -0.25133 -0.760464 -0.449287 -0.434458 0.292903 -0.155414 0.269871)
(0.123086 0.0970022 -0.283396 -0.334013 -0.343046 -0.541574 0.162969 0.00561124 0.168627)
(0.0710678 0.00923785 -0.037255 0.107222 -0.00122839 -0.336379 -0.416152 0.147367 -0.0635334)
(-0.0113929 -0.0150459 0.231225 0.457892 0.337281 0.01375 -0.903724 0.159191 -0.273221)
(-0.123459 -0.112212 0.236968 0.85886 0.481217 0.249435 -0.960103 0.00584758 -0.302428)
(-0.1611 -0.275698 0.00698573 1.19625 0.307563 0.301819 -0.745645 -0.276852 -0.0497393)
(-0.0802745 -0.289965 -0.245162 1.0539 0.0407518 0.159145 -0.48924 -0.305024 0.121292)
(0.0214596 -0.0979196 -0.290526 0.600714 -0.0368435 -0.0768467 -0.217947 0.0496998 0.028401)
(0.0820853 0.128617 -0.115443 0.30096 0.0272682 -0.283589 -0.0068156 0.290827 -0.148069)
(0.0188818 0.245889 0.0465797 0.167404 0.156995 -0.431239 0.054864 0.251197 -0.195712)
(-0.171577 0.213445 0.0538231 -0.00171053 0.281371 -0.46773 -0.072641 0.0892505 -0.141111)
(-0.22077 0.0972372 0.0185692 -0.152664 0.2922 -0.341018 -0.296898 -0.0517976 -0.160749)
(-0.0768772 -0.00957509 0.0718219 -0.179562 0.173534 -0.0538024 -0.38791 -0.00161763 -0.161413)
(0.0777248 -0.0666377 0.232492 -0.186554 0.0120122 0.254328 -0.237535 0.144646 -0.121347)
(0.209653 -0.00321682 0.297724 -0.214605 -0.178048 0.339424 0.231621 0.238899 -0.082166)
(0.388049 0.202618 -0.036124 0.0509802 -0.108243 -0.807632 0.55811 0.88568 -0.308059)
(0.306505 0.341013 0.0720894 -0.324104 -0.21979 -0.413156 0.0455878 0.636781 -0.158421)
(0.0112961 0.159752 0.232803 -0.431406 -0.303066 0.173435 -0.318424 0.124855 0.203073)
(-0.194515 -0.113394 0.0476081 -0.0615243 -0.187574 0.225944 0.0990942 -0.0682347 0.292703)
(-0.112785 -0.239051 -0.303723 0.574718 0.0551822 -0.168389 0.824741 0.171097 0.0571192)
(-0.0172955 -0.241349 -0.333462 0.745895 0.107258 -0.447864 1.04241 0.455751 -0.0080738)
(-0.0591954 -0.194998 -0.0014808 0.241166 -0.0813502 -0.406754 0.609988 0.469411 0.215888)
(-0.0894541 -0.122033 0.242058 -0.430713 -0.1632 -0.27936 -0.127305 0.125352 0.319521)
(0.0238478 -0.0377642 0.120482 -0.73913 -0.0377579 -0.280026 -0.51554 -0.204595 0.0485288)
(0.227443 0.0731461 -0.147164 -0.701081 0.10311 -0.343531 -0.308014 -0.194996 -0.341953)
(0.249128 0.141861 -0.180837 -0.6558 0.112924 -0.279623 -0.156369 0.0243558 -0.344217)
(-0.128907 0.118995 0.0351239 -0.884784 0.0250924 -0.199899 -0.558385 0.222185 0.145284)
(-0.582926 0.0358375 0.121272 -1.20602 0.00395686 -0.258732 -1.1265 0.150368 0.617624)
(-0.660431 -0.0426183 -0.0891308 -1.26599 0.0994472 -0.349327 -1.03647 -0.0594225 0.569207)
(-0.408399 -0.0706176 -0.311275 -1.13794 0.24346 -0.277959 -0.24751 -0.0440819 0.132008)
(-0.0426332 -0.0914201 -0.310885 -0.984569 0.344076 0.0602839 0.387927 0.214067 -0.382159)
(0.304957 -0.0983699 -0.0975886 -0.785813 0.355473 0.438645 0.283414 0.510284 -0.770189)
(0.492124 -0.0250598 0.148426 -0.570194 0.293319 0.411144 -0.136118 0.580527 -0.900548)
(0.434004 0.166857 0.228196 -0.282237 0.18712 0.0059601 -0.348228 0.40971 -0.737093)
(0.226421 0.296517 0.238391 0.250566 0.0598253 -0.213425 -0.401178 0.124254 -0.3356)
(-0.0382512 0.132175 0.243425 0.679238 -0.0539431 0.0208273 -0.388804 -0.259194 0.0941765)
(-0.250231 -0.134561 0.163488 0.771206 -0.0219092 0.348347 -0.194706 -0.452213 0.242241)
(-0.274351 -0.21752 0.0424981 0.710986 0.187271 0.262175 0.205382 -0.253075 0.00562993)
(-0.171171 -0.156272 -0.0830013 0.286992 0.306413 -0.226934 0.4518 0.106009 -0.229098)
(0.0370387 -0.0390125 -0.220948 -0.590768 0.128217 -0.722143 0.385315 0.363911 -0.207174)
(0.287427 0.115765 -0.324555 -1.4084 -0.232397 -0.935633 0.0564234 0.441936 -0.100025)
(0.378268 0.246092 -0.208146 -1.61134 -0.424622 -0.804716 -0.347795 0.374724 -0.0509351)
(0.315686 0.311325 0.132706 -1.15352 -0.21764 -0.484259 -0.379927 0.372979 -0.220695)
(0.286985 0.218269 0.373176 -0.281815 0.115138 -0.266165 -0.0700414 0.385026 -0.510425)
(0.259364 -0.124275 0.315956 0.744792 0.189045 -0.223905 0.103596 0.0800598 -0.563092)
(-0.0329751 -0.457631 0.027036 1.36629 0.265298 -0.192024 -0.454699 -0.412592 -0.294319)
(-0.395029 -0.41609 -0.240491 1.1411 0.525733 -0.0812405 -1.31218 -0.555538 -0.171525)
(-0.388479 -0.104163 -0.261255 0.498811 0.637116 -0.029018 -1.35522 -0.379681 -0.340975)
(-0.171621 0.170291 -0.11387 0.00643635 0.572758 -0.0528535 -0.676617 -0.188957 -0.500827)
(-0.12753 0.316961 -0.0205443 -0.27124 0.544042 -0.0651166 -0.0194635 -0.0276396 -0.448413)
(-0.226828 0.290336 -0.00234549 -0.264255 0.578463 -0.0134834 0.150295 0.0649381 -0.36912)
(-0.200664 0.0845986 0.0654937 0.0832514 0.452578 0.0676947 -0.117556 -0.0255 -0.290014)
(-0.0508125 -0.142069 0.157249 0.363694 0.1857 -5.79605e-05 -0.311969 -0.12281 -0.131725)
(0.11198 -0.245893 0.187541 0.45133 -0.0112376 -0.259218 -0.0911474 0.0952168 -0.078808)
(0.283957 -0.108248 0.0918084 0.386734 -0.0772814 -0.626321 0.420063 0.577416 -0.183394)
(-0.0720714 0.0535377 0.199166 -0.575053 -0.0267545 -0.0478532 0.273895 0.778669 0.110351)
(0.0530049 0.09228 0.455823 -0.785354 -0.274045 0.0194328 -0.329252 0.531316 0.246475)
(0.240177 0.166331 0.312163 -0.805947 -0.452319 -0.194337 -0.329523 0.303937 0.22036)
(0.40802 0.156605 -0.165864 -0.314879 -0.395695 -0.538115 0.512798 0.351947 0.0013117)
(0.327398 -0.0682928 -0.415499 0.485235 -0.120284 -0.440175 1.51695 0.336974 -0.101528)
(-0.156039 -0.297673 -0.237555 1.0377 0.144432 -0.0520714 1.72033 0.157199 0.103463)
(-0.586772 -0.234686 0.0760003 0.92333 0.236501 0.0279324 0.864013 0.146031 0.299782)
(-0.507 0.0168549 0.178166 0.351152 0.23898 -0.243196 -0.413998 0.203522 0.220747)
(-0.126458 0.121921 0.051973 -0.0263945 0.300708 -0.392699 -1.16493 0.0517713 -0.160752)
(0.0999274 0.0514844 -0.0511477 -0.081442 0.253141 -0.167587 -1.01962 -0.202007 -0.314948)
(-0.0351613 -0.00877894 -0.0296089 -0.239722 -0.0312807 0.153307 -0.601927 -0.350524 0.0878389)
(-0.383955 0.0484533 -0.0151672 -0.751762 -0.282169 0.02789 -0.468497 -0.320901 0.663258)
(-0.504604 0.129323 -0.0777179 -1.05055 -0.303744 -0.438246 -0.460516 -0.253274 0.814771)
(-0.341003 0.0942988 -0.14772 -0.79184 -0.0981485 -0.541403 -0.35128 -0.18065 0.447872)
(-0.107039 -0.0295411 -0.104146 -0.297434 0.0766525 -0.048077 -0.124782 -0.122926 -0.0188877)
(0.20286 -0.13127 -0.00488877 0.21607 0.158146 0.60668 0.177302 -0.0349935 -0.469079)
(0.452053 -0.132137 -0.0109013 0.518574 0.174276 0.945138 0.425661 0.167345 -0.718289)
(0.502188 -0.0472261 -0.090549 0.298112 0.14962 0.685423 0.268715 0.358192 -0.690849)
(0.498817 0.057682 -0.0206934 -0.274921 0.115736 0.127609 -0.578676 0.322852 -0.554454)
(0.406074 0.0934807 0.301533 -0.600102 0.0369087 -0.0683454 -1.47414 -0.023226 -0.316395)
(0.116029 0.0218545 0.510251 -0.606495 0.086085 0.114947 -1.5035 -0.318111 -0.148372)
(-0.09478 -0.00733678 0.278321 -0.293234 0.180481 0.314437 -0.528886 -0.320776 -0.0873802)
(-0.262356 0.0306075 -0.170605 0.108486 0.220054 0.343579 0.786213 -0.189046 0.131277)
(-0.636836 -0.0567371 -0.46422 0.00139886 0.231802 0.115991 1.54383 -0.0880818 0.485057)
(-0.819763 -0.187076 -0.475608 -0.668425 0.141473 -0.250401 1.40705 0.0398851 0.72027)
(-0.412933 -0.13261 -0.304703 -1.59092 -0.245412 -0.408552 0.405202 0.085064 0.727161)
(0.290486 0.118912 -0.0212061 -2.17636 -0.627557 -0.247817 -0.70511 -0.23168 0.507326)
(0.84544 0.342063 0.282867 -2.06292 -0.647593 -0.182112 -0.883445 -0.610046 -0.0510532)
(1.08963 0.236241 0.391421 -1.33539 -0.619185 -0.326679 -0.0942934 -0.670762 -0.58753)
(0.843709 -0.0283631 0.286095 -0.660189 -0.594222 -0.453385 0.633279 -0.515446 -0.578011)
(0.074746 -0.101781 0.0895157 -0.31795 -0.193292 -0.39639 0.322057 -0.30126 -0.152772)
(-0.599646 -0.0910987 -0.152524 0.0623188 0.362854 -0.17641 -0.345634 -0.2072 0.110327)
(-0.657713 -0.071885 -0.271805 0.354265 0.635806 0.00828931 -0.617222 -0.172927 -0.0698996)
(-0.376615 0.0797554 -0.135722 0.302856 0.6975 0.120491 -0.637409 -0.0248782 -0.37005)
(-0.147568 0.255581 0.0627457 0.102279 0.665377 0.204046 -0.437571 0.13851 -0.47938)
(0.0239345 0.168698 0.123846 0.15201 0.445994 0.150416 -0.149607 0.142515 -0.470075)
(0.136293 -0.126101 0.0304326 0.465791 0.101036 -0.0016875 0.166238 -0.0328589 -0.280953)
(0.133718 -0.284011 -0.105343 0.490938 -0.0505702 -0.198109 0.446564 -0.0462279 -0.0555653)
(0.0938744 -0.231714 -0.125878 0.217453 -0.0176023 -0.223346 0.675387 0.265697 -0.0599941)
(-0.0100681 -0.0676477 -0.0312479 -0.198275 0.046566 -0.113709 0.728761 0.638658 -0.0479952)
(0.0442909 0.0241834 0.0537467 -0.6019 0.183348 0.549346 0.517002 0.642439 -0.264839)
(0.164709 0.099542 0.0316667 -0.562316 0.260417 0.138366 0.51875 0.41091 -0.473205)
(0.274056 0.0977924 -0.0466956 -0.9677 0.19044 -0.297037 0.437825 0.0912798 -0.526704)
(0.52428 0.0819147 -0.0982314 -1.33417 -0.153499 -0.373934 0.496818 -0.0469136 -0.491147)
(0.622816 0.0542405 -0.0639446 -1.1331 -0.395384 0.073082 1.0967 0.196619 -0.273676)
(0.195372 -0.0629972 -0.0840147 -0.260882 -0.172497 0.390376 1.85604 0.650418 0.0590428)
(-0.460242 -0.149988 -0.0927179 0.653299 0.329804 0.087873 1.83854 0.920985 0.136363)
(-0.615828 -0.0763811 0.0199381 1.06321 0.571706 -0.428154 1.06307 0.800824 -0.081188)
(-0.212285 -0.015956 0.153131 1.15234 0.483839 -0.714072 0.310139 0.377727 -0.363035)
(0.10614 -0.0995482 0.142352 1.16029 0.256943 -0.655153 0.232661 -0.0692613 -0.398533)
(-0.121442 -0.147124 -0.0665569 0.821233 0.0353176 -0.477445 0.683194 -0.376792 0.0449182)
(-0.569074 -0.0275353 -0.273655 0.295619 -0.131933 -0.412339 1.06996 -0.521007 0.601991)
(-0.596411 0.138973 -0.189586 0.146372 -0.238517 -0.306142 0.897612 -0.52724 0.706153)
(-0.244085 0.165454 0.106183 0.220367 -0.281103 0.0350615 0.0288498 -0.412274 0.438595)
(0.137329 0.0649175 0.297964 0.345382 -0.27443 0.533508 -0.753534 -0.282017 0.0749058)
(0.399327 -0.0448427 0.227708 0.622124 -0.0957143 0.798748 -0.814577 -0.0107792 -0.353116)
(0.360527 -0.105826 -0.0492101 0.763814 0.0900989 0.68376 -0.318896 0.351789 -0.447491)
(0.0849877 -0.0571799 -0.293724 0.45055 0.176317 0.505969 0.0470623 0.465408 -0.265764)
(-0.0220041 0.0989641 -0.182067 -0.292905 0.231056 0.440727 -0.246926 0.226891 -0.177046)
(0.0722529 0.2628 0.237624 -1.25296 0.128429 0.408997 -0.936135 -0.121609 -0.182894)
(0.133589 0.195972 0.464542 -1.60944 0.0150125 0.28559 -1.07978 -0.318394 -0.220754)
(0.131586 -0.0540952 0.291507 -0.851029 -0.00420376 0.112499 -0.173473 -0.338749 -0.187832)
(-0.121746 -0.168558 -0.078937 0.032766 0.0596447 0.0603696 0.858608 -0.182224 0.068541)
(-0.613054 -0.187627 -0.423131 0.381766 0.331006 0.162312 1.42014 0.0274126 0.343147)
(-0.859746 -0.297887 -0.513858 0.56294 0.558784 0.302129 1.70722 0.134558 0.391861)
(-0.551731 -0.302299 -0.32142 0.790981 0.206636 0.469965 1.36004 -0.0954522 0.294125)
(0.12756 0.0277032 -0.0746951 0.707731 -0.436567 0.537891 0.448873 -0.775631 0.251309)
(0.796339 0.318426 0.105811 0.178555 -0.836539 0.342091 -0.360843 -1.33238 0.119751)
(1.08135 0.247349 0.235335 -0.537197 -0.911853 0.193295 -0.69966 -1.26429 -0.127037)
(0.835735 0.103464 0.277391 -1.47092 -0.635393 0.195512 -0.858592 -0.78333 -0.20894)
(0.348371 0.0669118 0.175153 -2.00027 -0.275359 0.0877389 -1.16848 -0.288216 -0.0617386)
(-0.0679573 0.0398336 -0.0243845 -1.44512 -0.0761527 0.0556282 -1.23572 -0.105758 0.0963901)
(-0.289274 0.0708641 -0.109535 -0.453234 0.193983 0.367446 -1.15125 -0.188042 -0.043618)
(-0.319852 0.177262 -0.0151906 0.118384 0.472838 0.633881 -1.17287 -0.285417 -0.299172)
(-0.206924 0.182041 0.00242078 0.280488 0.469202 0.451108 -1.00344 -0.315016 -0.341465)
(-0.0170832 -0.0109388 -0.0966643 0.34494 0.129066 0.00346044 -0.68041 -0.294436 -0.236765)
(0.00427992 -0.189924 -0.116924 0.263152 -0.177768 -0.066411 -0.321637 -0.271153 0.0572023)
(-0.161734 -0.21599 0.0193752 -0.0361885 -0.113222 0.394101 0.091858 -0.0873153 0.241649)
(-0.244092 -0.194651 0.202434 -0.468457 0.0912896 0.879374 0.376011 0.313389 0.0942414)
(-0.150332 -0.109261 0.170861 -0.745352 0.168992 0.891883 0.477822 0.632591 -0.0731803)
(0.0240769 0.0936056 -0.166308 -0.626023 0.149361 0.231852 0.884456 0.530738 -0.218273)
(-0.107834 0.096256 0.0215829 -0.544842 0.322185 0.250479 0.88636 0.290405 -0.20737)
(-0.117557 -0.0333959 0.0400359 -0.590797 0.30418 0.204599 0.288363 0.159528 -0.191737)
(0.341277 -0.124043 0.0133075 -0.640906 -0.0782797 0.288134 -0.352774 0.167215 -0.342245)
(0.855996 -0.0660274 -0.0262299 -0.863557 -0.556178 0.413054 -0.00189149 0.222201 -0.294622)
(0.711011 0.0626761 -0.216674 -1.05384 -0.661842 0.316497 1.23841 0.327979 -0.0395992)