/*--------------------------------*- C++ -*----------------------------------*\
  =========                 |
  \\      /  F ield         | OpenFOAM: The Open Source CFD Toolbox
   \\    /   O peration     | Website:  https://openfoam.org
    \\  /    A nd           | Version:  10
     \\/     M anipulation  |
\*---------------------------------------------------------------------------*/
FoamFile
{
    format      ascii;
    class       volScalarField;
    location    "4";
    object      pPrime2Mean;
}
// * * * * * * * * * * * * * * * * * * * * * * * * * * * * * * * * * * * * * //

dimensions      [0 4 -4 0 0 0 0];

internalField   nonuniform List<scalar> 
25600
(
5.16532e-07
1.34869e-06
3.63104e-07
1.38727e-06
2.31744e-06
1.034e-06
1.229e-06
3.63539e-07
1.07657e-06
3.03851e-06
4.04891e-07
2.57767e-07
2.08202e-06
1.33636e-07
1.79996e-07
1.62167e-06
7.62868e-07
5.40916e-08
1.11108e-06
6.59724e-07
8.68121e-08
1.32695e-07
7.14274e-07
3.66649e-07
5.4678e-07
7.67018e-07
1.0214e-06
8.70892e-07
1.21891e-07
1.48392e-07
1.91714e-07
7.70569e-07
1.37446e-07
2.37919e-06
1.54991e-06
1.4306e-06
1.36429e-06
7.68467e-07
4.87086e-07
1.84165e-07
2.14649e-06
1.50031e-06
2.96412e-07
3.15276e-07
3.66363e-07
1.60927e-07
1.84116e-07
2.5566e-07
6.09037e-07
4.57293e-06
1.30766e-07
1.20794e-07
3.66857e-06
1.3857e-07
4.71397e-07
5.81195e-08
4.7685e-07
6.89092e-08
1.46329e-06
2.97997e-06
2.87999e-06
1.7619e-06
2.76778e-06
1.81734e-06
6.2573e-07
1.52666e-06
7.6777e-07
8.42908e-07
9.96095e-07
4.79552e-07
6.63011e-07
7.9941e-08
7.70389e-08
1.35928e-06
3.31512e-07
1.43631e-07
7.31509e-07
1.75277e-06
2.04915e-06
6.03279e-07
1.05968e-06
2.66349e-07
5.83721e-07
1.90395e-06
2.83117e-06
9.11044e-07
1.43386e-06
2.04938e-07
1.4775e-06
5.3727e-06
2.0543e-07
8.57122e-07
2.21839e-06
7.93831e-07
1.2548e-06
1.03084e-07
2.01101e-07
1.11181e-06
3.91016e-07
1.71184e-07
5.47611e-07
3.90184e-06
1.25536e-06
2.75563e-07
2.81847e-07
1.10642e-06
6.60525e-07
1.53439e-06
3.47915e-06
2.68295e-07
2.23807e-07
3.33139e-07
5.35017e-07
3.16908e-06
1.08587e-06
2.4268e-07
8.33286e-07
1.67117e-06
5.86578e-07
2.06056e-07
1.18403e-06
5.80854e-07
2.5763e-07
2.60118e-06
1.04372e-06
7.5386e-07
2.21844e-07
1.97356e-07
2.78631e-06
5.5091e-06
4.51527e-07
7.39324e-07
1.09492e-06
1.50784e-06
1.43322e-06
1.46765e-07
4.15404e-07
3.60108e-07
2.02445e-06
3.57371e-06
2.74979e-06
3.86168e-06
5.37839e-07
8.50587e-07
5.62236e-07
2.76361e-06
8.86551e-07
1.68804e-06
4.74039e-06
3.91115e-07
1.75644e-07
1.7212e-07
3.24273e-07
3.27348e-07
2.2954e-07
4.41475e-07
4.77734e-07
5.04058e-07
2.98253e-07
3.09539e-07
2.50191e-06
8.75957e-07
2.25265e-07
1.57081e-06
6.70605e-07
6.58871e-07
1.94853e-07
1.86483e-07
2.73781e-06
2.67615e-06
3.9982e-07
1.1468e-06
9.68359e-07
1.24547e-06
1.97608e-07
1.9032e-06
3.17046e-07
1.54348e-07
6.15987e-07
1.32916e-06
6.72468e-07
8.38523e-07
6.87737e-07
3.22325e-06
1.95101e-06
2.19298e-06
2.17342e-07
2.06998e-07
4.64094e-07
1.34363e-06
7.15959e-07
3.5824e-07
4.40849e-07
9.27757e-07
2.63955e-07
5.85369e-07
8.45029e-07
8.28542e-07
8.67312e-07
3.22565e-06
1.49277e-06
6.58625e-07
2.53951e-07
1.04252e-06
1.91492e-07
2.32098e-06
7.88002e-07
2.50539e-07
3.95939e-06
1.32128e-06
2.81617e-07
1.17995e-06
1.50762e-06
2.57494e-06
4.70535e-07
6.65479e-07
2.69744e-06
5.47057e-07
7.6122e-07
2.02877e-06
8.45889e-07
5.47361e-07
3.33191e-07
1.46432e-06
1.24486e-06
1.40968e-06
4.04405e-07
1.33414e-06
7.59793e-06
3.74898e-06
1.9218e-07
3.54503e-07
1.37936e-06
9.37365e-07
1.46358e-06
1.7565e-06
2.99922e-07
4.42103e-07
6.41863e-07
4.1159e-06
1.40997e-06
1.21718e-06
5.99885e-07
1.09824e-06
2.03418e-07
7.49668e-07
2.66416e-07
3.04214e-06
9.18059e-06
1.32117e-06
1.26976e-06
3.35971e-06
2.80331e-06
2.60146e-06
5.48039e-07
3.89168e-07
3.65472e-06
1.82511e-06
2.33987e-07
2.93506e-07
2.88783e-07
1.65639e-06
7.6077e-07
7.59598e-07
1.7545e-06
1.80676e-06
2.83312e-06
9.70195e-06
1.31188e-05
1.09209e-06
1.63e-06
1.35275e-06
3.72241e-06
2.42587e-06
6.19621e-07
4.21638e-07
3.74642e-06
1.11563e-06
2.40216e-06
5.0663e-06
9.71975e-07
2.15935e-06
2.04818e-06
1.63134e-06
4.70362e-07
1.11428e-06
4.31469e-07
6.82365e-06
1.59561e-05
3.00672e-06
2.87258e-06
2.07153e-06
4.62201e-07
1.09916e-06
1.88614e-06
6.16838e-07
2.75328e-06
8.5922e-07
3.54326e-07
8.77013e-07
1.31147e-06
2.26737e-07
5.35934e-07
3.73954e-06
3.37054e-06
1.52116e-06
2.4867e-06
6.07368e-06
5.92567e-06
1.04487e-06
1.95415e-07
7.23326e-07
1.81372e-07
2.82941e-07
6.10329e-07
5.29877e-07
2.63111e-06
1.58721e-06
3.73348e-06
3.94047e-06
2.41929e-06
4.02731e-06
9.31565e-07
3.53486e-07
3.0266e-07
5.13466e-07
7.8686e-07
3.95601e-06
2.67606e-06
2.59128e-07
2.37179e-06
1.81091e-06
4.51367e-07
7.94332e-07
4.15656e-07
3.08301e-06
4.21839e-06
1.05698e-06
3.079e-07
6.66078e-07
6.09004e-07
2.67501e-07
2.40532e-07
3.30065e-06
3.28275e-06
1.24757e-06
2.71404e-06
5.61675e-06
5.70915e-06
5.37445e-07
1.69125e-06
1.36366e-06
8.48571e-07
5.89594e-07
7.4519e-07
1.08947e-06
4.20321e-07
4.01208e-07
3.92714e-06
5.48946e-06
3.55668e-06
5.8065e-06
1.56148e-06
4.56563e-07
5.92529e-07
3.47382e-07
5.95917e-07
5.79657e-06
4.00953e-06
8.46825e-07
4.75071e-06
2.83714e-06
3.47985e-07
5.046e-07
7.28855e-07
4.67676e-06
4.18927e-06
1.11502e-06
3.9805e-07
7.0118e-07
7.5597e-07
2.91645e-07
3.13364e-07
2.86835e-06
3.22426e-06
1.38663e-06
2.04133e-06
3.06515e-06
3.70619e-06
1.86114e-07
7.72103e-06
7.88188e-06
4.62647e-06
1.14603e-06
6.36398e-07
5.98679e-07
1.32128e-06
2.12593e-06
1.13311e-05
1.01987e-05
2.10538e-06
2.66492e-06
6.66933e-07
1.37145e-06
5.14557e-07
3.66119e-07
1.0581e-06
8.5912e-06
6.49396e-06
3.85851e-06
1.19998e-05
4.1253e-06
1.55953e-06
4.50558e-06
6.09161e-07
6.62941e-06
3.88059e-06
8.19485e-07
3.38978e-07
4.06013e-07
6.23458e-07
4.14703e-07
6.06846e-07
4.2452e-06
3.18029e-06
1.14214e-06
2.69809e-06
4.62817e-06
5.36263e-06
1.29491e-07
7.87229e-06
5.83021e-06
2.01402e-06
1.08334e-06
3.39866e-06
2.26513e-06
2.81506e-06
3.16916e-06
1.34355e-05
9.21568e-06
2.50792e-06
1.29608e-06
3.52662e-06
2.77921e-06
1.13567e-06
5.37819e-07
1.39307e-06
1.00658e-05
4.9127e-06
2.96351e-06
6.91902e-06
8.33482e-07
5.62566e-06
7.05788e-06
1.6145e-06
1.03357e-05
4.31095e-06
9.99196e-07
3.90886e-07
4.75891e-07
3.08307e-07
8.07079e-07
3.16284e-07
3.85674e-06
2.75519e-06
5.98521e-07
1.81103e-06
3.74897e-06
4.04922e-06
4.08244e-07
9.84392e-06
8.30787e-06
2.84916e-06
1.40739e-06
4.16616e-06
2.30468e-06
1.75804e-06
2.36759e-06
1.31011e-05
1.00922e-05
1.77135e-06
8.52752e-07
4.93813e-06
1.716e-06
3.34173e-06
8.83028e-07
1.22521e-06
9.42614e-06
4.27139e-06
1.23519e-06
1.96942e-06
4.76831e-07
9.52375e-06
1.39901e-05
1.37897e-06
1.19503e-05
4.88543e-06
1.70242e-06
3.80174e-07
5.55147e-07
3.52139e-07
7.92661e-07
3.9963e-07
1.83997e-06
1.0924e-06
3.68671e-07
1.84584e-06
4.5032e-06
5.26251e-06
4.22747e-07
1.05899e-05
8.079e-06
6.71654e-07
4.79126e-06
4.55665e-06
1.19278e-06
1.02577e-06
3.57392e-06
1.71778e-05
1.03988e-05
2.2411e-06
1.36926e-06
4.49671e-06
1.62957e-06
4.79637e-06
6.4688e-07
8.5646e-07
1.00852e-05
3.25776e-06
1.1602e-06
1.20906e-06
1.64499e-06
7.35365e-06
1.65838e-05
1.61219e-06
1.53238e-05
7.22074e-06
2.29483e-06
1.20429e-06
1.6298e-06
5.35852e-07
1.24423e-06
4.78897e-07
4.17985e-06
1.59825e-06
3.5038e-07
8.78985e-07
5.50125e-06
6.08514e-06
8.71639e-07
1.46218e-05
8.77888e-06
7.19567e-07
5.94148e-06
2.74512e-06
7.15671e-07
3.13428e-06
1.01809e-05
2.35063e-05
1.15145e-05
1.51989e-06
1.84491e-06
1.16633e-05
1.60102e-06
4.78664e-06
7.10725e-07
8.39251e-07
9.97058e-06
2.64122e-06
1.25571e-06
5.68165e-06
8.74887e-06
3.14901e-06
1.21379e-05
4.35748e-06
2.51846e-05
1.19717e-05
1.3098e-06
3.66737e-06
2.43051e-06
6.42892e-07
2.99114e-06
1.05187e-06
4.79097e-06
2.11839e-06
1.08905e-06
7.69875e-07
7.01942e-06
6.23048e-06
2.14456e-06
1.46118e-05
5.90201e-06
1.4779e-06
3.87294e-06
8.92347e-07
7.97799e-07
5.78208e-06
1.85716e-05
3.46083e-05
1.63859e-05
1.33392e-06
8.19699e-06
1.80328e-05
1.77531e-06
6.94836e-06
1.06965e-06
1.68408e-06
1.50016e-05
3.22693e-06
1.11316e-06
1.16712e-05
1.69397e-05
1.37993e-06
1.01858e-05
5.10707e-06
2.45281e-05
8.07442e-06
1.71448e-06
4.96324e-06
9.86656e-07
1.03473e-06
5.09367e-06
1.94134e-06
5.36159e-06
4.73789e-06
1.01862e-06
2.18949e-06
7.89658e-06
5.74285e-06
2.27889e-06
8.58814e-06
3.46184e-06
1.93264e-06
3.12385e-06
8.39194e-07
8.34874e-07
6.09417e-06
2.47754e-05
3.52754e-05
1.31007e-05
1.79355e-06
8.87864e-06
1.36314e-05
3.92782e-06
1.09604e-05
2.67075e-06
4.19456e-06
1.81966e-05
3.30864e-06
2.25499e-06
9.96327e-06
1.33371e-05
1.80526e-06
8.64309e-06
3.11512e-06
1.95846e-05
5.83578e-06
2.85086e-06
5.92363e-06
8.28502e-07
1.24253e-06
5.28085e-06
1.51589e-06
8.45463e-06
7.32546e-06
1.20737e-06
1.06685e-06
6.02358e-06
5.23782e-06
1.41927e-06
3.94351e-06
2.34575e-06
2.48304e-06
2.50803e-06
6.1304e-07
6.70999e-07
1.00014e-05
3.35968e-05
3.35668e-05
7.21395e-06
2.77552e-06
9.34417e-06
1.27403e-05
4.63476e-06
1.39405e-05
3.73534e-06
6.97522e-06
2.4433e-05
2.56245e-06
4.77105e-06
9.53531e-06
1.38346e-05
2.332e-06
1.11942e-05
2.23173e-06
2.92159e-05
1.41556e-05
1.10188e-06
6.9562e-06
8.90207e-07
1.63777e-06
6.88561e-06
1.72778e-06
9.22312e-06
2.81418e-06
2.33633e-06
2.50975e-06
4.42967e-06
6.96003e-06
3.32009e-06
3.33911e-06
2.11973e-06
4.6171e-06
2.47672e-06
7.40193e-07
7.86638e-07
1.56473e-05
3.65382e-05
2.6738e-05
3.93038e-06
1.8497e-06
6.255e-06
1.11282e-05
4.57529e-06
1.26068e-05
2.87939e-06
1.02539e-05
3.40883e-05
2.29611e-06
6.21673e-06
1.46741e-05
1.75764e-05
1.91743e-06
1.20221e-05
2.30497e-06
3.84854e-05
2.31092e-05
1.38802e-06
8.66175e-06
1.47787e-06
3.16439e-06
4.44657e-06
1.55537e-06
8.28938e-06
2.73466e-06
1.62584e-06
1.09541e-06
7.57243e-06
1.4551e-05
5.37352e-06
3.5325e-06
2.61324e-06
5.71394e-06
2.14268e-06
1.23932e-06
9.0582e-07
1.61167e-05
3.3248e-05
1.80552e-05
2.73058e-06
2.24071e-06
5.6202e-06
9.86728e-06
6.55507e-06
1.21032e-05
2.04079e-06
1.2226e-05
4.2871e-05
2.54308e-06
7.0236e-06
1.97225e-05
2.16012e-05
1.61318e-06
1.7421e-05
1.28723e-06
5.00389e-05
2.52215e-05
3.09883e-06
1.42441e-05
1.91408e-06
3.36961e-06
2.99363e-06
1.34159e-06
5.68585e-06
3.67182e-06
1.37022e-06
2.15318e-06
1.03095e-05
1.68065e-05
3.70236e-06
3.12759e-06
2.49732e-06
4.215e-06
1.22404e-06
1.30756e-06
1.27325e-06
1.61926e-05
3.03161e-05
1.42409e-05
3.29361e-06
4.23675e-06
6.57943e-06
8.99685e-06
1.01929e-05
1.5402e-05
2.73482e-06
1.5811e-05
4.96671e-05
1.76865e-06
7.52531e-06
2.54439e-05
2.67397e-05
1.06066e-06
2.5039e-05
1.80808e-06
6.72556e-05
2.74379e-05
5.97036e-06
2.42999e-05
2.16364e-06
3.37147e-06
3.29429e-06
1.57843e-06
5.48605e-06
3.57813e-06
1.44149e-06
1.4179e-06
1.0986e-05
1.41998e-05
3.05178e-06
3.11629e-06
3.09006e-06
4.69119e-06
2.02892e-06
1.54506e-06
1.82469e-06
1.8503e-05
3.05593e-05
1.38551e-05
4.67344e-06
6.08116e-06
7.46675e-06
9.46142e-06
1.28689e-05
1.87985e-05
3.19093e-06
2.09075e-05
5.60707e-05
2.472e-06
9.48766e-06
3.35766e-05
2.78417e-05
1.43976e-06
3.29053e-05
2.13569e-06
6.9334e-05
3.02379e-05
7.43122e-06
2.87015e-05
2.95689e-06
2.51516e-06
4.60829e-06
1.64873e-06
3.53766e-06
2.66352e-06
4.62849e-06
1.55318e-06
1.25069e-05
1.57971e-05
4.23488e-06
4.78669e-06
4.35018e-06
6.28202e-06
3.5695e-06
2.18567e-06
2.09611e-06
1.92611e-05
3.05129e-05
1.31527e-05
5.87901e-06
6.56427e-06
7.16747e-06
9.52329e-06
1.45884e-05
2.14837e-05
3.44959e-06
2.52017e-05
6.96741e-05
3.33228e-06
8.00684e-06
4.77605e-05
3.3719e-05
2.57533e-06
4.50905e-05
2.42044e-06
7.55167e-05
4.06602e-05
6.90167e-06
2.92755e-05
3.19235e-06
2.29439e-06
3.01038e-06
1.6807e-06
2.34071e-06
2.61879e-06
5.1525e-06
1.5688e-06
1.0152e-05
1.7196e-05
4.44222e-06
6.58884e-06
5.70887e-06
9.38144e-06
4.68698e-06
2.61013e-06
1.90489e-06
1.78777e-05
3.04163e-05
1.2518e-05
6.35753e-06
5.81509e-06
7.0654e-06
9.17649e-06
1.48899e-05
2.3643e-05
2.23886e-06
2.5354e-05
7.97579e-05
5.88964e-06
7.81294e-06
5.45888e-05
3.42243e-05
3.4605e-06
6.15173e-05
3.15948e-06
8.50456e-05
4.70554e-05
6.5483e-06
3.12196e-05
3.84885e-06
2.66173e-06
1.87238e-06
2.68817e-06
2.85719e-06
2.7677e-06
3.3035e-06
2.09512e-06
9.84513e-06
1.92102e-05
5.14866e-06
7.31341e-06
5.81347e-06
9.8294e-06
4.42046e-06
4.37063e-06
1.83323e-06
1.63666e-05
2.76872e-05
9.03011e-06
5.21654e-06
5.49753e-06
5.34324e-06
6.9964e-06
2.00456e-05
2.67616e-05
2.07175e-06
2.77888e-05
9.2648e-05
5.45446e-06
8.21591e-06
5.10614e-05
3.03557e-05
4.27972e-06
7.038e-05
3.09457e-06
9.49498e-05
5.52611e-05
4.98771e-06
2.70217e-05
3.30589e-06
3.09113e-06
1.64374e-06
3.5188e-06
2.96927e-06
3.26854e-06
3.33796e-06
2.02312e-06
1.24655e-05
2.14797e-05
6.05092e-06
7.78812e-06
5.91194e-06
9.16857e-06
4.08873e-06
5.52917e-06
1.6322e-06
1.75697e-05
2.92698e-05
8.14283e-06
4.6973e-06
5.04359e-06
6.28609e-06
7.45525e-06
2.03157e-05
1.98827e-05
2.02977e-06
2.24311e-05
8.93308e-05
5.79499e-06
1.24339e-05
3.96275e-05
2.37733e-05
6.2759e-06
7.88147e-05
4.87456e-06
9.3381e-05
5.80461e-05
4.4599e-06
2.73959e-05
4.01061e-06
2.79727e-06
1.84626e-06
2.99093e-06
2.98902e-06
3.6667e-06
3.59957e-06
2.20172e-06
1.10352e-05
1.90571e-05
5.51163e-06
9.44808e-06
6.82419e-06
7.69074e-06
3.54759e-06
7.98056e-06
1.17765e-06
1.47411e-05
2.56503e-05
5.95487e-06
3.60251e-06
8.43958e-06
3.75526e-06
5.21075e-06
2.03155e-05
1.85923e-05
2.1929e-06
2.48479e-05
9.06453e-05
6.14535e-06
1.33813e-05
4.07457e-05
2.95911e-05
4.32126e-06
7.58467e-05
3.34179e-06
0.000114181
6.56874e-05
3.29268e-06
2.28329e-05
3.16154e-06
3.04406e-06
1.47911e-06
3.13854e-06
2.56851e-06
4.36315e-06
3.64966e-06
1.78117e-06
1.31328e-05
2.16139e-05
5.4346e-06
9.25752e-06
6.38085e-06
8.70707e-06
3.27526e-06
6.66885e-06
1.44707e-06
1.76442e-05
3.01938e-05
7.22762e-06
4.76865e-06
4.81218e-06
6.18647e-06
8.87175e-06
1.08996e-05
1.16252e-05
2.02446e-06
2.12123e-05
7.74e-05
1.01372e-05
1.91752e-05
3.36377e-05
2.59873e-05
5.28947e-06
8.73425e-05
3.72808e-06
0.000108125
5.11666e-05
5.42291e-06
2.62522e-05
4.07387e-06
3.03307e-06
1.98472e-06
2.13775e-06
2.7316e-06
3.91378e-06
2.95408e-06
2.92153e-06
9.2564e-06
1.587e-05
5.4225e-06
1.20646e-05
7.04615e-06
7.26005e-06
3.42075e-06
1.00228e-05
1.23997e-06
1.20962e-05
2.38342e-05
4.68867e-06
3.28725e-06
9.15136e-06
3.01288e-06
5.57309e-06
1.38314e-05
1.60983e-05
1.68344e-06
2.8301e-05
8.84031e-05
5.34497e-06
1.21991e-05
4.03894e-05
3.38661e-05
2.06567e-06
7.13847e-05
1.65588e-06
0.000122772
5.95975e-05
3.51694e-06
1.69888e-05
2.40247e-06
5.39492e-06
1.34495e-06
2.50752e-06
2.52808e-06
4.78612e-06
3.99133e-06
2.12006e-06
1.45383e-05
2.23398e-05
5.23077e-06
8.56774e-06
6.67376e-06
1.12684e-05
4.19952e-06
4.59664e-06
1.74767e-06
1.99953e-05
3.63484e-05
9.25891e-06
6.63942e-06
3.8065e-06
6.74817e-06
1.27406e-05
7.19875e-06
8.59612e-06
3.71687e-06
1.69849e-05
6.55219e-05
1.11563e-05
2.24047e-05
2.26353e-05
2.13679e-05
5.42989e-06
9.16056e-05
4.0467e-06
9.02672e-05
3.93075e-05
5.72742e-06
2.61413e-05
3.64614e-06
2.61216e-06
2.4698e-06
1.37668e-06
2.56596e-06
2.50548e-06
2.13165e-06
4.92727e-06
6.53923e-06
1.30629e-05
5.99501e-06
1.32338e-05
7.47072e-06
6.69415e-06
3.712e-06
1.16178e-05
1.64016e-06
9.71053e-06
2.2431e-05
4.4553e-06
3.20746e-06
1.34044e-05
2.28969e-06
3.80789e-06
2.038e-05
2.34514e-05
1.62022e-06
3.52584e-05
9.78191e-05
2.99215e-06
8.82626e-06
4.19266e-05
4.13776e-05
9.6575e-07
6.10331e-05
1.57025e-06
0.000124195
6.34016e-05
2.68382e-06
1.1447e-05
3.02752e-06
8.35323e-06
2.2947e-06
4.54575e-06
3.82583e-06
7.53212e-06
6.59223e-06
1.88864e-06
1.86178e-05
2.84956e-05
6.19622e-06
7.15852e-06
7.34862e-06
1.44753e-05
5.01281e-06
2.77939e-06
2.57348e-06
2.34423e-05
4.25162e-05
1.24814e-05
8.89874e-06
5.17893e-06
4.81382e-06
9.96571e-06
9.39672e-06
1.14707e-05
3.09716e-06
1.77129e-05
6.67446e-05
8.96307e-06
1.96113e-05
2.4226e-05
2.44676e-05
3.674e-06
8.61896e-05
3.40718e-06
9.20613e-05
4.14994e-05
4.45031e-06
2.27602e-05
2.83523e-06
3.01728e-06
1.96734e-06
1.51232e-06
2.16836e-06
2.93599e-06
2.42181e-06
3.44218e-06
8.11237e-06
1.51671e-05
5.16296e-06
1.11323e-05
6.4394e-06
7.3444e-06
3.08714e-06
9.13684e-06
1.12105e-06
1.11168e-05
2.5168e-05
5.2037e-06
3.47058e-06
9.16112e-08
3.92274e-07
8.47563e-08
7.25435e-07
1.47387e-06
7.88484e-07
1.20599e-06
3.21169e-07
1.34815e-06
2.64294e-06
4.39324e-07
6.49575e-07
2.61944e-06
3.17836e-07
8.83575e-08
1.35956e-06
2.64343e-07
7.63346e-08
1.681e-06
8.02914e-07
6.26611e-08
4.72451e-07
1.00282e-06
5.85417e-07
4.48345e-07
3.23295e-07
8.8672e-07
1.13996e-06
1.17703e-07
5.88007e-07
5.3062e-07
5.66315e-07
8.693e-08
7.05779e-07
4.63491e-07
6.94041e-07
7.98052e-07
1.27792e-06
9.54106e-07
1.35216e-07
1.62007e-06
9.514e-07
3.98611e-07
1.33001e-07
9.61052e-08
3.92403e-07
4.13163e-07
1.39945e-07
1.32955e-06
5.3337e-06
1.28015e-07
1.18714e-07
2.85818e-06
4.75648e-07
6.87139e-08
4.45765e-07
7.49557e-08
1.02554e-06
3.79006e-06
2.29197e-06
1.27844e-06
3.98804e-07
6.41231e-07
6.32774e-07
2.97898e-07
1.40318e-06
1.31428e-06
2.57571e-06
3.19991e-06
1.11556e-06
1.12132e-06
1.55178e-07
1.80073e-07
1.97373e-06
9.35195e-07
9.04922e-07
2.2267e-06
4.02042e-06
3.6819e-06
7.01969e-07
1.29613e-06
1.39874e-07
1.16531e-06
7.91867e-07
1.75737e-06
7.82313e-07
1.34322e-06
1.80165e-07
1.09654e-06
4.7228e-06
1.50974e-07
6.21123e-07
1.05494e-06
3.21525e-07
4.99238e-08
5.40412e-07
1.33306e-06
2.94727e-06
5.96548e-07
1.7309e-07
3.21175e-07
2.89903e-06
7.88277e-07
2.32976e-07
4.48896e-07
6.93867e-07
5.41638e-07
2.65336e-06
6.81906e-06
1.29062e-06
1.41268e-06
1.20553e-06
9.22264e-07
5.10003e-06
2.68564e-06
6.38033e-07
1.45571e-06
2.76616e-06
2.26403e-06
1.06668e-06
1.09163e-06
4.75588e-07
2.41384e-07
2.38516e-06
1.80884e-06
2.07729e-07
7.33152e-07
6.69799e-07
4.4467e-06
5.89149e-06
2.10512e-07
2.02013e-07
5.26385e-07
3.96295e-06
6.45163e-06
5.89366e-07
1.5701e-07
2.79372e-07
4.46105e-07
7.48296e-07
2.2121e-07
6.4452e-07
6.4985e-07
2.49341e-06
9.83148e-07
4.10194e-06
2.77677e-06
6.01319e-06
9.8055e-06
5.53042e-07
1.52188e-07
2.99501e-07
3.36955e-07
1.17622e-06
4.52863e-07
1.87384e-07
1.06728e-06
1.37042e-06
7.63036e-07
8.41571e-07
1.16173e-06
6.62038e-07
6.35762e-07
3.48521e-06
8.76712e-07
4.64634e-07
5.86505e-07
7.46018e-07
2.68722e-06
2.014e-06
7.39019e-07
2.00959e-06
1.21074e-06
2.3063e-06
7.28008e-07
1.57045e-07
9.05726e-07
6.48881e-07
2.10599e-06
5.81789e-06
3.40329e-06
2.48896e-06
4.60907e-07
3.4648e-06
2.34126e-06
3.7897e-06
1.6108e-06
9.31747e-07
3.50886e-07
2.99221e-06
1.74653e-06
2.1495e-07
4.73598e-07
2.34104e-06
3.70951e-07
4.22184e-07
4.38485e-07
3.44059e-07
1.30557e-06
3.25817e-06
3.41407e-07
5.31368e-07
1.03018e-06
2.50159e-06
2.23748e-07
6.04441e-07
2.31302e-07
2.16547e-07
3.34079e-07
4.10142e-07
2.27851e-07
1.91875e-06
1.21095e-06
1.70095e-06
4.33177e-07
5.58223e-07
3.51676e-06
1.97785e-06
2.40515e-07
3.87274e-07
8.6209e-07
9.72409e-07
1.53868e-06
2.47166e-06
5.9486e-07
6.61671e-07
1.7201e-06
3.42442e-06
6.36296e-06
2.51093e-06
4.19064e-07
4.40271e-07
8.74038e-07
2.80569e-06
6.33926e-07
3.05518e-07
5.82057e-07
4.27881e-07
2.04876e-06
2.6967e-06
3.94981e-07
7.86538e-07
1.18818e-06
1.09492e-06
2.57785e-07
9.96655e-07
4.12085e-06
5.44317e-06
4.77817e-06
2.01452e-07
7.22174e-07
1.6976e-06
1.0906e-06
2.68262e-06
7.71793e-07
1.44321e-06
5.89198e-06
3.89061e-06
8.72113e-07
6.63847e-07
1.92951e-06
1.21813e-06
2.41486e-06
4.34462e-06
5.5848e-07
2.7426e-07
3.31741e-06
5.30292e-06
4.1619e-06
2.0903e-07
3.78884e-06
2.28102e-06
1.23516e-06
1.88613e-07
2.40948e-07
3.21189e-07
2.57577e-06
2.33901e-06
6.25497e-06
5.48799e-06
5.64631e-07
2.99881e-06
5.02963e-06
2.20585e-06
3.6397e-07
2.36053e-06
6.21307e-06
6.32514e-06
1.2229e-06
2.29316e-06
1.13617e-07
3.51025e-07
1.81736e-07
2.49634e-07
1.13857e-06
2.74599e-07
1.94231e-06
9.57072e-07
2.74043e-07
6.54768e-07
1.68789e-06
9.35535e-07
2.64372e-06
5.24284e-06
1.86591e-06
1.36617e-06
3.94022e-06
3.51766e-06
1.92496e-06
2.35763e-07
2.67317e-07
1.20644e-06
3.59806e-06
1.20127e-05
9.84487e-06
2.22625e-06
4.02577e-06
4.07795e-06
8.61549e-06
5.36016e-06
6.49658e-07
4.10294e-06
2.91663e-06
1.22058e-06
2.34937e-06
4.34491e-06
4.01643e-06
3.44422e-06
1.64689e-07
1.97714e-06
9.70383e-07
2.63487e-06
5.24629e-07
4.20219e-07
4.19928e-07
1.1709e-06
2.08074e-06
8.44494e-07
2.95321e-07
5.75877e-07
1.09159e-06
1.17198e-06
2.67459e-06
3.24519e-06
5.48083e-07
2.52366e-07
6.52144e-07
1.14154e-06
5.02671e-06
3.94308e-06
4.19214e-07
2.45945e-07
2.39721e-07
3.95736e-06
5.07056e-06
1.96991e-06
2.91824e-06
1.37829e-06
4.37357e-06
2.71428e-06
6.9691e-07
3.8354e-06
2.24998e-06
1.30294e-06
2.78242e-06
2.70886e-06
4.83844e-06
1.42849e-05
5.41562e-06
2.95529e-07
1.3105e-06
1.64935e-06
6.11189e-07
8.72643e-07
1.0739e-06
1.97484e-06
1.64777e-06
2.86564e-07
1.73727e-07
8.67061e-07
1.80652e-06
9.48675e-07
7.3018e-07
1.40334e-06
1.12124e-06
1.46815e-06
3.74865e-06
5.71407e-06
1.06402e-05
1.65806e-06
3.61177e-06
2.97538e-06
5.75279e-07
2.15168e-06
1.02511e-06
6.31999e-07
1.1611e-06
2.20293e-06
7.1263e-06
2.72279e-06
7.18684e-07
3.68821e-06
1.10179e-06
7.15507e-07
2.94159e-06
1.38291e-06
4.15166e-06
1.78782e-05
4.52942e-06
4.05432e-07
3.17909e-06
6.47535e-06
7.14204e-07
4.28778e-07
8.42411e-07
2.87755e-06
1.55847e-06
2.7358e-07
1.58468e-07
7.85802e-07
1.73292e-06
4.03048e-07
2.99742e-07
2.29936e-06
2.14832e-06
1.41117e-06
3.8155e-06
9.04919e-06
1.63435e-05
1.23545e-06
8.84496e-06
9.15741e-06
1.45033e-06
4.14826e-06
1.42747e-06
2.11377e-06
7.62268e-07
1.95069e-06
9.8047e-06
2.4794e-06
8.97273e-07
5.46339e-06
1.12793e-06
2.37856e-06
7.45613e-06
2.36632e-06
7.68356e-06
2.32803e-05
2.47007e-06
7.57218e-07
4.5962e-06
6.70728e-06
3.41447e-07
6.58715e-07
1.88164e-06
3.70752e-06
1.0474e-06
3.07455e-07
3.3345e-07
1.50636e-06
3.48382e-06
2.39739e-07
3.02745e-07
2.32429e-06
3.90227e-06
2.35391e-06
4.38017e-06
1.06781e-05
1.53386e-05
9.3283e-07
9.12881e-06
9.31161e-06
1.5122e-06
4.57443e-06
1.49448e-06
3.40454e-06
2.98782e-06
6.18283e-07
4.87873e-06
9.08446e-07
8.35474e-07
3.65739e-06
9.03986e-07
5.21092e-06
1.28284e-05
2.63495e-06
4.81939e-06
1.83666e-05
2.67921e-06
1.06831e-06
3.09109e-06
4.15431e-06
5.71969e-07
9.08446e-07
3.88439e-06
6.18926e-06
1.60564e-06
4.98042e-07
1.89494e-07
6.33669e-07
4.37617e-06
3.88179e-07
9.29606e-07
3.69404e-06
6.84173e-06
2.71445e-06
3.61704e-06
9.13989e-06
1.16329e-05
3.78573e-07
1.2344e-05
8.86433e-06
1.26789e-06
1.97903e-06
9.72857e-07
9.37044e-06
1.22543e-05
1.84739e-06
2.7858e-06
7.5711e-07
3.44509e-06
7.26621e-06
1.68331e-06
8.8908e-06
1.56775e-05
2.84498e-06
5.6588e-06
2.22153e-05
2.51061e-06
2.36581e-06
1.35395e-06
3.43015e-06
1.185e-06
2.29067e-06
3.53183e-06
7.28715e-06
3.317e-06
9.87904e-07
1.53674e-06
8.12932e-07
5.25655e-06
1.10651e-06
9.58994e-07
5.45106e-06
5.60076e-06
1.70263e-06
4.47227e-06
1.15877e-05
1.00324e-05
1.86354e-06
1.48099e-05
4.5675e-06
1.61028e-06
6.07637e-06
1.20088e-06
9.19641e-06
1.02569e-05
8.87994e-07
2.23529e-06
1.14831e-06
9.29236e-06
1.28564e-05
5.04649e-06
1.78916e-05
2.02179e-05
3.70883e-06
5.23182e-06
2.17678e-05
2.4298e-06
3.23936e-06
2.49896e-06
8.49539e-06
1.23385e-06
5.74633e-06
2.07905e-06
8.81342e-06
4.40903e-06
9.4819e-07
5.44324e-06
1.18391e-06
5.71958e-06
1.80891e-06
1.10508e-06
8.31087e-06
9.97016e-06
4.65003e-06
7.1523e-06
1.18785e-05
7.77457e-06
3.51311e-06
1.08249e-05
1.15546e-06
8.52132e-06
9.26597e-06
1.24409e-06
7.5368e-06
4.93724e-06
1.3165e-06
4.77196e-06
3.93779e-06
1.01068e-05
1.47381e-05
1.20087e-05
2.76903e-05
2.12005e-05
2.47971e-06
2.83328e-06
1.78359e-05
3.41708e-06
2.50815e-06
5.23598e-06
1.3825e-05
1.83069e-06
8.92368e-06
2.9374e-06
1.16828e-05
3.65521e-06
1.40023e-06
2.90666e-06
4.51628e-06
1.09281e-05
1.45672e-06
1.03602e-06
7.51847e-06
9.45342e-06
3.9943e-06
3.67291e-06
6.38946e-06
2.99538e-06
7.02002e-06
1.04154e-05
7.14873e-07
8.51393e-06
1.11348e-05
1.34296e-06
9.04595e-06
5.80307e-06
1.49732e-06
1.08786e-05
7.45165e-06
8.23264e-06
1.44624e-05
1.2831e-05
2.77025e-05
2.15665e-05
2.09568e-06
2.60252e-06
1.83088e-05
4.90969e-06
1.45532e-06
5.7188e-06
1.42244e-05
1.36458e-06
9.01997e-06
2.85675e-06
1.45142e-05
5.80656e-06
1.17723e-06
1.09089e-06
7.42389e-06
1.10393e-05
1.91649e-06
1.05423e-06
7.69461e-06
1.05785e-05
5.44195e-06
3.24073e-06
6.16479e-06
2.76039e-06
5.39299e-06
5.32735e-06
1.25021e-06
1.25055e-05
1.68016e-05
3.24072e-06
6.04645e-06
4.89295e-06
4.30231e-06
1.76037e-05
5.90665e-06
8.13997e-06
1.64249e-05
1.17749e-05
2.27845e-05
1.736e-05
1.34174e-06
2.76731e-06
2.13592e-05
5.19832e-06
2.0316e-06
4.11834e-06
1.52375e-05
1.56053e-06
1.27588e-05
1.54852e-06
1.52766e-05
6.03686e-06
6.4299e-07
3.24873e-06
3.44307e-06
5.60919e-06
2.46684e-06
9.88586e-07
9.79426e-06
1.26154e-05
6.46011e-06
2.59472e-06
5.21562e-06
3.39558e-06
2.00061e-06
2.54449e-06
2.69179e-06
1.69835e-05
1.9056e-05
3.55635e-06
4.73771e-06
3.6834e-06
1.06573e-05
1.69032e-05
3.76504e-06
9.50502e-06
1.64527e-05
1.15156e-05
1.90178e-05
1.2679e-05
1.22331e-06
2.91283e-06
2.28206e-05
4.70238e-06
2.71315e-06
3.67858e-06
2.02631e-05
1.86289e-06
1.78281e-05
1.20005e-06
1.45155e-05
4.35797e-06
1.38262e-06
2.70922e-06
4.8568e-06
7.33584e-06
1.01052e-06
1.80096e-06
1.54491e-05
1.94299e-05
8.27317e-06
2.02245e-06
6.36045e-06
8.16205e-06
9.52305e-07
1.94917e-06
3.83857e-06
1.73861e-05
1.82628e-05
3.32971e-06
5.38793e-06
3.20357e-06
1.71926e-05
1.45384e-05
3.22977e-06
1.08923e-05
1.52633e-05
1.07421e-05
1.80553e-05
1.15021e-05
1.89068e-06
2.92712e-06
2.42093e-05
5.09819e-06
3.7942e-06
2.11354e-06
2.36887e-05
3.83243e-06
2.142e-05
2.04798e-06
1.63808e-05
3.01942e-06
2.93999e-06
8.42674e-07
8.86772e-06
7.79521e-06
1.20953e-06
3.22836e-06
1.99347e-05
2.25141e-05
7.83158e-06
1.63755e-06
1.0102e-05
2.00039e-05
1.91588e-06
1.92224e-06
4.35564e-06
1.83835e-05
1.88169e-05
4.23082e-06
5.94615e-06
4.3324e-06
1.56418e-05
1.43568e-05
5.78173e-06
1.56646e-05
1.85165e-05
9.66128e-06
1.84647e-05
1.37262e-05
2.44156e-06
3.54964e-06
2.63328e-05
6.57621e-06
3.63392e-06
1.68105e-06
2.71355e-05
5.99335e-06
2.13212e-05
2.28263e-06
2.09948e-05
1.84647e-06
2.78955e-06
1.91686e-06
1.48352e-05
1.08969e-05
1.50218e-06
4.42043e-06
1.65467e-05
1.57623e-05
5.65901e-06
1.1774e-06
1.32412e-05
2.8949e-05
2.44268e-06
2.54667e-06
3.56114e-06
2.04193e-05
1.93969e-05
5.50204e-06
1.04145e-05
6.94368e-06
1.46847e-05
1.58214e-05
8.95157e-06
2.01394e-05
1.90519e-05
8.93628e-06
1.84848e-05
1.67855e-05
2.43907e-06
4.32286e-06
2.87693e-05
7.65846e-06
3.56259e-06
2.43346e-06
3.22645e-05
7.73474e-06
2.12124e-05
2.10238e-06
1.91251e-05
2.76427e-06
2.49262e-06
7.84267e-06
1.48024e-05
1.24951e-05
1.99312e-06
4.29125e-06
9.69615e-06
1.34317e-05
5.85756e-06
1.30318e-06
1.98918e-05
3.19457e-05
2.59017e-06
4.82705e-06
2.72145e-06
2.01044e-05
2.04463e-05
4.99974e-06
1.92965e-05
1.23465e-05
1.35922e-05
1.5213e-05
9.40154e-06
1.94102e-05
1.5694e-05
7.7867e-06
2.13978e-05
1.94628e-05
2.2743e-06
4.0789e-06
3.16742e-05
5.92125e-06
4.62525e-06
3.36847e-06
3.98892e-05
8.30402e-06
2.60819e-05
2.38719e-06
2.03038e-05
1.63324e-06
9.28902e-06
1.32974e-05
1.09004e-05
7.1563e-06
2.12392e-06
3.98135e-06
7.35807e-06
1.75812e-05
8.04201e-06
1.75892e-06
2.70521e-05
3.4606e-05
2.65711e-06
3.93998e-06
4.13287e-06
2.06341e-05
2.20822e-05
4.24071e-06
2.16924e-05
1.59262e-05
1.67098e-05
2.01871e-05
8.88015e-06
1.29557e-05
1.26533e-05
6.71009e-06
2.02513e-05
1.93574e-05
2.77647e-06
3.90462e-06
3.07295e-05
4.34555e-06
6.7492e-06
4.04646e-06
4.43751e-05
7.18572e-06
3.5703e-05
3.46824e-06
1.6171e-05
2.6481e-06
1.22831e-05
1.09996e-05
9.3649e-06
3.95271e-06
3.61438e-06
2.52655e-06
6.73161e-06
1.84186e-05
8.80098e-06
1.51912e-06
2.42157e-05
3.30143e-05
2.67958e-06
3.72719e-06
6.4089e-06
1.78717e-05
1.8267e-05
4.20419e-06
2.18732e-05
1.58584e-05
1.93845e-05
2.18598e-05
5.55751e-06
9.25247e-06
1.19369e-05
6.32737e-06
1.60342e-05
1.77137e-05
3.44755e-06
4.4123e-06
3.10025e-05
5.14377e-06
6.27042e-06
4.11898e-06
5.42656e-05
6.57107e-06
4.4504e-05
4.31693e-06
1.2867e-05
5.41292e-06
2.13426e-05
1.13559e-05
1.05618e-05
4.47525e-06
3.70793e-06
2.22736e-06
6.7889e-06
2.01334e-05
8.79843e-06
1.33453e-06
2.51328e-05
3.63032e-05
2.39743e-06
2.93071e-06
6.75908e-06
1.58022e-05
1.76278e-05
5.71316e-06
1.90686e-05
1.24897e-05
2.29972e-05
1.93972e-05
3.60286e-06
7.45426e-06
1.07224e-05
5.1645e-06
1.00816e-05
1.02571e-05
4.76687e-06
4.66822e-06
2.46875e-05
4.88418e-06
7.54495e-06
4.52186e-06
5.92487e-05
4.98732e-06
5.85271e-05
6.77036e-06
1.15588e-05
1.22149e-05
2.67596e-05
1.14766e-05
9.20321e-06
3.50025e-06
4.57996e-06
2.76902e-06
4.00686e-06
1.59942e-05
4.4406e-06
1.23124e-06
2.23594e-05
3.40468e-05
1.97542e-06
3.1902e-06
4.56496e-06
1.33516e-05
1.68527e-05
5.81872e-06
1.96451e-05
1.25762e-05
2.26327e-05
1.58445e-05
3.83793e-06
8.61399e-06
1.26468e-05
4.71812e-06
1.0316e-05
8.79455e-06
4.48892e-06
3.52815e-06
2.53071e-05
5.48694e-06
5.69736e-06
6.19337e-06
6.08195e-05
6.46746e-06
6.1244e-05
7.13445e-06
1.99412e-05
2.45601e-05
3.42371e-05
1.45264e-05
1.07528e-05
4.60952e-06
2.74124e-06
1.84329e-06
4.53056e-06
1.98307e-05
5.52338e-06
1.38493e-06
2.56788e-05
3.61043e-05
2.93625e-06
2.55233e-06
5.39332e-06
1.67277e-05
1.88168e-05
6.28633e-06
1.47175e-05
8.3551e-06
2.62831e-05
1.86081e-05
4.39229e-06
7.29767e-06
1.03095e-05
4.50999e-06
7.14339e-06
5.9479e-06
8.47416e-06
3.83044e-06
1.79748e-05
3.10842e-06
9.54362e-06
2.80991e-06
4.71218e-05
5.14736e-06
6.60836e-05
7.51051e-06
2.37395e-05
2.34051e-05
2.91638e-05
1.01055e-05
6.20826e-06
2.58648e-06
5.18709e-06
3.05999e-06
3.18571e-06
1.56071e-05
3.28628e-06
1.63981e-06
1.89784e-05
2.85903e-05
1.84985e-06
3.98454e-06
4.85078e-06
1.45799e-05
1.51614e-05
5.44336e-06
1.95585e-05
1.1445e-05
2.1988e-05
1.46381e-05
3.81557e-06
1.21396e-05
1.54431e-05
5.3223e-06
1.07498e-05
8.32964e-06
5.37719e-06
2.63995e-06
2.05759e-05
4.29624e-06
6.14155e-06
3.83354e-06
5.44541e-05
7.98609e-06
5.52588e-05
2.2586e-06
3.64783e-05
3.31844e-05
3.99713e-05
1.53188e-05
9.83659e-06
5.30546e-06
2.05454e-06
2.03146e-06
5.96756e-06
2.36305e-05
6.02693e-06
1.42966e-06
2.61249e-05
3.93292e-05
2.25953e-06
2.71544e-06
8.41065e-06
2.03175e-05
2.16896e-05
8.0916e-06
1.2565e-05
6.81716e-06
2.95564e-05
2.0093e-05
5.18262e-06
7.60645e-06
9.74936e-06
5.23671e-06
5.96312e-06
4.17928e-06
1.06959e-05
3.70654e-06
1.25902e-05
2.29737e-06
1.11986e-05
1.0256e-06
3.84185e-05
3.81446e-06
7.44379e-05
5.24181e-06
2.08353e-05
2.17955e-05
2.75107e-05
7.32786e-06
3.39312e-06
1.79542e-06
5.59933e-06
3.32328e-06
2.5907e-06
1.29529e-05
2.01371e-06
2.12087e-06