/*--------------------------------*- C++ -*----------------------------------*\
  =========                 |
  \\      /  F ield         | OpenFOAM: The Open Source CFD Toolbox
   \\    /   O peration     | Website:  https://openfoam.org
    \\  /    A nd           | Version:  10
     \\/     M anipulation  |
\*---------------------------------------------------------------------------*/
FoamFile
{
    format      ascii;
    class       volVectorField;
    location    "8";
    object      U;
}
// * * * * * * * * * * * * * * * * * * * * * * * * * * * * * * * * * * * * * //

dimensions      [0 1 -1 0 0 0 0];

internalField   nonuniform List<vector> 
25600
(
(1.15422 0.00119172 0.0039245)
(1.13823 0.00495169 0.0112164)
(1.11546 0.00679241 0.0183292)
(1.10091 0.0120623 0.0233348)
(1.10372 0.0163493 0.0270827)
(1.12212 0.0161368 0.030119)
(1.14209 0.0104108 0.0306742)
(1.14863 0.00277555 0.0264905)
(1.14046 -0.000652885 0.0135631)
(1.12188 0.00308362 -0.00396179)
(1.10291 0.0137284 -0.0173067)
(1.09122 0.0212077 -0.022308)
(1.08478 0.0213886 -0.0145532)
(1.084 0.0142158 -0.000532729)
(1.09077 0.00269809 0.0108551)
(1.1069 -0.00412923 0.0142128)
(1.12861 -0.00155647 0.00559954)
(1.1497 0.00600629 -0.00986032)
(1.15805 0.0149425 -0.0256236)
(1.15198 0.0205057 -0.0342337)
(1.14354 0.0214188 -0.033511)
(1.13652 0.0213551 -0.0276579)
(1.13682 0.0181143 -0.0188145)
(1.14418 0.0103954 -0.011096)
(1.15007 -0.000668384 -0.00508787)
(1.149 -0.0126613 0.000673488)
(1.14275 -0.0197564 0.00251325)
(1.1351 -0.018434 0.00222488)
(1.1294 -0.0129668 -0.000212181)
(1.12574 -0.00896142 -0.00841859)
(1.12173 -0.00697637 -0.0182943)
(1.11644 -0.00397787 -0.0221644)
(1.11304 0.00227422 -0.0154082)
(1.10577 0.00810749 6.08644e-05)
(1.09762 0.00907298 0.0160961)
(1.09276 0.00894992 0.0265881)
(1.09733 0.00814355 0.0282767)
(1.11278 0.0047921 0.0200587)
(1.1349 0.0025137 0.00957803)
(1.15266 -6.51154e-05 0.00301839)
(1.09992 -0.0156227 0.023793)
(1.09319 -0.000991129 0.0394641)
(1.08689 0.0059534 0.0486852)
(1.09363 0.0125936 0.0461681)
(1.11007 0.0209728 0.0327404)
(1.12799 0.0281883 0.0146383)
(1.13378 0.0312004 -0.00461702)
(1.12265 0.0260924 -0.0219905)
(1.10617 0.0148853 -0.0388379)
(1.09204 0.00589073 -0.0530555)
(1.09058 0.0103958 -0.0594536)
(1.10121 0.0257872 -0.0583185)
(1.11575 0.0397318 -0.0453321)
(1.12469 0.0373111 -0.022076)
(1.11882 0.0164694 0.0042987)
(1.10761 -0.00770425 0.0252371)
(1.10194 -0.0147867 0.033342)
(1.11105 0.000719607 0.0285005)
(1.12738 0.024349 0.0128144)
(1.13452 0.0459785 -0.00815289)
(1.13552 0.0532092 -0.0264709)
(1.13643 0.0427703 -0.0371874)
(1.14542 0.0256148 -0.0368797)
(1.16614 0.00653909 -0.0268585)
(1.18336 -0.00557337 -0.0123481)
(1.17987 -0.00576673 0.0024465)
(1.15521 -0.00439559 0.0143602)
(1.12256 -0.00595983 0.0214002)
(1.10043 -0.00789878 0.0199625)
(1.09433 -0.0122063 0.00844286)
(1.09646 -0.0149356 -0.00921062)
(1.09929 -0.0136755 -0.0219224)
(1.1044 -0.00537456 -0.0206907)
(1.10377 0.00816575 -0.00674015)
(1.10157 0.0145022 0.00942814)
(1.10038 0.0100425 0.0166788)
(1.09914 -0.00594251 0.0137526)
(1.09768 -0.0259401 0.00644841)
(1.09925 -0.0347623 0.00383538)
(1.10102 -0.0299282 0.0102154)
(1.07578 -0.013427 0.0484767)
(1.07853 -0.00103159 0.0502726)
(1.09153 0.0143229 0.0386204)
(1.1131 0.0309657 0.018155)
(1.12488 0.0418366 0.000673197)
(1.11809 0.0422881 -0.00886356)
(1.10272 0.034262 -0.0167755)
(1.08863 0.0215699 -0.029926)
(1.08146 0.00924614 -0.0452487)
(1.07814 -0.000574669 -0.0548289)
(1.07805 -0.00108086 -0.0570475)
(1.08611 0.00661914 -0.0528839)
(1.10757 0.0184419 -0.0403381)
(1.1328 0.0241373 -0.0210967)
(1.1414 0.0148867 -0.00279468)
(1.12501 -0.00404941 0.00967149)
(1.09089 -0.0166858 0.0161361)
(1.06171 -0.00924125 0.0155413)
(1.04857 0.0102101 0.00685281)
(1.05975 0.0310269 -0.00457677)
(1.09872 0.0377394 -0.011263)
(1.14963 0.0276367 -0.0107871)
(1.18811 0.0161916 -0.00550696)
(1.18522 0.00838168 9.68721e-05)
(1.14248 0.00565736 0.00319693)
(1.08748 0.00476096 0.00462048)
(1.03748 -0.00738907 0.00858852)
(1.00485 -0.0248484 0.0164423)
(0.990707 -0.0338544 0.0229045)
(0.991589 -0.0347505 0.0195544)
(1.00551 -0.0260636 0.00833752)
(1.0237 -0.0129923 -0.000235848)
(1.0397 0.00148007 -0.00194965)
(1.0472 0.0130285 0.00168484)
(1.04523 0.0134622 0.00166854)
(1.04554 0.00496968 -0.004436)
(1.04507 -0.00830003 -0.00542413)
(1.05121 -0.018012 0.00338358)
(1.0607 -0.021586 0.0199967)
(1.06952 -0.020234 0.0374238)
(1.04987 -0.0581659 0.0535263)
(1.07317 -0.0390071 0.00953995)
(1.1044 -0.00568307 -0.0304977)
(1.1263 0.0291907 -0.0399393)
(1.12321 0.044385 -0.0245326)
(1.10361 0.032557 -0.0126272)
(1.08063 0.0100989 -0.0214696)
(1.05857 -0.00520209 -0.0454263)
(1.04335 -0.00700919 -0.0603633)
(1.03532 0.000353398 -0.0552007)
(1.04152 0.0102442 -0.0393997)
(1.05891 0.0161447 -0.0245421)
(1.08265 0.0201068 -0.0168339)
(1.09663 0.0165915 -0.0192438)
(1.08138 0.00287357 -0.0236795)
(1.05248 -0.0114113 -0.0203703)
(1.03002 -0.0163684 -0.00810367)
(1.02652 -0.00679917 0.00674305)
(1.0534 0.0087898 0.0109439)
(1.0989 0.0213873 0.00663627)
(1.13229 0.026484 0.00524582)
(1.12721 0.0269296 0.00668612)
(1.07943 0.0300712 0.00824977)
(1.02155 0.0302969 0.00792268)
(0.984248 0.0230485 0.00548778)
(0.969518 0.00967503 0.00325208)
(0.971755 -0.0185295 0.00164446)
(0.976218 -0.0502018 0.000837615)
(0.972111 -0.0680399 -0.00177683)
(0.967298 -0.0727053 -0.00582825)
(0.971111 -0.0613125 -0.00351267)
(0.985434 -0.039557 0.00121479)
(1.00066 -0.0188495 0.000183204)
(1.00602 -0.00867094 -0.00556408)
(1.00461 -0.0132668 -0.0149472)
(1.00818 -0.0280451 -0.0162452)
(1.0184 -0.0420832 0.00084216)
(1.03315 -0.0482887 0.0321545)
(1.03519 -0.0554615 0.0648509)
(1.03645 -0.0621902 0.0758249)
(1.06312 -0.054757 -0.00899338)
(1.07097 -0.0461963 -0.0614049)
(1.07809 -0.0150853 -0.0765499)
(1.08296 0.0225993 -0.0580629)
(1.08082 0.0424535 -0.0335229)
(1.0759 0.0436343 -0.0244523)
(1.0597 0.0342815 -0.0337906)
(1.0358 0.0175477 -0.0444016)
(1.02155 0.00164725 -0.0380714)
(1.02912 -0.00821063 -0.021754)
(1.05389 -0.0114242 -0.0130895)
(1.08159 -0.00634622 -0.0190907)
(1.10152 0.00608007 -0.0304946)
(1.10328 0.0146868 -0.0349535)
(1.08538 0.0126165 -0.0285968)
(1.06509 0.00165765 -0.0126002)
(1.05444 -0.0087389 0.00302827)
(1.05446 -0.00786105 0.0104084)
(1.06749 -0.00117484 0.0142067)
(1.07378 0.00893005 0.021773)
(1.06175 0.0241778 0.0311057)
(1.04298 0.0410385 0.0277636)
(1.02562 0.0572269 0.00951302)
(1.01889 0.062181 -0.0120704)
(1.02127 0.0489107 -0.0284792)
(1.0307 0.0204933 -0.031664)
(1.04713 -0.0183779 -0.0241462)
(1.05667 -0.0496593 -0.0194758)
(1.05132 -0.0642051 -0.0244629)
(1.03537 -0.0675637 -0.0278352)
(1.01377 -0.0622753 -0.0188706)
(0.993345 -0.0554839 -0.00666172)
(0.984816 -0.048865 0.00166346)
(0.997086 -0.0400377 0.00967502)
(1.02201 -0.0300074 0.0203026)
(1.04136 -0.0259606 0.0402319)
(1.05015 -0.0260211 0.0702877)
(1.04291 -0.0254896 0.0965491)
(1.03264 -0.0342765 0.0952129)
(1.04341 -0.0483278 0.0549252)
(1.03681 -0.0625163 -0.067652)
(1.04717 -0.0525595 -0.0968735)
(1.05169 -0.0154936 -0.0736942)
(1.04747 0.0285697 -0.0259595)
(1.04097 0.047575 -0.00277196)
(1.04161 0.0432274 -0.0214898)
(1.03459 0.0266445 -0.0545303)
(1.02345 0.00522614 -0.0640422)
(1.02662 -0.00952395 -0.0406457)
(1.04514 -0.0109381 -0.00617013)
(1.06568 -0.00437944 0.0148182)
(1.08107 0.00454641 0.0102133)
(1.08814 0.0145721 -0.0125307)
(1.08019 0.0154556 -0.0394203)
(1.06635 0.00388301 -0.0529917)
(1.07545 -0.010062 -0.0335488)
(1.09722 -0.0161206 -0.000931195)
(1.10639 -0.00746667 0.0203923)
(1.09794 0.00806909 0.0298136)
(1.07086 0.0230678 0.0358399)
(1.04872 0.041774 0.0455961)
(1.04105 0.0576838 0.0402108)
(1.04579 0.0624118 0.020147)
(1.06359 0.0517342 -0.00304858)
(1.07963 0.0283601 -0.024864)
(1.08932 0.00768693 -0.0273157)
(1.08281 -0.00462021 -0.018519)
(1.05625 -0.0153183 -0.0196853)
(1.02817 -0.0333497 -0.0278221)
(1.01926 -0.0523438 -0.0246561)
(1.02667 -0.0589127 -0.00368181)
(1.02838 -0.0513364 0.022501)
(1.01879 -0.0400997 0.0430423)
(1.01029 -0.0336779 0.0555818)
(1.00749 -0.0322718 0.0611148)
(1.00466 -0.0362175 0.0699446)
(1.00655 -0.0301982 0.081514)
(1.00115 -0.0195891 0.0776485)
(0.995627 -0.0313206 0.0490484)
(1.01166 -0.0532817 -0.00496677)
(0.981395 -0.0465739 -0.0627365)
(0.997615 -0.038805 -0.0680996)
(1.02963 0.00126317 -0.027626)
(1.05736 0.0356512 0.026759)
(1.06599 0.0360146 0.0380405)
(1.06493 0.0308369 0.00179841)
(1.05697 0.0319099 -0.0293876)
(1.04473 0.0219184 -0.0262209)
(1.03988 0.00811606 -0.00548333)
(1.04582 0.00231047 0.00758184)
(1.05882 -0.00327961 0.00705273)
(1.07407 -0.00988456 -0.00268858)
(1.08429 -0.00744201 -0.0174631)
(1.0735 -0.000695195 -0.0350245)
(1.05732 0.00154058 -0.0356681)
(1.05301 -0.00322064 -0.0159222)
(1.0419 -0.0114979 -0.0031387)
(1.03283 -0.00950302 0.0112722)
(1.03142 0.00238489 0.0366284)
(1.03133 0.0165551 0.0659047)
(1.03666 0.0421172 0.0777675)
(1.04512 0.0640757 0.0552909)
(1.06829 0.0696059 0.0342524)
(1.09949 0.060381 0.0222146)
(1.12006 0.0389411 0.0123843)
(1.11933 0.0206705 0.00760691)
(1.08292 0.00741133 -0.00639143)
(1.04334 -0.00549076 -0.0170074)
(1.01926 -0.0279407 -0.00944637)
(1.00103 -0.0577087 0.00300146)
(0.991242 -0.072731 0.00743831)
(0.996837 -0.0616102 0.00812619)
(1.01704 -0.0363869 0.0223724)
(1.02413 -0.0152934 0.0467834)
(1.00435 -0.00631001 0.0554544)
(0.983104 -0.00985247 0.0485934)
(0.980922 -0.00564176 0.0348897)
(0.979962 0.00713655 0.0211579)
(0.97566 -0.000616058 0.0106018)
(0.975162 -0.0272846 -0.0211465)
(0.951569 -0.0399655 -0.0353149)
(0.971881 -0.0416926 -0.000929888)
(1.01467 -0.0134653 0.058656)
(1.04843 0.0228478 0.0857364)
(1.03859 0.034711 0.0563122)
(1.03334 0.0384989 0.0166511)
(1.04882 0.0450905 0.0119026)
(1.04609 0.0350075 0.0254986)
(1.03962 0.0158924 0.0181753)
(1.04876 0.0103267 -0.0070382)
(1.04867 0.00713841 -0.0220619)
(1.02211 -0.00526718 -0.0162995)
(0.988327 -0.0133369 -0.00962477)
(0.965855 -0.0117578 -0.011445)
(0.981297 -0.00320343 0.00297537)
(1.02607 0.00460006 0.0213333)
(1.04893 0.00266774 0.0175558)
(1.06106 0.00358137 0.0199343)
(1.0776 0.0136867 0.041142)
(1.07461 0.0286284 0.0693446)
(1.07244 0.0559306 0.0695657)
(1.07332 0.0742639 0.0383863)
(1.08944 0.0711258 0.0236791)
(1.12617 0.0542116 0.0286708)
(1.15066 0.0252791 0.0355552)
(1.15394 0.00238649 0.0183842)
(1.13423 -0.0016995 -0.0234891)
(1.12237 0.0081126 -0.0296364)
(1.09382 0.00426515 0.00434762)
(1.03577 -0.0262358 0.0243241)
(0.993205 -0.054157 0.0150531)
(0.975176 -0.0515179 0.00534901)
(0.976592 -0.022005 0.0150846)
(0.974631 0.0127129 0.0179719)
(0.969832 0.0271766 -0.00356039)
(0.977227 0.014592 -0.0246192)
(0.983141 0.00407028 -0.0265795)
(0.969518 0.00342813 -0.00981341)
(0.952354 -0.00608756 -0.00136042)
(0.944511 -0.0237982 -0.0231179)
(0.939948 -0.0442312 0.00765041)
(0.924676 -0.0367851 0.0809136)
(0.918115 -0.00565388 0.113723)
(0.934073 0.0178532 0.0808513)
(0.958969 0.00763105 0.0402115)
(1.00362 0.0144008 0.0420695)
(1.01985 0.0462756 0.053192)
(1.00407 0.0469846 0.0303493)
(0.996532 0.0253827 -0.00256259)
(0.989023 0.01933 -0.0124741)
(0.948995 0.00959319 -0.0120578)
(0.904523 -0.0255003 -0.020173)
(0.896083 -0.0584455 -0.023574)
(0.904674 -0.0617835 0.00140934)
(0.93253 -0.0375964 0.0471423)
(0.96375 -0.0110154 0.0639192)
(0.979988 0.000315221 0.0595142)
(1.00475 0.0150416 0.078739)
(1.00706 0.0337796 0.108868)
(1.00897 0.0460241 0.10928)
(1.03397 0.0603596 0.0646186)
(1.03014 0.0566318 0.0199076)
(1.04119 0.0434585 0.0159804)
(1.07846 0.0361108 0.020788)
(1.09966 0.0146402 0.00407223)
(1.1083 -0.0135662 -0.0316554)
(1.10346 -0.0167378 -0.0438227)
(1.08212 0.0136739 -0.00661707)
(1.01988 0.0246557 0.0316541)
(0.959308 -0.00802095 0.0348491)
(0.924549 -0.0429875 0.0142317)
(0.900997 -0.0484585 -0.0149741)
(0.917476 -0.0168331 -0.0349695)
(0.961652 0.026007 -0.0402516)
(0.988464 0.0310074 -0.0369811)
(0.97974 -0.000362607 -0.0349658)
(0.951639 -0.017277 -0.0365338)
(0.916496 -0.0115426 -0.0361416)
(0.899004 -0.0137255 -0.0407221)
(0.919412 -0.0313703 -0.0385343)
(0.965994 -0.0461595 0.018184)
(0.968577 -0.0493707 0.0997867)
(0.969246 -0.0218711 0.134968)
(0.976994 -0.00822546 0.0884207)
(0.979467 -0.0239069 0.0350011)
(0.96414 -0.00260351 0.029535)
(0.964946 0.0382657 0.0261564)
(1.01404 0.0363214 -0.00122795)
(1.05646 0.0230804 -0.0164461)
(1.04439 0.0345884 -0.016538)
(1.00386 0.0325672 -0.0341591)
(0.989933 -0.0117718 -0.052605)
(0.982364 -0.0562102 -0.0219711)
(0.947607 -0.0693059 0.0410525)
(0.931953 -0.0635969 0.0791082)
(0.941661 -0.0531287 0.0770224)
(0.949425 -0.039016 0.084301)
(0.94608 -0.00767938 0.115393)
(0.942828 0.0213204 0.119167)
(0.952913 0.0257565 0.0732306)
(0.951441 0.0217592 0.0123851)
(0.938142 0.0155514 -0.00853939)
(0.9556 0.0135149 0.00153046)
(1.00947 0.0116682 -0.0120481)
(1.06997 -0.00549765 -0.033919)
(1.08668 -0.0138386 -0.0287815)
(1.0123 0.00591072 -0.000176691)
(0.928262 0.0328873 0.0266682)
(0.905778 0.0273522 0.0310051)
(0.909394 -0.00230461 0.030347)
(0.907358 -0.0271086 0.0189594)
(0.901114 -0.0452506 -0.0109738)
(0.923763 -0.0392488 -0.034221)
(0.981118 -0.000429332 -0.0460088)
(1.00192 0.0198499 -0.0484525)
(0.972271 -0.010269 -0.0413701)
(0.940738 -0.0384676 -0.0287526)
(0.908254 -0.0317206 -0.0157895)
(0.900409 -0.0177984 -0.0228999)
(0.937967 -0.0247482 -0.0290106)
(1.00847 -0.061673 0.0589077)
(0.989153 -0.0458555 0.138211)
(0.987537 -0.00198643 0.129871)
(0.990899 0.00949636 0.0629177)
(0.97631 -0.0103985 0.0308224)
(0.961913 -0.00762223 0.0289969)
(0.973985 0.00789832 0.00206152)
(1.01271 0.0084172 -0.0329602)
(1.0309 0.0177064 -0.0313703)
(1.0112 0.0346077 -0.0161545)
(0.977725 0.0199933 -0.0394861)
(0.966866 -0.021277 -0.0571629)
(0.960867 -0.0481699 -0.00116252)
(0.938242 -0.0542871 0.0715624)
(0.923429 -0.0509615 0.0925204)
(0.912762 -0.0456949 0.0781549)
(0.915037 -0.0359621 0.077448)
(0.928364 -0.0115107 0.0916405)
(0.934909 0.0121851 0.0787334)
(0.939447 0.0172812 0.0342089)
(0.930487 0.0180741 -0.00275021)
(0.914434 0.00740246 -0.00448328)
(0.945979 -0.0124501 -0.00437043)
(1.01745 -0.010388 -0.0189791)
(1.02764 0.00563496 -0.00806747)
(0.950512 0.0139947 0.0175367)
(0.860421 0.00537808 0.0239368)
(0.841375 -0.00425711 0.00657413)
(0.875575 -0.01228 -0.00146251)
(0.89479 -0.0177201 0.016494)
(0.901135 -0.023743 0.00978181)
(0.911099 -0.0374872 -0.0165268)
(0.938589 -0.0330966 -0.0283476)
(0.979976 0.00909662 -0.0386136)
(0.981407 0.0252181 -0.0390743)
(0.948311 -0.020439 -0.0328023)
(0.931291 -0.0498148 -0.021573)
(0.917628 -0.031914 0.0015955)
(0.923929 -0.018187 -0.00318855)
(0.98121 -0.0384175 -0.00628865)
(0.969907 -0.0655159 0.128434)
(0.938294 -0.0307887 0.131923)
(0.973513 0.00611068 0.0565444)
(0.984216 -0.00131052 0.0287449)
(0.974469 -0.0240953 0.0449481)
(0.966385 -0.0164513 0.0151907)
(0.967448 -0.00529687 -0.0565768)
(1.00312 -0.00831229 -0.0827172)
(1.01083 0.00699324 -0.0411296)
(0.95768 0.0291949 -0.00498089)
(0.903762 0.0159288 -0.0314091)
(0.896242 -0.019657 -0.0367424)
(0.901424 -0.0391012 0.0362256)
(0.90746 -0.0367939 0.0940534)
(0.914035 -0.0324446 0.087052)
(0.898757 -0.0435549 0.0572825)
(0.904985 -0.0446986 0.0400926)
(0.920531 -0.0103836 0.0447406)
(0.921257 0.0233067 0.0394196)
(0.943405 0.0239566 0.00444758)
(0.938805 0.0147336 -0.021918)
(0.890353 -0.0106012 -0.011713)
(0.902887 -0.0372426 -0.00194066)
(0.981284 -0.00893174 -0.00831268)
(1.02122 0.032778 0.00576644)
(0.979151 0.0241726 0.0296408)
(0.894674 -0.0133472 0.0226015)
(0.850071 -0.0327046 -0.00376377)
(0.869684 -0.0307273 0.00624284)
(0.906762 -0.0223033 0.0202605)
(0.922667 -0.0173343 -0.0214414)
(0.925272 -0.021939 -0.0567233)
(0.94224 -0.0199572 -0.0563965)
(0.975523 0.011606 -0.0507402)
(0.989667 0.0234923 -0.0329287)
(0.970941 -0.0167555 -0.0287964)
(0.96604 -0.0482595 -0.023213)
(0.977663 -0.0417639 0.00536051)
(0.991225 -0.0418467 0.00822411)
(1.01277 -0.0625322 0.0426821)
(0.914283 -0.0282882 0.131769)
(0.965823 -0.00748797 0.0679599)
(1.01461 -0.000961032 -0.00331035)
(0.96901 -0.0194437 0.0258949)
(0.943998 -0.025969 0.0464116)
(0.961475 -0.0138215 -0.025081)
(0.965929 -0.0268323 -0.100367)
(0.975606 -0.0270326 -0.0859307)
(0.961347 0.0137657 -0.0240665)
(0.916249 0.0359978 -0.00218353)
(0.889673 0.00809661 -0.0458914)
(0.883821 -0.0265984 -0.0397627)
(0.879985 -0.0368293 0.0430372)
(0.904828 -0.0215091 0.075992)
(0.916472 -0.0168345 0.0475038)
(0.885254 -0.040134 0.0255103)
(0.892782 -0.0447189 0.0143952)
(0.912768 -0.00457577 0.0170071)
(0.921218 0.0268436 0.00935985)
(0.955793 0.0278653 -0.0204382)
(0.937774 0.0332149 -0.0292762)
(0.866661 0.0114436 -0.00518515)
(0.874192 -0.0348718 0.0102094)
(0.970446 -0.0241284 0.00770768)
(1.02859 0.015271 0.0221487)
(0.991458 0.0196436 0.0414714)
(0.900755 -0.00524522 0.0281797)
(0.844402 -0.0349213 0.0155499)
(0.864427 -0.0448618 0.0374355)
(0.909341 -0.0255217 0.0209546)
(0.914198 -0.0133499 -0.0440675)
(0.91091 -0.0260959 -0.0678924)
(0.934952 -0.0271556 -0.0668767)
(0.970913 0.00986973 -0.0625502)
(1.00195 0.0287352 -0.0324641)
(1.00908 -0.00868673 -0.0187926)
(1.01439 -0.0460277 -0.00160124)
(1.00297 -0.0473329 0.0352522)
(0.9572 -0.0466785 0.0436483)
(0.929257 -0.0452224 0.0843084)
(0.907733 -0.0212862 0.0821569)
(1.00769 -0.00121354 0.00542318)
(1.02887 0.00570779 -0.0196852)
(0.95507 -0.0208683 0.0272841)
(0.944482 -0.0312578 0.0175223)
(0.96877 -0.0122349 -0.0597624)
(0.924487 -0.0194017 -0.0751664)
(0.874542 -0.0211124 -0.0189012)
(0.866613 0.0122535 0.0187363)
(0.878392 0.0216383 -0.00875276)
(0.88922 -0.00696244 -0.0595015)
(0.867903 -0.0306735 -0.0215464)
(0.843521 -0.0331042 0.0539954)
(0.881501 -0.0073173 0.0452001)
(0.890696 -0.00151622 0.00449064)
(0.851986 -0.033311 -0.000179761)
(0.87582 -0.0393142 -0.00247429)
(0.91511 0.00424543 -0.0038549)
(0.92702 0.0349662 -0.0157749)
(0.948688 0.0370097 -0.0339743)
(0.934253 0.0525059 -0.0219894)
(0.885665 0.0275172 0.00324716)
(0.878416 -0.04314 0.0102712)
(0.945601 -0.0465274 0.014639)
(0.99703 0.00118802 0.0357763)
(0.982086 0.0216555 0.0464961)
(0.918073 -0.000232443 0.0269505)
(0.875131 -0.0433725 0.0219954)
(0.891095 -0.0536544 0.0322009)
(0.917496 -0.0203155 -0.00934041)
(0.910804 -0.00434274 -0.0607464)
(0.920355 -0.0243714 -0.0595708)
(0.948754 -0.0324144 -0.0635581)
(0.983209 -0.00502234 -0.0629111)
(1.02913 0.00665749 -0.0317321)
(1.03963 -0.0228922 -0.00875888)
(1.00045 -0.0420502 0.0301814)
(0.930393 -0.0331442 0.0622519)
(0.873931 -0.0367308 0.0526447)
(0.863322 -0.0388639 0.0776938)
(0.925457 -0.0208267 0.0511701)
(0.995184 0.00818248 -0.0117518)
(0.9948 0.0194552 -0.0118855)
(0.951658 -0.0170786 0.0185368)
(0.963271 -0.0338951 -0.0175135)
(0.964689 0.000284737 -0.0699568)
(0.880386 -0.0045417 -0.043405)
(0.815932 -0.0319581 0.020039)
(0.826472 -0.0105488 0.0280624)
(0.876837 0.00148802 -0.0377963)
(0.916511 -0.0141135 -0.0861808)
(0.88687 -0.0245522 -0.0218915)
(0.84749 -0.0245755 0.0448885)
(0.89778 -0.00330033 0.0110358)
(0.914003 -0.00371534 -0.0209727)
(0.860818 -0.0383148 -0.00855102)
(0.868733 -0.0391917 -0.0107393)
(0.924039 0.0130779 -0.0161128)
(0.938948 0.0410519 -0.0294843)
(0.926778 0.0368616 -0.036592)
(0.941486 0.0602236 -0.0113991)
(0.946004 0.0430734 0.00023145)
(0.891309 -0.0298728 0.00122865)
(0.880004 -0.0517005 0.019429)
(0.924881 -0.0160299 0.0344066)
(0.939379 0.00581673 0.0236459)
(0.899023 -0.0115608 0.0106074)
(0.868334 -0.054546 0.0219607)
(0.883788 -0.0601675 0.0210632)
(0.905714 -0.0227798 -0.0275482)
(0.92006 -0.00968868 -0.0603981)
(0.950183 -0.0308567 -0.0522994)
(0.968707 -0.0413776 -0.0533478)
(0.988668 -0.0239226 -0.0282214)
(1.00002 -0.0093909 0.0188957)
(0.982347 -0.0166501 0.0311363)
(0.949273 -0.0225903 0.051618)
(0.906301 -0.0204225 0.0528422)
(0.882332 -0.0338695 0.0249691)
(0.886742 -0.0399366 0.0526236)
(0.904902 -0.0104889 0.03531)
(0.948456 0.0149078 -0.0242143)
(0.9506 0.015911 0.00664105)
(0.94569 -0.0227021 0.0368618)
(0.975642 -0.0343052 -0.0305887)
(0.963026 0.00801806 -0.0810783)
(0.878231 -0.00501549 -0.0386346)
(0.820623 -0.0501681 0.0263396)
(0.84166 -0.0361977 0.016062)
(0.905575 -0.0165934 -0.0742318)
(0.936849 -0.00944838 -0.107083)
(0.88581 -0.00772937 -0.0161989)
(0.846474 -0.0187217 0.0398374)
(0.913092 -0.0107277 -0.00910893)
(0.937345 -0.0112429 -0.0309566)
(0.86702 -0.0348583 -0.0145152)
(0.849325 -0.0310399 -0.0233069)
(0.930777 0.02015 -0.0279815)
(0.951472 0.0465298 -0.03291)
(0.894667 0.0385796 -0.0355073)
(0.954244 0.0563009 -0.0239295)
(1.01213 0.0506855 -0.0209661)
(0.919297 -0.0085739 0.0117807)
(0.839381 -0.0479362 0.0284754)
(0.840236 -0.0327617 -0.00524383)
(0.838945 -0.0107493 -0.0287419)
(0.817114 -0.0229739 -0.00922925)
(0.810266 -0.0607762 0.0115551)
(0.834624 -0.0598416 -0.00266499)
(0.869257 -0.0218651 -0.0542637)
(0.921807 -0.0131735 -0.0740349)
(0.967717 -0.0299829 -0.0505381)
(0.953489 -0.0388072 -0.0250758)
(0.925598 -0.029566 0.0270876)
(0.910262 -0.0158691 0.05813)
(0.919975 -0.016554 0.0444317)
(0.936175 -0.018752 0.057903)
(0.908811 -0.0208182 0.0389114)
(0.888985 -0.0372137 0.00613485)
(0.887579 -0.0365273 0.0479248)
(0.877871 -0.00748245 0.02816)
(0.930067 0.00881659 -0.0346301)
(0.938311 0.00332083 0.0159364)
(0.933475 -0.0274115 0.0509771)
(0.948806 -0.0310093 -0.0366227)
(0.954649 0.00813303 -0.105271)
(0.905768 -0.0103249 -0.0599316)
(0.826106 -0.054681 0.0108148)
(0.840975 -0.0452084 -0.0152218)
(0.906245 -0.0214627 -0.103253)
(0.923059 0.000781607 -0.110715)
(0.87 0.00602088 -0.0109994)
(0.859503 -0.0240935 0.0360571)
(0.934088 -0.033301 -0.0136924)
(0.931273 -0.0191289 -0.0307554)
(0.838661 -0.022806 -0.0252059)
(0.842306 -0.0270728 -0.0410346)
(0.961184 0.0173289 -0.034081)
(0.944815 0.0504885 -0.0262586)
(0.881717 0.0273494 -0.0388555)
(0.989459 0.0321242 -0.0550288)
(1.04405 0.0516643 -0.0365252)
(0.957576 0.0129009 0.0363484)
(0.869211 -0.0397131 0.0244717)
(0.792956 -0.0398852 -0.0486078)
(0.758567 -0.0198172 -0.0499621)
(0.761349 -0.0257204 -0.0113233)
(0.763085 -0.0528318 -0.00698937)
(0.780318 -0.0548825 -0.0350587)
(0.84108 -0.031843 -0.0784023)
(0.911162 -0.018739 -0.0675663)
(0.922838 -0.0217439 -0.0208098)
(0.872404 -0.033976 0.0164986)
(0.830353 -0.0350068 0.063706)
(0.814055 -0.0249934 0.0663062)
(0.841253 -0.0218794 0.0333475)
(0.87786 -0.0206286 0.0429993)
(0.872774 -0.0263025 0.0100716)
(0.864379 -0.0372593 -0.00787265)
(0.855081 -0.0296079 0.055314)
(0.862938 -0.0145695 0.0143602)
(0.900456 -0.00292186 -0.0448101)
(0.925901 -0.00804148 0.00624391)
(0.919582 -0.0348303 0.0411461)
(0.904393 -0.0341096 -0.0389607)
(0.946343 0.00960875 -0.112808)
(0.921981 0.00377014 -0.0752836)
(0.821717 -0.0429391 -0.0185893)
(0.822944 -0.0565134 -0.0449179)
(0.863098 -0.0371974 -0.10312)
(0.857803 0.00021851 -0.0924222)
(0.853751 0.00417225 0.00266363)
(0.88099 -0.0426944 0.0376139)
(0.895557 -0.0545169 -0.0138288)
(0.853044 -0.0176599 -0.0383131)
(0.818685 -0.0109016 -0.0413837)
(0.876392 -0.0324777 -0.0380017)
(0.963633 0.00919715 -0.0174423)
(0.915031 0.0469282 -0.0144672)
(0.905789 0.00457544 -0.0326626)
(0.992517 0.00550379 -0.0582433)
(0.997737 0.0476174 -0.0266283)
(0.972315 0.0207174 0.0485055)
(0.921067 -0.0284781 0.0304407)
(0.815232 -0.0325865 -0.0202929)
(0.764781 -0.0221138 -0.00766127)
(0.757977 -0.0247781 0.00158058)
(0.741873 -0.042269 -0.015388)
(0.745016 -0.0485776 -0.0305138)
(0.781176 -0.0290036 -0.0362299)
(0.833298 -0.00538864 -0.00837529)
(0.857792 -0.00685582 0.0118731)
(0.818217 -0.0308581 0.0263517)
(0.770715 -0.0360522 0.0655054)
(0.764806 -0.0250125 0.0561936)
(0.816482 -0.0209453 0.0176802)
(0.857063 -0.0210051 0.0219733)
(0.850565 -0.0262319 -0.00859782)
(0.849618 -0.0270046 -0.00186226)
(0.847753 -0.0223609 0.0595192)
(0.851427 -0.0169101 -0.0116182)
(0.84709 -0.0168802 -0.0601759)
(0.898321 -0.021439 -0.0147034)
(0.911682 -0.0386727 0.0173208)
(0.882885 -0.0325077 -0.0438835)
(0.933856 0.0125447 -0.120611)
(0.925568 0.0191339 -0.0934722)
(0.842191 -0.0338393 -0.0463898)
(0.780062 -0.0644118 -0.0563615)
(0.751621 -0.0456882 -0.0669556)
(0.784221 -0.0131138 -0.0301348)
(0.832095 -0.0157952 0.0512448)
(0.806255 -0.0477428 0.0441879)
(0.767286 -0.0526435 -0.0341509)
(0.782861 -0.017525 -0.0523708)
(0.844035 -0.0128826 -0.0320755)
(0.882889 -0.0352299 -0.0137005)
(0.901814 0.00789301 -0.000812143)
(0.878706 0.0344583 -0.00826547)
(0.869432 -0.0165389 -0.0299974)
(0.887715 -0.00278189 -0.0503894)
(0.912127 0.0424579 -0.00684493)
(0.947801 0.0129276 0.0431456)
(0.904183 -0.0229993 0.0168679)
(0.818423 -0.0223953 -0.00564034)
(0.792858 -0.0167218 -0.00226256)
(0.756702 -0.0157182 -0.00389424)
(0.688195 -0.0285944 0.0126389)
(0.67975 -0.0359164 0.0192446)
(0.728099 -0.0208542 0.0134339)
(0.808866 -0.00227388 0.0156437)
(0.840865 -0.00568725 0.0063478)
(0.784386 -0.0294049 0.0165015)
(0.737846 -0.0339018 0.065142)
(0.768615 -0.0237075 0.0571986)
(0.849028 -0.0211307 0.0107761)
(0.864402 -0.0217484 0.0131183)
(0.840135 -0.0237699 0.00299133)
(0.859138 -0.0147056 0.0223046)
(0.872265 -0.010387 0.0527439)
(0.852452 -0.0127849 -0.0349351)
(0.83065 -0.0218439 -0.0729841)
(0.876298 -0.0353014 -0.0225876)
(0.903239 -0.0445578 -0.00576021)
(0.877735 -0.0277814 -0.0719602)
(0.874708 0.0144744 -0.116863)
(0.900081 0.0161402 -0.0723712)
(0.845688 -0.0270121 -0.0502845)
(0.704775 -0.0489609 -0.039545)
(0.648565 -0.0499238 -0.00116077)
(0.685609 -0.0373866 0.0493189)
(0.682734 -0.0219875 0.0920341)
(0.666551 -0.0354047 0.0363577)
(0.688943 -0.0475693 -0.0415005)
(0.784116 -0.0220634 -0.0338145)
(0.866264 -0.0148898 -0.00436463)
(0.861687 -0.0315979 0.000565822)
(0.843209 0.000735891 -0.00113068)
(0.81112 0.0136748 -0.0169656)
(0.768284 -0.0299572 -0.044943)
(0.779626 -0.0111836 -0.0411233)
(0.875961 0.0269542 0.0255146)
(0.923201 0.00288345 0.0363844)
(0.832185 -0.0253025 -0.0111308)
(0.785499 -0.0276856 -0.0311597)
(0.810851 -0.0136444 -0.0294434)
(0.748881 -0.00150681 0.000677677)
(0.64485 -0.0188546 0.0470182)
(0.644143 -0.0338187 0.0452879)
(0.714632 -0.0233452 0.0282667)
(0.801271 -0.00766724 0.01927)
(0.801776 -0.0063325 0.00482046)
(0.745408 -0.0292524 0.00929848)
(0.739307 -0.0384812 0.0561714)
(0.8013 -0.0267459 0.0472204)
(0.86951 -0.0218203 -0.00532342)
(0.848063 -0.0243307 0.00717982)
(0.829663 -0.0210695 0.0178287)
(0.873088 -0.000772098 0.0329096)
(0.887738 0.00117106 0.0383143)
(0.858352 -0.0108145 -0.0621363)
(0.868323 -0.0252723 -0.0905367)
(0.894105 -0.0507838 -0.0239862)
(0.87547 -0.0540016 -0.0317498)
(0.809934 -0.02271 -0.0920763)
(0.806404 0.0134954 -0.079927)
(0.869676 0.0120359 -0.0327999)
(0.81938 -0.0168295 -0.0205231)
(0.688469 -0.0416532 -0.00928472)
(0.595626 -0.0536142 0.00625153)
(0.579173 -0.0383209 0.0428032)
(0.619032 -0.0171945 0.0692359)
(0.638993 -0.0296972 0.017052)
(0.686002 -0.0382807 -0.0221089)
(0.793805 -0.016218 -0.00407868)
(0.864541 -0.0132248 0.0116233)
(0.868436 -0.0267208 0.011418)
(0.816743 -0.0028323 -0.000528813)
(0.746043 -0.00225383 -0.0274789)
(0.716205 -0.0406352 -0.0452706)
(0.742701 -0.0244541 -0.0161064)
(0.871579 0.00939361 0.0456431)
(0.905627 -0.000925534 0.0352092)
(0.79338 -0.0269771 -0.0182345)
(0.764772 -0.0370031 -0.050209)
(0.811105 -0.0109087 -0.0429835)
(0.756158 0.00926383 0.0193728)
(0.669042 -0.0147418 0.0644469)
(0.663417 -0.0344939 0.0342109)
(0.721386 -0.0281444 0.00926034)
(0.789366 -0.0150574 0.00836456)
(0.772878 -0.00900279 0.00230793)
(0.730855 -0.0303718 0.00233414)
(0.751671 -0.0432071 0.0398352)
(0.821816 -0.0287026 0.0178894)
(0.854187 -0.0211068 -0.03428)
(0.816052 -0.026007 -0.00821029)
(0.819682 -0.015903 0.00439643)
(0.876813 0.00877183 0.0161783)
(0.879959 0.00362998 0.0216942)
(0.860094 -0.0151586 -0.0969087)
(0.916742 -0.0269623 -0.113245)
(0.909782 -0.0523246 -0.0287023)
(0.809268 -0.0538106 -0.0452807)
(0.744377 -0.0207308 -0.0833589)
(0.7841 0.0112872 -0.0374033)
(0.837109 0.0148053 0.00691252)
(0.777193 -0.0101405 0.00886611)
(0.676306 -0.0344562 -0.0114629)
(0.609965 -0.0436131 -0.0146516)
(0.604391 -0.0289864 0.0208409)
(0.64236 -0.0143771 0.0330776)
(0.655786 -0.027673 -0.0114108)
(0.691099 -0.0274173 -0.0129346)
(0.786668 -0.00637831 0.0144863)
(0.851208 -0.0104847 0.0312677)
(0.854096 -0.0156712 0.030814)
(0.775221 0.00739229 0.00106079)
(0.711292 -0.00983951 -0.0296127)
(0.70767 -0.0431223 -0.0359614)
(0.736707 -0.0300824 -0.00130753)
(0.866481 -0.00378194 0.0526413)
(0.900472 -0.0047497 0.0414085)
(0.796922 -0.029261 -0.0196919)
(0.766237 -0.0434682 -0.0630592)
(0.807066 -0.00921835 -0.0440273)
(0.768004 0.0149081 0.036846)
(0.71171 -0.0124317 0.0657915)
(0.695775 -0.0328684 0.0158032)
(0.728821 -0.0297585 -0.012862)
(0.776379 -0.0200826 -0.00418317)
(0.758403 -0.0110297 -0.00179565)
(0.719859 -0.0280657 -0.00434262)
(0.747505 -0.0417989 0.0200779)
(0.824807 -0.0299533 -0.00916055)
(0.836979 -0.0227945 -0.0476741)
(0.805815 -0.025631 -0.0265004)
(0.831356 -0.00968935 -0.034732)
(0.87629 0.0114176 -0.00959971)
(0.855548 -0.00315925 0.00743971)
(0.840468 -0.0199122 -0.129047)
(0.932029 -0.0244344 -0.118318)
(0.910757 -0.0443022 -0.0335201)
(0.748384 -0.0479694 -0.0491428)
(0.688948 -0.0214145 -0.0591523)
(0.765498 0.0100625 -0.00112751)
(0.790755 0.0232211 0.0232547)
(0.724057 0.000108594 0.0036878)
(0.637552 -0.0304018 -0.0124897)
(0.589949 -0.0374084 -0.0012167)
(0.607211 -0.0201923 0.0204101)
(0.669582 -0.0118283 -0.00197325)
(0.690539 -0.0252172 -0.0418674)
(0.704656 -0.0178368 -0.0173314)
(0.766122 0.00178427 0.0231971)
(0.811468 -0.00623696 0.0492775)
(0.807036 -0.00485351 0.0336576)
(0.729922 0.0132268 -0.00909951)
(0.69736 -0.0131365 -0.0239895)
(0.704388 -0.0407905 -0.0213859)
(0.742331 -0.032588 0.0114375)
(0.863039 -0.0140563 0.0625454)
(0.885358 -0.00995658 0.0472247)
(0.790331 -0.0317946 -0.0294261)
(0.755571 -0.0454315 -0.075143)
(0.78595 -0.00764285 -0.0402879)
(0.77059 0.0166154 0.0481533)
(0.745544 -0.0108737 0.0659918)
(0.728232 -0.0297455 0.00766067)
(0.74808 -0.0291511 -0.021948)
(0.776308 -0.0220791 -0.00985394)
(0.75039 -0.0122338 -0.0072247)
(0.712394 -0.0249123 -0.008703)
(0.742383 -0.0367263 0.00254879)
(0.816524 -0.0296814 -0.0300919)
(0.802451 -0.0238532 -0.0527923)
(0.794719 -0.0251572 -0.0507275)