/*--------------------------------*- C++ -*----------------------------------*\
  =========                 |
  \\      /  F ield         | OpenFOAM: The Open Source CFD Toolbox
   \\    /   O peration     | Website:  https://openfoam.org
    \\  /    A nd           | Version:  10
     \\/     M anipulation  |
\*---------------------------------------------------------------------------*/
FoamFile
{
    format      ascii;
    class       volVectorField;
    location    "8";
    object      U_0;
}
// * * * * * * * * * * * * * * * * * * * * * * * * * * * * * * * * * * * * * //

dimensions      [0 1 -1 0 0 0 0];

internalField   nonuniform List<vector> 
25600
(
(1.15331 0.00149625 0.00438604)
(1.13603 0.00524895 0.0120369)
(1.11344 0.0071659 0.0190201)
(1.10037 0.0125283 0.0237859)
(1.10498 0.0165631 0.0273911)
(1.1243 0.0158501 0.0302749)
(1.14356 0.00973648 0.0304527)
(1.14843 0.00224463 0.0255714)
(1.13887 -0.000579432 0.0119689)
(1.11981 0.00389694 -0.00555332)
(1.10129 0.0147167 -0.0182196)
(1.0903 0.0216188 -0.0220757)
(1.08446 0.0210045 -0.0133267)
(1.08439 0.0131912 0.000869796)
(1.09209 0.00170729 0.0116349)
(1.10908 -0.0043682 0.013865)
(1.13101 -0.00101836 0.00427629)
(1.15126 0.00688599 -0.0116305)
(1.15809 0.0156744 -0.0270302)
(1.15112 0.0208255 -0.0347097)
(1.14269 0.0214608 -0.0331359)
(1.13626 0.0211435 -0.0268187)
(1.13732 0.0175041 -0.0178677)
(1.14492 0.00932678 -0.0102703)
(1.15032 -0.00207361 -0.00441917)
(1.14854 -0.0138137 0.00103681)
(1.14192 -0.020069 0.00254757)
(1.13437 -0.0179962 0.00201243)
(1.12888 -0.0124085 -0.000886872)
(1.1253 -0.00860867 -0.00947859)
(1.12121 -0.0066342 -0.0190627)
(1.11592 -0.00341866 -0.021947)
(1.11243 0.00287009 -0.0140931)
(1.10492 0.00840436 0.0018578)
(1.09691 0.00908258 0.0175699)
(1.09276 0.00883554 0.0272411)
(1.09848 0.00789686 0.0279004)
(1.11496 0.00452687 0.0190254)
(1.13718 0.00233132 0.00861455)
(1.15367 -4.6593e-05 0.00268747)
(1.09942 -0.0140257 0.025401)
(1.09241 0.000109671 0.0408222)
(1.08689 0.00655058 0.0490005)
(1.09496 0.0132878 0.0451445)
(1.11202 0.0217987 0.030846)
(1.12924 0.0287869 0.0125195)
(1.13337 0.031085 -0.00658609)
(1.12108 0.0251695 -0.0238042)
(1.10456 0.0138721 -0.0404603)
(1.09129 0.00583371 -0.0541084)
(1.09115 0.0116282 -0.0596564)
(1.10258 0.0274686 -0.0574206)
(1.11698 0.0403129 -0.0432422)
(1.1248 0.0359099 -0.0193036)
(1.11786 0.0139798 0.00692465)
(1.10674 -0.0092952 0.0267821)
(1.10226 -0.0141528 0.0334558)
(1.11251 0.00300528 0.0273026)
(1.12861 0.0268636 0.0107101)
(1.13477 0.0475065 -0.0103867)
(1.1355 0.0530208 -0.0280553)
(1.13706 0.0412521 -0.0376702)
(1.14719 0.0235697 -0.0362105)
(1.16826 0.00481145 -0.0254243)
(1.18407 -0.0061533 -0.0107078)
(1.17814 -0.00561152 0.00388683)
(1.15193 -0.00432723 0.0153435)
(1.11967 -0.00608064 0.0215884)
(1.0991 -0.00819469 0.019111)
(1.09428 -0.0125561 0.00677323)
(1.09675 -0.0150298 -0.0108552)
(1.09965 -0.0131857 -0.0224315)
(1.10467 -0.00420108 -0.0197075)
(1.10369 0.0092451 -0.00502153)
(1.10133 0.0145485 0.0107273)
(1.10018 0.00880273 0.0168961)
(1.09904 -0.00796871 0.0131727)
(1.09782 -0.0274686 0.00596676)
(1.09956 -0.0348733 0.00407738)
(1.10108 -0.0287549 0.0113081)
(1.07648 -0.0120924 0.049154)
(1.07952 0.000606378 0.0497477)
(1.0935 0.0160308 0.0367802)
(1.115 0.0323904 0.0159118)
(1.12516 0.0424448 -0.000848688)
(1.11679 0.0418762 -0.00981166)
(1.10102 0.0330577 -0.0179838)
(1.08742 0.0201459 -0.0315329)
(1.08086 0.00808834 -0.0465963)
(1.07793 -0.00103053 -0.0554156)
(1.07857 -0.000519196 -0.0568633)
(1.08791 0.0078956 -0.0518711)
(1.11022 0.0194953 -0.0385013)
(1.13462 0.0238694 -0.0190189)
(1.14085 0.0132618 -0.00118996)
(1.12217 -0.0057668 0.0107327)
(1.08749 -0.0168972 0.0164851)
(1.0595 -0.00772447 0.0149801)
(1.04848 0.0123467 0.00567157)
(1.06253 0.0323775 -0.00560138)
(1.10375 0.0374429 -0.0115405)
(1.15462 0.0264201 -0.0103215)
(1.18983 0.0151702 -0.00482853)
(1.18218 0.00790851 0.000597361)
(1.13679 0.00551397 0.00345017)
(1.08184 0.00397726 0.00496316)
(1.0334 -0.00902079 0.00919429)
(1.00276 -0.02617 0.0171658)
(0.990355 -0.0341917 0.0230473)
(0.992657 -0.034142 0.0187859)
(1.00731 -0.0248611 0.00729323)
(1.02543 -0.0115592 -0.00071922)
(1.04089 0.0028828 -0.00176039)
(1.04749 0.0136487 0.00196018)
(1.04507 0.0129202 0.00142541)
(1.04548 0.00373283 -0.00472737)
(1.04547 -0.00955352 -0.00485587)
(1.05227 -0.0186554 0.00487573)
(1.06201 -0.0214876 0.021802)
(1.07062 -0.0194375 0.0388856)
(1.05195 -0.0567305 0.0500546)
(1.07617 -0.0361635 0.00513617)
(1.10719 -0.00214631 -0.0331468)
(1.12723 0.0317535 -0.039624)
(1.12189 0.0444513 -0.0231226)
(1.10121 0.0306329 -0.0126447)
(1.07814 0.00802775 -0.023391)
(1.05658 -0.00612208 -0.0475132)
(1.04221 -0.00664385 -0.0607865)
(1.03537 0.00135734 -0.0540186)
(1.04296 0.0112296 -0.037696)
(1.06126 0.0167698 -0.023271)
(1.08463 0.0201019 -0.016532)
(1.09639 0.0155973 -0.0196776)
(1.07891 0.00133552 -0.0237953)
(1.0498 -0.0124139 -0.0195192)
(1.02875 -0.0161068 -0.00669948)
(1.02782 -0.00545583 0.00761331)
(1.05733 0.0102802 0.0108094)
(1.10324 0.0222862 0.00628043)
(1.13366 0.0267512 0.00529501)
(1.12383 0.0271322 0.00694134)
(1.07333 0.0303026 0.00833612)
(1.01637 0.0299575 0.00770772)
(0.981548 0.0217945 0.00519313)
(0.968894 0.00730628 0.00297764)
(0.971988 -0.021739 0.00151645)
(0.975937 -0.0527516 0.000709071)
(0.97133 -0.069074 -0.00199797)
(0.967025 -0.0722494 -0.00581414)
(0.971909 -0.0596031 -0.00311811)
(0.986888 -0.0373568 0.00143623)
(1.00172 -0.0172068 -0.00012897)
(1.00617 -0.00844079 -0.00629161)
(1.0046 -0.0143931 -0.0153424)
(1.00877 -0.0295813 -0.0152563)
(1.01961 -0.0432176 0.00349764)
(1.03396 -0.0492319 0.035473)
(1.0354 -0.0562601 0.0670116)
(1.03737 -0.0621128 0.0751427)
(1.06445 -0.0545035 -0.0150302)
(1.07159 -0.0440935 -0.0647669)
(1.07867 -0.0114598 -0.0763621)
(1.08312 0.0256729 -0.0558035)
(1.08037 0.0435051 -0.0317852)
(1.07463 0.0430537 -0.0246192)
(1.05749 0.0327049 -0.0349514)
(1.03386 0.0157072 -0.0445683)
(1.02133 0.000290744 -0.0367896)
(1.0309 -0.00879552 -0.0203942)
(1.05679 -0.0111418 -0.0129678)
(1.08418 -0.00527167 -0.0200043)
(1.10255 0.00718541 -0.0313239)
(1.10224 0.0149383 -0.0348603)
(1.0833 0.0117685 -0.0273732)
(1.06348 0.000414383 -0.0108988)
(1.05384 -0.00928917 0.00415039)
(1.05508 -0.00749416 0.010895)
(1.06842 -0.000288867 0.0147502)
(1.07332 0.0103229 0.0226011)
(1.05982 0.0259411 0.031373)
(1.04081 0.0427951 0.0266372)
(1.02425 0.0582754 0.00742839)
(1.01863 0.061557 -0.0140668)
(1.02185 0.0464069 -0.0294526)
(1.03202 0.016778 -0.0313857)
(1.04833 -0.0220713 -0.0234904)
(1.05667 -0.0520536 -0.0194313)
(1.05007 -0.0650904 -0.0247553)
(1.03329 -0.0674535 -0.027483)
(1.01145 -0.0617212 -0.0178791)
(0.991772 -0.0548065 -0.00572991)
(0.984952 -0.0480526 0.00239305)
(0.998908 -0.0391195 0.010599)
(1.02422 -0.0293882 0.0219634)
(1.04274 -0.025937 0.0429043)
(1.04995 -0.0263629 0.0732448)
(1.04171 -0.0262836 0.0976956)
(1.03277 -0.0355003 0.0927041)
(1.04512 -0.0492258 0.0492595)
(1.03854 -0.0623716 -0.0721811)
(1.04777 -0.0501826 -0.096963)
(1.0517 -0.0113001 -0.0700233)
(1.04703 0.0319272 -0.0223727)
(1.04074 0.0482497 -0.00263503)
(1.04124 0.0420743 -0.024238)
(1.03365 0.0246043 -0.0567084)
(1.02322 0.00330307 -0.0631706)
(1.0279 -0.0104152 -0.0374977)
(1.04718 -0.010582 -0.00322889)
(1.06755 -0.00337824 0.0156276)
(1.08218 0.00566928 0.00871167)
(1.08786 0.0151925 -0.0151613)
(1.07885 0.0148957 -0.0415447)
(1.06623 0.00249573 -0.052616)
(1.07731 -0.0111972 -0.0307592)
(1.09889 -0.0160301 0.00180748)
(1.10629 -0.00618804 0.0219079)
(1.09582 0.00970975 0.0306176)
(1.06807 0.0248662 0.0366915)
(1.04693 0.0435333 0.0458615)
(1.0408 0.0587197 0.0388843)
(1.04709 0.06206 0.0178446)
(1.0655 0.0498137 -0.00537894)
(1.08106 0.025986 -0.0258929)
(1.08952 0.00600817 -0.0268092)
(1.08099 -0.00580352 -0.0181614)
(1.05344 -0.0168493 -0.020209)
(1.02647 -0.035249 -0.0280469)
(1.01931 -0.0535975 -0.0234894)
(1.02711 -0.0587379 -0.0014392)
(1.02781 -0.0503574 0.0248726)
(1.0177 -0.0393694 0.0446623)
(1.00974 -0.0335341 0.0563985)
(1.00728 -0.0325443 0.0618089)
(1.00449 -0.0359742 0.0710022)
(1.00595 -0.0291983 0.0818961)
(1.00025 -0.0196556 0.0757624)
(0.996091 -0.033094 0.0445046)
(1.01374 -0.0548282 -0.0110898)
(0.982522 -0.0470944 -0.0649061)
(1.00014 -0.0364686 -0.0662653)
(1.03278 0.00506222 -0.0227779)
(1.0593 0.0375023 0.0300603)
(1.06634 0.0356574 0.0366699)
(1.06444 0.030457 -0.00155827)
(1.05605 0.031475 -0.0305319)
(1.04399 0.0207877 -0.0246893)
(1.03993 0.00717252 -0.00362203)
(1.04688 0.00187143 0.00823489)
(1.06039 -0.00371852 0.0064909)
(1.07536 -0.0098911 -0.00394927)
(1.08414 -0.00677045 -0.0191082)
(1.07222 -0.000131045 -0.0358855)
(1.05662 0.00132416 -0.0345772)
(1.05235 -0.00396045 -0.014298)
(1.04084 -0.0118136 -0.00187506)
(1.03215 -0.00876396 0.0133003)
(1.03097 0.00395196 0.039411)
(1.03096 0.0188919 0.0679263)
(1.0369 0.0447349 0.0770636)
(1.04673 0.065581 0.0528551)
(1.07123 0.0694223 0.0323754)
(1.10227 0.0586096 0.021181)
(1.1211 0.0368487 0.0120054)
(1.11727 0.0190722 0.0067723)
(1.0788 0.00598418 -0.0077804)
(1.04018 -0.00735184 -0.0172511)
(1.01713 -0.0305613 -0.00850589)
(0.999512 -0.059907 0.00364831)
(0.991174 -0.0728117 0.00757245)
(0.998413 -0.0598593 0.00892595)
(1.01854 -0.0342659 0.0243373)
(1.02339 -0.0140733 0.0484816)
(1.00227 -0.0059733 0.0555632)
(0.982076 -0.00964844 0.047713)
(0.980876 -0.00479287 0.0336456)
(0.979795 0.00721947 0.0198589)
(0.975484 -0.00249904 0.00836874)
(0.975434 -0.0295321 -0.0248417)
(0.952866 -0.0408708 -0.034263)
(0.975332 -0.040596 0.00325972)
(1.01915 -0.0103333 0.0626172)
(1.05021 0.0254078 0.0853713)
(1.03788 0.0354021 0.0529718)
(1.03376 0.0387077 0.014714)
(1.04939 0.0448277 0.0127246)
(1.04547 0.0335544 0.0258583)
(1.0397 0.0146722 0.0164553)
(1.04919 0.0100132 -0.00899502)
(1.04733 0.00641765 -0.0223461)
(1.0193 -0.00624172 -0.015531)
(0.985937 -0.0135526 -0.00920795)
(0.96605 -0.0112784 -0.0107548)
(0.984545 -0.00259031 0.00454927)
(1.02956 0.00470702 0.0217982)
(1.05066 0.00244154 0.0172586)
(1.06246 0.00415583 0.0210787)
(1.07808 0.0153436 0.0435475)
(1.07389 0.0311441 0.0705867)
(1.07224 0.0583304 0.0677511)
(1.07429 0.0749207 0.0359642)
(1.09223 0.0699308 0.0233515)
(1.12922 0.0516451 0.0295432)
(1.15191 0.0225868 0.0352015)
(1.1529 0.00102079 0.0150696)
(1.13235 -0.00148062 -0.026345)
(1.12008 0.00841666 -0.0281749)
(1.08918 0.0024618 0.00709819)
(1.03072 -0.0292731 0.0246871)
(0.990486 -0.0554492 0.014037)
(0.97479 -0.0499348 0.00552343)
(0.976559 -0.0188986 0.0159724)
(0.974131 0.0150792 0.0173047)
(0.970006 0.0273386 -0.00537722)
(0.977871 0.0136069 -0.0254304)
(0.982728 0.00366949 -0.0257184)
(0.968105 0.00291981 -0.00864711)
(0.951217 -0.00751639 -0.00203689)
(0.944398 -0.0255098 -0.0246619)
(0.939533 -0.0446767 0.0134663)
(0.922872 -0.0353526 0.0859522)
(0.918947 -0.00282358 0.113513)
(0.936367 0.0190741 0.0772696)
(0.962202 0.00762882 0.0385688)
(1.0064 0.0161179 0.0429003)
(1.01961 0.0477448 0.0525286)
(1.00298 0.0458886 0.0273635)
(0.995685 0.0239786 -0.00468005)
(0.986712 0.0186241 -0.0128763)
(0.945058 0.00750723 -0.012433)
(0.901992 -0.0288243 -0.0205645)
(0.895676 -0.0600588 -0.0223611)
(0.90602 -0.0607052 0.00475024)
(0.935215 -0.0352909 0.0500677)
(0.965657 -0.00933204 0.0645556)
(0.981195 0.00150415 0.0602677)
(1.00545 0.0167328 0.0811722)
(1.00723 0.0356498 0.110277)
(1.01087 0.0477644 0.106973)
(1.0353 0.0609046 0.0603865)
(1.03034 0.0555651 0.0178367)
(1.04338 0.0423454 0.0163274)
(1.08107 0.034545 0.0202763)
(1.10096 0.0119419 0.00125402)
(1.10847 -0.0152147 -0.0342246)
(1.10204 -0.0152141 -0.0426179)
(1.0773 0.0158226 -0.00283084)
(1.01362 0.0234408 0.0335772)
(0.955093 -0.0113508 0.0338757)
(0.922127 -0.0449496 0.0117666)
(0.900807 -0.0471478 -0.0171708)
(0.920158 -0.0131868 -0.0360294)
(0.964932 0.0284036 -0.0402568)
(0.989448 0.0297671 -0.0366894)
(0.977961 -0.00246553 -0.0349291)
(0.948679 -0.0176042 -0.0366892)
(0.914205 -0.0115006 -0.0364056)
(0.899228 -0.0148447 -0.0407591)
(0.921099 -0.0328992 -0.0360522)
(0.966447 -0.0473322 0.0245229)
(0.967006 -0.0482436 0.105519)
(0.968249 -0.0194477 0.134081)
(0.977288 -0.00789197 0.0833701)
(0.978777 -0.0236043 0.0323316)
(0.963532 0.000100505 0.0292081)
(0.967517 0.0398578 0.0243768)
(1.01877 0.0355387 -0.00356413)
(1.05778 0.0230315 -0.0172483)
(1.04151 0.0350682 -0.0174996)
(1.00102 0.0301356 -0.0359029)
(0.988589 -0.0162522 -0.0517726)
(0.979695 -0.0589575 -0.0173671)
(0.94492 -0.0699232 0.0457281)
(0.931685 -0.0631331 0.0806177)
(0.94214 -0.0520144 0.0772283)
(0.948973 -0.0368579 0.0862963)
(0.945426 -0.00485405 0.117302)
(0.943446 0.0230938 0.117234)
(0.953673 0.0260839 0.0682309)
(0.950717 0.0213646 0.00882888)
(0.938328 0.0152192 -0.00879372)
(0.958892 0.0132925 0.0014001)
(1.01481 0.0104824 -0.0138632)
(1.07378 -0.00698977 -0.0347535)
(1.08352 -0.0132193 -0.0271652)
(1.00424 0.0082827 0.0023241)
(0.923017 0.0337952 0.0281363)
(0.904941 0.0255317 0.0311067)
(0.909614 -0.00491776 0.029705)
(0.907026 -0.0292367 0.016939)
(0.901815 -0.0458379 -0.0134561)
(0.927473 -0.0369816 -0.0358805)
(0.984831 0.00237037 -0.0466196)
(1.00143 0.0192503 -0.0481637)
(0.969428 -0.0129891 -0.0404302)
(0.937884 -0.0392972 -0.0277337)
(0.90649 -0.0308301 -0.0156822)
(0.901714 -0.0175531 -0.0234863)
(0.94056 -0.0262577 -0.0268036)
(1.00779 -0.0616762 0.0659813)
(0.986681 -0.0426042 0.141683)
(0.98703 0.000835072 0.125566)
(0.990508 0.00913755 0.0579491)
(0.974929 -0.0114526 0.0292694)
(0.962018 -0.00723871 0.0275296)
(0.976973 0.00849331 -0.00125291)
(1.01567 0.00895337 -0.0347216)
(1.03036 0.01901 -0.0306422)
(1.0081 0.0346082 -0.0166697)
(0.975373 0.0170901 -0.0413341)
(0.96629 -0.0244931 -0.0550149)
(0.95966 -0.0497182 0.00505237)
(0.936598 -0.0546695 0.0758042)
(0.92252 -0.0508124 0.0925638)
(0.912634 -0.0449467 0.0773834)
(0.915687 -0.0341751 0.0781425)
(0.928999 -0.00911843 0.091538)
(0.935409 0.0138541 0.0756917)
(0.939321 0.0179592 0.0303552)
(0.929565 0.017783 -0.00435488)
(0.915513 0.00613562 -0.00439859)
(0.951126 -0.0131219 -0.00507957)
(1.02108 -0.00957602 -0.019155)
(1.02389 0.00675434 -0.00624198)
(0.9426 0.0138837 0.0189911)
(0.855739 0.00462096 0.0235631)
(0.842225 -0.0049651 0.00558087)
(0.877932 -0.0129442 -0.00104532)
(0.895752 -0.0183903 0.0168882)
(0.901662 -0.0249052 0.00826489)
(0.912717 -0.0381021 -0.0180814)
(0.941664 -0.03088 -0.0292036)
(0.981818 0.0118245 -0.0390397)
(0.979819 0.0236391 -0.0386801)
(0.945938 -0.0240242 -0.0319604)
(0.929696 -0.0503489 -0.0200322)
(0.917046 -0.0305715 0.00239117)
(0.926609 -0.0185634 -0.00345098)
(0.98459 -0.0403441 -0.00315208)
(0.965826 -0.0637695 0.132365)
(0.938862 -0.0271309 0.128309)
(0.9759 0.00754871 0.0515377)
(0.984323 -0.00265413 0.0282557)
(0.973637 -0.0251073 0.0442651)
(0.966163 -0.0160959 0.0101402)
(0.969856 -0.00506733 -0.0615184)
(1.00561 -0.00762328 -0.0819287)
(1.00823 0.0088021 -0.0373442)
(0.95228 0.0295131 -0.00461823)
(0.900942 0.0134023 -0.0329395)
(0.896342 -0.022167 -0.0333445)
(0.901769 -0.0398782 0.0422784)
(0.907849 -0.0366966 0.0962602)
(0.913664 -0.03298 0.0852239)
(0.898482 -0.0439178 0.0551849)
(0.905846 -0.0428567 0.039589)
(0.920908 -0.00708433 0.0444554)
(0.922166 0.0252091 0.0371972)
(0.944373 0.0237906 0.00153077)
(0.936568 0.0132632 -0.0226095)
(0.889068 -0.01282 -0.0106692)
(0.907472 -0.036895 -0.00185395)
(0.986586 -0.00559299 -0.00812095)
(1.02065 0.0340656 0.00748268)
(0.97305 0.0217825 0.030509)
(0.889069 -0.0158337 0.0212288)
(0.849304 -0.0333106 -0.00448656)
(0.872341 -0.0303253 0.00705347)
(0.909031 -0.0219365 0.0187313)
(0.923423 -0.0175498 -0.0248736)
(0.926142 -0.0221035 -0.0581192)
(0.944515 -0.0183306 -0.0560036)
(0.977717 0.0135883 -0.0496086)
(0.989531 0.0219764 -0.0318288)
(0.969579 -0.020247 -0.0283842)
(0.965766 -0.0495331 -0.0217474)
(0.978425 -0.0415621 0.00671132)
(0.992669 -0.0428813 0.0100584)
(1.01111 -0.063365 0.0483641)
(0.916218 -0.026345 0.130545)
(0.970941 -0.00590181 0.0614805)
(1.01476 -0.00123057 -0.00520292)
(0.965545 -0.0204444 0.0281729)
(0.943532 -0.0261867 0.0439798)
(0.962237 -0.0145041 -0.0321794)
(0.966986 -0.0273335 -0.103206)
(0.975764 -0.0244074 -0.0820925)
(0.957933 0.0168501 -0.0199273)
(0.912668 0.0355533 -0.00341218)
(0.888126 0.00501586 -0.0474746)
(0.883388 -0.0284942 -0.0355451)
(0.881004 -0.0363261 0.0482615)
(0.906752 -0.020637 0.0761243)
(0.915792 -0.0177846 0.0451497)
(0.884533 -0.041209 0.0240156)
(0.893982 -0.0429186 0.0138917)
(0.913713 -0.00124658 0.0165605)
(0.923226 0.0285285 0.00744364)
(0.956636 0.0283655 -0.0221633)
(0.933772 0.0326685 -0.0283984)
(0.864043 0.00840978 -0.00318707)
(0.87908 -0.0363538 0.0107501)
(0.977554 -0.0215959 0.0079189)
(1.02907 0.0170928 0.0236524)
(0.985444 0.0183886 0.041898)
(0.894507 -0.00775107 0.027093)
(0.843058 -0.0365746 0.0158347)
(0.867415 -0.0444693 0.0373884)
(0.911596 -0.0243572 0.0172449)
(0.914047 -0.0135924 -0.0478824)
(0.911838 -0.0267024 -0.0690565)
(0.93771 -0.0252934 -0.0667587)
(0.974083 0.0124086 -0.0608314)
(1.00392 0.0276013 -0.0303059)
(1.00938 -0.0122636 -0.0174511)
(1.01369 -0.0478534 0.000510923)
(1.0002 -0.0473423 0.0372097)
(0.953998 -0.0465442 0.0459365)
(0.9273 -0.0442028 0.0882047)
(0.914558 -0.0192691 0.0786453)
(1.01373 0.000183628 0.000864763)
(1.02614 0.00504269 -0.0184929)
(0.950733 -0.0225614 0.0289385)
(0.944499 -0.0312823 0.0136089)
(0.967236 -0.0123077 -0.064185)
(0.920009 -0.019198 -0.0731171)
(0.872529 -0.0189583 -0.0147517)
(0.866539 0.0142764 0.0192741)
(0.879328 0.0205688 -0.0124658)
(0.888656 -0.00942466 -0.0597319)
(0.865735 -0.031756 -0.0164045)
(0.844158 -0.0317815 0.0570454)
(0.883762 -0.00589921 0.0432783)
(0.889646 -0.00276613 0.00251361)
(0.85166 -0.0347497 -0.000601864)
(0.878473 -0.0374288 -0.00273123)
(0.917162 0.0075794 -0.00457362)
(0.928776 0.0366028 -0.0172445)
(0.94884 0.038007 -0.0341643)
(0.931561 0.0521708 -0.0199884)
(0.883694 0.0231347 0.00495342)
(0.881081 -0.0464165 0.0108236)
(0.951524 -0.044134 0.0154328)
(0.998549 0.00411824 0.0372666)
(0.978586 0.0211342 0.0461802)
(0.913754 -0.0032494 0.0259502)
(0.874436 -0.0455469 0.0222131)
(0.893453 -0.0525664 0.0307619)
(0.918397 -0.0182075 -0.0134763)
(0.910615 -0.00464337 -0.0629426)
(0.921711 -0.025595 -0.0600675)
(0.951275 -0.0312186 -0.0640112)
(0.987154 -0.00324386 -0.0614232)
(1.03214 0.0055157 -0.0291371)
(1.0381 -0.0251664 -0.00608385)
(0.995101 -0.0425264 0.0330516)
(0.925191 -0.0328934 0.0631578)
(0.87153 -0.0369647 0.0534585)
(0.864968 -0.0379289 0.0790291)
(0.930574 -0.0186553 0.0481377)
(0.998479 0.0101477 -0.014388)
(0.9924 0.018537 -0.0104032)
(0.949856 -0.0195422 0.0179539)
(0.963144 -0.0334887 -0.0215893)
(0.959652 0.00126984 -0.071256)
(0.873248 -0.00561533 -0.0393408)
(0.814429 -0.0316133 0.0229192)
(0.82922 -0.00884042 0.0253974)
(0.880894 0.00118761 -0.0428251)
(0.917095 -0.015556 -0.0849754)
(0.883533 -0.0251769 -0.0160446)
(0.847986 -0.0233512 0.0464451)
(0.900732 -0.00223657 0.00839054)
(0.912512 -0.00524395 -0.0218651)
(0.858942 -0.0395452 -0.00827282)
(0.871461 -0.0367169 -0.0109651)
(0.927041 0.0166093 -0.016935)
(0.939349 0.0421937 -0.0304245)
(0.926558 0.0378743 -0.0357614)
(0.942804 0.0604535 -0.00966666)
(0.944871 0.0388666 0.000870077)
(0.888076 -0.0341795 0.00207622)
(0.882227 -0.0508158 0.0204716)
(0.928061 -0.0135887 0.0349812)
(0.938499 0.00557578 0.0229395)
(0.896776 -0.014425 0.0108812)
(0.869183 -0.0565093 0.0223879)
(0.88673 -0.0586643 0.0188528)
(0.90747 -0.0204652 -0.0309788)
(0.922081 -0.0101671 -0.0614502)
(0.951782 -0.0322511 -0.0524458)
(0.970286 -0.0408827 -0.0526075)
(0.99086 -0.0226967 -0.0250674)
(0.99973 -0.00934277 0.0215498)
(0.980021 -0.0172975 0.0322608)
(0.94584 -0.0230059 0.052311)
(0.903544 -0.0209355 0.0517104)
(0.881579 -0.0346479 0.0251762)
(0.888646 -0.039144 0.0538412)
(0.907646 -0.00845342 0.0320488)
(0.950487 0.0161444 -0.0252932)
(0.950272 0.0144769 0.00932537)
(0.946671 -0.0248921 0.0345623)
(0.975855 -0.0333718 -0.0360591)
(0.956375 0.00897224 -0.0817926)
(0.871928 -0.00744885 -0.0342681)
(0.819832 -0.0507393 0.0290449)
(0.84535 -0.0343216 0.0117124)
(0.909847 -0.0155626 -0.0793806)
(0.936199 -0.00928521 -0.103975)
(0.881617 -0.00837215 -0.00986438)
(0.847655 -0.0184053 0.0401718)
(0.916843 -0.0101935 -0.0119927)
(0.935416 -0.0122283 -0.0312919)
(0.863566 -0.0355098 -0.0142208)
(0.852258 -0.0285396 -0.0236088)
(0.9354 0.0235373 -0.0283907)
(0.949824 0.047482 -0.0332366)
(0.894697 0.0390899 -0.0351841)
(0.960504 0.0564864 -0.0236617)
(1.0118 0.04755 -0.0193796)
(0.911073 -0.0128955 0.0138774)
(0.835694 -0.0488184 0.0275061)
(0.840813 -0.0312312 -0.0067056)
(0.838444 -0.0108529 -0.0283747)
(0.816942 -0.0255235 -0.00740736)
(0.81273 -0.0622585 0.0116417)
(0.838489 -0.0580094 -0.00527162)
(0.87333 -0.01968 -0.0570454)
(0.926441 -0.0136747 -0.0737988)
(0.968829 -0.0310478 -0.0488875)
(0.951881 -0.0388 -0.0220455)
(0.924383 -0.0289315 0.0304699)
(0.910362 -0.0155421 0.0586987)
(0.92127 -0.0167466 0.0443345)
(0.934992 -0.0190363 0.0576006)
(0.906589 -0.0215497 0.0367037)
(0.888414 -0.0378145 0.00661148)
(0.888429 -0.0352629 0.0490961)
(0.881218 -0.00611093 0.0243032)
(0.933063 0.0092609 -0.035151)
(0.938349 0.00207926 0.0195238)
(0.933812 -0.0286778 0.0480436)
(0.949075 -0.0298259 -0.0437731)
(0.95077 0.00868078 -0.106409)
(0.900653 -0.0126236 -0.05442)
(0.823447 -0.055437 0.0136364)
(0.844666 -0.0431811 -0.01999)
(0.910126 -0.0194892 -0.107109)
(0.922002 0.00184226 -0.106333)
(0.867172 0.00483142 -0.00487179)
(0.862139 -0.0251041 0.0357763)
(0.937303 -0.0327004 -0.0165198)
(0.927657 -0.018604 -0.0313049)
(0.835467 -0.0230195 -0.025545)
(0.84768 -0.0252604 -0.0411751)
(0.965731 0.0207074 -0.0334761)
(0.940675 0.0510827 -0.0265522)
(0.88426 0.0265211 -0.0402615)
(0.997818 0.0326963 -0.0550839)
(1.04276 0.0506235 -0.031913)
(0.949163 0.00904933 0.0390887)
(0.860848 -0.0419485 0.0206086)
(0.788636 -0.039303 -0.0514084)
(0.757736 -0.0198978 -0.0486061)
(0.761972 -0.0277011 -0.0100352)
(0.764796 -0.0540861 -0.00827675)
(0.784379 -0.0536645 -0.0379891)
(0.847288 -0.0301007 -0.0797744)
(0.914836 -0.0182486 -0.0652589)
(0.921099 -0.0224248 -0.0177567)
(0.869147 -0.0348623 0.0197827)
(0.828649 -0.0349564 0.0656147)
(0.814873 -0.0244548 0.0649537)
(0.843866 -0.021623 0.0324137)
(0.87849 -0.0208032 0.0419882)
(0.872352 -0.0270387 0.00779267)
(0.863972 -0.0373655 -0.00600028)
(0.85564 -0.0282546 0.0566671)
(0.865305 -0.0141058 0.0100944)
(0.904071 -0.00267478 -0.0452643)
(0.926758 -0.00885181 0.00980703)
(0.918252 -0.0356175 0.0388878)
(0.904823 -0.0326329 -0.0456704)
(0.946147 0.011186 -0.113819)
(0.916811 0.00226879 -0.0704742)
(0.817184 -0.0447355 -0.0164419)
(0.825536 -0.0555966 -0.0482131)
(0.866438 -0.0347339 -0.105276)
(0.858819 0.0019986 -0.0881108)
(0.854968 0.00247311 0.00748244)
(0.883724 -0.0445081 0.0365522)
(0.896191 -0.0530564 -0.0167269)
(0.850792 -0.0157146 -0.0393935)
(0.82023 -0.0113472 -0.0412914)
(0.882536 -0.0314566 -0.0371114)
(0.96474 0.0126619 -0.0165506)
(0.91179 0.0466745 -0.0153248)
(0.909987 0.00281231 -0.0346465)
(0.996963 0.00704498 -0.0577376)
(0.995709 0.0481736 -0.0209737)
(0.968529 0.0176174 0.0507851)
(0.913185 -0.0308168 0.0271872)
(0.808413 -0.0328408 -0.0220363)
(0.76217 -0.0225653 -0.00688158)
(0.757214 -0.0262427 0.000860021)
(0.742393 -0.0433987 -0.0172859)
(0.74751 -0.0476708 -0.0320173)
(0.785141 -0.0269456 -0.035736)
(0.836321 -0.00436113 -0.00680487)
(0.857012 -0.00817386 0.0128865)
(0.815155 -0.0325315 0.0286501)
(0.768775 -0.0359152 0.066685)
(0.766317 -0.0242713 0.0540623)
(0.81963 -0.0207299 0.016334)
(0.85784 -0.0212944 0.0208281)
(0.850419 -0.0266079 -0.00999839)
(0.849418 -0.0268752 0.000784174)
(0.84803 -0.0217322 0.0600345)
(0.850239 -0.017804 -0.0162509)
(0.849798 -0.0170904 -0.0602923)
(0.901259 -0.0215164 -0.0116112)
(0.910278 -0.0388352 0.0159187)
(0.882663 -0.0309456 -0.0492861)
(0.935389 0.0147071 -0.122295)
(0.92214 0.0179959 -0.0896297)
(0.835946 -0.0367319 -0.0442116)
(0.778493 -0.0646588 -0.0573306)
(0.75515 -0.0436844 -0.0669667)
(0.789435 -0.0116548 -0.0264362)
(0.834127 -0.0169401 0.0532069)
(0.807382 -0.0492196 0.04059)
(0.768717 -0.0513347 -0.0373057)
(0.786628 -0.0155565 -0.0521968)
(0.848576 -0.0133747 -0.0305462)
(0.885232 -0.0342226 -0.0127997)
(0.900912 0.010924 -0.000880542)
(0.876941 0.0331601 -0.00972418)
(0.870955 -0.0179632 -0.0316692)
(0.889974 -0.00037167 -0.0492416)
(0.914258 0.0430564 -0.00210779)
(0.947209 0.0103629 0.0436112)
(0.89856 -0.0244639 0.0148552)
(0.813688 -0.0225504 -0.00586738)
(0.79 -0.0172489 -0.0019247)
(0.752875 -0.0168415 -0.00366308)
(0.686453 -0.0295325 0.012681)
(0.682111 -0.0352194 0.0184037)
(0.733063 -0.0192296 0.0130161)
(0.813179 -0.00162251 0.0149434)
(0.839778 -0.00711195 0.00616297)
(0.780749 -0.031022 0.0191237)
(0.736774 -0.0335505 0.0666086)
(0.772288 -0.0229606 0.0547139)
(0.852495 -0.0210413 0.00918821)
(0.86365 -0.0219952 0.0127542)
(0.840022 -0.0236494 0.00284413)
(0.86021 -0.0141715 0.0242358)
(0.87151 -0.0105324 0.0511283)
(0.849459 -0.0144318 -0.0394214)
(0.830923 -0.0226978 -0.0722116)
(0.879194 -0.0352086 -0.020108)
(0.902861 -0.0439649 -0.00790972)
(0.875707 -0.0261204 -0.0763284)
(0.875449 0.0162597 -0.116342)
(0.899615 0.0151886 -0.068914)
(0.838641 -0.0290817 -0.0490084)
(0.699106 -0.0497986 -0.0385278)
(0.650727 -0.0494892 0.00117106)
(0.68901 -0.0359948 0.0520863)
(0.684187 -0.0219611 0.0913551)
(0.669429 -0.0367886 0.0316218)
(0.693688 -0.0470235 -0.0441885)
(0.791376 -0.020316 -0.032518)
(0.869561 -0.015146 -0.00315443)
(0.860296 -0.0309199 0.000284441)
(0.840893 0.00271722 -0.00208687)
(0.808295 0.0120817 -0.0187263)
(0.768851 -0.0306513 -0.0459843)
(0.784787 -0.00860523 -0.0383464)
(0.882242 0.0275802 0.0291168)
(0.921171 0.000599995 0.0341553)
(0.826763 -0.0265396 -0.0138148)
(0.78476 -0.0273311 -0.0308727)
(0.809127 -0.0133437 -0.0278805)
(0.742343 -0.00231125 0.00328316)
(0.641216 -0.0200701 0.0482624)
(0.646578 -0.0334927 0.0443595)
(0.72013 -0.0220572 0.027389)
(0.804495 -0.00709689 0.0181347)
(0.799535 -0.00759657 0.00448241)
(0.743111 -0.0309496 0.0115093)
(0.740536 -0.0380699 0.0575875)
(0.806168 -0.0258699 0.0448081)
(0.871537 -0.0217283 -0.00647356)
(0.846381 -0.0244177 0.00822004)
(0.830794 -0.0202984 0.0185181)
(0.87549 0.000163825 0.0334909)
(0.886679 0.000405221 0.0351438)
(0.856501 -0.0125262 -0.0665392)
(0.868219 -0.0267831 -0.0884379)
(0.893818 -0.0510947 -0.0218231)
(0.872594 -0.0527317 -0.0346789)
(0.806313 -0.0208761 -0.0939705)
(0.808967 0.014842 -0.0769783)
(0.8711 0.0114869 -0.0298768)
(0.813502 -0.0183294 -0.0199359)
(0.681322 -0.0429326 -0.00872727)
(0.592599 -0.0537256 0.00843322)
(0.580358 -0.0370105 0.0455706)
(0.62075 -0.0170872 0.068746)
(0.640675 -0.0306911 0.0143774)
(0.691187 -0.0377216 -0.0232619)
(0.80107 -0.014964 -0.00325749)
(0.867599 -0.0136512 0.0118539)
(0.866021 -0.0264025 0.0105385)
(0.81171 -0.00194599 -0.00219323)
(0.742838 -0.00419184 -0.0293308)
(0.717275 -0.041062 -0.045419)
(0.749343 -0.021992 -0.0126178)
(0.878696 0.0105138 0.0477215)
(0.902259 -0.00254428 0.0318365)
(0.787469 -0.0284321 -0.0215578)
(0.765306 -0.0362212 -0.0500336)
(0.810532 -0.00968374 -0.0400079)
(0.749845 0.00864188 0.0236699)
(0.66493 -0.0162772 0.0651419)
(0.664485 -0.0345843 0.0323947)
(0.725607 -0.027306 0.00864534)
(0.791201 -0.0144634 0.00814686)
(0.770548 -0.0100302 0.00226172)
(0.729855 -0.0320848 0.00385456)
(0.754479 -0.0428198 0.0403181)
(0.826004 -0.0276607 0.0151776)
(0.854102 -0.0209373 -0.0349942)
(0.814579 -0.0258759 -0.00648071)
(0.822022 -0.0146792 0.00531091)
(0.879424 0.00951635 0.0162839)
(0.878933 0.00239127 0.0180923)
(0.860779 -0.0165159 -0.101814)
(0.917432 -0.0283948 -0.109793)
(0.904729 -0.0527844 -0.025992)
(0.803723 -0.0525039 -0.0478239)
(0.74287 -0.019082 -0.0832072)
(0.788459 0.0124722 -0.0336113)
(0.837008 0.0145503 0.00935483)
(0.772032 -0.0115615 0.00806554)
(0.671141 -0.0356721 -0.0123251)
(0.607183 -0.0437114 -0.0132723)
(0.604717 -0.0279497 0.0231201)
(0.643455 -0.0143941 0.0323492)
(0.656217 -0.0280943 -0.0124835)
(0.695528 -0.0264716 -0.0118239)
(0.793377 -0.00561118 0.0156929)
(0.854277 -0.0108917 0.031404)
(0.850883 -0.0151007 0.0294531)
(0.769207 0.00723777 -0.0014397)
(0.709463 -0.0121679 -0.0314649)
(0.70885 -0.0434321 -0.0358351)
(0.743045 -0.0279613 0.00215286)
(0.873529 -0.00248678 0.0541004)
(0.897583 -0.00549391 0.037664)
(0.791012 -0.030747 -0.0234475)
(0.766573 -0.0424342 -0.0627742)
(0.807038 -0.00738134 -0.0398783)
(0.763065 0.0144092 0.0416402)
(0.707838 -0.0140954 0.0652704)
(0.695316 -0.0332843 0.0129258)
(0.731248 -0.0293498 -0.0134245)
(0.777355 -0.0194851 -0.0036322)
(0.75622 -0.0117017 -0.00161218)
(0.719155 -0.0295501 -0.00355442)
(0.751117 -0.0415471 0.0195905)
(0.82865 -0.029001 -0.0115738)
(0.836571 -0.0224529 -0.0482336)
(0.805414 -0.0251946 -0.0256648)
(0.834036 -0.00845972 -0.033985)
(0.877258 0.0114706 -0.00842932)
(0.854805 -0.00452744 0.00357103)
(0.842857 -0.0206793 -0.132898)
(0.934329 -0.0252876 -0.113875)
(0.903237 -0.0446233 -0.030881)
(0.741199 -0.0470723 -0.0508516)
(0.690016 -0.0200258 -0.0575718)
(0.768943 0.0114957 0.00200477)
(0.788451 0.0233339 0.0239067)
(0.718881 -0.0016883 0.0022192)
(0.633613 -0.0316351 -0.012688)
(0.589034 -0.0371954 -7.49844e-05)
(0.609227 -0.0192679 0.0211744)
(0.671372 -0.0120126 -0.00358034)
(0.690106 -0.0252946 -0.0420027)
(0.707099 -0.0167403 -0.0147202)
(0.770871 0.00223888 0.0254327)
(0.813724 -0.00650343 0.0493616)
(0.803652 -0.00412262 0.031621)
(0.725154 0.0123396 -0.011458)
(0.696777 -0.0153186 -0.0253352)
(0.705596 -0.0408615 -0.0211742)
(0.748521 -0.0309611 0.0147537)
(0.869489 -0.0129282 0.0636217)
(0.882765 -0.0101946 0.0427749)
(0.785159 -0.0329954 -0.0333229)
(0.756011 -0.0442156 -0.0743312)
(0.786549 -0.0054955 -0.0353633)
(0.767559 0.0162321 0.0529019)
(0.742407 -0.0124578 0.0645564)
(0.727247 -0.0303747 0.00405815)
(0.74932 -0.0290872 -0.0226084)
(0.776234 -0.0215446 -0.00916274)
(0.747949 -0.0126314 -0.00699066)
(0.711612 -0.0260017 -0.00848691)
(0.746039 -0.0365913 0.00108416)
(0.819493 -0.028951 -0.0320374)
(0.802534 -0.0234435 -0.0533951)
(0.796224 -0.0245668 -0.0509651)
(0.840066 -0.00689339 -0.0678361)