/*--------------------------------*- C++ -*----------------------------------*\
  =========                 |
  \\      /  F ield         | OpenFOAM: The Open Source CFD Toolbox
   \\    /   O peration     | Website:  https://openfoam.org
    \\  /    A nd           | Version:  10
     \\/     M anipulation  |
\*---------------------------------------------------------------------------*/
FoamFile
{
    format      ascii;
    class       volSymmTensorField;
    location    "8";
    object      UPrime2Mean;
}
// * * * * * * * * * * * * * * * * * * * * * * * * * * * * * * * * * * * * * //

dimensions      [0 2 -2 0 0 0 0];

internalField   nonuniform List<symmTensor> 
25600
(
(0.000288548 -3.3166e-05 -1.34319e-05 1.91721e-05 8.39964e-06 3.72692e-05)
(0.000215493 -3.34047e-05 -7.74168e-06 2.0804e-05 7.17128e-06 3.7288e-05)
(9.63184e-05 -3.53671e-05 -1.30486e-05 3.36951e-05 9.9229e-06 3.7908e-05)
(4.27195e-05 -1.80128e-05 -1.24655e-05 5.64863e-05 2.0008e-05 4.09194e-05)
(3.77881e-05 -9.00408e-06 -1.09867e-05 5.91754e-05 2.81989e-05 4.70333e-05)
(4.54097e-05 -1.22118e-05 -1.63384e-05 2.84979e-05 1.71278e-05 4.5873e-05)
(7.74842e-05 2.37826e-06 -1.74322e-05 1.69436e-05 4.44892e-06 3.64288e-05)
(0.000106739 2.65852e-05 -5.59941e-07 2.80149e-05 8.83308e-06 3.43269e-05)
(0.000105807 2.68043e-05 1.89382e-05 2.83461e-05 1.72879e-05 4.47838e-05)
(9.8527e-05 9.56845e-06 2.9266e-05 1.84305e-05 1.23755e-05 5.76137e-05)
(0.000104981 -3.59082e-06 3.68308e-05 1.63722e-05 3.91085e-06 6.46587e-05)
(0.000134819 -1.12665e-05 5.0706e-05 1.71905e-05 -9.39007e-07 6.94603e-05)
(0.0001415 -8.11523e-06 5.87016e-05 1.6254e-05 7.40482e-07 7.6294e-05)
(8.71594e-05 6.06262e-06 4.47404e-05 1.5989e-05 1.2089e-05 8.95691e-05)
(3.84228e-05 1.53484e-06 -5.03693e-06 2.06489e-05 2.35168e-05 8.80704e-05)
(0.000111064 -2.97447e-05 -6.12609e-05 2.79499e-05 2.91643e-05 7.31559e-05)
(0.000219393 -5.34671e-05 -7.2369e-05 3.12328e-05 2.60386e-05 5.66638e-05)
(0.000184095 -4.70835e-05 -4.98941e-05 3.03883e-05 2.03956e-05 4.53341e-05)
(6.90073e-05 -1.90395e-05 -2.48096e-05 2.66373e-05 1.76026e-05 4.26961e-05)
(4.79581e-05 5.83182e-06 -3.28406e-07 2.24823e-05 1.4897e-05 3.97166e-05)
(0.000105361 2.18954e-05 1.28645e-05 2.28347e-05 1.51373e-05 3.76228e-05)
(0.000109781 3.04573e-05 8.02367e-06 2.88237e-05 1.54095e-05 3.46307e-05)
(5.99594e-05 1.98907e-05 -3.94183e-06 3.60252e-05 1.13935e-05 3.22567e-05)
(3.78933e-05 -4.21252e-06 -5.18825e-06 4.04099e-05 8.12127e-06 3.2107e-05)
(4.72147e-05 -1.97023e-05 -4.19998e-06 4.0696e-05 8.29375e-06 3.21197e-05)
(3.61623e-05 -8.59063e-06 -7.19289e-06 3.24322e-05 1.50882e-05 3.42389e-05)
(4.74698e-05 1.17704e-05 6.83703e-06 2.78296e-05 2.197e-05 4.42127e-05)
(9.9681e-05 2.21222e-05 2.75243e-05 2.22826e-05 2.12364e-05 4.90443e-05)
(0.00015614 1.42043e-05 2.00437e-05 1.59782e-05 1.30215e-05 3.8787e-05)
(0.00014154 3.04063e-06 -3.23323e-05 1.40692e-05 8.67732e-06 4.10194e-05)
(8.96705e-05 -8.27002e-06 -6.49751e-05 1.45436e-05 1.68693e-05 9.75166e-05)
(5.32975e-05 -8.77955e-06 -5.44087e-05 1.6647e-05 2.83509e-05 0.000153736)
(3.32083e-05 -2.5106e-06 -9.75552e-06 2.12864e-05 3.92409e-05 0.000153993)
(5.05424e-05 1.59182e-05 2.31543e-05 3.22683e-05 4.06678e-05 9.07077e-05)
(8.85605e-05 3.61311e-05 1.73018e-05 3.9e-05 2.54376e-05 4.88624e-05)
(0.000112352 5.09446e-05 -2.90307e-06 4.75579e-05 1.17201e-05 3.89954e-05)
(6.26479e-05 3.19228e-05 -1.24443e-05 4.80426e-05 1.70941e-06 3.95996e-05)
(3.42202e-05 -8.72457e-06 -4.39456e-06 3.98256e-05 3.90941e-06 3.80466e-05)
(0.000124903 -3.82358e-05 -1.9308e-06 3.04938e-05 6.30125e-06 3.78501e-05)
(0.000282251 -4.41813e-05 -8.19559e-06 2.2398e-05 7.95183e-06 3.76529e-05)
(0.000100375 3.40334e-06 -4.14933e-05 2.99132e-05 3.85282e-06 5.9636e-05)
(5.16805e-05 1.14428e-06 -1.94765e-05 4.18653e-05 1.22105e-05 5.42507e-05)
(4.50841e-05 1.21441e-05 -8.66019e-06 3.41165e-05 1.93721e-06 4.18136e-05)
(4.70088e-05 1.26737e-05 -8.33219e-06 2.91453e-05 -1.20626e-06 3.8242e-05)
(4.54939e-05 1.15241e-05 -7.88731e-06 3.19619e-05 -3.13981e-06 3.83296e-05)
(4.43599e-05 1.25564e-05 -8.92448e-06 2.91685e-05 -4.27238e-06 4.28299e-05)
(4.55746e-05 1.36441e-05 -5.51541e-06 3.02198e-05 2.34818e-06 5.51718e-05)
(4.97933e-05 1.74838e-05 1.53505e-06 3.34004e-05 6.38965e-06 6.03678e-05)
(6.22314e-05 1.91512e-05 5.14331e-06 3.07629e-05 8.91904e-07 5.02906e-05)
(7.83397e-05 1.0514e-06 -3.06982e-06 3.32603e-05 -6.52488e-06 3.83468e-05)
(7.83356e-05 -2.44136e-05 -2.655e-05 7.14069e-05 1.22207e-05 4.16335e-05)
(7.81358e-05 -4.30808e-05 -5.52695e-05 0.000126308 6.64749e-05 8.61308e-05)
(6.64841e-05 -3.78131e-05 -6.73673e-05 0.000146467 0.000118809 0.000161866)
(4.92389e-05 -1.54401e-06 -4.16137e-05 7.50348e-05 8.56178e-05 0.000204237)
(4.65111e-05 1.54118e-05 1.67228e-06 3.4351e-05 1.81035e-05 0.000136726)
(8.97858e-05 8.5869e-06 1.04134e-05 3.2173e-05 -2.30277e-06 5.02916e-05)
(0.000117601 9.35118e-06 -3.0622e-05 3.16808e-05 7.7208e-07 3.98631e-05)
(9.58836e-05 2.7649e-05 -4.78695e-05 3.4979e-05 -9.51765e-06 5.75371e-05)
(6.33234e-05 2.80445e-05 -3.21564e-05 4.29666e-05 -1.39032e-05 5.20601e-05)
(4.60319e-05 1.57703e-05 -1.60593e-05 3.94563e-05 -4.21885e-06 3.75963e-05)
(4.38151e-05 1.18474e-05 -1.35426e-05 3.033e-05 5.57325e-08 3.60099e-05)
(4.37137e-05 6.31657e-06 -9.95081e-06 3.79354e-05 -5.95807e-06 3.96438e-05)
(4.41056e-05 -4.09749e-08 -8.45084e-06 6.20791e-05 -1.199e-05 3.94387e-05)
(4.05627e-05 1.40367e-05 -1.18809e-05 7.89275e-05 -9.48781e-06 3.57157e-05)
(6.96181e-05 5.47986e-05 -1.49106e-05 9.01721e-05 -6.96861e-06 3.44512e-05)
(0.00015726 9.32601e-05 4.06728e-06 8.42754e-05 8.31453e-06 3.54448e-05)
(0.000248727 0.000107571 4.94958e-05 7.22584e-05 2.5423e-05 5.0169e-05)
(0.000235748 8.87443e-05 8.89019e-05 5.93458e-05 3.60861e-05 8.20983e-05)
(0.0001486 5.17307e-05 8.75769e-05 4.45968e-05 3.09515e-05 0.000115226)
(5.62996e-05 2.48398e-05 2.77933e-05 3.75541e-05 1.77402e-05 9.2135e-05)
(3.86751e-05 1.16276e-05 -1.27268e-05 3.32345e-05 6.771e-06 5.40783e-05)
(5.08561e-05 1.19657e-05 -7.45093e-06 3.1331e-05 5.23758e-07 3.81713e-05)
(4.31375e-05 1.39995e-05 3.29202e-06 3.13547e-05 3.45141e-07 5.19472e-05)
(4.00677e-05 1.30315e-05 -1.39469e-05 3.13635e-05 1.60134e-07 7.00275e-05)
(6.49586e-05 1.69308e-05 -4.03621e-05 3.15095e-05 -5.5248e-06 7.91077e-05)
(7.69051e-05 1.21442e-05 -4.36137e-05 3.04492e-05 -5.73533e-07 7.51051e-05)
(6.11021e-05 -2.91777e-06 -2.74527e-05 4.24393e-05 1.31232e-05 5.86648e-05)
(4.09572e-05 1.26364e-05 -8.77072e-06 7.58438e-05 1.6251e-05 4.73161e-05)
(7.3375e-05 5.58054e-05 -1.18994e-05 8.76623e-05 -5.86848e-06 4.24585e-05)
(0.0001164 4.93274e-05 -3.79087e-05 4.77667e-05 -1.62098e-05 5.33671e-05)
(0.000382617 3.73389e-05 -0.000152311 2.42739e-05 -1.05426e-05 0.00010588)
(0.000126879 2.07222e-05 -5.16906e-05 2.41562e-05 -7.66116e-07 6.84207e-05)
(9.25528e-05 3.04106e-05 -1.93183e-05 2.75246e-05 2.54836e-06 6.15891e-05)
(0.000102155 3.69724e-05 -4.28336e-06 3.12646e-05 1.35156e-05 9.47405e-05)
(9.14876e-05 2.70271e-05 -2.86912e-05 2.6308e-05 1.29915e-05 0.00015366)
(0.000110577 2.46237e-05 -7.19534e-05 2.26163e-05 1.26407e-06 0.000161587)
(0.000114142 3.12222e-05 -6.40661e-05 2.21977e-05 -1.10009e-05 0.000119403)
(9.2979e-05 2.74682e-05 -2.51718e-05 2.97414e-05 -1.81513e-05 7.67974e-05)
(0.000152431 2.43104e-06 -1.85957e-05 3.29395e-05 -8.7304e-06 5.7105e-05)
(0.000280276 3.75701e-06 -6.82386e-05 2.52288e-05 -5.15289e-07 6.37309e-05)
(0.000279622 4.49678e-05 -0.00013729 2.41208e-05 -1.69248e-05 0.00011736)
(0.000175236 6.60545e-05 -0.00014999 4.14086e-05 -6.66552e-05 0.000236676)
(0.00010539 4.13819e-05 -7.13065e-05 6.2061e-05 -0.000121991 0.000381545)
(0.000106116 9.08412e-06 1.05551e-05 8.5298e-05 -0.000149909 0.000377137)
(0.000106688 1.247e-05 -2.26329e-06 6.99436e-05 -9.34478e-05 0.000209971)
(0.000100302 2.88299e-05 -3.18627e-05 4.15808e-05 -3.2904e-05 8.93991e-05)
(0.00011273 3.53855e-05 -3.35543e-05 2.91026e-05 -1.32769e-05 6.41178e-05)
(0.000119966 3.01824e-05 -3.4679e-05 2.4187e-05 -1.16482e-05 6.38707e-05)
(0.000103581 2.84616e-05 -3.53477e-05 2.40024e-05 -1.36482e-05 7.63921e-05)
(0.000102498 2.74611e-05 -2.22471e-05 2.57342e-05 -1.80178e-05 9.55781e-05)
(0.000108977 2.23428e-05 -9.87545e-06 2.80199e-05 -2.31486e-05 9.74188e-05)
(0.000107796 1.75721e-05 -1.46888e-05 3.75228e-05 -2.74517e-05 8.14019e-05)
(9.90635e-05 2.29858e-05 -2.25929e-05 4.44207e-05 -1.84781e-05 6.3356e-05)
(9.9264e-05 4.05881e-05 -2.32206e-05 4.40807e-05 -7.64807e-06 5.90161e-05)
(0.000146512 6.12825e-05 -1.74835e-05 4.22516e-05 -6.21012e-06 5.82362e-05)
(0.000241089 7.92692e-05 -2.39429e-05 4.06513e-05 -1.01818e-05 5.65248e-05)
(0.000355608 9.80961e-05 -4.7837e-05 4.22193e-05 -1.6215e-05 5.75521e-05)
(0.000374783 0.000101499 -3.15208e-05 4.27389e-05 -1.1786e-05 5.47027e-05)
(0.000323716 8.3569e-05 3.48862e-05 3.70351e-05 3.90114e-06 6.64318e-05)
(0.000231567 4.77932e-05 7.29121e-05 2.63547e-05 5.33734e-06 0.000106499)
(0.000121007 1.80401e-05 4.04226e-05 2.23625e-05 -1.41512e-05 0.000122224)
(7.46834e-05 1.74621e-05 -9.19316e-06 3.73839e-05 -2.62377e-05 7.37688e-05)
(8.47688e-05 4.65378e-05 -7.89525e-06 6.94205e-05 5.02471e-06 5.43537e-05)
(8.81044e-05 5.999e-05 1.36323e-05 9.57492e-05 4.60589e-05 8.85948e-05)
(7.48334e-05 4.62427e-05 4.99427e-06 0.00010657 6.03736e-05 0.000104327)
(7.81344e-05 5.34547e-05 3.25153e-06 0.000104954 4.21064e-05 7.98137e-05)
(0.000140949 9.56591e-05 -7.33823e-06 9.34227e-05 1.938e-06 5.04742e-05)
(0.000375699 0.000146943 -9.09744e-05 7.38158e-05 -3.54833e-05 6.74522e-05)
(0.000714081 0.000159351 -0.000244327 5.33743e-05 -5.36085e-05 0.000129923)
(0.000790625 0.000111272 -0.000288709 3.49609e-05 -3.86223e-05 0.000151006)
(0.000221071 7.87945e-05 -3.68136e-05 5.90518e-05 -9.69724e-06 7.75156e-05)
(0.000217011 6.67396e-05 -3.60598e-05 4.6512e-05 -1.07126e-05 7.51593e-05)
(0.000237314 7.4434e-05 5.63058e-06 4.66269e-05 -4.40988e-06 0.00014742)
(0.000218501 7.09353e-05 9.79594e-06 4.71646e-05 -2.24112e-05 0.000369254)
(0.000220377 8.49586e-05 -0.000102985 6.40944e-05 -9.95768e-05 0.000522526)
(0.000296519 0.000143292 -0.000206769 0.000106278 -0.000155365 0.000423635)
(0.000353385 0.000204834 -0.000170875 0.000168476 -0.000139627 0.00021523)
(0.000316135 0.000205091 -5.56302e-05 0.000210027 -4.22422e-05 9.00949e-05)
(0.000243154 0.000130207 -6.35319e-07 0.000143122 4.23107e-05 0.000121622)
(0.000214196 7.78276e-05 -5.13855e-05 5.76283e-05 -2.96502e-06 0.000205612)
(0.000260736 0.000135532 -0.000116496 0.000120335 -0.000110166 0.000218367)
(0.000291335 0.000187447 -0.000112505 0.000199968 -0.000119814 0.000153475)
(0.00026214 0.000141412 -6.21794e-05 0.000130307 -4.8525e-05 9.29485e-05)
(0.00022241 8.84458e-05 -2.96706e-05 6.60322e-05 -1.7846e-05 8.81921e-05)
(0.000215754 8.86445e-05 -3.71773e-05 0.000110272 -7.29236e-05 0.000145067)
(0.000213803 9.27382e-05 -4.14154e-05 0.000139631 -9.00755e-05 0.000146007)
(0.000212555 8.37129e-05 -3.52587e-05 0.000104462 -3.82613e-05 8.73652e-05)
(0.000216696 8.57014e-05 -4.37242e-05 7.42087e-05 -1.23742e-05 9.64917e-05)
(0.00021457 9.02192e-05 -4.47246e-05 7.41767e-05 -3.66173e-05 0.000143953)
(0.000216068 8.9323e-05 -3.88806e-05 8.77803e-05 -5.19688e-05 0.000134768)
(0.000209402 8.69117e-05 -3.94986e-05 9.98427e-05 -4.26924e-05 9.36937e-05)
(0.000205278 9.23756e-05 -4.13042e-05 0.000120483 -2.04378e-05 7.9412e-05)
(0.000202691 9.30156e-05 -3.66572e-05 0.000122349 1.22218e-06 9.10308e-05)
(0.000203545 9.16971e-05 -3.62251e-05 0.000104132 2.4593e-06 9.88522e-05)
(0.000201556 8.93705e-05 -3.86981e-05 8.61131e-05 -9.42126e-06 8.85032e-05)
(0.000199494 9.08105e-05 -4.07777e-05 7.76381e-05 -1.99167e-05 7.93861e-05)
(0.000207852 9.94145e-05 -5.31412e-05 8.24975e-05 -3.21097e-05 8.48333e-05)
(0.00020572 0.00010379 -6.58794e-05 9.39772e-05 -5.05659e-05 0.000106233)
(0.000191357 9.49093e-05 -6.34204e-05 0.000106822 -7.18172e-05 0.000133389)
(0.000181777 6.36537e-05 -2.95681e-05 9.6327e-05 -8.31609e-05 0.000178142)
(0.000216622 5.32102e-05 3.68109e-05 6.21117e-05 -5.44667e-05 0.000249252)
(0.000236477 0.000101892 9.05215e-05 7.82571e-05 5.61953e-05 0.000377865)
(0.000244635 0.000159497 0.000122938 0.00019022 0.000207477 0.000487355)
(0.000242959 0.000171331 0.000104013 0.000231138 0.000209752 0.000398808)
(0.000286199 0.000170942 7.15543e-05 0.000162184 8.83304e-05 0.000205776)
(0.000430998 0.000151779 -3.92898e-06 8.94733e-05 -7.49305e-06 9.91252e-05)
(0.000606474 0.000119669 -0.000140196 6.5832e-05 -3.37068e-05 0.000116807)
(0.000708844 0.000149223 -0.000228053 7.0304e-05 -5.1119e-05 0.000159462)
(0.00060273 0.000186453 -0.000186171 9.10604e-05 -6.18665e-05 0.000139949)
(0.000369888 0.000144326 -7.64573e-05 8.90483e-05 -3.21867e-05 9.02089e-05)
(0.000185111 0.000127375 -1.78751e-05 0.000167717 3.53609e-05 8.56272e-05)
(0.000168567 9.56404e-05 -3.81788e-05 0.000117642 -2.62733e-05 7.72361e-05)
(0.000167295 9.21723e-05 -3.81922e-05 8.50235e-05 -9.48668e-06 0.000285262)
(0.00017428 7.70049e-05 -0.000100253 0.000102988 8.45258e-05 0.000524922)
(0.000219987 5.47755e-05 -0.000185933 0.000101797 8.21281e-05 0.000477573)
(0.000272762 8.71665e-05 -0.000175885 8.27502e-05 -7.59885e-06 0.000250985)
(0.000275529 0.000170527 -6.86919e-05 0.000153396 -2.88159e-05 7.99628e-05)
(0.000257072 0.00022984 4.51738e-05 0.000320632 0.000126809 0.00013715)
(0.000227096 0.000203878 9.30106e-05 0.00032858 0.000254745 0.000332951)
(0.000190436 0.000113549 5.33665e-05 0.00013175 0.000117378 0.000377352)
(0.000171494 6.99652e-05 -1.28614e-05 0.000115308 -4.74785e-05 0.000176925)
(0.000170466 9.40853e-05 -3.09875e-05 0.000185382 2.34947e-05 8.10599e-05)
(0.000190968 0.000107312 2.22506e-05 0.000125643 6.75803e-05 0.000205283)
(0.000190491 6.97653e-05 4.42159e-05 9.29995e-05 -1.95246e-05 0.00029695)
(0.000163698 6.76961e-05 -1.97777e-05 0.000131613 -7.78572e-05 0.000218993)
(0.0001906 0.000112621 -5.08873e-05 0.000149418 -3.57525e-05 9.85448e-05)
(0.000233428 0.000116763 -1.11431e-06 0.000119089 1.38905e-05 9.22604e-05)
(0.000207703 7.85352e-05 1.48157e-05 9.03206e-05 1.04e-06 0.000133112)
(0.000173681 6.94802e-05 -2.51395e-05 0.000103804 -2.81088e-05 0.000112456)
(0.00019436 0.000101158 -3.09681e-05 0.000131687 -1.02528e-05 8.04858e-05)
(0.000221491 0.000127175 -2.59669e-06 0.000153765 2.28153e-05 9.58777e-05)
(0.00022337 0.000139333 6.56164e-06 0.000183938 4.13299e-05 0.000108843)
(0.000206141 0.000125125 -5.48712e-06 0.00018061 2.87617e-05 9.88793e-05)
(0.00020384 0.000109677 -1.61252e-05 0.000132565 2.28617e-06 8.52034e-05)
(0.000203576 8.88459e-05 -2.08682e-05 8.71422e-05 -1.01976e-05 8.1037e-05)
(0.000188622 7.65366e-05 -2.70677e-05 8.17539e-05 -1.3593e-05 7.90426e-05)
(0.000182013 7.9293e-05 -3.2871e-05 8.27589e-05 -1.28292e-05 8.63293e-05)
(0.000190472 9.33315e-05 -5.32381e-05 9.26407e-05 -3.91509e-05 0.000126143)
(0.000236732 0.000141252 -0.000120638 0.000134746 -0.000104105 0.000219591)
(0.00025683 0.000153266 -0.00017748 0.000135157 -0.000139698 0.000353985)
(0.000231987 0.000114719 -0.000177879 9.25487e-05 -9.1099e-05 0.000470163)
(0.000202922 7.92498e-05 -0.000147577 8.08799e-05 7.07389e-06 0.00052577)
(0.000173442 7.52391e-05 -7.28901e-05 0.000101166 6.48544e-05 0.000427041)
(0.000166129 8.45543e-05 -3.1199e-05 0.000103933 4.13715e-05 0.000242787)
(0.000170375 9.51752e-05 -1.85852e-05 0.000101141 7.94856e-06 0.000125732)
(0.000188413 0.000105444 -3.6365e-05 9.83309e-05 -1.93928e-05 9.98383e-05)
(0.000219472 0.000120968 -7.50837e-05 0.000104456 -4.14118e-05 0.00012889)
(0.000279939 0.000164866 -0.000100706 0.0001355 -5.69271e-05 0.000127962)
(0.000292773 0.000196166 -5.79581e-05 0.000178526 -2.83256e-05 8.14417e-05)
(0.000240499 0.000176005 -4.91145e-06 0.000192665 3.17322e-05 8.28755e-05)
(0.000271238 0.000198665 5.58965e-05 0.000225799 9.73417e-05 0.000130381)
(0.000278077 0.000172711 -8.05074e-05 0.00016894 -4.0603e-05 0.000119412)
(0.000317158 0.000128841 -0.000234612 0.000110918 -5.75034e-05 0.000417438)
(0.000311524 8.04449e-05 -0.000255307 9.678e-05 1.62495e-05 0.000504739)
(0.000281158 7.11094e-05 -0.000163152 9.41035e-05 2.37999e-05 0.000282823)
(0.000247911 0.000100717 -5.51061e-05 9.56696e-05 -4.82321e-06 9.80779e-05)
(0.000234006 0.000136071 2.43529e-05 0.000157929 6.05479e-05 0.000117612)
(0.000239855 0.000171044 9.25246e-05 0.000258929 0.00022069 0.000336463)
(0.000240814 0.00017409 0.000121061 0.000267776 0.00028118 0.000481653)
(0.000214106 0.000117178 5.92471e-05 0.000145304 0.000135082 0.000348514)
(0.000195236 8.51764e-05 -1.39183e-05 9.10874e-05 1.36833e-05 0.00012349)
(0.000197142 9.06546e-05 -1.18117e-05 0.000101405 1.62906e-05 7.96956e-05)
(0.000197807 8.9355e-05 -2.96104e-06 9.51841e-05 1.86797e-05 9.12827e-05)
(0.000211649 8.94781e-05 1.45717e-05 9.25157e-05 1.83902e-05 0.000105245)
(0.000216811 9.84145e-05 2.79886e-05 9.81227e-05 3.03739e-05 0.000115533)
(0.000182665 8.68123e-05 3.06567e-06 9.51476e-05 2.29493e-05 9.56071e-05)
(0.000180828 8.18201e-05 -9.89003e-06 8.89038e-05 1.05527e-05 7.25369e-05)
(0.000180482 8.53507e-05 1.16045e-05 8.94627e-05 1.50097e-05 9.51659e-05)
(0.000153698 8.56052e-05 -2.22587e-05 9.56572e-05 -4.19261e-06 0.000107266)
(0.000242268 0.000149519 -3.36771e-05 0.000137556 -3.81815e-06 8.08795e-05)
(0.000350703 0.000234618 8.2766e-06 0.000200111 2.54397e-05 7.95774e-05)
(0.000342208 0.000272566 1.76818e-05 0.000262795 3.57468e-05 8.24776e-05)
(0.000241256 0.00021803 -1.2787e-05 0.00025071 6.85104e-06 7.99699e-05)
(0.000150919 0.000128314 -2.54987e-05 0.000163463 -1.27584e-05 8.59687e-05)
(0.000116879 7.46452e-05 -1.36549e-05 9.19569e-05 -2.54751e-06 8.99562e-05)
(0.00015129 8.52607e-05 1.92203e-05 8.48842e-05 1.70348e-05 0.000112293)
(0.000114378 8.41749e-05 1.98198e-05 9.45205e-05 4.09451e-05 0.000174633)
(0.000180242 6.78022e-05 -0.000117741 8.26926e-05 1.20331e-05 0.000220151)
(0.000602673 0.000245724 -0.000248859 0.000145544 -7.13497e-05 0.000199009)
(0.000865507 0.000469941 -0.000214702 0.000295733 -9.16524e-05 0.000144991)
(0.000736234 0.000438717 -0.000172353 0.00030145 -7.85867e-05 0.00012984)
(0.000442262 0.000230867 -0.000165451 0.000161678 -5.89463e-05 0.000157359)
(0.000236229 9.48907e-05 -0.000116 9.31468e-05 1.33637e-06 0.000180198)
(0.000192825 6.89327e-05 -8.17485e-05 9.99403e-05 3.52936e-05 0.000165125)
(0.000200075 6.66048e-05 -5.2691e-05 0.000102087 2.85254e-05 0.000111717)
(0.000204697 7.26534e-05 -4.22283e-07 9.94255e-05 1.20554e-05 9.95296e-05)
(0.000175228 7.63345e-05 2.06009e-05 0.000100433 2.74355e-06 0.000171128)
(0.000166465 9.49614e-05 -4.03233e-05 0.000112371 -1.01463e-05 0.000150626)
(0.000246553 0.000150986 -9.3735e-06 0.000151254 2.6083e-05 8.19939e-05)
(0.000279071 0.000196234 8.72228e-05 0.000210452 0.00012109 0.000173995)
(0.000365839 0.000271174 5.91755e-05 0.000296666 8.13514e-05 9.17541e-05)
(0.000764905 0.000278694 -0.000166986 0.000154086 -3.07254e-05 0.000132067)
(0.00118832 0.000151645 -0.000438168 8.84771e-05 -4.17079e-06 0.00027201)
(0.00090896 3.44617e-05 -0.000366957 8.48069e-05 5.11763e-05 0.000267921)
(0.000422934 1.96644e-05 -8.88815e-05 9.46218e-05 4.84491e-05 0.000103501)
(0.0002408 5.74561e-05 2.96051e-05 8.93469e-05 1.19273e-06 0.000115537)
(0.000231091 7.53529e-05 5.91098e-05 8.28264e-05 5.88061e-05 0.000445707)
(0.00028244 0.000150268 0.000189478 0.00018572 0.000269855 0.00062233)
(0.000354987 0.000254342 0.000243472 0.00032566 0.000345222 0.000476359)
(0.000276455 0.000158375 9.00441e-05 0.00020095 0.000140565 0.000175071)
(0.000213197 7.12109e-05 2.10065e-05 8.27466e-05 2.67756e-05 0.000100422)
(0.000205136 7.94532e-05 4.32827e-05 9.2613e-05 7.42872e-05 0.000227219)
(0.000199753 6.35331e-05 -2.2324e-05 8.65131e-05 6.0261e-05 0.000237353)
(0.000228749 5.9832e-05 -7.02186e-05 8.40049e-05 5.11442e-05 0.000251742)
(0.000189747 4.95527e-05 -3.51915e-05 9.79933e-05 8.41426e-05 0.000244636)
(0.000171958 7.72034e-05 2.64468e-05 0.000118873 7.77222e-05 0.000140468)
(0.00019579 9.46656e-05 3.23389e-06 0.000106786 2.30019e-05 8.35555e-05)
(0.000292742 0.000128245 -7.06743e-05 0.000109839 -9.59538e-06 0.000132528)
(0.00044139 0.000205516 -4.54694e-05 0.000147706 1.63144e-06 9.37746e-05)
(0.000569149 0.00027047 0.000112274 0.000178635 7.89595e-05 0.000112284)
(0.000694144 0.00035226 0.000194085 0.000227858 0.000123543 0.00014677)
(0.000706165 0.000444527 9.87125e-05 0.000331751 8.52542e-05 9.39762e-05)
(0.000537937 0.000419259 -1.57518e-05 0.000390986 1.15971e-06 7.97831e-05)
(0.000302012 0.000257099 -3.52827e-05 0.000303005 -3.02388e-05 8.75393e-05)
(0.000163981 9.87919e-05 -2.36748e-05 0.000121243 -2.61762e-05 0.000113754)
(0.00014416 6.3792e-05 -2.83819e-05 7.8497e-05 4.84175e-05 0.000232655)
(0.000269155 -1.22438e-05 -0.000173221 0.000116117 0.000116916 0.000297628)
(0.000642904 2.23868e-06 -0.000205285 7.98821e-05 4.44363e-05 0.000159666)
(0.00102696 0.000306762 1.05322e-05 0.000141888 2.8079e-05 8.1802e-05)
(0.0011933 0.000652223 0.000199554 0.000404874 0.00013864 0.000122055)
(0.00110066 0.000712411 0.000126277 0.000514616 0.000111712 9.97436e-05)
(0.000854475 0.000478139 -3.03675e-05 0.00031446 8.24911e-06 8.75734e-05)
(0.000678332 0.000225349 -8.21873e-05 0.000123196 7.26678e-06 0.000105938)
(0.000571028 0.000106303 -7.3066e-05 8.4109e-05 3.21612e-05 0.000108411)
(0.000374394 7.73384e-05 -3.8863e-05 8.21613e-05 3.91506e-05 0.000101669)
(0.000243337 8.23783e-05 -7.94829e-06 8.07194e-05 3.60575e-05 9.4358e-05)
(0.000207464 8.14405e-05 9.92408e-06 8.07628e-05 3.78506e-05 8.9753e-05)
(0.000202307 7.60926e-05 1.47924e-05 9.65009e-05 5.07818e-05 9.27993e-05)
(0.000195116 7.61618e-05 1.60275e-05 0.000189843 0.000105061 0.000123474)
(0.000215674 0.000150752 5.9764e-05 0.000331316 0.000178305 0.000161539)
(0.00108679 0.000149494 -1.72691e-05 8.10105e-05 3.55333e-05 0.000105264)
(0.00162005 7.51852e-05 -0.000338112 7.48493e-05 3.60592e-05 0.000199574)
(0.00127978 7.38493e-05 -0.0003167 7.51125e-05 3.59298e-05 0.000216475)
(0.00051429 9.59748e-05 -9.88127e-05 8.09454e-05 2.48938e-05 0.00015495)
(0.000243014 8.11931e-05 2.78936e-05 9.98306e-05 3.35423e-05 8.33808e-05)
(0.000236265 3.61843e-05 -9.11667e-07 0.000147221 0.000119962 0.000184284)
(0.00022516 4.01061e-05 2.69319e-06 0.000272163 0.000302742 0.000448253)
(0.000287457 0.000214109 0.00018864 0.000446341 0.000414734 0.000466089)
(0.000441013 0.000297403 0.000268753 0.000340319 0.000301845 0.000342969)
(0.000324772 0.000120404 0.000102256 0.000115532 8.34047e-05 0.000129959)
(0.000233672 6.96033e-05 6.31135e-05 8.65096e-05 5.98843e-05 0.000160685)
(0.000231811 6.30766e-05 9.25702e-05 8.31704e-05 4.56829e-05 0.000351609)
(0.000285699 0.00010087 -0.000128853 0.000105121 -5.43298e-05 0.000517204)
(0.00050844 0.000176547 -0.000381462 0.00012848 -0.000124357 0.000685625)
(0.000338349 8.9293e-05 -0.000222693 9.00977e-05 -2.97604e-05 0.000562998)
(0.000207562 5.89237e-05 3.57648e-05 8.743e-05 5.76263e-05 0.000203461)
(0.000265947 9.52756e-05 -1.06536e-05 0.000105685 1.3727e-05 0.000127405)
(0.000280669 0.000108586 -2.29346e-05 0.000120293 -1.31466e-06 0.000137737)
(0.000263832 0.000110309 4.34578e-05 0.000136281 5.33989e-05 0.000128845)
(0.000308696 0.000130415 0.000117459 0.000136783 0.000100124 0.000208051)
(0.000465251 0.000220434 0.000176345 0.000187218 0.000125712 0.000208599)
(0.000550428 0.000330364 0.000128615 0.000301169 0.000112304 0.00014834)
(0.000546029 0.000349262 6.93845e-05 0.000332917 6.69113e-05 0.00012129)
(0.000528512 0.000279191 7.02452e-06 0.00022909 1.30026e-05 0.000113155)
(0.00044369 0.00011961 -0.000109745 8.47012e-05 -1.6094e-05 0.000171615)
(0.000366694 -5.37528e-06 -0.000170694 7.05255e-05 6.8827e-05 0.000289007)
(0.000344434 -6.87744e-05 -0.000107799 0.000120163 9.72566e-05 0.000197838)
(0.000405003 -5.34921e-05 1.47738e-05 8.6589e-05 2.82681e-05 0.000110306)
(0.000649116 0.000159182 0.000161086 8.44211e-05 6.1059e-05 0.000144168)
(0.0009381 0.000471648 0.000238857 0.000287975 0.000140776 0.000165218)
(0.00113585 0.000592392 0.00011619 0.000358122 7.39394e-05 0.000118883)
(0.00116143 0.000489334 -2.9272e-05 0.000245144 -3.65723e-07 0.000115822)
(0.00115811 0.000334285 -1.24204e-06 0.000132734 1.75704e-05 0.000112854)
(0.000970831 0.000226382 5.5961e-05 9.05806e-05 3.26506e-05 0.000108777)
(0.000518697 0.000113316 1.14641e-05 6.27357e-05 2.40824e-05 0.000109259)
(0.000320118 4.50011e-05 -9.38268e-06 6.01313e-05 4.15946e-05 0.000130376)
(0.000293712 -1.01919e-05 -1.90755e-05 0.000129114 9.28953e-05 0.000152017)
(0.000281036 -3.78933e-05 -2.6857e-05 0.00022565 0.00015014 0.000180829)
(0.000205501 6.64554e-05 4.64449e-05 0.000203985 0.000171757 0.000229074)
(0.000414729 0.000175723 0.000174522 0.000124143 0.000102941 0.000170596)
(0.000253672 0.000142199 -0.000139225 0.000232874 -0.000163861 0.000393915)
(0.000303232 0.000128298 -0.000162201 0.000161764 -0.000102279 0.000355521)
(0.000215359 1.95916e-05 -1.17069e-05 8.5096e-05 2.7192e-05 0.000151658)
(0.000174255 4.00215e-05 1.9906e-05 0.000131221 -1.17336e-05 0.000156051)
(0.000182767 4.36885e-05 1.54321e-05 9.26158e-05 -4.28664e-07 0.000210353)
(0.00018796 4.87974e-05 4.55942e-05 9.96483e-05 8.69369e-05 0.000377518)
(0.000284174 0.000150233 0.000229162 0.000201787 0.000251751 0.000555891)
(0.000583419 0.000324432 0.000364884 0.000287323 0.000277112 0.000435115)
(0.000623616 0.000228758 0.000228963 0.000160041 0.000119781 0.000240396)
(0.000281449 3.77245e-05 4.57908e-05 9.14845e-05 3.40277e-05 0.000149182)
(0.000234179 9.43224e-05 6.28892e-05 0.00018894 0.000121631 0.000213101)
(0.000293609 1.24774e-05 -9.2823e-05 0.000119242 0.00013042 0.000382606)
(0.000687593 0.000151817 -0.000514521 9.79373e-05 -7.0039e-05 0.00077403)
(0.000626621 0.000318424 -0.00062163 0.000234466 -0.000362199 0.00113279)
(0.000295461 0.000160116 -0.00019098 0.000189142 -0.000210961 0.00064735)
(0.000248516 6.71221e-05 2.5756e-05 7.66887e-05 1.78659e-05 0.000186857)
(0.000373135 0.000156832 -4.86179e-05 0.000125203 -1.31898e-05 0.0001957)
(0.000365904 0.000166854 2.23557e-05 0.000144706 2.79886e-05 0.000169925)
(0.000294096 0.000129904 6.6617e-05 0.000148336 8.47269e-05 0.000212242)
(0.000264688 9.62722e-05 5.57435e-05 0.000118887 8.60758e-05 0.000245536)
(0.000269051 9.98055e-05 4.1021e-05 0.000130919 5.86238e-05 0.000169122)
(0.000264986 9.33949e-05 5.0383e-06 0.000158695 -1.40055e-05 0.000142069)
(0.000283308 0.000104746 -1.70805e-05 0.000129885 -4.10692e-05 0.000183118)
(0.000367055 0.000144749 -4.7168e-05 0.000121541 -3.3555e-05 0.000182311)
(0.000413835 0.000145985 -7.12436e-05 0.000105272 -2.89294e-05 0.0001935)
(0.000379726 6.53458e-05 -6.03112e-05 6.02957e-05 2.36587e-05 0.00019505)
(0.000363247 -4.626e-05 -4.87568e-05 0.000136834 8.74842e-05 0.000186566)
(0.000491259 -0.000103823 -9.34713e-05 0.000147013 9.8292e-05 0.000197578)
(0.000706241 0.000112965 -2.93183e-05 6.63997e-05 2.00412e-05 0.000150368)
(0.000750911 0.000423815 0.000163767 0.000312022 0.000111464 0.000170983)
(0.000666012 0.00053724 0.000225904 0.000564728 0.000221874 0.000218628)
(0.00055456 0.000418249 0.000222019 0.000433919 0.000213907 0.00023991)
(0.000607001 0.000233626 0.000295179 0.00014964 0.000137113 0.000301043)
(0.000612056 4.59057e-05 0.000259869 7.76028e-05 2.80285e-05 0.00026021)
(0.000465717 -1.5573e-05 5.19886e-05 9.18086e-05 2.87522e-05 0.00014471)
(0.00046835 -2.64137e-06 -6.89292e-05 8.66417e-05 4.84379e-05 0.000170836)
(0.000271173 2.22672e-05 -4.7434e-05 8.75641e-05 4.44756e-05 0.000181869)
(0.000194983 4.49587e-05 5.73101e-05 8.96944e-05 4.43111e-05 0.000189816)
(0.000426615 9.56883e-05 7.07838e-05 0.000101055 4.82518e-05 0.000147666)
(0.000330197 0.00015037 -7.57912e-05 0.000171597 -2.86846e-05 0.000177926)
(0.000252828 1.31156e-05 -4.6748e-05 8.31331e-05 -1.62189e-05 0.000333483)
(0.000283939 -2.86967e-05 -5.55162e-05 0.000125076 2.81508e-05 0.000197432)
(0.000263886 6.86709e-05 -1.64742e-05 0.000171489 -1.18377e-05 0.000162584)
(0.000415317 4.49713e-05 9.56514e-06 8.71953e-05 -7.98857e-06 0.000157179)
(0.000252086 -2.53998e-05 -1.05901e-05 0.000145399 7.45055e-06 0.000162816)
(0.000224261 9.58769e-05 6.30866e-05 0.000194816 0.000100101 0.000267519)
(0.00060732 0.000323855 0.000233468 0.000284943 0.000158054 0.000304035)
(0.00101163 0.000548671 2.45714e-05 0.000404746 2.16233e-05 0.000183223)
(0.000741624 0.000363117 -0.000227416 0.000273757 -0.000117616 0.000266064)
(0.000232711 4.6239e-05 -0.000139624 9.33627e-05 -5.66371e-06 0.000376077)
(0.000147432 4.86486e-05 1.72785e-05 0.000138286 0.000125899 0.000465259)
(0.000144851 3.02303e-05 -2.07021e-05 8.36508e-05 3.08564e-05 0.000446459)
(0.000145462 3.45769e-05 -1.94724e-05 0.000146698 -0.000143027 0.000531656)
(0.000156393 1.03262e-07 5.1271e-05 0.000211591 -0.000248256 0.000670135)
(0.000154994 2.49086e-05 1.26864e-05 9.45882e-05 -5.12207e-05 0.000350811)
(0.000161431 4.33247e-05 -1.14776e-05 7.73499e-05 7.32703e-06 0.000201391)
(0.00016138 4.42873e-05 -1.76985e-05 7.17344e-05 -2.2491e-06 0.0002366)
(0.00016619 2.94947e-05 7.34963e-06 8.44006e-05 6.8442e-07 0.000211863)
(0.000200641 -1.33238e-05 7.30898e-06 0.00013595 2.68016e-05 0.000166293)
(0.000214964 -1.81333e-05 -1.77096e-06 0.000126791 4.20133e-05 0.000156563)
(0.000246857 -4.22438e-05 6.16644e-05 0.000151706 -2.953e-05 0.000180391)
(0.000263236 -3.90871e-05 0.000124057 0.000126214 -7.48555e-05 0.000301256)
(0.000206615 2.54337e-05 6.91409e-05 6.02023e-05 9.43774e-06 0.000280645)
(0.000190615 2.85453e-05 3.56824e-05 6.40116e-05 8.41984e-06 0.000244957)
(0.000184992 3.52866e-05 1.74237e-05 0.000103022 -4.01003e-06 0.000198827)
(0.000177972 2.96394e-05 1.52722e-05 5.83552e-05 3.39229e-05 0.000178287)
(0.000172102 -1.15531e-06 2.07573e-06 0.00017666 0.000131814 0.000250421)
(0.000176604 -1.00588e-06 -2.37453e-05 0.000163346 0.000192359 0.000412014)
(0.000175621 4.93577e-05 -1.33489e-05 8.42361e-05 -3.36812e-05 0.000337247)
(0.000296505 0.000268033 -7.74898e-06 0.000468482 -7.73049e-06 0.000195615)
(0.000609834 0.000601822 0.000128767 0.000773626 0.000187796 0.000226219)
(0.000570814 0.000560812 0.000183486 0.000741258 0.000269789 0.000273187)
(0.000373242 0.000288449 0.000152101 0.000395686 0.000233534 0.000316098)
(0.000203654 7.88137e-05 2.87193e-05 0.000158959 0.000112134 0.000272698)