/*--------------------------------*- C++ -*----------------------------------*\
  =========                 |
  \\      /  F ield         | OpenFOAM: The Open Source CFD Toolbox
   \\    /   O peration     | Website:  https://openfoam.org
    \\  /    A nd           | Version:  10
     \\/     M anipulation  |
\*---------------------------------------------------------------------------*/
FoamFile
{
    format      ascii;
    class       volVectorField;
    location    "27.5";
    object      U;
}
// * * * * * * * * * * * * * * * * * * * * * * * * * * * * * * * * * * * * * //

dimensions      [0 1 -1 0 0 0 0];

internalField   nonuniform List<vector> 
102400
(
(0.01924 5.20258e-08 1.75076e-07)
(0.01924 -2.23777e-08 -1.60096e-07)
(0.0192411 -1.81826e-09 2.74445e-07)
(0.0192404 2.76571e-08 -2.14334e-07)
(0.0192413 -2.31497e-08 1.96363e-07)
(0.0192415 1.71611e-08 -1.87138e-07)
(0.0192416 2.68318e-09 3.82419e-08)
(0.019242 -2.08349e-09 -1.12305e-07)
(0.0192425 8.05376e-10 -2.35131e-07)
(0.0192422 1.15243e-08 -1.98283e-09)
(0.0192429 -1.33578e-08 -4.3843e-07)
(0.0192429 9.20654e-09 -1.25758e-07)
(0.0192429 2.62335e-09 -3.82569e-07)
(0.0192433 -1.49612e-08 -4.73681e-07)
(0.0192431 1.60218e-08 -2.93956e-07)
(0.0192431 -1.52507e-08 -5.92088e-07)
(0.0192433 -6.10844e-10 -5.76547e-07)
(0.0192428 4.89648e-09 -4.00592e-07)
(0.0192431 -1.83474e-08 -8.63161e-07)
(0.0192426 7.89086e-09 -4.1935e-07)
(0.0192425 -1.0484e-08 -7.05572e-07)
(0.0192424 -8.98765e-09 -7.87923e-07)
(0.0192419 6.26121e-09 -3.33283e-07)
(0.0192418 -1.89295e-08 -9.76277e-07)
(0.0192415 4.12378e-09 -2.89126e-07)
(0.019241 -7.59987e-09 -6.69508e-07)
(0.0192411 -1.21839e-08 -5.56231e-07)
(0.0192404 7.42254e-09 -2.33757e-07)
(0.0192404 -1.56983e-08 -6.38333e-07)
(0.0192401 -9.09601e-10 -1.10913e-07)
(0.0192397 3.09086e-09 -3.32212e-07)
(0.0192398 -1.35221e-08 -2.88207e-07)
(0.0192396 3.39697e-09 3.77084e-08)
(0.0192392 8.13405e-09 -2.65929e-07)
(0.0192398 -2.85494e-08 -9.2003e-09)
(0.019239 3.68628e-08 7.8686e-08)
(0.0192395 -2.64024e-08 -1.79357e-07)
(0.0192399 3.83133e-10 2.13411e-07)
(0.0192392 3.51797e-08 -6.49537e-08)
(0.0192402 -5.09473e-08 4.21671e-08)
(0.0588631 2.31521e-07 2.853e-07)
(0.0588638 -1.373e-07 -2.98775e-07)
(0.0588659 2.41069e-08 5.88467e-07)
(0.0588648 8.56581e-08 -5.45254e-07)
(0.0588674 -1.13251e-07 4.76665e-07)
(0.0588675 7.17655e-08 -5.68083e-07)
(0.0588684 -1.62341e-08 1.38037e-07)
(0.0588695 -3.42025e-08 -4.89215e-07)
(0.0588706 -3.74002e-09 -4.99355e-07)
(0.0588704 1.27029e-08 -2.51087e-07)
(0.0588722 -8.17465e-08 -1.11641e-06)
(0.0588719 2.22287e-08 -4.40717e-07)
(0.0588727 -3.41346e-08 -1.20315e-06)
(0.0588732 -8.16766e-08 -1.21326e-06)
(0.058873 3.64864e-08 -1.01948e-06)
(0.0588731 -1.03691e-07 -1.69005e-06)
(0.0588734 -1.90721e-08 -1.55843e-06)
(0.0588723 -2.04283e-08 -1.3893e-06)
(0.0588729 -1.04054e-07 -2.29451e-06)
(0.0588715 1.54814e-08 -1.304e-06)
(0.0588714 -8.42213e-08 -2.14942e-06)
(0.0588706 -4.7564e-08 -2.00699e-06)
(0.0588696 -7.54797e-09 -1.305e-06)
(0.0588689 -9.58437e-08 -2.54094e-06)
(0.058868 8.25185e-09 -9.38377e-07)
(0.0588668 -5.84244e-08 -2.0258e-06)
(0.0588666 -5.05325e-08 -1.34306e-06)
(0.0588648 1.79845e-08 -9.78503e-07)
(0.0588647 -7.727e-08 -1.57977e-06)
(0.0588637 4.06298e-09 -4.202e-07)
(0.0588627 -2.53469e-09 -1.02601e-06)
(0.0588626 -5.4043e-08 -6.24967e-07)
(0.058862 2.49707e-08 -1.08981e-07)
(0.0588612 1.18596e-08 -6.6543e-07)
(0.0588624 -9.51465e-08 1.89552e-08)
(0.0588605 1.54125e-07 4.01696e-08)
(0.0588621 -1.38621e-07 -3.49078e-07)
(0.0588621 5.25196e-08 4.76687e-07)
(0.0588614 1.02399e-07 -2.19155e-07)
(0.0588637 -1.9917e-07 2.02216e-07)
(0.100995 5.11129e-07 2.68848e-07)
(0.100996 -3.27324e-07 -3.53733e-07)
(0.100999 1.03636e-07 7.31466e-07)
(0.100998 1.48052e-07 -7.93063e-07)
(0.101002 -2.38623e-07 6.43974e-07)
(0.101002 1.59069e-07 -9.06886e-07)
(0.101004 -6.54947e-08 2.10738e-07)
(0.101006 -8.39589e-08 -8.97509e-07)
(0.101008 -2.14854e-08 -6.57133e-07)
(0.101008 -9.99657e-09 -6.19495e-07)
(0.101011 -2.00341e-07 -1.6107e-06)
(0.10101 2.1553e-08 -8.29507e-07)
(0.101012 -1.27212e-07 -1.94041e-06)
(0.101012 -2.01001e-07 -1.84758e-06)
(0.101012 3.06889e-08 -1.78063e-06)
(0.101012 -2.76441e-07 -2.65503e-06)
(0.101013 -7.14418e-08 -2.46331e-06)
(0.101011 -1.0857e-07 -2.4117e-06)
(0.101012 -2.63014e-07 -3.51893e-06)
(0.10101 -9.16626e-09 -2.2515e-06)
(0.10101 -2.40967e-07 -3.50689e-06)
(0.101008 -1.29353e-07 -3.08971e-06)
(0.101007 -7.33632e-08 -2.42448e-06)
(0.101006 -2.38144e-07 -3.85411e-06)
(0.101004 -1.36782e-08 -1.73695e-06)
(0.101002 -1.67388e-07 -3.3015e-06)
(0.101001 -1.2181e-07 -2.06433e-06)
(0.100999 8.79089e-09 -1.87709e-06)
(0.100998 -1.84591e-07 -2.3407e-06)
(0.100996 6.32596e-09 -9.01857e-07)
(0.100995 -2.7925e-08 -1.67798e-06)
(0.100994 -1.12953e-07 -9.43246e-07)
(0.100993 5.6367e-08 -4.07519e-07)
(0.100992 1.05045e-08 -9.91626e-07)
(0.100994 -1.77653e-07 -3.05533e-08)
(0.100991 3.30172e-07 -9.61879e-08)
(0.100994 -3.09393e-07 -4.5573e-07)
(0.100993 1.68417e-07 5.86699e-07)
(0.100993 1.78042e-07 -3.62358e-07)
(0.100995 -3.89853e-07 3.27747e-07)
(0.145824 8.59533e-07 1.83135e-07)
(0.145827 -5.70813e-07 -4.05329e-07)
(0.145829 2.28132e-07 7.62178e-07)
(0.145829 2.04174e-07 -9.92237e-07)
(0.145834 -3.87859e-07 7.14607e-07)
(0.145834 2.61496e-07 -1.18658e-06)
(0.145838 -1.47042e-07 2.44344e-07)
(0.145839 -1.57598e-07 -1.26156e-06)
(0.145842 -6.29557e-08 -7.62535e-07)
(0.145843 -7.03183e-08 -9.90274e-07)
(0.145847 -3.72868e-07 -1.94716e-06)
(0.145846 -1.17889e-08 -1.22632e-06)
(0.145849 -2.87113e-07 -2.50916e-06)
(0.145849 -3.8089e-07 -2.39825e-06)
(0.14585 -2.46246e-08 -2.44558e-06)
(0.14585 -5.37521e-07 -3.45815e-06)
(0.145851 -1.76725e-07 -3.26359e-06)
(0.145849 -2.74508e-07 -3.33518e-06)
(0.14585 -5.00305e-07 -4.56525e-06)
(0.145847 -8.84937e-08 -3.17886e-06)
(0.145847 -4.86003e-07 -4.7068e-06)
(0.145845 -2.65177e-07 -4.10538e-06)
(0.145843 -2.03438e-07 -3.5445e-06)
(0.145841 -4.46289e-07 -5.01646e-06)
(0.145839 -7.78978e-08 -2.64398e-06)
(0.145836 -3.36356e-07 -4.47155e-06)
(0.145835 -2.29671e-07 -2.84595e-06)
(0.145831 -3.00087e-08 -2.82924e-06)
(0.14583 -3.33754e-07 -3.06632e-06)
(0.145827 3.18745e-11 -1.5471e-06)
(0.145826 -7.34797e-08 -2.30372e-06)
(0.145825 -1.8561e-07 -1.36987e-06)
(0.145823 9.4585e-08 -8.03471e-07)
(0.145822 4.16684e-09 -1.34219e-06)
(0.145823 -2.63137e-07 -2.02122e-07)
(0.145819 5.48232e-07 -3.03748e-07)
(0.145823 -5.18086e-07 -6.00973e-07)
(0.145821 3.4265e-07 5.67961e-07)
(0.145822 2.52389e-07 -5.16692e-07)
(0.145824 -5.95511e-07 3.63378e-07)
(0.193433 1.27497e-06 3.99882e-08)
(0.193436 -8.65347e-07 -5.14748e-07)
(0.193439 3.97111e-07 7.25355e-07)
(0.193439 2.52599e-07 -1.19125e-06)
(0.193445 -5.61358e-07 7.11828e-07)
(0.193445 3.77809e-07 -1.42337e-06)
(0.19345 -2.64995e-07 2.47628e-07)
(0.193452 -2.55248e-07 -1.55412e-06)
(0.193456 -1.34356e-07 -8.40836e-07)
(0.193457 -1.71111e-07 -1.28538e-06)
(0.193462 -6.04902e-07 -2.15766e-06)
(0.193462 -8.51519e-08 -1.54685e-06)
(0.193466 -5.20654e-07 -2.88014e-06)
(0.193466 -6.29444e-07 -2.83915e-06)
(0.193468 -1.38435e-07 -2.91057e-06)
(0.193468 -8.9575e-07 -4.07928e-06)
(0.193469 -3.43525e-07 -3.88513e-06)
(0.193467 -5.2886e-07 -4.06515e-06)
(0.193468 -8.25111e-07 -5.42259e-06)
(0.193465 -2.33135e-07 -3.97691e-06)
(0.193465 -8.28513e-07 -5.71216e-06)
(0.193462 -4.65665e-07 -5.03341e-06)
(0.19346 -4.08181e-07 -4.55813e-06)
(0.193457 -7.297e-07 -6.0853e-06)
(0.193454 -1.91228e-07 -3.5736e-06)
(0.193451 -5.72952e-07 -5.55611e-06)
(0.193449 -3.81948e-07 -3.71802e-06)
(0.193445 -1.04509e-07 -3.78503e-06)
(0.193443 -5.30651e-07 -3.85931e-06)
(0.193439 -1.91178e-08 -2.319e-06)
(0.193437 -1.43947e-07 -2.96916e-06)
(0.193435 -2.75068e-07 -1.95739e-06)
(0.193433 1.37002e-07 -1.28388e-06)
(0.193431 -8.07394e-09 -1.81141e-06)
(0.193432 -3.53095e-07 -5.04735e-07)
(0.193427 8.06205e-07 -6.03461e-07)
(0.193432 -7.61327e-07 -8.561e-07)
(0.193428 5.72128e-07 4.37254e-07)
(0.193431 3.27563e-07 -7.30821e-07)
(0.193432 -8.14375e-07 2.89311e-07)
(0.243897 1.76681e-06 -1.78136e-07)
(0.2439 -1.21951e-06 -7.2924e-07)
(0.243903 6.15818e-07 6.41042e-07)
(0.243904 2.95782e-07 -1.43974e-06)
(0.24391 -7.62017e-07 6.48788e-07)
(0.243911 5.15291e-07 -1.65878e-06)
(0.243917 -4.22038e-07 2.29145e-07)
(0.24392 -3.72601e-07 -1.78904e-06)
(0.243925 -2.36819e-07 -9.06699e-07)
(0.243926 -3.09958e-07 -1.47917e-06)
(0.243932 -8.99505e-07 -2.27516e-06)
(0.243932 -1.97594e-07 -1.73279e-06)
(0.243938 -8.31064e-07 -3.06028e-06)
(0.243938 -9.5084e-07 -3.13306e-06)
(0.243941 -3.12413e-07 -3.11619e-06)
(0.243941 -1.35953e-06 -4.4957e-06)
(0.243943 -5.76583e-07 -4.25487e-06)
(0.243941 -8.7943e-07 -4.52883e-06)
(0.243943 -1.24719e-06 -6.05155e-06)
(0.243939 -4.5056e-07 -4.53648e-06)
(0.24394 -1.28061e-06 -6.48561e-06)
(0.243936 -7.41075e-07 -5.7975e-06)
(0.243934 -6.97948e-07 -5.37964e-06)
(0.24393 -1.10292e-06 -7.05425e-06)
(0.243927 -3.63553e-07 -4.42656e-06)
(0.243923 -8.91562e-07 -6.5602e-06)
(0.24392 -5.90282e-07 -4.64313e-06)
(0.243915 -2.25806e-07 -4.72067e-06)
(0.243913 -7.89094e-07 -4.74962e-06)
(0.243908 -5.96252e-08 -3.18233e-06)
(0.243905 -2.50818e-07 -3.73251e-06)
(0.243902 -3.91518e-07 -2.71118e-06)
(0.243899 1.76418e-07 -1.86156e-06)
(0.243897 -3.41646e-08 -2.4628e-06)
(0.243897 -4.56478e-07 -9.44969e-07)
(0.243892 1.1034e-06 -1.02892e-06)
(0.243897 -1.04827e-06 -1.27112e-06)
(0.243891 8.5584e-07 1.9494e-07)
(0.243896 4.03664e-07 -1.0575e-06)
(0.243895 -1.05465e-06 9.8683e-08)
(0.297261 2.34363e-06 -4.94703e-07)
(0.297263 -1.64812e-06 -1.09265e-06)
(0.297267 8.91825e-07 5.07213e-07)
(0.297268 3.33832e-07 -1.78204e-06)
(0.297275 -9.91695e-07 5.24043e-07)
(0.297276 6.8508e-07 -1.95225e-06)
(0.297283 -6.18434e-07 1.82702e-07)
(0.297286 -5.00514e-07 -2.01027e-06)
(0.297292 -3.66295e-07 -9.83708e-07)
(0.297294 -4.78023e-07 -1.5959e-06)
(0.297302 -1.25324e-06 -2.34464e-06)
(0.297302 -3.39674e-07 -1.77794e-06)
(0.297309 -1.21492e-06 -3.08192e-06)
(0.297309 -1.34111e-06 -3.27489e-06)
(0.297314 -5.40264e-07 -3.04902e-06)
(0.297314 -1.93076e-06 -4.69541e-06)
(0.297317 -8.72692e-07 -4.33946e-06)
(0.297316 -1.32794e-06 -4.66543e-06)
(0.297317 -1.77149e-06 -6.41674e-06)
(0.297314 -7.42006e-07 -4.75669e-06)
(0.297315 -1.8524e-06 -6.98049e-06)
(0.297311 -1.09819e-06 -6.29865e-06)
(0.297309 -1.08188e-06 -5.91693e-06)
(0.297305 -1.58084e-06 -7.8603e-06)
(0.297301 -6.04361e-07 -5.09401e-06)
(0.297297 -1.31032e-06 -7.43391e-06)
(0.297293 -8.68298e-07 -5.53545e-06)
(0.297288 -4.10391e-07 -5.59878e-06)
(0.297285 -1.12833e-06 -5.68785e-06)
(0.297279 -1.35944e-07 -4.09399e-06)
(0.297275 -4.13161e-07 -4.6009e-06)
(0.297271 -5.52497e-07 -3.60992e-06)
(0.297267 1.98713e-07 -2.53418e-06)
(0.297264 -9.10805e-08 -3.31952e-06)
(0.297263 -5.88942e-07 -1.53544e-06)
(0.297257 1.43211e-06 -1.59101e-06)
(0.297262 -1.3975e-06 -1.88716e-06)
(0.297255 1.19009e-06 -1.62982e-07)
(0.297261 4.72648e-07 -1.54364e-06)
(0.297258 -1.32842e-06 -2.14802e-07)
(0.35353 3.00671e-06 -9.1239e-07)
(0.353529 -2.17338e-06 -1.64734e-06)
(0.353534 1.23111e-06 3.12334e-07)
(0.353535 3.62057e-07 -2.25533e-06)
(0.353542 -1.25348e-06 3.34621e-07)
(0.353544 8.98364e-07 -2.37082e-06)
(0.353551 -8.5322e-07 8.47153e-08)
(0.353554 -6.26238e-07 -2.27726e-06)
(0.353561 -5.13414e-07 -1.11387e-06)
(0.353564 -6.61133e-07 -1.69666e-06)
(0.353572 -1.65501e-06 -2.4348e-06)
(0.353574 -4.92575e-07 -1.73823e-06)
(0.353582 -1.66019e-06 -3.00128e-06)
(0.353583 -1.78554e-06 -3.32468e-06)
(0.353589 -8.04763e-07 -2.74858e-06)
(0.35359 -2.60096e-06 -4.69867e-06)
(0.353593 -1.21689e-06 -4.18227e-06)
(0.353594 -1.86566e-06 -4.43502e-06)
(0.353596 -2.39334e-06 -6.5314e-06)
(0.353593 -1.09814e-06 -4.56087e-06)
(0.353594 -2.54652e-06 -7.1579e-06)
(0.35359 -1.53583e-06 -6.45552e-06)
(0.353589 -1.56334e-06 -6.0642e-06)
(0.353585 -2.17361e-06 -8.4104e-06)
(0.353581 -9.19481e-07 -5.45992e-06)
(0.353577 -1.84689e-06 -8.067e-06)
(0.353572 -1.22796e-06 -6.2645e-06)
(0.353566 -6.77543e-07 -6.34512e-06)
(0.353562 -1.57043e-06 -6.55029e-06)
(0.353555 -2.67124e-07 -4.97376e-06)
(0.353551 -6.56436e-07 -5.50445e-06)
(0.353546 -7.82552e-07 -4.60727e-06)
(0.353541 1.82582e-07 -3.24552e-06)
(0.353537 -2.05978e-07 -4.34842e-06)
(0.353535 -7.7391e-07 -2.28702e-06)
(0.353527 1.77428e-06 -2.24751e-06)
(0.353533 -1.83869e-06 -2.73455e-06)
(0.353522 1.56627e-06 -6.2256e-07)
(0.353531 5.16751e-07 -2.22093e-06)
(0.353524 -1.65375e-06 -6.58746e-07)
(0.41265 3.74459e-06 -1.38496e-06)
(0.412647 -2.82916e-06 -2.41895e-06)
(0.412651 1.63217e-06 5.90724e-08)
(0.412653 3.6993e-07 -2.88958e-06)
(0.412658 -1.55327e-06 1.02531e-07)
(0.412661 1.15967e-06 -2.96622e-06)
(0.412667 -1.12795e-06 -9.51098e-08)
(0.412672 -7.40455e-07 -2.64184e-06)
(0.412679 -6.65473e-07 -1.347e-06)
(0.412683 -8.44052e-07 -1.85589e-06)
(0.412692 -2.08851e-06 -2.62771e-06)
(0.412694 -6.30448e-07 -1.72606e-06)
(0.412704 -2.14703e-06 -2.89234e-06)
(0.412705 -2.2593e-06 -3.40828e-06)
(0.412713 -1.07688e-06 -2.32838e-06)
(0.412715 -3.34971e-06 -4.55834e-06)
(0.412719 -1.58057e-06 -3.94076e-06)
(0.412721 -2.46944e-06 -3.83854e-06)
(0.412724 -3.09463e-06 -6.49791e-06)
(0.412723 -1.49467e-06 -3.93961e-06)
(0.412724 -3.35206e-06 -7.01161e-06)
(0.412721 -2.03924e-06 -6.26278e-06)
(0.41272 -2.13363e-06 -5.73036e-06)
(0.412717 -2.87972e-06 -8.61912e-06)
(0.412713 -1.30472e-06 -5.4273e-06)
(0.412709 -2.51192e-06 -8.32656e-06)
(0.412703 -1.67272e-06 -6.655e-06)
(0.412698 -1.04312e-06 -6.85871e-06)
(0.412693 -2.13473e-06 -7.15488e-06)
(0.412686 -4.70696e-07 -5.68713e-06)
(0.41268 -1.00757e-06 -6.28229e-06)
(0.412675 -1.10989e-06 -5.61637e-06)
(0.412668 1.02687e-07 -3.87666e-06)
(0.412663 -4.14811e-07 -5.41782e-06)
(0.41266 -1.04038e-06 -3.19677e-06)
(0.412651 2.10168e-06 -2.87836e-06)
(0.412657 -2.41407e-06 -3.80902e-06)
(0.412642 1.97e-06 -1.1297e-06)
(0.412654 4.94125e-07 -3.07905e-06)
(0.412642 -2.05666e-06 -1.23958e-06)
(0.474495 4.5304e-06 -1.79287e-06)
(0.474489 -3.66215e-06 -3.39002e-06)
(0.474493 2.0816e-06 -1.93454e-07)
(0.474494 3.16755e-07 -3.70196e-06)
(0.474498 -1.91009e-06 -1.04816e-07)
(0.474501 1.45961e-06 -3.72829e-06)
(0.474506 -1.45124e-06 -3.69815e-07)
(0.474512 -8.46682e-07 -3.11849e-06)
(0.474518 -8.13537e-07 -1.7011e-06)
(0.474523 -1.01932e-06 -2.13319e-06)
(0.474532 -2.53931e-06 -2.97003e-06)
(0.474535 -7.28333e-07 -1.87831e-06)
(0.474546 -2.65283e-06 -2.83387e-06)
(0.474547 -2.73431e-06 -3.65051e-06)
(0.474557 -1.31906e-06 -2.00892e-06)
(0.47456 -4.14762e-06 -4.31249e-06)
(0.474566 -1.92448e-06 -3.90184e-06)
(0.474569 -3.10071e-06 -2.94037e-06)
(0.474572 -3.8433e-06 -6.50523e-06)
(0.474573 -1.89019e-06 -3.02774e-06)
(0.474575 -4.24037e-06 -6.57745e-06)
(0.474574 -2.575e-06 -5.85523e-06)
(0.474574 -2.76608e-06 -4.91377e-06)
(0.474571 -3.67821e-06 -8.45175e-06)
(0.474567 -1.73749e-06 -4.9706e-06)
(0.474565 -3.30051e-06 -8.15245e-06)
(0.474558 -2.18753e-06 -6.50592e-06)
(0.474554 -1.50929e-06 -7.06262e-06)
(0.474548 -2.82806e-06 -7.3018e-06)
(0.474541 -7.52194e-07 -6.07403e-06)
(0.474535 -1.4841e-06 -6.70069e-06)
(0.474529 -1.55817e-06 -6.47637e-06)
(0.474521 -6.16428e-08 -4.30147e-06)
(0.474516 -7.54718e-07 -6.2404e-06)
(0.474512 -1.41691e-06 -4.2357e-06)
(0.4745 2.38166e-06 -3.2783e-06)
(0.474508 -3.17617e-06 -5.02751e-06)
(0.474486 2.38616e-06 -1.58294e-06)
(0.474503 3.37552e-07 -4.01134e-06)
(0.474484 -2.56299e-06 -1.95715e-06)
(0.538839 5.32296e-06 -1.92961e-06)
(0.538829 -4.72758e-06 -4.48582e-06)
(0.538832 2.55882e-06 -2.81644e-07)
(0.538833 1.46314e-07 -4.65795e-06)
(0.538833 -2.35026e-06 -1.92472e-07)
(0.538838 1.76395e-06 -4.52866e-06)
(0.53884 -1.84499e-06 -6.88325e-07)
(0.538847 -9.70684e-07 -3.67331e-06)
(0.53885 -9.59788e-07 -2.0857e-06)
(0.538857 -1.19889e-06 -2.55057e-06)
(0.538865 -3.0052e-06 -3.40553e-06)
(0.538868 -7.7633e-07 -2.25757e-06)
(0.538881 -3.16167e-06 -2.92928e-06)
(0.538882 -3.19355e-06 -4.0006e-06)
(0.538893 -1.49603e-06 -2.14069e-06)
(0.538896 -4.96513e-06 -3.89996e-06)
(0.538904 -2.21051e-06 -4.40119e-06)
(0.538909 -3.71141e-06 -1.91021e-06)
(0.538912 -4.60024e-06 -6.71208e-06)
(0.538916 -2.23038e-06 -2.18593e-06)
(0.538918 -5.16811e-06 -5.92217e-06)
(0.538919 -3.09039e-06 -5.50182e-06)
(0.53892 -3.41518e-06 -3.81619e-06)
(0.538919 -4.5245e-06 -7.96848e-06)
(0.538916 -2.17091e-06 -4.16575e-06)
(0.538916 -4.1848e-06 -7.71131e-06)
(0.538909 -2.72948e-06 -5.64395e-06)
(0.538906 -2.05354e-06 -6.99527e-06)
(0.5389 -3.63152e-06 -6.84989e-06)
(0.538894 -1.09442e-06 -6.02238e-06)
(0.538887 -2.07867e-06 -6.57874e-06)
(0.538881 -2.13254e-06 -6.88654e-06)
(0.538873 -3.08972e-07 -4.52719e-06)
(0.538866 -1.2483e-06 -6.37177e-06)
(0.538863 -1.91786e-06 -5.32219e-06)
(0.538846 2.59345e-06 -3.21435e-06)
(0.53886 -4.17798e-06 -6.17074e-06)
(0.538828 2.81397e-06 -1.87071e-06)
(0.538852 -1.9279e-08 -4.74831e-06)
(0.538825 -3.19411e-06 -2.79369e-06)
(0.605324 6.08336e-06 -1.51419e-06)
(0.60531 -6.07595e-06 -5.57446e-06)
(0.605309 3.05178e-06 3.0128e-08)
(0.605313 -1.96801e-07 -5.55959e-06)
(0.605306 -2.89714e-06 -8.84052e-08)
(0.605316 2.01909e-06 -5.1327e-06)
(0.60531 -2.33775e-06 -8.30041e-07)
(0.605321 -1.16596e-06 -4.27936e-06)
(0.60532 -1.12096e-06 -2.21657e-06)
(0.605328 -1.4239e-06 -3.04605e-06)
(0.605334 -3.50106e-06 -3.81004e-06)
(0.605337 -7.95629e-07 -2.60415e-06)
(0.60535 -3.67413e-06 -3.43605e-06)
(0.60535 -3.64686e-06 -3.98757e-06)
(0.605363 -1.59448e-06 -3.12543e-06)
(0.605366 -5.78529e-06 -3.16572e-06)
(0.605374 -2.4229e-06 -5.51437e-06)
(0.605381 -4.25995e-06 -1.13352e-06)
(0.605384 -5.33723e-06 -6.98614e-06)
(0.605392 -2.46178e-06 -1.95462e-06)
(0.605393 -6.09308e-06 -5.18177e-06)
(0.605397 -3.52421e-06 -5.40085e-06)
(0.605398 -4.02774e-06 -2.91332e-06)
(0.6054 -5.35603e-06 -7.38969e-06)
(0.605397 -2.53986e-06 -3.0885e-06)
(0.6054 -5.11481e-06 -7.55673e-06)
(0.605393 -3.22582e-06 -3.98121e-06)
(0.605393 -2.62656e-06 -6.90456e-06)
(0.605387 -4.4903e-06 -5.86109e-06)
(0.605382 -1.44929e-06 -5.46255e-06)
(0.605376 -2.74628e-06 -6.12788e-06)
(0.60537 -2.80297e-06 -6.32835e-06)
(0.605363 -6.00942e-07 -4.84415e-06)
(0.605355 -1.88478e-06 -5.40198e-06)
(0.605354 -2.52381e-06 -6.2576e-06)
(0.605331 2.75083e-06 -2.60327e-06)
(0.605353 -5.45507e-06 -6.82971e-06)
(0.60531 3.2943e-06 -1.97946e-06)
(0.605343 -6.40888e-07 -4.85158e-06)
(0.605305 -3.94461e-06 -3.6949e-06)
(0.673419 6.80445e-06 -3.24627e-07)
(0.673404 -7.72218e-06 -6.39686e-06)
(0.673398 3.58639e-06 8.24675e-07)
(0.673407 -7.68289e-07 -5.98046e-06)
(0.67339 -3.54449e-06 3.16175e-07)
(0.673406 2.16467e-06 -5.44754e-06)
(0.673391 -2.93321e-06 -2.30742e-07)
(0.673406 -1.5035e-06 -5.00868e-06)
(0.673399 -1.30919e-06 -1.71037e-06)
(0.673409 -1.76368e-06 -3.22508e-06)
(0.673413 -4.04651e-06 -4.37309e-06)
(0.673414 -8.41443e-07 -1.91828e-06)
(0.673427 -4.21142e-06 -4.94311e-06)
(0.673425 -4.13023e-06 -2.7259e-06)
(0.673439 -1.64301e-06 -4.97673e-06)
(0.673441 -6.61199e-06 -2.24308e-06)
(0.673448 -2.58991e-06 -6.46115e-06)
(0.673459 -4.72885e-06 -1.33235e-06)
(0.673458 -6.06313e-06 -6.75834e-06)
(0.673471 -2.5538e-06 -2.58082e-06)
(0.673471 -6.99943e-06 -4.79085e-06)
(0.673478 -3.82979e-06 -5.28433e-06)
(0.67348 -4.57397e-06 -2.72964e-06)
(0.673483 -6.10949e-06 -7.2672e-06)
(0.673482 -2.78658e-06 -1.45679e-06)
(0.673487 -6.03975e-06 -8.67512e-06)
(0.673481 -3.58593e-06 -1.52952e-06)
(0.673483 -3.17312e-06 -7.12129e-06)
(0.673478 -5.3174e-06 -4.9563e-06)
(0.673476 -1.74702e-06 -4.0225e-06)
(0.673471 -3.40788e-06 -6.40765e-06)
(0.673465 -3.49865e-06 -4.16091e-06)
(0.673461 -8.6037e-07 -5.70933e-06)
(0.67345 -2.61162e-06 -3.46572e-06)
(0.673456 -3.16679e-06 -6.58447e-06)
(0.673423 2.92063e-06 -1.84934e-06)
(0.673457 -7.00974e-06 -6.41921e-06)
(0.6734 3.93954e-06 -2.12843e-06)
(0.673445 -1.57975e-06 -3.87623e-06)
(0.673397 -4.74068e-06 -4.56505e-06)
(0.742375 7.53076e-06 1.34253e-06)
(0.742364 -9.61712e-06 -6.43535e-06)
(0.742347 4.26697e-06 1.85113e-06)
(0.742367 -1.58915e-06 -5.69449e-06)
(0.742335 -4.18555e-06 1.58284e-06)
(0.742363 2.15814e-06 -6.01048e-06)
(0.742335 -3.55251e-06 1.94859e-06)
(0.742356 -2.03886e-06 -5.76683e-06)
(0.742343 -1.47268e-06 -8.39357e-07)
(0.742352 -2.27836e-06 -1.64754e-06)
(0.742354 -4.63305e-06 -6.32661e-06)
(0.742353 -9.63673e-07 1.63381e-06)
(0.742366 -4.80368e-06 -7.97835e-06)
(0.742361 -4.67259e-06 8.61935e-08)
(0.742375 -1.70613e-06 -6.22922e-06)
(0.742377 -7.45381e-06 -2.39726e-06)
(0.74238 -2.78823e-06 -5.24923e-06)
(0.742396 -5.11982e-06 -3.12623e-06)
(0.742389 -6.8331e-06 -5.7456e-06)
(0.742407 -2.51617e-06 -2.92914e-06)
(0.742405 -7.92298e-06 -5.7606e-06)
(0.742412 -3.9832e-06 -4.40147e-06)
(0.742417 -5.09429e-06 -2.90674e-06)
(0.74242 -6.74595e-06 -8.89921e-06)
(0.742421 -2.889e-06 1.91955e-06)
(0.742427 -6.95983e-06 -1.21266e-05)
(0.742423 -3.72111e-06 1.34557e-06)
(0.742428 -3.68065e-06 -7.12629e-06)
(0.742424 -6.023e-06 -6.03295e-06)
(0.742423 -1.9304e-06 -3.9069e-07)
(0.742421 -3.98351e-06 -9.18295e-06)
(0.742415 -4.13287e-06 -3.16732e-07)
(0.742417 -9.89727e-07 -6.94557e-06)
(0.742399 -3.34822e-06 -1.99644e-06)
(0.742418 -3.74857e-06 -5.35178e-06)
(0.742372 3.22562e-06 -2.10882e-06)
(0.742422 -8.81852e-06 -4.44402e-06)
(0.74235 4.94171e-06 -2.67963e-06)
(0.742407 -2.8541e-06 -1.86702e-06)
(0.742352 -5.4283e-06 -5.14133e-06)
(0.811159 8.32716e-06 2.3746e-06)
(0.811158 -1.16469e-05 -5.47488e-06)
(0.811126 5.28737e-06 3.27548e-06)
(0.811164 -2.66374e-06 -5.90089e-06)
(0.811112 -4.57026e-06 5.05172e-06)
(0.811156 1.97422e-06 -7.79095e-06)
(0.811114 -3.9825e-06 5.49097e-06)
(0.811142 -2.77104e-06 -4.92516e-06)
(0.811122 -1.47417e-06 -2.11774e-06)
(0.811131 -2.93416e-06 4.69426e-06)
(0.811132 -5.19167e-06 -1.16936e-05)
(0.811127 -1.12292e-06 8.92431e-06)
(0.811141 -5.43921e-06 -1.09351e-05)
(0.811132 -5.22869e-06 1.85797e-06)
(0.811145 -1.83709e-06 -2.95567e-06)
(0.811148 -8.25945e-06 -5.99289e-06)
(0.811144 -3.09854e-06 -3.2028e-07)
(0.811165 -5.41789e-06 -4.98453e-06)
(0.811152 -7.70926e-06 -5.87205e-06)
(0.811172 -2.35508e-06 1.27183e-07)
(0.81117 -8.97448e-06 -8.80029e-06)
(0.811174 -3.94384e-06 -3.14187e-06)
(0.811184 -5.69545e-06 -4.90151e-07)
(0.811183 -7.29507e-06 -1.47214e-05)
(0.811188 -2.82931e-06 8.88338e-06)
(0.811194 -7.98426e-06 -1.73474e-05)
(0.81119 -3.56173e-06 2.44019e-06)
(0.811198 -4.2214e-06 -3.59865e-06)
(0.811195 -6.5547e-06 -1.25385e-05)
(0.811195 -2.00094e-06 7.2699e-06)
(0.811198 -4.44494e-06 -1.48381e-05)
(0.811186 -4.65077e-06 3.03682e-06)
(0.811201 -9.40359e-07 -6.19635e-06)
(0.811172 -4.00993e-06 -4.07545e-06)
(0.811208 -4.20962e-06 -1.19956e-06)
(0.811146 3.80434e-06 -4.59447e-06)
(0.811214 -1.08562e-05 -1.42223e-06)
(0.81113 6.51025e-06 -3.29917e-06)
(0.811197 -4.46033e-06 -1.87013e-07)
(0.811139 -5.79266e-06 -4.65116e-06)
(0.878385 9.18053e-06 2.68651e-06)
(0.878402 -1.37425e-05 -5.62486e-06)
(0.878347 6.93637e-06 7.05728e-06)
(0.878412 -4.11456e-06 -9.14904e-06)
(0.878335 -4.32137e-06 1.09025e-05)
(0.878398 1.58184e-06 -9.43438e-06)
(0.878343 -3.97867e-06 6.1461e-06)
(0.878376 -3.57821e-06 2.15527e-06)
(0.878355 -1.17652e-06 -1.01169e-05)
(0.87836 -3.57504e-06 1.75792e-05)
(0.878364 -5.57436e-06 -1.93051e-05)
(0.878353 -1.1676e-06 1.52468e-05)
(0.878369 -6.00211e-06 -7.39775e-06)
(0.878357 -5.62328e-06 -3.47553e-06)
(0.878366 -2.00377e-06 8.41346e-06)
(0.878373 -8.84487e-06 -1.24081e-05)
(0.87836 -3.52662e-06 4.57371e-06)
(0.878386 -5.47106e-06 -8.43297e-07)
(0.878369 -8.76186e-06 -1.1302e-05)
(0.878385 -1.9008e-06 8.30545e-06)
(0.87839 -1.02683e-05 -1.04579e-05)
(0.878383 -3.65672e-06 -6.32298e-06)
(0.878402 -6.35639e-06 1.03647e-05)
(0.878394 -7.90434e-06 -2.62292e-05)
(0.878401 -2.49816e-06 1.80412e-05)
(0.878409 -9.29156e-06 -1.81535e-05)
(0.878403 -3.04271e-06 -4.58498e-06)
(0.878412 -4.94212e-06 9.52993e-06)
(0.878412 -6.89402e-06 -2.62147e-05)
(0.878408 -2.01447e-06 1.72766e-05)
(0.878422 -4.87536e-06 -1.80548e-05)
(0.878398 -4.98977e-06 -1.44192e-07)
(0.87843 -8.298e-07 1.43634e-06)
(0.878385 -4.54997e-06 -1.22819e-05)
(0.87844 -4.54831e-06 5.54945e-06)
(0.878365 4.65691e-06 -7.6655e-06)
(0.878447 -1.30812e-05 -4.76945e-07)
(0.878356 8.76271e-06 -1.69e-06)
(0.878428 -6.48812e-06 -1.28761e-06)
(0.878374 -5.57584e-06 -2.63287e-06)
(0.942226 1.01269e-05 6.17293e-06)
(0.94227 -1.61317e-05 -1.07698e-05)
(0.942185 9.53181e-06 1.42657e-05)
(0.942282 -6.15532e-06 -1.39417e-05)
(0.94218 -3.26146e-06 1.32811e-05)
(0.94226 1.04438e-06 -3.97114e-06)
(0.9422 -3.54165e-06 -3.6786e-06)
(0.94223 -4.27255e-06 1.87016e-05)
(0.942216 -4.76332e-07 -2.39801e-05)
(0.942213 -4.10007e-06 2.95423e-05)
(0.942221 -5.56927e-06 -1.91467e-05)
(0.942207 -9.89338e-07 9.2334e-06)
(0.942221 -6.31462e-06 9.27252e-06)
(0.942211 -5.59918e-06 -1.71096e-05)
(0.942214 -2.17103e-06 2.14434e-05)
(0.942225 -8.77836e-06 -1.16773e-05)
(0.942208 -4.16182e-06 -9.37898e-07)
(0.942231 -4.81416e-06 1.44367e-05)
(0.94222 -1.00362e-05 -2.00823e-05)
(0.942223 -9.31617e-07 1.3284e-05)
(0.94224 -1.15411e-05 5.67213e-08)
(0.94222 -3.24043e-06 -2.11226e-05)
(0.942245 -6.67137e-06 3.03336e-05)
(0.942235 -8.73403e-06 -3.54207e-05)
(0.94224 -1.65615e-06 1.76879e-05)
(0.942249 -1.09639e-05 -1.93618e-06)
(0.942242 -2.03085e-06 -2.57418e-05)
(0.94225 -5.89928e-06 3.17848e-05)
(0.942255 -7.09336e-06 -3.79186e-05)
(0.942241 -1.82094e-06 1.82537e-05)
(0.94227 -5.56546e-06 -7.02625e-06)
(0.94223 -4.96362e-06 -1.56862e-05)
(0.94228 -7.90308e-07 1.69396e-05)
(0.942221 -5.1304e-06 -2.16892e-05)
(0.942288 -4.63685e-06 8.46369e-06)
(0.942208 5.5808e-06 -4.49863e-06)
(0.942293 -1.55705e-05 -5.88687e-06)
(0.942206 1.18424e-05 3.81926e-06)
(0.942273 -9.21297e-06 -4.06987e-06)
(0.942233 -4.65083e-06 -2.36664e-06)
(1.00032 1.12796e-05 1.48131e-05)
(1.0004 -1.88819e-05 -1.73928e-05)
(1.00029 1.27995e-05 1.74686e-05)
(1.00041 -8.55689e-06 -1.00326e-05)
(1.00029 -1.73339e-06 2.83086e-06)
(1.00037 4.05096e-07 1.33514e-05)
(1.00032 -2.68e-06 -2.16239e-05)
(1.00034 -5.05456e-06 3.39745e-05)
(1.00034 7.7149e-07 -2.83486e-05)
(1.00033 -4.67757e-06 2.39216e-05)
(1.00034 -5.06678e-06 -8.89002e-07)
(1.00033 -5.39278e-07 -1.08986e-05)
(1.00033 -6.55766e-06 2.89039e-05)
(1.00033 -4.65571e-06 -2.30327e-05)
(1.00033 -2.79578e-06 1.80518e-05)
(1.00034 -7.39669e-06 6.05373e-06)
(1.00033 -5.20385e-06 -1.6644e-05)
(1.00034 -3.26761e-06 2.7899e-05)
(1.00034 -1.0987e-05 -1.51048e-05)
(1.00033 1.4777e-07 -3.091e-07)
(1.00035 -1.19384e-05 2.64067e-05)
(1.00033 -2.99539e-06 -3.86457e-05)
(1.00035 -6.13053e-06 3.97635e-05)
(1.00034 -9.67749e-06 -2.1428e-05)
(1.00034 -9.39867e-08 -5.84388e-06)
(1.00035 -1.27156e-05 3.16506e-05)
(1.00035 -5.49106e-07 -4.75184e-05)
(1.00035 -6.60488e-06 4.21032e-05)
(1.00037 -7.44817e-06 -2.63949e-05)
(1.00034 -9.24309e-07 -2.08488e-06)
(1.00038 -6.60795e-06 1.98987e-05)
(1.00033 -4.61279e-06 -3.36806e-05)
(1.00039 -4.36675e-07 2.63853e-05)
(1.00033 -6.05027e-06 -1.78051e-05)
(1.00039 -4.28528e-06 -4.79014e-07)
(1.00032 6.58726e-06 7.60513e-06)
(1.0004 -1.84273e-05 -1.33312e-05)
(1.00032 1.57179e-05 6.9205e-06)
(1.00037 -1.25126e-05 -6.89875e-07)
(1.00036 -3.31317e-06 -8.69163e-06)
(1.04971 1.22266e-05 1.82429e-05)
(1.0498 -2.12956e-05 -1.26742e-05)
(1.04968 1.62008e-05 7.87263e-06)
(1.0498 -1.11812e-05 5.80429e-06)
(1.0497 4.3117e-07 -1.36177e-05)
(1.04976 -7.97143e-07 2.77232e-05)
(1.04973 -1.07974e-06 -2.66471e-05)
(1.04974 -6.21151e-06 2.88939e-05)
(1.04974 2.35101e-06 -1.19155e-05)
(1.04973 -5.12326e-06 2.75298e-06)
(1.04974 -4.75472e-06 1.98733e-05)
(1.04973 7.3193e-07 -2.09701e-05)
(1.04974 -7.59455e-06 2.76045e-05)
(1.04973 -2.37812e-06 -8.26699e-06)
(1.04974 -4.2101e-06 4.54635e-07)
(1.04973 -5.12879e-06 2.20218e-05)
(1.04973 -5.94341e-06 -1.75027e-05)
(1.04973 -2.01038e-06 1.7698e-05)
(1.04974 -1.06018e-05 8.59186e-06)
(1.04972 5.58041e-07 -2.01945e-05)
(1.04975 -1.11022e-05 3.99816e-05)
(1.04973 -2.87537e-06 -2.95626e-05)
(1.04974 -4.92509e-06 1.86935e-05)
(1.04974 -1.03131e-05 1.3711e-05)
(1.04974 1.83089e-06 -3.20412e-05)
(1.04974 -1.38611e-05 4.87253e-05)
(1.04975 9.25038e-07 -3.8819e-05)
(1.04974 -6.38565e-06 2.211e-05)
(1.04976 -7.97875e-06 6.45077e-06)
(1.04973 6.26736e-07 -2.59333e-05)
(1.04978 -7.29574e-06 3.65163e-05)
(1.04972 -4.40556e-06 -3.07155e-05)
(1.04978 8.20548e-07 1.68785e-05)
(1.04973 -7.29699e-06 -2.38225e-07)
(1.04978 -3.4456e-06 -1.17143e-05)
(1.04973 7.84709e-06 1.53939e-05)
(1.04978 -2.1388e-05 -1.03469e-05)
(1.04973 2.01273e-05 1.39708e-06)
(1.04975 -1.60682e-05 9.04573e-06)
(1.04977 -1.49376e-06 -1.46216e-05)
(1.08683 1.30215e-05 1.106e-05)
(1.0869 -2.31265e-05 -2.19544e-07)
(1.08681 1.9745e-05 -2.09634e-06)
(1.08689 -1.39589e-05 1.52732e-05)
(1.08683 3.34181e-06 -1.59099e-05)
(1.08687 -2.33576e-06 2.38453e-05)
(1.08685 7.60354e-07 -1.43603e-05)
(1.08685 -6.86692e-06 1.4079e-05)
(1.08686 3.27683e-06 3.65132e-06)
(1.08685 -4.49107e-06 -6.50483e-06)
(1.08685 -5.2615e-06 2.07639e-05)
(1.08684 2.89241e-06 -1.23394e-05)
(1.08686 -9.02981e-06 1.55313e-05)
(1.08683 1.71151e-07 3.46191e-06)
(1.08686 -5.23713e-06 -3.21767e-06)
(1.08683 -3.45069e-06 1.65131e-05)
(1.08685 -5.49237e-06 -3.19732e-06)
(1.08684 -1.68376e-06 3.83993e-06)
(1.08685 -9.06933e-06 1.79417e-05)
(1.08684 4.47591e-07 -1.60061e-05)
(1.08685 -9.64289e-06 2.48457e-05)
(1.08684 -2.66455e-06 -4.36298e-06)
(1.08685 -3.5454e-06 -2.3301e-06)
(1.08684 -1.03629e-05 2.82132e-05)
(1.08685 3.42352e-06 -2.83038e-05)
(1.08684 -1.39026e-05 3.39175e-05)
(1.08686 1.939e-06 -1.18368e-05)
(1.08684 -5.41239e-06 5.97408e-07)
(1.08687 -8.13562e-06 2.39222e-05)
(1.08684 1.94272e-06 -2.64742e-05)
(1.08687 -6.87732e-06 2.98998e-05)
(1.08684 -4.583e-06 -1.37844e-05)
(1.08687 2.65117e-06 5.52808e-06)
(1.08685 -8.06804e-06 1.01347e-05)
(1.08687 -2.83327e-06 -1.10093e-05)
(1.08685 9.78312e-06 1.26171e-05)
(1.08686 -2.4141e-05 -1.79795e-06)
(1.08686 2.44815e-05 -1.93371e-06)
(1.08685 -1.91446e-05 1.18533e-05)
(1.08688 5.59159e-07 -9.72733e-06)
(1.10789 1.3431e-05 5.67505e-06)
(1.10792 -2.35614e-05 4.06138e-06)
(1.10788 2.18623e-05 -2.66797e-06)
(1.10792 -1.56398e-05 1.35022e-05)
(1.10789 5.7908e-06 -9.8074e-06)
(1.10791 -3.37831e-06 1.63398e-05)
(1.1079 2.00067e-06 -6.43531e-06)
(1.1079 -6.36933e-06 8.23021e-06)
(1.1079 3.13397e-06 6.50738e-06)
(1.1079 -2.94585e-06 -4.59801e-06)
(1.1079 -5.95761e-06 1.57531e-05)