/*--------------------------------*- C++ -*----------------------------------*\
  =========                 |
  \\      /  F ield         | OpenFOAM: The Open Source CFD Toolbox
   \\    /   O peration     | Website:  https://openfoam.org
    \\  /    A nd           | Version:  10
     \\/     M anipulation  |
\*---------------------------------------------------------------------------*/
FoamFile
{
    format      ascii;
    class       volSymmTensorField;
    location    "40";
    object      UPrime2Mean;
}
// * * * * * * * * * * * * * * * * * * * * * * * * * * * * * * * * * * * * * //

dimensions      [0 2 -2 0 0 0 0];

internalField   nonuniform List<symmTensor> 
25600
(
(0.00490943 -5.0321e-05 -0.000820083 2.19702e-06 -1.61553e-06 0.00125913)
(0.00464715 -4.6531e-05 -0.000814563 2.34247e-06 -7.70465e-07 0.00129826)
(0.00472093 -4.49403e-05 -0.000714582 2.08219e-06 1.4737e-06 0.0012624)
(0.00489377 -4.82e-05 -0.000787753 1.96208e-06 9.00418e-06 0.0011633)
(0.00510308 -4.49987e-05 -0.000871471 2.02114e-06 3.7712e-06 0.00107832)
(0.00505022 -4.72516e-05 -0.000851027 2.17103e-06 3.24632e-06 0.000986763)
(0.00506202 -4.73011e-05 -0.000854021 2.0819e-06 4.12806e-06 0.00103061)
(0.00495508 -4.1813e-05 -0.000828007 1.81632e-06 1.81608e-06 0.00103151)
(0.00450819 -4.16733e-05 -0.000736722 1.94067e-06 2.92e-06 0.00111666)
(0.00474003 -4.03797e-05 -0.000800583 2.31774e-06 7.16824e-06 0.00103134)
(0.00514216 -5.07536e-05 -0.00087431 2.5557e-06 9.63347e-06 0.00110151)
(0.00566471 -6.0878e-05 -0.000630869 3.17634e-06 7.93305e-06 0.00114701)
(0.00477801 -5.07362e-05 -0.000669727 2.80202e-06 7.05432e-06 0.0014063)
(0.00451757 -5.0842e-05 -0.000816121 2.60744e-06 8.9084e-06 0.00125842)
(0.00466413 -4.5298e-05 -0.000878569 2.50705e-06 5.81125e-06 0.00121678)
(0.00465949 -4.29494e-05 -0.000951313 2.24306e-06 8.53636e-06 0.00124009)
(0.0044226 -4.26689e-05 -0.000907118 1.99686e-06 5.57485e-06 0.00114211)
(0.00450111 -4.23079e-05 -0.000734863 2.16709e-06 9.10486e-06 0.00114214)
(0.00423773 -4.82011e-05 -0.000823574 2.33422e-06 1.02244e-05 0.00109016)
(0.00445271 -5.45667e-05 -0.000917882 2.55566e-06 1.35037e-05 0.00119505)
(0.00463937 -4.62171e-05 -0.000856281 2.4105e-06 8.73369e-06 0.00116794)
(0.00514626 -5.29122e-05 -0.000586918 2.27406e-06 7.07077e-06 0.00115017)
(0.00540968 -5.62438e-05 -0.000567083 2.50062e-06 3.94687e-06 0.00104761)
(0.00506841 -4.61048e-05 -0.000587996 2.08731e-06 2.76714e-07 0.00118459)
(0.0049932 -4.36395e-05 -0.000556337 2.12396e-06 -3.85073e-07 0.00118872)
(0.00491095 -5.04255e-05 -0.000656378 2.16096e-06 -1.22816e-06 0.0011156)
(0.00464939 -4.6484e-05 -0.000638596 1.95245e-06 2.7775e-06 0.00103463)
(0.00460735 -4.57516e-05 -0.000628431 1.84601e-06 1.542e-06 0.00107845)
(0.0046328 -4.90512e-05 -0.000610412 1.98968e-06 -2.02835e-06 0.00104189)
(0.00466967 -5.67561e-05 -0.000566709 2.35074e-06 -3.58074e-07 0.00100288)
(0.00486308 -5.19949e-05 -0.000467562 2.85946e-06 2.56582e-06 0.00103715)
(0.00511219 -4.98685e-05 -0.00058097 2.34298e-06 7.68989e-06 0.00116307)
(0.00498841 -4.94918e-05 -0.00061136 2.0574e-06 7.23818e-06 0.00112629)
(0.00477661 -5.06237e-05 -0.000732933 1.99525e-06 6.8082e-06 0.00116888)
(0.00466614 -5.37208e-05 -0.000532092 2.07096e-06 -2.1148e-06 0.00110868)
(0.00479117 -5.17858e-05 -0.000594935 2.21543e-06 1.09758e-06 0.00113359)
(0.00517074 -5.00852e-05 -0.000677439 1.99232e-06 1.90207e-06 0.00106689)
(0.00511755 -4.52495e-05 -0.000655063 1.94814e-06 1.75181e-06 0.00101724)
(0.00493703 -4.58395e-05 -0.000737631 1.89015e-06 1.4134e-06 0.00118536)
(0.00506056 -4.31005e-05 -0.000664454 1.89548e-06 7.30538e-07 0.0011146)
(0.0256897 0.000309091 -0.0052489 0.000106631 -5.42899e-05 0.00457647)
(0.0243361 0.000377165 -0.00548174 0.000103499 -0.000101354 0.00449903)
(0.0251369 0.000367388 -0.00512396 9.64299e-05 -9.44312e-05 0.00451279)
(0.0256237 0.00027764 -0.00514568 0.000100289 -0.000108309 0.00430168)
(0.026153 0.000489583 -0.00555811 0.000117822 -0.000222295 0.00417536)
(0.0254386 0.000436973 -0.00513934 0.000132993 -0.000236209 0.00388024)
(0.0265122 0.000299043 -0.00551884 0.000121818 -0.00011198 0.00375303)
(0.0269247 0.000328286 -0.00555859 9.34418e-05 -0.00010816 0.00365409)
(0.0249769 0.000377378 -0.00521303 7.76463e-05 -0.000135743 0.00402927)
(0.0265739 0.000382687 -0.00550011 9.08581e-05 -0.000123267 0.00368919)
(0.0277105 0.000521306 -0.00632162 0.000101316 -0.000179482 0.00447169)
(0.027718 0.000598872 -0.00490615 0.000133247 -0.000197401 0.00453659)
(0.0241652 0.00051865 -0.00531076 0.000136464 -0.000228009 0.00530931)
(0.0253047 0.000326882 -0.00557036 0.000136179 -0.000236927 0.00505853)
(0.0269128 0.000230062 -0.00573525 0.000117275 -9.76914e-05 0.00489678)
(0.0261521 0.000284635 -0.0062908 9.55143e-05 -3.27237e-05 0.00467524)
(0.023494 0.000458199 -0.00606491 7.33416e-05 -9.10471e-05 0.00423344)
(0.0231318 0.000541765 -0.00497843 7.89546e-05 -9.84864e-05 0.00422824)
(0.0225029 0.000404096 -0.00558831 8.91179e-05 -0.000110726 0.00427297)
(0.0232619 0.000352351 -0.00565518 8.88028e-05 -0.00016413 0.00524013)
(0.0246798 0.000351155 -0.00552388 0.000102128 -0.000197841 0.00514374)
(0.0256364 0.000553652 -0.00484967 0.000120511 -0.000200006 0.00460591)
(0.0268032 0.000607576 -0.00500878 0.000153853 -0.000237579 0.00423371)
(0.0272832 0.000368801 -0.00482875 0.000124547 -0.000100692 0.00438165)
(0.0275683 0.000260018 -0.0044619 9.95255e-05 -9.23725e-05 0.00446192)
(0.0275265 0.000381472 -0.00546873 9.38076e-05 -0.000109828 0.00412432)
(0.0243195 0.000409341 -0.00513184 8.45054e-05 -0.000157215 0.00406542)
(0.02425 0.000388281 -0.00475728 8.47467e-05 -0.000200282 0.00407848)
(0.0243795 0.000492344 -0.00492175 9.08024e-05 -0.000210034 0.00382295)
(0.0248592 0.000470604 -0.00455989 9.47691e-05 -0.000191972 0.00387356)
(0.0254357 0.000446645 -0.00391738 0.000109482 -0.000167167 0.00394529)
(0.0277538 0.00042013 -0.00463144 0.000104922 -0.000102756 0.00400823)
(0.0273127 0.00055458 -0.00494023 0.000107188 -0.0001214 0.00389106)
(0.0249407 0.000599181 -0.00530825 0.000108487 -0.000144291 0.00405649)
(0.0237063 0.000564964 -0.00460277 0.000118688 -0.000160566 0.00414992)
(0.0257504 0.000287954 -0.00415614 0.000118516 -0.0001477 0.00417552)
(0.0283489 0.000361017 -0.00477489 0.000101097 -0.000124746 0.00388917)
(0.0274606 0.000398913 -0.00448006 0.000100105 -7.76025e-05 0.00337805)
(0.0257663 0.000387881 -0.00465865 8.71674e-05 -9.5592e-05 0.00410391)
(0.0276219 0.000358831 -0.0042687 0.000106469 -5.93769e-05 0.00426324)
(0.034404 0.000672476 -0.00674607 0.000634027 -0.000401835 0.00627626)
(0.0356032 0.000709474 -0.00814338 0.000632892 -0.000476708 0.00620684)
(0.0376702 0.000933427 -0.00743633 0.000584696 -0.000553546 0.00661064)
(0.0370683 0.000625472 -0.00708272 0.000604433 -0.000684031 0.00639577)
(0.0342033 0.00122652 -0.00741919 0.000633246 -0.000814523 0.00620822)
(0.033261 0.00107445 -0.00668658 0.000652192 -0.000768612 0.00578456)
(0.0374291 0.000578056 -0.00776355 0.000681577 -0.000545758 0.0054173)
(0.0390284 0.000322201 -0.00699613 0.000579974 -0.000509275 0.0053922)
(0.0377738 0.000763678 -0.00719731 0.000479421 -0.000554933 0.00616211)
(0.0391572 0.000929753 -0.0086281 0.000552972 -0.000674363 0.00604518)
(0.0378233 0.00142949 -0.00979159 0.000614113 -0.00074395 0.00679681)
(0.0382187 0.00152777 -0.0080669 0.000732223 -0.000665207 0.00633616)
(0.0360922 0.00117696 -0.00877864 0.000682655 -0.000692292 0.00735087)
(0.0366411 0.000979721 -0.00888463 0.000674318 -0.000701171 0.00710882)
(0.0378492 0.000664698 -0.00896532 0.000669445 -0.000434197 0.00702979)
(0.037508 0.00070877 -0.0096925 0.000552221 -0.000362338 0.00655651)
(0.0350741 0.00110706 -0.00914151 0.000455725 -0.000557899 0.00598703)
(0.035086 0.00138486 -0.0076921 0.000502136 -0.000577015 0.00635608)
(0.0337043 0.0010773 -0.00849166 0.000542112 -0.000601278 0.00690471)
(0.033144 0.000775582 -0.00832531 0.00055658 -0.000720083 0.00826604)
(0.0370756 0.000670283 -0.00818198 0.000591327 -0.000740795 0.00791183)
(0.0347341 0.00129942 -0.00759372 0.000633763 -0.000771802 0.00723236)
(0.0363565 0.00140633 -0.00822624 0.000740373 -0.00075219 0.00685704)
(0.0392267 0.000767405 -0.008415 0.000631212 -0.000488098 0.00690914)
(0.0411367 0.000602122 -0.007794 0.000578044 -0.000488444 0.00739729)
(0.0420873 0.000947277 -0.00886245 0.000603675 -0.00057661 0.00671893)
(0.0357547 0.000815096 -0.00785017 0.00054446 -0.000628043 0.00662807)
(0.0339983 0.000873137 -0.00711467 0.000503227 -0.000719961 0.00639034)
(0.0355074 0.00123892 -0.00764876 0.000515762 -0.000758442 0.00606696)
(0.0374859 0.00131763 -0.00788033 0.000579131 -0.000827079 0.00667322)
(0.038538 0.00115078 -0.00610989 0.000655751 -0.000714534 0.00644902)
(0.0420824 0.0010781 -0.0075445 0.000601403 -0.000627227 0.00592355)
(0.04097 0.00148389 -0.0084889 0.000658601 -0.000672833 0.00570417)
(0.0387682 0.00134184 -0.00862789 0.000623341 -0.000529159 0.00580542)
(0.0330112 0.00133397 -0.00792451 0.000678504 -0.000516982 0.00619518)
(0.0372852 0.000729355 -0.006884 0.00061169 -0.00056811 0.00605125)
(0.0401159 0.000991751 -0.00658781 0.000579379 -0.000661444 0.0056593)
(0.0363035 0.000912911 -0.00641116 0.000603033 -0.000497078 0.00519264)
(0.0347512 0.000885738 -0.00609524 0.000547941 -0.00038014 0.00598672)
(0.0372767 0.000472512 -0.00604221 0.000610833 -0.000369469 0.00638193)
(0.0358848 -1.74437e-06 -0.00636947 0.0012349 -0.000516601 0.00679815)
(0.041156 4.19938e-05 -0.0082188 0.00115176 -0.000660336 0.00685953)
(0.0443049 0.000522589 -0.0074997 0.00114666 -0.000809029 0.00678967)
(0.0418299 9.86675e-05 -0.00682078 0.00120489 -0.000920571 0.00684639)
(0.0325661 0.00101022 -0.0064857 0.0011924 -0.00104571 0.00661403)
(0.0316298 0.000847791 -0.00580436 0.00118426 -0.00102656 0.00619349)
(0.0390105 -6.81275e-05 -0.00689775 0.00129346 -0.000674026 0.00569576)
(0.041286 -0.000857144 -0.00552153 0.0011638 -0.000586096 0.00562428)
(0.0397115 0.000300987 -0.00668857 0.00100271 -0.000611754 0.00693311)
(0.0396478 0.000718293 -0.0092602 0.00112023 -0.000861938 0.00739914)
(0.0384652 0.00114734 -0.00950811 0.00120983 -0.000888815 0.00709848)
(0.041342 0.00119722 -0.00917092 0.00133916 -0.000726459 0.00716354)
(0.040419 0.00105977 -0.0096151 0.00123855 -0.000922703 0.00776678)
(0.0369906 0.000880361 -0.0084947 0.00128197 -0.00102936 0.00762841)
(0.0377291 0.000505821 -0.00798134 0.00132912 -0.000578132 0.00704873)
(0.0399593 0.000632819 -0.00933433 0.00102194 -0.000431119 0.00665258)
(0.0386435 0.000919924 -0.00881295 0.000879653 -0.000755541 0.00646706)
(0.0369489 0.00124509 -0.00767 0.00108193 -0.000745917 0.00740213)
(0.0351217 0.000709364 -0.00741481 0.00115238 -0.000692115 0.00748709)
(0.0356005 0.000418618 -0.00871135 0.0010901 -0.000854989 0.00901474)
(0.0413238 0.000491326 -0.00925794 0.00111288 -0.00102424 0.00818966)
(0.0335425 0.00130982 -0.0079983 0.00126611 -0.00118102 0.00800402)
(0.0343621 0.000790789 -0.00808826 0.00141198 -0.00101109 0.00733811)
(0.037743 0.000483041 -0.00797882 0.00118839 -0.000651829 0.00697048)
(0.0390969 0.000352117 -0.0075406 0.0011097 -0.00056704 0.00786369)
(0.041376 0.000563385 -0.00923394 0.00117354 -0.000665721 0.00739668)
(0.0367723 0.000122413 -0.00747277 0.00102063 -0.000811453 0.00759686)
(0.036047 0.000580564 -0.00713892 0.000884377 -0.000972778 0.00736982)
(0.0388728 0.00104373 -0.00835821 0.00095515 -0.000928795 0.00727798)
(0.0407011 0.0011258 -0.00915085 0.00113614 -0.00119434 0.00789949)
(0.0429411 0.00102002 -0.0060238 0.00120962 -0.000991562 0.0074659)
(0.0444407 0.00110292 -0.0081307 0.00114134 -0.001011 0.00678813)
(0.0429952 0.00147206 -0.00978433 0.00137923 -0.00117178 0.00703679)
(0.0419635 0.00132581 -0.00931558 0.00127375 -0.000804103 0.0066996)
(0.0351942 0.000989898 -0.00853091 0.00128879 -0.000767862 0.00710102)
(0.036812 0.000650299 -0.00743046 0.00113504 -0.000855982 0.00646558)
(0.0391785 0.000758925 -0.00608158 0.00110728 -0.00100529 0.00613669)
(0.0368508 0.000452946 -0.0065192 0.0011674 -0.000798418 0.00625002)
(0.0356703 0.000619579 -0.00599199 0.00108804 -0.000439414 0.00679623)
(0.0351493 -5.09884e-05 -0.00601189 0.00122465 -0.000494472 0.00690798)
(0.0343923 -0.000625147 -0.00610169 0.00195328 -0.000850711 0.00749045)
(0.0384232 -0.000350099 -0.00697175 0.00171121 -0.00102702 0.00767618)
(0.0410658 -1.84806e-05 -0.0073766 0.00179953 -0.00113729 0.00725231)
(0.0410882 -0.000615679 -0.00684337 0.00184462 -0.00114274 0.00751027)
(0.0312763 0.000680179 -0.00581253 0.00176989 -0.00141253 0.00713004)
(0.0297762 0.000196197 -0.00493876 0.00183742 -0.0014077 0.0067772)
(0.0359347 -0.000937314 -0.00589753 0.00195277 -0.000914528 0.00624816)
(0.0382006 -0.00188794 -0.00505445 0.00178583 -0.000777632 0.00662156)
(0.0385531 -0.000234298 -0.00630222 0.00163153 -0.000816986 0.00807489)
(0.0345535 0.000350594 -0.00787869 0.00178532 -0.00113765 0.00852532)
(0.0391025 0.000779232 -0.00813777 0.00186498 -0.00119846 0.00730288)
(0.039013 0.00060315 -0.00904379 0.00191571 -0.000952706 0.00799476)
(0.0387965 0.000871947 -0.00945602 0.00191403 -0.00122682 0.00840085)
(0.0350917 0.000441454 -0.00818921 0.00205362 -0.00137661 0.00804235)
(0.0391055 -0.000331488 -0.00757959 0.00209903 -0.000815326 0.00747657)
(0.0380301 0.000413919 -0.00833404 0.00157238 -0.000568471 0.00688744)
(0.0389364 0.000384383 -0.00806456 0.00142268 -0.000912437 0.00674004)
(0.0331113 0.00062009 -0.00740056 0.0017549 -0.000847815 0.00789147)
(0.0338408 -0.000175139 -0.00654461 0.00178948 -0.000893409 0.00761453)
(0.0354696 0.00022507 -0.0085785 0.00165031 -0.00121007 0.00913122)
(0.0378501 0.00031282 -0.0089087 0.00168461 -0.00143924 0.00842412)
(0.0304378 0.00111225 -0.00777469 0.00203138 -0.00154593 0.00893997)
(0.0298961 -3.55821e-05 -0.00685359 0.00214342 -0.00132998 0.0078547)
(0.0303126 0.000405605 -0.00670034 0.00185555 -0.00103356 0.00696956)
(0.0338674 -0.000161998 -0.00706254 0.00171749 -0.000769932 0.00776544)
(0.0372208 -3.88837e-05 -0.00822458 0.00169002 -0.000947933 0.00762416)
(0.0371136 -0.000916509 -0.00684443 0.00151134 -0.00115081 0.00767752)
(0.037161 0.000123344 -0.0072888 0.00127696 -0.00123667 0.00753319)
(0.0366015 0.000491833 -0.00809071 0.00145815 -0.00116434 0.0075455)
(0.0421452 0.00053638 -0.00761541 0.00167647 -0.00157139 0.00774274)
(0.04274 0.000756717 -0.00692728 0.00168842 -0.0013716 0.00751789)
(0.0407012 0.000810502 -0.00775349 0.00170683 -0.00149564 0.00743035)
(0.0444633 0.00101036 -0.0105425 0.00215743 -0.00172682 0.00800808)
(0.0384898 0.00110871 -0.00915157 0.00199152 -0.00122938 0.00755738)
(0.0347837 0.000592464 -0.00827586 0.00199854 -0.00115865 0.00755139)
(0.0334805 0.00066018 -0.00744245 0.00173683 -0.00105768 0.00715775)
(0.0367841 0.000511042 -0.00631388 0.00163303 -0.00130529 0.00716889)
(0.036919 0.000188686 -0.00689546 0.00172181 -0.00117311 0.00700276)
(0.0355416 0.000520683 -0.00647077 0.00163487 -0.000533294 0.0072885)
(0.0317579 -0.000381443 -0.00576971 0.00187752 -0.000727438 0.0073518)
(0.0299735 -0.000924192 -0.00544 0.00249692 -0.00101223 0.00738123)
(0.0328154 -0.000539124 -0.00588458 0.00220539 -0.00114951 0.00730955)
(0.03448 -0.000845212 -0.00714097 0.00239568 -0.0012147 0.00702313)
(0.0378946 -0.00141752 -0.00654312 0.00239987 -0.00107924 0.00698426)
(0.0298074 7.67207e-05 -0.00473406 0.00222676 -0.00152662 0.00700354)
(0.0309052 -0.000640437 -0.00466477 0.00241175 -0.00151934 0.00696528)
(0.0326589 -0.00182377 -0.00610442 0.00246799 -0.000853941 0.00642909)
(0.0359586 -0.00233328 -0.00553949 0.00234033 -0.000800926 0.00721955)
(0.0381182 -0.00115512 -0.00555336 0.00226948 -0.000888815 0.00823275)
(0.0333649 -0.000758707 -0.00705088 0.00248703 -0.0010523 0.00858162)
(0.0385954 0.000189917 -0.00721437 0.00246573 -0.00117991 0.00755082)
(0.0397157 -3.33317e-05 -0.00832559 0.00238571 -0.00100596 0.00833487)
(0.0342495 0.0010198 -0.00880435 0.00253078 -0.00129697 0.00857257)
(0.034118 0.00018425 -0.00800398 0.00273588 -0.00142864 0.00831289)
(0.0373813 -0.000984594 -0.00719345 0.00284278 -0.000963693 0.0076768)
(0.0306966 7.12085e-05 -0.00676459 0.00216036 -0.000550218 0.00687653)
(0.0335948 -0.00016098 -0.00704081 0.00197762 -0.000799554 0.00686348)
(0.0313995 -5.78369e-05 -0.00683191 0.00231657 -0.000852463 0.00735559)
(0.0310245 -0.000641384 -0.00620396 0.0024466 -0.00103205 0.00723777)
(0.0341565 -0.000316667 -0.00772719 0.00222774 -0.00135163 0.00824096)
(0.0352418 -0.000248927 -0.00685183 0.00228518 -0.00150028 0.00808052)
(0.0299798 0.000344251 -0.00620396 0.00263709 -0.00159235 0.00905078)
(0.028376 -0.000653931 -0.00562601 0.00262492 -0.00158015 0.00801822)
(0.0274352 7.36141e-05 -0.00647114 0.0023752 -0.001259 0.00732137)
(0.0308884 -0.000599483 -0.00718379 0.0022499 -0.000807371 0.0076428)
(0.0355035 -0.00049194 -0.00683687 0.00211387 -0.00108388 0.00763427)
(0.0370794 -0.00157991 -0.00611257 0.00191234 -0.00125198 0.00749253)
(0.0356207 -0.000584303 -0.00648643 0.00165828 -0.00122514 0.0068727)
(0.0339577 -0.000484594 -0.00716654 0.00197413 -0.0012153 0.00680552)
(0.0420335 -0.000387544 -0.00597726 0.00205844 -0.00166273 0.00700014)
(0.041937 5.10003e-05 -0.00725109 0.00199665 -0.00129795 0.00681037)
(0.039482 2.00085e-05 -0.00705234 0.00214284 -0.00162995 0.00745363)
(0.0431826 0.000152144 -0.00915656 0.00265351 -0.00194554 0.00787177)
(0.038741 0.000679075 -0.00822669 0.00248275 -0.00152015 0.00752865)
(0.0381039 0.000168355 -0.00784413 0.00247466 -0.00129801 0.00708991)
(0.0343615 0.000369202 -0.00739122 0.00215107 -0.00105766 0.00714441)
(0.0341903 0.000483001 -0.00656418 0.00203771 -0.00137112 0.00735064)
(0.0329897 9.78731e-05 -0.00698314 0.00215933 -0.00127876 0.00704236)
(0.0328954 0.000492197 -0.00678352 0.00209995 -0.00056485 0.0072906)
(0.0295574 -0.000641422 -0.00549631 0.00240216 -0.000818578 0.00692809)
(0.0290807 -0.000898947 -0.00507416 0.00294211 -0.00099479 0.00659356)
(0.0304344 -0.000761808 -0.00563229 0.00273585 -0.00109844 0.00680801)
(0.0313706 -0.00165434 -0.00668168 0.00294037 -0.00113006 0.00685118)
(0.0349155 -0.00172798 -0.00637734 0.00288353 -0.000912787 0.00687489)
(0.0280631 -0.000366397 -0.00479336 0.00265728 -0.00141275 0.00720852)
(0.0306164 -0.00109779 -0.00485243 0.00294698 -0.00147343 0.00739804)
(0.0324314 -0.00198176 -0.00661554 0.0029115 -0.000641607 0.0066047)
(0.0368773 -0.0024041 -0.00591315 0.00284837 -0.000794841 0.00704091)
(0.0381639 -0.00203915 -0.00577209 0.00286417 -0.000883861 0.0074184)
(0.035484 -0.0016666 -0.00674723 0.00313586 -0.000977419 0.0083151)
(0.0375051 -0.00075903 -0.00625541 0.00298618 -0.00100346 0.00728348)
(0.0399887 -0.000546879 -0.00789045 0.00295471 -0.000953537 0.00757412)
(0.0324995 0.00091241 -0.00838387 0.00312663 -0.00130468 0.00758406)
(0.034878 -0.000111035 -0.00816087 0.00337587 -0.00123768 0.0083422)
(0.0367087 -0.00147006 -0.00674709 0.00348631 -0.00107796 0.00784436)
(0.0275298 -0.000421693 -0.00593101 0.00270943 -0.000592906 0.00696637)
(0.0307291 -0.000655404 -0.0065202 0.00249027 -0.000606088 0.00648957)
(0.0314173 -0.000454215 -0.00644761 0.00284951 -0.000777521 0.00635146)
(0.0282537 -0.000650361 -0.00568932 0.00314385 -0.00109873 0.00631443)
(0.0348217 -0.000583081 -0.00672612 0.0028326 -0.00135196 0.007049)
(0.0327736 -0.000778337 -0.00542159 0.00287032 -0.00126171 0.00733446)
(0.0288075 -0.000372665 -0.00516211 0.00317936 -0.00145936 0.00766081)
(0.0269909 -0.000921308 -0.00518511 0.00303982 -0.00161355 0.00711384)
(0.029982 -0.000431008 -0.00692861 0.00271682 -0.00132952 0.00738904)
(0.0308791 -0.00104942 -0.00733174 0.00260464 -0.000886646 0.00758124)
(0.0343564 -0.000866043 -0.00632238 0.00251291 -0.0010867 0.00727108)
(0.0354417 -0.00182786 -0.00621151 0.00234022 -0.00122593 0.00729248)
(0.0329582 -0.000941802 -0.00620856 0.00208371 -0.0010773 0.00676555)
(0.0353927 -0.00155841 -0.00641008 0.00244005 -0.00110535 0.00659862)
(0.0414809 -0.00106608 -0.00610008 0.00239355 -0.00134074 0.00662279)
(0.0433662 -0.000678008 -0.00707547 0.00224363 -0.00105437 0.00652738)
(0.0393558 -0.000893147 -0.00674553 0.00247266 -0.00156509 0.00760113)
(0.0409284 -0.000460761 -0.00690665 0.00303769 -0.00193152 0.00771015)
(0.0383935 0.000415027 -0.00667358 0.00285523 -0.00147156 0.00694206)
(0.0406692 -0.000500542 -0.00649987 0.00283257 -0.00135501 0.00642907)
(0.0379432 -0.000325535 -0.00731471 0.00250042 -0.000864392 0.0065234)
(0.0335425 0.000322691 -0.00665179 0.00238209 -0.0012458 0.00676667)
(0.0291646 0.000316018 -0.00714261 0.00253051 -0.00127859 0.00688335)
(0.0298906 0.000225325 -0.00631999 0.00258069 -0.000641928 0.00681165)
(0.0267709 -0.000534421 -0.00552867 0.00276944 -0.000812088 0.00610923)
(0.0315406 -0.000619793 -0.00520027 0.00314973 -0.000779249 0.00605888)
(0.0276438 -0.00103749 -0.00467419 0.00307061 -0.000862521 0.00663138)
(0.0310356 -0.00239536 -0.0061908 0.0032806 -0.000760812 0.00666937)
(0.0343715 -0.00196368 -0.00594711 0.00322792 -0.000688967 0.00661205)
(0.0273125 -0.000560908 -0.00571108 0.00300896 -0.00118333 0.00754026)
(0.0302336 -0.0014719 -0.00540785 0.00329949 -0.00132268 0.00725341)
(0.0335043 -0.00207453 -0.00653158 0.00326719 -0.000449394 0.00640952)
(0.0339189 -0.0025311 -0.0056801 0.00319982 -0.000568586 0.00626961)
(0.0363316 -0.0022761 -0.00654527 0.00337088 -0.000838955 0.0072004)
(0.0351238 -0.00241851 -0.00664651 0.00370771 -0.000847363 0.00797419)
(0.0366569 -0.00175542 -0.00587589 0.00344836 -0.000665763 0.00706662)
(0.0401752 -0.00132419 -0.00751044 0.0034415 -0.000756079 0.00663758)
(0.0331434 0.00028624 -0.00795788 0.00360508 -0.000974564 0.00666197)
(0.0308561 -0.000535198 -0.0079263 0.00380815 -0.000719942 0.00752107)
(0.0349134 -0.00165895 -0.00679325 0.00384479 -0.000934574 0.00740532)
(0.0301903 -0.000624569 -0.00575066 0.00313792 -0.000641453 0.00695164)
(0.0312103 -0.00081828 -0.00598389 0.00288917 -0.000452771 0.00583222)
(0.0315362 -0.0010308 -0.00649202 0.00335563 -0.000422818 0.00574185)
(0.0268684 -0.00117666 -0.00558587 0.00366742 -0.000917969 0.00566499)
(0.0363607 -0.00107259 -0.00664556 0.00328569 -0.00121501 0.00616896)
(0.0335926 -0.00109273 -0.00533834 0.00318131 -0.00088761 0.00603415)
(0.030113 -0.000809007 -0.00484469 0.00345341 -0.00117349 0.00607312)
(0.027012 -0.00144327 -0.00460204 0.0032775 -0.00127779 0.00636019)
(0.0296945 -0.0013443 -0.00702858 0.00293825 -0.0011205 0.0072321)
(0.0314848 -0.00140838 -0.00714588 0.0028074 -0.000785825 0.0076578)
(0.0325719 -0.00107957 -0.00649837 0.00282919 -0.000916792 0.00705912)
(0.0339816 -0.00208642 -0.00730407 0.00271714 -0.000999293 0.00723393)
(0.0311534 -0.00134437 -0.00662718 0.00249958 -0.000917567 0.00733901)
(0.0356378 -0.0023053 -0.00634822 0.00283897 -0.000896295 0.00712023)
(0.0392355 -0.00156154 -0.00650358 0.00271466 -0.000903027 0.00654293)
(0.0368845 -0.00119941 -0.00705655 0.00259273 -0.000762028 0.00688788)
(0.0372836 -0.0014141 -0.00650126 0.00274776 -0.00132565 0.00756114)
(0.0376059 -0.000628715 -0.00542673 0.00313662 -0.00144063 0.00767555)
(0.0350893 -7.68662e-05 -0.00530596 0.0030072 -0.00104014 0.00639698)
(0.035351 -0.00107473 -0.00517257 0.00303701 -0.00102677 0.006241)
(0.0359747 -0.000967282 -0.00651751 0.00278024 -0.000673075 0.00635483)
(0.0334962 -0.000248671 -0.00672521 0.0026374 -0.000966069 0.00654601)
(0.028777 0.000199172 -0.0070292 0.00276787 -0.00106659 0.00667426)
(0.0287063 -0.000250356 -0.0060142 0.00292752 -0.000537721 0.00592088)
(0.0288755 -0.000442618 -0.00620648 0.0029448 -0.00064556 0.00542104)
(0.0330611 -0.000505546 -0.00633543 0.00331021 -0.000553827 0.00623022)
(0.0264805 -0.00127829 -0.00477368 0.00339798 -0.000677462 0.00657559)
(0.0300298 -0.00277878 -0.00635923 0.00363082 -0.000380282 0.00633582)
(0.0365357 -0.00225346 -0.00618181 0.00340947 -0.000443817 0.00638286)
(0.0300693 -0.000787661 -0.0066158 0.00322033 -0.000800549 0.00755727)
(0.0336113 -0.00141469 -0.00653658 0.00345556 -0.000970838 0.00734019)
(0.0363659 -0.00182626 -0.00716587 0.00348515 -0.000382115 0.00632408)
(0.033038 -0.00234783 -0.0061714 0.00336706 -0.000344534 0.00561834)
(0.0345178 -0.00222054 -0.00705838 0.00386989 -0.000651654 0.00741223)
(0.0343157 -0.00311133 -0.00679601 0.00418893 -0.000634997 0.00839002)
(0.0360023 -0.00233217 -0.00586913 0.00385064 -0.000657287 0.00703213)
(0.0376179 -0.00171852 -0.00671693 0.00400764 -0.000672202 0.00616003)
(0.033749 2.32358e-05 -0.00763014 0.00400049 -0.000775323 0.00646588)
(0.0313965 -0.000686253 -0.00810009 0.00394339 -0.000432345 0.00714894)
(0.0337449 -0.00156402 -0.00668476 0.00399075 -0.000522725 0.00661546)
(0.0330158 -0.000768006 -0.00557449 0.00344181 -0.000440735 0.00627894)
(0.0345615 -0.000822525 -0.00575654 0.00325966 -0.000151521 0.00566106)
(0.0343924 -0.00136943 -0.00701851 0.00377786 -0.000142729 0.00584527)
(0.0301665 -0.00147159 -0.00641599 0.00408151 -0.00072783 0.00559516)
(0.0358366 -0.0011823 -0.0068634 0.00379093 -0.00130802 0.00595399)
(0.0333565 -0.00138702 -0.00631348 0.00341567 -0.000724064 0.00593991)
(0.0308818 -0.00114791 -0.00579075 0.00364507 -0.000924794 0.00597168)
(0.0290217 -0.00204016 -0.00435163 0.00349192 -0.00102112 0.00623038)
(0.0294944 -0.00181677 -0.00719425 0.00311975 -0.000977941 0.00722358)
(0.0324387 -0.00113994 -0.00743955 0.00300549 -0.000531752 0.00775705)
(0.0321925 -0.00120094 -0.0068293 0.00327506 -0.000640575 0.00752525)
(0.0345579 -0.00237547 -0.00776813 0.00306086 -0.000598899 0.00749554)
(0.0297237 -0.00178683 -0.00681401 0.00294977 -0.000621427 0.00759345)
(0.0345154 -0.0025242 -0.00654451 0.00328366 -0.000544324 0.00744374)
(0.0366313 -0.00195246 -0.00668937 0.00312213 -0.000568703 0.00626871)
(0.0320503 -0.00136549 -0.00665817 0.00293789 -0.000613319 0.00617911)
(0.0345415 -0.00146027 -0.00721551 0.00306372 -0.00103159 0.00673735)
(0.0367652 -0.000571409 -0.00572617 0.00313567 -0.00100429 0.00718032)
(0.0310708 -0.000220976 -0.00507165 0.00307247 -0.000646616 0.00597904)
(0.033968 -0.00161286 -0.00453598 0.00307276 -0.000579461 0.00595424)
(0.0353876 -0.00109189 -0.00613936 0.00281524 -0.000476806 0.00635032)
(0.0332849 -0.000603417 -0.00641711 0.00278646 -0.000819853 0.00627019)
(0.0299643 -7.60251e-05 -0.00725306 0.00296952 -0.000782415 0.00625602)
(0.0301798 -0.000612877 -0.00671748 0.00297594 -0.000316224 0.00555871)
(0.0349279 -0.000482973 -0.00785254 0.00299624 -0.000431158 0.0056673)
(0.0350616 -0.000514805 -0.00896581 0.00332126 -0.000215512 0.00702154)
(0.029177 -0.0015568 -0.00715771 0.00354137 -0.000310307 0.00731901)
(0.0301142 -0.00249576 -0.00771189 0.00373085 -9.10522e-05 0.00701477)
(0.0360723 -0.00194702 -0.00702137 0.00347252 -0.000253262 0.00657096)
(0.0341209 -0.000711647 -0.00731536 0.00331631 -0.000415115 0.00769869)
(0.0359696 -0.000655916 -0.00650621 0.00365348 -0.000641922 0.00771492)
(0.0363076 -0.00138449 -0.00827867 0.00369402 -0.000152892 0.00680914)
(0.034649 -0.00160649 -0.00800575 0.00351861 -0.00032963 0.00640083)
(0.0364494 -0.00239487 -0.00745686 0.00426353 -0.000573378 0.00805241)
(0.0338308 -0.00350117 -0.00655292 0.00447187 -0.000517381 0.00837493)
(0.034097 -0.00291271 -0.00600976 0.00413147 -0.000553613 0.00705544)
(0.0357456 -0.00211972 -0.00648997 0.00432454 -0.000310558 0.00665931)
(0.0359291 -0.000436364 -0.00789678 0.00407829 -0.000352449 0.00708947)
(0.037082 -0.000411812 -0.00960191 0.00386795 -0.000226698 0.00761652)
(0.0340462 -0.00113996 -0.00711094 0.00396088 -0.000348626 0.00651429)
(0.0326719 -0.00118192 -0.00592675 0.00361061 -0.000167631 0.00584083)
(0.0366463 -0.00132592 -0.00641094 0.00358709 0.000217574 0.00540445)
(0.0363343 -0.00114163 -0.00760101 0.00396639 7.07619e-05 0.00576776)
(0.0350675 -0.00137295 -0.00783635 0.00423122 -0.000432395 0.00577304)
(0.0341989 -0.000468497 -0.00799105 0.0038746 -0.00126095 0.00616735)
(0.0337783 -0.000837691 -0.00788036 0.00347133 -0.000590719 0.0064913)
(0.0298901 -0.00108613 -0.00655188 0.00360558 -0.000689361 0.00647744)
(0.0296367 -0.00207946 -0.00578281 0.00381781 -0.000842292 0.00649894)
(0.0306205 -0.00163218 -0.00756932 0.00327553 -0.000826629 0.00722688)
(0.0334285 -0.00100543 -0.00841693 0.00314639 -0.000148293 0.00815268)
(0.0328058 -0.000937341 -0.00776193 0.00349912 -0.00039756 0.00766038)
(0.036143 -0.00203037 -0.00809841 0.00329019 -0.000486612 0.0072126)
(0.0310622 -0.00164699 -0.00789703 0.00327852 -0.000389465 0.00753125)
(0.0355896 -0.0023701 -0.00749408 0.00345131 -0.000386121 0.00771009)
(0.0318003 -0.00238755 -0.00690937 0.00341106 -0.00032971 0.00649273)
(0.0322444 -0.00162627 -0.00732721 0.00330774 -0.000189543 0.00610572)
(0.0337558 -0.000966283 -0.00873452 0.00332463 -0.000735411 0.00632866)
(0.03812 -3.75833e-05 -0.0071663 0.00312132 -0.000811787 0.00683214)
(0.0337607 -0.000203424 -0.00594082 0.00294001 -0.000468234 0.006082)
(0.0381328 -0.0019394 -0.00507303 0.00293303 -0.000287765 0.00564273)
(0.0376048 -0.00116572 -0.00606817 0.00289868 -0.000148498 0.00610754)
(0.0339766 -0.00094411 -0.00653277 0.00290678 -0.000445504 0.00580058)
(0.0344922 -0.000878778 -0.0077503 0.00297074 -0.000332159 0.00605788)
(0.0353994 -0.000980181 -0.00880366 0.00281729 -0.0001796 0.00673401)
(0.0376413 -0.000540872 -0.00934664 0.00288079 -0.000201356 0.00653131)
(0.0341137 -0.000867085 -0.0100419 0.0032287 -1.11129e-05 0.00856761)
(0.0319317 -0.00137932 -0.00915193 0.00338339 -0.000372003 0.00871464)
(0.0294177 -0.00171634 -0.00912408 0.00366558 -0.00021257 0.00851162)
(0.0302754 -0.00113859 -0.0069303 0.00361501 -0.000326797 0.00765239)
(0.0324675 -0.000593018 -0.00775361 0.00358839 -0.000377627 0.00818961)
(0.0351219 0.000207455 -0.00715255 0.00377749 -0.00053387 0.0078689)
(0.0348599 -0.000810689 -0.00782967 0.00379651 -0.000209158 0.0072022)
(0.0374358 -0.00152248 -0.00883613 0.00378136 -0.000378101 0.007212)
(0.0381472 -0.00219901 -0.0083949 0.00470344 -0.000716275 0.00842166)
(0.0354416 -0.00293258 -0.0079637 0.00490127 -0.00073623 0.0086939)
(0.0352565 -0.00300751 -0.00710332 0.00425268 -0.000509196 0.00713122)
(0.036086 -0.00200961 -0.00655055 0.00438217 -0.000180256 0.00676037)
(0.0361084 -0.000927682 -0.00781678 0.00446325 -4.90959e-05 0.00724795)
(0.041556 -0.000471277 -0.0102807 0.00421312 -0.000176475 0.00733628)