/*--------------------------------*- C++ -*----------------------------------*\
  =========                 |
  \\      /  F ield         | OpenFOAM: The Open Source CFD Toolbox
   \\    /   O peration     | Website:  https://openfoam.org
    \\  /    A nd           | Version:  10
     \\/     M anipulation  |
\*---------------------------------------------------------------------------*/
FoamFile
{
    format      ascii;
    class       volScalarField;
    location    "37.5";
    object      pMean;
}
// * * * * * * * * * * * * * * * * * * * * * * * * * * * * * * * * * * * * * //

dimensions      [0 2 -2 0 0 0 0];

internalField   nonuniform List<scalar> 
102400
(
-0.00171536
-0.00145507
-0.00222426
-0.00158648
-0.00108279
-0.0018113
-0.00173519
-0.00231968
-0.00278951
-0.00390946
-0.00300314
-0.00200433
-0.00243764
-0.00209823
-0.00156839
4.45131e-05
-0.000362343
-0.00109819
-0.00126924
-0.00148286
-0.00199948
-0.00268983
-0.00261831
-0.00240641
-0.00156346
-0.00133405
-0.00127827
-0.0021993
-0.0032678
-0.00310719
-0.00314871
-0.00301497
-0.00269948
-0.00229199
-0.0022188
-0.00274138
-0.00318606
-0.00304727
-0.00270245
-0.00221332
-0.00149102
-0.00124171
-0.00199191
-0.00134393
-0.000836647
-0.00160095
-0.00152584
-0.00209406
-0.00254612
-0.00365032
-0.00276101
-0.0018107
-0.00225065
-0.00191001
-0.00133636
0.000292999
-9.89586e-05
-0.000823515
-0.000997318
-0.00121678
-0.00174903
-0.0024603
-0.00240468
-0.00216795
-0.00133931
-0.00109473
-0.00103775
-0.00196228
-0.00301819
-0.00286142
-0.00293138
-0.00278401
-0.0024557
-0.00205201
-0.00199687
-0.00252206
-0.0029564
-0.00281059
-0.00246673
-0.00197849
-0.00143241
-0.0012
-0.00189839
-0.00126651
-0.000739294
-0.00151566
-0.00147892
-0.00203258
-0.00246358
-0.00355048
-0.00267262
-0.0017708
-0.00222136
-0.0019346
-0.00135208
0.000365339
3.93391e-05
-0.000644305
-0.00082989
-0.0011106
-0.00164804
-0.00235846
-0.00233723
-0.00205629
-0.00125941
-0.00102174
-0.000914344
-0.00183095
-0.0028717
-0.00273198
-0.00285995
-0.00273006
-0.00240349
-0.00198649
-0.00194352
-0.00242826
-0.00288361
-0.00273963
-0.00238316
-0.00191063
-0.0016416
-0.00136776
-0.00202969
-0.00144285
-0.000894049
-0.00164431
-0.00162541
-0.00219687
-0.00268482
-0.00374001
-0.00289734
-0.00195368
-0.0024287
-0.00222594
-0.00167098
0.000173072
-5.61684e-05
-0.000713821
-0.00089761
-0.00128865
-0.00179836
-0.00251607
-0.0025169
-0.00216819
-0.00139256
-0.00116834
-0.00101986
-0.00191825
-0.0029168
-0.00283581
-0.00300553
-0.0029191
-0.00265672
-0.00221662
-0.00216367
-0.00257792
-0.00305623
-0.00290283
-0.00256921
-0.00212905
-0.0019306
-0.00156372
-0.00221728
-0.00167503
-0.00110508
-0.00181728
-0.00174083
-0.0023764
-0.00300676
-0.00404385
-0.00322047
-0.00212027
-0.00268434
-0.00254065
-0.00204176
-0.000131292
-0.000242474
-0.000827456
-0.00104615
-0.00158283
-0.00202469
-0.00270527
-0.00265953
-0.0022819
-0.00153285
-0.00129176
-0.00115919
-0.0020436
-0.00299921
-0.00295706
-0.00315668
-0.00313275
-0.00294415
-0.00251867
-0.00242044
-0.00272821
-0.00320586
-0.00305457
-0.0027807
-0.00239111
-0.00222854
-0.00181349
-0.00238575
-0.00189476
-0.00137143
-0.00203925
-0.00184419
-0.00256516
-0.00335158
-0.00441399
-0.0036044
-0.0023194
-0.00303018
-0.00284829
-0.00238485
-0.000530472
-0.000489712
-0.000942992
-0.00127047
-0.00196499
-0.00233186
-0.00288065
-0.00271184
-0.00232262
-0.00161017
-0.00134935
-0.001322
-0.00219718
-0.00313478
-0.00302715
-0.00321644
-0.00328537
-0.00315754
-0.00283904
-0.002654
-0.00280659
-0.00327994
-0.00317041
-0.00297379
-0.00260398
-0.00250613
-0.00212423
-0.0025488
-0.00211315
-0.00168846
-0.00232487
-0.00200074
-0.00278949
-0.00369772
-0.00484432
-0.00406891
-0.00276078
-0.00350212
-0.00318774
-0.00270072
-0.000943289
-0.000720311
-0.00114934
-0.00158609
-0.00235964
-0.00268529
-0.00300212
-0.00270139
-0.00227075
-0.00160546
-0.00137476
-0.00153599
-0.0024128
-0.00333522
-0.00312738
-0.00322375
-0.00335337
-0.00337108
-0.00312245
-0.00282469
-0.00288635
-0.00336421
-0.0033046
-0.00320981
-0.00276407
-0.00271855
-0.00241633
-0.00275554
-0.0023874
-0.00197165
-0.00251536
-0.00218738
-0.00301624
-0.00409579
-0.00529856
-0.00457062
-0.00345958
-0.00398775
-0.00350538
-0.00296573
-0.0013486
-0.000971161
-0.0015248
-0.00198444
-0.00273774
-0.00296403
-0.00311195
-0.0026651
-0.00214204
-0.00158607
-0.00149549
-0.00180628
-0.00267845
-0.00358745
-0.00340799
-0.00335741
-0.00350357
-0.00362464
-0.00336148
-0.00293271
-0.00293569
-0.00343299
-0.00348843
-0.00344955
-0.00287531
-0.00291941
-0.0027869
-0.00292956
-0.00265571
-0.00219623
-0.00264274
-0.00237421
-0.00317057
-0.00449073
-0.00570098
-0.00510188
-0.00425914
-0.00442154
-0.00367421
-0.0031438
-0.00175159
-0.00130475
-0.0018932
-0.00235289
-0.00305401
-0.00313267
-0.00321132
-0.00270625
-0.00208286
-0.00169782
-0.00171285
-0.00211265
-0.00306169
-0.00380293
-0.00375478
-0.00372334
-0.00377516
-0.00392268
-0.00352004
-0.00294377
-0.00285385
-0.00346202
-0.00367554
-0.00357758
-0.00295334
-0.00311791
-0.00304061
-0.00297712
-0.00279183
-0.00241396
-0.00283538
-0.00255768
-0.00323187
-0.00474917
-0.00600572
-0.00562918
-0.0048766
-0.00471192
-0.00375962
-0.00324535
-0.00219535
-0.00173434
-0.002218
-0.0027534
-0.00335065
-0.00336096
-0.00333428
-0.00284246
-0.00216123
-0.00192403
-0.00193959
-0.00248233
-0.00349656
-0.00405724
-0.00418247
-0.00421573
-0.00407605
-0.00419571
-0.00367319
-0.00287333
-0.00274474
-0.00342793
-0.00373755
-0.00352132
-0.00299511
-0.00325101
-0.00301605
-0.00292113
-0.00283273
-0.00263428
-0.00305301
-0.00278753
-0.00329015
-0.00487233
-0.00624493
-0.0060693
-0.00526574
-0.0050088
-0.003917
-0.00322249
-0.00262778
-0.0021962
-0.0025666
-0.0030043
-0.00347035
-0.00362225
-0.00352168
-0.00295307
-0.00241295
-0.00211885
-0.00202649
-0.00270079
-0.00363647
-0.0044026
-0.00463726
-0.00452842
-0.00423298
-0.00430799
-0.00381369
-0.00280949
-0.0025889
-0.00325981
-0.00351632
-0.00323514
-0.00295223
-0.00320184
-0.00284045
-0.0028092
-0.00275615
-0.00278123
-0.00332015
-0.0030518
-0.00344723
-0.00494728
-0.00637136
-0.00629252
-0.00544787
-0.00529312
-0.00409013
-0.003269
-0.00306536
-0.00256778
-0.00291617
-0.00329615
-0.0035275
-0.00379055
-0.00359041
-0.00287057
-0.00259429
-0.00222455
-0.00189608
-0.00250904
-0.00342853
-0.00446576
-0.00480973
-0.00457455
-0.00409843
-0.0041075
-0.00374241
-0.00269832
-0.00228575
-0.00284515
-0.00302761
-0.00292385
-0.00285487
-0.00316989
-0.00288966
-0.00267207
-0.00257437
-0.00289199
-0.0035291
-0.00327268
-0.003375
-0.00465039
-0.00613521
-0.00601191
-0.00519683
-0.00501627
-0.00396391
-0.00328233
-0.00300305
-0.0025406
-0.00291815
-0.00326144
-0.0035141
-0.00389617
-0.00350515
-0.00264253
-0.00248555
-0.00216313
-0.00182416
-0.0025235
-0.00342258
-0.00427323
-0.0045382
-0.00410595
-0.00386935
-0.00384738
-0.00346714
-0.00257404
-0.00209515
-0.00255675
-0.00266256
-0.00285516
-0.00284699
-0.00308409
-0.00279125
-0.00234495
-0.00221607
-0.00268763
-0.00342358
-0.0030082
-0.00276183
-0.00379913
-0.0051839
-0.00505921
-0.00443446
-0.00443387
-0.00369193
-0.00313058
-0.00266975
-0.00229214
-0.00254668
-0.00280716
-0.00329919
-0.00349291
-0.0029809
-0.00220509
-0.00191206
-0.00173348
-0.00146437
-0.0024224
-0.00351423
-0.00414249
-0.00426608
-0.00379622
-0.0034003
-0.00345696
-0.00305053
-0.00238518
-0.00200729
-0.00243309
-0.00270941
-0.00297985
-0.00291683
-0.00267065
-0.00238
-0.00208247
-0.00188696
-0.00237365
-0.00316686
-0.00259469
-0.00220996
-0.00303662
-0.00402324
-0.00395593
-0.00344306
-0.00349689
-0.0031264
-0.00286034
-0.00250277
-0.00214673
-0.00239377
-0.00282246
-0.0035963
-0.00354122
-0.00284943
-0.0018407
-0.00167436
-0.00176932
-0.00167623
-0.00249674
-0.00300328
-0.00333743
-0.0036621
-0.00351066
-0.00298254
-0.00293201
-0.00277529
-0.00250952
-0.00244769
-0.00270399
-0.00292438
-0.00301996
-0.00269416
-0.00212211
-0.00192937
-0.00173763
-0.001709
-0.00230997
-0.0027773
-0.00200238
-0.00170942
-0.0022855
-0.00290015
-0.00296214
-0.00263145
-0.00253578
-0.00236461
-0.00229668
-0.00201549
-0.00150453
-0.00158712
-0.00224618
-0.00333649
-0.00343537
-0.00273933
-0.00147713
-0.00120159
-0.00150868
-0.00193676
-0.00248082
-0.00266842
-0.00265486
-0.00297589
-0.00302131
-0.00277092
-0.00262263
-0.0025259
-0.00267839
-0.00283121
-0.00281676
-0.00276985
-0.00250935
-0.00212626
-0.00137898
-0.000896398
-0.000876136
-0.00112387
-0.00140862
-0.0013317
-0.000927549
-0.00120777
-0.00159833
-0.00159784
-0.00177083
-0.00171498
-0.00183417
-0.00212475
-0.00242662
-0.00203925
-0.00148163
-0.00143314
-0.00202527
-0.00311691
-0.00325731
-0.00257784
-0.00128717
-0.000770699
-0.00110861
-0.00169297
-0.00205766
-0.00197619
-0.00197297
-0.00217166
-0.00223486
-0.00213976
-0.00200082
-0.00184678
-0.00207957
-0.00222333
-0.00205041
-0.00183647
-0.00160958
-0.00147935
-0.00133719
-0.000721504
-0.000654443
-0.000815136
-0.00107394
-0.000810936
-0.000491114
-0.000836249
-0.00100121
-0.00091345
-0.00124787
-0.00136286
-0.00151626
-0.00198064
-0.0023573
-0.00195898
-0.00151226
-0.00148646
-0.00237447
-0.00317567
-0.00312191
-0.00248739
-0.00158833
-0.00127468
-0.00137216
-0.00167052
-0.00176638
-0.00185346
-0.0021078
-0.00194525
-0.00177429
-0.00164812
-0.00130954
-0.00109752
-0.00156112
-0.00177041
-0.00166105
-0.00152751
-0.00138613
-0.00160032
-0.000491818
-0.000367924
-0.000286664
-0.000708324
-0.000954867
-0.000452229
-0.000332478
-0.000724628
-0.0009065
-0.000817438
-0.00111953
-0.00161626
-0.00207665
-0.00250051
-0.00243453
-0.00160943
-0.000997526
-0.000977556
-0.00174961
-0.00258835
-0.00255223
-0.00162239
-0.000475274
-0.000385696
-0.000879827
-0.00108533
-0.00116018
-0.00135527
-0.00142098
-0.00139312
-0.00150706
-0.00128286
-0.00084311
-0.000912295
-0.00128812
-0.00111051
-0.000865092
-0.000628324
-0.000645579
-0.000618935
-0.000324095
-7.07561e-05
-0.000172687
-0.000603769
-0.000564412
-5.94665e-05
-0.00027824
-0.000947253
-0.00114789
-0.0013679
-0.00140263
-0.00187951
-0.00238741
-0.00280243
-0.00248892
-0.00177644
-0.00164974
-0.0017761
-0.00202505
-0.00258542
-0.00245587
-0.00181196
-0.00114137
-0.000794187
-0.000753079
-0.00106031
-0.00148333
-0.00152761
-0.00120642
-0.00134359
-0.00130513
-0.0011179
-0.000990063
-0.00114879
-0.00134471
-0.00110633
-0.00101323
-0.000994898
-0.00102667
-0.000719048
-0.000367482
-0.000175833
-0.000540748
-0.00147624
-0.00156065
-0.000951536
-0.000920285
-0.00149796
-0.0019895
-0.00233048
-0.00190491
-0.00166679
-0.00120554
-0.0013206
-0.000953084
-0.000781208
-0.00100296
-0.00130614
-0.00191663
-0.00228169
-0.0020042
-0.0015682
-0.00125623
-0.000940041
-0.000917649
-0.00128562
-0.0013278
-0.00140627
-0.00180344
-0.00211392
-0.00177488
-0.00110383
-0.000674336
-0.000790047
-0.0009949
-0.000602485
-9.37698e-05
-0.000348442
-0.000768833
-0.000743127
-0.00128538
-0.00123618
-0.00158251
-0.00212891
-0.00173737
-0.0011672
-0.000950558
-0.00142298
-0.00154897
-0.00162986
-0.00169913
-0.00179872
-0.00152235
-0.00138742
-0.00101779
-0.00091176
-0.000776758
-0.000891897
-0.00149848
-0.00189038
-0.00205051
-0.00188823
-0.00187695
-0.00171513
-0.00181144
-0.00169162
-0.00155079
-0.00148517
-0.00188928
-0.00228827
-0.00217036
-0.00149461
-0.000903565
-0.000519451
-5.69045e-05
0.000174002
0.000116309
-0.000637928
-0.00142405
-0.00152919
-0.000958617
-0.000968775
-0.00118932
-0.0012892
-0.00108279
-0.000819393
-0.000481303
-0.000542822
-0.000706142
-0.000631844
-0.000474312
-0.000868985
-0.00120783
-0.000770062
-0.000484436
-0.000713435
-0.000810304
-0.000701792
-0.00090451
-0.00128726
-0.00131227
-0.00138681
-0.00111008
-0.000733996
-0.000736024
-0.000731534
-0.000887652
-0.000978696
-0.00121552
-0.0013752
-0.00134588
-0.000859717
-0.000135942
0.000361043
0.000436269
0.00019698
-0.000373982
-0.000960811
-0.00125807
-0.00110397
-0.000471491
-0.000827579
-0.00137957
-0.00169287
-0.00155316
-0.00105991
-0.00125446
-0.00142845
-0.00146746
-0.00147886
-0.00158338
-0.00166011
-0.00157676
-0.00116798
-0.00107629
-0.00123709
-0.0012683
-0.00115392
-0.00120243
-0.00168894
-0.00159526
-0.00133759
-0.00116684
-0.000863022
-0.00064071
-0.00068167
-0.00097275
-0.00129488
-0.00142576
-0.00136962
-0.00121557
-0.000897251
-0.000624786
-0.000328217
-0.000542215
-0.000937779
-0.001494
-0.00177193
-0.00140591
-0.000612596
0.000883317
-2.53999e-05
-0.000463201
-0.000374822
-0.000308287
-0.000601271
-0.0012969
-0.00155628
-0.00101459
-0.000659433
-0.00100922
-0.000990955
-0.000399456
-0.000223186
-0.000190309
-0.000185978
-0.000204698
6.49581e-05
1.59135e-05
-0.000154103
-6.56603e-05
0.000146164
5.02589e-06
1.61444e-05
0.00034283
-0.000111457
-0.000782523
-0.00065868
0.000192012
0.000555139
0.000130665
-0.00023475
-0.000312957
-4.54298e-05
0.00034609
0.000606227
0.000264913
2.38271e-05
0.000415054
0.00109446
0.000620389
1.81587e-07
-0.000113595
5.71728e-05
-0.000786802
-0.00138852
-0.000708484
-2.59634e-05
0.000155286
-3.53768e-05
-0.000813697
-0.0013309
-0.000758783
-1.44604e-05
4.36377e-05
-0.000484721
-0.000156288
0.000337042
0.000113527
6.48876e-05
0.000309464
0.000419789
0.000443828
0.000575674
0.000901518
0.000809266
0.000143979
-0.000295946
-0.000250518
0.000119498
7.72678e-05
-0.000458339
-0.000136624
0.000558801
0.000619346
-0.000101233
-0.000273366
5.52968e-05
0.00057488
0.000941309
-0.000225588
0.000534551
0.000889985
0.000539657
-0.000202127
-0.000596866
4.12063e-05
0.000658825
0.000391646
-0.000366299
-0.0010667
-0.00127439
-0.0011288
-0.000869729
-0.000933435
-0.00155028
-0.00178776
-0.00180256
-0.00210687
-0.00196237
-0.00184793
-0.00201844
-0.00110903
-0.000302823
-0.000311486
-0.000555228
-0.000538473
-6.32304e-05
2.75665e-05
-8.12975e-05
-0.000278101
-0.000181983
0.000347509
0.000386515
-0.00071886
-0.00195205
-0.00185717
-0.00135046
-0.00083333
-0.000568188
-0.00156128
-0.00173756
-0.00213284
-0.00263813
-0.00249406
-0.00212905
-0.0019515
-0.00140492
-0.00119705
-0.00155365
-0.00181396
-0.00151963
-0.000801643
-0.000391488
-0.000633934
-0.000645042
-0.000859848
-0.000928647
-0.000942216
-0.000915566
-0.00119844
-0.0014124
-0.00112272
-0.00118663
-0.00180486
-0.00159649
-0.001238
-0.00115756
-0.00132598
-0.000999518
-0.000631792
-0.000416725
-7.57754e-05
-0.000587524
-0.000617906
-0.000323029
-0.000519432
-0.000954361
-0.00112941
-0.00132078
-0.000784416
-0.00120228
-0.00199902
-0.00205445
-0.00198208
-0.00217992
-0.00275088
-0.00289671
-0.00322658
-0.00293945
-0.0019714
-0.00133404
-0.001548
-0.0011692
-0.000906918
-0.00143892
-0.00217635
-0.00202083
-0.00202578
-0.00210026
-0.00255785
-0.00261097
-0.00219287
-0.00232561
-0.00229568
-0.00199809
-0.00217609
-0.00292572
-0.00307586
-0.00295403
-0.00248626
-0.0018139
-0.00150228
-0.00226205
-0.00283287
-0.00259098
-0.00207017
-0.00177966
-0.00144261
-0.00103727
-0.00293836
-0.00299012
-0.00252542
-0.00201286
-0.00164486
-0.000910805
-0.000636985
-0.00138962
-0.00234609
-0.00296535
-0.0030848
-0.00293389
-0.00236511
-0.00164575
-0.00181208
-0.00244595
-0.0022242
-0.00232662
-0.00256326
-0.00266099
-0.0027732
-0.00250893
-0.00187763
-0.00151818
-0.00194586
-0.00288161
-0.00298041
-0.00263943
-0.00269082
-0.00307264
-0.00349057
-0.00335506
-0.00263972
-0.00259469
-0.00267831
-0.00246812
-0.00288777
-0.00359442
-0.00361173
-0.0031083
-0.00038749
1.3316e-05
2.82003e-05
0.000147282
0.000218721
-0.000551787
-0.00109488
-0.000896906
-0.000370796
0.000213972
0.000465951
1.05484e-05
5.02921e-05
0.000461088
0.000743352
0.00127888
0.00173473
0.000293012
-0.000864597
-0.000118161
0.000561667
0.000685618
0.000688681
0.000239465
0.000907668
0.00128379
0.00165733
0.00145513
0.00164638
0.00207527
0.00101437
0.000202496
0.000237807
0.000133702
0.000798594
0.000512179
-0.000711655
-0.000865894
-0.000845123
-0.00123121
0.00373918
0.00358114
0.00416069
0.00513274
0.00578266
0.00555541
0.00381289
0.00366653
0.00596224
0.00688181
0.00632186
0.00621007
0.00561679
0.00463738
0.00554953
0.00625258
0.00542659
0.00423035
0.00450471
0.00598205
0.00489671
0.00332952
0.00320703
0.0024883
0.00363675
0.00591197
0.00596874
0.00694245
0.00793113
0.00851577
0.00821241
0.00689761
0.00597513
0.00499015
0.00445901
0.00383699
0.00468729
0.00592606
0.00484563
0.00382602
0.00698481
0.00782589
0.00819301
0.00827723
0.00908384
0.00795121
0.00758624
0.00790643
0.00836247
0.00820659
0.00763834
0.00785458
0.00694286
0.00622412
0.00722697
0.00824649
0.00831058
0.00872859
0.00871798
0.00871414
0.00818069
0.00775489
0.00831856
0.00833074
0.00798552
0.00799273
0.00803739
0.00843836
0.00848812
0.00772747
0.00748558
0.00732442
0.00760287
0.00708579
0.00688966
0.00714227
0.00713025
0.00702466
0.00614447
0.00646458
0.00693012
0.00777087
0.00814443
0.00822572
0.00903621
0.00790278
0.00754122
0.0078742
0.0083141
0.00816433
0.00759471
0.00780998
0.00688525
0.00615435
0.00716898
0.00817306
0.00824037
0.00867425
0.00866905
0.00865354
0.00812651
0.00771419
0.00827131
0.00827302
0.00792475
0.00794557
0.00799174
0.00838629
0.00843651
0.00768195
0.00745129
0.00728205
0.00755113
0.0070286
0.00684574
0.00709483
0.00708524
0.0069832
0.00608683
0.0064035
0.00673476
0.00757584
0.00797361
0.00803973
0.0088556
0.00771044
0.00734836
0.0077223
0.00815722
0.00799794
0.00738988
0.00759736
0.00665155
0.00590413
0.00696322
0.00796912
0.00804212
0.00851017
0.00852238
0.00845689
0.00792408
0.00753603
0.0080752
0.00810966
0.00775921
0.00776571
0.00780916
0.00819278
0.00825216
0.00750176
0.00726381
0.00709368
0.0073431
0.00681747
0.0066512
0.00691382
0.00690571
0.00680845
0.00589877
0.00619442
0.00623423
0.00709049
0.00751086
0.00753769
0.00836926
0.00722851
0.00687462
0.00729724
0.00771289
0.00748418
0.00681534
0.00704193
0.0061284
0.0053628
0.00645606
0.00745919
0.00755382
0.00801516
0.00806321
0.00796337
0.00741694
0.00703399
0.00758985
0.00767157
0.00731222
0.00729799
0.0073436
0.0077114
0.00774822
0.00696829
0.00675254
0.0065977
0.0067921
0.00624596
0.00613799
0.0064373
0.00643848
0.00633754
0.00540812
0.00568105
0.00562236
0.00649262
0.00694386
0.00694398
0.00777823
0.0066578
0.00632677
0.00679822
0.00716889
0.00681813
0.00609807
0.00635228
0.00549602
0.00471185
0.00583955
0.00683231
0.00695983
0.00738055
0.00750037
0.00738396
0.00679598
0.00642127
0.00702457
0.00716055
0.00678589
0.00677154
0.00681708
0.00714576
0.00709832
0.00629688
0.0061635
0.00600776
0.0060998
0.00554765
0.00553647
0.00588263
0.00588286
0.00574535
0.00481508
0.00507482
0.00485506
0.00573042
0.00624973
0.00624496
0.00705703
0.00597998
0.00568327
0.00618992
0.00648255
0.00599788
0.00522895
0.00550138
0.00466405
0.00391403
0.00511248
0.00607544
0.00626929
0.00662519
0.0068147
0.00670334
0.00607199
0.00571536
0.00637203
0.00656802
0.00618071
0.00614703
0.00619752
0.00647851
0.0063139
0.00551359
0.00548189
0.00531884
0.00528757
0.00474167
0.00484534
0.00524755
0.00522097
0.00505962
0.00414451
0.00435799
0.00403027
0.00487517
0.00545444
0.00547252
0.00625421
0.00524419
0.00499213
0.00551469
0.00576352
0.00512807
0.00430483
0.00455597
0.00369466
0.00307718
0.0043436
0.00523692
0.00555153
0.00582871
0.00605418
0.00596217
0.00531775
0.00497653
0.00567496
0.00594917
0.00556297
0.00546647
0.00550022
0.00571974
0.00545059
0.00467997
0.00473522
0.00456912
0.00439984
0.00389733
0.00407427
0.00452634
0.00451534
0.00437632
0.00347904
0.00358401
0.00325428
0.00402124
0.00462649
0.00470322
0.0054366
0.00448985
0.00427428
0.0048404
0.00507116
0.00426717
0.00339421
0.00354516
0.0027454
0.00235609
0.00358984
0.00434378
0.0048134
0.00508174
0.00532567
0.00518154
0.0045155
0.00419764
0.004982
0.00528462
0.00486709
0.00475513
0.00470429
0.00483883
0.0044552
0.00374286
0.00384401
0.00366569
0.00347025
0.00308396
0.00329435
0.003732
0.00378214
0.00370652
0.00285186
0.00282354
0.00265267
0.00327615
0.0039205
0.00404709
0.00465232
0.00376859
0.00356868
0.00420759
0.00442623
0.0034927
0.00261751
0.00264471
0.00201875
0.00183627
0.00295804
0.00355829
0.00415263
0.00450336
0.00470893
0.00445819
0.00374976
0.0034398
0.00431997
0.004617
0.00416062
0.00403626
0.00390149
0.00386512
0.0034358
0.00287069
0.00297606
0.00271769
0.00256374
0.00237177
0.00261547
0.00299109
0.00311602
0.00308818
0.00228879
0.00221894
0.0020937
0.00268391
0.00340162
0.00339277
0.0038985
0.00317602
0.00301561
0.00362175
0.0038024
0.00280449
0.00194406
0.00201265
0.00164377
0.00148176
0.00243649
0.00304071
0.00363657
0.0040157
0.00410072
0.00378351
0.00299483
0.00273981
0.00364009
0.00401193
0.0035983
0.00334159
0.00302607
0.00290763
0.00250874
0.00207341
0.00222623
0.00193484
0.00185929
0.00182149
0.00207313
0.00241256
0.00251129
0.00245197
0.00176445
0.00164682
0.00160363
0.00227065
0.00298732
0.00277539
0.00327843
0.00280977
0.00267018
0.00313446
0.00311376
0.00210438
0.00133419
0.00159625
0.00151568
0.00136623
0.00212159
0.00279242
0.0032718
0.00357961
0.00356627
0.00320275
0.0023922
0.00218202
0.00302416
0.00347247
0.00314187
0.00280157
0.00233073
0.00221342
0.00188973
0.00153484
0.0016972
0.00143493
0.00157816
0.00155393
0.00174918
0.00204254
0.0020402
0.0018914
0.00130524
0.00114191
0.00111903
0.00169941
0.00239561
0.00228054
0.0028152
0.00244998
0.00234346
0.00270785
0.0025122
0.00154726
0.000950278
0.00134946
0.00147218
0.00133981
0.00187781
0.00251277
0.00303698
0.00326693
0.00313452
0.00258505
0.00182883
0.00162326
0.00232262
0.00291018
0.00268849
0.00238596
0.00197317
0.00167812
0.00139786
0.00134714
0.00155301
0.00143351
0.00166521
0.00153738
0.0015791
0.00172951
0.00161448
0.00140729
0.000862852
0.000749559
0.000851375
0.00120248
0.00171279
0.00174321
0.00230964
0.00200187
0.00185933
0.00219281
0.00199702
0.00108318
0.00072556
0.00129034
0.00146575
0.00121552
0.00165375
0.00228453
0.00271957
0.00297571
0.00263322
0.00206962
0.00136037
0.000963387
0.00139352
0.00219554
0.00231922
0.00233183
0.00191765
0.00140379
0.00102678
0.00112874
0.00167478
0.00167842
0.00167443
0.00154822
0.00143993
0.00138472
0.00112125
0.000972327
0.000571715
0.000527062
0.000708908
0.000785915
0.00103715
0.0012242
0.00203756
0.00204925
0.00184213
0.00179038
0.0015162
0.000913008
0.000711364
0.0012004
0.00149945
0.00125453
0.00161793
0.00209622
0.00207782
0.0021747
0.00187735
0.00143272
0.0009678
0.000563346
0.000871908
0.00174728
0.00207409
0.0022868
0.00183021
0.00128851
0.000858825
0.000764116
0.00115679
0.00133096
0.00133695
0.00140749
0.00127306
0.00104959
0.000651636
0.00045654
0.000205893
0.00047982
0.000859177
0.000663383
0.000950137
0.00147436
0.00225875
0.0023174
0.00200155
0.00172356
0.00146865
0.00125519
0.000910683
0.000922944
0.00134409
0.00139774
0.00157722
0.00168722
0.00144887
0.00139713
0.00123479
0.000971305
0.000538669
0.000359336
0.000740614
0.00149138
0.00156884
0.00153126
0.0011293
0.00101999
0.00100626
0.000964614
0.00082859
0.000996476
0.00120573
0.0013514
0.00122338
0.000943224
0.000452489
0.000265791
0.000330465
0.000812554
0.000973677
0.000622189
0.00118908
0.00175519
0.00214847
0.00205503
0.00197609
0.00188053
0.0014169
0.00105033
0.000682431
0.000630917
0.00121132
0.00151211
0.00152364
0.00148998
0.00147951
0.00142729
0.00122205
0.00095864
0.000522498
0.00050075
0.000741489
0.00126656
0.00132802
0.00132594
0.00127334
0.00125631
0.00140362
0.00115185
0.000803487
0.000850764
0.00110782
0.00135513
0.00140074
0.00113553
0.000755751
0.000757044
0.000966824
0.00114043
0.000878488
0.000556775
0.00108796
0.00168145
0.00218383
0.0020459
0.00184002
0.00172086
0.00127136
0.000799581
0.000573414
0.000743614
0.00107519
0.001155
0.00133976
0.00165573
0.00192419
0.00159463
0.0011382
0.000835183
0.000660543
0.00075599
0.00101294
0.00111404
0.00111102
0.00126342
0.00143552
0.00137379
0.00119996
0.000888793
0.00068282
0.000850659
0.00119
0.00149429
0.00175206
0.00168963
0.00141956
0.00122002
0.00105349
0.00100356
0.00109515
0.000616833
0.00103249
0.00150426
0.00208617
0.00230084
0.00229479
0.00203344
0.00156831
0.00104739
0.000658922
0.000556399
0.000652298
0.00070016
0.0011016
0.00155224
0.00185389
0.0016062
0.00120682
0.00107093
0.00107846
0.00132687
0.00158477
0.00164925
0.00140567
0.00150901
0.00154496
0.00106057
0.00058938
0.000550509
0.000850164
0.00106038
0.00126022
0.00133421
0.00151471
0.00161986
0.00130721
0.000973961
0.0010938
0.00135644
0.00116772
0.000769206
0.00111182
0.00142916
0.00176773
0.00223244
0.00252453
0.00208217
0.00137522
0.00106586
0.0010243
0.000887274
0.000740124
0.000623156
0.000850589
0.00118896
0.00149465
0.00148032
0.00120333
0.000991068
0.00101155
0.00127559
0.00164709
0.00191142
0.00189013
0.00188225
0.00177396
0.00110834
0.000347502
0.000290451
0.000597841
0.000677014
0.000879185
0.00134407
0.0014337
0.00127448
0.00111014
0.00115908
0.00153176
0.00164839
0.00148307
0.00138634
0.00132009
0.00131644
0.00165789
0.00214793
0.002384
0.00181163
0.00143743
0.00142232
0.00127906
0.00094227
0.000736274
0.000797522
0.00118315
0.00126768
0.00107953
0.00100386
0.000903999
0.000548349
0.000399517
0.000723739
0.0012763
0.00194238
0.00232397
0.00226645
0.00194494
0.00141601
0.000834293
0.000581992
0.000766479
0.0008085
0.00071588
0.00105774
0.00115683
0.000930928
0.000942737
0.00136269
0.0016118
0.00152058
0.00263622
0.00233694
0.00159122
0.00110503
0.00166712
0.00230501
0.00207585
0.00141701
0.00135383
0.00165359
0.00132773
0.000788673
0.000840566
0.00110999
0.00116437
0.000990716
0.000959326
0.00121482
0.00137677
0.000636814
7.11898e-05
0.000238055
0.000825544
0.00150422
0.00221389
0.00230207
0.00181644
0.00131328
0.00104536
0.000889139
0.00104603
0.00140736
0.00157588
0.00164463
0.00156975
0.00148796
0.0016456
0.00193247
0.0019477
0.00219931
0.00176335
0.00127031
0.000715129
0.000557885
0.000898208
0.00137956
0.00148081
0.00137445
0.00143242
0.00145423
0.00109268
0.000647907
0.000621019
0.000753295
0.000779577
0.000935928
0.00126634
0.00143613
0.00115441
0.000148257
-0.000511293
-0.000244696
0.000242024
0.000556781
0.00102636
0.00106112
0.000871083
0.000701853
0.000664641
0.000560567
0.000453639
0.000632549
0.00104537
0.00134983
0.00141226
0.00144823
0.00135347
0.00118647
0.00114675
0.00154374
0.00149626
0.00136165
0.00117601
0.00090351
0.000786697
0.00100998
0.00131098
0.00138016
0.00135075
0.00130383
0.00137207
0.0011481
0.000765367
0.000654567
0.000764977
0.000922459
0.000771799
0.000567351
0.000517146
0.000229378
-2.23806e-05
-0.000149485
-3.72799e-05
0.000350169
0.00067987
0.00084039
0.000752813
0.000479866
0.000500007
0.000516187
0.00036146
0.000465445
0.00109574
0.00142212
0.00153471
0.00160059
0.00126552
0.000965321
0.00102889
0.00135568
0.00210497
0.00186877
0.00188862
0.0016153
0.00125982
0.00122825
0.00121681
0.000968931
0.000804245
0.000688125
0.000589568
0.000448048
0.000458175
0.000161125
0.000216768
0.000581449
0.000623685
0.000482862
0.000373685
0.000256657
7.79084e-05
7.96821e-06
8.83421e-05
0.000322444
0.000551229
0.000629352
0.000331598
0.000130476
-4.76481e-05
-0.000331266
-0.000539136
-0.000184065
0.000239253
0.000436585
0.000943549
0.00131127
0.00141586
0.00142293
0.0013531
0.00180414
0.00144113
0.00114326
0.000792809
0.00101976
0.00136509
0.000996943
0.000594345
0.000658125
0.000952556
0.00112412
0.000764636
7.89531e-05
-0.000212184
-0.000267156
0.000197206
0.000707135
0.000397509
0.000248737
0.000331056
0.000271693
0.000238335
0.000663889
0.00148253
0.00182397
0.00169403
0.0011176
0.00030734
0.000149506
0.000166182
-0.000346755
-0.000632748
0.000141845
0.00113227
0.00174108
0.0017775
0.00138361
0.00105033
0.000773521
0.000895515
0.00131557
0.0004877
0.000359823
0.000150422
-0.000154245
-0.000487721
-0.000900571
-0.00106616
-0.000832418
-0.000377911
-7.10979e-05
-0.000150321
-0.000420509
-0.000223484
0.000280875
0.000807212
0.0012402
0.00105174
0.000743672
0.000685497
0.000689745
0.000749757
0.00102077
0.0014208
0.0015673
0.00196166
0.00172532
0.000939385
0.000387848
0.00032121
0.000330663
0.00029734
0.000509564
0.00094615
0.00167715
0.00180647
0.00134292
0.000987064
0.000616901
0.000708388
0.000814454
0.00049947
0.000683966
0.000587585
0.000402646
0.000192422
-0.000322003
-0.000400776
0.000269963
0.000479828
0.000107347
-0.000195638
-1.74039e-05
-4.4222e-05
-0.000144522
0.000434779
0.00077066
0.000492852
0.000423796
0.000374519
0.000169907
0.000183959
0.000317863
0.00028939
0.000336538
0.000338049
-0.000339854
-0.000369128
-0.000118997
1.90874e-05
-0.00019246
-0.000510946
-0.000562745
-0.0001435
0.000602966
0.000660992
0.00083449
0.000522126
-0.000102317
0.000136099
0.000473408
-0.00047198
-0.000896059
-0.00161134
-0.00170221
-0.00143848
-0.00161233
-0.00201243
-0.00165298
-0.00137341
-0.00205972
-0.00210053
-0.00165814
-0.00183447
-0.00194038
-0.00144907
-0.0015004
-0.00141104
-0.000472063
-0.000449769
-0.00116844
-0.0018122
-0.00190452
-0.00165393
-0.0016061
-0.00236324
-0.00294159
-0.002569
-0.00208174
-0.00225077
-0.00284049
-0.00201941
-0.000989074
-0.000500579
-0.000123699
-0.000271285
-0.000911043
-0.00217274
-0.00223631
-0.00100012
-0.000425114
-0.000736114
-0.00130484
-0.00199169
-0.0020644
-0.00188119
-0.00223441
-0.00192006
-0.000904969
-0.00103824
-0.00139338
-0.00088284
-0.000447498
-0.000267329
0.000599307
0.000567069
-0.000569807
-0.000941025
-0.000465453
-0.000189415
-0.000617129
-0.00117051
-0.000879169
-0.000725794
-0.000381172
-0.000320987
-0.000523646
-0.000397384
-0.000922799
-0.00178838
-0.00200392
-0.000965015
8.68617e-06
0.000274073
-0.000757211
-0.00178383
-0.00185533
-0.00208434
-0.00131951
-0.000440763
-0.000314505
-0.00359753
-0.00405452
-0.00435158
-0.00492635
-0.00514856
-0.00453665
-0.00267535
-0.00132355
-0.00133062
-0.00129378
-0.000978718
-0.00152217
-0.00167921
-0.00150157
-0.00234171
-0.00293055
-0.0029595
-0.00291193
-0.00249053
-0.00274853
-0.00282923
-0.0019943
-0.00174321
-0.00204448
-0.00245044
-0.00243191
-0.00265457
-0.00311097
-0.00307766
-0.00248031
-0.00305307
-0.00321983
-0.00293003
-0.00379543
-0.0034799
-0.00255194
-0.00280054
-0.00344793
-0.0034477
-0.00335156
0.000578591
-0.000905029
-0.00129039
-0.000658211
-0.000320052
0.000776973
0.001155
0.000290998
-0.000538948
-0.000619841
-0.000607525
-0.00110239
0.000700334
0.00161089
0.000471882
0.000930655
0.000915076
-0.000297173
-0.00192621
-0.00159633
-0.000164105
0.00129416
0.00074224
0.00142836
0.00144823
0.000267401
0.000132116
-6.40184e-05
-0.000223774
0.000603708
0.000368713
0.00112488
0.000709457
-0.000608233
0.00142775