/*--------------------------------*- C++ -*----------------------------------*\
  =========                 |
  \\      /  F ield         | OpenFOAM: The Open Source CFD Toolbox
   \\    /   O peration     | Website:  https://openfoam.org
    \\  /    A nd           | Version:  10
     \\/     M anipulation  |
\*---------------------------------------------------------------------------*/
FoamFile
{
    format      ascii;
    class       volVectorField;
    location    "37.5";
    object      U_0;
}
// * * * * * * * * * * * * * * * * * * * * * * * * * * * * * * * * * * * * * //

dimensions      [0 1 -1 0 0 0 0];

internalField   nonuniform List<vector> 
102400
(
(0.702459 0.00134572 0.370761)
(0.650936 0.00125745 0.395929)
(0.654391 0.00182455 0.37985)
(0.667807 0.00302003 0.403288)
(0.525673 0.000639219 0.418718)
(0.625381 0.00223505 0.365066)
(0.662557 0.00295963 0.382491)
(0.561809 -0.000281581 0.39419)
(0.640103 1.94879e-05 0.346251)
(0.625609 0.00176685 0.36852)
(0.681345 0.0035012 0.442793)
(0.543185 0.00316771 0.386059)
(0.620414 0.00202374 0.405123)
(0.6432 0.00101357 0.383731)
(0.587639 0.00160302 0.348148)
(0.657519 0.00192323 0.342086)
(0.664181 0.00239855 0.35876)
(0.655341 0.00106295 0.388254)
(0.631443 0.00207672 0.404041)
(0.634453 0.0028464 0.354396)
(0.632 0.00124011 0.335975)
(0.69958 0.00238865 0.409584)
(0.662323 0.00148757 0.431416)
(0.59543 0.00192307 0.400112)
(0.512767 0.00280245 0.350922)
(0.623445 0.00208049 0.395369)
(0.704626 0.00273222 0.403465)
(0.627773 0.00157592 0.375361)
(0.605826 0.00226559 0.391096)
(0.581957 0.00259944 0.3729)
(0.683276 0.00159386 0.350837)
(0.726561 0.00134917 0.342207)
(0.560118 0.0026512 0.370145)
(0.605303 0.000343279 0.336086)
(0.642796 0.00222488 0.380427)
(0.589755 0.00311907 0.40266)
(0.623729 0.00110479 0.404602)
(0.635319 0.00163975 0.4036)
(0.634276 0.00197427 0.40607)
(0.673846 0.00141006 0.401561)
(0.763887 0.00351155 0.317787)
(0.660228 0.00605778 0.376229)
(0.667396 0.00344303 0.327317)
(0.704811 0.0145585 0.370194)
(0.362816 -0.00112732 0.400905)
(0.576063 -0.00867005 0.298832)
(0.665224 0.013889 0.333838)
(0.416792 -8.74106e-05 0.356362)
(0.686245 -0.00573419 0.248457)
(0.614779 -0.000878315 0.268633)
(0.708583 0.0126027 0.394723)
(0.397312 0.00357626 0.337085)
(0.595804 -0.0113221 0.378842)
(0.573321 0.000418327 0.325462)
(0.536064 -0.00358638 0.256591)
(0.713086 -0.00229834 0.236982)
(0.669396 0.00776442 0.265461)
(0.720378 0.00333873 0.305047)
(0.606487 0.000238805 0.397176)
(0.596347 0.00708667 0.26983)
(0.597531 0.00300796 0.159921)
(0.803033 0.00601632 0.3304)
(0.658148 0.0098156 0.4051)
(0.447155 0.0157786 0.348276)
(0.244567 0.00543841 0.242044)
(0.583296 -0.0122882 0.318257)
(0.772678 0.00667567 0.350231)
(0.543246 0.00543527 0.323873)
(0.531923 0.00694406 0.334137)
(0.522916 -0.00153525 0.286886)
(0.729324 -0.0108434 0.257353)
(0.821098 0.0166164 0.244645)
(0.274087 0.00880729 0.372151)
(0.500592 -0.0123172 0.261121)
(0.598286 0.0129422 0.343207)
(0.5624 0.00475943 0.330357)
(0.621502 -0.00869744 0.350947)
(0.606893 -5.20232e-05 0.330334)
(0.61814 -0.0019341 0.341546)
(0.697229 -0.00671624 0.340772)
(0.790054 -0.000334098 0.276868)
(0.652124 0.00753974 0.356916)
(0.708514 -0.000352705 0.295604)
(0.735829 0.0251838 0.328603)
(0.331692 -0.010086 0.383594)
(0.538563 -0.0308499 0.272025)
(0.588973 0.0242455 0.269008)
(0.356262 -0.0184867 0.3292)
(0.85376 -0.0218258 0.178552)
(0.724115 -0.00784816 0.193748)
(0.709367 0.0204822 0.34252)
(0.422505 -0.00666237 0.340066)
(0.558507 -0.0385244 0.396357)
(0.52046 -0.00639198 0.284454)
(0.517966 -0.0297513 0.212159)
(0.804585 -0.0205111 0.198401)
(0.629384 0.00845844 0.186389)
(0.813952 0.00166491 0.244993)
(0.629986 -0.00978214 0.411053)
(0.597451 0.00631141 0.244566)
(0.589602 -0.00454844 0.0322413)
(0.887086 0.00607484 0.235449)
(0.629236 0.0209353 0.362957)
(0.349768 0.0280897 0.332897)
(0.124558 -0.00656854 0.206793)
(0.543447 -0.0484254 0.254032)
(0.742856 0.00644429 0.300046)
(0.427055 0.00278872 0.302524)
(0.528145 0.00660998 0.268949)
(0.592611 -0.0239618 0.273877)
(0.739514 -0.034458 0.216267)
(0.744432 0.0385696 0.178825)
(0.0803299 -0.0140334 0.399833)
(0.467331 -0.0437391 0.238673)
(0.564614 0.0234839 0.292345)
(0.592717 -0.000820528 0.262289)
(0.665593 -0.0277759 0.302127)
(0.616536 -0.0100963 0.259971)
(0.636447 -0.0200475 0.319056)
(0.727897 -0.0300466 0.311928)
(0.774216 -0.0033384 0.242618)
(0.618944 0.0129465 0.328754)
(0.744453 -0.00260458 0.262599)
(0.733139 0.0385116 0.295702)
(0.447232 -0.0100031 0.358612)
(0.506177 -0.0369805 0.239143)
(0.429 0.0440632 0.217061)
(0.361902 -0.0499364 0.243339)
(0.947702 -0.0512051 0.0751565)
(0.896123 -0.0133711 0.121759)
(0.710501 0.0300406 0.310084)
(0.571911 -0.00213285 0.346877)
(0.480465 -0.0553266 0.399302)
(0.555485 -0.0156354 0.267209)
(0.466855 -0.0480684 0.180683)
(0.811923 -0.0309569 0.171349)
(0.559494 0.0127841 0.122335)
(0.838867 -0.00816716 0.220049)
(0.676461 -0.0131936 0.398092)
(0.639599 0.00448154 0.269716)
(0.564565 -0.0229736 0.024332)
(0.925025 0.00450032 0.178352)
(0.623825 0.0361371 0.33254)
(0.373057 0.0444714 0.34818)
(0.299675 -0.0119665 0.232835)
(0.481172 -0.0735185 0.197881)
(0.574914 0.0110572 0.26751)
(0.376652 0.0039952 0.259172)
(0.578925 0.0105826 0.190855)
(0.760467 -0.0419292 0.237291)
(0.726474 -0.045982 0.19542)
(0.558572 0.0620314 0.151167)
(0.462378 -0.0383212 0.301199)
(0.482063 -0.0690488 0.251481)
(0.546174 0.0391706 0.244129)
(0.625677 -0.00309654 0.199512)
(0.726602 -0.0439167 0.245179)
(0.689182 -0.0217988 0.208152)
(0.675591 -0.0371662 0.31568)
(0.739165 -0.053623 0.286607)
(0.708604 -0.00882434 0.205868)
(0.587052 0.0179256 0.282103)
(0.775499 -0.00562761 0.228789)
(0.641543 0.0480631 0.262101)
(0.629999 -0.0104797 0.322504)
(0.502506 -0.0381405 0.22041)
(0.430697 0.0457347 0.230223)
(0.445127 -0.0514517 0.20128)
(0.855256 -0.0695674 -0.0170063)
(0.980505 -0.0234656 0.0387054)
(0.739647 0.0371921 0.278808)
(0.710764 0.0112324 0.347216)
(0.495523 -0.0706198 0.370279)
(0.559476 -0.028958 0.253441)
(0.502408 -0.0585495 0.19318)
(0.774994 -0.0319525 0.165312)
(0.562981 0.0203002 0.0845665)
(0.76392 -0.0277962 0.199299)
(0.692275 -0.0202434 0.368243)
(0.682767 0.00703852 0.277614)
(0.42137 -0.0442911 0.0674706)
(0.895493 -0.00209847 0.168666)
(0.622498 0.0537695 0.309394)
(0.44162 0.0600667 0.359731)
(0.550836 -0.00673771 0.259603)
(0.451969 -0.0874374 0.176381)
(0.412282 0.0131747 0.216999)
(0.384891 0.0070502 0.210219)
(0.578431 0.0135946 0.138605)
(0.978552 -0.0530319 0.155738)
(0.815587 -0.0480299 0.177756)
(0.305037 0.0728963 0.125158)
(0.816714 -0.0414673 0.22445)
(0.546597 -0.0780314 0.264996)
(0.554409 0.0565684 0.198305)
(0.69526 -0.00216083 0.143341)
(0.762035 -0.0653249 0.20024)
(0.829058 -0.0407302 0.182209)
(0.748814 -0.0473914 0.297473)
(0.716094 -0.0746779 0.268557)
(0.612561 -0.0147752 0.167029)
(0.577171 0.0194173 0.22554)
(0.80073 -0.00195264 0.203896)
(0.435397 0.0598565 0.223262)
(0.700329 -0.0315615 0.273755)
(0.562718 -0.0364685 0.247557)
(0.608008 0.0242565 0.186005)
(0.532026 -0.0426389 0.203857)
(0.782411 -0.064412 -0.00755351)
(0.969988 -0.0323852 -0.0279845)
(0.790358 0.0488398 0.240296)
(0.822451 0.0249659 0.33914)
(0.605509 -0.0772627 0.321006)
(0.547988 -0.0409059 0.237372)
(0.604946 -0.0690879 0.205655)
(0.729443 -0.0301578 0.17355)
(0.657117 0.028978 0.0712633)
(0.669926 -0.0381611 0.170038)
(0.681899 -0.0266489 0.334044)
(0.714536 0.0208751 0.255721)
(0.32102 -0.0597945 0.0863699)
(0.831038 -0.0181012 0.171146)
(0.661465 0.0702144 0.30084)
(0.479868 0.0711629 0.354568)
(0.63629 0.00279249 0.234277)
(0.450595 -0.0896434 0.183016)
(0.359562 0.0143537 0.163361)
(0.40778 0.00927591 0.17569)
(0.505725 0.00993832 0.11343)
(1.08671 -0.0546973 0.0913396)
(0.925649 -0.0376155 0.170468)
(0.269907 0.0763257 0.0713829)
(0.787973 -0.05701 0.195852)
(0.507484 -0.0802903 0.2691)
(0.531315 0.0729635 0.176723)
(0.751373 0.00367206 0.097034)
(0.748686 -0.0815713 0.163425)
(0.950602 -0.0620886 0.178613)
(0.83188 -0.0471171 0.261169)
(0.686935 -0.0865346 0.271885)
(0.570946 -0.0223027 0.142941)
(0.60327 0.0187057 0.168799)
(0.801039 0.00806978 0.186518)
(0.242697 0.0646528 0.183148)
(0.704862 -0.0593472 0.251764)
(0.702382 -0.0407373 0.274643)
(0.617708 0.0145877 0.0982119)
(0.619709 -0.0337687 0.175979)
(0.79142 -0.0514968 0.0319042)
(0.98443 -0.0325002 -0.0833608)
(0.833227 0.0550178 0.201384)
(0.917799 0.0362466 0.32593)
(0.727195 -0.0743238 0.2646)
(0.584879 -0.0501842 0.228317)
(0.717711 -0.0725613 0.199244)
(0.684449 -0.02688 0.180208)
(0.737779 0.0391585 0.0703794)
(0.590633 -0.0472098 0.141339)
(0.695208 -0.0371002 0.307755)
(0.740621 0.0411548 0.243011)
(0.41518 -0.0856463 0.0842984)
(0.786631 -0.0458965 0.149145)
(0.7301 0.0723951 0.284622)
(0.4821 0.0751841 0.328622)
(0.670047 0.0148552 0.185556)
(0.516673 -0.0798553 0.173569)
(0.40228 0.0152416 0.152239)
(0.475186 0.0127661 0.154061)
(0.490683 -0.00569829 0.0934735)
(1.02559 -0.0621637 0.0847596)
(0.971546 -0.0327651 0.17118)
(0.457193 0.0845677 0.011992)
(0.808593 -0.0580428 0.166022)
(0.468351 -0.079726 0.286536)
(0.479707 0.0864757 0.163845)
(0.766166 0.00286931 0.0423513)
(0.784751 -0.0892624 0.111757)
(0.980511 -0.0825721 0.180659)
(0.863438 -0.0424451 0.225184)
(0.719387 -0.0934145 0.262351)
(0.59626 -0.0314878 0.134807)
(0.688265 0.0167291 0.134332)
(0.760328 0.025408 0.169245)
(0.179058 0.0786843 0.156384)
(0.756315 -0.0729703 0.27352)
(0.878059 -0.0517203 0.231504)
(0.600256 0.0321512 0.118353)
(0.69376 -0.0170215 0.230417)
(0.768285 -0.0390508 0.095272)
(1.0502 -0.0143094 -0.147685)
(0.876582 0.0637233 0.134623)
(0.937449 0.0423723 0.271168)
(0.801615 -0.0731738 0.197003)
(0.605886 -0.0582699 0.224996)
(0.833071 -0.0722044 0.192123)
(0.684759 -0.021149 0.182929)
(0.766704 0.0482027 0.0612878)
(0.607486 -0.052733 0.10782)
(0.679318 -0.0522313 0.289057)
(0.781271 0.0619045 0.239413)
(0.519199 -0.0843163 0.0794212)
(0.812999 -0.0758802 0.0928737)
(0.758963 0.0935423 0.281454)
(0.488313 0.0952591 0.310114)
(0.707406 0.0274115 0.160242)
(0.619495 -0.0592779 0.152676)
(0.418661 0.0148192 0.167281)
(0.58146 0.0149018 0.150636)
(0.570799 -0.00692915 0.0919029)
(0.928651 -0.0676057 0.108633)
(1.01887 -0.0358035 0.169102)
(0.61636 0.0963228 -0.0269894)
(0.861692 -0.0421048 0.14108)
(0.507958 -0.0690029 0.312473)
(0.52893 0.0965529 0.118433)
(0.775406 -0.00843872 -0.0293596)
(0.848048 -0.0973554 0.0528102)
(0.96954 -0.09464 0.171801)
(0.827205 -0.0374842 0.199987)
(0.822084 -0.101789 0.213803)
(0.624583 -0.0477576 0.126859)
(0.808766 0.0176829 0.116262)
(0.68385 0.0467143 0.167132)
(0.223238 0.0974441 0.153275)
(0.657622 -0.107399 0.262258)
(1.03084 -0.061099 0.199263)
(0.585333 0.0493195 0.153806)
(0.687901 -0.00500598 0.248059)
(0.75089 -0.0210475 0.119551)
(1.05083 -0.00813066 -0.214993)
(1.01411 0.0759367 -0.00904793)
(0.956225 0.0473088 0.156499)
(0.825775 -0.070384 0.125072)
(0.618815 -0.0701524 0.206304)
(0.859341 -0.0819989 0.176397)
(0.7146 -0.00765075 0.168661)
(0.762091 0.05786 0.0338597)
(0.745743 -0.044538 0.0642252)
(0.625285 -0.0536346 0.272961)
(0.828038 0.06789 0.21247)
(0.751167 -0.0455922 0.122023)
(0.813512 -0.0933182 0.0218485)
(0.894969 0.0685691 0.249052)
(0.613473 0.0935673 0.276392)
(0.747725 0.0368487 0.156765)
(0.673827 -0.0338926 0.147976)
(0.340773 0.0167177 0.176756)
(0.607197 0.00623399 0.14601)
(0.646278 0.00795235 0.0883622)
(0.879448 -0.0572959 0.118742)
(1.05804 -0.0462557 0.160916)
(0.727086 0.107349 -0.0397423)
(0.812318 -0.0324975 0.138903)
(0.535474 -0.0599364 0.315319)
(0.56746 0.0948454 0.0712429)
(0.805473 -0.0230191 -0.0814967)
(0.880314 -0.101992 0.00881664)
(0.970786 -0.0871889 0.137515)
(0.758907 -0.0369579 0.176503)
(0.888557 -0.115481 0.160898)
(0.631926 -0.0753714 0.118587)
(0.811288 0.0189277 0.130419)
(0.607921 0.0598886 0.181469)
(0.335796 0.119669 0.0900513)
(0.594992 -0.114096 0.218475)
(0.973997 -0.0724735 0.204238)
(0.706771 0.0788827 0.124196)
(0.633385 -0.000190239 0.245891)
(0.796659 0.00609384 0.122946)
(1.05078 -0.0196467 -0.215282)
(1.03259 0.0533148 -0.0470218)
(0.878229 0.0495507 0.121853)
(0.829616 -0.0579737 0.0727575)
(0.663565 -0.07978 0.191237)
(0.835149 -0.0837625 0.160453)
(0.741375 0.00547556 0.143462)
(0.747316 0.0540092 0.0332463)
(0.863195 -0.0362289 0.0437594)
(0.618636 -0.0411584 0.250098)
(0.747839 0.0744921 0.168761)
(0.993934 -0.0162089 0.0315274)
(0.712502 -0.0850881 0.0101298)
(0.800903 0.0791379 0.183179)
(0.631012 0.107609 0.210239)
(0.727246 0.0563755 0.172608)
(0.735517 0.00186839 0.159869)
(0.324745 0.0107705 0.17085)
(0.602911 -0.0262259 0.150939)
(0.679349 0.0174167 0.0808176)
(0.828803 -0.0505962 0.111566)
(1.02642 -0.061008 0.140222)
(0.800714 0.120042 -0.0128114)
(0.763752 -0.0132189 0.13678)
(0.5138 -0.0515415 0.312621)
(0.534782 0.094816 0.0363674)
(0.855223 -0.0358062 -0.0934972)
(0.905221 -0.101428 0.0123046)
(0.959019 -0.0613536 0.0923473)
(0.746946 -0.0481797 0.154008)
(0.871878 -0.127983 0.140633)
(0.606422 -0.0861423 0.127616)
(0.641651 0.0252488 0.129731)
(0.552684 0.0802263 0.145746)
(0.52046 0.148505 -0.000165761)
(0.634341 -0.107509 0.196021)
(0.815629 -0.0760966 0.21351)
(0.814084 0.110113 0.0979921)
(0.605804 -0.02779 0.230929)
(0.773591 0.000342834 0.137773)
(1.10741 -0.00490219 -0.186802)
(0.820626 0.0417757 0.0112793)
(0.748693 0.0230814 0.126828)
(0.856402 -0.0588503 0.0316642)
(0.716815 -0.088064 0.173161)
(0.808729 -0.0898011 0.141733)
(0.814079 0.0297092 0.0579025)
(0.744924 0.0545844 0.0455762)
(0.93099 -0.0221717 0.019993)
(0.693687 -0.0112456 0.197793)
(0.659701 0.0598267 0.198063)
(0.915513 0.0248724 -0.127537)
(0.655523 -0.0808236 0.0257532)
(0.584997 0.052653 0.217629)
(0.621425 0.106547 0.195868)
(0.700578 0.0648976 0.199494)
(0.828324 0.0294218 0.169605)
(0.520179 0.00761009 0.144165)
(0.636936 -0.0459479 0.152463)
(0.708198 0.0179242 0.0896524)
(0.819362 -0.0425524 0.107881)
(1.00938 -0.0598549 0.131779)
(0.697469 0.11523 0.0234759)
(0.725336 0.00791894 0.133281)
(0.483057 -0.0489372 0.319909)
(0.557354 0.0901612 0.025659)
(0.862327 -0.040412 -0.0608706)
(0.920351 -0.0963968 0.0487908)
(0.903692 -0.0316621 0.0620658)
(0.835165 -0.043411 0.117303)
(0.926775 -0.116219 0.11407)
(0.620375 -0.0849497 0.1188)
(0.470144 0.0441822 0.149403)
(0.509019 0.0847298 0.157468)
(0.780262 0.155934 -0.0501434)
(0.655209 -0.0736924 0.205798)
(0.674795 -0.0949629 0.235296)
(0.894876 0.129973 0.0892918)
(0.728073 -0.0334271 0.183524)
(0.620447 -0.0101261 0.206362)
(1.12653 0.0285525 -0.145051)
(0.889184 0.045195 -0.0592504)
(0.812875 0.0129546 0.0738207)
(0.930194 -0.0528879 0.00729743)
(0.792442 -0.0960288 0.152041)
(0.773918 -0.0805562 0.148513)
(0.893464 0.0708609 0.0257926)
(0.826533 0.0434278 0.0340077)
(0.896943 -0.0175425 0.0516157)
(0.715128 0.0174394 0.189364)
(0.660445 0.0595772 0.220629)
(0.837782 0.0149842 -0.119572)
(0.718593 -0.0399164 -0.0291407)
(0.512973 -0.000414763 0.23925)
(0.662923 0.0568922 0.189869)
(0.70382 0.076737 0.205553)
(0.887103 0.0719426 0.172445)
(0.768698 0.0205779 0.111918)
(0.704782 -0.0434746 0.139461)
(0.763862 0.0123289 0.0775672)
(0.882618 -0.0385397 0.0844766)
(0.994656 -0.051415 0.137347)
(0.68375 0.111751 0.0341622)
(0.756657 0.0346389 0.10728)
(0.530826 -0.0467182 0.280296)
(0.636586 0.0641089 0.0415445)
(0.813484 -0.0397702 -0.00329914)
(0.942225 -0.092426 0.0658115)
(0.884742 -0.00506132 0.0445622)
(0.860809 -0.0259176 0.069391)
(0.972081 -0.0882901 0.06156)
(0.659168 -0.0675115 0.0644229)
(0.434009 0.0527864 0.225975)
(0.563122 0.0498168 0.14492)
(0.866576 0.131231 -0.089234)
(0.655488 -0.0454691 0.209835)
(0.64086 -0.120899 0.228074)
(0.893648 0.145764 0.0820926)
(0.841346 -0.0267982 0.150152)
(0.566373 -0.0416207 0.251772)
(1.11919 0.0465119 -0.0843136)
(1.10272 0.0416713 -0.102457)
(0.909087 -0.00778626 0.0867839)
(0.971766 -0.0568453 0.0100551)
(0.909204 -0.0859472 0.119003)
(0.750116 -0.0915248 0.203726)
(0.942746 0.0717135 -0.0104682)
(0.966436 0.0592421 -0.0379113)
(0.882154 -0.00503997 0.0845191)
(0.745463 0.0190703 0.156778)
(0.699343 0.0583856 0.198194)
(0.840947 0.0390037 -0.0502148)
(0.909948 0.00844879 -0.0898626)
(0.614033 -0.0235291 0.139013)
(0.711819 0.0208519 0.131039)
(0.660501 0.0731514 0.188023)
(0.821501 0.0657269 0.18011)
(0.904357 0.00814892 0.103729)
(0.794959 -0.0524719 0.112647)
(0.799742 -0.0149268 0.0501213)
(0.879433 -0.0335821 0.0704528)
(0.971271 -0.0450975 0.143316)
(0.751312 0.0862516 0.00865141)
(0.773791 0.0554513 0.0778374)
(0.612249 -0.0345745 0.239961)
(0.690455 0.0626853 0.0426563)
(0.799752 -0.0152173 0.0438898)
(0.933829 -0.0836903 0.0803585)
(0.923994 0.00979151 0.0317036)
(0.829298 0.00376339 0.0516036)
(0.971214 -0.0428268 0.0474831)
(0.774929 -0.0544396 0.00735317)
(0.422012 0.0571187 0.228569)
(0.670117 0.00348015 0.104733)
(0.784359 0.100024 -0.024185)
(0.679377 -0.0136434 0.187126)
(0.603433 -0.139949 0.193712)
(0.845207 0.134905 0.054073)
(0.910656 -0.00410606 0.0776085)
(0.585059 -0.0534452 0.235654)
(1.01747 0.0618656 -0.0131038)
(1.16335 0.0473928 -0.080484)
(1.05968 0.010692 0.092666)
(1.02598 -0.0212217 -0.00272898)
(1.04089 -0.0731179 0.0345528)
(0.818753 -0.0776256 0.213008)
(0.876903 0.0961301 0.00657348)
(1.10142 0.0675672 -0.10411)
(0.840092 0.000317301 0.133931)
(0.755866 0.0661695 0.128548)
(0.86734 0.0808542 0.136864)
(0.773896 0.0234456 0.0432125)
(0.999778 0.0461952 -0.108327)
(0.937486 0.0114633 0.0312003)
(0.818406 -0.00812096 0.0657179)
(0.636014 0.090262 0.140323)
(0.844627 0.10052 0.124273)
(0.966471 0.0107421 0.0676884)
(0.785138 -0.0234047 0.0874271)
(0.866027 0.00775074 0.0168002)
(0.738297 -0.0388044 0.0985233)
(0.958778 -0.0472754 0.111787)
(0.814538 0.0868408 0.00190969)
(0.690979 0.0558449 0.0718621)
(0.626945 -0.036812 0.22292)
(0.678161 0.0582235 0.111312)
(0.833781 0.0117594 0.0648631)
(0.945487 -0.0686057 0.103567)
(0.929712 0.0223027 0.0146869)
(0.792074 0.0203884 0.0265634)
(0.993639 -0.0291414 0.0513082)
(0.88449 0.0137316 -0.00962772)
(0.333801 0.0570154 0.192442)
(0.750723 -0.0372452 0.074789)
(0.672636 0.0946847 0.0696758)
(0.76761 0.0154345 0.169324)
(0.668526 -0.120036 0.156429)
(0.834847 0.0967775 0.0440216)
(0.870859 0.00786178 0.0583274)
(0.609078 -0.0405518 0.230829)
(0.88564 0.0441594 0.0519578)
(1.11444 0.0195833 -0.0298221)
(1.09018 0.0126361 0.123498)
(1.01646 0.00583339 0.0421326)
(1.08923 -0.0367202 -0.015817)
(0.824039 -0.100421 0.151621)
(0.844696 0.0223003 -0.00979579)
(1.30122 0.0874495 -0.178668)
(0.766723 0.0143567 0.146467)
(0.761842 0.0250372 0.152714)
(1.02371 0.0603456 0.0674118)
(0.814416 0.0523559 0.0552071)
(1.00609 0.0453816 -0.0918453)
(1.06423 0.0207099 0.0145716)
(0.950803 0.00295068 0.106432)
(0.641891 0.0790227 0.0616175)
(0.950491 0.0801059 0.0298743)
(1.05983 0.00663602 0.0399481)
(0.675979 -0.0537485 0.103881)
(0.905999 0.012279 -0.00986578)
(0.766718 0.00959895 0.0640023)
(0.865416 -0.0471121 0.0973054)
(0.872456 0.0729281 -0.00683301)
(0.820186 0.0936884 0.0470108)
(0.645862 -0.000640294 0.119401)
(0.748141 0.0753862 0.0905085)
(0.948227 0.027567 0.0259357)
(0.970305 -0.061955 0.0906784)
(0.937033 0.0231229 0.00417907)
(0.824299 0.0278903 -0.00428077)
(1.03267 0.0230599 0.00584971)
(0.930144 0.0254038 -0.00709555)
(0.569522 0.0516792 0.159843)
(0.756463 -0.0682239 0.0293581)
(0.604985 0.0930342 0.0629934)
(0.923366 -0.000498652 0.166388)
(0.798549 -0.110477 0.135223)
(0.819915 0.0982986 0.0592274)
(0.812255 0.00935476 0.0723959)
(0.638624 -0.0535712 0.204974)
(0.965251 0.0449045 0.0563546)
(1.05602 0.0111759 -0.0142731)
(0.991989 0.0330715 0.126929)
(1.00394 0.0356511 0.0756726)
(1.13586 -0.00818434 -0.0072648)
(0.948875 -0.000884523 0.0700629)
(0.807745 0.0485228 -0.0226743)
(1.14746 0.0580312 -0.145351)
(0.780511 0.0204965 0.132268)
(0.718845 0.00775095 0.192449)
(0.975719 0.0809318 0.0182699)
(0.822564 0.0840671 0.0225359)
(0.927976 0.048786 -0.0530609)
(1.12387 0.0149576 -0.0167579)
(1.02862 -0.00747331 0.132374)
(0.828706 0.07066 0.0491036)
(1.01205 0.0728099 0.0378863)
(1.05993 0.0216936 0.0488947)
(0.77864 -0.004314 0.117462)
(0.946014 0.0333304 0.0222908)
(0.897829 0.0179791 0.0297922)
(0.789649 -0.0533437 0.14088)
(0.886483 0.0572813 0.0375226)
(0.806129 0.128719 0.0239888)
(0.68829 0.00720094 0.0594246)
(0.883452 0.0375939 0.0584945)
(1.10028 0.0341263 0.035314)
(1.02926 -0.0378229 0.0897455)
(1.01879 0.0160823 0.0179629)
(0.776354 0.0117097 0.0201975)
(0.98226 -0.00250971 0.011783)
(1.00807 0.0611385 -0.0144059)
(0.726399 0.0326775 0.131139)
(0.811169 -0.0826706 0.0312536)
(0.65181 0.0661954 0.00822592)
(1.00849 -0.00127565 0.144001)
(0.830434 -0.09778 0.147273)
(0.727782 0.0952216 0.091527)
(0.854533 0.0617983 0.0677816)
(0.580356 -0.0206874 0.1797)
(0.933037 -0.00669471 0.0930136)
(1.13682 0.00225379 -0.0120131)
(0.964146 0.0586084 0.121393)
(0.99489 0.0532885 0.11356)
(1.10111 0.00419582 -0.00529785)
(0.920162 -0.0500147 0.087941)
(0.915746 -0.014144 0.00965742)
(1.11171 0.11377 -0.148445)
(0.834096 0.0386062 0.0744146)
(0.669417 -0.0653184 0.219466)
(0.896737 0.0229071 0.0512435)
(0.888111 0.128564 0.00816429)
(0.926264 0.0630659 -0.00956739)
(1.03989 -0.00147189 0.059924)
(0.787818 0.0155076 0.162253)
(0.793985 0.0600785 0.0590335)
(0.960809 0.0754298 0.0809283)
(0.860592 0.0409543 0.0912412)
(0.698191 -0.0522198 0.118891)
(0.922075 0.0216704 0.0477735)
(0.976996 0.0882994 -0.0190936)
(0.736178 -0.032705 0.106764)
(0.85767 0.00987479 0.0801791)
(0.890474 0.142112 0.00736906)
(0.740597 0.00344247 0.0623235)
(0.819551 -0.0335652 0.0948212)
(0.939177 0.0158253 0.0687593)
(1.05361 0.000732479 0.0797972)
(1.15545 0.0250506 0.0375895)
(0.856734 0.0195045 0.0220494)
(1.16037 0.0500267 -0.0212752)
(1.0801 0.0963587 -0.0353826)
(0.913158 0.0793458 0.0692438)
(1.03861 -0.0452803 0.0629033)
(0.892036 0.0193361 -0.0227164)
(0.905436 -0.032607 0.180714)
(0.884477 -0.0838756 0.169026)
(0.871657 0.0629894 0.0504663)
(0.765733 -0.00110437 0.0380006)
(0.577425 -0.0708209 0.156734)
(0.945017 0.0068754 0.102044)
(1.00923 -0.00881354 0.0579129)
(0.871966 0.0460806 0.129518)
(0.915127 0.0595702 0.116738)
(1.04763 0.0124033 0.00376197)
(1.01658 0.0672515 0.0369692)
(0.828685 0.025551 0.0460771)
(0.964847 0.05857 -0.152648)
(0.876092 0.0641511 -0.0417523)
(0.770763 -0.0282368 0.154995)
(0.90185 0.0322888 0.0863538)
(0.826004 0.126389 0.050823)
(0.946375 0.101583 0.0207167)
(1.13265 0.0552307 0.0495413)
(0.779173 -0.0104054 0.153609)
(0.878863 0.0398068 0.0804896)
(1.01465 0.0958268 0.0992835)
(0.86825 0.0781023 0.0825875)
(0.740505 -0.0291158 0.0765492)
(0.666051 -0.000484771 0.0982456)
(1.1152 0.109354 0.0281694)
(1.14505 -0.00602734 0.0389131)
(1.02188 -0.0388617 0.0436346)
(1.03838 0.13046 0.0453091)
(0.899162 0.051614 0.0679378)
(0.80634 -0.0186524 0.0822474)
(0.899337 0.0176854 0.0429698)
(0.915975 -0.0204343 0.0371026)
(1.25222 0.0234353 0.0273835)
(0.985827 -0.00227021 0.0307517)
(0.995153 0.000218909 0.000470728)
(1.13952 0.0832329 -0.0548958)
(0.997417 0.0156281 0.0397203)
(1.04393 -0.104829 0.0935747)
(0.895595 0.0706205 -0.0127696)
(0.957944 0.0212615 0.144951)
(0.761694 -0.10355 0.155446)
(0.727049 0.0870005 0.0530749)
(1.02344 0.144427 -0.0135984)
(0.701868 -0.0182774 0.0526612)
(0.818281 -0.0434439 0.0754036)
(1.02638 -0.00316224 0.0189334)
(0.829095 0.0712986 0.0756795)
(0.913557 0.0575721 0.0922202)
(0.970311 0.0262515 0.0162888)
(0.946283 0.014952 0.0823216)
(0.845859 0.00573697 0.0935237)
(0.921447 0.120306 -0.153526)
(0.901406 0.0864794 -0.0519263)
(0.74062 -0.0601723 0.177721)
(0.765646 -0.0126622 0.100189)
(0.893559 0.146875 0.0422004)
(0.926189 0.0931936 0.084379)
(1.04493 0.109936 0.123715)
(0.907048 0.0905015 0.117686)
(0.760385 0.0171584 0.0603971)
(0.820548 0.0938032 0.101806)
(0.97662 0.157847 0.0856481)
(0.92676 -0.00320181 0.0587031)
(0.743155 -0.0862298 0.0572537)
(1.24639 0.0128419 0.016746)
(1.30055 0.0220975 0.0292231)
(1.00223 0.00692639 0.0363897)
(0.993103 0.0990953 0.0533594)
(0.860281 0.0765309 0.0638564)
(0.799034 0.000440977 0.0726015)
(0.978675 0.017362 0.0337272)
(0.838632 0.0196401 -0.0149263)
(1.10175 0.0263183 0.030571)
(1.10283 0.0663404 0.0208546)
(1.09494 0.0661814 -0.0390094)
(1.19174 0.154958 -0.0134803)
(1.26909 0.145666 -0.00771952)
(1.10414 -0.0485885 0.0765807)
(0.859823 0.0220418 0.0334966)
(0.958206 0.0487711 0.110741)
(0.803218 0.00416531 0.153711)
(0.730186 0.0166227 0.0147339)
(0.977863 -0.0103705 0.0205291)
(0.797454 0.0134552 0.0815916)
(0.877139 0.0485905 -0.0139154)
(1.18344 -0.0531377 -0.046463)
(1.06131 0.0262741 0.065699)
(0.745586 0.0924837 0.0867404)
(1.06345 0.0394801 -0.0414823)
(1.25617 0.0797171 0.00667494)
(0.996309 0.0690928 0.091051)
(1.03928 0.039215 -0.0794751)
(1.01269 0.108704 -0.0724698)
(0.926799 0.088812 0.0703484)
(0.796668 -0.00806426 0.10038)
(0.954653 0.0293738 0.0352563)
(1.05652 0.0994894 -0.00824236)
(0.869551 0.0645992 0.0897426)
(0.724716 0.0358596 0.111639)
(0.917988 0.11446 0.0323108)
(0.812458 0.0688209 0.0876466)
(0.797727 0.0409097 0.108233)
(0.963878 0.0428123 0.0503354)
(0.886228 -0.0113139 0.0340809)
(1.14797 0.017374 0.0427243)
(1.18765 0.0213248 0.0514469)
(0.944632 0.0409565 0.0232621)
(0.839306 0.169266 0.063988)
(0.830656 0.079486 0.075459)
(0.858101 -0.0249879 0.018914)
(0.91755 0.044442 0.0208495)
(0.770377 0.0665729 0.00659919)
(1.01273 0.0546903 0.0348445)
(1.0266 0.056567 0.040526)
(1.08001 0.0551797 0.0264337)
(1.09895 0.0443235 -0.0126508)
(1.1373 0.0588323 -0.0213193)
(1.16317 -0.00501161 0.0588682)
(0.879889 0.0606868 0.0587946)
(0.909338 0.0559336 0.122364)
(0.851635 -0.00180652 0.135236)
(0.877287 0.0747353 0.0428151)
(0.960714 0.141372 0.0703047)
(0.744914 0.0409544 0.110318)
(0.869778 -0.0678429 0.0292276)
(1.01152 -0.0890091 -0.0470314)
(0.846675 0.0883924 0.0608378)
(0.690507 0.0675191 0.0921763)
(0.940833 -0.0647878 0.0216838)
(1.01912 0.00142412 0.0112313)
(1.00008 0.0832138 0.0675186)
(1.05694 0.137834 -0.00517899)
(0.991462 0.128793 -0.04863)
(0.995462 0.0978494 0.0536456)
(0.875857 0.0480204 0.087153)
(0.858152 0.120405 0.0661356)
(1.02524 0.157994 0.00615212)
(1.017 0.222935 0.00874439)
(0.865895 0.16712 0.0437227)
(0.94725 0.0393249 -0.00203202)
(0.863551 0.124642 0.0500835)
(1.15157 0.16232 0.0151455)
(0.94113 0.020988 0.0627098)
(0.828632 -0.0832506 0.122313)
(1.07503 0.0085411 0.108953)
(1.16598 0.107054 0.0596471)
(0.773657 0.0725055 -0.0113513)
(0.840471 0.114465 0.0533275)
(0.931152 0.0810498 0.0781265)
(0.851375 0.0927729 0.022909)
(0.903194 0.0973859 0.0535922)
(0.753197 0.0423719 -0.00299553)
(1.10199 0.0624664 -0.0308365)
(1.13077 0.0900715 -0.0703296)
(1.10915 0.0517605 -0.0386156)
(1.31046 0.17524 -0.050335)
(1.06029 0.221348 -0.0693398)
(1.19911 0.0565142 -0.0213127)
(1.15735 -0.0257665 0.0294422)
(1.06625 0.0247574 0.12115)
(0.98052 0.0564835 0.10368)
(0.80672 0.0212183 0.0505704)
(0.843159 0.0109291 0.073888)
(0.937928 0.040165 0.0878158)
(1.04658 0.0756312 0.0280273)
(0.947415 -0.0277312 -0.0579455)
(0.850214 0.0445308 -0.0194531)
(1.13614 0.0859342 0.0625559)
(1.01129 -0.0335478 0.0517746)
(1.05515 0.0848694 0.0132896)
(0.909403 0.0631633 0.114474)
(0.848469 -0.0263078 0.0811551)
(1.14775 0.208132 -0.0490337)
(1.23436 0.204036 -0.0119381)
(0.953027 -0.00165257 0.166911)
(0.699648 -0.0496023 0.170652)
(1.16449 0.110165 -0.0224117)
(0.957817 0.129728 0.0183702)
(0.975594 0.0249403 0.142877)
(1.018 0.181967 0.0121346)
(0.815184 0.0814448 -0.00632989)
(0.881434 0.0450731 0.0232946)
(0.871743 0.131009 0.0754255)
(0.828964 0.00606253 0.108018)
(0.909629 -0.0111136 0.152332)
(1.1796 0.0827739 0.123377)
(0.927423 0.165824 -0.0160053)
(0.865402 0.160068 0.0483815)
(0.67626 0.0368263 0.160137)
(0.780785 -0.0167687 0.144973)
(0.824331 0.122242 0.0911127)
(0.711472 0.100415 -0.0437235)
(0.94956 0.069522 -0.0224667)
(0.991056 0.121781 0.0212205)
(1.06668 0.0604983 -0.00803429)
(1.22921 0.0834981 0.0306413)
(1.31393 0.0811106 -0.0887656)
(1.34032 -0.0265018 -0.0824382)
(1.29715 0.0446634 -0.0251651)
(1.08939 0.116234 0.0819801)
(1.03545 0.0338065 0.130349)
(1.0664 0.097859 0.0313215)
(1.2308 0.161506 0.0656658)
(1.06116 0.0159094 0.126641)
(0.797072 0.0145117 0.0679031)
(0.902776 0.0540694 -0.00492652)
(1.07425 -0.0393579 -0.0347929)
(1.17976 -0.0495628 0.070347)
(1.12756 0.00295561 0.0353169)
(0.844697 0.0151003 -0.0602467)
(0.851805 0.0778605 0.0624482)
(1.15753 0.0371647 0.0575592)
(1.09684 -0.0137716 -0.0263195)
(1.056 0.154058 -0.0432964)
(0.908184 0.152298 -0.0113831)
(0.96461 0.0128883 0.0671547)
(1.08374 0.0415679 0.0589858)
(1.19502 0.122891 0.0689117)
(0.903327 0.109768 0.117448)
(0.917889 0.0796039 0.0395302)
(1.20192 0.126132 -0.0709084)
(1.0685 0.234453 0.0142261)
(1.03028 0.129956 0.0718318)
(1.0509 -0.0164219 -0.0246374)
(1.00482 -0.0567187 0.0894108)
(0.836607 0.0978106 0.144441)
(0.91005 0.178804 -0.117883)
(0.846614 0.106195 -0.0614019)
(0.939151 0.0773591 0.0866833)
(1.00648 0.0549537 0.133398)
(0.857468 0.118105 0.154962)
(0.812772 0.0724044 0.0157803)
(1.00329 0.00993513 -0.050428)
(0.922102 0.0492958 -0.0352789)
(0.858082 0.0622005 0.0376499)
(1.08419 0.0338069 0.0853063)
(1.24158 0.210266 -0.0436844)
(1.19741 0.0913279 -0.0359603)
(0.919059 -0.00844696 0.0421502)
(0.824626 0.0812984 0.0867575)
(1.22039 0.00939552 0.129833)
(0.942645 -0.042391 0.0803231)
(0.865233 0.029528 0.0102531)
(1.20804 0.131097 -0.0501355)
(1.00714 0.17091 -0.0587563)
(0.953437 0.0538118 0.0107075)
(1.12517 0.0283653 0.0107266)
(1.2153 0.0284941 0.00517597)
(1.0773 0.0155567 0.0414982)
(1.03025 0.291715 0.0505814)
(1.00601 0.153895 0.0430675)
(1.38801 -0.100195 -0.0299698)
(1.31242 0.171323 -0.0237235)
(0.906192 0.296429 -0.0979218)
(1.00439 0.112059 -0.0452371)
(0.807989 -0.054328 0.0430928)
(0.931642 0.0551129 -0.017445)
(1.17829 0.262439 0.0322896)
(1.18805 0.211131 -0.00221976)
(0.860413 0.0587622 0.075064)
(0.814004 0.0439078 -0.00956373)
(1.10328 0.192742 -0.157808)
(1.00658 0.196037 -0.0169006)
(1.0502 0.0552706 0.010415)
(0.911483 0.133945 0.0492721)
(0.792664 0.189636 0.182319)
(1.30839 0.200507 -0.0262921)
(1.05001 0.139818 -0.0618539)
(0.817011 0.0125082 0.0998101)
(0.875531 -0.00671713 0.154452)
(0.861063 0.0891096 0.168848)