/*--------------------------------*- C++ -*----------------------------------*\
  =========                 |
  \\      /  F ield         | OpenFOAM: The Open Source CFD Toolbox
   \\    /   O peration     | Website:  https://openfoam.org
    \\  /    A nd           | Version:  10
     \\/     M anipulation  |
\*---------------------------------------------------------------------------*/
FoamFile
{
    format      ascii;
    class       volScalarField;
    location    "18";
    object      pMean;
}
// * * * * * * * * * * * * * * * * * * * * * * * * * * * * * * * * * * * * * //

dimensions      [0 2 -2 0 0 0 0];

internalField   nonuniform List<scalar> 
25600
(
1.82247e-05
1.90654e-05
2.85805e-05
1.99772e-05
2.65521e-05
3.26667e-05
2.51349e-05
3.56693e-05
3.43078e-05
3.20763e-05
3.37693e-05
3.38685e-05
4.19195e-05
4.09655e-05
4.16432e-05
4.48364e-05
4.72543e-05
5.27459e-05
5.51585e-05
5.7312e-05
5.64553e-05
5.92208e-05
6.40377e-05
6.36486e-05
6.17219e-05
6.04279e-05
6.61317e-05
6.12597e-05
5.29131e-05
5.25142e-05
4.78597e-05
4.67855e-05
3.91051e-05
2.93354e-05
3.19944e-05
2.77431e-05
2.21513e-05
2.53424e-05
1.75763e-05
1.66353e-05
2.13222e-05
2.4346e-05
2.95254e-05
2.14872e-05
3.18987e-05
3.41097e-05
2.83797e-05
3.4362e-05
3.54578e-05
3.54219e-05
3.06642e-05
3.26148e-05
4.22472e-05
4.04666e-05
3.91821e-05
4.37555e-05
4.81189e-05
4.90826e-05
4.99467e-05
5.8477e-05
5.3771e-05
5.45898e-05
6.3614e-05
6.21419e-05
5.85141e-05
5.8544e-05
7.07777e-05
6.24062e-05
4.82435e-05
5.07178e-05
5.01066e-05
4.63517e-05
3.33367e-05
2.99552e-05
3.71753e-05
2.54406e-05
2.13218e-05
2.89996e-05
2.00917e-05
2.07759e-05
2.33314e-05
2.89e-05
2.95348e-05
2.53071e-05
3.75582e-05
3.39911e-05
3.11346e-05
3.49933e-05
3.48751e-05
3.50426e-05
3.04838e-05
3.37045e-05
4.16044e-05
4.12207e-05
3.94178e-05
4.19933e-05
4.78885e-05
4.48651e-05
4.58495e-05
5.81639e-05
4.99001e-05
5.27202e-05
6.31787e-05
6.05509e-05
5.79728e-05
5.93248e-05
7.27258e-05
6.2471e-05
4.47596e-05
5.0575e-05
5.26039e-05
4.20041e-05
3.05284e-05
3.39545e-05
3.84375e-05
2.33088e-05
2.30322e-05
2.82666e-05
2.08103e-05
2.51482e-05
2.52277e-05
3.19857e-05
2.90222e-05
3.02311e-05
4.12017e-05
3.30525e-05
3.54883e-05
3.85359e-05
3.15029e-05
3.48912e-05
3.42517e-05
3.3549e-05
4.0581e-05
4.27941e-05
3.92724e-05
3.96932e-05
4.75413e-05
4.18353e-05
4.37687e-05
5.55055e-05
4.64331e-05
5.25289e-05
6.18931e-05
5.9551e-05
5.89992e-05
6.07347e-05
7.26696e-05
6.24013e-05
4.39752e-05
5.38171e-05
5.44771e-05
3.76339e-05
3.21103e-05
3.7403e-05
3.47646e-05
2.18503e-05
2.41381e-05
2.45344e-05
2.23666e-05
2.83397e-05
2.68812e-05
3.31953e-05
2.91522e-05
3.57976e-05
4.17657e-05
3.26749e-05
4.16534e-05
3.94864e-05
2.59004e-05
3.87203e-05
3.78555e-05
3.16317e-05
4.36777e-05
4.58056e-05
3.85222e-05
3.908e-05
4.71501e-05
3.83464e-05
4.15048e-05
5.20453e-05
4.37244e-05
5.13344e-05
6.07169e-05
5.92615e-05
6.01238e-05
6.41778e-05
7.31142e-05
6.33484e-05
4.70292e-05
5.72401e-05
5.34206e-05
3.46031e-05
3.44613e-05
3.7209e-05
2.94025e-05
2.19538e-05
2.35601e-05
2.10528e-05
2.4686e-05
2.89697e-05
2.84171e-05
3.22959e-05
3.02758e-05
4.05532e-05
3.99591e-05
3.59134e-05
4.83813e-05
3.50082e-05
2.30709e-05
4.51855e-05
3.6933e-05
3.27897e-05
5.14893e-05
4.69259e-05
3.80835e-05
4.10978e-05
4.54392e-05
3.4209e-05
3.99114e-05
4.97282e-05
4.06506e-05
5.04327e-05
6.26912e-05
5.81472e-05
6.07339e-05
6.83588e-05
7.27505e-05
6.53851e-05
5.27168e-05
5.94718e-05
5.09151e-05
3.24551e-05
3.49209e-05
3.48574e-05
2.55845e-05
2.23962e-05
2.1822e-05
1.86334e-05
2.58794e-05
2.78196e-05
2.89062e-05
2.96279e-05
3.27533e-05
4.28587e-05
3.76581e-05
4.2287e-05
5.05795e-05
2.65345e-05
2.60943e-05
4.99996e-05
3.32013e-05
4.11255e-05
5.96299e-05
4.66243e-05
4.1342e-05
4.49851e-05
4.25072e-05
3.06195e-05
3.91802e-05
4.7313e-05
3.67131e-05
5.10401e-05
6.48097e-05
5.45231e-05
6.24238e-05
7.16763e-05
7.1332e-05
6.92171e-05
5.87323e-05
6.01401e-05
4.79293e-05
3.04077e-05
3.38797e-05
3.23232e-05
2.2142e-05
2.03035e-05
1.85664e-05
1.59586e-05
2.52991e-05
2.68437e-05
2.71612e-05
2.67284e-05
3.57732e-05
4.17738e-05
3.66919e-05
4.9576e-05
4.6759e-05
1.84053e-05
3.17939e-05
5.06714e-05
3.3004e-05
5.29527e-05
6.35395e-05
4.88167e-05
4.99231e-05
4.76735e-05
3.85582e-05
2.83933e-05
3.84161e-05
4.39856e-05
3.32921e-05
5.23785e-05
6.36612e-05
5.06925e-05
6.45817e-05
7.27883e-05
7.26488e-05
7.62289e-05
6.26941e-05
5.8466e-05
4.35974e-05
2.65711e-05
3.09859e-05
2.86522e-05
1.81642e-05
1.613e-05
1.3035e-05
1.19429e-05
2.34766e-05
2.58956e-05
2.1449e-05
2.3346e-05
3.64854e-05
3.83136e-05
3.81552e-05
5.50589e-05
3.77353e-05
1.25304e-05
3.59548e-05
4.84633e-05
3.65411e-05
6.25734e-05
6.5498e-05
5.60101e-05
5.97795e-05
4.75915e-05
3.5116e-05
2.63788e-05
3.50076e-05
3.93566e-05
3.19165e-05
5.24023e-05
5.90838e-05
4.68865e-05
6.53126e-05
7.31952e-05
7.88534e-05
8.27391e-05
6.30461e-05
5.70438e-05
3.77303e-05
1.85013e-05
2.35411e-05
2.0962e-05
1.27413e-05
8.99735e-06
4.0343e-06
6.55955e-06
2.21099e-05
2.35867e-05
1.25405e-05
1.69128e-05
3.21707e-05
3.48339e-05
4.28644e-05
5.60252e-05
2.49798e-05
5.97939e-06
3.79294e-05
4.61027e-05
4.04173e-05
6.84153e-05
6.81104e-05
6.71239e-05
6.81185e-05
4.56396e-05
3.19368e-05
2.18163e-05
2.82503e-05
3.58442e-05
3.23437e-05
4.92198e-05
5.06269e-05
4.19368e-05
6.35855e-05
7.32759e-05
8.62287e-05
8.48638e-05
6.08386e-05
5.56482e-05
2.6927e-05
5.25686e-06
1.12652e-05
9.46206e-06
4.68492e-06
-3.31437e-06
-9.72431e-06
-1.02549e-06
1.80752e-05
1.75173e-05
-1.83538e-06
3.57443e-06
2.2885e-05
3.22233e-05
4.64583e-05
4.93245e-05
8.67332e-06
-4.29829e-06
3.56127e-05
4.14966e-05
4.24576e-05
7.0433e-05
7.09207e-05
8.06488e-05
7.42524e-05
4.11022e-05
2.60048e-05
1.25962e-05
2.03065e-05
3.39856e-05
3.07597e-05
4.00284e-05
3.63473e-05
3.46196e-05
5.6985e-05
7.10892e-05
9.22271e-05
8.13845e-05
5.65115e-05
5.09545e-05
6.35693e-06
-1.64119e-05
-7.95515e-06
-6.20755e-06
-9.16184e-06
-2.45973e-05
-3.00936e-05
-1.33579e-05
8.6413e-06
7.10747e-06
-2.48609e-05
-1.7804e-05
1.08615e-05
2.84704e-05
4.26156e-05
3.51925e-05
-1.0963e-05
-2.09363e-05
2.70677e-05
3.37953e-05
4.11067e-05
6.57057e-05
7.09658e-05
9.36273e-05
7.5038e-05
3.06998e-05
1.28871e-05
-1.82939e-06
1.32103e-05
3.18038e-05
2.12371e-05
1.89402e-05
1.33972e-05
2.22794e-05
4.17346e-05
6.1719e-05
9.05668e-05
6.92061e-05
4.97031e-05
3.84914e-05
-2.74181e-05
-5.11665e-05
-3.6172e-05
-2.81981e-05
-3.39786e-05
-5.74489e-05
-5.74202e-05
-3.13076e-05
-6.79312e-06
-8.96742e-06
-6.6378e-05
-5.16602e-05
-5.33234e-06
1.68822e-05
2.54986e-05
1.11412e-05
-3.88942e-05
-4.91499e-05
7.86316e-06
1.96313e-05
3.31865e-05
5.42312e-05
7.08532e-05
0.000104947
6.50087e-05
9.08293e-06
-9.23018e-06
-1.99806e-05
4.31769e-06
2.18915e-05
-3.823e-06
-2.01243e-05
-2.05634e-05
-1.80996e-06
1.01594e-05
3.97923e-05
7.26049e-05
4.0977e-05
3.10283e-05
1.03947e-05
-8.04929e-05
-0.000104791
-7.72922e-05
-6.5576e-05
-7.99057e-05
-0.000107285
-9.33434e-05
-5.52855e-05
-2.99179e-05
-3.80133e-05
-0.0001303
-9.93186e-05
-3.30032e-05
-1.32578e-05
-1.19938e-05
-2.74079e-05
-8.19455e-05
-9.3018e-05
-3.13399e-05
-1.75419e-05
2.93643e-06
2.46521e-05
5.99354e-05
9.9989e-05
3.27443e-05
-3.25374e-05
-4.86756e-05
-5.00813e-05
-2.07588e-05
-1.30446e-05
-5.78277e-05
-8.12053e-05
-7.0839e-05
-5.16932e-05
-5.0858e-05
-9.25782e-06
2.40767e-05
-1.15007e-05
-8.04932e-06
-4.35108e-05
-0.00015885
-0.000175158
-0.000132855
-0.000126174
-0.00015114
-0.000173394
-0.000135077
-8.37237e-05
-6.366e-05
-8.78495e-05
-0.00023
-0.000165411
-8.14744e-05
-7.40063e-05
-8.02284e-05
-9.11033e-05
-0.000144885
-0.000154153
-8.65601e-05
-7.13295e-05
-5.2422e-05
-2.76046e-05
2.93607e-05
6.6458e-05
-3.08082e-05
-9.97371e-05
-0.000110726
-0.000104922
-8.17823e-05
-9.83425e-05
-0.000156813
-0.000175436
-0.000158269
-0.000149835
-0.000160108
-0.000104227
-6.66726e-05
-9.76929e-05
-8.58191e-05
-0.000139032
-0.000275725
-0.00027421
-0.000214109
-0.000218874
-0.000251856
-0.000263262
-0.000197161
-0.000134529
-0.000132483
-0.000184929
-0.000381664
-0.000273526
-0.000174497
-0.000185422
-0.000201018
-0.000201057
-0.000251147
-0.000257014
-0.000186324
-0.000173725
-0.000150136
-0.000120281
-4.77064e-05
-2.55559e-05
-0.000151496
-0.000213643
-0.000206957
-0.000195463
-0.00019359
-0.000239646
-0.000295492
-0.000301075
-0.000295197
-0.000319903
-0.000334863
-0.000256711
-0.000195573
-0.000209256
-0.000201471
-0.000279063
-0.000426175
-0.000403994
-0.000320921
-0.000315791
-0.000351083
-0.000364163
-0.000275175
-0.000217214
-0.000258001
-0.000344683
-0.000550591
-0.000393934
-0.000311248
-0.000353145
-0.00036564
-0.000327987
-0.000361977
-0.000353139
-0.000284431
-0.000290295
-0.000269905
-0.000239212
-0.000163404
-0.000169496
-0.000327122
-0.000374475
-0.000346621
-0.000331693
-0.000371531
-0.000438507
-0.000465082
-0.0004614
-0.000496899
-0.00056676
-0.000576995
-0.000461536
-0.000342619
-0.000321806
-0.000328499
-0.000453135
-0.000631646
-0.00060093
-0.00048045
-0.000442922
-0.000479444
-0.000488462
-0.000375936
-0.000339646
-0.000424222
-0.000539654
-0.000708301
-0.000514483
-0.000480376
-0.000568924
-0.000547122
-0.000450342
-0.000488182
-0.000484882
-0.000442443
-0.000474952
-0.000440504
-0.000380242
-0.00029053
-0.000333207
-0.000517387
-0.000550664
-0.000499512
-0.000494789
-0.000583993
-0.000643429
-0.000619447
-0.000620754
-0.000733853
-0.000843446
-0.000815547
-0.000649807
-0.000472977
-0.000426505
-0.000459296
-0.00065773
-0.000880691
-0.000808986
-0.000619777
-0.000563618
-0.000626502
-0.000620459
-0.000493182
-0.000507759
-0.000646714
-0.000761278
-0.0008103
-0.000592546
-0.000624129
-0.000724814
-0.000635576
-0.000488662
-0.000565853
-0.000621687
-0.00067377
-0.000769432
-0.000724819
-0.000613311
-0.000489122
-0.000560989
-0.000779683
-0.000798113
-0.000719076
-0.000727317
-0.000837196
-0.000839189
-0.000747933
-0.000776048
-0.000946755
-0.00104192
-0.000975982
-0.000787324
-0.000582588
-0.000534534
-0.00063107
-0.000910856
-0.00118109
-0.00101617
-0.000683669
-0.000600094
-0.000702452
-0.000732395
-0.000665972
-0.000758828
-0.000918186
-0.000974355
-0.000856647
-0.000651031
-0.000733179
-0.000771641
-0.000597255
-0.000454104
-0.000626041
-0.000748384
-0.000865958
-0.00100952
-0.000979434
-0.000839818
-0.000700963
-0.000821763
-0.00105499
-0.00104367
-0.000932881
-0.000937414
-0.00104612
-0.000968891
-0.000814597
-0.000859647
-0.0010356
-0.00109221
-0.00102483
-0.000841662
-0.000634971
-0.000611496
-0.000796038
-0.00118517
-0.00148787
-0.00120847
-0.000732063
-0.000633894
-0.000785538
-0.000875057
-0.000896032
-0.00105641
-0.00118194
-0.00112247
-0.000846733
-0.0006701
-0.000748883
-0.000735405
-0.000543156
-0.000500432
-0.000743961
-0.000891609
-0.00104469
-0.0011679
-0.00109851
-0.000918998
-0.000786004
-0.000949603
-0.00117182
-0.00111191
-0.000982927
-0.0010214
-0.00112507
-0.000982379
-0.000795561
-0.000846081
-0.00100632
-0.00102278
-0.000951153
-0.000809917
-0.000627116
-0.00062212
-0.000839665
-0.00129682
-0.00159813
-0.00123772
-0.000740572
-0.000709252
-0.000928531
-0.00102323
-0.00105062
-0.00120557
-0.00127248
-0.00113337
-0.000748445
-0.000566708
-0.000586694
-0.000583943
-0.000492634
-0.000528808
-0.000751864
-0.000911526
-0.00113355
-0.00121539
-0.00102801
-0.000784548
-0.000688249
-0.000891711
-0.00105553
-0.000942398
-0.000849788
-0.000974754
-0.00111037
-0.000937672
-0.00075799
-0.000862782
-0.0010128
-0.000984367
-0.000827697
-0.000668729
-0.000504569
-0.000517098
-0.000765982
-0.00121811
-0.00153006
-0.00113738
-0.000658576
-0.00071144
-0.000953814
-0.00100571
-0.00100207
-0.00117038
-0.00118463
-0.00100857
-0.000643042
-0.000447562
-0.000422388
-0.00046585
-0.000476916
-0.000542277
-0.000712778
-0.00091164
-0.00119137
-0.00122235
-0.00089679
-0.000620282
-0.000567643
-0.000773578
-0.000848295
-0.000669666
-0.000616663
-0.00085921
-0.00102107
-0.000831767
-0.000680535
-0.000825578
-0.000962239
-0.000880843
-0.000617585
-0.000384935
-0.00026706
-0.000352922
-0.000667421
-0.00110944
-0.00140446
-0.00103811
-0.000523992
-0.000538928
-0.000728605
-0.00077229
-0.000832712
-0.00101674
-0.000980256
-0.000828178
-0.000544635
-0.000342018
-0.000316025
-0.000414387
-0.000460251
-0.000522505
-0.000699226
-0.000943989
-0.00121183
-0.00112846
-0.000741388
-0.000507611
-0.000493026
-0.000659613
-0.000659234
-0.000467109
-0.000421982
-0.000685679
-0.000864302
-0.000693291
-0.000562415
-0.000691882
-0.000783929
-0.000663785
-0.000354986
-0.000118016
-5.0255e-05
-0.00020443
-0.000551064
-0.000942576
-0.00119078
-0.000885255
-0.000392626
-0.000308986
-0.000429738
-0.000524899
-0.000691846
-0.000833458
-0.000754959
-0.000676592
-0.000420312
-0.000223839
-0.000216647
-0.000358065
-0.000408766
-0.000501514
-0.000703611
-0.000929527
-0.00109273
-0.000873991
-0.000484758
-0.000305377
-0.000302612
-0.000446236
-0.000450971
-0.000305455
-0.000280649
-0.000529522
-0.00070096
-0.000543955
-0.000430284
-0.000551167
-0.00062136
-0.000481074
-0.000176549
2.94014e-05
6.37792e-05
-0.000111837
-0.000390712
-0.000702953
-0.00093128
-0.00068147
-0.000250928
-0.000138653
-0.000264264
-0.000431898
-0.000626004
-0.000682101
-0.000586238
-0.000541071
-0.000292629
-0.000112431
-0.000135198
-0.00030272
-0.000354325
-0.000461127
-0.000689978
-0.000884505
-0.000928775
-0.00059704
-0.000219496
-5.22187e-05
-1.03017e-05
-0.000148903
-0.000213808
-0.000134954
-0.000143629
-0.000358526
-0.000487949
-0.000322661
-0.000254767
-0.000427471
-0.000502701
-0.000360352
-6.37233e-05
0.000129566
0.000142326
2.59664e-05
-0.000140547
-0.000423586
-0.000673587
-0.000474604
-0.000115878
-2.54129e-05
-0.000194287
-0.000419473
-0.000600928
-0.000574569
-0.000428455
-0.000395515
-0.000147951
2.71141e-05
-2.5613e-05
-0.000209003
-0.000255983
-0.000376086
-0.000629221
-0.000824202
-0.000790314
-0.000383595
-1.40948e-05
0.000150359
0.000234272
0.000110536
-8.06504e-06
1.56428e-05
-1.90931e-06
-0.000184723
-0.000227299
-4.38579e-05
-5.24217e-05
-0.000292947
-0.000386728
-0.000236869
4.67137e-05
0.000219653
0.000255944
0.000244831
0.000150005
-0.0001559
-0.000463227
-0.000293107
3.46781e-05
0.000106409
-9.14136e-05
-0.000365912
-0.000529634
-0.00044637
-0.000273659
-0.00023484
-1.81427e-05
0.00015207
8.46809e-05
-0.00010541
-0.000131403
-0.000230807
-0.000479451
-0.000714911
-0.000676344
-0.000244671
0.000118487
0.000275302
0.000382367
0.000269621
0.000140488
0.000143033
0.000115352
-2.64425e-05
2.85183e-07
0.000177285
9.82183e-05
-0.000170535
-0.00026287
-0.000112001
0.000148584
0.000324174
0.000390346
0.000437957
0.000386247
7.35934e-05
-0.000298216
-0.000164614
0.000167895
0.000254565
4.37494e-05
-0.000263876
-0.000424567
-0.000315058
-0.000132478
-9.26271e-05
7.81573e-05
0.000223162
0.000149111
-3.43883e-05
-2.68082e-05
-8.03648e-05
-0.000314684
-0.000586185
-0.000582616
-0.00016562
0.000194311
0.000343088
0.000448289
0.000349491
0.00022607
0.000218105
0.000198051
9.12419e-05
0.000138925
0.000310598
0.000215616
-7.38101e-05
-0.00015839
-1.61921e-05
0.000228101
0.000411677
0.000478377
0.000539793
0.000511451
0.000207469
-0.000184431
-7.21103e-05
0.000262306
0.000359803
0.000141425
-0.000179801
-0.000330338
-0.000216172
-4.26155e-05
1.21114e-05
0.00012745
0.000258954
0.000178324
5.89658e-06
3.49174e-05
1.0116e-05
-0.000208272
-0.000497176
-0.000522078
-0.000124485
0.000230178
0.000375369
0.000479938
0.000387478
0.000269501
0.000258445
0.000243248
0.000153589
0.000204546
0.000369354
0.0002649
-2.10874e-05
-0.00010072
3.09688e-05
0.000267952
0.000455928
0.000511957
0.000574348
0.000556885
0.000259908
-0.000130589
-2.16751e-05
0.000307396
0.000401882
0.000183371
-0.000135344
-0.00028152
-0.000168801
1.37747e-06
6.61198e-05
0.000145222
0.000270514
0.00019175
2.51567e-05
6.45284e-05
4.95255e-05
-0.00016635
-0.00045985
-0.000490528
-0.000101227
0.000249472
0.000394714
0.000497144
0.00040719
0.000289411
0.000277496
0.000266711
0.000176697
0.000219484
0.000384135
0.000287931
1.20861e-06
-8.37394e-05
4.24556e-05
0.000280577
0.000469467
0.000521773
0.000583458
0.000570561
0.000277788
-0.000109923
-3.36118e-06
0.000319274
0.000412111
0.000197532
-0.000115996
-0.000262613
-0.000154861
1.58561e-05
8.59408e-05
0.000153068
0.000277731
0.000198309
3.43336e-05
7.54861e-05
6.24336e-05
-0.000154478
-0.000450307
-0.000481486
-9.17635e-05
0.000258523
0.000402712
0.00050604
0.000417253
0.00030089
0.00028986
0.000277904
0.000184787
0.000227889
0.000393883
0.000296525
8.56736e-06
-7.7722e-05
4.68884e-05
0.000286227
0.000475411
0.000527029
0.000589235
0.000574329
0.000282372
-0.000104578
2.31263e-06
0.000321616
0.000414071
0.000202325
-0.000110219
-0.000256965
-0.000148916
2.12261e-05
9.32833e-05
1.68496e-05
1.86294e-05
2.69166e-05
1.83962e-05
2.60678e-05
3.0999e-05
2.29153e-05
3.45375e-05
3.31669e-05
3.02571e-05
3.29028e-05
3.35454e-05
4.08961e-05
4.08521e-05
4.23002e-05
4.49014e-05
4.74573e-05
5.38955e-05
5.54128e-05
5.7124e-05
5.69749e-05
5.8782e-05
6.39374e-05
6.39882e-05
6.06289e-05
5.91383e-05
6.62862e-05
6.05476e-05
5.11798e-05
5.20786e-05
4.71735e-05
4.45754e-05
3.88077e-05
2.91477e-05
2.98238e-05
2.84425e-05
2.24024e-05
2.34046e-05
1.76461e-05
1.58334e-05
1.90873e-05
2.21701e-05
2.74767e-05
1.98955e-05
3.17964e-05
3.23728e-05
2.65791e-05
3.36689e-05
3.42256e-05
3.46189e-05
2.98255e-05
3.21531e-05
4.2451e-05
4.10494e-05
4.0185e-05
4.43321e-05
4.91916e-05
5.01927e-05
4.88979e-05
5.74516e-05
5.36717e-05
5.33571e-05
6.3544e-05
6.25223e-05
5.72988e-05
5.8002e-05
7.08797e-05
6.15952e-05
4.64876e-05
4.98455e-05
4.92086e-05
4.32864e-05
3.31785e-05
2.97009e-05
3.47813e-05
2.6069e-05
2.09904e-05
2.64096e-05
1.96871e-05
2.03803e-05
2.05878e-05
2.57754e-05
2.74894e-05
2.41674e-05
3.73224e-05
3.28123e-05
3.04675e-05
3.41481e-05
3.38955e-05
3.51064e-05
2.93851e-05
3.32321e-05
4.29699e-05
4.24676e-05
4.00785e-05
4.30047e-05
4.98834e-05
4.47289e-05
4.40071e-05
5.73772e-05
4.88509e-05
5.11252e-05
6.32748e-05
5.97638e-05
5.58095e-05
5.8966e-05
7.16264e-05
6.05235e-05
4.25104e-05
4.89205e-05
5.01033e-05
3.78878e-05
3.04633e-05
3.23643e-05
3.59811e-05
2.37627e-05
2.12071e-05
2.54498e-05
2.04492e-05
2.4743e-05
2.13589e-05
2.75659e-05
2.68955e-05
2.96396e-05
4.09258e-05
3.36951e-05
3.60256e-05
3.72653e-05
3.15765e-05
3.51221e-05
3.27834e-05
3.36541e-05
4.27869e-05
4.37201e-05
3.90667e-05
4.16441e-05
4.88133e-05
3.86362e-05
4.15088e-05
5.45179e-05
4.38823e-05
5.06609e-05
6.07384e-05
5.59154e-05
5.55393e-05
5.9315e-05
6.9216e-05
5.86436e-05
4.05291e-05
5.05137e-05
4.94694e-05
3.30806e-05
3.20745e-05
3.49284e-05
3.38738e-05
2.27641e-05
2.12375e-05
2.26825e-05
2.25214e-05
2.65238e-05
2.23464e-05
2.78334e-05
2.75365e-05
3.57463e-05
4.19619e-05
3.60686e-05
4.35033e-05
3.91817e-05
2.78638e-05
3.81428e-05
3.59458e-05
3.22056e-05
4.54692e-05
4.49894e-05
3.82116e-05
4.1904e-05
4.5878e-05
3.2611e-05
3.88114e-05
4.86737e-05
3.87149e-05
4.85106e-05
5.59555e-05
5.22234e-05
5.58921e-05
6.08539e-05
6.65467e-05
5.69751e-05
4.16418e-05
5.19583e-05
4.63546e-05
3.02846e-05
3.45397e-05
3.48842e-05
3.05591e-05
2.26738e-05
1.9213e-05
1.99097e-05
2.45105e-05
2.525e-05
2.49374e-05
2.69842e-05
2.9347e-05
3.97943e-05
4.05204e-05
4.15227e-05
5.13154e-05
3.6615e-05
2.60678e-05
4.3139e-05
3.47878e-05
3.24336e-05
5.08357e-05
4.42141e-05
3.86318e-05
4.38846e-05
4.02234e-05
2.60054e-05
3.45736e-05
4.12315e-05
3.22997e-05
4.35135e-05
5.14173e-05
4.84693e-05
5.65249e-05
6.34248e-05
6.43299e-05
5.67762e-05
4.55088e-05
5.27001e-05
4.28203e-05
2.84549e-05
3.45068e-05
3.32495e-05
2.83114e-05
2.17342e-05
1.49912e-05
1.81866e-05
2.47203e-05
2.36022e-05
2.7675e-05
2.56109e-05
3.30167e-05
4.06148e-05
3.83057e-05
4.92264e-05
5.41213e-05
2.99345e-05
2.9307e-05
4.64039e-05
3.08414e-05
3.9408e-05
5.63212e-05
4.32005e-05
4.32573e-05
4.57509e-05
3.16589e-05
1.94183e-05
2.93131e-05
3.23274e-05
2.46921e-05
3.80455e-05
4.7558e-05
4.383e-05
5.75769e-05
6.50949e-05
6.23342e-05
5.89572e-05
4.97031e-05
5.19813e-05
3.86279e-05
2.499e-05
3.16126e-05
3.12377e-05
2.69376e-05
1.80396e-05
9.10724e-06
1.59589e-05
2.31994e-05
2.40408e-05
2.83954e-05
2.54014e-05
3.69444e-05
3.80671e-05
3.86227e-05
5.70455e-05
4.95103e-05
2.28891e-05
3.43173e-05
4.56486e-05
3.02564e-05
5.04381e-05
5.88931e-05
4.55278e-05
5.13643e-05
4.41456e-05
2.13444e-05
1.35794e-05
2.25623e-05
2.25835e-05
1.69137e-05
3.27702e-05
4.26716e-05
3.90213e-05
5.76693e-05
6.45081e-05
6.21436e-05
6.30192e-05
5.17079e-05
4.92628e-05
3.29822e-05
1.93836e-05
2.84788e-05
2.96395e-05
2.40661e-05
1.22692e-05
2.85601e-06
1.26235e-05
2.12933e-05
2.56059e-05
2.60781e-05
2.59354e-05
3.69776e-05
3.24566e-05
4.18753e-05
6.26475e-05
4.0932e-05
1.71893e-05
3.69671e-05
4.18164e-05
3.45624e-05
6.10698e-05
6.09241e-05
5.39944e-05
6.06752e-05
3.94085e-05
1.1971e-05
7.37046e-06
1.17734e-05
1.22982e-05
9.16305e-06
2.49998e-05
3.50941e-05
3.39265e-05
5.59763e-05
6.28664e-05
6.54533e-05
6.69329e-05
4.99491e-05
4.56062e-05
2.52539e-05
1.20804e-05
2.67079e-05
2.79003e-05
1.79955e-05
3.15918e-06
-5.22084e-06
7.19827e-06
1.8011e-05
2.49002e-05
2.30788e-05
2.48707e-05
3.1687e-05
2.53533e-05
4.50877e-05
6.19986e-05
2.91141e-05
1.07959e-05
3.67419e-05
3.83064e-05
4.11357e-05
6.92999e-05
6.36269e-05
6.58898e-05
6.86843e-05
3.30121e-05
4.1926e-06
-2.15446e-06
-2.83586e-06
3.07999e-06
-4.756e-08
1.26101e-05
2.51239e-05
2.8349e-05
5.16824e-05
5.96957e-05
7.07518e-05
6.81208e-05
4.4206e-05
4.10627e-05
1.49373e-05
4.09361e-06
2.56789e-05
2.3767e-05
7.57384e-06
-9.76734e-06
-1.70249e-05
7.9451e-07
1.43194e-05
2.293e-05
1.69131e-05
1.90608e-05
2.2066e-05
1.86394e-05
4.41476e-05
5.27064e-05
1.35284e-05
1.09418e-06
3.24847e-05
3.45807e-05
4.87997e-05
7.72295e-05
6.94586e-05
8.07537e-05
7.41979e-05
2.42057e-05
-6.54195e-06
-2.01981e-05
-2.26805e-05
-7.01485e-06
-1.29094e-05
-4.78312e-06
1.17211e-05
2.06928e-05
4.14051e-05
5.22222e-05
7.58212e-05
6.35709e-05
3.3788e-05
3.17668e-05
-3.95414e-06
-5.96207e-06
2.3695e-05
1.39193e-05
-9.67598e-06
-3.11152e-05
-3.49475e-05
-9.05703e-06
6.78505e-06
1.6922e-05
1.52624e-06
6.32536e-06
9.78336e-06
1.05378e-05
3.40093e-05
3.38617e-05
-7.72164e-06
-1.48469e-05
2.15672e-05
2.574e-05
5.30677e-05
8.01381e-05
7.49352e-05
9.49823e-05
7.43928e-05
1.16409e-05
-2.35733e-05
-5.05121e-05
-4.85286e-05
-2.04612e-05
-3.35585e-05
-2.97381e-05
-7.36073e-06
9.41527e-06
2.27776e-05
4.00048e-05
7.76529e-05
4.94457e-05
1.48669e-05
1.19764e-05
-3.19099e-05
-1.60929e-05
1.96282e-05
-4.08726e-06
-3.50512e-05
-6.54579e-05
-6.3446e-05
-2.61674e-05
-1.01078e-05
-6.48118e-07
-2.54397e-05
-1.54608e-05
-1.06273e-05
-9.03028e-06
7.24415e-06
2.02143e-06
-4.1196e-05
-4.15826e-05
2.23864e-06
1.14731e-05
5.17007e-05
7.82411e-05
8.06629e-05
0.000104838
6.27438e-05
-1.38074e-05
-5.94893e-05
-0.000101114
-8.69861e-05
-5.06326e-05
-7.45611e-05
-7.25356e-05
-4.06205e-05
-1.49552e-05
-1.36733e-05
1.62833e-05
7.01235e-05
1.72155e-05
-2.4683e-05
-2.96113e-05
-7.65359e-05
-3.94077e-05
-9.77274e-07
-4.08207e-05
-7.72875e-05
-0.000121847
-0.000113831
-6.08966e-05
-4.47956e-05
-3.6659e-05
-6.44025e-05
-4.62506e-05
-4.39834e-05
-5.10753e-05
-4.64205e-05
-5.37248e-05
-0.000100414
-9.83041e-05
-4.83811e-05
-2.59909e-05
3.41703e-05
6.67874e-05
8.13243e-05
0.000103195
3.48342e-05
-6.29993e-05
-0.000129985
-0.000181917
-0.000145065
-0.000106491
-0.000140339
-0.000138757
-9.51343e-05
-6.30638e-05
-7.8515e-05
-2.14509e-05
4.75266e-05
-3.81106e-05
-8.82131e-05
-9.42121e-05
-0.00014141
-9.54146e-05
-6.46906e-05
-0.000112351
-0.000147643
-0.000210821
-0.000192103
-0.000121195
-0.00010975
-9.74596e-05
-0.000115319
-9.34474e-05
-9.59763e-05
-0.000117304
-0.000124033
-0.000132052
-0.000185035
-0.000188601
-0.000139706
-9.52691e-05
-2.60518e-06
4.54477e-05
7.16983e-05
8.01764e-05
-2.27087e-05
-0.000150224
-0.000252598
-0.000314758
-0.000250836
-0.000207876
-0.000240644
-0.000245001
-0.000186874
-0.000150953
-0.000178823
-8.22339e-05
-3.75061e-06
-0.000126037
-0.000174047
-0.000168272
-0.000215815
-0.000173358
-0.000158555
-0.000214434
-0.000255887
-0.000342456
-0.000301431
-0.00021443
-0.000208682
-0.000169956
-0.000187009
-0.000167897
-0.000178744
-0.00021982
-0.000235178
-0.000236685
-0.000297003
-0.000316565
-0.000270641
-0.000188605
-4.23572e-05
3.1262e-05
6.36165e-05
4.71262e-05
-0.000100017
-0.000266356
-0.000410028
-0.000473881
-0.000388944
-0.000340636
-0.000366488
-0.000386283
-0.00031423
-0.000281572
-0.000317868
-0.000181425
-0.000109358
-0.000255322
-0.000264989
-0.000227901
-0.000289761
-0.000265959
-0.000259775
-0.000321925
-0.000394825
-0.000515845
-0.000432593
-0.00033782
-0.000325697
-0.00024715
-0.000270086
-0.000262451
-0.000289836
-0.000361433
-0.000377432
-0.000366375
-0.000447589
-0.000498918
-0.000448623
-0.000303459
-9.71755e-05
6.40039e-06
2.95772e-05
-4.32655e-05
-0.000248791
-0.000441415
-0.000601824
-0.000617526
-0.000500931
-0.000438858
-0.00046247
-0.000500572
-0.000431654
-0.000438241
-0.000472103
-0.000310348
-0.00025513
-0.000369885
-0.000312943
-0.000295562
-0.000450474
-0.000482046
-0.000472829
-0.000516563
-0.000602747
-0.000711503
-0.000552245
-0.000437255
-0.000398738
-0.000302248
-0.000386514
-0.00039419
-0.000449845
-0.000529378
-0.000504021
-0.000475156
-0.000587825
-0.000696178
-0.000655786
-0.000441082
-0.000186096
-4.68696e-05
-3.54155e-05
-0.00018117
-0.000443752
-0.000675423
-0.00080527
-0.000727382
-0.0005814
-0.000497704
-0.000499215
-0.000548003
-0.000538075
-0.00062277
-0.000653879
-0.000477074
-0.000398842
-0.000432805
-0.000336595
-0.000400282
-0.000713396
-0.000838987
-0.000821153
-0.000843322
-0.000926328
-0.000942218
-0.000671475
-0.000517806
-0.000464271
-0.000389669
-0.000501122
-0.00054548
-0.000627335
-0.000694558
-0.000620271
-0.000576105
-0.000725149
-0.000883708
-0.000831283
-0.000540289
-0.000287684
-0.000131029
-0.000127686
-0.000312971
-0.000621275
-0.00085555
-0.000943622
-0.0008612
-0.00072454
-0.000581553
-0.000535726
-0.000606315
-0.000655625
-0.000772895
-0.000790878
-0.000642652
-0.000522855
-0.000487554
-0.000385828
-0.000526896
-0.000967347
-0.00115045
-0.00116894
-0.00123716
-0.0013329
-0.00124189
-0.00085495
-0.000667143
-0.000587863
-0.000504302
-0.0005412
-0.000644906
-0.000743175
-0.000781235
-0.000684501
-0.000625202
-0.000805133
-0.000979931
-0.000871776
-0.000537155
-0.000319324
-0.000179506
-0.000203881
-0.000431178
-0.000739257
-0.000907049
-0.000986121
-0.000990832
-0.0008763
-0.000665272
-0.000586038
-0.000676097
-0.000723227
-0.000820457
-0.000856647
-0.000754537
-0.000625198
-0.000568995
-0.000480384
-0.000664753
-0.00114605
-0.00132921
-0.00138316
-0.00154345
-0.00169356
-0.00154023
-0.00108421
-0.000826396
-0.000672667
-0.000533852
-0.000585322
-0.000746821
-0.000807963
-0.000763515
-0.000645115
-0.000615918
-0.000835218
-0.00098656
-0.000842623
-0.000519689
-0.000319836
-0.000190459
-0.0002778
-0.000518559
-0.000753931
-0.0008499
-0.000963178
-0.00103926
-0.000926651
-0.000668127
-0.000571498
-0.00065983
-0.00071474
-0.000784906
-0.000855843
-0.000789187
-0.000648422
-0.000629209
-0.000579613
-0.000754263
-0.00117952
-0.00132114
-0.00142119
-0.00166895
-0.0018871
-0.00175149
-0.00130826
-0.00100245
-0.000772203
-0.000574081
-0.000706527
-0.000887575
-0.000874103
-0.000701562
-0.000550035
-0.000585075
-0.000868989
-0.00101848
-0.000841148
-0.000514171
-0.00028537
-0.00018426
-0.000326768
-0.000533179
-0.000705301
-0.000778637
-0.000916845
-0.00103101
-0.000893666
-0.000609607
-0.000531142
-0.000639532
-0.000681405
-0.000742177
-0.000823768
-0.000819535
-0.000698837
-0.000691443
-0.00062831
-0.00075867
-0.00110285
-0.00119152
-0.00128272
-0.00149453
-0.00171179
-0.00167367
-0.00139295
-0.00115665
-0.000911241
-0.000691612
-0.000774691
-0.000932694
-0.000885682
-0.000657141
-0.00049444
-0.000585344
-0.000907745
-0.00104065
-0.000790074
-0.000425681
-0.00021249
-0.000201431
-0.000337601
-0.000480989
-0.000622681
-0.000679718
-0.000827542
-0.000952365
-0.000797759
-0.000537414
-0.000496289
-0.000616115
-0.000674629
-0.000727316
-0.000806407
-0.000830379
-0.00072346
-0.000697034
-0.000595474
-0.000705778
-0.00100547
-0.00101166
-0.00099432
-0.00112357
-0.00134948
-0.00143898
-0.00134906
-0.00120928
-0.000968024
-0.000759058
-0.000730298
-0.000825185
-0.000771407
-0.000605987
-0.000476616
-0.000577096
-0.000903906
-0.000989157
-0.000673146
-0.000276388
-0.000119874
-0.000187429
-0.000326621
-0.000419428
-0.000517396
-0.000575445
-0.000711993
-0.000794664
-0.000619309
-0.000417898
-0.000439071
-0.000581557
-0.000625359
-0.000631619
-0.000676825
-0.000715832
-0.000618352
-0.000609252
-0.000492153
-0.000576887
-0.000866424
-0.000826238
-0.000721305
-0.000778103
-0.000983789
-0.001124
-0.00114548
-0.00104971
-0.000860183
-0.000719495
-0.000573933
-0.000627843
-0.000545824
-0.00046599
-0.000429273
-0.00054206
-0.00083987
-0.000836266
-0.000458907
-7.41463e-05
3.99652e-06
-0.00011952
-0.000266704
-0.000323448
-0.000380159
-0.000421143
-0.000540402
-0.000570637
-0.00039131
-0.000251012
-0.000354333
-0.000537505
-0.000529346
-0.00046954
-0.000507282
-0.000602799
-0.000497009
-0.000508493
-0.000374326
-0.000433544
-0.000741086
-0.000681791
-0.000507287
-0.000484267
-0.000632978
-0.000790519
-0.000872163
-0.000818446
-0.000683606
-0.000594749
-0.000372599
-0.000374182
-0.000290828
-0.000296494
-0.000311086
-0.000419266
-0.000671574
-0.000602142
-0.000191573
0.000168136
0.000173425
-7.88843e-06
-0.000134478
-0.000151315
-0.000195135
-0.000231774
-0.000337959
-0.000336477
-0.000153133
-6.4226e-05
-0.000242432
-0.000435283
-0.000373103
-0.000252814
-0.000300937
-0.000457583
-0.00033246
-0.000345154
-0.000209303
-0.000281556
-0.000620599
-0.000529631
-0.000285744
-0.000242653
-0.000369587
-0.000536523
-0.000656257
-0.000614375
-0.000489167
-0.000425928
-0.000196524
-0.000171997
-8.99761e-05
-0.000115617
-0.000151802
-0.000246557
-0.00044591
-0.000352536
4.04759e-05
0.000371561
0.00033376
0.000117822
1.08846e-06
2.9328e-05
-7.44989e-06
-6.35538e-05
-0.000185813
-0.000173308
2.87596e-05
9.15867e-05
-0.000131115
-0.00031285
-0.000215843
-6.93727e-05
-0.000138374
-0.000329736
-0.000177204
-0.000162755
-3.14662e-05
-0.00013553
-0.000486237
-0.000336931
-5.44777e-05
-2.96885e-05
-0.000170239
-0.000358314
-0.000471522
-0.0004032
-0.000287627
-0.000258367
-5.18831e-05
-1.46527e-05
5.8599e-05
9.45238e-06
-1.44398e-05
-8.59233e-05
-0.000256887
-0.000148663