/*--------------------------------*- C++ -*----------------------------------*\
  =========                 |
  \\      /  F ield         | OpenFOAM: The Open Source CFD Toolbox
   \\    /   O peration     | Website:  https://openfoam.org
    \\  /    A nd           | Version:  10
     \\/     M anipulation  |
\*---------------------------------------------------------------------------*/
FoamFile
{
    format      ascii;
    class       volSymmTensorField;
    location    "18";
    object      UPrime2Mean;
}
// * * * * * * * * * * * * * * * * * * * * * * * * * * * * * * * * * * * * * //

dimensions      [0 2 -2 0 0 0 0];

internalField   nonuniform List<symmTensor> 
25600
(
(3.53791e-06 -7.52042e-09 -9.69379e-10 3.728e-10 2.12174e-11 1.44476e-12)
(3.52328e-06 -5.51328e-09 -3.66384e-10 2.30653e-10 1.18898e-11 6.57242e-13)
(3.52932e-06 -8.14939e-09 -9.36799e-10 1.98461e-10 1.40714e-11 1.23568e-12)
(3.53415e-06 -7.80697e-09 -1.00928e-09 1.61951e-10 1.22412e-11 1.17365e-12)
(3.53206e-06 -1.00716e-08 -1.2625e-09 1.42419e-10 1.1712e-11 1.33236e-12)
(3.54212e-06 -8.67756e-09 -1.38076e-09 1.24608e-10 1.06373e-11 1.52127e-12)
(3.54277e-06 -7.50073e-09 -1.63091e-09 1.05607e-10 9.83618e-12 1.53906e-12)
(3.5451e-06 -6.32818e-09 -1.82392e-09 8.311e-11 8.36651e-12 1.78267e-12)
(3.54733e-06 -5.92825e-09 -2.11689e-09 7.29275e-11 7.44974e-12 1.83792e-12)
(3.54913e-06 -5.25698e-09 -2.28649e-09 6.60866e-11 5.92725e-12 1.93665e-12)
(3.5539e-06 -3.58365e-09 -2.39182e-09 5.95676e-11 4.72862e-12 1.97503e-12)
(3.55491e-06 -2.86449e-10 -2.42836e-09 4.58497e-11 2.15568e-12 1.87411e-12)
(3.55461e-06 1.75614e-09 -2.31383e-09 3.51696e-11 1.10998e-12 1.87415e-12)
(3.55468e-06 3.68544e-09 -2.346e-09 3.65615e-11 1.3876e-14 1.82377e-12)
(3.55028e-06 3.26605e-09 -2.31534e-09 3.10296e-11 -5.01815e-13 1.75545e-12)
(3.5549e-06 4.19645e-09 -2.24153e-09 2.69716e-11 -7.36108e-13 1.70367e-12)
(3.54883e-06 3.07498e-09 -2.22042e-09 2.96332e-11 8.10085e-14 1.6232e-12)
(3.56105e-06 5.58651e-09 -1.77976e-09 2.33504e-11 -2.30749e-12 1.05307e-12)
(3.54464e-06 4.81577e-09 -1.73147e-09 1.73782e-11 -1.24697e-12 1.17392e-12)
(3.56353e-06 7.10757e-09 -1.11035e-09 2.65223e-11 -1.74528e-12 6.03724e-13)
(3.53507e-06 6.45187e-09 -8.06793e-10 1.54182e-11 -2.2154e-12 4.179e-13)
(3.55723e-06 5.17817e-09 -4.12914e-10 1.61013e-11 -5.31714e-13 3.75177e-13)
(3.52827e-06 6.29067e-09 -5.00073e-11 3.44814e-11 -1.07429e-12 1.25473e-13)
(3.54511e-06 1.70265e-09 -1.56805e-12 1.03804e-11 -3.23013e-14 2.1091e-13)
(3.52744e-06 2.74345e-09 1.20137e-10 2.8073e-11 3.75322e-13 7.06354e-14)
(3.53765e-06 -4.15606e-11 -1.7978e-10 2.62053e-11 5.79423e-13 1.01764e-13)
(3.52898e-06 -8.7832e-10 -4.71281e-10 2.69567e-11 1.78683e-12 2.29831e-13)
(3.53894e-06 -2.80464e-09 -8.94242e-10 3.03569e-11 2.43108e-12 3.74999e-13)
(3.53489e-06 -2.66307e-10 -1.36232e-09 3.90904e-11 2.76569e-12 7.98542e-13)
(3.53879e-06 -5.03547e-09 -2.01382e-09 4.29535e-11 5.0519e-12 1.41115e-12)
(3.54422e-06 -7.49741e-10 -2.18626e-09 4.72996e-11 2.87358e-12 1.67523e-12)
(3.54069e-06 -2.79202e-09 -2.70858e-09 6.43325e-11 7.08377e-12 2.67276e-12)
(3.54861e-06 -3.55055e-10 -2.77353e-09 6.08678e-11 3.50042e-12 2.49307e-12)
(3.54059e-06 -3.75508e-09 -2.92863e-09 7.59465e-11 7.97467e-12 3.01267e-12)
(3.55675e-06 2.27023e-09 -2.45004e-09 1.01934e-10 5.77117e-12 2.49188e-12)
(3.53188e-06 -3.84998e-09 -2.87034e-09 1.33218e-10 1.028e-11 3.03286e-12)
(3.56676e-06 1.39784e-09 -1.68943e-09 1.61216e-10 1.03041e-11 1.89174e-12)
(3.52325e-06 -3.53839e-09 -1.93826e-09 2.26872e-10 1.40018e-11 2.22435e-12)
(3.57241e-06 2.48832e-09 -5.45795e-10 3.46072e-10 2.59943e-11 2.79184e-12)
(3.51078e-06 1.66977e-08 4.48639e-10 4.35749e-10 2.55139e-11 1.86644e-12)
(2.96761e-06 -5.24193e-09 -7.55765e-11 1.82426e-11 -2.80221e-12 1.99855e-12)
(2.9515e-06 -4.14692e-09 7.81453e-10 1.14658e-11 -3.21628e-12 1.52844e-12)
(2.95365e-06 -6.60477e-09 1.34016e-10 1.87026e-11 -1.53154e-12 8.86031e-13)
(2.95694e-06 -5.28091e-09 1.51444e-11 1.45951e-11 -8.42187e-13 6.0363e-13)
(2.95103e-06 -8.16039e-09 -2.18958e-10 2.69073e-11 -6.1339e-13 6.7251e-13)
(2.95691e-06 -6.55668e-09 -3.30159e-10 2.16468e-11 -3.09066e-13 1.04624e-12)
(2.95456e-06 -6.70777e-09 -8.77122e-10 2.31512e-11 1.33757e-12 9.37221e-13)
(2.95768e-06 -5.79224e-09 -1.23091e-09 1.81459e-11 8.19357e-13 1.40391e-12)
(2.95964e-06 -4.17705e-09 -1.77474e-09 1.22676e-11 2.06898e-12 1.6534e-12)
(2.95842e-06 -3.53956e-09 -1.94442e-09 1.64491e-11 2.32591e-13 1.95245e-12)
(2.95971e-06 -1.48322e-09 -2.2392e-09 1.29326e-11 -1.81129e-13 2.43418e-12)
(2.9574e-06 8.51573e-10 -2.51726e-09 1.21956e-11 -1.30722e-12 2.48541e-12)
(2.9576e-06 2.48962e-09 -2.54862e-09 9.44825e-12 -2.34683e-12 2.72672e-12)
(2.95691e-06 4.56752e-09 -2.80484e-09 1.62158e-11 -3.31e-12 2.90136e-12)
(2.95478e-06 5.42583e-09 -2.69787e-09 1.7809e-11 -4.5303e-12 2.81462e-12)
(2.9516e-06 5.32078e-09 -2.74323e-09 1.6457e-11 -3.8076e-12 2.99835e-12)
(2.95004e-06 6.77832e-09 -2.48046e-09 2.01712e-11 -5.22699e-12 2.31613e-12)
(2.94475e-06 5.78574e-09 -2.31799e-09 1.60768e-11 -4.26952e-12 2.29171e-12)
(2.94406e-06 7.1673e-09 -2.13806e-09 2.07012e-11 -5.04179e-12 2.00778e-12)
(2.93976e-06 6.27727e-09 -1.63213e-09 1.54864e-11 -3.93358e-12 1.33014e-12)
(2.93722e-06 5.53154e-09 -1.3005e-09 1.42416e-11 -2.64996e-12 1.22309e-12)
(2.93953e-06 5.1181e-09 -8.13577e-10 1.49329e-11 -2.77626e-12 8.09304e-13)
(2.93183e-06 3.56778e-09 -3.73264e-10 1.06489e-11 -1.73637e-12 5.814e-13)
(2.93909e-06 2.09597e-09 -2.57263e-11 9.73393e-12 -9.57775e-13 3.62139e-13)
(2.93169e-06 9.31393e-10 1.78159e-10 1.08075e-11 -1.08737e-12 2.17768e-13)
(2.93738e-06 -1.15018e-09 8.80471e-11 8.53778e-12 -5.51921e-13 1.93615e-13)
(2.93713e-06 -1.61927e-09 -8.56431e-11 9.85123e-12 -1.33426e-13 2.04686e-13)
(2.94049e-06 -3.56927e-09 -3.0404e-10 1.0065e-11 8.71536e-13 2.00368e-13)
(2.94249e-06 -1.82868e-09 -1.00888e-09 1.28773e-11 9.81901e-13 5.23517e-13)
(2.94638e-06 -4.70065e-09 -1.38017e-09 1.15989e-11 1.86244e-12 9.76511e-13)
(2.94727e-06 -2.14255e-09 -1.77103e-09 7.72528e-12 1.19609e-12 1.64549e-12)
(2.9518e-06 -2.37919e-09 -2.22245e-09 9.00771e-12 1.97776e-12 2.16145e-12)
(2.95017e-06 -1.6733e-09 -2.64058e-09 4.50047e-12 1.20871e-12 2.88388e-12)
(2.95414e-06 -1.23214e-09 -2.38037e-09 3.89493e-12 1.82136e-12 2.75948e-12)
(2.94981e-06 -7.11431e-10 -2.58389e-09 7.16986e-12 1.35466e-12 3.27517e-12)
(2.95305e-06 -1.53624e-09 -2.46046e-09 9.36465e-12 9.39089e-13 3.28133e-12)
(2.9531e-06 -1.18578e-09 -1.70157e-09 1.07138e-11 3.8861e-13 2.22179e-12)
(2.94921e-06 -2.18731e-09 -1.24112e-09 1.39482e-11 -1.66975e-12 2.68013e-12)
(2.95017e-06 -1.27783e-09 -3.59844e-10 1.11709e-11 -1.72507e-12 2.32304e-12)
(2.94774e-06 -9.1969e-10 -1.0289e-09 9.13944e-12 -1.58768e-12 2.39538e-12)
(3.0095e-06 -5.36399e-09 7.15823e-10 1.98086e-11 -5.8631e-12 3.32279e-12)
(2.99586e-06 -4.95256e-09 1.60649e-09 1.47185e-11 -5.3616e-12 3.08932e-12)
(2.999e-06 -7.56291e-09 1.03883e-09 2.33124e-11 -4.32202e-12 1.85235e-12)
(3.00164e-06 -5.28354e-09 8.45476e-10 1.79717e-11 -2.57993e-12 1.23447e-12)
(2.99604e-06 -1.0389e-08 6.16316e-10 4.42516e-11 -4.02165e-12 1.26998e-12)
(3.00445e-06 -6.71803e-09 4.06906e-10 2.64599e-11 -2.06375e-12 2.05962e-12)
(3.00124e-06 -8.62274e-09 -4.48617e-10 3.80659e-11 1.84897e-13 1.23247e-12)
(3.00651e-06 -6.5285e-09 -9.44505e-10 2.83229e-11 -9.77589e-13 2.34287e-12)
(3.00799e-06 -4.38667e-09 -1.91058e-09 1.78697e-11 3.52794e-12 2.39303e-12)
(3.00694e-06 -4.24552e-09 -2.11169e-09 2.89429e-11 -1.75372e-12 3.10277e-12)
(3.00991e-06 -9.79001e-10 -2.79682e-09 2.04489e-11 -4.1168e-13 4.29192e-12)
(3.0068e-06 1.26398e-09 -3.22206e-09 2.39309e-11 -2.09255e-12 4.21065e-12)
(3.00732e-06 3.31671e-09 -3.33075e-09 1.57329e-11 -3.99221e-12 5.1443e-12)
(3.00576e-06 6.09592e-09 -3.75353e-09 3.10702e-11 -4.95125e-12 5.22663e-12)
(3.00164e-06 6.56228e-09 -3.60874e-09 2.85547e-11 -7.18486e-12 5.23623e-12)
(2.99912e-06 6.09106e-09 -3.77834e-09 2.45187e-11 -5.1638e-12 6.00229e-12)
(2.99673e-06 8.81954e-09 -3.39078e-09 3.43172e-11 -9.09462e-12 4.26648e-12)
(2.99099e-06 5.85879e-09 -3.40415e-09 2.30907e-11 -5.81964e-12 5.13228e-12)
(2.99116e-06 9.68022e-09 -3.07081e-09 3.67793e-11 -1.03272e-11 4.05629e-12)
(2.9835e-06 5.94765e-09 -2.45411e-09 1.82378e-11 -5.00775e-12 2.99963e-12)
(2.98368e-06 6.45546e-09 -1.91091e-09 2.62295e-11 -3.58432e-12 2.58438e-12)
(2.98314e-06 5.51662e-09 -1.34231e-09 2.32579e-11 -5.47048e-12 1.95235e-12)
(2.97673e-06 3.00103e-09 -4.81024e-10 1.1715e-11 -1.07679e-12 1.29131e-12)
(2.98278e-06 2.68734e-09 2.03364e-11 2.0005e-11 -2.03521e-12 5.86163e-13)
(2.97553e-06 -2.40635e-10 3.68585e-10 1.16545e-11 -2.22464e-12 7.88735e-13)
(2.98162e-06 -1.97662e-09 4.54792e-10 1.5286e-11 -9.04764e-13 3.96613e-13)
(2.9816e-06 -2.51314e-09 2.92201e-10 1.63445e-11 -1.28592e-12 3.53093e-13)
(2.9867e-06 -5.18991e-09 5.74377e-11 1.8629e-11 4.79038e-13 2.09212e-13)
(2.98804e-06 -2.33052e-09 -8.66992e-10 2.72044e-11 8.64355e-13 4.08413e-13)
(2.99241e-06 -6.85891e-09 -1.22787e-09 2.55207e-11 1.60569e-12 9.7504e-13)
(2.99583e-06 -2.29991e-09 -1.85238e-09 1.63497e-11 1.29725e-12 2.13181e-12)
(2.99864e-06 -3.30597e-09 -2.39887e-09 1.99088e-11 2.62229e-12 2.55307e-12)
(2.99771e-06 -1.68559e-09 -3.10674e-09 1.25062e-11 2.1569e-12 4.2767e-12)
(3.00124e-06 -6.10511e-10 -2.62485e-09 8.57489e-12 3.28599e-12 3.77374e-12)
(2.99552e-06 -1.2921e-09 -3.21765e-09 1.28746e-11 2.85091e-12 5.21588e-12)
(2.99944e-06 -1.12674e-09 -2.66913e-09 1.43681e-11 1.13123e-12 4.73612e-12)
(2.9988e-06 -1.55024e-09 -1.81897e-09 2.0295e-11 6.05e-13 3.08416e-12)
(2.99551e-06 -2.0106e-09 -1.11461e-09 2.02229e-11 -5.02712e-12 4.29716e-12)
(2.99875e-06 -1.75278e-09 -3.05108e-11 1.38698e-11 -4.26722e-12 3.18842e-12)
(2.99162e-06 -1.72546e-09 -6.31779e-10 1.1377e-11 -3.25944e-12 2.8463e-12)
(2.96495e-06 -5.8988e-09 1.74391e-09 3.07984e-11 -8.91925e-12 6.40784e-12)
(2.95063e-06 -6.18876e-09 2.67648e-09 3.03385e-11 -5.47769e-12 5.91439e-12)
(2.95586e-06 -7.97245e-09 2.27346e-09 4.07966e-11 -7.36488e-12 4.26156e-12)
(2.95544e-06 -4.56579e-09 1.808e-09 3.21803e-11 -3.56215e-12 2.8818e-12)
(2.95136e-06 -1.29367e-08 1.64862e-09 8.91135e-11 -9.71791e-12 3.12631e-12)
(2.9619e-06 -5.49746e-09 1.20556e-09 3.26612e-11 -2.30023e-12 4.88598e-12)
(2.95737e-06 -1.13502e-08 1.83201e-11 6.84481e-11 -2.48097e-12 2.14504e-12)
(2.96669e-06 -5.86862e-09 -7.25293e-10 4.98721e-11 -3.8586e-12 4.85298e-12)
(2.96597e-06 -4.47247e-09 -2.26336e-09 3.75117e-11 7.81016e-12 3.91433e-12)
(2.96611e-06 -4.61836e-09 -2.46894e-09 6.10109e-11 -7.22263e-12 5.73969e-12)
(2.97065e-06 3.74598e-10 -3.72571e-09 4.11279e-11 4.23675e-13 8.0983e-12)
(2.96643e-06 1.65169e-09 -4.14149e-09 5.68928e-11 -2.7144e-12 7.33558e-12)
(2.96785e-06 5.3021e-09 -4.34371e-09 3.82407e-11 -8.62968e-12 1.00957e-11)
(2.96486e-06 7.9492e-09 -4.96686e-09 6.26809e-11 -7.60529e-12 9.62049e-12)
(2.95803e-06 8.07013e-09 -4.72832e-09 4.70901e-11 -1.22857e-11 9.744e-12)
(2.95787e-06 7.05511e-09 -5.08131e-09 4.21158e-11 -7.50476e-12 1.20521e-11)
(2.95283e-06 1.12199e-08 -4.49581e-09 6.39239e-11 -1.54637e-11 7.54464e-12)
(2.94833e-06 5.56694e-09 -4.73e-09 3.73136e-11 -8.05647e-12 1.05615e-11)
(2.94755e-06 1.28145e-08 -4.15174e-09 7.46986e-11 -2.06868e-11 7.54195e-12)
(2.93683e-06 4.06499e-09 -3.38123e-09 2.87323e-11 -3.55535e-12 5.80347e-12)
(2.94051e-06 7.50374e-09 -2.62216e-09 5.54206e-11 -4.28227e-12 5.07929e-12)
(2.93654e-06 4.7488e-09 -1.93009e-09 4.49216e-11 -8.61461e-12 4.01589e-12)
(2.93165e-06 1.81966e-09 -5.32798e-10 2.70943e-11 2.33982e-12 2.33472e-12)
(2.93692e-06 3.21132e-09 5.0841e-11 4.97008e-11 -4.02619e-12 1.26977e-12)
(2.92821e-06 -2.7452e-09 6.61775e-10 2.12448e-11 -2.9242e-12 2.16864e-12)
(2.93682e-06 -2.63364e-09 8.2159e-10 4.34038e-11 -1.03656e-12 8.46981e-13)
(2.93563e-06 -4.13266e-09 6.49286e-10 3.70148e-11 -3.12119e-12 9.6575e-13)
(2.94334e-06 -6.91178e-09 3.44433e-10 4.26477e-11 6.08632e-14 4.08842e-13)
(2.94316e-06 -3.33304e-09 -9.29165e-10 7.08894e-11 1.47219e-12 6.02972e-13)
(2.94912e-06 -9.64369e-09 -1.24469e-09 6.59178e-11 1.36258e-12 1.44939e-12)
(2.95531e-06 -2.43491e-09 -2.28957e-09 4.56043e-11 3.55271e-12 3.9657e-12)
(2.95566e-06 -4.7206e-09 -2.94594e-09 5.23536e-11 5.02629e-12 4.09753e-12)
(2.95694e-06 -1.33455e-09 -4.03717e-09 4.01368e-11 5.59482e-12 8.34337e-12)
(2.95755e-06 1.09835e-10 -3.14172e-09 4.14238e-11 9.34257e-12 6.35477e-12)
(2.95152e-06 -2.46445e-09 -4.29089e-09 3.77744e-11 6.88143e-12 9.94159e-12)
(2.95594e-06 -2.23101e-10 -2.94522e-09 2.91635e-11 3.51213e-12 8.14924e-12)
(2.95391e-06 -2.8476e-09 -2.00624e-09 4.62451e-11 4.23815e-12 5.249e-12)
(2.95201e-06 -1.91405e-09 -1.02306e-09 3.686e-11 -1.09933e-11 8.28962e-12)
(2.9533e-06 -2.50646e-09 6.25326e-10 2.69767e-11 -7.53091e-12 4.65203e-12)
(2.94513e-06 -5.22045e-09 -5.64429e-12 2.92317e-11 -5.21143e-12 4.17568e-12)
(2.9172e-06 -5.94296e-09 3.16449e-09 7.70393e-11 -2.1378e-11 1.32958e-11)
(2.90179e-06 -7.60925e-09 3.97527e-09 8.04845e-11 -7.56788e-12 1.05322e-11)
(2.91007e-06 -7.46666e-09 3.84189e-09 9.04852e-11 -1.35332e-11 9.74369e-12)
(2.90343e-06 -4.00466e-09 2.93669e-09 9.05614e-11 -6.14173e-12 6.63541e-12)
(2.90353e-06 -1.64549e-08 2.93463e-09 1.95229e-10 -1.97835e-11 7.21318e-12)
(2.91522e-06 -3.57975e-09 2.00837e-09 7.58393e-11 2.64855e-12 1.11938e-11)
(2.9097e-06 -1.60357e-08 4.79588e-10 1.68991e-10 -7.01526e-12 4.13887e-12)
(2.92475e-06 -3.53362e-09 -6.76844e-10 1.07873e-10 -3.87356e-12 1.07556e-11)
(2.91888e-06 -6.05629e-09 -2.95953e-09 1.15611e-10 1.96006e-11 7.14295e-12)
(2.92268e-06 -4.84399e-09 -3.12293e-09 1.56192e-10 -1.91025e-11 1.14983e-11)
(2.92802e-06 1.62843e-09 -5.22412e-09 1.27862e-10 4.44277e-12 1.59786e-11)
(2.92301e-06 1.60803e-09 -5.38949e-09 1.56332e-10 -2.72909e-12 1.30848e-11)
(2.92563e-06 8.69782e-09 -5.76507e-09 1.0573e-10 -1.6785e-11 2.06722e-11)
(2.91918e-06 9.40968e-09 -6.49684e-09 1.53676e-10 -7.74237e-12 1.8018e-11)
(2.9101e-06 9.53959e-09 -6.09612e-09 9.79676e-11 -2.06794e-11 1.80665e-11)
(2.91335e-06 7.68961e-09 -6.72429e-09 8.97328e-11 -8.75713e-12 2.43162e-11)
(2.90467e-06 1.30158e-08 -5.87493e-09 1.31231e-10 -2.24389e-11 1.30066e-11)
(2.9034e-06 5.04782e-09 -6.43343e-09 8.75805e-11 -1.23092e-11 2.13905e-11)
(2.89926e-06 1.60899e-08 -5.46741e-09 1.57178e-10 -3.7484e-11 1.37358e-11)
(2.88642e-06 5.50549e-10 -4.52875e-09 7.07383e-11 3.05372e-12 1.08553e-11)
(2.89481e-06 9.59743e-09 -3.53139e-09 1.2815e-10 -6.03255e-12 1.01505e-11)
(2.88545e-06 2.33193e-09 -2.61665e-09 9.67246e-11 -8.13648e-12 7.90788e-12)
(2.8846e-06 1.67556e-09 -5.92173e-10 7.64712e-11 8.45437e-12 4.0571e-12)
(2.8862e-06 3.34375e-09 5.86842e-11 1.17006e-10 -6.68772e-12 3.33165e-12)
(2.8772e-06 -6.03482e-09 1.11878e-09 6.13228e-11 -2.17191e-12 5.42168e-12)
(2.88904e-06 -2.53584e-09 1.22019e-09 1.18567e-10 -1.5206e-12 2.10136e-12)
(2.88529e-06 -6.7351e-09 1.0806e-09 8.80469e-11 -5.81224e-12 2.84095e-12)
(2.89708e-06 -8.28775e-09 4.86355e-10 1.07332e-10 -3.44494e-13 8.96174e-13)
(2.89359e-06 -4.91411e-09 -1.18397e-09 1.83783e-10 3.34414e-12 1.46606e-12)
(2.90307e-06 -1.32554e-08 -1.49546e-09 1.73368e-10 2.00729e-12 2.77199e-12)
(2.91205e-06 -2.24338e-09 -3.21005e-09 1.42373e-10 9.65424e-12 8.65082e-12)
(2.9096e-06 -6.9931e-09 -3.95208e-09 1.60647e-10 1.2047e-11 8.05199e-12)
(2.91391e-06 2.45985e-10 -5.52326e-09 1.16315e-10 1.24242e-11 1.8477e-11)
(2.90923e-06 6.57038e-11 -4.02764e-09 1.3466e-10 2.41582e-11 1.2125e-11)
(2.90455e-06 -3.2209e-09 -5.91262e-09 1.11795e-10 1.29739e-11 2.07816e-11)
(2.90863e-06 6.20964e-10 -3.15398e-09 9.6845e-11 1.07768e-11 1.55937e-11)
(2.90563e-06 -4.63499e-09 -2.42035e-09 1.52106e-10 1.33242e-11 1.08544e-11)
(2.9058e-06 -7.50924e-10 -8.18184e-10 1.18793e-10 -2.95819e-11 1.74532e-11)
(2.90319e-06 -3.45122e-09 1.51985e-09 9.50228e-11 -1.34927e-11 7.00541e-12)
(2.89605e-06 -6.7827e-09 9.30904e-10 8.82612e-11 -1.30659e-11 8.48586e-12)
(2.87292e-06 -6.74577e-09 5.2008e-09 2.10756e-10 -5.12938e-11 2.98689e-11)
(2.85727e-06 -9.47207e-09 5.46674e-09 2.29388e-10 -7.03301e-12 1.80421e-11)
(2.86886e-06 -5.76312e-09 5.96524e-09 2.40541e-10 -2.48072e-11 2.28396e-11)
(2.85241e-06 -3.99687e-09 4.27136e-09 2.48588e-10 -1.14119e-11 1.53884e-11)
(2.86037e-06 -2.00875e-08 4.52532e-09 4.19458e-10 -3.25423e-11 1.55135e-11)
(2.87063e-06 -1.02665e-09 2.7367e-09 2.08421e-10 1.79326e-11 2.50513e-11)
(2.86622e-06 -2.24522e-08 8.88272e-10 4.27052e-10 -1.22146e-11 8.68066e-12)
(2.88764e-06 1.64041e-09 -9.62479e-10 2.73875e-10 6.80249e-12 2.4123e-11)
(2.87328e-06 -9.8503e-09 -4.14541e-09 3.18839e-10 4.64693e-11 1.48821e-11)
(2.8846e-06 -3.24352e-09 -4.23808e-09 3.69582e-10 -4.36418e-11 2.4225e-11)
(2.8882e-06 2.38224e-09 -7.48063e-09 3.59282e-10 1.42405e-11 3.29816e-11)
(2.88463e-06 1.93008e-09 -7.03014e-09 4.28775e-10 -9.56876e-13 2.35098e-11)
(2.88719e-06 1.44889e-08 -7.82354e-09 3.14422e-10 -3.44399e-11 4.28872e-11)
(2.87526e-06 1.00142e-08 -8.33189e-09 3.68663e-10 2.01409e-12 3.41426e-11)
(2.8654e-06 1.24704e-08 -7.78211e-09 2.32813e-10 -3.88642e-11 3.3983e-11)
(2.87202e-06 7.72102e-09 -8.76546e-09 2.24633e-10 -5.50433e-12 4.94895e-11)
(2.85949e-06 1.52283e-08 -7.53634e-09 3.12007e-10 -2.99644e-11 2.18979e-11)
(2.86253e-06 4.67634e-09 -8.58585e-09 2.32402e-10 -2.39161e-11 4.276e-11)
(2.85204e-06 1.93478e-08 -6.94277e-09 3.41491e-10 -6.16954e-11 2.4558e-11)
(2.83909e-06 -4.54704e-09 -6.01069e-09 2.04098e-10 1.79106e-11 2.03081e-11)
(2.85289e-06 1.22434e-08 -4.65168e-09 2.98363e-10 -6.83343e-12 2.12676e-11)
(2.83683e-06 -2.39438e-09 -3.5049e-09 2.38224e-10 4.25206e-12 1.58096e-11)
(2.84274e-06 2.79269e-09 -7.67451e-10 1.94612e-10 1.95715e-11 7.42372e-12)
(2.83677e-06 2.01493e-09 5.47619e-11 2.61592e-10 -8.94228e-12 9.76114e-12)
(2.83036e-06 -9.99037e-09 1.80306e-09 1.83475e-10 9.71796e-13 1.32964e-11)
(2.84502e-06 -1.91601e-09 1.61927e-09 3.06615e-10 -1.24477e-12 6.03639e-12)
(2.83787e-06 -1.0727e-08 1.57839e-09 2.22342e-10 -7.76326e-12 8.63585e-12)
(2.8547e-06 -8.76508e-09 4.04304e-10 2.74553e-10 -1.26037e-12 2.05525e-12)
(2.84603e-06 -8.1863e-09 -1.64929e-09 4.37498e-10 9.48016e-12 4.04553e-12)
(2.86183e-06 -1.67959e-08 -2.02697e-09 4.03431e-10 6.03953e-12 5.906e-12)
(2.87256e-06 -2.82843e-09 -4.73974e-09 3.96375e-10 2.67238e-11 1.98989e-11)
(2.86822e-06 -9.63136e-09 -5.57428e-09 4.39816e-10 2.69454e-11 1.75267e-11)
(2.87532e-06 3.08656e-09 -7.80866e-09 3.10811e-10 2.63568e-11 4.24355e-11)
(2.86272e-06 -1.05747e-09 -5.35837e-09 3.75743e-10 5.88101e-11 2.47829e-11)
(2.86171e-06 -3.35283e-09 -8.20943e-09 2.80173e-10 1.9134e-11 4.46404e-11)
(2.8639e-06 7.96036e-10 -3.20838e-09 2.845e-10 3.67544e-11 3.27346e-11)
(2.86132e-06 -7.00674e-09 -3.18694e-09 4.39051e-10 3.62349e-11 2.52441e-11)
(2.86339e-06 1.34588e-09 -4.09928e-10 3.46368e-10 -7.34663e-11 3.73447e-11)
(2.85436e-06 -5.74892e-09 2.64319e-09 2.91779e-10 -1.67836e-11 1.23726e-11)
(2.85102e-06 -8.45182e-09 1.96851e-09 2.52059e-10 -2.84135e-11 2.24901e-11)
(2.83195e-06 -8.54877e-09 7.91963e-09 5.46324e-10 -1.21571e-10 6.63722e-11)
(2.81821e-06 -1.06792e-08 7.05628e-09 6.12962e-10 6.0012e-13 2.91609e-11)
(2.83144e-06 -2.55241e-09 8.73396e-09 6.50903e-10 -5.1453e-11 5.19936e-11)
(2.80205e-06 -4.63855e-09 5.65261e-09 6.36827e-10 -2.43244e-11 3.45232e-11)
(2.82212e-06 -2.32405e-08 6.35642e-09 8.59736e-10 -3.93444e-11 3.06542e-11)
(2.82733e-06 1.22735e-09 3.19139e-09 5.56824e-10 4.79384e-11 5.52622e-11)
(2.82843e-06 -2.99711e-08 1.07998e-09 1.04381e-09 -4.12915e-12 1.93708e-11)
(2.85433e-06 9.69189e-09 -1.85051e-09 7.40202e-10 4.77348e-11 5.44713e-11)
(2.8292e-06 -1.6982e-08 -5.98678e-09 8.02437e-10 1.05979e-10 3.51832e-11)
(2.85237e-06 1.37564e-09 -6.02684e-09 7.93808e-10 -8.47466e-11 5.24774e-11)
(2.85044e-06 7.19155e-10 -1.06078e-08 8.77481e-10 3.78067e-11 7.00812e-11)
(2.85314e-06 3.82242e-09 -9.18463e-09 1.08717e-09 4.01519e-12 4.26421e-11)
(2.85142e-06 2.23289e-08 -1.06045e-08 8.76335e-10 -6.55779e-11 8.77849e-11)
(2.83306e-06 9.29972e-09 -1.03056e-08 8.6958e-10 4.3051e-11 6.35017e-11)
(2.82394e-06 1.76414e-08 -9.91402e-09 5.50383e-10 -7.3996e-11 6.52688e-11)
(2.83322e-06 5.67701e-09 -1.1197e-08 5.71832e-10 2.26004e-11 1.00316e-10)
(2.81823e-06 1.85356e-08 -9.58365e-09 7.99441e-10 -3.55752e-11 3.72713e-11)
(2.82552e-06 3.97016e-09 -1.12754e-08 6.31806e-10 -4.81927e-11 8.5168e-11)
(2.80581e-06 2.22344e-08 -8.60154e-09 7.44416e-10 -9.06432e-11 4.53139e-11)
(2.79577e-06 -1.10244e-08 -7.90773e-09 5.50927e-10 4.59568e-11 3.88288e-11)
(2.81446e-06 1.5031e-08 -6.08968e-09 6.92759e-10 -1.98107e-12 4.63391e-11)
(2.79197e-06 -9.38496e-09 -4.64378e-09 6.16979e-10 4.26884e-11 3.38424e-11)
(2.80633e-06 5.95506e-09 -1.19313e-09 4.67117e-10 3.85333e-11 1.53744e-11)
(2.78794e-06 -1.82994e-09 1.3473e-10 5.65256e-10 -1.07368e-11 2.87738e-11)
(2.78909e-06 -1.35105e-08 2.82873e-09 4.72087e-10 3.77093e-12 3.36915e-11)
(2.80411e-06 -1.29617e-09 2.09292e-09 7.20703e-10 7.39712e-13 1.91492e-11)
(2.79395e-06 -1.57666e-08 2.06413e-09 5.652e-10 -7.95646e-12 2.61928e-11)
(2.81586e-06 -7.93913e-09 -5.46787e-11 7.09928e-10 -7.44475e-12 6.01242e-12)
(2.80047e-06 -1.38434e-08 -2.31763e-09 9.69983e-10 2.6589e-11 1.05327e-11)
(2.82554e-06 -1.95368e-08 -2.97923e-09 8.44427e-10 2.08468e-11 1.33311e-11)
(2.83663e-06 -5.31516e-09 -7.08204e-09 9.81417e-10 6.8825e-11 4.62391e-11)
(2.83287e-06 -1.13859e-08 -7.98232e-09 1.09017e-09 5.13001e-11 3.87397e-11)
(2.84025e-06 6.84615e-09 -1.108e-08 7.898e-10 5.24503e-11 9.47805e-11)
(2.81841e-06 -3.33936e-09 -7.23974e-09 9.08615e-10 1.26399e-10 5.1622e-11)
(2.82316e-06 -2.32099e-09 -1.12485e-08 6.02888e-10 1.59588e-11 9.36518e-11)
(2.82125e-06 -8.40214e-10 -3.01093e-09 7.34563e-10 1.1458e-10 7.16475e-11)
(2.82235e-06 -9.13088e-09 -4.45295e-09 1.12209e-09 8.16711e-11 5.91668e-11)
(2.8242e-06 4.17745e-09 2.86477e-10 9.36477e-10 -1.66089e-10 7.69011e-11)
(2.8072e-06 -9.7235e-09 3.83523e-09 8.15322e-10 -3.75306e-12 2.58357e-11)
(2.81077e-06 -9.18511e-09 3.24563e-09 6.54122e-10 -6.10776e-11 6.07958e-11)
(2.79413e-06 -1.24691e-08 1.15212e-08 1.30971e-09 -2.74548e-10 1.44554e-10)
(2.78547e-06 -1.05444e-08 8.40968e-09 1.50998e-09 2.367e-11 4.26517e-11)
(2.79679e-06 1.55571e-09 1.21512e-08 1.65646e-09 -1.19815e-10 1.13907e-10)
(2.75266e-06 -5.54131e-09 6.76048e-09 1.51927e-09 -4.8012e-11 7.52966e-11)
(2.78831e-06 -2.56991e-08 8.32024e-09 1.73336e-09 -1.71854e-11 5.75363e-11)
(2.78501e-06 2.24811e-09 3.03793e-09 1.33498e-09 9.27731e-11 1.21728e-10)
(2.79761e-06 -3.72596e-08 7.31326e-10 2.35199e-09 6.03072e-11 4.59943e-11)
(2.82312e-06 1.99025e-08 -3.71542e-09 1.92661e-09 1.4961e-10 1.22924e-10)
(2.78758e-06 -2.73219e-08 -8.73519e-09 1.88023e-09 2.30472e-10 9.01941e-11)
(2.82556e-06 1.00607e-08 -8.6789e-09 1.59554e-09 -1.40972e-10 1.14898e-10)
(2.81433e-06 -5.14438e-09 -1.47892e-08 1.86707e-09 9.14237e-11 1.53332e-10)
(2.83038e-06 9.58855e-09 -1.21573e-08 2.50189e-09 6.19094e-12 8.09606e-11)
(2.81649e-06 3.11975e-08 -1.44139e-08 2.19985e-09 -1.22945e-10 1.76552e-10)
(2.7934e-06 8.10471e-09 -1.21986e-08 1.94719e-09 1.50486e-10 1.15473e-10)
(2.78491e-06 2.57766e-08 -1.26123e-08 1.24841e-09 -1.34102e-10 1.27335e-10)
(2.79648e-06 4.18584e-10 -1.38751e-08 1.38401e-09 1.25532e-10 1.99155e-10)
(2.78181e-06 2.46733e-08 -1.21991e-08 1.97428e-09 -3.47478e-11 6.71779e-11)
(2.79092e-06 2.13537e-09 -1.46263e-08 1.63621e-09 -8.80764e-11 1.70163e-10)
(2.76055e-06 2.53312e-08 -1.0417e-08 1.63255e-09 -1.14631e-10 8.68136e-11)
(2.75619e-06 -1.90205e-08 -1.03132e-08 1.33788e-09 1.01442e-10 7.65744e-11)
(2.77897e-06 1.70594e-08 -7.75346e-09 1.54846e-09 2.47847e-11 1.01401e-10)
(2.7519e-06 -1.78897e-08 -6.39285e-09 1.54241e-09 1.29768e-10 7.64054e-11)
(2.77421e-06 1.06518e-08 -1.98419e-09 1.11544e-09 7.16114e-11 3.67028e-11)
(2.73963e-06 -8.92337e-09 4.63363e-10 1.23861e-09 -1.74199e-11 8.28485e-11)
(2.75412e-06 -1.57695e-08 4.40311e-09 1.0655e-09 -3.14789e-12 8.98477e-11)
(2.7654e-06 -1.70641e-09 2.71003e-09 1.52408e-09 3.17428e-12 6.15813e-11)
(2.75448e-06 -2.06946e-08 2.32928e-09 1.38709e-09 -9.79142e-12 8.03688e-11)
(2.77941e-06 -5.92019e-09 -1.0111e-09 1.78929e-09 -3.58804e-11 2.15744e-11)
(2.75709e-06 -2.23122e-08 -3.17981e-09 2.03486e-09 6.62077e-11 2.68099e-11)
(2.79399e-06 -2.09009e-08 -4.46725e-09 1.63655e-09 6.06762e-11 3.34105e-11)
(2.80451e-06 -1.11853e-08 -1.03226e-08 2.16726e-09 1.67188e-10 1.08378e-10)
(2.80451e-06 -1.04004e-08 -1.15216e-08 2.41652e-09 7.48129e-11 8.56679e-11)
(2.80724e-06 1.02966e-08 -1.56486e-08 1.86788e-09 9.45718e-11 2.00744e-10)
(2.77682e-06 -5.74898e-09 -9.67775e-09 1.9649e-09 2.3343e-10 1.06891e-10)
(2.78777e-06 -2.50129e-10 -1.51244e-08 1.19138e-09 -1.26469e-11 1.8864e-10)
(2.78072e-06 -5.31262e-09 -2.58032e-09 1.68156e-09 3.07191e-10 1.54461e-10)
(2.78963e-06 -9.78347e-09 -6.38554e-09 2.50231e-09 1.52089e-10 1.32697e-10)
(2.78684e-06 6.32268e-09 1.24748e-09 2.25158e-09 -3.30844e-10 1.51565e-10)
(2.76232e-06 -1.50256e-08 5.04842e-09 2.02515e-09 6.87674e-11 6.21807e-11)
(2.77496e-06 -9.3976e-09 4.9111e-09 1.54899e-09 -1.28659e-10 1.56177e-10)
(2.76034e-06 -1.8465e-08 1.57903e-08 2.89845e-09 -5.77597e-10 3.08863e-10)
(2.75984e-06 -8.49552e-09 9.17946e-09 3.39235e-09 6.05487e-11 6.2174e-11)
(2.76422e-06 5.86867e-09 1.60411e-08 3.82866e-09 -2.8131e-10 2.38262e-10)
(2.70488e-06 -5.9357e-09 7.33846e-09 3.4354e-09 -7.47789e-11 1.6196e-10)
(2.75789e-06 -2.80786e-08 1.03175e-08 3.50685e-09 8.18054e-11 1.07287e-10)
(2.74434e-06 1.64717e-09 1.87136e-09 2.97642e-09 1.56664e-10 2.68369e-10)
(2.77453e-06 -4.34113e-08 -5.87316e-10 4.91969e-09 2.87152e-10 1.15098e-10)
(2.79253e-06 3.0663e-08 -6.93007e-09 4.59303e-09 3.68588e-10 2.76092e-10)
(2.75003e-06 -3.98409e-08 -1.25297e-08 4.19111e-09 4.83719e-10 2.36188e-10)
(2.8027e-06 2.24127e-08 -1.21067e-08 3.13575e-09 -1.84474e-10 2.54283e-10)
(2.78065e-06 -1.66033e-08 -2.01117e-08 3.61806e-09 2.05609e-10 3.46368e-10)
(2.81765e-06 2.09641e-08 -1.62093e-08 5.24351e-09 -7.64453e-12 1.71329e-10)
(2.78064e-06 3.90489e-08 -1.95562e-08 4.95408e-09 -2.14878e-10 3.51901e-10)
(2.75776e-06 8.19429e-09 -1.38149e-08 4.12709e-09 3.73422e-10 2.08911e-10)
(2.74652e-06 3.5922e-08 -1.59217e-08 2.66954e-09 -2.07609e-10 2.49262e-10)
(2.76237e-06 -8.69596e-09 -1.66363e-08 3.1285e-09 4.18458e-10 3.86522e-10)
(2.75092e-06 3.48637e-08 -1.56718e-08 4.50138e-09 -8.4657e-12 1.3729e-10)
(2.7578e-06 -2.40483e-09 -1.87115e-08 3.90673e-09 -1.19352e-10 3.4198e-10)
(2.71697e-06 2.99821e-08 -1.22776e-08 3.53061e-09 -1.05609e-10 1.70419e-10)
(2.71958e-06 -2.95405e-08 -1.30205e-08 3.00252e-09 2.16528e-10 1.54446e-10)
(2.74713e-06 1.81887e-08 -9.63209e-09 3.29327e-09 1.00731e-10 2.1941e-10)
(2.71752e-06 -2.72954e-08 -9.01577e-09 3.55532e-09 3.00866e-10 1.77529e-10)
(2.74526e-06 1.58553e-08 -3.24346e-09 2.64245e-09 1.36629e-10 9.98964e-11)
(2.69266e-06 -1.91337e-08 1.3861e-09 2.8333e-09 -3.79651e-11 2.30766e-10)
(2.72578e-06 -1.65279e-08 6.97917e-09 2.24299e-09 -2.54617e-11 2.45405e-10)
(2.72885e-06 -3.82995e-09 3.69749e-09 2.94622e-09 4.49379e-12 1.95048e-10)
(2.72045e-06 -2.40857e-08 2.0791e-09 3.19267e-09 -2.78607e-11 2.46281e-10)
(2.74389e-06 -3.51587e-09 -2.58735e-09 4.2733e-09 -1.24689e-10 8.2297e-11)
(2.71659e-06 -3.33937e-08 -4.20572e-09 4.14885e-09 1.42154e-10 7.0757e-11)
(2.76623e-06 -2.09161e-08 -6.43171e-09 3.05096e-09 1.56771e-10 9.35384e-11)
(2.77724e-06 -2.14463e-08 -1.44979e-08 4.36239e-09 3.80629e-10 2.62287e-10)
(2.78388e-06 -4.84022e-09 -1.65966e-08 4.88069e-09 5.55219e-11 1.95682e-10)
(2.77512e-06 1.16564e-08 -2.18777e-08 4.05045e-09 1.40728e-10 4.0647e-10)
(2.73912e-06 -6.41712e-09 -1.27234e-08 3.82849e-09 3.45797e-10 2.23354e-10)
(2.75375e-06 1.58199e-09 -1.97321e-08 2.26093e-09 -7.97022e-11 3.6184e-10)
(2.74332e-06 -1.25496e-08 -1.88468e-09 3.4926e-09 7.12159e-10 3.1724e-10)
(2.7634e-06 -8.15268e-09 -9.08555e-09 4.98713e-09 2.21564e-10 2.87371e-10)
(2.75038e-06 6.18512e-09 2.13442e-09 4.8721e-09 -5.8166e-10 2.95664e-10)
(2.72087e-06 -2.02646e-08 6.1547e-09 4.54209e-09 2.99115e-10 1.56094e-10)
(2.74267e-06 -1.01332e-08 7.18354e-09 3.37447e-09 -2.49065e-10 3.79804e-10)
(2.73196e-06 -2.54399e-08 2.03582e-08 5.92358e-09 -1.09728e-09 6.8081e-10)
(2.74119e-06 -5.38749e-09 8.86427e-09 6.98402e-09 7.90293e-11 1.30045e-10)
(2.73372e-06 1.00267e-08 1.97477e-08 7.99857e-09 -6.04601e-10 4.92231e-10)
(2.65941e-06 -5.15834e-09 7.00764e-09 7.43925e-09 -4.73727e-11 3.54467e-10)
(2.73012e-06 -3.15472e-08 1.20338e-08 7.09307e-09 3.74256e-10 2.12867e-10)
(2.7069e-06 2.0414e-10 -1.13813e-09 6.24952e-09 2.83346e-10 6.04503e-10)
(2.75918e-06 -4.88654e-08 -3.5104e-09 9.70063e-09 8.981e-10 3.13304e-10)
(2.76236e-06 4.06212e-08 -1.22285e-08 1.00245e-08 8.09198e-10 6.24504e-10)
(2.71841e-06 -5.2749e-08 -1.7194e-08 8.98884e-09 9.97219e-10 6.15329e-10)
(2.78205e-06 3.70907e-08 -1.5955e-08 6.19354e-09 -1.0758e-10 5.77737e-10)
(2.75122e-06 -3.31323e-08 -2.65149e-08 6.68639e-09 4.25059e-10 8.19075e-10)
(2.81548e-06 3.83958e-08 -2.17222e-08 1.02319e-08 -7.00834e-11 4.37832e-10)
(2.74354e-06 4.42383e-08 -2.6276e-08 1.02338e-08 -3.3717e-10 7.18995e-10)
(2.72775e-06 1.20129e-08 -1.47733e-08 8.32568e-09 7.85095e-10 3.9599e-10)
(2.70676e-06 4.58765e-08 -1.9661e-08 5.39528e-09 -2.15869e-10 4.92874e-10)
(2.73266e-06 -2.04064e-08 -1.91628e-08 6.58037e-09 1.12578e-09 7.50265e-10)
(2.7256e-06 4.88587e-08 -2.03986e-08 9.40045e-09 9.56709e-11 3.43328e-10)
(2.726e-06 -1.04427e-08 -2.38129e-08 8.58904e-09 -5.88352e-11 7.11882e-10)
(2.67599e-06 3.78426e-08 -1.3952e-08 7.42659e-09 1.23941e-11 3.41815e-10)
(2.68508e-06 -4.42689e-08 -1.54762e-08 6.32716e-09 4.64664e-10 3.24655e-10)
(2.72033e-06 1.9362e-08 -1.15438e-08 6.65159e-09 2.79455e-10 4.74963e-10)
(2.68891e-06 -3.80548e-08 -1.28685e-08 7.56098e-09 6.25511e-10 4.31073e-10)
(2.7188e-06 2.03653e-08 -4.87594e-09 6.03938e-09 3.0576e-10 2.99294e-10)
(2.64843e-06 -3.15615e-08 3.39668e-09 6.60751e-09 -5.34482e-11 6.30169e-10)
(2.7041e-06 -1.62865e-08 1.14869e-08 4.67369e-09 -1.28765e-11 6.80855e-10)
(2.69529e-06 -7.46171e-09 5.44388e-09 5.37286e-09 4.37139e-11 6.12001e-10)
(2.69253e-06 -2.52706e-08 9.50233e-10 6.84687e-09 -6.83079e-11 7.58966e-10)
(2.70836e-06 -2.18605e-09 -4.85793e-09 9.52676e-09 -3.2002e-10 3.11417e-10)
(2.68019e-06 -4.63452e-08 -5.31588e-09 8.34133e-09 2.85832e-10 2.05021e-10)