/*--------------------------------*- C++ -*----------------------------------*\
  =========                 |
  \\      /  F ield         | OpenFOAM: The Open Source CFD Toolbox
   \\    /   O peration     | Website:  https://openfoam.org
    \\  /    A nd           | Version:  10
     \\/     M anipulation  |
\*---------------------------------------------------------------------------*/
FoamFile
{
    format      ascii;
    class       volScalarField;
    location    "14";
    object      pMean;
}
// * * * * * * * * * * * * * * * * * * * * * * * * * * * * * * * * * * * * * //

dimensions      [0 2 -2 0 0 0 0];

internalField   nonuniform List<scalar> 
25600
(
-5.65027e-05
-0.000160281
9.90699e-06
0.000111353
-0.000111488
-0.000320826
-0.000341247
-0.000194315
-5.89829e-05
-0.000143114
-0.000163487
-4.42318e-05
-5.78475e-05
-9.21262e-05
-7.83087e-05
-0.000199031
-0.000224841
-0.000242753
-0.000193537
-0.000114924
-5.9274e-05
-0.000101365
-0.000213478
-5.74687e-05
0.0001702
8.48916e-05
-0.000118579
-0.000158317
-0.000199818
-0.000228644
-0.000201838
-0.000238865
-0.000192999
-0.000198834
-0.000146344
-4.98182e-05
-2.47407e-05
-3.48596e-05
0.000138869
0.000186111
-5.85825e-05
-0.00016048
1.21541e-05
0.000113666
-0.000112267
-0.000321736
-0.000339907
-0.000190625
-5.49793e-05
-0.000142054
-0.000163725
-4.36875e-05
-5.63266e-05
-8.91169e-05
-7.80315e-05
-0.000200269
-0.000225575
-0.000240373
-0.000191871
-0.000116582
-6.20778e-05
-0.000101719
-0.000212413
-5.62692e-05
0.000169049
8.29584e-05
-0.000119966
-0.00015786
-0.000199579
-0.000230264
-0.000204359
-0.000240697
-0.000193501
-0.000198692
-0.000147847
-5.10345e-05
-2.25223e-05
-3.18244e-05
0.000140293
0.000185923
-7.24585e-05
-0.000170433
1.1551e-05
0.000115658
-0.000116923
-0.000334274
-0.000350132
-0.000192657
-5.39447e-05
-0.000145579
-0.00017223
-4.82097e-05
-5.84343e-05
-8.86756e-05
-8.32318e-05
-0.000212277
-0.000233802
-0.000244506
-0.000193345
-0.000122458
-7.41628e-05
-0.000111324
-0.000214729
-5.63532e-05
0.000170091
7.42316e-05
-0.000131048
-0.000161576
-0.00020231
-0.000235713
-0.00021245
-0.000250697
-0.000198404
-0.000202971
-0.000155073
-6.16214e-05
-3.05583e-05
-3.43264e-05
0.000137402
0.000179013
-9.76812e-05
-0.000198518
-2.82206e-06
0.00011062
-0.000132404
-0.000366373
-0.000385579
-0.000220459
-6.40289e-05
-0.000160973
-0.000194237
-6.95238e-05
-8.10382e-05
-0.000105283
-0.000103186
-0.000244673
-0.000260589
-0.000258484
-0.000210546
-0.000142601
-9.64572e-05
-0.000132168
-0.000222599
-6.45422e-05
0.000161416
6.47646e-05
-0.00014945
-0.000175171
-0.000211121
-0.000247566
-0.000226286
-0.000272694
-0.000218306
-0.000220351
-0.000174225
-8.46099e-05
-4.91678e-05
-4.86228e-05
0.000119252
0.000158838
-0.000114284
-0.000231142
-3.99434e-05
7.55612e-05
-0.000162962
-0.000408465
-0.00044452
-0.000276649
-0.000104871
-0.000203231
-0.000238743
-0.000107249
-0.000123812
-0.000147541
-0.000148129
-0.000290436
-0.000290166
-0.000288129
-0.000252127
-0.000177839
-0.000130987
-0.000163389
-0.000238149
-7.98124e-05
0.000147489
4.361e-05
-0.000176125
-0.000199135
-0.000224706
-0.000264161
-0.0002498
-0.000302768
-0.0002578
-0.000274021
-0.000231945
-0.000134425
-0.000100444
-0.000104562
7.30433e-05
0.00013209
-0.000142528
-0.000257626
-8.84548e-05
2.01053e-05
-0.000223932
-0.000476282
-0.000516274
-0.000363684
-0.000186842
-0.000278316
-0.000306904
-0.000173115
-0.000190931
-0.000224893
-0.000221331
-0.000362959
-0.000339669
-0.000345346
-0.000343525
-0.00025059
-0.000178584
-0.000223355
-0.000291367
-0.000140131
9.02363e-05
-1.04012e-05
-0.000225382
-0.000251199
-0.000271342
-0.000304812
-0.00028889
-0.000355277
-0.00034035
-0.000389245
-0.000335864
-0.000220515
-0.000204209
-0.000212885
-3.48199e-05
4.81242e-05
-0.000202917
-0.000291532
-0.000140631
-7.98253e-05
-0.00031002
-0.000541734
-0.000581411
-0.000445868
-0.000295865
-0.000403165
-0.000418954
-0.000258399
-0.000273335
-0.000325954
-0.00032454
-0.000461662
-0.000438996
-0.000459556
-0.000463588
-0.000349149
-0.000241939
-0.000286573
-0.000381134
-0.000241403
-2.2592e-05
-0.000107128
-0.000313249
-0.000333638
-0.000340224
-0.000373069
-0.000344012
-0.000441852
-0.000470562
-0.000541983
-0.000470409
-0.00030205
-0.000314563
-0.000375621
-0.00019558
-5.95259e-05
-0.000271785
-0.000338366
-0.000199498
-0.0001605
-0.000414898
-0.000650829
-0.000668188
-0.000546595
-0.000434585
-0.00052235
-0.000510382
-0.000329483
-0.000340455
-0.00041289
-0.000437917
-0.000581184
-0.000536489
-0.000556039
-0.000570229
-0.000446178
-0.000300069
-0.000312504
-0.000415984
-0.00031297
-0.000104273
-0.000173147
-0.000377091
-0.000409782
-0.000421247
-0.000454407
-0.000444519
-0.000583103
-0.000653355
-0.000707261
-0.00059131
-0.000380117
-0.000414606
-0.000503184
-0.00032527
-0.000159658
-0.000365594
-0.000390314
-0.000242889
-0.000196796
-0.000472741
-0.000770402
-0.000808238
-0.000651334
-0.000542783
-0.000624569
-0.000563486
-0.000348379
-0.000357874
-0.000445513
-0.000512423
-0.000667499
-0.000592277
-0.000605971
-0.000633695
-0.000503404
-0.000328219
-0.000302657
-0.000381698
-0.000293401
-0.00010794
-0.000180897
-0.000416836
-0.000494029
-0.000512255
-0.000557339
-0.00058467
-0.000746179
-0.000823987
-0.000847959
-0.000692188
-0.000455495
-0.000474796
-0.000566975
-0.000410344
-0.000262789
-0.000507544
-0.000519693
-0.000322511
-0.000217649
-0.00050302
-0.000852299
-0.000907297
-0.000732228
-0.000593916
-0.000664378
-0.000575772
-0.000344799
-0.000372522
-0.00046672
-0.000538776
-0.000674565
-0.00055755
-0.000592267
-0.000659577
-0.000505764
-0.000331339
-0.000311806
-0.000345482
-0.000288792
-0.000148222
-0.000216151
-0.000481124
-0.000613379
-0.000657921
-0.000710143
-0.000733534
-0.000895004
-0.000967794
-0.000941026
-0.000749572
-0.000481095
-0.000475631
-0.000585452
-0.00050249
-0.000395559
-0.000703757
-0.000706339
-0.00048317
-0.000325465
-0.000533148
-0.000841246
-0.000911188
-0.000777165
-0.000620489
-0.000654717
-0.000564087
-0.000352178
-0.000432571
-0.000553973
-0.000583381
-0.000683604
-0.000563514
-0.000622832
-0.000771487
-0.000614309
-0.000396989
-0.000375454
-0.000408136
-0.000367311
-0.000272556
-0.000336802
-0.000582276
-0.000745847
-0.000811575
-0.000862729
-0.000853664
-0.000964603
-0.00105456
-0.00101809
-0.000804094
-0.000545382
-0.000507969
-0.00062278
-0.000636083
-0.000583386
-0.000844937
-0.000805841
-0.000581383
-0.000422723
-0.000567416
-0.000813222
-0.000881537
-0.000809367
-0.000671661
-0.000663733
-0.000573911
-0.000398739
-0.00052518
-0.000689226
-0.000691154
-0.000739899
-0.000624338
-0.000681494
-0.000876145
-0.000750594
-0.000486218
-0.000439199
-0.00047906
-0.00045109
-0.000401844
-0.000469392
-0.000672008
-0.000832239
-0.000907941
-0.000953058
-0.000919266
-0.000963061
-0.00104496
-0.00103253
-0.00085321
-0.000607744
-0.000527867
-0.000646399
-0.000744986
-0.000754323
-0.000784253
-0.000728889
-0.000566514
-0.00044819
-0.000549574
-0.000737788
-0.000780801
-0.000736769
-0.000650134
-0.000643401
-0.00056831
-0.000444332
-0.000561011
-0.000723114
-0.000706593
-0.000696192
-0.000585991
-0.000626105
-0.000812224
-0.000745796
-0.000518991
-0.000442671
-0.000466035
-0.000452147
-0.000452013
-0.00052671
-0.000689309
-0.000838997
-0.000913876
-0.000945983
-0.000917868
-0.000912186
-0.000973105
-0.000993376
-0.000842493
-0.000597525
-0.000488109
-0.000586856
-0.000705359
-0.000738881
-0.000604486
-0.000565739
-0.000481772
-0.000417082
-0.00049658
-0.000647249
-0.000673801
-0.000618102
-0.000575981
-0.00058942
-0.000523452
-0.000436489
-0.000513582
-0.000625148
-0.000597835
-0.000547118
-0.000461502
-0.000490066
-0.000620913
-0.000612307
-0.000456376
-0.000368084
-0.000381443
-0.000396713
-0.000411195
-0.00048042
-0.000602116
-0.000727922
-0.00080381
-0.000833129
-0.000829465
-0.000813838
-0.000832571
-0.000858468
-0.000743222
-0.000526629
-0.000417502
-0.000494826
-0.000586874
-0.000595011
-0.000420301
-0.000408868
-0.000371884
-0.000346788
-0.000406221
-0.000520178
-0.000539324
-0.000478911
-0.000449656
-0.000471979
-0.000418821
-0.000349451
-0.000387197
-0.000448209
-0.000429727
-0.000386945
-0.000321937
-0.000335181
-0.000429584
-0.000448107
-0.000349213
-0.000268019
-0.000279483
-0.00030931
-0.000319425
-0.000365796
-0.00045017
-0.000551346
-0.000626922
-0.000658587
-0.000676182
-0.000652315
-0.000632028
-0.000649576
-0.000579925
-0.00041807
-0.000330134
-0.000381784
-0.00044064
-0.000422001
-0.000257075
-0.000265121
-0.000246191
-0.000234018
-0.000282858
-0.000360871
-0.000378258
-0.000321154
-0.000292241
-0.000325111
-0.000292921
-0.000235877
-0.000249956
-0.000280341
-0.000276433
-0.000253102
-0.000206798
-0.000215204
-0.000286462
-0.000312072
-0.000245441
-0.000181801
-0.000186429
-0.000217635
-0.000223293
-0.0002467
-0.000311497
-0.000388502
-0.000447311
-0.000481187
-0.000504689
-0.000472549
-0.000427713
-0.000447835
-0.000417873
-0.00030513
-0.000238601
-0.000268049
-0.000295949
-0.000256852
-0.000140187
-0.000151433
-0.00014019
-0.000142603
-0.000186834
-0.000234525
-0.000242486
-0.000199051
-0.000180344
-0.000214183
-0.000187113
-0.00013537
-0.000144619
-0.000157368
-0.000156598
-0.000142585
-0.000109688
-0.000117199
-0.000167614
-0.000192305
-0.000149148
-0.000106968
-0.000116498
-0.00014631
-0.000147349
-0.000149516
-0.000201052
-0.000258592
-0.000299415
-0.000326351
-0.000347683
-0.000323664
-0.000278787
-0.000301621
-0.000295218
-0.000216271
-0.000174106
-0.000189458
-0.000193224
-0.000144825
-6.0664e-05
-7.41845e-05
-6.25093e-05
-6.58553e-05
-0.00010658
-0.000135315
-0.000139028
-0.000112825
-0.000100115
-0.000127932
-0.000100597
-5.68388e-05
-7.18904e-05
-7.50793e-05
-6.85781e-05
-5.8481e-05
-3.26919e-05
-4.28133e-05
-7.26427e-05
-9.14572e-05
-6.89178e-05
-4.55069e-05
-6.31819e-05
-8.71529e-05
-8.5204e-05
-7.84093e-05
-0.000114595
-0.00015974
-0.000190514
-0.000209637
-0.000225131
-0.000214697
-0.000181741
-0.000198921
-0.000201657
-0.000142146
-0.00011784
-0.00013202
-0.000122241
-7.04265e-05
-1.88349e-05
-3.39073e-05
-2.18454e-05
-1.94413e-05
-5.70534e-05
-7.82417e-05
-7.93428e-05
-6.59297e-05
-5.81327e-05
-7.85278e-05
-5.48703e-05
-1.8238e-05
-3.63595e-05
-3.47718e-05
-2.36146e-05
-1.39974e-05
9.90802e-06
-2.82744e-06
-1.97528e-05
-2.84784e-05
-2.15498e-05
-1.08888e-05
-3.25963e-05
-5.17219e-05
-4.88289e-05
-3.91138e-05
-6.10456e-05
-9.83231e-05
-0.000123842
-0.000136855
-0.000147308
-0.000148912
-0.000126036
-0.000136245
-0.000142402
-9.34568e-05
-7.94958e-05
-9.62657e-05
-8.35655e-05
-3.30111e-05
-1.03468e-06
-1.54138e-05
-6.01048e-06
4.34741e-06
-2.68953e-05
-4.72556e-05
-4.58368e-05
-3.68864e-05
-3.31868e-05
-4.9841e-05
-2.98845e-05
2.17207e-06
-1.50895e-05
-1.29292e-05
1.46576e-07
7.1493e-06
3.17739e-05
1.78154e-05
3.3746e-06
4.35102e-06
4.97909e-06
8.82234e-06
-1.39637e-05
-2.86166e-05
-2.4936e-05
-1.8763e-05
-3.19727e-05
-6.14769e-05
-8.49249e-05
-9.63192e-05
-0.000103616
-0.000109789
-9.17919e-05
-9.77963e-05
-0.000106767
-6.44215e-05
-5.45895e-05
-7.43262e-05
-6.31891e-05
-2.08579e-05
4.58733e-06
-5.5239e-06
-2.22657e-06
1.21283e-05
-6.92174e-06
-2.70831e-05
-2.72108e-05
-1.84336e-05
-1.89634e-05
-3.52933e-05
-1.93564e-05
1.25877e-05
-2.02854e-06
-2.19084e-06
1.02871e-05
1.40089e-05
3.88658e-05
2.57498e-05
7.9971e-06
1.57647e-05
1.61618e-05
1.89214e-05
-2.51329e-06
-1.56723e-05
-1.13007e-05
-1.05775e-05
-1.88033e-05
-4.06743e-05
-6.32098e-05
-7.34072e-05
-7.83042e-05
-8.54793e-05
-7.1082e-05
-7.43728e-05
-8.64859e-05
-4.88389e-05
-3.90947e-05
-6.13254e-05
-5.26079e-05
-1.97575e-05
3.2375e-06
4.57457e-07
-2.33319e-07
1.19044e-05
6.48589e-06
-1.05079e-05
-1.74873e-05
-8.00245e-06
-7.34092e-06
-2.35782e-05
-1.22961e-05
1.78252e-05
7.62429e-06
5.76179e-06
1.66188e-05
1.58651e-05
3.98613e-05
3.04007e-05
9.43468e-06
2.01745e-05
2.08162e-05
2.42903e-05
6.77288e-06
-7.23593e-06
-2.32244e-06
-6.13089e-06
-1.28221e-05
-2.69867e-05
-4.87214e-05
-5.90419e-05
-6.19105e-05
-6.80365e-05
-5.51179e-05
-5.59834e-05
-7.30772e-05
-4.03393e-05
-2.67289e-05
-5.15687e-05
-4.54379e-05
-1.98697e-05
-1.86311e-06
2.47281e-06
2.08353e-06
8.087e-06
1.25499e-05
3.41285e-06
-1.14436e-05
-4.02559e-06
1.35981e-06
-1.33839e-05
-7.63133e-06
1.82288e-05
1.31029e-05
1.1178e-05
2.07816e-05
1.55454e-05
3.75896e-05
3.23991e-05
8.7298e-06
1.93951e-05
1.9654e-05
2.34065e-05
1.25314e-05
-2.64341e-06
1.38426e-06
-5.16701e-06
-1.3308e-05
-1.97071e-05
-3.84004e-05
-4.82627e-05
-5.10916e-05
-5.68903e-05
-4.44099e-05
-4.07736e-05
-6.19161e-05
-3.69506e-05
-1.81025e-05
-4.36588e-05
-3.96481e-05
-1.86332e-05
-5.63114e-06
1.86616e-06
4.66068e-06
4.37189e-06
1.24423e-05
1.36967e-05
-4.90233e-06
-4.52221e-06
6.47566e-06
-3.95095e-06
-2.7809e-06
1.76122e-05
1.55871e-05
1.49575e-05
2.47558e-05
1.53307e-05
3.44001e-05
3.44222e-05
9.2845e-06
1.81512e-05
1.69717e-05
1.94085e-05
1.51931e-05
5.35159e-08
2.93709e-06
-3.89096e-06
-1.53594e-05
-1.60004e-05
-2.9516e-05
-3.90718e-05
-4.22526e-05
-4.91756e-05
-3.7411e-05
-2.89564e-05
-5.08387e-05
-3.46078e-05
-1.11629e-05
-3.66222e-05
-3.55544e-05
-1.46603e-05
-7.17044e-06
1.18087e-07
5.7906e-06
2.3408e-06
8.63377e-06
1.83346e-05
3.9947e-06
-5.75778e-06
7.21873e-06
3.48145e-06
1.33378e-06
1.72049e-05
1.64664e-05
1.66885e-05
2.71233e-05
1.46875e-05
2.98226e-05
3.53829e-05
1.04796e-05
1.60682e-05
1.38774e-05
1.46454e-05
1.48958e-05
1.0822e-06
2.75481e-06
-2.98368e-06
-1.68748e-05
-1.60749e-05
-2.33899e-05
-3.14146e-05
-3.45982e-05
-4.26881e-05
-3.31607e-05
-2.03274e-05
-4.04954e-05
-3.27755e-05
-6.10105e-06
-2.97321e-05
-3.35692e-05
-1.08698e-05
-6.42768e-06
3.36734e-09
5.70217e-06
2.21211e-06
5.61915e-06
1.68509e-05
1.22571e-05
-4.70596e-06
4.71638e-06
8.56811e-06
4.52654e-06
1.64536e-05
1.68315e-05
1.79719e-05
2.90807e-05
1.58398e-05
2.4556e-05
3.4799e-05
1.3116e-05
1.47982e-05
1.13556e-05
1.07195e-05
1.3724e-05
1.9558e-06
2.53128e-06
-3.34206e-06
-1.632e-05
-1.67843e-05
-2.00025e-05
-2.53125e-05
-2.83796e-05
-3.62966e-05
-2.99303e-05
-1.42409e-05
-3.09072e-05
-3.20454e-05
-2.59412e-06
-2.20665e-05
-3.18701e-05
-8.26527e-06
-6.12505e-06
1.473e-06
4.27731e-06
2.51953e-06
5.84885e-06
1.18379e-05
1.69948e-05
1.9205e-07
1.90069e-06
1.10611e-05
8.46753e-06
1.59327e-05
1.60176e-05
1.81879e-05
2.85342e-05
1.78103e-05
1.94568e-05
3.11644e-05
1.60876e-05
1.50625e-05
9.50233e-06
6.88655e-06
1.17687e-05
2.13493e-06
2.97941e-06
-4.59188e-06
-1.49924e-05
-1.5756e-05
-1.85729e-05
-2.01146e-05
-2.36059e-05
-3.08446e-05
-2.71894e-05
-1.11156e-05
-2.17792e-05
-3.20065e-05
-2.22251e-06
-1.39966e-05
-2.91428e-05
-7.83611e-06
-6.89575e-06
4.36237e-06
3.43707e-06
2.08827e-06
9.4015e-06
6.71897e-06
1.64539e-05
6.16262e-06
2.47756e-08
9.39791e-06
1.14467e-05
1.6725e-05
1.50875e-05
1.84511e-05
2.68375e-05
2.08116e-05
1.79253e-05
2.57383e-05
1.79892e-05
1.57306e-05
8.73363e-06
3.59181e-06
8.79919e-06
1.96131e-06
4.29873e-06
-5.07518e-06
-1.38142e-05
-1.28554e-05
-1.80101e-05
-1.56145e-05
-1.86559e-05
-2.62352e-05
-2.4669e-05
-1.04084e-05
-1.43226e-05
-3.05061e-05
-5.62184e-06
-6.86896e-06
-2.37176e-05
-8.32552e-06
-9.23752e-06
5.43942e-06
3.48058e-06
3.62258e-08
1.29218e-05
4.28654e-06
1.20429e-05
1.11912e-05
6.42565e-07
5.59018e-06
1.28662e-05
1.81898e-05
1.50461e-05
1.84109e-05
2.34922e-05
2.23809e-05
1.89353e-05
2.04026e-05
1.74684e-05
1.61994e-05
8.49833e-06
2.05698e-06
5.80835e-06
6.95692e-07
5.34111e-06
-4.82835e-06
-1.20256e-05
-8.15658e-06
-1.73158e-05
-1.35192e-05
-1.35725e-05
-2.22252e-05
-2.31995e-05
-1.08151e-05
-9.44062e-06
-2.67313e-05
-9.99058e-06
-4.04467e-06
-1.6237e-05
-8.50872e-06
-9.44012e-06
4.2531e-06
4.04804e-06
-1.97136e-06
1.23387e-05
4.55523e-06
6.51246e-06
1.37754e-05
3.89658e-06
3.18946e-06
1.30644e-05
1.88384e-05
1.64556e-05
1.86849e-05
1.91011e-05
2.13962e-05
2.04805e-05
1.61027e-05
1.56383e-05
1.67865e-05
9.47823e-06
2.33596e-06
4.34416e-06
-3.43886e-07
5.09867e-06
-3.59071e-06
-1.00671e-05
-3.72757e-06
-1.59863e-05
-1.37052e-05
-9.68647e-06
-1.78766e-05
-2.24766e-05
-1.14284e-05
-6.92191e-06
-2.31286e-05
-1.34047e-05
-4.28735e-06
-9.44349e-06
-6.79889e-06
-7.28469e-06
1.34807e-06
2.79894e-06
-7.56526e-07
8.85839e-06
4.34357e-06
2.54866e-06
1.37175e-05
6.75212e-06
2.90286e-06
1.24396e-05
1.74104e-05
1.84875e-05
2.04402e-05
1.68692e-05
1.87379e-05
2.09231e-05
1.23211e-05
1.21428e-05
1.64663e-05
1.04423e-05
3.83897e-06
4.52417e-06
1.55563e-06
3.37951e-06
-2.206e-06
-7.23692e-06
-2.80857e-06
-1.41457e-05
-1.4656e-05
-6.7592e-06
-1.28231e-05
-2.14227e-05
-1.17243e-05
-5.44177e-06
-1.89481e-05
-1.59741e-05
-5.99253e-06
-5.25982e-06
-6.54396e-06
-4.46523e-06
-5.69625e-07
3.05572e-07
2.16534e-06
5.31013e-06
2.81068e-06
1.68913e-06
1.31727e-05
7.43142e-06
4.54389e-06
1.14709e-05
1.56069e-05
2.0263e-05
2.16057e-05
1.82771e-05
1.6813e-05
2.16158e-05
1.18555e-05
9.14482e-06
1.55254e-05
1.03871e-05
4.24079e-06
3.59382e-06
5.56791e-06
3.01131e-08
-1.81622e-06
-1.75455e-06
-6.32191e-06
-1.16765e-05
-1.48064e-05
-6.38516e-06
-7.6399e-06
-1.93329e-05
-1.13056e-05
-5.89079e-06
-1.45578e-05
-1.74829e-05
-7.99535e-06
-2.63566e-06
-8.72755e-06
-0.000183538
-0.000256716
0.000109767
0.000341802
0.000300516
-4.74881e-05
-0.000383754
-0.000247949
7.05349e-05
0.000191593
-2.18372e-06
-0.000147185
-0.000140505
0.000158032
0.000316191
0.000194408
0.000187405
0.000131059
0.000306023
0.000322109
6.77984e-05
-3.49297e-06
-4.84882e-05
2.24474e-05
0.000188238
7.89002e-05
-0.000246455
-0.000354263
-9.60233e-05
-7.8344e-05
-8.57417e-05
-8.24829e-06
4.89322e-05
0.000181988
0.000185059
0.000172975
0.000202314
0.000190595
0.000165632
6.9918e-05
-0.000194786
-0.000267014
0.000101082
0.000332717
0.000291481
-5.61819e-05
-0.000392835
-0.00025527
6.49856e-05
0.000181415
-1.31542e-05
-0.000154088
-0.00014577
0.000149985
0.000307667
0.000184668
0.000178111
0.000123178
0.000296895
0.00031131
5.85731e-05
-1.15409e-05
-5.39136e-05
1.51244e-05
0.000178489
6.86094e-05
-0.000256127
-0.000361393
-0.000102315
-8.43823e-05
-9.27206e-05
-1.40927e-05
4.3294e-05
0.000174327
0.00017767
0.000164524
0.000195778
0.000184297
0.000157479
5.96067e-05
-0.000215224
-0.000288797
8.6217e-05
0.000320998
0.00027431
-8.01006e-05
-0.000414359
-0.000273157
5.57528e-05
0.000166817
-3.72277e-05
-0.000176319
-0.00015884
0.000140839
0.000293132
0.000163306
0.000158727
0.000108477
0.000278326
0.000291066
3.82108e-05
-3.33986e-05
-7.5861e-05
-1.18235e-06
0.000167161
4.82683e-05
-0.000286224
-0.000382138
-0.000113469
-0.000100296
-0.00010572
-2.67998e-05
3.30683e-05
0.000162731
0.000166512
0.000151191
0.000184549
0.000175784
0.000148267
4.47958e-05
-0.000241698
-0.000323419
5.51683e-05
0.000296973
0.000243984
-0.00012197
-0.000456449
-0.000307604
4.37381e-05
0.000152275
-7.99528e-05
-0.000221551
-0.000201528
0.000109674
0.0002741
0.000134821
0.000128917
7.9192e-05
0.000235384
0.000246665
7.25703e-06
-7.50497e-05
-0.00012411
-4.84683e-05
0.000136129
2.03888e-05
-0.000334697
-0.000429207
-0.000137469
-0.000117162
-0.000123642
-4.05413e-05
1.96782e-05
0.000147221
0.000150278
0.000125852
0.000162178
0.000159746
0.000136238
2.8931e-05
-0.000268519
-0.000375498
-1.21778e-06
0.000255043
0.00018709
-0.000202931
-0.0005376
-0.000380346
4.65701e-06
0.000120452
-0.000143344
-0.000304503
-0.000268973
4.43827e-05
0.000221373
7.89682e-05
8.08091e-05
4.49017e-05
0.000177659
0.000178483
-5.43922e-05
-0.000139494
-0.000201219
-0.000125482
9.01404e-05
-8.20163e-06
-0.000382186
-0.000494439
-0.00019606
-0.000168249
-0.000157143
-6.14906e-05
1.17292e-05
0.000129109
0.000118073
7.26725e-05
0.000116912
0.000122963
9.7773e-05
1.42618e-06
-0.000329367
-0.000451756
-0.000107986
0.000149125
9.79783e-05
-0.000292763
-0.000644568
-0.000501289
-0.000105833
2.80337e-05
-0.000234636
-0.000400562
-0.0003614
-4.79055e-05
0.000136318
4.81188e-06
-5.3365e-07
-2.47198e-05
0.000100394
8.73032e-05
-0.000128179
-0.000229487
-0.000294552
-0.000216316
-3.25234e-06
-8.74255e-05
-0.000440429
-0.000592349
-0.000309135
-0.000259821
-0.000228161
-0.000117993
-2.77147e-05
8.20215e-05
5.33446e-05
-1.33748e-05
3.20823e-05
4.33809e-05
1.52097e-05
-8.65992e-05
-0.000431345
-0.000559518
-0.000255131
-9.73425e-06
-5.32443e-05
-0.000444678
-0.000772292
-0.000643176
-0.000269367
-0.000115948
-0.000381423
-0.000567269
-0.000474356
-0.000160435
1.24173e-05
-9.83224e-05
-0.000118688
-0.000144774
-1.16929e-05
-5.00946e-05
-0.000262293
-0.000351642
-0.000398446
-0.000327077
-0.000135499
-0.000208737
-0.000538421
-0.0007235
-0.000479455
-0.000412781
-0.000361982
-0.000240656
-0.0001234
-2.89485e-05
-6.26465e-05
-0.000114715
-7.68824e-05
-7.11191e-05
-0.000112094
-0.000206986
-0.000525888
-0.000651789
-0.000397029
-0.000186286
-0.000241051
-0.000588221
-0.000900002
-0.000778635
-0.00041802
-0.000262329
-0.000540717
-0.000725607
-0.000609882
-0.000281301
-0.000109329
-0.000194212
-0.000242769
-0.000308939
-0.000183249
-0.000213593
-0.000414025
-0.000466923
-0.000480007
-0.000439173
-0.000290202
-0.000357132
-0.000639984
-0.000839899
-0.000634106
-0.000539588
-0.000472401
-0.000378547
-0.000269893
-0.00017476
-0.000192776
-0.000218973
-0.000169431
-0.000192216
-0.000262916
-0.000350711
-0.00057597
-0.000682636
-0.000468766
-0.000288507
-0.000367107
-0.000705647
-0.0009835
-0.000863781
-0.000547316
-0.000399861
-0.0006573
-0.000829416
-0.000696065
-0.000365365
-0.000185938
-0.000252146
-0.000333401
-0.000430709
-0.000305928
-0.000320686
-0.000509074
-0.000537369
-0.000510363
-0.00049394
-0.000389914
-0.000443522
-0.000672586
-0.000866523
-0.000693512
-0.00059065
-0.000538425
-0.000462033
-0.000372349
-0.000306455
-0.000314895
-0.000292454
-0.00023238
-0.000295983
-0.000396045
-0.000447981
-0.000561202
-0.000658425
-0.000490885
-0.00032056
-0.000406357
-0.000720719
-0.000993012
-0.000901921
-0.000648978
-0.000490575
-0.00068331
-0.000853245
-0.000735864
-0.000418692
-0.000239614
-0.000282144
-0.000374681
-0.000467885
-0.00033863
-0.000312017
-0.000493181
-0.000543047
-0.000496569
-0.000467283
-0.000396625
-0.000455051
-0.000632139
-0.000810651
-0.000666042
-0.00057406
-0.000550722
-0.000486066
-0.000430087
-0.000399908
-0.000407753
-0.000334584
-0.000254706
-0.000346841
-0.0004513
-0.000467052
-0.000541258
-0.000665395
-0.000540851
-0.000372834
-0.000422271
-0.000678514
-0.000915897
-0.000852917
-0.000669071
-0.000496188
-0.000622334
-0.000810568
-0.000757331
-0.000488421
-0.000279342
-0.00027513
-0.000341873
-0.000408187
-0.000291738
-0.000225268
-0.000383536
-0.000476846
-0.000458708
-0.000416726
-0.000346892
-0.000424745
-0.000592788
-0.000742135
-0.000626452
-0.000542283
-0.000540648
-0.000495542
-0.000459242
-0.000432271
-0.000424433
-0.000340162
-0.000278195
-0.000373312
-0.000456989
-0.000451692
-0.000528249
-0.000642293
-0.000558096
-0.000390818
-0.000395312
-0.000575134
-0.000758423
-0.000717412
-0.000610665
-0.000441038
-0.000493767
-0.000699208
-0.000739088
-0.000532721
-0.000316033
-0.000269668
-0.000304292
-0.000353427
-0.000276772
-0.000177278
-0.00026929
-0.000388319
-0.000429613
-0.000390313
-0.00029806
-0.000380364
-0.000556162
-0.000694168
-0.000611026
-0.000534077
-0.000537242
-0.000502587
-0.000471393
-0.000427613
-0.000394327
-0.000325262
-0.000291037
-0.000382304
-0.00044221
-0.000442922
-0.000513641
-0.000584334
-0.000520178
-0.000367263
-0.000357673
-0.000482751
-0.000610882
-0.000594818
-0.000552628
-0.000411612
-0.000393456
-0.000571031
-0.000673256
-0.000527849
-0.000339537
-0.00029287
-0.000304315
-0.00034627
-0.000301472
-0.000188281
-0.000225601
-0.000334898
-0.000397978
-0.000369672
-0.00025432
-0.000296995
-0.000461243
-0.000599232
-0.000557551
-0.000484204
-0.00047931
-0.000476202
-0.000467218
-0.000405283
-0.000343937
-0.000287543
-0.000282909
-0.000379521
-0.000436397
-0.000446975
-0.00047765
-0.000520846
-0.000468784
-0.000344681
-0.000336801
-0.000432913
-0.000532784
-0.000529923
-0.000513922
-0.000402332
-0.000324959
-0.000422409
-0.000541888
-0.000470109
-0.00033372
-0.000298491
-0.000307918
-0.000340305
-0.000316742
-0.000215909
-0.000222656
-0.000313462
-0.000358996
-0.000337044
-0.000220288
-0.000213581
-0.000348176
-0.0004894
-0.000479164
-0.00041602
-0.000394256
-0.0004012
-0.000409668
-0.000356611
-0.000288656
-0.000242726
-0.000256861
-0.000353531
-0.000411893
-0.000425004
-0.000384822
-0.000414146
-0.000368013
-0.000273012
-0.000274938
-0.000359116
-0.000447179
-0.000450629
-0.000445807
-0.000369588
-0.000256443
-0.000279421
-0.000392863
-0.000382057
-0.000280332
-0.000247345
-0.000267318
-0.000308009
-0.000304612
-0.000229584
-0.000214586
-0.00027171
-0.000290544
-0.000286108
-0.000199591
-0.000169307
-0.000288301
-0.000419961
-0.000427124
-0.000375557
-0.000329809
-0.000319316
-0.000327259
-0.000286098
-0.000215717
-0.000177037
-0.000202352
-0.000293962
-0.000345798
-0.000341328
-0.000265765
-0.000287527
-0.000244248
-0.000182335
-0.0001878
-0.000260094
-0.000339796
-0.000342653
-0.000341205
-0.000297228
-0.00018344
-0.000160975
-0.000258918
-0.000270868
-0.000185738
-0.000147396
-0.000173713
-0.000221055
-0.00023511
-0.000191172
-0.000160834
-0.000179201
-0.000185375
-0.000207001
-0.000159631
-0.000126934
-0.000222808
-0.000337431
-0.000355545
-0.00031834
-0.000259567
-0.000235044
-0.000245746
-0.000219223
-0.000155517
-0.000117937
-0.000146342
-0.000226978
-0.000262546
-0.000236502
-0.000155497
-0.000173672
-0.000137162
-0.000100282
-0.000109969
-0.000162234
-0.000225229
-0.000227133
-0.000224443
-0.000204681
-0.000111177
-7.42185e-05
-0.000145543
-0.000163372
-9.7038e-05
-5.33873e-05
-6.66696e-05
-0.000106641
-0.000124086
-9.88478e-05
-6.91466e-05
-7.42908e-05
-8.4132e-05
-0.000120177
-0.000103265
-7.13985e-05
-0.000135208
-0.000225649
-0.00024787
-0.000227162
-0.000178416
-0.000160484
-0.0001765
-0.000167931
-0.000119299
-6.95872e-05
-8.61958e-05
-0.00015451
-0.000178035
-0.000138902
-6.80674e-05
-8.76372e-05
-5.78567e-05
-3.73372e-05
-5.34453e-05
-9.1982e-05
-0.000135913
-0.000134785
-0.000132881
-0.000128692
-5.49352e-05
-1.46187e-05
-6.2145e-05
-8.01404e-05
-3.37073e-05
6.5877e-06
1.46419e-05
-1.36594e-05
-2.67997e-05
-1.19746e-05
5.78865e-06
-3.53395e-06
-2.13817e-05
-5.47147e-05
-6.06507e-05
-3.20718e-05
-7.10454e-05
-0.000139477
-0.000159039
-0.000153818
-0.00012286
-0.000108496
-0.000119942
-0.000116372
-8.35193e-05
-3.04026e-05
-3.5295e-05
-9.22874e-05
-0.000111487
-6.68133e-05
-1.74295e-05
-4.22923e-05
-1.89441e-05
-5.007e-06
-2.36746e-05
-5.08129e-05
-7.66911e-05
-7.27514e-05
-7.21428e-05
-7.93082e-05
-2.06662e-05
2.03655e-05
-9.3276e-06
-2.31241e-05
4.22057e-06
3.57683e-05
5.72151e-05
3.26166e-05
1.84771e-05
3.04677e-05
3.90786e-05
2.65722e-05
8.05811e-06
-1.54843e-05
-3.1111e-05
-1.29783e-05
-3.76229e-05
-8.91805e-05
-0.000103112
-0.000106753
-9.01077e-05
-7.28152e-05
-7.34486e-05
-6.79675e-05
-4.80835e-05
-4.10563e-06
-6.15023e-06
-5.22038e-05
-6.97414e-05
-2.53154e-05
8.02074e-06
-1.78245e-05
-2.33833e-06
1.18783e-05
-2.95371e-06
-2.43416e-05
-4.04922e-05
-3.60468e-05
-3.73577e-05
-4.87054e-05
-3.38218e-06
3.61209e-05
1.94493e-05
9.47935e-06
2.42665e-05
4.36786e-05
7.01013e-05
4.94761e-05
3.12434e-05
4.3325e-05
4.73851e-05
3.78456e-05
2.20653e-05
7.40048e-06
-1.12745e-05
-5.6945e-06
-2.17319e-05
-6.09175e-05
-6.98622e-05
-7.77992e-05
-7.00847e-05
-4.98556e-05
-4.47725e-05
-4.13681e-05
-2.94769e-05
8.43145e-06
8.2734e-06
-3.01273e-05
-4.67604e-05
-7.829e-06
1.86402e-05
-7.20248e-07
7.12713e-06
2.14544e-05
1.034e-05
-8.56163e-06
-2.0459e-05
-1.34018e-05
-1.38539e-05
-2.74627e-05
5.65493e-06
4.15038e-05
3.43147e-05
2.70414e-05
3.51859e-05
4.3951e-05
7.16832e-05
5.72421e-05
3.474e-05
4.64254e-05
4.89282e-05
4.29009e-05
2.90123e-05
1.78922e-05
9.01862e-07
-3.15025e-06
-1.44744e-05
-4.43362e-05
-5.03178e-05
-5.98251e-05
-5.83945e-05
-3.91405e-05
-3.14072e-05
-3.05918e-05
-2.38954e-05
1.16656e-05
1.39727e-05
-1.91437e-05
-3.27208e-05
-2.25425e-06
2.11257e-05
1.02791e-05
1.17292e-05
2.19592e-05
1.77221e-05
2.28477e-06
-1.14087e-05
-7.72098e-07
3.18272e-06
-1.23932e-05
1.00808e-05
4.05622e-05
3.88671e-05
3.58504e-05
4.04148e-05
4.09035e-05
6.70753e-05
6.02704e-05
3.60413e-05
4.45074e-05
4.53146e-05
4.23598e-05
3.06262e-05
1.92747e-05
7.65813e-06
-1.74001e-06
-1.15224e-05
-3.29463e-05
-3.85456e-05
-4.7047e-05
-5.10369e-05
-3.60045e-05
-2.38404e-05
-2.35284e-05
-2.26469e-05
1.00977e-05
1.63981e-05
-1.42185e-05
-2.43255e-05
-5.27618e-07
1.82907e-05
1.55352e-05
1.43648e-05
1.89806e-05
2.11794e-05
1.2412e-05
-5.82358e-06
3.58315e-06
1.3801e-05
-1.60482e-06
1.22014e-05
3.66567e-05
3.7237e-05
3.79519e-05
4.18377e-05
3.73461e-05
6.1019e-05
5.98615e-05
3.5857e-05
3.99451e-05
3.90845e-05
3.92197e-05
3.12314e-05
1.87872e-05
1.18777e-05
-2.74822e-07
-1.13779e-05
-2.46488e-05
-3.08761e-05
-3.77559e-05
-4.49147e-05
-3.53917e-05
-1.90902e-05
-1.71799e-05
-2.3485e-05
4.91953e-06
1.63706e-05
-1.27773e-05
-1.9641e-05
-4.79506e-08
1.30949e-05
1.60291e-05
1.62905e-05
1.50814e-05
2.01739e-05
2.08676e-05
3.50962e-07
3.06284e-06
1.89343e-05
7.15855e-06
1.38842e-05
3.25018e-05
3.27442e-05
3.6168e-05
4.15092e-05
3.27447e-05
5.37317e-05
5.66837e-05
3.42296e-05
3.55967e-05
3.23678e-05
3.42148e-05
3.0369e-05
1.66558e-05
1.30295e-05
1.55105e-06
-1.21224e-05
-1.94149e-05
-2.53646e-05
-3.12312e-05
-3.92576e-05
-3.58174e-05
-1.73023e-05
-1.12488e-05
-2.3453e-05
-1.95711e-06
1.42729e-05
-1.22051e-05
-1.75647e-05
7.30165e-07
8.04953e-06
1.37919e-05
1.66318e-05
1.19941e-05
1.64819e-05
2.49349e-05
8.46667e-06
1.19706e-06
1.88792e-05
1.34235e-05
1.41754e-05
2.87397e-05
2.8053e-05
3.25883e-05
4.03151e-05
2.83282e-05
4.59206e-05
5.2833e-05
3.20422e-05
3.2339e-05
2.56665e-05
2.72829e-05
2.81159e-05
1.42333e-05
1.23315e-05
3.37446e-06
-1.16796e-05
-1.62255e-05
-2.06248e-05
-2.55034e-05
-3.33531e-05
-3.43701e-05
-1.70612e-05
-6.29282e-06
-2.1486e-05
-8.65816e-06
1.21394e-05
-1.16981e-05
-1.76408e-05
1.31478e-06
3.64109e-06
1.0903e-05
1.48771e-05
9.74524e-06
1.2866e-05
2.34762e-05
1.65298e-05
1.72418e-06
1.4908e-05
1.74486e-05
1.44774e-05
2.53296e-05
2.43252e-05
2.88974e-05
3.87305e-05
2.53299e-05
3.7e-05
4.81649e-05
2.99445e-05
2.98363e-05
2.08701e-05
2.04235e-05
2.4767e-05
1.21239e-05
1.10787e-05
3.61295e-06
-1.01799e-05
-1.44267e-05
-1.75316e-05
-2.06233e-05
-2.79785e-05
-3.16526e-05
-1.80418e-05
-3.49499e-06
-1.81272e-05
-1.51055e-05
1.05177e-05
-1.0358e-05
-1.90687e-05
9.76645e-07
-3.74885e-07