/*--------------------------------*- C++ -*----------------------------------*\
  =========                 |
  \\      /  F ield         | OpenFOAM: The Open Source CFD Toolbox
   \\    /   O peration     | Website:  https://openfoam.org
    \\  /    A nd           | Version:  10
     \\/     M anipulation  |
\*---------------------------------------------------------------------------*/
FoamFile
{
    format      ascii;
    class       volSymmTensorField;
    location    "14";
    object      UPrime2Mean;
}
// * * * * * * * * * * * * * * * * * * * * * * * * * * * * * * * * * * * * * //

dimensions      [0 2 -2 0 0 0 0];

internalField   nonuniform List<symmTensor> 
25600
(
(0.00449772 8.85541e-07 0.000105299 1.44943e-07 -5.68372e-07 8.51863e-05)
(0.00442777 2.80756e-06 0.000171329 1.14209e-07 -4.90773e-07 0.000108914)
(0.00436132 -3.89472e-07 0.000116532 8.23408e-08 -4.00531e-07 0.00011048)
(0.00423447 -2.97736e-06 7.31913e-05 1.01589e-07 -6.85675e-07 0.000106942)
(0.00443152 -6.64064e-07 1.64427e-05 1.13998e-07 -9.7667e-07 0.000108478)
(0.00438321 -4.55564e-08 8.4109e-05 1.11915e-07 -9.13315e-07 0.000113815)
(0.00430209 -5.05454e-07 0.000151839 1.05585e-07 -6.00865e-07 0.000113311)
(0.00429313 -1.7095e-06 0.00012503 9.87539e-08 -3.73466e-07 0.000105788)
(0.00442013 -3.78461e-06 1.39665e-05 1.06712e-07 9.1234e-08 0.000105154)
(0.00443667 -2.85507e-06 -4.45394e-05 1.11899e-07 7.30233e-08 0.00011459)
(0.00449066 -5.85416e-07 3.34549e-05 9.1408e-08 -3.88753e-07 0.000115026)
(0.00437922 8.45854e-07 0.000110655 7.80706e-08 -3.18829e-07 0.000100713)
(0.00442032 -1.4738e-06 9.70332e-05 8.6296e-08 -1.08776e-07 8.88347e-05)
(0.00429906 -3.32184e-06 2.61194e-05 9.33596e-08 1.09538e-07 9.14914e-05)
(0.00460499 -3.25418e-06 9.89652e-06 8.72648e-08 6.50754e-08 9.90077e-05)
(0.00442759 1.08825e-06 0.00010061 8.83297e-08 -2.20265e-07 9.62042e-05)
(0.00457565 9.79982e-07 0.000156799 8.69053e-08 -9.82374e-08 9.48059e-05)
(0.00430253 -4.74993e-06 0.000149957 9.21739e-08 -6.74683e-08 0.000105305)
(0.00458591 -5.99064e-06 3.76881e-05 1.0307e-07 -7.11044e-08 0.000103575)
(0.00453532 -3.66862e-06 8.25919e-06 9.41895e-08 -4.34412e-07 9.1589e-05)
(0.00458884 2.83701e-07 9.4007e-05 8.6275e-08 -4.02981e-07 6.83169e-05)
(0.00430134 8.89919e-07 0.000139041 7.62691e-08 -8.5762e-08 7.71317e-05)
(0.00431848 7.14286e-07 0.000119403 7.33216e-08 2.33319e-08 8.9208e-05)
(0.00446281 -2.40987e-06 2.56148e-05 7.77811e-08 -7.24968e-08 8.40246e-05)
(0.00445546 -7.32231e-07 -1.48729e-05 7.45833e-08 -6.1675e-09 6.82439e-05)
(0.00458079 -1.05917e-07 7.52581e-05 8.69269e-08 -6.53712e-08 7.16088e-05)
(0.00434286 1.00827e-06 0.000166023 9.72438e-08 -2.25701e-07 8.76823e-05)
(0.00440306 -6.67512e-07 0.000157511 9.4667e-08 -4.4879e-08 8.95649e-05)
(0.00447158 -4.18453e-06 3.02638e-05 1.16223e-07 3.20925e-07 9.82664e-05)
(0.00449103 -3.23119e-06 2.61358e-05 1.32749e-07 1.43508e-07 0.000113983)
(0.00437763 2.53498e-06 7.28694e-05 1.42675e-07 -5.83152e-08 0.000113634)
(0.0043927 7.79985e-07 0.000167059 1.44761e-07 5.19179e-08 0.000109422)
(0.00422087 -3.52292e-06 0.000164871 1.38051e-07 1.61767e-07 0.000108919)
(0.00425657 -4.14388e-06 8.3362e-05 1.07314e-07 -1.5623e-07 0.000105886)
(0.00433488 -1.13421e-06 4.16333e-05 8.38248e-08 -3.78595e-07 8.38752e-05)
(0.00432528 2.38867e-06 7.6537e-05 9.426e-08 7.25915e-08 7.90838e-05)
(0.00422049 1.21206e-07 0.000116571 1.17635e-07 5.34813e-07 8.54094e-05)
(0.00428612 -2.4553e-06 0.00014212 1.54656e-07 5.08414e-07 7.30046e-05)
(0.00452944 -5.0689e-06 7.6044e-05 1.74743e-07 1.54225e-07 7.21878e-05)
(0.00463043 -3.87419e-06 4.27233e-05 1.58983e-07 -2.36737e-07 7.32174e-05)
(0.0258268 -3.3693e-05 0.000536088 3.17218e-06 -7.37971e-06 0.00045039)
(0.0249669 7.13853e-06 0.000869355 2.27207e-06 -4.18298e-06 0.000548278)
(0.0253194 1.06619e-06 0.00080625 1.67295e-06 -3.26852e-06 0.000550679)
(0.0239219 -4.32377e-05 0.000711677 1.94801e-06 -7.95573e-06 0.000545156)
(0.0255059 -7.18553e-05 0.000262777 2.29814e-06 -1.16106e-05 0.000585595)
(0.0253277 -2.26317e-05 0.000326772 2.1742e-06 -1.084e-05 0.000609016)
(0.0247158 -4.88369e-06 0.000757708 1.97422e-06 -5.92206e-06 0.000582589)
(0.0243211 -3.06676e-05 0.000850601 1.80986e-06 -2.96902e-06 0.000534359)
(0.0250339 -6.68713e-05 0.000480913 2.10057e-06 -8.73601e-07 0.000517831)
(0.0255617 -7.85978e-05 -2.09925e-05 2.55276e-06 -2.5215e-06 0.000562662)
(0.0256608 -4.16896e-05 6.5228e-05 2.11696e-06 -7.1949e-06 0.000580817)
(0.0248629 -1.67347e-05 0.000471815 1.7868e-06 -7.01193e-06 0.000527584)
(0.0256634 -4.10287e-05 0.000660915 2.01524e-06 -5.84433e-06 0.00049265)
(0.0244376 -7.64347e-05 0.000413175 2.18181e-06 -3.39881e-06 0.000475282)
(0.0268663 -9.37733e-05 0.000116771 2.30508e-06 -4.42196e-06 0.000502951)
(0.025185 -4.95731e-05 0.00044303 2.40228e-06 -9.43954e-06 0.000514265)
(0.0276689 -2.78631e-05 0.000868987 2.444e-06 -7.18335e-06 0.000512992)
(0.0245318 -3.41582e-05 0.000998681 2.23193e-06 -5.12246e-06 0.000594113)
(0.02658 -9.50571e-05 0.00061072 2.64428e-06 -9.06472e-06 0.000582097)
(0.025704 -8.97324e-05 0.000178855 2.75703e-06 -8.53121e-06 0.000487389)
(0.0264039 -3.31225e-05 0.000341643 2.61854e-06 -6.11467e-06 0.000379274)
(0.0244026 1.97797e-05 0.000581469 2.20535e-06 -4.14835e-06 0.000423201)
(0.0241058 -1.48904e-05 0.000872543 2.07149e-06 -5.2488e-06 0.000497653)
(0.0259286 -5.69899e-05 0.000547524 2.22022e-06 -6.36017e-06 0.000450454)
(0.0253981 -6.44717e-05 0.000160446 2.26507e-06 -2.81153e-06 0.000357007)
(0.0270818 -3.1058e-05 0.000425097 2.50431e-06 -4.66485e-06 0.000365348)
(0.0247258 1.23099e-05 0.000871309 2.92075e-06 -9.40561e-06 0.000450858)
(0.0249201 -3.30935e-05 0.00116916 2.61626e-06 -3.07922e-06 0.000472209)
(0.0258707 -6.60943e-05 0.000518345 2.8785e-06 3.96999e-06 0.000503375)
(0.025864 -5.59446e-05 0.000288634 3.07819e-06 4.45781e-06 0.000605552)
(0.0247526 -2.55622e-05 0.000321688 2.6735e-06 4.59896e-06 0.000603646)
(0.0257615 2.8698e-06 0.000868499 2.91476e-06 4.32833e-06 0.000573256)
(0.0239295 -8.0704e-06 0.00108474 2.89634e-06 4.39356e-06 0.000584973)
(0.0236179 -5.25679e-05 0.000800103 2.42941e-06 2.76403e-07 0.000572296)
(0.0238169 -6.1184e-05 0.000482891 2.07432e-06 -1.60903e-06 0.000457161)
(0.0241616 -2.66224e-05 0.000434302 2.17814e-06 4.44329e-07 0.000401183)
(0.0244266 4.46279e-06 0.00069797 2.44094e-06 4.85284e-06 0.000437407)
(0.0240303 -4.07396e-05 0.000968888 3.11802e-06 3.36308e-06 0.000382256)
(0.0261306 -9.95156e-05 0.00074792 3.80365e-06 -1.52575e-06 0.00037836)
(0.0259969 -8.08467e-05 0.000484832 3.74379e-06 -4.78375e-06 0.000393082)
(0.0527489 -0.000160818 0.00109169 1.54455e-05 -1.96375e-05 0.000883771)
(0.0510908 -3.45357e-05 0.00138634 1.07162e-05 -7.16013e-06 0.00104769)
(0.0516079 -1.52953e-05 0.00149024 8.20575e-06 -4.67577e-06 0.00101996)
(0.0488754 -0.000107293 0.0014343 8.58824e-06 -2.12657e-05 0.00101679)
(0.051278 -0.000220817 0.000887808 1.01913e-05 -3.52921e-05 0.00118003)
(0.049058 -0.0001155 0.000464341 1.00112e-05 -3.10737e-05 0.00125277)
(0.0503846 -6.36642e-05 0.00121822 9.7419e-06 -1.90124e-05 0.00115444)
(0.0487025 -8.94391e-05 0.00148645 8.8639e-06 -1.13408e-05 0.000991031)
(0.0510686 -0.000200777 0.00125543 9.63113e-06 -1.2435e-05 0.000931546)
(0.0507148 -0.000262992 0.000496714 1.18888e-05 -2.12206e-05 0.00103745)
(0.0527408 -0.000207554 0.000386849 1.0605e-05 -3.17726e-05 0.00113294)
(0.0515991 -0.000119424 0.000869294 8.693e-06 -2.87115e-05 0.00109228)
(0.0534876 -0.000141633 0.00111762 9.64526e-06 -2.75656e-05 0.00104637)
(0.0496012 -0.000207527 0.000888128 9.89541e-06 -1.88574e-05 0.000981083)
(0.0546152 -0.000303188 0.000333009 1.07861e-05 -1.87734e-05 0.00102121)
(0.0510968 -0.000216576 0.000803152 1.1314e-05 -3.14296e-05 0.00110288)
(0.0558959 -0.000138556 0.00122622 1.17428e-05 -2.49599e-05 0.00107371)
(0.0492034 -0.000118933 0.00150167 1.07088e-05 -1.9484e-05 0.00122633)
(0.0550824 -0.000243588 0.00128428 1.27453e-05 -3.91583e-05 0.00122598)
(0.0506389 -0.000236258 0.000638513 1.46011e-05 -3.54246e-05 0.00100871)
(0.0538556 -0.000196806 0.000662829 1.3865e-05 -1.93039e-05 0.00080049)
(0.0512025 -2.37592e-05 0.00085832 1.08077e-05 -1.97367e-05 0.000879854)
(0.0511654 -8.73331e-05 0.0015592 1.05833e-05 -3.04707e-05 0.00101085)
(0.052865 -0.000162664 0.0013772 1.12669e-05 -3.3405e-05 0.000885591)
(0.0516858 -0.000179925 0.000862501 1.13294e-05 -2.23935e-05 0.000682354)
(0.0542215 -0.000183751 0.000969411 1.21733e-05 -2.52515e-05 0.000683973)
(0.0518862 -4.56608e-05 0.00174734 1.40944e-05 -4.28765e-05 0.000884856)
(0.053011 -9.33226e-05 0.00224963 1.27646e-05 -2.36724e-05 0.000898494)
(0.0505515 -0.000178143 0.00157669 1.37932e-05 3.28088e-06 0.000927963)
(0.0531754 -0.00016073 0.000928869 1.4647e-05 1.09473e-05 0.00113336)
(0.0493564 -0.000136468 0.000666773 1.26524e-05 1.98891e-05 0.00113204)
(0.0516429 -5.95634e-05 0.00120426 1.35024e-05 2.1104e-05 0.00104475)
(0.0482811 -1.97686e-06 0.00174624 1.29868e-05 2.12475e-05 0.0010871)
(0.0475763 -0.000131453 0.00149131 1.06704e-05 9.50489e-06 0.00110007)
(0.047298 -0.000188008 0.00127442 1.03849e-05 3.08726e-07 0.000910916)
(0.047173 -0.000184185 0.000948863 1.13066e-05 -2.28157e-06 0.00076809)
(0.0495281 -0.000101466 0.00144756 1.07641e-05 7.99998e-06 0.000836784)
(0.0509488 -0.000192972 0.00181249 1.39068e-05 7.25841e-06 0.000741123)
(0.0533282 -0.000289986 0.0016806 1.70472e-05 -7.56462e-06 0.000721478)
(0.0519515 -0.000226831 0.00118907 1.74841e-05 -1.45744e-05 0.000769537)
(0.0705651 -0.000383256 0.00128008 4.05221e-05 -4.36603e-06 0.00129089)
(0.0710709 -0.000185375 0.00150947 3.1556e-05 1.04032e-05 0.00147365)
(0.0712086 -9.93797e-05 0.00185486 2.6117e-05 6.82337e-06 0.0013757)
(0.0679082 -0.00012801 0.00164763 2.3896e-05 -2.65307e-05 0.0013272)
(0.069542 -0.000279102 0.00121254 2.67917e-05 -5.07581e-05 0.00168944)
(0.0663807 -0.000158059 0.00038952 2.80244e-05 -3.68733e-05 0.00193142)
(0.067324 -0.000156389 0.00127734 3.11739e-05 -2.65784e-05 0.00177935)
(0.0661006 -0.000214459 0.00164242 3.06331e-05 -2.24324e-05 0.0014081)
(0.0703378 -0.000368234 0.00180664 2.94676e-05 -2.92853e-05 0.00122793)
(0.0660681 -0.000441142 0.000836176 3.36021e-05 -4.19333e-05 0.00140325)
(0.0713894 -0.000419589 0.00057513 3.1598e-05 -5.13781e-05 0.00168353)
(0.0668789 -0.000339229 0.000944445 2.78678e-05 -4.31778e-05 0.00174521)
(0.0749805 -0.000357705 0.00114926 3.09783e-05 -4.6494e-05 0.00169554)
(0.0681896 -0.000368107 0.000737107 3.01463e-05 -3.41589e-05 0.0015858)
(0.0751887 -0.000486131 0.000246389 3.04732e-05 -2.46559e-05 0.00160746)
(0.0663887 -0.000352653 0.000474157 2.94275e-05 -3.11514e-05 0.00181352)
(0.0751238 -0.000339468 0.00115942 3.14812e-05 -1.85089e-05 0.00168965)
(0.0674328 -0.000270496 0.00108961 3.00254e-05 -1.23397e-05 0.00177517)
(0.0747333 -0.000393888 0.00120631 3.53916e-05 -5.92194e-05 0.00177948)
(0.0674004 -0.000309185 0.000395354 4.02298e-05 -4.51839e-05 0.00149813)
(0.0735039 -0.000359821 0.00055896 3.91732e-05 -8.30868e-06 0.00122046)
(0.069009 -0.000129665 0.000530282 3.07844e-05 -1.97351e-05 0.0013257)
(0.0708931 -0.000241807 0.00141785 2.96043e-05 -4.3473e-05 0.00150691)
(0.0707997 -0.000282483 0.00131411 3.16477e-05 -4.62269e-05 0.0012742)
(0.0712992 -0.000310955 0.00104976 3.15116e-05 -3.71241e-05 0.000953258)
(0.0736011 -0.000310564 0.00107004 3.2229e-05 -3.63555e-05 0.00102687)
(0.0690867 -0.000180107 0.00202535 3.47788e-05 -6.31643e-05 0.0013998)
(0.0737971 -0.000160403 0.00252684 3.37652e-05 -5.26479e-05 0.00135015)
(0.0684109 -0.000259528 0.00230319 3.77196e-05 -1.36899e-05 0.0012724)
(0.0715541 -0.000261924 0.00133766 4.13159e-05 1.44417e-05 0.00144255)
(0.0673715 -0.000205596 0.000921265 3.90635e-05 4.61189e-05 0.00144801)
(0.0689293 -0.000179252 0.00119832 4.10843e-05 5.86728e-05 0.00135602)
(0.0678709 -4.17792e-05 0.00169985 3.64265e-05 6.24888e-05 0.00142245)
(0.0665417 -0.000229713 0.00136517 2.79425e-05 4.5045e-05 0.00147689)
(0.064308 -0.000264342 0.00130785 2.90844e-05 2.33999e-05 0.00127534)
(0.0641799 -0.000335538 0.0011884 3.46218e-05 3.49929e-06 0.00107989)
(0.0668649 -0.000299894 0.00177631 3.11429e-05 2.00056e-05 0.00113864)
(0.066543 -0.000419428 0.00170823 3.8426e-05 3.20679e-05 0.00100798)
(0.0688059 -0.00047422 0.00191173 4.39735e-05 8.27739e-06 0.000990488)
(0.0676011 -0.000376081 0.00111008 4.34961e-05 1.92923e-06 0.00111419)
(0.0759592 -0.000419578 0.00147169 7.97863e-05 3.10171e-05 0.00154486)
(0.072804 -0.000280737 0.00135783 7.31501e-05 4.44188e-05 0.0016624)
(0.0754261 -0.000112801 0.00218499 6.22255e-05 2.8115e-05 0.00156591)
(0.0722032 -0.000137874 0.00163029 5.57005e-05 -1.11647e-05 0.00147138)
(0.0774044 -0.000338083 0.00118912 5.65446e-05 -3.56412e-05 0.00191057)
(0.0714859 -3.1877e-05 0.00017125 5.64889e-05 -1.2913e-05 0.00236822)
(0.0749587 -7.78632e-05 0.0013369 6.94622e-05 -7.40493e-06 0.00240788)
(0.0713829 -0.000233996 0.00172222 7.42528e-05 -5.12627e-06 0.00193415)
(0.0760621 -0.000427701 0.0021245 6.75865e-05 -8.19651e-06 0.00150491)
(0.0714269 -0.000482662 0.000678896 7.47858e-05 -2.30801e-05 0.00164843)
(0.0760443 -0.000505053 0.000274516 7.1848e-05 -3.58085e-05 0.00205155)
(0.0708157 -0.000424602 0.000446152 6.69886e-05 -2.64064e-05 0.00223727)
(0.077363 -0.000514921 0.000862934 7.34419e-05 -2.55025e-05 0.00222849)
(0.0737278 -0.000435778 0.000275266 7.4362e-05 -2.72466e-06 0.00215412)
(0.0784777 -0.000520838 -0.000622505 6.68382e-05 1.92864e-05 0.00220843)
(0.0730031 -0.000318903 -0.000581899 5.56934e-05 2.19532e-05 0.00245979)
(0.0769454 -0.000490108 0.000308415 6.00719e-05 3.29859e-05 0.00212392)
(0.0756185 -0.000397954 0.000375115 6.27124e-05 3.88847e-05 0.00199154)
(0.0785235 -0.00040176 0.000417386 7.35692e-05 -3.30322e-05 0.002053)
(0.072391 -0.000215099 -0.000156102 8.08216e-05 -2.28501e-05 0.0017435)
(0.0763828 -0.000432918 -4.64165e-05 8.2944e-05 3.57688e-05 0.00146871)
(0.0726758 -0.00013903 0.000454097 6.87895e-05 1.94666e-05 0.00163626)
(0.0768929 -0.000345055 0.00104136 6.14851e-05 6.40143e-06 0.00184282)
(0.0721098 -0.000261049 0.00129145 6.0021e-05 4.15929e-06 0.00156507)
(0.0742238 -0.000380026 0.00131724 6.39136e-05 -1.92865e-06 0.00113716)
(0.0730004 -0.000326645 0.00136084 6.36166e-05 5.49138e-06 0.00143192)
(0.072912 -0.000203727 0.00186213 5.97475e-05 -8.9677e-06 0.00203816)
(0.0729312 -0.000235424 0.00266784 6.34397e-05 -5.15857e-05 0.00190768)
(0.0740592 -0.000268795 0.00274999 7.56029e-05 -4.96227e-05 0.00166803)
(0.0727421 -0.000264249 0.00182822 8.47927e-05 -2.48178e-06 0.00154848)
(0.071409 -0.000199035 0.00157076 8.65018e-05 5.81725e-05 0.00140193)
(0.0724189 -0.000251708 0.00141218 9.1304e-05 8.78876e-05 0.00142281)
(0.0739339 -0.000125091 0.00147934 7.97218e-05 9.90361e-05 0.00159953)
(0.0713925 -0.000288766 0.000802558 6.13154e-05 7.6422e-05 0.00170801)
(0.0693849 -0.000291041 0.000718309 6.28261e-05 4.71262e-05 0.00147822)
(0.0683629 -0.000388967 0.000730765 7.66664e-05 1.71719e-05 0.00127916)
(0.0715719 -0.000357938 0.001801 6.84105e-05 3.3963e-05 0.00138287)
(0.0715672 -0.000576287 0.00177145 7.95026e-05 5.97383e-05 0.0012286)
(0.0770507 -0.000659591 0.00184415 8.43668e-05 3.39352e-05 0.00117334)
(0.0728727 -0.000397591 0.00107149 8.20752e-05 1.90697e-05 0.00129804)
(0.0700147 -0.000279129 0.00145383 0.000142308 2.53919e-05 0.00167156)
(0.0656278 -0.000110053 0.00144909 0.000131217 3.71951e-05 0.00166055)
(0.0697943 6.35026e-06 0.00208869 0.000106325 6.59291e-06 0.00160616)
(0.0701662 -1.8465e-05 0.00198416 0.000104808 -1.84613e-05 0.0015952)
(0.0685883 -0.000273949 0.00169811 0.000106373 -1.56949e-05 0.00187062)
(0.0668059 6.66291e-05 0.000633393 0.000101322 2.44259e-05 0.00224228)
(0.0703662 3.67842e-05 0.00147419 0.000123396 5.16287e-05 0.00245927)
(0.0680674 -0.000100767 0.00176224 0.000138771 6.53242e-05 0.00222599)
(0.0697019 -0.000361841 0.00209776 0.000131423 7.07966e-05 0.00176558)
(0.0676628 -0.000382827 0.000600762 0.000144618 3.82992e-05 0.00183063)
(0.0677687 -0.00031455 0.000248259 0.000141513 -1.10824e-05 0.00211425)
(0.065696 -0.000259696 0.000232982 0.000131797 -1.19038e-05 0.00215441)
(0.0671409 -0.000421769 0.00097657 0.000137754 -3.25996e-06 0.00214041)
(0.0684966 -0.000223971 0.000620331 0.000145072 3.52884e-05 0.00219965)
(0.0681571 -0.000161189 -0.000246441 0.000119328 7.25231e-05 0.00233032)
(0.0661097 -0.000104141 -0.000183092 9.96447e-05 7.80672e-05 0.0025584)
(0.0675519 -0.00044789 0.000406741 0.000115065 6.73191e-05 0.00218629)
(0.067318 -0.000349102 0.00029389 0.000132281 6.62427e-05 0.00202347)
(0.0649997 -0.000154639 -5.63907e-05 0.000146504 2.93365e-06 0.00216625)
(0.06488 -7.55322e-06 -2.71431e-05 0.000156604 -1.74475e-05 0.0018521)
(0.0623386 -0.000212846 0.000143044 0.000154809 4.30992e-05 0.00158641)
(0.0624926 -0.00010167 0.000671878 0.000132586 4.32322e-05 0.00177079)
(0.0665374 -0.000227775 0.00122289 0.000116271 5.75556e-05 0.00198424)
(0.0626657 -9.98632e-05 0.00136535 0.000106444 6.7331e-05 0.0018044)
(0.066381 -0.000209502 0.00135587 0.000125265 7.14369e-05 0.00152285)
(0.0623133 -0.000154729 0.00147072 0.000127795 0.00010082 0.00183529)
(0.0645546 -0.000123214 0.00173379 0.00011048 0.000100716 0.0024341)
(0.0629125 -0.000188015 0.00260762 0.000117468 -1.05305e-05 0.00219939)
(0.0674918 -0.00024552 0.00325175 0.000135662 -7.38616e-05 0.00194764)
(0.0670413 -0.000154403 0.00248937 0.000149744 -2.98412e-05 0.00175129)
(0.0637111 -0.000145184 0.00252911 0.000152193 4.11843e-05 0.00140756)
(0.0654926 -0.00032303 0.00156346 0.000158306 7.42307e-05 0.00151654)
(0.0661982 -0.000205606 0.000933493 0.000152813 6.90899e-05 0.0019229)
(0.0675491 -0.000273149 -0.000122527 0.000130839 5.91224e-06 0.00202068)
(0.0651792 -0.000167332 0.000233933 0.000116514 -7.13365e-06 0.00168048)
(0.0618779 -0.000309519 0.000365161 0.000130513 -5.25197e-06 0.00139434)
(0.0670141 -0.000412909 0.00173327 0.000135418 6.81105e-06 0.00158794)
(0.06782 -0.000718222 0.00168375 0.00015702 5.01964e-05 0.00156682)
(0.0709011 -0.000699179 0.00179651 0.000158182 4.13568e-05 0.00147393)
(0.0661928 -0.000323682 0.00118796 0.000148551 7.53915e-06 0.00151198)
(0.057399 -0.000128648 0.00123231 0.000243056 -1.64818e-05 0.00165471)
(0.0551114 -3.00672e-05 0.00116306 0.00021918 2.69827e-05 0.00158865)
(0.0606743 -7.2116e-06 0.0013273 0.000174806 -6.57663e-06 0.00171399)
(0.0594953 -8.6489e-05 0.000787828 0.000191576 -1.99046e-05 0.00181952)
(0.0625247 -0.000313231 0.00092935 0.000200405 -2.11726e-05 0.00201676)
(0.0561679 3.89844e-05 0.00014342 0.000190868 1.33456e-05 0.00213249)
(0.0631531 4.1473e-05 0.00116648 0.000211051 4.45468e-05 0.00212252)
(0.058032 4.22304e-05 0.00142945 0.000224027 7.13812e-05 0.00202383)
(0.0592341 -0.000152442 0.00209846 0.000218161 7.3108e-05 0.00195193)
(0.0535794 -0.00021446 0.0011273 0.000240657 3.24265e-05 0.00212657)
(0.0550211 -0.000112614 0.00085759 0.000242279 -3.21076e-05 0.00221145)
(0.0506807 1.77844e-05 0.000966451 0.00022364 -2.24906e-05 0.00186857)
(0.0525669 -0.000249628 0.00147096 0.000219296 -1.41518e-05 0.00168881)
(0.0504775 1.13843e-05 0.00138728 0.000229312 3.59197e-05 0.00184762)
(0.0533089 0.000140886 0.000809361 0.000212592 7.12566e-05 0.00201214)
(0.0496101 8.25892e-05 0.000825186 0.000211299 5.34624e-05 0.00226255)
(0.0521359 -0.000257764 0.0012296 0.000241363 -1.06107e-05 0.00217712)
(0.050469 -0.000161996 0.0013265 0.000255731 -2.41965e-05 0.00214677)
(0.054502 4.45995e-05 0.000533681 0.000253796 -1.17075e-05 0.0021989)
(0.0510819 0.000134492 0.000574396 0.000258691 -2.33113e-05 0.00181324)
(0.0503578 7.89338e-05 0.000853779 0.00024706 4.02942e-05 0.00154685)
(0.0503142 -2.92155e-05 0.000965513 0.000220208 6.2237e-05 0.00162374)
(0.0532193 -9.67691e-05 0.00152974 0.000202308 6.15736e-05 0.00182174)
(0.0522921 7.89604e-05 0.00181257 0.00018888 3.78613e-05 0.00184446)
(0.0559237 6.43105e-05 0.00175378 0.000217163 5.80373e-05 0.00182758)
(0.053029 0.000127686 0.00174366 0.000222417 0.000130014 0.00203765)
(0.0549508 4.30559e-05 0.00167897 0.00019978 0.000163137 0.00233126)
(0.0560373 -0.00017794 0.00220736 0.000220829 4.98392e-05 0.0020047)
(0.060504 -0.000275463 0.0031847 0.000239189 -6.67647e-05 0.00182914)
(0.0612209 -0.000106475 0.00304337 0.000234548 -4.66191e-05 0.00183496)
(0.0594813 -3.22696e-05 0.00270968 0.000232141 1.5436e-05 0.0015717)
(0.0564878 -0.000230199 0.00167741 0.000255711 -1.67323e-06 0.00189137)
(0.0594094 -3.58058e-05 0.000458261 0.000270489 -7.90499e-05 0.00254671)
(0.0577221 1.98436e-05 9.68068e-05 0.000242264 -0.000176275 0.00241962)
(0.0583897 0.000161755 0.000228394 0.00019553 -0.000135872 0.00191221)
(0.0529011 -9.07962e-05 0.000253988 0.00019448 -8.7217e-05 0.00147239)
(0.0553701 -0.000365414 0.000972786 0.000223179 -7.90801e-05 0.0017478)
(0.0552856 -0.000615807 0.00114232 0.0002653 -4.79925e-05 0.0021434)
(0.0569268 -0.000426074 0.00136232 0.000267421 -3.57826e-05 0.00215127)
(0.0558847 -0.000103897 0.00104488 0.00025454 -6.45135e-05 0.0019004)
(0.0435244 -5.38201e-05 0.0015437 0.000353419 4.4643e-06 0.00155813)
(0.0430151 1.18218e-05 0.00169011 0.000316738 5.51827e-05 0.00163334)
(0.0447407 0.00011523 0.00143444 0.000254105 1.0772e-05 0.00202374)
(0.0475186 -7.34873e-05 0.000742713 0.000286365 -8.08545e-06 0.00219469)
(0.0478884 -0.000341158 0.000866293 0.000314374 -4.96136e-05 0.00222975)
(0.0465674 -5.91345e-05 0.00109751 0.000331882 -6.13608e-05 0.00226897)
(0.0474551 3.59551e-05 0.00119104 0.000356524 -3.896e-05 0.00222571)
(0.0453826 0.000184249 0.00169802 0.000353622 -2.07881e-05 0.00210897)
(0.0430262 0.000117114 0.00212238 0.000344508 -3.72177e-05 0.00210793)
(0.0448377 4.68883e-06 0.00174775 0.000371039 -3.08189e-05 0.00222965)
(0.0395092 0.000185871 0.00151113 0.000366516 -1.53612e-05 0.00224295)
(0.0383243 0.00030498 0.00215232 0.000338789 1.95899e-05 0.00188552)
(0.0386519 9.16906e-06 0.00226131 0.00031314 -1.00822e-05 0.00163459)
(0.0399377 0.000191149 0.00193409 0.000311062 1.91015e-05 0.00190347)
(0.0391565 0.00030088 0.00142879 0.000334625 3.19243e-05 0.00214736)
(0.0382453 0.00014172 0.00122552 0.000373186 -8.18673e-06 0.00245219)
(0.0378172 -0.00011461 0.0015922 0.000394321 -8.90862e-05 0.0024688)
(0.039155 -6.59635e-05 0.00215295 0.000377656 -9.63863e-05 0.00223203)
(0.039583 0.000145978 0.00158079 0.000353121 -1.25856e-05 0.00224493)
(0.0410651 0.000348324 0.00119548 0.000341019 9.49611e-06 0.00218076)
(0.039107 0.000296596 0.00145275 0.000324742 6.68904e-05 0.00176857)
(0.0414665 5.35821e-05 0.00128977 0.000297559 0.000109947 0.00168388)
(0.0379202 8.5484e-05 0.00140093 0.000283231 8.88408e-05 0.00184801)
(0.0384713 0.000204547 0.00210984 0.000281484 -2.81987e-05 0.00195904)
(0.0421529 0.00017918 0.00237609 0.000317251 -7.53198e-05 0.00198417)
(0.0400021 0.000197567 0.00211461 0.000323383 4.48382e-06 0.00199199)
(0.0412954 0.000121585 0.00141659 0.000303235 0.000134392 0.00204567)
(0.0423146 -0.000181567 0.00155757 0.000340168 9.87118e-05 0.00178445)
(0.045339 -0.000160363 0.00256734 0.000359919 -4.69172e-05 0.00176215)
(0.0496473 -9.01841e-05 0.00243639 0.000342226 -6.92888e-05 0.00180871)
(0.0490701 -6.42666e-06 0.00222784 0.000353219 -2.18477e-05 0.00150599)
(0.044368 -0.000144213 0.00175289 0.00040801 -0.000101626 0.00186523)
(0.0441921 0.000136408 0.00145968 0.000426006 -0.000214053 0.00256367)
(0.0446653 0.000293182 0.00157217 0.00038455 -0.000257828 0.00254131)
(0.0465367 0.000345559 0.00091758 0.000321809 -0.000189067 0.00218323)
(0.041566 0.000100574 0.000418411 0.000309884 -0.00012776 0.00177208)
(0.0405247 -0.000182375 0.000777333 0.000318174 -0.000149202 0.00194129)
(0.0418781 -0.000381382 0.00133085 0.000335883 -0.000156524 0.0023707)
(0.0420513 -0.000274733 0.00189131 0.000331732 -0.000112464 0.00239084)
(0.0446224 -7.12584e-05 0.00186864 0.000346087 -9.51329e-05 0.00196883)
(0.0351941 -0.000448679 0.00258076 0.00044204 0.000102903 0.00185992)
(0.0320434 -0.000240202 0.00253354 0.000398936 0.000111549 0.00194954)
(0.0300997 -5.63278e-05 0.00224533 0.000334754 5.60215e-05 0.00215603)
(0.0324008 -0.000177576 0.00135215 0.000405753 9.59527e-05 0.00219893)
(0.0345386 -0.000517695 0.00118349 0.000499427 7.54684e-05 0.00213255)
(0.0335184 -0.000214574 0.00172734 0.000548143 4.9924e-05 0.00239848)
(0.032824 5.44068e-05 0.00206617 0.000545914 3.66694e-05 0.00264716)
(0.0310586 0.000325438 0.00255365 0.000501039 6.43352e-06 0.00260855)
(0.030925 0.000161848 0.002441 0.000490302 -8.78723e-05 0.00230128)
(0.0333442 -8.6699e-06 0.00213633 0.000496957 -5.56462e-05 0.00230335)
(0.0285096 0.000262653 0.00189101 0.000450371 4.28708e-05 0.00213496)
(0.0276907 0.000333525 0.00290349 0.00040514 6.67944e-05 0.00179647)
(0.0296763 1.89562e-05 0.00308136 0.000378157 1.46753e-06 0.00166372)
(0.0308059 0.000164115 0.00242186 0.000379316 -3.8852e-05 0.00190289)
(0.0287765 0.000269164 0.00221189 0.000443037 -8.90885e-05 0.00234871)
(0.0276163 0.000249525 0.00200241 0.000485899 -0.000119441 0.00275631)
(0.0272152 0.000122941 0.00213765 0.000476745 -0.000144231 0.00270468)
(0.0290355 2.58905e-05 0.00255759 0.000459623 -0.000124511 0.00246188)
(0.0279884 0.000225292 0.00201638 0.000430983 2.276e-05 0.00265487)
(0.0296951 0.000418869 0.00142919 0.000415265 9.57418e-05 0.00285882)
(0.0305983 0.000289892 0.00198019 0.000423105 0.000146896 0.00239905)
(0.0298539 0.000162581 0.00156384 0.000380195 0.000207591 0.00224276)
(0.0271929 0.000337299 0.00123294 0.000314858 0.000193836 0.00245891)
(0.0284856 0.0003378 0.00177819 0.000310447 6.78665e-05 0.00255244)
(0.0318915 0.000266089 0.00271738 0.000363061 -4.6748e-05 0.00247745)
(0.0296364 0.000293531 0.00234822 0.000389496 -3.41452e-05 0.00237096)
(0.0296227 0.00024196 0.0015607 0.000388437 0.000120625 0.00210152)
(0.0306613 2.9938e-05 0.00151341 0.000434316 0.000164052 0.00192459)
(0.0315166 0.00019497 0.00247217 0.000466349 4.83126e-05 0.00198592)
(0.035699 0.000138874 0.00255171 0.000463252 2.977e-05 0.0018847)
(0.0363137 2.34205e-05 0.0022947 0.000488058 4.33715e-05 0.00169062)
(0.0334018 -0.000263182 0.0025094 0.000566228 -0.00012066 0.00203342)
(0.0302343 -0.000104936 0.00309767 0.000591715 -0.00025966 0.00240371)
(0.0311137 0.000100832 0.00316061 0.000526106 -0.000268206 0.002547)
(0.0335659 7.26148e-05 0.00251106 0.000426174 -0.00024917 0.00236857)
(0.0296554 -7.40111e-06 0.00154643 0.000381436 -0.000193742 0.00209175)
(0.026982 -7.95908e-05 0.00148019 0.00035611 -0.000191253 0.00217227)
(0.0285439 -0.000249375 0.00198493 0.000361435 -0.000187309 0.0025313)
(0.0313278 -0.000397569 0.00286053 0.00039612 -9.85322e-05 0.00249858)
(0.0332417 -0.000401175 0.00295506 0.000437119 2.23136e-05 0.00210009)
(0.0299424 -0.00106778 0.00252295 0.000574877 5.33413e-05 0.00173021)
(0.0260652 -0.000759786 0.0026721 0.000518777 3.95183e-05 0.00183383)
(0.0207426 -0.000349495 0.00225056 0.000440686 3.01102e-07 0.00190877)
(0.0219472 -0.000377314 0.00140325 0.000536804 6.08742e-05 0.00174802)
(0.0225746 -0.000640636 0.000844728 0.000661121 0.000160779 0.00153768)
(0.0230276 -0.000370924 0.00143021 0.000671418 0.000165525 0.00176664)
(0.0244581 -0.000162534 0.00217717 0.000635402 0.000108727 0.00201256)
(0.0225175 0.000117226 0.00252923 0.000581779 4.38825e-05 0.00211639)
(0.0220224 3.30395e-05 0.00214743 0.00057253 -4.07722e-05 0.00209423)
(0.0235505 -0.000142437 0.00194719 0.000557261 -2.7291e-05 0.00213631)
(0.0204592 6.9711e-05 0.00172952 0.000481622 5.90041e-05 0.00198992)
(0.0210066 2.71288e-06 0.00242528 0.000438227 4.41631e-05 0.00179638)
(0.0237672 -0.000188829 0.00281277 0.00041997 -3.72878e-05 0.00169659)
(0.0222735 4.93864e-06 0.0024894 0.000407803 -9.21625e-05 0.00160946)
(0.0213192 0.000130845 0.00266002 0.000463171 -0.000132272 0.00189905)
(0.0206194 0.000219406 0.00252807 0.000475888 -0.000129397 0.00218202)
(0.0215461 0.000177493 0.00203846 0.000455038 -0.000129736 0.00212557)
(0.0229896 -8.11252e-05 0.00215799 0.000479227 -0.000131504 0.00226711)
(0.02263 7.69815e-05 0.00131466 0.000466165 5.67637e-05 0.00255922)
(0.0214769 0.00022597 0.000590372 0.000463494 0.000236242 0.00267581)
(0.0240626 -4.2544e-05 0.00142773 0.000495446 0.000235384 0.002349)
(0.0230352 -3.64329e-05 0.00140312 0.000444682 0.000237996 0.00220868)
(0.0212716 0.000166373 0.000601587 0.000354887 0.000237626 0.00254785)
(0.0220875 0.000138609 0.00092604 0.000369078 0.000183464 0.00279507)
(0.0257439 0.000116744 0.0020364 0.000424482 0.00011511 0.00255828)
(0.024332 0.000186443 0.00229437 0.000469932 5.60242e-05 0.00253368)
(0.0247557 0.000180876 0.0016741 0.00051232 0.000109457 0.0023326)
(0.0233964 9.93907e-05 0.00140399 0.000560115 0.000202182 0.00222423)
(0.0222656 0.000362618 0.00220992 0.000594102 0.000137808 0.0022821)
(0.0234785 0.000384793 0.00278126 0.000623211 0.000108108 0.00202259)
(0.0243254 0.000125864 0.0021948 0.000658465 0.000105471 0.00186917)
(0.0235303 -0.000387506 0.00222076 0.000736281 -3.80058e-05 0.00220389)
(0.0207415 -0.000434165 0.00292535 0.000733462 -0.000153679 0.00238421)
(0.0215756 -0.000191819 0.00269273 0.000615574 -0.00016918 0.00239411)
(0.0247766 -0.000312197 0.00226862 0.000466951 -0.000240478 0.00228483)
(0.0214684 -0.00028147 0.00159406 0.000389402 -0.000261229 0.002096)
(0.0173202 -6.50382e-05 0.00109273 0.000355944 -0.000252419 0.0020146)
(0.0187902 -0.000137769 0.00129325 0.0003817 -0.000148106 0.00230343)
(0.0228425 -0.00051236 0.00195009 0.000480238 -1.46924e-05 0.0022329)
(0.0264825 -0.000782383 0.00254877 0.000557087 7.27749e-05 0.00193812)
(0.0209715 -0.000959351 0.00232641 0.000795158 -7.52556e-05 0.00162377)
(0.0185999 -0.000814883 0.00248518 0.00068356 -7.42063e-05 0.00170555)
(0.0151776 -0.000327092 0.00220656 0.000566521 -3.92432e-05 0.00190578)
(0.0154648 -0.000245176 0.00131482 0.000649751 3.26558e-05 0.00182603)
(0.0146014 -0.000270094 0.000728162 0.000729458 0.000191752 0.00175052)
(0.0146772 -7.20007e-05 0.00132758 0.000702089 0.000221213 0.00187141)
(0.0178591 -0.000145938 0.00155185 0.000672629 0.000197038 0.00176824)
(0.0171805 6.53831e-08 0.00140891 0.000631006 0.000140954 0.00166607)
(0.0155869 9.08618e-05 0.00170585 0.000608184 5.2652e-05 0.00167799)
(0.0163195 -3.22793e-05 0.00159771 0.000586668 6.4491e-05 0.00149171)
(0.014839 -1.10005e-05 0.00118934 0.000517523 0.000143013 0.00135549)