/*--------------------------------*- C++ -*----------------------------------*\
  =========                 |
  \\      /  F ield         | OpenFOAM: The Open Source CFD Toolbox
   \\    /   O peration     | Website:  https://openfoam.org
    \\  /    A nd           | Version:  10
     \\/     M anipulation  |
\*---------------------------------------------------------------------------*/
FoamFile
{
    format      ascii;
    class       volTensorField;
    location    "27.5";
    object      TauNN;
}
// * * * * * * * * * * * * * * * * * * * * * * * * * * * * * * * * * * * * * //

dimensions      [0 2 -2 0 0 0 0];

internalField   nonuniform List<tensor> 
25600
(
(1.8818e-05 -0.0127904 -0.0154423 -0.0127904 2.39342e-05 -0.0081189 -0.0154423 -0.0081189 6.53337e-05)
(1.61154e-05 -0.0127894 -0.0154389 -0.0127894 2.53893e-05 -0.00813198 -0.0154389 -0.00813198 4.06269e-05)
(0.000204518 -0.012796 -0.0154624 -0.012796 4.10744e-05 -0.00814291 -0.0154624 -0.00814291 8.05838e-05)
(2.30583e-06 -0.0127852 -0.0154296 -0.0127852 1.83961e-05 -0.00812572 -0.0154296 -0.00812572 4.45652e-05)
(3.57067e-05 -0.0127867 -0.0154387 -0.0127867 2.28306e-05 -0.0081226 -0.0154387 -0.0081226 7.96162e-05)
(6.84911e-07 -0.0127931 -0.0154277 -0.0127931 3.94259e-05 -0.0081135 -0.0154277 -0.0081135 8.85254e-05)
(2.4741e-05 -0.0127909 -0.0154281 -0.0127909 3.71433e-05 -0.00811931 -0.0154281 -0.00811931 7.57394e-05)
(6.33315e-06 -0.0127929 -0.0154306 -0.0127929 3.4563e-05 -0.00811899 -0.0154306 -0.00811899 7.09678e-05)
(3.29799e-05 -0.0127889 -0.0154194 -0.0127889 2.50388e-05 -0.00812216 -0.0154194 -0.00812216 7.52059e-05)
(4.19515e-06 -0.0127881 -0.015429 -0.0127881 2.40843e-05 -0.00812318 -0.015429 -0.00812318 5.33641e-05)
(-1.44856e-06 -0.0127947 -0.0154392 -0.0127947 2.94299e-05 -0.00811659 -0.0154392 -0.00811659 0.00010563)
(3.82166e-05 -0.0127931 -0.0154199 -0.0127931 3.39585e-05 -0.00811514 -0.0154199 -0.00811514 9.6545e-05)
(8.00723e-05 -0.0127928 -0.0154179 -0.0127928 2.63332e-05 -0.00813085 -0.0154179 -0.00813085 5.90018e-05)
(3.20026e-05 -0.0127835 -0.015428 -0.0127835 2.27259e-05 -0.00813194 -0.015428 -0.00813194 7.28531e-05)
(1.40146e-05 -0.0127922 -0.0154272 -0.0127922 2.79481e-05 -0.00811881 -0.0154272 -0.00811881 6.92505e-05)
(6.40314e-05 -0.0127919 -0.0154288 -0.0127919 2.64726e-05 -0.00813065 -0.0154288 -0.00813065 4.56864e-05)
(3.23751e-05 -0.0127895 -0.0154264 -0.0127895 2.33015e-05 -0.0081269 -0.0154264 -0.0081269 4.95552e-05)
(2.56171e-05 -0.0127868 -0.0154237 -0.0127868 2.0948e-05 -0.00812744 -0.0154237 -0.00812744 5.68537e-05)
(3.0262e-05 -0.0127877 -0.0154257 -0.0127877 2.127e-05 -0.00812936 -0.0154257 -0.00812936 4.82768e-05)
(4.57152e-05 -0.0127897 -0.0154211 -0.0127897 2.4873e-05 -0.00812626 -0.0154211 -0.00812626 6.51966e-05)
(6.58747e-06 -0.0127947 -0.015434 -0.0127947 3.70674e-05 -0.00812223 -0.015434 -0.00812223 6.28019e-05)
(1.89487e-05 -0.0127902 -0.0154311 -0.0127902 2.87896e-05 -0.00812604 -0.0154311 -0.00812604 5.33161e-05)
(5.11113e-06 -0.0127839 -0.0154299 -0.0127839 1.84462e-05 -0.00812803 -0.0154299 -0.00812803 4.11334e-05)
(2.59888e-05 -0.0127878 -0.0154207 -0.0127878 2.52734e-05 -0.00812627 -0.0154207 -0.00812627 9.91652e-05)
(5.36151e-05 -0.0127905 -0.0154141 -0.0127905 2.69728e-05 -0.00813303 -0.0154141 -0.00813303 8.31226e-05)
(6.45106e-05 -0.0127924 -0.0154183 -0.0127924 2.735e-05 -0.00813342 -0.0154183 -0.00813342 6.24076e-05)
(3.30813e-05 -0.0127883 -0.0154277 -0.0127883 2.30863e-05 -0.0081299 -0.0154277 -0.0081299 4.78216e-05)
(-1.17902e-05 -0.012794 -0.0154358 -0.012794 3.40849e-05 -0.00812279 -0.0154358 -0.00812279 5.33659e-05)
(4.01475e-05 -0.0127899 -0.0154162 -0.0127899 2.92697e-05 -0.00811828 -0.0154162 -0.00811828 8.85263e-05)
(-1.52765e-05 -0.0127969 -0.015448 -0.0127969 3.39086e-05 -0.00813508 -0.015448 -0.00813508 4.55827e-05)
(2.84327e-05 -0.0127914 -0.0154224 -0.0127914 2.80249e-05 -0.00812038 -0.0154224 -0.00812038 9.61179e-05)
(9.22603e-05 -0.0127993 -0.0154124 -0.0127993 3.57105e-05 -0.00813678 -0.0154124 -0.00813678 0.000128022)
(-2.1589e-08 -0.0127887 -0.0154275 -0.0127887 2.47478e-05 -0.00811963 -0.0154275 -0.00811963 6.43808e-05)
(3.71871e-05 -0.0127896 -0.0154185 -0.0127896 2.84372e-05 -0.00812004 -0.0154185 -0.00812004 8.26517e-05)
(4.25147e-05 -0.0127885 -0.0154138 -0.0127885 2.47356e-05 -0.00812914 -0.0154138 -0.00812914 8.47471e-05)
(1.30313e-05 -0.0127866 -0.0154268 -0.0127866 2.1029e-05 -0.00812321 -0.0154268 -0.00812321 7.2457e-05)
(1.57889e-05 -0.0127913 -0.015429 -0.0127913 2.62562e-05 -0.00811931 -0.015429 -0.00811931 8.77367e-05)
(4.36359e-05 -0.0127887 -0.0154178 -0.0127887 2.38345e-05 -0.00812881 -0.0154178 -0.00812881 6.32699e-05)
(0.000106706 -0.0127939 -0.0154333 -0.0127939 3.26912e-05 -0.00813263 -0.0154333 -0.00813263 6.42072e-05)
(4.88183e-05 -0.0127904 -0.015417 -0.0127904 2.64545e-05 -0.00812255 -0.015417 -0.00812255 8.05938e-05)
(4.53412e-05 -0.0127898 -0.0154249 -0.0127898 3.28257e-05 -0.00814158 -0.0154249 -0.00814158 7.09701e-05)
(3.49962e-05 -0.0127946 -0.0154214 -0.0127946 3.55618e-05 -0.00811291 -0.0154214 -0.00811291 9.66984e-05)
(4.64544e-05 -0.012795 -0.0154203 -0.012795 3.14323e-05 -0.00811783 -0.0154203 -0.00811783 0.000105528)
(4.4065e-05 -0.0127885 -0.0154243 -0.0127885 2.65337e-05 -0.0081358 -0.0154243 -0.0081358 6.23838e-05)
(8.49565e-05 -0.0127957 -0.0154173 -0.0127957 2.64976e-05 -0.0081296 -0.0154173 -0.0081296 5.64623e-05)
(7.36692e-05 -0.0127923 -0.0154108 -0.0127923 2.6281e-05 -0.00812666 -0.0154108 -0.00812666 7.44574e-05)
(6.51563e-05 -0.0127913 -0.0154101 -0.0127913 2.71547e-05 -0.00812833 -0.0154101 -0.00812833 9.38005e-05)
(5.96997e-06 -0.0127923 -0.0154305 -0.0127923 2.73234e-05 -0.00811743 -0.0154305 -0.00811743 8.4727e-05)
(-1.15707e-06 -0.0127912 -0.0154382 -0.0127912 2.4453e-05 -0.00811927 -0.0154382 -0.00811927 6.59264e-05)
(4.18211e-05 -0.0127897 -0.0154272 -0.0127897 2.35551e-05 -0.00813243 -0.0154272 -0.00813243 4.71985e-05)
(7.08916e-05 -0.0127943 -0.0154194 -0.0127943 2.49484e-05 -0.00813052 -0.0154194 -0.00813052 6.1209e-05)
(1.31623e-05 -0.0127867 -0.0154317 -0.0127867 2.0286e-05 -0.00812747 -0.0154317 -0.00812747 4.51844e-05)
(4.11888e-05 -0.0127887 -0.0154296 -0.0127887 2.6378e-05 -0.00812853 -0.0154296 -0.00812853 0.0001025)
(6.68617e-05 -0.0127913 -0.0154155 -0.0127913 2.42091e-05 -0.00812629 -0.0154155 -0.00812629 6.66304e-05)
(1.12593e-05 -0.0127921 -0.0154254 -0.0127921 3.27573e-05 -0.00811619 -0.0154254 -0.00811619 7.55821e-05)
(3.38068e-05 -0.0127879 -0.0154286 -0.0127879 2.25934e-05 -0.00813164 -0.0154286 -0.00813164 4.23743e-05)
(8.50273e-05 -0.0128016 -0.0154161 -0.0128016 4.12407e-05 -0.00814392 -0.0154161 -0.00814392 7.64159e-05)
(4.61678e-05 -0.0127899 -0.0154214 -0.0127899 2.76979e-05 -0.00813182 -0.0154214 -0.00813182 0.000106345)
(4.9934e-05 -0.0127899 -0.0154164 -0.0127899 2.47248e-05 -0.00812947 -0.0154164 -0.00812947 7.47112e-05)
(7.85426e-05 -0.0127951 -0.0154101 -0.0127951 2.98519e-05 -0.00813493 -0.0154101 -0.00813493 8.65764e-05)
(2.27051e-05 -0.012788 -0.0154239 -0.012788 2.30277e-05 -0.00812352 -0.0154239 -0.00812352 8.00092e-05)
(2.79457e-05 -0.0127892 -0.0154278 -0.0127892 2.17825e-05 -0.00812388 -0.0154278 -0.00812388 7.06761e-05)
(5.91605e-05 -0.0127942 -0.0154236 -0.0127942 3.48552e-05 -0.00814039 -0.0154236 -0.00814039 5.81364e-05)
(5.59464e-05 -0.012792 -0.0154173 -0.012792 2.79178e-05 -0.00813485 -0.0154173 -0.00813485 6.77475e-05)
(4.24534e-05 -0.0127915 -0.0154302 -0.0127915 2.57518e-05 -0.00813377 -0.0154302 -0.00813377 3.75194e-05)
(4.73604e-05 -0.0127911 -0.0154218 -0.0127911 2.26858e-05 -0.00812744 -0.0154218 -0.00812744 6.32246e-05)
(0.000114718 -0.0128016 -0.0154032 -0.0128016 3.55608e-05 -0.00813952 -0.0154032 -0.00813952 0.000107853)
(5.00276e-05 -0.01279 -0.0154183 -0.01279 2.27101e-05 -0.00812693 -0.0154183 -0.00812693 7.21207e-05)
(4.68619e-05 -0.0127923 -0.015427 -0.0127923 3.45991e-05 -0.00813922 -0.015427 -0.00813922 4.28121e-05)
(5.68549e-05 -0.0127927 -0.0154205 -0.0127927 3.1649e-05 -0.00813884 -0.0154205 -0.00813884 6.79226e-05)
(2.90979e-05 -0.0127873 -0.0154279 -0.0127873 2.03203e-05 -0.00812903 -0.0154279 -0.00812903 4.58857e-05)
(3.50542e-05 -0.0127896 -0.0154425 -0.0127896 3.02055e-05 -0.00813125 -0.0154425 -0.00813125 3.42256e-05)
(3.73767e-05 -0.0127895 -0.015438 -0.0127895 2.37038e-05 -0.00813227 -0.015438 -0.00813227 4.6951e-05)
(4.25848e-05 -0.0127869 -0.0154273 -0.0127869 2.28596e-05 -0.00813168 -0.0154273 -0.00813168 5.78415e-05)
(6.62383e-05 -0.0127925 -0.0154196 -0.0127925 3.72815e-05 -0.00814406 -0.0154196 -0.00814406 9.12153e-05)
(6.45782e-05 -0.0127918 -0.0154131 -0.0127918 2.67046e-05 -0.00813045 -0.0154131 -0.00813045 8.3308e-05)
(1.87435e-05 -0.0127862 -0.0154253 -0.0127862 2.21018e-05 -0.00812561 -0.0154253 -0.00812561 7.17753e-05)
(5.2335e-05 -0.01279 -0.0154136 -0.01279 2.71413e-05 -0.00813111 -0.0154136 -0.00813111 8.96616e-05)
(8.68119e-05 -0.0127947 -0.0154077 -0.0127947 2.81513e-05 -0.00813085 -0.0154077 -0.00813085 9.31301e-05)
(5.81548e-05 -0.0127924 -0.0154166 -0.0127924 3.06783e-05 -0.00813828 -0.0154166 -0.00813828 0.000100456)
(4.92284e-05 -0.0127911 -0.0154252 -0.0127911 2.34959e-05 -0.00813112 -0.0154252 -0.00813112 5.2265e-05)
(0.000123264 -0.0127916 -0.0154029 -0.0127916 3.02752e-05 -0.00812028 -0.0154029 -0.00812028 8.65237e-05)
(4.66783e-05 -0.01279 -0.015416 -0.01279 2.45602e-05 -0.00812799 -0.015416 -0.00812799 8.92211e-05)
(-5.838e-06 -0.0127979 -0.0154419 -0.0127979 2.8952e-05 -0.00811687 -0.0154419 -0.00811687 6.40407e-05)
(1.3687e-05 -0.0127922 -0.0154326 -0.0127922 2.56878e-05 -0.00812146 -0.0154326 -0.00812146 6.4889e-05)
(5.26213e-05 -0.0127971 -0.015433 -0.0127971 3.31925e-05 -0.00813473 -0.015433 -0.00813473 2.98049e-05)
(0.000108585 -0.0128095 -0.0154122 -0.0128095 4.46853e-05 -0.00814407 -0.0154122 -0.00814407 6.73953e-05)
(0.000108564 -0.012813 -0.0154118 -0.012813 5.92395e-05 -0.00815193 -0.0154118 -0.00815193 8.14656e-05)
(2.25716e-05 -0.0127854 -0.0154311 -0.0127854 2.098e-05 -0.00812565 -0.0154311 -0.00812565 7.52279e-05)
(8.54571e-06 -0.0127874 -0.0154308 -0.0127874 2.3564e-05 -0.00812297 -0.0154308 -0.00812297 9.47449e-05)
(-5.46224e-06 -0.0127917 -0.0154278 -0.0127917 3.01056e-05 -0.0081156 -0.0154278 -0.0081156 9.68074e-05)
(6.39567e-05 -0.0127961 -0.0154289 -0.0127961 3.08709e-05 -0.00813583 -0.0154289 -0.00813583 4.62281e-05)
(6.67721e-05 -0.0127904 -0.0154199 -0.0127904 3.19348e-05 -0.00812019 -0.0154199 -0.00812019 7.47993e-05)
(3.34993e-06 -0.0127923 -0.0154265 -0.0127923 4.06193e-05 -0.00811183 -0.0154265 -0.00811183 8.63661e-05)
(1.02212e-05 -0.0127866 -0.015427 -0.0127866 2.33784e-05 -0.00812324 -0.015427 -0.00812324 8.15037e-05)
(4.76191e-05 -0.0127842 -0.015436 -0.0127842 2.45497e-05 -0.00812867 -0.015436 -0.00812867 9.39417e-05)
(5.95477e-05 -0.0127918 -0.0154197 -0.0127918 2.51172e-05 -0.00812762 -0.0154197 -0.00812762 7.23313e-05)
(8.43524e-05 -0.0127961 -0.0154089 -0.0127961 2.7987e-05 -0.00813237 -0.0154089 -0.00813237 7.64251e-05)
(4.80315e-05 -0.0127943 -0.0154236 -0.0127943 3.28585e-05 -0.00813928 -0.0154236 -0.00813928 5.0218e-05)
(6.51148e-05 -0.0127944 -0.0154243 -0.0127944 2.59975e-05 -0.008133 -0.0154243 -0.008133 4.92032e-05)
(7.79483e-05 -0.0127945 -0.0154106 -0.0127945 2.7791e-05 -0.00813336 -0.0154106 -0.00813336 7.54157e-05)
(3.18247e-05 -0.0127803 -0.0154332 -0.0127803 1.84668e-05 -0.00813006 -0.0154332 -0.00813006 3.30139e-05)
(3.26481e-05 -0.0127856 -0.0154369 -0.0127856 1.86655e-05 -0.00812952 -0.0154369 -0.00812952 3.25458e-05)
(3.36096e-05 -0.0127921 -0.0154361 -0.0127921 2.45531e-05 -0.00812897 -0.0154361 -0.00812897 4.73095e-05)
(7.35288e-05 -0.0127906 -0.0154074 -0.0127906 2.74925e-05 -0.00812272 -0.0154074 -0.00812272 9.74013e-05)
(4.29388e-05 -0.0127907 -0.0154275 -0.0127907 2.64166e-05 -0.00812587 -0.0154275 -0.00812587 5.40903e-05)
(4.27871e-05 -0.0127916 -0.0154249 -0.0127916 2.57799e-05 -0.00812294 -0.0154249 -0.00812294 6.67269e-05)
(5.34703e-05 -0.0127896 -0.0154238 -0.0127896 3.41067e-05 -0.00814273 -0.0154238 -0.00814273 0.000113182)
(3.0554e-05 -0.0127867 -0.015431 -0.0127867 2.11843e-05 -0.00813112 -0.015431 -0.00813112 3.47872e-05)
(4.63541e-05 -0.0127905 -0.0154206 -0.0127905 2.70147e-05 -0.00812264 -0.0154206 -0.00812264 7.32908e-05)
(3.03373e-05 -0.0127884 -0.0154253 -0.0127884 2.20277e-05 -0.00812858 -0.0154253 -0.00812858 4.91354e-05)
(8.14706e-05 -0.0127948 -0.0154082 -0.0127948 2.91034e-05 -0.00813352 -0.0154082 -0.00813352 8.41034e-05)
(5.70505e-05 -0.0127909 -0.015413 -0.0127909 2.69136e-05 -0.00813053 -0.015413 -0.00813053 0.000100854)
(4.13502e-05 -0.0127852 -0.01543 -0.0127852 2.61445e-05 -0.0081357 -0.01543 -0.0081357 4.61892e-05)
(5.21153e-05 -0.0127902 -0.0154144 -0.0127902 2.53119e-05 -0.00812543 -0.0154144 -0.00812543 9.17375e-05)
(6.56001e-05 -0.0127917 -0.015411 -0.0127917 2.60206e-05 -0.0081303 -0.015411 -0.0081303 8.3999e-05)
(3.59186e-05 -0.0127849 -0.0154282 -0.0127849 2.21852e-05 -0.0081323 -0.0154282 -0.0081323 5.58102e-05)
(3.69234e-05 -0.0127894 -0.0154203 -0.0127894 2.46949e-05 -0.00812375 -0.0154203 -0.00812375 8.47008e-05)
(0.000100707 -0.0128053 -0.0154076 -0.0128053 3.99777e-05 -0.00814351 -0.0154076 -0.00814351 8.9243e-05)
(3.28043e-05 -0.0127874 -0.015428 -0.0127874 2.42869e-05 -0.00813419 -0.015428 -0.00813419 4.26507e-05)
(6.94451e-05 -0.0127922 -0.0154287 -0.0127922 2.67094e-05 -0.0081292 -0.0154287 -0.0081292 5.92706e-05)
(7.01859e-05 -0.0128075 -0.0154304 -0.0128075 4.78069e-05 -0.00813838 -0.0154304 -0.00813838 3.06358e-05)
(6.34647e-05 -0.0127952 -0.0154157 -0.0127952 3.00659e-05 -0.00813675 -0.0154157 -0.00813675 6.72216e-05)
(4.51804e-05 -0.0127907 -0.0154284 -0.0127907 2.30364e-05 -0.00813037 -0.0154284 -0.00813037 4.80746e-05)
(5.06895e-06 -0.012793 -0.0154381 -0.012793 2.42475e-05 -0.00812429 -0.0154381 -0.00812429 4.48499e-05)
(-4.64834e-07 -0.0127936 -0.0154375 -0.0127936 2.51583e-05 -0.00811816 -0.0154375 -0.00811816 6.41679e-05)
(2.27749e-05 -0.0127921 -0.0154282 -0.0127921 2.60721e-05 -0.00811928 -0.0154282 -0.00811928 7.74595e-05)
(6.6748e-05 -0.0127913 -0.0154109 -0.0127913 2.52097e-05 -0.00812462 -0.0154109 -0.00812462 8.81111e-05)
(7.98633e-05 -0.0128037 -0.0154136 -0.0128037 4.38661e-05 -0.00814738 -0.0154136 -0.00814738 8.89701e-05)
(6.91354e-05 -0.0127933 -0.0154234 -0.0127933 2.54685e-05 -0.0081275 -0.0154234 -0.0081275 6.11228e-05)
(2.97536e-05 -0.0127921 -0.0154225 -0.0127921 2.77505e-05 -0.00811911 -0.0154225 -0.00811911 9.80509e-05)
(-2.90898e-05 -0.0127988 -0.0154368 -0.0127988 4.44752e-05 -0.00810842 -0.0154368 -0.00810842 8.40593e-05)
(0.000112971 -0.0127934 -0.0154052 -0.0127934 2.99029e-05 -0.00812131 -0.0154052 -0.00812131 8.64478e-05)
(7.27383e-05 -0.0127978 -0.0154183 -0.0127978 3.80288e-05 -0.00814315 -0.0154183 -0.00814315 7.84927e-05)
(3.9192e-05 -0.0127825 -0.0154347 -0.0127825 2.02877e-05 -0.00812795 -0.0154347 -0.00812795 7.36614e-05)
(1.96493e-05 -0.0127857 -0.0154312 -0.0127857 1.87957e-05 -0.00812936 -0.0154312 -0.00812936 4.2329e-05)
(1.68671e-05 -0.0127924 -0.0154309 -0.0127924 3.3021e-05 -0.00811926 -0.0154309 -0.00811926 6.36398e-05)
(2.48074e-05 -0.0127845 -0.0154342 -0.0127845 1.91569e-05 -0.00812594 -0.0154342 -0.00812594 6.26338e-05)
(4.11068e-05 -0.0127886 -0.0154154 -0.0127886 2.45421e-05 -0.00812494 -0.0154154 -0.00812494 9.19374e-05)
(0.000118438 -0.0127971 -0.0154044 -0.0127971 3.42147e-05 -0.00812543 -0.0154044 -0.00812543 0.000118134)
(1.50264e-05 -0.0127893 -0.0154247 -0.0127893 2.49962e-05 -0.00812014 -0.0154247 -0.00812014 9.07189e-05)
(3.05429e-05 -0.0127881 -0.0154261 -0.0127881 2.10099e-05 -0.00812914 -0.0154261 -0.00812914 4.85216e-05)
(5.36708e-05 -0.0127895 -0.0154149 -0.0127895 2.95424e-05 -0.00811858 -0.0154149 -0.00811858 8.93312e-05)
(2.47685e-05 -0.0127911 -0.015428 -0.0127911 3.14375e-05 -0.00811975 -0.015428 -0.00811975 7.36061e-05)
(4.63114e-05 -0.0127905 -0.0154195 -0.0127905 2.48166e-05 -0.00812292 -0.0154195 -0.00812292 7.26411e-05)
(7.19056e-05 -0.0127938 -0.0154119 -0.0127938 2.77479e-05 -0.00813121 -0.0154119 -0.00813121 8.96141e-05)
(1.76074e-05 -0.0127879 -0.0154277 -0.0127879 1.99917e-05 -0.00812349 -0.0154277 -0.00812349 6.12424e-05)
(2.06824e-05 -0.0127852 -0.0154275 -0.0127852 1.98813e-05 -0.00812784 -0.0154275 -0.00812784 6.02406e-05)
(8.79053e-05 -0.0127932 -0.0154099 -0.0127932 3.51782e-05 -0.00811645 -0.0154099 -0.00811645 0.000104935)
(4.31573e-05 -0.0127903 -0.0154217 -0.0127903 2.27587e-05 -0.00812507 -0.0154217 -0.00812507 6.19986e-05)
(-3.40885e-05 -0.0128072 -0.0154491 -0.0128072 3.96013e-05 -0.00811295 -0.0154491 -0.00811295 6.51555e-05)
(-4.64005e-05 -0.0128014 -0.0154414 -0.0128014 5.02567e-05 -0.00810456 -0.0154414 -0.00810456 9.5708e-05)
(2.94413e-05 -0.0127887 -0.0154197 -0.0127887 2.38587e-05 -0.0081223 -0.0154197 -0.0081223 8.54941e-05)
(2.61694e-05 -0.0127887 -0.0154254 -0.0127887 2.25347e-05 -0.00812485 -0.0154254 -0.00812485 6.10092e-05)
(-2.35297e-07 -0.0128003 -0.0154465 -0.0128003 5.15565e-05 -0.00812389 -0.0154465 -0.00812389 6.52243e-05)
(1.67452e-05 -0.0127932 -0.0154383 -0.0127932 2.62742e-05 -0.0081267 -0.0154383 -0.0081267 5.00879e-05)
(3.61234e-05 -0.0127905 -0.0154347 -0.0127905 2.2195e-05 -0.00813155 -0.0154347 -0.00813155 3.19093e-05)
(-1.0556e-05 -0.0127958 -0.0154366 -0.0127958 3.26477e-05 -0.00811971 -0.0154366 -0.00811971 5.49479e-05)
(2.73035e-05 -0.0127883 -0.0154236 -0.0127883 2.06378e-05 -0.00812481 -0.0154236 -0.00812481 6.31957e-05)
(6.32786e-05 -0.0127899 -0.0154125 -0.0127899 2.51853e-05 -0.00812401 -0.0154125 -0.00812401 8.20752e-05)
(2.99015e-06 -0.0127939 -0.0154405 -0.0127939 2.71358e-05 -0.00811683 -0.0154405 -0.00811683 8.23196e-05)
(5.79004e-05 -0.0127913 -0.0154176 -0.0127913 2.37464e-05 -0.00812833 -0.0154176 -0.00812833 6.68206e-05)
(0.000117639 -0.0128018 -0.0154043 -0.0128018 3.22203e-05 -0.00813506 -0.0154043 -0.00813506 8.05829e-05)
(5.65333e-05 -0.0127918 -0.0154144 -0.0127918 2.98755e-05 -0.00813688 -0.0154144 -0.00813688 9.25538e-05)
(4.82168e-05 -0.0127937 -0.0154261 -0.0127937 3.0088e-05 -0.00813632 -0.0154261 -0.00813632 4.10686e-05)
(5.43737e-05 -0.012792 -0.0154208 -0.012792 2.63572e-05 -0.00813385 -0.0154208 -0.00813385 6.04502e-05)
(6.02928e-05 -0.0127949 -0.0154296 -0.0127949 2.54848e-05 -0.00813277 -0.0154296 -0.00813277 4.16475e-05)
(-2.99419e-05 -0.0127989 -0.0154403 -0.0127989 3.50653e-05 -0.00811279 -0.0154403 -0.00811279 7.73883e-05)
(4.50624e-05 -0.0127856 -0.0154251 -0.0127856 3.14562e-05 -0.00814072 -0.0154251 -0.00814072 0.000106318)
(7.07804e-05 -0.0127944 -0.0154162 -0.0127944 2.62477e-05 -0.00813227 -0.0154162 -0.00813227 6.13291e-05)
(7.14e-05 -0.0127939 -0.0154124 -0.0127939 2.63053e-05 -0.00813187 -0.0154124 -0.00813187 6.93041e-05)
(5.07739e-05 -0.0127928 -0.0154313 -0.0127928 2.4672e-05 -0.00813141 -0.0154313 -0.00813141 3.91253e-05)
(4.46266e-05 -0.0127794 -0.0154324 -0.0127794 2.68735e-05 -0.00813737 -0.0154324 -0.00813737 5.11967e-05)
(3.0897e-05 -0.0127872 -0.01543 -0.0127872 1.99517e-05 -0.00812869 -0.01543 -0.00812869 5.00619e-05)
(6.39227e-05 -0.0127937 -0.0154168 -0.0127937 3.03017e-05 -0.00813692 -0.0154168 -0.00813692 8.5725e-05)
(-9.04288e-06 -0.012795 -0.0154322 -0.012795 3.50232e-05 -0.00811497 -0.0154322 -0.00811497 8.00217e-05)
(4.10034e-05 -0.0127922 -0.0154378 -0.0127922 2.43696e-05 -0.00813057 -0.0154378 -0.00813057 4.61964e-05)
(2.76481e-05 -0.0127897 -0.0154297 -0.0127897 2.11565e-05 -0.0081249 -0.0154297 -0.0081249 5.82251e-05)
(-3.09011e-05 -0.0128089 -0.0154518 -0.0128089 7.18745e-05 -0.0081204 -0.0154518 -0.0081204 7.14297e-05)
(9.15806e-05 -0.0128047 -0.0154178 -0.0128047 3.5e-05 -0.00813787 -0.0154178 -0.00813787 5.11839e-05)
(2.71923e-05 -0.012789 -0.0154223 -0.012789 2.71453e-05 -0.00812106 -0.0154223 -0.00812106 7.03091e-05)
(-6.38488e-05 -0.0128099 -0.0154495 -0.0128099 5.28311e-05 -0.00811285 -0.0154495 -0.00811285 7.19988e-05)
(4.222e-05 -0.0127892 -0.015419 -0.0127892 2.47712e-05 -0.00812993 -0.015419 -0.00812993 8.44029e-05)
(3.71549e-05 -0.0127901 -0.0154184 -0.0127901 2.65913e-05 -0.00812455 -0.0154184 -0.00812455 0.000101422)
(2.05081e-05 -0.012789 -0.0154245 -0.012789 2.28966e-05 -0.00812115 -0.0154245 -0.00812115 7.64025e-05)
(5.3992e-05 -0.0127978 -0.0154362 -0.0127978 3.12897e-05 -0.00813333 -0.0154362 -0.00813333 3.09251e-05)
(5.91006e-05 -0.0127931 -0.0154165 -0.0127931 2.64392e-05 -0.00813319 -0.0154165 -0.00813319 6.72174e-05)
(2.64773e-05 -0.0127896 -0.0154262 -0.0127896 2.28306e-05 -0.00812368 -0.0154262 -0.00812368 6.22272e-05)
(4.27941e-05 -0.012789 -0.0154168 -0.012789 2.36779e-05 -0.00812866 -0.0154168 -0.00812866 7.93389e-05)
(0.000103162 -0.0128135 -0.0154114 -0.0128135 5.62693e-05 -0.00815129 -0.0154114 -0.00815129 8.20371e-05)
(0.000107111 -0.0128063 -0.0154105 -0.0128063 4.09569e-05 -0.00814241 -0.0154105 -0.00814241 7.98487e-05)
(4.62992e-05 -0.0127879 -0.0154224 -0.0127879 2.63983e-05 -0.00813521 -0.0154224 -0.00813521 7.50269e-05)
(6.00887e-06 -0.0127867 -0.0154301 -0.0127867 2.33505e-05 -0.00812262 -0.0154301 -0.00812262 8.76815e-05)
(4.56862e-05 -0.0127892 -0.0154212 -0.0127892 2.43092e-05 -0.00812625 -0.0154212 -0.00812625 6.02608e-05)
(5.91638e-05 -0.0127906 -0.0154184 -0.0127906 2.45964e-05 -0.008129 -0.0154184 -0.008129 6.13904e-05)
(-3.32499e-05 -0.0128069 -0.0154474 -0.0128069 3.99387e-05 -0.00811356 -0.0154474 -0.00811356 6.52937e-05)
(-3.4677e-05 -0.0128081 -0.0154483 -0.0128081 5.09372e-05 -0.00812244 -0.0154483 -0.00812244 5.85666e-05)
(3.70255e-06 -0.0127964 -0.0154309 -0.0127964 4.08349e-05 -0.00811303 -0.0154309 -0.00811303 8.88948e-05)
(3.58274e-05 -0.0127885 -0.0154206 -0.0127885 2.24612e-05 -0.00812577 -0.0154206 -0.00812577 6.87099e-05)
(5.03455e-05 -0.012791 -0.0154196 -0.012791 2.94408e-05 -0.00813755 -0.0154196 -0.00813755 7.64974e-05)
(9.9335e-05 -0.0128021 -0.0154236 -0.0128021 2.84576e-05 -0.00813296 -0.0154236 -0.00813296 4.8104e-05)
(-5.93181e-05 -0.0128088 -0.0154484 -0.0128088 5.78475e-05 -0.0081118 -0.0154484 -0.0081118 7.44502e-05)
(4.75584e-05 -0.0127903 -0.0154186 -0.0127903 2.37411e-05 -0.00812914 -0.0154186 -0.00812914 7.21021e-05)
(4.12136e-05 -0.0127894 -0.0154174 -0.0127894 2.37202e-05 -0.00812759 -0.0154174 -0.00812759 8.73759e-05)
(4.64723e-05 -0.0127864 -0.0154261 -0.0127864 2.6628e-05 -0.00813516 -0.0154261 -0.00813516 9.14146e-05)
(5.1764e-05 -0.0127901 -0.0154265 -0.0127901 3.60492e-05 -0.00814148 -0.0154265 -0.00814148 5.25742e-05)
(0.000114753 -0.0128187 -0.0154121 -0.0128187 6.39593e-05 -0.00815266 -0.0154121 -0.00815266 7.05149e-05)
(0.00011062 -0.0128203 -0.0154246 -0.0128203 0.000104385 -0.00815011 -0.0154246 -0.00815011 3.47603e-05)
(3.2717e-05 -0.0127858 -0.0154304 -0.0127858 1.98753e-05 -0.0081262 -0.0154304 -0.0081262 6.66917e-05)
(0.000101906 -0.0127938 -0.0154041 -0.0127938 3.15005e-05 -0.00812109 -0.0154041 -0.00812109 0.000107454)
(5.88516e-05 -0.012792 -0.0154133 -0.012792 2.94487e-05 -0.00812708 -0.0154133 -0.00812708 0.000108586)
(3.75066e-05 -0.0127845 -0.0154247 -0.0127845 2.73483e-05 -0.00813719 -0.0154247 -0.00813719 7.30399e-05)
(0.000103136 -0.0128185 -0.0154166 -0.0128185 7.19265e-05 -0.00815223 -0.0154166 -0.00815223 6.07498e-05)
(3.22681e-05 -0.0127902 -0.0154205 -0.0127902 2.82784e-05 -0.00811759 -0.0154205 -0.00811759 7.31728e-05)
(-6.36026e-06 -0.0127932 -0.0154288 -0.0127932 3.40231e-05 -0.00811096 -0.0154288 -0.00811096 9.96673e-05)
(3.41254e-05 -0.0127926 -0.0154199 -0.0127926 3.45397e-05 -0.00811286 -0.0154199 -0.00811286 9.59368e-05)
(-1.24895e-05 -0.0127931 -0.0154307 -0.0127931 3.11762e-05 -0.00811466 -0.0154307 -0.00811466 8.10677e-05)
(3.2951e-05 -0.0127916 -0.0154211 -0.0127916 3.14826e-05 -0.00811675 -0.0154211 -0.00811675 8.26663e-05)
(-3.19295e-05 -0.0128016 -0.0154412 -0.0128016 3.98689e-05 -0.00811234 -0.0154412 -0.00811234 7.37731e-05)
(5.53246e-06 -0.0127885 -0.0154238 -0.0127885 2.7425e-05 -0.00811973 -0.0154238 -0.00811973 9.25522e-05)
(0.000141396 -0.0128019 -0.0154001 -0.0128019 3.21104e-05 -0.00813437 -0.0154001 -0.00813437 8.48981e-05)
(2.15106e-05 -0.0127863 -0.0154273 -0.0127863 2.17255e-05 -0.00812576 -0.0154273 -0.00812576 8.21674e-05)
(2.1593e-05 -0.0127845 -0.0154286 -0.0127845 1.94917e-05 -0.00812842 -0.0154286 -0.00812842 5.60571e-05)
(6.34465e-05 -0.0127965 -0.0154309 -0.0127965 2.45754e-05 -0.00813226 -0.0154309 -0.00813226 3.71973e-05)
(-1.47343e-05 -0.0128007 -0.0154451 -0.0128007 3.60916e-05 -0.00812724 -0.0154451 -0.00812724 4.4149e-05)
(9.30766e-06 -0.0127948 -0.0154459 -0.0127948 2.89128e-05 -0.00813167 -0.0154459 -0.00813167 4.5998e-05)
(7.69359e-05 -0.0127948 -0.0154093 -0.0127948 3.01889e-05 -0.00813562 -0.0154093 -0.00813562 9.00635e-05)
(8.14948e-06 -0.0127869 -0.0154298 -0.0127869 2.00228e-05 -0.00812588 -0.0154298 -0.00812588 4.44725e-05)
(-3.86408e-06 -0.0127929 -0.0154356 -0.0127929 2.69677e-05 -0.00812109 -0.0154356 -0.00812109 5.73995e-05)
(-1.34802e-06 -0.0127954 -0.0154306 -0.0127954 3.35988e-05 -0.00811584 -0.0154306 -0.00811584 0.000107672)
(3.40849e-05 -0.0127863 -0.0154294 -0.0127863 2.21435e-05 -0.00813231 -0.0154294 -0.00813231 4.46973e-05)
(7.4349e-05 -0.0127936 -0.0154121 -0.0127936 2.6061e-05 -0.00813079 -0.0154121 -0.00813079 7.93736e-05)
(7.21124e-05 -0.0127931 -0.0154095 -0.0127931 2.99807e-05 -0.00813157 -0.0154095 -0.00813157 0.000114815)
(4.17054e-05 -0.0127889 -0.0154194 -0.0127889 2.41854e-05 -0.00813158 -0.0154194 -0.00813158 7.58781e-05)
(0.000116993 -0.0128203 -0.0154123 -0.0128203 6.40193e-05 -0.00815138 -0.0154123 -0.00815138 6.80806e-05)
(9.73082e-05 -0.0128104 -0.0154186 -0.0128104 4.31014e-05 -0.00814125 -0.0154186 -0.00814125 4.56576e-05)
(4.08056e-05 -0.0127901 -0.0154313 -0.0127901 2.40416e-05 -0.00813266 -0.0154313 -0.00813266 3.68596e-05)
(3.30702e-05 -0.0127853 -0.0154393 -0.0127853 1.89539e-05 -0.00812347 -0.0154393 -0.00812347 5.85846e-05)
(-1.55861e-05 -0.0128104 -0.0154519 -0.0128104 4.02858e-05 -0.00811492 -0.0154519 -0.00811492 6.20693e-05)
(7.92821e-05 -0.0128187 -0.0154366 -0.0128187 6.83884e-05 -0.008137 -0.0154366 -0.008137 2.98932e-05)
(0.000139863 -0.0128061 -0.0154077 -0.0128061 3.31309e-05 -0.00813493 -0.0154077 -0.00813493 6.7237e-05)
(6.69024e-05 -0.0127951 -0.0154162 -0.0127951 2.86391e-05 -0.00813519 -0.0154162 -0.00813519 6.74397e-05)
(2.97504e-05 -0.0127851 -0.0154288 -0.0127851 2.37494e-05 -0.00813396 -0.0154288 -0.00813396 4.56348e-05)
(3.10969e-05 -0.0127874 -0.0154349 -0.0127874 2.33582e-05 -0.00813214 -0.0154349 -0.00813214 3.51149e-05)
(-1.60664e-05 -0.0128008 -0.0154467 -0.0128008 3.49609e-05 -0.00813083 -0.0154467 -0.00813083 4.1055e-05)
(2.59748e-06 -0.0127944 -0.0154371 -0.0127944 2.54839e-05 -0.00811961 -0.0154371 -0.00811961 5.81638e-05)
(-3.83128e-06 -0.0127969 -0.0154366 -0.0127969 3.1522e-05 -0.00811395 -0.0154366 -0.00811395 8.99456e-05)
(7.39646e-05 -0.0127993 -0.0154195 -0.0127993 3.98346e-05 -0.00814195 -0.0154195 -0.00814195 6.52713e-05)
(0.000125948 -0.0128009 -0.0154116 -0.0128009 2.8013e-05 -0.00813026 -0.0154116 -0.00813026 5.84337e-05)
(6.58466e-05 -0.0127929 -0.0154288 -0.0127929 2.96522e-05 -0.0081288 -0.0154288 -0.0081288 5.1713e-05)
(6.1112e-05 -0.0127952 -0.0154228 -0.0127952 3.85564e-05 -0.00814338 -0.0154228 -0.00814338 6.51266e-05)
(2.38045e-05 -0.0127876 -0.0154321 -0.0127876 2.43375e-05 -0.00812657 -0.0154321 -0.00812657 0.000100686)
(2.33523e-06 -0.0127912 -0.0154256 -0.0127912 3.19902e-05 -0.00811416 -0.0154256 -0.00811416 8.83887e-05)
(0.000132314 -0.0128051 -0.0154063 -0.0128051 3.30606e-05 -0.00813555 -0.0154063 -0.00813555 6.71351e-05)
(6.5388e-05 -0.0127972 -0.0154224 -0.0127972 3.45835e-05 -0.00813917 -0.0154224 -0.00813917 5.4588e-05)
(5.73723e-05 -0.0127961 -0.01542 -0.0127961 3.66529e-05 -0.00814318 -0.01542 -0.00814318 7.58836e-05)
(4.69936e-05 -0.01279 -0.0154194 -0.01279 2.33148e-05 -0.00812974 -0.0154194 -0.00812974 6.36152e-05)
(-8.7641e-08 -0.0127918 -0.0154253 -0.0127918 3.48587e-05 -0.00811437 -0.0154253 -0.00811437 8.24434e-05)
(3.44309e-05 -0.012789 -0.0154249 -0.012789 2.17229e-05 -0.00813016 -0.0154249 -0.00813016 4.74129e-05)
(-4.08409e-05 -0.0128061 -0.0154449 -0.0128061 4.9076e-05 -0.00810678 -0.0154449 -0.00810678 9.59106e-05)
(4.90897e-05 -0.0127904 -0.0154151 -0.0127904 2.64467e-05 -0.00813049 -0.0154151 -0.00813049 9.96433e-05)
(5.3007e-05 -0.0127911 -0.0154259 -0.0127911 4.4392e-05 -0.00814709 -0.0154259 -0.00814709 6.69329e-05)
(-5.43709e-05 -0.0128056 -0.0154455 -0.0128056 4.98925e-05 -0.00810756 -0.0154455 -0.00810756 0.000106171)
(8.31771e-05 -0.0127945 -0.0154203 -0.0127945 2.56604e-05 -0.00812954 -0.0154203 -0.00812954 6.05379e-05)
(7.77458e-05 -0.0127975 -0.0154169 -0.0127975 3.27237e-05 -0.0081378 -0.0154169 -0.0081378 6.7547e-05)
(2.85499e-05 -0.0127848 -0.0154315 -0.0127848 1.91648e-05 -0.00812743 -0.0154315 -0.00812743 5.68241e-05)
(4.50199e-05 -0.0127918 -0.0154341 -0.0127918 2.74484e-05 -0.00813283 -0.0154341 -0.00813283 3.17916e-05)
(8.03178e-05 -0.0128003 -0.0154192 -0.0128003 3.09283e-05 -0.00813579 -0.0154192 -0.00813579 5.08537e-05)
(4.61167e-05 -0.0127906 -0.0154234 -0.0127906 2.27913e-05 -0.00812578 -0.0154234 -0.00812578 5.79684e-05)
(-1.88292e-05 -0.0127954 -0.0154337 -0.0127954 3.68884e-05 -0.00811177 -0.0154337 -0.00811177 8.13522e-05)
(2.1239e-05 -0.0127921 -0.0154215 -0.0127921 3.10977e-05 -0.00811758 -0.0154215 -0.00811758 0.000107392)
(-2.1649e-05 -0.012802 -0.0154385 -0.012802 4.92807e-05 -0.00810886 -0.0154385 -0.00810886 9.14425e-05)
(3.93233e-05 -0.0127843 -0.015432 -0.0127843 2.05442e-05 -0.00812849 -0.015432 -0.00812849 5.59813e-05)
(2.85068e-06 -0.0127912 -0.0154353 -0.0127912 2.45556e-05 -0.0081229 -0.0154353 -0.0081229 5.47946e-05)
(-2.75277e-05 -0.012804 -0.0154452 -0.012804 5.52168e-05 -0.00811645 -0.0154452 -0.00811645 7.21638e-05)
(5.07595e-05 -0.0127913 -0.0154247 -0.0127913 3.32485e-05 -0.00813983 -0.0154247 -0.00813983 5.59743e-05)
(6.84565e-05 -0.0128096 -0.0154304 -0.0128096 5.62337e-05 -0.00814072 -0.0154304 -0.00814072 3.29285e-05)
(0.000136831 -0.0128173 -0.0154059 -0.0128173 5.97139e-05 -0.00815124 -0.0154059 -0.00815124 8.90472e-05)