# y+ ()       
# Time        	patch         	min           	max           	average       
86            	bottomWall	2.668526e+00	4.775335e+00	3.573881e+00
86            	topWall	2.734353e+00	5.172243e+00	3.607442e+00
