/*--------------------------------*- C++ -*----------------------------------*\
  =========                 |
  \\      /  F ield         | OpenFOAM: The Open Source CFD Toolbox
   \\    /   O peration     | Website:  https://openfoam.org
    \\  /    A nd           | Version:  10
     \\/     M anipulation  |
\*---------------------------------------------------------------------------*/
FoamFile
{
    format      ascii;
    class       volScalarField;
    location    "12.5";
    object      pMean;
}
// * * * * * * * * * * * * * * * * * * * * * * * * * * * * * * * * * * * * * //

dimensions      [0 2 -2 0 0 0 0];

internalField   nonuniform List<scalar> 
25600
(
-4.32519e-07
-5.30827e-07
-1.8462e-07
-5.76501e-07
-1.27364e-07
-2.35965e-07
-4.03509e-07
-3.50821e-07
-5.29285e-07
-1.96502e-07
-2.41153e-07
-2.47016e-07
-6.23636e-07
-4.53577e-07
-5.23079e-07
-2.95505e-07
-1.23805e-07
-4.54786e-07
-2.61363e-07
-5.86436e-07
-3.72493e-07
-5.15243e-07
-4.09055e-07
-3.15914e-07
-4.49125e-07
-3.02253e-07
-7.18126e-07
-3.98092e-07
-4.98612e-07
-6.63868e-07
-3.18161e-07
-6.43778e-07
-4.33253e-07
-5.53848e-07
-7.4324e-07
-4.90131e-07
-7.47622e-07
-4.78564e-07
-5.88482e-07
-4.42406e-07
-5.33958e-07
-4.94874e-07
-3.27876e-07
-5.16705e-07
-2.24096e-07
-3.59885e-07
-3.78748e-07
-4.53345e-07
-4.64347e-07
-3.61499e-07
-2.91865e-07
-2.99118e-07
-5.68358e-07
-3.72909e-07
-4.7175e-07
-3.00499e-07
-2.16779e-07
-3.55812e-07
-2.27542e-07
-4.61895e-07
-4.23478e-07
-4.27259e-07
-4.00382e-07
-3.02347e-07
-3.94213e-07
-2.96568e-07
-5.80925e-07
-3.72971e-07
-4.09399e-07
-7.97974e-07
-3.37846e-07
-6.77971e-07
-4.55045e-07
-5.20855e-07
-8.33257e-07
-6.04976e-07
-8.10514e-07
-5.48043e-07
-6.38593e-07
-4.6019e-07
-6.62182e-07
-4.19391e-07
-5.009e-07
-4.2794e-07
-3.21623e-07
-4.72172e-07
-3.32381e-07
-5.2741e-07
-3.96114e-07
-5.51112e-07
-4.02214e-07
-3.70937e-07
-5.1231e-07
-3.01765e-07
-3.99288e-07
-3.89288e-07
-2.84717e-07
-2.81653e-07
-1.82865e-07
-2.79922e-07
-5.1882e-07
-2.74698e-07
-4.30918e-07
-2.66247e-07
-3.27071e-07
-3.15976e-07
-3.95922e-07
-4.05506e-07
-3.13497e-07
-8.69386e-07
-4.1626e-07
-6.55546e-07
-5.10588e-07
-5.33133e-07
-8.6253e-07
-8.10596e-07
-7.8636e-07
-6.56245e-07
-6.76986e-07
-4.14048e-07
-7.46766e-07
-3.61504e-07
-6.53031e-07
-3.52543e-07
-4.30381e-07
-5.2844e-07
-3.64716e-07
-6.09123e-07
-4.20052e-07
-6.94658e-07
-4.96165e-07
-4.20327e-07
-4.61834e-07
-2.59735e-07
-3.34648e-07
-4.84604e-07
-2.89228e-07
-2.63249e-07
-1.16015e-07
-1.50818e-07
-5.6728e-07
-1.58157e-07
-4.53411e-07
-1.86758e-07
-3.05986e-07
-2.11703e-07
-3.17474e-07
-3.96743e-07
-2.81143e-07
-8.76566e-07
-4.72045e-07
-6.77097e-07
-5.58172e-07
-6.46241e-07
-8.2588e-07
-1.02508e-06
-7.09627e-07
-8.17879e-07
-6.96979e-07
-3.91644e-07
-7.66935e-07
-4.03075e-07
-7.17487e-07
-3.49404e-07
-5.1062e-07
-5.66472e-07
-4.75334e-07
-6.94843e-07
-5.37604e-07
-7.35412e-07
-5.64319e-07
-4.65581e-07
-4.57338e-07
-2.99277e-07
-2.8937e-07
-5.13243e-07
-2.31169e-07
-2.36034e-07
-4.33153e-08
-6.55143e-08
-5.40345e-07
-1.10019e-07
-3.82394e-07
-1.77866e-07
-2.74176e-07
-6.55936e-08
-3.37365e-07
-2.93818e-07
-3.42379e-07
-7.0853e-07
-5.39759e-07
-6.50925e-07
-6.29596e-07
-7.59424e-07
-7.6255e-07
-1.19995e-06
-6.58789e-07
-1.0454e-06
-7.24223e-07
-4.55357e-07
-7.39231e-07
-5.07943e-07
-7.10565e-07
-4.64519e-07
-5.34392e-07
-6.67498e-07
-5.7577e-07
-8.05143e-07
-6.59595e-07
-6.86007e-07
-6.33219e-07
-5.12983e-07
-5.12782e-07
-3.7564e-07
-2.23137e-07
-4.67495e-07
-1.48801e-07
-2.33035e-07
-5.39832e-08
-4.342e-08
-5.07199e-07
-8.20047e-08
-2.46929e-07
-2.16416e-07
-1.75066e-07
6.46286e-08
-3.06094e-07
-1.6508e-07
-3.81598e-07
-4.57152e-07
-6.25584e-07
-6.14237e-07
-7.86375e-07
-8.26141e-07
-7.93453e-07
-1.29207e-06
-7.16657e-07
-1.24155e-06
-7.64597e-07
-5.03221e-07
-7.5062e-07
-5.60449e-07
-6.9179e-07
-5.83765e-07
-5.51526e-07
-8.03096e-07
-6.18911e-07
-9.54395e-07
-6.98567e-07
-6.74445e-07
-6.81325e-07
-5.68328e-07
-5.4319e-07
-4.30915e-07
-1.69436e-07
-4.21822e-07
-1.03366e-07
-2.82245e-07
-1.01449e-07
-5.71231e-08
-4.65818e-07
-5.05777e-08
-1.07826e-07
-2.49058e-07
-4.35035e-08
1.96863e-07
-2.03032e-07
-2.85278e-08
-3.30618e-07
-2.39979e-07
-6.83507e-07
-6.23771e-07
-9.48848e-07
-8.81668e-07
-9.22061e-07
-1.34492e-06
-9.0733e-07
-1.37232e-06
-8.79596e-07
-5.11813e-07
-8.30836e-07
-5.48741e-07
-7.31504e-07
-6.49295e-07
-6.58293e-07
-8.98745e-07
-6.9634e-07
-1.06659e-06
-6.92888e-07
-6.98883e-07
-7.15489e-07
-6.4437e-07
-5.1844e-07
-4.85682e-07
-1.53245e-07
-4.68124e-07
-1.39153e-07
-3.76454e-07
-1.1343e-07
-4.75139e-08
-3.58636e-07
-1.08593e-08
5.37077e-08
-2.48734e-07
1.11765e-07
3.44118e-07
-4.48356e-08
1.16067e-07
-2.19649e-07
-7.98852e-08
-6.91757e-07
-6.63385e-07
-1.06976e-06
-9.92829e-07
-1.09246e-06
-1.41613e-06
-1.14169e-06
-1.46724e-06
-1.02941e-06
-5.12285e-07
-9.07482e-07
-5.32463e-07
-8.02123e-07
-6.80598e-07
-8.06907e-07
-9.35261e-07
-8.29928e-07
-1.11702e-06
-7.47771e-07
-7.29862e-07
-7.73679e-07
-6.78588e-07
-5.0409e-07
-5.51405e-07
-2.03623e-07
-5.71811e-07
-2.02872e-07
-4.75411e-07
-1.0888e-07
-5.59027e-08
-2.37856e-07
1.08435e-08
2.42269e-07
-2.1514e-07
3.0539e-07
4.95429e-07
1.87275e-07
2.70797e-07
-7.55625e-08
1.43581e-08
-6.76644e-07
-7.08892e-07
-1.15978e-06
-1.16245e-06
-1.26136e-06
-1.52924e-06
-1.34388e-06
-1.55904e-06
-1.13127e-06
-5.34223e-07
-9.24763e-07
-5.21482e-07
-8.20019e-07
-7.26085e-07
-9.63344e-07
-9.86168e-07
-9.97537e-07
-1.16869e-06
-8.51876e-07
-7.70529e-07
-8.6487e-07
-6.94785e-07
-5.72728e-07
-6.01259e-07
-3.10099e-07
-6.37476e-07
-2.57152e-07
-5.29389e-07
-1.35531e-07
-8.0356e-08
-1.31004e-07
7.50815e-08
4.39504e-07
-1.40871e-07
5.27884e-07
6.41467e-07
4.58512e-07
4.02351e-07
9.18361e-08
8.16946e-08
-6.06772e-07
-7.25014e-07
-1.21292e-06
-1.3493e-06
-1.46174e-06
-1.70541e-06
-1.54179e-06
-1.69993e-06
-1.22544e-06
-6.16594e-07
-9.08019e-07
-5.37379e-07
-8.16637e-07
-8.10755e-07
-1.05419e-06
-1.02602e-06
-1.09819e-06
-1.22453e-06
-9.37499e-07
-8.40184e-07
-9.57705e-07
-7.79306e-07
-7.5974e-07
-7.15154e-07
-4.98559e-07
-7.16587e-07
-3.3335e-07
-5.56746e-07
-1.9993e-07
-9.2169e-08
-5.12505e-08
1.79409e-07
6.30217e-07
3.18867e-08
7.80566e-07
8.19122e-07
7.40393e-07
5.35076e-07
2.8026e-07
1.42747e-07
-4.83025e-07
-7.26802e-07
-1.24434e-06
-1.53091e-06
-1.62743e-06
-1.86289e-06
-1.72378e-06
-1.87266e-06
-1.33399e-06
-7.33058e-07
-8.9096e-07
-5.73629e-07
-7.80461e-07
-8.62474e-07
-1.08726e-06
-1.11519e-06
-1.16976e-06
-1.30656e-06
-9.84581e-07
-9.78851e-07
-1.04596e-06
-9.37334e-07
-1.00537e-06
-8.90357e-07
-7.06209e-07
-8.10024e-07
-3.7122e-07
-5.61492e-07
-2.71955e-07
-1.22311e-07
-4.17584e-09
2.95557e-07
7.48001e-07
1.85329e-07
9.52169e-07
1.0087e-06
1.05967e-06
7.46456e-07
5.10524e-07
2.21643e-07
-4.00428e-07
-7.41427e-07
-1.23908e-06
-1.63887e-06
-1.74602e-06
-2.01664e-06
-1.90549e-06
-2.05775e-06
-1.45084e-06
-8.48347e-07
-8.63153e-07
-5.96066e-07
-7.55034e-07
-8.96333e-07
-1.0575e-06
-1.16218e-06
-1.2236e-06
-1.42857e-06
-1.05514e-06
-1.21261e-06
-1.17016e-06
-1.20767e-06
-1.29904e-06
-1.16378e-06
-9.48727e-07
-9.71695e-07
-3.88115e-07
-5.98655e-07
-3.20293e-07
-1.62323e-07
4.3597e-08
3.90681e-07
8.64489e-07
3.42326e-07
1.09497e-06
1.20853e-06
1.41136e-06
9.98851e-07
7.74461e-07
3.31719e-07
-3.04925e-07
-7.21633e-07
-1.2169e-06
-1.71934e-06
-1.84642e-06
-2.13581e-06
-2.09927e-06
-2.24053e-06
-1.55289e-06
-9.13475e-07
-8.00586e-07
-5.83104e-07
-7.55788e-07
-9.77811e-07
-1.04586e-06
-1.20307e-06
-1.2704e-06
-1.60535e-06
-1.20186e-06
-1.54433e-06
-1.39504e-06
-1.63448e-06
-1.66343e-06
-1.47077e-06
-1.18531e-06
-1.21059e-06
-4.19212e-07
-6.89566e-07
-3.72542e-07
-2.76552e-07
5.74462e-08
4.03954e-07
8.85173e-07
3.64397e-07
1.18191e-06
1.3934e-06
1.85122e-06
1.28616e-06
1.00673e-06
3.92735e-07
-1.81433e-07
-6.41478e-07
-1.1458e-06
-1.79334e-06
-1.96557e-06
-2.27949e-06
-2.30703e-06
-2.4519e-06
-1.69683e-06
-9.54546e-07
-6.71953e-07
-5.49351e-07
-8.55037e-07
-1.12194e-06
-1.00795e-06
-1.21971e-06
-1.37303e-06
-1.88056e-06
-1.47796e-06
-2.06004e-06
-1.8633e-06
-2.2955e-06
-2.19446e-06
-1.84539e-06
-1.43336e-06
-1.50875e-06
-5.0193e-07
-9.10856e-07
-5.75526e-07
-5.23208e-07
4.85489e-09
3.2266e-07
7.53858e-07
1.55116e-07
1.13193e-06
1.52418e-06
2.35215e-06
1.5109e-06
1.14325e-06
3.38069e-07
-9.44356e-08
-5.56389e-07
-1.05009e-06
-1.90088e-06
-2.09114e-06
-2.43523e-06
-2.57399e-06
-2.77278e-06
-1.94883e-06
-9.52151e-07
-6.96186e-07
-7.78836e-07
-1.23077e-06
-1.43266e-06
-1.03211e-06
-1.33423e-06
-1.69014e-06
-2.54133e-06
-2.16833e-06
-2.90761e-06
-2.70357e-06
-3.38527e-06
-3.07436e-06
-2.41321e-06
-1.68105e-06
-1.91713e-06
-7.64169e-07
-1.48465e-06
-1.12932e-06
-1.04752e-06
-2.92462e-07
-7.45986e-08
2.64192e-07
-4.40209e-07
8.53385e-07
1.47642e-06
2.74244e-06
1.45752e-06
1.01055e-06
1.10819e-07
-6.07573e-08
-5.47837e-07
-1.14667e-06
-2.27958e-06
-2.30325e-06
-2.60351e-06
-3.01501e-06
-3.40378e-06
-2.43865e-06
-1.11081e-06
-1.27346e-06
-1.76495e-06
-2.35795e-06
-2.25196e-06
-1.26322e-06
-1.93946e-06
-2.79328e-06
-3.8999e-06
-3.46108e-06
-4.32272e-06
-4.24099e-06
-5.27105e-06
-4.62129e-06
-3.42821e-06
-2.19503e-06
-2.6662e-06
-1.54133e-06
-2.69319e-06
-2.26344e-06
-2.08506e-06
-1.10139e-06
-1.10873e-06
-1.06826e-06
-1.71264e-06
2.4019e-07
1.1385e-06
2.67828e-06
6.47886e-07
2.27857e-07
-5.5194e-07
-3.16089e-07
-9.84352e-07
-1.75794e-06
-3.11871e-06
-2.85423e-06
-3.03888e-06
-3.95654e-06
-4.60987e-06
-3.38897e-06
-1.59572e-06
-2.94143e-06
-4.15496e-06
-4.82312e-06
-4.05494e-06
-2.47428e-06
-3.64179e-06
-5.43383e-06
-6.77597e-06
-6.05581e-06
-7.03027e-06
-7.20197e-06
-8.66065e-06
-7.58754e-06
-5.53584e-06
-3.6252e-06
-4.64978e-06
-3.51139e-06
-5.18057e-06
-4.6011e-06
-4.24597e-06
-3.36345e-06
-3.93143e-06
-4.13599e-06
-4.43241e-06
-1.39366e-06
-2.80635e-07
1.43814e-06
-1.58811e-06
-1.62453e-06
-2.07392e-06
-1.47818e-06
-2.61607e-06
-3.64906e-06
-5.08584e-06
-4.38578e-06
-4.467e-06
-6.18018e-06
-7.02795e-06
-5.29256e-06
-2.99199e-06
-6.72027e-06
-8.62287e-06
-9.39037e-06
-7.54011e-06
-5.2811e-06
-7.76988e-06
-1.03902e-05
-1.1694e-05
-1.06469e-05
-1.15704e-05
-1.24592e-05
-1.4201e-05
-1.23209e-05
-9.19858e-06
-6.50069e-06
-8.49602e-06
-7.42382e-06
-9.75658e-06
-8.67561e-06
-7.947e-06
-7.59335e-06
-9.21761e-06
-9.6367e-06
-9.25672e-06
-4.78268e-06
-3.45392e-06
-2.01172e-06
-6.28597e-06
-5.20822e-06
-5.05318e-06
-4.40589e-06
-6.46444e-06
-7.55135e-06
-8.86296e-06
-7.48023e-06
-7.88261e-06
-1.06189e-05
-1.13381e-05
-8.94043e-06
-5.90642e-06
-1.2342e-05
-1.55096e-05
-1.61468e-05
-1.23666e-05
-9.42206e-06
-1.41912e-05
-1.74516e-05
-1.87604e-05
-1.74322e-05
-1.82981e-05
-2.05427e-05
-2.22373e-05
-1.91368e-05
-1.43683e-05
-1.06113e-05
-1.41421e-05
-1.33631e-05
-1.62629e-05
-1.45627e-05
-1.33933e-05
-1.38625e-05
-1.67404e-05
-1.75994e-05
-1.56524e-05
-9.61913e-06
-8.37899e-06
-7.02798e-06
-1.25344e-05
-9.80585e-06
-9.11639e-06
-8.8546e-06
-1.24284e-05
-1.34034e-05
-1.39365e-05
-1.13354e-05
-1.29568e-05
-1.72505e-05
-1.73065e-05
-1.41244e-05
-1.00059e-05
-1.95222e-05
-2.29739e-05
-2.38086e-05
-1.79408e-05
-1.44023e-05
-2.14657e-05
-2.54999e-05
-2.68857e-05
-2.475e-05
-2.60524e-05
-3.03926e-05
-3.191e-05
-2.75641e-05
-2.03549e-05
-1.51814e-05
-2.03642e-05
-2.04719e-05
-2.42787e-05
-2.06905e-05
-1.95902e-05
-2.16086e-05
-2.55114e-05
-2.63936e-05
-2.27229e-05
-1.50287e-05
-1.43979e-05
-1.41643e-05
-2.01113e-05
-1.44737e-05
-1.36911e-05
-1.39615e-05
-1.99513e-05
-2.04648e-05
-1.97558e-05
-1.485e-05
-1.84715e-05
-2.46612e-05
-2.38301e-05
-1.97876e-05
-1.48788e-05
-2.84558e-05
-3.34271e-05
-3.31051e-05
-2.38588e-05
-2.17693e-05
-3.04891e-05
-3.54134e-05
-3.66427e-05
-3.26004e-05
-3.47964e-05
-4.24775e-05
-4.30201e-05
-3.69648e-05
-2.76417e-05
-2.1462e-05
-2.83864e-05
-2.92419e-05
-3.42453e-05
-2.77878e-05
-2.61595e-05
-2.99893e-05
-3.47765e-05
-3.59142e-05
-2.91673e-05
-2.11248e-05
-2.03449e-05
-2.20844e-05
-2.83185e-05
-1.93021e-05
-1.8702e-05
-1.97862e-05
-2.88292e-05
-2.90259e-05
-2.62055e-05
-1.95498e-05
-2.48573e-05
-3.19626e-05
-3.10707e-05
-2.59957e-05
-2.0452e-05
-4.01161e-05
-4.41476e-05
-4.40712e-05
-3.02107e-05
-2.94661e-05
-4.22468e-05
-4.71711e-05
-4.83873e-05
-4.1248e-05
-4.45538e-05
-5.62325e-05
-5.66211e-05
-5.06043e-05
-3.59504e-05
-2.89967e-05
-3.80145e-05
-4.01395e-05
-4.52641e-05
-3.61002e-05
-3.6737e-05
-4.10521e-05
-4.67612e-05
-4.65083e-05
-3.64915e-05
-2.80982e-05
-3.11576e-05
-3.43408e-05
-3.84046e-05
-2.53521e-05
-2.61868e-05
-2.87295e-05
-4.01887e-05
-3.9426e-05
-3.55336e-05
-2.58555e-05
-3.40276e-05
-4.14911e-05
-3.85402e-05
-3.26564e-05
-2.80725e-05
-4.97648e-05
-5.49725e-05
-5.19278e-05
-3.55132e-05
-3.69109e-05
-4.90888e-05
-5.66368e-05
-5.67595e-05
-4.73378e-05
-5.26144e-05
-6.5219e-05
-6.61102e-05
-5.91988e-05
-4.48229e-05
-3.66002e-05
-4.71347e-05
-4.6744e-05
-5.26929e-05
-4.10318e-05
-4.29935e-05
-5.0489e-05
-5.7762e-05
-5.4732e-05
-4.03724e-05
-3.20219e-05
-3.42483e-05
-4.5107e-05
-4.83603e-05
-3.05803e-05
-3.06381e-05
-3.43202e-05
-5.01755e-05
-4.75911e-05
-4.06237e-05
-3.19208e-05
-4.14617e-05
-4.9719e-05
-4.63689e-05
-3.5231e-05
-3.34035e-05
-4.57152e-05
-5.0727e-05
-4.73482e-05
-2.56588e-05
-2.94192e-05
-4.54108e-05
-5.14376e-05
-5.16856e-05
-3.93461e-05
-4.69698e-05
-6.22172e-05
-6.27009e-05
-5.66156e-05
-3.49826e-05
-3.02523e-05
-4.40576e-05
-4.47416e-05
-4.86053e-05
-3.34312e-05
-3.89192e-05
-4.73565e-05
-5.86443e-05
-5.10643e-05
-3.23506e-05
-2.39293e-05
-3.25992e-05
-4.15121e-05
-4.24374e-05
-2.3141e-05
-2.6137e-05
-3.09395e-05
-5.02448e-05
-4.35599e-05
-3.71887e-05
-2.53882e-05
-4.1086e-05
-4.69895e-05
-4.12092e-05
-2.95792e-05
-2.42572e-05
-3.21816e-05
-3.7637e-05
-3.27367e-05
-8.01908e-06
-1.39313e-05
-3.03674e-05
-3.80832e-05
-3.49183e-05
-2.17546e-05
-3.11005e-05
-4.98156e-05
-4.84877e-05
-4.24077e-05
-1.82372e-05
-1.71802e-05
-3.28351e-05
-2.95288e-05
-3.43225e-05
-1.79512e-05
-2.33043e-05
-3.32223e-05
-4.98274e-05
-3.94538e-05
-1.74639e-05
-6.06027e-06
-1.46553e-05
-3.17187e-05
-3.10263e-05
-7.09159e-06
-1.13184e-05
-1.64033e-05
-3.4767e-05
-2.78233e-05
-1.98682e-05
-1.02345e-05
-3.08071e-05
-3.59387e-05
-2.8271e-05
-1.5135e-05
-1.12109e-05
-1.50511e-05
-1.49788e-05
-1.39126e-05
1.21826e-05
3.43117e-06
-1.23345e-05
-2.08364e-05
-1.66806e-05
-3.66083e-07
-1.18174e-05
-2.90171e-05
-3.0858e-05
-2.35437e-05
-1.3642e-06
-5.85966e-07
-1.62955e-05
-1.76817e-05
-1.84242e-05
2.70083e-06
-3.82998e-06
-1.51142e-05
-3.29828e-05
-2.12514e-05
-2.51468e-06
9.70406e-06
-2.00413e-06
-1.69694e-05
-1.3721e-05
9.04095e-06
5.65518e-06
-6.57403e-07
-2.24893e-05
-1.07165e-05
-1.96849e-06
5.5812e-06
-1.58111e-05
-2.03059e-05
-1.22317e-05
5.15762e-06
1.03016e-05
-3.29269e-06
-5.69443e-06
-2.64957e-06
2.49436e-05
1.56153e-05
4.37633e-07
-8.258e-06
-1.24564e-06
1.34374e-05
3.63871e-06
-1.62412e-05
-1.67809e-05
-1.25024e-05
1.38051e-05
1.09317e-05
-4.18682e-06
-3.27059e-06
-5.5134e-06
1.59279e-05
1.03367e-05
-1.48371e-06
-1.98187e-05
-8.7447e-06
1.26098e-05
2.26625e-05
1.19903e-05
-3.51497e-06
-9.94896e-07
2.35591e-05
1.75299e-05
1.04342e-05
-8.77124e-06
2.03532e-06
9.78433e-06
1.61135e-05
-4.12892e-06
-9.64767e-06
-5.24175e-07
1.6923e-05
2.17152e-05
1.4426e-06
5.04585e-07
3.6551e-06
2.94849e-05
1.94588e-05
4.65388e-06
-4.34797e-06
4.13879e-06
1.85823e-05
9.82888e-06
-1.15738e-05
-1.08797e-05
-5.97244e-06
1.60892e-05
1.5285e-05
2.99057e-08
6.39615e-07
-8.95083e-07
1.9531e-05
1.53209e-05
4.28305e-06
-1.42125e-05
-2.19911e-06
1.61763e-05
2.67307e-05
1.60543e-05
3.87825e-06
5.1337e-06
2.74286e-05
2.12946e-05
1.53161e-05
-4.57855e-06
7.10471e-06
1.20691e-05
2.11935e-05
3.59535e-07
-4.9964e-06
4.36241e-06
1.94383e-05
2.48915e-05
1.43692e-06
1.09665e-07
2.98314e-06
2.77826e-05
1.88223e-05
4.81077e-06
-4.22339e-06
4.63055e-06
1.68776e-05
9.59919e-06
-1.11861e-05
-1.21631e-05
-7.59691e-06
1.48012e-05
1.47227e-05
-1.0135e-06
8.22602e-07
-1.51737e-06
1.99712e-05
1.34883e-05
5.07403e-06
-1.42394e-05
-3.15023e-06
1.49443e-05
2.57219e-05
1.55677e-05
4.51528e-06
4.27332e-06
2.61148e-05
2.00652e-05
1.4981e-05
-5.56371e-06
6.40649e-06
1.05205e-05
1.90106e-05
-9.27533e-07
-5.56791e-06
3.39964e-06
1.74965e-05
2.37948e-05
9.32949e-07
-4.79195e-07
2.36138e-06
2.55808e-05
1.57601e-05
3.9335e-06
-3.88481e-06
3.71495e-06
1.4447e-05
8.5444e-06
-1.16601e-05
-1.2708e-05
-8.73662e-06
1.29268e-05
1.30781e-05
-9.29334e-07
-5.84354e-08
-2.6065e-06
1.79645e-05
1.23507e-05
4.77525e-06
-1.44913e-05
-4.41276e-06
1.29458e-05
2.32953e-05
1.41709e-05
4.11944e-06
3.40427e-06
2.36304e-05
1.73626e-05
1.38308e-05
-6.24172e-06
5.56598e-06
8.97739e-06
1.78911e-05
-1.39276e-06
-6.14066e-06
2.54568e-06
1.56711e-05
2.1942e-05
6.79987e-07
-6.75331e-07
1.48435e-06
2.43545e-05
1.54834e-05
3.74695e-06
-4.32807e-06
2.91806e-06
1.30657e-05
7.94184e-06
-1.22371e-05
-1.3212e-05
-9.93044e-06
1.17487e-05
1.22234e-05
-1.63881e-06
-6.58629e-07
-3.34026e-06
1.67668e-05
1.12972e-05
4.27472e-06
-1.48079e-05
-5.26188e-06
1.15585e-05
2.23615e-05
1.35901e-05
3.9542e-06
2.54303e-06
2.2557e-05
1.67817e-05
1.35278e-05
-6.93362e-06
4.91795e-06
7.69722e-06
1.69911e-05
-2.19334e-06
-6.44763e-06
1.77147e-06
1.43413e-05
2.1161e-05
-4.42962e-07
-4.81027e-07
-1.77037e-07
-6.18192e-07
-9.11559e-08
-2.27396e-07
-3.80041e-07
-3.39449e-07
-5.1083e-07
-1.93466e-07
-2.09924e-07
-2.30785e-07
-5.84314e-07
-4.23575e-07
-5.35261e-07
-2.85848e-07
-1.06127e-07
-4.29356e-07
-2.43862e-07
-5.32834e-07
-3.95214e-07
-4.90726e-07
-3.46772e-07
-3.0778e-07
-4.08822e-07
-2.96132e-07
-6.80113e-07
-3.46541e-07
-5.07567e-07
-6.12773e-07
-2.83135e-07
-6.24237e-07
-3.76919e-07
-5.80403e-07
-6.89566e-07
-4.48276e-07
-6.92006e-07
-4.11117e-07
-5.99267e-07
-3.85126e-07
-5.40048e-07
-4.72643e-07
-3.37436e-07
-5.12113e-07
-2.34471e-07
-3.17778e-07
-3.45334e-07
-4.39465e-07
-4.51676e-07
-3.81598e-07
-2.40756e-07
-3.09394e-07
-5.21094e-07
-3.39515e-07
-4.86179e-07
-2.31145e-07
-1.8974e-07
-3.03478e-07
-1.60798e-07
-4.29627e-07
-4.08534e-07
-3.97905e-07
-3.10726e-07
-2.80798e-07
-3.46101e-07
-2.79638e-07
-5.46053e-07
-2.96214e-07
-4.53776e-07
-7.19713e-07
-3.25695e-07
-6.49371e-07
-4.08672e-07
-5.69182e-07
-7.55847e-07
-5.93085e-07
-7.40041e-07
-5.05056e-07
-6.3322e-07
-4.22591e-07
-6.46597e-07
-4.42101e-07
-5.03834e-07
-3.84356e-07
-3.60409e-07
-4.08935e-07
-3.24297e-07
-5.02044e-07
-3.91858e-07
-5.44891e-07
-3.31149e-07
-3.73161e-07
-4.24298e-07
-2.41838e-07
-3.69784e-07
-2.78172e-07
-2.26516e-07
-1.95669e-07
-8.02889e-08
-2.25335e-07
-4.65555e-07
-2.55909e-07
-3.34424e-07
-2.32954e-07
-2.7854e-07
-3.04128e-07
-3.53734e-07
-3.35778e-07
-3.60733e-07
-7.90024e-07
-4.23581e-07
-6.07675e-07
-5.00944e-07
-5.68636e-07
-8.12066e-07
-8.06197e-07
-7.24593e-07
-6.4852e-07
-6.627e-07
-4.29222e-07
-7.13671e-07
-4.11787e-07
-5.98337e-07
-2.80486e-07
-4.42453e-07
-4.59647e-07
-3.48805e-07
-5.54176e-07
-3.97118e-07
-6.22032e-07
-4.26405e-07
-3.86644e-07
-3.50514e-07
-1.53834e-07
-2.55996e-07
-3.66142e-07
-1.86546e-07
-1.85477e-07
-1.60562e-08
-8.20642e-08
-5.05008e-07
-1.36817e-07
-3.59534e-07
-1.42675e-07
-2.51169e-07
-2.07641e-07
-2.83301e-07
-3.61613e-07
-3.14737e-07
-8.30741e-07
-4.82844e-07
-6.4448e-07
-6.03609e-07
-6.79497e-07
-8.34858e-07
-1.01424e-06
-6.93925e-07
-8.17364e-07
-6.96533e-07
-4.27576e-07
-7.28409e-07
-4.28978e-07
-6.34983e-07
-2.82894e-07
-4.70321e-07
-4.75596e-07
-3.67599e-07
-5.83336e-07
-4.38219e-07
-6.01492e-07
-5.07052e-07
-3.92786e-07
-3.40461e-07
-1.31187e-07
-1.90912e-07
-4.11289e-07
-1.26636e-07
-2.13172e-07
8.43842e-09
-1.04402e-08
-4.67838e-07
-6.92172e-08
-2.82972e-07
-1.04219e-07
-2.11766e-07
-7.36238e-08
-3.42215e-07
-3.13173e-07
-3.94816e-07
-7.25004e-07
-5.4882e-07
-6.60917e-07
-7.04486e-07
-8.37705e-07
-8.30664e-07
-1.20037e-06
-6.58414e-07
-1.01077e-06
-7.15464e-07
-4.40868e-07
-6.84653e-07
-4.33581e-07
-5.98949e-07
-3.55562e-07
-4.50806e-07
-5.31596e-07
-3.93063e-07
-6.78436e-07
-5.01578e-07
-5.83521e-07
-5.98709e-07
-4.12463e-07
-3.94465e-07
-1.65385e-07
-1.51773e-07
-4.01465e-07
-7.3098e-08
-2.40145e-07
-1.63914e-08
3.71324e-08
-3.86021e-07
-1.49106e-08
-1.33522e-07
-1.16273e-07
-1.25531e-07
2.65344e-08
-3.9845e-07
-2.65086e-07
-5.01542e-07
-5.57312e-07
-6.66964e-07
-6.83092e-07
-8.93306e-07
-9.62555e-07
-8.7774e-07
-1.29994e-06
-6.77837e-07
-1.20149e-06
-7.47449e-07
-4.51471e-07
-6.59337e-07
-4.20492e-07
-5.82072e-07
-4.56303e-07
-4.37467e-07
-6.03074e-07
-4.2445e-07
-8.26341e-07
-5.25128e-07
-6.04086e-07
-6.23201e-07
-4.67899e-07
-4.50149e-07
-2.21686e-07
-1.30558e-07
-4.04607e-07
-6.17605e-08
-2.73848e-07
-6.78665e-08
6.72014e-08
-2.83764e-07
3.64587e-08
1.31746e-09
-1.74353e-07
-5.87708e-08
6.85488e-08
-4.2849e-07
-2.49368e-07
-5.53955e-07
-3.94137e-07
-7.62706e-07
-7.25033e-07
-1.08975e-06
-1.05572e-06
-9.96814e-07
-1.32518e-06
-7.94542e-07
-1.31775e-06
-7.85253e-07
-4.23745e-07
-6.86477e-07
-3.63126e-07
-5.91002e-07
-5.03625e-07
-4.87473e-07
-6.55466e-07
-5.2331e-07
-9.82937e-07
-5.98777e-07
-7.00767e-07
-6.55372e-07
-5.84072e-07
-4.81999e-07
-3.11893e-07
-1.04874e-07
-4.21205e-07
-3.02264e-08
-3.13045e-07
-1.12743e-07
4.94907e-08
-1.84493e-07
6.49768e-08
1.0691e-07
-2.65059e-07
-1.81488e-08
6.70512e-08
-4.12742e-07
-2.26429e-07
-5.5791e-07
-2.68712e-07
-8.29036e-07
-7.97739e-07
-1.23548e-06
-1.13789e-06
-1.14062e-06
-1.3398e-06
-9.77139e-07
-1.39894e-06
-8.73085e-07
-3.92981e-07
-7.46369e-07
-2.97877e-07
-6.21776e-07
-5.3549e-07
-6.06079e-07
-6.90816e-07
-6.73991e-07
-1.08937e-06
-7.44494e-07
-8.03088e-07
-7.29658e-07
-6.66533e-07
-5.11739e-07
-3.99458e-07
-1.40292e-07
-4.95045e-07
-2.70868e-08
-3.91279e-07
-1.57249e-07
-2.01319e-08
-8.15553e-08
7.90426e-08
2.04214e-07
-3.68946e-07
1.67106e-08
5.39746e-08
-3.09488e-07
-1.88877e-07
-5.11664e-07
-2.17709e-07
-9.27704e-07
-9.40974e-07
-1.39324e-06
-1.27738e-06
-1.29254e-06
-1.40076e-06
-1.1563e-06
-1.4754e-06
-9.73723e-07
-4.19825e-07
-8.20009e-07
-3.05738e-07
-6.83679e-07
-6.04307e-07
-7.43901e-07
-7.32003e-07
-8.55554e-07
-1.19756e-06
-9.51021e-07
-9.45531e-07
-8.67313e-07
-7.28032e-07
-6.08133e-07
-4.92193e-07
-2.88582e-07
-5.9527e-07
-9.79334e-08
-5.01406e-07
-2.53499e-07
-1.09734e-07
1.34597e-08
8.94795e-08
2.69616e-07
-4.96828e-07
1.51905e-08
2.14132e-08
-1.60951e-07
-1.80354e-07
-4.4133e-07
-2.59274e-07
-1.03877e-06
-1.12939e-06
-1.59003e-06
-1.48506e-06
-1.45121e-06
-1.48944e-06
-1.28849e-06
-1.56423e-06
-1.07171e-06
-5.03368e-07
-8.98913e-07
-3.63235e-07
-7.6013e-07
-7.30564e-07
-9.03443e-07
-8.21242e-07
-1.0487e-06
-1.34664e-06
-1.17253e-06
-1.13715e-06
-1.01959e-06
-8.2587e-07
-7.75243e-07
-6.19006e-07
-5.18614e-07
-7.3245e-07
-2.5716e-07
-6.44965e-07
-4.15342e-07
-2.06224e-07
4.44801e-08
6.30832e-08
2.24584e-07
-6.44976e-07
-2.28801e-08
-9.6531e-09
-3.65213e-09
-2.20493e-07
-4.01517e-07
-3.97713e-07
-1.1921e-06
-1.40556e-06
-1.85586e-06
-1.74623e-06
-1.58736e-06
-1.58257e-06
-1.41011e-06
-1.71194e-06
-1.22035e-06
-6.66527e-07
-1.05622e-06
-5.69159e-07
-9.42542e-07
-9.7228e-07
-1.12292e-06
-1.0006e-06
-1.27541e-06
-1.52661e-06
-1.3836e-06
-1.39797e-06
-1.24147e-06
-1.04883e-06
-1.01289e-06
-7.96083e-07
-7.94854e-07
-9.50925e-07
-5.12351e-07
-8.82807e-07
-6.45907e-07
-3.8262e-07
-5.19116e-08
-3.13331e-08
1.13361e-07
-7.93718e-07
-1.00372e-07
-5.16447e-08
1.08732e-07
-2.95395e-07
-4.42101e-07
-6.51661e-07
-1.47654e-06
-1.80706e-06
-2.20116e-06
-2.0805e-06
-1.74588e-06
-1.71448e-06
-1.56766e-06
-1.92278e-06
-1.41349e-06
-9.10231e-07
-1.29854e-06
-8.81317e-07
-1.20528e-06
-1.35234e-06
-1.43652e-06
-1.28676e-06
-1.57368e-06
-1.79503e-06
-1.62556e-06
-1.7315e-06
-1.52593e-06
-1.38444e-06
-1.33604e-06
-1.08368e-06
-1.15112e-06
-1.27251e-06
-8.49552e-07
-1.21027e-06
-9.64237e-07
-7.43355e-07
-3.31381e-07
-2.25001e-07
-7.06215e-08
-9.98649e-07
-2.36781e-07
-1.26218e-07
1.93374e-07
-4.45185e-07
-6.45966e-07
-1.10833e-06
-1.93127e-06
-2.34225e-06
-2.61896e-06
-2.45487e-06
-1.92834e-06
-1.882e-06
-1.78021e-06
-2.24964e-06
-1.71766e-06
-1.28327e-06
-1.70214e-06
-1.37149e-06
-1.63153e-06
-1.89768e-06
-1.84597e-06
-1.6791e-06
-1.93469e-06
-2.20639e-06
-2.02284e-06
-2.25189e-06
-1.94199e-06
-1.87923e-06
-1.81781e-06
-1.58531e-06
-1.68902e-06
-1.78141e-06
-1.29865e-06
-1.67884e-06
-1.46984e-06
-1.34021e-06
-8.01866e-07
-5.82509e-07
-3.74241e-07
-1.33353e-06
-4.84881e-07
-2.7118e-07
2.14651e-07
-7.72087e-07
-1.11123e-06
-1.85473e-06
-2.59302e-06
-3.04427e-06
-3.18553e-06
-2.98212e-06
-2.22298e-06
-2.13756e-06
-2.10628e-06
-2.75575e-06
-2.23653e-06
-1.84217e-06
-2.30047e-06
-2.1285e-06
-2.34861e-06
-2.71774e-06
-2.4083e-06
-2.15579e-06
-2.41969e-06
-2.82357e-06
-2.63048e-06
-2.96022e-06
-2.54907e-06
-2.59819e-06
-2.47809e-06
-2.35716e-06
-2.45245e-06
-2.52817e-06
-1.87693e-06
-2.38405e-06
-2.23245e-06
-2.25801e-06
-1.51741e-06
-1.1581e-06
-9.00344e-07
-1.91437e-06
-8.65577e-07
-5.17654e-07
1.27587e-07
-1.36381e-06
-1.94634e-06
-2.92503e-06
-3.49119e-06
-3.96949e-06
-3.98707e-06
-3.77368e-06
-2.66775e-06
-2.5488e-06
-2.63215e-06
-3.55447e-06
-2.96969e-06
-2.62352e-06
-3.25056e-06
-3.34851e-06
-3.5569e-06
-3.96915e-06
-3.19805e-06
-2.83209e-06
-3.16546e-06
-3.826e-06
-3.57614e-06
-3.89649e-06
-3.46162e-06
-3.6849e-06
-3.54278e-06
-3.63574e-06
-3.57181e-06
-3.65607e-06
-2.80254e-06
-3.63286e-06
-3.5382e-06
-3.69442e-06
-2.59374e-06
-2.14469e-06
-1.83794e-06
-2.90554e-06
-1.51733e-06
-1.0138e-06
-3.00088e-07
-2.45178e-06
-3.32118e-06
-4.39801e-06
-4.65538e-06
-5.34038e-06
-5.23127e-06
-5.01844e-06
-3.37305e-06
-3.20357e-06
-3.4686e-06
-4.8738e-06
-4.23225e-06
-3.8264e-06
-4.72218e-06
-5.35513e-06
-5.57564e-06
-5.86698e-06
-4.39683e-06
-4.00933e-06
-4.57812e-06
-5.61125e-06
-5.11661e-06
-5.34236e-06
-4.93171e-06
-5.31119e-06
-5.32008e-06
-5.58743e-06
-5.18438e-06
-5.33176e-06
-4.28671e-06
-5.70581e-06
-5.60808e-06
-5.76556e-06
-4.23553e-06
-3.80796e-06
-3.51228e-06
-4.58613e-06
-2.50931e-06
-1.94895e-06
-1.44205e-06
-4.50242e-06
-5.44563e-06
-6.45338e-06
-6.32944e-06
-7.33532e-06
-7.19577e-06
-6.96369e-06
-4.58052e-06
-4.42734e-06
-5.0137e-06
-6.97358e-06
-6.03853e-06
-5.49294e-06
-7.3073e-06
-8.73072e-06
-8.76071e-06
-8.8714e-06
-6.34675e-06
-6.23597e-06
-7.42334e-06
-9.0445e-06
-7.80946e-06
-7.62875e-06
-7.63484e-06
-8.13424e-06
-8.43954e-06
-8.72832e-06
-7.71469e-06
-8.05107e-06
-7.12838e-06
-9.39418e-06
-9.05953e-06
-8.98576e-06
-7.10425e-06
-6.81957e-06
-6.4323e-06
-7.33701e-06
-4.33927e-06
-3.9866e-06
-3.95623e-06
-8.31454e-06
-8.96292e-06
-9.46107e-06
-9.01464e-06
-1.06493e-05
-1.04574e-05
-1.00254e-05
-6.75285e-06
-6.81057e-06
-7.9445e-06
-1.08021e-05
-9.09551e-06
-8.24012e-06
-1.18914e-05
-1.44516e-05
-1.38738e-05
-1.34037e-05
-9.60487e-06
-1.04563e-05
-1.24225e-05
-1.45558e-05
-1.21803e-05
-1.14907e-05
-1.22113e-05
-1.28386e-05
-1.37284e-05
-1.36237e-05
-1.16354e-05
-1.24806e-05
-1.18687e-05
-1.54777e-05
-1.45858e-05
-1.40597e-05
-1.18105e-05
-1.19942e-05
-1.13383e-05
-1.16546e-05
-7.41699e-06
-7.82367e-06
-8.75912e-06
-1.4473e-05
-1.44459e-05
-1.40705e-05
-1.36306e-05
-1.63167e-05
-1.57978e-05
-1.48816e-05
-1.03477e-05
-1.08891e-05
-1.30907e-05
-1.69573e-05
-1.39999e-05
-1.28427e-05
-1.90731e-05
-2.32982e-05
-2.17762e-05
-2.00496e-05
-1.45405e-05
-1.752e-05
-2.04629e-05
-2.3101e-05
-1.81771e-05
-1.74811e-05
-1.91884e-05
-1.98386e-05
-2.13424e-05
-2.02342e-05
-1.75948e-05
-1.91355e-05
-1.93198e-05
-2.43056e-05
-2.26276e-05
-2.16767e-05
-1.93292e-05
-1.99601e-05
-1.84178e-05
-1.77207e-05
-1.22603e-05
-1.38876e-05
-1.63592e-05
-2.33778e-05
-2.20788e-05
-2.08756e-05
-2.08773e-05
-2.48027e-05
-2.38949e-05
-2.20007e-05
-1.63275e-05
-1.74236e-05
-2.12144e-05
-2.60394e-05
-2.07908e-05
-1.94736e-05
-2.84144e-05
-3.47023e-05
-3.1679e-05
-2.83449e-05
-2.12908e-05
-2.69933e-05
-3.11871e-05
-3.39048e-05
-2.56366e-05
-2.53795e-05
-2.81025e-05
-2.90502e-05
-3.17531e-05
-2.79297e-05
-2.43782e-05
-2.76396e-05
-2.92073e-05
-3.61999e-05
-3.18331e-05
-3.07595e-05
-2.91126e-05
-3.05606e-05
-2.75163e-05
-2.47556e-05
-1.81906e-05
-2.18808e-05
-2.64592e-05
-3.47038e-05
-3.10303e-05
-2.93241e-05
-3.02626e-05
-3.59038e-05
-3.319e-05
-3.02023e-05
-2.36849e-05
-2.61142e-05
-3.20049e-05
-3.744e-05
-2.92352e-05
-2.79611e-05
-3.85335e-05
-4.69582e-05
-4.22054e-05
-3.68346e-05
-2.80918e-05
-3.71292e-05
-4.07277e-05
-4.35041e-05
-3.2259e-05
-3.34354e-05
-3.68869e-05
-3.95277e-05
-4.24804e-05
-3.62505e-05
-3.17543e-05
-3.59399e-05
-4.01607e-05
-4.74936e-05
-4.21905e-05
-4.00683e-05
-3.90048e-05
-4.11943e-05
-3.66566e-05
-3.08746e-05
-2.31171e-05
-2.97212e-05
-3.67151e-05
-4.6149e-05
-3.90355e-05
-3.6918e-05
-3.98564e-05
-4.78108e-05
-4.43547e-05
-3.82022e-05
-3.01692e-05
-3.36278e-05
-4.28903e-05
-4.81188e-05
-3.65164e-05
-3.62258e-05
-4.54342e-05
-5.51479e-05
-4.90573e-05
-4.03689e-05
-3.0108e-05
-4.22282e-05
-4.65558e-05
-4.87294e-05
-3.32137e-05
-3.73207e-05
-4.12153e-05
-4.60939e-05
-5.04425e-05
-3.85593e-05
-3.42529e-05
-4.00695e-05
-4.60069e-05
-5.52189e-05
-4.28453e-05
-4.32374e-05
-4.4302e-05
-4.80168e-05
-4.12448e-05
-3.38275e-05
-2.34208e-05
-3.36444e-05
-4.22977e-05
-5.14729e-05
-4.17739e-05
-3.98042e-05
-4.40331e-05
-5.47804e-05
-4.77431e-05
-4.30762e-05
-3.25052e-05
-3.89966e-05
-5.10299e-05
-5.34736e-05
-3.86636e-05
-4.0114e-05
-4.33812e-05
-5.51238e-05
-4.58833e-05
-3.62998e-05
-2.45007e-05
-4.00947e-05
-4.24484e-05
-4.384e-05
-2.47935e-05
-3.23836e-05
-3.72221e-05
-4.60189e-05
-4.85312e-05
-3.72018e-05
-3.14627e-05
-3.74797e-05
-4.545e-05
-5.17007e-05
-3.91778e-05
-3.72306e-05
-4.11645e-05
-4.73197e-05
-3.80561e-05
-2.79127e-05
-1.8712e-05
-3.18881e-05
-4.06187e-05
-4.87043e-05
-3.54387e-05
-3.47888e-05
-4.49062e-05
-5.60138e-05
-4.72081e-05
-3.57365e-05
-2.58551e-05
-3.42854e-05
-4.74724e-05
-4.87414e-05
-3.07239e-05
-3.44164e-05
-3.62001e-05
-4.93573e-05
-3.88761e-05
-2.42116e-05
-1.27526e-05
-3.0093e-05
-3.28033e-05
-3.40129e-05
-1.31261e-05
-2.41707e-05
-2.98512e-05
-4.20976e-05
-4.42791e-05
-2.58669e-05
-2.35987e-05
-3.00041e-05
-4.09984e-05
-4.59861e-05
-2.70752e-05
-2.95022e-05
-3.52294e-05
-4.15088e-05
-3.33891e-05
-2.0137e-05
-7.26836e-06
-2.65613e-05
-3.41476e-05
-4.07034e-05
-2.22704e-05
-2.46029e-05
-3.5426e-05
-5.2868e-05
-3.94474e-05
-3.07912e-05
-1.58057e-05
-2.83828e-05
-4.36201e-05
-3.9562e-05
-1.89752e-05
-2.2237e-05
-2.99845e-05
-4.29611e-05
-3.08308e-05
-1.75866e-05
-6.72775e-06
-2.5302e-05
-2.82823e-05
-2.90656e-05
-6.11987e-06
-1.52212e-05
-2.48194e-05
-3.69226e-05