/*--------------------------------*- C++ -*----------------------------------*\
  =========                 |
  \\      /  F ield         | OpenFOAM: The Open Source CFD Toolbox
   \\    /   O peration     | Website:  https://openfoam.org
    \\  /    A nd           | Version:  10
     \\/     M anipulation  |
\*---------------------------------------------------------------------------*/
FoamFile
{
    format      ascii;
    class       volScalarField;
    location    "18";
    object      nut;
}
// * * * * * * * * * * * * * * * * * * * * * * * * * * * * * * * * * * * * * //

dimensions      [0 2 -1 0 0 0 0];

internalField   nonuniform List<scalar> 
25600
(
3.40568e-10
6.89494e-11
1.38628e-10
7.8903e-12
1.75527e-13
1.15976e-10
3.51657e-11
2.08133e-10
2.33301e-10
1.904e-10
2.22148e-10
1.78144e-12
1.10481e-10
2.28385e-11
8.57107e-14
3.03735e-10
1.58574e-10
2.94532e-11
3.1535e-10
1.78434e-10
2.24687e-11
2.09079e-10
1.72994e-10
5.16668e-11
2.54285e-10
8.22553e-11
1.3634e-11
1.51566e-10
1.49395e-13
1.72992e-10
3.61135e-10
2.69041e-10
2.59415e-10
1.34764e-13
1.06361e-13
1.13647e-13
6.34085e-14
1.20926e-10
1.64024e-10
1.712e-10
1.62517e-10
1.85586e-13
1.04271e-10
4.65883e-14
1.56093e-13
5.10708e-13
5.61925e-11
5.87911e-10
4.17412e-10
3.47462e-10
6.28201e-11
1.03047e-13
1.79953e-13
5.18305e-14
3.43249e-14
9.62416e-12
1.58736e-13
1.505e-13
1.59748e-10
5.03096e-11
1.06922e-12
4.62635e-10
2.66044e-10
1.53205e-10
2.07945e-10
3.49171e-14
1.52277e-13
2.31568e-11
8.08428e-14
9.41544e-14
1.22383e-13
9.63811e-11
4.48322e-10
2.23327e-10
2.86017e-10
3.63554e-12
1.62891e-13
3.69609e-10
9.44134e-11
1.88771e-10
1.94341e-10
2.37364e-10
1.38525e-10
3.60288e-14
1.79639e-12
1.68043e-10
1.5894e-10
1.18139e-10
5.20006e-13
1.81973e-10
6.47196e-11
4.71019e-13
1.25098e-10
8.33609e-11
1.31049e-10
5.0224e-10
3.4342e-10
1.69348e-10
3.42427e-10
1.41477e-13
1.5259e-13
3.06581e-10
3.0497e-13
7.81328e-11
5.6106e-11
5.36578e-14
4.93242e-11
6.65239e-12
1.42533e-13
1.51439e-10
7.16552e-11
4.82902e-10
4.15684e-10
2.89492e-13
1.73448e-13
7.71005e-14
7.47757e-13
8.21895e-11
2.51268e-13
9.66306e-11
3.6455e-13
2.78122e-13
2.61861e-13
1.47047e-13
1.83839e-10
2.46346e-10
2.802e-10
3.49708e-10
5.00081e-10
2.18405e-10
2.34718e-13
8.3125e-14
3.02908e-13
6.6912e-11
1.33475e-10
3.74862e-10
4.37488e-12
1.78176e-13
1.14915e-10
1.53497e-14
3.08482e-10
3.0281e-10
6.85392e-14
3.72169e-13
9.79563e-14
1.92511e-12
4.34495e-10
6.78145e-11
1.42155e-10
1.98973e-10
1.45727e-10
4.27285e-10
9.73534e-13
1.86806e-13
4.63895e-14
2.37435e-13
4.10835e-10
6.39274e-10
5.50002e-10
6.07413e-10
1.75721e-10
1.15004e-10
1.98666e-13
1.50617e-13
5.05153e-13
2.12423e-13
7.09101e-14
1.9322e-13
1.45673e-10
1.75683e-10
3.35289e-10
9.06549e-11
4.81035e-13
1.16363e-10
3.10118e-10
3.32555e-10
1.1838e-13
1.8462e-13
4.57205e-13
1.5004e-13
4.39769e-10
6.53567e-11
3.90252e-11
5.48596e-10
5.84748e-13
3.07918e-13
3.39184e-13
1.01665e-13
1.0864e-13
4.08922e-14
1.52877e-14
2.66089e-10
4.51447e-13
7.74597e-14
7.69038e-14
3.50727e-11
2.40285e-10
3.06621e-13
2.57519e-13
4.0529e-10
4.56514e-11
4.07815e-10
2.2649e-10
2.67623e-10
4.55094e-10
5.20935e-11
2.61279e-11
1.34055e-10
3.93957e-13
3.07679e-13
9.765e-11
9.78412e-14
2.1416e-10
2.83802e-10
1.51517e-10
1.9098e-10
5.42591e-13
3.19193e-10
3.14534e-10
3.8314e-10
8.20778e-10
4.18556e-10
3.73492e-10
1.95669e-10
5.00834e-14
2.76716e-13
1.59895e-10
7.96166e-14
5.73303e-14
4.06519e-13
3.54022e-10
4.6562e-10
1.63122e-10
2.21399e-10
6.06364e-13
2.76981e-13
4.55635e-13
4.02738e-13
3.36458e-10
4.09069e-10
8.02975e-13
1.6972e-10
9.30136e-14
2.35441e-11
4.76136e-10
3.97299e-10
4.05986e-11
1.01813e-13
5.36661e-14
3.88698e-13
2.73129e-13
3.45033e-13
3.22407e-10
1.79177e-13
1.8156e-13
3.42317e-13
5.16998e-13
3.78217e-10
1.46798e-13
9.61088e-13
3.43776e-10
3.38377e-14
2.5237e-14
4.514e-11
4.34964e-11
1.3531e-10
3.06754e-13
9.95301e-14
9.75536e-11
2.19799e-11
1.42356e-13
2.52362e-13
1.68297e-13
4.26462e-10
8.70565e-10
5.35896e-10
5.69738e-10
3.91477e-10
6.74524e-10
2.40022e-10
1.02794e-10
2.33274e-10
3.73806e-13
5.46174e-13
1.76901e-13
1.35895e-13
1.19382e-10
2.1509e-10
2.40102e-12
2.75814e-13
4.49779e-14
2.31316e-13
6.42066e-13
1.70811e-13
1.01852e-10
3.04568e-13
4.73431e-14
1.07127e-11
4.74214e-13
3.69165e-10
2.32621e-10
7.38544e-14
6.62625e-14
2.18716e-10
4.90782e-11
1.47982e-10
2.60083e-10
1.84259e-10
2.56696e-11
8.09725e-13
7.44496e-11
1.61971e-10
4.22252e-10
3.05868e-10
1.96818e-13
3.88086e-13
2.04069e-10
2.81496e-10
1.05239e-09
5.52821e-10
1.39296e-13
1.02362e-12
5.62126e-14
1.02605e-13
1.78983e-10
1.28414e-13
2.5367e-13
2.84021e-13
2.33874e-10
5.53428e-10
4.22358e-10
2.4001e-10
1.16572e-10
1.19968e-13
4.13959e-14
1.77666e-10
4.29847e-10
4.14394e-10
2.42483e-12
4.16763e-11
1.91074e-10
2.41436e-10
3.79329e-10
1.5789e-10
1.26902e-13
3.26115e-13
5.33682e-13
8.03374e-14
2.45386e-10
6.49397e-12
6.43385e-10
4.4112e-10
8.31929e-11
3.76693e-10
2.97094e-10
5.08051e-10
9.48815e-12
2.34861e-13
2.0814e-13
1.18022e-13
3.15386e-10
4.48583e-10
4.80637e-10
7.15644e-10
5.37152e-10
9.44081e-10
8.67076e-10
1.6915e-10
1.49838e-10
2.65678e-13
2.4931e-13
4.10668e-10
4.21615e-10
2.64071e-12
5.10719e-10
1.9725e-10
1.73185e-13
1.11882e-10
5.93354e-10
5.53044e-10
7.12152e-11
3.21542e-14
1.25535e-10
3.87049e-10
1.2457e-13
3.6284e-13
3.86022e-10
2.881e-10
1.38741e-13
3.49657e-13
2.56684e-10
5.7172e-10
6.02301e-10
4.77326e-10
1.71541e-10
6.53278e-10
3.64504e-10
9.44811e-11
4.01168e-10
2.52071e-10
1.01254e-10
3.13285e-10
3.82811e-10
5.91468e-10
3.66917e-13
5.06509e-13
1.24049e-13
1.06393e-13
2.47435e-10
5.94371e-10
5.0558e-10
2.19015e-12
2.23539e-13
4.9638e-14
9.01859e-14
1.44198e-10
2.69116e-10
5.91083e-10
1.18365e-13
6.54963e-14
2.0924e-10
1.70461e-10
2.25651e-13
6.24723e-11
2.44884e-13
5.04423e-12
6.72314e-14
9.22567e-14
3.18848e-10
4.65397e-10
4.44983e-10
1.14561e-10
1.00761e-13
1.89294e-13
4.59137e-14
2.33223e-10
2.46215e-10
3.62381e-11
6.80652e-10
2.70652e-10
9.37438e-10
1.86386e-11
3.01246e-13
6.61209e-10
2.22048e-10
7.43697e-10
1.14575e-10
1.73917e-10
6.36043e-11
7.49309e-12
1.58003e-10
7.49779e-10
1.19137e-09
1.31703e-09
2.94956e-10
1.38516e-13
1.3212e-10
9.43734e-10
8.37273e-13
5.99941e-10
5.01e-10
8.78953e-13
3.69872e-10
1.78426e-10
3.76607e-13
2.09775e-13
4.05418e-10
4.64672e-13
6.05324e-14
1.90769e-13
4.75348e-10
9.66604e-14
4.50594e-11
4.11837e-10
2.67661e-13
2.22726e-10
6.95512e-13
8.25866e-14
1.88826e-13
2.61084e-10
1.73755e-10
4.02002e-13
3.54599e-13
2.65561e-12
4.8462e-10
4.16517e-10
7.77122e-11
3.805e-10
3.1388e-10
1.59439e-13
6.56047e-10
3.91824e-13
3.84697e-13
2.34521e-13
8.04479e-13
3.89003e-10
1.5974e-13
4.4031e-11
3.02541e-10
1.03296e-13
6.76037e-13
2.19292e-10
3.8193e-10
9.73429e-13
4.52581e-10
2.37204e-10
1.12312e-13
4.03118e-14
2.93165e-10
9.51871e-10
8.27693e-10
2.6082e-13
7.90296e-13
1.33195e-13
2.26943e-13
7.10096e-10
1.04981e-09
1.04099e-09
2.25316e-10
1.99527e-10
2.85559e-13
4.16286e-11
9.49231e-11
4.10545e-13
2.37892e-10
3.88742e-10
2.27737e-13
2.78879e-12
7.08853e-13
5.37861e-13
2.18936e-10
3.44031e-13
1.32096e-10
1.29561e-10
4.24413e-10
1.7779e-10
3.5254e-10
1.71397e-12
9.97319e-14
9.67223e-14
1.91576e-13
1.25351e-14
4.44334e-11
1.20293e-13
4.00034e-14
5.41925e-10
3.9681e-10
1.82791e-12
1.13538e-13
1.68951e-12
2.64862e-13
6.32071e-13
2.04406e-13
6.02767e-13
1.83607e-10
3.28312e-10
3.85063e-12
2.3315e-13
1.25764e-10
3.62579e-10
2.63052e-10
6.78846e-10
1.73299e-10
6.40442e-10
6.81036e-10
9.19398e-11
2.20133e-10
7.3544e-10
9.7703e-12
1.2833e-12
2.75203e-13
4.1104e-10
5.77333e-13
5.26605e-14
5.09982e-13
3.87329e-10
5.89106e-10
3.65688e-10
5.45763e-10
2.20301e-10
9.89852e-13
2.36871e-10
9.94099e-10
5.30756e-13
2.4306e-10
3.42046e-10
2.84761e-13
7.13863e-13
4.70863e-10
3.01143e-10
4.34346e-13
4.69619e-10
3.63797e-10
3.94039e-10
1.08239e-09
9.39699e-10
5.36604e-10
3.17309e-14
1.10904e-13
2.10855e-13
7.70182e-11
5.50181e-11
2.54759e-13
1.02836e-12
9.78718e-11
9.24113e-11
4.71059e-10
1.59885e-12
6.56112e-10
8.29111e-10
4.47711e-10
6.49899e-12
8.42997e-10
2.51e-13
4.71366e-13
1.5926e-12
2.51761e-11
1.16259e-10
4.9886e-10
3.8388e-10
1.06464e-12
3.03642e-10
1.76739e-11
6.95602e-10
8.8942e-10
6.70725e-13
2.49224e-13
1.08089e-13
5.91288e-10
1.28112e-09
1.03935e-09
3.76906e-10
9.94967e-14
1.65363e-13
4.33955e-13
1.91569e-13
8.43113e-11
1.01623e-09
2.49968e-10
5.47443e-10
1.0171e-11
3.64848e-10
1.4966e-10
3.77656e-10
6.29884e-14
4.19711e-13
4.36993e-12
4.23127e-10
2.31783e-10
2.76847e-13
1.23185e-10
7.3597e-10
5.2193e-10
1.25746e-09
1.10839e-09
4.10386e-13
2.62831e-10
8.21498e-10
4.10899e-14
1.01167e-13
4.662e-13
1.18219e-13
8.03327e-14
4.17645e-10
6.43564e-13
3.18036e-10
2.39121e-10
5.53994e-13
1.0614e-13
9.10448e-11
1.9003e-11
5.23125e-13
7.0639e-10
3.20051e-12
1.05975e-12
2.54707e-10
1.69376e-10
1.00544e-13
8.4849e-14
1.7218e-13
3.34014e-10
6.12461e-10
1.29579e-12
7.63067e-10
7.45033e-10
1.13093e-09
1.63789e-13
3.2643e-13
4.17538e-13
1.19073e-13
4.07368e-10
1.21737e-09
1.0118e-12
8.16874e-13
1.85399e-13
4.78871e-10
1.96111e-10
3.14689e-10
4.92138e-10
4.68988e-13
6.95369e-11
4.71994e-10
8.13134e-10
8.19587e-11
3.45457e-10
1.62342e-13
3.7653e-10
4.67698e-10
3.26028e-10
6.07847e-10
2.26662e-13
4.03837e-12
1.31107e-09
1.09439e-09
2.15925e-13
2.86588e-10
7.06693e-10
1.85002e-10
3.47455e-13
4.44159e-13
6.85053e-10
2.61935e-11
1.73646e-10
1.09923e-11
4.43473e-11
1.34861e-13
1.49456e-13
3.029e-10
8.94499e-10
4.61992e-10
3.45911e-10
1.20153e-13
3.6403e-13
7.72119e-13
5.69001e-13
7.29687e-14
1.59585e-10
7.91758e-11
3.6516e-10
1.61312e-13
9.38761e-11
7.67779e-13
5.8713e-11
1.33949e-09
1.29333e-09
1.51738e-12
1.39446e-13
4.32477e-13
9.69059e-10
1.04444e-09
4.09974e-12
2.07675e-12
3.65627e-10
5.07575e-14
3.29011e-10
1.74932e-12
2.0242e-12
3.26277e-10
1.06159e-12
3.90199e-10
5.95863e-10
7.8936e-10
2.93893e-10
1.67456e-13
4.85219e-10
4.76286e-10
9.8316e-10
2.59756e-10
5.76881e-11
2.02426e-13
7.86699e-10
1.66331e-10
2.85938e-11
9.5958e-14
1.79162e-10
9.43595e-10
9.62808e-10
8.1589e-10
4.02106e-13
1.69721e-10
8.03513e-10
1.46044e-10
1.42761e-12
2.27836e-13
1.51196e-10
8.93564e-10
2.48247e-14
3.56579e-10
1.45463e-13
3.98019e-10
2.71673e-12
1.03792e-10
2.43068e-10
2.83674e-10
7.00353e-12
4.50435e-10
5.49897e-10
3.3373e-13
1.16714e-12
6.75213e-11
1.69746e-13
1.13677e-10
1.88281e-13
2.51787e-10
1.11282e-13
5.93835e-14
2.03204e-14
1.09693e-12
8.50472e-10
5.56667e-11
4.94089e-11
1.29809e-10
6.09214e-13
3.40405e-10
4.66805e-14
1.18842e-12
2.02063e-13
4.55867e-13
1.64882e-10
1.82484e-13
4.1418e-10
7.0633e-10
5.57109e-11
1.8847e-13
4.62015e-14
1.64791e-13
4.90323e-13
2.73867e-13
4.41273e-10
3.22616e-10
5.5264e-10
4.54445e-13
1.6691e-13
3.0407e-11
1.74244e-13
5.51828e-13
2.29145e-10
6.92281e-10
4.64224e-10
1.95368e-13
1.13449e-09
6.51993e-10
5.48526e-10
3.11442e-10
7.89615e-10
9.51514e-11
1.32577e-13
6.12465e-10
1.00232e-12
3.29592e-13
8.06468e-13
3.40674e-13
5.97117e-10
8.18791e-10
3.35234e-10
2.76073e-11
9.20929e-11
2.68272e-10
1.72428e-13
3.59148e-10
7.2942e-10
1.2171e-12
5.39769e-10
1.00838e-09
1.39421e-09
5.88025e-10
1.93753e-10
3.61051e-13
7.84684e-10
1.73278e-10
1.77707e-10
7.38368e-10
1.08749e-09
2.79867e-13
8.8808e-10
3.92268e-10
3.96454e-10
1.87018e-10
8.14553e-14
1.60972e-11
8.77902e-13
1.20205e-10
1.77331e-12
2.08817e-13
2.93564e-13
6.93601e-10
5.99085e-14
2.02408e-12
3.84926e-10
4.86644e-13
6.15656e-10
3.65168e-10
1.58287e-13
2.01477e-13
8.32553e-12
3.55346e-10
3.84888e-10
7.5406e-10
5.61728e-14
3.77375e-13
1.09432e-12
1.20038e-12
4.73189e-10
1.42069e-13
5.85027e-13
7.82472e-10
1.03407e-11
3.66239e-13
2.4145e-13
9.07344e-10
5.91284e-14
2.08053e-13
6.74968e-10
5.81131e-10
8.20087e-14
5.10969e-14
9.13502e-10
8.72184e-10
4.64383e-13
3.25558e-10
7.53056e-10
6.26962e-10
4.52343e-10
6.50287e-11
6.53369e-10
2.13998e-12
3.21203e-13
2.10814e-10
5.74008e-10
3.20897e-13
5.61639e-10
1.26476e-10
2.24354e-10
5.95772e-13
4.2321e-11
5.04946e-10
1.26489e-12
2.16408e-12
1.26383e-10
1.1135e-09
9.66514e-11
5.59497e-10
2.00587e-11
5.00663e-10
1.09166e-09
6.7503e-11
4.19682e-13
3.40022e-10
4.33581e-12
1.05901e-09
6.15278e-10
5.0401e-13
2.52357e-10
6.09078e-10
2.54546e-13
3.97689e-10
8.5956e-11
3.33623e-10
7.92885e-11
6.69009e-11
1.07425e-13
1.98854e-10
1.72442e-13
2.16468e-13
1.34573e-12
1.83182e-13
1.87998e-13
3.67412e-10
6.94733e-13
2.47522e-13
3.86451e-13
5.87566e-13
6.0588e-10
4.30882e-10
2.77543e-13
9.45751e-13
1.19531e-13
2.98658e-13
7.76061e-14
1.74606e-12
5.92868e-10
9.77896e-14
2.22604e-13
1.32016e-13
9.57743e-13
4.34342e-12
5.87742e-12
1.82892e-12
1.50388e-09
1.60419e-10
2.46189e-13
7.86721e-14
2.26891e-11
8.99783e-14
4.15327e-10
9.69478e-14
2.55014e-13
2.22222e-13
3.20887e-13
9.29272e-11
7.65669e-10
1.19026e-09
5.61432e-10
7.78612e-10
7.02918e-10
1.26962e-09
2.45571e-11
1.6955e-09
7.29095e-10
2.6055e-10
6.10816e-10
6.53552e-10
3.27167e-13
5.99509e-10
7.20898e-10
1.16645e-09
1.00414e-09
1.22091e-09
2.9377e-10
5.57925e-10
9.57387e-10
1.05388e-09
7.93969e-10
4.14181e-10
1.27356e-09
5.93947e-10
1.89854e-12
6.5332e-11
1.32039e-09
1.69782e-09
6.54483e-10
5.22104e-10
1.52689e-09
1.39304e-10
1.77018e-10
7.32834e-10
1.59738e-09
1.17845e-09
7.23502e-10
7.25318e-10
5.49603e-13
2.43359e-13
4.24342e-13
2.61287e-13
4.36607e-13
1.60599e-13
3.675e-14
1.39994e-13
5.53884e-13
3.68926e-13
8.26437e-13
1.15879e-13
2.34221e-14
5.41374e-14
1.50029e-13
1.22938e-13
2.67291e-13
8.78452e-14
2.95595e-13
1.74396e-12
2.24047e-14
2.08697e-13
1.18343e-13
3.21395e-13
1.00756e-11
3.78129e-10
1.14061e-13
4.17764e-13
3.19539e-14
2.63806e-12
1.20178e-12
4.28005e-13
2.06772e-13
3.74947e-13
2.71481e-13
7.79089e-14
2.02816e-13
1.38608e-13
4.08498e-13
6.67257e-13
8.45478e-10
1.50315e-09
1.39709e-09
1.0369e-09
1.10238e-09
1.40016e-09
9.77278e-10
1.57879e-09
6.83926e-10
9.13228e-10
8.84492e-10
1.56116e-09
1.95522e-09
1.81934e-09
1.11279e-09
1.84393e-09
1.12302e-09
1.25837e-09
1.3677e-09
8.63381e-10
1.26947e-09
1.37544e-09
7.14033e-10
6.01824e-10
1.23561e-09
1.82816e-09
1.9479e-09
1.34635e-09
1.58776e-09
2.09162e-09
1.22589e-09
8.96138e-10
1.53623e-09
1.76945e-09
1.06934e-09
9.44654e-10
1.76004e-09
1.45651e-09
9.8897e-10
1.68321e-09
7.20656e-13
1.3841e-12
8.72134e-14
6.42281e-14
1.75766e-13
1.2374e-13
2.11781e-13
4.50208e-13
1.89842e-12
3.28364e-14
1.2813e-13
9.32209e-14
8.94902e-14
1.33996e-13
9.98001e-14
3.23242e-13
6.08002e-13
1.42782e-13
7.2178e-13
3.61663e-13
3.01965e-13
3.13731e-13
1.6009e-13
9.14503e-13
6.1062e-13
1.29202e-13
6.31209e-14
2.42759e-13
1.25301e-12
6.35069e-13
2.06361e-13
2.98845e-14
8.10124e-14
4.48304e-14
7.95708e-14
1.90744e-13
1.42246e-13
1.22343e-13
5.84648e-13
2.55352e-13
2.28247e-09
2.38134e-09
1.72554e-09
1.75974e-09
2.3113e-09
2.12973e-09
2.17127e-09
2.2864e-09
7.5584e-10
2.96494e-09
2.24054e-09
2.08527e-09
2.37394e-09
2.19977e-09
2.07679e-09
2.19631e-09
1.94382e-09
1.9047e-09
2.02944e-09
2.48288e-09
2.42369e-09
2.06064e-09
2.03353e-09
1.9275e-09
2.15126e-09
3.10731e-09
3.04153e-09
2.42517e-09
2.05789e-09
2.44037e-09
1.68589e-09
2.0552e-09
2.41585e-09
2.39799e-09
1.68798e-09
1.87771e-09
2.39854e-09
2.41042e-09
2.19672e-09
1.80577e-09
1.68872e-13
3.50137e-13
2.98156e-13
4.08501e-13
8.14917e-13
2.70989e-13
1.83581e-13
2.80519e-13
1.2306e-13
6.58501e-14
7.09968e-14
1.7667e-13
3.35579e-13
1.37087e-13
4.58332e-13
3.98313e-13
1.36843e-13
3.63978e-13
9.48716e-14
2.86865e-13
1.54424e-12
6.85778e-13
6.52537e-13
5.60565e-13
1.69807e-13
8.47449e-14
1.02575e-13
1.33476e-13
1.36262e-13
1.5118e-13
9.26056e-14
4.86684e-13
2.59521e-13
2.25006e-14
9.52043e-14
2.61585e-13
1.83771e-13
1.52684e-13
1.03573e-13
1.7694e-14
1.33794e-09
1.41049e-09
1.14283e-09
1.07753e-09
1.28915e-09
1.18786e-09
1.15199e-09
1.30197e-09
9.82062e-10
1.30663e-09
1.02228e-09
1.1481e-09
1.15844e-09
1.2472e-09
1.2003e-09
1.42143e-09
1.28399e-09
1.0754e-09
1.13904e-09
9.44752e-10
1.09517e-09
1.27382e-09
1.13925e-09
1.04923e-09
1.36444e-09
1.53733e-09
1.12841e-09
1.09875e-09
1.27554e-09
1.42113e-09
9.5754e-10
1.0249e-09
1.31832e-09
8.28101e-10
1.01139e-09
1.17041e-09
1.41386e-09
1.32729e-09
1.22064e-09
6.41491e-10
4.99395e-13
1.18143e-13
4.20719e-13
3.64445e-13
1.66356e-13
1.19957e-10
2.48205e-13
1.5076e-13
1.42127e-13
1.78168e-13
2.51251e-13
3.25212e-14
4.8809e-11
1.0069e-13
4.01399e-14
2.22213e-11
9.55014e-14
5.50799e-14
8.09136e-11
3.65122e-11
8.47272e-14
8.74519e-14
4.75287e-14
3.49275e-14
6.19496e-11
1.59286e-11
6.09428e-11
2.37037e-10
2.37335e-13
1.51767e-12
1.38195e-13
1.76172e-14
4.21434e-14
1.31148e-13
4.1072e-11
3.38095e-13
8.21696e-14
3.73138e-13
3.45632e-13
2.42343e-13
3.63503e-13
1.30411e-14
2.62045e-10
8.52579e-12
1.92334e-13
1.50871e-13
1.32112e-13
2.22154e-13
1.64076e-13
1.53757e-13
1.58085e-13
1.28328e-13
3.96618e-10
2.15225e-10
3.95249e-13
2.23139e-10
8.67763e-14
3.53694e-14
2.07764e-13
1.10656e-13
6.73408e-14
2.09394e-13
6.12138e-14
7.74604e-14
1.43898e-12
6.3303e-14
9.5985e-14
1.4409e-10
1.1108e-10
2.50506e-10
8.97493e-14
7.25953e-14
8.32079e-14
6.00222e-14
9.43831e-13
2.1147e-12
6.4534e-14
1.2255e-10
2.17263e-13
4.25147e-13
2.20016e-13
8.92546e-14
1.68985e-10
1.28534e-13
1.13292e-11
1.7609e-13
4.13697e-14
5.5229e-11
1.92067e-13
7.56818e-13
4.93047e-13
1.24931e-13
5.64759e-13
5.47195e-14
3.95002e-14
9.69982e-14
6.43263e-14
1.24704e-13
2.5121e-10
1.03746e-11
1.03383e-13
1.2906e-10
1.29555e-13
1.36309e-10
3.14523e-10
2.83406e-13
1.28531e-11
1.5517e-13
2.31841e-13
5.79658e-11
7.2335e-14
2.76391e-14
4.45147e-14
6.80467e-14
1.3051e-10
1.196e-11
1.02468e-13
1.93507e-13
1.16137e-13
1.23035e-12
1.12393e-13
2.97659e-10
5.12394e-10
4.36663e-11
7.12115e-14
4.84594e-14
1.06798e-13
2.49056e-13
1.19061e-13
5.97533e-14
2.96872e-13
1.58472e-10
9.97536e-11
7.55139e-13
3.47397e-14
2.86604e-13
1.66755e-13
1.64376e-13
6.20304e-13
2.86499e-14
7.99564e-14
1.41837e-13
2.3053e-14
2.07452e-10
5.89877e-12
1.45522e-13
8.35379e-11
5.84052e-13
6.91257e-11
2.36581e-13
4.58653e-14
1.32898e-10
2.41058e-12
1.37349e-10
6.45818e-10
1.48478e-10
3.0726e-12
9.88377e-12
5.37399e-13
4.20116e-13
1.53152e-13
1.55136e-10
1.7255e-10
2.56132e-10
5.0236e-10
2.30791e-10
8.44105e-11
1.62715e-10
4.37769e-13
2.63194e-13
3.32421e-11
2.35487e-14
1.66458e-13
1.84741e-13
2.42643e-14
1.20785e-13
1.81045e-13
1.5706e-10
4.07764e-10
1.68819e-10
2.56243e-10
1.00215e-13
9.64394e-14
3.16839e-10
2.03112e-13
7.9388e-14
7.16469e-12
6.83639e-14
7.82094e-11
2.04116e-14
6.63021e-14
5.57396e-11
2.89843e-13
1.25837e-12
9.468e-13
9.75504e-14
7.00204e-13
1.68141e-13
1.34649e-13
1.32646e-13
1.92739e-13
3.43917e-12
5.97307e-13
1.47417e-13
3.19773e-11
5.89576e-11
4.26432e-11
3.66234e-10
6.66673e-11
4.11503e-13
4.5697e-13
1.94967e-13
9.11746e-14
2.32777e-13
7.12646e-13
5.37864e-13
1.46885e-13
2.134e-13
5.58008e-14
2.4776e-14
1.22032e-13
1.2851e-13
5.14402e-14
8.45085e-14
2.58554e-14
1.52981e-11
2.13815e-10
4.72781e-13
1.13886e-13
2.97468e-14
4.14305e-13
1.74398e-13
3.48799e-11
6.64613e-10
4.8417e-10
2.00732e-10
1.25062e-10
1.84232e-13
4.36615e-12
1.41886e-10
3.54994e-13
3.16898e-10
1.04682e-13
1.49876e-13
7.544e-14
9.77931e-14
9.17027e-13
6.7774e-10
5.03484e-10
4.66697e-10
4.88199e-10
1.18257e-10
1.01636e-10
8.96514e-13
1.33012e-10
2.38238e-10
1.01817e-12
1.50659e-10
2.14476e-13
5.76093e-13
1.95714e-10
2.88819e-13
1.67988e-10
5.09163e-10
1.50146e-11
1.00966e-10
4.4616e-10
1.54655e-10
6.98343e-11
4.11978e-11
1.59531e-10
8.41051e-12
1.21717e-13
6.94129e-14
2.47027e-13
2.70136e-10
4.76559e-10
6.28894e-13
7.97634e-13
3.95145e-13
3.31116e-13
8.21049e-13
3.91809e-13
7.12087e-10
3.24325e-10
6.05087e-13
2.63715e-12
6.81116e-13
1.03481e-13
2.50654e-13
4.05334e-13
1.16198e-10
1.89223e-10
4.31024e-10
3.77302e-10
8.20099e-14
1.97531e-13
3.61921e-10
1.97558e-10
1.2499e-10
5.16965e-13
8.19948e-13
2.40924e-10
1.26093e-10
3.187e-14
5.50496e-14
7.42059e-13
2.74431e-13
3.23228e-14
8.38516e-14
3.47433e-13
3.92225e-13
5.11827e-11
5.05982e-10
2.61625e-13
5.35469e-13
5.21284e-13
5.94148e-14
1.00678e-13
1.01897e-13
2.1652e-10
5.45565e-13
3.92145e-13
1.05228e-11
8.32355e-13
9.97893e-11
4.20016e-10
2.06065e-10
8.55877e-11
1.85358e-10
3.91375e-13
6.29119e-13
2.18452e-11
9.29724e-14
1.78214e-13
4.46334e-10
2.48606e-10
6.90066e-14
1.48794e-13
8.93645e-14
3.01034e-13
3.9307e-13
6.63059e-14
5.61951e-13
1.74029e-11
2.72372e-10
5.06336e-11
7.67693e-13
4.61958e-10
9.16254e-10
4.08695e-12
3.41448e-13
1.23501e-13
4.56638e-13
3.11778e-13
2.91925e-14
1.22344e-10
8.06464e-10
7.67081e-10
2.42368e-13
4.37872e-10
6.15977e-10
9.36322e-13
4.91353e-13
5.02158e-14
1.19302e-13
1.19631e-10
5.35832e-12
4.99651e-11
3.03785e-10
2.75136e-13
2.59669e-13
3.11801e-11
8.81474e-10
5.5039e-10
3.31652e-13
1.67938e-13
1.8524e-10
2.08551e-13
1.13846e-12
5.57236e-12
1.71829e-13
3.8511e-13
3.03132e-13
6.57755e-14
2.67481e-10
5.09901e-10
1.47737e-13
2.51033e-13
1.76703e-13
4.00772e-14
7.77399e-13
2.68762e-13
3.81565e-14
1.18002e-13
5.92451e-13
2.09117e-13
1.42234e-13
3.45245e-10
2.20508e-13
1.7327e-13
1.99481e-13
9.41896e-14
2.35388e-13
6.38277e-13
1.56619e-12
4.41651e-12
8.86878e-14
1.43197e-10
5.00664e-13
7.45496e-14
8.97515e-14
2.08073e-13
1.37615e-13
3.02352e-13
2.60297e-10
1.47771e-13
8.18594e-14
3.32548e-14
2.6425e-14
2.48681e-11
3.68284e-14
1.45771e-11
2.66067e-10
1.96355e-10
5.32987e-10
9.75606e-11
2.29369e-10
6.86743e-10
7.15389e-10
7.10541e-10
2.6947e-12
2.84083e-12
8.35741e-10
3.72468e-10
1.11146e-10
9.24824e-13
1.25716e-10
1.56769e-13
1.28489e-13
1.66543e-12
6.32165e-14
5.55134e-10
3.18883e-10
7.85307e-13
5.84775e-12
2.16617e-10
2.33556e-10
3.95749e-13
1.09676e-13
4.23572e-13
1.24863e-13
3.93357e-11
4.47135e-14
2.27178e-13
5.85797e-10
1.11809e-13
4.5913e-13
1.43984e-13
1.33698e-10
3.41442e-10
2.60165e-10
3.16821e-10
8.49229e-14
7.15959e-14
5.49577e-13
4.47184e-10
9.1449e-10
9.95517e-11
1.76468e-13
4.02257e-13
3.24102e-10
5.37241e-10
4.81966e-10
3.3993e-10
7.8142e-13
3.84849e-10
6.99993e-10
7.60456e-12
1.97783e-10
2.63456e-10
7.86184e-10
3.07889e-12
2.36783e-12
7.85198e-13
4.87171e-12
4.07589e-10
1.78225e-10
3.90885e-11
5.96779e-10
3.69571e-13
2.37009e-12
2.57003e-11
2.46463e-10
1.29005e-09
2.87049e-10
2.96262e-13
9.86795e-10
4.17579e-10
4.5601e-10
9.50721e-11
1.08982e-13
9.05111e-14
3.63891e-11
3.34302e-10
5.28175e-10
7.93154e-10
4.51892e-13
5.70987e-11
2.25023e-10
8.87676e-10
2.77325e-13
7.29113e-13
4.45976e-10
1.2659e-13
4.55927e-13
3.75183e-12
5.87788e-13
4.45819e-14
2.2949e-13
1.60949e-13
2.40372e-10
8.74273e-13
9.26941e-13
1.10569e-11
4.09004e-13
8.70017e-11
3.34244e-13
5.74655e-11
1.33602e-13
1.5672e-13
2.14551e-13
1.84195e-10
7.10091e-13
2.60609e-10
1.42358e-10
9.29456e-13
2.11841e-12
1.31327e-13
4.3209e-11
8.07768e-10
7.94792e-14
6.61729e-10
7.08872e-10
5.63522e-13
1.00475e-13
6.57723e-10
1.38062e-12
2.62084e-13
1.31428e-13
1.12028e-13
6.91436e-10
7.16265e-10
2.55999e-13
5.75355e-14
8.12085e-14
3.02214e-13
1.3998e-12
6.89463e-10
2.76435e-10
7.51597e-11
5.11484e-14
1.24017e-13
4.6095e-10
3.23347e-13
1.38426e-13
7.35787e-14
1.74618e-13
2.46161e-13
5.52833e-13
7.00294e-10
9.5376e-11
3.84969e-13
8.89662e-13
4.39118e-11
4.0466e-13
1.28618e-13
2.10987e-13
6.60163e-14
1.43486e-13
2.08278e-10
1.58496e-13
1.15455e-12
2.47918e-14
8.59743e-14
2.80159e-12
1.64849e-13
1.75241e-13
1.72856e-12
6.06076e-10
1.92083e-10
1.49745e-13
1.16741e-09
3.41907e-10
5.34751e-10
1.1083e-09
1.90287e-10
1.24879e-13
7.42243e-10
1.16451e-10
3.09642e-13
4.82755e-10
2.9338e-10
1.67659e-13
2.99703e-10
7.76522e-10
3.56792e-10
2.97639e-11
6.63493e-13
5.92548e-10
1.99781e-13
1.39214e-12
2.35627e-13
3.9669e-14
5.66084e-10
9.82529e-10
1.75077e-12
2.33586e-10
3.92349e-10
8.60697e-11
3.69718e-10
3.68519e-12
2.50545e-12
5.95792e-10
1.98048e-12
2.30537e-12
1.28605e-09
1.00341e-09
1.22741e-13
6.06126e-13
2.93242e-13
2.25645e-13
2.60261e-13
5.93981e-13
2.02227e-13
1.73423e-10
1.17524e-13
1.26449e-13
3.25113e-10
3.77859e-13
9.21864e-14
7.01551e-14
1.94044e-13
3.00933e-13
1.42756e-13
9.55231e-14
1.20148e-12
2.9521e-10
1.8382e-13
1.27008e-13
1.15476e-13
2.36681e-13
1.08818e-09
6.83011e-14
1.13961e-10
2.33837e-10
5.43511e-14
2.23844e-14
4.18917e-14
9.05918e-13
4.93674e-10
3.4713e-13
7.63542e-14
9.74209e-13
1.85512e-13
2.32914e-10
1.78134e-12
1.18868e-13
7.28066e-14
7.6209e-13
4.5117e-13
1.22581e-10
3.33399e-10
3.99407e-13
1.02555e-09
1.09706e-09
8.5779e-11
1.3891e-12
4.7295e-10
3.39957e-10
6.06183e-13
7.16748e-11
9.1758e-13
4.11546e-10
9.28509e-14
3.40985e-10
8.62052e-10
2.69836e-13
5.08953e-14
4.16297e-13
3.74017e-10
4.62129e-14
8.76005e-11
9.38899e-11
5.02637e-10
4.65031e-10
3.37227e-14
8.67951e-14
3.38935e-13
6.22633e-10
1.44188e-11
2.95987e-13
6.92524e-10
2.13461e-13
1.98727e-13
1.05173e-09
6.57506e-12
1.46927e-12
2.54686e-10
2.2985e-13
6.89492e-13
1.49523e-13
4.75728e-14
2.18186e-13
1.12981e-10
3.66518e-10
1.16486e-11
2.04455e-13
7.62792e-10
4.18538e-13
2.7239e-13
6.26904e-14
3.36724e-10
4.21854e-10
1.17352e-12
1.38709e-13
3.95015e-12
1.65113e-10
3.86119e-13
4.27909e-11
1.69459e-13
3.32329e-13
3.19533e-13
1.19509e-13
4.10019e-10
1.73454e-10
3.36932e-14
4.36476e-10
9.40695e-14
4.25371e-13
8.3564e-13
2.81305e-10
2.6938e-11
6.49642e-13
8.40167e-10
4.45445e-10
2.49859e-13
3.47214e-13
1.40329e-13
3.68306e-10
6.45669e-13
1.66076e-10
1.51715e-13
1.16184e-13
3.96286e-14
9.0303e-13
9.02823e-13
3.12927e-13
8.92056e-10
2.35386e-13
2.87115e-13
2.02432e-13
7.45172e-14
1.74594e-11
1.04676e-12
1.32856e-13
7.78951e-10
1.41604e-13
1.14853e-10
3.9647e-13
1.19566e-13
5.8083e-13
1.03842e-09
1.97396e-12
1.16088e-10
5.58772e-13
5.24284e-14
4.88246e-10
2.2525e-10
1.31837e-10
4.53383e-11
4.72189e-13
4.45646e-10
2.17987e-11
9.37076e-14
3.19559e-10
7.27638e-10
7.37368e-10
3.1906e-13
1.01643e-11
3.90963e-10
7.63276e-11
1.05684e-09
2.03363e-13
3.35625e-10
6.67815e-10
1.06296e-13
2.16989e-13
5.02615e-10
3.45882e-11
7.97137e-14
8.41601e-10
3.2305e-10
3.43847e-13
2.71734e-10
2.11346e-10
5.76131e-10
1.28442e-10
2.24195e-13
1.9642e-10
4.03069e-10
3.67844e-13
1.15698e-09
6.53539e-14
7.69834e-13
3.7233e-10
7.68295e-14
1.84879e-13
7.48113e-13
2.40762e-13
3.90316e-10
3.38636e-13
2.57918e-13
3.89369e-13
3.27657e-13
2.13738e-10
1.87529e-10
2.96266e-13
7.56967e-14
1.71232e-13
1.35627e-13
2.65717e-10
3.26308e-13
2.99728e-13
7.39101e-13
4.14926e-10
6.66949e-14
2.16228e-13
1.49492e-12
4.46747e-10
1.50486e-13
8.23979e-14
4.14472e-10
1.25257e-11
1.32356e-10
5.76326e-10
9.35284e-14
6.08034e-14
5.9718e-14
2.93119e-10
4.16929e-10
8.00115e-11
2.10688e-13
8.11917e-14
7.02793e-10
3.86041e-10
2.11368e-13
1.35227e-12
6.78697e-14
7.75447e-14
8.71643e-10
3.76421e-10
1.6111e-10
3.28077e-10
6.62878e-10
6.46783e-10
2.59635e-10
5.65354e-13
1.85241e-10
4.38287e-10
1.36989e-13
9.87202e-14
6.49394e-13
9.15659e-13
3.47673e-10
5.98982e-10
5.98187e-13
2.8865e-13
1.02908e-09
1.85471e-13
9.35707e-11
1.20493e-13
2.68278e-13
3.82569e-10
3.1439e-13
8.51295e-14
6.05613e-14
1.16324e-13
1.52737e-13
1.6464e-13
6.22132e-14
3.06377e-10
4.12201e-12
7.41579e-12
8.5506e-14
2.9242e-13
1.75166e-13
9.13529e-10
2.73467e-10
2.70631e-13
5.72112e-13
3.16569e-14
6.28275e-10
1.28783e-13
9.86398e-13
4.30368e-10
1.61398e-10
2.12125e-10
1.33742e-10
4.35958e-13
1.10152e-09
5.88011e-11
5.41072e-13
6.87527e-13
5.94088e-10
1.14315e-13
1.29233e-10
2.58501e-13
9.6976e-10
5.28019e-10
7.90392e-14
2.35174e-10
2.01036e-12
4.29649e-10
2.91603e-10
1.09253e-09
6.5614e-10
3.31126e-10
1.03181e-09
1.07448e-09
7.2271e-11
6.29053e-10
1.19836e-09
5.08232e-10
8.34263e-13
5.20725e-10
9.01996e-14
1.43365e-12
3.76746e-10
6.67455e-11
7.43188e-10
4.85242e-13
1.93625e-11
7.8147e-13
2.86837e-10
1.82945e-11
2.52105e-12
4.75705e-10
5.49685e-14
7.10337e-13
5.78272e-10
5.60417e-10
1.16002e-13
2.40826e-12
2.26853e-13
8.43924e-10
2.3279e-13
2.41571e-13
3.2668e-10
1.21934e-12
3.15533e-13
1.22237e-13
5.10996e-13
4.43218e-11
7.70982e-14
2.57152e-13
8.72611e-10
9.94434e-14
3.62331e-13
1.26772e-12
2.87888e-13
6.88953e-13
4.26358e-10
4.0109e-14
2.1542e-10
5.85569e-13
3.70665e-13
5.76759e-12
6.23692e-13
6.52482e-13
2.76914e-10
1.13663e-13
6.59768e-11
3.19039e-10
1.23875e-13
3.10398e-11
2.8119e-13
9.49947e-14
5.05713e-14
3.6825e-13
4.66626e-13
7.36143e-13
2.24758e-13
6.37611e-13
2.8412e-14
5.82586e-11
1.23788e-13
1.40781e-13
4.30632e-13
7.85136e-13
2.56072e-12
2.51389e-13
9.22536e-10
3.22971e-11
1.73753e-10
4.88816e-12
5.16779e-10
2.67484e-12
4.58094e-13
1.20069e-09
4.94988e-10
1.02523e-09
9.53296e-10
2.48418e-10
9.05359e-10
4.82993e-10
2.49097e-10
1.13229e-09
4.68548e-10
2.49987e-12
5.09127e-12
4.21277e-10
7.9947e-10
4.04256e-10
1.04007e-09
3.952e-11
1.33965e-09
8.64087e-10
1.95224e-10
2.00124e-10
9.16189e-10
7.74314e-10
6.40629e-10
7.10411e-10
1.40572e-09
8.46805e-10
2.90988e-10
7.23426e-10
1.0202e-09
1.13754e-09
2.26838e-13
2.53185e-10
5.47829e-11
1.29264e-13
9.74267e-14
3.12496e-13
3.1157e-13
4.09941e-13
2.95313e-13
6.83392e-13
5.8934e-13
3.27663e-13
2.56433e-13
1.32215e-13
6.12486e-14
6.48692e-13
1.9471e-13
1.80828e-13
9.45349e-13
9.13519e-13
8.82706e-13
6.0837e-14
1.87591e-13
2.07789e-13
4.30399e-13
2.27181e-13
1.08747e-13
3.09649e-13
4.67223e-13
2.92004e-13
1.31827e-13
1.85466e-13
1.16465e-14
4.99111e-14
8.9994e-14
1.64348e-13
2.06126e-14
6.66059e-14
2.20567e-12
9.94195e-14
1.55757e-09
7.43438e-10
9.98554e-10
2.29221e-09
8.29012e-10
1.65035e-09
2.15171e-09
8.10176e-10
2.17452e-09
1.63718e-09
1.65791e-09
1.30718e-09
1.43293e-09
1.20532e-09
8.84171e-10
1.30595e-09
1.59339e-09
2.00876e-09
1.29632e-09
1.54109e-09
1.867e-09
8.5144e-10
1.33593e-09
1.32275e-09
1.22526e-09
1.55798e-09
1.07243e-09
1.68594e-09
1.22777e-09
6.44046e-10
1.32964e-09
1.21723e-09
1.01231e-09
1.82745e-09
1.56763e-09
8.77217e-10
1.82149e-09
1.17415e-09
1.58164e-09
2.16347e-09
7.76033e-14
5.77138e-13
3.51313e-13
7.77463e-14
2.6167e-14
6.33368e-14
1.72462e-13
1.58706e-13
2.96292e-13
1.09884e-12
1.70391e-13
1.19731e-13
7.86137e-13
1.95021e-13
9.04101e-13
5.78049e-13
7.86159e-14
2.80338e-13
1.29651e-13
2.36183e-14
5.2268e-13
1.37085e-12
1.50562e-13
2.28953e-13
5.07243e-13
4.89624e-14
1.07431e-13
1.97399e-13
1.79639e-13
4.52202e-14
1.28788e-13
2.34253e-13
2.32611e-15
5.33448e-14
4.08806e-13
1.67523e-13
1.27488e-14
1.40647e-13
1.71856e-13
2.59108e-14
2.51681e-09
2.18592e-09
2.45372e-09
2.34572e-09
1.69561e-09
2.00049e-09
2.63538e-09
1.54254e-09
1.84596e-09
2.91109e-09
2.00633e-09
2.01358e-09
2.26257e-09
2.20035e-09
1.67198e-09
2.19245e-09
2.30983e-09
2.21887e-09
2.23558e-09
1.47022e-09
2.31648e-09
1.68756e-09
2.13849e-09
2.37745e-09
1.95582e-09
2.78149e-09
2.00251e-09