/*--------------------------------*- C++ -*----------------------------------*\
  =========                 |
  \\      /  F ield         | OpenFOAM: The Open Source CFD Toolbox
   \\    /   O peration     | Website:  https://openfoam.org
    \\  /    A nd           | Version:  10
     \\/     M anipulation  |
\*---------------------------------------------------------------------------*/
FoamFile
{
    format      ascii;
    class       surfaceScalarField;
    location    "18";
    object      phi;
}
// * * * * * * * * * * * * * * * * * * * * * * * * * * * * * * * * * * * * * //

dimensions      [0 3 -1 0 0 0 0];

internalField   nonuniform List<scalar> 
74080
(
0.00511427
4.64222e-05
-0.000139926
0.00511522
0.000171868
-0.000171357
0.00522142
0.000243983
-0.000171381
0.005336
0.000160942
-0.000117075
0.00537659
2.90254e-05
-9.77802e-06
0.00533204
-0.000130112
0.00013032
0.00521639
-0.000232195
0.000245642
0.00513844
-0.000243002
0.00028736
0.00512195
-0.000201674
0.000229411
0.00515559
-0.000104309
0.000102016
0.00523724
-3.02944e-05
-1.54029e-05
0.00534362
-1.28193e-05
-8.7137e-05
0.00549095
-5.36359e-06
-0.000134399
0.00562033
2.34663e-05
-0.000179455
0.00566335
9.83327e-05
-0.000200603
0.00564032
0.000174355
-0.000215244
0.00555127
0.000162037
-0.000198569
0.00544486
4.29533e-05
-0.000137901
0.00537566
-7.34864e-05
-0.000108951
0.00535042
-9.21325e-05
-6.38582e-05
0.00534395
4.63913e-05
-3.9945e-05
0.00536616
0.00018737
-5.59838e-05
0.00538966
0.000193741
-5.32106e-05
0.00537043
0.000110612
-0.000100442
0.00535318
-1.9613e-05
-0.000143099
0.00532681
-8.37366e-05
-0.000171508
0.00531993
-7.91277e-05
-0.000175343
0.00536932
-0.000104385
-9.97376e-05
0.00541991
-0.000110638
-3.23563e-05
0.0054899
-0.000146965
6.77513e-05
0.00555676
-0.000179333
0.000203824
0.00557594
-0.000118063
0.000326146
0.00555904
-1.93427e-05
0.000450852
0.0055063
0.000101261
0.000477402
0.00546015
0.000147495
0.000403782
0.00543924
6.21262e-05
0.000286048
0.00541553
-3.88581e-05
0.000131804
0.00538149
-0.000123999
2.22141e-05
0.00528897
-0.000152157
-2.5844e-05
-5.78123e-05
-8.97865e-05
0.00489397
-0.000236107
-6.00853e-06
0.00497123
-9.39862e-07
1.60036e-05
0.00500115
0.000183126
7.08699e-05
0.00490721
0.000193688
8.13065e-05
0.00473447
8.60518e-05
3.72753e-05
0.00453286
-8.89895e-05
6.49024e-06
0.00437791
-0.00021427
6.21653e-05
0.00433915
-0.000285181
0.000252245
0.00441068
-0.000284687
0.000390043
0.0045707
-0.000205582
0.000361547
0.00470877
-0.000101128
0.000176856
0.00476216
-2.85721e-05
-5.08391e-05
0.00480388
-2.34158e-05
-0.00020129
0.00484965
-1.87045e-05
-0.000258251
0.00491094
3.41068e-05
-0.000255589
0.00498455
0.00012299
-0.000273259
0.00501143
0.000198344
-0.000303776
0.00499091
0.000184973
-0.000324123
0.00496745
8.52404e-05
-0.00033362
0.00493565
3.33118e-05
-0.000294498
0.00487653
0.000117767
-0.000227702
0.00485063
0.000110509
-0.000164268
0.00485272
2.11325e-06
-0.000147944
0.00487356
-0.000123395
-0.000196055
0.0049263
-0.00023405
-0.000241215
0.00494472
-0.000186432
-0.000224425
0.00494636
-0.000137226
-0.000114437
0.0049433
-0.000171442
-6.19768e-06
0.00490211
-0.000160506
7.70892e-05
0.00489637
-0.000203276
0.000184723
0.00496361
-0.000255555
0.000269319
0.00508894
-0.000234385
0.000409144
0.00521881
-0.000159691
0.000534617
0.00525817
4.35009e-05
0.000538804
0.00522621
0.000199378
0.000445499
0.00511908
0.000205934
0.000276651
0.00494977
9.10773e-05
0.000161355
0.00482581
-0.000150484
0.000120275
0.00475887
-0.000322916
9.054e-05
-0.000335731
3.38499e-05
0.00431238
-0.000473101
-8.96979e-05
0.00450727
-0.000256338
-0.000169113
0.00463005
-5.38952e-06
-0.00020402
0.00459386
0.00014734
-0.00017261
0.00447885
0.000113592
-3.05304e-05
0.00435918
-2.31717e-05
0.000162105
0.00430552
-0.000150976
0.000266712
0.0043107
-0.000277224
0.000287713
0.00432144
-0.000357655
0.000219647
0.00432356
-0.000336567
0.00014553
0.00429416
-0.000234424
0.000125815
0.00426371
-0.00014921
9.73626e-05
0.00426745
-0.000124116
-2.24639e-05
0.0042872
-9.16884e-05
-0.00018287
0.00433516
-1.6636e-05
-0.000333499
0.00441856
8.23287e-05
-0.000405111
0.00446543
0.000188101
-0.000365715
0.00442841
0.000244256
-0.000330204
0.00434436
0.000197726
-0.000257559
0.00425349
0.000174741
-0.000136224
0.00425166
0.000156248
-4.66267e-05
0.00433884
-2.75e-05
-4.32121e-05
0.00439371
-0.00017585
-0.000114699
0.00439875
-0.00029054
-0.00010799
0.00437901
-0.000323708
-1.08175e-05
0.00439412
-0.000159403
8.16229e-05
0.00448594
-0.000116708
9.77493e-05
0.00456142
-0.000190153
6.00489e-05
0.00452707
-0.000197551
0.000201062
0.00440425
-0.000218223
0.000405245
0.00430126
-0.000235007
0.000471536
0.00436833
-0.000281232
0.000458965
0.00458026
-0.000275327
0.000316232
0.00476467
-4.53661e-06
0.000185218
0.0048382
0.000276119
0.000167053
0.00473208
0.000362289
0.000177003
0.00448231
0.000212405
0.000229922
0.00423054
-0.000127055
0.000246998
0.00407012
-0.00036376
0.000165869
-0.000486964
2.83878e-05
0.00375653
-0.000543481
-0.000220996
0.00406549
-0.000358315
-0.000321077
0.00431148
-0.000114807
-0.000314155
0.00433455
0.000128228
-0.00023598
0.00417833
0.000157884
-4.97722e-05
0.00397983
8.18358e-05
9.8007e-05
0.00387311
-3.5255e-05
0.000173874
0.00387058
-0.000241062
0.000216145
0.00393181
-0.000451787
0.000151577
0.00398328
-0.000506326
0.000156029
0.00400775
-0.00039676
0.000211084
0.00396603
-0.000212965
0.000171528
0.0038716
-6.52864e-05
3.13529e-05
0.00382243
-2.34076e-05
-0.00012645
0.00386149
-4.56046e-05
-0.000284044
0.00397477
-9.82169e-05
-0.000355383
0.00406921
-6.25647e-05
-0.000417509
0.00407559
9.8918e-05
-0.000455523
0.00402887
0.000202077
-0.000309658
0.00395409
0.000247162
-0.000100758
0.00392264
0.000136591
7.26795e-05
0.0038855
-8.92836e-05
0.000111478
0.00383499
-0.000191677
9.64027e-05
0.00385852
-0.00030644
0.000109712
0.00392046
-0.000296619
9.54663e-05
0.00396354
-8.97349e-05
9.9359e-05
0.00391866
-6.20354e-05
8.96923e-05
0.00384315
-0.00019893
0.000131881
0.00386533
-0.000293275
0.000289513
0.00394636
-0.000301677
0.000360331
0.00403595
-0.00021012
0.000269834
0.00410498
-0.000156628
0.00015108
0.00412293
-8.27923e-05
8.93966e-05
0.00416525
0.000165701
0.000163013
0.00425655
0.000288717
0.000276532
0.00420718
0.000246555
0.000262859
0.00394325
0.000104833
0.00016578
0.00360907
-0.000133546
7.6041e-05
0.00343459
-0.000334556
-2.15399e-05
-0.000524179
-0.000115358
0.00329158
-0.00051397
-0.00050213
0.00336747
-0.000366939
-0.000324398
0.00352633
-0.000227818
-9.57698e-05
0.00359979
-1.88011e-05
4.15403e-05
0.00352187
7.25864e-05
0.000213128
0.00344711
8.13165e-05
0.00026661
0.00348747
-2.18033e-05
0.000154122
0.00364522
-0.000234041
-9.36362e-05
0.00378156
-0.000411189
-0.000320602
0.00370606
-0.00039014
-0.000229203
0.00348807
-0.000277124
-1.52559e-05
0.00328267
-0.000167257
3.94912e-05
0.00324275
-0.000113373
-3.0673e-05
0.00337864
-0.000141837
-0.000133214
0.00354159
-0.000121799
-0.000259287
0.00360458
-0.000136808
-0.0002901
0.00352399
-9.05904e-05
-0.000311972
0.00343797
3.17454e-05
-0.000225838
0.00346799
7.28474e-05
-3.75525e-05
0.00353669
0.000133289
9.49594e-05
0.0035264
7.34011e-05
0.000224656
0.00340665
-4.86265e-05
0.000323794
0.0033229
-0.000125091
0.000333529
0.00334127
-0.000286762
7.7929e-05
0.00340807
-0.000289905
-0.000246009
0.00343961
-0.000101162
-0.000321136
0.00333931
-3.74576e-05
-0.000113452
0.00327
-0.000130622
0.000243151
0.00336763
-0.000261281
0.00039821
0.00349083
-0.00033497
0.000171197
0.00350719
-0.000247584
-0.00011968
0.00345152
-0.000159096
-0.000187882
0.00345853
-7.28093e-06
-3.35726e-05
0.00357684
0.000239213
0.00010149
0.00358221
0.000326005
5.92538e-05
0.00334971
0.000267582
7.86142e-05
0.0031076
5.37586e-05
0.00021524
0.00304558
-0.000233358
0.000232296
0.00315469
-0.000465091
-1.58272e-05
-0.000594817
-0.000383657
0.00299546
-0.000361315
-0.00025889
0.00300835
-0.000146168
-0.000209241
0.00300143
-6.27132e-05
-0.000110305
0.00305369
-3.37251e-05
7.42954e-05
0.00317516
-1.29572e-05
0.000241689
0.00327644
1.8771e-05
0.000192046
0.00324128
-2.26903e-05
2.91745e-05
0.0032143
-0.000116502
-0.000260111
0.00328691
-0.000184542
-0.00042211
0.00328267
-0.000146739
-0.000247607
0.00317663
-0.000139093
-6.55429e-05
0.0030836
-0.000124079
-4.53969e-05
0.0031053
-0.000121629
-9.28639e-05
0.00314904
-9.86516e-05
-0.000124574
0.00312533
4.04815e-05
-0.000195061
0.00306534
2.77357e-05
-0.000140306
0.00298591
1.68725e-05
7.34949e-05
0.00298318
8.4637e-07
0.000297461
0.0030886
-0.000140166
0.000387455
0.00316196
-8.22959e-05
0.000454768
0.00309641
5.56207e-05
0.000442532
0.00295978
8.81637e-05
0.000341694
0.00289619
-7.00601e-05
0.000214132
0.00293657
-0.000405455
-6.58958e-06
0.00303887
-0.000433304
-0.000171305
0.00310345
-0.000166077
-0.00019119
0.00306695
-1.04164e-05
-5.16812e-06
0.00304643
-2.84028e-05
0.000227939
0.00310016
-0.000147171
0.000171047
0.00310236
-0.000203528
-7.23795e-05
0.00303999
-0.000110957
-0.000222593
0.00306226
-0.000165474
-0.00023791
0.00328514
-0.000189518
-0.000134718
0.00352457
7.83884e-05
-5.06072e-05
0.00346468
0.000377359
-2.41689e-05
0.00318249
0.000464027
6.84206e-05
0.00291622
0.000219917
4.77326e-05
0.00273461
-4.68454e-05
-0.000124601
0.00277531
-0.000330658
-0.000247656
-0.000521106
-0.000278797
0.00290755
-0.000261447
-1.17626e-06
0.00293287
-3.34284e-08
-2.3626e-05
0.00281654
1.28953e-05
3.79017e-05
0.00282026
-9.51549e-05
0.000184348
0.00298931
-0.000155276
0.000295433
0.00308878
-0.000132002
0.000232763
0.00293549
-0.000103512
0.000145645
0.00272823
-8.39182e-05
-0.000168207
0.00263892
-4.48302e-05
-0.000295556
0.00266167
-7.66764e-06
-1.79573e-05
0.00279223
-4.61592e-05
5.82431e-05
0.00284099
-3.31856e-05
-0.000110219
0.00271955
-0.000104246
-0.000207962
0.0025464
-0.00010064
-0.000149488
0.0025161
9.69228e-05
-0.000118935
0.00265591
4.6029e-05
-2.74033e-05
0.00274909
-2.45929e-05
0.000143367
0.00271299
-7.07423e-05
0.000250752
0.00266426
-0.000216351
0.000297517
0.00264255
-0.000112269
0.000267417
0.00261836
0.000103278
-1.37014e-05
0.00262456
0.000112793
-0.000197706
0.00266039
-6.88781e-05
-0.000142979
0.00271469
-0.000281563
-0.000167383
0.00280953
-0.000296125
-0.00024622
0.00281739
-0.000111855
-0.0002723
0.00277435
-1.53728e-05
-4.91381e-05
0.00281469
-1.9716e-05
0.00018461
0.00288099
-5.65784e-05
7.47198e-05
0.00284896
-9.36305e-05
-0.00011454
0.00266515
5.52546e-05
-0.000258557
0.00248002
3.41022e-05
-0.000240908
0.00254866
-9.07165e-05
-0.00013228
0.00296337
-5.56268e-05
-0.000149367
0.00336192
0.000200819
-0.000148899
0.0034288
0.000476096
1.68712e-05
0.00313987
0.000358057
3.14367e-06
0.00275014
0.000157291
-0.000177813
0.00265837
-0.000201919
-0.000188359
-0.000471043
-5.19028e-05
0.00260484
-0.000306931
5.47383e-05
0.00272163
-0.000157551
0.000269882
0.00269682
-0.000163841
0.000423836
0.00266637
-0.000217406
0.000446777
0.00272579
-0.000201928
0.000194741
0.0028395
-0.000162491
-0.000104687
0.00275635
-9.61576e-05
-0.000124059
0.00252993
-2.80659e-05
-0.000189603
0.00241961
-7.15307e-05
-6.69613e-05
0.00237539
-8.51071e-05
0.000184303
0.00238639
-4.48165e-05
0.000159714
0.00248362
-6.55828e-05
-4.26495e-05
0.00259603
-0.000297569
-0.000189855
0.00264137
-0.000267788
-0.000193338
0.00262435
0.000130424
-5.6888e-05
0.00269575
4.23578e-05
0.000114255
0.00271837
-0.000139177
0.000202121
0.00254449
-0.000135944
0.000154214
0.00237495
-0.000206258
4.73518e-05
0.00235226
1.07872e-05
-3.88508e-06
0.00243505
0.000183861
-7.35455e-05
0.00260524
-2.58135e-05
-0.000125989
0.00268407
-8.86073e-05
-0.000167175
0.00261467
-0.000179297
-0.000145761
0.00260103
-0.000192721
-0.000238143
0.00266633
-2.87979e-05
-0.000211613
0.0026418
3.52403e-05
5.06839e-06
0.0025107
5.92203e-05
-7.99001e-05
0.00238804
7.04054e-05
-0.000284721
0.00239046
3.40457e-05
-0.000263107
0.00249043
7.66471e-05
-0.000100107
0.00252442
1.97787e-05
0.000184367
0.00252544
-5.10548e-05
0.000280304
0.00269345
-2.64562e-05
-6.18765e-05
0.00298391
6.43294e-05
-0.000194967
0.00304372
0.000323669
0.0001028
0.00276824
0.00040528
0.000156832
0.00249981
0.000230536
-1.49567e-05
0.00242876
-0.000138798
-0.000196787
-0.000381702
-0.000202461
0.00230921
-0.000433879
9.3937e-05
0.00229143
-0.00025804
0.000304016
0.00229173
-0.000269929
0.000499856
0.00228416
-0.000267791
0.000474061
0.00216975
-0.000179207
0.000206642
0.00205046
-0.000150363
-4.74004e-05
0.00201497
-0.000145154
-8.73058e-05
0.00206689
1.38726e-05
-0.000110592
0.00211887
1.58906e-06
-2.61901e-05
0.00206357
-1.07267e-07
3.69506e-05
0.00201584
1.61159e-05
0.000232725
0.00212913
-9.55947e-05
0.000384153
0.00225021
-0.000384091
0.000172548
0.00221772
-0.000354157
-2.86082e-05
0.00217884
0.000123202
-4.32106e-06
0.00227774
-7.27981e-06
0.000143749
0.00236562
-0.000186896
0.000155033
0.00230347
-6.64415e-05
5.72802e-05
0.00230915
-0.00018672
-1.25613e-06
0.00238428
-3.87951e-05
0.000185984
0.00235266
0.000125712
0.000348855
0.00226081
-0.000103871
0.000247852
0.00222074
-0.000107827
0.000158616
0.00223218
-0.000246323
0.000118471
0.00228334
-0.000250675
-1.40835e-05
0.00241882
-8.02294e-05
1.07547e-05
0.00257318
-0.000118871
0.000103559
0.00256904
-4.77684e-07
-4.01399e-05
0.00230305
0.000158042
-8.47408e-05
0.00197454
0.000146831
2.35239e-05
0.00187974
9.76331e-05
0.000114503
0.00196872
3.32276e-05
0.000200172
0.00210489
2.68596e-06
0.000147103
0.00215413
0.000232026
-0.000152228
0.00222109
0.00026538
-5.18086e-05
0.00227109
0.000239798
0.000317283
0.00217728
0.000263038
0.000207035
0.00211257
7.12392e-05
-2.85807e-05
0.0021723
-0.000220535
-0.000210325
-0.000449451
-0.000163453
0.00198243
-0.000390845
0.000110555
0.00207758
-0.000336397
0.000390646
0.0020368
-0.000265156
0.000309975
0.0020608
-0.000196013
6.48465e-05
0.00206297
-0.000129062
-3.03262e-05
0.00197803
-0.000107941
-8.86838e-05
0.00191011
-0.000128568
0.000116388
0.00189356
9.28494e-05
0.000131995
0.00188866
7.56672e-05
1.01441e-05
0.00184665
9.98816e-05
-7.14226e-05
0.00180347
9.2638e-05
9.94076e-05
0.00184215
-9.39838e-05
0.000422125
0.00192097
-0.000416629
0.000180759
0.00199659
-0.00044945
4.25502e-05
0.002067
4.7713e-05
0.000152911
0.00210513
1.68123e-05
9.24687e-05
0.00213877
-8.77215e-05
-1.22103e-05
0.00214309
-5.76929e-05
0.000111146
0.00215297
-0.000241176
0.000296714
0.00218092
-1.40423e-05
0.000308259
0.00215365
0.000189526
0.000123367
0.00214145
-9.64611e-05
-3.93033e-05
0.00213255
-0.000109416
1.40366e-05
0.00198873
-0.00014833
8.59236e-05
0.00191374
-0.000183938
-6.75539e-05
0.00200164
-0.000199069
-8.32083e-05
0.0021005
-0.000273627
5.30408e-06
0.00230695
-0.000107943
-4.04113e-05
0.00241175
0.000177809
-4.96222e-06
0.00225736
0.000246032
6.34195e-05
0.00205404
0.000149577
0.000168531
0.00190278
9.8027e-05
0.000303231
0.00190676
1.9403e-05
0.000349775
0.00195849
9.55738e-05
0.0003361
0.0019529
9.31963e-05
0.00038827
0.00192858
0.000131354
0.000194445
0.00190831
0.000142214
-2.53423e-05
0.0018987
-4.06931e-05
2.72104e-05
0.0018472
-0.00011469
-4.67052e-05
-0.000287458
-0.000133295
0.0018249
-0.000187163
9.51251e-06
0.0020274
-0.000397788
0.000320462
0.00201012
-0.000228022
0.00025487
0.00189681
-0.000107935
0.000106963
0.00176704
-4.50587e-05
-4.74018e-05
0.00171159
-8.45456e-05
-0.000153607
0.00172305
-0.000124732
3.70316e-05
0.00178358
8.6506e-05
-6.94515e-05
0.00184343
4.27314e-05
-7.64127e-05
0.00175337
0.000109381
8.28788e-05
0.00159752
8.63724e-05
0.000263023
0.00157657
-0.000251728
0.000269218
0.0015941
-0.000581968
0.00012388
0.00166843
-0.000555393
0.00020442
0.00182042
-0.000107002
0.000126534
0.00185742
-5.08001e-05
-7.94742e-05
0.00183713
-0.000149509
7.94949e-05
0.00188248
-0.000251152
0.000156898
0.00196187
-0.000429606
7.89951e-05
0.00208942
-9.19885e-05
-2.94752e-05
0.00205654
0.000299374
7.89877e-05
0.00196014
-2.89531e-06
0.000103154
0.001917
-9.25519e-05
-3.90022e-05
0.00176261
-9.61971e-06
-4.66288e-05
0.00164674
4.2474e-05
-0.000132657
0.00182071
-0.000165528
-9.64688e-05
0.00199292
-0.000320847
0.00010102
0.0020788
-8.99131e-05
0.00017258
0.00203561
0.000260374
0.000104248
0.00193344
0.000280027
-5.98849e-05
0.00183621
0.000196225
4.07492e-05
0.00164113
0.000369645
0.000163623
0.00164943
0.000132264
0.000130689
0.00186163
-0.000173274
2.86394e-05
0.0019442
-2.31333e-05
8.06915e-05
0.00181091
0.000265387
0.000194814
0.00174732
4.4923e-05
0.000240059
0.00189303
-0.000361379
0.000124323
0.00196925
-0.000201326
-9.6501e-05
-5.95263e-05
-0.000164021
0.00140956
-0.000220636
6.71614e-05
0.00163891
-0.000483261
6.05549e-05
0.00179307
-0.000293365
2.13708e-05
0.00172779
-0.000229123
-1.55578e-06
0.0014999
-3.51259e-05
-0.000124548
0.00144272
-0.000140173
-0.000135056
0.00146606
-0.000206306
-8.63326e-05
0.00149034
8.38084e-05
-9.96735e-05
0.00153679
-3.85851e-06
5.40929e-06
0.00157587
-5.56211e-05
0.000112292
0.00154032
-0.000100143
0.000341934
0.00150323
-0.00032804
0.000239243
0.00152227
-0.000565358
0.000185262
0.00155929
-0.000503807
0.000259934
0.00153758
0.000109958
3.93678e-05
0.0016002
2.23616e-05
-0.000130175
0.00184204
-0.000328018
-1.29318e-05
0.00175969
-0.000236323
0.000159353
0.00157913
-0.000335195
9.21984e-05
0.00177744
-0.000225061
5.15953e-05
0.00175306
0.000406177
8.13862e-05
0.00164413
0.000169752
9.11386e-05
0.00171184
-7.60912e-05
6.38279e-05
0.00178522
9.01893e-06
-5.071e-05
0.00175229
0.000215295
-7.06594e-05
0.00180719
-6.67658e-05
1.20465e-05
0.00180875
-0.000370138
6.19837e-05
0.00171744
-5.74191e-05
-0.000157386
0.00179173
0.00019788
-0.000121062
0.00185425
8.89401e-05
0.000114787
0.00177945
0.000240099
0.000249076
0.00166326
0.000606117
0.000232533
0.00164011
0.000170949
0.000284981
0.00161763
-0.000140979
0.000282382
0.00164094
1.24005e-05
0.000135382
0.00163995
0.000323074
8.98086e-06
0.00162985
-0.000133641
9.03872e-05
0.00167143
-0.000587753
0.000132768
0.00153254
-0.00010886
4.79797e-05
5.67558e-05
0.000124083
0.0014249
-0.000298168
0.00019988
0.00141212
-0.000408396
4.3729e-05
0.00141291
-0.000273343
-1.30833e-05
0.00135599
-0.000328982
-4.4218e-05
0.00128176
-0.000154363
-0.00025306
0.00129469
-0.000223344
-0.000133196
0.001351
-0.000340361
4.04031e-05
0.0013585
1.37443e-05
-4.12971e-05
0.00130057
-5.21326e-05
1.57215e-05
0.0013223
-0.000157378
6.13868e-05
0.00132305
-0.000226595
0.000241017
0.00115282
-0.000363375
0.00022979
0.0011279
-0.000616618
0.000121001
0.0013639
-0.000540787
0.000160428
0.00156134
0.000213523
9.96974e-05
0.00162533
0.000110937
2.28365e-05
0.00165664
-0.000181028
-1.80704e-05
0.00150515
-0.000131607
0.000229417
0.001432
-0.000322088
0.000210242
0.00162964
-0.000295402
0.000210447
0.00159524
0.000380911
0.000154954
0.00140118
0.000315048
0.000169682
0.0015112
-0.000222264
4.69182e-05
0.00165648
-0.000111062
-4.69432e-05
0.00167905
0.000329156
5.37427e-07
0.00170752
-1.60715e-05
-1.71436e-05
0.00171901
-0.000389202
-0.00015105
0.0016918
-7.76054e-05
-0.000201254
0.0018163
0.000125985
-0.000226867
0.00172924
7.55586e-05
1.29717e-05
0.00152439
0.000396072
0.000156119
0.00153607
0.000604888
5.74665e-05
0.00157507
3.78108e-05
0.000242939
0.00163207
-0.000269393
0.000437831
0.00176766
-0.000166946
0.000262814
0.00181841
8.89568e-05
-1.27064e-05
0.00151568
-0.000113328
8.19504e-05
0.00128486
-0.00038048
0.000229106
0.00136782
-0.000178519
0.000108737
-0.000233669
0.000161327
0.00115478
-0.000148262
0.000126417
0.00112222
-0.000271799
9.35106e-05
0.00106321
-0.000171203
0.000153261
0.00105833
-0.000192532
-7.60878e-05
0.00112126
-0.000151603
-4.98333e-05
0.00107369
-0.000159819
0.000122172
0.00117138
-0.00035543
0.000105876
0.00130441
-0.000136887
4.82943e-05
0.00122067
-0.000157371
9.27685e-05
0.00117097
-0.000227746
2.543e-05
0.00112117
-0.00018047
9.19358e-05
0.000980527
-0.000210116
8.80557e-05
0.000954311
-0.000506889
-5.43449e-05
0.00125151
-0.000570736
-9.08966e-06
0.00152351
5.26854e-05
0.000100901
0.0013491
0.000121892
0.000164524
0.00117853
2.52964e-05
3.09485e-05
0.00123487
-4.60747e-05
0.000250768
0.00119862
-0.000241611
0.000186827
0.00122893
-0.000208673
0.000137272
0.00132571
0.00027061
0.000363638
0.00136077
0.000232914
0.000125915
0.00139392
-0.00028884
-0.000164033
0.00128105
4.84498e-05
-5.77612e-06
0.00134924
0.000232233
7.0124e-05
0.00132413
-0.000124256
0.000119193
0.00121638
-0.000224506
-6.30633e-05
0.00137731
-0.000122479
-9.41485e-05
0.00157191
-0.000100188
-0.000247172
0.00154153
-7.8105e-07
-0.000136965
0.00151786
0.000319191
0.000119751
0.00155683
0.000491541
0.000149731
0.00154804
-2.59939e-06
0.000175882
0.00156261
-0.000286361
0.000245565
0.00153306
-0.000255592
0.00025579
0.00134785
-2.96991e-06
3.14296e-05
0.00104316
-0.00010709
0.000177958
0.00107389
-0.000574684
0.000292976
0.00134305
-0.000489119
7.66178e-06
-0.000276269
0.000167302
0.000882509
-9.59285e-05
-8.05432e-06
0.00101451
-0.000325972
0.00016224
0.0010104
-0.000136372
-5.21565e-05
0.0010097
-9.30288e-05
-0.000189546
0.00113327
-0.000252188
0.000188646
0.00106227
-0.000135144
0.000143801
0.00109822
-0.00030508
-2.00602e-05
0.00116508
-0.000118297
9.05996e-05
0.00106733
-8.06681e-05
7.019e-05
0.00100814
-0.000264882
0.000108196
0.000893623
-8.65321e-05
0.000108212
0.000811557
-3.40698e-05
0.000116974
0.000836328
-0.000463811
0.000171971
0.00105184
-0.000710546
0.00011358
0.00120055
-9.94721e-06
6.44008e-05
0.00108841
0.000258743
0.000106312
0.000997088
0.000180114
8.59499e-05
0.000970949
0.000112459
9.68868e-05
0.000969223
-0.000319631
4.79439e-05
0.00105856
-0.000234806
-8.10174e-05
0.00119823
0.000317009
7.75104e-05
0.00127937
-1.29002e-05
0.000100364
0.00124988
-0.000345837
3.96738e-05
0.00127217
0.000107821
-0.000141236
0.00141368
4.54531e-05
-0.000102435
0.00136944
-0.000156147
-3.9882e-05
0.00134142
-0.000247573
-3.2546e-05
0.00135396
-0.000164932
-0.000175517
0.00125076
-1.57929e-05
-0.000232385
0.00126275
0.000186949
-6.57676e-05
0.00135448
0.000381293
0.000112324
0.00135379
0.000497008
0.000176936
0.00143403
-5.22116e-05
9.73449e-05
0.00153632
-0.000412962
0.000254348
0.00150436
-0.000327697
0.000181751
0.00119496
0.000152899
-4.11957e-05
0.000845041
-2.8783e-06
0.00032412
0.000924768
-0.000744143
0.00032706
0.00106043
-0.000468916
-2.29705e-05
-2.41428e-05
5.96935e-05
0.000968528
-0.000134892
9.59482e-05
0.00114109
-0.000294085
8.66879e-05
0.00101541
-4.21412e-05
-0.000138392
0.000955676
-0.000190792
5.61859e-05
0.0010957
-0.000352558
0.000187899
0.000986314
5.68275e-05
-6.09442e-05
0.000992936
-0.000267918
-0.000117112
0.00109706
-0.000135461
0.000148282
0.00100694
0.000113961
0.000163922
0.000943726
-0.000287016
9.59073e-05
0.000865769
-0.000134446
0.000147744
0.000900128
1.47496e-06
0.000323708
0.000938638
-0.000477942
0.000277117
0.000831571
-0.000684553
0.000131896
0.000720209
9.10308e-05
-4.6226e-05
0.000770369
0.00018403
7.20254e-05
0.000859111
0.000161913
0.000176871
0.00088783
0.000107351
0.00014619
0.000996744
-0.00047542
0.000111382
0.000971166
-0.000297965
0.000117831
0.00101963
0.000292676
6.30562e-05
0.00116969
-7.14936e-05
5.38846e-05
0.00118182
-0.000428856
0.000180394
0.0011833
-3.73408e-05
1.45182e-05
0.00116753
0.000170142
-2.61943e-05
0.00111919
-6.54401e-05
-8.99813e-05
0.0011364
-0.000278575
-1.65175e-05
0.00108487
-2.90918e-05
-0.000234618
0.00103909
0.00026528
-0.000257072
0.00109218
0.000514757
-0.000178839
0.00119963
0.000497595
-7.20201e-05
0.00124157
0.000366327
-5.57669e-05
0.0012582
-0.000145189
0.000137195
0.00127986
-0.000416509
0.000298027
0.00119712
-0.000236843
0.000132658
0.00109384
0.000249123
3.50279e-05
0.000936268
0.000124341
0.000180788
0.000824982
-0.000574434
0.000145314
0.000925199
-0.000457809
0.000109247
1.23951e-05
3.12754e-05
0.000818299
-0.000146008
7.52881e-05
0.000925044
-0.00012851
-6.0317e-05
0.000941661
2.46705e-05
3.70093e-05
0.000907072
-0.00026842
0.00024802
0.000843552
-0.000238503
0.000124754
0.00074824
9.79048e-05
-7.61096e-05
0.000836821
-0.000390915
-0.000112695
0.00097147
-0.000121575
-2.66881e-05
0.000897848
0.000213602
0.000182715
0.000866063
-0.000319087
-1.73688e-06
0.000826454
-0.000149639
0.000114708
0.000870873
-0.000110725
0.000277688
0.000882831
-0.000468429
0.000159615
0.000711024
-0.000366097
8.91819e-05
0.000573142
0.000247578
-3.1181e-05
0.000736886
-5.56322e-05
9.83056e-06
0.000953813
-8.40649e-05
0.000278799
0.000899804
6.08254e-06
0.000282977
0.000875006
-0.000435242
4.00298e-05
0.000970295
-0.000337562
8.51277e-05
0.0010428
0.000218237
3.50662e-05
0.00110891
8.5565e-06
-2.98473e-05
0.00113513
-0.000447557
-3.71337e-06
0.00119219
-0.000108431
-4.95136e-05
0.00113252
0.000320032
-7.9458e-05
0.000953683
-7.86184e-05
7.2966e-05
0.000955667
-0.000321155
-8.87849e-05
0.00101354
-5.6546e-05
-0.000250686
0.000917069
0.000449737
-0.000115381
0.000957108
0.000608915
-7.88708e-05
0.00114816
0.000251299
-9.19234e-05
0.00115018
0.000146341
5.17399e-05
0.00101419
-0.000124324
0.000271806
0.000902063
-0.000217967
0.000158377
0.000895248
-0.000109433
0.00018201
0.000991138
0.000288644
4.06673e-05
0.000904655
0.000208106
-6.54674e-05
0.000759206
-0.000492763
0.000119453
0.000804186
-0.000408147
0.000168459
3.97849e-05
7.65618e-05
0.000653239
-0.000132472
0.000129054
0.000708012
-2.55467e-05
3.6783e-05
0.000789087
-2.75101e-05
1.31053e-05
0.000791895
-0.00031113
0.000147347
0.000719807
-6.32482e-05
0.000107274
0.000667967
7.91315e-05
7.83826e-05
0.000706832
-0.000453938
3.42394e-05
0.000882522
-0.000148213
-3.17394e-05
0.000888028
0.000142098
0.000132355
0.000790616
-0.00022442
0.000111025
0.000803072
-8.37546e-05
0.000177896
0.000802257
-0.000278592
0.000250903
0.000739146
-0.000450842
0.000146664
0.0006806
-9.93027e-05
-4.49516e-05
0.000673407
0.000150994
-1.99815e-06
0.000730991
-0.000165388
4.85838e-05
0.000779606
-0.000170575
0.000286541
0.000752361
-0.000137081
0.000114868
0.000718447
-0.000333668
-9.88017e-05
0.000793056
-0.000191683
-1.80556e-05
0.000964574
0.000141501
-0.000143417
0.00105271
-1.76504e-05
-6.72458e-05
0.00100315
-0.000433389
4.57768e-05
0.0010175
-7.75495e-05
-0.000105897
0.0010359
0.000453833
-4.67902e-05
0.000954332
-7.31777e-05
6.34239e-05
0.000946721
-0.000370575
1.64376e-06
0.000909181
-6.15551e-05
-0.000123416
0.000810896
0.00051718
-0.000114108
0.000864026
0.000452537
3.33165e-05
0.000956129
8.66156e-05
-8.29048e-06
0.00094096
3.93305e-05
0.000251152
0.000800077
-0.000108701
0.000341332
0.000688227
-0.000217729
0.000143686
0.00078936
-0.000168688
0.000107118
0.000950965
0.000183557
-2.72848e-05
0.000775295
0.000241307
-9.65865e-06
0.000591441
-0.000418451
0.000239964
0.000649502
-0.000261055
0.000166997
7.94286e-05
-1.07968e-05
0.000606613
-0.00017872
9.22635e-05
0.000672715
-3.91959e-05
4.32474e-05
0.000690698
-0.000147785
1.91629e-05
0.000657571
-0.000280792
7.11712e-05
0.000702617
4.89216e-05
8.56087e-05
0.000709238
6.94452e-05
7.25841e-05
0.000661658
-0.000345277
1.43905e-05
0.000798759
-0.000138453
6.57926e-05
0.000798678
0.000195323
6.86901e-05
0.000700491
-9.54605e-05
7.97011e-05
0.000744155
-5.80968e-05
5.58275e-05
0.000597461
-0.000268496
0.000160431
0.000514765
-0.000417673
0.000123128
0.000611312
-8.62296e-05
1.11014e-05
0.000646269
4.03135e-05
2.07328e-05
0.000649346
-0.000196935
8.06975e-05
0.000698487
-0.000181999
0.000169888
0.000732429
-0.000153174
4.33566e-05
0.000642469
-0.000153472
-5.87851e-05
0.000591439
-7.93639e-05
6.36238e-06
0.00077472
8.2301e-05
-0.00019079
0.000907136
-0.000105384
-0.000118435
0.00088018
-0.00043279
9.12478e-05
0.000893093
9.71264e-05
-6.45981e-05
0.000859676
0.000706371
-1.48787e-06
0.000790359
5.93478e-05
-4.02441e-05
0.000794754
-0.000391483
-9.0271e-05
0.000798583
-7.35398e-05
-0.000106532
0.000771384
0.000602944
-0.000139472
0.000789987
0.000450068
2.82491e-05
0.000751193
0.00016865
5.51084e-05
0.000722495
4.29491e-05
0.000260645
0.000732008
-0.000184765
0.000236172
0.000689161
-0.000225473
0.000126373
0.000711681
-0.000191802
0.000136862
0.000732246
2.0918e-05
0.000148878
0.000528781
0.00031511
9.86755e-05
0.000403216
-0.000288773
0.00019491
0.000481086
-4.54786e-05
0.000105887
0.000121512
3.4867e-05
0.000565513
-0.000155009
-6.79221e-05
0.00063291
-3.41258e-05
5.37692e-05
0.000581379
-0.000143153
6.02612e-05
0.00055894
-0.00025556
8.21883e-05
0.000619865
8.23203e-05
8.78807e-05
0.000589938
6.04457e-05
5.86375e-05
0.000568729
-0.000278562
-3.42127e-05
0.000716582
-4.46479e-05
1.75924e-05
0.000773513
0.000201599
7.03561e-05
0.000751738
-9.10481e-05
8.51619e-05
0.000726866
2.38533e-05
-5.5755e-06
0.000519496
-0.00011403
1.20674e-05
0.000466536
-0.000396427
8.16829e-05
0.000578917
-0.000262114
0.000216706
0.00063849
-7.96969e-05
0.000162469
0.000626724
-0.000191707
8.86791e-05
0.000632158
-0.000178311
0.000135684
0.000654428
-0.000141369
6.92726e-05
0.000593078
-2.84653e-05
1.92039e-05
0.000560484
-8.06864e-05
4.59323e-05
0.000693351
-2.43484e-05
-6.36538e-05
0.000690105
-5.74378e-05
5.38439e-05
0.00064269
-0.000335331
7.42895e-05
0.000735598
0.000194921
-1.12199e-05
0.00073925
0.000869975
-6.66323e-05
0.000646483
0.000126942
2.01393e-07
0.00061335
-0.000460243
-1.46363e-05
0.000641902
-0.000133761
-0.000165221
0.000689344
0.000627588
-0.000187329
0.000724462
0.000538223
-7.38922e-05
0.000679422
0.000273032
7.61036e-05
0.000601347
0.000100666
0.000211423
0.000573791
-0.000221093
0.00011595
0.000583624
-0.000239157
8.92714e-05
0.000566307
-0.000233146
0.000217452
0.00052986
-7.41625e-06
6.48488e-05
0.000442289
0.000254068
0.000152066
0.000350172
-0.000251732
0.000133356
0.000440434
5.45217e-05
6.5114e-05
0.000103344
4.67621e-05
0.000498012
-0.000146185
-7.04797e-05
0.000591716
-3.53068e-05
7.23e-05
0.000496217
-5.46155e-05
-1.34765e-05
0.000429103
-0.000178069
4.5311e-05
0.000507311
7.8343e-05
6.84841e-05
0.000523731
2.27069e-05
1.73543e-05
0.000537719
-0.000322746
5.39725e-05
0.000697191
-4.04105e-05
-9.08034e-07
0.000717139
0.00017259
7.44025e-05
0.000641609
-5.05769e-05
9.29308e-05
0.000590438
0.000156824
-2.14192e-05
0.000498855
-6.02885e-05
-6.27837e-05
0.000493924
-0.00043563
6.65387e-05
0.0005512
-0.000375982
0.000188238
0.000567889
-0.000151733
0.00017985
0.000583322
-0.000196886
0.000111745
0.000589377
-0.000207788
0.000114456
0.000575784
-0.0001594
6.24534e-05
0.000517266
0.000122808
9.81737e-05
0.000577042
-7.28216e-05
7.62297e-05
0.000734336
-0.000197822