/*--------------------------------*- C++ -*----------------------------------*\
  =========                 |
  \\      /  F ield         | OpenFOAM: The Open Source CFD Toolbox
   \\    /   O peration     | Website:  https://openfoam.org
    \\  /    A nd           | Version:  10
     \\/     M anipulation  |
\*---------------------------------------------------------------------------*/
FoamFile
{
    format      ascii;
    class       volScalarField;
    location    "18";
    object      pMean;
}
// * * * * * * * * * * * * * * * * * * * * * * * * * * * * * * * * * * * * * //

dimensions      [0 2 -2 0 0 0 0];

internalField   nonuniform List<scalar> 
25600
(
0.00359945
0.00263688
-0.00277536
0.0109124
0.00504272
-0.00191518
0.00726487
0.00431613
0.00548672
0.00531309
0.00353643
0.00569461
-0.0025568
0.00197115
0.00298611
0.00040838
0.0070898
0.00104157
0.00222103
0.00643777
0.000327517
0.00295962
0.0081696
0.00345239
0.00396239
0.00724689
-0.000119348
0.00336084
0.00307956
-0.00665306
0.00412398
0.00734537
0.000151
0.00509869
0.00623671
0.00478643
0.00480751
0.00581788
0.00445328
-0.00241579
0.00369589
0.000448277
-0.00100157
0.00887685
0.00103333
-0.00285418
0.00528764
0.00105748
0.000564432
0.000651259
-0.00243095
0.000322624
-0.00128038
0.00359729
0.00348891
-0.000634991
0.002912
-0.00333456
0.00035432
0.00808913
0.00284551
0.00337138
0.00746337
0.00205724
-0.00120383
0.00418049
0.000689761
0.00163528
0.00191787
-0.00554202
0.00628799
0.00781105
0.00233058
0.0111358
0.0052122
0.0009807
0.00446315
0.000125707
-0.00352342
-0.00304003
0.011045
0.00455082
0.00385411
0.00580462
0.00133647
0.00318059
0.00956253
0.00753228
0.00662308
0.00676803
0.00240936
0.00303382
0.00319726
0.000957751
0.000794796
0.00285053
0.0057354
0.00235027
0.00522021
0.00856059
0.00385718
0.00422919
0.00822431
0.00597073
0.00210315
0.00738619
0.00518061
9.28071e-08
-0.00192135
-0.00627827
0.000714672
-0.000957146
7.87003e-05
0.0126072
0.0038407
0.00190012
0.00821877
-0.000191538
-0.00471682
0.00507349
0.0088961
0.00128745
-2.26481e-06
-0.00219509
-0.00495645
-0.0026456
0.0025658
0.00583161
0.00848247
0.00951265
0.0050796
0.00694601
0.00628267
-0.00336533
-0.00152888
0.00237178
0.00227288
0.00438643
0.00770344
0.00878943
0.00497392
0.000452523
-0.000201587
-0.000338412
-0.00308048
0.00428899
0.00620013
-0.000370903
-0.00169174
-0.00224387
0.00229081
0.00167964
0.00526158
0.0105232
-0.001006
0.00102155
0.00711412
-0.000884803
-5.30473e-05
0.00955948
0.00763918
-0.000724371
-0.00510847
-0.0069847
-0.00646174
-0.00448964
6.439e-05
0.00758419
0.011462
0.00725285
-0.00344823
-0.000757606
0.000613687
-0.00695257
0.000965817
0.00649157
0.00520563
0.0077134
0.00661925
0.00391458
0.00139523
-0.000974271
0.00184038
0.00522734
0.00161449
0.00619986
0.00534429
-0.00465546
-0.00577786
-0.003521
-0.00275606
-0.0050276
0.00107189
0.00508446
-0.00137372
0.0025261
0.00295412
-0.0049217
-0.000742
0.00900721
0.00367169
-0.00576557
-0.00858797
-0.00801271
-0.00601045
-0.00270841
0.00446822
0.0119846
0.0104928
0.0026225
-0.00223206
0.00398473
0.00280362
-0.00417934
0.00295001
0.00528367
0.00400164
0.00812606
0.00621771
0.00130802
-0.00180481
-0.00479745
-0.00144001
0.00142918
-0.00489529
0.000798487
0.00582745
0.00114925
-0.0014843
-0.00142199
-0.00253552
-0.00337124
0.00302381
0.00398735
0.000435054
0.00443198
0.0016524
-0.00465333
0.00251727
0.0094195
0.00376287
-0.0059238
-0.0101932
-0.00741491
-0.00433432
-0.00277645
0.00211609
0.00697658
0.00305491
-0.00711546
-0.00795782
0.00172852
0.00158036
-0.0015517
0.00324522
0.00275809
0.0024946
0.00531431
-2.25348e-05
-0.00627366
-0.00686267
-0.0045916
0.00161165
-0.000127339
-0.00812514
0.00163371
0.00574283
-0.00500111
-0.0081581
-0.0022792
0.000181171
-0.00159933
0.000415569
-4.74229e-05
0.000354915
0.00354905
-0.00235258
-0.00299303
0.0103945
0.0131194
0.00327607
-0.00361193
-0.00784223
-0.00529588
-0.0048178
-0.00257741
0.00429453
0.00997296
0.00575688
-0.00551891
-0.00265526
0.00673338
0.00326
-0.00197613
0.00189549
0.00281635
0.00243367
0.00405047
0.000142123
-0.00453038
-0.00174527
0.00402862
0.00964872
0.0040017
-0.00281032
0.00454037
0.00291949
-0.00511918
-0.00333156
0.00223819
0.000214282
-0.00819566
-0.0065382
-0.00168789
0.00242208
0.00703734
0.00468626
0.00642065
0.0140239
0.0107891
0.00628969
-0.00836758
-0.0122394
-0.00436102
-0.00104019
0.000800475
0.00506266
0.0101275
0.00653173
-0.00614121
-0.00475978
0.0014099
-0.00440003
-0.00574891
-3.68378e-05
-0.000693026
0.00217427
0.00897041
0.00365435
-0.00762368
-0.00593179
0.0023085
0.00946791
0.00519008
0.000923324
0.00688662
0.00154205
-0.0067755
-0.00533804
0.00113637
-0.00136172
-0.0100041
-0.00607512
-0.00103021
0.00340546
0.00609325
-0.00151703
-0.00120608
0.0114378
0.016116
0.00112653
-0.00830065
-0.00173289
0.00607803
-0.000385328
-0.00382628
-0.00239642
0.00426754
0.0036717
-0.00479972
-0.000567851
0.00304578
-0.00461845
-0.00648035
-0.00101883
0.000305673
0.00418153
0.0104785
0.00173514
-0.0100878
-0.00288793
0.00669175
0.00668612
0.00127865
0.000816818
0.00558721
-0.00334101
-0.012228
-0.0127519
-0.00149574
-6.16848e-05
-0.00730585
-0.00111665
0.00265161
0.00694603
0.00955315
0.000769315
-0.000884148
0.00167675
0.00366127
0.00581732
-0.00615527
0.00117262
0.00846096
-0.000404909
-0.00529336
-0.00319266
0.00740881
0.00758446
-0.00128508
0.00216164
0.00497468
0.0020151
-0.00030746
0.00100138
-0.00234225
0.00324164
0.015606
0.00487951
-0.0117781
-0.00344977
0.00767642
0.00691141
0.00168275
0.000688877
0.00225249
-0.00655677
-0.0117199
-0.0110708
0.00245577
0.00375291
-0.00852995
-0.00512333
-0.00237821
0.00375521
0.0089192
0.00231774
0.00112376
-0.000107877
0.005065
0.00452646
-0.00717525
0.00436753
0.0118659
0.00188364
-0.00433547
-0.00376909
0.00568033
0.00425874
-0.00408927
0.00203568
0.00340109
-0.000378067
-0.000817878
1.9977e-05
-0.00534315
0.000366729
0.015239
0.00596136
-0.00762872
0.00268411
0.00982914
0.00658651
0.00100412
0.00159531
0.00365984
-0.00477403
-0.00841451
-0.00402153
0.00651226
0.00111849
-0.012462
-0.00804911
-0.00410235
0.00682333
0.0121985
0.00202849
-0.00150629
-0.00304725
0.00557991
0.00258177
-0.00672062
0.00682756
0.0120151
-0.00122052
-0.00655233
-0.00450815
0.00288924
8.44163e-05
-0.00278132
0.0040375
0.000872819
-0.0022674
0.00266874
0.00126735
-0.00757486
-0.000144044
0.0158847
0.00542073
-0.00895492
-0.000301529
0.00452306
0.00215519
0.000469353
0.00467364
0.0025391
-0.0104902
-0.0125208
-0.00643095
0.00465488
-0.000950795
-0.0116807
-0.0102678
-0.00780761
0.00733028
0.0122832
0.000979209
-0.00183186
-0.0052147
0.00230719
0.00370045
-0.0050566
0.0069709
0.0125774
-0.000754127
-0.00711578
-0.00608205
0.00325186
0.00142712
0.000355409
0.00331147
-0.00250435
0.00134524
0.00766041
0.00172692
-0.00903344
0.000780839
0.0164434
0.0050033
-0.00885511
0.000652862
0.00665213
0.00327426
0.0014825
0.00413312
-0.0024034
-0.0148468
-0.0143541
-0.00582403
0.00604523
0.00040069
-0.00877524
-0.00992779
-0.00772648
0.00932167
0.0125334
0.000388673
-0.00185361
-0.00490446
0.00315335
0.00325363
-0.00590401
0.00440032
0.011146
-0.00263473
-0.00933214
-0.00627079
0.00574538
0.00018923
-0.00387991
-0.00127196
-0.00519076
0.000287857
0.00370555
-0.00302087
-0.0130928
-0.00118078
0.0151803
0.0040679
-0.00777846
0.0025564
0.00681835
0.00125152
-0.000485344
0.00224779
-0.00356174
-0.0152272
-0.0138111
0.000600619
0.0122583
0.00575514
-0.00321018
-0.00634906
-0.00345576
0.0150152
0.01236
-0.00122651
-0.00064223
-0.00433532
0.00261125
0.00363
-0.0075071
0.00178326
0.00973859
-0.00170982
-0.00947645
-0.00612476
0.00665519
0.0013597
-0.00650269
-0.00436551
-0.00632721
-0.00368172
-0.00014989
-0.00783492
-0.0144232
-0.00301276
0.0131995
0.00382393
-0.00573333
0.00474707
0.00629288
-0.000889925
-0.000298219
0.00468135
-0.000552722
-0.0146323
-0.0120857
0.00642785
0.0163629
0.00996271
-0.00279595
-0.00892882
-0.00291528
0.0167639
0.00821904
-0.00361011
0.000324587
-0.00412959
0.00229364
0.00392408
-0.00712158
0.0026128
0.0111559
0.00165663
-0.0078823
-0.00677397
0.00443247
0.000971803
-0.00846766
-0.00506043
-0.00764666
-0.00677201
-0.000459859
-0.0108847
-0.0151004
-0.00121105
0.0167351
0.00621037
-0.0048045
0.00730029
0.00626317
-0.00263421
-0.000525809
0.00777548
0.00259206
-0.0158654
-0.0126062
0.0083668
0.014481
0.00956176
-0.000487979
-0.0103039
-0.00467014
0.0139642
0.00280557
-0.0053601
0.000455651
-0.00479107
0.00142652
0.00215885
-0.0108915
-0.00162135
0.0080782
0.00225365
-0.011008
-0.0122428
-0.00117219
-0.00297121
-0.00939448
-0.00533549
-0.00972737
-0.00629156
0.00136395
-0.0108916
-0.015458
0.00237663
0.021802
0.00847795
-0.00535815
0.0077577
0.00417837
-0.00587493
-0.00360812
0.0107521
0.00315596
-0.0212961
-0.0152163
0.00807372
0.0140138
0.011149
0.0016697
-0.0126284
-0.00729054
0.00887795
0.000370801
-0.00425945
9.66807e-05
-0.00625221
0.00236127
0.00243189
-0.0121579
-0.00695914
0.00409859
0.00118969
-0.0159513
-0.0170281
-0.00529982
-0.00844439
-0.010487
-0.00516804
-0.0101369
-0.00382345
0.00443503
-0.00852338
-0.0160352
0.00327128
0.0241041
0.0084959
-0.00587588
0.00744763
0.0037681
-0.0109573
-0.00839305
0.013894
0.00194322
-0.0286582
-0.0156352
0.00899345
0.0163035
0.0125156
-0.00131658
-0.0175166
-0.0122919
0.00538343
-0.00015922
-0.00410618
0.00068208
-0.00660819
0.0026735
0.00457831
-0.0108874
-0.00883838
0.00583898
0.00385515
-0.0130932
-0.0168796
-0.00769707
-0.0143621
-0.0124175
-0.00498096
-0.0123729
-0.00168899
0.00953904
-0.00753115
-0.0166658
0.00287798
0.0224763
0.00700247
-0.00605788
0.00616788
0.00316517
-0.0169944
-0.0105986
0.0177121
0.000515346
-0.0353961
-0.0151677
0.010964
0.0195652
0.0132666
-0.00251521
-0.0167477
-0.0125836
0.0048393
-0.00157794
-0.00432302
0.0033747
-0.00475286
0.00103033
0.00701657
-0.0102875
-0.00851799
0.00934045
0.00710708
-0.00869739
-0.014629
-0.00815109
-0.0170215
-0.0111149
-0.00389033
-0.0163685
-0.00161942
0.0102262
-0.00932958
-0.0169388
0.00308678
0.0191951
0.00484203
-0.00863974
0.00248191
0.00050614
-0.018303
-0.00816519
0.0205443
-0.00292365
-0.0420926
-0.0151644
0.0143992
0.0224088
0.0143357
-0.00057743
-0.0115866
-0.00764137
0.00688819
-0.000921661
-0.00506664
0.00388051
-0.00369949
-0.0010407
0.011003
-0.0107914
-0.00796519
0.0112285
0.00900511
-0.00926452
-0.0125954
-0.00805093
-0.0176234
-0.00785699
-0.00330037
-0.0228047
-0.00511591
0.00958905
-0.00909273
-0.0176138
0.00338075
0.0188793
0.0029697
-0.0117306
0.00122329
0.00138184
-0.0163857
-0.00463462
0.0203356
-0.00703132
-0.0474758
-0.0162424
0.0164396
0.0212672
0.0131957
0.00364429
-0.00964928
-0.00733379
0.00642479
-0.00144269
-0.00700901
0.00239573
-0.00610024
-0.000461736
0.0156259
-0.0128959
-0.00849131
0.0130048
0.00979295
-0.0110802
-0.0125843
-0.00894331
-0.0180295
-0.00635813
-0.00568128
-0.030107
-0.00883836
0.0120297
-0.00985845
-0.018089
0.00406403
0.0207757
0.00270503
-0.0130164
0.00149466
0.00131209
-0.0185454
-0.00310917
0.0218906
-0.00911056
-0.0526547
-0.0183112
0.0172116
0.0177359
0.0123772
0.0089935
-0.0103124
-0.0105701
0.00374249
-0.00391706
-0.00569615
0.00330124
-0.00965372
0.00199486
0.0165511
-0.0131006
-0.00801817
0.0167535
0.00924478
-0.0115067
-0.0124562
-0.0102067
-0.0193247
-0.00698981
-0.00956219
-0.0352427
-0.00895067
0.0143859
-0.0102418
-0.0173833
0.00526663
0.0222835
0.00345172
-0.0134
0.00116533
-0.000603735
-0.0194335
-0.00277573
0.0258133
-0.0109618
-0.0554764
-0.018717
0.0152041
0.0152357
0.0161496
0.0111173
-0.0118688
-0.013182
0.00345632
-0.00491613
-0.00355449
0.00423913
-0.0111406
0.00382653
0.0141856
-0.0114007
-0.00576242
0.0196335
0.00897928
-0.0123149
-0.013313
-0.0129433
-0.021599
-0.0102179
-0.0143005
-0.037364
-0.00632177
0.0136412
-0.0111121
-0.0182898
0.00523505
0.0228116
0.00293316
-0.0143885
-0.000504454
-0.00210318
-0.0192303
-0.00479458
0.0281909
-0.0136161
-0.0580168
-0.0195709
0.0125229
0.0152327
0.0219929
0.0103961
-0.0135112
-0.0136904
0.00412017
-0.00572281
-0.00430161
0.003336
-0.0119708
0.00335165
0.0146941
-0.0104809
-0.00308437
0.0207605
0.00915807
-0.0127853
-0.0141322
-0.0156764
-0.0247165
-0.0145316
-0.0162228
-0.0347099
-0.00365261
0.0128087
-0.0124242
-0.0200525
0.00368194
0.0241262
0.00280967
-0.0152598
-0.00296236
-0.00195482
-0.0205687
-0.00695797
0.0280641
-0.0138448
-0.0605252
-0.0219854
0.0131969
0.0162146
0.0253876
0.0109374
-0.0138677
-0.0132819
0.00414537
-0.0059434
-0.00531046
0.00277834
-0.0117933
0.00167913
0.0159048
-0.0106292
-0.00307441
0.020652
0.00850484
-0.0131433
-0.0148228
-0.0176983
-0.0268334
-0.0153663
-0.0145559
-0.0314686
-0.00323609
0.0122461
-0.0132071
-0.0211818
0.00106422
0.0232697
0.00264273
-0.0170722
-0.00485731
-0.00242104
-0.0218654
-0.00812324
0.0251496
-0.0130143
-0.0627219
-0.0246217
0.0153971
0.0171338
0.0258823
0.0116645
-0.014301
-0.0138787
0.00406619
-0.0058861
-0.00679414
0.00168491
-0.0120684
6.90004e-05
0.0156676
-0.0105637
-0.00316391
0.0209976
0.00866035
-0.0127904
-0.0142813
-0.0171315
-0.0263795
-0.0125079
-0.0121209
-0.0308727
-0.00339529
0.0131871
-0.0118542
-0.0207301
-0.000378558
0.0210655
0.00227913
-0.0175744
-0.00505817
-0.00306923
-0.0217226
-0.0076088
0.0241716
-0.0110055
-0.0626183
-0.0252257
0.0160234
0.0186768
0.0271064
0.0117494
-0.014203
-0.0133822
0.00457914
-0.00564901
-0.00736713
0.00163121
-0.0129667
3.90137e-06
0.0141973
-0.0117666
-0.00377067
0.0203505
0.00791358
-0.0133159
-0.0141912
-0.01707
-0.0265886
-0.0115105
-0.0127452
-0.0328571
-0.00391055
0.0136257
-0.0111052
-0.0210408
-0.00170119
0.0187309
0.00109339
-0.0178821
-0.00643557
-0.00409247
-0.0218643
-0.00699942
0.0243167
-0.0100534
-0.0622974
-0.0252711
0.0139431
0.0179941
0.0266882
0.0106256
-0.0146077
-0.0134706
0.00429157
-0.00621862
-0.00833921
0.000984749
-0.0142596
-0.000677031
0.0151683
-0.0110778
-0.00290637
0.0211453
0.00872233
-0.0121319
-0.0125429
-0.0154191
-0.025039
-0.0100659
-0.0116337
-0.0323447
-0.00273902
0.0152391
-0.00942469
-0.0203682
-0.00102822
0.0195514
0.00229709
-0.0165514
-0.00563118
-0.00329664
-0.020575
-0.00526639
0.0252163
-0.00854094
-0.0603643
-0.0237831
0.0140986
0.0188077
0.0273972
0.0112495
-0.0135886
-0.0120919
0.00584292
-0.00481174
-0.00717529
0.00194128
-0.0131154
0.000492791
0.0139257
-0.0124667
-0.00418892
0.0199276
0.00750081
-0.0133181
-0.0134231
-0.0162399
-0.0257216
-0.0114289
-0.0126843
-0.0334302
-0.00398672
0.0140139
-0.0103806
-0.0215205
-0.00211918
0.0185316
0.00124129
-0.0177603
-0.00680983
-0.0046907
-0.0219016
-0.00685769
0.0234831
-0.00933121
-0.0607395
-0.0243827
0.0131341
0.0173236
0.0257536
0.0101331
-0.0146872
-0.0128156
0.0052976
-0.00558756
-0.00827351
0.000790582
-0.0142087
-0.000743481
0.0207495
-0.00561408
0.00261614
0.0268144
0.0145334
-0.00636779
-0.00649668
-0.00901776
-0.0184719
-0.0046398
-0.00586379
-0.0264286
0.00262357
0.0206124
-0.0034808
-0.0148868
0.00449268
0.0250458
0.00778055
-0.0111683
-0.000184635
0.00194957
-0.0153035
-0.000243363
0.0303025
-0.00216118
-0.0534098
-0.0172834
0.0198223
0.0237719
0.0323626
0.0169717
-0.00782766
-0.00579024
0.0123545
0.00133483
-0.0014575
0.00763563
-0.00731699
0.00588452
0.00529455
0.00211798
-0.00325755
0.00797578
0.000265069
-0.00524207
0.0063005
0.00531069
0.00745443
0.00735329
0.00518645
0.00643254
8.50646e-05
0.00501432
0.00439396
0.00122447
0.00599193
-0.000871663
0.00111439
0.0058301
0.00015934
0.00321666
0.00826292
0.00385331
0.00511451
0.00806808
0.00193745
0.00591145
0.00385738
-0.00523562
0.00500144
0.0062185
0.000299951
0.00530428
0.006054
0.00471945
0.00464389
0.00706317
0.00534835
-0.00111127
0.00367633
-0.00173269
-0.00173069
0.00658341
-0.00278553
-0.00508717
0.00366636
0.000890813
0.00168149
0.00185051
-0.00149975
0.00111594
0.000571988
0.00499486
0.00477488
0.00151442
0.00428032
-0.00203048
0.000817435
0.00805297
0.00408642
0.00499133
0.00837392
0.00256754
-0.00105594
0.00156328
-0.0011545
0.00147021
0.000442198
-0.0051779
0.00689585
0.00620557
0.00149243
0.0111114
0.00602872
0.00294832
0.00599281
0.00241171
-0.0015212
-0.00130591
0.00618398
0.00103893
0.00253166
0.00409328
-0.00142891
0.000399746
0.00594774
0.00518533
0.0061816
0.00701332
0.00303857
0.00506925
0.00676857
0.00491653
0.00481789
0.00555102
0.00571671
0.00141121
0.00433078
0.00935212
0.0064209
0.00644417
0.00939044
0.00701753
0.00302332
0.00616175
0.00479902
-6.44685e-05
-0.0037988
-0.00609602
0.00100897
-0.00337663
-0.0028812
0.00994224
0.00261177
0.00307232
0.0108404
0.00307586
-0.00079818
0.00473761
0.00408008
-0.00039343
4.08062e-05
-0.0019064
-0.00534269
-0.00374717
0.000842373
0.003681
0.00489081
0.0036781
-0.000780797
0.0032169
0.00437009
-0.00413185
-0.00114735
0.00329696
0.00178921
0.00183713
0.00401678
0.00526805
0.00280266
-0.00030083
-3.82915e-05
0.00115621
-0.00101782
0.0047063
0.00750327
0.000705293
-0.00305284
-0.00392521
-0.00081124
-0.00215349
0.00423639
0.0119005
0.00154141
0.00491743
0.00911133
-0.0025686
-0.00191252
0.00591617
0.00260303
-0.00107411
-0.00283832
-0.00475105
-0.00675643
-0.00596134
-0.00242026
0.00192892
0.0025023
-0.00279992
-0.00910124
-0.000516245
0.00448324
-0.00217186
0.00523138
0.0073973
0.00243194
0.00339519
0.00371346
0.00413081
0.00540499
0.00426521
0.00597546
0.0100175
0.006343
0.00775147
0.00477
-0.00657597
-0.00736168
-0.00346709
-0.00336674
-0.00640557
0.000760799
0.0048832
-0.00111602
0.00587808
0.00678305
-0.00134481
0.00224757
0.00581444
0.00432453
-0.00022157
-0.00318634
-0.00424685
-0.00622091
-0.00426183
-6.62829e-06
0.00338042
-0.000309683
-0.00659322
-0.0071139
0.00181272
0.000253043
-0.005676
0.00376544
0.00556488
0.00188525
0.00420709
0.00244974
-0.00058913
-0.00152555
-0.00391082
3.79916e-05
0.0038564
-0.00256773
0.00229106
0.00600329
-0.000745723
-0.00339342
-0.00421642
-0.00716257
-0.00644577
0.0045654
0.00733579
0.00441928
0.00901464
0.00298332
-0.00370037
0.00240744
0.00607101
0.00387992
-0.00418699
-0.00904864
-0.0070072
-0.00582356
-0.00113293
0.00601287
0.00579793
-0.00260643
-0.0114354
-0.0092787
-0.000180394
0.000577857
-0.000185951
0.00448881
0.00287697
0.00125106
0.00180161
-0.00366085
-0.007318
-0.00523374
-0.00407974
0.002957
0.00411864
-0.00275459
0.00472928
0.00579891
-0.00469656
-0.00762219
-0.00423266
-0.00356186
-0.00369464
0.00230591
0.00185744
0.00289011
0.00788314
0.00100813
-0.00136415
0.0057963
0.00625876
0.0042682
-0.00904154
-0.00838341
-0.000424386
-0.00139926
0.00455415
0.0138138
0.013716
0.00504657
-0.00640337
-0.00486176
0.00349566
-0.000164719
-0.0051233
0.000128608
0.00266142
0.00137588
0.00318796
0.00101174
-0.00149222
0.00158446
0.00606999
0.013802
0.00940863
-0.000190305
0.00623291
0.00400212
-0.00466535
-0.00419095
0.00031315
-0.00121649
-0.00673518
-0.00101515
0.0030326
0.00831162
0.0116838
0.000765026
-0.00208343
0.00372229
0.00697378
0.000646398
-0.0122733
-0.00539907
0.00527453
0.00169701
0.00757871
0.0162056
0.0156331
0.00473289
-0.0101633
-0.0108332
-0.00127845
-0.0005989
0.000826829
0.00461643
-0.000352191
-0.00125677
0.0054145
-7.65077e-05
-0.00715215
0.000917289
0.0101943
0.0141878
0.0039682
-0.00457153
0.00339786
0.00165973
-0.00407843
-0.00357415
0.00125159
-0.00172008
-0.00893849
-0.00152452
0.00161924
0.00638582
0.0097716
-0.00103524
0.0016433
0.0105448
0.010389
0.00572413
-0.0047356
0.00366593
0.00852897
-0.00333148
9.96841e-05
0.00602065
0.00576683
-0.00213176
-0.0130813
-0.00695028
-0.00130003
-0.00734003
-0.00612753
-0.000295589
-0.000531348
0.00209608
0.00946059
0.0030269
-0.00409815
0.00581816
0.0122237
0.00962816
-0.00176606
-0.00414697
0.00647522
0.00399619
-0.00354851
-0.00636839
0.00145942
0.00278575
-0.00402626
0.00239303
0.0053563
0.0108768
0.0131975
0.00115108
0.000806484
0.00391924
0.00727941
0.0134847
-0.00259536
0.00720205
0.0105765
-0.00342344
0.000389936
0.00756264
0.0120215
0.00328618
-0.0121792
-0.00976627
-0.00766449
-0.00837969
-0.00331929
0.0045052
0.00261934
0.00359128
0.0129689
0.00714943
-0.00433949
0.0052676
0.0155316
0.0105165
-0.0013097
-0.000829846
0.00505213
-0.000598231
-0.0077198
-0.00927107
0.00201723
0.00117117
-0.00772439
0.00127922
0.00334344
0.00984871
0.0105696
-0.0034363
-0.00206847
0.00265099
0.0133948
0.00877937
-0.00936091
0.00247606
0.00697268
-0.00348335
-0.000584643
0.00520939
0.0108492
0.00169247
-0.0115942
-0.00733221
-0.00641064
-0.00833
-0.00540664
0.00253965
-0.00224291
-7.63285e-05
0.0115399
0.00784425
-0.00291931
0.00633134
0.0143369
0.00336167
-0.00794785
-0.00179686
0.00676858
0.000305057
-0.00925401
-0.00929282
0.00503724
0.00152476
-0.00787303
0.000834871
0.000542516
0.00912699
0.0102676
-0.00484649
-0.00197588
0.00279652
0.0135813
0.0101497
-0.00755808
0.00350327
0.00758678
-0.00315411
-0.00278556
0.00100216
0.00831288
0.00175712
-0.00691327
-0.00298186
-0.00507101
-0.00837637
-0.00149407
0.00412936
-0.00554625
-0.00151122
0.0163605
0.010085
-0.00632737
0.00321232
0.0116369
-0.000336637
-0.00767197
0.00143758
0.00921737
-0.00190855
-0.0149184
-0.0121115
0.00684168
0.00339818
-0.0067279
-0.0072931
-0.0100818
0.00407083
0.00575867
-0.00722558
-0.00236455
-5.47038e-06
0.0116041
0.0145155
-0.00785072
3.46291e-05
0.00854185
0.000377156
-0.00441309
-0.00318239
0.00729596
0.00309435
-0.00494852
-0.0035079
-0.0055338
-0.00489896
0.00495913
0.00544242
-0.00632784
-0.00391108
0.0135891
0.00555659
-0.00877882
0.00488551
0.0118294
-0.00248918
-0.00710524
0.00430197
0.0102331
-0.00338898
-0.0188986
-0.0150548
0.00652444
0.00377693
-0.0029728
-0.00497096
-0.0103471
0.000871922
0.00167
-0.0081961
-0.0027626
-0.00125732
0.0140362
0.00914015
-0.0136953
-0.00264224
0.0096234
7.77781e-05
-0.00623928
-0.00326346
0.00903743
0.00165513
-0.00742354
-0.000226
0.000124689
0.000300006
0.00803858
0.00435085
-0.00968264
-0.00853113
0.0103307
0.00238161
-0.0101486
0.00520847
0.0100822
-0.0066956
-0.00939315
0.0060318
0.0116045
-0.00538221
-0.022877
-0.0129908
0.00869825
0.00347198
-0.0027402
-0.00493571
-0.00613571
0.00497309
0.00342079
-0.00803603
-0.00422241
-0.00369247
0.0107557
0.00589112
-0.0184343
-0.00631522
0.00958416
0.000557589
-0.00942124
-0.00571777
0.00684284
-0.000510748
-0.00907779
0.00212773
0.00422059
0.00152484
0.00721785
0.00496555
-0.00883836
-0.0105973
0.00787953
-6.66605e-05
-0.0102822
0.00381441
0.0063807
-0.0100802
-0.00927516
0.00914461
0.0136754
-0.00854212
-0.0257968
-0.0111423
0.00791075
0.00385981
-0.00224127
-0.00803111
-0.0062293
0.00831582
0.00467606
-0.00797566
-0.00530925
-0.00530535
0.00897154
0.00669989
-0.0141746
-0.00334879
0.0129499
0.00464124
-0.0109073
-0.00778878
0.0041549
-0.000456457
-0.00909949
0.00492793
0.00561785
5.65586e-05
0.00763211
0.0080317
-0.00955952
-0.0145322
0.007025
-0.000396998
-0.0110546
0.00348988
0.00537176
-0.010422
-0.00635578
0.0126667
0.0148414
-0.0118711
-0.0272476
-0.0098544
0.00671608
0.0041182
-0.00442396
-0.0112954
-0.005258
0.0127508
0.00573431
-0.00753913
-0.00519416
-0.00561657
0.00792167
0.00751961
-0.0134309
-0.00252569
0.014435
0.00433837
-0.0143762
-0.0107712
0.00261772
0.000238172
-0.00783148
0.00468261
0.00183848
-0.00147262
0.00907782
0.00987387
-0.011624
-0.0200938
0.00418505
-0.000674406
-0.0115491
0.00417983
0.00213904
-0.0135456
-0.00423005
0.0168132
0.0162052
-0.0153171
-0.029423
-0.0107728
0.00611035
0.00692679
-0.00597631
-0.0154326
-0.00607166
0.0145224
0.00584569
-0.00729296
-0.00454254
-0.00716751
0.00577406
0.00922852
-0.0140175
-0.00289083
0.0172337
0.00431591
-0.0170559
-0.0091211
0.00620524
0.000267032
-0.00604655
0.00247448
0.000744142
0.00123512
0.0126578
0.0129019
-0.0108449
-0.0253361
0.00248011
0.00113261
-0.0114548
0.00343989
-0.00162102
-0.0161127
-0.000637873
0.0229584
0.0188142
-0.0185444
-0.0317
-0.0131986
0.00404212
0.00870618
-0.00918571
-0.020982
-0.00780057
0.0150364
0.0062999
-0.00671726
-0.00410098
-0.008711
0.00475829
0.00956772
-0.0141769
-0.0042684
0.018699
0.00445718
-0.0190315
-0.00792042
0.00863889
-5.54902e-05
-0.00456027
0.00136924
0.000759618
0.0030581
0.0159349
0.015012
-0.01118
-0.0298888
-0.000364409
0.000757527
-0.0118443
0.00166059
-0.00694878
-0.0187763
0.00270862
0.0283493
0.0219612
-0.0212319
-0.0357729
-0.0163104
0.00218017
0.00924526
-0.0111217
-0.0237969
-0.00869989
0.0158059
0.00641791
-0.00747335
-0.00402233
-0.00934875
0.00333762
0.00864608
-0.0150683
-0.00608587
0.0180256
0.00317614
-0.0218857
-0.00878767
0.00933412
0.000508972
-0.00359946
0.000445698
-0.000437219
0.0029382
0.0181789
0.0175137
-0.0135957
-0.0338115
-0.00480084
-0.0017649
-0.0136944
-0.000634742
-0.0115829
-0.0190973
0.00320855
0.0295684
0.0258086
-0.023601
-0.0411358
-0.0224979
0.00255106
0.0126175
-0.0116071
-0.0252151
-0.00776535
0.017673
0.0065474
-0.010788
-0.00510797
-0.00944071
0.00213266
0.00874752
-0.0153233
-0.00794904
0.0169787
0.00190223
-0.0247056
-0.00994971
0.00789575
0.000953091
-0.00168645
0.00292934
-0.000470127
0.00334706
0.0213453
0.021221
-0.0140203
-0.0321806
-0.00489882
-0.00138752
-0.0137614
-0.00112742
-0.0126383
-0.0184999
0.00164729
0.0313209
0.0289525
-0.0269172
-0.0449016
-0.0273313
0.00178687
0.0158763
-0.0106061
-0.0266863
-0.00760817
0.0193594
0.0060402
-0.0141757
-0.00612415
-0.00995246
0.000869806
0.01017
-0.0171839
-0.0120111
0.0150612
0.000100417
-0.0257301
-0.0101679
0.00439188
0.000288645
-0.000326887
0.00480653
-0.0002674
0.00357399
0.0227864
0.0214724
-0.01556
-0.0291112
-0.00150499
0.00111363
-0.0138646
-0.00102392
-0.0121486
-0.0193674
0.00149955
0.036257
0.0300549
-0.0320016
-0.047257
-0.0291099
-0.0024139
0.0167446
-0.0108846
-0.0296483
-0.010133
0.0170453
0.00381207
-0.0154656
-0.00801974
-0.0128732
-0.000681994
0.0102464
-0.0201108
-0.0161243
0.0128037
-0.00155311
-0.0239976
-0.00951342
0.000705737
-0.00168652
-0.000721787
0.0046321
0.000430469
0.000752266
0.0221821
0.0210323
-0.0185218
-0.029417
0.000892723
0.00131275
-0.0157828
0.000349837
-0.0104777
-0.021293
0.00213985
0.0388528
0.0283667
-0.0349161
-0.0493767
-0.0319833
-0.00504059
0.0175924
-0.0124086
-0.0348746
-0.0140643
0.0154901
0.00123389
-0.0138289
-0.00725677
-0.0152751
-0.00209141
0.00899029
-0.0212613
-0.0183487
0.0112862
-0.00274846
-0.0224584
-0.0099615
-0.00192755
-0.00392377
-0.00220559
0.00567094
-0.000440143
-0.00292325
0.0211013
0.0201292
-0.021143
-0.0311352
0.00171642
-0.00154041
-0.0173441
0.000299143
-0.0121561
-0.0227712
0.00383836
0.0395354
0.0251004
-0.0345405
-0.0499102
-0.0337303
-0.00464689
0.0181157
-0.0120354
-0.0364403
-0.0118907
0.0165771
-0.0022736
-0.0132427
-0.0054199
-0.0171292
-0.00480953
0.00907832
-0.0209096
-0.0191044
0.0108839
-0.00319573
-0.0215252
-0.0104131
-0.00355207
-0.00496026
-0.00200507
0.00707498
-0.00325215
-0.00460016
0.0204103
0.0186979
-0.0220864
-0.0312233
0.00166238
-0.00430492
-0.0173414
-0.00215561
-0.0158667
-0.0228174
0.00547445
0.0417424
0.0235417
-0.0345591
-0.0486679
-0.0322991
-0.00306632
0.01972
-0.0105121
-0.0357021
-0.0079637
0.0158776
-0.00503696
-0.0147285
-0.00530966
-0.0184188
-0.0069825
0.00977462
-0.0212438
-0.01996
0.00975914
-0.00389387
-0.020728
-0.0110396
-0.00522081
-0.00534755
-0.00129175
0.00533557
-0.00554685
-0.00623663
0.0191719
0.0171301
-0.0227382
-0.0308684
0.00115952
-0.00517763
-0.0179379
-0.00466415
-0.017688
-0.0229467
0.00501906
0.0418761
0.0226685
-0.0356313
-0.0487204
-0.0322514
-0.00185363
0.0207193
-0.01011
-0.0363129
-0.00992744
0.0141301
-0.00599977
-0.0158833
-0.00629562
-0.0195293
-0.00789433
0.0104722
-0.020938
-0.0199865
0.00910588
-0.00325996
-0.0190669
-0.0111905
-0.00603346
-0.00463523
-0.000483159
0.00419554
-0.00584742
-0.00662572
0.0187045
0.0165757
-0.0228391
-0.0299566
0.00245789
-0.00413228
-0.0181661
-0.00514082
-0.0171382
-0.021464
0.00575887
0.0399388
0.0227813
-0.0352185
-0.0481206
-0.0327303
-0.00127786
0.0207716
-0.0100012
-0.0361654
-0.0112896
0.0144437
-0.00532913
-0.0156107
-0.00593225
-0.0191492
-0.00754932
0.0100714
-0.0214313
-0.0209556
0.00801449
-0.00295597
-0.019038
-0.0122795
-0.0071182
-0.00528569
-0.00132033
0.00357402
-0.00735148
-0.00792858
0.0171584
0.0150812
-0.0239459
-0.0300814
0.00293526
-0.00440025
-0.0190145
-0.00582752
-0.0174964
-0.0223185
0.0055893
0.0388577
0.0223914
-0.0353121
-0.0483563
-0.034031
-0.00232922
0.0197066
-0.0106965
-0.0363166
-0.0118158
0.0138182
-0.00575227
-0.0161905
-0.00624459
-0.0195235
-0.0081475
0.0111646
-0.0205673
-0.0202051
0.0090278
-0.00143504
-0.0178334
-0.011599
-0.0061703
-0.0041249
-0.000399262
0.00410472
-0.0075574
-0.00795463
0.0175481
0.0155784
-0.0234084
-0.0289225
0.00425755
-0.003313
-0.0178818
-0.00472557
-0.0167298
-0.0226194
0.00610569
0.0407461
0.0229211
-0.0341585
-0.0471903
-0.0329211
-0.00149614
0.0200823
-0.00959101
-0.0346842
-0.0109025
0.0145406
-0.00445616
-0.015062
-0.00522555
-0.0184998
-0.00730796
0.0103055
-0.0215001
-0.0212331
0.00786682
-0.0026965
-0.0190861
-0.0128915
-0.00768431
-0.00557864
-0.0017005
0.00277979
-0.00919658
-0.00957426
0.0161575
0.0140804
-0.0246435
-0.0299352
0.00334195
-0.0040866
-0.0186918
-0.005653
-0.0177271
-0.0240906
0.00516309
0.0391469
0.0206547
-0.0353175
-0.047737
-0.033828
-0.00288192
0.0183622
-0.0106852
-0.0354334
-0.0120686
0.0133179
-0.00554186
-0.0162318
-0.00637372
-0.0195772
-0.00837332
0.017177
-0.0146841
-0.0145645
0.0144119
0.00391186
-0.0122609
-0.00601655
-0.000963499
0.00121109
0.00519352
0.00968663
-0.00245905
-0.00266366
0.0230829
0.0207498
-0.0178859
-0.0228693
0.010651
0.00305164
-0.0117171
0.00127085
-0.0105081
-0.017535
0.0114921
0.0451356
0.0270797
-0.0282487
-0.0406946
-0.0268957
0.00378783
0.0250502
-0.00346833
-0.0281218
-0.00519386
0.0200392
0.0012417
-0.00941065
0.000422617
-0.0126816
-0.00147957
0.00660654
0.00280133
-0.00167927
0.00857847
0.000698469
-0.00365676
0.0075577
0.00559254
0.00597202
0.00579919
0.00421095
0.00541428
0.000770019
0.0047692
0.00251246
0.00025841
0.00489971
-0.00157076
0.0015307
0.00619192
6.92381e-05
0.00273934
0.00735131
0.00332702
0.00498787
0.00751381
0.00311712
0.00699657
0.0034989
-0.00358344
0.00598058
0.0052558
0.00142149
0.00628215
0.00597432
0.00516352
0.00417318
0.00528904
0.00260333
-0.00157831
0.00576042
-0.00117468
-0.000491207
0.00653331
-0.00296789
-0.00384221
0.00393359
0.000638473
0.00191452
0.00369104
0.00224601
0.00499804
0.00408006
0.00572919
0.00394693
0.00189142
0.00504479
-3.45265e-05
0.00270577
0.00838928
0.00277558
0.00310664
0.00740481
0.00387734
0.00129894
0.00187775
-0.000306284
0.00213031