/*--------------------------------*- C++ -*----------------------------------*\
  =========                 |
  \\      /  F ield         | OpenFOAM: The Open Source CFD Toolbox
   \\    /   O peration     | Website:  https://openfoam.org
    \\  /    A nd           | Version:  10
     \\/     M anipulation  |
\*---------------------------------------------------------------------------*/
FoamFile
{
    format      ascii;
    class       volVectorField;
    location    "95";
    object      UMean;
}
// * * * * * * * * * * * * * * * * * * * * * * * * * * * * * * * * * * * * * //

dimensions      [0 1 -1 0 0 0 0];

internalField   nonuniform List<vector> 
25600
(
(1.07528 -0.00122876 -0.000403785)
(1.07527 -0.00122572 -0.000386806)
(1.07523 -0.00122673 -0.000372613)
(1.07517 -0.0012206 -0.000367974)
(1.0751 -0.00121306 -0.000376366)
(1.07506 -0.00120291 -0.000386965)
(1.07505 -0.00119223 -0.000385121)
(1.07505 -0.00118327 -0.000372454)
(1.07508 -0.00118092 -0.000354536)
(1.07512 -0.00118506 -0.000338904)
(1.07514 -0.00119774 -0.000335684)
(1.07516 -0.00120628 -0.000347839)
(1.07517 -0.00120161 -0.000370608)
(1.07517 -0.00118665 -0.000391617)
(1.07514 -0.00116914 -0.000406731)
(1.07512 -0.00114572 -0.000416603)
(1.07511 -0.00113486 -0.000420281)
(1.0751 -0.00112753 -0.000431338)
(1.07512 -0.00112325 -0.000445777)
(1.07515 -0.00111894 -0.000463783)
(1.07515 -0.00111375 -0.000480587)
(1.07513 -0.00112014 -0.000495209)
(1.07506 -0.00113518 -0.000507852)
(1.07497 -0.00114978 -0.000522197)
(1.0749 -0.00116471 -0.000537727)
(1.07489 -0.00116624 -0.000543785)
(1.07492 -0.00116456 -0.000533051)
(1.07499 -0.00116015 -0.000514023)
(1.07507 -0.00116043 -0.000486295)
(1.07514 -0.00116399 -0.000464509)
(1.07518 -0.00117157 -0.000457347)
(1.0752 -0.00118123 -0.00045463)
(1.07522 -0.00119146 -0.000456661)
(1.07522 -0.00121247 -0.00045613)
(1.07522 -0.00123489 -0.000447513)
(1.07523 -0.00124601 -0.000439782)
(1.07524 -0.00124773 -0.000431848)
(1.07525 -0.00124445 -0.00042819)
(1.07526 -0.0012404 -0.000425619)
(1.07527 -0.00123382 -0.000418286)
(1.06917 -0.00231151 -0.00094401)
(1.06915 -0.00232503 -0.000981957)
(1.06914 -0.00233009 -0.00102918)
(1.06914 -0.00232546 -0.00107899)
(1.06911 -0.00232308 -0.00111002)
(1.06906 -0.00232672 -0.00111359)
(1.06902 -0.00233588 -0.00109281)
(1.069 -0.00234823 -0.00107037)
(1.06902 -0.00235574 -0.00106071)
(1.06907 -0.0023682 -0.00106426)
(1.06913 -0.0023861 -0.00108177)
(1.0692 -0.00239355 -0.00110864)
(1.06924 -0.0023853 -0.00113372)
(1.06925 -0.0023533 -0.00114602)
(1.06925 -0.00229747 -0.00114291)
(1.06922 -0.00223072 -0.00112835)
(1.06918 -0.00218241 -0.00110366)
(1.06914 -0.00216283 -0.00107703)
(1.06912 -0.00215746 -0.00104379)
(1.06913 -0.00215607 -0.00101484)
(1.06913 -0.00215318 -0.000997748)
(1.06911 -0.00215509 -0.000988909)
(1.06906 -0.0021673 -0.000985271)
(1.06899 -0.00218756 -0.000987893)
(1.06893 -0.00220921 -0.000993524)
(1.0689 -0.00222931 -0.000999407)
(1.06888 -0.00223381 -0.0010036)
(1.06888 -0.00222958 -0.00099767)
(1.06889 -0.00222756 -0.000968351)
(1.06891 -0.00222425 -0.000917366)
(1.06895 -0.00222058 -0.000858541)
(1.06899 -0.00222259 -0.000810949)
(1.06902 -0.00223182 -0.000791843)
(1.06904 -0.00226224 -0.000796477)
(1.06905 -0.00229859 -0.000813056)
(1.06908 -0.00232018 -0.00084532)
(1.06912 -0.0023258 -0.000875986)
(1.06914 -0.00232451 -0.000896861)
(1.06915 -0.00232303 -0.000906288)
(1.06916 -0.0023137 -0.000918417)
(1.06356 -0.0021686 0.00149307)
(1.0636 -0.00216425 0.0014287)
(1.06367 -0.0021409 0.00136491)
(1.06373 -0.0021113 0.00131123)
(1.06376 -0.00207611 0.00127676)
(1.06375 -0.00205579 0.00126651)
(1.06372 -0.00205764 0.00127337)
(1.06369 -0.00208846 0.00128993)
(1.06369 -0.00211849 0.00130925)
(1.06371 -0.00214733 0.00131918)
(1.06372 -0.00215714 0.00131333)
(1.06373 -0.00213544 0.00129249)
(1.0637 -0.00209373 0.00127236)
(1.06365 -0.00204981 0.0012778)
(1.06362 -0.00199773 0.00130951)
(1.06361 -0.00194643 0.00136579)
(1.06361 -0.00191158 0.00143303)
(1.06361 -0.00191112 0.00149624)
(1.06361 -0.00193392 0.00155114)
(1.06361 -0.00197165 0.00159542)
(1.06359 -0.00200854 0.00161386)
(1.06353 -0.00204491 0.00161927)
(1.06345 -0.00207738 0.00161669)
(1.06333 -0.00210736 0.00161391)
(1.06324 -0.00212094 0.00161857)
(1.06318 -0.00213188 0.00162493)
(1.06315 -0.00212445 0.00163457)
(1.06316 -0.00212471 0.00166038)
(1.0632 -0.00213246 0.0016976)
(1.06324 -0.00214301 0.00174325)
(1.06329 -0.0021538 0.00178062)
(1.06333 -0.00215994 0.0017944)
(1.06336 -0.00216145 0.00177691)
(1.06337 -0.00218158 0.00174357)
(1.06339 -0.00219711 0.00170199)
(1.06341 -0.0022008 0.00165718)
(1.06345 -0.00219798 0.00161599)
(1.06347 -0.00219667 0.00158384)
(1.0635 -0.00218664 0.00156052)
(1.06353 -0.00217534 0.00153756)
(1.05843 -0.00261502 0.00397647)
(1.05844 -0.00262791 0.00390302)
(1.05847 -0.0026183 0.00384163)
(1.0585 -0.00257521 0.00380832)
(1.05851 -0.00250915 0.003816)
(1.05848 -0.00246771 0.00386343)
(1.05842 -0.0024719 0.00391708)
(1.05836 -0.00251665 0.00396452)
(1.05832 -0.00255705 0.0039869)
(1.05827 -0.00258957 0.00397011)
(1.05819 -0.00259844 0.00393557)
(1.05811 -0.00257631 0.0039044)
(1.05801 -0.00256347 0.00390838)
(1.05795 -0.00256324 0.00394861)
(1.05793 -0.00254947 0.00400993)
(1.05792 -0.0025463 0.00407877)
(1.05792 -0.00255342 0.00412659)
(1.05792 -0.00257293 0.00413869)
(1.05794 -0.00258881 0.00413104)
(1.05796 -0.00260169 0.00410023)
(1.05799 -0.00259956 0.00404157)
(1.05801 -0.00258868 0.0039762)
(1.05801 -0.00258963 0.00391345)
(1.05797 -0.00260935 0.00386772)
(1.05794 -0.00262934 0.00383851)
(1.05793 -0.00265264 0.0038117)
(1.05795 -0.002655 0.00379679)
(1.05801 -0.0026636 0.00379992)
(1.05808 -0.00267475 0.00382313)
(1.05813 -0.00269441 0.00386253)
(1.05817 -0.00271333 0.0038983)
(1.05821 -0.00271473 0.00390591)
(1.05826 -0.00270876 0.0038876)
(1.0583 -0.0027209 0.00387223)
(1.05834 -0.00272351 0.00387501)
(1.05838 -0.00271785 0.00390444)
(1.05841 -0.0026993 0.00394934)
(1.05844 -0.00265825 0.00399137)
(1.05846 -0.00260658 0.00401923)
(1.05845 -0.00259784 0.00402081)
(1.05321 -0.00162425 0.00422424)
(1.05309 -0.00168764 0.00417398)
(1.053 -0.00174652 0.00416685)
(1.05295 -0.00175892 0.0042091)
(1.05294 -0.00174243 0.00429401)
(1.0529 -0.00175016 0.00438013)
(1.05284 -0.00179162 0.00444146)
(1.05274 -0.00185719 0.00448516)
(1.05265 -0.0019123 0.00449196)
(1.05257 -0.00195687 0.00446064)
(1.05258 -0.00195923 0.00441549)
(1.05264 -0.00190873 0.00438646)
(1.05269 -0.00184831 0.00439757)
(1.05273 -0.00177944 0.0044343)
(1.05279 -0.00169739 0.00447812)
(1.05282 -0.00163478 0.00450127)
(1.05288 -0.00158263 0.00448326)
(1.05297 -0.00154281 0.00443618)
(1.05312 -0.0015042 0.00438221)
(1.0533 -0.00146288 0.00431768)
(1.0535 -0.00140417 0.00425712)
(1.05367 -0.00132774 0.00421017)
(1.05382 -0.00125711 0.00417361)
(1.0539 -0.00120323 0.00414504)
(1.05396 -0.00115811 0.00411121)
(1.05398 -0.00114426 0.00405443)
(1.05402 -0.00113305 0.00399898)
(1.05405 -0.00112611 0.00397641)
(1.05408 -0.00112485 0.00399716)
(1.05408 -0.00113391 0.0040481)
(1.05406 -0.00115527 0.0040911)
(1.05402 -0.00118048 0.00409182)
(1.05396 -0.00122605 0.00406929)
(1.05387 -0.00129071 0.00407445)
(1.05378 -0.00134765 0.00412195)
(1.05367 -0.00139853 0.00420025)
(1.05357 -0.00144722 0.00428046)
(1.05349 -0.00148046 0.00433687)
(1.05341 -0.00150707 0.00434298)
(1.05331 -0.00156524 0.00429559)
(1.0481 -0.00259683 0.0037667)
(1.04796 -0.00263544 0.00382067)
(1.04786 -0.00265527 0.0038983)
(1.0478 -0.00262579 0.00400822)
(1.04783 -0.00255863 0.00414323)
(1.04787 -0.00249789 0.00425558)
(1.04791 -0.00246378 0.00433919)
(1.0479 -0.00247768 0.00441064)
(1.04788 -0.0025187 0.00442423)
(1.04787 -0.0025595 0.0043834)
(1.04799 -0.00253697 0.00434259)
(1.04814 -0.00246054 0.00436337)
(1.04831 -0.00237454 0.00443931)
(1.04843 -0.00228925 0.00451649)
(1.04855 -0.00221826 0.00455898)
(1.04858 -0.00218166 0.00455703)
(1.04863 -0.00215393 0.0045288)
(1.0487 -0.00216111 0.00449918)
(1.04883 -0.00218283 0.00445528)
(1.04892 -0.00220676 0.00437943)
(1.04903 -0.00221946 0.00429591)
(1.04908 -0.00220498 0.00421924)
(1.04912 -0.0021939 0.0041397)
(1.04912 -0.00221433 0.00407228)
(1.04912 -0.00224276 0.00401877)
(1.04909 -0.00228455 0.00395506)
(1.04907 -0.00230427 0.00389225)
(1.04899 -0.00232382 0.00386199)
(1.04891 -0.00235173 0.0038414)
(1.0488 -0.00239884 0.00380715)
(1.04874 -0.00244425 0.00374782)
(1.04864 -0.00247877 0.00368165)
(1.04852 -0.00252015 0.00364641)
(1.04835 -0.00257205 0.00366222)
(1.04824 -0.00261415 0.00370615)
(1.04814 -0.00263422 0.00375132)
(1.04811 -0.00263432 0.00376885)
(1.04812 -0.00261119 0.00376439)
(1.04816 -0.00258007 0.00375302)
(1.04814 -0.00258097 0.0037475)
(1.04131 -0.00139649 0.00220419)
(1.04112 -0.0014193 0.00227405)
(1.04101 -0.00143877 0.00234975)
(1.04092 -0.00145031 0.00245557)
(1.04096 -0.00141732 0.00260845)
(1.041 -0.00136286 0.00273964)
(1.04107 -0.00129887 0.00281015)
(1.04107 -0.00127238 0.00284253)
(1.04107 -0.00129194 0.00283209)
(1.04102 -0.00134497 0.00279674)
(1.04107 -0.00135715 0.00278375)
(1.0411 -0.00132944 0.00284365)
(1.04121 -0.00126915 0.0029372)
(1.04127 -0.00120105 0.00300244)
(1.04138 -0.00113361 0.0030277)
(1.04142 -0.00109197 0.00302746)
(1.0415 -0.00105919 0.00301336)
(1.04155 -0.00108739 0.0030007)
(1.04166 -0.00113412 0.0029748)
(1.04172 -0.0011807 0.00292305)
(1.04184 -0.00120356 0.00285947)
(1.04193 -0.00120486 0.00280233)
(1.04207 -0.00118327 0.00273235)
(1.04214 -0.00116152 0.00267125)
(1.04225 -0.00113447 0.00262497)
(1.0423 -0.00112594 0.00257348)
(1.04236 -0.00109654 0.00250127)
(1.04232 -0.00108587 0.00243583)
(1.04229 -0.00109066 0.00239156)
(1.04219 -0.0011376 0.0023518)
(1.04215 -0.00119204 0.00228697)
(1.04201 -0.001251 0.00221745)
(1.04188 -0.00129853 0.00217341)
(1.04171 -0.00134191 0.00217347)
(1.04163 -0.00135593 0.00221038)
(1.0415 -0.0013652 0.0022416)
(1.04145 -0.00137647 0.00221843)
(1.04141 -0.00139339 0.00217367)
(1.04143 -0.0013948 0.00215488)
(1.04138 -0.00140004 0.00216598)
(1.03123 -0.00214302 0.00240377)
(1.03118 -0.00217118 0.00235544)
(1.03126 -0.00218173 0.00229942)
(1.03133 -0.00217747 0.00228224)
(1.03156 -0.00212218 0.00235335)
(1.03174 -0.0020647 0.00242847)
(1.03203 -0.00199092 0.00245757)
(1.03223 -0.0019243 0.00243533)
(1.03242 -0.00186307 0.00239386)
(1.03244 -0.00182605 0.00236476)
(1.03253 -0.00177214 0.00239581)
(1.03257 -0.00171393 0.00251839)
(1.0327 -0.0016371 0.00264271)
(1.03274 -0.00155573 0.00268562)
(1.03286 -0.00145053 0.00269267)
(1.03288 -0.00137895 0.00269076)
(1.03297 -0.0013555 0.0026798)
(1.03292 -0.00143948 0.00264506)
(1.03292 -0.00153252 0.00262957)
(1.03281 -0.00160733 0.0026225)
(1.03283 -0.00165874 0.0026394)
(1.0328 -0.00171516 0.00267152)
(1.03283 -0.00174566 0.00268868)
(1.03275 -0.00178351 0.00269448)
(1.03274 -0.00182452 0.00274131)
(1.03262 -0.00188795 0.0027871)
(1.03255 -0.00190767 0.00280287)
(1.03237 -0.00192639 0.0028059)
(1.03226 -0.00194821 0.00284688)
(1.03206 -0.00200623 0.00285336)
(1.03195 -0.00204321 0.00279766)
(1.03173 -0.00208346 0.0027372)
(1.03155 -0.00211646 0.00269918)
(1.03133 -0.00215387 0.00267944)
(1.03124 -0.00213072 0.00268516)
(1.03109 -0.00210295 0.00267948)
(1.03107 -0.00208467 0.00264355)
(1.03105 -0.00210566 0.00256879)
(1.03116 -0.00212597 0.00250778)
(1.03119 -0.00214131 0.00245523)
(1.02136 -0.00238185 0.00246377)
(1.02139 -0.00243536 0.0024843)
(1.02159 -0.00249019 0.00253706)
(1.0217 -0.00254968 0.0026386)
(1.02196 -0.00251591 0.00276018)
(1.02212 -0.00247057 0.00286414)
(1.0224 -0.00238573 0.00295752)
(1.0225 -0.00229096 0.00304294)
(1.02262 -0.00216703 0.00313528)
(1.0226 -0.00205908 0.00324176)
(1.02272 -0.0019432 0.00339649)
(1.02274 -0.00185104 0.00355805)
(1.02282 -0.00173249 0.00362494)
(1.02274 -0.00162382 0.00361865)
(1.02275 -0.00149196 0.00360662)
(1.0226 -0.00139838 0.00356887)
(1.02252 -0.00136426 0.00348141)
(1.02228 -0.00143929 0.0033164)
(1.0221 -0.0015166 0.00315809)
(1.02181 -0.00159037 0.00301995)
(1.02166 -0.00166114 0.00290527)
(1.0214 -0.0017367 0.00281805)
(1.02125 -0.00178992 0.00273263)
(1.02105 -0.00185936 0.00266818)
(1.02103 -0.00191245 0.00266258)
(1.02092 -0.00196071 0.0026433)
(1.02094 -0.0019526 0.00259205)
(1.02085 -0.00197062 0.00254051)
(1.02091 -0.00199014 0.00249707)
(1.0209 -0.00205884 0.0023996)
(1.02099 -0.00213644 0.0023043)
(1.0209 -0.00222392 0.00226059)
(1.02089 -0.00227538 0.00224146)
(1.02081 -0.00234438 0.00224033)
(1.02088 -0.00234123 0.00226612)
(1.02083 -0.00230284 0.00229701)
(1.02091 -0.00225613 0.00233241)
(1.02093 -0.00229747 0.00235145)
(1.02111 -0.00234817 0.00240549)
(1.0212 -0.00237854 0.00244986)
(1.00933 -0.00346212 0.00245478)
(1.0094 -0.00345916 0.00254392)
(1.0096 -0.003442 0.0026792)
(1.0097 -0.00342525 0.00286062)
(1.00996 -0.00331809 0.00298943)
(1.01005 -0.00322871 0.00303348)
(1.01015 -0.00312612 0.00304275)
(1.01003 -0.00304342 0.00307102)
(1.01013 -0.00294324 0.00310672)
(1.01015 -0.00287182 0.00314622)
(1.01029 -0.00280584 0.00316892)
(1.01021 -0.00276158 0.0030865)
(1.01013 -0.00268879 0.00288808)
(1.00992 -0.00266759 0.00265574)
(1.00988 -0.00263126 0.00244058)
(1.00967 -0.00264446 0.00227341)
(1.00963 -0.00269173 0.00211473)
(1.00943 -0.00282657 0.00189882)
(1.00937 -0.00294315 0.00169212)
(1.00922 -0.00302872 0.00153061)
(1.00923 -0.00306753 0.00141487)
(1.00909 -0.00310795 0.00135821)
(1.00911 -0.00312025 0.00133985)
(1.00911 -0.00316363 0.00136244)
(1.00928 -0.00318419 0.00139785)
(1.00933 -0.00318583 0.00143723)
(1.00954 -0.00313393 0.00152306)
(1.0096 -0.00312697 0.00163031)
(1.0098 -0.00312719 0.00169716)
(1.00978 -0.00320192 0.00176235)
(1.0098 -0.00328621 0.00185668)
(1.00953 -0.00336929 0.00194482)
(1.00932 -0.00343662 0.00200894)
(1.00903 -0.00354268 0.00206969)
(1.00897 -0.00356607 0.00211214)
(1.00887 -0.00353152 0.00214841)
(1.00902 -0.00344676 0.00221061)
(1.00903 -0.00345579 0.00226828)
(1.00914 -0.00348448 0.00233841)
(1.00915 -0.00349422 0.00239814)
(1.00171 -0.00359016 0.00128003)
(1.00183 -0.00361257 0.00134468)
(1.00207 -0.0036449 0.00145302)
(1.00216 -0.00369729 0.00162015)
(1.00228 -0.00365308 0.0016904)
(1.00211 -0.00361381 0.00163643)
(1.00182 -0.00358404 0.00151797)
(1.00128 -0.00363317 0.00142059)
(1.00101 -0.00365519 0.00129767)
(1.00061 -0.00365053 0.00114407)
(1.00033 -0.00357246 0.000916501)
(0.999873 -0.00350826 0.000614682)
(0.999633 -0.00349263 0.000289972)
(0.999416 -0.00356865 2.23338e-05)
(0.999379 -0.00359394 -0.000171285)
(0.999217 -0.00366885 -0.000250424)
(0.999287 -0.00378205 -0.000259637)
(0.999205 -0.00392522 -0.000286293)
(0.999301 -0.00398667 -0.000281764)
(0.999293 -0.00400314 -0.000199684)
(0.999451 -0.0040152 -5.88509e-05)
(0.999521 -0.00407435 0.000102368)
(0.999761 -0.00412739 0.000231483)
(0.999906 -0.00421096 0.000303587)
(1.00008 -0.00425157 0.000343063)
(1.00009 -0.00423323 0.000373731)
(1.00027 -0.00415762 0.000503968)
(1.00031 -0.00412312 0.000683742)
(1.00047 -0.00407073 0.000831554)
(1.00041 -0.00403859 0.00103411)
(1.00044 -0.00398501 0.00125255)
(1.00026 -0.00397343 0.00135721)
(1.00013 -0.00401677 0.00133544)
(0.99999 -0.00410975 0.00124469)
(1.0002 -0.00410447 0.00114096)
(1.00045 -0.00403735 0.00108431)
(1.0009 -0.00390438 0.00106862)
(1.00108 -0.00382466 0.00107211)
(1.00131 -0.00373831 0.00113624)
(1.00143 -0.00365125 0.00122252)
(0.991857 -0.00342816 0.000948908)
(0.99185 -0.00344525 0.00106621)
(0.991955 -0.00348821 0.00115315)
(0.991749 -0.00358303 0.00116903)
(0.99152 -0.00357202 0.000995494)
(0.990985 -0.00355345 0.000647369)
(0.990496 -0.0035527 0.000220015)
(0.989911 -0.00366223 -0.000190285)
(0.989639 -0.0037312 -0.000615153)
(0.989217 -0.00373595 -0.00100521)
(0.988961 -0.00370603 -0.00134003)
(0.988726 -0.00376857 -0.00159342)
(0.988907 -0.00389292 -0.00174792)
(0.988917 -0.00404041 -0.00179451)
(0.988993 -0.00406494 -0.00175451)
(0.988899 -0.00416236 -0.0016138)
(0.988958 -0.00431822 -0.00141205)
(0.988844 -0.00451598 -0.00122014)
(0.989021 -0.00462142 -0.00102397)
(0.989025 -0.00471154 -0.000779669)
(0.989306 -0.00479362 -0.000560055)
(0.989447 -0.00492746 -0.000395068)
(0.989718 -0.00499137 -0.000342825)
(0.989723 -0.00505896 -0.000281861)
(0.989706 -0.00505859 -0.000223074)
(0.989541 -0.00501464 -0.000209367)
(0.989723 -0.00491027 -0.000114838)
(0.989725 -0.00484699 5.11636e-05)
(0.989819 -0.00472853 0.000192745)
(0.989712 -0.00459505 0.000349339)
(0.989838 -0.00442212 0.000416821)
(0.98982 -0.00434261 0.000390865)
(0.989995 -0.00433824 0.000283933)
(0.990048 -0.00439345 0.000126912)
(0.990358 -0.00431373 -4.50837e-06)
(0.990606 -0.00412868 -2.74716e-05)
(0.990993 -0.00387685 6.02757e-05)
(0.991119 -0.00371419 0.000240972)
(0.99145 -0.00356341 0.00051541)
(0.991621 -0.00348164 0.000772253)
(0.981005 -0.00315223 -8.81045e-05)
(0.980887 -0.00316294 7.00281e-05)
(0.980818 -0.00325426 6.41266e-05)
(0.980312 -0.00340195 -0.000133745)
(0.980096 -0.00341319 -0.000540498)
(0.979706 -0.00339797 -0.00105453)
(0.97971 -0.00340437 -0.00158248)
(0.979636 -0.00354231 -0.0020103)
(0.979929 -0.00365751 -0.00239875)
(0.980157 -0.0037865 -0.00266185)
(0.980735 -0.00392963 -0.00281027)
(0.981056 -0.00413047 -0.00282557)
(0.981428 -0.00428895 -0.00276255)
(0.9813 -0.00439575 -0.0026431)
(0.981321 -0.00441652 -0.0025032)
(0.981104 -0.0045282 -0.00232959)
(0.980972 -0.00466015 -0.00211438)
(0.980678 -0.00476476 -0.00196851)
(0.980727 -0.00474016 -0.00194288)
(0.980512 -0.00472152 -0.00194274)
(0.980558 -0.00477853 -0.00198949)
(0.980215 -0.00491088 -0.00207133)
(0.979997 -0.00495135 -0.00215141)
(0.979483 -0.00500551 -0.00205623)
(0.979074 -0.00505682 -0.00187861)
(0.978668 -0.00509013 -0.00178093)
(0.978757 -0.00501091 -0.00167138)
(0.978597 -0.00495924 -0.00159843)
(0.978842 -0.00487439 -0.00163041)
(0.978989 -0.00472979 -0.00168848)
(0.979314 -0.00448566 -0.00175346)
(0.979292 -0.00429514 -0.00167993)
(0.979484 -0.00420893 -0.00154998)
(0.979386 -0.00420697 -0.00147625)
(0.979569 -0.00406763 -0.00147294)
(0.979698 -0.00384437 -0.00141237)
(0.980168 -0.00363585 -0.00121118)
(0.980344 -0.00352719 -0.000901977)
(0.980787 -0.00336971 -0.000586162)
(0.980814 -0.00325429 -0.000305144)
(0.971384 -0.00307906 -0.00191522)
(0.971048 -0.00292891 -0.00189609)
(0.970706 -0.00283683 -0.00206132)
(0.970078 -0.00280512 -0.00238063)
(0.970063 -0.00277389 -0.00265559)
(0.969981 -0.00282143 -0.00287588)
(0.970422 -0.00289385 -0.00308218)
(0.970618 -0.00306332 -0.00323686)
(0.970975 -0.00323461 -0.0033434)
(0.971041 -0.00346817 -0.00337449)
(0.971243 -0.0036577 -0.00331885)
(0.970984 -0.00379962 -0.00322971)
(0.970829 -0.00386944 -0.00315742)
(0.970379 -0.00396747 -0.00311999)
(0.970348 -0.00405121 -0.00316223)
(0.970002 -0.00418959 -0.00317085)
(0.969786 -0.00429165 -0.00310386)
(0.96941 -0.0043817 -0.00313548)
(0.9694 -0.00438421 -0.00326406)
(0.968976 -0.00441766 -0.00332922)
(0.968747 -0.00446012 -0.00337378)
(0.968046 -0.00457325 -0.00339959)
(0.967735 -0.0046354 -0.00331076)
(0.967277 -0.00472217 -0.00299814)
(0.967202 -0.00482812 -0.0028019)
(0.967199 -0.00487467 -0.00276426)
(0.967726 -0.00477965 -0.00272236)
(0.968046 -0.00472937 -0.00270525)
(0.968803 -0.00465714 -0.00272507)
(0.969228 -0.0045569 -0.00274455)
(0.969837 -0.0043505 -0.00274635)
(0.970082 -0.00421899 -0.00258271)
(0.970514 -0.00420836 -0.00235632)
(0.970608 -0.00423702 -0.0022421)
(0.971019 -0.00411149 -0.0022318)
(0.971329 -0.0039572 -0.00216743)
(0.971689 -0.00384369 -0.00200366)
(0.971459 -0.00377179 -0.0018718)
(0.971514 -0.00354089 -0.00186836)
(0.97126 -0.00331283 -0.00191758)
(0.961366 -0.00253349 -0.00398022)
(0.961315 -0.00229629 -0.00389462)
(0.961677 -0.00217288 -0.00391902)
(0.961788 -0.00210717 -0.0039552)
(0.962292 -0.00204828 -0.00383654)
(0.9624 -0.00207064 -0.00371805)
(0.962848 -0.00218678 -0.00364583)
(0.96263 -0.00248179 -0.00358826)
(0.962358 -0.00282531 -0.0035589)
(0.961709 -0.00314893 -0.00355885)
(0.961491 -0.00332254 -0.0036074)
(0.96112 -0.00337794 -0.00364518)
(0.961193 -0.00334809 -0.00355738)
(0.961023 -0.00340786 -0.00338503)
(0.961135 -0.0034553 -0.00324927)
(0.960923 -0.00350859 -0.00321833)
(0.9611 -0.00351582 -0.00332676)
(0.961082 -0.00359281 -0.00359726)
(0.961223 -0.00366684 -0.00378659)
(0.960885 -0.00377125 -0.00381944)
(0.960838 -0.00384682 -0.00384457)
(0.960378 -0.00398222 -0.00380848)
(0.960397 -0.00406775 -0.00354215)
(0.960427 -0.00416657 -0.00324956)
(0.960789 -0.00424989 -0.00320283)
(0.960995 -0.00420962 -0.00333625)
(0.96162 -0.00407655 -0.00332046)
(0.961918 -0.00409217 -0.00325515)
(0.962548 -0.00409013 -0.0032085)
(0.962767 -0.00401139 -0.00323096)
(0.963175 -0.00386816 -0.00328406)
(0.963159 -0.00388152 -0.00323903)
(0.96335 -0.0039559 -0.00315047)
(0.963058 -0.00398081 -0.00315657)
(0.962985 -0.00384485 -0.00315797)
(0.962467 -0.00364727 -0.00312794)
(0.961988 -0.00347562 -0.00311147)
(0.961112 -0.00338671 -0.00329588)
(0.960977 -0.00314502 -0.00365045)
(0.960899 -0.00286101 -0.00393862)
(0.951725 -0.00261357 -0.00483457)
(0.952058 -0.00249351 -0.00459391)
(0.952755 -0.00235432 -0.00438753)
(0.953149 -0.0022407 -0.00408444)
(0.953907 -0.00213368 -0.00368539)
(0.954251 -0.00214985 -0.00346792)
(0.954921 -0.00228998 -0.0033995)
(0.954837 -0.00265316 -0.00338184)
(0.954874 -0.00298808 -0.00342713)
(0.954653 -0.0032178 -0.0035642)
(0.95502 -0.00326948 -0.00366463)
(0.95513 -0.00327558 -0.00370068)
(0.955513 -0.00323261 -0.00360435)
(0.955188 -0.00327667 -0.00342587)
(0.955049 -0.00328189 -0.00327205)
(0.954579 -0.00326898 -0.00328921)
(0.954654 -0.00320073 -0.00342051)
(0.954462 -0.00320301 -0.0035344)
(0.954606 -0.00320676 -0.00352422)
(0.954356 -0.0032844 -0.00350832)
(0.954444 -0.0033384 -0.00363498)
(0.954076 -0.00345088 -0.0037198)
(0.954181 -0.0035526 -0.00368834)
(0.95409 -0.00369866 -0.00370591)
(0.953986 -0.00375911 -0.00384957)
(0.953721 -0.00365854 -0.00398113)
(0.953885 -0.00349848 -0.00389869)
(0.953655 -0.00347128 -0.00372166)
(0.953557 -0.00332351 -0.00361003)
(0.952995 -0.00308753 -0.00361208)
(0.952657 -0.00290797 -0.00372927)
(0.952076 -0.00299235 -0.00377072)
(0.951667 -0.00307238 -0.00369998)
(0.950845 -0.00312436 -0.00371802)
(0.950358 -0.00304702 -0.00393036)
(0.949629 -0.00293705 -0.00430706)
(0.949448 -0.00290832 -0.00461224)
(0.949336 -0.00299372 -0.00482793)
(0.950042 -0.00294304 -0.00494073)
(0.950804 -0.00285088 -0.00497308)
(0.945768 -0.00237015 -0.00491398)
(0.945819 -0.00223198 -0.00497424)
(0.946296 -0.00207864 -0.00488678)
(0.946536 -0.00198939 -0.00459656)
(0.947226 -0.00192124 -0.00425368)
(0.947401 -0.00191428 -0.00406293)
(0.947926 -0.00192911 -0.00381872)
(0.94776 -0.00206037 -0.00351)
(0.947857 -0.00219981 -0.00331139)
(0.947428 -0.00236663 -0.00327364)
(0.947481 -0.00249862 -0.00320802)
(0.947025 -0.0026488 -0.00320338)
(0.946526 -0.00261492 -0.00320441)
(0.945241 -0.00257819 -0.00318502)
(0.944393 -0.00246181 -0.00311937)
(0.943581 -0.00242331 -0.00309764)
(0.943673 -0.00238666 -0.0030136)
(0.943618 -0.00237618 -0.00292205)
(0.944035 -0.00226075 -0.00288558)
(0.943874 -0.00225095 -0.00301092)
(0.944069 -0.00228028 -0.00320608)
(0.94382 -0.00241231 -0.00329848)
(0.944056 -0.00257978 -0.00339615)
(0.943615 -0.00274866 -0.00350616)
(0.943178 -0.00271432 -0.0036736)
(0.942654 -0.00253474 -0.00369059)
(0.942451 -0.00227763 -0.00342579)
(0.941537 -0.00212831 -0.00316303)
(0.940828 -0.00189551 -0.00301457)
(0.940076 -0.0016565 -0.00302896)
(0.940093 -0.00157164 -0.00321711)
(0.939869 -0.00177568 -0.00324195)
(0.939971 -0.00197199 -0.00324903)
(0.940103 -0.0021311 -0.00347757)
(0.940672 -0.00214269 -0.00399197)
(0.941151 -0.00217612 -0.00447446)
(0.942229 -0.00235367 -0.00470303)
(0.943161 -0.00262102 -0.00480011)
(0.944523 -0.00269935 -0.00482593)
(0.945155 -0.00262836 -0.00484525)
(0.939887 -0.00160994 -0.00517006)
(0.939782 -0.001608 -0.00536754)
(0.940019 -0.00163632 -0.00547686)
(0.939938 -0.00173019 -0.00557921)
(0.940343 -0.00170135 -0.00567102)
(0.940022 -0.00165202 -0.0056925)
(0.939967 -0.00159342 -0.00539601)
(0.939179 -0.00170681 -0.00483844)
(0.93857 -0.00187243 -0.00433049)
(0.937319 -0.00210072 -0.00398205)
(0.936555 -0.00221346 -0.00370945)
(0.934895 -0.00217784 -0.00345911)
(0.933727 -0.00192155 -0.00319157)
(0.932433 -0.00176191 -0.00287492)
(0.932413 -0.00165418 -0.00266392)
(0.932586 -0.00174431 -0.00257861)
(0.93359 -0.00178828 -0.00251196)
(0.93408 -0.00174478 -0.00255895)
(0.934755 -0.00154745 -0.00262084)
(0.934563 -0.00146221 -0.00259875)
(0.934637 -0.00141807 -0.00250228)
(0.934318 -0.00148706 -0.00241096)
(0.934482 -0.00150816 -0.00245848)
(0.933641 -0.00149181 -0.00258577)
(0.933223 -0.00136499 -0.00285001)
(0.932471 -0.00116491 -0.00284847)
(0.931895 -0.0008499 -0.00275394)
(0.930761 -0.000761376 -0.00281589)
(0.93056 -0.000670068 -0.00300494)
(0.93068 -0.000588306 -0.00333846)
(0.931811 -0.000631329 -0.00381617)
(0.932578 -0.000915143 -0.00409409)
(0.933837 -0.00110924 -0.00435305)
(0.934665 -0.00126824 -0.00450912)
(0.93598 -0.00128397 -0.00464219)
(0.936894 -0.0014062 -0.00464446)
(0.938297 -0.00162376 -0.00460539)
(0.939141 -0.00188685 -0.00461675)
(0.93997 -0.00190373 -0.00467298)
(0.939668 -0.0017835 -0.00485046)
(0.930569 -0.00104528 -0.00428588)
(0.930259 -0.00129944 -0.00461772)
(0.930181 -0.00143924 -0.00501461)
(0.92951 -0.00157553 -0.00532663)
(0.929373 -0.00144272 -0.00561905)
(0.928541 -0.00133056 -0.00575964)
(0.92822 -0.00128917 -0.00563724)
(0.9272 -0.00148762 -0.00524942)
(0.926771 -0.00167132 -0.0047854)
(0.925697 -0.00184045 -0.00424926)
(0.925035 -0.00178675 -0.00373963)
(0.923553 -0.00158526 -0.00318164)
(0.923261 -0.00128725 -0.00269466)
(0.923054 -0.00125351 -0.002141)
(0.924084 -0.00127094 -0.00191483)
(0.924511 -0.00139737 -0.00177343)
(0.925143 -0.0012761 -0.0016267)
(0.924989 -0.00114358 -0.00150463)
(0.92514 -0.000900115 -0.00140735)
(0.924645 -0.000823967 -0.00119747)
(0.924862 -0.000721549 -0.00114249)
(0.92472 -0.000661153 -0.00124829)
(0.924937 -0.000414332 -0.00167933)
(0.924218 -0.000256898 -0.00212499)
(0.923793 -9.50903e-05 -0.00240447)
(0.922791 0.00011919 -0.00232904)
(0.922689 0.000324995 -0.00244557)
(0.922321 0.000144433 -0.00272393)
(0.9234 1.92062e-05 -0.00315638)
(0.924322 -3.98766e-05 -0.00354766)
(0.925817 -0.000121291 -0.00388608)
(0.926319 -0.000357044 -0.00389929)
(0.927392 -0.000482037 -0.00375592)
(0.928055 -0.000599485 -0.00347137)
(0.929341 -0.00056273 -0.00345865)
(0.930097 -0.000741759 -0.00335473)
(0.931227 -0.000961169 -0.0032853)
(0.931348 -0.0011759 -0.00317012)
(0.931309 -0.00111025 -0.00333781)
(0.93041 -0.00103565 -0.0037445)
(0.919647 -0.000194921 -0.0028564)
(0.919402 -0.000511101 -0.00316284)
(0.919254 -0.000671607 -0.00370168)
(0.917911 -0.000815713 -0.00408582)
(0.917159 -0.00073531 -0.00452893)
(0.916188 -0.000840575 -0.00482987)
(0.915991 -0.00105037 -0.00490269)
(0.915045 -0.00137591 -0.00462949)
(0.915128 -0.00156655 -0.00428073)
(0.9145 -0.00158108 -0.00357956)
(0.914231 -0.00141752 -0.00289241)
(0.913117 -0.00129025 -0.00227527)
(0.913527 -0.00114166 -0.00184306)
(0.913544 -0.0011925 -0.00144362)
(0.914495 -0.00118135 -0.00144071)
(0.914105 -0.00120897 -0.00134461)
(0.914143 -0.000933054 -0.00109531)
(0.913798 -0.000753581 -0.000767315)
(0.91435 -0.000506365 -0.000611794)
(0.914646 -0.000449076 -0.000358894)
(0.915737 -0.000331511 -0.000346789)
(0.916188 -0.000175133 -0.000625345)
(0.916654 0.000111407 -0.00122459)
(0.915918 0.000198744 -0.00167001)
(0.915373 0.000327589 -0.00197639)
(0.91487 0.000436012 -0.00217753)
(0.91565 0.000530683 -0.0023601)
(0.915718 0.000331776 -0.00250477)
(0.916969 0.000202354 -0.00255009)
(0.917312 7.29693e-05 -0.00242194)
(0.917728 4.94929e-05 -0.00228239)
(0.917322 -5.69847e-05 -0.0020695)
(0.918034 -0.000141849 -0.00208006)
(0.918099 -0.000180315 -0.00223403)
(0.919074 -2.91064e-05 -0.00257108)
(0.919355 -0.000128525 -0.00259147)
(0.920076 -0.000224369 -0.00240307)
(0.919754 -0.000252575 -0.00205808)
(0.919614 -6.62132e-05 -0.00216484)
(0.919052 -6.39711e-05 -0.00245294)
(0.907451 0.000486501 -0.00242686)
(0.907034 0.000159692 -0.00254232)
(0.906822 -7.42179e-06 -0.00302457)
(0.905264 -0.000214208 -0.00340486)
(0.904791 -0.000260585 -0.0037065)
(0.904014 -0.000585725 -0.00369825)
(0.903913 -0.000782119 -0.00366733)
(0.902936 -0.00106973 -0.00344669)
(0.902992 -0.0011261 -0.00328539)
(0.90229 -0.000992564 -0.00274006)
(0.902115 -0.000723867 -0.00219816)
(0.901042 -0.000707019 -0.00167135)
(0.901765 -0.000762927 -0.00144562)
(0.901698 -0.000819627 -0.00141782)
(0.902459 -0.000707834 -0.00153934)
(0.901605 -0.000621566 -0.00135928)
(0.90206 -0.000355971 -0.00110736)
(0.902495 -0.000255529 -0.000636855)
(0.904121 -0.000123073 -0.000191267)
(0.904818 -0.000200423 0.000344556)
(0.905827 -0.00011634 0.000266966)
(0.905948 -2.29174e-05 -0.00020096)
(0.90618 0.000228848 -0.000691524)
(0.905125 0.000286465 -0.00112179)
(0.90512 0.00042083 -0.00176293)
(0.905108 0.000483804 -0.00208501)
(0.906042 0.00059727 -0.00219981)
(0.90575 0.000369019 -0.0020268)
(0.906251 0.000164285 -0.00163116)
(0.905589 9.48547e-07 -0.0013409)
(0.905662 3.41541e-05 -0.00152106)
(0.90536 3.80251e-05 -0.00205545)
(0.906208 0.000164479 -0.00280692)
(0.905671 0.000329464 -0.00343084)
(0.906678 0.000675265 -0.00385052)
(0.906904 0.000722964 -0.00375994)
(0.907407 0.000805765 -0.00323135)
(0.906745 0.000854303 -0.00255148)
(0.906932 0.000960921 -0.00244497)
(0.906788 0.000744101 -0.00237066)
(0.892912 0.000885701 -0.00165854)
(0.891799 0.000597579 -0.00135307)
(0.891527 0.000499483 -0.00158834)
(0.89029 0.000292348 -0.00174065)
(0.890884 0.000210313 -0.00185109)
(0.89019 -1.56585e-05 -0.00172525)
(0.890032 -7.25098e-05 -0.00143003)
(0.889077 -0.000300246 -0.00112278)
(0.889179 -0.000302115 -0.00105607)
(0.888232 -0.000152604 -0.000939127)
(0.887917 8.16213e-05 -0.000941325)
(0.886638 2.64435e-05 -0.00110691)
(0.886783 -5.36825e-05 -0.00151004)
(0.885835 -4.9754e-05 -0.00195454)
(0.886208 0.000115316 -0.00208746)
(0.885326 0.000151648 -0.00209331)
(0.886892 0.000272569 -0.00194508)
(0.887766 0.000261458 -0.0014979)
(0.889574 0.000346462 -0.000925475)
(0.889814 0.000187346 -0.000827595)
(0.89081 0.000216478 -0.00144629)
(0.89082 0.000247495 -0.00176195)
(0.89157 0.000318819 -0.00153538)