/*--------------------------------*- C++ -*----------------------------------*\
  =========                 |
  \\      /  F ield         | OpenFOAM: The Open Source CFD Toolbox
   \\    /   O peration     | Website:  https://openfoam.org
    \\  /    A nd           | Version:  10
     \\/     M anipulation  |
\*---------------------------------------------------------------------------*/
FoamFile
{
    format      ascii;
    class       volScalarField;
    location    "2";
    object      pMean;
}
// * * * * * * * * * * * * * * * * * * * * * * * * * * * * * * * * * * * * * //

dimensions      [0 2 -2 0 0 0 0];

internalField   nonuniform List<scalar> 
25600
(
4.1628e-06
-1.397e-06
3.06805e-06
2.71639e-06
1.56974e-06
2.55342e-06
2.22659e-06
2.5575e-06
2.76509e-06
2.93104e-06
3.13749e-06
3.24872e-06
3.32463e-06
3.34932e-06
3.27827e-06
3.20781e-06
3.0485e-06
2.88495e-06
2.70595e-06
2.49633e-06
2.32342e-06
2.12731e-06
1.94781e-06
1.77668e-06
1.56971e-06
1.37582e-06
1.1875e-06
9.97019e-07
8.95121e-07
7.71074e-07
7.75131e-07
6.99928e-07
8.80646e-07
7.61042e-07
1.26053e-06
7.73807e-07
1.97803e-06
1.81112e-06
-2.05875e-06
4.32964e-06
3.701e-06
-1.68154e-06
2.72439e-06
2.49873e-06
1.29795e-06
2.34204e-06
2.05421e-06
2.41241e-06
2.72961e-06
2.92948e-06
3.28236e-06
3.44263e-06
3.60184e-06
3.66932e-06
3.58657e-06
3.54935e-06
3.33517e-06
3.16297e-06
2.95074e-06
2.69352e-06
2.52417e-06
2.26383e-06
2.0567e-06
1.85152e-06
1.57691e-06
1.34141e-06
1.07378e-06
8.11288e-07
6.6626e-07
5.24905e-07
5.1799e-07
4.64368e-07
6.41198e-07
5.31396e-07
1.06914e-06
5.66901e-07
1.86415e-06
1.74504e-06
-1.79803e-06
4.10741e-06
3.50024e-06
-1.91076e-06
2.46061e-06
2.28685e-06
1.017e-06
2.14914e-06
1.8819e-06
2.23651e-06
2.70022e-06
2.90101e-06
3.48488e-06
3.65908e-06
3.9179e-06
4.01425e-06
3.89694e-06
3.92634e-06
3.60495e-06
3.43076e-06
3.16047e-06
2.85876e-06
2.73584e-06
2.38583e-06
2.16234e-06
1.9302e-06
1.57564e-06
1.30871e-06
9.2354e-07
5.47413e-07
3.51666e-07
1.91349e-07
1.76196e-07
1.78417e-07
3.35747e-07
2.54509e-07
8.75261e-07
3.52473e-07
1.79232e-06
1.66283e-06
-1.82361e-06
3.91921e-06
3.38045e-06
-2.08282e-06
2.18628e-06
2.04304e-06
6.98034e-07
1.97174e-06
1.6839e-06
1.97634e-06
2.64004e-06
2.79088e-06
3.75265e-06
3.87287e-06
4.26706e-06
4.36353e-06
4.19769e-06
4.36342e-06
3.84422e-06
3.68172e-06
3.31047e-06
2.99109e-06
2.987e-06
2.49306e-06
2.27677e-06
2.02581e-06
1.57976e-06
1.30313e-06
7.3493e-07
1.74563e-07
-8.26024e-08
-2.5496e-07
-2.57735e-07
-1.57383e-07
-7.51942e-08
-1.09533e-07
6.60353e-07
7.72558e-08
1.7832e-06
1.54496e-06
-1.81726e-06
3.7529e-06
3.36002e-06
-2.20969e-06
1.88079e-06
1.76735e-06
3.2391e-07
1.83459e-06
1.44953e-06
1.58193e-06
2.5166e-06
2.54854e-06
4.11179e-06
4.04803e-06
4.63738e-06
4.68056e-06
4.47595e-06
4.89631e-06
4.02762e-06
3.89038e-06
3.34526e-06
3.09882e-06
3.32135e-06
2.58201e-06
2.40944e-06
2.14573e-06
1.61017e-06
1.36013e-06
5.00203e-07
-3.52875e-07
-6.72386e-07
-8.2602e-07
-8.01036e-07
-5.37149e-07
-6.42063e-07
-5.94233e-07
4.26683e-07
-2.96679e-07
1.84215e-06
1.3446e-06
-1.82957e-06
3.59278e-06
3.46565e-06
-2.29362e-06
1.49607e-06
1.43313e-06
-1.17383e-07
1.78614e-06
1.17134e-06
9.97121e-07
2.2946e-06
2.12645e-06
4.60332e-06
4.151e-06
5.02683e-06
4.93444e-06
4.75671e-06
5.58693e-06
4.13957e-06
4.02441e-06
3.20232e-06
3.18775e-06
3.80306e-06
2.66016e-06
2.5675e-06
2.29498e-06
1.70438e-06
1.53982e-06
2.16818e-07
-1.10116e-06
-1.46291e-06
-1.53859e-06
-1.44039e-06
-9.2387e-07
-1.42615e-06
-1.23406e-06
1.98278e-07
-8.02089e-07
2.02392e-06
1.01127e-06
-1.82104e-06
3.43747e-06
3.76027e-06
-2.32481e-06
9.70194e-07
1.0084e-06
-6.1881e-07
1.89805e-06
8.45565e-07
1.40989e-07
1.93172e-06
1.48387e-06
5.30036e-06
4.15057e-06
5.42517e-06
5.06585e-06
5.06524e-06
6.51473e-06
4.14661e-06
4.00471e-06
2.79181e-06
3.31892e-06
4.50554e-06
2.7106e-06
2.74255e-06
2.47707e-06
1.93093e-06
1.9415e-06
-1.06057e-07
-2.14987e-06
-2.49919e-06
-2.38192e-06
-2.15524e-06
-1.2628e-06
-2.5023e-06
-2.05007e-06
1.64674e-08
-1.45715e-06
2.38738e-06
4.67748e-07
-1.80753e-06
3.30723e-06
4.32427e-06
-2.30247e-06
2.1954e-07
4.44617e-07
-1.1566e-06
2.24414e-06
4.774e-07
-1.09116e-06
1.36843e-06
5.96582e-07
6.29929e-06
4.05308e-06
5.82452e-06
5.03594e-06
5.45302e-06
7.75855e-06
4.0163e-06
3.73097e-06
2.02506e-06
3.5584e-06
5.51253e-06
2.71915e-06
2.90555e-06
2.68318e-06
2.39024e-06
2.68902e-06
-4.67627e-07
-3.60152e-06
-3.79785e-06
-3.32351e-06
-2.88932e-06
-1.49241e-06
-3.98193e-06
-3.07488e-06
-3.07552e-08
-2.29329e-06
3.0145e-06
-3.82156e-07
-1.77788e-06
3.25508e-06
5.22331e-06
-2.24278e-06
-8.63259e-07
-2.97e-07
-1.63012e-06
2.89728e-06
7.35961e-08
-2.80317e-06
5.6547e-07
-5.27341e-07
7.69035e-06
3.85972e-06
6.20458e-06
4.78458e-06
5.99601e-06
9.39869e-06
3.7003e-06
3.03361e-06
8.41839e-07
4.06069e-06
6.87461e-06
2.6508e-06
3.02177e-06
2.91857e-06
3.23069e-06
3.91088e-06
-8.99593e-07
-5.57597e-06
-5.37358e-06
-4.28688e-06
-3.56844e-06
-1.56352e-06
-5.99441e-06
-4.3364e-06
1.14223e-07
-3.32591e-06
3.98003e-06
-1.66706e-06
-1.70214e-06
3.36201e-06
6.47807e-06
-2.18832e-06
-2.40437e-06
-1.24758e-06
-1.91488e-06
3.93353e-06
-3.92073e-07
-5.10979e-06
-4.85308e-07
-1.85804e-06
9.51802e-06
3.52595e-06
6.51359e-06
4.3066e-06
6.82719e-06
1.14894e-05
3.10899e-06
1.72657e-06
-7.57567e-07
4.96642e-06
8.63354e-06
2.43139e-06
3.02212e-06
3.20704e-06
4.66221e-06
5.73092e-06
-1.46769e-06
-8.17783e-06
-7.16482e-06
-5.18585e-06
-4.12869e-06
-1.44171e-06
-8.67486e-06
-5.80332e-06
6.05528e-07
-4.64751e-06
5.35887e-06
-3.51343e-06
-1.50822e-06
3.76546e-06
8.03861e-06
-2.24353e-06
-4.50888e-06
-2.36804e-06
-1.83892e-06
5.34885e-06
-9.57808e-07
-8.11551e-06
-1.70861e-06
-3.26329e-06
1.17036e-05
3.01138e-06
6.66858e-06
3.66851e-06
8.12109e-06
1.39983e-05
2.11147e-06
-3.67402e-07
-2.6769e-06
6.48449e-06
1.07164e-05
1.96937e-06
2.8536e-06
3.62281e-06
6.97117e-06
8.20358e-06
-2.28795e-06
-1.14945e-05
-9.06262e-06
-5.81988e-06
-4.56419e-06
-1.18746e-06
-1.21355e-05
-7.40954e-06
1.66128e-06
-6.37194e-06
7.15542e-06
-6.05678e-06
-1.05927e-06
4.70505e-06
9.68915e-06
-2.55212e-06
-7.26463e-06
-3.53833e-06
-1.09043e-06
7.0118e-06
-1.74752e-06
-1.18932e-05
-3.01426e-06
-4.54779e-06
1.40754e-05
2.13412e-06
6.68245e-06
3.07483e-06
1.02257e-05
1.67363e-05
5.13281e-07
-3.33185e-06
-4.66309e-06
8.82313e-06
1.28271e-05
1.05765e-06
2.52327e-06
4.32741e-06
1.05269e-05
1.12362e-05
-3.53005e-06
-1.55025e-05
-1.08267e-05
-5.95068e-06
-4.97058e-06
-8.59419e-07
-1.64252e-05
-8.93891e-06
3.51974e-06
-8.83474e-06
9.3429e-06
-9.35025e-06
-1.05017e-07
6.40991e-06
1.09075e-05
-3.35241e-06
-1.05827e-05
-4.45937e-06
6.59745e-07
8.59269e-06
-2.89888e-06
-1.63922e-05
-4.13142e-06
-5.5167e-06
1.62672e-05
6.80936e-07
6.58997e-06
2.93476e-06
1.34741e-05
1.9304e-05
-1.8846e-06
-7.30851e-06
-6.32831e-06
1.23022e-05
1.44991e-05
-5.84739e-07
2.11096e-06
5.60324e-06
1.57864e-05
1.45109e-05
-5.45859e-06
-2.00768e-05
-1.20525e-05
-5.18161e-06
-5.6635e-06
-6.12506e-07
-2.14969e-05
-1.01321e-05
6.54816e-06
-1.24345e-05
1.17873e-05
-1.34118e-05
1.78458e-06
9.27832e-06
1.10701e-05
-4.94228e-06
-1.43489e-05
-4.73191e-06
3.86021e-06
9.47024e-06
-4.67658e-06
-2.145e-05
-4.65841e-06
-5.83365e-06
1.75866e-05
-1.55716e-06
6.62377e-06
3.83126e-06
1.83326e-05
2.10727e-05
-5.41168e-06
-1.22071e-05
-7.09248e-06
1.71898e-05
1.49088e-05
-3.35818e-06
1.81898e-06
7.94492e-06
2.33127e-05
1.74886e-05
-8.37192e-06
-2.48635e-05
-1.21618e-05
-3.03941e-06
-7.11007e-06
-6.87622e-07
-2.71172e-05
-1.04847e-05
1.12111e-05
-1.79338e-05
1.42494e-05
-1.81361e-05
5.22456e-06
1.37908e-05
8.85993e-06
-7.7633e-06
-1.81177e-05
-3.56849e-06
9.03914e-06
8.74487e-06
-7.38746e-06
-2.67646e-05
-3.95826e-06
-5.1463e-06
1.71021e-05
-4.90307e-06
7.12865e-06
6.61431e-06
2.53224e-05
2.09414e-05
-1.0396e-05
-1.78083e-05
-6.12496e-06
2.38373e-05
1.28592e-05
-7.77763e-06
1.99519e-06
1.20142e-05
3.38033e-05
1.9257e-05
-1.26862e-05
-2.92768e-05
-1.03567e-05
1.14817e-06
-1.02843e-05
-1.4898e-06
-3.29725e-05
-9.35117e-06
1.80215e-05
-2.63665e-05
1.63397e-05
-2.33289e-05
1.10019e-05
2.0515e-05
3.23568e-06
-1.23464e-05
-2.1649e-05
-3.88579e-07
1.66441e-05
5.08431e-06
-1.15472e-05
-3.18986e-05
-1.362e-06
-3.06937e-06
1.3379e-05
-9.96045e-06
8.57305e-06
1.22641e-05
3.48864e-05
1.75326e-05
-1.73092e-05
-2.36456e-05
-2.56308e-06
3.24864e-05
6.73722e-06
-1.45909e-05
3.11637e-06
1.8752e-05
4.79062e-05
1.85057e-05
-1.88717e-05
-3.25461e-05
-5.70882e-06
7.97609e-06
-1.63991e-05
-3.52759e-06
-3.85743e-05
-5.99314e-06
2.75305e-05
-3.9223e-05
1.74292e-05
-2.87365e-05
2.0071e-05
2.96767e-05
-8.65888e-06
-1.89759e-05
-2.39373e-05
5.96444e-06
2.67895e-05
-3.18912e-06
-1.77826e-05
-3.6334e-05
3.86367e-06
4.03228e-07
4.73152e-06
-1.73857e-05
1.15123e-05
2.18795e-05
4.70776e-05
9.02661e-06
-2.66295e-05
-2.91765e-05
4.50125e-06
4.301e-05
-5.47501e-06
-2.49425e-05
5.71197e-06
2.8932e-05
6.60541e-05
1.34737e-05
-2.7578e-05
-3.36486e-05
2.66308e-06
1.78197e-05
-2.71961e-05
-7.63747e-06
-4.33397e-05
3.07601e-07
3.9665e-05
-5.82792e-05
1.65943e-05
-3.40623e-05
3.30473e-05
4.115e-05
-2.80881e-05
-2.97129e-05
-2.51276e-05
1.59201e-05
3.88474e-05
-1.82998e-05
-2.69544e-05
-3.96222e-05
1.21049e-05
4.58986e-06
-1.11905e-05
-2.82029e-05
1.65048e-05
3.64179e-05
6.12244e-05
-6.99467e-06
-3.91484e-05
-3.38021e-05
1.57751e-05
5.44508e-05
-2.62744e-05
-4.01559e-05
1.03249e-05
4.33562e-05
8.77603e-05
2.35615e-06
-3.9505e-05
-3.15646e-05
1.56297e-05
3.01013e-05
-4.48325e-05
-1.46948e-05
-4.68649e-05
1.02993e-05
5.36304e-05
-8.60997e-05
1.25892e-05
-3.9197e-05
5.06086e-05
5.3803e-05
-5.94653e-05
-4.34761e-05
-2.40327e-05
3.04796e-05
5.1281e-05
-4.2886e-05
-4.0532e-05
-4.16455e-05
2.35611e-05
7.63697e-06
-3.68504e-05
-4.39022e-05
2.35858e-05
5.65055e-05
7.53969e-05
-3.31171e-05
-5.61069e-05
-3.75256e-05
3.16518e-05
6.511e-05
-5.87216e-05
-6.2315e-05
1.71673e-05
6.25878e-05
0.00011165
-1.84043e-05
-5.57776e-05
-2.54098e-05
3.36697e-05
4.3542e-05
-7.19802e-05
-2.65855e-05
-4.87406e-05
2.4362e-05
6.73955e-05
-0.000125338
3.88417e-06
-4.44418e-05
7.25891e-05
6.52486e-05
-0.000104659
-6.82759e-05
-2.23288e-05
4.97519e-05
6.09165e-05
-8.00729e-05
-6.04164e-05
-4.23943e-05
3.72097e-05
5.95881e-06
-7.60244e-05
-6.58422e-05
3.28147e-05
8.23527e-05
8.6001e-05
-7.30885e-05
-7.89921e-05
-3.98006e-05
5.15836e-05
7.1299e-05
-0.00010607
-9.41944e-05
2.58486e-05
8.74841e-05
0.000134165
-4.99419e-05
-7.81909e-05
-1.43944e-05
5.71233e-05
5.47118e-05
-0.000111311
-4.50901e-05
-4.96347e-05
4.32446e-05
7.60166e-05
-0.000180193
-1.16883e-05
-5.00999e-05
9.85703e-05
7.16108e-05
-0.000171601
-9.68925e-05
-1.69173e-05
7.35688e-05
6.5121e-05
-0.000136318
-8.98926e-05
-4.04066e-05
5.53326e-05
-3.61428e-06
-0.000135958
-9.96895e-05
4.46025e-05
0.000114468
9.01594e-05
-0.000133087
-0.000111369
-3.78001e-05
7.74401e-05
6.99966e-05
-0.000175133
-0.000140018
3.66793e-05
0.000119914
0.000153293
-0.000101815
-0.00011138
1.49136e-06
8.75886e-05
6.12352e-05
-0.000169024
-7.40784e-05
-4.77401e-05
6.99207e-05
7.98729e-05
-0.000258277
-3.94451e-05
-5.34937e-05
0.000130695
6.88389e-05
-0.000266702
-0.000150029
-3.01529e-06
0.000111381
6.13642e-05
-0.000215795
-0.000131731
-2.63295e-05
8.7997e-05
-2.38247e-05
-0.000220987
-0.000141874
6.28754e-05
0.000159647
8.53684e-05
-0.000218413
-0.000154533
-2.49068e-05
0.0001214
6.17235e-05
-0.000271414
-0.000202024
5.18284e-05
0.000167586
0.000166314
-0.000172125
-0.00015577
2.48576e-05
0.000134161
6.24472e-05
-0.000249356
-0.000118045
-4.02605e-05
0.000114586
7.15191e-05
-0.00036617
-8.35833e-05
-4.70905e-05
0.000184129
5.74645e-05
-0.000384127
-0.000189238
3.52186e-05
0.000188563
5.4415e-05
-0.000312636
-0.000175659
1.31344e-05
0.000162419
-5.18558e-05
-0.000332787
-0.000189369
0.000103255
0.000247308
7.85643e-05
-0.000325033
-0.00020338
1.63666e-05
0.000203788
4.38251e-05
-0.000391035
-0.000270971
8.67382e-05
0.000248173
0.000175222
-0.000270401
-0.000206216
6.76662e-05
0.000211384
5.96684e-05
-0.000349824
-0.000168716
-1.02e-05
0.000196043
6.5934e-05
-0.000498521
-0.000132902
-5.75207e-06
0.000282613
4.38368e-05
-0.000503642
-0.000223351
0.000111357
0.000278809
4.72252e-05
-0.000401682
-0.000204642
9.39164e-05
0.000265813
-7.53079e-05
-0.000438039
-0.000213648
0.000183839
0.000340255
7.20864e-05
-0.000418996
-0.000221267
9.34466e-05
0.000319929
3.3407e-05
-0.000518761
-0.000326872
0.0001555
0.000366904
0.000194886
-0.000365216
-0.000257244
0.000138293
0.00031469
6.8577e-05
-0.000448326
-0.000211984
5.1654e-05
0.000308242
5.88739e-05
-0.000621977
-0.000165586
7.64789e-05
0.000422487
3.28381e-05
-0.000589758
-0.000226415
0.000216942
0.00040004
4.36735e-05
-0.000480889
-0.000207168
0.000200361
0.000388337
-9.07441e-05
-0.000522825
-0.000215209
0.000286681
0.000483105
7.04729e-05
-0.000492196
-0.000239649
0.000194388
0.000448613
3.08201e-05
-0.000616843
-0.00034877
0.00025453
0.000492498
0.000214224
-0.000449172
-0.000268072
0.000232343
0.00043261
7.17902e-05
-0.000533288
-0.000233908
0.000140604
0.000415858
6.64842e-05
-0.000717582
-0.000161057
0.000186035
0.000566904
6.35858e-05
-0.000623418
-0.000218567
0.000317602
0.000511543
3.59144e-05
-0.000524638
-0.000211938
0.000298621
0.000496659
-0.000102107
-0.000573173
-0.000198728
0.000384354
0.000605946
6.38428e-05
-0.000525834
-0.000219825
0.000288547
0.0005628
3.24066e-05
-0.000674496
-0.000348985
0.000352841
0.000603327
0.000243127
-0.000496022
-0.000298742
0.000314946
0.000548653
7.38991e-05
-0.000572728
-0.000210271
0.000237038
0.000527981
5.68906e-05
-0.000765993
-0.000150017
0.000286039
0.000677601
6.52698e-05
-0.000630616
-0.000188243
0.00038268
0.000595301
2.85492e-05
-0.000540038
-0.000219791
0.000359195
0.000564623
-0.000114116
-0.000573019
-0.000196715
0.000454772
0.000678897
6.28299e-05
-0.000545155
-0.000254199
0.00035238
0.000641305
3.22432e-05
-0.000698037
-0.000328944
0.000427958
0.000643199
0.000238796
-0.000522691
-0.000303817
0.000366336
0.000608505
7.17944e-05
-0.000588111
-0.000229444
0.000302512
0.000601222
4.65541e-05
-0.000776111
-0.000150978
0.000351027
0.000760212
6.89392e-05
-0.000642245
-0.000210904
0.000395118
0.000627221
2.81383e-05
-0.000555646
-0.000236464
0.000376325
0.000579178
-0.000114965
-0.00058734
-0.00019451
0.00046619
0.000725572
5.46431e-05
-0.00055081
-0.000248003
0.000369515
0.000658525
3.55751e-05
-0.000715237
-0.000333745
0.000454454
0.00068003
0.000235775
-0.000521568
-0.000318224
0.000377725
0.000639425
5.82356e-05
-0.000598182
-0.00021459
0.000322778
0.000617428
3.54636e-05
-0.000783936
-0.000172909
0.000363381
0.000776867
6.37805e-05
-0.000646513
-0.000207249
0.000386413
0.00062565
2.49104e-05
-0.000568098
-0.000257129
0.000363075
0.000577114
-0.000120981
-0.000608622
-0.000194792
0.000460207
0.000714386
5.72427e-05
-0.000554241
-0.000266815
0.000357338
0.000652312
3.20019e-05
-0.000726049
-0.000344228
0.000446659
0.000666518
0.000234516
-0.000521501
-0.000322677
0.000359753
0.000633352
5.26289e-05
-0.000606903
-0.000220859
0.000312298
0.000605737
4.2568e-05
-0.000787268
-0.000181809
0.000348565
0.000769224
6.06738e-05
-0.000643816
-0.00020918
0.000375314
0.000614251
1.8108e-05
-0.000573625
-0.000262504
0.000352661
0.000563703
-0.00013044
-0.000608851
-0.000193969
0.000453474
0.000706054
4.84049e-05
-0.000557244
-0.000264318
0.000345013
0.000640032
1.79267e-05
-0.00072161
-0.000345487
0.000436938
0.000656891
0.000228937
-0.000518852
-0.000322429
0.000346622
0.00062142
4.14386e-05
-0.000610405
-0.000222612
0.000301384
0.00059389
2.79576e-05
-0.000789455
-0.00018121
0.000335343
0.000755876
5.22828e-05
-0.000643629
-0.000201264
0.000374738
0.000600736
3.04094e-06
-0.00057507
-0.000253509
0.000351379
0.000555316
-0.000142649
-0.000606469
-0.000183764
0.000452236
0.000697162
3.78166e-05
-0.00055756
-0.000260307
0.000343622
0.000627131
7.3216e-06
-0.000721181
-0.000334094
0.000437431
0.000644944
0.000214788
-0.000519836
-0.000321172
0.000343728
0.000608185
2.91863e-05
-0.000611158
-0.000216807
0.000299323
0.000587989
2.04919e-05
-0.000787044
-0.000177838
0.000331974
0.000744863
3.95337e-05
-0.000651081
-0.000197034
0.000381177
0.00059767
-7.18873e-06
-0.000582594
-0.000245777
0.000356213
0.00055376
-0.000153702
-0.000612243
-0.000179466
0.000458395
0.000698318
3.03412e-05
-0.000567045
-0.000259502
0.000347782
0.000626661
-2.17929e-06
-0.000729139
-0.000327118
0.000443546
0.000643765
0.000205254
-0.000530897
-0.000321935
0.00034889
0.000605342
2.23075e-05
-0.000619229
-0.000216856
0.000303398
0.000589832
1.38852e-05
-0.000793952
-0.000177223
0.000334896
0.000745149
3.13788e-05
4.16859e-06
-1.37547e-06
3.02419e-06
2.75206e-06
1.58228e-06
2.57189e-06
2.24629e-06
2.58385e-06
2.79281e-06
2.95637e-06
3.15658e-06
3.26066e-06
3.33225e-06
3.35561e-06
3.27908e-06
3.20531e-06
3.03716e-06
2.87e-06
2.68737e-06
2.4762e-06
2.30173e-06
2.10629e-06
1.93453e-06
1.76993e-06
1.57065e-06
1.38073e-06
1.20253e-06
1.02815e-06
9.34393e-07
8.06034e-07
8.05191e-07
7.2776e-07
9.02543e-07
7.77682e-07
1.26807e-06
7.76005e-07
1.98017e-06
1.83883e-06
-2.00672e-06
4.28675e-06
3.85783e-06
-1.65969e-06
2.67717e-06
2.5413e-06
1.29024e-06
2.3216e-06
2.04116e-06
2.43494e-06
2.77142e-06
2.96714e-06
3.30494e-06
3.45803e-06
3.61977e-06
3.69428e-06
3.60393e-06
3.55726e-06
3.32897e-06
3.15717e-06
2.94764e-06
2.68729e-06
2.50316e-06
2.2421e-06
2.06415e-06
1.87055e-06
1.59687e-06
1.3446e-06
1.09295e-06
8.71128e-07
7.4487e-07
5.82809e-07
5.5151e-07
4.95577e-07
6.67229e-07
5.58041e-07
1.0781e-06
5.71198e-07
1.84848e-06
1.798e-06
-1.88731e-06
4.0143e-06
3.62932e-06
-1.903e-06
2.44026e-06
2.37693e-06
9.76767e-07
2.04745e-06
1.81966e-06
2.2902e-06
2.82094e-06
2.99111e-06
3.51947e-06
3.68536e-06
3.97898e-06
4.10619e-06
3.95571e-06
3.94834e-06
3.60039e-06
3.45137e-06
3.2058e-06
2.88054e-06
2.7041e-06
2.35682e-06
2.22802e-06
2.01757e-06
1.64067e-06
1.30072e-06
9.53649e-07
6.79728e-07
5.32234e-07
3.11429e-07
2.22335e-07
2.17399e-07
3.87503e-07
3.22344e-07
8.95485e-07
3.54371e-07
1.76654e-06
1.74688e-06
-1.86923e-06
3.83854e-06
3.46929e-06
-2.09592e-06
2.26464e-06
2.251e-06
6.00307e-07
1.72086e-06
1.5648e-06
2.15064e-06
2.97006e-06
3.00643e-06
3.81487e-06
3.93544e-06
4.4508e-06
4.6256e-06
4.34718e-06
4.39666e-06
3.83402e-06
3.785e-06
3.48387e-06
3.06763e-06
2.91236e-06
2.44166e-06
2.46056e-06
2.24485e-06
1.71617e-06
1.25059e-06
7.79053e-07
4.59684e-07
3.10323e-07
-1.76422e-08
-2.02038e-07
-1.00672e-07
6.32269e-08
8.21868e-08
7.21432e-07
6.98673e-08
1.73963e-06
1.72699e-06
-1.78305e-06
3.68069e-06
3.29697e-06
-2.27437e-06
2.16813e-06
2.19779e-06
1.30798e-07
1.31657e-06
1.26428e-06
2.0312e-06
3.26189e-06
2.98108e-06
4.2043e-06
4.18561e-06
5.08222e-06
5.27398e-06
4.75946e-06
4.89285e-06
3.9842e-06
4.19302e-06
3.79175e-06
3.2499e-06
3.11676e-06
2.46487e-06
2.80132e-06
2.59609e-06
1.83521e-06
1.18022e-06
5.54722e-07
2.10435e-07
9.80421e-08
-4.15984e-07
-7.80265e-07
-4.5215e-07
-2.95348e-07
-1.32066e-07
5.63817e-07
-3.39328e-07
1.78561e-06
1.761e-06
-1.58753e-06
3.52011e-06
3.04221e-06
-2.45416e-06
2.19259e-06
2.27433e-06
-4.78857e-07
7.88129e-07
9.06478e-07
1.96365e-06
3.75101e-06
2.87114e-06
4.6985e-06
4.39955e-06
5.93506e-06
6.07961e-06
5.17377e-06
5.4039e-06
4.00004e-06
4.73891e-06
4.14612e-06
3.41888e-06
3.27812e-06
2.39721e-06
3.31593e-06
3.13301e-06
2.00511e-06
1.04838e-06
2.60493e-07
-6.87436e-08
-7.21975e-08
-9.30215e-07
-1.57924e-06
-8.08919e-07
-6.83037e-07
-2.73003e-07
4.09565e-07
-9.71221e-07
1.9236e-06
1.86064e-06
-1.214e-06
3.30299e-06
2.61551e-06
-2.66539e-06
2.39285e-06
2.53666e-06
-1.29347e-06
6.11585e-08
4.82819e-07
2.00879e-06
4.5217e-06
2.60927e-06
5.26353e-06
4.52155e-06
7.08116e-06
7.06179e-06
5.54806e-06
5.87053e-06
3.80455e-06
5.50194e-06
4.55583e-06
3.56333e-06
3.30356e-06
2.1837e-06
4.0948e-06
3.9414e-06
2.22205e-06
7.79163e-07
-1.42282e-07
-3.673e-07
-1.53241e-07
-1.60961e-06
-2.72722e-06
-1.15599e-06
-1.06449e-06
-2.6943e-07
2.34781e-07
-1.98372e-06
2.16779e-06
2.06945e-06
-6.11404e-07
2.95255e-06
1.86381e-06
-2.91981e-06
2.86265e-06
3.07356e-06
-2.38729e-06
-9.70549e-07
-1.08764e-08
2.26041e-06
5.66539e-06
2.09664e-06
5.79337e-06
4.45273e-06
8.60049e-06
8.22901e-06
5.82073e-06
6.21227e-06
3.3524e-06
6.59694e-06
5.03556e-06
3.63238e-06
3.07894e-06
1.76707e-06
5.23232e-06
5.13783e-06
2.46862e-06
2.43483e-07
-6.82835e-07
-6.74027e-07
-5.82597e-08
-2.58651e-06
-4.38094e-06
-1.45642e-06
-1.40808e-06
-1.13846e-08
-8.6745e-08
-3.59282e-06
2.53851e-06
2.43982e-06
2.68349e-07
2.35555e-06
5.75672e-07
-3.23707e-06
3.72976e-06
4.01639e-06
-3.85074e-06
-2.45139e-06
-5.64906e-07
2.8447e-06
7.30932e-06
1.22013e-06
6.16985e-06
4.09709e-06
1.05915e-05
9.6249e-06
5.95036e-06
6.28062e-06
2.57456e-06
8.1438e-06
5.59557e-06
3.56302e-06
2.38196e-06
1.10258e-06
6.86667e-06
6.88884e-06
2.69723e-06
-7.50325e-07
-1.3921e-06
-9.59265e-07
3.36979e-07
-3.95046e-06
-6.75266e-06
-1.6612e-06
-1.63102e-06
6.96655e-07
-5.75363e-07
-6.07138e-06
3.06249e-06
3.07699e-06
1.48873e-06
1.353e-06
-1.53535e-06
-3.5988e-06
5.16086e-06
5.52923e-06
-5.78327e-06
-4.5929e-06
-1.16559e-06
3.94644e-06
9.61872e-06
-1.84521e-07
6.22317e-06
3.35576e-06
1.31982e-05
1.13495e-05
5.83742e-06
5.86624e-06
1.4409e-06
1.0283e-05
6.28598e-06
3.27803e-06
9.46959e-07
1.05871e-07
9.13183e-06
9.42508e-06
2.81613e-06
-2.46822e-06
-2.30237e-06
-1.15599e-06
1.27695e-06
-5.88724e-06
-1.01173e-05
-1.72599e-06
-1.62355e-06
2.12038e-06
-1.35405e-06
-9.74903e-06
3.75627e-06
4.13414e-06
3.15912e-06
-2.89832e-07
-4.81568e-06
-4.01296e-06
7.37509e-06
7.858e-06
-8.29869e-06
-7.67237e-06
-1.7992e-06
5.76894e-06
1.28414e-05
-2.33742e-06
5.74079e-06
2.08877e-06
1.65911e-05
1.3565e-05
5.35858e-06
4.68798e-06
-9.54048e-08
1.31904e-05
7.24808e-06
2.66393e-06
-1.56568e-06
-1.31036e-06
1.21639e-05
1.30643e-05
2.68215e-06
-5.24981e-06
-3.50043e-06
-1.18208e-06
3.05412e-06
-8.59851e-06
-1.48044e-05
-1.5977e-06
-1.25471e-06
4.60446e-06
-2.53238e-06
-1.49937e-05
4.61887e-06
5.81671e-06
5.42588e-06
-2.84978e-06
-9.74568e-06
-4.5786e-06
1.06246e-05
1.133e-05
-1.15175e-05
-1.20755e-05
-2.47507e-06
8.66685e-06
1.7341e-05
-5.59041e-06
4.48231e-06
6.93968e-08
2.09392e-05
1.65256e-05
4.32999e-06
2.40648e-06
-2.11998e-06
1.70514e-05
8.69122e-06
1.48401e-06
-5.66925e-06
-3.37529e-06
1.61815e-05
1.82486e-05
2.04484e-06
-9.56186e-06
-5.11003e-06
-9.37417e-07
6.13723e-06
-1.24339e-05
-2.12425e-05
-1.33077e-06
-3.02098e-07
8.6204e-06
-4.32907e-06
-2.22441e-05
5.58821e-06
8.39034e-06
8.50402e-06
-6.71489e-06
-1.68297e-05
-5.53471e-06
1.52173e-05
1.6418e-05
-1.56553e-05
-1.82631e-05
-3.26862e-06
1.29742e-05
2.36933e-05
-1.02133e-05
2.0041e-06
-3.07135e-06
2.64713e-05
2.06579e-05
2.56489e-06
-1.42603e-06
-4.76342e-06
2.21328e-05
1.11117e-05
-5.15594e-07
-1.1817e-05
-6.33641e-06
2.13978e-05
2.55724e-05
5.94384e-07
-1.59128e-05
-7.36701e-06
-2.11765e-07
1.11797e-05
-1.77865e-05
-2.99587e-05
-1.10948e-06
1.64083e-06
1.48875e-05
-7.08465e-06
-3.20294e-05
6.46741e-06
1.22042e-05
1.27447e-05
-1.23752e-05
-2.66897e-05
-7.27862e-06
2.14898e-05
2.3762e-05
-2.09561e-05
-2.68311e-05
-4.30466e-06
1.9196e-05
3.25994e-05
-1.67583e-05
-2.12637e-06
-7.89949e-06
3.34679e-05
2.64802e-05
-4.15392e-07
-7.26004e-06
-8.4329e-06
2.87878e-05
1.50745e-05
-4.07724e-06
-2.06803e-05
-1.06694e-05
2.80981e-05
3.57851e-05
-2.22479e-06
-2.50873e-05
-1.09283e-05
1.28293e-06
1.90423e-05
-2.53481e-05
-4.1551e-05
-1.36744e-06
4.87666e-06
2.42125e-05
-1.12826e-05
-4.49999e-05
6.91149e-06
1.76821e-05
1.86471e-05
-2.05596e-05
-4.00256e-05
-1.04222e-05
2.98916e-05
3.41442e-05
-2.79062e-05
-3.84407e-05
-6.14867e-06
2.78542e-05
4.48864e-05
-2.59601e-05
-8.58283e-06
-1.51533e-05
4.22118e-05
3.48859e-05
-4.97234e-06
-1.57991e-05
-1.36446e-05
3.73258e-05
2.18279e-05
-9.61974e-06
-3.28772e-05
-1.70388e-05
3.66553e-05
4.97567e-05
-6.8453e-06
-3.77209e-05
-1.66426e-05
4.03378e-06
3.07356e-05
-3.58131e-05
-5.6813e-05
-2.68018e-06
1.01959e-05
3.76711e-05
-1.76719e-05
-6.18928e-05
6.38662e-06
2.5318e-05
2.68664e-05
-3.22502e-05
-5.75447e-05
-1.59709e-05
4.0919e-05
4.85007e-05
-3.70879e-05
-5.39634e-05
-9.29282e-06
3.97017e-05
6.14359e-05
-3.88218e-05
-1.79444e-05
-2.60536e-05
5.32444e-05
4.65837e-05
-1.23028e-05
-2.79469e-05
-2.14415e-05
4.85303e-05
3.16696e-05
-1.88802e-05
-4.94117e-05
-2.64953e-05
4.74176e-05
6.84594e-05
-1.45514e-05
-5.49016e-05
-2.58543e-05
8.56443e-06
4.73821e-05
-5.05368e-05
-7.6415e-05
-6.29667e-06
1.79774e-05
5.62966e-05
-2.7223e-05
-8.35513e-05
4.02577e-06
3.56761e-05
3.81635e-05
-4.86081e-05
-7.99875e-05
-2.54236e-05
5.50465e-05
6.7794e-05
-4.95906e-05
-7.4166e-05
-1.53531e-05
5.52694e-05
8.28656e-05
-5.67719e-05
-3.11754e-05
-4.19659e-05
6.67928e-05
6.31207e-05
-2.27641e-05
-4.45526e-05
-3.29806e-05
6.25376e-05
4.70911e-05
-3.22297e-05
-7.09733e-05
-4.04737e-05
6.10062e-05
9.28198e-05
-2.57524e-05
-7.73313e-05
-4.00881e-05
1.56253e-05
7.00235e-05
-7.06467e-05
-0.000101593
-1.29826e-05
2.9461e-05
8.12635e-05
-4.13195e-05
-0.000110805
-1.48039e-06
4.92266e-05
5.32226e-05
-7.12272e-05
-0.000108106
-4.0952e-05
7.26599e-05
9.26884e-05
-6.64061e-05
-0.000100217
-2.50416e-05
7.53313e-05
0.000109297
-8.12865e-05
-4.9251e-05
-6.53164e-05
8.37281e-05
8.42041e-05
-3.88205e-05
-6.69472e-05
-5.06722e-05
8.06703e-05
6.58523e-05
-5.28453e-05
-9.87625e-05
-6.11558e-05
7.75051e-05
0.00012396
-4.3371e-05
-0.000106454
-6.21409e-05
2.58009e-05
9.93532e-05
-9.82632e-05
-0.000132969
-2.64173e-05
4.47499e-05
0.000113213
-6.16376e-05
-0.000144707
-1.19324e-05
6.6374e-05
7.23051e-05
-0.000101642
-0.000142858
-6.54995e-05
9.38897e-05
0.000123415
-8.92747e-05
-0.000133193
-4.27513e-05
9.94732e-05
0.000139441
-0.00011384
-7.3269e-05
-9.88846e-05
0.000103603
0.0001126
-6.02446e-05
-9.64648e-05
-7.71467e-05
0.000102381
9.32067e-05
-8.06436e-05
-0.000133986
-9.16523e-05
9.74397e-05
0.00016145
-6.54408e-05
-0.000142783
-9.49558e-05
3.94668e-05
0.000134948
-0.00013454
-0.000172397
-4.64568e-05
6.4867e-05
0.000151874
-8.99276e-05
-0.000186594
-3.04323e-05
8.6736e-05
9.459e-05
-0.000142087
-0.000186313
-0.000104492
0.000117732
0.000158999
-0.000119127
-0.000175331
-6.87682e-05
0.00012774
0.000171162
-0.000155194
-0.000105527
-0.000147802
0.000126638
0.000142346
-9.04933e-05
-0.000134889
-0.000117273
0.000128735
0.000118077
-0.000119476
-0.000178581
-0.000136715
0.000119356
0.000204726
-0.00010007
-0.00018918
-0.000143831
5.62868e-05
0.000175332
-0.000181334
-0.000221462
-8.32421e-05
8.87593e-05
0.000196415
-0.000128265
-0.00023822
-6.03542e-05
0.000109854
0.000118636
-0.000192889
-0.000240462
-0.000164445
0.000143119
0.000197502
-0.00015694
-0.000228604
-0.000116093
0.000157118
0.000204083
-0.000204546
-0.000147309
-0.000217736
0.000150531
0.000182303
-0.00012811
-0.000185985
-0.000178
0.000157832
0.000156759
-0.000166747
-0.000235326
-0.000202416
0.000143004
0.000251937
-0.000133557
-0.000247383
-0.000215654
7.4536e-05
0.000219147
-0.000236577
-0.000282606
-0.000133754
0.000115601
0.000246434
-0.000175245
-0.000303067
-0.000110423
0.00013401
0.000143291
-0.00025444
-0.000313892
-0.000246001
0.000171907
0.000238319
-0.000196163
-0.000299285
-0.000174104
0.000193481
0.000239164
-0.000257426
-0.000206477
-0.000308875
0.000178454
0.000212693
-0.000169286
-0.000255164
-0.000261243
0.000192346
0.000179762
-0.000219511
-0.000308264
-0.00028742
0.000170742
0.000304136
-0.000182739
-0.000320222
-0.000306621
9.78821e-05
0.00026886
-0.000292586
-0.00036076
-0.000211761
0.000146441
0.00030246
-0.000221191
-0.000382193
-0.000180046
0.00016473
0.000172051
-0.000318881
-0.000403113
-0.000332805
0.000213374
0.000288198
-0.000224719
-0.000383269
-0.000256242
0.000239986
0.000296692
-0.000299954
-0.000280206
-0.000407241
0.000214889
0.000272793
-0.000200129
-0.000341502
-0.000354205
0.000236914
0.00024084
-0.00026391
-0.000396893
-0.000379513
0.000208355
0.000364225
-0.000199225
-0.000405792
-0.000396823
0.000136208
0.000327367
-0.000334228
-0.000445833
-0.000287527
0.000191986
0.000359589
-0.000254687
-0.000478608
-0.000259635
0.000212172
0.000211213
-0.000371272
-0.000500785
-0.000382174
0.000276719
0.000337955
-0.000243551
-0.000478655
-0.000309996
0.000309339
0.000383837
-0.000324412
-0.000368002
-0.000476832
0.000269013
0.000312991
-0.000211994
-0.000439048
-0.00042245
0.0003023
0.000283554
-0.000279509
-0.000488465
-0.000448936
0.000264742
0.000440132
-0.000221631
-0.000489079
-0.000456623
0.0001926
0.000410842
-0.00035638
-0.000548062
-0.000345301
0.00025493
0.000457853
-0.000257686
-0.000573375
-0.000305491
0.000283418
0.000269778
-0.00039995
-0.00057985
-0.000398084
0.000359077
0.000422713
-0.00024167
-0.000557397
-0.000334674
0.000396299
0.000481647
-0.000328761
-0.000449589
-0.000514645
0.000336636
0.000407396
-0.000204732
-0.000513784
-0.000453221
0.000373522
0.000367888
-0.000288586
-0.00056802
-0.000473077
0.000334973
0.000535602
-0.000193649
-0.00057671
-0.000480147
0.000272405
0.000514706
-0.000351664
-0.000619891
-0.000365989
0.000334083
0.000533472
-0.000234846
-0.000658882
-0.000328855
0.000369423
0.000334815
-0.000396768
-0.000631185
-0.000378623
0.000443297
0.000465457
-0.0002297
-0.000625336
-0.000333844
0.000477858
0.000569496
-0.000302922
-0.000514847
-0.000501993
0.000405035
0.000435829
-0.000181412
-0.00057563
-0.000441916
0.000443618
0.000423485
-0.00026468
-0.000630535
-0.000451738
0.000412281
0.000601627
-0.000179971
-0.000612937
-0.000461557
0.000342532
0.000582319
-0.000336091
-0.000696513
-0.000349525
0.000420304
0.000646383
-0.000199026
-0.000707354
-0.000314259
0.000446487
0.000407265
-0.000378713
-0.000660282
-0.000361048
0.00050129
0.000525554
-0.000217582
-0.000665617
-0.00032302
0.000526721
0.000624496
-0.000294956
-0.000553684
-0.000508374
0.000448396
0.000491463
-0.000164256
-0.000601879
-0.000435774
0.000480955
0.000464512
-0.000255391
-0.000661993
-0.000450128
0.00043823
0.000679798
-0.000138891
-0.000662725
-0.000460287
0.00038068
0.000629496
-0.000310617
-0.00071219
-0.000330137
0.000468843
0.000674594
-0.000166998
-0.000737783
-0.00030182
0.000500252
0.000434673
-0.00035852
-0.00065045
-0.000355617
0.000514243
0.000538041
-0.000197697
-0.000672658
-0.00032155
0.000531831
0.000652579
-0.000270976
-0.00056308
-0.000490265
0.000467236
0.000499198
-0.000147666
-0.000608402
-0.000431101
0.000489592
0.000486947
-0.00022937
-0.00067537
-0.000423417
0.000453574
0.000674454