/*--------------------------------*- C++ -*----------------------------------*\
  =========                 |
  \\      /  F ield         | OpenFOAM: The Open Source CFD Toolbox
   \\    /   O peration     | Website:  https://openfoam.org
    \\  /    A nd           | Version:  10
     \\/     M anipulation  |
\*---------------------------------------------------------------------------*/
FoamFile
{
    format      ascii;
    class       volVectorField;
    location    "2";
    object      U;
}
// * * * * * * * * * * * * * * * * * * * * * * * * * * * * * * * * * * * * * //

dimensions      [0 1 -1 0 0 0 0];

internalField   nonuniform List<vector> 
25600
(
(1.01587 -7.69475e-05 1.25472e-06)
(1.01585 -0.000109012 4.64403e-07)
(1.01582 -0.000120041 -2.25012e-05)
(1.01584 -0.000104625 -2.5507e-05)
(1.01587 -8.75246e-05 -1.27792e-05)
(1.01586 -7.88369e-05 -2.20531e-05)
(1.0158 -8.13015e-05 -2.81007e-05)
(1.01579 -7.39718e-05 -1.4945e-05)
(1.01584 -5.51668e-05 -3.01417e-06)
(1.01585 -4.28351e-05 4.59837e-06)
(1.01582 -2.34088e-05 9.86851e-06)
(1.01583 -1.046e-05 9.25864e-06)
(1.01585 -8.56736e-06 1.20742e-05)
(1.01586 2.8782e-05 1.34631e-05)
(1.01588 8.21557e-05 1.22805e-05)
(1.01585 7.42902e-05 1.03422e-05)
(1.01577 3.60209e-05 2.92776e-06)
(1.01577 2.1591e-05 -2.44335e-07)
(1.01582 2.57453e-05 -1.94267e-06)
(1.01584 3.68273e-05 -3.81027e-06)
(1.01581 1.38062e-05 1.07109e-06)
(1.0158 -6.33665e-06 6.67537e-06)
(1.0158 1.41448e-05 9.52421e-06)
(1.01581 4.7365e-06 4.75812e-06)
(1.01584 2.64147e-06 -6.42113e-06)
(1.01584 4.10495e-05 -4.89742e-06)
(1.01581 4.98805e-05 -4.16241e-06)
(1.0158 6.11337e-05 -1.95749e-05)
(1.01583 7.58717e-05 -2.10647e-05)
(1.01587 8.22778e-05 -4.2524e-06)
(1.01584 0.00012777 8.3918e-06)
(1.01577 0.000136125 1.07608e-05)
(1.01576 6.13114e-05 7.89529e-06)
(1.01581 4.70821e-05 2.23867e-05)
(1.01581 7.86072e-05 3.44911e-05)
(1.01576 8.74468e-06 1.63716e-05)
(1.01577 -5.58321e-05 4.92092e-06)
(1.0158 -4.19707e-05 1.94683e-05)
(1.01581 -5.79318e-05 2.03758e-05)
(1.01585 -7.1405e-05 -1.64807e-06)
(1.01586 -5.35627e-05 2.09312e-05)
(1.01582 -0.000113307 1.22322e-05)
(1.01582 -0.000139345 -2.63367e-05)
(1.01586 -0.000103316 -1.39525e-05)
(1.0159 -5.38788e-05 -3.02077e-06)
(1.01587 -2.69833e-05 -3.58592e-05)
(1.01579 -6.53553e-05 -4.72504e-05)
(1.0158 -9.50846e-05 -2.63392e-05)
(1.01587 -4.90259e-05 -1.3519e-05)
(1.01586 -2.11009e-05 -4.11331e-06)
(1.01582 -3.60663e-05 3.06042e-06)
(1.01584 -2.33197e-05 4.62453e-06)
(1.01587 -1.63784e-05 1.40481e-05)
(1.01591 2.73476e-05 1.70052e-05)
(1.01592 0.00013356 1.59677e-05)
(1.01582 0.00013004 1.34144e-05)
(1.01573 4.02807e-05 7.9806e-06)
(1.01576 2.74127e-06 5.0043e-06)
(1.01583 2.30742e-05 -7.52814e-06)
(1.01583 5.96561e-05 -1.08431e-05)
(1.01579 2.1143e-05 1.07783e-06)
(1.01579 -1.49912e-05 6.03319e-06)
(1.0158 9.7464e-06 9.34351e-06)
(1.01581 -1.17545e-05 2.168e-06)
(1.01586 5.70092e-06 -1.46515e-05)
(1.01586 6.17765e-05 -7.62557e-06)
(1.01582 4.11851e-05 -6.06476e-06)
(1.01581 4.0968e-05 -3.20572e-05)
(1.01585 5.9169e-05 -3.03936e-05)
(1.0159 9.77778e-05 -4.45378e-06)
(1.01587 0.000183774 1.7587e-05)
(1.01573 0.000141932 1.62821e-05)
(1.01572 1.46383e-05 1.0278e-05)
(1.01583 5.45418e-05 4.47586e-05)
(1.01578 0.000100512 6.14043e-05)
(1.01569 -2.96185e-05 2.20285e-05)
(1.01575 -8.82742e-05 6.83088e-06)
(1.01579 -7.99791e-05 4.15273e-05)
(1.0158 -0.000105118 3.70018e-05)
(1.01585 -7.22137e-05 4.13769e-06)
(1.01584 -2.70999e-05 5.58744e-05)
(1.01578 -0.0001457 1.74546e-05)
(1.01583 -0.000158304 -3.53998e-05)
(1.01591 -8.2335e-05 9.77992e-06)
(1.01594 4.47716e-06 7.25263e-06)
(1.01586 3.45133e-05 -6.51935e-05)
(1.01574 -6.37938e-05 -7.59983e-05)
(1.0158 -0.000119813 -3.99929e-05)
(1.01591 -2.945e-05 -2.70683e-05)
(1.01586 5.97678e-06 -1.22253e-05)
(1.01582 -5.61996e-05 -3.76562e-07)
(1.01585 -4.94031e-05 4.00368e-06)
(1.0159 -5.00711e-05 1.95325e-05)
(1.01599 3.82164e-05 2.31292e-05)
(1.01597 0.000228867 2.14355e-05)
(1.01577 0.000185088 1.79776e-05)
(1.01566 3.08658e-05 1.75407e-05)
(1.01575 -2.46763e-05 9.28563e-06)
(1.01587 2.54436e-05 -1.96894e-05)
(1.01583 0.000101116 -2.03976e-05)
(1.01575 9.97633e-06 -1.04791e-06)
(1.01579 -3.56143e-05 5.7074e-06)
(1.0158 1.57592e-06 1.6359e-05)
(1.01581 -4.5379e-05 -2.97495e-06)
(1.0159 2.30757e-05 -2.77103e-05)
(1.01587 8.8134e-05 -2.23472e-06)
(1.0158 9.29118e-06 -1.15677e-05)
(1.01582 1.38058e-05 -5.84083e-05)
(1.01588 3.88582e-05 -4.20434e-05)
(1.01597 0.000129723 -2.16866e-06)
(1.01588 0.000285871 3.23095e-05)
(1.01563 0.000126501 1.6823e-05)
(1.01569 -6.31688e-05 1.50694e-05)
(1.01588 0.000107857 8.87457e-05)
(1.01573 0.000135035 0.000102609)
(1.0156 -9.86384e-05 2.40477e-05)
(1.01573 -0.000123988 1.04102e-05)
(1.01578 -0.000140725 8.09145e-05)
(1.01581 -0.00015936 5.02416e-05)
(1.01589 -3.57212e-05 9.44413e-06)
(1.01578 -3.38532e-05 0.000108569)
(1.01572 -0.000215609 1.86559e-06)
(1.01587 -0.000168833 -4.02983e-05)
(1.01599 -4.00661e-05 4.95031e-05)
(1.01599 0.000101764 7.15825e-06)
(1.01581 0.000106504 -0.000115561)
(1.01567 -9.15432e-05 -0.000113179)
(1.01582 -0.000161747 -6.11547e-05)
(1.01597 1.30347e-05 -4.94004e-05)
(1.01584 4.52492e-05 -1.79631e-05)
(1.01578 -9.1062e-05 -3.09528e-06)
(1.01585 -0.000104995 3.35695e-06)
(1.01594 -0.000129015 3.1472e-05)
(1.01613 7.40126e-05 3.27359e-05)
(1.01603 0.000388579 2.8652e-05)
(1.01567 0.000235559 2.51356e-05)
(1.01557 1.23599e-06 3.65102e-05)
(1.01576 -7.19373e-05 1.21419e-05)
(1.01593 4.26009e-05 -4.17253e-05)
(1.01582 0.000177087 -3.20942e-05)
(1.01568 -2.82489e-05 -9.26466e-06)
(1.01579 -5.93224e-05 9.04561e-06)
(1.0158 -1.39151e-05 3.58011e-05)
(1.01582 -9.34386e-05 -1.79053e-05)
(1.01596 8.56678e-05 -4.15663e-05)
(1.01585 0.000109601 1.76036e-05)
(1.01576 -5.6527e-05 -3.14438e-05)
(1.01583 -1.51729e-05 -9.86407e-05)
(1.01594 9.28011e-06 -5.2774e-05)
(1.0161 0.000209091 3.23835e-06)
(1.01587 0.000449848 5.21529e-05)
(1.01546 4.85584e-05 9.17192e-06)
(1.0157 -0.000161082 2.6097e-05)
(1.01598 0.000238814 0.000163119)
(1.01562 0.000158028 0.000154142)
(1.01549 -0.000190979 1.20828e-05)
(1.01571 -0.000162037 2.26507e-05)
(1.01576 -0.000268791 0.000138504)
(1.01588 -0.000206035 4.8268e-05)
(1.01596 6.58179e-05 2.51748e-05)
(1.01564 -0.00011252 0.000169695)
(1.01568 -0.00030708 -4.8179e-05)
(1.01595 -0.000180623 -2.73382e-05)
(1.0161 3.03673e-05 0.000119031)
(1.01604 0.000264889 -8.82003e-06)
(1.01572 0.000193744 -0.000186878)
(1.01555 -0.000169356 -0.000157794)
(1.01587 -0.000242312 -9.89715e-05)
(1.01605 9.2643e-05 -8.14704e-05)
(1.01579 0.000107095 -1.84049e-05)
(1.01571 -0.000148924 -7.8132e-06)
(1.01582 -0.000221873 2.31819e-06)
(1.01602 -0.000281579 4.89694e-05)
(1.01636 0.00017031 4.24599e-05)
(1.01609 0.000632852 3.79632e-05)
(1.01549 0.000272914 4.10874e-05)
(1.01544 -5.84108e-05 7.23167e-05)
(1.01578 -0.000166545 9.05857e-06)
(1.01604 9.74353e-05 -7.0707e-05)
(1.01578 0.000310217 -4.23529e-05)
(1.01558 -9.81904e-05 -3.28767e-05)
(1.0158 -7.86281e-05 2.5495e-05)
(1.01578 -5.70028e-05 7.48522e-05)
(1.01588 -0.000136022 -5.26916e-05)
(1.01604 0.00023544 -4.31127e-05)
(1.01577 8.82647e-05 4.95718e-05)
(1.01571 -0.00016644 -8.40981e-05)
(1.01586 -4.42861e-05 -0.000149665)
(1.01604 -4.40899e-05 -6.31614e-05)
(1.01629 0.000390473 1.1177e-05)
(1.01577 0.000675944 7.59345e-05)
(1.01519 -0.000153259 -1.29371e-05)
(1.01582 -0.000248241 5.32371e-05)
(1.01611 0.000457794 0.000276617)
(1.01543 0.00014161 0.000210752)
(1.01537 -0.000277082 -1.41267e-05)
(1.01567 -0.000245349 5.58342e-05)
(1.01575 -0.000528738 0.000197934)
(1.01605 -0.000172641 3.0131e-05)
(1.01601 0.000253532 7.81846e-05)
(1.01541 -0.000271453 0.000219724)
(1.01567 -0.00041772 -0.000131911)
(1.01609 -0.000240849 1.99294e-05)
(1.01627 0.000165967 0.000211207)
(1.0161 0.000542079 -5.76127e-05)
(1.01553 0.000298703 -0.000268589)
(1.01539 -0.000335654 -0.000212261)
(1.01599 -0.000383156 -0.000164204)
(1.01619 0.000235854 -0.000120714)
(1.01569 0.000223179 -1.5211e-05)
(1.01557 -0.000233067 -1.96948e-05)
(1.01576 -0.000461706 3.30323e-06)
(1.01619 -0.000534131 7.33006e-05)
(1.01672 0.000383264 5.34493e-05)
(1.0161 0.00098253 4.50527e-05)
(1.01522 0.000303423 6.78869e-05)
(1.01528 -0.000180139 0.000125956)
(1.01585 -0.000354036 -5.26677e-06)
(1.01624 0.000235254 -9.74429e-05)
(1.0157 0.000519938 -5.32793e-05)
(1.01543 -0.000201909 -7.9559e-05)
(1.01581 -9.2927e-05 7.43081e-05)
(1.01576 -0.00017346 0.000131498)
(1.01601 -0.000104678 -0.000113399)
(1.01611 0.000507257 -1.5189e-05)
(1.01559 -4.55589e-05 8.0253e-05)
(1.01567 -0.000309613 -0.000185004)
(1.01591 -9.33175e-05 -0.00020101)
(1.01622 -0.000133373 -8.23196e-05)
(1.01656 0.000759651 1.98196e-05)
(1.01552 0.000931415 0.000105374)
(1.01486 -0.000536259 -5.24442e-05)
(1.01609 -0.000274065 0.000111932)
(1.01624 0.00074656 0.000439664)
(1.01515 9.68457e-05 0.000262607)
(1.01524 -0.000289523 -4.61248e-05)
(1.01555 -0.000484208 0.000110815)
(1.01581 -0.00095736 0.00023118)
(1.01638 6.17938e-05 5.72377e-06)
(1.016 0.000514083 0.000186846)
(1.01509 -0.000465833 0.00023341)
(1.01569 -0.000582476 -0.000249191)
(1.01629 -0.000405944 0.000132231)
(1.01656 0.000437571 0.000319901)
(1.01612 0.000983163 -0.00013642)
(1.0152 0.000415877 -0.000356558)
(1.01515 -0.000648506 -0.000295528)
(1.01621 -0.000603834 -0.00027249)
(1.01641 0.000485253 -0.00016522)
(1.01551 0.000440747 -8.49855e-06)
(1.01531 -0.000363332 -4.49438e-05)
(1.01565 -0.000920019 7.95975e-06)
(1.01651 -0.000895681 0.00010797)
(1.01724 0.000775738 6.41409e-05)
(1.01604 0.00145343 4.37853e-05)
(1.01481 0.000337893 0.000115354)
(1.01506 -0.000424702 0.000192817)
(1.01602 -0.000678438 -3.9857e-05)
(1.01655 0.000520648 -0.00010935)
(1.01553 0.000816723 -9.06047e-05)
(1.01522 -0.000343861 -0.000160265)
(1.01581 -0.000150499 0.000186198)
(1.01577 -0.00041423 0.000191442)
(1.01627 0.000128312 -0.000190871)
(1.01608 0.000897776 6.56208e-05)
(1.01529 -0.000332981 8.0482e-05)
(1.01568 -0.000454331 -0.00034471)
(1.01597 -0.000225585 -0.000246807)
(1.01653 -0.000219599 -0.000124561)
(1.01691 0.0014148 3.18748e-05)
(1.01501 0.00114686 0.000143008)
(1.01448 -0.00110714 -0.000116105)
(1.01656 -0.000220478 0.000211679)
(1.01633 0.00105544 0.000653297)
(1.01481 0.000125686 0.000303199)
(1.01503 -0.000176711 -7.02623e-05)
(1.01528 -0.00105664 0.000165934)
(1.01606 -0.00152093 0.0002167)
(1.01691 0.000583097 4.99052e-06)
(1.01582 0.000780605 0.00035075)
(1.01468 -0.000595567 0.000196629)
(1.0157 -0.000935235 -0.000374327)
(1.01662 -0.000694381 0.000334304)
(1.01701 0.000949512 0.000423529)
(1.01608 0.00164351 -0.000249314)
(1.01466 0.000532542 -0.000449261)
(1.01484 -0.00118888 -0.000434772)
(1.01659 -0.000918424 -0.0004221)
(1.01674 0.000899337 -0.00021373)
(1.01523 0.000829022 -1.28711e-05)
(1.01484 -0.000585655 -8.51252e-05)
(1.01547 -0.00172342 1.09142e-05)
(1.01709 -0.00134747 0.000157685)
(1.01797 0.00141904 8.47193e-05)
(1.01587 0.00209581 1.97026e-05)
(1.01421 0.000388314 0.00017923)
(1.01474 -0.000904279 0.000260004)
(1.01635 -0.00114652 -8.67469e-05)
(1.01703 0.00104331 -0.000108636)
(1.01523 0.00121562 -0.000205492)
(1.01491 -0.000510367 -0.000306855)
(1.01577 -0.000365425 0.00036754)
(1.0159 -0.000800458 0.000238996)
(1.0167 0.000712617 -0.000260651)
(1.01587 0.00136989 0.000207181)
(1.01486 -0.00078227 4.18693e-05)
(1.01572 -0.000606889 -0.000545912)
(1.01603 -0.000553511 -0.000286064)
(1.01708 -0.000196831 -0.0002178)
(1.01729 0.00243609 5.80097e-05)
(1.01417 0.00125221 0.000189513)
(1.01411 -0.00184865 -0.000227537)
(1.01724 -0.000108212 0.000354297)
(1.01642 0.00134727 0.000918585)
(1.01448 0.000402287 0.000345972)
(1.0146 1.51135e-05 -7.06898e-05)
(1.01483 -0.00216598 0.000187806)
(1.01667 -0.002085 0.000152327)
(1.01761 0.00139928 5.83845e-05)
(1.01543 0.00103868 0.000556654)
(1.01411 -0.000602109 0.000103516)
(1.01564 -0.00168446 -0.000497225)
(1.01719 -0.00101942 0.000639474)
(1.01768 0.00179788 0.000494774)
(1.01592 0.00257303 -0.000382883)
(1.01382 0.000633249 -0.000540775)
(1.01444 -0.00206635 -0.000668929)
(1.01721 -0.00132647 -0.000596482)
(1.01725 0.00155854 -0.000271622)
(1.01478 0.00148195 -3.4754e-05)
(1.01406 -0.000982569 -0.000144127)
(1.01527 -0.00298848 1.09728e-05)
(1.01802 -0.00184696 0.000240794)
(1.01891 0.00236049 0.000111085)
(1.01554 0.00297108 -2.84829e-05)
(1.01334 0.000438989 0.000260472)
(1.0143 -0.00177168 0.000299553)
(1.01695 -0.00174064 -9.82404e-05)
(1.01769 0.00191505 -8.9446e-05)
(1.01476 0.00175839 -0.000477895)
(1.01444 -0.000713229 -0.00051247)
(1.01566 -0.000903445 0.000622681)
(1.01627 -0.0012965 0.000259881)
(1.01732 0.00176431 -0.000276352)
(1.01535 0.00182834 0.000407706)
(1.01432 -0.00136501 -5.63912e-05)
(1.01578 -0.000815461 -0.0007657)
(1.01616 -0.00115385 -0.0003329)
(1.01797 8.66627e-05 -0.000367959)
(1.01762 0.00384468 0.00012809)
(1.01292 0.00123859 0.000239354)
(1.0138 -0.00272947 -0.000403619)
(1.0181 -2.02884e-05 0.000559711)
(1.01656 0.00167669 0.00122962)
(1.01415 0.0011444 0.000404423)
(1.01377 0.000105947 -5.91478e-05)
(1.01425 -0.00391551 0.000132584)
(1.01777 -0.00248021 7.0976e-05)
(1.01842 0.00245537 0.000172815)
(1.01484 0.00140154 0.000770672)
(1.01329 -0.000622741 -9.76056e-05)
(1.0155 -0.00303318 -0.000600421)
(1.01813 -0.00120721 0.00108083)
(1.01858 0.00307122 0.000519259)
(1.01556 0.00381839 -0.000525536)
(1.01259 0.000668254 -0.000667985)
(1.01396 -0.00340698 -0.00105818)
(1.01817 -0.00184002 -0.000777274)
(1.01797 0.00255957 -0.000349912)
(1.01409 0.00251695 -0.000109128)
(1.01284 -0.0016947 -0.000240007)
(1.01507 -0.0048159 -5.48025e-06)
(1.01942 -0.00232248 0.00040065)
(1.02008 0.00366866 0.000151939)
(1.015 0.0041611 -0.000153781)
(1.01209 0.000432709 0.00031912)
(1.01376 -0.00317119 0.000296641)
(1.01795 -0.00239448 -1.89548e-05)
(1.01856 0.00323921 -5.54958e-05)
(1.01405 0.00254643 -0.00101494)
(1.01371 -0.000965897 -0.000794661)
(1.01549 -0.00197296 0.000929674)
(1.01704 -0.00174704 0.00026406)
(1.01807 0.00337405 -0.000207863)
(1.01447 0.00221924 0.000622448)
(1.01367 -0.00204785 -0.000253504)
(1.0158 -0.00121959 -0.00100609)
(1.01641 -0.00201664 -0.000429147)
(1.01926 0.000775236 -0.000576462)
(1.01781 0.00561316 0.000266082)
(1.01124 0.0011369 0.00026029)
(1.01353 -0.00375599 -0.000687088)
(1.01916 -7.87243e-05 0.000868681)
(1.0169 0.00220233 0.00160608)
(1.01375 0.0025396 0.000494624)
(1.01234 -0.000141912 -8.40627e-05)
(1.01367 -0.00626733 -4.29292e-05)
(1.01944 -0.00264792 1.62527e-05)
(1.0193 0.0037089 0.000332)
(1.01405 0.0021058 0.000973485)
(1.012 -0.000932727 -0.000436767)
(1.01536 -0.00508713 -0.000707254)
(1.01959 -0.00108965 0.00171607)
(1.01967 0.00476765 0.000441838)
(1.01493 0.0054806 -0.000688958)
(1.01088 0.000556181 -0.000874652)
(1.01341 -0.00528679 -0.00164204)
(1.01956 -0.00243662 -0.000921537)
(1.01896 0.00403427 -0.000471267)
(1.01304 0.00403877 -0.000276198)
(1.01106 -0.00286871 -0.00043219)
(1.01497 -0.00728622 -4.83439e-05)
(1.02137 -0.00273352 0.000703464)
(1.02148 0.00543648 0.000189133)
(1.0142 0.00578392 -0.000392504)
(1.01036 0.000275509 0.000288734)
(1.01315 -0.00519805 0.000205513)
(1.01948 -0.00302071 0.000237835)
(1.01964 0.00515256 -3.1599e-05)
(1.01304 0.00371719 -0.0018994)
(1.01259 -0.00142379 -0.00120439)
(1.01531 -0.00369551 0.00123627)
(1.01836 -0.00191944 0.000311048)
(1.01889 0.00556847 -7.14888e-05)
(1.01314 0.00256512 0.000778462)
(1.01289 -0.00281417 -0.000557041)
(1.01577 -0.00198149 -0.00129005)
(1.01692 -0.0030002 -0.000581693)
(1.02099 0.00200985 -0.000817638)
(1.01777 0.0077269 0.000505158)
(1.0091 0.00098876 0.000215692)
(1.01326 -0.00502098 -0.0011276)
(1.02044 -0.000402699 0.00130944)
(1.01755 0.00321533 0.00205891)
(1.01316 0.00462559 0.000577767)
(1.01018 -0.000935478 -0.000234758)
(1.01321 -0.00909353 -0.00035664)
(1.02171 -0.00267033 6.70836e-05)
(1.02028 0.00517984 0.000527275)
(1.01304 0.00337666 0.00111661)
(1.01011 -0.0018527 -0.00100423)
(1.01537 -0.00778405 -0.000798721)
(1.02163 -0.000469534 0.00264261)
(1.02092 0.0070039 0.000260833)
(1.01396 0.00759708 -0.000919665)
(1.00859 0.000117774 -0.0012727)
(1.01283 -0.00783721 -0.00247588)
(1.0215 -0.00314289 -0.000960886)
(1.02028 0.00618541 -0.000654215)
(1.0115 0.00614571 -0.00054915)
(1.0086 -0.00468303 -0.00078376)
(1.01503 -0.0103916 -0.000140622)
(1.02395 -0.00298584 0.00125905)
(1.02312 0.00779293 0.000224284)
(1.01305 0.00790493 -0.000843541)
(1.00801 -0.000153388 7.91861e-05)
(1.01252 -0.00788511 8.94352e-06)
(1.02165 -0.00349455 0.000816511)
(1.02097 0.00781609 -5.73476e-05)
(1.01158 0.00539435 -0.00322386)
(1.01093 -0.00232783 -0.00181359)
(1.01523 -0.00616376 0.00149951)
(1.02033 -0.00160086 0.000502248)
(1.01967 0.0084029 0.000108523)
(1.01132 0.00288436 0.000807553)
(1.01193 -0.00378585 -0.000966799)
(1.01569 -0.00326785 -0.00169263)
(1.01781 -0.00389552 -0.000791238)
(1.02312 0.003843 -0.00104858)
(1.01742 0.0102472 0.000839324)
(1.00649 0.000827194 6.87922e-06)
(1.01294 -0.00667626 -0.00178138)
(1.02207 -0.00101579 0.00198911)
(1.01863 0.00500369 0.00262766)
(1.01215 0.00734105 0.000585073)
(1.00721 -0.00235025 -0.000632681)
(1.01298 -0.0123081 -0.0008677)
(1.02455 -0.00263977 0.000210929)
(1.02143 0.00708271 0.000666515)
(1.01172 0.00542211 0.001161)
(1.00747 -0.00375457 -0.00192889)
(1.0157 -0.011022 -0.00087991)
(1.02432 0.000784109 0.00397651)
(1.02224 0.00998803 -0.000113842)
(1.01253 0.010323 -0.00132815)
(1.00563 -0.00081732 -0.00199962)
(1.01227 -0.0111492 -0.00361972)
(1.0241 -0.00397781 -0.000826117)
(1.02197 0.00928112 -0.00088042)
(1.00929 0.00888034 -0.001001)
(1.00538 -0.00743719 -0.00144779)
(1.01537 -0.0141283 -0.00027228)
(1.0272 -0.00292521 0.00222041)
(1.02497 0.0108914 0.000272356)
(1.01142 0.0105216 -0.00160186)
(1.00499 -0.00101489 -0.000528653)
(1.01199 -0.0111855 -0.000375995)
(1.02455 -0.00360543 0.00190081)
(1.02251 0.0114303 -0.000119617)
(1.00954 0.00758918 -0.00512378)
(1.00862 -0.00396266 -0.00279719)
(1.01542 -0.00937872 0.00166892)
(1.02303 -0.000563139 0.000957753)
(1.0203 0.0119906 0.000370708)
(1.00892 0.00319731 0.000636522)
(1.01072 -0.00524654 -0.00157768)
(1.01565 -0.00507269 -0.00232735)
(1.01918 -0.0044983 -0.00100863)
(1.02561 0.00620053 -0.00121139)
(1.01672 0.0131878 0.0012719)
(1.00334 0.000586871 -0.000525778)
(1.01254 -0.00884198 -0.00274906)
(1.02416 -0.00176741 0.00300971)
(1.02017 0.0078152 0.00335129)
(1.01055 0.0105633 0.000411006)
(1.00344 -0.00421502 -0.00143693)
(1.01302 -0.0158324 -0.00163894)
(1.02798 -0.00274375 0.000469397)
(1.02281 0.00977827 0.000723236)
(1.0099 0.00819537 0.00105279)
(1.00405 -0.00707787 -0.00345536)
(1.01652 -0.0147064 -0.000901293)
(1.02767 0.00282993 0.00591591)
(1.02359 0.013906 -0.000673256)
(1.01048 0.013571 -0.00206891)
(1.0019 -0.0024777 -0.00330719)
(1.01179 -0.0152939 -0.00513234)
(1.02748 -0.00491679 -0.000455388)
(1.02404 0.0135891 -0.00111484)
(1.00618 0.0123084 -0.00172194)
(1.00132 -0.0113034 -0.00264004)
(1.01608 -0.0185513 -0.000453401)
(1.03112 -0.00239298 0.00375541)
(1.02693 0.0149423 0.000329128)
(1.00915 0.0135039 -0.00279281)
(1.00125 -0.00257646 -0.00175318)
(1.01167 -0.0151319 -0.0010118)
(1.02824 -0.00316103 0.00367918)
(1.02421 0.0164114 -0.000137343)
(1.0067 0.01032 -0.00784272)
(1.00559 -0.00677237 -0.00442496)
(1.01604 -0.0131471 0.00172355)
(1.02648 0.00137277 0.00179672)
(1.02065 0.0164689 0.000702244)
(1.0058 0.00356377 0.000165194)
(1.00924 -0.00757195 -0.00254484)
(1.01578 -0.00736749 -0.0033226)
(1.02104 -0.00453592 -0.00111804)
(1.02835 0.00927825 -0.00129674)
(1.01564 0.0165823 0.0017955)
(0.999619 2.37052e-05 -0.00157027)
(1.01206 -0.0117402 -0.00417677)
(1.02684 -0.00230576 0.0045583)
(1.0221 0.0119129 0.0042981)
(1.0082 0.0140101 -0.000103817)
(0.998893 -0.00658011 -0.00288405)
(1.01326 -0.0197956 -0.00269251)
(1.03201 -0.00290611 0.000865566)
(1.0245 0.0136436 0.000647255)
(1.00734 0.0114306 0.000706576)
(0.999856 -0.0120899 -0.00591954)
(1.01802 -0.0188151 -0.000789282)
(1.03167 0.00602911 0.00864691)
(1.0248 0.0192512 -0.00140628)
(1.00759 0.0171748 -0.00335168)
(0.997355 -0.00523572 -0.00557046)
(1.01147 -0.0204112 -0.00711453)
(1.03174 -0.00568559 0.000340578)
(1.02652 0.0195007 -0.00125713)
(1.00196 0.0161162 -0.0029265)
(0.996335 -0.0166244 -0.0047254)
(1.01721 -0.0236175 -0.000717039)
(1.03573 -0.000977762 0.00607004)
(1.02886 0.0200358 0.000468221)
(1.00599 0.0166855 -0.00468107)
(0.99677 -0.00513141 -0.00411884)
(1.01169 -0.0197446 -0.00200015)
(1.0328 -0.00189476 0.00642433)
(1.02598 0.0232191 -3.1696e-05)
(1.00272 0.0135125 -0.0117058)
(1.00181 -0.0112761 -0.00707018)
(1.01728 -0.0174711 0.00154375)
(1.03067 0.00459541 0.00314969)
(1.02061 0.0222844 0.00117091)
(1.00174 0.00394083 -0.000779198)
(1.00741 -0.0111295 -0.00430172)
(1.01625 -0.0100469 -0.0048839)
(1.02346 -0.00388061 -0.000964386)
(1.03123 0.0131598 -0.00114988)
(1.01402 0.0205864 0.00232769)
(0.995241 -0.00106984 -0.00350363)
(1.01165 -0.0155039 -0.00618455)
(1.03025 -0.0024136 0.00682609)
(1.02423 0.017446 0.00557067)
(1.00488 0.0175649 -0.00126068)
(0.993582 -0.00939827 -0.00536371)
(1.01373 -0.0243968 -0.00413847)
(1.03673 -0.00306293 0.00146375)
(1.0264 0.0191426 0.000502528)
(1.00368 0.0151116 1.8195e-05)
(0.994847 -0.0191327 -0.00981586)
(1.02028 -0.023292 -0.000552114)
(1.0363 0.0107654 0.0124649)
(1.02569 0.0262348 -0.00218839)
(1.00355 0.020757 -0.00547674)
(0.992108 -0.00953057 -0.00944563)
(1.01159 -0.0267192 -0.00976475)
(1.03703 -0.00617579 0.00166287)
(1.02923 0.0275164 -0.00109753)
(0.996304 0.0203271 -0.00489248)
(0.990487 -0.0238232 -0.00840969)
(1.01883 -0.0294109 -0.00123774)
(1.04091 0.00169422 0.00938192)
(1.0305 0.0264486 0.000740375)
(1.00172 0.019593 -0.00764227)
(0.991573 -0.00926118 -0.00824118)
(1.01219 -0.0250667 -0.00365781)
(1.03829 0.000766311 0.0104166)
(1.02768 0.0323128 0.000485386)
(0.997266 0.0167527 -0.0172294)
(0.997367 -0.0178357 -0.0114367)
(1.01936 -0.0223047 0.000981321)
(1.03561 0.00940262 0.00514109)
(1.01995 0.0297564 0.00168552)
(0.996577 0.00416552 -0.00262527)
(1.00534 -0.0164453 -0.00741802)
(1.01718 -0.0129386 -0.00721551)
(1.02637 -0.00200416 -0.000482587)
(1.03422 0.0180282 -0.00073072)
(1.01178 0.0249042 0.00273539)
(0.990158 -0.00299787 -0.0069666)
(1.01145 -0.0199778 -0.0090571)
(1.03446 -0.00158867 0.0100816)
(1.02645 0.0243503 0.00727183)
(1.00047 0.0209056 -0.0035262)
(0.987509 -0.0129527 -0.00949124)
(1.01435 -0.0297137 -0.00609175)
(1.04222 -0.00304125 0.00231895)
(1.02854 0.026319 0.000382575)
(0.99857 0.0187317 -0.00120684)
(0.989394 -0.0291765 -0.0161524)
(1.02322 -0.0286819 -0.000269584)
(1.04115 0.0178634 0.0176747)
(1.02602 0.0353466 -0.00300838)
(0.998853 0.0239984 -0.00927827)
(0.988275 -0.0156384 -0.0160738)
(1.01353 -0.0343621 -0.0133281)
(1.04379 -0.00590125 0.00378782)
(1.03217 0.0374692 -0.000498206)
(0.989462 0.0246492 -0.00848896)
(0.984736 -0.033088 -0.0148867)
(1.02101 -0.0356351 -0.00218775)
(1.04652 0.00610131 0.0138448)
(1.03151 0.0338796 0.00110277)
(0.996367 0.0221749 -0.0125885)
(0.986465 -0.0153972 -0.0153605)
(1.01373 -0.0310843 -0.00615009)
(1.04482 0.00518466 0.0157865)
(1.02885 0.0439065 0.00159142)
(0.990692 0.0197079 -0.0256122)
(0.993552 -0.0270845 -0.0188771)
(1.02256 -0.0274654 -0.000332367)
(1.04109 0.016415 0.0080128)
(1.01855 0.0393877 0.00235308)
(0.99152 0.00405707 -0.00643152)
(1.00429 -0.0239485 -0.0132823)
(1.019 -0.016045 -0.0107516)
(1.02992 0.00139788 0.000435116)
(1.03742 0.0242292 8.50834e-06)
(1.00885 0.0293189 0.00266739)
(0.984791 -0.00662663 -0.0127788)
(1.01213 -0.0255805 -0.0131043)
(1.03954 0.00100675 0.0145075)
(1.02848 0.0332388 0.0097183)
(0.995058 0.0240145 -0.00784096)
(0.981419 -0.0177184 -0.0165298)
(1.01576 -0.0361911 -0.00895029)
(1.04863 -0.00251806 0.00370134)
(1.03078 0.0352107 0.000558175)
(0.991957 0.0214236 -0.00357524)
(0.986349 -0.0428093 -0.0268876)
(1.02662 -0.0344472 -0.000134676)
(1.04409 0.0271603 0.0250091)
(1.02668 0.0448923 -0.00385481)
(1.00102 0.0248605 -0.0158738)
(0.997994 -0.0251615 -0.026592)
(1.02382 -0.0428812 -0.0181456)
(1.05345 -0.00354333 0.00706747)
(1.03465 0.049644 0.00110806)
(0.985813 0.0284137 -0.0153375)
(0.986236 -0.0453063 -0.0264028)
(1.02486 -0.0418516 -0.00396916)
(1.05156 0.0135271 0.0199713)
(1.03201 0.0423547 0.00168962)
(0.994998 0.0226491 -0.0208481)
(0.988081 -0.0246995 -0.0272395)
(1.0193 -0.0373191 -0.0101419)
(1.05262 0.0126245 0.0231723)
(1.02851 0.0578786 0.00363602)
(0.988298 0.0211594 -0.038459)
(0.997762 -0.0396835 -0.030864)
(1.02845 -0.0325977 -0.00232919)
(1.04601 0.0258588 0.0119517)
(1.017 0.0510091 0.00261953)
(0.995746 0.00246778 -0.0128446)
(1.01196 -0.0340882 -0.0228019)
(1.02331 -0.0186329 -0.015841)
(1.03478 0.00714358 0.0016291)
(1.04248 0.0319757 0.000817979)
(1.00633 0.0335648 0.00124934)
(0.981386 -0.0122934 -0.0220329)
(1.01606 -0.0321845 -0.0186451)
(1.04591 0.00555968 0.0205343)
(1.03002 0.0434768 0.0129003)
(0.991837 0.0257571 -0.0159034)
(0.980717 -0.0243001 -0.0276235)
(1.02175 -0.0433961 -0.0128452)
(1.0568 -0.000881746 0.00604142)
(1.03289 0.0449115 0.00144412)
(0.986177 0.0228332 -0.00882481)
(0.996962 -0.0621795 -0.0403055)
(1.02929 -0.0399299 0.000736515)
(1.03638 0.0396807 0.0334387)
(1.03581 0.0543912 -0.00362563)
(1.03873 0.021439 -0.0201173)
(1.05397 -0.038343 -0.0346393)
(1.05795 -0.0506169 -0.0212339)
(1.06884 0.00159528 0.0124856)
(1.0366 0.0630963 0.00307576)
(1.00419 0.0296818 -0.0255882)
(1.01653 -0.0605196 -0.0409846)
(1.03433 -0.0466066 -0.00668949)
(1.05221 0.0239115 0.0264692)
(1.03616 0.0510274 0.00264791)
(1.02189 0.0196064 -0.0288732)
(1.02102 -0.0375698 -0.0399122)
(1.03968 -0.0429181 -0.0137972)
(1.06215 0.022618 0.0321428)
(1.02689 0.0722926 0.00514699)
(1.01177 0.0180199 -0.0512549)
(1.03182 -0.0563486 -0.0416091)
(1.04087 -0.036358 -0.00280567)
(1.0455 0.0381993 0.016969)
(1.0205 0.0623604 0.00268766)
(1.03724 -0.0031346 -0.0155983)
(1.05058 -0.0464638 -0.0312541)
(1.03544 -0.0194504 -0.0210516)
(1.04308 0.0163956 0.00422003)
(1.05515 0.0416989 0.002555)
(1.01062 0.0362666 -0.00243542)
(0.988423 -0.0217603 -0.0346078)
(1.02903 -0.0395727 -0.025237)
(1.0526 0.0135335 0.0287412)
(1.03174 0.0551259 0.0168042)
(1.01035 0.0236582 -0.0265087)
(1.00623 -0.0340174 -0.0397832)
(1.04505 -0.0499308 -0.0151342)
(1.06885 0.00290932 0.0115023)
(1.03604 0.0547888 0.00279736)
(0.99542 0.0206027 -0.0182157)
(1.03795 -0.0835581 -0.0388727)
(1.02011 -0.0445255 0.00346536)
(1.00894 0.0495441 0.0367476)
(1.07166 0.0566424 0.00881963)
(1.13807 0.0118323 0.0016404)
(1.17639 -0.0506942 -0.0182708)
(1.12485 -0.0516834 -0.0142438)
(1.08764 0.0127654 0.0216966)
(1.04379 0.0751968 0.00542284)
(1.07739 0.0220909 -0.0258992)
(1.09804 -0.0780154 -0.0426375)
(1.04853 -0.0461873 -0.010978)
(1.04178 0.0361193 0.0284648)
(1.06369 0.0559496 0.0115773)
(1.11811 0.00961076 -0.0142091)
(1.11454 -0.0515294 -0.0337042)
(1.08518 -0.0452136 -0.0102031)
(1.07038 0.0355004 0.0400139)
(1.03533 0.0842977 0.00664934)
(1.09527 0.00660809 -0.0413695)
(1.11712 -0.0741027 -0.0282744)
(1.06062 -0.0348297 0.0033306)
(1.03755 0.0533053 0.0190777)
(1.04635 0.0699217 0.00773946)
(1.14218 -0.0124503 0.00755261)
(1.1397 -0.0564145 -0.020723)
(1.06073 -0.0158965 -0.0231632)
(1.05831 0.0284368 0.00897773)
(1.08477 0.0529421 0.00794952)
(1.03643 0.0371834 -0.00646317)
(1.02293 -0.0356732 -0.0419815)
(1.05482 -0.0481039 -0.0283042)
(1.05171 0.0232082 0.0349405)
(1.04353 0.0634748 0.0236364)
(1.09233 0.013667 -0.0209069)
(1.08751 -0.0458628 -0.0349481)
(1.10161 -0.0538207 -0.0057551)
(1.08711 0.00928353 0.0213769)
(1.04793 0.0631139 0.00473815)
(1.05326 0.0118243 -0.0194906)
(1.12524 -0.0881487 -0.00596251)
(0.966978 -0.0444744 0.00956842)
(0.954268 0.0522432 0.0279594)
(1.12703 0.0460862 0.0404668)
(1.25054 -0.00191893 0.0565434)
(1.30267 -0.0556423 0.0323333)
(1.19373 -0.0427961 0.00838943)
(1.10552 0.025947 0.031217)
(1.07204 0.0806437 0.0102424)
(1.2 0.0104896 0.00448985)
(1.20533 -0.0866581 -0.00928534)
(1.04903 -0.0396448 -0.0156822)
(1.01669 0.0442919 0.0197608)
(1.11397 0.0488291 0.0362818)
(1.25697 -0.00190905 0.0390976)
(1.23566 -0.0558116 0.00987885)
(1.12861 -0.0424957 0.0123071)
(1.06925 0.0446539 0.044777)
(1.07583 0.083401 0.0104545)
(1.23666 -0.00457545 0.00228497)
(1.23409 -0.0794172 0.0252884)
(1.06613 -0.0279878 0.0178944)
(1.01998 0.0649803 0.0136458)
(1.09766 0.0659046 0.024717)
(1.26057 -0.0261323 0.0629272)
(1.23964 -0.0588973 0.0187264)
(1.08796 -0.00656093 -0.0201682)
(1.08111 0.040892 0.0178593)
(1.13197 0.0627054 0.0238343)
(1.10365 0.0343704 0.00155573)
(1.10828 -0.048968 -0.0274142)
(1.07595 -0.0548674 -0.0158546)
(1.02198 0.0315374 0.0330387)
(1.08137 0.061624 0.0410177)
(1.23098 -0.000815018 0.0197379)
(1.20555 -0.0529164 0.00126925)
(1.1726 -0.054273 0.0285523)
(1.10355 0.0145416 0.0354521)
(1.08241 0.0637739 0.0108285)
(1.18303 0.00464097 0.00389825)
(1.25488 -0.0671138 0.0324729)
(0.884717 -0.0343188 0.0228245)
(0.907476 0.0359534 0.0452149)
(1.18582 0.0191255 0.0904518)
(1.30863 -0.0219366 0.103874)
(1.34595 -0.0541678 0.0751735)
(1.18922 -0.026207 0.0344849)
(1.09517 0.0368052 0.0419788)
(1.10988 0.0746799 0.0213505)
(1.31139 -0.00117833 0.0490675)
(1.27297 -0.0798861 0.0395986)
(0.999792 -0.0252924 -0.0171352)
(0.969526 0.0430997 0.0148889)
(1.14091 0.0263014 0.0710184)
(1.33188 -0.0178507 0.0939099)
(1.28914 -0.0492635 0.0595712)
(1.1054 -0.0313971 0.0507661)
(1.03028 0.0478148 0.0625969)
(1.11863 0.0676863 0.0303527)
(1.36836 -0.0147035 0.0492705)
(1.31218 -0.0696399 0.0865643)
(1.00571 -0.0129268 0.0314418)
(0.987784 0.0702131 0.00795881)
(1.1724 0.0489411 0.0567334)
(1.30972 -0.0464514 0.106833)
(1.26015 -0.0563936 0.0555414)
(1.07192 0.00364452 -0.0126568)
(1.08882 0.0476178 0.0279503)
(1.17227 0.0669096 0.0435084)
(1.2172 0.0274064 0.0426032)
(1.24944 -0.0556887 0.0113422)
(1.08047 -0.0529837 0.00653004)
(0.957908 0.0301874 0.0483782)
(1.132 0.0418333 0.090698)
(1.32737 -0.0172493 0.0763693)
(1.27215 -0.0520229 0.0397988)
(1.18545 -0.0521516 0.0662873)
(1.08543 0.0139275 0.0621013)
(1.1341 0.0521126 0.0401654)
(1.33477 0.000645532 0.0477726)
(1.34905 -0.0440928 0.0521459)
(0.897196 -0.0216103 0.0419618)
(0.957357 0.000297376 0.0991057)
(1.22714 -0.0195039 0.122426)
(1.30577 -0.0462367 0.10226)