/*--------------------------------*- C++ -*----------------------------------*\
  =========                 |
  \\      /  F ield         | OpenFOAM: The Open Source CFD Toolbox
   \\    /   O peration     | Website:  https://openfoam.org
    \\  /    A nd           | Version:  10
     \\/     M anipulation  |
\*---------------------------------------------------------------------------*/
FoamFile
{
    format      ascii;
    class       volVectorField;
    location    "2";
    object      UMean;
}
// * * * * * * * * * * * * * * * * * * * * * * * * * * * * * * * * * * * * * //

dimensions      [0 1 -1 0 0 0 0];

internalField   nonuniform List<vector> 
25600
(
(0.131455 4.45801e-06 -1.31405e-06)
(0.131474 5.05419e-06 -2.66016e-06)
(0.131466 8.48785e-06 -1.13259e-06)
(0.131462 9.41282e-06 -1.61322e-06)
(0.131466 1.07455e-05 -1.82745e-06)
(0.131458 1.10428e-05 -2.19471e-06)
(0.13146 1.07128e-05 -2.3999e-06)
(0.131458 1.04195e-05 -2.58514e-06)
(0.131458 8.75139e-06 -2.60263e-06)
(0.131457 7.79425e-06 -2.50461e-06)
(0.131457 5.30499e-06 -2.30346e-06)
(0.131458 3.28283e-06 -1.95641e-06)
(0.131459 8.31636e-07 -1.63422e-06)
(0.13146 -1.71862e-06 -1.37004e-06)
(0.131461 -3.36018e-06 -1.11087e-06)
(0.131462 -5.44685e-06 -9.77844e-07)
(0.131464 -6.53038e-06 -6.22948e-07)
(0.131465 -7.58105e-06 -3.36122e-07)
(0.131466 -8.41542e-06 1.03921e-07)
(0.131467 -8.38964e-06 4.674e-07)
(0.131467 -8.66885e-06 7.60025e-07)
(0.131468 -8.0605e-06 1.03866e-06)
(0.131468 -7.45112e-06 1.11308e-06)
(0.131468 -7.0403e-06 1.11025e-06)
(0.131469 -6.14792e-06 8.54575e-07)
(0.131469 -5.42157e-06 5.43257e-07)
(0.13147 -4.45218e-06 1.5951e-08)
(0.131469 -3.42579e-06 -5.88838e-07)
(0.131469 -2.51398e-06 -1.16732e-06)
(0.131468 -1.93497e-06 -1.76156e-06)
(0.131468 -1.1891e-06 -2.25675e-06)
(0.131464 -1.12606e-06 -2.709e-06)
(0.131466 -9.32621e-07 -2.93883e-06)
(0.131459 -7.73351e-07 -3.0685e-06)
(0.131464 -9.38898e-07 -2.98192e-06)
(0.131458 -3.97604e-07 -2.87549e-06)
(0.131459 2.74987e-08 -2.44767e-06)
(0.131465 5.21867e-07 -2.33379e-06)
(0.131453 5.4557e-07 -3.24913e-06)
(0.131481 4.23463e-06 -1.18482e-06)
(0.133009 4.09049e-06 -1.05873e-06)
(0.133029 4.82191e-06 -3.33904e-06)
(0.133027 9.05056e-06 -1.16417e-06)
(0.133023 9.42433e-06 -1.24609e-06)
(0.133028 1.1394e-05 -1.25758e-06)
(0.13302 1.14606e-05 -1.72373e-06)
(0.133022 1.1005e-05 -2.01482e-06)
(0.133019 1.11277e-05 -2.44479e-06)
(0.133018 8.43643e-06 -2.59836e-06)
(0.133018 7.97155e-06 -2.74034e-06)
(0.133017 4.48664e-06 -2.64179e-06)
(0.133018 2.56269e-06 -2.32369e-06)
(0.133018 -8.51885e-08 -2.04146e-06)
(0.13302 -2.98006e-06 -1.79351e-06)
(0.133021 -4.0207e-06 -1.61623e-06)
(0.133022 -6.61579e-06 -1.67957e-06)
(0.133024 -7.11106e-06 -1.27345e-06)
(0.133025 -8.10359e-06 -1.06387e-06)
(0.133027 -8.92715e-06 -5.07501e-07)
(0.133028 -8.33844e-06 -1.64323e-07)
(0.133029 -8.92308e-06 4.48582e-08)
(0.13303 -7.97111e-06 4.45987e-07)
(0.13303 -7.295e-06 4.69019e-07)
(0.13303 -7.31336e-06 6.03063e-07)
(0.133031 -6.27433e-06 3.21277e-07)
(0.133031 -5.59518e-06 1.85556e-07)
(0.133032 -4.32265e-06 -3.13461e-07)
(0.133031 -2.4476e-06 -8.28635e-07)
(0.133031 -1.22606e-06 -1.26195e-06)
(0.133029 -2.9993e-07 -1.78601e-06)
(0.133029 1.01907e-06 -2.19684e-06)
(0.133025 9.92692e-07 -2.75731e-06)
(0.133027 1.41799e-06 -2.93453e-06)
(0.13302 1.40831e-06 -3.181e-06)
(0.133025 2.28562e-07 -2.90695e-06)
(0.133018 8.83211e-07 -3.17559e-06)
(0.133022 -7.31357e-07 -1.53082e-06)
(0.133021 5.85813e-07 -3.01817e-06)
(0.133024 -2.07062e-06 -2.42405e-06)
(0.13303 1.47347e-06 2.46364e-06)
(0.133215 1.78676e-06 -2.49508e-07)
(0.133235 3.9902e-06 -2.7428e-06)
(0.133232 8.65229e-06 -5.82113e-07)
(0.133228 8.99453e-06 -7.99934e-07)
(0.133233 1.22402e-05 -7.99953e-07)
(0.133224 1.20824e-05 -1.49507e-06)
(0.133226 1.15377e-05 -1.80086e-06)
(0.133222 1.2744e-05 -2.70184e-06)
(0.133221 8.30383e-06 -2.88132e-06)
(0.13322 9.22392e-06 -3.31616e-06)
(0.133219 3.8213e-06 -3.24108e-06)
(0.13322 2.42403e-06 -2.82883e-06)
(0.13322 -6.53649e-07 -2.51033e-06)
(0.133223 -4.17234e-06 -2.22326e-06)
(0.133224 -4.15961e-06 -2.13451e-06)
(0.133225 -7.98569e-06 -2.56719e-06)
(0.133228 -7.37008e-06 -1.93979e-06)
(0.133229 -8.49853e-06 -1.8546e-06)
(0.133231 -9.40562e-06 -9.49546e-07)
(0.133232 -8.01998e-06 -6.35488e-07)
(0.133233 -9.49033e-06 -5.54485e-07)
(0.133234 -7.82364e-06 1.42569e-07)
(0.133234 -7.07852e-06 4.25006e-08)
(0.133235 -7.91819e-06 4.10221e-07)
(0.133236 -6.72939e-06 -5.46613e-08)
(0.133236 -6.36021e-06 6.29125e-08)
(0.133238 -4.65951e-06 -5.57246e-07)
(0.133237 -1.45414e-06 -1.05858e-06)
(0.133236 1.717e-07 -1.35488e-06)
(0.133235 1.42938e-06 -1.83798e-06)
(0.133234 3.70864e-06 -2.16682e-06)
(0.133229 3.23519e-06 -2.971e-06)
(0.133232 4.14584e-06 -3.0287e-06)
(0.133223 4.06501e-06 -3.45997e-06)
(0.133229 1.20309e-06 -3.0331e-06)
(0.133222 2.31353e-06 -3.348e-06)
(0.133225 -1.09941e-06 -1.24339e-06)
(0.133224 -6.41134e-07 -2.82349e-06)
(0.133228 -2.74285e-06 -1.95555e-06)
(0.133236 6.4091e-07 3.15753e-06)
(0.133394 -4.21057e-07 7.095e-07)
(0.133416 3.04896e-06 -2.13146e-06)
(0.133412 9.43756e-06 -2.54298e-07)
(0.133408 8.92961e-06 -6.02516e-07)
(0.133412 1.39837e-05 -5.60635e-07)
(0.133401 1.2963e-05 -1.54061e-06)
(0.133404 1.22813e-05 -1.71793e-06)
(0.133398 1.55623e-05 -3.33544e-06)
(0.133397 8.15191e-06 -3.39558e-06)
(0.133396 1.19174e-05 -4.2872e-06)
(0.133394 2.99936e-06 -4.18864e-06)
(0.133396 2.98387e-06 -3.50835e-06)
(0.133395 -8.99396e-07 -3.03939e-06)
(0.133399 -5.39189e-06 -2.61632e-06)
(0.1334 -3.51027e-06 -2.68096e-06)
(0.133402 -9.86979e-06 -3.82301e-06)
(0.133406 -7.06127e-06 -2.66366e-06)
(0.133406 -8.61045e-06 -2.85185e-06)
(0.133409 -9.5588e-06 -1.19804e-06)
(0.13341 -7.09149e-06 -1.00924e-06)
(0.133411 -1.04731e-05 -1.14027e-06)
(0.133413 -7.35989e-06 1.58476e-07)
(0.133411 -6.55322e-06 -2.23646e-07)
(0.133412 -8.88951e-06 5.44557e-07)
(0.133414 -7.63634e-06 -3.64792e-07)
(0.133415 -8.12614e-06 2.09565e-07)
(0.133417 -5.75573e-06 -7.80485e-07)
(0.133417 -3.6184e-07 -1.3014e-06)
(0.133415 1.83777e-06 -1.43854e-06)
(0.133414 3.18153e-06 -1.85647e-06)
(0.133412 7.11844e-06 -2.01155e-06)
(0.133407 5.66403e-06 -3.29067e-06)
(0.13341 7.68234e-06 -3.05813e-06)
(0.133399 7.75489e-06 -3.80489e-06)
(0.133406 1.82769e-06 -3.15995e-06)
(0.133398 4.84328e-06 -3.61739e-06)
(0.133402 -2.27937e-06 -6.93802e-07)
(0.133401 -1.12568e-06 -2.69329e-06)
(0.133406 -5.76521e-06 -9.49718e-07)
(0.133416 -1.74084e-06 4.37883e-06)
(0.133562 -3.72533e-06 2.01258e-06)
(0.133587 1.57381e-06 -1.36463e-06)
(0.133581 1.11742e-05 -1.2519e-07)
(0.133576 8.70409e-06 -6.73376e-07)
(0.13358 1.65378e-05 -5.09719e-07)
(0.133567 1.37183e-05 -1.84028e-06)
(0.133573 1.29806e-05 -1.62282e-06)
(0.133564 2.00098e-05 -4.45684e-06)
(0.133563 7.6967e-06 -4.14127e-06)
(0.133561 1.66068e-05 -5.81752e-06)
(0.133557 1.67308e-06 -5.56396e-06)
(0.133562 4.60767e-06 -4.37568e-06)
(0.133559 -6.36654e-07 -3.568e-06)
(0.133565 -6.58639e-06 -2.88665e-06)
(0.133565 -1.76966e-06 -3.22087e-06)
(0.133568 -1.26514e-05 -5.68372e-06)
(0.133574 -5.86125e-06 -3.42262e-06)
(0.133572 -8.11733e-06 -4.18759e-06)
(0.133577 -9.11767e-06 -1.16136e-06)
(0.133576 -5.23063e-06 -1.33957e-06)
(0.133577 -1.21111e-05 -1.79622e-06)
(0.133582 -6.37385e-06 6.68949e-07)
(0.133577 -5.43175e-06 -2.98933e-07)
(0.133578 -1.02482e-05 1.10151e-06)
(0.133581 -9.21937e-06 -7.43792e-07)
(0.133582 -1.14701e-05 7.36434e-07)
(0.133588 -8.0247e-06 -1.08036e-06)
(0.133587 1.18084e-06 -1.58965e-06)
(0.133583 3.96382e-06 -1.57381e-06)
(0.133583 4.98214e-06 -1.76257e-06)
(0.13358 1.16161e-05 -1.69186e-06)
(0.133575 8.15883e-06 -3.64457e-06)
(0.133578 1.24767e-05 -2.87875e-06)
(0.133564 1.30006e-05 -4.22367e-06)
(0.133572 1.74004e-06 -3.14029e-06)
(0.133564 8.8452e-06 -3.87695e-06)
(0.133566 -4.12023e-06 4.06672e-07)
(0.133566 -1.35945e-06 -2.50313e-06)
(0.133573 -9.87793e-06 4.59149e-07)
(0.133585 -4.52285e-06 5.6732e-06)
(0.133721 -8.71143e-06 3.95448e-06)
(0.13375 -7.36158e-07 -4.22498e-07)
(0.133741 1.42503e-05 -3.84789e-07)
(0.133735 8.16935e-06 -1.24482e-06)
(0.133739 1.9909e-05 -8.02675e-07)
(0.133723 1.38757e-05 -2.43876e-06)
(0.133733 1.33133e-05 -1.38442e-06)
(0.133719 2.67084e-05 -6.27003e-06)
(0.133719 6.53855e-06 -5.16304e-06)
(0.133716 2.38975e-05 -8.14372e-06)
(0.13371 -6.20921e-07 -7.58771e-06)
(0.133719 7.76077e-06 -5.47979e-06)
(0.133712 3.60782e-07 -4.02719e-06)
(0.133722 -7.70145e-06 -2.89127e-06)
(0.13372 1.48655e-06 -3.78121e-06)
(0.133723 -1.69525e-05 -8.47005e-06)
(0.133733 -3.29639e-06 -4.1692e-06)
(0.133728 -6.49421e-06 -6.11526e-06)
(0.133735 -7.3525e-06 -5.92561e-07)
(0.133732 -2.13394e-06 -1.65795e-06)
(0.133734 -1.49293e-05 -2.55799e-06)
(0.133742 -4.47432e-06 2.02423e-06)
(0.133733 -3.17343e-06 -1.18605e-07)
(0.133734 -1.19826e-05 2.2167e-06)
(0.133737 -1.18336e-05 -1.33669e-06)
(0.133739 -1.7383e-05 1.8526e-06)
(0.13375 -1.19978e-05 -1.5206e-06)
(0.133749 3.62139e-06 -1.87557e-06)
(0.133742 6.74788e-06 -1.88442e-06)
(0.133743 6.69608e-06 -1.53088e-06)
(0.133739 1.73852e-05 -9.03775e-07)
(0.133732 1.05947e-05 -3.94631e-06)
(0.133737 1.91021e-05 -2.37777e-06)
(0.133717 2.03408e-05 -4.76813e-06)
(0.133728 2.32698e-07 -2.87183e-06)
(0.133718 1.50269e-05 -4.05899e-06)
(0.13372 -7.00466e-06 2.46028e-06)
(0.13372 -6.99309e-07 -2.36993e-06)
(0.133729 -1.60457e-05 2.8427e-06)
(0.133744 -8.43401e-06 7.42329e-06)
(0.13387 -1.62293e-05 6.98438e-06)
(0.133906 -4.11612e-06 9.33709e-07)
(0.133891 1.93294e-05 -1.26874e-06)
(0.133885 7.2037e-06 -2.63564e-06)
(0.133889 2.3925e-05 -1.81844e-06)
(0.133868 1.28445e-05 -3.42181e-06)
(0.133885 1.2893e-05 -7.92299e-07)
(0.133864 3.64727e-05 -9.07175e-06)
(0.133866 4.23605e-06 -6.68474e-06)
(0.133862 3.43654e-05 -1.1732e-05)
(0.133852 -4.38951e-06 -1.05838e-05)
(0.133867 1.30086e-05 -6.80903e-06)
(0.133854 2.51102e-06 -4.28552e-06)
(0.13387 -8.87087e-06 -2.47329e-06)
(0.133865 6.4534e-06 -4.45514e-06)
(0.13387 -2.3459e-05 -1.27165e-05)
(0.133885 1.19881e-06 -4.62473e-06)
(0.133875 -2.76545e-06 -8.78449e-06)
(0.133885 -3.80272e-06 4.50362e-07)
(0.133877 2.23776e-06 -1.98331e-06)
(0.133881 -1.97259e-05 -3.38529e-06)
(0.133893 -1.34707e-06 4.93933e-06)
(0.133878 1.00455e-06 5.69745e-07)
(0.133878 -1.40807e-05 4.05115e-06)
(0.133882 -1.61032e-05 -2.35585e-06)
(0.133887 -2.7348e-05 3.96179e-06)
(0.133905 -1.84359e-05 -2.08164e-06)
(0.133903 7.68446e-06 -2.06418e-06)
(0.13389 1.01816e-05 -2.61981e-06)
(0.133895 7.74944e-06 -1.17799e-06)
(0.133888 2.45263e-05 3.11448e-07)
(0.133881 1.26549e-05 -3.98956e-06)
(0.133889 2.85229e-05 -1.55839e-06)
(0.133858 3.03823e-05 -5.72549e-06)
(0.133874 -4.06084e-06 -2.33825e-06)
(0.133864 2.4241e-05 -4.11652e-06)
(0.133862 -1.11065e-05 6.22669e-06)
(0.133864 1.50747e-06 -2.43194e-06)
(0.133874 -2.47894e-05 6.39441e-06)
(0.133894 -1.41586e-05 9.63552e-06)
(0.134011 -2.73642e-05 1.16821e-05)
(0.134056 -8.75644e-06 3.28572e-06)
(0.134034 2.74234e-05 -3.07845e-06)
(0.134025 5.60394e-06 -5.37112e-06)
(0.134029 2.78678e-05 -4.14881e-06)
(0.134004 1.0093e-05 -4.81658e-06)
(0.134032 1.12913e-05 6.12435e-07)
(0.134001 5.04495e-05 -1.33021e-05)
(0.134005 -1.20403e-07 -9.2651e-06)
(0.133998 4.81176e-05 -1.72195e-05)
(0.133985 -1.03176e-05 -1.49581e-05)
(0.134009 2.09552e-05 -8.18239e-06)
(0.133986 6.39717e-06 -4.18872e-06)
(0.13401 -1.04556e-05 -1.30949e-06)
(0.133999 1.27828e-05 -5.27003e-06)
(0.134008 -3.31142e-05 -1.8769e-05)
(0.134031 7.96212e-06 -4.44618e-06)
(0.134012 4.50616e-06 -1.2464e-05)
(0.134025 1.94961e-06 2.14999e-06)
(0.13401 7.168e-06 -2.4615e-06)
(0.134019 -2.7318e-05 -4.19799e-06)
(0.134039 3.59449e-06 1.07086e-05)
(0.134012 8.32649e-06 2.27582e-06)
(0.13401 -1.65719e-05 6.66292e-06)
(0.134016 -2.30306e-05 -4.20489e-06)
(0.134024 -4.3325e-05 7.65753e-06)
(0.134055 -2.79347e-05 -2.4123e-06)
(0.134051 1.45103e-05 -1.83936e-06)
(0.134029 1.42052e-05 -4.35172e-06)
(0.134038 7.58988e-06 -4.45272e-07)
(0.134028 3.30077e-05 2.20021e-06)
(0.134021 1.38949e-05 -3.10328e-06)
(0.134033 4.2018e-05 -6.63422e-08)
(0.133986 4.34506e-05 -7.52082e-06)
(0.134011 -1.26453e-05 -1.40743e-06)
(0.134001 3.73376e-05 -3.80718e-06)
(0.133995 -1.65375e-05 1.28638e-05)
(0.133998 6.36309e-06 -2.9553e-06)
(0.134008 -3.7161e-05 1.13943e-05)
(0.134035 -2.30864e-05 1.23969e-05)
(0.134144 -4.31094e-05 1.8946e-05)
(0.134203 -1.45895e-05 7.9731e-06)
(0.134168 4.0084e-05 -6.14295e-06)
(0.134155 2.95413e-06 -1.03785e-05)
(0.134161 3.04766e-05 -9.00551e-06)
(0.13413 4.97644e-06 -6.49552e-06)
(0.134174 8.56646e-06 3.8508e-06)
(0.134129 7.04768e-05 -1.93462e-05)
(0.134135 -8.00616e-06 -1.43455e-05)
(0.134126 6.4743e-05 -2.55413e-05)
(0.134108 -1.85501e-05 -2.13732e-05)
(0.134144 3.25809e-05 -8.87268e-06)
(0.134108 1.32999e-05 -3.56338e-06)
(0.134142 -1.31365e-05 4.46958e-07)
(0.134123 1.97896e-05 -6.55837e-06)
(0.134137 -4.66703e-05 -2.73255e-05)
(0.134173 1.76287e-05 -2.21351e-06)
(0.134142 1.77931e-05 -1.71896e-05)
(0.134156 9.69289e-06 4.47448e-06)
(0.134132 1.1646e-05 -3.15142e-06)
(0.134149 -3.83894e-05 -4.56781e-06)
(0.13418 1.14933e-05 2.14983e-05)
(0.134137 2.082e-05 5.97559e-06)
(0.134131 -1.96554e-05 9.75603e-06)
(0.134138 -3.43105e-05 -7.49042e-06)
(0.134153 -6.76298e-05 1.38879e-05)
(0.134202 -4.08949e-05 -1.42864e-06)
(0.134194 2.5909e-05 -7.26781e-07)
(0.134157 1.77292e-05 -7.99715e-06)
(0.134174 4.90808e-06 9.2634e-08)
(0.134161 4.25922e-05 4.72533e-06)
(0.134155 1.42382e-05 2.92035e-08)
(0.134172 6.13167e-05 2.42229e-06)
(0.1341 5.92285e-05 -1.10902e-05)
(0.13414 -2.84267e-05 -8.4982e-07)
(0.134131 5.58956e-05 -3.06036e-06)
(0.134117 -2.27506e-05 2.42081e-05)
(0.134122 1.56386e-05 -4.2519e-06)
(0.13413 -5.47043e-05 1.74654e-05)
(0.134168 -3.77744e-05 1.55516e-05)
(0.134272 -6.4269e-05 3.00859e-05)
(0.134347 -2.05312e-05 1.75694e-05)
(0.134296 5.9597e-05 -1.07618e-05)
(0.134275 -2.24711e-06 -1.93018e-05)
(0.134284 2.89677e-05 -1.81817e-05)
(0.134248 -2.87854e-06 -8.24498e-06)
(0.134314 5.20484e-06 1.0951e-05)
(0.134247 9.87584e-05 -2.77543e-05)
(0.134256 -2.16447e-05 -2.46368e-05)
(0.134247 8.12952e-05 -3.79659e-05)
(0.134224 -2.85342e-05 -3.06225e-05)
(0.134276 4.93141e-05 -7.11229e-06)
(0.134219 2.59322e-05 -2.03105e-06)
(0.134266 -1.8413e-05 2.23067e-06)
(0.134237 2.52717e-05 -9.62699e-06)
(0.13426 -6.43698e-05 -3.87278e-05)
(0.134314 3.15809e-05 4.45482e-06)
(0.134264 4.06692e-05 -2.27595e-05)
(0.134276 1.73749e-05 6.30004e-06)
(0.134243 1.30518e-05 -4.56189e-06)
(0.134272 -5.31054e-05 -3.82103e-06)
(0.134318 2.39427e-05 4.13457e-05)
(0.134251 4.13475e-05 1.3306e-05)
(0.134238 -2.41139e-05 1.22196e-05)
(0.134248 -5.30181e-05 -1.35109e-05)
(0.134274 -0.000102655 2.40502e-05)
(0.13435 -5.70008e-05 3.34631e-06)
(0.134331 4.45129e-05 2.46995e-06)
(0.134274 1.86391e-05 -1.58513e-05)
(0.134303 -2.98895e-06 -3.98734e-07)
(0.134286 5.30854e-05 8.08741e-06)
(0.134283 1.45092e-05 8.28112e-06)
(0.134306 8.91098e-05 6.46849e-06)
(0.134199 7.68046e-05 -1.8487e-05)
(0.134262 -5.60151e-05 -1.71938e-06)
(0.134256 8.14901e-05 -1.5613e-06)
(0.13423 -2.85197e-05 4.33435e-05)
(0.134235 3.20631e-05 -6.5899e-06)
(0.134239 -8.03522e-05 2.31476e-05)
(0.134293 -6.25028e-05 1.87922e-05)
(0.134396 -9.0596e-05 4.67634e-05)
(0.134492 -2.46071e-05 3.73942e-05)
(0.134415 8.94226e-05 -1.67429e-05)
(0.134382 -1.28777e-05 -3.51658e-05)
(0.1344 1.8409e-05 -3.45579e-05)
(0.134359 -1.26707e-05 -9.50959e-06)
(0.134453 2.94213e-06 2.62395e-05)
(0.134356 0.000138774 -3.82979e-05)
(0.134366 -4.51469e-05 -4.52549e-05)
(0.134361 9.34874e-05 -5.61431e-05)
(0.134333 -3.85912e-05 -4.37554e-05)
(0.134404 7.48217e-05 9.67839e-07)
(0.134318 4.76569e-05 1.86132e-06)
(0.134379 -3.0018e-05 1.95317e-06)
(0.134342 2.36197e-05 -1.65351e-05)
(0.134379 -8.5157e-05 -5.34349e-05)
(0.134455 5.1929e-05 2.06547e-05)
(0.134376 7.76034e-05 -2.85916e-05)
(0.134384 2.08233e-05 4.51358e-06)
(0.134343 5.64282e-06 -7.83526e-06)
(0.134391 -7.00383e-05 -7.63064e-07)
(0.134455 4.54052e-05 7.64454e-05)
(0.134354 7.42396e-05 2.68163e-05)
(0.13433 -3.20177e-05 1.15022e-05)
(0.134344 -8.44128e-05 -2.43751e-05)
(0.134389 -0.000150087 3.98981e-05)
(0.1345 -7.43734e-05 1.69017e-05)
(0.134463 7.34397e-05 9.65777e-06)
(0.134378 1.29118e-05 -3.13704e-05)
(0.134427 -2.13624e-05 -3.44535e-06)
(0.134406 6.49524e-05 1.25946e-05)
(0.134407 1.62547e-05 2.70904e-05)
(0.134435 0.00012915 1.30401e-05)
(0.13428 9.2985e-05 -3.29758e-05)
(0.13438 -0.000103239 -6.18499e-06)
(0.134379 0.000117392 7.26219e-07)
(0.134336 -3.08721e-05 7.52008e-05)
(0.134337 5.96537e-05 -1.03317e-05)
(0.134332 -0.000119623 2.50834e-05)
(0.134411 -0.000104157 2.10234e-05)
(0.13452 -0.000119752 7.13464e-05)
(0.134639 -2.16843e-05 7.67555e-05)
(0.134526 0.000133665 -2.35805e-05)
(0.134474 -3.53826e-05 -6.31431e-05)
(0.134509 -1.04345e-05 -6.23319e-05)
(0.134466 -2.15124e-05 -9.13228e-06)
(0.134594 5.67009e-06 5.78409e-05)
(0.134454 0.000195016 -5.12831e-05)
(0.134463 -8.59568e-05 -8.51388e-05)
(0.134472 9.33812e-05 -8.2506e-05)
(0.134441 -4.49739e-05 -6.17585e-05)
(0.134531 0.000113741 2.26021e-05)
(0.134404 8.35968e-05 1.01702e-05)
(0.13448 -5.50117e-05 -4.07271e-06)
(0.13444 5.50286e-06 -3.08538e-05)
(0.134496 -0.000105897 -7.09102e-05)
(0.134598 8.21808e-05 5.48043e-05)
(0.134478 0.000135001 -3.33127e-05)
(0.134476 1.31307e-05 -6.47726e-06)
(0.134434 -1.97988e-05 -1.46595e-05)
(0.13451 -8.66021e-05 6.58123e-06)
(0.134593 8.24091e-05 0.000137791)
(0.134445 0.000125355 5.00896e-05)
(0.134403 -4.76604e-05 2.02686e-06)
(0.134427 -0.00013779 -4.35773e-05)
(0.134501 -0.00021027 6.41546e-05)
(0.134656 -8.88876e-05 4.80528e-05)
(0.134588 0.000117687 2.42201e-05)
(0.134465 -6.5076e-06 -6.09845e-05)
(0.134547 -5.98808e-05 -1.17902e-05)
(0.134524 7.97398e-05 1.91209e-05)
(0.13453 2.35028e-05 6.61901e-05)
(0.134558 0.00018605 2.30456e-05)
(0.134338 0.000102906 -6.08411e-05)
(0.134495 -0.000181652 -1.81588e-05)
(0.134505 0.00016853 4.57133e-06)
(0.134433 -2.49331e-05 0.00012806)
(0.134424 0.000104323 -1.55556e-05)
(0.134406 -0.000181256 1.68569e-05)
(0.134526 -0.00017492 2.05318e-05)
(0.134652 -0.000147663 0.000106065)
(0.134789 -4.73914e-06 0.000150402)
(0.134624 0.000198383 -2.99729e-05)
(0.134547 -7.89285e-05 -0.000111915)
(0.134616 -7.0955e-05 -0.000107779)
(0.134575 -2.25745e-05 -5.84239e-06)
(0.134736 2.03866e-05 0.000118425)
(0.134538 0.00027372 -6.49549e-05)
(0.134544 -0.000155445 -0.000157796)
(0.134584 6.55088e-05 -0.000121683)
(0.13455 -3.94298e-05 -8.62661e-05)
(0.134657 0.000174262 7.01557e-05)
(0.134472 0.000139758 2.59431e-05)
(0.134563 -0.00010478 -2.30788e-05)
(0.134534 -4.38026e-05 -5.8986e-05)
(0.134616 -0.000121248 -8.9763e-05)
(0.134747 0.000129254 0.000121718)
(0.134567 0.000220454 -3.52298e-05)
(0.134545 -1.75354e-05 -3.66936e-05)
(0.13452 -7.77659e-05 -2.8483e-05)
(0.134635 -9.56263e-05 2.03914e-05)
(0.134734 0.000145554 0.000240569)
(0.13452 0.000202198 8.82248e-05)
(0.134452 -7.84999e-05 -2.54084e-05)
(0.134499 -0.000227621 -7.6543e-05)
(0.134614 -0.000280339 9.92722e-05)
(0.13482 -9.29713e-05 0.000111545)
(0.134703 0.000182471 5.09437e-05)
(0.134531 -5.06181e-05 -0.000115101)
(0.134667 -0.000133149 -2.99882e-05)
(0.134645 0.00010137 2.91075e-05)
(0.134653 4.36698e-05 0.000140534)
(0.134672 0.000265787 3.80733e-05)
(0.134368 9.75816e-05 -0.000114054)
(0.134611 -0.000309403 -4.39438e-05)
(0.134639 0.000242499 9.51474e-06)
(0.134524 -2.68544e-06 0.000214692)
(0.134492 0.000174277 -2.26783e-05)
(0.134453 -0.000278343 -1.28209e-05)
(0.13464 -0.000292234 1.39912e-05)
(0.134798 -0.000161889 0.00015371)
(0.134943 3.99817e-05 0.00028)
(0.134705 0.000291556 -3.38092e-05)
(0.134593 -0.000161106 -0.000194635)
(0.134725 -0.00018468 -0.000179584)
(0.134692 -5.17924e-06 2.49794e-06)
(0.134881 5.71435e-05 0.000227283)
(0.134601 0.000383508 -7.789e-05)
(0.1346 -0.000271593 -0.000284329)
(0.134704 -1.1893e-05 -0.000178514)
(0.134671 -1.0011e-05 -0.000117975)
(0.134783 0.000268723 0.000162148)
(0.134517 0.000224543 5.36357e-05)
(0.134621 -0.000196454 -6.66953e-05)
(0.13463 -0.000147637 -0.000107869)
(0.134746 -0.000117967 -0.000109009)
(0.134901 0.000203001 0.000242735)
(0.134636 0.000344237 -3.17498e-05)
(0.134586 -9.04896e-05 -0.000101136)
(0.134608 -0.000190575 -5.25582e-05)
(0.134774 -8.46438e-05 4.40336e-05)
(0.134877 0.000251397 0.000407287)
(0.134573 0.000314941 0.000147279)
(0.134469 -0.000135233 -8.61768e-05)
(0.134562 -0.000375722 -0.000130736)
(0.134737 -0.000353062 0.000149167)
(0.134993 -7.42e-05 0.000230499)
(0.134801 0.000274143 9.7186e-05)
(0.13457 -0.000136398 -0.000210191)
(0.134792 -0.000264894 -6.44924e-05)
(0.134775 0.000138053 4.46964e-05)
(0.134777 8.81192e-05 0.000272321)
(0.134772 0.000377856 6.16709e-05)
(0.134361 6.37391e-05 -0.00020837)
(0.134736 -0.000511562 -9.25425e-05)
(0.134792 0.000352022 1.639e-05)
(0.134609 4.82934e-05 0.00035307)
(0.134535 0.00028047 -3.09297e-05)
(0.134467 -0.000428277 -8.1095e-05)
(0.134761 -0.000483145 -3.91243e-06)
(0.134972 -0.000150546 0.000217795)
(0.135101 0.000127807 0.000495601)
(0.13476 0.000425164 -3.25228e-05)
(0.134604 -0.000300574 -0.000330799)
(0.134846 -0.000378162 -0.000288587)
(0.134826 4.84999e-05 1.74325e-05)
(0.135028 0.00013152 0.000412465)
(0.134637 0.000535507 -8.68447e-05)
(0.134623 -0.00045844 -0.000493018)
(0.13484 -0.000169582 -0.000260598)
(0.134812 6.07953e-05 -0.000157787)
(0.134908 0.000414384 0.000324069)
(0.134531 0.000348776 9.92339e-05)
(0.134644 -0.000353703 -0.000152877)
(0.134739 -0.00033705 -0.000191462)
(0.134898 -7.73518e-05 -0.000123609)
(0.135062 0.000317969 0.000447567)
(0.134678 0.000516744 -1.71938e-05)
(0.134588 -0.00023044 -0.000224827)
(0.134707 -0.000387845 -9.57908e-05)
(0.134939 -3.51578e-05 7.97075e-05)
(0.135024 0.000422706 0.000666549)
(0.134598 0.000475997 0.000233794)
(0.134445 -0.00023443 -0.000201567)
(0.134623 -0.000611516 -0.000217527)
(0.13488 -0.000414401 0.000214243)
(0.135177 -1.58935e-05 0.000436557)
(0.134875 0.000401475 0.000170016)
(0.134572 -0.000286422 -0.000368993)
(0.13493 -0.000485402 -0.000124929)
(0.134926 0.000201112 6.80268e-05)
(0.134903 0.000172288 0.000490867)
(0.134852 0.000531795 9.4227e-05)
(0.134308 -1.50536e-05 -0.000369675)
(0.134877 -0.000822911 -0.00017679)
(0.134974 0.000514022 2.50177e-05)
(0.134688 0.000144518 0.000568457)
(0.134544 0.000437548 -4.06542e-05)
(0.134434 -0.000658345 -0.000212291)
(0.134896 -0.000778616 -4.05385e-05)
(0.135186 -7.57902e-05 0.000299657)
(0.135262 0.000280658 0.000834455)
(0.13478 0.000605505 -2.30072e-05)
(0.134569 -0.000533314 -0.000546566)
(0.134989 -0.000689178 -0.000450318)
(0.134989 0.000162227 4.21356e-05)
(0.135176 0.000263866 0.00070711)
(0.134635 0.00074392 -9.00666e-05)
(0.1346 -0.000748158 -0.000823497)
(0.135005 -0.000445612 -0.00037846)
(0.134988 0.000196547 -0.000208689)
(0.135029 0.000634379 0.000590045)
(0.134503 0.000525291 0.000168525)
(0.134621 -0.000608147 -0.000305601)
(0.134871 -0.000651769 -0.000320664)
(0.135082 2.49828e-05 -0.00013097)
(0.135225 0.000492692 0.000776321)
(0.134682 0.000751328 7.44445e-06)
(0.134537 -0.000470909 -0.000437032)
(0.13483 -0.000708554 -0.000161862)
(0.135144 7.80076e-05 0.00013218)
(0.135172 0.000688314 0.001055)
(0.134583 0.000700615 0.000356202)
(0.134367 -0.00039693 -0.000402659)
(0.134689 -0.000974454 -0.000349665)
(0.135055 -0.000443112 0.000299088)
(0.135369 0.000104702 0.000770143)
(0.134914 0.000571957 0.000280337)
(0.134525 -0.000529904 -0.000626028)
(0.13509 -0.000836079 -0.000222593)
(0.135111 0.000306214 0.00010391)
(0.135031 0.000317749 0.000836462)
(0.134903 0.000739432 0.000143509)
(0.134195 -0.000162524 -0.000628174)
(0.135047 -0.00128426 -0.000312883)
(0.1352 0.000751776 3.37593e-05)
(0.134759 0.000307748 0.000890479)
(0.13451 0.000661776 -5.07821e-05)
(0.134343 -0.000999181 -0.000442722)
(0.135058 -0.00122606 -0.00010723)
(0.135459 7.05608e-05 0.000397948)
(0.135419 0.000538904 0.00133914)
(0.13475 0.000866464 -2.06486e-06)
(0.134476 -0.000887101 -0.000877579)
(0.135174 -0.00115602 -0.000683036)
(0.135197 0.000370001 7.37732e-05)
(0.135321 0.000479138 0.00115484)
(0.134584 0.00102457 -8.10195e-05)
(0.134519 -0.00117952 -0.00132444)
(0.135219 -0.000886016 -0.000547046)
(0.135215 0.000429686 -0.000273554)
(0.135144 0.000958324 0.000995384)
(0.13442 0.000768393 0.000271278)
(0.134538 -0.000997409 -0.000561159)
(0.135048 -0.00113882 -0.000524138)
(0.135314 0.000224213 -0.000128823)
(0.135389 0.000753399 0.00126726)
(0.134638 0.00105991 5.33791e-05)
(0.134422 -0.000854255 -0.000787941)
(0.134999 -0.00119598 -0.000275016)
(0.135407 0.000289229 0.000197533)
(0.135319 0.00108333 0.00161051)
(0.134518 0.00100555 0.000517924)
(0.134221 -0.000651931 -0.00072561)
(0.134777 -0.00150535 -0.000552443)
(0.13528 -0.000413285 0.000398303)
(0.135567 0.000310213 0.00127684)
(0.134905 0.000795449 0.000433482)
(0.134416 -0.000903513 -0.00101911)
(0.13529 -0.00136223 -0.000380684)
(0.135345 0.00047825 0.000153909)
(0.135162 0.000547801 0.00134533)
(0.134916 0.00101832 0.000203628)
(0.134007 -0.000407724 -0.00103013)
(0.135265 -0.00194437 -0.000526118)
(0.135485 0.00109849 3.97576e-05)
(0.134823 0.000566143 0.00135587)
(0.134419 0.000974898 -5.91517e-05)
(0.134176 -0.00149493 -0.000817244)
(0.135272 -0.00186543 -0.000221625)
(0.135822 0.00036173 0.000493714)
(0.135586 0.000893301 0.00205305)
(0.134664 0.00118627 4.38146e-05)
(0.13433 -0.00142311 -0.00135982)
(0.135451 -0.00183052 -0.00103043)
(0.135473 0.000707138 0.000102154)
(0.135468 0.000807568 0.00178988)
(0.134475 0.00139604 -4.62358e-05)
(0.134391 -0.00179915 -0.00205642)
(0.135539 -0.00153857 -0.000808145)
(0.135527 0.000793768 -0.000374722)
(0.135257 0.00141719 0.00158538)
(0.134278 0.00109843 0.000422109)
(0.134399 -0.00156501 -0.000947514)
(0.135323 -0.0018469 -0.000830922)
(0.135622 0.00055881 -0.000129746)
(0.135555 0.00112363 0.00197267)
(0.134537 0.00146041 0.000119307)
(0.134249 -0.00142328 -0.00130556)
(0.13527 -0.00190376 -0.000452912)
(0.135761 0.000636392 0.000269712)
(0.135468 0.00164815 0.00237335)
(0.134395 0.00140868 0.000737651)
(0.134005 -0.0010272 -0.00121619)
(0.134931 -0.00226385 -0.000867373)
(0.135583 -0.000273648 0.000496259)
(0.135777 0.000640742 0.00200545)
(0.134844 0.00108756 0.000655785)
(0.134251 -0.00144516 -0.00159994)
(0.135581 -0.00212039 -0.000633796)
(0.135658 0.000746108 0.000204501)
(0.135304 0.000895907 0.00207707)
(0.134886 0.00138086 0.000305464)
(0.13374 -0.000784181 -0.00161205)
(0.135596 -0.00285865 -0.000872145)
(0.135859 0.00158451 1.80586e-05)
(0.134885 0.00094616 0.00200037)
(0.134265 0.00139525 -5.08271e-05)
(0.133946 -0.00218632 -0.00138399)
(0.135597 -0.0027621 -0.000427788)
(0.13639 0.000769223 0.000493073)
(0.135821 0.00147539 0.00301499)
(0.134566 0.00165122 0.000193592)
(0.134279 -0.00216867 -0.00200434)
(0.136031 -0.0027444 -0.00162259)
(0.135915 0.0012179 3.13228e-05)
(0.135708 0.00128621 0.00266823)
(0.13434 0.00186556 0.000124208)
(0.134408 -0.00266301 -0.00305648)
(0.13621 -0.00245225 -0.00131689)
(0.136039 0.00134006 -0.00060034)
(0.135433 0.00204303 0.00240105)
(0.13413 0.00151773 0.000705997)
(0.134337 -0.00236862 -0.00146491)
(0.135912 -0.00282643 -0.00138586)
(0.13611 0.00107784 -0.000222494)
(0.135795 0.00164198 0.00293444)
(0.134443 0.00195247 0.000307796)
(0.134179 -0.00223416 -0.00200991)
(0.135903 -0.00287013 -0.000863928)
(0.136336 0.00116062 0.000241225)
(0.135693 0.00242769 0.00337104)
(0.13426 0.00193292 0.00107165)
(0.133817 -0.00157711 -0.00185909)
(0.135369 -0.00327586 -0.00150501)
(0.136105 -1.65923e-05 0.000459323)
(0.136093 0.0011171 0.00299663)
(0.134791 0.00143976 0.00102163)
(0.13416 -0.00221447 -0.00235401)
(0.136189 -0.00315164 -0.00118607)
(0.136171 0.00113806 0.000156689)
(0.135548 0.00138805 0.00303953)
(0.134865 0.00185012 0.00049881)
(0.133508 -0.00134712 -0.00239415)
(0.136319 -0.00405814 -0.00155688)
(0.136429 0.00226734 -0.00015216)
(0.135034 0.00149316 0.00288589)
(0.134102 0.00193712 6.52542e-05)
(0.133832 -0.0031414 -0.00212459)
(0.13631 -0.00394357 -0.000886958)
(0.137535 0.00146186 5.79714e-05)
(0.136485 0.00220305 0.004324)
(0.134696 0.00212656 0.00079161)
(0.135016 -0.00326417 -0.00261322)
(0.137511 -0.00393819 -0.00285433)
(0.136851 0.00194433 -0.000405866)
(0.136392 0.00199169 0.00384856)
(0.134411 0.00242351 0.000867002)
(0.135441 -0.00391314 -0.00418776)
(0.137968 -0.00367434 -0.00248388)
(0.137105 0.00211809 -0.00127615)
(0.135886 0.00294762 0.00356235)
(0.1343 0.00205095 0.00141688)
(0.135011 -0.00349958 -0.00183627)
(0.13741 -0.00412048 -0.00250369)
(0.137077 0.00182332 -0.000718033)
(0.136392 0.00239495 0.00431389)
(0.134675 0.00251312 0.0009542)
(0.135076 -0.00342519 -0.00254699)
(0.137665 -0.00413504 -0.00189298)
(0.137481 0.00192281 -0.000225794)
(0.136307 0.0035019 0.0046917)
(0.13439 0.0025759 0.00186026)
(0.134213 -0.00238509 -0.00245909)
(0.136761 -0.00464385 -0.00300383)
(0.137285 0.00043964 -8.29099e-05)
(0.136886 0.00185349 0.00431057)
(0.135039 0.00189099 0.00190668)
(0.134802 -0.00330135 -0.00310652)
(0.137731 -0.00449888 -0.00254505)
(0.137261 0.00170058 -0.000331762)
(0.136249 0.00211525 0.00435456)
(0.135115 0.00240466 0.00121315)
(0.133969 -0.0022054 -0.00321158)
(0.138195 -0.00563743 -0.0031501)
(0.137484 0.00317734 -0.000903024)
(0.13566 0.0022938 0.00419314)
(0.134243 0.00258093 0.000692954)
(0.134695 -0.00451728 -0.00268396)
(0.138121 -0.00546934 -0.00205968)
(0.139954 0.00235799 -0.00143106)
(0.138323 0.00340465 0.00630501)
(0.136319 0.00272108 0.00282017)
(0.138491 -0.00484681 -0.00229183)
(0.140711 -0.00534621 -0.00525194)
(0.138718 0.00285776 -0.00186433)
(0.138277 0.00301377 0.00563961)
(0.135882 0.00292524 0.00357715)
(0.139694 -0.0057249 -0.00443833)
(0.141796 -0.00512662 -0.00491328)
(0.139146 0.00316811 -0.00316849)
(0.137167 0.00404122 0.00536378)
(0.136062 0.00262803 0.0034021)
(0.13812 -0.00508963 -0.00110458)
(0.140545 -0.0056664 -0.00482986)
(0.138835 0.00282275 -0.00243188)
(0.137992 0.00341056 0.0064357)
(0.136455 0.00303002 0.00328174)
(0.139284 -0.00512137 -0.0018755)
(0.141372 -0.00564618 -0.00434794)
(0.139742 0.00292294 -0.00183545)
(0.138019 0.00488286 0.00660762)
(0.135798 0.00332987 0.00414218)
(0.13704 -0.00359064 -0.00236493)
(0.140213 -0.00627123 -0.0064004)
(0.139809 0.000985716 -0.00202524)
(0.138783 0.00283968 0.00590128)