/*--------------------------------*- C++ -*----------------------------------*\
  =========                 |
  \\      /  F ield         | OpenFOAM: The Open Source CFD Toolbox
   \\    /   O peration     | Website:  https://openfoam.org
    \\  /    A nd           | Version:  10
     \\/     M anipulation  |
\*---------------------------------------------------------------------------*/
FoamFile
{
    format      ascii;
    class       volSymmTensorField;
    location    "2";
    object      UPrime2Mean;
}
// * * * * * * * * * * * * * * * * * * * * * * * * * * * * * * * * * * * * * //

dimensions      [0 2 -2 0 0 0 0];

internalField   nonuniform List<symmTensor> 
25600
(
(4.43027e-07 4.68942e-10 4.68797e-10 6.1107e-13 5.36102e-13 5.81953e-13)
(4.32119e-07 -4.32965e-10 4.13684e-12 1.01128e-12 1.0018e-13 7.53957e-14)
(4.4277e-07 -4.99278e-10 -2.7816e-10 1.14317e-12 3.83127e-13 1.89758e-13)
(4.40243e-07 -6.61745e-11 1.96799e-10 3.49141e-13 -1.03537e-13 1.23535e-13)
(4.39266e-07 1.5803e-10 2.0389e-10 4.22902e-13 -4.3091e-14 1.44882e-13)
(4.40653e-07 5.37295e-10 1.87562e-10 9.48705e-13 1.50404e-13 1.26255e-13)
(4.38947e-07 6.88097e-10 1.56199e-10 1.5407e-12 1.6571e-13 8.87969e-14)
(4.3943e-07 1.12051e-09 1.06676e-10 3.41002e-12 2.32338e-13 4.73849e-14)
(4.38644e-07 1.14946e-09 5.0773e-11 3.6268e-12 1.22236e-13 1.72868e-14)
(4.384e-07 1.44273e-09 7.3726e-12 5.54655e-12 2.9254e-14 1.3598e-14)
(4.37827e-07 1.44701e-09 -5.00162e-11 5.47493e-12 -1.42235e-13 2.65488e-14)
(4.3762e-07 1.3735e-09 -6.04653e-11 4.95118e-12 -1.66519e-13 3.28872e-14)
(4.37367e-07 1.29176e-09 -4.08228e-11 4.39052e-12 -1.22391e-13 2.34277e-14)
(4.37293e-07 9.32972e-10 -3.28241e-11 2.35304e-12 -8.31387e-14 1.98985e-14)
(4.37357e-07 8.08362e-10 9.21906e-12 1.74847e-12 2.92573e-15 1.25515e-14)
(4.37289e-07 5.39669e-10 -3.19193e-11 8.49292e-13 -6.58634e-14 1.87743e-14)
(4.37509e-07 3.65663e-10 -1.95629e-11 3.82622e-13 -4.14129e-14 2.57885e-14)
(4.37574e-07 2.86439e-10 -2.05411e-11 3.06988e-13 -5.81726e-14 3.73977e-14)
(4.37674e-07 2.76354e-11 1.68579e-11 6.17665e-14 -3.80565e-14 6.14027e-14)
(4.37857e-07 -3.60973e-11 7.22013e-11 4.306e-14 -3.06663e-14 8.9122e-14)
(4.3782e-07 -2.55707e-10 1.01755e-10 2.06123e-13 -7.07863e-14 1.2895e-13)
(4.37915e-07 -3.92016e-10 1.65369e-10 4.10097e-13 -1.15712e-13 1.77685e-13)
(4.37861e-07 -3.63207e-10 2.01544e-10 3.69972e-13 -1.58811e-13 2.01156e-13)
(4.37735e-07 -4.83661e-10 2.54972e-10 6.46876e-13 -2.98881e-13 2.3614e-13)
(4.37926e-07 -5.47784e-10 2.70809e-10 8.58422e-13 -3.64409e-13 2.27754e-13)
(4.38045e-07 -6.15256e-10 3.02337e-10 1.16333e-12 -4.53419e-13 2.56958e-13)
(4.38497e-07 -6.63314e-10 3.26239e-10 1.44633e-12 -4.83514e-13 2.91579e-13)
(4.38865e-07 -6.20086e-10 3.12655e-10 1.46827e-12 -3.71814e-13 2.85999e-13)
(4.39278e-07 -4.6204e-10 3.05327e-10 1.26704e-12 -1.62148e-13 3.03614e-13)
(4.39061e-07 -4.31574e-10 2.6977e-10 1.19474e-12 -6.97995e-14 2.72898e-13)
(4.4029e-07 -1.97461e-10 2.48817e-10 9.52086e-13 1.48141e-13 2.63111e-13)
(4.38906e-07 -5.46526e-11 2.06466e-10 9.23009e-13 2.63313e-13 2.19625e-13)
(4.40723e-07 3.48882e-11 1.83089e-10 8.48131e-13 2.95418e-13 1.92257e-13)
(4.39566e-07 2.47517e-10 1.59014e-10 1.07755e-12 3.76978e-13 1.6013e-13)
(4.37758e-07 1.74021e-10 1.4508e-10 7.47184e-13 2.83108e-13 1.30447e-13)
(4.41809e-07 2.59924e-10 7.10743e-11 6.86433e-13 1.86635e-13 5.49211e-14)
(4.34404e-07 2.79123e-10 9.82399e-11 5.46322e-13 1.50842e-13 5.20584e-14)
(4.40131e-07 4.94704e-10 3.59084e-10 9.75713e-13 5.88938e-13 4.04083e-13)
(4.3219e-07 -3.11001e-10 -1.36764e-10 4.8833e-13 7.33095e-14 8.35036e-14)
(4.35311e-07 -2.79448e-10 -3.21423e-10 4.38713e-13 3.25548e-13 3.17251e-13)
(3.74141e-07 -3.00399e-10 1.50355e-09 3.70354e-13 -1.32351e-12 6.45029e-12)
(3.63993e-07 -6.96352e-10 6.0043e-11 1.70422e-12 -1.3203e-13 4.50723e-13)
(3.74116e-07 -5.55634e-10 -5.17746e-10 1.22373e-12 8.65792e-13 7.52233e-13)
(3.73501e-07 -2.05772e-10 1.17335e-10 3.93158e-13 -8.3658e-14 8.72982e-14)
(3.73393e-07 -2.02756e-11 2.89125e-10 5.08553e-13 -1.12783e-13 2.59339e-13)
(3.7495e-07 4.44919e-10 3.32312e-10 8.32044e-13 3.12846e-13 3.36582e-13)
(3.73582e-07 4.98915e-10 3.57671e-10 1.34458e-12 3.45604e-13 3.88214e-13)
(3.73921e-07 1.26847e-09 2.79214e-10 4.75052e-12 9.03955e-13 2.45019e-13)
(3.72981e-07 1.14832e-09 2.26656e-10 4.00306e-12 7.13398e-13 1.56387e-13)
(3.72754e-07 1.5457e-09 1.5325e-10 7.06633e-12 6.79011e-13 9.17176e-14)
(3.71829e-07 1.43985e-09 4.38559e-11 6.18832e-12 2.67456e-13 4.33687e-14)
(3.71618e-07 1.23805e-09 1.59675e-11 4.75473e-12 1.58544e-13 4.75765e-14)
(3.71125e-07 1.19138e-09 1.56136e-11 4.53174e-12 8.2347e-14 4.40041e-14)
(3.71095e-07 6.07207e-10 2.39436e-11 1.54079e-12 3.96235e-14 3.97054e-14)
(3.71317e-07 5.89379e-10 7.60126e-11 1.23236e-12 1.16596e-13 3.76586e-14)
(3.71202e-07 2.22889e-10 -2.48962e-11 4.23799e-13 -4.10016e-14 2.94811e-14)
(3.71662e-07 5.50761e-11 -1.2807e-11 5.22705e-14 -1.65269e-14 4.35769e-14)
(3.71631e-07 1.16124e-10 -3.21644e-11 1.84667e-13 -6.86504e-14 5.74812e-14)
(3.71739e-07 -2.00329e-10 3.00628e-11 1.76645e-13 -6.46383e-14 9.22993e-14)
(3.7196e-07 -1.41324e-10 1.3091e-10 7.26063e-14 -6.44498e-14 1.26698e-13)
(3.71814e-07 -3.72485e-10 1.26734e-10 4.11218e-13 -1.36703e-13 1.61177e-13)
(3.72163e-07 -5.03449e-10 2.2096e-10 7.51125e-13 -2.27521e-13 2.52676e-13)
(3.72095e-07 -2.77531e-10 2.30798e-10 2.63812e-13 -1.72263e-13 2.49052e-13)
(3.7182e-07 -4.41243e-10 2.95649e-10 6.63834e-13 -3.84485e-13 3.08238e-13)
(3.72072e-07 -5.70121e-10 2.71186e-10 1.06785e-12 -4.43013e-13 2.33993e-13)
(3.72168e-07 -6.66905e-10 3.05349e-10 1.55846e-12 -5.73263e-13 2.69839e-13)
(3.72759e-07 -8.51301e-10 3.31439e-10 2.43108e-12 -7.2794e-13 3.1667e-13)
(3.73368e-07 -6.7467e-10 3.0173e-10 1.92075e-12 -4.47192e-13 2.89557e-13)
(3.7368e-07 -3.99879e-10 3.0862e-10 1.46139e-12 -1.12424e-13 3.43074e-13)
(3.73525e-07 -4.7619e-10 2.69781e-10 1.47866e-12 -1.30455e-13 3.03703e-13)
(3.7484e-07 -1.20842e-10 2.84178e-10 9.55287e-13 1.76233e-13 3.56207e-13)
(3.73317e-07 2.87824e-11 2.20034e-10 9.1058e-13 3.05326e-13 2.7815e-13)
(3.75295e-07 2.01101e-10 2.19675e-10 9.61263e-13 4.00233e-13 2.84867e-13)
(3.73752e-07 7.02662e-10 1.49558e-10 2.50766e-12 6.16466e-13 1.97278e-13)
(3.72352e-07 4.61534e-10 1.93111e-10 1.35366e-12 5.29864e-13 2.39245e-13)
(3.75132e-07 9.07456e-10 -1.29506e-10 3.07077e-12 -1.80788e-13 9.91361e-14)
(3.70715e-07 6.06104e-10 2.22146e-10 1.54095e-12 5.08596e-13 2.01736e-13)
(3.70963e-07 1.10414e-09 3.28095e-10 3.90301e-12 1.35649e-12 6.67093e-13)
(3.69002e-07 3.66711e-10 -1.23258e-09 1.8157e-12 -1.26928e-12 4.33478e-12)
(3.77951e-07 -8.56061e-10 -2.49588e-10 2.38536e-12 4.94022e-13 1.02085e-12)
(3.74268e-07 -3.79923e-10 1.51709e-09 9.36814e-13 -1.61391e-12 6.50169e-12)
(3.64538e-07 -1.22485e-09 8.36896e-11 4.91516e-12 -3.72226e-13 4.44175e-13)
(3.75369e-07 -5.87926e-10 -4.89389e-10 1.2832e-12 8.18749e-13 6.71064e-13)
(3.74596e-07 -5.86368e-10 1.78695e-10 1.33732e-12 -3.95571e-13 1.79828e-13)
(3.74878e-07 -3.70156e-10 4.21345e-10 1.25471e-12 -5.22171e-13 5.28931e-13)
(3.76284e-07 3.09757e-10 4.71487e-10 6.50798e-13 3.27251e-13 6.3897e-13)
(3.75295e-07 2.07513e-10 5.91684e-10 1.44967e-12 1.46693e-13 9.99861e-13)
(3.75454e-07 1.66513e-09 4.71194e-10 7.90213e-12 2.06415e-12 6.48008e-13)
(3.74067e-07 1.26872e-09 3.9614e-10 4.75397e-12 1.39108e-12 4.50062e-13)
(3.73872e-07 1.90239e-09 2.99195e-10 1.05099e-11 1.59078e-12 3.04513e-13)
(3.72303e-07 1.6103e-09 9.74854e-11 7.83667e-12 5.83743e-13 1.18167e-13)
(3.7222e-07 1.21457e-09 6.28456e-11 4.86872e-12 4.23007e-13 1.19396e-13)
(3.71328e-07 1.32406e-09 5.94261e-11 6.08023e-12 2.44625e-13 1.04911e-13)
(3.71317e-07 3.21501e-10 7.72775e-11 1.38675e-12 4.8456e-14 9.78578e-14)
(3.71763e-07 4.77618e-10 1.88092e-10 1.08653e-12 2.61116e-13 1.33531e-13)
(3.7146e-07 -1.08665e-10 -4.80504e-11 5.97257e-13 -6.36276e-16 5.0045e-14)
(3.72416e-07 -2.96216e-10 -2.46989e-11 2.91318e-13 4.02667e-14 7.84032e-14)
(3.72229e-07 6.26012e-11 -7.46171e-11 3.28397e-13 -1.01216e-13 9.80951e-14)
(3.72316e-07 -4.11648e-10 3.73639e-11 6.27164e-13 -1.27588e-13 1.65239e-13)
(3.72629e-07 -1.84463e-10 2.28262e-10 1.19466e-13 -1.15912e-13 2.34647e-13)
(3.72262e-07 -5.45095e-10 1.43981e-10 8.55571e-13 -2.16921e-13 2.25631e-13)
(3.7313e-07 -7.23508e-10 3.20195e-10 1.68444e-12 -4.41546e-13 4.42356e-13)
(3.7302e-07 -8.0492e-11 3.00766e-10 1.07129e-13 -7.8208e-14 3.7393e-13)
(3.72284e-07 -3.2004e-10 4.11286e-10 6.19193e-13 -4.17768e-13 5.37022e-13)
(3.72591e-07 -5.81719e-10 3.1527e-10 1.1973e-12 -5.27571e-13 3.00995e-13)
(3.72602e-07 -7.68355e-10 3.62725e-10 2.06178e-12 -7.89106e-13 3.70187e-13)
(3.73511e-07 -1.18742e-09 4.09783e-10 4.30809e-12 -1.26456e-12 4.98456e-13)
(3.74655e-07 -7.59905e-10 3.29812e-10 2.41257e-12 -5.22012e-13 3.68017e-13)
(3.74629e-07 -2.20417e-10 3.60894e-10 1.8559e-12 1.97127e-13 4.99038e-13)
(3.74544e-07 -5.83323e-10 3.08169e-10 2.01163e-12 -1.84281e-13 4.17818e-13)
(3.76141e-07 -2.25776e-12 3.82985e-10 1.06343e-12 3.43327e-13 6.10629e-13)
(3.74416e-07 1.26963e-10 2.65672e-10 1.04739e-12 4.42141e-13 4.07951e-13)
(3.76858e-07 3.83883e-10 3.15544e-10 1.39338e-12 6.44636e-13 5.11594e-13)
(3.74843e-07 1.4166e-09 2.22905e-10 7.33047e-12 1.38484e-12 3.71697e-13)
(3.73319e-07 7.98083e-10 2.35732e-10 2.76941e-12 9.13227e-13 3.68928e-13)
(3.76215e-07 1.56891e-09 -1.94668e-10 7.87723e-12 -6.33932e-13 1.9319e-13)
(3.71447e-07 1.35635e-09 1.86885e-10 6.22584e-12 9.03711e-13 1.82636e-13)
(3.71188e-07 1.52564e-09 2.88168e-10 7.63167e-12 1.79022e-12 6.09841e-13)
(3.68745e-07 4.07713e-10 -1.31572e-09 1.9683e-12 -1.54672e-12 4.96297e-12)
(3.78199e-07 -2.73787e-10 -3.6423e-10 5.99242e-13 5.3423e-14 1.32369e-12)
(3.68855e-07 -7.65595e-10 1.5993e-09 2.80745e-12 -3.57105e-12 7.31009e-12)
(3.59998e-07 -1.94838e-09 1.61834e-10 1.24336e-11 -1.30311e-12 5.83383e-13)
(3.71547e-07 -4.57762e-10 -4.65287e-10 9.29259e-13 5.49926e-13 6.16453e-13)
(3.70109e-07 -8.18263e-10 1.81354e-10 2.8775e-12 -7.29463e-13 2.37787e-13)
(3.711e-07 -7.33959e-10 5.00646e-10 2.87269e-12 -1.03592e-12 7.52914e-13)
(3.72192e-07 2.18025e-10 5.39911e-10 6.59915e-13 3.49343e-13 8.47868e-13)
(3.7205e-07 -2.46691e-10 8.46906e-10 2.99779e-12 -7.30001e-13 2.02214e-12)
(3.7195e-07 2.43112e-09 6.45978e-10 1.66124e-11 4.25967e-12 1.19416e-12)
(3.69743e-07 1.50343e-09 5.52761e-10 6.86808e-12 2.29012e-12 8.88272e-13)
(3.69685e-07 2.49047e-09 4.58413e-10 1.79811e-11 3.18412e-12 7.07679e-13)
(3.67158e-07 1.89984e-09 1.023e-10 1.14139e-11 7.65883e-13 2.39066e-13)
(3.67541e-07 1.19931e-09 6.98427e-11 5.33739e-12 6.82958e-13 2.57278e-13)
(3.66068e-07 1.71113e-09 8.82317e-11 1.12124e-11 3.56811e-13 2.17017e-13)
(3.66074e-07 -2.33524e-11 1.36821e-10 2.54746e-12 -1.44934e-13 2.20932e-13)
(3.66907e-07 4.13903e-10 3.9186e-10 1.29177e-12 5.31014e-13 5.03935e-13)
(3.66276e-07 -5.81997e-10 -1.16779e-10 2.0309e-12 2.45397e-13 1.10707e-13)
(3.68204e-07 -8.135e-10 -5.7798e-11 2.12865e-12 2.55147e-13 1.46058e-13)
(3.67756e-07 1.76171e-10 -1.64822e-10 9.81344e-13 -2.05884e-13 1.99965e-13)
(3.67675e-07 -5.79166e-10 2.31534e-11 1.49918e-12 -2.48274e-13 3.36752e-13)
(3.68078e-07 -1.35856e-10 3.70257e-10 1.57354e-13 -1.23748e-13 4.93106e-13)
(3.67323e-07 -8.24436e-10 1.24308e-10 1.99292e-12 -2.62428e-13 3.35887e-13)
(3.69218e-07 -1.11571e-09 4.66514e-10 4.56084e-12 -9.28978e-13 8.64645e-13)
(3.69049e-07 3.3927e-10 4.13157e-10 5.42434e-13 3.53437e-13 6.43731e-13)
(3.67343e-07 3.08263e-12 6.09916e-10 1.10199e-12 -8.05992e-14 1.12085e-12)
(3.67667e-07 -5.15127e-10 3.81936e-10 1.34826e-12 -5.6759e-13 4.42781e-13)
(3.67484e-07 -8.83171e-10 4.69596e-10 2.84939e-12 -1.1982e-12 6.2321e-13)
(3.69019e-07 -1.71347e-09 5.62397e-10 8.57622e-12 -2.59895e-12 1.00625e-12)
(3.71129e-07 -8.05576e-10 3.88876e-10 2.95663e-12 -6.02101e-13 5.64725e-13)
(3.70236e-07 2.60749e-10 4.42526e-10 3.87773e-12 1.18213e-12 8.09842e-13)
(3.70172e-07 -6.98534e-10 3.54091e-10 3.02676e-12 -2.02123e-13 5.91683e-13)
(3.72265e-07 1.48147e-10 5.33976e-10 1.38877e-12 6.70863e-13 1.1081e-12)
(3.70232e-07 2.31718e-10 3.47398e-10 1.29586e-12 6.77255e-13 6.54054e-13)
(3.7364e-07 6.16402e-10 4.87085e-10 2.35556e-12 1.18085e-12 1.02552e-12)
(3.70695e-07 2.61207e-09 3.7073e-10 2.26782e-11 3.69314e-12 8.03978e-13)
(3.6897e-07 1.08363e-09 3.46649e-10 4.78278e-12 1.65373e-12 6.89343e-13)
(3.72222e-07 2.51402e-09 -2.90305e-10 1.9301e-11 -1.73783e-12 3.8075e-13)
(3.67093e-07 2.26047e-09 2.45859e-10 1.64734e-11 1.89338e-12 3.00704e-13)
(3.65991e-07 2.68059e-09 1.72703e-10 2.29872e-11 2.33186e-12 6.25212e-13)
(3.62323e-07 1.04343e-09 -1.53301e-09 7.77592e-12 -5.12045e-12 6.92546e-12)
(3.72896e-07 -3.14137e-10 -4.10465e-10 1.09027e-12 -1.44841e-13 1.6517e-12)
(3.63336e-07 -1.39231e-09 1.66738e-09 7.85973e-12 -6.91182e-12 8.02674e-12)
(3.56359e-07 -3.16506e-09 3.50339e-10 3.29265e-11 -4.38304e-12 1.05912e-12)
(3.68729e-07 -1.02353e-10 -4.15082e-10 6.31802e-13 -5.73336e-16 5.07624e-13)
(3.65773e-07 -9.37907e-10 1.11832e-10 6.40467e-12 -1.03814e-12 2.48216e-13)
(3.679e-07 -1.25271e-09 5.41556e-10 6.70717e-12 -1.75992e-12 9.05175e-13)
(3.6852e-07 9.17547e-11 5.37525e-10 9.93888e-13 3.49158e-13 9.24075e-13)
(3.69989e-07 -1.02415e-09 1.19281e-09 9.78674e-12 -3.417e-12 3.99322e-12)
(3.69513e-07 3.78233e-09 8.24453e-10 4.03435e-11 8.55634e-12 1.94907e-12)
(3.65775e-07 1.92271e-09 6.92312e-10 1.26445e-11 3.47434e-12 1.48217e-12)
(3.66065e-07 3.34061e-09 6.44187e-10 3.25496e-11 5.96065e-12 1.43457e-12)
(3.62137e-07 2.32739e-09 1.43421e-11 1.82598e-11 3.59344e-13 4.77982e-13)
(3.63582e-07 1.13263e-09 3.28553e-11 6.16402e-12 1.11197e-12 5.27272e-13)
(3.61194e-07 2.53268e-09 1.07928e-10 2.58655e-11 3.36299e-13 4.14862e-13)
(3.61048e-07 -4.08766e-10 2.30886e-10 6.55234e-12 -8.0604e-13 4.87429e-13)
(3.62483e-07 4.28095e-10 7.49097e-10 1.90583e-12 1.1572e-12 1.82829e-12)
(3.61293e-07 -1.30988e-09 -2.5482e-10 6.68986e-12 1.21279e-12 3.53339e-13)
(3.65056e-07 -1.62207e-09 -1.15132e-10 9.3819e-12 9.39943e-13 2.8941e-13)
(3.64182e-07 6.73834e-10 -3.20277e-10 4.00066e-12 -7.22254e-13 4.81758e-13)
(3.63531e-07 -5.69267e-10 -4.24738e-11 3.1617e-12 -5.95714e-13 7.76511e-13)
(3.63938e-07 4.01292e-11 5.67538e-10 4.55996e-13 9.01657e-14 1.04781e-12)
(3.62576e-07 -1.31282e-09 2.62236e-11 5.179e-12 2.14269e-14 5.87467e-13)
(3.6644e-07 -1.83049e-09 6.93708e-10 1.34919e-11 -2.19221e-12 1.82098e-12)
(3.6625e-07 1.10321e-09 6.08477e-10 4.05197e-12 1.80693e-12 1.27025e-12)
(3.62688e-07 6.70055e-10 9.33001e-10 4.90081e-12 1.68528e-12 2.55971e-12)
(3.62928e-07 -3.58576e-10 4.51294e-10 2.06629e-12 -4.65207e-13 6.51645e-13)
(3.62436e-07 -1.10008e-09 6.39158e-10 4.53766e-12 -2.08735e-12 1.17646e-12)
(3.6513e-07 -2.62466e-09 8.32631e-10 1.98194e-11 -6.21703e-12 2.36246e-12)
(3.68961e-07 -7.45648e-10 4.91711e-10 3.48805e-12 -5.94578e-13 1.00233e-12)
(3.6632e-07 1.2299e-09 5.31353e-10 1.31719e-11 3.67619e-12 1.29138e-12)
(3.65978e-07 -9.36613e-10 3.71421e-10 5.49253e-12 -2.41809e-13 7.45951e-13)
(3.69032e-07 2.80897e-10 7.46694e-10 2.08563e-12 1.14914e-12 2.0159e-12)
(3.66664e-07 3.26236e-10 4.46777e-10 1.53214e-12 9.81924e-13 1.00168e-12)
(3.71819e-07 9.3174e-10 7.55833e-10 4.41874e-12 2.35729e-12 2.12382e-12)
(3.67063e-07 4.56863e-09 6.00189e-10 6.79685e-11 9.93343e-12 1.77887e-12)
(3.64848e-07 1.24943e-09 4.90937e-10 7.28496e-12 2.80398e-12 1.24955e-12)
(3.69308e-07 3.62888e-09 -4.52144e-10 4.03551e-11 -4.10984e-12 8.0181e-13)
(3.63522e-07 3.58323e-09 3.46814e-10 4.03253e-11 4.10634e-12 5.30426e-13)
(3.61136e-07 4.50945e-09 4.38606e-11 6.43653e-11 2.4578e-12 8.37595e-13)
(3.55735e-07 2.05335e-09 -1.75996e-09 2.55509e-11 -1.23898e-11 9.50655e-12)
(3.67489e-07 -3.94229e-10 -4.85722e-10 2.24926e-12 -4.34601e-13 2.06228e-12)
(3.57671e-07 -2.41489e-09 1.80487e-09 2.10789e-11 -1.32128e-11 9.59214e-12)
(3.53884e-07 -5.08638e-09 7.31881e-10 8.61522e-11 -1.38381e-11 2.7389e-12)
(3.67313e-07 7.45111e-10 -3.20606e-10 3.55016e-12 -6.58347e-13 4.25353e-13)
(3.61348e-07 -7.69794e-10 -1.19515e-10 1.6612e-11 -1.28903e-12 3.52614e-13)
(3.65112e-07 -2.03589e-09 4.72374e-10 1.60313e-11 -2.23593e-12 7.76873e-13)
(3.65153e-07 -1.7929e-10 3.97544e-10 2.35056e-12 4.56552e-13 8.69312e-13)
(3.69464e-07 -2.34624e-09 1.68906e-09 3.40663e-11 -1.06568e-11 7.96969e-12)
(3.68444e-07 6.02819e-09 1.01082e-09 1.03568e-10 1.67332e-11 3.02499e-12)
(3.61931e-07 2.61567e-09 7.86687e-10 2.82733e-11 4.79762e-12 2.20406e-12)
(3.6296e-07 4.38403e-09 8.53778e-10 5.70986e-11 1.01934e-11 2.65905e-12)
(3.57112e-07 2.85897e-09 -2.15925e-10 2.92091e-11 -1.67759e-12 1.19416e-12)
(3.60555e-07 8.74951e-10 -5.29294e-11 8.7666e-12 2.35194e-12 1.13662e-12)
(3.56787e-07 4.03274e-09 1.3205e-10 6.58324e-11 2.37152e-14 7.73258e-13)
(3.56027e-07 -8.81537e-10 3.89645e-10 1.74796e-11 -2.66569e-12 1.08434e-12)
(3.58309e-07 3.85815e-10 1.29516e-09 2.90996e-12 1.95567e-12 5.60174e-12)
(3.56303e-07 -2.48493e-09 -5.01411e-10 2.04612e-11 4.16834e-12 1.20287e-12)
(3.63411e-07 -3.01088e-09 -1.79766e-10 3.59348e-11 2.79922e-12 5.85463e-13)
(3.61849e-07 1.79063e-09 -5.57461e-10 1.74057e-11 -2.60089e-12 1.21201e-12)
(3.5965e-07 -3.14828e-10 -2.42797e-10 8.4951e-12 -1.79195e-12 2.04509e-12)
(3.59895e-07 4.19502e-10 8.5093e-10 2.16938e-12 1.04719e-12 2.23266e-12)
(3.57768e-07 -2.19182e-09 -2.17925e-10 1.47839e-11 1.84967e-12 1.46332e-12)
(3.65117e-07 -3.13062e-09 1.06273e-09 4.16635e-11 -5.75292e-12 4.09983e-12)
(3.65036e-07 2.46256e-09 9.45344e-10 1.9128e-11 6.42927e-12 2.82682e-12)
(3.58174e-07 1.91625e-09 1.43392e-09 2.21121e-11 8.02558e-12 6.00642e-12)
(3.58075e-07 -8.04641e-11 5.02817e-10 5.07652e-12 -1.23524e-13 9.27653e-13)
(3.57162e-07 -1.59508e-09 9.058e-10 9.06651e-12 -4.39222e-12 2.43197e-12)
(3.62041e-07 -4.23744e-09 1.29694e-09 5.2712e-11 -1.65914e-11 5.99259e-12)
(3.68685e-07 -4.62457e-10 6.91147e-10 4.82809e-12 -2.55172e-13 2.12432e-12)
(3.62626e-07 2.9267e-09 6.11376e-10 4.6741e-11 9.22891e-12 2.05395e-12)
(3.61667e-07 -1.42589e-09 3.09028e-10 1.17715e-11 -1.34813e-13 8.28487e-13)
(3.6657e-07 2.32194e-10 1.03731e-09 3.62883e-12 1.36117e-12 3.6762e-12)
(3.63774e-07 2.55356e-10 5.6982e-10 1.49707e-12 1.08961e-12 1.48006e-12)
(3.71821e-07 1.4167e-09 1.06072e-09 9.42892e-12 4.71398e-12 3.78345e-12)
(3.6377e-07 7.63976e-09 8.65723e-10 1.91207e-10 2.3684e-11 3.40214e-12)
(3.60546e-07 1.09656e-09 6.65203e-10 1.02423e-11 4.22202e-12 2.16494e-12)
(3.67726e-07 4.74637e-09 -7.05951e-10 7.38058e-11 -8.10339e-12 1.84091e-12)
(3.61245e-07 5.40923e-09 6.52194e-10 9.07928e-11 1.12341e-11 1.51053e-12)
(3.56717e-07 7.44819e-09 -1.57319e-10 1.75073e-10 6.61968e-13 1.72963e-12)
(3.48295e-07 3.61676e-09 -2.19894e-09 7.77226e-11 -2.98791e-11 1.58038e-11)
(3.61686e-07 -8.17714e-10 -5.55914e-10 6.29522e-12 -3.99366e-13 2.56926e-12)
(3.51635e-07 -4.15525e-09 2.12551e-09 5.83529e-11 -2.69508e-11 1.37662e-11)
(3.53012e-07 -8.02568e-09 1.53116e-09 2.19853e-10 -4.34797e-11 9.40421e-12)
(3.67787e-07 2.47432e-09 -7.92752e-11 2.45861e-11 6.79446e-13 1.05311e-12)
(3.56353e-07 -3.67712e-11 -6.03543e-10 5.10363e-11 -2.50747e-12 1.50387e-12)
(3.62357e-07 -3.24667e-09 1.57402e-10 3.91467e-11 -1.97678e-13 3.84691e-13)
(3.61893e-07 -7.67527e-10 -4.88354e-12 7.6592e-12 2.0617e-12 1.57531e-12)
(3.70955e-07 -4.50383e-09 2.46228e-09 1.09943e-10 -2.9238e-11 1.68413e-11)
(3.69094e-07 9.66791e-09 1.24285e-09 2.68826e-10 3.29604e-11 5.10572e-12)
(3.57698e-07 3.6964e-09 7.57304e-10 7.01344e-11 5.24996e-12 2.91688e-12)
(3.60157e-07 5.40856e-09 1.04782e-09 9.07838e-11 1.48673e-11 4.44239e-12)
(3.51898e-07 3.28235e-09 -7.60305e-10 4.02855e-11 -7.78652e-12 4.13212e-12)
(3.5876e-07 1.75216e-10 -2.07084e-10 2.20635e-11 6.76764e-12 2.6643e-12)
(3.52889e-07 6.61254e-09 1.77186e-10 1.72854e-10 -4.66416e-13 1.39329e-12)
(3.50478e-07 -1.44685e-09 7.11501e-10 4.66339e-11 -7.60029e-12 2.65922e-12)
(3.5412e-07 7.29181e-11 2.20294e-09 5.27458e-12 1.25264e-12 1.65719e-11)
(3.51019e-07 -4.36963e-09 -8.94426e-10 5.96999e-11 1.19781e-11 3.62016e-12)
(3.63741e-07 -5.36994e-09 -2.59318e-10 1.2347e-10 7.82167e-12 1.24204e-12)
(3.61134e-07 4.12013e-09 -8.53792e-10 7.31879e-11 -8.03017e-12 2.79155e-12)
(3.55784e-07 4.51839e-10 -6.4048e-10 2.95008e-11 -6.43343e-12 5.50994e-12)
(3.55558e-07 9.03664e-10 1.20129e-09 7.70604e-12 3.2837e-12 4.36639e-12)
(3.52396e-07 -3.67539e-09 -7.05798e-10 4.27364e-11 9.43663e-12 4.80784e-12)
(3.65745e-07 -5.35793e-09 1.70142e-09 1.24781e-10 -1.56804e-11 1.02044e-11)
(3.66e-07 4.82524e-09 1.59989e-09 7.23553e-11 2.16811e-11 7.64879e-12)
(3.53463e-07 4.10276e-09 2.18671e-09 8.4921e-11 2.76665e-11 1.40819e-11)
(3.52532e-07 3.60874e-10 4.98273e-10 1.5224e-11 4.02718e-13 1.27198e-12)
(3.5116e-07 -2.63178e-09 1.27981e-09 2.29669e-11 -1.05117e-11 5.13546e-12)
(3.59998e-07 -7.02668e-09 2.141e-09 1.52125e-10 -4.75853e-11 1.64112e-11)
(3.70993e-07 2.78286e-10 1.10875e-09 1.18341e-11 1.60413e-12 5.50763e-12)
(3.58852e-07 5.67602e-09 6.64952e-10 1.49124e-10 2.115e-11 3.56352e-12)
(3.56623e-07 -2.35958e-09 1.81514e-11 2.77835e-11 1.45414e-12 9.88785e-13)
(3.64735e-07 -3.48855e-10 1.38e-09 9.90245e-12 -1.67681e-13 6.26154e-12)
(3.61798e-07 -2.02277e-10 7.39515e-10 3.97491e-12 6.02111e-13 2.25912e-12)
(3.74288e-07 2.32314e-09 1.48233e-09 2.47082e-11 1.00492e-11 6.85569e-12)
(3.60407e-07 1.23588e-08 1.09425e-09 5.10832e-10 4.97074e-11 5.48946e-12)
(3.55318e-07 1.76922e-10 7.52889e-10 1.58804e-11 4.53047e-12 2.99458e-12)
(3.67855e-07 5.47312e-09 -1.15598e-09 1.24018e-10 -1.26638e-11 4.90844e-12)
(3.60842e-07 7.96701e-09 1.3041e-09 1.97907e-10 3.19808e-11 5.30899e-12)
(3.52731e-07 1.19572e-08 -3.54512e-10 4.5293e-10 -2.55145e-12 4.55388e-12)
(3.3936e-07 5.96337e-09 -2.83133e-09 2.18399e-10 -6.95089e-11 2.81244e-11)
(3.54952e-07 -1.79014e-09 -6.31943e-10 2.06488e-11 3.07772e-13 3.14388e-12)
(3.45111e-07 -7.0452e-09 2.65404e-09 1.64628e-10 -5.63246e-11 2.30993e-11)
(3.54456e-07 -1.23223e-08 3.15609e-09 5.35482e-10 -1.31387e-10 3.51215e-11)
(3.70874e-07 5.76627e-09 5.36093e-10 1.18682e-10 1.5003e-11 7.07802e-12)
(3.50142e-07 1.67552e-09 -1.45778e-09 1.69903e-10 -8.28438e-12 6.98584e-12)
(3.59071e-07 -5.29549e-09 -5.83718e-10 1.01117e-10 1.19372e-11 1.75602e-12)
(3.58538e-07 -1.94094e-09 -8.49739e-10 2.8138e-11 1.18325e-11 7.86419e-12)
(3.75201e-07 -7.85156e-09 3.80006e-09 3.19008e-10 -7.72319e-11 3.98636e-11)
(3.71943e-07 1.54745e-08 1.66316e-09 6.91432e-10 7.08948e-11 1.16258e-11)
(3.52275e-07 5.40069e-09 4.49223e-10 1.86888e-10 7.47379e-13 3.82893e-12)
(3.57246e-07 5.94172e-09 1.09665e-09 1.22687e-10 1.57506e-11 6.29667e-12)
(3.46363e-07 3.25004e-09 -1.74792e-09 4.46102e-11 -1.72971e-11 1.50058e-11)
(3.58839e-07 -1.33556e-09 -3.45238e-10 8.20106e-11 2.1422e-11 6.33837e-12)
(3.49744e-07 1.08651e-08 3.39072e-10 4.50929e-10 3.61667e-12 2.33928e-12)
(3.43706e-07 -2.12205e-09 1.35922e-09 1.27789e-10 -1.93068e-11 7.43926e-12)
(3.49508e-07 -7.72135e-10 3.61213e-09 1.47624e-11 -7.15236e-12 4.63706e-11)
(3.45158e-07 -7.26807e-09 -1.5379e-09 1.65403e-10 3.2011e-11 9.65258e-12)
(3.67047e-07 -9.21921e-09 -1.37522e-10 3.80021e-10 1.57659e-11 2.47537e-12)
(3.62799e-07 8.61099e-09 -1.0518e-09 2.8094e-10 -1.66557e-11 5.59736e-12)
(3.51086e-07 2.07631e-09 -1.42833e-09 1.11059e-10 -2.33339e-11 1.55065e-11)
(3.5024e-07 1.24918e-09 1.62736e-09 1.9202e-11 6.76716e-12 8.02436e-12)
(3.46134e-07 -6.15789e-09 -1.62637e-09 1.23837e-10 3.69045e-11 1.76603e-11)
(3.69001e-07 -9.06489e-09 2.78186e-09 3.55287e-10 -4.28036e-11 2.67894e-11)
(3.69966e-07 8.78938e-09 2.94961e-09 2.37396e-10 7.303e-11 2.55394e-11)
(3.48122e-07 7.71605e-09 3.2703e-09 2.83756e-10 8.26932e-11 3.23267e-11)
(3.45527e-07 9.19157e-10 3.48915e-10 4.33742e-11 1.08547e-13 1.76763e-12)
(3.43783e-07 -4.67592e-09 1.80732e-09 7.01384e-11 -2.66737e-11 1.13689e-11)
(3.59517e-07 -1.16312e-08 3.67204e-09 4.41809e-10 -1.38162e-10 4.68789e-11)
(3.76882e-07 1.98069e-09 2.01545e-09 4.58517e-11 1.11907e-11 1.72445e-11)
(3.54397e-07 9.70394e-09 6.83341e-10 4.16592e-10 4.67253e-11 7.33577e-12)
(3.50061e-07 -4.12647e-09 -5.82012e-10 7.17917e-11 1.02568e-11 3.32483e-12)
(3.63537e-07 -1.91907e-09 1.6521e-09 4.1405e-11 -4.62978e-12 9.29405e-12)
(3.6127e-07 -1.29242e-09 1.12566e-09 2.63393e-11 -9.74956e-13 4.76121e-12)
(3.80115e-07 4.16921e-09 2.23883e-09 7.75772e-11 2.40802e-11 1.55371e-11)
(3.56161e-07 1.93838e-08 1.19809e-09 1.30017e-09 9.39563e-11 8.01315e-12)
(3.48096e-07 -1.94294e-09 7.4214e-10 4.70051e-11 5.48365e-12 4.58129e-12)
(3.70399e-07 5.3056e-09 -1.87157e-09 2.20172e-10 -7.52083e-12 1.36445e-11)
(3.6338e-07 1.1481e-08 2.61795e-09 4.23845e-10 8.95026e-11 2.02094e-11)
(3.49239e-07 1.89455e-08 -4.15781e-10 1.14655e-09 3.26673e-12 1.32511e-11)
(3.27969e-07 9.43356e-09 -3.77897e-09 5.83978e-10 -1.56665e-10 5.29686e-11)
(3.46609e-07 -3.75196e-09 -7.05352e-10 7.07497e-11 2.69657e-12 3.9262e-12)
(3.38157e-07 -1.17328e-08 3.38784e-09 4.65227e-10 -1.12647e-10 4.49249e-11)
(3.59359e-07 -1.83451e-08 6.33685e-09 1.23232e-09 -3.74121e-10 1.30314e-10)
(3.77513e-07 1.1757e-08 1.93492e-09 4.63894e-10 8.52071e-11 3.91093e-11)
(3.41622e-07 4.8667e-09 -2.8674e-09 5.51556e-10 -2.76667e-11 2.69625e-11)
(3.5449e-07 -8.86628e-09 -2.11999e-09 2.76774e-10 6.19662e-11 1.51103e-11)
(3.5512e-07 -4.19144e-09 -2.48597e-09 1.04323e-10 5.74191e-11 4.09831e-11)
(3.83323e-07 -1.28329e-08 6.26244e-09 8.45189e-10 -2.02284e-10 1.07125e-10)
(3.77705e-07 2.47154e-08 2.71643e-09 1.7584e-09 1.86934e-10 3.98002e-11)
(3.4445e-07 7.84393e-09 -5.36809e-10 5.13611e-10 -2.07375e-11 8.93387e-12)
(3.53592e-07 4.95687e-09 6.79093e-10 1.34377e-10 5.98978e-12 7.49492e-12)
(3.40541e-07 2.43199e-09 -3.48491e-09 5.10606e-11 -1.85053e-11 5.28013e-11)
(3.61745e-07 -3.91005e-09 -2.05078e-10 2.834e-10 5.92509e-11 1.47035e-11)
(3.47681e-07 1.78692e-08 7.97581e-10 1.17772e-09 3.52968e-11 4.2806e-12)
(3.34793e-07 -2.74649e-09 2.43835e-09 3.52204e-10 -4.14849e-11 2.13554e-11)
(3.44099e-07 -2.9409e-09 5.53234e-09 5.97415e-11 -4.79606e-11 1.14838e-10)
(3.38451e-07 -1.15135e-08 -2.73778e-09 4.32061e-10 8.94523e-11 2.54265e-11)
(3.74629e-07 -1.50902e-08 4.86194e-10 1.04061e-09 1.78606e-11 7.07301e-12)
(3.67764e-07 1.66541e-08 -7.51531e-10 9.66158e-10 -1.63394e-12 1.31276e-11)
(3.44526e-07 4.8052e-09 -2.83469e-09 3.86181e-10 -7.67904e-11 4.37837e-11)
(3.43155e-07 8.88567e-10 1.94223e-09 3.67677e-11 9.02206e-12 1.20528e-11)
(3.38557e-07 -1.00265e-08 -3.32176e-09 3.44083e-10 1.29872e-10 6.62132e-11)
(3.75999e-07 -1.47586e-08 4.80871e-09 9.34828e-10 -1.14986e-10 7.91694e-11)
(3.78176e-07 1.54274e-08 5.7823e-09 7.1672e-10 2.47273e-10 9.8305e-11)
(3.41498e-07 1.33986e-08 4.72144e-09 8.54868e-10 2.24671e-10 7.11685e-11)
(3.35994e-07 1.32206e-09 -1.20379e-10 1.07346e-10 -3.67005e-12 3.42933e-12)
(3.34382e-07 -8.35312e-09 2.41295e-09 2.257e-10 -6.31848e-11 2.59165e-11)
(3.6155e-07 -1.87898e-08 6.55892e-09 1.21809e-09 -3.93993e-10 1.40672e-10)
(3.87513e-07 5.55884e-09 4.00222e-09 1.85862e-10 5.69176e-11 6.27907e-11)
(3.48386e-07 1.55073e-08 4.98953e-10 1.07475e-09 9.74045e-11 1.71804e-11)
(3.41194e-07 -7.43412e-09 -1.76834e-09 2.04527e-10 4.71704e-11 1.56287e-11)
(3.63026e-07 -5.13038e-09 1.60129e-09 1.72113e-10 -2.70602e-12 1.29851e-11)
(3.63123e-07 -3.38222e-09 2.11084e-09 1.3232e-10 -7.08266e-12 1.56718e-11)
(3.90513e-07 7.9583e-09 3.89951e-09 2.633e-10 7.16877e-11 5.03829e-11)
(3.50072e-07 2.94347e-08 1.04735e-09 3.15514e-09 1.641e-10 1.30819e-11)
(3.3769e-07 -6.26213e-09 2.1261e-10 1.99433e-10 2.01322e-11 7.92416e-12)
(3.76093e-07 3.29847e-09 -3.12226e-09 4.80136e-10 4.62332e-11 4.13991e-11)
(3.70437e-07 1.63187e-08 5.11943e-09 9.10514e-10 2.41719e-10 7.46597e-11)
(3.46482e-07 2.97995e-08 2.30104e-11 2.86384e-09 7.67832e-11 4.34561e-11)
(3.12868e-07 1.44546e-08 -5.33748e-09 1.52371e-09 -3.5128e-10 1.09006e-10)
(3.35774e-07 -7.5116e-09 -8.72135e-10 2.41172e-10 1.14662e-11 6.09469e-12)
(3.31249e-07 -1.90683e-08 4.16936e-09 1.28816e-09 -1.83287e-10 1.0401e-10)
(3.6948e-07 -2.63626e-08 1.226e-08 2.65735e-09 -9.74265e-10 4.53948e-10)
(3.88895e-07 2.24377e-08 5.10766e-09 1.60163e-09 3.778e-10 1.85516e-10)
(3.29327e-07 1.00477e-08 -5.14067e-09 1.6831e-09 -7.53631e-11 9.25894e-11)
(3.47621e-07 -1.52656e-08 -5.02783e-09 8.04214e-10 2.46801e-10 8.06956e-11)
(3.51876e-07 -8.11959e-09 -5.46354e-09 3.58554e-10 2.35396e-10 1.80919e-10)
(3.97102e-07 -1.95799e-08 1.09344e-08 2.03262e-09 -5.12227e-10 3.19051e-10)
(3.87139e-07 3.94849e-08 5.35412e-09 4.43126e-09 5.84902e-10 1.68186e-10)
(3.32336e-07 1.13704e-08 -2.87166e-09 1.43547e-09 -9.22806e-11 4.64473e-11)
(3.48671e-07 8.12973e-10 -7.06704e-10 1.86482e-10 3.13451e-12 1.48951e-11)
(3.35069e-07 3.08568e-10 -6.47424e-09 1.3162e-10 4.78136e-11 1.80008e-10)
(3.68971e-07 -7.73566e-09 8.20089e-10 8.28975e-10 1.3895e-10 3.98118e-11)
(3.4722e-07 2.94671e-08 2.1871e-09 3.09032e-09 2.10796e-10 1.9589e-11)
(3.22111e-07 -2.94526e-09 3.87735e-09 9.9026e-10 -6.11161e-11 5.31005e-11)
(3.37299e-07 -7.78507e-09 7.81798e-09 2.71852e-10 -1.89304e-10 2.48144e-10)
(3.31199e-07 -1.75637e-08 -5.07865e-09 1.0792e-09 2.7484e-10 7.94628e-11)
(3.88445e-07 -2.3626e-08 2.4421e-09 2.55995e-09 -3.9265e-11 3.45679e-11)
(3.77101e-07 3.05237e-08 9.89344e-10 3.02786e-09 1.89257e-10 5.83659e-11)
(3.34344e-07 8.97106e-09 -5.32529e-09 1.22894e-09 -2.20052e-10 1.24382e-10)
(3.33544e-07 -1.41866e-09 1.69724e-09 7.89492e-11 6.95614e-12 1.265e-11)
(3.29825e-07 -1.56091e-08 -6.31829e-09 8.9645e-10 4.21018e-10 2.4147e-10)
(3.88253e-07 -2.29495e-08 8.66366e-09 2.2488e-09 -2.96541e-10 2.53977e-10)
(3.92071e-07 2.64097e-08 1.16281e-08 2.03118e-09 8.18652e-10 3.94542e-10)
(3.32513e-07 2.19163e-08 6.42819e-09 2.3754e-09 5.63862e-10 1.47652e-10)
(3.22693e-07 8.05498e-10 -1.39982e-09 2.27232e-10 -1.29411e-11 1.46621e-11)
(3.22517e-07 -1.43393e-08 2.86731e-09 6.90929e-10 -1.18609e-10 6.67012e-11)
(3.67569e-07 -2.94728e-08 1.19309e-08 3.12311e-09 -1.07489e-09 4.33536e-10)
(4.04613e-07 1.26583e-08 8.35043e-09 6.98468e-10 2.57613e-10 2.49951e-10)
(3.39357e-07 2.34208e-08 -3.68517e-11 2.62557e-09 2.1038e-10 4.9042e-11)
(3.28915e-07 -1.35707e-08 -4.20439e-09 6.37103e-10 1.98628e-10 7.2923e-11)
(3.63566e-07 -1.08536e-08 6.79096e-10 6.23014e-10 7.13133e-11 3.36224e-11)
(3.68887e-07 -6.73786e-09 4.6315e-09 4.906e-10 -3.25617e-11 7.20073e-11)
(4.07088e-07 1.54651e-08 7.77566e-09 9.00171e-10 2.66192e-10 2.10419e-10)