/*--------------------------------*- C++ -*----------------------------------*\
  =========                 |
  \\      /  F ield         | OpenFOAM: The Open Source CFD Toolbox
   \\    /   O peration     | Website:  https://openfoam.org
    \\  /    A nd           | Version:  10
     \\/     M anipulation  |
\*---------------------------------------------------------------------------*/
FoamFile
{
    format      ascii;
    class       volScalarField;
    location    "3";
    object      p;
}
// * * * * * * * * * * * * * * * * * * * * * * * * * * * * * * * * * * * * * //

dimensions      [0 2 -2 0 0 0 0];

internalField   nonuniform List<scalar> 
102400
(
-0.00372133
-0.00151993
-0.00345081
0.00920562
0.00886934
0.00130307
-0.0036953
-0.0151244
-0.00182142
-0.00147657
-0.00863452
-0.00128076
-9.22424e-05
0.0114972
-0.00226529
-0.00601574
0.00184435
-0.00856996
-0.00324355
0.019837
0.00332388
-0.0109579
-0.00530613
-0.00518107
0.00307908
0.000902736
-0.0038282
-8.41838e-05
-0.0012434
0.0130213
-0.000434292
-0.0113712
0.00274879
-0.00345748
0.00594527
0.000649973
0.00323949
-0.00876515
-0.00647576
-0.00118422
-0.0269772
-0.0123951
-0.0262986
-0.002895
-0.0124052
-0.0193709
-0.0282037
-0.0279442
-0.0159564
-0.0222498
-0.0320047
-0.0175141
-0.0162579
-0.00336345
-0.0211903
-0.02268
-0.019208
-0.0265951
-0.0209263
0.0103339
-0.0163631
-0.0319244
-0.0209243
-0.0190601
-0.0132342
-0.0207066
-0.0208632
-0.0171524
-0.0145302
-0.00923338
-0.0189063
-0.0292761
-0.0120745
-0.0265966
-0.0160371
-0.0219606
-0.0189756
-0.021301
-0.0189264
-0.0234384
-0.0177037
-0.00528392
-0.00861204
0.00536974
0.0026034
-0.0130301
-0.0171127
-0.0275
-0.00731147
-0.0147468
-0.0246768
-0.0138901
-0.00472133
0.00025422
-0.016853
-0.0179465
-0.0107746
-0.022126
-0.0112042
0.017509
0.00315951
-0.0201402
-0.0200833
-0.017948
-0.00282173
-0.012175
-0.0138881
-0.0129935
-0.00275721
0.0101826
-0.0154428
-0.0168326
-0.00352794
-0.0192548
-0.00608921
-0.0123753
-0.00967839
-0.0218589
-0.0102202
-0.0120552
-0.0206309
-0.0122128
-0.0147941
-0.00752646
-0.00279647
-0.0134388
-0.0159522
-0.0370587
-0.0060108
-0.019526
-0.026594
-0.0228211
-0.0115107
0.00425592
-0.020538
-0.0260483
-0.0137486
-0.0300103
-0.0179769
0.00883611
-0.00784528
-0.0245581
-0.0262276
-0.0263241
-0.00933479
-0.0126629
-0.0236022
-0.0203336
-0.0127335
0.00162526
-0.0225361
-0.0227527
-0.0145266
-0.0248137
-0.0041094
-0.0191204
-0.0197513
-0.025916
-0.0157286
-0.0121758
-0.0127398
-0.0176057
-0.00969203
-0.00665414
-0.00648571
-0.00873334
-0.0180494
-0.0275988
-0.00501036
-0.0102767
-0.0191689
-0.0236004
-0.0120734
0.00667348
-0.00835945
-0.0204783
-0.00596664
-0.0240746
-0.0208886
0.0122208
-0.00470817
-0.0279904
-0.0217201
-0.0156454
-0.00260255
-0.00401667
-0.0170084
-0.016665
-0.016334
0.00971119
-0.020564
-0.0277817
-0.00905766
-0.0225667
0.0013167
-0.00766434
-0.0129279
-0.0159363
-0.0206095
-0.00787701
-0.0126056
-0.0230072
-0.00514221
-0.00343423
-0.00874789
-0.0152023
-0.0236256
-0.034806
-0.01283
-0.0131263
-0.0206085
-0.0180015
-0.0186523
-0.00537153
-0.00746405
-0.0184356
-0.0117065
-0.0211531
-0.0224932
0.0137572
-0.00450019
-0.0303908
-0.0181543
-0.0288352
-0.0054319
-0.00845322
-0.0143849
-0.0194825
-0.0205619
0.00375706
-0.0176439
-0.0307166
-0.00323756
-0.0194824
-0.0102434
-0.0100855
-0.00779087
-0.0159787
-0.0252733
-0.0156336
-0.0208851
-0.0113882
-0.0137357
0.00160097
-0.00152167
-0.0116708
-0.0223958
-0.0413351
-0.0114261
-0.0108491
-0.0258636
-0.0113284
-0.0195062
0.000518494
-0.00616496
-0.0149953
-0.0120425
-0.0186168
-0.0279435
0.0124105
0.00156977
-0.0192923
-0.0168129
-0.0259732
-0.0111973
-0.00724916
-0.010944
-0.0156095
-0.0137377
-0.00445049
-0.0120632
-0.0261889
-0.000115496
-0.0139682
-0.0116716
-0.0177976
-0.00743683
-0.0163366
-0.0203428
-0.0145806
-0.0252992
-0.0138525
-0.0237147
-0.00368892
-0.00580287
-0.00584442
-0.0164476
-0.0403175
-0.02126
-0.00763951
-0.0235274
-0.0141936
-0.0133579
-0.00360277
-0.00646023
-0.0210702
-0.00962977
-0.0153617
-0.0289876
0.00862587
-0.000875802
-0.02077
-0.0182638
-0.0150534
-0.0180125
-0.00779375
-0.00943686
-0.00813174
-0.0141165
-0.00730602
-0.00958814
-0.022974
-0.0098673
-0.0144101
-0.00619929
-0.0175782
-0.0084129
-0.0237155
-0.0103452
-0.0149255
-0.0244648
-0.0142184
-0.00552787
-0.00554823
-0.00226863
-0.0112749
-0.0150216
-0.0285051
-0.0247738
-0.00937216
-0.0151227
-0.0130651
-0.012706
-0.00874134
-0.00720288
-0.0301952
-0.0104289
-0.0151214
-0.0179203
0.00527134
-0.00489727
-0.0195041
-0.0166826
-0.0129961
-0.0213485
-0.00990091
-0.00739494
-0.00333877
-0.0186529
0.000809668
-0.0125738
-0.015439
-0.00732629
-0.0120906
-0.00349258
-0.00794804
-0.00462815
-0.0229818
-0.0105242
-0.0146889
-0.028061
-0.0199585
-0.0155232
-0.015546
-0.00635161
-0.00490189
-0.0137347
-0.0185153
-0.0146477
-0.0164208
-0.0199702
-0.00404544
-0.0100418
-0.0165128
-0.008435
-0.0199672
-0.0126615
-0.0175291
-0.0180924
0.00174848
-0.00852917
-0.018261
-0.013726
-0.0142403
-0.019631
-0.013292
-0.00486609
-0.00202982
-0.0174381
-0.00415511
-0.0105325
-0.0123693
0.00112679
-0.0231982
-0.0169277
-0.00878115
-0.00366563
-0.0154878
-0.0131888
-0.0102823
-0.0301268
-0.0235787
-0.00868952
-0.017902
-0.00831082
-0.00483856
-0.00943599
-0.0138586
-0.0078806
-0.0176235
-0.0253828
-0.0016957
-0.000722833
-0.0127085
-0.0123393
-0.0166499
-0.00728117
-0.00867999
-0.0153802
-0.00222671
-0.00873354
-0.0210856
-0.0033975
-0.00847049
-0.014672
-0.018009
-0.0109952
-0.00551215
-0.0109131
-0.0092546
-0.00834614
-0.00971572
-0.000277206
-0.0221949
-0.0215541
-0.0117106
-0.00515956
-0.0141794
-0.011998
-0.00344715
-0.0217306
-0.00631616
-0.00886494
-0.0109893
-0.0140818
-0.00859232
-0.0125512
-0.0183181
-0.00723576
-0.00893213
-0.0290345
-0.0153667
0.00478889
-0.00538147
-0.0164281
-0.0251901
-0.0197417
-0.012282
-0.0152791
-0.0151893
-0.00747849
-0.0231974
-0.0140313
-0.0129575
-0.0140216
-0.0148418
-0.000948368
-0.00901184
-0.00942663
-0.00970573
-0.0182671
-0.00845479
-0.00514848
-0.00498556
-0.012676
-0.0180198
-0.00706931
-0.015299
-0.0198154
-0.0027734
-0.00610188
-0.00488132
-0.00730312
-0.00757209
-0.0227544
-0.00804517
-0.00465759
-0.0141729
-0.00824496
-0.0103156
-0.0183924
-0.0153985
0.0028045
-0.00136564
-0.0119143
-0.0223746
-0.0195768
-0.00925511
-0.00845956
-0.0175376
-0.0054757
-0.0121157
-0.00526789
-0.00558628
-0.0127722
-0.0185571
-0.00367803
-0.0077806
-0.00741124
-0.00530993
-0.0216205
-0.0163685
-0.00113261
-0.0127526
-0.00866541
-0.0162021
-0.00472452
-0.00390089
-0.0243104
-0.00944503
-0.00399035
-0.00452418
-0.00452039
-0.0111902
-0.0192367
-0.0155612
0.000215981
-0.00637631
0.0014539
-0.00422779
-0.0105873
-0.00739764
-0.00175064
-0.00510876
-0.00664503
-0.00587148
-0.00674553
-0.0044732
-0.00265066
-0.00546626
-0.0107891
-0.00585821
-0.00440297
0.000659056
-0.00568352
-0.0155498
-0.0112944
-0.00470478
-0.00748804
-0.00331961
-0.0155455
-0.021197
-0.00102416
-0.0136646
-0.00325231
-0.00549159
-0.0127618
-0.00142541
-0.0115402
-0.0151838
-0.00584246
-0.00377447
0.00107988
-0.00202468
-0.00606237
-0.0156436
-0.00284918
-0.0038599
0.00324579
-0.00380652
-0.00920144
-0.00432343
0.00100832
-0.00421797
-0.00572177
-0.00702643
-0.00247632
-0.00335433
-0.00325307
-0.00594487
-0.0126515
-0.00846159
-0.00285698
0.000107917
-0.00355633
-0.00460867
-0.00415589
-0.00107912
-0.00136112
-0.00161866
-0.00975487
-0.010765
-0.00260805
-0.00724112
2.91331e-05
-0.00519768
-0.0119871
-0.00491918
-0.00832466
-0.0118782
-0.00685787
-0.00331249
0.00118124
8.64808e-05
-0.00515514
-0.00496489
-0.00396564
-0.00471123
0.00295137
-0.00469643
-0.00719706
-0.0031999
0.00191281
-0.00211512
-0.00377882
-0.00227842
-0.00596439
-0.00451723
0.000519153
-0.000593758
-0.00311966
-0.00560706
-0.00262523
0.000404174
0.000340123
-0.00462047
-0.00114001
-0.000441455
0.000995858
0.00158463
-0.00322109
-0.00501846
-0.00223601
-0.00306428
-0.000460756
-0.00265024
-0.00421113
-0.00284802
-0.00843981
-0.00570358
-0.00254407
-0.00118793
0.000997299
0.000888799
-0.00441781
-0.00108501
-0.00178746
-0.00298664
0.00299712
-0.00203252
-0.00224534
0.00127924
0.00014416
0.00107361
0.000547346
6.38823e-05
-0.0047498
-0.00344528
-0.00210147
0.00257501
-0.000115341
-0.00109104
-0.00254486
-0.000133383
0.00202964
-0.00180767
-0.000235463
-0.000450997
-0.00031622
0.00258889
-0.000245258
-0.00172818
-0.000818931
-0.00159594
0.00167974
0.00261058
-0.000376519
-0.00090347
0.000360183
-0.00235148
-0.00150722
-0.00132701
0.000408071
0.000680428
0.000212347
-9.39598e-05
-0.000925028
-0.00267523
0.00176478
0.000350872
-0.00190603
0.00136467
0.000678659
0.00188814
-0.000133686
-0.000643651
-0.00152066
-0.00276259
0.000109506
0.00107787
0.000305696
-0.000839747
-0.00162625
-6.74702e-05
0.00140714
0.000573239
-3.09367e-05
-0.000553091
0.000183023
0.00156745
-0.00178749
-0.00126826
-0.000351779
-0.00110914
0.000146948
0.00150821
0.000898048
-0.00111745
-0.000187862
5.59801e-05
-0.00111528
-0.00059649
0.000366472
0.000756367
0.00155695
0.00116029
-0.000431355
-0.00180507
0.00116177
0.000969959
-0.00114962
0.00104507
7.77816e-05
0.00140754
0.000332039
6.82162e-05
5.76509e-05
-0.00194222
-0.000919127
0.00147514
0.00216517
-2.83754e-05
-0.00127914
-0.000105922
0.00100871
0.000201429
-0.000178615
-0.000477512
-0.000340002
0.00112175
4.56483e-05
-0.000696222
-0.000157495
-0.000793686
0.00125136
0.0019323
0.000968677
-0.000923801
-0.000174126
0.00202972
-0.000788836
-0.000553744
0.000107655
0.000494058
0.000932313
0.000520441
-0.000144684
-0.00128883
0.000714955
0.000693877
-0.000915097
0.000598064
0.000380771
0.000975415
0.000174998
7.80413e-05
9.28435e-05
-0.00136355
-0.000246647
0.000681634
0.00159816
0.000113479
-0.000857546
-0.000113064
0.000631426
0.000186636
-0.000167585
-0.000408916
5.92507e-05
0.000696792
-0.000604647
-0.000495103
-0.000232572
-0.000294521
0.000518819
0.00130772
0.000869823
-0.000708261
-0.00017066
0.00120179
-0.000366088
-0.000222315
0.000153492
0.000337781
0.000779957
0.000535529
8.9889e-05
-0.000741746
0.000320871
0.000487509
-0.000568566
0.000375144
8.0217e-05
0.000618238
0.000233984
0.000119755
0.000189997
-0.000845713
-0.000221123
0.000764972
0.00132911
0.000322683
-0.000450709
-0.000101145
0.000425306
0.000217081
-9.83698e-05
-0.00027632
-0.000213885
0.000383743
-0.000128282
-0.000254345
-6.62969e-05
-0.000214301
0.00067303
0.00114553
0.000824461
-0.000407354
-0.000156561
0.000841257
-0.000236971
-0.000188809
9.69439e-06
0.000205398
0.000531347
0.000341649
0.000135389
-0.000495052
0.000121725
0.000312946
-0.000371804
0.000162942
4.89887e-05
0.000358747
0.00019076
8.80251e-05
0.000192555
-0.000560474
-0.000206479
0.000364116
0.000958001
0.000344978
-0.000303741
-0.000106362
0.000221781
0.000140782
-6.7872e-05
-0.000242216
-8.26707e-05
0.000205322
-0.000128749
-0.000153106
-7.79713e-05
-2.36106e-05
0.000512797
0.000872484
0.000717488
-0.000226019
-0.00015333
0.000537065
-5.31612e-05
-4.70063e-05
7.17846e-05
0.000143217
0.000366617
0.000291812
0.000150821
-0.00024625
2.68583e-06
0.000161639
-0.000206823
6.77706e-05
3.53871e-05
0.000203691
0.000142371
7.78879e-05
0.000149603
-0.000294528
-8.47098e-05
0.000342343
0.000698155
0.000331236
-9.64215e-05
-6.14482e-05
0.000142087
0.000110879
-3.7632e-05
-0.000159191
-0.000121936
7.53698e-05
-7.36804e-05
-7.62318e-05
-4.88343e-06
3.99564e-05
0.000405581
0.000679332
0.000593204
-6.15092e-05
-9.88646e-05
0.000312764
-2.72239e-05
-4.40303e-05
2.58333e-06
7.14059e-05
0.000214024
0.000167208
9.53989e-05
-0.000154744
-6.38228e-05
4.95293e-05
-0.000129792
-4.01635e-06
-2.02411e-06
9.14531e-05
8.57544e-05
4.49313e-05
9.16656e-05
-0.000174061
-7.8834e-05
0.000187892
0.000440382
0.000258841
-5.01465e-05
-6.16511e-05
4.75134e-05
4.58463e-05
-3.80863e-05
-0.000134679
-0.000116967
-8.71947e-08
-6.53781e-05
-5.38524e-05
-8.45454e-06
5.73227e-05
0.000309596
0.000499751
0.000464308
2.94969e-05
-6.66115e-05
0.000165196
1.95451e-05
9.73218e-06
3.65634e-05
5.15703e-05
0.00013456
0.000122699
6.80217e-05
-7.55327e-05
-7.00777e-05
-8.45592e-06
-7.79605e-05
-2.34773e-05
-1.02132e-05
3.51455e-05
4.26197e-05
2.64361e-05
4.68254e-05
-7.38763e-05
-2.55419e-05
0.000145304
0.000302159
0.000198625
1.49562e-05
-2.70503e-05
2.69915e-05
2.66329e-05
-3.24144e-05
-0.000100819
-0.000102022
-3.35886e-05
-5.56807e-05
-3.42196e-05
1.06135e-05
7.14492e-05
0.000236237
0.000367618
0.00034382
7.9502e-05
-2.03266e-05
8.92241e-05
1.11279e-05
-4.78215e-07
4.61895e-06
1.8321e-05
6.21027e-05
5.60844e-05
2.62547e-05
-5.77625e-05
-7.51281e-05
-4.02648e-05
-6.66058e-05
-3.96004e-05
-2.77083e-05
-7.18905e-06
7.55503e-06
3.10349e-06
1.51228e-05
-4.14243e-05
-1.5687e-05
8.47041e-05
0.000178733
0.000131407
1.56285e-05
-2.59801e-05
-4.55991e-06
-5.72169e-06
-3.78175e-05
-8.54846e-05
-9.29904e-05
-5.41452e-05
-5.28163e-05
-2.88623e-05
9.81537e-06
5.96562e-05
0.000170513
0.000257506
0.000245944
9.14833e-05
4.91731e-06
4.65731e-05
1.5355e-05
1.15058e-05
1.20336e-05
1.14254e-05
2.92905e-05
2.8682e-05
6.83211e-06
-4.1825e-05
-6.49431e-05
-5.0483e-05
-5.55207e-05
-4.06025e-05
-3.16115e-05
-2.23564e-05
-1.39988e-05
-1.05177e-05
-1.12233e-06
-1.8606e-05
-2.36449e-06
5.46073e-05
0.000111003
8.58209e-05
2.19963e-05
-1.30746e-05
-1.0328e-05
-1.50472e-05
-3.806e-05
-7.17124e-05
-8.08526e-05
-6.07504e-05
-5.0776e-05
-2.73223e-05
8.92141e-06
5.3985e-05
0.000124591
0.000177708
0.000171089
8.40637e-05
1.98369e-05
2.54031e-05
1.79585e-06
-5.06035e-06
-8.26213e-06
-9.08648e-06
-8.20254e-07
-2.77622e-06
-1.62674e-05
-4.35783e-05
-6.19836e-05
-5.44609e-05
-5.02809e-05
-4.26914e-05
-3.86774e-05
-3.31026e-05
-2.6232e-05
-2.16051e-05
-1.2454e-05
-1.42966e-05
-2.0404e-06
2.69795e-05
5.44784e-05
4.59867e-05
1.08928e-05
-1.61592e-05
-2.18321e-05
-3.00554e-05
-4.56988e-05
-6.66724e-05
-7.38797e-05
-6.40685e-05
-5.24814e-05
-3.13454e-05
-8.07145e-07
3.47221e-05
8.20599e-05
0.000115582
0.000113221
6.59443e-05
2.03645e-05
1.14036e-05
-4.98133e-06
-9.45253e-06
-1.37433e-05
-1.72255e-05
-1.55291e-05
-1.70038e-05
-2.54107e-05
-4.07448e-05
-5.37828e-05
-5.2724e-05
-4.88473e-05
-4.3018e-05
-3.85794e-05
-3.50881e-05
-2.9963e-05
-2.34569e-05
-1.42125e-05
-1.34471e-05
-1.62709e-06
1.54932e-05
3.11498e-05
2.73903e-05
7.02473e-06
-1.34567e-05
-2.5079e-05
-3.57886e-05
-4.94624e-05
-6.40057e-05
-6.78595e-05
-6.59365e-05
-5.54449e-05
-3.66261e-05
-1.18686e-05
1.63531e-05
4.81203e-05
6.9813e-05
7.00349e-05
4.54114e-05
1.59361e-05
1.84436e-06
-3.03828e-05
-3.77622e-05
-4.3314e-05
-4.67459e-05
-4.79755e-05
-4.97059e-05
-5.41584e-05
-6.12861e-05
-6.77789e-05
-6.75169e-05
-6.38981e-05
-5.87531e-05
-5.40137e-05
-4.98754e-05
-4.46866e-05
-3.81527e-05
-3.10031e-05
-2.64281e-05
-1.74382e-05
-7.68277e-06
-4.93363e-07
-3.12254e-06
-1.60032e-05
-3.18183e-05
-4.50907e-05
-5.71246e-05
-6.90122e-05
-7.99502e-05
-8.52364e-05
-8.42446e-05
-7.61975e-05
-6.05257e-05
-4.02642e-05
-1.74277e-05
4.51662e-06
1.97208e-05
2.24215e-05
1.04916e-05
-7.38358e-06
-2.07076e-05
-6.12699e-05
-6.71083e-05
-7.18894e-05
-7.57679e-05
-7.84193e-05
-8.06633e-05
-8.34795e-05
-8.69838e-05
-8.9378e-05
-8.7987e-05
-8.38087e-05
-7.83957e-05
-7.25551e-05
-6.73286e-05
-6.17347e-05
-5.51536e-05
-4.80589e-05
-4.17747e-05
-3.5433e-05
-3.00685e-05
-2.75829e-05
-3.13199e-05
-4.1463e-05
-5.47914e-05
-6.79615e-05
-8.03861e-05
-9.18712e-05
-0.000101521
-0.000107043
-0.000106921
-0.000100788
-8.87324e-05
-7.27199e-05
-5.52509e-05
-3.93126e-05
-2.8225e-05
-2.56042e-05
-3.21964e-05
-4.32924e-05
-5.35018e-05
-3.62926e-06
-9.93635e-06
-1.50817e-05
-1.92178e-05
-2.24335e-05
-2.46634e-05
-2.60033e-05
-2.63902e-05
-2.51363e-05
-2.10585e-05
-1.43543e-05
-7.34383e-06
1.50189e-06
8.94904e-06
1.6231e-05
2.35717e-05
3.09957e-05
3.77109e-05
4.32973e-05
4.65604e-05
4.62532e-05
4.09871e-05
3.07039e-05
1.70232e-05
2.31693e-06
-1.17412e-05
-2.42299e-05
-3.43706e-05
-4.11321e-05
-4.28883e-05
-3.9212e-05
-3.03611e-05
-1.79541e-05
-4.20784e-06
8.22164e-06
1.71367e-05
2.06988e-05
1.83632e-05
1.18779e-05
3.79658e-06
-0.00603732
-0.00220625
-0.0120188
-0.00187158
-0.000812011
-0.00184719
-0.00844859
-0.00317918
0.00817366
-0.0051617
-0.00961882
-0.00845241
-0.00302619
-0.00574694
0.0044016
-0.0104333
-0.0100707
-0.000516009
0.00551569
0.00616796
0.00185331
-0.0109288
-0.00995676
0.00356011
0.00796454
0.00580876
-0.0162794
-0.0154964
-0.00153253
0.0109699
-0.000476417
-0.00392065
-0.00693075
-0.010347
0.00528234
0.00343983
-0.00350353
-0.00954786
-0.00431923
0.000863991
-0.0294542
-0.0165135
-0.0335008
-0.0236496
-0.0229329
-0.0138383
-0.0161936
-0.0171119
-0.0130726
-0.028686
-0.0240342
-0.0277223
-0.0272025
-0.021187
-0.0071154
-0.0269582
-0.0243538
-0.0175353
-0.0164043
-0.0160454
-0.0186512
-0.0322231
-0.0277078
-0.0172532
-0.0144827
-0.014854
-0.0405714
-0.0341649
-0.0186922
-0.0106912
-0.0227406
-0.0188982
-0.0290491
-0.0285805
-0.0165283
-0.0124482
-0.0197023
-0.0258978
-0.0263365
-0.0218809
-0.0187251
-0.0155968
-0.0240867
-0.0142148
-0.0158594
-0.0165329
-0.0130289
-0.00493531
-0.00511342
-0.0204742
-0.0164238
-0.0193349
-0.0160412
-0.0140628
0.00230928
-0.0167579
-0.0265666
-0.0122139
-0.00563631
-0.00686609
-0.0106975
-0.023537
-0.0233323
-0.00932741
-0.00649829
-0.00714627
-0.0323676
-0.0221225
-0.0136037
-0.0017712
-0.0175193
-0.0169837
-0.0197066
-0.0229974
-0.00214654
-0.013505
-0.0168431
-0.0217109
-0.0148837
-0.0101626
-0.0186034
-0.0207535
-0.0238207
-0.0218791
-0.0196257
-0.0222159
-0.0319228
-0.0112174
-0.00145462
-0.0233091
-0.0263276
-0.0157716
-0.0186863
-0.0240775
-0.0137066
-0.0284575
-0.0288297
-0.0235055
-0.00679924
-0.0060382
-0.0179147
-0.0326998
-0.0308149
-0.0138773
-0.00776572
-0.00361084
-0.0341629
-0.0300702
-0.0229642
-0.000135727
-0.0157234
-0.0251286
-0.0199858
-0.0308615
-0.0109601
-0.0153226
-0.0268077
-0.0308192
-0.0152874
-0.00815436
-0.0170432
-0.00587854
-0.0217843
-0.0134375
-0.00968759
-0.0130064
-0.0240705
-0.0135354
0.00440509
-0.0162614
-0.0301266
-0.0189488
-0.0203534
-0.0197854
-0.00983885
-0.0265336
-0.0251737
-0.0190679
-0.00872262
-0.00459343
-0.00137037
-0.026571
-0.0205498
-0.00809446
-0.0041331
-0.00245117
-0.0262153
-0.0253285
-0.0186995
-0.0033832
-0.00709321
-0.0114278
-0.0149085
-0.0289919
-0.0155463
-0.0120312
-0.0191332
-0.0252126
-0.0176907
-0.00529301
-0.0211867
-0.00922152
-0.0203142
-0.0173686
-0.0118211
-0.0121355
-0.0193143
-0.0195875
-0.00079891
-0.018947
-0.0289789
-0.0295985
-0.019403
-0.0243783
-0.00704292
-0.0180863
-0.0282656
-0.013474
-0.0123901
-0.00712667
-0.00576252
-0.0202191
-0.0279187
-0.0131603
-0.00676161
-0.0055529
-0.0203639
-0.034223
-0.0195802
-0.0150753
-0.00585398
-0.0152328
-0.0203085
-0.0252187
-0.0148404
-0.00932373
-0.0147352
-0.0226748
-0.0247107
-0.0128464
-0.0185617
-0.0188924
-0.0210031
-0.0103131
-0.0108765
-0.0156778
-0.0171504
-0.0214162
0.00857348
-0.0281432
-0.0267918
-0.0219551
-0.0141555
-0.0113786
-0.0061179
-0.0161879
-0.016143
-0.0110248
-0.0119168
-0.00638088
-0.00523955
-0.0163354
-0.0182317
-0.0174868
-0.00782626
-0.003883
-0.0191627
-0.0264446
-0.0197929
-0.00524283
-0.0110131
-0.0153632
-0.0233852
-0.0232345
-0.00715717
-0.00595743
-0.0121385
-0.0214739
-0.0185995
-0.0105485
-0.014395
-0.0194637
-0.0318606
-0.016872
-0.0074956
-0.0203478
-0.0290592
-0.0268444
0.00623754
-0.0216112
-0.0339617
-0.0229249
-0.0104613
-0.014172
-0.0106354
-0.0265748
-0.0152242
-0.0160942
-0.0183923
-0.00417102
-0.00695503
-0.0166886
-0.0168592
-0.0130597
-0.00827791
-0.00109173
-0.0182125
-0.0161158
-0.0147382
-0.0110337
-0.0161515
-0.010189
-0.0245324
-0.0262529
-0.00646441
-0.00724932
-0.0136319
-0.0202486
-0.018364
-0.014696
-0.0138291
-0.00779636
-0.0280568
-0.0270597
-0.00177912
-0.0141424
-0.0355892
-0.0286525
-0.00236034
-0.0159976
-0.020469
-0.0206686
-0.00932371
-0.0126553
-0.0109829
-0.0253078
-0.0143447
-0.0185219
-0.0133158
-0.00940606
-0.00562036
-0.0114352
-0.0199219
-0.01348
-0.00736444
-0.00164165
-0.0182315
-0.0143306
-0.0130906
-0.014534
-0.0178431
-0.00963141
-0.0155693
-0.0229551
-0.00407598
-0.0110788
-0.0127208
-0.0227979
-0.0165166
-0.0168816
-0.0148898
-0.00864291
-0.0215418
-0.0167321
-0.00484581
-0.009226
-0.0326631
-0.0236721
-0.0062628
-0.0139717
-0.0199899
-0.00871838
-0.0161293
-0.0128824
-0.0067158
-0.0184793
-0.0132101
-0.019852
-0.0134915
-0.0105016
-0.00403282
-0.0172996
-0.0190257
-0.0228076
-0.0088787
-0.01371
-0.0210765
-0.0139785
-0.0193189
-0.0167514
-0.0145921
-0.0164367
-0.0178852
-0.0167668
-0.00169855
-0.00951376
-0.00761726
-0.025864
-0.0225691
-0.0120208
-0.0157714
-0.00991881
-0.016393
-0.0162798
-0.0127589
-0.00461
-0.024996
-0.0181655
-0.00747056
-0.00864771
-0.0190703
-0.0152027
-0.0124559
-0.0137095
0.00108527
-0.0141279
-0.0194013
-0.0151198
-0.0207357
0.000387343
-0.0104234
-0.0168977
-0.00829199
-0.0193196
-0.00720006
-0.0117649
-0.0186523
-0.0119296
-0.0111747
-0.0163913
-0.0139133
-0.0160365
-0.0190877
-0.0137671
0.00128217
-0.000281242
-0.00421067
-0.0166109
-0.020581
-0.00549414
-0.0142441
-0.00893893
-0.0142401
-0.0215657
-0.0108563
-0.00161446
-0.017774
-0.0139592
-0.00512739
-0.0126849
-0.0201142
-0.013926
-0.0124483
-0.0201708
0.00346593
-0.0133962
-0.0180488
-0.0155529
-0.0178826
-0.00442613
-0.00919112
-0.0085486
-0.00368504
-0.0147604
-0.0155681
-0.010081
-0.0160338
-0.0104019
-0.013092
-0.00724795
-0.0107784
-0.00582306
-0.0161407
-0.0173722
-0.00702716
-0.0063164
-0.00683496
-0.0149475
-0.0161995
-0.008755
-0.008593
-0.00458592
-0.017222
-0.0164665
-0.00343532
-0.00272325
-0.0136925
-0.0118269
-0.00443426
-0.00712156
-0.0162018
-0.0119772
-0.00714046
-0.0138081
-0.00286147
-0.0128935
-0.0106732
-0.0211742
-0.0143849
-0.00491385
-0.00127198
-0.00782781
-0.00662414
-0.010103
-0.0170593
-0.00895989
-0.0150377
-0.00875262
-0.00828888
-0.00783887
-0.00969211
-0.00943901
-0.0132809
-0.0140117
-0.0124749
-0.00950162
-0.00707345
-0.0224689
-0.0145332
0.000588446
-0.00409426
-0.000889274
-0.0110285
-0.0142757
-0.00657693
-0.00256297
-0.00739394
-0.00555244
-0.000140666
-0.0104179
-0.00716333
-0.00926986
-0.00339418
-0.00806601
-0.00436016
-0.00735488
-0.00938628
-0.00946902
-0.00968763
-0.00611992
-0.00379623
-0.0101187
-0.00472706
-0.00517945
-0.00801972
-0.00786645
-0.0127552
-0.00540058
-0.00492159
-0.00649999
-0.0110827
-0.0125096
-0.00665602
-0.010094
-0.00361588
-0.00225732
-0.00530487
-0.0157491
-0.0154199
-0.00148562
-0.00215132
-0.00101975
-0.00462483
-0.00770216
-0.00750104
-0.00342453
-0.003774
-0.00322434
0.00311065
-0.00865322
-0.00507289
-0.00649735
-0.00208596
-0.00389362
-1.0644e-05
-0.00231173
-0.00786788
-0.00366926
-0.00483444
-0.00469949
-0.00416083
-0.0110992
-0.00453921
-0.000910487
-0.00435076
-0.00525913
-0.00968185
-0.00331603
-0.00326341
-0.00159174
-0.00587103
-0.00784151
-0.00476054
-0.00600969
0.00226724
-0.0008031
-0.00631555
-0.00935083
-0.0118522
-0.00434423
-0.00278878
-0.000275473
-0.0019586
-0.00491841
-0.00517805
-0.00378286
-0.00355305
-0.0045338
-0.00160514
-0.00448134
-0.00491975
-0.0041466
-0.00112402
-0.00226358
-8.3947e-05
-0.00291194
-0.00590155
-0.00413475
-0.00192355
-0.00203017
-0.00340354
-0.00957069
-0.00412097
-0.000899319
-0.00507226
-0.00322531
-0.00564603
-0.00329209
-0.00235772
-0.00303284
-0.00261549
-0.00680952
-0.00323612
-0.00361939
-0.00263494
-0.000581976
-0.00568899
-0.00566184
-0.00828996
-0.00609798
-0.00297814
-0.00022555
-0.00268775
-0.00302533
-0.00330638
-0.00217201
-0.0008909
-0.00278803
0.00196197
-0.00398459
-0.00436914
-0.00186804
-0.00140388
-0.00214345
-0.000263766
-0.000376063
-0.00380059
-0.00187163
-0.001382
-0.00214953
-0.00217017
-0.00480944
-0.00324062
-0.0010859
-0.00133653
-0.0021158
-0.00318317
-0.00159396
-0.00174339
-0.00059514
-0.00169253
-0.00311814
-0.00227783
-0.00344944
0.00168782
0.000165236
-0.00232709
-0.00500392
-0.00624869
-0.00545382
-0.00245438
-0.000366202
-0.00102769
-0.00227886
-0.00255924
-0.0016812
-0.00114857
-0.00316318
-0.00161066
-0.00288853
-0.00352289
-0.00154768
-0.00128303
-0.00100239
-0.000256931
-0.000816355
-0.00202635
-0.0023515
-0.0011338
-0.00110271
-0.000966543
-0.00264251
-0.00300408
-0.000602995
-0.00228153
-0.00152768
-0.00204257
-0.00165788
-0.00126424
-0.00105365
-0.00101728
-0.00167029
-0.00160779
-0.00211518
-0.00095092
0.000148185
-6.5082e-05
-0.00301771
-0.0046812
-0.00358834
-0.00177621
-0.00020874
-0.00132927
-0.00142082
-0.00165351
-0.000807496
-0.000256469
-0.00189983
0.000512518
-0.00180688
-0.00248964
-0.000441807
-0.000950385
-0.00095044
-0.000170445
-0.000162507
-0.00118951
-0.00134222
-0.000830183
-0.000586243
-0.000700096
-0.00102853
-0.00192718
-0.000832402
-0.00074328
-0.000837657
-0.00100894
-0.000855669
-0.000942947
-0.000410344
-0.000561961
-0.000726483
-0.000992868
-0.00153198
0.000347253
0.000682101
0.000701671
-0.00271434
-0.00311688
-0.00246548
-0.00140521
-0.000495365
-0.000733377
-0.00118938
-0.00111999
-0.000522444
-0.000151983
-0.00167583
-0.00108006
-0.00148222
-0.00196087
-0.000509677
-0.000814892
-0.000718785
-0.000294829
-0.000393386
-0.000607499
-0.00111901
-0.000677885
-0.00050487
-0.000407457
-0.000475423
-0.00161838
-0.000613946
-0.000939122
-0.000762811
-0.000792096
-0.000802157
-0.000703618
-0.000376086
-0.000431139
-0.000565847
-0.000742952
-0.000987876
-7.30895e-06
0.000531251
0.000807111
-0.00170383
-0.00239986
-0.00161686
-0.00102764
-0.000358427
-0.000607761
-0.00081064
-0.000740175
-0.000323437
-8.83717e-05
-0.00108035
-0.00044862
-0.000954853
-0.00137152
-0.000170551
-0.00058226
-0.000550322
-0.000244738
-0.000270907
-0.000352029
-0.000775847
-0.000524168
-0.000264822
-0.000244474
-0.000176528
-0.0010152
-0.000588719
-0.000508561
-0.000505992
-0.000456867
-0.000490679
-0.000534872
-0.000285149
-0.00032537
-0.000355897
-0.000463042
-0.000651583
1.75079e-05
0.000451051
0.000800217
-0.00105147
-0.00164109
-0.00110647
-0.000863249
-0.00052239
-0.000567475
-0.000685578
-0.000602292
-0.000347396
-0.000148998
-0.000869286
-0.000766573
-0.000858384
-0.00110144
-0.00036476
-0.000506506
-0.000526837
-0.00036476
-0.000379405
-0.000349394
-0.000621905
-0.000473546
-0.000313509
-0.000297042
-0.000175742
-0.000773877
-0.000527855
-0.000500175
-0.000497585
-0.000458071
-0.000510356
-0.000471353
-0.000304698
-0.000338198
-0.000381779
-0.000418782
-0.000440507
-9.66683e-06
0.000290273
0.000576465
-0.000674344
-0.001193
-0.000895793
-0.000667264
-0.000433495
-0.000466064
-0.000538997
-0.000479752
-0.000308893
-0.000204133
-0.000583033
-0.000584088
-0.000667349
-0.000802779
-0.000286275
-0.000380269
-0.000410009
-0.000324204
-0.000326876
-0.000279188
-0.000446416
-0.000378393
-0.000231398
-0.000220041
-0.000144106
-0.000508422
-0.000425224
-0.000368463
-0.00039652
-0.000344482
-0.000363932
-0.000391496
-0.000299608
-0.000313126
-0.000311749
-0.000309751
-0.000309528
-4.03287e-05
0.000164757
0.000363835
-0.000390248
-0.000808794
-0.000681822
-0.000593682
-0.000485255
-0.000466011
-0.000479983
-0.00043945
-0.000353223
-0.000282025
-0.000528744
-0.000595035
-0.000609534
-0.000675704
-0.000389269
-0.000384988
-0.000419846
-0.000387716
-0.000395902
-0.000354517
-0.000436008
-0.000397752
-0.000318136
-0.000285847
-0.000224976
-0.000424191
-0.000417204
-0.000394027
-0.000401908
-0.000412782
-0.000423999
-0.00040057
-0.00033369
-0.000344987
-0.000346851
-0.000314512
-0.000267609
-8.59664e-05
3.69405e-05
0.000163625
-0.000286209
-0.000619143
-0.000591746
-0.000486894
-0.000422671
-0.000412587
-0.000424919
-0.00040199
-0.000342449
-0.00031341
-0.000431351
-0.000490546
-0.000512459
-0.000538341
-0.000358591
-0.000337319
-0.000356213
-0.000349204
-0.000333035
-0.000308693
-0.000355473
-0.00032699
-0.000263294
-0.000244973
-0.000212371
-0.000316566
-0.000340434
-0.000331002
-0.000352572
-0.000347805
-0.000352647
-0.000358709
-0.000334763
-0.000333155
-0.000320035
-0.000286466
-0.000237998
-0.000126939
-4.90986e-05
1.68933e-05
-0.000222343
-0.000441896
-0.000471117
-0.00045248
-0.000435366
-0.000418604
-0.000406743
-0.000387999
-0.000363424
-0.000348273
-0.00042111
-0.000476578
-0.000478334
-0.000483619
-0.000390576
-0.000360166
-0.000372769
-0.000377317
-0.000386301
-0.000359664
-0.000365927
-0.000348123
-0.000309662
-0.000289849
-0.000265423
-0.000322513
-0.000346029
-0.00034836
-0.000364617
-0.000377596
-0.000386842
-0.000374868
-0.00035565
-0.000353497
-0.000340553
-0.000300172
-0.00025296
-0.000173462
-0.000128861
-9.47279e-05
-0.00022292
-0.000374889
-0.000428743
-0.000393835
-0.000390597
-0.000379896
-0.000381695
-0.000372303
-0.000357839
-0.000354844
-0.000387305
-0.000418408
-0.000422074
-0.000423876
-0.00036934
-0.000343806
-0.000344554
-0.000347268
-0.000341589
-0.000328068
-0.000330366
-0.000315657
-0.000293195
-0.000274427
-0.000262669
-0.000292939
-0.000319549
-0.000324886
-0.000340225
-0.000351864
-0.000359017
-0.000362558
-0.000356793
-0.000351575
-0.000333482
-0.000302738
-0.000261454
-0.000215175
-0.000181916
-0.000165392
-0.000231102
-0.000322301
-0.000368674
-0.000380206
-0.00038775
-0.000387305
-0.000381823
-0.000372115
-0.000367431
-0.000367837
-0.00038709
-0.000411353
-0.000413372
-0.000411807
-0.000383561
-0.000357891
-0.000354276
-0.000357006
-0.000357896
-0.0003465
-0.000338549
-0.000324617
-0.000305508
-0.000292998
-0.000286011
-0.000300836
-0.000318687
-0.000330797
-0.000344757
-0.000357561
-0.000366452
-0.000366108
-0.000361863
-0.000358834
-0.000346508
-0.000323646
-0.00029142
-0.000257822
-0.000234088
-0.000221269
-0.000254065
-0.000311578
-0.000354035
-0.000341011
-0.000350542
-0.000353281
-0.000355029
-0.000355614
-0.000355473
-0.000357601
-0.000365066
-0.000373781
-0.000374518
-0.000371585
-0.000352686
-0.000336733
-0.000330032
-0.000327723
-0.000323711
-0.000314155
-0.000308386
-0.000296777
-0.000285468
-0.000278703
-0.00027808
-0.000288691
-0.000302664
-0.000314897
-0.00032853
-0.000340472
-0.000349303
-0.000352302
-0.000351867
-0.000347166
-0.000334647
-0.000315274
-0.000289717
-0.000266767
-0.000252976
-0.000247662
-0.000264723
-0.000295633
-0.000322264
-0.000363815
-0.000371903
-0.000376101
-0.000379444
-0.000382065
-0.000384658
-0.000387576
-0.000392283
-0.000395478
-0.000393073
-0.000385507
-0.000372826
-0.000360197
-0.000352156
-0.000347852
-0.000343021
-0.000336516
-0.000327863
-0.000317636
-0.000310031
-0.000306165
-0.000307061
-0.00031381
-0.000323392
-0.000333395
-0.000345024
-0.000356253