/*--------------------------------*- C++ -*----------------------------------*\
  =========                 |
  \\      /  F ield         | OpenFOAM: The Open Source CFD Toolbox
   \\    /   O peration     | Website:  https://openfoam.org
    \\  /    A nd           | Version:  10
     \\/     M anipulation  |
\*---------------------------------------------------------------------------*/
FoamFile
{
    format      ascii;
    class       volVectorField;
    location    "3";
    object      U;
}
// * * * * * * * * * * * * * * * * * * * * * * * * * * * * * * * * * * * * * //

dimensions      [0 1 -1 0 0 0 0];

internalField   nonuniform List<vector> 
102400
(
(0.131443 -0.077313 -0.0196748)
(0.132617 -0.0737334 0.0746207)
(0.115016 -0.0765078 0.077875)
(0.139807 -0.075864 0.0234109)
(0.208449 -0.0781999 -0.0298829)
(0.198039 -0.078062 3.19792e-05)
(0.1708 -0.0732989 0.0493383)
(0.174817 -0.0674531 0.0964095)
(0.17479 -0.0710923 0.104377)
(0.163265 -0.0715949 0.0677731)
(0.198517 -0.0685667 0.0532964)
(0.260849 -0.0687167 0.0914229)
(0.270592 -0.0703704 0.136077)
(0.224717 -0.0760409 0.136051)
(0.235534 -0.0747212 0.114036)
(0.233207 -0.0665346 0.117201)
(0.187291 -0.0679359 0.125883)
(0.159031 -0.0746231 0.108031)
(0.229952 -0.0751461 0.0733767)
(0.276427 -0.072318 0.0337465)
(0.305745 -0.0699935 0.0717471)
(0.285412 -0.0702141 0.127814)
(0.208677 -0.086375 0.130245)
(0.207808 -0.0867105 0.046199)
(0.299581 -0.0745386 -0.0138859)
(0.416086 -0.0815042 0.0018133)
(0.346526 -0.0741848 0.0374276)
(0.302332 -0.0798836 0.0117599)
(0.326205 -0.0787976 0.013564)
(0.30558 -0.0757705 0.0686333)
(0.313483 -0.0720205 0.0906302)
(0.243267 -0.0658189 0.123937)
(0.142998 -0.0748745 0.0997414)
(0.136791 -0.0762824 0.0189279)
(0.177761 -0.0732394 0.0139069)
(0.163099 -0.0720107 0.00385505)
(0.148851 -0.0738249 0.00664449)
(0.126841 -0.0837058 0.012066)
(0.102183 -0.0733837 0.0084703)
(0.143781 -0.0778042 -0.0284348)
(0.404124 0.0653111 -0.136276)
(0.27532 0.0615957 -0.0336079)
(0.127654 0.0822174 -0.00264228)
(0.165392 0.0814268 -0.0774022)
(0.402251 0.0643334 -0.142672)
(0.455321 0.0600054 -0.12784)
(0.382844 0.0532184 -0.0703269)
(0.321602 0.0495262 0.00898772)
(0.301208 0.0621547 0.0366964)
(0.283556 0.067524 -0.0300922)
(0.3643 0.0585133 -0.0732138)
(0.444659 0.0535438 0.0173696)
(0.426126 0.0637613 0.120978)
(0.389922 0.0802845 0.0773374)
(0.441314 0.0710723 0.0530231)
(0.442742 0.0568649 0.0813299)
(0.325615 0.059873 0.0839092)
(0.268435 0.078476 0.0303333)
(0.392199 0.0698145 0.0110917)
(0.483884 0.0584862 -0.0738802)
(0.530637 0.0554039 -0.039343)
(0.520244 0.064707 0.0686943)
(0.392446 0.0961465 0.0734817)
(0.345006 0.0909536 -0.0138226)
(0.479209 0.0566181 -0.103615)
(0.856791 0.0581979 -0.125087)
(0.787225 0.0550144 -0.067884)
(0.620891 0.0636181 -0.120542)
(0.688187 0.0585668 -0.127784)
(0.609691 0.0555994 -0.044358)
(0.645854 0.0477068 0.0142084)
(0.432934 0.0505287 0.0819685)
(0.233689 0.0781398 0.0285544)
(0.240824 0.0711236 -0.0699804)
(0.352773 0.0598611 -0.0636693)
(0.345936 0.0557944 -0.100268)
(0.337702 0.0643284 -0.13213)
(0.321668 0.0830355 -0.108954)
(0.240452 0.068461 -0.0970975)
(0.396279 0.0748939 -0.118021)
(0.821085 -0.0453311 -0.125049)
(0.53719 -0.0442671 -0.140792)
(0.228226 -0.0218316 -0.0105292)
(0.215349 -0.0276402 -0.0285559)
(0.536446 -0.0622021 -0.0402627)
(0.624643 -0.0728301 -0.163053)
(0.551448 -0.063333 -0.16919)
(0.484592 -0.0505706 -0.0816525)
(0.392652 -0.0395594 -0.0135137)
(0.403694 -0.0447 -0.0900537)
(0.486758 -0.0507306 -0.168363)
(0.536896 -0.0491368 -0.0667215)
(0.476494 -0.0343222 0.0616088)
(0.462329 -0.0255794 0.0226099)
(0.492881 -0.0304087 -0.00250563)
(0.52468 -0.0303386 0.016206)
(0.410458 -0.0341114 0.0433234)
(0.33646 -0.025402 -0.0130451)
(0.450336 -0.0257937 -0.0455178)
(0.548766 -0.035941 -0.117588)
(0.652806 -0.0486467 -0.13861)
(0.578508 -0.0326369 -0.0147565)
(0.413733 -0.00588178 0.00312465)
(0.427758 -0.0203391 2.20305e-05)
(0.607212 -0.0519048 -0.00894496)
(0.941911 -0.0789323 -0.0659749)
(1.01813 -0.0555154 -0.0534582)
(0.806904 -0.0627013 -0.122083)
(0.812536 -0.0699028 -0.177397)
(0.857649 -0.0648952 -0.140253)
(0.860753 -0.0637365 -0.0379468)
(0.54417 -0.0389569 0.0313605)
(0.322997 -0.0321676 -0.0294151)
(0.342491 -0.0389205 -0.0762523)
(0.611159 -0.0574217 -0.0383725)
(0.656059 -0.0513868 -0.0951922)
(0.495528 -0.047559 -0.182936)
(0.567405 -0.0341637 -0.163739)
(0.467395 -0.040751 -0.176201)
(0.664206 -0.0511442 -0.0709454)
(0.879985 0.0337695 -0.0214251)
(0.557195 0.0643357 -0.168929)
(0.243454 0.0849428 -0.0181236)
(0.328818 0.0604146 0.103598)
(0.608165 0.0066026 0.0147711)
(0.616495 0.00257752 -0.114028)
(0.524178 0.0153657 -0.166014)
(0.502893 0.0323544 -0.152442)
(0.489323 0.0579199 -0.0716796)
(0.489052 0.0630589 -0.132634)
(0.521426 0.0393316 -0.204404)
(0.633368 0.0288148 -0.145438)
(0.558757 0.0406717 -0.0100257)
(0.514058 0.076061 0.0217849)
(0.497963 0.0653123 -0.000291818)
(0.5759 0.0411937 -0.0380427)
(0.53166 0.0496903 -0.0545999)
(0.36506 0.0613897 0.0145444)
(0.483696 0.057438 -0.0756207)
(0.540161 0.041164 -0.147161)
(0.66432 0.0298593 -0.199296)
(0.585352 0.041863 -0.0423988)
(0.394 0.0699595 0.00240034)
(0.47862 0.0769573 0.011569)
(0.716131 0.0215391 0.0299924)
(0.936924 -0.0126995 -0.0609706)
(1.02901 0.0180571 -0.062923)
(0.909766 0.0249938 -0.0771674)
(0.853657 0.0159874 -0.129349)
(0.928885 0.0151888 -0.164727)
(0.968825 0.0116683 -0.0840937)
(0.661034 0.0344352 -0.0111416)
(0.343451 0.0640627 -0.0766628)
(0.425383 0.0445925 -0.049862)
(0.715085 0.0120278 0.0110759)
(0.763785 0.0174788 -0.0242786)
(0.503306 0.0325461 -0.143737)
(0.529885 0.0620332 -0.164584)
(0.49332 0.053222 -0.111162)
(0.662021 0.0185101 0.00498492)
(0.721884 -0.0411622 0.0607789)
(0.580476 0.00538511 -0.0777762)
(0.302451 0.0705492 -0.0132573)
(0.320154 0.0216911 0.0890906)
(0.524985 -0.0652793 -0.000860715)
(0.669743 -0.0726812 -0.0749263)
(0.63833 -0.0525815 -0.105233)
(0.56393 -0.0339987 -0.0941545)
(0.568458 -0.00206319 -0.121612)
(0.629454 -0.00345935 -0.221411)
(0.639256 -0.0265118 -0.274579)
(0.665201 -0.0496826 -0.206889)
(0.547229 -0.0214011 -0.0182683)
(0.509723 0.0472608 -0.00051885)
(0.572602 0.0386523 -0.0573119)
(0.652 -0.00713661 -0.0866941)
(0.617232 -0.00518892 -0.107164)
(0.402855 0.0112013 -0.0238872)
(0.456957 0.0156681 -0.0974871)
(0.569248 -0.0301074 -0.11335)
(0.6708 -0.0548501 -0.18587)
(0.642213 -0.00832328 -0.0744433)
(0.463279 0.0451859 -0.00421378)
(0.560465 0.0436634 0.00567444)
(0.689406 -0.0306693 -0.0644888)
(0.892369 -0.0685695 -0.0235924)
(0.998373 -0.0550164 -0.0404334)
(0.96145 -0.059112 -0.0566486)
(0.942592 -0.0706014 -0.0763288)
(0.940435 -0.058145 -0.123022)
(0.97933 -0.0598673 -0.105609)
(0.653084 -0.0264049 -0.0291924)
(0.355637 0.0135746 -0.0687107)
(0.579235 -0.019627 0.0323259)
(0.73397 -0.0413373 0.0181118)
(0.664513 -0.0455158 -0.0908756)
(0.525702 -0.046879 -0.140181)
(0.573012 -0.0016195 -0.125861)
(0.598779 -0.00842229 -0.0794948)
(0.47522 -0.0464165 -0.00281714)
(0.687943 0.0120358 0.0428842)
(0.62899 0.0347178 -0.0348896)
(0.371724 0.0770671 0.0348356)
(0.289107 0.0726752 0.0527328)
(0.58795 -0.0167812 0.0860511)
(0.765756 -0.0405785 -0.0377345)
(0.702858 -0.00539229 -0.116473)
(0.62471 0.0240449 -0.0674165)
(0.580441 0.0468102 -0.111755)
(0.652834 0.0569086 -0.254807)
(0.724255 0.0424648 -0.357486)
(0.698843 -0.00156278 -0.249225)
(0.553438 -0.00231061 -0.03112)
(0.495289 0.046815 0.000425421)
(0.600256 0.0730593 -0.0520409)
(0.731876 0.0450574 -0.177034)
(0.591208 0.0384108 -0.0899671)
(0.443165 0.0577491 -0.0363875)
(0.422057 0.0632395 -0.0528514)
(0.566044 0.0300949 -0.101873)
(0.687329 -0.00441917 -0.180215)
(0.632724 0.0249134 -0.0999995)
(0.529147 0.0368157 0.0555079)
(0.594359 0.0615357 -0.00134955)
(0.712249 0.0221103 -0.156498)
(0.846651 -0.0508372 0.023964)
(1.11704 -0.0107847 0.0592357)
(1.01049 -0.00162087 -0.027544)
(0.858946 -0.01601 -0.0929182)
(0.992679 -0.00179462 -0.0885701)
(1.05232 -0.00063174 -0.135039)
(0.709293 0.0207894 -0.0927106)
(0.521692 0.0423214 -0.0131043)
(0.677458 0.0341235 0.0696219)
(0.760593 0.00521734 0.00403985)
(0.689039 0.00645565 -0.123019)
(0.599562 0.00930191 -0.111731)
(0.577993 0.0276646 -0.0873119)
(0.635229 0.0676913 -0.0523843)
(0.52797 0.0274689 0.0665053)
(0.794953 -0.0387226 0.0802534)
(0.693982 0.020272 -0.0920646)
(0.357824 0.0895904 0.0232108)
(0.362295 0.0453012 0.0738826)
(0.671338 -0.0757377 0.0799509)
(0.801511 -0.0950716 0.00173956)
(0.719214 -0.0499527 -0.0571019)
(0.637099 -0.00354334 -0.0706912)
(0.626357 0.0184808 -0.0685174)
(0.734843 0.0267556 -0.19701)
(0.804357 0.00115107 -0.339818)
(0.744171 -0.0468963 -0.241451)
(0.598084 -0.0307142 -0.104897)
(0.517643 0.0178785 0.00170758)
(0.603256 0.0787727 -0.0434406)
(0.747398 0.0481559 -0.163146)
(0.654666 0.0313182 -0.0766531)
(0.518843 0.0559678 -0.0396714)
(0.46743 0.0227708 -0.0534439)
(0.618625 -0.0434308 -0.129753)
(0.712744 -0.0609263 -0.242355)
(0.65784 -0.00862239 -0.149275)
(0.596386 0.0326469 0.0525137)
(0.61692 0.0576288 0.000532726)
(0.806058 -0.0104935 -0.110909)
(0.858604 -0.072139 -0.0379762)
(1.08933 -0.0627384 0.133005)
(1.03977 -0.0400548 0.0144115)
(0.912199 -0.0457461 -0.1451)
(1.0578 -0.0547578 -0.0444045)
(1.08564 -0.0467916 -0.107845)
(0.819657 -0.0218305 -0.134142)
(0.634911 0.0180675 0.00458711)
(0.708311 0.0157107 0.0271047)
(0.765978 -0.0117718 -0.00952052)
(0.750425 -0.0498199 0.000762722)
(0.634797 -0.0510948 -0.013189)
(0.57804 0.00982197 -0.0334888)
(0.632699 0.0626187 -0.0466907)
(0.524225 0.0119506 0.0624243)
(0.77023 -0.011954 0.0609524)
(0.743141 0.0569074 -0.0352423)
(0.439784 0.0983243 -0.0184748)
(0.520945 0.0303799 -0.000170115)
(0.746612 -0.0510498 0.0347899)
(0.843109 -0.0729298 -0.0553503)
(0.789231 -0.0302833 -0.0112614)
(0.705203 0.0167547 0.0235391)
(0.696732 0.0288777 -0.012303)
(0.819371 0.0531376 -0.0971383)
(0.831395 0.0374769 -0.273988)
(0.79984 -0.00439418 -0.278365)
(0.655411 -0.00919934 -0.143135)
(0.516218 0.0426184 0.0451512)
(0.647251 0.0643051 -0.0608723)
(0.776838 0.0514953 -0.234322)
(0.703059 0.068776 -0.17591)
(0.581985 0.0715848 -0.139665)
(0.552909 0.0577101 -0.160791)
(0.686873 0.0274937 -0.181417)
(0.769273 -0.0133495 -0.245726)
(0.690361 0.0144465 -0.192484)
(0.572141 0.0353684 -0.0464259)
(0.66066 0.0292617 -0.00350997)
(0.859433 0.00834596 -0.0445267)
(0.875414 -0.028782 0.00961661)
(0.888411 -0.041865 0.105776)
(0.939515 -0.0134522 -0.0543573)
(0.929262 -0.0119942 -0.185937)
(1.0345 -0.0272512 -0.0916411)
(1.07212 -0.037214 -0.0777121)
(0.784538 0.00565154 -0.164078)
(0.67379 0.0277176 -0.0491294)
(0.75617 0.0152224 0.0202537)
(0.820263 0.0367582 -0.0404848)
(0.833182 -0.00467235 0.00765879)
(0.704941 -0.0373061 0.0921736)
(0.678119 -0.00687749 0.082895)
(0.658834 0.0493368 -0.028302)
(0.558154 0.0450551 -0.0522802)
(0.693599 -0.0232279 -0.0231491)
(0.753381 0.0171775 0.058835)
(0.516538 0.0980009 -0.0806331)
(0.703179 0.0179769 -0.143625)
(0.851709 -0.0526534 -0.0659573)
(0.922126 -0.0743043 -0.141004)
(0.86862 -0.0460054 -0.139687)
(0.775729 -0.0155389 -0.000202978)
(0.768007 0.0341029 -0.00205512)
(0.801283 0.0740968 -0.0932344)
(0.884162 0.0332005 -0.211441)
(0.901961 -0.0470569 -0.308032)
(0.722763 -0.00981035 -0.174362)
(0.585693 0.0504543 0.0243683)
(0.667023 0.0400247 -0.0599331)
(0.782947 0.0126094 -0.191589)
(0.806675 0.0357176 -0.181759)
(0.645726 0.0362804 -0.167784)
(0.674632 -9.37165e-05 -0.204803)
(0.762394 -0.0230112 -0.209966)
(0.749634 -0.0378541 -0.152027)
(0.688226 -0.0222383 -0.134987)
(0.569439 0.0182354 -0.0357056)
(0.629023 0.0393547 0.0371992)
(0.791692 -0.000140239 -0.0473169)
(0.890553 -0.0545491 -0.0270445)
(0.920482 -0.0599754 -0.0183943)
(0.89633 -0.0359813 -0.0936463)
(0.941814 -0.0376076 -0.137726)
(1.0345 -0.0393149 -0.138754)
(1.13844 -0.0397787 -0.0456976)
(0.895282 -0.0196486 -0.10867)
(0.800594 -0.00333133 -0.121747)
(0.84324 0.00507566 -0.071237)
(0.852274 0.0223152 -0.113032)
(0.868244 0.001928 -0.0363235)
(0.775557 -0.0735112 0.0715473)
(0.649279 -0.0237074 0.0251294)
(0.6207 0.0561294 -0.073169)
(0.597291 0.0410866 -0.0769709)
(0.719718 -0.0111279 -0.0242385)
(0.741623 0.0590557 -0.0283975)
(0.551321 0.100366 -0.110458)
(0.752379 0.0224993 -0.0951587)
(0.863557 -0.0498324 -0.0668804)
(0.947344 -0.0637025 -0.124785)
(0.941107 -0.0299546 -0.177308)
(0.823796 -0.00279669 -0.105737)
(0.768944 0.0360359 -0.0525614)
(0.771597 0.0862014 -0.112536)
(1.00386 0.0426732 -0.239872)
(0.947748 -0.0148797 -0.252433)
(0.724718 0.000107055 -0.148779)
(0.550613 0.00661146 -0.0775584)
(0.534238 0.0176026 -0.0764332)
(0.653736 0.0582234 -0.064483)
(0.632821 0.0912336 -0.0606969)
(0.567671 0.0182291 -0.0366269)
(0.64306 -0.0415597 -0.090268)
(0.692921 -0.0181043 -0.121173)
(0.745968 -0.0166209 -0.149976)
(0.736867 0.00138464 -0.172082)
(0.659457 0.0465473 -0.0119573)
(0.566998 0.045541 0.0123938)
(0.77938 0.00179908 -0.0863211)
(0.869547 -0.0135528 -0.0626784)
(0.837244 -0.0287566 -0.0239338)
(0.954349 -0.0521185 -0.00922829)
(0.959327 -0.0289415 -0.0501726)
(1.00964 -0.0428143 -0.0572131)
(1.22547 -0.0261651 -0.017843)
(1.06515 0.0105617 -0.0501858)
(0.897513 0.00266684 -0.103206)
(0.87666 -0.017794 -0.0609632)
(0.851523 0.0270808 -0.0992258)
(0.932769 0.0381423 -0.0436943)
(0.862828 -0.0286726 -0.026201)
(0.693488 -0.0153701 -0.0699984)
(0.615256 0.040303 -0.137336)
(0.59456 0.0379487 -0.0618921)
(0.681615 -0.015297 -0.0371829)
(0.613368 0.0858395 -0.132047)
(0.597324 0.0996711 -0.142113)
(0.768923 0.0394805 0.0177195)
(0.844528 -0.0450816 0.0417207)
(0.899913 -0.0981527 -0.015053)
(0.92389 -0.0665187 -0.063473)
(0.871528 -0.0115051 -0.0741679)
(0.778377 0.0453511 -0.0287411)
(0.839254 0.106358 -0.0733098)
(1.10717 0.0459272 -0.303168)
(0.999775 -0.00454551 -0.214765)
(0.76739 -0.00138385 -0.0673473)
(0.678368 0.0155839 -0.136328)
(0.567534 0.0086946 -0.113586)
(0.47841 0.0405813 -0.0891913)
(0.457823 0.0677521 -0.0675931)
(0.582316 0.022258 -0.0151749)
(0.632743 -0.0318757 -0.00743864)
(0.683174 -0.0480874 -0.0272944)
(0.816624 -0.0502599 -0.138912)
(0.801932 -0.0129107 -0.20555)
(0.69704 0.0400496 -0.0558929)
(0.588637 0.0227332 0.0277626)
(0.818274 -0.0260224 -0.00367103)
(0.85333 -0.0306455 -0.0684578)
(0.81108 -0.0380317 -0.0408354)
(1.05326 -0.0495157 -0.000605836)
(1.1015 -0.0584647 -0.00197046)
(1.06013 -0.0328375 0.00996797)
(1.20095 -0.0281028 -0.0237504)
(1.04317 0.00072344 -0.00692964)
(0.839886 -0.00660004 0.014091)
(0.865598 -0.0377341 0.0352122)
(0.865048 -0.00485128 -0.0395298)
(0.948413 0.0355769 -0.065772)
(0.929624 -0.0562459 -0.0277813)
(0.697772 -0.0287525 -0.0602625)
(0.666143 0.0509473 -0.0813577)
(0.663242 0.0162712 -0.0343434)
(0.691118 0.0254909 -0.0540961)
(0.592319 0.0808703 -0.113868)
(0.697803 0.124378 -0.0944633)
(0.786315 0.0581288 -0.0138087)
(0.831439 -0.00445377 -0.0175714)
(0.927252 -0.0565639 0.0108009)
(0.974848 -0.0728306 0.00614669)
(0.886064 -0.0127344 -0.033278)
(0.746223 0.0710331 -0.0424296)
(0.838278 0.074165 -0.0679181)
(1.09046 0.0276966 -0.206519)
(1.06562 0.0118774 -0.243938)
(0.856081 0.00249936 -0.103383)
(0.697084 0.0455345 -0.0874742)
(0.637192 0.0444679 -0.0908395)
(0.5994 0.0185918 -0.120333)
(0.603739 0.0307361 -0.0998007)
(0.703676 0.00158074 -0.0481543)
(0.767075 -0.0548105 0.00904661)
(0.78791 -0.0572874 0.0495471)
(0.853539 -0.0304557 -0.0657195)
(0.833823 0.00224238 -0.188747)
(0.690461 0.0483451 -0.0950945)
(0.697991 0.0494399 0.0440352)
(0.83985 -0.0284997 0.0371838)
(0.830291 -0.011511 -0.0663103)
(0.896883 -0.0154382 -0.0407713)
(1.07428 -0.0605326 -0.0163669)
(1.08856 -0.066574 -0.0521938)
(1.08942 -0.0490984 -0.047986)
(1.23439 -0.0106406 -0.0232261)
(1.09514 0.0431422 -0.0162552)
(0.887029 0.0250448 0.0229688)
(0.843169 -0.0155843 0.112936)
(0.896621 0.0189533 0.0787896)
(1.01019 0.0556229 -0.072053)
(1.02617 -0.0109985 -0.0711802)
(0.741559 -0.0172462 7.56087e-05)
(0.662671 0.0566025 -0.0283923)
(0.720484 0.035204 -0.0590803)
(0.69328 0.0246011 -0.0998751)
(0.656544 0.108845 -0.0960081)
(0.710386 0.112559 -0.0447769)
(0.760077 0.0358334 -0.00823934)
(0.864771 -0.0144778 -0.0846765)
(0.976796 -0.0553587 -0.128424)
(0.998583 -0.0786973 -0.0836382)
(0.855015 -0.0193259 -0.0615541)
(0.815838 0.0628881 -0.012909)
(0.87403 0.0553831 -0.0170049)
(0.990919 0.00634833 -0.108922)
(1.03926 -0.0170341 -0.212017)
(0.896354 0.0142401 -0.140303)
(0.72815 0.0690652 -0.0916823)
(0.663465 0.0540997 -0.042966)
(0.703972 0.0154166 -0.0261387)
(0.668855 0.0294408 -0.0117538)
(0.71281 0.00465896 6.77058e-07)
(0.79203 -0.0542306 -0.00450744)
(0.8122 -0.0694564 0.0360395)
(0.87011 -0.0470176 -0.0471113)
(0.874318 0.00103377 -0.162923)
(0.762587 0.0534882 -0.0921915)
(0.755178 0.0279025 0.02648)
(0.78972 -0.0311915 0.00679023)
(0.841172 0.0014707 -0.0870545)
(0.96917 0.00848976 -0.0740187)
(1.06717 -0.0818079 -0.0188168)
(1.00351 -0.0768714 -0.0845926)
(1.04566 -0.0473694 -0.093596)
(1.22621 -0.0236273 -0.0250711)
(1.14975 0.0372462 -0.0590073)
(0.961012 0.0489502 -0.0208348)
(0.845664 -0.0213328 0.0775061)
(0.880272 0.00540824 0.122702)
(1.0101 0.0521144 0.0382398)
(1.06903 -0.00116651 -0.0305545)
(0.799963 -0.0198198 0.0215262)
(0.668067 0.0214025 0.00454105)
(0.745952 0.0206067 -0.076662)
(0.714093 0.0728342 -0.0916234)
(0.701087 0.108148 -0.0714222)
(0.724595 0.0701682 -0.0811476)
(0.796491 0.0218776 -0.0866099)
(0.899137 -0.0277095 -0.0719418)
(1.00567 -0.0875615 -0.0939539)
(0.985757 -0.0866338 -0.093939)
(0.903061 -0.00141916 -0.0121027)
(0.857285 0.0801199 -0.00452931)
(0.800903 0.0592403 -0.0423732)
(0.896784 -0.0341195 -0.0575329)
(1.02013 -0.0361723 -0.191799)
(0.925661 0.0134199 -0.177985)
(0.75291 0.0501647 -0.111503)
(0.726724 0.0418855 -0.0526753)
(0.734399 0.0249147 0.0512555)
(0.694623 0.0443628 0.110607)
(0.761762 -0.00560593 0.0931851)
(0.832707 -0.0730792 0.00676194)
(0.850473 -0.0790101 0.00694121)
(0.895554 -0.0484475 -0.038988)
(0.916319 -0.00535865 -0.149266)
(0.830558 0.0425189 -0.0960444)
(0.835234 0.0298396 0.0353267)
(0.804515 -0.00549198 0.0254142)
(0.758444 -0.000332559 -0.0864178)
(0.927473 0.00439806 -0.0894544)
(1.11777 -0.0435721 -0.00745041)
(1.08887 -0.0701872 -0.052505)
(1.0129 -0.0584282 -0.060422)
(1.03532 -0.0163896 -0.0108803)
(0.978582 0.046983 -0.0627604)
(0.884728 0.0595328 -0.038443)
(0.909456 0.00257385 0.0756537)
(0.896016 -0.0196063 0.139199)
(0.962908 0.0305152 0.0968028)
(1.06825 0.00308206 0.06429)
(0.871675 -0.022446 0.0417004)
(0.725353 0.0259471 0.0202541)
(0.752297 0.0409799 -0.0568226)
(0.704778 0.0809996 -0.0339967)
(0.767203 0.0855748 -0.0268723)
(0.80784 0.0691584 -0.108599)
(0.828093 0.000194163 -0.142445)
(0.916209 -0.0464801 -0.0970313)
(1.03784 -0.0624659 -0.0521134)
(1.01979 -0.0601512 -0.0326114)
(0.89128 0.00713596 -0.034468)
(0.789331 0.0596303 -0.103728)
(0.806229 0.0221178 -0.0793321)
(0.991331 -0.0624723 -0.0285296)
(1.11777 -0.0550667 -0.140543)
(0.979752 0.015347 -0.178791)
(0.792666 0.0439307 -0.108624)
(0.756239 0.044992 -0.0708923)
(0.784721 0.0381894 0.0215611)
(0.779876 0.0371579 0.104102)
(0.823607 -0.0106224 0.116877)
(0.876451 -0.0629432 0.0254959)
(0.89908 -0.0727222 -0.0199067)
(0.956161 -0.0497016 -0.00710647)
(0.963183 -0.00466149 -0.0961596)
(0.880007 0.041328 -0.11572)
(0.880299 0.0398041 -0.0308081)
(0.898942 -0.00270252 0.0239104)
(0.796316 0.0098587 -0.0458066)
(0.874627 -0.00614636 -0.0796013)
(1.12769 -0.0828046 -0.000601784)
(1.10931 -0.0911746 -0.00637605)
(0.965714 -0.0429822 -0.0949483)
(0.911291 -0.00665847 -0.0429464)
(0.845896 0.0691737 -0.0480802)
(0.860433 0.0679322 -0.036866)
(0.947953 0.0195973 0.0780784)
(0.935406 -0.0125598 0.16942)
(0.967685 -0.0100086 0.0899851)
(1.09944 0.00368269 0.0310127)
(0.977726 -0.0219837 0.0712212)
(0.752283 -0.0126038 0.054811)
(0.701018 0.0594258 -0.0242816)
(0.770496 0.0624739 -0.074089)
(0.856064 0.0482503 -0.0356553)
(0.856159 0.0109683 -0.113639)
(0.84652 -0.0374984 -0.135839)
(0.952405 -0.0517288 -0.0433398)
(1.08632 -0.0671159 -0.0170835)
(1.02928 -0.0388956 -0.0661996)
(0.896081 0.027923 -0.0878239)
(0.878057 0.0630212 -0.0453159)
(0.930492 0.0328563 0.0455295)
(1.01255 -0.0316768 0.0712796)
(1.11076 -0.0271759 -0.0314341)
(1.02183 0.0144321 -0.133612)
(0.889861 0.0142654 -0.0874039)
(0.857947 0.022903 -0.0299583)
(0.871581 0.0494034 -0.0208552)
(0.862197 0.044437 0.00674329)
(0.88073 -0.0179417 0.0721445)
(0.90912 -0.0699765 0.0461525)
(0.939026 -0.0675034 -0.019022)
(0.977924 -0.0501384 0.00189736)
(0.971474 -0.00841371 -0.013036)
(0.938312 0.026228 -0.0700981)
(0.91074 0.01078 -0.0710171)
(0.930534 0.0376617 -0.0261526)
(0.909457 0.0409545 -0.0247185)
(0.89208 -0.00491857 -0.0416217)
(1.06566 -0.061612 -0.0258882)
(1.10788 -0.0676383 -0.0175983)
(0.965072 -0.050586 -0.0727017)
(0.875391 0.0242974 -0.0835195)
(0.829858 0.0863877 -0.0631243)
(0.901062 0.0654481 -0.0313201)
(0.943992 0.0064021 0.0300676)
(0.910845 -0.011815 0.122288)
(0.912532 -0.0117135 0.104095)
(1.03358 0.0062394 0.0104788)
(1.02616 0.0217977 0.0252028)
(0.83288 0.0206448 0.0254143)
(0.712766 0.0515496 -0.0794917)
(0.922592 0.0949213 -0.0303952)
(0.967989 0.0684483 -0.0109474)
(0.952894 0.0260395 -0.109965)
(0.932834 -0.020702 -0.129862)
(0.975865 -0.0581591 -0.0394113)
(1.03945 -0.0764561 -0.0231304)
(0.997189 -0.0447659 -0.0768675)
(0.950091 0.0221462 -0.037668)
(0.98082 0.0478964 0.0424918)
(0.956879 0.00731501 0.07067)
(0.936096 -0.0380646 0.0430364)
(0.998349 -0.0211591 -0.0224203)
(1.01572 0.0204799 -0.0725158)
(0.971721 0.0190149 -0.0678493)
(0.916622 0.0173418 -0.0357327)
(0.91364 0.0430898 -0.0180877)
(0.941616 0.0556082 0.00741059)
(0.953722 0.000934155 0.0385013)
(0.972351 -0.0663852 0.0142604)
(0.994324 -0.0707252 -0.0459963)
(0.993694 -0.0420068 -0.0546322)
(0.964479 -0.0077576 -0.0350408)
(0.93762 0.0227367 -0.0518377)
(0.950807 0.0134739 -0.0431561)
(0.962699 0.0126861 -0.0209306)
(0.949988 0.0460431 -0.0282972)
(0.940948 -0.00987771 -0.0267201)
(1.00724 -0.0802999 -0.0217309)
(1.08874 -0.0556397 -0.0256338)
(1.02141 -0.0178929 -0.0379632)
(0.855391 0.0328505 -0.0777172)
(0.78721 0.0762471 -0.0757949)
(0.889213 0.0572016 -0.0356698)
(0.952808 0.0307665 0.0104259)
(0.968352 -0.00934202 0.0881663)
(0.959506 -0.0416586 0.10286)
(0.973492 -0.0212376 0.00147504)
(1.00962 0.0100966 -0.0225087)
(0.961717 0.0348264 -0.00661836)
(0.896113 0.0750717 -0.0604156)
(1.05741 0.0563737 0.147631)
(1.05604 0.0635482 0.067338)
(1.03788 0.0397142 -0.0833982)
(1.01225 -0.00693744 -0.124617)
(1.02579 -0.0623354 -0.0681152)
(1.07483 -0.0806723 -0.0279973)
(1.05857 -0.023214 -0.025375)
(1.01834 0.0359965 -0.0117302)
(0.994101 0.0330708 0.00112708)
(0.929176 -0.00382254 0.0228984)
(0.899012 -0.0369357 0.0147116)
(0.955605 -0.0308338 -0.0397134)
(1.02087 0.00747941 -0.0431919)
(1.007 0.025941 -0.022728)
(0.939898 0.0266778 -0.0359049)
(0.916929 0.0319836 -0.0454949)
(0.950383 0.0353107 -0.0255471)
(1.00585 0.0119361 0.00750426)
(1.04617 -0.040882 0.014719)
(1.02495 -0.0762739 -0.0397801)
(0.983138 -0.0508578 -0.102342)
(0.952894 -0.0129957 -0.108458)
(0.933514 -0.000100971 -0.073702)
(0.964108 0.0071108 -0.0418629)
(0.984599 0.0277567 -0.0415507)
(0.9617 0.0387521 -0.0573839)
(0.947216 -0.025905 -0.0601217)
(0.969978 -0.0904797 -0.0411579)
(1.03347 -0.0597874 -0.038261)
(1.03408 0.0120977 -0.0450834)
(0.910601 0.0448575 -0.0500113)
(0.829042 0.056007 -0.0373904)
(0.893308 0.0299005 -0.0274368)
(0.980025 0.0290505 -0.0105677)
(1.03253 0.0193269 0.0522361)
(1.04404 -0.0267916 0.0933745)
(1.00393 -0.0258374 0.0283321)
(1.01509 0.0151572 -0.0116439)
(1.06656 0.0154355 0.0508483)
(1.07334 0.0249846 0.111652)
(1.01254 0.0564978 0.0908518)
(1.02075 0.061974 0.037011)
(1.07737 0.0266412 -0.0278227)
(1.0962 -0.0135718 -0.0644345)
(1.08638 -0.0501168 -0.0295605)
(1.10803 -0.0725112 0.014142)
(1.11786 -0.0422758 -0.0120018)
(1.0564 0.0139007 -0.0595665)
(0.977189 0.0380288 -0.0540309)
(0.911763 0.0150538 0.0139341)
(0.895496 -0.0308809 0.065093)
(0.941093 -0.0334917 0.027206)
(0.992256 0.00180972 -0.0219442)
(0.990305 0.0275198 -0.0254871)
(0.956442 0.0444029 -0.0218903)
(0.935891 0.0353626 -0.0459585)
(0.942302 0.0169834 -0.0580663)
(1.00141 0.00245781 -0.0217239)
(1.08333 -0.0144787 0.0148199)
(1.08233 -0.047476 -0.00457396)
(1.01493 -0.0567811 -0.0655296)
(0.997856 -0.0231049 -0.0877305)
(1.00853 -0.00679245 -0.052507)
(0.991006 -0.0223316 -0.0222754)
(0.98551 -0.00225524 -0.0280901)
(1.00414 0.0394026 -0.0519167)
(1.01003 -0.00833345 -0.0646312)
(1.00288 -0.0983754 -0.0499324)
(1.03406 -0.0725789 -0.0328404)
(1.07116 0.0149931 -0.0258576)
(1.00423 0.0850966 -0.0244646)
(0.927428 0.0792086 -0.0438533)
(0.934425 0.0082848 -0.0602506)
(0.978757 0.004264 -0.0436801)
(1.01842 0.0205455 0.00750542)
(1.05893 0.000796242 0.0559769)
(1.09049 5.85111e-05 0.0538256)
(1.10095 0.0102045 0.0499781)
(1.08288 -0.00539097 0.102448)
(1.04924 0.0138901 0.126733)
(0.958967 0.057036 0.0262775)
(0.965532 0.0257754 0.0425)
(1.04696 -0.0233097 0.0386664)
(1.09429 -0.0389359 0.0053638)
(1.09434 -0.0548925 0.00992234)
(1.08902 -0.0903099 0.0189499)
(1.08875 -0.0603512 -0.0158598)
(1.0503 0.0141935 -0.0598127)
(0.995145 0.0400815 -0.0506321)
(0.949133 0.0039835 -0.00497406)
(0.920788 -0.0400385 0.0447949)
(0.933871 -0.0416029 0.054113)
(0.966086 -0.0137742 0.0262296)
(0.964499 0.0123289 -0.00477796)
(0.927389 0.0380285 -0.0359603)
(0.928064 0.0578566 -0.057842)
(0.980914 0.0549757 -0.0679886)
(1.03948 0.0240517 -0.0531774)
(1.09347 -0.00842038 -0.0185424)
(1.11162 -0.0134303 -0.000682028)
(1.06994 -0.002919 -0.0159647)
(1.03505 0.0141394 -0.0351839)
(1.03087 0.0157129 -0.0258203)
(1.01 -0.00342129 -0.0211925)
(0.979029 -0.00639004 -0.0292573)
(0.997403 0.0213722 -0.0441988)
(1.03816 0.0143773 -0.0728126)
(1.05127 -0.0407988 -0.0538366)
(1.06079 -0.0485626 -0.00154555)
(1.09199 -0.00415811 0.000432359)
(1.06216 0.0652486 -0.0418392)
(1.01498 0.0863015 -0.084128)
(1.00341 0.0114249 -0.0838604)
(0.988322 -0.0213251 -0.056192)
(1.01872 -6.04729e-05 -0.0265596)
(1.06098 -0.0178671 0.012949)
(1.09393 -0.0293355 0.0410399)
(1.12936 -0.00763515 0.0677126)
(1.0964 0.010052 0.0983903)
(1.02054 0.036005 0.0680778)
(1.01733 0.0563705 0.0662725)
(1.02094 0.028465 0.0759148)
(1.07402 -0.0339136 0.058567)
(1.12433 -0.0573237 0.0115932)
(1.14705 -0.0447425 -0.00793761)
(1.12012 -0.0509206 -0.00319302)
(1.06914 -0.0423534 -0.0105614)
(1.04419 0.0194993 -0.0205496)
(1.04238 0.0636925 -0.0167878)
(1.01293 0.0452605 0.00313825)
(0.957179 -0.00583236 0.0294726)
(0.935741 -0.0285844 0.0394591)
(0.949541 -0.0120834 0.0235081)
(0.95146 0.00977915 -0.0221999)
(0.939051 0.0305791 -0.0612563)
(0.972525 0.0517796 -0.0582672)
(1.0322 0.0560571 -0.0332603)
(1.05286 0.0333469 -0.0141839)
(1.05769 -0.00845751 -0.00869716)
(1.0736 -0.0339384 -0.00669547)
(1.0724 -0.0184243 -0.0167185)
(1.0464 0.0013287 -0.0416988)
(1.03306 0.000636768 -0.0325213)
(1.02721 -0.00249494 -0.00212219)
(0.998866 0.00756247 -0.0031985)
(1.00012 0.0106489 -0.0377932)
(1.03192 -0.0281605 -0.0841024)
(1.04026 -0.0637319 -0.0822989)
(1.03948 -0.0314568 -0.0319978)
(1.03912 0.0169944 -0.0182132)
(1.0278 0.0517485 -0.0411082)
(1.0391 0.0552739 -0.0607235)
(1.05821 -0.000538475 -0.0597903)
(1.04008 -0.039278 -0.030033)
(1.04241 -0.0324943 0.00956732)
(1.04088 -0.017179 0.0318221)
(1.01437 -0.0124044 0.0351229)
(1.0513 -0.0203225 0.0419444)
(1.09021 -0.0103119 0.0697907)
(1.06062 0.0283647 0.0766081)
(1.09162 0.0327692 0.0974022)
(1.10945 0.0054973 0.1094)
(1.11326 -0.0338672 0.101892)
(1.11176 -0.0489351 0.0640296)
(1.1166 -0.0460683 0.0184185)
(1.11206 -0.0488803 -0.00931813)
(1.09694 -0.0372187 -0.00960466)
(1.08999 0.00153858 -0.00593179)
(1.06572 0.0341134 -0.00757254)
(0.996069 0.0288273 0.00485317)
(0.917025 0.000839161 0.0246604)
(0.884626 -0.0116706 0.0243786)
(0.901189 0.00203097 0.00400449)
(0.923448 0.0207001 -0.0348058)
(0.944171 0.0343225 -0.0599563)
(0.988043 0.0471035 -0.0367839)
(1.02958 0.0574241 -0.00248557)
(1.02436 0.0500495 0.00033823)
(0.987848 0.0147222 -0.0198379)
(0.965482 -0.0141709 -0.0357388)
(0.98269 -0.0140956 -0.0497376)
(1.00502 -0.00891976 -0.0693499)
(1.01862 -0.0113011 -0.0469716)
(1.03316 -0.00734683 -0.00175314)
(1.02775 0.00422228 -0.0010954)
(1.04175 0.00123454 -0.0278311)
(1.06338 -0.0348788 -0.0559661)
(1.03008 -0.0549454 -0.0619555)
(1.01297 -0.0195528 -0.0279787)
(1.02406 0.0203012 -0.00498646)
(1.01865 0.039169 -0.0087281)
(1.02664 0.0327939 -0.0211538)
(1.02635 -0.0116819 -0.0351578)
(1.00075 -0.0331004 -0.0247534)
(1.00016 -0.0276491 0.00481204)
(0.9969 -0.0165145 0.00762617)
(0.961787 0.00353488 -0.00175378)
(0.959508 0.00359755 0.0199926)
(1.00975 0.000818199 0.0613937)
(1.06073 0.0217027 0.0871241)
(1.06779 -0.00376653 0.0970792)
(1.10743 -0.00992178 0.116603)
(1.11363 -0.0344437 0.114238)
(1.11066 -0.0463881 0.0903326)
(1.09541 -0.0390488 0.0515957)
(1.0562 -0.0298701 0.00926295)
(1.02851 -0.00541198 -0.00509157)
(1.02251 0.0512502 -0.00489221)
(1.01487 0.0956279 -0.00388356)
(0.999271 0.0773668 0.0155376)
(0.96335 0.0219134 0.041498)
(0.926152 -0.0114863 0.0480389)
(0.916924 -0.00893229 0.0372012)
(0.927073 0.00319551 0.0137089)
(0.934689 0.0178919 -0.0134407)
(0.938776 0.0368271 -0.0181778)
(0.955394 0.0513678 -0.0075534)
(0.978695 0.0551444 -0.00440147)
(0.989917 0.0295914 -0.00940249)
(0.970924 -0.009946 -0.00999248)
(0.963889 -0.0176414 -0.00678393)
(0.991899 -0.00833594 -0.0225266)
(1.02317 -0.0147507 -0.0263754)
(1.0486 -0.0181961 -0.00917581)
(1.05485 -0.0172007 -0.0148567)
(1.05534 -0.0204779 -0.0270607)
(1.05628 -0.0285562 -0.0346746)
(1.0117 -0.0365401 -0.0442281)
(0.983343 -0.00633399 -0.0280375)
(1.02244 0.0309094 -0.00871871)
(1.03858 0.0394465 -0.00301477)
(1.02007 0.0290994 0.004179)
(1.00113 -0.0140387 -0.00628324)
(0.977135 -0.047077 -0.0195759)
(0.98764 -0.0388015 -0.00980986)
(1.00979 -0.0209916 -0.018178)
(0.986082 -0.00647214 -0.0368405)
(0.946819 -0.00466796 -0.0192264)
(0.94752 -0.0164218 0.024531)
(1.00035 -0.0166804 0.0676542)
(0.984265 -0.0340121 0.0388663)
(1.04471 -0.0432572 0.0613512)
(1.10186 -0.056167 0.0693425)
(1.13693 -0.0536499 0.0647145)
(1.13619 -0.0339877 0.0411366)