/*--------------------------------*- C++ -*----------------------------------*\
  =========                 |
  \\      /  F ield         | OpenFOAM: The Open Source CFD Toolbox
   \\    /   O peration     | Website:  https://openfoam.org
    \\  /    A nd           | Version:  10
     \\/     M anipulation  |
\*---------------------------------------------------------------------------*/
FoamFile
{
    format      ascii;
    class       volScalarField;
    location    "27.5";
    object      nut;
}
// * * * * * * * * * * * * * * * * * * * * * * * * * * * * * * * * * * * * * //

dimensions      [0 2 -1 0 0 0 0];

internalField   nonuniform List<scalar> 
25600
(
4.90228e-18
1.405e-17
5.46387e-17
1.14995e-15
2.83192e-17
7.84889e-16
2.12581e-16
6.49388e-17
4.72566e-16
5.41534e-16
6.18333e-19
1.17391e-19
1.15156e-17
6.15604e-17
1.00788e-16
1.31153e-16
7.32259e-18
1.00032e-18
5.14737e-19
1.22562e-17
1.653e-17
1.78597e-18
6.44866e-17
3.06273e-18
1.19395e-16
2.00841e-17
1.79953e-16
4.62352e-17
2.93685e-18
5.71881e-18
1.4037e-18
1.68523e-19
1.68518e-19
4.17073e-18
9.88825e-20
6.88308e-19
1.19274e-20
2.70503e-18
1.07123e-16
2.74724e-17
7.26197e-18
1.33751e-16
2.87625e-16
1.23513e-16
1.43269e-18
7.37984e-18
2.02247e-16
4.70136e-16
2.86979e-16
2.86114e-17
1.60027e-17
6.84576e-17
4.09969e-16
1.94421e-16
2.4275e-17
9.65017e-19
1.1703e-17
5.43405e-17
6.25343e-18
1.99575e-17
1.06607e-16
1.41529e-17
2.19959e-18
5.51255e-17
1.22423e-17
5.51453e-18
1.11914e-16
1.54104e-16
1.32164e-17
3.54506e-19
1.19616e-17
7.98205e-18
1.54707e-18
6.31263e-19
2.40313e-20
6.03625e-21
2.07705e-19
1.06573e-17
2.65049e-17
4.66266e-18
2.19519e-17
9.81084e-17
1.45696e-16
2.36135e-16
5.37663e-17
3.2685e-17
4.81592e-16
4.85467e-16
2.55738e-17
4.83071e-18
3.93397e-17
5.36641e-16
7.88876e-16
6.76677e-17
3.00866e-16
3.31888e-17
1.70683e-18
1.47825e-16
2.16039e-16
1.5572e-18
2.88703e-18
1.21612e-17
8.45549e-19
1.32154e-17
2.06168e-17
2.82391e-18
7.98761e-17
1.82763e-16
1.3713e-17
6.57616e-19
5.46709e-18
4.1668e-17
2.33469e-17
5.90203e-18
1.0148e-19
4.72438e-19
3.28136e-18
1.39136e-17
1.54108e-18
2.60604e-18
2.84823e-17
1.86131e-17
1.74069e-18
6.14085e-17
6.58749e-17
1.46859e-16
4.80889e-16
1.44722e-16
8.6855e-18
2.54825e-18
1.55384e-16
6.96846e-16
3.24579e-16
4.66403e-18
6.06436e-16
2.0676e-16
2.02674e-17
2.6437e-17
5.20095e-16
6.64411e-17
1.38359e-18
1.15085e-18
1.60561e-19
2.29283e-18
1.23017e-17
3.85171e-18
2.47186e-17
1.4989e-16
7.00705e-17
9.44784e-19
3.75234e-19
4.37188e-17
5.85987e-17
9.65334e-18
8.95041e-20
8.19519e-19
1.29612e-17
9.05503e-18
3.76114e-20
1.65733e-18
2.28889e-17
5.47208e-17
4.13799e-17
1.8662e-17
3.14293e-17
1.58304e-16
9.91604e-17
1.29151e-17
3.57065e-18
2.83513e-17
3.21905e-16
4.35783e-16
6.91707e-17
6.44064e-19
3.97086e-16
4.62714e-16
4.20394e-17
4.16275e-18
2.69889e-16
2.27464e-16
6.00909e-19
4.46354e-19
3.49458e-20
3.41078e-19
3.33406e-18
4.06077e-18
7.59823e-18
4.54959e-17
8.83487e-17
3.77584e-18
2.74293e-18
3.26043e-17
6.91403e-17
4.96683e-18
4.39477e-20
3.99932e-18
2.41032e-17
2.71891e-18
2.15701e-20
3.02601e-18
8.52254e-18
9.68824e-17
1.23478e-16
6.27818e-17
2.87219e-17
6.22594e-17
3.34295e-18
1.65909e-19
1.34219e-17
9.76202e-17
2.99551e-16
1.50956e-16
3.73343e-17
1.21969e-18
1.66269e-16
6.28725e-16
1.12039e-16
8.2449e-18
5.69994e-17
3.2771e-16
5.69494e-18
3.62498e-19
1.97806e-19
1.58014e-19
6.77491e-19
3.01284e-18
9.74754e-19
4.20738e-18
4.19415e-17
8.11925e-18
7.8316e-18
1.39365e-17
7.48318e-17
4.97977e-18
2.71155e-21
1.09792e-17
2.43497e-17
5.06795e-19
4.0577e-19
1.21924e-17
1.83811e-18
7.68705e-17
1.72531e-16
1.57416e-16
1.79981e-17
1.26362e-17
2.23243e-18
9.95845e-18
1.26483e-16
9.95553e-17
1.22011e-16
5.70529e-17
9.58327e-17
8.86911e-18
8.45562e-17
6.02988e-16
3.14687e-16
6.16513e-18
6.63201e-18
3.11236e-16
3.21816e-17
1.77569e-19
4.74201e-19
9.22111e-19
2.41394e-19
1.85061e-18
6.33599e-19
1.57051e-18
1.76179e-17
1.11292e-17
9.37346e-18
2.46814e-18
8.41203e-17
5.87106e-18
2.50555e-20
1.22992e-17
1.65922e-17
8.41221e-20
2.30207e-18
2.30736e-17
8.2621e-19
4.21874e-17
1.23757e-16
2.30225e-16
4.70909e-18
1.44846e-18
1.0778e-18
5.50515e-17
2.98852e-16
3.35686e-17
3.2122e-17
3.89824e-17
2.31846e-16
3.13626e-17
5.246e-17
4.08841e-16
5.31843e-16
2.27673e-17
9.97542e-19
2.38931e-16
7.00743e-17
1.40014e-19
2.30147e-18
5.99345e-18
1.8091e-20
7.43655e-19
1.06144e-18
1.4512e-17
2.09049e-17
1.04298e-17
6.91352e-18
5.81386e-19
9.95317e-17
6.51283e-18
1.39427e-19
6.98609e-18
1.30331e-17
1.2029e-19
1.54996e-17
4.40146e-17
1.5731e-18
5.09149e-17
6.64529e-17
3.8363e-16
4.88195e-18
2.1917e-19
1.81705e-18
9.11373e-17
4.55665e-16
3.16571e-18
1.16244e-17
1.61316e-17
5.9289e-16
6.54452e-17
3.83707e-17
2.17246e-16
5.60311e-16
1.60724e-16
3.66241e-19
1.56873e-16
9.23421e-17
5.5277e-19
4.77448e-18
1.98199e-17
9.43436e-20
1.70767e-19
8.04258e-19
1.66053e-17
2.86937e-17
8.06521e-18
4.50925e-18
8.39142e-19
1.35945e-16
1.96132e-17
3.02367e-19
2.55422e-18
1.56544e-17
1.15253e-18
6.76926e-17
7.33475e-17
7.14808e-18
1.4569e-16
3.49088e-17
8.73151e-16
9.12499e-18
2.61719e-18
2.69232e-17
4.54328e-17
5.7603e-16
9.41957e-19
1.91965e-17
8.24686e-18
1.6337e-15
1.41129e-16
4.07108e-17
9.08921e-17
2.85033e-16
8.10284e-16
1.10662e-18
1.119e-16
9.35408e-17
1.44655e-18
5.3066e-18
3.48532e-17
2.11473e-18
1.74497e-19
2.03464e-18
4.79151e-18
5.58943e-17
1.89028e-17
5.71957e-18
1.70881e-18
2.74448e-16
1.13155e-16
8.09146e-19
1.5681e-17
1.61495e-17
1.47179e-17
2.49296e-16
5.2926e-17
9.42894e-17
1.1196e-15
3.55829e-17
2.01171e-15
4.09608e-18
1.75159e-16
3.47512e-16
4.60265e-17
8.0051e-16
4.56348e-17
2.35233e-16
4.49583e-16
4.97728e-15
4.37401e-16
9.01438e-17
2.25323e-16
2.53218e-17
2.95644e-15
1.33209e-17
3.5627e-16
6.24254e-17
6.91902e-17
3.01816e-17
9.13604e-17
9.41917e-17
6.58092e-18
3.66307e-17
7.14799e-19
2.61417e-16
5.32906e-16
1.94047e-17
5.92274e-17
7.51026e-16
8.27902e-16
2.74511e-17
3.33064e-16
1.30671e-18
1.66161e-16
1.30779e-15
5.01175e-19
4.15553e-15
2.13786e-14
4.5335e-16
6.02222e-15
1.65846e-15
7.51165e-15
1.06418e-14
4.56888e-15
3.50095e-15
5.54972e-15
7.3727e-15
1.51339e-14
2.21983e-14
3.54264e-15
4.0321e-15
9.00334e-15
4.23008e-15
8.97478e-15
3.07435e-16
1.11542e-14
4.31732e-16
4.19979e-15
3.1339e-16
1.07722e-15
8.75354e-15
1.00301e-15
1.66869e-15
2.88688e-16
3.58649e-15
3.53473e-14
6.69303e-16
2.43031e-15
2.72476e-15
1.25772e-14
4.0231e-15
1.04029e-14
2.05534e-15
1.50604e-15
1.15104e-14
3.54035e-15
2.70782e-13
6.34076e-13
1.39387e-14
5.38944e-14
3.22748e-13
3.44071e-13
4.51993e-13
1.6078e-13
4.54676e-14
4.78692e-13
3.1333e-13
4.90759e-13
2.5556e-13
6.57372e-14
4.37451e-13
4.62489e-13
2.90885e-13
1.13976e-13
2.16733e-14
6.2583e-13
9.88836e-14
2.0149e-13
1.14507e-14
3.70707e-14
8.50088e-13
1.35244e-13
9.14297e-14
1.15021e-14
8.10238e-14
2.24124e-12
8.97995e-14
1.04249e-13
3.20166e-14
2.58452e-13
6.11842e-13
4.90539e-13
2.18721e-13
3.02598e-14
1.6944e-13
5.41632e-13
1.9831e-11
4.03694e-11
4.24281e-12
5.07665e-12
3.56031e-11
2.44295e-11
3.21309e-11
1.47703e-11
3.03455e-12
4.20596e-11
1.77987e-11
4.69706e-11
1.90503e-11
5.31049e-12
4.06793e-11
3.39017e-11
2.2047e-11
2.32117e-11
4.08587e-12
4.79752e-11
1.74434e-11
2.18473e-11
4.91865e-12
7.14931e-12
7.5282e-11
1.76341e-11
1.07571e-11
4.49819e-12
4.4883e-12
1.32681e-10
8.87987e-12
1.70497e-11
4.53765e-12
1.12017e-11
6.08106e-11
2.72118e-11
1.78116e-11
8.96381e-12
7.64728e-12
4.78024e-11
7.15072e-09
1.0879e-08
1.7218e-09
3.19941e-09
4.37782e-09
9.65477e-09
1.01639e-08
4.35641e-09
2.34237e-09
7.26318e-09
5.45686e-09
1.64748e-08
3.78882e-09
3.82437e-09
5.62535e-09
1.08933e-08
7.08748e-09
5.9963e-09
2.96479e-09
7.37791e-09
7.36713e-09
7.40574e-09
1.76396e-09
4.73359e-09
7.78713e-09
8.37721e-09
4.49591e-09
2.21387e-09
2.75301e-09
1.18897e-08
3.28627e-09
9.54446e-09
1.35045e-09
4.41887e-09
6.34811e-09
8.55606e-09
5.79534e-09
3.36338e-09
3.02412e-09
6.01461e-09
4.58722e-08
1.73588e-08
1.12547e-08
4.23096e-08
2.92527e-08
3.32159e-08
2.54696e-08
1.05298e-08
4.62008e-08
2.55507e-08
2.71031e-08
2.09908e-08
1.34354e-08
4.06806e-08
3.43941e-08
3.03593e-08
1.71324e-08
1.34639e-08
4.92784e-08
2.92243e-08
3.50117e-08
1.22666e-08
1.24675e-08
5.32894e-08
4.23511e-08
3.21603e-08
1.53288e-08
1.05441e-08
7.32535e-08
5.63256e-08
3.6624e-08
2.45841e-08
1.20447e-08
7.61639e-08
5.1556e-08
4.21489e-08
1.95101e-08
1.50576e-08
7.48116e-08
3.33745e-08
1.30763e-08
1.0685e-09
4.53162e-09
1.28655e-08
1.05032e-08
1.08652e-08
1.72736e-09
3.27288e-09
1.35403e-08
8.27052e-09
9.59436e-09
1.4343e-09
4.44978e-09
1.20979e-08
1.11462e-08
9.55372e-09
1.05167e-09
4.27166e-09
1.58119e-08
9.45936e-09
1.2269e-08
8.90083e-10
5.65204e-09
1.78314e-08
1.45222e-08
1.08479e-08
1.04082e-09
3.93515e-09
2.00949e-08
1.61614e-08
1.24626e-08
1.9001e-09
6.31796e-09
2.09537e-08
1.57118e-08
1.30266e-08
1.29351e-09
5.3479e-09
1.99942e-08
1.03608e-08
2.27957e-09
3.01047e-12
2.31611e-09
2.62949e-09
3.9896e-09
2.12063e-09
6.5494e-13
1.82117e-09
2.76982e-09
2.93347e-09
2.02059e-09
1.42137e-12
2.50194e-09
2.61644e-09
3.84316e-09
1.81357e-09
5.93551e-12
2.18746e-09
3.40107e-09
3.22281e-09
2.57731e-09
1.2956e-11
3.10189e-09
3.74135e-09
4.9495e-09
2.21959e-09
1.80373e-11
2.12152e-09
3.88618e-09
4.85274e-09
2.43173e-09
1.2418e-11
3.16624e-09
4.01991e-09
5.0259e-09
2.41577e-09
2.0745e-12
2.57942e-09
3.69242e-09
3.56144e-09
4.39431e-11
2.86002e-10
6.74271e-10
6.97544e-10
1.02998e-09
4.65267e-11
2.7886e-10
6.35038e-10
6.57078e-10
7.51456e-10
8.11376e-11
2.96356e-10
8.83463e-10
6.75095e-10
8.97462e-10
5.97825e-11
3.54186e-10
7.45478e-10
8.19159e-10
7.84196e-10
9.91912e-11
3.50613e-10
9.72276e-10
8.60597e-10
1.15381e-09
8.65108e-11
3.70816e-10
7.73379e-10
8.25367e-10
1.13948e-09
4.3879e-11
2.75584e-10
7.85393e-10
9.69197e-10
1.20814e-09
5.17561e-11
3.14443e-10
6.90652e-10
8.67228e-10
8.5631e-10
4.99293e-11
2.41362e-10
1.57117e-10
1.69074e-10
3.67262e-11
8.50678e-11
2.60599e-10
1.64163e-10
1.28993e-10
3.21491e-11
1.37634e-10
2.96476e-10
2.24153e-10
1.30528e-10
3.69653e-11
1.118e-10
3.32902e-10
2.04233e-10
1.56111e-10
3.84025e-11
1.10346e-10
3.30791e-10
2.41459e-10
1.66973e-10
5.57164e-11
9.1748e-11
2.93832e-10
1.80222e-10
1.77028e-10
6.14101e-11
4.52736e-11
2.48456e-10
1.52117e-10
2.16089e-10
4.9222e-11
5.16724e-11
2.27939e-10
1.64056e-10
1.99875e-10
2.86844e-11
6.90967e-11
4.9003e-11
2.82407e-11
1.0389e-11
2.68718e-11
1.10617e-10
5.38455e-11
3.03499e-11
1.00864e-11
3.70813e-11
1.37571e-10
6.55882e-11
3.70699e-11
1.03801e-11
4.16751e-11
1.16222e-10
7.51025e-11
3.44782e-11
1.34206e-11
4.11047e-11
1.01071e-10
6.79181e-11
3.77986e-11
1.09779e-11
4.07461e-11
6.73511e-11
5.2585e-11
2.73756e-11
1.28226e-11
1.64632e-11
5.71912e-11
4.80466e-11
3.62798e-11
1.18571e-11
1.061e-11
7.13557e-11
3.63424e-11
3.5947e-11
9.36299e-12
2.18276e-11
1.44396e-11
8.40641e-12
5.48388e-12
1.57472e-11
3.00866e-11
2.34612e-11
8.92558e-12
1.07433e-11
1.60283e-11
3.67988e-11
2.40636e-11
1.10956e-11
8.25833e-12
2.16856e-11
2.99744e-11
2.18965e-11
1.10813e-11
6.68861e-12
1.72206e-11
2.81843e-11
1.44323e-11
9.35304e-12
5.10654e-12
1.09779e-11
2.48034e-11
9.39438e-12
7.95157e-12
3.87876e-12
7.92114e-12
1.45739e-11
1.06935e-11
6.66322e-12
4.32698e-12
1.11842e-11
1.34754e-11
1.70891e-11
4.89771e-12
5.9295e-12
9.95811e-12
2.52328e-11
3.22793e-12
5.80997e-12
4.78351e-12
1.06382e-11
6.89749e-12
5.21122e-12
5.24305e-12
7.5276e-12
8.99274e-12
8.96366e-12
4.13648e-12
5.75898e-12
4.91835e-12
1.22688e-11
4.83713e-12
5.06777e-12
3.8285e-12
4.06359e-12
8.07548e-12
4.5951e-12
2.92302e-12
3.62008e-12
2.61566e-12
7.09215e-12
3.48406e-12
2.57729e-12
3.07671e-12
2.34494e-12
5.73064e-12
3.36067e-12
2.82984e-12
2.73788e-12
2.8958e-12
8.26722e-12
3.65954e-12
4.24622e-12
3.04796e-12
4.96413e-12
6.39048e-12
7.32078e-12
1.39568e-12
3.52837e-12
1.83914e-12
3.45118e-12
1.7812e-12
2.55993e-12
2.52228e-12
2.5401e-12
2.99097e-12
2.08879e-12
1.80071e-12
2.85081e-12
1.59625e-12
3.79609e-12
1.12278e-12
2.23255e-12
1.48966e-12
1.72716e-12
2.03e-12
1.53094e-12
1.16051e-12
1.76929e-12
1.22284e-12
2.1203e-12
1.05406e-12
1.52165e-12
1.22038e-12
1.52449e-12
1.97763e-12
1.19146e-12
1.71103e-12
1.68318e-12
1.3274e-12
3.17533e-12
1.14941e-12
2.07093e-12
2.19982e-12
1.78933e-12
2.42381e-12
2.46346e-12
5.99108e-13
1.34817e-12
5.64944e-13
1.24203e-12
6.65284e-13
1.07964e-12
7.98679e-13
9.01777e-13
1.00004e-12
6.43233e-13
8.66602e-13
9.86431e-13
4.97799e-13
1.39678e-12
3.63634e-13
9.30368e-13
5.5217e-13
6.09057e-13
7.47008e-13
6.84782e-13
3.81589e-13
8.98255e-13
3.87137e-13
7.90276e-13
5.50741e-13
5.85802e-13
4.72661e-13
7.10939e-13
6.22678e-13
6.04777e-13
7.38266e-13
6.85392e-13
4.16806e-13
1.40713e-12
3.79271e-13
9.93652e-13
7.85791e-13
5.74074e-13
1.06566e-12
8.50319e-13
2.23197e-13
4.74128e-13
2.03643e-13
4.95116e-13
2.31401e-13
3.94593e-13
2.82368e-13
3.19499e-13
3.49149e-13
2.48024e-13
3.07985e-13
3.29298e-13
1.67949e-13
5.22035e-13
1.19752e-13
3.43089e-13
1.92301e-13
2.09147e-13
2.88976e-13
2.39556e-13
1.30805e-13
3.59583e-13
1.08221e-13
3.72315e-13
1.85749e-13
1.97013e-13
2.11151e-13
2.26883e-13
2.35414e-13
2.43173e-13
2.57531e-13
2.52858e-13
1.31475e-13
6.55493e-13
1.08042e-13
4.28456e-13
2.57934e-13
2.32639e-13
3.72622e-13
3.31376e-13
6.13478e-14
1.94833e-13
7.31528e-14
1.74929e-13
7.82119e-14
1.4496e-13
9.10014e-14
1.0385e-13
1.31927e-13
7.72315e-14
9.05794e-14
1.21675e-13
4.08744e-14
2.02931e-13
3.5569e-14
1.02281e-13
6.75422e-14
6.39444e-14
9.86921e-14
8.26535e-14
3.8578e-14
1.29698e-13
3.47436e-14
1.43496e-13
5.84765e-14
7.66628e-14
7.32684e-14
7.38855e-14
1.03206e-13
7.67257e-14
9.66077e-14
9.12874e-14
4.54348e-14
2.74189e-13
3.12783e-14
1.77573e-13
9.11434e-14
8.65264e-14
1.24208e-13
1.5071e-13
1.36853e-14
8.4254e-14
1.97128e-14
5.97554e-14
2.49263e-14
4.42932e-14
2.6793e-14
3.06509e-14
4.40939e-14
1.90755e-14
2.58878e-14
4.03212e-14
7.56335e-15
8.83849e-14
7.37306e-15
2.94073e-14
2.52991e-14
1.62794e-14
3.5397e-14
2.95403e-14
9.58329e-15
5.29617e-14
1.01459e-14
5.29535e-14
2.18564e-14
2.6869e-14
2.48132e-14
2.6335e-14
4.1877e-14
2.25474e-14
3.86517e-14
3.31194e-14
1.37185e-14
1.10781e-13
9.56738e-15
6.03542e-14
3.54977e-14
2.67618e-14
4.37044e-14
6.1681e-14
2.37562e-15
3.2385e-14
4.13498e-15
1.90699e-14
6.41131e-15
1.1754e-14
7.39561e-15
6.97976e-15
1.45785e-14
3.89736e-15
6.71456e-15
1.29301e-14
1.11082e-15
3.8231e-14
1.0675e-15
9.08178e-15
9.52866e-15
3.51098e-15
1.38066e-14
1.05222e-14
2.00508e-15
2.28708e-14
2.40757e-15
1.97216e-14
8.0989e-15
8.11744e-15
8.32217e-15
8.34753e-15
1.6041e-14
5.77289e-15
1.47891e-14
1.10529e-14
2.97038e-15
4.55751e-14
2.21742e-15
1.71859e-14
1.46405e-14
5.86528e-15
1.55713e-14
2.12581e-14
2.14697e-16
1.06331e-14
6.06344e-16
5.12126e-15
1.37513e-15
2.57446e-15
1.82684e-15
1.14318e-15
5.13858e-15
4.87506e-16
1.67092e-15
4.09679e-15
8.15456e-17
1.58183e-14
8.81247e-17
2.53715e-15
3.51067e-15
4.78597e-16
5.28925e-15
3.22415e-15
2.63237e-16
8.92263e-15
3.4091e-16
6.49394e-15
2.52311e-15
1.81743e-15
2.39277e-15
1.93749e-15
5.47269e-15
9.54355e-16
5.00265e-15
2.85182e-15
3.3123e-16
1.77302e-14
2.68268e-16
4.09331e-15
5.56823e-15
6.74838e-16
5.17786e-15
5.95923e-15
2.87993e-18
2.60102e-15
5.03268e-17
8.26061e-16
2.51839e-16
3.26488e-16
3.80098e-16
7.29725e-17
1.6012e-15
1.83534e-17
2.71004e-16
1.15536e-15
2.22919e-17
5.21894e-15
2.60017e-18
2.88841e-16
1.24663e-15
8.12198e-18
1.4281e-15
7.82221e-16
4.07314e-18
2.53953e-15
1.21406e-17
1.24751e-15
6.1728e-16
1.79839e-16
4.55953e-16
2.06837e-16
1.38786e-15
4.73844e-17
1.14095e-15
5.2237e-16
2.60258e-18
5.45961e-15
9.0548e-18
4.58535e-16
1.85499e-15
9.33656e-18
1.11785e-15
1.4073e-15
4.40825e-17
3.79109e-16
9.85468e-19
2.41701e-17
3.39364e-17
5.28507e-18
4.73175e-17
8.21128e-20
3.61635e-16
4.85797e-19
8.51793e-18
2.41363e-16
1.20432e-16
1.16124e-15
3.19275e-19
3.97402e-20
4.08993e-16
2.49054e-17
1.89514e-16
1.26717e-16
2.64742e-17
4.44155e-16
1.12379e-18
4.86574e-17
1.1451e-16
7.0235e-20
3.46477e-17
9.46094e-19
1.87605e-16
9.4181e-19
1.12e-16
6.09953e-17
6.19323e-17
1.19116e-15
4.75307e-19
1.34209e-19
5.31602e-16
2.27461e-17
8.27481e-17
2.56243e-16
8.16181e-18
3.5745e-17
1.17731e-16
4.63216e-16
7.89111e-17
3.88972e-16
2.07346e-16
3.40905e-17
8.08642e-16
6.85887e-16
2.5011e-17
6.62399e-20
1.88961e-18
3.03372e-17
2.53956e-16
2.70038e-16
9.01222e-18
7.48049e-19
2.22192e-18
4.29359e-17
1.63958e-17
2.90417e-18
8.03116e-17
2.61654e-17
1.34087e-16
1.50571e-18
2.08794e-16
3.5971e-17
2.56638e-18
2.22418e-18
6.20241e-19
4.84025e-19
4.99668e-19
2.8066e-18
2.1321e-20
1.69152e-20
8.00145e-20
6.30127e-18
1.01463e-16
1.82335e-17
3.80187e-17
3.51906e-16
6.80923e-16
2.79114e-16
1.04612e-17
1.92418e-18
1.46675e-16
4.16051e-16
5.35387e-16
5.68554e-17
8.45108e-18
1.90576e-17
2.4523e-16
1.92799e-16
5.35435e-17
1.42038e-17
2.86258e-17
6.36387e-17
3.58272e-18
5.1125e-17
2.62212e-16
3.69601e-17
2.82731e-18
1.0752e-16
2.7062e-17
1.40356e-18
1.46664e-16
1.92716e-16
2.68137e-17
1.37153e-18
5.32303e-18
9.6405e-18
2.60729e-18
7.09917e-19
2.1051e-19
3.39361e-20
9.53751e-19
1.43284e-17
2.05731e-17
3.61313e-18
4.49204e-17
2.0036e-16
3.87754e-16
6.45234e-16
1.99378e-16
5.4855e-18
4.21958e-16
6.83626e-16
9.74387e-17
1.28821e-18
1.67502e-17
3.79071e-16
9.99711e-16
1.35279e-16
1.35188e-16
8.87347e-18
5.60897e-18
3.47657e-16
2.3889e-16
5.87512e-19
1.17554e-17
4.25964e-17
1.53366e-18
2.88498e-17
3.08608e-17
3.12308e-18
9.83382e-17
1.80471e-16
1.0233e-17
1.2168e-18
1.52356e-18
4.8206e-17
2.77684e-17
5.87781e-18
2.39806e-19
8.46685e-19
5.53791e-18
9.86035e-18
5.39153e-19
5.27306e-18
4.09312e-17
1.58477e-17
5.27938e-18
1.59319e-16
1.95679e-16
7.54578e-17
6.08523e-16
2.83621e-16
2.08683e-17
4.77864e-19
5.34092e-17
7.77415e-16
6.12864e-16
1.32489e-17
4.20471e-16
2.33199e-16
1.23661e-17
1.25758e-16
8.03496e-16
8.22236e-17
6.30123e-19
1.85355e-18
4.26556e-19
3.77595e-18
1.46997e-17
7.47275e-18
6.77737e-17
1.29586e-16
1.12894e-16
3.87524e-18
2.19981e-19
4.62693e-17
6.62641e-17
9.52699e-18
3.1957e-20
1.48668e-18
1.88854e-17
5.13871e-18
1.66384e-19
7.99752e-18
4.35114e-17
1.36642e-16
5.76785e-17
1.26275e-17
7.04137e-17
1.23607e-16
1.86056e-16
2.8375e-17
7.61811e-18
1.33861e-17
1.55303e-16
6.4963e-16
2.01348e-16
3.76136e-19
3.66479e-16
6.73035e-16
4.557e-17
3.52453e-18
3.97667e-16
3.16575e-16
1.09962e-18
5.87011e-19
7.62719e-20
1.88177e-19
4.79554e-18
6.57098e-18
3.90261e-17
3.75448e-17
1.5277e-16
1.16865e-17
6.39484e-19
4.03398e-17
7.34776e-17
4.32115e-18
1.96327e-20
3.91363e-18
3.85748e-17
1.99512e-18
6.83135e-20
5.38289e-18
1.64372e-17
3.61977e-16
3.13679e-16
4.46723e-17
7.03909e-17
5.10214e-17
1.68306e-17
2.44993e-19
8.01529e-18
1.29301e-16
1.89891e-16
3.07076e-16
6.34099e-17
3.56217e-19
1.27248e-16
1.13555e-15
1.52781e-16
2.95496e-18
6.3779e-17
3.95608e-16
1.91057e-17
3.04928e-19
4.69284e-19
7.28764e-20
2.69908e-18
3.32027e-18
8.50873e-18
2.4983e-18
7.81532e-17
1.75296e-17
2.94334e-18
3.14622e-17
5.54062e-17
2.77246e-18
1.4833e-21
8.39882e-18
5.2848e-17
4.94128e-19
6.43706e-19
8.04858e-18
3.4208e-18
4.87832e-16
7.02918e-16
1.56737e-16
1.19362e-16
1.09192e-17
9.22708e-18
4.29148e-18
1.19469e-16
2.78228e-16
1.0336e-16
1.32923e-16
4.36513e-17
3.0196e-18
3.31791e-17
1.31677e-15
5.17692e-16
2.58269e-18
3.63506e-18
2.99799e-16
1.09594e-16
2.81714e-19
6.51355e-19
2.54338e-19
4.56716e-18
1.03433e-18
1.73589e-18
8.76453e-19
2.92222e-17
4.18307e-17
4.28918e-18
1.35729e-17
3.38062e-17
4.77862e-18
3.40424e-19
9.91666e-18
6.07444e-17
1.27242e-19
1.91991e-18
6.79291e-18
1.10166e-18
4.14546e-16
7.13684e-16
1.50191e-16
1.39973e-16
3.26864e-18
8.25947e-18
1.37729e-17
2.78277e-16
2.73276e-16
4.11988e-17
1.16073e-16
5.4809e-17
1.11292e-17
2.92778e-17
1.23477e-15
1.27027e-15
4.4187e-18
1.14963e-20
1.5167e-16
2.33744e-16
5.06998e-18
1.16724e-18
4.65587e-19
9.0066e-18
5.42575e-19
1.02156e-17
1.76518e-17
2.4763e-17
1.51456e-16
2.34851e-18
3.74299e-18
1.87119e-17
7.30146e-18
8.27277e-18
1.1695e-17
7.88248e-17
2.95539e-19
4.45302e-18
3.08365e-18
8.44883e-18
3.13754e-16
5.15331e-16
5.11214e-17
1.59814e-16
7.00652e-18
8.00495e-18
2.45528e-17
3.44887e-16
2.61549e-16
5.18254e-17
1.54313e-16
6.14026e-17
2.13145e-17
4.11685e-17
1.03057e-15
2.5524e-15
1.20834e-17
7.9945e-19
6.12086e-17
2.78362e-16
4.0221e-17
4.34544e-18
5.94201e-19
3.81351e-17
9.17557e-19
3.17533e-17
2.65664e-17
1.35037e-17
4.42297e-16
3.45808e-19
7.97707e-19
7.67034e-18
1.73046e-17
9.32556e-17
2.40785e-17
1.46111e-16
1.44707e-18
7.51726e-18
6.13281e-18
1.62465e-16
2.55673e-16
4.82929e-16
1.82122e-17
4.92606e-16
6.24346e-17
2.57676e-17
2.70427e-17
2.05506e-16
3.75835e-16
1.03709e-16
2.70208e-16
5.53883e-17
6.77696e-17
7.82393e-17
7.48232e-16
4.38202e-15
1.60418e-17
1.65354e-17
3.83198e-17
2.27046e-16
1.90225e-16
1.32447e-17
9.66239e-19
2.2928e-16
7.78578e-18
1.14797e-16
2.16246e-17
7.21092e-18
1.68187e-15
1.29731e-18
5.79013e-18
1.77568e-18
1.00667e-16
9.32645e-16
1.29536e-16
3.44188e-16
5.39003e-18
1.14693e-17
7.85602e-17
2.55553e-15
3.5499e-16
6.77095e-16
3.22461e-17
3.14313e-15
9.95681e-16
2.07146e-16
3.75589e-17
9.81412e-17
1.0746e-15
3.98694e-16
8.36992e-16
2.87048e-17
4.60854e-16
5.93445e-16
1.46525e-15
6.70937e-15
6.47871e-17
3.885e-16
1.70237e-16
2.26162e-16
5.92346e-16
1.42179e-16
4.33976e-17
2.00414e-15
1.42201e-16
7.88972e-16
6.59364e-17
3.01644e-16
9.85565e-15
8.50809e-17
3.94247e-16
5.07771e-19
1.28562e-15
7.98658e-15
1.79731e-15
6.67624e-16
6.9149e-17
1.61208e-16
1.48611e-15
4.96988e-14
2.57809e-15
1.6278e-15
5.09993e-17
3.34923e-14
2.23363e-14
5.48222e-15
7.40245e-16
8.58085e-16
9.36525e-15
7.56732e-15
1.41034e-14
4.36609e-16
4.88836e-15
1.26055e-14
2.51661e-14
7.1929e-15
1.3964e-15
1.10704e-14
5.12747e-15
6.65906e-15
2.45441e-15
2.39928e-15
4.43124e-15
3.73029e-14
5.53937e-15
1.00783e-14
5.47866e-16
1.60117e-14
1.11076e-13
4.64752e-15
1.49437e-14
7.17084e-17
2.62244e-14
1.00574e-13
5.00442e-14
9.27459e-16
1.89629e-15
1.30199e-14
3.68569e-14
1.32198e-12
4.80018e-14
4.60383e-15
2.57468e-14
6.79512e-13
7.64349e-13
1.48078e-13
9.70727e-15
5.39169e-14
2.9405e-13
3.72166e-13
3.11052e-13
6.45883e-15
8.86056e-14
4.3509e-13
9.78757e-13
3.41463e-14
8.96027e-15
2.88219e-13
2.58522e-13
4.22715e-13
6.08964e-14
1.62867e-14
2.40242e-13
9.66838e-13
3.58245e-13
1.40988e-13
3.86145e-15
5.50075e-13
2.34599e-12
3.35659e-13
3.04872e-13
1.772e-15
6.08515e-13
1.96982e-12
1.74131e-12
3.41755e-14
1.43389e-14
6.07932e-13
1.05386e-12
3.77152e-11
2.72223e-12
7.19231e-13
2.31943e-12
2.10646e-11
3.08481e-11
3.6646e-12
1.94513e-12
2.26475e-12
1.34142e-11
2.21715e-11
5.83272e-12
1.10201e-12
2.49583e-12
1.5909e-11
4.00748e-11
3.19828e-12
1.07429e-12
6.58933e-12
1.17459e-11
2.22267e-11
3.37967e-12
2.61892e-13
8.18075e-12
2.56224e-11
2.05883e-11
2.58214e-12
5.24587e-13
1.21095e-11
6.01687e-11
2.07363e-11
3.91401e-12
3.92857e-13
1.29657e-11
4.47661e-11
5.85181e-11
2.27714e-12
7.76838e-13
1.52809e-11
2.93802e-11
9.04391e-10
9.01972e-10
3.72978e-10
1.69557e-10
6.7554e-10
1.06845e-09
9.55743e-10
7.57623e-10
1.47234e-10
4.69865e-10
1.01313e-09
1.59746e-09
5.57364e-10
1.8439e-10
4.68815e-10
1.43829e-09
1.25481e-09
6.55549e-10
2.44434e-10
3.96239e-10
8.98842e-10
1.29315e-09
2.54283e-10
2.90803e-10
6.00597e-10
8.41016e-10
7.16487e-10
3.84395e-10
2.86919e-10
1.2322e-09
7.72051e-10
9.65868e-10
2.54143e-10
3.98323e-10
8.57481e-10
1.52258e-09
9.75653e-10
5.71926e-10
2.84178e-10
7.00724e-10
4.28117e-08
1.87435e-07
5.10434e-08
2.34545e-08
8.06815e-09
5.72313e-08
1.94889e-07
1.02251e-07
2.23558e-08
7.80131e-09
5.88538e-08
3.25095e-07
7.91964e-08
2.84034e-08
6.11517e-09
6.87584e-08
2.43732e-07
1.02264e-07
2.59518e-08
4.82441e-09
4.96894e-08
2.75754e-07
4.49467e-08
2.49759e-08
5.22285e-09
4.99856e-08
1.61271e-07
6.98568e-08
2.30069e-08
1.08385e-08
3.63862e-08
2.09232e-07
4.05258e-08
3.5003e-08
7.04583e-09
6.46471e-08
2.08903e-07
8.06237e-08
1.67971e-08
6.47716e-09
1.02487e-07
3.31281e-07
2.14946e-07
4.39404e-08
1.2998e-09
9.41373e-08
4.736e-07
2.10247e-07
5.38879e-08
4.34731e-09
1.17669e-07
5.46241e-07
2.7189e-07
5.04165e-08
2.90786e-09
1.03371e-07
5.61934e-07
2.3029e-07
5.91772e-08
2.39891e-09
1.14073e-07
6.14085e-07
2.32439e-07
5.35535e-08
1.75763e-09
1.22507e-07
5.4908e-07
2.79669e-07
7.44226e-08
3.80057e-09
1.13168e-07
5.53136e-07
2.31156e-07
7.64505e-08
3.51569e-09
1.28989e-07
6.33388e-07
2.56048e-07
5.71845e-08
2.62563e-09
5.89349e-08
8.12592e-08
4.57506e-08
1.12512e-08
9.91939e-10
6.75978e-08
1.20795e-07
4.36756e-08
1.16168e-08
8.68096e-10
9.39871e-08
1.39475e-07
5.94631e-08
1.07811e-08
1.05863e-09
8.2023e-08
1.50927e-07
4.89334e-08
1.23248e-08
6.14826e-10
9.08041e-08
1.36846e-07
5.01339e-08
1.48942e-08
1.48279e-09
9.33494e-08
1.31685e-07
4.76042e-08
1.52319e-08
1.38018e-09
7.09156e-08
1.18074e-07
5.24544e-08
1.58562e-08
2.83806e-09
8.57044e-08
1.21667e-07
5.12456e-08
1.47605e-08
1.52863e-09
1.61867e-08
1.04653e-08
8.39445e-09
9.96186e-10
2.83538e-09
2.2359e-08
1.43881e-08
7.93748e-09
7.7662e-10
2.39798e-09
3.33727e-08
1.52684e-08
9.64088e-09
6.93127e-10
2.77524e-09
2.77344e-08
1.75483e-08
8.48163e-09
8.02892e-10
2.64529e-09
2.80693e-08
1.19874e-08
9.26384e-09
1.0932e-09
4.11181e-09
2.40663e-08
1.28433e-08
7.36432e-09
1.628e-09
2.4535e-09
1.80255e-08
1.10995e-08
9.78397e-09
1.42435e-09
3.00532e-09
2.42339e-08
1.02849e-08
9.7432e-09
2.3727e-09
2.20269e-09
1.60789e-09
1.11274e-09
1.12643e-09
6.85209e-12
2.33041e-09
2.79576e-09
1.26723e-09
8.66109e-10
8.14198e-12
2.41954e-09
3.7982e-09
1.26075e-09
1.00247e-09
7.0809e-12
2.44821e-09
2.80779e-09
1.31571e-09
9.48289e-10
5.43485e-12
2.05575e-09
2.34552e-09
1.07729e-09
1.08614e-09
1.25739e-11
2.30382e-09
1.56487e-09
1.10272e-09
1.1069e-09
4.01097e-11
1.52778e-09
1.52903e-09
1.22911e-09
1.49437e-09
1.80492e-11
1.65537e-09
2.1808e-09
1.06358e-09
1.53157e-09
7.26835e-11
1.91632e-09
8.73232e-11
1.47152e-10
2.48526e-11
1.95446e-10
2.96825e-10
1.18667e-10
1.83145e-10
1.08443e-11
1.46915e-10
3.57298e-10
9.36244e-11
1.99003e-10
1.77674e-11
1.37438e-10
2.72464e-10
8.2803e-11
1.73112e-10
2.26207e-11
8.92783e-11
1.85295e-10
7.10094e-11
2.42433e-10
2.73442e-11
7.63201e-11
1.85977e-10
1.01945e-10
2.21171e-10
6.50701e-11
5.24101e-11
1.36258e-10
8.93225e-11
3.1256e-10
5.69515e-11
1.06694e-10
1.69555e-10
1.09956e-10
2.67386e-10
3.99096e-11
8.08151e-11
2.80622e-10
3.01255e-11
4.07435e-12
6.62585e-12
3.06773e-11
8.4541e-12
1.88719e-11
1.02589e-11
1.08545e-11
1.43626e-11
1.04222e-11
2.35426e-11
1.08457e-11
6.07164e-12
1.48721e-11
8.7947e-12
2.9398e-11
1.19175e-11
6.00023e-12
8.56539e-12
8.43135e-12
4.85069e-11
1.60546e-11
7.55986e-12
9.87464e-12
1.11911e-11
6.81036e-11
1.35852e-11
9.30484e-12
8.28344e-12
1.77958e-11
3.5724e-11
1.91887e-11
5.9395e-12
1.23194e-11
1.29423e-11
3.77803e-11
1.22754e-11
6.64426e-12
1.34646e-11
9.24266e-12
3.68506e-12
8.99284e-13
1.4307e-12
1.40814e-12
4.93414e-12
2.92954e-12
1.18455e-12
1.47539e-12
2.40576e-12
4.11566e-12
7.48437e-12
1.00858e-12
3.27794e-12
1.85921e-12
9.67007e-12
6.43801e-12
1.81527e-12
3.46101e-12
4.18553e-12
8.42922e-12
9.97406e-12
1.72631e-12
4.14165e-12
4.19068e-12
1.06135e-11
8.59852e-12
1.34089e-12
4.41879e-12
1.83678e-12
1.25896e-11
2.94224e-12
1.64643e-12
1.38514e-12
2.3551e-12
6.14496e-12
4.17129e-12
7.71499e-13
1.34624e-12
1.75968e-12
3.26968e-12
1.179e-12
4.06161e-13
1.46402e-12
1.22351e-12
1.83469e-12
9.09692e-13
8.02741e-13
2.13439e-12
1.55087e-12
2.12282e-12
2.34984e-12
4.57923e-13
5.51543e-12
1.07041e-12
3.95582e-12
1.87825e-12
1.21105e-12
3.23151e-12
3.05216e-12
1.93768e-12
2.74586e-12
1.01754e-12
3.02028e-12
2.07386e-12
3.02372e-12
1.08251e-12
1.2511e-12
2.62119e-12
7.94249e-13
3.60353e-12
3.85442e-13
9.04303e-13
1.63456e-12
1.27164e-12
1.18503e-12
1.25882e-12
2.46104e-13
1.61173e-12
1.28886e-12
7.83622e-13
1.08761e-12
4.08249e-13
9.54618e-13
7.84975e-13
8.58356e-13
7.06686e-13
7.80461e-13
1.43939e-12
5.37936e-13
1.55554e-12
9.23751e-13
4.47325e-13
3.22234e-12
2.79093e-13
2.17896e-12
9.26464e-13
6.76336e-13
1.88355e-12
1.03746e-12
7.01182e-13
1.86091e-12
4.30586e-13
1.52546e-12
9.39569e-13
1.00341e-12
6.05152e-13
1.04705e-12
8.29972e-13
5.13726e-13
1.60169e-12
2.60271e-13
7.039e-13
1.22199e-12
3.81912e-13
7.70024e-13
9.36709e-13
1.82628e-13
1.41762e-12
5.71079e-13
4.52721e-13
7.06139e-13
2.03579e-13
5.79468e-13
4.64825e-13
4.55192e-13
4.51889e-13
4.2104e-13
7.17065e-13
2.90232e-13
9.06456e-13
3.69741e-13
3.69669e-13
1.36337e-12
1.38727e-13
1.27013e-12
4.12207e-13
3.97695e-13
1.01117e-12
4.38776e-13
4.81415e-13
9.50982e-13
1.90977e-13
9.85804e-13
4.45148e-13
5.18268e-13
4.2913e-13
5.19697e-13
4.12738e-13
3.99813e-13
7.94133e-13
1.81151e-13
4.37444e-13
7.16789e-13
1.68848e-13
6.50198e-13
4.72381e-13
1.34179e-13
8.8441e-13
3.13838e-13
3.0158e-13
3.99781e-13
9.31439e-14
3.34421e-13
2.36277e-13
2.37781e-13
2.39801e-13
2.23372e-13
3.79715e-13
1.57998e-13
4.824e-13
1.98436e-13
2.28132e-13
6.54008e-13
9.39798e-14
6.47307e-13
2.34441e-13
2.28393e-13
5.31638e-13
2.34498e-13
2.84632e-13
4.7808e-13
1.12407e-13
5.2886e-13
2.23409e-13
2.75268e-13
2.4796e-13
2.57342e-13
2.28918e-13
2.15801e-13
3.87006e-13
1.07903e-13
2.33987e-13
3.68653e-13
8.31233e-14
3.9314e-13
2.14386e-13
8.81099e-14
4.58577e-13
1.59055e-13
1.5649e-13
2.05227e-13
3.99332e-14
1.84621e-13
1.11354e-13
1.23225e-13
1.25789e-13
1.1498e-13
1.99389e-13
8.65429e-14
2.51373e-13
1.08599e-13
1.19085e-13
3.42551e-13
5.10856e-14
3.27413e-13
1.29518e-13
1.06322e-13
2.76938e-13
1.13664e-13
1.44096e-13
2.2996e-13
5.20752e-14
2.57897e-13
1.02853e-13
1.2716e-13
1.25586e-13
1.07007e-13
1.15111e-13
9.60192e-14
1.84112e-13
5.07395e-14
1.03791e-13
1.83211e-13
3.66455e-14
1.9172e-13
1.00145e-13
4.32563e-14
2.16999e-13
7.66942e-14
7.61071e-14
9.66232e-14
1.59123e-14
8.79958e-14
4.88605e-14
5.95366e-14
5.73896e-14
5.22145e-14
9.88826e-14
3.82554e-14
1.18649e-13
5.24143e-14
4.94663e-14
1.67464e-13
2.04831e-14
1.49353e-13
5.83707e-14
4.00553e-14
1.27737e-13
4.52754e-14
5.92595e-14
9.70616e-14
1.90238e-14
1.08272e-13
4.00563e-14
5.07607e-14
5.08819e-14
3.93805e-14
5.08044e-14
3.38447e-14
8.27068e-14
1.83027e-14
4.10509e-14
8.35838e-14
1.2448e-14
8.44363e-14
4.39726e-14
1.54258e-14
9.97909e-14
3.31116e-14
3.12618e-14
3.87889e-14
4.12201e-15
3.35544e-14
1.74896e-14
2.13942e-14
2.0272e-14
1.78249e-14
3.87423e-14
1.14155e-14
4.66636e-14
1.77078e-14
1.44929e-14
6.94163e-14
4.55637e-15
5.56833e-14
1.96036e-14
1.02541e-14
4.86966e-14
1.27929e-14
1.83521e-14
3.42498e-14
4.30029e-15
3.74528e-14
1.2263e-14