/*--------------------------------*- C++ -*----------------------------------*\
  =========                 |
  \\      /  F ield         | OpenFOAM: The Open Source CFD Toolbox
   \\    /   O peration     | Website:  https://openfoam.org
    \\  /    A nd           | Version:  10
     \\/     M anipulation  |
\*---------------------------------------------------------------------------*/
FoamFile
{
    format      ascii;
    class       volVectorField;
    location    "0.02";
    object      UMean;
}
// * * * * * * * * * * * * * * * * * * * * * * * * * * * * * * * * * * * * * //

dimensions      [0 1 -1 0 0 0 0];

internalField   nonuniform List<vector> 
102400
(
(0.163896 -0.00199955 0.0676198)
(0.190641 0.000180804 0.0587192)
(0.190434 -0.00149359 0.0408854)
(0.189773 0.00472021 0.028194)
(0.191523 -0.0553006 0.0232645)
(0.19107 -0.0037038 0.0403924)
(0.184939 -0.000305999 0.0481355)
(0.203544 -0.000104267 0.0367141)
(0.0152397 0.000221166 0.0238938)
(-0.0232856 0.00575883 0.0340511)
(0.170718 0.00109387 0.0436004)
(0.18898 0.00186159 0.0515004)
(0.178656 -0.0003708 0.0417249)
(0.312353 0.000614502 0.0315255)
(0.204895 -0.00196814 0.0262621)
(0.195037 -0.00117678 0.0434193)
(0.192351 -0.000738882 0.0492337)
(0.192463 0.000247959 0.0390283)
(0.189438 0.00213634 0.0248997)
(0.192133 -0.0307801 0.0350935)
(0.195584 -0.00403936 0.0464287)
(0.189977 -0.000410138 0.052281)
(0.209126 -0.00228222 0.0390198)
(0.0210858 0.001343 0.0286482)
(0.180502 -0.000444299 0.0305544)
(0.190293 -0.0011364 0.0443339)
(0.191428 0.00254956 0.0507186)
(0.191247 4.22249e-06 0.040904)
(0.188376 -0.000752516 0.0272906)
(0.135626 -0.00200205 0.0355904)
(0.190324 -0.000837415 0.0386049)
(0.188475 -0.00104205 0.0498003)
(0.174884 4.17974e-05 0.0368085)
(0.341824 -0.000614608 0.0377094)
(0.205713 8.8915e-05 -0.101693)
(0.198077 -0.0018818 0.0335971)
(0.189118 0.00191685 0.0445634)
(0.192324 0.00289514 0.040925)
(0.192253 0.000241789 0.0269343)
(0.200413 -0.00337728 0.0251728)
(0.16012 -0.000261685 0.00775805)
(0.16233 -0.000850527 0.0379259)
(0.161702 0.000300016 0.00769616)
(0.156274 -0.00191551 -0.0247937)
(0.168771 0.0184685 -0.0301646)
(0.168248 0.00268106 0.021912)
(0.156381 0.000207821 0.0330805)
(0.161674 0.00326166 0.00676072)
(0.163404 0.00564192 -0.0299531)
(0.162763 -0.00412079 -0.0220257)
(0.152856 -0.00485081 0.011747)
(0.157644 -0.00124295 0.0347719)
(0.154736 -0.00155876 0.0123205)
(0.165791 -0.000895079 -0.0304528)
(0.165916 0.00191451 -0.0321518)
(0.168718 0.000615042 0.018829)
(0.172762 0.000475015 0.0472409)
(0.158446 -4.41033e-05 0.00859551)
(0.161787 -0.0013398 -0.0327673)
(0.157746 0.0104628 -0.021244)
(0.158509 0.00225133 0.0155101)
(0.150721 7.28483e-05 0.0273205)
(0.162535 0.00387491 0.00705829)
(0.166038 0.000658385 -0.0376464)
(0.161349 -0.00317001 -0.0239973)
(0.161811 -0.0002491 0.0197931)
(0.154505 2.14099e-05 0.02687)
(0.161355 -0.000425484 0.00675771)
(0.160295 0.0014226 -0.0397108)
(0.157325 0.00063416 -0.020726)
(0.168143 -0.00121431 0.0172252)
(0.170349 0.000328246 0.0478969)
(0.152953 -0.00316188 0.00849073)
(0.158302 -0.00136471 -0.0235286)
(0.156975 0.00547185 -0.0222301)
(0.168684 0.0020469 0.0200537)
(0.167264 -8.70956e-05 0.0409666)
(0.160038 -0.00118784 0.00916097)
(0.16757 -0.000450513 -0.0390205)
(0.159573 0.0019928 -0.0201488)
(0.1825 -0.000757403 0.0149041)
(0.176105 -6.42324e-05 0.0544398)
(0.171492 -6.47674e-05 0.0104363)
(0.170828 0.000778166 -0.0459661)
(0.178069 -0.00216625 -0.0421969)
(0.175165 0.000156435 0.0242861)
(0.177143 0.000513234 0.0605393)
(0.173166 0.00284627 0.0112952)
(0.189248 0.00520504 -0.0557984)
(0.188518 -0.00328111 -0.043427)
(0.181768 -0.00343112 0.0284453)
(0.182586 -0.000459238 0.06522)
(0.159949 -0.000962325 0.0161905)
(0.185563 -0.000415796 -0.0554176)
(0.186754 0.000769696 -0.0557931)
(0.191387 0.000594044 0.0323629)
(0.173315 0.000660121 0.0476559)
(0.173688 -0.000247917 0.0111822)
(0.186947 6.97068e-05 -0.0663883)
(0.166553 0.00177219 -0.0373283)
(0.186682 0.000427981 0.0341403)
(0.174111 0.000413554 0.0587044)
(0.188946 0.00236928 0.0114365)
(0.18143 0.00067658 -0.0579416)
(0.178058 -0.00283286 -0.0421633)
(0.172695 -0.00107041 0.0232751)
(0.18553 0.00138798 0.0674693)
(0.17505 -0.000256933 0.0100077)
(0.162303 0.00126363 -0.046288)
(0.187325 -0.000382429 -0.0444608)
(0.175425 -0.00197389 0.0175914)
(0.185588 0.000437808 0.0674268)
(0.160998 -0.00226996 0.0119308)
(0.167933 -0.00176327 -0.0461935)
(0.164591 0.00506102 -0.030613)
(0.178888 0.000986353 0.025377)
(0.19764 -6.7392e-05 0.0835162)
(0.196702 -0.00026572 0.0144039)
(0.182369 0.00107887 -0.0567092)
(0.173608 0.000865607 -0.0380461)
(0.214562 -0.000422706 0.0376115)
(0.198782 0.00073184 0.0805863)
(0.174225 0.000358781 0.0140745)
(0.177016 -0.00010229 -0.0537153)
(0.175279 -0.00125035 -0.0425257)
(0.18534 0.000321082 0.0319799)
(0.179556 0.000406368 0.0663902)
(0.202446 0.00227426 0.0126677)
(0.190252 0.00340232 -0.0585388)
(0.202145 -0.00202197 -0.0603209)
(0.19813 -0.00294863 0.0373654)
(0.192958 -6.29866e-06 0.0804489)
(0.191612 0.000249756 0.0170753)
(0.179014 -0.000769452 -0.0508109)
(0.185455 -0.000208008 -0.0546234)
(0.187705 0.00117021 0.0286431)
(0.191199 -5.08441e-05 0.0722663)
(0.185513 -0.00072505 0.015093)
(0.196 -0.000504885 -0.0788808)
(0.196007 0.000176823 -0.0664981)
(0.214348 0.00099841 0.0502617)
(0.175367 0.000782934 0.0588746)
(0.199852 0.00105849 0.0150163)
(0.207989 0.000875969 -0.0889928)
(0.212343 -0.00252068 -0.0721691)
(0.179635 -0.00124135 0.0212941)
(0.198445 0.00172644 0.0855854)
(0.191959 0.000666092 0.0110276)
(0.155837 0.000801058 -0.0363269)
(0.207383 -0.00072507 -0.0651419)
(0.187525 -0.00236871 0.0222154)
(0.203732 0.000893558 0.0931362)
(0.191959 -0.00125805 0.0164943)
(0.184978 -0.00188228 -0.0619372)
(0.176027 0.00463286 -0.0428892)
(0.189969 0.000889286 0.0329632)
(0.186473 -0.00138592 0.0656772)
(0.179484 -0.000330171 0.0129071)
(0.180128 0.00274359 -0.0593877)
(0.202323 0.000130532 -0.0676205)
(0.198103 -0.000599605 0.0324774)
(0.189926 -0.000253605 0.073482)
(0.195238 2.86825e-05 0.0181682)
(0.211327 -0.0006142 -0.0980359)
(0.207996 -0.000554982 -0.0717014)
(0.194671 0.000377029 0.0325631)
(0.197795 8.25489e-05 0.0875971)
(0.205377 0.00201062 0.0167309)
(0.198514 0.00120399 -0.0739397)
(0.216643 -0.00106581 -0.0766243)
(0.202477 -0.00269076 0.0365962)
(0.186199 0.000638622 0.0716543)
(0.194448 0.00158225 0.0180499)
(0.187657 -0.000987621 -0.0733862)
(0.207757 -0.00115589 -0.0762614)
(0.203189 0.00155411 0.0358505)
(0.203789 -0.00187235 0.0919658)
(0.221323 -0.00100657 0.0171063)
(0.196143 -0.000718353 -0.0761108)
(0.217021 -0.00106534 -0.0836947)
(0.216331 0.00121556 0.0470041)
(0.193857 0.00281464 0.0801828)
(0.195234 0.000214589 0.013918)
(0.186872 0.00145282 -0.0542476)
(0.201664 -0.00276419 -0.0629117)
(0.181936 -0.000279158 0.0246015)
(0.198747 0.000217399 0.0831528)
(0.187597 0.000887652 0.0147295)
(0.184872 0.0016511 -0.07341)
(0.187924 -0.000936699 -0.058105)
(0.209634 -0.00305846 0.0415768)
(0.209177 0.00124574 0.100559)
(0.199341 -0.000241886 0.01838)
(0.193976 -0.00156279 -0.0717307)
(0.192782 0.00318424 -0.0591988)
(0.192866 0.000734901 0.0321359)
(0.190027 -0.000863287 0.0744941)
(0.214538 -0.000310829 0.0159083)
(0.198678 0.00352129 -0.0772171)
(0.193918 0.000149883 -0.0591491)
(0.20877 -0.000758479 0.0406996)
(0.190225 -0.00177158 0.0767497)
(0.22055 -0.00063462 0.0144344)
(0.18455 -0.000312716 -0.0565098)
(0.176461 -0.00200532 -0.0494783)
(0.224572 0.000201328 0.0607933)
(0.19242 -0.000392033 0.0803507)
(0.217974 0.00121368 0.0178781)
(0.211034 -0.000367446 -0.0889929)
(0.214361 0.000531667 -0.0739656)
(0.198177 -0.00056585 0.0337759)
(0.180725 9.28469e-05 0.0638833)
(0.196047 0.00156736 0.0191168)
(0.206111 -0.000522823 -0.0967958)
(0.182266 -0.00114151 -0.0564702)
(0.205746 0.00184271 0.042876)
(0.203755 -0.00304994 0.0856131)
(0.176588 -0.000990592 0.014646)
(0.180695 0.000576738 -0.0617004)
(0.203157 -0.00109204 -0.0644076)
(0.172037 0.000513225 0.0152263)
(0.205113 0.00314313 0.0965053)
(0.185397 0.000445 0.0165632)
(0.192241 0.000170661 -0.062664)
(0.192196 -0.0020957 -0.0564138)
(0.184368 0.000577998 0.0281435)
(0.205179 -0.00126897 0.0916693)
(0.185729 0.000619924 0.0178133)
(0.197886 0.00210285 -0.0909198)
(0.181934 -0.00137777 -0.0531018)
(0.197238 -0.00366784 0.0343225)
(0.193632 0.00124945 0.0793162)
(0.189275 4.1636e-05 0.0191184)
(0.216824 -0.00108127 -0.100962)
(0.18425 0.00118085 -0.0556717)
(0.20353 0.000114655 0.0420396)
(0.205638 5.36734e-05 0.0932829)
(0.203811 0.000399324 0.0151734)
(0.176645 0.00348676 -0.0513832)
(0.201192 -0.000873845 -0.0665772)
(0.197024 -0.000393922 0.0262255)
(0.20257 -0.00107689 0.088881)
(0.192847 -0.000137907 0.0170815)
(0.193053 -0.000346425 -0.0724713)
(0.191356 -0.0044808 -0.0550619)
(0.187386 1.13133e-05 0.0296822)
(0.195737 -0.000306597 0.0830375)
(0.191233 0.000716081 0.0140103)
(0.182349 -0.000445505 -0.0493966)
(0.185061 -0.000156898 -0.0492697)
(0.204095 0.000222634 0.0454441)
(0.160312 -0.000853889 0.0372094)
(0.170811 0.00106646 0.0123447)
(0.188327 0.000156358 -0.0670655)
(0.179317 -0.00107822 -0.0458212)
(0.171297 0.00150232 0.0176906)
(0.202396 -0.00393347 0.0867217)
(0.178594 -0.000891645 0.0168531)
(0.197698 0.000830424 -0.0832586)
(0.178656 0.00091251 -0.0478727)
(0.184629 0.000328274 0.0298762)
(0.18897 4.81911e-05 0.0794301)
(0.209765 -8.67552e-05 0.0147453)
(0.187769 -0.00171277 -0.0598589)
(0.184243 -0.000540213 -0.0505923)
(0.189802 -0.00010701 0.0328471)
(0.211494 -0.0021684 0.10271)
(0.199772 0.00112442 0.0159726)
(0.17707 0.00190719 -0.0627311)
(0.185363 -0.00156989 -0.048689)
(0.181123 -0.00246898 0.0218292)
(0.188677 0.000338609 0.0767595)
(0.192116 0.000145677 0.0130976)
(0.174674 0.000179679 -0.046941)
(0.176097 0.00051509 -0.0422823)
(0.174778 -0.000522174 0.0224297)
(0.189471 4.28931e-05 0.0726182)
(0.190875 0.00104734 0.015309)
(0.192728 0.00244924 -0.0736578)
(0.202884 -0.00187447 -0.0660088)
(0.161661 4.02939e-05 0.00207093)
(0.184072 -0.000362821 0.0665631)
(0.175727 0.000500016 0.0129286)
(0.179342 -0.00206309 -0.0568213)
(0.176358 -0.00386848 -0.0425937)
(0.183102 -0.000129341 0.0310469)
(0.162414 0.000475133 0.0388419)
(0.167721 0.000274641 0.00995229)
(0.183633 -0.00125609 -0.0540752)
(0.187045 -0.000465855 -0.0433013)
(0.162477 -0.000236496 0.0125713)
(0.167844 -0.00116515 0.0477278)
(0.160041 0.00100544 0.0107841)
(0.177244 0.000251494 -0.0500452)
(0.17894 -0.000975738 -0.0468788)
(0.18741 0.000648839 0.0316545)
(0.186433 -0.00198105 0.0643877)
(0.165692 -0.000173971 0.0112311)
(0.174321 3.0707e-05 -0.0530608)
(0.172771 0.00228019 -0.0383558)
(0.163361 0.000425786 0.0155633)
(0.176659 -0.00125334 0.0567823)
(0.151949 -0.000789041 0.0107586)
(0.169387 -0.00199634 -0.0460205)
(0.172173 0.000678403 -0.0381057)
(0.17061 -0.00117911 0.0220661)
(0.170678 -0.00346873 0.0488631)
(0.166183 0.00142424 0.00861356)
(0.164361 0.00180535 -0.0523462)
(0.189813 -0.00153245 -0.0480067)
(0.162471 -0.000463999 0.00882184)
(0.165031 -0.00134986 0.0473961)
(0.180175 0.00025603 0.0101162)
(0.175604 0.00155654 -0.0492789)
(0.173072 -0.00162114 -0.0382428)
(0.166011 -0.000139015 0.0166224)
(0.180461 0.000378343 0.0593011)
(0.170273 0.00101742 0.0132124)
(0.187092 0.0012585 -0.0685871)
(0.180265 -0.000442566 -0.0414561)
(0.154362 0.000196879 0.00714942)
(0.157139 -0.000689307 0.03213)
(0.162306 0.000117947 0.00791266)
(0.16963 -0.00214127 -0.044137)
(0.15933 -0.00243091 -0.0247009)
(0.144149 -0.00045111 0.00318047)
(0.160639 0.000285615 0.0393418)
(0.165421 -0.000658778 0.007891)
(0.167761 -0.00277087 -0.0343788)
(0.164326 0.000963448 -0.024704)
(0.156278 0.000433118 0.0118029)
(0.157796 -0.00130206 0.0359099)
(0.162341 0.00173067 0.00652776)
(0.155307 0.000335616 -0.0234903)
(0.151047 -0.00143874 -0.0192031)
(0.160312 -0.000198088 0.0163199)
(0.166908 0.000606138 0.0424152)
(0.156871 0.000821144 0.00632144)
(0.155248 -0.00072753 -0.028209)
(0.161028 0.00152279 -0.0266955)
(0.15922 -1.90746e-05 0.0153076)
(0.159875 -0.000214435 0.0357237)
(0.152457 -0.00150115 0.00811922)
(0.167986 -0.00148423 -0.0403789)
(0.160634 0.00117708 -0.0258544)
(0.155704 -0.00125963 0.0124523)
(0.161579 -0.00329171 0.0394125)
(0.16649 0.00130504 0.00454554)
(0.153435 0.0012187 -0.0247771)
(0.162829 -0.00124536 -0.0247229)
(0.155208 -0.000278608 0.00859604)
(0.162776 -0.00332531 0.0431794)
(0.155976 2.49124e-05 0.00839343)
(0.167142 0.00163636 -0.0398884)
(0.162769 9.37594e-05 -0.0292457)
(0.161542 0.000620937 0.0162342)
(0.160486 9.40624e-05 0.0334342)
(0.15315 0.000869265 0.00613849)
(0.155132 0.000926706 -0.0274505)
(0.157235 0.000663842 -0.0213994)
(0.151644 0.000615198 0.00972853)
(0.152101 -0.000535356 0.0250222)
(0.147562 -0.000237794 0.00348262)
(0.140948 -0.000678849 -0.00837746)
(0.144782 -0.000685996 -0.0139583)
(0.147395 -0.000486101 0.0087485)
(0.146933 0.000159793 0.0196554)
(0.149885 -0.00135045 0.00373444)
(0.14908 -0.00314504 -0.0149589)
(0.149082 0.00195654 -0.0132831)
(0.151848 0.0013892 0.011238)
(0.14429 -0.00129826 0.0167537)
(0.147283 0.00221152 0.00392411)
(0.144549 0.00100186 -0.0169305)
(0.146514 -0.0022363 -0.0135804)
(0.146976 -0.000487937 0.00773379)
(0.142312 0.000694668 0.0108047)
(0.142771 0.000786296 0.00215012)
(0.147021 -0.000720727 -0.0175598)
(0.1392 0.000350207 -0.00713049)
(0.150707 -0.000508809 0.0126095)
(0.149677 0.000235976 0.0235181)
(0.152318 -0.00240658 0.00450567)
(0.152823 -0.000916368 -0.0172534)
(0.153334 0.00175472 -0.0177209)
(0.150201 -0.000690533 0.0101942)
(0.147255 -0.00213587 0.0194544)
(0.14707 0.00108619 0.00130104)
(0.143097 0.0013715 -0.0118861)
(0.142628 -0.000501987 -0.00914788)
(0.148159 -0.000907281 0.00689589)
(0.145307 -0.00340258 0.0202536)
(0.144161 0.000447983 0.00316925)
(0.146457 0.0012906 -0.0127345)
(0.145784 -0.00223574 -0.0127702)
(0.142855 0.000463345 0.00504816)
(0.140738 -0.000262202 0.00892968)
(0.144457 0.000693986 0.00264439)
(0.147201 0.00084924 -0.0180449)
(0.152125 0.000395423 -0.0169701)
(0.138431 0.000854859 0.00265663)
(0.137241 -0.0007256 0.00595041)
(0.139633 -0.000144486 0.00137138)
(0.138453 -0.000178648 -0.00666651)
(0.138433 0.000176666 -0.00724192)
(0.13817 -0.000535949 0.00280597)
(0.137822 0.000469454 0.00717026)
(0.139472 -0.00178201 0.00144561)
(0.140568 -0.00350476 -0.00618982)
(0.141377 0.00239493 -0.00534783)
(0.13957 0.00213768 0.00305051)
(0.138708 -0.00127085 0.00864645)
(0.137846 0.00259636 0.00199309)
(0.135122 0.000951485 -0.00619674)
(0.139594 -0.0029365 -0.00639105)
(0.13844 -0.000490681 0.0023848)
(0.140127 0.00032247 0.00807481)
(0.136985 0.000382094 0.0010414)
(0.138928 -0.000202854 -0.00766907)
(0.137447 8.59726e-05 -0.00405265)
(0.139738 -0.000607399 0.00468902)
(0.139203 1.91617e-05 0.00902381)
(0.142048 -0.00305705 0.00184042)
(0.143234 -0.000941701 -0.00609604)
(0.141885 0.00259985 -0.00656135)
(0.139494 -0.00030411 0.0041191)
(0.141893 -0.00127196 0.0105767)
(0.139154 0.000785102 9.84928e-05)
(0.136937 0.00137725 -0.00713207)
(0.140012 -0.000256214 -0.00598712)
(0.13863 -0.000899189 0.000318231)
(0.133082 -0.0029316 0.00470071)
(0.136308 0.000878685 0.00103687)
(0.142039 0.000900563 -0.00769835)
(0.137682 -0.00170754 -0.00564503)
(0.139693 0.000649486 0.00394462)
(0.139853 -0.000108475 0.00745126)
(0.138874 0.000512433 0.00149462)
(0.14006 0.000491777 -0.00870309)
(0.139847 9.27866e-05 -0.00492854)
(0.136615 0.000803823 0.000891001)
(0.135014 -0.000520994 0.00239883)
(0.134358 -0.000152269 0.000508874)
(0.134129 -0.000205553 -0.00172228)
(0.134996 -0.000165744 -0.00391357)
(0.135111 -0.000251638 0.000938647)
(0.134266 0.000605864 0.00210012)
(0.134552 -0.00222632 0.000400644)
(0.137643 -0.00396421 -0.00144485)
(0.138935 0.0025172 -0.00245055)
(0.136275 0.00280199 0.00102289)
(0.134693 -0.00107484 0.00298562)
(0.134904 0.00289359 0.000918352)
(0.136197 0.000711705 -0.00213894)
(0.135514 -0.00331524 -0.00218224)
(0.135491 -0.000583732 0.00100391)
(0.134876 0.000188222 0.00145504)
(0.134901 0.00027275 7.10149e-05)
(0.135307 -0.000137264 -0.00280895)
(0.134266 0.000413492 -0.00113944)
(0.135063 -0.0003621 0.00158449)
(0.134916 0.00015402 0.00282174)
(0.135697 -0.00345518 0.000645938)
(0.136228 -0.00101807 -0.00179629)
(0.135762 0.00317935 -0.00131042)
(0.135285 -0.00037334 0.00204557)
(0.136937 -0.000799135 0.00164564)
(0.135869 0.000726562 -0.00121465)
(0.130582 0.000835505 -0.0021438)
(0.136113 -0.000195449 -0.00132266)
(0.136863 -0.000603975 0.000166569)
(0.130208 -0.00284231 0.000813087)
(0.13225 0.0011748 0.000188332)
(0.137157 0.000612037 -0.00242225)
(0.133198 -0.00150579 -0.00130273)
(0.134998 0.000611052 0.00102196)
(0.135636 0.000152467 0.00203626)
(0.134974 0.000456597 0.000325911)
(0.135106 0.000426214 -0.00241633)
(0.136112 -6.44925e-05 -0.00147642)
(0.136581 0.00107008 -0.00212621)
(0.133486 -0.000210627 4.13846e-05)
(0.133096 -0.000100835 0.000113991)
(0.133025 -0.00017404 -0.000386751)
(0.133302 -0.000186516 -0.00155681)
(0.133512 5.12726e-05 4.84119e-05)
(0.13338 0.000752347 0.000640833)
(0.133417 -0.00261256 5.81913e-05)
(0.136981 -0.00432786 0.000147768)
(0.137908 0.00303465 -0.000785365)
(0.134894 0.00345776 0.000184879)
(0.133435 -0.000957888 0.00084419)
(0.133281 0.00303711 0.000298443)
(0.137377 0.000656576 -0.000452988)
(0.134391 -0.00356577 -0.000594187)
(0.133801 -0.000549388 -3.28804e-05)
(0.133542 5.50924e-05 -0.000122388)
(0.133838 0.000128874 -0.000202393)
(0.133584 -6.31612e-05 -0.000593549)
(0.13343 0.000791137 -0.000253787)
(0.133404 -9.60513e-05 0.00038905)
(0.133635 0.000389071 0.000921881)
(0.134226 -0.00382683 0.000270396)
(0.132872 -0.000949179 -0.000377811)
(0.134686 0.003621 -0.000409189)
(0.134307 -0.000296776 0.00125808)
(0.135319 -0.000740515 0.000474148)
(0.134503 0.000817583 -0.00176045)
(0.128561 0.000437373 -0.000752705)
(0.135965 -0.000381689 3.80764e-05)
(0.135672 -0.000465879 -0.000289311)
(0.128852 -0.00260411 -0.000434371)
(0.131601 0.00150417 -6.63901e-05)
(0.135614 0.000468802 -0.000491536)
(0.13205 -0.00142626 -0.000191853)
(0.133931 0.000617483 0.000350429)
(0.134146 0.000249622 0.0001866)
(0.133956 0.00042506 -5.21851e-05)
(0.133726 0.000487964 -0.000632151)
(0.134679 -0.000192305 -3.63854e-05)
(0.134835 0.00142638 -0.00259959)
(0.133087 0.000154102 -0.000284109)
(0.132871 -7.45119e-05 4.37764e-05)
(0.132889 -0.000171787 -0.000180882)
(0.133099 0.000511677 -8.44348e-05)
(0.133229 0.0002515 7.13736e-05)
(0.133274 0.000884973 0.000145682)
(0.133369 -0.00292746 2.63735e-05)
(0.13574 -0.0046776 0.000262052)
(0.136484 0.00371277 0.000143743)
(0.134517 0.00396509 3.48324e-05)
(0.133345 -0.000838655 0.000341073)
(0.133273 0.00309013 0.000118366)
(0.134828 0.000564754 -4.89186e-05)
(0.133804 -0.00371175 -0.000122214)
(0.133383 -0.000582954 -0.00025143)
(0.133263 -6.00622e-05 -0.000303586)
(0.133472 3.85422e-05 -0.000232093)
(0.133306 3.06625e-05 -0.000300021)
(0.133142 0.000443492 0.000298037)
(0.133224 4.39407e-05 0.000314893)
(0.133405 0.000531681 0.000346107)
(0.133943 -0.00402976 0.000173172)
(0.133723 -0.000890115 0.000175551)
(0.134487 0.00387965 9.17583e-05)
(0.133953 -0.00016773 0.000771896)
(0.135144 -0.000767411 0.00286589)
(0.134156 0.000766905 -0.00173188)
(0.131303 8.75216e-05 -0.00043332)
(0.13454 -0.00049783 0.000612671)
(0.13516 -0.000276301 -0.000457683)
(0.128483 -0.00237218 -0.000619879)
(0.131384 0.00180561 -9.5901e-05)
(0.135992 0.000328661 -0.000119537)
(0.13191 -0.00133658 -0.00012951)
(0.133496 0.00059513 5.41017e-05)
(0.133731 0.000289559 -0.000198844)
(0.133671 0.000419781 -0.000164662)
(0.133483 0.000517473 -0.000326762)
(0.134314 -0.000407711 0.000414759)
(0.132717 0.00175616 -0.00213298)
(0.13287 0.000418542 -0.000178765)
(0.132933 -6.01895e-05 7.07743e-05)
(0.132891 -0.000160768 -0.000130843)
(0.133109 0.00078531 0.000359289)
(0.133163 0.000329698 6.14443e-05)
(0.133403 0.000972033 0.000122308)
(0.133587 -0.00316552 4.12245e-05)
(0.13409 -0.00492955 0.000167176)
(0.134734 0.00390655 0.000486331)
(0.134298 0.00432692 5.38542e-05)
(0.133399 -0.000735395 0.000176048)
(0.133596 0.0031924 0.000123497)
(0.131418 0.000518152 8.76676e-06)
(0.133399 -0.00389012 -2.74766e-05)
(0.133219 -0.000644856 -0.000288697)
(0.13319 -0.000137633 -0.000240213)
(0.133448 -1.8763e-05 -0.00019061)
(0.133269 0.000112933 -0.000243301)
(0.133125 -0.000198774 0.000387864)
(0.133189 9.43913e-05 0.000294328)
(0.133536 0.000634339 0.000243358)
(0.133701 -0.0042693 0.000170165)
(0.135796 -0.000884794 0.000198955)
(0.134674 0.00416076 0.000155209)
(0.133923 -7.31564e-05 0.000679786)
(0.135215 -0.000508468 0.00337898)
(0.134211 0.000512669 -0.0016271)
(0.132025 -0.00024485 -0.000333758)
(0.132598 -0.000362497 0.000716959)
(0.134852 -8.87059e-05 -0.000579388)
(0.128392 -0.00215288 -0.000587159)
(0.131383 0.00209806 -0.0001753)
(0.136705 0.000253972 -6.17796e-05)
(0.132027 -0.00163354 -0.000410752)
(0.133412 0.000523776 -4.38453e-05)
(0.133627 0.000313261 -0.000195038)
(0.133644 0.000433067 -0.000167664)
(0.133402 0.000515407 -0.000247311)
(0.134406 -0.000532772 0.000419527)
(0.132231 0.00149267 -0.000986668)
(0.132809 0.00056069 -3.39903e-05)
(0.13303 -2.68513e-05 7.97261e-05)
(0.132827 -0.00017036 -3.83263e-06)
(0.133125 0.000893544 -0.000385678)
(0.133282 0.000400377 -4.5857e-05)
(0.13347 0.00105602 0.000108881)
(0.133658 -0.00341864 1.65656e-05)
(0.133718 -0.00519287 9.21948e-05)
(0.13445 0.00409941 0.000242511)
(0.134309 0.0046533 2.77657e-05)
(0.133506 -0.00062436 8.8603e-05)
(0.133711 0.0031813 0.000144276)
(0.130856 0.000505594 2.65732e-05)
(0.133368 -0.00390715 -7.63228e-05)
(0.133211 -0.000680507 -0.000236079)
(0.133221 -0.000200397 -0.000180067)
(0.133469 -6.94706e-05 -8.9977e-05)
(0.133332 0.000127169 -0.00015287)
(0.133168 -0.000349252 0.000116571)
(0.133155 0.000153453 0.000257127)
(0.133617 0.000697005 0.000189087)
(0.133628 -0.0044485 0.000122365)
(0.136167 -0.000873082 0.000141862)
(0.134601 0.00438507 0.000158633)
(0.134007 -1.90342e-05 0.000907805)
(0.135447 -8.30416e-05 0.00150817)
(0.134492 0.000360296 -0.00148118)
(0.130776 -0.000619531 -0.000213233)
(0.131926 -0.000209071 0.00045193)
(0.134607 0.000159771 -0.000678537)
(0.128515 -0.00196373 -0.000484418)
(0.131548 0.00238856 -0.0001502)
(0.136828 0.000196254 -4.14386e-05)
(0.132141 -0.00169135 -0.000187946)
(0.133432 0.000463502 -3.29687e-05)
(0.133593 0.00033836 -0.000183268)
(0.133672 0.000459463 -0.000128847)
(0.133451 0.000482506 -0.000148616)
(0.134462 -0.000525129 0.000288874)
(0.134281 0.00169159 -0.000893468)
(0.132979 0.00067188 -8.5625e-05)
(0.133071 3.20352e-05 9.5066e-05)
(0.132834 -1.0879e-05 3.52849e-05)
(0.133128 1.05284e-05 -0.00080897)
(0.133419 0.000399904 -5.14354e-05)
(0.133411 0.00105515 9.1909e-05)
(0.13354 -0.00365045 -5.45489e-05)
(0.13482 -0.005362 0.000155778)
(0.135344 0.00387176 -0.000332256)
(0.134337 0.00495285 -7.86762e-05)
(0.133592 -0.000511272 3.00048e-06)
(0.133441 0.00312559 8.98161e-06)
(0.134596 0.000459293 1.83576e-05)
(0.133784 -0.00381096 -3.23502e-05)
(0.133283 -0.000656509 -0.000172177)
(0.133333 -0.000208503 -9.56805e-05)
(0.133506 -0.0001172 2.492e-06)
(0.133379 7.80271e-05 -4.50882e-05)
(0.133193 0.000335344 -0.000300392)
(0.1332 0.00021607 0.000136265)
(0.133527 0.000741969 0.000194921)
(0.13385 -0.00451863 7.43476e-07)
(0.133526 -0.000859426 8.29087e-05)
(0.134192 0.00448742 7.70561e-05)
(0.134144 -1.85484e-06 0.00114854)
(0.135578 -5.52334e-05 -0.000722199)
(0.134946 0.000475488 -0.00155581)
(0.12747 -0.000876618 -0.0003267)
(0.133319 -0.000432603 0.000210917)
(0.134489 0.000397895 -0.000488317)
(0.128574 -0.00185834 -0.000375355)
(0.131754 0.00273149 -4.55152e-06)
(0.13643 0.000223572 -6.67272e-05)
(0.132208 -0.00200994 -0.000265017)
(0.133436 0.000395329 -8.98107e-05)
(0.13357 0.000360951 -0.000129158)
(0.13365 0.000396244 -8.72823e-05)
(0.133455 0.000468658 -8.19738e-05)
(0.134277 -0.00058237 0.000208879)
(0.13534 0.00182465 -0.0024423)
(0.133036 0.000716901 -0.000239066)
(0.133029 0.000114462 6.5212e-05)
(0.132984 8.86344e-05 -4.05487e-05)
(0.133186 -0.000201066 -0.000362117)
(0.133375 0.000409041 7.39941e-06)
(0.133522 0.00105791 6.92631e-05)
(0.133521 -0.00379421 -0.000116911)
(0.135369 -0.00557942 0.000120027)
(0.13575 0.00410384 -0.000233427)
(0.134324 0.0052699 -7.11141e-05)
(0.133697 -0.000381136 -2.90665e-05)
(0.133347 0.003287 -0.00032103)
(0.136373 0.000449441 -4.27255e-05)
(0.133934 -0.00394284 0.000256009)
(0.133401 -0.000630522 -5.57582e-05)
(0.133377 -0.00021958 -4.3512e-05)
(0.133532 -0.000141801 2.2996e-05)
(0.133387 1.83814e-05 -2.85545e-05)
(0.133193 0.0008106 -0.000193191)
(0.13321 0.000291484 8.83892e-05)
(0.133513 0.000770027 0.000155546)
(0.13392 -0.00470376 1.45423e-05)
(0.132151 -0.000846833 8.46032e-05)
(0.134032 0.00468287 0.000102566)
(0.134165 6.75591e-05 0.000977997)
(0.135417 -0.00039101 0.000174044)
(0.134891 0.000779333 -0.00166792)
(0.127886 -0.000868246 -0.000577075)
(0.134068 -0.000795987 0.000398254)
(0.134449 0.000398316 -0.00019418)
(0.12831 -0.00172984 -0.000267056)
(0.131868 0.00291966 5.82284e-05)
(0.136694 0.000251677 -8.3888e-05)
(0.132368 -0.00198251 -0.000277837)
(0.133377 0.000301979 -0.000105748)
(0.133528 0.000355527 -0.000124708)
(0.133608 0.000388995 -7.43616e-05)
(0.13346 0.000461546 -7.93861e-05)
(0.134149 -0.000542953 0.000388286)
(0.134147 0.00202424 -0.00282279)
(0.132899 0.000870241 -0.000186481)
(0.133017 0.000177814 7.37781e-05)
(0.133143 6.68977e-05 -0.000110621)
(0.133292 0.000424512 0.00035419)
(0.133279 0.000421402 7.72786e-05)
(0.133692 0.00103532 8.68716e-05)
(0.133665 -0.00391113 -5.85376e-05)
(0.134579 -0.00576399 0.000114381)
(0.134915 0.00453671 0.000346876)
(0.134164 0.00549893 -4.47733e-05)
(0.133737 -0.000260604 -5.92376e-05)
(0.133576 0.00341222 -0.000354817)
(0.134322 0.000444944 -4.15487e-05)
(0.133676 -0.00405698 0.000355228)
(0.133382 -0.000657774 -4.10077e-05)
(0.13335 -0.00021783 3.15921e-07)
(0.133546 -0.00014395 -3.15479e-06)
(0.133401 1.33721e-05 -7.79967e-05)
(0.133192 0.000532918 0.000268385)
(0.133198 0.000285522 0.000164972)
(0.133595 0.000746195 0.000140272)
(0.133769 -0.00475429 3.12031e-05)
(0.133446 -0.000843005 0.000112778)
(0.13423 0.00474855 0.00020568)
(0.13407 0.00014203 0.000610543)
(0.13554 -0.000440252 0.0029162)
(0.134657 0.000761991 -0.00134381)
(0.130692 -0.000897321 -0.000544356)
(0.133105 -0.000841163 0.000482309)
(0.134366 0.000417308 -0.000193565)
(0.128214 -0.00153988 -0.000261673)
(0.131921 0.00302667 5.7912e-05)
(0.137298 0.000275188 -8.08625e-05)
(0.132551 -0.00199432 -0.000264956)
(0.133332 0.000196427 -9.16754e-05)
(0.133463 0.000324463 -9.63237e-05)
(0.133588 0.000403823 -8.00119e-05)
(0.133422 0.00044736 -0.000116136)
(0.134193 -0.000618231 0.000505619)
(0.133038 0.00191367 -0.00233708)
(0.132804 0.000947345 -4.9231e-05)
(0.133058 0.000197473 0.000113088)
(0.13318 4.05048e-05 -0.000118309)
(0.133365 0.000441729 0.000548723)
(0.133305 0.000334593 0.000102808)
(0.133769 0.000974042 0.000119296)
(0.133742 -0.00402465 -6.49715e-07)
(0.133712 -0.00591334 6.63567e-05)
(0.133973 0.00441626 0.000628731)
(0.133998 0.00562853 2.42772e-05)
(0.133736 -0.000168824 -6.2698e-05)
(0.13377 0.00356885 -0.000230857)
(0.132461 0.000478748 -2.05488e-05)
(0.133471 -0.00419834 0.000281425)
(0.133314 -0.000702619 -8.00488e-05)
(0.13335 -0.000223136 2.82614e-05)
(0.133588 -0.000152467 -1.13229e-06)
(0.133467 2.45568e-05 -0.000115563)
(0.133216 9.64815e-06 0.000616625)
(0.13319 0.000199932 0.000249592)
(0.133685 0.000701803 0.00014637)
(0.133645 -0.00483429 3.27094e-05)
(0.134571 -0.00086766 0.000124396)
(0.134336 0.00482713 0.00019982)
(0.13407 0.000224518 0.000536342)
(0.135679 -0.000177047 0.0033453)
(0.134662 0.000404395 -0.00112763)
(0.131441 -0.000995062 -0.000371267)
(0.132062 -0.000554425 0.000458546)
(0.134218 0.000501451 -0.000356825)
(0.128215 -0.00136554 -0.000285048)
(0.131976 0.00314626 -5.58736e-05)
(0.137689 0.00028627 -7.51305e-05)
(0.132694 -0.0020163 -0.000361965)
(0.133384 0.000116479 -7.47815e-05)
(0.133441 0.000283929 -6.37687e-05)
(0.133586 0.000411642 -5.85469e-05)
(0.133381 0.000433375 -0.000106315)
(0.134244 -0.000628773 0.0004397)
(0.133046 0.00152667 -6.33708e-05)
(0.132762 0.000984396 0.000103959)
(0.133116 0.000210219 0.000116775)
(0.13311 5.16712e-05 -2.8623e-05)
(0.13339 0.000199065 -7.45982e-05)
(0.133417 0.000264395 3.44389e-05)
(0.133778 0.000932023 9.1844e-05)
(0.133701 -0.00421052 0.000109577)
(0.133637 -0.00608011 7.27501e-06)
(0.133993 0.00419947 0.000460332)
(0.133981 0.00569922 8.30612e-05)
(0.133763 -9.14761e-05 -7.8117e-05)
(0.133776 0.00353186 0.000129307)
(0.132565 0.000514509 8.32963e-05)
(0.133485 -0.00410788 -0.000119489)
(0.133354 -0.000701053 -0.000132812)
(0.133395 -0.000239471 2.06044e-05)
(0.133635 -0.000173178 2.57108e-05)
(0.133545 4.09937e-06 -9.54833e-05)
(0.133242 -0.000317333 0.000692814)
(0.133183 7.60544e-05 0.000266505)
(0.13373 0.000630194 0.00014956)
(0.133615 -0.00483677 4.16333e-05)
(0.134442 -0.000863498 0.000111802)
(0.134197 0.00485795 0.000154814)
(0.13412 0.000299249 0.00083112)
(0.135819 6.29501e-05 0.000769102)
(0.134741 -0.000123942 -0.00111292)
(0.131409 -0.00131345 -7.15525e-05)
(0.131957 -0.000134872 0.000300412)
(0.134058 0.00076378 -0.000656534)
(0.128343 -0.00120134 -0.000315591)
(0.132097 0.00335282 -0.000178911)
(0.137696 0.000357924 -7.8311e-05)
(0.132819 -0.0025343 -4.78016e-05)
(0.133391 1.24656e-05 -4.40951e-06)
(0.133419 0.00025588 -6.63316e-05)
(0.133589 0.000384836 -2.80465e-05)
(0.133433 0.000414024 1.1521e-06)
(0.134303 -0.000597164 0.000233046)
(0.133872 0.00181795 -0.000780514)
(0.132819 0.000996559 -4.46803e-05)
(0.133144 0.00023688 0.000145873)
(0.133077 0.000135006 2.31018e-05)
(0.133369 -5.60496e-05 -0.00062616)
(0.133571 0.000263798 -3.64013e-05)
(0.133701 0.000844722 7.83107e-05)
(0.133579 -0.00440819 8.12498e-05)
(0.134009 -0.00611708 1.31271e-05)
(0.134338 0.00405495 -0.000231884)
(0.133997 0.00577693 -1.13751e-06)
(0.13379 -3.31333e-05 -8.63583e-05)
(0.133648 0.00336227 0.000290871)
(0.134045 0.000473378 0.000129622)
(0.133677 -0.00385084 -0.000291206)
(0.133412 -0.000609669 -0.00015642)
(0.13349 -0.000207485 3.86482e-05)