/*--------------------------------*- C++ -*----------------------------------*\
  =========                 |
  \\      /  F ield         | OpenFOAM: The Open Source CFD Toolbox
   \\    /   O peration     | Website:  https://openfoam.org
    \\  /    A nd           | Version:  10
     \\/     M anipulation  |
\*---------------------------------------------------------------------------*/
FoamFile
{
    format      ascii;
    class       volScalarField;
    location    "30";
    object      p;
}
// * * * * * * * * * * * * * * * * * * * * * * * * * * * * * * * * * * * * * //

dimensions      [0 2 -2 0 0 0 0];

internalField   nonuniform List<scalar> 
25600
(
2.45412e-07
-9.13555e-06
5.41327e-06
-7.24154e-06
-1.1407e-06
2.71331e-06
-8.94797e-06
1.54574e-06
-3.01162e-06
1.05141e-07
-3.96638e-06
-1.42745e-06
-9.10355e-07
-4.26447e-06
1.49428e-06
-3.76687e-06
-3.4837e-06
3.13576e-07
-2.43112e-06
-4.23132e-06
1.02298e-06
-2.22121e-06
-5.43764e-06
7.60813e-07
-1.59393e-06
-3.59058e-06
-1.91344e-06
-3.11619e-06
2.84717e-06
-8.26688e-06
1.3499e-06
1.95889e-06
-1.02255e-05
4.05912e-06
-1.16349e-06
-7.26327e-06
8.15298e-07
1.38525e-06
-8.86439e-06
2.35739e-06
-5.75119e-06
-3.98496e-06
2.56167e-06
-8.14172e-06
2.24433e-06
-4.48693e-07
-7.66242e-06
1.53174e-06
-2.29751e-06
-2.70568e-06
-2.34666e-07
-3.10259e-06
-3.56266e-06
1.13532e-06
-2.26262e-06
-3.70214e-06
-9.8559e-07
-1.45611e-06
-3.17825e-06
-2.10925e-06
-3.79791e-07
-3.75893e-06
-1.43883e-07
-5.46714e-06
2.00902e-06
-2.58857e-06
-5.48309e-06
1.21042e-06
-2.7841e-06
-4.40799e-06
-6.87083e-07
1.49052e-06
-7.78588e-06
1.80191e-07
2.61679e-06
-1.06742e-05
3.73371e-06
-1.55599e-07
-1.06721e-05
7.32328e-06
-1.0396e-05
1.42666e-06
-4.07682e-07
-9.03898e-06
6.00307e-06
-4.21276e-06
-5.24244e-06
1.38234e-06
-2.80206e-06
-2.93334e-06
1.09511e-06
-4.03607e-06
-4.92348e-06
4.05e-06
-4.33907e-06
-4.4359e-06
1.49051e-06
-3.1254e-06
-3.8863e-06
5.41876e-07
-3.17905e-06
-3.10011e-06
2.24687e-06
-9.81204e-06
4.43485e-06
-2.20901e-06
-7.33587e-06
3.68568e-06
-5.83777e-06
-1.21833e-06
-1.50607e-06
-6.24215e-07
-4.21413e-06
-3.07301e-06
3.37748e-06
-1.0671e-05
4.84531e-06
-2.74298e-06
-9.51928e-06
9.6531e-06
-1.31995e-05
5.44885e-06
-2.63716e-06
-9.96176e-06
9.06555e-06
-7.26233e-06
-2.87637e-06
1.067e-06
-3.89249e-06
-1.40414e-06
4.53421e-07
-4.19954e-06
-5.05316e-06
4.8859e-06
-4.93361e-06
-5.49818e-06
3.57557e-06
-4.84316e-06
-3.93311e-06
2.49866e-06
-5.97111e-06
-1.14374e-06
2.1059e-06
-1.08483e-05
4.77044e-06
-1.68103e-06
-7.55812e-06
3.42257e-06
-6.47185e-06
1.92053e-07
-1.93291e-06
-2.55987e-06
-1.17469e-06
-4.67525e-06
2.27065e-06
-7.86896e-06
4.20307e-06
-5.12285e-06
-6.79578e-06
9.53589e-06
-1.44694e-05
8.00915e-06
-4.09254e-06
-1.05492e-05
1.09109e-05
-9.11001e-06
-1.40775e-06
6.24317e-07
-4.82487e-06
2.06398e-07
-4.52536e-07
-4.5095e-06
-4.23709e-06
4.5975e-06
-5.07925e-06
-5.88441e-06
4.78871e-06
-6.28618e-06
-3.44177e-06
3.59938e-06
-8.28945e-06
1.10408e-06
7.90695e-07
-1.02837e-05
4.12008e-06
-1.03373e-06
-6.99273e-06
1.62629e-06
-5.17256e-06
1.3322e-07
-2.0003e-06
-3.76571e-06
7.75548e-07
-5.36375e-06
2.24244e-07
-4.30541e-06
2.57558e-06
-6.94113e-06
-3.61533e-06
8.21308e-06
-1.45628e-05
9.3745e-06
-4.97956e-06
-1.06065e-05
1.14821e-05
-9.6461e-06
-8.81241e-07
5.49768e-07
-5.59477e-06
1.53451e-06
-1.08312e-06
-5.35815e-06
-2.4605e-06
3.37578e-06
-4.97274e-06
-5.64467e-06
5.17594e-06
-7.36654e-06
-2.62733e-06
3.96231e-06
-1.00769e-05
3.20615e-06
-9.50031e-07
-9.04626e-06
3.0771e-06
-5.29694e-07
-6.05475e-06
-6.77754e-07
-2.99684e-06
-6.09988e-07
-2.02844e-06
-4.26615e-06
1.61671e-06
-5.20205e-06
-2.02247e-06
-9.6362e-07
8.45614e-07
-8.23302e-06
-6.42321e-07
6.26674e-06
-1.3738e-05
9.69043e-06
-5.4494e-06
-1.0097e-05
1.08729e-05
-9.19653e-06
-1.06531e-06
7.18487e-07
-6.26317e-06
2.62823e-06
-1.61728e-06
-6.29511e-06
-4.00564e-07
1.87839e-06
-4.77053e-06
-5.02641e-06
4.99257e-06
-8.14734e-06
-1.59119e-06
3.76109e-06
-1.10574e-05
4.88669e-06
-2.50035e-06
-7.81287e-06
2.06947e-06
-2.76544e-07
-5.08591e-06
-2.80603e-06
-7.75563e-07
-1.71638e-06
-2.08549e-06
-4.21444e-06
1.60491e-06
-4.5889e-06
-3.94648e-06
1.66591e-06
-6.9352e-07
-9.00573e-06
1.89039e-06
4.02109e-06
-1.21326e-05
9.08891e-06
-5.5232e-06
-9.23096e-06
9.56794e-06
-7.93948e-06
-1.51551e-06
9.30575e-07
-6.80711e-06
3.38051e-06
-1.95326e-06
-7.08741e-06
1.18937e-06
4.27213e-07
-4.65913e-06
-4.09083e-06
4.32996e-06
-8.53421e-06
-6.63705e-07
3.29404e-06
-1.15763e-05
6.05458e-06
-3.6759e-06
-6.90941e-06
1.61053e-06
-2.33798e-07
-4.26339e-06
-4.31222e-06
1.03434e-06
-2.84786e-06
-2.04401e-06
-3.81681e-06
1.01788e-06
-3.76921e-06
-5.31067e-06
3.47352e-06
-1.91328e-06
-9.30298e-06
3.82192e-06
1.70015e-06
-9.99913e-06
7.75914e-06
-5.23013e-06
-8.1658e-06
7.87997e-06
-6.72628e-06
-2.03067e-06
1.14065e-06
-7.10139e-06
3.80887e-06
-2.12924e-06
-7.72807e-06
2.75064e-06
-8.73699e-07
-4.56587e-06
-3.13221e-06
3.4746e-06
-8.61619e-06
2.03219e-08
2.78103e-06
-1.18693e-05
6.81639e-06
-4.43407e-06
-6.47825e-06
1.46365e-06
-4.56287e-07
-4.45079e-06
-5.04876e-06
2.11786e-06
-3.76126e-06
-1.9496e-06
-3.20925e-06
1.85432e-07
-2.87876e-06
-6.2828e-06
4.58417e-06
-2.85764e-06
-9.07157e-06
5.07931e-06
-4.92089e-07
-7.54487e-06
5.95397e-06
-4.76192e-06
-6.95545e-06
6.04124e-06
-5.42949e-06
-2.46292e-06
1.28621e-06
-7.29229e-06
4.09046e-06
-2.25299e-06
-8.14657e-06
3.91408e-06
-2.02534e-06
-4.39975e-06
-2.24286e-06
2.62663e-06
-8.58489e-06
5.79426e-07
2.31466e-06
-1.19517e-05
7.27043e-06
-4.70978e-06
-6.51976e-06
1.77869e-06
-8.94612e-07
-4.16381e-06
-5.06575e-06
2.52276e-06
-4.42167e-06
-1.76586e-06
-2.58249e-06
-8.10782e-07
-1.94744e-06
-6.87813e-06
5.15526e-06
-3.62347e-06
-8.4108e-06
5.66728e-06
-2.3706e-06
-4.88103e-06
3.96478e-06
-4.16517e-06
-5.68574e-06
4.16105e-06
-4.22685e-06
-2.72205e-06
1.36379e-06
-7.42594e-06
4.26107e-06
-2.48996e-06
-8.26281e-06
4.74848e-06
-2.99906e-06
-4.25577e-06
-1.43732e-06
1.84557e-06
-8.38886e-06
9.75214e-07
1.9382e-06
-1.19984e-05
7.55897e-06
-4.733e-06
-6.97123e-06
2.50114e-06
-1.55215e-06
-4.13845e-06
-4.55838e-06
2.38296e-06
-4.91452e-06
-1.47911e-06
-2.06677e-06
-1.85319e-06
-1.10119e-06
-7.1945e-06
5.30226e-06
-4.20257e-06
-7.40434e-06
5.69191e-06
-3.98447e-06
-2.26076e-06
1.41154e-06
-3.45462e-06
-4.40607e-06
2.35725e-06
-3.32112e-06
-2.86257e-06
1.30643e-06
-7.44634e-06
4.36614e-06
-2.7415e-06
-8.19534e-06
5.32646e-06
-3.7483e-06
-4.09486e-06
-7.03484e-07
1.17179e-06
-8.1356e-06
1.24872e-06
1.73103e-06
-1.20874e-05
7.67395e-06
-4.6992e-06
-7.67201e-06
3.51237e-06
-2.37572e-06
-4.28197e-06
-3.68016e-06
1.89417e-06
-5.28605e-06
-1.12595e-06
-1.67377e-06
-2.81754e-06
-3.39268e-07
-7.31678e-06
5.09989e-06
-4.67779e-06
-6.094e-06
5.36525e-06
-5.26916e-06
4.38556e-07
-7.96206e-07
-2.6785e-06
-3.20936e-06
6.58824e-07
-2.60432e-06
-2.83881e-06
1.1404e-06
-7.4284e-06
4.42013e-06
-2.94243e-06
-7.97419e-06
5.69551e-06
-4.30974e-06
-3.92342e-06
1.64114e-07
7.91441e-07
-7.88655e-06
1.42529e-06
1.65142e-06
-1.22834e-05
7.84581e-06
-4.82245e-06
-8.51288e-06
4.6964e-06
-3.3009e-06
-4.35915e-06
-2.55673e-06
1.20824e-06
-5.58841e-06
-7.52224e-07
-1.39753e-06
-3.70149e-06
5.4545e-07
-7.31859e-06
4.70465e-06
-5.08487e-06
-4.58142e-06
4.73296e-06
-6.20154e-06
2.97734e-06
-2.95912e-06
-1.70792e-06
-2.061e-06
-9.63412e-07
-2.07905e-06
-2.63914e-06
9.2945e-07
-7.40364e-06
4.4603e-06
-3.10455e-06
-7.68194e-06
5.86572e-06
-4.69531e-06
-3.79727e-06
1.49159e-08
1.64956e-07
-7.65036e-06
1.53378e-06
1.69488e-06
-1.25371e-05
8.05101e-06
-4.34904e-06
-9.38918e-06
5.98308e-06
-4.24604e-06
-4.58541e-06
-1.34723e-06
4.87248e-07
-5.84824e-06
-3.27749e-07
-1.22821e-06
-4.53794e-06
1.40966e-06
-7.24368e-06
4.13855e-06
-5.35979e-06
-3.32564e-06
3.81743e-06
-6.91157e-06
4.43143e-06
-5.11813e-06
-7.72078e-07
-9.73377e-07
-2.4227e-06
-1.71012e-06
-2.34745e-06
6.61471e-07
-7.31767e-06
4.47599e-06
-3.30727e-06
-7.38231e-06
5.89408e-06
-4.95503e-06
-3.65711e-06
4.95937e-08
-3.32093e-07
-7.45012e-06
1.58473e-06
1.85037e-06
-1.28334e-05
8.26685e-06
-4.46619e-06
-1.0262e-05
7.34076e-06
-5.39089e-06
-4.87818e-06
-3.49445e-07
-2.55124e-07
-6.02414e-06
8.75759e-08
-1.26985e-06
-5.37613e-06
2.29261e-06
-7.07255e-06
3.37289e-06
-5.63008e-06
-1.89331e-06
2.6926e-06
-7.39793e-06
5.95495e-06
-7.06877e-06
-1.20796e-07
-9.39622e-08
-3.79756e-06
-1.50054e-06
-1.99246e-06
3.99366e-07
-7.23684e-06
4.42434e-06
-3.55663e-06
-7.0534e-06
5.93645e-06
-5.28227e-06
-3.58444e-06
9.13786e-08
-7.2475e-07
-7.35838e-06
1.58744e-06
2.04021e-06
-1.33803e-05
8.57218e-06
-3.66657e-06
-1.11817e-05
8.67316e-06
-6.7362e-06
-5.17486e-06
1.04469e-06
-1.18174e-06
-6.2481e-06
6.17471e-07
-1.33552e-06
-5.97209e-06
2.95074e-06
-6.93821e-06
2.63503e-06
-5.83674e-06
-6.07685e-07
1.47144e-06
-7.62975e-06
7.34852e-06
-8.79634e-06
6.14501e-07
6.32756e-07
-5.13371e-06
-1.49601e-06
-1.59794e-06
2.35831e-07
-7.12848e-06
4.26932e-06
-3.94989e-06
-6.74927e-06
6.00741e-06
-5.57443e-06
-3.56687e-06
-1.79906e-08
-1.10035e-06
-7.20633e-06
1.60852e-06
2.13764e-06
-1.40415e-05
8.94949e-06
-3.23443e-06
-1.20952e-05
9.88751e-06
-7.74851e-06
-5.47525e-06
2.35165e-06
-2.0697e-06
-6.63562e-06
1.07409e-06
-1.39866e-06
-6.46068e-06
3.53309e-06
-6.90491e-06
1.81938e-06
-5.96672e-06
7.27182e-07
1.71553e-07
-7.87213e-06
8.58011e-06
-1.00874e-05
1.29309e-06
1.0648e-06
-6.48882e-06
-1.59453e-06
-1.01078e-06
1.80305e-07
-7.12112e-06
3.90893e-06
-4.38048e-06
-6.30657e-06
6.15645e-06
-5.95852e-06
-3.72325e-06
-1.8104e-07
-1.22888e-06
-6.85073e-06
1.59085e-06
2.03084e-06
-1.47794e-05
9.51299e-06
-2.7595e-06
-1.29812e-05
1.08073e-05
-8.74227e-06
-5.5378e-06
3.73771e-06
-3.02834e-06
-7.17685e-06
1.50812e-06
-1.36827e-06
-6.73807e-06
3.90129e-06
-7.0682e-06
1.0121e-06
-5.84002e-06
2.03778e-06
-1.203e-06
-8.16477e-06
9.75055e-06
-1.08431e-05
1.89385e-06
1.21083e-06
-7.97067e-06
-1.66625e-06
-1.33649e-07
2.35721e-07
-7.25721e-06
3.27605e-06
-4.71751e-06
-5.63237e-06
6.34148e-06
-6.4795e-06
-4.19181e-06
-2.73774e-07
-9.9173e-07
-6.48795e-06
1.4376e-06
1.67275e-06
-1.54115e-05
1.03497e-05
-2.24367e-06
-1.38838e-05
1.13704e-05
-9.57023e-06
-5.26149e-06
5.1333e-06
-4.10198e-06
-7.81796e-06
2.05595e-06
-1.09423e-06
-6.80644e-06
3.99146e-06
-7.49885e-06
3.09074e-07
-5.3176e-06
3.28963e-06
-2.59882e-06
-8.58736e-06
1.16362e-05
-1.12215e-05
1.76397e-06
8.28545e-07
-8.99568e-06
-1.03199e-06
8.05213e-07
-2.05652e-07
-7.89877e-06
2.94093e-06
-4.28513e-06
-4.90774e-06
6.00603e-06
-7.50565e-06
-4.43978e-06
3.66963e-07
-5.2838e-07
-6.65908e-06
7.65664e-07
1.45808e-06
-1.51336e-05
1.13004e-05
-2.30189e-06
-1.51732e-05
1.19462e-05
-9.43785e-06
-4.79702e-06
5.84261e-06
-5.52912e-06
-8.20287e-06
3.27864e-06
-6.99366e-07
-7.3189e-06
3.52787e-06
-7.62293e-06
3.67984e-07
-4.57821e-06
3.76944e-06
-4.23351e-06
-8.62515e-06
1.16435e-05
-1.19705e-05
1.60997e-06
9.13828e-07
-9.20187e-06
-3.63553e-07
9.57288e-07
-9.07975e-07
-8.02011e-06
3.23395e-06
-3.75925e-06
-4.87783e-06
5.49184e-06
-7.8243e-06
-4.01377e-06
1.03294e-06
-7.352e-07
-7.16961e-06
6.63432e-07
1.90373e-06
-1.49698e-05
1.14802e-05
-2.80983e-06
-1.58578e-05
1.29717e-05
-9.33463e-06
-5.03084e-06
5.97941e-06
-5.67391e-06
-7.96517e-06
3.88605e-06
-9.09172e-07
-8.11063e-06
3.50785e-06
-7.01902e-06
3.36187e-07
-4.56493e-06
3.63513e-06
-5.05714e-06
-8.06794e-06
1.14249e-05
-1.2532e-05
1.7071e-06
1.26322e-06
-9.34248e-06
-1.71614e-07
8.78645e-07
-1.13005e-06
-7.81506e-06
3.37781e-06
-3.67424e-06
-4.99027e-06
5.39403e-06
-7.74148e-06
-3.72513e-06
1.21185e-06
-9.96655e-07
-7.18069e-06
8.3091e-07
2.17012e-06
-1.5038e-05
1.14636e-05
-2.76684e-06
-1.61379e-05
1.35207e-05
-9.39349e-06
-5.29116e-06
6.30744e-06
-5.64044e-06
-7.9058e-06
4.10209e-06
-1.12074e-06
-8.24272e-06
3.76243e-06
-6.61697e-06
-3.50969e-09
-4.65077e-06
3.68791e-06
-5.28999e-06
-7.74248e-06
1.12039e-05
-1.26936e-05
1.73007e-06
1.49774e-06
-9.39545e-06
-1.51334e-07
8.89386e-07
-1.18645e-06
-7.65862e-06
3.41458e-06
-3.69922e-06
-4.93609e-06
5.33075e-06
-7.64605e-06
-3.53914e-06
1.30854e-06
-1.13068e-06
-7.13712e-06
1.0194e-06
2.22951e-06
-1.49543e-05
1.14252e-05
-2.68905e-06
-1.59774e-05
1.3708e-05
-9.32486e-06
-5.45691e-06
6.4994e-06
-5.61768e-06
-7.88548e-06
4.18801e-06
-1.11834e-06
-8.29644e-06
3.92127e-06
-6.36324e-06
-2.90442e-07
-4.5473e-06
3.70233e-06
-5.43781e-06
-7.57583e-06
1.09477e-05
-1.26939e-05
1.63717e-06
1.54977e-06
-9.31671e-06
-2.34473e-07
9.07909e-07
-1.32441e-06
-7.48476e-06
3.43164e-06
-3.74833e-06
-4.78036e-06
5.13512e-06
-7.56045e-06
-3.3356e-06
1.31727e-06
-1.17491e-06
-7.11657e-06
1.09117e-06
2.26594e-06
-1.48479e-05
1.12752e-05
-2.61918e-06
-1.57954e-05
1.36779e-05
-9.10668e-06
-5.66763e-06
6.54947e-06
-5.5071e-06
-7.85877e-06
4.2742e-06
-1.15531e-06
-8.34056e-06
4.00375e-06
-6.19897e-06
-4.77364e-07
-4.48306e-06
3.59921e-06
-5.45705e-06
-7.39004e-06
1.06606e-05
-1.25686e-05
1.46846e-06
1.64174e-06
-9.09102e-06
-4.13048e-07
8.74172e-07
-1.42672e-06
-7.34774e-06
3.40432e-06
-3.73599e-06
-4.69313e-06
4.88314e-06
-7.3683e-06
-3.23717e-06
1.36522e-06
-1.22753e-06
-7.1583e-06
1.2278e-06
2.20845e-06
-1.46853e-05
1.10754e-05
-2.67096e-06
-1.54683e-05
1.3556e-05
-8.9148e-06
-5.81437e-06
6.49965e-06
-5.41572e-06
-7.76576e-06
4.29506e-06
-1.27386e-06
-8.29153e-06
3.92506e-06
-6.02982e-06
-5.48633e-07
-4.54331e-06
3.5016e-06
-5.4256e-06
-7.2478e-06
1.03677e-05
-1.24282e-05
1.28673e-06
1.69876e-06
-8.85788e-06
-6.17814e-07
8.67239e-07
-1.54782e-06
-7.22962e-06
3.399e-06
-3.76498e-06
-4.62939e-06
4.64302e-06
-7.22157e-06
-3.15279e-06
1.31553e-06
-1.32458e-06
-7.16071e-06
1.30852e-06
2.09782e-06
-1.44393e-05
1.0782e-05
-2.76053e-06
-1.50725e-05
1.32992e-05
-8.74644e-06
-5.87755e-06
6.32273e-06
-5.29236e-06
-7.64061e-06
4.22354e-06
-1.39343e-06
-8.2303e-06
3.80072e-06
-5.8389e-06
-6.27273e-07
-4.61393e-06
3.41747e-06
-5.42847e-06
-7.0643e-06
1.00419e-05
-1.22859e-05
1.14858e-06
1.66141e-06
-8.63079e-06
-7.75443e-07
8.1412e-07
-1.67595e-06
-7.09856e-06
3.35139e-06
-3.80662e-06
-4.56259e-06
4.37749e-06
-7.08466e-06
-3.07833e-06
1.22684e-06
-1.41115e-06
-7.16203e-06
1.34312e-06
1.97202e-06
-1.41839e-05
1.04823e-05
-2.88645e-06
-1.46842e-05
1.30003e-05
-8.61277e-06
-5.89554e-06
6.1002e-06
-5.17613e-06
-7.5261e-06
4.12265e-06
-1.51376e-06
-8.15655e-06
3.67275e-06
-5.68928e-06
-6.87199e-07
-4.68037e-06
3.30909e-06
-5.42809e-06
-6.85782e-06
9.72567e-06
-1.21556e-05
1.03615e-06
1.5669e-06
-8.41737e-06
-9.0129e-07
7.40343e-07
-1.78514e-06
-6.99671e-06
3.28903e-06
-3.84791e-06
-4.51601e-06
4.12837e-06
-6.96414e-06
-3.02805e-06
1.12903e-06
-1.49067e-06
-7.16848e-06
1.35359e-06
1.83522e-06
-1.39401e-05
1.02028e-05
-3.04016e-06
-1.43124e-05
1.2693e-05
-8.52592e-06
-5.8674e-06
5.86013e-06
-5.09331e-06
-7.41394e-06
4.00915e-06
-1.63546e-06
-8.0785e-06
3.54234e-06
-5.57843e-06
-7.33666e-07
-4.74831e-06
3.20228e-06
-5.43799e-06
-6.66692e-06
9.44604e-06
-1.2058e-05
9.5456e-07
1.44816e-06
-8.24576e-06
-1.00476e-06
6.6369e-07
-1.88204e-06
-6.92377e-06
3.22627e-06
-3.89503e-06
-4.47641e-06
3.91418e-06
-6.87697e-06
-2.99324e-06
1.03276e-06
-1.5649e-06
-7.17762e-06
1.34478e-06
1.70237e-06
-1.37344e-05
9.96542e-06
-3.1956e-06
-1.39963e-05
1.24118e-05
-8.47715e-06
-5.82069e-06
5.62964e-06
-5.04192e-06
-7.31749e-06
3.894e-06
-1.74926e-06
-8.01156e-06
3.42062e-06
-5.50838e-06
-7.72255e-07
-4.81097e-06
3.10339e-06
-5.46433e-06
-6.50485e-06
9.22099e-06
-1.20009e-05
9.0024e-07
1.32612e-06
-8.127e-06
-1.0833e-06
5.89193e-07
-1.9638e-06
-6.88201e-06
3.16762e-06
-3.94408e-06
-4.45124e-06
3.74248e-06
-6.82814e-06
-2.9742e-06
9.45343e-07
-1.63124e-06
-7.19315e-06
1.32182e-06
1.58465e-06
-1.3585e-05
9.78434e-06
-3.34042e-06
-1.37609e-05
1.21849e-05
-8.46638e-06
-5.77586e-06
5.43517e-06
-5.02515e-06
-7.24888e-06
3.79101e-06
-1.84866e-06
-7.96745e-06
3.31532e-06
-5.47744e-06
-8.05373e-07
-4.86804e-06
3.01686e-06
-5.50404e-06
-6.38604e-06
9.05998e-06
-1.19874e-05
8.64688e-07
1.21647e-06
-8.06568e-06
-1.14069e-06
5.22465e-07
-2.03065e-06
-6.87374e-06
3.1169e-06
-3.9943e-06
-4.44505e-06
3.61663e-06
-6.81943e-06
-2.97231e-06
8.71742e-07
-1.68938e-06
-7.21805e-06
1.28993e-06
1.48789e-06
-1.35019e-05
9.66372e-06
-3.46574e-06
-1.36171e-05
1.20247e-05
-8.48948e-06
-5.74703e-06
5.28953e-06
-5.04162e-06
-7.21451e-06
3.708e-06
-1.93254e-06
-7.95233e-06
3.23086e-06
-5.48119e-06
-8.36818e-07
-4.92047e-06
2.9464e-06
-5.5559e-06
-6.31774e-06
8.95909e-06
-1.20121e-05
8.5048e-07
1.12174e-06
-8.051e-06
-1.18081e-06
4.678e-07
-2.08264e-06
-6.89358e-06
3.07845e-06
-4.04528e-06
-4.45123e-06
3.53222e-06
-6.84319e-06
-2.98147e-06
8.10351e-07
-1.73627e-06
-7.25101e-06
1.25653e-06
1.41317e-06
-1.34796e-05
9.60924e-06
-3.57156e-06
-1.35565e-05
1.19244e-05
-8.53744e-06
-5.73319e-06
5.18888e-06
-5.07963e-06
-7.21123e-06
3.6489e-06
-2.00179e-06
-7.96192e-06
3.16902e-06
-5.5123e-06
-8.61868e-07
-4.97101e-06
2.89972e-06
-5.61888e-06
-6.29163e-06
-3.70283e-07
-8.43652e-06
5.02865e-06
-7.31041e-06
-1.04254e-06
3.00803e-06
-9.23762e-06
1.86169e-06
-4.17479e-06
2.05545e-06
-4.52779e-06
-2.4531e-06
9.87726e-07
-5.71736e-06
2.09067e-06
-4.0295e-06
-3.63512e-06
7.54008e-07
-3.11739e-06
-3.89439e-06
1.19822e-06
-2.73225e-06
-5.4515e-06
1.32401e-06
-2.36405e-06
-3.34256e-06
-1.40035e-06
-4.09737e-06
3.39473e-06
-8.93093e-06
1.20406e-06
2.71016e-06
-1.10057e-05
4.67903e-06
-1.07173e-06
-7.94434e-06
1.80615e-06
5.84106e-07
-8.40693e-06
2.33476e-06
-6.90415e-06
-3.21553e-06
2.63683e-06
-8.88246e-06
2.94861e-06
-3.73915e-07
-8.15044e-06
2.02942e-06
-3.33409e-06
-1.18477e-06
-8.57097e-07
-3.98634e-06
-2.09619e-06
1.87536e-07
-1.70052e-06
-4.1391e-06
-8.75806e-07
-1.09565e-06
-4.03825e-06
-1.48167e-06
-1.7061e-08
-4.5717e-06
2.12777e-07
-4.76782e-06
9.51874e-07
-1.76987e-06
-5.5223e-06
6.69124e-07
-1.58111e-06
-5.21796e-06
-4.04203e-07
1.91897e-06
-8.41247e-06
7.50777e-07
2.64644e-06
-1.14495e-05
4.87133e-06
-8.82923e-07
-1.07824e-05
8.02745e-06
-1.1714e-05
1.92968e-06
1.4988e-07
-1.02275e-05
7.0201e-06
-4.24128e-06
-5.60492e-06
1.91715e-06
-3.49284e-06
-1.91939e-06
6.19332e-07
-4.60811e-06
-4.04544e-06
3.59194e-06
-4.04556e-06
-4.9079e-06
1.7331e-06
-2.86315e-06
-4.75465e-06
1.22852e-06
-2.77251e-06
-4.15124e-06
2.87569e-06
-9.77285e-06
3.43443e-06
-1.00615e-06
-8.0543e-06
3.77858e-06
-5.24709e-06
-2.08049e-06
-7.97253e-07
-7.14899e-07
-4.3397e-06
-2.9094e-06
3.3198e-06
-1.1221e-05
6.00831e-06
-3.31771e-06
-1.01017e-05
1.0978e-05
-1.45155e-05
5.65548e-06
-1.7284e-06
-1.13396e-05
1.01243e-05
-7.30645e-06
-3.53218e-06
1.58045e-06
-4.22012e-06
-9.23658e-07
2.62925e-07
-4.62265e-06
-4.65295e-06
4.80804e-06
-4.81827e-06
-5.89398e-06
3.80736e-06
-4.63471e-06
-4.85734e-06
3.33106e-06
-5.75318e-06
-2.21224e-06
2.92897e-06
-1.10751e-05
4.2828e-06
-4.15384e-07
-8.74628e-06
3.99698e-06
-6.22752e-06
-6.29173e-07
-1.06753e-06
-3.16188e-06
-7.58665e-07
-4.55404e-06
1.94404e-06
-8.17841e-06
5.2045e-06
-5.58452e-06
-7.59452e-06
1.11735e-05
-1.56434e-05
7.95141e-06
-2.92898e-06
-1.19254e-05
1.18459e-05
-9.03085e-06
-2.21759e-06
1.23502e-06
-4.97174e-06
2.41722e-07
-4.02672e-07
-4.83579e-06
-4.15156e-06
4.69605e-06
-4.97795e-06
-6.26782e-06
5.0058e-06
-6.09752e-06
-4.42419e-06
4.60736e-06
-8.32355e-06
2.44053e-07
1.60142e-06
-1.07761e-05
3.95428e-06
1.5433e-07
-8.44119e-06
2.49762e-06
-5.11714e-06
-6.34633e-07
-9.55039e-07
-4.81888e-06
1.67937e-06
-5.43884e-06
-3.48399e-07
-4.18145e-06
3.31178e-06
-7.29041e-06
-4.45446e-06
9.85549e-06
-1.55348e-05
9.04821e-06
-3.64974e-06
-1.19203e-05
1.22228e-05
-9.45624e-06
-1.81946e-06
1.21244e-06
-5.64629e-06
1.19549e-06
-8.32917e-07
-5.66585e-06
-2.62759e-06
3.58283e-06
-4.80783e-06
-6.07201e-06
5.39061e-06
-7.20481e-06
-3.63045e-06
5.16318e-06
-1.03029e-05
2.61662e-06
-2.86814e-07
-9.58763e-06
3.27169e-06
5.64229e-07
-7.65979e-06
3.33522e-07
-3.04971e-06
-1.30988e-06
-8.45498e-07
-5.6821e-06
2.9228e-06
-5.42922e-06
-2.78851e-06
-4.42692e-07
1.28927e-06
-8.52354e-06
-1.38415e-06
7.78926e-06
-1.45201e-05
9.20654e-06
-4.05535e-06
-1.1372e-05
1.15031e-05
-9.03757e-06
-2.13921e-06
1.4503e-06
-6.3382e-06
2.02077e-06
-1.2354e-06
-6.65012e-06
-7.78049e-07
2.02438e-06
-4.44966e-06
-5.52154e-06
5.22994e-06
-8.05655e-06
-2.58495e-06
5.08548e-06
-1.15553e-05
4.58021e-06
-2.11566e-06
-8.29679e-06
2.68206e-06
7.47303e-07
-6.75591e-06
-1.79582e-06
-8.73959e-07
-2.29861e-06
-8.61368e-07
-5.79311e-06
3.13862e-06
-4.9505e-06
-4.87008e-06
2.54031e-06
-5.1122e-07
-9.25951e-06
1.24524e-06
5.39863e-06
-1.28046e-05
8.56085e-06
-4.1591e-06
-1.04112e-05
1.00742e-05
-8.08453e-06
-2.66317e-06
1.76863e-06
-6.76029e-06
2.64625e-06
-1.56166e-06
-7.49641e-06
1.02394e-06
4.8219e-07
-4.15731e-06
-4.7164e-06
4.62856e-06
-8.525e-06
-1.56246e-06
4.64238e-06
-1.2248e-05
5.97098e-06
-3.50382e-06
-7.25547e-06
2.13233e-06
6.96941e-07
-6.04893e-06
-3.37421e-06
9.65744e-07
-3.32703e-06
-8.75664e-07
-5.43896e-06
2.66044e-06
-4.19644e-06
-6.25967e-06
4.51191e-06
-1.94623e-06
-9.49734e-06
3.26873e-06
2.96486e-06
-1.05838e-05
7.27642e-06
-4.02922e-06
-9.21352e-06
8.46895e-06
-6.8493e-06
-3.2139e-06
2.06069e-06
-7.11217e-06
3.12161e-06
-1.728e-06
-8.1887e-06
2.52708e-06
-8.89311e-07
-3.88528e-06
-3.89563e-06
3.82976e-06
-8.65486e-06
-7.56474e-07
4.13786e-06
-1.25737e-05
6.8154e-06
-4.44014e-06
-6.64323e-06
2.06217e-06
4.09491e-07
-5.79287e-06
-4.23426e-06
2.1619e-06
-4.10213e-06
-8.64253e-07
-4.85589e-06
1.77223e-06
-3.29112e-06
-7.1285e-06
5.64419e-06
-3.01869e-06
-9.30236e-06
4.58726e-06
6.97351e-07
-8.12521e-06
5.60834e-06
-3.74095e-06
-7.92734e-06
6.71101e-06
-5.53081e-06
-3.5995e-06
2.28107e-06
-7.42604e-06
3.50581e-06
-1.93218e-06
-8.57832e-06
3.70845e-06
-2.08982e-06
-3.58603e-06
-3.16688e-06
3.03621e-06
-8.59786e-06
-1.10635e-07
3.61023e-06
-1.2669e-05
7.32394e-06
-4.88225e-06
-6.56907e-06
2.31583e-06
-8.49692e-08
-5.59385e-06
-4.38686e-06
2.72152e-06
-4.70294e-06
-8.07802e-07
-4.12694e-06
6.43371e-07
-2.32322e-06
-7.59682e-06
6.07444e-06
-3.7806e-06
-8.67878e-06
5.26278e-06
-1.2935e-06
-5.60952e-06
3.63631e-06
-3.3284e-06
-6.56801e-06
4.93495e-06
-4.55973e-06
-3.81852e-06
2.37931e-06
-7.67166e-06
3.89711e-06
-2.22315e-06
-8.72198e-06
4.51554e-06
-3.01328e-06
-3.25988e-06
-2.54345e-06
2.24754e-06
-8.39216e-06
3.93592e-07
3.22192e-06
-1.27421e-05
7.54634e-06
-4.93768e-06
-6.86035e-06
3.04796e-06
-8.05288e-07
-5.57215e-06
-3.98983e-06
2.83334e-06
-5.12321e-06
-6.92736e-07
-3.52464e-06
-6.0066e-07
-1.34701e-06
-7.72519e-06
6.01953e-06
-4.32706e-06
-7.7506e-06
5.42273e-06
-2.91829e-06
-3.05535e-06
1.48945e-06
-2.85831e-06
-5.26983e-06
3.26694e-06
-3.74229e-06
-3.8673e-06
2.30158e-06
-7.8784e-06
4.24075e-06
-2.47299e-06
-8.58682e-06
4.9744e-06
-3.74321e-06
-2.95111e-06
-2.00679e-06
1.572e-06
-8.133e-06
6.77896e-07
3.00957e-06
-1.28155e-05
7.5728e-06
-4.79785e-06
-7.40968e-06
4.08381e-06
-1.6858e-06
-5.646e-06
-3.19347e-06
2.5037e-06
-5.38793e-06
-4.47495e-07
-3.01068e-06
-1.88797e-06
-3.66376e-07
-7.65934e-06
5.6305e-06
-4.68798e-06
-6.64273e-06
5.16412e-06
-4.24108e-06
-6.32455e-07
-5.87727e-07
-2.34653e-06
-4.07398e-06
1.74713e-06
-3.14047e-06
-3.81811e-06
2.11513e-06
-7.97573e-06
4.53331e-06
-2.81471e-06
-8.28585e-06
5.18485e-06
-4.24314e-06
-2.62374e-06
-1.69713e-06
9.76449e-07
-7.86464e-06
8.71511e-07
2.94858e-06
-1.2949e-05
7.68547e-06
-4.43992e-06
-8.17468e-06
5.31982e-06
-2.67974e-06
-5.81481e-06
-2.13027e-06
1.96986e-06
-5.58049e-06
-2.28739e-07
-2.56986e-06
-3.06527e-06
6.05887e-07
-7.47173e-06
5.06628e-06
-5.00909e-06
-5.51291e-06
4.66377e-06
-5.22152e-06
1.6263e-06
-2.60865e-06
-1.89287e-06
-2.97936e-06
4.03082e-07
-2.73073e-06
-3.85047e-06
1.82389e-06
-8.05361e-06
4.82172e-06
-3.14142e-06
-7.89708e-06
5.1757e-06
-4.66955e-06
-2.30668e-06
-1.48925e-06
4.64471e-07
-7.73361e-06
9.61703e-07
3.02049e-06
-1.3075e-05
7.82748e-06
-3.86986e-06
-9.10533e-06
6.5938e-06
-3.84192e-06
-6.00954e-06
-9.44383e-07
1.31869e-06
-5.69103e-06
2.32698e-07
-2.28828e-06
-4.1743e-06
1.59001e-06
-7.2588e-06
4.4533e-06
-5.251e-06
-4.4633e-06
3.992e-06
-5.89226e-06
3.51917e-06
-4.57883e-06
-1.57531e-06
-1.9847e-06
-8.03412e-07
-2.47595e-06
-3.20648e-06
1.47159e-06
-8.09024e-06
5.04261e-06
-3.47173e-06
-7.51616e-06
5.06423e-06
-4.95715e-06
-2.07769e-06
-1.42381e-06
9.11989e-08
-7.68607e-06
9.41772e-07
3.18002e-06
-1.33879e-05
7.97098e-06
-2.97813e-06
-9.98999e-06
7.92454e-06
-5.52582e-06
-6.25546e-06
4.02547e-07
9.3162e-07
-5.82376e-06
7.04878e-07
-2.13539e-06
-5.1971e-06
2.85279e-06
-7.02307e-06
3.64301e-06
-5.46613e-06
-3.36929e-06
2.94038e-06
-6.38697e-06
5.12096e-06
-6.37903e-06
-1.11335e-06
-1.15388e-06
-1.90124e-06
-2.40574e-06
-2.72901e-06
1.08633e-06
-8.16107e-06
5.21353e-06
-3.77108e-06
-7.16151e-06
4.84649e-06
-5.22707e-06
-1.8963e-06
-1.45846e-06
-2.3559e-07
-7.61465e-06
9.2217e-07
3.52965e-06
-1.39286e-05
8.02882e-06
-3.15742e-06
-1.09952e-05
9.24915e-06
-8.11422e-06
-6.6041e-06
1.25096e-06
-2.66452e-07
-6.05005e-06
1.17715e-06
-2.05913e-06
-6.35958e-06
3.12531e-06
-6.78089e-06
2.64761e-06
-5.73915e-06
-2.34935e-06
1.86956e-06
-6.74879e-06
6.60658e-06
-7.96644e-06
-7.02415e-07
-4.08163e-07
-3.00396e-06
-2.49817e-06
-2.25907e-06
8.2245e-07
-8.22591e-06
5.29937e-06
-4.08332e-06
-6.79269e-06
4.7214e-06
-5.48088e-06
-1.81558e-06
-1.52524e-06
-4.53352e-07
-7.46826e-06
8.96087e-07
3.92637e-06
-1.44134e-05
8.2411e-06
-2.95992e-06
-1.19741e-05
1.04916e-05
-7.70539e-06
-6.89764e-06
2.3353e-06
-1.11911e-06
-6.45737e-06
1.63705e-06
-2.01102e-06
-7.24363e-06
3.58403e-06
-6.68881e-06
1.97801e-06
-5.94483e-06
-1.31976e-06
8.45179e-07
-7.09671e-06
7.97339e-06
-9.31872e-06
-4.51052e-07
1.71175e-07
-3.99185e-06
-2.46324e-06
-1.71821e-06
5.26999e-07
-8.32498e-06
5.44249e-06
-4.1665e-06
-6.44967e-06
4.4879e-06
-5.73558e-06
-1.64922e-06
-1.3421e-06
-5.46978e-07
-7.54795e-06
8.42914e-07
4.55585e-06
-1.47046e-05
8.64625e-06
-2.85499e-06
-1.29996e-05
1.16602e-05
-7.78598e-06
-7.07559e-06
3.29154e-06
-1.80203e-06
-6.87355e-06
2.31508e-06
-1.91236e-06
-8.10524e-06
3.97032e-06
-6.62979e-06
1.37626e-06
-6.02229e-06
-4.45289e-07
-2.04726e-07
-7.29754e-06
9.32046e-06
-1.05552e-05
-4.28834e-07
6.57915e-07
-4.6226e-06
-2.08613e-06
-1.26095e-06
-6.1496e-08
-8.40173e-06
5.80154e-06
-3.9969e-06
-6.2431e-06
4.1204e-06
-5.99471e-06
-1.18216e-06
-8.46038e-07
-6.87007e-07
-7.95669e-06
8.13225e-07
5.67867e-06
-1.47352e-05
9.05071e-06
-2.95865e-06
-1.3988e-05
1.28294e-05
-7.78023e-06
-7.28934e-06
3.84535e-06
-2.3236e-06
-7.15426e-06
3.26688e-06
-1.92212e-06
-8.99108e-06
4.31915e-06
-6.44367e-06
9.15089e-07
-6.11193e-06
2.23531e-07
-1.17957e-06
-7.21957e-06
1.0256e-05
-1.20748e-05
-5.60041e-07
1.53921e-06
-4.61838e-06
-1.78714e-06
-1.36743e-06
-6.13899e-07
-8.06569e-06
6.44939e-06
-3.99282e-06
-6.493e-06
3.80718e-06
-5.90487e-06
-8.00244e-07
-4.4375e-07
-1.34775e-06
-8.35619e-06
1.1596e-06
5.83584e-06
-1.48996e-05
9.02092e-06
-3.07307e-06
-1.44753e-05
1.42176e-05
-7.89803e-06
-8.00307e-06
4.2768e-06
-2.27857e-06
-7.069e-06
4.08029e-06
-2.42942e-06
-9.81312e-06
5.0122e-06
-5.80793e-06
2.53138e-07
-6.63616e-06
6.77156e-07
-1.71029e-06
-6.65851e-06
1.02345e-05
-1.30369e-05
3.14906e-08
2.66409e-06
-4.92315e-06
-2.16059e-06
-1.2365e-06
-3.38565e-07
-7.47879e-06
6.58009e-06
-4.5838e-06
-6.52653e-06
4.23302e-06
-5.56181e-06
-7.35157e-07
-7.18004e-07
-1.61389e-06
-7.98909e-06
1.698e-06
5.80415e-06
-1.56399e-05
9.15694e-06
-2.54691e-06
-1.45506e-05
1.50187e-05
-8.53641e-06
-8.49602e-06
5.31517e-06
-2.59415e-06
-7.49623e-06
4.19327e-06
-2.72074e-06
-9.74135e-06
5.92842e-06
-5.55621e-06
-1.20517e-06
-6.67821e-06
1.66148e-06
-1.91762e-06
-6.58655e-06
1.05657e-05
-1.31373e-05
4.46831e-07
2.96749e-06
-5.37244e-06
-2.28656e-06
-7.00798e-07
-9.94773e-08
-7.5879e-06
6.45581e-06
-4.80137e-06
-6.08402e-06
4.52267e-06
-5.72177e-06
-9.08634e-07
-7.01997e-07
-1.29057e-06
-7.76389e-06
1.70094e-06
5.61724e-06
-1.60803e-05
9.70844e-06
-2.23248e-06
-1.49886e-05
1.53599e-05
-8.7858e-06
-8.56586e-06
6.23746e-06
-3.11055e-06
-8.06697e-06
4.498e-06
-2.4911e-06
-9.73921e-06
6.06784e-06
-5.53509e-06
-1.40531e-06
-6.18565e-06
2.40714e-06
-2.45004e-06
-6.7091e-06
1.07654e-05
-1.32003e-05
4.71476e-07
3.19689e-06
-5.46081e-06
-2.34832e-06
-4.32299e-07
-1.56674e-07
-7.53732e-06
6.55022e-06
-4.889e-06
-5.83175e-06
4.49678e-06
-5.74057e-06
-7.98383e-07
-5.91118e-07
-1.18418e-06
-7.82183e-06
1.79814e-06
5.69326e-06
-1.62639e-05
9.94479e-06
-2.16905e-06
-1.51785e-05
1.57219e-05
-8.71003e-06
-8.89601e-06
6.70844e-06
-3.3024e-06
-8.16985e-06
4.86323e-06
-2.40511e-06
-9.9873e-06
6.21656e-06
-5.30496e-06
-1.43115e-06
-5.8575e-06
2.64888e-06
-2.68703e-06
-6.54413e-06
1.07208e-05
-1.30545e-05
4.79668e-07
3.41328e-06
-5.55032e-06
-2.45259e-06
-1.00975e-07
-1.32777e-07
-7.4483e-06
6.4446e-06
-4.96833e-06
-5.53265e-06
4.48626e-06
-5.6124e-06
-8.43981e-07
-6.16416e-07
-9.97633e-07
-7.74482e-06
1.98273e-06
5.6403e-06
-1.6432e-05
1.01175e-05
-1.95283e-06
-1.51736e-05
1.58212e-05
-8.61221e-06
-8.85629e-06
7.16423e-06
-3.25095e-06
-8.28956e-06
5.07829e-06
-2.38013e-06
-9.98243e-06
6.41835e-06
-5.24996e-06
-1.41261e-06
-5.66838e-06
2.80568e-06
-2.69585e-06
-6.53185e-06
1.06973e-05
-1.28146e-05
4.59294e-07
3.53725e-06
-5.53549e-06
-2.52856e-06
1.38356e-07
-7.63007e-08
-7.38938e-06
6.32287e-06
-4.82567e-06
-5.33338e-06
4.45777e-06
-5.45295e-06
-9.82171e-07
-4.81896e-07
-8.896e-07
-7.7016e-06
2.17382e-06
5.4358e-06
-1.63233e-05
1.02618e-05
-1.89297e-06
-1.50131e-05
1.57497e-05
-8.49811e-06
-8.67586e-06
7.43598e-06
-3.30791e-06
-8.2637e-06
5.15588e-06
-2.34945e-06
-9.7758e-06
6.35771e-06
-5.1598e-06
-1.33797e-06
-5.62651e-06
3.01131e-06
-2.71938e-06
-6.54241e-06
1.05914e-05
-1.25527e-05
5.02628e-07
3.60357e-06
-5.5179e-06
-2.59392e-06
3.80541e-07
-6.44903e-08
-7.2962e-06
6.24002e-06
-4.77606e-06
-5.10209e-06
4.46473e-06
-5.36955e-06
-1.0423e-06
-3.84727e-07
-8.52266e-07
-7.52167e-06
2.28913e-06
5.18907e-06
-1.60351e-05
1.02319e-05
-1.83781e-06
-1.46903e-05
1.54614e-05
-8.32489e-06
-8.43573e-06
7.48583e-06
-3.27217e-06
-8.19187e-06
5.11077e-06
-2.24636e-06
-9.55842e-06
6.22252e-06
-5.00928e-06
-1.33958e-06
-5.48897e-06
3.19616e-06
-2.80592e-06
-6.43898e-06
1.03914e-05
-1.22425e-05
5.94842e-07
3.5529e-06
-5.45133e-06
-2.58993e-06
5.34114e-07
-6.60923e-08
-7.13466e-06
6.10369e-06
-4.7259e-06
-4.81878e-06
4.39803e-06
-5.26282e-06
-1.06833e-06
-3.36687e-07
-7.58996e-07
-7.34279e-06
2.34358e-06
4.94823e-06
-1.57107e-05
1.01842e-05