/*--------------------------------*- C++ -*----------------------------------*\
  =========                 |
  \\      /  F ield         | OpenFOAM: The Open Source CFD Toolbox
   \\    /   O peration     | Website:  https://openfoam.org
    \\  /    A nd           | Version:  10
     \\/     M anipulation  |
\*---------------------------------------------------------------------------*/
FoamFile
{
    format      ascii;
    class       volVectorField;
    location    "30";
    object      U_0;
}
// * * * * * * * * * * * * * * * * * * * * * * * * * * * * * * * * * * * * * //

dimensions      [0 1 -1 0 0 0 0];

internalField   nonuniform List<vector> 
25600
(
(1.05909 0.000461517 -0.000177112)
(1.05731 -0.00121766 7.96191e-05)
(1.05937 -0.00103154 0.000719361)
(1.05781 0.000138045 -8.75061e-06)
(1.05774 -0.00164641 0.000567448)
(1.05943 -0.000129859 0.000556537)
(1.05845 0.000190854 0.000272734)
(1.05886 -0.000657174 0.000293714)
(1.05896 0.00185414 0.000486133)
(1.05979 0.000771888 -0.000227025)
(1.05838 9.56094e-05 -8.85841e-05)
(1.0582 0.00232347 0.000300694)
(1.05995 0.000754785 -0.000502881)
(1.05786 0.000723746 0.000104145)
(1.05787 0.00179523 -0.000526312)
(1.05856 0.000433333 8.91614e-05)
(1.05751 0.000916289 3.671e-05)
(1.05834 -0.000209924 -0.000937905)
(1.05827 0.000267445 0.000530013)
(1.05796 -6.72669e-05 -0.000320685)
(1.05888 0.000461675 -0.000937335)
(1.05875 0.000672756 0.000318521)
(1.05901 -0.000808984 -0.00024929)
(1.05933 0.00167939 -0.0008108)
(1.05943 -0.000824964 0.000168839)
(1.06082 0.00043719 -5.7805e-06)
(1.05969 0.000492424 -0.000952309)
(1.06001 -0.00126874 9.99714e-05)
(1.06187 0.000159221 1.58934e-05)
(1.06054 -0.000979918 -0.00100151)
(1.06089 -0.000115442 0.000641431)
(1.06107 -0.0014372 -0.000525019)
(1.0603 -0.000882967 -0.000588907)
(1.05971 -0.000516025 0.000863698)
(1.06013 -0.00108922 -0.000620925)
(1.05967 -5.60296e-05 -0.000141493)
(1.05805 -0.00084112 0.000566812)
(1.05985 0.000153711 -9.30112e-05)
(1.05841 -0.000332412 -0.000144292)
(1.05838 -0.000919876 0.000565842)
(1.05875 -0.000277368 -0.000131305)
(1.0569 -0.00113151 0.000288436)
(1.05977 -0.000580965 0.000513175)
(1.05741 -0.0010579 0.000255881)
(1.05785 -0.0011435 0.00101821)
(1.0601 -0.00050907 0.000372152)
(1.05822 -0.00022013 0.000477401)
(1.05979 -0.000425992 0.000745796)
(1.05969 0.00208632 0.000399038)
(1.05881 0.00102146 -0.000430282)
(1.05918 -9.5878e-05 2.94876e-05)
(1.05871 0.0030609 0.000280057)
(1.05898 0.000934659 -0.0010561)
(1.05847 0.000770035 -0.000179646)
(1.05778 0.00267078 -0.000663268)
(1.05794 0.000420345 -0.000340523)
(1.05729 0.000840225 -0.000405071)
(1.05795 1.69568e-05 -0.000698472)
(1.05829 -0.000216293 0.000148144)
(1.05809 -3.38274e-05 -0.000643391)
(1.05913 0.00034646 -0.000660553)
(1.05811 0.000109051 0.000118383)
(1.05948 -0.000910949 -0.000441412)
(1.05932 0.00102919 -0.000633104)
(1.05887 -0.00099163 0.000398333)
(1.06134 0.000131821 -8.89225e-05)
(1.05877 -0.000425841 -0.000715858)
(1.06005 -0.00189663 7.18759e-05)
(1.06204 -0.00017591 -2.15638e-05)
(1.06034 -0.00156098 -0.000803863)
(1.06091 -0.000480422 0.000315109)
(1.0607 -0.00113796 -0.000540001)
(1.06075 -0.00116623 -0.000524223)
(1.05974 -0.000270881 0.000324765)
(1.06015 -0.000901878 -0.000579708)
(1.05984 -0.000397929 -0.000122363)
(1.05828 -0.000319698 0.000252688)
(1.05984 0.000198141 -7.3551e-05)
(1.05803 -0.000835872 -9.15352e-05)
(1.05876 -0.000228725 0.000385307)
(1.05831 -0.00108784 1.78527e-05)
(1.05702 -0.000677537 0.000477879)
(1.05946 -0.000877025 0.000301731)
(1.05731 -0.00188708 0.000723153)
(1.0582 -0.000554595 0.00146612)
(1.06025 -0.00146653 0.000319131)
(1.0585 -0.000334301 0.000878013)
(1.06085 0.000126047 0.00120678)
(1.06022 0.00220037 0.000214419)
(1.0579 0.00111494 -0.000442585)
(1.06014 0.00032518 0.000158006)
(1.0591 0.00348266 -7.16854e-06)
(1.05797 0.000865006 -0.00146552)
(1.05934 0.00144343 -0.000552934)
(1.05757 0.00329491 -0.000922606)
(1.05699 0.000699494 -0.000823351)
(1.05715 0.000718914 -0.000832795)
(1.05742 -8.79463e-06 -0.000506389)
(1.05823 -0.000937716 -0.000267641)
(1.05843 7.52696e-05 -0.00094611)
(1.05902 0.000190147 -0.000376864)
(1.05764 -0.000574635 -0.000209871)
(1.0598 -0.000756452 -0.000702513)
(1.05926 -5.00199e-05 -0.000176337)
(1.05863 -0.000564909 0.000453811)
(1.06133 -0.000447586 -0.000223333)
(1.05792 -0.00147771 -0.000315178)
(1.06021 -0.00216644 -0.00018272)
(1.06216 -0.00126186 -0.000261001)
(1.06027 -0.0019596 -0.000445444)
(1.06124 -0.000863457 -0.000326133)
(1.06047 -0.00097588 -0.000509537)
(1.06106 -0.00126746 -0.0003486)
(1.05993 -0.000506654 -0.000454511)
(1.06002 -0.00085012 -0.000401329)
(1.06017 -0.000536949 -6.85097e-05)
(1.05856 0.000183419 -6.85761e-05)
(1.05941 8.44307e-05 5.26491e-05)
(1.05802 -0.00101255 5.60772e-05)
(1.05887 0.000158977 2.82269e-05)
(1.05808 -0.00152853 0.000114246)
(1.05706 -0.000583103 0.000640577)
(1.05883 -0.0017097 0.000238068)
(1.05765 -0.00193935 0.00132485)
(1.0582 -0.000622299 0.00189159)
(1.06028 -0.00263905 0.000480863)
(1.05944 -0.000113743 0.00149432)
(1.06179 0.000846708 0.00152025)
(1.06048 0.00217991 4.23456e-05)
(1.05732 0.00118948 -0.000259851)
(1.06104 0.00124386 0.000196099)
(1.05915 0.00313666 -0.000485164)
(1.05736 0.000813332 -0.00176678)
(1.06037 0.0025998 -0.000995814)
(1.0572 0.00363248 -0.00142809)
(1.05592 0.00145742 -0.0013707)
(1.05673 0.000544755 -0.00114386)
(1.05665 -0.000680599 -0.000448384)
(1.05834 -0.0018343 -0.0006766)
(1.05896 0.00012755 -0.00124499)
(1.05863 3.33788e-05 -0.000299884)
(1.05735 -0.00106458 -0.00056152)
(1.05989 -0.000927244 -0.000901599)
(1.05945 -0.00113679 0.000384711)
(1.05854 0.000165461 0.000447303)
(1.06064 -0.00111247 -0.00025863)
(1.05739 -0.00242839 0.000124387)
(1.06021 -0.00256778 -0.000773039)
(1.0622 -0.00303911 -0.000626594)
(1.06063 -0.0022851 -0.000184431)
(1.06167 -0.00103329 -0.00109692)
(1.06037 -0.000928176 -0.000411209)
(1.06112 -0.00121237 -0.000309552)
(1.06006 -0.00122588 -0.00114912)
(1.0601 -0.000958574 -0.000262017)
(1.06064 -0.000428729 -0.000125727)
(1.05876 0.000478325 -0.000157343)
(1.05889 0.00010343 0.000163324)
(1.05808 -0.000935866 0.000123667)
(1.0587 3.44224e-06 -0.000242533)
(1.05788 -0.00174146 8.95893e-05)
(1.05688 -0.0012699 0.000709205)
(1.05846 -0.00247323 0.000320542)
(1.05807 -0.00168125 0.00205537)
(1.0577 -0.00142457 0.00225483)
(1.06059 -0.00350848 0.000861819)
(1.06096 0.000175796 0.00228678)
(1.06249 0.00162 0.00159822)
(1.06047 0.00212844 -5.14186e-05)
(1.0572 0.00152369 5.12012e-05)
(1.06155 0.0023113 1.2098e-05)
(1.0588 0.0020643 -0.000985387)
(1.05755 0.00109768 -0.00199392)
(1.06136 0.00378355 -0.00159103)
(1.05675 0.00403303 -0.00218874)
(1.05479 0.00281858 -0.00198634)
(1.05563 2.38769e-05 -0.00140764)
(1.05572 -0.00229905 -0.000539693)
(1.05879 -0.00299308 -0.000997077)
(1.05974 -9.8381e-06 -0.00156542)
(1.05816 5.29828e-05 -0.000479815)
(1.05695 -0.0014987 -0.000889026)
(1.05974 -0.00160983 -0.000947032)
(1.06002 -0.00194421 0.000874868)
(1.05863 0.000996155 0.000427707)
(1.05947 -0.00142444 -0.000191838)
(1.05686 -0.00332638 0.000232483)
(1.05977 -0.00356588 -0.00173691)
(1.06235 -0.00521938 -0.00122134)
(1.06166 -0.00259997 -0.0003074)
(1.06219 -0.000983714 -0.0017594)
(1.06032 -0.000799471 -0.000291282)
(1.06084 -0.00127224 -0.00038753)
(1.0601 -0.00258345 -0.0016023)
(1.06055 -0.00127851 -0.000273384)
(1.06118 -0.000284212 -0.000232983)
(1.05893 0.000761708 2.48778e-05)
(1.05838 0.000379055 0.000256387)
(1.05794 -0.00101658 0.000128217)
(1.05843 -0.000431497 -0.000459678)
(1.05751 -0.00232333 -7.00309e-05)
(1.05657 -0.00266129 0.000554268)
(1.05852 -0.00307004 0.000598232)
(1.05831 -0.00160041 0.00290556)
(1.05698 -0.00272301 0.00262029)
(1.06129 -0.00410789 0.00148162)
(1.06275 0.00052767 0.00303297)
(1.06304 0.00239891 0.0013507)
(1.0604 0.00199352 6.762e-05)
(1.0574 0.00215406 0.000502731)
(1.0614 0.0030295 -0.000450349)
(1.05833 0.000599173 -0.00144969)
(1.05843 0.00157626 -0.00212215)
(1.06227 0.00484593 -0.00230392)
(1.05655 0.00516681 -0.00321979)
(1.05332 0.00470287 -0.00261113)
(1.05341 -0.000871032 -0.00151856)
(1.05468 -0.00487995 -0.000717466)
(1.05978 -0.00468867 -0.0013613)
(1.06089 -0.000229319 -0.00201473)
(1.05764 0.00045233 -0.000984266)
(1.05624 -0.00195994 -0.00117456)
(1.05956 -0.00292806 -0.000849148)
(1.0611 -0.00266364 0.00129712)
(1.05886 0.00218948 0.000599147)
(1.05782 -0.000667542 3.79414e-05)
(1.05597 -0.00419165 -0.00037616)
(1.05895 -0.00581702 -0.0033629)
(1.0628 -0.00796739 -0.0023138)
(1.06333 -0.00289074 -0.000993498)
(1.06281 -0.000528435 -0.00230105)
(1.06016 -0.000280115 -0.00017775)
(1.05994 -0.00181893 -0.000450409)
(1.06003 -0.00478746 -0.00192302)
(1.06154 -0.00217802 -0.000470086)
(1.06193 -0.000184032 -0.00024598)
(1.05917 0.00153683 0.000469692)
(1.05771 0.000873272 0.000422765)
(1.05752 -0.00122952 0.000103143)
(1.05819 -0.000955729 -0.000647701)
(1.05682 -0.00351451 -0.000685737)
(1.05637 -0.00472211 -3.94549e-05)
(1.05901 -0.00427087 0.00101761)
(1.05822 -0.00189338 0.00373835)
(1.05616 -0.00383034 0.00291723)
(1.06246 -0.00456584 0.00213669)
(1.06476 0.00066541 0.00340127)
(1.06332 0.00323972 0.000946374)
(1.06026 0.00222468 0.000377421)
(1.05774 0.00289148 0.00067096)
(1.0606 0.00304704 -0.00115047)
(1.05787 -0.000750395 -0.00165189)
(1.05997 0.00208868 -0.00204366)
(1.06342 0.00567759 -0.00325722)
(1.05664 0.00734191 -0.00461926)
(1.05122 0.00722197 -0.00337194)
(1.04991 -0.0022465 -0.00155675)
(1.0534 -0.00881673 -0.000718441)
(1.06141 -0.00729984 -0.00164761)
(1.06264 -0.000358419 -0.00276991)
(1.05706 0.00140757 -0.00183658)
(1.05489 -0.0024332 -0.00137651)
(1.05925 -0.00492453 -0.000572821)
(1.06295 -0.00327766 0.00160471)
(1.05974 0.00419957 0.000987717)
(1.05565 0.0015537 2.57213e-05)
(1.05374 -0.00502914 -0.00215799)
(1.05743 -0.00922792 -0.00591562)
(1.06395 -0.0110372 -0.00435154)
(1.06593 -0.00346343 -0.00237348)
(1.06365 0.000554156 -0.00261035)
(1.05951 0.000997287 0.00020648)
(1.05811 -0.0033361 -0.000240713)
(1.0598 -0.00827499 -0.00204379)
(1.06315 -0.00407272 -0.00080643)
(1.06326 0.000108194 -0.000264773)
(1.0595 0.00307465 0.00109461)
(1.05669 0.00151913 0.000770804)
(1.05676 -0.0014423 2.43388e-05)
(1.0577 -0.00187633 -0.000917856)
(1.05567 -0.00547188 -0.00212547)
(1.05579 -0.00801982 -0.00135295)
(1.05966 -0.00678967 0.00133689)
(1.0582 -0.00260976 0.0045092)
(1.0553 -0.00490742 0.00333904)
(1.06359 -0.00487167 0.00262082)
(1.06686 0.00113356 0.00296565)
(1.06376 0.00402802 0.000250856)
(1.06005 0.00213981 0.000853076)
(1.05768 0.00345828 0.000572287)
(1.05931 0.0027816 -0.00224632)
(1.05766 -0.00204979 -0.0015113)
(1.06173 0.00216841 -0.00122423)
(1.06497 0.00675825 -0.00397608)
(1.05734 0.0111456 -0.00627186)
(1.0482 0.0108956 -0.00421306)
(1.04467 -0.00398232 -0.00118546)
(1.0517 -0.0144275 -0.000133286)
(1.06387 -0.0111295 -0.0019741)
(1.06511 -0.000399064 -0.00398406)
(1.05623 0.00363347 -0.0030153)
(1.05267 -0.00266836 -0.00143919)
(1.05896 -0.00825242 -8.33151e-05)
(1.06575 -0.0040352 0.00208529)
(1.06138 0.00828185 0.00193131)
(1.05283 0.00609946 -0.000272751)
(1.04972 -0.00625136 -0.00547296)
(1.05502 -0.0149198 -0.00994014)
(1.06526 -0.0154647 -0.00749362)
(1.06911 -0.00401337 -0.00438237)
(1.06494 0.00318383 -0.00274933)
(1.05794 0.002949 0.000997219)
(1.0547 -0.00660275 0.000386814)
(1.0592 -0.0144568 -0.00213707)
(1.06556 -0.00767835 -0.00134298)
(1.06542 0.00123022 -0.000147346)
(1.05981 0.00582606 0.0018826)
(1.05514 0.00267245 0.00131202)
(1.05544 -0.00158801 1.50064e-05)
(1.0568 -0.00334703 -0.00134505)
(1.0517 -0.00834298 -0.00512547)
(1.05153 -0.0139841 -0.00325359)
(1.05777 -0.0119646 0.00203804)
(1.05649 -0.00368367 0.00558384)
(1.05342 -0.00522275 0.00385275)
(1.06458 -0.00492047 0.00230265)
(1.06879 0.0018304 0.00161781)
(1.06369 0.00513584 -0.000306996)
(1.05967 0.00188828 0.00113197)
(1.05747 0.00329708 -0.000297473)
(1.0576 0.00197784 -0.00380093)
(1.05756 -0.00306251 -0.0007517)
(1.06414 0.00176142 0.000612184)
(1.06736 0.00709752 -0.0049918)
(1.05845 0.0156974 -0.00903088)
(1.0445 0.0162061 -0.00566436)
(1.03816 -0.00532513 0.000591729)
(1.04932 -0.0215106 0.00255055)
(1.06654 -0.0164475 -0.00208075)
(1.06802 -5.39593e-05 -0.00580832)
(1.05479 0.00751128 -0.00440764)
(1.04853 -0.0024184 -0.000727606)
(1.05791 -0.0130719 0.00117566)
(1.06993 -0.00503617 0.0028238)
(1.06496 0.015747 0.00284188)
(1.04967 0.0145792 -0.00157249)
(1.04134 -0.00713217 -0.010329)
(1.04763 -0.0229505 -0.0149364)
(1.06402 -0.0228228 -0.0115229)
(1.0718 -0.00566155 -0.0066479)
(1.06578 0.00762547 -0.00206253)
(1.05469 0.0062755 0.00317457)
(1.04807 -0.0118892 0.00217546)
(1.05552 -0.0245084 -0.00201335)
(1.06714 -0.0135127 -0.00229033)
(1.06763 0.00343988 -0.000135193)
(1.05972 0.0106025 0.00291327)
(1.05317 0.00477682 0.00217019)
(1.0534 -0.00235977 1.545e-05)
(1.05442 -0.00586979 -0.00277374)
(1.03249 -0.0121109 -0.00830301)
(1.0208 -0.0246852 -0.00115536)
(1.03105 -0.0222164 0.00818777)
(1.03901 -0.00715747 0.01105)
(1.04209 -0.0054115 0.00710568)
(1.06027 -0.00300887 0.00195197)
(1.06857 0.00440597 -0.0009806)
(1.0632 0.00574802 -0.000794764)
(1.05882 0.000407152 0.00191253)
(1.05575 0.00292978 -0.00181326)
(1.05567 0.00152222 -0.00599449)
(1.0591 -0.00439658 0.00173196)
(1.06771 0.000653225 0.00538894)
(1.06884 0.00780434 -0.00535106)
(1.05836 0.0222842 -0.0133256)
(1.043 0.0234376 -0.00691231)
(1.03548 -0.00698714 0.00623798)
(1.04743 -0.0312609 0.00857663)
(1.06642 -0.0249181 -0.00210355)
(1.06743 0.000546916 -0.00931098)
(1.04979 0.0150239 -0.00621388)
(1.04048 -0.000687431 0.00199678)
(1.05215 -0.0215822 0.00366317)
(1.071 -0.00754974 0.00286324)
(1.07119 0.0281481 0.00324451)
(1.05184 0.0290753 -0.00237871)
(1.02648 -0.00906755 -0.0156691)
(1.01973 -0.0396848 -0.0206621)
(1.04091 -0.0391017 -0.0154171)
(1.06228 -0.0104285 -0.00863796)
(1.06374 0.0133993 -0.000276885)
(1.05191 0.00931089 0.00720744)
(1.03343 -0.0229159 0.0049892)
(1.03198 -0.0426004 -0.0018765)
(1.05008 -0.0229547 -0.00303129)
(1.05933 0.00611787 0.000153404)
(1.05722 0.0163032 0.00342658)
(1.05317 0.00778464 0.00240528)
(1.05172 -0.00214717 -0.00115255)
(1.04706 -0.00691293 -0.00621051)
(0.966905 -0.0091785 0.00185119)
(0.913932 -0.0364263 0.0224886)
(0.918192 -0.0412016 0.0343366)
(0.955359 -0.018588 0.0303841)
(0.992076 -0.00925116 0.0154628)
(1.03548 -0.001606 0.00239296)
(1.05665 0.00811421 -0.00119771)
(1.05664 0.00667227 4.22388e-05)
(1.05354 -0.00182143 0.00115598)
(1.04759 0.000514134 -0.00449352)
(1.0487 -0.00079065 -0.00824991)
(1.05871 -0.00456083 0.00461881)
(1.07181 0.00115696 0.00882171)
(1.06579 0.00790104 -0.00995594)
(1.05228 0.0280211 -0.0207155)
(1.04638 0.0326534 -0.00405065)
(1.04308 -0.00455451 0.0189558)
(1.04533 -0.0421004 0.0151424)
(1.05081 -0.0381623 -0.00815806)
(1.04522 0.000771057 -0.0199437)
(1.03002 0.0260466 -0.00785865)
(1.02367 0.000587058 0.00995021)
(1.0288 -0.0350635 0.00449836)
(1.05113 -0.0111369 -0.00294964)
(1.07498 0.0463083 0.00194999)
(1.06634 0.0498022 -0.0010608)
(1.0049 -0.00636958 -0.0197106)
(0.953806 -0.0591361 -0.0270449)
(0.968047 -0.0671646 -0.0220675)
(1.01882 -0.0255383 -0.0108143)
(1.05273 0.0166097 0.00613595)
(1.0529 0.0137088 0.0142815)
(1.00203 -0.0336909 0.00738803)
(0.954529 -0.0672639 0.000588373)
(0.969411 -0.0399794 0.00164148)
(1.00669 0.0074472 0.00648106)
(1.04246 0.0233529 0.0071893)
(1.06069 0.0105209 -0.00144499)
(1.05186 -0.00255206 -0.0103264)
(1.02189 -0.00345018 -0.010943)
(0.856904 0.00505143 0.0382956)
(0.773821 -0.0478277 0.0486704)
(0.760273 -0.0726569 0.0502227)
(0.82531 -0.0499601 0.0395717)
(0.909826 -0.0235963 0.0174237)
(0.99225 0.00140447 0.00492975)
(1.03617 0.0144248 0.00116563)
(1.03967 0.00630439 -0.00706)
(1.02256 -0.00582761 -0.00668733)
(1.01015 -0.00175237 -0.00573711)
(1.02249 -0.00183855 -0.00699548)
(1.04441 -0.00309602 0.00662335)
(1.06499 0.00481135 0.00447637)
(1.05142 0.0121368 -0.0238185)
(1.04179 0.0337726 -0.0261673)
(1.05637 0.0390862 0.0099746)
(1.05427 -0.000552621 0.0345841)
(1.02252 -0.0459908 0.0102887)
(0.982554 -0.0420435 -0.0365234)
(0.97363 0.00626308 -0.0465325)
(0.991573 0.0344058 -0.00119052)
(0.992063 -0.000619088 0.0282982)
(0.972165 -0.0422391 -0.00509408)
(1.00377 -0.00871398 -0.0229927)
(1.07862 0.0614499 0.00206595)
(1.0838 0.0679147 0.00636949)
(0.98611 0.00807547 -0.0240525)
(0.889748 -0.0589086 -0.038697)
(0.889053 -0.0822228 -0.0346831)
(0.967757 -0.0407348 -0.0147215)
(1.04318 0.0122232 0.0110061)
(1.05372 0.017182 0.0145111)
(0.956985 -0.0308068 0.00649484)
(0.844967 -0.0759976 0.0116855)
(0.846072 -0.056882 0.0230901)
(0.93251 -0.00821775 0.0271069)
(1.03221 0.0116797 0.0101793)
(1.07084 0.00923976 -0.0187042)
(1.03024 0.0103421 -0.0212136)
(0.95381 0.0193807 0.00903581)
(0.853883 0.016567 0.0427516)
(0.792562 -0.050788 0.0223623)
(0.736817 -0.0980383 0.0191426)
(0.771101 -0.0808681 0.022408)
(0.868282 -0.0351408 0.0196397)
(0.973261 0.0118135 0.0220291)
(1.02881 0.0328258 -0.00605032)
(1.01206 0.0184148 -0.0344892)
(0.952192 -0.00699046 -0.00921808)
(0.935183 -0.0088653 0.00912644)
(0.971974 -0.00590196 -0.0078634)
(1.0164 0.00214617 -0.0133417)
(1.05529 0.0107906 -0.0277913)
(1.04625 0.0108392 -0.0382388)
(1.04983 0.0316518 -0.00147811)
(1.07083 0.0444924 0.0419846)
(1.04678 0.00812471 0.0317407)
(0.974502 -0.046721 -0.0248369)
(0.916326 -0.0460289 -0.0744577)
(0.938711 0.00390337 -0.0469217)
(0.972857 0.0318329 0.0430936)
(0.951607 -0.00173003 0.0566814)
(0.913354 -0.0386932 -0.0212874)
(0.965624 -0.00480067 -0.0471204)
(1.07043 0.061807 -0.000933854)
(1.07701 0.0775244 0.0104486)
(0.986646 0.0336304 -0.023971)
(0.891621 -0.0383515 -0.044684)
(0.88646 -0.0781567 -0.0436574)
(0.969468 -0.0436316 -0.0114998)
(1.04012 0.0154761 0.0172367)
(1.02986 0.0322518 0.0103974)
(0.936702 -0.0113913 0.00231323)
(0.840517 -0.0733057 0.028078)
(0.838858 -0.0761431 0.0628783)
(0.927622 -0.0295331 0.0605478)
(1.02354 0.00184675 0.0101719)
(1.05687 0.0183604 -0.0375046)
(1.00754 0.0309721 -0.0181746)
(0.927279 0.0376606 0.0335085)
(0.974424 0.0445506 0.0112414)
(0.941672 -0.0337152 -0.00913203)
(0.838242 -0.103815 -0.00528498)
(0.80249 -0.0882924 0.0196955)
(0.866658 -0.018572 0.0430883)
(0.969896 0.0451829 0.0335621)
(1.03341 0.0581723 -0.0242298)
(1.00325 0.0209437 -0.0371102)
(0.906946 -0.0153157 0.019309)
(0.875608 -0.0150394 0.0203519)
(0.913653 -0.00535465 -0.0333559)
(0.979146 0.00428659 -0.0492956)
(1.04403 0.00304752 -0.0599058)
(1.05161 -0.00744209 -0.0383818)
(1.06073 0.0184283 0.028815)
(1.07408 0.0499826 0.0596081)
(1.05442 0.0207235 0.00762497)
(0.982275 -0.0461946 -0.0676447)
(0.921414 -0.0544905 -0.0881595)
(0.946534 -0.00104333 -0.0123363)
(0.950238 0.0264746 0.084932)
(0.914551 -0.00710614 0.0697197)
(0.877759 -0.0395268 -0.0191397)
(0.932663 -0.00339235 -0.0469913)
(1.04197 0.0623542 0.000615035)
(1.0556 0.0877652 0.0192334)
(0.99959 0.0534958 -0.00486444)
(0.93634 -0.0204846 -0.0155606)
(0.930211 -0.0583903 -0.00594937)
(0.987227 -0.0203068 0.0182251)
(1.02671 0.0302912 0.0216162)
(1.01312 0.0414151 -0.00604648)
(0.960752 0.00879254 -0.0166926)
(0.889037 -0.045971 0.0321865)
(0.856385 -0.0488931 0.0958823)
(0.895001 -0.0138973 0.0961914)
(0.960268 -0.000696872 0.0357244)
(1.0408 0.0158637 -0.0347918)
(1.056 0.0452252 -0.0337042)
(1.0052 0.0625084 0.0133164)
(1.04926 0.0524965 -0.0210061)
(1.02264 -0.0316115 -0.0078351)
(0.894299 -0.0993991 0.0115735)
(0.818826 -0.0762655 0.0161365)
(0.859169 0.0102758 0.0234995)
(0.968502 0.0757112 0.0147748)
(1.03892 0.0645367 -0.0272611)
(1.00875 0.00616094 -0.0228566)
(0.88828 -0.013365 0.040593)
(0.85369 0.00443783 0.00664504)
(0.885434 -0.00728826 -0.054218)
(0.933929 -0.0231213 -0.0541789)
(0.990044 -0.0229873 -0.0662366)
(1.00489 -0.0183759 -0.0275184)
(1.041 0.0168876 0.0518557)
(1.0784 0.050852 0.0559771)
(1.04225 0.0185843 -0.0262251)
(0.944999 -0.0349335 -0.0844217)
(0.905155 -0.0386382 -0.0623045)
(0.925714 -0.00409987 0.0294777)
(0.893628 0.00251422 0.0959979)
(0.864277 -0.0223548 0.0653188)
(0.837658 -0.0356552 -0.00308578)
(0.915466 5.421e-05 -0.034522)
(1.03511 0.0515338 0.00647552)
(1.03029 0.0791544 0.036403)
(0.99758 0.0534798 0.00826572)
(0.970925 -0.018549 -0.0122784)
(0.962957 -0.0447841 0.0118418)
(0.990298 -0.0038168 0.0353879)
(1.01092 0.0364363 0.0179293)
(1.01114 0.048757 -0.0227821)
(1.01427 0.0159792 -0.0594594)
(0.958434 -0.0365686 -0.0254729)
(0.877642 -0.0350084 0.0589016)
(0.860407 -0.0121288 0.0847139)
(0.904244 -0.0220942 0.0363743)
(0.983705 -0.00531363 -0.0362633)
(1.0048 0.0520984 -0.0377052)
(1.00423 0.0838598 -0.00850203)
(1.07357 0.0288759 -0.0432742)
(0.999612 -0.0491541 0.00175472)
(0.850395 -0.0866938 0.035315)
(0.771389 -0.0437543 0.0164853)
(0.846724 0.0347156 0.0203697)
(1.01208 0.0668431 0.0237924)
(1.07719 0.0309195 -0.0146552)
(0.977418 -0.00683702 -0.00211935)
(0.849251 0.00869619 0.0464164)
(0.887688 0.0310889 -0.0230461)
(0.886172 -0.00596518 -0.0449527)
(0.848705 -0.0537123 -0.026303)
(0.920637 -0.0544873 -0.0462917)
(0.977256 -0.0230929 0.00626089)
(1.02843 0.0241893 0.0759429)
(1.04342 0.0480484 0.0461029)
(0.969071 0.0223013 -0.039281)
(0.874485 -0.0150717 -0.0734489)
(0.862224 -0.0236026 -0.034867)
(0.853008 -0.00676021 0.0421808)
(0.801523 -0.00973919 0.0740641)
(0.787677 -0.0193179 0.0411831)
(0.796139 -0.0219516 -0.0091323)
(0.925052 -0.00478248 -0.0256174)
(1.04408 0.0352358 0.0320083)
(1.01127 0.0783532 0.0672789)
(1.01253 0.0505791 -0.000471812)
(0.984636 -0.0317823 -0.0455259)
(0.948873 -0.0489285 -0.0108984)
(0.953404 0.00421389 0.0258429)
(0.966337 0.0523793 0.021315)
(1.01633 0.04732 -0.0192425)
(1.07414 -0.00699244 -0.064716)
(0.985663 -0.0396697 -0.0307938)
(0.843971 -0.0283455 0.0389766)
(0.807393 -0.0279547 0.0483831)
(0.852325 -0.0437637 0.00371298)
(0.914381 -0.00508877 -0.0460072)
(0.943325 0.07134 -0.0280709)
(1.01619 0.0855148 -0.0242228)
(1.00521 0.00111402 -0.0506063)
(0.943648 -0.0602882 -0.0149182)
(0.82952 -0.0730598 0.0529527)
(0.771204 -0.0267378 0.0737974)
(0.89405 0.0192018 0.054826)
(1.0747 0.0215888 0.00745554)
(1.07082 0.0042297 -0.0207934)
(0.899216 0.00100252 0.0270062)
(0.841337 0.0256634 0.0508538)
(0.934142 0.0533196 -0.00916773)
(0.838146 0.0111569 0.00166385)
(0.763666 -0.0762699 -0.019514)
(0.84909 -0.0804631 -0.0417469)
(0.901889 -0.019542 0.0150879)
(0.887333 0.0227962 0.0707283)
(0.890538 0.0315367 0.0392217)
(0.893209 0.0186848 -0.0373954)
(0.840718 -0.00793013 -0.081284)
(0.818981 -0.00832998 -0.0459433)
(0.79046 -0.000771574 0.0263731)
(0.749867 -0.0108042 0.043749)
(0.757836 -0.00798982 0.0114496)
(0.815806 -0.0116172 -0.0356639)
(0.961842 -0.00674277 -0.0190563)
(1.00228 0.0395254 0.0877909)
(0.988923 0.089118 0.100868)
(1.03745 0.042689 -0.00231523)
(0.936423 -0.0326012 -0.033922)
(0.86385 -0.0259409 -0.00563307)
(0.889592 0.033427 0.0323445)
(0.956793 0.0562974 0.0323758)
(1.04165 0.0244758 -0.035275)
(1.03022 -0.0193481 -0.0515025)
(0.887666 -0.0343528 0.020457)
(0.791578 -0.0358795 0.0543126)
(0.788292 -0.0532051 0.0263381)
(0.82176 -0.0555259 -0.0262248)
(0.873568 0.0098661 -0.059294)
(0.949082 0.0877839 -0.029293)
(1.01341 0.0726698 -0.0325066)
(1.00109 -0.0224367 -0.035511)
(0.939296 -0.0685753 -0.00450095)
(0.815494 -0.0608922 0.0730686)
(0.773762 -0.0123459 0.132302)
(0.939086 0.0150847 0.0713757)
(1.13351 0.00704272 -0.0309116)
(1.0632 -0.00407572 -0.0228841)
(0.882009 0.000364302 0.0510337)
(0.9176 0.0338843 0.0635207)
(0.946427 0.0713239 0.0482979)
(0.822283 0.00437597 0.0285434)
(0.764152 -0.0909916 -0.0560759)
(0.758609 -0.0774336 -0.055675)
(0.756296 -0.0171048 0.0204938)
(0.757632 0.00663392 0.0661056)
(0.820306 0.0149105 0.0403526)
(0.876142 0.00924245 -0.0383561)
(0.828016 -0.00877762 -0.0883537)
(0.784222 -0.000962583 -0.0364435)
(0.725854 -0.0016013 0.0417286)
(0.709468 -0.0134899 0.0298577)
(0.77388 -0.00373371 -0.0327457)
(0.861011 -0.00448468 -0.0727798)
(0.951045 0.00671623 0.0077786)
(0.939168 0.0564153 0.14151)
(1.00134 0.0875305 0.10505)
(1.00277 0.0383853 0.00670688)
(0.849128 -0.00976714 -0.0123802)
(0.814118 0.00399152 -0.0104031)
(0.903373 0.0330528 0.0243254)
(0.988466 0.033351 0.0256986)
(1.02144 0.0221936 -0.0512322)
(0.973453 0.000850891 -0.0608601)
(0.880425 -0.0207846 0.00889984)
(0.840608 -0.0445436 0.0386398)
(0.824125 -0.0735279 0.0139819)
(0.828242 -0.062515 -0.0416343)
(0.87883 0.0232976 -0.067762)
(0.959085 0.101341 -0.0431199)
(1.00238 0.0650041 -0.0372264)
(1.02702 -0.0479443 -0.0386631)
(0.931742 -0.0658994 0.00805641)
(0.781477 -0.0357695 0.0909479)
(0.747136 -0.00315851 0.139851)
(0.943799 -0.00621535 0.0416368)
(1.15736 -0.012692 -0.0745828)
(1.06779 -0.00616137 -0.0417527)
(0.882535 0.00176212 0.0569162)
(0.928688 0.043532 0.0866717)
(0.957111 0.0781689 0.0849022)
(0.911155 -0.00469116 0.0278696)
(0.819948 -0.0926834 -0.0514086)
(0.74912 -0.0730934 -0.0433006)
(0.745948 -0.0228879 0.0288666)
(0.764616 -0.00888105 0.0668431)
(0.842153 0.00343747 0.0326878)
(0.904095 0.00436857 -0.0588113)
(0.818025 -0.0076361 -0.096599)
(0.733597 -0.000448961 -0.0168177)
(0.677129 -0.00749115 0.0513222)
(0.694494 -0.0199282 0.00337712)
(0.788671 -0.00525909 -0.0773976)
(0.866963 0.00637227 -0.0956077)
(0.917654 0.0202737 0.0307385)
(0.923448 0.0600226 0.157035)
(1.00858 0.0882858 0.100177)
(0.967748 0.046451 0.00704477)
(0.837769 -0.000746796 -0.0336799)
(0.84187 0.011748 -0.0459257)
(0.944268 0.0320097 0.0062591)
(1.00175 0.0334862 0.0108929)
(0.995494 0.021515 -0.0699685)
(0.932348 0.00340902 -0.0645629)
(0.862495 -0.0148601 0.0112177)
(0.860059 -0.0498105 0.042399)
(0.846066 -0.0846599 0.0131787)
(0.841404 -0.0664128 -0.052906)
(0.88709 0.0345348 -0.0758407)
(0.953419 0.115331 -0.0456)
(1.02864 0.0560551 -0.0432527)
(1.00209 -0.0611334 -0.0366172)
(0.862408 -0.0520347 0.0326415)
(0.745815 0.00194421 0.0963309)
(0.792158 0.00577457 0.0833784)
(0.918728 -0.0376802 -0.0249751)
(1.04602 -0.0345516 -0.105106)
(0.969278 -0.0018892 -0.0492123)
(0.835453 0.0144299 0.0539184)
(0.89677 0.0532731 0.085974)
(0.981867 0.0707896 0.0712351)
(0.959004 -0.00725183 -0.00746402)
(0.819458 -0.0771955 -0.0613633)
(0.736504 -0.0612669 -0.0393786)
(0.746292 -0.0234726 0.0233455)
(0.768385 -0.0177591 0.0525738)
(0.855659 -0.00536535 0.00749896)
(0.906666 0.00607086 -0.0874424)
(0.808089 -2.28195e-05 -0.105131)
(0.730396 0.000878863 0.0049399)
(0.683538 -0.0113634 0.0762842)
(0.698206 -0.0256877 0.00320943)
(0.792805 -0.00826345 -0.104034)
(0.866886 0.0149969 -0.109399)
(0.89518 0.0285639 0.0384821)
(0.906377 0.0584762 0.149855)
(0.997525 0.0862062 0.0917037)
(0.969684 0.0497705 0.00337213)
(0.88206 0.00309142 -0.0518394)
(0.90721 0.0151276 -0.0650636)
(0.983384 0.0370347 -0.00610279)
(0.983194 0.0355058 -0.0234877)
(0.935199 0.0221672 -0.0873881)
(0.854766 0.0101333 -0.0348887)
(0.799852 -0.012331 0.0452188)
(0.830034 -0.0586382 0.0548568)
(0.84481 -0.0902804 0.00112585)
(0.835298 -0.0588346 -0.0815411)
(0.867901 0.0499983 -0.0842339)
(0.94103 0.127474 -0.0319814)
(1.0661 0.0484149 -0.047358)
(0.932247 -0.0471999 -0.0247457)
(0.769529 -0.0250614 0.0509551)
(0.773133 0.0277876 0.085916)
(0.900572 0.014708 0.0308785)
(0.871026 -0.0397661 -0.0569167)
(0.830283 -0.0329856 -0.0864547)
(0.766552 0.0108592 -0.0201152)
(0.724634 0.029389 0.0524943)
(0.8513 0.0554184 0.0758099)
(0.98744 0.0621112 0.0575859)
(0.951213 -0.000845199 -0.0345511)
(0.814177 -0.0527573 -0.0831506)
(0.710568 -0.0433466 -0.049204)
(0.702668 -0.0247418 0.00905297)
(0.744882 -0.0266661 0.0225027)
(0.823494 -0.00749121 -0.0340234)
(0.840127 0.0120643 -0.116737)
(0.775048 0.00564419 -0.110269)
(0.760663 0.000817723 0.0266373)
(0.73826 -0.0107677 0.12134)
(0.731447 -0.0253716 0.0405936)
(0.791006 -0.00762834 -0.102722)
(0.862556 0.0239753 -0.117046)
(0.886586 0.0363248 0.0258915)
(0.891076 0.0562876 0.124819)
(0.985401 0.0816678 0.0758672)
(0.984196 0.0514195 -0.00255225)
(0.933742 0.0062065 -0.0612468)
(0.956256 0.0154935 -0.0720774)
(0.973537 0.0405728 -0.0204006)
(0.910752 0.0364414 -0.0515277)
(0.855185 0.0209293 -0.0878222)
(0.800661 0.0124908 -0.0159629)
(0.767289 -0.011569 0.0508214)
(0.801865 -0.0634977 0.0496276)
(0.838605 -0.092815 -0.0193515)
(0.84713 -0.0484216 -0.102839)
(0.851539 0.0669365 -0.0711657)
(0.948346 0.133383 -0.0144628)
(1.09601 0.0436573 -0.0420457)
(0.877036 -0.0225179 -0.0311628)
(0.735685 -0.00511806 0.0529103)
(0.795943 0.0376873 0.078326)
(0.945411 0.0248656 0.00336536)
(0.894604 -0.0307353 -0.0649046)
(0.747633 -0.0299353 -0.0565311)
(0.655995 0.0164356 -0.00310274)
(0.671491 0.0352315 0.0377173)
(0.85383 0.0479195 0.0689297)
(0.987887 0.0544911 0.0510784)
(0.914918 0.0060964 -0.0476352)
(0.778721 -0.034018 -0.0962019)
(0.675479 -0.0258859 -0.0631414)
(0.663876 -0.0246355 -0.0178514)
(0.718824 -0.0300623 -0.0188471)
(0.786687 -0.00141732 -0.0782497)
(0.788483 0.0185613 -0.144737)
(0.77175 0.00700443 -0.117482)
(0.817635 -0.0056962 0.0337476)
(0.800013 -0.0178747 0.148105)
(0.774344 -0.0214012 0.0807774)
(0.799303 0.00215602 -0.0768747)
(0.86221 0.0353841 -0.104383)
(0.88792 0.0434435 0.0152301)
(0.875503 0.0558448 0.0999763)
(0.980486 0.0755965 0.0551558)
(1.01512 0.0456805 -0.0132277)
(0.967117 0.00781193 -0.065042)
(0.946053 0.0197996 -0.0681591)
(0.91897 0.0461978 -0.0231671)
(0.862199 0.0347733 -0.0646333)
(0.84049 0.014337 -0.0913491)
(0.798876 0.00803201 -0.0139967)
(0.739701 -0.0161643 0.0541143)
(0.752554 -0.0704163 0.0528185)
(0.813649 -0.093997 -0.0333484)
(0.844627 -0.0357576 -0.110925)
(0.825629 0.082577 -0.0555766)
(0.984514 0.131431 0.00486154)
(1.08992 0.0492884 -0.0340968)
(0.913651 -0.000735823 -0.0370765)
(0.74401 0.0113795 0.0620011)
(0.766216 0.0412184 0.0960995)
(0.960583 0.0201646 -0.00747011)
(0.960135 -0.0308358 -0.0819618)
(0.771523 -0.0237255 -0.0399311)
(0.656089 0.0209112 0.0149298)
(0.708074 0.0361928 0.0433558)
(0.885414 0.0419271 0.0684067)
(0.947257 0.0494384 0.032109)
(0.843722 0.0119568 -0.0588896)
(0.723109 -0.017428 -0.0959113)
(0.64089 -0.0111183 -0.0718258)
(0.633405 -0.0234681 -0.0425678)
(0.671424 -0.0286075 -0.0607903)
(0.719977 0.00717364 -0.115684)
(0.74195 0.0209309 -0.151328)
(0.796451 0.00439073 -0.0985057)
(0.86734 -0.0117095 0.0417266)