/*--------------------------------*- C++ -*----------------------------------*\
  =========                 |
  \\      /  F ield         | OpenFOAM: The Open Source CFD Toolbox
   \\    /   O peration     | Website:  https://openfoam.org
    \\  /    A nd           | Version:  10
     \\/     M anipulation  |
\*---------------------------------------------------------------------------*/
FoamFile
{
    format      ascii;
    class       volVectorField;
    location    "30";
    object      U_0;
}
// * * * * * * * * * * * * * * * * * * * * * * * * * * * * * * * * * * * * * //

dimensions      [0 1 -1 0 0 0 0];

internalField   nonuniform List<vector> 
25600
(
(1.04585 5.56178e-06 1.96483e-05)
(1.04589 3.12438e-05 -1.72403e-05)
(1.04581 -4.88649e-05 1.73515e-05)
(1.0459 5.94342e-05 -1.63535e-05)
(1.04583 -4.57185e-05 1.74787e-05)
(1.04585 3.6791e-05 -1.30088e-05)
(1.04588 -2.03956e-05 8.48791e-06)
(1.04583 1.96668e-05 3.13914e-08)
(1.04588 -8.7517e-06 -9.49278e-06)
(1.04582 3.09671e-06 2.78965e-05)
(1.04588 1.67219e-05 -4.11061e-05)
(1.04584 -2.36576e-05 4.35816e-05)
(1.04586 2.64844e-05 -2.83736e-05)
(1.04586 -4.62727e-06 1.0464e-05)
(1.04584 -1.42666e-05 7.95021e-06)
(1.04588 3.03906e-05 -1.85602e-05)
(1.04584 -2.77738e-05 2.51549e-05)
(1.04587 2.30982e-05 -2.16086e-05)
(1.04584 -1.93358e-05 1.5303e-05)
(1.04587 2.2813e-05 -3.43914e-06)
(1.04585 -2.55954e-05 -2.73388e-06)
(1.04584 2.08917e-05 6.69337e-06)
(1.04588 -4.78903e-06 -6.64722e-06)
(1.04583 -1.99327e-05 1.11595e-05)
(1.04587 4.05029e-05 -1.42693e-05)
(1.04586 -4.81105e-05 1.90793e-05)
(1.04585 4.04362e-05 -1.53709e-05)
(1.04588 -2.69397e-05 9.92556e-06)
(1.04583 9.42909e-06 1.20433e-06)
(1.0459 7.14089e-06 -7.07445e-06)
(1.04584 -2.21944e-05 1.2103e-05)
(1.04585 2.90404e-05 -6.11388e-06)
(1.04589 -2.67593e-05 3.14733e-07)
(1.04583 1.12915e-05 8.89441e-06)
(1.04587 1.40077e-05 -9.6342e-06)
(1.04586 -4.07014e-05 7.87289e-06)
(1.04586 6.43665e-05 1.84892e-06)
(1.04584 -7.27602e-05 -8.63612e-06)
(1.04589 6.70139e-05 1.62321e-05)
(1.04584 -3.77031e-05 -1.76871e-05)
(1.04588 1.46564e-05 9.44846e-06)
(1.04586 2.76617e-05 -2.38802e-06)
(1.04583 -4.97822e-05 2.72845e-06)
(1.0459 6.62262e-05 -5.4117e-06)
(1.04582 -5.00902e-05 1.30412e-05)
(1.04587 3.61666e-05 -1.2663e-05)
(1.04587 -9.71218e-06 9.62613e-06)
(1.04584 2.43853e-06 1.25365e-06)
(1.04587 1.13567e-05 -1.16167e-05)
(1.04584 -1.4143e-05 2.88845e-05)
(1.04587 2.95232e-05 -3.8429e-05)
(1.04584 -3.15739e-05 3.90658e-05)
(1.04587 3.22442e-05 -2.35179e-05)
(1.04584 -1.18879e-05 7.48895e-06)
(1.04585 -5.2972e-06 1.08647e-05)
(1.04587 1.76848e-05 -2.20627e-05)
(1.04583 -1.40142e-05 3.1112e-05)
(1.04587 7.73425e-06 -2.77204e-05)
(1.04584 -6.60835e-06 1.99637e-05)
(1.04587 1.28333e-05 -4.30522e-06)
(1.04585 -2.35296e-05 -3.37039e-06)
(1.04585 2.47907e-05 6.5441e-06)
(1.04586 -1.42112e-05 -3.09364e-06)
(1.04586 -1.02931e-05 4.80918e-06)
(1.04585 2.94822e-05 -6.92947e-06)
(1.04586 -3.79982e-05 1.44461e-05)
(1.04586 2.92895e-05 -1.51035e-05)
(1.04586 -1.45895e-05 1.42691e-05)
(1.04585 -7.00562e-06 -5.09037e-06)
(1.04588 2.656e-05 -5.43036e-07)
(1.04584 -4.18351e-05 8.02943e-06)
(1.04586 4.21638e-05 -4.6848e-06)
(1.04587 -2.92898e-05 1.42563e-06)
(1.04585 7.93486e-06 6.25254e-06)
(1.04585 1.55108e-05 -6.60972e-06)
(1.04588 -3.20686e-05 4.15228e-06)
(1.04585 4.93384e-05 7.01228e-06)
(1.04584 -5.70628e-05 -1.442e-05)
(1.0459 6.18892e-05 1.92497e-05)
(1.04581 -4.08607e-05 -1.42566e-05)
(1.04591 1.94998e-05 -1.21962e-06)
(1.04584 1.87027e-05 1.20317e-05)
(1.04584 -3.64634e-05 -1.02586e-05)
(1.0459 5.52042e-05 4.42866e-06)
(1.04581 -3.88982e-05 8.69154e-06)
(1.04589 2.76546e-05 -1.15128e-05)
(1.04585 8.41566e-07 1.12264e-05)
(1.04585 -8.1761e-06 7.30351e-07)
(1.04587 2.11418e-05 -9.32297e-06)
(1.04584 -1.77318e-05 2.49741e-05)
(1.04587 2.5846e-05 -3.05856e-05)
(1.04584 -2.31593e-05 3.14995e-05)
(1.04588 2.66775e-05 -1.69042e-05)
(1.04583 -1.55586e-05 4.46647e-06)
(1.04586 6.87095e-06 1.25527e-05)
(1.04587 -1.56763e-06 -2.28076e-05)
(1.04583 6.89995e-06 3.33765e-05)
(1.04588 -1.43605e-05 -2.99391e-05)
(1.04584 1.32637e-05 2.27522e-05)
(1.04586 -6.03708e-06 -5.40682e-06)
(1.04586 -1.13574e-05 -2.49478e-06)
(1.04585 2.08954e-05 5.96669e-06)
(1.04585 -2.24696e-05 -2.34506e-07)
(1.04587 7.61445e-06 3.69051e-07)
(1.04584 2.76184e-06 -5.02582e-07)
(1.04586 -9.89009e-06 9.78413e-06)
(1.04587 5.09993e-06 -1.43008e-05)
(1.04584 8.67215e-07 1.95535e-05)
(1.04586 -1.39797e-05 -1.39054e-05)
(1.04586 2.59669e-05 9.58804e-06)
(1.04585 -3.65421e-05 3.00319e-07)
(1.04586 3.45063e-05 -8.95199e-07)
(1.04586 -1.93896e-05 3.00853e-06)
(1.04587 1.81575e-06 1.20741e-06)
(1.04584 1.33047e-05 5.62034e-08)
(1.04589 -1.46176e-05 -1.81738e-06)
(1.04584 2.21835e-05 1.26349e-05)
(1.04585 -2.53762e-05 -1.84761e-05)
(1.0459 4.0173e-05 2.00986e-05)
(1.0458 -3.10094e-05 -8.99013e-06)
(1.04592 2.09431e-05 -9.5665e-06)
(1.04582 9.15883e-06 2.26787e-05)
(1.04585 -1.7405e-05 -1.84811e-05)
(1.0459 3.70216e-05 1.10066e-05)
(1.0458 -2.30202e-05 6.44581e-06)
(1.0459 2.00426e-05 -1.03795e-05)
(1.04584 4.89253e-06 1.27067e-05)
(1.04585 -7.81713e-06 6.94045e-07)
(1.04587 1.89755e-05 -7.12769e-06)
(1.04584 -1.16718e-05 2.13797e-05)
(1.04587 1.63556e-05 -2.28596e-05)
(1.04584 -1.12776e-05 2.43463e-05)
(1.04588 1.94494e-05 -1.04788e-05)
(1.04583 -1.75587e-05 2.07147e-06)
(1.04587 1.66943e-05 1.37911e-05)
(1.04587 -1.61129e-05 -2.23622e-05)
(1.04582 2.11122e-05 3.44687e-05)
(1.04588 -2.82249e-05 -3.06523e-05)
(1.04585 2.56699e-05 2.47744e-05)
(1.04585 -2.01909e-05 -5.92054e-06)
(1.04587 1.62946e-07 -2.22425e-06)
(1.04584 1.45498e-05 7.20063e-06)
(1.04585 -2.564e-05 -4.75247e-07)
(1.04588 2.06328e-05 7.57129e-08)
(1.04584 -1.97677e-05 2.26052e-06)
(1.04586 1.51821e-05 7.84625e-06)
(1.04587 -1.5405e-05 -1.42755e-05)
(1.04584 1.16741e-05 2.43333e-05)
(1.04587 -1.23051e-05 -2.08022e-05)
(1.04586 1.28542e-05 1.81213e-05)
(1.04585 -1.77958e-05 -5.71438e-06)
(1.04587 1.70062e-05 1.30793e-06)
(1.04585 -4.95373e-06 6.99756e-06)
(1.04588 -4.64054e-06 -6.23023e-06)
(1.04584 1.01732e-05 8.52024e-06)
(1.04589 2.31571e-06 -7.91815e-06)
(1.04584 -2.51077e-06 1.67463e-05)
(1.04586 6.11135e-06 -1.99739e-05)
(1.04589 1.56969e-05 1.93163e-05)
(1.0458 -1.61182e-05 -3.60008e-06)
(1.04593 2.22166e-05 -1.47296e-05)
(1.04581 -2.92055e-07 2.94786e-05)
(1.04586 3.69185e-06 -2.21199e-05)
(1.0459 1.68488e-05 1.41225e-05)
(1.04579 -6.49011e-06 6.71454e-06)
(1.04591 1.4704e-05 -9.76011e-06)
(1.04583 3.84668e-06 1.47475e-05)
(1.04586 8.51067e-07 1.09294e-06)
(1.04587 7.6637e-06 -5.08706e-06)
(1.04584 1.73969e-06 1.94429e-05)
(1.04587 3.52265e-06 -1.68009e-05)
(1.04584 7.92984e-07 1.99679e-05)
(1.04587 1.4317e-05 -6.16059e-06)
(1.04583 -2.09145e-05 1.21492e-06)
(1.04586 2.56343e-05 1.48258e-05)
(1.04587 -2.7011e-05 -2.17188e-05)
(1.04582 2.92233e-05 3.56128e-05)
(1.04588 -3.45336e-05 -3.1007e-05)
(1.04585 2.95603e-05 2.73042e-05)
(1.04584 -2.6941e-05 -7.26276e-06)
(1.04589 6.36374e-06 -6.67681e-07)
(1.04583 1.06559e-05 8.53658e-06)
(1.04586 -2.74847e-05 -1.94783e-06)
(1.04588 2.80558e-05 2.71839e-06)
(1.04584 -3.30907e-05 1.97612e-06)
(1.04586 2.94412e-05 8.75889e-06)
(1.04587 -2.48791e-05 -1.54507e-05)
(1.04585 1.47123e-05 2.93051e-05)
(1.04586 -6.03128e-06 -2.63165e-05)
(1.04586 -2.56206e-06 2.51015e-05)
(1.04585 3.08292e-06 -1.01136e-05)
(1.04587 -6.57769e-07 2.71536e-06)
(1.04584 8.29244e-06 1.12704e-05)
(1.04588 -7.88412e-06 -1.36959e-05)
(1.04584 5.45498e-06 1.72547e-05)
(1.04588 1.77532e-05 -1.35848e-05)
(1.04584 -2.07735e-05 2.00207e-05)
(1.04586 3.12106e-05 -1.95918e-05)
(1.04588 -4.28448e-06 1.78292e-05)
(1.0458 -1.72545e-06 1.25576e-06)
(1.04592 2.3902e-05 -1.75097e-05)
(1.04581 -8.91383e-06 3.39338e-05)
(1.04587 2.48427e-05 -2.27695e-05)
(1.04589 -3.63306e-06 1.61632e-05)
(1.0458 1.00046e-05 8.15361e-06)
(1.04591 9.56759e-06 -8.83656e-06)
(1.04583 2.80021e-06 1.71908e-05)
(1.04586 1.06844e-05 2.20679e-06)
(1.04587 -5.85092e-06 -2.94639e-06)
(1.04584 1.67556e-05 1.88012e-05)
(1.04587 -9.87422e-06 -1.1497e-05)
(1.04584 1.41885e-05 1.71189e-05)
(1.04587 7.39312e-06 -2.38827e-06)
(1.04583 -2.10234e-05 1.2937e-06)
(1.04586 2.96466e-05 1.6003e-05)
(1.04587 -3.20543e-05 -2.08911e-05)
(1.04582 3.18721e-05 3.74796e-05)
(1.04588 -3.49593e-05 -3.15529e-05)
(1.04585 2.73024e-05 3.08862e-05)
(1.04583 -2.82853e-05 -9.20389e-06)
(1.0459 8.8837e-06 2.16867e-06)
(1.04582 8.7461e-06 9.13861e-06)
(1.04586 -2.76421e-05 -2.64943e-06)
(1.04587 2.99554e-05 6.29543e-06)
(1.04584 -3.80503e-05 7.0935e-07)
(1.04587 3.39019e-05 1.12263e-05)
(1.04586 -2.43367e-05 -1.71222e-05)
(1.04585 1.12637e-05 3.39844e-05)
(1.04586 2.01236e-06 -3.01627e-05)
(1.04587 -1.6795e-05 3.0935e-05)
(1.04585 2.11352e-05 -1.34311e-05)
(1.04587 -1.39011e-05 4.28437e-06)
(1.04584 1.73995e-05 1.49548e-05)
(1.04588 -7.72456e-06 -1.92345e-05)
(1.04585 -5.38537e-07 2.40499e-05)
(1.04587 3.08509e-05 -1.71482e-05)
(1.04585 -3.21731e-05 2.18854e-05)
(1.04587 4.92713e-05 -1.75226e-05)
(1.04587 -1.97066e-05 1.63892e-05)
(1.04581 1.07521e-05 5.78195e-06)
(1.04591 2.49038e-05 -1.82279e-05)
(1.04581 -1.49447e-05 3.76653e-05)
(1.04587 4.41213e-05 -2.21265e-05)
(1.04589 -2.24079e-05 1.87541e-05)
(1.0458 2.55739e-05 9.81242e-06)
(1.0459 3.47458e-06 -6.54753e-06)
(1.04583 4.83813e-06 1.98503e-05)
(1.04585 1.61121e-05 4.19254e-06)
(1.04587 -1.44999e-05 -4.83819e-07)
(1.04584 2.59193e-05 2.00445e-05)
(1.04587 -1.75e-05 -7.1886e-06)
(1.04585 2.36328e-05 1.66699e-05)
(1.04585 1.9004e-06 2.36496e-07)
(1.04584 -1.91785e-05 2.86282e-06)
(1.04586 2.84087e-05 1.73859e-05)
(1.04587 -3.13683e-05 -1.94901e-05)
(1.04582 2.88514e-05 4.00702e-05)
(1.04588 -2.98547e-05 -3.18629e-05)
(1.04585 1.89746e-05 3.55431e-05)
(1.04583 -2.42996e-05 -1.15316e-05)
(1.04591 6.46537e-06 6.74944e-06)
(1.04581 1.0172e-05 8.6125e-06)
(1.04587 -2.80551e-05 -1.73016e-06)
(1.04587 2.8317e-05 9.81513e-06)
(1.04584 -3.73523e-05 8.20687e-08)
(1.04587 3.12861e-05 1.39426e-05)
(1.04585 -1.75624e-05 -1.75054e-05)
(1.04586 5.36583e-06 3.73256e-05)
(1.04585 8.08565e-06 -3.12831e-05)
(1.04587 -2.63721e-05 3.46238e-05)
(1.04585 3.32613e-05 -1.46208e-05)
(1.04587 -2.09349e-05 5.87839e-06)
(1.04584 2.18868e-05 1.76289e-05)
(1.04587 -4.34644e-06 -2.20974e-05)
(1.04587 -6.79655e-06 2.90183e-05)
(1.04586 4.13977e-05 -1.85492e-05)
(1.04586 -3.77389e-05 2.31477e-05)
(1.04587 6.20976e-05 -1.4422e-05)
(1.04586 -3.11567e-05 1.54419e-05)
(1.04583 2.21947e-05 1.0225e-05)
(1.0459 2.28113e-05 -1.65223e-05)
(1.04582 -1.57844e-05 4.0828e-05)
(1.04586 5.77754e-05 -1.97952e-05)
(1.04588 -3.71461e-05 2.24515e-05)
(1.04581 3.78709e-05 1.20706e-05)
(1.0459 -1.81283e-06 -2.95098e-06)
(1.04583 8.74416e-06 2.33433e-05)
(1.04584 1.78019e-05 7.57081e-06)
(1.04587 -1.95348e-05 3.03238e-06)
(1.04584 2.98183e-05 2.33251e-05)
(1.04587 -1.94145e-05 -3.42717e-06)
(1.04585 2.85873e-05 1.87519e-05)
(1.04584 -9.18368e-07 2.32705e-06)
(1.04585 -1.89286e-05 6.68533e-06)
(1.04585 2.59642e-05 1.84969e-05)
(1.04587 -2.95541e-05 -1.64125e-05)
(1.04582 2.50519e-05 4.26848e-05)
(1.04587 -2.47696e-05 -3.05614e-05)
(1.04586 8.93069e-06 4.0705e-05)
(1.04582 -1.90474e-05 -1.27671e-05)
(1.04592 2.11957e-06 1.21037e-05)
(1.0458 1.2977e-05 8.16924e-06)
(1.04587 -2.9256e-05 1.12272e-06)
(1.04587 2.41355e-05 1.3524e-05)
(1.04584 -3.35686e-05 1.17511e-06)
(1.04588 2.46418e-05 1.64731e-05)
(1.04585 -7.08009e-06 -1.62399e-05)
(1.04587 -2.18804e-06 3.97496e-05)
(1.04584 1.12123e-05 -2.95579e-05)
(1.04588 -3.0917e-05 3.68367e-05)
(1.04585 3.93621e-05 -1.35629e-05)
(1.04587 -2.21665e-05 7.38084e-06)
(1.04585 2.22375e-05 2.01744e-05)
(1.04586 6.44593e-07 -2.25594e-05)
(1.04588 -1.3523e-05 3.2829e-05)
(1.04585 5.1052e-05 -1.83221e-05)
(1.04586 -4.01833e-05 2.52732e-05)
(1.04587 7.20188e-05 -1.07458e-05)
(1.04585 -4.19413e-05 1.65659e-05)
(1.04584 3.49969e-05 1.44522e-05)
(1.04589 1.73683e-05 -1.16405e-05)
(1.04583 -1.14422e-05 4.40594e-05)
(1.04585 6.49652e-05 -1.51414e-05)
(1.04588 -4.68116e-05 2.7806e-05)
(1.04582 4.44076e-05 1.62268e-05)
(1.04589 -5.27556e-06 2.32701e-06)
(1.04584 1.2291e-05 2.90143e-05)
(1.04584 1.71958e-05 1.21032e-05)
(1.04588 -2.33243e-05 9.36176e-06)
(1.04584 3.02359e-05 2.89949e-05)
(1.04587 -1.97759e-05 1.52987e-06)
(1.04586 3.21764e-05 2.29453e-05)
(1.04583 -4.14138e-06 4.92781e-06)
(1.04585 -1.88002e-05 1.35057e-05)
(1.04585 2.01318e-05 2.05423e-05)
(1.04587 -2.73095e-05 -1.05458e-05)
(1.04582 2.03839e-05 4.5574e-05)
(1.04587 -2.14499e-05 -2.66835e-05)
(1.04586 -1.45337e-06 4.67272e-05)
(1.04582 -1.58675e-05 -1.11397e-05)
(1.04592 -2.92103e-06 1.81454e-05)
(1.04579 1.5742e-05 8.68086e-06)
(1.04587 -3.11691e-05 5.96768e-06)
(1.04587 1.75157e-05 1.85841e-05)
(1.04584 -2.9074e-05 4.59967e-06)
(1.04588 1.48398e-05 1.94289e-05)
(1.04584 5.4874e-06 -1.30216e-05)
(1.04587 -1.13227e-05 4.226e-05)
(1.04583 1.22471e-05 -2.4839e-05)
(1.04588 -3.4146e-05 3.90491e-05)
(1.04586 4.1883e-05 -1.05325e-05)
(1.04586 -2.05764e-05 9.46214e-06)
(1.04585 2.11826e-05 2.32345e-05)
(1.04585 4.73374e-06 -1.99522e-05)
(1.04589 -1.94675e-05 3.6562e-05)
(1.04585 5.79322e-05 -1.59209e-05)
(1.04586 -3.93479e-05 2.86355e-05)
(1.04587 7.91144e-05 -6.25272e-06)
(1.04584 -5.18978e-05 2.08345e-05)
(1.04586 4.76865e-05 1.95021e-05)
(1.04587 1.00576e-05 -3.36667e-06)
(1.04584 -5.67816e-06 4.83206e-05)
(1.04585 6.61111e-05 -7.43448e-06)
(1.04587 -5.33423e-05 3.64699e-05)
(1.04583 4.57739e-05 2.39381e-05)
(1.04588 -8.64174e-06 1.00653e-05)
(1.04584 1.43992e-05 3.77791e-05)
(1.04583 1.29299e-05 1.89575e-05)
(1.04588 -2.66188e-05 2.0463e-05)
(1.04584 2.69438e-05 3.84101e-05)
(1.04587 -1.96732e-05 9.21805e-06)
(1.04586 3.31982e-05 2.94667e-05)
(1.04582 -9.52061e-06 9.98214e-06)
(1.04586 -1.95377e-05 2.43358e-05)
(1.04585 1.05303e-05 2.55404e-05)
(1.04587 -2.52049e-05 -1.49935e-06)
(1.04582 1.25632e-05 5.00187e-05)
(1.04586 -1.96705e-05 -1.93208e-05)
(1.04586 -1.42627e-05 5.53274e-05)
(1.04582 -1.40447e-05 -5.31944e-06)
(1.04593 -1.04152e-05 2.56769e-05)
(1.04579 1.77321e-05 1.11253e-05)
(1.04587 -3.66013e-05 1.34613e-05)
(1.04587 1.02677e-05 2.69242e-05)
(1.04584 -2.73992e-05 1.15956e-05)
(1.04589 4.07663e-06 2.3602e-05)
(1.04583 1.5427e-05 -7.52495e-06)
(1.04587 -2.10425e-05 4.58778e-05)
(1.04583 1.00272e-05 -1.65112e-05)
(1.04589 -3.67429e-05 4.28527e-05)
(1.04586 4.09932e-05 -4.77908e-06)
(1.04586 -1.93523e-05 1.28127e-05)
(1.04586 1.90146e-05 2.74999e-05)
(1.04584 6.83381e-06 -1.29768e-05)
(1.0459 -2.42388e-05 4.16212e-05)
(1.04584 6.09654e-05 -1.04658e-05)
(1.04587 -3.67591e-05 3.4012e-05)
(1.04586 8.1913e-05 5.65901e-07)
(1.04584 -6.04033e-05 2.92423e-05)
(1.04587 5.84288e-05 2.71056e-05)
(1.04586 -5.78015e-07 9.14674e-06)
(1.04585 -2.76974e-07 5.41009e-05)
(1.04583 6.06647e-05 4.43899e-06)
(1.04587 -5.94439e-05 5.14221e-05)
(1.04583 4.09813e-05 3.83276e-05)
(1.04587 -1.41165e-05 2.1897e-05)
(1.04585 1.25464e-05 5.0005e-05)
(1.04582 4.3567e-06 2.98444e-05)
(1.04588 -3.13523e-05 3.94766e-05)
(1.04584 1.90074e-05 5.48557e-05)
(1.04587 -2.09588e-05 2.10866e-05)
(1.04586 2.94988e-05 3.81586e-05)
(1.04581 -1.70833e-05 1.90504e-05)
(1.04586 -2.4674e-05 4.28573e-05)
(1.04585 -3.17129e-06 3.69824e-05)
(1.04587 -2.74009e-05 1.20368e-05)
(1.04582 1.45945e-06 5.59083e-05)
(1.04586 -2.27336e-05 -7.02955e-06)
(1.04586 -2.9781e-05 6.99047e-05)
(1.04582 -1.62076e-05 7.74294e-06)
(1.04594 -2.18752e-05 3.57722e-05)
(1.04578 1.6615e-05 1.56002e-05)
(1.04587 -4.69203e-05 2.4828e-05)
(1.04587 1.20917e-06 4.15909e-05)
(1.04584 -3.13341e-05 2.48325e-05)
(1.0459 -7.954e-06 3.01219e-05)
(1.04583 1.89406e-05 -2.04737e-07)
(1.04587 -3.14181e-05 5.21863e-05)
(1.04582 2.41667e-06 -2.07797e-06)
(1.04589 -3.98887e-05 5.07158e-05)
(1.04586 3.51632e-05 4.25612e-06)
(1.04585 -1.9599e-05 1.77391e-05)
(1.04586 1.37122e-05 3.46056e-05)
(1.04583 6.19871e-06 7.71052e-07)
(1.04591 -3.05732e-05 5.16325e-05)
(1.04584 5.97214e-05 -1.35775e-06)
(1.04587 -3.52855e-05 4.15185e-05)
(1.04586 8.04162e-05 1.10904e-05)
(1.04583 -6.974e-05 4.51709e-05)
(1.04589 6.55073e-05 4.09715e-05)
(1.04585 -1.93562e-05 2.73868e-05)
(1.04586 5.5553e-08 5.91217e-05)
(1.04582 4.66254e-05 2.08494e-05)
(1.04586 -6.57809e-05 7.8589e-05)
(1.04584 2.81787e-05 6.62732e-05)
(1.04587 -2.53893e-05 3.97204e-05)
(1.04585 1.4374e-06 6.34086e-05)
(1.04581 -9.34242e-06 4.53421e-05)
(1.04588 -3.95389e-05 7.16681e-05)
(1.04584 6.28059e-06 8.56991e-05)
(1.04587 -2.92046e-05 3.90087e-05)
(1.04586 1.76139e-05 4.66678e-05)
(1.04579 -2.96698e-05 3.26472e-05)
(1.04586 -3.44457e-05 7.43928e-05)
(1.04585 -2.26401e-05 6.16597e-05)
(1.04587 -3.82913e-05 3.22859e-05)
(1.04582 -1.74792e-05 6.10059e-05)
(1.04585 -3.37265e-05 9.83623e-06)
(1.04585 -4.76942e-05 9.6392e-05)
(1.04582 -2.52329e-05 3.46134e-05)
(1.04594 -3.97035e-05 5.00926e-05)
(1.04577 7.0429e-06 1.98121e-05)
(1.04586 -6.36802e-05 3.95399e-05)
(1.04587 -1.06899e-05 6.85145e-05)
(1.04583 -4.2352e-05 4.98441e-05)
(1.04591 -2.54057e-05 4.06319e-05)
(1.04582 1.21357e-05 6.12498e-06)
(1.04586 -4.48021e-05 6.09281e-05)
(1.04582 -1.05702e-05 2.29993e-05)
(1.0459 -4.61192e-05 6.90374e-05)
(1.04586 2.06918e-05 1.76871e-05)
(1.04585 -2.62472e-05 2.14125e-05)
(1.04586 4.19597e-06 4.458e-05)
(1.04582 2.48462e-06 2.6491e-05)
(1.04592 -3.9863e-05 7.3349e-05)
(1.04584 5.06869e-05 1.30019e-05)
(1.04587 -4.01151e-05 4.89421e-05)
(1.04585 7.35314e-05 2.51956e-05)
(1.04583 -8.05243e-05 7.37895e-05)
(1.0459 6.77027e-05 6.81095e-05)
(1.04584 -4.90789e-05 5.42038e-05)
(1.04586 -1.19537e-05 5.31786e-05)
(1.0458 2.05864e-05 3.61875e-05)
(1.04585 -7.47644e-05 0.000129713)
(1.04584 6.11565e-06 0.000125025)
(1.04586 -4.69058e-05 6.78267e-05)
(1.04584 -2.4261e-05 6.78308e-05)
(1.04579 -3.19957e-05 5.9313e-05)
(1.04587 -5.2327e-05 0.000126495)
(1.04583 -1.09608e-05 0.000146668)
(1.04587 -4.9679e-05 6.61707e-05)
(1.04585 -8.04579e-06 4.57782e-05)
(1.04577 -5.22746e-05 4.58815e-05)
(1.04585 -4.98035e-05 0.000129778)
(1.04584 -5.00614e-05 0.000115834)
(1.04587 -6.1742e-05 6.28271e-05)
(1.04582 -5.04548e-05 5.53736e-05)
(1.04583 -5.60626e-05 2.53704e-05)
(1.04585 -6.97224e-05 0.000145042)
(1.04582 -4.19601e-05 9.07203e-05)
(1.04594 -6.92892e-05 7.22246e-05)
(1.04577 -1.67651e-05 1.38941e-05)
(1.04585 -9.02947e-05 5.23329e-05)
(1.04586 -2.6373e-05 0.00011778)
(1.04582 -6.20019e-05 0.00010221)
(1.04591 -5.31531e-05 5.9088e-05)
(1.04581 -1.13717e-05 4.94135e-07)
(1.04585 -6.52186e-05 6.71255e-05)
(1.04581 -2.92154e-05 6.85705e-05)
(1.0459 -5.75312e-05 0.000113175)
(1.04587 -6.06711e-06 3.78405e-05)
(1.04584 -4.66059e-05 1.40846e-05)
(1.04586 -1.30523e-05 5.21445e-05)
(1.0458 -5.39818e-06 7.54296e-05)
(1.04592 -5.37802e-05 0.000123636)
(1.04584 2.93841e-05 3.58269e-05)
(1.04587 -5.76695e-05 4.6372e-05)
(1.04583 5.71961e-05 3.80333e-05)
(1.04582 -9.3659e-05 0.000126265)
(1.0459 6.36609e-05 0.00012436)
(1.04579 -9.77949e-05 9.48759e-05)
(1.04583 -4.53182e-05 9.23766e-06)
(1.04574 -1.94102e-05 3.33733e-05)
(1.0458 -8.79293e-05 0.000227974)
(1.04582 -2.79766e-05 0.000253728)
(1.04582 -8.70631e-05 0.000113777)
(1.0458 -7.28303e-05 3.5423e-05)
(1.04573 -6.64382e-05 5.03978e-05)
(1.04583 -6.99456e-05 0.000220888)
(1.04579 -3.56479e-05 0.000272145)
(1.04583 -9.05542e-05 0.00010699)
(1.0458 -5.53407e-05 1.08079e-05)
(1.04571 -8.88177e-05 4.13713e-05)
(1.04581 -7.13315e-05 0.000227153)
(1.0458 -8.77143e-05 0.00023691)
(1.04583 -0.000105872 0.000111763)
(1.04576 -0.000105432 1.04174e-05)
(1.04578 -9.19497e-05 2.04835e-05)
(1.0458 -9.5364e-05 0.00023639)
(1.04577 -6.86142e-05 0.000211226)
(1.0459 -0.00011816 0.000109202)
(1.04571 -6.31529e-05 -2.80445e-05)
(1.04579 -0.000130073 4.61336e-05)
(1.04582 -4.55267e-05 0.00020962)
(1.04577 -9.18889e-05 0.000216118)
(1.04588 -9.89052e-05 9.33724e-05)
(1.04575 -5.95201e-05 -4.39373e-05)
(1.0458 -9.62935e-05 5.36434e-05)
(1.04576 -5.28922e-05 0.000156222)
(1.04587 -7.72613e-05 0.000219895)
(1.04583 -5.2416e-05 6.88748e-05)
(1.04578 -8.73893e-05 -3.19126e-05)
(1.0458 -4.13669e-05 4.07631e-05)
(1.04574 -1.8105e-05 0.000169526)
(1.04588 -7.62877e-05 0.000242081)
(1.0458 -1.19847e-05 7.60098e-05)
(1.04582 -9.63142e-05 7.67713e-06)
(1.04577 2.76692e-05 3.12499e-05)
(1.04577 -0.000110283 0.000223056)
(1.04587 4.88239e-05 0.000244897)
(1.04548 -0.000170991 0.000133824)
(1.04553 -0.000113091 -0.000116182)
(1.04546 -8.2536e-05 5.49474e-06)
(1.04552 -0.000106311 0.000416488)
(1.04555 -7.09279e-05 0.00049506)
(1.04551 -0.000150392 0.000163013)
(1.04548 -0.000154411 -8.2397e-05)
(1.04544 -0.000121347 -1.01665e-06)
(1.04557 -9.33696e-05 0.000388309)
(1.0455 -6.71622e-05 0.000494022)
(1.04551 -0.000158063 0.000143899)
(1.04548 -0.000134931 -9.83691e-05)
(1.04541 -0.000148999 7.64908e-06)
(1.04554 -0.000100648 0.000399751)
(1.0455 -0.000132468 0.000462696)
(1.04552 -0.00017367 0.000165609)
(1.04543 -0.00019286 -0.000121931)
(1.0455 -0.000149079 -1.92958e-05)
(1.04552 -0.000123567 0.000406234)
(1.04548 -0.000103688 0.000431133)
(1.04557 -0.000190601 0.000146592)
(1.04539 -0.000142048 -0.000148133)
(1.04547 -0.00019005 1.22121e-05)
(1.04557 -6.7944e-05 0.000380327)
(1.04545 -0.000129428 0.000425947)
(1.04556 -0.000167123 0.000130952)
(1.0454 -0.000142483 -0.000172605)
(1.04552 -0.000146203 1.26873e-05)
(1.04549 -8.1506e-05 0.000327085)
(1.0456 -0.000102929 0.000428364)
(1.04552 -0.000122556 9.39397e-05)
(1.04547 -0.000159142 -0.000160709)
(1.04551 -9.01682e-05 3.09138e-06)
(1.04546 -3.79845e-05 0.000351012)
(1.04558 -0.000104966 0.000471566)
(1.04549 -7.74722e-05 0.000122621)
(1.04549 -0.000167344 -0.000109097)
(1.04548 -2.34684e-05 -5.1333e-06)
(1.04551 -0.000130995 0.000401951)
(1.04561 2.42877e-05 0.000463301)
(1.04414 -0.000268704 7.13419e-05)
(1.04426 -0.000220736 -0.000334597)
(1.04429 -0.00017199 3.41194e-05)
(1.04434 -0.000130439 0.000746402)
(1.0443 -0.000118027 0.0007886)
(1.04413 -0.00023449 0.000104892)
(1.04418 -0.000271455 -0.000313548)
(1.04424 -0.000202501 -3.12997e-05)
(1.04442 -0.000123415 0.000674479)
(1.04424 -0.000105341 0.000745445)
(1.04416 -0.000253275 7.3371e-05)
(1.0442 -0.000250206 -0.000297816)
(1.04421 -0.000236317 1.0021e-05)
(1.04438 -0.000136466 0.000689096)
(1.04419 -0.000178403 0.000733673)
(1.04417 -0.000262446 0.00011268)
(1.04407 -0.000314227 -0.000367417)
(1.04433 -0.00022933 -2.11758e-05)
(1.0443 -0.000152808 0.000696827)
(1.0442 -0.000143443 0.000687822)
(1.04414 -0.000284802 8.02267e-05)
(1.04408 -0.000254953 -0.000361324)
(1.04421 -0.000272084 2.50607e-05)
(1.04442 -9.13378e-05 0.000670967)
(1.04408 -0.000170128 0.000666703)
(1.0442 -0.000255746 7.16573e-05)
(1.04402 -0.000261356 -0.000405162)
(1.04436 -0.000217527 2.40863e-05)
(1.04428 -0.000113806 0.000626684)
(1.04437 -0.000132031 0.000678103)
(1.04416 -0.000213337 1.27804e-05)
(1.0442 -0.000266544 -0.000381713)
(1.04429 -0.00016424 1.99608e-05)
(1.04429 -6.60009e-05 0.000673245)
(1.04426 -0.000137488 0.000756034)
(1.04416 -0.000166713 7.46063e-05)
(1.04414 -0.00027452 -0.000320986)
(1.04433 -0.00010307 2.86944e-06)
(1.04436 -0.000158014 0.000709333)
(1.04439 -8.33763e-06 0.000714875)
(1.04017 -0.000396679 -0.000216851)
(1.04052 -0.000357398 -0.000465631)
(1.04067 -0.000257573 0.000325987)
(1.04061 -0.000141927 0.00112668)
(1.04038 -0.00016774 0.000825072)
(1.04012 -0.00034653 -0.000221643)
(1.04042 -0.000414106 -0.000502408)
(1.04062 -0.000285007 0.00016444)
(1.04076 -0.000143492 0.00101169)
(1.04032 -0.000154658 0.000736673)
(1.0402 -0.000381246 -0.000235313)
(1.04041 -0.000388597 -0.000431418)
(1.04055 -0.000322862 0.000230555)
(1.04065 -0.000157114 0.00102231)
(1.04016 -0.000222187 0.00075571)
(1.04017 -0.000375255 -0.000209129)
(1.04015 -0.000455697 -0.000559861)
(1.04072 -0.000303331 0.000220195)
(1.04046 -0.000166502 0.00102537)
(1.04024 -0.000189089 0.000697017)
(1.04 -0.000402854 -0.000225367)
(1.04027 -0.000386712 -0.000500333)
(1.04044 -0.000346751 0.000273337)
(1.0407 -9.84985e-05 0.000992023)
(1.03995 -0.000215028 0.000655828)
(1.04021 -0.000367726 -0.000219587)
(1.0401 -0.000402019 -0.000573954)
(1.04081 -0.000284017 0.000293412)
(1.04048 -0.000131809 0.00096291)
(1.04052 -0.000168724 0.000686076)
(1.04012 -0.000331873 -0.000295151)
(1.04046 -0.000397285 -0.000506581)
(1.04056 -0.000236014 0.000298234)
(1.0406 -8.4248e-05 0.00105999)
(1.04021 -0.000173788 0.00079741)
(1.04025 -0.000288269 -0.000212322)
(1.04028 -0.000407842 -0.00046253)
(1.04084 -0.000188936 0.000255384)
(1.04067 -0.000174598 0.00106519)
(1.04055 -5.58063e-05 0.000714501)
(1.03118 -0.000544877 -0.00048739)
(1.0319 -0.000445204 -0.000138545)
(1.03188 -0.000266209 0.000829665)
(1.03162 -0.000142865 0.0011077)
(1.03126 -0.000262783 0.000310695)
(1.0312 -0.000487311 -0.00060857)
(1.03179 -0.000511707 -0.000263699)
(1.03192 -0.000297734 0.000591447)
(1.03181 -0.000151933 0.0010051)
(1.03116 -0.00025563 0.000217011)
(1.03126 -0.000529934 -0.00054653)
(1.03163 -0.000475293 -0.000157223)
(1.03173 -0.000335058 0.000642154)
(1.03153 -0.000157272 0.00101177)
(1.0309 -0.000304604 0.000250263)
(1.03112 -0.000509625 -0.000581923)
(1.0313 -0.000543449 -0.000294083)
(1.03192 -0.00029914 0.000687506)
(1.03121 -0.000163953 0.000992675)
(1.03102 -0.000278755 0.000213945)
(1.03081 -0.000536562 -0.000538701)
(1.03154 -0.0004625 -0.000201842)
(1.03146 -0.000342803 0.000713231)
(1.03165 -9.43114e-05 0.000942555)
(1.03057 -0.000305107 0.000164199)
(1.03128 -0.000501627 -0.000514032)
(1.03128 -0.000491011 -0.000295787)
(1.03215 -0.000276111 0.000791225)
(1.03134 -0.000140061 0.000921661)
(1.03148 -0.000252183 0.00022694)
(1.03101 -0.000472523 -0.00057513)
(1.03181 -0.000477222 -0.000151141)
(1.03162 -0.000235905 0.000796584)
(1.03169 -9.36288e-05 0.00109143)
(1.03092 -0.000257892 0.000313165)
(1.0315 -0.000442319 -0.00051409)
(1.0315 -0.000494246 -0.000166147)
(1.03237 -0.000211454 0.000728312)
(1.03159 -0.000179074 0.00106242)
(1.03157 -0.000161704 0.000225246)
(1.01423 -0.000615466 -0.000195805)
(1.0152 -0.000374124 0.0004615)
(1.01455 -0.00020057 0.000832137)
(1.01441 -0.000224777 0.000413826)
(1.01416 -0.00043999 -0.000256213)
(1.01456 -0.000571596 -0.00044175)
(1.01492 -0.000449205 0.000317926)
(1.01474 -0.000231082 0.000621401)
(1.01435 -0.000225887 0.000399166)
(1.01397 -0.00043241 -0.000308123)
(1.01433 -0.000601783 -0.000294503)
(1.01457 -0.000404393 0.000374864)
(1.01435 -0.000266052 0.000640842)
(1.01393 -0.000220281 0.000408676)
(1.01368 -0.000463119 -0.000298182)
(1.01411 -0.000581415 -0.000368449)
(1.01428 -0.000463613 0.000328004)
(1.01445 -0.00021499 0.000720776)
(1.0136 -0.000230593 0.000370973)
(1.01378 -0.000438988 -0.000261813)
(1.01382 -0.000596593 -0.000287407)
(1.0146 -0.000379925 0.000377618)
(1.01401 -0.000266081 0.000708926)
(1.01424 -0.000169218 0.000317634)
(1.01335 -0.000468151 -0.000285972)
(1.0146 -0.000571203 -0.000243268)
(1.01434 -0.000417418 0.000310957)
(1.01497 -0.000194449 0.000856632)
(1.01387 -0.000224797 0.000293956)
(1.01444 -0.000406361 -0.00016965)
(1.01405 -0.000542415 -0.000269402)
(1.01501 -0.000397434 0.000511234)
(1.01428 -0.000170969 0.000827725)
(1.01457 -0.000180057 0.000499927)
(1.01379 -0.00042992 -0.000211054)
(1.01508 -0.000535473 -0.000237745)
(1.01455 -0.000420579 0.000426304)
(1.01549 -0.000163468 0.000781396)
(1.014 -0.000252489 0.000454464)
(1.01475 -0.000349385 -0.000238872)
(0.986064 -0.000478854 0.000219409)
(0.987206 -0.000247319 0.000458786)
(0.985942 -0.000261061 0.000207433)
(0.986521 -0.000408982 -8.77318e-05)
(0.986187 -0.000515596 -0.000178059)
(0.986783 -0.000449795 -8.53761e-06)
(0.98637 -0.000304349 0.00040549)
(0.986248 -0.000270793 0.000102513)
(0.98581 -0.000389962 -1.90672e-05)
(0.986027 -0.000502984 -0.000197503)
(0.986076 -0.000463498 0.000149018)
(0.986105 -0.00026992 0.00037)
(0.98565 -0.000299152 0.000137527)
(0.985582 -0.000381451 -1.50557e-05)
(0.985711 -0.000523942 -0.000192244)
(0.985983 -0.000447127 0.000120067)
(0.985898 -0.000305303 0.000411678)
(0.985748 -0.000248477 0.000191306)
(0.985437 -0.000393702 -3.60602e-05)
(0.985862 -0.000497017 -0.000108246)
(0.985963 -0.000458463 0.000162952)
(0.986268 -0.000239622 0.000404046)
(0.985613 -0.00031094 0.000199017)
(0.986167 -0.000344272 -7.04635e-05)
(0.985689 -0.000525786 -7.61595e-05)
(0.986847 -0.000441809 0.000228005)
(0.986117 -0.000269776 0.000404388)
(0.98659 -0.000236228 0.00036262)
(0.985791 -0.000396672 -8.84551e-05)
(0.986682 -0.000454852 6.22004e-05)
(0.986252 -0.000419917 0.000204761)
(0.986882 -0.000259943 0.000582513)
(0.98608 -0.000238646 0.000262607)
(0.986706 -0.000361981 8.63444e-05)
(0.98619 -0.000509544 -0.000116648)
(0.987469 -0.000417074 0.000266468)
(0.98623 -0.000278747 0.000453356)
(0.987313 -0.000228631 0.000287074)
(0.9856 -0.000417834 1.33536e-05)
(0.987293 -0.00043294 -8.32586e-05)
(0.944462 -0.000348941 0.00014175)
(0.945959 -0.000278405 0.000126744)
(0.944401 -0.000372381 -0.000125362)
(0.945648 -0.00042786 -4.27033e-06)
(0.944729 -0.000395122 -4.19602e-05)
(0.945403 -0.000311387 4.95851e-05)
(0.944459 -0.000302859 0.00014088)
(0.944917 -0.000364 -0.000134588)
(0.944381 -0.000404308 6.27804e-05)
(0.944973 -0.000384526 -5.60907e-05)
(0.944372 -0.000324386 0.000165912)
(0.944738 -0.000284513 7.80829e-05)
(0.944201 -0.000381096 -6.42068e-05)
(0.944704 -0.000400874 6.87132e-05)
(0.944571 -0.000392942 -1.89913e-05)
(0.944778 -0.000311006 0.000164763)
(0.944511 -0.000300337 0.000135525)
(0.944675 -0.000348689 -4.0003e-05)
(0.944706 -0.000406677 6.91737e-05)
(0.944962 -0.000375498 7.13807e-05)
(0.944971 -0.000329056 0.000161492)
(0.94499 -0.000256752 0.000135108)
(0.944818 -0.000408553 1.95807e-05)
(0.945401 -0.00036371 4.17841e-05)
(0.945052 -0.00039481 0.000169135)
(0.94567 -0.00031209 0.000223056)
(0.944978 -0.000273051 0.000157439)
(0.945573 -0.000342342 0.000136487)
(0.945104 -0.000408257 2.17183e-05)
(0.945854 -0.000339626 0.000241282)
(0.945283 -0.00030736 0.000201155)
(0.945674 -0.000284533 0.000243251)
(0.945291 -0.00036143 -7.03141e-06)
(0.945814 -0.000381123 0.000153017)
(0.945472 -0.000401171 1.20689e-05)
(0.946032 -0.000283075 0.000313278)
(0.944917 -0.000298506 8.97735e-05)
(0.94605 -0.000343434 4.92541e-05)
(0.944551 -0.000432398 1.89864e-05)
(0.946383 -0.000332139 5.25366e-05)
(0.889246 -0.000319498 1.77975e-05)
(0.89078 -0.000303023 -1.70396e-05)
(0.889221 -0.000338097 -0.00013555)