/*--------------------------------*- C++ -*----------------------------------*\
  =========                 |
  \\      /  F ield         | OpenFOAM: The Open Source CFD Toolbox
   \\    /   O peration     | Website:  https://openfoam.org
    \\  /    A nd           | Version:  10
     \\/     M anipulation  |
\*---------------------------------------------------------------------------*/
FoamFile
{
    format      ascii;
    class       volScalarField;
    location    "10";
    object      p;
}
// * * * * * * * * * * * * * * * * * * * * * * * * * * * * * * * * * * * * * //

dimensions      [0 2 -2 0 0 0 0];

internalField   nonuniform List<scalar> 
25600
(
-0.0208013
0.00120668
-0.00252135
-0.0102134
-0.0232882
-0.00227672
-0.000871736
-0.00484739
-0.00185144
-0.00294626
-0.00308741
0.00586744
0.00232342
0.0111662
-0.00432263
-0.0114257
-0.00537278
-0.0143838
-0.0175135
-0.0158549
0.0263553
0.0169249
0.00869158
0.00610886
-0.0176816
-0.0358333
-0.00187638
0.0037643
-0.00702709
-0.0200393
0.00672277
0.0196798
-0.00675456
0.00996871
-0.00297636
0.00024763
0.0057402
0.00543579
0.0132721
-0.0156293
0.0432908
0.0245206
-0.0197716
-0.0162676
0.0544376
0.0443611
-0.00474531
-0.0260149
-0.0173089
0.0248078
0.0471729
0.0339304
-0.00139031
-0.0113397
0.0108615
0.0294973
0.0338697
-0.0101108
-0.0237679
0.0265472
0.0430634
-0.00264898
-0.0156775
-0.00856557
0.0135397
0.0396254
0.0361714
-0.00138393
-0.0147502
0.0211848
0.0546745
0.0213522
-0.0271278
-0.0307659
0.016692
0.0464191
0.0371772
-0.0105951
-0.0200415
0.0242444
0.00695783
-0.00442613
0.00320687
-0.0150084
-0.0268366
-0.00418055
-0.00336094
-0.0042648
-0.0337713
-0.0238683
0.00685459
0.00554947
0.00218738
-0.0273721
-0.0342702
0.000662658
-0.0045359
-0.00669849
-0.0268036
-0.0247076
-0.0092781
-0.00578476
-0.00693239
-0.0347899
-0.0204614
0.0063921
0.00894016
0.00136011
-0.0313685
-0.0224351
0.000704095
-0.00295942
-0.00955597
-0.0325951
-0.0252114
0.0043443
0.00323978
-0.0121665
-0.0419456
-0.0209388
-0.0281129
-0.0160093
0.0175764
0.0260733
0.00818332
-0.00961163
-0.0140471
-0.00844389
0.0321028
0.021294
-0.00236855
-0.0165201
-0.00405873
0.0180497
-0.00532032
-0.02451
-0.0254687
0.00254966
0.0395624
0.0221013
-0.0146342
-0.0252004
-0.00971534
0.026873
0.00510393
-0.0136268
-0.013124
0.00230394
0.0356618
0.0206825
-0.0111876
-0.0192753
0.000716752
0.0390619
0.0134984
-0.0100605
-0.0226762
-0.0040635
0.0543425
0.00913863
0.00592646
0.00679329
-0.00759349
-0.0303704
-0.0255633
0.000598053
0.007428
0.00249856
-0.015621
-0.0374831
-0.0146543
0.00975645
0.00355107
-0.0184905
-0.0268845
0.00624045
0.0107368
-0.00439646
-0.0262405
-0.0237129
-0.00156504
-0.012238
-0.0136763
-0.00704489
-0.0149753
-0.00594648
0.00226979
-0.00300063
-0.0117546
-0.0246437
0.0023019
0.0174031
-0.00476258
-0.0408324
-0.0216512
0.00416243
-0.00568847
-0.00534084
-0.0157218
-0.023684
0.0148814
0.00393668
-0.0139568
-0.0090075
-0.0137029
0.00720458
0.00706553
-0.0100779
-0.00338037
-0.0154094
-0.00387419
0.0100232
0.00742371
-0.00125187
-0.0239371
0.0062516
0.0154303
-0.0077679
-0.00832651
-0.0010118
0.0114705
-0.00284189
-0.00666816
-0.0075639
-0.0140141
0.0177939
0.0218115
-0.00666621
-0.00929052
-0.012024
0.0158173
0.0127358
-0.0169918
-0.00963741
-0.00192951
0.00798733
0.00835649
-0.0012754
-0.0160936
-0.0163976
0.00879989
0.00539313
-0.0038684
-0.00614036
-0.012882
0.000633144
-0.00296857
-0.00279912
0.00164777
-0.0135442
-0.00623209
0.00967449
0.0149491
-0.00482228
-0.0194387
0.00543656
0.0127811
0.00041047
0.00187902
-0.0137527
-0.0150775
-0.0112093
-0.0120206
-0.00891354
-0.0113585
0.00960956
0.0140019
-5.66181e-05
-0.00675764
-0.00400752
0.0124392
-0.00593131
-0.0103896
0.00366851
-0.0222124
-0.0125864
0.0103905
0.0040906
-0.0132738
-0.0104523
0.0137318
-0.0113208
-0.0237003
-0.0182254
-0.0130824
-0.0144753
-0.0158478
-0.00240787
0.0101901
-0.00331705
-0.0157512
-0.00928802
0.0235941
0.0159893
-0.00506503
-0.0023952
-0.00134446
0.0113911
0.00627937
-0.0224937
-0.0179543
-0.0284291
-0.0192687
0.0171919
-0.00284872
-0.00348186
-0.00494556
-0.00512556
0.00350689
-0.00251377
-0.00684012
-0.0202678
-0.0149833
-0.0100801
-0.000109878
-0.0055633
-0.0192412
-0.00720125
-0.0119727
0.00622269
0.000679598
-0.00978844
-0.0150639
-0.020041
-0.0186817
-0.0126866
-0.00115732
0.0118761
0.00855731
-0.00924541
-0.0110778
0.0247869
0.00867961
-0.00702261
0.00407661
-0.000117448
-0.00441879
0.00747811
0.00329559
-0.014598
-0.0157131
-0.00932119
0.0109164
0.0172618
-0.0176518
-0.016765
0.00318477
0.0126533
0.00192335
-0.00872868
-0.0037764
-0.0123317
-0.0130117
0.00173984
0.000408909
-0.0143076
0.00550525
0.00864541
-0.0153866
0.00174625
0.013531
-0.0132479
-0.0340678
-0.00854135
0.00572166
-0.00655375
-0.00314403
0.015304
0.00593406
-0.00311968
-0.0123333
0.00141086
-0.0166783
-0.0182466
-0.00455077
-0.00832212
0.00184449
0.00457561
0.00227825
-0.00251903
-0.00765076
-0.0098557
-0.0145784
-0.00874585
-0.0287421
-0.0106498
0.00966379
-0.0136349
-0.00870748
-0.00420941
-0.020507
-0.0174897
-0.0187933
0.0045104
0.00953419
-0.00211567
-0.0036064
-0.0163282
-0.0232507
0.0204445
0.00450767
0.00188764
-0.0240612
-0.00813608
0.00212756
0.013112
0.009365
-0.00232516
-0.0025183
5.30073e-05
0.014744
0.0336789
-0.0292158
-0.0150408
0.0316978
0.0107837
0.00139793
0.00969855
0.0180462
0.0144864
0.00450449
0.00541404
0.00116588
-0.0121286
-0.0289172
0.00140526
0.0116969
-0.000800855
-0.00752421
-0.0099362
0.000102262
-0.00363171
-0.02861
-0.0052138
0.00869304
-0.00636271
0.0032826
-0.0109412
-0.00607748
0.0189702
0.00455266
0.00685528
-0.0103176
-0.0186951
0.019298
0.0236552
0.00259167
0.00277344
-0.00385032
-0.00134731
0.0302606
0.0122545
-0.0336417
0.0256211
0.059052
0.0152354
-0.00432373
0.00396982
0.0172466
0.0157835
0.0194498
0.0190467
-0.000918413
-0.0245476
-0.010225
0.0245634
0.0235541
0.008068
-0.0139442
0.00137573
0.017012
-0.00548592
-0.0211307
-5.71109e-05
0.0086412
-0.00498549
-0.0141238
-0.013924
0.00638821
0.0193577
0.00720942
-0.00650806
-0.0111117
-0.0193962
0.00162169
-0.000797875
-0.00838825
-0.00889706
0.00214231
-0.000359413
-0.00396773
-0.0047175
-0.0288225
0.00835109
0.0353519
0.0025931
-0.00843589
-0.0117952
-0.0183465
0.0011297
0.031704
0.0192276
-0.0231096
-0.0345546
-0.00678843
0.0282689
0.00749737
0.00376042
-0.00613576
-0.0189602
-0.00656473
-0.00926061
-0.00848116
0.00693533
-0.00858837
-0.0235945
-0.0238196
-0.0112609
0.00844327
0.023862
0.00285479
-0.0103416
-0.0132165
-0.0181893
0.0078844
0.00611175
-0.0285085
-0.0222152
-0.00327901
0.00634081
0.018524
-0.00786801
-0.0355311
-0.0111709
0.0246942
0.00431222
-0.0159859
-0.0198036
-0.010906
0.028994
0.0418415
-0.000631125
-0.0297126
-0.0257367
-0.0150127
0.00182708
-0.0044679
0.00115393
-0.00455379
-0.00326635
0.00800623
0.00126203
0.00292782
0.015917
0.0043028
-0.0248389
-0.0288009
-0.000138035
0.0189846
0.00735602
0.015064
-0.0129532
-0.0167376
-0.00820708
0.0107445
-0.0041031
-0.0064428
-0.0178593
-0.00552091
0.0111891
0.00630657
-0.0242496
-0.0320004
-0.012304
0.0202637
0.0195116
-0.0183695
-0.0308606
0.00398293
0.0295977
0.0254998
-0.0117388
-0.0240409
-0.0260276
-0.0237328
-0.000915204
-0.00429915
0.00981538
-0.00124701
0.001359
0.00675201
0.0039204
0.00984306
0.034465
-0.00384913
-0.0379127
-0.0103878
0.00386851
0.0107981
0.0015277
0.0158779
-0.00411872
-0.0325849
-0.0141732
0.00356774
-0.018936
-0.0362523
-0.0152957
0.0012516
0.0117257
-0.00935038
-0.0226621
-0.0285394
-0.0126587
0.0259398
0.0409697
-0.0231973
-0.0369753
0.0113685
0.0281955
0.0187822
-0.0187793
-0.0236863
-0.016921
-0.0181712
-0.00787993
-0.00147965
0.00332308
0.00274574
0.00210973
-0.00655957
0.0037631
0.0215976
0.0212948
-0.0257855
-0.0515395
-0.00797376
0.00124098
-0.00489821
-0.00597332
0.0136705
0.00486427
-0.0340279
-0.027019
-0.0203837
-0.0167023
0.000875175
-0.0101009
0.00722018
0.00912039
-0.00582865
-0.0106962
-0.034967
-0.016794
0.040898
0.0610404
-0.0306764
-0.041004
0.0183351
0.0304264
0.0016373
-0.0211104
-0.0144573
-0.00355435
-0.0164437
-0.0155453
-0.00392787
-0.00123998
0.00303915
-0.0113171
-0.0265615
0.0079728
0.0292903
0.0144661
-0.0360599
-0.0578734
-0.00777723
0.00437497
-0.0176774
-0.01842
0.00469977
-0.0215988
-0.0393139
-0.0268387
-0.0332449
-0.0106063
0.0132257
-0.00638102
0.00681149
0.0124002
0.005303
-0.00626773
-0.0375868
-0.00846451
0.0547986
0.0512889
-0.0589485
-0.0489857
0.0166861
0.00943986
-0.0013562
-0.00059941
-0.00910555
-0.00316296
-0.0218227
-0.0147919
-0.000898263
0.0153113
0.00573179
-0.0283642
-0.0377437
0.0100888
0.0228068
0.0111406
-0.052637
-0.0536511
0.00265871
0.00734777
-0.0212754
-0.0185933
0.00560589
-0.0271365
-0.0407478
-0.0143273
-0.0287295
9.75505e-05
0.0216863
-0.00492878
0.00868871
0.0193129
0.0118286
-0.00308489
-0.0304775
0.0014071
0.0564134
0.0269201
-0.0584368
-0.044306
0.00215995
-0.0166979
0.00376869
0.000961367
-0.00735568
-0.00562401
-0.0311306
-0.00123498
0.0166531
0.0246526
0.0191385
-0.0356691
-0.0357914
0.0139816
0.0307608
0.0108272
-0.0578818
-0.0422848
0.0151668
0.0085977
-0.0302038
-0.0217851
0.00323937
-0.0207619
-0.0362622
-0.0204035
-0.0225195
0.0176508
0.0374573
-0.000480198
0.011854
0.0204377
0.0121511
-0.0015429
-0.0202329
-0.00212771
0.0401479
0.0277167
-0.0399448
-0.0435259
-0.0092234
-0.0363111
0.000783084
0.00938632
0.00263029
-0.00239354
-0.0303688
0.0136764
0.0375373
0.0334805
0.0215
-0.0479616
-0.0316921
0.0188837
0.0352033
0.0126423
-0.0528749
-0.023493
0.0311064
0.0117481
-0.028746
-0.0156251
0.0186117
-0.0161318
-0.0334712
-0.0317123
-0.0204834
0.039245
0.0456424
0.00139375
0.0128487
0.0199386
0.00764491
0.00491957
-0.00793238
-0.0168601
0.0265737
0.044013
-0.0356586
-0.040528
-0.0103855
-0.0426293
0.00390191
0.0232046
0.0150887
0.00513271
-0.0251503
0.0166491
0.0470591
0.0341996
0.0138942
-0.0578303
-0.029191
0.0168039
0.0280465
0.00641587
-0.043487
-0.00935459
0.0377741
0.0153482
-0.0227645
-0.00101507
0.0445826
-0.000191712
-0.0276289
-0.033875
-0.00966673
0.0627069
0.0500528
0.00108621
0.0150669
0.0172223
0.00561405
0.0194197
0.00794922
-0.0274602
0.0180238
0.0382314
-0.0208117
-0.0220426
-0.0111766
-0.0403454
0.0138256
0.0382818
0.0301288
0.0128722
-0.0314042
0.00107293
0.0519238
0.0339685
0.00278417
-0.0622942
-0.0114878
0.029304
0.0253584
0.0057826
-0.031707
-0.00575405
0.0390287
0.0236957
-0.0159934
0.0119777
0.0611168
0.0222482
-0.0178929
-0.0368557
0.0154206
0.0822889
0.0505455
-0.00250815
0.0183126
0.0189133
0.0114828
0.0308211
0.00914199
-0.0332162
0.0170023
0.0366306
-0.000854011
-0.0121753
-0.00895685
-0.0243385
0.0283363
0.0524424
0.0390352
0.0190365
-0.049263
-0.0259548
0.0630799
0.0394316
-0.00328788
-0.0492186
0.0126639
0.0424642
0.0238301
0.0106105
-0.0133675
0.00547786
0.0428429
0.0312124
-0.00974297
0.0201741
0.066307
0.037255
-0.00980472
-0.0348615
0.0363279
0.0916292
0.0401
-0.0080025
0.0229523
0.0262273
0.0212876
0.0371118
-0.00773285
-0.0369754
0.0259225
0.0519363
0.0189982
0.00169824
-0.0071798
-0.0106361
0.0377263
0.0647573
0.051359
0.0221318
-0.0593497
-0.0223412
0.0765285
0.0514501
0.000207623
-0.0259791
0.0253266
0.0506608
0.0286635
0.0326346
0.00663763
0.0101086
0.0479697
0.0367971
-0.00670292
0.0222841
0.0640854
0.0445403
-0.0022634
-0.0210115
0.0445809
0.0903558
0.0366801
-0.00825945
0.0285906
0.0302204
0.0273677
0.0440345
-0.000926646
-0.0360594
0.0292285
0.0662652
0.0413023
0.0249138
-0.00498595
-0.00424253
0.0468833
0.0809123
0.0608341
0.0182157
-0.0460043
-0.000429399
0.0868165
0.0552932
0.00208493
-0.0110774
0.0357759
0.0578684
0.0348713
0.0480094
0.0119949
-0.00230674
0.0521463
0.0421535
-0.00399789
0.023809
0.0617094
0.0480417
0.00497476
-0.0153051
0.042591
0.0860293
0.0364857
-0.00559678
0.035655
0.0343893
0.0317811
0.054325
0.0108169
-0.0322019
0.0251909
0.075929
0.0611784
0.0389037
-0.00195906
0.00119791
0.0550596
0.0936816
0.0647689
0.0159692
-0.0329276
0.00871777
0.0898103
0.0554416
-0.0001535
-0.00112097
0.0470582
0.0648051
0.0384644
0.0500128
0.0193414
0.00889791
0.0541142
0.0463886
-0.00200737
0.025095
0.0583676
0.0468472
0.00859884
-0.0121706
0.0405944
0.0838044
0.0393661
0.000720685
0.0436833
0.0379112
0.0342477
0.062893
0.0143615
-0.0293396
0.0214144
0.0858853
0.074865
0.0465394
0.00036754
0.000464174
0.0576713
0.105375
0.0673159
0.0158871
-0.0265575
0.0112109
0.0921813
0.0540598
-0.00409244
0.00546615
0.0554291
0.0690764
0.0435644
0.0561226
0.0312381
0.0194994
0.0555863
0.0418994
-0.00195274
0.0272771
0.0553392
0.0457636
0.0128546
-0.00738013
0.0392094
0.0806205
0.0433634
0.00712756
0.049548
0.0399674
0.0347469
0.0678375
0.0171673
-0.0258327
0.0197025
0.0932453
0.0850581
0.052593
0.00230897
-0.0076493
0.0563552
0.121124
0.0695732
0.0147815
-0.0200713
0.0157039
0.0943788
0.0536865
-0.00605037
0.00930376
0.0579435
0.0695567
0.0463552
0.0656771
0.037316
0.0209017
0.0580134
0.0425153
-0.00172334
0.0290583
0.0566919
0.048228
0.0165696
-0.0040731
0.039281
0.0813427
0.0433118
0.0100046
0.0534468
0.0423167
0.0352508
0.0723958
0.021901
-0.0251483
0.0176494
0.0994649
0.0938345
0.0567573
0.00167716
-0.0136836
0.0573317
0.132844
0.0690207
0.0136216
-0.0126531
0.0232778
0.0958356
0.0533633
-0.00730836
0.0138661
0.0598203
0.0708562
0.0472831
0.0725976
0.0406394
0.0210365
0.0627657
0.0473364
-0.00155721
0.030134
0.0596013
0.051262
0.0169312
-0.00306905
0.0413184
0.084604
0.0446412
0.0113549
0.0564485
0.0438617
0.0360257
0.0773735
0.0257028
-0.0257273
0.0156857
0.106371
0.100404
0.058014
0.00139846
-0.0155077
0.0604212
0.138706
0.0700098
0.0146388
-0.00845299
0.0247198
0.0967887
0.0544206
-0.00811179
0.0197305
0.0649572
0.0714854
0.0492552
0.0783142
0.044281
0.0214979
0.0668342
0.0519036
-0.00298783
0.0297199
0.0598601
0.0512729
0.0160826
-0.00195048
0.0427006
0.0853337
0.0452395
0.0125054
0.057968
0.0430344
0.0366202
0.0786523
0.0269978
-0.0255343
0.0169836
0.111686
0.104917
0.0592846
0.00095571
-0.0158074
0.0638032
0.142013
0.0702718
0.014935
-0.00792164
0.02564
0.0978452
0.0547742
-0.00787125
0.0228496
0.0659632
0.0709702
0.0511232
0.0815463
0.0453623
0.0221136
0.0675071
0.0521476
-0.00281629
0.030279
0.0604995
0.0516646
0.0168425
-0.000388099
0.0438767
0.0860177
0.046175
0.0129697
0.0580848
0.0441385
0.0377552
0.0788149
0.0274115
-0.024282
0.0200813
0.114375
0.105332
0.0594589
0.00179525
-0.0141494
0.065291
0.141839
0.0701535
0.0155879
-0.00659748
0.0265319
0.0979417
0.0550515
-0.00626656
0.0235959
0.066336
0.0714369
0.0520805
0.0820348
0.045854
0.0226016
0.0680642
0.0528799
-0.00161469
0.0313422
-0.00185244
0.052101
0.00244631
-0.0504036
-0.0445595
0.000219702
0.0472844
0.00392927
-0.0404592
-0.0295891
0.00609717
0.052835
-0.00727428
-0.048767
-0.0357369
-0.00524353
0.0418207
-0.00227781
-0.047998
-0.0362011
0.00174809
0.0462548
0.00375428
-0.0532332
-0.0358625
0.00513961
0.0597809
0.0199184
-0.046394
-0.0351452
-0.00369845
0.0383047
-0.0017178
-0.0433165
-0.0327109
0.00266304
0.041008
-0.000389703
-0.0451201
-0.0382666
0.0262897
0.0308485
-0.0114022
-0.0344177
-0.020311
0.0234337
0.0217183
-0.0183874
-0.0360911
-0.0136803
0.024013
0.0335329
-0.0038696
-0.0245632
-0.00646939
0.0198412
0.0269643
-0.0112614
-0.0361484
-0.0079251
0.0271698
0.0190892
-0.00903523
-0.0224613
-0.0138498
0.0217338
0.0409465
-0.0059503
-0.0279534
-0.0079967
0.0209859
0.032794
-0.0148599
-0.0414968
-0.0147834
0.020469
0.0425696
-0.00232296
-0.0336302
-0.00988159
0.022874
0.0156807
-0.00799631
-0.0159273
-0.0157048
0.0067251
0.00580515
-0.0103545
-0.023057
-0.00214538
0.0323536
0.00902824
-0.00386244
-0.0108164
-0.0108959
0.0138586
0.00954294
-0.0079448
-0.0175341
-0.00208358
0.0257791
-0.00597074
-0.0186105
-0.0229274
-0.0032011
0.0277626
0.0111171
-0.00445843
-0.0115245
-0.005759
0.0159648
0.0112099
-0.0177443
-0.025917
-0.00690494
0.0270356
0.0111255
-0.0163792
-0.02761
-0.00640642
0.00210398
-0.0123057
-0.0204365
-0.0175885
-0.000618493
0.00230133
-0.00987962
-0.0127488
-0.0257836
-0.00132665
0.00896095
-0.00915335
-0.0127574
-0.0131084
-0.011089
-0.01003
-0.0101031
-0.0159424
-0.0124166
0.00734584
-0.00314643
-0.0220984
-0.0155156
-0.019965
-0.0052226
-0.00124246
-0.00707134
-0.0157378
-0.00933973
0.00738442
0.00481653
-0.00903763
-0.0194301
-0.0312905
-0.000476711
0.0015813
-0.0196065
-0.0158289
-0.00992455
0.00284613
-0.0061933
-0.0181894
-0.00628208
0.00445424
-0.017252
-0.0136219
0.00335415
-0.00128684
-0.00969532
-0.0048219
-0.00482043
-0.00672717
-0.00347264
0.0137676
-0.0020404
-0.00862713
-0.015592
-0.00484445
0.0170961
-0.00957899
-0.0129795
-0.0201749
-0.0140753
0.011394
0.00861105
0.00198625
-0.00483716
0.00108537
0.023097
-0.00828728
-0.0235159
-0.0109726
-0.00859512
0.00799283
-0.00259373
-0.00137934
-0.0128963
-0.00485359
0.0121162
0.00412206
0.00915386
0.00739108
0.0044855
-0.0106021
-0.0139199
0.00549894
0.0272327
-0.00128157
-0.0171061
-0.0178885
-0.00226234
0.0186661
0.00233688
-0.00551091
-0.024743
0.00648548
0.0283958
-0.0157273
-0.0379924
-0.0106191
0.0283401
0.0249712
-0.0126129
-0.0285191
-0.031571
0.01948
0.0420503
-0.0195385
-0.0222213
-0.00718479
-0.00561735
0.0130567
0.00600284
-0.0325242
-0.0185091
0.0115525
0.0323618
0.00554267
-0.0255734
-0.00922506
0.0296308
0.0116987
-0.0153264
-0.0207324
0.01202
0.0055222
-0.0228006
-0.0273045
-0.0105832
0.000299006
0.0145408
0.0228713
0.00779999
-0.0195619
-0.0215406
0.0250612
0.0192203
-0.0393291
-0.0206542
0.0275528
0.0394639
-0.00328071
-0.0225038
-0.0407253
-0.0294229
0.0257593
0.0299787
-0.0346435
-0.0117837
0.0344155
0.0297365
-0.00411352
-0.0344621
0.0024749
-0.00776608
0.000261186
0.0206077
-0.0284487
-0.0279851
0.010462
0.0285514
-0.0205991
-0.0263529
-0.0130773
-0.0208436
-0.0133445
0.0036769
-0.00435378
-0.0194426
-0.006298
0.00407435
-0.00697391
0.00811502
0.024188
0.0227928
0.0100211
-0.0261622
0.00133772
0.0104137
0.00460692
0.00180716
-0.0231252
-0.0297459
-0.0397549
-0.00967901
0.0183625
0.0222464
0.0182046
0.00817121
-0.00719382
-0.00100698
-0.00955984
-0.014127
0.00829299
0.0242524
0.0198768
0.00356362
-0.0161101
-0.00927483
0.0295368
-0.00253785
-0.0437432
-0.039903
-0.0231372
-0.0206905
-0.0361522
-0.0385319
-0.0147023
-0.0216835
-0.0453658
-0.0273525
-0.00415019
-1.3955e-05
-0.0363903
-0.0275203
-0.0026438
0.0276112
0.00360646
-0.00848761
-0.0299509
-0.0200508
-0.0313703
-0.0182111
-0.046297
-0.0558815
-0.00723497
0.00507733
-0.0176941
-0.00549907
-0.0078188
0.013387
-0.0217671
-0.0566991
-0.0240619
-0.00963026
-0.015083
-0.0204852
-0.0134008
-0.0122511
0.0019177
-0.000279209
-0.0248642
-0.0433174
-0.0288991
-0.0178188
-0.013828
-0.0159737
-0.000355431
-0.00182799
0.0270523
-0.0011748
-0.0279553
-0.0208296
-0.00762874
0.000311521
-0.0154222
-0.014425
0.0141745
0.0100453
-0.0223016
0.0105139
-0.0105759
-0.0172336
-0.0471169
-0.0462399
0.0112137
-0.00931008
-0.00893842
-0.00192499
-0.0337098
0.0154412
0.00415861
-0.0455827
-0.00565781
0.00379507
-0.00935634
-0.0214239
-0.0172881
-0.024154
-0.00223959
-0.00912776
-0.0312826
-0.0442464
-0.0191854
0.0186973
0.0403309
-0.0252647
-0.0131872
0.00669401
-0.0192338
0.0190389
0.0560151
0.0145359
-0.00175591
-0.0289143
-0.0129166
0.0386481
0.00351555
-0.00768782
0.0228876
0.0372563
0.0279703
-0.00375353
-0.031552
-0.0262529
0.0176745
0.00527973
0.00116463
0.00684644
0.00771623
0.0148124
-0.0169627
-0.0307854
0.0264148
0.0341982
-0.00726987
-0.0181836
-0.0129561
0.0105757
0.0159634
-0.028214
-0.00973461
-0.0136965
-0.0193528
0.0104809
0.0265919
-0.00978068
0.0120503
0.0292315
-0.0113904
-0.0120243
0.0208004
0.00772772
-0.0169615
-0.00691298
0.00858395
0.0118618
-0.0090635
0.00120885
0.0332338
0.0148917
-0.0213713
-0.0164498
-0.0276886
-0.00368594
0.00884925
0.00526572
0.0116272
0.0138388
0.0021056
-0.00894692
-0.0187128
-0.0181226
0.0159882
0.016851
-0.0175621
-0.0196397
-0.00423436
0.013399
-0.0221758
-0.0203803
-0.0267948
-0.0253755
0.0181217
0.0570146
0.0440169
-0.00477783
0.00279406
0.000823839
-0.0101888
0.0235903
0.0759795
-0.0318228
-0.020096
0.0178598
0.0110023
0.00108859
0.0162608
0.0078966
4.50443e-06
0.0475276
0.0167659
-0.0110466
-0.024737
-0.0145735
0.0344259
0.0267815
0.0354268
0.0242124
0.00515292
-0.00420761
-0.0104325
-0.0107785
0.0398165
0.0402561
-0.0131626
-0.0151163
-0.00940951
0.0109023
0.0099089
-0.0434354
-0.0206505
-0.00792148
0.0575446
0.0692527
0.0099798
0.0150466
-0.0042141
-0.011416
0.0214524
0.0249329
0.00849265
-0.0381589
0.00853171
-0.00407012
-0.00440507
0.00397389
0.00259488
-0.00124553
0.0660765
0.0334946
-0.0222082
-0.0216243
-0.00991855
-0.0145827
0.00914748
0.0142013
0.0595132
0.0107948
0.0115369
-0.00303444
-0.0287211
-0.00676455
0.0764845
0.0460345
-0.0373116
-0.0341093
0.00672378
0.0322329
-0.0050041
-0.023203
-0.0284277
-0.0170375
0.0338932
0.0515341
0.00906876
0.00621577
-0.0384152
-0.0114928
0.021117
0.0242619
-0.0104014
-0.0471996
-0.0114804
-0.0130559
0.0129351
0.000919032
0.012304
0.0138427
-0.00680755
-0.0377067
-0.025496
-0.016882
-0.0352826
-0.0111504
0.0188242
-0.0256195
-0.0305605
-0.00633719
0.0105207
-0.0125677
-0.0358892
0.00122415
0.078294
0.0249072
-0.0429856
-0.0275593
0.0153842
0.0212142
-0.00361043
-0.0217081
-0.0686447
-0.0546864
0.0365892
0.0280019
0.0122757
-0.0334922
-0.0457052
-0.00460589
0.0188135
0.0205358
-0.0164759
-0.0582965
-0.0260787
0.0195529
0.0309262
-0.00244187
-0.00147953
0.000789123
-0.0270172
-0.0197521
-0.0277729
-0.00719701
-0.00869154
-0.0105766
0.0139957
-0.00681998
-0.0595427
-0.0139934
0.00575291
-0.0141308
-0.0392485
0.044351
0.0574474
-0.0138763
-0.0453815
-0.0113379
0.026708
0.0366277
0.0072661
-0.0191412
-0.0414699
-0.0653286
0.0278064
0.0563584
0.0297539
-0.0355563
-0.0469785
-0.00228526
0.0205219
0.0133352
-0.0188925
-0.0518388
-0.0204805
0.0171335
0.0327965
0.0108986
0.00644732
0.00730036
-0.0299393
-0.0118489
-0.0246207
-0.0172388
-0.00649277
-0.00493364
-0.00110398
-0.00195118
-0.0118153
0.00546471
-0.00714447
-0.0252679
-0.0266169
0.0304593
0.0182154
-0.0219336
-0.0466744
-0.0244285
0.0210992
0.0205931
-0.00418197
-0.0145647
-0.00928294
-0.0145508
0.0197612
0.00963131
0.00634364
-0.0302548
-0.0283024
0.0104041
0.016092
-0.00193187
-0.028516
-0.0405442
-0.00399092
0.0184465
0.0490467
0.0174737
0.0194628
-0.000843461
-0.0290385
0.00126939
-0.00406634
-0.00894736
-6.20761e-05
0.00349247
0.0164315
-0.00340908
0.00040506
-0.0253216
-0.0157717
-0.0243661
-0.0108761
0.025585
0.0310356
-0.0199644
-0.0468996
-0.0144443
0.0097657
0.0166106
-0.00365298
-0.00744563
-0.00643042
-0.00984374
-0.00988593
-0.00108729
0.00974
-0.0261079
0.0038656
0.0288855
0.0121268
-0.00286593
-0.0158375
-0.0243304
-0.0140714
0.0270676
0.057529
-0.00609868
0.00334772
0.00289815
-0.0189218
0.00838483
0.0198489
0.00604613
0.00637861
0.00316363
-0.0136654
-0.00534495
0.0133175
0.00426906
-0.00679107
-0.0175421
-0.00753656
0.0259988
0.0317727
-0.0342087
-0.0481375
-0.00445019
0.0234347
0.00995171
-0.00889276
-0.00860499
-0.00284489
-0.0115432
-0.0107329
-0.00067219
0.0110435
-0.00603496
-0.000511569
0.0382856
0.0200603
0.0119823
-0.0134509
-0.0194815
-0.0078587
0.0249929
0.0460147
-0.0125756
0.00398068
-0.00215881
-0.0260652
0.00590693
0.0139623
0.00708535
0.00156668
-0.0267742
-0.0145345
0.0172616
0.0105214
0.0109662
-7.57242e-05
-0.0131196
-0.00344236
0.0279739
0.0204633
-0.0338973
-0.0382643
-3.01215e-05
0.0123195
0.000429838
-0.0098558
-0.00145543
-0.00260626
-0.0169871
-0.0190946
-0.00713
0.0136597
0.0173909
0.0270794
0.038215
0.00718819
0.000736349
-0.00783041
-0.0100685
-0.00285644
0.023155
0.0396273
-0.0109433
0.00206755
-0.00166582
-0.0208374
0.00711931
0.0134634
0.00580373
0.00161492
-0.0300164
-0.0027107
0.0473786
0.00995601
0.000589518
-0.00310778
-0.0154898
0.00374952
0.0268908
0.0138503
-0.0305726
-0.0350233
0.00330642
0.0175498
0.000259239
-0.010381
0.00687683
-0.0017756
-0.02141
-0.0235108
0.00243258
0.0205734
0.0227536
0.023732
0.0246416
-0.00152118
-0.00568034
-0.000378513
0.00627611
0.0019035
0.0229645
0.0382332
-0.00421532
0.00371535
0.000787056
-0.0249009
0.00791834
0.0167259
0.00360134
0.000270302
-0.0280969
0.0101565
0.0371998
0.0100919
-0.00221445
-0.00329605
-0.0102223
0.00639833
0.0243228
0.00592572
-0.0304124
-0.034098
0.00231433
0.012645
-0.00509939
-0.0119972
0.0122524
0.00162386
-0.0222937
-0.0241009
0.00361654
0.0223303
0.0290892
0.0136764
0.0249416
-0.00368564
-0.0168297
0.00172129
0.00897246
0.00668428
0.0251235
0.0335095
-0.00219291
0.00621661
0.00375318
-0.0153826
0.00976295
0.0186985
0.00120921
-0.0027644
-0.0289496
0.0166099
0.041645
0.00583005
-0.00893875
-0.00904851
-0.00299858
0.0117552
0.0183706
-0.00160589
-0.0274577
-0.0299824
0.00362375
0.0127029
-0.00596198
-0.0105058
0.0151759
0.000301198
-0.0227324
-0.0169793
0.00847937
0.0226113
0.0324437
0.0133159
0.0257966
-0.000297378
-0.0147218
-0.00202882
0.00868303
0.00935501
0.021073
0.0279982
0.00161426
0.0115922
0.0057557
-0.0138186
0.0103054
0.019487
0.00171917
0.000573004
-0.0234412
0.0206214
0.0385102
-0.0018039
-0.0174946
-0.00840102
0.00335927
0.0144581
0.0145123
-0.00541988
-0.0257781
-0.0255807
0.00671356
0.0131968
-0.00510206
-0.00653003
0.0174753
-0.000239745
-0.0181494
-0.0112429
0.0087674
0.0248438
0.0335538
0.00938527
0.0251291
0.00240759
-0.0124444
-0.00525863
0.00964317
0.011598
0.0198136
0.023089
0.00562501
0.0156393
0.00713328
-0.00994247
0.0125273
0.0209759
0.00368152
5.50706e-05
-0.0180796
0.0225265
0.0322757
-0.00586573
-0.0188275
-0.00355404
0.00896483
0.0160982
0.0123871
-0.00614639
-0.0250583
-0.0165046
0.0112189
0.0128615
-0.00441156
-0.00105609
0.018902
-0.000333588
-0.0117362
-0.00633884
0.00506828
0.0270783
0.033854
0.0095125
0.0255563
0.00604648
-0.0101093
-0.0106355
0.00944699
0.0151709
0.0185178
0.0196664
0.011934
0.0191979
0.00764394
-0.00945623
0.0119356
0.0206272
0.00675818
0.00179356
-0.0135537
0.0223441
0.0294355
-0.00468068
-0.0159669
0.00253511
0.0139573
0.016877
0.0126857
-0.00556986
-0.0220694
-0.00613061
0.0138528
0.0152591
-0.00244462
0.0041233
0.0195017
2.67931e-06
-0.00613404
-0.00449987
0.000801527
0.0299014
0.0334772
0.0109755
0.0265483
0.00794467
-0.00862163
-0.0164371
0.00953546
0.018588
0.017732
0.0178266
0.019389
0.0231178
0.00682388
-0.00966831
0.0103946
0.0207923
0.00960628
0.00346808
-0.0111213
0.0222431
0.0295827
-0.00148821
-0.0131678
0.00652841
0.0179815
0.0189161
0.0145845
-0.00513142
-0.0149062
0.00148548
0.01445
0.0163738
-0.000777836
0.00904429
0.0194605
-0.000615567
-0.00094816
-0.00245066
-0.00386932
0.0324724
0.0338541
0.0137675
0.027517
0.0104102
-0.00811899
-0.022887
0.010417
0.0193817
0.0170605
0.0188963
0.0262023
0.025081
0.00526857
-0.0107124
0.0102163
0.0212642
0.0129013
0.0049402
-0.00966967
0.0225446
0.0315117
0.00282512
-0.0110626
0.00789661
0.0217491
0.0213993
0.0162465
-0.00343914
-0.00707388
0.00596936
0.0161049
0.0177946
0.00207199
0.0132572
0.0171826
-0.000790005
0.00328984
-0.00342722
-0.00725779
0.0358964
0.0358035
0.0136184
0.027574
0.0133681
-0.0127358
-0.024639
0.0121153
0.0198084
0.0164503
0.0199118
0.0323475
0.0277687
0.00611669
-0.0117757
0.0102302
0.0232927
0.0160978
0.0063121
-0.0072108
0.0229559
0.0332738
0.00664892
-0.0102281
0.00902241
0.0254067
0.0242921
0.0173015
-0.00174779
-0.00104864
0.00835042
0.0182436
0.0192715
0.00523986
0.0156345
0.0165665
0.0014071
0.00581451
-0.00865917
-0.00656845
0.0394923
0.0358909
0.0118992
0.0298687
0.0160724
-0.0165139
-0.0211991
0.0159365
0.0178071
0.0128835
0.022017
0.0370375
0.0292404
0.00441493
-0.0137737
0.0112421
0.0269514
0.0190254
0.00694304
-0.00631331
0.0226307
0.0348736
0.00816409
-0.009655
0.0110593
0.0272744
0.0259684
0.0174355
0.00102033
0.00299546
0.00990387
0.0205631
0.0207898
0.00699036
0.0163836
0.0162734
0.00278462
0.00495045
-0.0103401
-0.00357313
0.0407121
0.035453
0.0130098
0.0317495
0.0144684
-0.0172693
-0.0171502
0.0174095
0.0161854
0.0110785
0.0260406
0.0400408
0.0296563
0.00294142
-0.0140638
0.0148644
0.0291648
0.019261
0.00672159
-0.00604821
0.0223526
0.035032
0.00868555
-0.00842678
0.0117275
0.0269409
0.026836
0.0181861
0.00340826
0.00497715
0.0106876
0.021223
0.0209512
0.0076432
0.0165242
0.0159748
0.0030621
0.00532705
-0.0104668
-0.00260851
0.0407662
0.0352509
0.013231
0.0318105
0.0146996
-0.0169298
-0.0160578
0.0179985
0.0158957
0.0117644
0.0273452
0.0399812
0.0296954
0.00272787
-0.0137375
0.0152058
0.0296021
0.0197691
0.00679545
-0.00597708
0.0218966
0.0349279
0.00908562
-0.00790725
0.0116676
0.0267697
0.0272076
0.0184062
0.00398093
0.00533721
0.010625
0.0208862
0.020887
0.00794969
0.0164554
0.0553689
0.0222216
-0.0664573
-0.0838632
-0.00954487
0.0568517
0.0141614
-0.0826048
-0.0832572
-0.00632475
0.0554208
0.0187682
-0.0733703
-0.0790843
-0.0167251
0.048172
0.0270881
-0.053492
-0.0952123
-0.0186549
0.0504759
0.0207361
-0.0701093
-0.0784128
-0.00535374
0.0535848
0.0161953
-0.0817808
-0.0794108
-0.0163401
0.0515899
0.0282513
-0.0558057
-0.0833011
-0.0144209
0.0488792
0.0152161
-0.0765336
-0.0821109
-0.011677
0.0258998
0.0339537
-0.00169238
-0.0149055
0.0104843
0.0274449
0.0267052
-0.0108833
-0.022385
0.0144093
0.037352
0.0438566
0.0038129
-0.0169995
0.00425626
0.0239938
0.038097
0.000674671
-0.0172144
0.0150898
0.0331634
0.0265558
-0.00304692
-0.0166674
0.00109483
0.030815
0.0473606
-0.00412081
-0.0158357
0.0149452
0.0339478
0.0360206
-0.000325166
-0.0208121
0.000868859
0.0308649
0.0437967
-0.00467114
-0.0197977
0.0115951
0.000623985
-0.0195481
-0.0122817
0.00684497
0.0044557
-0.00716658
-0.0219432
-0.0122914
0.00609418
0.00818419
-0.00223916
-0.0137926
-0.00364321
0.0125886
0.00413057
-0.00576797
-0.0171081
-0.0113683
0.00180467
0.00389079
-0.00564224
-0.0196559
-0.0132073
0.00673917
0.00710985
-0.000287931
-0.0208858
-0.0087748
0.010249
0.00392237
-0.00870369
-0.0210756
-0.0161499
0.00270089
0.00754472
0.00373207
-0.0200667
-0.0138965
0.00807022
0.00823157
-0.0062131
-0.00489565
-0.000144673
0.00323153
-0.0059178
-0.0149422
-0.00378093
0.0049654
0.00208637
-0.0136513
-0.0129327
0.004959
0.00660984
-0.00253516
-0.0153053
-0.0124727
-0.000614592
-0.00189417
-0.00572029
-0.0051642
-0.00576117
-0.00109177
-0.00466208
-0.00375386
-0.00909136
-0.0102656
0.00128719
0.00617197
0.000427042
-0.00664876
-0.00365339
0.00483703
-0.000973051
-0.00518082
-0.00397061
-0.00477906
0.000263661
0.00108959
-0.000973248
-0.00193294
-0.00261055
-0.00150585
-0.0016831
-0.00915481
-0.0147227
0.000391193
0.00763641
-0.00534892
-0.011749
-0.0213171
-0.00501575