/*--------------------------------*- C++ -*----------------------------------*\
  =========                 |
  \\      /  F ield         | OpenFOAM: The Open Source CFD Toolbox
   \\    /   O peration     | Website:  https://openfoam.org
    \\  /    A nd           | Version:  10
     \\/     M anipulation  |
\*---------------------------------------------------------------------------*/
FoamFile
{
    format      ascii;
    class       volVectorField;
    location    "10";
    object      U;
}
// * * * * * * * * * * * * * * * * * * * * * * * * * * * * * * * * * * * * * //

dimensions      [0 1 -1 0 0 0 0];

internalField   nonuniform List<vector> 
25600
(
(1.05071 -0.0353252 0.0112529)
(1.04241 -0.0368254 0.000199358)
(1.04706 -0.0289666 -0.0108973)
(1.05606 -0.017691 -0.017938)
(1.06306 -0.00957654 -0.0195558)
(1.0734 0.00595671 -0.016203)
(1.08517 0.0159695 -0.00662989)
(1.09922 0.0168322 0.00875105)
(1.11107 0.0134586 0.0253946)
(1.10862 0.00160174 0.0339798)
(1.09555 -0.00479603 0.0294184)
(1.08175 -0.00609902 0.015491)
(1.07101 -0.0066651 0.00391702)
(1.06906 -0.00646021 -0.00109723)
(1.07494 -0.00781051 -0.00484496)
(1.08789 0.00342191 -0.00583587)
(1.0976 0.0197834 -0.0104273)
(1.09783 0.02884 -0.0211211)
(1.09876 0.0323921 -0.0242967)
(1.09971 0.0198118 -0.0194391)
(1.0994 0.0017899 -0.0113832)
(1.10952 -0.00582651 -0.00261768)
(1.12699 -0.00651026 0.00107991)
(1.13491 9.4709e-06 -0.00335211)
(1.12908 -0.00127725 -0.0105634)
(1.11166 -0.0164246 -0.0123028)
(1.09064 -0.0308526 -0.00565443)
(1.08296 -0.0295376 0.00305398)
(1.08839 -0.0121333 0.00467245)
(1.10352 0.0179043 -0.00247075)
(1.12521 0.0476099 -0.0115792)
(1.13407 0.0508249 -0.0129142)
(1.13764 0.0335084 -0.00682828)
(1.13067 0.00430994 0.00141655)
(1.10511 -0.0247543 0.00233694)
(1.09343 -0.0365338 -0.00523021)
(1.09374 -0.0369302 -0.00697591)
(1.0921 -0.028331 0.00111291)
(1.08588 -0.0248209 0.0114346)
(1.06866 -0.0315429 0.0163059)
(0.975945 -0.0574769 -0.00830381)
(0.954923 -0.0651758 -0.0194253)
(0.948881 -0.049648 -0.0384447)
(0.953506 -0.0277686 -0.0511781)
(0.974905 -0.00737743 -0.0486738)
(1.01069 0.00758797 -0.0315709)
(1.04852 0.00767402 -0.00318786)
(1.08437 0.0109113 0.0246869)
(1.10635 0.0173834 0.0403843)
(1.11175 0.0182971 0.0415574)
(1.11468 0.0151689 0.0302774)
(1.1159 -0.00261922 0.0145446)
(1.11456 -0.0118992 0.00412266)
(1.10766 -0.00762465 -0.000649176)
(1.09833 -0.00291783 -0.000430753)
(1.09446 0.016046 -0.000952907)
(1.08989 0.0265025 -0.0087361)
(1.09329 0.0247769 -0.0177276)
(1.10616 0.0264992 -0.0225448)
(1.117 0.0220101 -0.0235557)
(1.12291 0.0180329 -0.0202345)
(1.12032 0.0109546 -0.0125885)
(1.12214 0.00671673 -0.00289746)
(1.12977 0.0180642 0.000594526)
(1.14207 0.0289357 0.000155298)
(1.15331 0.0226088 0.00430192)
(1.14097 -0.000520737 0.00910388)
(1.11085 -0.0178225 0.0123231)
(1.08342 -0.0177711 0.00901293)
(1.08425 0.0055559 -0.00266262)
(1.11736 0.0321211 -0.00737431)
(1.16778 0.037709 0.0033757)
(1.21465 0.0379534 0.0237394)
(1.21974 0.0242606 0.0428994)
(1.1834 0.00741239 0.0386521)
(1.14996 -0.00290875 0.0117356)
(1.12529 -0.0110154 -0.0154133)
(1.09345 -0.00779201 -0.0276168)
(1.05532 -0.0160669 -0.02017)
(1.01321 -0.0377773 -0.00857584)
(0.971751 -0.0613304 0.00365246)
(0.978749 -0.0674126 -0.016748)
(0.994702 -0.0500526 -0.0470536)
(1.00415 -0.0326673 -0.0633288)
(1.01001 -0.0222625 -0.0575863)
(1.02017 -0.0191915 -0.0393628)
(1.03978 -0.0253657 -0.0146682)
(1.08421 -0.0168518 0.00468571)
(1.13066 0.000367382 0.0138222)
(1.1493 0.0137437 0.0168801)
(1.14785 0.0245571 0.013519)
(1.13715 0.0196719 0.00667609)
(1.13659 0.0148302 0.000458802)
(1.14733 0.00902162 -0.00121241)
(1.14854 -0.0016113 0.00286852)
(1.13412 0.00426412 0.00598031)
(1.10211 0.0107812 0.00711088)
(1.07046 0.0161076 0.0104774)
(1.05996 0.017538 0.0107044)
(1.08033 0.00596628 0.00248977)
(1.11503 -0.00814901 -0.0128042)
(1.13646 -0.0245917 -0.0164688)
(1.13467 -0.0251444 0.00592173)
(1.11255 -0.0109496 0.0348657)
(1.10515 -0.000897841 0.0503712)
(1.12764 0.00123292 0.0430468)
(1.14717 -0.000741501 0.0135179)
(1.13075 -0.00122127 -0.0121059)
(1.09198 -0.000179645 -0.0193119)
(1.06932 0.00353369 -0.0114379)
(1.07352 -0.00875582 0.0124834)
(1.11612 -0.0193085 0.0419146)
(1.18134 -0.00515829 0.0637176)
(1.20696 0.00754205 0.0685133)
(1.17772 0.0106124 0.0418184)
(1.11931 0.00290646 -0.00656382)
(1.05185 -0.00845998 -0.0460181)
(1.00284 -0.0164776 -0.0545421)
(0.978445 -0.0304989 -0.0288977)
(0.970961 -0.0450268 0.000670004)
(1.06301 -0.0441896 -0.0710825)
(1.05705 -0.0580722 -0.0573804)
(1.05267 -0.0576034 -0.0351298)
(1.04542 -0.049727 -0.0132403)
(1.05357 -0.0287509 -0.00341515)
(1.07215 -0.0193339 -0.00686881)
(1.09271 -0.0239528 -0.00252538)
(1.12513 -0.00873054 0.00753837)
(1.1433 0.0156575 0.0149182)
(1.14222 0.035628 0.0106403)
(1.13384 0.0344319 -0.0101753)
(1.12982 0.0130754 -0.0256784)
(1.13291 0.000889308 -0.0191384)
(1.10949 -0.00750037 1.7855e-05)
(1.07355 -0.0172768 0.0127499)
(1.05065 -0.0183617 0.00897656)
(1.03788 -0.00729785 -0.00107377)
(1.04423 0.00937624 -0.00436263)
(1.05436 0.01119 -0.00833328)
(1.05806 0.00266097 -0.0217245)
(1.05991 -0.0141939 -0.0332999)
(1.05928 -0.0266859 -0.0233697)
(1.05704 -0.0112732 0.00668765)
(1.0613 0.0075059 0.0286873)
(1.07267 0.0244899 0.0294846)
(1.08421 0.0447878 0.0114853)
(1.09562 0.0554428 -0.00802003)
(1.09732 0.0570489 -0.00680854)
(1.09716 0.0487744 0.00870221)
(1.09508 0.0155109 0.0261842)
(1.07671 -0.0401906 0.034446)
(1.07157 -0.0792222 0.0312256)
(1.09746 -0.0756779 0.033436)
(1.13168 -0.0397549 0.0343287)
(1.14817 -0.00129187 0.0167297)
(1.12528 0.0183519 -0.00798614)
(1.073 0.00643426 -0.0223675)
(1.03652 -0.0206169 -0.0287775)
(1.03557 -0.0327961 -0.0368212)
(1.05523 -0.0328841 -0.0576629)
(1.02973 -0.0280543 -0.0483237)
(1.03737 -0.0292091 -0.037442)
(1.03951 -0.0281647 -0.031006)
(1.02997 -0.0262644 -0.0413638)
(1.03549 -0.0181128 -0.0598807)
(1.06118 -0.0204633 -0.0524068)
(1.10462 -0.0239408 -0.0104392)
(1.14739 -0.00919418 0.0195904)
(1.14868 0.0127509 0.0165867)
(1.13229 0.0420491 -0.00247613)
(1.13501 0.0499567 -0.00849179)
(1.1617 0.0341701 0.00105044)
(1.17501 0.0285563 0.00326577)
(1.14313 0.0203628 -0.0152346)
(1.10058 0.00293785 -0.0339481)
(1.0597 -0.0136714 -0.0337202)
(1.03062 -0.022377 -0.0147954)
(1.03484 -0.0212717 0.00884427)
(1.03729 -0.0184296 0.000498051)
(1.02585 -0.0130034 -0.0291324)
(1.01182 -0.00964439 -0.0312423)
(1.00112 -0.00258757 0.00955878)
(0.998656 0.00471734 0.0553671)
(1.00939 0.0106914 0.0658093)
(1.04878 0.0297238 0.031717)
(1.09294 0.0362081 -0.0300829)
(1.11829 0.0176829 -0.0622788)
(1.12253 -0.0009253 -0.0379028)
(1.1166 0.00627402 0.0172418)
(1.10085 0.0167107 0.0623002)
(1.07283 -0.000115713 0.0593534)
(1.05464 -0.0364295 0.0186563)
(1.02913 -0.0533359 -0.026569)
(0.999438 -0.0343994 -0.058181)
(0.984847 -0.00915545 -0.0707542)
(0.983583 0.0131769 -0.0569604)
(0.981634 0.00746082 -0.021732)
(0.98303 -0.0202819 -0.00154468)
(1.0038 -0.0277538 -0.0113539)
(1.02298 -0.0251521 -0.0370963)
(1.07915 -0.0244497 -0.0257889)
(1.06034 -0.0365969 -0.00475813)
(1.0382 -0.0387361 -0.00110049)
(1.02503 -0.0295017 -0.0237114)
(1.02532 -0.011399 -0.0541883)
(1.03404 -0.0205391 -0.0479849)
(1.05753 -0.0247287 -0.00692691)
(1.07466 0.0106738 0.0196147)
(1.06976 0.0549951 0.0171215)
(1.0776 0.0768275 0.019726)
(1.11102 0.0522936 0.0367012)
(1.16422 0.0339297 0.0394734)
(1.19899 0.0407066 0.025307)
(1.18655 0.0239751 0.0139422)
(1.15296 -0.0110104 0.0111136)
(1.09854 -0.033563 0.004107)
(1.05613 -0.0250196 -0.00810269)
(1.0701 0.00191219 -0.0186481)
(1.10449 0.0071105 -0.0306381)
(1.11646 -0.013122 -0.029229)
(1.08499 -0.0332299 -0.00599549)
(1.03057 -0.0250891 0.0212666)
(0.988132 0.00508433 0.0304495)
(0.991626 0.033972 0.0236014)
(1.04806 0.047448 0.00539524)
(1.0978 0.0266693 -0.025213)
(1.1144 -0.00163637 -0.0373792)
(1.10726 -0.0224849 -0.0130522)
(1.09456 -0.0284652 0.0283935)
(1.08315 -0.031449 0.0493749)
(1.07705 -0.0322573 0.0247442)
(1.07832 -0.0273327 -0.0339387)
(1.04646 -0.0201851 -0.0811035)
(1.00468 -0.0226108 -0.0854266)
(0.978149 -0.038995 -0.0511312)
(0.95571 -0.028881 -0.00905152)
(0.940079 -0.0210041 0.0105486)
(0.956104 -0.0207767 -0.00144891)
(1.01845 -0.00976348 -0.0237531)
(1.07223 -0.0093283 -0.0362107)
(1.08956 -0.0269314 -0.0224664)
(1.04367 -0.0080717 -0.019556)
(1.01169 -0.018668 -0.0113891)
(1.02319 -0.0321498 -0.00690847)
(1.04734 -0.0344883 0.00151161)
(1.04644 -0.0284653 0.0164973)
(1.0403 0.00628864 0.0193484)
(1.021 0.0311273 0.00560475)
(1.01273 0.0271831 -0.00204465)
(1.0521 0.0120566 0.00801283)
(1.10322 -0.0144385 0.0222272)
(1.1421 -0.00488033 0.0248303)
(1.15874 0.0225999 0.0222204)
(1.15729 0.0212624 0.0166933)
(1.13022 0.00856078 0.0030873)
(1.07148 -0.0102219 -0.0167119)
(1.04841 -0.0165002 -0.0420711)
(1.08092 0.000767364 -0.0507403)
(1.10987 0.0131473 -0.041966)
(1.0872 0.015378 -0.0485604)
(1.01781 0.0113659 -0.063269)
(0.959543 0.0103821 -0.0449099)
(0.951306 -0.00121454 0.00149659)
(0.994047 -0.0298823 0.0438468)
(1.05596 -0.0415927 0.0536718)
(1.09618 -0.0308219 0.012918)
(1.08222 -0.0145609 -0.044951)
(1.05146 0.00845577 -0.0603214)
(1.05534 0.0393368 -0.0356663)
(1.07592 0.0592822 -0.000280688)
(1.11028 0.0543839 0.0206639)
(1.14013 -0.00391362 0.00692432)
(1.11835 -0.0396729 -0.0312824)
(1.0809 -0.0247457 -0.0699646)
(1.05971 -0.0198976 -0.0866819)
(1.0306 -0.0154894 -0.0678931)
(0.979845 -0.0373347 -0.0313967)
(0.979577 -0.0631462 -0.00560107)
(1.04877 -0.0699968 -0.00272343)
(1.09926 -0.0605623 -0.0141632)
(0.961569 -0.00188393 -0.0678854)
(0.941255 -0.00713086 -0.0746359)
(0.95891 -0.0249993 -0.064907)
(1.00539 -0.0228193 -0.0462169)
(1.03839 -0.0135501 -0.00476616)
(1.03735 -0.0288064 0.0319574)
(1.02655 -0.0197856 0.0327177)
(1.02366 -0.000118187 0.0259048)
(1.04333 0.0190797 0.0220799)
(1.02928 0.0291659 0.0169956)
(0.996278 0.0183052 0.0180133)
(1.01842 0.017835 0.0102723)
(1.08287 0.00926027 0.000618515)
(1.15676 -2.20542e-05 -0.0156884)
(1.15942 0.0118582 -0.0470901)
(1.09641 0.00453565 -0.0513762)
(1.06578 -0.0031425 -0.0307487)
(1.09862 0.00937744 -0.0148789)
(1.14859 0.0104506 -0.0143436)
(1.13306 0.0144885 -0.0466527)
(1.05825 0.028912 -0.0632647)
(1.00783 0.0267167 -0.0304745)
(0.999132 -0.00317297 0.00431683)
(1.0072 -0.0306404 0.00484388)
(1.01467 -0.0313463 -0.0300356)
(1.00726 -0.01569 -0.0517836)
(0.967871 -0.00378277 -0.0410723)
(0.931846 -0.00671802 -0.01053)
(0.95228 -0.0157748 0.0103184)
(1.02424 -0.0364814 0.0157248)
(1.14091 -0.02816 0.0203413)
(1.20101 0.00608182 0.016244)
(1.1992 0.0427718 0.00155696)
(1.21199 0.0350507 -0.0213827)
(1.22502 -0.0150498 -0.0444172)
(1.19996 -0.0316271 -0.04476)
(1.10095 -0.0443207 -0.0225165)
(1.04697 -0.0563113 0.000567737)
(1.04308 -0.044802 -0.00496169)
(1.00496 -0.0210068 -0.0381941)
(0.995016 0.0118539 -0.050902)
(0.998487 -0.0159108 -0.0441427)
(0.99124 -0.0500912 -0.0402196)
(1.0016 -0.0615232 -0.0240521)
(1.02057 -0.0643609 0.010043)
(0.99791 -0.0468668 0.0126091)
(0.983505 -0.0123708 0.008895)
(0.989747 -0.00635395 0.0307155)
(0.980497 0.0301241 0.0344817)
(0.986044 0.0535469 0.0281979)
(1.02351 0.026051 0.0198363)
(1.0367 0.0141047 0.011655)
(1.01228 -0.00994458 0.0285432)
(1.00692 -0.0275148 0.00839946)
(1.0268 -0.0157928 -0.0362728)
(1.07509 -0.0314894 -0.0227633)
(1.12752 -0.0399845 0.0301438)
(1.13635 -0.0267201 0.046624)
(1.10208 -0.00242144 0.00352291)
(1.0486 0.0376474 -0.0492708)
(1.03603 0.0559643 -0.0559784)
(1.07212 0.0334158 -0.0247579)
(1.10594 0.009835 -0.0155354)
(1.07444 0.00141324 -0.0532932)
(1.04034 0.00105258 -0.112071)
(1.03737 0.0181024 -0.136986)
(1.10216 0.0337725 -0.0950384)
(1.18326 0.0259997 -0.0248613)
(1.18801 -6.23845e-05 0.00452441)
(1.13004 -0.0208235 0.0110166)
(1.10465 -0.00121226 0.0320453)
(1.13385 -0.0107915 0.0439822)
(1.23294 -0.0284255 0.0240815)
(1.262 -0.0257289 -0.00627091)
(1.14751 -0.0167695 -0.0103037)
(1.04288 0.000140129 -0.000520919)
(0.984496 -0.0183868 0.000184746)
(0.998155 -0.0295945 -0.0349098)
(1.00104 -0.00442489 -0.0769881)
(0.97881 0.0181005 -0.0722243)
(1.01065 -0.0197337 -0.0505578)
(1.04213 0.0079573 -0.0539104)
(1.05323 0.00445911 -0.030012)
(1.06593 -0.0149782 0.0178757)
(1.06616 -0.0148698 0.0298071)
(1.00175 -0.0332294 -0.0149652)
(0.971544 -0.0454915 -0.032999)
(0.930231 -0.013941 -0.0115554)
(0.9109 0.016644 0.00644461)
(0.976498 -0.0165907 0.017001)
(1.06204 -0.0328969 0.008)
(1.07827 0.00430072 -0.000153762)
(1.01724 0.0287489 0.00701665)
(0.958965 0.0287756 0.00237225)
(0.980879 -0.00302853 0.0148347)
(1.05915 -0.0645793 0.0819782)
(1.08775 -0.0683026 0.104759)
(1.05511 -0.00844579 0.0276459)
(1.04611 0.0257831 -0.0337121)
(1.08195 0.036485 -0.0396249)
(1.14351 0.0341448 -0.0222941)
(1.13937 0.00833284 -0.00404732)
(1.07296 -0.0128699 0.000123112)
(1.03649 -0.0335586 -0.0290637)
(1.02688 -0.0518295 -0.0855244)
(0.986194 -0.0525797 -0.132349)
(0.998738 -0.0463214 -0.124496)
(1.07746 -0.0131956 -0.0514691)
(1.12154 0.001693 0.0259303)
(1.1077 -0.0113543 0.0610832)
(1.10153 -0.0270747 0.0557137)
(1.1118 -0.0455685 0.0261318)
(1.17406 -0.0121283 0.0155713)
(1.1574 0.045106 0.00894957)
(1.03376 0.0566928 -0.0133407)
(0.965823 0.0298092 -0.0256944)
(0.944953 -0.014647 -0.0180875)
(0.969084 -0.040348 -0.0200781)
(0.984353 -0.0562739 -0.0408181)
(0.98418 -0.0501738 -0.05002)
(0.918236 -0.0165172 0.0138845)
(0.974989 -0.0427282 0.0340314)
(1.0066 -0.0340163 0.0419861)
(1.08172 -0.00871376 0.0444842)
(1.1191 -0.00538297 0.0151686)
(1.07591 -0.0210425 -0.0113439)
(1.01255 -0.0182337 0.00262546)
(0.988325 -0.0232968 0.0322566)
(1.03546 -0.000614503 0.061234)
(1.02008 0.00900292 0.0416069)
(0.948795 0.0088534 -0.00596274)
(0.94001 0.0114239 -0.00304019)
(0.981142 0.00462005 0.0306161)
(1.00575 -0.0102175 0.0306541)
(1.01386 -0.0305104 0.0286589)
(0.996373 -0.0295221 0.036061)
(0.970119 0.0214004 0.0128312)
(0.94365 0.0323748 -0.037003)
(0.978183 -0.01716 -0.0198472)
(1.0808 -0.0223333 0.0297946)
(1.11946 0.0245704 0.0298479)
(1.10052 0.04646 0.010747)
(1.09958 0.0259481 0.0527163)
(1.09286 -0.0161421 0.0995746)
(1.05395 -0.0256408 0.0370094)
(1.02199 -0.0330908 -0.0222527)
(0.958274 -0.0508351 -0.0195973)
(0.950822 -0.0440245 0.0511888)
(0.963834 -0.0211382 0.0632911)
(0.993753 -0.001037 -0.00618244)
(1.04807 0.00517332 -0.0194691)
(1.03706 -0.0410221 0.00663459)
(1.0424 -0.00131551 0.00289416)
(1.05139 0.0913699 -0.0344334)
(1.01692 0.0953559 -0.0470581)
(1.00531 0.0656884 -0.00912301)
(1.01199 0.0091924 0.0407647)
(0.995002 -0.0188109 0.00681394)
(0.963843 -0.0115359 -0.0285562)
(0.918881 0.00376527 -0.0147622)
(0.853737 -0.0180596 0.0380168)
(0.950471 -0.0167494 0.0569417)
(0.991693 -0.0232715 0.0166713)
(1.05914 -0.0303315 -0.00829917)
(1.10603 0.00941269 0.0212333)
(1.09581 0.0128168 0.00459135)
(1.07675 -0.024416 -0.0308887)
(1.09384 -0.0176932 0.00244397)
(1.08825 0.00614247 0.0523374)
(1.04211 0.0254899 0.0533217)
(1.04685 -0.0150348 0.0238526)
(1.02153 -0.0599086 -0.0177075)
(0.992216 -0.0266357 -0.0269939)
(1.03674 0.0145499 0.000372926)
(1.08271 -0.000186582 0.0186474)
(1.07071 -0.0245118 0.0109297)
(1.02597 -0.0118213 -0.0266062)
(0.968727 0.000248455 -0.0271337)
(0.922707 -0.0458433 0.046853)
(0.950161 -0.0281806 0.0745463)
(0.964996 0.0462705 0.0232307)
(0.963349 0.0100568 -0.0333987)
(1.06458 -0.0604199 -0.0113728)
(1.12279 -0.0764983 0.0507713)
(1.06249 -0.0305135 0.0529255)
(1.11333 -0.00960065 0.0382281)
(1.09553 -0.0222163 0.0358068)
(1.01664 -0.0142985 0.0568618)
(1.0358 -0.00889371 0.0592)
(1.01182 0.0281325 0.00284033)
(0.988156 0.0207354 -0.0490683)
(1.10802 -0.0626228 -0.0546752)
(1.07754 -0.0316282 -0.0597631)
(0.981925 0.0395073 -0.0863351)
(0.989173 0.0468712 -0.0562352)
(1.00829 0.0457051 -0.00850563)
(1.01951 0.00541923 0.0131083)
(0.977472 -0.0207807 -0.0156738)
(0.876579 -0.0213805 -0.0203508)
(0.808973 -0.00956763 0.00123239)
(0.961141 -0.0447834 -0.000288198)
(1.05348 -0.0506018 0.0561255)
(1.01113 -0.0226216 0.0526246)
(0.966357 -0.00350534 0.0235939)
(1.05318 0.0263927 -0.0144425)
(1.10779 -0.0084166 -0.0176849)
(1.04948 -0.0253474 0.0298432)
(1.08062 -0.00684982 0.0124405)
(1.1188 -0.00229829 0.0243069)
(1.09242 0.0128653 0.0780357)
(1.12286 0.0316355 0.0307319)
(1.06546 0.00737217 -0.0454924)
(0.93384 -0.000254333 -0.0270138)
(1.0182 -0.00968781 0.00848716)
(1.08618 -0.0188381 0.014814)
(1.06057 0.0336766 -0.00432655)
(1.11092 0.0804583 -0.0302961)
(1.10087 0.031654 -0.0454827)
(1.0349 -0.0753044 0.0174591)
(1.00364 -0.0693093 0.0565383)
(0.997185 0.026888 0.0196839)
(0.921798 0.0141734 -0.00610096)
(0.889169 -0.0688501 -0.00875451)
(0.955972 -0.0692054 0.00489088)
(0.999044 -0.00446947 0.0277307)
(1.10497 -0.00276832 -0.0043007)
(1.10291 -0.00132119 -0.0381596)
(0.98991 -0.0256581 0.0100357)
(1.00416 -0.0209037 0.0397508)
(0.97057 0.0288579 0.034171)
(0.843654 -0.017561 0.0181241)
(0.926569 -0.0943705 -0.0454655)
(1.0519 -0.0364411 -0.0577801)
(1.06154 0.0484922 0.00535884)
(1.09221 0.0998502 -0.0158179)
(1.1172 0.0831286 -0.0283303)
(1.05519 -0.000651643 0.0505344)
(1.01615 -0.0530561 0.0324232)
(0.984378 -0.0515687 -0.0147798)
(0.908616 -0.0252218 -0.0059225)
(0.98062 -0.0644976 -0.0862976)
(1.00192 -0.038625 -0.0269229)
(0.907515 0.0157437 0.0865212)
(0.932216 0.0247536 0.0906117)
(1.1959 0.0330846 -0.0491124)
(1.25315 0.0263835 -0.0990057)
(0.997313 0.00132116 0.0648264)
(1.03873 -0.0196588 0.0730568)
(1.09525 -0.0132481 0.0136409)
(1.02869 0.0379851 0.0682988)
(1.19223 0.0376516 0.0520825)
(1.25258 -0.00899627 0.0277691)
(1.07839 -0.0296293 0.0428216)
(1.0481 -0.022216 0.0147731)
(0.978319 0.0041094 0.00172524)
(0.942561 0.0212014 0.00486786)
(1.05636 0.0440294 -0.0183846)
(1.09409 0.0490089 -0.0675663)
(1.11218 -0.0452391 -0.0381897)
(1.06958 -0.0567453 0.0697013)
(1.02476 0.0259955 0.12883)
(1.01258 -0.0020993 0.0645982)
(0.849795 -0.0534403 -0.0313737)
(0.872742 -0.0589949 -0.050501)
(1.02705 -0.0283002 -0.0315214)
(1.035 -0.0110434 -0.013216)
(1.09071 0.00274635 -0.054972)
(1.06217 0.0140602 -0.0801362)
(0.927692 -0.00191647 -0.0410505)
(0.951493 0.0484565 0.0332651)
(0.989846 -0.0122294 0.0526957)
(0.980417 -0.16484 0.0438881)
(0.872805 -0.0765798 -0.0182984)
(0.819148 0.0272473 -0.0877796)
(1.05447 0.0374941 -0.0562027)
(1.15105 0.104128 -0.0375452)
(1.13143 0.0204374 0.0172069)
(1.07716 -0.0815354 0.0430756)
(0.981742 -0.0439646 -0.0394343)
(0.920849 -0.0126263 -0.0607757)
(0.918556 -0.0754928 -0.00581542)
(0.853897 -0.0133121 -0.0115703)
(0.938589 0.0700649 0.025017)
(1.02302 0.0292686 0.0243549)
(1.13316 -0.0359253 -0.00496574)
(1.16043 -0.0175876 -0.0457225)
(1.07325 0.0219425 0.0671415)
(1.07949 -0.0275382 0.0943673)
(1.10205 -0.0168568 0.021963)
(1.16364 0.0354556 0.0117434)
(1.20357 -0.00679232 0.0844823)
(1.07608 -0.0386668 0.109951)
(0.966869 -0.0216637 0.0306076)
(0.977997 -0.00715694 -0.00165993)
(0.89428 0.0155022 0.0416793)
(0.87523 0.0573407 0.114363)
(1.0094 0.0686911 0.0410344)
(1.16194 0.0368642 -0.0283847)
(1.01 -0.0774405 0.0285542)
(0.945479 -0.0375696 0.052129)
(1.1253 0.0865406 0.0147279)
(1.08913 0.0811954 -0.0245314)
(0.821344 -0.00816828 0.0116173)
(0.809959 -0.0767112 0.0928014)
(1.02071 -0.0136582 0.0485238)
(0.990904 0.00645029 0.0274679)
(0.927342 -0.00210305 0.0452643)
(1.03183 0.000339653 -0.029207)
(0.905541 0.00280354 -0.135266)
(0.957279 0.0204909 -0.0653334)
(1.13718 -0.00470462 0.010672)
(1.04037 -0.0866812 0.0658035)
(0.930262 -0.0042196 -0.00696023)
(0.842291 0.0108289 -0.201581)
(0.939078 -0.0398193 -0.0525314)
(1.15734 0.015119 0.0672235)
(1.1782 -0.000401163 -0.026244)
(1.04267 -0.0819076 -0.0209383)
(0.983024 -0.0318606 0.00999359)
(1.02168 0.00177215 -0.0124295)
(0.956619 -0.0328304 -0.0262087)
(0.90025 -0.0152271 0.0902069)
(1.071 0.0579518 0.0167964)
(1.02573 0.0433223 -0.00105261)
(0.937963 -0.000920785 0.0115597)
(1.00733 -0.0100452 0.0504399)
(1.05958 0.022155 0.130257)
(1.06062 -0.058059 0.058966)
(1.10562 -0.047036 0.0750624)
(1.22621 0.0222597 0.119697)
(1.06195 -0.00401446 0.120945)
(0.837941 -0.00255249 0.0621494)
(0.879223 -0.0197054 -0.0381199)
(0.978003 -0.0288657 -0.0413784)
(0.893955 0.0296453 0.0289697)
(0.921274 0.0417317 0.108849)
(1.14421 0.0437074 0.0532702)
(1.31334 0.0594051 0.0554781)
(0.932412 -0.0135876 0.0343777)
(0.85157 -0.0661926 0.0552784)
(1.20779 0.0420579 0.0165702)
(1.10118 0.0543336 -0.0379299)
(0.886169 -0.0391573 0.0329591)
(0.857807 -0.0893729 0.146426)
(0.991507 -0.0415031 0.0429491)
(1.0309 0.00240133 -0.0377843)
(0.960887 -0.00880271 0.0616562)
(0.884197 -0.00417571 0.040048)
(0.922614 -0.0142818 -0.106436)
(1.00559 -0.0147313 -0.0681339)
(1.08511 -0.0595395 0.0226791)
(0.898063 -0.0637922 0.0650966)
(0.919065 0.00752763 -0.0573175)
(0.932347 0.0198705 -0.173208)
(0.830074 0.00154453 0.0196679)
(1.04287 0.027883 0.14277)
(0.910129 0.0451313 0.0102586)
(0.771757 -0.0453426 -0.002486)
(0.946252 -0.0652749 0.0947552)
(1.09657 -0.00548623 0.00283716)
(0.95688 0.000635775 -0.051579)
(1.1047 -0.0185334 0.0802111)
(1.15133 0.0265268 -0.0171613)
(0.997716 0.0284652 0.0158923)
(1.03244 -0.0352307 0.0113596)
(0.854122 0.00227913 -0.00375113)
(0.860477 0.0203159 0.0112118)
(1.049 -0.0853758 -0.0150167)
(0.976132 -0.0280957 0.168037)
(1.01508 0.0627486 0.165222)
(0.903402 0.032884 0.0192676)
(0.747249 0.00313472 -0.0213376)
(0.947093 -0.0416288 -0.047561)
(1.00398 -0.0224496 -0.0612006)
(0.974247 0.0300575 0.0120201)
(1.11732 0.0357761 0.0474265)
(1.14795 0.00145544 0.017134)
(1.26413 0.0286015 0.0536078)
(1.0406 0.0112354 0.0157502)
(0.869315 -0.0828381 0.0307541)
(1.18267 -0.00936572 0.0268437)
(1.09339 0.0603062 -0.0789713)
(0.891093 -0.00262915 -0.0373045)
(0.940047 -0.070406 0.0596171)
(1.03251 -0.0056379 -0.00127597)
(1.04817 0.0118096 -0.0792527)
(1.06963 0.0233466 0.0470558)
(0.872419 0.0259408 0.00469116)
(0.949129 -0.0250247 -0.0776032)
(0.990997 -0.0493288 -0.0258965)
(0.936885 -0.017657 0.0534175)
(0.863616 -0.00709865 0.056074)
(0.896935 0.00190902 -0.0658273)
(0.97986 0.0371732 -0.12623)
(0.937567 -0.0231228 0.0201804)
(1.06469 -0.00503211 0.117013)
(0.841599 0.0278002 0.0219605)
(0.727231 -0.0682703 0.0245893)
(0.84761 -0.104241 0.115802)
(0.91185 -0.0157941 -0.0211049)
(0.902981 -0.0206557 0.06925)
(1.04789 -0.0207942 0.0855632)
(1.14609 0.007731 0.0413392)
(1.06189 0.0234585 0.0812737)
(1.04663 0.017152 0.0776103)
(0.758797 0.0527212 0.0424645)
(0.84362 -0.00367364 0.0513267)
(1.10212 -0.0922423 0.0296277)
(0.946758 0.0558366 0.174928)
(0.868138 0.0895312 0.0791255)
(0.915211 0.018905 -0.0959284)
(0.844706 0.0208448 0.0216021)
(0.945053 -0.0612891 -0.0236851)
(1.05472 -0.0422083 -0.108604)
(1.03363 0.0181253 0.0229592)
(1.02214 -0.00542731 0.0744615)
(1.08267 -0.00406558 -0.011049)
(1.13443 0.0581656 -0.0309522)
(0.904602 0.0309176 0.0291363)
(0.98207 -0.0687387 0.0294988)
(1.09449 -0.00896358 0.0364544)
(0.962925 0.0653897 -0.0843504)
(0.942132 0.000773422 0.00062875)
(1.02254 -0.0461499 0.0327271)
(1.02635 -0.00810808 -0.0361102)
(1.00265 0.0146151 -0.0643216)
(1.01355 0.0525217 0.0296971)
(0.982579 0.0230749 -0.00559895)
(1.00427 -0.0171722 -0.0782078)
(1.04339 -0.0475979 0.0207011)
(0.859824 -0.0291302 0.0473899)
(0.699036 0.00674183 -0.0332513)
(0.750533 0.000663615 -0.041813)
(0.937195 0.0529671 -0.0810941)
(0.964346 -0.0202731 0.0127035)
(1.10641 0.0109592 0.0900998)
(0.888792 0.0467289 0.00145689)
(0.795284 -0.0897593 -0.0234495)
(0.745061 -0.0836475 0.0746041)
(0.819007 -0.0104657 0.0530474)
(0.889547 -0.00814524 0.0999669)
(0.886025 -0.046822 0.144772)
(1.04609 -0.0110227 0.083023)
(1.08749 0.0737659 0.0785126)
(1.09944 0.0120315 0.0803978)
(0.817386 0.0478607 0.089069)
(0.983953 -0.0333699 0.07185)
(1.08044 -0.120874 0.0965116)
(0.858183 0.0887617 0.137559)
(0.887069 0.0173757 0.086381)
(0.891309 -0.0348492 -0.0614001)
(0.861745 0.0420206 0.0299503)
(0.872076 -0.0940512 -0.075558)
(1.04027 -0.079124 -0.136531)
(0.998983 0.0369689 -0.0297687)
(0.944955 -0.0110607 0.0456241)
(0.917733 -0.0720106 0.0100048)
(1.05472 0.0343457 -0.0149624)
(0.864855 0.00155913 0.0610702)
(1.01381 -0.0864285 0.032172)
(1.03474 -0.0176027 -0.0155377)
(0.965955 0.0697585 -0.0212084)
(0.948026 -0.0146987 0.0576909)
(0.99693 -0.0362322 0.0842614)
(1.03636 0.040353 -0.0211089)
(0.932617 0.0517113 -0.0690197)
(0.937248 0.0699298 0.0327694)
(0.999202 0.0229829 0.0301237)
(1.061 -0.00745796 -0.097464)
(1.13857 -0.0607492 0.0650111)
(0.868176 -0.00371982 0.0908287)
(0.693732 0.00343068 0.0583596)
(0.690031 -0.0106724 0.0616305)
(0.921143 0.0186409 -0.149124)
(1.05393 -0.0274509 -0.0355328)
(1.01026 0.0202312 0.117387)
(1.0014 0.0553707 -0.0244306)
(1.0879 -0.0875048 -0.0399935)
(0.816954 -0.095853 0.0578867)
(0.846456 -0.0482743 0.077237)
(1.04634 -0.000431011 0.00631845)
(0.931788 -0.0211683 0.0488134)
(0.930989 -0.0193638 0.0578557)
(1.10807 0.048858 0.148405)
(1.02504 0.0702692 0.0279455)
(0.924582 0.0813329 0.123034)
(1.15269 -0.0212505 0.0735858)
(0.886604 -0.071036 0.0346298)
(0.818037 0.107556 0.120916)
(0.966943 0.0111497 0.0633033)
(0.774484 -0.0425367 -0.0412643)
(0.918298 0.0401769 0.114424)
(0.810764 -0.111658 -0.0532708)
(0.811517 -0.0738253 -0.155675)
(0.927909 0.0690573 0.0134872)
(0.860306 0.0180851 -0.000746459)
(0.681714 -0.040114 -0.0572609)
(1.02241 0.0393791 -0.0269971)
(0.945694 0.0199758 0.0860358)
(0.886224 -0.0636012 -0.0516491)
(1.00853 -0.0179837 -0.108068)
(0.946154 0.0589018 0.0400163)
(0.878622 -0.0152581 0.109348)
(1.00311 -0.0551709 0.0869785)
(1.15702 0.0563472 -0.0606369)
(0.938306 0.0320836 -0.121083)
(1.10536 0.0791627 0.0485465)
(1.03725 0.0281731 0.0160325)
(1.12405 -0.000393521 -0.0734042)
(1.09543 -0.0160528 0.0911104)
(0.663097 -0.0096509 0.107663)
(0.725729 0.00851818 0.0704961)
(0.665188 0.00783927 0.0651838)
(0.855339 -0.0250574 -0.142224)
(1.05964 -0.0317153 -0.0809712)
(1.0114 0.0658802 0.115221)
(1.09544 0.0157949 0.0234171)
(1.02515 -0.106381 0.0460816)
(0.725052 -0.0657706 0.103027)
(0.805784 -0.052703 0.0161544)
(1.11402 -0.00645065 -0.0659889)
(0.861431 -0.0139768 0.0785667)
(0.78798 -0.0407684 0.0841953)
(1.09849 0.0288551 0.0944391)
(0.874337 0.0807716 0.0185999)
(0.840611 0.0166193 0.254245)
(1.19104 0.00843077 0.0884415)
(0.861123 -0.0407418 -0.0373962)
(0.872774 0.0803815 0.160192)
(1.06697 0.016802 0.0483965)
(0.948731 -0.0426549 -0.0302919)
(1.01716 0.0153453 0.177424)
(0.734788 -0.110941 -0.0196593)
(0.755538 -0.0832798 -0.140831)
(0.821056 0.0594951 -0.0187359)
(0.807022 0.0119513 -0.0162033)
(0.671662 -0.0453256 -0.0658279)
(0.89234 -0.0137401 -0.0405705)
(0.933896 0.00627887 0.054148)
(0.815672 -0.0366554 -0.0694879)
(1.04175 0.000421383 -0.234598)
(0.935585 0.0924234 -0.141872)
(1.04193 0.0019997 0.0504776)
(0.981336 -0.0649055 0.00948465)
(1.22514 0.0456589 -0.219126)
(1.00347 0.0316567 -0.158021)
(1.14633 0.0205775 0.0783291)
(0.953411 0.0253149 -0.032653)
(1.07115 0.00682107 -0.076314)
(1.02804 0.00382571 0.114523)
(0.636047 -0.0429559 0.053882)
(0.78922 -0.00843146 0.0398858)
(0.728135 0.000269677 0.042608)
(0.772551 -0.0625892 -0.0812194)
(0.910794 -0.0271676 -0.0301584)
(1.09002 0.0393429 0.105296)
(0.967727 -0.0109282 0.0594649)
(0.727138 -0.0762595 0.0862817)
(0.689427 -0.0446387 0.167692)
(0.873243 -0.0644282 -0.0689567)
(0.979853 0.0347712 -0.0445476)
(0.863795 -0.0171458 0.19262)
(0.752531 -0.0717819 0.0690662)
(1.08064 0.0643503 -0.0363234)
(0.875179 0.1107 0.100733)
(0.774996 -0.0232086 0.243869)
(1.27055 -0.000848694 0.040675)
(0.989943 -0.0459811 -0.145212)
(1.01329 0.0587073 0.145779)
(1.18949 0.0315492 -0.0196611)
(1.02785 -0.000527313 -0.00330358)
(1.04705 0.0483988 0.15546)
(0.825394 -0.0690717 -0.071994)
(0.813127 -0.0657225 -0.150882)
(0.843825 0.0636144 0.0102277)
(0.887409 0.0418617 -0.0413665)
(0.808904 -0.0468868 -0.059592)
(0.813344 0.0508562 0.00679271)
(0.869505 0.0280841 0.0454926)
(0.836452 -0.032552 -0.0804129)
(0.916637 0.0220625 -0.277322)
(0.903594 0.104785 -0.187837)
(1.18258 -0.0269456 0.164982)
(0.878834 -0.0563929 0.00691384)
(1.10275 0.0526521 -0.266756)
(0.791268 0.0294574 -0.0562075)
(0.894732 0.0442094 0.17085)
(0.748804 0.0412517 -0.0111531)
(1.0088 0.0514542 -0.0302378)
(1.13778 0.0240176 0.135565)
(0.602147 -0.0385555 0.0592293)
(0.699753 -0.00987801 0.00221209)
(0.835288 0.0268226 0.00723681)
(0.805687 -0.0348894 -0.078104)
(0.872138 -0.043946 -0.0210904)
(1.06345 0.0690303 0.0537795)
(0.838041 0.0398454 0.0905399)
(0.728037 -0.0640986 0.0826509)
(0.84813 -0.0228761 0.131675)
(0.822041 -0.0610862 -0.0830971)
(0.84512 0.00391263 0.00390904)
(0.932524 -0.0259139 0.166957)
(0.830734 -0.0766316 0.0235365)
(0.996948 0.0676345 -0.0973921)
(1.00063 0.0913444 0.0502823)
(0.940002 -0.0504112 0.0578444)
(1.36136 -0.0209245 -0.120158)
(0.86427 -0.0418017 -0.0602796)
(0.983873 0.0209287 0.224434)
(1.18033 0.0142931 -0.0682559)
(1.05675 -0.0173828 0.0412701)
(1.07337 0.0330539 0.0944786)
(0.842037 -0.109344 -0.090174)
(0.873987 -0.0502725 -0.116713)
(0.852208 0.0429678 0.00190487)
(0.913869 0.0187354 -0.0580295)
(0.917354 -0.0473044 -0.0551515)
(0.713967 0.0267849 0.0166575)
(0.733357 0.0233223 0.0514148)
(0.827243 -0.022266 -0.062232)
(0.83318 0.0567749 -0.318324)
(0.904892 0.0427076 -0.107719)
(1.17397 -0.0713399 0.210061)
(0.930281 -0.0489712 -0.0644442)
(0.872214 0.0218356 -0.247448)
(0.614633 0.0111316 -0.0182268)
(0.761634 0.0164207 0.155884)
(0.668671 0.0143748 -0.0836364)
(1.1189 0.00247068 -0.00221474)
(1.07888 0.0095615 0.0454578)
(0.580572 -0.0261749 0.0370843)
(0.540488 0.00321481 0.033712)
(0.804829 0.0396452 -0.0533786)
(0.845852 -0.0785679 -0.150152)
(0.948825 -0.0836688 -0.0718851)
(1.08168 0.0595623 0.0444868)
(0.793841 -0.000959901 0.0702598)
(0.732564 -0.0948913 0.0720807)
(1.03201 -0.0106617 0.0140335)
(0.776992 -0.0340306 -0.114059)
(0.778216 0.0119691 -0.04243)
(0.986008 -0.0383767 0.075868)
(0.77996 -0.0534112 -0.0388959)
(0.926824 0.104033 -0.0528919)
(1.03802 0.100967 0.0100483)
(0.897458 -0.0662184 0.015719)
(1.26461 -0.00824905 -0.143356)
(0.719621 -0.00674653 0.0590243)
(0.863008 0.0499626 0.202432)
(1.0791 0.0266227 -0.145272)
(1.00721 -0.000420934 0.00601621)
(1.00832 0.090711 -0.00700886)
(0.759829 -0.0471993 -0.0645718)