/*--------------------------------*- C++ -*----------------------------------*\
  =========                 |
  \\      /  F ield         | OpenFOAM: The Open Source CFD Toolbox
   \\    /   O peration     | Website:  https://openfoam.org
    \\  /    A nd           | Version:  10
     \\/     M anipulation  |
\*---------------------------------------------------------------------------*/
FoamFile
{
    format      ascii;
    class       volVectorField;
    location    "10";
    object      UMean;
}
// * * * * * * * * * * * * * * * * * * * * * * * * * * * * * * * * * * * * * //

dimensions      [0 1 -1 0 0 0 0];

internalField   nonuniform List<vector> 
25600
(
(1.00375 0.0161818 0.0578062)
(1.00536 0.0137605 0.0572327)
(1.00258 0.0142606 0.0553445)
(1.00179 0.0193815 0.0549926)
(1.00068 0.0202354 0.0559998)
(1.0069 0.0159887 0.0571645)
(1.00884 0.0127721 0.0573536)
(1.00748 0.0122848 0.0561232)
(1.00531 0.0170667 0.0564083)
(1.00365 0.0184748 0.0582278)
(1.00825 0.0148355 0.0594254)
(1.00988 0.01268 0.0583149)
(1.00571 0.0123384 0.0561009)
(1.00226 0.0176855 0.0567542)
(1.00053 0.0202922 0.057502)
(1.00696 0.0164898 0.0579708)
(1.00923 0.0133436 0.0585223)
(1.00887 0.0146285 0.0564639)
(1.00433 0.0186187 0.055734)
(1.00164 0.0201673 0.0569593)
(1.00517 0.0161383 0.0583947)
(1.00655 0.0134029 0.0577781)
(1.00462 0.0137141 0.0554704)
(1.00188 0.016324 0.0566339)
(1.00068 0.0170477 0.0586883)
(1.00621 0.0143864 0.0589464)
(1.00826 0.0121329 0.0581458)
(1.00633 0.0143054 0.0548646)
(1.00341 0.0202148 0.0546747)
(1.00294 0.0218682 0.0563812)
(1.00687 0.0189349 0.0569025)
(1.00891 0.0154045 0.0573118)
(1.00867 0.0152408 0.0558992)
(1.00389 0.0194781 0.0553907)
(1.00204 0.0189538 0.0581267)
(1.00631 0.016513 0.0588284)
(1.00696 0.014237 0.0579884)
(1.0054 0.0141593 0.0557646)
(1.00058 0.0197344 0.0553922)
(0.998979 0.0202329 0.0572779)
(1.24821 0.136519 0.0168781)
(1.24885 0.136559 0.0160631)
(1.24906 0.134917 0.0162116)
(1.24919 0.135294 0.0180595)
(1.24863 0.136171 0.0183199)
(1.24915 0.135983 0.0168076)
(1.24823 0.135147 0.0168933)
(1.24748 0.133676 0.0175617)
(1.24798 0.134809 0.0186422)
(1.24685 0.135755 0.0189379)
(1.24698 0.135349 0.0176458)
(1.24671 0.134646 0.0170553)
(1.24782 0.133397 0.0169862)
(1.24856 0.134491 0.0186358)
(1.24782 0.136129 0.0185053)
(1.24532 0.134814 0.0172358)
(1.24538 0.13494 0.0170247)
(1.24631 0.133878 0.0168718)
(1.24775 0.135169 0.0179623)
(1.24729 0.136664 0.0175686)
(1.2481 0.136859 0.0165964)
(1.24757 0.135301 0.0164293)
(1.2476 0.133909 0.0169096)
(1.24893 0.135452 0.0181152)
(1.24743 0.135301 0.0180461)
(1.24593 0.134339 0.0170753)
(1.24608 0.134082 0.0164378)
(1.24688 0.13294 0.0166374)
(1.24814 0.134069 0.018095)
(1.24765 0.135706 0.017921)
(1.24745 0.136005 0.0169355)
(1.24786 0.13616 0.0164332)
(1.24758 0.134491 0.0166736)
(1.24831 0.135038 0.0184564)
(1.24752 0.13591 0.0188379)
(1.24735 0.135661 0.0180739)
(1.24768 0.135049 0.0176681)
(1.24835 0.134321 0.0179048)
(1.24981 0.135759 0.0190658)
(1.24888 0.136412 0.0186444)
(1.26888 0.0911587 0.0296136)
(1.26872 0.0885354 0.0307644)
(1.26642 0.0863006 0.0309253)
(1.2673 0.0886972 0.0296684)
(1.27171 0.0937034 0.0283997)
(1.27292 0.0943559 0.0287169)
(1.27283 0.091075 0.0299987)
(1.27129 0.087109 0.0307489)
(1.27175 0.0871102 0.0299451)
(1.27384 0.0906211 0.0288934)
(1.27368 0.0908569 0.0296015)
(1.27262 0.0878688 0.0310225)
(1.26982 0.0843712 0.0315176)
(1.27008 0.0866493 0.0302087)
(1.27204 0.0920113 0.0283994)
(1.27388 0.0936378 0.0292964)
(1.27166 0.0901701 0.0309413)
(1.26952 0.0873519 0.0306063)
(1.26968 0.0886914 0.0301877)
(1.27269 0.0934044 0.028691)
(1.27276 0.094147 0.0293197)
(1.27288 0.0914684 0.0307086)
(1.26918 0.0872321 0.0307427)
(1.27006 0.0876314 0.0292884)
(1.2715 0.0916835 0.0280104)
(1.27121 0.092786 0.0289427)
(1.27035 0.0900718 0.0311229)
(1.26726 0.0866344 0.0314161)
(1.2682 0.0893021 0.0297653)
(1.27094 0.0943495 0.0290944)
(1.27181 0.0948598 0.0296606)
(1.27156 0.0919953 0.0308504)
(1.2699 0.0883056 0.0312702)
(1.26877 0.0889552 0.0294568)
(1.27103 0.0924908 0.0278601)
(1.26998 0.0934931 0.0285918)
(1.27124 0.0914082 0.0303356)
(1.26838 0.0864967 0.0313776)
(1.26835 0.0874766 0.0301536)
(1.27058 0.0917646 0.0288667)
(1.27737 0.126795 -0.00740443)
(1.27575 0.124694 -0.00708168)
(1.27414 0.122644 -0.00734969)
(1.2724 0.121792 -0.00672097)
(1.27505 0.123145 -0.00625331)
(1.28013 0.126324 -0.00624217)
(1.27955 0.126973 -0.0066892)
(1.28013 0.125402 -0.00719394)
(1.2749 0.124882 -0.00648284)
(1.27706 0.126936 -0.00574769)
(1.27836 0.128914 -0.00588886)
(1.27934 0.127543 -0.00707734)
(1.27678 0.124832 -0.00831514)
(1.27462 0.122687 -0.0081659)
(1.27615 0.124114 -0.00762572)
(1.27909 0.126186 -0.00636814)
(1.2794 0.125997 -0.00673944)
(1.2773 0.123189 -0.00715738)
(1.27448 0.122558 -0.00624412)
(1.27703 0.124281 -0.00632289)
(1.28163 0.127387 -0.00585336)
(1.28104 0.127395 -0.00662811)
(1.28084 0.125476 -0.00738859)
(1.27696 0.123391 -0.00703173)
(1.27908 0.12528 -0.00700033)
(1.28115 0.127495 -0.00603602)
(1.2808 0.126719 -0.00700626)
(1.27877 0.124805 -0.00715662)
(1.27511 0.12227 -0.00637973)
(1.27643 0.123618 -0.00591929)
(1.27895 0.125922 -0.00580967)
(1.27848 0.126196 -0.00646549)
(1.27755 0.124236 -0.00705583)
(1.27399 0.122666 -0.00797258)
(1.27581 0.125354 -0.00734564)
(1.2792 0.12757 -0.00723433)
(1.27751 0.127069 -0.00746939)
(1.2783 0.125817 -0.00829372)
(1.27221 0.123205 -0.00806982)
(1.27586 0.124894 -0.00740198)
(1.30693 0.143762 0.00325563)
(1.30773 0.145878 0.00335893)
(1.30888 0.144749 0.00228812)
(1.3091 0.143771 0.00265095)
(1.30423 0.143776 0.00352873)
(1.29974 0.142799 0.00356505)
(1.30337 0.141837 0.0021362)
(1.30478 0.141186 0.00175301)
(1.30926 0.14084 0.00132241)
(1.3105 0.141398 0.00201013)
(1.31035 0.142287 0.00396072)
(1.3094 0.14269 0.00330308)
(1.31179 0.142304 0.00186961)
(1.31243 0.142316 0.0011766)
(1.30971 0.141501 0.00249276)
(1.30657 0.142104 0.00573009)
(1.30576 0.143452 0.00378914)
(1.30956 0.1437 0.00205889)
(1.31132 0.143261 0.00247627)
(1.30864 0.143555 0.00435237)
(1.30349 0.143894 0.00648013)
(1.30578 0.144148 0.00334973)
(1.30707 0.142857 0.00273357)
(1.30638 0.142117 0.00255883)
(1.3052 0.141848 0.00324384)
(1.30473 0.142999 0.00432833)
(1.30831 0.143929 0.00293765)
(1.31008 0.143457 0.00207934)
(1.31382 0.143849 0.00164501)
(1.30988 0.144233 0.00273055)
(1.30748 0.14411 0.00481763)
(1.30607 0.143297 0.00416469)
(1.30757 0.1429 0.00254264)
(1.31187 0.142674 0.00174578)
(1.30811 0.142592 0.00343107)
(1.305 0.143608 0.00530163)
(1.30671 0.143609 0.00327644)
(1.30905 0.142927 0.00101716)
(1.31297 0.143725 0.00179799)
(1.30827 0.143166 0.00249968)
(1.339 0.147762 -0.00469596)
(1.34382 0.147057 -0.00395866)
(1.34154 0.146542 -0.00247265)
(1.34439 0.147189 -0.00198084)
(1.3434 0.148502 -0.0024327)
(1.34148 0.149312 -0.00265352)
(1.34252 0.148376 -0.0037988)
(1.33997 0.147775 -0.00254514)
(1.33988 0.146464 -0.00296807)
(1.34135 0.146821 -0.00419828)
(1.33882 0.14738 -0.00421899)
(1.34123 0.146484 -0.00388666)
(1.33966 0.146045 -0.00226801)
(1.34339 0.145994 -0.00337045)
(1.34275 0.14705 -0.00378254)
(1.34036 0.147504 -0.00342393)
(1.34484 0.147294 -0.00433951)
(1.34265 0.145792 -0.00224228)
(1.34515 0.145213 -0.00268979)
(1.34571 0.147036 -0.0041487)
(1.34446 0.148498 -0.00254192)
(1.34544 0.147129 -0.00446058)
(1.343 0.147356 -0.00145475)
(1.34449 0.146498 -0.00320134)
(1.34115 0.146959 -0.0043645)
(1.33798 0.146211 -0.00486027)
(1.34129 0.145553 -0.00646721)
(1.33872 0.144892 -0.00321073)
(1.3424 0.144549 -0.00471359)
(1.3427 0.146562 -0.00477666)
(1.3419 0.147988 -0.00235422)
(1.34614 0.148559 -0.00235739)
(1.34277 0.147379 -0.00210161)
(1.34352 0.146161 -0.00185503)
(1.34536 0.147701 -0.00295657)
(1.34223 0.148105 -0.00303586)
(1.34331 0.146735 -0.00379564)
(1.34162 0.146872 -0.00326347)
(1.34144 0.145002 -0.00373766)
(1.34301 0.146322 -0.00542371)
(1.33551 0.162863 -0.00910503)
(1.33251 0.162723 -0.00856883)
(1.33141 0.161486 -0.00665837)
(1.33333 0.160255 -0.00695842)
(1.33363 0.162558 -0.00864087)
(1.33539 0.163011 -0.0088939)
(1.33522 0.16288 -0.00716674)
(1.33511 0.161909 -0.0042525)
(1.33419 0.159331 -0.00461197)
(1.33419 0.160628 -0.00716063)
(1.3344 0.162395 -0.00865228)
(1.33244 0.161684 -0.00820624)
(1.33246 0.160428 -0.0056016)
(1.33046 0.159944 -0.00648455)
(1.33285 0.161516 -0.00879433)
(1.33083 0.161047 -0.00940063)
(1.33023 0.161346 -0.00901964)
(1.32829 0.160848 -0.00592713)
(1.32867 0.158066 -0.00918625)
(1.32897 0.15979 -0.0103134)
(1.33443 0.162583 -0.00828044)
(1.33324 0.162664 -0.00770585)
(1.33503 0.161872 -0.00572088)
(1.33749 0.161909 -0.00670454)
(1.33816 0.162627 -0.00937815)
(1.33896 0.162775 -0.00973565)
(1.335 0.1623 -0.00864326)
(1.33529 0.161252 -0.00586288)
(1.33316 0.158485 -0.00769281)
(1.33272 0.160526 -0.00937699)
(1.33128 0.160323 -0.00706038)
(1.33322 0.160609 -0.00545855)
(1.33331 0.160705 -0.0036269)
(1.33311 0.158524 -0.0048702)
(1.33517 0.159758 -0.00843839)
(1.33863 0.163066 -0.00929158)
(1.33675 0.1635 -0.00857872)
(1.33697 0.163284 -0.00781884)
(1.3379 0.161998 -0.00861766)
(1.3358 0.161572 -0.0106784)
(1.37982 0.169073 -0.00997854)
(1.37891 0.169769 -0.00942527)
(1.37702 0.168769 -0.0095517)
(1.37557 0.168486 -0.00845164)
(1.37514 0.167847 -0.0091604)
(1.37665 0.168318 -0.0104802)
(1.37699 0.169072 -0.0117897)
(1.37883 0.168981 -0.00997398)
(1.37647 0.167834 -0.0112106)
(1.37705 0.167446 -0.0110547)
(1.38152 0.168095 -0.00964843)
(1.38114 0.169473 -0.0110594)
(1.37892 0.169461 -0.0111999)
(1.37684 0.168085 -0.0120242)
(1.38064 0.167978 -0.0127307)
(1.38167 0.169688 -0.0108266)
(1.38182 0.170446 -0.0114525)
(1.37881 0.169455 -0.0103571)
(1.37836 0.168309 -0.0106308)
(1.37866 0.16852 -0.010514)
(1.37635 0.167462 -0.00709213)
(1.37865 0.16852 -0.00930436)
(1.37394 0.168388 -0.00861772)
(1.3731 0.166866 -0.0105968)
(1.37442 0.167881 -0.0112042)
(1.37687 0.168089 -0.00998489)
(1.3773 0.169019 -0.0100254)
(1.37583 0.167703 -0.00953525)
(1.37451 0.167723 -0.010726)
(1.37598 0.168449 -0.0105183)
(1.37707 0.168221 -0.00846458)
(1.37503 0.168038 -0.00906675)
(1.37526 0.168723 -0.00906555)
(1.37443 0.16698 -0.00987187)
(1.37487 0.166501 -0.0112351)
(1.37589 0.166954 -0.00975493)
(1.37885 0.168388 -0.00962637)
(1.37865 0.168544 -0.00982807)
(1.37695 0.168006 -0.0102769)
(1.37783 0.16853 -0.0112261)
(1.36372 0.17392 -0.0168191)
(1.36714 0.174374 -0.0157518)
(1.3641 0.173605 -0.0147091)
(1.36333 0.172232 -0.0131497)
(1.36296 0.171873 -0.013053)
(1.36081 0.171193 -0.0135572)
(1.3606 0.170262 -0.0129287)
(1.35938 0.170742 -0.0127067)
(1.35746 0.170512 -0.0147875)
(1.35394 0.168666 -0.0155883)
(1.35592 0.168414 -0.0136792)
(1.35684 0.169297 -0.0146544)
(1.35989 0.170131 -0.0146209)
(1.35869 0.169665 -0.016956)
(1.35284 0.167531 -0.015302)
(1.35815 0.168372 -0.0150377)
(1.36199 0.170034 -0.0155011)
(1.36531 0.172038 -0.0154343)
(1.36182 0.170835 -0.0150785)
(1.36509 0.170531 -0.0151006)
(1.36743 0.171083 -0.0119563)
(1.36737 0.170691 -0.0117876)
(1.36996 0.172991 -0.0130318)
(1.36485 0.172727 -0.0146299)
(1.36369 0.17173 -0.014959)
(1.36398 0.171484 -0.015919)
(1.3676 0.171712 -0.0164097)
(1.36367 0.172473 -0.016402)
(1.36385 0.170138 -0.0194119)
(1.36005 0.169615 -0.0184922)
(1.36542 0.17121 -0.0174355)
(1.36313 0.17131 -0.0147356)
(1.3649 0.171504 -0.0137933)
(1.36166 0.171527 -0.0152189)
(1.36225 0.171428 -0.0160823)
(1.36209 0.172203 -0.0150215)
(1.35887 0.170973 -0.0152735)
(1.36349 0.173185 -0.0163849)
(1.36211 0.172441 -0.018459)
(1.36304 0.171441 -0.0195576)
(1.39125 0.179387 -0.0117196)
(1.39631 0.181248 -0.00965562)
(1.40052 0.182494 -0.0112451)
(1.39946 0.18035 -0.00934415)
(1.40138 0.179794 -0.00822294)
(1.40149 0.179699 -0.00769313)
(1.4029 0.179263 -0.00601373)
(1.40032 0.180406 -0.00530944)
(1.39933 0.179712 -0.00687157)
(1.39758 0.179032 -0.00855324)
(1.39278 0.179481 -0.0087899)
(1.39619 0.182126 -0.0077814)
(1.39101 0.182181 -0.00742036)
(1.39235 0.181088 -0.00909415)
(1.38875 0.180157 -0.0103419)
(1.38593 0.17896 -0.0079566)
(1.38422 0.178679 -0.00909355)
(1.38672 0.179891 -0.00998854)
(1.38813 0.17994 -0.0102096)
(1.38616 0.178273 -0.0100786)
(1.38688 0.178645 -0.00984893)
(1.38878 0.179481 -0.00666628)
(1.39429 0.181471 -0.00591817)
(1.39499 0.183701 -0.00769028)
(1.39236 0.182311 -0.00854369)
(1.39008 0.180852 -0.00866904)
(1.39472 0.181946 -0.0076224)
(1.39725 0.182555 -0.00871475)
(1.39767 0.181714 -0.00887936)
(1.39355 0.178431 -0.00869514)
(1.39306 0.178272 -0.0106842)
(1.3987 0.17942 -0.00783806)
(1.39318 0.179383 -0.00535914)
(1.39789 0.178907 -0.00828601)
(1.39198 0.178784 -0.00711865)
(1.39659 0.179981 -0.00687743)
(1.39215 0.1801 -0.00571518)
(1.39247 0.1805 -0.00675837)
(1.39394 0.180573 -0.00960714)
(1.39002 0.179709 -0.0135667)
(1.38968 0.180204 -0.00575692)
(1.38325 0.179031 -0.00397477)
(1.38509 0.177678 -0.0042342)
(1.38987 0.17798 -0.00612935)
(1.39071 0.17957 -0.00697681)
(1.39071 0.178907 -0.00662364)
(1.39119 0.177944 -0.0050319)
(1.39961 0.179745 -0.00482949)
(1.3983 0.179074 -0.00547123)
(1.40249 0.179649 -0.00546149)
(1.39944 0.177896 -0.00703388)
(1.39903 0.179155 -0.00793432)
(1.39957 0.180563 -0.0057801)
(1.39799 0.178667 -0.00492889)
(1.39819 0.178473 -0.00590975)
(1.39351 0.179201 -0.00723868)
(1.39379 0.180229 -0.00598441)
(1.38905 0.179903 -0.0054896)
(1.39112 0.179102 -0.00605563)
(1.38765 0.179824 -0.00653467)
(1.3878 0.180076 -0.00897115)
(1.38233 0.179867 -0.00810443)
(1.38302 0.180866 -0.00596306)
(1.38587 0.182946 -0.00624668)
(1.38602 0.183195 -0.00654047)
(1.38243 0.181407 -0.00682502)
(1.38258 0.181528 -0.00530102)
(1.38895 0.18257 -0.00432282)
(1.38966 0.182737 -0.00484001)
(1.39476 0.182925 -0.00564919)
(1.38734 0.180317 -0.00667603)
(1.38931 0.18121 -0.00613209)
(1.39385 0.18047 -0.00608553)
(1.39226 0.180249 -0.00759001)
(1.39891 0.181069 -0.00752995)
(1.39469 0.180621 -0.00707813)
(1.39644 0.181453 -0.00773059)
(1.38988 0.180665 -0.00870254)
(1.39205 0.18057 -0.00887978)
(1.38694 0.181467 -0.00723175)
(1.40253 0.188334 0.000736746)
(1.40197 0.188574 -0.00140895)
(1.39023 0.185258 -0.00124096)
(1.39027 0.183467 0.000466011)
(1.38866 0.184896 -2.08704e-05)
(1.39559 0.18731 0.00152577)
(1.3876 0.186816 0.00311064)
(1.38716 0.186948 0.000559344)
(1.39045 0.185517 0.000655512)
(1.39083 0.184523 0.00103699)
(1.39486 0.185443 -7.50908e-05)
(1.3929 0.186381 -0.000242354)
(1.39345 0.186173 -0.000345058)
(1.38948 0.184524 0.00095658)
(1.39506 0.185105 0.000754948)
(1.39567 0.185931 0.000794237)
(1.39774 0.185417 0.000611561)
(1.39808 0.186259 0.00163135)
(1.3967 0.185826 0.00217828)
(1.4031 0.185311 0.0020918)
(1.40468 0.185884 0.00125788)
(1.40158 0.187753 0.0028675)
(1.40224 0.187242 0.00265878)
(1.39938 0.187616 0.00251714)
(1.40011 0.187643 -0.00106468)
(1.40336 0.186298 -0.000731918)
(1.3958 0.184831 -0.00184811)
(1.39512 0.184959 -0.00378108)
(1.39454 0.184298 -0.0023879)
(1.39649 0.185789 -0.00015525)
(1.40128 0.186763 0.00111409)
(1.39414 0.186224 0.00153796)
(1.39844 0.187243 0.000282531)
(1.39737 0.186255 -0.000164357)
(1.40337 0.186579 -0.00121202)
(1.40574 0.188266 -0.000877064)
(1.40735 0.18946 7.98717e-05)
(1.40754 0.189696 -0.00387195)
(1.40169 0.188551 -0.00463456)
(1.40824 0.189246 -0.00215858)
(1.40595 0.188417 0.00242541)
(1.40433 0.189716 0.00246011)
(1.40532 0.190074 -0.00141331)
(1.39658 0.188751 -0.00166159)
(1.39413 0.186952 -0.00046087)
(1.39819 0.188494 0.00295208)
(1.39921 0.190855 0.00410036)
(1.38789 0.19009 0.00312476)
(1.39411 0.191343 0.00240053)
(1.3881 0.190981 0.00268893)
(1.38651 0.19022 0.00246104)
(1.38942 0.190826 0.00211646)
(1.37922 0.18898 0.00446677)
(1.38063 0.187999 0.00535046)
(1.3785 0.187034 0.00458393)
(1.3842 0.188886 0.00502943)
(1.38201 0.187676 0.00465541)
(1.37859 0.186712 0.00329208)
(1.37943 0.1861 0.00448447)
(1.37882 0.187257 0.00382611)
(1.38069 0.188874 0.00364385)
(1.3829 0.190485 0.00634934)
(1.38142 0.190463 0.00572781)
(1.38709 0.188962 0.00538086)
(1.38834 0.189241 0.00324028)
(1.39668 0.190748 0.0026165)
(1.39779 0.192475 0.0019684)
(1.39372 0.191647 -0.000657049)
(1.39626 0.191357 0.000458764)
(1.38929 0.190715 0.00427209)
(1.39666 0.190718 0.00649508)
(1.39438 0.188903 0.0068352)
(1.38899 0.187371 0.00490547)
(1.39534 0.187553 0.00256541)
(1.39025 0.18676 0.00271771)
(1.3976 0.188211 0.00221769)
(1.39787 0.188578 0.00222794)
(1.40205 0.191094 -3.92446e-07)
(1.40231 0.190559 0.000300786)
(1.39807 0.187998 0.00162566)
(1.39778 0.191498 0.00324319)
(1.40715 0.19548 0.00234158)
(1.40066 0.195356 -8.30446e-05)
(1.41003 0.195459 -0.000789033)
(1.40416 0.193755 -0.00130886)
(1.39786 0.192848 0.000278077)
(1.41175 0.197199 -0.000608179)
(1.3995 0.195957 -0.00420053)
(1.39915 0.193275 -0.00310779)
(1.40573 0.195188 -0.00274891)
(1.39873 0.194175 -0.00210986)
(1.41007 0.198083 5.96602e-05)
(1.39968 0.197463 0.00208708)
(1.3941 0.194827 0.00416255)
(1.40364 0.194023 0.00768712)
(1.39872 0.196085 0.0067447)
(1.40806 0.196748 0.00425522)
(1.39048 0.196275 0.00170438)
(1.39076 0.191483 0.00142033)
(1.39541 0.191266 0.00138852)
(1.38801 0.191455 -0.00084371)
(1.40086 0.193547 0.00214293)
(1.3828 0.192242 -0.000222979)
(1.38133 0.189703 0.000500144)
(1.39235 0.190942 0.000584608)
(1.38981 0.192809 -0.00061666)
(1.40421 0.196468 -0.00441805)
(1.39712 0.196109 -0.0050451)
(1.40707 0.196777 -0.00212745)
(1.40819 0.196442 0.00130537)
(1.40697 0.196365 0.00374084)
(1.4124 0.197996 0.00256417)
(1.39797 0.195878 0.0010031)
(1.39929 0.195066 -0.00131049)
(1.40154 0.193862 0.00131315)
(1.39982 0.193971 0.000283435)
(1.40267 0.194471 -0.00102584)
(1.39192 0.194496 -0.000581404)
(1.40064 0.194357 0.000666971)
(1.39951 0.192911 0.00388457)
(1.38502 0.193115 0.00125405)
(1.39773 0.195695 0.00316596)
(1.40416 0.198225 0.00307549)
(1.3854 0.19567 -0.00175123)
(1.40755 0.195681 -0.0018773)
(1.38759 0.19234 2.43586e-06)
(1.3963 0.194203 0.00136373)
(1.4032 0.199764 0.00125726)
(1.38145 0.195523 -0.00217728)
(1.3927 0.195792 -0.00264052)
(1.38311 0.195892 -0.0008396)
(1.391 0.197417 0.0015749)
(1.40385 0.201203 0.00463273)
(1.37935 0.196207 0.00259331)
(1.38768 0.193072 0.00198119)
(1.38587 0.193571 0.00441315)
(1.39017 0.196257 0.000692708)
(1.40171 0.20046 0.000809938)
(1.37372 0.195857 -0.00244686)
(1.38681 0.195049 -0.00328678)
(1.37631 0.194998 -0.00268821)
(1.38636 0.19615 -0.000199849)
(1.39791 0.199903 -0.000658146)
(1.36973 0.195786 -0.00168109)
(1.38723 0.19509 -0.00312906)
(1.37255 0.194804 -0.000697096)
(1.38806 0.196368 0.00086553)
(1.39241 0.198752 -0.00314667)
(1.37771 0.195235 -0.00273102)
(1.39516 0.195036 -0.00357539)
(1.38948 0.193939 -0.00171083)
(1.40129 0.194398 -0.00102391)
(1.40794 0.196848 -0.000603839)
(1.39046 0.195205 -0.0039472)
(1.39767 0.193661 -0.0016948)
(1.39609 0.193866 0.0017642)
(1.39995 0.195272 0.00207464)
(1.40697 0.197942 0.00299336)
(1.38993 0.196736 0.000817093)
(1.40087 0.195027 -0.000449864)
(1.40865 0.202944 -0.00226903)
(1.39087 0.197595 0.000120596)
(1.41733 0.201412 0.00163211)
(1.40274 0.202911 -0.00091408)
(1.40161 0.201472 -0.00221383)
(1.41807 0.201721 -0.0014356)
(1.39257 0.19771 -0.0015884)
(1.41835 0.204245 -0.000629096)
(1.40746 0.20423 -0.00208498)
(1.40264 0.203798 -0.00316943)
(1.408 0.204422 0.000669237)
(1.39059 0.199932 0.00127499)
(1.41208 0.203693 0.00226912)
(1.40176 0.203941 0.00148829)
(1.38543 0.198971 -0.00347226)
(1.39961 0.199211 0.00151996)
(1.38324 0.197544 0.0020686)
(1.41048 0.202718 0.00344365)
(1.40104 0.204114 0.0027519)
(1.38369 0.202068 0.000597319)
(1.399 0.203094 0.00170145)
(1.37648 0.199665 -0.000410871)
(1.41157 0.205179 -0.00103094)
(1.40357 0.204807 -0.00272156)
(1.38733 0.202282 -0.00433016)
(1.39962 0.203065 -0.00380526)
(1.38135 0.19991 0.000892846)
(1.40418 0.205213 0.00338652)
(1.39359 0.204053 0.00248654)
(1.38787 0.202438 -0.000460933)
(1.39617 0.202541 -0.000349505)
(1.38395 0.199881 -0.00101956)
(1.40825 0.204131 -0.00140571)
(1.40104 0.205946 -0.0052318)
(1.39746 0.204723 -0.00640161)
(1.39829 0.203999 -0.00442146)
(1.39278 0.201141 -0.0029015)
(1.4112 0.205383 -0.00118722)
(1.40464 0.206649 -0.00212508)
(1.39953 0.204428 -0.0036797)
(1.38874 0.202882 -0.000741357)
(1.37748 0.199255 -0.00157381)
(1.3764 0.19898 -0.00203098)
(1.39801 0.2053 -0.00274477)
(1.37794 0.202753 0.000507986)
(1.40256 0.203792 0.000697212)
(1.39028 0.20178 -6.82614e-05)
(1.3871 0.20197 -0.000608906)
(1.40955 0.205977 -0.00334921)
(1.39409 0.207021 -0.00295274)
(1.40871 0.208836 0.00107822)
(1.39687 0.204161 0.0023692)
(1.3901 0.203809 0.000629728)
(1.41249 0.207522 0.00172467)
(1.3892 0.20339 -0.00389703)
(1.39684 0.202784 -0.00419515)
(1.39072 0.200241 -0.000545548)
(1.39514 0.200073 0.00175766)
(1.42152 0.206391 0.00236793)
(1.39344 0.203541 0.0024479)
(1.40367 0.204141 0.00472685)
(1.38926 0.202451 0.0024273)
(1.37859 0.201887 -0.00301536)
(1.40637 0.206985 -0.00516383)
(1.38635 0.205085 -0.00536801)
(1.38601 0.205165 -0.00630187)
(1.37316 0.201325 -0.00509695)
(1.37194 0.199581 -0.00327511)
(1.39277 0.20311 -0.00219156)
(1.38283 0.202656 -0.00268041)
(1.39543 0.202388 -0.000740491)
(1.39791 0.201273 -0.00145262)
(1.39587 0.2021 -0.00186198)
(1.40831 0.206362 -0.00304071)
(1.4006 0.205574 -0.00353803)
(1.4006 0.205737 -0.00403167)
(1.39123 0.201558 -0.00356275)
(1.39034 0.201505 -0.00123076)
(1.39462 0.205835 0.00171077)
(1.37978 0.202852 0.00151133)
(1.40917 0.204135 -0.000540285)
(1.40839 0.204092 -0.0039451)
(1.39187 0.201769 -0.00408718)
(1.4099 0.206599 -0.00427426)
(1.40726 0.203974 -0.00271982)
(1.40497 0.201937 0.000307852)
(1.41665 0.204041 0.000887797)
(1.40316 0.202981 0.000961402)
(1.40614 0.204212 -0.000921683)
(1.41069 0.206031 -0.00124544)
(1.41488 0.208521 -0.000425012)
(1.42075 0.208017 0.00209808)
(1.40337 0.204657 0.00258958)
(1.41497 0.205652 0.0021115)
(1.41713 0.204626 -0.00219546)
(1.40541 0.204547 -0.00686643)
(1.40821 0.203003 -0.00810197)
(1.39092 0.200827 -0.00408192)
(1.4119 0.206192 -0.00279204)
(1.41359 0.207112 -0.00275791)
(1.41811 0.205943 -0.000338006)
(1.41185 0.205964 -0.000701099)
(1.39665 0.204099 -0.00230897)
(1.40396 0.207122 -0.00655174)
(1.41528 0.209313 -0.00598298)
(1.4168 0.210835 -0.00475241)
(1.40589 0.208765 -0.00618527)
(1.38623 0.205231 -0.00469503)
(1.38599 0.205324 -0.00369161)
(1.38864 0.204955 -0.00567823)
(1.3879 0.202104 -0.00533849)
(1.39618 0.201478 -0.00649188)
(1.398 0.203297 -0.00646285)
(1.4088 0.20706 -0.00626516)
(1.41814 0.208072 -0.0045861)
(1.42138 0.208665 -0.00503577)
(1.4145 0.206669 -0.00625751)
(1.41207 0.205809 -0.00505405)
(1.41424 0.208157 -0.000530478)
(1.4064 0.205382 -0.000245598)
(1.40517 0.198094 -0.00485591)
(1.41814 0.199554 -0.00651846)
(1.40267 0.199731 -0.00839165)
(1.40057 0.201268 -0.00713055)
(1.4002 0.19984 -0.006868)
(1.39998 0.197287 -0.00713947)
(1.4086 0.199748 -0.00397087)
(1.41824 0.202299 -0.00555984)
(1.41269 0.203348 -0.00768146)
(1.40035 0.201796 -0.00329296)
(1.40857 0.203978 -0.00316026)
(1.41615 0.20499 -0.00581849)
(1.41195 0.203595 -0.00744123)
(1.41142 0.204048 -0.0064151)
(1.41126 0.202056 -0.00795102)
(1.41039 0.200874 -0.00947584)
(1.41639 0.200134 -0.0127962)
(1.40521 0.199266 -0.011421)
(1.40656 0.201344 -0.00960303)
(1.39409 0.199096 -0.00944414)
(1.41368 0.200971 -0.00763623)
(1.4231 0.204787 -0.00832338)
(1.40157 0.202562 -0.00947392)
(1.39822 0.20401 -0.0122561)
(1.38681 0.20235 -0.0146238)
(1.40924 0.204173 -0.0109729)
(1.41841 0.206071 -0.0108908)
(1.41109 0.205318 -0.0118676)
(1.40965 0.205003 -0.00876619)
(1.40045 0.20375 -0.00948659)
(1.40006 0.200034 -0.00994612)
(1.39448 0.199025 -0.0128039)
(1.39068 0.200847 -0.0137717)
(1.40119 0.202531 -0.013822)
(1.3988 0.200745 -0.00849835)
(1.41514 0.200855 -0.00404507)
(1.41758 0.201414 -0.00570458)
(1.41002 0.199715 -0.00957188)
(1.42246 0.202983 -0.00497232)
(1.40331 0.199298 -0.00518127)
(1.42846 0.193379 -0.00879528)
(1.43917 0.193378 -0.0118024)
(1.43799 0.19484 -0.0130152)
(1.44325 0.198146 -0.014846)
(1.42386 0.196421 -0.01297)
(1.42103 0.193041 -0.0135065)
(1.41443 0.192901 -0.0111754)
(1.42043 0.192887 -0.00859844)
(1.43875 0.198599 -0.0144113)
(1.44052 0.199106 -0.0100474)
(1.42809 0.197745 -0.00645711)
(1.43402 0.198891 -0.00856998)
(1.43085 0.196423 -0.012733)
(1.42821 0.197251 -0.0134889)
(1.42028 0.197297 -0.0144711)
(1.41922 0.194484 -0.0141715)
(1.43273 0.194508 -0.0161569)
(1.42645 0.194143 -0.0166293)
(1.4361 0.199519 -0.0165019)
(1.41986 0.196637 -0.0158452)
(1.40826 0.192337 -0.0149776)
(1.44221 0.198658 -0.0148762)
(1.43405 0.198305 -0.0122001)
(1.43154 0.201113 -0.0147641)
(1.42413 0.199681 -0.016679)
(1.40719 0.197875 -0.0161522)
(1.41648 0.200601 -0.0168325)
(1.41858 0.20021 -0.0185936)
(1.41894 0.200442 -0.0202015)
(1.42394 0.199781 -0.0172713)
(1.41752 0.197135 -0.0165088)
(1.42345 0.196744 -0.019459)
(1.4132 0.196281 -0.0205822)
(1.41607 0.19703 -0.0226092)
(1.41155 0.19681 -0.0182394)
(1.42369 0.197279 -0.0116971)
(1.43515 0.197922 -0.00845631)
(1.4312 0.195548 -0.0106523)
(1.44413 0.198148 -0.0101087)
(1.4403 0.196955 -0.00845402)
(1.44222 0.18355 -0.015817)
(1.44328 0.182137 -0.0200704)
(1.43391 0.181653 -0.0209178)
(1.45146 0.184258 -0.0227417)
(1.4487 0.18526 -0.0219998)
(1.44546 0.181337 -0.0208227)
(1.444 0.183703 -0.0220005)
(1.42426 0.182205 -0.017747)
(1.429 0.184781 -0.0218866)
(1.44262 0.187238 -0.0209186)
(1.45464 0.187526 -0.0166334)
(1.45471 0.186968 -0.0162618)
(1.45222 0.185423 -0.0175807)
(1.44639 0.184428 -0.0194558)
(1.44301 0.184203 -0.0228696)
(1.43031 0.182356 -0.0240734)
(1.4471 0.182877 -0.0240721)
(1.43469 0.182482 -0.0250554)
(1.44167 0.185643 -0.0263739)
(1.44964 0.185966 -0.0245208)
(1.41883 0.177754 -0.0224275)
(1.41915 0.18147 -0.0250572)
(1.44746 0.185903 -0.0197647)
(1.44108 0.188296 -0.0198154)
(1.45053 0.188463 -0.0205555)
(1.45348 0.188764 -0.0173022)
(1.43119 0.187575 -0.0200529)
(1.44013 0.189063 -0.0190239)
(1.4318 0.188505 -0.0239061)
(1.4322 0.187491 -0.0255666)
(1.43911 0.18672 -0.0237127)
(1.44078 0.186482 -0.0268061)
(1.43572 0.187964 -0.0263457)
(1.42859 0.186116 -0.0281598)
(1.4224 0.182886 -0.0265595)
(1.42889 0.181712 -0.022357)
(1.44308 0.184095 -0.0178653)
(1.43612 0.182061 -0.0163881)
(1.44374 0.184715 -0.0174938)
(1.44875 0.18599 -0.0178064)
(1.47566 0.170197 -0.0215506)
(1.48641 0.170285 -0.0244579)
(1.47334 0.168434 -0.0273299)
(1.4704 0.170325 -0.0307502)
(1.47911 0.170307 -0.0292575)
(1.47339 0.165236 -0.0263624)
(1.4879 0.168349 -0.0280544)
(1.47123 0.167889 -0.028025)
(1.46454 0.169686 -0.0307787)
(1.46541 0.170268 -0.0292195)
(1.4637 0.169612 -0.0244028)
(1.47615 0.169902 -0.0223549)
(1.47236 0.169847 -0.0240346)
(1.47784 0.171052 -0.0228591)
(1.48809 0.17245 -0.0237583)
(1.46009 0.168867 -0.0248307)
(1.47106 0.168508 -0.0277684)
(1.4686 0.168125 -0.0290582)
(1.46536 0.169515 -0.0322545)
(1.47927 0.173341 -0.0305855)
(1.47395 0.169985 -0.0247512)
(1.44389 0.168137 -0.0295238)
(1.45199 0.168836 -0.0304106)
(1.46828 0.173563 -0.0292135)
(1.4674 0.173971 -0.0295883)
(1.47994 0.176497 -0.022991)
(1.47435 0.175946 -0.0242133)
(1.4571 0.173269 -0.0242324)
(1.47034 0.176183 -0.0256604)
(1.45291 0.174784 -0.0279023)
(1.45744 0.173571 -0.0261083)
(1.45813 0.173641 -0.0315485)
(1.4504 0.174369 -0.0328871)
(1.46029 0.174763 -0.0318206)
(1.46311 0.17216 -0.030472)
(1.45213 0.168364 -0.0270462)
(1.47248 0.170157 -0.0274404)
(1.46701 0.167117 -0.0256031)
(1.46809 0.169688 -0.0246547)
(1.48716 0.172657 -0.02522)
(1.49127 0.150992 -0.027147)
(1.49184 0.149821 -0.0291875)
(1.50843 0.149916 -0.0287452)
(1.49906 0.151389 -0.0304305)
(1.5096 0.15228 -0.0304234)
(1.49131 0.148112 -0.0269448)
(1.48976 0.149897 -0.0315055)
(1.4991 0.149982 -0.0320117)
(1.49492 0.151084 -0.0372906)
(1.50644 0.152586 -0.0347852)
(1.48251 0.150254 -0.031842)
(1.48838 0.149425 -0.0306362)
(1.50154 0.148919 -0.0284937)
(1.48441 0.150185 -0.026209)
(1.51805 0.156288 -0.0268517)
(1.49901 0.15383 -0.0263109)
(1.48932 0.149214 -0.029907)
(1.50082 0.149491 -0.0319391)
(1.49721 0.149666 -0.0319119)
(1.49946 0.151049 -0.0358018)
(1.50981 0.150815 -0.0287218)
(1.49955 0.151481 -0.0290625)
(1.48182 0.148639 -0.0317905)
(1.48353 0.152474 -0.035778)
(1.48702 0.153549 -0.0362477)
(1.49078 0.156318 -0.0305641)
(1.51621 0.15815 -0.0271593)
(1.49077 0.156422 -0.0274046)
(1.49781 0.159258 -0.0306691)
(1.49756 0.158138 -0.0307307)
(1.48118 0.155454 -0.0275478)
(1.48379 0.155359 -0.0331694)
(1.48275 0.153886 -0.0362893)
(1.47914 0.151589 -0.0357344)
(1.5011 0.152198 -0.0329973)
(1.47931 0.148852 -0.0302594)
(1.47782 0.148009 -0.0302413)
(1.49294 0.147482 -0.0293392)
(1.47532 0.147987 -0.0298586)
(1.49198 0.151903 -0.0315342)
(1.53306 0.130852 -0.0290128)
(1.52731 0.12954 -0.0305541)
(1.5353 0.128876 -0.0322782)
(1.53948 0.130862 -0.0311004)
(1.56018 0.131064 -0.0305005)
(1.5589 0.130382 -0.0253582)
(1.54185 0.131507 -0.0291691)
(1.54099 0.130249 -0.0312606)
(1.5251 0.128069 -0.0363727)
(1.54566 0.13016 -0.0340276)
(1.54626 0.13089 -0.0299454)
(1.52349 0.128065 -0.0302959)
(1.55118 0.128566 -0.0289111)
(1.52821 0.128477 -0.026042)
(1.54998 0.133233 -0.0278237)
(1.57108 0.13582 -0.0272483)
(1.54791 0.130879 -0.0290753)
(1.54097 0.130628 -0.0347437)
(1.53747 0.13197 -0.0323486)
(1.53585 0.131263 -0.0341094)
(1.54396 0.128757 -0.0312648)
(1.55258 0.131298 -0.0291371)
(1.5468 0.128661 -0.0275086)
(1.53307 0.131475 -0.0345706)
(1.53408 0.131538 -0.0375119)
(1.53138 0.132643 -0.0338341)
(1.55485 0.135917 -0.0299279)
(1.55502 0.138478 -0.0263284)
(1.54068 0.139417 -0.0301761)
(1.55292 0.137223 -0.0319607)
(1.54747 0.134186 -0.0271841)
(1.53607 0.133557 -0.0293988)
(1.55058 0.134 -0.0328479)
(1.5251 0.128875 -0.0347097)
(1.54243 0.128668 -0.0310029)
(1.55429 0.1284 -0.0278596)
(1.53024 0.127252 -0.0298588)
(1.53984 0.128109 -0.0285686)
(1.52658 0.128791 -0.029782)
(1.51669 0.130084 -0.0350359)
(1.56173 0.104099 -0.0278225)
(1.56237 0.103989 -0.0260297)
(1.56488 0.105568 -0.0296287)
(1.54782 0.106143 -0.0324211)
(1.55363 0.105535 -0.0325359)
(1.58854 0.106433 -0.0287831)
(1.57944 0.108793 -0.0285254)
(1.58761 0.108729 -0.029569)
(1.56635 0.105627 -0.0323574)
(1.56333 0.103563 -0.0295645)
(1.59583 0.105035 -0.0234284)
(1.57166 0.102804 -0.0218664)
(1.59274 0.104354 -0.0230548)
(1.57624 0.105516 -0.0216689)