/*--------------------------------*- C++ -*----------------------------------*\
  =========                 |
  \\      /  F ield         | OpenFOAM: The Open Source CFD Toolbox
   \\    /   O peration     | Website:  https://openfoam.org
    \\  /    A nd           | Version:  10
     \\/     M anipulation  |
\*---------------------------------------------------------------------------*/
FoamFile
{
    format      ascii;
    class       volScalarField;
    location    "17";
    object      nut;
}
// * * * * * * * * * * * * * * * * * * * * * * * * * * * * * * * * * * * * * //

dimensions      [0 2 -1 0 0 0 0];

internalField   nonuniform List<scalar> 
25600
(
4.09847e-05
4.18201e-05
4.17716e-05
4.03733e-05
4.03787e-05
4.02763e-05
4.18599e-05
4.13284e-05
4.08596e-05
4.02153e-05
4.09289e-05
4.21554e-05
4.22449e-05
4.11145e-05
4.07987e-05
4.02041e-05
4.16355e-05
4.09416e-05
4.04226e-05
4.05843e-05
4.04784e-05
4.178e-05
4.10283e-05
4.01627e-05
3.97603e-05
4.02155e-05
4.13244e-05
4.14303e-05
4.01436e-05
4.032e-05
4.03132e-05
4.16009e-05
4.11401e-05
4.02236e-05
4.00324e-05
4.03259e-05
4.18848e-05
4.13972e-05
4.1102e-05
4.02661e-05
4.23774e-05
4.33226e-05
4.36228e-05
4.21952e-05
4.19862e-05
4.16147e-05
4.33403e-05
4.31113e-05
4.26478e-05
4.18087e-05
4.23125e-05
4.36785e-05
4.41024e-05
4.29396e-05
4.24877e-05
4.16079e-05
4.31488e-05
4.27489e-05
4.21299e-05
4.21589e-05
4.18549e-05
4.33218e-05
4.28783e-05
4.19251e-05
4.12872e-05
4.15511e-05
4.28015e-05
4.3281e-05
4.19179e-05
4.18822e-05
4.16587e-05
4.31091e-05
4.30278e-05
4.20466e-05
4.15982e-05
4.16172e-05
4.33524e-05
4.32148e-05
4.29903e-05
4.19153e-05
4.32466e-05
4.43113e-05
4.51886e-05
4.37613e-05
4.32402e-05
4.24375e-05
4.42894e-05
4.45581e-05
4.41292e-05
4.30417e-05
4.31448e-05
4.46403e-05
4.56172e-05
4.44838e-05
4.38843e-05
4.25505e-05
4.41545e-05
4.42607e-05
4.34821e-05
4.33411e-05
4.27216e-05
4.43485e-05
4.44351e-05
4.34112e-05
4.24624e-05
4.23725e-05
4.37329e-05
4.48102e-05
4.34033e-05
4.30655e-05
4.2506e-05
4.41115e-05
4.46191e-05
4.35878e-05
4.2817e-05
4.23802e-05
4.43017e-05
4.46932e-05
4.45848e-05
4.32156e-05
4.37499e-05
4.48772e-05
4.65551e-05
4.52348e-05
4.43325e-05
4.29068e-05
4.48092e-05
4.57603e-05
4.54529e-05
4.40989e-05
4.35888e-05
4.51392e-05
4.68775e-05
4.58839e-05
4.516e-05
4.31997e-05
4.47567e-05
4.5594e-05
4.46534e-05
4.42973e-05
4.32225e-05
4.49461e-05
4.57882e-05
4.47909e-05
4.34768e-05
4.28506e-05
4.42256e-05
4.61179e-05
4.47685e-05
4.40607e-05
4.30133e-05
4.47043e-05
4.60107e-05
4.50183e-05
4.38885e-05
4.2782e-05
4.48284e-05
4.59271e-05
4.60379e-05
4.43538e-05
4.38597e-05
4.48492e-05
4.7502e-05
4.65371e-05
4.52698e-05
4.30097e-05
4.47474e-05
4.65238e-05
4.65245e-05
4.49691e-05
4.36234e-05
4.50089e-05
4.76675e-05
4.70179e-05
4.62778e-05
4.35529e-05
4.48009e-05
4.65856e-05
4.55996e-05
4.50022e-05
4.33155e-05
4.49417e-05
4.67317e-05
4.59994e-05
4.43363e-05
4.2982e-05
4.41329e-05
4.70037e-05
4.59513e-05
4.4866e-05
4.31579e-05
4.47207e-05
4.70049e-05
4.62678e-05
4.48287e-05
4.28212e-05
4.47701e-05
4.67132e-05
4.72427e-05
4.53247e-05
4.36318e-05
4.40826e-05
4.77418e-05
4.75425e-05
4.60923e-05
4.28129e-05
4.39769e-05
4.66184e-05
4.72186e-05
4.56581e-05
4.33134e-05
4.41166e-05
4.77249e-05
4.77171e-05
4.72007e-05
4.36782e-05
4.41581e-05
4.70172e-05
4.62739e-05
4.54731e-05
4.3029e-05
4.4189e-05
4.69976e-05
4.69309e-05
4.50689e-05
4.28396e-05
4.33501e-05
4.72083e-05
4.68598e-05
4.55074e-05
4.29933e-05
4.40131e-05
4.73469e-05
4.72279e-05
4.56801e-05
4.25854e-05
4.39947e-05
4.67991e-05
4.80491e-05
4.61497e-05
4.32057e-05
4.25131e-05
4.69214e-05
4.79752e-05
4.67991e-05
4.24642e-05
4.2435e-05
4.57781e-05
4.7299e-05
4.61364e-05
4.28015e-05
4.2414e-05
4.67504e-05
4.76928e-05
4.78137e-05
4.36947e-05
4.27709e-05
4.65998e-05
4.65355e-05
4.57302e-05
4.24662e-05
4.26141e-05
4.62591e-05
4.73424e-05
4.56528e-05
4.2553e-05
4.18645e-05
4.64176e-05
4.72761e-05
4.59865e-05
4.26478e-05
4.25059e-05
4.67141e-05
4.76551e-05
4.64379e-05
4.22472e-05
4.24605e-05
4.58954e-05
4.81739e-05
4.67982e-05
4.27895e-05
4.0263e-05
4.47502e-05
4.73349e-05
4.72194e-05
4.21772e-05
4.0222e-05
4.37801e-05
4.63618e-05
4.62378e-05
4.2286e-05
4.00328e-05
4.45209e-05
4.65139e-05
4.78156e-05
4.37464e-05
4.07294e-05
4.50554e-05
4.60579e-05
4.57127e-05
4.18208e-05
4.03033e-05
4.4241e-05
4.67854e-05
4.59403e-05
4.22909e-05
3.98299e-05
4.43808e-05
4.67721e-05
4.61865e-05
4.23068e-05
4.03035e-05
4.48184e-05
4.7101e-05
4.69226e-05
4.20477e-05
4.03161e-05
4.37976e-05
4.71511e-05
4.70623e-05
4.25343e-05
3.77062e-05
4.1218e-05
4.49935e-05
4.67761e-05
4.21092e-05
3.76666e-05
4.06275e-05
4.39162e-05
4.54414e-05
4.19237e-05
3.73311e-05
4.10731e-05
4.37423e-05
4.65649e-05
4.38506e-05
3.83169e-05
4.22739e-05
4.43482e-05
4.50688e-05
4.12944e-05
3.75594e-05
4.09133e-05
4.46845e-05
4.54449e-05
4.2171e-05
3.7554e-05
4.11217e-05
4.47678e-05
4.56434e-05
4.21269e-05
3.77534e-05
4.16057e-05
4.49919e-05
4.65471e-05
4.21508e-05
3.79338e-05
4.05892e-05
4.44533e-05
4.63463e-05
4.21303e-05
3.54279e-05
3.67435e-05
4.06712e-05
4.43746e-05
4.20083e-05
3.52853e-05
3.66664e-05
3.97996e-05
4.28107e-05
4.14646e-05
3.48408e-05
3.67833e-05
3.9357e-05
4.31294e-05
4.34735e-05
3.60383e-05
3.84162e-05
4.10735e-05
4.29819e-05
4.07969e-05
3.49131e-05
3.65966e-05
4.0757e-05
4.31936e-05
4.18934e-05
3.54809e-05
3.70031e-05
4.09633e-05
4.33831e-05
4.19109e-05
3.5384e-05
3.74084e-05
4.1036e-05
4.42598e-05
4.22016e-05
3.58647e-05
3.67283e-05
3.9976e-05
4.36199e-05
4.02463e-05
3.39121e-05
3.1965e-05
3.49894e-05
3.90245e-05
4.0607e-05
3.35803e-05
3.23539e-05
3.46063e-05
3.76163e-05
3.96858e-05
3.30553e-05
3.214e-05
3.4057e-05
3.70143e-05
4.1129e-05
3.43361e-05
3.3809e-05
3.64571e-05
3.85904e-05
3.93335e-05
3.30115e-05
3.18033e-05
3.54535e-05
3.83752e-05
4.01437e-05
3.41161e-05
3.238e-05
3.58241e-05
3.8458e-05
4.04538e-05
3.37247e-05
3.27368e-05
3.57e-05
3.91941e-05
4.07632e-05
3.45133e-05
3.26913e-05
3.44754e-05
3.81179e-05
3.51003e-05
3.2372e-05
2.76309e-05
2.88292e-05
3.12452e-05
3.59882e-05
3.19893e-05
2.82078e-05
2.89904e-05
3.05599e-05
3.48707e-05
3.14041e-05
2.77067e-05
2.84369e-05
2.92958e-05
3.52029e-05
3.2386e-05
2.89961e-05
3.08255e-05
3.20702e-05
3.5165e-05
3.14541e-05
2.73767e-05
2.93734e-05
3.1583e-05
3.51351e-05
3.28256e-05
2.7797e-05
2.98834e-05
3.12916e-05
3.57906e-05
3.2331e-05
2.81751e-05
2.96058e-05
3.18743e-05
3.59703e-05
3.29627e-05
2.89666e-05
2.861e-05
3.06183e-05
2.67081e-05
2.84313e-05
2.40947e-05
2.24887e-05
2.29423e-05
2.78406e-05
2.82873e-05
2.45114e-05
2.29747e-05
2.32943e-05
2.696e-05
2.77887e-05
2.37052e-05
2.26e-05
2.17353e-05
2.61652e-05
2.79037e-05
2.44472e-05
2.42118e-05
2.44982e-05
2.78271e-05
2.79533e-05
2.39865e-05
2.27313e-05
2.4285e-05
2.69835e-05
2.89811e-05
2.4144e-05
2.30668e-05
2.35635e-05
2.74734e-05
2.88021e-05
2.42111e-05
2.28959e-05
2.37935e-05
2.77881e-05
2.87131e-05
2.56101e-05
2.24743e-05
2.28629e-05
1.75033e-05
2.12636e-05
1.91847e-05
1.70297e-05
1.49269e-05
1.84979e-05
2.14434e-05
1.94894e-05
1.73361e-05
1.60646e-05
1.81167e-05
2.13546e-05
1.83721e-05
1.72516e-05
1.44718e-05
1.68386e-05
2.04633e-05
1.86422e-05
1.76639e-05
1.62828e-05
1.91036e-05
2.13337e-05
1.95057e-05
1.66831e-05
1.66144e-05
1.8322e-05
2.15067e-05
1.94951e-05
1.6685e-05
1.57944e-05
1.78897e-05
2.15827e-05
1.91204e-05
1.66956e-05
1.54564e-05
1.85197e-05
2.10025e-05
2.02786e-05
1.72479e-05
1.53054e-05
9.65598e-06
1.30661e-05
1.16517e-05
1.22089e-05
7.92941e-06
1.03981e-05
1.34336e-05
1.20043e-05
1.20321e-05
9.25918e-06
1.02056e-05
1.36549e-05
1.09549e-05
1.18895e-05
8.13793e-06
9.24372e-06
1.26343e-05
1.07351e-05
1.18784e-05
8.55494e-06
1.10131e-05
1.34882e-05
1.23224e-05
1.13658e-05
9.16383e-06
1.09806e-05
1.31457e-05
1.19809e-05
1.15285e-05
8.53367e-06
9.84737e-06
1.27368e-05
1.15246e-05
1.13672e-05
7.93787e-06
1.03494e-05
1.24193e-05
1.20743e-05
1.24575e-05
8.74334e-06
4.14559e-06
6.3834e-06
4.75793e-06
7.23525e-06
3.91522e-06
4.62736e-06
6.75672e-06
5.00252e-06
6.76848e-06
4.48336e-06
4.38442e-06
6.67938e-06
4.39407e-06
6.50614e-06
4.20465e-06
4.01023e-06
6.47508e-06
4.01123e-06
6.7827e-06
4.01442e-06
4.93892e-06
6.89191e-06
5.35483e-06
6.23435e-06
4.13786e-06
5.36723e-06
6.76336e-06
4.84285e-06
6.74123e-06
3.78276e-06
4.51071e-06
5.6987e-06
4.46414e-06
6.44656e-06
3.51477e-06
4.58871e-06
5.8846e-06
4.67505e-06
7.33915e-06
4.58562e-06
1.34844e-06
2.59298e-06
1.42502e-06
3.64078e-06
2.47494e-06
1.62417e-06
2.78145e-06
1.4049e-06
3.15435e-06
2.13948e-06
1.52044e-06
2.4601e-06
1.15075e-06
2.95637e-06
2.31839e-06
1.48951e-06
2.81798e-06
1.21186e-06
3.36305e-06
2.45566e-06
1.86104e-06
2.93297e-06
1.63605e-06
2.76721e-06
1.96389e-06
2.25686e-06
3.15794e-06
1.37958e-06
3.30645e-06
1.85563e-06
1.92905e-06
2.24234e-06
1.14251e-06
3.11167e-06
1.9387e-06
1.78183e-06
2.50336e-06
1.27497e-06
3.64192e-06
2.44972e-06
4.99987e-07
1.26657e-06
9.99027e-07
1.83169e-06
1.48848e-06
6.90532e-07
1.26815e-06
9.16091e-07
1.52182e-06
1.06916e-06
8.04706e-07
1.21375e-06
8.9738e-07
1.42691e-06
1.25181e-06
7.62527e-07
1.41148e-06
1.03202e-06
1.66984e-06
1.41492e-06
1.01216e-06
1.4183e-06
9.9683e-07
1.28666e-06
9.38211e-07
1.15734e-06
1.67939e-06
1.03964e-06
1.65964e-06
9.71857e-07
1.03694e-06
1.25678e-06
1.04064e-06
1.54856e-06
1.032e-06
8.8191e-07
1.27944e-06
1.09417e-06
1.84283e-06
1.25076e-06
4.56715e-07
8.54891e-07
9.6874e-07
1.08547e-06
8.58575e-07
5.44396e-07
8.44456e-07
9.05844e-07
9.62579e-07
5.93929e-07
6.89536e-07
9.13847e-07
9.08101e-07
9.20897e-07
6.9577e-07
6.21007e-07
9.34345e-07
9.65722e-07
1.009e-06
7.97191e-07
7.82403e-07
9.41582e-07
9.69045e-07
8.41641e-07
5.32609e-07
8.00412e-07
1.1179e-06
1.02536e-06
1.05419e-06
5.42547e-07
7.41041e-07
9.15074e-07
1.00723e-06
9.75451e-07
5.62743e-07
6.72618e-07
8.36912e-07
1.06411e-06
1.13528e-06
6.73637e-07
5.81322e-07
7.14889e-07
9.24375e-07
8.37259e-07
6.53749e-07
5.88792e-07
7.24426e-07
8.7359e-07
8.18956e-07
5.31547e-07
7.08286e-07
7.97408e-07
8.61674e-07
8.02446e-07
5.55662e-07
6.55466e-07
7.61655e-07
9.02702e-07
8.18305e-07
6.14048e-07
7.24329e-07
7.62282e-07
9.25571e-07
7.50234e-07
5.42706e-07
7.2089e-07
8.90182e-07
9.6679e-07
8.64462e-07
4.87591e-07
6.97972e-07
7.89643e-07
9.40706e-07
8.13233e-07
5.11491e-07
7.01972e-07
6.98787e-07
1.00288e-06
8.99634e-07
5.62526e-07
7.26384e-07
7.14206e-07
9.12307e-07
7.97811e-07
6.49398e-07
6.90864e-07
7.30905e-07
8.76209e-07
8.15718e-07
6.09498e-07
7.83096e-07
7.94166e-07
8.55122e-07
8.20821e-07
5.9069e-07
7.48525e-07
7.48548e-07
8.82402e-07
8.04595e-07
6.24416e-07
7.69111e-07
7.32516e-07
9.15743e-07
7.70733e-07
6.25396e-07
7.70663e-07
8.29691e-07
9.37779e-07
8.36129e-07
5.69316e-07
7.66185e-07
7.85791e-07
9.20018e-07
8.04881e-07
5.90878e-07
8.03443e-07
7.02188e-07
9.80123e-07
8.53103e-07
6.18329e-07
8.60628e-07
7.86965e-07
9.3146e-07
8.57806e-07
7.26379e-07
8.06552e-07
8.04562e-07
9.10973e-07
8.75257e-07
7.25132e-07
8.75248e-07
8.57037e-07
8.89884e-07
8.99835e-07
6.86431e-07
8.54896e-07
8.15784e-07
8.99085e-07
8.71789e-07
7.10701e-07
8.59358e-07
7.906e-07
9.4024e-07
8.47272e-07
7.27805e-07
8.66577e-07
8.6034e-07
9.47501e-07
8.89482e-07
6.8959e-07
8.66508e-07
8.46534e-07
9.38442e-07
8.70854e-07
7.02946e-07
9.15374e-07
7.72342e-07
9.90878e-07
9.02967e-07
7.15657e-07
9.79805e-07
9.03397e-07
9.7882e-07
9.66374e-07
8.42004e-07
9.21946e-07
9.16323e-07
9.74761e-07
9.69071e-07
8.56665e-07
9.72616e-07
9.57886e-07
9.55527e-07
1.00839e-06
8.11661e-07
9.59629e-07
9.27826e-07
9.49737e-07
9.79256e-07
8.31705e-07
9.60522e-07
8.98214e-07
9.93263e-07
9.58379e-07
8.46404e-07
9.72958e-07
9.47114e-07
9.91925e-07
9.88642e-07
8.27153e-07
9.70985e-07
9.48275e-07
9.89164e-07
9.77432e-07
8.30734e-07
1.02256e-06
8.82771e-07
1.02767e-06
1.00655e-06
8.34068e-07
1.0898e-06
1.04893e-06
1.05863e-06
1.09291e-06
9.85635e-07
1.04022e-06
1.05214e-06
1.06855e-06
1.08205e-06
1.0036e-06
1.07897e-06
1.0839e-06
1.04965e-06
1.12941e-06
9.59598e-07
1.06601e-06
1.06857e-06
1.03542e-06
1.10141e-06
9.78092e-07
1.06911e-06
1.03555e-06
1.07657e-06
1.08738e-06
9.8424e-07
1.08474e-06
1.06958e-06
1.07048e-06
1.11044e-06
9.80327e-07
1.07907e-06
1.07805e-06
1.07226e-06
1.10304e-06
9.75401e-07
1.12778e-06
1.02386e-06
1.09583e-06
1.13343e-06
9.7377e-07
1.20691e-06
1.21038e-06
1.17446e-06
1.22587e-06
1.15248e-06
1.17189e-06
1.20312e-06
1.19377e-06
1.21006e-06
1.16655e-06
1.20274e-06
1.22801e-06
1.17384e-06
1.25785e-06
1.12999e-06
1.18595e-06
1.22542e-06
1.15743e-06
1.23124e-06
1.14685e-06
1.19354e-06
1.19091e-06
1.19259e-06
1.22518e-06
1.14366e-06
1.20817e-06
1.21624e-06
1.18434e-06
1.24174e-06
1.15049e-06
1.20066e-06
1.22627e-06
1.18979e-06
1.23756e-06
1.13891e-06
1.24198e-06
1.18725e-06
1.1998e-06
1.26654e-06
1.13779e-06
1.34663e-06
1.38065e-06
1.32728e-06
1.36969e-06
1.33655e-06
1.32608e-06
1.36565e-06
1.35021e-06
1.35619e-06
1.34322e-06
1.35061e-06
1.38689e-06
1.32853e-06
1.39808e-06
1.31909e-06
1.32996e-06
1.39094e-06
1.31575e-06
1.3731e-06
1.33214e-06
1.34149e-06
1.35842e-06
1.3419e-06
1.37434e-06
1.32306e-06
1.35246e-06
1.37918e-06
1.33334e-06
1.3843e-06
1.33626e-06
1.34565e-06
1.3871e-06
1.34115e-06
1.38343e-06
1.32205e-06
1.37745e-06
1.3636e-06
1.34079e-06
1.40654e-06
1.32424e-06
1.51708e-06
1.56017e-06
1.5135e-06
1.53469e-06
1.5336e-06
1.50805e-06
1.54188e-06
1.5342e-06
1.52623e-06
1.53356e-06
1.52611e-06
1.56121e-06
1.51254e-06
1.55867e-06
1.52249e-06
1.50404e-06
1.56616e-06
1.5062e-06
1.53606e-06
1.53037e-06
1.51859e-06
1.53938e-06
1.52196e-06
1.54253e-06
1.51988e-06
1.52355e-06
1.55659e-06
1.51543e-06
1.5468e-06
1.53483e-06
1.51981e-06
1.56133e-06
1.52336e-06
1.5492e-06
1.52136e-06
1.54189e-06
1.55031e-06
1.5175e-06
1.56437e-06
1.52721e-06
1.72034e-06
1.75555e-06
1.72776e-06
1.72901e-06
1.74395e-06
1.71919e-06
1.73888e-06
1.74231e-06
1.72521e-06
1.74037e-06
1.72998e-06
1.75647e-06
1.7237e-06
1.747e-06
1.73915e-06
1.70992e-06
1.75788e-06
1.7235e-06
1.7283e-06
1.74204e-06
1.72531e-06
1.73888e-06
1.73044e-06
1.73672e-06
1.73412e-06
1.72455e-06
1.75292e-06
1.72709e-06
1.73702e-06
1.74683e-06
1.72493e-06
1.75536e-06
1.7325e-06
1.74218e-06
1.73637e-06
1.73785e-06
1.75209e-06
1.72636e-06
1.75012e-06
1.74378e-06
1.95636e-06
1.97741e-06
1.96743e-06
1.95729e-06
1.97385e-06
1.95878e-06
1.96511e-06
1.97517e-06
1.95651e-06
1.96959e-06
1.96325e-06
1.9798e-06
1.96229e-06
1.96872e-06
1.974e-06
1.9479e-06
1.97659e-06
1.96562e-06
1.95549e-06
1.97379e-06
1.96131e-06
1.96592e-06
1.96625e-06
1.96206e-06
1.96949e-06
1.95722e-06
1.97551e-06
1.96584e-06
1.96121e-06
1.97773e-06
1.96058e-06
1.97775e-06
1.96761e-06
1.96736e-06
1.9722e-06
1.96654e-06
1.97731e-06
1.96479e-06
1.97049e-06
1.97751e-06
2.2406e-06
2.24848e-06
2.24821e-06
2.23646e-06
2.24733e-06
2.24273e-06
2.24061e-06
2.25108e-06
2.23691e-06
2.24461e-06
2.24327e-06
2.25101e-06
2.24396e-06
2.24162e-06
2.24906e-06
2.23386e-06
2.24526e-06
2.24813e-06
2.23431e-06
2.24651e-06
2.2427e-06
2.23907e-06
2.24632e-06
2.2364e-06
2.24752e-06
2.23755e-06
2.24635e-06
2.24804e-06
2.2368e-06
2.25198e-06
2.24225e-06
2.24866e-06
2.24782e-06
2.24307e-06
2.24933e-06
2.24451e-06
2.2493e-06
2.24756e-06
2.2437e-06
2.2516e-06
2.83201e-06
2.82423e-06
2.8299e-06
2.83196e-06
2.8335e-06
2.82617e-06
2.81946e-06
2.83438e-06
2.83444e-06
2.8344e-06
2.82803e-06
2.81895e-06
2.82551e-06
2.82426e-06
2.84608e-06
2.83071e-06
2.84599e-06
2.81337e-06
2.82446e-06
2.78872e-06
2.81705e-06
2.79629e-06
2.80997e-06
2.81925e-06
2.81192e-06
2.82325e-06
2.83088e-06
2.82463e-06
2.82592e-06
2.83883e-06
2.82269e-06
2.83e-06
2.84174e-06
2.82417e-06
2.82679e-06
2.83789e-06
2.83298e-06
2.82871e-06
2.82904e-06
2.83804e-06
3.65892e-06
3.65324e-06
3.66179e-06
3.66023e-06
3.65879e-06
3.65503e-06
3.65108e-06
3.66315e-06
3.66028e-06
3.65839e-06
3.65358e-06
3.64992e-06
3.65655e-06
3.65884e-06
3.66704e-06
3.66129e-06
3.66041e-06
3.64948e-06
3.64988e-06
3.63455e-06
3.65455e-06
3.63688e-06
3.65682e-06
3.65111e-06
3.65218e-06
3.65954e-06
3.65801e-06
3.65733e-06
3.65713e-06
3.66456e-06
3.65354e-06
3.66019e-06
3.66515e-06
3.65261e-06
3.65826e-06
3.66344e-06
3.65816e-06
3.65707e-06
3.65914e-06
3.66318e-06
4.95226e-05
4.88671e-05
5.02578e-05
4.86108e-05
4.71352e-05
4.81659e-05
4.83075e-05
4.8753e-05
4.91855e-05
4.6481e-05
4.95502e-05
4.88563e-05
5.05807e-05
4.93614e-05
4.72806e-05
4.84642e-05
4.90345e-05
4.9201e-05
4.89622e-05
4.67262e-05
4.80902e-05
4.73527e-05
4.80521e-05
4.70912e-05
4.56517e-05
4.80835e-05
4.80904e-05
4.91258e-05
4.77745e-05
4.70495e-05
4.88638e-05
4.87556e-05
4.94435e-05
4.92477e-05
4.744e-05
4.95986e-05
5.02095e-05
5.02952e-05
5.01331e-05
4.74434e-05
5.13977e-05
5.06865e-05
5.22775e-05
5.09105e-05
4.91519e-05
5.00193e-05
5.01241e-05
5.06184e-05
5.14094e-05
4.84037e-05
5.14102e-05
5.07155e-05
5.25892e-05
5.1683e-05
4.93205e-05
5.02573e-05
5.08634e-05
5.11646e-05
5.1194e-05
4.87572e-05
4.99837e-05
4.91791e-05
4.99835e-05
4.92263e-05
4.74598e-05
4.98448e-05
4.9902e-05
5.1167e-05
4.99529e-05
4.8906e-05
5.06661e-05
5.06198e-05
5.14622e-05
5.15073e-05
4.93722e-05
5.13483e-05
5.2092e-05
5.23423e-05
5.24912e-05
4.94848e-05
5.27033e-05
5.19887e-05
5.37977e-05
5.30116e-05
5.08138e-05
5.13412e-05
5.14679e-05
5.19405e-05
5.33473e-05
4.9923e-05
5.26264e-05
5.20354e-05
5.4023e-05
5.37769e-05
5.10492e-05
5.14587e-05
5.21615e-05
5.26399e-05
5.31484e-05
5.04451e-05
5.13803e-05
5.05701e-05
5.14572e-05
5.1136e-05
4.8826e-05
5.09664e-05
5.11764e-05
5.27473e-05
5.18719e-05
5.02876e-05
5.1874e-05
5.19971e-05
5.29556e-05
5.34607e-05
5.08924e-05
5.24103e-05
5.34254e-05
5.38769e-05
5.45855e-05
5.11664e-05
5.35395e-05
5.28411e-05
5.48084e-05
5.49369e-05
5.22666e-05
5.22354e-05
5.243e-05
5.27521e-05
5.50237e-05
5.11936e-05
5.32918e-05
5.28841e-05
5.48804e-05
5.56358e-05
5.262e-05
5.21869e-05
5.29895e-05
5.36484e-05
5.48526e-05
5.19103e-05
5.23738e-05
5.16074e-05
5.2511e-05
5.28949e-05
4.993e-05
5.15446e-05
5.19658e-05
5.38797e-05
5.36084e-05
5.1353e-05
5.25659e-05
5.29522e-05
5.3956e-05
5.51474e-05
5.21664e-05
5.28756e-05
5.42378e-05
5.48899e-05
5.64242e-05
5.26257e-05
5.37137e-05
5.30138e-05
5.49441e-05
5.63324e-05
5.33808e-05
5.25183e-05
5.28118e-05
5.27699e-05
5.60964e-05
5.21122e-05
5.32067e-05
5.3027e-05
5.481e-05
5.68568e-05
5.39034e-05
5.23023e-05
5.31021e-05
5.38719e-05
5.59751e-05
5.29917e-05
5.27653e-05
5.20841e-05
5.28514e-05
5.42408e-05
5.0724e-05
5.14155e-05
5.20155e-05
5.42149e-05
5.48977e-05
5.20133e-05
5.25301e-05
5.32384e-05
5.41503e-05
5.62357e-05
5.31012e-05
5.25696e-05
5.42326e-05
5.50116e-05
5.76246e-05
5.37157e-05
5.30549e-05
5.22888e-05
5.38135e-05
5.67149e-05
5.4001e-05
5.20252e-05
5.24076e-05
5.17215e-05
5.61237e-05
5.25715e-05
5.22179e-05
5.22424e-05
5.34648e-05
5.69065e-05
5.471e-05
5.17214e-05
5.22619e-05
5.29656e-05
5.60922e-05
5.35051e-05
5.2366e-05
5.17826e-05
5.21572e-05
5.47998e-05
5.11849e-05
5.04945e-05
5.10843e-05
5.33575e-05
5.53681e-05
5.22047e-05
5.15943e-05
5.25986e-05
5.32142e-05
5.62883e-05
5.35957e-05
5.14068e-05
5.3119e-05
5.3843e-05
5.76813e-05
5.42567e-05
5.14021e-05
5.04657e-05
5.10617e-05
5.54084e-05
5.38438e-05
5.05977e-05
5.09789e-05
4.93803e-05
5.452e-05
5.23538e-05
5.02335e-05
5.03265e-05
5.0564e-05
5.51003e-05
5.46551e-05
5.03963e-05
5.02606e-05
5.05975e-05
5.46393e-05
5.31667e-05
5.09885e-05
5.04623e-05
5.01082e-05
5.40054e-05
5.12048e-05
4.87762e-05
4.89875e-05
5.09048e-05
5.44545e-05
5.17971e-05
4.96552e-05
5.07641e-05
5.08471e-05
5.47125e-05
5.34164e-05
4.93991e-05
5.06571e-05
5.1015e-05
5.59155e-05
5.39324e-05
4.86549e-05
4.74189e-05
4.65677e-05
5.16542e-05
5.23769e-05
4.81449e-05
4.82871e-05
4.57024e-05
5.06581e-05
5.10026e-05
4.72774e-05
4.71553e-05
4.60775e-05
5.07634e-05
5.30372e-05
4.83121e-05
4.70292e-05
4.66091e-05
5.09953e-05
5.15172e-05
4.85056e-05
4.79088e-05
4.65366e-05
5.11481e-05
5.04009e-05
4.63973e-05
4.57104e-05
4.66447e-05
5.14268e-05
5.04561e-05
4.67621e-05
4.75254e-05
4.69238e-05
5.0854e-05
5.20449e-05
4.67013e-05
4.68079e-05
4.63919e-05
5.15989e-05
5.21778e-05
4.47701e-05
4.31749e-05
4.06618e-05
4.50078e-05
4.87357e-05
4.46646e-05
4.41934e-05
4.09444e-05
4.42154e-05
4.77214e-05
4.34871e-05
4.27746e-05
4.03955e-05
4.36551e-05
4.88494e-05
4.53777e-05
4.27222e-05
4.1213e-05
4.47847e-05
4.78497e-05
4.48946e-05
4.40309e-05
4.16084e-05
4.56967e-05
4.79189e-05
4.35953e-05
4.14995e-05
4.08285e-05
4.56975e-05
4.74597e-05
4.31527e-05
4.28728e-05
4.16493e-05
4.43507e-05
4.85604e-05
4.35215e-05
4.18643e-05
4.03413e-05
4.43668e-05
4.81185e-05
3.95264e-05
3.80459e-05
3.40963e-05
3.59899e-05
4.19913e-05
4.00185e-05
3.88524e-05
3.55372e-05
3.57367e-05
4.16295e-05
3.88167e-05
3.75394e-05
3.42152e-05
3.45919e-05
4.12532e-05
4.10677e-05
3.77957e-05
3.50114e-05
3.6419e-05
4.14172e-05
4.00398e-05
3.90362e-05
3.58016e-05
3.79002e-05
4.26664e-05
4.01755e-05
3.70012e-05
3.42275e-05
3.74716e-05
4.1834e-05
3.89051e-05
3.72451e-05
3.55065e-05
3.57415e-05
4.19703e-05
3.95936e-05
3.65374e-05
3.37554e-05
3.4907e-05
4.09325e-05
3.22568e-05
3.24688e-05
2.7731e-05
2.64099e-05
3.21221e-05
3.35212e-05
3.27568e-05
2.98724e-05
2.6781e-05
3.27033e-05
3.25404e-05
3.19585e-05
2.81941e-05
2.55085e-05
3.06963e-05
3.4237e-05
3.26762e-05
2.88324e-05
2.7322e-05
3.22675e-05
3.33107e-05
3.33979e-05
2.97105e-05
2.90701e-05
3.43375e-05
3.48452e-05
3.28875e-05
2.78485e-05
2.81349e-05
3.32588e-05
3.32525e-05
3.1479e-05
2.90866e-05
2.66306e-05
3.2274e-05
3.37218e-05
3.14478e-05
2.77378e-05
2.51932e-05
3.09154e-05
2.27794e-05
2.59895e-05
2.23407e-05
1.80851e-05
2.11503e-05
2.46108e-05
2.58999e-05
2.43998e-05
1.87419e-05
2.2687e-05
2.40364e-05
2.56791e-05
2.27679e-05
1.79523e-05
1.97792e-05
2.44873e-05
2.6551e-05
2.34868e-05
1.89446e-05
2.2148e-05
2.42873e-05
2.68795e-05
2.40854e-05
2.05813e-05
2.44732e-05
2.64431e-05
2.80592e-05
2.2713e-05
1.93863e-05
2.31528e-05
2.52565e-05
2.54854e-05
2.31361e-05
1.8519e-05
2.14411e-05
2.50783e-05
2.56671e-05
2.30523e-05
1.70719e-05
2.0407e-05
1.32787e-05
1.7863e-05
1.7373e-05
1.19243e-05
1.19659e-05
1.4957e-05
1.77315e-05
1.87793e-05
1.24343e-05
1.38531e-05
1.48611e-05
1.79079e-05
1.7264e-05
1.24622e-05
1.13289e-05
1.42506e-05
1.83257e-05
1.8299e-05
1.24395e-05
1.32468e-05
1.47731e-05
1.86485e-05
1.87899e-05
1.33284e-05
1.52827e-05
1.66229e-05
2.04596e-05
1.82071e-05
1.25756e-05
1.38892e-05
1.60144e-05
1.80495e-05
1.74832e-05
1.22943e-05
1.22052e-05
1.53999e-05
1.7837e-05
1.83982e-05
1.15313e-05
1.20481e-05
6.93169e-06
9.71761e-06
1.13148e-05
8.45343e-06
5.61229e-06
7.84651e-06
9.62245e-06
1.205e-05
8.60409e-06
7.14004e-06
7.9366e-06
1.00563e-05
1.07544e-05
8.91878e-06
5.74071e-06
7.22356e-06
9.83384e-06
1.17382e-05
8.78679e-06
6.46502e-06
7.9072e-06
1.01548e-05
1.24234e-05
8.62159e-06
7.75934e-06
9.07746e-06
1.15073e-05
1.21964e-05
8.65202e-06
6.88266e-06
8.52527e-06
1.00025e-05
1.10162e-05
8.49037e-06
5.76063e-06
8.03439e-06
9.5499e-06
1.19666e-05
8.61748e-06
6.34528e-06
3.67353e-06
4.28387e-06
5.39999e-06
5.94985e-06
2.81425e-06
3.91537e-06
4.29251e-06
5.63715e-06
5.86094e-06
3.4684e-06
3.87114e-06
4.63135e-06
4.85541e-06
5.91344e-06
3.1237e-06
3.65229e-06
4.33619e-06
5.35279e-06
6.24813e-06
3.3082e-06
4.01943e-06
4.54127e-06
6.01303e-06
5.69928e-06
3.38916e-06
4.66521e-06
5.15362e-06
5.86315e-06
5.94702e-06
3.17872e-06
4.1424e-06
4.23867e-06
4.98645e-06
5.71791e-06
2.86688e-06
3.95504e-06
4.01881e-06
5.54784e-06
6.12007e-06
3.51085e-06
1.87383e-06
1.72643e-06
1.91876e-06
3.61286e-06
2.47529e-06
1.82076e-06
1.79868e-06
1.84559e-06
3.44177e-06
2.35352e-06
1.77936e-06
1.79999e-06
1.59129e-06
3.38797e-06
2.38537e-06
1.7245e-06
1.86826e-06
1.69511e-06
3.81581e-06
2.8411e-06
1.90849e-06
1.98911e-06
2.04451e-06
3.30243e-06
2.36235e-06
2.11823e-06
2.17005e-06
2.00942e-06
3.50815e-06
2.23572e-06
1.94653e-06
1.57051e-06
1.64246e-06
3.36202e-06
2.3338e-06
1.92603e-06
1.64985e-06
1.80999e-06
3.66939e-06
2.50798e-06
1.11869e-06
6.83071e-07
8.40852e-07
1.97909e-06
1.90231e-06
1.07978e-06
7.06591e-07
5.94349e-07
1.83116e-06
1.60629e-06
1.13151e-06
7.69445e-07
7.12013e-07
1.80996e-06
1.68142e-06
1.02492e-06
7.33154e-07
6.54695e-07
2.05914e-06
2.11026e-06
1.24911e-06
7.41769e-07
6.70238e-07
1.69485e-06
1.67301e-06
1.16007e-06
8.22673e-07
7.68582e-07
1.9016e-06
1.61124e-06
1.14108e-06
5.89678e-07
8.15402e-07
1.82837e-06
1.70502e-06
1.17907e-06
7.0891e-07
6.95055e-07
2.00295e-06
1.65784e-06
9.40456e-07
5.5866e-07
7.11473e-07
1.16825e-06
1.342e-06
9.22675e-07
6.54141e-07
4.99621e-07
1.09808e-06
1.0581e-06
9.92926e-07
8.15465e-07
6.73577e-07
1.08617e-06
1.11719e-06
9.38744e-07
5.99974e-07
5.96319e-07
1.18333e-06
1.39616e-06
1.06184e-06
4.62701e-07
5.49788e-07
1.00786e-06
1.06911e-06
9.93766e-07
5.82943e-07
6.48853e-07
1.19026e-06
1.12874e-06
9.44995e-07
5.14499e-07
7.0742e-07
1.13955e-06
1.19521e-06
9.95073e-07
5.78116e-07
6.35549e-07
1.21078e-06
1.09231e-06
9.39865e-07
6.40822e-07
7.68299e-07
9.05328e-07
1.07065e-06
8.82467e-07
7.38451e-07
6.2142e-07
9.10665e-07
8.67627e-07
9.6383e-07
8.62479e-07
7.22401e-07
8.93685e-07
8.82532e-07
9.40497e-07
7.06987e-07
6.90376e-07
9.17838e-07
1.04634e-06
9.42931e-07
5.62696e-07
6.6964e-07
8.72641e-07
8.57446e-07
9.52484e-07
6.6191e-07
7.10967e-07
9.80846e-07
9.24627e-07
9.14866e-07
6.1998e-07
7.34423e-07
9.45559e-07
9.84281e-07
9.74078e-07
6.55017e-07
7.40359e-07
9.58967e-07
9.0792e-07
9.95253e-07
7.24721e-07
8.76607e-07
8.75687e-07
9.81526e-07
9.13915e-07
7.90287e-07
7.72861e-07
9.1581e-07
8.60701e-07
9.95502e-07
8.79092e-07
8.08313e-07
9.20176e-07
8.41966e-07
9.83666e-07
7.81784e-07
8.11784e-07
9.0674e-07
9.44483e-07
9.34986e-07
6.65585e-07
8.12832e-07
9.01119e-07
8.48823e-07
9.75129e-07
7.43418e-07
8.19187e-07
9.61947e-07
8.76393e-07
9.62603e-07
7.24118e-07
8.31092e-07
9.3677e-07
9.28096e-07
1.02352e-06
7.34995e-07
8.64695e-07
9.34744e-07
8.86136e-07
1.08061e-06
8.39061e-07
9.87924e-07
9.57191e-07
9.91304e-07
9.98516e-07
8.80863e-07
9.18544e-07
9.95648e-07
9.28813e-07
1.06477e-06
9.45597e-07
9.18602e-07
1.0273e-06
8.92237e-07
1.06228e-06
8.8513e-07
9.30655e-07
9.97077e-07
9.62359e-07
1.01147e-06
8.00528e-07
9.46858e-07
9.92729e-07
9.12239e-07
1.04983e-06
8.62332e-07
9.38776e-07
1.0352e-06
9.13499e-07
1.04947e-06
8.5447e-07
9.42794e-07
1.0143e-06
9.51952e-07
1.10946e-06
8.44554e-07
9.81485e-07
1.01672e-06
9.26635e-07
1.18636e-06
9.88132e-07
1.09516e-06
1.09815e-06
1.06561e-06
1.11467e-06
1.01716e-06
1.05763e-06
1.11643e-06
1.03957e-06
1.16168e-06
1.06431e-06
1.04181e-06
1.16802e-06
9.97794e-07
1.16418e-06
1.03164e-06
1.04951e-06
1.1325e-06
1.04831e-06
1.12544e-06
9.64588e-07
1.07508e-06
1.12344e-06
1.01749e-06
1.15433e-06
1.01542e-06
1.06052e-06
1.16006e-06
1.00906e-06
1.15511e-06
1.01504e-06
1.05945e-06
1.14414e-06
1.0349e-06
1.21599e-06
9.90301e-07
1.09297e-06
1.156e-06
1.01464e-06
1.30518e-06
1.16891e-06
1.21477e-06
1.26402e-06
1.18988e-06
1.24804e-06
1.18638e-06
1.2039e-06
1.26208e-06
1.18514e-06
1.28097e-06
1.22027e-06
1.18176e-06
1.32428e-06
1.14425e-06
1.2836e-06
1.20983e-06
1.181e-06
1.28721e-06
1.18328e-06
1.2569e-06
1.1497e-06
1.21189e-06
1.2767e-06
1.15892e-06
1.27785e-06
1.19341e-06
1.19417e-06
1.30958e-06
1.15166e-06
1.27478e-06
1.19959e-06
1.19129e-06
1.3002e-06
1.16706e-06
1.33567e-06
1.16959e-06
1.21382e-06
1.32017e-06
1.14678e-06
1.43903e-06
1.37658e-06
1.36292e-06
1.43868e-06
1.35738e-06
1.39851e-06
1.37853e-06
1.37061e-06
1.42494e-06
1.36241e-06
1.42445e-06
1.40386e-06
1.34636e-06
1.49004e-06
1.32679e-06
1.42189e-06
1.41012e-06
1.33946e-06
1.4508e-06
1.35766e-06
1.40733e-06
1.35257e-06
1.37108e-06
1.44413e-06
1.33512e-06
1.42159e-06
1.39025e-06
1.3523e-06
1.4711e-06
1.33467e-06
1.41369e-06
1.40153e-06
1.35041e-06
1.46646e-06
1.34109e-06
1.47063e-06
1.37407e-06
1.36039e-06
1.49216e-06
1.32133e-06
1.59803e-06
1.60035e-06
1.5473e-06
1.62172e-06
1.56291e-06
1.57456e-06
1.58749e-06
1.5655e-06
1.60528e-06
1.56821e-06
1.59697e-06
1.60876e-06
1.53973e-06
1.66678e-06
1.54255e-06
1.5866e-06
1.62411e-06
1.53229e-06
1.62609e-06
1.56662e-06
1.5842e-06
1.5694e-06
1.56032e-06
1.62659e-06
1.54379e-06
1.59147e-06
1.60162e-06
1.5427e-06
1.64501e-06
1.55119e-06
1.58102e-06
1.6148e-06
1.54374e-06
1.64383e-06
1.55022e-06
1.62922e-06
1.59577e-06
1.54211e-06
1.66981e-06
1.53504e-06
1.79315e-06
1.83339e-06
1.77117e-06
1.8229e-06
1.79872e-06
1.78389e-06
1.81208e-06
1.79238e-06
1.81097e-06
1.79916e-06
1.80258e-06
1.8328e-06
1.76565e-06
1.86274e-06
1.78647e-06
1.78581e-06
1.84923e-06
1.76266e-06
1.82285e-06
1.80277e-06
1.79413e-06
1.80017e-06
1.78282e-06
1.83081e-06
1.78107e-06
1.79433e-06
1.82757e-06
1.76866e-06
1.84037e-06
1.79375e-06
1.78489e-06
1.8394e-06
1.77234e-06
1.84191e-06
1.78852e-06
1.82218e-06
1.83055e-06
1.76287e-06
1.8629e-06
1.78121e-06
2.0306e-06
2.08019e-06
2.0326e-06
2.05456e-06
2.05881e-06
2.0317e-06
2.05781e-06
2.05023e-06
2.05017e-06
2.05486e-06
2.04492e-06
2.07936e-06
2.02564e-06
2.08844e-06
2.0546e-06
2.02588e-06
2.09038e-06
2.02975e-06
2.05335e-06
2.06177e-06
2.04089e-06
2.05116e-06
2.03872e-06
2.06503e-06
2.04432e-06
2.03517e-06
2.07313e-06
2.02949e-06
2.06842e-06
2.05845e-06
2.02909e-06
2.08188e-06
2.03425e-06
2.07179e-06
2.05184e-06
2.05502e-06
2.08114e-06
2.0226e-06
2.08476e-06
2.05145e-06
2.31246e-06
2.35263e-06
2.3278e-06
2.32567e-06
2.34307e-06
2.31947e-06
2.33442e-06
2.33854e-06
2.32721e-06
2.33821e-06
2.32616e-06
2.35556e-06
2.31964e-06
2.35212e-06
2.34607e-06
2.30904e-06
2.35738e-06
2.32885e-06
2.3252e-06
2.34608e-06
2.32661e-06
2.33107e-06
2.3282e-06
2.33543e-06
2.33538e-06
2.31679e-06
2.34585e-06
2.32419e-06
2.33624e-06
2.34634e-06
2.31516e-06
2.35268e-06
2.32755e-06
2.34152e-06
2.34123e-06
2.32976e-06
2.35623e-06
2.3187e-06
2.34694e-06
2.34388e-06
2.63812e-06
2.66232e-06
2.65613e-06
2.64181e-06
2.65934e-06
2.64654e-06
2.65013e-06
2.66047e-06
2.64634e-06
2.65607e-06
2.64777e-06
2.66824e-06
2.64889e-06
2.66053e-06
2.66703e-06
2.63614e-06
2.6629e-06
2.65914e-06
2.64275e-06
2.66293e-06
2.65136e-06
2.64795e-06
2.65319e-06
2.64892e-06
2.65795e-06
2.64082e-06
2.65627e-06
2.65236e-06
2.64928e-06
2.66471e-06
2.64201e-06
2.66238e-06
2.65373e-06
2.65484e-06
2.66251e-06
2.64823e-06
2.66629e-06
2.64968e-06
2.65576e-06
2.66424e-06
3.01519e-06
3.0281e-06
3.03022e-06
3.01195e-06
3.02342e-06
3.02382e-06
3.0217e-06
3.02955e-06
3.01588e-06
3.02247e-06
3.02179e-06
3.03497e-06
3.02663e-06
3.02459e-06
3.03116e-06
3.01294e-06
3.02241e-06
3.03314e-06
3.01603e-06
3.03052e-06
3.02565e-06
3.01619e-06
3.02752e-06
3.0139e-06
3.02916e-06
3.01585e-06