/*--------------------------------*- C++ -*----------------------------------*\
  =========                 |
  \\      /  F ield         | OpenFOAM: The Open Source CFD Toolbox
   \\    /   O peration     | Website:  https://openfoam.org
    \\  /    A nd           | Version:  10
     \\/     M anipulation  |
\*---------------------------------------------------------------------------*/
FoamFile
{
    format      ascii;
    class       volScalarField;
    location    "17";
    object      pMean;
}
// * * * * * * * * * * * * * * * * * * * * * * * * * * * * * * * * * * * * * //

dimensions      [0 2 -2 0 0 0 0];

internalField   nonuniform List<scalar> 
25600
(
-5.88727e-05
-1.68464e-05
4.44785e-05
7.43062e-05
3.65092e-05
-4.81946e-05
-3.21708e-05
3.31619e-05
6.60798e-05
1.85455e-05
-5.00921e-05
9.2682e-07
6.15809e-05
9.05893e-05
1.37238e-05
-4.84937e-05
-1.30801e-05
3.2143e-05
7.48133e-05
2.01392e-05
-6.32723e-05
-2.58587e-05
4.38529e-05
0.000102639
2.27983e-05
-7.51342e-05
-3.06601e-05
3.83038e-05
7.08643e-05
2.36701e-05
-8.15841e-05
-3.48047e-05
3.48636e-05
7.85595e-05
2.44916e-05
-5.77643e-05
-2.49588e-06
3.43649e-05
7.36709e-05
1.09366e-05
-5.77647e-05
-1.70787e-05
4.43567e-05
7.46892e-05
3.7253e-05
-4.70206e-05
-3.17972e-05
3.34935e-05
6.63007e-05
1.9545e-05
-4.9432e-05
9.25404e-07
6.12598e-05
9.12591e-05
1.46551e-05
-4.74216e-05
-1.32546e-05
3.22867e-05
7.46321e-05
2.11737e-05
-6.21468e-05
-2.53624e-05
4.35591e-05
0.000102745
2.42067e-05
-7.38014e-05
-3.07388e-05
3.82138e-05
7.19096e-05
2.51343e-05
-8.02714e-05
-3.49302e-05
3.47993e-05
7.90207e-05
2.57959e-05
-5.69183e-05
-2.56527e-06
3.44946e-05
7.42448e-05
1.19685e-05
-5.73148e-05
-1.75936e-05
4.49523e-05
7.6705e-05
3.89789e-05
-4.62073e-05
-3.202e-05
3.43897e-05
6.8171e-05
2.15053e-05
-4.97511e-05
7.81472e-07
6.18065e-05
9.29372e-05
1.65243e-05
-4.68267e-05
-1.37813e-05
3.3022e-05
7.60495e-05
2.32423e-05
-6.15884e-05
-2.54793e-05
4.4277e-05
0.000104369
2.65846e-05
-7.31359e-05
-3.09254e-05
3.913e-05
7.40307e-05
2.71406e-05
-8.00324e-05
-3.50987e-05
3.55688e-05
8.04674e-05
2.80853e-05
-5.69404e-05
-2.7186e-06
3.5306e-05
7.58744e-05
1.3937e-05
-5.62274e-05
-1.70988e-05
4.6733e-05
7.85348e-05
4.06062e-05
-4.50365e-05
-3.15298e-05
3.62792e-05
7.00479e-05
2.34453e-05
-4.96469e-05
8.28885e-07
6.34609e-05
9.63167e-05
1.90062e-05
-4.63135e-05
-1.29724e-05
3.45252e-05
7.76212e-05
2.49527e-05
-6.1077e-05
-2.41066e-05
4.62806e-05
0.000107273
2.80158e-05
-7.26073e-05
-3.0395e-05
4.04182e-05
7.69279e-05
2.92967e-05
-7.97005e-05
-3.58271e-05
3.70687e-05
8.30709e-05
3.02137e-05
-5.67598e-05
-2.35984e-06
3.7517e-05
7.88224e-05
1.62598e-05
-5.39956e-05
-1.64223e-05
4.85705e-05
8.02507e-05
4.21584e-05
-4.41043e-05
-2.81992e-05
3.90385e-05
7.17233e-05
2.5653e-05
-4.87208e-05
1.59883e-06
6.57031e-05
9.73215e-05
2.17925e-05
-4.381e-05
-1.2199e-05
3.6813e-05
7.99647e-05
2.78874e-05
-5.87553e-05
-2.31269e-05
4.92297e-05
0.000107572
3.03703e-05
-6.94089e-05
-2.85447e-05
4.19461e-05
7.62831e-05
3.02552e-05
-7.63057e-05
-3.27255e-05
3.93009e-05
8.41216e-05
3.19352e-05
-5.33272e-05
-1.9939e-06
3.9466e-05
7.87249e-05
1.82001e-05
-4.95446e-05
-1.39737e-05
4.80291e-05
7.72059e-05
4.24369e-05
-4.12497e-05
-2.75671e-05
3.72527e-05
6.9294e-05
2.76533e-05
-4.55676e-05
3.1341e-06
6.51219e-05
9.55519e-05
2.43439e-05
-4.02204e-05
-9.3719e-06
3.60358e-05
7.76325e-05
2.69499e-05
-5.49717e-05
-2.06844e-05
4.93199e-05
0.000106098
2.88826e-05
-6.70204e-05
-2.64882e-05
3.94283e-05
7.2791e-05
2.98298e-05
-7.5043e-05
-3.36214e-05
3.84393e-05
8.21421e-05
3.23185e-05
-5.19279e-05
2.16173e-06
3.82409e-05
7.67481e-05
1.88942e-05
-4.73283e-05
-1.54748e-05
3.96084e-05
7.17172e-05
4.00854e-05
-3.83153e-05
-2.4213e-05
3.12423e-05
5.87521e-05
2.87327e-05
-4.30002e-05
1.69939e-06
5.82699e-05
8.6129e-05
2.62572e-05
-3.70785e-05
-7.96686e-06
2.96274e-05
7.03978e-05
2.65152e-05
-5.40863e-05
-1.93334e-05
4.40729e-05
9.27389e-05
2.89915e-05
-6.2956e-05
-2.65251e-05
2.80303e-05
6.10397e-05
2.89636e-05
-7.18595e-05
-3.04951e-05
3.07197e-05
7.46689e-05
3.4103e-05
-5.13259e-05
-1.62551e-06
3.15056e-05
6.88177e-05
1.83568e-05
-4.12285e-05
-1.74238e-05
2.53111e-05
5.26389e-05
3.53559e-05
-3.4079e-05
-2.46969e-05
1.72558e-05
4.22007e-05
2.67391e-05
-3.72203e-05
3.98936e-07
4.48992e-05
6.74627e-05
2.47234e-05
-3.11865e-05
-8.82825e-06
1.65612e-05
5.28701e-05
2.25277e-05
-5.11031e-05
-1.78722e-05
3.0415e-05
7.14522e-05
2.29092e-05
-5.80358e-05
-3.03054e-05
1.12087e-05
4.2067e-05
2.53083e-05
-6.56872e-05
-3.31598e-05
1.8255e-05
5.99654e-05
2.92936e-05
-4.68463e-05
-3.98283e-06
1.68144e-05
5.07831e-05
1.72147e-05
-3.31654e-05
-2.0808e-05
7.12843e-06
3.23362e-05
2.54346e-05
-2.88766e-05
-2.60044e-05
1.1813e-06
2.29182e-05
2.10045e-05
-3.17082e-05
-6.00244e-06
2.60329e-05
4.84547e-05
2.05012e-05
-2.77753e-05
-1.08139e-05
1.53358e-06
3.24562e-05
1.44831e-05
-4.29032e-05
-1.79242e-05
1.2159e-05
4.57548e-05
1.43004e-05
-5.20292e-05
-3.54959e-05
-8.74318e-06
2.01665e-05
1.6881e-05
-5.78079e-05
-3.26307e-05
2.14244e-06
3.91982e-05
2.2534e-05
-4.15539e-05
-8.96011e-06
-1.39072e-06
3.05153e-05
1.23494e-05
-2.5803e-05
-1.89782e-05
-7.0262e-06
8.28835e-06
1.61321e-05
-2.32449e-05
-2.39493e-05
-1.0401e-05
1.37306e-06
1.28809e-05
-2.50277e-05
-7.64504e-06
9.72682e-06
2.37206e-05
1.2507e-05
-2.13658e-05
-1.0427e-05
-1.23883e-05
7.01748e-06
6.42426e-06
-3.48547e-05
-1.58807e-05
-2.69558e-06
1.99484e-05
3.45676e-06
-4.47029e-05
-3.68386e-05
-2.35714e-05
-3.80926e-06
8.38524e-06
-4.85757e-05
-2.97282e-05
-1.02457e-05
1.69304e-05
1.40379e-05
-3.40548e-05
-1.12787e-05
-1.65661e-05
8.54982e-06
5.61874e-06
-1.88745e-05
-1.68225e-05
-1.40109e-05
-5.77039e-06
6.38725e-06
-1.80121e-05
-1.9269e-05
-1.54681e-05
-1.23475e-05
4.80777e-06
-1.93553e-05
-8.42176e-06
3.0984e-07
7.78235e-06
4.24554e-06
-1.53834e-05
-7.77352e-06
-1.81418e-05
-7.68719e-06
-1.68701e-06
-2.60521e-05
-1.31429e-05
-1.01695e-05
1.78165e-06
-4.97e-06
-3.63802e-05
-3.28593e-05
-2.86389e-05
-1.95118e-05
-9.17228e-08
-3.86808e-05
-2.36845e-05
-1.51858e-05
6.35004e-07
5.17488e-06
-2.70541e-05
-1.04082e-05
-2.28744e-05
-6.76198e-06
-1.6402e-06
-1.35585e-05
-1.22103e-05
-1.35596e-05
-1.03946e-05
1.47836e-06
-1.23507e-05
-1.41277e-05
-1.41624e-05
-1.60922e-05
1.97277e-07
-1.35055e-05
-5.40516e-06
-1.72296e-06
-1.73561e-07
-1.59858e-07
-9.82052e-06
-4.33791e-06
-1.68661e-05
-1.27944e-05
-4.9898e-06
-1.81352e-05
-9.56952e-06
-1.09026e-05
-4.77488e-06
-8.32861e-06
-2.72655e-05
-2.61657e-05
-2.58511e-05
-2.23911e-05
-3.51057e-06
-2.86419e-05
-1.66305e-05
-1.37413e-05
-4.81612e-06
9.94508e-07
-2.06235e-05
-7.74213e-06
-2.10277e-05
-1.08906e-05
-4.77628e-06
-8.14004e-06
-7.74263e-06
-1.04356e-05
-8.73399e-06
1.53169e-06
-6.44404e-06
-8.86233e-06
-1.04614e-05
-1.35962e-05
-2.42659e-08
-7.89262e-06
-2.7608e-06
-7.89323e-07
3.76326e-07
5.42024e-07
-4.51096e-06
-1.16998e-06
-1.26937e-05
-9.81753e-06
-3.51544e-06
-1.09248e-05
-6.12137e-06
-8.72959e-06
-4.28754e-06
-6.46898e-06
-1.81326e-05
-1.87442e-05
-1.92497e-05
-1.8047e-05
-1.60506e-06
-1.86164e-05
-1.00522e-05
-9.75031e-06
-3.64885e-06
1.42359e-06
-1.41859e-05
-4.49402e-06
-1.59179e-05
-8.70278e-06
-3.435e-06
-3.53264e-06
-3.69642e-06
-6.99657e-06
-6.14344e-06
2.80779e-06
-1.61306e-06
-4.57565e-06
-6.92072e-06
-1.00149e-05
1.08977e-06
-3.26183e-06
-6.96227e-08
9.07093e-07
1.88011e-06
2.61024e-06
-1.5142e-07
1.50209e-06
-8.48049e-06
-6.54094e-06
-1.13435e-06
-5.38229e-06
-3.13755e-06
-5.97892e-06
-2.33992e-06
-3.52118e-06
-1.06246e-05
-1.23624e-05
-1.29846e-05
-1.25728e-05
1.48517e-06
-1.05216e-05
-5.03439e-06
-5.91785e-06
-1.37935e-06
3.03914e-06
-8.57963e-06
-1.53701e-06
-1.08764e-05
-5.80133e-06
-1.1292e-06
-7.81861e-07
-1.2617e-06
-4.58042e-06
-4.20254e-06
2.86377e-06
1.15171e-06
-1.78432e-06
-4.44645e-06
-7.16142e-06
1.24215e-06
-5.2795e-07
1.37512e-06
1.8506e-06
2.91109e-06
3.28951e-06
2.37013e-06
3.12532e-06
-5.23353e-06
-3.98089e-06
-3.68967e-07
-2.0783e-06
-1.2666e-06
-3.9789e-06
-1.04308e-06
-2.36123e-06
-5.83671e-06
-7.99775e-06
-8.44929e-06
-8.60271e-06
2.53391e-06
-5.37788e-06
-1.70957e-06
-3.39933e-06
-8.10762e-08
3.14235e-06
-4.85596e-06
2.34521e-07
-7.27937e-06
-3.9518e-06
-2.57202e-07
2.23936e-07
-1.65381e-07
-3.26946e-06
-3.25385e-06
2.08713e-06
2.1155e-06
-3.05242e-07
-3.09013e-06
-5.46386e-06
7.30913e-07
5.93354e-07
1.94182e-06
2.02083e-06
2.87129e-06
2.86559e-06
3.21534e-06
3.61336e-06
-3.16896e-06
-2.75936e-06
-5.51345e-07
-5.28772e-07
-3.55468e-07
-2.88113e-06
-7.52978e-07
-2.32644e-06
-3.29559e-06
-5.3137e-06
-5.68631e-06
-6.41585e-06
2.18291e-06
-2.67407e-06
-5.27302e-08
-2.2404e-06
3.01363e-08
2.26434e-06
-2.9911e-06
7.67405e-07
-5.20916e-06
-3.20704e-06
-3.88823e-07
4.48628e-07
1.30367e-07
-2.58277e-06
-2.73408e-06
1.21882e-06
2.16339e-06
3.57892e-07
-2.3403e-06
-4.35016e-06
1.60331e-07
9.09497e-07
1.90968e-06
1.74967e-06
2.38745e-06
2.2145e-06
3.26154e-06
3.44144e-06
-1.96324e-06
-2.00882e-06
-8.18771e-07
1.29269e-07
-2.57113e-09
-2.35515e-06
-8.38469e-07
-2.48829e-06
-1.98653e-06
-3.73327e-06
-4.01287e-06
-5.03942e-06
1.47958e-06
-1.40022e-06
6.64252e-07
-1.73662e-06
-2.96652e-07
1.21968e-06
-2.12144e-06
6.45973e-07
-3.98749e-06
-2.94951e-06
-7.40917e-07
3.30462e-07
8.94563e-08
-2.09031e-06
-2.39652e-06
5.46271e-07
1.8276e-06
6.09722e-07
-1.81463e-06
-3.54544e-06
-1.99145e-07
8.64844e-07
1.66942e-06
1.42616e-06
1.82769e-06
1.62084e-06
2.95741e-06
2.97724e-06
-1.1375e-06
-1.53126e-06
-9.58051e-07
3.04768e-07
1.02361e-07
-1.96017e-06
-9.95712e-07
-2.51456e-06
-1.33848e-06
-2.76567e-06
-2.85862e-06
-4.06398e-06
7.95009e-07
-8.39929e-07
8.73846e-07
-1.45035e-06
-6.9991e-07
3.52941e-07
-1.70228e-06
3.12746e-07
-3.15613e-06
-2.8244e-06
-9.84982e-07
1.53107e-07
-9.23465e-08
-1.67069e-06
-2.08558e-06
1.23337e-07
1.3942e-06
6.20412e-07
-1.37637e-06
-2.87351e-06
-3.68364e-07
7.0712e-07
1.36515e-06
1.14059e-06
1.34312e-06
1.173e-06
2.56408e-06
2.47181e-06
-5.42215e-07
-1.12145e-06
-9.38147e-07
2.98477e-07
9.92947e-08
-1.59982e-06
-1.09016e-06
-2.374e-06
-1.00905e-06
-2.15273e-06
-2.03373e-06
-3.30478e-06
3.12677e-07
-6.23045e-07
8.03847e-07
-1.24359e-06
-1.00727e-06
-2.68592e-07
-1.4876e-06
-5.38598e-08
-2.5183e-06
-2.66206e-06
-1.07752e-06
2.14401e-09
-3.34185e-07
-1.29483e-06
-1.74894e-06
-1.60411e-07
9.87749e-07
4.93621e-07
-1.00077e-06
-2.27019e-06
-4.38953e-07
5.40585e-07
1.05478e-06
9.15247e-07
1.00367e-06
8.43301e-07
2.18374e-06
1.97658e-06
-1.12672e-07
-7.60358e-07
-8.48981e-07
2.40397e-07
2.29452e-08
-1.25474e-06
-1.05548e-06
-2.15772e-06
-8.30383e-07
-1.76008e-06
-1.44059e-06
-2.66172e-06
-4.07305e-08
-5.69916e-07
5.68798e-07
-1.06071e-06
-1.15527e-06
-6.87942e-07
-1.34757e-06
-3.83822e-07
-2.00194e-06
-2.41625e-06
-1.07583e-06
-9.65972e-08
-5.54613e-07
-9.74675e-07
-1.37378e-06
-3.59431e-07
6.49239e-07
3.21822e-07
-6.9461e-07
-1.71719e-06
-4.5281e-07
4.03175e-07
7.94535e-07
7.38342e-07
7.94602e-07
6.04653e-07
1.83611e-06
1.54627e-06
1.75589e-07
-4.1555e-07
-7.28752e-07
1.81199e-07
-5.65369e-08
-9.42302e-07
-9.29581e-07
-1.92273e-06
-7.15149e-07
-1.48788e-06
-1.03507e-06
-2.10195e-06
-3.02325e-07
-5.67543e-07
2.82513e-07
-9.21729e-07
-1.1766e-06
-9.52093e-07
-1.23336e-06
-6.30918e-07
-1.59803e-06
-2.10541e-06
-1.04124e-06
-1.62198e-07
-7.06516e-07
-7.48761e-07
-1.01072e-06
-4.76475e-07
3.82511e-07
1.64708e-07
-4.85367e-07
-1.23595e-06
-4.26592e-07
2.83515e-07
5.89266e-07
5.83218e-07
6.71286e-07
4.31449e-07
1.51145e-06
1.20825e-06
3.18865e-07
-1.32945e-07
-5.89369e-07
1.29527e-07
-1.02157e-07
-7.12897e-07
-7.57808e-07
-1.67454e-06
-6.43046e-07
-1.27523e-06
-7.88802e-07
-1.62805e-06
-4.90588e-07
-5.93927e-07
1.16844e-08
-8.39574e-07
-1.111e-06
-1.09085e-06
-1.13903e-06
-7.73454e-07
-1.30735e-06
-1.76699e-06
-9.70905e-07
-2.17945e-07
-7.80661e-07
-6.08421e-07
-6.94468e-07
-5.16069e-07
1.68765e-07
4.93272e-08
-3.5037e-07
-8.43014e-07
-3.6516e-07
1.83681e-07
4.40543e-07
4.4758e-07
5.92899e-07
3.17502e-07
1.19815e-06
9.63339e-07
3.64361e-07
8.44623e-08
-4.36407e-07
7.12036e-08
-1.15024e-07
-5.60596e-07
-5.80346e-07
-1.41967e-06
-6.10204e-07
-1.09313e-06
-6.7177e-07
-1.24508e-06
-5.99095e-07
-6.31353e-07
-2.03166e-07
-7.94259e-07
-1.00384e-06
-1.13105e-06
-1.07046e-06
-8.17581e-07
-1.11302e-06
-1.45598e-06
-8.62663e-07
-2.63217e-07
-7.93329e-07
-5.14575e-07
-4.62527e-07
-4.92455e-07
8.78068e-09
-2.91836e-08
-2.6631e-07
-5.53692e-07
-2.83213e-07
1.02912e-07
3.31027e-07
3.31268e-07
5.25005e-07
2.53072e-07
9.04922e-07
7.8247e-07
3.48942e-07
2.05733e-07
-2.86093e-07
1.10374e-08
-1.07798e-07
-4.57424e-07
-4.38777e-07
-1.16822e-06
-5.96788e-07
-9.2752e-07
-6.28663e-07
-9.63446e-07
-6.41304e-07
-6.69698e-07
-3.58338e-07
-7.70104e-07
-9.00328e-07
-1.09742e-06
-1.01649e-06
-7.89352e-07
-9.81722e-07
-1.21192e-06
-7.12344e-07
-2.88859e-07
-7.73988e-07
-4.35402e-07
-3.18208e-07
-4.27607e-07
-9.90284e-08
-8.28505e-08
-2.06515e-07
-3.59796e-07
-1.98168e-07
4.50025e-08
2.48006e-07
2.41246e-07
4.5206e-07
2.24688e-07
6.50156e-07
6.34131e-07
3.09122e-07
2.41111e-07
-1.51073e-07
-3.39887e-08
-9.61094e-08
-3.83482e-07
-3.51239e-07
-9.35913e-07
-5.85564e-07
-7.85507e-07
-6.14788e-07
-7.81362e-07
-6.35934e-07
-6.94828e-07
-4.64301e-07
-7.49498e-07
-8.18568e-07
-1.00755e-06
-9.65682e-07
-7.24902e-07
-8.76866e-07
-1.05289e-06
-5.42693e-07
-2.91107e-07
-7.50729e-07
-3.57315e-07
-2.41728e-07
-3.54793e-07
-1.54527e-07
-1.20036e-07
-1.61641e-07
-2.41886e-07
-1.271e-07
1.03495e-08
1.84351e-07
1.78453e-07
3.69426e-07
2.14363e-07
4.46861e-07
4.97893e-07
2.63283e-07
2.1774e-07
-5.29772e-08
-5.9795e-08
-9.13763e-08
-3.25589e-07
-3.06077e-07
-7.3326e-07
-5.66418e-07
-6.73289e-07
-6.01162e-07
-6.75759e-07
-6.06316e-07
-6.97293e-07
-5.32285e-07
-7.20459e-07
-7.58845e-07
-8.95961e-07
-9.1004e-07
-6.53956e-07
-7.78615e-07
-9.64587e-07
-3.85297e-07
-2.5869e-07
-7.34984e-07
-2.83056e-07
-2.04024e-07
-2.97464e-07
-1.66775e-07
-1.46034e-07
-1.2903e-07
-1.69956e-07
-7.76935e-08
-4.8773e-09
1.34624e-07
1.37738e-07
2.87073e-07
2.03836e-07
2.99914e-07
3.72833e-07
2.19949e-07
1.6729e-07
9.59344e-10
-7.03045e-08
-9.6324e-08
-2.77613e-07
-2.84509e-07
-5.74026e-07
-5.36876e-07
-5.93339e-07
-5.77639e-07
-6.17883e-07
-5.73343e-07
-6.76557e-07
-5.72911e-07
-6.83667e-07
-7.13383e-07
-7.84933e-07
-8.44341e-07
-5.90938e-07
-6.8218e-07
-9.21134e-07
-2.55977e-07
-2.09587e-07
-7.27871e-07
-2.19709e-07
-1.82342e-07
-2.64086e-07
-1.5287e-07
-1.58025e-07
-1.06553e-07
-1.24253e-07
-4.86349e-08
-5.50244e-09
9.85531e-08
1.12004e-07
2.14179e-07
1.8515e-07
2.06018e-07
2.64801e-07
1.78162e-07
1.15358e-07
1.92783e-08
-6.97998e-08
-1.05547e-07
-2.40258e-07
-2.75306e-07
-4.6248e-07
-4.9571e-07
-5.33289e-07
-5.43793e-07
-5.80831e-07
-5.47266e-07
-6.3854e-07
-5.87737e-07
-6.43481e-07
-6.72541e-07
-6.92137e-07
-7.72304e-07
-5.43938e-07
-5.95356e-07
-9.05514e-07
-1.81446e-07
-1.60196e-07
-7.28301e-07
-1.822e-07
-1.71552e-07
-2.53443e-07
-1.3712e-07
-1.63694e-07
-9.79166e-08
-9.82571e-08
-3.67029e-08
-8.54057e-10
7.19519e-08
9.31559e-08
1.57691e-07
1.60857e-07
1.51536e-07
1.8065e-07
1.36578e-07
7.32676e-08
1.3362e-08
-6.70882e-08
-1.13615e-07
-2.15224e-07
-2.68822e-07
-3.90242e-07
-4.51477e-07
-4.87534e-07
-5.07901e-07
-5.48601e-07
-5.28007e-07
-5.94635e-07
-5.82868e-07
-6.03458e-07
-6.32737e-07
-6.16316e-07
-6.99799e-07
-4.99661e-07
-5.19388e-07
-8.78462e-07
-1.2211e-07
-5.83465e-08
-7.16016e-07
-1.43971e-07
-1.5645e-07
-2.4853e-07
-1.21816e-07
-1.58398e-07
-9.28019e-08
-7.91657e-08
-2.83884e-08
7.37588e-09
5.85069e-08
8.24382e-08
1.21036e-07
1.36462e-07
1.24389e-07
1.26857e-07
1.05082e-07
4.75022e-08
2.30299e-09
-6.45053e-08
-1.17398e-07
-1.96802e-07
-2.59026e-07
-3.42506e-07
-4.09997e-07
-4.50248e-07
-4.73488e-07
-5.1585e-07
-5.06869e-07
-5.51535e-07
-5.60244e-07
-5.67696e-07
-5.93024e-07
-5.65988e-07
-6.37194e-07
-4.87369e-07
-4.70052e-07
-9.40949e-07
-1.42651e-07
-9.80258e-08
-7.39588e-07
-1.60838e-07
-1.75685e-07
-2.69668e-07
-1.34061e-07
-1.67327e-07
-1.03166e-07
-7.72241e-08
-3.09345e-08
7.57767e-09
4.94409e-08
7.66697e-08
1.02078e-07
1.19636e-07
1.11563e-07
9.84556e-08
8.12003e-08
3.31863e-08
-9.44543e-09
-6.43685e-08
-1.19874e-07
-1.84308e-07
-2.46685e-07
-3.11666e-07
-3.73498e-07
-4.17499e-07
-4.44697e-07
-4.81461e-07
-4.85082e-07
-5.12472e-07
-5.30593e-07
-5.28526e-07
-5.55842e-07
-5.15344e-07
-5.86325e-07
-4.38609e-07
-4.31068e-07
-8.58443e-07
-7.89408e-08
5.64484e-07
-7.10833e-07
-7.35916e-08
-1.75625e-07
-2.74558e-07
-1.45328e-07
-1.72528e-07
-1.09847e-07
-7.60417e-08
-2.73778e-08
1.44234e-08
5.41234e-08
8.27781e-08
1.02516e-07
1.18276e-07
1.15621e-07
9.63683e-08
7.79032e-08
3.43284e-08
-5.7439e-09
-5.91881e-08
-1.15609e-07
-1.74771e-07
-2.35818e-07
-2.8811e-07
-3.44208e-07
-3.86908e-07
-4.13569e-07
-4.46912e-07
-4.52857e-07
-4.77515e-07
-4.93622e-07
-4.95896e-07
-5.17264e-07
-4.96905e-07
-5.46482e-07
-5.11378e-07
-4.03587e-07
-1.54221e-06
-1.86411e-07
-8.91503e-05
-8.76776e-05
2.98795e-05
4.73658e-05
-1.70814e-05
-9.01873e-05
-6.96123e-05
3.0435e-05
6.2944e-05
-2.56582e-05
-8.88246e-05
-6.35495e-05
3.23647e-05
5.72427e-05
-3.78586e-05
-9.33168e-05
-7.3265e-05
1.83466e-05
4.49082e-05
-3.76275e-05
-9.95555e-05
-8.48287e-05
2.76692e-05
7.48788e-05
-4.03976e-05
-0.000116294
-8.92615e-05
2.97661e-05
4.19537e-05
-3.48522e-05
-0.000110788
-6.23922e-05
3.08911e-05
6.66844e-05
-1.78724e-05
-9.17279e-05
-8.24371e-05
3.71336e-05
4.56704e-05
-3.82074e-05
-8.98103e-05
-8.85005e-05
2.80518e-05
4.68116e-05
-1.73047e-05
-9.06767e-05
-7.06131e-05
2.87919e-05
6.19333e-05
-2.60012e-05
-8.98253e-05
-6.46771e-05
3.04624e-05
5.67235e-05
-3.78893e-05
-9.38945e-05
-7.4116e-05
1.70613e-05
4.46498e-05
-3.75703e-05
-0.000100228
-8.54069e-05
2.59438e-05
7.42171e-05
-4.05041e-05
-0.000117067
-9.05808e-05
2.80045e-05
4.08008e-05
-3.518e-05
-0.00011169
-6.36646e-05
2.90372e-05
6.56088e-05
-1.8474e-05
-9.27271e-05
-8.36742e-05
3.52988e-05
4.51452e-05
-3.83854e-05
-9.11435e-05
-9.04183e-05
2.60259e-05
4.62463e-05
-1.8155e-05
-9.21752e-05
-7.28813e-05
2.67956e-05
6.17299e-05
-2.6685e-05
-9.15675e-05
-6.64828e-05
2.84009e-05
5.62562e-05
-3.85385e-05
-9.52252e-05
-7.52728e-05
1.52841e-05
4.41672e-05
-3.7807e-05
-0.000101446
-8.75475e-05
2.36699e-05
7.3983e-05
-4.12414e-05
-0.000118813
-9.26294e-05
2.62039e-05
4.0316e-05
-3.61404e-05
-0.000113263
-6.62885e-05
2.6671e-05
6.52406e-05
-1.91646e-05
-9.43544e-05
-8.54939e-05
3.33242e-05
4.43816e-05
-3.91e-05
-9.39711e-05
-9.30725e-05
2.35604e-05
4.49582e-05
-1.95885e-05
-9.35449e-05
-7.52765e-05
2.46137e-05
5.98396e-05
-2.87144e-05
-9.26988e-05
-6.84911e-05
2.60839e-05
5.50255e-05
-3.97799e-05
-9.68687e-05
-7.95419e-05
1.28115e-05
4.35088e-05
-3.93366e-05
-0.000103893
-8.8781e-05
2.18853e-05
7.31555e-05
-4.35058e-05
-0.000120702
-9.64451e-05
2.40923e-05
3.93681e-05
-3.78276e-05
-0.000115736
-6.83862e-05
2.45321e-05
6.30803e-05
-2.09243e-05
-9.63787e-05
-8.86079e-05
3.12178e-05
4.42154e-05
-4.10781e-05
-9.41999e-05
-9.62811e-05
2.06543e-05
4.23024e-05
-2.30936e-05
-9.56102e-05
-7.74843e-05
2.14855e-05
5.91457e-05
-3.04748e-05
-9.47779e-05
-6.9609e-05
2.36457e-05
5.28556e-05
-4.28347e-05
-9.78064e-05
-7.9648e-05
1.03125e-05
3.97435e-05
-4.24615e-05
-0.000106179
-9.1529e-05
1.88254e-05
7.08268e-05
-4.74623e-05
-0.000122729
-9.79906e-05
2.04652e-05
3.72311e-05
-4.13763e-05
-0.000117089
-7.15074e-05
2.12312e-05
6.21975e-05
-2.32542e-05
-9.74841e-05
-8.83441e-05
2.79465e-05
4.12529e-05
-4.29139e-05
-9.77075e-05
-9.73391e-05
1.70819e-05
3.77233e-05
-2.45901e-05
-9.56215e-05
-8.00042e-05
1.66066e-05
5.15118e-05
-3.40551e-05
-9.52545e-05
-7.25955e-05
1.95759e-05
4.74057e-05
-4.50039e-05
-9.95177e-05
-8.36292e-05
5.83811e-06
3.45164e-05
-4.50196e-05
-0.00010623
-9.19144e-05
1.58348e-05
6.5535e-05
-5.24496e-05
-0.000124309
-0.000103908
1.70885e-05
3.33837e-05
-4.42516e-05
-0.000119903
-7.37202e-05
1.77132e-05
5.63424e-05
-2.6258e-05
-9.80535e-05
-9.34042e-05
2.40612e-05
3.73617e-05
-4.63152e-05
-9.1981e-05
-0.000103263
8.68529e-06
2.84379e-05
-2.94756e-05
-9.31934e-05
-8.14265e-05
7.20749e-06
4.31587e-05
-3.4923e-05
-9.23517e-05
-7.39909e-05
1.16288e-05
3.97288e-05
-4.51978e-05
-9.56227e-05
-8.61171e-05
-1.46725e-06
2.55989e-05
-4.82704e-05
-0.000103111
-9.48015e-05
6.49169e-06
5.34502e-05
-5.75317e-05
-0.000122015
-0.000106372
7.8432e-06
2.6829e-05
-4.63271e-05
-0.00011516
-7.82658e-05
9.55635e-06
4.98507e-05
-2.70985e-05
-9.65291e-05
-9.34651e-05
1.4506e-05
2.93415e-05
-4.64546e-05
-8.79989e-05
-0.000102616
-4.48188e-06
1.72281e-05
-2.90331e-05
-8.59412e-05
-8.5435e-05
-7.31394e-06
2.84864e-05
-3.66925e-05
-8.31427e-05
-7.25974e-05
5.2472e-07
2.8109e-05
-4.46316e-05
-8.75987e-05
-8.57059e-05
-1.30714e-05
1.21617e-05
-4.59018e-05
-9.50262e-05
-9.50876e-05
-7.24691e-06
3.43657e-05
-6.08657e-05
-0.000112217
-0.000106
-3.89589e-06
1.49874e-05
-4.68411e-05
-0.00010833
-7.54782e-05
-1.12541e-06
3.74964e-05
-2.8824e-05
-8.70299e-05
-9.65442e-05
-6.33423e-07
1.83243e-05
-4.55164e-05
-7.31576e-05
-9.83157e-05
-1.5559e-05
2.38358e-06
-2.7624e-05
-7.36161e-05
-7.70592e-05
-1.74979e-05
1.18817e-05
-3.47333e-05
-6.99899e-05
-6.70633e-05
-8.7175e-06
1.72644e-05
-3.88757e-05
-7.64802e-05
-8.09595e-05
-2.24793e-05
1.54438e-06
-4.33034e-05
-8.11647e-05
-8.91283e-05
-2.01955e-05
1.5949e-05
-5.90116e-05
-9.78408e-05
-0.000101296
-1.5562e-05
1.55195e-06
-4.51877e-05
-9.46469e-05
-7.0384e-05
-1.00872e-05
2.29167e-05
-2.83975e-05
-7.72388e-05
-8.96567e-05
-1.34446e-05
5.92445e-06
-4.10018e-05
-5.89989e-05
-8.47469e-05
-1.99253e-05
-4.55423e-06
-2.41327e-05
-5.94264e-05
-6.80127e-05
-2.27623e-05
2.5638e-06
-2.97645e-05
-5.56016e-05
-5.72432e-05
-1.19584e-05
1.00771e-05
-3.23223e-05
-6.04716e-05
-6.95524e-05
-2.61469e-05
-6.8192e-06
-3.57532e-05
-6.46363e-05
-7.8568e-05
-2.64639e-05
4.79044e-06
-5.36651e-05
-7.87337e-05
-8.64663e-05
-2.07708e-05
-9.4009e-06
-4.12976e-05
-7.86554e-05
-5.87213e-05
-1.36523e-05
1.33097e-05
-2.61215e-05
-6.35998e-05
-7.77485e-05
-1.99312e-05
-2.47332e-06
-3.49806e-05
-4.33217e-05
-6.684e-05
-1.77746e-05
-7.1675e-06
-1.86971e-05
-4.46804e-05
-5.20209e-05
-1.9664e-05
-6.95172e-07
-2.44632e-05
-4.18342e-05
-4.4249e-05
-9.30076e-06
7.92527e-06
-2.46646e-05
-4.60206e-05
-5.48484e-05
-2.31111e-05
-7.24835e-06
-2.82043e-05
-4.80178e-05
-6.14324e-05
-2.41097e-05
9.54323e-07
-4.46024e-05
-6.10616e-05
-6.92972e-05
-1.90627e-05
-1.22186e-05
-3.45305e-05
-6.21384e-05
-4.42387e-05
-1.16318e-05
7.92966e-06
-2.14142e-05
-4.95522e-05
-6.22014e-05
-1.91334e-05
-5.2511e-06
-2.79459e-05
-3.07267e-05
-4.84889e-05
-1.15637e-05
-3.502e-06
-1.21086e-05
-3.15382e-05
-3.7057e-05
-1.32236e-05
8.27249e-07
-1.73407e-05
-2.99853e-05
-3.20686e-05
-4.2187e-06
8.95399e-06
-1.69598e-05
-3.23924e-05
-3.95935e-05
-1.59304e-05
-4.10783e-06
-1.97846e-05
-3.35845e-05
-4.46579e-05
-1.68451e-05
3.1191e-06
-3.35238e-05
-4.41573e-05
-5.12236e-05
-1.31285e-05
-9.23566e-06
-2.55713e-05
-4.6368e-05
-3.08465e-05
-6.37158e-06
9.01813e-06
-1.49011e-05
-3.68964e-05
-4.64382e-05
-1.41983e-05
-2.50895e-06
-2.02427e-05
-2.03241e-05
-3.28715e-05
-5.68457e-06
-1.12689e-07
-6.45509e-06
-2.14215e-05
-2.38029e-05
-7.05551e-06
3.92522e-06
-1.09109e-05
-2.02006e-05
-2.13444e-05
-1.45867e-07
1.01285e-05
-1.05665e-05
-2.22202e-05
-2.6765e-05
-9.31651e-06
3.90182e-07
-1.27025e-05
-2.26758e-05
-2.97686e-05
-9.69341e-06
6.53481e-06
-2.32667e-05
-3.14757e-05
-3.66213e-05
-7.77922e-06
-4.6007e-06
-1.66531e-05
-3.34332e-05
-1.93648e-05
-1.56167e-06
1.03266e-05
-8.71674e-06
-2.56132e-05
-3.26811e-05
-9.06423e-06
5.15531e-07
-1.35555e-05
-1.33247e-05
-2.16019e-05
-1.97243e-06
1.68271e-06
-2.62923e-06
-1.43854e-05
-1.50001e-05
-3.19602e-06
5.06173e-06
-6.15024e-06
-1.32386e-05
-1.35202e-05
2.23493e-06
1.00189e-05
-6.03611e-06
-1.46174e-05
-1.73128e-05
-4.7898e-06
2.45921e-06
-7.78075e-06
-1.51636e-05
-1.90431e-05
-4.70289e-06
8.06779e-06
-1.5434e-05
-2.2004e-05
-2.58955e-05
-4.2305e-06
-1.93825e-06
-1.0282e-05
-2.39654e-05
-1.16571e-05
1.13115e-06
1.07481e-05
-4.29251e-06
-1.74637e-05
-2.20966e-05
-5.4908e-06
2.1168e-06
-8.58585e-06
-8.61554e-06
-1.41219e-05
-2.42799e-07
1.82665e-06
-5.91795e-07
-9.78871e-06
-9.40616e-06
-1.44373e-06
4.65776e-06
-3.36088e-06
-8.69868e-06
-8.48758e-06
2.90241e-06
8.65164e-06
-3.11963e-06
-9.46914e-06
-1.10558e-05
-2.43435e-06
2.91457e-06
-4.5586e-06
-1.01479e-05
-1.19586e-05
-2.05827e-06
7.74504e-06
-1.01905e-05
-1.56145e-05
-1.86857e-05
-2.55344e-06
-1.20542e-06
-6.31401e-06
-1.74215e-05
-6.9153e-06
2.04304e-06
9.29406e-06
-1.96304e-06
-1.19997e-05
-1.4835e-05
-3.64266e-06
2.11176e-06
-5.49011e-06
-5.676e-06
-9.32337e-06
3.89722e-07
1.40652e-06
3.40322e-07
-6.62221e-06
-6.09164e-06
-8.63305e-07
3.4301e-06
-1.88183e-06
-5.83829e-06
-5.52571e-06
2.6822e-06
6.81866e-06
-1.47793e-06
-5.92454e-06
-7.08755e-06
-1.28556e-06
2.48795e-06
-2.62511e-06
-6.74414e-06
-7.46106e-06
-8.61046e-07
6.45808e-06
-6.82011e-06
-1.09703e-05
-1.37219e-05
-1.80457e-06
-1.32351e-06
-4.06412e-06
-1.27844e-05
-4.26003e-06
1.88407e-06
7.29358e-06
-8.24726e-07
-8.47707e-06
-1.01153e-05
-2.83815e-06
1.45986e-06
-3.57171e-06
-3.69516e-06
-6.14405e-06
6.01275e-07
8.51378e-07
6.80043e-07
-4.43983e-06
-3.94052e-06
-6.88102e-07
2.18014e-06
-1.12985e-06
-3.96262e-06
-3.64383e-06
2.20807e-06
5.10719e-06
-6.07958e-07
-3.55877e-06
-4.50163e-06
-6.9166e-07
1.85924e-06
-1.4402e-06
-4.3463e-06
-4.51015e-06
-2.92956e-07
4.9624e-06
-4.68686e-06
-7.6551e-06
-1.01613e-05
-1.48675e-06
-1.6615e-06
-2.75765e-06
-9.35882e-06
-2.7098e-06
1.46537e-06
5.26547e-06
-4.4997e-07
-6.11639e-06
-6.94927e-06
-2.4008e-06
6.33634e-07
-2.46056e-06
-2.39255e-06
-4.0879e-06
6.04696e-07
4.31782e-07
7.15853e-07
-2.91308e-06
-2.56745e-06
-6.25694e-07
1.1316e-06
-7.25968e-07
-2.69857e-06
-2.45503e-06
1.71253e-06
3.69712e-06
-1.67526e-07
-1.94921e-06
-2.82559e-06
-3.67617e-07
1.26695e-06
-7.24111e-07
-2.67117e-06
-2.62428e-06
-1.67616e-08
3.62847e-06
-3.32787e-06
-5.23656e-06
-7.5338e-06
-1.31496e-06
-1.91518e-06
-2.01833e-06
-6.85255e-06
-1.85349e-06
9.5783e-07
3.53539e-06
-3.42035e-07
-4.48813e-06
-4.85617e-06
-2.08947e-06
-7.43028e-08
-1.75548e-06
-1.50707e-06
-2.78445e-06
5.55184e-07
1.68885e-07
6.09903e-07
-1.86111e-06
-1.68792e-06
-5.50906e-07
4.20729e-07
-4.93946e-07
-1.82946e-06
-1.69952e-06
1.29668e-06
2.67087e-06
5.93517e-08
-9.0459e-07
-1.76241e-06
-1.79447e-07
8.39939e-07
-2.73809e-07
-1.50505e-06
-1.44606e-06
1.26921e-07
2.55527e-06
-2.42109e-06
-3.53191e-06
-5.60882e-06
-1.2237e-06
-1.99734e-06
-1.58802e-06
-5.02034e-06
-1.40367e-06
5.07013e-07
2.18041e-06
-4.19521e-07
-3.35024e-06
-3.49888e-06
-1.80947e-06
-5.78096e-07
-1.33029e-06
-9.11989e-07
-1.99492e-06
4.49371e-07
5.44306e-08
4.47261e-07
-1.12368e-06
-1.15628e-06
-4.73943e-07
5.09567e-10
-3.5818e-07
-1.21789e-06
-1.21621e-06
9.55373e-07
1.96791e-06
1.43874e-07
-2.42076e-07
-1.07792e-06
-8.73205e-08
5.73775e-07
-2.04924e-08
-7.24505e-07
-7.36575e-07
1.69415e-07
1.76014e-06
-1.8024e-06
-2.33377e-06
-4.20741e-06
-1.16651e-06
-1.91327e-06
-1.35093e-06
-3.67734e-06
-1.19766e-06
1.04013e-07
1.18696e-06
-5.46367e-07
-2.52397e-06
-2.63425e-06
-1.56333e-06
-8.62241e-07
-1.06217e-06
-5.13305e-07
-1.50412e-06
3.09633e-07
3.73888e-08
2.8079e-07
-6.21467e-07
-8.24796e-07
-4.12993e-07
-1.95171e-07
-2.68728e-07
-7.83832e-07
-8.88e-07
6.74552e-07
1.48841e-06
1.72449e-07
1.5094e-07
-6.31251e-07
-6.19736e-08
4.25819e-07
1.09745e-07
-2.19162e-07
-3.20654e-07
1.38214e-07
1.20102e-06
-1.36863e-06
-1.52722e-06
-3.16952e-06
-1.13221e-06
-1.71914e-06
-1.20395e-06
-2.70946e-06
-1.09894e-06
-2.41443e-07
5.02349e-07
-6.84138e-07
-1.93093e-06
-2.06072e-06
-1.37792e-06
-9.72196e-07
-8.90708e-07
-2.72948e-07
-1.17591e-06
1.45178e-07
6.83865e-08
1.3675e-07
-3.02812e-07
-5.93062e-07
-3.7932e-07
-2.54161e-07
-2.05326e-07
-4.79273e-07
-6.30426e-07
4.40143e-07
1.15318e-06
1.75044e-07
3.51664e-07
-3.17063e-07
-6.87313e-08
3.4063e-07
1.64224e-07
6.62932e-08
-8.59651e-08
6.57606e-08
8.13035e-07
-1.05592e-06
-1.01265e-06
-2.38159e-06
-1.10352e-06
-1.48105e-06
-1.10252e-06
-2.03407e-06
-1.03468e-06
-5.23319e-07
4.23364e-08
-7.89182e-07
-1.50936e-06
-1.65039e-06
-1.25637e-06
-9.76302e-07
-7.59711e-07
-1.54908e-07
-9.40264e-07
1.94522e-10
9.81452e-08
3.89996e-08
-1.27745e-07
-4.18805e-07
-3.4677e-07
-2.44262e-07
-1.52981e-07
-2.80128e-07
-4.22587e-07
2.62638e-07
9.04584e-07
1.80625e-07
4.2001e-07
-9.90429e-08
-8.45507e-08
2.76682e-07
1.76396e-07
1.93201e-07
4.53214e-08
-9.10189e-09
5.28073e-07
-8.26739e-07
-7.09668e-07
-1.77735e-06
-1.06215e-06
-1.25746e-06
-1.01206e-06
-1.5782e-06
-9.62395e-07
-7.2318e-07
-2.71228e-07
-8.43756e-07
-1.2258e-06
-1.33118e-06
-1.16623e-06
-9.41756e-07
-6.38105e-07
-1.21257e-07
-7.74468e-07
-1.04286e-07
9.51754e-08
-1.46589e-08
-4.90452e-08
-2.81374e-07
-3.04038e-07
-2.15643e-07
-1.08855e-07
-1.58267e-07
-2.51184e-07
1.4318e-07
7.0423e-07
1.9123e-07
4.02288e-07
4.7081e-08
-8.73352e-08
2.14018e-07
1.71814e-07
2.12099e-07
1.05463e-07
-7.09676e-08
3.1102e-07
-6.49464e-07
-5.51477e-07
-1.32176e-06
-9.97817e-07
-1.0718e-06
-9.20059e-07
-1.27922e-06
-8.87892e-07
-8.38596e-07
-4.85112e-07
-8.49877e-07
-1.04375e-06
-1.06762e-06
-1.07686e-06
-9.14092e-07
-5.12876e-07
-1.25503e-07
-6.73034e-07
-1.54755e-07
6.18606e-08
-4.07676e-08
-2.45151e-08
-1.83484e-07
-2.42659e-07
-1.83765e-07
-7.11114e-08
-8.60221e-08
-1.2054e-07
7.70729e-08
5.35309e-07
2.0194e-07
3.40113e-07
1.34779e-07
-6.965e-08
1.50544e-07
1.56486e-07
1.72485e-07
1.1201e-07
-1.11423e-07
1.39629e-07
-5.16257e-07
-4.76566e-07
-9.92288e-07
-9.07053e-07
-9.30711e-07
-8.28814e-07
-1.0784e-06
-8.22003e-07
-8.71654e-07
-6.21179e-07
-8.21697e-07
-9.29111e-07
-8.57142e-07
-9.71388e-07
-9.05714e-07
-3.86569e-07
-1.36328e-07
-6.29897e-07
-1.60939e-07
1.30173e-08
-6.08182e-08
-2.17009e-08
-1.24886e-07
-1.73584e-07
-1.51229e-07
-4.41894e-08
-4.41868e-08
-3.16798e-08
5.0992e-08
3.93289e-07
2.05524e-07
2.66118e-07
1.71992e-07
-3.05307e-08
9.20451e-08
1.30489e-07
1.13064e-07
8.08156e-08
-1.31948e-07
8.81617e-09
-4.19901e-07
-4.40693e-07
-7.6409e-07
-7.9983e-07
-8.22756e-07
-7.46303e-07
-9.33983e-07
-7.68901e-07
-8.46723e-07
-6.94833e-07
-7.74317e-07
-8.51645e-07
-7.03661e-07
-8.45537e-07
-9.07033e-07
-2.7718e-07
-1.32883e-07
-6.23959e-07
-1.41969e-07
-3.27355e-08
-8.71012e-08
-2.48556e-08
-9.65352e-08
-1.13073e-07
-1.2063e-07
-2.57001e-08
-1.60846e-08
2.14223e-08
4.93407e-08
2.79849e-07