/*--------------------------------*- C++ -*----------------------------------*\
  =========                 |
  \\      /  F ield         | OpenFOAM: The Open Source CFD Toolbox
   \\    /   O peration     | Website:  https://openfoam.org
    \\  /    A nd           | Version:  10
     \\/     M anipulation  |
\*---------------------------------------------------------------------------*/
FoamFile
{
    format      ascii;
    class       volVectorField;
    location    "17";
    object      U_0;
}
// * * * * * * * * * * * * * * * * * * * * * * * * * * * * * * * * * * * * * //

dimensions      [0 1 -1 0 0 0 0];

internalField   nonuniform List<vector> 
25600
(
(0.00429442 1.30695e-06 -0.000169854)
(0.00438239 4.05975e-06 -9.06807e-05)
(0.00436057 2.68717e-06 -0.000133556)
(0.00420721 2.67335e-07 -0.000221951)
(0.00421877 -8.78946e-07 -0.000183672)
(0.00422215 1.57196e-06 -0.000159572)
(0.00438795 4.22066e-06 -6.41226e-05)
(0.00431775 2.65506e-06 -2.59266e-05)
(0.00426305 2.37989e-07 -0.000158641)
(0.00420476 -5.86436e-07 -0.000108008)
(0.00428999 1.90603e-06 -0.000129202)
(0.00441615 4.4081e-06 -9.77346e-05)
(0.00441002 2.31591e-06 -0.000107721)
(0.00428721 4.10191e-07 -0.000202119)
(0.00426224 -7.73792e-07 -0.000146804)
(0.0042135 1.08341e-06 -0.000100253)
(0.00436281 4.25626e-06 -6.51974e-05)
(0.00427551 2.71788e-06 -6.59201e-05)
(0.00421789 7.6e-07 -0.000203667)
(0.0042419 -3.35951e-07 -0.000189097)
(0.00424162 1.75091e-06 -0.000166872)
(0.00437587 3.78643e-06 -8.08444e-05)
(0.00428226 1.96119e-06 -4.96162e-05)
(0.00419209 1.0621e-07 -0.00010629)
(0.00416127 -2.89293e-07 -4.82758e-05)
(0.00421894 2.43253e-06 -5.77251e-05)
(0.00433172 5.38481e-06 -2.08963e-05)
(0.00432489 3.14434e-06 -7.88921e-05)
(0.00418761 2.4629e-07 -0.000154941)
(0.00421721 -3.38603e-07 -0.000118932)
(0.00422819 2.07842e-06 -0.000102793)
(0.00435947 4.85691e-06 -7.86286e-05)
(0.00429227 2.6746e-06 -6.38582e-05)
(0.00419336 9.45237e-08 -0.000160799)
(0.00418755 -3.4629e-07 -9.65969e-05)
(0.00423233 2.21284e-06 -8.51453e-05)
(0.00439164 4.98171e-06 -9.33692e-05)
(0.00432253 3.81588e-06 -0.000109757)
(0.0042798 5.27957e-07 -0.000245623)
(0.0042049 -8.69035e-07 -0.000177356)
(0.0131198 2.29036e-05 -0.000457591)
(0.0133997 4.63188e-05 -0.000274674)
(0.0133883 3.14705e-05 -0.000428804)
(0.0129282 1.13789e-05 -0.000631993)
(0.0129283 1.76954e-06 -0.000470151)
(0.0128919 2.81107e-05 -0.000424261)
(0.0134141 4.54006e-05 -0.000178243)
(0.0132525 2.74612e-05 -0.000107453)
(0.0130909 8.56008e-06 -0.000456337)
(0.0128831 2.244e-06 -0.000258044)
(0.0131062 2.78167e-05 -0.00035422)
(0.0135099 4.58945e-05 -0.000293513)
(0.0135432 2.6593e-05 -0.000340383)
(0.0131684 1.04843e-05 -0.000577846)
(0.0130686 -9.76454e-09 -0.000357792)
(0.012875 2.16151e-05 -0.000240624)
(0.013344 4.70635e-05 -0.000198583)
(0.0131273 3.24416e-05 -0.000232448)
(0.0129438 1.67228e-05 -0.000590463)
(0.0129924 7.57256e-06 -0.000492763)
(0.0129577 2.79986e-05 -0.000439485)
(0.0133902 4.11298e-05 -0.000223913)
(0.0131572 2.40259e-05 -0.000171494)
(0.0128721 8.99568e-06 -0.000289747)
(0.0127362 9.50823e-06 -6.90332e-05)
(0.0128799 3.53687e-05 -0.000133995)
(0.0132468 5.57444e-05 -9.02812e-05)
(0.0132859 3.22642e-05 -0.000275941)
(0.0128633 9.88231e-06 -0.000419835)
(0.0129154 6.08935e-06 -0.000277492)
(0.0129079 3.3031e-05 -0.000280413)
(0.0133319 5.18187e-05 -0.000252433)
(0.0131952 2.86009e-05 -0.000212297)
(0.0128901 6.90023e-06 -0.000446018)
(0.0128244 3.86514e-06 -0.000208906)
(0.0129118 3.11794e-05 -0.000219563)
(0.0134194 5.34916e-05 -0.00029063)
(0.013273 3.82308e-05 -0.000360132)
(0.0131626 9.79912e-06 -0.000698373)
(0.0128958 -1.03289e-06 -0.000449735)
(0.0224522 7.25504e-05 -0.000696735)
(0.0229574 0.000130256 -0.000467763)
(0.023058 8.49988e-05 -0.00074647)
(0.022276 3.59851e-05 -0.00102303)
(0.0222064 1.38051e-05 -0.000685311)
(0.0220534 8.90082e-05 -0.000646371)
(0.0229751 0.000128002 -0.000303583)
(0.0228067 7.34085e-05 -0.000215791)
(0.022536 2.74683e-05 -0.000740104)
(0.0221257 1.43909e-05 -0.000343186)
(0.0224235 8.5439e-05 -0.000534458)
(0.023146 0.000127717 -0.000495167)
(0.0233165 7.17375e-05 -0.000588137)
(0.0226801 3.20656e-05 -0.000940887)
(0.0224717 6.2819e-06 -0.000505403)
(0.0220471 6.90861e-05 -0.000321617)
(0.0228673 0.00013234 -0.000336814)
(0.0226031 8.92768e-05 -0.000424208)
(0.0222604 5.23136e-05 -0.000955033)
(0.0223033 2.96045e-05 -0.000727668)
(0.0221776 8.65945e-05 -0.000661177)
(0.0229555 0.000115203 -0.000369276)
(0.0226689 6.57642e-05 -0.00032581)
(0.022162 3.05897e-05 -0.000463249)
(0.021856 3.59697e-05 -1.73412e-05)
(0.0220305 0.000107136 -0.000157308)
(0.0226909 0.000154545 -0.000178289)
(0.022883 8.62139e-05 -0.000506924)
(0.0221505 3.21854e-05 -0.000653316)
(0.0221693 2.59838e-05 -0.000358975)
(0.0220822 0.000100956 -0.000421498)
(0.0228462 0.000143887 -0.000451656)
(0.0227426 7.60182e-05 -0.000385185)
(0.0222091 2.3359e-05 -0.000709976)
(0.0220172 1.85969e-05 -0.000249838)
(0.0220701 9.49147e-05 -0.000302271)
(0.0229798 0.000148295 -0.000492794)
(0.02285 0.000101404 -0.000631835)
(0.0226878 2.8517e-05 -0.00112486)
(0.0221644 4.46389e-06 -0.000650417)
(0.0322357 0.000149803 -0.000859387)
(0.033004 0.000254484 -0.000651939)
(0.0333781 0.00016443 -0.00107246)
(0.0322675 8.09933e-05 -0.00141642)
(0.0320442 3.94425e-05 -0.000833715)
(0.031652 0.000185659 -0.000808515)
(0.0330157 0.000252584 -0.000446542)
(0.0329761 0.000142348 -0.000348724)
(0.0326023 6.30766e-05 -0.00102488)
(0.0319217 3.88542e-05 -0.000365262)
(0.0321808 0.000173855 -0.000630883)
(0.0332638 0.000248746 -0.000685485)
(0.0337262 0.000139118 -0.00084202)
(0.0328315 7.13855e-05 -0.00131094)
(0.0324775 2.23652e-05 -0.000612514)
(0.0316883 0.000143741 -0.000321933)
(0.0328837 0.000258823 -0.000456866)
(0.0327107 0.000175824 -0.000627767)
(0.0321604 0.000114249 -0.00130135)
(0.032155 7.08286e-05 -0.000894056)
(0.0318481 0.000179402 -0.000815132)
(0.033021 0.000226892 -0.000515018)
(0.0328247 0.000130412 -0.000519397)
(0.0320743 7.13591e-05 -0.000662889)
(0.0315111 8.22351e-05 9.5175e-05)
(0.0316173 0.000217224 -8.99041e-05)
(0.0326067 0.00030035 -0.000254205)
(0.0331189 0.000167636 -0.000767275)
(0.0320586 7.36594e-05 -0.000883959)
(0.0319635 6.20668e-05 -0.000361091)
(0.0317009 0.000205264 -0.000487013)
(0.0328534 0.000279586 -0.000663617)
(0.0329425 0.000147401 -0.000588554)
(0.0321619 5.55737e-05 -0.000978278)
(0.0317583 4.70331e-05 -0.000231591)
(0.0316481 0.000191637 -0.000292199)
(0.0330194 0.000285983 -0.000668347)
(0.0330505 0.000193754 -0.000908476)
(0.0328642 6.22916e-05 -0.00154062)
(0.0320032 1.94667e-05 -0.000785485)
(0.0423903 0.00024868 -0.000898603)
(0.0434384 0.000412986 -0.000779627)
(0.0443065 0.000269092 -0.00138199)
(0.0428959 0.000154911 -0.0018543)
(0.0424232 8.31201e-05 -0.000940633)
(0.0416125 0.000313745 -0.000871771)
(0.043434 0.000416275 -0.000585136)
(0.0437095 0.000236583 -0.000499463)
(0.043265 0.000123651 -0.00134819)
(0.0422486 7.87183e-05 -0.000349997)
(0.042293 0.000286648 -0.000587255)
(0.0437523 0.000403933 -0.000818213)
(0.0447164 0.000229132 -0.0010822)
(0.0435995 0.000136645 -0.0017218)
(0.0430766 5.38521e-05 -0.000726902)
(0.0417404 0.000240398 -0.000210552)
(0.0432981 0.000420121 -0.000505721)
(0.0434184 0.000292055 -0.000821421)
(0.0426153 0.000210296 -0.00165603)
(0.0425103 0.000136987 -0.00101011)
(0.0418898 0.00030443 -0.000866284)
(0.043486 0.000374856 -0.000628549)
(0.0435848 0.000220558 -0.000746797)
(0.0426012 0.000138413 -0.000950076)
(0.041685 0.000150645 0.000227176)
(0.0415681 0.000358799 0.000121787)
(0.0428909 0.000487008 -0.000253097)
(0.0439492 0.000277417 -0.0010446)
(0.0425761 0.000142413 -0.00116881)
(0.0422719 0.000115861 -0.000301693)
(0.0416913 0.000338606 -0.000413854)
(0.0432564 0.000452283 -0.000843826)
(0.0437561 0.000244468 -0.000822913)
(0.0427381 0.000111464 -0.00129883)
(0.0420343 9.27933e-05 -0.000191444)
(0.0415669 0.000313216 -0.000133563)
(0.0434357 0.000456651 -0.000754277)
(0.0438214 0.000312835 -0.00116275)
(0.04367 0.000118949 -0.00197975)
(0.0423935 4.84596e-05 -0.000881579)
(0.0528306 0.000358788 -0.000766867)
(0.0541103 0.000594028 -0.000762415)
(0.0557376 0.00039428 -0.00161342)
(0.0541298 0.000266641 -0.00238472)
(0.0533305 0.000151678 -0.00107466)
(0.0518591 0.00046387 -0.000788948)
(0.0540849 0.000611535 -0.000652378)
(0.0549013 0.000357159 -0.000633835)
(0.0544702 0.000218945 -0.00175996)
(0.0530849 0.00014152 -0.000372094)
(0.052671 0.00041297 -0.000350468)
(0.0544525 0.000583087 -0.000805184)
(0.0561694 0.000339082 -0.00125375)
(0.0549231 0.000236662 -0.00220425)
(0.0542516 0.000110332 -0.000936104)
(0.0521484 0.000349803 2.91189e-05)
(0.0539706 0.000603984 -0.000392886)
(0.0546473 0.000432933 -0.000950481)
(0.0535819 0.000347959 -0.0020592)
(0.0533276 0.000236588 -0.00113225)
(0.0522138 0.000456443 -0.000774794)
(0.0542003 0.000554889 -0.000633189)
(0.0548506 0.000337563 -0.000962079)
(0.0537135 0.000239119 -0.00139538)
(0.052368 0.000245329 0.000280347)
(0.0518131 0.000520038 0.000521)
(0.0533971 0.000702364 -6.25611e-05)
(0.0552713 0.000413244 -0.00128555)
(0.0536718 0.000247305 -0.00158218)
(0.0530731 0.000191884 -0.000248625)
(0.0519764 0.000487993 -0.000132699)
(0.0539108 0.000648894 -0.000897672)
(0.0550882 0.000364981 -0.00105473)
(0.0539047 0.000199457 -0.00172922)
(0.0528413 0.000162709 -0.000216046)
(0.0517506 0.000446716 0.000219777)
(0.0540789 0.000643089 -0.000645514)
(0.0550505 0.000450912 -0.00132922)
(0.0550498 0.000206881 -0.00248008)
(0.0533183 9.9269e-05 -0.00100735)
(0.0634844 0.0004697 -0.000463752)
(0.0648182 0.000776509 -0.000475616)
(0.0674705 0.000524021 -0.00162959)
(0.0658843 0.000418064 -0.00301503)
(0.0647542 0.000256747 -0.0013656)
(0.0623327 0.000625176 -0.000548297)
(0.0647784 0.000822653 -0.000531604)
(0.0663695 0.000495526 -0.000650825)
(0.066112 0.000354007 -0.00228155)
(0.0644031 0.000244329 -0.000574222)
(0.0632435 0.000542 7.77734e-05)
(0.0651573 0.000767515 -0.000519489)
(0.0678809 0.000456103 -0.00123199)
(0.0666776 0.000373778 -0.00274189)
(0.0659601 0.000207438 -0.00136936)
(0.0628793 0.000466139 0.000348664)
(0.0647148 0.000790036 -2.05433e-06)
(0.0662439 0.000581665 -0.000889449)
(0.0649889 0.00052719 -0.00252564)
(0.0645618 0.000381771 -0.00137379)
(0.0627354 0.000629642 -0.000538392)
(0.064963 0.000756342 -0.000410417)
(0.0664365 0.000476291 -0.00103828)
(0.0653362 0.000376659 -0.00202693)
(0.0635491 0.000376233 8.13097e-05)
(0.0623071 0.000689494 0.00107896)
(0.0639386 0.000924211 0.000469736)
(0.0668973 0.000561483 -0.00134635)
(0.0652714 0.000391541 -0.00216924)
(0.0643477 0.000301512 -0.000348903)
(0.0624935 0.000639572 0.000380004)
(0.0646206 0.000846115 -0.00067562)
(0.0667595 0.000495156 -0.00117202)
(0.0655813 0.000321592 -0.00229243)
(0.0641778 0.000270813 -0.000457282)
(0.0621526 0.000582538 0.000748094)
(0.0647502 0.000818529 -0.000202946)
(0.066541 0.000586081 -0.00126443)
(0.0668876 0.000326662 -0.00303757)
(0.0647559 0.000185604 -0.00128808)
(0.0743256 0.000582202 -0.000111241)
(0.0753353 0.000932432 0.000188807)
(0.0791837 0.000622471 -0.00119278)
(0.0779732 0.000589408 -0.00362529)
(0.0766558 0.00041154 -0.00197887)
(0.0730212 0.00079301 -0.000251571)
(0.0752995 0.00102539 -9.70256e-05)
(0.0778406 0.00062342 -0.000347808)
(0.0779958 0.000515642 -0.00282185)
(0.0761391 0.000405491 -0.00113981)
(0.0739901 0.000676197 0.000558844)
(0.0756384 0.000931753 0.000151565)
(0.0795446 0.00054854 -0.000801418)
(0.0786363 0.000530201 -0.00319608)
(0.0780961 0.000361737 -0.00215225)
(0.0739393 0.000595401 0.00056808)
(0.0753217 0.000951246 0.000746327)
(0.0779534 0.000701323 -0.000417727)
(0.0767049 0.000726334 -0.00296319)
(0.0761525 0.000583208 -0.00188701)
(0.0734031 0.000823997 -0.000265857)
(0.0755434 0.000960694 0.00014957)
(0.0780461 0.000617202 -0.000740591)
(0.077306 0.000539029 -0.00273554)
(0.0751842 0.000560707 -0.000581811)
(0.0730536 0.000863967 0.00160441)
(0.0743187 0.00112216 0.00146741)
(0.0785318 0.000686638 -0.000955477)
(0.0772167 0.000558228 -0.00284859)
(0.0760529 0.000458637 -0.000814454)
(0.0732288 0.000789701 0.00101024)
(0.0751585 0.00101117 -1.86387e-05)
(0.0784833 0.000599418 -0.000947228)
(0.0775963 0.000459008 -0.0028901)
(0.07601 0.000431466 -0.00109852)
(0.0727915 0.000724602 0.00128215)
(0.0752336 0.000951083 0.000684796)
(0.0779939 0.000671957 -0.000721828)
(0.0789637 0.000454617 -0.00352169)
(0.0766486 0.000323039 -0.0018755)
(0.0853892 0.000716962 -4.44957e-06)
(0.0854871 0.00104515 0.00118787)
(0.0904459 0.000631266 -1.79233e-05)
(0.0900429 0.000721506 -0.00387277)
(0.0888971 0.000612258 -0.00299247)
(0.0839766 0.00097914 -0.000178526)
(0.0854692 0.00119798 0.000661459)
(0.08896 0.000695403 0.000546361)
(0.089794 0.000654986 -0.0030756)
(0.0881268 0.000627173 -0.00216562)
(0.0849511 0.000839145 0.0007596)
(0.0857195 0.00106047 0.00116938)
(0.0907714 0.000566145 0.00028932)
(0.0904304 0.000651876 -0.00323202)
(0.0904224 0.000569705 -0.00327828)
(0.0853583 0.000758792 0.000356617)
(0.0856319 0.00107777 0.00175477)
(0.0894171 0.000736732 0.000724609)
(0.0884832 0.000885906 -0.00307501)
(0.087982 0.000831471 -0.00275433)
(0.0842218 0.00104812 -0.000234148)
(0.0857445 0.00115041 0.00101485)
(0.0892793 0.000722866 0.000221636)
(0.0893153 0.000685759 -0.00317214)
(0.0871301 0.000792113 -0.00181207)
(0.0841005 0.00105354 0.00168976)
(0.0844106 0.00127416 0.00285406)
(0.0897789 0.0007299 0.00023535)
(0.0892094 0.000691708 -0.00329196)
(0.0880579 0.000661182 -0.00179928)
(0.0842338 0.000954444 0.00142278)
(0.0853359 0.00111921 0.0011014)
(0.0898673 0.000617229 -7.23125e-05)
(0.0896304 0.000554233 -0.00320324)
(0.0881971 0.000638559 -0.00222068)
(0.0837571 0.000895964 0.00145162)
(0.0853845 0.00103106 0.00194926)
(0.089028 0.000641959 0.000588739)
(0.0909007 0.000523472 -0.00358394)
(0.0888295 0.000507409 -0.00282376)
(0.0966963 0.00089567 -0.000512453)
(0.0952698 0.0011362 0.00214583)
(0.100826 0.000504428 0.00200174)
(0.101526 0.00071125 -0.00320152)
(0.101124 0.000805903 -0.00418085)
(0.0952437 0.00119717 -0.000710339)
(0.0952483 0.00134685 0.00144637)
(0.099373 0.000665575 0.0021722)
(0.10102 0.000680651 -0.00251564)
(0.100009 0.00086446 -0.00343605)
(0.0961507 0.00105635 0.000255991)
(0.0953876 0.00117535 0.00215782)
(0.10119 0.000467853 0.0021093)
(0.101542 0.000645403 -0.0023533)
(0.102488 0.000776014 -0.00442448)
(0.0970851 0.000974594 -0.000619093)
(0.0956254 0.00119409 0.00258099)
(0.100246 0.000644479 0.00261324)
(0.0999057 0.000906235 -0.00236098)
(0.0997915 0.00106851 -0.00378095)
(0.0952099 0.00130928 -0.000806665)
(0.0955061 0.00132564 0.00182625)
(0.0997202 0.000752344 0.00197126)
(0.100865 0.000742362 -0.00275678)
(0.0990645 0.00102204 -0.00335787)
(0.0954423 0.00127108 0.000845279)
(0.0942535 0.00138942 0.0041275)
(0.100236 0.000636872 0.00239632)
(0.100764 0.000690735 -0.00290278)
(0.100043 0.000860808 -0.00315336)
(0.0955573 0.00115597 0.00112676)
(0.0951287 0.00118427 0.00236047)
(0.100493 0.000494096 0.00163304)
(0.101176 0.000506963 -0.00269189)
(0.100387 0.000834323 -0.00357913)
(0.0951056 0.00112068 0.000806175)
(0.0952445 0.00109715 0.00314135)
(0.0993013 0.000454612 0.00275538)
(0.102138 0.000420706 -0.00267615)
(0.100914 0.000678271 -0.00388364)
(0.108042 0.00109179 -0.00173149)
(0.104868 0.0012596 0.00234686)
(0.110145 0.000263742 0.00440152)
(0.111738 0.000455613 -0.00114466)
(0.112651 0.000871551 -0.00488035)
(0.106664 0.00141909 -0.00198777)
(0.10477 0.00150297 0.00159971)
(0.1089 0.000533201 0.00415584)
(0.111114 0.000495435 -0.000675117)
(0.11117 0.000998067 -0.0042792)
(0.107392 0.00130903 -0.00109244)
(0.104802 0.00132934 0.00239487)
(0.11064 0.00027418 0.00418202)
(0.111431 0.000422771 -0.00021801)
(0.11358 0.000857683 -0.00488329)
(0.108788 0.00121902 -0.00232415)
(0.105415 0.00134254 0.00247856)
(0.110197 0.000439865 0.0047682)
(0.110422 0.000692471 -0.000403959)
(0.111073 0.00117427 -0.00435474)
(0.106256 0.00157118 -0.00209561)
(0.104942 0.00149499 0.0018783)
(0.109139 0.000692937 0.00407134)
(0.111324 0.00062694 -0.000992259)
(0.110415 0.00115793 -0.00446701)
(0.106824 0.00149776 -0.00106491)
(0.104029 0.00150297 0.00435072)
(0.109716 0.000413147 0.00504999)
(0.111261 0.000449864 -0.00111516)
(0.111409 0.000941981 -0.00422787)
(0.107023 0.00137639 -0.000158106)
(0.104726 0.0012629 0.00299448)
(0.11012 0.000240932 0.00382245)
(0.111608 0.000222782 -0.00088604)
(0.111933 0.0008914 -0.00447585)
(0.106621 0.00136969 -0.000786482)
(0.105028 0.00121984 0.0034328)
(0.108748 0.000151832 0.00524213)
(0.112059 4.70785e-05 -0.000380177)
(0.112211 0.00070161 -0.00439252)
(0.118757 0.00119573 -0.00311578)
(0.114373 0.00142645 0.00123503)
(0.118607 2.38757e-05 0.00596906)
(0.120271 -2.63807e-05 0.00201449)
(0.122514 0.00067166 -0.00425869)
(0.117615 0.00154866 -0.00350166)
(0.114145 0.0016565 0.000543528)
(0.117627 0.00037194 0.00540149)
(0.119756 0.000101031 0.00219799)
(0.120811 0.000879981 -0.00383558)
(0.118062 0.00149437 -0.00272326)
(0.114053 0.00152996 0.00131982)
(0.119222 8.89582e-05 0.00536962)
(0.119878 8.077e-06 0.00273968)
(0.12285 0.000679717 -0.00390051)
(0.119695 0.00139008 -0.00403399)
(0.114985 0.00152612 0.000953534)
(0.119247 0.000212316 0.00601245)
(0.119615 0.000251222 0.00251209)
(0.121049 0.00101691 -0.00370106)
(0.116885 0.0017392 -0.00356691)
(0.11417 0.00162907 0.000616584)
(0.117624 0.00057284 0.00534345)
(0.120235 0.000324957 0.00186212)
(0.120388 0.0010831 -0.00418804)
(0.117602 0.00166033 -0.00334676)
(0.113746 0.00162715 0.00277817)
(0.118353 0.000148697 0.00682549)
(0.120241 -2.6276e-05 0.00188521)
(0.121315 0.000766241 -0.00409592)
(0.117987 0.00152967 -0.00200372)
(0.114281 0.0013852 0.00224491)
(0.118829 -2.45153e-05 0.005383)
(0.120493 -0.000283067 0.00196761)
(0.121947 0.000670398 -0.00405198)
(0.11762 0.00152836 -0.00271638)
(0.114764 0.00141947 0.00218342)
(0.117618 -0.000102361 0.00673853)
(0.120396 -0.000549419 0.0029019)
(0.121821 0.000433379 -0.00358274)
(0.127758 0.00107079 -0.00367343)
(0.123377 0.00153022 -0.000766035)
(0.126341 -7.72907e-05 0.00549418)
(0.127361 -0.000509297 0.0048118)
(0.129947 0.0002194 -0.0021268)
(0.126992 0.00146179 -0.00421837)
(0.123069 0.00172018 -0.00137764)
(0.125564 0.000279888 0.00476556)
(0.127101 -0.000320659 0.00470268)
(0.128338 0.00049544 -0.00190366)
(0.127175 0.00146309 -0.00354262)
(0.122833 0.00166797 -0.000629376)
(0.126894 3.1876e-05 0.00464586)
(0.127127 -0.000390453 0.00503318)
(0.129796 0.00025837 -0.00151286)
(0.128691 0.00134833 -0.00462068)
(0.123897 0.00164988 -0.00140104)
(0.127245 8.55149e-05 0.00521224)
(0.127431 -0.000225939 0.00501816)
(0.128989 0.000603391 -0.00166404)
(0.126168 0.00170723 -0.00419321)
(0.122968 0.00165823 -0.00149749)
(0.125286 0.000438746 0.00461963)
(0.12762 -5.26786e-05 0.00436522)
(0.128297 0.000774716 -0.00227259)
(0.126799 0.00164468 -0.0046672)
(0.122922 0.00168662 -8.72189e-05)
(0.126191 -1.59055e-05 0.00627612)
(0.127709 -0.000532933 0.00463048)
(0.129033 0.000325292 -0.0023985)
(0.127355 0.00148485 -0.00330638)
(0.123442 0.00146507 0.000295047)
(0.126685 -0.000154854 0.00508001)
(0.127882 -0.000780455 0.00448505)
(0.129685 0.000185354 -0.00212365)
(0.12703 0.00144408 -0.00382137)
(0.123926 0.00157051 -0.000149276)
(0.125894 -0.000145888 0.00601033)
(0.127478 -0.00107633 0.00558246)
(0.129135 -8.55411e-05 -0.00140985)
(0.134122 0.000729908 -0.0029157)
(0.131013 0.00141245 -0.00226475)
(0.132819 -6.68629e-05 0.00324007)
(0.133269 -0.000724376 0.00552548)
(0.13502 -0.000164973 0.000388971)
(0.133746 0.00115844 -0.00352059)
(0.130751 0.00156913 -0.00279835)
(0.132224 0.000240459 0.0024906)
(0.13321 -0.000532411 0.00520096)
(0.133818 0.000116346 0.000377718)
(0.133825 0.00118048 -0.00295031)
(0.130459 0.00158045 -0.00205207)
(0.133148 5.969e-05 0.00244319)
(0.133183 -0.000539523 0.00520131)
(0.134701 -0.000114812 0.00093059)
(0.134872 0.00108009 -0.00362241)
(0.131361 0.00156176 -0.00299857)
(0.13361 4.78946e-05 0.00271726)
(0.133728 -0.000485246 0.00551071)
(0.134681 0.000205093 0.000669194)
(0.133102 0.00147003 -0.0034258)
(0.130619 0.00150245 -0.00299944)
(0.131816 0.000299789 0.00224696)
(0.133551 -0.000329929 0.00485465)
(0.134035 0.000443556 9.53539e-05)
(0.133522 0.00140924 -0.00419941)
(0.130713 0.00156146 -0.00244)
(0.132707 -6.26132e-05 0.00363154)
(0.133695 -0.000798196 0.00529426)
(0.134472 -0.000102644 -0.000136774)
(0.134081 0.00120187 -0.00323821)
(0.131284 0.00136177 -0.00150558)
(0.133229 -0.000155674 0.00302086)
(0.13383 -0.000988626 0.00503608)
(0.135054 -0.00024169 0.000177651)
(0.133861 0.00109774 -0.0034257)
(0.131586 0.00148839 -0.00202256)
(0.13282 -3.45231e-05 0.00342965)
(0.133455 -0.00122403 0.00597981)
(0.134332 -0.000502125 0.000887203)
(0.137749 0.000422127 -0.00152967)
(0.13641 0.00107351 -0.00231698)
(0.137252 -9.64441e-05 0.0010281)
(0.137433 -0.000679874 0.00409211)
(0.138209 -0.000226354 0.00167926)
(0.13764 0.000851515 -0.00201101)
(0.136275 0.00120854 -0.00270887)
(0.136926 0.000143014 0.000358571)
(0.137443 -0.00052542 0.00369463)
(0.137523 -9.61981e-06 0.00145683)
(0.137747 0.000841349 -0.00162594)
(0.136106 0.0012535 -0.0020462)
(0.137425 2.28648e-05 0.000535519)
(0.137333 -0.000469478 0.00353962)
(0.137974 -0.000211401 0.00190433)
(0.138208 0.000789277 -0.0019366)
(0.136613 0.00124231 -0.00285635)
(0.137751 -3.79813e-05 0.00045717)
(0.13784 -0.000505272 0.00396247)
(0.138208 5.80217e-05 0.00177908)
(0.137301 0.00119711 -0.00192166)
(0.136187 0.00118186 -0.00290167)
(0.136598 0.000113589 0.000120632)
(0.137555 -0.000458136 0.00337085)
(0.137758 0.000277687 0.00125168)
(0.137539 0.00110704 -0.00261296)
(0.136269 0.00123494 -0.00290687)
(0.137197 -0.000116479 0.00101221)
(0.137666 -0.000793315 0.00378833)
(0.137918 -0.000241838 0.00110076)
(0.137887 0.000863767 -0.00216719)
(0.136777 0.00105139 -0.00197526)
(0.137706 -0.00016685 0.000907673)
(0.137805 -0.000910281 0.0035948)
(0.138326 -0.000337054 0.00131256)
(0.137797 0.000720729 -0.00212693)
(0.136875 0.00115173 -0.00231784)
(0.137498 3.21909e-05 0.000962438)
(0.137611 -0.00103943 0.00424706)
(0.137798 -0.000537857 0.00181817)
(0.139293 0.000286389 -0.000538114)
(0.139208 0.000710104 -0.00143813)
(0.139438 -0.000157616 8.93201e-05)
(0.139365 -0.000550003 0.0021958)
(0.139646 -0.000124103 0.00148398)
(0.139295 0.000670228 -0.000810408)
(0.139186 0.000829522 -0.00161996)
(0.139394 2.21111e-05 -0.000427232)
(0.139394 -0.000443254 0.00185654)
(0.139387 1.57546e-05 0.00118254)
(0.139417 0.000597399 -0.000647462)
(0.139178 0.000869259 -0.00118663)
(0.139594 -5.89923e-05 -8.93723e-05)
(0.139238 -0.000350995 0.00175534)
(0.139559 -0.000160452 0.00147998)
(0.139474 0.000603217 -0.000763705)
(0.139338 0.000874018 -0.00169534)
(0.139696 -0.000144201 -0.000336769)
(0.139538 -0.00042557 0.00204882)
(0.139669 5.53356e-05 0.00146975)
(0.139177 0.000979973 -0.000781582)
(0.139173 0.000853242 -0.00178037)
(0.139233 -4.79507e-05 -0.000585679)
(0.139362 -0.000482952 0.0016114)
(0.139469 0.000197501 0.00100559)
(0.139326 0.000858654 -0.00124175)
(0.139198 0.000864895 -0.00197873)
(0.139472 -0.000179745 -9.00081e-05)
(0.139402 -0.000671387 0.00189661)
(0.139508 -0.000203752 0.00101736)
(0.139413 0.00062064 -0.0011297)
(0.139495 0.000699158 -0.00136591)
(0.139845 -0.000208932 -1.31114e-05)
(0.139533 -0.000726272 0.00180074)
(0.139709 -0.000250493 0.00110744)
(0.139381 0.000486941 -0.00102598)
(0.139472 0.000762874 -0.00149275)
(0.139735 -2.84169e-06 -8.65532e-05)
(0.139492 -0.000769717 0.00221518)
(0.139511 -0.000370854 0.00137469)
(0.139707 0.000217417 -0.000130841)
(0.140044 0.00044626 -0.00064416)
(0.14007 -0.000179935 -1.46655e-05)
(0.139807 -0.000415 0.000997556)
(0.139848 -5.56101e-05 0.000845731)
(0.139732 0.000534389 -0.000257508)
(0.140077 0.000553246 -0.000661408)
(0.140163 -3.08139e-05 -0.000366626)
(0.139857 -0.000354899 0.000772373)
(0.139837 2.93775e-05 0.000584803)
(0.139816 0.000413728 -0.000238077)
(0.140105 0.000568868 -0.000450201)
(0.140201 -0.00010971 -2.24727e-05)
(0.139715 -0.000255651 0.000755429)
(0.139869 -0.000123335 0.000796697)
(0.139722 0.000456493 -0.000278409)
(0.140139 0.00059294 -0.000714498)
(0.140203 -0.000182953 -0.000262658)
(0.139831 -0.000322807 0.000887613)
(0.139847 3.97717e-05 0.000790116)
(0.139685 0.000761585 -0.000276341)
(0.140127 0.000602073 -0.00078551)
(0.140122 -0.000103065 -0.000456578)
(0.139779 -0.000427375 0.000608385)
(0.139793 0.000120378 0.000424293)
(0.139789 0.000639023 -0.000536266)
(0.140113 0.000581548 -0.00097766)
(0.140159 -0.000192153 -0.000170276)
(0.139802 -0.000522382 0.000785039)
(0.139828 -0.000166301 0.00054291)
(0.139749 0.000439155 -0.000558096)
(0.14021 0.000449661 -0.00065789)
(0.140354 -0.000217358 -0.000117497)
(0.139874 -0.000542321 0.000729758)
(0.139898 -0.000182943 0.000555335)
(0.139726 0.000342269 -0.00046557)
(0.140144 0.000483479 -0.000660175)
(0.140307 -4.61856e-05 -0.000191011)
(0.139908 -0.000542848 0.00100623)
(0.139895 -0.000248204 0.000667033)
(0.139737 0.000158143 4.83781e-06)
(0.140077 0.000273556 -0.00025567)
(0.140093 -0.000174758 2.76755e-05)
(0.139791 -0.00029816 0.000454898)
(0.139706 -4.46841e-05 0.00041972)
(0.139755 0.000406759 -6.56965e-05)
(0.140122 0.000366766 -0.000211723)
(0.140205 -4.01179e-05 -0.000206976)
(0.139853 -0.000279621 0.000324092)
(0.139789 1.08752e-05 0.000235178)
(0.139807 0.000266489 -9.40942e-05)
(0.140117 0.00036736 -0.000110049)
(0.140174 -0.000137526 7.33843e-05)
(0.139731 -0.000188733 0.000345911)
(0.139774 -0.00011553 0.000400584)
(0.139693 0.000325725 -0.00010878)
(0.140139 0.000399837 -0.000244511)
(0.140174 -0.000181413 -0.00010735)
(0.13977 -0.000228203 0.000385778)
(0.139722 -2.16852e-06 0.000369383)
(0.139712 0.000553968 -9.64672e-05)
(0.140187 0.000415958 -0.000295811)
(0.140211 -0.00010898 -0.000263799)
(0.139778 -0.000336243 0.000210858)
(0.139713 5.28192e-05 9.89765e-05)
(0.139788 0.000449402 -0.000238415)
(0.140168 0.000381576 -0.000442131)
(0.140193 -0.000174427 -7.25643e-05)
(0.139809 -0.000384188 0.000325503)
(0.139758 -0.000147333 0.000243785)
(0.139727 0.000296554 -0.000293645)
(0.140174 0.000298302 -0.000273118)
(0.140277 -0.00020252 -6.48645e-05)
(0.139821 -0.000390461 0.000285564)
(0.139778 -0.000154593 0.000224453)
(0.139716 0.000239502 -0.0002231)
(0.140109 0.000314191 -0.000236862)
(0.140266 -6.93928e-05 -0.00011494)
(0.139876 -0.000377404 0.000487239)
(0.139827 -0.000192882 0.000267136)
(0.139703 0.000110101 5.09782e-05)
(0.139963 0.000161914 -0.0001144)
(0.139993 -0.000163802 3.38482e-05)
(0.139729 -0.000200284 0.00023148)
(0.139621 -5.13975e-05 0.000217334)
(0.139714 0.000302538 -5.79332e-06)
(0.140003 0.000238899 -6.8906e-05)
(0.140089 -4.4032e-05 -0.000129464)
(0.13979 -0.000215191 0.000157137)
(0.139719 -7.54377e-06 9.5013e-05)
(0.13975 0.000158197 -3.50631e-05)
(0.139976 0.000237797 -4.33638e-06)
(0.140044 -0.000157376 8.10131e-05)
(0.139678 -0.000137096 0.000185529)
(0.139693 -0.000110117 0.000226854)
(0.13965 0.000221876 -4.32334e-05)
(0.139997 0.000269304 -7.50972e-05)
(0.140051 -0.00017415 -4.43735e-05)
(0.139701 -0.000149215 0.00019057)
(0.139657 -3.53793e-05 0.000185677)
(0.139669 0.000387916 -3.40499e-05)
(0.140056 0.000281317 -0.000117089)
(0.140104 -0.000107838 -0.000171445)
(0.139728 -0.000244094 7.66492e-05)
(0.139655 1.00799e-05 -1.29934e-05)
(0.139725 0.000305628 -0.000116394)
(0.140042 0.000241464 -0.000228516)
(0.140079 -0.000155778 -3.34285e-05)
(0.139758 -0.000268246 0.000149953)
(0.139697 -0.000129015 0.000114542)
(0.139675 0.000192616 -0.000168321)
(0.140028 0.000204596 -0.000120947)
(0.140124 -0.00018619 -4.20264e-05)
(0.13974 -0.000269844 0.000124682)
(0.139702 -0.000137229 8.95093e-05)
(0.139673 0.00016625 -0.000116009)
(0.139976 0.000209526 -8.32526e-05)
(0.140127 -8.57898e-05 -7.78013e-05)
(0.139793 -0.000253187 0.000279701)
(0.139749 -0.000163686 0.000106087)
(0.139667 7.26696e-05 6.1799e-05)
(0.139851 9.74791e-05 -6.22397e-05)
(0.139886 -0.00015268 2.21303e-05)
(0.139672 -0.000124168 0.00013024)
(0.139591 -5.60993e-05 0.000117779)
(0.139672 0.000222214 8.7006e-06)
(0.139885 0.000155475 -3.1604e-05)
(0.139965 -4.71069e-05 -9.54371e-05)
(0.139726 -0.000161956 8.56456e-05)
(0.139679 -1.70294e-05 3.76871e-05)
(0.1397 8.22569e-05 -1.14752e-05)
(0.139852 0.000157381 1.73099e-05)
(0.139928 -0.00016635 5.61637e-05)
(0.13962 -9.74329e-05 0.000110082)
(0.139651 -9.76745e-05 0.000142256)
(0.139619 0.000141525 -1.73224e-05)
(0.139865 0.00018834 -1.88764e-05)
(0.139932 -0.000165301 -2.65649e-05)
(0.139645 -8.88311e-05 0.000104507)
(0.139633 -5.17027e-05 0.000103187)
(0.13963 0.00026391 -1.59207e-05)
(0.139921 0.000191871 -5.38852e-05)
(0.139977 -0.000106047 -0.000127799)
(0.139673 -0.000165964 2.99236e-05)
(0.139633 -1.65663e-05 -4.41536e-05)
(0.139673 0.000201674 -6.60222e-05)
(0.13991 0.000152669 -0.000140931)
(0.139953 -0.000138566 -2.91844e-05)
(0.139697 -0.000177629 7.14158e-05)
(0.139666 -0.000107547 5.57586e-05)
(0.139635 0.000119602 -0.000106085)
(0.139898 0.000149222 -6.40978e-05)
(0.13999 -0.000170948 -3.89368e-05)
(0.13967 -0.000176249 5.95363e-05)
(0.139668 -0.00011735 3.4278e-05)
(0.139637 0.000113553 -6.66076e-05)
(0.139861 0.000148791 -3.15446e-05)
(0.139998 -9.7839e-05 -6.63457e-05)
(0.139714 -0.000160238 0.000182192)
(0.139705 -0.00013803 4.10104e-05)
(0.139623 3.9148e-05 5.7103e-05)
(0.139744 6.77103e-05 -3.58467e-05)
(0.139785 -0.000140817 1.11238e-05)
(0.139612 -6.99273e-05 7.68741e-05)
(0.139563 -5.2335e-05 6.22722e-05)
(0.139626 0.000157901 8.58236e-06)
(0.139774 0.000105751 -1.9679e-05)
(0.139848 -4.78802e-05 -7.43815e-05)
(0.139657 -0.000120042 4.75453e-05)
(0.139637 -1.70772e-05 9.85451e-06)
(0.139647 2.8264e-05 -4.6136e-06)
(0.139741 0.000110261 1.7139e-05)
(0.139823 -0.00016291 3.2295e-05)
(0.139559 -6.84439e-05 6.63818e-05)
(0.139609 -7.79366e-05 9.18361e-05)
(0.139583 7.82444e-05 -8.49693e-06)
(0.139746 0.000141753 2.57984e-06)
(0.139822 -0.000153043 -1.91061e-05)
(0.139586 -4.6396e-05 5.8289e-05)
(0.139604 -5.17696e-05 5.92685e-05)
(0.139588 0.000170995 -1.38684e-05)
(0.139796 0.000138584 -2.6351e-05)
(0.139856 -0.000102272 -9.85692e-05)
(0.139611 -0.000106242 1.0589e-05)
(0.139604 -2.80183e-05 -4.9341e-05)