/*--------------------------------*- C++ -*----------------------------------*\
  =========                 |
  \\      /  F ield         | OpenFOAM: The Open Source CFD Toolbox
   \\    /   O peration     | Website:  https://openfoam.org
    \\  /    A nd           | Version:  10
     \\/     M anipulation  |
\*---------------------------------------------------------------------------*/
FoamFile
{
    format      ascii;
    class       volSymmTensorField;
    location    "17";
    object      UPrime2Mean;
}
// * * * * * * * * * * * * * * * * * * * * * * * * * * * * * * * * * * * * * //

dimensions      [0 2 -2 0 0 0 0];

internalField   nonuniform List<symmTensor> 
25600
(
(1.56844e-05 7.51262e-08 1.72592e-06 5.74819e-10 2.77665e-09 2.02568e-06)
(1.72932e-05 6.01802e-09 7.33689e-06 9.92443e-11 2.34049e-09 4.51762e-06)
(1.73193e-05 -4.50646e-08 4.24892e-06 3.12475e-10 -6.80211e-09 2.40745e-06)
(1.70468e-05 -5.83595e-08 -3.07385e-06 4.45287e-10 1.44654e-08 2.89767e-06)
(1.43288e-05 1.11883e-08 -4.10622e-06 2.64502e-10 -9.24782e-09 3.19272e-06)
(1.45318e-05 6.89966e-08 9.92047e-07 5.70439e-10 -4.3227e-10 1.63712e-06)
(1.63534e-05 2.09155e-08 6.74394e-06 1.14522e-10 7.78595e-09 4.19665e-06)
(1.7659e-05 -3.61078e-08 4.37658e-06 2.05797e-10 -4.63376e-09 2.54806e-06)
(1.84685e-05 -6.15724e-08 -3.64765e-06 3.84509e-10 1.69084e-08 3.79388e-06)
(1.37536e-05 1.98384e-08 -5.07562e-06 2.2655e-10 -1.08995e-08 4.68083e-06)
(1.76801e-05 7.92787e-08 1.93018e-06 5.26982e-10 7.71136e-09 2.03123e-06)
(1.63705e-05 5.84438e-09 7.19184e-06 1.27531e-10 4.81206e-09 4.21743e-06)
(1.8092e-05 -4.84808e-08 4.16236e-06 2.39173e-10 -7.76026e-09 2.04591e-06)
(1.66552e-05 -6.21968e-08 -3.02281e-06 4.29327e-10 1.73371e-08 2.98619e-06)
(1.41937e-05 1.79554e-08 -4.75831e-06 2.35943e-10 -1.03947e-08 4.02632e-06)
(1.53891e-05 7.10969e-08 1.1763e-06 5.41047e-10 -2.49114e-10 1.90328e-06)
(1.73074e-05 8.70756e-09 7.44577e-06 1.15919e-10 1.33562e-09 4.38346e-06)
(1.81599e-05 -4.40584e-08 4.08515e-06 2.70828e-10 -6.91606e-09 2.07554e-06)
(1.84396e-05 -8.04848e-08 -3.31824e-06 6.0582e-10 1.98412e-08 2.99302e-06)
(1.40045e-05 1.11199e-08 -4.53153e-06 2.54011e-10 -1.07436e-08 3.82985e-06)
(1.54323e-05 7.78777e-08 1.4087e-06 5.54316e-10 3.30792e-09 1.89147e-06)
(1.55962e-05 1.09082e-08 7.3104e-06 1.56846e-10 5.69955e-09 4.60162e-06)
(1.86898e-05 -5.32261e-08 4.10738e-06 2.67525e-10 -8.04185e-09 2.0664e-06)
(1.66453e-05 -7.96879e-08 -2.37835e-06 5.70743e-10 1.6631e-08 2.13022e-06)
(1.47994e-05 1.45899e-08 -4.88704e-06 2.78912e-10 -1.19285e-08 3.55094e-06)
(1.47304e-05 8.06975e-08 1.34067e-06 7.35004e-10 -3.57251e-10 1.61776e-06)
(1.72316e-05 2.00524e-09 7.00264e-06 1.01357e-10 -1.63033e-09 4.19123e-06)
(1.64959e-05 -5.19644e-08 4.27651e-06 3.40056e-10 -8.16498e-09 2.62571e-06)
(1.67816e-05 -6.31492e-08 -3.48129e-06 4.4526e-10 1.71254e-08 3.59731e-06)
(1.41703e-05 1.84646e-08 -5.0022e-06 2.81152e-10 -1.32371e-08 4.34488e-06)
(1.51451e-05 7.64047e-08 1.40736e-06 6.31192e-10 -1.05929e-09 1.89473e-06)
(1.73205e-05 1.641e-08 7.27378e-06 1.23056e-10 5.02979e-09 4.189e-06)
(1.65913e-05 -3.95558e-08 4.05171e-06 2.26321e-10 -6.0569e-09 2.06814e-06)
(1.69416e-05 -6.46607e-08 -2.50264e-06 4.33728e-10 1.36319e-08 2.77479e-06)
(1.37886e-05 2.21102e-08 -4.94034e-06 2.68099e-10 -1.25091e-08 4.31661e-06)
(1.74853e-05 7.7516e-08 2.0294e-06 5.44242e-10 6.85132e-09 1.91323e-06)
(1.68181e-05 -1.04363e-09 6.92497e-06 1.08845e-10 9.09159e-10 4.13232e-06)
(1.65724e-05 -3.98561e-08 4.07255e-06 2.4168e-10 -3.20755e-09 2.55303e-06)
(1.73111e-05 -6.02962e-08 -3.86451e-06 3.69193e-10 1.76186e-08 3.58019e-06)
(1.26349e-05 1.68919e-08 -3.9839e-06 2.28582e-10 -1.26005e-08 3.8253e-06)
(0.000147851 6.69048e-07 1.15357e-05 1.17482e-08 -4.66723e-08 1.91014e-05)
(0.000167294 2.0436e-07 6.65742e-05 9.22151e-09 7.47364e-08 3.96119e-05)
(0.000166309 -9.40565e-07 4.50289e-05 1.17346e-08 -3.60165e-07 2.42892e-05)
(0.000160191 -1.107e-06 -2.42731e-05 2.04699e-08 3.44465e-08 2.52406e-05)
(0.000131461 -5.68216e-08 -3.98809e-05 1.209e-08 -1.34806e-07 3.16702e-05)
(0.00013637 9.95213e-07 4.73721e-06 1.64096e-08 -9.81899e-08 1.58291e-05)
(0.000158076 2.96107e-07 6.16817e-05 6.53939e-09 7.39091e-08 3.70753e-05)
(0.00016932 -8.92867e-07 4.66648e-05 1.22308e-08 -4.07851e-07 2.60512e-05)
(0.000173218 -1.16603e-06 -2.94626e-05 2.32143e-08 4.88872e-08 3.30889e-05)
(0.000125873 -2.35943e-11 -4.90931e-05 1.24513e-08 -1.79203e-07 4.57256e-05)
(0.000167216 7.40398e-07 1.31229e-05 1.28279e-08 8.50426e-08 1.87075e-05)
(0.000158372 3.59248e-07 6.58165e-05 7.24036e-09 2.3088e-07 3.7097e-05)
(0.000173317 -8.0244e-07 4.34928e-05 1.02976e-08 -3.10991e-07 2.07457e-05)
(0.000155698 -7.2532e-07 -2.40063e-05 1.77054e-08 5.7819e-08 2.5607e-05)
(0.000129976 -8.23351e-08 -4.57845e-05 1.28795e-08 -4.96951e-08 3.90823e-05)
(0.000145414 7.07658e-07 6.29192e-06 1.36565e-08 -5.8775e-08 1.81537e-05)
(0.000166652 -2.58191e-07 6.7921e-05 6.08354e-09 -1.2494e-07 3.88541e-05)
(0.000174062 -9.13458e-07 4.38309e-05 1.21029e-08 -3.61008e-07 2.14679e-05)
(0.00017306 -1.49249e-06 -2.65572e-05 2.8551e-08 1.10813e-07 2.64341e-05)
(0.000127907 6.81055e-08 -4.35498e-05 1.30754e-08 -1.98497e-07 3.76351e-05)
(0.000145338 7.92069e-07 8.25348e-06 1.39734e-08 -5.25713e-08 1.77307e-05)
(0.000151419 1.72044e-07 6.66038e-05 6.72584e-09 6.95824e-08 3.98443e-05)
(0.00017956 -9.45616e-07 4.35966e-05 1.4559e-08 -4.25476e-07 2.12289e-05)
(0.000156301 -1.36083e-06 -1.75581e-05 2.65802e-08 -4.49159e-09 1.87624e-05)
(0.000134677 -6.78912e-08 -4.67592e-05 1.49725e-08 -2.46356e-07 3.54744e-05)
(0.000139379 1.13874e-06 7.76293e-06 2.0465e-08 -1.37401e-07 1.5855e-05)
(0.00016667 -1.82856e-07 6.45655e-05 8.08743e-09 -1.52923e-07 3.78484e-05)
(0.000159253 -1.03663e-06 4.59068e-05 1.65089e-08 -4.47603e-07 2.67958e-05)
(0.000156962 -1.03754e-06 -2.85111e-05 2.4612e-08 4.97198e-08 3.19027e-05)
(0.000129032 -4.2428e-08 -4.76828e-05 1.6142e-08 -1.82807e-07 4.28325e-05)
(0.000142457 8.35993e-07 8.11559e-06 1.51215e-08 -1.01152e-07 1.81175e-05)
(0.00016778 1.12779e-07 6.6819e-05 7.82166e-09 5.01571e-08 3.7443e-05)
(0.000160015 -7.43905e-07 4.26833e-05 1.15027e-08 -3.31653e-07 2.12092e-05)
(0.000159159 -1.21296e-06 -1.89089e-05 2.46018e-08 3.36572e-08 2.40914e-05)
(0.000126219 -9.72514e-08 -4.7252e-05 1.29185e-08 -9.69758e-08 4.20538e-05)
(0.000165057 8.30426e-07 1.41433e-05 1.38118e-08 8.06533e-08 1.78413e-05)
(0.000162851 2.93906e-07 6.30372e-05 7.67551e-09 1.66399e-07 3.64554e-05)
(0.000159186 -7.77652e-07 4.37019e-05 1.08893e-08 -2.97404e-07 2.57454e-05)
(0.000161995 -9.35435e-07 -3.21449e-05 1.9005e-08 6.9705e-08 3.10999e-05)
(0.000115725 -7.70483e-09 -3.84691e-05 1.33809e-08 -1.88384e-07 3.7289e-05)
(0.000398502 9.03529e-07 2.04875e-05 5.47783e-08 -4.45972e-07 5.8269e-05)
(0.000473347 -3.29067e-07 0.000189655 6.56977e-08 2.31141e-09 0.000114319)
(0.000465411 -3.41917e-06 0.000142947 7.34514e-08 -1.64407e-06 7.63468e-05)
(0.000431694 -2.7887e-06 -5.25291e-05 1.06638e-07 -6.32905e-07 7.13363e-05)
(0.000344093 -1.14686e-07 -0.000116151 8.09995e-08 -7.05725e-07 9.83492e-05)
(0.000367222 2.95686e-06 1.73029e-06 7.46611e-08 -6.77327e-07 4.96945e-05)
(0.0004389 9.49503e-08 0.000171516 3.99618e-08 -1.89639e-07 0.000105715)
(0.000470156 -3.52789e-06 0.000148854 8.169e-08 -1.94911e-06 8.2537e-05)
(0.000471676 -3.2548e-06 -7.19057e-05 1.28772e-07 -6.04926e-07 9.66152e-05)
(0.00032978 1.28184e-07 -0.000145895 8.73118e-08 -9.53718e-07 0.000141681)
(0.000462373 9.14987e-07 2.64131e-05 5.62546e-08 9.95375e-08 5.72977e-05)
(0.000440708 1.06685e-06 0.000181878 4.80647e-08 7.87745e-07 0.000104876)
(0.000483396 -2.81757e-06 0.000135782 6.67567e-08 -1.31021e-06 6.49765e-05)
(0.000419334 -1.59129e-06 -5.52467e-05 9.26768e-08 -1.98229e-07 7.29603e-05)
(0.000341497 -4.31204e-07 -0.000134847 9.11786e-08 -1.95928e-07 0.000120139)
(0.00039745 1.43767e-06 7.09987e-06 6.17018e-08 -4.20181e-07 5.66898e-05)
(0.000466444 -2.61417e-06 0.000189712 5.28897e-08 -1.16176e-06 0.000112158)
(0.000486843 -3.48008e-06 0.000140168 7.76322e-08 -1.69322e-06 6.88091e-05)
(0.000472083 -4.74546e-06 -6.34929e-05 1.50604e-07 -2.79541e-07 7.81562e-05)
(0.000336958 8.19526e-07 -0.00012849 9.28935e-08 -1.16238e-06 0.00011692)
(0.000401426 1.81537e-06 1.40336e-05 6.08777e-08 -4.61402e-07 5.52143e-05)
(0.000417482 -2.29925e-07 0.000181266 4.61943e-08 -1.87738e-07 0.000109609)
(0.000506474 -3.62975e-06 0.000137882 9.76989e-08 -1.97392e-06 6.72692e-05)
(0.00042137 -4.01803e-06 -3.71723e-05 1.43669e-07 -6.72967e-07 5.54332e-05)
(0.000355131 2.4627e-07 -0.000137766 1.14253e-07 -1.40543e-06 0.000111882)
(0.00037631 3.07601e-06 1.00101e-05 9.53626e-08 -9.23743e-07 5.0654e-05)
(0.000475161 -2.1384e-06 0.00018739 6.45317e-08 -1.1798e-06 0.000113574)
(0.000432487 -3.71567e-06 0.000147586 1.01353e-07 -2.07439e-06 8.52449e-05)
(0.00042641 -2.65534e-06 -7.5096e-05 1.32788e-07 -5.90762e-07 9.63145e-05)
(0.000336664 -8.09503e-08 -0.000138847 1.10278e-07 -9.75766e-07 0.000132569)
(0.000388712 1.43891e-06 1.03909e-05 6.84222e-08 -6.97925e-07 5.64578e-05)
(0.000471923 -2.81037e-07 0.00018855 6.23919e-08 -2.73857e-08 0.00010871)
(0.000439939 -2.62056e-06 0.000134499 7.77457e-08 -1.49497e-06 6.71414e-05)
(0.00043003 -3.89805e-06 -4.04625e-05 1.34845e-07 -3.61528e-07 6.96353e-05)
(0.000324182 -6.19729e-08 -0.000135983 8.84081e-08 -5.98906e-07 0.000128787)
(0.000456392 1.49937e-06 3.10658e-05 6.12095e-08 8.15855e-08 5.5927e-05)
(0.000451424 5.83174e-07 0.000171404 5.10512e-08 4.71151e-07 0.000102456)
(0.000436514 -2.93675e-06 0.000140083 6.80225e-08 -1.35986e-06 8.11487e-05)
(0.000443177 -2.56666e-06 -8.52375e-05 1.04951e-07 -3.08632e-07 9.24014e-05)
(0.000300531 1.76959e-07 -0.000112809 9.8008e-08 -1.00962e-06 0.000114184)
(0.00066761 -2.08722e-06 1.42787e-05 1.83829e-07 -9.29624e-07 0.000126064)
(0.000833547 -3.78177e-06 0.000327304 2.65058e-07 -5.44257e-07 0.000216196)
(0.000809351 -6.09476e-06 0.000294874 2.33756e-07 -3.83223e-06 0.00016538)
(0.000733132 -2.89482e-06 -4.73645e-05 3.23948e-07 -2.68912e-06 0.000137855)
(0.000546793 -3.48278e-07 -0.000205358 3.05476e-07 -1.64948e-06 0.000206552)
(0.000599494 4.81022e-06 -2.69866e-05 1.84219e-07 -1.62014e-06 0.00010873)
(0.000778186 -2.67327e-06 0.000305756 1.42706e-07 -1.64846e-06 0.000209372)
(0.000812172 -7.60285e-06 0.000308864 2.73872e-07 -5.02909e-06 0.000179535)
(0.000811917 -4.21616e-06 -8.55908e-05 4.08352e-07 -2.70692e-06 0.000191514)
(0.000511679 9.24345e-08 -0.000257456 3.37927e-07 -2.29128e-06 0.000293361)
(0.000781013 -2.59989e-06 1.27752e-05 1.77631e-07 5.82046e-07 0.000120169)
(0.000758006 1.74309e-06 0.000297907 1.80578e-07 1.96595e-06 0.000186666)
(0.000832971 -5.24097e-06 0.000272559 2.26277e-07 -2.8589e-06 0.000138596)
(0.00069953 1.66339e-06 -5.12982e-05 3.23471e-07 -1.58499e-06 0.000138199)
(0.000537041 -1.32092e-06 -0.000239921 3.58081e-07 -2.48011e-08 0.00024939)
(0.000663157 4.33543e-08 -1.73532e-05 1.72191e-07 -6.41431e-07 0.000122451)
(0.000805062 -7.90766e-06 0.000317925 2.16279e-07 -3.04254e-06 0.000208598)
(0.00083647 -7.3567e-06 0.000286932 2.55061e-07 -4.22403e-06 0.000150637)
(0.000798179 -8.6663e-06 -6.19459e-05 4.29015e-07 -1.44477e-06 0.000150307)
(0.000520601 1.67653e-06 -0.000216947 3.44525e-07 -2.84203e-06 0.000238178)
(0.000645044 3.4348e-07 -1.31693e-05 1.66676e-07 -1.04719e-06 0.000115482)
(0.000730459 -1.26538e-06 0.000314638 1.60087e-07 -6.95054e-07 0.000205781)
(0.000864373 -7.85568e-06 0.000285867 3.30302e-07 -4.98828e-06 0.000146332)
(0.00072793 -3.78523e-06 -3.84111e-05 4.41299e-07 -3.35167e-06 0.000120553)
(0.000540388 1.56841e-06 -0.000230836 4.77751e-07 -4.02126e-06 0.000227717)
(0.0006293 2.24703e-06 -3.33932e-06 2.44876e-07 -2.57232e-06 0.00011622)
(0.000807063 -8.23206e-06 0.00030436 2.72417e-07 -3.80028e-06 0.000206982)
(0.000784612 -7.6635e-06 0.000306751 3.18282e-07 -5.11977e-06 0.000186552)
(0.000731454 -1.31833e-06 -9.86897e-05 4.19727e-07 -3.27915e-06 0.000194351)
(0.000519532 1.58816e-06 -0.000238606 4.03137e-07 -3.26078e-06 0.000271207)
(0.000617024 -1.44369e-06 -1.87629e-05 2.10387e-07 -1.58012e-06 0.000120515)
(0.000821688 -4.63582e-06 0.000320443 2.52192e-07 -1.08822e-06 0.000204023)
(0.000785664 -5.03132e-06 0.000275065 2.69835e-07 -3.52378e-06 0.000145182)
(0.000738523 -5.51242e-06 -3.40026e-05 4.13546e-07 -1.75749e-06 0.00014214)
(0.000520433 1.67872e-07 -0.000245861 3.26654e-07 -1.52367e-06 0.000268535)
(0.00076332 -1.75606e-06 1.87869e-05 1.82615e-07 2.06763e-07 0.000117465)
(0.000797988 -4.5551e-07 0.000298379 1.76545e-07 7.60403e-07 0.000199212)
(0.000768541 -5.39277e-06 0.000290368 2.16152e-07 -3.10875e-06 0.000176286)
(0.000740391 -1.06572e-06 -9.8972e-05 3.40567e-07 -2.49569e-06 0.000168787)
(0.000467716 1.01239e-06 -0.000200619 3.86489e-07 -2.78816e-06 0.000236916)
(0.000844178 -1.25333e-05 -1.93384e-05 6.65777e-07 3.21429e-08 0.000214492)
(0.00117433 -1.41414e-05 0.000443907 7.77931e-07 -2.17856e-06 0.000336646)
(0.00110213 -6.62749e-06 0.000467571 5.64307e-07 -5.51019e-06 0.000285493)
(0.00100645 1.41107e-06 3.85498e-06 8.41882e-07 -4.97643e-06 0.000229057)
(0.000666672 6.29161e-07 -0.000259245 9.22688e-07 -2.30997e-06 0.000342597)
(0.000759143 1.61506e-06 -7.16653e-05 3.59579e-07 -1.70332e-06 0.000193832)
(0.00107478 -6.82086e-06 0.000401479 3.92467e-07 -2.47456e-06 0.000323007)
(0.00111679 -9.7003e-06 0.000482264 6.34389e-07 -8.57224e-06 0.000305595)
(0.00108933 2.13058e-06 -7.18181e-06 1.09966e-06 -7.11547e-06 0.000277348)
(0.000616608 2.18567e-06 -0.000319412 9.86305e-07 -4.19065e-06 0.000461469)
(0.000951731 -1.49109e-05 -5.96585e-05 6.79885e-07 3.4914e-06 0.000192032)
(0.000993681 -8.40024e-07 0.000341413 4.9472e-07 3.28016e-06 0.000245826)
(0.00111748 -6.07437e-06 0.000412256 5.65116e-07 -3.76329e-06 0.000232119)
(0.000922138 1.38203e-05 1.91738e-05 1.13573e-06 -3.42008e-06 0.000209337)
(0.000663789 -1.63131e-06 -0.000312238 1.11664e-06 1.57864e-06 0.000408075)
(0.000818995 -6.01895e-06 -7.88174e-05 5.04556e-07 1.40891e-06 0.000205429)
(0.0011511 -2.00817e-05 0.000451149 7.08765e-07 -6.50214e-06 0.000346979)
(0.00113959 -9.25518e-06 0.000447297 5.92827e-07 -6.77435e-06 0.00025961)
(0.00104589 -6.24273e-06 2.07745e-05 9.71003e-07 -3.9095e-06 0.000223558)
(0.000637402 5.51149e-06 -0.000270623 1.04403e-06 -5.51762e-06 0.000386236)
(0.000817229 -6.31065e-06 -5.16102e-05 4.7913e-07 -2.08842e-07 0.000201498)
(0.000998481 -3.79472e-06 0.000398429 4.58873e-07 -5.29203e-07 0.000294341)
(0.00118806 -1.06333e-05 0.000448205 7.97648e-07 -8.52595e-06 0.000250883)
(0.000965148 3.24609e-06 3.28499e-05 1.28431e-06 -7.50032e-06 0.000188719)
(0.000654158 7.53932e-06 -0.000279085 1.50431e-06 -9.22787e-06 0.000356208)
(0.000743532 -2.83047e-06 -6.40855e-05 6.22096e-07 -2.82515e-06 0.000203164)
(0.00111059 -1.96325e-05 0.000404685 8.1801e-07 -7.51374e-06 0.000327677)
(0.00106505 -9.73611e-06 0.000484809 7.15232e-07 -8.14715e-06 0.000324628)
(0.000968441 6.1194e-06 -3.36501e-05 1.16663e-06 -6.96162e-06 0.000286258)
(0.00062497 4.95895e-06 -0.000302108 1.15458e-06 -6.50874e-06 0.000434665)
(0.000827818 -7.79602e-06 -3.68915e-05 6.05565e-07 -3.85171e-07 0.000220453)
(0.00110636 -1.34471e-05 0.000398075 8.13984e-07 -1.8392e-06 0.000292815)
(0.00111004 -5.97827e-06 0.000424705 6.85769e-07 -5.37395e-06 0.000246448)
(0.00097212 -4.51483e-07 7.0721e-05 1.06486e-06 -4.55212e-06 0.000198365)
(0.000642975 3.28565e-07 -0.000302093 9.68189e-07 -1.36479e-06 0.000412448)
(0.00093631 -8.90815e-06 -4.14468e-05 5.85249e-07 3.17736e-06 0.000195345)
(0.00106313 -5.97252e-06 0.000358901 4.66308e-07 3.03295e-07 0.000284847)
(0.00104117 -5.28852e-06 0.000456742 5.18054e-07 -4.07461e-06 0.000304046)
(0.000993118 6.04472e-06 -5.6289e-05 9.99974e-07 -5.43768e-06 0.000258727)
(0.000567438 3.67191e-06 -0.000246786 1.15486e-06 -5.1555e-06 0.000372894)
(0.000770212 -2.51521e-05 -8.2406e-05 2.2386e-06 7.13022e-06 0.000277577)
(0.00130145 -3.22158e-05 0.000472737 2.0302e-06 -4.18953e-06 0.000445472)
(0.00128814 -1.86353e-06 0.000585541 1.28301e-06 -4.46972e-06 0.000396838)
(0.00115871 1.1396e-05 0.000132165 2.28011e-06 -4.51093e-06 0.000290376)
(0.000630461 7.06017e-06 -0.000192053 2.4582e-06 -2.79781e-06 0.000430865)
(0.000807415 -1.00764e-05 -7.03701e-05 1.05703e-06 2.07889e-06 0.000288394)
(0.00120042 -1.95344e-05 0.000382081 1.00742e-06 -4.80621e-06 0.000380005)
(0.00129895 -1.21356e-05 0.000600179 1.28882e-06 -1.19897e-05 0.000419605)
(0.00130271 1.902e-05 8.85243e-05 2.91145e-06 -1.29746e-05 0.000384772)
(0.000631856 1.03378e-05 -0.000283305 2.48335e-06 -6.34827e-06 0.000552008)
(0.000970229 -3.66257e-05 -8.49822e-05 2.73759e-06 1.18286e-05 0.000270351)
(0.00109034 -8.10022e-06 0.000317186 1.22079e-06 5.53674e-06 0.000286626)
(0.00123545 -3.8774e-06 0.000501661 1.26415e-06 -2.47926e-06 0.000320653)
(0.00107857 3.47019e-05 0.000113452 3.59366e-06 -2.62878e-06 0.000300665)
(0.000627326 1.03807e-06 -0.000256607 3.1831e-06 6.46466e-06 0.000507592)
(0.000870095 -1.57707e-05 -8.53893e-05 1.71518e-06 8.86251e-06 0.00028275)
(0.00115909 -3.66588e-05 0.000367633 1.89075e-06 -8.39225e-06 0.00035866)
(0.00124417 -7.59964e-06 0.000519189 1.24815e-06 -7.67722e-06 0.000351181)
(0.0011391 7.38287e-06 0.000165007 2.42883e-06 -6.34104e-06 0.000285452)
(0.000623495 1.02187e-05 -0.000214225 2.88516e-06 -4.96352e-06 0.000480413)
(0.000879243 -1.66846e-05 -3.56275e-05 1.58531e-06 5.28363e-06 0.000296346)
(0.00118067 -1.28995e-05 0.000416612 1.18189e-06 -3.92206e-07 0.000360185)
(0.0013068 -1.2177e-05 0.000563282 1.66526e-06 -1.12635e-05 0.000354938)
(0.00112726 2.25365e-05 9.96525e-05 3.86913e-06 -1.34741e-05 0.000302061)
(0.000657159 1.72378e-05 -0.000231495 4.1719e-06 -1.45466e-05 0.000432748)
(0.000709364 -1.71382e-05 -0.000104964 2.05849e-06 2.70829e-06 0.000294157)
(0.00124081 -3.59844e-05 0.000442069 2.04856e-06 -1.06632e-05 0.000450571)
(0.00122777 -4.49602e-06 0.000617633 1.44542e-06 -7.87996e-06 0.000464856)
(0.00109529 1.98368e-05 8.78165e-05 3.14434e-06 -8.04731e-06 0.000376596)
(0.000675441 6.72172e-06 -0.000273974 3.04279e-06 -5.5461e-06 0.000519635)
(0.000746843 -1.88353e-05 -0.000106756 2.03833e-06 6.9319e-06 0.000287779)
(0.00125135 -3.50531e-05 0.000442935 2.22868e-06 -5.28833e-06 0.000403584)
(0.00129744 -3.69102e-06 0.000542456 1.51849e-06 -5.6884e-06 0.000351597)
(0.00116385 1.19507e-05 0.00017439 2.71748e-06 -5.92883e-06 0.000282503)
(0.000683132 1.87203e-06 -0.000262723 2.77186e-06 2.36057e-06 0.000476458)
(0.00093151 -2.35449e-05 -8.20147e-05 2.25231e-06 1.25469e-05 0.000276147)
(0.00119444 -8.03691e-06 0.000376314 1.19744e-06 5.48613e-06 0.000379934)
(0.00116374 -8.55372e-07 0.000579047 1.19194e-06 -2.33757e-06 0.000431355)
(0.00113664 1.86431e-05 3.09196e-05 2.85452e-06 -5.70787e-06 0.000359782)
(0.00061371 6.83753e-06 -0.000213231 3.04953e-06 -4.41071e-06 0.000444848)
(0.000705152 -3.84408e-05 -4.52666e-05 6.25779e-06 1.53977e-05 0.000283082)
(0.00105385 -5.0972e-05 0.000286326 4.82897e-06 -3.93618e-06 0.000360496)
(0.00112739 -1.64005e-06 0.000529884 2.68762e-06 -3.85582e-06 0.000414318)
(0.00114979 2.74378e-05 0.00019783 5.40213e-06 -4.29548e-06 0.000380149)
(0.00066193 1.69997e-05 -0.000136334 5.72527e-06 1.85705e-07 0.000477466)
(0.000692469 -2.07808e-05 -7.22502e-05 3.38641e-06 1.13705e-05 0.000311654)
(0.00107613 -4.20388e-05 0.000307887 2.84291e-06 -9.25803e-06 0.000405521)
(0.00117154 -1.65257e-05 0.000549933 2.45902e-06 -1.54261e-05 0.000438805)
(0.00129235 3.16115e-05 0.00023025 6.22964e-06 -1.349e-05 0.000404436)
(0.000632991 2.28537e-05 -0.000171083 5.57668e-06 -5.55212e-06 0.000473384)
(0.000690823 -4.7932e-05 -9.27186e-05 7.27973e-06 2.26507e-05 0.000270045)
(0.000930412 -2.3136e-05 0.00025049 2.75652e-06 6.75221e-06 0.000313485)
(0.00117037 -4.97626e-06 0.00048055 2.49218e-06 -1.12478e-06 0.000355944)
(0.00115314 5.86173e-05 0.000218684 8.60415e-06 1.66673e-06 0.000342487)
(0.000562563 1.34081e-05 -0.000119169 7.29997e-06 9.17809e-06 0.000452556)
(0.000747285 -3.01117e-05 -4.49549e-05 5.34358e-06 1.80906e-05 0.000289556)
(0.000977058 -4.59548e-05 0.000251036 3.89838e-06 -3.38809e-06 0.000345456)
(0.00108169 -7.45766e-06 0.000485558 2.50418e-06 -7.03383e-06 0.000397806)
(0.0011363 2.44664e-05 0.000216185 6.05466e-06 -7.10588e-06 0.000389429)
(0.000654859 1.62868e-05 -0.000152583 7.27343e-06 2.10319e-06 0.000500991)
(0.000682866 -2.71442e-05 -4.6701e-05 4.95543e-06 1.56541e-05 0.000300895)
(0.00112267 -3.33878e-05 0.000353036 3.03633e-06 -1.86453e-06 0.000384398)
(0.00119095 -1.77586e-05 0.000540982 3.18747e-06 -1.45654e-05 0.000396014)
(0.00115303 4.52077e-05 0.00019603 9.64633e-06 -1.83264e-05 0.000348929)
(0.000666342 3.20723e-05 -0.000165362 9.73522e-06 -1.66027e-05 0.000448731)
(0.000590524 -3.45704e-05 -8.32883e-05 6.62305e-06 1.30132e-05 0.000312283)
(0.0010537 -4.97984e-05 0.000345776 4.59338e-06 -9.42064e-06 0.000460545)
(0.00109889 -1.33989e-06 0.000588369 2.96577e-06 -6.89089e-06 0.000515584)
(0.0011486 3.52453e-05 0.000183787 7.1017e-06 -6.48555e-06 0.000444584)
(0.00061215 1.52299e-05 -0.000143302 7.18183e-06 -3.45678e-06 0.000471477)
(0.000602655 -3.28913e-05 -6.86525e-05 6.08995e-06 1.49917e-05 0.000289123)
(0.00092461 -5.73121e-05 0.000267444 5.66593e-06 -8.10866e-06 0.000341786)
(0.00113083 -7.81636e-06 0.000505724 2.92849e-06 -7.65111e-06 0.000392492)
(0.00121815 2.39739e-05 0.00022901 5.91428e-06 -5.0977e-06 0.000372626)
(0.000671451 1.66422e-05 -0.000143079 6.21881e-06 1.99385e-06 0.000420701)
(0.000610085 -3.85597e-05 -9.56669e-05 6.94769e-06 2.37625e-05 0.000276353)
(0.00111699 -1.80023e-05 0.000344771 3.08966e-06 1.06581e-05 0.000432839)
(0.00109808 2.99094e-07 0.000566055 2.59157e-06 -1.14168e-06 0.000472974)
(0.00114494 3.76328e-05 0.000155662 6.72262e-06 -6.49876e-06 0.000396387)
(0.000624157 1.23004e-05 -0.000142501 7.09051e-06 1.39068e-06 0.000451967)
(0.000500898 -3.95817e-05 -2.89864e-05 1.18805e-05 1.80174e-05 0.000238354)
(0.000692147 -5.47229e-05 0.000165685 8.60878e-06 -3.35711e-06 0.000281915)
(0.000773434 -1.24544e-05 0.000357794 4.80604e-06 -7.08007e-06 0.000339644)
(0.00100406 3.32906e-05 0.000204634 1.02372e-05 -5.02993e-06 0.00036891)
(0.000623994 2.98655e-05 -3.84222e-05 1.06488e-05 4.42644e-06 0.000404615)
(0.000516504 -2.18602e-05 -4.75269e-05 7.26435e-06 1.7737e-05 0.000273051)
(0.000699096 -4.6193e-05 0.000173722 5.7055e-06 -7.09495e-06 0.000312766)
(0.000820941 -1.90945e-05 0.000360238 4.63715e-06 -1.6948e-05 0.000350135)
(0.00108127 2.67449e-05 0.000271626 1.03076e-05 -1.12328e-05 0.000355324)
(0.000628007 3.49421e-05 -7.97397e-05 1.02637e-05 2.37819e-07 0.000378146)
(0.000507513 -4.1196e-05 -5.61437e-05 1.14313e-05 2.52421e-05 0.000234917)
(0.000668734 -3.24295e-05 0.000168564 5.47282e-06 6.01528e-06 0.000266557)
(0.000805176 -1.04435e-05 0.000328603 4.61749e-06 -1.74983e-06 0.000302821)
(0.00102902 6.23315e-05 0.000282257 1.45742e-05 9.24619e-06 0.000323602)
(0.000601385 2.61204e-05 -6.94702e-05 1.38226e-05 1.62705e-05 0.000394832)
(0.000583591 -3.38477e-05 -2.94423e-05 1.10724e-05 2.42276e-05 0.00024921)
(0.000683239 -4.331e-05 0.000147951 6.60989e-06 3.40839e-06 0.000284148)
(0.000778408 -1.38299e-05 0.000356918 4.52675e-06 -7.19301e-06 0.00036653)
(0.00102741 3.00788e-05 0.000187487 1.14992e-05 -6.7901e-06 0.000423897)
(0.000640996 3.20796e-05 -6.5589e-05 1.34133e-05 5.31304e-06 0.000421052)
(0.000451386 -3.11003e-05 -4.62423e-05 1.05837e-05 2.13589e-05 0.000249843)
(0.000754781 -4.90025e-05 0.000194509 6.62953e-06 -3.81249e-06 0.000302674)
(0.000792503 -2.55605e-05 0.000369841 5.79089e-06 -1.82445e-05 0.000345008)
(0.0010386 4.98901e-05 0.000193909 1.68264e-05 -2.00801e-05 0.000364522)
(0.000621049 4.90901e-05 -6.49254e-05 1.79084e-05 -1.30927e-05 0.000376354)
(0.000424943 -3.33257e-05 -4.8654e-05 1.26226e-05 1.71765e-05 0.000267996)
(0.000695901 -4.83169e-05 0.000211259 7.84395e-06 -5.7915e-06 0.000364288)
(0.00074207 -7.96223e-06 0.00039362 5.46317e-06 -9.91432e-06 0.000422983)
(0.000998232 3.67725e-05 0.000251369 1.2386e-05 -4.89329e-06 0.000402915)
(0.000545887 3.09076e-05 -2.23601e-05 1.33744e-05 -1.74539e-06 0.000375141)
(0.000412877 -3.07194e-05 -4.39849e-05 1.12199e-05 1.72666e-05 0.000246583)
(0.00059463 -5.54735e-05 0.00017542 9.42102e-06 -6.57587e-06 0.000293123)
(0.000793878 -1.67319e-05 0.000353758 5.20065e-06 -1.20436e-05 0.000340813)
(0.0010552 2.55255e-05 0.000253317 1.03151e-05 -6.20346e-06 0.000349304)
(0.00060452 3.68508e-05 -2.2268e-05 1.15946e-05 2.02683e-06 0.000343471)
(0.000485019 -3.9218e-05 -2.23881e-05 1.24234e-05 2.33986e-05 0.00025134)
(0.000755525 -3.70864e-05 0.000204836 6.10975e-06 3.14744e-06 0.000327037)
(0.000799721 -1.11418e-05 0.0003883 4.976e-06 -6.29754e-06 0.000382294)
(0.00103313 4.35686e-05 0.00021599 1.21096e-05 -5.06409e-06 0.000370357)
(0.000603734 2.4198e-05 -4.87207e-05 1.26754e-05 6.18773e-06 0.000378416)
(0.000365709 -2.35889e-05 -1.44984e-05 1.54938e-05 1.66067e-05 0.00019445)
(0.000405064 -4.27817e-05 7.65885e-05 1.11756e-05 -3.76529e-06 0.000196657)
(0.000443724 -2.03932e-05 0.00018611 7.70297e-06 -9.75194e-06 0.000228328)
(0.000680501 1.86847e-05 0.000151907 1.47238e-05 -5.19755e-06 0.000253829)
(0.00054686 3.52165e-05 2.59447e-05 1.58734e-05 7.83958e-06 0.000289688)
(0.000371227 -1.20779e-05 -2.8683e-05 1.11088e-05 1.82732e-05 0.000216596)
(0.000407498 -3.61163e-05 9.98585e-05 8.05014e-06 -6.12411e-06 0.000229092)
(0.000511393 -2.25883e-05 0.0001969 7.2692e-06 -1.63281e-05 0.00023838)
(0.000724076 7.50811e-06 0.000167545 1.38803e-05 -1.13601e-05 0.00025768)
(0.000571195 4.1184e-05 -9.03163e-06 1.49414e-05 4.02381e-06 0.000270788)
(0.000351116 -2.39701e-05 -4.41877e-05 1.39942e-05 2.20143e-05 0.000184235)
(0.000437827 -2.98933e-05 0.000107211 8.15951e-06 3.33639e-06 0.000207284)
(0.000490966 -1.41312e-05 0.00019026 7.50987e-06 -2.84344e-06 0.0002178)
(0.000762429 4.22002e-05 0.000201681 1.92073e-05 7.69993e-06 0.000258013)
(0.000558439 3.89086e-05 7.65263e-06 2.06313e-05 1.79468e-05 0.000276581)
(0.000360754 -2.01857e-05 -3.8103e-05 1.64626e-05 2.61373e-05 0.000195413)
(0.000432347 -3.18738e-05 9.76382e-05 8.85125e-06 5.38424e-06 0.000230128)
(0.000487243 -1.92283e-05 0.000204469 7.29668e-06 -8.03543e-06 0.000267738)
(0.000717699 1.94065e-05 0.000157801 1.65911e-05 -7.1037e-06 0.000292896)
(0.000564085 4.33272e-05 8.05966e-06 1.98423e-05 6.60016e-06 0.000304303)
(0.000331714 -2.25134e-05 -1.90558e-05 1.57283e-05 1.90714e-05 0.000200293)
(0.000425549 -4.13581e-05 8.16795e-05 9.25894e-06 -3.95578e-06 0.000209774)
(0.000439843 -2.71091e-05 0.000191796 8.73831e-06 -1.93677e-05 0.000242927)
(0.000725558 3.15718e-05 0.000135791 2.21133e-05 -1.93302e-05 0.000269411)
(0.000549965 5.69607e-05 -1.46064e-07 2.62318e-05 -6.16236e-06 0.000283869)
(0.000314071 -2.04957e-05 -3.19189e-05 1.8073e-05 1.62202e-05 0.000215122)
(0.000388399 -3.59175e-05 9.39424e-05 1.01794e-05 -4.00015e-06 0.000245428)
(0.00045811 -1.43439e-05 0.000211158 8.56136e-06 -1.20548e-05 0.000281806)
(0.000729956 2.08979e-05 0.00018091 1.72871e-05 -7.17522e-06 0.000299947)
(0.000510418 4.05967e-05 1.68646e-05 2.01545e-05 1.49916e-06 0.000296414)
(0.000326897 -1.81878e-05 -3.04673e-05 1.52501e-05 1.63933e-05 0.000202562)
(0.000359483 -4.28835e-05 9.5214e-05 1.17016e-05 -5.98882e-06 0.000219034)
(0.000477123 -2.09923e-05 0.00019557 7.99397e-06 -1.38792e-05 0.0002383)
(0.000718968 1.23945e-05 0.000167787 1.49227e-05 -8.90657e-06 0.000258728)
(0.000562749 4.53808e-05 1.94621e-05 1.79834e-05 4.94908e-06 0.000276165)
(0.000356281 -2.76108e-05 -2.08634e-05 1.73268e-05 2.08388e-05 0.000208692)
(0.000435748 -3.35161e-05 0.000107503 9.24209e-06 -1.70639e-06 0.00023292)
(0.000492875 -1.94717e-05 0.0002024 8.62886e-06 -1.03703e-05 0.000250671)
(0.000737665 2.61505e-05 0.000187114 1.66657e-05 -3.8407e-06 0.000258948)
(0.000552016 3.3779e-05 1.79944e-05 1.76543e-05 7.93747e-06 0.000278499)
(0.000266829 -3.85647e-06 -4.95044e-06 1.67296e-05 1.24842e-05 0.000145439)
(0.000244797 -2.44308e-05 3.03194e-05 1.20074e-05 -3.6957e-06 0.000140437)
(0.000236176 -1.85998e-05 7.42308e-05 1.02054e-05 -9.07149e-06 0.000136918)
(0.00035928 2.10803e-06 6.81646e-05 1.75864e-05 -4.9838e-06 0.000141691)
(0.000395965 2.69685e-05 3.43314e-05 1.89609e-05 6.372e-06 0.000174565)
(0.000273656 1.91351e-06 -9.35547e-06 1.34072e-05 1.34575e-05 0.000152959)
(0.000231633 -2.08042e-05 4.44193e-05 9.39198e-06 -5.22818e-06 0.000153146)
(0.00027214 -1.93023e-05 7.80222e-05 9.43442e-06 -1.26286e-05 0.000139615)
(0.000353725 -7.08387e-06 7.54929e-05 1.61697e-05 -1.07371e-05 0.000139366)
(0.000414911 3.38847e-05 2.22267e-05 1.68853e-05 6.38784e-07 0.000162264)
(0.000258864 -6.14051e-06 -1.76651e-05 1.45823e-05 1.22115e-05 0.000131472)
(0.00025355 -1.97472e-05 3.74064e-05 9.56512e-06 -7.49166e-07 0.000131743)
(0.000246896 -1.31114e-05 7.6402e-05 9.9287e-06 -4.90088e-06 0.000129788)
(0.000399802 1.51168e-05 9.73147e-05 2.16709e-05 1.65417e-06 0.000146294)
(0.000428965 4.13544e-05 4.42615e-05 2.45282e-05 1.26171e-05 0.000169393)
(0.000259197 -1.09158e-06 -1.02223e-05 1.92136e-05 1.97381e-05 0.000145448)
(0.000252374 -1.8622e-05 4.33025e-05 9.82115e-06 2.69732e-06 0.000157593)
(0.000260686 -1.68962e-05 8.30077e-05 9.85251e-06 -7.49492e-06 0.00016123)
(0.000394267 3.97522e-06 8.02691e-05 2.0076e-05 -6.43079e-06 0.000166335)
(0.000428314 3.89351e-05 2.63207e-05 2.36454e-05 4.34789e-06 0.000189734)
(0.000259175 -6.43822e-06 -9.85474e-08 1.7538e-05 1.27653e-05 0.000148461)
(0.000233992 -2.29462e-05 2.21829e-05 9.61235e-06 -3.32947e-06 0.000139014)
(0.000226321 -1.93251e-05 6.86484e-05 1.08605e-05 -1.59569e-05 0.000142256)
(0.000368817 8.72164e-06 6.37999e-05 2.41022e-05 -1.48877e-05 0.000149324)
(0.000414942 4.9051e-05 1.58698e-05 3.04533e-05 -3.51903e-06 0.000184674)
(0.000243861 -2.32948e-06 -1.38837e-05 2.08992e-05 1.14693e-05 0.000160136)
(0.000216742 -2.02015e-05 2.71852e-05 1.13142e-05 -2.92762e-06 0.000158741)
(0.000234837 -1.63549e-05 7.94464e-05 1.10792e-05 -1.10935e-05 0.000162117)
(0.000399004 2.57483e-06 7.6594e-05 2.11263e-05 -8.3903e-06 0.000172914)
(0.000388649 3.68675e-05 2.73086e-05 2.50365e-05 1.11069e-06 0.000191138)
(0.000251336 -1.1599e-06 -1.47212e-05 1.74256e-05 1.18999e-05 0.000151747)