/*--------------------------------*- C++ -*----------------------------------*\
  =========                 |
  \\      /  F ield         | OpenFOAM: The Open Source CFD Toolbox
   \\    /   O peration     | Website:  https://openfoam.org
    \\  /    A nd           | Version:  10
     \\/     M anipulation  |
\*---------------------------------------------------------------------------*/
FoamFile
{
    format      ascii;
    class       volVectorField;
    location    "10";
    object      UMean;
}
// * * * * * * * * * * * * * * * * * * * * * * * * * * * * * * * * * * * * * //

dimensions      [0 1 -1 0 0 0 0];

internalField   nonuniform List<vector> 
25600
(
(1.05454 -8.05875e-09 -5.10823e-07)
(1.05454 2.39277e-09 -7.23252e-07)
(1.05454 4.11705e-07 -5.60066e-07)
(1.05454 1.12359e-07 -6.13452e-07)
(1.05454 7.37002e-07 -7.77794e-07)
(1.05454 4.07543e-07 -3.98528e-07)
(1.05454 9.35244e-07 -8.5853e-07)
(1.05454 8.59981e-07 -4.49939e-07)
(1.05454 9.84163e-07 -8.09839e-07)
(1.05454 1.18318e-06 -5.35296e-07)
(1.05454 8.85444e-07 -6.87831e-07)
(1.05454 1.38001e-06 -6.7191e-07)
(1.05454 7.87952e-07 -4.55063e-07)
(1.05454 1.23398e-06 -8.91491e-07)
(1.05454 7.86107e-07 -3.34326e-07)
(1.05454 8.34505e-07 -8.0827e-07)
(1.05454 6.53149e-07 -4.3705e-07)
(1.05454 3.76626e-07 -4.29387e-07)
(1.05454 5.5262e-07 -7.69087e-07)
(1.05454 -1.70349e-07 -1.54142e-07)
(1.05454 3.64118e-07 -6.03605e-07)
(1.05454 -4.54202e-07 -3.03846e-07)
(1.05454 -7.31194e-08 -2.05235e-07)
(1.05454 -2.26191e-07 -5.25476e-07)
(1.05454 -8.0201e-07 1.4657e-08)
(1.05454 -8.30212e-09 -4.75092e-07)
(1.05454 -9.90262e-07 -6.80381e-08)
(1.05454 -3.18001e-07 -1.98283e-07)
(1.05454 -4.41243e-07 -4.29077e-07)
(1.05454 -8.66783e-07 5.18069e-08)
(1.05454 -1.79049e-07 -5.98339e-07)
(1.05454 -8.74422e-07 -7.02021e-08)
(1.05454 -2.86515e-07 -5.87975e-07)
(1.05454 -5.17271e-07 -3.39384e-07)
(1.05454 -5.12376e-07 -3.90847e-07)
(1.05454 -2.44266e-07 -7.60232e-07)
(1.05454 -5.91672e-07 -2.71002e-07)
(1.05454 -3.06359e-08 -7.76741e-07)
(1.05454 -4.21007e-07 -5.08989e-07)
(1.05454 -5.55847e-08 -6.9457e-07)
(1.05454 -1.08149e-07 -4.61194e-07)
(1.05454 4.25566e-07 -9.85563e-07)
(1.05454 4.0922e-07 -3.99688e-07)
(1.05454 4.42158e-07 -7.97977e-07)
(1.05454 8.20527e-07 -7.56228e-07)
(1.05454 5.81843e-07 -3.72433e-07)
(1.05454 1.18255e-06 -9.85758e-07)
(1.05454 7.74324e-07 -3.40498e-07)
(1.05454 1.46792e-06 -8.52405e-07)
(1.05454 1.05894e-06 -5.82815e-07)
(1.05454 1.20685e-06 -5.97186e-07)
(1.05454 1.40792e-06 -7.83335e-07)
(1.05454 7.95519e-07 -3.52251e-07)
(1.05454 1.50073e-06 -9.09066e-07)
(1.05454 5.82904e-07 -3.59277e-07)
(1.05454 1.08401e-06 -7.30489e-07)
(1.05454 5.11034e-07 -5.92167e-07)
(1.05454 4.62702e-07 -2.32781e-07)
(1.05454 4.91664e-07 -9.55123e-07)
(1.05454 -1.84151e-07 -1.0989e-07)
(1.05454 3.48292e-07 -5.62478e-07)
(1.05454 -5.42556e-07 -5.10485e-07)
(1.05454 2.95535e-08 -9.19361e-08)
(1.05454 -3.72785e-07 -7.19255e-07)
(1.05454 -6.59723e-07 -4.43715e-08)
(1.05454 -1.00783e-07 -4.82605e-07)
(1.05454 -9.82885e-07 -2.69011e-07)
(1.05454 -1.69233e-07 -2.76367e-07)
(1.05454 -6.48399e-07 -4.49001e-07)
(1.05454 -5.07224e-07 -2.25814e-07)
(1.05454 -3.03452e-07 -5.71021e-07)
(1.05454 -6.58948e-07 -2.81452e-07)
(1.05454 -5.73748e-08 -7.15178e-07)
(1.05454 -5.44165e-07 -3.73433e-07)
(1.05454 9.59177e-09 -7.07548e-07)
(1.05454 -3.00981e-07 -6.68601e-07)
(1.05454 -1.07341e-07 -6.16196e-07)
(1.05454 6.80774e-08 -7.30716e-07)
(1.05454 -2.30061e-07 -6.77896e-07)
(1.05454 3.50859e-07 -8.49331e-07)
(1.05454 6.86735e-08 -4.96875e-07)
(1.05454 7.46618e-07 -1.149e-06)
(1.05454 4.20106e-07 -2.93293e-07)
(1.05454 9.16534e-07 -9.86651e-07)
(1.05454 7.89158e-07 -6.26957e-07)
(1.05454 1.00942e-06 -5.30744e-07)
(1.05454 1.33144e-06 -8.99793e-07)
(1.05454 9.54497e-07 -3.90812e-07)
(1.05454 1.84644e-06 -8.44958e-07)
(1.05454 1.09541e-06 -5.38466e-07)
(1.05454 1.67645e-06 -6.91105e-07)
(1.05454 1.30047e-06 -6.82615e-07)
(1.05454 1.19457e-06 -4.65432e-07)
(1.05454 1.50163e-06 -8.07826e-07)
(1.05454 7.40158e-07 -4.6099e-07)
(1.05454 1.26265e-06 -6.98756e-07)
(1.05454 5.049e-07 -6.29141e-07)
(1.05454 6.19142e-07 -2.90456e-07)
(1.05454 3.73821e-07 -8.70503e-07)
(1.05454 1.14592e-07 -2.68637e-07)
(1.05454 1.1132e-07 -5.03111e-07)
(1.05454 -2.53466e-07 -5.90264e-07)
(1.05454 -7.82286e-08 -2.05011e-07)
(1.05454 -3.86629e-07 -6.49003e-07)
(1.05454 -4.18986e-07 -2.81101e-07)
(1.05454 -3.4303e-07 -3.78625e-07)
(1.05454 -6.542e-07 -4.33558e-07)
(1.05454 -2.87773e-07 -4.1901e-07)
(1.05454 -6.58717e-07 -3.48871e-07)
(1.05454 -1.20002e-07 -6.10739e-07)
(1.05454 -5.50688e-07 -3.96428e-07)
(1.05454 -1.66245e-07 -6.22166e-07)
(1.05454 -8.91919e-08 -7.11739e-07)
(1.05454 -2.9043e-07 -4.72024e-07)
(1.05454 4.02834e-07 -9.84447e-07)
(1.05454 -2.71584e-07 -4.93201e-07)
(1.05454 4.29036e-07 -1.08871e-06)
(1.05454 3.50268e-08 -5.38269e-07)
(1.05454 2.49316e-07 -9.65752e-07)
(1.05454 5.10728e-07 -8.79009e-07)
(1.05454 5.79511e-07 -7.32598e-07)
(1.05454 8.48053e-07 -1.03823e-06)
(1.05454 7.37813e-07 -4.0271e-07)
(1.05454 1.24694e-06 -9.76282e-07)
(1.05454 9.38164e-07 -5.10784e-07)
(1.05454 1.47512e-06 -7.1349e-07)
(1.05454 1.45784e-06 -6.45301e-07)
(1.05454 1.41157e-06 -6.12476e-07)
(1.05454 1.96229e-06 -6.38825e-07)
(1.05454 1.48563e-06 -5.68219e-07)
(1.05454 1.95919e-06 -7.1841e-07)
(1.05454 1.35974e-06 -4.82994e-07)
(1.05454 1.73695e-06 -6.78078e-07)
(1.05454 1.39417e-06 -5.55884e-07)
(1.05454 1.2469e-06 -6.23442e-07)
(1.05454 1.2765e-06 -5.90571e-07)
(1.05454 7.88267e-07 -6.13581e-07)
(1.05454 6.65955e-07 -4.28795e-07)
(1.05454 4.94805e-07 -6.30556e-07)
(1.05454 4.00881e-07 -5.31796e-07)
(1.05454 -1.07332e-08 -3.60344e-07)
(1.05454 1.61407e-07 -6.60953e-07)
(1.05454 -2.42646e-07 -3.2319e-07)
(1.05454 -1.66375e-07 -5.18276e-07)
(1.05454 -3.3735e-07 -5.21388e-07)
(1.05454 -2.99233e-07 -2.65078e-07)
(1.05454 -4.52716e-07 -5.56839e-07)
(1.05454 -2.99064e-07 -4.94223e-07)
(1.05454 -5.21298e-07 -3.13751e-07)
(1.05454 8.14614e-08 -8.48216e-07)
(1.05454 -5.83975e-07 -3.21408e-07)
(1.05454 3.19433e-07 -9.31527e-07)
(1.05454 -8.22636e-08 -6.38124e-07)
(1.05454 2.51865e-07 -7.56388e-07)
(1.05454 5.90399e-07 -1.03662e-06)
(1.05454 1.28617e-07 -5.7502e-07)
(1.05454 8.07984e-07 -1.3839e-06)
(1.05454 2.25733e-07 -3.99323e-07)
(1.05454 8.06767e-07 -1.29395e-06)
(1.05454 5.39141e-07 -7.30231e-07)
(1.05454 1.10711e-06 -9.20843e-07)
(1.05454 9.89853e-07 -7.9382e-07)
(1.05454 1.28243e-06 -6.39112e-07)
(1.05454 1.43974e-06 -7.20741e-07)
(1.05454 1.39288e-06 -5.48878e-07)
(1.05454 1.8489e-06 -6.98397e-07)
(1.05454 1.80441e-06 -4.43447e-07)
(1.05454 1.96262e-06 -8.06674e-07)
(1.05454 2.09669e-06 -3.24171e-07)
(1.05454 2.12945e-06 -6.96409e-07)
(1.05454 2.12978e-06 -5.49863e-07)
(1.05454 1.81412e-06 -4.29031e-07)
(1.05454 2.16585e-06 -7.69884e-07)
(1.05454 1.5689e-06 -3.22356e-07)
(1.05454 1.80267e-06 -8.28819e-07)
(1.05454 1.34551e-06 -4.05514e-07)
(1.05454 1.29208e-06 -7.16521e-07)
(1.05454 7.22995e-07 -4.62289e-07)
(1.05454 9.50589e-07 -4.94968e-07)
(1.05454 6.01174e-07 -7.03358e-07)
(1.05454 2.89336e-07 -2.7563e-07)
(1.05454 4.52224e-07 -7.65847e-07)
(1.05454 -2.21895e-08 -3.39349e-07)
(1.05454 3.32506e-08 -5.39351e-07)
(1.05454 -1.06188e-07 -5.76009e-07)
(1.05454 -9.33813e-08 -3.08842e-07)
(1.05454 -4.00964e-07 -5.59701e-07)
(1.05454 -6.91379e-08 -5.70004e-07)
(1.05454 -5.05702e-07 -3.87375e-07)
(1.05454 2.93714e-07 -9.1361e-07)
(1.05454 -4.43677e-07 -4.48837e-07)
(1.05454 7.79342e-07 -1.01921e-06)
(1.05454 5.99501e-08 -6.66812e-07)
(1.05454 9.4052e-07 -1.01293e-06)
(1.05454 6.68081e-07 -9.19275e-07)
(1.05454 9.31559e-07 -9.16971e-07)
(1.05454 9.60272e-07 -1.30366e-06)
(1.05454 8.67427e-07 -6.01614e-07)
(1.05454 1.12155e-06 -1.30935e-06)
(1.05454 8.32295e-07 -6.94616e-07)
(1.05454 1.30877e-06 -7.75473e-07)
(1.05454 1.49874e-06 -6.27231e-07)
(1.05454 1.69281e-06 -6.55598e-07)
(1.05454 1.7231e-06 -4.02164e-07)
(1.05454 1.97808e-06 -5.41442e-07)
(1.05454 2.18055e-06 -4.59104e-07)
(1.05454 2.37289e-06 -3.42301e-07)
(1.05454 2.48164e-06 -6.58484e-07)
(1.05454 2.44921e-06 -9.22771e-08)
(1.05454 2.75282e-06 -6.3102e-07)
(1.05454 2.43552e-06 -2.96822e-07)
(1.05454 2.45091e-06 -4.00629e-07)
(1.05454 2.52502e-06 -6.43436e-07)
(1.05454 2.05544e-06 -2.04118e-07)
(1.05454 2.22319e-06 -8.17089e-07)
(1.05454 1.66778e-06 -2.2287e-07)
(1.05454 1.80368e-06 -7.68687e-07)
(1.05454 1.00749e-06 -3.61973e-07)
(1.05454 1.5222e-06 -5.00754e-07)
(1.05454 8.7317e-07 -6.65452e-07)
(1.05454 8.21308e-07 -3.28662e-07)
(1.05454 7.15392e-07 -7.5536e-07)
(1.05454 5.02805e-07 -3.23192e-07)
(1.05454 2.03126e-07 -6.02498e-07)
(1.05454 4.16062e-07 -4.38e-07)
(1.05454 4.4867e-08 -5.05638e-07)
(1.05454 -1.55328e-07 -3.5937e-07)
(1.05454 1.15552e-07 -7.98659e-07)
(1.05454 -3.91484e-07 -3.35078e-07)
(1.05454 5.3473e-07 -9.98938e-07)
(1.05454 -1.63516e-07 -5.80563e-07)
(1.05454 1.21675e-06 -1.01007e-06)
(1.05454 3.4899e-07 -8.46915e-07)
(1.05454 1.68848e-06 -1.07792e-06)
(1.05454 8.56092e-07 -9.59783e-07)
(1.05454 1.99128e-06 -1.14372e-06)
(1.05454 1.02481e-06 -1.14676e-06)
(1.05454 1.90593e-06 -8.77727e-07)
(1.05454 1.11676e-06 -1.03018e-06)
(1.05454 1.61123e-06 -8.32904e-07)
(1.05454 1.18929e-06 -4.66573e-07)
(1.05454 2.52462e-06 -5.01241e-07)
(1.05454 1.62556e-06 -3.20303e-07)
(1.05454 2.52092e-06 -2.01271e-07)
(1.05454 2.24165e-06 -2.3032e-07)
(1.05454 2.84073e-06 -2.2222e-07)
(1.05454 2.7685e-06 -6.3306e-08)
(1.05454 3.06583e-06 -3.27615e-07)
(1.05454 2.82476e-06 1.4541e-07)
(1.05454 3.32953e-06 -3.32233e-07)
(1.05454 2.85884e-06 -7.7981e-08)
(1.05454 3.13175e-06 -2.25389e-07)
(1.05454 2.8453e-06 -4.96905e-07)
(1.05454 2.71551e-06 -6.18973e-08)
(1.05454 2.51092e-06 -7.50564e-07)
(1.05454 2.28845e-06 -4.63509e-08)
(1.05454 2.20487e-06 -8.13481e-07)
(1.05454 1.59842e-06 -2.03043e-07)
(1.05454 2.03776e-06 -6.35062e-07)
(1.05454 1.344e-06 -4.60099e-07)
(1.05454 1.44521e-06 -5.49932e-07)
(1.05454 1.07661e-06 -5.4681e-07)
(1.05454 1.13115e-06 -4.38112e-07)
(1.05454 4.97889e-07 -5.24884e-07)
(1.05454 1.00424e-06 -3.29813e-07)
(1.05454 2.27784e-07 -5.93779e-07)
(1.05454 2.75974e-07 -8.54259e-08)
(1.05454 2.05334e-07 -9.81509e-07)
(1.05454 -9.67492e-09 -1.37968e-07)
(1.05454 6.22477e-07 -1.16287e-06)
(1.05454 3.59997e-07 -5.16994e-07)
(1.05454 1.50109e-06 -1.07663e-06)
(1.05454 9.79542e-07 -8.89385e-07)
(1.05454 2.34648e-06 -1.08992e-06)
(1.05454 1.46234e-06 -1.05128e-06)
(1.05454 2.98271e-06 -1.13323e-06)
(1.05454 1.41093e-06 -1.13716e-06)
(1.05454 3.03521e-06 -8.94998e-07)
(1.05454 1.17123e-06 -8.15963e-07)
(1.05454 2.74797e-06 -8.63863e-07)
(1.05454 1.16719e-06 -4.4743e-08)
(1.05454 3.56752e-06 7.73613e-09)
(1.05454 1.39463e-06 1.96381e-07)
(1.05454 3.7125e-06 1.84533e-07)
(1.05454 2.05875e-06 3.30028e-07)
(1.05454 4.01878e-06 8.01608e-08)
(1.05454 2.59184e-06 5.05718e-07)
(1.05454 4.04691e-06 -6.90966e-10)
(1.05454 2.86276e-06 6.8856e-07)
(1.05454 4.13108e-06 -1.40421e-09)
(1.05454 3.11776e-06 4.07891e-07)
(1.05454 3.92466e-06 2.23895e-08)
(1.05454 3.0108e-06 -1.78356e-07)
(1.05454 3.49309e-06 1.44487e-07)
(1.05454 2.70207e-06 -5.76433e-07)
(1.05454 3.09186e-06 1.75572e-07)
(1.05454 2.49984e-06 -7.81678e-07)
(1.05454 2.46394e-06 6.52438e-08)
(1.05454 2.38524e-06 -7.48528e-07)
(1.05454 2.08637e-06 -5.60891e-08)
(1.05454 2.02773e-06 -7.92919e-07)
(1.05454 1.62625e-06 -8.4823e-08)
(1.05454 1.75862e-06 -5.98135e-07)
(1.05454 9.81931e-07 -9.41621e-08)
(1.05454 1.51231e-06 -2.82772e-07)
(1.05454 4.96879e-07 -3.0567e-07)
(1.05454 6.62841e-07 6.53566e-08)
(1.05454 2.62224e-07 -9.09468e-07)
(1.05454 3.92535e-07 8.71594e-09)
(1.05454 6.57727e-07 -1.20254e-06)
(1.05454 1.02278e-06 -3.07079e-07)
(1.05454 1.71762e-06 -1.1669e-06)
(1.05454 1.87994e-06 -6.43442e-07)
(1.05454 2.87129e-06 -1.16588e-06)
(1.05454 2.42066e-06 -7.9896e-07)
(1.05454 3.64004e-06 -1.05497e-06)
(1.05454 2.15996e-06 -8.88271e-07)
(1.05454 3.74174e-06 -6.67117e-07)
(1.05454 1.54188e-06 -5.28255e-07)
(1.05454 3.61515e-06 -4.75754e-07)
(1.05454 1.43018e-06 7.18506e-07)
(1.05454 4.06619e-06 8.86264e-07)
(1.05454 1.4581e-06 9.38638e-07)
(1.05454 4.49907e-06 1.02942e-06)
(1.05454 1.84398e-06 1.09218e-06)
(1.05454 5.09895e-06 8.41678e-07)
(1.05454 2.04553e-06 1.28631e-06)
(1.05454 5.28834e-06 6.30044e-07)
(1.05454 2.39636e-06 1.52394e-06)
(1.05454 5.24687e-06 4.65776e-07)
(1.05454 2.81095e-06 1.2321e-06)
(1.05454 4.91643e-06 2.58619e-07)
(1.05454 2.69011e-06 4.53271e-07)
(1.05454 4.49506e-06 2.58383e-07)
(1.05454 2.56536e-06 -1.13835e-07)
(1.05454 4.09177e-06 3.20342e-07)
(1.05454 2.48411e-06 -4.90263e-07)
(1.05454 3.65335e-06 2.77628e-07)
(1.05454 2.34403e-06 -6.84462e-07)
(1.05454 3.23478e-06 3.76034e-07)
(1.05454 2.20317e-06 -8.66614e-07)
(1.05454 2.57866e-06 5.12297e-07)
(1.05454 2.02948e-06 -6.85057e-07)
(1.05454 1.84972e-06 5.77673e-07)
(1.05454 1.70443e-06 -3.06896e-07)
(1.05454 1.05872e-06 3.0694e-07)
(1.05454 7.30705e-07 3.52416e-08)
(1.05454 4.54208e-07 -4.55475e-07)
(1.05454 5.00863e-07 -1.40026e-08)
(1.05454 8.3758e-07 -8.73037e-07)
(1.05454 1.47542e-06 -2.02052e-07)
(1.05454 2.08865e-06 -1.03542e-06)
(1.05454 2.69212e-06 -3.85065e-07)
(1.05454 3.50578e-06 -1.19138e-06)
(1.05454 3.39508e-06 -3.46741e-07)
(1.05454 4.2393e-06 -1.00841e-06)
(1.05454 3.04006e-06 -3.13135e-07)
(1.05454 4.18994e-06 -4.10347e-07)
(1.05454 2.12087e-06 1.43463e-07)
(1.05454 4.02416e-06 1.75385e-07)
(1.05454 1.42757e-06 2.02729e-06)
(1.05454 4.06064e-06 2.13488e-06)
(1.05454 1.35871e-06 2.18165e-06)
(1.05454 4.52931e-06 2.31783e-06)
(1.05454 1.5467e-06 2.22237e-06)
(1.05454 5.38121e-06 2.15412e-06)
(1.05454 1.37601e-06 2.34769e-06)
(1.05454 5.97275e-06 1.90955e-06)
(1.05454 1.59025e-06 2.64337e-06)
(1.05454 6.01419e-06 1.51751e-06)
(1.05454 1.81807e-06 2.33076e-06)
(1.05454 5.80054e-06 9.28903e-07)
(1.05454 1.65776e-06 1.34637e-06)
(1.05454 5.71232e-06 6.50695e-07)
(1.05454 1.79267e-06 6.73596e-07)
(1.05454 5.29766e-06 6.38938e-07)
(1.05454 1.78065e-06 1.82522e-07)
(1.05454 5.00874e-06 5.94372e-07)
(1.05454 1.60373e-06 -1.33065e-07)
(1.05454 4.64199e-06 9.30561e-07)
(1.05454 1.65222e-06 -3.84057e-07)
(1.05454 3.86258e-06 1.35843e-06)
(1.05454 1.51858e-06 -2.2705e-07)
(1.05454 3.05384e-06 1.65922e-06)
(1.05454 1.07725e-06 8.42127e-08)
(1.05454 1.91215e-06 1.42491e-06)
(1.05454 -3.79642e-08 1.78184e-07)
(1.05454 8.56365e-07 5.77555e-07)
(1.05454 -1.2994e-07 4.79779e-08)
(1.05454 1.2361e-06 1.34696e-07)
(1.05455 1.22307e-06 -8.9507e-08)
(1.05455 2.60547e-06 -1.61258e-07)
(1.05455 2.83798e-06 -7.46054e-08)
(1.05454 4.22675e-06 -4.40645e-07)
(1.05454 3.78078e-06 3.06857e-07)
(1.05454 4.88131e-06 -3.40501e-07)
(1.05454 3.44171e-06 5.89482e-07)
(1.05454 4.63647e-06 3.18234e-07)
(1.05454 2.35668e-06 1.29833e-06)
(1.05454 4.24963e-06 1.22446e-06)
(1.05454 3.06763e-07 3.90272e-06)
(1.05454 3.64963e-06 4.14446e-06)
(1.05454 2.86865e-07 4.13359e-06)
(1.05454 4.04812e-06 4.34179e-06)
(1.05454 4.19705e-07 4.08701e-06)
(1.05454 4.86624e-06 4.19986e-06)
(1.05454 4.04649e-09 4.10131e-06)
(1.05454 5.65239e-06 3.94579e-06)
(1.05454 2.30483e-07 4.35952e-06)
(1.05454 5.72862e-06 3.31442e-06)
(1.05454 2.39695e-07 3.83396e-06)
(1.05454 5.90544e-06 2.26392e-06)
(1.05454 6.3008e-08 2.50043e-06)
(1.05454 6.47346e-06 1.63843e-06)
(1.05454 3.93316e-07 1.75184e-06)
(1.05454 6.19559e-06 1.50342e-06)
(1.05454 2.24988e-07 1.2378e-06)
(1.05454 6.05994e-06 1.35467e-06)
(1.05454 -2.9263e-08 9.39394e-07)
(1.05454 5.85475e-06 1.85722e-06)
(1.05454 1.10628e-07 8.11183e-07)
(1.05454 5.13173e-06 2.53916e-06)
(1.05454 1.67406e-08 1.03164e-06)
(1.05454 4.47531e-06 3.1243e-06)
(1.05454 -6.7083e-07 1.20603e-06)
(1.05454 2.91569e-06 2.92706e-06)
(1.05454 -2.12735e-06 9.04805e-07)
(1.05454 1.44038e-06 2.08905e-06)
(1.05454 -2.00352e-06 6.05536e-07)
(1.05454 1.95383e-06 1.73657e-06)
(1.05455 -2.08558e-07 3.80554e-07)
(1.05455 3.36788e-06 1.44532e-06)
(1.05455 1.81422e-06 5.297e-07)
(1.05454 5.06659e-06 1.23807e-06)
(1.05454 2.93338e-06 1.24588e-06)
(1.05454 5.42568e-06 1.30666e-06)
(1.05454 2.6367e-06 1.85111e-06)
(1.05454 4.99474e-06 2.06358e-06)
(1.05454 1.50027e-06 2.91293e-06)
(1.05454 4.28625e-06 3.17077e-06)
(1.05454 -3.0467e-06 6.57418e-06)
(1.05454 2.4696e-06 7.80117e-06)
(1.05454 -2.81021e-06 6.95716e-06)
(1.05454 2.83265e-06 7.95662e-06)
(1.05454 -2.63598e-06 6.81035e-06)
(1.05454 3.46913e-06 7.72285e-06)
(1.05454 -3.16291e-06 6.74351e-06)
(1.05454 4.27904e-06 7.41607e-06)
(1.05454 -2.69207e-06 6.98325e-06)
(1.05454 4.22829e-06 6.48359e-06)
(1.05454 -2.7065e-06 6.1258e-06)
(1.05454 4.67196e-06 4.84542e-06)
(1.05454 -2.62262e-06 4.25938e-06)
(1.05454 5.89525e-06 3.83759e-06)
(1.05454 -2.10101e-06 3.38671e-06)
(1.05454 5.80871e-06 3.61478e-06)
(1.05454 -2.45118e-06 2.89721e-06)
(1.05454 6.02295e-06 3.4479e-06)
(1.05454 -2.84095e-06 2.70362e-06)
(1.05454 6.03781e-06 4.11839e-06)
(1.05454 -2.80307e-06 2.89992e-06)
(1.05454 5.52698e-06 5.07017e-06)
(1.05454 -2.72471e-06 3.34936e-06)
(1.05454 5.4348e-06 5.85742e-06)
(1.05454 -3.69071e-06 3.43789e-06)
(1.05454 3.41397e-06 5.59389e-06)
(1.05454 -5.92582e-06 2.74187e-06)
(1.05454 1.45142e-06 4.82498e-06)
(1.05454 -5.73642e-06 2.32859e-06)
(1.05455 2.37645e-06 4.57532e-06)
(1.05455 -3.38459e-06 1.89972e-06)
(1.05455 4.04433e-06 4.28177e-06)
(1.05455 -9.63322e-07 2.05271e-06)
(1.05455 5.7638e-06 4.24586e-06)
(1.05454 2.07366e-07 2.98768e-06)
(1.05454 5.62868e-06 4.40856e-06)
(1.05454 -1.62339e-07 3.86637e-06)
(1.05454 4.98168e-06 5.4174e-06)
(1.05454 -1.37962e-06 5.29555e-06)
(1.05454 3.71218e-06 6.80103e-06)
(1.05454 -9.70067e-06 1.05652e-05)
(1.05454 1.22355e-07 1.36645e-05)
(1.05454 -9.19743e-06 1.11026e-05)
(1.05454 4.27921e-07 1.38222e-05)
(1.05454 -8.99079e-06 1.08737e-05)
(1.05454 6.29956e-07 1.3568e-05)
(1.05454 -9.53109e-06 1.07516e-05)
(1.05454 1.5283e-06 1.30857e-05)
(1.05454 -8.67097e-06 1.0857e-05)
(1.05454 1.29359e-06 1.15846e-05)
(1.05454 -8.64116e-06 9.3705e-06)
(1.05454 1.92482e-06 9.10169e-06)
(1.05454 -7.98761e-06 6.85532e-06)
(1.05454 3.76303e-06 7.68738e-06)
(1.05454 -7.10534e-06 5.9195e-06)
(1.05454 3.61578e-06 7.44252e-06)
(1.05454 -7.46652e-06 5.47373e-06)
(1.05454 4.15732e-06 7.32534e-06)
(1.05454 -7.79313e-06 5.48536e-06)
(1.05454 4.39955e-06 8.27933e-06)
(1.05454 -7.77763e-06 6.12277e-06)
(1.05454 4.23412e-06 9.6778e-06)
(1.05454 -7.28162e-06 7.00029e-06)
(1.05454 4.98201e-06 1.06874e-05)
(1.05454 -8.52103e-06 6.98354e-06)
(1.05454 2.3382e-06 1.01437e-05)
(1.05454 -1.19138e-05 5.8978e-06)
(1.05454 -1.23343e-07 9.41669e-06)
(1.05454 -1.17507e-05 5.53301e-06)
(1.05454 1.51985e-06 9.29932e-06)
(1.05455 -8.86492e-06 4.90032e-06)
(1.05455 3.65914e-06 8.95837e-06)
(1.05455 -6.18014e-06 5.11323e-06)
(1.05454 5.45748e-06 9.17331e-06)
(1.05454 -5.19061e-06 6.27837e-06)
(1.05454 4.83603e-06 9.45301e-06)
(1.05454 -5.79639e-06 7.28891e-06)
(1.05454 4.00746e-06 1.06953e-05)
(1.05454 -7.29405e-06 9.02779e-06)
(1.05454 1.97072e-06 1.2557e-05)
(1.05453 -2.056e-05 1.67103e-05)
(1.05453 -4.66145e-06 2.27665e-05)
(1.05453 -1.98791e-05 1.74651e-05)
(1.05453 -4.25751e-06 2.32268e-05)
(1.05453 -2.00712e-05 1.72352e-05)
(1.05453 -4.74812e-06 2.29334e-05)
(1.05453 -2.05391e-05 1.69605e-05)
(1.05453 -3.57014e-06 2.23078e-05)
(1.05453 -1.92698e-05 1.68934e-05)
(1.05453 -4.19182e-06 2.00088e-05)
(1.05453 -1.92989e-05 1.43528e-05)
(1.05453 -2.89185e-06 1.63705e-05)
(1.05453 -1.75202e-05 1.11035e-05)
(1.05453 -3.26327e-07 1.47209e-05)
(1.05452 -1.63021e-05 1.02383e-05)
(1.05453 -9.96515e-07 1.44608e-05)
(1.05452 -1.6491e-05 9.85122e-06)
(1.05453 -1.80276e-07 1.44728e-05)
(1.05452 -1.64409e-05 1.02942e-05)
(1.05453 2.6529e-07 1.58986e-05)
(1.05453 -1.63502e-05 1.14861e-05)
(1.05453 3.68653e-07 1.78748e-05)
(1.05453 -1.50358e-05 1.2948e-05)
(1.05453 2.25069e-06 1.92486e-05)
(1.05452 -1.63858e-05 1.27263e-05)
(1.05452 -1.45667e-06 1.81529e-05)
(1.05452 -2.12111e-05 1.1121e-05)
(1.05453 -4.47434e-06 1.7499e-05)
(1.05453 -2.06928e-05 1.09433e-05)
(1.05453 -1.89064e-06 1.74648e-05)
(1.05453 -1.73559e-05 1.00552e-05)
(1.05453 5.93375e-07 1.69853e-05)
(1.05453 -1.44129e-05 1.04314e-05)
(1.05453 2.49429e-06 1.7475e-05)
(1.05453 -1.38981e-05 1.18462e-05)
(1.05453 1.31067e-06 1.77191e-05)
(1.05453 -1.49235e-05 1.29221e-05)
(1.05453 5.22533e-07 1.91608e-05)
(1.05453 -1.69676e-05 1.50334e-05)
(1.05453 -2.43388e-06 2.15327e-05)
(1.05427 -3.71264e-05 2.55909e-05)
(1.05428 -1.41426e-05 3.6303e-05)
(1.05428 -3.59925e-05 2.6866e-05)
(1.05428 -1.32836e-05 3.74856e-05)
(1.05428 -3.71229e-05 2.67296e-05)
(1.05428 -1.44729e-05 3.69508e-05)
(1.05428 -3.74505e-05 2.62572e-05)
(1.05428 -1.26391e-05 3.64389e-05)
(1.05428 -3.59051e-05 2.62822e-05)
(1.05428 -1.39199e-05 3.30288e-05)
(1.05428 -3.63536e-05 2.20357e-05)
(1.05428 -1.12095e-05 2.78612e-05)
(1.05428 -3.31068e-05 1.80573e-05)
(1.05428 -7.63543e-06 2.638e-05)
(1.05428 -3.19432e-05 1.74078e-05)
(1.05428 -9.14513e-06 2.60764e-05)
(1.05428 -3.19355e-05 1.70035e-05)
(1.05428 -7.76695e-06 2.65718e-05)
(1.05428 -3.10311e-05 1.83893e-05)
(1.05429 -7.15275e-06 2.8723e-05)
(1.05428 -3.09578e-05 2.0132e-05)
(1.05429 -6.76736e-06 3.14066e-05)
(1.05428 -2.80072e-05 2.25372e-05)
(1.05429 -3.11559e-06 3.33952e-05)
(1.05428 -2.92951e-05 2.17988e-05)
(1.05429 -8.51667e-06 3.12557e-05)
(1.05428 -3.5862e-05 1.95006e-05)
(1.05429 -1.21867e-05 3.10617e-05)
(1.05428 -3.42378e-05 1.97287e-05)
(1.05429 -8.86194e-06 3.08829e-05)
(1.05428 -3.06245e-05 1.81413e-05)
(1.05429 -6.5065e-06 3.01108e-05)
(1.05428 -2.72902e-05 1.89771e-05)
(1.05429 -4.66808e-06 3.10662e-05)
(1.05428 -2.73083e-05 2.04353e-05)
(1.05428 -6.79794e-06 3.06825e-05)
(1.05428 -2.875e-05 2.12358e-05)
(1.05428 -7.26958e-06 3.23523e-05)
(1.05427 -3.15565e-05 2.40492e-05)
(1.05428 -1.16897e-05 3.4983e-05)
(1.05226 -6.13254e-05 3.81171e-05)
(1.05231 -3.15054e-05 5.63723e-05)
(1.05226 -5.92696e-05 4.09861e-05)
(1.05231 -2.99918e-05 5.89148e-05)
(1.05226 -6.21196e-05 4.08328e-05)
(1.05231 -3.2345e-05 5.82316e-05)
(1.05227 -6.19876e-05 4.08415e-05)
(1.05231 -2.91285e-05 5.87766e-05)
(1.05227 -6.02644e-05 4.14173e-05)
(1.05231 -3.13528e-05 5.34636e-05)
(1.05227 -6.18337e-05 3.49329e-05)
(1.05231 -2.61966e-05 4.68392e-05)
(1.05228 -5.6892e-05 3.07287e-05)
(1.05232 -2.09907e-05 4.58293e-05)
(1.05228 -5.67822e-05 3.01393e-05)
(1.05232 -2.33708e-05 4.49772e-05)
(1.05228 -5.65193e-05 2.97094e-05)
(1.05232 -2.0805e-05 4.62593e-05)
(1.05228 -5.4588e-05 3.20612e-05)
(1.05232 -2.01906e-05 4.85537e-05)
(1.05228 -5.50545e-05 3.38539e-05)
(1.05232 -1.90748e-05 5.21342e-05)
(1.05228 -4.93657e-05 3.76519e-05)
(1.05232 -1.25573e-05 5.45954e-05)
(1.05227 -5.09484e-05 3.52734e-05)
(1.05232 -2.0764e-05 5.06331e-05)
(1.05227 -5.92898e-05 3.21237e-05)
(1.05232 -2.45618e-05 5.16374e-05)
(1.05227 -5.53867e-05 3.25463e-05)
(1.05232 -2.13509e-05 5.07787e-05)
(1.05227 -5.19779e-05 2.94023e-05)
(1.05232 -1.97967e-05 4.99539e-05)
(1.05226 -4.75723e-05 3.10847e-05)
(1.05231 -1.83278e-05 5.13681e-05)
(1.05226 -4.80964e-05 3.20628e-05)
(1.05231 -2.25212e-05 4.98078e-05)
(1.05226 -4.93427e-05 3.26788e-05)
(1.05231 -2.20708e-05 5.20845e-05)
(1.05225 -5.28998e-05 3.66464e-05)
(1.05231 -2.8998e-05 5.45004e-05)
(1.04448 -9.57136e-05 5.47079e-05)
(1.04462 -5.93859e-05 8.32174e-05)
(1.04449 -9.13514e-05 5.98096e-05)
(1.04463 -5.72364e-05 8.72078e-05)
(1.04449 -9.68745e-05 5.98706e-05)
(1.04463 -6.15658e-05 8.72252e-05)
(1.04449 -9.51277e-05 6.03213e-05)
(1.04463 -5.6381e-05 8.85924e-05)
(1.04449 -9.32855e-05 6.07017e-05)
(1.04463 -6.03689e-05 8.04323e-05)
(1.0445 -9.67613e-05 5.16275e-05)
(1.04463 -5.12549e-05 7.15244e-05)
(1.0445 -8.97016e-05 4.60612e-05)
(1.04463 -4.37261e-05 7.02377e-05)
(1.0445 -9.24249e-05 4.52959e-05)
(1.04463 -4.65504e-05 6.81254e-05)
(1.0445 -9.17548e-05 4.4217e-05)
(1.04462 -4.18968e-05 6.91708e-05)
(1.0445 -8.89243e-05 4.70605e-05)
(1.04462 -4.16219e-05 7.14095e-05)
(1.0445 -9.1074e-05 4.92822e-05)
(1.04462 -3.83338e-05 7.59956e-05)
(1.0445 -8.11595e-05 5.44482e-05)
(1.04462 -2.74804e-05 7.83378e-05)
(1.04449 -8.43157e-05 5.04178e-05)
(1.04461 -3.94128e-05 7.2662e-05)
(1.04448 -9.48369e-05 4.67094e-05)
(1.04461 -4.21035e-05 7.4916e-05)
(1.04448 -8.70068e-05 4.71422e-05)
(1.04461 -4.02182e-05 7.37789e-05)
(1.04448 -8.48235e-05 4.2303e-05)
(1.04461 -4.01203e-05 7.36081e-05)
(1.04448 -7.85163e-05 4.45269e-05)
(1.04461 -3.9439e-05 7.59656e-05)
(1.04447 -7.97553e-05 4.54768e-05)
(1.04461 -4.7204e-05 7.40892e-05)
(1.04448 -7.94198e-05 4.62234e-05)
(1.04461 -4.57531e-05 7.7299e-05)
(1.04448 -8.37127e-05 5.1786e-05)
(1.04462 -5.73121e-05 8.03255e-05)
(1.02697 -0.000141571 7.32927e-05)
(1.02723 -9.69579e-05 0.000113314)
(1.02698 -0.000134426 8.15257e-05)
(1.02723 -9.50875e-05 0.000118916)
(1.02697 -0.00014366 8.20141e-05)
(1.02723 -0.000102232 0.000117653)
(1.02698 -0.000137623 8.09088e-05)
(1.02722 -9.56436e-05 0.000120131)
(1.02698 -0.000135061 8.11088e-05)
(1.02722 -0.000103562 0.00010785)
(1.02699 -0.000139825 6.71467e-05)
(1.02722 -8.89189e-05 9.4816e-05)
(1.02699 -0.000130292 6.01555e-05)
(1.02722 -7.94255e-05 9.52105e-05)
(1.02699 -0.000137864 5.90916e-05)
(1.02723 -8.23476e-05 9.03697e-05)
(1.027 -0.000135721 5.59378e-05)
(1.02723 -7.42732e-05 9.2154e-05)
(1.027 -0.000131584 6.13168e-05)
(1.02723 -7.51703e-05 9.48645e-05)
(1.027 -0.000137425 6.3819e-05)
(1.02723 -6.76229e-05 0.000100468)
(1.027 -0.000121535 7.1661e-05)
(1.02723 -5.05761e-05 0.000103755)
(1.02699 -0.00012882 6.61099e-05)
(1.02722 -6.61704e-05 9.48855e-05)
(1.02698 -0.000142489 6.15078e-05)
(1.02723 -6.53199e-05 9.93525e-05)
(1.02698 -0.000129851 6.40243e-05)
(1.02724 -6.64204e-05 9.81979e-05)
(1.02698 -0.000130614 5.65367e-05)
(1.02724 -6.78209e-05 9.87315e-05)
(1.02698 -0.000120829 6.01177e-05)
(1.02723 -6.81662e-05 0.000104223)
(1.02697 -0.000123251 6.11268e-05)
(1.02723 -8.08993e-05 0.00010172)
(1.02697 -0.000119629 6.11297e-05)
(1.02723 -7.84445e-05 0.000106605)
(1.02697 -0.000124919 7.00809e-05)
(1.02723 -9.62618e-05 0.000110801)
(0.997832 -0.000198942 9.13618e-05)
(0.998237 -0.00014273 0.000145386)
(0.997839 -0.000187082 0.000105933)
(0.998238 -0.000140809 0.000152993)
(0.997843 -0.000203057 0.000105229)
(0.998249 -0.000150852 0.000146538)
(0.997859 -0.000189416 0.000103508)
(0.998254 -0.00014393 0.000152412)
(0.997874 -0.000185555 0.00010324)
(0.998255 -0.000159152 0.000131893)
(0.997899 -0.000189556 8.05388e-05)
(0.998265 -0.00013669 0.000114501)
(0.997915 -0.000177096 7.43517e-05)
(0.998263 -0.000125624 0.000118263)
(0.997923 -0.000192723 6.97704e-05)
(0.998267 -0.000129917 0.000107081)
(0.997934 -0.000188187 6.45956e-05)
(0.998268 -0.000118024 0.000112664)
(0.997936 -0.000181817 7.35462e-05)
(0.99826 -0.000122383 0.000113009)
(0.997937 -0.000192422 7.3996e-05)
(0.998259 -0.000108294 0.000120974)
(0.997931 -0.000168205 8.74005e-05)
(0.998244 -8.37081e-05 0.000125703)
(0.997907 -0.000183752 7.76796e-05)
(0.998231 -0.000102484 0.000111208)
(0.997894 -0.000200969 7.43611e-05)
(0.998236 -9.40061e-05 0.000122172)
(0.997882 -0.000184313 8.10967e-05)
(0.998233 -0.000100988 0.00011887)
(0.997869 -0.000189264 6.9592e-05)
(0.998232 -0.000103124 0.000122243)
(0.997858 -0.00017496 7.87861e-05)
(0.998228 -0.000104796 0.000133293)
(0.997843 -0.000180583 7.72592e-05)
(0.998229 -0.000123696 0.000129092)
(0.997838 -0.000170108 7.6731e-05)
(0.998229 -0.000119308 0.000139512)
(0.997826 -0.000176906 9.06259e-05)
(0.998227 -0.000145452 0.000142386)
(0.956932 -0.000257902 0.000102279)
(0.957444 -0.00019727 0.000173171)
(0.956942 -0.000247573 0.000126194)
(0.957464 -0.000196376 0.000179605)
(0.956949 -0.000275697 0.000110571)
(0.957497 -0.000208338 0.000159663)
(0.956965 -0.000253604 0.000114031)
(0.957513 -0.000202847 0.000174616)
(0.956973 -0.000247016 0.000113234)
(0.957519 -0.000230676 0.000133215)
(0.956999 -0.000247881 7.70792e-05)
(0.957529 -0.000198884 0.000113452)
(0.957012 -0.000231574 7.99663e-05)
(0.957515 -0.000182403 0.000121813)
(0.95702 -0.00025692 6.37261e-05)
(0.957503 -0.000187135 0.000100922)
(0.957029 -0.000250144 6.39399e-05)
(0.957479 -0.000170353 0.000124411)
(0.957022 -0.000239675 7.95356e-05)
(0.957441 -0.000183627 0.000115804)
(0.957017 -0.000252155 7.54065e-05)
(0.957415 -0.000159023 0.000133942)
(0.957 -0.000212761 0.000105084)
(0.957371 -0.000127132 0.000142778)
(0.956961 -0.000239076 8.52242e-05)
(0.957343 -0.000148471 0.000119024)
(0.95695 -0.000260094 9.21905e-05)
(0.957345 -0.000123002 0.000147855)
(0.956937 -0.000241047 0.000105405)
(0.957338 -0.000137203 0.000134492)
(0.956931 -0.000251792 8.46949e-05)
(0.957344 -0.000136878 0.00014571)
(0.956925 -0.000232015 0.000107702)
(0.957345 -0.000139843 0.000162635)
(0.956917 -0.000243489 9.65488e-05)
(0.957365 -0.000169417 0.000151572)
(0.956923 -0.000222369 9.62198e-05)
(0.957388 -0.000166057 0.000178344)
(0.956917 -0.000230471 0.00011289)
(0.957409 -0.00020785 0.000169775)
(0.905165 -0.000311673 4.62103e-05)
(0.905657 -0.00024979 0.000160808)
(0.905171 -0.000292094 0.000103106)
(0.905671 -0.000247049 0.000171015)
(0.905151 -0.000337348 5.81992e-05)
(0.905719 -0.000250117 0.000119824)
(0.905154 -0.000308948 8.45817e-05)
(0.905744 -0.000246649 0.0001765)
(0.905143 -0.000300122 8.96739e-05)
(0.90576 -0.000294007 9.17779e-05)
(0.905157 -0.000291532 2.26129e-05)
(0.905768 -0.000258352 8.60636e-05)
(0.905142 -0.000275277 6.64532e-05)
(0.90575 -0.000241851 0.000108927)
(0.905084 -0.000310629 3.33008e-05)
(0.905714 -0.00023759 6.18272e-05)
(0.905049 -0.000297981 5.16019e-05)
(0.905675 -0.000211951 0.000139925)
(0.905016 -0.000282271 8.18554e-05)
(0.9056 -0.000238998 0.000108401)
(0.905018 -0.000300504 5.03308e-05)
(0.905555 -0.00020374 0.000141897)
(0.905032 -0.000242891 0.000136331)
(0.905484 -0.000165909 0.000147713)
(0.90501 -0.000282687 8.04595e-05)
(0.90545 -0.000188541 8.44879e-05)
(0.905027 -0.000310388 0.000101369)
(0.905462 -0.000146352 0.000156893)
(0.905037 -0.000291213 0.000118011)
(0.90546 -0.0001704 0.000109838)
(0.90505 -0.000308515 6.07194e-05)
(0.905499 -0.000169275 0.000144288)
(0.905085 -0.000283665 0.000124716)
(0.905516 -0.000170399 0.000158322)
(0.905108 -0.000304599 6.55796e-05)
(0.905553 -0.00020285 0.00011081)
(0.905148 -0.000273283 7.35701e-05)
(0.905593 -0.000204962 0.000182185)
(0.905147 -0.000279216 8.83351e-05)
(0.905607 -0.000266293 0.000138832)
(0.843843 -0.000327706 -0.000125445)
(0.844237 -0.000281435 6.74449e-05)