/*--------------------------------*- C++ -*----------------------------------*\
  =========                 |
  \\      /  F ield         | OpenFOAM: The Open Source CFD Toolbox
   \\    /   O peration     | Website:  https://openfoam.org
    \\  /    A nd           | Version:  10
     \\/     M anipulation  |
\*---------------------------------------------------------------------------*/
FoamFile
{
    format      ascii;
    class       volVectorField;
    location    "2";
    object      U;
}
// * * * * * * * * * * * * * * * * * * * * * * * * * * * * * * * * * * * * * //

dimensions      [0 1 -1 0 0 0 0];

internalField   nonuniform List<vector> 
25600
(
(1.11584 -0.0100172 -0.023127)
(1.11635 -0.00763676 -0.0116754)
(1.1247 -0.0111296 0.00253474)
(1.12249 -0.0185525 0.00747394)
(1.11305 -0.0274518 0.00316397)
(1.10332 -0.0299698 -0.00908795)
(1.09804 -0.0259544 -0.0231977)
(1.10048 -0.0157635 -0.0285049)
(1.10247 -0.00300132 -0.0210194)
(1.10071 0.00600683 -0.00176154)
(1.09401 0.00874127 0.0231333)
(1.08805 0.00536435 0.0396019)
(1.09379 0.0019936 0.0418229)
(1.11304 0.00280184 0.0327957)
(1.14143 0.011467 0.019743)
(1.1615 0.0226028 0.0124519)
(1.15744 0.0273629 0.0106637)
(1.13137 0.0236843 0.008968)
(1.10576 0.0134638 0.00112038)
(1.08237 0.00748306 -0.00944022)
(1.07763 0.00738712 -0.0118994)
(1.08451 0.0136287 -0.00141196)
(1.09578 0.022205 0.017797)
(1.1064 0.0244051 0.0311563)
(1.11068 0.0218187 0.0285794)
(1.10959 0.0123923 0.0140542)
(1.1087 0.00286617 -0.000382209)
(1.10779 -0.0009382 -0.00692746)
(1.10592 -0.00107891 -0.00332123)
(1.10213 0.00181099 0.00259224)
(1.09198 0.00383342 0.00125788)
(1.0835 0.00399941 -0.00789336)
(1.08212 0.00158972 -0.0236454)
(1.08836 -0.00366986 -0.0382965)
(1.11063 -0.00931504 -0.0433739)
(1.13785 -0.0125099 -0.040448)
(1.15549 -0.0148867 -0.031425)
(1.15686 -0.0164253 -0.0244009)
(1.14065 -0.0149685 -0.0248103)
(1.12512 -0.0138387 -0.0259606)
(1.14124 0.0117693 -0.0200229)
(1.14971 0.00877473 -0.0165028)
(1.14977 0.00706405 -0.00475651)
(1.12909 0.00242533 0.010047)
(1.09526 -0.0116461 0.0197258)
(1.06526 -0.0289868 0.0113673)
(1.04721 -0.0380078 -0.00825713)
(1.04934 -0.0281718 -0.0261874)
(1.06781 -0.00332138 -0.0326377)
(1.09079 0.0179147 -0.0249082)
(1.10547 0.022299 -0.01303)
(1.1054 0.00739035 -0.00356011)
(1.09395 -0.0129323 0.00649818)
(1.0818 -0.0211156 0.0170241)
(1.07781 -0.0114448 0.0249625)
(1.08172 0.00789084 0.0278472)
(1.0909 0.0248598 0.0229364)
(1.09814 0.0296893 0.0122318)
(1.10558 0.0229864 -4.86699e-05)
(1.10574 0.0133509 -0.00747736)
(1.10839 0.00759427 -0.0090784)
(1.11438 0.0109357 -0.00786362)
(1.11986 0.0179297 -0.00399383)
(1.12414 0.0218693 -0.00211804)
(1.1257 0.0142074 -0.00683504)
(1.12207 -0.00370545 -0.0186794)
(1.1181 -0.0186744 -0.0322234)
(1.1167 -0.024948 -0.0393556)
(1.11663 -0.0147673 -0.0338941)
(1.11479 0.00886147 -0.0179265)
(1.10503 0.032051 0.00125033)
(1.09517 0.0490138 0.0204187)
(1.0964 0.0531457 0.0315218)
(1.10714 0.0451641 0.0326556)
(1.1238 0.0342043 0.0251904)
(1.13145 0.0271515 0.0120135)
(1.12625 0.025967 0.00195289)
(1.12167 0.0257379 -0.00555094)
(1.12023 0.024148 -0.0105376)
(1.12816 0.0180967 -0.01474)
(1.11688 -0.00499936 0.00198234)
(1.11799 0.00532709 -0.00577479)
(1.11328 0.0168598 -0.00106931)
(1.09844 0.0186323 0.0123643)
(1.07914 0.00721382 0.026423)
(1.06284 -0.0120754 0.0315929)
(1.05014 -0.0238766 0.0280071)
(1.0484 -0.0211867 0.0130021)
(1.05251 -0.0117256 -0.00904553)
(1.06179 -0.00176013 -0.0261432)
(1.07852 0.00746586 -0.0291951)
(1.09575 0.0163152 -0.0101858)
(1.10443 0.0247534 0.0216388)
(1.09945 0.0304321 0.04467)
(1.08567 0.0334808 0.045358)
(1.08082 0.0374041 0.0252083)
(1.09212 0.0444446 8.87997e-06)
(1.11967 0.0518375 -0.0144865)
(1.15038 0.0547501 -0.0148482)
(1.16767 0.0480494 -0.00840895)
(1.15462 0.0317462 -0.00842184)
(1.13642 0.0117794 -0.0157699)
(1.12434 -0.00203697 -0.0244111)
(1.1373 0.0012509 -0.0325932)
(1.16384 0.0117422 -0.0421496)
(1.16579 0.0195888 -0.0525919)
(1.14612 0.021846 -0.0548148)
(1.11456 0.0170831 -0.0452752)
(1.08777 0.0170332 -0.0249001)
(1.08146 0.0224517 -0.00208357)
(1.08353 0.0249604 0.0143261)
(1.08749 0.0231997 0.0281043)
(1.09605 0.0137752 0.0359766)
(1.10126 0.00260185 0.0348834)
(1.10321 -0.00029487 0.0296562)
(1.10083 0.00422499 0.0245494)
(1.09307 0.00985706 0.0258187)
(1.09086 0.00643983 0.0298965)
(1.09371 -0.00111624 0.027281)
(1.10481 -0.00566477 0.0168074)
(1.03602 -0.0241679 -0.00385205)
(1.03076 -0.0106807 -0.00826312)
(1.02759 0.00569879 -0.00762381)
(1.0237 0.0101052 -0.00223568)
(1.01965 -0.00633123 0.00882387)
(1.0136 -0.0403504 0.018624)
(1.00896 -0.066214 0.0227859)
(1.01919 -0.0660469 0.0184503)
(1.03633 -0.0433113 0.0154021)
(1.04943 -0.0125748 0.0238561)
(1.0475 0.00539374 0.0444011)
(1.03721 0.0088782 0.0670925)
(1.03493 0.0133501 0.072545)
(1.0421 0.0261817 0.0546837)
(1.05849 0.0411128 0.0249764)
(1.08597 0.0472114 0.000460613)
(1.12134 0.041101 -0.00526959)
(1.15614 0.0311862 0.00331527)
(1.17185 0.0281559 0.0137211)
(1.16185 0.0300372 0.0155045)
(1.12604 0.0262852 0.00411698)
(1.092 0.00938567 -0.0156958)
(1.07156 -0.00864494 -0.0429318)
(1.08265 -0.00678186 -0.0703465)
(1.10961 0.0147263 -0.0874671)
(1.12353 0.0446399 -0.0863795)
(1.12039 0.0610456 -0.0614173)
(1.0983 0.0472722 -0.0240896)
(1.07271 0.0217816 0.00960677)
(1.05761 0.00127331 0.0239425)
(1.05268 -0.00825639 0.0135245)
(1.05632 -0.00558379 -0.00538496)
(1.06219 -0.000759345 -0.0215089)
(1.06266 0.00728743 -0.0290227)
(1.06407 0.0165005 -0.0220372)
(1.06707 0.0212626 -0.00593425)
(1.06475 0.0226597 0.0126528)
(1.05651 0.0116292 0.0222255)
(1.04357 -0.00621586 0.0167511)
(1.03743 -0.0203242 0.00620889)
(0.96519 -0.0583775 -0.0099994)
(0.985057 -0.034278 -0.0250789)
(1.01049 -0.0104378 -0.026634)
(1.02051 -0.00370599 -0.00969027)
(1.00974 -0.014479 0.0139649)
(0.984277 -0.0390561 0.0233789)
(0.954972 -0.0605855 0.01518)
(0.938088 -0.0692612 0.00619694)
(0.933653 -0.0574004 0.013637)
(0.933253 -0.0352678 0.0341465)
(0.92963 -0.0256044 0.0558574)
(0.936176 -0.0213908 0.0615161)
(0.957603 -0.0123236 0.0397134)
(0.987842 -0.00238698 0.00604426)
(1.02598 0.00256533 -0.0173711)
(1.06151 0.00438116 -0.0183222)
(1.08599 0.0129923 -0.00403924)
(1.09082 0.0325823 0.00764265)
(1.08429 0.0504711 0.0103978)
(1.08683 0.0484913 0.00241911)
(1.08724 0.0261565 -0.0169927)
(1.07803 -0.00575745 -0.0414239)
(1.05827 -0.0248112 -0.0638066)
(1.04669 -0.0131851 -0.075244)
(1.05531 0.0187332 -0.0703869)
(1.07582 0.0534156 -0.0498236)
(1.09184 0.0644907 -0.0121264)
(1.08621 0.0420066 0.0290966)
(1.06326 0.0158843 0.0498077)
(1.04095 0.000700643 0.0329747)
(1.02873 -0.00246168 -0.00844144)
(1.02619 0.00270414 -0.0361548)
(1.02931 0.00553408 -0.0402675)
(1.03627 0.00878145 -0.0330699)
(1.05148 0.0136892 -0.0208819)
(1.0655 0.0217831 -0.0108301)
(1.05705 0.0247491 -0.000235394)
(1.02188 0.00465288 0.0073608)
(0.980734 -0.0301715 0.00729495)
(0.960143 -0.0566349 0.00275379)
(0.956085 -0.0887183 0.00644307)
(1.02248 -0.0548596 0.00648262)
(1.08738 -0.00924474 0.0180112)
(1.10981 0.018552 0.0394642)
(1.08644 0.0150448 0.0490395)
(1.04472 -0.0124724 0.0317042)
(0.996602 -0.0432969 0.000973432)
(0.952217 -0.0659485 -0.0148124)
(0.920408 -0.0662775 -0.00182599)
(0.900456 -0.0552722 0.0257355)
(0.892114 -0.0547702 0.0454746)
(0.901826 -0.0546653 0.0363074)
(0.927129 -0.0451646 0.0041568)
(0.964559 -0.030973 -0.021745)
(1.00364 -0.021012 -0.0274737)
(1.02769 -0.012261 -0.0139836)
(1.04069 0.00754976 0.00475689)
(1.04513 0.0328492 0.0171114)
(1.05883 0.0396623 0.0182027)
(1.08235 0.0216855 -0.00520373)
(1.09368 0.000564932 -0.0412882)
(1.0901 -0.00953733 -0.0603451)
(1.07862 -0.00799169 -0.0589078)
(1.05865 -0.00112057 -0.0458332)
(1.0501 0.00533419 -0.0324345)
(1.05935 0.0177769 -0.0191857)
(1.07667 0.0278669 0.00873491)
(1.07992 0.0243607 0.0443093)
(1.06522 0.0174752 0.0679614)
(1.04603 0.0103494 0.0587852)
(1.03316 0.00429746 0.0251293)
(1.02586 -0.00180755 0.00270483)
(1.02006 -0.0122502 -0.0083276)
(1.03194 -0.0179624 -0.0149743)
(1.06163 -0.00811899 -0.0119051)
(1.07775 0.0171955 0.000345054)
(1.04701 0.0337307 0.015162)
(0.986082 0.0094572 0.015953)
(0.938779 -0.0425603 0.00779235)
(0.924036 -0.0833892 0.00676203)
(0.985143 -0.0822053 -0.0162059)
(1.05281 -0.0542811 0.0128903)
(1.11475 -0.0170807 0.0436066)
(1.12761 0.0123917 0.0561006)
(1.09543 0.0168222 0.0484649)
(1.04699 -0.00124338 0.0295912)
(0.999102 -0.021666 0.00634198)
(0.960982 -0.0427693 -0.0106225)
(0.934209 -0.0550717 -0.0116873)
(0.911858 -0.0600897 -0.000287729)
(0.897178 -0.0662666 0.0104057)
(0.905992 -0.0645778 0.0136246)
(0.93633 -0.0534532 0.0147407)
(0.976657 -0.0406652 0.0167015)
(1.00804 -0.0323395 0.0193478)
(1.01461 -0.0207111 0.0242888)
(1.01271 0.00745584 0.0319033)
(1.01828 0.033865 0.0449123)
(1.04809 0.0327707 0.0463632)
(1.07213 0.0105551 0.00979249)
(1.07286 -0.00870646 -0.035848)
(1.0766 -0.0193748 -0.0487465)
(1.08922 -0.0215082 -0.0345518)
(1.09477 -0.0145886 -0.00856997)
(1.0972 -0.00202815 0.00810994)
(1.0905 0.0161974 0.0272624)
(1.06463 0.0220732 0.0694773)
(1.03242 0.00915039 0.0993688)
(1.02771 0.00528648 0.0854892)
(1.0433 0.016439 0.0307547)
(1.06139 0.0296455 -0.0233538)
(1.07063 0.0279742 -0.0427682)
(1.05917 0.00653163 -0.0462103)
(1.05448 -0.0112437 -0.0393576)
(1.05944 -0.00638865 -0.0171521)
(1.05464 0.015758 0.0131375)
(1.02695 0.0238131 0.0237977)
(0.993167 -0.00350322 0.000912945)
(0.973406 -0.0452277 -0.020055)
(0.961387 -0.0782748 -0.0257641)
(1.0138 -0.0695625 0.00339333)
(1.04869 -0.0501752 0.0271007)
(1.07101 -0.00472075 0.0350043)
(1.06311 0.0369202 0.031579)
(1.03197 0.0391698 0.0354662)
(0.993975 0.0100117 0.0392949)
(0.966624 -0.0189171 0.0256531)
(0.960573 -0.0457998 0.000618668)
(0.966337 -0.0625305 -0.0166931)
(0.954442 -0.0735432 -0.0213896)
(0.930372 -0.0800722 -0.0205001)
(0.931519 -0.0654411 -0.00683364)
(0.947859 -0.0397989 0.0163566)
(0.956997 -0.0168867 0.0278464)
(0.949609 0.00215141 0.0308544)
(0.932215 0.0176421 0.0434157)
(0.94101 0.0318798 0.0674144)
(0.987261 0.0299345 0.0825441)
(1.05294 0.0113438 0.0619744)
(1.05904 -0.00803434 0.00817488)
(1.0222 -0.0244546 -0.0301517)
(1.01673 -0.0364551 -0.0333842)
(1.05388 -0.0357623 -0.0190341)
(1.09088 -0.022909 0.00287883)
(1.09924 -0.0105772 0.0235547)
(1.07192 0.00289204 0.0571279)
(1.03621 0.0117403 0.0986208)
(1.01544 0.0054566 0.104467)
(1.01895 -0.00178328 0.0675227)
(1.03525 -0.00161699 0.00873433)
(1.06388 0.0116363 -0.0371306)
(1.0772 0.0243632 -0.0541873)
(1.04111 0.012095 -0.0586286)
(1.01225 -0.00643241 -0.0468907)
(1.00953 -0.00903126 -0.0174653)
(1.02387 0.00236826 0.0124641)
(1.03996 0.0114564 0.00636258)
(1.04193 0.00542301 -0.0246873)
(1.0356 -0.0184201 -0.0275886)
(1.01234 -0.0528182 -0.0146072)
(1.05524 -0.0669727 0.0430736)
(1.06464 -0.0380815 0.0465343)
(1.02118 0.0118509 0.0370053)
(0.977966 0.0528273 0.0284585)
(0.965335 0.050101 0.0433229)
(0.950725 0.00844101 0.0523528)
(0.92875 -0.0321848 0.0271045)
(0.93608 -0.0599515 -0.00212757)
(0.972204 -0.0656977 -0.0196636)
(0.983329 -0.0565822 -0.0310618)
(0.964702 -0.0547935 -0.0276201)
(0.948413 -0.0525949 -0.00134454)
(0.931849 -0.0431527 0.0243076)
(0.919256 -0.0307141 0.0302692)
(0.918421 -0.0192627 0.0309485)
(0.952835 -0.0017731 0.0296507)
(1.02239 0.0221061 0.0194665)
(1.04433 0.0286927 0.00380148)
(1.00051 0.0173208 -0.0160728)
(0.933377 -0.00782065 -0.0329329)
(0.911514 -0.0370217 -0.0278858)
(0.950559 -0.0502626 -0.00566926)
(1.00831 -0.0348121 0.00866746)
(1.05843 0.00296647 0.0210057)
(1.05486 0.0273188 0.046751)
(1.01072 0.0318571 0.0815356)
(0.991021 0.0252823 0.106826)
(0.994821 0.00516073 0.0940109)
(1.02296 -0.0168044 0.0442736)
(1.05471 -0.0279665 -0.0152465)
(1.07924 -0.00361633 -0.0532509)
(1.07039 0.0276029 -0.0517215)
(1.01856 0.0173596 -0.0327614)
(0.986128 -0.00793342 -0.0178945)
(0.972489 -0.0258326 -0.00976944)
(0.976372 -0.0240289 -0.0137078)
(0.985405 -0.00439219 -0.0291823)
(0.993103 -0.000199967 -0.0256903)
(1.01601 -0.0229637 0.00680499)
(1.03229 -0.0557189 0.0323762)
(1.08592 -0.0568903 0.0592443)
(1.04891 -0.0234546 0.0511163)
(0.976963 0.030158 0.0255219)
(0.969375 0.0727019 0.0145694)
(0.995391 0.0646389 0.0499467)
(0.98049 0.0277374 0.0558087)
(0.931353 -0.00532267 0.0105989)
(0.924752 -0.0367336 -0.0201963)
(0.9607 -0.0527678 -0.0247242)
(0.997008 -0.0610446 -0.0201942)
(1.02505 -0.068137 -0.0159342)
(1.00804 -0.0419444 -0.0210822)
(0.95918 -0.00450831 -0.020155)
(0.930133 -0.00104047 -0.00797437)
(0.914277 -0.0126575 -0.00638073)
(0.920919 -0.00699972 -0.0157431)
(0.926693 0.0139574 -0.0204989)
(0.898518 0.016184 -0.0315668)
(0.875747 -0.00754152 -0.0536954)
(0.872985 -0.0319805 -0.0674085)
(0.896844 -0.0422999 -0.0444005)
(0.95132 -0.0342756 0.00320094)
(0.987353 -0.0159658 0.0313751)
(1.01455 0.000213921 0.0541555)
(1.02094 0.00538071 0.081678)
(1.02134 0.00792053 0.0922026)
(1.03942 0.0172344 0.0899242)
(1.04166 0.0142371 0.0586123)
(1.02754 -0.00839716 0.00282581)
(0.993619 -0.022289 -0.0460779)
(0.970801 -0.00552614 -0.0557553)
(0.96151 0.0103537 -0.0230561)
(0.93939 0.00362762 0.000301882)
(0.926256 -0.00735927 0.00217698)
(0.929888 -0.0217919 0.00174705)
(0.973758 -0.023752 -0.00867685)
(1.0229 -0.0127599 -0.0176816)
(1.03856 -0.0136081 0.00376502)
(1.04634 -0.0306992 0.0468756)
(1.06335 -0.055499 0.0650668)
(1.03696 -0.0317867 0.0528736)
(1.01869 0.0031051 0.0367176)
(0.998325 0.0503752 0.00983447)
(0.991165 0.0763723 0.016799)
(0.970504 0.0614333 0.0500002)
(0.960114 0.0274709 0.0353273)
(0.95518 -0.017468 -0.00621346)
(0.965092 -0.0575729 -0.0194983)
(0.973827 -0.0586092 -0.0213225)
(0.976038 -0.0364937 -0.0188303)
(0.976558 -0.00858464 -0.0211195)
(0.942274 0.0143215 -0.0346387)
(0.914013 -0.00107667 -0.0168513)
(0.92483 -0.0314472 0.0125296)
(0.923286 -0.029799 -0.000785308)
(0.899251 -0.00800636 -0.0267498)
(0.881831 0.0131149 -0.0326002)
(0.881063 0.00220577 -0.0278163)
(0.890469 -0.0345314 -0.0301695)
(0.896513 -0.0501207 -0.0410105)
(0.908904 -0.0338233 -0.037063)
(0.941387 0.00470452 -0.0330351)
(0.976138 0.0241039 -0.0254944)
(1.00286 0.00899906 0.0235844)
(1.01257 0.00135009 0.0595469)
(1.01378 0.0118862 0.0537902)
(1.0143 0.0240977 0.0429885)
(1.01625 0.0135247 0.0213879)
(1.01468 -0.0143842 -0.0168555)
(0.990478 -0.0214559 -0.0620033)
(0.970883 -0.00563071 -0.0673085)
(0.948828 -0.00113165 -0.0253717)
(0.918702 -0.00982162 -0.00504461)
(0.918197 -0.0133017 -0.0069212)
(0.926722 -0.0274879 0.00659577)
(0.944135 -0.0453499 0.0215695)
(0.972473 -0.0378878 0.0352632)
(1.00105 -0.0122816 0.0642826)
(1.02277 -0.0107273 0.089734)
(1.03129 -0.0330797 0.0757389)
(0.946532 -0.0128349 0.0166261)
(0.956541 0.00234361 0.0321413)
(0.99246 0.047181 0.0234104)
(0.998224 0.0852972 0.0191176)
(0.973389 0.0723677 0.028878)
(0.983678 0.0279583 0.0199781)
(0.976822 -0.0190518 -0.00742529)
(0.946238 -0.0415577 -0.0261747)
(0.930411 -0.0375371 -0.02791)
(0.931605 -0.0321373 -0.00831837)
(0.956251 -0.0224246 -0.00418164)
(0.972781 -0.011299 -0.0221914)
(0.962986 -0.0241151 -0.0123464)
(0.959489 -0.0403659 0.00409906)
(0.946571 -0.0295814 -0.0204531)
(0.900803 -0.0039675 -0.0621495)
(0.877916 0.00808701 -0.0730196)
(0.895507 -0.0190069 -0.0345567)
(0.91064 -0.0540512 0.00967264)
(0.917038 -0.0496464 0.010371)
(0.918909 -0.00936993 -0.0221023)
(0.941905 0.0280833 -0.06172)
(0.9835 0.0250988 -0.0448001)
(0.994429 0.00218835 0.0218547)
(0.992283 0.00665403 0.0289394)
(1.00987 0.0266828 0.00323795)
(1.00896 0.0280866 0.00128821)
(0.986029 -0.00103839 -0.00259777)
(0.965011 -0.0238758 -0.0223635)
(0.952157 -0.0153195 -0.0616443)
(0.959736 0.00454745 -0.0773821)
(0.953984 0.010866 -0.0566591)
(0.951161 0.00623878 -0.039961)
(0.966396 0.000477127 -0.0128263)
(0.941591 -0.0151306 0.0276549)
(0.904667 -0.0304337 0.0555127)
(0.908307 -0.0266416 0.0896435)
(0.941867 -0.0119915 0.121498)
(0.95472 -0.00842672 0.0959694)
(0.947197 -0.0133107 0.0315232)
(0.922982 -0.00964844 0.00263124)
(0.936955 -0.0015765 0.0339139)
(0.974319 0.0462288 0.00915017)
(0.969957 0.087483 -0.0103645)
(0.967688 0.0734298 0.00813452)
(1.01893 0.0339205 0.0105453)
(1.02284 -0.00497519 -0.0225557)
(0.98139 -0.0272984 -0.0365697)
(0.946131 -0.0227934 -0.0106557)
(0.909749 -0.0186336 0.0230819)
(0.919441 -0.0201535 0.00703075)
(0.950333 -0.0185436 -0.0316105)
(0.927694 -0.0288334 -0.0311608)
(0.913188 -0.0346549 -0.0212823)
(0.900137 -0.0136348 -0.0397586)
(0.868798 0.00597682 -0.0692561)
(0.881729 -0.00760859 -0.0701468)
(0.903637 -0.0444209 -0.0289839)
(0.898668 -0.0568163 0.0124197)
(0.892026 -0.0286488 0.0140683)
(0.913543 0.0088213 -0.0196366)
(0.983456 0.0271099 -0.0520467)
(1.04207 0.0214658 -0.0211718)
(1.03629 0.0119097 0.0285862)
(1.0172 0.0183756 0.00960003)
(1.01248 0.0337529 -0.012055)
(0.981768 0.0303921 -0.00478118)
(0.944788 -0.00457117 -0.00925664)
(0.9289 -0.0270304 -0.0316567)
(0.929467 -0.0124542 -0.0762881)
(0.946193 0.00955936 -0.0988785)
(0.954092 0.014543 -0.0732327)
(0.973846 0.0116044 -0.0348424)
(0.99727 0.00734544 0.00947862)
(0.973456 -0.0058412 0.0370281)
(0.946884 -0.0258292 0.0432803)
(0.945228 -0.0377817 0.0789334)
(0.941466 -0.0236101 0.101473)
(0.922883 -0.00304946 0.0414891)
(0.916715 -0.00203573 -0.0224849)
(0.940304 -0.0123851 -0.0070923)
(0.941519 -0.00170112 0.0310311)
(0.967587 0.051896 0.00329283)
(0.93613 0.0950823 -0.0216969)
(0.970665 0.0708764 -0.0075485)
(1.04422 0.0248245 -0.0119728)
(1.02892 -0.0100195 -0.0369998)
(0.992876 -0.0243261 -0.0354778)
(0.951018 -0.0121743 -0.0192718)
(0.900079 -0.0164837 -0.000599519)
(0.908761 -0.0363471 -0.0214661)
(0.917286 -0.0356378 -0.0550846)
(0.849847 -0.0293421 -0.0430204)
(0.815853 -0.0278108 -0.0285748)
(0.831418 -0.0127389 -0.0421952)
(0.858313 -0.0066324 -0.0595682)
(0.894198 -0.0270522 -0.0454713)
(0.876416 -0.0444608 -0.01652)
(0.848894 -0.0299445 -0.0146654)
(0.865816 -0.00258807 -0.0361159)
(0.907619 0.0121874 -0.063807)
(0.97198 0.0119817 -0.069334)
(1.02409 0.00639999 -0.0216475)
(1.02016 0.00599523 0.0150819)
(0.99154 0.0148715 -0.0108884)
(0.975388 0.0279823 -0.0206724)
(0.954785 0.0277954 -0.00460927)
(0.918062 0.000981985 -0.00867237)
(0.891908 -0.0166934 -0.0324068)
(0.900417 -0.00213018 -0.0872826)
(0.926385 0.0151832 -0.111161)
(0.943552 0.014066 -0.0673443)
(0.978415 0.0115893 -0.0169376)
(1.01638 0.0144463 0.0296234)
(1.01683 0.00543815 0.0552058)
(1.01178 -0.0101006 0.0499917)
(1.00099 -0.0171259 0.0645768)
(0.978641 -0.00769216 0.0661232)
(0.972544 -0.00260282 -0.00164179)
(0.969047 -0.00724392 -0.051143)
(0.932797 -0.0105309 -0.00298033)
(0.932034 -0.0105449 0.0437232)
(0.949083 0.0479286 0.00575262)
(0.916001 0.0914931 -0.0352629)
(0.979406 0.0593727 -0.0182976)
(1.02972 0.0166559 -0.0242495)
(0.994718 -0.0152668 -0.0431439)
(0.985661 -0.033494 -0.033629)
(0.972274 -0.0260893 -0.0275541)
(0.925283 -0.0329228 -0.00698774)
(0.919899 -0.0410986 -0.0230145)
(0.914399 -0.0195105 -0.0570328)
(0.855901 -0.00980069 -0.0312922)
(0.838396 -0.0294024 -0.00046705)
(0.857093 -0.0314686 -0.019822)
(0.868005 -0.0269137 -0.0505419)
(0.87537 -0.034681 -0.0409679)
(0.837173 -0.0332238 -0.0215339)
(0.825595 -0.0161113 -0.0295984)
(0.875422 -0.00040844 -0.0413956)
(0.911479 0.0037068 -0.0542945)
(0.950358 -0.0070043 -0.038108)
(0.996992 -0.0114927 0.0244282)
(0.98932 0.000763719 0.0362228)
(0.958579 0.0121762 -0.00137008)
(0.952562 0.0176621 0.0100435)
(0.938983 0.0248424 0.0122566)
(0.901148 0.0126224 -0.0148107)
(0.883438 -0.00524395 -0.0285574)
(0.900688 0.00908431 -0.0804242)
(0.918947 0.0285877 -0.10532)
(0.942554 0.0143198 -0.0534013)
(0.995514 0.00194715 0.00202977)
(1.02853 0.013027 0.0489087)
(1.00982 0.0137072 0.0724428)
(1.00318 -0.00159603 0.0626359)
(1.00292 -0.0132468 0.0668121)
(0.998769 -0.00903637 0.0557227)
(1.00683 -0.00304115 -0.0165058)
(0.988409 -0.00102488 -0.058746)
(0.915588 -0.0178058 0.0119183)
(0.914377 -0.0201342 0.0583914)
(0.91952 0.0437462 0.00147333)
(0.917733 0.0841547 -0.0484992)
(1.00135 0.0501599 -0.0298947)
(1.00638 0.0143579 -0.0427761)
(0.948373 -0.0155915 -0.050233)
(0.947248 -0.0359123 -0.0289812)
(0.956187 -0.0314337 -0.0188575)
(0.896823 -0.0363703 0.00602353)
(0.88442 -0.0333276 -0.0139078)
(0.916037 -0.00254599 -0.0467443)
(0.890888 0.00121057 -0.00769182)
(0.879589 -0.0302613 0.0256146)
(0.906057 -0.029573 -0.0105936)
(0.92328 -0.0194265 -0.0524542)
(0.901609 -0.0257867 -0.0513315)
(0.830966 -0.0223151 -0.0313105)
(0.815886 -0.0108126 -0.0155343)
(0.857097 0.000150468 -0.0140376)
(0.887721 0.00647292 -0.029615)
(0.93747 -0.0102043 -0.0019174)
(0.976832 -0.0188923 0.0635868)
(0.966643 3.45898e-05 0.0554205)
(0.955302 0.0106315 0.0216242)
(0.948922 0.0129151 0.0473299)
(0.931211 0.0280766 0.0252883)
(0.905165 0.0144436 -0.0280568)
(0.893538 -0.0103563 -0.0310269)
(0.911128 0.0158976 -0.0713313)
(0.937172 0.0396431 -0.100361)
(0.967375 0.00390189 -0.0423411)
(1.00698 -0.0110286 0.0285997)
(1.0062 0.014437 0.0707512)
(0.965045 0.0209592 0.0775749)
(0.97369 0.00318009 0.061318)
(0.987821 -0.0105344 0.0624073)
(0.987151 -0.00716339 0.0495888)
(0.99027 0.000965979 -0.0166109)
(0.964849 0.00150376 -0.0508731)
(0.910076 -0.0308451 0.0277234)
(0.899127 -0.0279122 0.0579393)
(0.883565 0.0419396 -0.0151296)
(0.929412 0.0769628 -0.0541098)
(1.02586 0.0443852 -0.0395898)
(0.998154 0.0132079 -0.0671682)
(0.937998 -0.0149821 -0.0520895)
(0.948017 -0.0336877 -0.0123437)
(0.964467 -0.0318446 -1.84207e-05)
(0.875169 -0.0418108 0.0173272)
(0.84567 -0.0318932 -0.0122932)
(0.909177 0.0169482 -0.0368708)
(0.907365 0.0216223 0.0164787)
(0.890733 -0.0267221 0.0377632)
(0.926463 -0.0344409 -0.0137653)
(0.970493 -0.0139148 -0.0415084)
(0.936733 -0.00349198 -0.0428147)
(0.849755 0.0040754 -0.0283302)
(0.813765 0.00262641 -0.000912875)
(0.789313 -0.00302443 -0.0151501)
(0.801427 -0.0109271 -0.0331927)
(0.858285 -0.0378182 0.0134726)
(0.895855 -0.0458827 0.0651414)
(0.932082 -0.0122027 0.0408645)
(0.95808 0.00388726 0.0238624)
(0.932848 0.00400597 0.0642135)
(0.917858 0.0218207 0.0258815)
(0.915305 0.00815557 -0.0423215)
(0.890621 -0.0125853 -0.0451022)
(0.901452 0.0250072 -0.0801115)
(0.964136 0.0432447 -0.102865)
(1.0027 -0.0063186 -0.0303159)
(1.00621 -0.0155965 0.050124)
(0.97154 0.0207337 0.0810688)
(0.934716 0.0262884 0.0759501)
(0.956036 0.00401223 0.062283)
(0.961505 -0.0124275 0.0605853)
(0.964498 -0.00732724 0.0383566)
(0.966033 0.00674429 -0.0167047)
(0.937393 0.00134542 -0.0334168)
(0.922986 -0.0405386 0.0348212)
(0.892772 -0.0280069 0.045167)
(0.85707 0.0405229 -0.032308)
(0.935757 0.0640679 -0.0508564)
(1.02793 0.0380569 -0.0465581)
(0.994503 0.0178472 -0.0915185)
(0.971623 -0.0108298 -0.0599242)
(1.00077 -0.0341056 -0.007546)
(0.994908 -0.0318448 0.00540761)
(0.879471 -0.0349936 0.0234219)
(0.838557 -0.0157085 -0.00403416)
(0.895407 0.0364829 -0.0259195)
(0.905155 0.0294079 0.030038)
(0.907371 -0.0284821 0.0437281)
(0.940104 -0.0362026 -0.0141543)
(0.968278 -0.00576578 -0.0266196)
(0.93189 0.0194442 -0.0272163)
(0.881401 0.0292776 -0.0140294)
(0.853765 0.0193301 0.0116603)
(0.810998 0.00460175 -0.0284781)
(0.828593 -0.0152667 -0.0437311)
(0.849332 -0.0421433 0.0209722)
(0.845541 -0.0442124 0.0478353)
(0.901043 -0.0129816 0.00183716)
(0.927256 -0.00325374 0.00445066)
(0.888748 -0.0046329 0.0566196)
(0.893053 0.017071 0.0126347)
(0.901914 0.0125363 -0.0469929)
(0.860615 -0.000288202 -0.0499946)
(0.877672 0.0368625 -0.0882705)
(0.978325 0.0433376 -0.0964266)
(1.00764 -0.01343 -0.00824961)
(0.988517 -0.0175056 0.0609792)
(0.943606 0.0206627 0.0698906)
(0.921442 0.0271921 0.0691854)
(0.952484 0.0101764 0.0717228)
(0.948379 -0.00626451 0.066548)
(0.948419 -0.00274958 0.0322317)
(0.944382 0.0130275 -0.0114969)
(0.924368 -0.00130085 -0.0166961)
(0.937779 -0.0410433 0.0320161)
(0.879794 -0.0197449 0.0250266)
(0.841209 0.0410145 -0.0449352)
(0.940396 0.0508765 -0.0431852)
(1.01932 0.0305989 -0.053678)
(0.991291 0.0193754 -0.109035)
(0.985377 -0.00927451 -0.0611943)
(1.01723 -0.0362641 -0.00407371)
(1.0066 -0.0329066 0.00207589)
(0.881074 -0.0281485 0.0221912)
(0.820148 0.00159708 -0.00486204)
(0.872426 0.0527537 -0.0310186)
(0.924788 0.0292742 0.0349063)
(0.931298 -0.0312144 0.0535449)
(0.93119 -0.0305917 -0.0101018)
(0.930373 0.00927051 -0.024815)
(0.912302 0.0364104 -0.0231166)
(0.942172 0.0371695 0.00212225)
(0.947243 0.0229842 0.0312883)
(0.88702 0.00371208 -0.0181422)
(0.887392 -0.020344 -0.0217038)
(0.870264 -0.0397213 0.0483953)
(0.84404 -0.0352736 0.0381635)
(0.886539 -0.0113058 -0.03341)
(0.880682 -0.00808346 -0.00884235)
(0.830614 -0.00764691 0.0579705)
(0.857917 0.0178811 0.0126351)
(0.88079 0.0219894 -0.0349794)
(0.832246 0.0189252 -0.0336174)
(0.881117 0.0502049 -0.0772155)
(0.996056 0.0386483 -0.0724927)
(0.971783 -0.0244901 0.0142211)
(0.940319 -0.0217883 0.0577192)
(0.909974 0.0203804 0.0514739)
(0.896081 0.029998 0.0554257)
(0.93349 0.0161999 0.0698213)
(0.925641 0.00180437 0.0702098)
(0.923558 0.00804684 0.037042)
(0.923625 0.0212999 -0.00429939)
(0.928163 -0.00213692 -0.00989583)
(0.933976 -0.0285264 0.0223645)
(0.8562 -0.00276601 0.00055416)
(0.837877 0.040958 -0.0469457)
(0.935722 0.036255 -0.031379)
(0.991647 0.0200507 -0.0626817)
(0.987558 0.0165735 -0.114851)
(0.989431 -0.00943616 -0.0480206)
(1.01061 -0.0385625 0.005241)
(1.00154 -0.0313506 -0.00016082)
(0.865379 -0.0124961 0.0161968)
(0.786252 0.0214615 -0.0115112)
(0.865582 0.0566209 -0.0300485)
(0.948969 0.0177464 0.043835)
(0.937358 -0.0340409 0.0588697)
(0.903803 -0.0188182 -0.00489731)
(0.872953 0.0265571 -0.0226682)
(0.902735 0.0411072 -0.0184806)
(1.00026 0.0275204 0.00819484)
(1.00059 0.0163214 0.0213153)
(0.919898 0.00239789 -0.0252362)
(0.911836 -0.019443 0.0110806)
(0.878072 -0.033506 0.0869512)
(0.835537 -0.0304624 0.0320584)
(0.863517 -0.0141999 -0.0570016)
(0.857189 -0.0099761 -0.0147853)
(0.816227 -0.00757484 0.0481874)
(0.838489 0.0186116 0.00429982)
(0.837024 0.0334975 -0.0141141)
(0.824048 0.0352507 -0.00370468)
(0.917654 0.0548868 -0.0461533)
(0.978872 0.0337485 -0.033134)
(0.914099 -0.0314126 0.0313746)
(0.870414 -0.0262323 0.0457426)
(0.849998 0.0236785 0.0282982)
(0.875068 0.0346367 0.028321)
(0.93923 0.0213746 0.0440183)
(0.930638 0.0103537 0.0522267)
(0.919689 0.0181225 0.0283614)
(0.920657 0.0294994 -0.00955866)
(0.934929 0.00347171 -0.0105803)
(0.917706 -0.0139017 0.012337)
(0.845777 0.00878546 -0.0169418)
(0.848911 0.0373633 -0.0413651)
(0.93547 0.0246403 -0.0254593)
(0.977232 0.00956911 -0.07637)
(0.985899 0.0100495 -0.108272)
(0.97999 -0.0125155 -0.0259834)
(1.00258 -0.0401946 0.00923467)
(0.987089 -0.0245276 -0.00722706)
(0.833773 0.00571852 0.00717087)
(0.767042 0.0337285 -0.00923711)
(0.882583 0.0482633 -0.0129125)
(0.949738 0.00473793 0.0463962)
(0.905803 -0.0308359 0.0533803)
(0.846995 -0.00259657 0.00223674)
(0.835145 0.0317935 -0.00730221)
(0.936241 0.0274163 -0.00908011)
(1.02753 0.0150146 0.00586212)
(0.984665 0.0138848 0.00789117)
(0.908221 0.00257955 -0.0237309)
(0.899024 -0.0136945 0.0386785)
(0.859306 -0.0227718 0.111307)
(0.829553 -0.0291426 0.0331161)
(0.870227 -0.0197327 -0.0665318)
(0.858123 -0.00774574 -0.022247)
(0.797854 -0.00332392 0.0313376)
(0.79043 0.0217879 -0.0023755)
(0.820036 0.0434886 -0.000816403)
(0.867362 0.0465679 0.0103356)
(0.917727 0.0572521 -0.0185619)
(0.925301 0.0324281 0.0031452)
(0.900204 -0.0326805 0.0410936)
(0.856578 -0.0280964 0.031792)
(0.818694 0.0211523 0.00601541)
(0.865886 0.0269599 -0.00352031)
(0.9424 0.0171704 0.0100233)
(0.937651 0.0144211 0.0281871)
(0.928276 0.0257919 0.00976249)
(0.911491 0.0372364 -0.0271559)
(0.915696 0.0126961 -0.0173075)
(0.89834 -0.00283675 0.00986291)
(0.824937 0.0161606 -0.0283443)
(0.868425 0.0333389 -0.0352426)
(0.968177 0.0116688 -0.0279314)
(0.991155 -0.00152167 -0.0863971)
(0.976587 0.00511736 -0.0768757)
(0.950796 -0.0141028 0.00203061)
(0.971048 -0.0375518 0.00370297)
(0.944614 -0.0118001 -0.0122071)
(0.793802 0.023549 0.0070951)
(0.778719 0.0375377 0.00589401)
(0.906711 0.0364978 0.00243238)
(0.923753 0.000450067 0.0338699)
(0.855424 -0.0199431 0.0451067)
(0.810671 0.00700536 0.0190782)
(0.849175 0.0178218 0.011765)
(0.96542 0.00681563 -0.00631819)
(1.01531 0.00981876 -0.00190559)
(0.965995 0.0151734 -0.000180587)
(0.898621 0.00558124 -0.0114532)
(0.880367 -0.00537861 0.0595699)
(0.863781 -0.0141612 0.119425)
(0.841148 -0.0253344 0.0340185)
(0.856288 -0.0154109 -0.0595908)
(0.84269 0.00406165 -0.0123938)
(0.766429 0.00664475 0.0269245)
(0.748105 0.0244994 -0.000378549)
(0.83497 0.0477733 0.0069349)
(0.891229 0.0511198 0.0152999)
(0.882565 0.0560342 0.00619003)
(0.901348 0.0269769 0.0464828)
(0.900493 -0.0374596 0.0675795)
(0.851721 -0.0298706 0.0297907)
(0.820354 0.01531 -0.00964832)
(0.882 0.0150339 -0.0333251)
(0.935718 0.0131641 -0.0241121)
(0.926272 0.0202024 0.000852751)
(0.922061 0.0335525 -0.0141397)
(0.883687 0.0445531 -0.0476327)
(0.897247 0.020909 -0.0210343)
(0.84823 0.00668032 0.00738959)
(0.780007 0.0213901 -0.0316383)
(0.918044 0.0234618 -0.0214413)
(1.01568 -0.00416015 -0.0364177)
(0.989421 -0.00869752 -0.0796547)
(0.936434 0.00623883 -0.0257893)
(0.896174 -0.011703 0.0170641)
(0.913985 -0.0317001 -0.0102537)
(0.8736 0.00538718 -0.0120199)
(0.749051 0.0398254 0.018344)
(0.810705 0.0308713 0.0239829)
(0.917616 0.0264924 0.00550032)
(0.887519 0.00514668 0.0208203)
(0.833738 -0.0100216 0.0431461)
(0.828442 0.00445164 0.0360547)
(0.857125 -0.00318809 0.0145527)
(0.920446 -0.00916895 -0.0207248)
(0.958248 0.00770678 -0.0157347)
(0.940507 0.0169417 -0.00613794)
(0.883668 0.0114582 0.00260259)
(0.876337 0.00450729 0.0754356)
(0.893104 -0.00536894 0.118577)
(0.835627 -0.0167005 0.0376666)
(0.808754 -0.00542886 -0.033874)
(0.81056 0.0158387 0.00622333)
(0.741968 0.0134276 0.0314487)
(0.730868 0.0223479 0.0241167)
(0.839484 0.0465894 0.0232302)
(0.857527 0.052302 0.0177598)
(0.843465 0.0517437 0.0314543)
(0.907361 0.0179726 0.0828353)
(0.896132 -0.0414734 0.0755363)
(0.836569 -0.0292877 0.017085)
(0.83599 0.0120547 -0.0276514)
(0.909681 0.00893401 -0.0556121)
(0.929893 0.0135142 -0.0513867)
(0.916904 0.0261287 -0.0215865)
(0.89477 0.0413857 -0.0353966)
(0.847295 0.0511831 -0.0668241)
(0.894915 0.0252808 -0.0225839)
(0.771941 0.0160289 0.00695114)