/*--------------------------------*- C++ -*----------------------------------*\
  =========                 |
  \\      /  F ield         | OpenFOAM: The Open Source CFD Toolbox
   \\    /   O peration     | Website:  https://openfoam.org
    \\  /    A nd           | Version:  10
     \\/     M anipulation  |
\*---------------------------------------------------------------------------*/
FoamFile
{
    format      ascii;
    class       volScalarField;
    location    "4";
    object      pPrime2Mean;
}
// * * * * * * * * * * * * * * * * * * * * * * * * * * * * * * * * * * * * * //

dimensions      [0 4 -4 0 0 0 0];

internalField   nonuniform List<scalar> 
25600
(
5.15124e-07
1.14544e-06
2.81001e-07
1.29322e-06
2.21657e-06
9.29971e-07
1.08189e-06
2.90179e-07
9.60809e-07
2.84332e-06
3.3323e-07
1.99449e-07
1.87599e-06
1.04454e-07
2.30875e-07
1.47458e-06
6.65551e-07
3.88958e-08
1.01186e-06
5.9676e-07
1.00296e-07
1.03046e-07
6.14083e-07
3.05021e-07
4.89349e-07
7.14698e-07
9.49751e-07
7.86448e-07
1.22108e-07
1.00984e-07
1.32942e-07
8.56102e-07
1.12995e-07
2.30064e-06
1.47626e-06
1.32026e-06
1.21713e-06
6.05404e-07
3.93619e-07
1.69288e-07
2.03326e-06
1.31508e-06
3.18813e-07
2.3283e-07
2.83514e-07
1.83585e-07
1.33998e-07
2.86547e-07
5.23334e-07
4.32702e-06
1.09174e-07
9.633e-08
3.31589e-06
9.68401e-08
5.43435e-07
5.22837e-08
5.19036e-07
5.76569e-08
1.30969e-06
2.76863e-06
2.64223e-06
1.55359e-06
2.51005e-06
1.61648e-06
5.13844e-07
1.33248e-06
6.3748e-07
7.07947e-07
8.37333e-07
3.57976e-07
5.21717e-07
8.86754e-08
7.1606e-08
1.23847e-06
2.61084e-07
1.03279e-07
5.5763e-07
1.43879e-06
1.68098e-06
4.45264e-07
8.31662e-07
1.60376e-07
5.92668e-07
1.68355e-06
2.55671e-06
7.59027e-07
1.25325e-06
1.7781e-07
1.28894e-06
4.97612e-06
1.84912e-07
7.37201e-07
1.93894e-06
9.40642e-07
1.31363e-06
8.74325e-08
1.64716e-07
1.02054e-06
3.57655e-07
1.49425e-07
4.76591e-07
3.8163e-06
1.2848e-06
2.14533e-07
2.6741e-07
9.3241e-07
5.84947e-07
1.46055e-06
3.37421e-06
2.18676e-07
1.82918e-07
2.86282e-07
4.58351e-07
2.92618e-06
8.86883e-07
1.59821e-07
6.33548e-07
1.39632e-06
4.29244e-07
1.61012e-07
9.9331e-07
4.76514e-07
2.01505e-07
2.43043e-06
9.32153e-07
8.27187e-07
2.26506e-07
2.11415e-07
2.60844e-06
5.28777e-06
4.12168e-07
6.63537e-07
1.04274e-06
1.54076e-06
1.49678e-06
1.18458e-07
4.04089e-07
3.60534e-07
2.07573e-06
3.62093e-06
2.73387e-06
3.8525e-06
5.73377e-07
7.22341e-07
4.92264e-07
2.79366e-06
9.08375e-07
1.62609e-06
4.62181e-06
3.86259e-07
1.82224e-07
1.8241e-07
3.42674e-07
2.90585e-07
2.58209e-07
5.29175e-07
4.19822e-07
4.58235e-07
3.45276e-07
2.47776e-07
2.28174e-06
7.39955e-07
1.45023e-07
1.34427e-06
5.23883e-07
7.02907e-07
1.7395e-07
1.73525e-07
2.47208e-06
2.38549e-06
2.94001e-07
9.55836e-07
9.26899e-07
1.28665e-06
1.58902e-07
1.8077e-06
2.6625e-07
1.42402e-07
6.1913e-07
1.38907e-06
6.75681e-07
8.29434e-07
6.34635e-07
3.10301e-06
1.93539e-06
2.22084e-06
1.95798e-07
1.84238e-07
3.84665e-07
1.31501e-06
6.67441e-07
3.20616e-07
3.93825e-07
8.93652e-07
2.36877e-07
5.5553e-07
7.69658e-07
7.23889e-07
7.06701e-07
2.88895e-06
1.26104e-06
4.84171e-07
1.85846e-07
7.62796e-07
2.80121e-07
2.78508e-06
1.02239e-06
2.48875e-07
3.59219e-06
1.22742e-06
2.78923e-07
1.07727e-06
1.42898e-06
2.56221e-06
4.58633e-07
6.52458e-07
2.80107e-06
6.07739e-07
7.55409e-07
2.12182e-06
8.907e-07
5.42829e-07
3.38834e-07
1.4448e-06
1.15184e-06
1.24232e-06
3.16227e-07
1.1256e-06
7.42615e-06
3.82329e-06
2.01301e-07
3.6265e-07
1.42822e-06
1.01793e-06
1.63294e-06
1.91984e-06
2.8455e-07
5.24424e-07
5.06654e-07
3.72203e-06
9.90332e-07
8.47131e-07
3.4703e-07
6.91613e-07
2.16555e-07
1.0886e-06
2.06442e-07
2.54183e-06
8.59746e-06
1.0502e-06
1.09654e-06
3.26211e-06
2.60475e-06
2.23101e-06
3.99846e-07
1.51985e-07
3.15373e-06
1.50524e-06
1.63298e-07
3.14065e-07
3.35312e-07
1.91461e-06
9.30961e-07
5.63644e-07
1.38856e-06
1.40945e-06
2.25436e-06
8.80441e-06
1.29211e-05
1.18612e-06
1.57535e-06
1.34557e-06
3.98506e-06
2.86933e-06
7.23508e-07
3.25455e-07
3.40255e-06
8.42365e-07
1.89541e-06
4.26671e-06
6.15865e-07
1.7181e-06
1.67988e-06
1.29297e-06
4.04066e-07
1.33132e-06
2.65688e-07
6.56842e-06
1.57006e-05
2.66106e-06
2.65743e-06
2.11236e-06
1.71607e-07
7.77889e-07
1.6956e-06
2.70176e-07
2.39952e-06
6.03366e-07
2.17271e-07
5.86313e-07
1.02782e-06
1.35076e-07
3.5551e-07
3.21431e-06
2.90978e-06
1.19087e-06
1.91051e-06
5.17149e-06
5.32864e-06
9.36947e-07
1.54326e-07
6.3037e-07
1.369e-07
2.69777e-07
6.31992e-07
5.0799e-07
2.51367e-06
1.31551e-06
3.20149e-06
3.31785e-06
1.90582e-06
3.35329e-06
5.96142e-07
1.82857e-07
1.89798e-07
2.80751e-07
4.68535e-07
3.36906e-06
2.26189e-06
1.61737e-07
2.01759e-06
1.72106e-06
3.25907e-07
6.68852e-07
2.67869e-07
3.0047e-06
4.08504e-06
9.33536e-07
3.01789e-07
5.73333e-07
5.12261e-07
3.20328e-07
1.78145e-07
2.99871e-06
2.94957e-06
9.76028e-07
2.10366e-06
4.68282e-06
4.73899e-06
2.82316e-07
2.0223e-06
1.53357e-06
9.60797e-07
6.56953e-07
8.17515e-07
1.2322e-06
3.76994e-07
3.67482e-07
3.46789e-06
4.8979e-06
3.05862e-06
5.00304e-06
1.18465e-06
2.94052e-07
4.40449e-07
2.49578e-07
3.59001e-07
5.05267e-06
3.60947e-06
7.38226e-07
5.24917e-06
3.46674e-06
3.38294e-07
4.48165e-07
6.76992e-07
4.64283e-06
3.99905e-06
1.07779e-06
4.89679e-07
7.11066e-07
6.57933e-07
3.39787e-07
2.57997e-07
2.48353e-06
2.97771e-06
1.23606e-06
1.62745e-06
2.4887e-06
2.91441e-06
3.17747e-07
8.76497e-06
7.99728e-06
4.58275e-06
1.29979e-06
5.79741e-07
5.78156e-07
1.02576e-06
1.84768e-06
1.0686e-05
9.67579e-06
1.79571e-06
2.25175e-06
3.86235e-07
9.13428e-07
3.98884e-07
3.41528e-07
9.6426e-07
8.58401e-06
6.85376e-06
4.49011e-06
1.48841e-05
6.00086e-06
1.01222e-06
4.22907e-06
5.87757e-07
6.64294e-06
3.68254e-06
7.65799e-07
4.61935e-07
4.26463e-07
4.92495e-07
3.85363e-07
3.83914e-07
3.64484e-06
3.14437e-06
1.19276e-06
2.4753e-06
4.27887e-06
4.67341e-06
2.23739e-07
8.30817e-06
4.90395e-06
1.41627e-06
1.03305e-06
3.02899e-06
2.00153e-06
2.51785e-06
2.99918e-06
1.29834e-05
8.79342e-06
1.96363e-06
9.59763e-07
2.64419e-06
1.95069e-06
8.44341e-07
4.82577e-07
1.47842e-06
1.09288e-05
5.30672e-06
3.1048e-06
8.07546e-06
1.11466e-06
4.26792e-06
5.88493e-06
1.81817e-06
1.04678e-05
4.2421e-06
8.59704e-07
6.20842e-07
6.42589e-07
4.0846e-07
1.01234e-06
3.43701e-07
3.55005e-06
2.96181e-06
6.88085e-07
1.75304e-06
3.66343e-06
3.82754e-06
3.67347e-07
9.45137e-06
7.39397e-06
2.3736e-06
1.40593e-06
3.97332e-06
2.08949e-06
1.69195e-06
2.29374e-06
1.26017e-05
9.1326e-06
1.19537e-06
3.41063e-07
4.26288e-06
1.51024e-06
2.12365e-06
5.33367e-07
7.81315e-07
9.07287e-06
3.74776e-06
9.25668e-07
1.66012e-06
2.04311e-07
7.35051e-06
1.05252e-05
1.6087e-06
1.13025e-05
4.15745e-06
1.09335e-06
5.88079e-07
7.24317e-07
4.25473e-07
1.15478e-06
6.29368e-07
1.38762e-06
9.57905e-07
4.05703e-07
1.32071e-06
3.48381e-06
4.35686e-06
2.39217e-07
9.99996e-06
7.62715e-06
6.54659e-07
4.06306e-06
4.1179e-06
1.20194e-06
1.33117e-06
3.54383e-06
1.65537e-05
9.64161e-06
2.19073e-06
4.54113e-07
5.64156e-06
1.35715e-06
2.79091e-06
2.88732e-07
4.0102e-07
8.46623e-06
1.93913e-06
5.44272e-07
3.84344e-07
1.20999e-06
4.80891e-06
1.21141e-05
1.59007e-06
1.35493e-05
5.57109e-06
1.1156e-06
1.65152e-06
1.78956e-06
6.30217e-07
1.78072e-06
6.01089e-07
3.21645e-06
1.41206e-06
5.7575e-07
7.30642e-07
4.46273e-06
5.03988e-06
7.29887e-07
1.35758e-05
7.93593e-06
4.43268e-07
5.71045e-06
3.14765e-06
1.13793e-06
3.46966e-06
9.7027e-06
2.29952e-05
1.21036e-05
1.47513e-06
1.16872e-06
1.50461e-05
1.94401e-06
3.00379e-06
3.07837e-07
4.53336e-07
7.88874e-06
1.20871e-06
6.79556e-07
3.46705e-06
7.20256e-06
1.88648e-06
9.67786e-06
3.27155e-06
2.11815e-05
8.45901e-06
4.63153e-07
5.0945e-06
3.51096e-06
8.20557e-07
3.73684e-06
1.07144e-06
4.05453e-06
1.74955e-06
9.93389e-07
5.71312e-07
5.82331e-06
4.51184e-06
1.7199e-06
1.34852e-05
6.82915e-06
1.07349e-06
5.56395e-06
1.20016e-06
5.37173e-07
4.42432e-06
1.75666e-05
3.47154e-05
1.69623e-05
4.07978e-07
5.74349e-06
1.83777e-05
4.9831e-07
4.22162e-06
3.47067e-07
6.68569e-07
1.11971e-05
1.41446e-06
1.00148e-06
8.13549e-06
1.51912e-05
8.93122e-07
9.20722e-06
4.00849e-06
2.30077e-05
5.25096e-06
1.09699e-06
5.72087e-06
1.67966e-06
7.03762e-07
6.59969e-06
1.74287e-06
4.99523e-06
3.03492e-06
5.92268e-07
8.44373e-07
5.27945e-06
3.38774e-06
1.62147e-06
9.78359e-06
4.74633e-06
1.69865e-06
3.74512e-06
4.07056e-07
3.69286e-07
3.53899e-06
2.09502e-05
3.1365e-05
8.87953e-06
1.48234e-06
7.31948e-06
1.39004e-05
9.64537e-07
5.85099e-06
5.47842e-07
1.26602e-06
1.30309e-05
8.34787e-07
2.8148e-06
5.80878e-06
1.11991e-05
1.74147e-06
1.02835e-05
2.11514e-06
1.88121e-05
3.49546e-06
3.40508e-06
7.65472e-06
6.87602e-07
5.7391e-07
8.30392e-06
1.59919e-06
7.79814e-06
4.6057e-06
8.68583e-07
4.80532e-07
3.2125e-06
3.54037e-06
8.39095e-07
4.6811e-06
1.49104e-06
2.63469e-06
1.83154e-06
4.00246e-07
3.55918e-07
7.53606e-06
2.84987e-05
2.76338e-05
3.54212e-06
1.82363e-06
1.05423e-05
1.50442e-05
1.73747e-06
8.75894e-06
1.0113e-06
2.65283e-06
1.78858e-05
5.58275e-07
7.4281e-06
5.45845e-06
1.02216e-05
2.93947e-06
1.49076e-05
1.13743e-06
2.69874e-05
1.05214e-05
1.83475e-06
9.94695e-06
6.92611e-07
5.96644e-07
7.32294e-06
1.03101e-06
6.9736e-06
1.65254e-06
3.27175e-06
1.87877e-06
2.45668e-06
4.81686e-06
4.63679e-07
1.93104e-06
6.32324e-07
3.39565e-06
1.1222e-06
9.65582e-07
4.10291e-07
1.36842e-05
3.39996e-05
2.54369e-05
3.01065e-06
1.22546e-06
1.04438e-05
1.45149e-05
3.1531e-06
1.1888e-05
1.0963e-06
4.23033e-06
2.3651e-05
9.13725e-07
9.69109e-06
9.2152e-06
1.18064e-05
1.96949e-06
1.33825e-05
1.52175e-06
3.76512e-05
2.00631e-05
1.16152e-06
1.11327e-05
6.66016e-07
1.07116e-06
5.48674e-06
9.9563e-07
5.54589e-06
1.70712e-06
1.30624e-06
7.43981e-07
6.05571e-06
8.02408e-06
7.01585e-07
1.72853e-06
6.45478e-07
3.71616e-06
1.2149e-06
1.38677e-06
5.42875e-07
1.68244e-05
3.57336e-05
2.24853e-05
2.56766e-06
6.46609e-07
9.10346e-06
1.17951e-05
5.46667e-06
1.36303e-05
8.57335e-07
5.66759e-06
3.06815e-05
1.45869e-06
1.15019e-05
1.33965e-05
1.4262e-05
1.30243e-06
1.46042e-05
1.29727e-06
5.02322e-05
2.65406e-05
2.02663e-06
1.51541e-05
7.61258e-07
1.04748e-06
5.60106e-06
1.01014e-06
4.7958e-06
1.65244e-06
6.55907e-07
8.18706e-07
9.02251e-06
9.07003e-06
9.03191e-07
2.05613e-06
8.22236e-07
3.571e-06
1.19593e-06
1.5787e-06
8.90809e-07
1.82536e-05
3.39953e-05
1.81061e-05
2.37291e-06
8.10154e-07
8.58083e-06
8.47849e-06
7.89987e-06
1.37073e-05
7.26166e-07
7.89472e-06
3.92368e-05
2.66683e-06
1.385e-05
2.09123e-05
2.14269e-05
9.53692e-07
2.36609e-05
8.08399e-07
6.24106e-05
2.79569e-05
4.5281e-06
2.28397e-05
1.20645e-06
8.90951e-07
6.39631e-06
1.05612e-06
3.20966e-06
1.03048e-06
6.70142e-07
7.15251e-07
7.73571e-06
9.90415e-06
1.29187e-06
1.64909e-06
8.38488e-07
4.36495e-06
1.25389e-06
2.20385e-06
1.13088e-06
1.96652e-05
3.06371e-05
1.19515e-05
1.6824e-06
1.18123e-06
7.39214e-06
6.23393e-06
1.0186e-05
1.39476e-05
7.40893e-07
9.82822e-06
4.63933e-05
3.98554e-06
1.37134e-05
2.64197e-05
2.41062e-05
9.89862e-07
3.43554e-05
9.26291e-07
6.75497e-05
2.9369e-05
5.70914e-06
2.6066e-05
1.76912e-06
9.06781e-07
6.40566e-06
1.22742e-06
1.24872e-06
8.47235e-07
1.22752e-06
7.29054e-07
8.03366e-06
1.25517e-05
1.6103e-06
1.67234e-06
1.02982e-06
5.2778e-06
1.38239e-06
2.45965e-06
1.43649e-06
1.96583e-05
2.61936e-05
7.37813e-06
1.27846e-06
1.95949e-06
6.6557e-06
6.1622e-06
1.1273e-05
1.38856e-05
8.5753e-07
1.14673e-05
5.14493e-05
4.86272e-06
1.28092e-05
2.95438e-05
2.50538e-05
1.34512e-06
4.39362e-05
1.38559e-06
7.39104e-05
3.72276e-05
5.01674e-06
2.80221e-05
2.1957e-06
9.26896e-07
4.19172e-06
1.18995e-06
1.31517e-06
7.94479e-07
1.34945e-06
7.63857e-07
8.05413e-06
1.46275e-05
1.57936e-06
1.90422e-06
1.1535e-06
5.69026e-06
1.46409e-06
3.09711e-06
1.40484e-06
1.85225e-05
2.57558e-05
6.59917e-06
1.75966e-06
3.05566e-06
6.70865e-06
6.72979e-06
1.19752e-05
1.42347e-05
8.73662e-07
1.34006e-05
5.57437e-05
5.72469e-06
1.27082e-05
3.2998e-05
2.63715e-05
1.85884e-06
5.33417e-05
2.02996e-06
8.26716e-05
4.65426e-05
4.11848e-06
2.93559e-05
2.53612e-06
9.72725e-07
2.67865e-06
1.58753e-06
1.24585e-06
8.11017e-07
1.34479e-06
9.51012e-07
9.86233e-06
1.64729e-05
1.5564e-06
2.05056e-06
1.29735e-06
5.91715e-06
1.42969e-06
4.05326e-06
1.62718e-06
1.82845e-05
2.65206e-05
7.06249e-06
2.77934e-06
3.89922e-06
6.57307e-06
6.5747e-06
1.26543e-05
1.44362e-05
8.16749e-07
1.55072e-05
6.19595e-05
6.64414e-06
1.34451e-05
3.45871e-05
2.44864e-05
3.279e-06
6.39528e-05
2.93783e-06
9.23751e-05
5.60388e-05
3.16548e-06
2.81958e-05
2.72242e-06
1.11696e-06
1.74915e-06
2.10278e-06
1.19168e-06
1.05736e-06
1.79801e-06
9.13204e-07
1.21661e-05
1.69081e-05
1.58279e-06
2.23509e-06
1.48429e-06
5.7309e-06
1.57143e-06
4.70797e-06
1.79982e-06
1.7426e-05
2.68794e-05
7.13501e-06
3.31819e-06
4.55173e-06
6.0434e-06
6.55488e-06
1.25868e-05
1.45521e-05
9.25053e-07
1.56127e-05
6.56064e-05
7.29016e-06
1.29644e-05
3.55441e-05
2.39768e-05
3.46715e-06
6.7701e-05
3.04706e-06
0.000103897
6.17909e-05
2.66288e-06
2.63819e-05
2.94292e-06
1.22039e-06
1.5184e-06
1.96144e-06
1.29946e-06
1.30721e-06
2.35911e-06
9.45687e-07
1.29542e-05
1.73979e-05
1.62539e-06
2.55135e-06
1.64007e-06
5.50773e-06
1.77351e-06
5.36244e-06
1.97049e-06
1.65308e-05
2.76241e-05
6.9724e-06
3.58452e-06
5.21411e-06
5.14018e-06
6.74219e-06
1.20974e-05
1.3924e-05
1.34955e-06
1.51206e-05
6.7098e-05
7.66215e-06
1.21675e-05
3.57952e-05
2.60554e-05
2.94335e-06
7.07749e-05
1.68123e-06
0.000119886
6.31883e-05
2.46846e-06
2.48752e-05
3.01149e-06
1.36739e-06
1.4337e-06
1.81676e-06
1.2467e-06
1.7494e-06
2.64799e-06
9.74268e-07
1.28156e-05
1.79196e-05
1.54122e-06
2.76357e-06
1.72859e-06
5.81139e-06
1.96515e-06
5.5456e-06
2.18647e-06
1.60626e-05
2.84543e-05
6.80194e-06
3.84054e-06
5.54002e-06
4.48879e-06
6.97655e-06
1.12606e-05
1.26276e-05
1.28518e-06
1.75232e-05
6.99716e-05
7.36969e-06
1.2177e-05
3.32976e-05
2.57202e-05
2.7862e-06
7.27489e-05
1.08423e-06
0.000126303
5.93036e-05
2.44019e-06
2.26773e-05
2.38164e-06
1.72958e-06
1.34184e-06
1.72408e-06
1.20229e-06
1.98669e-06
2.60838e-06
9.71201e-07
1.2297e-05
1.73694e-05
1.4279e-06
2.64341e-06
1.77894e-06
6.36641e-06
2.04196e-06
5.44751e-06
2.30196e-06
1.58883e-05
2.88902e-05
6.64153e-06
3.89337e-06
5.5684e-06
4.07068e-06
6.94301e-06
1.08416e-05
1.26044e-05
9.2175e-07
1.96504e-05
7.26883e-05
6.45349e-06
1.25464e-05
2.98373e-05
2.50833e-05
2.62892e-06
7.44891e-05
1.02772e-06
0.000122538
5.42237e-05
2.29184e-06
2.04545e-05
1.75496e-06
2.11347e-06
1.29726e-06
1.59827e-06
1.16991e-06
2.0044e-06
2.55335e-06
9.92682e-07
1.17424e-05
1.70564e-05
1.36264e-06
2.54939e-06
1.75854e-06
6.55403e-06
2.02024e-06
5.34716e-06
2.30014e-06
1.53128e-05
2.85429e-05
6.4349e-06
3.81392e-06
5.60449e-06
3.6993e-06
6.64829e-06
1.10114e-05
1.33912e-05
7.09299e-07
2.063e-05
7.41909e-05
5.88907e-06
1.27399e-05
2.76406e-05
2.52572e-05
2.32339e-06
7.40394e-05
9.99e-07
0.000118382
5.19601e-05
2.06243e-06
1.93252e-05
1.56543e-06
2.2074e-06
1.28517e-06
1.51318e-06
1.1461e-06
2.05584e-06
2.53316e-06
9.91516e-07
1.14673e-05
1.69666e-05
1.31484e-06
2.57345e-06
1.69504e-06
6.52437e-06
2.00674e-06
5.25435e-06
2.19607e-06
1.46322e-05
2.82463e-05
6.35462e-06
3.75442e-06
5.68256e-06
3.43859e-06
6.43142e-06
1.11228e-05
1.3963e-05
6.44585e-07
2.02322e-05
7.35251e-05
5.47074e-06
1.26363e-05
2.63901e-05
2.53057e-05
2.07533e-06
7.34996e-05
9.88345e-07
0.000115747
5.09e-05
2.0265e-06
1.91777e-05
1.4919e-06
2.25977e-06
1.2753e-06
1.46388e-06
1.13488e-06
2.14311e-06
2.59335e-06
9.68299e-07
1.13556e-05
1.68215e-05
1.28035e-06
2.59806e-06
1.65109e-06
6.56796e-06
2.02262e-06
5.17554e-06
2.11033e-06
1.42325e-05
2.8166e-05
6.36193e-06
3.72726e-06
5.72196e-06
3.3232e-06
6.27323e-06
1.12822e-05
1.3943e-05
6.80614e-07
1.97403e-05
7.3215e-05
5.21964e-06
1.25738e-05
2.57832e-05
2.51095e-05
1.9988e-06
7.3049e-05
9.85926e-07
0.000114503
5.02533e-05
2.04973e-06
1.90515e-05
1.4411e-06
2.28726e-06
1.27046e-06
1.44065e-06
1.13003e-06
2.19996e-06
2.65117e-06
9.51847e-07
1.12913e-05
1.67744e-05
1.26622e-06
2.60008e-06
1.63299e-06
6.60001e-06
2.04194e-06
5.08302e-06
2.08281e-06
1.40361e-05
2.81197e-05
6.41405e-06
3.73469e-06
8.16662e-08
2.64013e-07
9.01103e-08
6.14545e-07
1.34319e-06
6.68651e-07
1.02352e-06
2.30129e-07
1.15011e-06
2.37119e-06
3.42122e-07
5.19995e-07
2.31395e-06
2.28778e-07
1.36748e-07
1.16533e-06
1.90825e-07
8.80764e-08
1.54215e-06
7.21438e-07
6.06921e-08
4.02383e-07
9.30356e-07
5.42378e-07
3.92739e-07
2.61227e-07
7.71803e-07
1.0113e-06
8.11267e-08
4.72543e-07
4.18417e-07
6.37921e-07
8.77126e-08
6.30911e-07
3.96169e-07
5.82917e-07
6.47597e-07
1.01073e-06
8.39967e-07
6.33116e-08
1.42946e-06
7.26602e-07
5.0214e-07
6.82457e-08
1.13765e-07
5.2035e-07
2.90967e-07
1.52465e-07
1.09318e-06
4.82949e-06
1.19692e-07
1.16355e-07
2.39854e-06
3.18505e-07
4.81132e-08
3.40426e-07
4.79574e-08
8.44354e-07
3.50768e-06
2.14094e-06
1.17889e-06
3.27795e-07
5.1381e-07
4.99946e-07
2.2451e-07
1.21288e-06
1.11273e-06
2.2759e-06
2.8425e-06
8.74879e-07
8.81482e-07
1.05658e-07
1.23968e-07
1.68766e-06
7.10772e-07
6.59974e-07
1.81007e-06
3.40328e-06
3.01586e-06
5.08258e-07
1.13086e-06
1.04686e-07
1.20001e-06
6.85434e-07
1.61565e-06
7.34809e-07
1.28586e-06
2.02027e-07
1.03387e-06
4.54665e-06
1.60022e-07
6.11772e-07
1.06035e-06
3.24279e-07
3.93032e-08
5.53205e-07
1.31627e-06
2.81246e-06
5.18984e-07
1.81052e-07
3.1025e-07
2.92088e-06
8.56577e-07
1.9381e-07
5.34287e-07
5.20357e-07
4.45982e-07
2.48796e-06
6.54906e-06
1.1632e-06
1.29437e-06
1.1064e-06
8.1629e-07
4.80645e-06
2.45675e-06
5.18775e-07
1.22634e-06
2.38856e-06
1.87451e-06
7.23719e-07
8.63591e-07
3.46768e-07
1.92683e-07
2.06782e-06
1.55291e-06
2.13426e-07
6.53363e-07
5.62185e-07
4.08051e-06
5.41729e-06
1.69197e-07
1.66578e-07
5.59167e-07
4.17898e-06
6.49739e-06
5.13523e-07
1.02725e-07
1.90226e-07
6.34793e-07
1.02069e-06
2.98362e-07
8.06739e-07
5.75961e-07
2.22365e-06
8.46047e-07
3.99736e-06
2.75836e-06
5.71646e-06
9.20437e-06
4.745e-07
2.07716e-07
3.97732e-07
4.41234e-07
1.00949e-06
3.72562e-07
2.15193e-07
8.62285e-07
1.09304e-06
5.35075e-07
5.71542e-07
8.35624e-07
4.33543e-07
4.16506e-07
2.93087e-06
6.47827e-07
4.6259e-07
4.8457e-07
5.54785e-07
2.21037e-06
1.56494e-06
4.88137e-07
1.62168e-06
1.05524e-06
2.25116e-06
7.12091e-07
1.19175e-07
8.74614e-07
5.92661e-07
2.33167e-06
6.29425e-06
3.66145e-06
2.45154e-06
5.61272e-07
3.747e-06
2.49226e-06
3.9437e-06
1.52241e-06
7.31393e-07
2.55179e-07
3.0621e-06
1.78523e-06
1.93451e-07
3.66411e-07
2.08979e-06
2.76483e-07
4.78601e-07
3.02938e-07
2.3501e-07
9.32994e-07
2.62831e-06
1.99667e-07
2.7301e-07
6.47675e-07
1.85895e-06
1.8958e-07
8.85424e-07
2.36586e-07
2.6725e-07
2.27329e-07
4.83106e-07
1.67426e-07
1.56975e-06
8.93849e-07
1.29569e-06
1.78193e-07
2.74346e-07
2.97756e-06
1.49775e-06
3.03463e-07
5.51845e-07
5.66555e-07
7.84606e-07
1.49505e-06
2.38145e-06
4.21218e-07
3.63158e-07
1.08168e-06
2.46553e-06
5.46516e-06
2.2442e-06
3.06045e-07
2.77291e-07
6.18103e-07
2.31917e-06
3.84502e-07
3.30564e-07
3.4348e-07
2.80553e-07
1.56975e-06
2.07164e-06
2.01906e-07
5.10249e-07
8.34369e-07
6.84245e-07
1.46528e-07
5.77864e-07
3.3832e-06
5.08394e-06
4.55275e-06
1.0375e-07
6.76559e-07
1.76922e-06
9.90922e-07
2.13572e-06
2.58612e-07
7.64763e-07
4.79544e-06
2.86184e-06
3.70629e-07
2.53703e-07
1.18501e-06
6.40214e-07
1.54526e-06
3.04411e-06
1.69509e-07
1.37707e-07
2.17654e-06
3.79667e-06
3.03284e-06
1.65666e-07
4.07214e-06
2.32139e-06
1.39887e-06
2.21624e-07
2.14995e-07
2.27567e-07
2.20959e-06
1.91759e-06
5.45996e-06
4.68161e-06
3.07128e-07
2.5352e-06
4.29979e-06
1.62451e-06
1.52528e-07
1.3781e-06
5.09718e-06
5.60806e-06
9.49797e-07
2.69934e-06
1.43765e-07
2.52345e-07
1.45225e-07
2.61886e-07
1.26469e-06
1.26856e-07
1.47799e-06
5.72787e-07
1.79807e-07
3.36971e-07
1.19362e-06
5.2891e-07
1.85255e-06
4.24804e-06
1.35557e-06
8.84557e-07
2.74522e-06
2.18263e-06
9.08443e-07
2.87361e-07
3.05629e-07
9.99887e-07
3.06145e-06
1.05859e-05
9.07628e-06
2.08914e-06
3.66675e-06
3.29671e-06
7.2333e-06
4.42787e-06
3.24994e-07
3.0373e-06
2.15015e-06
8.25632e-07
1.52205e-06
2.6419e-06
2.72282e-06
2.74674e-06
1.42713e-07
2.55661e-06
6.11056e-07
2.17517e-06
3.64161e-07
2.65924e-07
2.56461e-07
8.76326e-07
1.68564e-06
6.35138e-07
2.90303e-07
4.51899e-07
7.52667e-07
7.23112e-07
2.08094e-06
2.94374e-06
4.41316e-07
1.79954e-07
3.15598e-07
5.98288e-07
3.49295e-06
2.59035e-06
1.59638e-07
1.42219e-07
1.77719e-07
3.17058e-06
4.2266e-06
1.50858e-06
2.27424e-06
8.88517e-07
3.24135e-06
1.93273e-06
4.10781e-07
2.7731e-06
1.58733e-06
1.01883e-06
2.19294e-06
1.81113e-06
3.85768e-06
1.33943e-05
4.59666e-06
1.70149e-07
8.55606e-07
1.50471e-06
5.21326e-07
6.85222e-07
8.12206e-07
1.55859e-06
1.29658e-06
3.11192e-07
3.00405e-07
6.91098e-07
1.24404e-06
5.48761e-07
4.7494e-07
1.13279e-06
9.17796e-07
1.04761e-06
2.71979e-06
4.21648e-06
8.13229e-06
8.30854e-07
4.33637e-06
3.02454e-06
4.90212e-07
2.0393e-06
8.37642e-07
6.59508e-07
8.20175e-07
1.58187e-06
5.8339e-06
2.04092e-06
4.59551e-07
2.40981e-06
6.15249e-07
4.95157e-07
2.30021e-06
1.22817e-06
4.53071e-06
1.78216e-05
3.40754e-06
5.45499e-07
2.69176e-06
6.8101e-06
7.19921e-07
4.21799e-07
5.71178e-07
2.04726e-06
1.02245e-06
2.89008e-07
2.9726e-07
3.93156e-07
8.03774e-07
2.87456e-07
3.03951e-07
1.59081e-06
1.57104e-06
8.89218e-07
2.43142e-06
6.6803e-06
1.335e-05
5.30114e-07
9.81501e-06
8.54763e-06
9.4414e-07
3.73617e-06
9.76581e-07
2.62425e-06
1.13378e-06
1.11317e-06
7.47749e-06
1.55765e-06
5.46891e-07
4.26472e-06
8.53071e-07
2.09427e-06
6.01031e-06
2.0297e-06
7.35964e-06
2.22042e-05
1.69564e-06
7.96943e-07
4.86707e-06
7.17059e-06
3.26016e-07
6.03176e-07
1.4435e-06
2.6467e-06
5.96832e-07
3.06349e-07
2.98434e-07
8.61453e-07
2.07987e-06
3.14641e-07
8.14106e-07
1.47893e-06
2.89846e-06
1.68934e-06
2.96618e-06
8.22055e-06
1.44118e-05
7.76335e-07
8.88344e-06
7.65809e-06
8.52086e-07
3.7632e-06
9.3678e-07
3.7995e-06
3.39493e-06
6.14893e-07
4.04809e-06
6.02405e-07
5.15227e-07
2.71365e-06
5.21437e-07
4.1529e-06
9.70915e-06
1.39446e-06
3.14984e-06
1.5805e-05
1.92501e-06
6.09577e-07
3.09052e-06
4.10306e-06
4.56827e-07
8.35519e-07
3.15553e-06
4.62158e-06
8.55297e-07
3.41954e-07
7.36276e-07
4.35004e-07
2.55508e-06
8.25941e-07
1.89392e-06
2.01984e-06
5.03937e-06
2.10087e-06
2.5181e-06
6.17714e-06
9.1755e-06
2.58502e-07
1.28499e-05
7.15306e-06
7.52029e-07
1.50643e-06
7.07942e-07
8.70791e-06
9.92964e-06
1.05812e-06
2.72056e-06
6.71317e-07
1.93109e-06
4.85598e-06
5.58303e-07
5.22759e-06
1.01996e-05
9.25071e-07
3.07963e-06
1.80066e-05
1.63695e-06
2.17634e-06
7.6637e-07
2.85046e-06
9.24283e-07
2.29647e-06
2.17356e-06
4.82519e-06
1.41316e-06
3.33855e-07
2.48884e-06
3.4508e-07
2.48805e-06
1.74368e-06
1.55439e-06
2.67319e-06
3.24524e-06
7.75215e-07
2.38328e-06
7.25711e-06
4.98762e-06
3.01446e-06
1.58531e-05
3.7074e-06
1.40582e-06
6.4423e-06
7.78127e-07
8.37426e-06
7.85326e-06
4.9331e-07
1.78503e-06
5.32077e-07
7.77786e-06
8.85989e-06
1.5752e-06
9.7263e-06
1.28812e-05
1.07758e-06
2.4712e-06
1.71231e-05
7.93348e-07
4.36526e-06
8.63984e-07
6.20508e-06
9.31547e-07
6.39519e-06
5.84621e-07
5.52042e-06
1.65366e-06
1.46011e-06
7.60749e-06
3.81959e-07
2.61613e-06
2.51404e-06
1.13011e-06
5.29071e-06
7.13466e-06
3.00684e-06
4.28893e-06
7.95593e-06
3.40608e-06
4.39026e-06
1.057e-05
4.98646e-07
7.43825e-06
1.05593e-05
1.03706e-06
8.68368e-06
5.89657e-06
7.95141e-07
3.5082e-06
2.25951e-06
9.08334e-06
1.13296e-05
5.50331e-06
1.75405e-05
1.45147e-05
5.90645e-07
1.28314e-06
1.41268e-05
6.09805e-07
3.70359e-06
2.14128e-06
9.35298e-06
1.78997e-06
1.07484e-05
7.51032e-07
7.33127e-06
1.02353e-06
1.41645e-06
4.96668e-06
1.66157e-06
6.24732e-06
2.14085e-06
9.87213e-07
6.0435e-06
7.73034e-06
2.84589e-06
2.13789e-06
4.07138e-06
1.49849e-06
7.04292e-06
1.06983e-05
5.00368e-07
7.36159e-06
1.10607e-05
1.03814e-06
1.14407e-05
8.01886e-06
9.27335e-07
8.21434e-06
4.89324e-06
5.93951e-06
1.01055e-05
5.4022e-06
1.67085e-05
1.38246e-05
3.15731e-07
4.5431e-07
1.05686e-05
6.73337e-07
3.47487e-06
1.52234e-06
7.97402e-06
1.93541e-06
1.23346e-05
9.29179e-07
9.3599e-06
2.55227e-06
4.25313e-07
2.41144e-06
3.13552e-06
6.20254e-06
3.13767e-06
7.83997e-07
6.35994e-06
8.61392e-06
3.43656e-06
1.41802e-06
3.26228e-06
1.47255e-06
5.65562e-06
7.43028e-06
2.84041e-07
8.51115e-06
1.19675e-05
1.47845e-06
8.05336e-06
5.87459e-06
2.80465e-06
1.28689e-05
3.83389e-06
4.07004e-06
8.77333e-06
4.53641e-06
1.49246e-05
1.23436e-05
3.78349e-07
3.32717e-07
1.05827e-05
9.38636e-07
5.4629e-06
6.05196e-07
7.2821e-06
1.96345e-06
1.65591e-05
6.8792e-07
1.06739e-05
2.89e-06
9.88638e-07
5.82915e-06
1.62302e-06
3.15477e-06
4.24557e-06
7.13984e-07
6.9459e-06
9.56944e-06
3.62243e-06
8.33998e-07
2.72457e-06
2.24615e-06
2.5304e-06
4.56475e-06
4.46683e-07
1.10159e-05
1.22031e-05
1.26498e-06
7.5778e-06
5.0271e-06
5.72122e-06
1.38197e-05
2.52244e-06
3.51374e-06
7.43246e-06
3.47056e-06
1.27259e-05
9.82194e-06
8.73552e-07
4.35446e-07
1.08402e-05
1.0594e-06
6.66471e-06
5.87954e-07
9.00663e-06
1.61233e-06
2.37651e-05
8.66713e-07
8.39e-06
1.32086e-06
2.90554e-06
4.05688e-06
2.94543e-06
4.39243e-06
2.4685e-06
6.48111e-07
7.40943e-06
1.08129e-05
3.22518e-06
4.15491e-07
2.67081e-06
4.18914e-06
1.3366e-06
3.77484e-06
7.49251e-07
1.13303e-05
1.17029e-05
9.58391e-07
1.03191e-05
5.75863e-06
8.25275e-06
1.28614e-05
1.76836e-06
3.78689e-06
5.42352e-06
2.22521e-06
1.06918e-05
8.35798e-06
1.43446e-06
6.2251e-07
1.15552e-05
1.81676e-06
7.02122e-06
5.49524e-07
1.18182e-05
7.65364e-07
2.86199e-05
2.60795e-06
8.14667e-06
8.66647e-07
4.79646e-06
1.36933e-06
4.23719e-06
4.12127e-06
2.32033e-06
6.29882e-07
9.25657e-06
1.17895e-05
2.61425e-06
5.04976e-07
4.20932e-06
9.45315e-06
3.64824e-07
2.64703e-06
1.00235e-06
1.0718e-05
1.12963e-05
1.06828e-06
1.25513e-05
8.29002e-06
8.44111e-06
1.16789e-05
1.97104e-06
4.17369e-06
4.3366e-06
1.55307e-06
9.1174e-06
7.45643e-06
2.04268e-06
8.19681e-07
1.2357e-05
2.29669e-06
6.51942e-06
7.47337e-07
1.70441e-05
7.39435e-07
3.0473e-05
2.40165e-06
1.18268e-05
1.82497e-06
3.90526e-06
8.55049e-07
7.02861e-06
4.51504e-06
2.23969e-06
6.36345e-07
7.99551e-06
9.25865e-06
1.8573e-06
7.88475e-07
7.23734e-06
1.69616e-05
5.06799e-07
2.65966e-06
9.57715e-07
1.10415e-05
1.08851e-05
8.41246e-07
1.74357e-05
1.10705e-05
1.07671e-05
1.19832e-05
2.02484e-06
4.24656e-06
3.78525e-06
1.23269e-06
7.67847e-06
6.73322e-06
2.59483e-06
1.00453e-06
1.31566e-05
2.29356e-06
6.15695e-06
8.99162e-07
2.1254e-05
1.76505e-06
3.05376e-05
1.99547e-06
1.19872e-05
2.41757e-06
1.23562e-06
5.22386e-06
9.83221e-06
5.06531e-06
2.22453e-06
6.90253e-07
5.50444e-06
1.0046e-05
2.55066e-06
7.82213e-07
1.30013e-05
2.49924e-05
6.37237e-07
3.33883e-06
1.09698e-06
1.17039e-05
1.10215e-05
7.91249e-07
2.24087e-05
1.25068e-05
1.31386e-05
1.19038e-05
1.70605e-06
4.37604e-06
3.24915e-06
1.08087e-06
7.41908e-06
6.68889e-06
3.45426e-06
1.39081e-06
1.40114e-05
2.13324e-06
6.76753e-06
9.74652e-07
2.55479e-05
2.91424e-06
3.44634e-05
2.44181e-06
1.27023e-05
1.40983e-06
7.03937e-06
6.95481e-06
8.47726e-06
3.32344e-06
2.77909e-06
7.62369e-07
3.60476e-06
1.20266e-05
3.46115e-06
8.30033e-07
1.95999e-05
3.05552e-05
6.86502e-07
2.7063e-06
1.41044e-06
1.09416e-05
1.17939e-05
1.21436e-06
2.2881e-05
1.3327e-05
1.42797e-05
1.21534e-05
1.67921e-06
4.48568e-06
3.64544e-06
1.11173e-06
7.59283e-06
6.58401e-06
4.27785e-06
1.7361e-06
1.45992e-05
2.24641e-06
6.80283e-06
1.11402e-06
3.14757e-05
4.28856e-06
3.8462e-05
3.17069e-06
1.2015e-05
1.1636e-06
1.15409e-05
7.3759e-06
7.93211e-06
2.47876e-06
4.0424e-06
9.13764e-07
2.73414e-06
1.29081e-05
3.27575e-06
9.83942e-07
2.2847e-05
3.27742e-05
7.23859e-07
2.2799e-06
1.62739e-06
1.17348e-05
1.33841e-05
1.60073e-06
2.26809e-05
1.25322e-05
1.60151e-05
1.25495e-05
1.61087e-06
4.18062e-06
4.40163e-06
1.14461e-06
7.37302e-06
6.31361e-06
4.74291e-06
1.53349e-06
1.5469e-05
2.72841e-06
6.10406e-06
1.32767e-06
3.70844e-05
4.85036e-06
4.47928e-05
4.32586e-06
9.63414e-06
2.50393e-06
1.84094e-05
1.04098e-05
7.73621e-06
1.96073e-06
5.10258e-06
1.31561e-06
2.85567e-06
1.62569e-05
3.77641e-06
1.0317e-06
2.51735e-05
3.37995e-05
6.41183e-07
2.41401e-06
1.93604e-06
1.24927e-05
1.31026e-05
1.50162e-06
2.30127e-05
1.12215e-05
1.71762e-05
1.23613e-05
1.37883e-06
4.16571e-06
5.02222e-06
1.10378e-06
6.5694e-06
5.78777e-06
4.96698e-06
1.21684e-06
1.56908e-05
3.26667e-06
5.61176e-06
1.73647e-06
4.12169e-05
4.18994e-06
5.33906e-05
5.55011e-06
1.02294e-05
8.66468e-06
2.52143e-05
1.19965e-05
7.23886e-06
1.77492e-06
5.51875e-06
1.8285e-06
2.75313e-06
1.81729e-05
4.5876e-06
1.21722e-06
2.53366e-05
3.25123e-05
6.33888e-07
2.61796e-06
2.30562e-06
1.26601e-05
1.21876e-05
1.43916e-06
2.20315e-05
9.59449e-06
1.85097e-05
1.24667e-05
1.32681e-06
4.17305e-06
5.18748e-06
1.05222e-06
5.56395e-06
5.03997e-06
5.36476e-06
1.20598e-06
1.53724e-05
3.49798e-06
5.54554e-06
2.07484e-06
4.38839e-05
4.21362e-06
5.97416e-05
6.43922e-06
1.44695e-05
1.52602e-05
2.83362e-05
1.15211e-05
6.20068e-06
1.51525e-06
5.90913e-06
2.2887e-06
2.32553e-06
1.77114e-05
4.68191e-06
1.29014e-06
2.3753e-05
2.96028e-05
7.68202e-07
2.42433e-06
2.87189e-06
1.28155e-05
1.11396e-05
1.44675e-06
2.05063e-05
7.95364e-06
1.95915e-05
1.21056e-05
1.2702e-06
4.07004e-06
4.8198e-06
1.06712e-06
4.86137e-06
4.6393e-06
5.50129e-06
1.19883e-06
1.5089e-05
3.44026e-06
5.82323e-06
2.11371e-06
4.44586e-05
5.02044e-06
5.80106e-05
5.19219e-06
2.02759e-05
1.97308e-05
2.88183e-05
1.0519e-05
5.0507e-06
1.25954e-06
6.32503e-06
2.62613e-06
2.32765e-06
1.77794e-05
4.303e-06
1.2998e-06
2.19816e-05
2.77238e-05
7.29549e-07
2.12058e-06
3.25312e-06
1.24074e-05
1.05886e-05
1.45692e-06
1.9786e-05
6.88672e-06
1.98931e-05
1.15691e-05
1.24531e-06
3.89971e-06
4.35973e-06
1.11143e-06
4.64727e-06
4.73943e-06
5.12838e-06
1.09086e-06
1.4997e-05
3.42719e-06
5.97572e-06
2.07708e-06
4.41567e-05
5.16215e-06
5.64472e-05
3.90528e-06
2.21095e-05
2.11089e-05
2.89149e-05
1.02307e-05
4.32218e-06
1.15332e-06
6.29728e-06
2.58403e-06
2.39726e-06
1.76076e-05
3.96779e-06
1.29673e-06
2.11307e-05
2.80747e-05
6.72413e-07
2.05278e-06
3.27718e-06
1.19044e-05
1.03432e-05
1.37282e-06
1.92194e-05
6.3488e-06
1.99896e-05
1.14139e-05
1.25606e-06
3.77762e-06
4.13029e-06
1.13947e-06
4.55258e-06
4.96218e-06
4.6277e-06
1.00507e-06
1.51313e-05
3.3953e-06
6.0795e-06
2.06835e-06
4.46948e-05
5.02057e-06
5.70496e-05
3.91248e-06
2.21178e-05
2.19658e-05
2.97496e-05
9.83877e-06
3.75342e-06
1.17484e-06
5.85813e-06
2.42581e-06
2.3781e-06
1.73574e-05
3.81211e-06