/*--------------------------------*- C++ -*----------------------------------*\
  =========                 |
  \\      /  F ield         | OpenFOAM: The Open Source CFD Toolbox
   \\    /   O peration     | Website:  https://openfoam.org
    \\  /    A nd           | Version:  10
     \\/     M anipulation  |
\*---------------------------------------------------------------------------*/
FoamFile
{
    format      ascii;
    class       surfaceScalarField;
    location    "11";
    object      phi;
}
// * * * * * * * * * * * * * * * * * * * * * * * * * * * * * * * * * * * * * //

dimensions      [0 3 -1 0 0 0 0];

internalField   nonuniform List<scalar> 
300480
(
8.55973e-05
-3.04556e-05
4.02108e-05
9.30541e-05
4.43856e-05
1.2263e-05
8.58684e-05
9.05696e-06
4.55684e-05
7.99429e-05
9.66906e-06
2.90074e-05
5.82343e-05
2.31681e-05
5.42901e-05
4.29464e-05
1.19929e-05
4.07773e-05
7.80753e-05
-4.93098e-05
3.30961e-05
7.86649e-05
6.28986e-06
3.42984e-05
4.77672e-05
3.72685e-05
2.67556e-05
5.59536e-05
-1.28638e-05
3.31161e-05
7.48447e-05
-2.10414e-05
5.42579e-05
7.97452e-05
-1.76342e-08
5.53701e-05
9.34034e-05
9.77376e-06
1.93843e-05
8.82742e-05
-8.44266e-06
3.92377e-05
8.82859e-05
-1.19752e-05
4.38718e-05
7.43887e-05
2.01421e-06
6.09246e-05
6.4512e-05
2.22101e-05
3.24623e-05
8.07664e-05
-4.65403e-06
3.7642e-05
8.08146e-05
4.56305e-06
3.83791e-05
7.28372e-05
-3.29041e-06
3.81553e-05
5.90742e-05
2.69167e-05
4.1674e-05
5.97898e-05
1.3834e-05
4.37709e-05
8.7224e-05
-2.7696e-05
2.35884e-05
9.43208e-05
-1.39447e-05
2.76508e-05
9.1516e-05
8.99456e-06
3.89941e-05
9.73708e-05
1.03695e-05
3.30495e-05
8.46774e-05
4.19738e-05
2.46001e-05
8.41352e-05
1.51647e-05
3.20913e-05
9.79424e-05
-3.47158e-05
5.32673e-05
9.00184e-05
2.39877e-06
5.11218e-05
9.16876e-05
-1.62183e-05
5.57858e-05
8.57885e-05
1.07313e-05
4.24427e-05
8.56302e-05
1.57258e-05
4.76148e-05
7.64042e-05
1.21172e-05
2.88038e-05
6.11482e-05
-2.02559e-06
4.57691e-05
5.97705e-05
-1.94162e-05
5.68342e-05
7.19628e-05
-1.00685e-05
3.64443e-05
8.2374e-05
1.32525e-05
1.68011e-05
8.26968e-05
2.80767e-06
3.99814e-05
-2.42415e-05
6.11394e-05
5.16635e-05
-0.000105808
1.62264e-05
0.000112174
5.04318e-05
-5.7903e-05
9.83853e-05
3.91166e-05
1.51494e-05
6.48982e-05
4.089e-05
-1.47128e-05
6.0717e-05
4.05007e-05
3.41419e-05
1.29963e-05
2.86904e-05
9.03693e-05
3.4361e-05
-9.58147e-05
-2.12054e-06
1.81564e-05
4.51319e-05
-2.67067e-05
-8.31889e-05
0.00012005
2.42848e-06
-4.85485e-05
-6.78009e-05
-3.73535e-06
6.91861e-05
-7.46613e-05
2.46289e-05
0.000122213
7.74012e-07
5.46701e-05
0.000126687
5.30947e-05
-3.69283e-05
8.29529e-05
1.62965e-05
-1.32031e-06
6.63213e-05
-2.73928e-05
1.22193e-05
8.47504e-05
-3.05976e-05
2.91216e-05
9.54707e-05
1.84594e-05
1.59765e-05
0.000132357
-3.80849e-05
8.78328e-06
6.588e-05
0.000113293
-1.42103e-05
2.48535e-05
2.1875e-06
1.8572e-06
8.17129e-05
-2.83804e-05
2.55827e-05
0.000103855
-2.448e-07
1.29945e-05
0.000124641
-4.34796e-05
-3.31914e-05
0.000118114
-9.091e-06
-2.61919e-05
0.000146912
-2.70943e-05
8.54356e-07
0.000165157
1.84364e-05
6.98265e-06
0.000133597
0.000115742
-3.38834e-05
0.00013523
2.77679e-05
1.92873e-06
0.000135267
-7.49445e-05
2.06157e-05
7.06002e-05
6.29749e-05
-1.43123e-05
6.71113e-05
-3.67725e-05
5.34117e-06
0.000114404
3.2594e-05
1.07676e-06
0.000153403
2.90677e-05
3.95308e-05
9.38181e-05
0.000103939
-9.09562e-06
-4.32868e-05
7.14306e-05
5.983e-05
-3.6586e-06
-0.000166886
0.000103939
0.000111524
-0.000124883
1.52376e-05
8.89769e-05
6.8947e-05
-5.31476e-05
5.80836e-05
4.35619e-06
1.93495e-05
-4.82198e-05
3.86048e-05
-6.44963e-05
-0.000206363
1.02324e-05
7.71196e-06
3.08873e-05
4.42267e-06
-6.80127e-05
0.000190823
8.2486e-06
-8.89042e-05
7.58003e-05
-4.0859e-05
1.62785e-05
-4.82893e-05
7.5819e-05
-6.44913e-05
-1.31056e-06
0.000114893
-8.7335e-05
-0.000100595
-3.20122e-05
-4.75547e-05
3.66874e-05
-1.33852e-05
-0.000111367
0.000171473
3.41545e-06
-0.000122062
-9.48449e-05
-1.5185e-05
-9.57389e-06
-0.000143023
1.55208e-05
9.06823e-05
-2.96472e-05
5.52956e-06
2.71297e-05
0.000147791
-5.07989e-05
-0.000121551
0.000114574
5.24279e-05
-0.000135499
-0.000104874
6.69699e-05
1.83736e-05
-0.000163999
-7.40696e-06
0.000108951
-6.87702e-05
6.22508e-05
0.000120035
-6.43001e-05
1.75671e-05
1.9255e-05
0.000231065
-2.78529e-05
2.3109e-06
-1.49111e-05
3.28229e-05
8.59965e-05
-0.000156944
4.40941e-05
7.62915e-05
3.26659e-05
-6.0864e-05
3.89893e-05
-3.83826e-05
-1.01764e-05
2.67764e-05
-3.11159e-05
-2.54242e-05
9.60213e-05
-8.0624e-05
-2.76143e-05
0.000152452
4.30518e-05
-2.09094e-05
0.000187378
9.44368e-05
-2.60416e-05
0.000193367
-4.31469e-06
1.9612e-05
9.3795e-05
-7.88118e-06
-3.04467e-05
2.50803e-05
0.000129519
-1.09466e-05
2.4404e-06
-1.59795e-05
-6.20941e-06
6.46791e-05
5.48091e-05
-6.12143e-06
0.000150331
-4.84654e-05
-1.44376e-05
3.25333e-05
0.000220161
2.03474e-06
-9.67817e-05
0.000117633
6.21232e-05
-3.58904e-05
-0.000371472
9.30595e-05
6.89648e-05
-0.000211123
-5.22613e-06
2.925e-05
0.000141531
-6.93913e-05
-7.55604e-05
4.2511e-05
2.25892e-05
-7.93608e-05
4.86026e-05
-0.000108293
-0.00011255
-6.60314e-05
-9.79465e-05
5.26257e-05
8.42524e-05
-0.000163063
0.000293406
4.06993e-05
-0.000109205
4.54145e-05
-4.90139e-05
0.000120634
-0.000261486
1.45253e-05
4.67591e-05
1.56028e-05
6.81189e-05
-0.000156136
3.75041e-05
2.53821e-05
-3.30831e-05
-8.72006e-06
4.00067e-05
5.0748e-05
6.80406e-05
6.55801e-05
-5.73286e-05
-4.3076e-05
-3.09955e-05
-4.07542e-05
-0.000145921
-2.386e-05
-1.65924e-05
8.06335e-06
-2.16379e-05
-0.000109982
0.00023824
-1.01016e-05
-0.000229237
0.000113299
7.30513e-05
-0.000240611
-0.000198289
1.22732e-05
-3.05478e-05
-0.000423723
-8.96563e-06
0.000124455
-0.000201695
2.02636e-05
6.05691e-05
-5.91938e-05
-4.09531e-06
-6.82942e-05
0.000359265
-6.33147e-05
-4.54185e-05
-7.9445e-05
4.56641e-05
2.51883e-05
-0.000258191
1.75307e-06
-6.38527e-05
7.33274e-05
-5.65017e-05
-9.47736e-05
-8.16317e-05
3.46039e-05
-7.56051e-05
-8.68571e-05
-8.6103e-06
1.9732e-07
-9.34213e-05
-0.000120241
7.58812e-05
2.22468e-05
-7.8661e-05
0.000124882
5.35931e-06
-1.84907e-05
0.000165605
-7.79573e-05
1.36156e-05
8.09124e-05
-6.98034e-06
-7.15219e-05
9.87319e-05
9.61934e-05
6.63177e-06
6.47145e-05
-2.98567e-06
-2.05759e-05
9.33638e-05
4.86714e-05
-7.18345e-06
0.000121379
-5.81113e-05
-3.5794e-05
3.47911e-05
0.000199528
-6.50673e-06
6.10724e-05
-8.66139e-06
-1.45666e-05
2.2821e-05
-0.000387472
5.41389e-05
-3.06606e-05
-0.000142316
-2.74476e-05
3.21466e-05
9.64426e-05
-5.39497e-05
4.0293e-05
-2.65068e-05
2.50693e-05
-7.10435e-05
4.1444e-05
-2.82844e-05
-3.47804e-05
-5.88646e-05
4.0783e-05
-7.94263e-06
0.000100043
-8.93719e-05
0.000342155
0.00011592
-3.1982e-05
3.12773e-05
-1.3772e-05
0.000208424
-0.000524507
5.6364e-06
0.000196749
5.46389e-05
3.30317e-05
-8.2749e-05
0.00026758
9.8012e-06
-2.5096e-05
-1.6333e-05
3.45776e-05
0.00012041
-0.000101875
-3.8658e-06
4.60554e-05
-5.16357e-05
-2.59835e-05
-1.20374e-05
-0.000111716
-5.55019e-05
-6.51595e-05
9.10207e-05
-2.82766e-05
9.77746e-06
0.000167606
-1.39324e-05
-6.21086e-06
-5.33223e-05
5.97204e-05
-0.000158352
-9.40985e-05
-1.9484e-05
-0.000144645
-0.000541779
0.000128303
2.6714e-05
-0.00035009
-4.56978e-05
-1.38046e-05
-4.49482e-05
-2.1252e-05
-0.000173104
0.00047749
-6.71555e-05
-0.000138183
-0.000151894
-9.71858e-05
1.82036e-06
-0.000305453
-9.24943e-05
4.2381e-05
6.04658e-06
-6.97218e-05
-2.11392e-05
-1.771e-06
2.23989e-05
-9.23076e-05
-7.08657e-05
-5.15737e-06
-0.000112621
-8.60461e-05
-0.000100052
-4.4628e-05
2.63603e-05
-5.36172e-05
-1.99627e-05
-1.46312e-05
-9.70527e-06
7.3095e-05
-0.000202489
8.2264e-06
0.000110282
-0.000140254
-3.39087e-05
0.000105804
0.000106314
-2.27788e-05
6.3561e-05
3.84309e-05
-5.26694e-05
0.00010419
-6.75361e-06
-7.20572e-06
0.00019694
-3.24771e-05
-8.7993e-05
0.000184562
9.47828e-05
-3.65657e-05
6.62862e-05
-1.69297e-05
-2.63525e-05
1.12921e-05
-0.000289103
6.76468e-06
-7.69161e-05
-1.99249e-06
-2.92919e-05
-3.85007e-05
-1.77683e-06
-3.26644e-06
0.000167083
-0.00013317
1.86505e-05
8.60156e-06
3.38079e-05
-0.000172288
-0.00021316
-6.76834e-06
0.000108897
-0.000278352
-0.000112753
0.00012693
0.000319945
3.26281e-05
0.000123465
4.77777e-06
-3.36756e-05
0.000147467
-0.000556424
-2.43919e-05
4.28541e-05
0.00018707
2.15642e-05
-0.00013463
0.000424133
-8.71346e-05
-9.31279e-05
-2.62799e-05
4.47164e-06
-1.47498e-05
-0.000171579
-0.000106736
8.93795e-06
-4.81968e-05
-4.43597e-05
2.00931e-05
-0.000141624
-5.9308e-05
-1.10699e-05
0.000117233
-5.02077e-05
8.47366e-05
4.47728e-05
-1.90789e-05
7.10452e-05
-0.000107491
-6.64348e-06
-5.02553e-05
3.16925e-05
8.79936e-06
-7.07019e-05
-0.000537866
0.00013359
9.46717e-05
-0.000514241
-4.08557e-05
2.87005e-05
7.34955e-05
-5.27967e-05
-0.000145018
0.000578104
-2.87233e-05
-9.31711e-05
-0.000134031
-9.9739e-05
2.66048e-05
-0.000330958
1.92287e-06
8.61288e-05
8.55964e-05
-6.4098e-05
5.41e-05
8.51115e-05
-3.01194e-05
-6.26539e-05
-3.60483e-06
7.40269e-06
-0.000154726
8.10822e-05
-1.15909e-05
-3.29984e-05
-7.13927e-05
-4.6314e-05
3.39252e-05
-2.31122e-05
-1.11034e-05
3.95217e-05
-0.00017454
2.74146e-05
-4.30273e-05
-3.61108e-05
1.23912e-05
-0.000101872
0.000136069
-6.96333e-05
-3.31438e-05
-6.04475e-07
-5.73456e-05
3.95887e-05
-7.41919e-05
-1.45374e-05
0.000160483
-0.000120282
-2.46598e-05
0.000169523
-5.19096e-05
-3.47228e-06
3.74426e-05
0.000126473
-3.40862e-05
9.72591e-05
-0.000346424
0.000103455
0.000110457
4.61574e-05
-4.30983e-05
-4.35961e-05
0.000102181
1.08696e-05
-2.63922e-05
-3.17552e-05
-3.97589e-05
0.000152434
-2.81608e-05
-0.000171287
-0.000270571
-6.84208e-05
-1.14806e-05
-0.000461502
-0.000110526
0.000118172
0.000371887
-3.6861e-05
0.000216918
-6.68572e-05
4.94745e-05
0.000109425
-0.000454639
1.18924e-05
1.03839e-05
0.000317721
-1.60036e-05
-0.00011321
0.000538344
-0.000110507
-0.00011076
-1.13798e-05
-8.93242e-05
-5.90365e-05
-0.000168741
-5.61239e-05
-8.20563e-05
-6.67336e-06
-8.14032e-05
1.89432e-05
-0.000203499
-4.48944e-05
8.5978e-05
2.73052e-05
-0.000102245
-2.57606e-05
0.000179118
-1.81875e-05
-4.0984e-06
-3.3764e-05
-3.94251e-05
4.36058e-05
2.11078e-05
7.83563e-05
7.55511e-05
-0.000556562
4.68702e-05
0.000132345
-0.000547002
-5.36916e-05
1.96258e-05
0.000243322
-4.33304e-05
-6.73326e-05
0.000643086
-2.15876e-05
2.41106e-05
-0.000146263
2.1816e-05
0.000114239
-0.000367054
-2.02506e-05
6.21082e-05
0.000194697
-4.91537e-05
-1.91731e-05
0.000132363
3.85429e-06
-7.8375e-05
-4.90278e-05
1.32799e-05
4.06248e-05
5.68798e-05
5.33876e-05
9.27237e-05
-0.000135267
-2.05404e-05
0.000101083
6.30016e-05
-8.39719e-05
0.000144309
-6.8276e-05
-4.04843e-05
-3.10396e-05
0.000220021
-2.49475e-06
-0.000138733
0.000162402
-7.52754e-05
-1.82625e-05
-0.00018984
1.10177e-05
0.000146221
-0.000312825
7.17474e-05
0.000135868
-0.00017908
8.49493e-05
1.99633e-05
1.10417e-05
1.03568e-05
4.43725e-05
0.000261273
-8.92734e-05
0.000121317
-0.000448153
9.79992e-05
0.000169018
3.79594e-05
-2.53723e-05
4.71917e-05
0.000269765
1.01082e-05
-7.55097e-06
-8.85342e-06
9.73928e-06
0.000278444
-8.62037e-06
-0.000131445
-0.000188314
-7.51826e-05
-0.000127086
-0.000467318
-8.83273e-05
-5.44748e-05
0.00040406
1.46472e-05
0.000123494
-0.000140271
0.00015127
7.62142e-05
-0.000330635
1.8818e-05
4.18515e-05
0.000477595
-9.26009e-05
-4.63361e-05
0.000760336
-0.000132388
-0.000100851
-3.92389e-05
-6.98321e-05
-5.08933e-05
-5.22194e-05
-0.000166892
-0.000222847
0.000157491
-8.25857e-05
-0.000106546
-0.000307434
-2.01413e-06
1.30332e-05
-0.000106917
-0.000137211
-3.40732e-05
0.000280093
-9.256e-05
0.000164284
-0.000125192
-2.24705e-05
0.000110199
0.000217384
-3.70163e-05
-1.31475e-05
-0.000366527
-6.01123e-05
-7.45359e-05
-0.000488084
-9.06781e-05
-6.20265e-05
0.000211853
-2.28518e-05
6.35799e-05
0.000415826
-5.85108e-05
0.000160914
-0.000284837
9.63156e-05
0.000135417
-0.000260604
-0.000107821
4.13369e-05
0.000238312
-1.12297e-05
-5.95881e-05
0.00025061
-1.42956e-05
-0.000114882
1.18186e-05
3.81283e-06
1.97488e-05
1.01968e-05
-8.72678e-05
0.00012938
-0.000139935
-3.5115e-05
0.000130012
5.83225e-05
-5.44379e-05
5.71895e-05
0.00011861
-0.000162416
-2.95958e-05
0.00025583
-2.74911e-05
-5.98451e-05
0.000198484
8.46371e-06
5.62504e-05
-0.000352729
-1.05536e-05
0.000258778
-0.000511021
8.8098e-05
0.000149322
5.88036e-07
-3.57053e-05
2.95026e-05
0.000225646
-0.00011042
4.51432e-05
0.000326919
-0.000180548
1.12212e-05
-0.000273228
-0.000220825
6.95082e-05
3.51823e-05
-5.14106e-05
8.28313e-05
0.000343252
-7.35513e-05
0.000100502
1.56025e-05
2.19174e-05
0.000495856
-4.70839e-05
-0.000241507
-9.06898e-05
-0.000106352
-0.000263857
-0.000444138
-0.000183652
-0.000190383
0.000349406
-4.4127e-05
-0.000133366
-0.000167223
-8.90441e-05
-0.000223032
-0.000246267
-4.78999e-05
-0.00019934
0.000390705
-9.79566e-05
-0.000109815
0.000683438
-0.000181753
-0.000156617
-6.10881e-05
-0.000114676
-0.000108755
3.82747e-06
-0.000281473
-0.000183481
0.000271177
-7.06907e-05
-0.000139546
-0.000325207
1.01843e-05
-5.52494e-05
-0.000193976
-1.88418e-05
-1.46853e-05
0.000231913
-4.76581e-05
2.43403e-05
-1.31697e-05
3.96581e-05
-0.000118438
0.000446477
-0.000188473
-0.000145223
-0.000381051
-0.000109558
-0.0001102
-0.0004581
-0.000181302
-3.62464e-05
5.21841e-05
-1.57565e-05
6.81774e-05
0.000165929
-3.87715e-05
8.44527e-05
-0.00035655
3.89315e-05
7.50145e-05
-0.000181744
-7.86617e-05
0.000128308
2.3382e-05
8.9715e-06
0.000136728
0.000231779
-0.000100522
-5.59132e-05
0.000379711
-9.45935e-06
-0.000104115
7.36529e-05
-0.000103018
8.81235e-05
-0.000251376
-8.10679e-05
0.0001244
1.95672e-05
-1.4947e-05
5.31125e-05
0.000254306
-0.000142156
6.55774e-05
0.000279172
-5.30994e-05
5.24651e-05
0.000229705
-2.34982e-05
6.21269e-06
-0.000277213
-9.91452e-05
2.94905e-05
-0.000549525
0.000123188
-3.6975e-06
8.50618e-05
-4.34643e-05
-6.57645e-05
0.000399836
-7.94484e-05
-8.23727e-05
0.000336239
-8.70435e-05
-3.82927e-05
-0.000210751
-0.000137538
-3.09375e-05
0.000120796
3.08729e-06
4.10967e-06
0.000314884
-0.000192741
9.7525e-05
9.97626e-05
-4.1603e-05
0.000767035
-9.11565e-05
-9.67814e-05
8.60572e-05
-0.000133593
-0.000244865
-0.000341763
-0.000130867
-0.00017267
0.000243818
-2.51738e-05
-0.000210989
-9.50576e-05
4.34582e-05
-0.000129901
-0.000260602
1.59887e-05
-0.000129415
0.000355493
8.01091e-05
-0.000132341
0.000732315
-0.000117202
-9.54867e-05
-0.000107555
-0.000122578
-8.42251e-05
-0.000105808
-0.000141194
-1.18283e-05
0.000242115
-0.000148684
-2.88178e-05
-0.000259673
-0.000129227
4.51549e-05
-0.000201676
-0.000242274
-4.35459e-05
0.000334488
-0.00017534
-0.000260735
0.000288017
-0.000114714
-5.52352e-05
0.000305252
-6.74124e-05
-8.81841e-05
-0.000403223
-0.000114678
-0.00023597
-0.000141561
-0.000200344
4.82924e-05
-0.00032518
-6.81627e-05
0.00014098
4.62051e-05
-3.44985e-05
-1.86506e-05
-9.49395e-05
-0.000147518
-2.09179e-05
-0.000101356
-0.0001311
-1.37412e-05
2.09883e-07
-9.51241e-05
-1.37804e-05
0.000140194
-1.29132e-05
4.06111e-06
0.000476674
4.03063e-06
2.04005e-06
0.00014909
-6.66877e-05
6.64e-05
-0.000234934
-0.000102757
0.000117818
-5.46437e-05
-4.57943e-05
0.000182521
0.000349013
-0.00021802
0.000117245
0.000440706
-0.00011452
5.30356e-05
0.000309553
-7.23267e-05
-6.25429e-06
-0.000137369
-8.14581e-05
-7.08679e-05
-0.000561202
-9.93749e-05
-0.000132246
8.93473e-06
5.59634e-06
-0.000140429
0.000356468
-6.36686e-05
-5.49577e-05
0.000220107
-1.09436e-05
-1.28487e-05
-0.000326967
7.9424e-05
1.62031e-05
0.00014185
0.000134673
-0.000116881
0.000502195
-0.000172132
-7.81283e-05
7.86396e-05
-3.07565e-05
0.00056861
3.03309e-05
5.23196e-06
3.99023e-05
-0.000185301
-8.64787e-05
-0.000365106
-6.1239e-05
7.43346e-05
0.000209105
-3.96269e-05
-1.03225e-06
2.30632e-05
-6.8288e-05
-0.000131542
4.77105e-06
-0.000102784
-7.01187e-05
0.000203258
0.000388802
2.3471e-05
0.000488821
-2.46828e-05
-4.30233e-05
-5.10295e-05
2.50345e-05
-9.41466e-06
-0.00019808
2.02961e-05
0.000108254
0.000106409
-0.000218482
-1.59466e-05
6.88516e-06
-0.000154832
-0.000127612
2.73407e-05
-0.000261322
-0.000196734
0.000294549
-7.209e-05
-0.000297006
0.000315679
1.3604e-05
8.30782e-07
0.000113695
-4.84055e-05
0.000152892
-0.000420544
-0.000153907
-0.000120618
5.32237e-05
-0.000102859
-0.00013369
-7.22525e-06
-4.41148e-05
-0.000117089
0.000124528
-5.65204e-05
-0.000199328
0.000151063
-0.000270529
-0.0001824
0.000129143
-0.00031407
-0.000224205
-1.04108e-05
-9.12152e-05
-4.88041e-05
-0.000159106
1.96534e-05
0.000121396
0.000256845
-3.57398e-05
7.1657e-05
0.00020553
-0.000213408
0.000223943
-0.000146276
-0.000154072
0.000283943
-0.000204037
9.10782e-05
0.000265802
0.000565582
-0.000207698
8.70435e-05
0.000571787
-6.67119e-06
-0.000110106
0.000529659
-5.09736e-05
-0.000112414
-0.000109024
-1.49818e-05
-1.85713e-05
-0.00071336
-0.000177866
9.66263e-05
-4.4086e-05
1.14345e-05
0.000109705
0.000200638
-4.59196e-05
0.000147832
0.000174288
-0.000113765
0.000136495
-0.000383149
2.5501e-05
0.00012155
0.000215904
-8.79976e-05
-0.000138657
0.000752495
-8.377e-05
-0.000244343
3.9277e-05
-6.36752e-06
0.000382947
-0.000242701
7.78622e-05
-3.12137e-05
-0.000220084
1.80646e-05
-0.000332886
-0.000164523
0.000102635
8.18132e-05
-2.45149e-05
-0.000111348
-1.0901e-05
-1.00056e-05
-0.000103974
6.46625e-05
-0.0001193
0.000104413
-8.513e-05
0.000223224
0.00021072
0.000255049
-6.34813e-05
0.000113709
3.95206e-05
4.48394e-05
3.30909e-05
4.20858e-05
-0.00031881
6.44954e-05
0.000301407
-0.000157894
-3.84099e-05
6.34569e-05
-8.74082e-05
-9.7152e-05
0.000240727
-0.000124668
-1.84006e-05
0.000288943
-0.000114164
-7.38616e-05
0.000377691
-8.77941e-05
-9.66592e-05
0.000119435
-0.000193061
-3.12765e-05
-0.000538562
-2.60236e-05
-0.000108112
-1.20701e-05
4.02488e-05
-0.000251539
0.000122555
6.63976e-06
-0.000226832
0.000230982
-0.000186473
-0.000159933
0.000200493
-0.00018443
-0.000147958
0.000198394
-0.000104099
-2.11874e-05
-0.000168585
-2.63948e-05
0.000102521
-0.00035773
5.03197e-05
2.1766e-05
0.000405257
-0.00013664
3.39976e-05
0.000133599
-0.000112627
0.000265693
-0.000323094
-4.0706e-05
0.00035339
-0.000126552
-2.14325e-05
0.00033777
0.000465326
-0.000143266
0.000197561
0.000546322
-7.83153e-05
5.75123e-05
0.000582936
-6.28447e-05
4.19657e-05
-9.30942e-05
-4.92337e-05
0.000108055
-0.000694431
-4.11316e-05
0.000236498
3.73679e-07
3.12995e-05
0.000104907
0.000409247
-0.000128639
-7.41328e-05
0.000354827
4.22587e-05
-0.000131204
-5.69607e-05
-0.000212687
-9.57708e-05
0.000146228
-0.000124955
-7.21431e-05
0.000722564
7.20304e-05
-0.000222782
0.000278388
-0.00011949
0.000293679
-0.000126554
-3.9392e-06
5.07598e-06
-9.47296e-05
-5.22651e-05
2.37122e-05
-0.000179937
0.000121921
-1.29778e-05
-7.07218e-05
2.25074e-05
7.21489e-06
-0.00015649
-0.000100207
8.26518e-05
-0.000107707
-0.000150469
-0.000319227
-0.000124075
-4.57642e-05
0.000120119
-6.05935e-05
-2.54823e-05
8.30191e-05
-0.000151497
-0.000163757
0.000311118
-0.000466466
1.95545e-06
0.000189369
-0.000125638
-0.000169307
9.79156e-05
8.99626e-05
-0.000243809
0.000319036
-5.03355e-05
-0.000113321
0.000271384
-6.38767e-05
-0.000270873
0.000784283
-0.00028476
-0.000307372
0.000134112
-5.91988e-05
-0.000297212
-0.000474875
-0.000293289
-0.000172265
-0.000380098
0.000124154
-0.000197325
0.000174505
-0.000106519
-4.84879e-05
0.000236575
-0.000173746
-3.49551e-05
0.000243128
-0.000186905
1.04672e-05
6.71686e-05
-7.89127e-05
0.000158341
3.20394e-06
-0.00017182
0.000151278
-0.000107585
-0.000315446
0.000174675
0.000430427
-0.00016765
0.000218077
6.26128e-05
0.000123174
9.18057e-05
-0.000357785
-4.95409e-05
-2.63832e-05
6.5526e-05
-0.000103057
-4.06326e-05
0.000547403
-7.6695e-05
0.000154026
0.000111317
-4.18937e-05
0.000189507
0.000431733
-0.000120639
5.79624e-06
6.74019e-05
-0.000135729
-4.79926e-05
-0.00035449
-9.86716e-05
-4.58131e-05
2.11685e-05
-0.000131875
-0.000127154
0.000542855
-0.000147083
-0.000221031
0.000466716
-8.9292e-05
-0.000277778
0.000328011
-0.00027465
-7.40611e-05
-1.18569e-05
-0.000177724
0.000239165
0.000252077
5.783e-05
0.000131082
0.000363147
-4.41075e-05
0.000192684
-5.11103e-05
0.000232964
-9.3635e-05
-0.000115913
0.000211289
0.000303087
-0.000275354
0.000257394
0.000193346
-7.32783e-05
0.000231621
-8.06369e-05
-0.000104859
0.000341705
4.29203e-05
-0.000223773
0.000256959
-0.000532736
2.60678e-05
-0.000124791
0.000266507
-7.45045e-06
-0.0003521
0.000263915
8.49758e-06
-0.000377902
0.000189579
1.16345e-05
-7.95972e-06
-0.000333317
7.90091e-05
6.11525e-06
0.000204641
0.000160751
-0.000272736
0.000441903
-8.99838e-05
-0.000299258
0.000152807
-4.32352e-05
-0.000350742
0.000694958
2.0857e-05
-0.000251468
9.66821e-05
-0.000199403
-0.000145967
-0.000419562
-0.000208008
-0.000204107
-0.000191583
-6.39448e-05
-0.000108299
8.71189e-05
-0.000226934
0.000153468
5.48756e-05
-0.000198648
8.95251e-05
0.00029692
-3.9223e-05
8.43088e-05
0.000204552
7.47597e-05
0.000173705
0.000154161
-0.000118193
0.000179081
-5.08344e-06
-0.000387489
0.000230452
4.06884e-05
-0.000127786
0.000214486
0.000236576
-6.70238e-05
1.39896e-05
-7.20329e-05
-0.000434109
-0.00013391
0.000113866
-0.000188032
4.94294e-06
0.000388291
-4.01323e-05
0.000127738
-1.96613e-05
-2.8791e-05
2.02854e-05
0.000406813
6.2735e-05
-0.000147415
0.00013382
0.000106785
-9.11276e-05
-0.000346997
-0.000108899
-0.000129324
0.000218353
-0.000212382
-0.000172126
0.000678623
-0.00013299
-0.000104958
0.000111477
-0.000100257
-0.000182541
0.000305766
0.000171447
-3.35803e-05
1.19245e-06
-0.000263024
-0.000193186
0.000108622
-8.13578e-05
-0.0001778
0.000258123
1.94391e-05
-0.00021018
-3.98055e-05
0.000105758
0.000144873
-5.38097e-05
0.000236701
0.000231262
-0.000109149
0.000416467
-6.23088e-05
-0.000133967
8.25094e-05
0.000266571
-0.000183905
0.000129475
1.97459e-05
-3.87387e-05
0.000178604
-0.000417231
-2.87387e-05
-0.000205115
0.000454985
5.04484e-05
-2.84886e-05
7.94506e-05
0.000160112
8.00525e-05
-2.40917e-05
0.000126568
-0.000117787
-0.000278137
3.79009e-05
-0.000211464
0.000660269
-0.000312772
-0.000269676
0.00041904
5.5099e-05
-0.000406443
0.000115638
5.27646e-05
-8.45024e-05
0.000211658
7.3903e-05
0.000213516
-0.000144752
-0.000218143
-0.000150586
-0.000181367
-0.000119339
-9.14322e-05
7.98896e-05
-0.000462439
-0.000105218
0.000215115
-0.000221549
-0.000171731
-4.164e-05
0.000124311
0.000132895
-2.40495e-05
0.000282393
1.83857e-06
0.000508642
-0.000131799
-2.19944e-05
0.000226852
-0.000275744
0.000160913
-0.000176798
-0.00015837
-4.04106e-05
0.000199523
-0.000225779
-9.85592e-05
0.000408451
-0.000305505
-7.37597e-05
0.000102235
-0.000156036
4.37119e-05
7.21704e-05
0.000257317
0.000346591
2.67632e-05
5.47504e-05
0.000166515
0.000228303
-0.000197971
-1.61943e-05
0.000350745
0.000127925
-2.1206e-05
2.43795e-05
0.000223392
-8.68263e-05
-5.67532e-05
-8.55445e-05
-7.0308e-05
0.000385738
-0.000266808
-3.33073e-07
0.000536702
-0.00014167
-0.000124115
0.000157164
-0.000112823
-7.11914e-05
0.000390819
0.000118252
0.000166976
-0.000248622
-0.000232883
-1.74247e-06
0.000115186
-2.61301e-05
-9.04607e-05
0.000281795
-1.72805e-05
-0.000252988
5.89153e-05
-0.000223214
3.07083e-05
-2.23659e-05
-0.000166025
0.000170261
-0.000264045
-0.000124638
-0.000155335
-8.92695e-05
-0.000313141
0.000449009
-6.14026e-05
-0.000295745
5.46731e-05
-1.67853e-05
-7.91458e-05
-0.000562708
-0.000135674
5.32795e-05
0.000210476
2.14414e-05
6.78838e-05
3.94291e-05
-0.000143345
-0.000190508
0.000415259
1.53881e-05
-0.000225742
-0.000267251
-8.75509e-05
-7.80023e-05
0.000572517
-0.000295936
-0.000194388
0.000384135
1.4234e-05
-0.000215235
0.000274958
-0.00016356
4.99236e-05
5.38669e-05
-0.000329531
0.000215527
-0.000144329
-0.000200019
-0.000134692
0.000213156
-0.000109519
-0.000271176
0.000107985
-0.000226344
1.83147e-06
9.42085e-05
-2.61125e-05
-0.000100249
-6.31992e-05
-6.35159e-05
-0.00013338
-0.000140202
-0.000135945
0.000270043
0.000248897
9.69842e-05
0.000321532
0.000171595
-0.000173034
-0.000102018
0.000295141
-0.000174382
-0.000388135
0.00051787
-8.98208e-05
-9.97924e-05
0.000427056
-0.000363601
1.22152e-05
5.10682e-05
8.05209e-08
0.000106156
-0.000142143
9.90346e-05
0.000229639
5.61735e-05
-0.000160587
5.6358e-05
0.000171451
0.000127447
5.13228e-05
0.000458714
-0.000222054
-1.89378e-05
9.1569e-05
-5.07429e-06
-0.000132464
4.43471e-05
-0.000120596
3.04392e-05
-6.43422e-05
-0.000217458
-2.17178e-05
0.000353307
-8.72944e-05
-0.00023908
0.000362788
-0.000122809
-9.86629e-05
0.000203991
-2.51628e-06
0.000130345
-0.000412877
-0.000184311
7.68042e-05
0.000272877
-0.000251403
-0.000292778
0.000581956
-0.000217693
-0.000186554
-0.000329928
0.000127755
0.00017228
-0.000206887
-9.80021e-05
0.000297263
-4.3654e-05
-9.4585e-05
-4.1846e-05
-0.000404532
-8.61273e-05
0.000184371
2.51384e-05
-0.000109156
5.82872e-05
-4.14698e-05
2.88329e-05
-0.000624942
-0.000236863
0.000200849
0.000152293
-0.000293754
-1.33824e-05
0.000455075
-0.000260649
-0.000209074
0.000760498
7.35693e-06
-0.000118226
-0.000115794
-6.84189e-05
-3.75043e-05
0.000383921
-0.000164891
-1.87825e-05
6.74158e-05
1.23882e-06
2.13786e-06
0.000268797
-0.00037247
-0.000138886
0.000342607
-0.000192968
-0.000124478
0.000108475
0.000272562
-0.000213339
0.000436876
-0.000164282
-0.000469172
0.000457004
-0.000177671
6.27436e-05
-0.000241806
-0.000226089
0.000121423
-0.000191443
-0.000263683
-0.000213872
-0.000100606
-0.000120957
-0.000142616
0.000176026
-1.47703e-05
-8.44215e-05
0.000274419
-0.00031608
-0.000279342
0.000290948
-0.000303398
-0.000345837
0.00013082
-6.55508e-05
-0.000281365
0.000433156
-0.000365058
-0.000145484
-8.23946e-05
-0.000260229
7.89053e-05
-0.000548943
-0.000361707
0.000120645
0.000199592
-0.000254487
4.2939e-06
7.73258e-05
4.54956e-05
4.10123e-05
0.000494314
-8.27661e-05
0.000211013
-0.000104313
-0.00029177
0.000121754
-0.000116624
1.74075e-05
-0.000133541
-1.93681e-05
-2.07348e-05
-0.000221283
0.000443369
-0.000171994
-0.000337763
0.000266273
8.12674e-05
-0.000391563
0.00036915
-0.000204003
-7.67386e-05
-0.000463415
-0.000371173
7.52545e-05
0.000332998
-0.000143417
-0.000239947
0.000615715
7.43494e-05
-0.000185214
-0.000239021
-0.000153719
0.000244226
-0.000360805
1.56115e-05
0.000173277
1.76739e-05
0.000116026
-0.000160205
-0.000384705
-1.54494e-05
0.000460293
1.13066e-05
9.45388e-05
-0.000167704
0.0003127
0.00017497
-0.000424983
-0.000371313
0.000220588
0.000334208
-8.45819e-05
0.000320782
0.000502571
-0.000166875
0.000241433
0.000598502
4.86798e-05
6.57301e-05
-0.000201972
-0.000114122
-0.000190237
0.000431343
-0.000202004
-0.000222273
-0.000141408
-0.000185641
-0.0002833
0.000147426
6.0648e-05
-0.000100953
0.000127726
0.00015052
0.000126324
0.000285114
-0.000415478
0.000125247
0.000558736
-0.000172734
5.01956e-05
0.000372001
-0.000132969
-0.000188189
-4.47886e-05
-0.00019727
-0.000386042
2.02653e-05
-0.000164451
-8.44442e-05
-5.76019e-05
-0.000308869
-0.000102384
1.28262e-05
8.60663e-05
-0.000294349
0.000362297
3.73855e-05
-0.000271944
0.000214431
-8.15078e-05
-0.00015835
-0.000116629
6.65973e-05
0.000160401
3.91723e-05
-0.000307085
5.14217e-05
0.000114637
-0.0002484
-0.000231556
-0.000192775
-9.32113e-05
-0.000121248
-1.29922e-05
-0.000228453
7.96659e-05
-1.97585e-05
-0.000374038
-4.78309e-05
0.000622392
-8.22127e-05
-0.000135501
-0.000107043
-0.000218434
-5.22845e-05
2.23875e-05
-0.000166259
-0.000200011
0.000302783
-0.000106924
1.46726e-05
0.000418553
-0.000263905
0.000141075
-7.65706e-05
0.000197785
3.94171e-05
0.000490646
-7.71588e-05
-7.66581e-05
-0.000298773
-0.000505161
-0.000209159
0.00023639
-2.03094e-05
-0.000131967
0.000482612
3.56961e-06
-4.73921e-05
-0.000115665
-4.60646e-05
9.67629e-05
-0.000202448
-5.37036e-05
9.69265e-05
-0.000172377
-0.000131754
5.17232e-05
-0.000175264
1.59988e-05
0.000636825
-8.37721e-05
6.46536e-05
-2.51162e-05
-0.000121132
-0.000136288
-0.000238167
-0.000253405
-2.08912e-05
0.00027522
-0.000200079
0.000185337
0.000498585
-0.000331734
0.000323296
0.000357129
-0.000108955
0.000124908
-7.45975e-05
-9.29484e-05
0.000114393
0.000262704
3.79629e-05
8.53509e-05
-0.000180791
-0.000419236
-0.000104443
0.000224394
-0.0001642
0.000117736
-2.78425e-05
-0.000174981
-6.66402e-05
0.000328767
9.57673e-05
-0.000104863
0.000203076
-6.54515e-05
-1.03821e-05
0.000229472
-0.000225532
-0.000134192
0.000213929
-0.000368211
-0.000216136
9.91266e-05
0.000201941
-0.000150439
0.000135306
-2.09912e-05
-0.000183242
-3.60693e-05
-0.00016439
-0.000212815
0.000310412
0.000138715
-0.000173869
0.00029036
-1.22833e-05
-0.000223117
-0.000196593
2.64663e-06
-0.000120193
-0.000417966
9.93524e-05
-0.000244398
0.000234201
-9.59985e-05
-7.99796e-05
0.000132698
-0.000304943
6.97728e-05
-6.01179e-05
-0.000396585
-7.44651e-05
0.000199893
-0.00032372
-0.000188967
0.000605568
-0.00016663
-0.000197138
-7.99823e-05
-9.14125e-05
-0.000101282
0.000108823
-9.12936e-05
-0.000103012
0.000373616
-1.63182e-05
0.000126176
0.000264883
-0.000207947
3.58717e-05
7.6779e-06
-2.90227e-05
-9.90188e-05
0.000333422
8.5278e-05
6.06826e-05
-0.000391301
-0.000242834
-3.35181e-05
-7.01222e-05
0.000134291
-0.000104202
0.000500833
-8.59042e-05
-5.14404e-05
-7.73925e-05
-6.95781e-05
8.01341e-05
-2.6799e-05
-0.00020293
3.19644e-05
-7.44647e-05
-0.000323579
0.000214708
-2.2722e-05
-0.000102179
0.000453896
7.36723e-05
3.35864e-05
9.95866e-07
-0.000303235
-9.49084e-05
-7.72313e-05
5.58972e-05
-8.81806e-05
0.000107445
-0.000197097
-4.48321e-05
0.000194781
-5.22568e-05
-0.000141087
6.16731e-05
-0.000111531
-0.000152704
0.000256566
-0.000165863
-7.05664e-05
0.000109353
-0.000155852
-0.000179796
0.000349782
-4.90333e-05
-0.000155973
0.000276459
-0.000434134
0.000119716
-9.77245e-05
-0.000368229
2.61037e-05
8.35641e-05
0.000171399
-0.000227562
0.000244473
-8.93043e-05
-0.000252473
0.00036205
3.45034e-05
-0.000152726
0.000497559
-0.000111846
-0.000154199
0.000130166
-6.35446e-05
-7.84099e-05
9.12497e-05
8.72962e-05
-0.000113755
-3.27128e-05
-0.00030873
-0.000205069
0.000512835
-0.000215511
-0.000156804
0.000306094
-5.77919e-05
-0.000130051
9.83335e-06
6.19183e-06
-0.000269803
-7.00123e-05
1.69549e-05
-0.000232468
4.92936e-05
-0.000198879
5.10973e-05
7.44281e-05
-0.000254005
-4.29736e-05
2.59334e-05
-0.000297693
-0.000322662
0.000341709
-0.000132446
-0.000159402
0.000261969
-0.000107224
-1.67125e-05
-0.000121835
-0.000271073
-2.63127e-05
-1.05728e-05
-2.91858e-05
0.000132268
7.46008e-05
6.33017e-05
-6.06344e-05