/*--------------------------------*- C++ -*----------------------------------*\
  =========                 |
  \\      /  F ield         | OpenFOAM: The Open Source CFD Toolbox
   \\    /   O peration     | Website:  https://openfoam.org
    \\  /    A nd           | Version:  10
     \\/     M anipulation  |
\*---------------------------------------------------------------------------*/
FoamFile
{
    format      ascii;
    class       surfaceScalarField;
    location    "18";
    object      phi;
}
// * * * * * * * * * * * * * * * * * * * * * * * * * * * * * * * * * * * * * //

dimensions      [0 3 -1 0 0 0 0];

internalField   nonuniform List<scalar> 
74080
(
3.88133e-05
2.20624e-05
-3.60167e-06
4.49906e-05
-2.88822e-05
2.02196e-05
3.60431e-05
-5.3046e-06
5.2925e-05
2.80942e-05
2.33124e-05
4.08837e-05
2.80637e-05
1.657e-05
3.87764e-05
2.47243e-05
8.04812e-06
5.66198e-05
1.4447e-05
2.90584e-05
1.98995e-05
1.37721e-05
1.94949e-05
2.36934e-05
2.29898e-05
1.72655e-05
2.80169e-05
3.37205e-05
1.45503e-05
1.95947e-05
3.2532e-05
3.45298e-05
-1.22238e-06
3.40295e-05
2.77309e-05
-1.09608e-05
3.28915e-05
-1.46959e-05
1.66995e-05
2.59511e-05
7.71111e-06
2.74064e-05
2.16261e-05
1.83395e-05
1.64681e-05
1.38606e-05
1.69245e-05
3.40097e-05
3.10542e-05
2.77542e-05
-6.60857e-06
5.91225e-05
-1.14294e-05
-7.16014e-06
5.81735e-05
-2.99907e-06
4.2435e-05
4.9941e-05
1.31903e-05
4.08328e-05
3.614e-05
2.99816e-06
4.89118e-05
3.2682e-05
2.25617e-05
1.69836e-05
3.75676e-05
6.74545e-06
-1.74489e-05
3.27882e-05
-1.72142e-05
6.49445e-06
2.34408e-05
-5.36613e-06
4.76326e-05
3.04073e-05
2.36192e-05
3.53419e-05
6.38986e-05
-7.35583e-06
4.61443e-06
7.52336e-05
-4.29516e-05
3.09922e-05
4.57955e-05
-3.00719e-06
5.54615e-05
2.73117e-05
3.0909e-05
4.02748e-05
2.68731e-05
1.61611e-05
2.76996e-05
2.27433e-05
1.55518e-05
3.05057e-05
2.92653e-05
2.88504e-05
1.83652e-05
3.88117e-05
5.0082e-06
1.60873e-05
3.15767e-05
4.96663e-06
2.45964e-05
3.49687e-05
1.17588e-05
2.41613e-05
5.44292e-05
-2.97046e-05
3.23073e-05
5.85442e-05
-4.38569e-05
4.02043e-05
4.31751e-05
-2.77034e-05
4.84561e-05
2.88096e-05
3.08791e-05
0.000100459
3.48659e-05
-7.96985e-05
0.000104594
-8.44418e-05
-3.98097e-05
6.05125e-05
-2.97565e-06
1.98346e-05
3.36933e-05
5.61216e-05
-2.66029e-06
3.85855e-05
3.61157e-05
-3.63911e-06
2.6454e-05
2.40529e-05
5.31992e-06
2.29647e-05
3.70265e-05
7.33023e-06
2.75997e-05
8.833e-06
-1.48865e-05
3.98465e-05
3.35636e-05
-3.07513e-05
6.97836e-05
2.76676e-05
-3.90764e-05
9.33313e-05
4.91549e-05
-5.76913e-05
0.000123569
4.5787e-05
-8.43896e-05
0.000103361
-3.0219e-05
-3.68006e-05
6.98794e-05
2.56677e-05
-8.62381e-06
6.10927e-05
3.79104e-05
-3.02615e-05
4.95088e-05
3.85316e-05
-3.71561e-06
7.79358e-05
7.27001e-05
-6.8213e-05
0.000125363
8.92519e-06
-0.000119419
0.000126414
1.45736e-05
-1.25525e-05
0.000105774
5.06469e-05
5.10585e-06
6.89434e-05
1.92145e-05
2.44312e-05
7.52985e-05
4.11932e-05
-2.19528e-05
0.000111962
-3.64213e-05
-7.09306e-05
9.57127e-05
-8.18695e-05
-4.30405e-05
5.26638e-05
-8.29911e-06
1.50265e-05
5.6404e-05
6.4141e-05
-1.01035e-05
0.000129836
-2.01237e-05
-7.70298e-05
0.000156259
-0.000113924
-3.04417e-05
9.22226e-05
6.90451e-06
1.1558e-05
5.46427e-05
9.60853e-05
-1.28788e-05
3.72744e-05
5.11616e-05
-2.09689e-05
2.1183e-05
1.95194e-05
1.50501e-05
4.83266e-05
5.51781e-05
-1.77645e-05
8.22406e-05
3.27437e-06
-4.99831e-05
7.50198e-05
4.30668e-06
-3.61213e-05
7.29095e-05
2.61891e-05
-1.89628e-05
0.000113033
-7.16046e-05
-1.79125e-05
0.000119892
-0.000105662
-1.00726e-05
7.74482e-05
-8.00034e-05
3.1449e-05
3.75337e-05
-2.829e-06
0.000163848
8.96541e-06
-0.000107655
0.000155985
-0.000117926
-0.000105481
9.97282e-05
7.81343e-06
-2.77764e-05
7.80981e-05
7.96184e-05
-5.86478e-05
6.98709e-05
8.9034e-05
-5.88803e-05
4.0664e-05
7.2925e-05
-5.77747e-05
4.66946e-05
3.53581e-05
3.24302e-05
6.73568e-05
-6.55499e-05
1.97021e-06
9.00543e-05
2.37405e-05
-6.51812e-05
0.000119842
5.6267e-05
-0.000100006
0.000127211
4.93471e-05
-6.26199e-05
0.000215927
-1.52048e-05
-5.05931e-05
0.000251898
-0.000116669
-3.52105e-05
0.000184497
3.07449e-05
-1.4306e-05
0.000143211
3.88014e-05
-4.97933e-05
0.000104506
4.60947e-05
-2.93783e-05
0.000118858
0.000137021
-7.28073e-05
0.000174692
0.000103175
-0.000131419
0.000171883
8.04212e-05
-4.07084e-05
0.000161105
0.000147635
-2.87568e-05
0.000118834
6.15901e-05
-9.51862e-06
0.000112521
6.38267e-05
-3.77608e-05
0.000188734
-0.000148416
-4.98757e-05
0.000183398
-0.000230716
-4.35559e-05
9.82882e-05
-4.07868e-05
5.76343e-06
9.12321e-05
9.62003e-05
-1.32227e-05
0.000166956
-1.8249e-05
-0.000101038
0.000193948
-0.00015268
-8.79333e-05
0.000140908
1.68134e-05
-4.01316e-05
0.000123393
0.000176035
-8.02347e-05
8.94405e-05
0.000122548
-9.918e-05
3.13124e-05
3.46271e-05
3.01595e-07
6.79858e-05
6.29413e-05
-1.95218e-05
0.00013916
-4.71829e-05
-4.75459e-05
0.000148685
-4.29022e-05
-8.51753e-05
0.000127136
5.45617e-05
-6.84582e-05
0.000148049
-9.67106e-05
-6.38905e-05
0.000163361
-0.00015642
-7.27544e-05
0.000122039
-0.000110246
-9.34299e-06
-4.60424e-06
1.23596e-07
0.000192867
-2.08849e-05
-0.000107923
0.000179249
-0.000145655
-0.000132348
0.000120565
9.36052e-06
-3.19672e-05
0.000115404
4.83242e-05
-5.4233e-05
9.3936e-05
0.00012564
-8.81219e-05
4.82727e-05
0.000164107
-8.09548e-05
5.54115e-05
9.96622e-05
-3.02843e-05
7.67604e-05
-0.000125916
1.98417e-05
0.000123132
-1.31352e-05
-6.48452e-05
0.000163917
8.06985e-05
-0.000120498
0.000116769
0.000110676
-7.5491e-05
0.000188431
-5.39452e-05
-1.68121e-05
0.000310783
-0.00028067
1.25892e-05
0.000283579
3.42272e-06
-3.68295e-06
0.000209602
4.70864e-05
-3.8849e-05
0.000146587
2.13778e-05
-4.05946e-05
0.000148485
0.000218125
-8.42364e-05
0.000203025
0.000212387
-8.88432e-05
0.000193448
0.000144441
-2.57741e-05
0.000187638
0.000281629
-3.79186e-05
0.000164687
0.000129437
-3.88751e-05
0.000160963
8.00812e-05
-6.53026e-05
0.000255011
-0.000233856
-7.44086e-05
0.000240712
-0.00035547
-4.79582e-05
0.000117843
-7.04589e-05
2.10706e-05
0.000110954
0.000122225
2.05301e-05
0.000185995
2.60972e-05
-9.26669e-05
0.00021567
-0.000168661
-0.000100771
0.000172193
3.01292e-05
-9.31124e-05
0.000172606
0.000216651
-7.97576e-05
0.00016805
0.000158777
-0.000170919
9.04291e-05
5.86098e-05
-7.42638e-05
9.62978e-05
5.66469e-05
2.97548e-06
0.000178267
-0.00012718
-5.95988e-06
0.000191447
-9.32611e-05
-0.00011495
0.000166952
9.38288e-05
-0.000105345
0.000175881
-0.000110331
-0.000105458
0.000193986
-0.000197
-0.00012269
0.000184246
-0.000135828
-8.18464e-05
-6.41188e-05
-5.80272e-06
0.000237611
-8.50997e-05
-0.00011925
0.000204294
-0.000158616
-0.00014203
0.000127154
-5.55929e-06
-3.9476e-05
0.000140271
2.2406e-05
-4.03868e-05
0.000129348
0.000108509
-9.37456e-05
9.24568e-05
0.000259617
-0.000122618
0.000122819
0.000180219
-0.00016152
0.000130267
-0.00013933
1.00178e-05
0.000162706
-4.8352e-06
-4.87876e-05
0.000197294
0.00012306
-0.000117935
0.000146559
0.00021273
-0.000105146
0.000167307
-4.25226e-05
-5.95667e-06
0.000301947
-0.000428546
-1.41441e-05
0.000353591
-0.000112443
8.59381e-06
0.000286951
5.31047e-05
-1.71918e-05
0.000197544
-1.02488e-05
-1.77351e-05
0.000172974
0.000259883
-0.000110531
0.000222336
0.000228392
-8.1237e-05
0.000226738
0.000181241
-6.38809e-05
0.000219705
0.000392308
-3.99191e-05
0.000212808
0.000212378
-2.30476e-05
0.000206019
0.000118022
-8.10332e-05
0.000296858
-0.000297705
-8.21034e-05
0.000310883
-0.000439867
-7.48542e-05
0.000180577
-0.000112661
2.91353e-05
0.000146301
0.00016103
1.39567e-05
0.000196154
6.07467e-05
-9.33562e-05
0.00021781
-0.000175805
-6.61433e-05
0.000185858
-1.09438e-05
-7.18703e-05
0.00019419
0.000209242
-2.2645e-05
0.000235979
9.16884e-05
-0.000140429
0.000158327
5.75501e-05
-0.000129262
0.00013932
8.86441e-05
-5.44344e-05
0.000210582
-0.000170785
-5.70482e-05
0.000241188
-0.000107838
-0.00012124
0.000223981
0.000113016
-0.000112317
0.000203876
-4.37345e-05
-0.000164222
0.000205043
-0.000189444
-0.000140755
0.00019536
-0.000151153
-0.000114496
-0.000111968
-5.61544e-05
0.000271878
-0.000160212
-0.000109851
0.000238589
-0.000163407
-0.000180747
0.000164896
-2.6674e-05
-9.8207e-05
0.000148215
3.76502e-05
-1.71207e-05
0.000150866
8.05598e-05
-9.69055e-05
0.000159112
0.000340432
-0.000181611
0.000197027
0.000235606
-0.000228971
0.000192482
-0.000164846
1.08811e-05
0.000174808
2.56024e-05
-4.47335e-05
0.000207974
0.000200402
-0.000110721
0.000230605
0.00027638
-0.000105924
0.000253814
1.75664e-05
-2.07605e-05
0.000339564
-0.000507089
-8.78037e-05
0.0003938
-0.000225785
-4.1594e-05
0.000328904
6.25458e-05
-1.58901e-05
0.000217025
-8.98078e-06
-6.53415e-06
0.000197773
0.000249556
-9.47606e-05
0.000257187
0.000182601
-5.81498e-05
0.00025634
0.000245537
-0.00010328
0.000257057
0.000490588
-6.4058e-05
0.000265768
0.000288933
-3.532e-06
0.000225241
0.000169255
-4.68509e-05
0.000288299
-0.000343297
-6.37079e-05
0.000355302
-0.000531152
-9.27917e-05
0.000275471
-0.000193809
6.66453e-07
0.000213856
0.00019252
1.58555e-05
0.000219687
0.00010538
-8.43087e-05
0.000233992
-0.000180735
-5.30097e-05
0.000208636
-0.000110354
2.21585e-06
0.000233484
0.000159846
-3.97892e-06
0.00027008
2.36447e-05
-7.22445e-05
0.000205684
5.04898e-05
-0.000151631
0.00019951
0.000157809
-0.000163076
0.000235716
-0.000127218
-0.000121627
0.000274718
-3.87149e-05
-0.00016171
0.000254927
7.78314e-05
-9.38245e-05
0.000199773
7.25738e-05
-0.000182786
0.000207917
-0.000151561
-0.000167076
0.000200693
-0.000146323
-0.000126067
-0.000165953
-8.71266e-05
0.000320498
-0.000206973
-0.000109773
0.000297336
-0.000147285
-0.000188374
0.00024732
-5.49331e-05
-0.000157321
0.000187896
8.66857e-05
-9.05389e-05
0.000147552
0.000130584
-9.68291e-05
0.000200471
0.000342676
-0.000143574
0.000282879
0.000181969
-0.000201796
0.000260011
-0.000173139
-7.08437e-06
0.000216544
4.10627e-05
-5.05876e-05
0.000240889
0.000246254
-0.000138816
0.000273358
0.000287737
-6.95621e-05
0.000303193
0.000119115
-4.70178e-05
0.000371304
-0.000552962
-6.27008e-05
0.000410773
-0.000276679
-0.000105878
0.00035332
5.65867e-05
-4.1906e-05
0.000254443
-2.81782e-05
-4.08298e-06
0.000223266
0.00023087
-5.66887e-05
0.000282605
0.000176003
-0.000108567
0.000293088
0.000239036
-5.45598e-05
0.000295786
0.000566287
-7.51265e-05
0.000307804
0.000411093
-2.4442e-05
0.000279797
0.000237139
-8.23805e-05
0.000292016
-0.000291035
-0.00015308
0.00035188
-0.000614714
-5.94744e-05
0.000332783
-0.000266715
-6.32669e-06
0.000265408
0.000198141
2.46687e-05
0.000268222
0.000124771
-7.23771e-05
0.00028528
-0.000200039
-5.77695e-05
0.000249742
-0.000179351
-1.24225e-05
0.000238751
0.000177679
-4.42234e-05
0.000258726
2.10405e-05
-7.36914e-05
0.000251082
3.65398e-05
-0.000155067
0.00024873
0.000224598
-0.000214481
0.000260112
1.4981e-06
-0.000171885
0.00030928
2.4675e-05
-0.000185101
0.000284598
7.02388e-06
-0.000127091
0.000240015
0.000140208
-0.00014185
0.000252329
-8.8672e-05
-0.000209237
0.000233993
-6.76408e-05
-0.00018192
-0.00019575
-0.000105144
0.000349365
-0.000177243
-0.000169901
0.000317801
-9.48349e-05
-0.000196753
0.000263062
-6.32201e-05
-0.00014884
0.000182394
0.00015294
-0.00012965
0.000126378
0.000200185
-7.40807e-05
0.000203555
0.000291161
-0.000116986
0.000307603
0.000150264
-0.00015106
0.000287736
-0.000163726
6.56171e-06
0.000231318
5.25587e-05
-2.08238e-05
0.000257809
0.000276182
-9.98525e-05
0.000311775
0.000239168
-2.22434e-06
0.000364256
0.000149991
-2.10428e-05
0.000429271
-0.000538158
-5.55182e-05
0.000440038
-0.000281332
-0.000126147
0.000398782
1.23076e-05
-7.2823e-05
0.000317358
-1.83185e-05
2.14274e-06
0.000257298
0.000205498
-1.69201e-05
0.000298727
0.00022069
-0.000142306
0.000323785
0.000229656
-8.90674e-05
0.000326706
0.000605105
-5.32844e-05
0.000363303
0.000517498
-1.45417e-05
0.000360516
0.000339921
-0.000101027
0.000328441
-0.000152179
-0.000193857
0.000367187
-0.000675334
-9.60616e-05
0.000363008
-0.000321974
-1.62192e-05
0.000291712
0.000157092
4.17889e-05
0.000294869
9.36832e-05
-6.20515e-06
0.000305205
-0.000176876
-5.56224e-05
0.000273226
-0.000247456
-3.53568e-05
0.000264684
0.000175079
-3.4628e-06
0.000302979
-1.99068e-05
-4.69379e-05
0.000300415
-1.16217e-06
-0.000127474
0.000271106
0.000256221
-0.000179738
0.000256872
0.000112025
-0.000165693
0.000352189
5.22253e-05
-0.000134154
0.00036258
-5.97743e-05
-0.000163639
0.000307138
0.00016529
-7.85799e-05
0.000285083
1.27914e-06
-0.000199279
0.000263174
3.13914e-05
-0.000192229
-0.00021537
-9.77287e-05
0.00036859
-0.000127055
-0.000231559
0.000362174
-8.48811e-05
-0.000181761
0.000302535
-3.10849e-05
-0.000134382
0.000230525
0.000206268
-0.000145234
0.000193641
0.000224591
-1.43926e-05
0.000216726
0.000305083
-0.00018165
0.000289888
0.000188443
-0.000134543
0.000302562
-0.000162891
3.47984e-05
0.000265528
0.000109818
-5.70008e-05
0.000326807
0.000286067
-0.000119506
0.000393409
0.000215499
-0.000105312
0.000451752
0.000115698
-5.07424e-05
0.000473466
-0.000469666
-0.000111341
0.000441248
-0.000257959
-0.000145522
0.000436994
-9.48823e-05
-0.000101174
0.000383149
-4.34051e-05
-2.78341e-06
0.000310286
0.00018555
-1.45245e-05
0.000346889
0.000251573
-0.000157862
0.000372984
0.000272249
-0.00013981
0.000371633
0.000585462
-5.33644e-05
0.000411706
0.000587178
-4.5719e-05
0.000396538
0.000458928
-5.74604e-05
0.000379394
-9.81913e-06
-0.00014298
0.000403387
-0.000697118
-0.000144487
0.00038024
-0.000339585
-3.48769e-05
0.000319379
0.000162869
1.24114e-05
0.00031768
8.2177e-05
5.9334e-05
0.000356467
-9.50483e-05
-6.55452e-05
0.000319379
-0.000264809
-1.92356e-05
0.000341817
0.000109019
-2.41004e-05
0.000387912
-0.000114718
-7.05802e-05
0.000325995
-2.723e-05
-0.000119567
0.000292353
0.000213495
-0.000135075
0.000292145
0.000163144
-0.00012955
0.000395125
5.30424e-05
-9.94557e-05
0.000415217
-0.000108356
-0.000155433
0.000332325
0.000191657
-7.78503e-05
0.000291112
0.000114671
-0.00022155
0.000320534
2.79832e-05
-0.000100709
-0.000198417
-0.000116412
0.000414002
-0.000109715
-0.000243752
0.000412181
-0.000138368
-0.000153913
0.000345194
2.9191e-05
-0.000204114
0.00028623
0.000259316
-0.000172581
0.000270132
0.000228627
-2.19182e-05
0.000235447
0.000341885
-0.000164924
0.000291007
0.000163287
-3.98662e-05
0.000333053
-0.000126589
4.32086e-05
0.000335362
0.000198186
-8.98252e-05
0.00043801
0.000172093
-0.000173037
0.000489648
0.000112185
-0.000144832
0.000501173
0.000104403
-8.78851e-05
0.000448079
-0.000389431
-0.000117085
0.00044774
-0.000267928
-0.000110565
0.000543289
-0.000287648
-0.000163383
0.000468206
-7.6977e-05
-1.69027e-05
0.000360791
0.000177036
2.57231e-06
0.000387158
0.000243298
-0.000152991
0.000395168
0.000289858
-6.55764e-05
0.000413298
0.000492411
-5.2492e-05
0.00043752
0.000606627
-2.84994e-05
0.000417202
0.000525531
-7.0523e-06
0.000453959
6.35622e-05
-0.000141881
0.000445965
-0.000595971
-0.000165174
0.000400526
-0.000318688
1.94614e-05
0.000360754
0.000195275
1.29105e-06
0.000350884
0.00015141
3.9781e-05
0.000395427
-6.58058e-05
-1.73837e-05
0.000356788
-0.000215118
-4.34057e-05
0.000397769
0.000107879
-0.000116313
0.000434186
-0.000168899
-0.000126081
0.000345292
-2.60137e-05
-0.000114802
0.000340698
0.000174918
-0.000151929
0.000390432
0.000122357
-8.55283e-05
0.000428732
0.000143887
-0.000139641
0.000390026
-1.87602e-05
-0.000195803
0.000319802
0.00024007
-9.46806e-05
0.000318829
0.000187634
-0.000205527
0.00038498
-4.07924e-05
-9.87194e-05
-0.000198692
-0.000116761
0.000459918
-0.000101502
-0.000243397
0.000481981
-0.000246408
-0.000205083
0.00041352
-1.19673e-06
-0.00019784
0.000344131
0.000355114
-0.000227966
0.000349454
0.000281179
-9.14034e-05
0.00033795
0.000330524
-0.00014195
0.000385206
6.29653e-05
-2.11209e-05
0.000422926
-6.67324e-05
3.13777e-05
0.000403119
0.000261994
-2.68943e-05
0.000498172
-2.68156e-06
-0.000163769
0.000559348
-5.25655e-05
-0.000145935
0.00056581
8.05115e-05
-0.000124832
0.000522208
-0.000281768
-0.000134101
0.000554296
-0.000295247
-4.1995e-05
0.000689227
-0.000471546
-9.4351e-05
0.000608671
-0.000175886
-4.21474e-05
0.000444684
0.000127634
2.16027e-05
0.000404829
0.000224557
-9.61563e-05
0.000370029
0.000308331
-4.98612e-05
0.000420196
0.000420165
-7.10267e-05
0.000465285
0.000520607
-1.96761e-05
0.000458352
0.000551246
1.81029e-05
0.000493722
0.000111231
-0.000165251
0.000467557
-0.000327734
-0.000256292
0.000410975
-0.000290174
3.16937e-05
0.000408021
0.000165133
2.85919e-05
0.000435063
0.000244912
-1.1299e-05
0.000451288
-7.01043e-05
-5.945e-06
0.000401351
-0.000143795
-5.22247e-05
0.000450537
0.0001322
-0.000102099
0.000487207
-0.000200264
-7.40339e-05
0.000405522
3.53678e-06
-0.000112856
0.000418433
0.000193849
-0.000213822
0.000441077
0.000121917
-0.000102666
0.000436404
0.000265194
-0.000134607
0.000397491
0.000150129
-0.000225937
0.000351028
0.000198272
-7.25354e-05
0.000391799
9.76898e-05
-0.000155132
0.000451276
-0.000119926
-0.000163921
-0.000129733
-0.000153454
0.000533729
-0.000127557
-0.00016722
0.000580083
-0.000364637
-0.000247249
0.000486663
-6.07848e-05
-0.000164252
0.000398274
0.000425681
-0.000241743
0.000419923
0.000347501
-0.000135183
0.00046989
0.000275502
-0.000118584
0.000493669
-3.85064e-05
-3.69176e-05
0.000477404
4.18007e-06
2.28155e-05
0.000447085
0.000336323
2.61955e-06
0.000493444
-8.69798e-05
-0.000165491
0.000561598
-0.000186375
-0.000223314
0.000628061
1.80038e-05
-0.000165244
0.000638944
-0.00019823
-0.000150365
0.000621138
-0.000294673
-3.05602e-05
0.000720085
-0.000517337
-2.59599e-05
0.000713353
-0.00036401
1.67165e-05
0.000565285
-2.93338e-06
2.96772e-05
0.000476376
0.000230194
-5.338e-05
0.000434338
0.00038577
-0.000100607
0.000478423
0.000373534
-9.27227e-05
0.000491943
0.000415849
-2.07275e-05
0.000491572
0.000609754
-1.62788e-05
0.000556792
0.000132711
-0.000197946
0.000505167
-0.000121
-0.000364386
0.000422737
-0.000167109
-0.000104293
0.000450732
2.98727e-05
-2.83122e-05
0.000514771
0.000167954
-2.22069e-05
0.000508865
-5.10531e-05
1.42328e-05
0.000456827
-2.27997e-05
-4.77877e-05
0.000522057
0.000124521
-1.55546e-05
0.00053462
-0.000187626
-4.53111e-05
0.000488126
3.30067e-05
-0.000164505
0.000505968
0.000177346
-0.000182047
0.000455594
0.000165879
-0.000121394
0.000436016
0.000273403
-1.3358e-05
0.0004413
0.000295881
-0.00020383
0.000421447
0.000165531
-0.000146991
0.000485701
3.34575e-05
-0.000143799
0.000501534
-0.000105471
-0.000192382
-2.86099e-05
-0.000162274
0.000616744
-1.53174e-05
-0.000220115
0.000658654
-0.000373329
-0.000311202
0.000551605
-7.20911e-05
-0.000189924
0.000454593
0.000410804
-0.000253052
0.000496519
0.000426784
-0.000212302
0.000592524
0.000251248
-0.000133384
0.000608249
-0.000104267
-8.03943e-05
0.000577802
0.00010373
3.00916e-05
0.000564283
0.000406193
2.02642e-06
0.000509046
-1.49242e-05
-0.00018846
0.000497216
-0.000154234
-0.000296763
0.000665712
-9.31015e-05
-0.000105474
0.000740698
-0.000262779
3.04771e-05
0.00067891
-0.000253465
-1.62956e-05
0.000650679
-0.000467778
-0.000136944
0.0005946
-0.000456914
-8.45502e-05
0.000570008
-0.000165334
1.81264e-05
0.000544267
0.000166653
-8.52899e-05
0.000504952
0.000389399
-6.11064e-05
0.000520935
0.000310153
-9.72749e-05
0.000493935
0.000427185
-8.49861e-05
0.000503255
0.000664579
2.55063e-05
0.000588102
0.000103991
-0.000118923
0.000591268
-9.85814e-05
-0.000324831
0.000579338
-4.63667e-05
-0.000254642
0.000564745
-5.03801e-05
-4.60675e-05
0.000614864
2.96919e-05
-3.56035e-05
0.000588207
-8.4961e-05
3.73174e-05
0.000511032
6.67798e-06
4.84335e-05
0.000571869
0.000134113
4.631e-05
0.00056992
-0.000170082
-0.000123862
0.000508805
2.42961e-05
-0.000164377
0.000540841
0.000168686
-0.000142914
0.000522433
3.73092e-05
-5.84037e-05
0.000490256
0.000221481
0.000118326
0.000496729
0.000408517
-0.000142406
0.000515838
6.42665e-05
-0.000186518
0.00058627
-4.1127e-05
-0.000146075
0.000586883
-6.29521e-05
-0.000232933
2.39787e-05
-0.00011064
0.00068296
0.000183566
-0.000277505
0.000685557
-0.000266405
-0.000382171
0.000611687
-5.68542e-05
-0.000206135
0.00050692
0.000342367
-0.00018195
0.000568983
0.000477669
-0.000280153
0.000702373
0.000288044
-0.000162653
0.000703358
-0.00011517
-8.92045e-05
0.000642261
0.000243737
0.000105048
0.000672506
0.000415891
0.000106296
0.000615483
2.14632e-05
-0.000172891
0.000583323
-0.000134663
-0.000240387
0.000729393
-0.000222858
6.13998e-06
0.000712533
-0.00032599
0.000176074
0.000692909
-0.000248785
5.58076e-05
0.000726945
-0.000393069
-0.000198458
0.000636209
-0.000318866
-0.000234959
0.000584728
-0.000229257
-4.36524e-07
0.000562441
-1.73577e-05
-3.93015e-05
0.000547159
0.000237709
1.4751e-05
0.000569615
0.000217482
-5.55954e-05
0.000549596
0.000465416
-0.000115268
0.000596084
0.000696183
1.69543e-05
0.000611435
7.19844e-05
-0.000129264
0.000604984
-0.000131809
-0.000209026
0.000700208
-0.000148666
-0.000209511
0.000700925
-9.88387e-05
-0.000110671
0.00069276
-1.52532e-05
-1.60044e-05
0.000663842
-0.000136126
5.47529e-05
0.00060878
3.30908e-05
-6.24349e-06
0.000643737
0.000253372
-5.87656e-06
0.000618462
-0.000103779
-9.31801e-05
0.00051989
5.23554e-05
-0.0001618
0.000580119
0.000209846
-0.000171799
0.000586323
-6.27987e-05
-3.51804e-05
0.000495715
0.000197674
0.000102872
0.000487976
0.00042139
-8.93538e-05
0.000588933
-0.000115781
-0.000163622
0.000658739
-0.000215494
-7.19536e-05
0.000692385
-8.17112e-05
-0.000211296
0.000104228
-9.86676e-05
0.000786753
0.000211587
-0.000169631
0.00076371
-0.00019258
-0.000306423
0.000658637
3.84494e-05
-0.000237266
0.000587293
0.000300629
-0.000169651
0.000711972
0.000365052
-0.000299817
0.000851758
0.000216575
-0.000254581
0.000713619
-3.26451e-05
-0.000112621
0.000584826
0.000398154
0.000144238
0.000740034
0.000337171
0.000146289
0.000773278
-8.94345e-05
-0.000163585
0.000730255
-7.87033e-05
-0.000219707
0.000757851
-0.000231108
-6.31468e-05
0.000696026
-0.000358653
0.000131316
0.000768049
-0.000287659
3.46686e-05
0.000914646
-0.000298178
-0.000241855
0.000857446
-0.00026077
-0.000179334
0.000747672
-0.000395257
2.88965e-05
0.000671744
-0.00020464
-7.48297e-06
0.00065104
7.23847e-05
-5.20567e-05
0.000644402
0.000132792
-3.7951e-05
0.000626652
0.000551754
-8.03038e-05
0.000691302
0.000634086
-4.35306e-05
0.000628093
0.000101079
-0.000238198
0.000616862
-0.000129932
-0.000235888
0.000789677
-0.000371511
-8.09348e-05
0.00081757
-0.000285261
-9.30897e-05
0.000836862
-0.000144927
-3.37237e-05
0.000792944
-0.00015874
8.12893e-05
0.000662295
0.000150334
-8.64292e-06
0.000672693
0.000321455
-5.13552e-06
0.000716133
-6.0592e-05
-2.78391e-05
0.000617219
9.17404e-05
-0.000206893
0.00066316
0.000247069
-0.000191137
0.000664682
3.59148e-05
-0.000166519
0.000542208
0.000254858
-9.12446e-06
0.000612821
0.000271716
3.39884e-05
0.000766757
-0.000279045
-0.000102923
0.000821688
-0.000419072
-2.92051e-05
0.000788505
-0.000187442
-0.00013936
0.00012325
-0.000101199
0.000901076
0.000268393
-9.95772e-05
0.000837866
-0.000111712
-0.000313707
0.000731146
0.000165345
-0.000225234
0.000674713
0.000341566
-0.000262608
0.000802702
0.000361445
-0.000376593
0.000965711
7.48367e-05
-0.000218896
0.000867725
4.95744e-05
-0.000181759
0.000758516
0.000424238
0.000195421
0.000956643
0.000169717
0.000275863
0.00093477
-4.8228e-05
-3.89822e-05
0.000823507
9.7356e-05
-0.000184492
0.000864298
-0.00010372
-0.000252537
0.000875058
-0.000405763
-3.23168e-05
0.000886177
-0.000314505
0.000194401
0.000944379
-0.000133722
-0.000105354
0.000941592
-0.000132558
-0.000234321
0.000890349
-0.000426012
-0.00015181
0.000778594
-0.000178642
-0.000116186
0.000743082
-4.41271e-05
-7.9742e-05
0.000707417
1.78532e-06
1.22447e-05
0.00071605
0.000554118
3.82872e-05
0.000823036
0.00053151
-2.94609e-05
0.000761036
0.00020514
-0.000200123
0.000741389
-0.000112642
-0.000337914
0.000926625
-0.000547962
-0.000145019
0.000952565
-0.000314266
-8.24784e-05
0.000910387
-0.000238026
-6.16971e-05
0.000873017
-0.000265627
0.000120595
0.000797315
0.000253038
0.000181473
0.000778752
0.000385642
0.00012279
0.000793164
2.37994e-05
-5.75985e-05
0.000729129
7.37019e-05
-0.000108853
0.000784257
0.000177579
-0.000191414
0.000787849
0.000130829
-0.000256218
0.000715092
0.000306438
-8.18323e-06
0.000858765
0.000150951
6.6482e-05
0.000969258
-0.000286199
-0.000151683
0.000942104
-0.000458965
-2.96035e-05
0.000890393
-0.000329143
-0.000105428
6.96326e-05
-7.87483e-05
0.00100424
0.000328982
-0.000101369
0.000937244
5.48808e-05
-0.000422476
0.00087218
0.000183985
-0.000231069
0.0008099
0.000362794
-0.000285917
0.000863733
0.00035903
-0.000403138
0.000968555
8.15653e-05
-0.000338177
0.000930882
0.000204896
-0.000274979
0.000907193
0.0003301
0.000176109
0.00108871
-4.6699e-05
0.00028625
0.00105248
6.50791e-05
8.98388e-05
0.000950509
0.00025205
-0.000142769
0.00103517
7.46082e-05
-0.000273162
0.000994829
-0.000307339
-7.01106e-05
0.000922644
-0.000342311
0.000380493
0.000972014
-3.06157e-05
3.65086e-05
0.0010838
-5.75994e-05
-0.000290491
0.00107761
-0.0003197
-0.000350984
0.000890419
4.7381e-05
-0.000355048
0.000812534
-0.000110035
-1.54521e-05
0.000798154
-0.000258204
0.000115992
0.000856712
0.000426151
-6.40086e-05
0.00094799
0.000454752
-0.000114987
0.000902655
0.000302191
-0.000236051
0.000864985
-5.69935e-05
-0.000402532
0.00093743
-0.000562196
-0.000242227
0.00102757
-0.000297486
-0.000135229
0.00107607
-0.000367904
-0.000195365
0.00100324
-0.000285772
7.75802e-05
0.000900599
0.000307536
0.000211699
0.000913727
0.000420107
0.000157916
0.000932125
0.000129813
-2.0577e-05
0.000837029
7.83978e-05
-2.94914e-05
0.000859427
7.8124e-05
-0.000213063
0.000892584
9.50945e-05
-0.000276286
0.000899808
0.000272041
-0.000129114
0.00103163
7.02572e-05
-1.96627e-05
0.00112118
-0.000244919
-0.000109742
0.00107805
-0.00046835
2.77944e-05
0.00102327
-0.000364891
-7.86124e-05
6.19132e-05
-8.68697e-05
0.00101337
0.000362279
-9.11032e-05
0.00094266
0.000266529
-0.000445082
0.000891813
0.000174506
-0.000290226
0.000921738
0.000284807
-0.000298156
0.000923527
0.000186352
-0.000251542
0.000964727
-9.54804e-07
-0.000408693
0.000987094
0.000286672
-0.000426789
0.00104824
0.000270596
-1.14948e-05
0.00123889
-0.000214834
0.000330024
0.00122226
1.15467e-05
0.000340321
0.00110179
0.000273578
-0.000131176
0.00115783
0.000199274
-0.000279647
0.00108811
-6.53306e-05
-0.00010965
0.000976638
-0.000214051
0.000220271
0.00105555
8.74317e-05
7.73792e-05
0.00122852
-4.73008e-05
-3.61952e-05
0.00122136
-0.00020982
-4.93375e-05
0.00110257
0.000139625
-0.000244743
0.00107319
-0.000189441
-5.7927e-05
0.00105148
-0.000407876
9.9858e-05
0.00108756
0.000207414
-1.95037e-05
0.00110422
0.000322287
-7.64569e-05
0.00106535
0.00033027
-0.000244655
0.000995394
7.17092e-05
-0.000495541
0.000974305
-0.0003773
-0.000394492
0.00115066
-0.000301003
-0.000223789
0.00123612
-0.000446667
-0.000237315
0.00106146
-0.000241954
1.57474e-06
0.00103608
0.000264283
0.00017833
0.00107197
0.000446753
0.000183209
0.00104907
0.000299744
9.00253e-05
0.00103466
0.000195852
-4.36492e-06
0.000998159
0.000197155
-0.000158016
0.000977194
0.000114783
-0.000171994
0.00103539
0.000186056
-6.97406e-05
0.0011389
5.23143e-06
1.56594e-06
0.00120369
-0.000198571
-1.39394e-06
0.00125291
-0.000504263
0.000115749
0.00116639
-0.000402946
-5.25186e-05
8.89257e-05
-6.67579e-05
0.0011179
0.000252188
-7.98859e-05
0.00112607
0.000243319
-0.000336373
0.00102153
0.00027016
-0.000317747
0.00101401
0.000139856
-0.000274629
0.00100083
-7.0261e-05
-0.000371743
0.000989904
-4.30919e-05
-0.000409971
0.00103713
0.000294776
-0.000235602
0.00116874
0.000224417
-9.24176e-05
0.00133508
-0.000221027
0.00014754
0.00138302
-0.000129345
0.000239786
0.00129544
0.00019424
-7.95463e-05
0.00133084
0.000190403
-0.0001123
0.00138254
7.57666e-05
-0.000250033
0.00122066
0.00010622
-9.76936e-05
0.00107723
0.000275968
0.000222125
0.00115136
-1.26903e-05
0.00014998
0.00118772
-0.000232788
0.000145085
0.00124389
7.40096e-05
-6.92949e-05
0.00133726
-0.000374844
-3.10945e-05
0.00132956
-0.000589088
0.000202677
0.00135197
4.05755e-05
4.83346e-05
0.00132888
0.00028028
-0.000119017
0.00124625
0.000322353
-0.000197092
0.00118645
0.000175056
-0.000496403
0.00112952
-0.000112082
-0.000515037
0.00124751
-0.000288795
-0.000250994
0.00133137
-0.000440949
-0.000307334
0.00117423
-0.000125124
5.53587e-06
0.00108085
0.000318903
0.000356814
0.00104451
0.000494894
0.000176621
0.00107303
0.000351459
9.47966e-05
0.00114857
0.000147031
-4.70981e-05
0.00111984
0.000146612
-0.000154399
0.00111578
6.73445e-05
-0.000109672
0.00117475
0.00012244
-5.74428e-05
0.00128015
-7.25048e-05
-1.77622e-06
0.00140513
-0.000301556
4.01976e-06
0.00147354
-0.000493893
-1.66721e-05
0.00123639
-0.000347541
-5.57318e-05
8.87613e-05
-1.28787e-05
0.0012826
6.88078e-05
-5.09524e-05
0.00126265
0.000125275
-0.000279143
0.00116771
0.000327377
-0.000397761
0.00110607
-2.89728e-05
-0.000320611
0.00109999
-0.000208599
-0.000472015
0.00115832
8.55799e-05
-0.000605492
0.00123706
0.000345055
-0.00052018
0.00126848
8.87461e-05
-0.000342647
0.00130665
-0.000285252
-5.94559e-06
0.00141974
-0.000133521
0.000172244
0.00141458
0.000150172
6.7309e-05
0.00141165
0.000182471
-8.95955e-05
0.00150063
0.000122682
-0.000349607
0.00139282
0.000177268
-0.000168148
0.00133533
0.000333444
0.000201306
0.00148628
0.000114169
-3.49578e-05
0.00141344
-0.000181267
-0.000154512
0.00132656
-2.22564e-05
-0.000131692
0.00143466
-0.000493039
-0.000167391
0.00150525
-0.000730091
1.30857e-05
0.00155488
-9.31557e-05
6.64029e-05
0.00153464
0.000173919
-2.2574e-05
0.00147
0.000243863
-0.000102994
0.00142245
0.000194103
-0.000211119
0.00132522
0.00015673
-0.000395502
0.00135407
-0.000115099
-0.000350319
0.00134081
-0.0004375
-0.000264699
0.001139
5.37812e-05
-6.07155e-05
0.00104468
0.000417276
6.71522e-05
0.00106011
0.000424164
5.43206e-06
0.00118881
0.000127302
7.50531e-05
0.00144891
-0.000139953
-0.000163923
0.00151951
3.79246e-06
-0.000274425
0.0014698
7.64378e-06
-0.000113122
0.00143729
7.13877e-05
-3.51392e-05
0.00141506
0.000108128
-0.000188835
0.00143275
-0.000175108
-0.000220928
0.00148208
-0.000412753
-0.000187683
0.00135919
-0.000335672
-5.98067e-05
-5.95041e-05
5.46732e-05
0.00145528
-0.000118256
-7.35728e-05
0.00153352
-1.52305e-05
-0.000122404
0.00154807
0.000211852
-0.000175216
0.00145582
-6.07607e-05
-0.000398905
0.00132651
-0.000177298