/*--------------------------------*- C++ -*----------------------------------*\
  =========                 |
  \\      /  F ield         | OpenFOAM: The Open Source CFD Toolbox
   \\    /   O peration     | Website:  https://openfoam.org
    \\  /    A nd           | Version:  10
     \\/     M anipulation  |
\*---------------------------------------------------------------------------*/
FoamFile
{
    format      ascii;
    class       volVectorField;
    location    "15";
    object      U_0;
}
// * * * * * * * * * * * * * * * * * * * * * * * * * * * * * * * * * * * * * //

dimensions      [0 1 -1 0 0 0 0];

internalField   nonuniform List<vector> 
25600
(
(0.0733085 0.000268579 0.00789205)
(0.0689675 0.000407804 0.0070157)
(0.076919 0.000114263 0.0029438)
(0.0790506 -6.48945e-06 0.00926852)
(0.0763009 0.000189474 0.0169271)
(0.0713006 -6.56704e-05 0.0102632)
(0.0786895 -0.000411778 -0.00393694)
(0.0769751 -0.000262447 -0.00723046)
(0.0679019 6.4178e-05 -0.000168605)
(0.0596333 0.000203406 0.00479031)
(0.0666764 6.92226e-06 0.00706143)
(0.0743488 -0.000118943 0.00950549)
(0.0817876 -0.00018296 0.00713986)
(0.084125 -2.15892e-05 0.00436623)
(0.0905838 0.000436352 -0.000843816)
(0.0950623 0.000561593 -0.00694482)
(0.0965061 0.000313538 -0.0112518)
(0.0912254 -5.63876e-05 -0.0166075)
(0.0758057 -0.000201439 -0.0226461)
(0.0561499 -0.000460635 -0.0209166)
(0.0508553 -0.000666807 -0.0131658)
(0.052511 -0.000599842 -0.00969762)
(0.0531106 0.000169058 -0.00961205)
(0.0530309 0.000621171 -0.00419466)
(0.0616456 0.000339948 0.00822213)
(0.0783549 0.000300282 0.0111564)
(0.0923277 0.000155262 0.00923474)
(0.094588 0.000102623 0.0169467)
(0.0966373 -0.000104312 0.0253424)
(0.097197 -0.000495073 0.0205574)
(0.0978579 -0.000513051 0.005471)
(0.0929888 3.21526e-05 -0.0137809)
(0.0917861 0.000499687 -0.031615)
(0.0819481 0.000434395 -0.0303511)
(0.0794547 0.000119015 -0.0155955)
(0.0829984 -0.000259989 -0.00187116)
(0.0789427 -0.000319724 0.0043191)
(0.0687177 2.28135e-05 0.000843131)
(0.0722142 4.28478e-05 -0.000621087)
(0.0795293 -4.30266e-05 0.00331888)
(0.222477 0.00134914 0.0195947)
(0.21443 0.00175958 0.0205055)
(0.243624 6.4118e-05 0.00961169)
(0.24756 -0.00024326 0.0215545)
(0.243438 0.000379942 0.0407319)
(0.233728 -0.000837083 0.027055)
(0.250701 -0.00187965 -0.00367163)
(0.239877 -0.00115126 -0.0125557)
(0.211545 1.55347e-05 0.00149667)
(0.18493 0.000669562 0.0148881)
(0.198688 5.31844e-05 0.0201363)
(0.213738 -0.000703084 0.0213928)
(0.231006 -0.00135455 0.0164928)
(0.232069 -0.000408358 0.0145941)
(0.252256 0.00145284 0.007654)
(0.289365 0.00182385 -0.00724437)
(0.318291 0.000398422 -0.0214513)
(0.315615 -0.000614691 -0.0345371)
(0.277283 -0.00105055 -0.0453777)
(0.203555 -0.00261817 -0.0416251)
(0.160544 -0.00347085 -0.0309842)
(0.147033 -0.00131482 -0.0239533)
(0.144775 0.00227188 -0.0185201)
(0.150844 0.00361919 -0.00426909)
(0.173645 0.00183259 0.0204372)
(0.216574 0.00095982 0.0207582)
(0.265785 0.000545531 0.00883418)
(0.286877 5.75426e-05 0.0254325)
(0.312011 -0.00158295 0.0538382)
(0.313261 -0.00304866 0.0510625)
(0.295888 -0.00284133 0.0167547)
(0.268749 -0.00105408 -0.0252325)
(0.287366 0.000917053 -0.066724)
(0.275612 0.000795415 -0.0725447)
(0.266227 -6.85127e-05 -0.0449677)
(0.27105 -0.000870081 -0.0105786)
(0.248923 -0.000396864 0.00853224)
(0.210421 0.000927086 0.0050386)
(0.211828 0.000497979 0.00153278)
(0.232963 -5.2742e-05 0.00696808)
(0.377977 0.00175447 0.0180384)
(0.367749 0.00277631 0.0312173)
(0.422452 -0.000584598 0.0156679)
(0.435067 -0.000602487 0.017893)
(0.439581 0.000458639 0.0531798)
(0.418793 -0.0021931 0.0560568)
(0.434708 -0.00379596 0.0146529)
(0.43182 -0.0022472 -0.0132532)
(0.391088 0.000440419 -0.00639413)
(0.326118 0.00166825 0.0149648)
(0.323741 0.000221957 0.0297465)
(0.338444 -0.00163349 0.0312504)
(0.361586 -0.00366588 0.0204658)
(0.35397 -0.00208992 0.019349)
(0.365886 0.000652353 0.0241259)
(0.437363 0.00121376 0.0201519)
(0.526645 -0.00104051 0.00427112)
(0.565092 -0.00179374 -0.0232355)
(0.554791 -0.000527054 -0.0516786)
(0.432025 -0.00277322 -0.0510662)
(0.306206 -0.00662602 -0.0429277)
(0.238336 -0.00373123 -0.0396603)
(0.22862 0.00444631 -0.028431)
(0.239676 0.00788682 -0.010373)
(0.263591 0.00454104 0.0227002)
(0.307227 0.00206931 0.0256881)
(0.376694 0.000275569 -0.00667985)
(0.422479 -0.00148274 -0.0165998)
(0.511344 -0.00491498 0.0238523)
(0.529143 -0.00593377 0.0656125)
(0.507184 -0.00469175 0.0472778)
(0.449533 -0.00438655 0.00197837)
(0.491604 -0.00350473 -0.0529456)
(0.523712 -0.0011333 -0.0863421)
(0.501541 -0.00131605 -0.0784544)
(0.478456 -0.00203371 -0.040128)
(0.441108 0.000739219 -0.00106614)
(0.376572 0.00327965 0.00892397)
(0.350813 0.00183538 0.00693019)
(0.374567 -0.00012805 0.00293152)
(0.51149 0.00140865 0.00031972)
(0.500854 0.00141552 0.0243547)
(0.581828 -0.00329786 0.0199037)
(0.608101 -0.00246352 0.00252239)
(0.640534 0.000752499 0.0369545)
(0.620381 -0.00289535 0.0749959)
(0.607427 -0.00543391 0.0482852)
(0.619806 -0.00389658 0.00377875)
(0.602738 0.00125291 -0.013156)
(0.504187 0.00372177 0.000761095)
(0.461654 0.00101282 0.0267964)
(0.46036 -0.0017868 0.0378938)
(0.481469 -0.00585396 0.0221672)
(0.466815 -0.00471391 0.0147308)
(0.452023 -0.00232806 0.0243546)
(0.500401 -0.00434609 0.0393813)
(0.618682 -0.006366 0.0440184)
(0.699267 -0.0064714 0.0241616)
(0.798292 -0.000631109 -0.0341153)
(0.722082 0.00154243 -0.0512914)
(0.529298 -0.00501108 -0.0375106)
(0.366942 -0.00624407 -0.048718)
(0.307096 0.00476115 -0.0451035)
(0.317084 0.0111225 -0.0254484)
(0.341542 0.00789385 0.0118177)
(0.376955 0.0047172 0.0252476)
(0.448383 0.00113838 -0.0130339)
(0.470609 -0.00423225 -0.0558622)
(0.589664 -0.0116441 -0.0497843)
(0.647919 -0.0109131 0.0210533)
(0.667793 -0.00405028 0.0525331)
(0.626521 -0.00403986 0.0377479)
(0.633396 -0.010383 0.00318919)
(0.708292 -0.0101115 -0.0369014)
(0.773805 -0.00620622 -0.0598948)
(0.728825 -0.00388515 -0.0560308)
(0.632751 0.0016474 -0.0253661)
(0.556341 0.00582532 -0.00329683)
(0.507237 0.00489291 0.0146024)
(0.499614 0.00175483 0.00348209)
(0.627407 0.00394035 -0.01303)
(0.600695 -0.000624524 -0.00146028)
(0.692155 -0.00796202 0.00985392)
(0.722435 -0.00737628 -0.0114039)
(0.767458 -0.00112942 4.06027e-05)
(0.785336 -0.00267811 0.0541564)
(0.752173 -0.00472151 0.0625544)
(0.753379 -0.00472127 0.0286407)
(0.782404 0.00107768 -0.000904755)
(0.699692 0.00631651 -0.0106262)
(0.621352 0.00291769 0.0105622)
(0.590552 2.03623e-05 0.0341034)
(0.604873 -0.0049466 0.0219138)
(0.579276 -0.00517285 0.0137985)
(0.564381 -0.00412566 0.0208323)
(0.589027 -0.0127813 0.031803)
(0.675561 -0.0183688 0.0411857)
(0.703195 -0.0176331 0.0464594)
(0.87134 -0.00737565 -0.00325569)
(0.943651 0.00543883 -0.049847)
(0.770434 0.00216123 -0.0249493)
(0.553743 -0.00363422 -0.0322247)
(0.433972 0.00569604 -0.0583197)
(0.411155 0.0127876 -0.0530813)
(0.423883 0.00929501 -0.0168256)
(0.452001 0.00676349 0.0154397)
(0.537807 0.00415341 -0.0107257)
(0.555192 -0.00491982 -0.0614957)
(0.641399 -0.0175636 -0.0856676)
(0.672172 -0.0171341 -0.0310437)
(0.713675 -0.00389989 0.020393)
(0.758038 0.00134486 0.0363077)
(0.769322 -0.00848546 0.0226632)
(0.757175 -0.019409 -0.00432307)
(0.859007 -0.0196948 -0.0185766)
(0.953322 -0.010063 -0.0243873)
(0.84132 0.00335003 -0.0213477)
(0.715217 0.00758703 -0.0269156)
(0.66063 0.00657115 0.00276154)
(0.622674 0.00630666 0.0133968)
(0.735878 0.00848911 -0.0154738)
(0.69065 0.000229711 -0.0252373)
(0.770924 -0.0107101 -0.0105226)
(0.811785 -0.0117206 -0.0220822)
(0.827356 -0.00422111 -0.0252028)
(0.844794 -0.00324876 0.0178696)
(0.824572 -0.00241005 0.0428318)
(0.824573 -0.00232131 0.0274697)
(0.879372 0.00144438 0.0125208)
(0.84227 0.00778947 -0.00772685)
(0.769398 0.00457728 -0.00250342)
(0.712636 0.00297413 0.0246449)
(0.727272 5.84023e-05 0.0100078)
(0.680106 -0.00132613 0.00851536)
(0.659364 -0.00184201 0.0299609)
(0.72657 -0.0156207 0.0386419)
(0.805449 -0.027503 0.028778)
(0.736703 -0.0307206 0.0288138)
(0.822112 -0.0238235 0.0142534)
(1.05794 0.00130198 -0.0443528)
(0.993953 0.0107349 -0.0271575)
(0.726148 0.00443143 -0.00389617)
(0.570254 0.0087609 -0.0390345)
(0.542631 0.0156894 -0.0629115)
(0.548493 0.0114826 -0.0550267)
(0.542705 0.00504473 -0.0159491)
(0.624645 0.00445016 -0.0100721)
(0.673363 -0.00234257 -0.0406424)
(0.748026 -0.0177215 -0.0750064)
(0.735966 -0.019193 -0.0555811)
(0.719293 -0.00392419 -0.011262)
(0.791925 0.00433602 0.0249575)
(0.895128 -0.00271182 0.0262364)
(0.869715 -0.0176533 -0.00890474)
(0.8237 -0.031578 -0.0285796)
(0.973296 -0.0237913 -0.0206425)
(0.982634 0.00242006 0.00357535)
(0.858554 0.0105796 -0.0272194)
(0.796686 0.00589903 -0.024698)
(0.731771 0.00846262 0.0116873)
(0.847468 0.010295 -0.0169152)
(0.800075 0.00115029 -0.0367142)
(0.83266 -0.0108439 -0.0236164)
(0.881628 -0.0134368 -0.0266621)
(0.890542 -0.00626124 -0.0357755)
(0.886603 -0.00300259 -0.00825233)
(0.856326 0.00026738 0.0196321)
(0.84409 5.59722e-05 0.00873736)
(0.91204 0.00339046 0.00653371)
(0.909556 0.00927119 -0.00523086)
(0.869313 0.00423072 -0.0111551)
(0.806795 0.0031074 0.0259091)
(0.827424 0.00602148 0.00311097)
(0.785087 0.00743568 -0.0174413)
(0.708056 0.00275227 0.0182965)
(0.779739 -0.0153256 0.0521784)
(0.918816 -0.0275574 0.0470865)
(0.834515 -0.0348702 0.0146287)
(0.769814 -0.0436277 0.00767526)
(1.02903 -0.0200725 -0.0456024)
(1.1829 0.00832772 -0.0359408)
(0.947689 0.0131285 0.011499)
(0.7054 0.0155824 -0.00842599)
(0.614391 0.0190219 -0.0321732)
(0.643028 0.0150232 -0.048649)
(0.643275 0.00419115 -0.0372824)
(0.683321 -0.00088448 -0.0187095)
(0.731689 -0.00257922 -0.0169001)
(0.806039 -0.0154714 -0.0377411)
(0.822581 -0.0180197 -0.0470683)
(0.770737 -0.000969619 -0.02676)
(0.798663 0.00568263 0.00784277)
(0.907425 -0.00239523 0.0353685)
(0.971483 -0.012261 0.0124988)
(0.862609 -0.0326819 -0.0237718)
(0.907597 -0.0371791 -0.0400301)
(1.00579 -0.00493554 0.00886333)
(0.939901 0.0114388 -0.0055744)
(0.908237 0.0065231 -0.0389113)
(0.832293 0.0090543 -0.00404443)
(0.956404 0.00802291 -0.019264)
(0.943485 -0.0019915 -0.0434138)
(0.907669 -0.0116758 -0.0288268)
(0.923615 -0.0136785 -0.0199086)
(0.945728 -0.00773326 -0.0287863)
(0.9473 -0.00414132 -0.0198421)
(0.908406 0.00163091 0.00457264)
(0.861501 0.00153413 -0.00557689)
(0.917777 0.00417253 -0.00964244)
(0.936502 0.00918913 -0.00757382)
(0.926202 0.00339698 -0.0219048)
(0.877915 0.00100744 0.0251383)
(0.882826 0.0068091 0.0228658)
(0.877884 0.0160993 -0.0240379)
(0.795011 0.0125933 -0.0186046)
(0.80263 -0.0115721 0.0172677)
(0.934038 -0.0253513 0.0470555)
(0.920236 -0.0292829 0.0204423)
(0.813173 -0.0517942 0.014475)
(0.942354 -0.0469814 -0.0472331)
(1.20629 -0.0087392 -0.0724839)
(1.10971 0.013315 0.00251967)
(0.847856 0.0224892 0.0131383)
(0.676435 0.0235001 0.00328214)
(0.674033 0.0177301 -0.0176999)
(0.694476 0.00693059 -0.0241849)
(0.715366 -0.0039934 -0.0143864)
(0.757548 -0.00427373 -0.00362591)
(0.801796 -0.0125558 -0.00424012)
(0.839749 -0.0173748 -0.0210576)
(0.810835 0.00132792 -0.0249538)
(0.826312 0.0100198 -0.00873604)
(0.891422 -0.00163062 0.0299342)
(0.984423 -0.00933079 0.0298127)
(0.94033 -0.0281596 0.00340927)
(0.870355 -0.0434309 -0.0380424)
(0.969078 -0.0139987 -0.00596626)
(0.957415 0.00737888 0.0142573)
(0.963867 0.00542996 -0.0264822)
(0.908784 0.00976441 -0.0146717)
(0.99859 0.00188226 -0.00504166)
(1.07239 -0.00956058 -0.0352206)
(1.01902 -0.0130549 -0.0395063)
(0.955949 -0.0136021 -0.0188018)
(0.966902 -0.00981886 -0.0116846)
(0.995049 -0.00709043 -0.0104428)
(0.980326 -0.0003279 0.00313391)
(0.902363 0.00161435 -0.0114885)
(0.920786 0.00538322 -0.0284206)
(0.952193 0.00716093 -0.0125903)
(0.95171 -0.000966452 -0.025845)
(0.939577 -0.0016639 0.00985958)
(0.92705 0.00714705 0.0405562)
(0.931216 0.0182719 0.00305222)
(0.876568 0.0175496 -0.0274478)
(0.848197 -0.00601688 -0.0225026)
(0.940903 -0.0211588 0.0235148)
(0.965032 -0.0222591 0.017361)
(0.894271 -0.0496726 0.0190395)
(0.913367 -0.0628349 -0.0124485)
(1.15564 -0.0243074 -0.0854382)
(1.14009 0.0128523 -0.0391371)
(0.901049 0.0300301 0.0111792)
(0.719136 0.0283528 0.0312741)
(0.683205 0.0169582 0.0184294)
(0.716829 0.00706928 0.000302476)
(0.7339 -0.00580559 -0.00100644)
(0.7774 -0.00582571 0.00715333)
(0.810774 -0.00931515 0.0192159)
(0.843124 -0.0164434 0.00220697)
(0.828073 0.000249056 -0.0149667)
(0.846718 0.0138143 -0.0184256)
(0.896119 0.00328716 0.010005)
(0.961758 -0.00693468 0.0218325)
(0.993048 -0.0232412 0.0169044)
(0.888032 -0.0409606 -0.0177037)
(0.926102 -0.0195769 -0.0245795)
(0.950242 0.000510734 0.0111307)
(0.972231 0.000975508 -0.00556267)
(0.929831 0.00800954 -0.0101947)
(0.962283 -0.00614956 0.00849388)
(1.06835 -0.0211551 -0.00316084)
(1.08809 -0.0158668 -0.035993)
(1.00518 -0.0105449 -0.0305174)
(0.972641 -0.0119918 -0.00977642)
(0.999157 -0.0128621 0.00265533)
(1.03432 -0.00433596 0.0143172)
(0.963089 0.00186132 -0.00472548)
(0.927395 0.00742908 -0.0401626)
(0.965768 0.00717392 -0.0250818)
(0.966326 -0.00472876 -0.0253431)
(0.97937 -0.00727538 -0.00817918)
(0.964393 0.00787476 0.0364879)
(0.974489 0.0216434 0.028716)
(0.953708 0.0181454 -0.00952514)
(0.87821 -0.00444954 -0.0312589)
(0.923262 -0.0190571 0.0187967)
(0.973766 -0.0170651 0.0331667)
(0.956622 -0.0444702 0.0102166)
(0.910183 -0.0701921 0.00638145)
(1.10307 -0.0344268 -0.0624009)
(1.13483 0.0175987 -0.065006)
(0.921677 0.0387586 -0.0133801)
(0.784701 0.0292874 0.0293789)
(0.749972 0.0127803 0.0427845)
(0.776552 0.00269255 0.0255674)
(0.782938 -0.00952761 0.00880154)
(0.815607 -0.00958131 0.008034)
(0.84152 -0.00904265 0.0302869)
(0.856298 -0.0152815 0.0211897)
(0.842745 -0.000722798 -0.000706905)
(0.857043 0.014879 -0.0163017)
(0.90737 0.00907449 -0.0126256)
(0.940265 -0.00278763 -0.00370727)
(0.993434 -0.0213219 0.00680175)
(0.915345 -0.0365624 -0.00278795)
(0.90139 -0.0204699 -0.0274042)
(0.940747 -0.00336114 -0.00478328)
(0.972 -0.000530697 -0.0030182)
(0.92986 0.00600156 -0.0114481)
(0.946814 -0.00892829 0.00109888)
(1.01101 -0.0307994 0.0164152)
(1.06996 -0.0212387 -0.0174653)
(1.0374 -0.00593265 -0.0370085)
(0.995937 -0.00973479 -0.0234943)
(0.992076 -0.0188233 0.00107322)
(1.04689 -0.0111705 0.0200192)
(1.01535 0.00337496 0.003541)
(0.947373 0.0109792 -0.0363944)
(0.977063 0.00697406 -0.0340369)
(0.984643 -0.00564032 -0.032023)
(1.00158 -0.0107917 -0.0270379)
(0.994762 0.0064238 0.0183368)
(1.00648 0.0222442 0.0326586)
(1.01881 0.0215486 0.00471876)
(0.926332 0.00256169 -0.0241114)
(0.900953 -0.0158106 0.0145362)
(0.948028 -0.0149682 0.055009)
(1.006 -0.0379802 0.0196747)
(0.945312 -0.0692058 0.000666726)
(1.04351 -0.0432666 -0.038249)
(1.1207 0.0219327 -0.0638056)
(0.974902 0.0498101 -0.0432232)
(0.884446 0.029377 -0.0156686)
(0.860518 0.00933042 0.0150377)
(0.886303 0.00123139 0.0229063)
(0.874029 -0.0102784 0.00955398)
(0.874738 -0.0125891 -0.00381683)
(0.887476 -0.0108799 0.0212036)
(0.879963 -0.0148496 0.0289681)
(0.861049 -0.000238675 0.0106222)
(0.870536 0.0149039 -0.00968255)
(0.912508 0.0120925 -0.0274984)
(0.932118 0.00270736 -0.0254623)
(0.97934 -0.0180101 -0.00854679)
(0.93347 -0.0315809 -0.00442864)
(0.899418 -0.0185286 -0.0208631)
(0.932458 -0.00478284 -0.0115891)
(0.975317 0.00320828 -0.00776437)
(0.946794 0.0106474 -0.0182446)
(0.975887 -0.00396176 -0.00903647)
(0.9944 -0.0325651 0.0119795)
(1.03413 -0.0254701 -0.0044099)
(1.04495 -0.00254472 -0.0319914)
(1.03171 -0.00397654 -0.0338917)
(1.00717 -0.0205079 -0.00877463)
(1.03804 -0.0189491 0.01658)
(1.03643 0.00421802 0.0033525)
(0.978 0.0163449 -0.0272531)
(0.997485 0.00528454 -0.0283543)
(1.00351 -0.00920227 -0.0326356)
(1.01608 -0.0159853 -0.0419852)
(1.01962 0.00242465 -0.0068046)
(1.03038 0.0199871 0.0178078)
(1.05574 0.0222154 0.00740172)
(0.982216 0.0111042 -0.0146781)
(0.921832 -0.00991499 0.00218479)
(0.931241 -0.0149043 0.050193)
(1.02571 -0.0359345 0.0280499)
(1.00342 -0.0623809 -0.00740261)
(1.00475 -0.0444977 -0.0276822)
(1.07946 0.0218715 -0.0462727)
(1.03472 0.0564964 -0.0492739)
(1.00749 0.0274392 -0.049844)
(0.975989 0.00297878 -0.0288187)
(0.982123 9.2582e-05 -0.00260069)
(0.963746 -0.00736287 0.00671795)
(0.937225 -0.011775 -0.00882957)
(0.931785 -0.0117853 0.00787389)
(0.907459 -0.0148941 0.0297812)
(0.876435 -0.000148251 0.0180521)
(0.882134 0.0157295 -0.00546871)
(0.914935 0.014121 -0.0354879)
(0.931793 0.00762206 -0.0380285)
(0.972743 -0.0139581 -0.0183805)
(0.946988 -0.0253313 -0.0136757)
(0.915466 -0.0134908 -0.0179559)
(0.933292 -0.00621995 -0.0142166)
(0.972837 0.00550894 -0.0118264)
(0.972077 0.0178791 -0.0168589)
(1.00961 0.00259483 -0.00953549)
(1.01273 -0.0270038 0.00240224)
(1.01734 -0.0252491 -0.0037745)
(1.03756 -0.00116241 -0.0250168)
(1.05646 0.000116324 -0.0341131)
(1.03305 -0.0192946 -0.0160756)
(1.02645 -0.0236038 0.0137574)
(1.03033 0.0044961 0.00216266)
(1.01017 0.0207533 -0.0264665)
(1.028 0.00351304 -0.0227154)
(1.01304 -0.0132042 -0.01835)
(1.01489 -0.023861 -0.032939)
(1.02889 -0.0064319 -0.018505)
(1.04353 0.0131155 0.00173762)
(1.0745 0.0200811 0.00495228)
(1.03231 0.0181239 -0.00875379)
(0.971309 -0.0042346 -0.00818222)
(0.942308 -0.0166021 0.0297867)
(1.02395 -0.0364535 0.0276628)
(1.04445 -0.0529614 -0.00688893)
(0.999669 -0.0401894 -0.0256326)
(1.03301 0.0154173 -0.0307272)
(1.05085 0.0528738 -0.0357641)
(1.0638 0.0234365 -0.044942)
(1.03315 -0.00339094 -0.0424004)
(1.02906 -0.00340225 -0.0245691)
(1.02973 -0.00606421 -5.22873e-06)
(1.00577 -0.00910302 -0.00477437)
(0.988223 -0.00948295 0.000740925)
(0.951764 -0.0144395 0.0276457)
(0.899408 -0.00150918 0.0220875)
(0.894614 0.0169766 -0.00457248)
(0.917835 0.0173222 -0.0377608)
(0.939278 0.0109971 -0.042137)
(0.978008 -0.0121599 -0.0202322)
(0.958361 -0.020697 -0.0183981)
(0.937288 -0.00731313 -0.0190681)
(0.949358 -0.0063056 -0.0168461)
(0.972405 0.00423081 -0.017316)
(0.985767 0.0209515 -0.0127581)
(1.02659 0.00470737 -0.00556966)
(1.02993 -0.0215177 -0.00287782)
(1.02023 -0.0215068 -0.00988621)
(1.03164 0.000184505 -0.0247075)
(1.05809 0.000985036 -0.0304076)
(1.04225 -0.0181237 -0.0183511)
(1.01928 -0.0240256 0.0104653)
(1.02144 0.00411514 0.00313099)
(1.03201 0.0206547 -0.0261424)
(1.0513 0.00173101 -0.0224133)
(1.01858 -0.0134107 -0.0090928)
(1.00621 -0.0267325 -0.0145472)
(1.0252 -0.0139603 -0.0120252)
(1.04539 0.00404243 -0.00449712)
(1.07213 0.0141475 0.00359482)
(1.05818 0.0210082 -0.00519963)
(1.02059 0.000894375 -0.0111807)
(0.972593 -0.0168843 0.0151593)
(1.01234 -0.0383027 0.025581)
(1.0542 -0.0438343 0.00114185)
(1.02625 -0.0329453 -0.0241549)
(1.0222 0.00508223 -0.0255426)
(1.0369 0.0423155 -0.0226574)
(1.04513 0.0202714 -0.0230947)
(1.01491 -0.00713931 -0.0260838)
(1.01695 -0.0107754 -0.0293651)
(1.05107 -0.0123627 -0.0128557)
(1.05897 -0.00991326 -0.00655014)
(1.05497 -0.00543397 -0.00403665)
(1.0222 -0.0112466 0.0215428)
(0.949124 -0.00156461 0.02353)
(0.922316 0.0179476 -0.000238922)
(0.932689 0.0208854 -0.0322733)
(0.953985 0.0130488 -0.0403544)
(0.985514 -0.0124777 -0.0175071)
(0.966774 -0.0182688 -0.0143093)
(0.955212 -0.00230366 -0.0180537)
(0.969664 -0.00572207 -0.0168288)
(0.981067 0.000322283 -0.0161414)
(0.996087 0.0186468 -0.00693398)
(1.03319 0.0031706 -0.000654145)
(1.03481 -0.0191303 -0.00284323)
(1.02581 -0.0183108 -0.0142314)
(1.03182 0.00101833 -0.0280535)
(1.05231 0.000697105 -0.0258764)
(1.0395 -0.0173474 -0.0135666)
(1.01694 -0.0231263 0.00656343)
(1.02137 0.00375176 0.000283064)
(1.04233 0.0186196 -0.0228741)
(1.05779 -0.000760634 -0.0172566)
(1.02377 -0.0138495 -0.00588199)
(1.00595 -0.0253228 -0.006075)
(1.02197 -0.0157974 -0.00208013)
(1.04525 -0.00175547 -0.00284372)
(1.06137 0.00852611 0.004126)
(1.05372 0.0191707 -0.00211779)
(1.03903 0.00216423 -0.00884288)
(1.00647 -0.0149574 0.00807418)
(1.01145 -0.0375074 0.0215002)
(1.04151 -0.0380163 0.00901923)
(1.05021 -0.0273095 -0.0170676)
(1.0396 -0.000179105 -0.0240008)
(1.02612 0.0356559 -0.0206837)
(1.01821 0.0204362 -0.0108236)
(0.989126 -0.00733208 -0.0039625)
(0.991622 -0.0203418 -0.0118642)
(1.03838 -0.0256111 -0.0108464)
(1.07329 -0.0171116 -0.00771274)
(1.09439 -0.00411974 -0.00595141)
(1.08158 -0.00462892 0.0152042)
(1.01422 0.00358684 0.021898)
(0.970752 0.0190374 0.0053202)
(0.960582 0.0216934 -0.0205953)
(0.972016 0.0142263 -0.0324107)
(0.991636 -0.0115465 -0.0130311)
(0.973586 -0.0174855 -0.00655785)
(0.969046 -0.00143238 -0.012058)
(0.986173 -0.00584648 -0.0137369)
(0.992951 -0.00169668 -0.0108255)
(1.00788 0.0150877 -0.000371612)
(1.03769 0.00131336 0.00148381)
(1.03352 -0.019155 -0.00118563)
(1.02581 -0.0172832 -0.0145605)
(1.03223 0.00106278 -0.0296043)
(1.04906 0.000188077 -0.022123)
(1.03783 -0.0159282 -0.00704869)
(1.01758 -0.0215383 0.0040419)
(1.02162 0.00290136 -0.00354237)
(1.04335 0.0167528 -0.0193401)
(1.05698 -0.00246222 -0.00939453)
(1.02766 -0.0158322 -0.000756801)
(1.00858 -0.024827 -0.00260305)
(1.02152 -0.0138934 0.00327251)
(1.04542 -0.00164586 0.000847877)
(1.05367 0.00636982 0.0058641)
(1.04146 0.0157524 0.00132664)
(1.03352 -0.000479189 -0.00313792)
(1.02455 -0.0141461 0.00724786)
(1.02398 -0.0330449 0.0163685)
(1.03443 -0.0320825 0.0114514)
(1.04733 -0.024037 -0.00700509)
(1.04001 -0.00275021 -0.018169)
(1.0275 0.031595 -0.0225366)
(1.0254 0.0211617 -0.0130638)
(1.00751 -0.00452727 0.000493945)
(1.00432 -0.0257314 0.00155388)
(1.03147 -0.0369304 0.000305275)
(1.06751 -0.0255076 -0.00100664)
(1.10035 -0.00655554 -0.000556874)
(1.09766 -0.000930015 0.0141387)
(1.05211 0.00945721 0.020029)
(1.01555 0.021666 0.00861167)
(0.989429 0.0223737 -0.0100502)
(0.985204 0.0161053 -0.0211354)
(0.997586 -0.00781694 -0.00615248)
(0.983803 -0.0157916 0.00187745)
(0.982186 -0.0032432 -0.00334203)
(0.999263 -0.00808008 -0.00755934)
(1.00512 -0.00203944 -0.00609083)
(1.02087 0.0136529 0.00195058)
(1.04199 -0.000149046 0.000230853)
(1.03435 -0.0188452 -0.000877101)
(1.02418 -0.0172689 -0.0114137)
(1.03022 2.02562e-05 -0.0256292)
(1.04724 -3.97839e-05 -0.0175981)
(1.03958 -0.0133724 -0.00239496)
(1.02064 -0.0188134 0.00323329)
(1.01939 0.000891462 -0.00441596)
(1.03843 0.0140952 -0.0147485)
(1.05561 -0.00266421 -0.00410731)
(1.03382 -0.0158649 0.00271113)
(1.01368 -0.0233784 -0.000810958)
(1.02164 -0.0113101 0.00400671)
(1.04251 0.00161993 0.0012607)
(1.05102 0.00778529 0.0048802)
(1.03901 0.01284 0.00303741)
(1.0306 -0.00462737 0.00119143)
(1.03044 -0.0158008 0.00817456)
(1.03343 -0.0287291 0.012636)
(1.03672 -0.0247227 0.00979901)
(1.03583 -0.0197272 4.31227e-05)
(1.02367 -0.0067911 -0.0103645)
(1.02387 0.0227734 -0.0195518)
(1.03572 0.017716 -0.0137078)
(1.03634 -0.00205617 -0.00269075)
(1.03628 -0.0248024 0.00220038)
(1.04053 -0.0401822 0.00363213)
(1.05669 -0.0294767 0.00177762)
(1.07716 -0.00774363 0.00293564)
(1.0678 0.0025789 0.0136207)
(1.03639 0.0154687 0.0174196)
(1.01553 0.0255252 0.00895309)
(0.993523 0.0235439 -0.00355666)
(0.987012 0.0174541 -0.0104399)
(1.00094 -0.00394665 0.000918736)
(0.996057 -0.0129478 0.00719041)
(0.998419 -0.00400226 0.00253637)
(1.01378 -0.00969946 -0.00170414)
(1.01657 -0.00327144 -0.00296155)
(1.02952 0.0114999 0.000799791)
(1.04284 -0.00251204 7.32193e-05)
(1.03636 -0.0170248 -0.00150481)
(1.02513 -0.0159249 -0.00791505)
(1.02719 -0.000549939 -0.0179198)
(1.04311 -0.000247702 -0.0113029)
(1.04064 -0.0112359 0.000306757)
(1.02495 -0.0160532 0.00290285)
(1.01839 -0.00125859 -0.00326687)
(1.03146 0.01067 -0.0095275)
(1.05022 -0.00258432 -0.000787049)
(1.03804 -0.0143127 0.00353175)
(1.02103 -0.0196889 -0.00111044)
(1.02165 -0.00800838 0.00246691)
(1.03495 0.0044257 0.000480273)
(1.0474 0.00879195 0.00248759)
(1.04479 0.00895673 0.00360947)
(1.03818 -0.00811069 0.00351457)
(1.03302 -0.0166973 0.00809735)
(1.03443 -0.02481 0.0093716)
(1.03569 -0.0181954 0.00709267)
(1.03201 -0.0143233 0.00354717)
(1.02085 -0.00949348 -0.00421)
(1.02015 0.0122192 -0.0134659)
(1.03498 0.0109805 -0.00963228)
(1.04801 -0.00310302 -0.00158953)
(1.05466 -0.0222284 0.00300341)
(1.04722 -0.0360883 0.00563745)
(1.03731 -0.025655 0.00302394)
(1.03348 -0.0040123 0.00284885)
(1.01841 0.00779849 0.0113375)
(0.999217 0.0198327 0.0156456)
(0.996108 0.0256837 0.0109696)
(0.990928 0.0207231 0.00127582)
(0.992774 0.0147638 -0.00279407)
(1.0097 -0.00254661 0.00646474)
(1.01058 -0.0112202 0.00955457)
(1.01506 -0.00400118 0.0041639)
(1.02687 -0.00880448 0.000707541)
(1.02549 -0.00394013 -0.001153)
(1.03325 0.00706019 0.00117025)
(1.04095 -0.00421352 0.00159647)
(1.03691 -0.0136066 -0.00141361)
(1.02786 -0.0128844 -0.00445721)
(1.02607 -0.000350542 -0.0105701)
(1.03906 -0.000633225 -0.00635231)
(1.03995 -0.00986611 0.00127073)
(1.02909 -0.0133741 0.00251864)
(1.02172 -0.00250892 -0.00193136)
(1.02863 0.00754571 -0.00544503)
(1.04368 -0.00229821 0.000225377)
(1.03822 -0.0118631 0.00198623)
(1.02611 -0.0140246 -0.00332039)
(1.02352 -0.00390761 0.000726844)
(1.03033 0.00530672 0.00105902)
(1.04225 0.00724061 0.00127423)
(1.04763 0.00384293 0.00400862)
(1.04406 -0.00992112 0.00477484)
(1.03514 -0.0149731 0.00757835)
(1.03301 -0.0204455 0.00650446)
(1.03126 -0.0138624 0.00464066)
(1.03091 -0.00996788 0.004891)
(1.02883 -0.00815338 -0.00020941)
(1.02598 0.00691565 -0.00776867)
(1.03485 0.00606015 -0.00575875)
(1.04636 -0.00468912 0.000133581)
(1.05306 -0.018863 0.00383845)
(1.04512 -0.0279727 0.00689369)
(1.02575 -0.0173295 0.00316503)
(1.01282 0.000420452 0.000454831)
(1.00156 0.00932534 0.00622445)
(0.992638 0.0178473 0.0115142)
(1.00142 0.0200911 0.0118859)
(1.00753 0.0141549 0.00476881)
(1.01187 0.00954166 0.0012908)
(1.02468 -0.00236463 0.00776181)
(1.02464 -0.00946561 0.00895872)
(1.02724 -0.00282279 0.0043855)
(1.03422 -0.00628296 0.00141198)
(1.03051 -0.00390278 -0.000403938)
(1.03525 0.00290251 0.00284905)
(1.03875 -0.00447117 0.00229966)
(1.03656 -0.00986088 -0.0012989)
(1.0308 -0.00971459 -0.00256955)
(1.02769 0.000128415 -0.00646151)
(1.03795 -0.000414722 -0.00426172)
(1.03957 -0.00840279 0.000577846)
(1.03171 -0.0105486 0.00145836)
(1.02573 -0.0029658 -0.00137711)
(1.02926 0.00540171 -0.00347271)
(1.04014 -0.000648562 -0.00011189)
(1.03708 -0.00845358 0.000652627)
(1.02825 -0.0090406 -0.00438205)
(1.02627 -0.00134104 3.87135e-05)
(1.03033 0.00500686 0.00203402)
(1.03907 0.00581062 0.00097508)
(1.04524 0.000978881 0.00369927)
(1.04333 -0.00922993 0.00423952)
(1.03585 -0.0114552 0.00638666)
(1.03367 -0.0151139 0.00498876)
(1.03042 -0.0100266 0.00303627)
(1.02855 -0.00655706 0.00382114)
(1.03038 -0.00573646 0.000200532)
(1.03069 0.00522542 -0.00545073)
(1.0371 0.00426697 -0.00410269)
(1.04335 -0.00381396 0.000149825)
(1.04506 -0.0147585 0.0022676)
(1.0379 -0.0199338 0.00486596)
(1.02332 -0.00962045 0.00132425)
(1.0172 0.00273413 -0.00161022)
(1.01359 0.00820802 0.00197093)
(1.00982 0.0143122 0.00599859)
(1.02049 0.0154997 0.00875621)
(1.02759 0.00962439 0.00494843)
(1.02913 0.00641743 0.0027478)
(1.03596 -0.00055411 0.00652877)
(1.03329 -0.00673935 0.00709829)
(1.03342 -0.00137001 0.00460234)
(1.03719 -0.00395584 0.00249387)
(1.03321 -0.00346281 0.000190807)
(1.03624 0.000886516 0.00321205)
(1.03762 -0.00403033 0.00234151)
(1.03615 -0.0068554 -0.00130071)
(1.03277 -0.00759691 -0.00144285)
(1.02984 -0.000108445 -0.00403629)
(1.03759 -8.9605e-05 -0.00297985)
(1.03914 -0.00722224 -3.12979e-05)
(1.03326 -0.00790279 0.000421407)
(1.02835 -0.00270096 -0.00106139)
(1.02998 0.00356479 -0.00235671)
(1.03834 0.000448874 -0.000203067)
(1.03647 -0.00584094 0.00027062)
(1.0298 -0.0057401 -0.00397554)
(1.02867 0.000166603 8.90191e-05)
(1.0314 0.00467361 0.00249747)
(1.03776 0.0053191 0.000958076)
(1.04281 0.000444078 0.00304183)
(1.04176 -0.00723902 0.00288473)
(1.03573 -0.00820334 0.00479469)
(1.03419 -0.0110067 0.00428795)
(1.03175 -0.00730755 0.0023458)
(1.0286 -0.00378694 0.0023279)
(1.03062 -0.00347733 -0.000730829)
(1.03259 0.00424656 -0.0047113)
(1.03803 0.00324233 -0.00350986)
(1.04197 -0.00204773 -0.000324915)
(1.04073 -0.0104528 0.000605089)
(1.03438 -0.0139498 0.00264695)
(1.02504 -0.00569823 8.52931e-07)
(1.0249 0.00228182 -0.00205646)
(1.02573 0.00608983 0.000313203)
(1.02337 0.0111592 0.00272984)
(1.03177 0.0124788 0.00566584)
(1.03654 0.00740725 0.00390008)
(1.03605 0.00498418 0.00311146)
(1.03982 0.00114465 0.00518753)
(1.03653 -0.00439956 0.00532594)
(1.0358 -0.000439433 0.00412632)
(1.03777 -0.00250998 0.00290417)
(1.03454 -0.00318044 0.000873748)
(1.0369 0.000153498 0.00316292)
(1.03695 -0.00386594 0.00215455)
(1.03591 -0.00473109 -0.00126253)
(1.03392 -0.00590073 -0.000848588)
(1.03137 -0.000717408 -0.00257929)
(1.03693 0.000281271 -0.00199893)
(1.03842 -0.00608479 -0.00017277)
(1.03425 -0.00598151 -6.50826e-05)
(1.03017 -0.0023421 -0.000678984)
(1.03071 0.00192395 -0.00164315)
(1.03729 0.00094227 -0.000314955)
(1.03596 -0.0040055 0.000136933)
(1.03104 -0.00367831 -0.00338824)
(1.03048 0.000894339 7.90949e-05)
(1.03243 0.00384239 0.00228967)
(1.0373 0.00464013 0.000870253)
(1.04105 0.000488142 0.00277334)
(1.04064 -0.0054299 0.00205837)
(1.0356 -0.00575198 0.00358857)
(1.03453 -0.00774477 0.00356139)
(1.03309 -0.00531233 0.00190103)
(1.02942 -0.00198832 0.00145626)
(1.03162 -0.00182505 -0.00101807)
(1.03375 0.00350155 -0.00380679)
(1.03772 0.00245164 -0.0030555)
(1.04047 -0.00112804 -0.000615104)
(1.03866 -0.00744368 -0.00029862)
(1.03427 -0.010067 0.00144736)
(1.02753 -0.00361488 -0.000385279)
(1.02861 0.00171897 -0.00164503)
(1.03043 0.00453823 7.5986e-05)
(1.02822 0.00854736 0.00124094)
(1.03481 0.0100092 0.00371425)
(1.0382 0.00615055 0.00253755)
(1.03728 0.00417538 0.00258065)
(1.03981 0.00204463 0.00393468)
(1.03708 -0.00289703 0.00381513)
(1.03668 -0.000184488 0.00324679)
(1.03761 -0.00160733 0.00272078)
(1.03517 -0.00278524 0.00106919)
(1.03712 -0.000221845 0.00280792)
(1.03647 -0.00360447 0.00200663)
(1.03576 -0.00319933 -0.00115116)
(1.03456 -0.0044091 -0.000525184)
(1.0326 -0.00134215 -0.00157498)
(1.03623 0.000540403 -0.00132966)
(1.03751 -0.00502928 -0.000196626)
(1.03509 -0.00477069 -0.000381694)
(1.03154 -0.00184596 -0.000468772)
(1.03142 0.000706639 -0.0012907)
(1.03665 0.00100132 -0.000443005)
(1.03546 -0.00257291 0.000139243)
(1.03203 -0.00234232 -0.00284712)
(1.03188 0.00123399 6.23727e-05)
(1.03326 0.00316855 0.00189511)
(1.03695 0.00387605 0.000593482)