/*--------------------------------*- C++ -*----------------------------------*\
  =========                 |
  \\      /  F ield         | OpenFOAM: The Open Source CFD Toolbox
   \\    /   O peration     | Website:  https://openfoam.org
    \\  /    A nd           | Version:  10
     \\/     M anipulation  |
\*---------------------------------------------------------------------------*/
FoamFile
{
    format      ascii;
    class       volSymmTensorField;
    location    "15";
    object      UPrime2Mean;
}
// * * * * * * * * * * * * * * * * * * * * * * * * * * * * * * * * * * * * * //

dimensions      [0 2 -2 0 0 0 0];

internalField   nonuniform List<symmTensor> 
25600
(
(0.00961565 6.88958e-07 1.11176e-06 3.41979e-09 3.55767e-08 7.29641e-06)
(0.00958373 -7.75521e-07 8.72809e-05 3.92091e-09 8.60858e-09 8.26507e-06)
(0.00948661 -1.55892e-06 0.000132859 3.43313e-09 -1.31559e-09 8.82157e-06)
(0.00952731 1.05662e-07 1.95726e-05 2.93529e-09 7.48271e-09 7.5323e-06)
(0.00955594 -5.54398e-07 -6.37695e-05 2.58619e-09 2.74941e-08 7.72382e-06)
(0.00959964 -7.63902e-07 -2.22432e-05 2.83986e-09 3.77942e-08 7.1185e-06)
(0.00952507 5.58397e-07 8.17811e-05 3.07715e-09 4.22447e-08 7.61323e-06)
(0.00954089 -6.72395e-07 0.000113874 3.20611e-09 3.4516e-08 8.11113e-06)
(0.00949944 -8.80428e-08 3.07733e-05 2.6688e-09 3.13778e-08 7.43368e-06)
(0.00956933 -7.54288e-07 -5.66565e-05 2.86954e-09 2.95346e-08 8.09891e-06)
(0.00955302 -2.26106e-07 -1.151e-05 2.41337e-09 2.18685e-08 7.84813e-06)
(0.00961661 -4.56768e-07 0.000114517 2.2039e-09 2.51683e-08 9.79615e-06)
(0.00953766 7.2321e-07 0.000143327 2.04548e-09 5.923e-08 1.00809e-05)
(0.00957249 -1.81711e-06 4.54728e-05 2.87448e-09 3.82636e-08 8.8069e-06)
(0.00962765 -1.16178e-06 -5.91126e-05 2.72521e-09 3.50145e-08 8.95834e-06)
(0.00961114 6.54322e-09 -2.17133e-05 2.2996e-09 2.91514e-08 8.49576e-06)
(0.00956101 1.65721e-07 7.98739e-05 2.17382e-09 3.94976e-08 8.42916e-06)
(0.00955056 -5.54448e-07 0.000144741 2.25554e-09 4.30174e-08 9.31418e-06)
(0.0095986 -1.1316e-06 9.42055e-06 2.38084e-09 4.17943e-08 8.28809e-06)
(0.00964682 -1.11235e-06 -5.16046e-05 2.78436e-09 4.85325e-08 9.14202e-06)
(0.00963797 3.20132e-07 -3.26514e-05 2.91958e-09 3.0546e-08 8.40258e-06)
(0.00961944 1.27753e-06 0.000105075 3.01688e-09 6.75766e-08 8.35962e-06)
(0.00960322 8.31092e-08 0.000137798 3.04373e-09 6.27344e-08 8.60151e-06)
(0.00960467 -1.36088e-06 3.92531e-05 3.16409e-09 4.9329e-08 8.66309e-06)
(0.00962346 -2.65118e-06 -5.44986e-05 4.27329e-09 4.39553e-08 9.47542e-06)
(0.00977419 2.11906e-07 -1.38466e-05 3.46889e-09 2.80652e-08 8.25503e-06)
(0.00958852 -6.67341e-07 0.000113058 3.60803e-09 1.81636e-08 8.01446e-06)
(0.00964898 -1.07522e-06 0.000111387 3.22814e-09 2.89631e-08 7.61504e-06)
(0.00953646 -1.00389e-06 5.39012e-05 3.17705e-09 1.59869e-08 7.62801e-06)
(0.00959161 -6.48616e-07 -3.61746e-05 3.29498e-09 2.05086e-08 8.16021e-06)
(0.00962365 -2.84175e-06 -1.31147e-05 3.21411e-09 4.50321e-08 7.85196e-06)
(0.00964681 9.23391e-07 0.000134798 2.85327e-09 6.89576e-08 9.2144e-06)
(0.00961387 1.57174e-06 0.000143002 3.17003e-09 8.58493e-08 9.18854e-06)
(0.00955016 -2.31686e-07 4.08152e-05 3.03784e-09 5.33606e-08 8.29e-06)
(0.00961523 -9.59462e-07 -4.66039e-05 3.18236e-09 3.26608e-08 9.05075e-06)
(0.00960183 1.43427e-06 -2.24465e-05 3.53296e-09 1.02435e-08 8.64949e-06)
(0.00961508 -1.84834e-06 0.000106264 3.74035e-09 -1.3909e-08 9.17381e-06)
(0.00951132 -1.19235e-06 0.000128176 3.0518e-09 1.7553e-08 8.96744e-06)
(0.00957599 -2.59007e-06 3.22525e-05 3.65017e-09 4.52833e-08 8.18977e-06)
(0.00960064 -1.89311e-06 -6.66559e-05 3.73422e-09 6.09881e-08 8.19341e-06)
(0.0309709 -1.99382e-05 0.00015584 7.25392e-08 -2.37875e-07 5.09544e-05)
(0.0310343 -5.20014e-06 0.000178103 7.50387e-08 -1.30683e-07 5.43048e-05)
(0.0305494 -1.04606e-06 0.000426491 7.59995e-08 3.53793e-08 5.79231e-05)
(0.0307143 -1.14274e-05 0.00019955 6.39465e-08 5.99462e-08 5.47415e-05)
(0.03073 -1.47967e-05 -4.00736e-05 6.98543e-08 -2.31767e-08 5.48469e-05)
(0.0309101 -2.15089e-05 -4.7605e-06 7.58054e-08 -4.98971e-08 4.99492e-05)
(0.0308895 -9.5243e-06 0.000218664 8.3857e-08 -1.41817e-07 5.64576e-05)
(0.0308075 -2.76987e-06 0.000409416 7.52505e-08 -2.07979e-07 5.79915e-05)
(0.0306826 -6.95098e-06 0.000260457 7.07098e-08 -2.17707e-07 5.51006e-05)
(0.0308275 -1.56273e-05 2.61963e-05 7.3205e-08 -1.67673e-07 5.91801e-05)
(0.0307413 -1.66133e-05 3.65118e-06 7.15169e-08 -2.82681e-07 5.65467e-05)
(0.0310992 -1.42603e-05 0.000293957 7.16935e-08 -4.46415e-07 6.95256e-05)
(0.0308122 -1.40792e-05 0.000468288 6.76352e-08 -5.18648e-07 6.89649e-05)
(0.0310684 -1.38521e-05 0.000316902 6.44012e-08 -6.63278e-07 6.44227e-05)
(0.0310066 -1.17713e-05 2.97053e-05 6.49384e-08 -7.11943e-07 6.32149e-05)
(0.0311322 -1.36976e-05 6.97265e-05 6.01594e-08 -5.6884e-07 6.04915e-05)
(0.0310507 -1.68939e-05 0.000208725 6.32721e-08 -4.75234e-07 6.39102e-05)
(0.0310783 -1.43078e-05 0.000514308 6.56688e-08 -4.86066e-07 6.49534e-05)
(0.0310578 -1.91225e-05 0.000222441 7.19744e-08 -4.79209e-07 5.92206e-05)
(0.0312757 -1.99326e-05 0.000126037 7.35832e-08 -5.14107e-07 6.21225e-05)
(0.0312089 -2.47819e-05 -6.40946e-05 7.43639e-08 -3.13378e-07 5.66992e-05)
(0.0313895 -1.70338e-05 0.000342261 7.12605e-08 -3.34904e-07 5.88428e-05)
(0.0312781 -1.30265e-05 0.00038888 7.7797e-08 -2.78239e-07 5.23915e-05)
(0.0313357 -1.45075e-05 0.000397297 8.60267e-08 -3.48458e-07 5.34892e-05)
(0.031075 -3.22255e-05 0.000127937 1.10047e-07 -2.75765e-07 5.80737e-05)
(0.0318047 -2.72629e-05 0.000102248 1.11521e-07 -4.65684e-07 5.20638e-05)
(0.0312838 -1.11985e-05 0.000305132 1.00654e-07 -4.76318e-07 5.08199e-05)
(0.0315726 -1.52432e-05 0.000408892 8.21875e-08 -5.82376e-07 5.03534e-05)
(0.0310571 -9.88018e-06 0.000371613 7.89948e-08 -4.37372e-07 5.11349e-05)
(0.0312187 -2.27299e-05 0.000109195 7.93493e-08 -1.80246e-07 5.62577e-05)
(0.0313302 -2.29101e-05 3.58814e-05 8.85186e-08 -3.28982e-07 5.09922e-05)
(0.0312887 -1.54579e-05 0.000293197 8.51948e-08 -4.24611e-07 5.44885e-05)
(0.0313024 -1.58542e-05 0.000408018 8.44645e-08 -5.64966e-07 5.73339e-05)
(0.0308894 -7.79391e-06 0.000337366 6.93636e-08 -3.45699e-07 5.74372e-05)
(0.0312365 -2.10245e-05 6.22407e-05 7.76872e-08 -2.24974e-07 6.48441e-05)
(0.0309261 -1.37259e-05 1.61748e-05 7.07042e-08 -2.66584e-07 6.06051e-05)
(0.0313915 -1.51326e-05 0.000318058 7.70691e-08 -3.82689e-07 6.75798e-05)
(0.0308216 -9.36056e-07 0.000418027 6.64636e-08 -1.78736e-07 6.15414e-05)
(0.0310225 -1.44575e-05 0.000365919 6.44113e-08 -3.01162e-07 5.58633e-05)
(0.0307761 -7.22716e-06 1.53273e-05 6.03925e-08 -1.89668e-07 5.47566e-05)
(0.0431455 -5.66786e-05 3.73592e-05 2.90139e-07 -6.04175e-07 0.000139785)
(0.0431105 -1.94593e-05 0.000281012 2.50184e-07 -6.41816e-07 0.000149529)
(0.0430024 -3.13753e-05 0.000464298 2.55841e-07 -1.20925e-06 0.000140067)
(0.0429649 -2.8412e-05 0.000316868 2.13001e-07 -1.06802e-06 0.000121739)
(0.0429413 -3.98949e-05 4.00854e-05 2.70504e-07 -1.15043e-06 0.00012173)
(0.0430353 -3.97641e-05 7.78116e-05 2.59842e-07 -1.35463e-06 0.000118042)
(0.0428824 -4.09233e-05 0.000263745 3.0576e-07 -1.70641e-06 0.000139203)
(0.0429794 -2.08009e-05 0.000509488 2.65634e-07 -1.95197e-06 0.000152945)
(0.0428886 -3.26258e-05 0.000327211 2.71537e-07 -1.86773e-06 0.000153863)
(0.0431194 -2.88148e-05 1.52106e-05 2.4987e-07 -1.61236e-06 0.000164897)
(0.0429437 -4.36472e-05 -9.49365e-06 2.6226e-07 -1.30522e-06 0.000145071)
(0.0434435 -3.78646e-05 0.000389765 2.44007e-07 -1.63094e-06 0.000162777)
(0.0429488 -3.647e-05 0.000478779 2.34337e-07 -1.47808e-06 0.000159904)
(0.0435007 -3.85005e-05 0.000436268 2.24702e-07 -1.85508e-06 0.000151963)
(0.0429939 -4.11864e-05 1.77446e-06 2.28668e-07 -1.70547e-06 0.00015405)
(0.0435886 -4.1568e-05 0.000140558 2.2771e-07 -1.64746e-06 0.000144076)
(0.0431547 -5.21789e-05 0.000248171 2.56026e-07 -1.88835e-06 0.000160321)
(0.0435807 -4.98272e-05 0.000622669 2.73258e-07 -2.38709e-06 0.000166595)
(0.0433972 -5.52585e-05 0.000271423 3.22237e-07 -2.44551e-06 0.000159355)
(0.0437445 -5.30679e-05 9.15244e-05 3.51145e-07 -3.09553e-06 0.000163732)
(0.043692 -5.1097e-05 -3.7073e-05 3.36215e-07 -2.65577e-06 0.000133798)
(0.0438061 -5.56663e-05 0.000395511 3.19569e-07 -2.69219e-06 0.000126162)
(0.0437947 -4.54057e-05 0.000379272 3.31668e-07 -1.99036e-06 0.000118614)
(0.0440345 -4.8062e-05 0.000515026 3.6576e-07 -2.11323e-06 0.000121411)
(0.0438135 -7.12641e-05 8.86513e-05 4.13004e-07 -1.427e-06 0.000137518)
(0.0441849 -6.57668e-05 0.000138237 3.84115e-07 -2.32205e-06 0.000134292)
(0.0441383 -5.07647e-05 0.000361859 3.51359e-07 -2.36555e-06 0.000155268)
(0.0441491 -4.73752e-05 0.000650648 3.14544e-07 -2.54124e-06 0.000154031)
(0.0437944 -4.2696e-05 0.000297936 3.03324e-07 -2.34693e-06 0.000142842)
(0.0441278 -5.21943e-05 0.00010758 2.6856e-07 -1.22844e-06 0.000149456)
(0.043907 -6.01629e-05 -6.01243e-05 2.99817e-07 -1.03554e-06 0.000136809)
(0.0440401 -4.64651e-05 0.000375738 2.70695e-07 -9.75778e-07 0.000150143)
(0.0438617 -3.80532e-05 0.000419419 2.87593e-07 -1.22736e-06 0.000154754)
(0.0435314 -3.28912e-05 0.000442794 2.17141e-07 -1.17556e-06 0.000153361)
(0.0436824 -4.63167e-05 1.63254e-05 2.60007e-07 -1.09974e-06 0.000159429)
(0.043364 -3.64992e-05 0.000144996 2.1308e-07 -9.92367e-07 0.000143823)
(0.0438628 -4.5425e-05 0.000273826 2.78011e-07 -1.15966e-06 0.000155252)
(0.0430671 -1.03569e-05 0.000521797 2.11069e-07 -8.41137e-07 0.000160863)
(0.0435081 -4.67219e-05 0.000254419 2.47584e-07 -1.06853e-06 0.000151621)
(0.0431469 -2.08719e-05 3.21623e-06 2.06332e-07 -6.31719e-07 0.000147869)
(0.0432736 -5.86379e-05 -0.000164478 9.41051e-07 2.90308e-06 0.000293011)
(0.0432781 -6.39354e-06 7.246e-05 7.20549e-07 2.35798e-06 0.000292828)
(0.0429893 -3.959e-05 0.000248074 7.76786e-07 1.41693e-06 0.000272521)
(0.0431104 -4.99679e-06 0.000125761 6.09565e-07 2.00345e-06 0.000243733)
(0.0429318 -4.69569e-05 -0.00013476 8.14875e-07 2.14337e-06 0.000259462)
(0.0432293 -1.91506e-05 -0.000120716 7.35288e-07 8.11951e-07 0.000266997)
(0.0428569 -4.31254e-05 0.000152896 9.12089e-07 -2.34262e-07 0.000323925)
(0.0431678 -1.54401e-05 0.00043334 7.91579e-07 -1.22695e-06 0.000349408)
(0.0428613 -4.34737e-05 0.000159724 8.68978e-07 -1.92759e-08 0.000349196)
(0.0433616 -2.38845e-05 -0.000164992 8.26461e-07 2.27812e-06 0.000348628)
(0.042905 -5.44807e-05 -0.000194704 9.57346e-07 2.86497e-06 0.000295994)
(0.0435379 -2.52119e-05 0.000204253 7.78283e-07 2.16864e-06 0.000299575)
(0.0427392 -3.73932e-05 0.000224136 7.60772e-07 2.0144e-06 0.000294676)
(0.0436144 -2.54137e-05 0.00022044 6.8208e-07 1.56004e-06 0.000287614)
(0.0427487 -4.04657e-05 -0.000255172 7.38566e-07 2.02419e-06 0.000304008)
(0.0437701 -3.79141e-05 -7.89997e-05 7.47426e-07 2.06763e-06 0.000285317)
(0.0428427 -5.34335e-05 -1.72299e-05 8.14923e-07 1.98856e-06 0.000309727)
(0.0436625 -4.41072e-05 0.000407398 8.20537e-07 1.02298e-06 0.000325312)
(0.0429948 -6.20479e-05 2.72483e-05 9.30446e-07 6.41483e-07 0.00031365)
(0.0437558 -6.04734e-05 -5.60776e-05 9.06876e-07 -1.08393e-07 0.000304846)
(0.0430886 -6.72228e-05 -0.000259174 9.18788e-07 -2.91642e-07 0.00026532)
(0.0438171 -6.20326e-05 0.000249638 9.2519e-07 -1.7592e-06 0.000262522)
(0.0432205 -6.03662e-05 0.000229591 9.46508e-07 -1.36748e-06 0.000258703)
(0.0441141 -5.21394e-05 0.000324507 9.86151e-07 -6.39805e-07 0.000258622)
(0.0435021 -6.80751e-05 -0.000208766 1.01675e-06 1.1311e-06 0.000279311)
(0.0442996 -7.02773e-05 4.76404e-05 1.03268e-06 -5.48442e-08 0.000268852)
(0.043728 -5.98443e-05 3.14907e-06 1.00156e-06 -8.00031e-07 0.000298437)
(0.0441381 -6.09772e-05 0.000454852 1.02179e-06 -2.12038e-06 0.000323202)
(0.0438778 -5.25988e-05 -5.62014e-05 9.83853e-07 -1.43858e-06 0.000311645)
(0.0443805 -4.53397e-05 -0.00012857 8.98375e-07 -3.71908e-07 0.000311618)
(0.043879 -5.48896e-05 -0.000368539 9.3449e-07 1.32823e-06 0.000292144)
(0.0440939 -4.27255e-05 0.000129971 8.84035e-07 1.5946e-06 0.000309567)
(0.0438158 -3.87305e-05 0.000184249 8.59774e-07 2.36561e-06 0.000324457)
(0.0438738 -3.09816e-05 0.000156358 7.29389e-07 2.595e-06 0.000326822)
(0.0437829 -4.74645e-05 -0.000332274 7.49129e-07 3.13599e-06 0.000345079)
(0.0438122 -3.05026e-05 -0.000210687 6.6089e-07 3.13697e-06 0.000303483)
(0.0437693 -5.17424e-05 4.14539e-05 7.86664e-07 2.2747e-06 0.000324467)
(0.0435403 -9.04843e-06 0.000252056 6.39086e-07 1.42819e-06 0.000319899)
(0.0435421 -4.86772e-05 0.000100972 8.16122e-07 1.76069e-06 0.00031007)
(0.0434246 -4.50935e-06 -0.000226986 7.04733e-07 2.82217e-06 0.000319458)
(0.0348734 -4.80146e-06 -0.000248576 3.17319e-06 1.18606e-05 0.000486847)
(0.0355834 4.0859e-05 -1.73886e-05 2.71763e-06 1.04207e-05 0.000486419)
(0.0346167 5.02849e-08 0.000176442 2.82544e-06 8.74686e-06 0.000468298)
(0.0353916 4.14296e-05 -1.19426e-05 2.30868e-06 1.07134e-05 0.000433535)
(0.0347182 -3.71742e-06 -0.000222136 2.67409e-06 1.19377e-05 0.000463715)
(0.0354544 3.11963e-05 -0.000220341 2.47739e-06 1.06274e-05 0.000469791)
(0.0346255 2.75008e-06 0.000117634 2.87748e-06 8.5887e-06 0.000542861)
(0.0354385 4.33646e-05 0.0002882 2.5449e-06 6.85951e-06 0.000553076)
(0.0345911 7.84482e-07 0.000143452 2.90622e-06 6.82104e-06 0.000543865)
(0.0354836 3.14181e-05 -0.000214346 2.82233e-06 1.08681e-05 0.000536318)
(0.0346955 -9.482e-06 -0.000272162 3.18183e-06 1.166e-05 0.000467877)
(0.0353642 2.82011e-05 -7.26187e-07 2.67652e-06 1.09939e-05 0.000452007)
(0.0345543 2.75262e-06 3.1254e-05 2.69743e-06 1.02515e-05 0.000445032)
(0.0352735 2.87648e-05 6.0136e-06 2.37541e-06 1.06923e-05 0.000440617)
(0.0346407 3.84114e-06 -0.000330785 2.54379e-06 1.07689e-05 0.000481351)
(0.0354947 1.71263e-05 -0.000344395 2.53844e-06 1.10525e-05 0.000471803)
(0.0347364 -6.55524e-06 1.36084e-05 2.82063e-06 1.01506e-05 0.000540554)
(0.0355897 5.34924e-06 0.000267575 2.79094e-06 1.02776e-05 0.000529546)
(0.0347438 -1.75451e-05 6.87905e-06 2.95818e-06 8.40172e-06 0.000509262)
(0.0355261 -8.96235e-06 -0.000158224 2.69506e-06 7.09694e-06 0.000499921)
(0.0348599 -1.81761e-05 -0.000313588 2.62095e-06 6.32449e-06 0.000437699)
(0.0353906 -1.17721e-05 8.88734e-05 2.67755e-06 4.49214e-06 0.000419221)
(0.0349853 -3.74938e-06 7.27309e-05 2.72434e-06 4.9227e-06 0.000401176)
(0.0356229 -6.98346e-06 0.000187601 3.051e-06 6.00985e-06 0.000401358)
(0.0351784 -1.12861e-05 -0.000230992 3.05338e-06 8.36838e-06 0.000442323)
(0.0357987 -7.52341e-06 -0.000128959 3.21079e-06 8.42407e-06 0.000450027)
(0.0351927 -2.82767e-06 -6.98822e-05 3.0677e-06 7.73443e-06 0.000499775)
(0.0357082 -6.30123e-06 0.000248098 3.17089e-06 5.23873e-06 0.000525652)
(0.0352484 -4.46322e-06 -7.85857e-05 2.98586e-06 5.64933e-06 0.000528726)
(0.0358569 1.60446e-05 -0.000230714 2.94328e-06 6.04302e-06 0.000554628)
(0.0355344 2.07085e-06 -0.000369951 2.94907e-06 8.96357e-06 0.000503772)
(0.0359348 2.6495e-05 5.37376e-05 3.02932e-06 1.00438e-05 0.000497513)
(0.0353726 8.35054e-06 -1.38822e-05 2.93345e-06 1.23441e-05 0.000493892)
(0.0358437 3.29469e-05 0.000124564 2.78006e-06 1.34128e-05 0.000499116)
(0.0351948 -3.71667e-06 -0.00037807 2.6706e-06 1.58406e-05 0.00051985)
(0.0359236 3.3587e-05 -0.000283982 2.41265e-06 1.40366e-05 0.000477329)
(0.0351279 -8.65904e-06 -0.000167218 2.58595e-06 1.20003e-05 0.000496986)
(0.0356649 3.88663e-05 8.38181e-05 2.49215e-06 1.04547e-05 0.000506657)
(0.0350406 -4.49896e-06 -5.12856e-05 2.89878e-06 1.09122e-05 0.000506363)
(0.0356849 4.99426e-05 -0.00029226 2.78868e-06 1.18967e-05 0.000519949)
(0.0241755 6.32574e-05 -0.000155832 8.07691e-06 2.34857e-05 0.000625817)
(0.0252716 8.79946e-05 0.000164241 7.59677e-06 2.08845e-05 0.000647262)
(0.0242007 6.06164e-05 0.00025846 7.52179e-06 2.04069e-05 0.000602486)
(0.02523 8.67409e-05 0.000202463 6.64972e-06 2.08144e-05 0.000563715)
(0.0241199 5.03226e-05 8.81093e-07 7.00476e-06 2.16244e-05 0.000580863)
(0.0251893 8.44032e-05 2.73448e-05 6.65555e-06 1.95594e-05 0.000591344)
(0.0241519 5.08627e-05 0.000171686 7.43467e-06 1.48072e-05 0.000661749)
(0.025073 8.48262e-05 0.000334532 6.95155e-06 1.07436e-05 0.000697218)
(0.0243218 4.55603e-05 0.000147139 7.83162e-06 9.85101e-06 0.000695409)
(0.0251636 9.03135e-05 -0.000153434 7.55698e-06 1.48055e-05 0.000686359)
(0.0243386 4.81039e-05 -0.000113108 8.18726e-06 1.80407e-05 0.00060264)
(0.0250766 8.62851e-05 5.13175e-05 7.21543e-06 1.99767e-05 0.00058429)
(0.0240589 5.8859e-05 0.000112227 7.05178e-06 2.01552e-05 0.000583867)
(0.0248788 8.63289e-05 5.02445e-05 6.2499e-06 2.14615e-05 0.000579239)
(0.0240717 5.61867e-05 -0.000240804 6.53506e-06 2.1877e-05 0.000615441)
(0.0249675 7.61005e-05 -0.000233616 6.68431e-06 2.07045e-05 0.000568988)
(0.0240196 5.45748e-05 -5.80602e-06 7.47316e-06 2.08305e-05 0.000574213)
(0.0248284 5.98458e-05 9.30885e-05 7.50019e-06 2.27575e-05 0.000580074)
(0.0240212 4.81865e-05 0.000120915 7.3417e-06 1.95041e-05 0.000590484)
(0.0246472 4.85062e-05 -8.08445e-05 6.76486e-06 1.74424e-05 0.000599267)
(0.0241055 4.50298e-05 -7.78417e-05 6.305e-06 1.28912e-05 0.000549508)
(0.0248581 5.1101e-05 9.7142e-05 6.57018e-06 1.02951e-05 0.000549478)
(0.0241249 5.35617e-05 0.000167864 6.882e-06 9.49534e-06 0.000547206)
(0.0250265 5.38769e-05 7.44717e-05 8.00739e-06 1.1937e-05 0.000540161)
(0.0243196 5.58654e-05 -0.000126681 8.29359e-06 1.52454e-05 0.000579086)
(0.0251313 6.12562e-05 -8.85235e-05 8.9646e-06 1.68122e-05 0.000604751)
(0.0242802 6.27488e-05 3.36098e-05 8.44056e-06 1.70478e-05 0.000665723)
(0.0252243 5.84585e-05 0.000270705 8.37283e-06 1.62057e-05 0.000677813)
(0.0242177 6.63046e-05 2.78756e-06 7.58172e-06 1.69686e-05 0.000669277)
(0.0254324 6.84603e-05 -8.7431e-05 7.88655e-06 1.63451e-05 0.00070386)
(0.0243851 7.44693e-05 -0.000262852 7.63996e-06 1.7008e-05 0.000668999)
(0.0253838 8.13494e-05 0.000206261 8.30647e-06 1.70459e-05 0.000684625)
(0.0245248 6.69193e-05 0.000170054 8.14586e-06 2.14871e-05 0.000636928)
(0.0254271 8.64802e-05 0.000225161 8.25327e-06 2.42369e-05 0.000628156)
(0.0244001 5.4188e-05 -0.000195882 7.74722e-06 3.00007e-05 0.000653995)
(0.025543 8.1511e-05 -7.75868e-05 7.35664e-06 2.83376e-05 0.000622456)
(0.0244268 5.95206e-05 -3.58136e-05 6.99457e-06 2.77685e-05 0.000653313)
(0.0253144 9.99374e-05 0.000228786 6.99274e-06 2.59131e-05 0.000668713)
(0.0243286 5.74405e-05 -3.42227e-06 7.51253e-06 2.55263e-05 0.000648764)
(0.025412 9.40557e-05 -7.96833e-05 7.67974e-06 2.45036e-05 0.000647575)
(0.0148193 8.16783e-05 8.77028e-05 1.66734e-05 2.55577e-05 0.000611073)
(0.0156705 0.000101668 0.000165616 1.59612e-05 2.50418e-05 0.000595232)
(0.0146609 7.61756e-05 0.000247145 1.58093e-05 2.44905e-05 0.000586417)
(0.0156014 0.000103138 0.000187078 1.44995e-05 2.54348e-05 0.000580255)
(0.0147677 7.14187e-05 3.25174e-05 1.49448e-05 2.51291e-05 0.000628725)
(0.0156629 0.000103331 6.22394e-05 1.4572e-05 2.12065e-05 0.000636602)
(0.0148001 6.65382e-05 0.000211842 1.5915e-05 1.36544e-05 0.000694021)
(0.0156223 8.28995e-05 0.000336614 1.57283e-05 7.6659e-06 0.00069592)
(0.0147718 5.32132e-05 0.000198235 1.70483e-05 8.90617e-06 0.000671338)
(0.0156162 9.33679e-05 6.93839e-05 1.63982e-05 1.35648e-05 0.000653412)
(0.0147324 6.8312e-05 3.47034e-05 1.69772e-05 1.79647e-05 0.000612465)
(0.0155317 9.53512e-05 0.000198594 1.5242e-05 1.91977e-05 0.000610198)
(0.0146466 7.31678e-05 0.000259397 1.46946e-05 1.87229e-05 0.000597034)
(0.015586 8.99415e-05 0.000209946 1.34459e-05 2.10021e-05 0.00057518)
(0.0146201 7.92357e-05 4.47063e-05 1.38438e-05 2.2331e-05 0.000564926)
(0.0155036 8.73013e-05 5.43327e-05 1.45294e-05 2.36314e-05 0.000545134)
(0.0146919 8.45986e-05 0.000121327 1.56554e-05 2.56999e-05 0.000563842)
(0.0153578 8.17437e-05 0.000211618 1.59484e-05 2.8538e-05 0.000588132)
(0.014585 8.66575e-05 0.000164261 1.49754e-05 2.85975e-05 0.000601165)
(0.0153453 6.89628e-05 3.21636e-05 1.41008e-05 2.63413e-05 0.000639869)
(0.0146288 7.25661e-05 1.15395e-05 1.29365e-05 1.80325e-05 0.000607652)
(0.0153811 7.10554e-05 0.000180283 1.38103e-05 1.08575e-05 0.000615232)
(0.0147126 7.04757e-05 0.000213975 1.52241e-05 8.0119e-06 0.000584629)
(0.0153984 7.33269e-05 0.000182964 1.80203e-05 1.10561e-05 0.000576658)
(0.0148158 8.69201e-05 2.24971e-05 1.90852e-05 1.55793e-05 0.000623166)
(0.0155371 8.08477e-05 4.20032e-05 2.05318e-05 2.01319e-05 0.000637044)
(0.014818 8.93039e-05 0.000155239 1.93323e-05 2.06184e-05 0.000680193)
(0.0155483 7.94224e-05 0.00029342 1.88268e-05 2.03729e-05 0.000693433)
(0.0148129 9.26055e-05 0.00016193 1.70486e-05 2.13729e-05 0.000682323)
(0.0156557 8.26755e-05 1.39435e-05 1.73984e-05 2.12711e-05 0.000681782)
(0.0148734 9.93412e-05 5.22874e-05 1.6596e-05 1.86438e-05 0.000635775)
(0.0155842 8.83169e-05 0.000122897 1.80654e-05 1.92723e-05 0.000617799)
(0.0147782 8.93829e-05 0.000256171 1.75028e-05 2.04619e-05 0.000597381)
(0.0155549 9.07371e-05 0.000133358 1.81437e-05 2.55492e-05 0.000586907)
(0.0148874 8.48367e-05 5.24342e-05 1.64649e-05 2.97455e-05 0.000622183)
(0.0155552 9.17035e-05 7.70549e-07 1.63763e-05 3.37622e-05 0.000654178)
(0.0147845 8.74524e-05 0.000185646 1.52501e-05 3.21613e-05 0.00069954)
(0.0156393 0.000106724 0.000292421 1.53979e-05 2.92502e-05 0.00068936)
(0.0148087 8.58237e-05 0.000218905 1.58363e-05 2.80901e-05 0.000667219)
(0.0157059 0.000105642 5.90367e-05 1.63691e-05 2.85633e-05 0.000662166)
(0.00767623 5.93829e-05 0.000165705 2.72351e-05 1.41581e-05 0.000504196)
(0.00833819 7.7668e-05 0.000196617 2.58529e-05 1.44281e-05 0.000505027)
(0.00761198 5.76855e-05 0.000243553 2.56965e-05 1.25512e-05 0.000500383)
(0.00829896 7.73714e-05 0.000202034 2.47706e-05 1.23836e-05 0.000499775)
(0.00767586 5.87846e-05 0.000111931 2.59363e-05 1.094e-05 0.000521473)
(0.0083446 8.00946e-05 0.000132517 2.58706e-05 8.68843e-06 0.000517551)
(0.00767174 5.54042e-05 0.000166591 2.71451e-05 5.98764e-06 0.000528196)
(0.00827758 6.66239e-05 0.000233857 2.65213e-05 2.5694e-06 0.000533177)
(0.00760747 4.83718e-05 0.000182674 2.76985e-05 2.23526e-06 0.000535038)
(0.00823944 6.68698e-05 0.000150239 2.71166e-05 2.68311e-06 0.000537397)
(0.00763494 6.21884e-05 0.000109291 2.73735e-05 5.32501e-06 0.000508858)
(0.00826514 6.89946e-05 0.00025603 2.56866e-05 6.05719e-06 0.00049083)
(0.00759724 6.19894e-05 0.000208199 2.48587e-05 9.09611e-06 0.000481339)
(0.00822243 6.06773e-05 0.000285166 2.37911e-05 1.14058e-05 0.000478664)
(0.00757073 6.01955e-05 9.33944e-05 2.43272e-05 1.60303e-05 0.000500131)
(0.00831252 6.01725e-05 0.000160682 2.50789e-05 1.71721e-05 0.00047381)
(0.00765298 7.08939e-05 0.00013575 2.57759e-05 1.95161e-05 0.000494642)
(0.0082114 6.7611e-05 0.000235469 2.57796e-05 1.90128e-05 0.000513418)
(0.00762124 6.95254e-05 0.00015679 2.44295e-05 1.97271e-05 0.000519656)
(0.0082776 5.60337e-05 9.47061e-05 2.31927e-05 1.62641e-05 0.000527207)
(0.00759 6.18609e-05 0.000106 2.19239e-05 9.49988e-06 0.000519267)
(0.0081853 5.34763e-05 0.000132697 2.38874e-05 3.42661e-06 0.00052571)
(0.00757605 6.03331e-05 0.000202871 2.65707e-05 -8.14749e-07 0.000510671)
(0.00814682 5.89326e-05 0.000147368 3.11007e-05 5.12135e-09 0.000503826)
(0.00765047 7.20665e-05 0.000116971 3.34452e-05 2.48462e-06 0.000525453)
(0.00815737 6.89206e-05 0.000122278 3.4891e-05 6.97578e-06 0.000535967)
(0.00768799 7.18656e-05 0.000184697 3.30086e-05 8.73483e-06 0.000552384)
(0.00816351 7.18587e-05 0.000225884 3.18248e-05 1.04393e-05 0.000536757)
(0.00759596 7.21454e-05 0.000191785 2.95884e-05 1.01278e-05 0.000515368)
(0.00819278 7.09546e-05 0.000149509 2.93173e-05 1.02592e-05 0.000503199)
(0.00756477 8.15757e-05 0.000153634 2.81309e-05 8.8116e-06 0.000494156)
(0.00820653 7.92171e-05 0.000188691 2.90906e-05 8.91735e-06 0.00049307)
(0.00756803 8.02383e-05 0.00025486 2.82165e-05 8.10641e-06 0.000483136)
(0.00827489 7.86797e-05 0.000217394 2.86299e-05 1.05767e-05 0.000478926)
(0.0075904 7.50956e-05 0.000184893 2.67532e-05 1.28871e-05 0.000494349)
(0.00826651 8.37506e-05 0.000188383 2.65759e-05 1.54033e-05 0.000507011)
(0.00767575 7.18695e-05 0.000232489 2.57674e-05 1.45417e-05 0.000535144)
(0.00827916 8.36025e-05 0.000277433 2.64362e-05 1.29653e-05 0.000545855)
(0.00769557 6.55592e-05 0.00023837 2.70915e-05 1.23777e-05 0.00053861)
(0.00834393 8.07693e-05 0.00015087 2.73862e-05 1.49158e-05 0.000533984)
(0.00329063 3.54831e-05 0.000171574 3.29463e-05 -3.62091e-06 0.000325404)
(0.00361859 4.47417e-05 0.00017835 3.13003e-05 -3.65276e-06 0.000319781)
(0.00326095 3.57166e-05 0.000182038 3.11361e-05 -3.83662e-06 0.000313163)
(0.00359752 4.54179e-05 0.000173973 3.09147e-05 -4.76306e-06 0.000313521)
(0.00325999 3.65337e-05 0.000138444 3.25374e-05 -5.75931e-06 0.000326547)
(0.00359656 4.4682e-05 0.000145408 3.28178e-05 -8.41636e-06 0.000331045)
(0.00324195 3.62861e-05 0.000153627 3.3674e-05 -9.12387e-06 0.000342965)
(0.00358032 3.88779e-05 0.000188516 3.28714e-05 -1.12306e-05 0.000346268)
(0.00323663 3.40185e-05 0.00015715 3.33813e-05 -1.14765e-05 0.000349708)
(0.00358972 3.60046e-05 0.000143678 3.27706e-05 -1.264e-05 0.000355915)
(0.00323372 3.87638e-05 0.000137142 3.286e-05 -1.23817e-05 0.000350086)
(0.0035769 3.64791e-05 0.000173559 3.18987e-05 -1.08645e-05 0.0003411)
(0.00322722 3.76148e-05 0.000189315 3.14634e-05 -7.17695e-06 0.000325163)
(0.00356512 3.32729e-05 0.000166148 3.10499e-05 -2.94439e-06 0.00032048)
(0.00321973 3.83327e-05 0.000141962 3.15211e-05 9.89215e-07 0.000333568)
(0.00356447 3.6683e-05 0.000127571 3.2134e-05 2.19705e-06 0.00034256)
(0.00321003 4.68374e-05 0.000165033 3.23294e-05 1.81457e-06 0.000348512)
(0.00356611 4.26466e-05 0.000179548 3.21315e-05 4.44883e-07 0.000342004)
(0.00321639 4.11693e-05 0.000185834 3.06935e-05 5.13322e-07 0.000331482)
(0.00356302 3.39458e-05 0.000146363 2.93922e-05 -1.21988e-06 0.000331356)
(0.00319732 3.4275e-05 0.000161665 2.83183e-05 -5.35318e-06 0.00032489)
(0.00353495 3.21496e-05 0.000146168 3.06074e-05 -9.66946e-06 0.000329133)
(0.00317586 3.7145e-05 0.000176275 3.38246e-05 -1.43464e-05 0.000327668)
(0.00350802 3.89784e-05 0.000145703 3.87121e-05 -1.50778e-05 0.000329028)
(0.0031848 4.64349e-05 0.000139209 4.15848e-05 -1.48262e-05 0.000338193)
(0.00349352 4.62947e-05 0.000131276 4.29217e-05 -1.16951e-05 0.00034094)
(0.00317698 4.62336e-05 0.000153743 4.13623e-05 -9.91071e-06 0.000345579)
(0.00350028 4.78141e-05 0.000162093 3.99555e-05 -7.89453e-06 0.000340262)
(0.00318656 4.59988e-05 0.000156514 3.73051e-05 -8.42199e-06 0.000334746)
(0.00353191 4.75814e-05 0.000121485 3.64907e-05 -8.05601e-06 0.00033618)
(0.00320112 5.09361e-05 0.000136425 3.53908e-05 -1.04929e-05 0.000329125)
(0.00355453 5.21621e-05 0.000149409 3.59812e-05 -9.94738e-06 0.000330878)
(0.00321253 4.65924e-05 0.000188488 3.57277e-05 -1.13991e-05 0.000327)
(0.00358606 4.99525e-05 0.00016286 3.5923e-05 -9.18057e-06 0.000333514)
(0.00324091 4.42974e-05 0.000151986 3.46092e-05 -7.57712e-06 0.000344906)
(0.0036116 5.35144e-05 0.000139871 3.4284e-05 -4.27714e-06 0.000347189)
(0.00327969 4.47543e-05 0.000181374 3.36891e-05 -4.22889e-06 0.000346646)
(0.00363276 5.427e-05 0.000189542 3.40336e-05 -4.15504e-06 0.000346469)
(0.00330355 4.02293e-05 0.000199646 3.43369e-05 -4.45564e-06 0.000340632)
(0.00362598 4.71296e-05 0.000167398 3.38427e-05 -3.49256e-06 0.000342375)
(0.00109636 1.6198e-05 0.000122078 3.06194e-05 -1.28896e-05 0.000182429)
(0.00121612 1.86937e-05 0.000119846 2.91989e-05 -1.28918e-05 0.000178531)
(0.00109247 1.62154e-05 0.000123276 2.9095e-05 -1.21923e-05 0.000174718)
(0.00121938 1.98795e-05 0.000113139 2.90049e-05 -1.31238e-05 0.000175848)
(0.00108909 1.82955e-05 0.000111185 3.01099e-05 -1.36899e-05 0.000182247)
(0.00121933 1.8317e-05 0.000108595 3.0243e-05 -1.57662e-05 0.000185502)
(0.00107153 1.74155e-05 0.000121587 3.0512e-05 -1.56983e-05 0.000186221)
(0.00121651 1.50566e-05 0.000124009 2.98549e-05 -1.69727e-05 0.000185526)
(0.00107116 1.56687e-05 0.000125845 2.9974e-05 -1.75374e-05 0.000184955)
(0.00121699 1.30454e-05 0.000114507 2.95008e-05 -1.85009e-05 0.000184905)
(0.00106246 1.4597e-05 0.000114257 2.94554e-05 -1.85371e-05 0.000179133)
(0.00119955 1.16325e-05 0.000110083 2.90538e-05 -1.73311e-05 0.000172102)
(0.00104462 1.4467e-05 0.000114297 2.88128e-05 -1.50255e-05 0.000166098)
(0.00118703 1.37921e-05 0.000106763 2.87286e-05 -1.26282e-05 0.000166243)
(0.00103888 1.84412e-05 0.000108805 2.92206e-05 -1.09273e-05 0.000173953)
(0.00117868 1.79277e-05 0.00010521 2.98171e-05 -1.04506e-05 0.000179712)
(0.00103258 2.08577e-05 0.000117594 3.01549e-05 -1.09411e-05 0.000184721)
(0.0011721 1.81461e-05 0.000119642 3.00577e-05 -1.19573e-05 0.000184321)
(0.00103779 1.67598e-05 0.00012142 2.86978e-05 -1.23999e-05 0.000181907)
(0.00117099 1.37138e-05 0.000111097 2.77104e-05 -1.28938e-05 0.000179196)
(0.00103888 1.33526e-05 0.000112534 2.69952e-05 -1.50169e-05 0.000172323)
(0.00116002 1.40414e-05 0.000112074 2.877e-05 -1.64226e-05 0.000169478)
(0.00103209 1.66961e-05 0.000111923 3.11969e-05 -1.82604e-05 0.000170578)
(0.00115672 1.88712e-05 0.000110242 3.47871e-05 -1.83085e-05 0.000171199)
(0.00103103 2.14677e-05 0.000102912 3.70664e-05 -1.84022e-05 0.000178887)
(0.00115366 2.23653e-05 0.000101394 3.83559e-05 -1.69166e-05 0.000177779)
(0.00102315 2.19397e-05 0.000103071 3.78259e-05 -1.68989e-05 0.000181179)
(0.00115061 2.3717e-05 0.000105613 3.68269e-05 -1.65169e-05 0.000180583)
(0.00103512 2.21949e-05 0.000103619 3.46953e-05 -1.71994e-05 0.00018045)
(0.00116781 2.44187e-05 9.685e-05 3.3735e-05 -1.67669e-05 0.000179845)
(0.00103916 2.18687e-05 0.000100418 3.29785e-05 -1.79254e-05 0.000176905)
(0.00116653 2.37398e-05 0.00010159 3.33893e-05 -1.75515e-05 0.000175238)
(0.00104278 1.94505e-05 0.000108162 3.34775e-05 -1.82646e-05 0.00017383)
(0.00117584 2.31929e-05 0.000101271 3.35974e-05 -1.7332e-05 0.000177737)
(0.00105911 2.0462e-05 0.000101288 3.29656e-05 -1.63402e-05 0.000184748)
(0.0011922 2.56856e-05 9.72623e-05 3.27595e-05 -1.49265e-05 0.000188289)
(0.00107482 2.17691e-05 0.000112698 3.25206e-05 -1.4345e-05 0.00018901)
(0.00120662 2.57286e-05 0.000116973 3.26125e-05 -1.49099e-05 0.000188687)
(0.0010965 1.99522e-05 0.000123475 3.25603e-05 -1.41754e-05 0.000187633)
(0.00121848 2.16132e-05 0.000117414 3.16791e-05 -1.40317e-05 0.000187562)
(0.000262483 5.0313e-06 5.44154e-05 2.45433e-05 -1.23343e-05 9.22052e-05)
(0.000295908 4.50313e-06 5.20562e-05 2.35817e-05 -1.19836e-05 9.05887e-05)