/*--------------------------------*- C++ -*----------------------------------*\
  =========                 |
  \\      /  F ield         | OpenFOAM: The Open Source CFD Toolbox
   \\    /   O peration     | Website:  https://openfoam.org
    \\  /    A nd           | Version:  10
     \\/     M anipulation  |
\*---------------------------------------------------------------------------*/
FoamFile
{
    format      ascii;
    class       surfaceScalarField;
    location    "15";
    object      phi_0;
}
// * * * * * * * * * * * * * * * * * * * * * * * * * * * * * * * * * * * * * //

dimensions      [0 3 -1 0 0 0 0];

internalField   nonuniform List<scalar> 
300480
(
1.13248e-06
1.68007e-07
-1.30984e-07
1.10154e-06
4.15722e-08
-9.01699e-09
1.08668e-06
-3.52283e-08
-1.77394e-08
1.09938e-06
4.71234e-08
-1.03429e-07
1.12153e-06
1.16035e-07
-1.02837e-07
1.13149e-06
1.529e-07
-1.11923e-07
1.10675e-06
3.48919e-08
-2.39438e-09
1.09685e-06
-3.89896e-08
-7.92753e-09
1.10666e-06
4.33285e-08
-1.02135e-07
1.1203e-06
1.14217e-07
-1.22254e-07
1.12471e-06
1.52601e-07
-1.31637e-07
1.09293e-06
3.53824e-08
-2.78798e-08
1.07759e-06
-2.62737e-08
-2.84445e-08
1.08641e-06
5.35747e-08
-9.37324e-08
1.09764e-06
1.108e-07
-8.48113e-08
1.09684e-06
1.40838e-07
-9.05527e-08
1.06853e-06
4.57086e-08
-1.72207e-08
1.06666e-06
-7.94758e-09
-3.71614e-08
1.08334e-06
8.18835e-08
-1.12185e-07
1.1019e-06
1.34933e-07
-9.92105e-08
1.10905e-06
1.36888e-07
-4.13082e-08
1.08429e-06
2.89879e-08
6.94588e-08
1.07465e-06
-1.954e-09
6.08693e-08
1.08998e-06
9.43969e-08
-8.71928e-08
1.11967e-06
1.53395e-07
-1.18113e-07
1.13006e-06
1.67344e-07
-1.34843e-07
1.10012e-06
3.97181e-08
-4.05002e-08
1.08926e-06
-4.81597e-08
-2.23329e-08
1.10561e-06
4.23777e-08
-1.29114e-07
1.1258e-06
1.12405e-07
-1.40335e-07
1.13888e-06
1.57135e-07
-1.40112e-07
1.11318e-06
4.45105e-08
-3.72982e-08
1.09684e-06
-3.26151e-08
-1.3669e-08
1.10578e-06
4.04427e-08
-1.10116e-07
1.12135e-06
1.01354e-07
-1.02797e-07
1.13313e-06
1.41225e-07
-1.13101e-07
1.1023e-06
4.3089e-08
-2.61444e-09
1.08216e-06
-1.94085e-08
-5.77978e-09
1.09625e-06
4.86609e-08
-7.62769e-08
1.225e-07
-1.11495e-07
3.8226e-06
6.33365e-07
-4.30595e-07
3.72979e-06
1.47203e-07
-2.67995e-08
3.65708e-06
-9.16239e-08
-4.31543e-08
3.69133e-06
2.23153e-07
-2.93944e-07
3.77021e-06
4.61081e-07
-3.20082e-07
3.82074e-06
5.71301e-07
-3.63248e-07
3.74586e-06
1.23679e-07
-8.03227e-09
3.69076e-06
-1.07386e-07
-1.40738e-08
3.71511e-06
2.02824e-07
-2.94757e-07
3.76727e-06
4.49699e-07
-3.83746e-07
3.80071e-06
5.72659e-07
-4.27771e-07
3.69849e-06
1.34197e-07
-9.06982e-08
3.62519e-06
-4.97822e-08
-7.34031e-08
3.64859e-06
2.48423e-07
-2.65587e-07
3.69069e-06
4.42369e-07
-2.68532e-07
3.70254e-06
5.35924e-07
-3.0583e-07
3.61382e-06
1.76962e-07
-5.88644e-08
3.58529e-06
2.84283e-08
-9.39251e-08
3.63767e-06
3.56905e-07
-3.16279e-07
3.70745e-06
5.33935e-07
-3.06933e-07
3.74339e-06
5.22686e-07
-1.398e-07
3.66297e-06
1.19092e-07
2.22862e-07
3.61196e-06
2.98665e-08
2.09603e-07
3.65842e-06
3.85787e-07
-2.53532e-07
3.76346e-06
5.9286e-07
-3.72119e-07
3.81818e-06
6.13357e-07
-4.31775e-07
3.72621e-06
1.34518e-07
-1.21725e-07
3.66792e-06
-1.47744e-07
-5.37506e-08
3.71432e-06
1.98514e-07
-3.81534e-07
3.78322e-06
4.48241e-07
-4.41923e-07
3.84177e-06
5.94171e-07
-4.54641e-07
3.76783e-06
1.60107e-07
-1.19971e-07
3.69407e-06
-8.7404e-08
-3.19318e-08
3.71683e-06
1.87537e-07
-3.23036e-07
3.76997e-06
4.06806e-07
-3.21293e-07
3.82335e-06
5.40207e-07
-3.70473e-07
3.7286e-06
1.59723e-07
-8.72758e-09
3.64352e-06
-3.80564e-08
-5.16577e-09
3.6817e-06
2.25492e-07
-2.12007e-07
4.90075e-07
-3.5777e-07
7.22856e-06
1.39329e-06
-8.24352e-07
7.07231e-06
3.42255e-07
-9.22844e-08
6.90097e-06
-1.21964e-07
-4.66105e-08
6.9456e-06
5.54487e-07
-4.5189e-07
7.10043e-06
1.0365e-06
-5.55016e-07
7.22629e-06
1.25146e-06
-6.94027e-07
7.09874e-06
2.89848e-07
-5.70072e-08
6.96279e-06
-1.5686e-07
4.2069e-09
6.99168e-06
4.97805e-07
-4.53226e-07
7.09831e-06
1.00465e-06
-6.68379e-07
7.19346e-06
1.26138e-06
-8.0936e-07
7.01147e-06
3.25942e-07
-2.06027e-07
6.83983e-06
-2.05288e-08
-9.71065e-08
6.86859e-06
6.15071e-07
-4.10062e-07
6.95522e-06
1.00413e-06
-4.76036e-07
7.0038e-06
1.19079e-06
-6.00083e-07
6.84393e-06
4.2601e-07
-1.44414e-07
6.75588e-06
1.62572e-07
-1.16655e-07
6.84254e-06
8.47755e-07
-4.87712e-07
6.98442e-06
1.21057e-06
-5.47129e-07
7.07683e-06
1.17249e-06
-3.08974e-07
6.9329e-06
3.04553e-07
3.60277e-07
6.80798e-06
1.26579e-07
4.25952e-07
6.87979e-06
8.78222e-07
-3.75616e-07
7.08612e-06
1.30852e-06
-6.45973e-07
7.22628e-06
1.32087e-06
-8.05475e-07
7.0685e-06
3.03933e-07
-2.52779e-07
6.92338e-06
-2.58388e-07
-5.82097e-08
6.99181e-06
4.82846e-07
-6.08712e-07
7.12446e-06
1.00223e-06
-7.75796e-07
7.26147e-06
1.30638e-06
-8.58957e-07
7.14213e-06
3.69097e-07
-2.63141e-07
6.97553e-06
-1.23828e-07
-3.11512e-08
7.00093e-06
4.56919e-07
-5.13607e-07
7.10154e-06
9.1675e-07
-5.58906e-07
7.22816e-06
1.19965e-06
-7.08604e-07
7.06724e-06
3.72598e-07
-5.90622e-08
6.87845e-06
-1.80561e-08
1.88366e-08
6.92799e-06
5.42447e-07
-3.06432e-07
1.10275e-06
-6.25079e-07
1.1476e-05
2.43714e-06
-1.34072e-06
1.12652e-05
6.92571e-07
-2.8604e-07
1.09392e-05
-6.21921e-08
-3.25565e-08
1.09663e-05
1.0559e-06
-5.25344e-07
1.12196e-05
1.81512e-06
-7.61577e-07
1.14736e-05
2.18311e-06
-1.12988e-06
1.12984e-05
5.98988e-07
-2.25315e-07
1.10323e-05
-1.27054e-07
5.36493e-08
1.10435e-05
9.33997e-07
-5.16529e-07
1.12232e-05
1.74296e-06
-9.22584e-07
1.14309e-05
2.22149e-06
-1.29953e-06
1.11683e-05
6.75634e-07
-4.46333e-07
1.08416e-05
1.24626e-07
-1.04817e-07
1.08524e-05
1.15851e-06
-4.79982e-07
1.10018e-05
1.78492e-06
-6.70372e-07
1.11261e-05
2.10788e-06
-1.00062e-06
1.08861e-05
8.56721e-07
-3.41182e-07
1.06893e-05
4.61101e-07
-1.02093e-07
1.07967e-05
1.56608e-06
-5.69644e-07
1.10365e-05
2.16182e-06
-7.95887e-07
1.12306e-05
2.10857e-06
-6.0276e-07
1.10229e-05
6.55057e-07
4.00025e-07
1.07781e-05
3.25327e-07
7.26572e-07
1.08551e-05
1.54795e-06
-3.69611e-07
1.11933e-05
2.25606e-06
-8.82587e-07
1.14831e-05
2.27186e-06
-1.27228e-06
1.12652e-05
6.05096e-07
-5.04642e-07
1.09758e-05
-3.22064e-07
-3.52106e-08
1.10439e-05
8.8986e-07
-7.4498e-07
1.12591e-05
1.73044e-06
-1.09205e-06
1.15236e-05
2.29341e-06
-1.37741e-06
1.13718e-05
7.31195e-07
-5.46092e-07
1.10651e-05
-8.38099e-08
-1.87183e-08
1.10676e-05
8.49009e-07
-6.29416e-07
1.12259e-05
1.5984e-06
-7.7048e-07
1.14732e-05
2.10712e-06
-1.15263e-06
1.12558e-05
7.37355e-07
-2.30005e-07
1.09099e-05
9.34541e-08
5.64587e-08
1.09395e-05
1.00055e-06
-3.03199e-07
1.92447e-06
-8.51734e-07
1.66896e-05
3.73347e-06
-1.96136e-06
1.6456e-05
1.28659e-06
-7.17544e-07
1.59029e-05
1.796e-07
-5.31138e-08
1.58608e-05
1.71769e-06
-4.60542e-07
1.62313e-05
2.73271e-06
-8.36345e-07
1.66874e-05
3.33117e-06
-1.65243e-06
1.64872e-05
1.14045e-06
-6.14875e-07
1.60267e-05
8.44339e-08
7.60011e-08
1.598e-05
1.5095e-06
-4.19636e-07
1.62477e-05
2.59379e-06
-1.03067e-06
1.6641e-05
3.41375e-06
-1.87693e-06
1.63175e-05
1.26835e-06
-9.09591e-07
1.57611e-05
4.71969e-07
-1.4738e-07
1.57101e-05
1.88235e-06
-4.21229e-07
1.59391e-05
2.74391e-06
-7.59363e-07
1.61982e-05
3.27896e-06
-1.50008e-06
1.58801e-05
1.55087e-06
-7.49099e-07
1.55043e-05
9.82069e-07
-9.61065e-08
1.55998e-05
2.50739e-06
-4.88582e-07
1.59631e-05
3.35523e-06
-9.69537e-07
1.63257e-05
3.33783e-06
-1.04951e-06
1.60723e-05
1.27232e-06
2.11492e-07
1.56478e-05
6.87963e-07
1.07416e-06
1.56889e-05
2.34705e-06
-1.32611e-07
1.61857e-05
3.34185e-06
-9.59916e-07
1.67159e-05
3.41734e-06
-1.80022e-06
1.64665e-05
1.11372e-06
-9.69887e-07
1.59544e-05
-2.49277e-07
-3.04459e-08
1.59788e-05
1.40953e-06
-7.15459e-07
1.62943e-05
2.5391e-06
-1.27832e-06
1.67528e-05
3.49745e-06
-1.98796e-06
1.66022e-05
1.32601e-06
-1.07397e-06
1.60958e-05
1.19201e-07
-4.8157e-08
1.60311e-05
1.36198e-06
-6.15155e-07
1.62511e-05
2.37629e-06
-8.55002e-07
1.66835e-05
3.23844e-06
-1.68591e-06
1.64432e-05
1.33109e-06
-6.2164e-07
1.58732e-05
3.78494e-07
4.48083e-08
1.58259e-05
1.59136e-06
-1.46765e-07
2.87299e-06
-9.11832e-07
2.29827e-05
5.14805e-06
-2.55463e-06
2.27984e-05
2.18225e-06
-1.48544e-06
2.19387e-05
7.20321e-07
-2.42332e-07
2.17429e-05
2.57268e-06
-2.51205e-07
2.2231e-05
3.69085e-06
-6.10274e-07
2.29815e-05
4.58945e-06
-2.13834e-06
2.28129e-05
1.97615e-06
-1.3165e-06
2.20851e-05
6.14648e-07
-6.51122e-08
2.19145e-05
2.25375e-06
-1.44593e-07
2.22688e-05
3.44394e-06
-8.06643e-07
2.29406e-05
4.72059e-06
-2.41349e-06
2.26148e-05
2.16198e-06
-1.68209e-06
2.17443e-05
1.12741e-06
-3.51582e-07
2.15575e-05
2.806e-06
-2.16446e-07
2.18706e-05
3.80544e-06
-5.80981e-07
2.23441e-05
4.63435e-06
-1.99736e-06
2.19777e-05
2.56638e-06
-1.46898e-06
2.13347e-05
1.83584e-06
-2.30675e-07
2.13547e-05
3.66664e-06
-1.96609e-07
2.18552e-05
4.71792e-06
-8.98798e-07
2.24737e-05
4.8135e-06
-1.58701e-06
2.22271e-05
2.24701e-06
-3.48383e-07
2.15582e-05
1.31745e-06
1.32445e-06
2.14928e-05
3.26376e-06
3.71302e-07
2.21549e-05
4.41994e-06
-6.78718e-07
2.3039e-05
4.61252e-06
-2.24739e-06
2.28292e-05
1.8695e-06
-1.72168e-06
2.20034e-05
7.77716e-08
-1.67478e-07
2.19084e-05
2.06302e-06
-4.8673e-07
2.23298e-05
3.28463e-06
-1.15006e-06
2.30633e-05
4.77149e-06
-2.55836e-06
2.29822e-05
2.19964e-06
-1.93677e-06
2.22129e-05
6.01588e-07
-2.56749e-07
2.20122e-05
2.0307e-06
-4.62255e-07
2.22808e-05
3.1349e-06
-6.48131e-07
2.29736e-05
4.46844e-06
-2.19063e-06
2.27835e-05
2.2019e-06
-1.32109e-06
2.19214e-05
9.41257e-07
-1.53585e-07
2.1706e-05
2.3415e-06
1.49366e-07
3.82234e-06
-6.09362e-07
3.04368e-05
6.41438e-06
-2.79563e-06
3.04369e-05
3.30727e-06
-2.57266e-06
2.92076e-05
1.65971e-06
-8.17461e-07
2.87355e-05
3.71222e-06
-1.99472e-08
2.92992e-05
4.58399e-06
1.10676e-07
3.04395e-05
5.71632e-06
-2.28609e-06
3.04145e-05
3.04256e-06
-2.30817e-06
2.93567e-05
1.56994e-06
-5.6793e-07
2.89648e-05
3.30293e-06
1.70943e-07
2.93655e-05
4.16737e-06
-2.82206e-08
3.04137e-05
5.89766e-06
-2.59832e-06
3.02085e-05
3.29818e-06
-2.7414e-06
2.89515e-05
2.17852e-06
-9.21746e-07
2.85174e-05
3.99795e-06
2.99814e-08
2.88857e-05
4.86171e-06
7.38674e-08
2.96657e-05
5.99177e-06
-2.2187e-06
2.93329e-05
3.85675e-06
-2.5071e-06
2.83318e-05
3.06354e-06
-7.42561e-07
2.81702e-05
5.08512e-06
2.14772e-07
2.87881e-05
6.13395e-06
-3.41945e-07
2.97595e-05
6.38874e-06
-1.9699e-06
2.96266e-05
3.5691e-06
-1.34332e-06
2.86653e-05
2.34217e-06
1.19956e-06
2.83912e-05
4.35136e-06
1.05768e-06
2.91767e-05
5.323e-06
1.94322e-07
3.05304e-05
5.56589e-06
-2.28791e-06
3.05015e-05
2.77596e-06
-2.71153e-06
2.92816e-05
7.63688e-07
-6.53518e-07
2.89486e-05
2.93492e-06
-1.54417e-07
2.9449e-05
3.86772e-06
-4.91857e-07
3.05392e-05
5.83597e-06
-2.77061e-06
3.06488e-05
3.26209e-06
-3.10382e-06
2.95699e-05
1.47005e-06
-8.6427e-07
2.9138e-05
2.93489e-06
-2.93223e-07
2.94076e-05
3.74332e-06
4.47702e-08
3.04291e-05
5.55436e-06
-2.3763e-06
3.04199e-05
3.28006e-06
-2.30554e-06
2.92227e-05
1.86355e-06
-7.44376e-07
2.87124e-05
3.35295e-06
4.25843e-07
4.64146e-06
2.65316e-07
3.90758e-05
7.14823e-06
-2.15066e-06
3.94762e-05
4.33798e-06
-3.67618e-06
3.78739e-05
2.95563e-06
-1.96779e-06
3.69781e-05
5.30859e-06
-1.24442e-07
3.75005e-05
5.45766e-06
1.30398e-06
3.90895e-05
6.42164e-06
-1.60149e-06
3.93965e-05
4.0317e-06
-3.29079e-06
3.7991e-05
2.93163e-06
-1.64032e-06
3.7258e-05
4.86628e-06
1.96769e-07
3.75981e-05
4.82846e-06
1.27772e-06
3.90843e-05
6.57754e-06
-1.91953e-06
3.92082e-05
4.39046e-06
-3.79726e-06
3.75464e-05
3.58739e-06
-2.04464e-06
3.67238e-05
5.58077e-06
6.8766e-09
3.70565e-05
5.91404e-06
1.21755e-06
3.82175e-05
7.08485e-06
-1.68128e-06
3.8079e-05
5.16914e-06
-3.60729e-06
3.66625e-05
4.6264e-06
-1.88197e-06
3.61687e-05
6.83523e-06
4.39714e-07
3.68205e-05
7.51804e-06
8.37413e-07
3.82205e-05
7.79212e-06
-1.70866e-06
3.83767e-05
5.01572e-06
-2.60676e-06
3.71298e-05
3.82612e-06
3.67118e-07
3.65312e-05
5.73806e-06
1.5945e-06
3.73154e-05
6.04023e-06
1.67362e-06
3.92047e-05
5.96868e-06
-1.40053e-06
3.95892e-05
3.484e-06
-3.61039e-06
3.79541e-05
1.76888e-06
-1.66806e-06
3.72273e-05
4.21536e-06
-3.46567e-08
3.77135e-05
4.29904e-06
7.50833e-07
3.92083e-05
6.29315e-06
-2.10842e-06
3.96967e-05
4.16484e-06
-4.25806e-06
3.83144e-05
2.69503e-06
-2.06007e-06
3.75441e-05
4.26379e-06
-4.40356e-07
3.77114e-05
4.24694e-06
1.18096e-06
3.90833e-05
6.14643e-06
-1.76901e-06
3.94531e-05
4.272e-06
-3.28716e-06
3.79455e-05
3.09872e-06
-1.90342e-06
3.69986e-05
4.7723e-06
3.30026e-07
5.33949e-06
1.70662e-06
4.88476e-05
7.05834e-06
-7.10301e-08
4.99278e-05
4.65626e-06
-4.06663e-06
4.80689e-05
4.2532e-06
-3.60212e-06
4.66295e-05
7.43945e-06
-1.03794e-06
4.69014e-05
6.48008e-06
2.66356e-06
4.88863e-05
6.41103e-06
4.17171e-07
4.97817e-05
4.35142e-06
-3.5578e-06
4.81067e-05
4.35019e-06
-3.19649e-06
4.69336e-05
7.07628e-06
-5.60065e-07
4.70261e-05
5.64385e-06
2.81953e-06
4.88966e-05
6.46192e-06
1.67868e-07
4.96328e-05
4.8733e-06
-4.15188e-06
4.76638e-05
5.03831e-06
-3.65595e-06
4.63229e-05
7.64585e-06
-7.6229e-07
4.64489e-05
7.01164e-06
2.63113e-06
4.79828e-05
7.60354e-06
1.55414e-07
4.82828e-05
5.99186e-06
-4.08731e-06
4.64874e-05
6.20708e-06
-3.65329e-06
4.54978e-05
8.88e-06
-2.18669e-08
4.60103e-05
8.84759e-06
2.45449e-06
4.78302e-05
8.67238e-06
-1.86084e-07
4.85078e-05
6.09736e-06
-3.509e-06
4.7082e-05
5.53267e-06
-1.28201e-06
4.60892e-05
7.52194e-06
1.39338e-06
4.66519e-05
6.72669e-06
3.46233e-06
4.89983e-05
5.50623e-06
9.04764e-07
5.00985e-05
3.37351e-06
-3.69258e-06
4.81579e-05
2.72352e-06
-3.11325e-06
4.68942e-05
6.07913e-06
-6.381e-07
4.71811e-05
4.84142e-06
2.24759e-06
4.90204e-05
5.87466e-06
-4.14471e-08
5.0128e-05
4.26946e-06
-4.66272e-06
4.85508e-05
3.92436e-06
-3.74954e-06
4.73702e-05
6.10459e-06
-1.37788e-06
4.72718e-05
4.81932e-06
2.48051e-06
4.89021e-05
5.98337e-06
1.10186e-07
4.98915e-05
4.62785e-06
-3.58895e-06
4.82167e-05
4.3061e-06
-3.51287e-06
4.67404e-05
6.6846e-06
-6.54117e-07
6.08831e-06
3.3492e-06
5.96595e-05
6.23423e-06
3.34948e-06
6.16419e-05
3.59315e-06
-2.75566e-06
5.9815e-05
4.8337e-06
-5.04947e-06
5.78379e-05
9.66858e-06
-3.03411e-06
5.76181e-05
7.90181e-06
3.296e-06
5.9745e-05
5.80287e-06
3.62059e-06
6.14534e-05
3.3685e-06
-2.17192e-06
5.97273e-05
5.07452e-06
-4.57225e-06
5.81175e-05
9.63788e-06
-2.45406e-06
5.77583e-05
6.97145e-06
3.67853e-06
5.97508e-05
5.63478e-06
3.52936e-06
6.13449e-05
4.0967e-06
-2.84063e-06
5.93415e-05
5.88137e-06
-5.14709e-06
5.74511e-05
9.77273e-06
-2.61454e-06
5.71598e-05
8.28016e-06
3.47772e-06
5.88881e-05
7.42822e-06
3.34051e-06
5.98764e-05
5.70212e-06
-2.93606e-06
5.79021e-05
7.15834e-06
-5.46684e-06
5.63238e-05
1.09798e-05
-1.77368e-06
5.64603e-05
1.01278e-05
3.72695e-06
5.85189e-05
8.82014e-06
2.81061e-06
5.99267e-05
6.16786e-06
-3.01338e-06
5.85572e-05
6.8293e-06
-3.29089e-06
5.72312e-05
9.43916e-06
-1.92625e-08
5.73414e-05
7.70747e-06
4.60849e-06
5.98195e-05
4.35347e-06
4.44656e-06
6.18692e-05
1.84744e-06
-2.03569e-06
5.99244e-05
2.87729e-06
-4.33456e-06
5.80987e-05
8.13781e-06
-2.27156e-06
5.79611e-05
5.87335e-06
3.159e-06
5.98787e-05
4.76692e-06
3.33751e-06
6.1788e-05
2.93109e-06
-3.33186e-06
6.02675e-05
4.40769e-06
-5.25432e-06
5.87223e-05
8.14204e-06
-3.38607e-06
5.8202e-05
5.75176e-06
3.08617e-06
5.9813e-05
5.15451e-06
3.14992e-06
6.15934e-05
3.76688e-06
-2.30837e-06
6.00406e-05
4.80893e-06
-4.88631e-06
5.80955e-05
8.68521e-06
-2.848e-06
7.1831e-06
4.21076e-06
7.15165e-05
5.28113e-06
6.95201e-06
7.42971e-05
1.13173e-06
6.81209e-07
7.29129e-05
3.964e-06
-5.09678e-06
7.06308e-05
1.11194e-05
-5.67448e-06
6.98377e-05
9.57381e-06
2.20835e-06
7.16632e-05
5.10985e-06
6.91174e-06
7.41434e-05
1.06286e-06
1.23683e-06
7.26899e-05
4.30663e-06
-4.56591e-06
7.08215e-05
1.15825e-05
-5.05564e-06
6.99746e-05
8.80034e-06
2.80148e-06
7.16362e-05
4.63589e-06
7.07651e-06
7.40414e-05
1.96449e-06
5.70379e-07
7.24149e-05
5.41478e-06
-5.34825e-06
7.01506e-05
1.12303e-05
-5.23741e-06
6.93413e-05
9.5884e-06
2.694e-06
7.09019e-05
6.78671e-06
6.87199e-06
7.26208e-05
4.09303e-06
4.23742e-07
7.08329e-05
6.77153e-06
-6.05704e-06
6.87611e-05
1.23446e-05
-4.56488e-06
6.83637e-05
1.11694e-05
3.44638e-06
7.0277e-05
8.34028e-06
6.4319e-06
7.24067e-05
4.95393e-06
-3.57683e-07
7.14164e-05
6.93545e-06
-4.4476e-06
6.99916e-05
1.08987e-05
-2.68897e-06
6.96176e-05
9.00192e-06
3.98396e-06
7.16934e-05
3.21313e-06
7.98843e-06
7.45764e-05
-9.38706e-07
1.64286e-06
7.30628e-05
1.51132e-06
-4.19689e-06
7.0881e-05
9.50613e-06
-4.56932e-06
7.02542e-05
7.39222e-06
2.45428e-06
7.17819e-05
3.67201e-06
6.90991e-06
7.43631e-05
2.66826e-07
1.41069e-07
7.32395e-05
3.35745e-06
-5.3477e-06
7.15622e-05
9.53334e-06
-6.02018e-06
7.06503e-05
6.98442e-06
2.05937e-06
7.1818e-05
4.18097e-06
6.30913e-06
7.4263e-05
1.70325e-06
9.15076e-07
7.31923e-05
3.93803e-06
-4.82574e-06
7.10725e-05
9.92157e-06
-5.71383e-06
8.55903e-06
3.20779e-06
8.46454e-05
4.8299e-06
8.68909e-06
8.75867e-05
-1.5987e-06
5.15273e-06
8.68978e-05
1.75569e-06
-2.89424e-06
8.47494e-05
1.0919e-05
-7.56015e-06
8.36722e-05
1.04606e-05
-6.4623e-07
8.48298e-05
4.83129e-06
8.30085e-06
8.75806e-05
-1.54594e-06
5.56351e-06
8.66154e-05
2.09339e-06
-2.36119e-06
8.48065e-05
1.18336e-05
-6.97221e-06
8.37756e-05
1.01484e-05
7.17262e-08
8.47501e-05
4.10463e-06
8.73252e-06
8.74236e-05
-6.79407e-07
5.1238e-06
8.64676e-05
3.60848e-06
-3.32939e-06
8.4226e-05
1.1252e-05
-7.34549e-06
8.30951e-05
1.01146e-05
2.20136e-08
8.41541e-05
6.07307e-06
8.67844e-06
8.62231e-05
1.75755e-06
5.18945e-06
8.49511e-05
4.96503e-06
-4.27163e-06
8.27258e-05
1.2296e-05
-7.11639e-06
8.19201e-05
1.1305e-05
1.04494e-06
8.32936e-05
7.53587e-06
8.60555e-06
8.57158e-05
2.93433e-06
3.86562e-06
8.53233e-05
5.58291e-06
-3.50648e-06
8.41256e-05
1.1023e-05
-5.20182e-06
8.35851e-05
9.80444e-06
1.3417e-06
8.48568e-05
2.7899e-06
9.45605e-06
8.79244e-05
-3.65204e-06
6.06957e-06
8.71212e-05
-1.11466e-06
-1.99772e-06
8.49925e-05
9.21156e-06
-6.24119e-06
8.41802e-05
8.39367e-06
5.37992e-09
8.49669e-05
3.28507e-06
8.64117e-06
8.75854e-05
-2.53189e-06
4.73802e-06
8.7016e-05
9.04533e-07
-3.16381e-06
8.55643e-05
9.34834e-06
-7.85629e-06
8.4636e-05
7.60408e-06
-6.26035e-07
8.5086e-05
3.61512e-06
7.72286e-06
8.76149e-05
-6.45097e-07
5.06094e-06
8.71915e-05
1.84211e-06
-2.53071e-06
8.53488e-05
9.52617e-06
-7.75515e-06
9.25084e-06
2.77488e-07
9.92336e-05
4.5903e-06
7.42254e-06
0.000101494
-3.1057e-06
8.11251e-06
0.000101268
-2.57851e-07
6.41199e-07
9.96327e-05
9.19539e-06
-7.16148e-06
9.88313e-05
9.7418e-06
-3.97201e-06
9.93867e-05
4.61477e-06
6.72415e-06
0.00010169
-3.08141e-06
8.26977e-06
0.000101082
-1.17838e-07
1.11755e-06
9.95882e-05
1.02548e-05
-6.65067e-06
9.88703e-05
1.00129e-05
-3.28482e-06
9.92602e-05
3.84177e-06
7.30663e-06
0.000101443
-2.46261e-06
8.17962e-06
0.00010101
1.71035e-06
1.41587e-07
9.91911e-05
9.87036e-06
-7.32472e-06
9.8203e-05
9.36117e-06
-3.47516e-06
9.87791e-05
5.1781e-06
7.36037e-06
0.000100568
-1.24156e-07
8.64734e-06
9.97887e-05
2.86241e-06
-6.3044e-07
9.78335e-05
1.08989e-05
-7.63671e-06
9.70388e-05
1.00898e-05
-2.45255e-06
9.78246e-05
6.37781e-06
7.65476e-06
9.98465e-05
1.2044e-06
7.19696e-06
9.98909e-05
3.70505e-06
-7.3608e-07
9.91312e-05
9.62416e-06
-5.85767e-06
9.88756e-05
9.17775e-06
-2.03295e-06
9.94571e-05
2.80895e-06
7.78453e-06
0.000101871
-4.7777e-06
8.71424e-06
0.000101594
-3.29713e-06
1.28944e-06
9.98832e-05
7.32436e-06
-5.89228e-06
9.93862e-05
7.90144e-06
-3.02593e-06
9.96228e-05
3.27808e-06
7.35946e-06
0.00010151
-3.92826e-06
7.83171e-06
0.0001012
-1.27741e-06
3.57581e-07
0.000100173
7.62745e-06
-7.33843e-06
9.97482e-05
6.85645e-06
-3.70331e-06
9.97011e-05
3.21021e-06
6.4082e-06
0.000101604
-1.9976e-06
7.70601e-06
0.00010154
-1.13993e-08
1.02484e-06
0.000100271
7.65402e-06
-7.37814e-06
8.42907e-06
-3.18223e-06
0.000114792
3.71093e-06
4.36551e-06
0.000116022
-3.10802e-06
7.90043e-06
0.000115824
-8.74256e-07
3.4281e-06
0.000114766
7.17771e-06
-4.54633e-06
0.000114541
7.49832e-06
-5.36533e-06
0.000114876
3.66009e-06
3.50607e-06
0.000116327
-3.26482e-06
7.77632e-06
0.000115827
-1.05634e-06
3.70977e-06
0.000114719
7.99415e-06
-4.15046e-06
0.000114519
8.22923e-06
-4.86003e-06
0.000114736
3.0626e-06
4.02387e-06
0.00011605
-2.96754e-06
8.00053e-06
0.000115759
7.68472e-07
3.10098e-06
0.000114515
8.05093e-06
-4.97781e-06
0.000113996
7.39071e-06
-5.26966e-06
0.000114392
3.68933e-06
3.95933e-06
0.000115543
-1.09368e-06
8.72198e-06
0.000114992
1.68325e-06
2.70843e-06
0.000113553
9.04037e-06
-5.63141e-06
0.000113113
7.86478e-06
-4.70252e-06
0.000113616
4.62537e-06
4.32708e-06
0.000114829
2.53244e-07
7.46375e-06
0.000114899
2.5301e-06
1.85872e-06
0.000114512
7.55491e-06
-4.24654e-06
0.000114661
7.21124e-06
-3.92876e-06
0.000114984
2.36407e-06
4.31998e-06
0.000116351
-4.19776e-06
8.0812e-06
0.000116194
-3.69837e-06
3.57011e-06
0.000115023
5.15634e-06
-3.65555e-06
0.000115009
5.88985e-06
-4.37419e-06
0.000115207
2.71433e-06
4.21328e-06
0.00011614
-3.74154e-06
7.73583e-06
0.000115738
-1.93268e-06
3.15296e-06
0.000115024
5.61284e-06
-4.59515e-06
0.000115177
4.83328e-06
-4.89303e-06
0.000115126
2.30534e-06
3.54298e-06
0.000116158
-2.151e-06
7.35337e-06
0.000116047
-5.5211e-07
3.67459e-06
0.000115268
5.60403e-06
-4.69702e-06
6.20892e-06
-4.79791e-06
0.000130175
2.27638e-06
1.89943e-06
0.000130588
-2.52104e-06
5.47504e-06
0.000130376
-4.91449e-07
3.81181e-06
0.000129861
5.64648e-06
-1.61671e-06
0.000129989
5.14169e-06
-4.24526e-06
0.000130248
2.11197e-06
1.09538e-06
0.000130834
-2.85781e-06
5.16312e-06
0.000130471
-9.58536e-07
3.84716e-06
0.000129866
6.009e-06
-1.35671e-06
0.000129948
6.01902e-06
-3.91749e-06
0.000130116
1.80478e-06
1.42099e-06
0.000130636
-2.82154e-06
5.52845e-06
0.000130417
6.17923e-07
3.67578e-06
0.000129792
6.47907e-06
-2.07515e-06
0.000129652
5.32564e-06
-4.41635e-06
0.000129959
1.89461e-06
1.15074e-06
0.000130467
-1.49582e-06
6.08252e-06
0.000130108
1.19678e-06
3.72127e-06
0.000129318
7.32666e-06
-2.71395e-06
0.000129195
5.64278e-06
-4.3615e-06
0.000129575
2.60804e-06
1.24493e-06
0.000130056
-2.53738e-07
5.16032e-06
0.000130006
1.95415e-06
2.52235e-06
0.000129846
5.68007e-06
-1.90776e-06
0.000130098
5.02046e-06
-3.37477e-06
0.00013035
1.35469e-06
1.58213e-06
0.000130812
-3.05514e-06
5.37618e-06
0.00013066
-2.76368e-06
3.50375e-06
0.000130058
3.63942e-06
-1.27472e-06
0.00013023
3.71273e-06
-3.44557e-06
0.000130519
1.58732e-06
1.60042e-06
0.00013077
-2.97919e-06
5.38423e-06
0.000130406
-1.494e-06
3.53874e-06
0.000129972
4.14097e-06
-1.60251e-06
0.000130258
2.8852e-06
-3.73854e-06
0.000130303
1.10499e-06
1.32844e-06
0.000130668
-1.86618e-06
4.9725e-06
0.000130537
-1.85002e-07
3.8726e-06
0.000130113
4.21541e-06
-1.69525e-06
3.98523e-06
-3.88139e-06
0.000144828
1.14032e-06
9.46083e-07
0.00014478
-2.00462e-06
3.00649e-06
0.000144681
-1.64062e-07
2.60333e-06
0.000144663
4.38486e-06
5.98532e-08
0.000144884
3.51394e-06
-2.17759e-06
0.000144936
1.02182e-06
3.184e-07
0.000144895
-2.39905e-06
2.66892e-06
0.000144723
-7.23954e-07
2.45452e-06
0.00014467
4.35159e-06
2.17128e-07
0.00014485
4.31264e-06
-1.91781e-06
0.000144818
9.07697e-07
5.22096e-07
0.000144775
-2.48555e-06
3.04735e-06
0.000144706
5.38887e-07
2.57248e-06
0.000144695
5.05256e-06
-2.92887e-07
0.000144756
3.86392e-06
-2.33762e-06
0.000144799
7.64435e-07
1.78782e-07
0.000144795
-1.5857e-06
3.22241e-06
0.000144692
8.177e-07
2.75433e-06
0.000144566
5.66859e-06
-7.47319e-07
0.000144602
3.99823e-06
-2.57892e-06
0.000144726
1.20612e-06
-7.10601e-08
0.000144743
-5.66385e-07
2.58312e-06
0.000144709
1.45311e-06
1.62424e-06
0.00014474
4.12902e-06
-4.02468e-07
0.00014491
3.4167e-06
-1.68693e-06
0.000145003
4.98683e-07
5.38262e-07
0.000144934
-2.16966e-06
2.87628e-06
0.000144854
-1.76906e-06
2.12032e-06
0.000144744
2.61641e-06
-2.22911e-08
0.000144888
2.24817e-06
-1.65948e-06
0.00014504
6.8857e-07
5.18277e-07
0.000144913
-2.30815e-06
2.97095e-06
0.000144791
-1.01713e-06
2.35905e-06
0.000144709
3.03055e-06
7.65226e-08
0.000144895
1.71285e-06
-1.80587e-06
0.000144823
3.53354e-07
5.21257e-07
0.000144789
-1.63346e-06
2.62179e-06
0.000144787
1.2627e-07
2.52464e-06
0.000144719
3.22978e-06
3.13501e-08
2.5505e-06
-1.96699e-06
0.000159565
6.03065e-07
7.42266e-07
0.000159319
-1.6473e-06
1.49171e-06
0.000159279
-1.14598e-07
1.39365e-06
0.000159516
3.26697e-06
5.79936e-07
0.000159813
2.41851e-06
-7.56304e-07
0.000159674
5.24189e-07
2.65465e-07
0.000159357
-2.0122e-06
1.21872e-06
0.000159256
-5.95835e-07
1.173e-06
0.000159473
3.03432e-06
6.79067e-07
0.000159768
3.06015e-06
-4.63275e-07
0.000159572
5.35852e-07
4.53334e-07
0.000159253
-2.08681e-06
1.58514e-06
0.000159248
4.0165e-07
1.39261e-06
0.000159574
3.76263e-06
3.42816e-07
0.000159792
2.84837e-06
-7.78983e-07
0.000159607
3.36163e-07
1.36217e-07
0.000159322
-1.45172e-06
1.4743e-06
0.000159339
4.65857e-07
1.51155e-06
0.000159579
4.14255e-06
-1.11965e-08
0.000159737
2.79197e-06
-1.12086e-06
0.000159615
5.58524e-07
-3.47059e-07
0.000159408
-7.09012e-07
1.02627e-06
0.000159433
9.54962e-07
6.33128e-07
0.000159593
2.89472e-06
1.48144e-07
0.000159775
2.32643e-06
-4.13527e-07
0.000159717
1.03141e-07
3.61563e-07
0.000159437
-1.61151e-06
1.46667e-06
0.000159425
-1.16894e-06
9.73171e-07
0.000159536
1.86098e-06
3.19688e-07
0.000159695
1.32468e-06
-4.23844e-07
0.000159674
2.75416e-07
2.48604e-07
0.000159383
-1.81084e-06
1.51785e-06
0.000159405
-7.68104e-07
1.19211e-06
0.00015952
2.15681e-06
5.53482e-07
0.000159724
1.0212e-06
-5.26057e-07
0.000159516
1.06769e-07
3.61967e-07
0.000159295
-1.48152e-06
1.21602e-06
0.000159359
1.73091e-07
1.25506e-06
0.000159512
2.40659e-06
5.89757e-07
1.65741e-06
-6.34708e-07
0.000175406
4.02117e-07
6.41586e-07
0.000175105
-1.37919e-06
7.59358e-07
0.000175062
-1.46314e-07
7.41937e-07
0.000175334
2.39432e-06
6.02893e-07
0.000175694
1.57592e-06
-1.86666e-07
0.000175491
3.28528e-07
2.62092e-07
0.000175121
-1.68656e-06
5.6917e-07
0.000175024
-4.89125e-07
5.20034e-07
0.00017525
2.10827e-06
6.79067e-07
0.000175625
2.06521e-06
1.31743e-07
0.000175402
4.14624e-07
4.48634e-07
0.000175019
-1.69221e-06
9.16033e-07
0.000175002
3.17632e-07
7.41491e-07
0.000175382
2.74027e-06
4.52928e-07
0.000175698
2.03958e-06
-9.84544e-08
0.000175455
2.26336e-07
1.74818e-07
0.000175094
-1.21304e-06
6.69418e-07
0.000175107
2.44767e-07
7.80945e-07
0.000175413
2.93048e-06
1.1606e-07
0.000175653
1.84759e-06
-4.53907e-07
0.000175451
3.01983e-07
-3.40316e-07
0.000175169
-7.1103e-07
3.37061e-07
0.00017521
5.57822e-07
1.26582e-07
0.0001754
2.0079e-06
2.29511e-07
0.00017564
1.53055e-06
1.10469e-07
0.000175528
-8.52516e-09
3.17769e-07
0.000175198
-1.22694e-06
8.4148e-07
0.000175218
-8.21949e-07
4.47466e-07
0.000175358
1.34701e-06
3.21486e-07
0.000175552
6.66809e-07
7.67944e-08
0.000175467
1.13305e-07
1.47032e-07
0.000175135
-1.43072e-06
8.41905e-07
0.000175188
-6.23905e-07
5.78683e-07
0.00017532
1.54018e-06
5.57794e-07
0.000175586
4.99836e-07
-7.24934e-09
0.000175353
7.23562e-08
2.90099e-07
0.000175074
-1.34348e-06
5.80754e-07
0.000175135
1.23482e-07
5.915e-07
0.000175335
1.75015e-06
6.3765e-07
9.98163e-07
-1.05637e-07
0.000192811
3.28374e-07
5.27884e-07
0.000192516
-1.14097e-06
4.12987e-07
0.000192483
-1.81525e-07
4.5342e-07
0.000192706
1.77059e-06
4.88245e-07
0.000193064
9.18599e-07
-5.86513e-08
0.000192873
2.48233e-07
2.12637e-07
0.000192526
-1.3893e-06
3.00069e-07
0.000192454
-4.01844e-07
2.5828e-07
0.000192612
1.5026e-06
5.50816e-07
0.00019298
1.28783e-06
2.43676e-07
0.000192793
3.68117e-07
3.73293e-07
0.000192434
-1.33195e-06
6.16943e-07
0.000192421
2.72649e-07
4.50243e-07
0.00019274
2.00676e-06
4.00849e-07
0.000193067
1.3954e-06
7.69625e-08
0.000192852
2.13503e-07
1.43381e-07
0.000192515
-9.55905e-07
3.26073e-07
0.00019252
1.23734e-07
4.4372e-07
0.000192772
2.06872e-06
5.3381e-08
0.000193021
1.12923e-06
-2.42429e-07
0.00019284
2.03115e-07
-3.25332e-07
0.000192554
-6.28566e-07
5.97556e-08
0.000192603
2.77472e-07
-4.62883e-08
0.000192765
1.4275e-06
1.61069e-07
0.000193011
9.51001e-07
2.07574e-07
0.000192915
-1.29744e-08
2.4926e-07
0.00019259
-9.08862e-07
5.58422e-07
0.000192639
-6.17063e-07
2.76487e-07
0.000192751
1.03316e-06
2.41434e-07
0.000192932
2.06106e-07
1.87705e-07
0.000192859
4.35331e-08
6.69927e-08
0.000192532
-1.11392e-06
5.38477e-07
0.000192603
-5.4092e-07
3.27543e-07
0.000192691
1.14347e-06
4.4573e-07
0.00019296
1.03815e-07
1.03514e-07
0.000192766
9.03336e-08
2.12164e-07
0.000192482
-1.17599e-06
3.21169e-07
0.000192553
4.91835e-08
3.12078e-07
0.000192715
1.28902e-06
5.40906e-07
4.93406e-07
8.28657e-09
0.000211965
2.92526e-07
4.24181e-07
0.000211686
-9.01004e-07
2.25585e-07
0.000211684
-2.24912e-07
3.03478e-07
0.000211848
1.35384e-06
3.61687e-07
0.000212155
4.38553e-07
-6.74544e-08
0.000212009
2.10828e-07
1.59435e-07
0.000211689
-1.09658e-06
1.76272e-07
0.000211664
-3.61534e-07
1.43413e-07
0.000211762
1.12682e-06
4.13683e-07
0.000212066
7.14287e-07
2.11795e-07
0.000211934
3.37838e-07
2.77442e-07
0.00021161
-1.00166e-06
4.57807e-07
0.000211627
2.20117e-07
3.0074e-07
0.000211869
1.49856e-06
3.12274e-07
0.000212156
9.10385e-07
9.01121e-08
0.000211992
2.26669e-07
9.26433e-08
0.000211699
-7.08632e-07
1.64093e-07
0.00021172
4.28764e-08
2.74157e-07
0.000211904
1.48944e-06
-3.1866e-08
0.000212111
6.24849e-07
-1.82797e-07
0.000211988
1.62085e-07
-3.07072e-07
0.000211717
-4.94198e-07
-5.71002e-08
0.000211777
7.37615e-08
-8.91571e-08
0.000211904
1.06824e-06
6.84792e-08
0.000212104
5.4913e-07
1.80003e-07
0.000212058
1.12631e-09
1.80078e-07
0.000211749
-6.19151e-07
3.9882e-07
0.000211822
-5.09872e-07
2.22799e-07
0.000211913
8.4947e-07
1.5425e-07
0.000212038
-8.13687e-08
1.89745e-07
0.000212013
-9.41396e-10
1.02158e-08
0.000211697
-8.25905e-07
3.75603e-07
0.000211788
-5.14001e-07
2.17913e-07
0.000211841
9.02016e-07
3.24173e-07
0.00021206
-1.65065e-07
1.07495e-07
0.000211929
1.0483e-07
1.43668e-07
0.00021165
-9.66526e-07
2.03702e-07
0.000211746
-4.36664e-08
1.7788e-07
0.00021186
9.94875e-07
4.22254e-07
1.35714e-07
-3.71113e-09
0.000233023
2.49089e-07
3.38692e-07
0.000232755
-6.51813e-07
1.14011e-07
0.000232783
-2.80744e-07
2.01163e-07
0.000232906
1.07656e-06
2.62918e-07
0.000233138
1.19157e-07
-9.26048e-08
0.000233054
1.73263e-07
1.18718e-07
0.000232753
-8.0242e-07
1.12619e-07
0.000232769
-3.69197e-07
7.70411e-08
0.000232832
8.95566e-07
3.05438e-07
0.000233047
3.27646e-07
1.61057e-07
0.000232983
2.94657e-07
1.93663e-07
0.000232685
-6.93945e-07