/*--------------------------------*- C++ -*----------------------------------*\
  =========                 |
  \\      /  F ield         | OpenFOAM: The Open Source CFD Toolbox
   \\    /   O peration     | Website:  https://openfoam.org
    \\  /    A nd           | Version:  10
     \\/     M anipulation  |
\*---------------------------------------------------------------------------*/
FoamFile
{
    format      ascii;
    class       volScalarField;
    location    "18";
    object      pMean;
}
// * * * * * * * * * * * * * * * * * * * * * * * * * * * * * * * * * * * * * //

dimensions      [0 2 -2 0 0 0 0];

internalField   nonuniform List<scalar> 
102400
(
-6.29105e-05
-3.03674e-05
4.97192e-05
7.18462e-05
4.42297e-05
-4.85189e-05
-1.57971e-05
4.76081e-05
6.68472e-05
2.09293e-05
-6.00232e-05
3.94505e-06
6.25937e-05
9.2895e-05
4.47805e-05
-6.23887e-05
-3.74168e-05
5.19212e-05
8.16341e-05
1.3973e-05
-8.56583e-05
-4.01341e-05
2.67561e-05
6.08139e-05
2.94134e-05
-5.88535e-05
-3.6969e-05
5.69589e-05
8.53771e-05
4.32064e-05
-4.18412e-05
-2.82169e-05
4.62189e-05
8.08371e-05
3.6751e-05
-4.74207e-05
-2.31313e-05
6.06037e-05
8.51422e-05
2.10952e-05
-6.17179e-05
-3.04684e-05
4.9296e-05
7.21549e-05
4.51456e-05
-4.74691e-05
-1.57666e-05
4.77162e-05
6.68063e-05
2.18892e-05
-5.89603e-05
3.46179e-06
6.2187e-05
9.32602e-05
4.57782e-05
-6.08225e-05
-3.7854e-05
5.17164e-05
8.20146e-05
1.53725e-05
-8.43856e-05
-3.98496e-05
2.68183e-05
6.13969e-05
3.02154e-05
-5.77593e-05
-3.72515e-05
5.66565e-05
8.57906e-05
4.42783e-05
-4.05512e-05
-2.79515e-05
4.60523e-05
8.1188e-05
3.77324e-05
-4.6259e-05
-2.33755e-05
6.00648e-05
8.57637e-05
2.2007e-05
-6.13758e-05
-3.08287e-05
4.96356e-05
7.37532e-05
4.70207e-05
-4.68763e-05
-1.57453e-05
4.85538e-05
6.81196e-05
2.37604e-05
-5.8467e-05
2.83071e-06
6.25324e-05
9.51177e-05
4.79442e-05
-5.96027e-05
-3.7674e-05
5.23751e-05
8.40768e-05
1.75773e-05
-8.40846e-05
-3.997e-05
2.76657e-05
6.31158e-05
3.21487e-05
-5.73632e-05
-3.76583e-05
5.70037e-05
8.77449e-05
4.61791e-05
-3.98406e-05
-2.77941e-05
4.6787e-05
8.25119e-05
3.93599e-05
-4.58085e-05
-2.38915e-05
6.03725e-05
8.82138e-05
2.40164e-05
-6.09344e-05
-3.05638e-05
5.16572e-05
7.61172e-05
4.86107e-05
-4.63963e-05
-1.5228e-05
5.0426e-05
7.02878e-05
2.59126e-05
-5.84539e-05
3.05914e-06
6.44703e-05
9.68656e-05
4.92598e-05
-5.89252e-05
-3.7167e-05
5.42558e-05
8.55997e-05
1.96089e-05
-8.32822e-05
-3.96121e-05
2.90549e-05
6.52049e-05
3.39394e-05
-5.60251e-05
-3.70341e-05
5.84572e-05
8.94467e-05
4.84158e-05
-3.90687e-05
-2.77919e-05
4.84848e-05
8.49514e-05
4.17461e-05
-4.48937e-05
-2.3159e-05
6.1575e-05
8.98644e-05
2.60861e-05
-5.90424e-05
-2.90668e-05
5.34907e-05
7.73079e-05
5.05341e-05
-4.31174e-05
-1.30191e-05
5.28709e-05
7.22478e-05
2.77139e-05
-5.61219e-05
4.69573e-06
6.65788e-05
9.90903e-05
5.05847e-05
-5.66964e-05
-3.35115e-05
5.60506e-05
8.71849e-05
2.05017e-05
-8.18298e-05
-3.66075e-05
3.13065e-05
6.58493e-05
3.58323e-05
-5.38791e-05
-3.54175e-05
5.95456e-05
9.16636e-05
4.98103e-05
-3.72065e-05
-2.65555e-05
5.00799e-05
8.57917e-05
4.2985e-05
-4.17757e-05
-1.96844e-05
6.23385e-05
8.95456e-05
2.95287e-05
-5.48575e-05
-2.70555e-05
5.27606e-05
7.57663e-05
5.05966e-05
-4.11245e-05
-1.0685e-05
5.19032e-05
7.09243e-05
2.98982e-05
-5.08866e-05
5.15209e-06
6.59452e-05
9.7139e-05
5.01205e-05
-5.32512e-05
-2.96387e-05
5.43688e-05
8.30621e-05
2.07657e-05
-7.94971e-05
-3.68895e-05
3.05948e-05
6.26889e-05
3.75296e-05
-5.00917e-05
-3.19988e-05
5.66757e-05
8.7034e-05
5.08795e-05
-3.48386e-05
-2.65076e-05
4.79258e-05
8.44084e-05
4.53582e-05
-3.88018e-05
-1.91187e-05
6.06101e-05
8.52208e-05
3.05367e-05
-5.08119e-05
-2.53533e-05
4.53311e-05
6.63469e-05
5.26562e-05
-3.62267e-05
-8.73419e-06
4.65846e-05
6.4502e-05
3.00937e-05
-4.62688e-05
7.25407e-06
5.90931e-05
8.83025e-05
4.85269e-05
-4.86788e-05
-2.7972e-05
4.46237e-05
7.06014e-05
1.98355e-05
-7.56024e-05
-3.65067e-05
2.41224e-05
5.67682e-05
3.73357e-05
-4.59956e-05
-3.1157e-05
4.73625e-05
7.86694e-05
5.02483e-05
-3.1523e-05
-2.68589e-05
4.09364e-05
7.55817e-05
4.47222e-05
-3.56593e-05
-1.79796e-05
5.16079e-05
7.42207e-05
3.22641e-05
-4.58364e-05
-2.96526e-05
3.2184e-05
5.11311e-05
4.74e-05
-3.23564e-05
-9.63071e-06
3.36321e-05
4.90597e-05
3.00402e-05
-3.89632e-05
4.41884e-06
4.67886e-05
7.07221e-05
4.23092e-05
-4.34511e-05
-2.74232e-05
2.66508e-05
5.02088e-05
1.46276e-05
-6.99228e-05
-3.67285e-05
1.26197e-05
4.31163e-05
3.43926e-05
-3.85741e-05
-3.13374e-05
3.20182e-05
6.12525e-05
4.49819e-05
-2.84713e-05
-2.93319e-05
2.69269e-05
5.83729e-05
4.02801e-05
-3.10611e-05
-1.98877e-05
3.66887e-05
5.60644e-05
2.84831e-05
-3.88297e-05
-2.88388e-05
1.58325e-05
3.12049e-05
3.91126e-05
-2.63159e-05
-1.15782e-05
1.89509e-05
3.13345e-05
2.43346e-05
-3.1204e-05
3.12956e-06
3.0818e-05
4.98409e-05
3.19337e-05
-3.86046e-05
-3.10431e-05
5.38046e-06
2.5176e-05
5.69326e-06
-6.21317e-05
-3.73938e-05
-2.3847e-06
2.47153e-05
2.73096e-05
-3.11417e-05
-3.01508e-05
1.53944e-05
4.0641e-05
3.61533e-05
-2.3789e-05
-2.98308e-05
9.89848e-06
3.52888e-05
3.03877e-05
-2.62951e-05
-2.07455e-05
1.81159e-05
3.26545e-05
1.8788e-05
-3.19312e-05
-2.74279e-05
3.38873e-06
8.30501e-06
2.57342e-05
-2.14853e-05
-1.12497e-05
6.08548e-06
1.04886e-05
1.5529e-05
-2.37947e-05
1.00963e-06
1.59535e-05
2.57265e-05
2.02606e-05
-3.28027e-05
-3.1517e-05
-1.18971e-05
1.58151e-06
-3.4781e-06
-5.37147e-05
-3.59026e-05
-1.39755e-05
4.3124e-06
1.7778e-05
-2.43076e-05
-2.69368e-05
1.38885e-06
1.85133e-05
2.47391e-05
-1.78512e-05
-2.75136e-05
-3.86795e-06
1.20096e-05
1.96112e-05
-2.01928e-05
-1.96776e-05
2.75151e-06
8.03316e-06
7.66182e-06
-2.52672e-05
-2.23749e-05
-3.61946e-06
-8.00412e-06
1.42231e-05
-1.64184e-05
-1.00856e-05
-1.39242e-06
-3.91639e-06
7.31468e-06
-1.72025e-05
2.01203e-06
6.8984e-06
8.01009e-06
9.28275e-06
-2.70737e-05
-2.84519e-05
-2.00693e-05
-1.60546e-05
-1.22103e-05
-4.43152e-05
-3.01663e-05
-1.92232e-05
-9.66528e-06
7.56846e-06
-1.92418e-05
-2.19668e-05
-5.81915e-06
2.48031e-06
1.44353e-05
-1.28079e-05
-2.36019e-05
-1.0646e-05
-3.66993e-06
8.4067e-06
-1.54074e-05
-1.61748e-05
-5.02765e-06
-8.02046e-06
-2.28048e-06
-1.85192e-05
-1.67933e-05
-4.33414e-06
-1.2354e-05
6.48637e-06
-1.13495e-05
-8.03041e-06
-3.61302e-06
-7.96962e-06
2.52626e-06
-1.13039e-05
2.82941e-06
2.91608e-06
8.09528e-07
3.34274e-06
-2.06446e-05
-2.36109e-05
-2.03381e-05
-2.02136e-05
-1.48198e-05
-3.46887e-05
-2.3183e-05
-1.79752e-05
-1.34856e-05
1.90661e-06
-1.37083e-05
-1.6762e-05
-7.18071e-06
-3.59556e-06
8.0523e-06
-8.06062e-06
-1.78736e-05
-1.05639e-05
-8.48928e-06
3.44947e-06
-1.00276e-05
-1.20143e-05
-6.42215e-06
-1.25671e-05
-6.77241e-06
-1.14577e-05
-1.15894e-05
-2.85096e-06
-1.02344e-05
5.65906e-06
-6.09706e-06
-5.6123e-06
-3.25044e-06
-6.68824e-06
2.32178e-06
-6.20941e-06
4.50005e-06
2.44898e-06
4.00814e-08
2.44597e-06
-1.39487e-05
-1.80164e-05
-1.65133e-05
-1.7126e-05
-1.20452e-05
-2.4759e-05
-1.64117e-05
-1.42047e-05
-1.11903e-05
1.42063e-06
-8.03408e-06
-1.19153e-05
-5.83536e-06
-3.33158e-06
6.51117e-06
-2.89932e-06
-1.24732e-05
-7.9103e-06
-6.65936e-06
3.50804e-06
-4.4167e-06
-7.70218e-06
-4.74873e-06
-1.01042e-05
-5.19703e-06
-5.30288e-06
-7.05516e-06
-7.11521e-07
-6.47064e-06
6.3464e-06
-1.49007e-06
-3.00297e-06
-1.73363e-06
-3.84267e-06
3.23388e-06
-2.11534e-06
5.73128e-06
2.8101e-06
1.11578e-06
3.52107e-06
-7.90834e-06
-1.24876e-05
-1.17996e-05
-1.22193e-05
-7.69195e-06
-1.60844e-05
-1.06594e-05
-1.02603e-05
-7.6824e-06
2.52084e-06
-3.12454e-06
-7.59035e-06
-3.76735e-06
-1.61661e-06
6.4043e-06
1.22466e-06
-7.59891e-06
-4.57106e-06
-3.59822e-06
5.1733e-06
4.69796e-07
-3.73422e-06
-2.04513e-06
-5.99885e-06
-1.95719e-06
-1.35505e-06
-3.85113e-06
8.51664e-07
-3.69456e-06
6.30279e-06
1.39963e-06
-9.37275e-07
-2.11328e-07
-1.78472e-06
3.32644e-06
2.04585e-07
6.16091e-06
3.08803e-06
1.7346e-06
3.42412e-06
-3.9575e-06
-8.35898e-06
-8.10725e-06
-8.44772e-06
-5.13307e-06
-1.00962e-05
-6.70707e-06
-7.37059e-06
-5.07108e-06
2.57714e-06
-1.99149e-07
-4.50355e-06
-2.25135e-06
-4.03351e-07
5.41393e-06
3.55656e-06
-4.01891e-06
-2.14156e-06
-1.35409e-06
5.42069e-06
3.25255e-06
-9.78393e-07
4.95828e-08
-2.88184e-06
-1.88569e-07
5.60681e-07
-1.96077e-06
1.4533e-06
-2.27632e-06
5.19591e-06
2.57116e-06
2.77132e-07
5.3557e-07
-7.07904e-07
2.78656e-06
1.11265e-06
5.75661e-06
2.72982e-06
1.4549e-06
2.47342e-06
-1.98039e-06
-5.73703e-06
-5.82307e-06
-6.24055e-06
-3.98309e-06
-6.607e-06
-4.3361e-06
-5.56727e-06
-3.70275e-06
1.81033e-06
9.05006e-07
-2.72661e-06
-1.57508e-06
-5.62336e-08
3.87545e-06
4.18073e-06
-1.85831e-06
-8.32661e-07
-4.24595e-07
4.67256e-06
4.26634e-06
5.42083e-07
1.02966e-06
-1.30269e-06
3.56442e-07
1.37309e-06
-9.56526e-07
1.46133e-06
-1.58206e-06
4.00999e-06
2.88815e-06
7.95048e-07
7.68116e-07
-1.80944e-07
2.15128e-06
1.29933e-06
4.8904e-06
2.03671e-06
9.214e-07
1.37402e-06
-1.11294e-06
-4.14897e-06
-4.516e-06
-4.87353e-06
-3.47638e-06
-4.6495e-06
-2.96974e-06
-4.453e-06
-3.02236e-06
8.99942e-07
1.08718e-06
-1.78741e-06
-1.36105e-06
-1.00508e-07
2.4347e-06
3.93403e-06
-7.10876e-07
-3.1146e-07
-1.78713e-07
3.62638e-06
4.2701e-06
1.20285e-06
1.27848e-06
-5.96384e-07
4.30364e-07
1.65168e-06
-4.28461e-07
1.31224e-06
-1.13677e-06
2.96997e-06
2.7238e-06
9.75806e-07
8.17636e-07
9.67392e-08
1.67056e-06
1.18132e-06
3.88793e-06
1.38961e-06
4.34294e-07
5.06772e-07
-8.03924e-07
-3.12957e-06
-3.6375e-06
-3.97496e-06
-3.12824e-06
-3.4694e-06
-2.14956e-06
-3.64301e-06
-2.61329e-06
1.66487e-07
8.6928e-07
-1.29972e-06
-1.28723e-06
-2.15561e-07
1.33496e-06
3.32142e-06
-1.68383e-07
-8.80016e-08
-1.75717e-07
2.64984e-06
3.81509e-06
1.4308e-06
1.27575e-06
-2.7156e-07
4.48355e-07
1.68361e-06
-1.63041e-07
1.17314e-06
-8.2814e-07
2.19318e-06
2.40992e-06
1.00359e-06
8.36368e-07
2.36665e-07
1.3495e-06
9.8688e-07
2.94938e-06
8.96013e-07
3.84763e-08
-6.76673e-08
-7.18818e-07
-2.43793e-06
-2.97484e-06
-3.30994e-06
-2.7776e-06
-2.72032e-06
-1.67615e-06
-2.99263e-06
-2.29526e-06
-3.48729e-07
5.30401e-07
-1.02667e-06
-1.20104e-06
-3.10346e-07
5.76805e-07
2.61517e-06
4.66274e-08
-1.2084e-09
-2.33224e-07
1.85628e-06
3.20341e-06
1.40941e-06
1.19382e-06
-1.3019e-07
5.13074e-07
1.61573e-06
-3.14623e-08
1.05282e-06
-5.38405e-07
1.60278e-06
2.05906e-06
9.33886e-07
8.41684e-07
3.38512e-07
1.11417e-06
8.19151e-07
2.15249e-06
5.36525e-07
-2.31938e-07
-4.15601e-07
-6.91376e-07
-1.96078e-06
-2.44167e-06
-2.74858e-06
-2.45635e-06
-2.19662e-06
-1.39118e-06
-2.44266e-06
-1.97236e-06
-7.02003e-07
1.99408e-07
-8.68808e-07
-1.11989e-06
-3.35552e-07
5.60044e-08
1.95661e-06
8.3421e-08
9.20915e-09
-2.43046e-07
1.21804e-06
2.5752e-06
1.27084e-06
1.08311e-06
-3.44635e-08
5.60059e-07
1.49853e-06
3.18759e-08
9.46528e-07
-2.49322e-07
1.13836e-06
1.72599e-06
8.39064e-07
8.28638e-07
4.4393e-07
9.1252e-07
6.94675e-07
1.52907e-06
2.83148e-07
-3.66378e-07
-6.24104e-07
-6.67194e-07
-1.60224e-06
-2.00277e-06
-2.25569e-06
-2.1686e-06
-1.80538e-06
-1.20173e-06
-1.99154e-06
-1.64628e-06
-9.26026e-07
-8.631e-08
-7.59591e-07
-1.03614e-06
-3.07254e-07
-2.92282e-07
1.37087e-06
4.82593e-08
-3.93061e-08
-2.01994e-07
7.11729e-07
1.99702e-06
1.08482e-06
9.51164e-07
5.15536e-08
5.54993e-07
1.33612e-06
7.89223e-08
8.28826e-07
1.3735e-08
7.85379e-07
1.41571e-06
7.58277e-07
7.71054e-07
5.3901e-07
7.29006e-07
5.78802e-07
1.07371e-06
1.03704e-07
-4.10201e-07
-7.16557e-07
-6.44926e-07
-1.30571e-06
-1.65487e-06
-1.82262e-06
-1.8988e-06
-1.51506e-06
-1.04881e-06
-1.64771e-06
-1.34168e-06
-1.01792e-06
-3.25769e-07
-6.59947e-07
-9.69441e-07
-2.64662e-07
-4.96205e-07
8.49578e-07
2.7306e-09
-1.19254e-07
-1.376e-07
3.41058e-07
1.45824e-06
9.0744e-07
7.88023e-07
1.17872e-07
5.21201e-07
1.13069e-06
1.13849e-07
7.05929e-07
2.20097e-07
5.43531e-07
1.1202e-06
6.93801e-07
6.66239e-07
5.97707e-07
6.03171e-07
4.64838e-07
7.61606e-07
-7.87607e-09
-3.92293e-07
-7.21689e-07
-6.32104e-07
-1.05956e-06
-1.37531e-06
-1.45089e-06
-1.62878e-06
-1.30869e-06
-9.10799e-07
-1.38412e-06
-1.08962e-06
-9.97964e-07
-5.24958e-07
-5.70814e-07
-9.0519e-07
-2.50052e-07
-5.71771e-07
3.99737e-07
-4.19883e-08
-2.11159e-07
-9.53641e-08
1.06567e-07
9.75695e-07
7.58913e-07
6.05203e-07
1.3874e-07
4.95341e-07
9.0779e-07
1.17948e-07
5.95009e-07
3.4796e-07
3.98981e-07
8.42616e-07
6.36309e-07
5.44725e-07
5.94489e-07
5.30464e-07
3.45169e-07
5.41028e-07
-5.97085e-08
-3.5633e-07
-6.6196e-07
-6.12901e-07
-8.59431e-07
-1.14559e-06
-1.1529e-06
-1.35618e-06
-1.15499e-06
-7.90115e-07
-1.1683e-06
-9.12023e-07
-9.01612e-07
-6.62411e-07
-5.06765e-07
-8.30884e-07
-2.87636e-07
-5.61735e-07
4.77672e-08
-9.77073e-08
-2.87465e-07
-1.04302e-07
-1.53145e-08
5.68764e-07
6.1239e-07
4.33923e-07
9.78917e-08
4.84597e-07
7.18373e-07
7.35152e-08
4.85581e-07
3.92628e-07
3.23193e-07
6.07759e-07
5.64549e-07
4.44516e-07
5.21037e-07
4.81836e-07
2.47428e-07
3.76407e-07
-6.53157e-08
-3.1002e-07
-5.65879e-07
-5.79863e-07
-6.99114e-07
-9.4675e-07
-9.29995e-07
-1.09429e-06
-1.02005e-06
-6.95711e-07
-9.77896e-07
-7.96005e-07
-7.70774e-07
-7.27383e-07
-4.82919e-07
-7.41884e-07
-3.54056e-07
-5.17445e-07
-2.01781e-07
-1.73673e-07
-3.32286e-07
-1.53606e-07
-7.30415e-08
2.46416e-07
4.56945e-07
2.97797e-07
3.6908e-09
4.8074e-07
5.82198e-07
1.59389e-09
3.74921e-07
3.71085e-07
2.7663e-07
4.29597e-07
4.70064e-07
3.66725e-07
4.07697e-07
4.28764e-07
1.86585e-07
2.45415e-07
-5.19653e-08
-2.59059e-07
-4.59235e-07
-5.23223e-07
-5.72154e-07
-7.69835e-07
-7.62707e-07
-8.6438e-07
-8.8679e-07
-6.26026e-07
-8.07135e-07
-7.17722e-07
-6.49208e-07
-7.24517e-07
-4.87922e-07
-6.48869e-07
-4.23918e-07
-4.80418e-07
-3.52197e-07
-2.5604e-07
-3.53323e-07
-2.23756e-07
-1.15178e-07
1.45303e-08
2.99979e-07
1.93803e-07
-1.15064e-07
4.56091e-07
4.14556e-07
-1.164e-07
3.42364e-07
3.29651e-07
2.33496e-07
3.0873e-07
3.62133e-07
3.07405e-07
2.94842e-07
3.56157e-07
1.54058e-07
1.46998e-07
-3.56288e-08
-2.05303e-07
-3.57474e-07
-4.46297e-07
-4.69028e-07
-6.12004e-07
-6.31025e-07
-6.77436e-07
-7.47562e-07
-5.70563e-07
-6.60627e-07
-6.51035e-07
-5.5875e-07
-6.70675e-07
-5.0276e-07
-5.71077e-07
-4.73514e-07
-4.64129e-07
-4.26886e-07
-3.35795e-07
-3.68527e-07
-2.95048e-07
-1.61655e-07
-1.38526e-07
1.49565e-07
1.07281e-07
-2.37154e-07
4.07818e-07
2.99263e-07
-2.24248e-07
2.87219e-07
2.64902e-07
1.73678e-07
2.26726e-07
2.53342e-07
2.5056e-07
2.04527e-07
2.69523e-07
1.33657e-07
8.15652e-08
-2.4468e-08
-1.53148e-07
-2.68791e-07
-3.58301e-07
-3.79998e-07
-4.74021e-07
-5.16697e-07
-5.33423e-07
-6.10718e-07
-5.1822e-07
-5.44757e-07
-5.83015e-07
-4.98858e-07
-5.94952e-07
-5.10345e-07
-5.1774e-07
-4.96272e-07
-4.67274e-07
-4.58364e-07
-3.99644e-07
-3.85818e-07
-3.54384e-07
-2.15978e-07
-2.37144e-07
1.41279e-08
2.38533e-08
-3.4479e-07
3.35102e-07
2.16873e-07
-3.26794e-07
2.05559e-07
1.9216e-07
1.02662e-07
1.66913e-07
1.58717e-07
1.89596e-07
1.39195e-07
1.85542e-07
1.12997e-07
4.77853e-08
-1.61252e-08
-1.05915e-07
-1.91969e-07
-2.68428e-07
-2.97314e-07
-3.5662e-07
-4.09305e-07
-4.20746e-07
-4.84587e-07
-4.58539e-07
-4.56451e-07
-5.10419e-07
-4.56787e-07
-5.21693e-07
-5.0264e-07
-4.87737e-07
-4.98066e-07
-4.78557e-07
-4.73219e-07
-4.4536e-07
-4.09893e-07
-4.01216e-07
-2.76265e-07
-3.07659e-07
-9.68386e-08
-6.15887e-08
-4.36949e-07
2.52342e-07
1.41873e-07
-4.1731e-07
1.20664e-07
1.17005e-07
2.41786e-08
1.11988e-07
8.14767e-08
1.25912e-07
9.20469e-08
1.16174e-07
8.94449e-08
3.56213e-08
-5.83239e-09
-6.27114e-08
-1.24708e-07
-1.83329e-07
-2.17505e-07
-2.56707e-07
-3.08058e-07
-3.26977e-07
-3.74971e-07
-3.9047e-07
-3.87688e-07
-4.40482e-07
-4.22362e-07
-4.63634e-07
-4.82441e-07
-4.72566e-07
-4.92615e-07
-4.91078e-07
-4.8605e-07
-4.78598e-07
-4.39125e-07
-4.38309e-07
-3.35955e-07
-3.67428e-07
-1.85383e-07
-1.48374e-07
-5.18605e-07
1.70939e-07
6.98231e-08
-4.90818e-07
4.15119e-08
4.13253e-08
-5.54036e-08
5.27553e-08
1.63783e-08
6.407e-08
5.2867e-08
6.55227e-08
6.64965e-08
3.52727e-08
1.06933e-08
-2.07871e-08
-6.1968e-08
-1.03295e-07
-1.38334e-07
-1.67613e-07
-2.12333e-07
-2.41112e-07
-2.79465e-07
-3.16405e-07
-3.28025e-07
-3.77394e-07
-3.87576e-07
-4.21372e-07
-4.5937e-07
-4.6604e-07
-4.91049e-07
-5.05028e-07
-5.04101e-07
-5.09439e-07
-4.75466e-07
-4.77552e-07
-3.95319e-07
-4.26835e-07
-2.60794e-07
-2.35153e-07
-5.97463e-07
9.13228e-08
-1.69578e-09
-5.60116e-07
-2.41494e-08
-3.08823e-08
-1.2904e-07
-1.00857e-08
-4.22057e-08
8.04571e-09
1.64588e-08
3.13055e-08
4.98559e-08
4.12546e-08
3.52092e-08
2.3084e-08
-5.06456e-10
-2.56453e-08
-5.72334e-08
-8.23545e-08
-1.21983e-07
-1.59582e-07
-1.95267e-07
-2.41928e-07
-2.70979e-07
-3.20914e-07
-3.50249e-07
-3.9172e-07
-4.40987e-07
-4.66285e-07
-4.99217e-07
-5.24787e-07
-5.30886e-07
-5.46006e-07
-5.18887e-07
-5.24899e-07
-4.57415e-07
-4.90454e-07
-3.2991e-07
-3.25711e-07
-6.82681e-07
2.87864e-08
-9.96604e-05
-7.51883e-05
2.80342e-05
6.20843e-05
4.66976e-06
-7.44794e-05
-6.79166e-05
2.82124e-05
6.6454e-05
-1.1034e-05
-8.91656e-05
-7.31614e-05
2.46881e-05
5.61917e-05
-3.69324e-05
-0.000103853
-7.00835e-05
4.41619e-05
8.20364e-05
-3.47332e-05
-0.000103876
-7.27955e-05
2.49245e-05
5.81116e-05
-1.11288e-05
-9.2314e-05
-7.11201e-05
3.01434e-05
6.30066e-05
-1.57665e-05
-9.02035e-05
-7.05439e-05
2.65211e-05
6.3179e-05
-1.07585e-05
-8.79316e-05
-6.23109e-05
3.48853e-05
6.89969e-05
-2.23733e-05
-0.000100179
-7.64486e-05
2.63164e-05
6.10677e-05
4.88008e-06
-7.51582e-05
-6.88672e-05
2.6589e-05
6.60285e-05
-1.13814e-05
-8.98432e-05
-7.43212e-05
2.30251e-05
5.52751e-05
-3.66453e-05
-0.00010476
-7.12844e-05
4.22642e-05
8.1365e-05
-3.50128e-05
-0.000104506
-7.39697e-05
2.32087e-05
5.74085e-05
-1.14504e-05
-9.30904e-05
-7.21606e-05
2.81212e-05
6.20387e-05
-1.62666e-05
-9.09019e-05
-7.17584e-05
2.5079e-05
6.21396e-05
-1.07617e-05
-8.85706e-05
-6.34461e-05
3.31223e-05
6.84399e-05
-2.25767e-05
-0.000101446
-7.91353e-05
2.43345e-05
6.05827e-05
3.87186e-06
-7.66e-05
-7.08219e-05
2.44411e-05
6.5951e-05
-1.19291e-05
-9.09216e-05
-7.64895e-05
2.12395e-05
5.45391e-05
-3.76141e-05
-0.000106309
-7.3317e-05
3.99648e-05
8.10241e-05
-3.58373e-05
-0.000106224
-7.5317e-05
2.10455e-05
5.71027e-05
-1.14327e-05
-9.44299e-05
-7.48615e-05
2.5939e-05
6.12771e-05
-1.73246e-05
-9.2201e-05
-7.39775e-05
2.3457e-05
6.12891e-05
-1.10929e-05
-8.96305e-05
-6.55097e-05
3.11677e-05
6.80553e-05
-2.31006e-05
-0.000103225
-8.11958e-05
2.17659e-05
5.94286e-05
3.43906e-06
-7.78884e-05
-7.28489e-05
2.21051e-05
6.49108e-05
-1.35595e-05
-9.24993e-05
-7.84316e-05
1.84648e-05
5.39603e-05
-3.86398e-05
-0.000108252
-7.58864e-05
3.69529e-05
7.98493e-05
-3.79437e-05
-0.000107712
-7.85586e-05
1.90891e-05
5.48244e-05
-1.4096e-05
-9.63832e-05
-7.69744e-05
2.35945e-05
6.01818e-05
-1.8662e-05
-9.41396e-05
-7.63344e-05
2.13913e-05
6.00815e-05
-1.30238e-05
-9.11865e-05
-6.77916e-05
2.88225e-05
6.72197e-05
-2.51459e-05
-0.000104631
-8.42816e-05
1.90269e-05
5.68934e-05
-9.14936e-07
-8.00073e-05
-7.42759e-05
1.89908e-05
6.22221e-05
-1.5312e-05
-9.43493e-05
-8.19779e-05
1.62633e-05
5.11444e-05
-4.19234e-05
-0.000109919
-7.80718e-05
3.4141e-05
7.74595e-05
-4.11415e-05
-0.000110823
-7.96802e-05
1.66583e-05
5.34151e-05
-1.59634e-05
-9.7282e-05
-7.98217e-05
2.06234e-05
5.76282e-05
-2.1936e-05
-9.59907e-05
-7.88094e-05
1.93967e-05
5.77049e-05
-1.61528e-05
-9.19235e-05
-7.04726e-05
2.57332e-05
6.48182e-05
-2.74724e-05
-0.000105203
-8.56716e-05
1.48304e-05
5.35312e-05
-2.47004e-06
-7.87419e-05
-7.60967e-05
1.44726e-05
5.51668e-05
-1.995e-05
-9.43877e-05
-8.26609e-05
1.1431e-05
4.71797e-05
-4.50456e-05
-0.000110783
-8.29349e-05
2.77938e-05
7.02191e-05
-4.51697e-05
-0.000110466
-8.32608e-05
1.26933e-05
4.86511e-05
-1.99971e-05
-9.8555e-05
-8.34072e-05
1.59259e-05
5.21737e-05
-2.50071e-05
-9.67082e-05
-8.15182e-05
1.43502e-05
5.37143e-05
-1.96752e-05
-9.24796e-05
-7.11639e-05
2.11288e-05
6.06635e-05
-3.21411e-05
-0.000103143
-8.80022e-05
7.76232e-06
4.50311e-05
-7.36414e-06
-7.98305e-05
-7.9006e-05
5.21277e-06
4.41569e-05
-2.21257e-05
-9.20899e-05
-8.91274e-05
4.0536e-06
3.92047e-05
-4.73494e-05
-0.000108515
-8.5305e-05
1.78642e-05
5.75065e-05
-4.99201e-05
-0.000109546
-8.59543e-05
5.65399e-06
3.98504e-05
-2.22153e-05
-9.39214e-05
-8.54453e-05
6.75395e-06
4.46e-05
-2.79128e-05
-9.44487e-05
-8.39867e-05
6.49305e-06
4.50544e-05
-2.28963e-05
-8.86495e-05
-7.45721e-05
1.25716e-05
5.15709e-05
-3.49989e-05
-9.49682e-05
-8.84102e-05
-3.92331e-06
3.11983e-05
-9.91381e-06
-7.10241e-05
-8.06407e-05
-8.59895e-06
2.94397e-05
-2.47386e-05
-8.51666e-05
-8.67347e-05
-7.74852e-06
2.65563e-05
-4.92208e-05
-9.99565e-05
-8.57444e-05
1.61604e-06
3.79933e-05
-5.22988e-05
-0.000100848
-8.55279e-05
-4.60472e-06
2.67588e-05
-2.39283e-05
-8.69604e-05
-8.75044e-05
-6.70867e-06
3.01947e-05
-2.89412e-05
-8.74701e-05
-8.68639e-05
-6.63555e-06
3.16488e-05
-2.51711e-05
-8.16106e-05
-7.41878e-05
3.39177e-07
3.39967e-05
-3.85989e-05
-8.28743e-05
-8.31932e-05
-1.32663e-05
1.42043e-05
-1.24271e-05
-6.40214e-05
-7.45341e-05
-1.83288e-05
1.37315e-05
-2.53876e-05
-7.40555e-05
-8.07405e-05
-1.70608e-05
1.35447e-05
-4.60574e-05
-8.67607e-05
-8.03554e-05
-1.24605e-05
1.80739e-05
-5.17165e-05
-8.83177e-05
-8.04741e-05
-1.34867e-05
1.53859e-05
-2.35792e-05
-7.4923e-05
-7.94066e-05
-1.70399e-05
1.75835e-05
-2.81692e-05
-7.67843e-05
-8.31232e-05
-1.82914e-05
1.61531e-05
-2.67444e-05
-6.96493e-05
-6.98264e-05
-1.07083e-05
1.79773e-05
-3.82224e-05
-6.64653e-05
-7.14787e-05
-1.79769e-05
4.26815e-06
-1.28083e-05
-5.03009e-05
-6.62338e-05
-2.26488e-05
4.12749e-06
-2.41809e-05
-5.86988e-05
-6.92005e-05
-2.11831e-05
3.87462e-06
-4.20355e-05
-6.97343e-05
-6.86821e-05
-1.88612e-05
4.64376e-06
-4.74775e-05
-7.27653e-05
-6.91863e-05
-1.74266e-05
6.04196e-06
-2.14995e-05
-6.12395e-05
-6.96384e-05
-2.15244e-05
9.51139e-06
-2.61234e-05
-6.30741e-05
-7.33336e-05
-2.41636e-05
3.47536e-06
-2.60331e-05
-5.67154e-05
-6.11908e-05
-1.53691e-05
6.43433e-06
-3.69094e-05
-5.13908e-05
-5.80154e-05
-1.62479e-05
-9.01323e-07
-1.04575e-05
-3.94262e-05
-5.27723e-05
-1.99688e-05
1.28375e-06
-1.93353e-05
-4.53012e-05
-5.38396e-05
-1.85967e-05
1.04785e-06
-3.36122e-05
-5.33984e-05
-5.35322e-05
-1.71948e-05
3.85859e-07
-3.97806e-05
-5.73798e-05
-5.44441e-05
-1.58227e-05
3.34745e-06
-1.70756e-05
-4.79155e-05
-5.44025e-05
-1.95627e-05
5.15405e-06
-2.24508e-05
-4.92033e-05
-5.94918e-05
-2.36751e-05
-6.92666e-07
-2.22138e-05
-4.38192e-05
-4.77644e-05
-1.39047e-05
2.70353e-06
-2.9659e-05
-3.73096e-05
-4.21004e-05
-1.04934e-05
8.06857e-07
-6.42424e-06
-2.78478e-05
-3.90088e-05
-1.40113e-05
3.01379e-06
-1.32373e-05
-3.17298e-05
-3.85037e-05
-1.34505e-05
2.77773e-06
-2.47543e-05
-3.89852e-05
-3.90284e-05
-1.14697e-05
2.3293e-06
-2.97032e-05
-4.30118e-05
-3.98451e-05
-1.10926e-05
3.67376e-06
-1.17844e-05
-3.54948e-05
-4.03981e-05
-1.46726e-05
5.57439e-06
-1.63415e-05
-3.64643e-05
-4.41625e-05
-1.76671e-05
7.9326e-07
-1.63134e-05
-3.23175e-05
-3.53959e-05
-9.24116e-06
4.22348e-06
-2.17179e-05
-2.57581e-05
-2.93241e-05
-4.92614e-06
3.37393e-06
-1.67434e-06
-1.84894e-05
-2.65149e-05
-8.03579e-06
5.71082e-06
-6.68229e-06
-2.12033e-05
-2.51987e-05
-7.89626e-06
4.99258e-06
-1.70298e-05
-2.82188e-05
-2.73054e-05
-6.18961e-06
5.29402e-06
-2.05523e-05
-3.13786e-05
-2.75142e-05
-6.47479e-06
5.70654e-06
-6.32077e-06
-2.50733e-05
-2.79199e-05
-9.40965e-06
6.94861e-06
-1.06319e-05
-2.57602e-05
-3.09099e-05
-1.12078e-05
3.79037e-06
-1.00236e-05
-2.25243e-05
-2.38743e-05
-4.34005e-06
6.72599e-06
-1.35975e-05
-1.73519e-05
-1.92951e-05
-8.83463e-07
5.15718e-06
1.4266e-06
-1.1405e-05
-1.69817e-05
-3.56098e-06
6.95117e-06
-2.36469e-06
-1.34445e-05
-1.52847e-05
-3.92331e-06
5.89675e-06
-1.13743e-05
-2.07149e-05
-1.90118e-05
-2.91339e-06
6.29146e-06
-1.36596e-05
-2.28306e-05
-1.8664e-05
-3.39089e-06
6.14934e-06
-2.68935e-06
-1.7383e-05
-1.88498e-05
-5.56939e-06
7.26665e-06
-6.36189e-06
-1.77484e-05
-2.0701e-05
-6.04245e-06
5.48757e-06
-5.23409e-06
-1.54416e-05
-1.57667e-05
-8.48977e-07
7.78574e-06
-7.82096e-06
-1.14149e-05
-1.28266e-05
1.18246e-06
5.19628e-06
3.06354e-06
-6.75057e-06
-1.06501e-05
-9.46969e-07
6.81633e-06
3.01384e-07
-8.37116e-06
-9.02198e-06
-1.83281e-06
5.35274e-06
-7.64722e-06
-1.53754e-05
-1.35147e-05
-1.59966e-06
5.57176e-06
-9.13091e-06
-1.68347e-05
-1.28167e-05
-1.91267e-06
5.44795e-06
-7.45141e-07
-1.20138e-05
-1.26619e-05
-3.40015e-06
6.42604e-06
-3.77713e-06
-1.19747e-05
-1.37697e-05
-2.99946e-06
5.5986e-06
-2.25157e-06
-1.04232e-05
-1.01743e-05
9.54164e-07
7.22624e-06
-4.10923e-06
-7.41146e-06
-8.50533e-06
2.02892e-06
4.52218e-06
3.41601e-06
-3.71614e-06
-6.52182e-06
3.16648e-07
5.8233e-06
1.40758e-06
-5.05408e-06
-5.12769e-06
-9.49092e-07
4.0581e-06
-5.29932e-06
-1.14285e-05
-9.79928e-06
-1.17165e-06
4.12219e-06
-6.21039e-06
-1.24046e-05
-9.00109e-06
-1.34469e-06
4.13718e-06
6.76663e-08
-8.21238e-06
-8.6115e-06
-2.33133e-06
5.03285e-06
-2.28956e-06
-7.92618e-06
-9.12909e-06
-1.36738e-06
4.78147e-06
-6.49449e-07
-6.90914e-06
-6.66651e-06
1.60961e-06
5.94469e-06
-2.01835e-06
-4.56499e-06
-5.62684e-06
2.23893e-06
3.53489e-06
3.1983e-06
-1.77221e-06
-3.84441e-06
8.91882e-07
4.63369e-06
1.86757e-06
-2.8631e-06
-2.75099e-06
-5.66088e-07
2.68791e-06
-3.8315e-06
-8.46705e-06
-7.18168e-06
-1.07486e-06
2.57942e-06
-4.38076e-06
-9.06489e-06
-6.38568e-06
-1.1443e-06
2.84448e-06
3.30627e-07
-5.48414e-06
-5.82888e-06
-1.72523e-06
3.67482e-06
-1.471e-06
-5.06579e-06
-6.01211e-06
-5.02485e-07
3.67348e-06
1.29803e-07
-4.43673e-06
-4.26743e-06
1.78535e-06
4.53416e-06
-8.41594e-07
-2.67023e-06
-3.68598e-06
2.1495e-06
2.67456e-06
2.73354e-06
-5.91137e-07
-2.12318e-06
1.10456e-06
3.54799e-06
1.92414e-06
-1.47182e-06
-1.31903e-06
-3.68208e-07
1.53646e-06
-2.8649e-06
-6.23928e-06
-5.32918e-06
-1.0622e-06
1.30289e-06
-3.22774e-06
-6.57937e-06
-4.59269e-06
-1.1032e-06
1.74474e-06
2.88166e-07
-3.60437e-06
-3.94103e-06
-1.36062e-06
2.53688e-06
-9.99279e-07
-3.09597e-06
-3.93455e-06
-4.76609e-08
2.64999e-06
4.72702e-07
-2.69696e-06
-2.68181e-06
1.67954e-06
3.27652e-06
-1.86144e-07
-1.38759e-06
-2.39461e-06
1.9407e-06
1.99558e-06
2.2118e-06
8.29476e-08
-1.05762e-06
1.14624e-06
2.70528e-06
1.81911e-06
-5.89271e-07
-5.04039e-07
-2.42496e-07
7.19258e-07
-2.19579e-06
-4.58264e-06
-4.03146e-06
-1.07374e-06
3.6266e-07
-2.49899e-06
-4.77965e-06
-3.36164e-06
-1.09273e-06
9.32872e-07
1.24118e-07
-2.35936e-06
-2.67177e-06
-1.11759e-06
1.70006e-06
-7.33863e-07
-1.77694e-06
-2.5758e-06
1.67216e-07
1.86202e-06
5.73991e-07
-1.5218e-06
-1.6288e-06
1.5053e-06
2.31955e-06
1.7136e-07
-5.50235e-07
-1.56912e-06
1.6657e-06
1.52817e-06
1.72511e-06
4.64144e-07
-4.12025e-07
1.09585e-06
2.09335e-06
1.61744e-06
-3.80952e-08
-1.00109e-07
-1.69321e-07
2.19422e-07
-1.72205e-06
-3.34293e-06
-3.12398e-06
-1.07956e-06
-2.36228e-07
-2.023e-06
-3.48102e-06
-2.53119e-06
-1.09403e-06
3.72098e-07
-7.85651e-08
-1.55539e-06
-1.83605e-06
-9.45993e-07
1.12673e-06
-5.93229e-07
-9.30928e-07
-1.70424e-06
2.25395e-07
1.31663e-06
5.32231e-07
-7.28804e-07
-9.42877e-07
1.29012e-06
1.62402e-06
3.44667e-07
-9.94756e-09
-1.04153e-06
1.36663e-06
1.22177e-06
1.31742e-06
6.69449e-07
-3.42103e-08
9.77003e-07
1.66519e-06
1.37985e-06
2.88486e-07
8.55922e-08
-1.40863e-07
-3.18045e-08
-1.37538e-06
-2.42918e-06
-2.46766e-06
-1.07216e-06
-5.64058e-07
-1.7021e-06
-2.5511e-06
-1.96909e-06
-1.10514e-06
1.69508e-08
-2.58212e-07
-1.05997e-06
-1.28431e-06
-8.48557e-07
7.44766e-07
-5.12658e-07
-4.26798e-07
-1.13226e-06
1.75009e-07
9.52922e-07
4.2949e-07
-2.31564e-07
-4.85112e-07
1.05789e-06
1.1552e-06
4.23097e-07
2.96497e-07
-6.89496e-07
1.06968e-06
1.02499e-06
9.98479e-07
7.47692e-07
1.97914e-07
8.11199e-07
1.36862e-06
1.14713e-06
4.31631e-07
1.67878e-07
-1.40954e-07
-1.3575e-07
-1.11223e-06
-1.76747e-06
-1.96104e-06
-1.05998e-06
-7.06662e-07
-1.46647e-06
-1.90984e-06
-1.56096e-06
-1.11661e-06
-1.99771e-07
-3.86091e-07
-7.83077e-07
-9.04469e-07
-7.99412e-07
4.78563e-07
-4.5062e-07
-1.73069e-07
-7.46821e-07
6.17083e-08
7.03817e-07
3.19994e-07
4.51452e-08
-1.64172e-07
8.13688e-07
8.28937e-07
4.54086e-07
4.39069e-07
-4.44709e-07
7.98758e-07
8.72133e-07
7.6658e-07
7.35924e-07
3.55551e-07
6.43196e-07
1.12957e-06
9.42029e-07
4.42425e-07
2.06067e-07
-1.48506e-07
-1.7525e-07
-8.9666e-07
-1.29431e-06
-1.54413e-06
-1.03323e-06
-7.36553e-07
-1.26878e-06
-1.48379e-06
-1.24338e-06
-1.10439e-06
-3.38043e-07
-4.49566e-07
-6.60026e-07
-6.46486e-07
-7.60433e-07
2.67052e-07
-3.85926e-07
-9.44543e-08
-4.88521e-07
-6.43368e-08
5.03973e-07
2.26237e-07
1.41316e-07
5.54516e-08
5.94877e-07
5.83984e-07
4.77661e-07
4.77559e-07
-2.87061e-07
5.84248e-07
7.34571e-07
6.07177e-07
6.58004e-07
4.52411e-07
5.04769e-07
9.0631e-07
7.81756e-07
3.83751e-07
2.08898e-07
-1.48564e-07
-1.8895e-07
-7.14194e-07
-9.62248e-07
-1.19402e-06
-9.78568e-07
-7.16414e-07
-1.08193e-06
-1.2058e-06
-9.91389e-07
-1.04761e-06
-4.42217e-07
-4.6146e-07
-6.19196e-07
-4.81457e-07
-7.03494e-07
7.67333e-08
-3.22238e-07
-1.17091e-07
-3.29682e-07
-1.66247e-07
3.17977e-07
1.55869e-07
1.25413e-07
1.90888e-07
4.24019e-07
3.65605e-07
4.92281e-07
4.62821e-07
-2.0598e-07
4.32903e-07
5.97304e-07
4.89759e-07
5.47967e-07
4.901e-07
4.14707e-07
6.9557e-07
6.52589e-07
3.0419e-07
1.81459e-07
-1.3037e-07
-1.91299e-07
-5.60472e-07
-7.31643e-07
-9.06505e-07
-8.82851e-07
-6.74151e-07
-9.0493e-07
-1.01589e-06
-8.03057e-07
-9.42136e-07
-5.19233e-07
-4.45658e-07
-6.10081e-07
-3.99728e-07
-6.22986e-07
-9.17745e-08
-2.79873e-07
-1.81797e-07
-2.5481e-07
-2.28943e-07
1.39325e-07
1.01685e-07
5.29263e-08
2.40284e-07
3.04853e-07
1.62136e-07
5.00667e-07
4.32159e-07
-1.85363e-07
3.32254e-07
4.60963e-07
3.91624e-07
4.36671e-07
4.63302e-07
3.64494e-07
5.10737e-07
5.34788e-07
2.37474e-07
1.36261e-07
-1.02726e-07
-1.84897e-07
-4.35063e-07
-5.67714e-07
-6.81676e-07
-7.55446e-07
-6.23313e-07
-7.43277e-07
-8.6404e-07
-6.72699e-07
-8.05858e-07
-5.6446e-07
-4.28647e-07
-5.92957e-07
-3.81245e-07
-5.37454e-07
-2.27633e-07
-2.69547e-07
-2.46523e-07
-2.43352e-07
-2.62008e-07
-2.03268e-08
4.53598e-08
-3.32984e-08
2.16926e-07
2.21844e-07
-2.02454e-08
4.84331e-07
3.72969e-07
-2.12732e-07
2.82231e-07
3.47217e-07
2.99404e-07
3.42147e-07
3.91962e-07
3.289e-07
3.61526e-07
4.18457e-07
1.90715e-07
8.97557e-08
-7.40985e-08
-1.65575e-07
-3.3261e-07
-4.42694e-07
-5.13928e-07
-6.1437e-07
-5.59482e-07
-6.03198e-07
-7.23527e-07
-5.82983e-07
-6.67392e-07
-5.7263e-07
-4.18649e-07
-5.56113e-07
-3.95585e-07
-4.6822e-07
-3.22663e-07