/*--------------------------------*- C++ -*----------------------------------*\
  =========                 |
  \\      /  F ield         | OpenFOAM: The Open Source CFD Toolbox
   \\    /   O peration     | Website:  https://openfoam.org
    \\  /    A nd           | Version:  10
     \\/     M anipulation  |
\*---------------------------------------------------------------------------*/
FoamFile
{
    format      ascii;
    class       surfaceScalarField;
    location    "45";
    object      phi;
}
// * * * * * * * * * * * * * * * * * * * * * * * * * * * * * * * * * * * * * //

dimensions      [0 3 -1 0 0 0 0];

internalField   nonuniform List<scalar> 
300480
(
7.66663e-06
-7.73764e-10
-5.91412e-09
7.66258e-06
9.81386e-09
-6.63699e-09
7.66284e-06
5.17368e-09
-5.87788e-09
7.66477e-06
3.56746e-09
-6.14368e-09
7.66196e-06
8.39188e-09
-6.28443e-09
7.66521e-06
2.00335e-09
-6.00065e-09
7.66123e-06
9.73578e-09
-5.49437e-09
7.66366e-06
2.62879e-09
-7.20958e-09
7.665e-06
4.39368e-09
-4.75631e-09
7.65776e-06
1.20775e-08
-6.83303e-09
7.6688e-06
-5.46328e-09
-5.68492e-09
7.65787e-06
1.63855e-08
-6.79506e-09
7.66239e-06
1.91175e-10
-4.63448e-09
7.66721e-06
1.37278e-09
-8.66317e-09
7.65338e-06
1.81652e-08
-3.71078e-09
7.67059e-06
-1.11659e-08
-8.14384e-09
7.65602e-06
2.00019e-08
-6.05295e-09
7.66242e-06
-1.51315e-09
-5.76584e-09
7.66601e-06
2.70654e-09
-7.93651e-09
7.65318e-06
1.72099e-08
-4.93087e-09
7.67158e-06
-1.1677e-08
-8.22228e-09
7.6535e-06
2.30642e-08
-6.00996e-09
7.6641e-06
-4.78746e-09
-6.1425e-09
7.66642e-06
3.90287e-09
-8.97306e-09
7.65193e-06
1.92484e-08
-3.46722e-09
7.6721e-06
-1.3352e-08
-1.02826e-08
7.65586e-06
2.14409e-08
-4.27628e-09
7.66287e-06
-8.9956e-10
-8.0644e-09
7.66573e-06
2.95924e-09
-6.69308e-09
7.65717e-06
1.40977e-08
-6.21738e-09
7.66881e-06
-5.40005e-09
-7.55185e-09
7.65643e-06
1.78281e-08
-5.69269e-09
7.66818e-06
-5.35776e-09
-8.02105e-09
7.66111e-06
1.26756e-08
-5.7174e-09
7.66058e-06
6.23055e-09
-6.3938e-09
7.66959e-06
-2.82376e-09
-8.13121e-09
7.65684e-06
1.8124e-08
-4.01104e-09
7.66705e-06
-4.13113e-09
-8.85022e-09
7.66421e-06
8.44445e-09
-4.88909e-09
9.51986e-09
-6.962e-09
2.59984e-05
9.88383e-09
-1.74823e-08
2.59925e-05
3.36239e-08
-2.15855e-08
2.59941e-05
2.06263e-08
-1.7575e-08
2.59957e-05
1.9403e-08
-2.0435e-08
2.59923e-05
2.89763e-08
-1.85503e-08
2.59964e-05
1.46326e-08
-1.9543e-08
2.59902e-05
3.33198e-08
-1.76922e-08
2.5995e-05
1.40689e-08
-2.15188e-08
2.59939e-05
2.28719e-08
-1.5952e-08
2.59862e-05
3.53988e-08
-2.1667e-08
2.60002e-05
-2.1647e-09
-1.72733e-08
2.59829e-05
5.01584e-08
-2.13463e-08
2.59935e-05
5.41159e-09
-1.62017e-08
2.5994e-05
1.89223e-08
-2.47472e-08
2.59789e-05
4.79946e-08
-1.39238e-08
2.60017e-05
-1.55712e-08
-2.52253e-08
2.59779e-05
6.02047e-08
-1.72351e-08
2.59929e-05
-3.58628e-11
-2.13331e-08
2.59904e-05
2.35319e-08
-2.1446e-08
2.59784e-05
4.44719e-08
-1.8934e-08
2.60012e-05
-1.47887e-08
-2.32016e-08
2.59742e-05
6.5917e-08
-1.96381e-08
2.59953e-05
-7.24413e-09
-2.06692e-08
2.59898e-05
2.76416e-08
-2.46847e-08
2.59774e-05
4.82605e-08
-1.53489e-08
2.60027e-05
-1.87801e-08
-2.84082e-08
2.59776e-05
6.34541e-08
-1.4974e-08
2.5994e-05
1.86508e-09
-2.59394e-08
2.59913e-05
2.37172e-08
-1.88237e-08
2.59849e-05
3.8654e-08
-2.22323e-08
2.59986e-05
-2.10581e-10
-2.09982e-08
2.59821e-05
5.21496e-08
-2.04897e-08
2.60009e-05
-4.86694e-09
-2.24049e-08
2.59867e-05
4.45872e-08
-1.94688e-08
2.59925e-05
1.88667e-08
-2.06866e-08
2.59997e-05
8.62276e-09
-2.28912e-08
2.59847e-05
5.06448e-08
-1.59093e-08
2.60006e-05
-1.40415e-09
-2.52351e-08
2.59927e-05
3.40661e-08
-1.58952e-08
2.85573e-08
-2.26611e-08
4.9541e-05
3.47401e-08
-3.1178e-08
4.95351e-05
7.16443e-08
-3.91908e-08
4.95372e-05
4.93338e-08
-3.10788e-08
4.95388e-05
4.92066e-08
-3.7568e-08
4.95353e-05
6.32548e-08
-3.23743e-08
4.95396e-05
4.06367e-08
-3.60264e-08
4.95329e-05
7.10834e-08
-3.14601e-08
4.95382e-05
3.80527e-08
-3.82825e-08
4.9536e-05
5.59928e-08
-2.91993e-08
4.95282e-05
7.15196e-08
-3.86029e-08
4.95425e-05
1.43745e-08
-3.06953e-08
4.9523e-05
9.88196e-08
-3.81869e-08
4.95354e-05
2.18914e-08
-2.94824e-08
4.95335e-05
5.21457e-08
-4.27018e-08
4.95184e-05
9.02773e-08
-2.64118e-08
4.95418e-05
-6.94176e-09
-4.39717e-08
4.95149e-05
1.16226e-07
-3.03023e-08
4.95326e-05
1.2029e-08
-3.93456e-08
4.95269e-05
6.09796e-08
-3.60143e-08
4.95159e-05
8.36876e-08
-3.61593e-08
4.95389e-05
-3.87589e-09
-3.89265e-08
4.95093e-05
1.24182e-07
-3.64853e-08
4.95336e-05
1.38592e-09
-3.6392e-08
4.95248e-05
6.83231e-08
-4.28051e-08
4.95141e-05
8.93869e-08
-2.96547e-08
4.954e-05
-1.02563e-08
-4.80402e-08
4.95128e-05
1.21428e-07
-2.85792e-08
4.95325e-05
1.59569e-08
-4.56066e-08
4.95276e-05
6.10032e-08
-3.31332e-08
4.95231e-05
7.58455e-08
-4.09723e-08
4.9537e-05
1.94458e-08
-3.60666e-08
4.952e-05
1.01269e-07
-3.84773e-08
4.95413e-05
8.03357e-09
-3.80266e-08
4.9525e-05
9.28149e-08
-3.66781e-08
4.95337e-05
4.31892e-08
-3.6298e-08
4.95399e-05
3.57251e-08
-4.05709e-08
4.95254e-05
9.68728e-08
-3.01667e-08
4.95429e-05
1.42876e-08
-4.36198e-08
4.95338e-05
7.51592e-08
-2.95388e-08
6.03085e-08
-4.06181e-08
7.92514e-05
7.57133e-08
-4.71516e-08
7.92463e-05
1.25535e-07
-5.95869e-08
7.92491e-05
9.33985e-08
-4.67105e-08
7.92511e-05
9.47879e-08
-5.73789e-08
7.92479e-05
1.1319e-07
-4.83178e-08
7.92527e-05
8.19408e-08
-5.51623e-08
7.92457e-05
1.24862e-07
-4.69924e-08
7.92518e-05
7.65922e-08
-5.76881e-08
7.92489e-05
1.05585e-07
-4.41249e-08
7.92411e-05
1.22308e-07
-5.77884e-08
7.92555e-05
4.63223e-08
-4.58384e-08
7.92343e-05
1.63835e-07
-5.70342e-08
7.9248e-05
5.18866e-08
-4.41276e-08
7.92439e-05
1.02699e-07
-6.27835e-08
7.92287e-05
1.46636e-07
-3.99784e-08
7.92521e-05
1.70218e-08
-6.45733e-08
7.92225e-05
1.89186e-07
-4.48178e-08
7.92419e-05
3.70505e-08
-5.89057e-08
7.92331e-05
1.16545e-07
-5.19621e-08
7.92227e-05
1.36455e-07
-5.51137e-08
7.9245e-05
2.33217e-08
-5.60187e-08
7.92131e-05
1.98882e-07
-5.53084e-08
7.92395e-05
2.35476e-08
-5.31156e-08
7.92276e-05
1.2717e-07
-6.34704e-08
7.9218e-05
1.44401e-07
-4.48985e-08
7.92438e-05
1.44224e-08
-7.01845e-08
7.92149e-05
1.96243e-07
-4.36162e-08
7.92369e-05
4.38793e-08
-6.74173e-08
7.92302e-05
1.16193e-07
-4.95596e-08
7.92272e-05
1.27307e-07
-6.16976e-08
7.9241e-05
5.5748e-08
-5.3343e-08
7.92239e-05
1.66425e-07
-5.88246e-08
7.92473e-05
3.57222e-08
-5.57431e-08
7.92294e-05
1.586e-07
-5.65653e-08
7.9241e-05
8.13984e-08
-5.37864e-08
7.92464e-05
8.02654e-08
-6.14589e-08
7.9233e-05
1.58318e-07
-4.60731e-08
7.92519e-05
4.54062e-08
-6.51767e-08
7.92424e-05
1.3296e-07
-4.5267e-08
1.06966e-07
-6.13161e-08
0.000116125
1.3437e-07
-6.49177e-08
0.000116122
1.96873e-07
-8.2926e-08
0.000116126
1.54549e-07
-6.43646e-08
0.000116129
1.57752e-07
-7.96371e-08
0.000116126
1.80561e-07
-6.66382e-08
0.000116132
1.40168e-07
-7.64581e-08
0.000116126
1.96452e-07
-6.47804e-08
0.000116133
1.31391e-07
-7.92859e-08
0.00011613
1.73374e-07
-6.06551e-08
0.000116123
1.89255e-07
-7.92726e-08
0.000116137
9.58849e-08
-6.24579e-08
0.000116115
2.4632e-07
-7.75821e-08
0.00011613
9.72974e-08
-5.98653e-08
0.000116124
1.72359e-07
-8.48951e-08
0.000116109
2.18006e-07
-5.37244e-08
0.000116132
5.8773e-08
-8.69445e-08
0.0001161
2.79717e-07
-5.98113e-08
0.000116121
7.71426e-08
-7.96633e-08
0.000116109
1.9159e-07
-6.8605e-08
0.000116099
2.03609e-07
-7.44817e-08
0.000116119
6.91497e-08
-7.4479e-08
0.000116085
2.90359e-07
-7.46252e-08
0.000116113
6.13498e-08
-7.04709e-08
0.000116097
2.05116e-07
-8.55522e-08
0.000116088
2.14291e-07
-6.01478e-08
0.000116113
5.72787e-08
-9.44733e-08
0.000116082
2.88332e-07
-5.86863e-08
0.000116105
8.74904e-08
-9.08604e-08
0.000116097
1.90316e-07
-6.72881e-08
0.000116095
1.9433e-07
-8.36799e-08
0.000116108
1.10214e-07
-7.20582e-08
0.000116091
2.48558e-07
-8.09792e-08
0.000116115
8.01906e-08
-7.52042e-08
0.000116097
2.42666e-07
-7.81141e-08
0.000116111
1.35318e-07
-7.32828e-08
0.000116115
1.43689e-07
-8.48374e-08
0.000116103
2.3608e-07
-6.33508e-08
0.000116123
9.39951e-08
-8.98564e-08
0.000116114
2.08552e-07
-6.25616e-08
1.70312e-07
-8.49145e-08
0.000161136
2.11704e-07
-8.33835e-08
0.000161135
2.8643e-07
-1.08532e-07
0.00016114
2.33986e-07
-8.37881e-08
0.000161145
2.38883e-07
-1.03347e-07
0.000161144
2.66936e-07
-8.77738e-08
0.000161151
2.16019e-07
-9.83795e-08
0.000161146
2.87134e-07
-8.55382e-08
0.000161154
2.04123e-07
-1.02733e-07
0.000161153
2.60096e-07
-7.80348e-08
0.000161147
2.73411e-07
-1.033e-07
0.000161162
1.65105e-07
-8.05164e-08
0.000161141
3.46535e-07
-9.9407e-08
0.000161156
1.59955e-07
-7.64511e-08
0.00016115
2.62576e-07
-1.09253e-07
0.000161135
3.04408e-07
-6.67646e-08
0.000161158
1.21075e-07
-1.11374e-07
0.000161125
3.87153e-07
-7.39156e-08
0.000161146
1.34151e-07
-1.01315e-07
0.000161131
2.873e-07
-8.57901e-08
0.000161122
2.849e-07
-9.21976e-08
0.000161141
1.35864e-07
-9.42588e-08
0.000161105
3.9785e-07
-9.27652e-08
0.000161131
1.1671e-07
-8.76776e-08
0.000161113
3.02238e-07
-1.07605e-07
0.000161104
2.99247e-07
-7.38274e-08
0.000161126
1.1978e-07
-1.19816e-07
0.000161094
3.97255e-07
-7.24628e-08
0.000161116
1.48116e-07
-1.1406e-07
0.000161105
2.83129e-07
-8.47831e-08
0.000161103
2.7801e-07
-1.06092e-07
0.000161115
1.83116e-07
-8.97648e-08
0.000161098
3.47632e-07
-1.03895e-07
0.000161122
1.43221e-07
-9.54607e-08
0.000161102
3.44192e-07
-9.90137e-08
0.000161118
2.06427e-07
-9.43015e-08
0.000161122
2.26538e-07
-1.0913e-07
0.000161111
3.30219e-07
-8.09038e-08
0.000161132
1.61707e-07
-1.16816e-07
0.000161123
3.02021e-07
-8.01806e-08
2.51433e-07
-1.10992e-07
0.000215147
3.07833e-07
-1.01102e-07
0.000215148
3.93295e-07
-1.33632e-07
0.000215153
3.32215e-07
-1.04632e-07
0.000215159
3.36701e-07
-1.24977e-07
0.000215161
3.73515e-07
-1.13171e-07
0.000215168
3.09403e-07
-1.17849e-07
0.000215168
3.9542e-07
-1.07819e-07
0.000215176
2.97208e-07
-1.29614e-07
0.000215177
3.64743e-07
-9.36258e-08
0.000215173
3.74403e-07
-1.29366e-07
0.000215189
2.55918e-07
-1.00639e-07
0.000215171
4.63207e-07
-1.21535e-07
0.000215186
2.40684e-07
-9.31001e-08
0.000215182
3.74599e-07
-1.37212e-07
0.000215169
4.03853e-07
-7.68353e-08
0.000215191
2.06892e-07
-1.39655e-07
0.00021516
5.10161e-07
-8.64601e-08
0.00021518
2.08211e-07
-1.21492e-07
0.000215166
4.05082e-07
-1.06221e-07
0.000215156
3.78935e-07
-1.05107e-07
0.000215173
2.25004e-07
-1.15585e-07
0.000215137
5.1947e-07
-1.08403e-07
0.000215162
1.91157e-07
-1.03526e-07
0.000215142
4.17215e-07
-1.28691e-07
0.000215133
3.98817e-07
-8.39054e-08
0.00021515
2.02541e-07
-1.44415e-07
0.000215119
5.20415e-07
-8.32413e-08
0.000215138
2.27931e-07
-1.35977e-07
0.000215125
3.91391e-07
-9.74617e-08
0.000215122
3.78997e-07
-1.29017e-07
0.00021513
2.74329e-07
-1.03474e-07
0.000215114
4.60275e-07
-1.23196e-07
0.000215135
2.27338e-07
-1.17237e-07
0.000215115
4.59786e-07
-1.14144e-07
0.00021513
2.95021e-07
-1.15383e-07
0.000215131
3.28571e-07
-1.32232e-07
0.000215122
4.38418e-07
-9.53134e-08
0.000215141
2.49595e-07
-1.44994e-07
0.000215133
4.11888e-07
-9.50035e-08
3.49679e-07
-1.37823e-07
0.000278795
4.21293e-07
-1.16691e-07
0.000278797
5.1321e-07
-1.51884e-07
0.000278803
4.49289e-07
-1.27574e-07
0.000278808
4.46708e-07
-1.36363e-07
0.000278813
4.97151e-07
-1.41909e-07
0.000278818
4.22539e-07
-1.35417e-07
0.000278823
5.1365e-07
-1.22307e-07
0.000278829
4.11859e-07
-1.6258e-07
0.000278834
4.86218e-07
-1.05845e-07
0.000278834
4.87709e-07
-1.52199e-07
0.000278845
3.69884e-07
-1.24097e-07
0.000278838
5.93588e-07
-1.43621e-07
0.000278848
3.37092e-07
-1.04548e-07
0.00027885
5.10047e-07
-1.73851e-07
0.00027884
5.12556e-07
-7.94707e-08
0.000278858
3.15926e-07
-1.70555e-07
0.000278836
6.49041e-07
-1.0364e-07
0.000278851
2.9706e-07
-1.31985e-07
0.000278842
5.43943e-07
-1.349e-07
0.000278831
4.85021e-07
-1.12006e-07
0.000278848
3.36642e-07
-1.3712e-07
0.000278816
6.50578e-07
-1.2178e-07
0.000278837
2.87458e-07
-1.17243e-07
0.000278817
5.46409e-07
-1.48074e-07
0.00027881
5.0981e-07
-8.83092e-08
0.000278821
3.0961e-07
-1.69959e-07
0.000278793
6.48725e-07
-8.3621e-08
0.000278808
3.305e-07
-1.61158e-07
0.000278792
5.11975e-07
-1.00163e-07
0.000278791
4.91311e-07
-1.46765e-07
0.000278792
3.87982e-07
-1.18625e-07
0.000278779
5.77973e-07
-1.26724e-07
0.000278794
3.33666e-07
-1.42783e-07
0.000278774
5.85988e-07
-1.19323e-07
0.000278786
3.96895e-07
-1.29983e-07
0.000278785
4.49651e-07
-1.54295e-07
0.000278777
5.55219e-07
-9.92981e-08
0.000278792
3.56024e-07
-1.72115e-07
0.000278783
5.35658e-07
-1.03599e-07
4.61202e-07
-1.59704e-07
0.000352363
5.48366e-07
-1.28807e-07
0.000352364
6.36916e-07
-1.51232e-07
0.000352371
5.79974e-07
-1.51851e-07
0.000352371
5.67186e-07
-1.33208e-07
0.000352381
6.23399e-07
-1.57877e-07
0.000352378
5.57682e-07
-1.58424e-07
0.000352392
6.33217e-07
-1.17688e-07
0.000352393
5.404e-07
-1.92293e-07
0.000352396
6.24352e-07
-1.19675e-07
0.000352409
6.04347e-07
-1.62594e-07
0.000352405
5.03846e-07
-1.43385e-07
0.000352415
7.34754e-07
-1.7405e-07
0.000352417
4.43629e-07
-9.6162e-08
0.000352421
6.64385e-07
-2.2105e-07
0.000352423
6.30683e-07
-8.11492e-08
0.000352427
4.41502e-07
-1.85637e-07
0.000352426
7.99395e-07
-1.40193e-07
0.000352427
4.04088e-07
-1.2657e-07
0.000352429
6.95017e-07
-1.68155e-07
0.000352421
5.99398e-07
-1.18183e-07
0.00035243
4.76928e-07
-1.58148e-07
0.000352412
7.78038e-07
-1.30635e-07
0.000352425
4.06183e-07
-1.28773e-07
0.000352407
6.95065e-07
-1.73959e-07
0.000352406
6.14927e-07
-7.19063e-08
0.00035241
4.4996e-07
-2.12059e-07
0.000352386
7.78097e-07
-6.68568e-08
0.000352402
4.43154e-07
-1.80024e-07
0.00035238
6.55282e-07
-1.12872e-07
0.000352384
6.01468e-07
-1.35024e-07
0.000352377
5.23375e-07
-1.4734e-07
0.000352367
6.99033e-07
-1.10809e-07
0.000352376
4.54014e-07
-1.6089e-07
0.000352357
7.21317e-07
-1.21934e-07
0.000352367
5.05458e-07
-1.25376e-07
0.00035236
5.85514e-07
-1.75054e-07
0.000352356
6.75262e-07
-8.80936e-08
0.000352366
4.7482e-07
-1.89441e-07
0.000352353
6.68326e-07
-1.04729e-07
5.78829e-07
-1.66865e-07
0.000435649
6.81791e-07
-1.36056e-07
0.000435644
7.57306e-07
-1.23171e-07
0.000435653
7.07169e-07
-1.60543e-07
0.000435647
6.97685e-07
-1.23639e-07
0.000435664
7.34585e-07
-1.38527e-07
0.00043565
7.05901e-07
-1.78395e-07
0.00043567
7.46554e-07
-9.65117e-08
0.000435672
6.66777e-07
-1.96156e-07
0.000435663
7.72986e-07
-1.28308e-07
0.000435697
7.11643e-07
-1.66021e-07
0.00043567
6.49376e-07
-1.28932e-07
0.000435698
8.72046e-07
-2.19114e-07
0.000435699
5.59296e-07
-6.81838e-08
0.000435689
8.21562e-07
-2.46391e-07
0.000435722
7.47966e-07
-1.08758e-07
0.000435691
5.90232e-07
-1.62973e-07
0.000435726
9.34452e-07
-1.88013e-07
0.000435708
5.30835e-07
-1.17862e-07
0.000435713
8.62491e-07
-1.9641e-07
0.000435723
6.94559e-07
-1.18205e-07
0.000435711
6.53974e-07
-1.836e-07
0.000435714
9.04529e-07
-1.46972e-07
0.000435719
5.19284e-07
-1.07263e-07
0.000435706
8.76374e-07
-2.41507e-07
0.000435705
7.15116e-07
-2.61256e-08
0.000435714
5.93051e-07
-2.46498e-07
0.000435685
9.3329e-07
-8.63033e-08
0.000435704
5.50279e-07
-1.44382e-07
0.000435683
8.06065e-07
-1.59474e-07
0.000435683
7.26739e-07
-1.05269e-07
0.000435676
6.60102e-07
-1.61815e-07
0.000435671
8.2021e-07
-1.02788e-07
0.000435669
5.91966e-07
-1.56686e-07
0.000435656
8.51233e-07
-1.23788e-07
0.000435664
6.17557e-07
-1.0346e-07
0.00043565
7.32132e-07
-1.86679e-07
0.000435649
7.88446e-07
-6.33504e-08
0.000435657
6.0022e-07
-1.88173e-07
0.000435639
8.03275e-07
-9.72249e-08
6.91398e-07
-1.47849e-07
0.00052789
8.11106e-07
-1.35374e-07
0.000527883
8.72516e-07
-7.48503e-08
0.000527894
8.08332e-07
-1.30018e-07
0.000527876
8.37509e-07
-1.12917e-07
0.000527905
8.14338e-07
-7.67616e-08
0.000527877
8.50482e-07
-1.75141e-07
0.000527898
8.50054e-07
-5.52143e-08
0.000527911
7.62571e-07
-1.66855e-07
0.000527878
9.27303e-07
-9.79923e-08
0.00052794
7.82862e-07
-1.68146e-07
0.000527892
8.02155e-07
-7.04287e-08
0.000527924
9.80951e-07
-2.32052e-07
0.000527947
6.58154e-07
-5.13904e-08
0.000527895
9.91235e-07
-2.05521e-07
0.000527986
8.15145e-07
-1.50124e-07
0.000527908
7.65123e-07
-1.17009e-07
0.00052797
1.04985e-06
-2.16147e-07
0.000527959
6.29277e-07
-9.51211e-08
0.00052794
1.05661e-06
-2.20946e-07
0.000527989
7.62057e-07
-1.18672e-07
0.000527943
8.32704e-07
-1.66299e-07
0.000527984
1.03149e-06
-2.16551e-07
0.00052796
6.37439e-07
-4.1004e-08
0.000527972
1.03227e-06
-2.93913e-07
0.000527965
8.38779e-07
-4.81408e-08
0.000527964
7.38015e-07
-1.94801e-07
0.000527964
1.05435e-06
-1.5958e-07
0.000527953
7.04801e-07
-1.07288e-07
0.000527952
9.24191e-07
-1.66847e-07
0.000527951
8.47633e-07
-1.1658e-07
0.000527927
8.31527e-07
-1.57195e-07
0.000527943
9.00532e-07
-8.84962e-08
0.000527922
7.51052e-07
-1.56568e-07
0.000527913
9.81316e-07
-1.21441e-07
0.000527923
7.1112e-07
-6.68737e-08
0.000527899
8.94376e-07
-1.98745e-07
0.000527902
8.88643e-07
-2.87286e-08
0.000527903
7.20405e-07
-1.64076e-07
0.000527887
9.38728e-07
-9.06157e-08
7.89871e-07
-9.58631e-08
0.000627836
9.12559e-07
-1.13921e-07
0.000627817
1.00176e-06
-5.35936e-08
0.00062784
8.70237e-07
-4.25074e-08
0.000627798
9.6432e-07
-1.03418e-07
0.00062784
8.78359e-07
1.1315e-08
0.000627807
9.59406e-07
-1.3825e-07
0.000627806
9.63621e-07
-9.26668e-10
0.000627845
7.99395e-07
-1.02836e-07
0.000627774
1.07517e-06
-1.71487e-08
0.000627856
8.04864e-07
-1.30318e-07
0.000627812
9.27709e-07
-1.90244e-09
0.000627806
1.08689e-06
-1.68128e-07
0.000627888
6.81516e-07
-3.08593e-08
0.000627772
1.16478e-06
-9.87928e-08
0.000627913
8.21618e-07
-1.54309e-07
0.000627822
9.11108e-07
-4.20245e-08
0.000627871
1.16164e-06
-2.16351e-07
0.000627908
6.62517e-07
-4.53941e-08
0.000627828
1.24832e-06
-1.81531e-07
0.000627954
7.66487e-07
-1.38401e-07
0.000627846
1.02351e-06
-1.00842e-07
0.000627938
1.11126e-06
-2.54373e-07
0.00062791
7.36877e-07
-3.15801e-08
0.000627894
1.19569e-06
-2.40306e-07
0.000627953
8.70167e-07
-1.05008e-07
0.000627892
9.4827e-07
-1.66229e-07
0.000627944
1.11639e-06
-1.61923e-07
0.000627923
8.36446e-07
-1.3166e-07
0.000627908
1.07372e-06
-1.50031e-07
0.000627946
8.86603e-07
-9.83153e-08
0.000627886
1.03811e-06
-1.98675e-07
0.000627927
9.64475e-07
-6.8954e-08
0.000627895
8.78726e-07
-1.39191e-07
0.000627881
1.11797e-06
-1.49974e-07
0.000627897
7.76265e-07
-1.44358e-08
0.000627859
1.05134e-06
-2.11784e-07
0.000627865
9.89179e-07
-2.82163e-08
0.000627857
8.21372e-07
-1.0569e-07
0.000627838
1.05782e-06
-1.01578e-07
8.84307e-07
-3.20833e-08
0.000733923
9.67451e-07
-4.42698e-08
0.000733882
1.118e-06
-9.70851e-08
0.000733914
9.47355e-07
1.98674e-08
0.000733861
1.0431e-06
-6.54134e-08
0.000733887
9.17027e-07
9.14334e-08
0.000733881
1.00146e-06
-5.69673e-08
0.000733842
1.08885e-06
2.76704e-08
0.000733899
8.20802e-07
-4.52816e-08
0.000733806
1.19202e-06
8.08536e-08
0.000733856
7.84896e-07
-1.97354e-08
0.000733854
9.69764e-07
7.56778e-08
0.000733782
1.20752e-06
-6.33546e-08
0.000733907
6.59452e-07
-1.05781e-08
0.000733755
1.30245e-06
6.73385e-08
0.000733882
7.70381e-07
-8.58475e-08
0.000733841
9.59319e-07
8.9301e-08
0.000733818
1.28744e-06
-1.74098e-07
0.000733944
6.26301e-07
7.116e-09
0.000733786
1.42082e-06
-6.79416e-08
0.000733961
6.87518e-07
-7.80411e-08
0.000733859
1.12125e-06
-1.07164e-08
0.000733912
1.21209e-06
-2.32868e-07
0.000733963
7.38588e-07
-1.79218e-08
0.000733872
1.37835e-06
-1.86826e-07
0.000733995
7.97381e-07
-3.89918e-08
0.000733923
1.08873e-06
-1.51934e-07
0.000733972
1.20569e-06
-1.66121e-07
0.000734
8.9256e-07
-1.11892e-07
0.000733945
1.23619e-06
-1.73329e-07
0.000734033
8.44265e-07
-1.51158e-08
0.000733962
1.1875e-06
-1.95705e-07
0.000734019
1.02585e-06
-1.11873e-07
0.000733998
9.83218e-07
-1.0548e-07
0.000733972
1.22472e-06
-1.72457e-07
0.000734005
7.83087e-07
2.39447e-08
0.000733956
1.16556e-06
-1.73793e-07
0.000733973
1.06026e-06
-8.79764e-08
0.000733947
9.3968e-07
-8.12493e-08
0.000733931
1.12482e-06
-8.97398e-08
9.46861e-07
-8.53746e-09
0.000844539
9.28339e-07
7.78858e-08
0.000844508
1.10734e-06
-8.56921e-08
0.000844531
1.02466e-06
-5.22082e-08
0.000844495
1.14529e-06
-9.42454e-08
0.00084448
9.46561e-07
1.37262e-07
0.000844495
9.29109e-07
9.85864e-08
0.000844455
1.11652e-06
8.61768e-08
0.000844518
8.36294e-07
-6.41023e-08
0.000844444
1.33261e-06
6.54681e-08
0.000844427
7.75901e-07
1.15964e-07
0.000844449
8.79109e-07
2.08975e-07
0.000844344
1.24687e-06
1.08119e-07
0.000844462
6.19192e-07
-5.17405e-08
0.000844325
1.45517e-06
1.59705e-07
0.000844357
7.24822e-07
2.78841e-08
0.000844373
8.59096e-07
3.09373e-07
0.000844283
1.32991e-06
-2.37244e-08
0.000844455
5.63369e-07
1.24748e-08
0.000844293
1.58832e-06
3.11132e-08
0.000844412
6.17756e-07
2.73366e-08
0.000844374
1.03985e-06
2.31324e-07
0.000844363
1.23584e-06
-1.3227e-07
0.000844483
6.80905e-07
9.48265e-09
0.000844362
1.56112e-06
-1.69853e-07
0.000844462
7.13148e-07
5.79982e-08
0.000844425
1.04661e-06
5.09642e-08
0.000844443
1.21527e-06
-1.37232e-07
0.000844535
8.87002e-07
-9.1405e-08
0.000844455
1.42865e-06
-2.26829e-07
0.000844557
7.71456e-07
6.38248e-08
0.000844499
1.20262e-06
-3.04424e-08
0.000844567
9.84581e-07
-8.62326e-08
0.0008446
1.04004e-06
-1.23265e-07
0.000844559
1.37152e-06
-2.16944e-07
0.000844615
7.32321e-07
6.97425e-08
0.000844553
1.17723e-06
-3.91803e-08
0.000844607
9.96621e-07
-5.6857e-08
0.000844585
1.02983e-06
-1.58478e-07
0.000844581
1.21832e-06
-1.22245e-07
9.59246e-07
-3.70842e-09
0.000958517
8.9635e-07
1.83902e-07
0.000958478
9.25013e-07
1.47096e-07
0.000958491
9.04372e-07
-3.47674e-08
0.000958504
1.18408e-06
-2.70479e-07
0.000958478
1.05717e-06
-2.96528e-08
0.000958467
8.67999e-07
2.32622e-07
0.000958417
9.87335e-07
3.12473e-07
0.000958488
6.76492e-07
2.65121e-08
0.000958498
1.39836e-06
-1.25649e-07
0.000958465
8.8107e-07
4.48963e-08
0.000958466
7.85933e-07
3.06056e-07
0.000958337
1.15256e-06
4.27258e-07
0.00095843
4.08777e-07
1.73822e-08
0.000958367
1.54296e-06
6.10992e-08
0.000958325
7.96547e-07
-2.624e-08
0.00095832
7.57847e-07
4.68357e-07
0.000958169
1.23555e-06
3.3849e-07
0.000958324
3.41651e-07
9.78686e-08
0.000958232
1.68378e-06
1.4558e-08
0.000958285
6.65872e-07
-3.05292e-08
0.000958263
9.51394e-07
4.68615e-07
0.000958184
1.12504e-06
2.21607e-07
0.000958328
4.41545e-07
1.5461e-07
0.000958266
1.65679e-06
-1.97855e-07
0.000958317
7.36756e-07
-3.11766e-08
0.000958278
9.74972e-07
3.05436e-07
0.000958231
1.07575e-06
1.50546e-07
0.000958358
6.70974e-07
4.58165e-08
0.000958315
1.55206e-06
-3.31553e-07
0.000958408
7.88366e-07
-4.55859e-08
0.000958347
1.20343e-06
1.70083e-07
0.000958362
8.14782e-07
1.83611e-07
0.000958463
8.75054e-07
9.20294e-09
0.000958454
1.47575e-06
-3.39569e-07
0.000958544
7.50787e-07
-2.58005e-08
0.000958458
1.19076e-06
1.19258e-07
0.000958502
7.90509e-07
2.20282e-07
0.000958517
8.99672e-07
-7.47756e-08
0.000958566
1.26179e-06
-2.63178e-07
1.01878e-06
-1.24381e-07
0.00107557
9.36178e-07
4.63967e-08
0.00107552
7.89799e-07
4.15529e-07
0.00107547
6.46034e-07
3.21789e-07
0.00107551
9.75095e-07
-2.46187e-07
0.00107553
1.05757e-06
-3.87083e-07
0.00107553
8.87289e-07
5.6843e-08
0.00107545
9.02156e-07
5.20843e-07
0.00107545
4.09645e-07
4.14196e-07
0.00107552
1.20229e-06
-1.38725e-07
0.00107556
9.08939e-07
-2.49052e-07
0.0010756
7.59884e-07
1.06766e-07
0.00107545
1.11186e-06
6.68253e-07
0.00107546
9.35664e-08
3.91386e-07
0.00107547
1.37146e-06
7.05948e-08
0.00107546
8.06237e-07
-2.79478e-07
0.00107547
7.22365e-07
2.80389e-07
0.00107526
1.20223e-06
6.37139e-07
0.00107531
2.25506e-08
4.50506e-07
0.00107527
1.53979e-06
8.63869e-08
0.00107532
6.59722e-07
-2.69615e-07
0.00107533
9.32109e-07
3.41842e-07
0.00107519
1.0983e-06
5.51522e-07
0.00107525
1.12726e-07
5.65866e-07
0.00107525
1.50846e-06
-4.76955e-08
0.00107532
6.94993e-07
-2.82548e-07
0.00107531
9.66589e-07
2.32772e-07
0.00107519
1.00664e-06
4.76654e-07
0.00107525
3.29192e-07
4.76687e-07
0.00107524
1.42177e-06
-2.143e-07
0.00107535
7.19041e-07
-3.22527e-07
0.00107534
1.25583e-06
5.89143e-08
0.00107527
7.306e-07
4.59609e-07
0.00107533
5.7591e-07
4.44799e-07
0.00107534
1.35111e-06
-2.39446e-07
0.00107549
6.80514e-07
-2.78198e-07
0.00107545
1.26695e-06
9.05163e-09
0.00107544
6.69134e-07
5.00471e-07
0.00107542
6.40169e-07
3.60291e-07
0.00107548
1.08187e-06
-1.90131e-07
9.74542e-07
-3.64837e-07
0.00119648
8.69516e-07
-2.40505e-07
0.00119648
7.09086e-07
3.63441e-07
0.00119641
4.77176e-07
6.81453e-07
0.00119641
6.92644e-07
1.5032e-07
0.00119644
8.49484e-07
-4.66726e-07
0.00119649
7.8816e-07
-2.96574e-07
0.00119644
8.49849e-07
3.8134e-07
0.00119638
2.46453e-07
7.51867e-07
0.0011964
9.17207e-07
1.98703e-07
0.00119645
7.52444e-07
-3.32428e-07
0.00119657
6.17003e-07
-2.56565e-07
0.00119648
1.10414e-06
5.21474e-07
0.00119644
-1.10488e-07
7.11824e-07
0.00119644
1.09424e-06
3.76383e-07
0.00119644
6.46822e-07
-3.45875e-07
0.00119653
5.66569e-07
-9.88389e-08
0.00119636
1.20587e-06
5.24515e-07
0.00119633
-1.91783e-07
7.49344e-07
0.00119627
1.2977e-06
3.95371e-07
0.00119629
4.95549e-07
-3.26867e-07
0.00119637
7.80798e-07
-1.52091e-08
0.00119625
1.12183e-06
4.63696e-07
0.00119623
-9.64478e-08
8.77716e-07
0.0011962
1.28168e-06
3.54783e-07
0.00119627
4.91193e-07
-3.09453e-07
0.00119634
8.30285e-07
-8.31502e-08
0.00119623
9.96862e-07
4.28864e-07
0.00119622
8.74296e-08
8.40056e-07
0.00119616
1.20723e-06
2.15247e-07
0.00119625
4.68969e-07
-3.43517e-07
0.00119632
1.16024e-06
-2.51168e-07
0.00119624
7.02151e-07
3.76521e-07
0.00119625
3.592e-07
7.93647e-07
0.0011962
1.15184e-06
1.84101e-07
0.00119634
4.34767e-07
-3.06133e-07
0.00119638
1.20733e-06
-2.77165e-07
0.00119638
6.10112e-07
4.15206e-07
0.00119632
4.72352e-07
7.40932e-07
0.00119631
8.44709e-07
2.12248e-07
7.49226e-07
-3.7119e-07
0.00132329
6.9708e-07
-3.06764e-07
0.00132334
5.75846e-07
1.34624e-07
0.0013233
3.78145e-07
6.78873e-07
0.00132329
4.88267e-07
4.7486e-07
0.00132329
6.02149e-07
-2.0629e-07
0.00132334
5.74903e-07
-3.82182e-07
0.00132333
7.23156e-07
9.58872e-08
0.00132328
1.53383e-07
7.10655e-07
0.00132328
6.89635e-07
4.72445e-07
0.00132328
5.62737e-07
-1.22019e-07
0.0013234
3.65039e-07
-3.66243e-07
0.00132337
1.02016e-06
2.14894e-07
0.00132334
-2.27049e-07
6.52611e-07
0.00132334
8.63932e-07
6.03604e-07
0.0013233
4.58805e-07
-1.4296e-07
0.00132341
2.96903e-07
-2.38095e-07
0.00132333
1.13104e-06
2.24484e-07
0.00132329
-3.26803e-07
6.84959e-07
0.00132325
1.08528e-06
6.09195e-07
0.00132321
3.12692e-07
-1.33942e-07
0.00132331
5.02785e-07
-1.65327e-07
0.00132323
1.06442e-06
1.74277e-07
0.00132321
-2.33656e-07
7.89519e-07
0.00132318
1.10364e-06
6.00491e-07
0.00132318
2.76134e-07
-7.50223e-08
0.00132327
5.69586e-07
-2.09263e-07
0.00132321
9.23125e-07
1.72185e-07
0.00132321
-8.6544e-08
7.95446e-07
0.00132314
1.04689e-06
5.16582e-07
0.00132316
1.99525e-07
-7.76677e-08
0.00132324
9.23438e-07
-3.34673e-07
0.00132319
6.09853e-07
1.2965e-07
0.00132321
1.924e-07
7.38828e-07
0.00132314
1.00407e-06
4.89465e-07
0.00132321
1.64506e-07
-6.28287e-08
0.00132325
1.01486e-06
-3.43752e-07
0.00132327
4.90424e-07
1.56493e-07
0.00132324
3.58454e-07
7.16822e-07
0.00132319
6.78547e-07
5.13682e-07
4.90706e-07
-1.1475e-07
0.00145882
5.17844e-07
-1.54807e-07
0.00145887
4.0901e-07
1.75849e-08
0.00145886
2.98616e-07
4.67169e-07
0.00145886
3.49327e-07
4.79272e-07
0.00145885
4.08597e-07
3.30589e-08
0.00145886
3.60198e-07
-2.05377e-07
0.00145888
5.56274e-07
-3.13593e-08
0.00145884
8.15427e-08
4.76367e-07
0.00145887
5.11231e-07
4.5194e-07
0.00145882
4.22562e-07
7.09445e-08
0.0014589
1.14896e-07
-2.25996e-07
0.0014589
8.8999e-07
6.38593e-08
0.00145887
-3.06179e-07
4.03918e-07
0.0014589
6.801e-07
5.49305e-07
0.00145884
3.27216e-07
3.45371e-08
0.00145893
3.05824e-08
-1.32153e-07
0.00145889
1.00828e-06
6.28436e-08
0.00145886
-4.27502e-07
4.39434e-07
0.00145887
8.99588e-07
5.47192e-07
0.0014588
1.86437e-07
3.968e-08
0.00145888
2.13255e-07
-7.79792e-08
0.00145884
9.54099e-07
1.91308e-08
0.00145883
-3.53248e-07
5.14795e-07
0.00145883
9.53124e-07
5.25696e-07
0.00145878
1.26314e-07
1.16415e-07
0.00145886
2.96884e-07
-1.11787e-07
0.00145881
8.13331e-07
3.41701e-08
0.00145883
-2.43373e-07
5.36382e-07
0.0014588
9.23784e-07
4.88392e-07
0.00145877
-4.71904e-09
1.40903e-07
0.00145884
6.66557e-07
-1.91014e-07
0.00145879
4.84842e-07
2.63666e-08
0.00145883
3.24958e-08
4.87274e-07
0.00145878
8.90196e-07
4.7619e-07
0.0014588
-5.07797e-08
1.34687e-07
0.00145882
7.9981e-07
-1.88475e-07
0.00145884
3.3532e-07
3.61037e-08
0.00145884
2.46059e-07
4.79695e-07
0.0014588
5.63293e-07
5.00722e-07
2.74778e-07
9.19359e-08
0.00160585
3.88267e-07
9.0881e-09
0.00160589
2.56369e-07
1.4798e-08
0.00160587
2.33056e-07
2.778e-07
0.00160589
2.40023e-07
3.22091e-07
0.00160588
2.78532e-07
1.03273e-07
0.00160588
2.03425e-07
-1.06518e-08
0.0016059
4.07911e-07
-2.65669e-08
0.00160586
2.98488e-08
2.79666e-07
0.00160591
3.55024e-07
2.89232e-07
0.00160586
3.38911e-07
1.19728e-07
0.0016059
-7.22636e-08
-6.12831e-08
0.00160591
7.65906e-07
5.3121e-08
0.00160586
-3.5008e-07
1.95823e-07
0.00160593
5.19865e-07
3.65834e-07
0.00160586
2.59306e-07
7.6495e-08
0.00160591
-1.67628e-07
2.55793e-09
0.00160591
8.90714e-07
3.94937e-08
0.00160587
-4.86441e-07
2.35118e-07
0.00160593
7.20866e-07
3.62625e-07
0.00160584
1.26743e-07
8.54808e-08
0.00160591
-1.9187e-08
4.02821e-08
0.00160588
8.5099e-07
3.92941e-09
0.00160587
-4.48426e-07
2.9525e-07
0.00160591
8.01018e-07
3.21986e-07
0.00160584
4.53862e-08
1.6555e-07
0.00160591
7.57861e-08
6.47255e-09
0.00160586
7.22842e-07
3.42763e-08
0.00160588
-3.75884e-07
3.07596e-07
0.00160589
8.10726e-07
3.14823e-07
0.00160584
-1.34209e-07
1.95879e-07
0.0016059
4.54502e-07
-3.81857e-08
0.00160584
3.85284e-07
5.24288e-08
0.00160589
-1.09741e-07
2.70566e-07
0.00160586
7.85976e-07
3.19754e-07
0.00160586
-2.00696e-07
1.73665e-07
0.00160587
6.24466e-07
-2.51687e-08
0.00160587
2.04166e-07
4.60767e-08
0.00160588
1.39538e-07
2.69617e-07
0.00160586
4.69817e-07
3.41681e-07
1.10404e-07
1.37922e-07
0.00176675
3.09298e-07
9.34711e-08
0.00176679
1.33029e-07
2.58596e-08
0.00176677
1.91421e-07
1.68744e-07
0.00176679
1.50898e-07
1.8174e-07
0.00176678
1.97595e-07
7.7071e-08
0.00176677
1.03625e-07
9.32651e-08
0.0017668
2.92909e-07
-1.10962e-08
0.00176675
9.47752e-09
1.70824e-07
0.00176681
2.2008e-07
1.49324e-07
0.00176676
2.97485e-07
9.01436e-08
0.00176677
-1.93093e-07
2.56852e-08
0.00176681
6.59609e-07
6.50814e-08
0.00176674
-3.50891e-07
8.16296e-08
0.00176683
3.78661e-07
2.12669e-07
0.00176675
2.38956e-07
5.03135e-08
0.00176679
-2.943e-07