/*--------------------------------*- C++ -*----------------------------------*\
  =========                 |
  \\      /  F ield         | OpenFOAM: The Open Source CFD Toolbox
   \\    /   O peration     | Website:  https://openfoam.org
    \\  /    A nd           | Version:  10
     \\/     M anipulation  |
\*---------------------------------------------------------------------------*/
FoamFile
{
    format      ascii;
    class       surfaceScalarField;
    location    "35";
    object      phi_0;
}
// * * * * * * * * * * * * * * * * * * * * * * * * * * * * * * * * * * * * * //

dimensions      [0 3 -1 0 0 0 0];

internalField   nonuniform List<scalar> 
300480
(
0.000161144
5.54185e-06
0.000154234
0.000160538
1.46694e-05
0.00017034
0.00015092
2.85329e-05
0.000187036
0.000161483
-2.50338e-05
0.000169436
0.000165824
6.80912e-06
0.00016566
0.000152066
4.01214e-05
0.000175063
0.000156877
-1.12066e-05
0.000178388
0.000168073
-1.56422e-05
0.000179187
0.000160836
3.14853e-05
0.000177261
0.000159168
2.11872e-05
0.000173561
0.000160972
7.65908e-06
0.000174289
0.000158752
2.36291e-05
0.000152992
0.000165159
9.46458e-06
0.000158109
0.000157415
2.46125e-05
0.000185521
0.000152993
2.18467e-05
0.000163499
0.000166915
-3.27359e-06
0.000161539
0.000164258
6.80653e-06
0.000182397
0.000155111
2.12437e-05
0.000175642
0.00015105
1.5122e-05
0.000168983
0.000160366
-4.00563e-06
0.000155054
0.000164491
-2.63967e-06
0.000176244
0.000156193
1.51104e-05
0.000182067
0.000162336
6.90816e-06
0.000166086
0.000164877
1.80413e-05
0.000178486
0.000151097
2.62763e-05
0.000172313
0.000142016
2.32623e-05
0.000178099
0.000135908
1.49421e-05
0.000175083
0.000147298
-5.78224e-05
0.000188038
0.000160695
-3.14821e-05
0.000171719
0.000165359
4.08615e-06
0.000165088
0.000164107
1.46956e-05
0.00017839
0.00015791
3.17802e-05
0.000189714
0.00015671
2.42992e-05
0.000189633
0.00016183
1.10487e-05
0.00018381
0.00016171
1.19979e-05
0.000189631
0.000154531
1.83109e-05
0.000171866
0.000154121
2.46187e-05
0.000159014
0.000150677
2.39901e-05
0.000161823
0.00014901
1.07983e-05
0.000175181
4.3441e-06
0.000186531
0.00016181
-9.48321e-06
0.000107373
0.000174373
2.62809e-05
0.000129021
0.000167205
5.84247e-05
0.000167471
0.0001856
-0.000127608
0.000154069
0.000184696
-1.19412e-05
0.000142251
0.000159714
8.63396e-05
0.000155627
0.000182312
-7.88372e-05
0.000160494
0.000200316
-7.24783e-05
0.000165012
0.000176956
5.37888e-05
0.00016533
0.000168146
5.77739e-06
0.000146176
0.000164944
1.56431e-05
0.000139404
0.000164556
3.85633e-05
0.000100051
0.000187472
2.86281e-06
0.000108869
0.000167277
6.6968e-05
0.000177006
0.000153488
1.38051e-05
0.000131148
0.000189919
-4.77951e-05
0.000109072
0.000185441
1.05969e-05
0.00016417
0.000160008
6.73693e-05
0.000143312
0.000157729
1.45443e-05
0.000127957
0.000178376
-6.5323e-05
0.000109005
0.000182652
-3.2283e-05
0.000150382
0.00016462
9.52119e-06
0.000162057
0.000179948
-1.31435e-05
0.000131937
0.00018254
4.90641e-05
0.000153997
0.000144379
4.25944e-05
0.000156282
0.00012178
5.69402e-05
0.00014407
0.000120085
-1.29036e-05
0.000143379
0.000140853
-0.000218738
0.000211315
0.000164195
-0.000136316
0.000154911
0.000176805
-1.35584e-05
0.000134991
0.000177289
1.26148e-06
0.000163016
0.000172258
4.84678e-05
0.000193218
0.000169424
5.15139e-05
0.000186084
0.000182805
-5.4739e-06
0.000169447
0.000179531
1.30234e-05
0.000187799
0.000152933
3.82608e-05
0.000141404
0.000152846
4.73083e-05
0.000111592
0.000143719
2.13367e-05
0.000134655
0.000139722
-1.70087e-05
0.000153506
-2.11332e-05
0.000169742
0.000163499
-3.05942e-05
0.000109341
0.000196753
1.94535e-05
9.25554e-05
0.00021913
6.39832e-05
0.000145233
0.000226665
-0.000232733
0.0001566
0.000206632
-3.47601e-05
0.000131723
0.000187753
0.000117666
0.000147495
0.000218243
-0.000131793
0.000155983
0.000236564
-0.000131752
0.000171787
0.000200552
6.89097e-05
0.000166127
0.000176907
-3.84272e-05
0.000138533
0.000165465
3.66495e-05
0.000106935
0.000170019
2.52913e-05
7.82309e-05
0.000209157
-3.02226e-05
8.77434e-05
0.00018268
0.000122263
0.000151035
0.000159838
-2.92629e-05
0.000133239
0.000216195
-0.000133391
9.49418e-05
0.000209271
7.56368e-06
0.000150932
0.000173713
0.000111058
0.00011285
0.000180608
-2.43061e-06
9.35668e-05
0.000203656
-0.000153122
9.41128e-05
0.000203249
-7.1606e-05
0.000135808
0.000178087
-1.80738e-05
0.000157832
0.000196719
-5.6564e-05
0.000128078
0.000206147
7.53429e-05
0.000127942
0.000151442
5.26972e-05
0.000158264
0.000122987
0.000115007
0.000104711
0.000135702
-2.8922e-05
9.98398e-05
0.000155648
-0.000273405
0.00018454
0.000171731
-0.000222932
0.000142105
0.000183004
-2.85415e-05
0.000116496
0.000193688
-2.85369e-05
0.000148382
0.000194612
5.03495e-05
0.000186521
0.000191183
7.66214e-05
0.000177286
0.000216304
-5.40157e-05
0.000171511
0.000209009
3.9266e-06
0.000176967
0.000159231
6.88569e-05
0.000115588
0.00015962
7.00436e-05
7.54183e-05
0.000133008
1.3258e-05
0.000124914
0.000126717
-5.95252e-05
0.000145755
-6.90381e-05
0.000154338
0.000171475
-4.18885e-05
0.000134396
0.000222947
-1.17661e-05
7.17733e-05
0.000278231
4.32415e-05
0.000124267
0.000261527
-0.00031535
0.00016809
0.00022672
-7.07187e-05
0.000129128
0.000224544
0.000122211
0.000141376
0.000235427
-0.00014026
0.000159787
0.000243908
-0.00018507
0.00018131
0.000221463
5.23948e-05
0.000174613
0.000197001
-7.46131e-05
0.000135472
0.000182624
8.21104e-05
7.86107e-05
0.000185208
9.18387e-06
7.11823e-05
0.000222228
-6.69387e-05
8.09959e-05
0.00019669
0.000185541
0.000119863
0.000173767
-4.27271e-05
0.000120962
0.000243506
-0.000204898
9.89638e-05
0.00024319
-8.81268e-06
0.00014492
0.000203024
0.000132691
9.79348e-05
0.000205871
6.90541e-06
6.49461e-05
0.000219483
-0.000212753
8.72586e-05
0.000224592
-0.000102875
0.000122447
0.000201757
-6.86617e-05
0.000169386
0.000209382
-0.000120156
0.000152406
0.000234057
7.98063e-05
0.000114958
0.000178973
5.43755e-05
0.000161248
0.000142572
0.00016319
0.000113257
0.000164252
-1.03837e-05
6.79361e-05
0.000192882
-0.000230454
0.000133649
0.000203722
-0.000266951
0.000129695
0.000193739
-2.25905e-05
0.000109042
0.000210529
-5.73948e-05
0.000132843
0.000231012
3.49606e-05
0.000165276
0.000223431
0.000103369
0.00017241
0.00025099
-0.000114364
0.000189019
0.000247976
-2.08823e-05
0.000173972
0.000176263
0.000118218
0.000103797
0.000173882
0.000119785
4.77761e-05
0.000125777
3.99022e-05
0.000118783
0.000123792
-0.000100714
0.000153043
-0.000132115
0.000138259
0.000188824
-4.67678e-05
0.000143099
0.000252622
-5.23212e-05
6.53416e-05
0.000299402
4.0557e-05
0.000108016
0.000260961
-0.000370035
0.000182881
0.000233037
-0.000134026
0.00013082
0.000251821
9.66122e-05
0.000126498
0.00024826
-0.000131773
0.000156342
0.000231811
-0.000235561
0.000188601
0.000221651
2.73115e-05
0.000182074
0.000209171
-7.0818e-05
0.00012901
0.000208773
0.000119515
6.70988e-05
0.000212047
2.94972e-06
7.3618e-05
0.00023465
-0.000105434
7.56161e-05
0.000213761
0.000248895
9.14149e-05
0.000202434
1.70403e-05
9.13725e-05
0.00027389
-0.000234381
9.91289e-05
0.000280654
-3.49129e-05
0.000139444
0.000246554
0.000133237
0.000107872
0.000238147
5.81815e-05
5.97614e-05
0.000228749
-0.000224041
8.53458e-05
0.000251728
-0.000127912
0.000105498
0.000244813
-0.000129711
0.000174644
0.00022748
-0.000178904
0.000168709
0.000257254
7.53784e-05
0.000112715
0.000212891
5.79765e-05
0.000152021
0.000170691
0.00014443
0.000153055
0.000185278
-4.2237e-06
0.000102769
0.000221881
-0.000213328
0.000111775
0.000248553
-0.000303335
0.000114253
0.000217699
-1.05016e-05
0.000112407
0.00021884
-5.86807e-05
0.000117058
0.000282967
-1.44979e-05
0.000127789
0.000286006
0.000127671
0.000165498
0.00028447
-0.000135215
0.000198804
0.000283862
-4.73415e-05
0.000175039
0.000200859
0.000162447
0.000125097
0.000192654
0.000187456
3.91463e-05
0.000129989
0.00011169
0.000107161
0.000131843
-0.00012314
0.000167587
-0.000211505
0.000136325
0.00022814
-6.86022e-05
0.000140122
0.000286103
-8.72417e-05
5.48411e-05
0.000295127
6.59958e-05
0.000104759
0.00025389
-0.000374933
0.000187918
0.000239146
-0.00017704
0.000118568
0.000271386
5.8644e-05
0.000107987
0.000288086
-0.000144875
0.000155472
0.000248239
-0.000266965
0.000185937
0.000216546
5.20826e-05
0.000177436
0.000208247
-2.10095e-05
0.000126281
0.000225762
0.000120677
7.87263e-05
0.000235224
-1.21409e-05
9.27061e-05
0.000248601
-0.000160274
8.21314e-05
0.000245722
0.00030126
6.90015e-05
0.000255689
9.61918e-05
7.85228e-05
0.000304057
-0.000232549
8.90691e-05
0.000301772
-7.11011e-05
0.000129967
0.000290442
0.000102647
0.000125725
0.000278032
0.000114604
7.79378e-05
0.00024977
-0.000207693
8.47914e-05
0.000285139
-0.000148857
8.63707e-05
0.000291005
-0.000165194
0.000164556
0.000258912
-0.000218462
0.000167892
0.000279263
8.4472e-05
0.000108222
0.000245057
6.5631e-05
0.000146896
0.000203875
7.40493e-05
0.000169125
0.000217667
-3.95211e-05
0.000139866
0.000249356
-0.000189013
9.54605e-05
0.000279518
-0.000305332
7.41172e-05
0.000249321
-1.69764e-06
0.00010763
0.000230898
-2.33125e-05
0.000100072
0.000327088
-7.61534e-05
7.69865e-05
0.000359094
0.000136028
0.000143883
0.000319744
-0.00010187
0.000193552
0.000308117
-6.98932e-05
0.000171559
0.000227943
0.000178115
0.000160219
0.000205949
0.00026881
5.33375e-05
0.000146574
0.000209482
9.30781e-05
0.00014849
-0.000124674
0.000165788
-0.000297322
0.00014587
0.000289775
-0.000119563
0.000143901
0.000352176
-0.000144566
2.99759e-05
0.000320473
8.65805e-05
0.000110278
0.000285014
-0.000348517
0.000189536
0.000287061
-0.000205589
9.28294e-05
0.000300948
3.77774e-05
8.94315e-05
0.000332693
-0.000168204
0.000163933
0.000302948
-0.00029327
0.000173205
0.000234531
7.88175e-05
0.000160931
0.000224785
1.55853e-05
0.000118139
0.0002523
9.91598e-05
9.28728e-05
0.000245342
-2.11945e-05
0.000112372
0.000256321
-0.000214362
9.70316e-05
0.00029573
0.000300605
5.24096e-05
0.000330242
0.000169546
6.83682e-05
0.000343937
-0.000197415
6.22855e-05
0.000309653
-8.51102e-05
0.000123447
0.000308748
6.72282e-05
0.000117082
0.000308071
0.000132882
9.40409e-05
0.000289092
-0.000195951
7.84723e-05
0.000329915
-0.000148328
5.7488e-05
0.000333884
-0.000158605
0.00014045
0.000293989
-0.000237678
0.000166104
0.000301618
0.000106962
0.000104449
0.000281664
7.64786e-05
0.000138848
0.000233591
-2.74632e-06
0.000190033
0.000246248
-0.000114376
0.000178737
0.000279204
-0.000119886
6.47705e-05
0.000297058
-0.000272172
2.901e-05
0.000281992
1.3165e-05
9.03508e-05
0.00026512
3.35762e-05
8.56719e-05
0.000353278
-0.000113618
3.45899e-05
0.000395619
0.00013433
0.00012164
0.000344005
-6.20119e-05
0.000188796
0.000317373
-9.81635e-05
0.000162922
0.000248153
0.000156661
0.000172187
0.00022577
0.000356855
6.928e-05
0.000212463
0.000288374
8.43341e-05
0.000218282
-0.00014338
0.000141178
-0.000347802
0.000150078
0.000347212
-0.000155492
0.000154658
0.000452322
-0.000218504
-6.46992e-06
0.000400246
8.69014e-05
0.000107634
0.000337064
-0.000302852
0.000195639
0.000365828
-0.000228508
6.32512e-05
0.000337318
5.26434e-05
7.16783e-05
0.000340701
-0.000184206
0.000183601
0.000344919
-0.000314962
0.000162525
0.00027102
8.80151e-05
0.00013067
0.000264552
2.51135e-05
9.67021e-05
0.000310643
3.97914e-05
8.71988e-05
0.000291633
-1.16854e-05
0.00012634
0.000285426
-0.000229128
0.000101532
0.00035394
0.000251477
2.60624e-05
0.000412505
0.000227398
4.33821e-05
0.000398276
-0.000121169
4.41613e-05
0.000334499
-5.47741e-05
0.000124133
0.000340023
2.94481e-05
0.000101805
0.000364409
0.000109736
0.000106376
0.000349826
-0.000181284
8.0955e-05
0.000380175
-0.000106033
2.33903e-05
0.000382839
-0.000109668
0.000100003
0.000328864
-0.000219628
0.000171857
0.000309838
0.000136538
0.000107036
0.000316221
0.000116497
0.000100915
0.000295151
-7.41522e-05
0.000206457
0.000291223
-0.000174293
0.000239525
0.000309377
-4.88012e-05
6.83996e-05
0.000327542
-0.000257493
2.59844e-05
0.000323201
3.52417e-05
9.17601e-05
0.000309624
0.000116641
7.71425e-05
0.000384438
-0.000139634
-1.53395e-06
0.000413137
0.000133283
0.000112125
0.000370956
-6.90846e-05
0.000187632
0.00033175
-0.000113833
0.000156836
0.000249902
0.000150755
0.000171428
0.000241072
0.000416642
7.71668e-05
0.000308025
0.000307383
8.09166e-05
0.00033985
-0.000194728
0.000107819
-0.000345207
0.000134869
0.000401435
-0.000172541
0.000149934
0.000530236
-0.000282058
-3.25411e-05
0.000472132
8.37311e-05
0.00010008
0.000374829
-0.000264466
0.000228312
0.000431317
-0.000222095
2.2504e-05
0.000405615
0.000108837
3.70931e-05
0.000381629
-0.000202937
0.000193477
0.000365364
-0.000307203
0.000168925
0.000322461
0.000154678
8.82014e-05
0.000354914
4.45764e-05
8.13495e-05
0.000409274
-4.0761e-05
7.61101e-05
0.000393431
-9.81111e-06
0.000130598
0.000362804
-0.000212023
8.45895e-05
0.000414704
0.000244192
-1.77898e-05
0.000477165
0.00026857
1.47053e-05
0.000441165
-8.37327e-06
2.96285e-05
0.000385834
-2.07874e-05
0.000104107
0.000412035
-3.64219e-05
0.000102735
0.000447659
7.41457e-05
0.000114995
0.000416774
-0.000157175
9.8294e-05
0.000420236
-3.94182e-05
1.60992e-05
0.000426647
-1.79893e-05
6.74707e-05
0.00036787
-0.000183302
0.000183218
0.000315209
0.000152195
0.000135662
0.00032996
0.000179933
3.75257e-05
0.000360899
-9.29114e-05
0.000167871
0.000356533
-0.000209566
0.000279694
0.000349105
-1.51241e-05
0.000111558
0.000360995
-0.000275045
5.72867e-05
0.000356388
4.33755e-05
0.000113147
0.000381399
0.000174733
9.58283e-05
0.000446606
-0.000173969
-2.95556e-05
0.000416477
0.000158047
8.77138e-05
0.000402298
-0.000120137
0.000167599
0.000361743
-0.000113038
0.000141252
0.000261139
0.000183134
0.00017287
0.000273181
0.00042214
6.83924e-05
0.000394618
0.000286673
6.89764e-05
0.00044066
-0.000219885
5.78977e-05
-0.000313631
0.000104969
0.000476935
-0.000194337
0.000157474
0.000578748
-0.000342351
-1.3932e-05
0.000494469
0.000114772
0.000116983
0.000399588
-0.000243085
0.000250702
0.000489415
-0.000213727
-2.68463e-05
0.000492809
0.000195724
-3.6955e-05
0.000459988
-0.000191203
0.000175916
0.000403408
-0.0002531
0.000186121
0.000392156
0.000245733
5.11691e-05
0.000492357
-1.01543e-05
6.09556e-05
0.000548616
-0.000139659
7.86221e-05
0.000512766
-5.11797e-06
0.000127966
0.000464169
-0.0001643
6.00016e-05
0.000487712
0.000261496
-4.25279e-05
0.000534101
0.000276252
2.89728e-05
0.000475734
0.000111327
2.15331e-05
0.000432191
5.6283e-05
5.72673e-05
0.000479694
-9.88867e-05
0.000101505
0.000517831
3.73095e-05
0.000126524
0.000477532
-0.000147741
0.0001347
0.000463434
3.65146e-05
3.06274e-05
0.00046275
0.000122733
2.58676e-05
0.000407191
-0.000181333
0.000184289
0.000354625
0.000134615
0.000193491
0.000365848
0.000240443
-3.65368e-05
0.000396091
-5.26605e-05
8.45431e-05
0.000401496
-0.000209331
0.000252784
0.000402013
-1.69943e-05
0.000137341
0.000406273
-0.000319451
9.71562e-05
0.000392008
4.0411e-05
0.000128437
0.000469325
0.00019075
0.000104982
0.000504638
-0.000196601
-3.45925e-05
0.000416124
0.000206645
7.91022e-05
0.000459849
-0.000174602
0.000129149
0.000413932
-0.00012538
0.000115924
0.000309839
0.000212786
0.000177301
0.000362886
0.000357062
4.89768e-05
0.000507451
0.000222645
7.70518e-05
0.00054602
-0.000212098
-2.95905e-06
-0.000267245
8.99231e-05
0.000511992
-0.00022368
0.000198981
0.00058339
-0.00037975
6.58945e-06
0.000516787
0.000140148
0.000119544
0.000467164
-0.000239231
0.000240556
0.00057083
-0.000224721
-2.22784e-05
0.000543171
0.000337727
-7.79803e-05
0.000475114
-0.0001198
0.000168687
0.0004474
-0.000220868
0.000200449
0.000483803
0.000263244
2.76985e-05
0.000617309
-0.000137814
2.95312e-05
0.000681689
-0.000273984
8.69794e-05
0.000621342
2.76824e-06
0.000126152
0.000541025
-6.88687e-05
4.35408e-05
0.000581158
0.000264539
-4.56695e-05
0.000639419
0.000226654
6.05764e-05
0.0005643
0.000220575
-6.52851e-07
0.000520369
0.000188067
1.00507e-05
0.000552608
-8.69643e-05
9.59118e-05
0.000573239
9.24668e-07
0.000154656
0.000532487
-0.00019331
0.000187026
0.000508388
0.000113862
7.07578e-05
0.000524395
0.000256488
-6.9929e-06
0.000478048
-0.000270921
0.00019147
0.000418361
8.33455e-05
0.000245965
0.000421613
0.00034484
-8.31112e-05
0.000437435
1.48851e-05
1.03697e-05
0.000468384
-0.000206473
0.000199056
0.000496348
-4.62603e-05
0.000128792
0.000448903
-0.000318584
0.000110089
0.000432417
2.82816e-05
0.000176106
0.000544878
0.000150208
8.71178e-05
0.000487619
-0.000187176
-5.08507e-06
0.000380691
0.000244306
0.000149628
0.000529311
-0.000217218
4.57166e-05
0.000535061
-0.000175709
5.3536e-05
0.000411383
0.000220048
0.000172011
0.000440981
0.000312722
5.18635e-05
0.000596185
0.000121015
5.64892e-05
0.000652917
-0.000226123
-6.00601e-05
-0.000168207
7.38195e-05
0.000482998
-0.000222867
0.000226437
0.000594329
-0.00045825
4.07127e-05
0.000619631
0.000125364
5.85343e-05
0.000567792
-0.000228366
0.000223493
0.000620056
-0.000232218
1.7927e-05
0.00061413
0.000408912
-4.49957e-05
0.000538637
-4.31682e-05
0.000206043
0.000509478
-0.000216396
0.000258151
0.000608873
0.000172517
4.95173e-05
0.00075114
-0.000311523
-1.06524e-05
0.000788615
-0.000373959
8.58236e-05
0.000723746
1.43846e-05
0.000133557
0.000609143
7.235e-05
4.78514e-05
0.000677586
0.000287559
-6.83074e-05
0.000795314
8.88391e-05
6.36086e-05
0.000714005
0.000276947
1.54186e-05
0.000631682
0.000281515
2.45129e-06
0.00063569
-6.22661e-05
0.00010092
0.000643592
-4.11709e-05
0.000184208
0.000594837
-0.000259963
0.000225049
0.000559875
0.00019391
0.000121698
0.000635381
0.000359471
-9.17519e-05
0.00060751
-0.000411294
0.00014864
0.000506194
7.37327e-06
0.000294641
0.000511028
0.000476462
-8.31941e-05
0.000508522
0.000145686
-3.44173e-05
0.000550642
-0.000174803
0.000138908
0.000632145
-7.84931e-05
8.02995e-05
0.000509779
-0.000248051
9.32326e-05
0.000520147
-3.63797e-05
0.000235014
0.000640245
6.42707e-05
3.4908e-05
0.000437458
-5.73345e-05
9.25029e-06
0.00039022
0.000210056
0.000200316
0.000628132
-0.000246678
-8.62914e-05
0.000613894
-0.000183081
-4.48596e-06
0.000449615
0.000230266
0.00019498
0.000487725
0.000306436
4.01736e-05
0.000658549
5.72495e-05
-9.02044e-05
0.000703891
-0.000205099
-0.000118076
1.88959e-05
5.9202e-05
0.000535081
-0.000128322
0.00020333
0.000617712
-0.000542873
0.000106873
0.000697373
0.00012791
1.67226e-06
0.000619318
-0.000165777
0.000172048
0.000618524
-0.000209722
4.72925e-05
0.000638896
0.000498769
-9.89739e-05
0.00059344
3.8655e-05
0.000148528
0.000570731
-0.000234055
0.000296842
0.000715317
8.66012e-05
-2.93931e-07
0.000875352
-0.000451111
-0.000144784
0.000859158
-0.000401874
7.47937e-05
0.000772409
8.22203e-05
0.000141333
0.000665209
0.000213348
5.34764e-05
0.000771026
0.000314375
-7.59224e-05
0.000927369
-3.75059e-05
3.06332e-05
0.000824947
0.000330412
2.36505e-05
0.000693787
0.000376384
2.52416e-06
0.000700492
-5.36206e-05
0.000103752
0.000707343
-2.40876e-05
0.000168221
0.000609361
-0.00026001
0.00024085
0.000601448
0.000215973
0.000193524
0.00075897
0.000394093
-0.000174063
0.000759176
-0.00052412
5.91449e-05
0.000614583
-0.000131208
0.000329095
0.000620238
0.000558347
-3.87918e-05
0.000627787
0.000242935
-6.827e-05
0.000599962
-6.6169e-05
8.92025e-05
0.000719934
-6.70979e-05
4.89986e-06
0.000617673
-0.000219917
0.000112834
0.000564424
-3.66141e-05
0.00019494
0.000762702
1.72886e-05
-0.000173964
0.000562889
0.000163842
-0.000124748
0.000489982
0.000219189
0.000140678
0.000715128
-0.000332097
-9.98655e-05
0.000595534
-6.9014e-05
-5.42091e-05
0.00041974
0.000299281
0.000199252
0.000553059
0.000224263
4.05251e-05
0.000734027
6.40978e-05
-0.000198217
0.000763497
-0.000152652
-0.000123363
0.000160522
5.68025e-05
0.000594881
-2.02645e-05
0.00020608
0.000622805
-0.000581272
0.00012525
0.000771995
7.59637e-05
4.89257e-06
0.000722587
-4.39246e-05
0.000101006
0.000660965
-0.000102014
4.31167e-05
0.00066946
0.0005886
-6.68426e-05
0.000620708
0.000182555
1.41294e-05
0.000627737
-0.000176882
0.000216845
0.000813235
4.40849e-05
-0.000125641
0.000957891
-0.00045844
-0.000292069
0.000927835
-0.000450182
6.84251e-05
0.000822869
0.000155053
0.000171835
0.000697107
0.000330119
7.1887e-05
0.000835327
0.000265899
-2.82885e-05
0.000981553
-0.000118208
3.21734e-05
0.000865609
0.000414041
4.66443e-05
0.00077795
0.000416768
-1.04546e-05
0.000768584
-1.3145e-05
4.55256e-05
0.000775313
5.08656e-05
0.000106154
0.000677241
-0.000276417
0.00026995
0.000686722
0.000154314
0.000259605
0.000884514
0.000359892
-0.000148144
0.000852006
-0.000555368
1.13738e-05
0.000705098
-0.000305105
0.000365714
0.000761308
0.000524812
8.97378e-05
0.00074857
0.000316323
-7.71147e-05
0.000647209
9.75373e-05
5.4198e-05
0.000779135
-7.51313e-05
3.63187e-06
0.000745972
-0.000203607
9.88377e-05
0.000591827
6.4144e-05
0.000163784
0.000813773
-2.20646e-05
-0.000117035
0.000830122
0.000190321
-0.000168805
0.000750153
0.000296954
7.72954e-05
0.000844001
-0.000368521
3.15848e-05
0.000708719
6.42425e-05
-4.5494e-05
0.000557317
0.000466917
0.000119352
0.000697563
0.000129275
9.24454e-05
0.000859741
0.000114246
-0.000164172
0.000807698
-1.80355e-05
-8.66606e-05
0.00024887
8.94938e-05
0.000732123
4.34096e-05
0.000191864
0.000692606
-0.000550442
0.000139999
0.000820873
-1.47517e-05
7.5659e-05
0.000754833
7.41189e-05
0.000115006
0.000655613
4.55729e-05
6.5848e-05
0.00072364
0.000505779
6.91725e-05
0.000708238
0.000232202
7.98079e-06
0.000716844
-7.08298e-05
0.000149698
0.000926886
1.3224e-05
-0.000156683
0.00100734
-0.000391898
-0.000286267
0.000919974
-0.000429172
0.00014573
0.000850094
0.000185788
0.000238106
0.000766348
0.000420675
3.58898e-05
0.000887546
0.000189543
-2.53797e-05
0.00102132
-0.000176584
4.13359e-06
0.00100258
0.000436611
2.46431e-05
0.00100975
0.000341963
-6.67331e-06
0.000916091
0.000108083
-5.50277e-06
0.000905065
0.000175789
1.66041e-05
0.000834003
-0.00032653
0.000291009
0.000807461
8.02693e-05
0.000335054
0.00101865
0.000309183
-6.4123e-05
0.000947788
-0.000451276
-4.63273e-05
0.000756184
-0.000346309
0.000315659
0.000833387
0.00038443
0.000219333
0.000882996
0.000306488
-1.80308e-05
0.00078793
0.000262595
-2.17707e-05
0.000793086
-4.85011e-06
1.44985e-05
0.000764523
-0.000180672
0.000119081
0.000638816
0.000170906
0.000146802
0.000734819
1.31547e-05
-7.97553e-06
0.000959898
2.7359e-05
-0.000187327
0.00109392
0.000249304
-6.5684e-05
0.00102178
-0.000232749
1.67412e-05
0.000834663
0.000240854
1.39259e-05
0.000737596
0.000634483
7.85715e-05
0.000810971
9.38629e-05
0.000127695
0.000970763
5.66114e-05
7.6194e-06
0.000903545
9.68243e-05
-3.69471e-06
0.000313146
0.00012627
0.000832412
0.000197978
0.000121434
0.000713772
-0.000417776
0.000140389
0.000830053
-0.000169597
0.000157621
0.000777574
0.000195626
9.93601e-05
0.000776025
5.04441e-05
0.000111222
0.000912322
0.000341219
4.99531e-05
0.000806907
0.000370091
-5.96562e-06
0.000805383
-7.66749e-05
0.00023778
0.00107329
-5.96253e-05
-6.28435e-05
0.00105225
-0.000257965
-0.000153899
0.000926669
-0.000392591
0.000197988
0.00093863
0.000142053
0.000271451
0.000860596
0.000539028
0.000103486
0.000909036
0.000213966
2.46897e-05
0.00104839
-0.000232223
-7.2314e-06
0.00120555
0.000281791
-2.26473e-05
0.00129599
0.000205298
3.39466e-05
0.00109107
0.000342756
2.55851e-05
0.00102179
0.000381132
-3.54197e-06
0.000951585
-0.000316876
0.000242912
0.000895713
5.05098e-06
0.000381009
0.00111678
0.000228272
3.94182e-05
0.00109054
-0.000304198
-0.000101525
0.00084043
-0.000213557
0.000201944
0.000866904
0.000206827
0.000279097
0.00102511
0.000132267
8.29461e-05
0.00102707
0.000325997
-1.75112e-05
0.000855315
0.000164784
3.58861e-05
0.000714996
-0.000135935
0.000194072
0.00079404
6.84739e-05
0.000179923
0.000907356
-3.54733e-05
5.89136e-05
0.000945369
2.1088e-05
-0.000155322
0.00103718
0.000289892
-6.48071e-05
0.00108298
-0.00016074
4.23576e-05
0.00105108
0.000253442
2.62435e-05
0.00100275
0.000714772
8.23597e-05
0.000963889
0.000179851
6.79001e-05
0.000943517
0.000105327
3.18042e-05
0.000855924
0.000203672
5.12279e-05
0.000214364
0.000196067
0.00108251
0.000351258
4.29726e-05
0.000882569
-0.000172539
5.70968e-05
0.000928709
-0.000340907
0.000244722
0.000919618
0.000268446
7.01616e-05
0.000965935
-4.09256e-05
0.000178735
0.00106667
0.000258292
7.84891e-05
0.000905182
0.000605022
-2.34383e-05
0.000928428
-0.000164087
0.000259182
0.00122189
-0.000184909
-5.9241e-05
0.00104871
6.01519e-05
-0.000123058
0.000776272
-0.000247246
0.000240917
0.000938009
-3.64623e-05
0.000292447
0.000921174
0.000617849
6.91754e-05
0.000941492
0.000265636
3.18146e-05
0.00117716
-0.000372128
1.09032e-05
0.00132508
0.000133482
-4.82495e-05
0.00130746
0.000230039
8.05962e-05
0.00109164
0.000556843
4.64323e-05
0.0010799
0.000530786
-3.1453e-05
0.000972145
-0.000205606
0.000165093
0.000903234
6.05218e-05
0.000217092
0.00121378
0.000124418
-5.35756e-06
0.00124433
-0.000210841
-2.73591e-05
0.000923184
7.46218e-05
0.00010591
0.000750114
0.00019602
0.000255361
0.0009809
-0.000125903
0.000232941
0.00127284
0.000132227
8.15495e-06
0.00115623
0.000180529
2.47916e-05
0.000894181
-3.75843e-05
0.000203258
0.000803521
0.000151947
0.000145255
0.000932909
-0.000146116
0.000177489
0.00103795
-0.000100361
1.33523e-05
0.00104021
0.000341751
-3.41104e-06
0.00110676
-0.00016742
9.64445e-05
0.0011287
0.000154089
8.16779e-05
0.001139
0.000753022
5.59437e-05
0.00114439
0.00025324
9.20395e-06
0.00111484
0.000156015
1.8601e-05
0.000992356
0.000328001
1.70221e-05
5.01697e-05
0.000221736
0.00117517
0.000394536
3.75096e-06
0.001118
2.99946e-05
-0.000120356
0.000986904
-0.000355867
0.000261111
0.00104998
0.000200412
0.000107846
0.00113181
-0.000174878
0.000158295
0.00122489
0.000174012
7.79972e-05
0.00116304
0.000678906
-9.41226e-05
0.0010641
-0.000149232
0.000186686
0.00128282
-0.000308751
1.6238e-05
0.00134732
0.00017086
-8.93416e-05
0.000999822
9.45443e-05
8.94469e-05
0.000805087
8.21182e-05
0.000262487
0.000786723
0.000581528
0.000232569
0.000875357
0.000165693
0.00016214
0.00111333
-0.000510345
0.000103865
0.00132776
5.13699e-05
-3.27706e-05
0.00137345
0.000290857
3.35598e-05
0.00131625
0.000601428
2.18034e-05
0.00139352
0.000579677
-2.84365e-05
0.00119524
-1.99246e-05
0.000165825
0.00107201
0.000249292
4.55314e-05
0.00132114
0.000182851
-9.12687e-05
0.00137173
-0.000105644
4.38181e-05
0.00117297
0.000309363
7.34974e-05
0.000862606
0.000393425
0.000162789
0.000924403
-0.00018891
0.000246026
0.00126821
-0.000116032
7.10757e-05
0.00137867
-2.02037e-05
8.16963e-05
0.00129497
-0.000125079
0.000247764
0.00108897
0.000348925
0.000125766
0.00097411
-7.33361e-05
0.000187759
0.00097311
-0.000227653
0.000180534
0.00103596
0.000241315
0.000119628
0.00108601
-0.00014645
0.000117457
0.00112513
6.81018e-05
0.000142467
0.00133879
0.00062268
1.78533e-05
0.0013094
0.000332244
1.60609e-06
0.00126376
0.000279143
7.06539e-05
0.00115721
0.000495402
2.56537e-06
0.00012207
0.000249162
0.00134523
0.000388839
9.12316e-05
0.00129657
0.000355553
-0.000267322
0.00124802
-0.000328575
0.000191534
0.00122386
0.000167659
0.000180537
0.00118645
-4.24621e-05
1.71439e-05
0.00141162
2.31485e-05
2.12743e-05
0.00123762
0.000798638
-6.54559e-05
0.000856984
0.000118778
0.000253933
0.00121167
-0.000545322
0.000102955
0.00156984
2.2655e-05
-2.00879e-05
0.00120239
0.000441378
0.000121466
0.000978794
0.000213336
0.000226217
0.00119925
0.000339811
0.000233539
0.00120605
0.00018623
0.000120847
0.00112432
-0.000351086
8.01031e-05
0.00120179
0.000196948
-2.80074e-05
0.0014624
0.000177627
9.4726e-05
0.00168984
0.000358787
7.44011e-05
0.00163216
0.000681495
-8.17634e-05
0.00129465
0.00019345
0.000296737
0.00119126
0.0002041
0.000279117
0.00146492
0.000193393
2.15063e-05
0.00146214
0.000124057
7.25074e-05
0.00124277
0.000728666
-2.68424e-05
0.00109804
0.000722697
1.04392e-06
0.00117799
-6.25237e-05
9.9233e-05
0.00138478
-0.000118008
5.37449e-05
0.00134185
2.73395e-05
0.000129587
0.00111954
2.29529e-05
0.000225088
0.00104584
0.000383265
0.00016568
0.00107107
-0.000130587
0.000183094
0.00113296
-0.000331786
0.000131551
0.00106125
0.000183136
0.000158972
0.00103348
-8.44763e-06
0.0001586
0.00121185
-4.78093e-05
0.000174646
0.00144617
0.000436372
0.000116003
0.00153552
0.000240121
7.66059e-05
0.00155706
0.000318949
7.56254e-05
0.00139309
0.00081312
-4.47157e-05
0.000185307
0.000226537
0.00147621
0.00031732
0.000207853
0.00165252
0.000439358
-0.000264385
0.00154531
-0.000342992
0.00020333
0.00145808
0.000187721
0.000174122
0.00132111
0.000311723
-0.000167578
0.00157866
-4.91182e-06
-0.000114674
0.0016801
0.000797813
-0.000119036
0.00124784
0.000474698
0.000113647
0.00122222
-0.000537701
0.000266995
0.00166233
-0.000158515
6.98175e-05
0.00159943
0.000663032
9.95189e-05
0.00134685
0.000353658
0.000154757
0.00147294
0.000286034
0.000214992
0.00144773
0.000437975
3.82011e-05
0.00136165
6.92256e-06
-0.000210025
0.00136562
0.000431994
-0.000105946
0.001527
0.00013128
4.89087e-05
0.00174771
0.000221328
2.77639e-05
0.00161736
0.000845519
3.40278e-05
0.00130175
0.000475212
0.000212093
0.00118707
0.000196594
0.000342994
0.00140688
8.54085e-05
0.000204497
0.00144513
0.000213734
0.000188576
0.00139734
0.000886087
9.14069e-05
0.0015592
0.000877741
-0.000105688
0.00156765
0.000187377
-8.66196e-05
0.00162609
-1.53802e-06
-5.40693e-06
0.0016806
5.34324e-05
7.22772e-05
0.00154154
0.000243284
2.64084e-05
0.00140133
0.000597525
2.78162e-05
0.00121214
0.000168941
0.000178093
0.00113989
-0.000210722
0.000205328
0.00125351
-2.78837e-05
0.000158685
0.00143559
-1.45312e-05
-1.73365e-05
0.00142419
4.39935e-05
6.03774e-05
0.00134239
0.000512595
0.000189935
0.0012774
0.000388373
8.90018e-05
0.00135762
0.000311262
0.000150479
0.0014885
0.000757155
0.000113059
0.000193625
0.000330495
0.00163656
0.0002275
9.28247e-05
0.00179873
0.000543351
-0.000196072
0.00161296
-0.000200331
0.000237755
0.00153089
0.000227862
0.000267056
0.00169557
0.000312674
5.74753e-05
0.00176661
4.71687e-05
7.28855e-05
0.0016702
0.000979183
-9.07152e-05
0.00137446
0.000647497
-1.26138e-05
0.00111588
-0.000354837
0.000328569
0.00143153
-0.000305573
0.000361507
0.00175736
0.000573065
0.000199443
0.0015502
0.000515005
4.71599e-05
0.00150435
0.000416189
0.000113508
0.00152947
0.000505473
0.000163103
0.00161479
8.94705e-05
4.27026e-05
0.00174223
0.000423071
-8.23773e-05
0.00149786
0.000336024
0.000117027
0.0015776
0.000327596
2.04529e-05
0.00175125
0.000999344
-0.000227509
0.00145321
0.000738344