/*--------------------------------*- C++ -*----------------------------------*\
  =========                 |
  \\      /  F ield         | OpenFOAM: The Open Source CFD Toolbox
   \\    /   O peration     | Website:  https://openfoam.org
    \\  /    A nd           | Version:  10
     \\/     M anipulation  |
\*---------------------------------------------------------------------------*/
FoamFile
{
    format      ascii;
    class       volTensorField;
    location    "14";
    object      gradientUWrite;
}
// * * * * * * * * * * * * * * * * * * * * * * * * * * * * * * * * * * * * * //

dimensions      [0 0 -1 0 0 0 0];

internalField   nonuniform List<tensor> 
25600
(
(-0.000865033 0.108954 0.0124934 -0.116848 -0.324607 0.137334 -0.433721 0.0635368 0.303031)
(0.170165 -0.0113674 -0.00125239 0.221443 -0.341418 0.216118 -0.31782 0.0235596 0.200453)
(0.239792 -0.116578 -0.043525 0.579421 -0.310453 0.191807 -0.13477 -0.00657888 0.0616537)
(0.215655 -0.240063 -0.0500686 0.606633 -0.20445 0.123126 0.0379946 -0.0228162 -0.0144398)
(0.0831381 -0.230578 -0.0601554 0.306816 -0.141976 0.0437687 0.146569 -0.0863795 0.038571)
(-0.0501983 -0.0350338 -0.0445566 -0.0164926 -0.129005 -0.0377275 0.132279 -0.204472 0.148457)
(-0.116915 0.0795918 0.0271782 -0.270078 -0.0928232 -0.0210722 0.0623986 -0.251138 0.189982)
(-0.132081 0.0888478 0.0538982 -0.409317 -0.00646117 0.0487518 0.0185803 -0.0792043 0.1452)
(-0.0661862 0.0116032 0.0266974 -0.418173 0.0852756 0.0644685 0.0631077 0.223797 0.0149444)
(0.110247 -0.123871 -0.00771616 -0.473544 0.0879744 -2.37561e-05 0.177026 0.526581 -0.178643)
(0.311593 -0.0937473 -0.0133173 -0.505311 0.0758463 -0.119939 0.276018 0.676921 -0.340238)
(0.358809 0.0625974 0.00246805 -0.530649 0.0381246 -0.273972 0.239263 0.553295 -0.385112)
(0.200691 0.18719 0.00502689 -0.535923 0.0661293 -0.333533 0.147104 0.245164 -0.26131)
(-0.174334 0.213071 -0.0247257 -0.469392 0.176328 -0.254901 0.0552522 -0.0438776 -0.00174271)
(-0.505903 0.112617 -0.0727059 -0.350911 0.230963 -0.161957 -0.0391059 -0.182643 0.195303)
(-0.47266 0.0035345 -0.0537004 -0.168555 0.224827 -0.0957161 -0.0730877 -0.120069 0.19907)
(-0.230067 -0.0516474 0.0329213 -0.0332915 0.1422 -0.0996075 -0.0859344 0.0380581 0.0785879)
(0.0149189 -0.0821321 0.105296 -0.017494 -0.0150992 -0.149352 0.00806317 0.104951 -0.0664996)
(0.235008 -0.00966412 0.105773 -0.0575438 -0.178111 -0.142439 0.14028 0.157957 -0.121582)
(0.295765 0.102295 0.00848723 -0.107128 -0.302041 -0.100404 0.204346 0.197192 -0.0207755)
(0.151554 0.113429 -0.0917341 -0.186523 -0.361737 -0.0625612 0.220667 0.212485 0.166163)
(-0.0575112 0.0828822 -0.126096 -0.200009 -0.338344 -0.0462593 0.0703877 0.251224 0.324302)
(-0.15938 0.0209567 -0.0727136 -0.177628 -0.276819 -0.0772999 -0.165122 0.24786 0.391636)
(-0.108163 -0.0960211 0.0957706 -0.158362 -0.214331 -0.0792645 -0.364965 0.21821 0.33064)
(-0.0322857 -0.160457 0.232115 -0.078283 -0.221953 -0.0382102 -0.529126 0.136341 0.241186)
(0.0807029 -0.143753 0.239096 0.0600707 -0.248577 -0.00105413 -0.54294 -0.06176 0.159804)
(0.193307 -0.158415 0.155893 0.170398 -0.214919 0.0581471 -0.403077 -0.319844 0.034779)
(0.202349 -0.137552 -0.0131664 0.183759 -0.136411 0.0819532 -0.168568 -0.471033 -0.0958801)
(0.172864 -0.00318065 -0.145846 0.191594 0.0368336 0.0968092 0.0904243 -0.376247 -0.22103)
(0.0534601 0.122408 -0.145088 0.086782 0.204988 0.0826333 0.235635 -0.0588093 -0.272545)
(-0.154023 0.198239 -0.077589 -0.0437785 0.311333 -0.000262774 0.147435 0.226174 -0.193752)
(-0.31025 0.155393 -0.00572295 -0.0912774 0.36047 -0.0580753 -0.0772718 0.283049 -0.0876304)
(-0.319411 0.00519018 -0.00663902 -0.124637 0.304336 -0.118951 -0.259858 0.141858 -0.0375071)
(-0.18688 -0.0727099 -0.0642621 -0.0151112 0.24115 -0.147096 -0.278248 -0.022729 -0.069625)
(-0.0245839 -0.0955012 -0.0752442 0.11011 0.146758 -0.10649 -0.12563 0.00802059 -0.174738)
(0.117896 -0.0817914 -0.0407029 0.135503 0.10499 -0.1287 0.00554021 0.17562 -0.248393)
(0.107251 0.00895929 0.00401749 0.0645369 0.114908 -0.193371 -0.00462286 0.303096 -0.220986)
(-0.0212443 0.0549954 0.0461015 -0.145428 0.0537336 -0.234341 -0.14639 0.319491 -0.0741177)
(-0.0855786 0.0730403 0.0573533 -0.321924 -0.0210625 -0.188351 -0.335354 0.225044 0.119696)
(-0.106648 0.138271 0.0259411 -0.300722 -0.182407 -0.0292314 -0.457638 0.119547 0.273762)
(0.415549 0.0112163 0.214862 0.319039 -0.320219 0.125232 -0.427941 0.00545496 -0.113575)
(0.533539 0.0868708 0.0725232 0.528514 -0.139986 0.182637 -0.228887 -0.140406 -0.365676)
(0.240635 0.129374 -0.094516 0.60846 0.0939112 0.127604 -0.102608 -0.184418 -0.33643)
(-0.268754 0.024257 -0.196218 0.369258 0.203221 0.0581559 0.0756465 -0.0605042 0.00967038)
(-0.545523 -0.115919 -0.243032 -0.0913366 0.127632 -0.00444225 0.309441 0.146172 0.381318)
(-0.446178 -0.0907885 -0.12843 -0.441491 -0.0695003 0.0653362 0.608919 0.31182 0.484993)
(-0.206742 -0.00813697 0.0866578 -0.653503 -0.221428 0.173181 0.796583 0.473965 0.358769)
(0.0239909 0.0714417 0.148356 -0.62509 -0.214866 0.139306 0.990723 0.506959 0.157785)
(0.131539 0.0505162 0.0532975 -0.501611 -0.133929 -0.00792197 1.2287 0.397816 -0.0332241)
(0.15788 -0.029352 -0.0782435 -0.462326 -0.0605298 -0.135907 1.35386 0.238381 -0.133674)
(0.175926 -0.0117737 -0.16057 -0.554332 0.00700985 -0.17828 1.15998 0.0945514 -0.117803)
(0.13862 0.0633865 -0.119472 -0.789479 -0.0122128 -0.166865 0.737855 0.025092 -0.0578109)
(0.0983675 0.175856 0.00697762 -0.969441 -0.0462994 -0.12656 0.350767 0.0580217 0.0105635)
(-0.014744 0.210321 0.0616384 -0.916778 -0.0482184 -0.135061 0.0915661 0.0831878 0.100616)
(-0.120185 0.10987 0.0285275 -0.614464 -0.0866388 -0.177997 0.0504053 0.0228841 0.156188)
(-0.1016 -0.0204922 -0.0185514 -0.212211 -0.126865 -0.151157 0.201795 -0.0417585 0.204235)
(-0.0975411 -0.159258 -0.0549712 -0.038075 -0.150333 -0.142718 0.408515 -0.0956868 0.230155)
(-0.116951 -0.247697 -0.0338619 -0.0723455 -0.194592 -0.168533 0.555204 -0.068311 0.2166)
(-0.0572784 -0.18973 -0.00628743 -0.142132 -0.178919 -0.206017 0.528749 0.0246242 0.191515)
(0.0174924 -0.0729556 -0.0214861 -0.286286 -0.254607 -0.244135 0.357875 0.0600859 0.184611)
(0.0704388 0.0139851 -0.0173475 -0.377301 -0.410556 -0.172745 0.279774 0.000928914 0.233478)
(0.110937 0.0715219 0.00259492 -0.309184 -0.466152 -0.00957071 0.197645 -0.16561 0.327201)
(0.131707 0.0379527 0.071337 -0.0865095 -0.554118 0.171385 0.111132 -0.29959 0.433862)
(0.167519 -0.111083 0.200581 0.190518 -0.62495 0.29364 -0.0186292 -0.318433 0.463815)
(0.183339 -0.25372 0.233083 0.380786 -0.57674 0.262053 -0.279478 -0.259903 0.408506)
(0.164289 -0.244471 0.177647 0.427331 -0.41976 0.123713 -0.305428 -0.117257 0.285912)
(0.0681093 -0.108302 0.117287 0.23118 -0.21265 -0.0272818 -0.152708 0.0189621 0.140833)
(-0.042769 0.140016 0.0543091 -0.0208141 -0.0635438 -0.147659 0.122769 0.0836062 0.0861136)
(-0.117721 0.367862 0.0281351 -0.147356 0.0350021 -0.127908 0.304843 0.108723 0.0921311)
(-0.173258 0.364247 -0.0375548 -0.243647 0.0578082 -0.0360499 0.210803 0.152975 0.101629)
(-0.109485 0.239626 -0.149675 -0.208986 0.0721608 0.0162631 0.0938972 0.236503 0.0796459)
(-0.0192748 0.0598712 -0.221082 -0.0922269 0.0760462 0.0387898 0.0281082 0.322807 -0.0159475)
(0.108487 -0.112119 -0.232656 0.0637045 0.0150456 -0.0227789 0.102281 0.291759 -0.110012)
(0.221576 -0.15993 -0.140095 0.257263 -0.0150624 -0.0948046 0.41503 0.140677 -0.142166)
(0.124426 -0.122918 -0.0400721 0.314315 -0.0377182 -0.11006 0.797631 0.0748453 -0.083896)
(-0.0759656 -0.0221141 -0.0304922 0.230133 0.00280132 -0.15235 1.00778 0.190144 0.0696871)
(-0.309679 0.0393995 -0.0233691 0.0317045 0.00710965 -0.206163 0.863402 0.430272 0.270216)
(-0.392517 -0.0143683 0.0571766 -0.08235 -0.0750211 -0.227765 0.343673 0.602762 0.381468)
(-0.184369 -0.0937822 0.182332 -0.0811728 -0.171607 -0.177751 -0.256006 0.538868 0.378282)
(0.116168 -0.0786804 0.25066 0.0479065 -0.303826 -0.0447127 -0.549476 0.270034 0.216245)
(0.435174 0.235797 0.21925 0.579532 -0.465739 0.176535 -0.166124 0.369781 -0.0653632)
(0.442991 0.340656 0.00742344 0.147627 -0.330547 -0.0504558 -0.369062 0.609226 -0.175818)
(0.107932 0.190126 -0.15129 -0.26902 -0.0188254 -0.279544 -0.300853 0.607235 -0.16421)
(-0.408158 -0.188084 -0.172757 -0.349624 0.23803 -0.257791 0.214536 0.341801 0.0970987)
(-0.645715 -0.446085 -0.0708421 -0.0169369 0.226616 -0.0171863 0.822865 -0.0361085 0.411082)
(-0.551947 -0.329285 0.0949663 0.362063 -0.068572 0.351957 1.33979 -0.156353 0.599899)
(-0.277188 -0.0488167 0.093869 0.465384 -0.315049 0.477442 1.78561 0.0564114 0.59145)
(0.00795193 0.159754 -0.0875447 0.338416 -0.276493 0.269579 1.98299 0.559391 0.392011)
(0.0866419 0.143003 -0.198884 0.0510363 -0.199642 -0.0146943 1.88426 1.18497 0.207485)
(0.0709027 0.00148801 -0.155265 -0.238817 -0.126567 -0.21626 1.50025 1.4889 0.145191)
(0.0282205 -0.0462623 -0.0523595 -0.431307 6.88977e-05 -0.267606 1.01116 1.22698 0.126246)
(-0.00511813 0.018505 0.034223 -0.536831 0.0563873 -0.201881 0.640331 0.686384 0.0417142)
(0.0859225 0.156331 0.0315524 -0.542007 0.0392001 -0.110336 0.442876 0.281854 -0.0780847)
(0.134265 0.179402 -0.0594825 -0.455997 -0.019635 -0.0759565 0.452319 0.13132 -0.0814423)
(0.112884 0.0472123 -0.0768312 -0.318224 -0.0859763 -0.0394083 0.558879 0.178337 -0.0389813)
(0.0386046 -0.0514187 -0.021276 -0.225197 -0.0834634 0.063167 0.706453 0.202991 0.0440778)
(-0.102139 -0.117545 0.0105307 -0.228556 -0.139801 0.131555 0.865342 0.0171111 0.176143)
(-0.0832829 -0.120875 0.0401975 -0.261628 -0.232683 0.126051 0.8436 -0.104394 0.218266)
(0.0311804 -0.0757633 0.0329468 -0.063897 -0.163484 0.0757866 0.574435 -0.0916353 0.168322)
(0.0756251 -0.105547 0.033325 0.200582 -0.158013 0.0657036 0.187343 -0.0824733 0.0943302)
(0.125205 -0.0708712 0.109358 0.400211 -0.18646 0.226981 -0.0514246 -0.199811 0.0486223)
(0.198719 -0.0370853 0.170705 0.485779 -0.255112 0.515862 -0.0767297 -0.559952 0.0928301)
(0.281079 -0.109055 0.191585 0.299188 -0.426928 0.700756 0.00321743 -0.759841 0.122758)
(0.304046 -0.116133 0.180419 0.0853668 -0.427065 0.583209 -0.0268759 -0.526361 0.0844069)
(0.183516 0.00104985 0.0914271 -0.0183615 -0.239588 0.194394 -0.24208 -0.109364 0.0478813)
(-0.035635 0.148716 -0.00619414 -0.10729 0.0244353 -0.151413 -0.304273 0.0864148 0.00363549)
(-0.189348 0.141251 -0.0724376 -0.220196 0.197447 -0.284677 -0.0135636 -0.136521 -0.0438425)
(-0.133547 0.0928646 -0.0903925 -0.268332 0.21381 -0.253518 0.446702 -0.399555 -0.0663963)
(-0.0381755 0.131106 -0.0375567 -0.225286 0.0910513 -0.172405 0.571592 -0.268146 -0.0125801)
(-0.0182206 0.175191 -0.0158676 -0.151308 -0.130282 -0.208317 0.167234 0.20525 0.129749)
(-0.024527 0.217113 -0.0221451 -0.0485421 -0.210162 -0.219216 -0.380606 0.616882 0.229643)
(-0.0578698 0.099387 -0.0576575 0.0974976 -0.158146 -0.112891 -0.466573 0.606593 0.178295)
(0.00904825 -0.08096 -0.137875 0.273444 -0.0411434 -0.065334 0.112639 0.220575 0.00626698)
(0.0578944 -0.124356 -0.143468 0.248311 0.0587814 -0.0749185 0.875367 -0.100666 -0.116522)
(-0.0335054 -0.0831959 -0.119719 -0.0725237 0.0393406 -0.102581 1.28444 -0.113414 -0.0485222)
(-0.133869 -0.0392251 -0.119391 -0.450201 -0.0397102 -0.121681 1.30975 0.0893415 0.187178)
(-0.189552 -0.0527439 -0.0609511 -0.541317 -0.153109 -0.0852195 1.10315 0.259426 0.375913)
(-0.14853 -0.0993728 0.0706471 -0.126509 -0.185589 -0.0297532 0.741499 0.198142 0.349596)
(0.0133462 -0.131689 0.220372 0.367557 -0.255183 0.0646938 0.358727 0.0360999 0.274052)
(0.245177 -0.00458197 0.29739 0.643094 -0.402113 0.182152 0.0596105 0.0690286 0.12109)
(0.0442017 0.085541 0.0400856 -0.622722 0.172304 -0.216002 0.29755 0.673188 -0.148816)
(-0.113736 0.446524 -0.276869 -0.980017 0.244468 -0.469855 0.691465 0.451456 -0.119144)
(-0.145912 0.563092 -0.255823 -0.887797 0.322647 -0.297883 0.896527 -0.0747048 -0.149977)
(-0.0915931 0.189782 0.00349561 -0.341605 0.267887 0.123981 0.854243 -0.526384 -0.142664)
(-0.0186707 -0.376851 0.231829 0.171642 0.103834 0.290422 0.739197 -0.441946 -0.044689)
(-0.092567 -0.520408 0.264392 0.158301 -0.0223723 0.166011 0.681985 0.199428 0.126033)
(-0.230959 -0.168421 0.0252748 -0.00887103 -0.0588757 -0.129439 0.636894 0.895644 0.199095)
(-0.28951 0.166387 -0.243727 0.0981155 0.0098411 -0.312392 0.615962 1.23939 0.18336)
(-0.307255 0.171838 -0.335524 0.146074 -0.0238897 -0.389717 0.905487 1.10467 0.199833)
(-0.213281 0.123854 -0.275715 -0.103109 -0.0721888 -0.375801 1.32374 0.718753 0.192805)
(-0.0619417 0.12287 -0.139898 -0.341981 -0.0368889 -0.127608 1.38765 0.456749 0.055311)
(0.0421768 0.0887733 0.0129475 -0.502855 -0.0709088 0.124569 1.04049 0.573212 -0.113753)
(0.158111 0.116828 0.104046 -0.472837 -0.0542054 0.153248 0.431242 0.776103 -0.222682)
(0.16734 0.113239 0.104035 -0.438385 0.0526387 0.0148654 -0.197896 0.75816 -0.326646)
(0.074829 0.0561021 0.123716 -0.346414 0.0875752 -0.0179484 -0.586575 0.553222 -0.280273)
(-0.0213181 -0.0638407 0.109952 -0.220388 0.0676986 0.119549 -0.522477 0.338938 -0.0616082)
(-0.125395 -0.26784 -0.0016551 -0.275045 -0.0898751 0.253866 -0.238545 0.210724 0.162231)
(0.0101156 -0.253996 -0.0691243 -0.397367 -0.181054 0.244337 0.0904097 0.2977 0.165307)
(0.298856 -0.123129 -0.048166 -0.255811 -0.121651 0.198327 0.23406 0.277496 -0.121677)
(0.372297 -0.0932232 0.0973633 0.0692278 -0.13702 0.255677 0.108946 -0.0492774 -0.349681)
(0.2902 -0.0668582 0.333189 0.509522 -0.1181 0.472416 0.00953881 -0.499228 -0.255224)
(0.0428427 -0.119452 0.374683 0.618519 -0.0930351 0.618796 -0.205709 -0.814568 0.0427925)
(-0.156252 -0.104916 0.132994 0.194104 -0.0395467 0.413654 -0.242941 -0.587461 0.181694)
(-0.0592063 0.0295419 -0.18259 -0.360358 0.0958383 0.00720943 0.0230141 -0.0816018 0.0169852)
(0.0382665 0.109476 -0.333042 -0.810362 0.233516 -0.373326 0.368337 0.256148 -0.170332)
(-0.00589696 0.120423 -0.199861 -0.840231 0.341995 -0.515559 0.563887 0.277678 -0.234761)
(-0.0765894 0.057015 0.0231344 -0.506939 0.328871 -0.40949 0.282639 0.0731882 -0.207627)
(-0.0548597 0.0556012 0.125697 -0.331728 0.289102 -0.183523 -0.219587 -0.0440631 -0.188284)
(-0.0223549 0.0871923 0.0561999 -0.557534 0.168354 0.0289902 -0.439194 0.158825 -0.11078)
(-0.0260505 0.120208 -0.0708351 -0.882756 -0.0264994 0.0193066 -0.187024 0.618811 0.0573876)
(0.0856167 0.216594 -0.0662098 -0.853978 0.0132875 -0.13638 0.284982 0.931186 -0.0101292)
(0.2197 0.190752 -0.0903281 -0.436272 0.148703 -0.339582 0.615591 0.742929 -0.296795)
(0.213018 0.0540813 -0.195437 -0.0682268 0.0960084 -0.497986 0.504796 0.224871 -0.320235)
(-0.0538595 -0.0960817 -0.168452 0.00779985 -0.080283 -0.41969 0.0314538 -0.0542568 0.0719107)
(-0.415984 -0.193478 -0.082534 -0.18863 -0.0788124 -0.184959 -0.421208 0.0870105 0.427265)
(-0.434277 -0.168603 -0.0255038 -0.349383 0.0245939 0.00386479 -0.509879 0.467936 0.373012)
(-0.0549822 -0.0788425 0.0424428 -0.150505 -0.00257067 0.0580725 -0.279634 0.767554 0.0389164)
(0.314143 -0.098972 0.171301 0.329781 -0.185214 0.0680819 -0.175966 0.632326 -0.150807)
(0.413199 -0.260293 0.345377 0.383517 -0.306034 0.105247 -0.311487 0.434208 -0.111707)
(0.28754 -0.230508 0.339138 -0.0696979 -0.0572456 0.0397772 -0.15474 0.5408 -0.143245)
(-0.223584 0.428678 -0.145936 -1.91563 0.471314 -0.38837 0.830176 0.521832 -0.128576)
(0.210882 0.45321 -0.0744915 -1.60296 0.398959 -0.292114 1.11464 0.594141 -0.593722)
(0.52189 0.240084 0.245735 -0.495665 0.200521 0.164738 0.70191 0.232369 -0.749699)
(0.345917 -0.303508 0.246022 0.632163 0.106799 0.422891 -0.0662825 -0.18675 -0.427471)
(-0.246446 -0.638495 -0.0145371 0.885399 0.384243 0.198839 -0.372401 -0.0675194 -0.0824152)
(-0.633736 -0.45806 -0.177053 0.366279 0.62475 -0.223228 -0.03438 0.433509 -0.0112909)
(-0.314186 -0.0376436 -0.239879 -0.288476 0.294902 -0.550332 0.763898 0.780644 -0.0118008)
(0.086967 0.184308 -0.279935 -0.583699 -0.169299 -0.529564 1.56321 0.80591 0.192732)
(-0.0869449 0.0894692 -0.254723 -0.698172 -0.376541 -0.345167 2.04242 0.748598 0.543801)
(-0.289065 0.00371992 0.0132148 -0.659353 -0.279457 0.0900209 2.11704 0.777664 0.640761)
(-0.253642 -0.0300009 0.282225 -0.493568 0.00529973 0.42138 1.89792 0.867211 0.265011)
(-0.0903981 0.0130422 0.224558 -0.530001 0.172811 0.242274 1.76732 0.97457 -0.179621)
(0.136625 0.237316 -0.0369553 -0.569084 0.11747 -0.142494 1.48942 1.0564 -0.258229)
(0.223822 0.270444 -0.161807 -0.66584 -0.196569 -0.349626 0.961512 1.12589 -0.124635)
(0.25866 0.0583308 0.013077 -0.426023 -0.420933 -0.127632 0.456687 0.877555 0.059453)
(0.0820117 -0.174029 0.176742 0.0499046 -0.334476 0.212058 0.380588 0.351629 0.261833)
(-0.225412 -0.30151 0.0948504 -0.0325793 -0.298094 0.264309 0.325745 -0.292793 0.414108)
(-0.0616195 -0.154738 -0.00776785 -0.196937 -0.188716 0.128924 0.134562 -0.597271 0.261475)
(0.374954 -0.0499266 0.0333318 -0.327697 0.00657776 0.0322119 -0.384225 -0.510811 -0.291516)
(0.626549 -0.101994 0.226788 -0.647546 0.180346 0.0241215 -1.05416 -0.492309 -0.764556)
(0.516252 -0.0403946 0.378305 -0.75712 0.321336 0.0962501 -1.30242 -0.612964 -0.78898)
(-0.0313917 0.00919862 0.149033 -0.847671 0.337748 -0.0867275 -1.47508 -0.573403 -0.425674)
(-0.42883 0.0206223 -0.232429 -0.870496 0.333925 -0.398778 -1.1059 -0.281937 0.00914334)
(-0.416642 0.0840536 -0.391359 -0.905321 0.416218 -0.523687 -0.380865 -0.0376286 0.0539461)
(-0.158211 0.179429 -0.305065 -1.06122 0.459351 -0.518036 0.0779581 -0.0789315 -0.307377)
(0.17479 0.211421 -0.0485689 -0.796237 0.298709 -0.349643 0.112425 -0.135603 -0.512999)
(0.169024 0.0973785 0.163564 -0.136281 0.156592 -0.369004 -0.176346 0.0418007 -0.353523)
(-0.161026 -0.0204131 0.229443 0.132975 0.243551 -0.513641 -0.393129 0.115111 -0.0388568)
(-0.413963 -0.0889459 0.109826 -0.43447 0.165956 -0.439586 -0.189917 0.0106114 0.284649)
(-0.221875 0.0640332 -0.134078 -1.03373 -0.0611948 -0.217974 0.562615 0.0106842 0.320708)
(0.291149 0.337007 -0.271844 -0.793603 -0.119993 -0.0289778 1.33498 0.36183 -0.114618)
(0.505295 0.164328 -0.30818 -0.125132 -0.16041 -0.0983141 1.3239 0.872201 -0.434288)
(0.331609 -0.225437 -0.197952 -0.00887553 -0.206545 -0.272945 0.44392 0.978951 -0.215842)
(-0.0346977 -0.241464 0.0685532 -0.398859 -0.137225 -0.207306 -0.210159 0.53297 0.153452)
(-0.312821 -0.0214302 0.173624 -0.414916 0.106984 -0.0128229 -0.149817 -0.071307 0.181923)
(-0.135095 0.00120026 0.0555259 0.309947 0.20425 0.0914796 0.285788 -0.181584 -0.110892)
(0.287636 -0.19875 -0.00758369 0.959123 0.0130641 0.0943809 0.689795 0.0681194 -0.341416)
(0.259142 -0.307084 0.112098 0.645325 -0.112083 0.0853338 0.485277 0.0955764 -0.142426)
(-0.22376 -0.0557816 0.212366 -0.519997 0.0476811 0.0122456 -0.0249963 0.0427929 0.195807)
(-0.439829 0.302331 0.0812643 -1.51064 0.328022 -0.206264 0.171608 0.202256 0.202109)
(-0.0376084 0.160899 -0.0302618 -0.61569 -0.0438829 0.074167 0.25993 0.409805 0.0531387)
(0.799456 0.278614 0.0857477 -0.774859 -0.626943 0.493092 0.711022 0.448643 -0.179298)
(1.30578 0.351894 0.234759 -1.01877 -0.660222 0.440434 0.877194 0.682446 -0.659579)
(0.807661 0.259242 0.0467785 -1.14061 0.252205 -0.0586228 0.497213 0.721274 -1.1793)
(-0.204853 -0.0783238 -0.192671 -0.115223 1.2949 -0.385278 0.0554268 0.130407 -1.11951)
(-0.872314 -0.570334 -0.241983 1.75325 1.48462 -0.510456 -0.303672 -0.359037 -0.635235)
(-0.829715 -0.650673 -0.189482 2.66159 1.11111 -0.337611 -0.606157 -0.30764 -0.277119)
(-0.510224 -0.249832 -0.119344 1.67333 0.519605 0.0399632 -0.346581 0.137732 0.0742008)
(-0.334295 0.0957926 0.0574035 0.404472 -0.285852 0.367969 0.240348 0.2567 0.599723)
(-0.0928462 0.350552 0.2276 0.113666 -0.346479 0.639475 0.906253 0.0427849 0.52527)
(0.00111752 0.390417 -0.00675066 -0.0158555 0.0667032 0.354546 1.9914 0.165524 -0.0046665)
(-0.0168777 0.15169 -0.31871 -0.0334257 0.253487 -0.108638 2.92379 0.87676 -0.221263)
(0.0716222 -0.102082 -0.277128 0.38316 0.350224 -0.376762 2.94973 1.54319 -0.303789)
(0.261507 -0.207517 0.0891017 0.402068 0.236584 -0.376214 2.25795 1.32381 -0.538727)
(0.536969 -0.0295166 0.463196 -0.334036 0.125981 0.085642 1.21608 0.262303 -0.668614)
(0.232927 0.00258023 0.359939 -1.36394 0.0177491 0.378827 0.570114 -0.486838 -0.231351)
(-0.288106 -0.180194 -0.0446122 -1.81962 -0.137921 0.172555 0.0503528 -0.482289 0.355338)
(-0.180066 -0.0553652 -0.207981 -1.16824 0.0528007 -0.108131 -0.365843 0.00554917 0.268601)
(0.0253568 0.113202 -0.105973 -0.508199 0.358598 -0.326849 -0.935249 0.278067 -0.349682)
(0.128189 0.101858 0.148988 -0.714609 0.390048 -0.291345 -1.93581 0.150077 -0.57034)
(0.186222 0.0335026 0.26831 -1.42079 0.253262 -0.36803 -2.88712 0.089969 -0.502874)
(-0.0344654 -0.0999154 0.0460937 -1.80203 0.218279 -0.783216 -2.55903 0.0576973 -0.363281)
(-0.216924 -0.044664 -0.172173 -1.56987 0.27474 -0.882139 -0.720884 0.0216196 -0.109834)
(-0.210413 0.112555 -0.275797 -1.14531 0.244883 -0.553715 0.620963 0.199014 -0.0673939)
(0.0882787 0.0427121 -0.222187 -0.573912 0.0256637 -0.0856947 0.333149 0.205525 -0.193713)
(0.586144 -0.0597111 -0.0933535 -0.202171 -0.409427 0.193369 -0.441339 0.109537 -0.114792)
(0.524015 0.0263612 -0.0661502 -0.54175 -0.377975 -0.218348 -0.279904 0.122172 -0.00847792)
(-0.250085 0.0545138 0.0912103 -1.06908 0.256391 -0.754803 0.364814 0.128274 0.0499245)
(-0.784035 -0.118478 0.245076 -1.13094 0.461146 -0.767991 0.506909 0.0490133 0.235482)
(-0.267357 -0.0628519 0.178939 -0.451832 0.251838 -0.384555 0.283557 0.053066 -0.0341916)
(0.669746 0.165805 -0.0104489 0.202197 0.193011 -0.159194 0.506616 0.357962 -0.726874)
(0.734027 0.134486 -0.26197 -0.0221122 0.206918 -0.255361 1.09293 0.651597 -0.939132)
(0.0534608 0.0430835 -0.263493 -0.448061 0.210997 -0.247821 1.11422 0.495266 -0.440452)
(-0.304801 0.0858073 0.0149849 -0.514125 0.0956939 -0.0241024 0.656152 0.128399 0.00544453)
(0.0345002 0.0346775 0.126706 -0.331271 -0.0822936 0.127245 0.299815 0.22036 -0.0717757)
(0.448022 -0.211605 0.0485816 -0.171949 -0.288014 0.2474 0.583123 0.503381 -0.205465)
(0.184895 -0.286608 0.0340675 -0.10725 -0.146976 0.482661 1.3452 0.142177 -0.0900242)
(-0.611338 -0.0963602 0.114801 -0.408377 0.408823 0.326838 1.04312 -0.440048 0.122618)
(-0.986433 0.0321937 0.151812 -0.751571 0.665686 -0.333333 0.00605587 -0.494681 0.254576)
(-0.647146 0.0815942 0.0663712 -0.559685 0.443594 -0.453462 -0.190834 -0.0429614 0.198021)
(-0.328392 -0.201289 0.400057 0.790077 0.705982 0.85528 -0.472289 0.286821 -0.467782)
(0.0363954 0.0886608 0.147284 1.07264 -0.346078 0.278178 0.411744 0.246446 0.238556)
(0.386288 0.747594 -0.0673718 0.0562721 -1.10912 -0.34348 1.63084 0.470308 0.723438)
(0.899062 0.853708 -0.239213 -0.853748 -1.07032 -0.736905 2.43982 0.680412 0.189297)
(1.39441 0.109647 -0.286346 0.514905 -0.838356 -0.556492 1.90686 0.658708 -0.443455)
(0.915419 -0.572246 -0.155994 1.21658 -0.165839 -0.462123 0.150093 0.673489 -0.51476)
(-0.406295 -0.639324 0.0760806 0.635754 0.878131 -0.213967 -1.44931 0.4937 -0.302534)
(-1.24422 -0.645453 0.133824 -0.25179 0.893209 0.261826 -1.26961 0.0515294 0.215228)
(-0.991756 -0.399904 0.112817 -0.860342 0.259525 0.498166 -0.203438 -0.268425 0.467711)
(-0.508998 0.234712 0.025123 -0.722885 -0.157686 0.125196 0.47059 -0.0506696 0.529225)
(-0.313678 0.347647 -0.167273 -0.39085 -0.49332 -0.462181 1.10415 0.215309 0.673174)
(0.142015 0.186043 -0.238565 0.106083 -0.626026 -0.446633 1.88124 0.322692 0.435189)
(0.377073 0.196881 -0.210172 0.585151 -0.368475 -0.092577 2.56089 0.503808 0.122769)
(-0.178473 0.100111 0.122602 0.652332 0.0707419 -0.108973 2.13003 0.80912 0.0810482)
(-0.715064 -0.0734565 0.481153 0.444616 0.465738 -0.232918 0.0476551 0.809107 0.319412)
(-0.744665 -0.307254 0.242574 0.0734243 0.438379 -0.200022 -1.16772 0.484638 0.477812)
(-0.120405 -0.270646 -0.193311 -0.172713 0.0501845 -0.0545644 -0.692358 0.16487 0.0741725)
(0.669486 0.135185 -0.308496 -0.00390108 -0.177462 0.472325 0.0820804 -0.0416009 -0.453048)
(0.599773 0.155695 -0.0829849 0.710694 0.0993609 0.59959 -0.0899716 -0.304927 -0.72656)
(0.0649602 -0.14304 0.196415 1.05314 0.431531 0.37322 -1.07715 -0.633013 -0.504112)
(-0.128927 -0.130844 0.0900451 0.381127 0.232999 0.192481 -0.995791 -0.944184 -0.0195251)
(-0.11601 0.0114236 -0.151166 -0.685461 -0.194887 0.0154978 0.320144 -1.13444 0.253004)
(-0.0380439 0.0297337 -0.0971177 -1.12784 -0.414843 -0.108167 0.960232 -0.541198 0.465134)
(0.165538 -0.054258 0.0697063 -0.740736 -0.266204 -0.44155 0.464445 0.405748 0.14451)
(0.397747 -0.203155 0.125103 0.316052 -0.256343 -0.0952081 0.076533 0.371792 -0.163249)
(0.230403 -0.0415829 -0.127685 0.661517 -0.387019 0.515717 0.688773 -0.505331 0.071886)
(-0.289102 0.467576 -0.393718 -0.367959 -0.0406042 0.409891 1.54933 -1.29461 0.260476)
(-0.502437 0.461098 -0.0940678 -1.13486 0.569651 0.050061 0.998532 -0.939328 -0.0545534)
(-0.0984435 -0.0942076 0.33158 -0.405698 0.445343 -0.116954 0.176208 0.0735812 -0.438322)
(0.528152 -0.0991943 0.238795 0.727731 -0.176077 0.0925548 0.988038 0.620168 -0.312109)
(0.568683 0.296022 -0.174981 1.06213 -0.353029 -0.0411717 2.17051 0.708185 -0.095457)
(0.158247 0.171788 -0.354114 0.582807 -0.18733 -0.248679 1.74719 0.691455 -0.044633)
(0.0279724 -0.263931 -0.0730894 -0.340984 0.0811452 0.162696 0.109155 0.595748 -0.075623)
(0.00680091 -0.377611 0.275858 -0.977858 0.166069 0.630287 -0.687616 0.234372 -0.0473404)
(-0.0876557 -0.233392 0.322946 -1.07432 0.156417 0.697197 -0.0908125 -0.0815704 0.00139635)
(0.0446778 -0.0547487 0.255955 -1.27181 0.0416848 0.273112 1.11137 -0.193171 -0.0885658)
(0.144542 0.187463 0.041144 -1.68573 0.105286 -0.187 1.94244 0.0263626 -0.202402)
(-0.184537 0.171812 -0.349269 -1.86366 0.352117 -0.240967 1.74449 0.322025 -0.049461)
(-0.378732 -0.0281091 -0.234562 -1.19041 0.260725 0.341797 0.551393 0.185545 0.0534966)
(-0.381819 -0.119155 0.310435 0.00411076 0.670205 1.01981 -0.592136 0.148397 -0.39706)
(0.485429 -0.394667 -0.372499 -1.12227 -0.133269 0.692771 1.16666 0.334139 -0.209627)
(0.352688 -0.672075 -0.525113 -0.348138 -1.01333 -0.0318677 1.18357 -0.198611 0.632567)
(0.231504 0.0154481 -0.314727 0.937364 -2.00707 -0.183502 1.29387 0.0894956 1.3236)
(1.05183 0.452557 -0.0887778 1.01573 -2.39193 -0.616876 0.14868 0.726526 1.09037)
(1.00528 0.403903 -0.0598866 -1.16842 -1.76392 -0.69275 -1.70482 1.16134 0.745403)
(-0.647548 0.312189 -0.0580191 -2.98261 -0.885035 0.241481 -1.60898 0.85483 1.20656)
(-1.5463 -0.105029 0.206963 -2.97606 -0.704039 0.875039 -0.906315 0.322218 1.86448)
(-1.34635 -0.603936 0.269898 -2.7247 -0.592657 0.974205 -0.955811 0.144542 1.92156)
(-0.636359 -0.489718 -0.00781738 -3.04535 0.122106 0.778497 -1.10641 -0.0999193 0.850398)
(0.110733 -0.0471336 -0.284673 -3.05655 0.481831 0.104773 -0.194946 -0.186558 -0.106091)
(0.398776 0.145685 -0.315413 -2.04521 -0.147643 -0.253241 0.519697 -0.256694 -0.187896)
(0.499481 0.219016 -0.121352 -0.471435 -0.875183 -0.212776 0.824843 0.135934 0.361646)
(0.380314 0.283423 -0.0973969 0.608876 -1.05784 -0.305134 1.52611 0.913721 0.674854)
(0.149215 0.249457 0.0199789 0.404765 -0.484153 -0.451438 1.53241 1.31823 0.0508512)
(0.125377 0.155542 0.418008 0.18809 0.100728 -0.116928 -0.0431147 1.04703 -0.347028)
(-0.173459 -0.239301 0.440981 0.930033 0.345001 0.192271 -1.24773 0.320319 -0.205066)
(-0.312615 -0.505116 0.287614 1.76628 0.692692 -0.0351156 -1.11992 -0.0557494 -0.346018)
(0.351502 -0.012743 0.119272 1.46397 0.56156 0.225871 -0.312259 -0.0601477 -0.731638)
(0.621189 0.430241 -0.154846 0.513024 0.533077 0.211324 -0.355748 0.0139975 -1.16784)
(-0.0470414 0.148304 -0.056052 0.55019 0.726372 -0.108008 -1.51044 -0.194675 -0.740811)
(-0.736516 -0.30358 0.0681371 0.732446 0.905465 0.535389 -1.16074 -0.639918 -0.23311)
(-0.817863 -0.422938 -0.126457 0.50748 1.0239 1.2847 -0.261176 -0.769698 -0.224261)
(-0.229077 -0.0745712 -0.400381 0.301044 0.46841 0.979141 -0.391654 -0.142244 -0.187813)
(0.5663 0.178889 -0.237704 0.612968 -0.190249 0.363909 -0.36676 0.369673 -0.302057)
(0.837533 -0.0417819 0.301676 0.3928 0.214922 0.415059 -0.0100277 -0.124303 -0.926789)
(0.202034 0.052881 0.163269 0.300547 0.858299 0.553702 0.723225 -0.447638 -0.981667)
(-0.47373 0.558461 -0.335409 0.718157 0.668831 0.248358 0.847627 -0.211213 -0.204183)
(-0.292447 0.341395 -0.196571 0.390047 0.388197 0.0142618 -0.0482972 -0.238701 -0.103668)
(0.23616 -0.499758 0.274797 0.344145 -0.0247966 0.174717 -1.28197 -1.10086 -0.213717)
(0.559831 -0.476718 0.223355 0.406912 -0.615724 0.329642 -1.52484 -1.40417 -0.076758)
(0.586027 0.171863 -0.200894 0.177191 -0.647841 0.382047 -0.0632917 0.0553287 0.037143)
(-0.0398957 0.361152 -0.165513 -0.481867 -0.224938 0.424722 0.680815 1.19654 0.142102)
(-0.751424 0.19689 0.205832 -0.959395 -0.00408852 0.565616 -0.475318 0.828346 0.642369)
(-0.653571 0.0823609 0.313581 -1.16077 -0.137772 0.411856 -1.16254 -0.314099 0.767781)
(-0.127777 -0.0536716 -0.0391193 -1.26851 0.0267562 0.43308 -0.0687126 -0.531866 0.0796711)
(0.0969138 -0.22363 -0.38725 -1.65824 0.0592454 0.452222 1.4066 0.00378812 -0.198748)
(-0.123131 -0.0838462 -0.229652 -2.47614 0.156059 -0.14799 1.41667 0.315018 -0.0280744)
(-0.317794 0.00796798 0.344519 -2.40967 -0.0659816 0.0263919 -0.178896 0.288258 0.346173)
(0.029341 0.190284 0.765015 -1.96118 -0.132768 1.0815 -1.38599 0.331275 0.147875)
(0.395447 0.292305 0.352629 -1.68402 0.218619 1.37834 -0.296296 0.611483 -0.48041)
(0.370117 -0.794778 -0.329448 -1.39099 -0.551256 -0.940586 0.272522 0.5497 0.0338435)
(1.02798 -0.856484 -0.32351 -2.73408 0.285396 -0.743021 1.07335 0.495787 -1.16086)
(1.00977 0.0365434 -0.363345 -1.92381 0.445484 -0.444832 1.65187 0.482269 -1.57732)
(-0.07143 0.930886 -0.463586 -1.02582 0.0422579 -0.364962 1.00412 0.816511 -0.251192)
(-0.510082 0.84084 0.135509 -3.04077 -0.236606 0.155709 -0.812561 0.451033 0.727504)
(-0.0717692 0.003666 0.585809 -3.02866 -0.28979 0.838468 -2.50567 -0.194636 0.478853)
(-0.389431 -0.454045 0.430511 -1.31367 -0.227095 0.52456 -3.61977 0.471557 0.851478)
(-1.2859 -0.255479 0.101071 -1.06164 0.183471 0.0446601 -3.68221 0.922124 1.09498)
(-1.11456 0.0942149 -0.304588 -0.457812 0.256727 0.15736 -2.83383 -0.146523 0.555848)
(0.0149087 0.0829748 -0.485362 -0.697661 -0.0905365 0.0978885 -1.02569 -0.762401 -0.216313)