/*--------------------------------*- C++ -*----------------------------------*\
  =========                 |
  \\      /  F ield         | OpenFOAM: The Open Source CFD Toolbox
   \\    /   O peration     | Website:  https://openfoam.org
    \\  /    A nd           | Version:  10
     \\/     M anipulation  |
\*---------------------------------------------------------------------------*/
FoamFile
{
    format      ascii;
    class       volScalarField;
    location    "14";
    object      pMean;
}
// * * * * * * * * * * * * * * * * * * * * * * * * * * * * * * * * * * * * * //

dimensions      [0 2 -2 0 0 0 0];

internalField   nonuniform List<scalar> 
25600
(
0.00366572
0.00266888
-0.00293401
0.0112337
0.00515671
-0.00204813
0.00745487
0.00440169
0.00561204
0.00543097
0.00358984
0.00582433
-0.00272057
0.00196643
0.00301967
0.000343368
0.00725708
0.00100085
0.00221947
0.00658267
0.000261661
0.00298636
0.00837938
0.00350005
0.00403142
0.00743453
-0.000190303
0.00341325
0.00312506
-0.0069504
0.00420484
0.00754146
9.46888e-05
0.00521549
0.00639402
0.00489439
0.00491849
0.00596357
0.00455021
-0.00255877
0.00380014
0.000436786
-0.00106624
0.00916127
0.00103765
-0.00298967
0.00543711
0.00105436
0.000544147
0.000630137
-0.00256455
0.000285055
-0.00137887
0.00367238
0.00356284
-0.000713021
0.00295987
-0.00350166
0.000310057
0.00831748
0.00289399
0.0034343
0.00767506
0.00208483
-0.0012896
0.00428767
0.000674278
0.00165131
0.00194381
-0.00577828
0.00646814
0.00804555
0.0023736
0.0114901
0.00536005
0.000983058
0.00459152
0.000102698
-0.00367355
-0.00317322
0.0114048
0.00467996
0.00395603
0.00597567
0.00134588
0.00325345
0.00985903
0.00775449
0.00681451
0.00696409
0.0024516
0.00309826
0.00326457
0.000946362
0.00077586
0.00289828
0.00588842
0.0023853
0.0053478
0.00881241
0.00394652
0.00432876
0.00847313
0.0061426
0.00214024
0.00761274
0.00532839
-3.69896e-05
-0.00202833
-0.00653745
0.000702428
-0.00102931
4.46414e-05
0.0130156
0.00394116
0.00193602
0.00847929
-0.000224299
-0.00490659
0.00522349
0.00919289
0.00131484
-2.33224e-05
-0.00229265
-0.00515342
-0.00275878
0.00263884
0.00601646
0.00875916
0.00982568
0.00523602
0.00716807
0.00647637
-0.00351565
-0.00161798
0.00241571
0.00231719
0.00449799
0.0079233
0.00905684
0.00510587
0.000429923
-0.000237389
-0.000381892
-0.0032169
0.00441436
0.00639129
-0.000412452
-0.00178314
-0.00235312
0.0023403
0.00170746
0.00541985
0.0108668
-0.00106813
0.00103257
0.00734
-0.000932068
-6.85269e-05
0.00987658
0.00788729
-0.000766875
-0.00530388
-0.00724759
-0.00670907
-0.00465814
6.13828e-05
0.00783895
0.0118546
0.0074964
-0.0035842
-0.000795229
0.000620243
-0.0072153
0.000979812
0.00669843
0.00537059
0.00795382
0.00682018
0.00403063
0.0014211
-0.0010218
0.00189551
0.00539879
0.00166809
0.00641308
0.00551898
-0.00484146
-0.00601263
-0.00368006
-0.00289122
-0.00524342
0.00107383
0.00522886
-0.00145302
0.00258787
0.00303783
-0.00510501
-0.000784024
0.00929816
0.0037573
-0.00601419
-0.00892936
-0.00832901
-0.00625174
-0.00281703
0.00462175
0.0124036
0.0108658
0.00271307
-0.00231617
0.00412216
0.00289578
-0.00432836
0.00305157
0.00546408
0.00413306
0.00838905
0.00642358
0.00134885
-0.00187812
-0.00496796
-0.00149367
0.00147467
-0.00506657
0.000818546
0.00601297
0.00116546
-0.00156537
-0.00150726
-0.002666
-0.00352659
0.00309921
0.00409778
0.00042154
0.0045604
0.00168434
-0.00484358
0.00256603
0.00970416
0.00390192
-0.00613295
-0.0105537
-0.00768412
-0.00448915
-0.00285518
0.00221711
0.00724658
0.00318554
-0.00734946
-0.0082195
0.00180229
0.00163805
-0.00159569
0.00336653
0.00285708
0.00258091
0.00549205
-1.53533e-05
-0.00648451
-0.00710361
-0.00474831
0.00166817
-0.000132274
-0.00840468
0.00169345
0.00593952
-0.00518967
-0.00846369
-0.00238774
0.000153869
-0.00168027
0.000410184
-7.31749e-05
0.000345656
0.00365546
-0.00244598
-0.00309408
0.0107674
0.0135888
0.0034087
-0.00373087
-0.00811041
-0.00548703
-0.00497987
-0.00263771
0.00447106
0.0103355
0.0059624
-0.00571261
-0.00274079
0.00695993
0.00334398
-0.00207362
0.00192843
0.00287243
0.00247002
0.00413672
0.000108347
-0.00471394
-0.00181573
0.00418252
0.0100071
0.0041652
-0.00287786
0.00472687
0.00303821
-0.00528593
-0.00342984
0.00232997
0.000227678
-0.00846855
-0.00675175
-0.00173924
0.00250911
0.0072734
0.00483987
0.00664447
0.0145213
0.0111858
0.00654955
-0.00863898
-0.0126518
-0.00451318
-0.00106833
0.000860561
0.00528153
0.010524
0.00678387
-0.00634569
-0.00491406
0.00145561
-0.00456835
-0.00594783
-3.17189e-05
-0.000702482
0.00226863
0.00928909
0.00377932
-0.00789128
-0.00612279
0.00242971
0.00984695
0.00542406
0.00100532
0.00715971
0.00161399
-0.00699209
-0.00549457
0.0012004
-0.00139099
-0.0103247
-0.00625751
-0.00102713
0.00358339
0.006365
-0.00151972
-0.00121206
0.0118663
0.0167246
0.00122101
-0.00855341
-0.00176476
0.00630572
-0.00038861
-0.00394344
-0.00243773
0.00447518
0.00385141
-0.00491615
-0.000529826
0.00319379
-0.00475212
-0.00667984
-0.00103051
0.000350535
0.00436299
0.0108696
0.00181491
-0.0104287
-0.00298344
0.00693353
0.00692862
0.00134061
0.000850242
0.00576989
-0.0034658
-0.0126345
-0.0131491
-0.00150365
-3.02713e-05
-0.00753017
-0.00112625
0.00277361
0.00723111
0.00992367
0.00081744
-0.000906715
0.00174833
0.00383246
0.00612021
-0.00627219
0.0013162
0.00885871
-0.000300513
-0.00535322
-0.00315807
0.00781479
0.00799486
-0.00118328
0.00238217
0.00526497
0.00219253
-0.000230075
0.00109978
-0.00236524
0.00342452
0.0162122
0.00512223
-0.0121278
-0.00350895
0.00802817
0.00723834
0.00180921
0.0007611
0.00234196
-0.00677508
-0.0120931
-0.0113847
0.00262671
0.0039782
-0.00871892
-0.00518947
-0.0023495
0.00399932
0.00933377
0.00249421
0.00125152
-3.62878e-05
0.00532954
0.00475496
-0.00735722
0.00460127
0.0123717
0.00205812
-0.00438367
-0.0037896
0.0059888
0.00452259
-0.00411084
0.00221268
0.00360528
-0.000314571
-0.000780019
7.82622e-05
-0.00544963
0.000471917
0.015854
0.00626406
-0.00781466
0.00288049
0.0103012
0.00694118
0.00113757
0.00172628
0.0038313
-0.00490123
-0.00865942
-0.00408813
0.00681751
0.00123099
-0.012808
-0.00824282
-0.00413894
0.00718042
0.0127418
0.00222131
-0.00143232
-0.00305161
0.00585048
0.0028178
-0.0068341
0.00718409
0.01253
-0.00117348
-0.00669609
-0.00458021
0.00309804
0.000224633
-0.00272226
0.00433778
0.00108565
-0.00218839
0.00290407
0.00142095
-0.00768695
4.75692e-06
0.0165676
0.00573561
-0.00914059
-0.000168395
0.00484788
0.00240086
0.000640492
0.0049444
0.00270143
-0.0107835
-0.0128738
-0.00657669
0.00488005
-0.000908544
-0.0119785
-0.0105211
-0.00797417
0.00770217
0.0128426
0.00116325
-0.00174699
-0.00527175
0.00252026
0.00399526
-0.00509524
0.00735235
0.0131322
-0.00067577
-0.00723708
-0.00618845
0.00346838
0.00160406
0.00050824
0.00359926
-0.00240383
0.00157945
0.00811309
0.00196459
-0.00915647
0.000995541
0.0171734
0.0053299
-0.0090191
0.000837335
0.00706757
0.00359658
0.00176202
0.00445433
-0.00236908
-0.0152607
-0.0147158
-0.0058804
0.00632983
0.000482235
-0.00895213
-0.0101203
-0.00784655
0.0097867
0.0131145
0.000552514
-0.00176518
-0.00494683
0.00341676
0.00351726
-0.00594406
0.00472496
0.0116995
-0.00256058
-0.00947898
-0.00636442
0.00606467
0.000314766
-0.00387645
-0.0011387
-0.00519726
0.000493675
0.00401098
-0.00295853
-0.0134104
-0.00111054
0.015795
0.00431294
-0.00795193
0.0027667
0.00720847
0.00147371
-0.000288945
0.00253152
-0.00349745
-0.0156037
-0.0141333
0.000765949
0.0127779
0.00604915
-0.00319948
-0.00642334
-0.00342344
0.0156651
0.0129184
-0.00113279
-0.000526388
-0.0043645
0.00285441
0.0039024
-0.00761565
0.0019751
0.0102453
-0.00156456
-0.0096579
-0.00623476
0.00699437
0.00154213
-0.00657439
-0.00436614
-0.00641033
-0.00363907
2.78102e-05
-0.00797208
-0.014808
-0.00301211
0.0137566
0.00405349
-0.0058382
0.00504075
0.00667735
-0.000738705
-0.000143454
0.00500229
-0.000398991
-0.015011
-0.0123915
0.0067335
0.0170141
0.0104425
-0.00274483
-0.00908728
-0.00285469
0.0174731
0.00860677
-0.00362142
0.000467546
-0.00414797
0.002513
0.00425406
-0.00717324
0.00288521
0.0117342
0.00190539
-0.00804038
-0.00688943
0.00470186
0.00117852
-0.00856643
-0.00506545
-0.00777789
-0.00684579
-0.000277457
-0.0110878
-0.0154808
-0.00114273
0.0174321
0.00654324
-0.00485977
0.00771073
0.00667557
-0.00254701
-0.000392008
0.00819724
0.00285992
-0.016225
-0.0128904
0.00875152
0.0150413
0.0100156
-0.000346811
-0.0104964
-0.00463798
0.0146151
0.00304343
-0.00541384
0.000660977
-0.00476305
0.00165981
0.00242889
-0.0110665
-0.00145884
0.00853508
0.00245053
-0.0113349
-0.0125521
-0.0010886
-0.00291953
-0.00956092
-0.00539888
-0.00994954
-0.00635053
0.00161038
-0.0110641
-0.0158375
0.00257969
0.0226886
0.00889007
-0.00541191
0.00821394
0.00457352
-0.00589568
-0.00359432
0.0112747
0.00347813
-0.0217963
-0.0155549
0.00844899
0.0145609
0.0116762
0.00189219
-0.0129116
-0.00736209
0.00933527
0.000508455
-0.004279
0.000266551
-0.00630069
0.00261702
0.00267985
-0.0124199
-0.00701324
0.00438777
0.00135557
-0.016444
-0.0175176
-0.0053415
-0.00857986
-0.0106811
-0.00524991
-0.0103564
-0.00378086
0.00479892
-0.00860474
-0.0164256
0.00356974
0.025133
0.00895791
-0.0059179
0.00794664
0.00428307
-0.0110532
-0.00849117
0.0145924
0.00227324
-0.0293633
-0.0159588
0.0094252
0.0169893
0.013174
-0.00115492
-0.0179456
-0.0125626
0.00569502
-5.97956e-05
-0.00410315
0.000869447
-0.00666705
0.00295897
0.00489416
-0.0111405
-0.00896259
0.00622054
0.00414724
-0.0134519
-0.017325
-0.00778249
-0.0146589
-0.0126573
-0.00501373
-0.0126698
-0.0015749
0.0100537
-0.00764129
-0.0171096
0.00315742
0.0234235
0.00740949
-0.00610446
0.00659677
0.00361479
-0.0172922
-0.0107142
0.0185939
0.000809405
-0.0363523
-0.0154961
0.0114611
0.0203349
0.0138843
-0.00242673
-0.017095
-0.0128254
0.00517303
-0.00147391
-0.00431901
0.00368715
-0.00475054
0.001281
0.00749733
-0.0104642
-0.00859969
0.00990216
0.00754607
-0.00884833
-0.014932
-0.00819369
-0.0173644
-0.0113057
-0.00382129
-0.0168185
-0.00152797
0.0107411
-0.00953929
-0.0174118
0.00337563
0.0200519
0.00517972
-0.00877588
0.00276269
0.000782991
-0.0187185
-0.00816494
0.0215948
-0.00269619
-0.0433045
-0.0154938
0.0149735
0.0232573
0.0149418
-0.000454244
-0.0117376
-0.00767243
0.00733124
-0.000748327
-0.00505511
0.00420824
-0.00362006
-0.000799674
0.0116358
-0.0109586
-0.00802514
0.0118748
0.00949319
-0.00941198
-0.0127992
-0.00807331
-0.0179877
-0.00791909
-0.00323272
-0.0234668
-0.00514238
0.0100981
-0.00928476
-0.0181167
0.00365533
0.0196947
0.00323149
-0.0119811
0.00147658
0.00164786
-0.0167687
-0.00448949
0.0214106
-0.00694084
-0.0489022
-0.016578
0.0170471
0.0220935
0.0137885
0.00389659
-0.00978731
-0.00734222
0.00683728
-0.00127631
-0.00705381
0.00265473
-0.00605606
-0.000177691
0.0164431
-0.0131417
-0.00855561
0.0137113
0.0103101
-0.0112889
-0.0127675
-0.00897133
-0.0184156
-0.00636259
-0.00571494
-0.0310093
-0.00897837
0.0126373
-0.0100552
-0.0185497
0.00438785
0.0216561
0.00297071
-0.0133058
0.00177649
0.00157445
-0.0189414
-0.00288062
0.0230086
-0.00913096
-0.0542619
-0.018746
0.0178732
0.0184556
0.0129814
0.00944547
-0.0105105
-0.0107201
0.00406582
-0.00383551
-0.00570844
0.00361318
-0.00973736
0.00237502
0.017394
-0.0133692
-0.00805773
0.0175609
0.00968149
-0.011808
-0.0126999
-0.0103015
-0.0197544
-0.00704624
-0.00974905
-0.0363592
-0.00912843
0.0150402
-0.0104774
-0.0178256
0.00563828
0.0232079
0.00371956
-0.0137383
0.00140173
-0.000424337
-0.0198458
-0.00255667
0.0270629
-0.0110704
-0.057205
-0.0192386
0.0157885
0.0158576
0.0168709
0.0116407
-0.0121424
-0.013486
0.00370318
-0.00491732
-0.00351933
0.00457302
-0.0113179
0.0042668
0.0149555
-0.0115569
-0.00564585
0.0205614
0.00938102
-0.0126556
-0.0135855
-0.013124
-0.0220464
-0.0103448
-0.0146179
-0.0385207
-0.00636968
0.01433
-0.011307
-0.0187212
0.00563669
0.023766
0.00319431
-0.0147049
-0.000282726
-0.00193029
-0.0196127
-0.00460846
0.0295582
-0.013767
-0.0598284
-0.0200958
0.0130101
0.0158771
0.0229822
0.0109354
-0.0137845
-0.0139801
0.00439334
-0.00575804
-0.0042758
0.0036431
-0.0121515
0.00377844
0.0154216
-0.0106292
-0.00289009
0.0217068
0.00951587
-0.013195
-0.0145011
-0.0160158
-0.0252991
-0.0148336
-0.0166503
-0.0358209
-0.00364105
0.0134143
-0.0127483
-0.0206108
0.00399034
0.0250874
0.00303127
-0.015588
-0.00286535
-0.00183346
-0.0210417
-0.00685647
0.0293848
-0.0140356
-0.0624403
-0.0226268
0.0136781
0.0168499
0.0264555
0.0114696
-0.0141508
-0.0135727
0.00442195
-0.00603727
-0.00537655
0.00303947
-0.0119929
0.00199337
0.0167351
-0.0107313
-0.00284741
0.0216347
0.0089191
-0.0135022
-0.0151584
-0.0180723
-0.027465
-0.0156251
-0.0148379
-0.0323839
-0.00314957
0.0128706
-0.0135072
-0.0217319
0.00133549
0.0242876
0.00295119
-0.0173654
-0.00475468
-0.00223498
-0.0223151
-0.00801497
0.0263886
-0.0131623
-0.064653
-0.0253433
0.0160085
0.0178741
0.0270493
0.0123137
-0.0145298
-0.0141306
0.00441688
-0.00590801
-0.00683932
0.0020047
-0.0121831
0.000397017
0.0163962
-0.0107758
-0.00302781
0.0219168
0.00900897
-0.0132194
-0.0146709
-0.0175547
-0.0270599
-0.0127671
-0.0124098
-0.0318377
-0.00338095
0.0137694
-0.0121831
-0.0213229
-0.000225922
0.0219157
0.00249452
-0.0179852
-0.00506225
-0.00299716
-0.0222513
-0.00759026
0.0252776
-0.0111805
-0.0646489
-0.0260816
0.0165714
0.0193891
0.0282282
0.0122998
-0.0145166
-0.0137025
0.00484363
-0.00574984
-0.00752732
0.00185511
-0.0131914
0.000263162
0.0150367
-0.0118811
-0.00353965
0.0213433
0.00834595
-0.0135991
-0.0144055
-0.0173278
-0.0271422
-0.0115904
-0.0129084
-0.0337638
-0.00379795
0.0143679
-0.0112545
-0.0215121
-0.00147088
0.0196407
0.00142732
-0.018149
-0.00632183
-0.00390756
-0.0223099
-0.00686108
0.0255282
-0.0100711
-0.0642057
-0.0259747
0.0145561
0.0188581
0.027948
0.0112754
-0.0148101
-0.0136591
0.0047016
-0.00616878
-0.00836628
0.00133196
-0.0143957
-0.000294182
0.0158343
-0.0113691
-0.00284891
0.0219661
0.00896733
-0.0126147
-0.0129463
-0.0158487
-0.0257241
-0.0103253
-0.0119786
-0.0334485
-0.0027983
0.015834
-0.00974772
-0.0210287
-0.000986211
0.0202561
0.00243019
-0.0169943
-0.00573323
-0.00330862
-0.0211501
-0.0052702
0.0262588
-0.00870824
-0.062393
-0.0246533
0.0144818
0.0194714
0.0284551
0.0117173
-0.013994
-0.0124722
0.00608385
-0.00495037
-0.00741652
0.00208075
-0.013435
0.000708611
0.0148368
-0.0125228
-0.00387771
0.020993
0.00800064
-0.0135355
-0.0135337
-0.0163821
-0.0262018
-0.011421
-0.0127732
-0.0342681
-0.00377991
0.0148601
-0.0104134
-0.0219119
-0.00181196
0.0195095
0.00165256
-0.0179439
-0.00664727
-0.00443547
-0.0222401
-0.00664365
0.0247736
-0.00922017
-0.0624677
-0.0249672
0.0138116
0.0182615
0.0270727
0.0108634
-0.0148179
-0.0129252
0.00583328
-0.00544277
-0.00821507
0.00120527
-0.0142806
-0.000321183
0.0214357
-0.00589207
0.0026949
0.0276638
0.0148186
-0.00680776
-0.00684373
-0.00938261
-0.0191268
-0.00486622
-0.00617216
-0.0274916
0.00258937
0.0212209
-0.00374849
-0.0155145
0.00456633
0.0257862
0.00794949
-0.0115921
-0.000264611
0.00196404
-0.0158589
-0.000229547
0.0313628
-0.00227197
-0.0553577
-0.0180875
0.0202546
0.0244542
0.0334357
0.0174742
-0.00818695
-0.0061098
0.0126703
0.00124549
-0.0016578
0.00781662
-0.00760174
0.00609907
0.00543641
0.0021471
-0.00341828
0.00820869
0.00022805
-0.00547382
0.00647492
0.00545068
0.00766704
0.00755794
0.00530992
0.00659801
2.28486e-05
0.00512583
0.00448721
0.00119937
0.00613244
-0.000967768
0.00108686
0.0059674
0.000101238
0.00326679
0.00848981
0.00392816
0.0052369
0.00829696
0.00195145
0.00606656
0.0039429
-0.00547071
0.00512573
0.0063873
0.000260939
0.00544069
0.00622016
0.00484376
0.00477039
0.00727455
0.0054966
-0.00119112
0.00378545
-0.0018163
-0.00181835
0.00679074
-0.002909
-0.00529359
0.00376807
0.000890938
0.00170669
0.00187678
-0.00159612
0.00110918
0.000540286
0.00512106
0.00489525
0.00151306
0.00437827
-0.00214927
0.00079332
0.00828462
0.00418351
0.00511654
0.00862148
0.00261528
-0.00113494
0.00158027
-0.00123242
0.00148362
0.000420091
-0.00539611
0.0071045
0.00639264
0.00151659
0.0114756
0.00621518
0.00302943
0.00618492
0.00247926
-0.00159224
-0.00137141
0.00638026
0.0010507
0.00259166
0.00421082
-0.00150919
0.000382178
0.00612845
0.00533895
0.00637168
0.00723044
0.0031127
0.0052122
0.00696783
0.00505073
0.00494567
0.00569869
0.00587377
0.0014174
0.00443104
0.00963499
0.00660328
0.00662455
0.00968257
0.00722813
0.00309658
0.00635235
0.00494228
-9.37257e-05
-0.00396086
-0.00633699
0.00101937
-0.0035206
-0.00300494
0.0102712
0.0026825
0.00316367
0.0112088
0.00317383
-0.000837628
0.004885
0.00422064
-0.000415348
3.0734e-05
-0.00198131
-0.00554051
-0.0038891
0.000866266
0.00380064
0.00505076
0.00379307
-0.000827239
0.00330922
0.00449857
-0.00430729
-0.00121974
0.00337927
0.00182375
0.00186796
0.00411593
0.00541883
0.00286457
-0.00034339
-6.18161e-05
0.00117301
-0.00107115
0.00485857
0.00775135
0.000712405
-0.0031783
-0.00407726
-0.000853924
-0.00224217
0.00437666
0.0123114
0.00158951
0.00509054
0.00943644
-0.00264706
-0.00196827
0.00612409
0.00270964
-0.00109859
-0.00292882
-0.00490844
-0.00698525
-0.00615083
-0.00247848
0.00201566
0.0026095
-0.00288192
-0.0094137
-0.000530436
0.00463587
-0.00225837
0.00540622
0.00764755
0.00251199
0.00350178
0.00383319
0.00427552
0.00559508
0.00442892
0.0062048
0.0103879
0.00659818
0.00805978
0.00496908
-0.00677916
-0.0075981
-0.00356883
-0.00346303
-0.00660177
0.000818981
0.00508321
-0.00112539
0.00612012
0.00705932
-0.00135282
0.00235363
0.00603213
0.00449286
-0.000214533
-0.00328485
-0.00438464
-0.00642795
-0.00438006
3.35505e-05
0.00353907
-0.000269803
-0.00677566
-0.00731714
0.00192837
0.000307807
-0.00582986
0.00394346
0.00580381
0.00199334
0.00438592
0.00257403
-0.000572119
-0.00155711
-0.00402329
6.38459e-05
0.00401698
-0.00262225
0.00240599
0.00624747
-0.000737527
-0.00348172
-0.00434084
-0.00739336
-0.00664416
0.00475588
0.00762012
0.00460355
0.00936107
0.0031174
-0.00380241
0.00250515
0.00629428
0.00402338
-0.00433134
-0.00935945
-0.00724416
-0.0060067
-0.00112862
0.00626509
0.00604177
-0.0026466
-0.0117894
-0.00954933
-0.000118854
0.000662371
-0.000122222
0.00471498
0.0030418
0.00136091
0.00192886
-0.00370839
-0.00749242
-0.00534493
-0.00415051
0.00312753
0.00433596
-0.00276459
0.00497501
0.00607063
-0.00480187
-0.00784177
-0.00434521
-0.00365117
-0.00378473
0.00242216
0.00194935
0.00301825
0.00818159
0.00106429
-0.00139107
0.00600991
0.0064863
0.00447202
-0.00930735
-0.00862729
-0.000396216
-0.00137494
0.00482463
0.0144196
0.0143282
0.00534691
-0.00652945
-0.00493149
0.00372117
-8.59509e-05
-0.00522036
0.000220383
0.00284891
0.0015154
0.00338128
0.00113486
-0.00145207
0.00172931
0.00636964
0.0143634
0.00982703
-8.5891e-05
0.00656853
0.00424719
-0.00472888
-0.00424168
0.000421953
-0.00115342
-0.00686843
-0.000959741
0.00322413
0.008686
0.0121585
0.000843372
-0.0021083
0.00389462
0.00726767
0.000743163
-0.0126319
-0.0055094
0.00553526
0.00184305
0.00793926
0.0168856
0.0163235
0.00503761
-0.0103966
-0.0110819
-0.00120489
-0.000522302
0.000955572
0.00488992
-0.000225538
-0.00114201
0.005756
6.55091e-05
-0.00726951
0.00107335
0.0106771
0.0148179
0.00426278
-0.00454869
0.00369101
0.00186605
-0.00409653
-0.00358406
0.00140623
-0.00165694
-0.00913614
-0.0014767
0.00176836
0.00671484
0.0102141
-0.000978982
0.00178041
0.0109811
0.0108283
0.00605332
-0.00477554
0.00391841
0.00894932
-0.00332321
0.000216808
0.00635377
0.00612046
-0.00205426
-0.0133887
-0.0070273
-0.00119245
-0.00745943
-0.00620456
-0.000163014
-0.000405084
0.00232281
0.00994096
0.00329652
-0.00406862
0.00618848
0.0128094
0.0101172
-0.00166537
-0.00410497
0.00688732
0.00430241
-0.00353786
-0.00648305
0.00161858
0.00300111
-0.00405839
0.00255639
0.00559765
0.0113284
0.0137527
0.00130252
0.000944659
0.00416926
0.00765806
0.0141684
-0.0024611
0.00767442
0.0111493
-0.00335286
0.000605256
0.00805342
0.0126975
0.00366921
-0.0123409
-0.00986769
-0.00774777
-0.00852425
-0.00329738
0.00479974
0.00285932
0.00388987
0.0135809
0.00756494
-0.00432732
0.00561218
0.0162469
0.0110536
-0.00118598
-0.000677591
0.0053942
-0.000465131
-0.00784787
-0.00946142
0.00222898
0.00136711
-0.00782539
0.00148232
0.00359882
0.0103479
0.0111204
-0.00336021
-0.00192636
0.00296937
0.0140676
0.00924819
-0.0094992
0.0027687
0.00741856
-0.00342721
-0.000429501
0.00558306
0.0114334
0.00195533
-0.0118037
-0.0074132
-0.00649608
-0.00852673
-0.00550123
0.00271278
-0.00222142
4.58865e-05
0.0120657
0.0082492
-0.00289141
0.00669476
0.0150171
0.00366786
-0.00803204
-0.00166242
0.0071917
0.000489859
-0.00942004
-0.00946878
0.00535485
0.00170668
-0.00799273
0.00103146
0.000730768
0.00960685
0.0107635
-0.00487539
-0.00186302
0.0030904
0.0142194
0.0106947
-0.00763553
0.00380541
0.00801876
-0.00310097
-0.00274456
0.00117825
0.00878283
0.00201387
-0.00696318
-0.00288253
-0.00505473
-0.00850226
-0.00140012
0.00438725
-0.00562918
-0.00146695
0.0170247
0.0105505
-0.00645009
0.00344402
0.0122065
-0.000197116
-0.00776994
0.00167259
0.0097154
-0.00181341
-0.0152896
-0.0124255
0.00717128
0.0036137
-0.00682132
-0.00737939
-0.0102581
0.0044094
0.00614841
-0.00727669
-0.00221099
0.000223922
0.0122118
0.0152527
-0.00791638
0.000233867
0.00902706
0.000569328
-0.00438961
-0.00308894
0.00779235
0.00345068
-0.00489587
-0.00340707
-0.00553431
-0.00488759
0.00531
0.0057856
-0.00640261
-0.00390716
0.0142157
0.00592979
-0.00892357
0.00520914
0.0124145
-0.00241342
-0.00717228
0.00465
0.0107546
-0.00334257
-0.0193737
-0.0154248
0.0068869
0.0040563
-0.0028794
-0.00493717
-0.0104886
0.00111235
0.00195
-0.00825788
-0.00261009
-0.00109711
0.0147458
0.00974303
-0.0139459
-0.00252844
0.0101594
0.000268347
-0.00625364
-0.00314948
0.00958093
0.00190206
-0.00752244
-8.7105e-05
0.000263276
0.00046654
0.00849203
0.0046595
-0.00986525
-0.0086586
0.010892
0.00267452
-0.0103122
0.00557757
0.0106225
-0.00674317
-0.00952336
0.00646792
0.0122152
-0.00537249
-0.0235212
-0.013315
0.0091124
0.0037519
-0.0026725
-0.00492902
-0.00611322
0.00534569
0.0037521
-0.00805492
-0.00410823
-0.00359851
0.0114089
0.00638741
-0.0188836
-0.00635962
0.0100989
0.000751685
-0.00953022
-0.00567907
0.00735376
-0.000268297
-0.00919136
0.00238826
0.00454321
0.00177692
0.00766518
0.00528062
-0.00900315
-0.0107926
0.00836258
0.000137877
-0.0104304
0.00417427
0.00685836
-0.0101462
-0.00930642
0.0097408
0.0144001
-0.00860253
-0.0264798
-0.01134
0.00835364
0.00421098
-0.00212529
-0.00809559
-0.00617702
0.00884972
0.00508483
-0.00793267
-0.00520698
-0.00523125
0.00960442
0.00728761
-0.0143743
-0.00320312
0.0136484
0.00505511
-0.011067
-0.00781195
0.00459893
-0.000166723
-0.00916919
0.00534981
0.00608436
0.000330781
0.00816564
0.00851143
-0.00968723
-0.0148042
0.00752772
-0.000194625
-0.0112259
0.00386013
0.00587355
-0.0104416
-0.00620815
0.013421
0.0156698
-0.0119846
-0.0279047
-0.00994755
0.00715181
0.00450497
-0.00433315
-0.0114257
-0.00514893
0.0134932
0.006236
-0.00745561
-0.0050594
-0.0054913
0.0085511
0.00811925
-0.013587
-0.00234017
0.0151627
0.00473363
-0.0146558
-0.0108863
0.00301872
0.000538855
-0.00782492
0.0051078
0.00217347
-0.00126039
0.00967058
0.0104379
-0.0118043
-0.0205396
0.0046042
-0.0004207
-0.0117115
0.00460414
0.00252998
-0.0136828
-0.00398811
0.0177563
0.0171332
-0.0155062
-0.0301543
-0.0108747
0.00656497
0.00743551
-0.00590233
-0.0156603
-0.00593152
0.0153942
0.00640566
-0.00716312
-0.00435261
-0.00709984
0.00631013
0.0099588
-0.0141595
-0.00269747
0.0180673
0.0046911
-0.0174057
-0.00917656
0.00676282
0.000585833
-0.00595425
0.0027996
0.00100191
0.00153584
0.0134275
0.0136638
-0.0109253
-0.0259357
0.00285865
0.00147679
-0.0115702
0.00382601
-0.00135542
-0.0162958
-0.000239254
0.0241697
0.0198562
-0.0188258
-0.0324821
-0.0133456
0.00450824
0.00936304
-0.00913864
-0.0213563
-0.00768572
0.0159308
0.00689532
-0.00656653
-0.00390984
-0.00872236
0.00530171
0.0103182
-0.0143242
-0.00413065
0.0195929
0.00485458
-0.0194233
-0.00788566
0.00932638
0.000285677
-0.00442321
0.00163625
0.000950476
0.00336977
0.0167744
0.0158397
-0.0112968
-0.0306839
-0.000137193
0.00105064
-0.0120246
0.00193367
-0.00685718
-0.019025
0.00323472
0.0297442
0.0230843
-0.0216476
-0.0367059
-0.0165688
0.00257664
0.00990599
-0.0111749
-0.0243099
-0.00863671
0.0166979
0.00701633
-0.0073551
-0.00381415
-0.00937312
0.00385042
0.00939456
-0.0152288
-0.00599615
0.0189198
0.00357853
-0.0223406
-0.00874181
0.0100555
0.000906548
-0.00342362
0.000726141
-0.00025848
0.00326323
0.019097
0.0183957
-0.0138216
-0.034755
-0.0047399
-0.00157651
-0.0139502
-0.000462406
-0.0116588
-0.0193605
0.00376997
0.0310006
0.02705
-0.024142
-0.0422793
-0.0229807
0.00295399
0.0133938
-0.0117166
-0.0257908
-0.00766968
0.0186297
0.00713372
-0.0107383
-0.0048981
-0.00944039
0.00264007
0.00958018
-0.0154377
-0.00789187
0.0178444
0.00223921
-0.0253054
-0.00994473
0.00857876
0.00136626
-0.00144868
0.00329132
-0.000242213
0.00371976
0.0223956
0.0222313
-0.0142757
-0.033061
-0.00482348
-0.00121579
-0.014015
-0.000957875
-0.0128131
-0.0188107
0.00212601
0.0328003
0.0303116
-0.0275881
-0.0461914
-0.0280111
0.00216201
0.0167255
-0.0107008
-0.0272867
-0.00752804
0.0203368
0.00659228
-0.0142769
-0.00599236
-0.00995865
0.00137084
0.0110779
-0.0172804
-0.0120814
0.0158913
0.000355822
-0.0263883
-0.01014
0.00500662
0.000689472
-4.99307e-05
0.00523762
-1.47275e-06
0.00397018
0.023888
0.0225122
-0.0158208
-0.0298599
-0.00129818
0.0014019
-0.0141012
-0.000810422
-0.0122804
-0.0197128
0.00198367
0.0378966
0.0314651
-0.0328097
-0.0486303
-0.0298391
-0.00217462
0.0176324
-0.0109631
-0.0303199
-0.0101374
0.0179397
0.00431571
-0.0155948
-0.00794201
-0.0129785
-0.00019774
0.0111425
-0.0203403
-0.0163228
0.0135479
-0.00137811
-0.0246134
-0.00946608
0.00119942
-0.00134477
-0.000485082
0.00503696
0.000665912
0.00102034
0.0232573
0.0220347
-0.018865
-0.0301466
0.00118909
0.00163238
-0.016098
0.000590075
-0.0105383
-0.0216949
0.00264193
0.040565
0.029696
-0.0358608
-0.0508855
-0.0328569
-0.0048999
0.0185139
-0.012555
-0.0357444
-0.0142214
0.0163229
0.00160669
-0.0138979
-0.0071649
-0.0154759
-0.00165933
0.00988651
-0.0215365
-0.0185561
0.0120255
-0.00257301
-0.0230086
-0.00990378
-0.00146906
-0.00361668
-0.00197282
0.00614791
-0.000209474
-0.00275129
0.0221812
0.0211273
-0.0215741
-0.0318945
0.0020952
-0.00126668
-0.0176791
0.000564307
-0.012244
-0.0231606
0.00443694
0.0413081
0.026333
-0.0354711
-0.0514526
-0.0346763
-0.00447857
0.019072
-0.0121475
-0.0373565
-0.0119767
0.017448
-0.00198767
-0.0132507
-0.00522447
-0.0173408
-0.00444572
0.00996295
-0.0212202
-0.0194083
0.0115812
-0.00307736
-0.0220785
-0.0104319
-0.00316913
-0.00474756
-0.00180913
0.00755246
-0.0031604
-0.00451226
0.0214183
0.0195983
-0.0225879
-0.0320632
0.00197367
-0.00418324
-0.0176883
-0.00199161
-0.0161055
-0.0232125
0.00611656
0.0435704
0.0246559
-0.0355408
-0.0502201
-0.0332471
-0.00292442
0.0206619
-0.0106101
-0.0366315
-0.00794496
0.0167069
-0.0048086
-0.0147713
-0.00510379
-0.0186841
-0.00668329
0.0107194
-0.0215403
-0.0202716
0.0104213
-0.00377961
-0.0211876
-0.0110195
-0.00485384
-0.00510859
-0.000979276
0.0058087
-0.00548822
-0.00612894
0.020221
0.0180545
-0.0232135
-0.0316596
0.00150231
-0.00504163
-0.0182316
-0.00451792
-0.017948
-0.0233014
0.00566643
0.043749
0.0237752
-0.0366145
-0.0502252
-0.0331542
-0.001605
0.0217901
-0.0101342
-0.0372153
-0.00992989
0.0149683
-0.00574389
-0.015894
-0.00600878
-0.0197284
-0.00756416
0.011409
-0.0212801
-0.0203916
0.00963504
-0.00320244
-0.0195378
-0.0112402
-0.00576255
-0.00443467
-0.000218127
0.00456017
-0.00587242
-0.00661705
0.01969
0.0174166
-0.0233884
-0.0307739
0.00278437
-0.00402801
-0.0185242
-0.00507958
-0.017423
-0.0218125
0.00637683
0.0416527
0.0238319
-0.0362776
-0.0496837
-0.0337351
-0.00110117
0.0217484
-0.010137
-0.0371593
-0.0114441
0.0151922
-0.00513878
-0.015728
-0.00578273
-0.0194514
-0.00728903
0.0110892
-0.0216463
-0.0212547
0.00865777
-0.00276651
-0.0193861
-0.0121959
-0.00672293
-0.00497123
-0.000957377
0.00403791
-0.00731411
-0.00784773
0.0182057
0.0159941
-0.0244376
-0.0307858
0.00339797
-0.00418697
-0.0193087
-0.00571535
-0.0177204
-0.0225927
0.00635065
0.0406279
0.0235688
-0.0362433
-0.0498076
-0.0349362
-0.00201293
0.0208136
-0.0107152
-0.037195
-0.0118651
0.0146778
-0.00542965
-0.0161614
-0.00593182
-0.0196862
-0.00778912
0.0120379
-0.0209346
-0.0206608
0.00952627
-0.00137347
-0.0183605
-0.0117155
-0.00595823
-0.00394587
-0.00019041
0.0044138
-0.00773381
-0.00807953
0.0184242
0.0163459
-0.0240421
-0.0297602
0.0045952
-0.00323976
-0.0183281
-0.00473997
-0.0170952
-0.023084
0.00669133
0.0423999
0.0238988
-0.035271
-0.0488124
-0.034005
-0.00136997
0.0209785
-0.00977839
-0.0357242
-0.0111321
0.0151956
-0.00433295
-0.0152291
-0.00512602
-0.0188591
-0.00713207
0.0113987
-0.0216294
-0.0214572
0.00861437
-0.00240152
-0.0193718
-0.0127681
-0.00721905
-0.0051601
-0.00124434
0.00331684
-0.00913848
-0.00945729
0.0172677
0.0150637
-0.0250755
-0.0305338
0.00390188
-0.003766
-0.0188885
-0.00543218
-0.0178524
-0.0243425
0.00600641
0.0410462
0.0218547
-0.0361814
-0.0490854
-0.034634
-0.00249447
0.019526
-0.0105869
-0.0361949
-0.0120534
0.0141969
-0.00516105
-0.0161361
-0.00607501
-0.0197353
-0.00795652
0.0180726
-0.0150355
-0.0150085
0.0149249
0.00398446
-0.0127595
-0.00611283
-0.000732441
0.00140172
0.00542592
0.0100021
-0.00262365
-0.00277291
0.0239653
0.0215079
-0.0185246
-0.023672
0.0110307
0.00318829
-0.0121141
0.00128878
-0.0108238
-0.0180022
0.0120958
0.0467805
0.0280478
-0.0293136
-0.0422512
-0.0279255
0.00394023
0.0259651
-0.00359777
-0.0290809
-0.00538173
0.0207246
0.00140986
-0.00953589
0.000566278
-0.0129987
-0.00127104
0.00678214
0.00284419
-0.00179368
0.0088241
0.00066936
-0.00384158
0.00776578
0.00573174
0.00612111
0.00593754
0.00429053
0.00553596
0.000724018
0.00486462
0.002532
0.000191835
0.0049939
-0.00170033
0.00150844
0.00633052
-5.76675e-06
0.0027585
0.00753172
0.00336974
0.00509403
0.00771246
0.00316205
0.0071796
0.00356127
-0.00377179
0.00612767
0.00537914
0.00140938
0.00643941
0.00612243
0.0052861
0.00426477
0.00542029
0.00263828
-0.00168917
0.00591028
-0.00126829
-0.000564686
0.00671003
-0.00312568
-0.00403491
0.00401536
0.000604044
0.00192305
0.00375732
0.00225852
0.00510524
0.00414863
0.0058583
0.00401496
0.00188008
0.005146
-0.000108463
0.00272187
0.00860502
0.0027971
0.00313625
0.00758874
0.00394179
0.00127498
0.00187858
-0.000381886
0.00213987