/*--------------------------------*- C++ -*----------------------------------*\
  =========                 |
  \\      /  F ield         | OpenFOAM: The Open Source CFD Toolbox
   \\    /   O peration     | Website:  https://openfoam.org
    \\  /    A nd           | Version:  10
     \\/     M anipulation  |
\*---------------------------------------------------------------------------*/
FoamFile
{
    format      ascii;
    class       volScalarField;
    location    "14";
    object      pPrime2Mean;
}
// * * * * * * * * * * * * * * * * * * * * * * * * * * * * * * * * * * * * * //

dimensions      [0 4 -4 0 0 0 0];

internalField   nonuniform List<scalar> 
25600
(
1.49374e-06
9.28146e-07
2.66668e-06
1.5476e-05
3.10752e-06
1.83303e-06
6.62587e-06
2.31841e-06
3.64058e-06
3.33873e-06
1.4698e-06
3.85588e-06
2.36877e-06
6.11871e-07
1.09375e-06
5.48074e-07
6.09767e-06
6.43415e-07
7.97929e-07
4.94011e-06
6.6778e-07
1.10338e-06
8.10152e-06
1.37812e-06
1.74501e-06
6.16579e-06
7.04514e-07
1.24707e-06
1.11712e-06
9.54371e-06
1.93404e-06
6.5098e-06
6.91418e-07
3.03792e-06
4.63362e-06
2.6058e-06
2.60114e-06
3.91266e-06
2.2139e-06
2.16327e-06
2.10367e-06
5.75241e-07
9.40187e-07
1.14172e-05
6.80458e-07
2.2215e-06
4.27618e-06
6.65784e-07
5.85973e-07
5.64546e-07
1.71694e-06
5.94638e-07
9.43487e-07
2.03374e-06
1.93313e-06
7.01992e-07
1.5501e-06
2.80164e-06
6.44411e-07
9.47169e-06
1.54468e-06
1.90348e-06
7.9269e-06
9.81037e-07
1.03346e-06
2.58635e-06
5.87649e-07
7.78667e-07
9.51942e-07
6.15996e-06
5.63131e-06
8.62784e-06
1.0933e-06
1.76299e-05
3.93112e-06
5.12394e-07
2.85385e-06
4.67129e-07
2.76517e-06
2.23933e-06
1.71489e-05
3.12824e-06
2.39386e-06
4.95166e-06
9.26942e-07
1.94912e-06
1.31816e-05
8.23248e-06
6.39237e-06
6.50263e-06
1.1254e-06
1.52758e-06
1.57092e-06
5.6594e-07
5.64999e-07
1.34628e-06
4.57466e-06
1.10045e-06
3.90571e-06
1.01761e-05
2.31066e-06
2.6291e-06
9.12017e-06
4.77427e-06
9.45086e-07
7.21684e-06
3.58071e-06
7.6243e-07
1.7652e-06
8.04226e-06
6.58984e-07
1.05205e-06
7.7205e-07
2.23857e-05
2.32772e-06
9.28514e-07
9.42035e-06
6.76548e-07
4.70128e-06
3.61615e-06
1.2024e-05
9.0477e-07
7.09217e-07
1.60219e-06
4.85158e-06
2.13892e-06
1.63517e-06
5.52624e-06
1.1128e-05
1.38476e-05
4.29184e-06
7.47156e-06
6.17049e-06
2.46112e-06
1.06029e-06
1.42856e-06
1.34508e-06
3.35482e-06
9.31644e-06
1.18269e-05
4.19268e-06
8.33711e-07
8.34396e-07
8.42736e-07
2.4353e-06
2.98927e-06
5.87988e-06
9.1451e-07
1.44608e-06
1.8219e-06
1.42856e-06
1.07008e-06
4.43433e-06
1.65041e-05
1.0536e-06
8.42914e-07
7.81567e-06
8.37051e-07
5.58961e-07
1.37332e-05
1.04306e-05
9.90489e-07
4.34298e-06
7.56142e-06
6.68432e-06
3.65324e-06
8.88411e-07
1.01528e-05
2.15119e-05
9.28753e-06
2.26365e-06
7.83977e-07
8.48275e-07
7.55387e-06
9.6915e-07
7.46911e-06
5.03494e-06
1.00707e-05
7.67081e-06
3.16461e-06
1.1423e-06
1.02306e-06
1.30984e-06
4.86277e-06
1.23254e-06
6.57107e-06
5.2491e-06
4.3113e-06
5.94119e-06
2.7651e-06
2.04003e-06
4.52991e-06
1.05922e-06
5.0973e-06
1.14301e-06
2.09743e-06
2.42314e-06
3.99002e-06
7.29657e-07
1.38293e-05
3.50336e-06
5.34765e-06
1.08347e-05
9.52789e-06
5.86972e-06
2.03496e-06
4.53618e-06
2.37099e-05
1.85351e-05
2.30458e-06
1.40378e-06
3.59674e-06
2.2462e-06
3.12566e-06
2.26173e-06
5.23533e-06
3.40153e-06
1.1366e-05
7.18276e-06
1.40514e-06
1.74029e-06
4.77397e-06
1.54552e-06
1.40972e-06
4.79741e-06
1.18901e-06
6.38186e-06
1.60287e-06
1.72877e-06
1.76035e-06
2.2911e-06
2.8719e-06
2.71043e-06
3.80437e-06
1.17317e-06
4.26801e-06
1.32161e-06
3.46664e-06
1.87498e-06
1.51346e-05
4.6756e-06
5.5354e-06
1.48621e-05
8.30389e-06
3.89575e-06
2.58677e-06
2.65355e-06
9.74039e-06
3.15367e-06
7.50478e-06
9.29908e-06
1.84084e-06
1.75808e-06
1.27847e-06
3.28211e-06
2.73546e-06
2.48102e-06
6.40163e-06
1.53348e-06
6.85767e-06
8.27486e-06
4.6086e-06
2.16965e-06
1.58465e-06
1.09162e-05
1.95606e-06
6.95269e-06
4.66256e-06
1.04177e-05
1.81321e-06
1.29218e-06
1.38332e-06
1.38974e-06
1.32974e-06
1.28194e-06
3.54064e-06
1.38083e-06
1.75658e-06
1.97595e-05
3.03319e-05
5.2063e-06
2.49356e-06
7.95681e-06
3.96579e-06
3.70213e-06
2.07528e-06
6.14187e-06
2.03439e-05
9.11459e-06
3.85105e-06
1.64009e-06
1.12762e-05
4.5354e-06
1.49351e-06
3.14732e-06
4.10039e-06
3.61762e-06
5.81863e-06
1.9104e-06
3.45351e-06
1.84301e-06
5.51364e-06
1.87612e-05
5.5093e-06
1.91237e-06
6.63788e-06
4.29633e-06
3.59863e-06
2.08028e-06
3.57117e-06
1.77799e-06
8.29693e-06
5.34274e-06
1.50396e-06
3.81616e-06
1.24425e-05
7.36058e-06
1.09357e-05
3.75272e-05
2.41685e-05
1.15792e-05
7.86464e-06
1.76071e-05
3.07253e-06
2.68191e-06
3.30162e-06
8.72997e-06
2.26331e-05
1.21719e-05
4.35492e-06
3.044e-06
3.79082e-06
2.33027e-06
3.62327e-06
2.64506e-06
2.20666e-06
4.41639e-06
1.98154e-05
6.58104e-06
6.98708e-06
4.83777e-06
4.46349e-06
2.07967e-05
9.52273e-06
3.36729e-06
1.45118e-05
4.16042e-06
4.64569e-06
3.17539e-06
3.4988e-06
1.31738e-06
1.03858e-05
3.88643e-06
1.85132e-06
6.04178e-06
1.14441e-05
1.68508e-06
1.59885e-06
2.79838e-05
4.95949e-05
4.3474e-06
5.37609e-06
1.7323e-06
1.39942e-05
3.12233e-06
2.53814e-06
2.12938e-06
8.78751e-06
7.56293e-06
2.33866e-06
1.96702e-06
6.0421e-06
2.21887e-06
4.48835e-06
2.44936e-06
3.25019e-06
8.10853e-06
2.55742e-05
4.50262e-06
1.28715e-05
3.62893e-06
1.5965e-05
1.60388e-05
5.24688e-06
4.83618e-06
1.33925e-05
2.64034e-06
1.60241e-05
1.76988e-05
2.31268e-06
2.73958e-06
4.91198e-06
2.36951e-06
6.06382e-06
1.54651e-05
2.46116e-05
4.13142e-06
2.53303e-06
4.61573e-06
7.98509e-06
1.63406e-05
4.22503e-06
5.3046e-06
2.19347e-05
3.86729e-06
3.90718e-06
2.53373e-06
1.84008e-05
1.96309e-05
2.33506e-06
5.66329e-06
1.1352e-05
5.7745e-06
3.29628e-06
4.9788e-06
2.9993e-06
8.93017e-06
5.41987e-05
1.12392e-05
1.50561e-05
3.39728e-06
2.01347e-05
1.76868e-05
6.38719e-06
5.57535e-06
7.95679e-06
5.37505e-06
1.51695e-05
1.35663e-05
7.80968e-06
9.21632e-06
7.33134e-06
3.86477e-06
3.25375e-06
1.05627e-05
2.69175e-05
8.75046e-06
6.47065e-06
5.08113e-06
1.45367e-05
1.09369e-05
4.70422e-06
1.03284e-05
3.55879e-05
6.92378e-06
3.8272e-06
3.11142e-06
1.29585e-05
1.06253e-05
3.00485e-06
6.93489e-06
9.52333e-06
3.73266e-06
3.76701e-06
4.94579e-06
4.48387e-06
5.49326e-06
5.37059e-05
1.56018e-05
7.67561e-06
9.75734e-06
2.89181e-05
1.68218e-05
5.71388e-06
6.81293e-06
9.90926e-06
4.18157e-06
7.93603e-06
3.79444e-06
1.80712e-05
5.26748e-06
1.65507e-05
7.19009e-06
3.48912e-06
2.15394e-05
4.42835e-05
8.80602e-06
3.58293e-06
3.25293e-06
1.43797e-05
9.79514e-06
5.18488e-06
2.03007e-05
4.1346e-05
5.43913e-06
5.05263e-06
3.54829e-06
1.04885e-05
6.93925e-06
5.67806e-06
1.59032e-05
8.29411e-06
3.99201e-06
1.13804e-05
8.4084e-06
6.33891e-06
5.27391e-06
5.93762e-05
1.57229e-05
9.86079e-06
8.47359e-06
1.59162e-05
8.93087e-06
6.22735e-06
1.26268e-05
7.76748e-06
1.38742e-05
1.77971e-05
4.53344e-06
1.2274e-05
3.50854e-06
1.38714e-05
9.98756e-06
5.4148e-06
2.68344e-05
4.8498e-05
8.8108e-06
4.13319e-06
3.70103e-06
9.10536e-06
1.39441e-05
5.0908e-06
2.39735e-05
4.96246e-05
8.39869e-06
6.28787e-06
5.12504e-06
1.32075e-05
9.73025e-06
8.69408e-06
1.48698e-05
5.09084e-06
9.62721e-06
2.79312e-05
1.04536e-05
8.9135e-06
7.49262e-06
6.51783e-05
1.58094e-05
9.09002e-06
9.10616e-06
2.1161e-05
1.11768e-05
8.50197e-06
1.33905e-05
4.84557e-06
2.6205e-05
2.15106e-05
3.0178e-06
1.80896e-05
6.33282e-06
7.49535e-06
8.596e-06
4.83393e-06
3.60009e-05
5.19048e-05
8.65878e-06
5.10725e-06
4.28078e-06
1.20875e-05
1.49495e-05
5.56612e-06
2.14177e-05
5.10069e-05
9.72007e-06
9.97515e-06
7.07192e-06
2.238e-05
8.33615e-06
4.64506e-06
6.36693e-06
3.81042e-06
7.07698e-06
1.54939e-05
5.44492e-06
1.77159e-05
5.93115e-06
5.66112e-05
1.32466e-05
8.30024e-06
1.26028e-05
2.34537e-05
1.02655e-05
8.43247e-06
1.17219e-05
5.05757e-06
2.60337e-05
1.81364e-05
6.78664e-06
4.57574e-05
1.86411e-05
4.39847e-06
4.49695e-06
4.35741e-06
6.76434e-05
5.13081e-05
6.43042e-06
6.31192e-06
4.45365e-06
1.19152e-05
1.93925e-05
8.38873e-06
1.69913e-05
4.40791e-05
8.6189e-06
8.46853e-06
6.19885e-06
2.38594e-05
9.42734e-06
4.81889e-06
4.46073e-06
4.51087e-06
3.95164e-06
7.87311e-06
5.93408e-06
1.93258e-05
5.56048e-06
5.20961e-05
1.68698e-05
6.77806e-06
2.14027e-05
2.52905e-05
9.28207e-06
9.76601e-06
1.81728e-05
6.59677e-06
2.30433e-05
1.43872e-05
2.08058e-05
6.77283e-05
3.30926e-05
4.32557e-06
6.28865e-06
4.88756e-06
7.73107e-05
2.94593e-05
4.49498e-06
7.37229e-06
5.35589e-06
1.37002e-05
2.40305e-05
1.00219e-05
2.11842e-05
5.19949e-05
1.51585e-05
7.31615e-06
6.86117e-06
1.93442e-05
1.06636e-05
6.00487e-06
5.07392e-06
5.5999e-06
5.4397e-06
9.83245e-06
8.24265e-06
1.899e-05
8.17877e-06
7.94354e-05
2.70649e-05
6.04239e-06
3.34999e-05
2.91616e-05
8.23801e-06
9.43539e-06
2.82889e-05
1.2159e-05
2.61552e-05
1.39298e-05
3.13941e-05
6.35108e-05
3.97162e-05
1.01871e-05
7.02154e-06
5.07337e-06
6.66918e-05
1.78659e-05
5.85106e-06
1.04995e-05
6.23618e-06
1.56923e-05
2.05424e-05
1.37661e-05
1.19342e-05
3.77193e-05
1.7006e-05
1.04041e-05
1.31171e-05
1.01619e-05
6.68492e-06
5.97489e-06
5.54564e-06
7.28313e-06
4.97561e-06
1.58742e-05
1.05944e-05
2.20035e-05
1.5157e-05
0.00011284
3.35514e-05
5.08179e-06
3.70112e-05
2.26512e-05
5.65884e-06
6.76317e-06
4.20583e-05
1.4834e-05
4.84006e-05
1.90174e-05
3.52792e-05
6.62092e-05
5.15175e-05
1.64497e-05
1.18838e-05
6.6868e-06
4.59746e-05
1.57093e-05
7.77057e-06
1.26837e-05
7.11997e-06
1.86179e-05
2.06779e-05
1.45356e-05
7.90831e-06
2.38753e-05
1.47575e-05
2.22034e-05
2.73307e-05
7.28083e-06
5.91007e-06
7.06361e-06
4.76118e-06
7.4688e-06
6.60918e-06
2.83786e-05
1.03674e-05
2.37315e-05
2.18814e-05
0.000136053
3.51413e-05
5.847e-06
4.07381e-05
2.54075e-05
8.89924e-06
8.84893e-06
6.61751e-05
1.51321e-05
8.39016e-05
1.81115e-05
4.27596e-05
8.30947e-05
6.1481e-05
1.13602e-05
2.35605e-05
1.14578e-05
3.36075e-05
1.49566e-05
1.02006e-05
1.65762e-05
9.26535e-06
2.09916e-05
2.68007e-05
1.32249e-05
8.2822e-06
3.07917e-05
2.33743e-05
1.71306e-05
2.81556e-05
6.64219e-06
1.55327e-05
1.0388e-05
5.32708e-06
1.09984e-05
8.97524e-06
4.82497e-05
1.02031e-05
2.70557e-05
2.37825e-05
0.000123781
2.88016e-05
6.68623e-06
3.39952e-05
2.63109e-05
2.04388e-05
1.06323e-05
9.37815e-05
1.33593e-05
0.000137015
1.76065e-05
5.10884e-05
0.000107482
6.52139e-05
1.05792e-05
2.12307e-05
1.36522e-05
3.2216e-05
1.2193e-05
9.51538e-06
2.25134e-05
1.06349e-05
1.84879e-05
4.0831e-05
1.22343e-05
7.52924e-06
4.88759e-05
3.74311e-05
1.01098e-05
1.88023e-05
6.05455e-06
2.22173e-05
8.10572e-06
7.00716e-06
2.13857e-05
9.67877e-06
4.8754e-05
1.12559e-05
2.94136e-05
2.46902e-05
9.87853e-05
2.1694e-05
8.866e-06
2.22556e-05
1.77351e-05
2.52156e-05
8.32197e-06
0.000115536
8.71844e-06
0.000196199
1.72314e-05
7.22801e-05
0.000135033
7.4996e-05
1.57189e-05
1.12214e-05
1.20811e-05
4.5254e-05
1.73825e-05
9.99535e-06
2.57125e-05
1.09368e-05
1.52965e-05
6.03986e-05
1.45885e-05
7.09064e-06
5.58539e-05
4.4777e-05
1.19213e-05
1.4915e-05
6.1008e-06
2.44112e-05
6.09399e-06
8.59201e-06
4.73406e-05
7.81834e-06
4.31429e-05
1.1032e-05
3.13764e-05
2.43022e-05
9.23142e-05
1.62763e-05
1.21301e-05
1.97344e-05
1.8827e-05
2.20635e-05
9.69565e-06
0.000115857
7.65935e-06
0.000255839
2.23045e-05
8.73025e-05
0.000126235
7.16921e-05
2.7924e-05
1.07273e-05
1.19858e-05
4.60156e-05
1.71888e-05
1.04795e-05
2.27606e-05
1.03039e-05
1.51105e-05
8.67329e-05
1.80539e-05
7.26056e-06
6.90241e-05
4.98709e-05
1.43424e-05
1.40843e-05
5.72833e-06
2.38681e-05
6.81211e-06
7.59346e-06
8.44849e-05
9.76438e-06
5.89078e-05
1.24192e-05
3.02372e-05
2.96071e-05
0.000110655
1.82328e-05
1.32075e-05
2.41864e-05
2.20318e-05
2.58358e-05
1.30264e-05
0.000137248
8.69751e-06
0.000315258
2.86523e-05
9.76489e-05
0.000103551
6.88168e-05
5.15663e-05
1.09902e-05
1.18277e-05
3.64986e-05
1.35371e-05
1.14572e-05
2.57527e-05
1.09963e-05
2.15121e-05
9.29579e-05
1.88714e-05
8.10884e-06
9.70836e-05
5.0987e-05
1.59572e-05
1.38524e-05
5.75405e-06
2.91966e-05
7.19894e-06
8.9385e-06
0.000128194
1.22116e-05
7.43625e-05
1.54509e-05
3.13048e-05
3.38204e-05
0.000121564
2.16445e-05
1.60883e-05
2.4648e-05
1.76874e-05
3.24466e-05
1.37386e-05
0.000169997
1.1015e-05
0.000362341
3.24762e-05
7.79851e-05
7.9994e-05
9.03654e-05
6.21425e-05
1.32378e-05
1.41206e-05
3.41622e-05
1.2639e-05
1.26732e-05
2.69358e-05
1.24745e-05
2.85022e-05
8.3452e-05
1.49123e-05
8.63342e-06
0.000120976
4.99124e-05
1.58018e-05
1.47126e-05
8.09723e-06
3.54447e-05
8.03949e-06
1.41641e-05
0.000136437
1.19608e-05
7.9247e-05
1.62336e-05
3.369e-05
3.61736e-05
0.000135212
2.46548e-05
1.86279e-05
2.22801e-05
1.59714e-05
3.23348e-05
1.21542e-05
0.0001991
1.36978e-05
0.000392395
3.2359e-05
6.47055e-05
8.47775e-05
0.000141917
6.27474e-05
1.53976e-05
1.39102e-05
3.73795e-05
1.31792e-05
1.29112e-05
2.50476e-05
1.23545e-05
3.01061e-05
7.79073e-05
1.56816e-05
9.98599e-06
0.000120544
4.43353e-05
2.06137e-05
1.8898e-05
1.64444e-05
5.38207e-05
1.55638e-05
2.18366e-05
0.000121326
1.43875e-05
6.78025e-05
2.12425e-05
4.74664e-05
2.64797e-05
0.000136035
2.17609e-05
2.44399e-05
1.65859e-05
1.56895e-05
4.23977e-05
1.05646e-05
0.000185959
1.79171e-05
0.000455146
4.77993e-05
6.71749e-05
8.82462e-05
0.00016306
6.03131e-05
1.88913e-05
1.64894e-05
3.25354e-05
1.27299e-05
1.07571e-05
2.01985e-05
1.36061e-05
2.24238e-05
9.4299e-05
1.30266e-05
1.1733e-05
0.000134915
5.22097e-05
1.7163e-05
1.44912e-05
1.75227e-05
5.32458e-05
1.30873e-05
1.38764e-05
8.5131e-05
1.55396e-05
7.01451e-05
2.06465e-05
4.58999e-05
2.17486e-05
0.000138416
2.58226e-05
2.52423e-05
1.6523e-05
1.73916e-05
4.17466e-05
1.10935e-05
0.000173249
1.3724e-05
0.000467548
5.45712e-05
9.63637e-05
0.000108566
0.000183551
7.2166e-05
1.57471e-05
1.51737e-05
3.44993e-05
1.29661e-05
1.09573e-05
2.08231e-05
1.04467e-05
2.03307e-05
7.8481e-05
1.46306e-05
8.81407e-06
0.00011639
4.07364e-05
2.15179e-05
1.98134e-05
2.28811e-05
6.65816e-05
1.29926e-05
1.5016e-05
9.87612e-05
1.5289e-05
6.30562e-05
2.3926e-05
5.41222e-05
1.57983e-05
0.000100417
1.78168e-05
3.31256e-05
1.60253e-05
1.37226e-05
5.34289e-05
1.33059e-05
0.000137659
1.47049e-05
0.000507868
7.1908e-05
8.3533e-05
0.000103269
0.000176288
6.14161e-05
2.09721e-05
1.9264e-05
2.94325e-05
1.28677e-05
1.27643e-05
1.35986e-05
1.65204e-05
1.38355e-05
0.000100688
1.15363e-05
1.20765e-05
0.000142965
5.39251e-05
1.46895e-05
1.08373e-05
1.08753e-05
4.48292e-05
7.04245e-06
1.05391e-05
8.48248e-05
1.87639e-05
8.91143e-05
1.77795e-05
4.23044e-05
1.85422e-05
0.00011567
2.39049e-05
2.30385e-05
1.7208e-05
1.53262e-05
3.89952e-05
1.21523e-05
0.000171688
8.16933e-06
0.000439782
5.06904e-05
9.30109e-05
0.000126097
0.000214831
7.64577e-05
1.39735e-05
1.21425e-05
4.03731e-05
1.38995e-05
1.16349e-05
2.12259e-05
1.04394e-05
2.3254e-05
6.30443e-05
1.95788e-05
7.06061e-06
0.000100759
3.19253e-05
2.4371e-05
1.93245e-05
2.30459e-05
7.20748e-05
1.24669e-05
1.73206e-05
0.000129229
1.46544e-05
6.54646e-05
2.43491e-05
6.19319e-05
1.31121e-05
7.83609e-05
1.43994e-05
3.68964e-05
1.6703e-05
1.3103e-05
5.92571e-05
1.22251e-05
0.00012858
1.32369e-05
0.000504885
7.37501e-05
5.90432e-05
8.76073e-05
0.000160299
4.94124e-05
2.45195e-05
2.1879e-05
2.50994e-05
1.16587e-05
1.40419e-05
1.09977e-05
2.14967e-05
1.11409e-05
0.000116371
1.11377e-05
1.81059e-05
0.00016304
7.1675e-05
1.23591e-05
8.60789e-06
5.50943e-06
2.77296e-05
6.67517e-06
9.45923e-06
7.01232e-05
2.38262e-05
0.000108152
1.62183e-05
3.3347e-05
2.31187e-05
0.000134545
3.47762e-05
1.69989e-05
1.93896e-05
1.97102e-05
2.82223e-05
1.40209e-05
0.000193263
8.93245e-06
0.000373375
3.5192e-05
0.000105043
0.000142242
0.000225041
8.87742e-05
1.25161e-05
1.10685e-05
5.52706e-05
1.68366e-05
1.16838e-05
2.79015e-05
7.52564e-06
3.09814e-05
6.85366e-05
1.6712e-05
7.35879e-06
0.000107094
3.66467e-05
2.05777e-05
1.5751e-05
1.65654e-05
5.7169e-05
9.47813e-06
1.49256e-05
0.000115663
1.31497e-05
6.56212e-05
2.10901e-05
5.96483e-05
1.28076e-05
8.25878e-05
1.48145e-05
3.42415e-05
1.51374e-05
1.21587e-05
5.56147e-05
1.16753e-05
0.000131866
1.05368e-05
0.000465452
6.29743e-05
6.37249e-05
8.92575e-05
0.000160059
5.26468e-05
2.11217e-05
1.69533e-05
2.89475e-05
1.04062e-05
1.21435e-05
1.14831e-05
1.83944e-05
1.20895e-05
3.53844e-06
7.26682e-07
2.85513e-06
8.50877e-06
6.09263e-07
5.85729e-06
5.32916e-06
3.80635e-06
7.4555e-06
7.23016e-06
3.57866e-06
5.49701e-06
5.61404e-07
3.24483e-06
2.5e-06
4.93615e-07
4.66453e-06
9.75943e-07
5.55212e-07
4.39166e-06
6.4178e-07
1.42751e-06
8.83862e-06
1.8774e-06
3.261e-06
8.37035e-06
6.9063e-07
4.38514e-06
1.94453e-06
6.06974e-06
3.18968e-06
5.00178e-06
6.30015e-07
3.69889e-06
4.79106e-06
2.84136e-06
2.70968e-06
6.4011e-06
3.57362e-06
9.26227e-07
2.14193e-06
1.15942e-06
1.22198e-06
6.56914e-06
2.01311e-06
4.91243e-06
2.34791e-06
6.1846e-07
8.75156e-07
9.42751e-07
1.00431e-06
6.67933e-07
4.85004e-07
3.80885e-06
3.5237e-06
7.3824e-07
2.9869e-06
1.44962e-06
6.25145e-07
9.57187e-06
2.7215e-06
3.79269e-06
1.01127e-05
1.25631e-06
8.83983e-07
7.63232e-07
9.635e-07
7.74566e-07
6.61754e-07
5.32995e-06
6.95034e-06
5.66428e-06
7.53418e-07
1.78397e-05
5.3412e-06
1.47065e-06
5.22379e-06
1.09378e-06
9.13261e-07
8.03153e-07
5.62589e-06
7.09647e-07
1.39376e-06
2.81899e-06
1.19827e-06
7.939e-07
5.51602e-06
4.22477e-06
5.84087e-06
7.34289e-06
1.69049e-06
3.94441e-06
6.70973e-06
3.65522e-06
3.52502e-06
4.57433e-06
4.81389e-06
7.08394e-07
2.92297e-06
1.25655e-05
6.00601e-06
5.98123e-06
1.23744e-05
6.91335e-06
1.55301e-06
5.30524e-06
3.3011e-06
6.69608e-07
3.4557e-06
7.21316e-06
6.39842e-07
2.85954e-06
2.377e-06
1.43674e-05
1.4664e-06
1.72363e-06
1.70533e-05
1.67053e-06
7.04456e-07
3.3554e-06
3.29429e-06
8.10568e-07
7.65591e-07
1.27835e-06
4.93134e-06
2.79183e-06
8.86631e-07
2.958e-06
4.70346e-06
3.04216e-06
7.84779e-07
2.35929e-06
3.64944e-06
2.98278e-06
7.87301e-07
2.50087e-06
1.31532e-06
1.34568e-06
3.41803e-06
5.17196e-06
2.15801e-06
9.08477e-07
8.069e-07
9.88602e-07
9.40104e-07
3.91492e-06
8.92262e-06
8.05929e-07
2.33065e-06
3.31502e-06
9.55141e-07
1.55821e-06
3.33664e-06
2.18303e-05
1.09694e-06
4.33118e-06
1.31966e-05
1.65144e-06
1.13659e-06
5.95686e-06
2.40934e-06
8.52826e-07
1.46357e-06
3.32163e-06
6.53305e-06
5.21306e-06
1.32413e-06
1.86703e-06
2.43535e-06
1.4912e-06
1.12308e-05
8.1673e-07
4.97409e-06
1.11256e-06
5.97221e-06
1.04724e-05
2.22475e-06
3.28998e-06
3.66298e-06
4.09815e-06
6.09317e-06
4.12646e-06
6.80789e-06
1.68304e-05
7.43475e-06
1.05263e-05
4.80532e-06
6.81075e-06
8.22449e-06
2.28897e-06
2.17319e-06
6.14642e-06
1.05094e-06
5.37935e-06
1.03678e-06
7.41257e-06
9.29758e-06
9.37737e-07
2.06097e-06
7.05852e-06
4.84762e-06
9.71718e-07
1.80055e-06
2.90074e-06
5.66922e-06
2.95231e-06
1.04624e-06
3.51871e-06
1.05057e-06
6.11225e-06
6.97106e-06
1.93208e-06
1.05473e-06
4.56276e-06
3.84031e-06
6.72621e-06
1.93239e-06
4.60215e-06
2.53862e-06
1.19852e-06
1.48601e-06
2.98143e-06
1.28517e-06
4.23541e-06
1.93148e-06
2.62161e-06
8.25028e-06
1.82965e-06
2.96598e-06
3.68095e-06
7.80902e-06
6.28307e-06
5.69817e-06
1.12763e-05
5.28489e-06
1.56863e-05
3.19944e-06
2.18991e-06
2.44682e-06
7.96828e-06
5.9726e-06
2.45137e-06
9.69001e-06
6.08418e-06
4.62405e-06
1.59774e-06
9.84009e-06
9.23742e-06
1.36676e-06
1.57182e-05
9.97329e-06
1.35483e-06
1.85084e-06
1.4906e-06
6.64729e-06
4.22289e-06
2.5601e-06
3.04582e-06
2.23709e-06
7.00641e-06
4.17384e-06
2.98776e-06
4.49637e-06
6.31368e-06
2.19627e-06
7.15121e-06
9.07584e-06
3.27314e-06
7.78503e-06
3.08599e-06
2.35238e-06
2.32039e-06
3.32854e-06
2.85017e-06
3.79723e-06
1.37168e-05
1.89844e-06
1.11232e-06
9.16174e-06
1.05088e-05
9.56903e-06
8.93838e-06
7.40409e-06
3.43965e-06
2.66875e-06
8.77259e-06
3.95501e-05
3.83844e-05
8.66159e-06
3.40473e-06
1.78123e-06
6.05712e-06
1.81759e-06
2.4638e-06
2.50935e-06
5.21897e-06
3.48135e-06
5.87838e-06
2.99933e-06
1.76008e-06
3.70183e-06
1.12696e-05
3.86012e-05
2.09789e-05
2.3843e-06
1.11332e-05
6.52357e-06
3.20847e-06
2.94785e-06
2.58916e-06
1.61256e-06
5.46684e-06
1.51741e-06
4.77735e-06
1.70476e-05
2.97691e-05
3.01705e-06
1.93818e-06
7.50737e-06
1.55236e-05
5.21851e-06
1.48804e-05
3.52295e-06
1.35463e-05
6.8049e-06
2.05452e-05
5.85568e-05
5.43686e-05
1.11189e-05
8.59237e-06
9.78452e-06
1.8586e-06
2.47316e-06
4.04492e-06
1.04893e-05
2.71412e-06
2.2075e-06
1.21439e-05
2.90283e-06
4.66655e-06
4.26612e-06
2.80786e-05
4.71099e-05
1.0312e-05
2.78746e-06
8.59671e-06
5.69851e-06
2.95167e-06
2.78242e-06
4.76583e-06
2.29434e-06
8.60626e-06
2.52462e-06
4.70674e-06
1.42968e-05
2.52357e-05
2.83052e-06
5.54906e-06
3.00333e-05
3.00331e-05
1.56558e-05
3.45533e-06
1.19966e-05
2.69842e-05
4.05797e-06
6.57276e-06
1.75973e-05
1.60251e-05
3.41407e-06
1.63027e-05
4.21724e-06
3.23932e-06
5.02675e-06
3.84979e-06
3.53027e-06
3.11579e-06
6.21504e-06
2.54208e-05
7.64506e-06
2.26647e-06
1.46566e-05
3.90451e-05
2.90138e-05
3.94211e-06
3.3292e-06
1.92334e-05
1.3047e-05
4.1591e-06
4.63587e-06
7.01432e-06
8.76438e-06
2.37859e-06
8.54511e-06
1.522e-05
3.3983e-05
4.4271e-05
5.79252e-06
5.36275e-06
1.06526e-05
1.95831e-05
5.36263e-05
4.57815e-06
2.61121e-05
4.10805e-05
4.90189e-06
8.14375e-06
2.37426e-05
4.07331e-05
1.08519e-05
1.23518e-05
7.37031e-06
4.46968e-06
5.5533e-06
3.0208e-06
1.31373e-05
7.9699e-06
1.01102e-05
4.36625e-05
2.05937e-05
3.43994e-06
1.67434e-05
6.15234e-05
3.71259e-05
6.35454e-06
6.87126e-06
1.79979e-05
6.77571e-06
5.75132e-06
7.45416e-06
9.30374e-06
7.26702e-06
4.90144e-06
8.43709e-06
1.23956e-05
3.38793e-05
3.75442e-05
4.50674e-06
4.52844e-06
1.06421e-05
5.15474e-05
3.54743e-05
6.47452e-06
1.24711e-05
2.65257e-05
5.24154e-06
6.98609e-06
1.5306e-05
3.48665e-05
7.43792e-06
1.05219e-05
4.08647e-06
3.48345e-06
4.60628e-06
2.85531e-06
1.05312e-05
3.74312e-06
5.8058e-06
4.19893e-05
2.6482e-05
4.08018e-06
2.35741e-05
6.06474e-05
1.49534e-05
5.25498e-06
6.21742e-06
2.58952e-05
8.95562e-06
7.35651e-06
7.02829e-06
2.01748e-05
9.66734e-06
4.83282e-06
9.09171e-06
8.89721e-06
3.65682e-05
4.39039e-05
5.61101e-06
6.50036e-06
1.43389e-05
5.89589e-05
4.37839e-05
4.69003e-06
1.63108e-05
3.02065e-05
5.39377e-06
5.14973e-06
8.51144e-06
3.0072e-05
9.96229e-06
2.74579e-06
4.03473e-06
3.91067e-06
4.58534e-06
6.24664e-06
1.76176e-05
3.10395e-06
5.27635e-06
7.68331e-05
4.27239e-05
4.2429e-06
1.74507e-05
5.15686e-05
8.93739e-06
4.47498e-06
1.15795e-05
3.75883e-05
7.09946e-06
1.79398e-05
9.5629e-06
2.74892e-05
1.58146e-05
4.01471e-06
4.81915e-06
6.68615e-06
2.37718e-05
3.19673e-05
6.54801e-06
7.10965e-06
9.51188e-06
5.09191e-05
7.31062e-05
5.15199e-06
1.07297e-05
3.75204e-05
1.16008e-05
4.55366e-06
4.30578e-06
3.03732e-05
1.60512e-05
3.93541e-06
6.67017e-06
5.41338e-06
4.73635e-06
2.45046e-05
2.49179e-05
3.62602e-06
4.83665e-06
6.41054e-05
2.49089e-05
5.81458e-06
2.25994e-05
5.21343e-05
6.46997e-06
5.06038e-06
1.77964e-05
4.06758e-05
5.34425e-06
2.99958e-05
1.53839e-05
2.83287e-05
1.8355e-05
5.89112e-06
5.0726e-06
5.93764e-06
1.5157e-05
1.76479e-05
5.73174e-06
7.60673e-06
8.96069e-06
6.86938e-05
5.03615e-05
9.79694e-06
9.7879e-06
5.05032e-05
1.42083e-05
4.80824e-06
6.80508e-06
4.46176e-05
1.62977e-05
4.47497e-06
1.46121e-05
1.72118e-05
1.57649e-05
4.25159e-05
2.43256e-05
5.71124e-06
4.87838e-06
5.25357e-05
1.84261e-05
7.05813e-06
2.55229e-05
4.44693e-05
5.28591e-06
7.46686e-06
2.36313e-05
4.73366e-05
5.54438e-06
4.48536e-05
9.36229e-06
4.2659e-05
2.11254e-05
7.61014e-06
5.6039e-06
4.63079e-06
2.68548e-05
2.12399e-05
4.72902e-06
5.72829e-06
7.27907e-06
5.74901e-05
3.63358e-05
2.06306e-05
6.36359e-06
5.28775e-05
1.57461e-05
5.48166e-06
6.28475e-06
3.98332e-05
1.43869e-05
5.41864e-06
2.36836e-05
3.01748e-05
2.03619e-05
4.15495e-05
2.83957e-05
4.78206e-06
5.95609e-06
4.10071e-05
1.50761e-05
6.6885e-06
2.49193e-05
3.28202e-05
7.39556e-06
6.88794e-06
3.88226e-05
6.38986e-05
6.48489e-06
5.79979e-05
7.2635e-06
4.05027e-05
2.3407e-05
8.78412e-06
4.45996e-06
4.70878e-06
4.29472e-05
2.57037e-05
3.99601e-06
4.02913e-06
5.12212e-06
4.96164e-05
4.40443e-05
9.9994e-06
1.01619e-05
7.47306e-05
3.17166e-05
7.42938e-06
6.8657e-06
3.33362e-05
1.66364e-05
5.32498e-06
3.71565e-05
3.64801e-05
1.76057e-05
4.79004e-05
4.58262e-05
6.03412e-06
1.1464e-05
4.09781e-05
1.56805e-05
6.65876e-06
2.72109e-05
3.30972e-05
6.84319e-06
5.78107e-06
6.60373e-05
8.20279e-05
7.95321e-06
5.92706e-05
4.95543e-06
4.06877e-05
2.94221e-05
8.37529e-06
6.89023e-06
7.48442e-06
7.66544e-05
3.64577e-05
4.95178e-06
6.21107e-06
6.15049e-06
4.8966e-05
4.69264e-05
9.51705e-06
1.15879e-05
8.53684e-05
2.90989e-05
1.25523e-05
7.06314e-06
2.46808e-05
1.66758e-05
4.72788e-06
3.31979e-05
2.33065e-05
1.42082e-05
5.48249e-05
5.74172e-05
8.14562e-06
2.61937e-05
2.83287e-05
1.47892e-05
6.53553e-06
3.15656e-05
2.52635e-05
7.11531e-06
7.24276e-06
9.86002e-05
9.44845e-05
1.30312e-05
6.85599e-05
5.8522e-06
4.06659e-05
4.42272e-05
8.82564e-06
1.09107e-05
6.62248e-06
8.85652e-05
3.63981e-05
5.76104e-06
6.74879e-06
5.02588e-06
3.64214e-05
5.51483e-05
1.13051e-05
1.00693e-05
0.000102805
2.85344e-05
1.79708e-05
6.88565e-06
3.92239e-05
1.76471e-05
6.90397e-06
2.72605e-05
2.16844e-05
2.33727e-05
8.1766e-05
8.23102e-05
6.80792e-06
4.49219e-05
2.42273e-05
2.26465e-05
6.53938e-06
3.24047e-05
1.75008e-05
9.97099e-06
1.86917e-05
0.000158521
0.000122285
1.93451e-05
7.61995e-05
7.71047e-06
3.65311e-05
6.00781e-05
8.94336e-06
2.18908e-05
5.80359e-06
9.76847e-05
4.26104e-05
6.63101e-06
7.81352e-06
5.87786e-06
3.22162e-05
5.72977e-05
1.15259e-05
7.7739e-06
0.000109829
3.0187e-05
2.33138e-05
8.14175e-06
5.5218e-05
1.82653e-05
1.06404e-05
2.70886e-05
2.32922e-05
3.25812e-05
0.000112472
0.000103331
7.21872e-06
6.61796e-05
1.84468e-05
2.36982e-05
7.64605e-06
2.70816e-05
8.08567e-06
1.48845e-05
3.02224e-05
0.00021857
0.000151299
2.92792e-05
0.000104336
1.23156e-05
3.12452e-05
6.9312e-05
8.9891e-06
3.09079e-05
7.08192e-06
0.000105604
4.52255e-05
7.84171e-06
9.67596e-06
7.00681e-06
2.86293e-05
5.47828e-05
1.09423e-05
6.96217e-06
0.000113998
2.85234e-05
3.04988e-05
7.788e-06
6.37706e-05
2.06768e-05
1.31851e-05
2.71031e-05
2.53402e-05
3.83435e-05
0.000135238
0.000125395
1.03256e-05
8.97602e-05
9.52794e-06
1.74851e-05
9.11373e-06
2.21077e-05
6.71996e-06
1.42811e-05
3.28367e-05
0.000241076
0.000194052
3.81278e-05
0.000144149
2.70158e-05
3.74502e-05
0.000100257
1.02801e-05
3.33139e-05
1.04898e-05
0.000126759
4.96792e-05
8.84218e-06
9.61454e-06
8.28997e-06
2.72966e-05
5.49956e-05
1.22353e-05
6.71967e-06
0.000109492
2.43383e-05
4.61231e-05
7.5198e-06
5.52503e-05
2.14839e-05
1.62488e-05
3.72789e-05
2.79181e-05
4.04595e-05
0.000160568
0.000154099
1.24631e-05
7.92044e-05
8.91901e-06
1.75051e-05
8.66362e-06
2.20914e-05
9.0099e-06
1.45806e-05
2.74377e-05
0.000263958
0.000231693
5.26897e-05
0.000177929
4.74612e-05
3.82726e-05
0.000126478
1.26293e-05
4.14256e-05
1.11568e-05
0.000144628
4.92032e-05
1.08003e-05
8.71402e-06
7.52167e-06
2.34049e-05
6.82523e-05
1.37058e-05
6.85196e-06
0.000101701
2.09757e-05
5.11394e-05
7.93293e-06
3.94448e-05
2.14709e-05
2.10246e-05
4.84641e-05
2.87146e-05
4.12128e-05
0.000178481
0.000160153
1.35118e-05
5.83228e-05
1.82627e-05
2.88044e-05
8.61851e-06
2.46661e-05
9.20564e-06
1.64222e-05
3.16685e-05
0.000345086
0.000258051
7.81398e-05
0.000199587
5.67732e-05
2.56062e-05
0.000136701
1.28515e-05
5.38571e-05
7.55023e-06
0.000129516
4.07014e-05
1.13501e-05
7.83694e-06
8.44716e-06
2.02825e-05
6.77429e-05
2.19749e-05
1.24096e-05
8.47673e-05
1.52578e-05
4.70871e-05
8.24439e-06
2.41735e-05
1.70794e-05
2.34922e-05
4.90049e-05
3.09175e-05
3.13536e-05
0.000168423
0.00015484
2.04664e-05
6.36287e-05
2.4483e-05
3.05611e-05
1.18475e-05
2.95305e-05
8.60837e-06
2.48188e-05
3.10355e-05
0.000374669
0.000233377
9.95403e-05
0.00023079
7.95041e-05
1.91375e-05
0.000141587
1.24779e-05
8.73864e-05
9.12939e-06
0.000113344
2.96781e-05
1.04261e-05
7.98918e-06
1.21287e-05
1.62785e-05
6.36288e-05
2.27651e-05
1.39144e-05
8.33036e-05
1.45187e-05
3.50238e-05
7.36871e-06
1.84032e-05
1.31304e-05
2.20312e-05
5.73205e-05
3.0151e-05
2.2648e-05
0.000172302
0.00015908
2.6666e-05
7.06617e-05
2.89573e-05
2.60428e-05
1.39128e-05
3.40932e-05
8.61947e-06
2.78822e-05
4.13742e-05
0.000395156
0.000203762
9.3784e-05
0.00022828
8.62577e-05
2.28911e-05
0.000157949
1.48962e-05
8.94899e-05
8.06685e-06
0.000131655
2.40031e-05
1.06745e-05
1.17339e-05
1.42173e-05
1.31692e-05
6.14483e-05
2.71269e-05
1.93958e-05
7.15459e-05
1.26177e-05
3.42945e-05
8.08044e-06
1.13727e-05
8.89907e-06
1.93586e-05
5.78034e-05
1.79824e-05
1.63947e-05
0.000162814
0.000139403
3.70074e-05
8.14946e-05
2.66252e-05
1.6635e-05
1.46338e-05
2.38987e-05
1.37979e-05
3.26996e-05
4.88558e-05
0.000419671
0.000180185
0.00010294
0.00022663
8.2542e-05
2.66912e-05
0.000170796
1.79978e-05
8.91641e-05
1.11612e-05
0.000125754
1.85746e-05
1.50855e-05
1.34714e-05
1.81084e-05
1.05691e-05
7.95826e-05
2.33456e-05
1.83964e-05
7.25429e-05
1.53312e-05
2.36493e-05
7.25621e-06
1.17739e-05
1.15266e-05
2.68358e-05
5.86273e-05
1.77336e-05
1.81542e-05
0.000166679
0.000143791
3.24849e-05
6.83008e-05
3.1029e-05
1.80805e-05
1.28731e-05
2.06873e-05
1.36044e-05
2.82441e-05
5.6072e-05
0.000449206
0.000181318
9.87123e-05
0.000205939
6.9197e-05
3.60068e-05
0.000197072
2.0554e-05
8.35953e-05
1.07404e-05
0.000125403
2.14502e-05
1.35436e-05
1.53221e-05
1.76858e-05
1.31449e-05
7.2796e-05
2.91406e-05
2.69442e-05
5.29919e-05
1.1984e-05
2.71714e-05
7.87885e-06
7.44848e-06
8.3786e-06
2.07257e-05
4.11032e-05
1.3354e-05
1.36635e-05
0.000139637
0.000120109
3.89354e-05
7.50349e-05
2.62572e-05
1.42232e-05
1.91141e-05
1.55856e-05
1.76877e-05
3.23079e-05
4.79241e-05
0.000381876
0.000158446
0.000116412
0.000228781
8.96206e-05
3.15282e-05
0.000173253
1.90087e-05
0.000100635
9.49803e-06
0.000107933
1.66296e-05
1.53083e-05
1.34532e-05
2.24135e-05
1.1739e-05
9.51992e-05
1.74936e-05
1.75045e-05
6.99493e-05
2.08454e-05
1.62681e-05
7.26479e-06
1.21309e-05
1.53767e-05
3.15106e-05
5.73889e-05
1.74001e-05
1.72688e-05
0.000167049
0.000142297
2.77295e-05
5.18414e-05
4.61469e-05
2.39141e-05
1.35516e-05
1.99145e-05
1.05835e-05
2.13969e-05
6.65782e-05
0.000425088
0.000195454
8.77219e-05
0.000192766
7.45785e-05
4.06663e-05
0.000200746
2.17262e-05
7.55865e-05
1.0786e-05
0.000128064
2.36486e-05
1.24602e-05
1.95996e-05
1.63564e-05
1.46712e-05
6.75505e-05
3.29363e-05
3.30253e-05
4.39329e-05
1.10245e-05
2.92323e-05
1.03969e-05
5.68955e-06
6.65772e-06
1.50311e-05
3.22352e-05
9.8849e-06
1.0132e-05
0.00011279
9.47929e-05
5.08709e-05
8.19953e-05
2.62029e-05
1.24287e-05
2.35394e-05
1.38415e-05
2.10071e-05
4.41982e-05
4.01984e-05