/*--------------------------------*- C++ -*----------------------------------*\
  =========                 |
  \\      /  F ield         | OpenFOAM: The Open Source CFD Toolbox
   \\    /   O peration     | Website:  https://openfoam.org
    \\  /    A nd           | Version:  10
     \\/     M anipulation  |
\*---------------------------------------------------------------------------*/
FoamFile
{
    format      ascii;
    class       volScalarField;
    location    "7.5";
    object      p;
}
// * * * * * * * * * * * * * * * * * * * * * * * * * * * * * * * * * * * * * //

dimensions      [0 2 -2 0 0 0 0];

internalField   nonuniform List<scalar> 
25600
(
-7.01709e-06
1.79925e-05
-1.38406e-05
-4.3432e-06
7.12467e-06
-6.37891e-06
4.63062e-06
-4.34656e-06
-4.1297e-06
3.76756e-07
-6.1867e-06
1.41616e-06
1.00614e-05
-7.4952e-06
-1.09785e-05
1.10021e-05
-7.88624e-06
-2.05426e-06
8.73881e-06
-1.15964e-05
2.97932e-06
3.49229e-07
1.37089e-07
2.67762e-06
-7.72861e-06
2.58868e-06
1.69305e-06
9.74548e-07
9.93808e-07
-6.36999e-06
1.74779e-06
9.38734e-06
-3.85548e-06
-6.23329e-06
3.01216e-07
4.73415e-06
1.96326e-06
-1.04444e-05
7.63044e-06
-6.61668e-06
-1.27342e-05
1.5324e-05
-1.00366e-05
-6.80354e-07
2.80962e-07
-2.34845e-06
2.45817e-06
-1.0133e-05
5.80555e-06
1.30608e-06
-1.27099e-05
1.13154e-06
1.56257e-05
-9.11737e-06
-1.23046e-05
1.31979e-05
-1.17913e-05
2.9114e-06
4.49336e-06
-1.01625e-05
7.39149e-06
-8.26717e-06
5.29323e-06
-8.9941e-07
-6.74035e-06
8.04199e-06
-5.0158e-06
5.72611e-07
4.29651e-07
9.93184e-07
3.6002e-06
8.05679e-07
-1.77376e-06
-4.2558e-07
-2.08221e-06
7.11862e-06
-1.04942e-07
-1.47689e-05
1.61812e-05
-6.92113e-06
-1.10466e-05
4.57667e-06
-4.31312e-06
4.06223e-06
-7.0794e-06
1.64389e-07
-8.58387e-07
-8.60788e-06
7.79073e-06
1.52932e-07
-1.15798e-05
-4.4419e-06
1.98146e-05
-9.40259e-06
-1.54976e-05
1.51314e-05
-1.26384e-05
4.574e-06
-1.43404e-06
-4.68341e-06
6.76369e-06
-1.1663e-05
9.36509e-06
-6.46356e-06
-7.74493e-07
6.42889e-06
-6.40713e-06
1.30159e-06
-2.09439e-06
7.50281e-06
3.69255e-06
-5.34692e-06
1.06444e-06
4.33461e-06
-6.77796e-06
1.07475e-05
-2.50336e-06
-1.62919e-05
2.01859e-05
-7.17988e-06
-5.83729e-06
-6.53586e-06
1.74937e-06
7.29469e-06
-1.21743e-05
7.08751e-07
-9.84837e-07
-5.44159e-06
3.34189e-06
2.00959e-06
-7.63951e-06
-9.35635e-06
2.28534e-05
-1.16996e-05
-1.34083e-05
1.52537e-05
-1.30438e-05
7.33961e-06
-8.16523e-06
-1.33712e-06
4.53448e-06
-1.03798e-05
7.58576e-06
-9.6612e-06
4.5506e-06
5.44217e-07
-3.21335e-06
1.17365e-07
-3.63726e-06
1.0992e-05
4.37876e-06
-8.00029e-06
2.61685e-06
6.58783e-06
-9.33346e-06
1.50265e-05
-6.22052e-06
-1.34615e-05
1.74074e-05
-5.88371e-06
-1.03018e-06
-1.57286e-05
5.27611e-06
8.37739e-06
-1.44611e-05
8.69899e-07
3.43464e-08
-5.86508e-06
-2.12523e-07
5.33554e-06
-4.36616e-06
-1.18973e-05
2.10815e-05
-1.45659e-05
-6.03095e-06
1.14688e-05
-1.24115e-05
9.81213e-06
-1.35099e-05
4.60303e-06
2.48974e-06
-8.68617e-06
1.59022e-06
-8.61084e-06
7.15585e-06
-4.38616e-06
1.64788e-06
-1.9798e-06
-3.48457e-06
1.12059e-05
6.94579e-06
-9.1194e-06
2.37343e-06
6.86838e-06
-7.19297e-06
1.63913e-05
-8.50995e-06
-8.23486e-06
9.61676e-06
-1.26504e-06
1.429e-06
-2.1264e-05
4.65587e-06
9.64661e-06
-1.55483e-05
1.29454e-06
-1.6291e-06
-5.59043e-06
-6.13427e-07
7.60552e-06
-1.452e-06
-1.40252e-05
1.75059e-05
-1.22971e-05
3.45077e-06
5.56578e-06
-1.13823e-05
8.90686e-06
-1.48768e-05
9.15053e-06
-1.64943e-06
-7.68464e-06
-6.37869e-06
-4.98446e-06
6.86715e-06
-7.12671e-06
3.89431e-06
-3.18252e-06
-1.0438e-06
1.10714e-05
1.01962e-05
-1.21627e-05
1.52444e-06
8.24143e-06
-2.39515e-06
1.31546e-05
-9.11526e-06
-3.7411e-06
1.25915e-06
3.00232e-06
3.11295e-06
-2.13735e-05
1.28848e-06
1.21829e-05
-1.52498e-05
1.87545e-06
-4.93198e-06
-3.67963e-06
3.21293e-07
1.04451e-05
-4.89827e-07
-1.70228e-05
1.48781e-05
-1.12018e-05
1.18071e-05
-1.97676e-07
-1.26821e-05
6.17201e-06
-1.05352e-05
8.4601e-06
-6.86404e-06
-7.49716e-06
-1.31951e-05
-2.95594e-06
5.5072e-06
-8.05268e-06
2.95869e-06
-2.79572e-06
8.14626e-07
1.16499e-05
1.13276e-05
-1.53575e-05
1.85161e-06
1.17525e-05
1.20739e-06
8.2625e-06
-8.88206e-06
-1.96745e-06
-1.56004e-06
4.35275e-06
3.38782e-06
-2.4411e-05
-2.0579e-06
1.92358e-05
-1.29634e-05
1.9841e-06
-9.30449e-06
-2.17385e-07
-5.87651e-07
1.51312e-05
-2.81581e-06
-1.9133e-05
1.33614e-05
-1.01913e-05
1.80549e-05
-5.11697e-06
-1.65447e-05
4.4101e-06
-3.26853e-06
3.00458e-06
-1.02697e-05
-8.92094e-06
-1.60987e-05
-6.98091e-07
4.54229e-06
-8.43919e-06
5.40821e-08
-1.47253e-06
3.95567e-06
1.35883e-05
9.53761e-06
-1.79022e-05
3.25832e-06
1.51823e-05
3.30272e-06
4.30741e-06
-1.05289e-05
2.00328e-07
9.47869e-07
3.52709e-06
2.81818e-06
-3.39983e-05
-5.1419e-06
1.80783e-05
-8.56713e-06
2.83206e-07
-1.45838e-05
2.82482e-06
1.13738e-06
2.0157e-05
-7.57694e-06
-2.0731e-05
1.15203e-05
-7.31278e-06
2.34361e-05
-9.81753e-06
-2.17046e-05
3.69555e-06
4.31009e-06
-3.06958e-06
-1.30315e-05
-1.45819e-05
-1.74683e-05
1.28146e-08
5.04929e-06
-9.6712e-06
-3.16864e-06
-7.44815e-07
8.55695e-06
1.61952e-05
5.71068e-06
-1.94607e-05
5.13697e-06
1.83404e-05
5.34848e-06
-1.04039e-06
-1.52214e-05
3.56435e-06
6.11256e-06
3.40483e-06
-3.14109e-07
-3.92195e-05
-7.04931e-06
2.20361e-05
-1.7727e-06
-3.32969e-06
-2.065e-05
4.39606e-06
4.81622e-06
2.59673e-05
-1.32808e-05
-2.37031e-05
9.22503e-06
-2.63489e-06
2.43705e-05
-1.41654e-05
-2.94802e-05
4.57171e-06
1.10884e-05
-6.10076e-06
-1.70458e-05
-2.20852e-05
-1.84557e-05
2.15586e-07
7.55424e-06
-1.22726e-05
-7.8334e-06
1.54484e-07
1.44305e-05
1.88718e-05
1.56481e-06
-2.09985e-05
6.80837e-06
2.30641e-05
8.41509e-06
-5.71893e-06
-2.30624e-05
7.5656e-06
1.1699e-05
4.22398e-06
-6.21422e-06
-4.57597e-05
-7.91403e-06
2.83179e-05
4.08314e-06
-8.83766e-06
-2.74045e-05
5.83382e-06
1.18321e-05
3.19771e-05
-1.9752e-05
-2.97277e-05
7.54866e-06
2.75871e-06
2.65638e-05
-1.74415e-05
-3.53845e-05
4.69624e-06
1.76087e-05
-6.31191e-06
-2.28567e-05
-3.32623e-05
-1.95303e-05
2.79849e-06
1.09849e-05
-1.69324e-05
-1.49757e-05
1.30123e-06
2.11664e-05
1.6502e-05
-2.38261e-06
-2.31962e-05
8.59547e-06
2.9035e-05
1.34734e-05
-1.12302e-05
-3.34985e-05
1.11421e-05
1.65796e-05
2.03599e-06
-1.49955e-05
-5.45564e-05
-8.19714e-06
3.48833e-05
9.19628e-06
-1.58973e-05
-3.90776e-05
7.90251e-06
1.9455e-05
3.69819e-05
-2.68198e-05
-3.98471e-05
7.14004e-06
1.02939e-05
2.71128e-05
-2.01857e-05
-4.08893e-05
4.95429e-06
2.56999e-05
-6.5385e-06
-3.0777e-05
-4.69846e-05
-2.05949e-05
8.20472e-06
1.63762e-05
-2.36548e-05
-2.57339e-05
3.2791e-06
2.90826e-05
1.47156e-05
-7.19653e-06
-2.95091e-05
1.00532e-05
3.59275e-05
1.60572e-05
-1.78073e-05
-4.66694e-05
1.38231e-05
2.45747e-05
2.35966e-06
-2.559e-05
-6.60258e-05
-8.22373e-06
4.10624e-05
1.34317e-05
-2.45456e-05
-5.68144e-05
1.1572e-05
2.29445e-05
3.69637e-05
-3.5425e-05
-5.6096e-05
9.52224e-06
2.05776e-05
3.09396e-05
-2.36897e-05
-4.9e-05
5.71615e-06
3.69825e-05
-4.44689e-06
-4.02965e-05
-6.13671e-05
-2.05311e-05
1.6535e-05
1.60554e-05
-3.22686e-05
-4.20374e-05
6.32816e-06
3.9012e-05
1.71288e-05
-1.40376e-05
-3.56846e-05
1.30557e-05
4.52884e-05
1.95114e-05
-2.57173e-05
-5.72875e-05
1.63708e-05
3.72048e-05
8.4096e-07
-3.8157e-05
-7.97165e-05
-6.93751e-06
5.42111e-05
1.47668e-05
-3.51769e-05
-7.85059e-05
1.78834e-05
3.7092e-05
3.74715e-05
-4.588e-05
-7.67257e-05
1.53722e-05
3.40551e-05
3.76777e-05
-2.83184e-05
-5.79323e-05
8.0216e-06
5.03751e-05
-1.13577e-06
-5.08556e-05
-7.16726e-05
-1.8899e-05
2.79749e-05
1.91236e-05
-4.29293e-05
-6.27125e-05
1.13894e-05
5.13888e-05
2.25602e-05
-2.28227e-05
-4.21193e-05
1.76691e-05
5.75221e-05
2.5515e-05
-3.43708e-05
-6.19592e-05
2.0664e-05
5.38609e-05
9.3152e-07
-5.26923e-05
-9.53122e-05
-4.31347e-06
7.1254e-05
1.74453e-05
-4.71444e-05
-8.43332e-05
2.76849e-05
5.45942e-05
4.33553e-05
-5.68737e-05
-7.13129e-05
2.52931e-05
5.1165e-05
4.71445e-05
-3.43363e-05
-6.60077e-05
1.25885e-05
6.70294e-05
3.71057e-06
-6.30012e-05
-7.6345e-05
-1.50815e-05
4.2803e-05
2.54248e-05
-5.55407e-05
-6.12622e-05
1.97236e-05
6.70078e-05
3.05898e-05
-3.34984e-05
-4.81692e-05
2.43552e-05
7.27689e-05
3.07895e-05
-4.41478e-05
-6.07967e-05
2.69952e-05
7.42614e-05
3.61337e-06
-6.95833e-05
-0.000110518
6.88967e-09
9.19238e-05
2.41763e-05
-6.12087e-05
-7.3992e-05
4.18709e-05
7.49937e-05
5.33871e-05
-6.90419e-05
-7.07502e-05
3.9043e-05
7.05796e-05
5.95981e-05
-4.14865e-05
-7.29343e-05
1.94168e-05
8.64432e-05
1.12932e-05
-7.72036e-05
-7.5809e-05
-9.31593e-06
6.22775e-05
2.72183e-05
-7.05155e-05
-6.19377e-05
3.09612e-05
8.53837e-05
4.19656e-05
-4.61821e-05
-5.36702e-05
3.29257e-05
9.33209e-05
4.08105e-05
-5.57527e-05
-5.7528e-05
3.52684e-05
9.6422e-05
9.15693e-06
-9.12033e-05
-0.00012583
6.86781e-06
0.000116794
3.46777e-05
-7.99835e-05
-7.64648e-05
6.10125e-05
9.81246e-05
6.79304e-05
-8.52239e-05
-8.03606e-05
5.89266e-05
9.13109e-05
7.63348e-05
-5.04921e-05
-8.14737e-05
2.87353e-05
0.000107565
2.30764e-05
-9.46721e-05
-8.08938e-05
-1.68038e-06
8.43978e-05
3.38777e-05
-8.94589e-05
-7.45878e-05
4.57982e-05
0.000105193
5.77743e-05
-6.14624e-05
-6.79642e-05
4.23803e-05
0.000113995
5.57079e-05
-7.05501e-05
-6.22348e-05
4.49928e-05
0.000117854
1.94886e-05
-0.000117971
-0.000143358
1.47417e-05
0.000144069
5.04308e-05
-0.000103119
-9.00203e-05
8.51595e-05
0.000123855
8.75166e-05
-0.000106372
-9.44783e-05
8.72617e-05
0.000113242
9.81742e-05
-6.21984e-05
-9.79408e-05
4.12043e-05
0.000128771
3.88419e-05
-0.000116454
-0.000101046
3.87285e-06
9.891e-05
4.09537e-05
-0.000113242
-9.49077e-05
6.54967e-05
0.00012473
7.82178e-05
-7.91067e-05
-8.81585e-05
5.26972e-05
0.000131672
7.53317e-05
-8.94863e-05
-8.28702e-05
5.53767e-05
0.000139641
3.50388e-05
-0.000150624
-0.000164812
2.84713e-05
0.000165387
7.056e-05
-0.000130619
-0.000109519
0.00012087
0.00014906
0.000111001
-0.000134161
-0.000113983
0.00013163
0.00013594
0.000122159
-7.74284e-05
-0.00012075
6.28946e-05
0.000150168
5.62608e-05
-0.000143587
-0.000129403
1.21889e-05
0.000113019
5.03607e-05
-0.000141734
-0.000123279
9.73699e-05
0.000145108
0.000100959
-9.89844e-05
-0.000113641
6.94112e-05
0.000150449
9.96974e-05
-0.000112267
-0.000110758
7.26586e-05
0.000161615
5.23786e-05
-0.000181193
-0.000193413
6.49066e-05
0.000188255
9.24317e-05
-0.00015637
-0.000135002
0.000186575
0.000178631
0.000138901
-0.000164968
-0.000139786
0.000209409
0.00016239
0.000150326
-9.23197e-05
-0.000148886
0.000107391
0.000174728
7.62029e-05
-0.000170096
-0.000161
4.05874e-05
0.000133595
5.8292e-05
-0.000170041
-0.000156058
0.000157837
0.000171891
0.000126527
-0.00011688
-0.000141947
0.000113915
0.000175215
0.000124898
-0.000134569
-0.000142366
0.00011872
0.00018731
7.15766e-05
-0.000202937
-0.000224761
0.000132059
0.000217706
0.000115627
-0.000176347
-0.00016488
0.000278826
0.0002187
0.000167619
-0.000198087
-0.000170868
0.000292729
0.000195418
0.000180563
-0.000107391
-0.000179375
0.000160347
0.000203691
9.59557e-05
-0.000191988
-0.000192707
8.51539e-05
0.000160284
5.77583e-05
-0.000197672
-0.00019012
0.000245525
0.000206443
0.000148895
-0.000134715
-0.000171237
0.000184638
0.00020927
0.000147439
-0.000157618
-0.000173171
0.000196166
0.000220755
9.07876e-05
-0.000230995
-0.000245865
0.000143752
0.000244419
0.000122396
-0.000207438
-0.000193802
0.000269281
0.000259967
0.000184439
-0.000242835
-0.0001991
0.000258578
0.000227171
0.000198606
-0.000131813
-0.000203822
0.000151483
0.000227727
0.000100298
-0.000220289
-0.000213658
8.84028e-05
0.000179467
3.1711e-05
-0.000234176
-0.000216857
0.00023949
0.000236936
0.000152844
-0.000163304
-0.000196218
0.000189687
0.000240145
0.000152542
-0.000191166
-0.000196304
0.000196645
0.000250818
9.27844e-05
-0.00027141
-0.000253893
0.000142622
0.00025893
8.88307e-05
-0.000254345
-0.00020607
0.000254999
0.000289364
0.000164141
-0.000303804
-0.000213507
0.00023135
0.000250062
0.000182294
-0.000170275
-0.000216663
0.000133549
0.000240474
6.70929e-05
-0.000261626
-0.000221875
7.5206e-05
0.000184043
-4.31858e-05
-0.000282145
-0.000229101
0.000227991
0.000251827
0.000120911
-0.000204788
-0.00020801
0.000180628
0.000258568
0.000118198
-0.000235853
-0.000207551
0.000186729
0.000269047
5.36438e-05
-0.000290579
-0.000248431
0.00014617
0.000258867
3.22013e-05
-0.000278685
-0.000190823
0.000249082
0.000298777
0.000120185
-0.000345264
-0.000205052
0.000223509
0.000257353
0.000137237
-0.000187832
-0.00020878
0.000121973
0.000241189
9.99204e-06
-0.00028132
-0.000218015
6.20231e-05
0.000178242
-6.31248e-05
-0.000308569
-0.000219041
0.000228786
0.000254609
8.8844e-05
-0.000225628
-0.000200452
0.000176573
0.000261411
7.73226e-05
-0.000257994
-0.000197598
0.000182984
0.000271617
-9.98921e-06
-0.000287474
-0.00022955
0.000166606
0.00023902
-5.83827e-07
-0.000272893
-0.000166958
0.000257535
0.00027889
8.92404e-05
-0.000366422
-0.000183515
0.000242437
0.000235375
0.00010631
-0.000181747
-0.000187809
0.000126802
0.000224624
-2.81208e-05
-0.000275546
-0.0001921
6.13936e-05
0.000157162
-7.61501e-05
-0.00030833
-0.000200243
0.000253787
0.000239502
6.68697e-05
-0.00022278
-0.000182701
0.000187873
0.000251376
4.67582e-05
-0.000250267
-0.00017472
0.000195705
0.000269184
-4.9607e-05
-0.00028538
-0.00020559
0.000157927
0.000213501
-2.15223e-05
-0.000262829
-0.000142386
0.000250258
0.000250046
6.85402e-05
-0.000343682
-0.000161807
0.000211176
0.000205627
8.62905e-05
-0.00017072
-0.000169567
0.000118902
0.000199522
-5.61863e-05
-0.000267754
-0.000165969
6.66082e-05
0.000129415
-8.45778e-05
-0.000307106
-0.000179033
0.000234701
0.000217881
5.06363e-05
-0.000217483
-0.000157057
0.000187166
0.000222992
2.47679e-05
-0.000234654
-0.000147854
0.000190366
0.000240116
-7.34132e-05
-0.000276588
-0.000185175
0.000138398
0.00019268
-2.59779e-05
-0.000250548
-0.000122697
0.000233002
0.000225428
6.44346e-05
-0.000325557
-0.000144337
0.000180319
0.000181939
8.40039e-05
-0.000157523
-0.000159752
0.000102094
0.000180369
-6.52316e-05
-0.000255603
-0.000144816
5.9673e-05
0.000105873
-8.21169e-05
-0.000304299
-0.000161049
0.00021368
0.000196594
4.81738e-05
-0.000207704
-0.00013602
0.000171219
0.000195388
2.10044e-05
-0.000217935
-0.000128884
0.000169912
0.00021529
-7.79578e-05
-0.000269193
-0.000177872
0.000129064
0.000184115
-2.20279e-05
-0.000242165
-0.00011389
0.000222676
0.000212722
6.65163e-05
-0.000313124
-0.000137464
0.000162908
0.000175547
8.72375e-05
-0.000154056
-0.000160009
9.3804e-05
0.000165023
-6.40361e-05
-0.000252954
-0.000136436
5.72139e-05
9.80419e-05
-7.39144e-05
-0.00029778
-0.000152903
0.000199128
0.000189853
4.99634e-05
-0.000203233
-0.000127904
0.000161377
0.000184917
2.37484e-05
-0.000215764
-0.000123297
0.000159774
0.000197704
-7.16728e-05
-0.000267435
-0.00016969
0.000128761
0.000179023
-2.34981e-05
-0.000239831
-0.000105108
0.000219121
0.000204312
6.25944e-05
-0.00030727
-0.000130383
0.000156129
0.00017192
8.32034e-05
-0.000155896
-0.000156365
9.28806e-05
0.000155982
-6.65492e-05
-0.000254394
-0.00012822
6.07213e-05
9.32452e-05
-7.21943e-05
-0.000295278
-0.000144043
0.000193423
0.000184519
4.52151e-05
-0.000203438
-0.000120163
0.000158476
0.000178428
2.07498e-05
-0.000216733
-0.000117604
0.000157701
0.000187899
-7.12014e-05
-0.000266294
-0.000162078
0.000128644
0.000172784
-2.79864e-05
-0.000238605
-9.75254e-05
0.000216146
0.000196422
5.66191e-05
-0.000303536
-0.000124947
0.000151666
0.000167265
7.73741e-05
-0.00015795
-0.000152036
9.22197e-05
0.000147932
-7.08229e-05
-0.000254789
-0.000121424
6.27737e-05
8.78607e-05
-7.43812e-05
-0.000293481
-0.000136349
0.00018914
0.000178082
3.88704e-05
-0.000203398
-0.000113371
0.000156375
0.000171523
1.60047e-05
-0.000217166
-0.00011212
0.000156661
0.000179457
-7.40443e-05
-0.000266719
-0.000157899
0.000127399
0.000167291
-3.27938e-05
-0.000238842
-9.30537e-05
0.000213206
0.000190357
5.08448e-05
-0.000302877
-0.000122732
0.000148228
0.000163374
7.22022e-05
-0.000160319
-0.000149731
9.09351e-05
0.000141771
-7.53668e-05
-0.000255964
-0.000118199
6.26831e-05
8.30391e-05
-7.77718e-05
-0.000293503
-0.000131752
0.000185785
0.000172965
3.32733e-05
-0.00020441
-0.000109589
0.000153966
0.000165756
1.12697e-05
-0.000218408
-0.000109339
0.000155039
0.000172881
-7.78745e-05
-0.000268592
-0.00015732
0.000126016
0.000163688
-3.67678e-05
-0.000240418
-9.17608e-05
0.000210855
0.000186527
4.62456e-05
-0.000304241
-0.000123019
0.000145793
0.000160814
6.82091e-05
-0.000163013
-0.000149818
8.92714e-05
0.000137744
-7.94638e-05
-0.000258143
-0.000118285
6.15744e-05
7.97415e-05
-8.10666e-05
-0.000295152
-0.000130287
0.000183563
0.000169754
2.8966e-05
-0.000206509
-0.000108852
0.000151772
0.000161824
7.06504e-06
-0.000220415
-0.000109471
0.000153164
0.000168728
-8.16679e-05
-7.30535e-06
1.41246e-05
-1.20546e-05
-2.91826e-06
6.61564e-06
-7.22292e-06
3.79073e-06
-2.14767e-06
-3.62452e-06
-1.77961e-06
-4.63375e-06
-7.83051e-07
1.02467e-05
-3.2547e-06
-1.50291e-05
1.04509e-05
-6.67462e-06
-1.74648e-06
8.99458e-06
-1.43828e-05
5.77319e-06
1.3212e-06
-2.73764e-06
3.26446e-06
-7.26919e-06
3.5059e-06
1.55082e-06
2.47478e-07
1.23311e-06
-4.14466e-06
1.89986e-06
7.55864e-06
-2.15439e-06
-6.61838e-06
-4.73281e-07
7.46621e-06
2.1237e-06
-1.30952e-05
6.41183e-06
-2.7401e-06
-9.54142e-06
1.08478e-05
-1.00498e-05
3.53254e-06
-2.95708e-06
-4.05921e-06
4.25996e-06
-9.03572e-06
6.59303e-06
-5.86937e-07
-1.34683e-05
8.82572e-07
1.77266e-05
-7.97918e-06
-1.58356e-05
1.35962e-05
-1.15251e-05
3.79927e-06
3.79287e-06
-1.17217e-05
9.91078e-06
-7.67213e-06
4.48834e-06
-2.08294e-06
-4.67482e-06
8.63161e-06
-6.90037e-06
1.74815e-06
4.4907e-07
2.89159e-06
2.95058e-06
-1.51839e-06
1.858e-06
-2.03295e-06
-2.65224e-06
9.69319e-06
-1.58301e-06
-1.45901e-05
1.49922e-05
-6.28276e-06
-7.42482e-06
1.64732e-06
-4.46416e-06
9.0958e-06
-1.21299e-05
-8.19976e-07
2.61654e-06
-8.53139e-06
8.71566e-06
-1.98514e-06
-1.30319e-05
-2.98866e-06
2.41125e-05
-1.08413e-05
-1.76119e-05
1.65181e-05
-1.35341e-05
8.10292e-06
-1.52225e-06
-6.25045e-06
7.23727e-06
-1.0802e-05
9.86034e-06
-8.79663e-06
2.31666e-06
6.18218e-06
-7.84244e-06
4.18629e-06
-2.63229e-06
9.35861e-06
1.73674e-06
-5.94507e-06
5.04216e-06
2.22848e-06
-6.48516e-06
1.14787e-05
-3.6088e-06
-1.35422e-05
1.83447e-05
-8.55829e-06
-2.87269e-06
-8.28585e-06
2.28712e-06
1.0727e-05
-1.86324e-05
1.28698e-06
1.93277e-06
-4.63695e-06
4.04485e-06
-8.6063e-07
-8.91323e-06
-7.62896e-06
2.71671e-05
-1.52303e-05
-1.41376e-05
1.68001e-05
-1.54998e-05
1.19884e-05
-8.2488e-06
-3.488e-06
4.07501e-06
-8.18297e-06
8.99103e-06
-1.20926e-05
6.51597e-06
-2.80983e-07
-2.15189e-06
2.91574e-06
-4.93035e-06
1.1933e-05
2.2747e-06
-5.90063e-06
5.36164e-06
5.33374e-06
-9.96902e-06
1.3771e-05
-3.65892e-06
-1.06208e-05
1.56192e-05
-8.03325e-06
1.00249e-06
-1.45789e-05
6.70367e-06
9.2393e-06
-1.98421e-05
2.04884e-06
2.42693e-06
-1.5909e-06
-1.50532e-06
1.82762e-06
-5.07381e-06
-9.63614e-06
2.59388e-05
-2.10766e-05
-6.36815e-06
1.19416e-05
-1.40816e-05
1.54336e-05
-1.64941e-05
3.08273e-07
1.86957e-06
-3.61057e-06
3.72804e-06
-1.2059e-05
7.58094e-06
-4.71964e-06
4.33529e-06
-5.37932e-08
-5.43909e-06
9.31349e-06
6.03067e-06
-5.08952e-06
3.88934e-06
6.42974e-06
-1.11043e-05
1.53319e-05
-4.35095e-06
-6.57945e-06
9.1388e-06
-5.03929e-06
3.76957e-06
-1.58605e-05
6.48543e-06
7.18347e-06
-1.76665e-05
1.59452e-06
2.47932e-06
3.49343e-08
-6.97996e-06
3.56451e-06
-1.89445e-06
-9.30107e-06
2.2176e-05
-2.50186e-05
1.78134e-06
4.62495e-06
-8.86011e-06
1.46593e-05
-2.0507e-05
3.91921e-06
-9.8141e-07
1.89804e-06
-2.4502e-06
-1.0348e-05
7.09708e-06
-5.77887e-06
7.44231e-06
-6.79061e-07
-5.24149e-06
6.38758e-06
1.12287e-05
-4.84328e-06
3.16662e-06
6.06525e-06
-9.59072e-06
1.45593e-05
-4.02137e-06
-2.21713e-06
7.87869e-07
-2.73741e-06
7.07104e-06
-1.29359e-05
2.99568e-06
5.52932e-06
-1.59848e-05
6.698e-07
3.06447e-06
2.49659e-06
-1.29285e-05
3.69414e-06
-3.09774e-07
-7.46001e-06
1.88821e-05
-2.5238e-05
7.67625e-06
-1.27051e-06
-2.58517e-06
1.20074e-05
-1.96064e-05
3.51535e-06
-2.21439e-06
7.02731e-06
-6.90768e-06
-7.33966e-06
5.64183e-06
-5.60221e-06
8.43819e-06
9.45803e-07
-6.94959e-06
4.17276e-06
1.55397e-05
-4.06079e-06
3.7932e-06
4.09718e-06
-6.47593e-06
1.12729e-05
-1.9289e-06
1.93346e-06
-5.03342e-06
-2.45792e-06
1.08863e-05
-1.1153e-05
-8.69052e-07
1.6449e-06
-1.61966e-05
8.90233e-07
5.39836e-06
4.66497e-06
-1.9702e-05
5.15459e-06
-1.23954e-07
-2.90866e-06
1.6143e-05
-2.55084e-05
1.11553e-05
-4.24222e-06
3.28883e-06
1.04403e-05
-1.8544e-05
-1.88149e-06
-4.75655e-07
1.09518e-05
-1.11919e-05
-6.27317e-06
3.66581e-06
-4.94628e-06
9.95397e-06
2.73019e-06
-9.81114e-06
2.94499e-06
1.87901e-05
-4.09709e-07
4.61396e-06
8.39747e-07
-3.38177e-06
9.29843e-06
2.43283e-06
5.45795e-06
-1.12161e-05
-4.85096e-06
1.4834e-05
-1.02624e-05
-4.37804e-06
-5.25631e-06
-1.8339e-05
3.03869e-06
9.13768e-06
6.04704e-06
-2.38418e-05
5.50817e-06
-3.40894e-07
3.63615e-06
1.33329e-05
-2.81115e-05
1.31502e-05
-4.04563e-06
9.22638e-06
1.04063e-05
-2.05849e-05
-9.58394e-06
1.86378e-06
1.44215e-05
-1.32138e-05
-7.97995e-06
1.44318e-06
-3.40347e-06
1.31498e-05
2.97974e-06
-1.27466e-05
1.81257e-06
2.1795e-05
7.25969e-06
4.47002e-06
-3.25916e-06
-2.39492e-06
1.11715e-05
7.89864e-06
7.90837e-06
-1.88189e-05
-8.91249e-06
1.91777e-05
-7.86576e-06
-8.11647e-06
-1.22349e-05
-1.75643e-05
7.97305e-06
1.36888e-05
7.10311e-06
-2.84683e-05
3.85369e-06
8.47209e-07
1.11011e-05
1.04957e-05
-3.14648e-05
1.22395e-05
-6.74472e-07
1.54963e-05
1.03403e-05
-2.51753e-05
-1.52518e-05
5.14253e-06
1.77779e-05
-1.49921e-05
-1.27063e-05
-4.68342e-07
3.79217e-07
1.7754e-05
2.03243e-06
-1.50464e-05
-5.53469e-07
2.65267e-05
1.55856e-05
2.94979e-06
-9.1802e-06
-2.97286e-06
1.39505e-05
1.39221e-05
8.17543e-06
-2.75872e-05
-1.33461e-05
2.41713e-05
-4.70134e-06
-1.20363e-05
-1.8492e-05
-1.9021e-05
1.37544e-05
1.86483e-05
8.24703e-06
-3.74376e-05
-3.11701e-07
3.76213e-06
1.82557e-05
7.51476e-06
-4.12022e-05
9.15853e-06
5.56967e-06
2.20138e-05
9.30308e-06
-2.9482e-05
-2.06851e-05
8.70651e-06
2.35566e-05
-1.7245e-05
-2.00496e-05
-2.42088e-06
5.9663e-06
2.27246e-05
9.61317e-07
-1.77603e-05
-4.33576e-06
3.3015e-05
2.4923e-05
1.79497e-06
-1.80734e-05
-4.28272e-06
1.96e-05
2.08411e-05
7.40946e-06
-3.65398e-05
-1.73165e-05
3.04487e-05
-3.64915e-07
-1.57704e-05
-2.3807e-05
-2.42841e-05
1.97403e-05
2.36932e-05
8.45749e-06
-4.81383e-05
2.0764e-06
8.62878e-06
2.43943e-05
4.20945e-06
-4.6905e-05
1.092e-05
1.47308e-05
2.81786e-05
7.52853e-06
-3.39417e-05
-2.16927e-05
1.32153e-05
3.08024e-05
-2.00682e-05
-2.88339e-05
-4.88339e-06
1.38785e-05
2.65582e-05
-4.44287e-07
-2.34083e-05
-9.08893e-07
4.12449e-05
3.52372e-05
9.43295e-07
-2.96387e-05
-6.18315e-06
2.71001e-05
2.81348e-05
5.63479e-06
-4.55816e-05
-2.19467e-05
3.86253e-05
5.74891e-06
-1.99196e-05
-3.58837e-05
-2.15341e-05
2.75032e-05
3.0068e-05
7.03712e-06
-6.04873e-05
1.4624e-06
1.49146e-05
3.11717e-05
1.02562e-06
-5.50471e-05
1.25832e-05
2.55893e-05
3.45173e-05
5.67528e-06
-3.79497e-05
-2.27187e-05
1.90624e-05
4.01277e-05
-2.31844e-05
-4.03468e-05
-9.88109e-06
2.39363e-05
3.09115e-05
-2.21455e-06
-3.21889e-05
-6.02757e-08
5.01507e-05
4.69524e-05
-1.53013e-06
-4.34334e-05
-7.99078e-06
3.67452e-05
3.77845e-05
3.03827e-06
-5.64856e-05
-2.55091e-05
4.82719e-05
1.27232e-05
-2.45771e-05
-4.9832e-05
-2.36832e-05
3.72412e-05
3.81855e-05
4.22684e-06
-7.34295e-05
1.70967e-06
2.31261e-05
3.95781e-05
-1.84958e-06
-6.50642e-05
1.29678e-05
3.7699e-05
4.13498e-05
3.13818e-06
-4.93139e-05
-2.66235e-05
2.64606e-05
5.23911e-05
-2.71961e-05
-5.45467e-05
-1.60597e-05
3.59198e-05
3.86434e-05
-4.58151e-06
-4.38251e-05
-5.27941e-07
5.98858e-05
5.78199e-05
-6.54196e-06
-5.87446e-05
-9.81575e-06
4.83062e-05
5.01538e-05
-1.25957e-06
-6.94443e-05
-3.19615e-05
6.01191e-05
2.01125e-05
-3.04562e-05
-6.66783e-05
-2.51722e-05
4.94301e-05
4.81705e-05
-5.07227e-07
-8.96937e-05
-6.21944e-07
3.38949e-05
5.03234e-05
-4.69497e-06
-7.84611e-05
1.14914e-05
5.1221e-05
5.15279e-05
-2.56253e-07
-6.37371e-05
-3.21854e-05
3.59159e-05
6.76118e-05
-3.31493e-05
-7.25517e-05
-2.36503e-05
5.0955e-05
5.22205e-05
-7.81032e-06
-5.91581e-05
-1.81153e-06
7.08697e-05
6.48245e-05
-1.41455e-05
-7.61375e-05
-9.38308e-06
6.2618e-05
6.44039e-05
-8.22849e-06
-8.5835e-05
-3.95443e-05
7.28092e-05
2.8338e-05
-3.68782e-05
-8.67581e-05
-2.95385e-05
6.33108e-05
5.8318e-05
-6.64347e-06
-0.000109963
-5.26809e-06
4.66823e-05
5.90962e-05
-7.47254e-06
-9.41954e-05
8.03168e-06
6.56241e-05
6.82775e-05
-3.57616e-06
-8.08432e-05
-3.96226e-05
4.74449e-05
8.86038e-05
-4.17578e-05
-9.6349e-05
-2.53975e-05
6.7997e-05
7.17895e-05
-1.21321e-05
-7.91974e-05
-4.08633e-06
8.26684e-05
7.68488e-05
-2.30322e-05
-9.94752e-05
-1.12297e-05
7.92998e-05
8.28035e-05
-1.6995e-05
-0.000104602
-4.80478e-05
8.58214e-05
3.63319e-05
-4.20765e-05
-0.000108848
-3.53657e-05
7.63945e-05
6.75409e-05
-1.43633e-05
-0.000134804
-9.25827e-06
6.19282e-05
6.57464e-05
-1.07224e-05
-0.00011205
2.96319e-06
8.08538e-05
0.000100023
-6.27279e-06
-0.000101029
-4.84247e-05
6.13431e-05
0.000123554
-3.25322e-05
-0.000125324
-3.0195e-05
8.69811e-05
0.000102168
-1.77436e-05
-0.000104479
-6.92292e-06
9.52803e-05
8.97154e-05
-3.24739e-05
-0.000124777
-1.39527e-05
9.80558e-05
0.000114297
-2.64553e-05
-0.000124022
-5.64851e-05
9.85549e-05
4.9341e-05
-4.87689e-05
-0.000133521
-4.17041e-05
8.64553e-05
7.80094e-05
-2.44513e-05
-0.000167126
-1.73119e-05
7.99325e-05
7.28985e-05
-1.34568e-05
-0.000134085
-4.188e-06
9.71883e-05
8.15054e-05
-9.13589e-06
-0.000126175
-5.90415e-05
7.77124e-05
0.000106909
-4.60738e-05
-0.000153871
-3.3566e-05
0.000107756
8.46728e-05
-2.64846e-05
-0.000139052
-7.79072e-06
0.000108758
7.1466e-05
-4.21524e-05
-0.000152753
-1.60085e-05
0.000118426
8.85052e-05
-4.04307e-05
-0.000148139
-6.37171e-05
0.000110129
4.60025e-05
-5.86259e-05
-0.000153714
-5.53736e-05
8.91138e-05
7.66452e-05
-4.16511e-05
-0.000209173
-2.85434e-05
0.000102934
7.37112e-05
-2.47912e-05
-0.000168307
-1.20396e-05
0.000118585
7.34363e-05
-1.62774e-05
-0.000162914
-6.99299e-05
9.82142e-05
0.000100926
-6.55267e-05
-0.000196326
-4.01071e-05
0.000132997
7.6918e-05
-4.16894e-05
-0.000190073
-1.02147e-05
0.000123749
6.31978e-05
-5.58502e-05
-0.000192638
-1.93514e-05
0.000142933
7.72266e-05
-5.94231e-05
-0.000180754
-7.2628e-05
0.000122565
5.1945e-05
-8.13103e-05
-0.000179428
-7.98123e-05
8.59805e-05
8.38936e-05
-7.71603e-05
-0.000214956
-4.96511e-05
0.000138839
8.22306e-05
-5.67211e-05
-0.000172533
-2.75899e-05
0.000153172
7.70643e-05
-3.84951e-05
-0.000171426
-8.52379e-05
0.000128069
0.000108107
-0.000105124
-0.00019888
-4.9955e-05
0.000171005
8.18237e-05
-7.35287e-05
-0.000182518
-1.43373e-05
0.000145824
6.76549e-05
-8.65137e-05
-0.000193374
-2.61155e-05
0.000179103
8.10032e-05
-9.5511e-05
-0.000194148
-8.73232e-05
0.000121859
6.67987e-05
-0.000133777
-0.000192834
-0.000109215
9.47524e-05
9.99567e-05
-0.000150763
-0.000220339
-7.63088e-05
0.000121818
9.77728e-05
-0.000129613
-0.000176741
-4.65698e-05
0.00013236
8.77214e-05
-9.19518e-05
-0.000181396
-0.000100803
0.000114731
0.000127111
-0.000183348
-0.000207395
-5.68273e-05
0.000145165
9.84181e-05
-0.000141526
-0.000182163
-1.61781e-05
0.000134028
8.10844e-05
-0.000148837
-0.000197294
-3.29895e-05
0.00015795
9.46215e-05
-0.000166599
-0.000204497
-0.000102994
0.000117864
8.09124e-05
-0.000163116
-0.000196219
-0.000118507
0.000103787
0.000114416
-0.000169334
-0.000224642
-9.45876e-05
0.000120851
0.000110565
-0.000137578
-0.000178817
-5.5111e-05
0.000122617
9.6615e-05
-0.000125049
-0.000188894
-0.000108637
0.000106474
0.000144243
-0.000180517
-0.000212603
-4.20242e-05
0.000131383
0.000115894
-0.000152994
-0.000179042
-6.22497e-05
0.000125501
9.06327e-05
-0.00018113
-0.000197742
-2.10102e-05
0.000147198
0.000104906
-0.000193094
-0.000210551
-0.000109649
0.000140008
9.941e-05
-0.000165125
-0.000192384
-9.84101e-05
0.000144927
0.000135915
-0.000164775
-0.000227802
-8.32234e-05
0.000160444
0.000127454
-0.000125972
-0.000177547
-3.99835e-05
0.000142873
0.000107605
-0.000134576
-0.00019433
-7.56322e-05
0.000130216
0.000163957
-0.000172094
-0.000213312
1.5216e-05
0.000152062
0.000133211
-0.0001447
-0.000167466
-4.63435e-05
0.000149994
0.000103508
-0.00018822
-0.000192241
3.14869e-05
0.000172053
0.000117576
-0.000198218
-0.000213545
-7.18312e-05
0.000186349
0.000116654
-0.000164683
-0.000180717
-4.35716e-05
0.000212959
0.000157836
-0.000158177
-0.000222097
-2.08698e-06
0.000232135
0.000143143
-0.000114696
-0.000170182
3.77035e-05
0.000186818
0.000117551
-0.000142025
-0.000194158
1.38954e-05
0.000183468
0.000179853
-0.00016854
-0.000205463
6.16936e-05
0.000201427
0.000144329
-0.000138195
-0.000148377
1.79824e-05
0.00020466
0.000117156
-0.000190285
-0.00017906
0.000140407
0.000225917
0.000129428
-0.000200449
-0.000211248
7.50994e-05
0.000217463
9.61979e-05
-0.000163724
-0.000159518
0.000104475
0.000269462
0.000148162
-0.000152303
-0.00020661
8.5576e-05
0.000291363
0.000122247
-0.000106837
-0.000153681
9.4155e-05
0.000217865
9.29588e-05
-0.000147723
-0.000185596
6.44996e-05
0.000225045
0.000156504
-0.000168166
-0.000183182
0.000100382
0.000238295
0.000126292
-0.000133436
-0.000120659
6.78866e-05
0.000252873
9.44022e-05
-0.000192386
-0.000155591
0.000173798
0.000271009
0.000112287
-0.00020333
-0.000204541
0.000134894
0.000201666
7.27127e-05
-0.000145725
-0.000134876
0.00010486
0.000268907
0.00012712
-0.000131466
-0.000190431
8.8617e-05
0.000250604
9.61968e-05
-8.29999e-05
-0.000132198
9.43744e-05
0.000195719
6.43172e-05
-0.000130445
-0.000174373
4.9006e-05
0.000210695
0.00012815
-0.00014611
-0.000152547
9.98115e-05
0.000216397
9.83099e-05
-0.00011511
-9.11944e-05
5.64202e-05
0.000187426
6.75415e-05
-0.000176842
-0.000128769
0.000138583
0.000280013
8.84842e-05
-0.000192049
-0.000202416
0.000110179
0.000201776
7.94001e-05
-0.00011955
-0.000125639
8.89789e-05
0.000278881
0.000130176
-0.000106319
-0.000191482
7.46548e-05
0.000238065
0.000105181
-5.28927e-05
-0.000126472
7.93202e-05
0.000194716
6.79856e-05
-0.000106779
-0.000185474
2.20591e-05
0.000217856
0.000135823
-0.00011573
-0.000140449
7.95037e-05
0.000211786
9.85825e-05
-8.99273e-05
-7.8147e-05
4.9357e-05
0.000195449
7.0049e-05
-0.000152833
-0.000120493
0.000123088
0.000285459
8.93392e-05
-0.000174863
-0.000221898
7.72303e-05
0.000217119
8.96702e-05
-0.000111
-0.000120497
8.43358e-05
0.000302609
0.000136883
-9.87761e-05
-0.000186113
7.38974e-05