/*--------------------------------*- C++ -*----------------------------------*\
  =========                 |
  \\      /  F ield         | OpenFOAM: The Open Source CFD Toolbox
   \\    /   O peration     | Website:  https://openfoam.org
    \\  /    A nd           | Version:  10
     \\/     M anipulation  |
\*---------------------------------------------------------------------------*/
FoamFile
{
    format      ascii;
    class       surfaceScalarField;
    location    "7.5";
    object      phi_0;
}
// * * * * * * * * * * * * * * * * * * * * * * * * * * * * * * * * * * * * * //

dimensions      [0 3 -1 0 0 0 0];

internalField   nonuniform List<scalar> 
74080
(
0.00487954
-4.44672e-09
-1.93148e-07
0.00487956
-6.99931e-08
1.20317e-07
0.00487936
9.98165e-08
3.81184e-08
0.00487962
-1.60354e-07
-9.43891e-08
0.00487945
7.13925e-08
5.38206e-08
0.0048795
8.18742e-08
-1.3326e-08
0.00487952
-1.94276e-07
-3.61654e-08
0.00487945
1.02512e-07
1.39819e-07
0.00487958
-4.90833e-08
-2.19647e-07
0.00487945
-9.56273e-08
8.17334e-08
0.00487954
-1.11768e-07
5.96398e-08
0.00487956
2.02373e-08
-2.43494e-07
0.00487949
9.32784e-08
3.26416e-07
0.0048795
-2.13852e-07
-2.28214e-07
0.00487949
2.40916e-07
-4.29455e-08
0.00487952
-2.79235e-07
1.79961e-07
0.00487945
2.04235e-08
-1.74549e-07
0.00487961
7.72522e-08
1.86076e-07
0.00487946
-1.92879e-07
-1.64993e-07
0.00487948
2.51701e-07
6.60801e-08
0.00487961
-2.75123e-07
1.62782e-07
0.0048794
2.20224e-07
-1.98149e-07
0.00487956
6.17014e-08
1.17436e-07
0.00487946
-4.39442e-08
3.29183e-08
0.00487945
1.4e-07
-7.12677e-09
0.00487953
-1.48104e-07
4.38988e-08
0.00487948
8.11603e-08
-4.67292e-08
0.00487951
-4.02429e-08
3.65481e-08
0.00487947
1.0972e-07
5.51778e-08
0.00487949
-1.56017e-08
2.5226e-08
0.00487953
-1.09655e-07
-9.7273e-08
0.00487955
-7.07707e-09
8.20256e-08
0.00487943
1.49234e-07
1.90433e-08
0.00487955
6.73481e-09
-3.76909e-08
0.00487948
-3.06073e-08
9.65578e-08
0.00487951
6.41682e-08
-4.24602e-08
0.00487955
-8.29688e-08
1.68482e-08
0.00487942
1.40773e-07
-8.96183e-08
0.00487961
-3.81831e-08
1.39526e-07
6.99045e-08
6.91274e-08
0.00443573
-1.71571e-07
-1.03449e-07
0.00443568
6.67109e-09
-7.61461e-08
0.00443552
1.8683e-07
1.87169e-07
0.00443572
-2.40844e-07
-1.34522e-07
0.00443556
1.36974e-07
-2.64352e-08
0.00443571
-7.59948e-08
1.12905e-07
0.00443561
-7.91436e-08
-8.43952e-08
0.00443562
8.05398e-08
9.35995e-08
0.00443577
-1.45193e-07
-1.60675e-07
0.00443553
8.88491e-08
4.08492e-08
0.00443566
-2.28235e-07
-4.1565e-09
0.00443566
5.60586e-08
-6.4806e-08
0.00443568
3.22326e-08
1.52075e-07
0.00443563
-1.91034e-07
-2.19413e-07
0.00443566
2.31146e-07
1.14443e-07
0.0044357
-3.32258e-07
-1.67002e-08
0.00443555
1.91174e-07
-2.1854e-08
0.00443579
-1.20762e-07
8.76491e-08
0.00443554
-1.57779e-08
-1.3842e-07
0.00443566
1.75352e-07
1.38319e-07
0.00443566
-2.7905e-07
1.482e-09
0.00443556
2.78855e-07
-2.51437e-08
0.00443581
-1.7287e-07
1.87502e-08
0.00443553
1.86218e-07
4.42634e-08
0.00443572
-1.93622e-08
9.46133e-08
0.00443565
-5.86123e-08
-1.0833e-07
0.00443561
1.32006e-07
5.56138e-08
0.00443568
-8.10091e-08
2.43895e-08
0.00443561
1.80981e-07
-7.59172e-09
0.00443565
-4.33854e-08
8.97797e-08
0.00443559
3.23915e-10
-1.70035e-07
0.00443563
-6.22186e-08
1.34232e-07
0.00443558
2.02129e-07
2.96664e-08
0.00443571
-1.06723e-07
-1.13158e-07
0.00443556
7.52096e-08
1.87159e-07
0.00443568
1.92167e-08
-1.04589e-07
0.00443564
-9.3521e-08
2.5415e-08
0.00443556
2.1486e-07
3.67763e-08
0.00443576
-1.57772e-07
-4.74549e-08
1.98203e-07
1.66808e-07
0.00403225
-3.34407e-07
-1.7975e-08
0.00403214
1.05501e-07
-1.74789e-07
0.00403214
1.44453e-07
2.61236e-07
0.00403219
-1.87324e-07
-1.71609e-07
0.00403207
1.3128e-07
-3.69059e-08
0.00403222
-1.47853e-07
1.46711e-07
0.00403211
-3.80171e-09
-1.13798e-07
0.00403219
1.66948e-08
7.33628e-08
0.00403222
-1.24774e-07
-1.48823e-07
0.00403207
1.48615e-07
7.98943e-08
0.00403221
-3.36798e-07
-8.21628e-08
0.00403216
1.2498e-07
6.28882e-08
0.00403226
-5.85604e-08
-4.84232e-09
0.00403207
-6.63505e-08
-1.78336e-07
0.00403218
1.78379e-07
2.15753e-07
0.00403222
-4.03136e-07
-1.69618e-07
0.0040321
3.16925e-07
1.23361e-07
0.00403232
-2.96126e-07
-4.29984e-09
0.00403203
1.96652e-07
-7.65895e-08
0.00403225
2.98532e-09
1.37514e-07
0.00403212
-1.85941e-07
-6.88205e-08
0.00403218
2.52341e-07
8.81263e-08
0.00403227
-2.38479e-07
-9.80465e-08
0.00403202
3.72541e-07
7.9471e-08
0.00403228
-2.31432e-07
1.10564e-07
0.00403209
1.1158e-07
-1.48851e-07
0.0040322
3.50899e-08
1.35168e-07
0.00403215
5.06458e-09
-1.55449e-08
0.00403213
1.8014e-07
-6.6938e-09
0.00403217
-5.75431e-08
1.0931e-07
0.00403212
6.02208e-08
-1.58937e-07
0.00403216
-1.2739e-07
1.60291e-07
0.00403215
2.8501e-07
-1.47151e-08
0.00403218
-1.73036e-07
-9.73055e-08
0.00403205
1.84319e-07
1.76693e-07
0.00403227
-1.32846e-07
-1.08589e-07
0.00403207
3.98433e-08
4.368e-08
0.00403217
1.62747e-07
7.38402e-08
0.00403224
-1.77629e-07
-1.27768e-07
3.23612e-07
1.64838e-07
0.00366545
-3.85429e-07
1.92091e-08
0.00366535
1.60829e-07
-2.07363e-07
0.00366543
9.68368e-08
2.51695e-07
0.00366533
-5.37851e-08
-1.97099e-07
0.0036653
3.28547e-08
4.96924e-08
0.00366544
-1.63796e-07
8.07726e-08
0.00366536
-4.04056e-09
-8.99436e-08
0.00366541
2.1191e-08
5.71201e-08
0.00366538
-9.18431e-08
-1.55966e-07
0.00366532
1.39995e-07
1.49059e-07
0.00366543
-4.11735e-07
-1.84818e-07
0.00366538
1.89979e-07
1.5335e-07
0.00366551
-1.56096e-07
-1.10527e-07
0.00366524
1.17645e-07
-1.20745e-07
0.00366545
4.93672e-08
2.53357e-07
0.00366541
-4.24917e-07
-2.52117e-07
0.00366539
3.84316e-07
1.86559e-07
0.0036655
-3.88107e-07
-5.47511e-08
0.00366523
4.09462e-07
-1.97878e-08
0.00366551
-2.30963e-07
9.92671e-08
0.0036653
-3.23658e-08
-5.52844e-08
0.0036655
1.31281e-07
9.32301e-08
0.0036654
-1.59106e-07
-1.07451e-07
0.0036653
4.45199e-07
9.95579e-08
0.00366547
-3.65992e-07
7.76498e-08
0.00366532
2.34435e-07
-1.03818e-07
0.00366549
-9.1011e-08
1.11101e-07
0.00366531
2.05461e-07
-2.14509e-08
0.00366538
9.10948e-08
1.4205e-08
0.00366534
2.06302e-08
8.46412e-08
0.00366538
1.44416e-08
-1.08343e-07
0.00366537
-1.10286e-07
1.25295e-07
0.00366539
3.2601e-07
-2.50747e-08
0.00366535
-1.8788e-07
-3.74537e-08
0.00366529
2.44741e-07
1.03751e-07
0.00366552
-3.10629e-07
-5.06675e-08
0.00366526
2.45438e-07
2.52917e-08
0.00366546
3.04605e-08
7.98155e-08
0.00366536
-6.21358e-08
-1.19549e-07
2.81446e-07
1.41255e-07
0.00333198
-3.15728e-07
2.81556e-08
0.00333198
1.04645e-07
-1.92312e-07
0.00333201
1.4921e-07
2.08283e-07
0.00333189
3.71923e-08
-1.87187e-07
0.00333187
-6.38891e-08
1.48894e-07
0.00333205
-1.94392e-07
-6.24499e-08
0.00333196
-2.91638e-08
1.27033e-08
0.00333199
1.05697e-07
1.90449e-09
0.00333193
-1.01801e-07
-1.42933e-07
0.00333192
1.16553e-07
2.03675e-07
0.00333205
-5.19725e-07
-2.74609e-07
0.00333198
3.00368e-07
2.15537e-07
0.00333207
-2.25508e-07
-2.02105e-07
0.0033318
3.11237e-07
-4.50549e-08
0.00333206
-1.3613e-07
2.27581e-07
0.00333195
-3.91967e-07
-2.61294e-07
0.00333208
3.6165e-07
1.99012e-07
0.003332
-3.38581e-07
-7.65869e-08
0.00333185
5.47258e-07
2.66987e-08
0.0033321
-4.77485e-07
6.72867e-08
0.00333189
1.32437e-07
-2.75468e-08
0.00333214
-2.53908e-08
5.73887e-08
0.0033319
4.76539e-08
-5.67052e-08
0.00333195
3.96141e-07
6.04406e-08
0.00333198
-3.92699e-07
7.21603e-08
0.00333197
2.31879e-07
-5.82886e-08
0.00333208
-1.53508e-07
8.34849e-08
0.00333188
4.22416e-07
-1.46142e-09
0.00333196
-2.31129e-09
4.6611e-09
0.00333188
1.19946e-07
8.93831e-08
0.00333202
-1.31337e-07
-7.18367e-08
0.00333194
1.14241e-08
6.48775e-08
0.00333199
3.16613e-07
2.92092e-09
0.00333188
-1.23891e-07
-1.12464e-08
0.00333193
2.03949e-07
4.07109e-08
0.00333207
-4.27823e-07
2.63693e-08
0.00333189
4.05927e-07
-3.50613e-08
0.00333205
-7.42936e-08
1.25804e-07
0.00333186
1.27132e-07
-1.21225e-07
1.05066e-07
1.10111e-07
0.0030289
-2.26394e-07
-1.16383e-08
0.00302894
7.06444e-09
-1.57487e-07
0.00302888
3.32656e-07
1.36606e-07
0.00302878
3.55316e-08
-1.39653e-07
0.00302875
-1.01692e-07
1.91261e-07
0.00302902
-3.17382e-07
-1.86724e-07
0.00302886
2.10239e-08
1.21118e-07
0.00302893
1.83472e-07
-9.26942e-08
0.00302878
-9.45805e-08
-7.62322e-08
0.00302886
6.10767e-08
1.94143e-07
0.00302898
-6.55755e-07
-3.10778e-07
0.00302892
4.57592e-07
2.24816e-07
0.00302896
-2.78234e-07
-2.51103e-07
0.00302872
5.14749e-07
4.43791e-08
0.00302897
-3.6046e-07
1.54393e-07
0.00302884
-3.23437e-07
-2.14107e-07
0.00302908
2.64812e-07
1.70735e-07
0.00302882
-1.3971e-07
-8.46786e-08
0.00302883
5.61716e-07
6.47133e-08
0.00302895
-6.45777e-07
5.273e-08
0.00302886
2.19653e-07
-2.48837e-08
0.00302906
-1.5216e-07
3.77104e-08
0.00302878
3.08416e-07
-1.69123e-08
0.0030289
2.95427e-07
1.1001e-08
0.00302882
-3.38715e-07
9.77065e-08
0.00302898
9.90525e-08
-6.8677e-08
0.00302897
-9.68776e-08
7.86989e-08
0.00302882
5.94364e-07
5.64664e-09
0.00302883
-1.33106e-08
5.41508e-09
0.0030288
1.61576e-07
9.97764e-08
0.00302897
-3.00412e-07
-6.5133e-08
0.00302885
1.83736e-07
3.48688e-08
0.00302889
2.9782e-07
3.20085e-08
0.00302876
-1.22068e-08
-1.52756e-08
0.00302888
8.16591e-08
3.26733e-08
0.00302895
-4.72034e-07
5.30136e-08
0.0030289
4.828e-07
-9.28457e-08
0.00302889
-3.77669e-08
1.80841e-07
0.00302875
2.6633e-07
-1.46034e-07
-1.1358e-07
1.26977e-07
0.00275346
-2.28358e-07
-9.00806e-08
0.00275344
-4.15205e-08
-9.31577e-08
0.00275334
5.7765e-07
5.45433e-08
0.00275323
-8.93288e-09
-7.02419e-08
0.00275322
-1.13702e-07
1.75803e-07
0.00275356
-5.3322e-07
-2.37586e-07
0.00275334
1.7075e-07
1.81916e-07
0.00275344
2.26267e-07
-1.57652e-07
0.00275318
1.73836e-09
-1.11223e-08
0.00275339
-1.04166e-07
1.34537e-07
0.00275346
-7.71575e-07
-2.96047e-07
0.00275347
6.00031e-07
1.81083e-07
0.00275339
-2.52144e-07
-2.43411e-07
0.0027532
6.83557e-07
9.5347e-08
0.00275343
-5.97053e-07
8.49183e-08
0.00275336
-2.70898e-07
-1.52964e-07
0.00275362
1.33161e-07
1.20813e-07
0.00275324
1.84662e-07
-7.25788e-08
0.00275335
4.8178e-07
8.38117e-08
0.00275333
-7.28633e-07
4.57754e-08
0.00275347
1.48761e-07
-4.21335e-08
0.00275352
-1.63278e-07
3.51227e-08
0.00275328
5.5586e-07
-1.84443e-09
0.00275334
2.35854e-07
-1.19963e-08
0.00275329
-3.06454e-07
1.12672e-07
0.00275354
-1.13693e-07
-9.6659e-08
0.00275345
5.15149e-08
1.03541e-07
0.00275333
7.48713e-07
-1.53124e-08
0.00275323
7.09898e-08
3.44643e-08
0.0027533
1.00124e-07
9.49837e-08
0.00275347
-4.44146e-07
-6.63664e-08
0.00275337
3.46473e-07
2.15454e-08
0.00275335
3.4364e-07
3.68099e-08
0.00275323
1.05587e-07
-1.46083e-08
0.00275335
-7.48346e-08
4.78445e-08
0.00275346
-5.22306e-07
3.51048e-08
0.00275344
5.3258e-07
-9.49253e-08
0.00275332
1.27616e-07
2.03084e-07
0.00275324
3.39009e-07
-1.66536e-07
-3.01064e-07
1.54174e-07
0.00250311
-3.54001e-07
-1.67698e-07
0.00250298
-2.84726e-09
-3.62545e-08
0.00250289
8.57964e-07
-2.91133e-08
0.00250269
-7.42758e-09
-9.05909e-09
0.00250279
-1.9377e-07
1.25191e-07
0.00250313
-7.9803e-07
-2.20128e-07
0.00250293
3.61797e-07
1.68403e-07
0.00250298
3.05937e-07
-1.65321e-07
0.00250264
1.57107e-07
3.98736e-08
0.00250299
-3.81092e-07
6.68224e-08
0.002503
-8.6224e-07
-2.69628e-07
0.00250311
6.84945e-07
1.13852e-07
0.00250285
-8.35393e-08
-2.02095e-07
0.00250276
7.99399e-07
9.06818e-08
0.00250293
-8.00167e-07
5.29464e-08
0.00250298
-3.07408e-07
-1.23839e-07
0.00250318
2.7508e-08
8.0791e-08
0.00250279
5.69123e-07
-6.13516e-08
0.00250286
4.11701e-07
9.52345e-08
0.00250282
-7.97184e-07
5.02795e-08
0.00250315
-6.79708e-08
-6.14922e-08
0.00250303
-4.4164e-08
2.81412e-08
0.00250286
7.76618e-07
-1.07913e-08
0.00250279
2.86753e-07
-1.28225e-08
0.00250286
-3.91733e-07
1.09456e-07
0.00250313
-3.41936e-07
-1.10804e-07
0.00250305
2.16318e-07
1.13334e-07
0.00250286
9.70072e-07
-4.1483e-08
0.00250272
2.09718e-07
8.14004e-08
0.00250285
-3.46795e-08
6.99993e-08
0.00250304
-5.94284e-07
-5.34594e-08
0.00250297
4.78435e-07
9.84485e-09
0.00250285
5.10197e-07
3.14463e-08
0.00250275
2.09488e-07
-3.41567e-09
0.00250288
-2.42491e-07
5.65436e-08
0.00250308
-6.43705e-07
1.08855e-08
0.00250301
6.17502e-07
-6.29561e-08
0.00250285
3.65003e-07
1.77899e-07
0.00250273
4.10605e-07
-1.48498e-07
-5.11126e-07
1.61335e-07
0.00227552
-5.57404e-07
-2.07722e-07
0.00227534
8.26541e-08
-2.23191e-08
0.00227519
1.22415e-06
-8.39583e-08
0.00227492
1.91749e-08
5.34755e-08
0.00227517
-3.91899e-07
7.01887e-08
0.00227548
-1.08684e-06
-1.85936e-07
0.00227533
5.67912e-07
1.06754e-07
0.00227524
5.09892e-07
-1.28011e-07
0.00227491
3.43082e-07
9.54091e-09
0.00227533
-7.41524e-07
2.66549e-08
0.00227537
-9.95327e-07
-2.76702e-07
0.00227553
7.6705e-07
6.37537e-08
0.00227509
2.40021e-07
-1.74889e-07
0.00227508
8.70929e-07
7.69053e-08
0.00227519
-9.89888e-07
4.61864e-08
0.00227542
-4.94531e-07
-1.35429e-07
0.00227551
3.43043e-09
5.90598e-08
0.00227514
9.94668e-07
-6.8135e-08
0.00227507
4.29858e-07
1.17045e-07
0.00227515
-9.50789e-07
3.93167e-08
0.00227558
-4.02784e-07
-7.96326e-08
0.00227538
1.49589e-07
1.85116e-08
0.00227519
1.04147e-06
-2.49594e-08
0.002275
4.41519e-07
-1.43682e-08
0.00227524
-6.34358e-07
9.76129e-08
0.0022755
-5.72569e-07
-1.23733e-07
0.00227546
3.71005e-07
1.08316e-07
0.00227513
1.34924e-06
-5.17436e-08
0.002275
3.61418e-07
1.18763e-07
0.00227514
-1.87759e-07
3.24356e-08
0.00227544
-8.28556e-07
-3.1655e-08
0.00227535
6.51968e-07
-3.61274e-08
0.00227513
8.01297e-07
3.23145e-08
0.00227503
3.25135e-07
8.56057e-09
0.0022752
-4.60879e-07
5.58067e-08
0.00227549
-8.48545e-07
-1.44488e-08
0.00227536
7.62804e-07
-4.59404e-08
0.00227516
6.66665e-07
1.48812e-07
0.00227496
5.40424e-07
-1.11592e-07
-8.12402e-07
1.33098e-07
0.00206863
-8.36667e-07
-2.34083e-07
0.00206845
2.00663e-07
-7.65243e-08
0.00206815
1.76041e-06
-1.09605e-07
0.00206787
6.95317e-08
6.24318e-08
0.00206823
-6.9623e-07
3.20036e-08
0.00206856
-1.45394e-06
-1.6639e-07
0.00206846
7.94845e-07
4.45803e-08
0.0020682
9.01597e-07
-8.47382e-08
0.00206789
5.42527e-07
-4.11441e-08
0.00206836
-1.17268e-06
2.10198e-08
0.0020685
-1.24254e-06
-3.3453e-07
0.00206862
8.94823e-07
3.92526e-08
0.00206806
7.08198e-07
-1.81652e-07
0.00206807
9.54584e-07
8.16443e-08
0.00206817
-1.2017e-06
2.98052e-08
0.00206859
-8.48096e-07
-1.62391e-07
0.00206856
5.75264e-08
3.46373e-08
0.00206818
1.49103e-06
-8.2311e-08
0.00206797
5.58529e-07
1.47704e-07
0.00206823
-1.2483e-06
1.31715e-08
0.00206868
-7.97498e-07
-9.68027e-08
0.00206849
3.63078e-07
-4.43653e-09
0.00206818
1.45558e-06
-4.60443e-08
0.00206794
6.6968e-07
-2.0272e-08
0.0020683
-1.00593e-06
9.78048e-08
0.00206861
-8.69328e-07
-1.4708e-07
0.00206857
5.5435e-07
8.35308e-08
0.00206811
1.90426e-06
-5.41515e-08
0.00206797
5.44893e-07
1.49129e-07
0.00206814
-3.72128e-07
-4.84667e-11
0.00206859
-1.20178e-06
-1.74655e-08
0.00206842
9.21579e-07
-1.00455e-07
0.00206813
1.20841e-06
3.43044e-08
0.00206798
5.09744e-07
1.56071e-08
0.00206826
-7.8288e-07
5.4626e-08
0.00206859
-1.14863e-06
-3.72374e-08
0.00206845
9.55978e-07
-5.82853e-08
0.00206815
1.09423e-06
1.2979e-07
0.0020679
7.46571e-07
-7.95504e-08
-1.23552e-06
8.2079e-08
0.00188059
-1.25438e-06
-2.66575e-07
0.00188039
3.61259e-07
-1.56273e-07
0.00187993
2.52017e-06
-1.23461e-07
0.00187966
1.75768e-07
2.17213e-08
0.0018801
-1.09953e-06
1.68527e-08
0.00188051
-1.95374e-06
-1.92479e-07
0.00188039
1.08352e-06
-1.09687e-08
0.00187997
1.50387e-06
-6.558e-08
0.00187968
7.8139e-07
-9.4739e-08
0.00188022
-1.70715e-06
1.85462e-08
0.00188049
-1.64952e-06
-4.30449e-07
0.00188053
1.11361e-06
2.59451e-08
0.00187987
1.33452e-06
-2.11281e-07
0.00187985
1.11017e-06
1.06477e-07
0.00188001
-1.49895e-06
-6.20534e-09
0.00188058
-1.37813e-06
-1.84592e-07
0.00188046
1.65358e-07
-1.52189e-08
0.00188001
2.12685e-06
-9.2664e-08
0.0018797
8.04684e-07
1.61972e-07
0.00188014
-1.70297e-06
-1.51686e-08
0.0018806
-1.27375e-06
-1.27986e-07
0.00188045
6.05632e-07
-5.11527e-08
0.00187995
2.10439e-06
-7.85427e-08
0.00187972
9.51784e-07
-3.24222e-08
0.00188016
-1.49084e-06
1.01299e-07
0.00188059
-1.31055e-06
-1.91157e-07
0.0018805
8.24096e-07
5.42396e-08
0.00187992
2.65387e-06
-5.36085e-08
0.00187973
8.32768e-07
1.70301e-07
0.00187999
-6.62582e-07
-2.36797e-08
0.00188057
-1.74438e-06
-1.83402e-08
0.00188032
1.30552e-06
-1.70014e-07
0.00187995
1.79575e-06
3.22195e-08
0.00187973
7.95532e-07
1.52512e-08
0.00188015
-1.25895e-06
5.01721e-08
0.00188053
-1.53348e-06
-7.25635e-08
0.0018804
1.19552e-06
-8.83515e-08
0.00187992
1.73545e-06
1.15909e-07
0.00187969
1.05572e-06
-6.74036e-08
-1.75144e-06
1.46885e-08
0.0017097
-1.88313e-06
-3.3431e-07
0.00170944
6.04772e-07
-2.63466e-07
0.00170882
3.56038e-06
-1.4649e-07
0.00170853
4.21557e-07
-3.73571e-08
0.00170908
-1.64129e-06
1.06771e-08
0.00170961
-2.66913e-06
-2.48825e-07
0.00170945
1.48581e-06
-9.07507e-08
0.00170886
2.39459e-06
-8.25786e-08
0.00170856
1.14407e-06
-1.45032e-07
0.00170919
-2.41276e-06
-9.66436e-09
0.00170959
-2.26816e-06
-5.45674e-07
0.00170955
1.409e-06
-1.42321e-09
0.00170879
2.18464e-06
-2.53619e-07
0.00170871
1.40854e-06
1.3839e-07
0.00170897
-1.93366e-06
-5.77242e-08
0.00170967
-2.10357e-06
-2.21924e-07
0.0017095
3.57652e-07
-1.40298e-07
0.00170893
2.99746e-06
-9.63415e-08
0.00170854
1.18936e-06
1.62519e-07
0.00170914
-2.31666e-06
-4.52228e-08
0.00170967
-1.89597e-06
-1.95978e-07
0.00170953
9.034e-07
-1.18088e-07
0.00170883
3.05099e-06
-1.31758e-07
0.0017086
1.32639e-06
-4.49965e-08
0.00170912
-2.11807e-06
1.04332e-07
0.00170971
-1.96542e-06
-2.56176e-07
0.00170954
1.20098e-06
1.12369e-08
0.00170884
3.64093e-06
-5.12652e-08
0.00170857
1.3028e-06
1.89877e-07
0.00170897
-1.10403e-06
-6.11735e-08
0.00170964
-2.43084e-06
-5.46801e-08
0.00170937
1.7766e-06
-2.52964e-07
0.00170885
2.68639e-06
-2.12588e-09
0.00170859
1.21363e-06
9.15039e-09
0.00170914
-1.90547e-06
4.50613e-08
0.00170961
-2.088e-06
-1.31861e-07
0.00170947
1.50866e-06
-1.35704e-07
0.00170879
2.68221e-06
8.04466e-08
0.00170857
1.46256e-06
-5.47131e-08
-2.39398e-06
-3.81877e-08
0.00155438
-2.80904e-06
-4.28485e-07
0.00155405
9.3866e-07
-3.94256e-07
0.00155327
4.97896e-06
-1.93477e-07
0.00155292
9.19412e-07
-9.93166e-08
0.00155361
-2.39552e-06
-1.27447e-08
0.00155426
-3.65978e-06
-3.47168e-07
0.00155406
2.01237e-06
-1.94708e-07
0.00155329
3.68325e-06
-1.36841e-07
0.00155296
1.73269e-06
-1.97686e-07
0.00155372
-3.34029e-06
-6.13291e-08
0.00155426
-3.16461e-06
-6.83646e-07
0.00155414
1.80956e-06
-7.83012e-08
0.00155326
3.38131e-06
-3.07437e-07
0.0015531
1.92522e-06
1.50522e-07
0.00155349
-2.55951e-06
-1.20414e-07
0.00155431
-3.09714e-06
-2.85667e-07
0.00155412
6.22275e-07
-2.97662e-07
0.00155339
4.22711e-06
-1.14159e-07
0.00155292
1.77605e-06
1.42903e-07
0.00155368
-3.10984e-06
-7.96677e-08
0.00155432
-2.75557e-06
-3.02501e-07
0.00155416
1.29475e-06
-2.02082e-07
0.00155326
4.39699e-06
-2.19975e-07
0.001553
1.87143e-06
-5.92787e-08
0.00155363
-2.94749e-06
1.00062e-07
0.00155441
-2.91398e-06
-3.34875e-07
0.00155414
1.71641e-06
-9.05722e-08
0.00155331
4.991e-06
-5.94282e-08
0.00155294
2.03944e-06
1.91885e-07
0.00155352
-1.74771e-06
-1.01385e-07
0.00155429
-3.32028e-06
-1.20555e-07
0.00155399
2.33694e-06
-3.57092e-07
0.00155328
4.02341e-06
-4.77458e-08
0.001553
1.80315e-06
-2.35224e-09
0.00155367
-2.73515e-06
1.40356e-08
0.00155427
-2.92311e-06
-2.16482e-07
0.00155408
1.93883e-06
-2.05614e-07
0.00155323
4.03261e-06
4.17505e-09
0.00155298
2.08036e-06
-4.72787e-08
-3.19772e-06
-1.27344e-07
0.0014132
-4.11425e-06
-5.76336e-07
0.00141281
1.36693e-06
-5.76275e-07
0.00141184
6.92386e-06
-2.64016e-07
0.00141141
1.75583e-06
-1.94225e-07
0.00141228
-3.40344e-06
-5.21558e-08
0.00141308
-5.05924e-06
-4.76826e-07
0.00141283
2.68712e-06
-3.4822e-07
0.00141184
5.54075e-06
-2.27194e-07
0.00141147
2.61129e-06
-2.62397e-07
0.00141237
-4.52628e-06
-1.77783e-07
0.00141308
-4.45409e-06
-8.62758e-07
0.00141289
2.30697e-06
-2.14756e-07
0.00141185
5.04191e-06
-3.67532e-07
0.00141161
2.77755e-06
1.39886e-07
0.00141213
-3.41545e-06
-1.99306e-07
0.0014131
-4.4633e-06
-4.17294e-07
0.0014129
9.50756e-07
-5.01183e-07
0.00141196
5.96523e-06
-1.46894e-07
0.00141143
2.67283e-06
1.1333e-07
0.00141234
-4.10479e-06
-1.37965e-07
0.00141312
-3.97118e-06
-4.70341e-07
0.00141293
1.79959e-06
-3.23358e-07
0.00141182
6.28101e-06
-3.41157e-07
0.00141151
2.72425e-06
-7.4126e-08
0.00141228
-4.03466e-06
6.82775e-08
0.00141325
-4.24944e-06
-4.53057e-07
0.0014129
2.3781e-06
-2.50842e-07
0.0014119
6.86103e-06
-7.21323e-08
0.00141143
3.16831e-06
1.61929e-07
0.00141218
-2.62003e-06
-1.6103e-07
0.00141308
-4.52415e-06
-2.45254e-07
0.00141277
3.00756e-06
-4.95465e-07
0.00141183
5.98257e-06
-1.31924e-07
0.00141153
2.68281e-06
-2.42331e-08
0.00141232
-3.81525e-06
-2.81925e-08
0.0014131
-4.18598e-06
-3.43406e-07
0.00141283
2.52411e-06
-3.2719e-07
0.0014118
5.90439e-06
-7.62047e-08
0.00141148
3.049e-06
-4.53822e-08
-4.22987e-06
-2.59275e-07
0.00128489
-5.95047e-06
-7.92505e-07
0.00128443
1.91714e-06
-8.3314e-07
0.00128324
9.64249e-06
-3.7727e-07
0.00128273
3.10752e-06
-3.14448e-07
0.00128379
-4.7142e-06
-1.47016e-07
0.00128476
-7.03114e-06
-6.79014e-07
0.00128444
3.55619e-06
-5.78974e-07
0.00128324
8.19368e-06
-3.58351e-07
0.00128279
3.95255e-06
-3.43626e-07
0.00128388
-6.06028e-06
-3.45125e-07
0.00128475
-6.29506e-06
-1.10857e-06
0.0012845
2.9062e-06
-4.33679e-07
0.00128327
7.39941e-06
-4.54883e-07
0.00128294
4.11795e-06
1.02487e-07
0.00128361
-4.57695e-06
-2.93021e-07
0.00128476
-6.35624e-06
-6.41352e-07
0.00128454
1.38178e-06
-7.79658e-07
0.00128337
8.43271e-06
-2.1792e-07
0.00128277
4.04521e-06
7.23458e-08
0.00128383
-5.35513e-06
-2.29336e-07
0.00128481
-5.70188e-06
-7.05078e-07
0.00128455
2.48773e-06
-5.20203e-07
0.00128323
8.93271e-06
-5.09799e-07
0.00128283
4.04323e-06
-9.50997e-08
0.00128378
-5.46917e-06
1.50219e-08
0.00128495
-6.11787e-06
-6.28133e-07
0.00128453
3.21016e-06
-5e-07
0.00128332
9.51723e-06
-1.12224e-07
0.00128274
4.87005e-06
9.32146e-08
0.00128368
-3.78331e-06
-2.37945e-07
0.00128476
-6.20348e-06
-4.40195e-07
0.0012844
3.85331e-06
-6.95048e-07
0.00128321
8.80746e-06
-2.64293e-07
0.00128287
4.0213e-06
-5.74194e-08
0.00128381
-5.21965e-06
-1.21856e-07
0.00128481
-6.03685e-06
-5.34452e-07
0.00128443
3.31927e-06
-5.24349e-07
0.00128322
8.53412e-06
-2.01296e-07
0.0012828
4.56882e-06
-5.62435e-08
-5.57993e-06
-4.3039e-07
0.00116831
-8.51477e-06
-1.11901e-06
0.00116777
2.64594e-06
-1.19631e-06
0.00116631
1.34692e-05
-5.28025e-07
0.00116573
5.20224e-06
-4.33118e-07
0.001167
-6.43385e-06
-2.63901e-07
0.00116819
-9.81193e-06
-9.78344e-07
0.00116776
4.699e-06
-9.27195e-07
0.0011663
1.1974e-05
-5.2253e-07
0.00116577
5.96321e-06
-4.05631e-07
0.00116709
-8.07795e-06
-5.45548e-07
0.00116816
-8.89941e-06
-1.45876e-06
0.00116781
3.6883e-06
-7.49388e-07
0.00116635
1.07722e-05
-5.56787e-07
0.00116595
6.13474e-06
1.05703e-07
0.0011668
-6.17114e-06
-4.00582e-07
0.00116816
-8.98122e-06
-1.00321e-06
0.00116787
1.99652e-06
-1.17411e-06
0.00116645
1.19326e-05
-3.16435e-07
0.00116578
6.07719e-06
8.4139e-08
0.00116704
-6.97496e-06
-3.39275e-07
0.00116822
-8.15277e-06
-1.05438e-06
0.00116787
3.45899e-06
-8.35517e-07
0.00116631
1.26887e-05
-7.12794e-07
0.00116583
6.05004e-06
-9.65172e-08
0.001167
-7.37626e-06
-6.10942e-08
0.00116837
-8.69947e-06
-9.08957e-07
0.00116787
4.30215e-06
-8.60388e-07
0.00116641
1.33047e-05
-1.86113e-07
0.00116575
7.388e-06
2.47928e-08
0.00116688
-5.34022e-06
-3.27105e-07
0.00116816
-8.54969e-06
-7.49515e-07
0.00116773
4.97223e-06
-1.00014e-06
0.00116627
1.28421e-05
-4.39439e-07
0.00116587
6.04518e-06
-6.91083e-08
0.00116702
-7.11352e-06
-2.39646e-07
0.00116823
-8.6766e-06
-8.34495e-07
0.00116775
4.42121e-06
-8.50042e-07
0.0011663
1.22819e-05
-3.73641e-07
0.00116578
6.85801e-06
-6.1271e-08
-7.36867e-06
-6.26752e-07
0.00106256
-1.2034e-05
-1.50318e-06
0.00106179
3.78091e-06
-1.7439e-06
0.00106005
1.8792e-05
-7.28327e-07
0.00105952
8.10477e-06
-3.73205e-07
0.00106111
-8.89682e-06
-1.95783e-07
0.00106243
-1.35884e-05
-1.36227e-06
0.00106172
6.38463e-06
-1.47043e-06
0.00105998
1.72536e-05
-7.20288e-07
0.00105953
8.67276e-06
-2.95611e-07
0.00106121
-1.09588e-05
-5.48917e-07
0.00106238
-1.24734e-05
-1.8797e-06
0.0010618
4.93387e-06
-1.27558e-06
0.00106007
1.5503e-05
-6.85609e-07
0.00105972
8.7773e-06
3.87854e-07
0.00106086
-8.54869e-06
-3.26232e-07
0.00106239
-1.2537e-05
-1.48677e-06
0.00106185
3.06219e-06
-1.79205e-06
0.00106015
1.68058e-05
-4.51452e-07
0.00105956
8.72255e-06
3.83421e-07
0.00106114
-9.31924e-06
-2.37835e-07
0.00106247
-1.15296e-05
-1.48618e-06
0.00106186
4.96003e-06
-1.36716e-06
0.00106006
1.79056e-05
-9.38422e-07
0.00105964
8.72361e-06
1.5491e-07
0.00106113
-1.00819e-05
4.55365e-08
0.00106262
-1.21583e-05
-1.27796e-06
0.00106188
5.93968e-06
-1.43026e-06
0.00106015
1.86429e-05
-3.28632e-07
0.00105953
1.07136e-05
2.18685e-07
0.00106096
-7.62051e-06
-2.10633e-07
0.00106238
-1.17771e-05
-1.12963e-06
0.00106171
6.68289e-06
-1.5276e-06
0.00105997
1.84709e-05
-6.40044e-07
0.00105966
8.75958e-06
1.48867e-07
0.00106114
-9.85452e-06
-1.71126e-07
0.00106246
-1.22718e-05
-1.23978e-06
0.00106172
6.07752e-06
-1.41585e-06
0.00106
1.75738e-05
-6.0127e-07
0.00105954
9.92287e-06
1.53423e-07
-9.98104e-06
-6.00291e-07
0.00096699
-1.63732e-05
-1.7152e-06
0.000965594
5.62782e-06
-2.66717e-06
0.000963706
2.54215e-05
-9.86578e-07
0.00096366
1.11373e-05
5.27497e-07
0.000965732
-1.25812e-05
7.29205e-07
0.000966799
-1.81908e-05
-1.68533e-06
0.00096535
9.00264e-06
-2.49139e-06
0.00096347
2.38012e-05
-9.80159e-07
0.000963587
1.12855e-05
6.8474e-07
0.000965817
-1.52168e-05
3.58182e-07
0.000966754
-1.68759e-05
-2.17274e-06
0.000965541
6.87575e-06
-2.24376e-06
0.000963603
2.13964e-05
-8.78775e-07
0.000963712
1.13343e-05
1.43349e-06
0.00096537
-1.22205e-05
5.81617e-07
0.000966738
-1.68581e-05
-1.9361e-06
0.000965528
4.88397e-06
-2.87329e-06
0.000963662
2.2804e-05
-6.58176e-07
0.000963604
1.1211e-05
1.48107e-06
0.000965704
-1.29461e-05
7.77881e-07
0.00096685
-1.56819e-05
-1.83846e-06
0.000965628
7.23706e-06
-2.34754e-06
0.000963739
2.43026e-05
-1.15756e-06
0.00096387
1.11962e-05
1.36035e-06
0.000965766
-1.39655e-05
9.19505e-07
0.00096699
-1.63231e-05
-1.62591e-06
0.000965648
8.30795e-06
-2.45721e-06
0.00096376
2.5293e-05
-5.99983e-07
0.000963672
1.40704e-05
1.24052e-06
0.000965482
-1.11001e-05
7.55953e-07
0.000966675
-1.57913e-05
-1.47273e-06
0.000965377
9.23268e-06
-2.56576e-06
0.000963516
2.53834e-05
-8.69982e-07
0.000963795
1.1337e-05
1.26103e-06
0.000965737
-1.38783e-05
7.4448e-07
0.000966766
-1.66077e-05
-1.6504e-06
0.000965382
8.6397e-06
-2.52519e-06
0.000963475
2.42117e-05
-8.90213e-07
0.000963604
1.2924e-05
1.2035e-06
-1.3991e-05
4.34104e-07
0.000880279
-2.02834e-05
-1.73486e-06
0.000878096
7.84224e-06
-4.49421e-06
0.000876775
3.13713e-05
-1.27282e-06
0.000877777
1.25634e-05
3.365e-06
0.000880016
-1.69825e-05
3.19635e-06
0.000880024
-2.23079e-05
-2.08465e-06
0.00087761
1.22778e-05
-4.63043e-06
0.000876231
2.96091e-05
-1.37983e-06
0.000877458
1.21974e-05
3.46009e-06
0.000879968
-2.03282e-05
2.91218e-06
0.000880024
-2.08806e-05
-2.37036e-06
0.000878017
9.12754e-06
-4.2224e-06
0.000876384
2.66772e-05
-1.29586e-06
0.000877413
1.23499e-05
3.96149e-06
0.000879381
-1.66956e-05
3.00245e-06
0.000879907
-2.07585e-05
-2.34591e-06
0.000877824
7.08184e-06
-4.92197e-06
0.000876383
2.79669e-05
-1.00607e-06
0.000877419
1.19792e-05
4.19066e-06
0.000879807
-1.74161e-05
3.36755e-06
0.000880091
-1.94898e-05
-2.06314e-06
0.000878117
9.70194e-06
-4.31192e-06
0.0008768
2.98152e-05
-1.34974e-06
0.000878042
1.19157e-05
4.39621e-06
0.000879977
-1.84389e-05
3.20536e-06
0.00088024
-2.00542e-05
-2.02644e-06
0.000878092
1.09504e-05
-4.41628e-06
0.000876682
3.11141e-05
-1.02782e-06
0.000877762
1.56856e-05
3.94227e-06
0.000879652
-1.52677e-05
3.13399e-06
0.00087983
-1.95592e-05
-1.93361e-06
0.000877753
1.20381e-05
-4.67144e-06
0.000876405
3.14671e-05
-1.20791e-06
0.000877825
1.21946e-05
4.0298e-06
0.000879928
-1.85954e-05
3.14597e-06
0.000879887
-2.04238e-05
-2.20073e-06
0.000877681
1.15311e-05
-4.69175e-06
0.000876193
3.02454e-05
-1.27768e-06
0.000877558
1.41758e-05
3.83207e-06
-1.89003e-05
3.12667e-06
0.000799368
-2.18047e-05
-2.81947e-06
0.000797566
8.72755e-06
-7.80054e-06
0.000798355
3.36292e-05
-1.08717e-06
0.000800167
1.20223e-05
8.30533e-06
0.00080097
-1.9356e-05
6.86542e-06
0.00079929
-2.39495e-05
-3.85844e-06
0.000797155
1.45936e-05
-8.43057e-06
0.000797564
3.16942e-05
-1.38934e-06
0.000799382
1.13083e-05
8.19613e-06
0.000800587
-2.36051e-05
6.54947e-06
0.000799361
-2.26591e-05
-3.71192e-06
0.000797731
1.00671e-05
-7.78351e-06
0.000797653
2.87856e-05
-1.53303e-06
0.000799201
1.16534e-05
8.28382e-06
0.000799975
-1.92013e-05
6.458e-06
0.000799083
-2.24394e-05
-3.82438e-06
0.000797251
7.95595e-06
-8.50495e-06
0.00079756
2.9455e-05
-9.22701e-07
0.000799368
1.08745e-05
8.8836e-06
0.000800421
-1.99515e-05
7.1747e-06
0.000799234
-2.11675e-05
-3.29245e-06
0.000797768
1.02485e-05
-7.75394e-06
0.000798296
3.14012e-05
-8.2254e-07
0.000800173
1.0833e-05
9.72772e-06
0.000800594
-2.08018e-05
6.44823e-06
0.000799404
-2.15624e-05
-3.6746e-06
0.000797615
1.20053e-05
-7.77628e-06
0.000797987
3.31483e-05
-1.11229e-06
0.000800096
1.49827e-05
8.65675e-06
0.000800653
-1.76336e-05
6.45172e-06
0.000799131
-2.1381e-05
-3.71733e-06
0.000797575
1.30052e-05
-8.32621e-06
0.000798043
3.3657e-05
-1.05e-06
0.000800054
1.11242e-05
8.76813e-06
0.000800738
-2.12324e-05
6.50668e-06
0.000799064
-2.19213e-05
-4.15135e-06
0.00079723
1.27362e-05
-8.32909e-06
0.000797576
3.26252e-05
-1.18466e-06
0.00079983
1.32477e-05
8.40335e-06
-2.18651e-05
7.02488e-06
0.000721425
-2.06908e-05
-7.01305e-06
0.000722225
6.88093e-06
-1.24396e-05
0.000726115
3.17212e-05
1.06053e-06
0.000727207
1.19917e-05
1.47255e-05
0.00072465
-1.74055e-05
9.40865e-06
0.0007221
-2.29543e-05
-8.81641e-06
0.000722764
1.41701e-05
-1.33946e-05
0.000725457
2.96983e-05
6.68233e-07
0.000725898
1.1344e-05
1.43746e-05
0.000723947
-2.24047e-05
8.95493e-06
0.000722266
-2.20657e-05
-8.20833e-06
0.00072328
8.27021e-06
-1.27132e-05
0.000725529
2.7417e-05
1.06839e-07
0.000725922
1.19638e-05
1.40536e-05
0.000723669
-1.73089e-05
8.97733e-06
0.000721975
-2.17987e-05
-8.17596e-06
0.000722496
6.18486e-06
-1.32169e-05
0.000725272
2.71081e-05
1.30707e-06
0.000726101
1.08667e-05
1.51809e-05
0.000723759
-1.77982e-05
9.925e-06
0.000721599
-2.05939e-05
-7.53777e-06
0.000722944
7.48249e-06
-1.26538e-05
0.000725803
2.89549e-05
1.97572e-06
0.000726343