/*--------------------------------*- C++ -*----------------------------------*\
  =========                 |
  \\      /  F ield         | OpenFOAM: The Open Source CFD Toolbox
   \\    /   O peration     | Website:  https://openfoam.org
    \\  /    A nd           | Version:  10
     \\/     M anipulation  |
\*---------------------------------------------------------------------------*/
FoamFile
{
    format      ascii;
    class       volSymmTensorField;
    location    "7.5";
    object      UPrime2Mean;
}
// * * * * * * * * * * * * * * * * * * * * * * * * * * * * * * * * * * * * * //

dimensions      [0 2 -2 0 0 0 0];

internalField   nonuniform List<symmTensor> 
25600
(
(2.88209e-05 -3.02406e-09 -2.19838e-09 6.49327e-10 2.22566e-11 5.00255e-11)
(2.88552e-05 -9.8625e-09 -1.13379e-09 4.68943e-10 1.09317e-11 4.77715e-11)
(2.88566e-05 -1.24743e-08 -4.86202e-09 4.81215e-10 2.32799e-11 3.78987e-11)
(2.88316e-05 -1.6806e-08 -3.37119e-09 4.41449e-10 2.40957e-11 3.3698e-11)
(2.88524e-05 -9.19928e-09 -3.04307e-09 4.12701e-10 3.32645e-12 2.62427e-11)
(2.88471e-05 -1.41868e-08 -2.06269e-09 3.87029e-10 -1.57318e-11 1.86412e-11)
(2.88498e-05 -1.56738e-08 -1.53016e-09 4.9646e-10 -2.34411e-11 1.80262e-11)
(2.88615e-05 1.21995e-09 -3.74334e-09 5.06002e-10 -1.81853e-11 2.47852e-11)
(2.88458e-05 -1.79836e-08 -6.23979e-09 4.73084e-10 1.124e-11 4.06915e-11)
(2.88577e-05 -2.86754e-09 2.96296e-09 4.24038e-10 -3.30116e-11 4.12199e-11)
(2.88486e-05 1.40481e-10 -5.88651e-09 4.8391e-10 -7.10211e-11 5.87541e-11)
(2.88568e-05 3.7777e-09 1.14199e-09 4.90341e-10 -8.29668e-11 6.94021e-11)
(2.88465e-05 -1.39034e-09 -3.61362e-10 3.90569e-10 -1.80281e-11 8.79329e-11)
(2.88824e-05 7.6917e-10 -9.51204e-09 3.58172e-10 4.16232e-11 1.00973e-10)
(2.88431e-05 1.24844e-08 7.18063e-09 3.66934e-10 -1.72112e-11 5.49835e-11)
(2.88589e-05 -6.45561e-09 -3.48772e-09 5.18074e-10 -3.05395e-11 3.29583e-11)
(2.88701e-05 2.71944e-08 7.91247e-10 4.09693e-10 4.05722e-13 2.82934e-11)
(2.88373e-05 1.24252e-09 6.44281e-10 3.87566e-10 7.67006e-12 4.86902e-11)
(2.88649e-05 1.61374e-08 -3.2577e-09 7.6718e-10 5.14226e-11 9.16951e-11)
(2.88503e-05 1.63355e-08 6.58049e-09 1.08616e-09 9.75455e-11 1.19976e-10)
(2.88392e-05 2.94709e-09 -4.38568e-09 7.58301e-10 1.61803e-11 1.22234e-10)
(2.88528e-05 2.67741e-08 1.05561e-09 7.86419e-10 -6.41491e-11 1.09704e-10)
(2.88316e-05 -2.97743e-09 4.33265e-09 8.42409e-10 -2.43347e-11 8.03733e-11)
(2.88535e-05 9.85262e-09 -1.45049e-09 7.32288e-10 -6.45399e-12 5.39086e-11)
(2.88345e-05 1.5032e-09 3.00149e-09 8.33245e-10 1.17107e-11 4.60736e-11)
(2.88386e-05 -3.99017e-09 2.8043e-10 6.54735e-10 2.9706e-11 4.62167e-11)
(2.88393e-05 7.21188e-09 1.22306e-09 4.72938e-10 1.88585e-11 4.91492e-11)
(2.88375e-05 -3.74476e-09 2.68914e-09 5.25308e-10 -7.16927e-12 4.51189e-11)
(2.88393e-05 3.58268e-10 1.25443e-10 5.06724e-10 -1.27575e-11 3.31678e-11)
(2.88388e-05 -1.2855e-08 -1.89446e-09 4.53138e-10 -1.80778e-11 2.16888e-11)
(2.8831e-05 -3.98284e-09 -1.35623e-09 3.86932e-10 -9.96469e-12 1.28435e-11)
(2.88427e-05 -3.25734e-09 1.55472e-09 4.34644e-10 6.47733e-12 9.75525e-12)
(2.88478e-05 -4.06308e-09 -3.12315e-09 5.5065e-10 -2.71006e-11 1.43177e-11)
(2.8833e-05 -1.33815e-08 -9.16729e-10 5.94726e-10 -5.15808e-11 2.38132e-11)
(2.88416e-05 -9.86541e-09 -4.31396e-09 6.14835e-10 -6.01232e-11 2.84018e-11)
(2.88331e-05 -8.7547e-09 -5.9546e-09 5.82623e-10 -5.53564e-11 3.28481e-11)
(2.88526e-05 -1.15063e-08 -3.71325e-09 5.71698e-10 -4.80392e-11 3.98161e-11)
(2.88423e-05 -4.06993e-09 -2.0553e-09 5.66767e-10 -3.7926e-11 4.63747e-11)
(2.88307e-05 -1.2952e-08 -1.88017e-10 5.73202e-10 3.48556e-12 5.76259e-11)
(2.88608e-05 3.14862e-09 -9.41859e-09 7.83645e-10 3.11237e-11 5.39888e-11)
(2.88192e-05 -2.07324e-08 -4.86849e-09 1.30713e-10 5.17267e-11 5.45419e-11)
(2.88525e-05 -5.3914e-09 3.75191e-11 1.49568e-10 6.66255e-11 6.14004e-11)
(2.8848e-05 -2.071e-08 1.16981e-10 1.71578e-10 6.81528e-11 6.893e-11)
(2.88375e-05 -1.87192e-08 -6.32857e-09 1.70119e-10 5.2554e-11 6.99616e-11)
(2.88597e-05 -7.29714e-09 2.9592e-09 2.10411e-10 2.61728e-11 5.58168e-11)
(2.88457e-05 -1.82289e-08 6.48248e-10 2.33789e-10 2.72961e-11 5.12105e-11)
(2.88644e-05 -5.78377e-09 -2.26172e-09 1.88706e-10 2.0864e-11 3.97052e-11)
(2.88484e-05 -9.20791e-09 -2.24225e-10 1.82442e-10 8.11232e-12 3.40251e-11)
(2.8855e-05 -1.26025e-08 -4.95987e-09 1.46925e-10 -2.26912e-12 4.23157e-11)
(2.8859e-05 -1.19876e-09 4.53917e-09 9.77331e-11 -3.48424e-11 2.7018e-11)
(2.88578e-05 -7.89675e-09 -2.11387e-09 1.33548e-10 -1.3872e-11 2.82332e-11)
(2.88515e-05 8.35078e-09 2.52607e-09 1.30328e-10 -2.27012e-12 2.85211e-11)
(2.88527e-05 -5.61806e-09 -4.36545e-09 1.83165e-10 1.45266e-11 3.72944e-11)
(2.88937e-05 8.02237e-09 -2.76949e-09 1.57839e-10 1.10119e-11 5.11478e-11)
(2.8841e-05 1.21442e-08 6.1797e-09 1.50747e-10 -1.14231e-11 4.42704e-11)
(2.88668e-05 2.71678e-09 -3.7263e-09 2.33265e-10 -1.35292e-11 4.72437e-11)
(2.88657e-05 2.66325e-08 4.61516e-09 2.55017e-10 -1.03682e-11 6.25452e-11)
(2.88306e-05 7.66354e-10 -2.90774e-09 3.40551e-10 1.3193e-11 9.13409e-11)
(2.88747e-05 2.8234e-08 1.62113e-09 4.1442e-10 1.58184e-11 1.12749e-10)
(2.88295e-05 8.78223e-09 2.8653e-09 5.19663e-10 2.35432e-11 1.14056e-10)
(2.88533e-05 1.38157e-08 -3.16347e-09 6.47112e-10 3.10881e-11 8.91132e-11)
(2.88421e-05 2.39674e-08 2.83437e-09 6.76853e-10 3.37699e-11 5.85766e-11)
(2.88288e-05 1.79828e-10 2.67097e-10 6.42357e-10 6.79174e-11 4.79315e-11)
(2.88514e-05 2.37494e-08 3.53167e-09 6.29494e-10 1.15648e-10 5.58607e-11)
(2.88173e-05 -3.00372e-09 -3.51911e-10 4.95754e-10 1.27106e-10 6.84045e-11)
(2.88416e-05 1.21673e-08 -4.29951e-10 3.62036e-10 1.08624e-10 8.18595e-11)
(2.88253e-05 3.33124e-09 4.56062e-09 2.77145e-10 7.69928e-11 7.91341e-11)
(2.88248e-05 1.1941e-09 -1.16612e-09 2.58641e-10 4.57422e-11 5.82479e-11)
(2.88254e-05 9.08086e-10 1.59914e-09 2.27626e-10 3.36863e-11 3.94627e-11)
(2.88227e-05 -1.10927e-08 -1.8255e-09 1.89728e-10 2.82635e-11 2.60954e-11)
(2.88302e-05 -3.55765e-09 -1.60811e-09 1.21083e-10 2.69273e-11 2.32935e-11)
(2.88335e-05 -7.64144e-09 3.75243e-09 1.08717e-10 1.91444e-11 2.87549e-11)
(2.88353e-05 -5.26818e-09 -6.45299e-09 1.58925e-10 -3.64722e-12 3.23221e-11)
(2.88317e-05 -1.94877e-08 1.12287e-10 1.25376e-10 -6.0405e-12 4.19725e-11)
(2.88408e-05 -2.74077e-09 -3.12274e-09 1.29974e-10 -2.21434e-12 4.16319e-11)
(2.88257e-05 -1.80524e-08 -7.28432e-09 7.53169e-11 7.41664e-13 3.40087e-11)
(2.88582e-05 -7.41515e-09 -6.83125e-10 1.09795e-10 8.39451e-12 2.58116e-11)
(2.88282e-05 -1.06296e-08 -4.13662e-09 1.52891e-10 -7.67783e-13 2.28064e-11)
(2.8828e-05 -2.04895e-08 -1.35472e-09 1.00334e-10 -3.72551e-12 3.25023e-11)
(2.88661e-05 -7.49684e-09 -3.41877e-09 1.21153e-10 2.43891e-11 4.35688e-11)
(2.88243e-05 -2.63814e-08 -6.67869e-09 4.14439e-10 1.16718e-10 9.51263e-11)
(2.88523e-05 3.48229e-10 -3.443e-10 4.5794e-10 1.16036e-10 1.02466e-10)
(2.88337e-05 -2.89705e-08 3.31689e-09 3.84134e-10 9.05147e-11 1.20431e-10)
(2.88512e-05 -1.5025e-08 -8.54715e-09 2.68441e-10 3.85484e-11 1.23153e-10)
(2.88564e-05 -1.28091e-08 9.16072e-09 3.22042e-10 -1.41071e-11 9.43181e-11)
(2.88474e-05 -1.87635e-08 -6.83971e-10 3.27371e-10 -2.39458e-11 9.46995e-11)
(2.88685e-05 -7.84411e-09 -1.6305e-09 2.98585e-10 -4.47192e-11 7.50751e-11)
(2.8844e-05 -1.63438e-08 1.88057e-09 3.04634e-10 -6.03193e-11 6.30655e-11)
(2.88642e-05 -8.93308e-09 -2.7969e-09 2.56746e-10 -7.29551e-11 7.10185e-11)
(2.88589e-05 -5.21912e-09 6.33889e-09 3.15005e-10 -8.23795e-11 4.76106e-11)
(2.88685e-05 -1.34709e-08 -1.07642e-09 4.08286e-10 -3.19237e-11 4.11282e-11)
(2.88545e-05 1.15618e-08 5.15528e-09 4.04013e-10 -5.84987e-12 4.21836e-11)
(2.88512e-05 -9.24811e-09 -8.07987e-09 4.81164e-10 8.19304e-12 6.62508e-11)
(2.89086e-05 1.48593e-08 5.48734e-09 3.21262e-10 -3.97056e-11 6.98706e-11)
(2.88358e-05 6.70287e-09 3.89363e-09 2.87107e-10 -5.28616e-11 9.25854e-11)
(2.88788e-05 7.95335e-09 -2.94233e-09 3.90674e-10 -2.89546e-11 1.14838e-10)
(2.88644e-05 2.59484e-08 8.16436e-09 4.20991e-10 -1.52281e-12 1.39997e-10)
(2.88357e-05 1.69229e-09 -5.87075e-09 5.59093e-10 3.77907e-11 1.63617e-10)
(2.88787e-05 3.80889e-08 5.84885e-09 5.93929e-10 3.0435e-11 1.61963e-10)
(2.88198e-05 1.12697e-09 -8.44896e-10 6.51408e-10 5.67854e-11 1.50705e-10)
(2.8866e-05 2.86315e-08 5.43043e-10 7.26527e-10 1.01645e-10 1.31071e-10)
(2.88263e-05 1.39535e-08 2.01624e-09 7.42207e-10 1.45965e-10 1.23537e-10)
(2.88329e-05 1.12218e-08 -1.43573e-09 7.71417e-10 2.02199e-10 1.52912e-10)
(2.88442e-05 2.45908e-08 6.81528e-09 7.93224e-10 2.46233e-10 1.81001e-10)
(2.88119e-05 -4.99226e-09 -2.8184e-09 7.1514e-10 2.18717e-10 1.86552e-10)
(2.88449e-05 2.35955e-08 1.02718e-09 5.75184e-10 1.44874e-10 1.89587e-10)
(2.88148e-05 -7.40339e-09 5.15313e-09 5.12825e-10 9.59997e-11 1.67013e-10)
(2.88264e-05 1.09851e-08 -2.83194e-09 5.12242e-10 7.42243e-11 1.18113e-10)
(2.88138e-05 -6.27468e-09 3.44915e-09 3.83175e-10 5.93389e-11 8.68617e-11)
(2.88228e-05 -4.49285e-09 -1.91743e-09 3.47974e-10 4.46987e-11 6.78274e-11)
(2.88317e-05 -6.91998e-09 4.41635e-12 1.74878e-10 2.08561e-11 6.42962e-11)
(2.88335e-05 -7.88658e-09 3.29585e-09 1.73269e-10 5.33262e-12 7.51121e-11)
(2.88243e-05 -4.50689e-09 -7.97406e-09 2.05548e-10 -2.22035e-11 7.92109e-11)
(2.88347e-05 -2.16527e-08 1.10053e-09 1.72901e-10 -2.37149e-11 8.8585e-11)
(2.8841e-05 2.16395e-09 -4.03725e-09 2.58332e-10 -2.73821e-11 9.15951e-11)
(2.88216e-05 -2.63499e-08 -5.6321e-09 2.0718e-10 -3.61641e-11 9.11906e-11)
(2.88649e-05 5.751e-10 -5.5013e-10 3.12525e-10 -2.1739e-11 8.21801e-11)
(2.88167e-05 -2.09001e-08 -5.0789e-09 2.7533e-10 -1.86647e-11 7.03276e-11)
(2.88352e-05 -1.28154e-08 -2.71356e-09 2.43107e-10 1.60096e-11 8.06123e-11)
(2.88601e-05 -1.03476e-08 2.62069e-10 3.76658e-10 8.21107e-11 9.06569e-11)
(2.88358e-05 -2.46009e-08 -7.45842e-09 7.32829e-10 1.71042e-10 1.52383e-10)
(2.88486e-05 -7.50592e-09 6.84834e-10 7.85247e-10 1.40568e-10 1.508e-10)
(2.88237e-05 -3.09241e-08 5.10418e-09 5.3378e-10 5.82206e-11 1.69617e-10)
(2.88631e-05 -1.63015e-08 -6.96678e-09 3.53333e-10 -2.1885e-11 1.74445e-10)
(2.88538e-05 -1.99068e-08 1.4778e-08 3.6613e-10 -6.38943e-11 1.47254e-10)
(2.88533e-05 -1.78969e-08 -3.64407e-09 3.64366e-10 -6.46611e-11 1.41413e-10)
(2.88686e-05 -1.27403e-08 4.5376e-09 3.9184e-10 -1.18654e-10 1.03899e-10)
(2.88463e-05 -1.65469e-08 1.73655e-09 4.51726e-10 -1.25842e-10 9.62484e-11)
(2.88727e-05 -9.23406e-09 2.1647e-09 4.2853e-10 -1.23081e-10 9.76811e-11)
(2.8852e-05 -9.16123e-09 7.72656e-09 4.82375e-10 -8.94651e-11 7.47987e-11)
(2.8884e-05 -1.65127e-08 -1.45824e-09 6.33688e-10 -4.45224e-12 7.20388e-11)
(2.88579e-05 1.37685e-08 9.18436e-09 6.28737e-10 2.6527e-12 8.28752e-11)
(2.88578e-05 -1.12694e-08 -1.09602e-08 6.66923e-10 3.5785e-11 1.42689e-10)
(2.89191e-05 2.58525e-08 1.45519e-08 4.28081e-10 -5.02391e-11 1.33907e-10)
(2.883e-05 -4.04204e-09 -2.62547e-10 4.91359e-10 -7.08226e-11 1.69374e-10)
(2.88965e-05 2.15398e-08 8.27099e-10 5.61998e-10 -2.02851e-11 1.99152e-10)
(2.8856e-05 2.24759e-08 9.78241e-09 7.2046e-10 7.14587e-11 2.25838e-10)
(2.88494e-05 8.61783e-09 -6.54167e-09 8.75969e-10 1.06819e-10 2.4118e-10)
(2.88746e-05 4.37955e-08 8.83291e-09 7.56679e-10 5.65434e-11 2.20941e-10)
(2.88148e-05 -3.83277e-09 -3.03553e-09 8.37513e-10 1.15261e-10 2.10565e-10)
(2.88744e-05 4.18616e-08 4.4609e-09 8.44375e-10 1.6017e-10 2.0081e-10)
(2.88149e-05 3.7844e-09 3.08387e-10 8.33676e-10 1.88361e-10 2.23349e-10)
(2.88458e-05 3.03036e-08 5.20009e-10 9.46249e-10 2.45471e-10 2.68175e-10)
(2.8827e-05 1.74349e-08 6.92082e-09 9.81891e-10 2.79878e-10 2.90798e-10)
(2.88163e-05 3.2409e-09 -1.71857e-09 1.05879e-09 2.32508e-10 2.88038e-10)
(2.88389e-05 2.69304e-08 2.67153e-09 1.03899e-09 1.41855e-10 2.8251e-10)
(2.88058e-05 -1.03199e-08 4.76738e-09 9.23742e-10 9.65155e-11 2.44162e-10)
(2.8827e-05 1.98255e-08 -1.51572e-09 8.47015e-10 7.67177e-11 1.81711e-10)
(2.88014e-05 -1.52425e-08 4.38666e-09 7.02556e-10 7.3717e-11 1.48151e-10)
(2.88221e-05 5.12604e-09 -8.76344e-10 6.54585e-10 6.46704e-11 1.2245e-10)
(2.88255e-05 -1.82576e-08 1.18968e-09 3.31196e-10 1.36265e-11 1.07568e-10)
(2.88372e-05 -2.94054e-09 1.36303e-09 3.43314e-10 9.59245e-13 1.15114e-10)
(2.88136e-05 -1.1268e-08 -6.41484e-09 3.09172e-10 -4.10781e-11 1.1923e-10)
(2.8842e-05 -1.7659e-08 2.73394e-10 3.73086e-10 -6.9436e-11 1.25865e-10)
(2.88338e-05 -2.20995e-09 -4.7588e-09 4.97492e-10 -9.84675e-11 1.32713e-10)
(2.8823e-05 -3.00493e-08 -3.34315e-09 4.60451e-10 -9.5938e-11 1.46396e-10)
(2.88672e-05 6.49472e-09 -3.14492e-09 6.22927e-10 -4.09981e-11 1.32562e-10)
(2.8807e-05 -3.4148e-08 -3.07197e-09 4.75149e-10 -2.29623e-11 1.21618e-10)
(2.88443e-05 -1.85623e-09 -5.03221e-09 4.8878e-10 3.37195e-11 1.40774e-10)
(2.88449e-05 -2.59306e-08 2.72653e-09 6.47507e-10 1.23582e-10 1.51334e-10)
(2.88509e-05 -1.50604e-08 -8.68807e-09 1.09526e-09 1.98618e-10 2.17786e-10)
(2.88438e-05 -2.24605e-08 3.50721e-09 1.16169e-09 1.5419e-10 1.90804e-10)
(2.88215e-05 -2.05888e-08 4.72234e-09 8.02398e-10 2.75243e-11 2.06052e-10)
(2.88677e-05 -2.5028e-08 -2.28806e-09 6.29655e-10 -5.85124e-11 1.98523e-10)
(2.88541e-05 -1.86241e-08 1.61982e-08 5.62077e-10 -9.75236e-11 2.04211e-10)
(2.88578e-05 -2.19282e-08 -5.85311e-09 5.81233e-10 -9.53004e-11 2.08592e-10)
(2.88704e-05 -1.21517e-08 1.33454e-08 6.20954e-10 -1.81602e-10 1.43128e-10)
(2.88491e-05 -1.67316e-08 -2.86685e-09 6.99463e-10 -1.46343e-10 1.52117e-10)
(2.88753e-05 -1.32809e-08 1.05178e-08 6.48992e-10 -1.28447e-10 1.27496e-10)
(2.88484e-05 -1.15956e-08 5.43481e-09 7.14031e-10 -6.21211e-11 1.19744e-10)
(2.89013e-05 -1.75335e-08 3.61908e-10 8.50624e-10 3.65685e-11 1.26849e-10)
(2.88621e-05 1.71027e-08 1.1593e-08 8.46791e-10 2.86778e-11 1.46679e-10)
(2.88688e-05 -1.16177e-08 -1.05453e-08 9.05633e-10 8.98966e-11 2.50001e-10)
(2.892e-05 3.50058e-08 2.24767e-08 7.05821e-10 -2.25011e-11 2.44898e-10)
(2.88297e-05 -1.4894e-08 -5.11906e-09 9.8025e-10 -5.56804e-11 2.88458e-10)
(2.89169e-05 3.97009e-08 8.1305e-09 9.18885e-10 -6.68981e-12 2.97975e-10)
(2.88463e-05 1.56012e-08 7.68269e-09 1.26811e-09 1.47647e-10 3.40484e-10)
(2.88669e-05 2.43728e-08 -3.40755e-09 1.33304e-09 1.58568e-10 3.5325e-10)
(2.8862e-05 3.94781e-08 9.68358e-09 1.06185e-09 1.15447e-10 3.07125e-10)
(2.88174e-05 -1.00477e-09 -3.90811e-09 1.28253e-09 2.19934e-10 2.89093e-10)
(2.88779e-05 5.13513e-08 6.91111e-09 1.20002e-09 2.13696e-10 2.6709e-10)
(2.88101e-05 -1.57302e-10 -5.66466e-10 1.25152e-09 2.28286e-10 2.92668e-10)
(2.88533e-05 4.75707e-08 2.9716e-09 1.29605e-09 2.44708e-10 3.23255e-10)
(2.88063e-05 4.18109e-09 5.03919e-09 1.25874e-09 2.67406e-10 3.36409e-10)
(2.88261e-05 1.72139e-08 1.75385e-09 1.51327e-09 2.45849e-10 3.55286e-10)
(2.88267e-05 1.89914e-08 2.24678e-09 1.49075e-09 1.38987e-10 3.57314e-10)
(2.88051e-05 -2.33896e-09 6.46996e-09 1.45389e-09 1.183e-10 3.10432e-10)
(2.88204e-05 1.95405e-08 -7.87778e-10 1.34191e-09 9.85282e-11 2.41545e-10)
(2.87933e-05 -2.03774e-08 5.95159e-09 1.27881e-09 1.22409e-10 2.21024e-10)
(2.88193e-05 9.45957e-09 5.0195e-10 1.16103e-09 9.21797e-11 1.80729e-10)
(2.88207e-05 -2.90281e-08 1.28158e-09 6.83516e-10 2.48065e-11 1.49075e-10)
(2.88437e-05 6.2589e-09 1.58393e-10 7.3134e-10 3.45449e-11 1.47099e-10)
(2.88034e-05 -2.2077e-08 -3.64354e-09 6.03402e-10 -3.8026e-11 1.39605e-10)
(2.88479e-05 -9.01271e-09 -2.53434e-09 7.46506e-10 -8.1761e-11 1.37554e-10)
(2.88236e-05 -1.56624e-08 -3.93515e-09 7.33707e-10 -1.32679e-10 1.5242e-10)
(2.88337e-05 -2.19924e-08 -3.00633e-09 7.69293e-10 -1.15189e-10 1.75672e-10)
(2.88597e-05 3.75053e-09 -5.1682e-09 1.07545e-09 -4.16286e-11 1.48049e-10)
(2.88047e-05 -3.91562e-08 -1.59127e-11 9.10048e-10 -4.06742e-11 1.6153e-10)
(2.88473e-05 3.9888e-09 -8.92724e-09 1.02126e-09 1.6964e-11 1.98779e-10)
(2.88278e-05 -4.1905e-08 5.22042e-09 1.05372e-09 1.1512e-10 2.17295e-10)
(2.8862e-05 -1.09338e-08 -1.11513e-08 1.73992e-09 2.05866e-10 2.95898e-10)
(2.88423e-05 -3.6343e-08 8.02162e-09 1.79898e-09 1.36167e-10 2.37651e-10)
(2.88215e-05 -8.78776e-09 2.21272e-09 1.45672e-09 3.09161e-12 2.44701e-10)
(2.88668e-05 -4.08215e-08 5.07215e-09 1.31779e-09 -5.95453e-11 1.98014e-10)
(2.88582e-05 -1.03791e-08 1.32842e-08 1.13505e-09 -9.54161e-11 2.60123e-10)
(2.88621e-05 -3.42105e-08 -2.89456e-09 1.17747e-09 -9.94424e-11 2.91884e-10)
(2.88756e-05 -1.74034e-09 1.9675e-08 1.1256e-09 -2.16147e-10 2.23045e-10)
(2.88457e-05 -2.79368e-08 -6.62868e-09 1.29803e-09 -1.33095e-10 2.57599e-10)
(2.88798e-05 -1.0713e-08 1.99021e-08 1.16782e-09 -1.24127e-10 1.91015e-10)
(2.88469e-05 -1.86031e-08 3.22819e-10 1.33666e-09 -6.06223e-12 2.16171e-10)
(2.89217e-05 -1.26959e-08 5.57965e-09 1.43581e-09 8.16056e-11 2.0701e-10)
(2.88661e-05 2.01993e-08 1.08009e-08 1.50509e-09 9.62237e-11 2.28628e-10)
(2.88818e-05 -1.15206e-08 -6.00191e-09 1.59871e-09 1.84761e-10 3.4675e-10)
(2.89157e-05 4.31839e-08 2.56785e-08 1.5079e-09 5.69148e-11 3.83201e-10)
(2.88366e-05 -2.15198e-08 -8.20225e-09 1.99983e-09 4.94898e-11 4.36783e-10)
(2.89372e-05 6.07543e-08 1.57068e-08 1.65312e-09 5.04253e-11 4.03438e-10)
(2.88372e-05 8.67199e-09 2.50327e-09 2.33498e-09 2.57129e-10 4.88818e-10)
(2.88823e-05 4.73513e-08 2.36362e-09 2.10151e-09 2.015e-10 4.96959e-10)
(2.8843e-05 2.51294e-08 6.18677e-09 1.69467e-09 2.26238e-10 4.37806e-10)
(2.88308e-05 1.54045e-08 -3.25767e-09 2.27333e-09 4.1668e-10 4.12364e-10)
(2.88769e-05 5.38061e-08 6.55058e-09 2.0533e-09 3.30365e-10 3.57096e-10)
(2.88108e-05 6.51413e-09 -2.78474e-10 2.19599e-09 3.24523e-10 3.7439e-10)
(2.88528e-05 5.75039e-08 3.49659e-09 2.09808e-09 2.55652e-10 3.7135e-10)
(2.87883e-05 -3.65811e-09 3.99886e-09 2.01598e-09 2.87765e-10 3.83512e-10)
(2.88366e-05 3.09751e-08 4.80282e-09 2.33241e-09 2.80917e-10 4.39895e-10)
(2.88147e-05 8.65274e-09 2.07565e-09 2.20455e-09 1.61487e-10 4.63885e-10)
(2.88077e-05 1.28138e-08 1.07548e-08 2.18768e-09 1.95664e-10 4.03847e-10)
(2.8805e-05 9.89723e-09 -1.67768e-09 2.06489e-09 1.30259e-10 3.23393e-10)
(2.87893e-05 -1.86177e-08 9.40073e-09 2.22809e-09 1.91613e-10 3.36472e-10)
(2.88123e-05 3.89277e-09 -3.33158e-10 1.90998e-09 1.12915e-10 2.63263e-10)
(2.8822e-05 -3.14871e-08 1.73827e-09 1.42067e-09 5.84006e-11 2.03398e-10)
(2.88471e-05 1.11972e-08 -5.95766e-10 1.56886e-09 7.37113e-11 1.88082e-10)
(2.87943e-05 -3.14087e-08 -2.40589e-09 1.38119e-09 -1.78772e-11 1.58953e-10)
(2.88511e-05 -3.51044e-09 -6.07218e-09 1.4833e-09 -4.78749e-11 1.37156e-10)
(2.88173e-05 -2.92642e-08 -3.59027e-09 1.23412e-09 -1.2637e-10 1.63754e-10)
(2.88483e-05 -9.63128e-09 -5.5347e-09 1.38958e-09 -7.72859e-11 1.95078e-10)
(2.88455e-05 -6.77456e-09 -5.23731e-09 1.83618e-09 -2.50954e-11 1.57668e-10)
(2.88078e-05 -3.44651e-08 2.6365e-12 1.70202e-09 -7.81232e-11 2.16112e-10)
(2.88418e-05 -4.58251e-09 -1.28893e-08 1.78382e-09 -5.20212e-11 2.75899e-10)
(2.88202e-05 -4.88944e-08 7.35508e-09 1.71141e-09 7.15654e-11 3.11803e-10)
(2.88675e-05 -1.63675e-08 -1.32182e-08 3.04885e-09 2.06572e-10 3.94294e-10)
(2.88481e-05 -3.78617e-08 1.11374e-08 3.17657e-09 1.13515e-10 3.47378e-10)
(2.88185e-05 -4.21094e-09 -1.92776e-09 2.94934e-09 -2.70672e-12 3.30893e-10)
(2.88675e-05 -5.05309e-08 1.17013e-08 2.77851e-09 -1.98696e-11 2.31407e-10)
(2.88633e-05 -2.70032e-09 7.60339e-09 2.50247e-09 -5.72721e-11 3.66088e-10)
(2.88692e-05 -4.62061e-08 3.12155e-09 2.47423e-09 -7.54795e-11 3.90417e-10)
(2.88792e-05 1.3219e-08 1.99981e-08 2.36852e-09 -1.80227e-10 3.53546e-10)
(2.884e-05 -4.59585e-08 -6.33492e-09 2.66697e-09 -4.26121e-11 4.00489e-10)
(2.88876e-05 2.1e-09 2.43581e-08 2.45052e-09 -8.21567e-11 3.24588e-10)
(2.88475e-05 -3.47756e-08 -5.02323e-09 2.86926e-09 1.08742e-10 3.92678e-10)
(2.89483e-05 4.91292e-09 1.13613e-08 2.75253e-09 1.38998e-10 3.1816e-10)
(2.8865e-05 1.58793e-08 8.11434e-09 3.15871e-09 2.47929e-10 3.48098e-10)
(2.88975e-05 -2.22184e-09 1.09591e-09 3.14702e-09 3.45907e-10 4.14679e-10)
(2.89095e-05 4.57487e-08 2.39219e-08 3.1828e-09 2.28697e-10 5.14875e-10)
(2.88517e-05 -1.74196e-08 -7.4883e-09 3.81971e-09 3.05573e-10 5.77519e-10)
(2.89547e-05 7.71049e-08 1.92769e-08 3.13206e-09 2.16564e-10 5.00012e-10)
(2.88327e-05 7.86017e-09 -1.77507e-09 4.26358e-09 4.71888e-10 6.57842e-10)
(2.88897e-05 7.02268e-08 7.34869e-09 3.62043e-09 3.25676e-10 6.41035e-10)
(2.88261e-05 9.15307e-09 -2.45146e-10 3.35997e-09 4.65577e-10 5.94151e-10)
(2.88526e-05 4.41236e-08 -6.19142e-10 4.17406e-09 7.35519e-10 5.76877e-10)
(2.887e-05 4.63453e-08 3.12577e-09 3.77557e-09 5.79615e-10 4.95674e-10)
(2.88163e-05 2.70392e-08 8.36394e-10 3.94819e-09 5.46551e-10 5.08119e-10)
(2.88436e-05 5.47382e-08 1.42793e-09 3.58002e-09 3.16898e-10 4.46655e-10)
(2.87766e-05 2.36204e-09 4.13908e-09 3.70794e-09 4.12656e-10 4.66486e-10)
(2.8843e-05 3.57106e-08 4.71408e-09 3.91053e-09 3.55815e-10 5.76812e-10)
(2.88073e-05 6.01965e-09 3.58255e-09 3.78857e-09 2.63814e-10 6.27558e-10)
(2.88089e-05 2.46417e-08 1.34422e-08 3.71369e-09 3.66477e-10 5.32519e-10)
(2.87854e-05 -1.10921e-09 -3.64943e-09 3.56541e-09 1.83877e-10 4.5644e-10)
(2.87882e-05 -1.46611e-08 1.36498e-08 3.96932e-09 2.69366e-10 5.28678e-10)
(2.88063e-05 -7.81985e-09 -3.7804e-09 3.29184e-09 8.33694e-11 3.74889e-10)
(2.88306e-05 -2.54894e-08 4.18098e-09 2.94078e-09 1.07172e-10 2.99474e-10)
(2.88455e-05 9.13509e-09 -3.18157e-09 3.22314e-09 9.57691e-11 2.62367e-10)
(2.87876e-05 -3.41486e-08 -2.45685e-09 3.06008e-09 5.68993e-11 2.02475e-10)
(2.88524e-05 -3.84251e-09 -9.37982e-09 2.9613e-09 6.01322e-11 1.52776e-10)
(2.88176e-05 -3.54925e-08 -4.42038e-09 2.5845e-09 -6.47612e-11 1.90434e-10)
(2.88615e-05 -1.50388e-09 -9.09973e-09 2.87785e-09 3.83183e-11 2.14591e-10)
(2.88316e-05 -1.46085e-08 -3.96438e-09 3.39856e-09 5.30942e-11 1.85735e-10)
(2.88092e-05 -2.70655e-08 -4.60674e-09 3.19335e-09 -6.2753e-11 2.82887e-10)
(2.88321e-05 -2.13386e-08 -1.47798e-08 3.067e-09 -1.08229e-10 3.68657e-10)
(2.88212e-05 -4.58947e-08 6.64153e-09 3.01932e-09 5.25169e-11 4.39236e-10)
(2.8874e-05 -2.25182e-08 -1.45621e-08 5.87318e-09 2.55968e-10 5.20703e-10)
(2.88593e-05 -3.01503e-08 8.51391e-09 6.13355e-09 1.64013e-10 5.61682e-10)
(2.88123e-05 -5.4993e-09 -5.38479e-09 5.99221e-09 3.27405e-11 4.71692e-10)
(2.8872e-05 -5.13401e-08 1.42192e-08 5.79477e-09 8.57688e-11 3.56315e-10)
(2.88664e-05 -1.59972e-09 3.03903e-09 5.41412e-09 5.27291e-11 5.63021e-10)
(2.88821e-05 -5.10875e-08 7.91446e-09 5.15592e-09 -5.05654e-12 5.24974e-10)
(2.88791e-05 2.58632e-08 1.57506e-08 5.20672e-09 -2.37978e-11 5.46484e-10)
(2.8837e-05 -6.01886e-08 -2.32021e-09 5.62917e-09 1.14762e-10 5.04084e-10)
(2.88953e-05 1.65934e-08 2.01919e-08 5.37466e-09 3.83024e-11 5.33426e-10)
(2.88533e-05 -5.33969e-08 -6.97157e-09 6.23276e-09 3.43461e-10 6.43443e-10)
(2.89797e-05 3.10973e-08 1.21963e-08 5.78162e-09 2.17397e-10 4.93287e-10)
(2.88619e-05 5.86204e-09 6.18244e-09 6.68107e-09 5.16489e-10 5.37296e-10)
(2.89177e-05 2.07614e-08 5.19419e-09 6.31983e-09 5.92515e-10 4.79467e-10)
(2.89027e-05 4.02782e-08 2.00908e-08 6.52823e-09 5.52219e-10 6.75083e-10)
(2.88734e-05 1.0929e-09 -5.964e-09 7.13464e-09 6.94424e-10 6.8891e-10)
(2.89686e-05 8.44068e-08 1.79262e-08 6.22868e-09 4.6342e-10 5.82409e-10)
(2.88345e-05 2.13252e-08 -5.07071e-09 8.0823e-09 8.14048e-10 8.27712e-10)
(2.88895e-05 8.61629e-08 7.63462e-09 7.01652e-09 5.58937e-10 7.53895e-10)
(2.88186e-05 5.43606e-09 -7.31044e-09 7.22093e-09 8.63606e-10 7.61156e-10)
(2.88746e-05 7.04659e-08 9.95199e-10 8.07677e-09 1.21489e-09 7.58292e-10)
(2.88631e-05 3.88824e-08 -4.02466e-09 7.29366e-09 1.02976e-09 6.91967e-10)
(2.8824e-05 5.58981e-08 7.1289e-10 7.22685e-09 9.53437e-10 7.00142e-10)
(2.88303e-05 4.41481e-08 -3.07792e-09 6.54108e-09 5.17857e-10 5.79433e-10)
(2.87715e-05 2.06363e-08 3.96855e-09 7.07822e-09 6.81931e-10 6.07649e-10)
(2.88451e-05 2.80574e-08 2.02841e-09 7.20269e-09 4.79764e-10 7.88297e-10)
(2.88073e-05 1.69473e-08 5.01901e-09 7.33826e-09 5.54537e-10 8.73878e-10)
(2.8805e-05 2.61901e-08 1.25921e-08 7.11298e-09 6.86222e-10 7.11639e-10)
(2.8767e-05 -1.88746e-09 -5.05773e-09 7.15581e-09 3.76302e-10 7.08244e-10)
(2.87866e-05 -1.78732e-08 1.62688e-08 7.50672e-09 4.28777e-10 8.36499e-10)
(2.8805e-05 -1.53995e-08 -9.41065e-09 6.47698e-09 7.67493e-11 5.28493e-10)
(2.88436e-05 -2.11821e-08 7.70815e-09 6.22079e-09 1.84617e-10 4.6643e-10)
(2.88414e-05 6.83262e-09 -1.0063e-08 6.67526e-09 7.49334e-11 4.01618e-10)
(2.87843e-05 -3.39711e-08 -2.87124e-09 6.5737e-09 2.6419e-10 3.03968e-10)
(2.88539e-05 -6.14325e-09 -1.48535e-08 6.11508e-09 2.29637e-10 2.38802e-10)
(2.88235e-05 -3.6946e-08 -7.31988e-09 5.88206e-09 8.82385e-11 2.66984e-10)
(2.88743e-05 2.41557e-09 -1.44813e-08 6.20115e-09 2.79589e-10 2.7328e-10)
(2.88217e-05 -1.46459e-08 -6.39056e-09 6.91338e-09 2.84348e-10 2.8018e-10)
(2.88053e-05 -2.51915e-08 -1.36457e-08 6.49763e-09 6.17003e-11 3.86831e-10)
(2.88253e-05 -3.44264e-08 -1.65578e-08 6.03628e-09 -7.82527e-11 4.95108e-10)
(2.88286e-05 -4.36794e-08 -6.68257e-10 6.09992e-09 1.76418e-10 5.93018e-10)
(2.88879e-05 -2.04463e-08 -1.8851e-08 1.18901e-08 4.88843e-10 7.33407e-10)
(2.8873e-05 -1.97097e-08 -1.1779e-09 1.23431e-08 4.45478e-10 9.31337e-10)
(2.88064e-05 -4.25962e-09 -8.50641e-09 1.207e-08 1.6485e-10 7.0972e-10)
(2.88791e-05 -5.04497e-08 8.08576e-09 1.19215e-08 4.16993e-10 6.56437e-10)
(2.88711e-05 -4.8069e-09 -1.45118e-09 1.13191e-08 3.28146e-10 8.86262e-10)
(2.89027e-05 -4.76422e-08 3.64965e-09 1.07307e-08 2.17356e-10 8.06133e-10)
(2.88772e-05 3.63811e-08 9.28855e-09 1.1195e-08 3.48334e-10 8.51291e-10)
(2.88383e-05 -6.42063e-08 -3.3701e-09 1.16513e-08 3.76931e-10 6.21707e-10)
(2.89019e-05 2.56442e-08 8.37855e-09 1.15288e-08 3.1125e-10 8.99015e-10)
(2.88693e-05 -6.61241e-08 -9.04718e-09 1.31046e-08 7.49399e-10 9.83132e-10)
(2.90145e-05 5.76489e-08 4.93898e-09 1.22487e-08 3.89854e-10 8.2206e-10)
(2.88627e-05 3.95326e-10 5.35538e-09 1.36748e-08 1.04035e-09 8.53461e-10)
(2.89398e-05 5.25761e-08 1.13189e-09 1.26324e-08 1.07492e-09 6.34911e-10)
(2.88977e-05 3.04698e-08 1.63305e-08 1.29297e-08 1.19486e-09 9.52459e-10)
(2.89017e-05 3.07485e-08 -1.08941e-08 1.33758e-08 1.29813e-09 8.50705e-10)
(2.89828e-05 8.46502e-08 1.33526e-08 1.25562e-08 8.85988e-10 7.46567e-10)
(2.88439e-05 5.2904e-08 -1.10606e-08 1.5387e-08 1.38686e-09 1.05036e-09)
(2.88848e-05 9.55942e-08 2.71767e-09 1.38751e-08 9.52545e-10 8.6854e-10)
(2.8819e-05 1.90556e-08 -1.6917e-08 1.48218e-08 1.52801e-09 9.78428e-10)
(2.8894e-05 8.15214e-08 -3.32433e-09 1.55286e-08 2.02543e-09 1.01893e-09)
(2.88647e-05 4.57335e-08 -1.52649e-08 1.41099e-08 1.79984e-09 1.00399e-09)
(2.88301e-05 8.1509e-08 -3.19666e-09 1.34504e-08 1.65309e-09 9.72219e-10)
(2.88168e-05 4.10152e-08 -1.2591e-08 1.24801e-08 9.98622e-10 8.05021e-10)
(2.87686e-05 3.92299e-08 1.22973e-09 1.33296e-08 1.12863e-09 8.42429e-10)
(2.88482e-05 1.59425e-08 -5.03409e-09 1.37046e-08 7.55214e-10 1.14543e-09)
(2.8815e-05 3.57384e-08 4.09778e-09 1.4406e-08 1.19002e-09 1.26394e-09)
(2.88004e-05 2.27739e-08 8.18571e-09 1.42046e-08 1.24048e-09 1.04949e-09)
(2.87515e-05 9.08402e-09 -6.84081e-09 1.47514e-08 9.10666e-10 1.18893e-09)
(2.87845e-05 -3.10718e-08 1.41548e-08 1.46174e-08 8.21547e-10 1.3097e-09)
(2.88119e-05 -1.34953e-08 -1.71469e-08 1.33973e-08 3.06412e-10 8.24987e-10)
(2.88601e-05 -2.67556e-08 7.53197e-09 1.29529e-08 3.73252e-10 8.21837e-10)
(2.88408e-05 1.51108e-08 -2.19889e-08 1.38445e-08 6.40816e-11 6.95792e-10)
(2.87838e-05 -3.62756e-08 -5.19996e-09 1.36759e-08 7.08554e-10 5.39511e-10)
(2.88584e-05 -2.91208e-09 -2.58616e-08 1.28143e-08 4.76687e-10 4.81172e-10)
(2.88345e-05 -3.96968e-08 -1.28212e-08 1.31654e-08 5.37191e-10 4.48294e-10)
(2.88916e-05 9.82486e-09 -2.53745e-08 1.32984e-08 8.39399e-10 4.66417e-10)
(2.88137e-05 -9.87753e-09 -1.35567e-08 1.45319e-08 8.99955e-10 5.32084e-10)
(2.87997e-05 -2.55e-08 -2.54944e-08 1.36783e-08 4.44039e-10 5.91293e-10)
(2.88224e-05 -4.1734e-08 -2.25617e-08 1.28094e-08 2.31359e-10 7.09123e-10)
(2.88403e-05 -4.76726e-08 -1.36563e-08 1.2822e-08 6.18251e-10 8.34248e-10)
(2.89138e-05 -9.52183e-09 -3.16761e-08 2.43759e-08 1.36473e-09 1.2455e-09)
(2.889e-05 -3.78315e-09 -1.83757e-08 2.49343e-08 1.34803e-09 1.61161e-09)
(2.88016e-05 5.52758e-09 -1.56018e-08 2.42992e-08 6.75173e-10 1.1808e-09)
(2.88871e-05 -4.95627e-08 -8.65288e-09 2.40034e-08 1.37687e-09 1.2946e-09)
(2.88838e-05 -6.95981e-10 -9.5903e-09 2.2831e-08 9.83007e-10 1.40873e-09)
(2.89324e-05 -3.56631e-08 -1.43055e-08 2.16883e-08 1.00495e-09 1.44524e-09)
(2.88782e-05 5.27078e-08 9.73376e-10 2.28219e-08 1.35755e-09 1.36223e-09)
(2.88426e-05 -5.93146e-08 -1.72741e-08 2.33304e-08 1.11292e-09 9.7159e-10)
(2.89091e-05 3.12846e-08 -7.91799e-09 2.3618e-08 1.14163e-09 1.61481e-09)
(2.88976e-05 -6.95598e-08 -2.03425e-08 2.65714e-08 1.60664e-09 1.55492e-09)
(2.90558e-05 8.60054e-08 -1.15034e-08 2.52687e-08 9.16487e-10 1.52224e-09)
(2.88736e-05 1.04406e-08 -7.06145e-11 2.73118e-08 2.15559e-09 1.35602e-09)
(2.89617e-05 8.79764e-08 -1.36269e-08 2.51449e-08 2.15664e-09 1.04185e-09)
(2.88985e-05 2.73409e-08 9.82443e-09 2.51336e-08 2.55308e-09 1.48618e-09)
(2.89357e-05 6.69372e-08 -2.6684e-08 2.54354e-08 2.54239e-09 1.23133e-09)
(2.90042e-05 8.96381e-08 5.13416e-09 2.50878e-08 1.82574e-09 1.18021e-09)
(2.88628e-05 1.02834e-07 -2.54666e-08 2.93337e-08 2.51151e-09 1.48833e-09)
(2.8879e-05 1.05818e-07 -5.77626e-09 2.72324e-08 1.79698e-09 1.1514e-09)
(2.88232e-05 4.87664e-08 -3.49907e-08 2.90301e-08 2.73401e-09 1.38338e-09)
(2.89157e-05 8.18676e-08 -1.52382e-08 2.9512e-08 3.53861e-09 1.51905e-09)
(2.88807e-05 7.50469e-08 -3.42707e-08 2.70119e-08 3.17444e-09 1.51328e-09)
(2.88361e-05 1.02419e-07 -1.2595e-08 2.55246e-08 3.01968e-09 1.37474e-09)
(2.88073e-05 5.92993e-08 -2.90163e-08 2.42316e-08 1.98421e-09 1.2671e-09)
(2.87645e-05 4.92839e-08 -5.54714e-09 2.51519e-08 1.96718e-09 1.31946e-09)
(2.88586e-05 1.61417e-08 -1.97682e-08 2.67403e-08 1.52e-09 1.82547e-09)
(2.88317e-05 5.6427e-08 -1.08449e-09 2.81504e-08 2.55886e-09 1.94874e-09)
(2.88003e-05 3.09153e-08 -9.02385e-10 2.88105e-08 2.41809e-09 1.8186e-09)
(2.87379e-05 2.59308e-08 -1.07637e-08 3.01745e-08 2.31552e-09 2.1204e-09)
(2.87853e-05 -4.51473e-08 5.50964e-09 2.91105e-08 1.82697e-09 2.11696e-09)
(2.88266e-05 -5.92656e-09 -2.82361e-08 2.7795e-08 1.21329e-09 1.52128e-09)
(2.88849e-05 -3.61219e-08 -2.54625e-10 2.65714e-08 8.95233e-10 1.63408e-09)
(2.8849e-05 3.98326e-08 -3.84619e-08 2.84034e-08 3.67511e-10 1.32555e-09)