/*--------------------------------*- C++ -*----------------------------------*\
  =========                 |
  \\      /  F ield         | OpenFOAM: The Open Source CFD Toolbox
   \\    /   O peration     | Website:  https://openfoam.org
    \\  /    A nd           | Version:  10
     \\/     M anipulation  |
\*---------------------------------------------------------------------------*/
FoamFile
{
    format      ascii;
    class       volVectorField;
    location    "17.5";
    object      U_0;
}
// * * * * * * * * * * * * * * * * * * * * * * * * * * * * * * * * * * * * * //

dimensions      [0 1 -1 0 0 0 0];

internalField   nonuniform List<vector> 
25600
(
(1.03481 5.87402e-05 -2.84522e-05)
(1.03477 -3.18395e-05 1.82996e-05)
(1.03477 5.6348e-05 -8.09648e-06)
(1.03481 -4.37112e-05 -8.11684e-07)
(1.03475 2.65014e-05 1.30313e-05)
(1.03479 -1.49847e-05 -2.62368e-05)
(1.03481 -9.65189e-06 3.29712e-05)
(1.03475 2.09883e-05 -3.22767e-05)
(1.03481 -1.6891e-05 2.86452e-05)
(1.03478 1.41502e-05 -2.31773e-05)
(1.03479 4.0235e-06 1.66802e-05)
(1.03478 4.18923e-06 -8.38091e-06)
(1.03477 -3.45893e-05 1.99607e-06)
(1.03483 3.44402e-05 6.49209e-06)
(1.03473 -1.65445e-05 -9.86243e-06)
(1.03484 1.4985e-05 7.97252e-06)
(1.03476 -1.23193e-05 -2.68289e-06)
(1.0348 5.21403e-06 1.07409e-05)
(1.0348 8.10927e-06 -2.19203e-05)
(1.03476 -9.93539e-06 2.8657e-05)
(1.03484 4.62739e-05 -2.40885e-05)
(1.03472 -6.3585e-05 1.81104e-05)
(1.03485 4.84093e-05 -1.33237e-05)
(1.03476 -4.46347e-05 1.36553e-05)
(1.0348 -1.65712e-05 -1.06278e-05)
(1.03482 2.3207e-05 1.78866e-06)
(1.03475 -6.46242e-06 9.84257e-06)
(1.03484 7.24451e-06 -1.93025e-05)
(1.03472 -1.39842e-05 2.41368e-05)
(1.03485 4.3608e-06 -3.19182e-05)
(1.03475 -1.38942e-05 3.59022e-05)
(1.0348 1.22229e-05 -3.55686e-05)
(1.03481 -4.26411e-05 2.91815e-05)
(1.03474 3.9252e-05 -1.54658e-05)
(1.03485 -5.46614e-05 -3.96113e-06)
(1.03475 3.3601e-05 2.1805e-05)
(1.0348 -1.58458e-05 -3.03512e-05)
(1.03481 7.06927e-06 3.44994e-05)
(1.03477 -3.60016e-06 -3.5865e-05)
(1.0348 -2.2104e-05 3.45048e-05)
(1.0348 3.70353e-05 -1.87622e-05)
(1.03478 -3.30547e-05 1.2187e-05)
(1.03478 4.18501e-05 -1.15852e-05)
(1.0348 -2.29797e-05 9.54183e-06)
(1.03478 1.56646e-05 -1.49446e-06)
(1.03477 5.31897e-06 -1.47023e-05)
(1.03482 -6.36639e-06 2.50387e-05)
(1.03475 1.30505e-05 -2.92666e-05)
(1.03479 1.70315e-06 2.94644e-05)
(1.03478 -1.46358e-06 -2.71645e-05)
(1.03479 1.38877e-05 2.33493e-05)
(1.03478 -3.64978e-06 -1.6326e-05)
(1.03478 -4.59208e-06 1.16473e-05)
(1.0348 1.95592e-05 -2.56833e-06)
(1.03474 -2.29475e-05 -1.35209e-06)
(1.03483 3.14897e-05 5.68143e-06)
(1.03474 -3.24468e-05 -4.82653e-06)
(1.0348 2.67717e-05 1.37084e-05)
(1.03478 -1.65158e-05 -1.91164e-05)
(1.03478 -8.74465e-06 2.15155e-05)
(1.03482 3.77307e-05 -1.09196e-05)
(1.03473 -6.75515e-05 6.41043e-06)
(1.03486 6.7064e-05 -4.78329e-06)
(1.03473 -6.21258e-05 1.30312e-05)
(1.03482 2.52134e-05 -1.34366e-05)
(1.03479 -1.3732e-05 1.07851e-05)
(1.03476 -3.33545e-06 -1.83021e-06)
(1.03485 -4.01346e-06 -2.70118e-06)
(1.03473 -1.21267e-05 8.34975e-06)
(1.03484 7.7825e-06 -1.72313e-05)
(1.03477 -2.90328e-05 2.71015e-05)
(1.03479 3.14803e-05 -2.73636e-05)
(1.03483 -5.92213e-05 2.45505e-05)
(1.03474 6.0681e-05 -1.25512e-05)
(1.03484 -6.39097e-05 2.67208e-07)
(1.03478 3.76292e-05 1.4236e-05)
(1.03477 -1.42044e-05 -2.13186e-05)
(1.03483 -4.02199e-06 2.7401e-05)
(1.03476 1.55686e-05 -2.93611e-05)
(1.03479 -2.11266e-05 2.58556e-05)
(1.0348 2.56931e-05 -9.3036e-06)
(1.03478 -9.4344e-06 6.48206e-06)
(1.03479 1.23403e-05 -1.31466e-05)
(1.03479 1.06456e-05 1.62329e-05)
(1.03478 -1.13337e-05 -1.44921e-05)
(1.03477 2.16484e-05 -2.02657e-07)
(1.03482 -7.85972e-06 1.103e-05)
(1.03476 2.55407e-06 -2.04899e-05)
(1.03479 1.44127e-05 2.42574e-05)
(1.03478 -9.03627e-06 -2.4659e-05)
(1.03479 1.93689e-05 2.32057e-05)
(1.03477 -1.04201e-05 -1.74627e-05)
(1.03479 1.19582e-06 1.52968e-05)
(1.0348 1.31714e-05 -6.90115e-06)
(1.03475 -1.77491e-05 6.32215e-06)
(1.03483 3.15092e-05 1.70146e-07)
(1.03475 -3.81106e-05 -3.58837e-07)
(1.03481 3.35398e-05 8.10083e-06)
(1.03476 -2.2806e-05 -5.54485e-06)
(1.0348 -9.10865e-07 3.44595e-06)
(1.0348 2.86543e-05 1.25267e-05)
(1.03474 -6.15611e-05 -1.37805e-05)
(1.03486 6.88168e-05 1.16435e-05)
(1.03472 -7.6172e-05 5.91474e-06)
(1.03484 4.74517e-05 -1.22821e-05)
(1.03478 -3.79196e-05 1.97782e-05)
(1.03477 1.4448e-05 -1.5514e-05)
(1.03484 -1.30979e-05 1.72998e-05)
(1.03474 -1.26415e-05 -1.07555e-05)
(1.03483 9.30984e-06 2.32174e-06)
(1.03478 -2.87568e-05 1.22132e-05)
(1.03478 2.56528e-05 -1.14939e-05)
(1.03484 -5.06358e-05 1.25787e-05)
(1.03474 4.61936e-05 -2.66729e-06)
(1.03483 -4.91262e-05 4.78258e-07)
(1.0348 2.80161e-05 7.72202e-06)
(1.03475 -1.25085e-05 -1.04265e-05)
(1.03484 1.3059e-07 1.61721e-05)
(1.03475 1.04274e-05 -1.72488e-05)
(1.0348 -1.17372e-05 1.39846e-05)
(1.0348 1.12422e-05 -7.08351e-06)
(1.03477 9.07371e-06 6.56379e-06)
(1.0348 -1.43416e-05 -1.67638e-05)
(1.03479 4.11464e-05 2.08987e-05)
(1.03479 -3.22572e-05 -2.43658e-05)
(1.03478 3.68908e-05 1.2073e-05)
(1.0348 -7.53238e-06 -2.16533e-06)
(1.03477 -3.73483e-06 -1.13156e-05)
(1.03478 2.44324e-05 1.86176e-05)
(1.03478 -1.05179e-05 -2.07061e-05)
(1.03479 1.67744e-05 2.02317e-05)
(1.03476 -4.19863e-06 -1.3902e-05)
(1.0348 -3.38494e-06 1.36463e-05)
(1.03479 2.18169e-05 -5.61519e-06)
(1.03475 -2.6488e-05 9.10258e-06)
(1.03482 3.98177e-05 -3.04568e-06)
(1.03475 -4.41592e-05 4.74865e-06)
(1.03481 3.37248e-05 5.2649e-07)
(1.03475 -2.16514e-05 9.60811e-06)
(1.03482 -1.77115e-06 -1.56213e-05)
(1.03478 2.06904e-05 3.51451e-05)
(1.03476 -5.28445e-05 -3.3572e-05)
(1.03485 6.3606e-05 3.08573e-05)
(1.03471 -7.80172e-05 -5.95929e-06)
(1.03485 6.02289e-05 -3.54746e-06)
(1.03476 -5.41591e-05 2.05083e-05)
(1.03478 2.16037e-05 -1.95408e-05)
(1.03483 -1.87266e-05 2.64224e-05)
(1.03475 -1.34246e-05 -1.77298e-05)
(1.03483 6.92701e-06 1.16627e-05)
(1.03478 -2.16209e-05 4.77972e-06)
(1.03477 8.46355e-06 1.2464e-06)
(1.03484 -2.547e-05 9.22921e-07)
(1.03474 1.58642e-05 1.06069e-05)
(1.03482 -1.71936e-05 -5.88914e-06)
(1.03481 5.9604e-06 1.04511e-05)
(1.03474 -2.57425e-06 -7.71494e-06)
(1.03485 -4.78976e-07 1.25065e-05)
(1.03475 7.28874e-06 -1.17586e-05)
(1.0348 -2.12413e-06 8.62821e-06)
(1.0348 5.45201e-06 -1.50879e-05)
(1.03476 1.9955e-05 1.71656e-05)
(1.03481 -2.7047e-05 -2.87627e-05)
(1.03478 5.68497e-05 2.95261e-05)
(1.03478 -4.12067e-05 -3.5334e-05)
(1.03479 4.21177e-05 2.33682e-05)
(1.03479 -6.41959e-06 -1.53402e-05)
(1.03478 -8.32832e-06 -2.1597e-06)
(1.03478 3.05748e-05 1.25216e-05)
(1.03478 -1.04347e-05 -1.61423e-05)
(1.0348 1.33271e-05 1.6914e-05)
(1.03475 2.22045e-06 -9.12953e-06)
(1.03481 -1.35231e-05 1.00924e-05)
(1.03478 3.39038e-05 3.73528e-08)
(1.03476 -3.70928e-05 6.67287e-06)
(1.03481 5.0611e-05 -5.58378e-07)
(1.03474 -5.25838e-05 5.52526e-06)
(1.03482 3.72231e-05 -2.13411e-06)
(1.03474 -2.42926e-05 1.89878e-05)
(1.03483 6.73786e-06 -2.77661e-05)
(1.03476 4.4413e-06 5.14166e-05)
(1.03477 -3.38069e-05 -4.82585e-05)
(1.03484 4.4084e-05 4.8411e-05)
(1.03472 -6.71989e-05 -1.9141e-05)
(1.03485 5.87237e-05 9.22938e-06)
(1.03475 -5.77387e-05 1.47356e-05)
(1.03479 2.28968e-05 -1.44839e-05)
(1.03481 -2.16748e-05 2.41543e-05)
(1.03475 -1.34659e-05 -1.1281e-05)
(1.03483 4.02964e-06 7.85048e-06)
(1.03478 -1.22173e-05 1.07528e-05)
(1.03477 -1.24722e-05 1.96497e-06)
(1.03484 2.95006e-06 3.46018e-07)
(1.03474 -1.99888e-05 1.55708e-05)
(1.03482 2.03152e-05 -6.99685e-06)
(1.03481 -2.22966e-05 1.21339e-05)
(1.03475 1.49346e-05 -7.05493e-06)
(1.03485 -8.0649e-06 1.22954e-05)
(1.03475 9.767e-06 -1.17534e-05)
(1.0348 3.04923e-06 1.07726e-05)
(1.03481 9.49898e-06 -2.20104e-05)
(1.03475 1.65219e-05 2.79443e-05)
(1.03482 -2.23277e-05 -4.29155e-05)
(1.03478 5.35585e-05 3.99607e-05)
(1.03478 -3.14728e-05 -4.82311e-05)
(1.0348 3.67075e-05 3.57039e-05)
(1.03477 -8.02985e-07 -2.96345e-05)
(1.03479 -1.09468e-05 9.48922e-06)
(1.03478 3.29169e-05 2.6106e-06)
(1.03477 -5.59973e-06 -8.31892e-06)
(1.0348 8.11383e-06 1.10735e-05)
(1.03474 9.36034e-06 -1.91026e-06)
(1.03482 -2.1932e-05 4.43691e-06)
(1.03477 4.28212e-05 8.39932e-06)
(1.03476 -4.01324e-05 2.83385e-07)
(1.03481 5.27485e-05 6.53818e-06)
(1.03474 -5.13906e-05 1.76438e-06)
(1.03483 3.14068e-05 2.20977e-07)
(1.03473 -2.13371e-05 2.17229e-05)
(1.03484 1.21199e-05 -3.18734e-05)
(1.03475 -1.17475e-05 5.84104e-05)
(1.03479 -1.26181e-05 -5.29472e-05)
(1.03483 1.56556e-05 5.88168e-05)
(1.03472 -4.22542e-05 -2.72272e-05)
(1.03485 4.19574e-05 2.04031e-05)
(1.03474 -4.65192e-05 8.72019e-06)
(1.0348 8.56645e-06 -5.22992e-06)
(1.0348 -1.55649e-05 1.61048e-05)
(1.03476 -2.11075e-05 1.79049e-06)
(1.03483 7.86771e-06 -1.71317e-06)
(1.03477 -1.09135e-05 2.33916e-05)
(1.03478 -2.40857e-05 -4.52883e-06)
(1.03484 2.0481e-05 9.02941e-06)
(1.03475 -4.34602e-05 1.17358e-05)
(1.03482 4.8182e-05 9.43026e-07)
(1.0348 -4.32853e-05 6.89696e-06)
(1.03475 3.14489e-05 8.44185e-08)
(1.03484 -2.06705e-05 6.73272e-06)
(1.03476 2.07674e-05 -8.1277e-06)
(1.0348 -1.22138e-07 9.96297e-06)
(1.03481 1.58577e-05 -2.31423e-05)
(1.03474 8.41438e-06 3.23815e-05)
(1.03483 -8.84143e-06 -5.01034e-05)
(1.03477 3.92548e-05 4.33101e-05)
(1.03477 -8.30632e-06 -5.57689e-05)
(1.03481 1.90141e-05 4.39922e-05)
(1.03476 1.08545e-05 -4.06215e-05)
(1.0348 -1.80648e-05 1.9326e-05)
(1.03479 3.73103e-05 -5.98426e-06)
(1.03476 -1.30202e-06 2.84098e-07)
(1.0348 3.95731e-06 4.46797e-06)
(1.03474 1.33001e-05 8.06254e-06)
(1.03483 -2.97719e-05 -2.1477e-06)
(1.03477 5.01624e-05 1.92745e-05)
(1.03477 -3.80954e-05 -8.19171e-06)
(1.03481 4.91065e-05 1.75013e-05)
(1.03473 -4.34786e-05 -5.43426e-06)
(1.03484 1.5732e-05 6.39236e-06)
(1.03473 -8.81e-06 1.81843e-05)
(1.03484 1.0155e-05 -2.81629e-05)
(1.03474 -1.83731e-05 5.73896e-05)
(1.03479 -2.27195e-06 -5.01888e-05)
(1.03482 -7.08595e-06 6.196e-05)
(1.03473 -1.99207e-05 -2.88838e-05)
(1.03485 2.62561e-05 2.67251e-05)
(1.03473 -3.26569e-05 6.89438e-06)
(1.03481 -9.61714e-06 1.27312e-06)
(1.0348 -7.00074e-06 9.57375e-06)
(1.03477 -3.09143e-05 1.2635e-05)
(1.03483 1.84834e-05 -1.07465e-05)
(1.03476 -1.79016e-05 3.71114e-05)
(1.03479 -2.34809e-05 -1.28091e-05)
(1.03483 2.01674e-05 2.09607e-05)
(1.03476 -4.71953e-05 3.52013e-06)
(1.03482 5.72205e-05 1.33868e-05)
(1.0348 -4.70582e-05 -2.63179e-06)
(1.03476 3.48536e-05 1.18576e-05)
(1.03484 -2.54146e-05 -3.78109e-06)
(1.03476 2.70848e-05 -2.9992e-07)
(1.0348 -3.64492e-07 4.46564e-06)
(1.03481 1.76377e-05 -2.05076e-05)
(1.03474 2.65733e-06 3.26336e-05)
(1.03484 1.29411e-06 -5.3017e-05)
(1.03478 2.86038e-05 3.98259e-05)
(1.03477 1.38188e-05 -5.64479e-05)
(1.03481 4.21532e-06 4.44416e-05)
(1.03475 1.97292e-05 -4.35213e-05)
(1.0348 -2.43397e-05 2.30427e-05)
(1.03479 4.30146e-05 -1.08183e-05)
(1.03476 1.47796e-06 4.55847e-06)
(1.03481 5.02638e-06 2.2583e-06)
(1.03473 1.02994e-05 1.60422e-05)
(1.03484 -3.30181e-05 -6.80759e-06)
(1.03477 5.4212e-05 2.87732e-05)
(1.03476 -3.23494e-05 -1.66222e-05)
(1.0348 4.49916e-05 3.00104e-05)
(1.03472 -3.74677e-05 -1.34152e-05)
(1.03485 -1.22375e-06 1.35172e-05)
(1.03473 3.47509e-06 1.0858e-05)
(1.03483 6.25963e-06 -2.08633e-05)
(1.03474 -2.02056e-05 5.24545e-05)
(1.03479 -2.21224e-06 -4.22832e-05)
(1.03482 -2.20695e-05 5.98582e-05)
(1.03474 -6.7419e-06 -2.60635e-05)
(1.03485 2.0141e-05 2.85339e-05)
(1.03472 -2.89686e-05 9.99531e-06)
(1.03481 -2.01652e-05 3.78211e-06)
(1.03479 -9.68572e-06 6.51774e-06)
(1.03478 -3.29613e-05 1.92757e-05)
(1.03483 2.46563e-05 -1.47676e-05)
(1.03475 -2.4789e-05 4.66977e-05)
(1.0348 -1.9777e-05 -1.60054e-05)
(1.03482 9.84751e-06 3.06223e-05)
(1.03477 -3.74712e-05 -3.09419e-06)
(1.03482 5.29069e-05 2.55653e-05)
(1.03479 -3.723e-05 -1.11069e-05)
(1.03477 2.70449e-05 2.49046e-05)
(1.03484 -2.36745e-05 -1.55943e-05)
(1.03477 2.73489e-05 6.99915e-06)
(1.03479 5.56046e-06 -2.84167e-06)
(1.03481 1.82878e-05 -1.78839e-05)
(1.03474 -3.13991e-06 3.39744e-05)
(1.03484 8.68067e-06 -5.50715e-05)
(1.03478 2.29084e-05 3.4309e-05)
(1.03476 3.13531e-05 -5.51025e-05)
(1.03481 -4.58124e-06 4.38142e-05)
(1.03474 2.08764e-05 -4.05794e-05)
(1.03481 -2.63409e-05 2.22608e-05)
(1.0348 4.53945e-05 -1.12994e-05)
(1.03475 7.65261e-06 5.66067e-06)
(1.03481 5.2344e-06 6.71048e-06)
(1.03472 3.52022e-06 2.0854e-05)
(1.03485 -3.52015e-05 -6.00201e-06)
(1.03477 5.55099e-05 3.50924e-05)
(1.03476 -2.20961e-05 -2.13137e-05)
(1.0348 3.91475e-05 4.16741e-05)
(1.03471 -3.45168e-05 -1.85949e-05)
(1.03486 -1.8635e-05 1.84148e-05)
(1.03473 1.40668e-05 4.46838e-06)
(1.03483 5.28372e-06 -1.35783e-05)
(1.03474 -2.40576e-05 4.9278e-05)
(1.03479 -7.83109e-06 -3.54996e-05)
(1.03482 -3.60869e-05 5.73893e-05)
(1.03475 3.16247e-06 -2.25062e-05)
(1.03484 1.90269e-05 2.95611e-05)
(1.03471 -3.20327e-05 1.60499e-05)
(1.03482 -2.80236e-05 3.65568e-06)
(1.03479 -2.32236e-05 4.72359e-06)
(1.03478 -2.62905e-05 2.17467e-05)
(1.03483 2.38571e-05 -1.34006e-05)
(1.03474 -2.55692e-05 5.30343e-05)
(1.03481 -2.32348e-05 -1.41496e-05)
(1.03482 -2.03228e-06 3.57217e-05)
(1.03478 -2.54441e-05 -4.81052e-06)
(1.03482 4.60864e-05 3.4384e-05)
(1.03479 -2.32005e-05 -1.40807e-05)
(1.03477 1.46791e-05 3.52212e-05)
(1.03484 -2.24743e-05 -2.51081e-05)
(1.03478 2.66317e-05 1.0742e-05)
(1.03479 1.36717e-05 -6.38755e-06)
(1.03481 2.15324e-05 -1.505e-05)
(1.03473 -1.19995e-05 4.07606e-05)
(1.03485 1.22058e-05 -5.99094e-05)
(1.03479 1.84296e-05 2.94655e-05)
(1.03475 4.79983e-05 -5.4769e-05)
(1.0348 -1.12995e-05 4.72774e-05)
(1.03474 1.69922e-05 -3.43493e-05)
(1.03481 -3.02239e-05 2.14592e-05)
(1.03481 4.50813e-05 -1.32207e-05)
(1.03474 1.5703e-05 6.53615e-06)
(1.0348 5.98848e-06 1.79677e-05)
(1.03471 -7.28283e-06 2.76e-05)
(1.03486 -4.03813e-05 -2.73827e-06)
(1.03477 5.44429e-05 3.76832e-05)
(1.03476 -9.76107e-06 -2.14947e-05)
(1.0348 3.38539e-05 5.37278e-05)
(1.03469 -3.60721e-05 -1.75033e-05)
(1.03487 -3.98998e-05 1.85639e-05)
(1.03474 2.18575e-05 -1.44305e-06)
(1.03481 5.46109e-06 -7.84765e-06)
(1.03474 -2.73676e-05 5.16621e-05)
(1.03479 -1.99618e-05 -3.04017e-05)
(1.03482 -5.29889e-05 5.6286e-05)
(1.03476 8.92387e-06 -2.32915e-05)
(1.03483 1.98424e-05 3.27205e-05)
(1.0347 -3.55212e-05 2.41644e-05)
(1.03482 -3.99334e-05 4.88867e-06)
(1.03479 -4.28893e-05 1.2606e-06)
(1.0348 -2.04383e-05 2.08038e-05)
(1.03483 2.11493e-05 -1.05739e-05)
(1.03472 -2.39059e-05 6.0733e-05)
(1.03481 -3.12073e-05 -7.65199e-06)
(1.03482 -1.74548e-05 3.87e-05)
(1.03479 -1.75233e-05 -5.38541e-06)
(1.03482 4.14006e-05 4.14284e-05)
(1.03478 -9.44834e-06 -1.01513e-05)
(1.03477 1.1189e-06 4.42447e-05)
(1.03484 -2.67651e-05 -3.2186e-05)
(1.03479 2.56213e-05 8.99732e-06)
(1.03479 2.05664e-05 -5.134e-06)
(1.0348 2.64076e-05 -7.84341e-06)
(1.03473 -2.20728e-05 5.42989e-05)
(1.03485 8.39221e-06 -6.76996e-05)
(1.03479 1.27849e-05 2.5546e-05)
(1.03475 6.0375e-05 -5.49335e-05)
(1.03479 -1.47909e-05 6.03198e-05)
(1.03474 9.47642e-06 -2.47295e-05)
(1.03482 -3.95456e-05 2.3362e-05)
(1.03482 4.12586e-05 -1.88125e-05)
(1.03473 2.18606e-05 1.26345e-05)
(1.0348 8.48415e-06 3.4953e-05)
(1.0347 -2.40679e-05 4.14187e-05)
(1.03487 -4.9474e-05 4.78175e-07)
(1.03478 4.6798e-05 3.99449e-05)
(1.03475 4.15289e-06 -1.94014e-05)
(1.03479 2.85293e-05 7.13209e-05)
(1.03467 -4.1653e-05 -1.10175e-05)
(1.03488 -6.78615e-05 1.5774e-05)
(1.03475 2.46253e-05 -7.39882e-06)
(1.0348 2.76489e-06 -2.77431e-06)
(1.03473 -3.03329e-05 6.23721e-05)
(1.03478 -4.0275e-05 -2.69822e-05)
(1.03483 -7.21845e-05 5.69825e-05)
(1.03478 5.1108e-06 -2.92893e-05)
(1.03482 2.21661e-05 3.97355e-05)
(1.03468 -4.17701e-05 3.53641e-05)
(1.03481 -5.52826e-05 9.16369e-06)
(1.03479 -7.18854e-05 -6.30142e-06)
(1.03481 -2.14358e-05 1.81366e-05)
(1.03483 1.77165e-05 -6.23036e-06)
(1.03471 -2.44203e-05 7.35541e-05)
(1.03481 -4.46366e-05 1.44938e-06)
(1.03482 -4.04152e-05 4.22482e-05)
(1.0348 -1.64749e-05 -5.70919e-06)
(1.03482 3.67126e-05 5.07355e-05)
(1.03477 5.28525e-06 8.58551e-07)
(1.03476 -1.4328e-05 5.57846e-05)
(1.03485 -3.81829e-05 -3.87897e-05)
(1.03479 1.96561e-05 3.23135e-06)
(1.03479 2.60495e-05 1.61241e-06)
(1.03478 3.49477e-05 1.27791e-05)
(1.03472 -3.72126e-05 7.81256e-05)
(1.03486 -8.24484e-06 -7.92175e-05)
(1.0348 1.66603e-06 1.75069e-05)
(1.03474 6.71123e-05 -5.33043e-05)
(1.03478 -1.40046e-05 8.93606e-05)
(1.03473 -6.08438e-06 -6.72332e-06)
(1.03482 -5.82993e-05 2.48879e-05)
(1.03482 2.75053e-05 -3.26043e-05)
(1.03472 2.75461e-05 2.56293e-05)
(1.03478 1.13641e-05 6.56883e-05)
(1.03468 -4.88484e-05 6.73564e-05)
(1.03488 -6.99268e-05 -4.91174e-07)
(1.03479 2.9536e-05 3.90199e-05)
(1.03474 1.78059e-05 -1.44342e-05)
(1.03478 2.36667e-05 0.000103466)
(1.03465 -5.4575e-05 3.61591e-06)
(1.03489 -0.000110002 6.92254e-06)
(1.03476 1.82811e-05 -2.01143e-05)
(1.03479 -3.50562e-06 5.32833e-06)
(1.03472 -3.27499e-05 8.57395e-05)
(1.03477 -7.38142e-05 -2.13507e-05)
(1.03484 -0.000102242 5.39037e-05)
(1.03479 -1.43366e-05 -4.50328e-05)
(1.03481 2.69891e-05 5.14899e-05)
(1.03466 -5.22462e-05 5.54861e-05)
(1.0348 -7.74643e-05 1.86881e-05)
(1.0348 -0.000117288 -2.25714e-05)
(1.03482 -3.2124e-05 7.34656e-06)
(1.03483 9.45478e-06 -3.01296e-07)
(1.0347 -2.34573e-05 9.92273e-05)
(1.0348 -6.84246e-05 1.80452e-05)
(1.03483 -7.7377e-05 4.34625e-05)
(1.03481 -2.89369e-05 -1.2162e-05)
(1.03482 3.23576e-05 6.41126e-05)
(1.03475 2.14565e-05 2.48041e-05)
(1.03474 -3.33609e-05 7.47611e-05)
(1.03485 -6.19578e-05 -5.02086e-05)
(1.0348 2.60105e-06 -1.0002e-05)
(1.03479 3.00048e-05 1.31665e-05)
(1.03477 5.27508e-05 5.57941e-05)
(1.03471 -5.53538e-05 0.00011685)
(1.03486 -4.51751e-05 -9.75322e-05)
(1.03481 -2.7942e-05 -2.67283e-06)
(1.03473 6.8101e-05 -4.76948e-05)
(1.03476 -4.26535e-06 0.000141841)
(1.03471 -2.48228e-05 2.61808e-05)
(1.03483 -9.56941e-05 2.35507e-05)
(1.03484 -6.62273e-06 -5.85536e-05)
(1.03471 2.87616e-05 4.70032e-05)
(1.03476 1.81319e-05 0.000117669)
(1.03466 -7.78257e-05 0.000111852)
(1.03489 -0.000110571 -8.23267e-06)
(1.0348 -7.52368e-06 2.69928e-05)
(1.03474 2.57832e-05 -7.4132e-06)
(1.03476 2.59974e-05 0.000157674)
(1.03463 -7.31348e-05 3.19944e-05)
(1.0349 -0.000171721 -1.14745e-05)
(1.03477 -1.06662e-05 -4.62207e-05)
(1.03478 -1.5717e-05 1.57145e-05)
(1.0347 -3.07922e-05 0.000127889)
(1.03475 -0.00011609 -9.22529e-06)
(1.03484 -0.00015207 4.10959e-05)
(1.03481 -5.91968e-05 -7.78069e-05)
(1.0348 2.94639e-05 6.58351e-05)
(1.03464 -5.9692e-05 9.20937e-05)
(1.03478 -0.000105371 3.71471e-05)
(1.0348 -0.000188338 -5.07075e-05)
(1.03484 -6.31583e-05 -1.63668e-05)
(1.03482 -6.35902e-06 6.80371e-06)
(1.03468 -1.70135e-05 0.000140884)
(1.03478 -0.000103805 4.51181e-05)
(1.03483 -0.000134905 4.11536e-05)
(1.03483 -6.96271e-05 -2.86967e-05)
(1.03483 2.82103e-05 8.18464e-05)
(1.03474 4.19349e-05 6.82342e-05)
(1.03472 -5.23908e-05 0.000105619)
(1.03485 -0.000108054 -6.86624e-05)
(1.03482 -3.601e-05 -3.73391e-05)
(1.03479 2.76356e-05 3.04672e-05)
(1.03475 8.38707e-05 0.000139139)
(1.0347 -7.98944e-05 0.000182734)
(1.03487 -0.00011402 -0.000131908)
(1.03483 -8.89984e-05 -5.17694e-05)
(1.03473 6.39009e-05 -3.92091e-05)
(1.03474 1.83899e-05 0.000237834)
(1.0347 -4.94268e-05 8.6402e-05)
(1.03484 -0.000163826 9.99373e-06)
(1.03486 -6.78779e-05 -0.000114786)
(1.03471 2.11409e-05 7.71396e-05)
(1.03474 3.22496e-05 0.000210256)
(1.03465 -0.000115225 0.00018563)
(1.03491 -0.000182409 -3.29427e-05)
(1.03482 -7.59324e-05 -1.60219e-05)
(1.03474 2.67895e-05 1.51884e-06)
(1.03474 3.93206e-05 0.000252828)
(1.0346 -0.000102781 8.55414e-05)
(1.03492 -0.000265014 -5.18983e-05)
(1.0348 -7.18794e-05 -0.000102719)
(1.03477 -3.5581e-05 2.81516e-05)
(1.03468 -2.49506e-05 0.000206104)
(1.03473 -0.000170643 1.94241e-05)
(1.03486 -0.000235753 6.85909e-06)
(1.03484 -0.000138797 -0.000146277)
(1.03479 2.66091e-05 8.10413e-05)
(1.03461 -6.01445e-05 0.00016154)
(1.03477 -0.000144999 7.66328e-05)
(1.03482 -0.000295427 -0.000102765)
(1.03487 -0.000128287 -7.23273e-05)
(1.03483 -3.41722e-05 1.46513e-05)
(1.03466 -5.71518e-06 0.000216779)
(1.03477 -0.000154212 9.34619e-05)
(1.03484 -0.000226022 2.11169e-05)
(1.03486 -0.000149701 -7.58647e-05)
(1.03484 2.19143e-05 0.000102291)
(1.03472 6.99624e-05 0.000150157)
(1.0347 -7.08088e-05 0.000159447)
(1.03486 -0.000187879 -0.000104555)
(1.03484 -0.000108015 -9.72682e-05)
(1.0348 1.51969e-05 5.33287e-05)
(1.03474 0.000139244 0.000287961)
(1.03473 -0.000111678 0.000327179)
(1.03494 -0.000235995 -0.000169012)
(1.03488 -0.000204282 -0.000156873)
(1.03474 5.71002e-05 -4.89425e-05)
(1.03473 6.57161e-05 0.00040288)
(1.03474 -7.93327e-05 0.000225899)
(1.03491 -0.000286533 1.20276e-06)
(1.03493 -0.000176791 -0.00022848)
(1.03474 4.68217e-06 9.08769e-05)
(1.03474 6.92449e-05 0.000365891)
(1.03468 -0.000160034 0.000338686)
(1.03498 -0.000306464 -5.91578e-05)
(1.03489 -0.000194276 -0.000125377)
(1.03475 2.32204e-05 -1.24755e-05)
(1.03473 7.56988e-05 0.000417136)
(1.03461 -0.000143764 0.000214934)
(1.035 -0.000412466 -9.86898e-05)
(1.03486 -0.000184694 -0.000219293)
(1.03478 -6.0926e-05 1.76951e-05)
(1.03468 -1.49495e-06 0.000346411)
(1.03477 -0.000239723 0.000116445)
(1.03492 -0.000378769 -3.24349e-05)
(1.03491 -0.000273469 -0.000279819)
(1.03479 2.02774e-05 7.58184e-05)
(1.03461 -3.75529e-05 0.000291581)
(1.03479 -0.000200349 0.000191404)
(1.03488 -0.000463162 -0.000158018)
(1.03494 -0.00025022 -0.000185284)
(1.03485 -7.03016e-05 -6.29404e-07)
(1.03466 2.05586e-05 0.000350144)
(1.03479 -0.000223299 0.000213224)
(1.03491 -0.000375533 5.84411e-07)
(1.03492 -0.00028745 -0.000182721)
(1.03485 1.34931e-05 9.70134e-05)
(1.0347 0.000115254 0.000293515)
(1.03471 -9.48533e-05 0.000287339)
(1.03492 -0.000324622 -0.000135986)
(1.0349 -0.000234615 -0.000218273)
(1.03482 -4.8738e-06 5.67785e-05)
(1.03477 0.000218775 0.00054413)
(1.03488 -0.000156939 0.000697513)
(1.03509 -0.000427503 -0.000116716)
(1.03496 -0.000388145 -0.000346615)
(1.03477 4.10861e-05 -0.000131512)
(1.03477 0.000133905 0.000684965)
(1.0349 -0.000120756 0.000587726)
(1.03509 -0.000474361 8.75469e-05)
(1.03505 -0.000344798 -0.000426907)
(1.03478 -2.69166e-05 2.33673e-05)
(1.0348 0.000128801 0.000611024)
(1.03482 -0.000218806 0.000699971)
(1.03515 -0.000497515 7.04053e-07)
(1.03498 -0.00038123 -0.000341894)
(1.03477 1.07433e-05 -0.000112245)
(1.03477 0.000133439 0.000694344)
(1.03473 -0.000203502 0.000550959)
(1.03518 -0.00062748 -5.33956e-05)
(1.03495 -0.000362948 -0.000420068)
(1.0348 -9.58987e-05 -6.63305e-05)
(1.03475 4.15572e-05 0.000593013)
(1.0349 -0.00033037 0.00043193)
(1.03507 -0.000593911 2.03154e-05)
(1.035 -0.000472866 -0.000496423)
(1.0348 6.0582e-06 -1.57264e-06)
(1.03468 3.14145e-06 0.000529415)
(1.03492 -0.000278631 0.000528561)
(1.03504 -0.000703721 -0.000109832)
(1.03503 -0.000447781 -0.000370321)
(1.03486 -0.000118848 -8.25252e-05)
(1.03473 5.94973e-05 0.000595898)
(1.03492 -0.000316449 0.000541988)
(1.03507 -0.00059783 6.77472e-05)
(1.03499 -0.000497189 -0.000388784)
(1.03483 -4.18959e-06 5.46809e-07)
(1.03472 0.000181674 0.000542796)
(1.03481 -0.00013192 0.000633261)
(1.03508 -0.000533329 -5.2367e-05)
(1.03499 -0.000434609 -0.0004217)
(1.03483 -3.58466e-05 -2.43353e-05)
(1.03476 0.000276414 0.000985288)
(1.03496 -0.000230003 0.00152619)
(1.035 -0.000672058 0.000163709)
(1.03471 -0.000629569 -0.000664113)
(1.03466 -1.15072e-05 -0.00036925)
(1.03474 0.000181975 0.00116114)
(1.03506 -0.000196148 0.00139752)
(1.03507 -0.000719972 0.000398119)
(1.03494 -0.000566121 -0.00076239)
(1.03467 -9.78967e-05 -0.000231548)
(1.03489 0.000167171 0.000983049)
(1.03493 -0.000303788 0.00146855)
(1.03514 -0.00074537 0.000268035)
(1.03477 -0.000627782 -0.00074493)
(1.03464 -3.82418e-05 -0.000397938)
(1.03479 0.000168244 0.00115485)
(1.03483 -0.000296969 0.00128797)
(1.03517 -0.000896882 0.000223016)
(1.03478 -0.000593695 -0.000755054)
(1.03464 -0.000169297 -0.000305431)
(1.03482 6.6786e-05 0.00101378)
(1.03496 -0.00045236 0.00119615)
(1.03497 -0.000866619 0.000305152)
(1.03477 -0.000726296 -0.000831243)
(1.03466 -3.9267e-05 -0.000228342)
(1.03475 1.8947e-05 0.000948563)
(1.03501 -0.00039401 0.00131287)
(1.03489 -0.00100529 0.000194691)
(1.03482 -0.000705081 -0.000660336)
(1.03464 -0.000204379 -0.000308128)
(1.03478 7.41172e-05 0.00104426)
(1.03494 -0.000440566 0.00130184)
(1.03499 -0.00087714 0.000362221)
(1.0347 -0.000764791 -0.000765284)
(1.0346 -6.03408e-05 -0.000292366)
(1.03466 0.000221273 0.000974889)
(1.03484 -0.000197589 0.0014355)
(1.03499 -0.00079873 0.000324712)
(1.03475 -0.000688091 -0.000742068)
(1.03461 -0.000106714 -0.000292046)
(1.03411 0.000246905 0.00178621)
(1.03383 -0.000282871 0.00278945)
(1.03339 -0.000862911 0.000460124)
(1.03311 -0.000903107 -0.00123338)
(1.03382 -0.000166013 -0.000660329)
(1.03393 0.000141507 0.0019806)
(1.03419 -0.000259191 0.00261684)
(1.0336 -0.00092141 0.000702917)
(1.03368 -0.000819335 -0.00138255)
(1.03378 -0.000281828 -0.000615609)
(1.03442 0.00011539 0.00158997)
(1.034 -0.00038298 0.00259014)
(1.03378 -0.00094766 0.000497278)
(1.03328 -0.000904249 -0.00149448)
(1.03385 -0.000189519 -0.000786921)
(1.03415 0.000117912 0.0019165)
(1.03391 -0.000385292 0.00234513)
(1.0337 -0.00111847 0.000520163)
(1.03345 -0.00085092 -0.00135594)
(1.03363 -0.000342769 -0.000630828)
(1.03427 2.40069e-05 0.00172025)
(1.03377 -0.000545768 0.00235966)
(1.03337 -0.00109307 0.000594818)
(1.03318 -0.00099984 -0.00141325)
(1.03384 -0.000195345 -0.000528413)
(1.03407 -4.38107e-05 0.00166343)
(1.03394 -0.000483447 0.0024998)
(1.03305 -0.00125001 0.000537822)
(1.03333 -0.000978418 -0.0011808)
(1.03343 -0.000385016 -0.000603995)
(1.03414 1.86267e-05 0.00183882)
(1.03362 -0.000532307 0.00244737)
(1.03344 -0.00109353 0.000674605)
(1.03301 -0.00104342 -0.00146655)
(1.03359 -0.000214475 -0.00067813)
(1.03381 0.000173879 0.00175787)
(1.03377 -0.000248984 0.00269824)
(1.03329 -0.00101717 0.000818941)
(1.03318 -0.000951032 -0.00131523)
(1.03349 -0.000276903 -0.000648162)
(1.03061 0.000196535 0.00312345)
(1.02876 -0.000219444 0.00374828)
(1.02827 -0.000932597 -2.1577e-05)
(1.02866 -0.00118153 -0.00203228)
(1.03074 -0.000398328 -0.000444974)
(1.03009 7.49326e-05 0.00325646)
(1.02985 -0.000219349 0.00349696)
(1.02855 -0.00100843 0.000185596)
(1.02986 -0.00107849 -0.00231096)
(1.03051 -0.000552439 -0.000606247)
(1.03136 3.33132e-05 0.00258175)
(1.0295 -0.000358492 0.0033708)
(1.02907 -0.00103301 -0.000130175)
(1.02903 -0.00118438 -0.00254505)
(1.03096 -0.000424671 -0.000688731)
(1.03062 4.72156e-05 0.00305662)
(1.02959 -0.000376328 0.00299266)
(1.02866 -0.00121139 7.65122e-05)
(1.02946 -0.00110673 -0.002231)
(1.03009 -0.000582434 -0.000526815)
(1.03091 -1.28449e-05 0.00281073)
(1.0287 -0.000502638 0.00318509)
(1.02832 -0.0011918 9.27565e-05)
(1.02871 -0.00126934 -0.0022356)
(1.03078 -0.000431052 -0.000379544)
(1.03016 -0.000102548 0.00279858)
(1.02913 -0.000429803 0.0033852)
(1.02733 -0.00134347 0.000127807)
(1.02915 -0.0012237 -0.00192351)
(1.02946 -0.000624458 -0.000438925)
(1.03061 -1.31854e-05 0.00310417)
(1.02827 -0.000478793 0.00327194)
(1.02849 -0.00115774 0.000239894)
(1.02833 -0.00130708 -0.00244754)
(1.03034 -0.000440834 -0.000476451)
(1.02977 0.000123524 0.0030905)
(1.02909 -0.000177239 0.0037728)
(1.02771 -0.00108861 0.000595767)
(1.02892 -0.00118815 -0.00217322)
(1.02983 -0.000526415 -0.00045824)
(1.01999 0.000365749 0.00435763)
(1.01641 -0.000124125 0.00312343)
(1.01793 -0.00105729 -0.00147637)
(1.0191 -0.00138629 -0.00207777)
(1.02181 -0.000409991 0.000967337)
(1.01901 0.000204744 0.00433568)
(1.01893 -0.000152606 0.00277504)
(1.01782 -0.00114605 -0.00139132)
(1.02129 -0.00127892 -0.00259758)
(1.02123 -0.000613857 0.000530656)
(1.02155 0.000141295 0.0034775)
(1.01796 -0.000290952 0.00264594)
(1.01901 -0.00115517 -0.00180441)
(1.01971 -0.00137812 -0.0027804)
(1.02239 -0.000443415 0.000615622)
(1.01989 0.000158191 0.00394722)
(1.01868 -0.000332277 0.00216276)
(1.01776 -0.00131442 -0.0012372)
(1.02038 -0.00126842 -0.00246381)
(1.02031 -0.000584316 0.000710176)
(1.02048 0.000152218 0.00373714)
(1.01649 -0.000409824 0.00253252)
(1.01793 -0.00131441 -0.00133381)
(1.01885 -0.00144363 -0.00228864)
(1.02157 -0.000445607 0.000917728)
(1.01841 6.4044e-05 0.00387066)
(1.01739 -0.000302038 0.00284435)
(1.01578 -0.00143702 -0.00116824)
(1.0199 -0.0013527 -0.001894)
(1.01892 -0.000623743 0.000930863)
(1.01994 0.000197213 0.00429035)
(1.01562 -0.000357316 0.00264033)
(1.01829 -0.00123868 -0.00107435)
(1.01808 -0.00147974 -0.00256798)
(1.02115 -0.000425314 0.0012305)
(1.01793 0.000287073 0.00440844)
(1.0176 -4.95536e-05 0.0034629)
(1.01612 -0.00118319 -0.000716262)
(1.01989 -0.00134859 -0.00231248)
(1.01973 -0.000550457 0.00110264)
(0.998247 0.000554338 0.0037487)
(0.994618 -0.000388354 0.000867525)
(0.999859 -0.00127034 -0.00213032)
(0.999397 -0.00115723 -0.000237708)
(1.00134 5.20039e-05 0.00266479)
(0.996523 0.000338747 0.00361516)
(0.998974 -0.000407646 0.000431888)
(0.998535 -0.00136321 -0.00227719)
(1.00311 -0.00107907 -0.00100016)
(1.00013 -0.000205436 0.00209349)
(1.00041 0.000306102 0.00289523)
(0.996614 -0.000510124 0.000403247)
(1.0007 -0.00133539 -0.00265637)
(1.00032 -0.00113445 -0.000945836)
(1.00223 2.32451e-06 0.0022438)
(0.997338 0.000283373 0.00321636)
(0.998344 -0.000554341 7.84845e-05)
(0.997689 -0.00143514 -0.00175812)
(1.00124 -0.00101326 -0.000938975)
(0.99848 -0.000119486 0.00239519)
(0.9985 0.000338373 0.00314446)
(0.994636 -0.000609725 0.000571517)
(0.998974 -0.00146924 -0.00184741)
(0.99822 -0.0011512 -0.00039857)
(1.00004 2.00523e-05 0.00263249)
(0.994567 0.000287007 0.00353848)
(0.996431 -0.000462683 0.000947284)
(0.995425 -0.00154765 -0.00154364)
(1.00027 -0.00103708 2.99737e-05)
(0.996126 -0.000132201 0.00275342)
(0.997815 0.000446718 0.00390918)
(0.993428 -0.000553672 0.000663144)
(0.999607 -0.00135654 -0.00144546)
(0.996942 -0.0011829 -0.000506696)
(0.999985 0.00010356 0.00354686)
(0.993992 0.000472555 0.00397745)
(0.997131 -0.000252232 0.00160154)
(0.995817 -0.00137963 -0.00154253)
(1.00122 -0.0010804 -0.00040322)
(0.997226 -6.10071e-05 0.00307021)
(0.964332 0.000105128 0.00148272)
(0.960899 -0.000906435 -0.000468513)
(0.968071 -0.000995594 -0.000590733)
(0.962988 -0.000345324 0.00174524)
(0.965701 0.000415418 0.00233268)
(0.960981 -0.000115257 0.0012888)
(0.967004 -0.000879523 -0.000978579)
(0.964963 -0.00110228 -0.000938014)
(0.968706 -0.000309743 0.00101479)