/*--------------------------------*- C++ -*----------------------------------*\
  =========                 |
  \\      /  F ield         | OpenFOAM: The Open Source CFD Toolbox
   \\    /   O peration     | Website:  https://openfoam.org
    \\  /    A nd           | Version:  10
     \\/     M anipulation  |
\*---------------------------------------------------------------------------*/
FoamFile
{
    format      ascii;
    class       volSymmTensorField;
    location    "30";
    object      UPrime2Mean;
}
// * * * * * * * * * * * * * * * * * * * * * * * * * * * * * * * * * * * * * //

dimensions      [0 2 -2 0 0 0 0];

internalField   nonuniform List<symmTensor> 
25600
(
(0.00713944 3.39673e-06 4.02105e-05 1.0573e-07 -4.94128e-07 0.00012635)
(0.00692185 5.88139e-06 0.000167518 1.13388e-07 -2.88859e-07 0.000114704)
(0.00676194 1.98481e-06 0.000126421 1.02088e-07 -1.09409e-07 9.92029e-05)
(0.00654188 -6.97477e-06 7.14563e-05 1.09941e-07 -1.02201e-07 9.78287e-05)
(0.00682063 -4.67285e-06 -3.55554e-05 1.07489e-07 6.7075e-08 0.000103372)
(0.00688125 3.93473e-06 7.12029e-06 1.13794e-07 -5.52514e-08 0.000107328)
(0.00662839 4.73417e-06 0.000102737 1.44188e-07 3.57102e-07 0.000113992)
(0.00650065 -4.57258e-07 0.000128691 1.72306e-07 8.38667e-07 0.000120946)
(0.0066958 -8.19542e-06 5.65892e-07 2.1743e-07 1.08395e-06 0.000125577)
(0.00671594 -5.48984e-06 -0.000100643 2.19889e-07 1.18225e-06 0.000134592)
(0.00680559 1.48375e-06 -8.80582e-06 2.01815e-07 7.33213e-07 0.000134442)
(0.00644742 4.90371e-06 0.000130783 1.93292e-07 6.1676e-07 0.000133416)
(0.00648478 1.7658e-06 0.000153582 1.58539e-07 5.37984e-07 0.000133951)
(0.00623187 -6.53015e-06 5.12706e-05 1.46151e-07 6.63794e-07 0.000131547)
(0.00675607 -7.3085e-06 -3.31983e-05 1.41707e-07 1.06485e-06 0.000128465)
(0.00661358 3.99622e-06 4.43724e-05 1.36132e-07 8.83933e-07 0.000124437)
(0.00667514 9.68764e-06 0.000108162 1.48898e-07 9.02679e-07 0.000120211)
(0.00639017 -1.41123e-06 0.000128168 1.53526e-07 7.329e-07 0.000119913)
(0.00665487 -1.1337e-05 -1.40913e-05 1.85951e-07 6.68201e-07 0.000115511)
(0.00690572 -9.68561e-06 -8.4176e-05 1.57832e-07 3.23844e-07 0.000114231)
(0.00699353 3.44179e-06 5.76801e-05 1.35712e-07 -1.15879e-07 0.000114788)
(0.00663162 4.3219e-06 0.000200307 1.47952e-07 -1.30245e-07 0.000122506)
(0.00652189 -9.04257e-07 0.000212706 1.30358e-07 -3.51393e-07 0.000126615)
(0.00686076 -7.00915e-06 9.7355e-05 1.25271e-07 -3.71889e-07 0.000120915)
(0.00687231 -4.39948e-06 -1.86709e-05 1.10397e-07 -1.34028e-07 0.000109246)
(0.00709428 2.40045e-06 1.85121e-05 9.86093e-08 -2.36059e-07 0.000100146)
(0.00662354 7.89345e-06 0.000121154 1.2216e-07 -1.0846e-07 0.000102264)
(0.0064683 5.09635e-07 0.000149804 1.14718e-07 -4.55669e-08 0.000105703)
(0.00670934 -6.96915e-06 -1.04165e-05 1.38079e-07 1.22003e-08 0.000106315)
(0.00677194 -6.2239e-06 -5.37952e-05 1.32773e-07 1.13446e-07 0.000116655)
(0.00679367 3.68863e-06 -7.42161e-06 1.21794e-07 3.42769e-07 0.000118595)
(0.00675849 7.42115e-06 0.000126071 1.3829e-07 4.7321e-07 0.0001169)
(0.00657551 -6.81823e-07 0.000142246 1.44023e-07 3.80445e-07 0.000121138)
(0.00665878 -9.55676e-06 3.93521e-05 1.71611e-07 2.11979e-07 0.000136477)
(0.00695723 -8.59687e-06 -2.41354e-05 1.87049e-07 3.84386e-07 0.00014697)
(0.00709218 3.77257e-06 7.03978e-05 1.78587e-07 -3.35063e-08 0.000147574)
(0.00685198 5.23636e-06 0.000143518 1.55807e-07 -4.64863e-07 0.000147456)
(0.00668188 -2.81556e-06 0.000173131 1.23593e-07 -7.74681e-07 0.000138929)
(0.00694406 -1.09362e-05 6.45932e-05 1.24276e-07 -8.55674e-07 0.000132973)
(0.00732932 -8.10919e-06 -1.66915e-05 1.1295e-07 -6.65246e-07 0.000135298)
(0.0309192 -5.52823e-05 0.000471443 2.45231e-06 1.54107e-06 0.00061573)
(0.0296564 -9.86591e-06 0.00074536 2.47849e-06 2.84322e-06 0.000572726)
(0.0295449 -5.03201e-06 0.000617629 2.45679e-06 1.35219e-06 0.00046323)
(0.0276821 -2.95582e-05 0.000594323 2.3195e-06 -4.91736e-07 0.00045197)
(0.0283389 -6.44799e-05 0.000366092 2.31442e-06 3.32753e-07 0.000517484)
(0.0280538 -3.30258e-05 0.000225822 2.35374e-06 2.85186e-06 0.000571957)
(0.0280643 4.20489e-06 0.00035025 2.92832e-06 7.25838e-06 0.000612595)
(0.0268734 -3.67258e-06 0.00046886 3.53901e-06 9.49821e-06 0.000633432)
(0.0273553 -3.42539e-05 0.000422554 4.02288e-06 6.79282e-06 0.000629182)
(0.0268993 -6.6325e-05 0.000239607 4.38432e-06 4.20061e-06 0.00064665)
(0.0282137 -3.68521e-05 0.000219445 4.3687e-06 2.77261e-06 0.000662015)
(0.0262084 3.93567e-06 0.000342986 4.19178e-06 4.46067e-06 0.000660251)
(0.0272897 4.34046e-06 0.000490462 3.94086e-06 4.81544e-06 0.000661132)
(0.0249248 -2.51508e-05 0.000477138 3.52663e-06 7.53511e-06 0.000657243)
(0.0272617 -6.57168e-05 0.000248615 3.70239e-06 1.02802e-05 0.000650274)
(0.0260555 -3.11372e-05 0.000253638 3.82129e-06 7.799e-06 0.000675608)
(0.0282582 -1.30106e-05 0.000393943 3.81467e-06 6.16689e-06 0.000669257)
(0.026903 -8.784e-06 0.000577126 4.43829e-06 1.92831e-06 0.000677057)
(0.0277085 -6.82449e-05 0.000563332 5.05819e-06 -5.33814e-06 0.000656005)
(0.0280455 -0.00010154 0.000336301 4.69801e-06 -1.12828e-05 0.000614265)
(0.0286638 -8.30022e-05 0.000508228 4.21754e-06 -1.1708e-05 0.00059841)
(0.0288202 -3.38294e-05 0.000730094 4.07328e-06 -1.21365e-05 0.000620971)
(0.0276153 -5.20008e-05 0.00101355 3.68456e-06 -1.49479e-05 0.000631967)
(0.0298502 -8.56882e-05 0.000997172 3.10972e-06 -1.5568e-05 0.000623329)
(0.0291772 -9.44714e-05 0.000672668 2.56671e-06 -1.05749e-05 0.000558199)
(0.0306221 -7.49605e-05 0.000655946 2.27669e-06 -6.68415e-06 0.000506059)
(0.0288282 1.4021e-05 0.000517557 2.34696e-06 -2.75634e-06 0.000498009)
(0.0274486 1.05273e-05 0.000699157 2.44728e-06 1.23562e-06 0.000516671)
(0.0275153 -3.14866e-05 0.00044128 2.5877e-06 3.08693e-06 0.000526806)
(0.0279456 -4.8612e-05 0.00029271 2.63407e-06 1.6002e-06 0.00059051)
(0.0277281 -3.89321e-05 0.000247023 2.52861e-06 3.90041e-06 0.000584505)
(0.0285469 -3.18091e-06 0.000538639 2.99304e-06 3.36994e-06 0.00056081)
(0.0280698 -3.87859e-06 0.000687107 3.85005e-06 1.85397e-06 0.000584375)
(0.0280257 -5.59725e-05 0.000656981 4.63276e-06 2.29042e-07 0.000663036)
(0.0288917 -9.62799e-05 0.000518261 5.53775e-06 1.03244e-06 0.000707984)
(0.029205 -8.11271e-05 0.00058803 5.29365e-06 -2.3681e-06 0.000697316)
(0.0304003 -3.00295e-05 0.000715127 4.19796e-06 -5.38947e-06 0.00070099)
(0.0291309 -3.32098e-05 0.000845565 2.99704e-06 -4.9197e-06 0.000662178)
(0.0303805 -8.52357e-05 0.000658453 2.60061e-06 -4.93836e-06 0.000623505)
(0.0300361 -9.3534e-05 0.00052418 2.6193e-06 -2.95053e-06 0.000638633)
(0.050579 -0.000155438 0.000783774 1.36208e-05 1.57945e-05 0.00103144)
(0.049095 -9.85816e-05 0.00123041 1.42022e-05 1.92828e-05 0.00105555)
(0.0500526 -5.80573e-05 0.00130171 1.35555e-05 1.59556e-05 0.000914724)
(0.0458807 -8.08487e-05 0.000970465 1.19794e-05 9.38384e-06 0.000825472)
(0.0476848 -0.000130534 0.000854579 1.01371e-05 1.0336e-05 0.000938502)
(0.04432 -9.0271e-05 0.000542219 9.45605e-06 1.83645e-05 0.00108013)
(0.0462721 -4.67139e-05 0.000785149 1.15133e-05 2.70577e-05 0.00120031)
(0.0429443 -5.36349e-05 0.000836104 1.49393e-05 3.02085e-05 0.00125893)
(0.0452955 -0.000100372 0.000750264 1.71704e-05 2.1348e-05 0.00121177)
(0.0429905 -0.000166977 0.000556383 1.86973e-05 1.11634e-05 0.00120959)
(0.0459933 -0.000138233 0.000491646 1.85557e-05 6.8555e-06 0.00123511)
(0.0430948 -5.58061e-05 0.000575988 1.75012e-05 1.27902e-05 0.00123611)
(0.0454937 -5.91898e-05 0.000689848 1.72119e-05 1.15435e-05 0.00122935)
(0.0414563 -7.51268e-05 0.000736356 1.5969e-05 9.13323e-06 0.00123504)
(0.0447453 -0.000164732 0.000550006 1.63895e-05 9.89973e-06 0.00123216)
(0.0429895 -0.00013048 0.000639234 1.78918e-05 -1.52245e-06 0.00134055)
(0.0463935 -0.000132024 0.000745582 2.01558e-05 -6.63978e-06 0.00137596)
(0.0443922 -0.000128205 0.00106425 2.36592e-05 -1.66803e-05 0.00139688)
(0.0473019 -0.00020238 0.001224 2.52941e-05 -3.05779e-05 0.00135561)
(0.0459393 -0.000216556 0.000982827 2.33418e-05 -4.06275e-05 0.00124501)
(0.0473719 -0.000254887 0.00120951 2.14123e-05 -3.67191e-05 0.00112629)
(0.0480499 -0.000212714 0.00140541 1.96337e-05 -3.53373e-05 0.00115739)
(0.0481814 -0.000253805 0.00177227 1.81309e-05 -4.20233e-05 0.00115341)
(0.0506368 -0.000304016 0.00169382 1.60694e-05 -4.1953e-05 0.0011219)
(0.0499252 -0.00026216 0.00147516 1.26482e-05 -3.19494e-05 0.00100129)
(0.0505824 -0.000231516 0.0014351 1.07904e-05 -2.13227e-05 0.000972649)
(0.0484749 -5.42772e-05 0.00142995 1.05207e-05 -1.5877e-06 0.000977982)
(0.0478153 -1.66621e-05 0.00129074 1.15319e-05 1.58827e-05 0.00093372)
(0.0454625 -5.94791e-05 0.00111551 1.22744e-05 2.5162e-05 0.000909404)
(0.0465051 -8.68527e-05 0.000756968 1.24931e-05 2.18337e-05 0.00102806)
(0.04529 -0.000108848 0.000659789 1.25106e-05 2.92229e-05 0.00101108)
(0.0463333 -8.74453e-05 0.000992325 1.42491e-05 2.23646e-05 0.000968677)
(0.0463523 -6.40573e-05 0.00124723 1.66241e-05 1.45213e-05 0.000996393)
(0.0468656 -0.00015483 0.00112637 1.94324e-05 1.02921e-05 0.00111056)
(0.0483229 -0.000203429 0.00111037 2.18123e-05 1.61365e-05 0.00118745)
(0.047426 -0.000225545 0.000998516 2.25657e-05 1.52201e-05 0.00117636)
(0.0498678 -0.000170221 0.00113792 1.88328e-05 9.98985e-06 0.00117266)
(0.0488965 -0.000170524 0.00108347 1.4779e-05 7.58056e-06 0.00108072)
(0.0507845 -0.000225322 0.000875414 1.29573e-05 2.60539e-06 0.000999057)
(0.0486924 -0.000186858 0.000643884 1.3085e-05 4.17763e-06 0.00104833)
(0.0550213 -0.000224859 0.000703495 3.94353e-05 2.31938e-05 0.00143214)
(0.0540491 -0.000185123 0.00112205 4.14562e-05 2.65014e-05 0.00149294)
(0.0562599 -0.000123167 0.00161611 3.89413e-05 2.08458e-05 0.00142304)
(0.051476 -0.000100977 0.00117283 3.39334e-05 1.80194e-05 0.00124391)
(0.0535101 -0.000153671 0.0011114 2.72247e-05 1.34885e-05 0.00122859)
(0.0496402 -8.99412e-05 0.000802507 2.35429e-05 2.32113e-05 0.00133604)
(0.0521267 -5.97786e-05 0.00129945 2.7463e-05 3.55537e-05 0.00150414)
(0.0484747 -6.67464e-05 0.00129881 3.5969e-05 4.59744e-05 0.00169505)
(0.0520633 -0.000142386 0.00118616 4.22645e-05 3.94726e-05 0.00167242)
(0.0485167 -0.000241719 0.000653341 4.89267e-05 2.30232e-05 0.00163552)
(0.0525916 -0.000239634 0.000560394 4.89305e-05 3.28435e-06 0.00166304)
(0.0483197 -0.000155071 0.000596668 4.70222e-05 8.24985e-07 0.00166288)
(0.052992 -0.00017237 0.000827116 4.76203e-05 -7.86693e-06 0.00165213)
(0.0486477 -0.000170336 0.00092063 4.6413e-05 -2.32281e-05 0.00167098)
(0.052452 -0.00031511 0.00086803 4.77523e-05 -2.56324e-05 0.0015996)
(0.0494601 -0.000283953 0.000908268 5.02638e-05 -3.6159e-05 0.00168184)
(0.0539598 -0.00032573 0.00107257 5.54449e-05 -3.4046e-05 0.00168009)
(0.0516187 -0.00028199 0.00141033 5.81329e-05 -3.82725e-05 0.00167257)
(0.0561781 -0.000331559 0.00162321 5.80551e-05 -4.43413e-05 0.00162595)
(0.0530896 -0.000287123 0.001201 5.2007e-05 -4.84871e-05 0.00151053)
(0.0568248 -0.000348727 0.00143486 4.73653e-05 -2.99959e-05 0.00134308)
(0.0552173 -0.000304251 0.00157868 4.26922e-05 -2.50307e-05 0.00144719)
(0.0569095 -0.000390815 0.00198222 4.04532e-05 -2.71999e-05 0.00149547)
(0.0569832 -0.000430038 0.00186023 3.93456e-05 -2.53946e-05 0.00146508)
(0.0576551 -0.000376892 0.00170369 3.56691e-05 -2.14666e-05 0.00132077)
(0.0569015 -0.000304923 0.00162405 3.16152e-05 -1.79613e-05 0.00135741)
(0.0543355 -0.000103013 0.00196399 3.0436e-05 5.63696e-06 0.00141896)
(0.0544974 -2.72308e-05 0.00167884 3.43571e-05 3.32147e-05 0.00121678)
(0.0515574 -7.289e-05 0.00160919 3.76829e-05 4.90512e-05 0.0011446)
(0.0521812 -0.000128269 0.00111998 3.86446e-05 5.41218e-05 0.0013021)
(0.0514436 -0.000150711 0.00101138 3.9542e-05 6.8926e-05 0.00124752)
(0.0518144 -0.000161055 0.00150139 4.0994e-05 5.18212e-05 0.00122325)
(0.0537743 -9.97821e-05 0.0018718 4.18815e-05 3.98904e-05 0.00124927)
(0.054845 -0.000221292 0.00161765 4.59842e-05 3.62615e-05 0.00132997)
(0.0567859 -0.000233541 0.00165692 4.97812e-05 5.23422e-05 0.00145595)
(0.0545582 -0.000278169 0.00138703 5.31708e-05 6.16199e-05 0.0015299)
(0.05621 -0.000251125 0.00148195 4.8426e-05 5.76564e-05 0.00156415)
(0.0529206 -0.00024945 0.00104413 4.24866e-05 3.68991e-05 0.00143215)
(0.0546066 -0.000291208 0.000926903 3.76944e-05 1.10189e-05 0.00133387)
(0.0521271 -0.000233136 0.000463803 3.68169e-05 6.53775e-06 0.00141042)
(0.04993 -0.000119951 0.0010511 7.97593e-05 2.8444e-05 0.001664)
(0.0473166 -0.000138027 0.00100118 8.47792e-05 3.53129e-05 0.00169725)
(0.0502458 -0.000105894 0.00157352 8.21303e-05 2.48394e-05 0.00169945)
(0.0464327 -6.85866e-05 0.00107594 7.47299e-05 2.8863e-05 0.00158845)
(0.0491745 -0.00013424 0.000997049 6.22663e-05 1.20083e-05 0.00141932)
(0.0455741 -1.43478e-05 0.000845422 5.20204e-05 6.87345e-06 0.00137812)
(0.0487663 -8.57884e-07 0.00162346 5.86531e-05 1.7214e-05 0.00150886)
(0.0460268 -1.18841e-06 0.00169806 7.48174e-05 3.66244e-05 0.0018244)
(0.048819 -0.000112021 0.00157095 8.79796e-05 3.62731e-05 0.0019346)
(0.0468305 -0.000230701 0.000798613 0.000106827 1.30673e-05 0.00192712)
(0.0493469 -0.000265439 0.000795653 0.000110298 -3.03257e-05 0.00191434)
(0.0466728 -0.000219256 0.000846358 0.000110174 -4.51149e-05 0.00179842)
(0.0501095 -0.000279984 0.00108682 0.000111225 -5.26643e-05 0.00162636)
(0.0488608 -0.000241693 0.00116323 0.000107605 -5.88087e-05 0.00159236)
(0.0507331 -0.000363265 0.00104292 0.000101972 -3.98984e-05 0.00148043)
(0.0494716 -0.00030362 0.000967704 9.57067e-05 -2.65341e-05 0.001484)
(0.0506987 -0.000371641 0.0011572 9.85442e-05 -1.03344e-05 0.0014735)
(0.0506811 -0.000358409 0.00137053 9.60038e-05 -5.83128e-06 0.00149498)
(0.0541086 -0.000359602 0.00133766 9.42291e-05 8.49354e-06 0.00151819)
(0.0513667 -0.000229846 0.000926065 8.68512e-05 1.22844e-05 0.00144585)
(0.0548445 -0.000317142 0.00105489 8.22165e-05 4.53822e-05 0.00139025)
(0.0525167 -0.000234632 0.00133666 7.69166e-05 4.41859e-05 0.00156936)
(0.0555481 -0.00035963 0.00172011 8.04173e-05 4.92942e-05 0.00162886)
(0.0523143 -0.000348312 0.00192003 8.39011e-05 4.43416e-05 0.00153982)
(0.0533753 -0.000309464 0.00177766 8.38726e-05 2.64261e-05 0.00140491)
(0.0503825 -0.00022646 0.00169413 7.6097e-05 4.47489e-06 0.00149918)
(0.0506554 -7.2585e-05 0.00197856 7.02909e-05 1.30794e-05 0.00166272)
(0.0485593 -3.87649e-05 0.0017651 7.70542e-05 3.11488e-05 0.00140497)
(0.048422 -4.46563e-05 0.00171028 8.45592e-05 4.48203e-05 0.00133747)
(0.0469868 -0.000129324 0.00130138 8.71126e-05 6.22622e-05 0.00148784)
(0.0478005 -0.000185634 0.00134311 9.03306e-05 8.13303e-05 0.00130766)
(0.0478868 -0.000240037 0.0018882 9.14012e-05 5.31425e-05 0.00128794)
(0.050829 -0.000129945 0.0023407 9.28497e-05 5.69987e-05 0.00137166)
(0.0517977 -0.000231886 0.00205995 9.91186e-05 6.55835e-05 0.00140997)
(0.0546962 -0.00019815 0.00219066 0.000105036 9.74988e-05 0.00159924)
(0.051683 -0.000233728 0.00190342 0.000112995 0.000118121 0.00173475)
(0.0520676 -0.000193016 0.0022017 0.000106708 0.00011607 0.00180237)
(0.0484178 -0.00018612 0.00175521 9.80851e-05 7.71037e-05 0.00173395)
(0.0510658 -0.000226795 0.00147633 8.51593e-05 2.91423e-05 0.00164789)
(0.0473578 -0.000119333 0.000853606 7.7837e-05 1.21222e-05 0.00163583)
(0.0413343 2.23556e-05 0.00170854 0.000139568 4.13585e-05 0.00165986)
(0.0390675 2.2985e-05 0.00154901 0.000148013 4.57364e-05 0.00167935)
(0.0412369 -2.95296e-05 0.0017557 0.000144245 4.78343e-05 0.00181752)
(0.0401062 2.9871e-05 0.00144021 0.000134132 5.8632e-05 0.00186177)
(0.0394925 -7.12117e-05 0.00129822 0.000120258 4.19525e-05 0.00168748)
(0.039173 5.99904e-07 0.00122193 0.000108701 2.22154e-05 0.00151572)
(0.0413636 5.29272e-06 0.00189342 0.000122211 9.6304e-06 0.0014969)
(0.0409051 6.24093e-05 0.00211715 0.000145384 1.23491e-05 0.00171978)
(0.0419949 -5.00157e-05 0.00206116 0.000166844 2.96841e-06 0.00186383)
(0.0415264 -0.000171637 0.00131153 0.000198442 -1.3725e-06 0.00191409)
(0.0412448 -0.000222498 0.00136576 0.00020285 -4.19405e-05 0.00186157)
(0.0408319 -0.000251871 0.0013241 0.000199477 -4.35829e-05 0.00174865)
(0.042069 -0.000303779 0.00143244 0.000195372 -7.44391e-06 0.00147415)
(0.04396 -0.000162238 0.0013071 0.000182621 7.0071e-06 0.00144674)
(0.0435586 -0.000150297 0.00128732 0.000166339 2.69875e-05 0.00138422)
(0.0428509 -0.000105165 0.00136197 0.000151104 4.43539e-05 0.00140108)
(0.042904 -0.000192403 0.0015557 0.000152382 6.11684e-05 0.00143493)
(0.0426882 -0.000260259 0.00162962 0.000150745 7.47375e-05 0.00146701)
(0.0428383 -0.000238228 0.00133825 0.00015235 0.000102377 0.00150571)
(0.0426534 -8.55498e-05 0.00115387 0.000146212 0.000105757 0.00145447)
(0.0427495 -0.000115244 0.00113589 0.00014812 0.000156225 0.00153299)
(0.041367 -0.000149414 0.0012699 0.000147356 0.000131199 0.00166765)
(0.0441498 -0.000213414 0.00168055 0.000165679 0.000126829 0.00168774)
(0.0414876 -0.000212328 0.00190539 0.000174689 0.000110886 0.00159301)
(0.0431787 -0.000148206 0.00184283 0.000174714 7.13138e-05 0.00154622)
(0.0397831 -0.000151687 0.00177801 0.000163816 3.05624e-05 0.00164279)
(0.0419101 -9.22339e-05 0.00221364 0.000150002 2.78551e-05 0.00183946)
(0.0400579 -9.69282e-05 0.00208859 0.000151827 3.18763e-05 0.00162799)
(0.0413883 -8.78125e-05 0.00211502 0.000163611 3.16929e-05 0.00152246)
(0.0408674 -0.000173295 0.00159241 0.000169501 5.01607e-05 0.00157863)
(0.0408327 -0.000290598 0.00168499 0.000178087 7.71033e-05 0.00135981)
(0.0411997 -0.000346451 0.00194975 0.000180481 5.43459e-05 0.00130176)
(0.042331 -0.000141414 0.00249025 0.000186184 8.27783e-05 0.00142213)
(0.0444655 -0.00018502 0.00219179 0.000201952 0.000119438 0.00145312)
(0.0466778 -0.000107709 0.00258384 0.000209572 0.000158025 0.00169148)
(0.0434839 -0.000123584 0.00234426 0.000219898 0.000176785 0.0018571)
(0.0437426 -8.13737e-05 0.00289277 0.000205156 0.000167421 0.00197249)
(0.0410113 -8.37352e-05 0.00253788 0.000184766 0.0001389 0.00195494)
(0.0418745 -9.47492e-05 0.00231909 0.000162511 8.7864e-05 0.00187972)
(0.0387279 1.80265e-05 0.00170046 0.000143837 4.98426e-05 0.00173245)
(0.0322188 0.000155642 0.00222132 0.000226624 8.35073e-05 0.00170616)
(0.0311674 0.000132923 0.0021019 0.00024254 8.75802e-05 0.00171408)
(0.0326656 2.46044e-05 0.00215885 0.000233123 8.89324e-05 0.00192089)
(0.0310782 7.7827e-05 0.00163975 0.000219405 9.71451e-05 0.00202422)
(0.032935 -2.2679e-05 0.00134311 0.000208596 8.51788e-05 0.00200397)
(0.0313499 -2.30802e-05 0.00130512 0.000200353 5.16191e-05 0.00186706)
(0.0343913 7.77849e-06 0.0019542 0.000220635 1.85378e-05 0.00176373)
(0.0336124 0.000148652 0.00215654 0.000240659 -2.1282e-06 0.00177727)
(0.0349872 7.41239e-05 0.00228243 0.000263152 -3.1115e-05 0.0017623)
(0.0320867 -9.20199e-05 0.00166586 0.000299915 -1.19834e-05 0.00183256)
(0.0328606 -0.000149876 0.00176903 0.000296693 -2.60742e-05 0.00186112)
(0.031075 -0.000179576 0.00183442 0.000283677 -8.32601e-06 0.00185207)
(0.0319262 -0.000176601 0.00176157 0.000272023 6.42804e-05 0.00171463)
(0.0318997 2.2339e-05 0.00187111 0.000253285 7.45321e-05 0.00168929)
(0.0332372 0.000136304 0.00189141 0.000241977 8.07349e-05 0.0016857)
(0.0316071 0.000188466 0.00215252 0.000228668 0.000100676 0.0017214)
(0.0328201 9.32353e-05 0.00237851 0.000229193 0.000120478 0.00173206)
(0.0313988 -3.50989e-05 0.0023517 0.000229387 0.000143481 0.00170991)
(0.0326948 -3.31904e-05 0.00207152 0.000235683 0.000173781 0.00175473)
(0.0305556 9.38687e-05 0.00191242 0.000236268 0.000169714 0.00168486)
(0.0308906 0.000100704 0.00177771 0.000255027 0.000244476 0.00178243)
(0.0290091 -8.71167e-05 0.00169361 0.000261945 0.000188308 0.00184727)
(0.0316143 -0.000173899 0.00215566 0.000294415 0.000143076 0.00184636)
(0.0309604 -0.000172684 0.00227021 0.000301474 0.000126585 0.00181177)
(0.0326026 -6.37832e-05 0.00242822 0.000298751 9.91171e-05 0.0018359)
(0.03109 -0.000102082 0.00240639 0.000289707 6.72544e-05 0.00194778)
(0.0334276 -9.49015e-05 0.00298227 0.000271431 6.3543e-05 0.00211702)
(0.0338907 -0.000123718 0.00302834 0.000264017 6.30417e-05 0.00194594)
(0.0354558 -0.00012347 0.00312745 0.000287761 4.87423e-05 0.00179893)
(0.0355345 -0.000184497 0.0026839 0.000300835 6.42427e-05 0.00171415)
(0.0363951 -0.000289685 0.00258647 0.000314081 9.71158e-05 0.00161803)
(0.0348925 -0.000299391 0.00288103 0.000316359 7.37486e-05 0.00149429)
(0.0358676 -1.46357e-05 0.00296825 0.000323143 0.000112417 0.0014169)
(0.0352417 1.3634e-05 0.00277656 0.000350502 0.000174728 0.00144348)
(0.0369987 5.79093e-05 0.00306896 0.00035939 0.000213515 0.00170971)
(0.033995 2.73103e-05 0.00307751 0.000366071 0.00023337 0.00197055)
(0.0333631 5.07397e-05 0.00336436 0.000338871 0.000236731 0.00215052)
(0.0312337 8.18382e-05 0.00278412 0.000293446 0.000219718 0.00207158)
(0.0316047 0.000113141 0.00238061 0.000259709 0.000172541 0.00199733)
(0.0311069 0.00021877 0.00207993 0.000231262 0.000124831 0.00184759)
(0.0246256 0.000247414 0.00255784 0.000320152 0.000130177 0.00174427)
(0.0243964 0.000195481 0.00253247 0.00034339 0.000135397 0.00177242)
(0.0239107 0.000114458 0.00238492 0.000321281 0.000103106 0.00190439)
(0.0241467 8.75185e-05 0.00207725 0.000305853 8.22548e-05 0.00191282)
(0.023751 -8.46535e-06 0.00157853 0.000307906 8.95371e-05 0.00188925)
(0.0247731 -5.12051e-05 0.0016412 0.000313997 7.99485e-05 0.00181706)
(0.0249948 -2.3614e-06 0.00179129 0.000341331 6.55882e-05 0.00177941)
(0.0262825 0.000186071 0.00206483 0.000344497 3.96345e-05 0.00187543)
(0.0262264 9.04276e-05 0.00216314 0.000355466 -2.22543e-05 0.00189395)
(0.026146 -9.19984e-05 0.00184693 0.000391918 -2.11251e-05 0.00201677)
(0.0242256 -8.60169e-05 0.00194995 0.000383388 -1.95836e-05 0.00211735)
(0.0244181 -6.34713e-05 0.00234422 0.00036787 2.1666e-05 0.00215223)
(0.023487 4.74355e-05 0.00223621 0.000358059 0.000101073 0.00206181)
(0.0248975 0.000205141 0.00259978 0.000341371 0.000102262 0.00196412)
(0.0246364 0.000274381 0.00260273 0.000345348 0.00010356 0.00200204)
(0.0247858 0.000346965 0.00289547 0.000335546 0.00014023 0.00207022)
(0.0253287 0.000222963 0.00311651 0.00033062 0.00014839 0.00203618)
(0.0248908 7.35319e-05 0.00294251 0.000330847 0.000154135 0.00201211)
(0.0240695 3.47974e-05 0.00287415 0.000338332 0.000171325 0.00204854)
(0.0232954 0.000177944 0.00271398 0.000351535 0.000174734 0.00200914)
(0.021816 0.000134624 0.00242583 0.000390041 0.000248135 0.00202788)
(0.0223143 -0.000115209 0.00228098 0.000403921 0.00016261 0.00205847)
(0.0220444 -0.000241035 0.00253661 0.000436327 9.09458e-05 0.00207208)
(0.0218272 -0.000219035 0.00251142 0.000445473 9.54421e-05 0.00205746)
(0.0227813 -0.000102873 0.00272755 0.000445751 9.64452e-05 0.00212528)
(0.0226683 -0.000134013 0.00279244 0.000438907 9.2922e-05 0.00228685)
(0.0237603 -8.91519e-05 0.0030446 0.000424166 0.000104423 0.00236189)
(0.0248013 -0.000117328 0.00324062 0.000409734 0.000115467 0.00216405)
(0.0264828 -0.000133332 0.00350833 0.000439861 0.000112156 0.00197273)
(0.027977 -0.000193186 0.00312554 0.000471076 0.000140948 0.00179974)
(0.0288788 -0.000234396 0.00316957 0.000488512 0.000163928 0.00181021)
(0.0279729 -0.000176322 0.00348931 0.000483679 0.000126695 0.00178391)
(0.0272262 7.76165e-05 0.00343267 0.000482423 0.000135916 0.0016036)
(0.0271194 0.000136642 0.00326493 0.000508827 0.000202583 0.00156313)
(0.0285796 8.888e-05 0.00335715 0.000520825 0.000246187 0.00176211)
(0.0269555 6.91367e-05 0.00354583 0.000525491 0.000282707 0.00200573)
(0.0253449 0.00014623 0.00344275 0.0004828 0.000324434 0.00216123)
(0.02435 0.000166618 0.00281182 0.000402392 0.000290804 0.00201393)
(0.0236906 0.000144835 0.0023116 0.000345039 0.000220718 0.00186141)
(0.0253935 0.000288788 0.00241382 0.000313065 0.000176695 0.00180743)
(0.0195386 0.000167968 0.00270495 0.000401042 0.000146394 0.00173531)
(0.0196508 9.64654e-05 0.00277847 0.000406802 0.000124614 0.0018474)
(0.0192326 4.18503e-05 0.00260301 0.00038125 7.81953e-05 0.0018394)
(0.0197756 2.94e-06 0.00232871 0.000381236 5.67644e-05 0.00172895)
(0.0197585 -5.5746e-05 0.00199979 0.00040472 8.52257e-05 0.00156777)
(0.0198539 -4.04266e-05 0.00200116 0.000429301 0.000100655 0.00151755)
(0.0200911 -1.16451e-05 0.00203805 0.000465338 0.000119425 0.00155342)
(0.0212108 0.000124718 0.00227288 0.000459353 0.000112689 0.00173576)
(0.0221528 -5.32254e-05 0.00243269 0.000463269 3.31812e-05 0.00180703)
(0.0219571 -0.000266135 0.00231311 0.000492021 1.16529e-05 0.00188281)
(0.0201442 -0.00012548 0.00239271 0.000471825 1.5211e-05 0.00195882)
(0.0205911 -6.00972e-05 0.00270514 0.00046026 6.32841e-05 0.00196575)
(0.0200879 0.000127422 0.00264692 0.000459659 0.000133077 0.00190945)
(0.0213252 0.000283881 0.00292147 0.000450037 0.000145483 0.00194581)
(0.020878 0.000334555 0.00310343 0.000470384 0.000146804 0.00205537)
(0.0202281 0.000468999 0.00317113 0.000464918 0.00019597 0.00216977)
(0.0211179 0.000343451 0.00333768 0.00045343 0.000188745 0.00223162)
(0.0208446 0.00016475 0.00324168 0.000446763 0.00013396 0.00237521)
(0.0201436 3.75995e-05 0.00316884 0.000446612 0.000132373 0.00238801)
(0.0186521 6.95553e-05 0.00306289 0.000452464 0.000146909 0.00235313)
(0.0178156 -3.9092e-05 0.00279846 0.000505629 0.000181406 0.00229938)
(0.0188939 -0.000264244 0.00259109 0.000544046 8.6855e-05 0.00222236)
(0.0177949 -0.000368225 0.00268006 0.000587225 1.16276e-05 0.00223429)
(0.0171141 -0.000243459 0.00250348 0.00060586 4.06147e-05 0.00225274)
(0.0175664 -9.12895e-05 0.00264439 0.000597834 8.49301e-05 0.00226846)
(0.0178649 -0.000117752 0.00257672 0.000578899 0.000105861 0.0023575)
(0.017727 -4.11266e-05 0.00248106 0.000564893 0.000129973 0.0023145)
(0.0188749 -4.91681e-05 0.00279899 0.000545365 0.000162465 0.00213563)
(0.0204597 -0.000141946 0.00308872 0.000581267 0.000190958 0.00194306)
(0.0218283 -0.000250189 0.00283417 0.000649119 0.000233288 0.00178289)
(0.0214849 -0.00022391 0.00282884 0.000680794 0.000238779 0.0017769)
(0.0211856 -8.68853e-05 0.00307474 0.000663992 0.000186817 0.0018059)
(0.0197501 8.78656e-05 0.00305431 0.000641032 0.000177157 0.00166785)
(0.0197396 8.59006e-05 0.00301289 0.000646816 0.000231067 0.00165752)
(0.0207253 -5.27982e-05 0.00304788 0.000661495 0.000256881 0.00178366)
(0.0201525 -3.5936e-05 0.00301421 0.000659793 0.000301343 0.00192461)
(0.0193526 0.000157816 0.00279993 0.000596143 0.000362021 0.0019781)
(0.0183183 0.000247156 0.00249892 0.000497022 0.000328367 0.00190095)
(0.0182779 0.000148784 0.00238399 0.000437813 0.000252193 0.00180319)
(0.0192838 0.000216691 0.00263598 0.000405127 0.000204889 0.00176393)
(0.0163367 6.99164e-05 0.00259854 0.000497866 0.00014106 0.00158918)
(0.0173281 -6.42626e-05 0.00274319 0.00047903 8.68582e-05 0.00165006)
(0.0168302 -0.000115962 0.0025738 0.000457774 6.60206e-05 0.00156944)
(0.0173834 -0.000188349 0.00235388 0.000482888 6.45184e-05 0.00142208)
(0.0176018 -0.000255902 0.00222847 0.000529868 9.58169e-05 0.00127736)
(0.0172659 -0.000176968 0.0022123 0.00056046 9.46371e-05 0.0012556)
(0.017598 -0.000149194 0.00211331 0.000600758 0.000124939 0.00135214)
(0.0178363 -7.37582e-05 0.00221113 0.000606766 0.000155533 0.00162877)
(0.0190209 -0.000231042 0.00234251 0.000625224 0.000105374 0.00177069)
(0.0188114 -0.000480375 0.00233393 0.000651331 7.59639e-05 0.00182464)
(0.0176493 -0.000336593 0.00245223 0.000603134 5.3087e-05 0.00173924)
(0.0177364 -0.000231676 0.00262932 0.000577478 6.59158e-05 0.00161858)
(0.017276 -1.56898e-05 0.00251469 0.000574609 0.000126863 0.00157833)
(0.0175045 0.000211616 0.00269198 0.000555409 0.000162353 0.0017112)
(0.0178843 0.000289116 0.00304153 0.000564767 0.000173874 0.00189949)
(0.0167959 0.00046671 0.00312719 0.000569877 0.000232499 0.00206996)
(0.0175066 0.000427549 0.00305047 0.000582603 0.000242569 0.0021344)
(0.0174534 0.000249093 0.0031768 0.000583495 0.000155785 0.0023052)
(0.017519 8.29593e-05 0.00313972 0.000562151 0.000118511 0.00227602)
(0.0158624 -2.27206e-05 0.00304638 0.000538253 0.000102441 0.0022152)
(0.0155033 -0.000245171 0.00288852 0.000601917 7.63328e-05 0.0021993)
(0.0162656 -0.000488687 0.00270893 0.000658192 9.67184e-06 0.00214585)
(0.0156712 -0.000553875 0.00254111 0.000711661 -2.98207e-05 0.00212906)
(0.0145309 -0.000293125 0.0023128 0.000736699 3.46252e-05 0.0021424)
(0.0144311 -5.92279e-05 0.00226177 0.000721936 0.000124975 0.00206065)
(0.0150559 -9.43874e-05 0.00218763 0.000684628 0.00017081 0.00201092)
(0.0156049 -8.93874e-05 0.00194634 0.000674533 0.000193791 0.0019193)
(0.0152526 -0.000110059 0.00212092 0.000672078 0.000217569 0.00178534)
(0.0168101 -0.000255759 0.00240167 0.000711701 0.000219113 0.00161906)
(0.0179728 -0.000391469 0.00235501 0.000793559 0.000209285 0.00149803)
(0.0173757 -0.00026684 0.00235451 0.000825477 0.000200066 0.00151768)
(0.0166 -5.22731e-05 0.00259884 0.000810843 0.000190876 0.00158672)
(0.0147959 3.84737e-05 0.00236601 0.00078657 0.000204093 0.00150015)
(0.014164 -2.78262e-05 0.00224394 0.000780025 0.000254511 0.00151655)
(0.0142113 -0.000184643 0.00223942 0.000780649 0.000248015 0.00152013)
(0.0139176 -0.000183353 0.00211394 0.000760706 0.000254406 0.00153784)
(0.0139407 6.10862e-05 0.00191586 0.000675601 0.000311089 0.00154111)
(0.0134024 0.00026194 0.00192972 0.000576828 0.000310631 0.00156882)
(0.0138571 0.000190487 0.00200799 0.000538404 0.0002603 0.0016168)
(0.0151378 0.000166656 0.00242279 0.000520524 0.000216841 0.00164507)
(0.0127023 1.33576e-05 0.00217479 0.000626632 0.000165245 0.00146585)
(0.0135632 -3.42723e-05 0.0023479 0.000599963 0.000127622 0.00146115)
(0.0132412 -2.2083e-05 0.00220234 0.000572579 0.000131661 0.00135769)
(0.0136819 -0.000157676 0.00196553 0.000602283 0.000117701 0.00118827)
(0.014474 -0.000315218 0.00201647 0.000651908 0.000106288 0.00109134)
(0.0142015 -0.000297118 0.00214517 0.000671294 5.17505e-05 0.00111985)
(0.0145423 -0.000274791 0.00206386 0.000698081 6.59404e-05 0.00124431)
(0.0146002 -0.000206891 0.00206814 0.000713188 0.000134868 0.00153143)
(0.0153292 -0.000267332 0.00206386 0.000744268 0.000172163 0.00174439)
(0.0153297 -0.000474715 0.00196477 0.000777044 0.000191804 0.00180005)
(0.0145716 -0.00043732 0.00196726 0.000724396 0.000160107 0.00170654)
(0.0139423 -0.000314404 0.0021328 0.000688578 0.000110169 0.00144989)
(0.0133272 -0.000168585 0.00210431 0.000691573 0.000147621 0.00132284)