# y+ ()       
# Time        	patch         	min           	max           	average       
81            	bottomWall	1.268029e+00	3.507136e+00	2.092199e+00
81            	topWall	1.166338e+00	3.706974e+00	2.063881e+00
