/*--------------------------------*- C++ -*----------------------------------*\
  =========                 |
  \\      /  F ield         | OpenFOAM: The Open Source CFD Toolbox
   \\    /   O peration     | Website:  https://openfoam.org
    \\  /    A nd           | Version:  10
     \\/     M anipulation  |
\*---------------------------------------------------------------------------*/
FoamFile
{
    format      ascii;
    class       volSymmTensorField;
    location    "30";
    object      UPrime2Mean;
}
// * * * * * * * * * * * * * * * * * * * * * * * * * * * * * * * * * * * * * //

dimensions      [0 2 -2 0 0 0 0];

internalField   nonuniform List<symmTensor> 
25600
(
(0.0061826 -5.96834e-05 -0.00113181 2.35487e-06 -1.81827e-06 0.00153213)
(0.00573753 -5.52189e-05 -0.00111659 2.53694e-06 -1.29889e-08 0.00158766)
(0.00565877 -5.19781e-05 -0.00097905 2.30327e-06 1.71958e-06 0.00149255)
(0.00586839 -5.60746e-05 -0.00102385 2.07841e-06 9.14493e-06 0.00132589)
(0.00609235 -5.75279e-05 -0.000999573 2.20378e-06 1.84663e-06 0.00120034)
(0.00618872 -5.70746e-05 -0.000971227 2.12652e-06 4.44312e-07 0.00110379)
(0.00631961 -5.40396e-05 -0.00111299 2.18014e-06 3.99091e-06 0.0012155)
(0.00598361 -5.07632e-05 -0.00110961 1.89732e-06 2.31826e-06 0.00119239)
(0.0054228 -5.082e-05 -0.00104841 2.13214e-06 3.00989e-06 0.00124436)
(0.00586462 -5.04507e-05 -0.00110547 2.68892e-06 7.13784e-06 0.00116478)
(0.00629449 -6.10446e-05 -0.00111025 2.82843e-06 7.7483e-06 0.00118406)
(0.00691553 -7.97322e-05 -0.000987192 3.70521e-06 6.28078e-06 0.00123391)
(0.00588982 -6.30297e-05 -0.00101504 3.28749e-06 7.95445e-06 0.00153059)
(0.00562077 -5.96289e-05 -0.00115412 2.91791e-06 1.21418e-05 0.00149339)
(0.00576935 -5.41478e-05 -0.00124043 2.74027e-06 6.83578e-06 0.00139604)
(0.00565032 -5.24597e-05 -0.00124106 2.4384e-06 8.83817e-06 0.00143007)
(0.00545948 -4.96464e-05 -0.00122615 2.12289e-06 5.52038e-06 0.00131347)
(0.00547548 -5.32822e-05 -0.00104544 2.56234e-06 9.86254e-06 0.00127642)
(0.00510143 -6.01887e-05 -0.00115111 2.86484e-06 1.18557e-05 0.00124482)
(0.00546931 -6.71601e-05 -0.00126796 3.0281e-06 1.57785e-05 0.00142368)
(0.00569517 -5.90888e-05 -0.00121733 2.87547e-06 1.01825e-05 0.00136609)
(0.00618196 -6.73804e-05 -0.000945985 2.59301e-06 8.03208e-06 0.00129559)
(0.00645907 -6.76071e-05 -0.000843168 2.96453e-06 5.89152e-06 0.0011434)
(0.00605154 -5.59482e-05 -0.000926421 2.37114e-06 3.65087e-06 0.00126091)
(0.00594705 -5.11921e-05 -0.000890953 2.25174e-06 1.62131e-06 0.00133476)
(0.00588508 -5.51268e-05 -0.000954182 2.12321e-06 6.72547e-07 0.00126138)
(0.00551785 -5.48567e-05 -0.000872579 2.16966e-06 3.06658e-06 0.00114489)
(0.00544154 -5.27335e-05 -0.000911107 2.03271e-06 3.2586e-06 0.00115196)
(0.00542806 -5.23642e-05 -0.000962569 1.87845e-06 2.21007e-06 0.00113692)
(0.00548823 -5.97815e-05 -0.000851865 2.3399e-06 -4.36974e-07 0.00112534)
(0.00566168 -5.63181e-05 -0.000667984 2.98834e-06 1.50911e-06 0.00120204)
(0.00593427 -5.42442e-05 -0.000686487 2.44935e-06 5.84989e-06 0.0012002)
(0.00593811 -5.52862e-05 -0.000788651 2.16201e-06 5.01831e-06 0.00131195)
(0.00582717 -5.87138e-05 -0.000946782 2.07015e-06 4.14305e-06 0.00128506)
(0.00556041 -5.96634e-05 -0.000783651 1.98043e-06 -3.08383e-06 0.00125006)
(0.00578719 -5.85725e-05 -0.00088376 2.22013e-06 3.80619e-06 0.00129247)
(0.00617876 -6.08335e-05 -0.000981043 2.14127e-06 5.86243e-06 0.00118197)
(0.00593595 -5.37352e-05 -0.000885062 2.01587e-06 3.89642e-06 0.00112377)
(0.00584774 -5.13294e-05 -0.00104027 2.02352e-06 2.74394e-07 0.00136645)
(0.00623304 -5.46453e-05 -0.00100878 2.15473e-06 1.75541e-07 0.00129128)
(0.0321913 0.000449572 -0.00692897 0.000120797 -7.74055e-05 0.00547098)
(0.0294397 0.000497434 -0.00715386 0.000114058 -0.000172243 0.00544498)
(0.0294821 0.000467424 -0.00670232 0.000113633 -0.000158528 0.00525871)
(0.0305641 0.000327289 -0.00649698 0.000104468 -0.000176105 0.00465866)
(0.0306333 0.000593719 -0.00630237 0.000128698 -0.000306512 0.00450527)
(0.031353 0.000472201 -0.00601502 0.000146669 -0.000263353 0.00413846)
(0.0325968 0.000427874 -0.00709188 0.000128447 -0.000133726 0.00440318)
(0.0316587 0.000483208 -0.00704915 0.000103054 -0.000166708 0.00432602)
(0.029125 0.000424389 -0.00667288 8.39849e-05 -0.00017888 0.00465575)
(0.0319009 0.000490641 -0.00717532 9.92135e-05 -0.000197398 0.00431331)
(0.0336215 0.000683792 -0.00776815 0.000116106 -0.000279911 0.00512932)
(0.0337004 0.000665879 -0.00680484 0.0001462 -0.000293005 0.00531867)
(0.0291253 0.000667126 -0.00728454 0.000155623 -0.000319657 0.00627338)
(0.0315348 0.000374254 -0.00752285 0.000159627 -0.000300609 0.00608121)
(0.0336281 0.000243395 -0.00775884 0.00012817 -0.000136558 0.00543407)
(0.0314639 0.000329954 -0.00791271 0.000107912 -6.57244e-05 0.00546304)
(0.0289573 0.000556737 -0.00798442 7.92534e-05 -0.000143578 0.00476182)
(0.0273076 0.000689648 -0.00673909 8.30813e-05 -0.000176247 0.00484392)
(0.026343 0.000500599 -0.00738338 0.000102004 -0.000163214 0.00486815)
(0.0280337 0.000435338 -0.0072666 0.000101827 -0.000225536 0.00595798)
(0.0299499 0.000403227 -0.00724601 0.000115022 -0.000268 0.00564152)
(0.0299133 0.000638473 -0.00679808 0.000131272 -0.000265164 0.00482387)
(0.0317429 0.000671924 -0.00630619 0.000174484 -0.000312554 0.00431558)
(0.0316804 0.000450159 -0.00620293 0.000126543 -0.000156565 0.00438612)
(0.0320551 0.000357202 -0.0060631 9.93029e-05 -0.00012669 0.0048215)
(0.0321837 0.000552492 -0.0070879 9.38089e-05 -0.000153109 0.00464195)
(0.0278671 0.000545316 -0.00656289 8.25441e-05 -0.000187349 0.00431332)
(0.0287274 0.000503229 -0.00614843 7.86815e-05 -0.000227745 0.00427079)
(0.0280474 0.000653762 -0.00651902 7.08851e-05 -0.000245334 0.00411656)
(0.0288876 0.000584343 -0.00601431 7.96827e-05 -0.000231544 0.00401601)
(0.029366 0.00063492 -0.00490385 0.00010959 -0.000206306 0.00436691)
(0.0304541 0.000532028 -0.00503634 0.000106215 -0.000152283 0.00406619)
(0.0308903 0.000685758 -0.00584871 0.00010846 -0.000165144 0.00424783)
(0.0300863 0.000765892 -0.00680563 0.000119731 -0.000216373 0.00451579)
(0.0283619 0.000646116 -0.00591816 0.000117855 -0.000178479 0.00454726)
(0.0309175 0.000422654 -0.00557406 0.000109918 -0.000188913 0.00487749)
(0.0334261 0.000513063 -0.0061778 9.78694e-05 -0.000216694 0.00439192)
(0.0314239 0.000513573 -0.00555331 0.000103114 -0.000143167 0.00378226)
(0.030054 0.000499646 -0.00610503 9.30276e-05 -0.000129922 0.0045884)
(0.0340113 0.000499603 -0.00602405 0.000118448 -7.5825e-05 0.00503743)
(0.0413759 0.00118972 -0.00838215 0.000697202 -0.000522724 0.0072777)
(0.0407952 0.00108935 -0.00989351 0.000692005 -0.000669781 0.00732253)
(0.0418979 0.00123454 -0.00947194 0.00066673 -0.00077045 0.00774753)
(0.0420275 0.000855764 -0.00860043 0.000631388 -0.000917442 0.00694968)
(0.0388396 0.0016003 -0.00810912 0.000692677 -0.00106555 0.00679123)
(0.041842 0.0012238 -0.00786653 0.000723191 -0.000827019 0.00613656)
(0.0441381 0.000873159 -0.00989771 0.000710795 -0.000575573 0.00616504)
(0.0425973 0.000836597 -0.008826 0.000600771 -0.000677795 0.00630611)
(0.0419145 0.00095267 -0.00876894 0.000513488 -0.000683511 0.00698793)
(0.0442491 0.00124685 -0.0103944 0.000592914 -0.000846046 0.00696787)
(0.0447761 0.00196933 -0.0119429 0.000692499 -0.000981744 0.0079858)
(0.0471361 0.00172473 -0.0104935 0.000780591 -0.000836464 0.00751394)
(0.0413455 0.00159084 -0.0111933 0.000759537 -0.000870263 0.00849944)
(0.045178 0.00106764 -0.0116072 0.000760832 -0.000860649 0.00856578)
(0.0460451 0.000846812 -0.0118598 0.00071484 -0.000561071 0.00793117)
(0.0440323 0.00089337 -0.0118595 0.000612491 -0.000467351 0.00771116)
(0.0432301 0.00135944 -0.0118227 0.000480171 -0.000700418 0.00674859)
(0.0398982 0.00176913 -0.00997888 0.00051276 -0.000775902 0.00731346)
(0.0379863 0.00142561 -0.0106331 0.00058662 -0.000834971 0.00779765)
(0.0388348 0.00108359 -0.0103507 0.000630802 -0.000987578 0.00927984)
(0.0439937 0.000841173 -0.0105526 0.000639883 -0.000958625 0.00841912)
(0.0391903 0.00152143 -0.0101434 0.00066421 -0.00092984 0.0070628)
(0.0418056 0.00162043 -0.00952016 0.00079996 -0.000973729 0.0064734)
(0.0425662 0.00111135 -0.00941975 0.000642637 -0.000677027 0.00661688)
(0.0449824 0.000907891 -0.00998298 0.000577589 -0.00056277 0.00765199)
(0.0471492 0.00139197 -0.0111887 0.000608034 -0.00071092 0.00759981)
(0.0388566 0.00118103 -0.0100602 0.000551453 -0.000735571 0.00723873)
(0.0390461 0.00133208 -0.00894834 0.000499641 -0.000845641 0.00669806)
(0.0399946 0.00163242 -0.00934754 0.000461607 -0.000897158 0.00652518)
(0.0426364 0.00163533 -0.00974448 0.000544273 -0.00100934 0.00712978)
(0.0434603 0.00159801 -0.0071556 0.000652321 -0.000870643 0.00662563)
(0.042102 0.00122652 -0.00763192 0.000593536 -0.000743288 0.00596696)
(0.0437841 0.00167212 -0.0091284 0.000644844 -0.000727874 0.00592733)
(0.045082 0.00178365 -0.0105129 0.000647542 -0.000670296 0.00640791)
(0.0372526 0.00178863 -0.00947072 0.000668157 -0.000604565 0.00675855)
(0.0437251 0.00106464 -0.00810651 0.000627873 -0.00072719 0.00696123)
(0.0466618 0.00129228 -0.00811231 0.000597946 -0.000907932 0.00654862)
(0.042238 0.00112754 -0.00812284 0.000636437 -0.000696201 0.00606216)
(0.0389787 0.00119171 -0.00789439 0.000586918 -0.000456231 0.00666065)
(0.0439858 0.000930061 -0.00820335 0.000661644 -0.0004271 0.00750478)
(0.0404989 0.000730821 -0.00753697 0.00133914 -0.000686751 0.00745927)
(0.0443151 0.000623776 -0.00960439 0.00123049 -0.000856372 0.00792816)
(0.0473378 0.000939446 -0.00925454 0.00125646 -0.00110507 0.00786611)
(0.042888 0.000629124 -0.00770474 0.00125791 -0.001251 0.00742541)
(0.0355264 0.00150122 -0.00688808 0.00129776 -0.00141905 0.00746541)
(0.0395003 0.00108485 -0.0074069 0.0013011 -0.00109066 0.00666582)
(0.0443288 0.000173524 -0.00876981 0.00129551 -0.000621882 0.00627329)
(0.0434906 -0.000187966 -0.00730053 0.00116175 -0.000750633 0.00636348)
(0.0433493 0.000605545 -0.00788705 0.0010432 -0.0007786 0.00747499)
(0.0432345 0.00115028 -0.0106649 0.00114152 -0.00099824 0.00812704)
(0.0435305 0.00189427 -0.0112309 0.00130588 -0.00108942 0.00819536)
(0.0504225 0.00140059 -0.0115785 0.00136605 -0.000873674 0.00829337)
(0.044848 0.00148087 -0.0116662 0.00137127 -0.00109115 0.00855295)
(0.0444564 0.00102854 -0.010676 0.00138556 -0.00123905 0.00887579)
(0.0434128 0.000960433 -0.0104282 0.00137675 -0.000803863 0.0082011)
(0.0476038 0.000820781 -0.0113165 0.0010837 -0.000513969 0.00774079)
(0.0462966 0.00127669 -0.0113195 0.000883794 -0.00087046 0.00720731)
(0.0427532 0.00167244 -0.00952778 0.00102496 -0.000986053 0.00817571)
(0.0394031 0.00113147 -0.00839493 0.00118196 -0.00103388 0.00813713)
(0.0417876 0.00078375 -0.0104763 0.00120003 -0.00122958 0.0100172)
(0.0485615 0.000814928 -0.0119891 0.00114632 -0.00137235 0.00882616)
(0.0383444 0.00157499 -0.0102211 0.00125471 -0.00142312 0.0078693)
(0.0388677 0.00125485 -0.00961147 0.00148811 -0.0014071 0.00727086)
(0.0382373 0.00114243 -0.00929511 0.00118984 -0.000937484 0.0072631)
(0.0417945 0.000874943 -0.0101132 0.00103346 -0.000622735 0.00861903)
(0.0460479 0.00108014 -0.0118802 0.00113068 -0.000783754 0.00880628)
(0.0398744 0.000662428 -0.010133 0.00100462 -0.00095761 0.00852505)
(0.0397756 0.00128669 -0.00916722 0.000876107 -0.00121273 0.00773551)
(0.0437275 0.00150713 -0.00984673 0.0008639 -0.00111478 0.00789214)
(0.0472188 0.00157843 -0.0106806 0.00110378 -0.00153668 0.00886221)
(0.0474909 0.00153212 -0.00683683 0.00116877 -0.0012592 0.00765585)
(0.0441501 0.00115609 -0.00832389 0.00105051 -0.00103581 0.00676794)
(0.0484384 0.00138102 -0.0107859 0.00122884 -0.00115028 0.00741977)
(0.046376 0.00200501 -0.0109521 0.00126342 -0.0010328 0.00708426)
(0.03546 0.0018336 -0.00970333 0.00128478 -0.000925884 0.00731377)
(0.042577 0.00105999 -0.00828644 0.00120158 -0.000982046 0.00717665)
(0.0437754 0.00114254 -0.00747043 0.00114244 -0.00124882 0.00729427)
(0.0418132 0.000675801 -0.00814165 0.00122571 -0.00110022 0.00730655)
(0.0362833 0.00111144 -0.00743126 0.00115668 -0.000562186 0.0073964)
(0.0377265 0.000610607 -0.00803413 0.00131955 -0.000553651 0.00790421)
(0.0373125 0.000281742 -0.0075603 0.00210432 -0.00104753 0.00812287)
(0.0386504 0.00041466 -0.00877492 0.00183709 -0.00118256 0.00901024)
(0.0432995 0.000570437 -0.00900772 0.00193043 -0.00147753 0.00823236)
(0.0392949 0.000169094 -0.00761803 0.00196472 -0.00149627 0.0081909)
(0.0332278 0.00101792 -0.00633758 0.00193063 -0.00184485 0.00816272)
(0.0360923 0.000552419 -0.00714609 0.00203155 -0.00150659 0.00761736)
(0.0399633 -0.000735732 -0.00741094 0.00194577 -0.000775257 0.00687353)
(0.0406483 -0.00121437 -0.00679334 0.00177386 -0.000899316 0.00734583)
(0.0417799 0.000230334 -0.00727023 0.00167011 -0.00105924 0.0083992)
(0.0370386 0.00108686 -0.00939054 0.00176554 -0.00128444 0.0090846)
(0.0420763 0.00166649 -0.00934277 0.00193056 -0.00134953 0.00821699)
(0.0455871 0.00104764 -0.0112415 0.00194367 -0.00115485 0.0090986)
(0.0431803 0.00125978 -0.011643 0.00214758 -0.00138988 0.00896136)
(0.0407406 0.000753367 -0.0101289 0.00219839 -0.00161107 0.00915605)
(0.0416321 0.000427711 -0.00987599 0.00216994 -0.00113752 0.00887106)
(0.0464393 0.00070211 -0.0102774 0.00162514 -0.000708816 0.00790824)
(0.0456472 0.000882838 -0.00998811 0.00144349 -0.00103877 0.00724344)
(0.0385768 0.00118101 -0.00856218 0.0016274 -0.00114349 0.00840084)
(0.0382479 0.000172639 -0.00710295 0.00183805 -0.00127781 0.00841473)
(0.0420505 0.000704491 -0.010408 0.00178322 -0.00161504 0.0103802)
(0.0439362 0.000891881 -0.0117695 0.00173586 -0.00194405 0.0095249)
(0.0351425 0.00138812 -0.0100608 0.00202613 -0.00199083 0.00942528)
(0.0335917 0.000723558 -0.00894554 0.00220513 -0.00185295 0.00852334)
(0.0296576 0.00128948 -0.00849964 0.00182167 -0.0014091 0.00793388)
(0.0367731 0.00050971 -0.00989273 0.00158034 -0.000887751 0.00886246)
(0.0408633 0.000435015 -0.0110971 0.00158787 -0.00106603 0.00908957)
(0.04001 -0.000214624 -0.00956973 0.00144542 -0.00130722 0.00843639)
(0.0390118 0.00106489 -0.00962012 0.00125146 -0.00158324 0.00786957)
(0.0407375 0.00117529 -0.00988775 0.00135282 -0.00145833 0.00832751)
(0.0497304 0.000896745 -0.00907939 0.00165858 -0.00207663 0.00906618)
(0.0481332 0.00124676 -0.00798756 0.00165571 -0.00176581 0.00791233)
(0.0415388 0.000884639 -0.00886263 0.00154777 -0.00150107 0.0072733)
(0.050447 0.000886582 -0.0119836 0.00186129 -0.00170874 0.00853565)
(0.042362 0.00187563 -0.0107955 0.00197821 -0.00158462 0.0081706)
(0.0347614 0.00159572 -0.00950005 0.00199953 -0.00136419 0.00800652)
(0.0389031 0.00127029 -0.00845759 0.0018091 -0.00119801 0.00811345)
(0.0381509 0.00124065 -0.00770127 0.00165813 -0.00158208 0.00868451)
(0.038304 0.000587695 -0.0081172 0.00176214 -0.00164492 0.00815786)
(0.0334909 0.0012618 -0.0075658 0.0017144 -0.000808751 0.00781878)
(0.0328547 0.000468745 -0.00757551 0.00200667 -0.000856566 0.00825012)
(0.0325559 7.05952e-05 -0.00697185 0.00264435 -0.00115369 0.00823359)
(0.0336955 0.000181213 -0.00788961 0.00234603 -0.00115884 0.00840926)
(0.0373804 -0.000187767 -0.00891369 0.00249829 -0.00151316 0.00792263)
(0.0356577 -0.000392431 -0.00777919 0.00255342 -0.00141216 0.0077885)
(0.0334337 0.000195149 -0.00547167 0.00241629 -0.00193114 0.00792901)
(0.0377917 -0.000424521 -0.00689411 0.0026665 -0.00164171 0.00770527)
(0.0366655 -0.00183257 -0.00761656 0.00248158 -0.000662301 0.00684674)
(0.0383104 -0.00179247 -0.00713446 0.00232342 -0.000910078 0.00797242)
(0.0401088 -0.000459843 -0.0063721 0.00230254 -0.00116535 0.00844565)
(0.0345401 0.000173041 -0.00835183 0.00242264 -0.00114259 0.00925929)
(0.0387721 0.00100902 -0.00806885 0.00242266 -0.00120987 0.00837526)
(0.0424713 0.000712865 -0.00985215 0.00244233 -0.00122319 0.00921591)
(0.0376024 0.00141966 -0.0108417 0.00284552 -0.00144403 0.00912415)
(0.036795 0.00060695 -0.00991105 0.00289949 -0.00162979 0.00930853)
(0.0394971 -0.000207787 -0.00949981 0.00289215 -0.00130364 0.00915605)
(0.0367636 0.000575425 -0.00841912 0.00222723 -0.000755359 0.0079296)
(0.0390346 0.000435398 -0.00846051 0.00207763 -0.00092227 0.00736603)
(0.0337274 0.000587256 -0.00746143 0.00219148 -0.00111126 0.00773777)
(0.0336516 -0.000475227 -0.00671435 0.00246283 -0.00141662 0.00806585)
(0.038899 0.00020298 -0.00972836 0.0023709 -0.0017528 0.00935556)
(0.0389111 0.000344497 -0.00910281 0.0023626 -0.00204593 0.00934784)
(0.0332722 0.000682327 -0.00855674 0.00264094 -0.00214837 0.00988155)
(0.0308639 0.000274614 -0.00768392 0.00264415 -0.00213397 0.00904114)
(0.0275386 0.000938998 -0.00835103 0.00233493 -0.00166159 0.00841911)
(0.034398 0.000162732 -0.00973614 0.00207176 -0.000991199 0.00858994)
(0.0376408 -0.00016874 -0.00959504 0.00193457 -0.00121756 0.00872017)
(0.0371736 -0.000657389 -0.00866036 0.00177446 -0.00141033 0.00799553)
(0.0353688 0.000352034 -0.00881343 0.00156893 -0.00160257 0.0073743)
(0.0370173 0.000274341 -0.00918318 0.00187871 -0.00147904 0.00746817)
(0.0496299 -0.000198594 -0.00730757 0.00209921 -0.00218363 0.00819177)
(0.0484145 0.000280691 -0.00862798 0.00201204 -0.00168665 0.00720591)
(0.0428124 8.32947e-05 -0.00904692 0.00199999 -0.00161257 0.0071485)
(0.0475091 4.23808e-05 -0.0103582 0.00222949 -0.00189468 0.00839336)
(0.043826 0.00128549 -0.00983224 0.00243558 -0.0018827 0.00818151)
(0.0389386 0.00123558 -0.00930344 0.00242183 -0.00153149 0.00767299)
(0.0402934 0.00115771 -0.0088173 0.00220188 -0.00124087 0.00818786)
(0.0354324 0.00150634 -0.00815419 0.00201909 -0.0016946 0.00894813)
(0.0342221 0.000672667 -0.00775516 0.00215365 -0.00184911 0.00823784)
(0.0308333 0.00142888 -0.00760458 0.0021817 -0.000992776 0.00800195)
(0.0317657 0.000210807 -0.00714133 0.00253567 -0.00105461 0.00784198)
(0.0317145 0.000123855 -0.00644636 0.00305867 -0.0010799 0.00741819)
(0.0316424 -9.02536e-05 -0.00767199 0.00285206 -0.000973929 0.00772189)
(0.0352953 -0.00105028 -0.00810665 0.00301691 -0.00135695 0.00775457)
(0.031618 -0.000512656 -0.00740988 0.00305042 -0.00124637 0.00777382)
(0.0319762 -0.000219112 -0.00582249 0.00283525 -0.00170944 0.00799841)
(0.0382415 -0.000934276 -0.00670483 0.00325202 -0.00153419 0.00772833)
(0.0367208 -0.00199895 -0.00813265 0.00293453 -0.000485979 0.00686299)
(0.0390919 -0.00198533 -0.00764089 0.00287371 -0.000936077 0.00771058)
(0.0397149 -0.00116075 -0.00640049 0.00294205 -0.0011674 0.00765257)
(0.0374984 -0.000655471 -0.00752873 0.00305704 -0.00105838 0.00880923)
(0.0388552 -0.000207375 -0.00729884 0.00286358 -0.000924306 0.00796063)
(0.0402472 5.99747e-05 -0.00976107 0.00306614 -0.00108116 0.00846483)
(0.0341285 0.00136364 -0.0100442 0.00345911 -0.00148319 0.00816393)
(0.0343153 0.000354552 -0.0101521 0.00359676 -0.00142337 0.0092858)
(0.0380602 -0.000648152 -0.00914898 0.00351135 -0.00134286 0.0095166)
(0.0322346 0.000202795 -0.00748619 0.00280039 -0.00082718 0.00808368)
(0.0356056 -0.000118326 -0.00791796 0.00267776 -0.000735564 0.00710883)
(0.0322605 0.000249376 -0.00718113 0.00280797 -0.00100011 0.00684948)
(0.0299737 -0.000583667 -0.00620441 0.00316151 -0.0014623 0.00702742)
(0.0369021 -0.000182228 -0.00829004 0.00303897 -0.00178095 0.00794208)
(0.0332829 -0.000431848 -0.0066859 0.00301757 -0.00182814 0.00850589)
(0.0292021 0.000222575 -0.00702756 0.00325634 -0.00208541 0.00854867)
(0.0282843 0.000138673 -0.00711361 0.00314756 -0.00216833 0.00814687)
(0.0316522 0.000340246 -0.00897397 0.00270322 -0.00169844 0.00847899)
(0.034136 -0.000320994 -0.00948977 0.00243813 -0.00108257 0.00849713)
(0.0349746 -0.000657496 -0.0085283 0.00234819 -0.0013498 0.00824331)
(0.0333515 -0.00093069 -0.00834734 0.00220043 -0.00149968 0.00772915)
(0.0332953 -0.000307699 -0.00827572 0.00195974 -0.00149158 0.00726967)
(0.0382761 -0.000976015 -0.00860277 0.00235603 -0.0013766 0.00721213)
(0.048594 -0.00099574 -0.00755084 0.00249273 -0.00178533 0.00777348)
(0.0509956 -0.000654941 -0.00865665 0.00237491 -0.00145572 0.00690318)
(0.0440085 -0.000781486 -0.00855969 0.00244578 -0.00148558 0.00714274)
(0.0442755 -0.00049863 -0.00814017 0.00259744 -0.00179203 0.00782375)
(0.0427446 0.00061147 -0.00794106 0.00277845 -0.00173309 0.0072236)
(0.0434929 0.000451592 -0.00802935 0.00271601 -0.00149059 0.00674904)
(0.0447603 0.000534462 -0.00897378 0.00253054 -0.001042 0.00725778)
(0.0366009 0.00154265 -0.0082572 0.00228282 -0.0016041 0.00788794)
(0.0320217 0.0011995 -0.00784921 0.00250679 -0.00186563 0.00799626)
(0.0295511 0.00109742 -0.00727084 0.00269393 -0.00114737 0.00745234)
(0.0291855 0.00040791 -0.00715287 0.00291681 -0.00111517 0.00702844)
(0.0352086 0.000419796 -0.00641717 0.00324856 -0.000823252 0.00674467)
(0.0281327 -0.000570848 -0.00627347 0.00317222 -0.000687651 0.00739626)
(0.035065 -0.00210413 -0.00734192 0.00328706 -0.000839874 0.00762023)
(0.0300673 -0.000598397 -0.00670698 0.0033868 -0.000978678 0.0074031)
(0.030355 -0.000284216 -0.00667009 0.0031228 -0.00137311 0.00821837)
(0.0359229 -0.00147326 -0.00670043 0.0036004 -0.00117724 0.00741016)
(0.0378524 -0.00199926 -0.00753184 0.00328764 -0.000309404 0.00681287)
(0.0378642 -0.00220439 -0.00728328 0.00327269 -0.000795217 0.00686838)
(0.0372329 -0.0013847 -0.00666243 0.00355767 -0.00118625 0.00688312)
(0.0375133 -0.00167617 -0.00681835 0.0037518 -0.00092518 0.00745741)
(0.040199 -0.00129834 -0.0072202 0.00330251 -0.000517145 0.00752233)
(0.0403155 -0.000958153 -0.00975904 0.00356462 -0.000864601 0.00743383)
(0.0352811 0.000695087 -0.00952528 0.00391364 -0.00107869 0.00705571)
(0.0321139 -0.000385246 -0.00983438 0.00406445 -0.00077403 0.00823574)
(0.0354963 -0.000848318 -0.00881621 0.00383869 -0.00115086 0.00898208)
(0.0335354 0.00011017 -0.0070254 0.00327973 -0.000821826 0.0080691)
(0.0330349 -0.000215771 -0.0070014 0.00317707 -0.00058232 0.0065254)
(0.0318278 -0.000326302 -0.00717389 0.00346071 -0.000623011 0.00642026)
(0.0290391 -0.00117897 -0.00628846 0.003743 -0.00120537 0.00645447)
(0.0379818 -0.000968732 -0.00783312 0.00354865 -0.00158013 0.00695506)
(0.0313625 -0.00109146 -0.00560116 0.00341699 -0.00139624 0.00680901)
(0.0272667 -5.67586e-05 -0.00585044 0.00366822 -0.00184274 0.00678814)
(0.0270595 -0.000502806 -0.00614904 0.00345676 -0.00180233 0.00711071)
(0.0317275 -0.000800844 -0.00867135 0.00288708 -0.00142432 0.00806691)
(0.0328927 -0.000816412 -0.00886633 0.00266553 -0.000964145 0.00851734)
(0.0327107 -0.00101994 -0.00812714 0.00275781 -0.00125336 0.00778809)
(0.0314966 -0.00141161 -0.00889227 0.00265071 -0.00132768 0.00763832)
(0.0336311 -0.000875168 -0.00822732 0.002385 -0.00138979 0.0075778)
(0.0399419 -0.00193381 -0.00864601 0.00275351 -0.00120632 0.00753543)
(0.0453314 -0.00137706 -0.00827568 0.00283548 -0.00124789 0.00754134)
(0.0414934 -0.00109909 -0.0085973 0.00284184 -0.00110617 0.00720615)
(0.0395375 -0.00121148 -0.00752146 0.0028132 -0.00123451 0.00707062)
(0.0403219 -0.000261539 -0.00706928 0.00275237 -0.00119871 0.00734214)
(0.0393771 -0.000100267 -0.00624853 0.00287999 -0.00113584 0.00640273)
(0.0387043 -0.000424407 -0.00636818 0.00290088 -0.00100325 0.00642346)
(0.0418517 -0.000187418 -0.00757823 0.00280542 -0.000889463 0.0066591)
(0.0364008 0.000928672 -0.00788873 0.00247283 -0.00130476 0.0070495)
(0.0317669 0.00117587 -0.00759395 0.00273347 -0.00158612 0.00755519)
(0.0296771 0.000404362 -0.00696142 0.00305037 -0.00108179 0.00634411)
(0.0319039 0.000585437 -0.00792475 0.00311399 -0.000989135 0.00629106)
(0.037248 0.000440847 -0.00733384 0.00344502 -0.000660028 0.00690826)
(0.0273702 -0.000993044 -0.00595304 0.00349742 -0.000594241 0.00737044)
(0.0337494 -0.00265893 -0.00760578 0.00351944 -0.000348338 0.00738119)
(0.0334934 -0.000803671 -0.00694639 0.00344565 -0.000668067 0.00719645)
(0.0326594 -0.000428816 -0.00734455 0.00321546 -0.000868771 0.00822042)
(0.0369438 -0.00174752 -0.00753151 0.00367779 -0.000587643 0.00779924)
(0.0407241 -0.00182658 -0.00781833 0.00352652 -0.000156848 0.00663025)
(0.0385121 -0.0022377 -0.00730605 0.00354884 -0.000614955 0.0058985)
(0.0365953 -0.00157415 -0.00669466 0.00422785 -0.00104609 0.00658317)
(0.0381772 -0.00302604 -0.00647834 0.00442143 -0.000603264 0.00693954)
(0.0376537 -0.00203624 -0.00693532 0.00377699 -0.000407823 0.00687125)
(0.0389592 -0.00170673 -0.00856038 0.0041802 -0.000692589 0.00681339)
(0.0363317 0.000555705 -0.00882991 0.004307 -0.000696084 0.00673946)
(0.0328814 -0.000497764 -0.00947427 0.00421034 -0.000309041 0.0077129)
(0.0358977 -0.000866165 -0.00802845 0.00399249 -0.000723507 0.00770608)
(0.036143 -0.000188651 -0.00643735 0.00358328 -0.000551315 0.00720201)
(0.0357589 -0.000164939 -0.00626937 0.00359527 -0.000229415 0.00628138)
(0.034233 -0.000675694 -0.00763575 0.00405258 -0.000291756 0.00651575)
(0.0311341 -0.00149345 -0.00705057 0.00438376 -0.00102424 0.00646027)
(0.0359394 -0.00136736 -0.00784666 0.00420524 -0.00168262 0.00685321)
(0.0317355 -0.00185439 -0.00620072 0.00376671 -0.00113316 0.00630386)
(0.0269277 -0.000672485 -0.00564134 0.00401921 -0.00148917 0.00636903)
(0.0270247 -0.00125337 -0.00546695 0.00378839 -0.00139392 0.00659151)
(0.0319919 -0.00146364 -0.00813667 0.00308778 -0.00111026 0.00756711)
(0.0330406 -0.000707551 -0.00834975 0.00294816 -0.000656903 0.00814512)
(0.0318976 -0.00128335 -0.00785286 0.00334518 -0.000989956 0.00775837)
(0.0316826 -0.00183039 -0.00877262 0.00306802 -0.000996676 0.00761445)
(0.0328275 -0.00135961 -0.00783479 0.00286653 -0.00112361 0.00756896)
(0.0402913 -0.00254776 -0.00821559 0.00329143 -0.000816412 0.00768682)
(0.0421309 -0.0016541 -0.00827693 0.00322809 -0.000874426 0.0070639)
(0.0346555 -0.00109293 -0.00742755 0.00327083 -0.000980112 0.00638663)
(0.0356468 -0.0013083 -0.00713532 0.00323412 -0.000975514 0.00624384)
(0.0398256 0.000159874 -0.00708341 0.00287569 -0.000696024 0.00669243)
(0.0348679 -4.9108e-05 -0.00562744 0.0029026 -0.000643134 0.0057585)
(0.0367706 -0.000964005 -0.00516886 0.00289354 -0.000594493 0.00605982)
(0.0393495 -0.000233031 -0.00654258 0.00273443 -0.000709492 0.00630584)
(0.0357003 0.000505532 -0.00709967 0.0025331 -0.0011799 0.00635368)
(0.0327736 0.000859487 -0.00756708 0.00293459 -0.00119573 0.00666066)
(0.0324476 -0.000256897 -0.00760157 0.00310779 -0.000759239 0.00577994)
(0.0396096 0.00033757 -0.00963556 0.00321827 -0.000739483 0.00662358)
(0.039001 0.000255671 -0.0101622 0.00352408 -0.000414161 0.00771442)
(0.031356 -0.00139231 -0.00825932 0.00373517 -0.000313192 0.00824677)
(0.0349323 -0.00233584 -0.00928666 0.00354757 -2.39499e-05 0.00814203)
(0.0360618 -0.000629207 -0.00819296 0.00332286 -0.000399157 0.00746915)
(0.0379076 -0.00017099 -0.00811729 0.00314216 -0.000357292 0.00831614)
(0.0382556 -0.00127462 -0.00703686 0.00377983 -0.000123843 0.00847264)
(0.0415903 -0.00146865 -0.00921742 0.00370441 0.000245172 0.0070818)
(0.0401717 -0.00157963 -0.00858284 0.00375288 -0.000536403 0.00642683)
(0.0384538 -0.00193863 -0.00692533 0.00480353 -0.000891714 0.00723317)
(0.0370592 -0.00367729 -0.00620384 0.00477692 -0.000510272 0.00686412)
(0.035237 -0.00283462 -0.00657545 0.00424207 -0.000333996 0.00647123)
(0.0379997 -0.0023999 -0.0078666 0.00454291 -0.000127155 0.00723753)
(0.0390373 -0.000277877 -0.00845812 0.0043966 -0.000123572 0.00757585)
(0.0390277 -0.000243876 -0.00992356 0.00413667 1.70292e-05 0.0081066)
(0.0373853 -0.00070867 -0.00774245 0.00409029 -0.000444821 0.00723244)
(0.0356896 -0.000909278 -0.00656625 0.00391277 -0.000264691 0.00665268)
(0.0395101 -0.000730123 -0.00688923 0.00395855 9.33049e-05 0.0060512)
(0.0387476 -0.000603693 -0.00819817 0.00434316 -3.5848e-05 0.00636594)
(0.0350219 -0.0013981 -0.0084203 0.00467815 -0.000659351 0.00657447)
(0.0345314 -0.000546608 -0.00899597 0.00434061 -0.00156524 0.00706607)
(0.0324901 -0.00160701 -0.00722288 0.00391956 -0.000844917 0.00635188)
(0.0258886 -0.000951185 -0.00546144 0.00411025 -0.00105595 0.0061852)
(0.0283461 -0.00143964 -0.00595671 0.00414644 -0.0010427 0.00644889)
(0.0330704 -0.00162481 -0.00811659 0.0031701 -0.00070952 0.00731087)
(0.0332116 -0.000718117 -0.00867277 0.0030771 -0.000113153 0.00816798)
(0.0322613 -0.00114978 -0.00807021 0.00366832 -0.00067265 0.00761135)
(0.0339457 -0.00170983 -0.00843442 0.00332926 -0.000930833 0.00702914)
(0.0338639 -0.00139966 -0.00842874 0.00331324 -0.000858126 0.00761827)
(0.0406337 -0.00256057 -0.00844449 0.00354799 -0.000672692 0.00807698)
(0.0366455 -0.00207433 -0.00821121 0.00352894 -0.000651254 0.00730747)
(0.0351132 -0.00109992 -0.00768404 0.00370727 -0.000534142 0.00638431)
(0.0348044 -0.000881589 -0.00814598 0.00363876 -0.000648168 0.00593766)
(0.0400968 0.000627708 -0.00768931 0.00305316 -0.000404993 0.00666225)
(0.0356223 9.74509e-05 -0.00569221 0.00278251 -0.000285943 0.00570966)
(0.0402806 -0.00113989 -0.00489953 0.00263744 -0.000331368 0.00537057)
(0.039321 -0.000208759 -0.00584924 0.00267821 -0.000392009 0.00582543)
(0.0350479 6.16785e-05 -0.00658917 0.00261651 -0.000839536 0.00555538)
(0.0367362 -0.000181489 -0.00760199 0.00296039 -0.000600672 0.00578899)
(0.0391569 -0.000819459 -0.00985941 0.0029507 -0.000495927 0.00696904)
(0.0429367 3.65193e-05 -0.0114033 0.00308215 -0.000345018 0.00755081)
(0.0369548 -0.000324301 -0.0112043 0.0034609 -0.000255436 0.00936143)
(0.0339802 -0.00133373 -0.0101472 0.00368323 -0.000424881 0.00979405)
(0.0342076 -0.00162644 -0.0107513 0.00356511 -0.000138498 0.0098677)
(0.0311749 0.000169509 -0.00838968 0.00338123 -0.000377498 0.00868747)
(0.0365134 0.000282574 -0.00871558 0.00336172 -0.000192231 0.00891067)
(0.037437 -0.000466886 -0.00745711 0.00374607 -8.14465e-05 0.00897063)
(0.0402188 -0.000942244 -0.00854924 0.00386782 6.51164e-05 0.00772132)
(0.0423128 -0.00169986 -0.00846882 0.00415156 -0.000553902 0.00719698)
(0.0394282 -0.00200993 -0.00745477 0.00539378 -0.00095195 0.00779106)
(0.0368211 -0.00318884 -0.00715978 0.00536418 -0.000843482 0.00744767)
(0.0362208 -0.00311998 -0.00729656 0.00454461 -0.000437434 0.00670266)
(0.0382264 -0.00205814 -0.00750745 0.00463555 4.08403e-05 0.00728577)
(0.0391042 -0.00063063 -0.00860036 0.004777 0.00020484 0.00800556)
(0.0440538 -5.03333e-05 -0.010363 0.00449556 4.82276e-06 0.00750577)
(0.0394279 -0.000353354 -0.00861869 0.00435234 -0.000321975 0.00693068)
(0.0389683 -0.000683111 -0.00815234 0.0042057 -7.50936e-05 0.00645918)