/*--------------------------------*- C++ -*----------------------------------*\
  =========                 |
  \\      /  F ield         | OpenFOAM: The Open Source CFD Toolbox
   \\    /   O peration     | Website:  https://openfoam.org
    \\  /    A nd           | Version:  10
     \\/     M anipulation  |
\*---------------------------------------------------------------------------*/
FoamFile
{
    format      ascii;
    class       volScalarField;
    location    "8";
    object      p;
}
// * * * * * * * * * * * * * * * * * * * * * * * * * * * * * * * * * * * * * //

dimensions      [0 2 -2 0 0 0 0];

internalField   nonuniform List<scalar> 
102400
(
0.000301193
0.0115564
-0.000817641
-0.00804122
0.00114981
-0.0256536
0.0136956
0.013024
-0.0141668
-0.00685705
0.00594776
0.00314097
0.000663838
0.00306151
-0.0085361
-0.00721587
-0.00340458
0.0119384
0.0178852
0.00538861
-0.0289383
-0.00219164
0.0181118
0.00625938
-0.0103614
-0.00156674
0.00796326
-0.0052398
0.00714803
0.00627075
-0.00626351
0.00766266
0.00113832
0.00113126
-0.00525285
-0.0151671
0.00529944
-0.00117452
-0.00299604
-0.00740225
-0.0149415
-0.0104857
-0.0198588
-0.0304195
-0.0213737
-0.0494751
-0.00775169
-0.00836937
-0.0362219
-0.0250277
-0.0162236
-0.0129545
-0.0194701
-0.0205498
-0.0315826
-0.0251541
-0.0204647
-0.00476483
0.00174006
-0.0168722
-0.046972
-0.0178138
-0.00249052
-0.0160684
-0.030026
-0.0111483
-0.00199051
-0.0274451
-0.0143964
-0.0158607
-0.0296781
-0.0143265
-0.0209926
-0.0169248
-0.0222249
-0.0295719
-0.00907227
-0.0232937
-0.0169423
-0.0222777
-0.0100943
0.00681847
-0.00678463
-0.0149412
-0.0129308
-0.0388365
0.00117492
-7.48104e-05
-0.0268593
-0.0224241
-0.0059915
-0.0111161
-0.010607
-0.00800455
-0.0210494
-0.0206397
-0.0141132
-0.00084991
0.00650611
-0.00931839
-0.0447495
-0.0129958
0.0046952
-0.0057877
-0.0160898
-0.0121201
0.00624449
-0.0104501
0.00078102
-0.00716616
-0.0103401
-0.00534641
-0.012965
-0.0132457
-0.0191082
-0.0200264
-0.00497388
-0.0156641
-0.0155166
-0.0127155
-0.0192995
-0.00224228
-0.0210416
-0.0209621
-0.00995202
-0.034762
0.00200498
0.0010318
-0.0329362
-0.0295795
-0.00576887
-0.0165398
-0.00927273
-0.00723828
-0.0224577
-0.0271267
-0.0181547
-0.00739684
-0.003082
-0.0168371
-0.0517018
-0.0238108
0.00520836
-0.0147814
-0.0202906
-0.0145069
-0.00483977
-0.0180671
-0.00283144
-0.013448
-0.0174128
-0.000305158
-0.0180464
-0.0201904
-0.0272869
-0.0291355
-0.0101759
-0.0129493
-0.0262362
-0.0245346
-0.00658355
-0.00271228
-0.0169771
-0.0178485
-0.0118835
-0.0314584
0.00575828
0.006258
-0.0166557
-0.0232
-0.00264831
-0.0113155
-0.0100002
-0.0112621
-0.0111578
-0.0200652
-0.0115321
0.00205388
0.00778045
-0.0153954
-0.0435392
-0.0189736
0.00830196
-0.0145933
-0.021008
-0.00621186
-0.0050048
-0.023108
-0.00595013
0.000755425
-0.0251284
-0.0015406
-0.00385092
-0.0137662
-0.0212602
-0.0338149
-0.00741554
-0.0102369
-0.021345
-0.022089
-0.00873761
-0.00385973
-0.0177908
-0.018387
-0.0174421
-0.0414472
-0.00277551
0.00707162
-0.0208688
-0.0223647
-0.0130077
-0.00496877
-0.0131371
-0.0158119
-0.0182656
-0.0196976
-0.0091756
0.00103445
0.00755798
-0.0170899
-0.0433451
-0.0169384
-0.00315523
-0.0118494
-0.028445
-0.0221972
-0.00990845
-0.0203253
-0.0162852
-0.00472183
-0.0266352
-0.00775768
-0.0052125
-0.00806886
-0.019445
-0.0361515
-0.00220227
-0.013574
-0.0187497
-0.021885
-0.0071994
-0.00894289
-0.0156478
-0.0187384
-0.0136823
-0.0296298
-0.00956514
0.00918279
-0.0265544
-0.0189788
-0.0126318
-0.00461376
-0.000559874
-0.00773201
-0.0238109
-0.0235559
-0.0148485
0.00445878
0.00955175
-0.0142437
-0.0433975
-0.0250696
-0.00114932
-0.0140273
-0.0319593
-0.0212587
-0.00887994
-0.0147129
-0.0147044
-0.00893702
-0.023992
-0.00156348
-0.0131718
-0.002581
-0.0218812
-0.0360911
0.00230027
-0.00857738
-0.0167631
-0.0227577
-0.00640176
-0.0161216
-0.0208591
-0.0212495
-0.0129023
-0.0282904
-0.0112234
0.00829162
-0.0266998
-0.0221401
-0.00788992
-0.0149185
-0.00825582
-0.0121116
-0.0219518
-0.0306685
-0.0229331
0.00142272
0.00488419
-0.00751173
-0.0412675
-0.0270255
0.00117217
-0.024647
-0.0333845
-0.0192566
-0.00496827
-0.016549
-0.0124616
-0.00818883
-0.0302099
-0.0137939
-0.017681
-0.0190602
-0.0229822
-0.0319891
-0.00445272
-0.0129928
-0.016733
-0.0225749
-0.00483266
-0.0139624
-0.0182757
-0.0271251
-0.00699271
-0.0333988
-0.00340771
0.00643769
-0.0211673
-0.0251931
-0.0056169
-0.00860151
-0.00519306
-0.0176185
-0.0245724
-0.0125869
-0.0187765
0.000402031
0.00341775
-0.00611309
-0.0229623
-0.0150854
-0.000513558
-0.0242215
-0.0320426
-0.0175127
-0.00162137
-0.0186717
-0.0120479
-0.00145029
-0.0246015
-0.0084475
-0.0104519
-0.0164896
-0.0174094
-0.0267498
-0.00764665
-0.0142599
-0.0214554
-0.0143471
-0.0135079
-0.000878334
-0.0124076
-0.0290974
-0.00711071
-0.0322109
-0.00611474
0.00856041
-0.0238121
-0.0214745
-0.0051957
-0.0094352
-0.00237182
-0.002362
-0.0254964
-0.00880719
-0.025646
-0.00750292
0.00283216
-0.00554611
-0.0218082
-0.0238564
-0.00268805
-0.020594
-0.0316266
-0.0141536
-0.00361778
-0.0037951
-0.0140163
-0.0109161
-0.0245999
-0.00256566
-0.00315357
-0.0145897
-0.0172967
-0.0214123
-0.00252673
-0.0140358
-0.0194683
-0.0134036
-0.00849678
0.000439205
-0.0126361
-0.0203511
-0.0108663
-0.0240758
-0.00204626
0.00364662
-0.0173339
-0.0187205
-0.00497713
-0.00713221
-0.0103999
-0.00535442
-0.020845
-0.0176361
-0.0248706
-0.0235167
-0.000140771
-0.00400273
-0.0158848
-0.0252345
-0.0137975
-0.0154913
-0.0373589
-0.0233187
-0.0141098
-0.00347085
-0.0100541
-0.00870774
-0.0202749
-0.0152473
-0.00378542
-0.00507992
-0.0118701
-0.0219289
-0.00315372
-0.0104361
-0.0160743
-0.0183844
-0.00560983
-0.00116487
-0.0133884
-0.0129875
-0.0157659
-0.0131028
-0.000609632
0.00110698
-0.0287853
-0.0179479
-0.00211768
-0.0159267
-0.0146322
-0.0139427
-0.0153894
-0.0126361
-0.0150996
-0.0279091
0.00448001
-0.00528197
-0.014764
-0.0197335
-0.0203334
-0.0114617
-0.0399761
-0.0295556
-0.0213213
-0.0107597
-0.0041068
-0.0161102
-0.0148589
-0.00542844
-0.00428177
-0.0184777
-0.0196895
-0.0187019
-0.0099707
-0.00729107
-0.0152993
-0.0248054
-0.0138031
0.00061521
-0.0172142
-0.00580029
-0.0209838
-0.0302073
-0.016497
0.00213164
-0.0209002
-0.031326
0.00117456
-0.0141024
-0.0187572
-0.00421795
-0.0179873
-0.0121649
-0.00293921
-0.0141909
0.00881234
-0.00677663
-0.00987884
-0.0114325
-0.0245396
-0.0168307
-0.0301008
-0.00955132
-0.0131299
-0.00981305
-0.00890337
-0.027552
-0.0209439
-0.00564507
-0.00696002
-0.0223859
-0.01557
-0.00890681
-0.0163358
-0.00480279
-0.00862901
-0.0185615
-0.0172438
-0.00400688
-0.0126329
-0.00500807
-0.00678508
-0.0324674
-0.0254661
-0.00125052
-0.0180488
-0.0232874
-0.0172221
-0.00973198
-0.0217761
-0.00672522
-0.0172811
-0.0202747
-0.0166517
-0.00523012
0.00789793
-0.00752207
-0.00820177
-0.00894681
-0.0148928
-0.0121927
-0.0269272
-0.00991752
-0.0153118
-0.00761956
-0.00725757
-0.0241242
-0.0118823
-0.0132421
-0.00466942
-0.015218
-0.0228567
-0.0121796
-0.00735754
0.00269771
-0.00527308
-0.0162935
-0.012923
-0.00383318
-0.00259851
-0.00542513
-0.0132431
-0.0188989
-0.0123983
-0.0100537
-0.0195491
-0.0155399
-0.0155996
-0.00398576
-0.0225618
-0.0153041
-0.00766463
-0.0215003
-0.0241172
-0.0340552
-0.00325728
-0.00513945
-0.00965695
-0.00863623
-0.0151235
-0.010961
-0.0219686
-0.0109988
-0.0161888
-0.0130739
-0.000376211
-0.0153751
-0.00667626
-0.00904921
-0.00497075
-0.0143283
-0.0137308
-0.0100505
0.0048417
-0.000483068
-0.00525322
-0.0159208
-0.00728062
-0.0106921
-0.00519973
0.00531984
-0.0117509
-0.017067
-0.0102245
-0.0104675
-0.012991
-0.0173449
-0.0258626
-0.00396765
-0.0136429
-0.0171022
-0.0114105
-0.00513929
-0.0235718
-0.0294072
-0.00964834
0.000579955
-0.0085946
-0.00542607
-0.0126994
-0.0191455
-0.0227954
-0.0196128
-0.00963334
-0.0107932
0.00101158
-0.0201658
-0.00433399
-0.00611686
-0.00636469
-0.0120351
-0.0168872
-0.00828209
0.000879119
0.000362345
-0.0105652
-0.000461653
-0.00993006
-0.0110127
-0.0114469
-0.00810841
-0.00538741
-0.0237483
-0.00730773
-0.00051745
-0.0116398
-0.0119261
-0.0210273
-0.00599954
-0.00795523
-0.00762694
-0.00787091
-0.0106472
-0.00426621
-0.00977044
-0.00914085
-0.00287726
-0.0134604
-0.00240515
-0.0094232
-0.00650441
-0.0200696
-0.00848843
-0.0158638
-0.00549637
-0.00396056
-0.020714
-0.000320381
-0.00685144
-0.0113132
-0.00936769
-0.0192043
-0.00196976
-0.00710426
-0.00451265
-0.00945772
-0.00919367
-0.00155296
0.000175673
-0.0089472
-0.0126233
-0.0140211
-0.0195882
0.004528
-0.0072637
-0.00682462
-0.00141676
-0.00695369
-0.00435262
-0.00538975
-0.00673021
-0.00444607
-0.0125135
-0.0040808
-0.00571136
-0.0134286
-0.00410947
-0.0186281
-0.00185204
-0.00892877
-0.00522038
-0.00933746
-0.0108697
-0.0156426
-0.00490954
0.000683349
-0.00807991
0.00523989
-0.0100496
-0.00930304
-0.00975174
-0.0282665
0.000217076
-0.0108094
-0.0110767
-0.00783379
-0.009446
-0.00992928
0.00439873
-0.00274948
-0.0050765
-0.00316912
-0.0116067
0.00190092
0.00447421
-0.004356
-0.00182004
-0.00920349
-0.00617141
-0.00561651
-0.00315016
-0.00285083
-0.00169173
-0.00359051
0.00066719
-0.0164952
-0.00605883
-0.00829405
-0.005898
-0.0129076
-0.00182984
-0.00670277
-0.0129223
-0.00139144
-0.00182299
-0.000618887
-0.0121596
0.00225037
-0.00918023
-0.00171566
-0.011921
-0.0222409
-0.00947438
-0.00910544
-0.00973769
-0.00352765
-0.000199452
-0.00994309
0.00301228
-0.00187841
-0.00229595
0.00104345
-0.0083248
-0.00708682
0.00614197
-0.00332777
-0.00100951
-0.00883128
-0.00927281
-0.00713913
-0.00388535
0.00514168
-0.00637658
-0.0015378
-0.0037849
-0.00217048
-0.00656541
-0.00588642
-0.0117347
-0.00433876
0.00178988
-0.00622042
-0.00960099
-0.00674926
0.00363223
-0.0021291
-0.0102502
0.00330688
-0.00483683
-0.00200043
-0.0077365
-0.00938454
-0.00808842
-0.00665608
-0.0056246
-0.00406585
-0.00182154
-0.0104115
0.00148689
0.00176784
-0.000500894
-0.00406933
-0.00503732
-0.00354774
0.00363491
0.000918672
-0.00154419
-0.00909034
-0.00512954
-0.00114995
-0.0065495
-0.00481974
-0.00242178
-0.00198867
-0.00206158
-0.003161
-0.00960556
0.000157057
-0.0076085
-0.00603873
0.00166835
-0.00593962
-0.0115918
-0.00915054
0.00336217
-0.00532946
-0.00998812
0.0044828
-9.92903e-05
0.00500283
0.00185198
0.000590996
-0.0054965
-0.00666206
-2.57759e-05
-0.00331444
-0.00214625
-0.0125654
-0.00255089
-0.000331573
-0.000908567
-0.0057009
-0.00415022
-0.00225243
0.00258447
0.00113773
3.63507e-05
-0.00575802
-0.00709539
0.00186894
-0.00193589
-0.00335722
6.54883e-05
-0.00112968
-0.0056389
-0.00275818
-0.00840139
-0.00507586
-0.00368372
-0.00301978
0.00170421
-0.000801544
-0.00717111
-0.00877669
-0.000632136
0.00051259
-0.00186744
0.00192165
0.000785342
0.00206426
6.62522e-05
-0.00653454
-0.0105755
-0.00622741
-0.000679853
0.000231994
-0.0018454
-0.00419244
-0.00268335
0.00187705
-0.00214546
-0.00397801
-0.00442458
-0.00128512
0.00175049
0.00150572
0.000342205
-0.00730978
-0.0130176
-0.000571225
0.000911022
-0.0019218
-0.0006256
0.00332891
-0.00228004
-0.00104086
-0.00302204
-0.00246307
-0.00316937
-0.0020216
2.09249e-05
0.000125505
-0.002502
-0.000864901
-0.000985733
-0.00127265
0.0013147
0.00419111
0.00191946
0.00143843
-0.00061284
-0.00638366
-0.0108147
-0.0085644
0.00276973
0.00109031
-1.63581e-05
-0.0017204
0.000112307
0.00176504
-0.00246213
-0.00271513
-0.00366263
-0.00195791
0.00155636
0.00177332
0.00179832
-0.00278827
-0.00713212
-0.0013912
0.00118106
-0.000521632
-0.0021894
0.00215531
0.000372263
0.000217533
-0.00179932
-0.00165151
-0.00156345
-0.00145818
-1.58806e-05
0.000661982
-0.00112879
-0.000156974
0.000408414
-0.000266003
4.32992e-05
0.00239919
0.000134554
0.00254764
0.000864883
-0.00078473
-0.00291329
-0.00822863
0.000447366
0.0017872
9.52443e-05
-0.000644547
-0.000222953
0.00110416
-0.000976484
-0.00120543
-0.000788675
0.00013105
0.00194617
0.00202308
0.00176273
0.000998344
-0.00128506
-0.000692596
0.00286129
0.000752804
-1.16246e-06
0.00173287
0.00112113
0.000136184
0.000564555
7.61944e-05
-0.000553904
-0.00134911
0.000202351
0.000813999
-1.70756e-05
0.000520449
8.11763e-05
2.21612e-05
0.000952333
0.00230158
0.000217904
0.00111785
0.00151854
0.00158375
0.00146794
-0.00306193
-0.000739077
0.00158455
0.000460244
0.00029516
1.08204e-05
0.000622157
-0.00012316
-0.000230664
0.000938942
0.0011017
0.00159598
0.00170492
0.00166463
0.00186975
-0.000662717
-0.00036346
0.00196154
0.00109437
1.62421e-05
0.00120084
0.000947765
0.000484634
0.000232652
-0.000281009
-1.33656e-06
-0.000635593
0.000473071
0.000750661
0.00062474
0.000484051
0.000363427
0.000797075
0.00101856
0.00108043
0.000736653
0.00107193
0.00127428
0.00110448
0.00130846
-0.00108112
-0.000220938
0.00122373
0.000323348
0.000334846
0.000140613
0.000429246
0.000401999
0.000338178
0.00112918
0.00152518
0.0013136
0.00154777
0.00154461
0.00174441
0.0010459
-0.000257504
0.00156355
0.00109078
0.000645722
0.00109778
0.000845478
0.000706867
0.00048149
0.000301576
0.000381916
-9.51316e-05
0.000553624
0.000677022
0.00054498
0.000524101
0.000567448
0.000825542
0.00104939
0.00103821
0.000990281
0.00114415
0.00127361
0.00114291
0.0013978
0.000149268
0.000143778
0.000944168
0.00039147
0.00030432
0.000253157
0.000406267
0.000505177
0.000543826
0.00103842
0.00134094
0.00109843
0.00130535
0.00129202
0.00135343
0.00139732
0.000220796
0.00116524
0.00092732
0.000660305
0.000853671
0.000746657
0.000648289
0.00044753
0.000288417
0.000362081
0.000139722
0.000454381
0.000556683
0.0004856
0.000501798
0.000584557
0.000802499
0.000919579
0.000851348
0.000887045
0.000986823
0.00106315
0.000889028
0.000916838
0.000419341
0.000224335
0.000695984
0.000402999
0.000423934
0.000406665
0.000508434
0.000610314
0.000680168
0.000933418
0.00116018
0.00103325
0.00115126
0.00117395
0.00118938
0.00124737
0.000619529
0.00101977
0.00093507
0.000814119
0.00085398
0.000775638
0.000692759
0.00057211
0.000484421
0.00048618
0.000388435
0.000508911
0.00057527
0.00055386
0.000572905
0.000646742
0.00077132
0.000855401
0.000855904
0.000899042
0.000935193
0.000969566
0.000857901
0.000822309
0.000640149
0.000425542
0.000621864
0.000493022
0.000498986
0.000506439
0.000572212
0.000651367
0.000726027
0.000864224
0.0010056
0.000974365
0.00103007
0.00105952
0.00106235
0.0010769
0.00081286
0.000932692
0.000908028
0.000849007
0.000825978
0.000767611
0.000698962
0.000613631
0.000551291
0.000532251
0.000485941
0.000525923
0.000560901
0.000568342
0.000590735
0.000641891
0.000713511
0.000766514
0.000786007
0.000820767
0.000841934
0.000846787
0.000783815
0.000747399
0.000688366
0.000521556
0.000579778
0.000533328
0.000460067
0.000470625
0.000515704
0.00057281
0.000633388
0.000719979
0.000799584
0.000820249
0.000850064
0.000863643
0.00086056
0.000856825
0.000776577
0.000804347
0.000795151
0.000759902
0.000732405
0.000686246
0.000630624
0.000572528
0.000529327
0.000507816
0.000481909
0.000488603
0.000505203
0.000517019
0.000535415
0.000565773
0.000601307
0.000632518
0.000645637
0.000662879
0.000666991
0.00065592
0.000619367
0.000585883
0.000559006
0.000493579
0.000493519
0.000474255
0.000804597
0.000807267
0.000833924
0.000880787
0.000936711
0.000999025
0.00106411
0.00110552
0.00113131
0.00113947
0.0011319
0.00112733
0.00110382
0.00110378
0.00109312
0.00106573
0.00102806
0.000979867
0.000928207
0.000875956
0.00083278
0.000807057
0.000788046
0.000783132
0.00078475
0.000786868
0.000790229
0.000797025
0.000809721
0.00082486
0.000845768
0.000879704
0.000902358
0.00090159
0.000882081
0.000860017
0.000851021
0.000832849
0.000827473
0.000816702
-0.0102364
-0.00359694
0.0238133
-0.008115
-0.0224855
-0.00465045
0.015596
0.00290845
-0.0142497
-0.00609001
0.0118048
-0.00722499
-0.0136325
-0.00329862
-0.00763603
-0.00607257
0.00336676
0.0105008
0.00192944
-0.00201718
-0.00488786
-0.0015915
0.00827366
-0.00986987
-0.0163123
0.00223449
-0.00219904
-0.0121429
-0.00625506
0.00540439
0.00476081
-0.0054113
-0.0100196
-0.000186166
-0.00727715
-0.00844435
-0.000437169
0.00230247
0.000292552
0.00703
-0.0325023
-0.0162414
0.00556653
-0.029266
-0.0395681
-0.0261038
-0.00785699
-0.0199508
-0.0375838
-0.0245767
-0.0066447
-0.0220555
-0.029107
-0.0185362
-0.0303121
-0.0289691
-0.0185318
-0.0108735
-0.0210404
-0.0184017
-0.0274382
-0.0132807
-0.00510563
-0.0329582
-0.0308138
-0.0185243
-0.0250823
-0.0351407
-0.0272398
-0.0171944
-0.00907772
-0.0273629
-0.0337454
-0.0245988
-0.0246532
-0.0281055
-0.0232603
-0.020765
-0.0167992
-0.0143566
-0.0202289
-0.0156562
0.0219524
-0.0267633
-0.0323556
-0.0164391
0.000758286
-0.0109584
-0.0276439
-0.0192265
-0.00208779
-0.0205776
-0.0271787
-0.0156855
-0.0207093
-0.0177981
-0.0008378
-0.0015089
-0.0123701
-0.0151547
-0.017639
-0.0145829
0.00353776
-0.0229774
-0.0342838
-0.0107703
-0.0148115
-0.0250719
-0.0189381
-0.00999667
-0.00609708
-0.0115262
-0.0179342
-0.0150005
-0.02176
-0.0206927
-0.0135149
-0.0117567
-0.0126735
-6.37669e-05
-0.0292262
-0.0277
0.0033051
-0.0266306
-0.0463864
-0.0194997
-0.00478973
-0.00694725
-0.0257651
-0.027529
-0.00898837
-0.0294246
-0.035038
-0.0153336
-0.0277434
-0.0132714
-0.00732919
0.000166457
-0.00991837
-0.0184707
-0.0176939
-0.0235039
-0.00595105
-0.0224238
-0.0330133
-0.0168979
-0.0154562
-0.030084
-0.0286254
-0.0108222
-0.0177815
-0.016808
-0.0220674
-0.0100593
-0.0264373
-0.0319426
-0.0157494
-0.00881672
-0.0148627
-0.00482606
-0.0276029
-0.0234131
-0.00119337
-0.0211715
-0.0322317
-0.0229326
-0.00179541
-0.00896394
-0.0203275
-0.0190917
0.00150866
-0.0212669
-0.0271593
-0.00888088
-0.019107
-0.0101912
-0.00398434
-0.00153663
-0.00284305
-0.00930486
-0.0134583
-0.0171031
-0.00583277
-0.0164925
-0.0219753
-0.00721734
-0.0159666
-0.0292082
-0.0259675
-0.0105099
-0.0124032
-0.0176275
-0.0198204
-0.0107119
-0.0077178
-0.0243057
-0.0140891
-0.0101542
-0.00596701
-0.000444693
-0.0271432
-0.0205356
0.00652302
-0.0186626
-0.0269051
-0.0327856
-0.00809766
-0.0126077
-0.0288724
-0.0189731
0.00321347
-0.0259579
-0.0261301
-0.013897
-0.020495
-0.0175497
-0.00556074
-0.00812552
-0.00476727
-0.0192448
-0.0191787
-0.0185955
-0.0108572
-0.024948
-0.0300968
-0.00789705
-0.025565
-0.0229196
-0.0241923
-0.00945584
-0.0180567
-0.0245284
-0.0235864
-0.0171241
-0.00970597
-0.0226677
-0.0196189
-0.0112423
-0.0189847
-0.0143291
-0.0197036
-0.0165382
0.00820217
-0.0190467
-0.0259466
-0.0263613
-0.0150463
-0.0141717
-0.0351731
-0.0195381
0.00264298
-0.0169988
-0.03961
-0.0180106
-0.0178374
-0.0148214
-0.00854651
-0.005328
-0.00191785
-0.0223777
-0.0210039
-0.0207564
-0.00426419
-0.0281182
-0.028888
-0.0101036
-0.0256149
-0.0145805
-0.02306
-0.00999877
-0.00268552
-0.0106063
-0.0211929
-0.0194136
-0.0154509
-0.0211032
-0.0247204
-0.00610789
-0.0115434
-0.0164789
-0.0227655
-0.018521
0.00804176
-0.0231188
-0.0281428
-0.0223657
-0.00274358
-0.00981893
-0.0309499
-0.021995
0.00100277
-0.0135638
-0.0379356
-0.0272579
-0.0196748
-0.0208497
-0.0041862
-0.00766165
-0.0114
-0.0168259
-0.0193935
-0.0115872
-0.00436601
-0.0241939
-0.0261784
-0.0120393
-0.0143532
-0.0237391
-0.0210538
-0.0186885
-0.010851
-0.00926284
-0.0205402
-0.0213683
-0.0216345
-0.0224146
-0.0256988
-0.01018
-0.00207482
-0.0131864
-0.0261279
-0.020109
0.00723497
-0.0232289
-0.0258884
-0.0327643
0.0011097
0.00197974
-0.0231055
-0.0226536
0.00350182
-0.0112748
-0.0227098
-0.0190519
-0.023811
-0.0267458
-0.000927473
-0.00807907
-0.0136274
-0.0100668
-0.0191529
-0.00977952
0.000376574
-0.0171005
-0.0208993
-0.0122201
-0.0140779
-0.0270387
-0.0250393
-0.0235409
-0.0050277
-0.00922278
-0.0180212
-0.015753
-0.00791962
-0.0307409
-0.0310049
-0.0171186
0.00229243
-0.00613806
-0.0280963
-0.0198355
0.0024698
-0.0202618
-0.0191703
-0.0379391
-0.00309775
-0.00627771
-0.032684
-0.0197013
-0.00298199
-0.014659
-0.0212132
-0.0151171
-0.0285854
-0.0265197
-0.0155063
-0.0076913
-0.0188894
-0.00474407
-0.0221845
-0.0228327
-0.00525761
-0.0204476
-0.0123257
-0.00523123
-0.0164075
-0.0296621
-0.0319898
-0.0132358
-0.00300401
-0.0096631
-0.0212081
-0.0157066
-0.00887078
-0.0128882
-0.0332332
-0.0247366
-0.00152716
-0.00574647
-0.0161339
-0.0202211
-0.000374262
-0.0170892
-0.0117378
-0.0279773
0.000246993
0.00057286
-0.0326009
-0.030585
0.00679286
-0.0179249
-0.0271238
-0.00982381
-0.0136042
-0.0247375
-0.0277275
-0.00719235
-0.0203473
-0.00445299
-0.0217198
-0.0218513
-0.0138965
-0.0259209
-0.0165277
-0.00317163
-0.0160642
-0.0275832
-0.0262225
-0.0115621
-0.00531479
-0.000823536
-0.0292717
-0.0213364
-0.0207512
-0.0181237
-0.0191816
-0.0085861
-0.00943478
-0.0137334
-0.0188675
-0.0149079
0.00189623
-0.015625
-0.0246366
-0.0304797
-0.0129722
-0.00752177
-0.0282781
-0.0209817
1.97207e-05
-0.017043
-0.0180534
-0.0107228
-0.00135086
-0.0218509
-0.0273909
-0.0185994
-0.0112369
-0.00540767
-0.0182766
-0.0110745
-0.0146475
-0.0337689
-0.041719
-0.00336926
-0.00949177
-0.0170134
-0.0350009
-0.0219997
-0.00926169
-0.00642708
-0.0304956
-0.0223269
-0.0224718
-0.025746
-0.0266832
-0.0128787
-0.0107169
-0.0149047
-0.0222002
-0.0118475
-0.0025146
-0.0155972
-0.0237544
-0.0354233
-0.0161945
-0.0118955
-0.0261663
-0.0229271
-0.00416806
-0.00869734
-0.0243915
-0.0134806
0.000308039
-0.0266973
-0.0259621
-0.0126696
0.00930915
-0.00901814
-0.0120187
-0.0181178
-0.0089067
-0.0238931
-0.051003
-0.00425235
-0.0118608
-0.0155533
-0.0345753
-0.018547
-0.0167858
-0.00879434
-0.017707
-0.0186018
-0.0196277
-0.0179575
-0.0309817
-0.0318158
-0.00341046
-0.00500854
-0.0232912
-0.0113576
0.000182695
-0.0136297
-0.022645
-0.0193718
0.00417607
-0.00514615
-0.0259136
-0.0119154
-0.00101208
-0.0166844
-0.0171627
-0.00980625
-0.0109101
-0.0168754
-0.0187728
-0.0043837
0.000215082
-0.0115395
-0.00589827
-0.0212073
-0.0129237
-0.0127952
-0.0414555
-0.00198157
-0.0102294
-0.0213002
-0.0169144
-0.0168562
-0.00546837
-0.00986206
0.000557426
-0.0143886
-0.0157169
-0.0177262
-0.0277186
-0.0294122
-0.00642564
-0.0110383
-0.0194604
-0.0164349
-0.0128415
-0.0125719
-0.0196699
-0.0232279
-0.00678077
-0.00383428
-0.0246344
-0.0172731
0.00124395
-0.0191184
-0.0240444
0.00074955
-0.0134316
-0.02255
-0.0165588
-0.00574299
-0.00510749
-0.0171996
-0.00649638
-0.00748626
-0.0189402
-0.0105381
-0.0352724
0.00732162
1.81521e-05
-0.0253684
-0.0145295
-0.0174511
-0.00707944
-0.0153368
-0.00930843
-0.00910009
-0.00450466
-0.0290765
-0.0251089
-0.00811507
-0.0191579
-0.0138371
-0.0158035
-0.0148684
0.00110999
-0.0237295
-0.0165371
-0.0215618
-0.0175449
-0.013619
-0.0116511
-0.0227053
-0.00825349
-0.0142282
-0.0395571
-0.0112197
-0.0147238
-0.0221092
-0.0205858
-0.010163
-0.00152049
-0.0163228
-0.0164489
-0.0212313
-0.0181445
-0.017782
-0.019617
-0.0203579
-0.00224863
-0.00355754
-0.00980501
-0.0236469
-0.00426553
-0.0211542
-0.0174838
-0.00490998
-0.0116122
-0.0202772
-0.0270466
-0.00975894
-0.0125343
-0.00850498
-0.00881647
-0.0110169
-0.00541613
-0.0155538
-0.00876439
-0.00859557
-0.00665172
-0.0110926
-0.0114871
-0.0177467
-0.0126297
-0.00348844
-0.0171136
-0.00824066
-0.016734
-0.0121585
-0.0263037
-0.0029008
-0.00915776
-0.0101667
-0.00337927
-0.0169962
-0.0203158
-0.0161641
-0.00772073
-0.0242999
-0.00919133
-0.00762412
-0.00822719
-0.00666102
-0.00071007
-0.00406105
-0.00861474
-0.00270098
-0.0137032
-0.0107824
-0.0107128
-0.0152896
-0.00598179
-0.00961111
-0.00662889
-0.00541642
-0.00554157
-0.0183375
-0.0143361
-0.00505111
-0.00297539
-0.00850363
-0.00930928
-0.0125502
-0.0162497
-0.00292874
-0.0157264
-0.011429
-0.0124004
-0.0155329
-0.020312
0.00121366
-0.0126391
-0.00776473
-0.00732629
-0.00817736
-0.00444246
-0.00414957
-0.0114611
-0.00516268
-0.0139874
-0.00547449
-0.00385391
-0.00520081
-0.0109608
-0.0115544
-0.00695773
-0.00309179
-0.00989885
-0.012061
-0.0150916
-0.0132838
-0.00433686
-0.0140326
-0.00525661
-0.00109379
-0.00136505
-0.0108928
-0.0168503
-0.00698532
0.00419555
-0.00803609
-0.0047663
-0.00583308
-0.0156835
-0.000692211
-0.0113882
-0.00554922
-0.00832716
-0.0134585
-0.00898665
0.000894557
-0.00379611
-0.00404063
-0.00227288
-0.00655306
-0.0104144
0.00108332
-0.00671543
-0.0108886
-0.00973423
-0.00988316
-0.00525329
-0.00652229
-0.00570964
-0.0125166
-0.00295392
0.00286585
-0.00843874
0.00168225
-0.0156493
-0.0171699
-0.00646255
0.00214234
-0.00993027
-2.19933e-06
-0.00838282
-0.0052658
-0.0133688
-0.0100563
0.00194479
-0.000523727
-0.00337547
-0.00095453
-0.00180715
0.00182394
-0.00199736
-0.00535495
-0.00704338
-0.00877618
-0.00804818
-0.00403118
-0.000893257
-0.000458496
-0.00460027
-0.00469088
-0.000446429
0.00270106
-0.00397334
-0.00519967
-0.00674573
-0.0032058
0.00203489
-0.00382814
0.000497383
-0.000507852
-0.0032089
-0.000134561
-0.00389974
-0.0149788
-0.0157773
-0.00939255
-0.000839625
-0.00863834
-0.00603193
0.000735742
-0.00363204
-0.00349235
-0.0050139
-0.00373078
0.00199467
0.00103601
-0.000327821
-0.00482801
-0.00522661
-0.00300063
-0.00459325
-0.00578089
-0.00637736
-0.00645995
-0.00158189
-0.00513196
-0.00546247
-0.00250083
-0.00156921
-0.00125299
-0.00394936
-7.51855e-05
-0.00568099
0.000768843
-0.00363354
-0.00268653
-0.0016705
-0.00276925
0.00337865
-0.00528266
-0.00357443
-0.00115708
-0.00133746
-0.00464091
-0.0121835
-0.00935836
-0.00138667
-0.000896377
-0.00683223
-0.000756671
-0.0029394
-0.00208206
-0.00435834
-0.00169979
0.00136663
-0.000244665
0.00154836
-0.0028037
-0.00407861
-0.00192779
0.000580952
-0.00467148
-0.00598714
-0.00445546
-0.000663542
-0.00218454
-0.00184604
-0.00214779
-0.00181936
-0.00421511
-0.00316001
6.55648e-05
-0.00220391
-0.00357466
-0.00607785
-0.00185326
-0.00192702
-0.00191472
-0.00247694
-1.37913e-05
-0.0045523
0.0010918
-0.00226641
-0.00517827
-0.00612345
-0.00169248
-0.000626309
-0.000260238
-0.00414406
-0.000525231
-0.00458435
-0.00203923
-0.0035673
-0.00162241
0.000637563
0.000683212
-0.000280997
-0.00144689
-0.00278904
-0.00379256
-0.000705017
-0.00281068
-0.00109731
-0.00364506
-0.0014523
-0.00148642
-0.0018795
-0.00256124
-0.00171506
-0.00159152
-0.00210386
-0.000341273
-0.00252138
-0.00179102
-0.00151503
-0.000260834
-5.87556e-05
0.00336055
0.00097295
-0.00158666
0.000222447
0.00111702
-0.00451557
-0.00498
-0.00501029
-0.0028434
-0.00179357
0.000943804
-0.00264
0.000751842
-0.00201029
-0.00221478
-0.00224478
-0.000294391
0.00169938
0.00118227
0.000688224
-0.000821303
-0.00295376
-0.00488352
-0.000559448
-0.00157208
-0.00115838
-0.00212459
-0.000553301
-0.000733311
-0.00142374
-0.00173881
-0.000912019
-1.55833e-06
-0.0012201
-0.000502555
-0.00078853
-0.00168284
-0.00197428
-0.000478102
0.000747585
0.000471951
0.000441395
-0.000487169
-0.0007732
-0.000772556
-0.000822117
-0.00695079
-0.00666527
-0.00249016
-0.0017004
-0.000396172
-0.00172242
-0.000199686
-0.000163031
-0.00100815
-0.00126998
-0.000358817
0.00160192
0.00129591
0.00037313
-0.000286231
-0.00100867
-0.00265482
-0.000394619
-0.000931909
0.000338989
-0.000630737
0.000212287
0.000157878
-0.000432971
-0.000712208
-0.000396716
-0.000407586
-0.000552484
-0.000344798
-0.000820716
-0.00136172
-0.000883852
0.000175546
0.000713108
0.00178776
0.00174568
1.68399e-06
0.000779848
0.000328772
-0.000912303
-0.00221308
-0.00277517
-0.000838731
-0.000325548
-1.98582e-05
-0.00107104
0.000279652
0.000153884
-0.00036169
-0.000464505
0.000214467
0.000885676
0.000763481
0.000708608
3.78764e-05
-0.000675263
-0.00250971
-0.000351625
-0.000378481
-0.000177396
-0.000392176
8.04719e-05
-6.88756e-05
-0.000163439
-0.000274398
-0.000162855
-0.000531083
-0.000221356
-0.000188304
-0.00016132
-0.000568169
-0.000395207
0.000187193
0.000761983
0.00118142
0.00108065
0.000244835
0.000560099
0.000228536
0.000216612
-0.00167655
-0.00236062
-0.000997273
-0.000674474
-0.000107686
-0.000275126
0.00011585
0.000461461
0.000314533
6.33479e-05
0.000383463
0.000412084
0.000614411
0.000679445
0.000207892
0.000271099
-0.000943075
0.000162695
0.000156125
0.000389192
0.000418859
0.000367901
0.000452536
0.000286711
6.20773e-05
0.00026471
-0.000221829
3.98361e-05
7.84547e-05
-4.59766e-05
-0.000147869
-5.64792e-05
0.00046474
0.000635004
0.000933097
0.00114653
0.000754416
0.000716517
0.000714566
0.000432026
-0.000123898
-0.000605291
-9.95218e-05
-5.93988e-05
3.66542e-05
-0.000241196
1.12385e-05
0.000197777
0.000150857
6.22349e-05
0.000253359
0.000196052
0.000340862
0.00046458
0.000244225
0.000238815
-0.000537923
-6.88551e-05
6.052e-05
9.91499e-05
0.000139284
0.000129856
0.000163667
3.35413e-05
-7.42601e-05
4.48248e-05
-0.000198644
-8.26938e-05
-7.05138e-05
-8.69237e-05
-9.34534e-05
-2.99218e-05
0.000220267
0.000396679
0.000578787
0.000681015
0.000460615
0.00036855
0.000304268
0.00013994
-0.000308867
-0.000574539
-0.000376957
-0.000303648
-0.000145667
0.000112425
0.000194723
0.000330543
0.000388748
0.000364169
0.000427228
0.000410527
0.000497631
0.000559112
0.000473671
0.000495743
0.000233758
0.000362495
0.000426827
0.000481776
0.000499447
0.000439791
0.000426392
0.000360891
0.000243556
0.000265756
0.000160366
0.000163156
0.000179651
0.000138339
0.00015657
0.000216423
0.000379522
0.000487219
0.000573724
0.000661057
0.000604327
0.000522751
0.000461408
0.000350826
0.00022049
5.27182e-05
0.000124546
0.000115411
0.000110611
-0.000259184
-0.000196525
-0.000128512
-8.8888e-05
-8.15578e-05
-1.2431e-05
1.96171e-05
9.59596e-05
0.000138448
0.000101419
7.91204e-05
-4.4401e-05
1.07474e-05
2.44278e-05
1.32628e-05
1.34893e-05
-1.58875e-05
-2.89381e-05
-7.63795e-05
-0.000142004
-0.000161349
-0.000227458
-0.000229794
-0.000226873
-0.000223863
-0.000190952
-0.000143679
-5.91689e-05
2.88192e-05
9.45918e-05
0.000132662
8.66973e-05
2.11906e-05
-5.08005e-05
-0.000137459
-0.000253541
-0.000364447
-0.000335804
-0.000311262
-0.000280824
0.000257281
0.000291818
0.000341402
0.00038951
0.000424642
0.000467308
0.00050241
0.000542654
0.000571942
0.000571838
0.000571438
0.000538285
0.00053821
0.00054485
0.000542609
0.000528928
0.000491755
0.000446665
0.000399808
0.000341598
0.00030545
0.00027699
0.000261447
0.00025726
0.000259227
0.000280124
0.000326086
0.000381098
0.00043413
0.000466601
0.000489218
0.000475678
0.000447264
0.000409265
0.000359608
0.000310896
0.000255905
0.000244013
0.000241388
0.000243262
-4.00442e-05
-1.99421e-05
1.26666e-05
5.3955e-05
9.57515e-05
0.000144458
0.000192239
0.000227693
0.000247991
0.000251038
0.000246672
0.000235253
0.000233111
0.000230262
0.000217225
0.00019454
0.000160951
0.000124585
8.0022e-05
3.01113e-05
-9.97247e-06
-4.85773e-05
-7.05743e-05
-7.97251e-05
-8.05297e-05
-7.04837e-05
-5.34904e-05
-3.19262e-05
-5.20351e-06