/*--------------------------------*- C++ -*----------------------------------*\
  =========                 |
  \\      /  F ield         | OpenFOAM: The Open Source CFD Toolbox
   \\    /   O peration     | Website:  https://openfoam.org
    \\  /    A nd           | Version:  10
     \\/     M anipulation  |
\*---------------------------------------------------------------------------*/
FoamFile
{
    format      ascii;
    class       volVectorField;
    location    "27.5";
    object      U_0;
}
// * * * * * * * * * * * * * * * * * * * * * * * * * * * * * * * * * * * * * //

dimensions      [0 1 -1 0 0 0 0];

internalField   nonuniform List<vector> 
25600
(
(0.019236 -1.66562e-08 -1.85545e-06)
(0.0192351 1.82832e-08 -1.39681e-06)
(0.0192356 -1.7501e-08 -1.65294e-06)
(0.0192352 -2.83509e-09 -1.22005e-06)
(0.0192349 2.01262e-08 -1.10843e-06)
(0.0192351 -4.27135e-08 -9.15414e-07)
(0.0192347 4.07545e-08 -6.98835e-07)
(0.0192342 -3.07738e-08 -4.03158e-07)
(0.0192348 -7.80781e-10 -3.08937e-07)
(0.0192335 2.32632e-08 1.05573e-08)
(0.0192345 -4.17658e-08 2.11375e-07)
(0.0192335 3.46583e-08 2.56105e-07)
(0.0192337 -1.86611e-08 6.53346e-07)
(0.0192336 -5.11114e-09 5.59196e-07)
(0.0192334 1.73998e-08 8.23277e-07)
(0.0192332 -1.77812e-08 7.98453e-07)
(0.0192336 9.73821e-09 9.42773e-07)
(0.0192329 2.43261e-09 8.28167e-07)
(0.0192337 -8.02567e-09 9.13907e-07)
(0.019233 1.62095e-08 8.21631e-07)
(0.0192338 -1.29552e-08 6.27201e-07)
(0.0192333 1.16463e-08 7.79043e-07)
(0.0192337 6.77137e-09 2.49492e-07)
(0.0192339 -1.74926e-08 4.47369e-07)
(0.0192339 3.33354e-08 8.69048e-08)
(0.019234 -2.29238e-08 -2.49049e-07)
(0.0192348 9.85454e-09 -7.97521e-09)
(0.0192339 1.99688e-08 -8.62772e-07)
(0.0192352 -2.88143e-08 -4.61667e-07)
(0.0192346 3.10702e-08 -1.0166e-06)
(0.019235 -8.81084e-09 -1.32242e-06)
(0.0192353 -6.56933e-09 -9.11777e-07)
(0.0192354 1.97833e-08 -1.99306e-06)
(0.0192353 -1.4347e-08 -1.20942e-06)
(0.0192359 6.93475e-09 -1.89927e-06)
(0.0192353 2.57587e-09 -1.97908e-06)
(0.0192359 -4.10292e-09 -1.48975e-06)
(0.0192355 1.71779e-09 -2.32792e-06)
(0.0192359 -2.65002e-09 -1.55461e-06)
(0.0192353 6.00632e-09 -1.91386e-06)
(0.0588509 -6.36339e-08 -5.14349e-06)
(0.0588485 6.72175e-08 -4.32932e-06)
(0.0588501 -9.09911e-08 -4.67666e-06)
(0.0588482 1.36897e-08 -3.47818e-06)
(0.0588483 4.89528e-08 -3.22233e-06)
(0.0588479 -1.57465e-07 -2.52103e-06)
(0.0588471 1.73065e-07 -1.89552e-06)
(0.0588462 -1.50015e-07 -1.09463e-06)
(0.0588469 3.93504e-08 -7.0559e-07)
(0.058844 7.0955e-08 1.9748e-07)
(0.0588462 -1.54187e-07 6.79764e-07)
(0.0588433 1.67339e-07 1.02735e-06)
(0.0588444 -9.51819e-08 1.939e-06)
(0.0588434 1.52782e-08 1.80293e-06)
(0.0588433 7.81408e-08 2.50811e-06)
(0.0588425 -6.83473e-08 2.41584e-06)
(0.0588435 6.66507e-08 2.79784e-06)
(0.0588418 1.31656e-08 2.46617e-06)
(0.0588437 -1.13204e-08 2.68856e-06)
(0.0588419 7.26748e-08 2.29624e-06)
(0.0588441 -4.06047e-08 1.92339e-06)
(0.0588426 7.05664e-08 2.00576e-06)
(0.0588443 1.63349e-08 7.66732e-07)
(0.0588441 -4.25493e-08 1.13234e-06)
(0.0588447 1.38031e-07 -3.53329e-08)
(0.058845 -1.06604e-07 -6.40328e-07)
(0.0588467 7.81963e-08 -5.48927e-07)
(0.0588451 5.38065e-08 -2.47594e-06)
(0.0588484 -1.11465e-07 -1.6412e-06)
(0.0588466 1.43631e-07 -3.37023e-06)
(0.0588485 -6.82203e-08 -3.69458e-06)
(0.0588485 -8.07929e-09 -3.37794e-06)
(0.0588493 6.82288e-08 -5.6293e-06)
(0.058849 -7.12086e-08 -3.87411e-06)
(0.0588506 2.93062e-08 -5.91818e-06)
(0.0588491 -1.6768e-09 -5.50573e-06)
(0.0588509 -2.67987e-08 -4.97951e-06)
(0.0588496 -2.30683e-09 -6.55913e-06)
(0.0588508 -1.05544e-08 -4.71058e-06)
(0.0588492 7.77279e-10 -5.80837e-06)
(0.100974 -1.40173e-07 -8.38069e-06)
(0.10097 1.24507e-07 -7.48871e-06)
(0.100973 -2.16325e-07 -7.62745e-06)
(0.10097 4.14111e-08 -5.85386e-06)
(0.10097 6.212e-08 -5.40554e-06)
(0.100969 -3.21281e-07 -4.16153e-06)
(0.100968 3.62055e-07 -3.15995e-06)
(0.100966 -3.48945e-07 -1.86166e-06)
(0.100967 1.25949e-07 -1.11647e-06)
(0.100963 1.12194e-07 3.18305e-07)
(0.100966 -3.02637e-07 1.08406e-06)
(0.100961 3.73026e-07 1.83001e-06)
(0.100963 -2.2413e-07 3.12023e-06)
(0.100961 8.18544e-08 3.08266e-06)
(0.100961 1.61264e-07 4.14967e-06)
(0.10096 -1.28049e-07 4.04091e-06)
(0.100961 1.74418e-07 4.63184e-06)
(0.100959 3.45191e-08 4.12837e-06)
(0.100962 8.06153e-09 4.45843e-06)
(0.100959 1.70018e-07 3.76177e-06)
(0.100962 -6.44007e-08 3.29604e-06)
(0.10096 1.80583e-07 3.13943e-06)
(0.100963 3.66427e-08 1.42176e-06)
(0.100962 -5.0773e-08 1.74122e-06)
(0.100964 2.99741e-07 -1.35683e-07)
(0.100964 -2.22942e-07 -9.21708e-07)
(0.100966 2.10292e-07 -1.26506e-06)
(0.100964 8.84919e-08 -3.875e-06)
(0.100969 -2.10361e-07 -2.97361e-06)
(0.100967 3.17117e-07 -5.69468e-06)
(0.10097 -1.71633e-07 -5.94108e-06)
(0.10097 1.2454e-08 -6.13045e-06)
(0.100971 1.23642e-07 -8.95604e-06)
(0.100971 -1.57446e-07 -6.81153e-06)
(0.100973 6.31034e-08 -9.8951e-06)
(0.100971 -2.35832e-08 -8.93148e-06)
(0.100974 -6.6838e-08 -8.78687e-06)
(0.100972 -1.73369e-08 -1.05354e-05)
(0.100974 -3.48166e-08 -8.11779e-06)
(0.100971 -2.29717e-08 -9.71783e-06)
(0.145795 -2.44171e-07 -1.1765e-05)
(0.14579 1.77354e-07 -1.08705e-05)
(0.145794 -3.85689e-07 -1.06977e-05)
(0.145788 7.37316e-08 -8.53244e-06)
(0.14579 5.22781e-08 -7.82118e-06)
(0.145787 -5.16806e-07 -6.08651e-06)
(0.145787 5.83367e-07 -4.73172e-06)
(0.145784 -6.05198e-07 -2.93135e-06)
(0.145785 2.51669e-07 -1.81288e-06)
(0.14578 1.42459e-07 1.27983e-07)
(0.145783 -4.63552e-07 1.21673e-06)
(0.145777 6.31423e-07 2.3953e-06)
(0.14578 -3.84499e-07 4.04245e-06)
(0.145775 1.96327e-07 4.21047e-06)
(0.145777 2.64136e-07 5.60748e-06)
(0.145774 -1.79414e-07 5.57522e-06)
(0.145776 3.3002e-07 6.37776e-06)
(0.145772 7.5239e-08 5.78824e-06)
(0.145776 5.89143e-08 6.22854e-06)
(0.145772 3.06615e-07 5.29822e-06)
(0.145777 -7.0564e-08 4.78302e-06)
(0.145773 3.39596e-07 4.37428e-06)
(0.145778 7.25881e-08 2.31811e-06)
(0.145776 -3.09242e-08 2.47557e-06)
(0.145779 5.06515e-07 4.58914e-08)
(0.145779 -3.53037e-07 -9.59148e-07)
(0.145783 3.98021e-07 -1.78425e-06)
(0.145781 1.21224e-07 -4.90397e-06)
(0.145787 -3.10554e-07 -4.16817e-06)
(0.145783 5.32779e-07 -7.66584e-06)
(0.145789 -3.08542e-07 -7.96375e-06)
(0.145787 5.06171e-08 -8.74791e-06)
(0.145791 1.76592e-07 -1.19128e-05)
(0.145789 -2.66596e-07 -9.78036e-06)
(0.145793 9.82665e-08 -1.35877e-05)
(0.14579 -6.47408e-08 -1.23095e-05)
(0.145795 -1.27588e-07 -1.26215e-05)
(0.145792 -4.78751e-08 -1.43454e-05)
(0.145795 -7.8184e-08 -1.17323e-05)
(0.145791 -7.11563e-08 -1.35981e-05)
(0.193395 -3.80339e-07 -1.53676e-05)
(0.193388 2.24992e-07 -1.44727e-05)
(0.193393 -6.00838e-07 -1.40667e-05)
(0.193386 1.07406e-07 -1.16458e-05)
(0.193389 1.92314e-08 -1.06629e-05)
(0.193385 -7.46633e-07 -8.53512e-06)
(0.193385 8.36296e-07 -6.85965e-06)
(0.193381 -9.19115e-07 -4.57103e-06)
(0.193381 4.16e-07 -3.09374e-06)
(0.193376 1.60944e-07 -6.48742e-07)
(0.193379 -6.35366e-07 7.9858e-07)
(0.193371 9.41743e-07 2.42272e-06)
(0.193375 -5.73392e-07 4.48577e-06)
(0.193369 3.6165e-07 4.93285e-06)
(0.193371 3.85795e-07 6.69574e-06)
(0.193367 -2.16608e-07 6.85271e-06)
(0.19337 5.352e-07 7.91834e-06)
(0.193365 1.37126e-07 7.36514e-06)
(0.19337 1.45056e-07 7.96903e-06)
(0.193364 4.86463e-07 6.93084e-06)
(0.193371 -5.58772e-08 6.41799e-06)
(0.193365 5.51394e-07 5.86089e-06)
(0.193372 1.27985e-07 3.55673e-06)
(0.193369 1.95864e-08 3.55748e-06)
(0.193373 7.61656e-07 7.27092e-07)
(0.193373 -4.92611e-07 -5.37233e-07)
(0.193377 6.42121e-07 -1.75545e-06)
(0.193375 1.54976e-07 -5.35673e-06)
(0.193382 -4.0918e-07 -4.85578e-06)
(0.193378 7.90069e-07 -8.98727e-06)
(0.193386 -4.76885e-07 -9.50428e-06)
(0.193383 1.07362e-07 -1.08285e-05)
(0.193388 2.26659e-07 -1.43496e-05)
(0.193387 -3.99035e-07 -1.24199e-05)
(0.193392 1.3456e-07 -1.67933e-05)
(0.193388 -1.27802e-07 -1.55022e-05)
(0.193394 -2.09403e-07 -1.62104e-05)
(0.19339 -9.5205e-08 -1.80028e-05)
(0.193394 -1.44507e-07 -1.53953e-05)
(0.19339 -1.4264e-07 -1.74478e-05)
(0.243849 -5.53557e-07 -1.911e-05)
(0.243841 2.71924e-07 -1.82575e-05)
(0.243848 -8.68028e-07 -1.78163e-05)
(0.243839 1.43571e-07 -1.5252e-05)
(0.243844 -3.73132e-08 -1.40942e-05)
(0.243837 -1.01904e-06 -1.16836e-05)
(0.243838 1.12822e-06 -9.77327e-06)
(0.243834 -1.30287e-06 -7.04225e-06)
(0.243834 6.23e-07 -5.25442e-06)
(0.243828 1.65037e-07 -2.30848e-06)
(0.24383 -8.25153e-07 -4.87806e-07)
(0.243821 1.30951e-06 1.57626e-06)
(0.243826 -7.98989e-07 4.15903e-06)
(0.243818 5.8103e-07 4.93273e-06)
(0.243821 5.23765e-07 7.15244e-06)
(0.243815 -2.40325e-07 7.62046e-06)
(0.243819 7.9188e-07 9.05153e-06)
(0.243812 2.19694e-07 8.68639e-06)
(0.243818 2.67994e-07 9.56536e-06)
(0.243811 7.13126e-07 8.59317e-06)
(0.243819 -2.09837e-08 8.16867e-06)
(0.243812 8.22233e-07 7.65534e-06)
(0.24382 2.04525e-07 5.19556e-06)
(0.243815 1.03002e-07 5.15084e-06)
(0.243822 1.07349e-06 2.06806e-06)
(0.24382 -6.43433e-07 5.63463e-07)
(0.243826 9.50752e-07 -8.82988e-07)
(0.243824 1.92226e-07 -4.99184e-06)
(0.243832 -5.05133e-07 -4.66974e-06)
(0.243828 1.09837e-06 -9.36041e-06)
(0.243837 -6.7804e-07 -1.02049e-05)
(0.243833 1.88628e-07 -1.19912e-05)
(0.24384 2.77756e-07 -1.59966e-05)
(0.243838 -5.54649e-07 -1.4314e-05)
(0.243845 1.77738e-07 -1.92639e-05)
(0.243841 -2.13844e-07 -1.82058e-05)
(0.243848 -3.08943e-07 -1.92727e-05)
(0.243843 -1.58689e-07 -2.13703e-05)
(0.243849 -2.34357e-07 -1.88579e-05)
(0.243843 -2.34493e-07 -2.12083e-05)
(0.297204 -7.64658e-07 -2.27326e-05)
(0.297195 3.25692e-07 -2.20563e-05)
(0.297203 -1.19247e-06 -2.18477e-05)
(0.297192 1.87414e-07 -1.92665e-05)
(0.297199 -1.17727e-07 -1.81528e-05)
(0.29719 -1.34157e-06 -1.55718e-05)
(0.297192 1.46844e-06 -1.3605e-05)
(0.297187 -1.77288e-06 -1.05248e-05)
(0.297186 8.78681e-07 -8.52649e-06)
(0.29718 1.48357e-07 -5.12286e-06)
(0.297182 -1.04217e-06 -2.94022e-06)
(0.297172 1.73969e-06 -4.96387e-07)
(0.297177 -1.07632e-06 2.72143e-06)
(0.297166 8.56213e-07 3.84006e-06)
(0.297171 6.70977e-07 6.62265e-06)
(0.297162 -2.567e-07 7.52609e-06)
(0.297167 1.09858e-06 9.45408e-06)
(0.297159 3.17859e-07 9.44706e-06)
(0.297165 4.2548e-07 1.07589e-05)
(0.297157 9.86233e-07 1.00733e-05)
(0.297166 3.0082e-08 9.86174e-06)
(0.297157 1.1564e-06 9.6491e-06)
(0.297167 3.0032e-07 7.17355e-06)
(0.297161 2.21073e-07 7.27367e-06)
(0.297169 1.44954e-06 4.11715e-06)
(0.297166 -8.09217e-07 2.46267e-06)
(0.297173 1.33566e-06 1.0213e-06)
(0.297171 2.34718e-07 -3.59598e-06)
(0.29718 -5.95296e-07 -3.32099e-06)
(0.297175 1.47124e-06 -8.5034e-06)
(0.297186 -9.13208e-07 -9.68511e-06)
(0.297182 3.06112e-07 -1.18723e-05)
(0.297191 3.35723e-07 -1.64857e-05)
(0.297188 -7.29325e-07 -1.50192e-05)
(0.297196 2.38477e-07 -2.06555e-05)
(0.297192 -3.20471e-07 -1.9977e-05)
(0.2972 -4.18056e-07 -2.14547e-05)
(0.297195 -2.3407e-07 -2.4123e-05)
(0.297202 -3.43564e-07 -2.17517e-05)
(0.297196 -3.40455e-07 -2.46611e-05)
(0.35346 -1.00769e-06 -2.57646e-05)
(0.35345 3.97803e-07 -2.54664e-05)
(0.353461 -1.57494e-06 -2.58169e-05)
(0.353448 2.49518e-07 -2.33579e-05)
(0.353457 -2.21445e-07 -2.26431e-05)
(0.353446 -1.71867e-06 -2.00095e-05)
(0.35345 1.86916e-06 -1.82676e-05)
(0.353443 -2.34647e-06 -1.50101e-05)
(0.353443 1.19081e-06 -1.29681e-05)
(0.353436 1.02131e-07 -9.24567e-06)
(0.353438 -1.29925e-06 -6.73622e-06)
(0.353427 2.23567e-06 -4.08671e-06)
(0.353432 -1.42554e-06 -1.49796e-07)
(0.353419 1.18677e-06 1.28819e-06)
(0.353426 8.15857e-07 4.69015e-06)
(0.353414 -2.76277e-07 6.14099e-06)
(0.35342 1.44932e-06 8.68079e-06)
(0.35341 4.20817e-07 9.20042e-06)
(0.353417 6.09687e-07 1.11094e-05)
(0.353407 1.2997e-06 1.09672e-05)
(0.353416 8.79863e-08 1.11245e-05)
(0.353405 1.55336e-06 1.14938e-05)
(0.353417 4.08287e-07 9.22064e-06)
(0.353408 3.72617e-07 9.7045e-06)
(0.353418 1.89375e-06 6.72136e-06)
(0.353414 -9.97038e-07 5.06423e-06)
(0.353421 1.80981e-06 3.93861e-06)
(0.35342 2.83095e-07 -1.09132e-06)
(0.353429 -6.75528e-07 -6.89363e-07)
(0.353424 1.92374e-06 -6.24759e-06)
(0.353437 -1.18388e-06 -7.64197e-06)
(0.353432 4.7655e-07 -1.01769e-05)
(0.353443 4.09033e-07 -1.54386e-05)
(0.353439 -9.1484e-07 -1.40985e-05)
(0.353449 3.32978e-07 -2.05662e-05)
(0.353444 -4.41197e-07 -2.02729e-05)
(0.353455 -5.23391e-07 -2.22962e-05)
(0.353449 -3.1089e-07 -2.57714e-05)
(0.353458 -4.62943e-07 -2.35452e-05)
(0.353451 -4.49553e-07 -2.73714e-05)
(0.412567 -1.26735e-06 -2.75328e-05)
(0.412556 5.04229e-07 -2.7792e-05)
(0.412568 -2.00979e-06 -2.91106e-05)
(0.412554 3.48373e-07 -2.68539e-05)
(0.412566 -3.43339e-07 -2.7037e-05)
(0.412553 -2.14916e-06 -2.44849e-05)
(0.412559 2.34861e-06 -2.33077e-05)
(0.41255 -3.03805e-06 -2.01742e-05)
(0.412551 1.57007e-06 -1.83031e-05)
(0.412543 2.12819e-08 -1.45708e-05)
(0.412545 -1.60645e-06 -1.17838e-05)
(0.412533 2.80085e-06 -9.26474e-06)
(0.41254 -1.86901e-06 -4.62992e-06)
(0.412524 1.57094e-06 -2.9487e-06)
(0.412532 9.40582e-07 9.90796e-07)
(0.412517 -3.14236e-07 3.05797e-06)
(0.412524 1.83376e-06 6.24062e-06)
(0.412512 5.11808e-07 7.41824e-06)
(0.412519 8.06173e-07 1.00311e-05)
(0.412507 1.64096e-06 1.06729e-05)
(0.412518 1.37014e-07 1.1387e-05)
(0.412505 2.00532e-06 1.25618e-05)
(0.412518 5.14673e-07 1.07916e-05)
(0.412507 5.50397e-07 1.19075e-05)
(0.412518 2.40402e-06 9.42575e-06)
(0.412513 -1.22042e-06 7.96043e-06)
(0.41252 2.38352e-06 7.50037e-06)
(0.412518 3.29616e-07 2.32373e-06)
(0.412528 -7.42772e-07 3.06971e-06)
(0.412523 2.47025e-06 -2.71145e-06)
(0.412537 -1.49546e-06 -3.98186e-06)
(0.412531 7.19564e-07 -6.80768e-06)
(0.412544 5.07441e-07 -1.26299e-05)
(0.412539 -1.10185e-06 -1.11946e-05)
(0.412552 4.82592e-07 -1.86826e-05)
(0.412546 -5.6657e-07 -1.8547e-05)
(0.412559 -6.08282e-07 -2.12711e-05)
(0.412551 -3.71047e-07 -2.57639e-05)
(0.412563 -5.78827e-07 -2.3551e-05)
(0.412555 -5.45952e-07 -2.87051e-05)
(0.474394 -1.51786e-06 -2.72872e-05)
(0.474383 6.6489e-07 -2.80928e-05)
(0.474398 -2.48569e-06 -3.09155e-05)
(0.474382 5.12775e-07 -2.87527e-05)
(0.474397 -4.72616e-07 -3.04223e-05)
(0.474382 -2.62432e-06 -2.81425e-05)
(0.474391 2.93353e-06 -2.77973e-05)
(0.474381 -3.85367e-06 -2.5277e-05)
(0.474383 2.03125e-06 -2.3756e-05)
(0.474375 -8.93055e-08 -2.05606e-05)
(0.474376 -1.96978e-06 -1.75579e-05)
(0.474364 3.44315e-06 -1.56375e-05)
(0.474371 -2.42367e-06 -1.05557e-05)
(0.474353 2.00652e-06 -8.72809e-06)
(0.474363 1.03241e-06 -4.56719e-06)
(0.474346 -3.89253e-07 -1.90432e-06)
(0.474354 2.23869e-06 1.79471e-06)
(0.474339 5.72542e-07 3.65915e-06)
(0.474347 9.95188e-07 6.98016e-06)
(0.474333 1.99203e-06 8.48144e-06)
(0.474344 1.57168e-07 9.99825e-06)
(0.474328 2.49551e-06 1.2024e-05)
(0.474342 5.99502e-07 1.10881e-05)
(0.474328 7.38919e-07 1.3048e-05)
(0.474341 2.96961e-06 1.14073e-05)
(0.474334 -1.50048e-06 1.04226e-05)
(0.474341 3.05992e-06 1.08734e-05)
(0.474339 3.57185e-07 6.01437e-06)
(0.474349 -8.00838e-07 7.44984e-06)
(0.474343 3.12287e-06 1.48384e-06)
(0.474358 -1.86327e-06 1.01276e-06)
(0.474351 1.05323e-06 -2.03663e-06)
(0.474366 6.32534e-07 -8.2569e-06)
(0.47436 -1.28725e-06 -6.15494e-06)
(0.474375 7.10729e-07 -1.50254e-05)
(0.474368 -6.87321e-07 -1.44688e-05)
(0.474383 -6.57749e-07 -1.79209e-05)
(0.474375 -3.89598e-07 -2.37046e-05)
(0.474389 -6.74424e-07 -2.10648e-05)
(0.474381 -6.13352e-07 -2.79515e-05)
(0.538715 -1.72596e-06 -2.45098e-05)
(0.538703 9.0098e-07 -2.54189e-05)
(0.538722 -2.99161e-06 -3.04341e-05)
(0.538703 7.81493e-07 -2.79674e-05)
(0.538724 -5.95336e-07 -3.15877e-05)
(0.538705 -3.12742e-06 -2.9929e-05)
(0.538718 3.65729e-06 -3.03718e-05)
(0.538706 -4.786e-06 -2.91885e-05)
(0.53871 2.5929e-06 -2.80128e-05)
(0.538702 -2.11669e-07 -2.61047e-05)
(0.538703 -2.38956e-06 -2.30346e-05)
(0.538692 4.17462e-06 -2.21066e-05)
(0.538699 -3.08731e-06 -1.72237e-05)
(0.53868 2.49417e-06 -1.52877e-05)
(0.538691 1.08974e-06 -1.14982e-05)
(0.538671 -5.08598e-07 -8.41317e-06)
(0.538681 2.65178e-06 -4.49641e-06)
(0.538663 5.93066e-07 -2.17324e-06)
(0.538672 1.15862e-06 1.8417e-06)
(0.538656 2.33217e-06 3.84355e-06)
(0.538667 1.32939e-07 6.48661e-06)
(0.538649 2.99873e-06 9.14233e-06)
(0.538665 6.41619e-07 9.24071e-06)
(0.538647 9.1738e-07 1.22298e-05)
(0.538661 3.5688e-06 1.15226e-05)
(0.538652 -1.86436e-06 1.15473e-05)
(0.538659 3.83158e-06 1.28552e-05)
(0.538657 3.38682e-07 8.7766e-06)
(0.538665 -8.65221e-07 1.16513e-05)
(0.538659 3.88554e-06 5.08427e-06)
(0.538674 -2.31523e-06 6.50253e-06)
(0.538666 1.48741e-06 3.42359e-06)
(0.538682 7.83124e-07 -3.28966e-06)
(0.538675 -1.48091e-06 8.02914e-07)
(0.538692 1.03743e-06 -1.01897e-05)
(0.538683 -7.97648e-07 -8.30679e-06)
(0.538702 -6.68949e-07 -1.20771e-05)
(0.538692 -3.41328e-07 -1.96737e-05)
(0.538708 -7.32354e-07 -1.56968e-05)
(0.5387 -6.4436e-07 -2.45797e-05)
(0.605171 -1.86194e-06 -1.93725e-05)
(0.605158 1.22913e-06 -1.92793e-05)
(0.605181 -3.52825e-06 -2.72462e-05)
(0.605158 1.19775e-06 -2.38694e-05)
(0.605186 -7.04366e-07 -2.93534e-05)
(0.605162 -3.63616e-06 -2.89933e-05)
(0.605181 4.55057e-06 -2.95553e-05)
(0.605167 -5.81474e-06 -3.06469e-05)
(0.605173 3.27405e-06 -2.9528e-05)
(0.605168 -3.19507e-07 -2.95298e-05)
(0.605166 -2.84673e-06 -2.68918e-05)
(0.605158 5.00132e-06 -2.68292e-05)
(0.605164 -3.83378e-06 -2.33011e-05)
(0.605145 3.04545e-06 -2.11614e-05)
(0.605158 1.11533e-06 -1.84692e-05)
(0.605135 -6.58183e-07 -1.54347e-05)
(0.605147 3.06722e-06 -1.1525e-05)
(0.605128 5.77414e-07 -9.57396e-06)
(0.605137 1.29414e-06 -4.61295e-06)
(0.605119 2.63926e-06 -3.12401e-06)
(0.60513 6.96137e-08 9.01477e-07)
(0.60511 3.48641e-06 3.82783e-06)
(0.605127 6.26156e-07 4.65705e-06)
(0.605105 1.07321e-06 9.05695e-06)
(0.605121 4.16791e-06 8.62589e-06)
(0.60511 -2.32968e-06 1.0523e-05)
(0.605115 4.68113e-06 1.2428e-05)
(0.605113 2.41861e-07 8.86961e-06)
(0.60512 -9.59031e-07 1.48409e-05)
(0.605114 4.7499e-06 6.43288e-06)
(0.605128 -2.89265e-06 1.09353e-05)
(0.605119 2.01565e-06 8.66792e-06)
(0.605136 9.54465e-07 3.02201e-07)
(0.605126 -1.71358e-06 8.90449e-06)
(0.605147 1.46893e-06 -5.3543e-06)
(0.605133 -8.97774e-07 -1.36126e-06)
(0.605156 -6.61384e-07 -4.12257e-06)
(0.605145 -2.13782e-07 -1.45309e-05)
(0.605162 -7.38609e-07 -7.83716e-06)
(0.605155 -6.52005e-07 -1.86095e-05)
(0.673234 -1.91016e-06 -1.31366e-05)
(0.673219 1.65229e-06 -1.02174e-05)
(0.673249 -4.12254e-06 -2.17078e-05)
(0.67322 1.80183e-06 -1.6997e-05)
(0.673256 -8.17348e-07 -2.31516e-05)
(0.673226 -4.12917e-06 -2.53124e-05)
(0.673252 5.62409e-06 -2.44609e-05)
(0.673236 -6.91877e-06 -2.87105e-05)
(0.673242 4.08923e-06 -2.73822e-05)
(0.673242 -4.03591e-07 -2.89159e-05)
(0.673236 -3.28156e-06 -2.80796e-05)
(0.673234 5.91999e-06 -2.77052e-05)
(0.673239 -4.62458e-06 -2.69893e-05)
(0.673219 3.6845e-06 -2.46196e-05)
(0.673235 1.11521e-06 -2.32123e-05)
(0.67321 -7.98292e-07 -2.1492e-05)
(0.673224 3.4906e-06 -1.70007e-05)
(0.673204 5.38148e-07 -1.7252e-05)
(0.673213 1.43717e-06 -1.06587e-05)
(0.673195 2.88622e-06 -1.0993e-05)
(0.673206 9.34208e-09 -5.96554e-06)
(0.673183 3.93828e-06 -2.67825e-06)
(0.673203 5.44907e-07 -2.57056e-06)
(0.673176 1.23314e-06 4.30617e-06)
(0.673193 4.71563e-06 2.40417e-06)
(0.67318 -2.88236e-06 6.82461e-06)
(0.673184 5.59204e-06 9.80981e-06)
(0.673182 3.6561e-08 4.50843e-06)
(0.673186 -1.09704e-06 1.65009e-05)
(0.673181 5.70325e-06 4.42945e-06)
(0.673192 -3.63116e-06 1.20382e-05)
(0.673183 2.61727e-06 1.325e-05)
(0.6732 1.13891e-06 -6.65111e-08)
(0.673186 -2.03257e-06 1.66785e-05)
(0.673211 1.99022e-06 -1.82253e-06)
(0.673193 -9.90255e-07 3.92683e-06)
(0.673219 -6.74291e-07 4.88492e-06)
(0.673206 -1.09327e-08 -9.98905e-06)
(0.673223 -6.86477e-07 1.03619e-06)
(0.673218 -6.76781e-07 -1.09392e-05)
(0.74216 -1.86318e-06 -8.17053e-06)
(0.74214 2.16269e-06 -5.55227e-08)
(0.742178 -4.84192e-06 -1.50614e-05)
(0.74214 2.63341e-06 -9.54133e-06)
(0.742187 -9.92078e-07 -1.35343e-05)
(0.742149 -4.59464e-06 -2.01686e-05)
(0.742183 6.85925e-06 -1.58341e-05)
(0.742166 -8.09978e-06 -2.30419e-05)
(0.742169 5.04511e-06 -2.2545e-05)
(0.742179 -4.92886e-07 -2.28481e-05)
(0.742165 -3.64563e-06 -2.64821e-05)
(0.74217 6.90228e-06 -2.37315e-05)
(0.742174 -5.43659e-06 -2.63399e-05)
(0.742154 4.43661e-06 -2.49679e-05)
(0.742175 1.0846e-06 -2.29029e-05)
(0.742147 -8.94951e-07 -2.53961e-05)
(0.742164 3.94568e-06 -1.8265e-05)
(0.742144 4.66623e-07 -2.29576e-05)
(0.742152 1.66574e-06 -1.4503e-05)
(0.742135 3.02917e-06 -1.67642e-05)
(0.742147 2.7847e-08 -1.27563e-05)
(0.74212 4.36265e-06 -7.56962e-06)
(0.742145 3.66215e-07 -1.12841e-05)
(0.742113 1.50473e-06 -1.10893e-07)
(0.742132 5.13299e-06 -5.31815e-06)
(0.742117 -3.46924e-06 1.92346e-07)
(0.742118 6.57712e-06 7.28807e-06)
(0.742119 -3.14614e-07 -4.84616e-06)
(0.742117 -1.24708e-06 1.64302e-05)
(0.742115 6.72445e-06 1.83424e-07)
(0.742122 -4.54196e-06 7.28432e-06)
(0.742112 3.275e-06 1.7859e-05)
(0.742131 1.34584e-06 -6.18343e-06)
(0.74211 -2.47205e-06 2.21109e-05)
(0.742142 2.56717e-06 -2.9206e-08)
(0.742115 -1.0667e-06 4.53504e-06)
(0.742145 -7.5858e-07 1.36674e-05)
(0.742132 2.42595e-07 -8.22084e-06)
(0.742146 -5.64459e-07 8.5752e-06)
(0.742142 -7.89713e-07 -3.14244e-06)
(0.810924 -1.72255e-06 -7.15076e-06)
(0.810896 2.78747e-06 8.47722e-06)
(0.810944 -5.79298e-06 -8.52923e-06)
(0.810895 3.74176e-06 -5.10694e-06)
(0.810953 -1.30255e-06 -2.25047e-06)
(0.810907 -5.04463e-06 -1.53841e-05)
(0.810945 8.2181e-06 -7.19349e-06)
(0.810933 -9.37506e-06 -1.35171e-05)
(0.810927 6.11728e-06 -1.84071e-05)
(0.810951 -6.3559e-07 -1.1862e-05)
(0.810927 -3.93703e-06 -2.2475e-05)
(0.81094 7.8786e-06 -1.72102e-05)
(0.810944 -6.25644e-06 -1.93974e-05)
(0.810923 5.26384e-06 -2.39576e-05)
(0.810948 1.02046e-06 -1.58205e-05)
(0.810919 -9.63935e-07 -2.63129e-05)
(0.810937 4.46396e-06 -1.48736e-05)
(0.81092 2.9907e-07 -2.35913e-05)
(0.810927 2.06355e-06 -1.57683e-05)
(0.810911 2.99352e-06 -1.69842e-05)
(0.810926 1.69642e-07 -1.8076e-05)
(0.810894 4.83272e-06 -7.74039e-06)
(0.810925 -3.17962e-08 -1.89227e-05)
(0.810887 2.07613e-06 -2.66117e-06)
(0.81091 5.31999e-06 -9.9827e-06)
(0.810894 -4.04245e-06 -9.27046e-06)
(0.81089 7.72144e-06 8.39087e-06)
(0.810897 -8.84848e-07 -1.66929e-05)
(0.810886 -1.31362e-06 1.40641e-05)
(0.810889 7.80375e-06 -1.77354e-06)
(0.810893 -5.60665e-06 -4.92751e-06)
(0.810878 3.99773e-06 2.42865e-05)
(0.810905 1.58454e-06 -1.69338e-05)
(0.81087 -3.00559e-06 2.29981e-05)
(0.810912 3.15531e-06 2.01173e-06)
(0.810878 -1.07712e-06 -2.17223e-06)
(0.810907 -9.48323e-07 2.18335e-05)
(0.810896 4.94963e-07 -1.04098e-05)
(0.810906 -3.11629e-07 1.20323e-05)
(0.810901 -1.08485e-06 3.88876e-06)
(0.878147 -1.5293e-06 -1.03516e-05)
(0.878106 3.63629e-06 1.19397e-05)
(0.878168 -7.07894e-06 -1.38581e-06)
(0.878105 5.163e-06 -6.49463e-06)
(0.878174 -1.77015e-06 7.23778e-06)
(0.878124 -5.48457e-06 -1.019e-05)
(0.878158 9.60657e-06 -4.77051e-06)
(0.878158 -1.06902e-05 -1.6904e-07)
(0.878137 7.20503e-06 -1.77833e-05)
(0.878177 -8.73524e-07 -1.01378e-06)
(0.878142 -4.10062e-06 -1.43829e-05)
(0.878162 8.66626e-06 -1.47121e-05)
(0.878167 -6.96836e-06 -5.46021e-06)
(0.878145 6.00778e-06 -2.38782e-05)
(0.878174 9.28484e-07 -5.1661e-06)
(0.878146 -1.06318e-06 -2.22938e-05)
(0.878164 5.02291e-06 -1.07176e-05)
(0.87815 -5.42889e-08 -1.70925e-05)
(0.878157 2.67534e-06 -1.55651e-05)
(0.87814 2.71516e-06 -1.06663e-05)
(0.878162 3.29898e-07 -2.08526e-05)
(0.878122 5.51405e-06 -2.60064e-06)
(0.878163 -9.02655e-07 -2.19078e-05)
(0.878119 3.12503e-06 -4.20209e-06)
(0.878142 5.21944e-06 -6.30935e-06)
(0.878132 -4.67706e-06 -2.05686e-05)
(0.878118 9.17013e-06 1.46538e-05)
(0.878137 -1.76773e-06 -2.45795e-05)
(0.878114 -1.22702e-06 7.15038e-06)
(0.878122 8.95166e-06 5.49668e-06)
(0.878127 -6.78067e-06 -2.37195e-05)
(0.8781 4.8015e-06 3.33334e-05)
(0.878142 1.856e-06 -2.59661e-05)
(0.87809 -3.51609e-06 1.61224e-05)
(0.878141 3.69448e-06 9.88076e-06)
(0.878102 -9.32373e-07 -1.67103e-05)
(0.878127 -1.17183e-06 2.92065e-05)
(0.87812 6.57693e-07 -1.34396e-05)
(0.878126 2.25782e-07 8.41003e-06)
(0.878118 -1.60505e-06 1.12458e-05)
(0.942011 -1.44189e-06 -1.1606e-05)
(0.941953 4.87038e-06 7.27474e-06)
(0.942028 -8.65852e-06 7.34862e-06)
(0.941955 6.85039e-06 -9.73847e-06)
(0.942025 -2.34133e-06 8.32035e-06)
(0.941981 -5.74931e-06 3.71692e-07)
(0.942002 1.0808e-05 -1.16764e-05)
(0.942018 -1.18015e-05 1.25164e-05)
(0.941981 8.2565e-06 -1.55177e-05)
(0.942035 -1.34851e-06 -5.06986e-07)
(0.941992 -3.82984e-06 1.3201e-06)
(0.942018 8.89858e-06 -2.01964e-05)
(0.942022 -7.33451e-06 9.54076e-06)
(0.942002 6.54236e-06 -2.12401e-05)
(0.94203 7.53579e-07 -1.01365e-07)
(0.942006 -1.18456e-06 -1.15211e-05)
(0.942023 5.55864e-06 -9.86262e-06)
(0.94201 -6.71503e-07 -6.39628e-06)
(0.942022 3.4273e-06 -1.44393e-05)
(0.942 2.27504e-06 -9.83202e-07)
(0.942032 1.98332e-07 -2.08451e-05)
(0.941984 6.63929e-06 4.34022e-06)
(0.942031 -2.48439e-06 -1.72338e-05)
(0.941988 4.59344e-06 -8.38142e-06)
(0.942005 4.91631e-06 7.33686e-06)
(0.942008 -5.57849e-06 -3.04855e-05)
(0.941979 1.09579e-05 2.08752e-05)
(0.942011 -3.01024e-06 -1.90297e-05)
(0.941982 -1.01917e-06 -8.71778e-06)
(0.941985 1.00847e-05 2.55375e-05)
(0.942004 -8.02925e-06 -4.21551e-05)
(0.941956 5.66621e-06 3.8479e-05)
(0.942017 2.05869e-06 -2.06746e-05)
(0.94195 -3.87873e-06 -2.63116e-06)
(0.942005 4.1274e-06 2.74571e-05)
(0.941968 -7.05072e-07 -3.20893e-05)
(0.941984 -1.19822e-06 3.09957e-05)
(0.941982 5.60993e-07 -8.73104e-06)
(0.941986 1.11805e-06 -2.6412e-06)
(0.94197 -2.1707e-06 1.8416e-05)
(1.00015 -1.50579e-06 -4.34451e-06)
(1.00008 6.28596e-06 5.53518e-08)
(1.00016 -1.02474e-05 1.08174e-05)
(1.00009 8.7267e-06 -3.2551e-06)
(1.00015 -3.20712e-06 -1.83503e-06)
(1.00012 -5.39231e-06 1.42929e-05)
(1.00012 1.14832e-05 -1.60977e-05)
(1.00015 -1.25352e-05 1.21032e-05)
(1.0001 9.52978e-06 -1.308e-06)
(1.00017 -2.47202e-06 -1.25957e-05)
(1.00012 -2.5898e-06 1.82753e-05)
(1.00015 8.27225e-06 -2.30356e-05)
(1.00015 -7.16855e-06 1.28037e-05)
(1.00013 6.93556e-06 -9.99811e-06)
(1.00016 4.1654e-07 -3.85368e-06)
(1.00014 -1.20186e-06 8.18975e-07)
(1.00016 6.00125e-06 -9.70294e-06)
(1.00014 -1.44126e-06 2.36841e-06)
(1.00016 4.10748e-06 -1.30116e-05)
(1.00013 1.96082e-06 8.08092e-06)
(1.00017 -5.23001e-07 -1.78374e-05)
(1.00012 8.24716e-06 6.28038e-06)
(1.00017 -4.69095e-06 -3.54692e-06)
(1.00014 6.21056e-06 -1.73463e-05)
(1.00014 4.48261e-06 2.29134e-05)
(1.00016 -6.77332e-06 -2.96578e-05)
(1.00012 1.28356e-05 1.41421e-05)
(1.00015 -4.58508e-06 5.0848e-06)
(1.00014 -7.47913e-07 -3.08266e-05)
(1.00012 1.09646e-05 4.52663e-05)
(1.00016 -9.28216e-06 -4.25921e-05)
(1.00009 6.45415e-06 2.54748e-05)
(1.00017 2.10675e-06 5.48463e-06)
(1.00009 -4.20311e-06 -2.66365e-05)
(1.00014 4.51839e-06 4.30942e-05)
(1.00012 -6.56138e-07 -3.23159e-05)
(1.00012 -9.96629e-07 2.08727e-05)
(1.00012 2.96204e-07 5.35381e-06)
(1.00013 1.99152e-06 -1.13601e-05)
(1.0001 -2.55633e-06 1.90005e-05)
(1.04959 -1.51112e-06 1.68296e-06)
(1.04953 7.58422e-06 3.83068e-06)
(1.04959 -1.22123e-05 4.25039e-06)
(1.04954 1.12228e-05 9.32243e-06)
(1.04957 -5.10101e-06 -7.16955e-06)
(1.04956 -4.1279e-06 1.55499e-05)
(1.04955 1.15413e-05 -3.97953e-06)
(1.04959 -1.33754e-05 -7.61046e-07)
(1.04953 1.15363e-05 1.54753e-05)
(1.0496 -4.81286e-06 -1.81802e-05)
(1.04954 -1.51552e-07 2.08481e-05)
(1.04958 6.76789e-06 -1.25627e-05)
(1.04958 -6.61896e-06 5.57461e-06)
(1.04956 7.36755e-06 2.50501e-06)
(1.0496 -2.02113e-07 -6.43175e-06)
(1.04956 -9.10719e-07 7.82665e-06)
(1.0496 6.25729e-06 -7.96575e-06)
(1.04957 -2.08154e-06 8.76536e-06)
(1.0496 4.47061e-06 -1.13833e-05)
(1.04957 2.12908e-06 1.16959e-05)
(1.0496 -1.92889e-06 -8.34183e-06)
(1.04957 1.04105e-05 6.51179e-08)
(1.0496 -7.37684e-06 1.19475e-05)
(1.04959 7.93562e-06 -2.04068e-05)
(1.04958 4.00819e-06 2.30322e-05)
(1.0496 -8.23191e-06 -1.06519e-05)
(1.04957 1.49374e-05 -4.84243e-06)
(1.04959 -6.67613e-06 2.90596e-05)
(1.04959 -1.01884e-07 -3.69825e-05)
(1.04956 1.12485e-05 4.07102e-05)
(1.04961 -1.03229e-05 -1.74891e-05)
(1.04954 7.07079e-06 5.32822e-08)
(1.04961 1.8297e-06 3.10195e-05)
(1.04955 -4.31481e-06 -3.42653e-05)
(1.04958 4.48423e-06 4.05886e-05)
(1.04957 -6.11775e-07 -1.62912e-05)
(1.04957 -8.80589e-07 8.58837e-06)
(1.04956 -2.30282e-07 1.50418e-05)
(1.04958 2.95297e-06 -9.05949e-06)
(1.04954 -3.28494e-06 1.52752e-05)
(1.08675 -2.45158e-06 1.0446e-06)
(1.08672 9.7264e-06 1.03509e-05)
(1.08674 -1.51882e-05 2.63732e-06)
(1.08672 1.41968e-05 1.088e-05)
(1.08674 -7.47298e-06 3.97479e-07)
(1.08673 -3.02604e-06 7.53046e-06)
(1.08672 1.18734e-05 8.517e-06)
(1.08675 -1.51456e-05 -4.68558e-06)
(1.0867 1.43204e-05 1.79316e-05)
(1.08676 -8.15992e-06 -1.03453e-05)
(1.0867 2.72201e-06 1.40914e-05)
(1.08674 4.86876e-06 -1.04603e-06)
(1.08674 -6.18976e-06 2.27785e-06)
(1.08672 7.79127e-06 8.28678e-06)
(1.08676 -1.19079e-06 -5.27624e-06)
(1.08672 -3.99313e-07 1.1174e-05)
(1.08675 5.89516e-06 -5.57579e-06)
(1.08673 -2.09831e-06 1.17176e-05)
(1.08675 3.77217e-06 -5.82535e-06)
(1.08674 3.17615e-06 8.8626e-06)
(1.08675 -4.0773e-06 1.75197e-06)
(1.08674 1.25548e-05 -2.33905e-06)
(1.08675 -9.54084e-06 1.54048e-05)
(1.08675 8.5987e-06 -1.0302e-05)
(1.08675 4.3698e-06 1.22824e-05)
(1.08675 -1.0292e-05 6.27005e-06)
(1.08675 1.71267e-05 -1.10402e-05)
(1.08674 -8.85723e-06 3.02967e-05)
(1.08676 6.0985e-07 -2.13933e-05)
(1.08673 1.12052e-05 2.1786e-05)
(1.08677 -1.13075e-05 6.09182e-06)
(1.08672 7.83657e-06 -1.22606e-05)
(1.08677 9.48088e-07 3.67998e-05)
(1.08672 -4.02403e-06 -2.52315e-05)
(1.08675 4.21056e-06 2.9464e-05)
(1.08674 -9.71581e-07 -2.31795e-06)
(1.08674 -1.87059e-07 3.20645e-06)
(1.08673 -1.4605e-06 1.89272e-05)
(1.08675 3.96913e-06 -6.04734e-06)
(1.08671 -3.67404e-06 1.61426e-05)
(1.10785 -4.55961e-06 1.92801e-06)
(1.10784 1.18846e-05 9.60542e-06)
(1.10784 -1.73414e-05 4.98125e-06)
(1.10784 1.55219e-05 8.27315e-06)
(1.10785 -8.33226e-06 4.93461e-06)
(1.10783 -3.1419e-06 5.00431e-06)
(1.10784 1.24957e-05 9.23904e-06)
(1.10784 -1.67991e-05 -1.26358e-06)
(1.10781 1.63025e-05 1.39169e-05)
(1.10787 -1.08424e-05 -3.52312e-06)
(1.10781 4.80884e-06 9.91198e-06)
(1.10785 3.11622e-06 2.46604e-06)
(1.10784 -5.86344e-06 2.58351e-06)
(1.10782 7.95608e-06 9.22085e-06)
(1.10786 -2.4296e-06 -3.35131e-06)
(1.10782 4.37765e-07 1.13434e-05)
(1.10785 4.53946e-06 -3.53914e-06)
(1.10783 -1.24929e-06 1.0821e-05)
(1.10784 2.04923e-06 -1.33337e-06)
(1.10784 4.41161e-06 7.05122e-06)
(1.10784 -5.85751e-06 4.58039e-06)
(1.10784 1.30176e-05 -4.17598e-07)