/*--------------------------------*- C++ -*----------------------------------*\
  =========                 |
  \\      /  F ield         | OpenFOAM: The Open Source CFD Toolbox
   \\    /   O peration     | Website:  https://openfoam.org
    \\  /    A nd           | Version:  10
     \\/     M anipulation  |
\*---------------------------------------------------------------------------*/
FoamFile
{
    format      ascii;
    class       surfaceScalarField;
    location    "55";
    object      phi;
}
// * * * * * * * * * * * * * * * * * * * * * * * * * * * * * * * * * * * * * //

dimensions      [0 3 -1 0 0 0 0];

internalField   nonuniform List<scalar> 
300480
(
1.45878e-05
3.18513e-06
-3.04007e-07
1.32187e-05
3.82926e-06
1.75197e-06
1.27454e-05
-4.23988e-06
6.35241e-06
1.327e-05
-5.14108e-06
6.35157e-06
1.35264e-05
1.52993e-06
3.67854e-06
1.2187e-05
5.48283e-06
2.68281e-06
1.10279e-05
4.92898e-06
2.95446e-06
1.21389e-05
3.33173e-06
1.15678e-06
1.37173e-05
6.38355e-06
-2.99811e-06
1.45362e-05
1.02416e-05
-5.38315e-06
1.54026e-05
9.43512e-06
-4.34467e-06
1.66619e-05
4.40268e-06
-2.58429e-06
1.74229e-05
5.64236e-06
-4.37757e-06
1.80552e-05
9.48039e-06
-4.56943e-06
2.09695e-05
1.0286e-05
-3.13167e-06
2.49382e-05
1.03721e-05
-3.6526e-06
2.94244e-05
6.86573e-06
-5.58874e-06
3.61022e-05
-4.59538e-06
-3.41778e-06
3.92129e-05
-7.65046e-06
2.93473e-06
3.78707e-05
-4.10503e-06
6.91731e-06
3.60278e-05
-7.38808e-06
1.0666e-05
3.3546e-05
-8.85283e-06
1.12702e-05
2.86973e-05
-4.24423e-06
7.13748e-06
2.21354e-05
-1.94414e-06
5.23344e-06
1.51382e-05
-4.73957e-06
6.24157e-06
1.0594e-05
-9.55908e-06
7.4213e-06
1.0321e-05
-1.39936e-05
7.95204e-06
1.1821e-05
-1.04886e-05
5.82905e-06
1.26455e-05
-1.12531e-06
2.42445e-06
1.04251e-05
7.37979e-06
6.85161e-07
8.68894e-06
4.46889e-06
1.17857e-06
9.03644e-06
3.11133e-07
1.3374e-06
9.33719e-06
3.1884e-06
8.72487e-07
9.42851e-06
4.79676e-06
1.53748e-06
1.01341e-05
2.64209e-06
4.20175e-07
1.07643e-05
2.60637e-06
-3.10131e-06
1.08683e-05
9.27267e-06
-7.02163e-06
1.0711e-05
1.15156e-05
-3.77686e-06
1.15572e-05
2.40899e-06
2.24014e-06
-3.51172e-06
3.20303e-06
4.66895e-05
1.08004e-05
-1.04331e-07
4.71016e-05
1.35345e-05
5.40643e-06
4.71606e-05
-8.29239e-06
1.59992e-05
4.66352e-05
-1.35063e-05
1.67436e-05
4.45974e-05
5.1414e-06
1.12969e-05
4.00104e-05
2.02457e-05
8.21237e-06
3.73099e-05
1.77518e-05
6.78698e-06
3.94375e-05
8.53291e-06
9.2518e-07
4.35998e-05
1.54504e-05
-9.63369e-06
4.83558e-05
2.97424e-05
-1.52795e-05
5.21983e-05
3.3003e-05
-1.16541e-05
5.36748e-05
2.08805e-05
-6.64595e-06
5.3991e-05
2.15557e-05
-8.8242e-06
5.58584e-05
3.28535e-05
-8.76415e-06
6.2614e-05
3.8122e-05
-7.69316e-06
7.30754e-05
3.38512e-05
-1.00629e-05
8.69628e-05
1.47907e-05
-1.37377e-05
0.000107494
-2.11701e-05
-1.25051e-05
0.000124147
-3.74846e-05
1.25935e-06
0.000130284
-2.8319e-05
1.20802e-05
0.000128651
-2.7891e-05
2.07844e-05
0.000118294
-2.20541e-05
2.41679e-05
0.000103379
-7.377e-06
1.67425e-05
8.75341e-05
-3.41922e-06
1.34596e-05
6.63698e-05
-8.58494e-06
1.7706e-05
4.57587e-05
-2.18183e-05
2.08169e-05
3.64473e-05
-3.97414e-05
1.94695e-05
3.58642e-05
-3.21957e-05
1.09829e-05
3.62203e-05
-4.07346e-06
2.96137e-06
3.30383e-05
2.01532e-05
1.51477e-06
3.13184e-05
1.30691e-05
4.23291e-06
3.20782e-05
3.70975e-06
5.29475e-06
3.19901e-05
1.31807e-05
4.08577e-06
3.22488e-05
1.61216e-05
3.71202e-06
3.38631e-05
9.5984e-06
-3.88895e-07
3.55941e-05
9.31334e-06
-6.39708e-06
3.68973e-05
2.89507e-05
-1.16698e-05
3.78772e-05
3.73456e-05
-6.46719e-06
4.00223e-05
1.07342e-05
3.45637e-06
-8.28105e-06
5.0922e-06
8.41665e-05
1.86202e-05
-1.89957e-06
9.00668e-05
2.807e-05
3.19251e-06
9.17202e-05
-8.55305e-07
1.92934e-05
8.80934e-05
-1.40278e-05
2.5413e-05
8.35796e-05
5.83114e-06
1.99018e-05
7.65459e-05
3.73461e-05
1.39597e-05
6.99771e-05
4.16452e-05
1.07635e-05
6.96818e-05
1.7364e-05
4.6258e-06
7.4675e-05
1.49913e-05
-6.53012e-06
8.3357e-05
3.96253e-05
-1.79152e-05
9.1788e-05
5.90435e-05
-1.87783e-05
9.4733e-05
4.88268e-05
-1.31043e-05
9.45572e-05
4.51152e-05
-1.32265e-05
9.57795e-05
6.27668e-05
-1.09704e-05
0.000102468
8.22649e-05
-1.17449e-05
0.000117731
7.22199e-05
-2.10694e-05
0.000137129
2.45808e-05
-2.8656e-05
0.000161099
-3.97389e-05
-3.14422e-05
0.000187901
-7.98591e-05
-1.86641e-05
0.00021054
-8.19712e-05
2.36083e-06
0.000224748
-7.86404e-05
1.49825e-05
0.000219254
-5.00759e-05
2.613e-05
0.000200198
-1.03636e-05
2.24454e-05
0.000185531
-4.34367e-06
1.65423e-05
0.000160338
-3.03808e-06
2.14971e-05
0.000115902
-8.47479e-06
2.83127e-05
7.801e-05
-5.00895e-05
3.15311e-05
6.35049e-05
-6.04458e-05
2.13125e-05
6.18734e-05
-1.69162e-05
5.41746e-06
6.00146e-05
2.65839e-05
1.56395e-06
6.04148e-05
1.82312e-05
6.59299e-06
6.22362e-05
6.09519e-06
1.01561e-05
6.11354e-05
2.8005e-05
9.57505e-06
5.98109e-05
3.4262e-05
8.90696e-06
6.12122e-05
2.07035e-05
1.78937e-06
6.42568e-05
1.51348e-05
-6.51392e-06
6.83678e-05
4.72588e-05
-1.26208e-05
7.22367e-05
7.26944e-05
-9.56385e-06
7.48342e-05
3.32574e-05
9.16527e-07
-7.17903e-06
3.9503e-06
0.000123011
3.33261e-05
-5.4212e-06
0.000131792
5.00105e-05
-5.84155e-06
0.000136131
1.66863e-05
1.26796e-05
0.000130967
9.51005e-07
2.78787e-05
0.00012493
8.54997e-06
2.84559e-05
0.000119379
4.29821e-05
2.13338e-05
0.000110798
6.93861e-05
1.35083e-05
0.000104205
4.10573e-05
4.52596e-06
0.000105104
1.11171e-05
-1.39292e-06
0.00011512
2.63842e-05
-7.52031e-06
0.000128692
6.30367e-05
-1.16158e-05
0.000135399
7.07208e-05
-1.28342e-05
0.000135354
7.29964e-05
-1.87145e-05
0.000135565
9.32302e-05
-1.4108e-05
0.000142614
0.00013375
-1.51034e-05
0.00016652
0.000123398
-3.71488e-05
0.000196944
4.07385e-05
-5.16877e-05
0.000219312
-5.31296e-05
-5.43942e-05
0.000237075
-0.000109994
-4.35939e-05
0.000251409
-0.000128854
-1.34421e-05
0.000276251
-0.000155018
1.02239e-05
0.000297464
-0.000117677
2.12961e-05
0.000284706
-2.15368e-05
1.85651e-05
0.000268581
-9.34641e-07
1.46458e-05
0.000261495
-4.21597e-06
1.84209e-05
0.000225435
2.63161e-05
2.21019e-05
0.000157742
-3.5284e-06
2.85778e-05
0.00010714
-5.69442e-05
2.81055e-05
9.10556e-05
-3.07769e-05
1.12327e-05
8.73768e-05
2.23683e-05
1.72157e-06
9.04018e-05
9.4617e-06
5.63732e-06
9.60201e-05
-5.67218e-06
1.15962e-05
9.59207e-05
3.58679e-05
1.47507e-05
9.17362e-05
5.43516e-05
1.80493e-05
9.05726e-05
3.39243e-05
1.061e-05
9.34539e-05
1.88764e-05
-3.21103e-06
0.000100566
5.47398e-05
-1.03482e-05
0.000110053
0.000101912
-8.99969e-06
0.000115385
6.62362e-05
-2.08868e-06
7.61477e-06
5.33897e-07
0.000165591
5.31115e-05
-5.64204e-06
0.000171663
9.034e-05
-1.48905e-05
0.000172035
5.29894e-05
-6.22177e-07
0.000164196
3.17201e-05
1.98314e-05
0.00015827
1.69665e-05
3.22715e-05
0.000158058
3.14255e-05
3.19084e-05
0.000155577
7.84474e-05
2.08182e-05
0.000148139
7.33258e-05
2.14544e-06
0.000140448
2.3578e-05
-8.23907e-06
0.000142533
1.30055e-05
-8.07824e-06
0.000157704
4.45877e-05
-3.11194e-06
0.000173067
5.67849e-05
4.8809e-06
0.000176165
8.42068e-05
-9.17903e-06
0.000172623
0.000124166
-1.43358e-05
0.000181914
0.00017899
-1.29221e-05
0.000223748
0.00016487
-4.3745e-05
0.000272923
5.88224e-05
-6.9642e-05
0.000294611
-4.82796e-05
-7.49799e-05
0.000303538
-0.000120244
-6.87552e-05
0.000299219
-0.00014925
-3.17554e-05
0.000301244
-0.000210095
7.34019e-06
0.00033796
-0.000208837
2.22444e-05
0.000351056
-5.67496e-05
1.11208e-05
0.00032245
2.14457e-05
7.48685e-06
0.000307742
2.74866e-06
1.67075e-05
0.000307288
4.22818e-05
1.53107e-05
0.000263746
6.64602e-05
1.46895e-05
0.00018707
1.18525e-05
1.80361e-05
0.000137973
-5.37905e-06
9.06418e-06
0.000121092
2.47782e-05
1.14869e-06
0.000120573
-6.51752e-06
3.66135e-06
0.000127355
-3.37644e-05
8.68831e-06
0.00013016
2.35571e-05
1.36667e-05
0.00012555
6.20453e-05
2.38845e-05
0.000121351
4.28355e-05
2.15171e-05
0.000122519
2.01271e-05
3.33055e-06
0.000131003
5.12963e-05
-5.38923e-06
0.00014514
0.000116216
-3.24904e-06
0.000155251
9.57872e-05
-3.03901e-07
2.50268e-05
4.85023e-07
0.000208123
6.32122e-05
-8.37344e-07
0.000213627
0.000137676
-1.41426e-05
0.000208181
0.000115647
-1.50317e-05
0.000192281
8.4092e-05
5.69673e-06
0.00018083
3.85669e-05
2.82305e-05
0.000184133
8.13155e-06
4.03728e-05
0.000194748
5.23488e-05
3.3237e-05
0.000198925
8.69412e-05
8.50542e-06
0.000187775
4.69793e-05
-1.12364e-05
0.000175554
2.05227e-05
-1.60306e-05
0.000184473
2.74068e-05
-1.3539e-05
0.000205688
1.8008e-05
7.05775e-06
0.00021175
7.0898e-05
7.28558e-06
0.000203744
0.00014888
-5.65436e-06
0.000213429
0.000208272
-3.45307e-06
0.00027029
0.000175864
-2.74317e-05
0.000338089
6.12961e-05
-5.84961e-05
0.000357057
-2.29039e-05
-7.60866e-05
0.000358482
-0.000107288
-8.38961e-05
0.000355947
-0.000161526
-5.3894e-05
0.000336732
-0.000238219
-6.44572e-06
0.000360794
-0.000287229
1.72549e-05
0.000397299
-0.000115548
4.98296e-06
0.000374555
4.7152e-05
-3.40924e-06
0.000337555
3.96915e-05
6.00926e-06
0.000342149
5.65844e-05
8.52268e-06
0.000342174
0.00011369
1.37598e-05
0.000285483
0.000103159
1.41909e-05
0.000218488
6.80267e-05
2.83995e-07
0.000182918
5.754e-05
-1.01062e-05
0.00016819
-1.40447e-05
-2.18421e-06
0.000163404
-6.37734e-05
5.58125e-06
0.000161995
5.48149e-07
8.658e-06
0.000156686
5.42354e-05
2.19641e-05
0.000151828
3.75524e-05
2.83527e-05
0.000152271
1.18426e-05
1.13354e-05
0.000161274
3.72291e-05
1.23345e-06
0.000177705
0.000117622
4.23769e-06
0.000190658
0.000119979
3.85631e-06
3.52791e-05
3.2467e-06
0.000249486
5.86151e-05
4.62301e-06
0.000254147
0.00018013
-8.07159e-06
0.000249171
0.000190745
-2.47426e-05
0.000230537
0.000150986
-1.115e-05
0.000208652
7.88696e-05
1.70291e-05
0.000205003
-1.53042e-06
3.94772e-05
0.00022704
2.90871e-06
4.41785e-05
0.000251496
6.14342e-05
2.58647e-05
0.000245648
6.49588e-05
1.90755e-06
0.000220765
4.57771e-05
-1.24246e-05
0.000218192
1.75998e-05
-2.24341e-05
0.000238028
-3.44137e-05
8.72777e-07
0.000243453
4.02593e-05
1.49618e-05
0.000233936
0.000166975
-3.34184e-06
0.000246573
0.000226378
-4.8242e-06
0.000307914
0.000165416
-6.16238e-06
0.000380701
4.79927e-05
-2.83847e-05
0.000396919
7.04058e-06
-6.13029e-05
0.000391632
-7.36966e-05
-8.62038e-05
0.000402373
-0.00017101
-6.63493e-05
0.000384274
-0.000251555
-2.48617e-05
0.000386337
-0.000334108
9.69697e-07
0.000427748
-0.000180234
-4.69026e-06
0.000423991
6.1102e-05
-1.80741e-05
0.000379064
0.000101718
-1.1347e-05
0.000368758
9.60143e-05
-6.75379e-06
0.000390684
0.00013891
1.12702e-05
0.000372489
0.000173408
2.44156e-05
0.000325289
0.00016024
-1.7358e-06
0.000295143
0.000113486
-3.22148e-05
0.000263166
6.25914e-07
-2.56893e-05
0.000224505
-7.36068e-05
-2.72291e-06
0.00020163
-1.58026e-05
7.24848e-06
0.000189011
4.34471e-05
1.851e-05
0.00018254
1.93037e-05
3.04178e-05
0.000183614
-1.13182e-05
1.5528e-05
0.000192881
1.30752e-05
3.35809e-06
0.00020862
0.000108105
1.25328e-05
0.000223619
0.000135674
1.2889e-05
3.72113e-05
4.71536e-06
0.00029126
4.95231e-05
1.61964e-06
0.000293065
0.000216909
-3.53253e-06
0.000298532
0.000261779
-2.87747e-05
0.0002959
0.000206572
-2.69165e-05
0.00027309
0.00012799
-6.10212e-06
0.000252622
3.4312e-05
1.49058e-05
0.000269519
-2.24118e-05
4.42306e-05
0.000305179
8.00735e-06
5.13786e-05
0.000306842
6.33749e-05
3.33708e-05
0.000278671
7.68847e-05
5.8063e-06
0.000265292
1.50465e-05
-1.75256e-05
0.000273973
-9.12677e-05
2.43098e-07
0.000277235
-1.20454e-05
2.16051e-05
0.000272536
0.000170598
-6.31246e-06
0.000287333
0.00024913
-1.67798e-05
0.000344967
0.000160658
6.99503e-06
0.000417093
2.50855e-05
8.85395e-06
0.000434967
2.86611e-05
-3.64634e-05
0.000424369
-2.47061e-05
-8.08517e-05
0.000444949
-0.000175571
-6.47785e-05
0.000440746
-0.000265175
-2.31481e-05
0.000423681
-0.000359767
-1.7777e-06
0.000455718
-0.000249437
-4.09449e-06
0.000472541
4.45441e-05
-2.02842e-05
0.000433792
0.0001684
-1.64191e-05
0.000410091
0.000168958
-1.46415e-05
0.000430264
0.000169703
3.02503e-06
0.000427049
0.000217608
3.52518e-05
0.000406397
0.000249067
9.78776e-06
0.000416167
0.000167943
-4.29899e-05
0.000399594
1.30757e-05
-5.19013e-05
0.000328091
-6.39839e-05
-2.42677e-05
0.000268404
-9.30402e-06
4.40271e-06
0.000239313
4.27107e-05
2.41953e-05
0.000224342
2.56426e-07
3.74492e-05
0.000220492
-4.42692e-05
1.91797e-05
0.000225592
-1.61378e-05
8.83399e-07
0.000238126
9.04845e-05
1.78282e-05
0.000259135
0.000133521
2.58675e-05
2.80556e-05
5.17962e-06
0.00033359
3.18592e-05
5.51951e-06
0.000320027
0.000262833
4.59702e-06
0.000345818
0.00032336
-3.15861e-05
0.000392202
0.000208351
-4.68308e-05
0.000391947
0.000141511
-4.05703e-05
0.000358607
0.00010826
-3.4051e-05
0.000355956
1.56317e-05
1.88405e-05
0.000378401
-3.37876e-05
7.47448e-05
0.000374007
5.07376e-05
7.24526e-05
0.000349073
0.000102005
3.69529e-05
0.000334518
1.79632e-05
1.78088e-06
0.000325758
-0.000143262
1.12731e-05
0.0003182
-8.34264e-05
3.06759e-05
0.000317982
0.000152324
-1.04955e-05
0.000335411
0.000272989
-2.68983e-05
0.000386007
0.000173896
1.89452e-05
0.000450557
1.21881e-05
4.363e-05
0.000467841
4.42689e-05
1.25029e-06
0.00045338
3.05742e-05
-6.3553e-05
0.00048073
-0.000174066
-5.87679e-05
0.000499141
-0.000287613
-1.13881e-05
0.00047032
-0.000366818
5.71404e-06
0.000482494
-0.000309572
-1.80082e-06
0.000517573
-1.92693e-05
-1.18135e-05
0.000496276
0.000196251
-6.02087e-06
0.000465164
0.000255972
-7.15032e-06
0.000474917
0.000223195
6.34987e-06
0.000477778
0.000237864
4.74667e-05
0.000463231
0.000325515
2.40545e-05
0.000470522
0.000258114
-4.28525e-05
0.00047033
4.14291e-05
-5.53375e-05
0.000422796
-7.54575e-05
-4.19672e-05
0.000369477
-1.48078e-05
-1.55097e-05
0.000336748
4.96252e-05
2.45872e-05
0.000305435
-5.72578e-07
4.81541e-05
0.000278741
-6.62684e-05
2.85447e-05
0.000263758
-3.50594e-05
6.436e-08
0.000265589
7.77997e-05
1.70456e-05
0.000298149
0.000109125
3.36724e-05
-8.39686e-06
1.24929e-05
0.000363377
7.19119e-06
3.04065e-05
0.00033527
0.00030151
2.43843e-05
0.00037412
0.000370553
-3.66745e-05
0.000454331
0.000186424
-6.07689e-05
0.000478629
0.000116298
-5.47659e-05
0.000451086
0.000173309
-6.47245e-05
0.000447907
8.88781e-05
-1.48398e-05
0.000463974
-4.56179e-05
7.28612e-05
0.000456494
2.99606e-05
0.000103813
0.000447274
0.000102402
7.66061e-05
0.000447929
1.32923e-05
3.41163e-05
0.00041803
-0.000180485
3.73399e-05
0.00037569
-0.000148493
4.41739e-05
0.000365159
0.000122965
-1.78528e-05
0.000387869
0.000274622
-3.14469e-05
0.000438206
0.000175037
3.96981e-05
0.000491567
3.51827e-06
8.0169e-05
0.000503264
5.42946e-05
4.01793e-05
0.000488689
7.78629e-05
-3.70948e-05
0.000519843
-0.000165242
-5.09101e-05
0.000563671
-0.000318405
-1.89938e-06
0.000534653
-0.000358631
1.54201e-05
0.00051313
-0.000329726
-6.08867e-06
0.000551588
-9.60125e-05
-1.13839e-05
0.000556176
0.000173968
5.02945e-07
0.000529374
0.000316501
2.26756e-06
0.000529351
0.000286627
1.83013e-05
0.000530962
0.000251435
6.24417e-05
0.00051752
0.000377301
3.95759e-05
0.000519133
0.000362537
-4.27408e-05
0.000515306
0.00011986
-5.84344e-05
0.000477314
-5.67464e-05
-4.23677e-05
0.000462927
-5.36522e-05
-4.16332e-05
0.000480251
1.51188e-05
-1.45489e-05
0.000457782
8.50083e-06
1.94092e-05
0.000393957
-4.87701e-05
2.01958e-05
0.000331586
-1.1121e-05
-2.01769e-06
0.000304903
9.64568e-05
1.01097e-05
0.000340793
7.527e-05
3.02757e-05
-6.82966e-05
2.67871e-05
0.000382702
-1.36455e-05
5.0426e-05
0.000353582
0.00030174
3.64268e-05
0.000398015
0.000386831
-2.34099e-05
0.000481282
0.000173788
-4.79648e-05
0.000520739
9.31878e-05
-4.81416e-05
0.000509327
0.000229346
-7.18065e-05
0.000504584
0.000170207
-2.73878e-05
0.00050921
-2.23263e-05
6.1247e-05
0.000512733
1.49899e-06
0.000115094
0.000545365
4.93337e-05
0.00011362
0.000592096
-3.50018e-05
7.45868e-05
0.000556887
-0.000202032
6.47089e-05
0.000457883
-0.00017109
6.08092e-05
0.000414031
0.000105217
-1.97132e-05
0.000445122
0.000228527
-2.59801e-05
0.000503477
0.000116625
6.11741e-05
0.000545655
-1.99449e-05
0.000108489
0.000548516
5.72845e-05
6.86181e-05
0.00053843
0.000104443
-1.07507e-05
0.000571861
-0.000150292
-4.0039e-05
0.000631813
-0.000343358
-2.11169e-06
0.000614223
-0.000344738
1.90679e-05
0.000557661
-0.000303774
-1.40959e-05
0.000577429
-0.000150347
-2.45457e-05
0.000606773
0.000117094
-1.12687e-06
0.000600984
0.000337211
1.23581e-05
0.000602658
0.000339212
3.50649e-05
0.000589604
0.000278114
7.54625e-05
0.000559666
0.000420598
5.27716e-05
0.000571631
0.00043998
-3.78395e-05
0.000594098
0.000196969
-6.85789e-05
0.000544962
1.553e-05
-4.63173e-05
0.000503375
-5.27741e-05
-4.15178e-05
0.000553729
-5.31819e-05
-4.57499e-05
0.000599378
-3.32444e-05
-4.24514e-05
0.000551857
-3.09112e-05
-2.7022e-05
0.000452538
6.38958e-05
-2.19122e-05
0.000390651
0.000158886
-2.81049e-07
0.000408615
5.31288e-05
2.7374e-05
-0.000115607
4.20015e-05
0.00042736
-1.77536e-06
4.26252e-05
0.000394307
0.000280968
2.68802e-05
0.000434119
0.000385616
1.82194e-06
0.000510274
0.00017937
-1.84099e-05
0.00055977
8.03822e-05
-4.12848e-05
0.000567697
0.00026474
-7.77847e-05
0.000566579
0.000230555
-3.74536e-05
0.000552795
2.01245e-05
4.33982e-05
0.000549723
-1.27969e-05
0.000107686
0.000604054
-2.64855e-05
0.000130447
0.000696556
-0.000123034
9.62127e-05
0.000692937
-0.000233414
6.69704e-05
0.000557047
-0.000146308
6.09914e-05
0.000475541
0.000104027
-7.73518e-06
0.000519829
0.000132305
-7.5099e-06
0.000586262
7.00331e-06
7.44032e-05
0.000614147
-5.5636e-05
0.00012253
0.000610315
5.35342e-05
8.78338e-05
0.000607538
0.000106794
1.33866e-05
0.000638165
-0.000133995
-3.16662e-05
0.000703106
-0.000356588
-1.75009e-05
0.000704726
-0.000332371
2.79294e-06
0.000626217
-0.000249192
-2.30967e-05
0.000608091
-0.000161701
-4.44638e-05
0.000645916
5.66495e-05
-2.04568e-05
0.000670607
0.000317407
1.342e-05
0.000688834
0.000357398
5.47715e-05
0.000662488
0.000315218
8.63731e-05
0.000608208
0.000478891
5.49039e-05
0.000627831
0.000496941
-3.44249e-05
0.000687142
0.000236698
-6.43338e-05
0.000654679
7.65072e-05
-4.37972e-05
0.000575233
-1.19978e-05
-3.46517e-05
0.000585835
-8.74262e-05
-4.2014e-05
0.000658184
-8.67081e-05
-7.08616e-05
0.00065802
-2.89457e-05
-7.51195e-05
0.000577437
0.000142419
-5.02496e-05
0.000527603
0.000215744
-5.06157e-06
0.000533789
3.85139e-05
4.22097e-05
-0.000112234
5.22062e-05
0.000520621
6.24596e-05
2.34749e-05
0.000463842
0.000279006
1.01705e-05
0.000492981
0.000372443
2.55046e-05
0.000558294
0.00020201
6.70919e-06
0.00060594
0.000102169
-5.59352e-05
0.000630478
0.000274444
-8.41012e-05
0.000637846
0.000257478
-3.56194e-05
0.000620208
5.93008e-05
2.54658e-05
0.000621303
-2.77029e-05
7.65619e-05
0.000679189
-0.000107717
0.000100143
0.000770901
-0.000218241
7.61488e-05
0.000785223
-0.000272246
4.79659e-05
0.00066642
-0.000120533
4.07481e-05
0.000582166
0.000110078
-1.33447e-05
0.000617741
6.64892e-05
-2.645e-05
0.00067861
-6.76892e-05
4.36347e-05
0.000703219
-7.28615e-05
0.000107509
0.000700403
4.96501e-05
0.000109719
0.000698855
9.28429e-05
4.97712e-05
0.000713674
-0.000111748
-2.05305e-05
0.000771661
-0.00033661
-4.23453e-05
0.000795118
-0.000309446
-2.92417e-05
0.000719062
-0.000181631
-4.09408e-05
0.00066153
-0.00012945
-5.79947e-05
0.000679872
2.60125e-05
-4.40101e-05
0.000735699
0.000270785
-2.34267e-06
0.000782153
0.000336436
6.15249e-05
0.000741425
0.000350924
0.000104512
0.000672606
0.000531213
6.57097e-05
0.000709551
0.000523193
-1.8856e-05
0.000788919
0.000241193
-2.8851e-05
0.000772026
0.00010041
-8.32719e-06
0.000687604
1.57029e-05
-1.04012e-05
0.000651483
-9.80711e-05
-1.20062e-05
0.00068956
-0.000102251
-5.03031e-05
0.000706733
-9.51653e-06
-9.55229e-05
0.000677681
0.000189748
-9.33043e-05
0.000685623
0.000209154
-9.4837e-06
0.000704659
-2.77934e-06
9.09421e-05
-8.32407e-05
8.85572e-05
0.000628005
0.00012468
4.24927e-05
0.000549957
0.000289568
1.69188e-05
0.000570169
0.000325085
5.84211e-05
0.000636246
0.000202324
5.18086e-05
0.000678778
0.000150622
-3.77445e-05
0.000695733
0.000308655
-9.80007e-05
0.000710496
0.000292056
-6.90239e-05
0.000727782
9.0929e-05
-3.1446e-05
0.000758936
-5.20505e-05
-8.87936e-06
0.000810966
-0.00017903
2.14807e-05
0.000878892
-0.000304774
3.43004e-05
0.000878325
-0.000303349
2.2081e-05
0.000768148
-9.56557e-05
1.43157e-05
0.000683997
0.000110594
-2.10674e-05
0.000691124
3.43694e-05
-4.34612e-05
0.000745425
-0.000117212
5.19359e-06
0.00079751
-0.000100072
6.99448e-05
0.000807818
4.28522e-05
0.000112595
0.000793564
8.53526e-05
8.21357e-05
0.000783212
-9.37558e-05
1.75963e-05
0.00082569
-0.000316331
-1.67973e-05
0.000870786
-0.000300172
-2.59612e-05
0.000819883
-0.000128407
-4.48775e-05
0.000741465
-7.54312e-05
-5.99447e-05
0.000723909
3.33506e-05
-7.03415e-05
0.000791546
0.000217538
-3.67263e-05
0.000876187
0.000261204
6.67638e-05
0.000832243
0.000358748
0.000132332
0.00074188
0.000568614
8.86036e-05
0.000796751
0.000512269
1.50276e-05
0.000911474
0.000213313
1.11427e-05
0.000900245
0.000122593
3.72535e-05
0.000801399
5.00486e-05
3.54639e-05
0.000747292
-0.000123897
2.26995e-05
0.000742361
-0.000103606
-2.80712e-05
0.00072252
6.13371e-05
-0.000106984
0.000726505
0.000223045
-0.000124486
0.000795834
0.000123066
-1.22395e-06
0.000834695
-0.000107727
0.000144069
-9.09936e-05
0.000143069
0.000691377
0.000169738
5.77967e-05
0.00061228
0.000303842
3.59862e-05
0.000628653
0.000265083
7.17529e-05
0.000695193
0.000160925
9.95881e-05
0.000751861
0.000175142
4.546e-05
0.000785667
0.000338032
-5.77145e-05
0.00081625
0.000337907
-0.000112124
0.000859887
0.000141288
-0.000112184
0.000901909
-3.56984e-05
-9.56618e-05
0.000924928
-0.00018339
-4.34157e-05
0.000955892
-0.00032565
1.27048e-05
0.000949944
-0.000304147
1.4089e-05
0.00084975
-6.55628e-05
-2.77176e-06
0.00076844
9.91565e-05
-2.54596e-05
0.000760912
2.13466e-06
-4.74805e-05
0.000796435
-0.000150911
-2.63716e-05
0.000848355
-0.000133719
2.66314e-05
0.000866964
2.26552e-05
9.41772e-05
0.000867737
6.50954e-05
8.96009e-05
0.000869333
-8.72987e-05
1.96415e-05
0.000892599
-0.000265845
-3.35601e-05
0.000936223
-0.000263499
-4.76905e-05
0.000911102
-8.05253e-05
-5.50307e-05
0.000825565
-1.4346e-05
-6.24751e-05
0.000778541
6.34279e-05
-9.79123e-05
0.000838297
0.000160378
-7.53797e-05
0.000954506
0.000125928
6.76831e-05
0.00094177
0.000300445
0.000159989
0.000846198
0.000569394
0.000127134
0.000891541
0.00046933
6.91672e-05
0.00103269
0.000148135
5.89515e-05
0.00105428
0.000121879
8.76439e-05
0.000939299
0.000112248
8.53657e-05
0.000847931
-0.000125825
4.99161e-05
0.000811054
-0.000119545
-2.07924e-05
0.000764147
0.00014095
-0.000123048
0.00077609
0.000259842
-0.000129036
0.000862529
2.0577e-05
7.72874e-06
0.000902253
-0.000219685
0.000131189
-0.000110667
0.000131757
0.0007998
0.000199202
3.44909e-05
0.000737583
0.000326777
3.02279e-05
0.000746583
0.000249155
4.79945e-05
0.000791632
0.000116494
0.000121974
0.000831853
0.000160026
0.000162985
0.000860996
0.000355831
4.48597e-05
0.000892102
0.000377703
-7.62773e-05
0.000945802
0.000172726
-0.000102129
0.00101008
-4.39483e-05
-8.7994e-05
0.00102958
-0.00017293
-2.5359e-05
0.00102135
-0.000293617
5.51086e-05
0.0010248
-0.000285617
4.45646e-05
0.000978625
-6.11495e-05
8.91469e-06
0.000917115
6.19691e-05
-1.06674e-05
0.000887139
-4.03723e-05
-3.19089e-05
0.000876444
-0.000160926
-4.62708e-05
0.000890433
-0.000145571
-2.99692e-05
0.000905013
1.19697e-05
3.33637e-05
0.000926144
5.95146e-05
3.62147e-05
0.000954335
-5.87793e-05
-3.63572e-05
0.000975583
-0.000177001
-8.0026e-05
0.0010178
-0.000176681
-9.78512e-05
0.00102166
-1.17569e-05
-9.93551e-05
0.00093537
7.09596e-05
-8.45501e-05
0.000863975
0.000114966
-0.000110655
0.00090124
0.000115748
-0.00012364
0.00100787
-6.74633e-07
-4.43511e-06
0.00102822
0.00020132
0.000133315
0.000964511
0.000517269
0.000159206
0.000996899
0.000392029
0.000122304
0.00113135
3.13768e-05
0.000110488
0.00119617
3.81943e-05
0.000148896
0.00110779
0.000147742
0.000134985
0.000974938
-7.70071e-05
7.0534e-05
0.000892296
-0.000129832
2.03481e-06
0.000846687
0.00015081
-9.67439e-05
0.000874803
0.000269602
-0.000136828
0.000947108
-1.51357e-05
-4.10058e-05
0.000967097
-0.00024953
4.55428e-05
-9.79846e-05
5.45577e-05
0.00092217
0.00021239
-9.07546e-06
0.000881316
0.000346406
1.14186e-05
0.000874198
0.000305405
5.1668e-07
0.000896336
0.00014003
5.93591e-05
0.00091742
0.000147274
0.000180585
0.00091732
0.00035809
0.000130251
0.00092807
0.000378724
8.09157e-06
0.000985917
0.000153056
-4.2425e-05
0.00109623
-0.000111084
-5.62114e-05
0.00117889
-0.000229348
-1.39224e-05
0.00114491
-0.000255759
7.16604e-05
0.0010822
-0.000220381
7.0095e-05
0.00108379
-7.79439e-05
1.42855e-05
0.00112603
-2.21708e-05
-2.24479e-05
0.00112871
-9.35673e-05
-2.44926e-05
0.00106721
-0.000145858
-3.0569e-05
0.00101066
-0.000130248
-3.9869e-05
0.000999057
-2.58192e-06
6.47981e-06
0.00102562
6.18174e-05
-3.94456e-06
0.00106482
-1.58252e-05
-7.76865e-05
0.0010881
-7.79305e-05
-0.000113458
0.00111386
-5.90117e-05
-0.000132151
0.00111253
8.67381e-05
-0.000135554
0.00102219
0.000189402
-0.000108601
0.000940278
0.000192454
-0.000114416
0.00097422
7.58808e-05
-0.000170623
0.00106166
-0.000118573
-0.000119766
0.00108756
8.34093e-05
5.58239e-05
0.00107137
0.000408418
0.000157303
0.00112159
0.000293751
0.000122227
0.00122269
-7.18664e-05
0.000111266
0.00129094
-7.23471e-05
0.00017927
0.00125938
0.00012039
0.000179268
0.00112943
-2.17384e-05
0.000107116
0.000993809
-0.000114867
5.32483e-05
0.000925427
0.000113456
-3.89687e-05
0.000971155
0.000213811
-0.000137384
0.00106232
-5.05854e-05
-9.87252e-05
0.00107135
-0.000234796
-2.53085e-05
-5.54615e-05
-2.17541e-05
0.001019
0.00025976
-1.60604e-05
0.000941487
0.000395792
-7.95154e-06
0.000922501
0.000380069
-3.70716e-05
0.000959651
0.000162462
1.31044e-05
0.000998564
0.000111504
0.000132315
0.00100969
0.000312387
0.000146331
0.00103731
0.000326541
6.59494e-05
0.00110161
0.000108023
2.15382e-05
0.00119959
-0.000150064
-1.09985e-05
0.00129617
-0.000274411
-5.40571e-06
0.00129299
-0.000253135
7.16569e-05
0.00120978
-0.000170276
9.62843e-05
0.00118363
-7.9418e-05
1.27974e-05
0.00123589
-7.21806e-05
-8.73791e-05
0.00126723
-0.000115487
-8.25631e-05
0.00121832
-0.000109634
-2.15065e-05
0.00112747
-8.31658e-05
1.31621e-05
0.00108878
-1.72477e-06
3.88178e-05
0.00112811
4.86089e-05
-1.64248e-05
0.00118832
3.87852e-06
-0.000108134
0.00123606
-1.92106e-05
-0.000143011
0.00124814
5.04057e-05
-0.000158952
0.00119886
0.00021347
-0.000152778
0.00109498
0.000294759
-9.64999e-05
0.00102428
0.000216704
-6.98379e-05
0.00106176
-7.17661e-06
-0.000158818
0.00114471
-0.000242163
-0.000206873
0.00118563
-5.89994e-05
-5.70646e-05
0.00118578
0.000281717
0.000109432
0.00122636
0.000211566
0.000105732
0.00129059
-0.000114234
7.38307e-05
0.0013433
-0.000135938
0.000139641
0.00139214
4.36801e-05
0.000191928
0.00133912
-2.87699e-05
0.0001806
0.00118976
-0.000103149
0.000154566
0.00109508
4.54758e-05
5.03167e-05
0.00113093
0.00011978
-0.000123834
0.00121023
-7.96882e-05
-0.000145283
0.00120801
-0.000195946
-6.22146e-05
6.62522e-06
-3.74172e-05
0.0011654
0.000354952
-1.20185e-05
0.00108187
0.000436801
1.71275e-05
0.00107189
0.000388804
3.12267e-05
0.00111084
0.00016302
7.52531e-05
0.00112891
6.33751e-05
0.000160039
0.00114876
0.000213357
0.000186799
0.00121503
0.00020979
0.000143518
0.00128943
3.875e-05
0.000109754
0.00133982
-0.000157793
8.34289e-05
0.00138848
-0.000291638
5.36341e-05
0.0014184
-0.000283738
6.73517e-05
0.00140525
-0.000174683
9.70255e-05
0.00138855
-7.22334e-05
3.14472e-05
0.0013901
-7.2582e-05
-9.13934e-05
0.00137807
-0.000111163
-0.000100722
0.00134509
-9.32894e-05
-1.5883e-05
0.0012921
-4.83135e-05
4.95315e-05
0.00126647
-1.26252e-05
0.000112386
0.00131177
-1.47826e-05
8.70293e-05
0.00134995
-1.8572e-05
-3.08158e-05
0.00133613
2.93145e-05
-0.000114217
0.00129945
0.000131819
-0.000134525
0.00127318
0.000266189
-0.000121117
0.00128421
0.000280811
-8.03942e-05
0.00132591
0.000134192
-4.45623e-05
0.00136511
-0.000112056
-0.000113924
0.00136231
-0.000305069
-0.000225717
0.00133587
-0.000133318
-0.000166723
0.00131859
0.000201497
-7.071e-06
0.00133026
0.000185742
6.96817e-05
0.00137169
-0.000104609
5.37999e-05
0.00144281
-0.00018239
9.18649e-05
0.00152554
-3.95337e-05
0.000166596
0.00150227
-2.31931e-05
0.000185691
0.00137185
-6.03808e-05
0.000175837
0.0012932
-2.76129e-06
8.91436e-05
0.00134111
1.501e-05
-7.70269e-05
0.00140397
-0.000120423
-0.000114818
0.00136481
-0.000146323
-4.54452e-05
0.000102627
-2.78454e-05
0.00124024
0.000484379
-1.65621e-05
0.00116354
0.000512901
-1.37897e-05
0.00117864
0.000384661
1.79215e-05
0.00125203
0.000138215
5.82409e-05
0.0012912
6.77121e-07
0.000129796
0.00131718
7.76052e-05
0.000203746
0.00138602
6.28616e-05
0.000181171
0.00145876
-4.14829e-05
0.000114925
0.00150168
-0.000164359
9.00394e-05
0.0015274
-0.000275942
7.42201e-05
0.00154047
-0.000286507
5.39404e-05
0.00155142
-0.000191556
5.14929e-05
0.00157129
-8.11169e-05
1.74823e-05
0.00157709
-6.07872e-05
-6.83326e-05
0.00154284
-8.80855e-05
-7.70555e-05
0.00150493
-8.38056e-05
-2.08813e-06
0.00148455
-4.87121e-05
3.63257e-05
0.00147545
-3.55433e-05
0.000100845
0.00149728
-6.99205e-05
0.000142826
0.00151029
-4.18293e-05
6.30929e-05
0.00146988
8.57819e-05
-4.81869e-05
0.00140595
0.000221017
-9.12672e-05
0.00137149
0.000304132
-9.06284e-05
0.00139082
0.00025009
-0.000121279
0.00145523
7.17423e-05
-0.000170495
0.00151891
-0.000159489
-0.000237692
0.0015287
-0.000321461
-0.000315083
0.00149368
-0.000173675
-0.000270086
0.00148164
0.000136521
-0.00011135
0.00151263
0.000186921
6.60278e-06
0.00154287
-3.26155e-05
3.94558e-06
0.00158915
-0.000153854
9.57667e-06
0.00167311
-7.59466e-05
0.000103266
0.00167984
4.5342e-06
0.00015371
0.00156811
2.35594e-05
0.000144707
0.00147318
2.1418e-05
6.20983e-05
0.00149303
-3.75016e-05
-7.65027e-05
0.00154138
-0.000160841
-9.34658e-05
0.00148582
-0.000108824
-1.77788e-05
0.000208326
-2.96283e-06
0.00126624
0.000546305
-6.93012e-07
0.00127116
0.000517877
-4.04195e-05
0.00136161
0.000337861
-7.48876e-05
0.00148319
9.38527e-05
-6.30652e-05
0.00156552
-4.27244e-05
-6.25453e-06
0.00160706
-1.56537e-05
0.00010223
0.00164635
-2.06077e-05
0.000128772
0.00167623
-5.786e-05
5.62745e-05
0.0016813
-0.000119153
3.20037e-05
0.00168535
-0.000212295
5.33905e-05
0.00169259
-0.000259264
5.61514e-05
0.00170891
-0.000212616
3.74318e-05
0.00173988
-0.000112408
-4.73178e-06
0.0017522
-5.87998e-05
-7.82399e-05
0.00171573