/*--------------------------------*- C++ -*----------------------------------*\
  =========                 |
  \\      /  F ield         | OpenFOAM: The Open Source CFD Toolbox
   \\    /   O peration     | Website:  https://openfoam.org
    \\  /    A nd           | Version:  10
     \\/     M anipulation  |
\*---------------------------------------------------------------------------*/
FoamFile
{
    format      ascii;
    class       volVectorField;
    location    "55";
    object      U_0;
}
// * * * * * * * * * * * * * * * * * * * * * * * * * * * * * * * * * * * * * //

dimensions      [0 1 -1 0 0 0 0];

internalField   nonuniform List<vector> 
102400
(
(0.0575884 8.08332e-05 -0.00321159)
(0.055064 0.000229026 0.00170488)
(0.0520457 -0.000217421 0.00888956)
(0.0528505 -0.000328113 0.0108968)
(0.0551493 -4.37732e-05 0.00778952)
(0.0510357 0.0001809 0.0089971)
(0.0450883 0.000286374 0.0152362)
(0.0459964 0.000207965 0.0137345)
(0.0516977 0.000348846 0.00328591)
(0.0569871 0.000527441 -0.00330383)
(0.0617607 0.000371673 -0.00547656)
(0.0656356 8.12187e-06 -0.00754775)
(0.0676799 0.00018856 -0.0060718)
(0.0702811 0.000443013 0.000771437)
(0.0779892 0.000474851 0.0045064)
(0.0918325 0.000692664 6.18691e-05)
(0.108538 0.000700033 -0.0101136)
(0.134318 7.36745e-05 -0.0165938)
(0.157031 2.95198e-05 -0.00769333)
(0.156409 5.26346e-05 0.00644072)
(0.150935 -0.000413934 0.0167659)
(0.141307 -0.000665511 0.0176556)
(0.123275 -0.000355425 0.00910276)
(0.101972 -0.000107978 0.00695816)
(0.0731914 -0.000244524 0.0102002)
(0.0474076 -0.000476748 0.0112757)
(0.0396954 -0.000785695 0.00939961)
(0.0454423 -0.000707286 0.0069106)
(0.0504515 -0.000153274 0.00573571)
(0.0457584 0.000506732 0.00459427)
(0.0370023 0.000243158 0.00306345)
(0.0354175 -0.000150328 0.000981819)
(0.0368963 0.000103227 0.00357964)
(0.0373843 0.000275764 0.00825435)
(0.039643 8.11179e-05 0.00453567)
(0.0421674 4.48629e-05 -0.00580946)
(0.0431995 0.00053704 -0.00909779)
(0.0428798 0.000709881 0.000530459)
(0.0444774 0.000174596 0.00529196)
(0.0522149 -0.000329992 -0.000311472)
(0.164865 0.00146079 -0.00102303)
(0.171108 0.00134954 0.0097873)
(0.175811 -0.00169146 0.0222743)
(0.172529 -0.00180042 0.0278214)
(0.167709 0.000802132 0.0236558)
(0.152827 0.00234303 0.0239655)
(0.138179 0.00196345 0.0253365)
(0.138156 0.00124421 0.0123786)
(0.149802 0.0024378 -0.00729674)
(0.168283 0.00404192 -0.0109672)
(0.189498 0.00385833 -0.00558746)
(0.197194 0.00202764 -0.00834551)
(0.194072 0.00249057 -0.00588444)
(0.198819 0.0039277 0.0082139)
(0.214122 0.00433017 0.0115276)
(0.245671 0.0040205 -0.00589213)
(0.292348 0.00185905 -0.0356123)
(0.355201 -0.00229833 -0.0584545)
(0.435875 -0.00304752 -0.0482659)
(0.475909 -0.00143593 -0.0194022)
(0.483708 -0.002514 0.0135615)
(0.456638 -0.00276671 0.0345504)
(0.396872 -0.00108326 0.0249798)
(0.349916 -0.000733013 0.021019)
(0.284523 -0.00207288 0.0318304)
(0.195493 -0.00407811 0.0315785)
(0.137204 -0.00543342 0.0186401)
(0.129386 -0.00367907 0.00914297)
(0.131628 -5.27884e-05 0.00791377)
(0.124966 0.00283392 0.0101379)
(0.11684 0.00161394 0.0115745)
(0.11622 0.000278023 0.00974666)
(0.117018 0.0014689 0.013199)
(0.116173 0.00185886 0.016273)
(0.120979 0.00107608 0.00686846)
(0.126949 0.00124108 -0.00700566)
(0.132064 0.00375334 -0.00761338)
(0.136475 0.00430569 0.00717293)
(0.143031 0.000683007 0.00807248)
(0.155265 -0.00122125 -0.0022653)
(0.264807 0.00305873 -0.00112816)
(0.290573 0.00384758 0.0155134)
(0.312495 -0.00158439 0.0305524)
(0.299915 -0.00311218 0.0391432)
(0.28266 0.0015041 0.0363775)
(0.265918 0.00600426 0.036137)
(0.241112 0.00547924 0.0318291)
(0.226925 0.00232486 0.0077335)
(0.23539 0.0037226 -0.0200358)
(0.26104 0.007636 -0.0238662)
(0.298744 0.00929644 -0.00993611)
(0.317548 0.00672058 -0.00913782)
(0.31098 0.00664696 -0.00630869)
(0.315745 0.00958205 0.0149601)
(0.325225 0.011674 0.020728)
(0.357785 0.00994609 -0.0120724)
(0.42985 0.00337163 -0.065159)
(0.492923 -0.00691816 -0.108802)
(0.581935 -0.0122502 -0.107753)
(0.674802 -0.0098453 -0.0839847)
(0.739646 -0.0078282 -0.0482375)
(0.759184 -0.00505886 0.00927221)
(0.686117 -0.00148661 0.0297434)
(0.635477 -0.000443199 0.0252224)
(0.59371 -0.0013198 0.0405098)
(0.463174 -0.00550434 0.051736)
(0.295659 -0.0114487 0.0340317)
(0.21521 -0.00920336 0.0133418)
(0.202855 -0.00101456 0.00867037)
(0.199643 0.00524484 0.0134327)
(0.201186 0.00342229 0.0187255)
(0.205468 0.0013733 0.0184432)
(0.20645 0.004158 0.0221406)
(0.198641 0.00473388 0.0231277)
(0.199825 0.00284078 0.00996595)
(0.207527 0.00269724 -0.00528134)
(0.218719 0.00801194 -0.00444333)
(0.235193 0.0105888 0.0140119)
(0.24839 0.00330511 0.0126036)
(0.254678 -0.00213411 -0.00400938)
(0.354897 0.00517941 -0.00560621)
(0.384913 0.0073001 0.0134539)
(0.417385 0.0008656 0.0327195)
(0.407767 -0.00210124 0.0444065)
(0.378888 0.00157205 0.0447318)
(0.368505 0.00891002 0.0470136)
(0.351689 0.0110949 0.043333)
(0.319703 0.0049041 0.00890617)
(0.307403 0.002516 -0.0319794)
(0.327689 0.00797649 -0.038254)
(0.374984 0.0131847 -0.0211687)
(0.410322 0.0123784 -0.0178054)
(0.40671 0.0119761 -0.0134394)
(0.409057 0.015823 0.015488)
(0.413866 0.0215439 0.025631)
(0.450496 0.0187607 -0.0173242)
(0.563722 0.00533195 -0.0801261)
(0.637167 -0.0114383 -0.13556)
(0.686311 -0.0218379 -0.135377)
(0.746444 -0.0245964 -0.0974008)
(0.785615 -0.0244922 -0.0779303)
(0.898281 -0.0139561 -0.0344887)
(0.895648 -0.00195165 0.0115)
(0.815445 -0.00142318 0.0189482)
(0.806719 0.000223053 0.0324286)
(0.771744 0.00241383 0.0603135)
(0.57587 -0.00824974 0.0550982)
(0.357162 -0.0142776 0.0238089)
(0.277706 -0.00471349 0.0103803)
(0.261846 0.00561063 0.0141855)
(0.269229 0.00329962 0.0210119)
(0.283549 0.00109189 0.0217979)
(0.295516 0.00705883 0.0278272)
(0.282522 0.0087233 0.029695)
(0.271667 0.00515595 0.0132974)
(0.275748 0.00365714 -0.00499437)
(0.288205 0.0109877 -0.00372313)
(0.319997 0.0174854 0.0194069)
(0.350059 0.00924377 0.0208737)
(0.352865 -0.000553234 -0.00374544)
(0.439705 0.00899945 -0.0089594)
(0.466535 0.0137296 0.00786284)
(0.481834 0.00616307 0.0264695)
(0.464416 0.00236576 0.0411733)
(0.431952 0.0022932 0.0476164)
(0.43021 0.00894262 0.0584196)
(0.438497 0.0160408 0.059037)
(0.419057 0.0108961 0.0196716)
(0.390854 0.00200304 -0.0369169)
(0.378454 0.003746 -0.0532325)
(0.410529 0.0121185 -0.0360637)
(0.465132 0.0146039 -0.0300357)
(0.486288 0.0165967 -0.0235608)
(0.479144 0.0218561 0.00868127)
(0.472027 0.0310791 0.0204078)
(0.533619 0.028603 -0.0231472)
(0.711853 0.00898022 -0.0676978)
(0.802517 -0.0129668 -0.121934)
(0.812317 -0.0250518 -0.146546)
(0.850377 -0.0307765 -0.0967485)
(0.795174 -0.0407599 -0.0585677)
(0.871612 -0.032236 -0.0335585)
(0.992524 -0.00492291 0.00115072)
(0.930104 0.00139557 0.0162193)
(0.833875 -0.00159179 0.0247811)
(0.858941 0.00794062 0.0526035)
(0.828184 0.00690814 0.0647678)
(0.600545 -0.00714395 0.0352433)
(0.403238 -0.00554189 0.0104596)
(0.337512 0.00425542 0.013011)
(0.329674 0.00011416 0.0227652)
(0.339042 -0.00283735 0.0227365)
(0.359908 0.00741189 0.0270493)
(0.354623 0.0120762 0.0310814)
(0.334784 0.00775111 0.0144036)
(0.331352 0.00425574 -0.00702816)
(0.34066 0.011592 -0.00543282)
(0.379963 0.0221844 0.023188)
(0.424039 0.0158638 0.0297854)
(0.435381 0.00320755 -0.000239789)
(0.502228 0.0124614 -0.00947454)
(0.534437 0.0229125 0.00538022)
(0.537585 0.0163202 0.0179515)
(0.500991 0.0104535 0.0312674)
(0.452011 0.00405612 0.0442607)
(0.443525 0.00430406 0.0674026)
(0.478254 0.0152526 0.0765243)
(0.500319 0.0170103 0.0380084)
(0.490576 0.00621672 -0.0253715)
(0.443222 0.00163261 -0.0571664)
(0.436579 0.00694964 -0.0530569)
(0.493546 0.00927063 -0.0452729)
(0.534865 0.0170077 -0.029387)
(0.519977 0.028106 0.00029731)
(0.499493 0.0398004 0.00571298)
(0.574994 0.0343611 -0.02594)
(0.797991 0.0120757 -0.0385549)
(0.911566 -0.00783157 -0.0771561)
(0.869096 -0.0239794 -0.13838)
(0.91868 -0.0315215 -0.11896)
(0.858083 -0.0472125 -0.0633752)
(0.825997 -0.050871 -0.0257686)
(0.985153 -0.0143737 0.00122806)
(1.001 0.00842086 0.0177472)
(0.85947 0.00308175 0.0235623)
(0.823033 0.00947913 0.0429728)
(0.893222 0.0192648 0.0685317)
(0.80876 0.0113387 0.047188)
(0.593199 0.00444785 0.00741066)
(0.474708 0.00627416 -0.00111923)
(0.437004 -0.0041572 0.0131331)
(0.405486 -0.00996821 0.0236841)
(0.407077 0.00392983 0.0268375)
(0.401653 0.0125479 0.0281882)
(0.381649 0.00831301 0.0109683)
(0.376635 0.00387597 -0.0123828)
(0.382784 0.00998279 -0.010533)
(0.423484 0.0237911 0.0249721)
(0.471481 0.0212351 0.0378748)
(0.487965 0.0061835 0.00428545)
(0.550813 0.0133986 -0.00932407)
(0.579183 0.0320999 0.00257042)
(0.580686 0.0299329 0.00868414)
(0.549628 0.022465 0.0182566)
(0.489431 0.0101235 0.0314666)
(0.448644 -0.000887395 0.0622371)
(0.48402 0.00726017 0.0886807)
(0.555592 0.0171092 0.0629072)
(0.586724 0.0114802 0.00228878)
(0.524315 0.00552201 -0.0460967)
(0.478409 0.00341658 -0.0630036)
(0.519382 -0.00111104 -0.0528838)
(0.561103 0.0130994 -0.0294207)
(0.540853 0.0338705 -0.0143246)
(0.523997 0.0452717 -0.0165235)
(0.605218 0.0337319 -0.0194404)
(0.815673 0.00992745 -0.00919234)
(0.933521 -0.00211758 -0.0410766)
(0.864869 -0.0195151 -0.111835)
(0.912706 -0.034673 -0.121206)
(0.917903 -0.0507459 -0.0783422)
(0.822697 -0.0627831 -0.0327119)
(0.935036 -0.0257375 -0.00112726)
(1.01428 0.0134548 0.0152266)
(0.904819 0.0139538 0.0241446)
(0.809283 0.013865 0.032904)
(0.871528 0.0251125 0.0629494)
(0.905252 0.028338 0.0665173)
(0.771584 0.0226118 0.0190328)
(0.685777 0.0158856 -0.025585)
(0.651979 -0.0039127 -0.0290552)
(0.537661 -0.0155609 0.00500073)
(0.46974 -0.00178588 0.0289207)
(0.442581 0.0101593 0.0321077)
(0.416842 0.00570915 0.0112586)
(0.413137 0.000822683 -0.0183094)
(0.420016 0.0063397 -0.0194835)
(0.456032 0.0232283 0.0229089)
(0.498814 0.0252334 0.0445621)
(0.52474 0.00724561 0.0105645)
(0.592162 0.0120836 -0.0112817)
(0.605596 0.0407693 0.00106143)
(0.610983 0.0451488 0.00651858)
(0.623995 0.0347462 0.00655768)
(0.594173 0.0172829 0.000449303)
(0.523716 -0.00236712 0.0230701)
(0.517895 -0.00461157 0.0836001)
(0.60183 0.00886621 0.0949507)
(0.659398 0.0140829 0.0444455)
(0.603172 0.0115642 -0.0183388)
(0.546026 0.00161806 -0.0545813)
(0.55334 -0.0127626 -0.0468698)
(0.574322 0.00596814 -0.02738)
(0.5666 0.0365961 -0.0290192)
(0.562499 0.0480542 -0.0282881)
(0.63252 0.0313162 0.00240402)
(0.812074 0.0066868 0.0293839)
(0.929342 0.00318912 -0.00710392)
(0.861678 -0.0114465 -0.0804999)
(0.889738 -0.0368039 -0.101682)
(0.956496 -0.0541714 -0.0766999)
(0.856954 -0.0717706 -0.0457649)
(0.888581 -0.0395034 -0.0081649)
(1.00075 0.014967 0.0112977)
(0.949545 0.0280708 0.0264456)
(0.834545 0.0254907 0.0327648)
(0.861625 0.0300453 0.0495799)
(0.918074 0.0385645 0.0695947)
(0.835938 0.0405836 0.0481983)
(0.831396 0.0280379 -0.0143395)
(0.893898 0.00214389 -0.0673361)
(0.75029 -0.0124573 -0.0498479)
(0.583065 -0.00242632 0.0119687)
(0.515122 0.00847668 0.0447344)
(0.47177 0.00114765 0.0288349)
(0.454395 -0.00535457 -0.0139107)
(0.454446 0.000795419 -0.0256987)
(0.475852 0.0207655 0.0185961)
(0.515248 0.0274677 0.0460269)
(0.564742 0.00685518 0.0118663)
(0.635123 0.00939182 -0.010888)
(0.607159 0.0478896 0.016281)
(0.599316 0.0596599 0.0150815)
(0.708259 0.0463186 -0.0198078)
(0.769512 0.0323052 -0.0646018)
(0.695057 0.0144167 -0.0589973)
(0.647486 -0.005157 0.0366875)
(0.691241 -0.00371922 0.114676)
(0.726456 0.0126645 0.0894146)
(0.671778 0.0174227 0.0218546)
(0.637067 0.00119521 -0.0232422)
(0.619467 -0.0250862 -0.0248401)
(0.594085 -0.0066765 -0.0229699)
(0.594297 0.0353956 -0.0389198)
(0.603574 0.0522769 -0.0252492)
(0.662963 0.0311888 0.0379798)
(0.802598 0.00237299 0.0781153)
(0.905261 0.00776491 0.0341478)
(0.845545 -0.000959482 -0.0451205)
(0.855404 -0.038118 -0.0740778)
(0.964294 -0.0571668 -0.0573428)
(0.905083 -0.0752442 -0.0511792)
(0.849249 -0.0551829 -0.0248244)
(0.967613 0.00797929 0.00462657)
(0.979692 0.0394633 0.030471)
(0.878544 0.0419561 0.0456963)
(0.868379 0.038351 0.0487489)
(0.91606 0.0465424 0.0633701)
(0.87146 0.0583812 0.0559004)
(0.856055 0.0403021 0.00889996)
(0.914715 0.000538105 -0.040384)
(0.853092 -0.0141366 -0.0789716)
(0.719706 0.000510359 -0.0383072)
(0.656839 0.00910292 0.0370059)
(0.602779 -0.00235064 0.0547298)
(0.537565 -0.0122472 0.00702666)
(0.501445 -0.00486692 -0.0224645)
(0.483882 0.0176187 0.0154168)
(0.521832 0.0253563 0.0402715)
(0.610912 0.00359439 0.00642231)
(0.647603 0.0058011 0.00795736)
(0.576964 0.0593388 0.0281113)
(0.572097 0.0695217 0.00611957)
(0.718057 0.0368652 -0.0249272)
(0.839361 0.0254493 -0.0894922)
(0.787276 0.0297892 -0.112529)
(0.748667 0.00959077 -0.0224999)
(0.783539 -0.0104744 0.0914153)
(0.795985 0.00988939 0.112064)
(0.756742 0.0226949 0.0668406)
(0.770891 0.00134369 0.0244999)
(0.756476 -0.0362395 0.00899748)
(0.650725 -0.0221567 -0.00996977)
(0.617023 0.030026 -0.040144)
(0.6322 0.054762 -0.0122323)
(0.699551 0.0330124 0.0728219)
(0.809354 0.000614547 0.115754)
(0.880649 0.0113492 0.0693011)
(0.83139 0.0100627 -0.0110954)
(0.835237 -0.0375231 -0.0463726)
(0.957931 -0.0621796 -0.0335131)
(0.96644 -0.0730344 -0.0409923)
(0.840477 -0.0642259 -0.0463242)
(0.910392 -0.00743266 -0.0105202)
(0.979759 0.0413577 0.0293612)
(0.917343 0.0587188 0.0550873)
(0.890465 0.0499798 0.0601837)
(0.916489 0.0493572 0.0638106)
(0.889996 0.0707454 0.05092)
(0.8646 0.0600978 0.00676755)
(0.907306 0.0109855 -0.0117922)
(0.85241 -0.017966 -0.0451467)
(0.76841 -0.0052058 -0.0814247)
(0.812591 0.00986818 -0.03327)
(0.829548 0.00100458 0.0335939)
(0.721564 -0.0130235 0.0213683)
(0.604054 -0.00585915 -0.0124474)
(0.514579 0.0160578 0.0106394)
(0.534163 0.0170538 0.0272905)
(0.644137 -0.0083804 0.0101949)
(0.62793 0.0027857 0.0147199)
(0.541408 0.0645552 0.00499585)
(0.56376 0.07303 -0.00384042)
(0.686627 0.0314645 -0.00152963)
(0.811758 0.0198014 -0.0600239)
(0.797403 0.0400339 -0.0946659)
(0.778836 0.0237763 -0.0272489)
(0.788281 -0.00979915 0.0621838)
(0.788024 0.00340562 0.106593)
(0.803289 0.0177567 0.102185)
(0.899713 -0.000694235 0.0711307)
(0.941429 -0.0400623 0.0346792)
(0.758343 -0.0330943 0.00825567)
(0.634784 0.0259329 -0.0268085)
(0.650585 0.0548777 0.00751974)
(0.741303 0.0310485 0.091707)
(0.832855 -0.000819085 0.131989)
(0.868196 0.0129929 0.0865637)
(0.828219 0.018167 0.018664)
(0.841876 -0.0344655 -0.0126108)
(0.952263 -0.0685327 -0.0126254)
(1.01432 -0.07028 -0.0216896)
(0.870696 -0.0632434 -0.0563277)
(0.850784 -0.0225028 -0.0343809)
(0.948062 0.0336761 0.0227884)
(0.937733 0.0678878 0.0599627)
(0.931427 0.0623808 0.0733668)
(0.938232 0.0532593 0.0699587)
(0.880715 0.0796646 0.0423881)
(0.844277 0.0790189 -0.00998539)
(0.934801 0.0307455 -0.0147668)
(0.911285 -0.0070116 -0.0154273)
(0.765035 -0.0144377 -0.0650632)
(0.79645 -0.00286966 -0.0724952)
(0.938493 0.00134157 -0.027746)
(0.922232 -0.00605488 -0.00445527)
(0.768125 0.00553243 -0.0116962)
(0.614185 0.0245305 0.00315873)
(0.602742 0.00963362 0.0218687)
(0.677292 -0.0210198 0.0248535)
(0.639306 0.000631607 -0.00105798)
(0.545265 0.062794 -0.0245864)
(0.576928 0.076101 0.00443841)
(0.664761 0.030954 0.0254449)
(0.779057 0.0166711 -0.0295191)
(0.795102 0.05107 -0.0654287)
(0.805138 0.0390797 -0.0243044)
(0.794257 -0.00268275 0.0280214)
(0.759468 -0.00211497 0.0778801)
(0.792068 0.00290572 0.111314)
(0.927291 -0.013353 0.0907727)
(1.05271 -0.0410887 0.0303162)
(0.878124 -0.0305128 0.00586373)
(0.658088 0.0246314 -0.00245583)
(0.682402 0.037414 0.0314313)
(0.797225 0.01106 0.0964352)
(0.867081 -0.00718254 0.131257)
(0.869283 0.0131988 0.0942908)
(0.847365 0.0207393 0.0493767)
(0.866215 -0.0309298 0.0282602)
(0.951778 -0.071312 0.00709244)
(1.04239 -0.0669259 -0.010058)
(0.926737 -0.0543802 -0.0524084)
(0.82268 -0.0306656 -0.0562145)
(0.895217 0.020086 0.00373729)
(0.93316 0.0686191 0.0564598)
(0.967686 0.0703702 0.0827266)
(0.97639 0.0595785 0.0796421)
(0.877505 0.0912016 0.0365921)
(0.827516 0.0919019 -0.0218435)
(0.956271 0.0402477 -0.0208841)
(0.991142 0.0086188 -0.0147269)
(0.838206 -0.00817411 -0.0468368)
(0.77284 -0.0172105 -0.0574308)
(0.89319 -0.0137686 -0.0460479)
(0.974806 -0.00469797 -0.0330506)
(0.86796 0.0216976 -0.018493)
(0.741767 0.0368755 0.00622509)
(0.751773 0.00558026 0.0386491)
(0.761202 -0.0258226 0.0369807)
(0.716573 0.00706574 -0.019895)
(0.591492 0.058795 -0.0336738)
(0.605231 0.0759588 0.0257049)
(0.676767 0.0350572 0.037162)
(0.758685 0.0172725 -0.0214884)
(0.790384 0.0566581 -0.042584)
(0.828093 0.0484161 -0.0211866)
(0.811176 0.00672017 -0.00674037)
(0.776752 -0.0044812 0.0306661)
(0.819344 -0.0145771 0.0760058)
(0.935298 -0.0362361 0.0726905)
(1.0573 -0.0501754 0.0163789)
(0.940461 -0.0230655 -0.0194648)
(0.737961 0.0223735 -0.0146177)
(0.752071 0.0147082 0.0157697)
(0.843704 -0.0109883 0.0704884)
(0.905798 -0.0128392 0.114581)
(0.899352 0.0118372 0.105035)
(0.892197 0.01879 0.0796853)
(0.897926 -0.0265207 0.0561196)
(0.945354 -0.0690271 0.022332)
(1.04732 -0.0615027 -0.00968128)
(0.979465 -0.0409608 -0.0476894)
(0.843777 -0.0279524 -0.0626806)
(0.84792 0.0102931 -0.020932)
(0.902404 0.0615441 0.036637)
(0.998383 0.0700419 0.0828383)
(1.01019 0.0672575 0.0881589)
(0.874174 0.103712 0.03194)
(0.842705 0.102404 -0.0207876)
(0.994154 0.0459218 -0.00997548)
(1.04097 0.016571 -0.0104385)
(0.923546 -0.000298514 -0.032405)
(0.821928 -0.019697 -0.0262847)
(0.850431 -0.0211459 -0.0235215)
(0.925686 -0.00434561 -0.0361497)
(0.880625 0.0360058 -0.0357131)
(0.848907 0.0458082 0.0128133)
(0.920605 0.00440212 0.080953)
(0.890891 -0.0182525 0.0576791)
(0.78745 0.0215595 -0.0185565)
(0.64664 0.058984 -0.0245887)
(0.637758 0.0712121 0.0496323)
(0.708811 0.0402823 0.0636571)
(0.779185 0.0262666 -0.00585007)
(0.796887 0.0602352 -0.0337338)
(0.825819 0.0542701 -0.027317)
(0.838776 0.0128919 -0.0378352)
(0.864817 -0.0128966 -0.0219899)
(0.909522 -0.03773 0.0247686)
(0.987927 -0.0599417 0.0463101)
(1.07092 -0.0601216 0.00806173)
(0.962547 -0.0192141 -0.0360108)
(0.800535 0.022907 -0.0352028)
(0.786763 0.00735417 -0.00987489)
(0.832157 -0.0195823 0.0357191)
(0.91734 -0.0144686 0.0899699)
(0.946585 0.0112907 0.109405)
(0.931533 0.0162017 0.0900083)
(0.912069 -0.0268666 0.0569719)
(0.920188 -0.0703507 0.0230761)
(1.01796 -0.0608896 -0.013077)
(1.00753 -0.0293363 -0.046239)
(0.884886 -0.0196849 -0.0601586)
(0.832376 0.00712372 -0.0451931)
(0.859485 0.0511727 0.0073806)
(1.00318 0.0640145 0.0794003)
(1.04551 0.0759863 0.0871693)
(0.877857 0.112861 0.0278666)
(0.845389 0.101932 -0.000261409)
(1.03392 0.0432574 0.0138396)
(1.10551 0.0197549 0.00960586)
(0.978207 0.00217103 -0.00514697)
(0.869995 -0.0228823 -0.00755415)
(0.866072 -0.0189073 -0.021893)
(0.86276 0.00543469 -0.0483068)
(0.816092 0.0460833 -0.0408745)
(0.877984 0.0396982 0.035914)
(0.993319 -0.00802667 0.117604)
(0.957772 -0.0130496 0.0835613)
(0.782262 0.0336644 -0.00102448)
(0.655507 0.0620712 -0.00366897)
(0.6426 0.0595601 0.0580026)
(0.704833 0.0383914 0.0919752)
(0.77452 0.0371874 0.0425476)
(0.81576 0.0690258 -0.0179585)
(0.852763 0.0636092 -0.0433413)
(0.888682 0.0213346 -0.0596246)
(0.943205 -0.0102217 -0.0584451)
(0.971859 -0.0415768 -0.0109687)
(0.987252 -0.0685205 0.0361242)
(1.04502 -0.0602761 0.0131366)
(0.958467 -0.0120892 -0.0376011)
(0.818782 0.0220385 -0.0456998)
(0.801358 0.00139543 -0.0315532)
(0.815435 -0.0289464 -0.00151308)
(0.881151 -0.0227217 0.0505591)
(0.92101 0.00799421 0.0874791)
(0.913458 0.0143408 0.0738591)
(0.923533 -0.0211181 0.036317)
(0.922988 -0.0606139 0.00507617)
(0.977015 -0.0554471 -0.0217732)
(1.00571 -0.0180671 -0.0469052)
(0.910059 -0.00775621 -0.0601467)
(0.825461 0.011354 -0.0616764)
(0.82468 0.0386544 -0.01389)
(0.970135 0.043212 0.0730457)
(1.06422 0.0756409 0.0805695)
(0.918331 0.118852 0.0298446)
(0.869358 0.0965858 0.0295173)
(1.04368 0.0358848 0.0467195)
(1.16339 0.0270278 0.0424748)
(1.05812 0.0132562 0.0263594)
(0.908352 -0.0294449 0.00506406)
(0.874881 -0.0188571 -0.0336845)
(0.836363 0.0252051 -0.074052)
(0.780379 0.0461248 -0.0431997)
(0.866958 0.00360399 0.04682)
(0.975766 -0.0421909 0.107359)
(0.942127 -0.0195521 0.0781478)
(0.803759 0.0412846 0.000685511)
(0.715795 0.0622312 -0.00131705)
(0.706108 0.0446613 0.040747)
(0.743436 0.0218689 0.105268)
(0.783935 0.0308942 0.107418)
(0.814138 0.0674622 0.0281635)
(0.84676 0.0700325 -0.0305309)
(0.88104 0.0305487 -0.0406235)
(0.951802 -0.00684313 -0.0390143)
(1.00164 -0.0326254 -0.00316911)
(0.976292 -0.0612152 0.0482355)
(0.993763 -0.0570357 0.0370934)
(0.979434 -0.00747061 -0.0185118)
(0.892413 0.0179265 -0.0483421)
(0.865459 -0.00464546 -0.0523325)
(0.841959 -0.0312282 -0.0412961)
(0.84741 -0.0253121 -0.00696561)
(0.867701 0.0054918 0.032227)
(0.87546 0.0092099 0.0277407)
(0.912818 -0.0187977 0.00375793)
(0.931935 -0.0466113 -0.0113823)
(0.953245 -0.0440802 -0.0284821)
(1.00823 -0.00800565 -0.0473861)
(0.948969 0.00548809 -0.057671)
(0.83748 0.0182266 -0.0628509)
(0.822395 0.0254847 -0.0392634)
(0.928492 0.00880702 0.0285683)
(1.02724 0.0545951 0.0522957)
(0.944763 0.115012 0.0308108)
(0.907391 0.0843725 0.0466909)
(1.03448 0.016768 0.0715674)
(1.16671 0.0216957 0.0783822)
(1.13194 0.0269487 0.0536962)
(0.978552 -0.0242258 0.0126515)
(0.87769 -0.0235581 -0.0263526)
(0.828491 0.0349869 -0.0721001)
(0.804229 0.0524032 -0.0629169)
(0.884807 -0.00539635 0.0059391)
(0.949187 -0.051042 0.0522837)
(0.918523 -0.017829 0.0405201)
(0.819972 0.04141 -0.00520925)
(0.777041 0.0672763 0.00765801)
(0.765847 0.055661 0.0230405)
(0.770855 0.0269441 0.0663569)
(0.797108 0.0361755 0.104612)
(0.801168 0.075966 0.048216)
(0.803604 0.0767638 -0.0165206)
(0.828584 0.0309848 -0.021564)
(0.911433 -0.0194893 -0.0113962)
(1.02565 -0.0417468 0.011828)
(1.03715 -0.0547684 0.0446013)
(0.958824 -0.0488132 0.0357328)
(0.932693 -0.0103437 -0.00755291)
(0.966629 0.00483219 -0.0372537)
(1.00705 -0.0151396 -0.0460595)
(0.965971 -0.0322839 -0.0516856)
(0.894585 -0.0273795 -0.0395968)
(0.867442 0.00329028 -0.00578108)
(0.880697 0.0126215 -0.00566565)
(0.921293 -0.00760176 -0.0238964)
(0.95086 -0.023842 -0.02896)
(0.957582 -0.0216702 -0.0379313)
(0.990903 0.00864183 -0.0501643)
(0.947374 0.0268865 -0.0518196)
(0.827796 0.0315951 -0.0563636)
(0.812723 0.0196566 -0.0705912)
(0.904567 -0.00914744 -0.043858)
(0.969765 0.0346564 0.00357518)
(0.930994 0.0970198 0.020524)
(0.941495 0.0652673 0.0396405)
(1.03873 -0.0109563 0.0764268)
(1.12141 -0.00597847 0.103812)
(1.14003 0.0284676 0.0761006)
(1.04971 -0.0101226 0.0204986)
(0.904017 -0.0225012 -0.0163392)
(0.817002 0.0325539 -0.0601632)
(0.805618 0.0481822 -0.0780741)
(0.904114 -0.00837306 -0.0262982)
(0.963905 -0.0468004 0.0175048)
(0.913187 -0.0136065 0.00600393)
(0.837026 0.0507556 0.004152)
(0.764106 0.0722302 0.0136039)
(0.73162 0.0651673 0.00253731)
(0.743343 0.0285487 0.0128544)
(0.785993 0.0288248 0.0478742)
(0.797419 0.0702716 0.0271543)
(0.810676 0.0687397 -0.0105117)
(0.849541 0.0190259 -0.00898187)
(0.917072 -0.0342984 0.00102126)
(1.00952 -0.0545365 0.0217893)
(1.05793 -0.0482858 0.050722)
(0.991756 -0.0355246 0.0346673)
(0.925501 -0.0170603 -0.0228419)
(0.959084 -0.014101 -0.0575535)
(1.01332 -0.0245092 -0.0421067)
(1.00405 -0.0270806 -0.0206513)
(0.926878 -0.0227867 -0.0112717)
(0.85638 -0.000403418 -0.00290044)
(0.874482 0.0129854 -0.0235231)
(0.928881 -0.000505753 -0.0478526)
(0.973186 -0.00912861 -0.0463209)
(0.998371 0.00163333 -0.0457761)
(0.981041 0.0329284 -0.0534711)
(0.913512 0.0512652 -0.0545221)
(0.817869 0.0415531 -0.0638169)
(0.810084 0.00326291 -0.100671)
(0.889444 -0.0360328 -0.10149)
(0.948214 0.0053156 -0.0423212)
(0.939621 0.0662884 -0.00152844)
(0.943912 0.0424478 0.0153197)
(1.0169 -0.0237114 0.0471766)
(1.05079 -0.0190249 0.093532)
(1.09449 0.0199357 0.0981096)
(1.1203 -0.0046478 0.055946)
(0.994478 -0.0214363 0.00884321)
(0.878281 0.020693 -0.0440986)
(0.864053 0.0344918 -0.089384)
(0.944876 -0.0177553 -0.0579851)
(0.985905 -0.0448789 -0.0082933)
(0.935463 0.000345889 -0.00249945)
(0.86938 0.0622212 0.0112558)
(0.79665 0.0875015 0.0149455)
(0.765737 0.0811019 0.0121764)
(0.79443 0.0337438 0.0230687)
(0.815901 0.0204504 0.0444216)
(0.811974 0.0587997 0.0435643)
(0.853965 0.0586316 0.0354468)
(0.916274 0.0165744 0.0360493)
(0.958772 -0.0309301 0.0308549)
(0.98946 -0.058639 0.0291201)
(1.02386 -0.0528809 0.0499412)
(1.02821 -0.0302076 0.0511883)
(1.00277 -0.0137339 -0.00436708)
(1.00491 -0.0168208 -0.0599286)
(1.00455 -0.0232714 -0.0518626)
(0.986597 -0.0166659 -0.00973065)
(0.956272 -0.0080005 0.0209321)
(0.90701 0.00153511 0.0375822)
(0.925372 0.00494124 0.0207939)
(0.979403 0.000125257 -0.0181807)
(0.977825 0.00212466 -0.0414141)
(0.950791 0.0219626 -0.0470662)
(0.920934 0.0548476 -0.0496708)
(0.918891 0.0630026 -0.0481677)
(0.944376 0.0352212 -0.0537196)
(0.980526 -0.0173931 -0.0927604)
(0.997604 -0.0596664 -0.12535)
(0.975504 -0.0194899 -0.0875777)
(0.952205 0.046418 -0.0274278)
(0.950092 0.031712 0.0090308)
(0.979939 -0.0309231 0.0283781)
(1.01548 -0.0330597 0.0613906)
(1.08378 -0.000250314 0.0896425)
(1.12735 -0.00903279 0.0755699)
(1.03417 -0.0190769 0.0372993)
(0.933576 0.00150535 -0.00922192)
(0.9369 0.0108335 -0.0572327)
(1.01217 -0.0188833 -0.050151)
(1.01916 -0.0299564 -0.0133363)
(0.949524 0.0121403 0.00140242)
(0.839733 0.0840986 0.0034724)
(0.771782 0.0912879 0.00744266)
(0.75484 0.072191 0.0189021)
(0.807122 0.0265156 0.0296967)
(0.848138 0.00632727 0.0450076)
(0.84845 0.0286969 0.0647957)
(0.888765 0.0208873 0.066951)
(0.945434 -0.00934505 0.0507137)
(0.981156 -0.0395544 0.0382068)
(1.00053 -0.0608708 0.0328151)
(1.00956 -0.0584709 0.0350435)
(1.01718 -0.0356163 0.0390105)
(1.02641 -0.0131337 0.0125111)
(1.04282 -0.012545 -0.0351292)
(1.02829 -0.0203572 -0.0418644)
(0.995159 -0.0181078 -0.00896669)
(0.982772 -0.00962393 0.0140601)
(0.96785 -0.0061972 0.0382686)
(0.972457 -0.0112941 0.0478379)
(0.999815 -0.00620949 0.0200239)
(0.988108 0.0141349 -0.0134295)
(0.938344 0.0375374 -0.0290341)
(0.901877 0.0556281 -0.0397)
(0.901393 0.0467178 -0.0578779)
(0.934221 0.0109573 -0.0719636)
(0.987272 -0.034951 -0.0922487)
(1.0173 -0.0627839 -0.124246)
(0.994798 -0.0256739 -0.115511)
(0.964434 0.0354846 -0.0565438)
(0.982378 0.0358742 0.000680957)
(1.01313 -0.0163746 0.0131281)
(1.02183 -0.0377031 0.0260368)
(1.07778 -0.0130921 0.066162)
(1.1308 -0.00125171 0.0712427)
(1.07126 -0.00455452 0.0422956)
(0.976192 -0.00129294 0.00649407)
(0.956692 -0.00755269 -0.0303343)
(1.01189 -0.0331201 -0.0296997)
(1.01353 -0.0245787 -0.00593674)
(0.931916 0.0340865 0.00268384)
(0.761468 0.113254 -0.00267078)
(0.743865 0.111377 -0.00856195)
(0.782539 0.0766868 -0.0098102)
(0.861786 0.0224797 -0.00705109)
(0.925504 -0.00808436 0.00237005)
(0.949744 0.000574929 0.0323031)
(0.97474 7.72764e-05 0.0486736)
(0.999444 -0.011769 0.0341345)
(1.00697 -0.0311574 0.0246881)
(1.00642 -0.0530362 0.0301786)
(1.00858 -0.0565161 0.0312992)
(1.01587 -0.0387637 0.0248737)
(1.03205 -0.0174312 0.00604978)
(1.05218 -0.0126198 -0.026053)
(1.03987 -0.015568 -0.0332479)
(1.00534 -0.0149215 -0.0015103)
(0.996964 -0.0097118 0.0195333)
(1.0029 -0.00953859 0.0330145)
(1.00211 -0.0176346 0.0493028)
(0.993295 -0.00749354 0.0389182)
(0.97007 0.0248805 0.00738595)
(0.940292 0.0548867 -0.0153616)
(0.938324 0.0657426 -0.0289998)
(0.959467 0.0470892 -0.0529697)
(0.968792 0.00811959 -0.0733848)
(0.975741 -0.0376787 -0.0804926)
(0.983854 -0.0654762 -0.0966985)
(0.976531 -0.0347238 -0.103877)
(0.965218 0.0259004 -0.0680599)
(0.998008 0.0365675 -0.0179004)
(1.04648 -0.00156097 -0.00855734)
(1.05059 -0.0244539 -0.0113294)
(1.06694 -0.013837 0.0255027)
(1.107 0.00533522 0.056228)
(1.09809 0.0142435 0.0402838)
(1.04126 0.00839094 -0.00257958)
(1.00175 -0.0124437 -0.0352402)
(1.00528 -0.0343186 -0.0295794)
(0.95853 -0.0119693 -0.0118759)
(0.845561 0.0601034 -0.00563312)
(0.763119 0.1092 0.00403473)
(0.799203 0.090502 0.00165847)
(0.862325 0.0512283 -0.00837109)
(0.917982 0.0092221 -0.0104079)
(0.946273 -0.0118797 -0.00987632)
(0.967483 -0.00871711 0.00664868)
(0.988999 -0.00989668 0.0241729)
(1.00256 -0.0120468 0.0161834)
(1.00405 -0.0179933 0.00553912)
(0.99735 -0.0331912 0.013538)
(0.997673 -0.04656 0.024863)
(1.01031 -0.0439852 0.0205976)
(1.02837 -0.0251304 0.000581347)
(1.04255 -0.00936974 -0.0237043)
(1.03454 -0.00457746 -0.0318638)
(1.01341 -0.00965163 -0.00636537)
(1.00555 -0.0140117 0.0211937)
(1.00961 -0.0168019 0.0332863)
(1.00852 -0.0231944 0.0453404)
(0.989255 -0.0092309 0.0459606)
(0.958222 0.0270074 0.0233619)
(0.9332 0.0604166 -0.00848147)
(0.943002 0.0713663 -0.0285483)
(0.980154 0.0491011 -0.0438849)
(0.998588 0.00566357 -0.061761)
(0.995843 -0.0380449 -0.0703949)
(0.980696 -0.0607886 -0.0771048)
(0.966047 -0.0400301 -0.0798951)
(0.973121 0.00619047 -0.0607528)
(1.02222 0.0221934 -0.0262566)
(1.07219 0.00137165 -0.015422)
(1.06748 -0.016495 -0.02637)
(1.06436 -0.0163827 -0.00738249)
(1.08891 0.000716711 0.0306559)
(1.09083 0.0214117 0.0321345)
(1.06772 0.0201376 -0.00999519)
(1.03272 -0.00963633 -0.0457081)
(0.994695 -0.0312895 -0.0375935)
(0.910114 0.00203927 -0.0153379)
(0.799326 0.0726741 -0.00543848)
(0.876612 0.0706557 0.00138151)
(0.908093 0.0596096 0.00563184)
(0.938836 0.0350568 -6.91101e-05)
(0.955169 0.0135324 0.000192223)
(0.957003 0.00553739 -0.000268847)
(0.962114 0.00679311 0.00212662)
(0.973508 0.00497515 0.00946855)
(0.981108 0.00696501 -0.000604126)
(0.985894 0.00301891 -0.0157979)
(0.989489 -0.00985677 -0.00989223)
(0.997774 -0.0230468 0.0110591)
(1.01285 -0.0300267 0.0175001)
(1.02849 -0.0224826 -0.00254949)
(1.03719 -0.0100211 -0.0251478)
(1.02734 -0.00407685 -0.0330163)
(1.0106 -0.00841913 -0.0166062)
(1.0039 -0.0139015 0.0117193)
(1.00019 -0.0186293 0.0331299)
(0.993418 -0.0255702 0.0450313)
(0.9782 -0.00934217 0.0463536)
(0.957298 0.0258487 0.0332964)
(0.936694 0.0567508 0.000841551)
(0.940535 0.0735013 -0.026538)
(0.977436 0.061815 -0.0381009)
(1.00195 0.0223856 -0.0506053)
(0.996769 -0.0222431 -0.0612576)
(0.974382 -0.0434895 -0.0698523)
(0.9544 -0.0346289 -0.0756218)
(0.9673 -0.0125524 -0.0650146)
(1.02102 -0.00013054 -0.0340251)
(1.07233 0.000480459 -0.011269)
(1.07155 -0.00458264 -0.0175741)
(1.05265 -0.0113483 -0.0187966)
(1.05055 -0.000746579 0.00306647)
(1.04887 0.0250683 0.0222739)