# y+ ()       
# Time        	patch         	min           	max           	average       
18            	bottomWall	1.121142e+00	3.888248e+00	2.085961e+00
18            	topWall	1.239324e+00	3.515429e+00	2.078049e+00
