# y+ ()       
# Time        	patch         	min           	max           	average       
35            	bottomWall	1.234778e+00	3.703618e+00	2.110349e+00
35            	topWall	1.268976e+00	3.699436e+00	2.051083e+00
