/*--------------------------------*- C++ -*----------------------------------*\
  =========                 |
  \\      /  F ield         | OpenFOAM: The Open Source CFD Toolbox
   \\    /   O peration     | Website:  https://openfoam.org
    \\  /    A nd           | Version:  10
     \\/     M anipulation  |
\*---------------------------------------------------------------------------*/
FoamFile
{
    format      ascii;
    class       volSymmTensorField;
    location    "80";
    object      UPrime2Mean;
}
// * * * * * * * * * * * * * * * * * * * * * * * * * * * * * * * * * * * * * //

dimensions      [0 2 -2 0 0 0 0];

internalField   nonuniform List<symmTensor> 
25600
(
(0.00320442 9.84612e-07 5.68821e-05 1.72008e-07 -2.42866e-07 0.00022542)
(0.00314512 1.83283e-06 0.000131067 1.85865e-07 -3.2307e-07 0.00021392)
(0.0031023 2.29293e-07 0.000129592 1.9404e-07 -2.16456e-07 0.00019639)
(0.00301427 -3.44973e-06 9.28964e-05 2.08218e-07 2.35725e-08 0.000190771)
(0.00312064 -2.79384e-06 2.36498e-05 2.15422e-07 2.18193e-07 0.000197019)
(0.00315286 4.04226e-07 3.38334e-05 2.10102e-07 1.28106e-07 0.000201125)
(0.00307805 4.50641e-07 6.40396e-05 2.11292e-07 1.07804e-07 0.00020715)
(0.0030799 -1.48287e-06 6.68651e-05 2.19736e-07 3.83477e-07 0.00022749)
(0.0032132 -4.31538e-06 5.19109e-05 2.4733e-07 4.26113e-07 0.000240642)
(0.00327973 -3.26568e-06 4.27937e-05 2.5776e-07 3.24763e-07 0.000235805)
(0.00336909 -6.49246e-07 8.39097e-05 2.51689e-07 -5.17654e-10 0.000227155)
(0.00326241 1.18559e-07 0.000129581 2.48004e-07 -1.25551e-07 0.000231023)
(0.00330559 -1.48809e-06 0.000136144 2.38039e-07 -2.94624e-07 0.000236332)
(0.00320088 -4.37854e-06 9.74713e-05 2.35672e-07 3.15535e-08 0.000235216)
(0.00335512 -4.82291e-06 6.93732e-05 2.54771e-07 3.9017e-07 0.000232322)
(0.00330258 -9.18895e-07 0.000114735 2.7649e-07 3.42113e-09 0.000240601)
(0.00331791 1.21638e-06 0.000145831 2.799e-07 -7.16664e-07 0.000251361)
(0.00320396 -3.00591e-06 0.000141706 2.67789e-07 -9.57021e-07 0.00023826)
(0.00330113 -6.87024e-06 7.24867e-05 2.66601e-07 -6.43891e-07 0.00022018)
(0.00335837 -6.30555e-06 2.89457e-05 2.41361e-07 -1.89732e-07 0.000215593)
(0.00334575 -1.18064e-06 7.30747e-05 2.12336e-07 -2.12464e-07 0.000212937)
(0.00317893 -1.42397e-07 0.000120628 2.02105e-07 -3.88963e-07 0.000208774)
(0.00310485 -1.76465e-06 0.000121479 1.85809e-07 -6.91485e-07 0.000211179)
(0.00322861 -4.32682e-06 7.29406e-05 1.75607e-07 -7.07207e-07 0.000218033)
(0.00325986 -3.53022e-06 1.82639e-05 1.55361e-07 -4.3637e-07 0.000217675)
(0.00334779 -5.73858e-07 2.95818e-05 1.37898e-07 -3.07654e-07 0.000212808)
(0.00313304 1.87421e-06 8.3661e-05 1.42029e-07 -1.82345e-07 0.000207015)
(0.00301619 -1.03638e-06 0.000102578 1.40802e-07 -4.4569e-07 0.000202519)
(0.00306906 -3.84907e-06 3.82244e-05 1.55254e-07 -8.29332e-07 0.000192474)
(0.00307814 -3.58607e-06 1.56593e-05 1.54865e-07 -8.84404e-07 0.000185886)
(0.00307466 4.55308e-07 2.35855e-05 1.54697e-07 -6.5944e-07 0.00018156)
(0.00303457 2.128e-06 6.33241e-05 1.71097e-07 -2.87746e-07 0.00017984)
(0.00293364 -1.11509e-06 6.31267e-05 1.82299e-07 -1.65746e-08 0.00018568)
(0.00294614 -4.5824e-06 2.32459e-05 1.94758e-07 6.31043e-09 0.000207677)
(0.00304887 -4.29452e-06 -2.38667e-06 1.86277e-07 -5.99388e-08 0.000223013)
(0.00310426 3.85636e-07 2.67158e-05 1.75727e-07 -2.32792e-07 0.000215885)
(0.00303908 7.03977e-07 4.6285e-05 1.78978e-07 -1.48213e-07 0.000202312)
(0.00301029 -2.24087e-06 6.46278e-05 1.72648e-07 2.25359e-09 0.000197528)
(0.00312015 -4.89889e-06 3.20617e-05 1.72939e-07 7.85129e-08 0.000208676)
(0.00327289 -3.46377e-06 1.09451e-05 1.69974e-07 -7.8615e-08 0.000223336)
(0.0163425 -6.86761e-05 0.000607181 5.24005e-06 9.45832e-07 0.00110526)
(0.0161807 -5.28979e-05 0.000823216 5.63737e-06 1.62841e-06 0.00106985)
(0.0163748 -5.19272e-05 0.000816671 6.17751e-06 3.93013e-06 0.00100446)
(0.0156067 -6.52947e-05 0.000706817 6.66392e-06 5.59799e-06 0.000975728)
(0.0158707 -8.24858e-05 0.000451407 7.01886e-06 6.33031e-06 0.00100135)
(0.01591 -7.61954e-05 0.000320315 6.95119e-06 6.60498e-06 0.00102042)
(0.0160823 -7.30147e-05 0.000282753 6.76498e-06 7.1781e-06 0.00104896)
(0.0159597 -8.6159e-05 0.000286325 6.86581e-06 2.15277e-06 0.00112986)
(0.0165525 -0.000111369 0.00048898 7.18583e-06 -5.4093e-06 0.00116092)
(0.0168438 -0.000127025 0.000600312 6.89698e-06 -7.88555e-06 0.00114142)
(0.0178023 -0.000115721 0.000629316 6.48893e-06 -6.45628e-06 0.00111919)
(0.0173084 -9.88116e-05 0.000610521 6.26256e-06 -4.64105e-06 0.00115974)
(0.0178776 -0.000100675 0.000602813 6.44681e-06 -7.70212e-06 0.00119883)
(0.0168411 -0.000104748 0.000615688 6.57184e-06 -1.07541e-05 0.00120331)
(0.0174111 -0.000106783 0.000622064 7.27872e-06 -1.16119e-05 0.00124576)
(0.0170103 -9.47766e-05 0.000762444 8.14634e-06 -1.44108e-05 0.00134955)
(0.0179145 -9.77819e-05 0.000864159 8.22164e-06 -1.71217e-05 0.0014115)
(0.0174252 -0.000104609 0.000834767 7.97776e-06 -1.43721e-05 0.00131918)
(0.0176635 -0.000120705 0.0007319 8.03183e-06 -7.13513e-06 0.00118752)
(0.0173611 -0.000119333 0.000565118 7.6689e-06 -1.53907e-06 0.0011209)
(0.0171538 -0.000102504 0.00058013 6.98471e-06 -1.86e-07 0.00110042)
(0.0170501 -7.81897e-05 0.000599669 6.54026e-06 -1.49676e-06 0.00110216)
(0.0164242 -8.0405e-05 0.000667923 5.95174e-06 -5.18391e-06 0.00113649)
(0.017104 -9.26572e-05 0.00063474 5.58136e-06 -5.60153e-06 0.00117061)
(0.0169 -9.75395e-05 0.000445316 5.28645e-06 -2.14475e-06 0.00115034)
(0.0173373 -8.45618e-05 0.000389231 4.62408e-06 -5.96943e-07 0.00110433)
(0.0163815 -4.14714e-05 0.000414759 4.12733e-06 -6.75747e-08 0.00105599)
(0.015457 -3.88139e-05 0.00052821 4.08344e-06 2.34889e-07 0.00103005)
(0.0151853 -5.67807e-05 0.000398484 4.21129e-06 3.57092e-08 0.000998354)
(0.0152535 -6.84763e-05 0.000303749 4.23688e-06 5.0622e-07 0.00100277)
(0.0151183 -6.54116e-05 0.000253889 4.20702e-06 3.64856e-06 0.00100178)
(0.0152442 -4.82373e-05 0.000334108 4.52433e-06 6.53204e-06 0.000985844)
(0.0148138 -4.68892e-05 0.000340802 5.06566e-06 9.64394e-06 0.000996523)
(0.0145851 -6.65333e-05 0.000283187 5.46592e-06 1.09223e-05 0.00108214)
(0.0147538 -8.26688e-05 0.000214035 5.66439e-06 1.19466e-05 0.00114242)
(0.0148693 -8.16096e-05 0.000251597 5.80525e-06 1.06787e-05 0.00108095)
(0.015441 -7.28393e-05 0.00032448 6.07299e-06 7.50823e-06 0.000993927)
(0.0151582 -7.69232e-05 0.000468491 5.63137e-06 5.6928e-06 0.00097481)
(0.0157954 -8.62086e-05 0.00048036 5.19871e-06 6.00055e-06 0.0010236)
(0.0158631 -8.25627e-05 0.000501053 5.18501e-06 3.69767e-06 0.00109137)
(0.0306189 -0.000295023 0.00135311 2.86004e-05 8.95186e-06 0.00196208)
(0.0308093 -0.000283733 0.0016175 3.12109e-05 1.25453e-05 0.00195187)
(0.0316695 -0.000267011 0.00160225 3.39183e-05 2.00494e-05 0.00190513)
(0.0301774 -0.00027228 0.0013619 3.44465e-05 2.59055e-05 0.00186365)
(0.0312139 -0.000301544 0.001081 3.33669e-05 3.53867e-05 0.00190833)
(0.0303155 -0.00030559 0.000662457 3.25956e-05 4.16614e-05 0.00193164)
(0.0311982 -0.000311295 0.000497091 3.42764e-05 3.76481e-05 0.00191464)
(0.0301075 -0.000345074 0.000578293 3.91822e-05 1.56998e-05 0.00195462)
(0.0312666 -0.000408483 0.000925234 4.20741e-05 -4.72849e-06 0.00189808)
(0.0308342 -0.000437401 0.00103059 3.85489e-05 -1.20453e-05 0.00185562)
(0.03258 -0.000425815 0.000967275 3.57196e-05 -7.61288e-06 0.00186234)
(0.031831 -0.000387132 0.000879885 3.45398e-05 5.42745e-06 0.00197114)
(0.0327882 -0.000387948 0.000814397 3.58989e-05 2.50037e-06 0.00209295)
(0.0308183 -0.000381917 0.000877411 3.57026e-05 -2.01745e-05 0.00217102)
(0.031861 -0.000379223 0.000937159 3.53987e-05 -3.76339e-05 0.00232036)
(0.0318627 -0.000360465 0.00117303 3.68364e-05 -3.89952e-05 0.00254612)
(0.0337588 -0.000392903 0.00126191 3.85291e-05 -2.21579e-05 0.00263763)
(0.033013 -0.000422524 0.00126076 3.98022e-05 -3.45107e-06 0.0024628)
(0.0336785 -0.000434494 0.00130018 4.11614e-05 1.29458e-05 0.00222075)
(0.032296 -0.000390877 0.00123895 4.05711e-05 2.06565e-05 0.00209404)
(0.0321793 -0.000370869 0.00124566 3.7458e-05 2.01217e-05 0.00209379)
(0.0325065 -0.000347991 0.00115944 3.44972e-05 1.85274e-05 0.0022045)
(0.0324112 -0.000357117 0.00122128 3.1908e-05 1.31989e-05 0.00223772)
(0.0328098 -0.000366659 0.0011777 2.94625e-05 6.03554e-06 0.00214588)
(0.0323966 -0.000332084 0.00102594 2.67885e-05 3.76883e-06 0.00205056)
(0.0321304 -0.000284534 0.000881552 2.40719e-05 5.14373e-06 0.00202026)
(0.0304931 -0.000184471 0.000913326 2.20832e-05 1.1086e-05 0.00198905)
(0.0295318 -0.000165636 0.000888887 2.24788e-05 1.6908e-05 0.00195028)
(0.0282493 -0.000198463 0.000675948 2.34997e-05 2.43101e-05 0.00187602)
(0.0286638 -0.000230591 0.000386921 2.3746e-05 3.50484e-05 0.00188443)
(0.0282641 -0.000241954 0.000304727 2.37084e-05 4.70331e-05 0.00190937)
(0.0284236 -0.00022691 0.000530493 2.48467e-05 4.98014e-05 0.00190458)
(0.0280714 -0.000217654 0.000646461 2.68644e-05 5.40819e-05 0.00194934)
(0.0277621 -0.00025129 0.000499833 2.82406e-05 5.54417e-05 0.00203272)
(0.0278161 -0.00026435 0.0004468 2.95624e-05 5.91255e-05 0.00205131)
(0.027404 -0.000282829 0.000501183 3.15498e-05 5.10314e-05 0.00195456)
(0.0283301 -0.000291989 0.000698766 3.36805e-05 3.23531e-05 0.0018287)
(0.0279818 -0.000310415 0.00091013 3.16465e-05 2.30292e-05 0.00178154)
(0.029157 -0.000327581 0.00103863 2.84284e-05 2.40243e-05 0.00184502)
(0.0292469 -0.000306506 0.00110532 2.75781e-05 1.70025e-05 0.00195298)
(0.0372892 -0.000614113 0.00141667 8.26941e-05 2.3907e-05 0.00252209)
(0.0381222 -0.000611045 0.00171868 9.11904e-05 3.86845e-05 0.00254855)
(0.0397787 -0.000568741 0.00185861 9.61752e-05 4.74875e-05 0.00256106)
(0.0385484 -0.000536454 0.00167637 9.49052e-05 5.86329e-05 0.00258937)
(0.0402258 -0.000561899 0.00153764 9.13549e-05 8.37266e-05 0.00265908)
(0.038751 -0.000573149 0.00105005 9.24808e-05 0.00010382 0.00261273)
(0.0391295 -0.000597678 0.000874787 0.00010056 8.84124e-05 0.00240359)
(0.0375438 -0.000654811 0.000983414 0.000114467 4.87221e-05 0.0023058)
(0.0387004 -0.000703863 0.00120859 0.000115157 2.40255e-05 0.00222094)
(0.0372403 -0.000698994 0.00100227 0.000106744 8.81391e-06 0.00219909)
(0.0390056 -0.000690548 0.000897108 0.000102418 1.54476e-06 0.00223207)
(0.0374123 -0.000647101 0.000891702 0.000103846 1.64243e-05 0.00233195)
(0.039166 -0.000664505 0.00105277 0.00011031 2.2855e-05 0.00256402)
(0.0373783 -0.000677936 0.001216 0.000107294 3.41576e-07 0.00282294)
(0.039177 -0.000698949 0.00121298 9.82442e-05 -1.63905e-05 0.00300026)
(0.0394851 -0.000686116 0.00130756 9.61387e-05 -1.08268e-05 0.00313962)
(0.0423887 -0.000738502 0.00142091 0.000100634 2.44785e-05 0.00311825)
(0.0412029 -0.000746575 0.00154567 0.000104747 4.92146e-05 0.00292961)
(0.0416577 -0.000728566 0.00175737 0.000106625 5.66733e-05 0.00278581)
(0.0391626 -0.000640552 0.0017094 0.000103599 5.77801e-05 0.00279797)
(0.0399503 -0.000627179 0.00159595 9.71797e-05 7.59227e-05 0.00291121)
(0.0396419 -0.000629332 0.00132718 9.38064e-05 8.5716e-05 0.00310369)
(0.040409 -0.000682897 0.0013897 8.96708e-05 7.10827e-05 0.00293439)
(0.0397646 -0.000663591 0.00142479 7.92138e-05 3.94005e-05 0.00263525)
(0.039741 -0.000581835 0.00133976 6.9701e-05 2.02126e-05 0.00252205)
(0.0387676 -0.000487466 0.00108847 6.28687e-05 1.6017e-05 0.0026521)
(0.0368425 -0.000360554 0.00114726 5.94356e-05 2.79285e-05 0.00270922)
(0.0361871 -0.000336984 0.00106514 6.26231e-05 4.49702e-05 0.00261754)
(0.0346191 -0.00037638 0.000776258 6.77756e-05 7.1108e-05 0.00252414)
(0.0348268 -0.000425999 0.00025871 7.23062e-05 0.000102766 0.00246759)
(0.0349467 -0.00044125 0.000130226 7.43189e-05 0.000120097 0.00244887)
(0.0353547 -0.000446732 0.000589893 7.56845e-05 0.000105891 0.00252619)
(0.0360502 -0.000434484 0.00100339 8.02542e-05 0.000100029 0.00265165)
(0.0357125 -0.000482284 0.000883607 8.35709e-05 0.00010039 0.00265711)
(0.0356186 -0.000475173 0.000748902 8.34785e-05 0.000106523 0.0025955)
(0.0348795 -0.000496688 0.000734048 8.61755e-05 9.75153e-05 0.0025813)
(0.03548 -0.000519008 0.000872812 9.01149e-05 7.31936e-05 0.0025365)
(0.0338346 -0.000551388 0.00088871 8.85692e-05 5.15866e-05 0.00243632)
(0.0348483 -0.000608306 0.00111295 8.23129e-05 3.86645e-05 0.00243598)
(0.0351275 -0.000611022 0.00112761 7.92901e-05 2.51725e-05 0.00251639)
(0.0370825 -0.000845323 0.00102327 0.000173075 6.60975e-05 0.00269425)
(0.0373618 -0.00084307 0.00139331 0.000192169 8.61603e-05 0.00267227)
(0.0396018 -0.000763972 0.00174889 0.00020397 9.27249e-05 0.00280913)
(0.0392767 -0.000701504 0.00156139 0.000201677 0.000101065 0.00298688)
(0.0412307 -0.000728924 0.00153568 0.000198003 0.000121807 0.00311155)
(0.0391107 -0.000720923 0.00134991 0.000200165 0.00013041 0.00303098)
(0.0388035 -0.000790428 0.00135103 0.000210119 0.000105221 0.00275431)
(0.03713 -0.000874463 0.00120695 0.000224316 7.10731e-05 0.00261051)
(0.0374901 -0.000866694 0.0010467 0.0002193 4.43246e-05 0.00254149)
(0.0362955 -0.000805776 0.000625642 0.000209614 1.12452e-05 0.00254562)
(0.0377058 -0.000806777 0.00066852 0.000209616 -2.05701e-05 0.00252795)
(0.0370916 -0.000822526 0.000837099 0.000219602 -5.47714e-06 0.00255333)
(0.0387162 -0.000902616 0.00124752 0.000230815 3.34743e-05 0.00277602)
(0.038636 -0.000889238 0.00151971 0.000226447 6.03058e-05 0.00296115)
(0.0403338 -0.000885315 0.00139184 0.00020766 5.56784e-05 0.00301194)
(0.0415306 -0.00086563 0.00127177 0.000199075 5.28887e-05 0.00298874)
(0.0429358 -0.000912622 0.00141464 0.000208258 7.31623e-05 0.00290945)
(0.0421846 -0.000914593 0.00162701 0.000211489 8.24469e-05 0.00279897)
(0.0418024 -0.000889957 0.00173785 0.000201273 8.19943e-05 0.00280506)
(0.0393336 -0.000777625 0.00150747 0.000187353 9.93359e-05 0.00292978)
(0.0400357 -0.000806794 0.00112353 0.000183572 0.00014957 0.00310625)
(0.039559 -0.000853028 0.000825881 0.000187191 0.000158695 0.00327274)
(0.0409416 -0.000931538 0.00103119 0.000178166 0.000119177 0.00302031)
(0.0391002 -0.000828265 0.00133743 0.000157168 7.9473e-05 0.00271246)
(0.0390876 -0.000710367 0.00132404 0.000140521 6.13505e-05 0.00264785)
(0.0370971 -0.000620602 0.00111802 0.000128032 4.69302e-05 0.00290057)
(0.0363326 -0.000526211 0.00125844 0.00012152 4.54893e-05 0.00308488)
(0.0350479 -0.00051512 0.00134116 0.000126757 6.16731e-05 0.00296519)
(0.03467 -0.00050893 0.00107197 0.000136058 0.000100214 0.00290298)
(0.0337924 -0.000539575 0.000418174 0.000149945 0.000130058 0.00285865)
(0.0345507 -0.000580077 0.000319379 0.000159901 0.000139416 0.00273796)
(0.0351241 -0.000640906 0.000894331 0.000164719 0.000119347 0.00280185)
(0.0364815 -0.000643548 0.00140982 0.000173287 0.000113962 0.00294647)
(0.0360265 -0.000696974 0.00130632 0.000176863 0.000114435 0.00289902)
(0.0363653 -0.000690534 0.00114444 0.000173762 0.000134674 0.00285708)
(0.0357468 -0.000710478 0.00105286 0.000175295 0.000136329 0.00292182)
(0.0362031 -0.00071762 0.00111752 0.000178863 0.000125677 0.00293907)
(0.0344609 -0.000745491 0.00089534 0.00017931 9.82288e-05 0.00286316)
(0.0356296 -0.000839418 0.000899071 0.000172476 6.3872e-05 0.00283068)
(0.0351762 -0.000846501 0.00073523 0.000165365 5.04059e-05 0.00278224)
(0.0334814 -0.000979547 0.000993054 0.000297321 0.000121414 0.00271111)
(0.0331651 -0.000948065 0.00131984 0.000328658 0.000120532 0.00270006)
(0.0346766 -0.000880594 0.00152992 0.000351757 0.000120927 0.00296098)
(0.0352308 -0.000816594 0.00132408 0.000355601 0.000125454 0.00321349)
(0.0357664 -0.000842966 0.00130172 0.000349849 0.000135681 0.00332449)
(0.0353237 -0.000834531 0.00134957 0.000338649 0.000124993 0.00324636)
(0.0348568 -0.000922119 0.00137994 0.000341565 9.75783e-05 0.00302743)
(0.0337672 -0.000964588 0.00120546 0.000355453 5.7192e-05 0.00289496)
(0.0329476 -0.000925991 0.00094443 0.000350768 4.06345e-06 0.00282094)
(0.0323502 -0.00085976 0.000448306 0.000343878 -3.03854e-05 0.00279987)
(0.0332561 -0.000864672 0.000499921 0.000349306 -5.57797e-05 0.0027662)
(0.0340678 -0.000932463 0.000550704 0.000362702 -8.015e-06 0.00273845)
(0.0348042 -0.00103429 0.000826209 0.000377235 9.03695e-05 0.00278491)
(0.0361353 -0.00095459 0.00104615 0.000377145 0.000146961 0.00278183)
(0.0374145 -0.00086137 0.00097623 0.000361957 0.000127249 0.00279041)
(0.0386181 -0.000848544 0.00102262 0.000360252 0.000118817 0.00277836)
(0.0388284 -0.00090486 0.00134799 0.000370442 0.000134372 0.00272738)
(0.037889 -0.000942119 0.00159164 0.000358286 0.000126915 0.00265468)
(0.0366764 -0.000954823 0.00149506 0.000324045 0.000123372 0.00275595)
(0.035678 -0.000898915 0.00119867 0.000293879 0.000161151 0.00292318)
(0.0353792 -0.000973624 0.000694652 0.000296784 0.000228946 0.00309247)
(0.0350633 -0.00106036 0.000312142 0.000312035 0.000235432 0.00317355)
(0.0358723 -0.00104098 0.000477313 0.000304718 0.000181671 0.00297681)
(0.0340468 -0.000869608 0.000853412 0.00028027 0.000143032 0.00273261)
(0.0342376 -0.000752476 0.00108372 0.000259399 0.000126703 0.00272043)
(0.0323133 -0.000751844 0.00111546 0.000239881 0.000104896 0.00297368)
(0.032393 -0.000702595 0.00144899 0.00022539 7.81861e-05 0.00320565)
(0.031335 -0.000683237 0.00165726 0.000226794 7.41572e-05 0.00311421)
(0.031788 -0.000656324 0.0014928 0.000234685 0.000105345 0.00303032)
(0.0314179 -0.00065744 0.000806713 0.000251477 0.000106432 0.00302197)
(0.031531 -0.000711711 0.00074474 0.000274157 0.00010377 0.00281343)
(0.0318422 -0.000801877 0.00118543 0.000287485 0.000113512 0.00279674)
(0.0323966 -0.000783454 0.00169245 0.00029957 0.00012979 0.0030384)
(0.0325551 -0.000840855 0.00160078 0.000305659 0.000143201 0.00305506)
(0.0328103 -0.000851424 0.00152322 0.000304029 0.000169882 0.00299668)
(0.0321202 -0.000868373 0.00134358 0.000304864 0.00017546 0.00306412)
(0.0326437 -0.000859681 0.00142531 0.00030358 0.000188833 0.00316912)
(0.0317763 -0.000876536 0.00109519 0.000301143 0.000188059 0.00318734)
(0.0325686 -0.000957137 0.000970092 0.000296758 0.000151344 0.00312675)
(0.0321548 -0.000977795 0.000733393 0.000287806 0.000123376 0.00292569)
(0.0284422 -0.00101103 0.000918019 0.000454878 0.000172954 0.00275944)
(0.0281868 -0.00101763 0.00107508 0.000492155 0.000166357 0.00277492)
(0.029294 -0.00101379 0.00113955 0.000514485 0.000158394 0.00305052)
(0.0295602 -0.000968039 0.00091471 0.000516392 0.000153167 0.00325764)
(0.0309946 -0.000973806 0.000917316 0.000502052 0.000148658 0.00329864)
(0.0304941 -0.000939516 0.000936839 0.000483425 0.000129971 0.00319167)
(0.030493 -0.000946838 0.000906102 0.000499382 9.59397e-05 0.00305988)
(0.0295011 -0.000936381 0.000848758 0.000517392 3.82578e-05 0.00292768)
(0.0293446 -0.000921928 0.000890732 0.00050225 -3.36171e-05 0.00280701)
(0.0278994 -0.000895716 0.000481251 0.000496232 -4.72444e-05 0.00280221)
(0.0287144 -0.000903468 0.000460717 0.000503867 -2.24854e-05 0.00284849)
(0.0288011 -0.000964726 0.000334219 0.000511724 6.0309e-05 0.0028128)
(0.029215 -0.00103418 0.000117257 0.000532049 0.000169312 0.00278464)
(0.0291995 -0.000901817 0.000279289 0.000546824 0.000199809 0.00278618)
(0.0307284 -0.000761002 0.00052234 0.000544512 0.000172483 0.00273113)
(0.0313922 -0.000797425 0.000853237 0.000546854 0.00017545 0.00270243)
(0.0325059 -0.000858491 0.00122009 0.000547062 0.000177443 0.00268763)
(0.0317618 -0.000890085 0.00150116 0.000518024 0.000154951 0.00266699)
(0.0314094 -0.000896438 0.0015861 0.000474006 0.0001652 0.00285487)
(0.0297773 -0.00091185 0.00143876 0.000442736 0.000209131 0.00294967)
(0.0297789 -0.00102815 0.00102002 0.000452649 0.000285568 0.00300331)
(0.0292213 -0.00113498 0.00049124 0.000474746 0.000298718 0.00305173)
(0.0297343 -0.00107951 0.000510681 0.00047049 0.000242977 0.0029251)
(0.0283113 -0.000909121 0.000746591 0.000445495 0.00019144 0.00274144)
(0.0282945 -0.000809553 0.00104604 0.000423031 0.000175167 0.0027377)
(0.0273482 -0.000864622 0.00112677 0.000398451 0.000166095 0.00295645)
(0.0275668 -0.000844375 0.00149071 0.000371924 0.000132802 0.00321943)
(0.0273622 -0.000817746 0.00173422 0.000363415 0.000100521 0.00319304)
(0.0280142 -0.00079637 0.00178869 0.000376675 0.00010033 0.00305945)
(0.0281448 -0.000802744 0.001305 0.000397868 9.12716e-05 0.00298354)
(0.028561 -0.000833146 0.00115888 0.000424389 9.10111e-05 0.00281414)
(0.0280571 -0.000880427 0.00153751 0.000443109 0.000112916 0.00276598)
(0.0286707 -0.000815096 0.00190358 0.000459054 0.000145799 0.00300125)
(0.0281322 -0.000846578 0.00185947 0.000470616 0.000190666 0.003117)
(0.0281764 -0.000885245 0.00167042 0.000467063 0.000235204 0.00314719)
(0.0270579 -0.000903783 0.00142156 0.000462291 0.000251049 0.00323811)
(0.027204 -0.000904672 0.00138765 0.000455925 0.000282919 0.00338368)
(0.0272379 -0.00091028 0.00109174 0.000452929 0.000300186 0.00334435)
(0.0281286 -0.000958506 0.000984344 0.000458698 0.000248388 0.00320849)
(0.0283736 -0.000965964 0.000763762 0.000447331 0.000202324 0.00297994)
(0.0233372 -0.000972006 0.000852526 0.000626268 0.000211719 0.00268423)
(0.0234055 -0.00104683 0.000870649 0.000664581 0.000191257 0.00264047)
(0.0237102 -0.00107782 0.000815566 0.000673653 0.000167443 0.00281468)
(0.0248762 -0.00104692 0.000747452 0.000663011 0.000151521 0.00295661)
(0.025258 -0.0010029 0.000768817 0.00064972 0.000148327 0.00295958)
(0.0257591 -0.000933582 0.000952662 0.000640468 0.000133755 0.00290264)
(0.0249113 -0.000896835 0.00089337 0.000661811 0.000104578 0.00285357)
(0.0248374 -0.000853243 0.00092312 0.00067431 6.22405e-05 0.00280864)
(0.0244064 -0.000881955 0.000953185 0.000658876 6.37083e-06 0.00279698)
(0.0246355 -0.000905128 0.000684964 0.000655888 -5.00049e-06 0.00289349)
(0.0240031 -0.000893157 0.000645898 0.000665694 3.988e-05 0.00299228)
(0.0243285 -0.000954557 0.000778996 0.000671038 0.000125679 0.00304074)
(0.0240769 -0.000978948 0.000458255 0.000690994 0.000222876 0.00305165)
(0.0241189 -0.000852331 0.00047721 0.000707475 0.000250136 0.00295349)
(0.0240693 -0.000741816 0.000555583 0.000714697 0.000225373 0.00279406)
(0.0250569 -0.000779363 0.000773078 0.000725396 0.000202416 0.00272196)
(0.0258241 -0.000841156 0.00101775 0.0007199 0.000167355 0.00268614)
(0.0261277 -0.000887187 0.00129365 0.000688171 0.000147815 0.00269805)
(0.0253841 -0.000893835 0.00153922 0.000652537 0.000181014 0.00286763)
(0.0248297 -0.000923812 0.00151016 0.000634183 0.000245182 0.0029154)
(0.0241505 -0.00106921 0.00125043 0.000652953 0.000302373 0.0029674)
(0.0249103 -0.00120108 0.000996778 0.000671463 0.000287226 0.00300993)
(0.0247761 -0.00115008 0.000996765 0.000661458 0.000227774 0.0028505)
(0.0234994 -0.00103272 0.00109083 0.000634146 0.000166834 0.00267178)
(0.022762 -0.0009395 0.0012118 0.000612667 0.000161698 0.00269855)
(0.0222803 -0.000973976 0.00116694 0.000583343 0.000178094 0.00290985)
(0.0219602 -0.000955474 0.00127266 0.000547343 0.000168803 0.00314904)
(0.0218144 -0.000930469 0.00145814 0.000525127 0.000150569 0.00316935)
(0.022387 -0.000894002 0.00160101 0.000541654 0.000132281 0.00307369)
(0.0234888 -0.000915228 0.00133001 0.000574591 0.000115841 0.00298533)
(0.0240367 -0.000916134 0.00132697 0.000603908 0.000123381 0.00287437)
(0.0237106 -0.000905217 0.00169076 0.000622263 0.000144962 0.00283243)
(0.0236165 -0.000852231 0.00194463 0.000641198 0.000184946 0.00302096)
(0.0235511 -0.000881443 0.0018673 0.000655475 0.000243839 0.00311614)
(0.0237014 -0.000960767 0.00159999 0.000650576 0.000298514 0.00311045)
(0.0231786 -0.000972852 0.00139401 0.000637027 0.000325726 0.00319012)
(0.0230283 -0.000925443 0.00125544 0.00061823 0.000366049 0.0032509)
(0.0235535 -0.00090955 0.00109453 0.000612052 0.000368751 0.00315583)
(0.023481 -0.000930728 0.000973333 0.000628043 0.000311093 0.00302302)
(0.0240985 -0.000904564 0.00089813 0.000619264 0.000261658 0.00285886)
(0.0196806 -0.000965998 0.00101532 0.000777207 0.000246484 0.00267581)
(0.0197805 -0.00104729 0.000972047 0.000802089 0.000191063 0.00258946)
(0.0195033 -0.00106448 0.000806474 0.000818181 0.000169825 0.00259708)
(0.0200941 -0.00102204 0.000671224 0.0008223 0.000178968 0.00266386)
(0.0203192 -0.000941327 0.000701491 0.000816847 0.000174815 0.00272062)
(0.0206052 -0.000879875 0.00101993 0.000805663 0.000143334 0.00274368)
(0.0204202 -0.000906255 0.00120636 0.000813106 0.000104474 0.00272116)
(0.0208416 -0.00089733 0.00127901 0.000818841 8.18665e-05 0.0026794)
(0.0211759 -0.000941306 0.00131854 0.000811593 4.46809e-05 0.00271764)
(0.0213459 -0.000998975 0.00112161 0.000813721 3.27066e-05 0.00288591)
(0.0206724 -0.000924843 0.000931093 0.000822051 6.34909e-05 0.00302058)
(0.0209509 -0.000947796 0.00108166 0.000823321 0.000114313 0.00306992)
(0.0208575 -0.000936467 0.00100934 0.000832165 0.000187694 0.00300234)
(0.0208255 -0.000824419 0.000938249 0.00083838 0.000247484 0.00296027)
(0.0200896 -0.000727523 0.000884778 0.000864044 0.000252117 0.00294345)
(0.0201807 -0.000747446 0.000870416 0.000898734 0.000233715 0.00291922)
(0.0207772 -0.00084718 0.00108893 0.000890265 0.000190772 0.00286035)
(0.0211017 -0.00095962 0.00130809 0.000852459 0.000170373 0.0028634)
(0.0210486 -0.00103565 0.00143945 0.000819942 0.000208287 0.0029481)
(0.0209401 -0.00111688 0.00140294 0.000813803 0.000260858 0.00295295)
(0.0206761 -0.00123388 0.00130308 0.0008407 0.000275794 0.00293886)
(0.0215207 -0.0013259 0.00130002 0.000868491 0.000231931 0.00288391)
(0.0216647 -0.00124487 0.00143296 0.000864867 0.00018476 0.00275682)
(0.0208422 -0.00111752 0.00141534 0.000836541 0.000149833 0.00261994)
(0.0195773 -0.00105572 0.00141761 0.000800062 0.000153687 0.00265604)
(0.0188399 -0.00108928 0.00117254 0.000765565 0.000166081 0.00286647)
(0.0179954 -0.00104839 0.00100765 0.000721437 0.000170837 0.00309108)
(0.0179717 -0.00102145 0.00113009 0.000687069 0.000186973 0.00312117)
(0.0183712 -0.0010045 0.00127233 0.000707288 0.000193799 0.0030203)
(0.0195015 -0.00102936 0.00108206 0.000761338 0.000183367 0.00296411)
(0.0196025 -0.000980022 0.00104858 0.000802363 0.000185775 0.00292449)
(0.019663 -0.000926761 0.0014036 0.00081464 0.000197896 0.00289296)
(0.0191742 -0.000895639 0.00161276 0.000826017 0.000237344 0.00298899)
(0.019069 -0.000964124 0.00152763 0.000849228 0.000285504 0.00301864)
(0.0190899 -0.00110882 0.00132737 0.000852672 0.000300912 0.00297764)
(0.0191702 -0.00112144 0.00118033 0.000822305 0.000308304 0.0030051)
(0.0195794 -0.00104192 0.00110645 0.000777699 0.000338623 0.00298062)
(0.0195945 -0.000967186 0.00101263 0.00076021 0.000353865 0.00292421)
(0.0192575 -0.000951114 0.000937368 0.000787692 0.000341811 0.00287047)
(0.0196042 -0.000918756 0.00101346 0.00078398 0.000312898 0.00280258)
(0.0175532 -0.000990915 0.00100554 0.000921683 0.000286309 0.00252315)
(0.0178978 -0.00108198 0.00110637 0.000926118 0.000189357 0.00249112)
(0.01742 -0.00110549 0.000906349 0.000947848 0.000156508 0.00242826)
(0.0174993 -0.00106281 0.000708094 0.000982025 0.000170629 0.00241655)
(0.0173066 -0.00100531 0.000706499 0.00100058 0.000167152 0.00251504)
(0.017297 -0.00095701 0.000932121 0.000985309 0.000135619 0.00259988)
(0.0171883 -0.000984264 0.00109367 0.000977291 0.000116784 0.00262371)
(0.0171489 -0.00098657 0.00120001 0.000972921 9.51255e-05 0.0026391)
(0.017617 -0.00101005 0.00133667 0.000970763 5.60085e-05 0.0026919)
(0.0177091 -0.00108673 0.00128137 0.000964413 5.28376e-05 0.00283584)
(0.0174235 -0.00102272 0.0010618 0.000948608 8.64992e-05 0.0029328)
(0.0178999 -0.000985146 0.00103052 0.000943224 0.00010278 0.00289948)
(0.0178959 -0.00092044 0.00098649 0.000949302 0.000129958 0.00274917)
(0.0176107 -0.000818401 0.000963297 0.000946461 0.000168636 0.00274621)
(0.0171466 -0.000750304 0.00094988 0.00097317 0.000181013 0.00288183)
(0.0168203 -0.000778835 0.000910311 0.00101091 0.00019763 0.00301037)
(0.0174235 -0.000892289 0.00107196 0.00101034 0.000213001 0.00304062)
(0.0179039 -0.00105496 0.00137328 0.000989093 0.000214569 0.00302178)
(0.0184001 -0.00117952 0.00148451 0.000969359 0.000219141 0.00299853)
(0.0183323 -0.00129411 0.00148934 0.000963056 0.000202492 0.00297927)
(0.0184163 -0.00137753 0.00150292 0.000994884 0.000157289 0.00295949)
(0.0190797 -0.00141985 0.00150019 0.00104173 0.000116622 0.00283755)
(0.0194992 -0.0013713 0.00153432 0.00105524 9.75133e-05 0.00267027)
(0.0192632 -0.00127324 0.00152301 0.00103982 9.52504e-05 0.00256874)
(0.0183187 -0.00119148 0.00148915 0.000989101 0.000107196 0.00260868)
(0.0176962 -0.00122137 0.0013484 0.000931855 9.62283e-05 0.00280836)
(0.017044 -0.0012081 0.000977359 0.00088444 0.00010536 0.00295581)
(0.0162996 -0.00118949 0.000851437 0.000844847 0.000147581 0.00296218)
(0.0165021 -0.00119842 0.000962658 0.000871099 0.000171281 0.00283219)
(0.0172727 -0.00121416 0.000939222 0.000946801 0.000168503 0.00275061)
(0.0171733 -0.00109332 0.000875374 0.000997616 0.000182401 0.00271919)
(0.0172074 -0.0009989 0.00109973 0.00100241 0.000214664 0.00269574)
(0.0169741 -0.00100768 0.00115444 0.000999163 0.000272702 0.00273594)
(0.0170951 -0.00113669 0.00102655 0.00101735 0.000322914 0.0027653)
(0.0166492 -0.00130665 0.00085944 0.00101617 0.000307394 0.00268755)
(0.0168042 -0.00136347 0.000860679 0.000979021 0.000274468 0.00265629)
(0.0176235 -0.00128014 0.000944955 0.000927379 0.00028197 0.00263236)
(0.0173818 -0.00110976 0.00085215 0.000909004 0.000316726 0.00260391)
(0.0166171 -0.00101346 0.000642939 0.000947268 0.000357925 0.00261877)
(0.0170257 -0.000966985 0.000794763 0.000947109 0.000360798 0.00261258)
(0.0150435 -0.000981074 0.00075296 0.00106417 0.000314822 0.00231958)
(0.015516 -0.00107523 0.000839919 0.0010518 0.000243929 0.00235488)
(0.015253 -0.00111902 0.000700953 0.00106817 0.000208052 0.00230552)
(0.0152573 -0.00109894 0.000556606 0.00111902 0.000178824 0.00223707)
(0.0150871 -0.00105688 0.000565068 0.00115054 0.000143146 0.00227139)
(0.0149235 -0.00102935 0.000703084 0.00113255 0.000107317 0.0023717)
(0.0148062 -0.0010378 0.000760849 0.00110142 9.68503e-05 0.00244394)
(0.0145881 -0.00101052 0.000841848 0.00107719 8.49869e-05 0.00252861)
(0.0148031 -0.000966934 0.00103733 0.00106644 7.67802e-05 0.00265419)
(0.0149844 -0.00103022 0.00105726 0.00105872 9.98702e-05 0.00277482)
(0.0148294 -0.00103985 0.000880805 0.00103627 0.000134714 0.00282988)
(0.0149944 -0.00102027 0.00086819 0.00102612 0.00012811 0.0028306)
(0.0149525 -0.000933537 0.000820073 0.00103289 0.000124112 0.00272086)