/*--------------------------------*- C++ -*----------------------------------*\
  =========                 |
  \\      /  F ield         | OpenFOAM: The Open Source CFD Toolbox
   \\    /   O peration     | Website:  https://openfoam.org
    \\  /    A nd           | Version:  10
     \\/     M anipulation  |
\*---------------------------------------------------------------------------*/
FoamFile
{
    format      ascii;
    class       volScalarField;
    location    "6";
    object      nut;
}
// * * * * * * * * * * * * * * * * * * * * * * * * * * * * * * * * * * * * * //

dimensions      [0 2 -1 0 0 0 0];

internalField   nonuniform List<scalar> 
25600
(
0.000146819
0.000177335
0.000145731
5.72069e-05
1.2306e-05
5.10147e-06
5.9731e-06
2.31813e-05
2.23869e-05
2.12548e-05
1.53093e-05
1.10374e-05
1.52736e-05
4.83334e-05
9.82044e-06
2.28189e-06
1.11555e-05
3.76146e-05
5.27029e-05
8.11275e-06
9.03974e-06
2.36114e-05
2.31227e-05
1.50264e-05
2.10057e-05
1.62502e-05
1.36304e-05
5.90773e-05
7.2937e-05
5.30604e-05
3.26835e-05
8.61005e-06
1.83068e-06
5.79186e-06
2.07546e-05
5.47781e-05
0.00015551
0.000163613
7.09063e-05
2.11326e-05
7.26951e-06
1.36196e-05
0.000116726
0.000143196
3.15771e-05
7.95466e-06
2.43676e-05
2.55574e-05
2.62618e-05
2.27436e-05
4.23939e-06
9.10019e-06
3.7886e-05
2.57501e-05
2.17893e-05
1.40819e-05
4.23157e-06
9.11971e-06
8.98675e-06
1.98524e-05
2.53414e-05
6.01995e-06
5.55369e-06
1.02503e-05
9.13206e-05
0.000173526
0.000197812
0.000214193
0.000184892
0.000129785
4.44688e-05
1.12842e-05
1.77289e-05
1.71139e-05
1.14822e-05
1.44639e-05
2.6444e-05
4.70596e-05
5.95872e-05
3.72234e-05
6.19161e-05
5.48665e-05
1.21757e-05
1.08283e-05
2.61951e-05
2.6511e-05
2.7178e-05
2.23228e-05
1.45138e-05
1.38106e-05
1.11088e-05
7.72348e-06
4.44146e-06
2.20551e-06
4.36115e-06
1.19329e-05
6.97666e-06
7.09983e-06
1.50072e-05
1.85426e-05
1.28883e-05
1.43899e-05
6.97448e-06
2.62987e-06
5.28982e-06
1.47771e-05
1.08472e-05
2.48078e-05
1.44894e-05
1.4686e-05
5.29783e-06
8.20364e-06
7.16606e-06
1.78243e-05
2.69506e-05
2.18418e-05
1.28401e-06
1.41246e-05
8.26206e-05
5.21347e-05
2.32148e-05
9.41755e-06
1.56406e-05
2.24078e-05
2.37631e-05
1.61099e-05
5.12478e-06
9.084e-06
1.76513e-05
2.1651e-05
2.19722e-05
2.29322e-05
3.29668e-05
4.59632e-05
2.13091e-05
1.45988e-05
2.11784e-05
1.52545e-05
6.41033e-06
3.26861e-06
2.10901e-05
3.84267e-05
6.37554e-05
0.000192296
6.39927e-05
0.000153446
0.000303661
2.19946e-05
1.6408e-05
1.03063e-05
5.52658e-06
1.71045e-05
0.000107704
1.15135e-05
1.58266e-05
9.20321e-06
1.46697e-05
9.44849e-05
0.000137258
0.000103513
0.000153296
0.000116064
2.36796e-05
7.8171e-05
7.15315e-05
2.83575e-05
3.2551e-05
0.000110034
0.000142336
8.77168e-06
3.48456e-06
1.52994e-05
1.38301e-05
9.74101e-06
2.76787e-05
2.42334e-05
1.45798e-05
1.66255e-05
0.000219356
0.000250828
6.18431e-05
3.29237e-05
0.000138824
0.000159346
0.000131473
0.000210521
4.54676e-05
1.36439e-05
1.57742e-06
2.96602e-05
2.92245e-05
0.000176188
0.000204671
4.03208e-05
5.95389e-05
5.88473e-05
1.05177e-05
8.30689e-05
0.000189243
0.000164256
9.00312e-05
6.54487e-05
0.000157094
0.000139015
7.17856e-05
2.40773e-05
2.27192e-06
3.79948e-06
4.19435e-06
2.98974e-05
4.61251e-05
3.41213e-05
1.339e-05
1.26579e-05
1.33177e-05
7.95511e-06
2.35785e-05
0.000199311
7.3252e-05
2.39635e-05
9.86943e-06
3.74561e-05
1.3574e-05
2.36936e-05
3.75872e-05
0.000257064
0.000166782
4.17784e-05
1.71547e-05
1.33456e-05
4.04084e-05
0.000145319
0.000155406
0.000127386
7.58386e-05
1.7531e-05
8.66153e-05
0.000221772
0.000176669
7.16777e-05
1.64702e-05
3.54e-05
0.000116502
0.000157857
0.000132267
5.48609e-05
2.1508e-05
1.17801e-05
2.11075e-06
4.76163e-07
7.96376e-06
3.04746e-05
0.000102624
4.93145e-05
2.83971e-05
0.000139575
0.000140788
3.0865e-05
1.32321e-05
2.0841e-05
8.32141e-06
2.40328e-05
1.58859e-05
2.86963e-05
4.7113e-05
9.06037e-05
0.000108868
0.000137613
5.6159e-05
2.93372e-05
3.35156e-05
3.14012e-05
3.23932e-05
2.64502e-05
3.32097e-05
3.45946e-05
0.000177699
0.000217664
5.39728e-05
1.22058e-05
8.90696e-05
0.000114643
1.15854e-05
3.38555e-05
4.88141e-06
1.91485e-06
2.9437e-06
6.15325e-05
5.5994e-05
2.85207e-06
2.05699e-05
2.29983e-05
2.83787e-06
5.50262e-06
1.03605e-05
5.0962e-05
0.000144267
0.000108622
0.000111037
0.000108791
2.84134e-05
1.91195e-05
2.94413e-05
5.62838e-05
1.84836e-05
1.91902e-05
4.01614e-05
2.23358e-05
3.06403e-05
8.73736e-06
1.01262e-06
4.55175e-05
1.28775e-05
1.43323e-05
2.32375e-05
2.20592e-06
9.59038e-05
0.000206373
7.02243e-05
3.29074e-05
7.40945e-06
3.01528e-05
3.399e-05
7.69653e-06
1.34494e-05
8.91711e-06
1.2845e-05
0.000183489
4.87211e-06
3.95575e-05
6.11365e-05
4.4537e-05
8.95365e-06
8.79274e-06
1.08685e-05
2.80831e-05
1.34208e-05
1.23298e-05
4.6304e-05
2.04922e-05
3.45632e-05
2.59914e-05
2.46668e-05
6.04885e-05
2.11801e-05
3.81496e-06
1.13371e-05
5.6114e-05
1.00448e-05
3.1892e-06
1.99086e-05
3.90963e-05
2.39472e-05
1.2225e-05
5.79317e-06
3.36904e-05
6.48018e-05
5.67251e-05
3.50087e-05
1.09822e-05
3.62905e-05
1.76531e-06
1.24475e-05
4.75632e-05
1.18481e-05
4.70291e-06
5.27704e-06
4.14565e-06
1.07658e-05
2.17518e-05
2.02916e-05
2.42351e-05
1.96371e-05
1.60423e-05
0.000191109
5.03062e-05
2.63959e-05
0.000174412
1.07633e-05
2.71223e-05
1.55762e-05
4.93275e-06
2.65596e-05
2.51731e-05
8.02373e-06
1.34588e-05
3.21417e-05
2.77185e-05
6.37487e-05
2.05557e-05
2.07289e-05
2.251e-05
4.29926e-05
2.45263e-05
2.5311e-05
2.24206e-05
4.96984e-05
3.43013e-05
4.99803e-05
0.000271566
5.35377e-05
4.17889e-05
0.000208789
0.000107953
2.51683e-05
2.52384e-06
1.61977e-05
1.86418e-05
3.37348e-05
3.12559e-05
1.47216e-05
6.384e-06
3.43794e-05
0.00017238
0.000106263
2.23738e-05
1.73698e-05
1.77364e-05
3.49666e-05
2.50897e-05
1.05848e-05
8.51718e-06
4.58488e-05
4.05996e-05
9.12544e-05
5.47436e-05
9.01912e-05
0.000288084
0.000130501
1.26779e-05
7.60341e-06
1.12952e-05
2.64438e-06
3.19764e-06
7.64358e-06
1.55675e-05
2.85804e-05
7.92175e-05
0.000226229
0.000218085
8.1449e-05
0.000144071
5.37937e-05
7.10687e-06
2.11484e-05
2.26257e-05
1.52125e-05
2.13705e-05
1.83905e-05
1.72701e-05
5.53699e-05
0.0001255
6.46011e-05
0.000178689
4.79377e-06
2.98992e-05
1.11941e-05
1.34614e-05
2.13884e-05
2.10214e-05
0.0001285
6.40727e-05
1.81718e-05
0.000105756
0.000131986
4.47833e-05
0.000128828
0.000227004
2.86403e-05
7.37877e-05
8.50971e-06
4.23195e-06
3.16764e-06
3.85007e-06
1.1396e-05
8.98712e-06
9.3386e-05
0.000141706
9.59163e-05
0.000111378
6.91208e-05
9.9384e-05
4.2149e-05
5.23673e-05
4.90245e-06
2.05461e-05
1.06623e-05
3.76602e-05
7.62468e-05
1.21142e-05
0.000139166
5.8828e-05
7.15338e-06
1.05263e-05
1.99138e-05
9.89335e-06
1.92825e-06
3.12398e-05
0.000123867
0.000177892
0.000195046
5.49241e-05
1.98535e-05
0.00016162
1.98341e-05
2.71522e-07
7.59934e-05
2.57996e-05
1.80568e-05
1.67361e-05
2.98413e-06
4.37211e-06
2.84458e-06
1.30664e-05
1.95895e-05
7.73431e-05
2.65081e-05
7.60734e-05
0.00018612
0.000123505
7.23541e-05
0.000125214
1.22503e-05
0.000127843
3.43842e-05
7.04043e-05
1.19792e-06
0.000137299
0.000104469
5.16069e-05
0.000205654
1.60573e-05
3.57595e-05
7.26339e-06
5.25354e-05
2.05087e-05
6.87526e-05
0.000126614
0.000112835
0.000112909
0.000160874
1.78414e-05
8.59322e-06
9.21168e-05
2.38252e-05
6.98491e-06
2.37634e-05
1.69335e-05
5.06356e-05
2.08928e-05
4.39975e-06
4.11727e-06
3.51517e-06
1.1312e-06
4.02669e-05
2.81777e-05
4.03296e-05
3.90395e-05
7.18158e-05
0.000108229
1.06301e-05
0.00010361
1.63748e-05
0.00017906
3.70914e-05
0.000173904
3.77626e-05
6.37489e-05
8.13006e-05
0.000159236
0.00017863
2.46334e-05
3.86435e-05
1.98156e-05
3.4717e-05
7.8297e-06
0.000163741
0.00015348
1.90146e-05
6.1325e-05
0.000127847
1.67768e-05
9.06113e-05
0.000159161
3.46153e-05
7.02e-06
1.20409e-05
9.96124e-06
3.47899e-05
4.09355e-05
2.60421e-05
2.25068e-05
5.62584e-06
5.88666e-05
4.77876e-05
7.5736e-05
3.75235e-05
2.08163e-05
1.24423e-05
4.99693e-05
8.90285e-06
9.0519e-06
2.03373e-05
0.000151565
7.53433e-06
8.12836e-05
1.88133e-05
1.12021e-05
5.45628e-05
0.000150778
3.47568e-05
2.79884e-05
8.37114e-06
2.86884e-05
2.88827e-05
6.06532e-05
4.18834e-05
8.23186e-06
2.8419e-05
0.000140177
3.31757e-05
4.94041e-05
0.000148934
0.00014658
1.72222e-05
1.77148e-05
1.71414e-05
1.85911e-06
1.69332e-06
1.20585e-05
5.5209e-06
2.42585e-06
4.79647e-05
9.9684e-05
3.35421e-05
8.07167e-05
4.11295e-05
6.81061e-06
1.28569e-05
4.02199e-06
2.64397e-06
6.38794e-06
1.88847e-05
4.1751e-05
1.20794e-05
9.55055e-06
2.87843e-05
1.75405e-05
5.27048e-05
1.46325e-05
2.91522e-05
1.91899e-05
2.77235e-07
3.80014e-05
8.50236e-05
3.70982e-05
1.27349e-05
3.82824e-06
9.65715e-06
0.000161737
2.7145e-06
8.3761e-05
0.00016034
8.0551e-05
1.49141e-05
1.63054e-05
8.18805e-06
2.07018e-06
6.51064e-06
2.76267e-05
1.27492e-05
1.22965e-05
0.000135433
0.00011191
3.45584e-05
5.60694e-05
6.262e-06
6.49466e-06
1.37458e-05
1.49977e-06
7.29879e-06
2.4905e-06
3.50758e-05
1.49853e-05
2.12956e-05
1.73639e-05
3.41068e-05
3.46795e-05
3.57464e-05
1.15848e-05
3.52422e-05
1.33465e-05
3.29246e-05
0.000142122
9.47719e-06
3.42192e-05
6.20728e-06
1.55951e-06
3.26078e-06
1.81073e-05
2.23131e-05
5.07802e-05
1.64625e-05
6.36089e-06
1.41586e-05
2.9716e-05
1.8887e-05
1.013e-05
7.40935e-06
2.10263e-05
1.56817e-05
3.58817e-05
0.000161796
5.12816e-05
3.63446e-05
2.30774e-05
3.52496e-06
1.03225e-05
1.71235e-05
8.29113e-07
4.48439e-06
7.96019e-06
4.23841e-05
1.48383e-05
1.43237e-05
2.32211e-05
2.04737e-05
2.74712e-05
1.50609e-05
2.58968e-05
1.10909e-06
4.34228e-06
7.68463e-06
0.000200966
1.7026e-06
5.17739e-05
1.92728e-05
1.87394e-05
2.21812e-06
1.84836e-05
2.25958e-05
1.20763e-05
1.70546e-05
1.72172e-05
1.33142e-05
2.30871e-05
4.52042e-06
1.69954e-05
7.6369e-06
9.68467e-06
1.25459e-05
8.79652e-05
7.78533e-05
2.68756e-05
1.69428e-05
1.38739e-05
6.01929e-06
8.26394e-06
1.13014e-05
7.54771e-06
1.33818e-06
5.70694e-06
6.19888e-06
2.00689e-05
1.75443e-05
1.87874e-05
8.95423e-06
2.26876e-05
1.44593e-05
3.70113e-05
2.10782e-06
2.31092e-07
3.81435e-06
1.96124e-05
2.87466e-05
4.19823e-05
3.88115e-05
1.6994e-05
1.60456e-05
1.43955e-05
2.41176e-05
4.74305e-06
1.98871e-05
2.71707e-06
3.12706e-06
9.0738e-06
4.35888e-06
2.03459e-05
6.26367e-06
6.59335e-07
3.40942e-06
7.96651e-05
2.97802e-05
7.09394e-06
1.02e-06
5.8356e-06
5.2175e-06
1.02918e-05
1.51045e-06
9.3097e-07
9.91034e-07
1.11665e-06
5.64788e-07
2.71168e-05
1.94486e-05
6.44348e-06
1.32905e-05
3.32363e-05
4.24524e-06
3.74491e-05
3.91426e-05
6.71764e-06
7.62384e-06
2.74265e-05
6.505e-05
5.24129e-05
1.64366e-05
9.58082e-06
1.03642e-05
2.13891e-05
3.26795e-05
1.20793e-06
1.50337e-06
2.4932e-06
2.72045e-06
2.58789e-07
3.53048e-06
1.03367e-05
4.19447e-06
2.13664e-05
6.94352e-07
3.42206e-05
5.09979e-05
2.80084e-07
4.80097e-07
3.52477e-06
1.10718e-05
6.00052e-06
1.23153e-06
8.37391e-07
9.39902e-07
6.01328e-06
6.1389e-07
2.97472e-05
1.20778e-05
1.11083e-05
1.2126e-05
3.03968e-05
1.5842e-06
5.4576e-06
2.00806e-07
5.4365e-06
2.43544e-05
7.637e-05
5.25061e-05
4.49858e-05
6.09941e-06
3.46056e-05
8.52739e-06
1.86354e-05
1.81465e-05
9.30351e-06
5.42316e-06
1.84038e-05
2.82478e-05
5.15617e-07
1.32685e-05
4.40473e-06
6.87222e-06
7.58514e-06
2.73196e-06
1.78403e-05
4.48319e-06
1.70968e-06
8.34347e-07
2.54022e-06
1.864e-05
7.36209e-06
1.49354e-06
7.43731e-07
1.55261e-05
1.15772e-05
4.06284e-07
1.90481e-05
1.05751e-05
1.41865e-05
2.81187e-06
2.23036e-05
1.70746e-06
3.51113e-05
1.79259e-05
1.3824e-05
5.00557e-06
2.79617e-05
1.81346e-05
2.20843e-05
4.10643e-06
6.83886e-05
1.02431e-05
6.97625e-05
2.33822e-05
1.61335e-05
8.39635e-06
1.37544e-05
6.25506e-07
1.11959e-06
6.31939e-05
8.96088e-06
3.83614e-06
4.32481e-07
1.08885e-05
3.57176e-06
7.80538e-06
3.40964e-06
7.14195e-07
2.75593e-06
3.81923e-06
5.08256e-06
1.15047e-06
5.33443e-07
3.07366e-05
1.78022e-05
2.7827e-05
1.01241e-05
2.29016e-05
1.97989e-05
3.43848e-06
1.12854e-05
1.13585e-05
5.31903e-06
7.11366e-06
1.78639e-05
6.25891e-06
4.18264e-07
1.12783e-06
2.846e-05
1.54309e-05
6.84282e-05
1.40205e-05
5.52244e-05
1.91497e-05
2.06647e-05
1.9898e-05
4.89078e-05
1.96522e-05
3.53538e-06
7.76917e-07
7.87249e-06
2.19873e-06
1.74856e-05
3.81275e-05
6.76747e-06
1.66044e-05
2.14091e-06
3.54448e-08
4.54285e-07
1.2675e-06
2.60434e-06
2.16943e-06
1.04327e-05
5.83997e-06
3.55954e-06
8.16246e-05
7.95316e-06
5.15625e-05
2.84351e-05
5.05385e-05
2.14294e-05
4.35192e-07
3.29369e-06
8.90659e-06
1.38126e-05
1.1226e-05
3.63293e-06
1.14753e-05
2.15896e-05
4.38448e-05
5.10168e-05
2.79751e-05
1.76212e-05
1.14439e-05
8.07278e-06
2.2164e-05
1.73203e-05
1.65515e-06
5.58717e-06
6.88555e-06
1.5292e-06
8.89752e-07
1.35742e-05
6.5814e-06
3.22879e-06
1.45326e-05
1.96603e-06
5.23381e-08
2.2557e-07
4.3503e-07
1.90026e-06
7.80265e-06
1.04793e-05
1.03333e-06
5.91515e-06
0.000102684
1.52822e-05
0.00010082
8.04397e-06
2.99456e-05
8.16068e-06
3.51094e-07
2.43754e-06
5.27877e-06
1.0148e-05
9.10113e-06
7.57535e-06
8.32453e-06
1.38644e-05
0.00011091
4.41462e-05
2.65403e-06
9.81654e-06
1.04737e-05
1.40024e-06
5.2543e-05
0.000108789
2.45786e-06
2.85003e-06
1.10558e-05
4.72175e-07
8.71777e-08
1.50443e-06
1.80491e-05
2.73498e-06
5.09349e-06
1.17445e-06
1.5385e-07
2.13071e-07
1.78228e-07
2.24816e-06
1.77477e-05
3.71251e-06
2.53589e-06
3.66047e-05
7.28672e-05
1.26353e-06
1.87317e-05
5.02971e-06
6.55742e-06
1.0233e-06
2.75751e-07
9.11075e-07
2.02397e-06
3.01679e-06
5.2512e-06
1.35763e-05
1.09232e-05
3.34039e-05
0.000128696
5.50027e-05
5.22564e-08
1.24843e-06
2.78372e-05
5.26312e-07
9.80557e-05
2.39922e-07
2.90425e-06
9.93314e-07
3.3042e-06
7.6243e-07
4.12925e-08
1.2797e-06
8.17254e-05
4.85322e-06
1.25353e-06
6.10537e-07
1.48134e-07
7.85319e-08
1.30211e-06
1.19244e-05
1.82754e-05
5.25379e-06
6.80185e-05
5.1238e-05
1.15421e-05
6.39625e-06
1.20594e-06
6.8706e-07
1.50098e-06
3.44273e-07
1.58076e-07
5.85632e-07
5.51319e-07
1.44508e-06
1.01904e-05
1.82504e-05
3.28103e-06
3.82124e-05
0.000118579
3.64075e-06
3.84108e-07
9.87348e-07
1.41106e-06
1.55392e-06
4.98107e-06
2.70477e-07
3.61985e-06
1.49007e-06
1.19934e-07
1.42395e-07
2.54534e-08
6.13694e-05
4.52622e-05
7.57252e-07
4.9151e-07
2.66637e-07
1.31051e-08
5.28328e-06
1.16571e-05
5.19687e-06
5.15227e-06
2.07324e-05
1.84176e-06
1.99368e-06
6.43587e-06
1.52722e-06
1.66639e-07
1.24844e-07
5.95157e-08
1.61769e-07
2.60916e-08
9.00398e-07
1.40876e-07
1.29165e-06
7.00776e-06
6.60835e-08
8.7387e-08
1.11726e-05
1.08457e-05
1.24637e-07
3.9053e-08
7.19229e-07
2.50492e-07
6.53234e-08
9.16153e-09
6.78876e-07
8.71392e-07
1.64129e-07
6.36644e-09
8.29555e-08
1.34248e-07
4.07204e-05
1.60382e-08
1.93904e-07
1.64304e-07
2.98505e-08
3.98974e-07
1.00384e-05
5.94069e-06
1.19927e-06
1.11992e-06
4.82346e-05
5.27262e-08
3.20356e-07
4.68399e-07
2.00084e-07
4.38729e-09
1.05792e-08
1.6742e-08
8.65587e-09
2.00339e-07
5.14469e-07
1.16083e-08
1.6966e-07
1.57869e-09
3.99596e-08
1.82626e-08
1.10152e-06
2.82283e-07
5.96151e-10
4.04071e-08
1.57925e-07
1.48699e-07
4.17997e-09
2.98093e-08
2.60728e-07
1.61172e-08
2.15841e-07
4.482e-09
2.47345e-08
1.00746e-06
4.56652e-07
6.50029e-09
6.06634e-08
4.28344e-08
1.98621e-09
1.6518e-06
4.88574e-06
1.20936e-06
1.94866e-07
4.77816e-07
2.0281e-07
8.57162e-09
1.96336e-08
7.42863e-08
3.25582e-08
3.64509e-11
5.88044e-09
1.58978e-08
4.01691e-08
1.41162e-07
9.18927e-08
3.05129e-09
5.16219e-09
2.95253e-08
5.16462e-09
1.88537e-08
9.02464e-08
4.76291e-09
5.49825e-09
2.19051e-08
8.51696e-08
1.12735e-07
1.07199e-08
9.91313e-09
4.65347e-09
8.91852e-08
1.64286e-08
9.9521e-09
1.02399e-09
1.12673e-07
1.34648e-08
3.34145e-09
3.11116e-08
1.00151e-08
1.80591e-08
8.13732e-07
1.08209e-06
1.16591e-07
1.67855e-09
1.23675e-09
4.67829e-09
1.26704e-10
1.03266e-09
9.67595e-09
3.13669e-09
2.54988e-12
8.19772e-10
2.81443e-09
4.31006e-09
1.22166e-08
1.25033e-08
3.52951e-09
2.66413e-09
1.01062e-09
2.90164e-12
4.07324e-09
8.67055e-09
6.54486e-11
1.24276e-09
3.08195e-09
1.7835e-08
1.73936e-08
5.1232e-10
3.91454e-11
2.06065e-10
5.87986e-09
4.83463e-10
1.34221e-09
3.15872e-11
9.84388e-09
2.42043e-09
1.36793e-10
3.72514e-09
1.66727e-09
1.69143e-09
7.70464e-08
8.95179e-08
4.30841e-09
2.80935e-11
4.29069e-10
2.19542e-10
0.000115202
0.000156388
0.000127802
5.96862e-05
1.73553e-05
9.97531e-06
2.24512e-05
5.35618e-05
5.65071e-05
2.15034e-05
1.00263e-05
5.30585e-06
3.34212e-06
3.5534e-05
9.72023e-05
2.45469e-05
1.1186e-05
1.44784e-05
1.8124e-05
2.50673e-05
1.28334e-06
1.01944e-05
9.0545e-06
3.81839e-05
4.71072e-05
2.78872e-05
2.0431e-05
1.80762e-05
1.48345e-05
2.34986e-05
4.66339e-05
2.45843e-05
3.59193e-06
1.24908e-05
2.18125e-05
2.06986e-05
2.21369e-05
0.000123379
5.8176e-05
1.47082e-05
7.32859e-06
2.15903e-05
8.49283e-05
8.7435e-05
4.4037e-05
3.13164e-05
4.74949e-05
6.88727e-05
7.02042e-05
2.34618e-05
8.76775e-06
1.03449e-05
3.17911e-05
3.64702e-05
3.00786e-05
7.32528e-06
2.34678e-05
2.1342e-05
1.92715e-05
3.37671e-05
2.88047e-05
1.44266e-05
5.09704e-07
1.95079e-05
0.000108625
3.50584e-05
7.4652e-06
2.32904e-05
3.62424e-05
3.225e-05
2.23705e-05
1.0699e-05
1.35559e-05
4.57464e-05
3.65517e-05
4.16809e-06
9.12402e-06
1.12856e-05
4.81217e-06
2.02315e-06
4.75414e-06
1.80506e-05
2.50087e-05
9.72332e-06
1.6783e-05
2.33937e-05
2.54538e-05
2.00738e-05
3.63765e-06
2.0066e-06
2.31867e-06
4.62981e-07
3.14167e-06
3.16402e-05
2.4708e-05
2.08599e-05
1.95608e-05
2.15643e-05
1.79823e-05
2.97856e-05
4.83971e-05
3.37165e-05
3.30951e-06
7.02187e-05
5.15118e-06
1.86623e-05
1.27148e-05
3.85887e-06
1.79455e-06
6.47483e-06
8.319e-06
1.94055e-05
8.73973e-05
0.000165016
4.4831e-05
1.40169e-05
1.00941e-05
3.35732e-05
7.87517e-05
8.57638e-05
2.87137e-06
1.4695e-06
1.48121e-05
2.84853e-05
2.59628e-05
2.42955e-05
1.70667e-05
3.43495e-06
7.33155e-06
1.53515e-05
1.9088e-05
2.1416e-05
7.94972e-05
0.000121087
5.86007e-05
3.77492e-05
3.4082e-05
2.10664e-05
1.99864e-05
4.8185e-05
4.33933e-05
1.05577e-05
1.48362e-05
5.58147e-05
4.0098e-06
0.000114016
0.000330555
8.11029e-05
1.61516e-05
1.85279e-05
1.24836e-05
1.04769e-05
0.000119983
3.54672e-05
5.90069e-05
0.000204947
1.45757e-05
3.2764e-05
5.27235e-05
1.4883e-05
2.26041e-05
1.95441e-05
9.36662e-06
4.17846e-05
3.63883e-05
1.25429e-06
2.08744e-05
0.000153543
0.000228336
0.000184719
0.00013785
3.46886e-05
2.48392e-05
4.8054e-05
4.11602e-05
2.24714e-05
2.55961e-05
5.72682e-05
0.000115191
6.23065e-06
1.44262e-05
2.26161e-05
6.27222e-05
9.147e-05
0.000127665
0.000261809
0.000196606
8.34847e-06
6.72844e-05
0.000169908
2.28501e-05
0.0001049
9.76686e-05
2.00988e-05
7.53483e-05
6.68443e-05
2.07993e-05
1.26574e-05
2.05801e-05
1.13895e-05
2.8241e-05
7.59242e-05
0.000160451
0.000178263
7.2945e-05
7.73901e-06
1.35621e-05
7.12144e-06
2.81775e-05
0.000113953
5.83021e-05
2.80572e-05
1.79545e-05
1.5853e-05
2.12563e-05
2.10646e-05
2.21271e-05
9.01391e-06
1.83774e-05
2.20339e-05
1.46379e-05
4.23362e-05
0.000195195
0.000104487
3.50657e-05
0.000241459
0.00013926
3.72184e-05
4.76169e-05
8.34688e-05
1.38285e-05
3.05613e-05
7.48889e-05
0.000179689
1.65556e-05
1.92694e-05
2.46185e-05
7.43451e-05
1.19235e-05
1.64253e-05
6.50279e-06
6.00491e-05
0.000239275
0.000153972
3.69499e-05
3.02979e-05
1.47083e-05
1.23152e-05
5.04191e-05
6.17672e-06
2.61972e-05
1.83061e-05
8.24928e-06
1.00551e-05
1.32212e-05
2.60549e-06
7.76822e-05
1.00772e-05
1.83875e-05
2.51166e-05
2.1349e-05
9.62817e-05
5.38832e-05
3.87444e-05
4.12314e-05
0.00016621
0.00016418
0.0001572
6.53825e-05
4.50239e-05
8.91908e-06
7.48017e-05
0.000226235
2.82559e-05
2.75171e-05
1.71717e-05
2.36647e-05
0.000138677
2.48045e-05
1.36488e-05
0.000109162
2.36763e-05
2.12141e-05
1.78721e-05
2.13999e-06
1.90136e-06
2.25608e-05
0.000217524
0.000102621
3.28836e-06
2.04746e-05
1.85148e-05
6.25098e-05
0.000109899
0.000109516
0.000147611
7.25192e-05
4.48733e-05
1.11253e-06
0.000180498
6.59234e-05
2.57461e-05
5.95755e-05
5.12914e-05
8.53987e-05
0.000184708
0.000147473
0.00010666
0.000106824
5.19728e-05
1.30379e-05
0.000166123
7.85971e-05
2.75517e-05
2.71765e-05
3.70189e-06
0.000102294
2.58784e-05
1.76574e-05
7.45856e-05
2.77114e-05
3.12463e-05
1.68587e-05
1.75447e-05
2.2587e-05
6.77249e-06
1.49222e-05
4.45819e-05
1.38399e-05
2.95275e-05
4.2125e-05
2.15829e-05
2.64016e-05
4.80454e-05
6.33698e-05
0.000178466
4.01809e-05
2.95779e-05
1.58962e-05
4.78056e-06
2.07215e-05
2.49512e-05
5.26614e-05
6.24057e-05
5.86406e-05
2.78109e-05
1.52762e-05
1.1804e-05
8.27764e-06
0.000165335
2.91528e-05
2.54948e-05
2.87626e-05
2.29957e-05
1.35724e-05
7.0468e-06
5.05574e-05
0.000100539
2.95098e-05
2.04838e-05
2.017e-05
1.51185e-05
1.44023e-05
1.26815e-05
4.95079e-06
7.13709e-06
7.68552e-06
2.63808e-06
7.87242e-05
3.0717e-06
2.82059e-05
1.65852e-05
1.43277e-05
1.10866e-05
0.000107772
2.98345e-05
3.51391e-05
5.71568e-05
4.01853e-05
1.94826e-05
1.0325e-05
1.17546e-05
1.26245e-05
1.56785e-05
2.90488e-05
1.7364e-05
3.23514e-06
1.77645e-05
0.000145761
3.06194e-05
5.97824e-06
2.90169e-05
2.52707e-05
1.03706e-05
2.21852e-05
3.53538e-05
2.67494e-05
2.08651e-05
3.83466e-05
6.85284e-05
8.20426e-05
0.000188084
3.27995e-05
1.5353e-05
0.000138361
5.30386e-06
6.26342e-06
3.72175e-06
1.37696e-05
2.5347e-05
8.70493e-06
5.22762e-07
2.66145e-05
0.000244182
0.000220098
9.00136e-05
9.84065e-05
4.88954e-05
6.29842e-06
5.02066e-05
3.1804e-05
8.96556e-06
1.57013e-05
5.81521e-05
5.16868e-05
1.26428e-05
1.91637e-05
4.72487e-06
8.17903e-06
1.37931e-05
5.82159e-06
1.87124e-05
8.13215e-06
8.16584e-06
1.90578e-05
2.28808e-05
1.96477e-05
0.00019248
0.000143256
8.88237e-05
3.88768e-05
0.000186634
1.7026e-05
2.62729e-07
0.000224888
8.15806e-06
1.99584e-05
7.80688e-06
1.68319e-05
1.76295e-05
5.12591e-07
1.80656e-05
0.000159567
0.000244675
5.85105e-05
2.83312e-05
2.80289e-05
1.19597e-05
1.47201e-05
1.27816e-05
1.32939e-05
3.19303e-05
6.89313e-05
0.000118647
5.58442e-05
1.61114e-05
1.38311e-05
5.50073e-05
2.6348e-05
9.10298e-07
1.75165e-05
3.13562e-05
1.23504e-06
4.61823e-05
5.18984e-05
1.4358e-05
0.000104791
0.000125652
3.40108e-05
8.14168e-06
3.54444e-06
0.000176032
0.000147086
0.000229004
0.000289875
2.32221e-05
9.64711e-05
3.01953e-05
3.15036e-05
3.54786e-05
3.47977e-06
1.44314e-05
9.05083e-06
0.000168954
2.57782e-05
3.37314e-05
5.49517e-05
1.12596e-05
1.37801e-05
2.29734e-05
1.32804e-05
2.72613e-05
3.29217e-05
7.94685e-05
1.39624e-05
1.5194e-05
4.28014e-05
3.31386e-05
1.89734e-05
1.71076e-05
6.73743e-05
1.71242e-05
2.81066e-05
4.65138e-05
2.17756e-05
4.22853e-06
8.54285e-05
0.000161902
0.000107296
7.69123e-06
1.67048e-05
5.77367e-05
0.000147772
0.000273721
0.00015894
0.000106135
0.000278506
6.556e-05
2.79533e-05
8.81335e-06
1.12521e-05
1.29885e-05
8.74043e-06
0.000121509
2.32307e-05
9.71448e-07
1.09308e-05
6.75355e-05
1.08675e-05
1.19788e-05
1.55447e-05
2.91457e-05
3.42597e-05
9.66823e-05
0.000107398
4.40248e-06
2.29145e-05
4.17519e-06
2.07346e-05
1.31606e-05
1.88856e-05
1.58361e-05
2.13034e-05
7.41421e-06
1.71402e-06
3.05742e-05
9.77229e-05
0.000148379
1.63735e-05
1.59773e-05
2.59732e-05
0.000142318
7.79373e-05
0.000307294
9.11695e-05
0.000192774
0.000297917
0.000144359
1.60849e-05
1.39915e-05
8.59561e-06
8.31246e-06
3.10268e-05
9.26353e-05
6.92122e-05
8.08162e-06
0.000222457
0.000242785
8.84153e-06
1.6643e-05
1.92026e-05
0.000125208
0.000180937
0.000202131
0.000124087
6.25981e-06
1.57714e-05
6.59769e-06
1.81208e-05
3.36436e-06
5.88377e-06
3.82609e-05
1.78883e-05
2.90809e-05
6.8968e-05
9.46304e-05
7.17372e-05
2.52236e-05
1.29583e-05
1.36561e-05
2.92331e-05
5.14885e-05
1.2256e-05
0.000311996
3.60133e-05
0.000284821
7.83299e-05
0.000159737
2.43062e-06
2.75077e-05
4.37245e-05
0.000152541
0.00018855
1.83532e-05
5.11162e-06
7.97616e-06
0.000247697
0.000115866
2.62677e-05
1.61075e-05
9.47054e-05
0.000186329
0.000102933
7.14286e-05
0.000124387
9.90842e-06
1.51113e-05
1.2653e-05
9.66606e-06
1.59337e-06
2.48688e-05
3.72875e-05
1.04279e-05
2.22716e-05
8.30124e-05
2.70848e-05
4.6519e-06
5.29427e-05
5.08226e-06
1.55195e-05
6.25374e-05
6.7374e-06
1.4374e-05
0.000249521
1.63291e-05
0.000296316
3.01334e-05
0.000105136
5.53001e-06
3.02577e-05
2.74256e-05
1.82297e-05
8.87104e-05
6.05978e-06
2.89661e-05
2.94141e-06
0.000104859
3.17249e-05
1.77218e-05
5.15326e-05
0.00024674
5.93352e-05
3.73446e-05
1.01194e-05
2.70996e-05
3.54868e-06
9.1538e-06
1.72254e-05
6.8336e-06
8.65447e-06
4.01143e-05
1.57262e-05
6.87959e-06
2.34724e-05
7.70196e-05
4.44978e-07
5.74919e-06
1.77645e-05
4.78351e-06
2.17045e-05
1.1046e-05
2.77937e-05
5.70428e-05
6.8513e-05
3.20112e-05
0.000274812
1.09556e-05
1.59699e-05
2.60235e-05
9.12221e-06
3.75224e-05
1.60072e-05
1.26688e-05
4.31159e-05
3.45791e-05
8.51048e-06
2.37882e-05
9.10319e-06
1.56152e-05
3.31549e-05
0.000242217
1.66918e-05
3.92031e-05
4.50838e-05
1.53583e-05
1.5168e-05
7.58419e-05
1.91389e-05
2.95347e-05
2.68448e-05
4.10342e-05
4.06143e-07
1.55871e-05
8.16335e-05
5.31057e-05
4.93415e-06
4.55253e-07
1.60207e-05
1.54576e-05
2.13153e-05
1.25617e-05
1.95752e-05
7.25657e-05
2.52693e-06
3.45214e-05
0.000255196
5.83418e-06
1.04474e-05
3.61543e-05
6.20062e-06
9.84189e-05
1.73474e-05
5.70192e-06
2.7448e-05
3.94371e-05
1.88734e-05
1.72056e-05
9.28293e-06
1.72758e-05
1.36706e-05
0.000114537
7.67804e-05
1.43147e-05
7.38857e-06
4.60583e-06
4.20036e-06
4.10353e-05
2.25671e-05
6.51282e-06
1.37492e-05
2.82707e-05
2.00636e-05
7.02256e-05
8.26328e-05
2.26411e-06
3.87578e-06
1.84167e-05
9.79431e-06
2.11271e-05
5.36087e-06
1.50482e-05
1.87323e-05
2.51878e-05
6.49743e-06
9.47142e-05
0.000283817
6.17701e-06
3.8007e-05
2.17648e-05
2.04618e-05
9.8297e-06
8.49904e-06
1.34262e-05
2.88586e-05
4.39124e-05
0.000160242
2.35599e-05
9.37341e-06
1.30154e-05
4.50019e-07
7.34661e-05
0.000210932
3.06949e-05
3.4497e-06
8.97337e-06
5.55361e-07
3.05779e-05
2.17762e-07
1.09517e-06
5.58501e-06
1.59019e-05
3.12531e-05
4.42879e-05
5.42552e-06
5.81944e-06
4.38736e-06
2.60648e-05
8.55341e-06
3.89679e-06
9.12119e-06
2.22128e-05
1.49761e-05
9.06113e-06
1.42031e-05
0.000120071
0.000305377
8.59128e-06
4.47169e-05
1.65881e-05
5.30563e-05
7.63791e-06
1.78838e-05
2.03836e-06
8.72588e-07
0.000153986
0.000232848
3.78385e-05
1.15156e-05
1.50624e-05
7.26242e-06
4.04515e-05
0.00021056
7.29177e-05
2.04598e-05
1.10748e-06
1.89689e-05
1.03761e-05
3.398e-07
4.07524e-06
4.05577e-06
3.17795e-06
1.22622e-06
1.07385e-05
7.52713e-06
2.95622e-06
1.03771e-05
3.25011e-05
1.55849e-05
1.06303e-05
1.36305e-05
7.90883e-06
9.35959e-06
1.50064e-05
1.57322e-05
0.00010616
0.000180565
0.000109548
3.38845e-05
8.85634e-06
0.00010311
2.12496e-05
1.5826e-06
6.57726e-06
0.000132544
0.000347159
0.000253546
3.07787e-05
1.39637e-05
1.5766e-05
1.52351e-05
2.90787e-05
0.000201101
0.000183486
2.02421e-05
1.56831e-05
1.61454e-05
3.55745e-06
3.60134e-06
2.85063e-05
4.50488e-06
1.20795e-06
4.15516e-06
8.37779e-06
7.4724e-06
3.99132e-06
1.44159e-05
9.50318e-06
5.92158e-06
9.1834e-06
2.62727e-05
1.78993e-05
6.35616e-06
4.71745e-05
1.44287e-05
7.64327e-05
1.98205e-05
9.11827e-05
4.10809e-05
1.22705e-05
0.000132384
1.33886e-05
2.92563e-06
2.51028e-06
9.85181e-05
0.000320492
0.000195162
1.13996e-05
1.59278e-05
1.76601e-05
2.01984e-05
4.66396e-05
0.000169456
0.000110457
1.6033e-05
4.53265e-06
1.59461e-05
5.10171e-05
1.62284e-06
2.15388e-05
4.55456e-06
4.06352e-06
2.28229e-05
6.92192e-06
7.37428e-06
3.1008e-06
3.12267e-05
3.47804e-05
1.93055e-05
6.24496e-06
1.41543e-05
4.31922e-06
1.07586e-05
9.80809e-06
3.61325e-06
1.6271e-05
8.77336e-07
0.00010074
6.60596e-05
4.10676e-05
0.00010896
1.61209e-05
4.66782e-06
1.58615e-05
5.90088e-05
0.000159851
2.71643e-05
9.55731e-06
1.56655e-05
1.66649e-05
2.02181e-05
4.51731e-05
0.000137187
7.70153e-05
1.76257e-05
2.6545e-06
1.02914e-05
5.84316e-06
7.38632e-07
1.87781e-05
9.43542e-07
1.78482e-05
2.55914e-05
1.85482e-06
1.87851e-06
1.08629e-05
1.62819e-05
8.14737e-05
3.9441e-05
2.27904e-05
1.5367e-05
9.85525e-07
8.16751e-06
1.10078e-05
7.11724e-06
6.60679e-06
1.78634e-05
0.000125905
6.49215e-05
7.63299e-05
6.33381e-05
1.45307e-05
8.86977e-06
2.45318e-05
2.56017e-05
1.45574e-05
9.54056e-06
4.24946e-06
2.0618e-05
4.03517e-05
1.34794e-05
2.16661e-05
8.17625e-05
5.12698e-05
1.43328e-05
8.90896e-06
1.59834e-05
5.77384e-07
1.23099e-06
5.39776e-06
5.49039e-07
1.05034e-05
7.07814e-05
1.65489e-07
6.83354e-07
3.63443e-05
5.80822e-05
0.000100397
1.09108e-05
2.32413e-05
6.86443e-06
4.70695e-06
1.88546e-05
1.01241e-05
9.14379e-06
3.57222e-05
4.73089e-05
0.000127603
5.40477e-05
9.31148e-05
1.0036e-05
1.85676e-05
2.07336e-05
6.8705e-06
6.54881e-06
2.80687e-06
1.24524e-05
1.24758e-06
1.37001e-05
7.55805e-05
1.36371e-05
9.85702e-06
1.8093e-05
1.24461e-05
1.70788e-05
9.95723e-06
1.71724e-05
3.29034e-07
1.71836e-05
3.87011e-07
1.01385e-05
1.14141e-05
1.54694e-06
1.34889e-07
1.01375e-06
1.13716e-05
2.40549e-05
3.9164e-06
4.09797e-06
4.10956e-06
2.25858e-06
1.59131e-05
6.28021e-06
3.26443e-06
2.18994e-06
7.08021e-05
6.32859e-05
2.88068e-05
1.92481e-05
9.19693e-05
6.0266e-08
1.69955e-05
1.26411e-05
8.82846e-07
7.57337e-07
3.50477e-06
3.06561e-05
1.54605e-05
3.09181e-06
4.67047e-05
3.54828e-05
1.61674e-05
3.44119e-06
4.6454e-06
4.36262e-06
2.30881e-05
5.64101e-05
1.79859e-05
5.27733e-07
6.45505e-08
8.52342e-05
5.18538e-06
4.25678e-07
1.31445e-07
3.42305e-07
1.53461e-06
6.46206e-06
1.72023e-06
5.92203e-07
6.61975e-07
6.44561e-06
3.37287e-07
1.74677e-07
5.87717e-07
2.42877e-07
4.25855e-05
3.38956e-05
1.00685e-07
1.6134e-06
2.64123e-05
5.15555e-07
5.02411e-06
2.36209e-05
5.75656e-07
5.14378e-06
3.72819e-05
1.49129e-05
1.38381e-05
8.48172e-06
4.02619e-05
2.01739e-05
1.9686e-05
1.35983e-06
1.50865e-05
3.83134e-06
9.55162e-07
2.75579e-05
5.22924e-08
1.63672e-07
4.78239e-08
9.24447e-05
5.0447e-07
5.93362e-07
1.21404e-07
3.82977e-07
9.65806e-06
6.74658e-06
1.29057e-07
1.12754e-08
2.02392e-07
5.71312e-06
2.99903e-08
1.92279e-08
2.17546e-07
3.0622e-08
4.9204e-06
1.04586e-06
4.49461e-09
2.19831e-07
8.69507e-08
4.90931e-07
3.67912e-07
8.64779e-09
9.05723e-07
5.71619e-06
5.43156e-06
2.88478e-06
1.27816e-06
2.92927e-06
2.6066e-06
2.63364e-05
1.01064e-05
1.65674e-06
2.13781e-05
1.66673e-06
3.83813e-07
2.29476e-08
1.03051e-07
8.65149e-08
4.47532e-06
5.71896e-08
3.11651e-07
5.53473e-07
1.4639e-08
3.02102e-06
8.15585e-06
1.76372e-07
4.47416e-08
3.45173e-09
8.49435e-07
1.66767e-06
1.26149e-08
1.29797e-07
1.14997e-07
4.54403e-09
7.4143e-07
7.42822e-08
4.70665e-09
7.7783e-08
1.29568e-07
7.68782e-08
2.91729e-08
7.90449e-08
1.99465e-07
1.63422e-07
2.26542e-07
2.02098e-07
2.89244e-07
3.34949e-07
4.31858e-07
3.86595e-08
2.12686e-08
5.0642e-09
5.88616e-08
1.34204e-08
2.54717e-09
1.60016e-08