/*--------------------------------*- C++ -*----------------------------------*\
  =========                 |
  \\      /  F ield         | OpenFOAM: The Open Source CFD Toolbox
   \\    /   O peration     | Website:  https://openfoam.org
    \\  /    A nd           | Version:  10
     \\/     M anipulation  |
\*---------------------------------------------------------------------------*/
FoamFile
{
    format      ascii;
    class       volVectorField;
    location    "6";
    object      UMean;
}
// * * * * * * * * * * * * * * * * * * * * * * * * * * * * * * * * * * * * * //

dimensions      [0 1 -1 0 0 0 0];

internalField   nonuniform List<vector> 
25600
(
(1.0605 0.00942722 0.00123431)
(1.06885 0.0107903 -0.000212494)
(1.08923 0.0179838 0.00229549)
(1.10808 0.0258224 0.0070073)
(1.11374 0.0266932 0.0113632)
(1.10761 0.015817 0.0108453)
(1.09453 0.000252394 0.00413716)
(1.08634 -0.00925498 -0.00477728)
(1.08635 -0.00940886 -0.0138565)
(1.08758 -0.00195619 -0.0195042)
(1.08648 0.004099 -0.022053)
(1.08059 0.00693294 -0.0235461)
(1.07954 0.00565481 -0.0254121)
(1.091 -0.000243712 -0.0289127)
(1.11565 -0.00577255 -0.0288969)
(1.14789 -0.0101857 -0.0253862)
(1.16662 -0.0117456 -0.0203288)
(1.16201 -0.0114761 -0.0154988)
(1.13836 -0.00980237 -0.0139328)
(1.10841 -0.00776286 -0.0121281)
(1.08883 -0.00854971 -0.0109757)
(1.08717 -0.0121892 -0.00829528)
(1.10083 -0.0157519 -0.00351378)
(1.11902 -0.0178066 -0.000897315)
(1.13019 -0.0181016 -0.000922077)
(1.1231 -0.0149992 -0.00662673)
(1.10409 -0.0130223 -0.0141142)
(1.08773 -0.0100691 -0.0165053)
(1.07708 -0.00464651 -0.0104793)
(1.07897 -0.000995703 0.00711627)
(1.08956 0.00391997 0.0266686)
(1.10029 0.00703434 0.0378938)
(1.1155 0.0107887 0.0384289)
(1.13152 0.0164141 0.0261743)
(1.1445 0.0190865 0.0118382)
(1.15037 0.0221354 0.00176036)
(1.13917 0.0223977 -0.00445711)
(1.11345 0.0196363 -0.00354412)
(1.08491 0.016058 -0.00189098)
(1.06186 0.0119065 8.6615e-05)
(1.13835 0.00606962 -0.0169182)
(1.122 -0.00313127 -0.0146452)
(1.11177 0.00136935 -0.00691747)
(1.10863 0.00971771 -0.00396456)
(1.1097 0.0157546 -0.00738059)
(1.11296 0.012593 -0.0129925)
(1.10957 0.00483773 -0.0201318)
(1.10383 0.00155108 -0.0221276)
(1.09696 0.00373858 -0.017415)
(1.09098 0.0163813 -0.00868916)
(1.09134 0.0324545 0.0053347)
(1.0913 0.0445812 0.0230221)
(1.09518 0.0481175 0.0388188)
(1.10434 0.0334008 0.0458987)
(1.11788 0.0160359 0.0357378)
(1.13646 0.00752895 0.0128809)
(1.14364 0.00865063 -0.00788552)
(1.13913 0.0177914 -0.0182973)
(1.12955 0.0229827 -0.0162809)
(1.11805 0.0205839 -0.00674918)
(1.11529 0.0117877 0.000973336)
(1.11876 -0.00163286 0.00619119)
(1.11979 -0.0118839 0.00729476)
(1.11085 -0.0166793 0.00484028)
(1.09187 -0.0194244 0.0030396)
(1.07112 -0.0181026 -0.0044634)
(1.05724 -0.0150612 -0.0147413)
(1.05802 -0.0109787 -0.0255381)
(1.0706 -0.00464541 -0.0334937)
(1.09243 -0.000439003 -0.0289252)
(1.11455 0.0029854 -0.0171521)
(1.12306 0.00646958 -0.00294877)
(1.11884 0.00915042 0.0115965)
(1.10518 0.00885144 0.0188899)
(1.09125 0.00540988 0.0213248)
(1.08762 0.00849236 0.0199313)
(1.0935 0.0202948 0.0142946)
(1.10993 0.03271 0.0078821)
(1.13074 0.036665 -0.00362118)
(1.14146 0.0254429 -0.0137991)
(1.16262 0.0156189 -0.0258776)
(1.12382 0.0103083 -0.015545)
(1.09745 0.00636212 -0.0138877)
(1.09089 0.00351619 -0.0256559)
(1.10244 0.00673084 -0.0382079)
(1.11737 0.01057 -0.0396965)
(1.11811 0.0149074 -0.031488)
(1.10052 0.0224027 -0.0190191)
(1.07328 0.0242083 -0.00611586)
(1.05182 0.0187334 0.00885398)
(1.05184 0.00802786 0.0275933)
(1.06882 -0.00309798 0.0485934)
(1.09223 -0.0103504 0.0660556)
(1.10819 -0.0165178 0.066384)
(1.10751 -0.01298 0.046719)
(1.09793 -0.00381964 0.0214294)
(1.08512 0.00317465 0.00639393)
(1.08235 0.00891112 0.00743377)
(1.09169 0.00866075 0.0163072)
(1.10241 0.00652513 0.0236953)
(1.10906 0.00285979 0.0246522)
(1.10772 -0.00372337 0.0196963)
(1.10119 -0.00678402 0.0102086)
(1.0863 -0.00677338 0.00138327)
(1.06701 -0.00622192 0.000251598)
(1.04914 -0.0055449 0.00365178)
(1.03425 -0.00612322 0.00865321)
(1.03209 -0.00639266 0.00509965)
(1.03725 -0.00393938 -0.0101114)
(1.04904 0.00272401 -0.0242936)
(1.06928 0.0124751 -0.028449)
(1.08948 0.0241956 -0.0153546)
(1.10685 0.0350376 0.0081551)
(1.11068 0.0413364 0.0241868)
(1.10414 0.0435369 0.028513)
(1.10737 0.0433175 0.0218148)
(1.12713 0.0412798 0.00621853)
(1.16049 0.037143 -0.0124861)
(1.18944 0.0315754 -0.0296196)
(1.19555 0.0244055 -0.034323)
(1.07269 0.0151269 0.00180522)
(1.05028 0.00592133 -0.00567407)
(1.04073 0.00200563 -0.0325976)
(1.04842 0.00663691 -0.0636369)
(1.0687 0.0189084 -0.0782669)
(1.09018 0.031412 -0.069562)
(1.09933 0.0431067 -0.0446822)
(1.09319 0.0494074 -0.0112669)
(1.07628 0.038527 0.0192691)
(1.05152 0.00912718 0.0381587)
(1.03195 -0.0240051 0.0412662)
(1.02462 -0.0389502 0.0305114)
(1.0312 -0.0267154 0.0129096)
(1.04524 0.000632971 -0.0106252)
(1.05392 0.0255636 -0.029506)
(1.05575 0.0327514 -0.029986)
(1.05127 0.0241752 -0.0112048)
(1.04854 0.0103538 0.0141445)
(1.05118 -0.00393057 0.0279916)
(1.05377 -0.0123207 0.0257428)
(1.0529 -0.0180491 0.0124314)
(1.04767 -0.0249103 -0.00262059)
(1.04529 -0.02595 -0.0140602)
(1.04482 -0.021742 -0.0184078)
(1.04514 -0.0166126 -0.0141087)
(1.04303 -0.0131421 -0.00578787)
(1.03632 -0.0153383 0.00594305)
(1.03633 -0.0211627 0.0159242)
(1.04216 -0.0262327 0.0235673)
(1.05738 -0.0237348 0.0330295)
(1.07544 -0.00968838 0.0446599)
(1.0822 0.0159891 0.0603794)
(1.08408 0.0409767 0.0713812)
(1.08442 0.0472423 0.0634355)
(1.09288 0.0368731 0.0392332)
(1.11346 0.0202447 0.00961162)
(1.13115 0.0108 -0.0156481)
(1.13997 0.0149507 -0.0281093)
(1.13106 0.0237376 -0.0249772)
(1.10552 0.0246328 -0.00994982)
(1.04603 0.0269094 0.00935313)
(1.03345 0.0157988 -0.0192981)
(1.03102 -0.00418275 -0.0599994)
(1.04086 -0.0203306 -0.0839756)
(1.05643 -0.0211947 -0.0803316)
(1.06697 -0.00532035 -0.0565094)
(1.06746 0.02317 -0.0196227)
(1.06436 0.0484517 0.022176)
(1.05874 0.0496905 0.0519417)
(1.04927 0.0176384 0.0573363)
(1.03899 -0.0239536 0.0313947)
(1.02591 -0.0413339 -0.012651)
(1.013 -0.0277212 -0.0457504)
(1.01146 -0.00214356 -0.0584599)
(1.02616 0.01647 -0.0479453)
(1.0483 0.0214449 -0.0207449)
(1.0591 0.0134814 0.00619034)
(1.05186 -0.00266813 0.0200247)
(1.03265 -0.0197041 0.0140993)
(1.01322 -0.0297175 -0.005101)
(1.00426 -0.0359611 -0.0216033)
(1.00411 -0.0428834 -0.0275325)
(1.00924 -0.043299 -0.0243204)
(1.01065 -0.0347805 -0.0175135)
(1.0117 -0.0198232 -0.0146066)
(1.01899 -0.00833377 -0.0105085)
(1.02264 -0.0106508 0.00190168)
(1.01586 -0.0238508 0.0175245)
(1.00053 -0.0379553 0.0358781)
(0.995629 -0.0376805 0.0536448)
(1.00086 -0.0235867 0.0662469)
(1.00833 -0.00525812 0.0720099)
(1.02064 0.00718971 0.0633808)
(1.02911 0.00878155 0.0416238)
(1.03764 0.00818983 0.0172626)
(1.04777 0.00692975 -0.00515394)
(1.05653 0.00931318 -0.022677)
(1.06824 0.01839 -0.0260418)
(1.0705 0.0274812 -0.0122242)
(1.06142 0.0304665 0.00724254)
(1.06885 0.0328815 0.0247335)
(1.06994 0.0238657 -0.0228792)
(1.076 0.00733071 -0.0661695)
(1.07522 -0.00700187 -0.0746231)
(1.07077 -0.0103002 -0.0526033)
(1.06348 0.00204129 -0.0178637)
(1.05909 0.0228742 0.0221497)
(1.06085 0.0403329 0.0587231)
(1.06229 0.0422513 0.0744894)
(1.05444 0.0212905 0.0619788)
(1.03828 -0.00547743 0.0268834)
(1.03098 -0.0173869 -0.00187801)
(1.02724 -0.0134955 -0.0114781)
(1.01912 -0.0111886 -0.0173757)
(1.01536 -0.01725 -0.0206488)
(1.02726 -0.0159816 -0.0145667)
(1.04928 -0.00522256 0.000976913)
(1.05195 -0.0032873 0.018884)
(1.02859 -0.0160333 0.0223104)
(0.998813 -0.0320585 0.00923239)
(0.982052 -0.0457438 -0.00421534)
(0.981829 -0.0565751 -0.00730072)
(0.99529 -0.0565205 -0.000178194)
(1.01339 -0.0439311 0.00732751)
(1.03532 -0.0243183 0.0100473)
(1.05567 -0.00710266 0.0195462)
(1.04517 -0.000660143 0.0350341)
(0.999902 -0.0116431 0.0436603)
(0.951402 -0.0407164 0.0406213)
(0.932113 -0.0645529 0.0298193)
(0.941102 -0.0650806 0.0265978)
(0.965984 -0.0430809 0.0338706)
(0.993527 -0.0162969 0.0382369)
(1.00373 -0.00333617 0.0348768)
(1.0029 -0.00226121 0.0197921)
(1.00263 -0.00529936 -0.00718591)
(1.01281 -0.00469166 -0.0306836)
(1.03901 0.00290419 -0.0287605)
(1.06384 0.0158162 0.00254431)
(1.07014 0.0288323 0.0338583)
(1.07512 0.0498065 0.0187293)
(1.11574 0.0287458 -0.018611)
(1.14435 0.00750955 -0.0427925)
(1.12743 -0.00721073 -0.043342)
(1.08501 -0.0156097 -0.0158402)
(1.04972 -0.0138281 0.0316595)
(1.04474 0.00342437 0.0770517)
(1.06283 0.0340226 0.0932708)
(1.07768 0.0535741 0.0821941)
(1.06419 0.0367308 0.0461716)
(1.03116 0.0018504 -0.00641068)
(1.02735 -0.0155103 -0.0338219)
(1.04691 -0.011357 -0.0354829)
(1.05977 -0.00856225 -0.0375657)
(1.05044 -0.0182672 -0.0365026)
(1.02991 -0.0255542 -0.0183118)
(1.01675 -0.0215253 0.0152632)
(0.995701 -0.0232973 0.0354492)
(0.976162 -0.0336345 0.0213078)
(0.963461 -0.0399268 -0.00872461)
(0.952883 -0.0484232 -0.0199908)
(0.951063 -0.0630615 -0.00619831)
(0.964743 -0.070908 0.0117624)
(0.989873 -0.0628829 0.0192747)
(1.01861 -0.0343678 0.0304246)
(1.02309 -0.000999556 0.0533027)
(0.988382 0.0145942 0.0624256)
(0.948234 0.000837115 0.0426798)
(0.921505 -0.037755 0.00963433)
(0.911459 -0.0733349 -0.0107567)
(0.916808 -0.0831434 -0.00325599)
(0.932116 -0.0628136 0.0160788)
(0.945267 -0.030471 0.0257451)
(0.954298 -0.0108532 0.0261912)
(0.975912 -0.00469021 0.0240487)
(0.99985 -0.00601327 0.021424)
(1.01408 -0.00444565 0.0185397)
(1.01851 0.00889759 0.019539)
(1.02376 0.0326087 0.0308328)
(1.04239 0.0527365 0.0393763)
(1.12318 0.00645641 0.00358542)
(1.1544 -0.00157985 -0.0242658)
(1.1391 -0.000864609 -0.027985)
(1.08429 0.00479362 -0.0188377)
(1.03914 0.0139568 0.00540205)
(1.01324 0.027081 0.0451913)
(1.02009 0.047589 0.0783751)
(1.05541 0.0669432 0.0810033)
(1.08055 0.0565641 0.069101)
(1.06419 0.0191037 0.035046)
(1.0204 -0.00494302 -0.0173147)
(1.01792 -0.000175489 -0.045174)
(1.06037 0.0172108 -0.0611739)
(1.09426 0.0251132 -0.0745789)
(1.07616 0.0121582 -0.0646351)
(1.02867 -0.00814667 -0.0225131)
(1.006 -0.0170837 0.0248395)
(1.00305 -0.0227171 0.0293538)
(1.00552 -0.0274414 0.000526447)
(0.995334 -0.0276683 -0.0218109)
(0.973555 -0.0381726 -0.0234943)
(0.963142 -0.0560336 -0.0109758)
(0.962646 -0.0616892 0.000775359)
(0.961681 -0.0507965 0.0131835)
(0.967761 -0.0228664 0.0390557)
(0.972752 0.00664142 0.0586413)
(0.97184 0.023671 0.0441485)
(0.961171 0.0156662 0.0135986)
(0.935899 -0.0239471 -0.00905436)
(0.913532 -0.0596339 -0.0145018)
(0.900967 -0.0674394 0.00165883)
(0.898456 -0.0542972 0.0179485)
(0.898658 -0.0362387 0.0149115)
(0.909744 -0.0258872 0.00781462)
(0.945919 -0.0149865 0.0157918)
(0.971721 0.00228642 0.0280253)
(0.976452 0.0248615 0.0352063)
(0.979943 0.0408682 0.042421)
(1.01076 0.0375452 0.0516253)
(1.06538 0.0223887 0.0413216)
(1.01871 0.0365309 -0.0433386)
(1.02855 0.0255864 -0.0390838)
(1.01361 -0.00972102 -0.00096655)
(0.987723 -0.0302727 0.029265)
(0.98744 -0.0155395 0.0438918)
(0.996606 0.00853939 0.0684719)
(1.0275 0.0340621 0.0864483)
(1.06348 0.0466959 0.0751537)
(1.06681 0.0271994 0.0493243)
(1.02272 -0.0144685 0.0186747)
(0.984862 -0.0416731 -0.013647)
(1.02717 -0.0267076 -0.0398284)
(1.07796 0.0109229 -0.0750965)
(1.0758 0.0424404 -0.0985849)
(1.0372 0.0372937 -0.0662974)
(0.984109 -0.00115738 -0.00102084)
(0.958946 -0.0252645 0.0273435)
(0.960724 -0.0304915 0.00761819)
(0.976058 -0.0321666 -0.0176746)
(0.987779 -0.025789 -0.0291249)
(0.986541 -0.0293965 -0.0150959)
(0.989164 -0.0373237 0.015549)
(0.981622 -0.0334305 0.0306436)
(0.960777 -0.0332507 0.0304825)
(0.951762 -0.0301006 0.0341042)
(0.95278 -0.00692726 0.0350633)
(0.948587 0.0261216 0.0336908)
(0.928366 0.0288899 0.0370169)
(0.906458 -0.0146823 0.0204427)
(0.900974 -0.0628307 -0.0096516)
(0.90627 -0.0869787 -0.0225022)
(0.914905 -0.0757773 -0.0267408)
(0.908407 -0.0386727 -0.0365622)
(0.906624 -0.00667532 -0.0303044)
(0.920036 0.00536008 0.00451256)
(0.918729 0.00115434 0.0300339)
(0.942923 -0.00242214 0.0351285)
(0.999062 -0.00345381 0.0380763)
(1.04009 0.00554944 0.0255223)
(1.03042 0.0255216 -0.0100347)
(0.96873 -0.00461454 -0.034042)
(0.987574 -0.0324453 -0.00741922)
(0.946792 -0.0425808 0.0104733)
(0.916276 -0.0141805 0.0049731)
(0.941495 0.0197268 0.0145467)
(0.989046 0.0303853 0.0449035)
(1.04201 0.043692 0.0503906)
(1.07269 0.0572341 0.0142562)
(1.05546 0.0421912 -0.0214194)
(1.00159 -0.0033832 -0.0379512)
(0.959577 -0.0324229 -0.0483176)
(0.967726 -0.0114738 -0.0461251)
(0.966958 0.0234147 -0.0557268)
(0.95516 0.0369913 -0.0696093)
(0.959682 0.0134622 -0.0377956)
(0.957999 -0.0156989 0.0103473)
(0.959855 -0.015532 0.026738)
(0.972768 -0.0214378 0.0208644)
(0.987969 -0.0352487 0.0006592)
(0.993198 -0.0341073 -0.00873896)
(1.00016 -0.0395347 0.0190653)
(1.00418 -0.0350935 0.0439098)
(0.990666 -0.0118989 0.0409059)
(0.980513 -0.0162133 0.034255)
(0.970603 -0.0308893 0.0247806)
(0.963096 -0.00822156 0.0191247)
(0.961306 0.0331378 0.0375549)
(0.960637 0.0316355 0.0611414)
(0.961684 -0.0259722 0.0513788)
(0.930107 -0.0802901 0.0147851)
(0.893738 -0.104191 -0.0134874)
(0.896635 -0.102248 -0.0255627)
(0.917637 -0.0739108 -0.0331194)
(0.949663 -0.0421369 -0.0256574)
(0.972513 -0.0170822 -0.00351391)
(0.969366 0.0017737 -0.000858812)
(0.961891 0.00962299 -0.0113822)
(0.91984 0.0139457 -0.0238491)
(0.877114 0.023812 -0.0449551)
(0.910113 0.0201175 -0.0496141)
(0.960177 -0.0418605 0.00417567)
(0.922176 -0.0205287 -0.00328843)
(0.891437 0.00520413 -0.0279015)
(0.905346 0.0278438 -0.0460848)
(0.97168 0.0320615 -0.0256482)
(1.02973 0.0256777 4.11222e-06)
(1.05987 0.0434606 -0.0168009)
(1.04283 0.0597289 -0.0495688)
(0.986607 0.0306611 -0.0480256)
(0.937322 -0.0195478 -0.038495)
(0.926072 -0.0369355 -0.0414112)
(0.943533 -0.0119898 -0.0382684)
(0.942426 0.0194867 -0.0501285)
(0.947173 0.0218762 -0.0528617)
(0.96141 -0.00804949 -0.0152195)
(0.95724 -0.025685 0.0184632)
(0.956042 -0.0105229 0.0280373)
(0.970986 -0.00462976 0.0212552)
(0.998956 -0.0210555 -0.00541055)
(1.03312 -0.040563 -0.00416924)
(1.05299 -0.0459838 0.050331)
(1.02347 -0.0213587 0.0724216)
(0.984876 -0.00204599 0.0552183)
(0.989969 -0.0206043 0.0481524)
(0.985113 -0.0264449 0.0246764)
(0.963726 0.0083898 0.0047916)
(0.95737 0.0439373 0.0272689)
(0.983035 0.0330464 0.060139)
(1.02277 -0.00863096 0.0570336)
(1.0057 -0.0437049 0.0214634)
(0.971369 -0.0803677 -0.00155184)
(0.973927 -0.112178 -0.0108988)
(0.968898 -0.0962412 -0.0298137)
(0.952372 -0.0374122 -0.0375498)
(0.944705 0.0159117 -0.0203328)
(0.932478 0.0188036 -0.0118559)
(0.913106 0.000120632 -0.0255847)
(0.888603 0.007023 -0.0495107)
(0.901053 0.0038806 -0.0520918)
(0.954829 -0.0290735 -0.0181454)
(0.917462 -0.0127174 -0.0165618)
(0.891489 2.64407e-05 -0.0106604)
(0.913377 0.00199689 -0.0244733)
(0.974352 0.00668357 -0.0379411)
(1.02136 0.00572519 -0.0171466)
(1.01449 0.00665271 -0.00708184)
(1.00328 0.0314022 -0.0392394)
(0.984341 0.0508461 -0.0651602)
(0.94338 0.0233556 -0.0450412)
(0.90766 -0.0247887 -0.0272532)
(0.908328 -0.0392244 -0.0442243)
(0.924458 -0.0130052 -0.0676808)
(0.93771 0.0163556 -0.0725703)
(0.970254 0.0128778 -0.0290469)
(0.967665 -0.0175335 0.0281545)
(0.929614 -0.0153943 0.0251396)
(0.923797 0.00844844 -0.00355161)
(0.954485 -0.0112463 0.00291029)
(0.998361 -0.0508507 0.0309269)
(1.0212 -0.0632199 0.0679558)
(1.0156 -0.0353122 0.088074)
(0.997131 0.010546 0.0521934)
(0.984521 0.0197417 0.0225243)
(0.964292 -0.00442263 0.023349)
(0.928279 -0.00453833 0.00359247)
(0.913098 0.0257958 -0.0129508)
(0.926292 0.0464607 0.00411707)
(0.970745 0.0240865 0.0337845)
(1.01031 -0.0170048 0.035768)
(1.00435 -0.0480577 0.0098703)
(0.970764 -0.0780936 -0.0081033)
(0.947068 -0.0868529 -0.0328257)
(0.932062 -0.0555163 -0.0653516)
(0.94088 -0.0162832 -0.0539926)
(0.963486 0.0103484 -0.0149361)
(0.940587 0.00839382 -0.0140799)
(0.888889 -0.00585899 -0.0503681)
(0.875167 -0.0077466 -0.0804562)
(0.920746 -0.0195208 -0.0699904)
(0.952802 -0.0284985 -0.0359914)
(0.890517 -0.00331009 -0.0249215)
(0.911297 0.00400545 0.0174477)
(0.944303 -0.000352461 0.00206323)
(1.00495 -0.00548335 -0.035221)
(1.03649 0.00170755 -0.0157439)
(0.993763 0.0141726 0.00222841)
(0.964835 0.0314955 -0.0345355)
(0.975844 0.0398359 -0.0577307)
(0.974635 0.0139309 -0.0274001)
(0.948943 -0.0203952 -0.00873767)
(0.935607 -0.0308441 -0.0469956)
(0.935271 -0.0175223 -0.0896807)
(0.965624 0.00430385 -0.0685972)
(1.00356 0.00652793 0.0060936)
(0.962975 -0.0069834 0.0414917)
(0.926331 0.00722837 0.00925697)
(0.946567 0.0121571 -0.00513514)
(0.962214 -0.0355007 0.0312955)
(0.968351 -0.0734006 0.0670152)
(0.960814 -0.0648768 0.0895277)
(0.958592 -0.0192709 0.0832891)
(0.987301 0.0287711 0.0341195)
(0.994853 0.0350634 0.00808934)
(0.946483 0.0134747 0.0134758)
(0.903027 0.00866611 0.00932146)
(0.889964 0.033242 0.00368475)
(0.92317 0.0502685 -0.000512128)
(0.986877 0.0215207 0.00382745)
(1.00641 -0.0198854 -2.654e-05)
(0.985077 -0.0417729 -0.017142)
(0.922624 -0.0674529 -0.0279021)
(0.878607 -0.087169 -0.0460889)
(0.906676 -0.0712102 -0.0515457)
(0.955552 -0.0310128 -0.0266204)
(0.960362 0.00916895 -0.0199613)
(0.91788 0.0136527 -0.0439768)
(0.890153 -0.00453618 -0.0571325)
(0.891945 -0.0154387 -0.0638581)
(0.894709 -0.0260976 -0.0691388)
(0.890812 -0.0212074 -0.0603258)
(0.906903 -8.8149e-05 -0.0367315)
(0.930651 0.00321129 -0.00599897)
(0.951407 -0.0021643 -0.0215479)
(0.988403 -0.00777754 -0.0525038)
(0.981243 0.00137856 -0.0351639)
(0.926293 0.00904748 -0.017627)
(0.939681 0.0121136 -0.0258124)
(1.0027 0.0139725 -0.0154797)
(0.991431 0.00309532 0.00742153)
(0.932121 -0.00575665 -0.0157009)
(0.915667 -0.0111836 -0.0716081)
(0.95256 -0.0121234 -0.0791815)
(1.00742 0.0100713 -0.0237373)
(0.98489 0.0285366 0.0278264)
(0.915664 0.00764783 0.0328757)
(0.937885 -0.0019238 0.0175202)
(0.97642 -0.00528879 0.0310842)
(0.96323 -0.047656 0.065342)
(0.958884 -0.0731154 0.0802465)
(0.946154 -0.0542055 0.0803544)
(0.948675 -0.0161145 0.0519877)
(0.991415 0.0207207 -2.38195e-05)
(0.99577 0.0339358 -0.0109405)
(0.939599 0.0201925 0.00473162)
(0.895768 0.0184363 0.00257611)
(0.883103 0.0434211 -0.0102363)
(0.933495 0.0439332 -0.0282789)
(0.994556 -0.00258841 -0.0286936)
(0.99594 -0.0349296 -0.0321059)
(0.996175 -0.0387534 -0.0402494)
(0.967777 -0.0608235 -0.0323919)
(0.908483 -0.084685 -0.0275573)
(0.869724 -0.0673169 -0.0172724)
(0.857466 -0.0220243 -0.00914547)
(0.869134 0.0111105 -0.0310483)
(0.868127 0.0039608 -0.0589566)
(0.87448 -0.00541199 -0.0551568)
(0.907585 -0.00164748 -0.0415191)
(0.909908 -0.0092639 -0.0435509)
(0.892775 -0.00977952 -0.0522725)
(0.926783 0.00798698 -0.0484825)
(0.926216 0.00927813 -0.00491662)
(0.901238 -0.0034817 -0.0129157)
(0.921051 -0.00721109 -0.0459104)
(0.928204 0.00584893 -0.0254059)
(0.910179 0.00101525 0.00937205)
(0.934421 -0.0151191 0.0200039)
(0.97364 -0.00946998 0.0253172)
(0.953493 0.0117097 0.0193937)
(0.909155 0.0248514 -0.0288063)
(0.892999 0.00434876 -0.0761456)
(0.93983 -0.0164631 -0.0511581)
(0.992013 0.0211836 0.00406365)
(0.946087 0.0570753 0.0137981)
(0.909898 0.0182647 0.0232312)
(0.971026 -0.006217 0.0494634)
(0.984561 -0.013445 0.0669204)
(0.935736 -0.0631506 0.0763368)
(0.923318 -0.0812289 0.0643275)
(0.914066 -0.0488302 0.0458678)
(0.935391 -0.0199561 0.020356)
(0.998161 0.00557588 -0.0191115)
(0.996792 0.028376 -0.0216366)
(0.931314 0.0253663 -0.00453859)
(0.895717 0.0308211 -0.0102283)
(0.897402 0.0496724 -0.0236636)
(0.96166 0.0255329 -0.0390941)
(1.00822 -0.0326096 -0.0495812)
(0.98035 -0.0580359 -0.0631386)
(0.983922 -0.044771 -0.0453616)
(0.977739 -0.043305 -0.0286635)
(0.914081 -0.0588961 -0.0462599)
(0.854453 -0.0600366 -0.0315185)
(0.825529 -0.0350182 -0.0203324)
(0.837083 -0.00478959 -0.0528801)
(0.849412 0.00460044 -0.0669692)
(0.874712 0.00782172 -0.0395224)
(0.922443 0.0103064 -0.0221845)
(0.915178 -0.00061222 -0.0320617)
(0.897774 -0.00261602 -0.0580794)
(0.961249 0.015436 -0.0376625)
(0.923101 0.0252957 0.00644642)
(0.85681 0.0132838 0.019668)
(0.872502 0.00598801 -0.00301562)
(0.910572 0.0100096 0.0182771)
(0.9453 -0.00385446 0.0620007)
(0.963988 -0.0209232 0.0653447)
(0.957133 -0.0115219 0.0358071)
(0.923258 0.0182747 0.011347)
(0.889644 0.0315372 -0.0220403)
(0.877564 0.00156713 -0.055956)
(0.917831 -0.0154287 -0.0306805)
(0.950244 0.0389626 0.00875586)
(0.915412 0.0716418 0.00353737)
(0.938578 0.0145386 0.0211748)
(1.0186 -0.0105273 0.0542086)
(1.02544 -0.0138768 0.0730649)
(0.955112 -0.066001 0.0782984)
(0.900972 -0.0777308 0.0463775)
(0.891476 -0.0389766 0.0199509)
(0.938659 -0.0219393 0.00815803)
(0.997498 0.000996928 -0.0180994)
(0.974173 0.0383481 -0.0199166)
(0.908899 0.0380054 -0.0102713)
(0.897445 0.0343166 -0.0159966)
(0.912399 0.0408409 -0.0194372)
(0.967631 0.00857287 -0.034375)
(1.01177 -0.042371 -0.0683537)
(1.00183 -0.0601858 -0.0801668)
(1.00492 -0.0417693 -0.0335188)
(0.975619 -0.0258829 -0.0365991)
(0.914389 -0.0408445 -0.0844121)
(0.874853 -0.06179 -0.0361834)
(0.855468 -0.038364 0.00174878)
(0.857206 0.00839494 -0.048149)
(0.85522 0.0262305 -0.0597028)
(0.889373 0.0238853 -0.0136684)
(0.941444 0.0227982 0.00091058)
(0.916651 0.00785118 -0.0139637)
(0.914837 -0.000505593 -0.0377308)
(0.976431 0.0268229 -0.0089862)
(0.878794 0.04064 0.0235723)
(0.767671 0.0192292 0.0407978)
(0.77131 0.00116399 0.0343191)
(0.864079 -0.0155488 0.0530037)
(0.97042 -0.0336212 0.0887651)
(0.991876 -0.0366947 0.0747153)
(0.956476 -0.0150637 0.0170931)
(0.928648 0.0202403 -0.00862583)
(0.904843 0.0276349 -0.00894191)
(0.877796 -0.00450096 -0.0199856)
(0.882891 -0.00483588 0.00238586)
(0.888633 0.0624621 0.028226)
(0.913184 0.0792821 0.0192526)
(0.985291 0.00836426 0.0352199)
(1.04393 -0.0127127 0.0482724)
(1.05643 -0.015152 0.0754533)
(0.979296 -0.063829 0.0866262)
(0.902939 -0.0674566 0.0275506)
(0.909091 -0.0287072 0.00296093)
(0.954611 -0.021579 0.00395799)
(0.978631 0.00502228 -0.0232218)
(0.937215 0.0527786 -0.027586)
(0.884586 0.0427977 -0.0158687)
(0.905261 0.0279295 -0.0169161)
(0.933234 0.0318459 -0.0188322)
(0.972072 -0.00185122 -0.0347487)
(1.01183 -0.0536773 -0.0794106)
(1.02022 -0.070259 -0.0732969)
(1.01045 -0.0464078 -0.00822876)
(0.976849 -0.0107787 -0.0476277)
(0.955859 -0.020598 -0.115858)
(0.908217 -0.0678799 -0.0307207)
(0.8686 -0.0517585 0.0450712)
(0.886438 0.0194528 -0.0140351)
(0.888351 0.0472642 -0.0355368)
(0.920117 0.0322616 0.00559342)
(0.948691 0.0289097 0.00655351)
(0.914087 0.0129689 -0.00865738)
(0.938737 1.72003e-05 -0.0132385)
(0.95657 0.0361916 0.0119361)
(0.837028 0.0598156 0.026196)
(0.749579 0.0332372 0.0232969)
(0.768103 -0.0140674 0.00763698)
(0.854821 -0.0595071 0.0240774)
(0.953696 -0.0696211 0.0613044)
(0.964127 -0.0471534 0.041697)
(0.921164 -0.0122916 -0.0179292)
(0.928924 0.0264903 -0.032636)
(0.92616 0.0274888 -0.00773814)
(0.878476 -0.00627602 0.00517522)
(0.840546 0.0082599 0.0316515)
(0.830407 0.0765392 0.0478001)
(0.932235 0.0712444 0.0368717)
(1.02211 0.00507832 0.0607721)
(1.05281 -0.0108992 0.0586883)
(1.06435 -0.0209529 0.0814395)
(0.971627 -0.0577014 0.0957593)
(0.896282 -0.0514209 0.018616)
(0.933817 -0.0192076 -0.00657326)
(0.961332 -0.019031 -0.00529628)
(0.947889 0.0140092 -0.0403895)
(0.902496 0.067808 -0.0385396)
(0.877496 0.0475782 -0.00541045)
(0.926706 0.0167864 -0.00891336)
(0.948164 0.0210845 -0.0353585)
(0.981387 0.00481024 -0.0514654)
(1.04078 -0.0424368 -0.0738676)
(1.03372 -0.066728 -0.048232)
(0.976251 -0.0402085 -0.00047139)
(0.946417 0.00234053 -0.066716)
(0.96889 -0.0147169 -0.11941)
(0.912692 -0.0731236 -0.0286041)
(0.844128 -0.0512656 0.048)
(0.869071 0.034998 0.00958393)
(0.898876 0.0614609 0.000914532)
(0.934974 0.0390513 0.0252742)
(0.940972 0.0391398 0.00991529)
(0.935077 0.0182591 -0.0111403)
(0.972095 -0.000681916 -0.00375922)
(0.944758 0.0433089 0.0190782)
(0.839805 0.0703476 0.0313784)
(0.806225 0.0379384 0.0159262)
(0.845609 -0.0232366 -0.00725203)
(0.867495 -0.0735042 0.0169377)
(0.890924 -0.0763871 0.0461655)
(0.881561 -0.0448582 0.00679673)
(0.860232 -0.00671399 -0.0531859)
(0.912789 0.0312622 -0.0480383)
(0.923125 0.0268378 -0.00655289)
(0.865644 -0.00737359 0.0102329)
(0.80928 0.0171581 0.0426934)
(0.81394 0.0760686 0.0569274)
(0.977536 0.0556223 0.0583525)
(1.04724 0.00634877 0.0910881)
(1.03297 -0.00422085 0.0621252)
(1.02513 -0.020017 0.0719203)
(0.940114 -0.0437494 0.0998127)
(0.891558 -0.0379793 0.0198242)
(0.958944 -0.014283 -0.0081037)
(0.968834 -0.0116142 -0.00933304)
(0.909145 0.0259865 -0.0617901)
(0.870446 0.0774253 -0.045796)
(0.914154 0.0441392 0.0256641)
(0.972472 0.00163032 0.0112293)
(0.961878 0.0166475 -0.0427501)
(1.00671 0.0150896 -0.0532967)
(1.07299 -0.0356976 -0.0576149)
(1.01803 -0.0622036 -0.0400062)
(0.934359 -0.0235263 -0.00816726)
(0.924406 0.021649 -0.0622946)
(0.940327 -0.0194845 -0.0889676)
(0.875748 -0.0858931 -0.0125318)
(0.825389 -0.0472897 0.0397974)
(0.844029 0.0465777 0.0188899)
(0.890338 0.0625575 0.025656)
(0.930611 0.0416752 0.0489685)
(0.947484 0.0450629 0.0334368)
(0.978013 0.0190765 0.000670661)
(0.99948 0.00141828 -0.00053769)
(0.923769 0.0464259 0.0184433)
(0.862348 0.0726661 0.0343786)
(0.875359 0.0358783 0.0147628)
(0.894523 -0.0261923 0.00836803)
(0.851537 -0.0699097 0.0448855)
(0.795877 -0.0738793 0.0312685)
(0.767967 -0.0477037 -0.0422909)
(0.788152 -0.00794677 -0.0878685)
(0.872951 0.0318976 -0.0492791)
(0.87983 0.0229574 -0.00256774)
(0.835896 -0.00894294 -0.00137521)
(0.810504 0.0211183 0.0290499)
(0.865503 0.066601 0.0620595)
(1.01998 0.0438486 0.0991065)
(1.02328 0.0185411 0.105689)
(0.976474 0.0112238 0.0323013)
(0.956562 -0.0186271 0.0493508)
(0.902186 -0.0377843 0.0950452)
(0.892373 -0.028824 0.0234996)
(0.959322 -0.00841419 0.000191966)
(0.953535 0.0021625 -0.00418316)
(0.872369 0.0458734 -0.0666144)
(0.888269 0.084038 -0.0243426)
(1.00402 0.0330544 0.0644686)
(1.03854 -0.00970152 0.0344818)
(1.00238 0.0167796 -0.0322845)
(1.05297 0.0259432 -0.0500344)
(1.08268 -0.0218187 -0.0480064)
(0.960214 -0.0491475 -0.0284704)
(0.883276 -0.000521698 -0.0143358)
(0.9291 0.0420859 -0.0536322)
(0.934487 -0.0212008 -0.0435622)
(0.810929 -0.0910266 0.012165)
(0.755782 -0.0376692 0.0393762)
(0.803651 0.0528824 0.0320864)
(0.87955 0.0542876 0.0448276)
(0.91595 0.0372863 0.0655953)
(0.962789 0.0421629 0.0506119)
(1.01503 0.0176183 0.0142337)
(0.996681 0.00474251 0.00197305)
(0.865889 0.0448269 0.0128504)
(0.880574 0.0696695 0.0349789)
(0.934283 0.0370796 0.0127152)
(0.92367 -0.0207064 0.0171978)
(0.854217 -0.0574867 0.0587704)
(0.762636 -0.0712341 0.0173172)
(0.709875 -0.0572661 -0.0711797)
(0.7359 -0.0118184 -0.0911411)
(0.809613 0.0295395 -0.0344187)
(0.821145 0.0147836 -0.00892514)
(0.82259 -0.0104779 -0.0167217)
(0.836461 0.0232737 0.0316822)
(0.91238 0.0603957 0.0970458)
(1.01186 0.0464879 0.131482)
(0.99451 0.0348478 0.0897366)
(0.959272 0.0225679 0.00496453)
(0.91735 -0.0212648 0.041474)
(0.869472 -0.0423034 0.0786182)
(0.888752 -0.0239888 0.0131498)
(0.942895 0.00290435 -0.0160898)
(0.904007 0.0229561 -0.0332442)
(0.849791 0.0635705 -0.0543413)
(0.956662 0.0760893 0.0292765)
(1.08102 0.0148208 0.0840865)
(1.05396 -0.0166809 0.029311)
(1.00383 0.0225351 -0.0413271)
(1.08893 0.0401769 -0.0602745)
(1.09029 -0.00682652 -0.0458373)
(0.923261 -0.0370966 -0.0234073)
(0.865006 0.0173352 -0.0190441)
(0.940369 0.056826 -0.0407459)
(0.968433 -0.0171946 -0.00103296)
(0.813834 -0.0830896 0.0250133)
(0.718888 -0.0274246 0.0328262)
(0.809449 0.0461107 0.0401126)
(0.901418 0.0375963 0.0472925)
(0.902152 0.0258934 0.052706)
(0.955626 0.0344613 0.0371606)
(1.03467 0.0179586 0.0149356)
(0.968481 0.00939979 -0.000251405)
(0.80846 0.0392186 0.000736797)
(0.892386 0.0608243 0.0396272)
(0.951473 0.0394319 0.017631)
(0.952492 -0.0165207 0.0196715)
(0.893618 -0.0521935 0.066958)
(0.792741 -0.0688978 0.0254604)
(0.715525 -0.0582739 -0.0597242)
(0.711479 -0.00885473 -0.0678307)
(0.76401 0.025569 -0.0236405)
(0.813568 0.00677677 -0.0185036)
(0.828924 -0.00595815 -0.00553434)
(0.833732 0.0334752 0.0639808)
(0.91608 0.0665955 0.132212)
(0.975296 0.0530876 0.141647)
(0.98054 0.0396537 0.0758019)
(0.978094 0.0269193 0.00146837)
(0.897674 -0.021764 0.0412541)
(0.822279 -0.0419946 0.0306572)
(0.85287 -0.0117728 -0.0443565)
(0.903277 0.0209034 -0.0606626)
(0.871319 0.0363999 -0.049091)
(0.861905 0.0585349 -0.0145423)
(0.995688 0.052078 0.0568124)
(1.09185 0.00275385 0.0528633)
(0.999972 -0.0133779 -0.0121091)
(0.971432 0.0275571 -0.0736282)
(1.12181 0.0455466 -0.0839446)
(1.09708 0.00331536 -0.0524596)
(0.907489 -0.0241882 -0.0164074)
(0.849383 0.0342882 -0.0231235)
(0.932241 0.0681593 -0.0344933)
(1.01817 -0.0144427 0.0327518)
(0.856409 -0.0722641 0.052399)
(0.745192 -0.0226647 0.0238855)
(0.86011 0.0284221 0.0278379)
(0.924375 0.0217051 0.0300975)
(0.865981 0.0197088 0.0134293)
(0.923962 0.0279993 0.00083972)
(1.02945 0.0191394 0.00714313)
(0.91217 0.0179423 -0.00989733)
(0.805956 0.027902 -0.00467097)
(0.882914 0.0519925 0.056123)
(0.958401 0.0424928 0.0319151)
(1.01786 -0.017724 0.0227834)
(0.914656 -0.0512721 0.0605299)
(0.772153 -0.0605054 0.0102455)
(0.694645 -0.0474275 -0.0590381)
(0.689872 -0.00272553 -0.0393447)
(0.755605 0.0177332 0.00239415)
(0.82856 0.00649879 -0.00570907)
(0.815551 0.0109906 0.0162665)
(0.813432 0.0457271 0.0965963)
(0.896587 0.0708731 0.14032)
(0.927697 0.053887 0.137367)
(0.981477 0.0374734 0.0661931)
(1.0035 0.028914 -0.00156418)
(0.869998 -0.0150451 0.0362023)
(0.758606 -0.0321841 -0.0281094)
(0.782447 0.00267052 -0.117043)
(0.862002 0.0310711 -0.0893956)
(0.868805 0.0366195 -0.0368528)
(0.856423 0.0475885 0.00584922)
(1.00431 0.0371366 0.0439305)
(1.09262 0.000813038 0.0155306)
(0.944346 -0.00766728 -0.0553783)
(0.948149 0.0251213 -0.10029)
(1.13507 0.0422459 -0.100948)
(1.11202 0.0101795 -0.061305)
(0.924125 -0.00759535 -0.00413402)
(0.812822 0.0535817 -0.0111188)
(0.94405 0.0723616 -0.0291597)
(1.06776 -0.0132518 0.0346223)
(0.873159 -0.057157 0.0704446)
(0.765895 -0.0204997 0.0209836)
(0.857119 0.0158403 -0.000379225)
(0.893657 0.0181077 -0.00409664)
(0.828509 0.021427 -0.0376799)
(0.890086 0.0236076 -0.0436578)
(0.984278 0.0237655 -0.00946346)
(0.869458 0.0257395 -0.0265488)
(0.825624 0.0188602 0.0067057)
(0.833172 0.0481993 0.0809355)
(0.996887 0.0384219 0.0452237)