/*--------------------------------*- C++ -*----------------------------------*\
  =========                 |
  \\      /  F ield         | OpenFOAM: The Open Source CFD Toolbox
   \\    /   O peration     | Website:  https://openfoam.org
    \\  /    A nd           | Version:  10
     \\/     M anipulation  |
\*---------------------------------------------------------------------------*/
FoamFile
{
    format      ascii;
    class       volScalarField;
    location    "16";
    object      p;
}
// * * * * * * * * * * * * * * * * * * * * * * * * * * * * * * * * * * * * * //

dimensions      [0 2 -2 0 0 0 0];

internalField   nonuniform List<scalar> 
25600
(
-4.53274e-07
-4.92025e-07
-4.79904e-07
-5.11578e-07
-4.77584e-07
-4.57433e-07
-4.87434e-07
-4.24746e-07
-4.43864e-07
-3.83585e-07
-3.38725e-07
-2.91054e-07
-2.25589e-07
-2.97184e-07
-2.29198e-07
-1.51008e-07
-2.09376e-07
-1.23386e-07
-1.52106e-07
-1.35226e-07
-6.86863e-08
-1.47115e-07
-6.36667e-08
-1.5364e-07
-1.45959e-07
-1.0731e-07
-2.20946e-07
-2.0003e-07
-3.19724e-07
-2.84731e-07
-3.64405e-07
-4.76521e-07
-4.16079e-07
-5.63611e-07
-5.39021e-07
-5.37217e-07
-5.67312e-07
-5.02808e-07
-5.69382e-07
-5.33554e-07
-4.45795e-07
-4.8591e-07
-4.9431e-07
-5.21708e-07
-4.49812e-07
-5.02371e-07
-5.09377e-07
-4.4797e-07
-5.1893e-07
-4.01038e-07
-3.94436e-07
-3.32257e-07
-2.56388e-07
-3.80654e-07
-2.64518e-07
-1.78344e-07
-2.2902e-07
-1.12652e-07
-1.78357e-07
-8.61592e-08
-3.22894e-08
-1.49584e-07
1.10319e-08
-1.5841e-07
-1.01686e-07
-1.77556e-08
-2.05638e-07
-1.6663e-07
-2.85521e-07
-2.03232e-07
-3.65098e-07
-4.75126e-07
-3.86124e-07
-5.71568e-07
-5.07298e-07
-5.28246e-07
-5.62516e-07
-5.07913e-07
-5.72427e-07
-5.00897e-07
-4.45e-07
-4.81187e-07
-5.07256e-07
-5.16536e-07
-4.01091e-07
-5.96205e-07
-5.16229e-07
-4.76401e-07
-6.10349e-07
-3.87991e-07
-5.06022e-07
-3.50166e-07
-2.87717e-07
-4.77927e-07
-2.12526e-07
-2.0989e-07
-2.31967e-07
-1.01097e-07
-2.25305e-07
6.32046e-09
-3.01418e-08
-1.45419e-07
9.51996e-08
-1.87795e-07
-1.89898e-08
7.11381e-08
-2.04458e-07
-1.41199e-07
-2.10987e-07
-9.29432e-08
-4.15087e-07
-4.3883e-07
-3.71845e-07
-6.23574e-07
-4.31022e-07
-5.4969e-07
-5.43421e-07
-5.07671e-07
-5.83539e-07
-4.2481e-07
-4.62989e-07
-4.62366e-07
-5.50956e-07
-5.06874e-07
-3.29935e-07
-7.24194e-07
-4.82481e-07
-5.4929e-07
-6.88898e-07
-3.35896e-07
-6.77116e-07
-3.21017e-07
-3.79924e-07
-5.73723e-07
-1.03491e-07
-2.86719e-07
-2.12784e-07
-1.096e-07
-2.58755e-07
1.68279e-07
-8.54978e-08
-9.97649e-08
1.86604e-07
-2.5861e-07
1.47939e-07
1.24551e-07
-2.27566e-07
-6.47179e-08
-1.17293e-07
4.58583e-08
-5.05321e-07
-3.78988e-07
-3.86928e-07
-6.44471e-07
-3.32296e-07
-6.212e-07
-4.84464e-07
-5.35765e-07
-5.78141e-07
-3.07607e-07
-5.3626e-07
-4.39046e-07
-6.26868e-07
-3.85066e-07
-2.66995e-07
-8.81408e-07
-4.10234e-07
-7.40862e-07
-6.86677e-07
-2.75579e-07
-9.0708e-07
-2.29823e-07
-5.75793e-07
-5.87495e-07
8.01529e-08
-4.01908e-07
-1.48877e-07
-1.8976e-07
-2.31398e-07
3.88818e-07
-2.21066e-07
2.25389e-08
2.32914e-07
-3.15562e-07
3.89325e-07
7.23468e-08
-2.32192e-07
9.00343e-09
4.26252e-08
1.93468e-07
-6.25994e-07
-2.84219e-07
-4.77242e-07
-6.1261e-07
-2.49108e-07
-7.65308e-07
-3.90759e-07
-6.39072e-07
-5.1226e-07
-1.71783e-07
-6.1693e-07
-4.24557e-07
-7.3239e-07
-1.67934e-07
-2.75062e-07
-1.0208e-06
-3.2966e-07
-1.05224e-06
-5.18344e-07
-2.88298e-07
-1.16863e-06
-9.0086e-08
-8.91282e-07
-4.42377e-07
2.48342e-07
-5.42194e-07
-6.05888e-08
-3.79891e-07
-6.55333e-08
5.87612e-07
-4.19938e-07
2.15201e-07
1.30355e-07
-2.96948e-07
6.54451e-07
-9.02905e-08
-2.08162e-07
8.17762e-08
3.04502e-07
2.93139e-07
-7.50623e-07
-1.4925e-07
-6.59357e-07
-4.43171e-07
-2.38071e-07
-8.7561e-07
-2.90831e-07
-8.24712e-07
-3.02352e-07
-6.90432e-08
-6.74169e-07
-4.90895e-07
-8.39835e-07
2.17338e-07
-4.06117e-07
-1.06974e-06
-3.38584e-07
-1.46579e-06
-1.24585e-07
-4.80103e-07
-1.3725e-06
1.28729e-08
-1.28484e-06
-6.37097e-08
3.05099e-07
-6.14688e-07
1.40154e-07
-6.57223e-07
2.80117e-07
6.56501e-07
-6.12923e-07
4.57496e-07
-8.34142e-08
-1.14192e-07
8.41134e-07
-3.42655e-07
-1.39261e-07
1.21009e-07
7.0373e-07
2.91515e-07
-8.18792e-07
-3.92908e-08
-9.06638e-07
-1.43686e-07
-3.78594e-07
-8.8838e-07
-2.41318e-07
-1.08262e-06
5.67838e-08
-9.3913e-08
-6.53817e-07
-7.28348e-07
-8.88448e-07
7.20479e-07
-6.56721e-07
-9.78373e-07
-5.67445e-07
-1.88064e-06
4.90946e-07
-8.82645e-07
-1.42771e-06
-5.16564e-08
-1.63929e-06
5.36599e-07
1.47856e-07
-5.5361e-07
1.05387e-07
-9.51998e-07
7.99363e-07
5.17799e-07
-7.01351e-07
6.28158e-07
-4.02709e-07
2.45704e-07
8.22074e-07
-5.74949e-07
-6.79074e-08
8.81623e-08
1.26371e-06
1.67043e-07
-7.46713e-07
-3.15549e-08
-1.13943e-06
2.6375e-07
-6.77446e-07
-7.29518e-07
-3.97618e-07
-1.31179e-06
5.42308e-07
-3.00397e-07
-5.55535e-07
-1.24057e-06
-8.01369e-07
1.27255e-06
-9.69985e-07
-7.71417e-07
-1.14236e-06
-2.1165e-06
1.21276e-06
-1.43031e-06
-1.33389e-06
-4.45603e-07
-1.801e-06
1.28491e-06
-2.1213e-07
-3.28961e-07
-1.23159e-07
-1.13619e-06
1.43304e-06
1.82197e-07
-6.4515e-07
5.93402e-07
-6.80371e-07
7.31363e-07
5.52247e-07
-6.84143e-07
-9.13033e-08
8.35319e-08
1.99528e-06
-2.22014e-08
-5.03261e-07
-2.31161e-07
-1.25777e-06
7.04365e-07
-1.10474e-06
-4.03115e-07
-9.04052e-07
-1.35145e-06
1.07653e-06
-6.43793e-07
-4.3127e-07
-2.07416e-06
-5.07146e-07
1.77694e-06
-1.18914e-06
-5.42528e-07
-2.10508e-06
-2.05874e-06
1.91245e-06
-2.0651e-06
-1.12702e-06
-1.28019e-06
-1.69906e-06
2.03707e-06
-6.17324e-07
8.52419e-09
-7.6009e-07
-1.13865e-06
2.04283e-06
-2.25155e-07
-4.54024e-07
2.80464e-07
-7.6189e-07
1.34073e-06
8.15497e-08
-6.59881e-07
-3.43935e-07
2.11985e-07
2.87395e-06
-1.77078e-07
-9.41544e-08
-7.26578e-07
-1.19561e-06
1.07446e-06
-1.4571e-06
2.08747e-08
-1.74046e-06
-1.07548e-06
1.50715e-06
-9.52601e-07
-4.16028e-07
-3.18794e-06
-3.21963e-08
2.18861e-06
-1.14726e-06
-4.33173e-07
-3.4059e-06
-1.71747e-06
2.43098e-06
-2.57273e-06
-1.00874e-06
-2.50955e-06
-1.30478e-06
2.64785e-06
-8.71945e-07
3.027e-07
-1.75554e-06
-9.63259e-07
2.52734e-06
-5.0735e-07
-2.35877e-07
-3.65183e-07
-6.12564e-07
1.85967e-06
-4.59287e-07
-5.66851e-07
-8.04729e-07
5.45859e-07
3.85609e-06
-1.59152e-07
2.57556e-07
-1.52898e-06
-9.44673e-07
1.2931e-06
-1.64323e-06
4.10462e-07
-2.83091e-06
-5.22974e-07
1.73564e-06
-1.09294e-06
-6.5958e-07
-4.49587e-06
5.27967e-07
2.4952e-06
-1.01372e-06
-5.69169e-07
-4.97546e-06
-1.18668e-06
2.47317e-06
-2.94156e-06
-1.14174e-06
-4.00156e-06
-6.66865e-07
3.08085e-06
-8.50242e-07
3.76542e-07
-3.04971e-06
-6.82736e-07
2.9045e-06
-5.61783e-07
-1.75049e-07
-1.22008e-06
-2.66726e-07
2.31391e-06
-9.00918e-07
-5.14232e-07
-1.66319e-06
1.08504e-06
4.94381e-06
1.5577e-07
6.17e-07
-2.59837e-06
-5.72824e-07
1.35151e-06
-1.52576e-06
5.86089e-07
-4.03764e-06
2.03506e-07
1.79407e-06
-1.10119e-06
-1.19924e-06
-5.95008e-06
1.06069e-06
2.94553e-06
-6.51739e-07
-1.02827e-06
-6.44926e-06
-5.80341e-07
2.56627e-06
-3.18358e-06
-1.61435e-06
-5.67946e-06
1.08156e-07
3.36453e-06
-5.36816e-07
1.2985e-07
-4.66547e-06
-4.12968e-07
3.26383e-06
-3.79224e-07
-3.75109e-07
-2.25342e-06
1.82235e-07
2.22903e-06
-1.19626e-06
-6.50077e-07
-2.84384e-06
1.78601e-06
6.04302e-06
8.16267e-07
8.66152e-07
-3.93478e-06
-2.02185e-07
1.33198e-06
-1.08419e-06
5.63266e-07
-5.38641e-06
9.61953e-07
1.83051e-06
-9.38872e-07
-2.0546e-06
-7.47927e-06
1.49366e-06
3.59737e-06
-1.24647e-07
-1.82781e-06
-8.28179e-06
-3.51585e-08
2.81213e-06
-3.49449e-06
-2.44807e-06
-7.53352e-06
9.38061e-07
3.54128e-06
3.5261e-08
-4.73048e-07
-6.57412e-06
-1.91248e-07
3.74953e-06
-8.11857e-08
-9.06358e-07
-3.52921e-06
6.79512e-07
2.62183e-06
-1.33326e-06
-1.06473e-06
-4.45392e-06
2.59475e-06
7.21389e-06
1.85269e-06
9.97214e-07
-5.61587e-06
5.8587e-08
1.34317e-06
-3.41685e-07
3.304e-07
-6.88075e-06
1.66259e-06
2.00766e-06
-6.78571e-07
-3.17808e-06
-8.75524e-06
1.74315e-06
4.50236e-06
5.5981e-07
-2.92299e-06
-1.07419e-05
3.58629e-07
3.30793e-06
-3.50389e-06
-3.61079e-06
-9.64583e-06
1.71343e-06
4.13359e-06
8.2591e-07
-1.44523e-06
-9.15477e-06
-2.28247e-08
4.46087e-06
1.19275e-07
-1.80115e-06
-5.13351e-06
1.19669e-06
3.1163e-06
-1.35714e-06
-1.73874e-06
-6.67201e-06
3.43553e-06
8.64299e-06
3.33133e-06
1.00433e-06
-7.8615e-06
9.91033e-08
1.37946e-06
5.26076e-07
-9.0227e-08
-8.63551e-06
2.23269e-06
2.41831e-06
-3.60082e-07
-4.55577e-06
-1.09054e-05
1.66449e-06
5.58326e-06
1.39837e-06
-4.38455e-06
-1.40401e-05
4.79053e-07
3.96831e-06
-3.19495e-06
-5.11441e-06
-1.22696e-05
2.48027e-06
4.8179e-06
1.79539e-06
-2.82424e-06
-1.27384e-05
-1.05787e-07
5.3802e-06
4.63658e-07
-2.97638e-06
-6.96142e-06
1.59598e-06
3.78803e-06
-1.3097e-06
-2.75082e-06
-9.72269e-06
4.1836e-06
1.02159e-05
4.50506e-06
9.14702e-07
-1.09288e-05
-2.1625e-07
1.43504e-06
1.53523e-06
-6.73083e-07
-1.08458e-05
2.55254e-06
3.051e-06
-7.02946e-09
-6.46846e-06
-1.41333e-05
9.8124e-07
6.61785e-06
2.577e-06
-6.4243e-06
-1.82061e-05
7.85892e-08
4.58493e-06
-2.73877e-06
-7.17947e-06
-1.59493e-05
2.73037e-06
6.22763e-06
2.94466e-06
-4.74658e-06
-1.6524e-05
-6.83246e-07
6.38577e-06
8.72277e-07
-4.49874e-06
-8.10876e-06
1.63911e-06
4.586e-06
-1.25136e-06
-4.18836e-06
-1.25106e-05
4.60577e-06
1.17799e-05
5.76588e-06
6.00282e-07
-1.47389e-05
-1.10755e-06
1.35094e-06
2.74439e-06
-1.57646e-06
-1.36438e-05
2.41336e-06
3.78434e-06
3.64377e-07
-9.18257e-06
-1.83428e-05
-1.18055e-06
7.03035e-06
3.65364e-06
-9.3379e-06
-2.27766e-05
-1.53946e-06
4.58723e-06
-2.37008e-06
-1.0022e-05
-2.14726e-05
1.50233e-06
7.09757e-06
3.85732e-06
-7.38838e-06
-1.98246e-05
-2.40061e-06
6.96491e-06
1.17063e-06
-6.51641e-06
-1.01095e-05
7.50645e-07
5.1807e-06
-1.43985e-06
-6.23217e-06
-1.49844e-05
3.94587e-06
1.27717e-05
7.2181e-06
-4.129e-07
-1.86325e-05
-3.35456e-06
3.95586e-07
4.02881e-06
-3.02028e-06
-1.67423e-05
1.13144e-06
4.02883e-06
5.06255e-07
-1.2433e-05
-2.13179e-05
-5.15457e-06
9.77015e-06
4.15569e-06
-1.27415e-05
-2.58669e-05
-4.66979e-06
3.59252e-06
-2.59492e-06
-1.32676e-05
-2.43594e-05
-1.65952e-06
6.09823e-06
4.08132e-06
-1.04413e-05
-2.18153e-05
-5.61458e-06
6.8313e-06
1.08902e-06
-8.81081e-06
-1.15587e-05
-1.62961e-06
4.64418e-07
-2.23005e-06
-8.70209e-06
-1.63204e-05
1.67816e-06
1.31295e-05
8.52685e-06
-2.28579e-06
-2.01995e-05
-7.47813e-06
-1.60786e-06
5.00384e-06
-4.95272e-06
-1.85766e-05
-1.75222e-06
3.93675e-06
5.37605e-08
-1.47734e-05
-2.41998e-05
-1.02915e-05
1.11032e-05
4.38269e-06
-1.49706e-05
-2.87212e-05
-8.8153e-06
3.34818e-06
-2.99969e-06
-1.5459e-05
-2.66906e-05
-6.23149e-06
6.24352e-06
4.23832e-06
-1.25451e-05
-2.39851e-05
-9.98583e-06
7.11576e-06
1.15228e-06
-1.04465e-05
-1.3425e-05
-5.24045e-06
6.60324e-07
-2.9881e-06
-1.05649e-05
-1.80594e-05
-1.89522e-06
1.36937e-05
9.62426e-06
-4.18089e-06
-2.21502e-05
-1.3045e-05
-2.10571e-06
5.934e-06
-6.69012e-06
-2.05896e-05
-5.96853e-06
5.14196e-06
-4.06435e-07
-1.6502e-05
-2.76257e-05
-1.33584e-05
1.25556e-05
5.42911e-06
-1.71221e-05
-3.17476e-05
-1.15695e-05
4.07788e-06
-2.57436e-06
-1.69556e-05
-2.94886e-05
-9.09082e-06
7.67948e-06
5.34331e-06
-1.40397e-05
-2.6778e-05
-1.30451e-05
7.98132e-06
1.84121e-06
-1.19239e-05
-1.58607e-05
-7.83529e-06
1.59463e-06
-2.73867e-06
-1.198e-05
-2.04823e-05
-4.4132e-06
1.48915e-05
1.0976e-05
-5.7479e-06
-2.47576e-05
-1.69103e-05
-1.26429e-06
7.47614e-06
-8.21659e-06
-2.30324e-05
-8.7351e-06
4.96086e-06
5.44004e-08
-1.67786e-05
-3.06161e-05
-1.31592e-05
1.47189e-05
7.24593e-06
-1.76276e-05
-3.4051e-05
-1.16559e-05
5.5548e-06
-1.24939e-06
-1.71526e-05
-3.18229e-05
-8.79929e-06
9.92875e-06
7.26778e-06
-1.41796e-05
-2.91601e-05
-1.32239e-05
9.31808e-06
3.14841e-06
-1.23508e-05
-1.78559e-05
-8.10638e-06
3.25928e-06
-1.45224e-06
-1.1934e-05
-2.26799e-05
-4.6432e-06
1.6706e-05
1.2719e-05
-5.23604e-06
-2.70346e-05
-1.75014e-05
8.11786e-07
9.28539e-06
-8.31647e-06
-2.49257e-05
-8.38856e-06
6.16058e-06
1.418e-06
-1.70479e-05
-3.1917e-05
-1.12235e-05
1.70675e-05
8.37913e-06
-1.79206e-05
-3.47409e-05
-1.01929e-05
7.38983e-06
-4.41634e-07
-1.75303e-05
-3.2559e-05
-6.712e-06
1.25623e-05
8.5274e-06
-1.44535e-05
-3.00843e-05
-1.18527e-05
1.08041e-05
3.96334e-06
-1.27257e-05
-1.85413e-05
-6.78953e-06
5.1172e-06
-4.24966e-07
-1.19148e-05
-2.36888e-05
-3.14611e-06
1.86025e-05
1.42343e-05
-4.94482e-06
-2.79547e-05
-1.6025e-05
3.20457e-06
1.04176e-05
-8.36527e-06
-2.54681e-05
-6.70609e-06
7.86937e-06
2.2736e-06
-1.70816e-05
-3.16529e-05
-8.9518e-06
1.88004e-05
8.15528e-06
-1.78786e-05
-3.39728e-05
-8.31063e-06
8.7717e-06
-7.79316e-07
-1.77111e-05
-3.18664e-05
-4.18153e-06
1.45926e-05
8.68371e-06
-1.45408e-05
-2.96812e-05
-1.0107e-05
1.18582e-05
3.92195e-06
-1.29142e-05
-1.80446e-05
-5.2294e-06
6.52938e-06
-4.00811e-07
-1.1829e-05
-2.34763e-05
-1.37068e-06
2.00308e-05
1.49763e-05
-4.7797e-06
-2.76044e-05
-1.39755e-05
5.10461e-06
1.03826e-05
-8.27484e-06
-2.4787e-05
-4.85074e-06
9.12916e-06
2.164e-06
-1.67891e-05
-3.05411e-05
-6.98918e-06
1.9582e-05
7.11427e-06
-1.75521e-05
-3.257e-05
-6.65815e-06
9.37575e-06
-1.7979e-06
-1.75418e-05
-3.04582e-05
-2.01202e-06
1.56345e-05
7.95004e-06
-1.42968e-05
-2.85786e-05
-8.6041e-06
1.22603e-05
3.25956e-06
-1.29401e-05
-1.70348e-05
-3.87694e-06
7.23155e-06
-9.2031e-07
-1.15738e-05
-2.26981e-05
2.02535e-07
2.07548e-05
1.42086e-05
-4.54932e-06
-2.65022e-05
-1.21122e-05
6.17705e-06
9.71817e-06
-8.01743e-06
-2.371e-05
-3.35087e-06
9.58567e-06
1.38717e-06
-1.65007e-05
-2.90585e-05
-5.44651e-06
1.95551e-05
5.90455e-06
-1.6977e-05
-3.0935e-05
-5.38582e-06
9.31976e-06
-2.93371e-06
-1.7343e-05
-2.88492e-05
-4.10978e-07
1.5876e-05
6.99102e-06
-1.40132e-05
-2.71038e-05
-7.4704e-06
1.21274e-05
2.44012e-06
-1.23069e-05
-1.58878e-05
-2.82873e-06
7.32607e-06
-1.60846e-06
-1.1388e-05
-2.18992e-05
1.43064e-06
2.08718e-05
1.32555e-05
-4.40989e-06
-2.55509e-05
-1.06437e-05
6.51527e-06
8.87639e-06
-7.81349e-06
-2.24908e-05
-2.27281e-06
9.36e-06
4.56282e-07
-1.64627e-05
-2.78604e-05
-4.27501e-06
1.91158e-05
4.73227e-06
-1.67669e-05
-2.96501e-05
-4.45653e-06
8.93396e-06
-3.96836e-06
-1.73735e-05
-2.75913e-05
6.59134e-07
1.5751e-05
6.04488e-06
-1.39396e-05
-2.59492e-05
-6.65077e-06
1.17378e-05
1.63268e-06
-1.20335e-05
-1.49896e-05
-2.04703e-06
7.10633e-06
-2.30269e-06
-1.13563e-05
-2.11678e-05
2.33469e-06
2.06539e-05
1.23451e-05
-4.51823e-06
-2.47622e-05
-9.5712e-06
6.44096e-06
8.0359e-06
-7.92602e-06
-2.15653e-05
-1.52599e-06
8.80525e-06
-4.4178e-07
-1.67642e-05
-2.7062e-05
-3.39158e-06
1.8572e-05
3.66437e-06
-1.69819e-05
-2.88228e-05
-3.78451e-06
8.46567e-06
-4.8965e-06
-1.77065e-05
-2.67876e-05
1.34273e-06
1.53758e-05
5.22463e-06
-1.42039e-05
-2.52135e-05
-6.0528e-06
1.12922e-05
8.61511e-07
-1.213e-05
-1.44128e-05
-1.45576e-06
6.80284e-06
-2.98654e-06
-1.16196e-05
-2.06822e-05
2.98016e-06
2.03233e-05
1.14825e-05
-4.92777e-06
-2.42985e-05
-8.82643e-06
6.2108e-06
7.19431e-06
-8.35859e-06
-2.09917e-05
-9.98464e-07
8.37924e-06
-1.22901e-06
-1.73659e-05
-2.6658e-05
-2.74197e-06
1.80778e-05
2.66432e-06
-1.75472e-05
-2.84248e-05
-3.31592e-06
8.03339e-06
-5.76184e-06
-1.83985e-05
-2.642e-05
1.7594e-06
1.49824e-05
4.44834e-06
-1.47577e-05
-2.48752e-05
-5.62247e-06
1.0884e-05
1.08873e-07
-1.25131e-05
-1.41421e-05
-1.00498e-06
6.51813e-06
-3.65555e-06
-1.21217e-05
-2.04708e-05
3.42011e-06
1.99938e-05
1.06658e-05
-5.56439e-06
-2.41589e-05
-8.34567e-06
5.95074e-06
6.3647e-06
-9.0224e-06
-2.07298e-05
-6.24913e-07
7.9268e-06
-1.97676e-06
-1.81199e-05
-2.66192e-05
-2.29713e-06
1.7698e-05
1.76101e-06
-1.83706e-05
-2.83863e-05
-3.02513e-06
7.68205e-06
-6.51899e-06
-1.92211e-05
-2.64368e-05
1.97556e-06
1.45506e-05
3.72476e-06
-1.55204e-05
-2.48858e-05
-5.33816e-06
1.05555e-05
-6.11935e-07
-1.31028e-05
-1.41283e-05
-6.73592e-07
6.28741e-06
-4.25832e-06
-1.27842e-05
-2.05266e-05
3.68697e-06
1.97133e-05
9.90309e-06
-6.34247e-06
-2.43105e-05
-8.08633e-06
5.71188e-06
5.61658e-06
-9.83239e-06
-2.07417e-05
-3.75703e-07
7.56348e-06
-2.67727e-06
-1.8988e-05
-2.69036e-05
-2.02715e-06
1.74525e-05
9.80649e-07
-1.93716e-05
-2.86859e-05
-2.88723e-06
7.42385e-06
-7.13663e-06
-2.01333e-05
-2.67705e-05
2.03558e-06
1.42306e-05
3.07351e-06
-1.64251e-05
-2.51722e-05
-5.18493e-06
1.0319e-05
-1.25737e-06
-1.38417e-05
-1.43627e-05
-5.41918e-07
6.12353e-06
-4.78695e-06
-1.355e-05
-2.08166e-05
3.8106e-06
1.94995e-05
9.25523e-06
-7.19906e-06
-2.46969e-05
-8.0098e-06
5.51358e-06
4.97979e-06
-1.07301e-05
-2.10189e-05
-2.31539e-07
7.30071e-06
-3.31562e-06
-1.98334e-05
-2.73738e-05
-1.87704e-06
1.73563e-05
3.26747e-07
-2.03889e-05
-2.91924e-05
-2.84243e-06
7.26511e-06
-7.60074e-06
-2.09923e-05
-2.72507e-05
2.01457e-06
1.40241e-05
2.55636e-06
-1.73401e-05
-2.56285e-05
-5.12372e-06
1.01787e-05
-1.7833e-06
-1.46133e-05
-1.47481e-05
-4.93957e-07
6.03047e-06
-5.22029e-06
-1.43133e-05
-2.1183e-05
3.85177e-06
1.93643e-05
8.75071e-06
-8.02202e-06
-2.52124e-05
-8.03e-06
5.37191e-06
4.4795e-06
-1.15996e-05
-2.14484e-05
-1.93555e-07
7.13519e-06
-3.86314e-06
-4.56247e-07
-5.02569e-07
-4.76157e-07
-4.81594e-07
-4.69994e-07
-4.61799e-07
-4.81976e-07
-4.11225e-07
-4.18121e-07
-3.76372e-07
-3.3756e-07
-2.90589e-07
-2.20236e-07
-2.7651e-07
-2.10515e-07
-1.46559e-07
-2.03602e-07
-1.0565e-07
-1.36082e-07
-1.28689e-07
-6.34049e-08
-1.46875e-07
-6.16186e-08
-1.50085e-07
-1.41954e-07
-1.05963e-07
-2.27746e-07
-1.98291e-07
-2.99335e-07
-2.90297e-07
-3.82559e-07
-4.93449e-07
-4.19432e-07
-5.44569e-07
-5.35015e-07
-5.49594e-07
-6.04235e-07
-4.9584e-07
-5.56834e-07
-5.33643e-07
-4.60006e-07
-5.00027e-07
-4.81573e-07
-4.93384e-07
-4.5298e-07
-5.14161e-07
-4.94089e-07
-3.9753e-07
-4.99435e-07
-4.07801e-07
-4.05606e-07
-3.34129e-07
-2.5616e-07
-3.51025e-07
-2.42189e-07
-1.82901e-07
-2.15793e-07
-9.39415e-08
-1.66951e-07
-8.24802e-08
-3.18419e-08
-1.42568e-07
2.6863e-08
-1.47578e-07
-1.00714e-07
-2.75295e-08
-2.06173e-07
-1.40097e-07
-2.60567e-07
-2.49035e-07
-4.05194e-07
-4.68879e-07
-3.71648e-07
-5.74253e-07
-5.20682e-07
-5.53403e-07
-5.75238e-07
-4.61934e-07
-5.62766e-07
-5.24134e-07
-4.76895e-07
-4.92386e-07
-4.6954e-07
-5.03124e-07
-4.33394e-07
-6.09095e-07
-4.71288e-07
-4.02037e-07
-6.1106e-07
-4.30352e-07
-5.18313e-07
-3.46625e-07
-2.79864e-07
-4.29869e-07
-2.16527e-07
-2.26709e-07
-1.9221e-07
-7.07672e-08
-2.16548e-07
-3.91953e-09
-3.40983e-08
-1.13933e-07
1.36423e-07
-1.84542e-07
-2.12604e-08
5.29497e-08
-1.73528e-07
-4.77836e-08
-1.99475e-07
-1.97428e-07
-4.55571e-07
-4.08358e-07
-3.40122e-07
-6.33507e-07
-4.92442e-07
-6.05032e-07
-5.43435e-07
-4.31721e-07
-6.04081e-07
-5.0437e-07
-5.12516e-07
-4.51243e-07
-4.60795e-07
-5.04857e-07
-4.24705e-07
-7.4002e-07
-3.73993e-07
-4.53555e-07
-7.42735e-07
-4.34054e-07
-6.64401e-07
-2.88705e-07
-3.27961e-07
-5.11797e-07
-1.7643e-07
-3.14086e-07
-1.10938e-07
-7.41435e-08
-2.71784e-07
1.11599e-07
-9.07535e-08
-1.39156e-08
2.50305e-07
-2.73669e-07
1.29636e-07
1.00846e-07
-1.19803e-07
8.66899e-08
-1.47389e-07
-1.49045e-07
-5.17379e-07
-2.84388e-07
-3.63852e-07
-6.98802e-07
-4.64764e-07
-7.06838e-07
-4.31647e-07
-4.28584e-07
-6.86289e-07
-4.70329e-07
-5.69616e-07
-3.30048e-07
-4.75174e-07
-4.43429e-07
-4.56094e-07
-8.92576e-07
-1.72124e-07
-6.09382e-07
-8.39741e-07
-4.54782e-07
-8.64745e-07
-1.32713e-07
-4.35423e-07
-5.48514e-07
-1.47555e-07
-4.25699e-07
7.31034e-08
-1.59389e-07
-2.95304e-07
2.15238e-07
-2.20347e-07
2.06947e-07
2.91904e-07
-3.8849e-07
3.47029e-07
7.69942e-08
5.8848e-10
2.09411e-07
-1.0883e-07
-1.02142e-07
-5.99874e-07
-8.63141e-08
-4.75495e-07
-7.558e-07
-4.69983e-07
-8.12983e-07
-2.14771e-07
-5.13492e-07
-7.49416e-07
-4.57027e-07
-6.24149e-07
-1.24301e-07
-5.44514e-07
-3.33242e-07
-5.77243e-07
-9.89628e-07
1.18618e-07
-9.16669e-07
-8.38875e-07
-5.63534e-07
-1.05939e-06
1.1603e-07
-6.58472e-07
-4.97914e-07
-2.09523e-07
-5.08959e-07
3.3186e-07
-3.58648e-07
-2.30545e-07
2.53625e-07
-3.77709e-07
5.7026e-07
1.95525e-07
-4.37756e-07
5.84064e-07
-1.59563e-08
2.5776e-07
2.77877e-07
-5.17819e-08
-5.3586e-08
-6.42897e-07
1.73177e-07
-6.7258e-07
-7.13457e-07
-5.69872e-07
-8.75053e-07
1.03888e-07
-7.2704e-07
-7.1125e-07
-3.56246e-07
-6.08369e-07
1.47791e-07
-6.66837e-07
-1.26621e-07
-8.29844e-07
-9.35214e-07
4.36087e-07
-1.35092e-06
-7.03021e-07
-8.32921e-07
-1.1552e-06
4.17376e-07
-9.9715e-07
-3.59039e-07
-4.14435e-07
-4.5605e-07
6.28683e-07
-6.5853e-07
-5.52408e-08
1.58405e-07
-4.4931e-07
1.03458e-06
-5.67008e-08
-3.53103e-07
7.49642e-07
-1.19818e-07
6.80609e-07
2.54173e-07
7.52533e-08
-1.68951e-08
-5.98991e-07
4.56974e-07
-9.52759e-07
-5.91488e-07
-8.24316e-07
-7.55985e-07
4.54174e-07
-1.0506e-06
-5.66797e-07
-5.37641e-07
-4.28732e-07
4.50159e-07
-7.44381e-07
1.43374e-07
-1.22227e-06
-6.55939e-07
6.79312e-07
-1.78794e-06
-4.61841e-07
-1.39373e-06
-1.06191e-06
6.97151e-07
-1.34409e-06
-1.57689e-07
-7.6221e-07
-2.01659e-07
8.13233e-07
-9.8494e-07
2.03768e-07
-1.17136e-07
-3.32112e-07
1.51785e-06
-4.06599e-07
-1.39512e-07
7.27178e-07
-1.20392e-07
1.21868e-06
1.63787e-07
3.20205e-07
-4.60182e-08
-4.16642e-07
7.02284e-07
-1.24495e-06
-4.18228e-07
-1.25207e-06
-3.78451e-07
7.29621e-07
-1.34902e-06
-3.31742e-07
-9.18058e-07
-4.52619e-08
7.22681e-07
-6.63124e-07
4.06336e-07
-1.71206e-06
-1.47571e-07
7.39387e-07
-2.07191e-06
-1.98424e-07
-2.21761e-06
-7.38029e-07
8.4782e-07
-1.52518e-06
1.87236e-08
-1.18571e-06
2.7817e-07
8.57289e-07
-1.20888e-06
4.10722e-07
-5.66203e-07
6.82486e-09
1.9192e-06
-7.64878e-07
1.31029e-07
4.34556e-07
7.64385e-08
1.78958e-06
6.91736e-08
6.84744e-07
-2.01483e-07
-5.64929e-08
8.42847e-07
-1.46024e-06
-2.72486e-07
-1.7855e-06
2.71935e-07
8.1647e-07
-1.48155e-06
-1.26719e-07
-1.50713e-06
5.07968e-07
8.93126e-07
-3.78825e-07
5.7416e-07
-2.15122e-06
5.36249e-07
5.98328e-07
-2.09787e-06
-4.11002e-08
-3.17319e-06
-2.12051e-07
8.27425e-07
-1.44527e-06
3.62127e-08
-1.56444e-06
9.67782e-07
7.74255e-07
-1.2646e-06
4.5016e-07
-1.03587e-06
5.1451e-07
2.1783e-06
-9.58739e-07
3.55267e-07
-8.22553e-08
5.1397e-07
2.32463e-06
3.71441e-08
1.11309e-06
-4.60432e-07
4.97839e-07
8.39941e-07
-1.53629e-06
-2.54002e-07
-2.28862e-06
1.16303e-06
6.44325e-07
-1.41925e-06
-1.41117e-07
-2.18482e-06
1.1265e-06
9.88603e-07
9.2571e-08
5.54443e-07
-2.38974e-06
1.29535e-06
3.27168e-07
-1.90158e-06
-1.20663e-07
-4.2499e-06
4.21545e-07
6.82045e-07
-1.13471e-06
-2.23192e-07
-1.81009e-06
1.73419e-06
6.66325e-07
-1.1581e-06
2.86128e-07
-1.42444e-06
1.06402e-06
2.41223e-06
-9.84046e-07
3.76939e-07
-6.97642e-07
1.15595e-06
2.77756e-06
1.47025e-07
1.51129e-06
-7.46297e-07
1.20147e-06
7.21735e-07
-1.48836e-06
-4.4374e-07
-2.60587e-06
2.17242e-06
3.28827e-07
-1.16374e-06
-5.29322e-07
-2.7944e-06
1.69418e-06
1.13295e-06
6.74631e-07
3.42905e-07
-2.37419e-06
2.02809e-06
7.68706e-08
-1.53978e-06
-4.42424e-07
-5.02456e-06
1.08898e-06
5.45418e-07
-6.74729e-07
-7.59167e-07
-1.86636e-06
2.4695e-06
7.05645e-07
-9.81237e-07
-1.078e-07
-1.68971e-06
1.58046e-06
2.65519e-06
-8.68607e-07
1.22242e-07
-1.26844e-06
1.92091e-06
3.21098e-06
4.30798e-07
1.78556e-06
-9.35978e-07
2.05727e-06
5.88382e-07
-1.35728e-06
-8.74488e-07
-2.64708e-06
3.17548e-06
4.0629e-08
-8.27326e-07
-1.26634e-06
-3.17125e-06
2.15194e-06
1.23421e-06
1.22555e-06
1.45715e-07
-2.10738e-06
2.66933e-06
-1.15516e-08
-1.17733e-06
-8.99042e-07
-5.4283e-06
1.7022e-06
5.00481e-07
-1.75577e-07
-1.47636e-06
-1.73589e-06
3.09472e-06
1.09817e-06
-8.40879e-07
-6.0109e-07
-1.84065e-06
2.02536e-06
3.06607e-06
-7.46605e-07
-3.8425e-07
-1.70407e-06
2.71843e-06
3.65082e-06
8.33763e-07
2.05645e-06
-8.57516e-07
3.04255e-06
5.45118e-07
-1.2974e-06
-1.49777e-06
-2.2796e-06
4.11203e-06
3.98134e-08
-5.7065e-07
-2.23212e-06
-3.20963e-06
2.5034e-06
1.88573e-06
1.63524e-06
-6.64579e-08
-1.66013e-06
3.24181e-06
1.30064e-07
-9.33431e-07
-1.49409e-06
-5.23924e-06
2.27847e-06
5.02146e-07
2.58951e-07
-2.32257e-06
-1.44989e-06
3.67334e-06
1.73395e-06
-8.57423e-07
-1.07901e-06
-1.86583e-06
2.5938e-06
3.70491e-06
-7.57738e-07
-9.48098e-07
-1.95408e-06
3.50183e-06
4.19363e-06
1.25955e-06
2.34021e-06
-4.18817e-07
4.15084e-06
7.11338e-07
-1.38515e-06
-2.20509e-06
-1.64661e-06
4.99239e-06
4.56247e-07
-5.21238e-07
-3.28577e-06
-3.0514e-06
2.81433e-06
2.93274e-06
1.75059e-06
-1.73312e-07
-1.04693e-06
3.76423e-06
5.27652e-07
-9.19313e-07
-2.07882e-06
-4.8538e-06
2.87956e-06
4.39073e-07
4.89492e-07
-3.00088e-06
-9.96097e-07
4.31108e-06
2.73354e-06
-1.12751e-06
-1.48874e-06
-1.65276e-06
3.33044e-06
4.58994e-06
-9.91009e-07
-1.51238e-06
-1.98554e-06
4.23529e-06
4.92615e-06
1.59532e-06
2.78307e-06
4.13517e-07
5.39389e-06
1.18814e-06
-1.72506e-06
-2.72944e-06
-7.5983e-07
5.84317e-06
6.55008e-07
-8.10755e-07
-4.37812e-06
-2.87679e-06
3.15883e-06
3.96098e-06
1.56514e-06
2.56619e-08
-7.49961e-08
4.31868e-06
6.9292e-07
-1.2071e-06
-2.61987e-06
-4.26749e-06
3.60449e-06
1.7248e-07
3.14074e-07
-3.47315e-06
-3.26914e-07
5.10667e-06
4.18414e-06
-1.62987e-06
-1.74645e-06
-1.45186e-06
4.07435e-06
5.63544e-06
-1.47296e-06
-2.03051e-06
-1.75384e-06
5.01698e-06
5.93356e-06
1.7779e-06
3.45236e-06
1.68926e-06
6.77245e-06
1.767e-06
-2.4963e-06
-3.08634e-06
4.45369e-07
6.74837e-06
8.38061e-07
-1.53814e-06
-5.25684e-06
-2.6057e-06
3.70487e-06
4.97545e-06
1.08008e-06
5.04033e-07
1.5763e-06
4.92469e-06
6.81803e-07
-1.92907e-06
-3.09465e-06
-3.23681e-06
4.59285e-06
1.49397e-06
-1.19445e-07
-3.5585e-06
7.57272e-07
6.08287e-06
5.01787e-06
-2.60062e-06
-1.85609e-06
-1.01863e-06
5.06565e-06
6.53622e-06
-2.25033e-06
-2.45693e-06
-1.0565e-06
5.79132e-06
5.90949e-06
1.71071e-06
4.41876e-06
3.71585e-06
8.36989e-06
2.06643e-06
-3.68347e-06
-3.39585e-06
2.25846e-06
7.8882e-06
1.02267e-06
-2.58475e-06
-6.08193e-06
-1.87852e-06
4.90258e-06
5.43774e-06
1.57055e-07
1.18285e-06
3.2972e-06
6.05329e-06
-4.35297e-07
-3.11309e-06
-3.69005e-06
-1.4607e-06
6.30284e-06
2.34204e-06
-8.23157e-07
-3.43529e-06
2.64717e-06
7.82285e-06
4.22064e-06
-3.76578e-06
-1.85813e-06
1.35738e-08
6.58372e-06
6.51979e-06
-3.22902e-06
-2.98078e-06
4.64415e-07
6.93096e-06
4.58931e-06
1.33306e-06
5.58323e-06
6.62682e-06
1.05143e-05
1.05616e-06
-5.4381e-06
-3.79829e-06
4.89208e-06
9.60645e-06
3.58043e-07
-4.1759e-06
-7.05775e-06
-4.68131e-07
7.08007e-06
3.76169e-06
-1.45972e-06
2.55134e-06
7.40942e-06
7.98374e-06
-2.54975e-06
-4.94084e-06
-4.18071e-06
1.65749e-06
9.03117e-06
1.50797e-06
-2.04695e-06
-2.66665e-06
5.84563e-06
1.07203e-05
2.65809e-06
-5.22089e-06
-1.45808e-06
2.14556e-06
8.82183e-06
5.64382e-06
-4.49671e-06
-3.29231e-06
3.267e-06
8.89649e-06
2.38385e-06
3.88524e-07
7.33392e-06
1.09666e-05
1.34118e-05
-1.22943e-06
-7.92868e-06
-3.87288e-06
8.80322e-06
1.22092e-05
-1.13654e-06
-6.44602e-06
-7.90944e-06
2.32183e-06
9.76274e-06
1.02367e-06
-3.62076e-06
5.36674e-06
1.33178e-05
1.00373e-05
-5.77743e-06
-7.17106e-06
-3.24721e-06
6.33515e-06
1.20721e-05
-8.21054e-07
-3.45968e-06
2.12275e-07
1.13432e-05
1.39916e-05
1.38543e-07
-6.87977e-06
3.56261e-07
9.17819e-06
1.08966e-05
3.8935e-06
-5.96218e-06
-1.90826e-06
7.63281e-06
1.11786e-05
-6.20754e-07
-9.91746e-07
1.0787e-05
1.69038e-05
1.63162e-05
-4.65897e-06
-1.10292e-05
-2.05752e-06
1.43326e-05
1.48539e-05
-3.59186e-06
-9.36355e-06
-7.63788e-06
7.41485e-06
9.77744e-06
-2.71439e-06
-4.97798e-06
1.12493e-05
1.91077e-05
9.18038e-06
-9.5201e-06
-8.54185e-06
1.40722e-06
1.12497e-05
1.21871e-05
-4.2433e-06
-3.90877e-06
4.43184e-06
1.75811e-05
1.42508e-05
-2.83957e-06
-8.08577e-06
3.8774e-06
1.30685e-05
1.08919e-05
1.62862e-06
-6.97679e-06
2.37696e-06
1.22521e-05
1.10028e-05
-4.1706e-06
-1.66872e-06
1.54721e-05
2.2902e-05
1.6796e-05
-8.9661e-06
-1.33137e-05
2.1832e-06
2.45935e-05
1.51551e-05
-6.69347e-06
-1.18799e-05
-2.36348e-06
1.29666e-05
6.39919e-06
-5.76354e-06
-4.87242e-06
1.64943e-05
2.17364e-05
5.35661e-06
-1.22441e-05
-8.55932e-06
5.78389e-06
1.38704e-05
8.7585e-06
-6.96595e-06
-3.08736e-06
8.70072e-06
2.00393e-05
1.0881e-05
-5.05832e-06
-8.4666e-06
7.34737e-06
1.51469e-05
8.71187e-06
-1.77461e-07
-7.25157e-06
6.25931e-06
1.45471e-05
7.72958e-06
-6.8838e-06
-1.14098e-06
2.00255e-05
2.66037e-05
1.36802e-05
-1.25854e-05
-1.40148e-05
7.03315e-06
2.80443e-05
1.22476e-05
-9.22804e-06
-1.34557e-05
2.29365e-06
1.54579e-05
2.96767e-06
-7.32879e-06
-4.2225e-06
1.9535e-05
2.12924e-05
2.15257e-06
-1.33983e-05
-7.82898e-06
8.49397e-06
1.41187e-05
5.33947e-06
-8.20092e-06
-1.76771e-06
1.13707e-05
1.9881e-05
7.57496e-06
-6.1069e-06
-8.18695e-06
9.38813e-06
1.52567e-05
6.7294e-06
-1.15087e-06
-7.09698e-06
8.61022e-06
1.43958e-05
4.53403e-06
-8.22919e-06
-3.91131e-08
2.29604e-05
2.76996e-05
1.08851e-05
-1.47269e-05
-1.33986e-05
1.03254e-05
2.90461e-05
9.69725e-06
-1.06352e-05
-1.3065e-05
5.01503e-06
1.51346e-05
9.45315e-07
-7.62924e-06
-3.48399e-06
2.05583e-05
1.94852e-05
5.80038e-07
-1.33235e-05
-7.03624e-06
9.55772e-06
1.27997e-05
3.27458e-06
-8.21047e-06
-4.33625e-07
1.23746e-05
1.9003e-05
5.62253e-06
-6.16359e-06
-7.60486e-06
9.99745e-06
1.41634e-05
5.82321e-06
-1.43308e-06
-6.62094e-06
9.44834e-06
1.35551e-05
2.70435e-06
-8.46313e-06
1.07919e-06
2.42112e-05
2.74222e-05
9.0849e-06
-1.54544e-05
-1.24029e-05
1.17884e-05
2.79871e-05
8.18761e-06
-1.10415e-05
-1.25062e-05
5.88973e-06
1.40038e-05
2.17605e-07
-7.22988e-06
-3.18336e-06
2.07297e-05
1.82519e-05
2.95601e-07
-1.25773e-05
-6.68271e-06
9.87423e-06
1.17399e-05
2.44815e-06
-7.65702e-06
3.66688e-07
1.26172e-05
1.82529e-05
4.89353e-06
-5.98965e-06
-7.32062e-06
1.00784e-05
1.34283e-05
5.85339e-06
-1.06002e-06
-6.3993e-06
9.63865e-06
1.28587e-05
2.06136e-06
-8.12767e-06
1.6144e-06
2.45687e-05
2.68911e-05
8.28477e-06
-1.53291e-05
-1.17592e-05
1.22634e-05
2.68203e-05
7.55609e-06
-1.07126e-05
-1.22643e-05
5.95545e-06
1.30737e-05
1.10473e-07
-6.58918e-06
-3.09186e-06
2.08957e-05
1.7696e-05
2.09501e-07
-1.16715e-05
-6.49732e-06
1.01606e-05
1.12221e-05
2.21431e-06
-6.91727e-06
9.18763e-07
1.28142e-05
1.79306e-05
4.76557e-06
-5.46298e-06
-7.19651e-06
1.02611e-05
1.31894e-05
5.57043e-06
-4.96162e-07
-6.26393e-06
9.83315e-06
1.25796e-05
1.9717e-06
-7.61831e-06
1.90742e-06
2.48389e-05
2.66205e-05
7.99204e-06
-1.48378e-05
-1.13825e-05
1.25501e-05
2.61085e-05
7.35937e-06
-1.01332e-05
-1.21733e-05
6.05548e-06
1.26444e-05
2.54265e-07
-5.93006e-06
-2.8327e-06
2.13226e-05
1.75281e-05
3.9992e-07
-1.08337e-05
-6.11538e-06
1.06496e-05
1.1032e-05
2.23757e-06
-6.17084e-06
1.39453e-06
1.31878e-05
1.79195e-05
4.7802e-06
-4.86345e-06
-6.89092e-06
1.07072e-05
1.32632e-05
5.58735e-06
9.34962e-08
-5.94389e-06
1.02596e-05
1.25381e-05
1.95234e-06
-7.05831e-06
2.47284e-06