/*--------------------------------*- C++ -*----------------------------------*\
  =========                 |
  \\      /  F ield         | OpenFOAM: The Open Source CFD Toolbox
   \\    /   O peration     | Website:  https://openfoam.org
    \\  /    A nd           | Version:  10
     \\/     M anipulation  |
\*---------------------------------------------------------------------------*/
FoamFile
{
    format      ascii;
    class       volScalarField;
    location    "1";
    object      pPrime2Mean;
}
// * * * * * * * * * * * * * * * * * * * * * * * * * * * * * * * * * * * * * //

dimensions      [0 4 -4 0 0 0 0];

internalField   nonuniform List<scalar> 
25600
(
1.15614e-07
5.29092e-07
5.94326e-06
2.78605e-06
2.6566e-06
3.6454e-06
1.24219e-07
3.41622e-07
1.31562e-05
6.97986e-06
8.18422e-07
9.49948e-07
4.43752e-07
2.43915e-06
6.75776e-07
9.33639e-07
3.49232e-07
4.41971e-07
1.28273e-06
4.36e-06
5.00197e-07
8.5325e-07
7.7249e-07
2.24101e-07
6.12242e-06
3.38406e-06
3.37005e-06
3.73252e-06
2.28219e-07
1.46963e-07
1.50843e-07
1.29432e-07
8.34102e-07
4.53902e-06
2.55646e-06
7.04371e-07
1.63228e-05
4.25296e-06
4.09637e-06
5.66982e-06
1.16121e-07
5.39601e-07
6.07175e-06
2.71451e-06
2.63663e-06
3.64821e-06
1.24609e-07
3.41425e-07
1.32604e-05
7.06713e-06
8.38208e-07
9.31624e-07
4.46324e-07
2.44476e-06
6.82767e-07
9.37671e-07
3.60693e-07
4.43654e-07
1.29561e-06
4.36982e-06
4.9963e-07
8.60575e-07
7.92607e-07
2.2764e-07
6.16119e-06
3.41016e-06
3.39604e-06
3.85221e-06
2.45706e-07
1.47655e-07
1.44498e-07
1.3341e-07
8.34499e-07
4.52352e-06
2.66798e-06
7.10327e-07
1.6681e-05
4.23204e-06
4.15853e-06
5.70409e-06
1.1947e-07
5.47109e-07
6.21043e-06
2.60223e-06
2.59295e-06
3.65978e-06
1.28685e-07
3.46144e-07
1.3369e-05
7.16342e-06
8.93043e-07
9.07566e-07
4.51629e-07
2.49193e-06
6.66062e-07
1.0132e-06
3.84733e-07
4.53592e-07
1.30823e-06
4.36548e-06
5.06167e-07
9.00155e-07
8.46336e-07
2.27157e-07
6.33681e-06
3.45424e-06
3.51877e-06
4.1342e-06
2.81833e-07
1.49199e-07
1.33514e-07
1.4936e-07
8.1563e-07
4.46792e-06
2.75863e-06
7.48902e-07
1.70346e-05
4.30966e-06
4.25903e-06
5.76706e-06
1.18705e-07
5.41258e-07
6.29287e-06
2.44527e-06
2.55834e-06
3.62639e-06
1.38668e-07
3.5275e-07
1.34357e-05
7.21643e-06
9.46962e-07
9.052e-07
4.5644e-07
2.53946e-06
6.78905e-07
1.12809e-06
3.87325e-07
4.69521e-07
1.29613e-06
4.40256e-06
5.29725e-07
9.88117e-07
9.3292e-07
2.41619e-07
6.46723e-06
3.54454e-06
3.58833e-06
4.67606e-06
3.94243e-07
1.51944e-07
1.57023e-07
1.72869e-07
7.83136e-07
4.37651e-06
2.81712e-06
7.7596e-07
1.79079e-05
3.88387e-06
4.46153e-06
5.93182e-06
1.39607e-07
5.07172e-07
6.33194e-06
2.28741e-06
2.49979e-06
3.29483e-06
1.4699e-07
3.55722e-07
1.37023e-05
7.40447e-06
1.07332e-06
8.41031e-07
4.7321e-07
2.48271e-06
6.68842e-07
1.16499e-06
3.87033e-07
4.80435e-07
1.31959e-06
4.29641e-06
5.42797e-07
1.10677e-06
1.02472e-06
2.92675e-07
6.19624e-06
3.59383e-06
3.61608e-06
5.30145e-06
5.58386e-07
1.51588e-07
2.22185e-07
1.64655e-07
7.13216e-07
4.22887e-06
2.66534e-06
6.80292e-07
1.70017e-05
3.97692e-06
4.06854e-06
6.74958e-06
1.52683e-07
4.98257e-07
6.05711e-06
2.17452e-06
2.3244e-06
2.95069e-06
1.5535e-07
3.87082e-07
1.36203e-05
7.53349e-06
1.27444e-06
6.49555e-07
4.63553e-07
2.43037e-06
6.38736e-07
1.15515e-06
4.00577e-07
4.92626e-07
1.34601e-06
3.85125e-06
5.43354e-07
1.25335e-06
1.18842e-06
2.92824e-07
5.47092e-06
3.52644e-06
3.51037e-06
5.86065e-06
7.82421e-07
1.52736e-07
2.92159e-07
1.4181e-07
6.83279e-07
3.9149e-06
2.68456e-06
4.9508e-07
1.62815e-05
4.50433e-06
4.02356e-06
7.24261e-06
1.54037e-07
5.76208e-07
5.7475e-06
2.0857e-06
1.931e-06
2.71604e-06
1.53518e-07
3.55685e-07
1.24755e-05
6.8269e-06
1.2973e-06
4.94319e-07
4.20599e-07
2.51465e-06
6.25891e-07
1.12855e-06
4.41575e-07
5.17598e-07
1.4198e-06
3.49326e-06
5.13792e-07
1.51112e-06
1.3841e-06
2.63529e-07
4.3006e-06
3.05458e-06
3.18169e-06
6.07807e-06
1.16604e-06
1.682e-07
4.03746e-07
1.11843e-07
6.88929e-07
3.72745e-06
2.40027e-06
3.5465e-07
1.48438e-05
3.53361e-06
3.11996e-06
6.82533e-06
2.75063e-07
6.7116e-07
5.10094e-06
2.31019e-06
1.3967e-06
2.84079e-06
1.45097e-07
2.74437e-07
1.22424e-05
6.05034e-06
1.16183e-06
4.17795e-07
4.06627e-07
2.44782e-06
5.97926e-07
1.13243e-06
4.99789e-07
5.26753e-07
1.37925e-06
3.45713e-06
5.07308e-07
1.80536e-06
1.60197e-06
2.28885e-07
2.8992e-06
1.88154e-06
2.92114e-06
5.98199e-06
1.68329e-06
2.02767e-07
5.31174e-07
5.64407e-08
6.70899e-07
3.21514e-06
1.96249e-06
5.9954e-07
1.42701e-05
2.90631e-06
2.82472e-06
5.8633e-06
6.28267e-07
6.97037e-07
4.56091e-06
3.11154e-06
1.29939e-06
2.89371e-06
1.49379e-07
3.5948e-07
1.37977e-05
5.88581e-06
1.12794e-06
3.58607e-07
3.61021e-07
2.48241e-06
6.50164e-07
1.21116e-06
5.119e-07
5.30666e-07
1.40989e-06
3.46204e-06
5.30313e-07
2.17884e-06
1.72502e-06
1.74972e-07
2.27044e-06
7.50249e-07
3.12287e-06
5.96238e-06
2.00238e-06
2.52588e-07
5.77942e-07
2.36401e-08
6.16228e-07
2.68728e-06
2.36992e-06
7.01561e-07
1.26734e-05
3.48689e-06
1.99353e-06
5.67538e-06
7.21638e-07
6.80831e-07
4.47439e-06
3.95306e-06
1.35852e-06
2.58878e-06
1.67658e-07
5.98643e-07
1.56479e-05
5.60598e-06
9.63702e-07
3.02909e-07
3.33335e-07
3.50965e-06
8.61212e-07
1.46935e-06
3.5318e-07
5.38997e-07
1.58948e-06
3.37434e-06
4.42742e-07
2.78624e-06
1.99326e-06
1.53839e-07
2.27342e-06
2.93443e-07
3.5657e-06
6.13813e-06
1.91456e-06
2.51032e-07
5.67636e-07
1.36762e-08
5.81595e-07
1.91848e-06
2.39609e-06
5.86666e-07
9.81046e-06
5.33424e-06
1.0993e-06
6.8643e-06
6.3833e-07
4.83869e-07
4.83907e-06
3.35617e-06
1.12508e-06
2.2393e-06
2.17946e-07
8.95554e-07
1.6496e-05
4.69371e-06
5.6265e-07
3.42755e-07
3.63168e-07
4.53023e-06
1.22397e-06
1.75926e-06
3.95404e-07
7.12619e-07
1.27709e-06
2.93993e-06
3.11797e-07
3.50621e-06
2.81733e-06
1.20134e-07
2.27119e-06
2.19529e-07
3.40511e-06
5.94611e-06
1.72238e-06
2.52299e-07
5.68472e-07
1.03024e-08
5.59789e-07
1.33884e-06
1.83577e-06
4.07488e-07
1.07764e-05
3.67586e-06
3.44723e-07
7.51203e-06
5.85419e-07
3.85845e-07
4.68495e-06
2.59847e-06
8.78176e-07
1.94456e-06
1.939e-07
1.22416e-06
1.63549e-05
3.90979e-06
3.25721e-07
4.52398e-07
4.69911e-07
4.5907e-06
1.53391e-06
1.66702e-06
9.39888e-07
9.79508e-07
8.89049e-07
2.97224e-06
2.3808e-07
2.80233e-06
3.35936e-06
9.62855e-08
2.29019e-06
3.8317e-07
2.91172e-06
5.21143e-06
1.39186e-06
4.39128e-07
6.12394e-07
1.16511e-08
4.6362e-07
9.0228e-07
1.33211e-06
2.08472e-07
9.39461e-06
2.60772e-06
1.38801e-07
7.43296e-06
5.99491e-07
3.84175e-07
3.53475e-06
2.28075e-06
5.00079e-07
2.11501e-06
1.14333e-07
1.40211e-06
1.61369e-05
3.53011e-06
2.76208e-07
4.5004e-07
4.241e-07
4.4361e-06
2.53374e-06
8.02082e-07
1.24786e-06
1.37331e-06
5.66959e-07
2.82279e-06
3.98179e-07
1.56665e-06
3.64036e-06
1.41489e-07
2.29599e-06
7.98886e-07
2.46346e-06
4.71087e-06
1.05681e-06
8.72839e-07
6.37796e-07
2.13874e-08
3.72894e-07
7.43244e-07
9.49134e-07
1.08059e-07
6.41301e-06
2.69454e-06
1.06143e-07
5.65138e-06
5.64408e-07
3.414e-07
2.19619e-06
1.9802e-06
1.86401e-07
2.64344e-06
1.17004e-07
1.52195e-06
1.64442e-05
4.01459e-06
3.05041e-07
3.94495e-07
4.3181e-07
4.74686e-06
3.50013e-06
1.87426e-07
8.49943e-07
1.54516e-06
4.10397e-07
2.46779e-06
9.44788e-07
5.64679e-07
3.3767e-06
3.56402e-07
2.26274e-06
1.07396e-06
1.96022e-06
4.22835e-06
7.7128e-07
1.36342e-06
6.16359e-07
8.17649e-08
1.9314e-07
6.17042e-07
5.69197e-07
1.01523e-07
3.66645e-06
2.78548e-06
1.02583e-07
3.67594e-06
5.21979e-07
3.04567e-07
1.24471e-06
2.00177e-06
7.97438e-08
3.64204e-06
1.2393e-07
1.10842e-06
1.48156e-05
4.58558e-06
2.88173e-07
3.65286e-07
4.15748e-07
5.04803e-06
4.47678e-06
7.90405e-08
4.39717e-07
1.1439e-06
3.6577e-07
2.30625e-06
1.30876e-06
4.57617e-07
2.45142e-06
6.97556e-07
2.22034e-06
1.37261e-06
9.71246e-07
3.22966e-06
4.9355e-07
1.71808e-06
7.25338e-07
1.40691e-07
1.08403e-07
6.75528e-07
2.84902e-07
1.71226e-07
2.51353e-06
2.53172e-06
1.38002e-07
2.19316e-06
2.86999e-07
4.41415e-07
4.70799e-07
2.70152e-06
1.59263e-07
5.49653e-06
8.0716e-08
3.70686e-07
1.27184e-05
3.3505e-06
4.2519e-07
3.87917e-07
1.05118e-06
5.26335e-06
4.06509e-06
5.37092e-08
2.21708e-07
4.89202e-07
2.25853e-07
1.99935e-06
9.12803e-07
5.08927e-07
1.61077e-06
9.27804e-07
1.99198e-06
1.70954e-06
1.96148e-07
1.61993e-06
1.6065e-07
1.6513e-06
7.65228e-07
1.85696e-07
9.29597e-08
6.2159e-07
1.12298e-07
4.90846e-07
2.48663e-06
1.64936e-06
1.3058e-07
1.45061e-06
1.76646e-07
3.79681e-07
4.57684e-08
5.15899e-06
1.25017e-07
6.72795e-06
1.80173e-07
1.12258e-07
1.02383e-05
2.47734e-06
7.46373e-07
5.68627e-07
1.79398e-06
4.57357e-06
3.63905e-06
4.36549e-08
2.25222e-07
1.76533e-07
2.63534e-07
1.6951e-06
6.03941e-07
4.66247e-07
9.60386e-07
1.33825e-06
2.48564e-06
1.65762e-06
8.53751e-08
7.85462e-07
1.38993e-07
1.36219e-06
6.11004e-07
2.07046e-07
1.12892e-07
4.88033e-07
1.27269e-07
9.66119e-07
2.1379e-06
1.04753e-06
9.17057e-08
9.14987e-07
4.48892e-07
7.13547e-08
1.81479e-07
7.62013e-06
5.06716e-07
6.1247e-06
5.01777e-07
2.01511e-07
7.82224e-06
2.67808e-06
1.10003e-06
3.33104e-07
1.05897e-06
2.458e-06
2.64815e-06
5.28194e-08
9.961e-08
7.66065e-08
2.85157e-07
1.84525e-06
2.01747e-07
5.67561e-07
2.94247e-07
1.03235e-06
2.70888e-06
1.577e-06
3.50206e-08
3.1426e-07
3.05988e-07
1.75767e-06
1.24573e-06
1.07195e-07
9.14057e-08
6.32292e-07
1.53402e-07
8.36837e-07
1.34201e-06
4.89522e-07
4.17018e-08
3.47564e-07
7.36113e-07
2.21943e-08
5.00702e-07
1.08591e-05
2.26851e-06
4.29883e-06
1.12432e-06
3.36546e-07
5.22168e-06
2.87188e-06
1.07078e-06
2.55026e-07
8.48161e-07
1.25028e-06
1.88493e-06
7.06853e-08
4.77757e-08
7.13933e-08
2.92512e-07
1.64866e-06
1.73312e-07
1.03079e-07
1.28286e-07
1.24474e-07
1.14509e-06
1.28707e-06
1.05283e-07
4.85596e-08
7.09713e-07
2.06577e-06
1.97013e-06
6.35819e-08
1.02564e-07
3.80874e-07
1.2902e-07
6.07645e-07
5.9569e-07
1.307e-07
1.08458e-07
1.56049e-07
9.92321e-07
5.44486e-08
1.18841e-06
1.39036e-05
4.63432e-06
3.03821e-06
2.1577e-06
3.98649e-07
2.62318e-06
2.0699e-06
1.01815e-06
2.99443e-07
1.70917e-06
1.13484e-06
1.16343e-06
5.38789e-08
2.71454e-08
3.36842e-07
2.31249e-07
5.75394e-07
2.44541e-07
1.30528e-07
3.56026e-07
3.20516e-08
6.77033e-08
3.65609e-07
6.01892e-08
5.89332e-08
9.43927e-07
1.42467e-06
1.21687e-06
1.03854e-07
1.58838e-07
1.98433e-07
1.16641e-07
6.39593e-07
2.43634e-07
2.54832e-07
2.53338e-07
1.61913e-07
7.65877e-07
1.7875e-08
9.39323e-07
1.55449e-05
8.30315e-06
1.70791e-06
3.6234e-06
3.86402e-07
1.41484e-06
1.92072e-06
6.0464e-07
3.11152e-07
2.33586e-06
1.51038e-06
1.04886e-06
9.61286e-09
6.42583e-09
1.02323e-06
1.67142e-07
5.3886e-08
8.14243e-08
1.72756e-07
4.91522e-07
1.18426e-07
6.1197e-08
1.7014e-07
1.56036e-07
6.07049e-08
6.17533e-07
1.12258e-06
9.18793e-07
7.98224e-08
7.57696e-08
1.7322e-07
8.2965e-08
1.34542e-06
1.48935e-06
2.54084e-08
6.27125e-07
3.41602e-07
8.48466e-07
2.52137e-07
4.14537e-07
1.09718e-05
7.96249e-06
8.45096e-07
3.80069e-06
5.23201e-07
1.37038e-06
2.72952e-06
2.14926e-07
1.62732e-07
1.52333e-06
5.78868e-07
3.13971e-07
5.55355e-08
3.08224e-07
6.30878e-07
2.14626e-07
7.34393e-07
2.23218e-07
8.12142e-08
2.90894e-07
8.19433e-08
7.93038e-08
1.02621e-07
7.59227e-07
2.64789e-07
8.32588e-07
1.60584e-06
1.15857e-06
8.21275e-08
1.52296e-07
2.59196e-07
1.5299e-07
1.58549e-06
2.61623e-06
6.15514e-08
1.30827e-06
1.11012e-06
4.66037e-07
1.50406e-07
1.98691e-08
7.19551e-06
7.09873e-06
3.34525e-07
2.91063e-06
5.29348e-07
7.30356e-07
2.42519e-06
2.40483e-07
9.00746e-08
7.09198e-07
5.0422e-07
4.7482e-07
1.52329e-08
3.97194e-07
6.16109e-07
1.23443e-06
1.69746e-07
1.75105e-07
6.02879e-08
4.98623e-08
1.37518e-07
2.23695e-08
2.85607e-07
9.24409e-07
2.08451e-07
2.48881e-07
9.16679e-07
1.05886e-06
1.11687e-07
1.03472e-07
5.91107e-08
4.40516e-07
8.661e-07
1.57336e-06
2.13173e-08
1.83904e-06
2.14684e-06
2.69544e-07
1.52605e-07
6.7557e-08
4.82721e-06
7.23681e-06
1.91069e-07
1.65921e-06
9.84918e-07
8.4176e-07
1.58438e-06
1.88394e-07
1.7588e-07
3.22722e-07
5.96326e-07
6.86702e-07
1.3146e-07
3.38437e-07
9.20898e-07
2.53527e-06
4.54215e-08
2.00893e-07
3.04526e-08
2.04913e-07
7.50793e-07
1.19615e-07
3.71871e-07
1.27917e-06
1.02548e-07
3.4307e-08
6.9396e-07
1.50007e-06
3.42663e-07
2.8266e-07
1.7108e-07
6.12433e-07
2.04205e-07
1.175e-06
2.486e-07
3.68941e-06
3.7667e-06
1.11164e-06
1.43135e-06
1.49503e-08
1.90921e-06
2.65494e-06
3.0107e-07
1.27542e-06
8.21889e-07
6.68379e-07
1.77959e-06
1.33611e-06
1.16244e-07
3.12093e-07
6.55941e-07
1.02712e-06
6.55581e-07
4.83152e-08
1.36772e-06
4.58773e-06
8.80095e-08
1.60487e-07
9.38248e-08
2.22182e-08
2.21815e-07
5.96192e-08
1.16886e-07
1.17766e-06
2.77594e-07
4.11575e-08
5.33776e-07
1.07314e-06
2.93851e-07
6.77291e-07
1.01176e-06
1.32137e-07
4.01078e-07
2.43995e-06
4.12161e-07
1.86409e-06
1.82942e-06
3.87676e-07
5.72598e-07
4.01424e-07
4.29652e-07
1.39829e-06
2.75933e-07
7.44467e-07
8.81234e-07
3.20277e-07
1.85493e-07
1.65286e-07
3.0025e-08
6.75073e-08
2.63556e-07
4.35375e-07
4.67734e-07
1.41738e-08
1.12545e-06
4.06542e-06
1.50646e-07
3.24207e-08
7.46674e-09
1.17295e-08
4.94121e-07
3.50354e-07
1.30619e-07
5.07282e-07
5.57691e-08
7.94091e-07
3.08834e-08
8.49985e-07
2.89634e-07
6.61004e-07
1.94406e-06
2.90255e-08
2.69988e-07
2.40172e-06
2.54639e-07
4.96405e-07
1.08579e-06
6.14472e-07
8.29697e-07
2.83763e-07
1.71094e-07
8.38699e-07
2.87327e-07
3.76119e-07
1.12594e-06
1.09186e-06
5.02801e-07
7.74136e-07
3.10694e-07
2.12362e-07
2.88607e-08
1.28947e-08
1.70421e-08
3.92476e-07
8.56942e-08
1.81011e-06
1.95893e-07
2.9046e-08
6.80212e-09
9.55061e-09
2.73142e-07
2.75406e-07
1.50033e-07
1.2208e-06
6.85627e-07
2.17388e-08
6.268e-08
2.94685e-07
9.66939e-09
3.50022e-08
4.36569e-07
3.98131e-08
1.97502e-07
2.52172e-06
2.27957e-07
1.16217e-08
2.08592e-07
7.29808e-07
1.36522e-08
8.12402e-07
5.49595e-09
3.39972e-07
9.9585e-08
4.26714e-08
3.50753e-07
1.02689e-06
3.10861e-07
3.59629e-07
4.56064e-07
9.50009e-07
6.25686e-07
7.35976e-07
7.99436e-07
2.10389e-08
5.51794e-07
1.88901e-06
3.83794e-07
4.65937e-07
2.54488e-07
1.32873e-08
3.50172e-07
7.50363e-08
6.2206e-08
8.69871e-08
4.27352e-08
1.15271e-06
6.07015e-07
2.068e-07
2.29692e-07
2.26776e-07
3.07873e-07
3.5564e-07
2.08049e-08
1.61457e-06
9.68102e-07
4.91245e-08
1.59089e-06
5.90166e-07
4.48546e-08
6.98066e-07
4.15897e-08
1.28207e-07
3.00393e-08
2.70319e-07
2.49213e-08
5.38561e-07
2.0773e-07
2.65522e-07
2.94608e-07
3.77479e-07
1.09464e-07
5.23867e-07
7.7494e-07
2.71864e-08
5.6874e-08
8.95065e-07
3.35091e-07
8.66003e-07
4.71048e-07
2.70339e-08
3.12266e-07
2.90543e-07
5.26221e-09
1.10506e-06
8.47008e-07
2.0947e-08
2.71425e-08
1.2492e-07
2.37051e-08
2.7752e-08
2.40686e-07
7.83859e-07
7.07962e-08
4.87195e-07
1.10904e-06
2.21231e-09
5.99748e-07
4.11614e-07
4.39036e-07
1.0651e-06
8.69576e-07
4.31908e-07
8.97875e-07
4.99955e-07
1.16247e-06
1.77691e-06
1.08966e-07
4.21682e-08
6.73827e-08
1.20659e-08
9.24693e-08
1.93406e-08
5.70584e-07
1.7841e-08
5.16584e-08
1.23724e-07
5.45187e-08
6.37416e-07
8.10421e-07
1.72507e-08
1.95704e-07
5.93979e-07
9.78893e-08
2.02121e-07
6.97582e-07
6.71463e-09
7.48182e-08
2.37077e-08
1.49541e-08
7.72781e-08
2.72851e-08
1.51513e-06
6.89073e-08
5.22262e-08
3.51418e-07
1.26206e-08
1.54495e-07
1.39134e-07
1.56977e-07
6.88469e-08
6.31879e-07
2.42056e-07
2.91401e-08
1.1521e-07
1.29222e-08
9.5579e-07
8.5237e-07
2.52914e-07
5.48544e-08
1.49584e-08
2.28396e-08
2.27361e-08
2.78152e-07
2.1782e-07
2.34769e-08
9.60957e-08
1.26125e-08
8.75612e-09
1.3399e-07
9.93248e-09
4.46313e-08
1.00802e-06
5.25243e-08
1.30599e-07
1.02259e-06
2.44716e-08
5.62972e-09
3.42638e-08
5.03373e-07
2.20802e-07
3.73659e-08
1.73837e-06
5.78196e-07
9.69062e-08
4.67589e-07
1.71748e-08
3.59858e-08
5.23144e-07
3.93682e-07
2.1589e-08
1.03625e-06
3.2361e-07
2.39471e-07
1.02707e-08
2.32065e-08
2.39117e-07
2.54334e-07
2.47157e-07
7.16409e-07
6.03807e-08
3.82636e-07
1.71055e-07
8.13497e-08
4.51839e-07
2.13942e-08
2.75935e-07
7.80697e-07
2.9207e-07
6.40091e-07
4.70482e-07
2.26728e-08
2.87435e-07
1.02882e-07
5.6821e-08
4.37505e-07
2.22163e-07
4.28964e-08
5.14004e-07
1.41874e-06
3.02388e-07
2.38435e-07
1.4397e-06
7.13255e-07
2.86185e-08
1.66937e-07
1.71019e-07
4.39444e-09
2.93874e-06
6.8643e-06
5.73935e-07
2.61404e-05
3.20009e-06
9.17045e-06
2.46787e-06
2.35584e-06
9.88318e-06
1.84692e-06
5.54698e-06
1.31055e-05
1.17234e-06
1.5769e-05
2.06104e-06
8.35915e-08
5.13357e-08
5.78223e-06
3.9078e-07
4.14629e-06
5.44604e-07
2.99466e-07
1.81116e-06
2.66031e-06
2.27975e-06
3.75288e-06
5.03983e-07
5.77821e-06
1.30062e-05
4.56452e-06
1.74903e-06
2.9037e-07
3.37349e-07
2.94088e-06
6.74196e-06
1.39789e-06
9.16749e-06
1.52968e-05
1.68447e-06
4.41817e-06
2.95461e-06
6.96506e-06
6.01766e-07
2.66279e-05
3.18704e-06
9.1918e-06
2.45768e-06
2.41186e-06
9.98402e-06
1.81772e-06
5.68221e-06
1.33523e-05
1.17503e-06
1.58174e-05
2.00779e-06
8.20937e-08
5.43275e-08
5.87727e-06
3.88795e-07
4.13468e-06
5.42628e-07
3.1025e-07
1.83227e-06
2.72054e-06
2.21744e-06
3.67509e-06
5.1327e-07
5.90796e-06
1.32414e-05
4.71152e-06
1.82869e-06
2.94831e-07
3.40541e-07
2.9445e-06
6.84881e-06
1.46103e-06
9.15532e-06
1.54522e-05
1.70231e-06
4.35057e-06
3.05617e-06
7.13074e-06
6.87982e-07
2.76878e-05
3.12366e-06
9.34496e-06
2.42096e-06
2.43535e-06
1.01786e-05
1.78386e-06
5.91776e-06
1.36989e-05
1.19334e-06
1.61318e-05
1.89466e-06
1.04386e-07
5.77679e-08
5.92239e-06
3.94369e-07
4.13531e-06
5.50274e-07
3.19285e-07
1.92968e-06
2.78672e-06
2.28171e-06
3.68321e-06
5.45212e-07
6.10041e-06
1.30579e-05
4.62414e-06
1.89333e-06
2.881e-07
3.38161e-07
2.95709e-06
7.03111e-06
1.59288e-06
9.19938e-06
1.56538e-05
1.74384e-06
4.34826e-06
3.19227e-06
7.34231e-06
7.76669e-07
2.89536e-05
3.00399e-06
9.50118e-06
2.43152e-06
2.50763e-06
1.03495e-05
1.75843e-06
6.29505e-06
1.41322e-05
1.22843e-06
1.64887e-05
1.90832e-06
1.58947e-07
5.77523e-08
5.94397e-06
4.05474e-07
4.13621e-06
5.40059e-07
3.22554e-07
1.95038e-06
2.8251e-06
2.32874e-06
3.75179e-06
5.84112e-07
6.42224e-06
1.28162e-05
4.11352e-06
1.73514e-06
2.67577e-07
3.3075e-07
3.11414e-06
7.23602e-06
1.69538e-06
9.4379e-06
1.62251e-05
1.85817e-06
4.3001e-06
3.13316e-06
7.48108e-06
8.20589e-07
3.03202e-05
2.74383e-06
9.87491e-06
2.42972e-06
2.77335e-06
1.05684e-05
1.66577e-06
6.45044e-06
1.48537e-05
1.05041e-06
1.64954e-05
1.92466e-06
1.67362e-07
6.71153e-08
5.89495e-06
4.14254e-07
4.08937e-06
4.3205e-07
2.63874e-07
1.68382e-06
2.38393e-06
2.21567e-06
3.53152e-06
5.17901e-07
6.72063e-06
1.33119e-05
3.79332e-06
1.55743e-06
2.51725e-07
3.08357e-07
3.11535e-06
7.41531e-06
1.86381e-06
1.03293e-05
1.7924e-05
1.97893e-06
4.16346e-06
2.96971e-06
7.13791e-06
8.62485e-07
3.14622e-05
2.5578e-06
1.04182e-05
2.3644e-06
3.06032e-06
1.12757e-05
1.49178e-06
6.58223e-06
1.48704e-05
7.5215e-07
1.5871e-05
1.81063e-06
1.45299e-07
8.86267e-08
5.8025e-06
4.08897e-07
4.18633e-06
2.73324e-07
1.60906e-07
1.19996e-06
1.35735e-06
2.07348e-06
2.98747e-06
4.00872e-07
6.60454e-06
1.38138e-05
3.90736e-06
1.56881e-06
2.30099e-07
2.89056e-07
3.28495e-06
7.24348e-06
2.02087e-06
1.05168e-05
1.88158e-05
2.00678e-06
4.49066e-06
2.62777e-06
6.28889e-06
8.73017e-07
3.12526e-05
2.61564e-06
1.05387e-05
1.95937e-06
2.76601e-06
1.19209e-05
1.43167e-06
6.81593e-06
1.42289e-05
6.79823e-07
1.53203e-05
1.60887e-06
1.47562e-07
1.20049e-07
5.39477e-06
3.92618e-07
4.50022e-06
1.52919e-07
9.19692e-08
9.64791e-07
6.03322e-07
2.21619e-06
2.58333e-06
3.72653e-07
6.16238e-06
1.3513e-05
3.96694e-06
1.60489e-06
1.97143e-07
2.88695e-07
3.32231e-06
6.88817e-06
2.73172e-06
9.44411e-06
1.72359e-05
1.89977e-06
4.88009e-06
2.25209e-06
5.14119e-06
7.06011e-07
2.83016e-05
2.5872e-06
1.0316e-05
1.44585e-06
1.95738e-06
1.15817e-05
1.34457e-06
7.8618e-06
1.54952e-05
6.54202e-07
1.4546e-05
1.11488e-06
1.67622e-07
1.72991e-07
4.86554e-06
4.01713e-07
5.12748e-06
1.23843e-07
1.60057e-07
9.90924e-07
2.18292e-07
2.59645e-06
2.16664e-06
2.5245e-07
5.27618e-06
1.28185e-05
3.91501e-06
1.81216e-06
1.59453e-07
2.12291e-07
3.74504e-06
7.07798e-06
3.08055e-06
9.36983e-06
1.53996e-05
1.67508e-06
4.89554e-06
1.91207e-06
4.24166e-06
4.43363e-07
2.34334e-05
2.36797e-06
1.0539e-05
1.32682e-06
1.17565e-06
1.07871e-05
1.16937e-06
8.59866e-06
1.78125e-05
4.03278e-07
1.33557e-05
5.48236e-07
2.54681e-07
2.47507e-07
4.54553e-06
3.99136e-07
5.91787e-06
1.24557e-07
3.13629e-07
9.74977e-07
1.36631e-07
3.27179e-06
1.72512e-06
6.07103e-08
3.40967e-06
1.14722e-05
3.75853e-06
1.88042e-06
1.22214e-07
1.51078e-07
3.85968e-06
5.48066e-06
2.21858e-06
1.39489e-05
1.7762e-05
1.6808e-06
5.01678e-06
1.85799e-06
3.8442e-06
3.34555e-07
1.89059e-05
2.20215e-06
1.05341e-05
1.61391e-06
6.70006e-07
9.5662e-06
8.98318e-07
8.03205e-06
1.6539e-05
2.87511e-07
1.3281e-05
4.48785e-07
4.07624e-07
3.05937e-07
4.48172e-06
3.64196e-07
6.73692e-06
1.12269e-07
4.31748e-07
8.44431e-07
2.46228e-07
3.48786e-06
1.2918e-06
1.01962e-07
1.27817e-06
8.90573e-06
3.41497e-06
1.69803e-06
9.19413e-08
1.17062e-07
3.76366e-06
4.00982e-06
1.35302e-06
2.0268e-05
1.92885e-05
2.28319e-06
6.38396e-06
1.64094e-06
3.7468e-06
2.69902e-07
1.5072e-05
1.83105e-06
9.85703e-06
1.98884e-06
5.64183e-07
8.18143e-06
6.28393e-07
8.09644e-06
1.29724e-05
3.00518e-07
1.31499e-05
4.71507e-07
5.21743e-07
4.21153e-07
3.81622e-06
3.52654e-07
6.86155e-06
1.67656e-07
7.18253e-07
7.84069e-07
2.84569e-07
3.15112e-06
8.06277e-07
2.9091e-07
2.4123e-07
5.65248e-06
2.86274e-06
1.44636e-06
6.24961e-08
1.51956e-07
4.06992e-06
3.80422e-06
1.75494e-06
1.39168e-05
1.42094e-05
2.10881e-06
6.01841e-06
1.19089e-06
3.47805e-06
2.3685e-07
1.27508e-05
1.65929e-06
9.11707e-06
2.06597e-06
6.39247e-07
7.87191e-06
6.58325e-07
8.47781e-06
1.00147e-05
4.01354e-07
1.26988e-05
3.59137e-07
7.65497e-07
6.49244e-07
2.49901e-06
3.02321e-07
6.77591e-06
2.59185e-07
1.25836e-06
7.89999e-07
2.28232e-07
2.89522e-06
4.6207e-07
4.66811e-07
8.76874e-08
2.93133e-06
2.34279e-06
1.27133e-06
3.63952e-08
2.68194e-07
4.69901e-06
5.47937e-06
1.09681e-06
1.18054e-05
1.03387e-05
2.27561e-06
5.05112e-06
7.15159e-07
2.68215e-06
1.78349e-07
1.05141e-05
1.55447e-06
7.93226e-06
2.18401e-06
6.07031e-07
7.24794e-06
7.8434e-07
6.96121e-06
6.39548e-06
3.39692e-07
1.18453e-05
4.42707e-07
8.85803e-07
6.88571e-07
1.84229e-06
1.97911e-07
6.47464e-06
1.7756e-07
1.40995e-06
7.00378e-07
1.55209e-07
2.68176e-06
3.98057e-07
3.57477e-07
1.41402e-07
1.65075e-06
1.89914e-06
1.06337e-06
3.91852e-08
2.87567e-07
5.08155e-06
4.61109e-06
2.1443e-07
9.65543e-06
7.57268e-06
2.05634e-06
4.16383e-06
3.14506e-07
1.65626e-06
1.29489e-07
8.21365e-06
1.22588e-06
6.21735e-06
1.91831e-06
8.44551e-07
6.34192e-06
4.39363e-07
5.1453e-06
2.55458e-06
2.53817e-07
9.54654e-06
5.89956e-07
7.75966e-07
7.19437e-07
1.14846e-06
1.5495e-07
5.69898e-06
1.19919e-07
1.19735e-06
5.82286e-07
6.03905e-08
1.94916e-06
4.22642e-07
1.29412e-07
4.92038e-07
1.36705e-06
1.55515e-06
8.67201e-07
7.51219e-08
1.8243e-07
4.955e-06
3.79092e-06
1.04762e-07
7.37177e-06
5.37256e-06
1.9457e-06
3.23143e-06
1.6456e-07
1.17816e-06
1.00313e-07
7.04721e-06
8.53808e-07
5.63473e-06
1.73064e-06
1.09369e-06
5.93519e-06
1.62191e-07
4.04931e-06
6.95386e-07
9.59364e-08
5.54205e-06
5.75499e-07
5.32626e-07
8.18446e-07
5.32131e-07
1.26926e-07
4.78249e-06
9.5666e-08
7.35129e-07
4.54664e-07
6.6927e-08
8.66419e-07
2.59796e-07
7.63381e-08
1.04367e-06
1.67255e-06
1.46419e-06
9.16169e-07
1.11789e-07
1.34725e-07
4.89638e-06
4.19192e-06
1.16215e-07
4.43373e-06
3.41762e-06
2.02676e-06
2.84726e-06
6.78744e-08
9.16315e-07
9.7922e-08
4.96636e-06
4.66221e-07
4.75199e-06
1.35635e-06
4.54035e-07
4.12105e-06
1.58839e-07
3.25098e-06
1.48695e-07
6.90076e-08
3.1441e-06
4.72031e-07
6.52474e-07
5.61647e-07
1.84087e-07
8.67194e-08
3.6784e-06
1.27686e-07
1.01303e-07
1.96129e-07
2.99408e-07
1.6168e-07
1.20858e-07
1.11835e-07
1.36292e-06
2.81007e-06
1.78752e-06
1.07304e-06
1.75299e-07
1.14918e-07
4.44358e-06
5.05744e-06
3.93155e-07
2.15769e-06
2.23281e-06
2.10579e-06
2.50191e-06
1.31816e-07
5.01757e-07
6.98979e-08
5.80376e-06
7.28455e-07
3.70513e-06
1.09032e-06
1.8141e-07
3.35682e-06
1.74452e-07
1.99977e-06
6.35751e-08
1.48297e-07
2.29563e-06
9.08854e-07
3.52146e-07
3.87726e-07
5.83551e-08
9.81193e-08
2.32003e-06
3.41337e-08
5.43351e-08
4.77595e-08
3.2915e-07
7.79621e-08
3.86883e-08
7.99256e-08
9.88949e-07
3.19276e-06
1.97688e-06
8.08861e-07
2.71297e-07
1.27646e-07
3.27976e-06
4.60518e-06
1.27504e-06
5.18537e-07
1.42331e-06
1.75948e-06
1.58986e-06
2.84634e-07
7.74125e-08
5.60284e-07
7.77939e-06
1.43482e-06
2.70323e-06
1.07808e-06
1.6505e-07
3.78125e-06
8.74746e-07
1.06579e-06
2.857e-07
3.79645e-07
1.66187e-06
1.72062e-06
3.94188e-08
2.91884e-07
1.81497e-07
1.78166e-07
1.47481e-06
8.18456e-08
2.77481e-08
5.79889e-08
3.62171e-07
2.59868e-07
4.60404e-08
3.69665e-08
7.74369e-07
3.02069e-06
2.337e-06
7.03164e-07
4.09142e-07
1.7431e-07
2.92603e-06
3.52394e-06
1.47319e-06
1.65576e-07
9.2881e-07
1.66322e-06
1.4258e-06
3.23782e-08
2.77091e-07
2.67457e-07
6.38203e-06
1.88584e-06
1.56326e-06
9.63989e-07
2.12234e-07
2.76577e-06
2.28484e-06
5.07197e-07
2.67229e-07
7.06689e-07
1.4933e-06
2.66525e-06
4.89153e-08
1.03667e-07
4.06693e-07
1.70969e-07
6.25103e-07
3.47219e-08
1.58281e-07
2.77988e-07
4.95055e-07
1.01868e-06
1.53084e-07
6.49347e-08
4.13361e-07
2.31065e-06
2.78425e-06
1.85434e-06
1.44095e-07
2.52828e-07
1.66535e-06
2.45122e-06
2.01098e-06
1.73318e-07
4.77887e-07
1.68632e-06
2.31842e-06
2.85845e-07
9.88174e-07
4.06887e-08
3.96468e-06
1.49856e-06
1.56136e-06
1.25571e-06
4.41623e-07
1.60598e-06
3.24139e-06
1.64173e-07
2.70521e-07
8.85167e-07
6.66847e-07
2.00456e-06
9.85203e-08
1.38722e-08
2.33186e-07
1.26856e-07
1.73698e-07
4.44366e-08
1.05763e-07
1.31288e-06
2.9672e-08
1.36334e-06
5.17861e-07
1.04291e-07
2.89216e-07
1.80655e-06
1.90834e-06
1.83809e-06
1.03545e-07
8.10836e-08
1.15087e-06
1.16915e-06
1.64072e-06
2.6401e-07
1.16305e-07
2.01726e-06
2.96163e-06
1.00014e-06
2.68675e-06
4.30078e-07
3.36938e-06
2.30682e-06
9.48768e-07
1.29585e-06
8.6544e-07
4.15675e-07
2.78585e-06
1.37327e-07
3.82611e-07
1.02845e-06
6.04107e-07
1.83861e-06
1.42775e-07
1.2189e-07
7.96391e-08
8.02622e-08
1.10343e-07
2.16601e-07
1.25074e-07
5.23378e-07
1.57797e-07
5.71024e-07
1.04704e-07
1.06059e-07
9.70169e-08
5.00136e-07
4.2869e-07
5.98173e-07
9.95335e-08
7.69057e-08
5.72672e-07
3.9505e-07
1.71853e-06
3.32978e-07
1.07713e-07
2.22771e-06
3.35106e-06
2.36777e-08
3.46339e-07
1.1692e-07
3.11219e-06
3.08885e-06
2.95241e-07
1.5211e-06
2.24223e-07
4.36543e-07
2.16278e-06
2.17011e-07
1.12898e-07
3.97823e-07
1.51428e-07
1.02691e-06
1.02886e-07
6.72846e-07
1.63201e-08
1.00428e-07
6.36434e-08
2.49995e-07
1.39987e-07
1.93612e-07
1.06698e-07
3.17365e-07
2.13859e-08
9.00265e-07
3.26584e-07
2.66235e-07
3.6423e-07
4.83833e-07
9.98948e-08
1.82942e-07
8.84584e-07
3.81215e-07
1.87565e-06
1.6621e-07
1.29159e-06
4.74505e-07
1.60797e-06
2.64721e-07
1.97613e-08
2.17639e-07
1.24287e-06
9.90518e-07
8.28056e-07
2.90595e-06
5.79189e-07
6.76508e-07
2.48683e-06
7.03973e-07
2.38608e-07
4.57302e-07
1.95896e-07
1.29404e-06
5.22002e-07
8.62844e-07
2.21245e-07
5.39372e-08
7.36382e-08
2.67106e-07
7.64729e-08
4.32514e-08
1.88192e-07
4.18192e-08
7.24304e-08
1.13401e-06
4.3966e-07
8.16337e-08
1.72471e-07
4.78309e-07
2.07684e-07
3.58163e-07
7.97038e-07
1.57488e-07
2.47502e-06
1.99158e-06
6.44158e-08
5.07576e-07
8.50585e-07
1.58993e-08
1.90019e-07
3.48979e-07
2.06064e-06
2.80616e-06
1.32779e-07
1.97274e-06
1.49589e-06
9.09328e-07
1.57047e-06
5.35012e-07
4.27866e-08
3.95112e-08
6.77243e-08
2.03222e-07
1.12267e-07
1.30272e-06
5.20399e-08
2.65774e-07
1.44622e-07
1.25707e-07
1.41752e-07
7.56016e-08
2.83682e-07
4.15269e-08
6.02737e-08
9.72862e-07
1.35742e-07
1.71534e-07
4.77271e-08
9.52315e-08
2.01551e-08
9.51637e-08
4.04803e-07
1.95981e-08
1.10989e-06
1.70636e-06
8.87648e-08
2.21463e-06
2.22851e-06
3.67383e-07
4.21802e-08
3.67142e-07
6.1072e-07
5.01169e-07
1.28496e-06
2.84067e-06
2.25868e-06
1.28291e-06
1.52297e-06
1.34547e-06
5.62612e-07
4.75785e-07
5.00164e-08
3.19191e-07
2.68391e-07
1.26449e-06
1.74694e-07
3.33469e-07
2.7972e-07
4.62005e-08
9.48553e-08
5.201e-08
3.84736e-08
8.18904e-08
8.61908e-08
1.78065e-06
5.86731e-07
6.61132e-08
2.41288e-08
1.29614e-07
5.65006e-08
5.10044e-07
1.35406e-06
3.16187e-08
7.33691e-07
1.73626e-06
2.07153e-07
1.94162e-06
1.3326e-06
4.17664e-07
1.09351e-07
4.11712e-07
7.40154e-07
1.4413e-06
3.02642e-07
1.16883e-06
2.25001e-06
1.70867e-06
8.96448e-07
6.91527e-07
1.66079e-07
7.81027e-08
4.79875e-08
2.02994e-08
1.31933e-08
1.53238e-06
1.67755e-07
8.30987e-07
3.36217e-08
7.20396e-08
3.05889e-07
6.93302e-08
4.87595e-07
1.63463e-07
7.9257e-08
6.03392e-07
3.69603e-08
1.00582e-06
1.23543e-07
5.77608e-07
5.16385e-07
5.13559e-07
1.18159e-06
2.33345e-08
2.09701e-08
8.39319e-07
1.05178e-08
3.72559e-07
6.74321e-07
9.63313e-08
8.79609e-08
5.50028e-07
1.42773e-07
7.40646e-07
1.85536e-07
3.04207e-07
1.32513e-06
1.46069e-06
4.53119e-07
6.84588e-07
7.3719e-07
3.19468e-07
8.90325e-08
6.19681e-08
2.98137e-08
1.00778e-06
1.64963e-07
1.07219e-06
4.99767e-08
9.18826e-08
3.85234e-07
1.16522e-07
7.14698e-07
5.55795e-07
2.8372e-07
1.5697e-06
9.80429e-07
2.73833e-08
7.05304e-08
4.406e-08
1.02641e-08
2.27505e-08
4.92704e-07
2.08939e-08
2.1766e-08
1.12117e-06
7.65929e-08
1.46339e-07
8.21905e-07
3.17441e-07
4.13344e-08
8.20127e-07
7.6325e-09
1.17158e-07
3.3426e-07
1.07049e-07
6.23901e-07
1.40206e-06
5.13243e-07
4.18656e-07
2.45885e-07
1.676e-07
8.04086e-09
6.43353e-08
4.31303e-07
4.75982e-08
1.42023e-08
6.34835e-07
2.77041e-08
1.18116e-07
2.50234e-07
3.19423e-08
6.35089e-07
4.84986e-07
3.5634e-08
1.72003e-07
6.04053e-08
1.00717e-06
3.75249e-07
7.82417e-08
4.73008e-07
3.24846e-07
1.14581e-06
2.33233e-07
2.28173e-07
7.40272e-07
5.2577e-07
1.70913e-07
1.66944e-06
1.63684e-07
2.08082e-08
9.1563e-08
1.0896e-07
3.23701e-07
8.43656e-08
3.59541e-08
3.7698e-07
8.09796e-07
8.85578e-08
2.92523e-07
8.60382e-07
1.1617e-06
2.24212e-07
9.15625e-08
1.8428e-07
1.0117e-07
1.5887e-08
4.74233e-07
8.16791e-08
3.45026e-07
3.91715e-07
1.42364e-08
2.18717e-07
2.30958e-07
6.56244e-09
6.68798e-07
1.93633e-07
2.22195e-07
2.00494e-07
2.46547e-07
5.60094e-08
7.02603e-08
4.80932e-07
1.01743e-06
4.07522e-08
8.40056e-07
8.81841e-07
4.97809e-08
2.35144e-07
4.11075e-07
2.0806e-07
2.90118e-07
3.44532e-07
2.76122e-07
5.99404e-07
4.54687e-07
1.0546e-06
1.44259e-06
3.44233e-08
2.61595e-08
2.46907e-09
6.84767e-08
8.29252e-09
1.50051e-08
3.40927e-07
5.8818e-09
3.50298e-08
3.58991e-08
1.45576e-08
3.18231e-07
5.75596e-07
1.05222e-08
2.45346e-07
7.8646e-07
1.94636e-09