/*--------------------------------*- C++ -*----------------------------------*\
  =========                 |
  \\      /  F ield         | OpenFOAM: The Open Source CFD Toolbox
   \\    /   O peration     | Website:  https://openfoam.org
    \\  /    A nd           | Version:  10
     \\/     M anipulation  |
\*---------------------------------------------------------------------------*/
FoamFile
{
    format      ascii;
    class       volScalarField;
    location    "14";
    object      nut;
}
// * * * * * * * * * * * * * * * * * * * * * * * * * * * * * * * * * * * * * //

dimensions      [0 2 -1 0 0 0 0];

internalField   nonuniform List<scalar> 
25600
(
4.07933e-06
4.08111e-06
4.08169e-06
4.08256e-06
4.08374e-06
4.08228e-06
4.08513e-06
4.08245e-06
4.08515e-06
4.08544e-06
4.08209e-06
4.08459e-06
4.08318e-06
4.08215e-06
4.08308e-06
4.0781e-06
4.07914e-06
4.07668e-06
4.0777e-06
4.08083e-06
4.07621e-06
4.08059e-06
4.08012e-06
4.07994e-06
4.08458e-06
4.07503e-06
4.08724e-06
4.07613e-06
4.08355e-06
4.08411e-06
4.07827e-06
4.08363e-06
4.07979e-06
4.08289e-06
4.08195e-06
4.07972e-06
4.08268e-06
4.07981e-06
4.08107e-06
4.08344e-06
3.10838e-06
3.10818e-06
3.10895e-06
3.11124e-06
3.11391e-06
3.10797e-06
3.10978e-06
3.11001e-06
3.11366e-06
3.11471e-06
3.10977e-06
3.11182e-06
3.10936e-06
3.11196e-06
3.1144e-06
3.10808e-06
3.10979e-06
3.10546e-06
3.10745e-06
3.10994e-06
3.10159e-06
3.1077e-06
3.10538e-06
3.10701e-06
3.11207e-06
3.10202e-06
3.11449e-06
3.1031e-06
3.11239e-06
3.11458e-06
3.1067e-06
3.1107e-06
3.11053e-06
3.11167e-06
3.11088e-06
3.10926e-06
3.11254e-06
3.10882e-06
3.1099e-06
3.11478e-06
2.48484e-06
2.48803e-06
2.4859e-06
2.49177e-06
2.49373e-06
2.48568e-06
2.48933e-06
2.48855e-06
2.49717e-06
2.49247e-06
2.48695e-06
2.49179e-06
2.48376e-06
2.49387e-06
2.49319e-06
2.48815e-06
2.49231e-06
2.48382e-06
2.48999e-06
2.49046e-06
2.47939e-06
2.48621e-06
2.48706e-06
2.4884e-06
2.48919e-06
2.48642e-06
2.49412e-06
2.48217e-06
2.49836e-06
2.49341e-06
2.48658e-06
2.49282e-06
2.49005e-06
2.49276e-06
2.49127e-06
2.48628e-06
2.49447e-06
2.48577e-06
2.48964e-06
2.49515e-06
2.17877e-06
2.18435e-06
2.17784e-06
2.18931e-06
2.18842e-06
2.17983e-06
2.18446e-06
2.18307e-06
2.19662e-06
2.18389e-06
2.18256e-06
2.18862e-06
2.1758e-06
2.19469e-06
2.18668e-06
2.18385e-06
2.18779e-06
2.17599e-06
2.19011e-06
2.1832e-06
2.17176e-06
2.17939e-06
2.18466e-06
2.18221e-06
2.18325e-06
2.1855e-06
2.18522e-06
2.17882e-06
2.20046e-06
2.1857e-06
2.18498e-06
2.18831e-06
2.18431e-06
2.19326e-06
2.18609e-06
2.17989e-06
2.19369e-06
2.17933e-06
2.18857e-06
2.19058e-06
1.92139e-06
1.92607e-06
1.91575e-06
1.93584e-06
1.92897e-06
1.92152e-06
1.9248e-06
1.92511e-06
1.94353e-06
1.92067e-06
1.92799e-06
1.93021e-06
1.91435e-06
1.94389e-06
1.92608e-06
1.92899e-06
1.92807e-06
1.91711e-06
1.93926e-06
1.92094e-06
1.91145e-06
1.91963e-06
1.92939e-06
1.92185e-06
1.92666e-06
1.93118e-06
1.92101e-06
1.92564e-06
1.94877e-06
1.92463e-06
1.93367e-06
1.92692e-06
1.92644e-06
1.94269e-06
1.92492e-06
1.92286e-06
1.93993e-06
1.91926e-06
1.93738e-06
1.93131e-06
1.69791e-06
1.69426e-06
1.68427e-06
1.71416e-06
1.69902e-06
1.69476e-06
1.69229e-06
1.69956e-06
1.71972e-06
1.68662e-06
1.70736e-06
1.69792e-06
1.68369e-06
1.72277e-06
1.69493e-06
1.70725e-06
1.6952e-06
1.6918e-06
1.71821e-06
1.68767e-06
1.68234e-06
1.68927e-06
1.70528e-06
1.69064e-06
1.70404e-06
1.7051e-06
1.68447e-06
1.70677e-06
1.72415e-06
1.69675e-06
1.7157e-06
1.69048e-06
1.70228e-06
1.72211e-06
1.69217e-06
1.70046e-06
1.7144e-06
1.68947e-06
1.71853e-06
1.70111e-06
1.50601e-06
1.48257e-06
1.48125e-06
1.51793e-06
1.49758e-06
1.49584e-06
1.48203e-06
1.50375e-06
1.51937e-06
1.48146e-06
1.51608e-06
1.48532e-06
1.48158e-06
1.52575e-06
1.49284e-06
1.51439e-06
1.48451e-06
1.49809e-06
1.52053e-06
1.48344e-06
1.48017e-06
1.48378e-06
1.50867e-06
1.48511e-06
1.51429e-06
1.50084e-06
1.47381e-06
1.51854e-06
1.52027e-06
1.50291e-06
1.52425e-06
1.47423e-06
1.50969e-06
1.52431e-06
1.48717e-06
1.509e-06
1.5102e-06
1.48844e-06
1.52515e-06
1.49821e-06
1.34378e-06
1.28724e-06
1.30434e-06
1.34237e-06
1.32566e-06
1.32187e-06
1.29147e-06
1.33492e-06
1.33774e-06
1.30661e-06
1.34946e-06
1.28996e-06
1.30596e-06
1.34824e-06
1.32183e-06
1.34494e-06
1.29305e-06
1.33401e-06
1.34045e-06
1.3096e-06
1.29915e-06
1.30092e-06
1.33715e-06
1.30331e-06
1.3554e-06
1.31299e-06
1.28997e-06
1.35584e-06
1.33516e-06
1.34574e-06
1.35122e-06
1.27701e-06
1.34579e-06
1.34329e-06
1.3128e-06
1.34494e-06
1.32349e-06
1.31496e-06
1.35193e-06
1.32423e-06
1.20946e-06
1.10753e-06
1.15071e-06
1.18395e-06
1.1844e-06
1.16873e-06
1.12002e-06
1.19019e-06
1.17266e-06
1.16302e-06
1.20136e-06
1.11261e-06
1.15378e-06
1.18824e-06
1.1834e-06
1.19349e-06
1.12147e-06
1.19444e-06
1.17771e-06
1.16885e-06
1.13384e-06
1.14055e-06
1.18694e-06
1.1476e-06
1.22688e-06
1.13843e-06
1.13302e-06
1.20947e-06
1.17276e-06
1.22643e-06
1.18881e-06
1.10172e-06
1.20508e-06
1.17664e-06
1.17275e-06
1.20152e-06
1.15372e-06
1.16642e-06
1.19422e-06
1.18242e-06
1.10332e-06
9.4607e-07
1.01608e-06
1.04254e-06
1.07668e-06
1.03568e-06
9.68635e-07
1.06407e-06
1.02705e-06
1.05252e-06
1.06787e-06
9.54856e-07
1.02113e-06
1.04842e-06
1.07997e-06
1.05821e-06
9.70797e-07
1.07305e-06
1.03676e-06
1.0625e-06
9.81658e-07
1.00339e-06
1.05312e-06
1.01913e-06
1.12701e-06
9.79969e-07
1.00366e-06
1.06938e-06
1.03991e-06
1.14524e-06
1.03719e-06
9.49302e-07
1.07881e-06
1.0289e-06
1.06743e-06
1.07288e-06
1.00225e-06
1.03805e-06
1.04903e-06
1.07504e-06
1.03341e-06
8.10884e-07
8.94891e-07
9.23077e-07
1.0061e-06
9.29374e-07
8.40602e-07
9.51701e-07
9.06696e-07
9.76283e-07
9.53976e-07
8.20992e-07
9.05154e-07
9.35322e-07
1.0145e-06
9.46907e-07
8.41729e-07
9.64235e-07
9.25668e-07
9.9126e-07
8.497e-07
8.90808e-07
9.32799e-07
9.22621e-07
1.05285e-06
8.48704e-07
8.99446e-07
9.31081e-07
9.46493e-07
1.09956e-06
9.11003e-07
8.20433e-07
9.55703e-07
9.08238e-07
9.95879e-07
9.61059e-07
8.73696e-07
9.23138e-07
9.19223e-07
1.004e-06
1.01939e-06
7.23371e-07
7.84974e-07
8.36334e-07
9.78955e-07
8.70964e-07
7.46162e-07
8.54387e-07
8.24012e-07
9.37794e-07
8.79796e-07
7.22638e-07
8.08761e-07
8.62441e-07
9.88937e-07
8.7838e-07
7.37943e-07
8.67123e-07
8.57932e-07
9.551e-07
7.57975e-07
8.05742e-07
8.28976e-07
8.69015e-07
1.00514e-06
7.62952e-07
8.18462e-07
7.99775e-07
9.10596e-07
1.08592e-06
8.36934e-07
7.21271e-07
8.33133e-07
8.24454e-07
9.56859e-07
8.78842e-07
7.75578e-07
8.18952e-07
8.17327e-07
9.72912e-07
1.09329e-06
7.29253e-07
6.93952e-07
8.06575e-07
1.00086e-06
8.99807e-07
7.06539e-07
7.82519e-07
8.08304e-07
9.37402e-07
8.81976e-07
6.87145e-07
7.46021e-07
8.58088e-07
1.00395e-06
8.8488e-07
6.72313e-07
7.94894e-07
8.63717e-07
9.54991e-07
7.44701e-07
7.58127e-07
7.57449e-07
8.83457e-07
9.91364e-07
7.55123e-07
7.68124e-07
7.00977e-07
9.64007e-07
1.10749e-06
8.50757e-07
6.64994e-07
7.2553e-07
8.03215e-07
9.48632e-07
8.55862e-07
7.28159e-07
7.34923e-07
7.78238e-07
9.86347e-07
1.31451e-06
8.83037e-07
6.39872e-07
8.79375e-07
1.06836e-06
1.09043e-06
7.58629e-07
7.33908e-07
9.07002e-07
9.66837e-07
1.03114e-06
7.58913e-07
7.41222e-07
9.7228e-07
1.0586e-06
1.02455e-06
6.70037e-07
7.87338e-07
9.91019e-07
9.83974e-07
8.78184e-07
7.69511e-07
7.54006e-07
1.01187e-06
1.00595e-06
8.99937e-07
7.77779e-07
6.82693e-07
1.16205e-06
1.16312e-06
1.01792e-06
6.96995e-07
6.83893e-07
9.0835e-07
9.72608e-07
9.69496e-07
7.89002e-07
6.91238e-07
8.86801e-07
1.04857e-06
1.85688e-06
1.30446e-06
7.07433e-07
1.15051e-06
1.13191e-06
1.63488e-06
1.0888e-06
7.01293e-07
1.15275e-06
9.66517e-07
1.52352e-06
1.10708e-06
8.42668e-07
1.24334e-06
1.11683e-06
1.47416e-06
9.20579e-07
9.32186e-07
1.30962e-06
1.00837e-06
1.31753e-06
9.49796e-07
8.86351e-07
1.35484e-06
1.00821e-06
1.41402e-06
1.07944e-06
8.21016e-07
1.59115e-06
1.21721e-06
1.53542e-06
1.02167e-06
8.57836e-07
1.25489e-06
1.03053e-06
1.51246e-06
1.19493e-06
7.23445e-07
1.31558e-06
1.14516e-06
3.14953e-06
2.22742e-06
1.26035e-06
2.06038e-06
1.17325e-06
2.9181e-06
2.11155e-06
9.03124e-07
1.8526e-06
8.92196e-07
2.81808e-06
2.07788e-06
1.2046e-06
1.7844e-06
1.04057e-06
2.66607e-06
1.87615e-06
1.41288e-06
2.01481e-06
9.85722e-07
2.37946e-06
1.68013e-06
1.33189e-06
2.16666e-06
9.98549e-07
2.749e-06
2.1818e-06
1.27813e-06
2.54706e-06
1.19919e-06
2.84676e-06
2.03517e-06
1.50477e-06
2.15517e-06
1.09996e-06
3.10047e-06
2.28026e-06
1.05213e-06
2.59337e-06
1.27614e-06
6.12651e-06
3.50843e-06
3.49202e-06
5.01679e-06
2.97274e-06
5.66927e-06
3.73712e-06
2.96679e-06
4.57212e-06
2.02888e-06
5.53082e-06
3.37292e-06
2.82773e-06
4.05926e-06
1.80293e-06
5.19079e-06
3.17069e-06
3.29171e-06
4.6873e-06
1.75882e-06
4.81369e-06
2.78391e-06
2.91193e-06
4.26566e-06
2.10471e-06
5.45852e-06
3.64226e-06
3.08619e-06
5.25311e-06
2.35313e-06
5.7033e-06
3.50207e-06
3.77922e-06
4.68094e-06
2.20066e-06
6.07509e-06
3.74398e-06
3.56218e-06
5.94771e-06
2.78216e-06
1.20768e-05
6.12053e-06
8.84973e-06
1.07456e-05
9.2419e-06
1.12079e-05
6.37862e-06
8.16467e-06
9.61864e-06
6.92502e-06
1.03593e-05
5.28088e-06
7.49829e-06
9.40546e-06
7.03876e-06
1.03376e-05
5.54386e-06
8.54707e-06
1.02504e-05
6.60299e-06
1.03143e-05
4.2264e-06
7.3638e-06
8.66262e-06
7.26184e-06
1.03784e-05
5.17345e-06
8.20869e-06
1.02891e-05
8.03957e-06
1.12152e-05
5.61369e-06
9.13583e-06
9.45673e-06
7.67167e-06
1.08941e-05
6.56735e-06
9.49467e-06
1.15157e-05
9.06274e-06
1.8876e-05
1.19446e-05
1.60416e-05
1.81285e-05
1.87261e-05
1.78087e-05
1.15132e-05
1.47885e-05
1.54326e-05
1.55463e-05
1.63869e-05
1.05811e-05
1.43678e-05
1.66427e-05
1.63724e-05
1.76031e-05
1.18704e-05
1.5869e-05
1.68848e-05
1.57546e-05
1.72225e-05
8.81841e-06
1.42968e-05
1.51907e-05
1.63569e-05
1.64993e-05
1.04782e-05
1.55168e-05
1.66513e-05
1.75562e-05
1.76519e-05
1.10115e-05
1.59047e-05
1.5808e-05
1.69791e-05
1.7435e-05
1.29347e-05
1.68631e-05
1.8396e-05
1.92777e-05
2.34579e-05
1.93676e-05
2.36839e-05
2.64014e-05
2.67422e-05
2.24031e-05
1.85476e-05
2.13248e-05
2.29909e-05
2.40655e-05
2.17557e-05
1.8251e-05
2.23571e-05
2.50808e-05
2.55272e-05
2.37879e-05
2.00304e-05
2.33687e-05
2.45769e-05
2.47642e-05
2.19565e-05
1.64204e-05
2.23935e-05
2.35752e-05
2.52039e-05
2.16867e-05
1.88953e-05
2.31911e-05
2.47829e-05
2.61389e-05
2.23486e-05
1.87415e-05
2.2634e-05
2.38084e-05
2.57457e-05
2.37236e-05
2.07027e-05
2.43653e-05
2.68365e-05
2.80417e-05
2.762e-05
2.64105e-05
3.24115e-05
3.33695e-05
3.08052e-05
2.67024e-05
2.54812e-05
2.94067e-05
3.10024e-05
2.96197e-05
2.72455e-05
2.58983e-05
3.16834e-05
3.25061e-05
3.1331e-05
2.896e-05
2.7284e-05
3.19e-05
3.17691e-05
3.01256e-05
2.59983e-05
2.48584e-05
3.14135e-05
3.14321e-05
3.07932e-05
2.69607e-05
2.71157e-05
3.18579e-05
3.25429e-05
3.09015e-05
2.69004e-05
2.61459e-05
3.05305e-05
3.12065e-05
3.16303e-05
2.92988e-05
2.78453e-05
3.29976e-05
3.42632e-05
3.22325e-05
3.18813e-05
3.42358e-05
4.02963e-05
3.68568e-05
3.34388e-05
3.13713e-05
3.29579e-05
3.79639e-05
3.61002e-05
3.39239e-05
3.25422e-05
3.41658e-05
3.99952e-05
3.67052e-05
3.5262e-05
3.36031e-05
3.46976e-05
3.98845e-05
3.56622e-05
3.38046e-05
3.06634e-05
3.40123e-05
3.94157e-05
3.62711e-05
3.46703e-05
3.22496e-05
3.53457e-05
3.99824e-05
3.69038e-05
3.4138e-05
3.15374e-05
3.39101e-05
3.81371e-05
3.59137e-05
3.60284e-05
3.39221e-05
3.5437e-05
4.07032e-05
3.79576e-05
3.45032e-05
3.60792e-05
4.23344e-05
4.45468e-05
3.82904e-05
3.63918e-05
3.60214e-05
4.10138e-05
4.354e-05
3.88307e-05
3.8091e-05
3.74066e-05
4.23866e-05
4.46387e-05
3.88956e-05
3.8725e-05
3.7752e-05
4.23603e-05
4.42691e-05
3.75316e-05
3.75226e-05
3.56455e-05
4.27748e-05
4.40426e-05
3.89749e-05
3.81991e-05
3.71944e-05
4.32881e-05
4.464e-05
3.89252e-05
3.73941e-05
3.59778e-05
4.17463e-05
4.2814e-05
3.90526e-05
3.95122e-05
3.8137e-05
4.27728e-05
4.47586e-05
3.9261e-05
3.69589e-05
4.10606e-05
4.79683e-05
4.56329e-05
3.97538e-05
3.92587e-05
4.12979e-05
4.70642e-05
4.58538e-05
4.11271e-05
4.15811e-05
4.24822e-05
4.8131e-05
4.61253e-05
4.08555e-05
4.15645e-05
4.21235e-05
4.77987e-05
4.5362e-05
3.95841e-05
4.08191e-05
4.12023e-05
4.88722e-05
4.56332e-05
4.12318e-05
4.12025e-05
4.2304e-05
4.87632e-05
4.601e-05
4.06792e-05
4.01946e-05
4.10149e-05
4.73708e-05
4.48588e-05
4.17547e-05
4.20196e-05
4.25549e-05
4.76426e-05
4.5711e-05
4.03458e-05
3.92963e-05
4.55987e-05
5.04809e-05
4.55801e-05
4.1467e-05
4.20563e-05
4.59975e-05
5.01742e-05
4.66474e-05
4.33106e-05
4.44622e-05
4.6804e-05
5.08391e-05
4.63291e-05
4.27507e-05
4.38856e-05
4.59426e-05
5.02541e-05
4.53023e-05
4.18681e-05
4.37192e-05
4.611e-05
5.17821e-05
4.59162e-05
4.333e-05
4.37447e-05
4.66491e-05
5.11698e-05
4.60496e-05
4.24369e-05
4.27244e-05
4.56162e-05
5.02038e-05
4.57897e-05
4.39067e-05
4.40038e-05
4.62158e-05
4.97078e-05
4.54904e-05
4.159e-05
4.16162e-05
4.84662e-05
5.09538e-05
4.54956e-05
4.30744e-05
4.46079e-05
4.89767e-05
5.12024e-05
4.70388e-05
4.50595e-05
4.67813e-05
4.94268e-05
5.14814e-05
4.62796e-05
4.42849e-05
4.57336e-05
4.8299e-05
5.07161e-05
4.52939e-05
4.38797e-05
4.6215e-05
4.92605e-05
5.24559e-05
4.59483e-05
4.50266e-05
4.58041e-05
4.93187e-05
5.14964e-05
4.59558e-05
4.39087e-05
4.5067e-05
4.86582e-05
5.11384e-05
4.63472e-05
4.53553e-05
4.55912e-05
4.83626e-05
4.99528e-05
4.51732e-05
4.27437e-05
4.38844e-05
4.96719e-05
5.04658e-05
4.54759e-05
4.43753e-05
4.64315e-05
5.02862e-05
5.11271e-05
4.72146e-05
4.62654e-05
4.82725e-05
5.04268e-05
5.10579e-05
4.61393e-05
4.53497e-05
4.69e-05
4.92238e-05
5.02635e-05
4.54027e-05
4.5446e-05
4.79424e-05
5.06529e-05
5.19388e-05
4.59303e-05
4.62067e-05
4.7121e-05
5.03785e-05
5.08218e-05
4.59029e-05
4.50248e-05
4.68181e-05
5.01095e-05
5.10472e-05
4.65877e-05
4.61787e-05
4.65755e-05
4.91371e-05
4.93185e-05
4.492e-05
4.37015e-05
4.56104e-05
4.97079e-05
4.95066e-05
4.53643e-05
4.52171e-05
4.7332e-05
5.04235e-05
5.04393e-05
4.71098e-05
4.69139e-05
4.88162e-05
5.03005e-05
5.00903e-05
4.58458e-05
4.59035e-05
4.72908e-05
4.91595e-05
4.93919e-05
4.54214e-05
4.64664e-05
4.87108e-05
5.0768e-05
5.08182e-05
4.57883e-05
4.68309e-05
4.75897e-05
5.03089e-05
4.96936e-05
4.5761e-05
4.5739e-05
4.77218e-05
5.03887e-05
5.03391e-05
4.64659e-05
4.64707e-05
4.68624e-05
4.89764e-05
4.82645e-05
4.46225e-05
4.43665e-05
4.65039e-05
4.89878e-05
4.82344e-05
4.50409e-05
4.55193e-05
4.7403e-05
4.97955e-05
4.93217e-05
4.6685e-05
4.69978e-05
4.85395e-05
4.94689e-05
4.87895e-05
4.53381e-05
4.59354e-05
4.69975e-05
4.84646e-05
4.82286e-05
4.52102e-05
4.68599e-05
4.86117e-05
5.0049e-05
4.93583e-05
4.54366e-05
4.68901e-05
4.73192e-05
4.95207e-05
4.83003e-05
4.54133e-05
4.59731e-05
4.78109e-05
4.98614e-05
4.91945e-05
4.59927e-05
4.62807e-05
4.6528e-05
4.82101e-05
4.69426e-05
4.41708e-05
4.46229e-05
4.6602e-05
4.77613e-05
4.67262e-05
4.44331e-05
4.52842e-05
4.68247e-05
4.86437e-05
4.7883e-05
4.59325e-05
4.655e-05
4.76597e-05
4.81851e-05
4.72602e-05
4.45785e-05
4.54768e-05
4.61779e-05
4.73333e-05
4.68298e-05
4.46875e-05
4.66276e-05
4.78488e-05
4.87889e-05
4.76974e-05
4.48107e-05
4.64271e-05
4.6493e-05
4.82633e-05
4.67189e-05
4.47919e-05
4.56965e-05
4.72347e-05
4.87642e-05
4.77295e-05
4.51993e-05
4.56617e-05
4.57114e-05
4.70245e-05
4.54313e-05
4.34881e-05
4.44102e-05
4.60671e-05
4.62115e-05
4.50707e-05
4.35306e-05
4.45841e-05
4.57822e-05
4.71462e-05
4.62496e-05
4.48873e-05
4.56648e-05
4.63894e-05
4.66257e-05
4.56035e-05
4.35713e-05
4.46118e-05
4.49928e-05
4.58994e-05
4.52745e-05
4.38414e-05
4.58629e-05
4.66327e-05
4.72042e-05
4.59474e-05
4.39002e-05
4.55415e-05
4.52912e-05
4.67133e-05
4.50304e-05
4.38887e-05
4.4961e-05
4.61715e-05
4.72881e-05
4.60718e-05
4.41376e-05
4.46987e-05
4.45594e-05
4.55619e-05
4.38216e-05
4.25509e-05
4.37505e-05
4.50754e-05
4.42027e-05
4.31123e-05
4.21529e-05
4.32666e-05
4.41422e-05
4.5159e-05
4.42871e-05
4.33893e-05
4.42053e-05
4.46199e-05
4.46509e-05
4.36769e-05
4.21448e-05
4.31954e-05
4.33078e-05
4.39978e-05
4.34034e-05
4.24841e-05
4.442e-05
4.48558e-05
4.51732e-05
4.39527e-05
4.25244e-05
4.40913e-05
4.35973e-05
4.4729e-05
4.30728e-05
4.25122e-05
4.36106e-05
4.45058e-05
4.53105e-05
4.41064e-05
4.26539e-05
4.32404e-05
4.29317e-05
4.36802e-05
4.19616e-05
4.11566e-05
4.24617e-05
4.35009e-05
5.23086e-06
5.23371e-06
5.23271e-06
5.23267e-06
5.2341e-06
5.2334e-06
5.23686e-06
5.23236e-06
5.23479e-06
5.23453e-06
5.23254e-06
5.23685e-06
5.2336e-06
5.23154e-06
5.23191e-06
5.22746e-06
5.22988e-06
5.22727e-06
5.2271e-06
5.23092e-06
5.22818e-06
5.23154e-06
5.23183e-06
5.22814e-06
5.23564e-06
5.22458e-06
5.23859e-06
5.22526e-06
5.23137e-06
5.23277e-06
5.22763e-06
5.23444e-06
5.22975e-06
5.23198e-06
5.23203e-06
5.23053e-06
5.23493e-06
5.23109e-06
5.23167e-06
5.23435e-06
3.78835e-06
3.79019e-06
3.79e-06
3.79297e-06
3.79386e-06
3.78874e-06
3.79239e-06
3.79083e-06
3.79572e-06
3.79405e-06
3.79006e-06
3.79389e-06
3.78748e-06
3.79099e-06
3.79351e-06
3.79117e-06
3.796e-06
3.79131e-06
3.78801e-06
3.79336e-06
3.78476e-06
3.79272e-06
3.78756e-06
3.78731e-06
3.79133e-06
3.78311e-06
3.79862e-06
3.78192e-06
3.79012e-06
3.79265e-06
3.78506e-06
3.79233e-06
3.79095e-06
3.78887e-06
3.78887e-06
3.78987e-06
3.79486e-06
3.78721e-06
3.78942e-06
3.79553e-06
3.20674e-06
3.21192e-06
3.20722e-06
3.21414e-06
3.21373e-06
3.20885e-06
3.21328e-06
3.20874e-06
3.21903e-06
3.21202e-06
3.21078e-06
3.21642e-06
3.20208e-06
3.21312e-06
3.21239e-06
3.21231e-06
3.21952e-06
3.20959e-06
3.20974e-06
3.21395e-06
3.20637e-06
3.21141e-06
3.20931e-06
3.2073e-06
3.20866e-06
3.20852e-06
3.21752e-06
3.20017e-06
3.2141e-06
3.21111e-06
3.20783e-06
3.21425e-06
3.20929e-06
3.21083e-06
3.21048e-06
3.208e-06
3.21791e-06
3.20472e-06
3.20962e-06
3.2166e-06
2.81453e-06
2.82307e-06
2.81112e-06
2.82414e-06
2.82002e-06
2.81889e-06
2.82235e-06
2.81441e-06
2.83079e-06
2.81536e-06
2.82264e-06
2.82675e-06
2.80462e-06
2.82585e-06
2.81749e-06
2.82316e-06
2.8299e-06
2.81411e-06
2.82033e-06
2.82093e-06
2.81565e-06
2.81692e-06
2.82035e-06
2.81198e-06
2.81455e-06
2.82341e-06
2.82096e-06
2.80737e-06
2.82524e-06
2.81523e-06
2.82149e-06
2.82192e-06
2.81418e-06
2.82317e-06
2.81786e-06
2.8143e-06
2.83074e-06
2.80871e-06
2.8196e-06
2.82405e-06
2.47598e-06
2.48471e-06
2.46557e-06
2.48781e-06
2.47622e-06
2.48237e-06
2.48127e-06
2.4735e-06
2.4947e-06
2.46799e-06
2.49e-06
2.48559e-06
2.45945e-06
2.49175e-06
2.4725e-06
2.48953e-06
2.48941e-06
2.47099e-06
2.48355e-06
2.47895e-06
2.47697e-06
2.47352e-06
2.4847e-06
2.46477e-06
2.47445e-06
2.49111e-06
2.47264e-06
2.46985e-06
2.48614e-06
2.46996e-06
2.49017e-06
2.47758e-06
2.47165e-06
2.489e-06
2.47359e-06
2.47492e-06
2.49579e-06
2.46169e-06
2.48405e-06
2.48164e-06
2.18116e-06
2.18326e-06
2.16037e-06
2.193e-06
2.17093e-06
2.18879e-06
2.17651e-06
2.17554e-06
2.19703e-06
2.15985e-06
2.2015e-06
2.17977e-06
2.15842e-06
2.19704e-06
2.16669e-06
2.1998e-06
2.18445e-06
2.17209e-06
2.18584e-06
2.17684e-06
2.17872e-06
2.16902e-06
2.191e-06
2.15289e-06
2.17948e-06
2.19827e-06
2.16138e-06
2.17813e-06
2.18179e-06
2.16641e-06
2.20246e-06
2.16717e-06
2.17365e-06
2.19567e-06
2.1657e-06
2.17975e-06
2.19924e-06
2.15453e-06
2.19206e-06
2.17703e-06
1.92662e-06
1.91208e-06
1.89419e-06
1.93323e-06
1.89901e-06
1.93328e-06
1.90324e-06
1.91821e-06
1.9298e-06
1.88837e-06
1.95098e-06
1.90524e-06
1.89864e-06
1.93256e-06
1.8977e-06
1.94718e-06
1.91174e-06
1.91611e-06
1.91939e-06
1.91168e-06
1.91476e-06
1.90006e-06
1.93491e-06
1.8713e-06
1.92672e-06
1.93622e-06
1.88662e-06
1.92773e-06
1.90457e-06
1.90502e-06
1.95066e-06
1.8865e-06
1.91848e-06
1.9343e-06
1.89155e-06
1.92459e-06
1.93397e-06
1.88541e-06
1.93784e-06
1.90547e-06
1.70798e-06
1.66703e-06
1.66615e-06
1.70194e-06
1.65842e-06
1.70936e-06
1.65964e-06
1.69915e-06
1.68725e-06
1.65285e-06
1.73044e-06
1.66213e-06
1.67681e-06
1.69061e-06
1.66507e-06
1.72345e-06
1.67075e-06
1.70018e-06
1.67806e-06
1.68267e-06
1.67888e-06
1.6649e-06
1.71144e-06
1.61882e-06
1.71301e-06
1.69599e-06
1.65017e-06
1.7128e-06
1.64992e-06
1.68497e-06
1.72436e-06
1.63629e-06
1.70264e-06
1.69674e-06
1.6513e-06
1.70406e-06
1.69583e-06
1.65459e-06
1.71442e-06
1.664e-06
1.52001e-06
1.44717e-06
1.47554e-06
1.49276e-06
1.44947e-06
1.51022e-06
1.44475e-06
1.51466e-06
1.4667e-06
1.45196e-06
1.532e-06
1.45211e-06
1.48714e-06
1.46734e-06
1.46695e-06
1.52069e-06
1.46363e-06
1.51834e-06
1.45762e-06
1.48857e-06
1.46464e-06
1.46269e-06
1.51375e-06
1.39545e-06
1.53354e-06
1.47353e-06
1.45404e-06
1.52446e-06
1.41784e-06
1.50462e-06
1.513e-06
1.42041e-06
1.52099e-06
1.47767e-06
1.44564e-06
1.51152e-06
1.48381e-06
1.46164e-06
1.51522e-06
1.45095e-06
1.35787e-06
1.25614e-06
1.32137e-06
1.30249e-06
1.27024e-06
1.32968e-06
1.26064e-06
1.36155e-06
1.26731e-06
1.28132e-06
1.34965e-06
1.27858e-06
1.32251e-06
1.2641e-06
1.29913e-06
1.3337e-06
1.29364e-06
1.36457e-06
1.2596e-06
1.32564e-06
1.26787e-06
1.29426e-06
1.33797e-06
1.20092e-06
1.37785e-06
1.26904e-06
1.2972e-06
1.35403e-06
1.21297e-06
1.35799e-06
1.31076e-06
1.24221e-06
1.36468e-06
1.27851e-06
1.27383e-06
1.33858e-06
1.30018e-06
1.30571e-06
1.33607e-06
1.26468e-06
1.22019e-06
1.10313e-06
1.20193e-06
1.1332e-06
1.11835e-06
1.16534e-06
1.11076e-06
1.23733e-06
1.09571e-06
1.13549e-06
1.1839e-06
1.14507e-06
1.17775e-06
1.08449e-06
1.15402e-06
1.16552e-06
1.16296e-06
1.23256e-06
1.09177e-06
1.18685e-06
1.09129e-06
1.16205e-06
1.18267e-06
1.03619e-06
1.23271e-06
1.08976e-06
1.17722e-06
1.19956e-06
1.04108e-06
1.23223e-06
1.12031e-06
1.1012e-06
1.22571e-06
1.10538e-06
1.13155e-06
1.17968e-06
1.15038e-06
1.18798e-06
1.17706e-06
1.10255e-06
1.11647e-06
1.00599e-06
1.11822e-06
9.95821e-07
9.9178e-07
1.02639e-06
9.99155e-07
1.14416e-06
9.66437e-07
1.00765e-06
1.05048e-06
1.05635e-06
1.05267e-06
9.36124e-07
1.02146e-06
1.03233e-06
1.0736e-06
1.12284e-06
9.66198e-07
1.06206e-06
9.51088e-07
1.07038e-06
1.05274e-06
9.0134e-07
1.08639e-06
9.49395e-07
1.08845e-06
1.0695e-06
9.0427e-07
1.11094e-06
9.56366e-07
9.98492e-07
1.10343e-06
9.65768e-07
1.01016e-06
1.03862e-06
1.03984e-06
1.11331e-06
1.04804e-06
9.60634e-07
1.07804e-06
9.93874e-07
1.07815e-06
9.14083e-07
8.91138e-07
9.46609e-07
9.317e-07
1.09177e-06
9.04292e-07
8.95276e-07
9.86142e-07
1.02479e-06
9.56268e-07
8.33033e-07
8.87667e-07
9.66273e-07
1.03052e-06
1.04533e-06
8.99128e-07
9.41568e-07
8.8323e-07
1.02975e-06
9.59587e-07
7.99026e-07
9.30213e-07
8.7356e-07
1.0271e-06
9.77098e-07
8.086e-07
9.88047e-07
8.49116e-07
9.37036e-07
1.00706e-06
8.67288e-07
8.95723e-07
9.3474e-07
9.76416e-07
1.09388e-06
9.70104e-07
8.35374e-07
1.16796e-06
1.1044e-06
1.09554e-06
9.09501e-07
8.34878e-07
9.98427e-07
9.2553e-07
1.0947e-06
9.26357e-07
8.1862e-07
1.05131e-06
1.0746e-06
9.04538e-07
7.79065e-07
7.48384e-07
1.01872e-06
1.04497e-06
1.01406e-06
8.9655e-07
8.35541e-07
9.42375e-07
1.05602e-06
9.21253e-07
7.3169e-07
7.77834e-07
9.09299e-07
1.00263e-06
9.28797e-07
7.5191e-07
8.81136e-07
8.59036e-07
9.26817e-07
9.48394e-07
8.16016e-07
7.85773e-07
9.21241e-07
9.78333e-07
1.13999e-06
9.54941e-07
7.28925e-07
1.49846e-06
1.371e-06
1.17794e-06
9.33637e-07
8.79773e-07
1.30793e-06
1.03711e-06
1.14923e-06
9.68683e-07
8.43718e-07
1.35807e-06
1.26289e-06
9.06567e-07
7.24554e-07
6.40167e-07
1.29183e-06
1.1681e-06
1.03065e-06
8.77002e-07
8.04259e-07
1.21011e-06
1.16986e-06
9.5682e-07
6.46761e-07
6.90704e-07
1.16421e-06
1.08036e-06
9.08083e-07
6.60694e-07
8.43813e-07
1.12976e-06
1.01993e-06
9.31554e-07
7.82042e-07
7.35727e-07
1.17626e-06
1.1355e-06
1.22638e-06
9.21978e-07
6.49516e-07
2.33526e-06
1.89027e-06
1.34466e-06
8.6476e-07
1.14063e-06
2.13849e-06
1.49107e-06
1.25582e-06
9.06533e-07
1.0503e-06
2.17077e-06
1.75888e-06
9.61839e-07
6.06893e-07
6.94369e-07
2.06925e-06
1.61966e-06
1.05521e-06
6.63531e-07
9.18641e-07
1.89541e-06
1.50128e-06
1.08601e-06
5.26345e-07
8.11639e-07
1.94558e-06
1.51836e-06
9.13539e-07
5.15976e-07
1.01619e-06
1.96393e-06
1.4597e-06
1.02148e-06
7.25294e-07
9.56024e-07
2.13903e-06
1.73067e-06
1.29714e-06
7.43984e-07
7.11551e-07
4.02423e-06
2.75114e-06
1.80465e-06
1.17382e-06
1.94845e-06
3.77518e-06
2.43511e-06
1.74039e-06
1.26093e-06
1.59898e-06
3.83371e-06
2.61537e-06
1.36142e-06
1.00286e-06
1.11794e-06
3.73365e-06
2.51258e-06
1.29696e-06
1.07223e-06
1.3503e-06
3.29453e-06
2.18801e-06
1.48509e-06
1.29262e-06
1.43676e-06
3.62618e-06
2.43401e-06
1.39736e-06
1.31373e-06
1.77654e-06
3.61424e-06
2.42232e-06
1.67363e-06
1.18102e-06
1.79532e-06
4.13243e-06
2.85075e-06
1.59717e-06
1.34308e-06
1.37529e-06
6.49373e-06
3.5546e-06
3.08433e-06
2.94574e-06
4.34291e-06
6.03141e-06
3.41199e-06
3.26521e-06
2.76636e-06
3.43976e-06
6.1613e-06
3.25303e-06
2.87062e-06
2.43348e-06
2.98898e-06
6.05762e-06
3.2248e-06
2.84659e-06
2.97534e-06
3.24457e-06
5.3079e-06
2.88673e-06
2.84789e-06
2.75425e-06
3.57982e-06
5.92448e-06
3.3354e-06
3.0651e-06
3.01692e-06
4.20619e-06
5.86426e-06
3.43961e-06
3.39911e-06
2.74658e-06
4.01957e-06
6.61058e-06
3.80775e-06
2.93161e-06
3.40281e-06
3.76175e-06
9.15335e-06
4.9032e-06
5.27481e-06
6.58509e-06
9.62523e-06
8.3226e-06
4.93918e-06
5.47172e-06
5.50512e-06
8.06901e-06
8.22104e-06
4.23768e-06
5.20813e-06
5.53434e-06
8.06011e-06
8.30397e-06
4.58371e-06
5.6364e-06
6.29829e-06
8.21833e-06
7.60493e-06
4.34537e-06
5.194e-06
5.32187e-06
8.64127e-06
8.02627e-06
4.87866e-06
5.26539e-06
6.35018e-06
9.57566e-06
8.32927e-06
4.894e-06
5.73758e-06
6.06806e-06
8.98069e-06
8.48558e-06
4.79201e-06
5.21565e-06
7.00332e-06
9.61655e-06
1.15879e-05
9.8662e-06
8.56997e-06
1.3786e-05
1.70093e-05
1.07366e-05
9.68823e-06
7.94024e-06
1.2023e-05
1.52921e-05
9.88804e-06
9.07204e-06
8.44392e-06
1.2727e-05
1.61896e-05
1.09802e-05
1.01782e-05
9.55204e-06
1.35474e-05
1.59873e-05
1.04754e-05
9.29143e-06
8.67182e-06
1.2178e-05
1.61556e-05
1.03751e-05
9.73719e-06
7.94852e-06
1.40904e-05
1.71307e-05
1.13931e-05
9.26861e-06
8.86672e-06
1.3113e-05
1.64809e-05
1.03463e-05
9.33826e-06
8.59497e-06
1.49561e-05
1.8224e-05
1.63958e-05
1.7411e-05
1.60771e-05
2.3785e-05
2.34469e-05
1.6025e-05
1.69588e-05
1.45659e-05
2.26532e-05
2.21198e-05
1.4708e-05
1.67525e-05
1.62478e-05
2.33575e-05
2.41789e-05
1.68276e-05
1.82975e-05
1.78578e-05
2.41503e-05
2.32165e-05
1.59329e-05
1.69007e-05
1.62492e-05
2.26624e-05
2.31661e-05
1.60669e-05
1.6746e-05
1.57659e-05
2.51355e-05
2.3728e-05
1.69727e-05
1.59747e-05
1.62913e-05
2.32336e-05
2.3612e-05
1.57589e-05
1.69137e-05
1.69741e-05
2.6488e-05
2.52998e-05
2.48333e-05
2.62303e-05
2.73646e-05
3.28259e-05
2.84948e-05
2.46385e-05
2.56808e-05
2.64283e-05
3.30006e-05
2.73879e-05
2.35902e-05
2.62876e-05
2.79773e-05
3.34402e-05
3.04239e-05
2.56053e-05
2.76165e-05
2.97068e-05
3.34152e-05
2.86449e-05
2.41387e-05
2.62472e-05
2.74114e-05
3.2556e-05
2.87871e-05
2.47448e-05
2.53058e-05
2.82871e-05
3.4845e-05
2.87236e-05
2.48131e-05
2.45213e-05
2.77229e-05
3.29389e-05
2.93004e-05
2.44555e-05
2.63425e-05
2.9524e-05
3.64547e-05
2.95373e-05
3.3845e-05
3.63488e-05
3.77889e-05
3.95034e-05
3.43967e-05
3.38854e-05
3.59583e-05
3.81905e-05
4.03631e-05
3.33256e-05
3.35193e-05
3.71677e-05
3.87974e-05
4.10128e-05
3.63377e-05
3.44834e-05
3.80652e-05
3.99488e-05
3.95976e-05
3.43508e-05
3.3037e-05
3.68232e-05
3.792e-05
3.99431e-05
3.481e-05
3.36171e-05
3.58919e-05
3.9877e-05
4.11504e-05
3.43087e-05
3.29103e-05
3.51849e-05
3.86802e-05
4.03791e-05
3.50727e-05
3.3547e-05
3.72884e-05
4.0789e-05
4.25058e-05
3.40705e-05
4.26413e-05
4.57023e-05
4.53603e-05
4.51198e-05
4.09021e-05
4.29361e-05
4.56937e-05
4.67815e-05
4.56323e-05
4.01104e-05
4.32592e-05
4.68508e-05
4.65527e-05
4.6716e-05
4.20135e-05
4.2931e-05
4.7396e-05
4.65723e-05
4.4401e-05
4.04771e-05
4.21006e-05
4.63391e-05
4.56927e-05
4.56119e-05
4.10605e-05
4.23102e-05
4.60254e-05
4.78917e-05
4.55294e-05
4.03632e-05
4.1315e-05
4.54697e-05
4.68219e-05
4.60447e-05
4.08592e-05
4.25841e-05
4.71476e-05
4.8359e-05
4.62126e-05
3.95632e-05
5.05426e-05
5.22393e-05
5.0768e-05
5.00245e-05
4.67478e-05
5.08686e-05
5.26394e-05
5.23307e-05
4.98397e-05
4.64792e-05
5.15985e-05
5.34054e-05
5.16549e-05
5.09668e-05
4.68029e-05
5.04388e-05
5.35735e-05
5.06283e-05
4.86928e-05
4.61193e-05
5.02982e-05
5.29014e-05
5.10011e-05
5.00691e-05
4.65533e-05
5.02152e-05
5.32259e-05
5.27918e-05
4.91658e-05
4.59183e-05
4.93361e-05
5.29402e-05
5.22245e-05
5.02914e-05
4.60042e-05
5.071e-05
5.38195e-05
5.28391e-05
4.90495e-05
4.49144e-05
5.62316e-05
5.58287e-05
5.47489e-05
5.35329e-05
5.14101e-05
5.64718e-05
5.64657e-05
5.57686e-05
5.29096e-05
5.17501e-05
5.73265e-05
5.68056e-05
5.48969e-05
5.36218e-05
5.06419e-05
5.58566e-05
5.65466e-05
5.33891e-05
5.20128e-05
5.08884e-05
5.62073e-05
5.6392e-05
5.45173e-05
5.3113e-05
5.10025e-05
5.60394e-05
5.71229e-05
5.56837e-05
5.18685e-05
5.06779e-05
5.5381e-05
5.71994e-05
5.55075e-05
5.30146e-05
5.03572e-05
5.65722e-05
5.7202e-05
5.53657e-05
5.10941e-05
4.96564e-05
5.92725e-05
5.73371e-05
5.73483e-05
5.54131e-05
5.46385e-05
5.94463e-05
5.79516e-05
5.76455e-05
5.47513e-05
5.55143e-05
6.02176e-05
5.79514e-05
5.66621e-05
5.48379e-05
5.34372e-05
5.87673e-05
5.73139e-05
5.52187e-05
5.41052e-05
5.4399e-05
5.94105e-05
5.76425e-05
5.65664e-05
5.47708e-05
5.42208e-05
5.92938e-05
5.8525e-05
5.71758e-05
5.35124e-05
5.42821e-05
5.8834e-05
5.89476e-05
5.71093e-05
5.44267e-05
5.36436e-05
5.97507e-05
5.81823e-05
5.65653e-05
5.23174e-05
5.33291e-05
6.00978e-05
5.75615e-05
5.85145e-05
5.59472e-05
5.6402e-05
6.02588e-05
5.79561e-05
5.82472e-05
5.55278e-05
5.76322e-05
6.08162e-05
5.77217e-05
5.71713e-05
5.50042e-05
5.50543e-05
5.95508e-05
5.68356e-05
5.60823e-05
5.50702e-05
5.64325e-05
6.03449e-05
5.75146e-05
5.73431e-05
5.53211e-05
5.609e-05
6.03232e-05
5.83548e-05
5.75371e-05
5.42515e-05
5.64684e-05
6.00168e-05
5.90149e-05
5.73894e-05
5.4892e-05
5.56265e-05
6.06495e-05
5.76835e-05
5.67347e-05
5.28498e-05
5.56111e-05
5.94084e-05
5.69369e-05
5.84328e-05
5.5533e-05
5.68974e-05
5.95975e-05
5.70536e-05
5.78436e-05
5.54444e-05
5.82756e-05
5.9891e-05
5.66798e-05
5.67031e-05
5.44556e-05
5.55465e-05
5.88619e-05
5.5673e-05
5.6039e-05
5.51067e-05
5.70963e-05
5.97211e-05
5.65552e-05
5.70951e-05
5.50394e-05
5.67108e-05
5.97782e-05
5.72477e-05
5.7008e-05
5.42425e-05
5.72957e-05
5.95797e-05
5.80204e-05
5.67197e-05
5.46574e-05
5.63504e-05
5.99589e-05
5.63383e-05
5.61164e-05
5.2803e-05
5.65385e-05
5.78193e-05
5.56798e-05
5.74192e-05
5.44925e-05
5.64206e-05
5.80607e-05
5.55739e-05
5.67063e-05
5.46852e-05
5.77829e-05
5.81117e-05
5.51373e-05
5.55454e-05
5.34109e-05
5.51132e-05
5.72995e-05
5.40914e-05
5.52483e-05
5.4413e-05
5.66776e-05
5.81752e-05
5.50659e-05
5.60911e-05
5.41462e-05
5.63277e-05
5.82842e-05
5.55748e-05
5.583e-05