/*--------------------------------*- C++ -*----------------------------------*\
  =========                 |
  \\      /  F ield         | OpenFOAM: The Open Source CFD Toolbox
   \\    /   O peration     | Website:  https://openfoam.org
    \\  /    A nd           | Version:  10
     \\/     M anipulation  |
\*---------------------------------------------------------------------------*/
FoamFile
{
    format      ascii;
    class       volScalarField;
    location    "14";
    object      p;
}
// * * * * * * * * * * * * * * * * * * * * * * * * * * * * * * * * * * * * * //

dimensions      [0 2 -2 0 0 0 0];

internalField   nonuniform List<scalar> 
25600
(
-2.41751e-07
-2.03565e-07
-1.14407e-07
-9.44342e-08
-8.98897e-10
4.97237e-08
1.40752e-07
1.44852e-07
1.27925e-07
2.14164e-07
1.42587e-07
1.06809e-07
9.69086e-08
3.46859e-08
5.92859e-08
5.22244e-08
9.10905e-08
1.02014e-07
7.99655e-08
1.85523e-07
1.69366e-07
1.25115e-07
1.07805e-07
9.16394e-08
9.74477e-08
-2.92081e-08
3.74187e-09
-7.51164e-08
-1.49075e-07
-9.62707e-08
-2.20349e-07
-1.84026e-07
-2.33101e-07
-3.36002e-07
-2.1831e-07
-2.88591e-07
-3.28563e-07
-2.91097e-07
-3.13674e-07
-2.29855e-07
-3.07141e-07
-2.35484e-07
-1.28187e-07
-1.20037e-07
4.60407e-09
5.58683e-08
1.5054e-07
1.24959e-07
1.18168e-07
2.05322e-07
7.81958e-08
7.85751e-08
4.60222e-08
-2.73509e-08
4.2281e-08
2.62789e-08
1.12208e-07
1.09455e-07
1.05181e-07
2.74077e-07
2.56906e-07
1.73719e-07
1.85292e-07
2.09586e-07
1.40196e-07
4.09972e-08
9.518e-08
-5.60782e-08
-8.44118e-08
-5.93996e-08
-2.32417e-07
-1.48201e-07
-2.51684e-07
-3.87365e-07
-2.10203e-07
-3.41453e-07
-4.20058e-07
-3.42568e-07
-3.63826e-07
-2.81512e-07
-4.09875e-07
-2.58074e-07
-1.52133e-07
-1.42218e-07
3.15996e-08
5.86591e-08
1.97306e-07
1.05624e-07
1.4966e-07
2.37309e-07
-3.43062e-09
6.84393e-08
-2.38186e-08
-9.46362e-08
1.95778e-08
-2.00478e-08
1.4594e-07
8.34289e-08
1.37721e-07
4.02223e-07
3.31763e-07
2.08268e-07
2.90121e-07
3.48228e-07
1.56973e-07
1.16819e-07
1.93915e-07
-6.99978e-08
8.93965e-09
-3.94516e-08
-2.73315e-07
-8.11288e-08
-3.08881e-07
-4.39804e-07
-1.63369e-07
-4.47723e-07
-5.23441e-07
-4.05633e-07
-4.46821e-07
-3.33271e-07
-5.49686e-07
-2.54696e-07
-1.99122e-07
-1.48524e-07
7.75468e-08
7.43669e-08
2.82975e-07
8.3886e-08
2.47652e-07
2.83667e-07
-1.0082e-07
9.26235e-08
-1.24131e-07
-1.50989e-07
-2.17021e-08
-8.60736e-08
1.90662e-07
1.47636e-08
2.03012e-07
5.56334e-07
3.71809e-07
2.31419e-07
4.44021e-07
5.03055e-07
1.24713e-07
2.38635e-07
2.68061e-07
-1.04331e-07
1.70668e-07
-7.81219e-08
-3.15634e-07
3.02247e-08
-4.37947e-07
-4.55033e-07
-9.59535e-08
-6.36081e-07
-6.12737e-07
-4.81101e-07
-5.39866e-07
-4.01084e-07
-7.30621e-07
-2.20713e-07
-2.79995e-07
-1.19329e-07
1.13923e-07
1.00579e-07
4.01812e-07
6.25229e-08
4.27476e-07
2.8019e-07
-2.03478e-07
1.69944e-07
-2.51741e-07
-1.83855e-07
-1.22694e-07
-1.5479e-07
2.38106e-07
-9.03754e-08
3.41872e-07
7.02888e-07
3.67583e-07
2.69244e-07
6.87167e-07
6.19841e-07
4.1252e-08
4.32981e-07
2.82827e-07
-1.16914e-07
4.08496e-07
-2.16252e-07
-3.20103e-07
1.72092e-07
-6.31009e-07
-3.66634e-07
-5.67826e-08
-9.13341e-07
-6.55681e-07
-5.81895e-07
-6.2324e-07
-5.0488e-07
-9.26661e-07
-1.53019e-07
-3.92639e-07
-3.12178e-08
9.4677e-08
1.55494e-07
5.40954e-07
7.27587e-08
6.8723e-07
1.53167e-07
-2.76239e-07
2.83615e-07
-3.99087e-07
-2.01369e-07
-3.28857e-07
-1.9539e-07
2.72613e-07
-1.76315e-07
5.59677e-07
7.96251e-07
3.30441e-07
3.63213e-07
1.05291e-06
6.72055e-07
-7.37854e-08
7.08825e-07
1.9815e-07
-3.45149e-08
6.75405e-07
-5.03558e-07
-2.1953e-07
2.9605e-07
-8.54658e-07
-1.48139e-07
-1.34449e-07
-1.23391e-06
-6.30353e-07
-7.13822e-07
-7.01115e-07
-7.12864e-07
-1.08202e-06
-6.27698e-08
-4.87214e-07
1.21779e-07
-4.76498e-08
2.73609e-07
6.89946e-07
1.58059e-07
9.89555e-07
-1.17163e-07
-2.51453e-07
3.75227e-07
-5.39391e-07
-2.27987e-07
-7.07446e-07
-1.92677e-07
2.90305e-07
-1.71353e-07
7.98561e-07
7.67521e-07
3.00392e-07
5.07945e-07
1.57949e-06
5.90804e-07
-1.95272e-07
1.05503e-06
5.08684e-09
2.72252e-07
8.72939e-07
-9.31754e-07
4.96704e-08
3.22652e-07
-1.00839e-06
1.8287e-07
-3.70324e-07
-1.48632e-06
-5.44894e-07
-8.91074e-07
-7.92898e-07
-1.10847e-06
-1.15208e-06
1.07019e-08
-4.92689e-07
3.20268e-07
-3.38346e-07
4.95057e-07
8.43813e-07
3.69952e-07
1.26874e-06
-5.42217e-07
-9.18495e-08
4.28324e-07
-6.06521e-07
-3.41144e-07
-1.25957e-06
-1.2239e-07
2.33413e-07
-5.44335e-10
9.45991e-07
5.9159e-07
3.17906e-07
7.12781e-07
2.18261e-06
3.35599e-07
-2.60632e-07
1.39595e-06
-2.7204e-07
8.53926e-07
8.84539e-07
-1.39492e-06
4.88599e-07
2.16707e-07
-9.75556e-07
5.46694e-07
-8.31699e-07
-1.57949e-06
-4.6397e-07
-1.11143e-06
-8.72762e-07
-1.7006e-06
-1.12812e-06
8.57379e-08
-3.40943e-07
4.74912e-07
-7.64867e-07
8.21691e-07
9.80479e-07
7.26591e-07
1.39933e-06
-1.07952e-06
1.85004e-07
4.1979e-07
-5.34219e-07
-6.12215e-07
-1.93047e-06
-1.40377e-08
1.05274e-07
3.51645e-07
9.70581e-07
3.20294e-07
4.15393e-07
9.96088e-07
2.92295e-06
-8.13421e-08
-2.11348e-07
1.61894e-06
-5.36095e-07
1.69746e-06
6.27883e-07
-1.76151e-06
1.01426e-06
-5.51486e-08
-6.39739e-07
7.54563e-07
-1.44711e-06
-1.55991e-06
-4.83329e-07
-1.34077e-06
-1.02023e-06
-2.4828e-06
-1.09538e-06
1.26909e-07
2.08486e-08
5.24662e-07
-1.27753e-06
1.20117e-06
1.11645e-06
1.20713e-06
1.29845e-06
-1.63538e-06
5.3893e-07
3.53133e-07
-2.5106e-07
-1.09928e-06
-2.62946e-06
8.58836e-08
-1.80993e-08
8.84604e-07
6.92252e-07
9.1539e-09
5.85399e-07
1.39542e-06
3.83653e-06
-6.42638e-07
-6.71275e-08
1.60801e-06
-6.29782e-07
2.73707e-06
1.75757e-08
-1.95188e-06
1.50445e-06
-3.33873e-07
7.72686e-09
7.13593e-07
-2.43194e-06
-1.46941e-06
-6.41232e-07
-1.53613e-06
-1.26314e-06
-3.40943e-06
-1.12696e-06
1.93916e-07
6.26686e-07
3.99482e-07
-1.87615e-06
1.52632e-06
1.28947e-06
1.77347e-06
9.00226e-07
-2.16926e-06
8.8268e-07
3.14008e-07
3.24353e-07
-1.82245e-06
-3.28546e-06
9.89898e-08
-3.42678e-08
1.56499e-06
6.29046e-08
-3.11372e-07
7.39068e-07
1.9665e-06
4.90993e-06
-1.28597e-06
1.11682e-07
1.3154e-06
-4.60254e-07
3.84838e-06
-8.50417e-07
-2.03984e-06
1.7787e-06
-5.18341e-07
9.15139e-07
3.67256e-07
-3.16601e-06
-1.3697e-06
-9.14562e-07
-1.65563e-06
-1.61204e-06
-4.1061e-06
-1.30098e-06
3.76004e-07
1.34755e-06
6.81796e-08
-2.59268e-06
1.73583e-06
1.60933e-06
2.39796e-06
3.15319e-07
-2.71221e-06
1.12572e-06
4.1005e-07
7.87962e-07
-2.74242e-06
-3.80917e-06
-5.35776e-08
1.43539e-07
2.27899e-06
-8.78061e-07
-6.8806e-07
6.91126e-07
2.77053e-06
5.9794e-06
-1.95033e-06
2.23464e-07
7.84377e-07
3.19441e-08
4.91445e-06
-1.80303e-06
-2.22085e-06
1.66067e-06
-3.53117e-07
1.8697e-06
-2.05406e-07
-3.70468e-06
-1.38007e-06
-1.22727e-06
-1.67828e-06
-2.09443e-06
-5.04447e-06
-1.69664e-06
7.75524e-07
2.43342e-06
-4.51662e-07
-3.52284e-06
1.75279e-06
2.08915e-06
3.05752e-06
-4.36303e-07
-3.4181e-06
1.16967e-06
7.33091e-07
1.41932e-06
-3.7644e-06
-4.31104e-06
-3.40727e-07
5.45083e-07
2.84914e-06
-2.03964e-06
-1.18338e-06
4.421e-07
3.87617e-06
7.04369e-06
-2.60166e-06
6.60972e-08
1.26646e-07
8.32461e-07
5.95797e-06
-2.71238e-06
-2.96243e-06
1.20641e-06
1.53035e-07
2.78973e-06
-8.6159e-07
-4.16655e-06
-1.57969e-06
-1.51355e-06
-1.57172e-06
-2.73244e-06
-6.36544e-06
-2.36988e-06
1.30513e-06
3.76129e-06
-1.01505e-06
-4.76384e-06
1.52881e-06
2.68298e-06
3.75983e-06
-1.28104e-06
-4.56308e-06
9.77328e-07
1.29572e-06
2.20124e-06
-4.87036e-06
-4.98895e-06
-7.63596e-07
1.14434e-06
3.3315e-06
-3.3342e-06
-1.95315e-06
6.55354e-08
5.30104e-06
8.13712e-06
-3.23445e-06
-6.8363e-07
-4.93081e-07
1.86606e-06
7.08547e-06
-3.52736e-06
-4.1144e-06
5.38769e-07
8.58679e-07
3.68227e-06
-1.48471e-06
-4.64427e-06
-1.98038e-06
-1.77349e-06
-1.28585e-06
-3.39504e-06
-8.10771e-06
-3.35986e-06
1.96692e-06
5.33972e-06
-1.56057e-06
-6.30278e-06
1.02508e-06
3.32147e-06
4.59052e-06
-2.19679e-06
-6.40144e-06
6.54993e-07
2.09399e-06
3.15114e-06
-6.03768e-06
-5.91923e-06
-1.31242e-06
1.88636e-06
3.76883e-06
-4.85914e-06
-3.15873e-06
-3.92622e-07
7.00941e-06
9.39769e-06
-3.82765e-06
-1.99963e-06
-1.14865e-06
3.03956e-06
8.41693e-06
-4.30732e-06
-6.20777e-06
-2.81969e-07
1.86395e-06
4.67094e-06
-2.05044e-06
-5.49652e-06
-2.55929e-06
-2.10376e-06
-6.93314e-07
-4.07994e-06
-1.03371e-05
-4.77214e-06
2.66426e-06
7.72985e-06
-2.08435e-06
-7.84715e-06
1.20177e-07
3.86068e-06
5.70165e-06
-3.21359e-06
-9.13662e-06
2.33067e-07
3.01412e-06
4.30573e-06
-7.27932e-06
-7.2448e-06
-2.05034e-06
2.66594e-06
4.25732e-06
-6.69514e-06
-5.0992e-06
-9.73744e-07
8.75883e-06
1.09966e-05
-4.48764e-06
-4.16549e-06
-1.91041e-06
4.28268e-06
9.96734e-06
-5.13065e-06
-9.47077e-06
-1.3121e-06
2.93977e-06
5.86573e-06
-2.64706e-06
-6.86182e-06
-3.358e-06
-2.64243e-06
4.72167e-07
-4.84002e-06
-1.25527e-05
-6.85034e-06
3.24291e-06
1.02675e-05
-2.88732e-06
-1.16328e-05
-1.48257e-06
4.09054e-06
6.37885e-06
-4.40079e-06
-1.25663e-05
-4.67852e-07
3.84781e-06
5.73155e-06
-8.68156e-06
-9.47197e-06
-3.18219e-06
3.36008e-06
4.86407e-06
-8.94661e-06
-7.5257e-06
-1.84444e-06
1.08024e-05
1.26128e-05
-5.31005e-06
-6.45487e-06
-3.03822e-06
5.47392e-06
1.16444e-05
-6.11483e-06
-1.39989e-05
-2.79781e-06
3.80921e-06
7.06082e-06
-3.47995e-06
-8.7502e-06
-4.64364e-06
-3.58678e-06
1.91455e-06
-5.7575e-06
-1.54015e-05
-1.06983e-05
3.33568e-06
1.27485e-05
-4.1298e-06
-1.70311e-05
-4.70783e-06
3.50113e-06
7.1752e-06
-5.69138e-06
-1.46432e-05
-2.1245e-06
4.15551e-06
7.30874e-06
-1.02607e-05
-1.31123e-05
-5.28112e-06
3.53653e-06
5.3557e-06
-1.17431e-05
-1.37141e-05
-3.69602e-06
1.27931e-05
1.43311e-05
-6.42314e-06
-7.7267e-06
-5.21971e-06
6.20631e-06
1.36755e-05
-7.54294e-06
-1.92967e-05
-5.51741e-06
3.9356e-06
8.56143e-06
-5.02127e-06
-1.18478e-05
-7.13982e-06
-5.5261e-06
2.21702e-06
-7.41903e-06
-2.12732e-05
-1.77949e-05
3.13411e-06
1.55399e-05
-5.78532e-06
-2.04771e-05
-1.0879e-05
1.93316e-06
8.34682e-06
-6.80961e-06
-1.51627e-05
-6.3741e-06
3.69132e-06
9.23912e-06
-1.17639e-05
-1.59963e-05
-1.01081e-05
2.75101e-06
5.81614e-06
-1.47545e-05
-1.47871e-05
-7.82169e-06
1.44992e-05
1.64111e-05
-7.80042e-06
-9.89679e-06
-1.00667e-05
6.30698e-06
1.60436e-05
-9.47437e-06
-2.08766e-05
-1.0958e-05
3.17383e-06
1.01435e-05
-7.38498e-06
-1.33808e-05
-1.24654e-05
-8.57436e-06
2.92387e-06
-1.01056e-05
-2.68054e-05
-2.79902e-05
4.74043e-06
1.8405e-05
-6.71537e-06
-2.33528e-05
-1.99181e-05
1.32816e-06
1.06195e-05
-6.75825e-06
-1.58213e-05
-1.34717e-05
3.74082e-06
1.16077e-05
-1.2435e-05
-1.76923e-05
-1.80333e-05
2.23549e-06
6.31111e-06
-1.68244e-05
-1.47707e-05
-1.42456e-05
1.66095e-05
1.86751e-05
-8.59138e-06
-1.15765e-05
-1.77762e-05
7.46122e-06
1.8652e-05
-1.06484e-05
-2.20867e-05
-1.90575e-05
3.2084e-06
1.20494e-05
-9.55862e-06
-1.51201e-05
-2.08051e-05
-1.08854e-05
3.92308e-06
-1.26228e-05
-3.01932e-05
-3.68614e-05
4.3264e-06
2.16831e-05
-6.19097e-06
-2.68367e-05
-2.79127e-05
1.16751e-06
1.41253e-05
-5.62881e-06
-1.80432e-05
-2.03403e-05
4.33864e-06
1.45488e-05
-1.20808e-05
-2.01875e-05
-2.5879e-05
2.14441e-06
7.60327e-06
-1.73181e-05
-1.71435e-05
-2.02187e-05
1.81191e-05
2.1125e-05
-8.28902e-06
-1.4274e-05
-2.54013e-05
7.20465e-06
2.19926e-05
-1.00061e-05
-2.42867e-05
-2.64719e-05
4.26144e-06
1.49217e-05
-1.13154e-05
-1.81033e-05
-2.8746e-05
-1.11728e-05
5.58267e-06
-1.30406e-05
-3.34049e-05
-4.02119e-05
6.38994e-06
2.50832e-05
-6.71911e-06
-3.07608e-05
-3.08102e-05
3.78685e-06
1.80948e-05
-5.13906e-06
-2.13675e-05
-2.28003e-05
6.71682e-06
1.76814e-05
-1.21018e-05
-2.35312e-05
-2.87724e-05
4.08063e-06
9.73023e-06
-1.7795e-05
-2.02354e-05
-2.23407e-05
2.02701e-05
2.34052e-05
-8.00317e-06
-1.78895e-05
-2.83785e-05
9.80493e-06
2.61078e-05
-9.41514e-06
-2.73658e-05
-2.89636e-05
7.1635e-06
1.83157e-05
-8.3339e-06
-2.1554e-05
-3.15316e-05
-8.95465e-06
8.23047e-06
-1.23031e-05
-3.68846e-05
-3.8969e-05
9.54908e-06
2.7323e-05
-7.20792e-06
-3.27454e-05
-2.9287e-05
7.40121e-06
2.09111e-05
-5.1022e-06
-2.33816e-05
-2.14897e-05
9.76534e-06
2.01721e-05
-1.21362e-05
-2.55527e-05
-2.75636e-05
7.03643e-06
1.18143e-05
-1.77344e-05
-2.216e-05
-2.11717e-05
2.25305e-05
2.4959e-05
-7.67619e-06
-2.00695e-05
-2.72494e-05
1.31246e-05
3.02712e-05
-8.85777e-06
-2.89248e-05
-2.73277e-05
1.07708e-05
2.07205e-05
-6.47732e-06
-2.32528e-05
-3.01332e-05
-5.38059e-06
1.15099e-05
-1.11231e-05
-3.85671e-05
-3.55651e-05
1.228e-05
2.75547e-05
-8.22875e-06
-3.24037e-05
-2.59424e-05
1.04282e-05
2.17306e-05
-5.94849e-06
-2.34591e-05
-1.84687e-05
1.23126e-05
2.14036e-05
-1.27594e-05
-2.57027e-05
-2.46941e-05
9.89388e-06
1.24856e-05
-1.81105e-05
-2.21952e-05
-1.85676e-05
2.41876e-05
2.52806e-05
-8.06284e-06
-2.02886e-05
-2.43479e-05
1.59383e-05
3.32201e-05
-9.22232e-06
-2.84421e-05
-2.39625e-05
1.35925e-05
2.09983e-05
-5.84032e-06
-2.29193e-05
-2.69469e-05
-2.03643e-06
1.40915e-05
-1.07961e-05
-3.79768e-05
-3.19237e-05
1.38826e-05
2.57345e-05
-9.14601e-06
-3.08302e-05
-2.25085e-05
1.22937e-05
2.10331e-05
-6.82596e-06
-2.2498e-05
-1.53148e-05
1.38981e-05
2.00673e-05
-1.34715e-05
-2.47365e-05
-2.16957e-05
1.18798e-05
1.14847e-05
-1.84875e-05
-2.11443e-05
-1.59324e-05
2.49976e-05
2.47002e-05
-8.645e-06
-1.93881e-05
-2.12915e-05
1.77083e-05
3.09719e-05
-9.78775e-06
-2.68977e-05
-2.06379e-05
1.51609e-05
2.08973e-05
-5.66617e-06
-2.15639e-05
-2.36445e-05
2.25048e-07
1.2584e-05
-1.0894e-05
-3.61786e-05
-2.88642e-05
1.452e-05
2.34946e-05
-9.80386e-06
-2.92489e-05
-1.96695e-05
1.31659e-05
1.96229e-05
-7.48802e-06
-2.09961e-05
-1.27147e-05
1.46514e-05
1.83185e-05
-1.40825e-05
-2.39012e-05
-1.92254e-05
1.29207e-05
9.95374e-06
-1.87321e-05
-1.99467e-05
-1.37977e-05
2.51389e-05
2.34573e-05
-9.18616e-06
-1.84388e-05
-1.87334e-05
1.8568e-05
2.83485e-05
-1.02393e-05
-2.53951e-05
-1.80353e-05
1.57248e-05
1.98213e-05
-5.68005e-06
-2.06652e-05
-2.09932e-05
1.39249e-06
1.06651e-05
-1.10897e-05
-3.43606e-05
-2.66393e-05
1.46687e-05
2.14479e-05
-1.03487e-05
-2.80112e-05
-1.76023e-05
1.34259e-05
1.82511e-05
-8.10599e-06
-1.99308e-05
-1.08612e-05
1.50097e-05
1.66572e-05
-1.45688e-05
-2.3284e-05
-1.74661e-05
1.33637e-05
8.50405e-06
-1.88188e-05
-1.89915e-05
-1.22688e-05
2.5068e-05
2.21228e-05
-9.47416e-06
-1.77262e-05
-1.68509e-05
1.89312e-05
2.6016e-05
-1.07311e-05
-2.42035e-05
-1.62474e-05
1.55908e-05
1.85644e-05
-5.92965e-06
-2.00461e-05
-1.91807e-05
1.89175e-06
8.83315e-06
-1.14486e-05
-3.31622e-05
-2.51943e-05
1.46134e-05
1.97039e-05
-1.10861e-05
-2.73919e-05
-1.62427e-05
1.36334e-05
1.70965e-05
-8.79515e-06
-1.93978e-05
-9.69593e-06
1.50087e-05
1.52077e-05
-1.52157e-05
-2.30664e-05
-1.637e-05
1.28003e-05
7.25828e-06
-1.9205e-05
-1.84985e-05
-1.12726e-05
2.52266e-05
2.08739e-05
-9.95567e-06
-1.74348e-05
-1.56074e-05
1.9085e-05
2.41282e-05
-1.13399e-05
-2.36121e-05
-1.5121e-05
1.5603e-05
1.7407e-05
-6.45166e-06
-1.98908e-05
-1.81119e-05
1.94385e-06
7.24847e-06
-1.20549e-05
-3.27655e-05
-2.43695e-05
1.47218e-05
1.83327e-05
-1.20252e-05
-2.73718e-05
-1.54518e-05
1.39053e-05
1.61403e-05
-9.57623e-06
-1.93322e-05
-9.0602e-06
1.51122e-05
1.40529e-05
-1.60119e-05
-2.32333e-05
-1.58001e-05
1.28105e-05
6.19224e-06
-1.98012e-05
-1.84348e-05
-1.06902e-05
2.54339e-05
1.97806e-05
-1.06987e-05
-1.75473e-05
-1.48902e-05
1.92294e-05
2.26689e-05
-1.21742e-05
-2.35756e-05
-1.44681e-05
1.57133e-05
1.63092e-05
-7.16521e-06
-2.01538e-05
-1.76e-05
1.98196e-06
5.92888e-06
-1.295e-05
-3.29218e-05
-2.40151e-05
1.49985e-05
1.7261e-05
-1.31394e-05
-2.78301e-05
-1.51157e-05
1.4275e-05
1.54456e-05
-1.04366e-05
-1.96531e-05
-8.82318e-06
1.53206e-05
1.31349e-05
-1.69305e-05
-2.3719e-05
-1.56483e-05
1.29157e-05
5.35961e-06
-2.0616e-05
-1.87408e-05
-1.04366e-05
2.5729e-05
1.88546e-05
-1.15684e-05
-1.80064e-05
-1.45889e-05
1.94782e-05
2.16353e-05
-1.3169e-05
-2.39867e-05
-1.41684e-05
1.59707e-05
1.54523e-05
-8.03233e-06
-2.07315e-05
-1.74997e-05
2.08241e-06
4.88506e-06
-1.40462e-05
-3.35337e-05
-2.40651e-05
1.53784e-05
1.65219e-05
-1.43575e-05
-2.87013e-05
-1.51592e-05
1.46948e-05
1.50278e-05
-1.1328e-05
-2.0277e-05
-8.89318e-06
1.56176e-05
1.24982e-05
-1.79182e-05
-2.44537e-05
-1.58158e-05
1.3109e-05
4.70965e-06
-2.15848e-05
-1.93422e-05
-1.0456e-05
2.60967e-05
1.81654e-05
-1.2518e-05
-1.87197e-05
-1.46276e-05
1.97981e-05
2.08861e-05
-1.42373e-05
-2.469e-05
-1.41593e-05
1.63606e-05
1.48678e-05
-8.97793e-06
-2.1581e-05
-1.77072e-05
2.18535e-06
4.06654e-06
-1.5247e-05
-3.45091e-05
-2.43618e-05
1.58026e-05
1.60845e-05
-1.55267e-05
-2.9772e-05
-1.544e-05
1.51205e-05
1.48488e-05
-1.21595e-05
-2.10225e-05
-9.13266e-06
1.59708e-05
1.21321e-05
-1.88591e-05
-2.52898e-05
-1.61603e-05
1.33677e-05
4.21064e-06
-2.25764e-05
-2.00098e-05
-1.06463e-05
2.64856e-05
1.77174e-05
-1.34278e-05
-1.95147e-05
-1.48716e-05
2.01925e-05
2.04468e-05
-1.52485e-05
-2.55676e-05
-1.43333e-05
1.6826e-05
1.45416e-05
-9.86646e-06
-2.25171e-05
-1.80643e-05
2.34988e-06
3.45745e-06
-1.63933e-05
-3.56292e-05
-2.5196e-07
-2.10256e-07
-1.10441e-07
-8.65396e-08
-1.12416e-08
2.5063e-08
1.29764e-07
1.52871e-07
1.34904e-07
2.05093e-07
1.33181e-07
1.19017e-07
1.21119e-07
5.20981e-08
5.88404e-08
4.59041e-08
9.29309e-08
1.2148e-07
1.02773e-07
1.85061e-07
1.63788e-07
1.43139e-07
1.37222e-07
9.58324e-08
8.92165e-08
-3.73658e-08
9.36619e-09
-4.60866e-08
-1.40796e-07
-1.06748e-07
-2.26432e-07
-1.6155e-07
-1.99919e-07
-3.00159e-07
-2.12285e-07
-2.90376e-07
-3.24183e-07
-2.55552e-07
-2.85573e-07
-2.29154e-07
-3.11964e-07
-2.42111e-07
-1.22822e-07
-1.04154e-07
-6.05282e-09
2.35347e-08
1.46268e-07
1.33409e-07
1.12957e-07
1.83951e-07
6.25634e-08
1.04136e-07
6.61735e-08
-2.04578e-08
3.56108e-08
1.01471e-08
1.10784e-07
1.30522e-07
1.19316e-07
2.61756e-07
2.56638e-07
2.11681e-07
2.1715e-07
2.09356e-07
1.29244e-07
3.35079e-08
1.03866e-07
-2.53134e-08
-8.55053e-08
-8.57857e-08
-2.30222e-07
-1.15132e-07
-2.22702e-07
-3.70733e-07
-2.07873e-07
-3.47885e-07
-4.22377e-07
-3.1035e-07
-3.44351e-07
-2.81443e-07
-4.12395e-07
-2.62123e-07
-1.39481e-07
-1.25885e-07
1.23293e-08
3.60094e-08
2.04693e-07
1.06531e-07
1.32723e-07
1.9252e-07
-1.77723e-08
1.26924e-07
-1.99184e-08
-1.07298e-07
1.70675e-10
-4.97118e-08
1.45855e-07
1.07947e-07
1.41732e-07
3.66806e-07
3.47747e-07
2.81247e-07
3.08909e-07
3.29196e-07
1.37248e-07
1.09441e-07
2.09531e-07
-4.33005e-08
-2.01605e-08
-7.66735e-08
-2.40771e-07
-3.17192e-08
-3.08117e-07
-4.41962e-07
-1.6619e-07
-4.57422e-07
-5.28535e-07
-3.76555e-07
-4.40608e-07
-3.38955e-07
-5.32018e-07
-2.53775e-07
-1.78126e-07
-1.36647e-07
4.78542e-08
7.14644e-08
3.06289e-07
5.79922e-08
2.00386e-07
2.02411e-07
-8.65851e-08
1.90938e-07
-1.66692e-07
-1.93242e-07
-5.59873e-08
-1.1773e-07
1.96925e-07
2.02769e-08
1.74323e-07
5.00707e-07
4.35897e-07
3.45279e-07
4.22454e-07
4.31383e-07
9.77605e-08
2.36255e-07
3.06507e-07
-1.02857e-07
6.80286e-08
-1.09199e-07
-2.10924e-07
8.93865e-08
-4.77899e-07
-4.71818e-07
-8.27943e-08
-6.34632e-07
-6.15677e-07
-4.69078e-07
-5.59072e-07
-4.03716e-07
-6.54784e-07
-2.18386e-07
-2.65746e-07
-1.09096e-07
1.01387e-07
1.49399e-07
4.32645e-07
-1.91544e-08
3.57779e-07
2.01528e-07
-1.04076e-07
2.59375e-07
-4.01623e-07
-2.44694e-07
-1.56843e-07
-1.64487e-07
2.41822e-07
-1.48597e-07
2.49125e-07
6.66924e-07
5.27552e-07
3.88477e-07
5.632e-07
5.19094e-07
2.66188e-08
4.50983e-07
3.18034e-07
-1.96613e-07
2.24327e-07
-2.13444e-07
-1.02454e-07
2.08242e-07
-7.5524e-07
-4.10773e-07
1.56465e-08
-8.7553e-07
-6.70722e-07
-6.35483e-07
-6.97578e-07
-4.5883e-07
-7.63474e-07
-1.7663e-07
-4.22265e-07
-1.94933e-08
1.6779e-07
3.08995e-07
5.42581e-07
-1.21335e-07
5.96366e-07
1.6554e-07
-1.32218e-08
2.9681e-07
-7.00922e-07
-2.35119e-07
-3.07055e-07
-1.4913e-07
2.3435e-07
-3.99305e-07
3.95194e-07
8.4503e-07
6.35942e-07
3.87883e-07
7.25207e-07
5.255e-07
-4.17816e-08
7.68812e-07
1.74547e-07
-2.77982e-07
4.08966e-07
-3.84998e-07
1.60982e-07
2.44636e-07
-1.12308e-06
-1.71654e-07
8.78372e-08
-1.15951e-06
-7.04786e-07
-9.3741e-07
-8.2016e-07
-5.02956e-07
-8.24638e-07
-1.75497e-07
-6.61013e-07
1.61878e-07
2.62007e-07
5.53836e-07
5.89368e-07
-2.0027e-07
9.1712e-07
9.49461e-08
2.14616e-07
2.57903e-07
-1.00254e-06
-1.79685e-07
-4.84195e-07
-6.56698e-08
4.95241e-08
-6.75498e-07
6.30088e-07
1.04544e-06
7.73517e-07
3.57226e-07
9.01297e-07
4.64346e-07
1.11165e-08
1.15474e-06
-1.8123e-07
-2.63316e-07
5.78915e-07
-5.96827e-07
5.88865e-07
8.41e-08
-1.51364e-06
2.49424e-07
3.99229e-08
-1.427e-06
-7.7116e-07
-1.39443e-06
-8.78586e-07
-5.41167e-07
-8.41052e-07
-2.81364e-07
-9.33275e-07
4.42374e-07
3.82082e-07
8.65304e-07
5.17379e-07
-2.03352e-07
1.26472e-06
4.96497e-08
5.72558e-07
5.60462e-08
-1.2194e-06
-7.35209e-08
-6.3995e-07
7.23293e-08
-3.45303e-07
-8.7159e-07
9.28036e-07
1.30371e-06
9.4928e-07
2.79483e-07
1.08832e-06
3.28576e-07
2.82222e-07
1.5182e-06
-7.34052e-07
-7.56677e-08
6.6516e-07
-6.9377e-07
1.14804e-06
-3.66836e-07
-1.78262e-06
7.78339e-07
-7.28144e-08
-1.58233e-06
-9.43139e-07
-1.98791e-06
-8.79094e-07
-5.89912e-07
-8.15199e-07
-5.98783e-07
-1.16553e-06
8.00049e-07
5.39684e-07
1.22169e-06
2.91682e-07
-9.35619e-08
1.61317e-06
1.16497e-07
1.00371e-06
-3.30293e-07
-1.29615e-06
-3.62267e-08
-6.86155e-07
2.49746e-07
-9.4021e-07
-9.99518e-07
1.13548e-06
1.66084e-06
1.1464e-06
1.57542e-07
1.20719e-06
6.53741e-08
8.22924e-07
1.79062e-06
-1.39765e-06
2.88821e-07
5.48762e-07
-5.75152e-07
1.7232e-06
-1.09698e-06
-1.82094e-06
1.30669e-06
-2.00274e-07
-1.55678e-06
-1.31985e-06
-2.63748e-06
-7.86746e-07
-6.44586e-07
-7.47808e-07
-1.13584e-06
-1.28181e-06
1.20659e-06
7.56952e-07
1.64229e-06
-6.65287e-08
1.58614e-07
1.89809e-06
3.62708e-07
1.40987e-06
-8.44688e-07
-1.1793e-06
-8.84708e-08
-5.33433e-07
3.86855e-07
-1.69476e-06
-9.94235e-07
1.21995e-06
2.21027e-06
1.33223e-06
2.35254e-08
1.34208e-06
-2.32508e-07
1.64069e-06
1.84104e-06
-2.08815e-06
7.75462e-07
2.78694e-07
-1.2763e-07
2.1759e-06
-1.9878e-06
-1.62261e-06
1.82649e-06
-2.22625e-07
-1.38792e-06
-1.96237e-06
-3.25715e-06
-6.20628e-07
-6.77098e-07
-6.94129e-07
-1.87838e-06
-1.24317e-06
1.63601e-06
1.11255e-06
2.10124e-06
-5.07741e-07
5.3714e-07
2.09483e-06
7.68579e-07
1.7675e-06
-1.36759e-06
-9.14542e-07
-2.40598e-07
-1.46239e-07
3.8984e-07
-2.46596e-06
-9.1348e-07
1.18393e-06
3.02316e-06
1.48677e-06
-6.89891e-08
1.49791e-06
-4.51133e-07
2.73392e-06
1.6204e-06
-2.62248e-06
1.30378e-06
-1.25157e-08
7.38187e-07
2.38669e-06
-2.93319e-06
-1.25773e-06
2.12929e-06
2.00542e-07
-1.20363e-06
-2.90447e-06
-3.78147e-06
-3.95753e-07
-6.28337e-07
-7.58593e-07
-2.76195e-06
-1.05134e-06
2.08277e-06
1.68832e-06
2.5279e-06
-9.85016e-07
1.00631e-06
2.19477e-06
1.49134e-06
2.04681e-06
-1.78908e-06
-5.77676e-07
-4.45399e-07
4.13219e-07
1.61577e-07
-3.12774e-06
-8.12566e-07
1.0904e-06
4.09426e-06
1.39887e-06
-7.64309e-08
1.98129e-06
-4.70119e-07
4.04156e-06
1.18466e-06
-2.99503e-06
1.77687e-06
-1.37437e-07
2.14551e-06
2.35012e-06
-3.6855e-06
-8.20079e-07
2.40912e-06
8.76751e-07
-1.12168e-06
-4.08945e-06
-4.18719e-06
-1.0009e-07
-4.36024e-07
-1.02213e-06
-3.70918e-06
-7.06462e-07
2.6161e-06
2.54312e-06
2.86306e-06
-1.45298e-06
1.39364e-06
2.33434e-06
2.75354e-06
2.19363e-06
-2.03127e-06
-2.40641e-07
-5.86806e-07
1.01596e-06
-3.38939e-07
-3.63262e-06
-7.93424e-07
1.07419e-06
5.33597e-06
1.32883e-06
1.58831e-08
2.5644e-06
-2.1146e-07
5.51568e-06
6.2327e-07
-3.25776e-06
2.16892e-06
4.84451e-08
3.98245e-06
2.09638e-06
-4.20831e-06
-3.79492e-07
2.84069e-06
1.85688e-06
-1.25501e-06
-5.43531e-06
-4.46894e-06
3.17748e-07
-4.0258e-08
-1.57027e-06
-4.68524e-06
-2.1518e-07
3.39415e-06
3.70785e-06
3.04176e-06
-1.89702e-06
1.68752e-06
2.59919e-06
3.88082e-06
2.25307e-06
-2.084e-06
7.18424e-08
-4.9431e-07
1.58157e-06
-1.06618e-06
-4.01029e-06
-8.67592e-07
1.28074e-06
6.57569e-06
1.20467e-06
1.79614e-07
2.95556e-06
3.58495e-07
7.24114e-06
-3.22223e-08
-3.48418e-06
2.53227e-06
6.66067e-07
5.82547e-06
1.69428e-06
-4.4725e-06
6.65123e-08
3.61176e-06
3.05209e-06
-1.66221e-06
-6.8803e-06
-4.62686e-06
9.54389e-07
5.20205e-07
-2.52243e-06
-5.71369e-06
5.12467e-07
4.44213e-06
5.14151e-06
2.99486e-06
-2.36362e-06
1.91e-06
3.1071e-06
4.99131e-06
2.23894e-06
-1.97219e-06
4.26571e-07
-7.0133e-08
1.9908e-06
-1.98658e-06
-4.29853e-06
-9.80078e-07
1.83425e-06
7.64635e-06
1.05835e-06
4.08444e-07
3.13072e-06
1.21051e-06
9.06594e-06
-7.35249e-07
-3.73932e-06
3.05461e-06
1.83116e-06
7.82467e-06
1.11987e-06
-4.76893e-06
5.98289e-07
4.8452e-06
4.31255e-06
-2.35261e-06
-8.37265e-06
-4.64085e-06
1.94164e-06
1.06768e-06
-3.98468e-06
-6.83859e-06
1.64732e-06
6.01567e-06
6.74276e-06
2.64604e-06
-2.89105e-06
2.13713e-06
3.99063e-06
6.06806e-06
2.12546e-06
-1.68401e-06
9.34222e-07
7.40308e-07
2.11979e-06
-3.12133e-06
-4.48967e-06
-9.92798e-07
2.62403e-06
8.56912e-06
8.81922e-07
8.99976e-07
3.50081e-06
2.42918e-06
1.12018e-05
-1.54388e-06
-4.05846e-06
3.89063e-06
3.57145e-06
1.00481e-05
3.01951e-07
-5.02862e-06
1.41407e-06
6.6502e-06
5.21962e-06
-3.37893e-06
-9.84493e-06
-4.51925e-06
3.40997e-06
1.18188e-06
-6.0738e-06
-8.03022e-06
3.04859e-06
8.45367e-06
8.02492e-06
1.87508e-06
-3.31606e-06
2.40911e-06
5.47665e-06
6.96815e-06
1.76734e-06
-1.07468e-06
1.70319e-06
2.07089e-06
2.31056e-06
-4.60974e-06
-4.4581e-06
-9.10512e-07
3.96646e-06
9.39112e-06
5.45706e-07
1.33551e-06
4.62366e-06
4.14195e-06
1.27104e-05
-2.62786e-06
-4.0902e-06
5.34369e-06
6.00012e-06
1.21309e-05
-8.42519e-07
-5.11234e-06
2.83564e-06
9.28839e-06
5.58336e-06
-4.82158e-06
-1.10932e-05
-4.26115e-06
5.5033e-06
1.26247e-07
-9.4454e-06
-9.67765e-06
5.56226e-06
1.22193e-05
8.58552e-06
1.42569e-07
-3.91455e-06
2.91901e-06
8.2371e-06
7.376e-06
7.92585e-07
-3.4387e-07
3.1219e-06
4.42145e-06
2.86988e-06
-6.78712e-06
-4.28354e-06
-2.6211e-07
6.3829e-06
1.12458e-05
-2.11756e-07
2.19786e-06
6.26388e-06
6.73733e-06
1.19315e-05
-4.37742e-06
-4.10648e-06
7.38806e-06
9.70306e-06
1.3543e-05
-2.79153e-06
-5.51018e-06
4.81439e-06
1.3336e-05
5.02052e-06
-7.46686e-06
-1.2354e-05
-1.75831e-06
8.94923e-06
5.49229e-07
-1.49602e-05
-1.18737e-05
9.32514e-06
1.78669e-05
8.50701e-06
-3.18688e-06
-4.81678e-06
4.47319e-06
1.30948e-05
7.29891e-06
-1.40788e-06
4.2748e-07
5.58773e-06
8.33558e-06
1.64831e-06
-1.02511e-05
-3.98453e-06
1.61145e-06
1.05243e-05
1.13018e-05
-1.87436e-06
3.05159e-06
8.71403e-06
1.0878e-05
1.04311e-05
-7.3671e-06
-4.22385e-06
1.07718e-05
1.54789e-05
1.09224e-05
-6.26261e-06
-6.34362e-06
8.34315e-06
1.93449e-05
3.86117e-06
-1.20116e-05
-1.37068e-05
2.59556e-06
1.43377e-05
-2.66841e-06
-2.22766e-05
-1.33634e-05
1.52983e-05
2.53485e-05
5.96936e-06
-7.98838e-06
-5.25114e-06
8.4322e-06
2.01948e-05
5.52319e-06
-4.81534e-06
2.00025e-06
9.9965e-06
1.38829e-05
-1.62599e-06
-1.48382e-05
-2.6559e-06
5.84948e-06
1.6618e-05
9.06163e-06
-4.39946e-06
4.39821e-06
1.27754e-05
1.707e-05
7.16516e-06
-1.14943e-05
-3.88897e-06
1.67145e-05
2.24301e-05
6.43098e-06
-1.12816e-05
-6.85103e-06
1.44358e-05
2.76206e-05
1.06743e-07
-1.80772e-05
-1.33759e-05
9.95053e-06
2.10645e-05
-8.11296e-06
-2.77316e-05
-1.00526e-05
2.30226e-05
3.15894e-05
3.38866e-07
-1.18528e-05
-4.78482e-06
1.4853e-05
2.60044e-05
1.07086e-06
-7.21174e-06
4.75882e-06
1.60316e-05
1.79188e-05
-6.9354e-06
-1.82576e-05
-7.24316e-07
1.21813e-05
2.11996e-05
4.67043e-06
-6.26191e-06
5.81898e-06
1.82076e-05
2.21339e-05
1.69538e-06
-1.49631e-05
-3.41703e-06
2.47431e-05
2.85939e-05
-4.73997e-07
-1.5781e-05
-4.52257e-06
2.26065e-05
3.52182e-05
-6.25705e-06
-2.24928e-05
-1.09323e-05
1.94341e-05
2.6702e-05
-1.68531e-05
-2.99289e-05
-4.78658e-06
2.8625e-05
3.28943e-05
-5.83754e-06
-1.34426e-05
-1.43797e-06
1.99355e-05
2.74478e-05
-3.83559e-06
-7.69644e-06
9.54358e-06
2.01703e-05
1.84836e-05
-1.248e-05
-1.96882e-05
3.18051e-06
1.65262e-05
2.17695e-05
7.16595e-08
-6.70038e-06
9.38192e-06
2.20538e-05
2.34784e-05
-3.99943e-06
-1.67869e-05
-1.10774e-07
3.07636e-05
2.94308e-05
-7.22508e-06
-1.81625e-05
-3.9968e-07
2.89414e-05
3.40533e-05
-1.25198e-05
-2.42486e-05
-5.97835e-06
2.62769e-05
2.7672e-05
-2.52438e-05
-2.96151e-05
-1.10818e-06
3.02607e-05
2.95522e-05
-9.77468e-06
-1.30375e-05
1.47989e-06
2.17198e-05
2.4057e-05
-6.76544e-06
-7.09965e-06
1.30365e-05
2.13268e-05
1.59011e-05
-1.61469e-05
-1.97438e-05
6.05477e-06
1.7425e-05
1.82762e-05
-2.79504e-06
-6.03398e-06
1.19921e-05
2.31208e-05
2.06813e-05
-7.75602e-06
-1.72174e-05
2.59733e-06
3.30422e-05
2.59214e-05
-1.15096e-05
-1.85262e-05
2.8349e-06
3.19019e-05
3.03631e-05
-1.64099e-05
-2.39917e-05
-2.14444e-06
2.88701e-05
2.37458e-05
-3.05069e-05
-2.7626e-05
2.78479e-07
2.91082e-05
2.62074e-05
-1.11994e-05
-1.11618e-05
2.82002e-06
2.12569e-05
2.08036e-05
-7.554e-06
-3.72958e-06
1.45637e-05
2.06486e-05
1.35158e-05
-1.77239e-05
-1.81847e-05
7.1499e-06
1.61928e-05
1.50701e-05
-3.77192e-06
-4.51324e-06
1.29521e-05
2.23801e-05
1.7973e-05
-9.40054e-06
-1.60908e-05
3.64569e-06
3.2662e-05
2.22332e-05
-1.32673e-05
-1.71572e-05
4.18701e-06
3.26994e-05
2.73594e-05
-1.78895e-05
-2.2249e-05
-4.45752e-07
2.85354e-05
1.97517e-05
-3.25424e-05
-2.57484e-05
8.33893e-08
2.717e-05
2.42138e-05
-1.0959e-05
-9.39615e-06
2.93245e-06
2.02498e-05
1.88451e-05
-7.16661e-06
-1.33465e-06
1.47498e-05
1.96182e-05
1.2142e-05
-1.78296e-05
-1.67778e-05
6.96851e-06
1.46288e-05
1.31805e-05
-3.52813e-06
-3.28817e-06
1.28717e-05
2.13759e-05
1.63766e-05
-9.62053e-06
-1.49139e-05
3.46856e-06
3.1552e-05
1.98502e-05
-1.32977e-05
-1.58691e-05
4.20303e-06
3.09564e-05
2.58439e-05
-1.77942e-05
-2.07802e-05
-3.4567e-07
2.74714e-05
1.71452e-05
-3.24286e-05
-2.43754e-05
-2.07357e-07
2.60308e-05
2.33668e-05
-9.82825e-06
-8.11838e-06
2.98591e-06
1.98646e-05
1.79835e-05
-6.20989e-06
9.76433e-08
1.47332e-05
1.90853e-05
1.16393e-05
-1.7062e-05
-1.58005e-05
6.69928e-06
1.38281e-05
1.24133e-05
-2.72113e-06
-2.54693e-06
1.28806e-05
2.08654e-05
1.57836e-05
-8.98673e-06
-1.40248e-05
3.35765e-06
3.0928e-05
1.86549e-05
-1.24086e-05
-1.51401e-05
4.1911e-06
2.988e-05
2.55805e-05
-1.68815e-05
-1.98822e-05
-5.08667e-07
2.6682e-05
1.57965e-05
-3.13356e-05
-2.3308e-05
8.22711e-08
2.56863e-05
2.30437e-05
-8.57574e-06
-7.15233e-06
3.46481e-06
2.00322e-05
1.77042e-05
-5.16077e-06
1.01862e-06
1.49756e-05
1.89717e-05
1.1471e-05
-1.61347e-05
-1.50278e-05
6.88105e-06
1.36243e-05
1.20028e-05
-1.80484e-06
-2.00575e-06
1.32021e-05
2.07644e-05
1.54403e-05
-8.13611e-06
-1.32489e-05
3.79218e-06
3.07939e-05
1.81001e-05
-1.12957e-05
-1.47576e-05
4.67947e-06
2.93627e-05
2.60133e-05
-1.58761e-05
-1.92405e-05
-2.69079e-07
2.62876e-05
1.50536e-05
-3.00749e-05
-2.23031e-05
1.00935e-06
2.58604e-05
2.26214e-05
-7.5579e-06
-6.2671e-06