/*--------------------------------*- C++ -*----------------------------------*\
  =========                 |
  \\      /  F ield         | OpenFOAM: The Open Source CFD Toolbox
   \\    /   O peration     | Website:  https://openfoam.org
    \\  /    A nd           | Version:  10
     \\/     M anipulation  |
\*---------------------------------------------------------------------------*/
FoamFile
{
    format      ascii;
    class       volTensorField;
    location    "0";
    object      TauNN;
}
// * * * * * * * * * * * * * * * * * * * * * * * * * * * * * * * * * * * * * //

dimensions      [0 2 -2 0 0 0 0];

internalField   uniform (0.001 0 0 0 0.001 0 0 0 0.001);

boundaryField
{
    bottomWall
    {
        type            fixedValue;
        value           nonuniform List<tensor> 0();
    }
    topWall
    {
        type            fixedValue;
        value           uniform (0 0 0 0 0 0 0 0 0);
    }
    sides1_half0
    {
        type            cyclic;
    }
    sides1_half1
    {
        type            cyclic;
    }
    sides2_half0
    {
        type            cyclic;
    }
    sides2_half1
    {
        type            cyclic;
    }
    inout1_half0
    {
        type            cyclic;
    }
    inout1_half1
    {
        type            cyclic;
    }
    inout2_half0
    {
        type            cyclic;
    }
    inout2_half1
    {
        type            cyclic;
    }
    procBoundary1to0
    {
        type            processor;
        value           uniform (0.001 0 0 0 0.001 0 0 0 0.001);
    }
    procBoundary1to3
    {
        type            processor;
        value           uniform (0.001 0 0 0 0.001 0 0 0 0.001);
    }
    procBoundary1to3throughsides2_half0
    {
        type            processorCyclic;
        value           uniform (0.001 0 0 0 0.001 0 0 0 0.001);
    }
}


// ************************************************************************* //
