/*--------------------------------*- C++ -*----------------------------------*\
  =========                 |
  \\      /  F ield         | OpenFOAM: The Open Source CFD Toolbox
   \\    /   O peration     | Website:  https://openfoam.org
    \\  /    A nd           | Version:  10
     \\/     M anipulation  |
\*---------------------------------------------------------------------------*/
FoamFile
{
    format      ascii;
    class       volTensorField;
    location    "15";
    object      gradientUWrite;
}
// * * * * * * * * * * * * * * * * * * * * * * * * * * * * * * * * * * * * * //

dimensions      [0 0 -1 0 0 0 0];

internalField   nonuniform List<tensor> 
25600
(
(-0.0961357 0.00686464 -0.334788 20.0861 -0.345398 12.9977 -0.585568 -0.172106 -1.21457)
(0.41677 -0.0921539 -0.655315 30.4805 -1.03128 -0.202319 0.545428 -0.129178 -1.09113)
(0.478561 -0.0765854 -0.539957 50.7535 -1.42058 -16.6018 2.51853 -0.154358 -0.914841)
(0.214699 0.0157699 0.165171 74.815 -1.79922 -32.2733 3.82833 0.0508852 -0.398543)
(-0.44997 0.104873 0.640567 66.338 -2.17181 -12.7011 1.12694 -0.0199811 0.741724)
(-0.713303 0.073513 0.332995 28.434 -1.51714 6.71615 -0.766438 -0.0989944 0.422399)
(0.13585 -0.0848825 -0.211563 17.4849 -0.620737 6.68189 -0.346668 -0.101033 -1.04823)
(0.792437 -0.0914581 -0.594426 36.7854 -1.39868 -6.79688 1.25736 -0.192722 -1.35936)
(0.915731 -0.0353706 -0.630293 64.5597 -1.73493 -26.7171 1.55429 0.0240932 -1.10514)
(0.507473 0.0376146 0.0434342 103.361 -1.91918 -50.0799 2.51277 0.0662072 -0.717265)
(-0.629879 0.0784896 1.00405 109.348 -2.08831 -27.6075 1.11439 0.0712738 0.681878)
(-0.897327 -0.0496228 0.379843 56.0629 -0.971994 9.65517 -1.82678 -0.125309 0.198241)
(-0.563231 0.0977463 0.0104884 44.5374 -0.256611 -3.82684 1.01585 -0.120996 -0.970024)
(-0.363873 0.234934 0.427397 18.004 -1.17665 13.133 -1.23556 0.0461704 0.510933)
(0.242378 -0.148504 -0.349258 9.34213 -0.712328 16.673 -2.38693 0.0410109 -0.145926)
(0.383861 -0.234871 -0.667267 44.7023 -0.162963 -12.6787 0.887426 -0.164211 -1.9206)
(-0.0498207 0.0338668 0.0739869 53.7688 -0.820161 -19.5692 2.15411 -0.101476 -0.815057)
(0.146052 0.0636472 0.262536 34.9503 -1.41026 -2.87377 -0.0937761 -0.07744 -0.391035)
(0.15196 -0.00893524 -0.224248 46.0339 -1.70592 -0.0970113 -0.164627 -0.116691 -0.25846)
(0.0290428 -0.0164941 -0.276069 47.1826 -1.70292 -15.5719 0.421038 0.0170502 -0.250227)
(-0.0804883 -0.000403427 0.0705268 53.9747 -1.52738 -16.1208 0.569747 -0.0189 -0.184382)
(-0.238749 0.0268133 0.371175 40.2693 -1.56542 -7.32802 0.768951 -0.0826894 -0.166454)
(-0.330362 0.0665733 0.41412 37.3846 -2.24272 3.0386 -0.53389 0.0765479 0.566759)
(-0.289344 0.00322437 -0.284371 17.4119 -1.09072 10.7183 -1.32115 -0.0958392 -0.227033)
(0.700143 -0.123947 -0.665386 25.4458 -0.922037 -13.746 0.409211 -0.180727 -1.47523)
(0.542537 -0.020157 -0.0112052 70.2076 -2.04485 -26.0066 2.70562 0.080447 -0.334209)
(-0.614835 0.0543656 0.475052 61.3424 -2.1058 -11.6634 1.76358 -0.000997114 0.562666)
(-0.38393 -0.00215598 0.0403596 27.2715 -0.511583 2.61783 0.364811 -0.168764 -0.796466)
(1.27859 -0.044254 -0.416004 27.3151 -2.18128 -3.31057 1.45727 -0.16583 -0.919341)
(0.741192 -0.0276993 -0.191483 109.028 -4.60188 -9.49748 2.00647 0.0799844 1.68192)
(-0.11796 0.0376393 -0.108271 76.8705 -2.4841 -16.2158 0.798229 -0.0239236 0.565674)
(0.480034 0.0338367 0.308212 89.5667 -3.09518 -29.8561 0.233633 0.0148644 0.51151)
(-0.426042 0.0435704 0.85818 103.623 -3.24395 -9.53158 -0.656479 0.231495 1.50872)
(-0.857991 -0.00929093 0.152893 68.8929 -1.03594 18.0756 -1.47053 0.000774882 0.321312)
(-0.108978 -0.0579564 -0.824042 44.5559 -0.7887 6.70593 -0.26538 -0.0446034 -0.956668)
(0.732744 -0.071265 -0.585084 53.7914 -2.1602 -20.365 1.11437 -0.0641124 -0.612166)
(0.22794 0.0744687 0.802764 102.341 -2.91347 -34.27 2.04103 0.0928745 0.82448)
(-0.715077 0.0933684 0.853521 70.6969 -2.88194 14.2738 -1.73937 0.182503 1.68332)
(-0.663449 -0.0176196 -0.0459204 50.2258 -1.26694 18.9752 -1.73271 -0.0126622 0.170099)
(-0.527247 0.0324464 -0.072316 33.2665 -0.911499 14.7361 -1.08252 0.0589002 -0.2015)
(-0.0397147 -0.0138051 -0.411692 20.0448 4.36977 -13.2415 0.956921 0.148088 -1.27792)
(1.14275 0.0452319 -0.824593 25.5492 3.33277 -14.7666 1.89105 -0.0414948 -0.441516)
(1.78836 0.0441482 -1.08052 28.1375 2.77186 -3.60397 3.72265 -0.16623 -0.392601)
(0.577521 -0.0565699 0.021977 57.2429 2.88394 -13.5155 7.43386 -0.405856 -0.170704)
(-1.92666 -0.100632 1.33108 50.7568 3.94951 -23.2348 3.21012 0.133716 1.42991)
(-1.76606 0.000120211 0.64572 29.7253 3.43778 -12.4569 -0.896843 0.311538 1.72034)
(0.286604 0.0995548 -0.472818 19.0429 3.70905 -13.7991 -0.38518 0.129889 -1.19393)
(1.58617 0.0424296 -1.08995 22.0771 3.97365 -8.63319 2.18438 0.0674342 -1.79581)
(2.46873 0.0117313 -1.56655 35.2652 2.85912 -10.497 3.58616 -0.166521 -0.98402)
(1.78026 -0.0598264 -0.0942651 52.0926 2.51844 -22.931 4.30038 -0.3937 -0.0551724)
(-1.77666 -0.0368837 2.01441 58.6644 3.32072 -25.8831 2.15542 -0.0811391 2.48737)
(-2.39682 0.150221 0.823799 31.0768 5.00917 -16.0836 -3.21703 0.400517 0.748388)
(-1.36756 -0.118206 0.170047 38.1558 7.57745 -21.5018 2.0159 0.0682102 -2.05163)
(-1.43734 -0.28222 0.600193 23.62 2.64733 -18.2979 -0.954708 0.223908 0.793729)
(1.12734 0.216279 -0.963487 13.4558 -0.562163 -18.596 -3.25507 0.196219 0.947552)
(1.89734 0.252726 -1.15827 31.1461 5.67395 -24.7097 1.99592 -0.0291522 -3.52957)
(-0.454365 -0.102376 0.430544 50.0068 5.83288 -31.8708 5.65741 -0.173137 -1.35997)
(-0.564508 -0.116258 0.727884 25.8008 4.20033 -19.1944 1.27626 0.081705 -0.738228)
(0.471513 -0.00545159 -0.416318 25.2802 3.59034 -11.7563 -0.428491 0.197487 -0.634276)
(0.382655 0.0274654 -0.532949 31.5087 3.46774 -22.9192 1.32859 -0.0203614 -0.535045)
(-0.272414 0.00762258 0.352848 30.3562 4.32235 -20.8469 0.498446 -0.0190395 -0.356142)
(-0.60357 -0.0668433 0.592048 38.6852 4.1585 -15.655 2.23872 0.0750194 -0.00640892)
(-0.830027 -0.048445 0.486693 33.1212 2.89273 -15.3018 -0.628116 0.135155 1.16634)
(-0.305068 0.0654079 -0.563541 19.2318 3.53574 -12.5771 -1.15404 0.309755 -0.660149)
(1.98639 0.0865238 -1.18554 22.2496 3.69272 -17.9656 1.64208 -0.00900033 -1.71993)
(1.27743 -0.0396332 0.121057 43.471 2.20391 -11.7244 4.61893 -0.454814 0.302865)
(-1.56544 0.0202522 0.971969 48.8707 3.10039 -17.2623 3.35218 0.0119998 1.38779)
(-1.3543 -0.00156967 0.39172 30.0286 5.35777 -18.3636 1.34966 0.253477 -0.982135)
(2.86221 -0.164881 -0.174956 16.2055 2.61177 -8.81639 3.26662 -0.0372279 -1.99262)
(1.77206 0.0146586 -0.46317 60.2933 -0.861462 3.87184 2.53684 -0.192251 2.95281)
(-0.886368 0.0372639 -0.943856 48.0091 3.70892 -6.22642 1.35901 -0.00615392 1.03447)
(0.868755 -0.076893 0.00996149 43.0601 2.81518 -22.6851 -0.13487 -0.0122862 0.28939)
(-0.610768 0.059589 1.55859 39.8571 1.88645 -24.0449 -1.14224 -0.0736947 2.5488)
(-2.1402 0.138412 0.679603 33.9423 4.55212 -14.8654 -3.05043 0.247666 1.09171)
(-0.668595 0.00505217 -1.1006 22.3758 5.41327 -8.4196 -1.1893 0.0131219 -1.15381)
(2.21103 -0.0325464 -1.49582 21.9409 3.28111 0.0472442 1.88286 -0.0944713 -1.71104)
(0.631931 -0.119598 0.925506 43.9198 3.74687 -18.5629 3.77951 -0.167923 0.161469)
(-1.93443 -0.016737 1.84114 35.2701 2.95496 -17.0834 -3.04486 0.253283 1.72724)
(-1.22451 0.122261 0.0746478 22.6087 4.3232 -11.1337 -2.59318 0.352308 -0.305508)
(-0.993668 0.0124246 -0.232545 25.0207 4.56771 -12.7571 -0.637554 0.0983046 -0.643165)
(-0.0714229 -0.0619935 -0.442507 25.6258 -1.6343 -13.3664 2.22267 -0.0918427 -1.50814)
(0.808958 -0.197663 -0.0848865 26.8316 -4.08178 -6.07918 2.72473 -0.360668 0.776236)
(2.16783 -0.114435 -0.41405 12.7192 -7.02199 6.73457 4.14464 -0.601193 1.17749)
(1.4775 0.0906384 -0.947953 21.4599 -5.92026 15.3141 5.56832 -0.666866 0.455184)
(-1.8827 0.15723 0.632319 23.8576 -1.98235 -15.5875 1.38377 0.172083 1.28633)
(-2.42944 0.0670413 0.843638 31.9704 -2.06147 -11.7116 -0.287409 0.595184 2.18347)
(-0.318478 -0.0725488 0.0341637 20.0587 -1.38472 -5.30594 1.11629 0.128277 -0.947328)
(1.64476 -0.153659 -0.355229 10.384 -4.90701 6.4744 2.05012 -0.417908 -0.132058)
(2.4843 -0.123656 -1.35783 11.7646 -5.53382 11.5227 2.30189 -0.388151 -0.335646)
(1.72407 0.0738682 -0.826456 7.3177 -6.26405 10.8825 1.79773 -0.746395 0.367937)
(-1.72219 0.233074 1.29628 6.55954 -4.23384 -3.90866 -0.82528 0.00917764 3.69391)
(-1.92525 0.174868 0.587077 12.8414 -2.7722 -11.7576 -3.29485 0.256626 1.48342)
(-0.911067 -0.0163055 -0.132639 21.409 -1.90372 -11.5275 2.36949 -0.168521 -1.73168)
(-1.67511 -0.18083 0.577005 36.4554 0.157541 -17.9586 -0.0532703 0.520809 -0.347572)
(0.58613 -0.0111541 -0.656083 29.7085 -1.41792 -19.3386 -0.231475 0.484082 -0.461428)
(2.33173 0.0836542 -1.38057 16.1735 -3.21479 -5.52196 2.28555 -0.603159 -2.84979)
(-0.31636 -0.037143 0.355088 26.0176 -2.66527 -17.0944 4.88023 -0.262395 -0.588124)
(-1.203 -0.0471573 1.37123 12.6716 -0.634857 -8.27107 1.93148 0.00395608 -0.991295)
(0.447826 -0.0513578 -0.418965 17.0912 -2.31549 -3.36653 -0.0414204 0.0140179 -0.633957)
(0.285213 0.0211508 -0.772474 12.0172 -1.59307 -9.58073 2.06652 0.047385 -1.37934)
(0.350864 0.0384656 0.459499 12.6317 -2.43216 -6.77711 0.190659 -0.115923 -0.333863)
(-0.04347 -0.0459278 0.667554 36.8185 -3.53291 -9.96062 1.28109 0.213741 0.518565)
(-1.39765 0.0423078 0.583632 33.9645 -2.60177 -12.1237 -0.894277 0.369006 1.36179)
(-0.912148 0.0429516 -0.409441 20.9436 -1.32662 -5.6452 -0.0523012 0.313883 -0.313367)
(1.96364 -0.221482 -0.564406 16.5044 -3.31004 0.0478343 4.30716 -0.286162 -1.17984)
(1.99795 -0.0522283 0.0159618 10.7325 -6.53145 9.61565 3.7914 -0.423511 0.377836)
(-1.29181 0.23891 0.0440629 23.8676 -4.38448 -1.39509 0.95874 -0.100891 2.8873)
(-2.16293 -0.0302767 0.490291 21.0983 -0.5193 -14.2913 1.31411 0.00810165 -0.847242)
(2.85841 -0.389376 0.836921 6.82602 -3.1796 -1.16566 3.76854 -0.302576 -2.78954)
(2.46466 0.0310767 -0.0155687 11.2751 -10.2262 3.47817 1.19147 0.0199595 2.87968)
(-1.03086 0.248834 -1.54994 22.8166 -3.40132 2.97473 -0.178599 0.0209686 1.68949)
(-0.0270192 -0.0597594 -0.68532 22.2067 -2.25201 -2.53947 0.27745 -0.0864251 -0.845048)
(-0.93123 0.141725 1.23725 5.97373 -4.03096 -8.82237 -1.3108 0.399066 2.02479)
(-1.73377 0.178493 0.997621 11.0968 -2.16691 -12.8841 -2.58305 0.298672 1.11739)
(-0.742283 -0.137254 0.0600737 21.769 -3.08261 -3.46966 -1.55631 -0.118998 0.459243)
(1.82224 -0.170841 -1.07657 21.6194 -4.45955 14.5651 1.22883 -0.170936 -0.737563)
(0.953065 0.075142 -0.193359 -0.907951 -2.87044 14.8936 1.19015 0.182274 -1.19641)
(-1.81709 0.137478 1.18144 21.5948 0.0276494 -10.7548 -4.56958 0.741129 -0.697955)
(-1.19599 0.0610172 0.190491 10.3253 0.0116396 -6.27235 -4.2156 0.503568 -1.84943)
(-0.62786 0.0371231 -0.177346 22.03 -1.24638 -12.0046 -0.605152 0.355248 -1.13662)
(0.266792 -0.188113 -0.0342748 31.3435 3.60322 -12.6335 3.65932 -0.00353973 -1.36224)
(0.360743 -0.270847 0.37132 24.0462 0.888172 -4.88137 2.27984 -0.292883 1.27046)
(1.41106 -0.0561404 0.204353 0.688473 1.49675 -9.80342 4.10181 -0.349981 0.751035)
(1.1912 0.247089 -1.29124 -10.3125 0.693758 9.83369 5.04173 -0.53222 0.235372)
(-1.26705 0.117363 -0.306401 7.871 2.66996 -2.24729 0.598695 -0.103434 0.825137)
(-1.93972 0.0311841 1.27547 12.5038 1.35783 -8.37678 0.0790649 0.480609 2.47349)
(-1.01661 -0.0630029 0.625387 13.5067 3.83535 -3.33554 1.24729 0.289128 -0.437634)
(1.05633 -0.200082 -0.100267 -4.71475 0.932355 0.935469 1.32176 -0.104938 0.942942)
(2.27346 -0.0604618 -1.30895 -12.2579 1.51037 1.0734 1.45781 -0.0434806 -1.08461)
(1.45705 0.00893167 -0.995925 -16.0522 2.31607 8.0757 -0.310902 -0.90215 -0.640966)
(-1.43315 0.15672 0.655936 -2.61928 0.339192 2.57991 -1.80584 -0.418584 3.16572)
(-1.50586 0.294961 0.366151 5.05777 2.07004 -3.56993 -2.90854 0.399776 2.17765)
(0.0786113 0.0566912 -0.191434 1.22828 4.15927 3.22661 1.70492 -0.0639692 -1.12905)
(-0.889241 -0.261667 0.109046 20.2574 3.55706 -9.86389 0.23928 0.425714 -0.0659541)
(-0.0998459 0.0259743 -0.20854 19.5085 2.83835 -11.7713 1.72153 0.458134 -1.80039)
(1.62073 0.190831 -0.994268 6.09307 3.5332 5.66039 1.7732 -0.571912 -2.0505)
(-0.689399 0.0540879 0.264415 4.99851 4.32184 3.5325 4.56968 -0.912962 -0.92798)
(-1.06459 -0.101071 1.53081 2.30693 5.19773 -0.863904 1.61245 -0.0877472 -1.47514)
(0.43254 -0.0613964 -0.498791 11.5673 2.30765 2.01312 0.0862382 0.22096 -1.03408)
(0.110667 0.0207262 -0.724461 2.7645 4.09516 2.29962 2.52724 -0.068355 -2.0078)
(1.23208 -0.118011 0.318184 6.79704 1.99889 4.87753 1.04509 -0.037497 -1.05918)
(0.688126 -0.07965 0.246726 17.7914 0.136609 -1.36786 0.247788 0.264649 1.27014)
(-1.77617 0.0818628 0.749626 17.5165 1.47291 -12.0709 -1.77719 0.413512 1.8172)
(-1.34741 0.0229088 0.189988 8.45475 3.4688 -0.678927 0.347487 0.0698546 0.217904)
(1.34358 -0.211493 -0.283542 14.5942 1.80569 5.84119 5.03267 -0.290711 -1.01866)
(1.67056 -0.106252 0.0404092 -5.94322 2.66138 -1.40897 5.38632 -0.239855 -0.535062)
(-0.937945 0.378205 -0.445568 -1.50656 -0.649627 6.69135 0.206965 0.191405 2.6667)
(-2.35004 0.0774189 0.396358 4.81088 5.21634 -3.18619 -0.00611015 0.171738 -0.622083)
(2.24201 -0.755667 0.846449 -0.847601 1.97587 -2.43634 2.3327 -0.016083 -2.07338)
(2.71301 -0.000990305 -0.246358 -17.3328 -1.71885 -12.5311 0.878633 0.201901 1.37477)
(-0.181315 0.519878 -1.26342 1.35855 1.29861 -1.55266 -0.931382 0.193662 1.00595)
(-0.105724 -0.118384 -0.665796 3.03758 2.24402 2.1557 -0.459453 -0.0427545 -0.575915)
(-1.28059 0.0567524 0.937202 0.800478 1.43478 -3.37579 -0.391945 0.226806 0.240847)
(-1.18298 0.194317 0.985961 3.61556 2.48265 -3.06723 -1.01772 0.393677 1.18861)
(0.00353929 -0.125556 0.517447 17.7365 1.32102 -0.22144 -1.0038 0.0186228 0.910405)
(0.817289 -0.00531428 -0.377649 11.8523 1.92409 0.791483 0.27959 0.0659956 -0.308498)
(0.598264 0.144408 -0.5622 -4.81679 4.04551 15.2325 0.219654 0.299233 -1.81911)
(-1.2365 0.149918 0.569949 12.2076 4.39863 -3.44142 -5.28468 0.840541 -1.19029)
(-1.19986 0.0478984 -0.0158877 4.51984 5.48102 -1.34369 -6.03118 0.496174 -2.19413)
(-0.0636339 -0.0940273 -0.686231 10.1069 4.33301 -5.31333 -0.236565 0.248684 -1.89184)
(0.863427 -0.288771 -0.453309 22.7698 -1.34456 2.06326 3.70184 -0.444075 -1.17917)
(-1.2765 -0.336728 0.0661637 11.054 -2.2038 -4.87807 0.616958 -0.580486 2.59835)
(-0.144157 -0.133774 0.546693 -0.112177 -2.84827 -5.38622 2.43442 -0.201538 1.15092)
(2.00525 0.156524 -0.388537 -16.3362 -4.84107 0.311827 2.77814 -0.734962 1.01626)
(-0.358715 0.207364 -0.539297 7.40205 -2.90533 5.38001 2.00076 -0.0350285 1.16064)
(-2.08677 0.151612 0.724834 1.80879 -0.525802 -2.17935 -1.40706 0.799563 1.15847)
(-1.44522 -0.10307 0.622172 8.51656 -0.856026 -5.18392 0.432578 0.375028 0.748956)
(-0.0868394 -0.310584 -0.0743371 1.12806 -2.26013 -4.00349 1.28767 -0.169178 0.0295744)
(1.71752 -0.0338185 -0.866531 -12.9452 -2.19878 -4.16855 0.919246 -0.33179 -0.571821)
(2.42058 -0.00102636 -0.70482 -14.6985 -2.36516 8.50254 0.401632 -1.09974 -1.3749)
(-0.28412 0.223612 0.551032 0.53716 -1.85832 -3.78675 -1.86087 -0.503237 1.78405)
(-1.69981 0.428324 0.654108 4.43929 -1.53259 2.66754 -2.45917 0.534319 1.20809)
(0.0462249 0.0797317 -0.564139 3.15416 -2.03608 8.07726 -0.520488 -0.185926 -0.186486)
(-0.483359 -0.26454 -0.418435 4.79352 -1.16611 -2.56265 -0.675867 0.534526 0.522633)
(-0.329586 -0.016525 0.377977 8.95758 1.03959 -1.73613 1.4938 0.476535 -1.18668)
(1.39449 0.176028 -0.35571 -2.50018 -1.68867 7.33299 0.933958 -0.519344 -0.898055)
(-0.542165 0.0694061 -0.0892304 2.79529 -1.97045 9.75007 3.86823 -1.30196 0.168024)
(-0.760364 -0.181737 1.24968 5.40446 -0.00864846 0.244758 3.02136 -0.152303 -1.80437)
(0.481152 -0.126974 -0.191144 10.6889 -0.628052 4.67028 -0.720388 0.229787 -1.55296)
(-0.0288267 -0.000262939 -0.578222 8.62911 -0.330503 6.58731 2.05279 -0.280409 -1.96665)
(1.307 -0.220975 0.218769 9.37305 0.13728 3.58939 0.297938 -0.0580973 -2.76504)
(0.62829 -0.0791076 -0.468142 6.63817 -4.20214 4.61611 -0.976217 0.279753 1.08812)
(-2.00862 0.269913 0.61491 0.999839 -2.09158 -2.61984 -2.1478 0.527624 1.91973)
(-1.0717 0.0680817 0.775364 8.57037 -1.71314 -2.42876 -0.895552 -0.0605157 0.986181)
(1.0251 -0.27859 -0.643222 10.7815 -1.63543 3.69158 2.34047 -0.565562 -0.34396)
(0.911822 -0.217451 0.0725964 1.38247 -2.08114 -1.50081 4.34085 -0.254413 -0.761395)
(-0.579873 0.402531 -0.0304807 1.48275 -2.97179 1.74806 0.577767 0.505594 2.20033)
(-2.09843 0.141405 -0.134617 3.9936 -0.15819 3.60823 0.75094 0.164578 -0.296283)
(1.38124 -0.83469 0.186573 16.2676 -1.99074 -7.64386 2.05662 -0.169815 -1.17899)
(2.59314 -0.0127811 0.0689171 -16.5673 -6.23207 -5.69134 -0.183809 0.291259 1.51321)
(0.299764 0.497119 -0.557975 -0.634471 -3.03625 1.59611 -0.63038 0.296722 0.628291)
(-0.057931 -0.0444346 -0.813965 -7.99701 -1.96905 5.22619 -1.6099 -0.163133 0.796426)
(-0.856131 0.166805 0.904299 -5.65027 1.82282 -4.46122 -0.334031 0.0187915 -1.76487)
(-0.611928 0.169005 1.21799 5.12491 -0.535658 -0.513574 -0.630651 0.484117 -0.177075)
(-0.244469 -0.177239 0.282489 15.4308 -2.01302 1.37173 -2.37015 0.0126331 1.09311)
(0.355463 0.00193704 -0.0725357 3.35554 -1.09578 -3.77908 -1.90248 0.224573 -0.706627)
(1.01323 0.240177 -0.45063 9.56306 -2.11176 8.52019 0.222803 0.194683 -0.643248)
(-1.22633 0.23599 0.0906783 10.5941 -0.524585 1.33105 -3.57188 1.1738 0.353451)
(-1.34159 0.0577694 0.0810444 2.82902 0.220729 -2.30911 -4.14316 0.595187 -0.836204)
(1.17975 -0.0802545 -0.911012 7.8808 -0.448138 2.26547 -0.570797 0.13486 -2.82242)
(0.449697 -0.312252 -0.53843 0.168445 1.32774 7.63862 1.97482 -0.303062 -1.98703)
(-1.22466 -0.379204 -0.167609 -2.29104 -0.0631687 5.99507 -0.846663 -0.431085 2.27966)
(-0.52716 -0.249972 0.566841 11.6701 -1.09407 8.01955 2.12604 -0.535438 2.01095)
(1.68419 0.251783 -0.558522 -9.1847 -1.32407 -0.0894308 0.392634 -0.0942726 0.852097)
(0.0291426 0.438224 -0.47354 -6.05606 0.311266 2.36345 2.13911 -0.38705 0.534134)
(-1.83982 0.175792 0.523015 1.60922 1.47567 -1.86504 -1.96027 0.617884 0.823912)
(-1.02579 -0.191569 0.486271 6.9322 0.593229 0.659477 0.625014 0.265969 1.87377)
(-0.469912 -0.291674 -0.0252434 8.81283 2.21357 -2.27367 1.99554 -0.0240738 -0.748849)
(1.11926 -0.0711548 -0.397216 -1.79307 0.320332 0.846759 -0.273573 -0.31351 -0.482269)
(2.39131 0.0359525 -0.995848 -7.53903 -0.766658 2.71961 1.43484 -1.14521 -1.12561)
(-0.0851435 0.213674 0.220395 0.13657 -1.00312 -0.142241 -2.11709 -0.717222 0.72938)
(-1.28642 0.268037 1.24425 2.21956 1.11871 -0.624523 -2.25991 0.183831 0.82176)
(0.108927 0.0824005 -0.553965 4.07997 -0.417427 2.34128 -2.54003 0.021756 0.86702)
(-0.486209 -0.0262738 -0.58835 2.86362 0.0779569 2.8654 -1.79806 0.26152 1.25878)
(-0.634408 -0.00972079 0.489241 4.70588 2.63357 2.11914 1.61183 0.29985 -0.611336)
(1.17231 -0.0377777 -0.180108 -1.85899 0.204965 2.77855 0.118742 -0.461589 -0.452185)
(-0.099886 0.180978 -0.242052 -0.762395 0.632748 2.93126 2.93151 -1.38407 0.656424)
(-0.491621 0.00960864 1.17062 4.80482 3.19704 -2.00314 2.56577 -0.241359 -0.602727)
(0.674173 -0.079442 -0.0447255 -3.99033 2.53588 1.80918 -1.26325 0.449133 -1.68895)
(0.0240329 0.0813274 -0.821708 0.458061 3.19655 2.28058 0.589287 -0.0897276 -2.84331)
(1.07241 -0.403665 0.177445 5.65555 3.80401 -4.31685 -0.837465 0.0855084 -2.86576)
(0.0540559 -0.250079 -0.15643 3.47581 0.389833 -2.73606 -0.876329 0.296599 0.576401)
(-1.60522 0.25332 0.224583 -4.63282 1.74068 10.0167 -2.19146 0.246142 0.867263)
(-0.62726 0.0532605 0.613904 13.9668 1.31682 -6.88271 -0.430108 0.0853 0.429113)
(0.825981 -0.232914 -0.176644 4.23416 1.17141 -1.41945 1.90522 -0.697192 -1.14815)
(1.03562 -0.197285 -0.111373 10.1837 1.21188 5.5112 2.13582 -0.229461 -2.00344)
(-0.774154 0.522764 -0.0965357 10.5278 -1.4745 -0.738262 2.66791 0.605291 2.11788)
(-1.24504 0.146013 -0.268472 4.42828 2.83987 3.09054 1.14564 0.113825 0.40852)
(0.756392 -1.21206 0.201568 22.1714 1.943 -4.54569 1.70069 0.39601 -1.47581)
(1.43299 -0.0797312 0.428425 -10.8665 -2.62507 3.84324 -1.67335 0.263259 1.89958)
(0.425696 0.848021 -0.499413 -5.45769 0.858357 1.14953 -0.599029 0.498957 0.381906)
(-0.493913 0.245652 -1.11401 -3.79256 1.31752 4.03281 -1.77957 -0.394884 0.208758)
(-0.319987 0.155317 0.501742 2.13854 2.68657 -1.39502 -0.525116 -0.352355 -1.80512)
(0.37137 -0.0963655 1.40863 6.64842 2.12174 -4.86233 -1.0956 0.373077 -1.01505)
(-0.106914 -0.163204 0.291324 7.39647 -0.46873 -3.84981 -2.89213 0.268347 1.30096)
(0.414932 -0.0135872 0.138275 2.34188 0.259293 -1.57622 -2.1236 0.247189 0.013898)
(1.11009 0.178494 -0.182736 5.44085 -0.106839 0.51891 -2.25517 0.617753 0.317611)
(-1.75227 0.319608 -0.209926 4.81186 1.56228 -0.717677 -4.33817 0.829037 0.868455)
(-1.3931 0.0527551 0.0458476 2.60756 1.88686 -2.3505 -1.87485 0.294388 0.837216)
(1.33632 -0.215056 -0.329528 0.351119 1.5905 1.22671 -0.464599 0.0781033 -2.62126)
(0.682634 -0.42547 -0.043855 -6.78918 1.22109 -2.02173 0.37433 -0.129125 -2.31555)
(-0.314582 -0.536116 0.121569 -3.44077 -0.221105 9.35874 0.412556 -0.822758 0.815059)
(-0.685506 -0.228177 0.033069 7.26766 0.217239 4.16707 2.7544 -0.218359 0.711341)
(0.546877 0.265165 -0.847128 -0.682766 0.0392111 -6.04136 1.72631 -0.534131 -0.181114)
(0.510098 0.419692 -0.695173 -8.82283 -0.750379 5.81818 1.94528 -0.533793 -0.0976862)
(-1.01936 0.172903 0.601737 4.34933 -1.40033 -6.30728 -1.53053 0.755211 2.0762)
(-0.881451 -0.032175 0.601402 8.6042 -2.00229 -2.12654 0.688059 0.321092 2.27172)
(-0.782191 -0.335421 -0.0634987 6.6125 1.03279 -4.31681 1.72124 0.207667 -0.314316)
(0.402409 -0.280675 -0.493604 0.834062 -1.14783 6.36003 -0.647754 -0.33158 -0.3464)
(2.58576 -0.116005 -0.758879 -10.0286 -2.39849 0.421548 0.753566 -1.29948 -0.290518)
(0.516525 0.383135 0.302905 -2.0638 -1.6367 10.0495 -0.942842 -0.946986 0.522998)
(-1.40957 0.493599 0.803923 5.45167 -0.312349 -4.30171 -1.85084 0.51505 1.41418)
(0.0941104 -0.00804611 -0.27171 0.468139 -0.806225 -1.00437 -1.99442 0.0488664 0.290211)
(-0.430444 -0.0318252 -0.420122 2.03749 -1.8471 0.264719 -1.40207 0.182072 1.01792)
(-0.696202 -0.00652599 0.35955 2.2562 -0.242046 2.84712 1.09126 0.30379 0.468933)
(0.956912 0.0291702 -0.304983 2.68593 -0.583964 -2.31675 0.164638 -0.192493 -1.14968)
(-0.0260698 0.309836 -0.476013 0.270215 -0.393036 -0.391593 4.02193 -1.95428 -0.393049)
(-1.05865 -0.0408464 1.16324 3.68896 -0.5379 -1.78324 0.945105 -0.289832 1.53239)
(0.0963586 -0.131768 0.154408 -8.6062 -0.300524 -0.316255 -1.06449 0.81978 -0.237409)
(0.776952 0.0982081 -1.06898 -11.1123 2.47081 3.63113 0.389639 -0.358797 -2.94372)
(1.5842 -0.438708 -0.198917 1.43557 -0.903162 -3.46257 -0.994592 0.0187944 -1.54745)
(-0.179378 -0.235505 0.705908 5.05569 -1.08004 -5.17969 -0.59921 0.189833 1.18887)
(-1.16683 0.349517 0.305272 0.484028 -1.24432 8.88134 -2.10094 0.427198 1.1854)
(-0.370572 0.0216972 -0.170086 9.91979 -1.05378 -0.602149 -0.108073 -0.0693379 0.826961)
(0.726909 -0.29198 0.352254 3.85685 0.890753 -4.38934 2.01002 -0.56663 -2.22709)
(1.42864 -0.441947 0.148269 12.3438 0.353282 3.13749 1.65132 -0.675873 -1.54583)
(-1.04438 0.527396 -0.227415 -0.205265 -2.62594 1.1356 1.58522 0.355783 2.38803)
(-1.20473 0.428301 -0.441376 0.424252 -1.47831 -0.0868227 0.151677 0.346815 1.34772)
(0.157669 -1.25647 0.248363 7.99022 1.18539 -5.04825 0.439626 0.418814 -1.76354)
(0.385985 -0.0972875 0.511846 0.103603 -0.321074 -3.31848 -3.59413 0.538492 1.36309)
(0.881977 0.793541 -0.547891 -6.92817 -0.912769 -1.8241 -1.18331 0.668388 -0.301116)
(0.624385 0.0802823 -0.997919 3.00433 -1.37966 0.489374 -2.16842 -0.153741 -0.293291)
(-0.0318221 0.235575 0.196612 8.19697 -1.38786 2.57893 0.162438 -0.662711 -0.33715)
(-0.268142 -0.0697697 0.992517 4.89924 0.262332 -3.16601 -0.043724 0.646795 -0.832156)
(-0.620334 -0.335245 0.557915 2.4805 -1.91089 -5.19163 -2.84562 0.316078 1.59812)
(0.185081 0.0339186 0.273725 0.851684 -1.80773 0.760651 -1.31446 0.692891 0.498667)
(1.21123 0.355904 -0.405228 -2.66035 -2.68912 -2.25136 -4.36721 0.850549 0.739434)
(-1.41197 0.395267 -0.120535 -0.580464 -0.784243 -3.68042 -4.35357 1.20488 1.3745)
(-1.71152 0.0606436 0.248056 5.48673 -1.55619 -0.863602 -2.48605 0.140242 2.93352)
(0.959 -0.113788 -0.129231 -7.13562 0.807267 3.95018 -0.296228 -0.0464038 -1.40333)
(0.768148 -0.396047 -0.0876366 -9.51059 2.48666 -1.05127 -0.999267 -0.356523 -2.3311)
(-0.0155162 -0.456361 0.375888 -1.75983 1.8996 6.28649 1.88194 -0.92682 -0.824789)
(-0.256235 -0.228074 -0.804168 -0.815454 0.998428 0.251419 3.51771 -0.342212 -0.0912366)
(0.309675 0.160948 -0.376949 4.08309 0.299977 -6.25867 2.36679 -0.00889554 -0.772659)
(0.446478 0.306932 -0.475974 -4.58077 0.487462 0.793111 1.7868 -0.455812 -0.984304)
(-0.310008 0.0602902 -0.219677 2.68842 -1.07273 -0.190378 -0.963267 0.365894 1.80911)
(-0.8309 0.0175363 0.658861 4.76544 -0.740366 -2.2984 0.652224 0.15614 2.23346)
(-1.15736 -0.208269 0.763519 6.11464 0.665798 -3.50846 1.68079 0.230907 0.624784)
(-0.348227 -0.36757 0.0506801 0.854755 2.14512 3.0744 0.391066 -0.501301 -0.91107)
(2.10383 0.00592979 -0.678295 -7.88248 0.732021 6.33644 -0.00671562 -1.26214 -1.29438)
(1.28649 0.38968 -0.224717 -8.42484 1.06263 8.0053 1.55108 -1.24769 -0.713735)
(-1.03992 0.322295 0.265884 0.877048 -0.451361 1.43504 -1.81201 0.301528 1.59068)
(-0.205375 -0.0505073 -0.159831 -1.76551 1.07248 -2.45939 -0.227857 0.131961 -0.391224)
(-0.326404 0.0264632 -0.248941 -3.74635 0.128413 -0.106566 -0.40094 0.057196 0.451239)
(-0.568254 0.106789 0.263445 0.686037 0.120058 4.47629 0.207994 0.0655654 0.978144)
(1.01016 -0.0584373 -0.467175 -1.23572 1.47407 -3.30387 0.991851 -0.303593 -1.06441)
(-0.014495 0.172354 -0.169312 -0.181087 -0.511976 -0.760331 4.7904 -1.96151 -0.382842)
(-1.25592 0.0232104 1.17833 1.10478 -0.504668 3.67959 1.22088 -0.335169 0.906144)
(-0.637041 0.20407 0.436147 2.08663 0.869631 -1.33758 -0.102858 0.684483 0.019657)
(0.877527 0.0239004 -1.08799 -4.31827 2.41919 2.9115 0.406921 -0.351233 -2.87184)
(2.51663 -0.728585 -0.599849 -1.39653 -0.776339 0.775876 -1.56891 -0.119485 -1.2418)
(-0.0106122 -0.283091 0.899053 0.446461 -1.24785 3.56937 -1.27666 0.242293 0.526614)
(-1.19917 0.24613 0.639899 3.22288 -0.22571 -1.26692 -2.1738 0.490869 1.65203)
(-0.340968 0.253893 -0.535132 3.39357 -1.22251 6.78297 -2.46199 -0.281285 1.45929)
(1.06009 -0.096866 0.116356 2.3041 0.947075 -0.703454 0.249549 -0.782217 -0.619734)
(0.620611 -0.498086 0.373676 8.79429 0.422306 0.787648 0.763802 -0.105437 -0.419955)
(-1.84959 0.352894 -0.381671 -9.15371 1.2573 -1.37949 -1.39482 0.864148 1.44614)
(-0.491058 0.470303 -0.823138 -2.0121 -0.991598 -1.32169 -0.87156 0.345227 1.71653)
(0.786603 -1.10058 -0.102012 6.01899 0.94796 -2.94328 0.247561 0.65054 -1.21063)
(0.157856 -0.272038 0.718291 6.61551 0.570023 -5.8735 -1.90539 0.847873 -0.0572931)
(0.648365 0.755558 -0.142371 4.05635 -1.25102 -2.81628 -0.944302 0.764976 0.369559)
(0.793216 0.218245 -0.71837 1.18793 -0.982802 0.425897 -0.970869 -0.574887 0.571518)
(-0.173538 0.299163 0.19416 -8.07199 1.16623 3.40213 0.42137 -1.33251 0.227328)
(-0.0934094 -0.147401 0.73153 -3.39579 2.03746 2.09162 1.15196 0.425929 -1.8994)
(-0.429941 -0.337465 0.62785 3.73619 -0.0120222 2.52588 -2.80761 0.405149 0.62787)
(-0.0375717 -0.0903168 0.396681 5.15665 0.842421 -1.35022 -0.541081 0.747093 0.190583)
(0.967513 0.255419 -0.571251 0.610633 -1.04573 -2.32425 -4.61631 1.48756 0.203349)
(-1.03276 0.416829 -0.0905082 -0.959553 -0.97707 -2.40001 -2.4714 0.7874 1.83245)
(-1.96755 0.199168 0.731395 9.90938 -1.35805 2.28396 -2.90414 0.0545579 3.24997)
(0.238633 0.0316924 -0.456673 1.09241 1.06799 3.43732 -2.12236 -0.0739952 -0.40402)
(0.383896 -0.343803 0.250398 -5.49554 0.575636 3.80782 -0.670465 -0.431622 -1.66658)
(0.540158 -0.695504 0.228675 1.61958 -0.585769 1.01866 1.28505 -0.970596 -0.403687)
(-0.13397 -0.390933 -1.15956 0.308493 -0.747285 -0.917477 2.17354 -0.36821 0.079665)
(0.187511 0.2236 -0.83903 2.43656 -1.03919 2.86123 2.16001 -0.422789 0.0243844)
(0.374565 0.291308 -0.0997025 -6.01442 0.247808 -3.83144 1.81025 -0.501913 -0.466786)
(-0.139405 0.0592436 0.369341 0.22071 -1.85996 6.80259 -0.247056 0.303249 1.40971)
(-0.537921 0.139732 0.258074 0.820523 -1.63861 5.67407 0.369089 -0.00763012 2.04382)
(-1.14255 -0.0545651 0.400436 6.97808 0.389997 2.22098 2.00068 0.340126 1.19125)
(-0.946602 -0.265248 0.453594 -0.82507 1.05036 -3.09137 0.254636 0.260784 -0.632231)
(1.68984 -0.23833 -0.265266 4.0417 -0.943566 4.37149 -0.664482 -1.1776 -1.28779)
(1.33073 0.262083 -0.143006 -6.07956 -1.60012 6.7864 2.49914 -1.42056 0.0797839)
(-0.769007 0.511729 -0.206956 -4.58088 -0.195228 6.11681 -2.1751 0.477121 0.891423)
(-0.346328 0.055186 -0.43974 -3.31626 -0.678617 2.53999 0.537332 0.22686 1.10645)
(-0.191427 -0.134553 0.268397 -1.13688 -0.307227 6.78798 1.26723 -0.112049 0.903999)
(-0.453564 0.119051 0.0438655 -0.231453 -0.883973 -0.199383 -0.648626 0.254986 0.642255)
(0.863367 -0.0263729 -0.82154 -1.86974 0.11678 -2.61329 0.874473 -0.401419 -0.614491)
(0.210896 0.122265 0.203817 -3.21322 0.0416586 0.523086 4.11953 -2.65092 0.52505)
(-0.808211 0.0933133 1.103 -2.36491 -0.612172 4.06025 1.56125 -0.431892 0.980851)
(-0.382049 0.132125 0.0480908 4.10705 0.097715 -2.78495 1.13052 1.50037 -0.457571)
(0.412517 -0.0618229 -0.852052 4.48863 0.29039 -0.374924 0.205172 -0.150543 -1.88161)
(1.97573 -0.782808 -0.0918958 -0.564491 0.388053 4.9429 -1.26509 -0.222709 -1.99405)
(0.273726 -0.174725 0.478761 -4.51426 0.717592 2.2005 -1.21139 0.120932 -0.676783)
(-0.863762 0.362433 0.598764 4.82805 -0.874881 -3.8698 -1.9034 0.855629 1.62926)
(-0.467009 0.117799 -0.0762578 -1.7061 -0.177201 3.08452 -3.78029 0.373809 1.13767)
(1.24306 -0.144146 -0.234122 2.43598 -2.27191 1.85414 -1.10892 -0.897559 0.862594)
(0.343713 -0.404771 0.0569499 -0.0126554 -1.65863 0.768645 -0.535499 0.144405 -0.115751)
(-2.06331 0.400995 -0.426595 2.4092 -0.109833 -1.72399 -0.81847 0.803203 0.810837)
(0.267585 0.392629 -0.562303 6.05456 -1.65725 1.20956 -1.04702 0.266096 0.836976)
(0.972555 -1.11318 -0.179704 5.96486 -0.519682 2.63025 0.261045 0.086781 -0.736699)
(0.209117 -0.303538 0.504123 2.44213 -0.985604 0.361795 -0.424654 0.439951 -0.454489)
(0.353133 0.639355 0.0524618 10.0306 -1.94013 0.649451 1.00731 0.306215 0.549888)