/*--------------------------------*- C++ -*----------------------------------*\
  =========                 |
  \\      /  F ield         | OpenFOAM: The Open Source CFD Toolbox
   \\    /   O peration     | Website:  https://openfoam.org
    \\  /    A nd           | Version:  10
     \\/     M anipulation  |
\*---------------------------------------------------------------------------*/
FoamFile
{
    format      ascii;
    class       volScalarField;
    location    "15";
    object      pMean;
}
// * * * * * * * * * * * * * * * * * * * * * * * * * * * * * * * * * * * * * //

dimensions      [0 2 -2 0 0 0 0];

internalField   nonuniform List<scalar> 
25600
(
0.000894699
0.00657295
0.0212478
-0.0150705
-0.0159772
0.0110835
-0.00597178
-0.00919692
0.0247204
0.0180472
0.00162815
-0.0104551
-0.00543059
0.0106961
0.00490207
-0.0063861
-0.00124052
-0.00214079
0.00677865
0.0183433
0.00300152
0.00510371
0.00507663
-0.00588695
0.0174479
0.0133924
-0.0169394
-0.0181265
-0.0038372
-0.000883227
-3.60029e-05
-0.00415884
0.00810757
0.0200218
-0.0152833
0.00162537
0.0313447
-0.0198221
-0.0204707
0.018024
-0.00468575
0.00114088
0.0160255
-0.0204145
-0.0214756
0.00552292
-0.0117224
-0.0148911
0.0191823
0.0127434
-0.00353997
-0.0158871
-0.0111524
0.00502197
-0.000339779
-0.0118906
-0.00685528
-0.00770701
0.00117738
0.0126562
-0.00274574
-0.000486398
-0.00042115
-0.0116571
0.0116117
0.0075316
-0.0229419
-0.0241964
-0.00967477
-0.00670507
-0.00606154
-0.0101111
0.0023335
0.0144229
-0.0213467
-0.00417077
0.0262168
-0.0249472
-0.0260465
0.0125508
-0.00410814
0.00194789
0.0167788
-0.0193924
-0.0203504
0.00641159
-0.0109712
-0.0141717
0.0198141
0.0133345
-0.00227314
-0.0146463
-0.0104876
0.00563056
0.000554757
-0.0109577
-0.00576847
-0.00685293
0.0019624
0.0135308
-0.00216825
7.70381e-05
0.000252676
-0.0110129
0.0125343
0.00821659
-0.0225631
-0.0238767
-0.0091071
-0.00548523
-0.0054579
-0.00987127
0.00283198
0.0153611
-0.0203949
-0.00340237
0.0269246
-0.0245668
-0.0260439
0.0132117
-0.00534264
0.0010497
0.0159518
-0.0198678
-0.0206715
0.00623578
-0.011635
-0.0151529
0.0187204
0.0121024
-0.00296464
-0.0144499
-0.0109335
0.00464974
-0.000482725
-0.0115634
-0.00613241
-0.00733314
0.00115486
0.0137764
-0.00258518
-0.00057229
-0.000336339
-0.0116591
0.0127345
0.00795199
-0.0232775
-0.0248043
-0.0105339
-0.00545789
-0.00530864
-0.0109204
0.00175949
0.0146739
-0.0201441
-0.00358756
0.0266505
-0.0244471
-0.027481
0.0123964
-0.00602922
0.000810809
0.0158057
-0.019819
-0.0205494
0.00684779
-0.010885
-0.0145851
0.0191706
0.0121308
-0.00296336
-0.0136611
-0.00993902
0.00474158
-0.00136685
-0.0112085
-0.00485306
-0.00609968
0.00281397
0.0142219
-0.00117807
0.000329908
6.02016e-05
-0.0117446
0.0142751
0.00948594
-0.023006
-0.02559
-0.0110709
-0.00488472
-0.00232455
-0.00906508
0.00138809
0.014919
-0.0176092
-0.002572
0.0262477
-0.024005
-0.0262941
0.0132496
-0.0068196
0.000833621
0.0151348
-0.0206152
-0.0216042
0.00571727
-0.00985704
-0.0135739
0.0194362
0.0122985
-0.00275246
-0.0135878
-0.0092323
0.00452472
-0.003058
-0.0117233
-0.00398253
-0.00456974
0.00519976
0.0114411
-0.00130862
0.00189093
0.000851435
-0.011908
0.0137068
0.00975038
-0.0224229
-0.0277933
-0.0128137
-0.00557128
0.000193294
-0.00769225
0.00100312
0.013324
-0.0172917
-0.00377963
0.0265846
-0.0241275
-0.0258933
0.0137109
-0.00784224
0.00205278
0.0160835
-0.0195116
-0.0209256
0.004389
-0.00852783
-0.0111123
0.019326
0.01196
-0.00157539
-0.0125662
-0.00852121
0.00459328
-0.00446698
-0.0128572
-0.00312091
-0.00353345
0.00679206
0.00908363
-0.00358584
0.00432277
0.00363367
-0.0100555
0.0112357
0.00923453
-0.0208237
-0.0279275
-0.0148902
-0.00586014
0.00204118
-0.0085199
0.00243305
0.0121088
-0.0163175
-0.00436481
0.0259329
-0.0219429
-0.0234945
0.0140803
-0.00859478
0.00244393
0.0158155
-0.018109
-0.0181503
0.0039826
-0.00784755
-0.00807314
0.0205351
0.0109609
-0.00109792
-0.0106907
-0.00865882
0.00398983
-0.00607992
-0.0149537
-0.00328607
-0.00434325
0.00656707
0.00981787
-0.0043205
0.00524544
0.00635803
-0.006905
0.00840209
0.00769014
-0.0197957
-0.0264689
-0.0162148
-0.00564833
0.00297114
-0.00839441
0.00361361
0.0105926
-0.0144991
-0.000412663
0.0249749
-0.0224433
-0.0227187
0.0116044
-0.0103559
0.00258151
0.0153976
-0.0180495
-0.0157029
0.00399097
-0.00688693
-0.00325147
0.023707
0.0116487
-1.00427e-05
-0.00872893
-0.00757306
0.00527888
-0.00402643
-0.0162794
-0.00452637
-0.00615837
0.00636526
0.0117452
-0.00266664
0.00584547
0.00673564
-0.00488929
0.00817164
0.00323211
-0.0190072
-0.0252944
-0.0151332
-0.00485487
0.00245026
-0.00558229
0.00360189
0.00967961
-0.0167918
-0.000278362
0.0226201
-0.0259557
-0.0203818
0.0108665
-0.0121463
0.0019664
0.0162987
-0.0184805
-0.0140856
0.00415488
-0.006584
-0.000201651
0.0272303
0.0117013
0.000835514
-0.00624965
-0.00447598
0.010153
0.000580825
-0.0168166
-0.00709731
-0.0102745
0.00704584
0.0112089
-0.00342434
0.00633372
0.00599872
-0.00588137
0.00872609
-0.000501042
-0.0197442
-0.024903
-0.0130982
-0.00413043
0.00134266
-0.00337825
0.00274432
0.00800392
-0.0189899
-0.00241075
0.018493
-0.0309366
-0.0185909
0.0137998
-0.0133573
-0.000128536
0.0178147
-0.0165712
-0.0119863
0.00507346
-0.00554107
0.000922257
0.0300782
0.0113282
-0.00172987
-0.00249784
-0.00140785
0.0146693
0.00395075
-0.0171307
-0.011607
-0.0149644
0.00605421
0.00974407
-0.00498631
0.00672486
0.00718909
-0.00631565
0.00918355
-0.000591116
-0.0192459
-0.0234391
-0.0125984
-0.00330889
0.00199092
-0.00267403
0.00227678
0.00615321
-0.0184311
-0.00266793
0.0206406
-0.0265741
-0.0138465
0.0160298
-0.0130793
-0.00148096
0.0171802
-0.0148775
-0.0105298
0.0062713
-0.00397614
0.00316931
0.0298422
0.0119341
-0.00386495
-0.00139461
0.00106316
0.0165363
0.00701964
-0.0170424
-0.0158738
-0.0152535
0.00289999
0.0103417
-0.00597301
0.00460079
0.00767231
-0.00542054
0.00972576
0.00107312
-0.0176565
-0.0216499
-0.0126992
-0.00194292
0.00240271
-0.00240493
0.00137864
0.0044498
-0.017145
-0.00348229
0.0198845
-0.0219214
-0.0072792
0.0175869
-0.0119025
-0.000205353
0.0144489
-0.0141215
-0.00781415
0.00883073
-0.00278234
0.00503582
0.0298087
0.0111129
-0.00340834
-0.00251332
-0.000583315
0.0162821
0.011778
-0.0120478
-0.016137
-0.0136083
0.000133287
0.0101348
-0.00774675
0.00167507
0.00803285
-0.00343313
0.0100484
0.00446004
-0.0167654
-0.0213469
-0.0117176
0.000902825
0.00180169
-0.00299501
0.00113013
0.00387763
-0.0139171
-0.00452354
0.0157627
-0.0204298
-0.00584708
0.0158193
-0.0117574
0.00194702
0.0108355
-0.0141107
-0.00498823
0.0114937
-0.00153188
0.00513971
0.0309609
0.0122753
-0.00483065
-0.0032141
-0.00228198
0.0156321
0.0145328
-0.00546962
-0.0118822
-0.0135523
-0.000799979
0.00917875
-0.0103754
-0.00272164
0.00752468
-0.000792104
0.0100644
0.00638831
-0.0157697
-0.0214968
-0.0105623
0.00443622
0.00147972
-0.00499971
0.000436213
0.00226076
-0.0102396
-0.00311778
0.0107761
-0.0204785
-0.00830654
0.0106928
-0.0121287
0.00283184
0.00707854
-0.0149597
-0.00308876
0.0136767
-0.00139712
0.00434342
0.0286691
0.0133832
-0.00569035
-0.0033293
-0.00260348
0.0155013
0.0176429
-0.00170451
-0.00911906
-0.0128698
-0.00109665
0.00897163
-0.0114116
-0.00662418
0.00521092
0.00115048
0.00966154
0.00781772
-0.0121008
-0.019586
-0.00888712
0.00711857
0.00279617
-0.00630871
-0.000395629
0.00266028
-0.00780422
-0.00037935
0.00915734
-0.0190027
-0.010198
0.00550997
-0.00908237
0.00409852
0.00379174
-0.0166007
-0.00117628
0.0161257
-0.00266297
0.000961663
0.0265578
0.00907962
-0.0103123
-0.00256729
0.00229637
0.0166331
0.0175901
-0.00146923
-0.00792521
-0.0103538
-0.00204068
0.00843846
-0.0100345
-0.007543
0.00369039
0.00316859
0.00955057
0.00916087
-0.00668574
-0.0145332
-0.0053028
0.0074864
0.00377442
-0.0068752
-0.00168347
0.00385826
-0.00424322
0.00285369
0.0102858
-0.0148719
-0.00800519
0.00433125
-0.00598829
0.00321157
-0.000687855
-0.0217518
-0.00418051
0.0171885
-0.00145849
-0.00371547
0.024143
0.00779503
-0.0131225
-0.000678873
0.00648946
0.0162842
0.0164652
-0.00091363
-0.00760064
-0.00805274
-0.000257517
0.00834031
-0.00814111
-0.00782652
0.00328249
0.00642638
0.011813
0.00929276
-0.00484388
-0.0108342
-0.00126514
0.00643456
0.00340606
-0.00649923
-0.00250105
0.00384659
-0.00133434
0.00581075
0.00969374
-0.0119106
-0.00517887
0.00490261
-0.00820754
-0.00106051
-0.0058161
-0.0266134
-0.00918021
0.0164911
0.00103091
-0.00550887
0.0203297
0.00913126
-0.014133
-0.00275445
0.00313026
0.0105132
0.0131316
0.000311702
-0.00433378
-0.0051592
0.001757
0.0105964
-0.00327261
-0.00695758
0.00105049
0.00440287
0.0113591
0.00922542
-0.00298097
-0.0083397
0.000564542
0.00786819
0.00662986
-0.00421122
-0.00139801
0.00483616
-0.000763642
0.00545404
0.00771446
-0.00848147
-0.00404445
0.00183491
-0.0110034
-0.00210251
-0.00876212
-0.0315651
-0.0162686
0.0134789
0.0038027
-0.00617526
0.015102
0.00844303
-0.0149314
-0.00527934
0.00162029
0.0054028
0.0101237
0.00126682
-0.00177252
-0.000723489
0.00210441
0.0101639
0.00311346
-0.001273
-7.08007e-06
-0.00187426
0.00589751
0.00756721
-0.00154593
-0.0043176
0.00268647
0.00865277
0.00906887
-0.00200611
-0.00163505
0.00315306
-0.00166101
0.00431176
0.00507726
-0.00435084
-0.000949476
-0.00125453
-0.012491
-0.00467086
-0.0117067
-0.0351978
-0.022122
0.00947705
0.00644909
-0.0066589
0.00811335
0.00502965
-0.01561
-0.00509421
0.00526906
0.00491187
0.00711608
0.000805378
-0.000773783
0.00369098
0.00152893
0.0045759
0.00338416
0.00165926
0.00320761
-0.00233598
-0.00155883
0.00101109
-0.00553802
-0.00529056
0.00327799
0.00582653
0.00575256
-0.00356362
-0.00318224
0.00134755
-0.00176496
0.00489049
0.00255195
-0.00518898
0.00182903
-0.000419535
-0.0102279
-0.00296857
-0.00980878
-0.036164
-0.0282342
0.00492645
0.0100608
-0.00422867
0.00378412
0.0043997
-0.0120659
-0.00359486
0.00751607
0.00682468
0.00679662
-0.000618973
-0.00101662
0.0077642
0.00259543
-0.00214358
0.000931115
0.00146791
0.0049696
-6.95667e-05
-0.00643286
-0.00187359
-0.00163905
-0.00449296
0.00229132
0.00498593
0.00465815
-0.00326767
-0.00247655
0.00152584
-0.00244636
0.00809729
0.00934367
-0.00146404
0.00532941
0.00288367
-0.00967429
-0.0058606
-0.00644996
-0.0302356
-0.0274387
0.00234731
0.0116923
0.000210076
0.00459117
0.00826466
-0.00568434
-0.00338829
0.00623768
0.00338135
0.00307238
-0.00249524
-0.00502947
0.00613569
0.00352483
-0.0076025
-0.00429854
0.00050062
0.00343542
0.000630417
-0.00551768
-0.00118203
0.00432542
0.0014141
0.00508461
0.00845584
0.00732354
5.79342e-05
0.00135729
0.00322268
-0.00385268
0.00910789
0.0128126
0.0011848
0.008595
0.00769826
-0.00715001
-0.00440395
-0.00161198
-0.0248742
-0.0257971
0.000261024
0.0112707
0.00201432
0.00297749
0.00919141
-0.000692215
-0.00417806
0.00393013
0.00357689
0.00449994
0.000175021
-0.00567459
0.00612236
0.00880481
-0.00375098
-0.00374559
-0.001743
0.000634566
0.00259128
-0.000858436
0.0029395
0.00670033
0.0020666
0.0024025
0.0067287
0.00773505
0.00181671
0.00179989
0.00129756
-0.00597892
0.00715871
0.00967974
0.000216619
0.0109848
0.011562
-0.00532047
-0.00463922
0.000167571
-0.0216377
-0.0262276
-0.00410916
0.00837902
0.0057664
0.00488894
0.00787111
-0.000180222
-0.00566789
0.00219126
0.00467375
0.00611243
0.0025813
-0.00537553
0.00760478
0.0132466
-0.00177279
-0.00385606
-0.000981856
0.00350321
0.00717872
0.00244037
0.00449644
0.00881302
0.00130333
-0.000814453
0.00625133
0.00981368
0.00441731
0.00397876
0.00302976
-0.00703097
0.00365718
0.00891126
0.00337155
0.0161111
0.0161002
-0.00924314
-0.0112655
-0.000922167
-0.0136422
-0.0155404
0.00206698
0.00785759
0.00578462
0.00497643
0.00977367
0.00821568
0.000983688
0.00333069
0.00591736
0.00830265
0.00679018
-0.0020253
0.00987068
0.0186564
0.00276116
-0.00305702
-0.00236454
-0.000950784
0.00370194
0.0012554
0.0020059
0.00860077
0.00335072
-0.000564054
0.00523172
0.00784021
0.00364162
0.00638663
0.00835276
-0.00308205
0.00567531
0.0137659
0.00542891
0.0116048
0.0117887
-0.00498842
-0.00631542
0.00539192
-0.00560323
-0.0101272
0.00333781
0.00612743
0.00661319
0.00336481
0.00220663
0.00179052
-0.00265287
0.000626284
0.00303621
0.00460394
0.00498608
-0.00168314
0.00830892
0.0169088
0.00303776
-0.00172794
-0.00077006
8.94463e-05
0.00571808
0.00488719
0.00265305
0.00560536
-0.00178166
-0.00841343
-0.000262504
0.00659715
0.0033772
0.00617531
0.0115247
0.000892188
0.00420161
0.0133596
0.00435039
0.00622538
0.00936343
-0.00681684
-0.00785648
0.00439811
-0.0036563
-0.00817486
0.00353502
0.00400847
0.00795193
0.00784582
0.0046976
0.00583636
0.0029533
0.00240032
-0.000109946
-0.000717112
-0.000343964
-0.00628052
0.00131572
0.0107792
0.00303461
0.000614803
-0.000793825
-0.00167438
0.00397491
0.00437826
0.00313796
0.00930067
0.00676913
-0.00119223
0.00123739
0.0038001
-0.00130091
-0.00194016
0.0052086
0.00102903
0.00339336
0.0134295
0.00382227
0.000678219
0.00390052
0.00692994
0.000641315
0.00745917
-0.000424246
-0.00533622
0.00172272
-0.00100593
0.00392434
0.00745892
0.00318607
0.00339872
0.00410361
0.00694841
0.00557534
0.00640949
0.00699543
0.000574368
0.00605837
0.0116731
0.00509008
0.0056978
0.00415518
0.000656442
0.00516652
0.00272216
-0.00160347
0.00280208
-0.00132371
-0.0093899
-0.00710742
-0.00433655
-0.00461247
-0.00456506
0.00389533
0.00415325
-0.000493147
0.00971819
0.0071943
0.000864328
0.010211
0.00592466
0.00106034
0.00651333
0.000988279
-0.00336123
0.00041155
-0.0050302
-0.000863578
0.00511323
0.00262414
0.00317829
0.00352517
0.0043058
0.00194534
0.00545637
0.00695691
-0.00188463
0.0015533
0.00784272
0.0046054
0.00774466
0.00578475
-0.00136765
0.00499348
0.00496445
0.000396308
0.00961086
0.00841584
-0.000622191
-0.0010246
-0.0028601
-0.000307247
-0.000397669
0.00373434
0.00706358
-0.00246415
0.00485579
0.00787971
-0.00110309
0.00582815
0.00453164
0.00473852
0.00811826
0.00733989
0.00501527
0.00768217
0.00564292
0.00892392
0.0111343
0.00231266
-0.0022696
-0.00266971
-0.00104257
-0.00291084
0.00062659
0.00611783
-0.00125408
-0.00226117
0.00213703
0.0010038
0.00615386
0.00718319
-0.00139478
0.00349972
0.00642594
-0.0028496
0.00389207
0.00734259
0.000544569
0.00236323
-0.00113468
-0.000415583
-0.00221313
-0.000273392
0.0103664
0.0013929
0.000952864
0.00438658
-0.0011264
0.00255904
0.00202264
0.00243895
0.00141286
0.00629773
0.00366625
-0.00169786
-0.00322357
-0.000727037
0.00799907
0.00745089
0.00377633
0.00141916
-0.00121048
-0.00147749
-0.00152856
0.00397721
0.00340835
0.000537124
0.00203085
-0.000695356
-0.000563502
0.00267203
-0.000973465
0.00157101
0.00863037
0.00187316
0.0030861
0.0087715
0.00125181
-0.000402169
0.00161222
0.00621567
0.00399157
0.00125918
0.0113528
0.00633677
0.0022234
0.005484
-0.00042861
-0.00279373
0.0056248
0.00542662
-0.0012731
0.00884357
0.00491588
-0.00421286
-0.000210916
-0.00122244
0.00394859
0.00407376
0.00403506
0.00707276
0.00181164
0.00505848
0.00319488
0.0021208
0.00566243
0.00106959
0.00451026
0.00762013
0.00461182
0.00700983
0.00613112
0.00153605
0.00500004
0.00307334
-0.00167307
0.00605641
0.00441888
-0.00120015
0.00666155
0.0107597
0.00504518
0.00442844
0.0105883
0.00735943
0.00127737
0.00358847
0.0028415
-0.00225902
0.00718176
0.0181995
-0.00546472
-0.0464167
-0.0183362
0.0168513
0.00374261
0.00447273
0.0202254
0.00548137
-0.0261738
-0.0393504
-0.00150161
0.0253584
0.00596136
-0.00708971
-0.00267415
-0.0239482
-0.000886702
0.0134582
0.00196021
0.00126546
-0.0147648
-0.0199476
0.00404821
0.00933041
0.000122982
0.0169865
0.0283753
0.0158289
0.00836761
0.000429038
0.00442056
0.0161837
0.0229465
0.0100357
-0.0253147
-0.0350581
-0.00630688
0.00877073
0.00159831
0.0126931
-0.0112372
-0.0524047
-0.0239934
0.0111746
-0.00172888
-0.00087278
0.0147012
-0.000378953
-0.0321811
-0.045292
-0.00731246
0.0195728
0.000307728
-0.0126219
-0.00851639
-0.0299028
-0.00677814
0.00755986
-0.00381619
-0.00438551
-0.0207823
-0.0261871
-0.00221296
0.00313332
-0.00598598
0.0111691
0.0226219
0.0101988
0.00264952
-0.00546747
-0.00150063
0.0102701
0.0173512
0.0046801
-0.0310671
-0.0411792
-0.011613
0.00326023
0.00291338
0.0135048
-0.0109445
-0.0518473
-0.0223203
0.0121185
-0.00095289
0.000880539
0.0162919
0.000528895
-0.0312183
-0.044513
-0.00608205
0.0207354
0.00110335
-0.0110446
-0.00714665
-0.0290114
-0.00551574
0.00837218
-0.00324654
-0.00331338
-0.0201078
-0.0256216
-0.00142143
0.00361335
-0.00531607
0.0121796
0.0236486
0.0108828
0.00376684
-0.00419048
-0.000769885
0.0105854
0.0179462
0.00575852
-0.0305415
-0.0410907
-0.0106264
0.00473807
0.00345869
0.0129736
-0.0124479
-0.0530852
-0.0213445
0.0122836
-0.00197914
0.00133314
0.0169287
0.000244894
-0.0308021
-0.044795
-0.00568061
0.0207926
0.000565498
-0.0108642
-0.00708855
-0.0285209
-0.0050603
0.00869239
-0.00461479
-0.00444401
-0.0206099
-0.0261224
-0.00186323
0.00341511
-0.00566001
0.0119315
0.0239843
0.0107604
0.00380426
-0.00458922
-0.000369723
0.0100966
0.0171824
0.0054212
-0.0316242
-0.0428915
-0.0121752
0.00391562
0.00461334
0.0137435
-0.0131598
-0.0545666
-0.0197171
0.014852
-0.00204646
0.0016565
0.018412
0.00078299
-0.0298907
-0.0440617
-0.00452361
0.0227855
0.00102426
-0.00991738
-0.00673234
-0.025781
-0.00412493
0.0105432
-0.00332391
-0.00558796
-0.0198253
-0.0236581
-0.000931462
0.00533962
-0.00392841
0.0128031
0.0249777
0.0123537
0.00559234
-0.00548276
0.000873624
0.0114757
0.0180418
0.00659974
-0.0320001
-0.0449966
-0.012757
0.00212876
0.00543525
0.0140743
-0.0137878
-0.0569865
-0.0203412
0.0169587
-0.00123701
0.000593052
0.0188435
0.000360636
-0.0317294
-0.0438205
-0.00504781
0.02368
0.000827346
-0.00945806
-0.00645445
-0.0249703
-0.00474608
0.00963767
-0.00276419
-0.00646507
-0.018874
-0.0186199
0.000940762
0.00619817
-0.0030001
0.0132981
0.0247863
0.0126273
0.00731371
-0.00486081
-0.000589683
0.0132513
0.0186293
0.00756846
-0.0315018
-0.0459829
-0.0127834
0.00216294
0.00621691
0.0148849
-0.0124653
-0.0568248
-0.0214946
0.0181982
-0.000552659
0.00023002
0.018794
0.000477126
-0.0336081
-0.0436752
-0.00499553
0.0233911
0.000430418
-0.00919889
-0.00535156
-0.0257269
-0.00352082
0.00852023
-0.00658178
-0.00669381
-0.0170613
-0.0136022
0.00400653
0.00525694
-0.00361447
0.0134343
0.024085
0.0128029
0.00770821
-0.00310602
-0.000216388
0.0136696
0.0190248
0.00932237
-0.0312462
-0.0436756
-0.0118727
0.00462037
0.00495707
0.015119
-0.00972588
-0.0530371
-0.0215864
0.0186675
-0.00248769
0.000542043
0.0180248
0.000216494
-0.0354225
-0.0449307
-0.00538129
0.0223339
-0.00141071
-0.0105028
-0.00573236
-0.0263009
-0.00125375
0.00965881
-0.010513
-0.0102764
-0.0157419
-0.0108567
0.00547437
0.0042098
-0.00447308
0.0109459
0.0228107
0.0129004
0.00739721
-0.00471346
-0.000204498
0.0134224
0.0201858
0.00841437
-0.0335418
-0.0432825
-0.0104912
0.00550184
0.0024673
0.0139836
-0.00604394
-0.0457603
-0.0187979
0.0185431
-0.00163112
0.000309412
0.0184334
-0.000264983
-0.035028
-0.0455475
-0.00727378
0.021854
-0.00293173
-0.0125454
-0.00621956
-0.0253581
-0.00103817
0.0124546
-0.0102845
-0.0138481
-0.0147752
-0.00742489
0.00598966
0.00383588
-0.00686624
0.00734227
0.0226084
0.0111684
0.00743103
-0.00421459
-0.00283169
0.0122416
0.017979
0.00511319
-0.0409427
-0.0480559
-0.00918024
0.00501523
0.000414989
0.0121735
-0.00330389
-0.0389301
-0.0148096
0.0187378
0.00311774
-0.00216264
0.017913
-0.00118746
-0.0319802
-0.0433818
-0.00794371
0.0230331
-0.0026572
-0.0144875
-0.00645086
-0.0251378
-0.00247291
0.0162053
-0.00761541
-0.0138954
-0.0136993
-0.00320375
0.00699799
0.00113344
-0.0100948
0.00315255
0.0211529
0.00927177
0.00724702
-0.00185013
-0.00391847
0.012021
0.0126966
0.00302092
-0.0477996
-0.050016
-0.00539062
0.00697825
-0.00132552
0.0102936
-0.00169909
-0.0356706
-0.0132509
0.0198671
0.00624091
-0.00201281
0.0156978
-0.00259369
-0.0307154
-0.0395961
-0.0071511
0.0230199
-0.00257402
-0.0152444
-0.00530829
-0.0246049
-0.00274181
0.0182026
-0.00613334
-0.0126905
-0.0131152
-0.00116789
0.0096336
-0.00154052
-0.0108442
-0.00209044
0.0150278
0.00955935
0.00649298
-0.00109698
6.22035e-05
0.0147213
0.0115218
0.00682327
-0.0396084
-0.0428953
-0.00228327
0.00826491
-0.00184671
0.0080186
-0.00297414
-0.0339363
-0.014407
0.0198418
0.00700609
0.000844905
0.0165978
-0.0016118
-0.0316973
-0.036704
-0.00624244
0.021269
-0.00377824
-0.0159997
-0.0035297
-0.0213587
-0.00285211
0.0183462
-0.00691037
-0.0135295
-0.013116
-0.00138285
0.0110004
-0.00174321
-0.01075
-0.00510683
0.008789
0.00940216
0.00445344
-0.00239111
0.00219143
0.0181988
0.0175282
0.00566676
-0.036735
-0.037778
-0.000351917
0.00863254
-0.00235398
0.00659142
-0.00554097
-0.0301404
-0.0137143
0.0182718
0.00741717
0.00238009
0.0186077
0.00136044
-0.0298603
-0.0317769
-0.00566998
0.0194884
-0.0032115
-0.0157597
-0.00298379
-0.0191176
-0.00477655
0.0169479
-0.00676617
-0.014496
-0.0123127
-0.00211172
0.0106431
8.06467e-05
-0.010038
-0.00276973
0.00721996
0.00626142
0.00285131
-0.00501305
0.00102177
0.0193922
0.0162517
-0.00183953
-0.0336359
-0.0326739
0.000862342
0.00799802
-0.0037808
0.00573431
-0.00502479
-0.0268514
-0.0110098
0.0160648
0.00540357
0.0034945
0.018299
-0.000780032
-0.0271333
-0.0227045
-0.00462527
0.0181186
-0.00186475
-0.0141083
-0.00216095
-0.0173794
-0.00684852
0.0135171
-0.00670536
-0.014524
-0.0114458
-0.00393157
0.0083796
0.00129872
-0.00807988
0.00189874
0.00669304
0.00385011
0.00285869
-0.00697163
-8.35073e-05
0.0176008
0.0134786
-0.00597563
-0.0303872
-0.0266428
0.00379286
0.00727979
-0.00273558
0.00610817
-0.0019948
-0.0252081
-0.00907842
0.0160585
0.00539026
0.00352346
0.0172765
-0.00582829
-0.0263072
-0.0151712
-0.00628813
0.0141909
-0.00014498
-0.0117353
-0.000398358
-0.0147861
-0.00742242
0.0103597
-0.00711843
-0.0137658
-0.0110394
-0.0064053
0.00412149
0.000208453
-0.00702918
0.00472479
0.00695218
0.0052172
0.0037405
-0.00651768
-0.000427711
0.0163303
0.015049
-0.0037406
-0.0234573
-0.0224782
0.00506222
0.00852471
-0.00275853
0.0057607
6.0337e-05
-0.0213707
-0.0073567
0.0147583
0.00587415
0.000661774
0.013337
-0.00728986
-0.024638
-0.0115027
-0.00747067
0.00840749
0.000829088
-0.0120098
-0.00018017
-0.0113689
-0.00719134
0.00847388
-0.00593956
-0.0106734
-0.0105838
-0.00951181
-0.000201447
-0.000799698
-0.00786655
0.0050664
0.00979819
0.00677272
0.00449531
-0.00653974
-0.00225901
0.0157447
0.017653
0.00203104
-0.0148466
-0.0184938
0.00518439
0.00897224
-0.00546404
0.0028329
-0.00372238
-0.023381
-0.00965337
0.0124177
0.00513682
-0.000977316
0.0123657
-0.00312318
-0.018916
-0.00680769
-0.00515029
0.00592252
0.00408406
-0.00902955
0.000272762
-0.00610767
-0.00412052
0.00820679
-0.00569813
-0.00632342
-0.00594422
-0.0101384
-0.00452922
-0.00196988
-0.0073256
0.00326142
0.0104446
0.00665508
0.00296106
-0.0082304
-0.0036196
0.0137792
0.0167622
0.00762499
-0.00808392
-0.0138346
0.00561988
0.00701207
-0.00681802
-0.000769789
-0.00869192
-0.0267163
-0.0126971
0.0100067
0.00433525
-0.00218288
0.0133423
0.00346897
-0.0140048
-0.00231197
-0.00135756
0.00562912
0.00759755
-0.0043606
0.000772939
-0.000651399
5.77547e-05
0.00886782
-0.00401483
-0.00413411
-0.00410488
-0.00979616
-0.00709582
-0.00398611
-0.00560676
0.0021429
0.0098162
0.00826772
0.00203213
-0.00931846
-0.00505638
0.0127541
0.0136374
0.00813838
-0.00511491
-0.0115509
0.00659428
0.00643233
-0.00264208
0.00351051
-0.00477737
-0.0229636
-0.0131904
0.00720588
0.00380639
-0.00582116
0.00891888
0.00724643
-0.0121799
-0.00299694
0.000577513
0.00565372
0.0103719
-0.00147265
-3.21804e-05
0.00313432
0.00148295
0.0057362
-0.00022452
0.00109124
0.000282622
-0.0100396
-0.0125639
-0.00751219
-0.00598129
-0.000457573
0.00748274
0.00991611
0.00718791
-0.00522438
-0.00594465
0.00848908
0.0102637
0.00986139
-0.00046007
-0.00899425
0.00737933
0.00798715
0.000261439
0.00672441
0.000445998
-0.0176543
-0.0115879
0.00751529
0.00570645
-0.00774177
0.00457046
0.00795037
-0.0109594
-0.00396694
0.00101121
0.00190386
0.00853608
-0.000159018
-0.0024583
0.00227502
0.000972077
0.00203401
-0.00182819
0.000305532
0.00655609
-0.00365774
-0.0157849
-0.0121181
-0.00724726
-0.00135182
0.00594948
0.00693072
0.00750331
-0.00261096
-0.00303991
0.00642282
0.00668406
0.00903308
0.00195197
-0.0053002
0.00948111
0.0103328
0.00491863
0.0114469
0.00415771
-0.0164572
-0.0141647
0.00474637
0.00627679
-0.00896948
-0.00122197
0.00728627
-0.00563539
-0.00210104
0.00261223
0.0021147
0.00862295
0.000955082
-0.0048756
0.000700873
0.000489483
0.00109458
0.00188845
0.000584625
0.00373704
-0.00143302
-0.0122362
-0.00776402
-0.00253291
-0.00291518
0.00161359
0.000968526
0.00270999
-0.00248366
-0.00254693
0.00359112
0.00326139
0.00931673
0.00269296
-0.00534519
0.010102
0.0134782
-0.00189796
0.00331574
0.00136548
-0.0164669
-0.0171413
0.000152944
0.00677283
-0.00346278
0.000508032
0.00761486
-0.0022179
-0.00273181
0.00095559
-0.000595893
0.0062479
0.000971886
-0.00837236
-0.0021087
0.000664633
-0.00129956
0.00289064
0.0015278
0.00192531
0.000218452
-0.00788125
-0.00297951
0.00536335
0.00219625
0.00153031
0.00226632
0.00346436
-0.000406867
0.000856879
0.00655108
0.0040884
0.0103095
0.00181069
-0.0118434
0.00330938
0.00903084
-0.00547448
-0.000106677
0.00367928
-0.0104244
-0.0105198
0.00479612
0.0118184
0.00337942
0.00399005
0.0106769
0.00406612
0.00122172
0.00322058
0.00162926
0.00841239
0.00524687
-0.00871915
-0.00489632
-0.000160884
-0.0022248
0.00304027
0.000636164
-0.00012889
0.00237739
-0.00239528
6.51814e-05
0.00722169
0.00390698
0.000107856
0.00176456
0.00447251
0.00245097
0.0041266
0.00725702
0.0029185
0.0127367
0.0112488
-0.00293715
0.00484226
0.00643889
-0.000616709
0.00307821
0.00399328
-0.0145286
-0.0172866
-0.00140874
0.00955285
0.00806211
0.00577722
0.00840825
0.00349507
-0.00149716
-0.00116108
-0.0031424
0.00266198
0.00179319
-0.0106442
-0.00239016
0.00316681
-0.00400561
0.00149797
0.002025
0.00104472
0.00333146
-0.00237528
-6.73091e-05
0.00675988
0.00136957
-0.0044624
-0.0030435
0.00110331
-0.00055218
0.00137986
0.00457414
-0.00118392
0.00832756
0.00999998
0.00106626
0.0118542
0.0121171
-0.00591991
-0.00310218
0.00319269
-0.00880546
-0.00780597
0.00765696
0.0128281
0.0113397
0.00834061
0.00918222
0.00821696
0.00472662
0.00445861
0.000306754
0.00422711
0.00383026
-0.0104216
-0.00411628
0.00393385
-0.00523169
-0.00101571
0.00131927
-0.00228478
0.000116291
-0.00331768
0.000533568
0.00993433
0.00521472
-0.00243244
-0.00165086
0.00122766
0.000202459
0.00481042
0.00886023
0.000171952
0.00657224
0.0106193
0.00267629
0.0109642
0.00934613
-0.00626515
-0.0037675
0.00457328
-0.00821442
-0.0111561
0.00288419
0.00746596
0.0112709
0.00977483
0.00636478
0.00503892
0.00133897
0.000475585
-0.00293648
-0.000676852
-0.000840293
-0.0120556
-0.00464662
0.00651905
-0.00181993
0.000549254
0.00330795
0.000783019
0.00502891
0.00244677
0.00111401
0.00565186
-0.00126047
-0.00971157
-0.00431977
0.00470609
0.00445066
0.00475962
0.00813108
-0.00224503
-0.000320837
0.00725167
1.76786e-05
0.00459804
0.00643896
-0.00322531
-0.00301912
0.00588259
-0.00379705
-0.0081329
0.00224283
0.00332718
0.00869787
0.00899539
0.00402347
0.00526747
0.00562045
0.00323389
-0.00384638
-0.00319999
-0.000209888
-0.0101242
-0.0048424
0.00722855
5.9491e-05
0.000865047
0.0034885
0.00115544
0.00628654
0.00577516
0.00398541
0.0103452
0.00799363
-0.0013986
-0.00299123
0.000114931
-0.00156624
-0.00188948
0.00502035
-0.00062031
-0.00114436
0.00824651
0.00147713
0.00244972
0.00708357
0.00388389
0.000933073
0.00707075
-0.000541796
-0.00368394
0.00391808
0.00153384
0.00556722
0.00867256
0.00436752
0.00366826
0.0023871
0.00186071
-0.00142555
0.000855702
0.00472058
-0.00254575
-0.000434149
0.00599327
0.000240156
0.00210055
0.0034816
0.000593533
0.00650064
0.00595913
0.00159527
0.00359349
-0.0020247
-0.00896684
-0.00582518
0.000895983
0.00473934
0.00382393
0.00835315
0.00295572
-0.00525257
0.00570809
0.00450475
0.00209961
0.0100229
0.00213422
-0.00209153
0.00132555
-0.00374434
-0.00593583
0.00084629
-0.000301111
0.00376984
0.00608474
0.000715337
0.00293642
0.00641019
0.00801517
0.00305327
0.00178303
0.00304952
-0.00330775
-0.00106099
0.00534026
0.0017356
0.00452423
0.0049627
-0.00108542
0.00385393
0.0041221
0.000555895
0.00732122
0.00391484
-0.00402121
-0.00408619
-0.00459348
0.000872835
0.00121759
0.00520417
0.00771747
-0.00199206
0.00639353
0.00645462
-0.00350273
0.00273196
0.00428095
0.00282841
0.00374763
0.00422364
0.00362471
0.00576858
0.0049076
0.00802019
0.00939836
0.000289627
-0.00273103
-0.00109269
0.00122881
-0.0001438
0.00032884
0.00438627
-0.00039777
-0.00222924
0.000499659
-0.000471844
0.00405177
0.00583377
-0.00078248
0.00376429
0.00728243
-0.000156967
0.00434413
0.00480246
-0.00236173
0.000608715
0.00163771
0.00644912
0.00360511
0.00204557
0.0100392
0.00107093
0.00268453
0.00765692
0.000324095
0.00219339
0.00398593
0.00382541
-0.000470974
0.00278701
4.58473e-05
-0.00418708
-0.00210119
0.00262205
0.0099698
0.00766891
0.00475387
0.00384232
0.00229642
0.00329229
0.00103451
0.00398172
0.00401748
0.00124959
0.00255978
0.000866621
0.00106474
0.00411855
0.000984919
0.00211629
0.00786142
0.00239328
0.00350059
0.00859407
0.00163484
-0.000618163
0.000800925
0.00517912
0.00263004
-0.00124822
0.00828895
0.00401287
0.00130687
0.00649735
0.000729303
-0.00198932
0.00804778
0.0045484
-0.00386195
0.00618321
0.00358817
-0.00304171
0.00299331
0.00222014
0.00541984
0.00483714
0.00442086
0.00644773
0.00149124
0.0051589
0.00222194
0.00142771
0.00523464
0.000306796
0.00445927
0.00772964
0.00428593
0.00737211
0.00702507
0.00174991
0.00449865
0.00247273
-0.00213674
0.00517121
0.00232855
-0.00312746
0.00505749
0.00916717
0.00520012
0.00462027
0.0106724
0.00787389
0.00190393
0.00553178
0.00533238
0.00140997
-0.00418841
0.00472177
0.021392
-0.0053982
-0.0224234
0.00565757
0.00660518
-0.0082197
0.0121066
0.0124324
-0.0150226
-0.00595425
0.0164846
0.00934438
-0.00065826
-0.00947886
-0.00727704
-0.00294175
0.0137461
0.0183087
0.00200875
-0.0179102
-0.0169317
0.00348574
-0.000351204
-0.0145062
-0.0103077
0.00241523
-0.000889422
-0.0149105
-0.00800457
-0.00837903
0.00205361
0.0117565
-0.0130286
-0.0188161
-0.0113022
-0.00639193
0.021101
0.0278769
-0.00983706
-0.000747889
0.0161681
-0.0109837
-0.0284735
-0.000116139
0.00111668
-0.0139616
0.00597442
0.0064143
-0.0206326
-0.0108686
0.0111172
0.00348591
-0.0060622
-0.0154012
-0.0132074
-0.00876922
0.00777965
0.0124853
-0.00376273
-0.0238974
-0.0228708
-0.00204957
-0.00619095
-0.0204288
-0.0162506
-0.00357173