/*--------------------------------*- C++ -*----------------------------------*\
  =========                 |
  \\      /  F ield         | OpenFOAM: The Open Source CFD Toolbox
   \\    /   O peration     | Website:  https://openfoam.org
    \\  /    A nd           | Version:  10
     \\/     M anipulation  |
\*---------------------------------------------------------------------------*/
FoamFile
{
    format      ascii;
    class       volSymmTensorField;
    location    "15";
    object      UPrime2Mean;
}
// * * * * * * * * * * * * * * * * * * * * * * * * * * * * * * * * * * * * * //

dimensions      [0 2 -2 0 0 0 0];

internalField   nonuniform List<symmTensor> 
25600
(
(0.0020426 -0.000800091 0.000681636 0.000398875 -0.00035836 0.000911213)
(0.00234223 -0.000897771 0.000399169 0.000435279 -0.000202442 0.000644509)
(0.00272994 -0.000969939 -3.35528e-05 0.000436746 -1.63627e-05 0.000522367)
(0.00287357 -0.000973624 8.34595e-05 0.000439697 -0.000113739 0.000551438)
(0.00343665 -0.00105126 0.00061648 0.000436731 -0.000329623 0.000724961)
(0.00323354 -0.00094789 0.000748426 0.000423045 -0.000383851 0.000857473)
(0.00373663 -0.00108905 0.000894227 0.000445979 -0.000409576 0.000895599)
(0.00386689 -0.00111458 0.00102678 0.000437521 -0.000452642 0.00100893)
(0.00388204 -0.00109073 0.000882753 0.000413113 -0.000418954 0.000997235)
(0.00351289 -0.00099279 0.000692772 0.000401554 -0.000355543 0.000824973)
(0.00304686 -0.000930635 0.000626035 0.000410586 -0.000300424 0.000648375)
(0.00302705 -0.000933431 0.000617665 0.000422647 -0.000285728 0.000613692)
(0.00319165 -0.000974894 0.000919673 0.000422482 -0.000438792 0.000936913)
(0.00255929 -0.000834123 0.00103645 0.000408306 -0.000536335 0.00113873)
(0.00196087 -0.000710165 0.000682899 0.000429388 -0.000416626 0.000845199)
(0.00185612 -0.000680129 0.00065714 0.000437495 -0.000416716 0.000837229)
(0.00190468 -0.000723701 0.00082593 0.000431777 -0.000460834 0.00094249)
(0.00182971 -0.000729388 0.000842478 0.000426671 -0.000433961 0.000954449)
(0.00142862 -0.000565585 0.000680553 0.000419327 -0.000500857 0.00113458)
(0.00164281 -0.000579696 0.00058941 0.000384741 -0.000447303 0.00108876)
(0.00165311 -0.000661881 0.000592127 0.000419672 -0.000362283 0.000746041)
(0.00120806 -0.000483537 0.000359244 0.000407267 -0.000253589 0.000635326)
(0.000990594 -0.00034427 4.93975e-05 0.000408973 -0.000102194 0.000579116)
(0.000772968 -0.000263934 0.000183958 0.000393943 -0.000211843 0.000653294)
(0.000451675 -0.000110649 0.000157432 0.000401065 -0.000329246 0.000863109)
(0.000439709 -6.97059e-05 -6.86784e-05 0.000411476 -0.00038242 0.00107897)
(0.000619042 -0.000126259 -9.65621e-05 0.00043297 -0.000332393 0.000778412)
(0.0010991 -0.000370514 -7.02579e-05 0.000432254 -0.000325257 0.000858918)
(0.00166369 -0.000589823 0.000143855 0.000441761 -0.000341431 0.000958643)
(0.00191367 -0.000625479 3.06565e-05 0.000460215 -0.000225186 0.000635591)
(0.00137738 -0.000356392 -0.000102704 0.000457758 -9.26828e-05 0.00043051)
(0.0013707 -0.000382578 -0.00012886 0.000464753 -5.73759e-05 0.00037267)
(0.00147569 -0.000533744 7.10815e-05 0.000456969 -0.000117226 0.00036643)
(0.00142141 -0.000660118 0.000206927 0.000478265 -0.000155428 0.000362249)
(0.0015993 -0.000777827 0.000519382 0.000483403 -0.000351587 0.000625227)
(0.00217447 -0.000910201 0.000453545 0.000453054 -0.000261632 0.000568075)
(0.00205306 -0.000855297 -7.68528e-07 0.000423682 -3.30715e-05 0.000377358)
(0.00223328 -0.000943525 -0.000161282 0.000467334 7.13096e-05 0.000332455)
(0.00274157 -0.00104723 5.93725e-05 0.000461739 -1.06066e-05 0.000348431)
(0.00218966 -0.000853794 0.000317145 0.000405237 -0.000184988 0.000514005)
(0.00687252 0.00121015 -0.00150449 0.000367462 -0.000225805 0.00104148)
(0.00839758 0.00140316 -0.00283109 0.000365275 -0.000559106 0.00179456)
(0.0102309 0.00150018 -0.0041775 0.000374301 -0.000764801 0.00270005)
(0.0107326 0.00150332 -0.00349356 0.000394551 -0.000564835 0.00215008)
(0.0103218 0.00137067 -0.00165622 0.000398559 -0.000205044 0.00127867)
(0.00985936 0.0012187 -0.0011463 0.000403007 -0.000113744 0.00112283)
(0.0120262 0.00139627 -0.00129364 0.000372987 -6.66312e-05 0.0013914)
(0.0120231 0.00145248 -0.00163874 0.000393344 -7.46188e-05 0.00162343)
(0.0122618 0.00152768 -0.00249795 0.00044004 -0.00020371 0.00193401)
(0.0109967 0.00142133 -0.00265199 0.000451948 -0.000360976 0.0018356)
(0.00906551 0.00130429 -0.00210897 0.000442467 -0.000400003 0.00138416)
(0.00848438 0.00114616 -0.00166924 0.000397217 -0.000321088 0.00128895)
(0.0091281 0.00120924 -0.00132744 0.000389475 -0.000115827 0.00134044)
(0.00760142 0.00109801 -0.00123853 0.000440297 -0.000123023 0.00132487)
(0.00565051 0.000783584 -0.00129141 0.00041527 -0.000298667 0.00141671)
(0.00401588 0.000433299 -0.000715464 0.000396762 -0.000121286 0.00132969)
(0.00438707 0.000700922 -0.000810658 0.000436108 -0.000100748 0.00140091)
(0.00454789 0.000869166 -0.0011768 0.00045758 -0.000199765 0.00145553)
(0.0037792 0.000438917 -0.00107301 0.000449955 -1.29917e-05 0.00133605)
(0.00428229 0.0004492 -0.00116467 0.000431006 -9.94516e-06 0.00134337)
(0.00469643 0.000781867 -0.00116862 0.00049254 -0.000286683 0.00119855)
(0.00373995 0.000577879 -0.00117167 0.000484212 -0.000582956 0.0016216)
(0.00276752 0.000236795 -0.00104366 0.000457189 -0.00075732 0.00233638)
(0.00228479 -9.94942e-05 -0.000399959 0.000451701 -0.000484955 0.00177678)
(0.00191538 -0.000438475 -0.000363753 0.000512815 -0.000362751 0.00177812)
(0.00300083 -0.000638378 -0.000853874 0.000469131 -0.000187449 0.00152232)
(0.00369725 -0.000695953 -0.000615267 0.000413216 -0.000268229 0.00125888)
(0.00468994 -0.000425402 -0.00121525 0.000390807 -0.000294335 0.00132313)
(0.00483218 0.000155048 -0.00164602 0.000402068 -0.000249492 0.00140096)
(0.00577385 0.000520643 -0.00162658 0.000419823 -0.000311285 0.00134064)
(0.00456409 -1.39671e-05 -0.00104028 0.000453701 -0.000566279 0.00180219)
(0.00428343 -0.000246921 -0.000861004 0.000451995 -0.000765102 0.00254426)
(0.00314859 -1.97952e-06 -0.000973368 0.000428796 -0.000726157 0.00236594)
(0.00241499 0.00042328 -0.00133679 0.000430484 -0.000607508 0.00191535)
(0.00248839 0.000515984 -0.00122349 0.000419963 -0.000301231 0.00130733)
(0.00417088 0.000922088 -0.00211907 0.000494115 -0.000576128 0.00184082)
(0.00620549 0.00128437 -0.0036598 0.000479046 -0.000966478 0.00275392)
(0.00759237 0.00129604 -0.00413458 0.000344032 -0.000906964 0.0030421)
(0.00823218 0.00141898 -0.00366147 0.000350513 -0.000772618 0.00240907)
(0.00726526 0.00130167 -0.00237307 0.000385459 -0.00047351 0.00143854)
(0.0111146 -0.00163454 -0.00298922 0.000317277 0.000532403 0.00171939)
(0.013661 -0.00198581 -0.00505197 0.000366801 0.000859406 0.00313522)
(0.0163382 -0.00213852 -0.00653516 0.000347198 0.000956651 0.00409724)
(0.0155737 -0.00208055 -0.00546718 0.000336006 0.000768286 0.00323932)
(0.0100203 -0.00152007 -0.00242955 0.000318431 0.000421657 0.00161172)
(0.00900851 -0.00131999 -0.00170434 0.000283583 0.000370017 0.00140819)
(0.0132124 -0.0018924 -0.00256981 0.000337435 0.000419761 0.00162366)
(0.0115102 -0.00160878 -0.00289285 0.000311123 0.000415547 0.00196205)
(0.0116021 -0.00133865 -0.00398606 0.000226228 0.000473873 0.00278276)
(0.010513 -0.00117306 -0.00458704 0.000183296 0.000610168 0.00329154)
(0.00945563 -0.00120695 -0.00411456 0.000206014 0.000657722 0.00293403)
(0.00905397 -0.0013817 -0.0030955 0.00028624 0.000553159 0.00204564)
(0.00839739 -0.00139263 -0.00215721 0.000319833 0.00034573 0.00153002)
(0.00809865 -0.00113573 -0.00234694 0.000234434 0.00035355 0.00167351)
(0.00808603 -0.00126135 -0.00365472 0.000268943 0.000655588 0.00284704)
(0.00320089 -0.000453614 -0.00117972 0.000342126 0.000428401 0.00182336)
(0.00349344 -0.000374668 -0.00112076 0.000311766 0.000176574 0.00148927)
(0.00431753 -0.000710102 -0.00173567 0.000246119 0.000344594 0.0017478)
(0.00325248 -0.000415857 -0.00126236 0.000248617 0.000328267 0.00146973)
(0.00336003 -0.00014443 -0.000909702 0.000221367 0.000183827 0.00102795)
(0.00455366 -0.000441031 -0.00156941 0.000218819 0.000225252 0.00111414)
(0.00495755 -0.000697651 -0.00234497 0.000194059 0.000528467 0.00228292)
(0.00343855 -0.000527898 -0.00195184 0.000222468 0.000675432 0.0034313)
(0.00243799 -8.1314e-05 -0.000947651 0.000205627 0.000456726 0.00252254)
(0.00362155 0.000200016 -0.000867483 0.000158452 0.000336968 0.00226258)
(0.00443989 0.000224991 -0.000828676 0.000216371 0.000287202 0.00146486)
(0.00435688 0.000411359 3.86438e-05 0.000313561 0.000412369 0.00122695)
(0.00707249 0.00065051 0.000699816 0.0003728 0.000573738 0.00143432)
(0.0058604 0.000464782 0.000460752 0.00037842 0.000565071 0.00150628)
(0.00377159 -8.65008e-05 -0.000238574 0.000349198 0.000374426 0.00110298)
(0.00338216 1.1723e-05 -0.000355292 0.000252999 0.000375725 0.00133864)
(0.00354384 7.84577e-05 -0.000200666 0.000258282 0.000572524 0.00229739)
(0.00300336 0.00027583 0.000590548 0.000279617 0.000805888 0.00335464)
(0.00163569 0.000128281 7.30112e-05 0.000314505 0.000890951 0.00349842)
(0.00274919 0.000334087 -0.000216707 0.000345515 0.000490694 0.00173491)
(0.00363749 0.000130098 -0.000178552 0.000238823 0.00050347 0.00222818)
(0.00603363 -0.000779444 -0.00391657 0.000178824 0.000789514 0.00450375)
(0.011558 -0.00179471 -0.00657892 0.000365152 0.00125815 0.00526983)
(0.012924 -0.00198137 -0.00643631 0.000364515 0.00114066 0.00457662)
(0.0132632 -0.00176048 -0.0047526 0.000280781 0.000747955 0.00273321)
(0.0107029 0.000502474 -0.00331362 0.000133799 -0.000376362 0.00270754)
(0.00983167 0.000216652 -0.00425708 0.000113078 -0.000418309 0.00428489)
(0.0130395 0.000582705 -0.00632791 0.000161261 -0.000677809 0.00547767)
(0.013688 0.00079139 -0.00605465 0.000211824 -0.00065431 0.00450328)
(0.00700222 0.000401542 -0.00251347 0.000220472 -0.000407881 0.00239852)
(0.00471923 -9.33753e-05 -0.000953526 0.000220109 -0.000301438 0.00186661)
(0.0068223 0.000190952 -0.00207262 0.000193452 -0.000136886 0.00175452)
(0.00623001 0.000405072 -0.00230054 0.000251245 -0.000300429 0.00201038)
(0.00646992 0.000373591 -0.00278822 0.000306192 -0.000442344 0.00269053)
(0.00703184 0.000671489 -0.0037779 0.000368775 -0.000803006 0.00367196)
(0.00838449 0.000800407 -0.00484437 0.000356063 -0.00102881 0.00472453)
(0.00735646 0.000306354 -0.00300823 0.000193717 -0.000425223 0.00250962)
(0.0051032 7.80467e-05 -0.0012932 0.000144204 -0.000110925 0.00155991)
(0.00581723 0.000307104 -0.00146652 0.000193226 -0.000195383 0.0017966)
(0.00832949 0.000747658 -0.00422534 0.000271533 -0.00064225 0.00377713)
(0.0031694 6.38435e-05 -0.00144483 0.000214729 -0.000372979 0.00259422)
(0.00366893 -0.000441163 -0.00056425 0.000162205 -1.65157e-05 0.00136192)
(0.00266665 -0.000159581 -0.000351102 0.000188784 -9.70805e-05 0.00160414)
(0.00296126 -0.000273793 -0.000376263 0.000233792 -0.000289421 0.00204867)
(0.00510175 -0.000731435 0.000387877 0.000200202 -0.000115848 0.00109534)
(0.00466018 -0.00055356 -0.000956145 0.000237199 2.99862e-05 0.000823153)
(0.00403045 -5.1431e-05 -0.00130542 0.000286949 -0.000413157 0.00181514)
(0.00295345 8.04772e-05 -0.00132879 0.000254202 -0.000663462 0.00314794)
(0.00276919 -0.00020453 -0.000675611 0.000237137 -0.000440094 0.00235799)
(0.00539521 -0.000867936 -0.0010251 0.000278997 -0.000117949 0.00175647)
(0.00699825 -0.00112316 -0.000742237 0.000268201 5.94103e-06 0.00115291)
(0.00488568 -0.00080115 0.000468313 0.00020666 -0.000160871 0.000901275)
(0.00572482 -0.000805101 0.00107842 0.000163885 -0.000209931 0.00131449)
(0.00905219 -0.00102934 0.00227962 0.000169911 -0.0002847 0.00215395)
(0.00865068 -0.00106241 0.00168787 0.00018806 -0.000264794 0.00159632)
(0.00885493 -0.00128702 0.000972726 0.000261619 -0.000240609 0.00118804)
(0.00594303 -0.00112285 0.000641562 0.000300972 -0.000262429 0.00139687)
(0.00396016 -0.000790279 0.000966102 0.000239279 -0.00035056 0.00189053)
(0.00279405 -0.000575402 0.00153604 0.000205559 -0.000579234 0.00348943)
(0.00758299 -0.00115895 0.00170773 0.000228341 -0.000314523 0.00198092)
(0.0263581 -0.00252035 0.00153433 0.000285795 -0.000198358 0.00144867)
(0.00583971 -0.000790099 0.00180488 0.00022072 -0.000715921 0.00402035)
(0.00749034 0.00023519 -0.00444521 0.000107583 -0.000652225 0.00675185)
(0.00655873 0.000505787 -0.00392328 0.00019 -0.000946833 0.00628884)
(0.0121885 0.00103645 -0.00449922 0.000237662 -0.00072928 0.00357895)
(0.00985415 -0.00106498 -0.00266296 0.000186822 0.00039959 0.0027178)
(0.00552854 -0.000647897 -0.00100421 0.000313714 0.000857915 0.00494875)
(0.00528064 -0.000652969 -0.00208725 0.000242319 0.000849157 0.00695295)
(0.00844508 -0.000871718 -0.00449402 0.000188607 0.000478595 0.00542771)
(0.00785301 -0.000664244 -0.00363498 0.000182171 0.00030582 0.00381313)
(0.00419153 -0.000457275 -0.000923654 0.000202172 0.000393875 0.00329287)
(0.00416505 -0.000316511 -0.000537907 0.000231402 0.000406404 0.00184087)
(0.00363945 -0.000243481 -0.000499354 0.000133574 0.000195122 0.00152623)
(0.00405495 -0.000316622 -0.000508885 0.000131077 0.00015148 0.00163262)
(0.00393596 -0.000433305 -0.00111688 0.000115606 0.000194485 0.0022381)
(0.00702482 -0.000335721 -0.0040441 0.000111156 -1.92402e-05 0.00463896)
(0.00826272 -0.000669422 -0.00366611 0.000117787 0.000206241 0.00350578)
(0.00531802 -0.000893434 -0.00108996 0.000269353 0.000198392 0.00153129)
(0.00487261 -0.000819257 -0.000738454 0.000238975 0.000161825 0.00139272)
(0.00727592 -0.000738441 -0.00340784 0.000178035 0.000305848 0.00320158)
(0.00409031 -0.000616392 -0.00234729 0.000221192 0.000345003 0.00332702)
(0.00390959 1.02134e-06 -0.000141692 0.000250879 9.60679e-05 0.00125997)
(0.00398876 -3.72271e-06 -0.00069997 0.000228472 -3.22936e-05 0.00171932)
(0.00311353 -0.000248548 -0.000352944 0.000211038 0.000185647 0.00182579)
(0.00526237 0.000175186 0.000873384 0.000234769 0.000231333 0.00174439)
(0.00636103 0.000295993 4.72535e-05 0.000187625 0.000149467 0.00104716)
(0.00573799 -9.66277e-05 -0.000527969 0.000129393 0.000161397 0.00136914)
(0.00311571 -0.000184415 -0.00049345 0.000140702 0.000328163 0.00277897)
(0.00378423 -0.000162493 -0.000133356 0.000140066 0.000225538 0.00248191)
(0.00698638 -0.000262781 -0.000525964 0.000150604 9.07882e-05 0.00153457)
(0.0102894 0.000109768 -0.00154311 0.000204955 -3.3506e-05 0.00129871)
(0.00611525 0.000246881 -0.000352904 0.000261561 -8.62098e-05 0.000850977)
(0.00442213 1.20629e-07 0.00052239 0.000317044 7.72676e-05 0.000937155)
(0.00728126 0.000306089 0.00227356 0.000333227 0.000325062 0.00210984)
(0.00859607 0.000455645 0.003206 0.000216006 0.000311723 0.00252677)
(0.01381 0.000494245 0.00296896 0.000122215 0.000133542 0.00162348)
(0.0140366 0.000340136 0.00178255 0.000135447 7.56304e-05 0.00147303)
(0.00555594 0.000218361 0.000453219 0.000131493 8.19145e-05 0.00134646)
(0.00236794 6.20107e-05 0.000665002 0.00015696 0.00027343 0.00206414)
(0.00572914 -9.38865e-05 0.00212868 0.000126315 0.000205747 0.00273121)
(0.0306016 -0.000330131 0.00144493 0.000118844 4.18005e-05 0.00118159)
(0.0179755 0.000706046 0.00283664 0.000180668 0.00026416 0.00166138)
(0.00549053 0.000259754 0.00243588 0.000356012 0.00114236 0.00595385)
(0.0119448 0.000600828 0.00833116 0.000181047 0.000806691 0.00949672)
(0.00438668 -0.000311665 4.55894e-05 0.000115068 0.000230184 0.00455732)
(0.00463088 -0.000378825 5.36747e-05 0.000100876 -0.000166097 0.00298098)
(0.00478039 -0.000300831 0.000631381 0.000105832 -8.80633e-05 0.00389923)
(0.00676011 -0.000359257 0.00403312 0.00012367 -0.000109139 0.00724101)
(0.00395839 -0.000450896 0.00140936 0.000190649 -0.000332572 0.00580503)
(0.0049148 9.32371e-05 -0.00220837 0.000296211 -0.000673517 0.00465261)
(0.00453381 -1.87086e-06 -0.00189586 0.000263213 -0.000661412 0.00566245)
(0.00406499 -0.00028414 -1.77288e-05 0.000172037 -0.000277916 0.00405522)
(0.00466375 -0.000748446 0.000865141 0.00029192 -0.000382005 0.00215521)
(0.00627595 -0.000968894 0.000555836 0.000279257 -0.000151909 0.00153891)
(0.00590331 -0.000816149 7.48014e-05 0.000183749 9.47597e-06 0.00137972)
(0.00379729 -0.000483688 0.000134093 0.000314059 -0.000527037 0.00259459)
(0.00720493 0.000575771 -0.00310084 0.000297132 -0.000829951 0.00384139)
(0.00599332 -0.00015945 -0.00123235 0.000123252 -0.000121979 0.00181325)
(0.00383338 -0.000173215 -0.000351129 0.000125749 -8.73056e-05 0.00125401)
(0.00524143 0.000212476 -0.00216419 0.000262495 -0.000504469 0.00258884)
(0.00478396 0.000127638 -0.00279636 0.000276785 -0.000599278 0.00407492)
(0.00366656 -0.000433761 -0.000250446 0.000207813 -0.000205223 0.0020968)
(0.00420324 -0.000307827 -0.00104247 0.000133934 2.50419e-05 0.00207015)
(0.00336749 -0.000328617 -0.000688411 0.000154283 1.14887e-05 0.0020195)
(0.00469846 -0.000326712 0.000654492 0.000150947 4.8783e-06 0.00224116)
(0.00544164 -0.000375165 0.0010179 0.00015592 -1.68433e-05 0.00191895)
(0.00713998 -0.000500726 0.00024311 0.000126012 7.4645e-06 0.00131798)
(0.00498173 -0.000457196 0.000771669 0.000109808 -0.000107067 0.00177652)
(0.00587929 -0.000683245 0.000865007 0.000161752 -0.000271393 0.00254121)
(0.00840646 -0.00145027 0.00044389 0.000414258 -0.000337398 0.00189741)
(0.0118701 -0.00150226 -0.00116131 0.000310799 6.90297e-05 0.00145995)
(0.00958305 -0.000599842 -0.00137107 0.00017237 4.58077e-05 0.00137491)
(0.0060407 -0.000631701 -0.000482802 0.000222051 -9.30734e-07 0.00151522)
(0.00813185 -0.000778188 0.00129591 0.000252424 -0.00011316 0.00165188)
(0.0111919 -0.000958795 0.0034022 0.000222722 -0.000226906 0.00280524)
(0.0108334 -0.00128369 0.00323774 0.000239463 -0.000368707 0.00212142)
(0.0146821 -0.00153049 0.00266257 0.000257267 -0.000265675 0.00176787)
(0.00877114 -0.00077145 0.000356403 0.000154669 -6.2785e-05 0.00138523)
(0.00261965 -0.00030941 0.000330056 0.000118484 -9.17305e-05 0.00131771)
(0.00478811 -0.000858623 0.00163316 0.000290189 -0.000503714 0.0025545)
(0.0239301 -0.00330777 0.00272871 0.000524469 -0.000442898 0.00151215)
(0.0179157 -0.00100066 0.00173582 0.000134832 -0.000115832 0.00135802)
(0.00529907 -0.000393111 0.000164747 0.000101455 -1.25705e-06 0.0032438)
(0.0297314 -0.00156295 0.0134135 0.00017351 -0.000683909 0.00857945)
(0.0341097 -0.00151886 0.0134868 0.00014738 -0.000586138 0.00738101)
(0.00612347 0.000358149 0.00293951 0.000279998 0.000575938 0.00347876)
(0.0038508 -0.000185822 0.000406516 0.000243018 0.000219272 0.00208868)
(0.00609156 -4.83551e-06 0.00309369 0.000290623 0.000337119 0.00457065)
(0.00604428 1.54154e-05 0.00375651 0.000360494 0.000543321 0.00569173)
(0.00291483 -0.000292282 0.000379141 0.000284567 9.28067e-05 0.00550805)
(0.0038551 -0.000274643 -0.00183811 0.000294427 -9.08174e-06 0.00714846)
(0.00384778 -0.000302118 -0.000190575 0.000235658 0.000213981 0.00640367)
(0.00399946 -0.000534532 0.00105305 0.000273603 -0.000260731 0.00370736)
(0.00404697 -0.000641951 0.000597257 0.000274687 -6.29979e-05 0.00214875)
(0.00667059 -0.000557464 0.000105104 0.000208239 0.000149409 0.00135852)
(0.0101578 -0.000475772 0.00119835 0.000192505 6.66202e-05 0.00150823)
(0.00352725 -0.000410748 -0.000346998 0.000179601 -0.000190548 0.0030927)
(0.00691551 -0.000717713 -0.00197918 0.000220173 0.000110826 0.00213238)
(0.00303787 -0.000417895 -0.000805539 0.00021739 4.98848e-05 0.00184061)
(0.00339292 -0.000220015 -0.00138885 0.000279355 -0.000378477 0.00320056)
(0.00461594 -0.000181587 -0.00311526 0.00025538 -0.000337812 0.00527428)
(0.00346507 -0.000398402 -0.000324211 0.000225446 1.14445e-05 0.00277701)
(0.0033232 -0.000218191 -0.000309593 0.000287817 -2.75015e-06 0.00177222)
(0.00353201 -0.000498457 -0.000792616 0.000329446 9.97751e-05 0.00177782)
(0.00365358 -0.000425518 -0.000221356 0.000384948 0.000345977 0.00241935)
(0.00313293 -0.000232334 0.000675693 0.000319377 0.000342838 0.00312583)
(0.00628402 -0.000300743 0.00093409 0.000217123 0.000225046 0.00183843)
(0.00550917 -8.65121e-05 0.000566292 0.000212984 0.000200148 0.00153305)
(0.00706636 -0.000330166 0.00134706 0.000205653 9.9623e-05 0.00219331)
(0.00817864 -0.00112779 0.00134022 0.000369707 -0.000314582 0.00182338)
(0.00668925 -0.000860678 2.69194e-05 0.000323949 -0.000108327 0.00124991)
(0.0104323 -0.000170501 -0.000873454 0.000291953 -2.31626e-05 0.00118754)
(0.0105638 -0.000105744 -0.00171039 0.000355684 -0.000135554 0.00192482)
(0.00981191 -0.000307906 -0.00111311 0.000348623 -2.01085e-06 0.00190389)
(0.0131752 -0.000174647 0.00138384 0.00029364 7.09504e-05 0.00178694)
(0.0105287 -0.000406191 0.00268926 0.000206238 -0.000109495 0.00189563)
(0.011077 -0.000504287 0.00233694 0.000219917 -9.5414e-05 0.0018593)
(0.00994569 0.000172137 0.000266101 0.000201995 1.12131e-06 0.00130093)
(0.00390959 0.000121637 0.000281917 0.000184639 5.63199e-05 0.00111278)
(0.00545172 -0.000588615 0.00147886 0.000180717 -0.000111639 0.00186882)
(0.0176624 -0.00207696 0.00295752 0.000339005 -0.000362618 0.0016792)
(0.0163823 -9.55157e-05 0.001536 0.000183165 5.1041e-05 0.00110213)
(0.00564686 -0.000486635 -6.47409e-05 0.000298352 0.000274851 0.00170926)
(0.0122327 -0.000910684 0.00400183 0.000199057 -0.000338861 0.00332414)
(0.0444612 -1.59746e-05 0.0134279 0.000133439 7.97378e-05 0.00564687)
(0.00768835 0.000254226 0.00364354 0.000192825 0.000353234 0.00333607)
(0.0040934 -0.000170846 0.000624821 0.000158012 -4.66974e-05 0.00156753)
(0.0048024 -0.000397018 0.00152189 0.000241887 -0.000211364 0.00226294)
(0.00534397 -0.000333106 0.00252687 0.000303677 4.87688e-05 0.00366637)
(0.00346437 -0.000346733 0.00217493 0.000278248 -0.000187925 0.00548818)
(0.00260517 -0.000191826 3.9168e-05 0.000289307 -0.000536729 0.00780238)
(0.0031852 -0.000232508 0.000746696 0.000234185 -0.000556336 0.00819214)
(0.00476592 -0.00079304 0.00229665 0.000370096 -0.000726634 0.00514592)
(0.0039598 -0.000677497 0.000410563 0.000497995 -0.000319512 0.00217914)
(0.00375509 -0.000462334 0.000467542 0.000280712 -0.000106607 0.0014906)
(0.0110908 -0.00092751 0.00188378 0.00017366 -0.000123481 0.00146837)
(0.00534372 -0.000515317 0.00180991 0.000137544 -0.000172743 0.00229945)
(0.00383376 -0.000335858 -0.000230755 0.000151695 -0.000139936 0.00219403)
(0.00233091 -0.000351988 0.000527351 0.000247065 -0.000271095 0.00196358)
(0.00408089 -0.00106727 0.00139399 0.000666368 -0.000853255 0.00302014)
(0.00280643 -0.00012829 -0.00103726 0.000579329 -0.00121135 0.00544977)
(0.00336787 -0.000364776 -1.38118e-05 0.000266336 -0.000278397 0.00303394)
(0.00323154 -0.000418396 2.15014e-05 0.000276064 7.02489e-05 0.00141563)
(0.00414473 -0.000528967 -0.000899297 0.000319963 0.000166227 0.0016456)
(0.00457174 -0.000638985 -0.00170583 0.000330383 0.000337589 0.00303519)
(0.00389874 -0.000500347 -0.00122323 0.000269832 0.000357232 0.00473941)
(0.00528082 -0.000570588 0.000741871 0.000214014 7.07215e-05 0.00221349)
(0.00566913 -0.000403278 0.000395789 0.000170005 8.73546e-05 0.00120339)
(0.00565159 -0.000620253 0.00112565 0.000199176 -9.32448e-05 0.00168351)
(0.0085985 -0.0017506 0.00150385 0.000547517 -0.000434828 0.00146065)
(0.00407329 -0.00113835 0.000162597 0.000638114 -2.39516e-05 0.00131446)
(0.00782044 -0.00112142 -0.000119876 0.000368854 3.53246e-05 0.00143811)
(0.015309 -0.00098552 -0.00111879 0.000340174 -1.02121e-05 0.00198224)
(0.0129151 -0.00127475 -0.00271954 0.000432212 0.000227963 0.00253638)
(0.0136066 -0.00117774 -0.000532733 0.00040618 4.66042e-05 0.00176686)
(0.0106758 -0.00104933 0.00163203 0.000316108 -0.000222562 0.00170225)
(0.00772378 -0.000806499 0.00177736 0.00025491 -0.000161159 0.00169086)
(0.0103977 -0.000549773 0.000399336 0.000204403 -7.76228e-05 0.00134246)
(0.00635872 -0.000235467 1.7678e-05 0.000155589 -8.74863e-05 0.00138185)
(0.00607514 -0.00128043 0.00123757 0.000385151 -0.000346184 0.00188604)
(0.0165014 -0.00323372 0.00320696 0.000728627 -0.000666949 0.0021521)
(0.0182638 -0.00052214 0.00194178 0.000208559 1.16405e-05 0.00118235)
(0.00546213 -0.000532761 -2.40978e-05 0.000260588 0.00011215 0.00104487)
(0.00558585 -0.000989388 3.97568e-05 0.000478752 -8.85534e-05 0.000791138)
(0.0281739 -0.00256378 0.00675963 0.000311471 -0.000620404 0.00259737)
(0.00633561 0.000376145 0.00268713 0.000397465 0.000616361 0.0030788)
(0.0042476 -0.000161278 0.000672478 0.00030889 0.000151447 0.00155577)
(0.0046737 -0.000325705 0.000892765 0.000322564 2.31723e-05 0.00145668)
(0.00536828 -6.51471e-05 0.00181277 0.00040345 0.000256911 0.00237626)
(0.00403678 -6.99864e-05 0.00213258 0.000364691 0.000270101 0.00377311)
(0.00333024 -0.000233249 0.0022038 0.000302069 2.23021e-06 0.00637153)
(0.00290244 -0.000296955 0.00117697 0.000290346 -0.000151507 0.00925145)
(0.00483325 -0.000624735 0.00329515 0.000279819 -0.000409229 0.00714763)
(0.00542693 -0.000925215 0.00135987 0.000364375 -0.000216827 0.00197925)
(0.0033871 -0.000403384 0.000332007 0.000312518 -0.000101435 0.00131398)
(0.00515114 -0.000620124 0.00212662 0.000215412 -0.000309628 0.0027438)
(0.00594112 -0.000347565 0.0026447 0.000177931 -4.68131e-05 0.00302457)
(0.00363231 -0.000262376 0.000957 0.000265011 0.000122062 0.00193258)
(0.00813692 -0.000444598 0.00048386 0.000244776 -1.53808e-05 0.00128788)
(0.0150796 -0.00236839 0.00133044 0.000614762 -0.000204551 0.00184649)
(0.00430376 -0.00114027 0.00172967 0.000614955 -0.000736083 0.00352559)
(0.00300873 -0.000496743 0.000515208 0.000318333 -2.70374e-05 0.00331708)
(0.00314426 -0.000605615 -6.02755e-05 0.000526106 0.000288562 0.00136292)
(0.00488573 -0.00102851 -0.00085509 0.000550432 0.000346324 0.00143816)
(0.00587243 -0.00116306 -0.0024308 0.000551272 0.00073899 0.00328019)
(0.0046393 -0.000744631 -0.00253679 0.000383966 0.000537127 0.00627833)
(0.00396534 -0.000579478 0.000648196 0.000292881 1.27057e-05 0.00307413)
(0.00451431 -0.000290867 0.000804849 0.000259844 5.93505e-05 0.00152328)
(0.00394259 -0.000447142 0.00109798 0.000335608 -7.90332e-05 0.00208934)
(0.006476 -0.00136064 0.00149109 0.000539818 -0.000401616 0.00190484)
(0.00431855 -0.00123426 -9.88553e-06 0.000732585 5.89942e-05 0.00123386)
(0.00616617 -0.00121714 4.64644e-05 0.000582166 8.96082e-06 0.0012973)
(0.0138759 -0.000962433 0.000495965 0.000465299 -5.59134e-05 0.00133771)
(0.0143602 -0.00112959 -0.00148939 0.000539798 5.36425e-05 0.0018539)
(0.0117904 -0.00101805 0.00012466 0.00048628 6.98185e-05 0.0015291)
(0.00890626 -0.000694901 0.00215362 0.000349056 -9.14642e-05 0.00146251)
(0.00489039 -0.000477399 0.00200029 0.00033213 -5.10271e-05 0.00179854)
(0.00824417 -0.000171749 0.00106589 0.000339159 -9.48347e-06 0.00133699)
(0.00761133 0.000391557 0.000353037 0.000395367 -6.48803e-05 0.00127734)
(0.00478832 -0.000988542 0.00109491 0.000356552 -0.000239438 0.00189953)
(0.0143347 -0.00309962 0.00336611 0.000796848 -0.000718365 0.00210547)
(0.0202432 0.000536422 0.00391898 0.000401817 0.000230074 0.00190889)
(0.00520792 -0.000237134 0.00071234 0.000660286 0.000336736 0.00140063)
(0.00445527 -0.000793107 0.000242834 0.000413874 0.000112414 0.00084494)
(0.014929 -0.00171036 0.00320736 0.000343002 -0.000356123 0.00145884)
(0.00535286 0.000205267 0.00211723 0.000269616 0.000443006 0.00267018)
(0.00462378 -3.381e-05 0.00113447 0.000254791 0.000178596 0.00163389)
(0.00455262 -0.000432984 0.000665195 0.00030786 -6.08478e-05 0.00113374)
(0.00505348 -0.000292946 0.00125907 0.000326687 -3.30901e-05 0.0016592)
(0.00476685 -0.000127312 0.00175961 0.000260207 5.66466e-05 0.00238789)
(0.00508251 -0.000261513 0.00296129 0.000250331 -0.00014487 0.00425553)
(0.00354734 -0.000332852 0.00144554 0.000235827 -0.000344297 0.00818715)
(0.00440281 -0.000586917 0.00263299 0.000281121 -0.000759258 0.00838998)
(0.00675914 -0.000928733 0.00257127 0.000293003 -0.000444955 0.00254726)
(0.00456548 -0.000731282 0.000837074 0.000309572 -0.000180185 0.00112114)
(0.00416075 -0.000614606 0.00147048 0.000334665 -0.000729377 0.00337871)
(0.00400492 -0.000385229 0.00169644 0.00015159 -0.000307379 0.00520462)
(0.00416902 -0.000333969 0.00119228 0.000202011 4.83509e-05 0.00271145)
(0.0100071 -0.0010122 0.00126748 0.000303447 -0.000100328 0.00125678)
(0.0194027 -0.00326897 0.00164704 0.000772499 -0.000228669 0.00161969)
(0.00884642 -0.00203273 0.00236026 0.000735461 -0.000515365 0.00221314)
(0.00370968 -0.000432542 0.00128298 0.000271636 4.35587e-06 0.00261625)
(0.00345534 -0.000721886 -0.000474038 0.000532488 0.000374808 0.00180705)
(0.00617078 -0.00134891 -0.00142196 0.000560541 0.000405253 0.00205585)
(0.0055506 -0.00101091 -0.00188063 0.000453246 0.000462493 0.00330886)
(0.00311874 -0.000446764 -0.000483637 0.000314648 -0.000166158 0.00678669)
(0.00371636 -0.000632529 0.00125122 0.000382905 -0.000656586 0.00494799)
(0.00382294 -0.000424438 0.00113577 0.000269909 -7.22529e-05 0.00164151)
(0.00363105 -0.000577219 0.00143926 0.000360898 -2.82438e-05 0.00231984)
(0.00449329 -0.0011932 0.00194037 0.000598339 -0.000600234 0.00236543)
(0.0035867 -0.00117394 0.000403711 0.000795803 -0.000189715 0.00137047)
(0.00521826 -0.00166011 0.000341591 0.00087293 -8.23713e-05 0.00135308)
(0.011015 -0.00159983 0.000973263 0.00051937 -0.000176486 0.0013726)
(0.0138844 -0.00141337 -0.000359626 0.000519931 2.37918e-05 0.00150339)
(0.00895959 -0.00127661 0.000201544 0.000562454 7.186e-05 0.00122204)
(0.00610552 -0.000730061 0.00196277 0.000394272 -0.000107221 0.00148598)
(0.00410177 -0.000605394 0.00188721 0.000372191 -0.000118927 0.00194787)
(0.00624915 -0.000672601 0.00153375 0.000379674 -6.37476e-05 0.00142164)
(0.00802666 0.000207115 -3.0088e-05 0.000422266 -0.000176542 0.00121631)
(0.00546672 -0.00113955 0.00143573 0.000393393 -0.000263062 0.00135763)
(0.0102624 -0.00331371 0.0033833 0.00128303 -0.00111742 0.00219392)
(0.0148707 -0.000256268 0.00339244 0.000343392 2.68832e-05 0.00171999)
(0.00582553 0.000148908 0.0011921 0.000698888 0.00025201 0.00147018)
(0.00538315 -0.00129248 0.00023501 0.00052964 9.9787e-05 0.0014518)
(0.00978859 -0.00183116 0.00169713 0.000536027 -0.000252575 0.00110976)
(0.00616363 6.6817e-05 0.00156627 0.000355245 0.000348028 0.00172694)
(0.00543122 8.74932e-05 0.00136402 0.000394713 0.000248915 0.0013454)
(0.00464928 -0.000208209 0.000812034 0.000351261 -6.13269e-07 0.000912652)
(0.00433988 -0.000155995 0.00106454 0.000404436 4.01305e-05 0.0014474)