/*--------------------------------*- C++ -*----------------------------------*\
  =========                 |
  \\      /  F ield         | OpenFOAM: The Open Source CFD Toolbox
   \\    /   O peration     | Website:  https://openfoam.org
    \\  /    A nd           | Version:  10
     \\/     M anipulation  |
\*---------------------------------------------------------------------------*/
FoamFile
{
    format      ascii;
    class       volSymmTensorField;
    location    "15";
    object      UPrime2Mean;
}
// * * * * * * * * * * * * * * * * * * * * * * * * * * * * * * * * * * * * * //

dimensions      [0 2 -2 0 0 0 0];

internalField   nonuniform List<symmTensor> 
25600
(
(0.00923164 -6.15503e-05 -0.00184238 2.49596e-06 6.20911e-06 0.00168577)
(0.00876814 -7.65106e-05 -0.00186688 2.55384e-06 1.55742e-05 0.00192142)
(0.00827622 -7.38416e-05 -0.00178865 2.41832e-06 2.04347e-05 0.001819)
(0.00831294 -6.9789e-05 -0.00210383 2.56138e-06 8.61207e-06 0.00172078)
(0.00880873 -7.4954e-05 -0.00206086 2.80407e-06 9.4055e-06 0.00161233)
(0.00859445 -7.38145e-05 -0.00199639 2.57665e-06 1.13049e-05 0.0015915)
(0.00804034 -7.69688e-05 -0.00201906 2.15263e-06 6.00935e-06 0.00161043)
(0.00785351 -6.98867e-05 -0.0018398 2.03452e-06 4.47868e-06 0.00153268)
(0.00798304 -7.39108e-05 -0.00204927 2.21658e-06 9.38416e-06 0.00153132)
(0.00847784 -7.86749e-05 -0.00200929 2.44135e-06 9.85245e-06 0.00163694)
(0.00861357 -8.00717e-05 -0.00201872 2.78619e-06 8.21368e-06 0.00165511)
(0.0083887 -6.87166e-05 -0.00199569 2.83641e-06 9.31222e-06 0.00162922)
(0.00816469 -6.82223e-05 -0.00182922 2.31588e-06 8.12623e-06 0.0018521)
(0.00813167 -7.49021e-05 -0.00192148 2.41777e-06 8.6461e-06 0.0016695)
(0.00823861 -7.98007e-05 -0.00228018 3.06108e-06 4.16208e-06 0.00162162)
(0.00813303 -7.45547e-05 -0.0022696 2.53896e-06 8.14855e-06 0.00156671)
(0.00832775 -6.9094e-05 -0.00199398 2.12084e-06 1.36808e-05 0.00175077)
(0.00865571 -6.75383e-05 -0.00192783 2.36685e-06 7.30425e-06 0.00176391)
(0.00927665 -7.20574e-05 -0.00222185 2.7148e-06 8.34371e-06 0.00177512)
(0.00962805 -7.3911e-05 -0.00253223 2.72957e-06 9.31578e-06 0.0017094)
(0.00944911 -6.84881e-05 -0.00218151 2.34619e-06 1.24514e-05 0.00170044)
(0.00862851 -6.85065e-05 -0.00201532 2.45436e-06 9.73573e-06 0.00168748)
(0.00820383 -6.34939e-05 -0.00196745 2.37133e-06 7.75294e-06 0.00167802)
(0.00798412 -6.98396e-05 -0.00203712 2.69538e-06 8.16327e-06 0.00169541)
(0.00811356 -8.56426e-05 -0.00223885 2.94285e-06 1.01553e-05 0.00163066)
(0.00869479 -7.55139e-05 -0.00219482 2.45512e-06 1.05216e-05 0.00152255)
(0.00863276 -7.19911e-05 -0.00196026 2.07283e-06 1.12212e-05 0.00156059)
(0.00878625 -6.99422e-05 -0.00183192 2.02164e-06 1.03564e-05 0.00166884)
(0.00853957 -7.21831e-05 -0.00206988 2.83151e-06 1.30213e-05 0.0015192)
(0.00887827 -7.17802e-05 -0.0022316 2.79326e-06 9.33671e-06 0.00151926)
(0.00895945 -8.53144e-05 -0.00210877 3.05942e-06 1.41399e-05 0.00169764)
(0.00861861 -8.84334e-05 -0.00198245 2.58235e-06 4.83602e-06 0.00171732)
(0.00928165 -9.91992e-05 -0.00216053 2.96206e-06 1.37798e-05 0.00158599)
(0.0096288 -8.12057e-05 -0.00200784 2.22863e-06 1.08322e-05 0.00151219)
(0.00942774 -6.19896e-05 -0.00229291 2.68821e-06 1.41432e-05 0.00165132)
(0.00943511 -5.89486e-05 -0.00214012 2.85654e-06 1.49396e-05 0.00176712)
(0.00928335 -7.27882e-05 -0.00203162 2.68591e-06 1.11072e-05 0.0017767)
(0.00856255 -7.83838e-05 -0.00190945 2.55562e-06 3.14828e-06 0.00157639)
(0.00864789 -7.51844e-05 -0.00181153 3.29164e-06 1.04606e-05 0.00160728)
(0.00892492 -7.02918e-05 -0.00213829 3.45609e-06 1.51805e-06 0.00159977)
(0.0455918 0.000940612 -0.00960798 0.000122818 -0.000237117 0.0066223)
(0.0437039 0.000885845 -0.0108439 0.000105757 -0.000320395 0.00764514)
(0.0410621 0.000770181 -0.0101842 0.000113815 -0.000454615 0.00701541)
(0.0404551 0.000644309 -0.0112688 0.000108657 -0.000381376 0.00634039)
(0.0422883 0.000835073 -0.0111751 0.000103173 -0.000354898 0.00639499)
(0.0417671 0.000851351 -0.0110151 9.13446e-05 -0.000281692 0.00600252)
(0.0382382 0.000922558 -0.0116747 8.25372e-05 -0.000305753 0.00569914)
(0.0379871 0.000956421 -0.0108251 7.98432e-05 -0.000280582 0.00548402)
(0.0397363 0.000840283 -0.0115121 7.798e-05 -0.000315051 0.00570031)
(0.0418869 0.000874442 -0.0114039 0.000104414 -0.000302072 0.00580288)
(0.0413966 0.00090043 -0.0109901 0.000107271 -0.000351315 0.00604664)
(0.0401776 0.000833037 -0.0110056 0.000109071 -0.000336946 0.00563257)
(0.0398107 0.000916019 -0.0105546 0.000101907 -0.000307157 0.00554053)
(0.0399624 0.000882467 -0.0110529 9.8814e-05 -0.000311192 0.00569576)
(0.0395736 0.000805698 -0.0119088 9.06315e-05 -0.000263519 0.005539)
(0.0381123 0.000805344 -0.0119576 8.33933e-05 -0.000284344 0.00589534)
(0.0394539 0.000893119 -0.0116082 9.98329e-05 -0.000311802 0.00623303)
(0.0435227 0.00087694 -0.0114106 0.000117952 -0.000373833 0.00616633)
(0.0469132 0.00061234 -0.0120204 0.000121787 -0.00031116 0.0071213)
(0.0480561 0.000875758 -0.0135878 9.69112e-05 -0.000356207 0.00684347)
(0.0463694 0.00114742 -0.0128355 0.000116923 -0.000334959 0.00636805)
(0.0428751 0.00101125 -0.0119188 0.000105281 -0.000292184 0.00572349)
(0.0404088 0.00101274 -0.011615 0.000103583 -0.000345503 0.00569473)
(0.0385458 0.000973747 -0.0113766 0.000100255 -0.000368253 0.00600885)
(0.0384684 0.000790983 -0.0121429 8.73757e-05 -0.000329201 0.00597428)
(0.0399087 0.00100994 -0.0124938 8.89314e-05 -0.000342837 0.00575216)
(0.0388856 0.00102528 -0.0115953 9.53103e-05 -0.000305568 0.00546144)
(0.0427277 0.000979272 -0.0105169 8.96354e-05 -0.000315703 0.00578189)
(0.0424333 0.00075757 -0.0105644 8.96187e-05 -0.000401962 0.00606655)
(0.0434261 0.000830521 -0.0120978 9.02305e-05 -0.000344649 0.00599356)
(0.0437168 0.000946849 -0.0127905 9.90135e-05 -0.000309392 0.00622239)
(0.0406502 0.000943629 -0.0120806 0.000101125 -0.000366824 0.00628458)
(0.0423914 0.0010049 -0.0127538 0.000116018 -0.000420694 0.00635807)
(0.0442597 0.000893418 -0.0110652 0.000111963 -0.000338214 0.00551005)
(0.0456457 0.000868696 -0.0111527 9.59541e-05 -0.000271598 0.00650602)
(0.0465224 0.000973677 -0.0115523 0.000117597 -0.000318244 0.00635105)
(0.0455161 0.00104032 -0.0119579 0.000111739 -0.000308495 0.00593684)
(0.0406423 0.00101442 -0.0114744 0.000100871 -0.000364549 0.00552952)
(0.0422023 0.000951936 -0.0104265 0.000120971 -0.000385779 0.00600362)
(0.0438844 0.000889683 -0.0112181 0.000109729 -0.000305936 0.0058676)
(0.056702 0.00221484 -0.0123896 0.000728035 -0.00100674 0.0103041)
(0.053942 0.00236621 -0.0138732 0.000572581 -0.00120334 0.010247)
(0.0537342 0.0020366 -0.0140435 0.000607658 -0.00143265 0.00972946)
(0.0519877 0.00187273 -0.0156838 0.000623272 -0.00139172 0.00884912)
(0.0508816 0.00240706 -0.0156337 0.000689685 -0.00133555 0.00926927)
(0.0514444 0.00227021 -0.0147916 0.000606172 -0.00109442 0.00872859)
(0.0470503 0.00243348 -0.0160712 0.000537651 -0.00124765 0.00854578)
(0.0469989 0.0025388 -0.0156034 0.000543733 -0.00116426 0.00803931)
(0.0513844 0.00241347 -0.01619 0.000493231 -0.00118089 0.00797165)
(0.0531454 0.00235061 -0.0164466 0.000626114 -0.00113716 0.00830957)
(0.0522686 0.00256453 -0.015292 0.000658405 -0.00115069 0.00813763)
(0.0524512 0.00201016 -0.0154568 0.000614982 -0.0011258 0.00794838)
(0.0525497 0.00232137 -0.0155294 0.000606808 -0.00114042 0.00831664)
(0.0531719 0.00253177 -0.0159812 0.000628051 -0.00115159 0.00828102)
(0.0518835 0.00236132 -0.0168976 0.000615749 -0.000995324 0.00821623)
(0.0482583 0.00193178 -0.0161336 0.000574311 -0.00101634 0.0085531)
(0.0513864 0.00179571 -0.0165844 0.000587554 -0.00108028 0.00895691)
(0.0545483 0.00225286 -0.0170475 0.000709448 -0.00119535 0.00959981)
(0.0604623 0.00163762 -0.0164404 0.000646344 -0.000956495 0.0103581)
(0.0598929 0.00214406 -0.0171563 0.00058043 -0.00116846 0.00925354)
(0.0578363 0.00251077 -0.0176502 0.000680739 -0.00111379 0.00883283)
(0.0545062 0.00258678 -0.0169233 0.000622256 -0.00116663 0.00857047)
(0.0528733 0.0027898 -0.0170195 0.000609603 -0.00138532 0.00896283)
(0.050919 0.00262218 -0.0154203 0.000621092 -0.00141727 0.00877977)
(0.0506347 0.00215381 -0.0160347 0.000557903 -0.00130363 0.00891049)
(0.0492716 0.00255164 -0.0164716 0.000589714 -0.00133381 0.00884926)
(0.0471318 0.00229584 -0.0163839 0.000606093 -0.00122849 0.00842361)
(0.0543804 0.0023498 -0.0139246 0.000578307 -0.00123678 0.00850884)
(0.0547433 0.00186696 -0.0137791 0.000586772 -0.00138206 0.00901503)
(0.0535462 0.0020672 -0.0160449 0.000577228 -0.00128168 0.00941528)
(0.0534091 0.00224566 -0.0175537 0.000613255 -0.00122557 0.00999934)
(0.0485698 0.00259386 -0.0159905 0.000587489 -0.00151144 0.0103177)
(0.0512058 0.00253504 -0.0165444 0.000642639 -0.001596 0.00942259)
(0.0508511 0.00242996 -0.0150368 0.000645676 -0.00120503 0.00781752)
(0.0570942 0.00220254 -0.0148871 0.000583875 -0.000984816 0.00944207)
(0.0587002 0.00237036 -0.0154113 0.000672832 -0.00118512 0.0092672)
(0.0552775 0.00275273 -0.0166711 0.000638603 -0.00116512 0.00922599)
(0.0509406 0.00271737 -0.0154098 0.000629843 -0.00137403 0.0087546)
(0.0526843 0.00254333 -0.0149632 0.000738744 -0.00115933 0.00936496)
(0.0555952 0.00270416 -0.0156665 0.000720058 -0.00108619 0.00913145)
(0.0542537 0.00218866 -0.0111684 0.001352 -0.00125436 0.0103266)
(0.0495875 0.0026924 -0.0123295 0.000987017 -0.00156948 0.00995337)
(0.0536349 0.00190973 -0.0137619 0.000945154 -0.00169306 0.0102801)
(0.050698 0.00211138 -0.0153851 0.00104091 -0.00177955 0.00918733)
(0.0466678 0.0028266 -0.014704 0.00120897 -0.0017206 0.00930967)
(0.048349 0.00254204 -0.0150683 0.00108401 -0.00134323 0.00922906)
(0.0448975 0.0025516 -0.0149351 0.00102365 -0.00178985 0.00892331)
(0.0428403 0.00275521 -0.0137765 0.00104377 -0.00177788 0.00821419)
(0.0480058 0.00238249 -0.0147222 0.000907854 -0.00155375 0.00766993)
(0.0489798 0.00233762 -0.0159398 0.00108011 -0.0014768 0.00856687)
(0.0489613 0.00297742 -0.015173 0.00115365 -0.0013987 0.00850883)
(0.0510785 0.0020842 -0.0155757 0.00108467 -0.00143399 0.0087351)
(0.0509773 0.00244132 -0.0152757 0.00111351 -0.0016103 0.00980466)
(0.0503081 0.00287876 -0.0157031 0.00119959 -0.00168722 0.0093626)
(0.0464277 0.00301048 -0.0161828 0.00119482 -0.00149757 0.00916439)
(0.048986 0.00182901 -0.0148511 0.0011146 -0.00134523 0.00877892)
(0.0531571 0.00138963 -0.016107 0.000996132 -0.00148871 0.00950137)
(0.0485384 0.00236379 -0.0158003 0.00126147 -0.00161477 0.0102622)
(0.0531716 0.00163805 -0.0143213 0.00114595 -0.00146941 0.0108695)
(0.0524392 0.00194177 -0.0150336 0.00115101 -0.00149751 0.0097299)
(0.0520909 0.00186629 -0.015966 0.00126594 -0.0013414 0.00949132)
(0.0493621 0.00206164 -0.0152722 0.00109952 -0.00135195 0.00891113)
(0.0485656 0.00286739 -0.0145923 0.00106672 -0.00195496 0.00982942)
(0.0495974 0.00232495 -0.0134674 0.00125011 -0.00204829 0.00970093)
(0.0503941 0.00211793 -0.0148212 0.00109589 -0.0017864 0.00937964)
(0.0514541 0.00197111 -0.015154 0.00101328 -0.0014097 0.00865122)
(0.0474126 0.0019439 -0.0156169 0.0010188 -0.00145464 0.0087953)
(0.0508937 0.00219393 -0.0125499 0.0010412 -0.00166132 0.00885758)
(0.0486546 0.00234898 -0.0135332 0.00100623 -0.00172288 0.00933161)
(0.0506338 0.00215155 -0.0153437 0.00101414 -0.00153671 0.00933432)
(0.0508981 0.00200312 -0.0164457 0.00105633 -0.00142267 0.0108916)
(0.0463031 0.00237626 -0.0125291 0.00102903 -0.00205955 0.0110889)
(0.0466993 0.00231593 -0.0143425 0.00111746 -0.00208728 0.00920956)
(0.0435769 0.00288158 -0.0138656 0.00126997 -0.00164908 0.00828576)
(0.0522594 0.00251383 -0.0143954 0.00113626 -0.00129753 0.00973348)
(0.0581999 0.00257611 -0.0148157 0.00121095 -0.00142895 0.0095731)
(0.0501683 0.0029445 -0.0151497 0.0010683 -0.00156225 0.00955094)
(0.0475272 0.00317513 -0.0140325 0.00116433 -0.00178477 0.00973045)
(0.0545934 0.00231136 -0.0148118 0.00115626 -0.00158243 0.00990906)
(0.0518662 0.00365241 -0.0143556 0.00126548 -0.00151119 0.0095333)
(0.050238 0.0018001 -0.0104813 0.00198188 -0.0017779 0.0104879)
(0.0457942 0.00282762 -0.0118611 0.00145761 -0.00196411 0.011118)
(0.048363 0.00207973 -0.0139742 0.00128965 -0.00207443 0.0102295)
(0.0490255 0.00222905 -0.0149287 0.00146667 -0.00227003 0.00969798)
(0.0440169 0.00250653 -0.0137981 0.00167359 -0.00217186 0.00948649)
(0.0452817 0.00261968 -0.0149468 0.00154175 -0.00194182 0.00973025)
(0.041859 0.00258931 -0.0131811 0.00157163 -0.00242668 0.00974378)
(0.0382454 0.00296947 -0.0128193 0.0015378 -0.00243668 0.00905176)
(0.0486486 0.00188261 -0.0139677 0.00136635 -0.0020094 0.00800203)
(0.0440775 0.00245187 -0.015527 0.00153424 -0.00207108 0.00914476)
(0.0432685 0.00295046 -0.0149049 0.00171589 -0.00197165 0.00926549)
(0.0454832 0.00218023 -0.0149707 0.00166211 -0.00198826 0.00988015)
(0.0434024 0.00237117 -0.0143731 0.00170634 -0.00212716 0.0107208)
(0.0411849 0.00275387 -0.0147299 0.00186805 -0.00220363 0.00999578)
(0.0435197 0.00258571 -0.0151043 0.00194332 -0.00197118 0.0102885)
(0.0436642 0.0016101 -0.0137897 0.0018406 -0.00201565 0.0101747)
(0.0512332 0.000669041 -0.0154348 0.00164292 -0.00206337 0.0103918)
(0.0425147 0.00187465 -0.0133263 0.00187894 -0.0023009 0.010506)
(0.0453672 0.00111296 -0.0130013 0.00183758 -0.00201323 0.0111437)
(0.0496442 0.00123723 -0.015015 0.00186497 -0.00202564 0.0106885)
(0.0467703 0.00158276 -0.0147389 0.0018622 -0.00207921 0.0110464)
(0.0473644 0.00132594 -0.0140305 0.00154706 -0.00198529 0.0099327)
(0.0400265 0.00269968 -0.0120099 0.00170774 -0.00269092 0.0103386)
(0.0439676 0.00185572 -0.0125703 0.00201155 -0.00267115 0.0100377)
(0.0465625 0.00214799 -0.013773 0.00179153 -0.00243173 0.00979322)
(0.0542774 0.00149063 -0.015622 0.00143812 -0.00184874 0.00881952)
(0.0486943 0.00187127 -0.014689 0.00143012 -0.0018115 0.00889937)
(0.0449741 0.00205025 -0.0121091 0.00157752 -0.00208346 0.00911405)
(0.0403441 0.00270787 -0.0134052 0.00168247 -0.00208368 0.00957271)
(0.046992 0.00214586 -0.0142164 0.00151255 -0.00181001 0.0100551)
(0.047856 0.00192836 -0.0157676 0.00146975 -0.00179238 0.0106704)
(0.0430986 0.0021159 -0.0115048 0.00153229 -0.00243651 0.0105285)
(0.0413863 0.00231218 -0.0130764 0.00163303 -0.00267751 0.00962638)
(0.0409598 0.00245727 -0.0121515 0.00216317 -0.00223624 0.00869296)
(0.050014 0.00199085 -0.0130115 0.00179691 -0.00186239 0.00984733)
(0.0571214 0.00261734 -0.0153091 0.00172839 -0.00191181 0.00974546)
(0.0443901 0.00272804 -0.01479 0.00162366 -0.00215579 0.009638)
(0.0437874 0.00346811 -0.0130554 0.00164981 -0.00231733 0.010383)
(0.0584286 0.00182097 -0.0148069 0.00160005 -0.00211517 0.0100346)
(0.0476404 0.00365808 -0.01143 0.00199362 -0.00207398 0.0103667)
(0.0465681 0.00140166 -0.00912142 0.00240719 -0.00212695 0.0102066)
(0.0423976 0.00256203 -0.00987202 0.00176199 -0.00215332 0.0121172)
(0.0450693 0.00213171 -0.0122397 0.00159865 -0.00216407 0.00962881)
(0.0473823 0.0022282 -0.0126777 0.0017055 -0.00250162 0.00903095)
(0.0465068 0.00178106 -0.0131567 0.00199813 -0.00215924 0.00918189)
(0.045156 0.00212015 -0.0125314 0.00183428 -0.00229236 0.00909427)
(0.0380544 0.00230151 -0.0107297 0.0019748 -0.00288118 0.0097661)
(0.0389555 0.00288284 -0.0122624 0.0018358 -0.00283715 0.00910781)
(0.0480942 0.00161029 -0.0124529 0.00173351 -0.00232091 0.00782251)
(0.0421942 0.00213556 -0.0140042 0.00195377 -0.00238109 0.00895461)
(0.0386587 0.00269784 -0.0131107 0.00216296 -0.00246169 0.00889081)
(0.04145 0.00177202 -0.0129343 0.00211545 -0.00213742 0.00947546)
(0.0382822 0.00197291 -0.013045 0.00220097 -0.00226213 0.0100679)
(0.0353957 0.00232311 -0.0129661 0.00247776 -0.00239724 0.00963417)
(0.0418081 0.00159351 -0.0135553 0.00263495 -0.00212976 0.0101309)
(0.0406601 0.000983449 -0.0122988 0.00256714 -0.002391 0.0100748)
(0.0471859 0.00010156 -0.0141974 0.00217417 -0.00242365 0.0113188)
(0.036614 0.00115392 -0.0104994 0.00249698 -0.00255855 0.0104823)
(0.0389691 0.000915903 -0.0119439 0.00251076 -0.00204951 0.00980444)
(0.042324 0.000711683 -0.0130681 0.00241593 -0.0024276 0.010219)
(0.0391784 0.00136462 -0.0117025 0.00237884 -0.00259208 0.010379)
(0.0484799 0.00108397 -0.0115864 0.00194282 -0.00244842 0.00915162)
(0.0348846 0.00215591 -0.0096161 0.00225118 -0.0027375 0.00897648)
(0.0397342 0.00089428 -0.0113346 0.00248754 -0.00284498 0.00896129)
(0.0424207 0.00128356 -0.0125295 0.00237427 -0.00272794 0.00898054)
(0.0522878 0.00122252 -0.0140206 0.00184964 -0.00212371 0.00858283)
(0.0452522 0.00154528 -0.0130744 0.0019087 -0.0020398 0.00874106)
(0.0411289 0.00167897 -0.0118071 0.00221699 -0.00221049 0.00884781)
(0.0352634 0.00254973 -0.0130555 0.00251633 -0.00235861 0.00963223)
(0.0435084 0.00188584 -0.0131578 0.00199375 -0.00181808 0.00979522)
(0.0411881 0.00225999 -0.0138912 0.00182708 -0.00181255 0.0102661)
(0.040306 0.00177151 -0.0111195 0.0018429 -0.00256173 0.00927919)
(0.0350548 0.0021413 -0.0112956 0.00213263 -0.00291384 0.00927293)
(0.0402137 0.00120831 -0.0105172 0.00303041 -0.00249013 0.00851135)
(0.0485427 0.00140871 -0.0122612 0.00237138 -0.00214566 0.00921589)
(0.0517721 0.00274158 -0.0131658 0.00219791 -0.00200944 0.00926891)
(0.0452378 0.00197837 -0.0121235 0.00200661 -0.00225403 0.00960827)
(0.0416633 0.00311072 -0.0121279 0.00204682 -0.00249416 0.00967235)
(0.0501175 0.00201207 -0.014423 0.00210546 -0.00225718 0.0101374)
(0.0446817 0.0027629 -0.00833856 0.00260338 -0.00231542 0.00957231)
(0.0425404 0.00103433 -0.00811221 0.00291116 -0.00203438 0.00897993)
(0.0367677 0.00218567 -0.00849324 0.0021028 -0.00199179 0.0109)
(0.0411846 0.00168331 -0.0104963 0.00193536 -0.00223749 0.00865657)
(0.0434488 0.00251805 -0.0109786 0.00208864 -0.00261339 0.00887985)
(0.0546866 0.00108866 -0.0127721 0.00237578 -0.00235621 0.00932361)
(0.0438766 0.0019558 -0.0115484 0.0021913 -0.00249677 0.00974324)
(0.0370136 0.00196305 -0.0104744 0.00241893 -0.00298451 0.00987734)
(0.043997 0.00291582 -0.0118709 0.00215591 -0.00300087 0.00949523)
(0.0411271 0.00161923 -0.0106573 0.00218738 -0.00259174 0.00777745)
(0.0421532 0.0011695 -0.0127058 0.00241165 -0.00247872 0.00861386)
(0.0348803 0.00274447 -0.0115504 0.00276302 -0.00247949 0.00811395)
(0.038093 0.00131086 -0.011009 0.00268713 -0.00194879 0.00837119)
(0.0347282 0.0017818 -0.0116639 0.0025991 -0.00235742 0.00876677)
(0.0342528 0.00173525 -0.0112422 0.00311488 -0.00241968 0.00850309)
(0.0361784 0.000544329 -0.0108391 0.00338152 -0.0022803 0.00927782)
(0.0381862 0.000299957 -0.0106564 0.00345717 -0.00278543 0.00971571)
(0.0404511 -8.28771e-05 -0.0111316 0.00295136 -0.00259441 0.0111092)
(0.0341438 1.57953e-05 -0.00911084 0.00333071 -0.00241123 0.00991787)
(0.0357303 0.000612436 -0.0107002 0.00323578 -0.00227583 0.0082416)
(0.0353442 0.000293647 -0.0101699 0.00292597 -0.00259556 0.00925868)
(0.0361198 0.00091346 -0.0105206 0.00283582 -0.00279754 0.01005)
(0.0482741 0.000977704 -0.0111339 0.00254126 -0.00280093 0.00888232)
(0.0367949 0.00160155 -0.00981302 0.00283296 -0.00271485 0.00784574)
(0.0404156 0.000261961 -0.0117069 0.00315863 -0.00282352 0.00789505)
(0.0447563 0.000491603 -0.0117279 0.00312434 -0.00290787 0.00849227)
(0.049834 0.000970054 -0.0126033 0.00248851 -0.00235029 0.00874933)
(0.0441156 0.00067153 -0.0121204 0.0025791 -0.00230924 0.00895043)
(0.0369959 0.00138452 -0.0121134 0.00302458 -0.00245641 0.00934509)
(0.0350566 0.00195831 -0.0121959 0.00326145 -0.00269817 0.00915426)
(0.0414464 0.00108817 -0.0122641 0.00251934 -0.00187279 0.00896014)
(0.0386064 0.00201699 -0.0122871 0.00241344 -0.00178912 0.00865945)
(0.0419595 0.00120034 -0.011108 0.00227989 -0.00257523 0.0084577)
(0.0337045 0.00155621 -0.0100819 0.00290831 -0.00294518 0.00843677)
(0.0381629 7.74588e-05 -0.00972708 0.0037402 -0.00260046 0.00845413)
(0.0487655 0.00072272 -0.0115821 0.00290789 -0.00235783 0.0082246)
(0.0482466 0.00208571 -0.0112304 0.00282385 -0.00194464 0.00859663)
(0.047548 0.000835505 -0.010796 0.00233735 -0.00213417 0.00867511)
(0.0420088 0.00237667 -0.0124412 0.00254889 -0.00237099 0.00886225)
(0.0402532 0.00185971 -0.0118202 0.0027198 -0.00236278 0.00929563)
(0.0418437 0.00122134 -0.00692955 0.00336776 -0.00225318 0.00839332)
(0.0359842 0.00123552 -0.00673814 0.0032025 -0.00147078 0.00839731)
(0.0302487 0.00164337 -0.00770174 0.00239675 -0.00142751 0.00891931)
(0.0404301 0.0010124 -0.00983374 0.00222247 -0.0020736 0.0079429)
(0.0380763 0.00261944 -0.00913732 0.002455 -0.00233398 0.00852337)
(0.0529875 0.000966703 -0.0106263 0.00268588 -0.00244546 0.008661)
(0.0432243 0.00173768 -0.0105173 0.00255687 -0.0023552 0.00883247)
(0.0395047 0.00158622 -0.00943497 0.00268601 -0.00249734 0.00857632)
(0.0425397 0.00196054 -0.00920634 0.00232746 -0.00258332 0.00931225)
(0.0357435 0.00139241 -0.00875601 0.00245639 -0.00245841 0.00775851)
(0.0440623 0.000290767 -0.0100721 0.00258816 -0.00259206 0.00842758)
(0.0339103 0.00246799 -0.0102374 0.00321406 -0.00227571 0.00740913)
(0.0379371 0.000580446 -0.00965203 0.00305215 -0.00166183 0.00725682)
(0.0326862 0.00109066 -0.00969425 0.00292405 -0.00221272 0.00813637)
(0.0355979 0.000669549 -0.00924948 0.00349827 -0.00220337 0.00729498)
(0.0368833 -0.00066482 -0.00957934 0.00386143 -0.00240897 0.0093053)
(0.0401497 -0.000279754 -0.00963572 0.00394848 -0.00297011 0.00935058)
(0.0379651 -0.00111287 -0.00899816 0.00362186 -0.00256828 0.0097868)
(0.0366862 -0.0010479 -0.00787276 0.00375987 -0.00215529 0.00861379)
(0.0356607 -0.000177962 -0.0089705 0.0035428 -0.00217491 0.0074568)
(0.0386999 -0.000433916 -0.00867703 0.00314539 -0.00245194 0.00837615)
(0.0423562 7.76373e-06 -0.0100431 0.00317002 -0.00267889 0.00963109)
(0.0407678 0.00086246 -0.0111556 0.00316069 -0.00282851 0.00898021)
(0.0419686 0.000644782 -0.0105267 0.00326703 -0.00256656 0.00700286)
(0.0452162 -0.000600277 -0.0133218 0.00364826 -0.00245622 0.00823559)
(0.04912 -0.000436499 -0.011955 0.00353717 -0.00266316 0.00848718)
(0.0482062 0.000533264 -0.0119381 0.00313058 -0.00234005 0.00850235)
(0.0459607 8.0031e-05 -0.0113323 0.00322479 -0.00253855 0.00867855)
(0.0367891 0.00136838 -0.0126026 0.00356054 -0.00253912 0.0088103)
(0.036009 0.00131441 -0.011396 0.00353428 -0.00267146 0.00827524)
(0.0454942 0.000373944 -0.0113981 0.00300648 -0.00192485 0.00776641)
(0.0397228 0.00083012 -0.0109155 0.00292364 -0.00199738 0.00730797)
(0.0434198 0.000366961 -0.0104171 0.0027438 -0.00226591 0.00726126)
(0.0375208 0.000776657 -0.0090478 0.00328727 -0.00272128 0.00798967)
(0.0369921 -0.000499236 -0.00838852 0.0038875 -0.0022835 0.00753869)
(0.045053 0.000254149 -0.00990762 0.0030789 -0.00205134 0.00726012)
(0.0443636 0.00077095 -0.0102752 0.00303273 -0.00166115 0.00721685)
(0.0489128 0.000515969 -0.011461 0.002658 -0.00164805 0.00774027)
(0.0444392 0.00179168 -0.0117531 0.00281511 -0.00199527 0.00782322)
(0.0365209 0.00125563 -0.00865875 0.00314925 -0.00196707 0.00740018)
(0.0379314 0.000428561 -0.00567566 0.00398933 -0.00157808 0.00719046)
(0.0337818 0.000226002 -0.00604505 0.00352889 -0.00123287 0.00699522)
(0.0299168 0.000998057 -0.00725837 0.00256472 -0.00112012 0.00766385)
(0.0402487 0.000520501 -0.00852828 0.00238749 -0.00183825 0.0075923)
(0.0392781 0.00129222 -0.0076932 0.00257465 -0.00187227 0.00695094)
(0.046597 0.000408214 -0.00835665 0.00289879 -0.00223528 0.00652322)
(0.0464494 0.000974238 -0.00840611 0.00298821 -0.00212357 0.00668563)
(0.0421647 0.00120979 -0.0073066 0.00292791 -0.00188208 0.00696507)
(0.0411634 0.000991742 -0.0067752 0.00245028 -0.00196749 0.00784864)
(0.0353098 0.000460731 -0.00810608 0.00267434 -0.00223762 0.00787831)
(0.0456734 0.000111737 -0.00918811 0.00304449 -0.00220796 0.00781235)
(0.0343973 0.00170271 -0.00823322 0.00384753 -0.00185725 0.00706756)
(0.0351048 1.38654e-05 -0.00866287 0.00345461 -0.00136714 0.00726608)
(0.0325058 0.000862013 -0.00777173 0.00314821 -0.00169857 0.00714072)
(0.0409739 -0.000269446 -0.0086324 0.00386022 -0.00189214 0.00714385)
(0.0399462 -0.00139496 -0.00828191 0.00419038 -0.0022725 0.0100902)
(0.0445827 -0.00140897 -0.00794944 0.00434961 -0.00265004 0.00974895)
(0.0440472 -0.00196923 -0.00773919 0.00415587 -0.00229661 0.00879733)
(0.0451958 -0.00155714 -0.00646736 0.00383029 -0.001911 0.00902382)
(0.0397761 -0.00102663 -0.0073683 0.00365543 -0.0019508 0.00782132)
(0.0453001 -0.00076771 -0.00813696 0.00349276 -0.00239283 0.0073028)
(0.0498531 0.00010802 -0.0104753 0.00352601 -0.00247206 0.0083315)
(0.0388034 0.000657598 -0.0103255 0.00368379 -0.00277615 0.00829216)
(0.0505823 -0.000202991 -0.011117 0.00370032 -0.00227583 0.00742031)
(0.0481515 -0.00164445 -0.0134884 0.00413774 -0.00208836 0.0085767)
(0.0494596 -0.00108192 -0.0130851 0.00420781 -0.00205022 0.0084486)
(0.0479707 -0.000289303 -0.0122402 0.00382647 -0.00210843 0.00796117)
(0.0481347 -0.00067173 -0.0114878 0.00387798 -0.00228342 0.0078104)
(0.0388841 0.00125471 -0.0129094 0.00403019 -0.00258157 0.00832314)
(0.0407984 0.00117257 -0.0118691 0.00395136 -0.00253877 0.00768221)
(0.0501688 0.000169523 -0.0124481 0.00345012 -0.00181747 0.00736307)
(0.0455103 -0.00102358 -0.0098299 0.00357182 -0.00172771 0.00643518)
(0.0445509 -0.00105884 -0.00891435 0.00345203 -0.0018671 0.00630761)
(0.0436196 -0.000358568 -0.0088024 0.00372895 -0.00232499 0.00743987)
(0.0378304 -0.00110878 -0.00861511 0.00397304 -0.00193265 0.00719759)
(0.0446128 -0.000446021 -0.00979795 0.00351093 -0.00147206 0.00663769)
(0.0453125 -0.000553205 -0.00916065 0.003367 -0.00105824 0.00673932)
(0.0470361 -0.000439187 -0.0110572 0.00285128 -0.00104273 0.00714169)
(0.0440131 0.00112221 -0.0102939 0.00295478 -0.00148051 0.00640549)
(0.0391788 0.000534726 -0.00694281 0.00365078 -0.00124864 0.00557796)
(0.0361904 -0.00017547 -0.0053784 0.00419818 -0.00119783 0.00620305)
(0.039461 -0.00063875 -0.0070359 0.00337847 -0.000720673 0.00599424)
(0.0334015 0.000415738 -0.00815276 0.00289656 -0.000719276 0.00688779)
(0.0387456 0.000262726 -0.00815312 0.00252569 -0.00132599 0.00615856)
(0.0391362 0.000404602 -0.00759723 0.00265664 -0.00143898 0.00542019)
(0.0446553 -0.000153709 -0.00785352 0.00290766 -0.0015136 0.0051885)
(0.0452887 0.000670969 -0.00768322 0.00293977 -0.00146597 0.00550509)
(0.0430849 0.00052034 -0.00735112 0.00295397 -0.000992814 0.00539918)
(0.0439108 0.000622334 -0.00626342 0.00248388 -0.00129599 0.00619071)
(0.0426568 -3.18435e-05 -0.00686572 0.00273877 -0.00191005 0.00767354)
(0.043139 -0.000236366 -0.00751294 0.00337354 -0.00173245 0.00786579)
(0.0381876 0.000190504 -0.00667558 0.00402864 -0.00124951 0.0079305)
(0.036898 -5.14471e-05 -0.00828695 0.00363318 -0.00105616 0.00703814)
(0.0345193 0.000924654 -0.00741209 0.0032517 -0.00129629 0.0067181)
(0.0426086 -0.00105337 -0.00847179 0.00380474 -0.00134455 0.00772188)
(0.0448869 -0.00173958 -0.00751198 0.00406307 -0.0016963 0.00969193)
(0.0512383 -0.00183746 -0.00771426 0.0040308 -0.00190826 0.00938301)
(0.047763 -0.00164352 -0.00762248 0.00387268 -0.0016987 0.00961484)
(0.0499034 -0.00159174 -0.00688845 0.00356314 -0.00147241 0.00921672)
(0.0461575 -0.00142285 -0.00768518 0.00349998 -0.0014969 0.00773849)
(0.0519225 -0.000517856 -0.00981464 0.0036559 -0.00233323 0.00766237)
(0.049255 -2.6391e-07 -0.0117359 0.00376141 -0.00214674 0.0081061)
(0.0421003 -0.000469955 -0.00925635 0.00393953 -0.00218758 0.00739737)
(0.0554808 -0.000802017 -0.0116601 0.00364179 -0.00160464 0.00837194)
(0.0507227 -0.0020057 -0.0127909 0.00430173 -0.00169378 0.00821144)
(0.0472419 -0.00114532 -0.0139709 0.00446687 -0.00163227 0.00836206)
(0.050955 -0.000334835 -0.0136777 0.00399592 -0.00187013 0.0076244)
(0.0544769 -0.000278889 -0.0126362 0.00393936 -0.0019915 0.00723328)
(0.0457123 0.00160637 -0.0131461 0.00398138 -0.00225117 0.00786296)
(0.0505511 0.00155595 -0.0136474 0.00364309 -0.00210272 0.00787129)
(0.0505257 0.00051322 -0.013513 0.00347017 -0.00148122 0.00753331)
(0.0533011 -0.000912583 -0.0105944 0.00385345 -0.00114171 0.00615643)
(0.0461158 -0.00141967 -0.00924295 0.00362586 -0.00129763 0.00609753)
(0.0498138 -0.00104625 -0.0107357 0.00366263 -0.00137327 0.00710999)
(0.0453042 -0.00116912 -0.0103624 0.00371529 -0.00124287 0.00719501)
(0.0482681 -0.00021528 -0.0103031 0.00359222 -0.000705085 0.00664018)
(0.0436172 -0.0011292 -0.00969879 0.0036005 -0.000311732 0.00673039)
(0.0473815 -0.00077043 -0.00982809 0.00293484 -0.000594836 0.00642315)
(0.040273 0.000674669 -0.00814418 0.00320604 -0.000854883 0.00540085)
(0.0400758 -0.000371812 -0.00726891 0.00391904 -0.000533262 0.00530337)
(0.0384819 -0.000516486 -0.00795711 0.00387852 -0.0004879 0.00570881)
(0.0471709 0.000234623 -0.0089297 0.00297083 -0.000506588 0.00638926)
(0.0379415 0.000263409 -0.0101419 0.00271203 -0.000242935 0.00637079)
(0.0421121 0.000297705 -0.00967976 0.00265351 -0.000711845 0.00548689)
(0.0416757 0.000162976 -0.00775847 0.00290468 -0.00120589 0.00561119)
(0.0445215 0.000353881 -0.00838559 0.00298346 -0.0012158 0.00598634)
(0.0427791 0.000923893 -0.00792894 0.0029672 -0.00104017 0.0056368)
(0.0466393 0.000440772 -0.00858796 0.00299479 -0.000482868 0.00548519)
(0.0401188 0.00126221 -0.00735167 0.00272138 -0.00102282 0.00620379)
(0.0504765 -0.00010181 -0.00807613 0.00267276 -0.00118848 0.00755654)
(0.043402 -0.000503899 -0.00651101 0.00360959 -0.00126461 0.00825041)
(0.0463423 0.000460724 -0.00755965 0.00400417 -0.000769753 0.00862524)
(0.0420254 0.000601566 -0.00945709 0.00354091 -0.000805282 0.00694572)
(0.0406991 0.00190797 -0.00857294 0.00336387 -0.00145049 0.00638195)
(0.0450348 -0.000732374 -0.0109921 0.00402058 -0.00107708 0.00849274)
(0.0548683 -0.000624443 -0.0108459 0.00426593 -0.00143612 0.00825382)
(0.0562198 -0.00046824 -0.00807226 0.00421954 -0.00144274 0.00755989)
(0.043913 -0.000282631 -0.00854625 0.00389193 -0.00115722 0.010239)
(0.0490758 -0.000562229 -0.00808197 0.0035676 -0.00157167 0.0092358)
(0.0466362 0.000173825 -0.0092705 0.003485 -0.00156439 0.00745287)
(0.050667 0.000589113 -0.0106531 0.00417962 -0.0021412 0.00776169)
(0.0432132 0.000529774 -0.00983824 0.00433435 -0.00204081 0.00853096)
(0.0436101 -0.000669936 -0.00874234 0.00420668 -0.00144778 0.00740495)
(0.0553583 -0.00117783 -0.0112747 0.00422199 -0.00113429 0.00871704)
(0.0559272 -0.00208991 -0.0132598 0.00456567 -0.00118381 0.00734647)
(0.0550251 -0.000806498 -0.0150516 0.00486121 -0.00152202 0.00816823)
(0.0528289 0.000801471 -0.0132394 0.00463796 -0.00179743 0.00669101)