/*--------------------------------*- C++ -*----------------------------------*\
  =========                 |
  \\      /  F ield         | OpenFOAM: The Open Source CFD Toolbox
   \\    /   O peration     | Website:  https://openfoam.org
    \\  /    A nd           | Version:  10
     \\/     M anipulation  |
\*---------------------------------------------------------------------------*/
FoamFile
{
    format      ascii;
    class       volVectorField;
    location    "12.5";
    object      UMean;
}
// * * * * * * * * * * * * * * * * * * * * * * * * * * * * * * * * * * * * * //

dimensions      [0 1 -1 0 0 0 0];

internalField   nonuniform List<vector> 
102400
(
(0.0347028 7.20352e-08 -6.20851e-05)
(0.0346853 5.29338e-07 4.2592e-05)
(0.0346967 -2.46989e-07 0.000103315)
(0.0346963 -2.93747e-07 1.51703e-05)
(0.0346992 -2.93387e-07 -8.46986e-05)
(0.0346919 -4.97061e-08 -8.47518e-05)
(0.0347023 1.05167e-07 5.20572e-05)
(0.0347022 2.30792e-07 7.87944e-05)
(0.0347215 -3.29418e-07 3.08773e-05)
(0.0347022 -2.42001e-07 -9.88551e-05)
(0.0347179 -1.5602e-07 -7.41329e-05)
(0.0347017 6.61282e-08 4.26168e-05)
(0.0347031 -2.45827e-07 9.87155e-05)
(0.034688 -1.85303e-07 2.53667e-05)
(0.0347022 -5.71635e-07 -9.28072e-05)
(0.0346945 -1.74711e-07 -7.02891e-05)
(0.0346832 3.00224e-07 4.15432e-05)
(0.0346982 -3.6863e-07 9.60251e-05)
(0.0347066 -6.30523e-07 6.30137e-06)
(0.0346917 -4.01314e-07 -0.000117315)
(0.0347199 -3.35984e-07 -7.28889e-05)
(0.0346755 5.22872e-07 2.36287e-05)
(0.0347051 -8.14961e-08 9.48772e-05)
(0.0346763 -3.34329e-08 -1.21179e-05)
(0.0346954 -1.71484e-07 -9.73513e-05)
(0.0346685 -1.95298e-07 -9.63647e-05)
(0.0346809 4.80402e-07 3.6131e-05)
(0.034678 2.33404e-07 8.27464e-05)
(0.0346843 -5.5937e-07 2.12063e-05)
(0.0346847 -1.93397e-07 -9.36441e-05)
(0.034675 3.22133e-08 -8.35876e-05)
(0.0347065 3.32531e-08 5.04962e-05)
(0.0346868 5.24252e-09 0.000115839)
(0.034703 -5.30795e-07 2.46024e-05)
(0.0346816 -1.17139e-07 -6.96852e-05)
(0.0346931 -1.09643e-07 -6.76051e-05)
(0.0346749 1.03319e-07 7.07296e-05)
(0.0347086 -3.3245e-07 9.90671e-05)
(0.0347016 -3.52477e-07 2.76667e-05)
(0.0346796 -1.61493e-07 -0.000100995)
(0.106023 3.04403e-07 -0.000196059)
(0.105975 2.87308e-06 0.000115196)
(0.106013 -1.24297e-06 0.000302688)
(0.106008 -1.21629e-06 4.97064e-05)
(0.106016 -3.18484e-06 -0.000253183)
(0.105993 8.65551e-09 -0.000259202)
(0.106022 -8.88054e-07 0.000146527)
(0.106029 1.49863e-06 0.000235255)
(0.106085 -2.25705e-06 9.93605e-05)
(0.106025 -1.97994e-06 -0.000300425)
(0.10607 -1.58677e-06 -0.000228931)
(0.106022 2.27188e-06 0.000114662)
(0.106034 6.42505e-07 0.000287818)
(0.105982 7.09441e-09 7.48408e-05)
(0.106024 -4.81159e-06 -0.000282862)
(0.105995 1.45912e-06 -0.00022249)
(0.105969 5.69384e-07 0.000110565)
(0.106017 -2.3461e-06 0.00028178)
(0.106039 -4.90569e-06 2.56758e-05)
(0.105995 -3.6661e-06 -0.000347468)
(0.106074 -1.81594e-06 -0.000224351)
(0.105939 4.0378e-06 5.77604e-05)
(0.106035 -6.32321e-07 0.000279717)
(0.105948 1.61839e-06 -3.15501e-05)
(0.106007 -3.15984e-06 -0.000287642)
(0.10592 -7.39023e-07 -0.000294659)
(0.105955 1.59939e-06 9.40161e-05)
(0.105957 7.36643e-07 0.000246157)
(0.105974 -2.93269e-06 6.58188e-05)
(0.105969 -2.58751e-07 -0.000277657)
(0.105943 -2.35783e-06 -0.000257112)
(0.106037 6.14356e-07 0.000143168)
(0.105984 2.41416e-06 0.000343459)
(0.106031 -2.30563e-06 7.43663e-05)
(0.105963 -3.72059e-07 -0.000208318)
(0.105996 -4.58778e-07 -0.000213594)
(0.105935 6.70521e-07 0.000199655)
(0.106042 -3.74606e-06 0.000290118)
(0.106023 2.44223e-06 8.69659e-05)
(0.105959 -6.7937e-07 -0.000299465)
(0.181147 1.97739e-06 -0.000326399)
(0.181074 6.19546e-06 0.000180856)
(0.181158 -3.99238e-06 0.000491083)
(0.181142 -1.00207e-06 6.74647e-05)
(0.181163 -6.70018e-06 -0.000423157)
(0.181111 1.04324e-06 -0.000437651)
(0.181166 -3.05203e-06 0.00025229)
(0.181173 4.62174e-06 0.000387784)
(0.181274 -5.06231e-06 0.000154669)
(0.181165 -3.7563e-06 -0.00052287)
(0.181246 -2.97002e-06 -0.000368456)
(0.18116 5.8382e-06 0.000191787)
(0.181178 2.08588e-06 0.000464986)
(0.1811 2.6332e-06 0.000101283)
(0.181177 -1.03298e-05 -0.000493401)
(0.181122 7.5789e-06 -0.000376666)
(0.181063 1.61894e-06 0.000152189)
(0.181165 -6.21319e-06 0.000456371)
(0.18119 -9.73211e-06 2.42644e-05)
(0.181106 -7.6533e-06 -0.000583087)
(0.181243 -4.25704e-06 -0.000362069)
(0.181025 9.68883e-06 0.000102235)
(0.181196 -3.29939e-07 0.000455022)
(0.18102 7.11193e-06 -5.90816e-05)
(0.181128 -7.73575e-06 -0.000482478)
(0.180986 -1.55533e-06 -0.000494465)
(0.181043 3.59887e-06 0.000170373)
(0.181057 2.39126e-07 0.00040478)
(0.181087 -5.24637e-06 0.000114856)
(0.181065 1.79904e-06 -0.000478223)
(0.181027 -6.56876e-06 -0.00043632)
(0.181178 2.92891e-06 0.000233851)
(0.181092 6.97307e-06 0.000564114)
(0.181174 -4.92443e-06 0.000102965)
(0.181062 1.14066e-06 -0.000352638)
(0.181117 -7.53491e-07 -0.000366326)
(0.181021 -1.61802e-07 0.000342891)
(0.181226 -1.01509e-05 0.000468685)
(0.181169 1.24411e-05 0.000141288)
(0.181045 4.10586e-07 -0.000506664)
(0.259228 6.38484e-06 -0.00043545)
(0.259102 9.24766e-06 0.000208612)
(0.259186 -6.83498e-06 0.000641165)
(0.259167 2.4776e-06 0.000102224)
(0.259157 -1.01957e-05 -0.000538258)
(0.259122 1.61892e-06 -0.000614692)
(0.259196 -8.5596e-06 0.000285284)
(0.259253 1.00398e-05 0.000505781)
(0.259354 -1.18037e-05 0.000262541)
(0.259211 -4.03301e-06 -0.000727729)
(0.259329 -7.06363e-06 -0.000510805)
(0.259212 1.17207e-05 0.000188843)
(0.259266 5.92309e-06 0.000595066)
(0.259099 6.62392e-06 0.000175027)
(0.259191 -1.69674e-05 -0.000642334)
(0.259101 2.00483e-05 -0.000578779)
(0.259062 -8.0053e-07 0.000173649)
(0.259201 -1.27582e-05 0.000591156)
(0.25924 -1.60678e-05 7.14242e-05)
(0.259149 -1.01505e-05 -0.000809944)
(0.259339 -4.23903e-06 -0.000511096)
(0.258991 1.59948e-05 5.80166e-05)
(0.259246 -1.37579e-06 0.000586672)
(0.259041 1.88553e-05 -7.69328e-05)
(0.259194 -1.34453e-05 -0.00065708)
(0.258933 7.77552e-07 -0.000708248)
(0.259047 4.54553e-06 0.000174406)
(0.259066 4.2379e-07 0.000531785)
(0.259059 -8.58867e-06 0.000211966)
(0.259094 8.05549e-06 -0.000654046)
(0.258999 -1.18733e-05 -0.000606364)
(0.259233 5.79813e-06 0.000279559)
(0.259139 1.31085e-05 0.000748819)
(0.259243 -3.3937e-06 0.0001331)
(0.259053 8.41318e-06 -0.000478736)
(0.259132 -3.39153e-07 -0.000528979)
(0.258971 -4.65337e-06 0.000320768)
(0.25923 -1.95001e-05 0.000588085)
(0.259181 3.01113e-05 0.000243149)
(0.259072 3.08098e-06 -0.000705355)
(0.339585 1.38176e-05 -0.000585646)
(0.339424 4.48191e-06 9.31027e-05)
(0.339644 -1.41995e-05 0.000724213)
(0.339684 7.89708e-06 1.17988e-05)
(0.339673 -1.18391e-05 -0.000719349)
(0.339532 1.23104e-05 -0.00077581)
(0.33967 -1.56316e-05 0.000327422)
(0.339685 2.05646e-05 0.000583611)
(0.339846 -1.98929e-05 0.000325519)
(0.339674 1.72666e-06 -0.000918849)
(0.339802 -1.40819e-05 -0.000639688)
(0.339585 2.19623e-05 3.47051e-05)
(0.339689 1.23547e-05 0.00065795)
(0.33953 1.47526e-05 0.000128339)
(0.339673 -2.04826e-05 -0.000831492)
(0.339506 4.2016e-05 -0.000747451)
(0.339467 -8.15597e-06 0.000164207)
(0.33974 -2.15946e-05 0.000653941)
(0.339651 -1.82386e-05 0.000174228)
(0.33961 -7.49256e-06 -0.000947049)
(0.339758 -6.52656e-07 -0.000723787)
(0.33941 3.67374e-05 3.49559e-05)
(0.339653 2.18979e-06 0.000625556)
(0.339299 4.33853e-05 0.000115437)
(0.339541 -2.10598e-05 -0.000651815)
(0.339243 1.46755e-05 -0.000859202)
(0.33939 -4.32987e-06 6.70481e-05)
(0.339395 -5.52174e-06 0.0006337)
(0.339526 -6.0115e-07 0.000135017)
(0.339403 2.12609e-05 -0.000722161)
(0.339412 -1.85089e-05 -0.000668884)
(0.33966 1.1125e-05 0.000230769)
(0.339566 2.30394e-05 0.000857133)
(0.339671 5.46185e-06 0.000130265)
(0.339452 1.45389e-05 -0.000608922)
(0.339512 4.8102e-07 -0.000698365)
(0.339313 4.41672e-06 0.000283009)
(0.339738 -2.89251e-05 0.000642589)
(0.339653 5.26546e-05 0.00029543)
(0.339424 2.00208e-05 -0.000751169)
(0.421576 2.78815e-05 -0.000646316)
(0.42128 -9.19114e-06 -8.10719e-06)
(0.421759 -2.94568e-05 0.000631523)
(0.421589 3.56209e-05 0.000236397)
(0.421356 -1.9922e-05 -0.000588088)
(0.421588 2.23036e-05 -0.000666268)
(0.421609 -2.48477e-05 0.000248134)
(0.421684 2.81447e-05 0.000560792)
(0.421908 -2.50409e-05 0.000306657)
(0.421632 1.97884e-05 -0.000974009)
(0.421761 7.97615e-06 -0.000661085)
(0.421443 2.68068e-05 -0.00020636)
(0.421581 9.84939e-06 0.000632419)
(0.421578 3.27047e-05 -8.29293e-05)
(0.421468 -1.2523e-05 -0.000791028)
(0.421373 7.1871e-05 -0.000803176)
(0.421413 -6.42474e-06 7.37709e-06)
(0.421468 -2.97515e-05 0.00058761)
(0.421416 6.8014e-06 0.000246373)
(0.421507 1.30045e-05 -0.0007261)
(0.421325 5.3868e-06 -0.00103886)
(0.42128 4.72691e-05 -2.11424e-05)
(0.421517 2.38338e-05 0.000602467)
(0.42116 5.86118e-05 0.000126825)
(0.421359 -2.01068e-05 -0.000556313)
(0.421043 4.20404e-05 -0.000899178)
(0.421315 -1.04547e-05 2.83581e-06)
(0.421249 -1.62984e-05 0.000696898)
(0.42152 1.04008e-05 2.07258e-05)
(0.421261 3.79468e-05 -0.000697878)
(0.421229 -2.75098e-05 -0.000725125)
(0.421462 1.7093e-05 -4.82124e-05)
(0.421364 2.36085e-05 0.000814328)
(0.421739 2.56958e-05 -5.28572e-05)
(0.42132 2.47541e-05 -0.000644246)
(0.421437 -8.23686e-07 -0.000759609)
(0.421245 1.5727e-05 0.000287755)
(0.421666 -2.55563e-05 0.000573642)
(0.421445 8.04059e-05 0.00050517)
(0.421291 3.3426e-05 -0.000748205)
(0.503819 4.72045e-05 -0.000817331)
(0.5038 1.36582e-05 -6.04139e-05)
(0.504047 -1.40042e-05 0.000555802)
(0.503976 7.04216e-05 8.92575e-05)
(0.504035 7.4549e-06 -0.000555878)
(0.503752 5.26012e-05 -0.00088272)
(0.504044 -1.81733e-05 0.000144088)
(0.503946 3.38279e-05 0.000286569)
(0.504219 1.04728e-05 0.000420318)
(0.503665 4.59919e-05 -0.000752094)
(0.504107 2.84124e-05 -0.000328252)
(0.503684 3.59293e-05 -0.000390557)
(0.503745 -2.50874e-06 0.000329921)
(0.503693 5.67169e-05 -0.000128365)
(0.503889 1.05199e-05 -0.000580209)
(0.50339 0.000112439 -0.000913397)
(0.50372 -3.56714e-06 -0.000161587)
(0.503757 -3.12185e-05 0.000563778)
(0.503903 3.53831e-05 -4.76331e-05)
(0.503731 4.90294e-05 -0.000582952)
(0.503741 6.03858e-05 -0.000809107)
(0.503452 1.34847e-05 -0.000158259)
(0.503973 3.07092e-05 0.000436694)
(0.503692 5.33999e-05 4.43361e-05)
(0.503718 3.05781e-06 -0.000472424)
(0.503427 6.48435e-05 -0.000795559)
(0.503643 -8.6982e-06 5.40555e-05)
(0.503765 -1.74375e-05 0.000562488)
(0.503858 1.81826e-05 0.00011421)
(0.503729 5.83377e-05 -0.000529432)
(0.503563 3.12897e-06 -0.000744158)
(0.503644 3.5684e-05 -0.000158982)
(0.503813 1.91279e-05 0.000430905)
(0.503874 6.33663e-05 0.000103869)
(0.503673 6.57093e-05 -0.000394738)
(0.503556 1.22481e-05 -0.000740712)
(0.503469 1.16702e-05 -1.39276e-05)
(0.503838 -1.65205e-05 0.000455479)
(0.503885 0.000106704 0.000203627)
(0.503885 4.80157e-05 -0.000709806)
(0.585202 0.000112119 -0.00072861)
(0.585111 3.80937e-05 -0.000233374)
(0.585324 3.60156e-05 0.000264149)
(0.585325 6.86366e-05 -9.71673e-05)
(0.585505 4.99647e-05 -0.000578284)
(0.58537 0.000102632 -0.000536359)
(0.585417 2.27684e-05 -0.000166462)
(0.585236 6.16216e-05 5.45681e-05)
(0.585478 4.41537e-05 -9.89091e-05)
(0.585461 8.81443e-05 -0.000647113)
(0.585347 3.78747e-05 -0.000566068)
(0.58519 4.90594e-05 -0.000233393)
(0.585258 3.90209e-06 0.000110184)
(0.585144 5.97431e-05 -0.000123365)
(0.585375 5.01021e-05 -0.000657232)
(0.585242 0.00014126 -0.00057205)
(0.585357 4.3009e-05 -0.000111551)
(0.585313 1.58947e-05 0.000325937)
(0.585262 6.09633e-05 -8.35453e-05)
(0.585429 9.27027e-05 -0.00045179)
(0.58512 0.000143847 -0.000569073)
(0.585157 4.2372e-05 -0.000183033)
(0.585036 4.5217e-05 0.000206969)
(0.585025 7.19332e-05 -0.000115112)
(0.585101 4.30294e-05 -0.00050053)
(0.585025 0.000102291 -0.000534956)
(0.584901 1.194e-05 -0.000196984)
(0.584962 -3.2715e-05 0.000158241)
(0.585002 3.26325e-05 -0.000131836)
(0.58531 6.38807e-05 -0.000577231)
(0.585168 6.51051e-05 -0.000652887)
(0.584971 7.95623e-05 -0.000329736)
(0.585174 1.84882e-05 8.28112e-05)
(0.585274 9.07781e-05 -0.000211907)
(0.585384 0.000112472 -0.000521884)
(0.585196 8.17878e-05 -0.000598793)
(0.585139 5.50657e-05 -0.000184441)
(0.585204 2.18533e-05 0.000326199)
(0.585282 0.000103918 -0.000205924)
(0.585556 0.000101557 -0.000545436)
(0.664664 0.000168537 -0.00039122)
(0.664444 8.81379e-05 -0.000254527)
(0.664623 7.65885e-05 0.000268196)
(0.664473 9.90666e-05 -0.000294311)
(0.664819 7.63004e-05 -0.000440278)
(0.664524 0.000144907 -0.000599421)
(0.664691 5.45453e-05 -0.000156742)
(0.664589 0.000104286 0.000121913)
(0.664726 4.53847e-05 -0.000208515)
(0.664627 0.000107339 -0.000489885)
(0.664781 8.46999e-05 -0.000519385)
(0.664574 8.38957e-05 -8.88128e-05)
(0.66471 5.63158e-05 0.000103641)
(0.664602 8.15875e-05 -7.5889e-05)
(0.664573 8.55479e-05 -0.000355709)
(0.664612 0.000156552 -0.00039914)
(0.664655 9.55786e-05 6.83959e-05)
(0.664651 9.99558e-05 0.000210724)
(0.664462 0.000103418 3.69765e-05)
(0.664598 0.000136944 -0.000444531)
(0.664559 0.000163054 -0.000317415)
(0.664673 0.000115702 -9.54771e-05)
(0.664416 9.04415e-05 0.000278981)
(0.664521 0.000124898 -0.00016777)
(0.664412 8.37699e-05 -0.000462547)
(0.66453 0.000138935 -0.000517628)
(0.664369 7.13043e-05 -0.00010791)
(0.664522 1.69606e-05 9.4537e-05)
(0.664313 5.35155e-05 -0.000135115)
(0.664509 7.24994e-05 -0.000402478)
(0.664417 8.90563e-05 -0.000518054)
(0.664537 0.000103103 -7.72849e-05)
(0.66448 1.89386e-05 0.000151939)
(0.664509 9.54456e-05 -0.000148385)
(0.664585 0.00011429 -0.00058535)
(0.664692 0.000134009 -0.000472691)
(0.664656 9.89539e-05 -0.000135686)
(0.664555 7.09706e-05 8.1508e-05)
(0.664512 0.000125188 -0.000102249)
(0.664513 0.000130598 -0.00051374)
(0.740434 0.000177192 -0.000331398)
(0.7403 0.000149719 -7.64191e-05)
(0.740527 0.000105478 6.68312e-05)
(0.740302 0.000161889 9.18962e-06)
(0.74042 0.000132257 -0.000171565)
(0.740276 0.000202231 -0.000238539)
(0.740449 0.000112048 -5.42043e-05)
(0.740336 0.000144913 8.67558e-05)
(0.740521 0.000100186 -1.34778e-05)
(0.740284 0.000159809 -0.000227186)
(0.740462 0.000122828 -0.000243836)
(0.740371 0.000140616 -5.37933e-05)
(0.740434 8.80269e-05 4.61361e-05)
(0.740424 0.000145996 2.20242e-05)
(0.740428 0.000126629 -0.000244115)
(0.74035 0.00019866 -0.000177861)
(0.740473 0.000130839 -9.97874e-05)
(0.740323 0.000152031 9.25924e-05)
(0.740443 0.000133926 -4.10591e-05)
(0.74025 0.00018636 -0.000196958)
(0.74029 0.000171268 -0.000219555)
(0.74035 0.00016238 3.20074e-05)
(0.740385 0.000111727 0.000163399)
(0.740401 0.000162794 9.14942e-05)
(0.740342 0.00012557 -0.00021227)
(0.740352 0.000168009 -0.000219521)
(0.740331 0.000121947 -9.02165e-05)
(0.740337 8.11036e-05 7.72055e-05)
(0.740288 0.000101901 -6.42545e-05)
(0.740231 0.000140303 -0.000137339)
(0.74018 0.000127227 -0.00029552)
(0.740243 0.000141963 -1.05639e-05)
(0.740306 6.61814e-05 3.9319e-05)
(0.740249 0.000131827 3.4711e-05)
(0.740292 0.000141469 -0.000226729)
(0.740237 0.000153785 -0.000229925)
(0.740325 0.000126123 -0.000141448)
(0.740204 0.000100718 -2.08396e-05)
(0.740367 0.000149984 -5.70179e-05)
(0.740179 0.00016708 -0.000334936)
(0.811183 0.000188684 -8.46382e-05)
(0.811035 0.000163748 -7.52817e-06)
(0.811169 0.000118315 3.50703e-05)
(0.81106 0.000169063 2.51676e-05)
(0.81118 0.00014872 -8.12971e-05)
(0.811074 0.000200413 -5.63312e-05)
(0.811171 0.000128722 -2.6298e-05)
(0.811064 0.000155369 7.48352e-05)
(0.811159 0.000116672 -1.56902e-05)
(0.811067 0.000166689 -4.91005e-05)
(0.811149 0.000136455 -0.000105483)
(0.811068 0.000155128 1.52195e-05)
(0.811165 0.000108196 4.20042e-05)
(0.81103 0.000156462 5.09085e-05)
(0.811185 0.000140149 -5.831e-05)
(0.811048 0.000198735 -4.24721e-05)
(0.811205 0.000155056 2.39601e-05)
(0.81108 0.000161232 0.000111839)
(0.811174 0.000153616 3.38848e-05)
(0.811087 0.00020033 -3.05753e-05)
(0.811169 0.000195192 -5.18492e-05)
(0.811096 0.000174958 5.84217e-05)
(0.811179 0.000130751 0.000111416)
(0.81112 0.000166418 8.61912e-05)
(0.811171 0.000145977 -1.53534e-05)
(0.811132 0.000177206 -3.75462e-05)
(0.811138 0.000155724 3.55235e-05)
(0.811117 0.000111399 0.000117669)
(0.811085 0.000125463 3.64154e-05)
(0.811082 0.000164647 -2.39247e-05)
(0.811094 0.000145718 -7.79153e-05)
(0.810998 0.000168742 5.45506e-07)
(0.81108 0.000106851 3.50912e-05)
(0.810954 0.000149211 1.11514e-05)
(0.811121 0.000164239 -9.18563e-05)
(0.810964 0.000174689 -7.79736e-05)
(0.811173 0.000158469 -2.01692e-06)
(0.810972 0.000129154 5.8155e-05)
(0.81117 0.000165643 1.05324e-05)
(0.811003 0.00017414 -8.44795e-05)
(0.875379 0.000161634 3.31199e-05)
(0.875328 0.000158205 9.59096e-05)
(0.875402 0.000111196 8.42829e-05)
(0.875334 0.000155847 0.000111685)
(0.875399 0.000130023 4.23187e-05)
(0.875358 0.000182089 6.66614e-05)
(0.875418 0.00012543 5.41853e-05)
(0.875367 0.000148063 0.000107728)
(0.875408 0.000112505 6.06675e-05)
(0.875353 0.000152983 5.99217e-05)
(0.875406 0.000130512 1.99692e-05)
(0.875353 0.000148092 7.37794e-05)
(0.875405 0.000114509 7.49458e-05)
(0.875346 0.000147241 9.75224e-05)
(0.875394 0.000136717 4.5447e-05)
(0.875347 0.000175374 6.53347e-05)
(0.875411 0.000147511 7.82773e-05)
(0.875356 0.000154149 0.000107494)
(0.875404 0.000147164 8.48401e-05)
(0.875354 0.000177394 5.0118e-05)
(0.875403 0.000175572 5.34113e-05)
(0.875386 0.000162984 7.51032e-05)
(0.87542 0.000127868 0.000117857)
(0.875387 0.000150307 9.30987e-05)
(0.875418 0.000139691 8.14992e-05)
(0.875377 0.000156741 6.12634e-05)
(0.875429 0.000141895 9.484e-05)
(0.875378 0.000115155 0.000118493)
(0.875424 0.000115443 0.000103495)
(0.875337 0.000148809 7.46395e-05)
(0.875417 0.000137431 5.9229e-05)
(0.875311 0.000154293 8.53538e-05)
(0.875408 0.000110131 9.28202e-05)
(0.87527 0.000131477 8.81111e-05)
(0.875384 0.000149651 4.73058e-05)
(0.87526 0.00015173 5.82117e-05)
(0.87538 0.000142817 7.00841e-05)
(0.875274 0.00012477 0.000111758)
(0.875365 0.000143792 7.86248e-05)
(0.875286 0.000161007 6.85077e-05)
(0.931595 0.000125601 8.50619e-05)
(0.931572 0.000135078 0.000110491)
(0.931598 9.16183e-05 0.000104152)
(0.931569 0.000128721 0.000120746)
(0.931597 0.000105382 9.79926e-05)
(0.931576 0.000144177 0.000105531)
(0.931609 0.000104394 9.72154e-05)
(0.931589 0.000118191 0.000119111)
(0.931612 9.06286e-05 9.9579e-05)
(0.931588 0.000122442 0.000104047)
(0.931614 0.000105394 8.5592e-05)
(0.931595 0.00012418 0.000103663)
(0.931616 9.38285e-05 0.000105352)
(0.931594 0.000119654 0.000118942)
(0.931611 0.000110472 0.00010472)
(0.931593 0.000139754 0.000107252)
(0.931613 0.000122588 0.000110597)
(0.931592 0.000127805 0.000115115)
(0.931608 0.000119552 0.000108124)
(0.93158 0.000143137 9.45593e-05)
(0.931611 0.000140564 8.81208e-05)
(0.931584 0.000136732 9.53343e-05)
(0.931624 0.000107276 0.000109012)
(0.931573 0.000121092 0.000103593)
(0.931628 0.000113508 9.26827e-05)
(0.931572 0.000125834 8.87965e-05)
(0.93164 0.000115227 9.12359e-05)
(0.931578 0.000101426 0.000109057)
(0.931643 9.27036e-05 9.62667e-05)
(0.931573 0.000118439 9.92232e-05)
(0.931646 0.000109456 7.8618e-05)
(0.931579 0.000119544 0.000101268)
(0.931646 9.52015e-05 9.04673e-05)
(0.931574 0.000102244 0.000104467)
(0.931627 0.000119256 8.3752e-05)
(0.931571 0.000124962 9.72771e-05)
(0.931619 0.00012004 9.58898e-05)
(0.93157 0.000109174 0.000115123)
(0.931599 0.00011347 0.000102344)
(0.931563 0.000135251 0.000103674)
(0.978273 8.42714e-05 8.36056e-05)
(0.978264 9.92298e-05 0.00010106)
(0.978277 6.34295e-05 9.30805e-05)
(0.978258 8.99669e-05 0.000109374)
(0.978273 7.02451e-05 9.47922e-05)
(0.978257 0.000100972 0.00010416)
(0.978275 7.28204e-05 9.2829e-05)
(0.978261 8.39871e-05 0.000107922)
(0.978273 6.20251e-05 9.46481e-05)
(0.978254 8.47496e-05 0.000102233)
(0.97827 7.44891e-05 8.9834e-05)
(0.978255 8.84951e-05 0.000100976)
(0.978274 6.98001e-05 0.000100505)
(0.978256 8.54956e-05 0.00011303)
(0.978274 8.01835e-05 0.000107318)
(0.978256 9.88839e-05 0.000110906)
(0.97828 8.96546e-05 0.000106625)
(0.978257 9.22969e-05 0.000113348)
(0.978282 8.62765e-05 0.000103071)
(0.978249 0.000101299 0.000103011)
(0.978284 0.000101037 9.26407e-05)
(0.978251 9.90859e-05 0.000101394)
(0.97829 7.88109e-05 0.000100161)
(0.978247 8.33424e-05 0.000105368)
(0.978283 7.95753e-05 9.42056e-05)
(0.978242 8.72623e-05 9.67713e-05)
(0.978283 8.09997e-05 8.77044e-05)
(0.978245 7.40152e-05 0.00010294)
(0.978282 6.40004e-05 8.92686e-05)
(0.978241 8.03505e-05 9.78818e-05)
(0.97828 7.58556e-05 7.88464e-05)
(0.978247 8.33445e-05 9.15059e-05)
(0.978281 6.78773e-05 8.14935e-05)
(0.97825 7.08206e-05 9.20045e-05)
(0.978273 7.92905e-05 8.13061e-05)
(0.978252 8.86602e-05 9.10779e-05)
(0.978275 8.05976e-05 8.65868e-05)
(0.978259 8.09721e-05 9.98221e-05)
(0.978272 7.3493e-05 9.05237e-05)
(0.978259 9.77171e-05 9.77642e-05)
(1.01414 5.43854e-05 7.03998e-05)
(1.01414 6.85372e-05 8.43132e-05)
(1.01415 4.28887e-05 7.58464e-05)
(1.01414 6.112e-05 8.93086e-05)
(1.01415 4.70987e-05 7.92397e-05)
(1.01414 6.82307e-05 8.76652e-05)
(1.01415 5.05073e-05 7.76814e-05)
(1.01414 5.83155e-05 8.92558e-05)
(1.01415 4.23024e-05 7.9243e-05)
(1.01414 5.75354e-05 8.73939e-05)
(1.01415 5.05262e-05 7.78607e-05)
(1.01414 6.23511e-05 8.70607e-05)
(1.01415 4.92674e-05 8.50508e-05)
(1.01414 5.90741e-05 9.67066e-05)
(1.01415 5.51166e-05 9.16942e-05)
(1.01414 6.77037e-05 9.89501e-05)
(1.01415 6.19246e-05 9.07715e-05)
(1.01414 6.49889e-05 0.000100233)
(1.01415 5.88853e-05 8.90627e-05)
(1.01413 6.97716e-05 9.43169e-05)
(1.01415 6.81284e-05 8.49259e-05)
(1.01413 6.95738e-05 9.26756e-05)
(1.01416 5.41564e-05 8.99796e-05)
(1.01413 5.66977e-05 9.57325e-05)
(1.01415 5.21911e-05 8.68481e-05)
(1.01413 5.88274e-05 9.12327e-05)
(1.01415 5.3788e-05 8.11931e-05)
(1.01413 5.23447e-05 9.31996e-05)
(1.01415 4.12525e-05 8.19611e-05)
(1.01413 5.34764e-05 8.92183e-05)
(1.01415 4.82041e-05 7.48663e-05)
(1.01413 5.6097e-05 8.22791e-05)
(1.01415 4.29131e-05 7.27765e-05)
(1.01413 4.78409e-05 8.10383e-05)
(1.01414 4.73949e-05 7.15191e-05)
(1.01413 6.01883e-05 8.05996e-05)
(1.01414 5.08433e-05 7.30365e-05)
(1.01414 5.70991e-05 8.4675e-05)
(1.01414 4.57213e-05 7.43584e-05)
(1.01413 6.64498e-05 8.38546e-05)
(1.03871 3.14305e-05 5.82176e-05)
(1.03871 4.19374e-05 6.83264e-05)
(1.03872 2.58335e-05 6.12568e-05)
(1.03871 3.69189e-05 7.06903e-05)
(1.03872 2.72821e-05 6.33856e-05)
(1.03871 4.05603e-05 7.02026e-05)
(1.03872 3.0348e-05 6.1942e-05)
(1.03872 3.52598e-05 7.0252e-05)
(1.03872 2.50257e-05 6.24777e-05)
(1.03871 3.3985e-05 6.87948e-05)
(1.03872 3.01786e-05 6.226e-05)
(1.03872 3.88654e-05 6.89343e-05)
(1.03872 3.13563e-05 6.67543e-05)
(1.03872 3.75297e-05 7.63392e-05)
(1.03872 3.48153e-05 7.19332e-05)
(1.03872 4.28832e-05 8.01432e-05)
(1.03872 3.90982e-05 7.19908e-05)
(1.03871 4.23291e-05 8.07119e-05)
(1.03872 3.67262e-05 7.20348e-05)
(1.03871 4.45683e-05 7.706e-05)
(1.03872 4.20669e-05 7.13884e-05)
(1.03871 4.54317e-05 7.69053e-05)
(1.03873 3.37635e-05 7.49416e-05)
(1.03871 3.60625e-05 8.00397e-05)
(1.03872 3.03515e-05 7.3082e-05)
(1.03871 3.64725e-05 7.82794e-05)
(1.03872 3.10416e-05 6.96309e-05)
(1.03871 3.35747e-05 7.86885e-05)
(1.03872 2.27249e-05 7.01603e-05)
(1.03871 3.23283e-05 7.57673e-05)
(1.03872 2.56438e-05 6.54144e-05)
(1.03871 3.40314e-05 7.04038e-05)
(1.03872 2.29887e-05 6.18144e-05)
(1.03871 2.87746e-05 6.85088e-05)
(1.03871 2.45174e-05 5.9985e-05)
(1.03871 3.62366e-05 6.82889e-05)
(1.03871 2.80668e-05 6.0319e-05)
(1.03871 3.56252e-05 7.02914e-05)
(1.03871 2.5492e-05 6.0396e-05)
(1.03871 3.99618e-05 6.92168e-05)
(1.05262 1.55489e-05 4.51029e-05)
(1.05262 2.30326e-05 5.13945e-05)
(1.05262 1.31577e-05 4.65192e-05)
(1.05262 2.04744e-05 5.24058e-05)
(1.05262 1.35188e-05 4.72111e-05)
(1.05262 2.24252e-05 5.20786e-05)
(1.05262 1.5863e-05 4.59618e-05)
(1.05262 1.9942e-05 5.14748e-05)
(1.05262 1.29944e-05 4.57661e-05)
(1.05262 1.91584e-05 5.00399e-05)
(1.05262 1.60932e-05 4.53816e-05)
(1.05262 2.34831e-05 5.06997e-05)
(1.05263 1.85191e-05 4.81791e-05)
(1.05262 2.31443e-05 5.62366e-05)
(1.05263 2.04389e-05 5.18746e-05)
(1.05262 2.61543e-05 5.95981e-05)
(1.05263 2.25502e-05 5.29857e-05)
(1.05262 2.64036e-05 5.9751e-05)
(1.05263 2.0762e-05 5.38701e-05)
(1.05262 2.73958e-05 5.76103e-05)
(1.05263 2.37654e-05 5.4536e-05)
(1.05262 2.84138e-05 5.88839e-05)
(1.05263 1.90746e-05 5.73964e-05)
(1.05262 2.18548e-05 6.19011e-05)
(1.05263 1.53787e-05 5.65e-05)
(1.05262 2.08822e-05 6.13533e-05)
(1.05263 1.55279e-05 5.49548e-05)
(1.05262 1.98537e-05 6.14407e-05)
(1.05263 1.0468e-05 5.52965e-05)
(1.05262 1.78081e-05 5.93119e-05)
(1.05263 1.10346e-05 5.19026e-05)
(1.05262 1.81764e-05 5.54388e-05)
(1.05262 9.7608e-06 4.8449e-05)
(1.05262 1.46729e-05 5.33807e-05)
(1.05262 9.87347e-06 4.62971e-05)
(1.05262 1.87779e-05 5.29818e-05)
(1.05262 1.28086e-05 4.64027e-05)
(1.05262 1.95752e-05 5.40944e-05)
(1.05262 1.17822e-05 4.63701e-05)
(1.05262 2.14244e-05 5.26634e-05)
(1.05817 5.35346e-06 3.20562e-05)
(1.05817 1.0247e-05 3.56072e-05)
(1.05817 4.32162e-06 3.26265e-05)
(1.05817 9.26784e-06 3.61152e-05)
(1.05817 4.20868e-06 3.27398e-05)
(1.05817 1.03815e-05 3.56818e-05)
(1.05817 5.94841e-06 3.15173e-05)
(1.05817 9.33025e-06 3.47363e-05)
(1.05817 4.75669e-06 3.08903e-05)
(1.05817 9.14436e-06 3.34214e-05)
(1.05817 6.70725e-06 3.01605e-05)
(1.05817 1.25564e-05 3.38022e-05)
(1.05818 9.38246e-06 3.17995e-05)
(1.05818 1.29753e-05 3.76217e-05)
(1.05818 1.07389e-05 3.45021e-05)
(1.05818 1.46439e-05 3.99369e-05)
(1.05818 1.14359e-05 3.56635e-05)
(1.05818 1.48503e-05 3.98981e-05)
(1.05818 1.00706e-05 3.66759e-05)
(1.05817 1.52497e-05 3.89047e-05)
(1.05818 1.16165e-05 3.75832e-05)
(1.05818 1.59742e-05 4.04322e-05)
(1.05818 9.09559e-06 3.98658e-05)
(1.05818 1.15533e-05 4.30977e-05)
(1.05818 5.83555e-06 3.97922e-05)
(1.05818 1.01098e-05 4.32355e-05)
(1.05818 5.64753e-06 3.91462e-05)
(1.05818 9.72095e-06 4.34433e-05)
(1.05818 2.54703e-06 3.9519e-05)
(1.05818 7.9107e-06 4.21762e-05)
(1.05818 2.00788e-06 3.7167e-05)
(1.05818 7.35001e-06 3.93504e-05)
(1.05818 1.10588e-06 3.43382e-05)
(1.05818 4.89226e-06 3.76541e-05)
(1.05818 8.21268e-07 3.25358e-05)
(1.05818 7.10665e-06 3.71183e-05)
(1.05817 2.96915e-06 3.24868e-05)
(1.05818 8.2793e-06 3.77485e-05)
(1.05817 2.89453e-06 3.28051e-05)
(1.05817 9.10773e-06 3.68079e-05)
(1.0594 -5.30175e-08 2.12276e-05)
(1.0594 3.13355e-06 2.30521e-05)
(1.0594 -4.55524e-07 2.1424e-05)
(1.0594 3.07849e-06 2.31641e-05)
(1.0594 -5.43166e-07 2.13352e-05)
(1.0594 3.85606e-06 2.29396e-05)
(1.0594 7.51828e-07 2.03526e-05)
(1.0594 3.50087e-06 2.19721e-05)
(1.0594 5.63164e-07 1.95591e-05)
(1.0594 3.72865e-06 2.0897e-05)
(1.0594 1.99095e-06 1.8959e-05)
(1.0594 6.38174e-06 2.10843e-05)
(1.0594 4.46394e-06 1.98545e-05)
(1.0594 7.20041e-06 2.3687e-05)
(1.0594 5.57652e-06 2.17672e-05)
(1.0594 8.00814e-06 2.54446e-05)
(1.0594 5.44274e-06 2.2743e-05)
(1.0594 7.96421e-06 2.53241e-05)
(1.05941 4.32453e-06 2.35947e-05)
(1.0594 8.01189e-06 2.48979e-05)
(1.0594 4.99098e-06 2.46893e-05)
(1.0594 8.42771e-06 2.62517e-05)
(1.05941 3.66837e-06 2.64492e-05)
(1.0594 5.52221e-06 2.83693e-05)
(1.05941 1.04089e-06 2.68044e-05)
(1.0594 4.09868e-06 2.89683e-05)
(1.0594 5.02697e-07 2.65883e-05)
(1.05941 3.78053e-06 2.91443e-05)
(1.0594 -1.49261e-06 2.67927e-05)
(1.05941 2.45426e-06 2.82024e-05)
(1.05941 -2.46018e-06 2.52091e-05)
(1.05941 1.46061e-06 2.61017e-05)
(1.05941 -3.25902e-06 2.2873e-05)
(1.05941 -3.72765e-07 2.46163e-05)
(1.0594 -3.65772e-06 2.13509e-05)
(1.0594 7.00197e-07 2.40875e-05)
(1.0594 -2.29332e-06 2.11313e-05)
(1.0594 1.81695e-06 2.44053e-05)
(1.0594 -1.78983e-06 2.14562e-05)
(1.0594 2.37443e-06 2.39512e-05)
(1.05953 -2.6544e-06 1.37692e-05)
(1.05953 -9.35445e-07 1.45763e-05)
(1.05953 -2.74977e-06 1.38369e-05)
(1.05953 -4.82268e-07 1.44574e-05)
(1.05953 -2.72892e-06 1.36e-05)
(1.05953 2.08924e-07 1.43118e-05)
(1.05953 -1.66161e-06 1.27723e-05)
(1.05953 1.98992e-07 1.34782e-05)
(1.05953 -1.3944e-06 1.20438e-05)
(1.05953 7.18857e-07 1.25638e-05)
(1.05953 -2.70671e-07 1.15613e-05)
(1.05953 2.8512e-06 1.26543e-05)
(1.05953 1.81441e-06 1.20149e-05)
(1.05953 3.81315e-06 1.44921e-05)
(1.05954 2.72503e-06 1.32729e-05)
(1.05954 4.23328e-06 1.58502e-05)
(1.05954 2.23487e-06 1.41472e-05)
(1.05954 3.98971e-06 1.57877e-05)
(1.05954 1.2091e-06 1.49219e-05)
(1.05954 3.77217e-06 1.56376e-05)
(1.05954 1.39694e-06 1.60802e-05)
(1.05954 3.91004e-06 1.68187e-05)
(1.05954 7.28371e-07 1.75564e-05)
(1.05954 2.02026e-06 1.85552e-05)
(1.05954 -1.16818e-06 1.80759e-05)
(1.05954 7.51881e-07 1.93448e-05)
(1.05954 -1.92554e-06 1.8089e-05)
(1.05954 3.92481e-07 1.95368e-05)
(1.05954 -3.27191e-06 1.82127e-05)
(1.05954 -6.2144e-07 1.87681e-05)
(1.05954 -4.34224e-06 1.71034e-05)
(1.05954 -1.76223e-06 1.7174e-05)
(1.05954 -5.02052e-06 1.52032e-05)
(1.05954 -3.23972e-06 1.58913e-05)
(1.05954 -5.50966e-06 1.38687e-05)
(1.05954 -2.83369e-06 1.53549e-05)
(1.05954 -4.67833e-06 1.35086e-05)
(1.05953 -1.91205e-06 1.5532e-05)
(1.05953 -3.95711e-06 1.37442e-05)
(1.05953 -1.47393e-06 1.52659e-05)
(1.05954 -3.33757e-06 8.96167e-06)
(1.05954 -2.65502e-06 9.20021e-06)
(1.05954 -3.31395e-06 8.97586e-06)
(1.05954 -1.96699e-06 8.95798e-06)
(1.05954 -3.23214e-06 8.62351e-06)
(1.05954 -1.26395e-06 8.82795e-06)
(1.05954 -2.32479e-06 7.89873e-06)
(1.05954 -1.0714e-06 8.16642e-06)
(1.05954 -1.90101e-06 7.31045e-06)
(1.05954 -3.42908e-07 7.4075e-06)
(1.05954 -1.05388e-06 6.91181e-06)
(1.05954 1.35681e-06 7.42542e-06)
(1.05954 6.6997e-07 7.06565e-06)
(1.05954 2.27371e-06 8.74919e-06)
(1.05954 1.42772e-06 7.88292e-06)
(1.05954 2.45605e-06 9.79075e-06)
(1.05954 8.56983e-07 8.6648e-06)
(1.05954 2.07555e-06 9.7976e-06)
(1.05954 -4.64724e-08 9.38329e-06)
(1.05954 1.66814e-06 9.81414e-06)
(1.05954 -1.2131e-07 1.05204e-05)
(1.05954 1.55938e-06 1.08226e-05)
(1.05954 -4.73316e-07 1.18106e-05)
(1.05954 3.39933e-07 1.22643e-05)
(1.05954 -1.72051e-06 1.24142e-05)
(1.05954 -7.35633e-07 1.3093e-05)
(1.05954 -2.40381e-06 1.25035e-05)
(1.05954 -1.1081e-06 1.33117e-05)
(1.05954 -3.41487e-06 1.25998e-05)
(1.05954 -1.91022e-06 1.27e-05)
(1.05955 -4.48499e-06 1.18225e-05)
(1.05954 -3.08967e-06 1.14993e-05)
(1.05955 -5.10709e-06 1.03038e-05)
(1.05954 -4.33621e-06 1.04486e-05)
(1.05954 -5.58411e-06 9.16565e-06)
(1.05954 -4.28523e-06 9.89e-06)
(1.05954 -5.0695e-06 8.67827e-06)
(1.05954 -3.52901e-06 9.95598e-06)
(1.05954 -4.32227e-06 8.84249e-06)
(1.05954 -3.16318e-06 9.76387e-06)