/*--------------------------------*- C++ -*----------------------------------*\
  =========                 |
  \\      /  F ield         | OpenFOAM: The Open Source CFD Toolbox
   \\    /   O peration     | Website:  https://openfoam.org
    \\  /    A nd           | Version:  10
     \\/     M anipulation  |
\*---------------------------------------------------------------------------*/
FoamFile
{
    format      ascii;
    class       volScalarField;
    location    "2";
    object      nut;
}
// * * * * * * * * * * * * * * * * * * * * * * * * * * * * * * * * * * * * * //

dimensions      [0 2 -1 0 0 0 0];

internalField   nonuniform List<scalar> 
102400
(
4.92685e-11
1.34454e-09
3.19197e-08
5.49131e-09
5.68737e-11
9.42975e-11
1.28622e-11
6.38917e-11
7.1923e-10
4.2267e-11
7.15573e-10
3.30146e-09
1.43102e-09
4.58213e-13
3.63994e-10
1.52405e-09
3.46003e-09
3.35404e-09
1.33791e-09
3.85374e-10
4.20981e-09
3.52658e-08
2.78922e-08
7.08231e-09
5.04777e-08
7.49162e-09
5.61294e-08
1.50541e-08
1.75434e-08
3.74177e-08
3.46702e-08
3.39489e-08
3.64852e-08
2.75738e-08
1.00876e-08
4.44089e-09
1.00095e-09
6.85251e-11
2.7778e-09
1.60769e-09
2.94938e-10
1.35505e-09
4.34738e-07
1.02937e-06
1.38191e-08
2.58025e-09
1.33385e-09
5.15127e-09
9.10578e-09
4.40627e-10
3.95442e-09
2.44777e-08
2.82144e-08
3.5873e-10
5.6346e-09
2.53242e-08
3.00691e-08
2.51658e-08
1.74196e-08
1.27086e-08
3.36229e-08
9.62748e-08
1.1968e-07
1.02771e-09
2.68394e-07
1.72854e-08
2.63168e-07
2.26185e-07
8.70023e-08
3.6049e-08
3.27861e-07
5.05304e-07
3.92849e-07
6.28538e-07
2.06676e-07
1.36658e-08
1.1332e-09
2.78737e-09
2.3091e-10
3.67041e-09
2.14969e-08
1.20103e-08
1.3127e-07
2.02744e-05
1.40497e-05
1.245e-08
1.52975e-09
5.70443e-08
1.11214e-07
1.52986e-08
3.54686e-09
2.67774e-08
1.108e-07
9.70363e-08
2.33217e-09
7.83047e-08
7.6564e-08
4.53271e-08
1.16282e-08
2.38567e-08
6.99784e-08
2.45827e-07
2.19643e-07
1.08533e-08
3.04219e-07
2.47182e-07
6.8323e-08
6.24039e-07
6.77465e-07
3.45209e-08
9.08562e-08
1.27359e-06
1.41732e-06
3.03574e-06
3.92982e-06
2.4108e-07
2.68516e-09
1.28799e-08
1.24238e-07
2.18011e-08
2.01422e-06
4.15034e-07
3.0035e-08
8.41387e-06
0.000127969
3.46725e-05
4.28786e-07
8.39909e-08
1.35893e-06
3.70358e-07
3.02456e-08
2.5528e-08
5.11658e-08
5.81795e-07
6.79945e-07
1.419e-08
5.71884e-07
4.22007e-07
6.41759e-07
6.26088e-08
1.3744e-07
5.84575e-07
3.28782e-07
7.89495e-08
1.36467e-08
9.54626e-07
3.64483e-08
3.75255e-07
1.18512e-06
1.05812e-06
8.88013e-08
2.95124e-07
2.25105e-06
4.16012e-06
2.42718e-05
1.15576e-05
8.41207e-08
6.6104e-08
1.92197e-07
1.89902e-06
9.09834e-06
4.4447e-06
1.02241e-07
1.18799e-06
6.62319e-05
0.000109535
1.10366e-05
4.75421e-08
6.2971e-06
5.35472e-06
2.87438e-06
1.0928e-06
1.54176e-07
1.24661e-07
4.93674e-06
2.87794e-06
8.97531e-06
2.81684e-06
6.1574e-06
5.60969e-05
2.00936e-07
4.48663e-06
8.89675e-06
6.60411e-08
1.53605e-08
5.16914e-06
2.49708e-06
4.26907e-08
3.40231e-07
2.75115e-06
2.98848e-06
1.95308e-06
5.28861e-07
4.07338e-06
2.31061e-05
7.00032e-05
7.01325e-06
1.95773e-07
3.9928e-07
2.36011e-07
7.02965e-07
5.0385e-06
4.0436e-07
9.11819e-07
2.43194e-05
9.05701e-05
4.13441e-05
2.75158e-08
1.1555e-05
3.06782e-05
5.82786e-05
4.17389e-05
1.7859e-05
1.32554e-05
7.60184e-06
1.19265e-05
6.23037e-06
2.95281e-05
4.59587e-06
5.73375e-06
1.12139e-05
7.62793e-06
1.59735e-08
5.666e-07
4.98681e-08
6.77985e-06
0.000167392
7.72771e-08
2.96051e-07
9.54087e-07
8.74996e-06
1.74523e-05
3.37861e-07
4.04521e-06
2.36246e-05
3.75622e-05
2.09208e-05
1.52096e-06
1.074e-06
1.68732e-06
2.76265e-06
1.90651e-06
1.74906e-06
2.2731e-06
1.95766e-05
8.8236e-05
3.47041e-05
5.45564e-06
2.07506e-05
3.42223e-05
1.71756e-05
2.68026e-05
0.000113892
2.50127e-05
4.98011e-06
4.34958e-05
1.14472e-05
1.9553e-06
1.01132e-05
1.42913e-05
3.65537e-05
5.11286e-06
3.78231e-08
5.26046e-06
2.82559e-08
1.82519e-06
1.94826e-05
4.39833e-05
1.11614e-06
5.09179e-07
3.56618e-06
6.57267e-06
1.28173e-05
3.27258e-06
5.4135e-05
4.57959e-06
1.16974e-05
8.3377e-06
2.34666e-06
4.66233e-06
3.55732e-06
1.94013e-06
4.3944e-06
1.96897e-05
2.64911e-05
9.68714e-05
3.55001e-05
0.000103974
1.76084e-05
3.77511e-05
1.15062e-05
3.67875e-06
0.0001465
6.33548e-05
7.02343e-06
3.29041e-05
2.6539e-05
5.52265e-06
6.03698e-05
1.3171e-05
1.74589e-05
9.24713e-06
6.10122e-07
8.80297e-07
5.34764e-06
1.10755e-06
3.53889e-05
9.85299e-07
1.69217e-05
1.41387e-06
2.10085e-06
8.24496e-06
5.00446e-06
2.1e-05
1.63287e-05
3.34805e-06
1.22476e-06
1.2419e-05
4.7747e-06
5.63648e-06
2.68924e-06
9.80798e-07
2.44359e-06
1.39037e-05
5.17264e-05
5.29771e-05
5.73855e-05
0.000115465
1.48245e-06
3.65607e-05
1.82719e-05
1.28967e-05
8.92973e-05
5.61186e-05
9.76175e-06
6.33086e-07
3.13165e-05
1.63101e-05
6.14945e-05
1.56578e-05
5.76451e-06
2.47518e-05
4.54156e-05
1.2932e-06
3.22129e-06
8.2468e-06
1.01375e-05
6.03253e-06
3.84186e-06
9.25415e-05
4.70074e-06
4.50412e-06
4.22784e-05
8.36976e-06
5.78437e-06
3.64167e-05
2.72105e-05
4.30586e-05
1.5779e-05
7.45737e-06
2.901e-06
3.54056e-07
1.61109e-06
2.81162e-06
7.27744e-06
5.93735e-06
7.03261e-05
0.000179343
4.56113e-05
2.88883e-05
1.37722e-05
1.19863e-05
1.26552e-05
2.58239e-05
4.18365e-05
4.52618e-06
2.16137e-05
2.24482e-05
6.92693e-05
1.36827e-05
4.04918e-05
1.89855e-05
6.88724e-06
8.30514e-07
7.62456e-07
1.14739e-05
1.76044e-05
8.1394e-05
1.23248e-05
1.19275e-05
2.21206e-05
2.26777e-06
5.39133e-05
5.88069e-06
4.71462e-05
3.91928e-05
2.36292e-05
3.32557e-05
5.4506e-05
1.2976e-05
5.28468e-06
1.88682e-06
6.08012e-07
3.73041e-07
3.71087e-06
5.26787e-06
7.70847e-05
0.000229449
0.000152599
1.98978e-05
9.26826e-07
5.06827e-06
7.7209e-06
8.89364e-06
7.79825e-06
6.21226e-06
1.4611e-05
3.41889e-05
1.77296e-05
2.20848e-05
1.48964e-05
1.85657e-05
1.16062e-05
2.76419e-06
4.20642e-07
2.37634e-06
2.96239e-05
1.68187e-05
2.84461e-05
2.98692e-05
3.23659e-05
8.92072e-06
3.60276e-05
0.000120141
1.81274e-05
0.000193486
0.000132612
2.48242e-05
2.07341e-05
7.6683e-06
2.05796e-06
1.18127e-05
6.09966e-07
1.10937e-06
3.30679e-06
8.75464e-06
9.42994e-05
0.000223138
0.000201348
2.02404e-05
6.969e-06
1.38116e-05
1.69522e-05
8.20813e-06
1.75342e-06
7.49372e-06
1.28871e-05
2.89106e-05
1.14731e-05
2.52636e-05
3.25409e-05
2.89443e-05
1.45738e-05
1.82359e-05
8.15279e-07
9.2188e-06
3.84451e-05
1.55113e-05
2.80079e-05
2.90952e-05
1.25273e-05
5.81281e-05
3.12291e-05
0.000236427
6.02201e-05
0.000282345
3.77265e-05
1.32279e-05
3.88413e-05
0.000212302
0.000151213
5.30229e-06
5.15452e-07
3.28092e-06
4.16921e-06
2.34515e-05
5.732e-05
0.00019681
0.000170152
4.73861e-05
1.98977e-05
1.07151e-05
4.77473e-06
7.47101e-06
3.86063e-06
7.49341e-06
3.19491e-06
1.97551e-05
2.51673e-05
2.95009e-05
0.000115339
2.25246e-05
2.38594e-05
3.24656e-05
4.11178e-05
3.77911e-05
5.536e-05
1.65494e-05
2.76434e-05
6.80142e-06
3.60214e-05
2.75378e-05
8.58272e-06
3.16784e-05
9.9908e-06
0.00011042
0.000132611
1.55886e-05
6.4916e-05
0.000156664
0.000238016
3.58195e-06
2.27954e-07
1.35142e-05
1.15836e-05
4.78662e-05
2.71944e-05
0.000162683
0.000197573
1.28145e-05
3.0264e-05
3.85998e-06
4.58375e-06
7.36692e-06
6.17104e-06
4.28048e-05
2.11412e-05
1.01782e-05
2.5759e-05
3.03484e-05
7.0693e-05
1.97593e-05
2.60121e-05
5.40843e-06
3.1829e-05
4.44602e-05
2.60125e-05
2.66931e-05
1.92619e-05
2.23744e-05
3.16497e-05
1.16641e-05
5.31319e-06
1.73899e-05
2.75825e-05
1.94648e-05
0.000169863
6.62506e-06
0.000106302
0.000147737
0.000329019
8.65964e-06
1.18187e-07
7.38844e-06
1.32884e-05
2.07737e-05
4.17552e-05
6.81487e-05
7.3781e-05
2.44541e-05
2.79016e-05
5.1095e-06
1.47949e-05
2.17782e-05
8.36505e-06
6.88039e-05
5.89026e-05
1.10785e-05
1.46348e-05
1.5074e-05
3.02726e-05
5.62537e-05
1.01723e-05
4.48983e-06
7.19101e-06
6.65589e-05
1.98142e-05
2.91723e-05
6.2957e-06
3.57711e-05
6.1011e-05
2.97768e-05
2.81354e-05
3.92553e-05
3.63568e-05
1.6771e-05
6.9267e-05
8.51158e-06
1.5323e-06
0.000178449
0.000362878
0.000282869
8.22907e-05
2.54631e-05
1.14717e-05
6.5164e-06
6.18284e-05
3.12584e-05
5.02636e-05
3.41922e-06
2.39716e-05
2.11559e-05
2.315e-05
3.61913e-05
1.25841e-05
5.2084e-05
7.88464e-05
2.44161e-05
1.38417e-05
5.28315e-06
3.8763e-05
3.90631e-05
8.25483e-06
6.2624e-06
1.15556e-05
5.92585e-05
1.01561e-05
4.68746e-05
1.37856e-05
6.14731e-05
1.82114e-05
2.84725e-05
5.02402e-05
4.37808e-05
2.34732e-05
4.04134e-05
2.1875e-05
1.50671e-05
1.76181e-05
2.39186e-05
0.000323084
0.000209365
0.000101808
0.000117963
8.73604e-05
1.54548e-05
6.73651e-05
3.03972e-05
3.15966e-05
2.28627e-05
3.17756e-06
2.09384e-05
1.01573e-05
6.44933e-06
2.0486e-05
4.33858e-05
5.45236e-05
1.79293e-05
1.04441e-05
8.40528e-06
7.70682e-06
8.80678e-06
1.32487e-05
5.94557e-06
1.04224e-05
6.16559e-05
2.13429e-05
3.80178e-05
1.42198e-06
8.06603e-05
5.64428e-05
5.19761e-05
1.0772e-05
1.43096e-05
3.77202e-05
5.02167e-05
1.40635e-05
1.65799e-05
1.25721e-05
7.15679e-06
0.000141409
0.000152606
8.59586e-05
5.06694e-05
0.000131496
2.2615e-05
2.24617e-05
3.74467e-05
2.36158e-05
2.10194e-05
4.71632e-06
1.22544e-06
2.09667e-06
1.00504e-05
1.24277e-05
9.10354e-06
2.35503e-05
2.53105e-05
1.88344e-05
1.51042e-05
3.807e-05
4.26749e-05
1.33827e-05
4.02046e-06
1.46694e-05
9.59281e-05
2.61602e-05
4.0191e-05
3.88406e-05
4.30114e-05
9.53295e-05
5.00794e-05
4.44087e-06
2.33601e-05
9.07422e-05
3.12209e-05
1.75751e-05
2.9538e-05
1.86549e-05
2.68478e-06
2.51196e-06
3.40826e-05
7.65636e-05
3.33691e-05
0.000110346
6.10099e-05
1.60633e-05
5.43883e-06
1.00554e-05
1.5725e-05
9.62908e-06
2.67015e-06
1.9264e-06
3.10176e-06
1.12102e-05
7.95109e-06
2.70545e-05
2.51018e-05
5.24529e-05
1.89539e-05
1.02871e-05
0.000172507
1.39394e-05
6.01231e-05
0.000123428
5.01718e-05
1.56523e-05
4.54888e-05
4.71119e-05
1.9344e-05
0.000117116
0.000191813
7.70467e-06
1.49508e-05
4.29105e-05
7.34556e-05
9.0022e-05
2.14237e-05
3.80201e-05
2.48779e-05
2.31968e-05
2.64975e-05
3.94266e-06
1.20719e-05
9.61492e-05
0.000132682
1.85748e-05
7.97751e-06
9.57902e-06
3.66757e-05
5.60571e-06
3.10507e-06
7.69604e-06
1.97121e-06
1.60332e-05
4.81645e-05
3.27944e-05
1.41806e-05
2.83898e-05
0.000103785
3.60115e-06
7.85861e-05
3.11879e-05
3.34238e-05
0.000119386
5.4222e-05
5.69427e-05
4.54344e-05
0.000110772
4.31015e-05
1.62107e-06
3.37249e-05
2.29492e-05
8.47596e-06
1.13331e-05
1.93872e-05
1.94799e-05
7.19391e-06
1.72634e-05
3.74924e-05
1.71054e-05
5.24984e-06
4.20318e-06
2.29207e-05
0.000111073
8.80976e-05
5.90983e-05
2.52588e-05
2.23814e-05
3.31324e-05
5.51664e-05
5.18257e-06
2.12094e-05
1.10791e-05
1.6203e-05
2.01362e-05
3.30119e-06
6.37986e-06
2.31211e-05
6.15683e-05
6.91992e-05
2.36011e-05
4.96301e-06
3.95406e-05
8.35243e-05
4.03074e-05
3.00879e-05
7.79327e-05
3.05116e-05
0.000210422
3.19957e-05
4.67891e-05
5.12537e-05
7.18616e-05
1.26455e-05
1.23286e-05
1.38885e-05
2.33863e-06
1.10429e-05
3.2303e-05
1.40065e-05
1.07007e-05
5.53966e-06
9.50364e-06
1.35133e-05
8.48573e-06
2.79655e-05
7.55629e-05
4.43231e-05
1.8295e-05
1.23916e-05
1.79154e-05
2.03873e-06
3.15716e-05
4.80747e-06
3.12684e-05
1.23075e-05
2.81715e-05
6.81688e-06
3.93627e-05
6.67394e-05
1.49376e-05
2.33505e-05
2.14563e-05
6.06571e-05
0.000124782
0.000113557
6.17195e-05
1.38023e-05
2.51815e-05
1.50765e-05
2.17856e-05
2.00758e-05
0.000132285
3.85516e-05
3.38213e-05
1.64073e-05
7.90189e-06
3.28757e-05
5.50544e-05
2.50845e-05
4.34977e-05
1.51331e-05
1.79354e-05
2.50525e-05
2.30573e-05
8.58221e-06
3.18211e-05
3.55016e-05
4.70675e-05
8.83121e-06
1.44054e-05
3.53071e-05
2.62213e-05
7.56315e-06
5.34574e-06
1.29484e-05
1.15664e-05
6.9708e-06
4.96365e-06
2.59887e-05
2.95123e-05
1.67328e-05
1.68295e-05
4.98818e-05
0.000125244
7.75015e-05
1.84068e-05
6.4737e-06
3.01888e-05
1.82361e-05
6.34386e-06
1.26065e-05
5.08477e-05
7.62801e-05
3.33064e-05
3.08132e-05
2.80856e-06
0.000181514
0.000142875
3.17101e-06
4.89608e-07
1.14106e-05
8.35112e-06
1.61417e-05
8.32253e-06
1.17315e-06
1.46044e-05
4.25999e-05
6.68448e-05
4.42231e-05
2.79098e-05
1.56887e-05
1.93512e-05
2.02585e-06
2.58754e-06
1.0158e-05
1.49584e-05
7.90943e-06
3.97741e-05
8.27329e-05
2.58578e-05
1.91763e-05
7.82192e-05
5.62848e-05
3.551e-05
1.91946e-05
3.15799e-05
2.38111e-05
3.15354e-05
0.000163597
0.000168808
5.99362e-05
1.58501e-05
2.39436e-05
3.0093e-05
3.70971e-05
4.33552e-05
2.89204e-05
1.38021e-05
8.38617e-06
8.11389e-06
4.15919e-06
7.14928e-06
1.08019e-05
4.20519e-05
0.00016408
0.000163864
4.4656e-05
8.85642e-06
2.56898e-05
2.6308e-05
1.49906e-05
1.28185e-05
1.58994e-05
1.46758e-05
6.08558e-06
2.39634e-05
3.81856e-05
3.70363e-05
3.04335e-05
1.53777e-05
1.76554e-05
2.24334e-05
3.58991e-05
3.12733e-05
2.19888e-05
1.88729e-05
3.11153e-05
2.59041e-05
0.000160496
0.000248227
6.85e-05
2.35484e-05
3.14996e-05
4.40943e-05
0.000127336
2.22902e-05
1.18518e-05
3.78144e-06
1.62398e-05
5.72761e-06
6.06084e-05
3.46389e-05
1.73672e-06
9.96346e-06
6.72227e-05
0.000119597
6.68678e-05
1.30972e-05
1.18217e-05
1.90872e-05
2.57219e-05
1.88413e-05
1.81907e-05
2.30206e-05
8.0569e-05
4.61579e-05
2.37749e-05
2.57045e-05
6.72722e-05
6.45734e-05
4.04828e-05
4.01995e-05
8.05877e-05
0.000193411
0.000153737
3.77205e-06
2.80145e-05
1.7468e-05
7.48965e-05
9.22162e-05
1.87749e-05
4.32216e-07
4.5985e-05
0.000160097
0.000172301
4.78315e-05
4.65937e-05
3.09437e-05
2.95858e-05
3.35926e-05
1.63783e-05
3.3057e-05
3.07429e-05
3.06872e-05
4.22464e-05
6.20433e-05
4.41977e-05
3.55306e-05
5.42093e-05
0.000134191
6.57351e-05
4.49813e-05
4.09644e-05
1.94486e-05
7.15426e-05
0.000106137
4.37845e-06
1.03498e-05
7.42643e-06
1.12358e-05
1.25998e-05
3.53288e-05
4.20283e-05
3.44235e-05
9.69167e-05
3.31903e-05
2.54185e-05
9.18649e-05
0.000126941
2.89088e-05
2.69887e-05
3.36911e-05
1.26218e-05
3.34509e-06
3.79786e-06
8.88976e-06
6.2156e-06
4.36897e-05
1.56941e-05
3.1054e-05
3.63943e-05
2.8866e-05
8.95193e-06
4.09342e-05
1.61634e-05
4.79572e-06
1.56984e-05
5.8674e-05
0.000112961
0.000125178
1.44811e-05
1.46871e-05
1.31645e-05
2.90991e-05
2.39133e-05
3.50473e-05
3.42857e-05
6.75788e-05
6.03266e-05
1.8282e-05
2.12521e-05
3.93527e-05
0.000103286
5.24274e-05
4.05707e-05
0.0001123
0.000186459
0.000151194
9.26263e-05
1.76278e-05
1.41373e-05
1.03072e-05
9.89839e-06
2.10741e-05
1.52747e-05
1.46557e-05
1.19003e-05
8.8272e-06
0.000111636
6.14871e-05
4.5788e-05
6.98284e-05
2.30172e-05
1.06761e-05
1.83727e-05
8.97685e-06
5.57375e-06
3.8348e-05
5.95681e-05
2.04891e-05
8.76511e-06
8.62862e-06
1.30453e-05
8.98828e-06
5.31696e-06
2.05474e-05
9.86018e-05
0.000100567
7.92207e-06
2.46973e-05
0.00010671
0.000156664
5.94689e-05
1.27761e-05
2.02909e-05
2.20244e-05
1.54724e-05
4.80777e-05
0.000131735
5.97338e-05
5.3075e-06
1.61727e-05
4.60732e-05
3.09752e-05
1.61712e-05
1.90194e-05
3.94764e-05
7.36844e-05
2.17139e-05
2.54699e-05
1.9143e-05
1.99136e-05
9.50728e-06
8.12171e-06
0.000126099
0.000236643
5.34567e-05
7.89287e-06
1.60246e-05
7.47204e-05
0.000183056
9.0731e-05
2.92183e-05
1.59611e-05
6.95058e-06
6.65651e-06
4.42341e-06
9.74047e-06
1.59709e-05
1.34743e-05
7.08707e-06
1.06307e-05
2.47915e-06
1.98487e-06
4.8357e-06
7.80346e-06
1.27066e-05
1.46013e-05
2.76504e-05
8.04766e-05
6.98429e-05
3.5312e-05
1.82302e-06
3.62069e-06
2.14595e-05
4.14514e-05
8.18643e-05
9.02166e-06
3.23875e-05
0.000175226
4.73043e-05
1.37174e-05
1.89654e-05
9.74593e-05
1.16246e-05
3.40567e-06
6.77997e-06
2.20525e-05
3.16694e-05
0.000265227
0.000303197
0.000230494
0.00010006
4.94685e-06
2.75777e-06
1.85501e-05
3.9039e-05
4.68375e-05
3.87149e-05
3.18752e-05
3.47084e-05
2.05925e-05
1.07451e-05
8.17116e-06
2.16947e-06
6.04558e-07
1.40106e-06
2.76807e-06
2.90886e-06
5.2936e-06
1.98501e-06
5.8715e-06
4.41019e-05
1.90954e-05
4.04334e-06
3.14728e-05
2.55235e-05
1.77711e-05
8.80211e-06
2.68466e-05
2.39025e-05
1.63912e-05
8.55977e-06
1.17172e-05
1.61063e-05
7.2645e-06
9.1266e-06
3.08834e-05
2.00703e-05
1.50784e-05
1.4669e-05
1.56237e-05
8.91415e-06
2.52636e-05
2.06761e-05
1.544e-05
1.84521e-05
1.70868e-05
1.43508e-05
4.15034e-06
3.33159e-05
1.79249e-05
2.53939e-05
2.20834e-05
1.16171e-05
1.15242e-05
6.14525e-06
4.83478e-06
1.23164e-05
6.90793e-05
0.000105054
4.06302e-05
1.57763e-05
1.49723e-05
2.2815e-05
2.44889e-05
1.10169e-05
2.40877e-05
5.09282e-09
7.96925e-09
3.50137e-09
3.22234e-09
1.93151e-08
2.18601e-09
6.39053e-12
1.4824e-12
4.59376e-10
5.89887e-09
7.5356e-09
1.6329e-09
1.40869e-11
2.15723e-12
7.33252e-10
2.03307e-10
9.2777e-10
3.46045e-09
7.46262e-09
1.11675e-08
2.12013e-09
8.03289e-11
6.17949e-09
9.12966e-08
7.26811e-09
1.35643e-07
2.99379e-07
2.96052e-08
3.87126e-09
3.34863e-08
5.39557e-08
1.55315e-08
2.15334e-10
1.78384e-09
3.21077e-11
3.79723e-10
1.42178e-09
3.78402e-09
3.77803e-09
3.60786e-09
6.24773e-09
4.82281e-08
2.85448e-08
1.5712e-07
4.21428e-07
2.60935e-08
8.61297e-10
1.48473e-09
6.25805e-09
3.20159e-08
3.60612e-08
7.82353e-09
6.99715e-10
2.94973e-09
5.04632e-08
2.55379e-08
6.01403e-10
4.00545e-08
6.03529e-08
5.34572e-08
1.28621e-08
3.77066e-09
5.7402e-08
2.78416e-07
1.73678e-08
9.88662e-07
1.74933e-06
3.86473e-07
5.74398e-08
1.12479e-07
3.91921e-07
3.17073e-07
7.23619e-10
2.33294e-09
3.20592e-09
2.01681e-09
1.00063e-08
2.25489e-08
2.64208e-08
4.24484e-09
6.03988e-08
1.19779e-08
1.20456e-07
1.93901e-08
1.1962e-05
1.90819e-06
2.59917e-08
4.30299e-08
1.66153e-08
1.04622e-07
1.272e-07
2.23904e-08
1.64682e-10
1.93534e-08
1.76781e-06
5.90332e-06
5.82118e-08
1.42758e-08
1.60391e-07
1.28422e-07
2.79719e-08
4.81078e-07
9.66959e-08
1.08782e-06
3.81558e-07
1.13929e-06
3.20993e-06
5.62564e-07
4.19429e-07
1.72167e-07
1.35299e-07
1.00446e-06
1.21394e-07
5.76529e-10
4.69816e-08
2.8938e-08
3.71057e-08
5.17497e-08
4.08702e-08
1.85805e-09
2.00065e-07
1.82292e-07
9.05358e-08
5.16593e-08
2.70623e-06
3.96805e-05
5.47776e-06
1.20992e-07
4.3509e-08
8.588e-07
8.79593e-07
2.30478e-07
3.24594e-10
2.52922e-08
1.66756e-06
7.6113e-05
4.38423e-05
3.86646e-08
2.75478e-05
2.30723e-07
2.58456e-07
3.12805e-06
6.51562e-05
1.82951e-06
2.62257e-06
1.69304e-07
7.75269e-06
1.32992e-06
1.54373e-07
2.50469e-07
2.18896e-07
1.22421e-07
4.88529e-07
1.52631e-08
1.96626e-07
9.90614e-07
3.62462e-08
5.30251e-07
1.43835e-07
2.64889e-08
1.90352e-09
3.85618e-06
3.07943e-08
6.86388e-08
1.84187e-07
1.83925e-05
0.000114711
2.38873e-05
2.15224e-06
1.23062e-05
6.28784e-06
3.19531e-06
4.93699e-07
1.74898e-07
2.45003e-07
6.71941e-05
3.89522e-06
5.91011e-06
3.82826e-05
0.000104512
1.92483e-06
1.98109e-07
7.74518e-05
1.75458e-07
4.19246e-06
1.12265e-07
1.70712e-05
1.49596e-05
3.76716e-05
8.77902e-06
1.46913e-07
3.33734e-06
1.46104e-07
2.12261e-07
2.09937e-07
4.02115e-06
2.00085e-05
8.09157e-07
6.19028e-06
4.60114e-07
5.37245e-07
1.55547e-06
3.47221e-07
2.11948e-07
2.52968e-06
7.5578e-06
9.02618e-05
0.000143528
2.45966e-05
1.46734e-05
1.55481e-06
4.39386e-06
1.7085e-05
6.92534e-06
5.02033e-07
3.06819e-07
5.45803e-06
1.42545e-05
1.40257e-06
1.83428e-05
7.36993e-07
5.50306e-07
3.57046e-06
4.09536e-06
3.33771e-06
1.82946e-06
3.61691e-06
5.22326e-05
1.77314e-05
2.94867e-05
6.74697e-06
7.4876e-06
8.0127e-06
1.46667e-06
7.85463e-06
4.45138e-05
3.49681e-05
2.50499e-06
3.68173e-06
6.61042e-06
2.22612e-06
4.20165e-07
3.08707e-06
1.09382e-06
3.76843e-06
4.10685e-06
0.000104059
0.000138302
2.32867e-05
2.58048e-05
1.11279e-06
1.20431e-06
2.06972e-06
1.03479e-06
4.95e-06
6.58565e-07
1.6101e-05
1.62449e-05
1.01911e-07
0.000176563
0.000168917
4.27046e-06
3.99044e-06
1.14391e-05
4.7481e-06
1.54193e-06
1.08101e-06
1.50622e-05
7.81504e-05
1.58367e-06
2.69e-05
1.39436e-06
5.12668e-05
5.11857e-05
1.258e-05
5.50816e-05
5.05317e-05
4.63926e-06
8.32198e-06
1.4655e-05
1.70551e-06
1.05769e-06
6.97522e-06
4.34656e-06
4.00152e-06
1.79086e-06
5.59417e-05
0.000139172
1.51951e-05
0.000135474
2.36129e-05
4.01874e-07
9.33046e-07
3.74123e-06
1.69873e-06
1.20746e-05
3.12746e-06
1.99605e-05
1.73602e-05
1.44807e-05
0.000233208
1.03941e-05
3.44862e-05
1.51049e-05
1.7431e-05
1.06826e-06
3.74941e-06
4.46322e-07
5.09496e-05
1.71906e-05
2.52117e-05
3.10892e-06
3.2075e-05
0.00017324
1.3172e-05
2.82807e-05
4.19926e-05
2.68365e-05
2.7139e-05
5.24128e-06
6.344e-06
2.52724e-06
1.12532e-05
8.84365e-06
5.90964e-06
1.30929e-06
7.16017e-06
0.000132389
1.02137e-05
7.85125e-05
0.000179869
1.11787e-05
2.34953e-05
4.24073e-06
7.15237e-07
4.47949e-05
3.1112e-05
7.15247e-06
2.16156e-05
1.94569e-05
0.000200492
3.89875e-05
1.71594e-05
1.22792e-05
1.80018e-05
1.05402e-05
1.58946e-05
1.14829e-05
2.01057e-05
3.40086e-05
3.75537e-05
1.6882e-05
6.68131e-06
0.000127443
3.28538e-05
4.67451e-06
2.73827e-05
8.31085e-05
0.000173319
2.46411e-05
7.09642e-06
5.21904e-06
8.56822e-06
2.07602e-05
1.46535e-05
2.09836e-06
2.10848e-06
9.89775e-05
1.38714e-05
2.80753e-05
0.000222397
6.74026e-05
5.09624e-05
1.04064e-05
7.20654e-06
3.27381e-05
7.31665e-05
2.48458e-05
6.00966e-06
1.9224e-05
6.49093e-05
4.68963e-05
1.90039e-06
9.01005e-06
6.87814e-05
3.95629e-05
1.91403e-05
8.71054e-06
3.41475e-05
1.5836e-05
5.77299e-05
1.79582e-05
5.20223e-06
6.63744e-05
6.53825e-05
1.57185e-05
1.92749e-05
4.08766e-05
0.000223504
8.66773e-05
3.97243e-05
1.3239e-05
1.24211e-05
4.47095e-05
9.10529e-06
1.79712e-06
1.08171e-06
3.49936e-05
5.45075e-05
3.76987e-05
0.000190111
0.000181535
2.02589e-05
2.18056e-05
1.92079e-05
1.0962e-05
4.34955e-05
4.19281e-05
7.95342e-06
1.70495e-05
2.86819e-05
1.24318e-05
1.9124e-06
1.25479e-06
5.20137e-05
2.66617e-05
3.01986e-05
8.69416e-06
3.57994e-05
7.10206e-06
3.61428e-05
4.10699e-05
4.83982e-05
3.8255e-05
4.22702e-05
9.69912e-06
6.64213e-05
3.66606e-05
0.000103369
0.000201816
4.04947e-05
3.49802e-05
1.55055e-05
3.22562e-05
9.38648e-06
6.72402e-07
3.05955e-06
2.51656e-05
3.10832e-05
5.40002e-05
0.00017843
0.000227292
1.64578e-06
1.67105e-05
1.83059e-05
2.96709e-06
6.86337e-05
3.21436e-05
1.30324e-05
3.10245e-05
3.24228e-05
1.00684e-05
1.62737e-05
3.85507e-07
3.78291e-05
2.9203e-05
1.49205e-05
1.34281e-05
3.07935e-05
8.12066e-06
2.67749e-05
1.55091e-05
0.00010605
0.000176398
1.8611e-05
5.44381e-05
4.73493e-05
5.29732e-05
3.6144e-05
0.000178489
1.61606e-05
3.0163e-05
5.38491e-05
1.5702e-05
1.3482e-05
1.21267e-06
9.01167e-06
3.66371e-06
1.6143e-05
1.56912e-05
5.47112e-05
0.000177036
3.74761e-06
9.43543e-06
1.28515e-05
4.42013e-05
4.86205e-05
2.38129e-05
1.28134e-05
1.64385e-05
0.000108242
7.18477e-06
2.68957e-05
1.72924e-07
1.07629e-05
3.749e-05
1.31411e-05
3.57609e-06
2.06021e-05
1.20655e-05
3.71809e-05
6.49503e-06
7.89891e-06
2.99983e-05
5.24656e-05
2.45528e-05
0.000113228
9.01485e-05
2.59786e-05
2.80636e-05
1.56119e-05
1.9939e-05
9.98876e-05
3.25679e-05
1.65292e-05
2.08053e-05
1.84937e-05
2.57979e-06
9.7674e-06
1.29558e-05
3.86228e-05
0.00015121
3.3475e-05
6.75407e-06
7.1576e-06
4.17327e-05
7.33574e-05
6.01343e-06
1.42019e-05
1.28545e-05
4.53923e-05
7.11395e-05
2.5673e-05
3.08437e-05
1.29248e-06
2.41606e-05
1.08691e-05
5.86801e-06
4.42787e-05
4.0072e-05
5.37724e-06
3.48901e-05
3.62316e-05
4.73285e-05
6.09266e-05
2.84943e-05
0.000222104
0.000167075
5.55235e-05
4.49283e-06
2.46402e-05
2.92149e-05
4.78506e-05
0.000131959
4.16266e-05
1.29498e-05
5.5758e-06
7.57879e-06
4.64235e-05
2.2299e-05
4.2942e-05
0.000130637
2.60469e-05
1.2372e-05
2.96531e-05
6.64899e-05
9.10035e-05
5.83695e-06
2.37105e-05
1.0048e-05
7.86313e-06
9.66812e-05
1.39971e-05
4.7054e-05
0.000101279
8.18889e-06
1.16403e-05
1.16827e-05
5.14649e-05
1.19238e-05
1.33491e-05
3.26821e-05
1.06709e-05
2.22772e-05
1.74758e-05
9.55528e-06
0.000157224
0.000128951
9.9754e-05
1.64488e-05
4.79491e-05
8.75107e-05
3.4253e-05
7.7407e-06
5.0281e-05
1.83443e-05
2.38967e-06
5.26225e-05
8.2014e-05
4.22921e-05
3.34134e-05
4.55417e-05
2.36719e-05
2.2812e-05
6.7544e-06
4.43525e-05
9.72787e-05
9.024e-07
1.50175e-05
1.5886e-06
2.50025e-05
1.36278e-05
1.28941e-05
8.63517e-06
0.000101367
9.66422e-05
7.64527e-06
3.56717e-05
4.9873e-05
4.7507e-05
2.39859e-06
2.49093e-05
3.07803e-06
1.41082e-05
1.66686e-05
1.80924e-05
2.10066e-05
3.86497e-05
6.5826e-05
2.74645e-05
5.48611e-05
0.000139097
6.44871e-05
1.2959e-05
2.0223e-05
1.16359e-05
2.83377e-06
4.5379e-05
3.55935e-06
3.57207e-06
4.33973e-06
8.55367e-06
2.49881e-05
3.00087e-05
1.17532e-05
1.32747e-05
8.66483e-05
1.2332e-05
1.90358e-05
6.15787e-05
1.34204e-05
3.77873e-05
7.49479e-06
3.15125e-05
4.21247e-05
3.933e-05
2.61028e-06
0.00010106
5.4907e-05
3.53851e-05
1.04393e-05
5.41834e-06
1.01231e-05
1.26688e-05
2.9511e-05
3.62286e-05
7.5712e-06
3.87216e-05
1.46102e-05
1.27791e-05
8.6087e-06
0.000211535
9.63462e-05
4.60057e-05
2.89479e-05
2.21973e-05
2.85285e-06
1.04984e-05
1.23886e-06
1.97748e-06
7.12744e-06
7.6264e-06
2.39733e-05
2.88499e-05
1.01273e-05
1.13957e-05
1.58236e-05
9.28777e-06
1.78173e-05
2.39403e-05
3.28531e-05
2.93627e-05
1.15905e-05
7.40652e-05
0.000108828
1.84364e-05
7.70817e-06
0.000103467
3.10201e-05
1.28381e-05
4.8493e-06
2.34223e-05
2.9815e-05
5.24264e-05
6.7244e-05
4.0055e-05
9.74015e-06
2.93195e-05
5.824e-06
1.15979e-05
2.23705e-05
1.10171e-06
7.05371e-05
3.83236e-05
0.000198419
4.14678e-05
1.85905e-05
1.47606e-05
9.25534e-06
5.79328e-06
1.51982e-05
1.44511e-05
1.33799e-05
6.26245e-05
1.782e-05
7.02421e-06
1.04604e-05
7.27938e-06
1.0671e-05
1.68971e-05
3.39244e-05
1.4382e-05
1.524e-05
4.28864e-05
0.000165753
1.78653e-05
2.08406e-05
7.01057e-05
0.000108824
1.39787e-05
5.14052e-05
5.1288e-05
2.07125e-05
3.46644e-05
6.17944e-05
4.64131e-05
2.36921e-05
1.10063e-05
7.31804e-05
1.74487e-05
6.13582e-06
1.43326e-05
1.42702e-05
3.72469e-05
0.00019564
0.000276761
9.24104e-05
1.37191e-05
2.81988e-05
2.56842e-05
3.14308e-05
2.67506e-05
1.84163e-05
0.000112642
5.39544e-05
3.68835e-06
1.99133e-05
1.252e-05
9.38889e-06
2.43809e-06
3.1538e-05
1.68779e-05
1.95211e-05
4.59147e-06
0.00010016
1.21875e-05
3.81567e-05
6.24137e-05
0.000221175
0.000185319
5.35508e-05
5.72461e-05
1.56256e-05
3.26526e-05
1.37774e-05
1.29846e-05
1.31993e-05
1.82594e-05
4.00634e-05
2.60823e-06
1.04429e-05
1.54041e-05
1.71135e-05
2.72372e-05
0.000182152
0.000300222
0.000277858
0.000206957
0.00016441
0.000114241
1.93758e-05
2.44892e-05
1.16321e-05
1.08353e-05
7.78083e-05
6.48361e-06
2.07832e-05
1.10595e-05
6.03078e-06
1.74391e-05
1.68834e-05
1.74227e-05
1.64548e-05
6.71192e-06
7.09641e-05
9.30414e-05
5.57026e-06
9.59826e-05
5.7931e-05
0.000205454
6.03132e-05
3.18651e-05
4.50737e-05
2.44859e-05
1.86488e-05
6.43417e-06
3.20177e-06
9.25952e-06
1.92254e-05
7.46344e-06
1.59373e-05
1.42296e-05
1.30397e-05
5.29098e-06
0.000110212
0.000286373
0.00032525
0.000328865
0.000193773
7.22708e-05
4.2181e-05
2.05144e-05
7.91889e-06
4.81125e-05
2.22038e-05
1.67134e-05
4.95242e-05
5.69471e-06
4.03539e-06
1.70303e-05
2.56559e-05
2.36741e-05
6.97433e-06
1.34292e-05
1.48398e-05
6.92434e-05
0.000107243
8.33247e-05
3.01758e-05
4.71577e-05
1.78039e-05
2.25322e-05
2.35131e-05
1.74428e-05
8.51149e-06
8.38542e-06
1.26236e-05
9.43601e-06
1.2675e-05
1.72072e-05
1.44037e-05
1.71916e-05
1.14361e-05
6.74126e-06
2.38267e-05
1.33503e-05
0.000128276
0.000271167
0.000221646
3.86893e-05
2.49948e-05
8.60804e-05
1.46992e-05
2.00994e-05
7.56049e-05
1.45744e-05
5.87151e-05
1.31615e-05
1.36327e-05
3.26365e-05
7.77311e-05
4.52535e-05
1.19062e-05
1.70142e-05
1.33537e-05
6.3178e-06
1.26008e-05
2.04745e-05
2.14433e-05
3.62435e-05
3.95931e-05
7.19584e-06
2.72416e-05
2.3524e-06
4.05763e-06
9.00122e-06
8.51737e-06
1.9043e-05
1.27992e-05
1.47954e-05
3.02701e-06
2.89767e-06
4.35017e-06
6.86024e-07
2.32406e-05
2.66465e-05
1.44815e-05
4.17927e-05
0.000189871
0.000218117
0.000160493
0.000154359
2.63031e-05
2.0635e-05
1.14143e-05
5.83646e-06
1.47098e-05
1.04523e-05
1.30087e-05
5.31256e-05
9.39162e-05
0.000110321
9.53021e-06
1.68823e-05
3.83035e-05
4.84296e-05
3.18139e-05
1.22598e-05
4.21772e-05
1.53768e-05
1.44544e-05
5.87708e-05
0.000171338
2.05843e-05
4.33003e-06
1.60383e-05
8.33407e-05
2.05231e-05
1.03572e-05
3.12874e-06
3.31351e-05
1.30422e-05
1.03412e-05
6.21362e-06
1.28568e-05
5.97436e-05
0.000124485
0.000115906
2.71497e-05
7.9354e-06
9.42232e-05
8.16472e-05
9.23847e-06
4.92742e-06
8.35193e-06
1.122e-05
2.23303e-05
3.47238e-05
2.81568e-05
1.55758e-05
3.85456e-05
2.67165e-05
7.18357e-05
0.000156139
6.86695e-05
1.21651e-05
1.91382e-05
1.35062e-05
1.21552e-05
1.30089e-05
6.43194e-06
9.68685e-05
4.52151e-05
8.41605e-06
6.71186e-06
4.226e-05
0.000162081
0.000203841
4.92519e-05
4.96291e-06
1.49311e-05
6.48642e-05
0.000162784
0.000109446
4.98326e-06
2.3134e-05
4.36872e-05
1.81115e-05
3.77736e-05
6.77414e-05
2.13125e-06
5.60714e-05
0.000102618
4.67541e-05
1.63181e-05
4.98332e-06
3.95279e-06
2.424e-05
2.09557e-05
7.59179e-06
6.63986e-06
4.16021e-05
0.000166003
0.000204637
0.000116031
4.00412e-05
1.4741e-05
1.77261e-05
1.83881e-05
7.98942e-06
7.89332e-05
0.000126973
7.21412e-05
3.35778e-05
3.98715e-05
6.19771e-05
0.000121988
0.000147697
3.12565e-05
1.07484e-05
3.20259e-05
2.38835e-05
1.2025e-05
0.00013299
3.53181e-05
1.09738e-05
1.66868e-05
1.02276e-05
1.9056e-05
0.000143143
0.000195902
9.15268e-05
2.60603e-06
2.22679e-05
1.86796e-05
5.1084e-06
4.99945e-05
3.37893e-05
1.06039e-05
1.63418e-05
2.27479e-05
4.97094e-05
3.05233e-05
1.53816e-05
4.25622e-05
4.73864e-05
2.63837e-05
1.06292e-05
1.09093e-05
1.81878e-05
2.12393e-05
5.64386e-05
2.03689e-05
1.16261e-05
1.87252e-05
7.87527e-06
2.53061e-06
3.45914e-06
0.000122822
2.37396e-05
2.81595e-05
1.99445e-05
5.10161e-05
4.30782e-05
1.30973e-05
2.27168e-05
1.2233e-05
1.79072e-05
1.89709e-05
3.41684e-05
9.05542e-05
5.45283e-05
1.58749e-05
2.98987e-06
1.72966e-05
6.04028e-06
6.35997e-07
2.73839e-05
3.20446e-05
2.6199e-05
5.83894e-05
4.15671e-05
3.67603e-05
0.000106646
0.000128391
0.000126534
9.61645e-05
1.87769e-05
3.23938e-05
2.19801e-05
2.51438e-06
2.67251e-05
8.96466e-06
1.06229e-05
2.59075e-05
2.7105e-05
1.72003e-05
2.96897e-05
1.50742e-05
2.76982e-05
1.37521e-05
3.08053e-06
3.53256e-05
0.000106317
7.2256e-05
4.0019e-07
2.05069e-05
2.26827e-05
2.35876e-05
5.85614e-05
4.87242e-05
2.50388e-05
1.10222e-05
1.60531e-05
2.44641e-05
2.02647e-05
1.79077e-05
2.34654e-05
2.97304e-05
1.02633e-05
1.41943e-05
2.48825e-05
1.46336e-05
5.20763e-06
5.56436e-05
3.46901e-05
4.17666e-06
7.03565e-06
1.30492e-05
1.0785e-05
5.01283e-05
8.55463e-05
4.02238e-05
5.16194e-05
8.45715e-05
2.17022e-05
1.14485e-06
1.81697e-05
3.01802e-05
1.76848e-05
6.77313e-06
9.65439e-06
1.13545e-05
2.33145e-05
7.27101e-05
3.00199e-05
2.72991e-06
4.97299e-05
2.02321e-05
1.82367e-05
2.40155e-05
4.65807e-05
2.53557e-05
7.3364e-06
1.12636e-05
8.84161e-06
1.37538e-05
7.69377e-06
5.24415e-06
5.95751e-05
5.32362e-05
1.98559e-05
2.73273e-05
2.1944e-05
1.20902e-05
2.6935e-06
1.38739e-05
1.03203e-05