/*--------------------------------*- C++ -*----------------------------------*\
  =========                 |
  \\      /  F ield         | OpenFOAM: The Open Source CFD Toolbox
   \\    /   O peration     | Website:  https://openfoam.org
    \\  /    A nd           | Version:  10
     \\/     M anipulation  |
\*---------------------------------------------------------------------------*/
FoamFile
{
    format      ascii;
    class       volVectorField;
    location    "2";
    object      U;
}
// * * * * * * * * * * * * * * * * * * * * * * * * * * * * * * * * * * * * * //

dimensions      [0 1 -1 0 0 0 0];

internalField   nonuniform List<vector> 
102400
(
(0.0860657 0.000229787 -0.0276889)
(0.0798553 0.000254583 -0.0277088)
(0.0965187 0.000284338 -0.013031)
(0.13507 0.000149501 0.00757355)
(0.156503 0.000189381 0.0239088)
(0.144765 0.000223533 0.0240757)
(0.133786 0.00065625 0.021161)
(0.121932 0.000305323 0.0206011)
(0.110927 -0.000315354 0.0142258)
(0.115433 -0.000364901 0.0109761)
(0.115756 0.000294332 0.0101902)
(0.112331 0.000399763 0.00899676)
(0.133385 0.000373793 0.0104611)
(0.166998 0.000183102 0.0121772)
(0.188436 8.83342e-05 0.0155412)
(0.191723 -0.000240702 0.0115704)
(0.171306 -0.000395401 -0.00277944)
(0.158862 -0.000167699 -0.0205874)
(0.151221 8.16995e-05 -0.0370149)
(0.133157 9.52855e-05 -0.034173)
(0.115086 -0.000349769 -0.0180854)
(0.0908659 -0.000962178 -0.00986995)
(0.0675698 -0.000731248 -0.0192868)
(0.0582344 0.000392883 -0.0292693)
(0.0637233 0.000969619 -0.00386624)
(0.0640296 0.000726626 0.0335271)
(0.0582606 -0.000154398 0.0451794)
(0.058641 -0.000209244 0.0294876)
(0.0567988 0.000575527 -0.00488255)
(0.0461769 0.000921231 -0.026792)
(0.0473598 0.000267938 -0.0231039)
(0.0562929 0.00015404 -0.00102796)
(0.0616619 0.000430527 0.0135972)
(0.0743064 0.000333869 0.0111906)
(0.0781701 0.000577513 0.0014411)
(0.0689027 0.000672655 -0.0131938)
(0.069555 0.000274024 -0.0225708)
(0.0776133 -0.000343299 -0.0224552)
(0.0904882 -0.000580635 -0.0253194)
(0.0930522 -0.000265383 -0.0233912)
(0.260329 0.00108069 -0.0469342)
(0.23173 0.00183984 -0.0550802)
(0.241858 0.00189389 -0.0362155)
(0.34075 0.00065268 0.000740551)
(0.438223 -0.000844535 0.0466764)
(0.44357 7.20266e-05 0.0560664)
(0.425916 0.00176449 0.0411358)
(0.402924 0.000957111 0.0424219)
(0.350646 -0.000604345 0.0382143)
(0.336692 -0.0002248 0.0247426)
(0.340868 0.00214589 0.0153678)
(0.330754 0.00215648 0.0146441)
(0.36471 -0.000483104 0.0237032)
(0.446728 -0.00342424 0.0298008)
(0.520287 -0.00397588 0.0409894)
(0.574608 -0.00300502 0.038727)
(0.54662 -0.0024454 0.0126979)
(0.497923 -0.00222727 -0.0168258)
(0.485158 -0.000633272 -0.0598756)
(0.444631 0.000345552 -0.0771162)
(0.414615 -0.00130914 -0.0504686)
(0.352575 -0.00388517 -0.0265629)
(0.239711 -0.00324771 -0.0392291)
(0.175174 0.00122502 -0.0539431)
(0.201678 0.00343857 -0.00279856)
(0.236099 0.00200544 0.0674195)
(0.207414 -0.00141348 0.0848421)
(0.167259 -0.00157951 0.0449253)
(0.158157 0.00212802 -0.0175851)
(0.149291 0.00494943 -0.0531165)
(0.161009 0.00429748 -0.0441001)
(0.176246 0.00350423 -0.00146579)
(0.175935 0.00353847 0.0283834)
(0.204708 0.00336661 0.0261677)
(0.237715 0.00335956 -1.15877e-05)
(0.231032 0.00291633 -0.0413306)
(0.225788 0.00217841 -0.0584673)
(0.230115 -0.000150113 -0.0477034)
(0.252724 -0.00219651 -0.0493645)
(0.268846 -0.0016051 -0.0447784)
(0.424812 0.00219988 -0.0412654)
(0.394087 0.00425147 -0.0534563)
(0.353024 0.00447796 -0.0547857)
(0.421014 0.00280862 -0.0313237)
(0.570405 -0.00128841 0.0207741)
(0.642418 -0.00176765 0.0764738)
(0.675453 0.000661726 0.0624104)
(0.690593 0.000734038 0.0418373)
(0.610177 0.000100917 0.0493913)
(0.544898 0.000937473 0.0478219)
(0.550299 0.00475142 0.0298731)
(0.547799 0.00573704 0.0160944)
(0.552437 0.000775147 0.0274268)
(0.624171 -0.00693632 0.0319076)
(0.704529 -0.0120443 0.0464226)
(0.791933 -0.0115896 0.0644749)
(0.842717 -0.00663324 0.0344195)
(0.788891 -0.00596237 0.0112046)
(0.800883 -0.00486806 -0.015499)
(0.791162 -0.00221563 -0.0675805)
(0.760399 -0.00415702 -0.0751456)
(0.755536 -0.00436769 -0.0383413)
(0.576441 -0.0023962 -0.0414219)
(0.358233 0.00280386 -0.0763743)
(0.343946 0.00346253 -0.0354631)
(0.444344 0.0018752 0.0554146)
(0.416337 -0.00166094 0.09788)
(0.291524 -0.00304465 0.0550044)
(0.248143 0.000693003 -0.0175704)
(0.242327 0.00655916 -0.0585237)
(0.273291 0.0096152 -0.0651524)
(0.301356 0.0106073 -0.0218187)
(0.288497 0.00958863 0.024544)
(0.302797 0.00854414 0.035492)
(0.383813 0.00833373 0.0135816)
(0.421521 0.00597683 -0.0467384)
(0.406988 0.0053244 -0.0881929)
(0.38286 0.00375691 -0.0734013)
(0.374837 -0.00200137 -0.0507717)
(0.405762 -0.00308352 -0.044134)
(0.531436 0.00480316 -0.0234136)
(0.541873 0.00767365 -0.0247733)
(0.476796 0.00768364 -0.0456418)
(0.475232 0.00716257 -0.0528109)
(0.594274 0.00115131 -0.0176307)
(0.701191 -0.00302792 0.0620003)
(0.771351 -0.000843985 0.088348)
(0.840172 -0.00364897 0.05146)
(0.802516 -0.00259573 0.0435654)
(0.709199 0.00166542 0.0568597)
(0.703501 0.006876 0.0490764)
(0.737621 0.00922053 0.0271085)
(0.720981 0.00495558 0.039734)
(0.737062 -0.00439445 0.0405366)
(0.809 -0.0133379 0.0353505)
(0.846598 -0.0204314 0.0723023)
(0.928615 -0.0143415 0.0489657)
(0.909318 -0.0098337 0.00644626)
(0.927242 -0.0130873 0.0131415)
(1.04566 -0.00874265 -0.017164)
(0.975411 -0.0100672 -0.0579303)
(0.97552 -0.0109269 -0.0322672)
(0.998669 0.000756227 -0.0196237)
(0.702844 0.0108114 -0.0802229)
(0.525178 0.00461671 -0.0928317)
(0.641301 -0.00207235 -0.0124946)
(0.652576 -0.00185112 0.0798741)
(0.457438 -0.00215344 0.0618099)
(0.344733 -0.00438 -0.0147104)
(0.316194 -0.000841982 -0.0461098)
(0.350034 0.00795625 -0.0632641)
(0.407202 0.0173952 -0.0468972)
(0.406328 0.0183487 -0.00154906)
(0.390393 0.0164779 0.028213)
(0.460355 0.0157276 0.0308783)
(0.567016 0.00924378 -0.0150099)
(0.597245 0.00728484 -0.093335)
(0.557406 0.0108814 -0.107968)
(0.485861 0.00489945 -0.057828)
(0.482965 -0.00137603 -0.0287658)
(0.577733 0.0101746 -0.00880783)
(0.632142 0.0127454 0.00985514)
(0.595695 0.0117984 -0.00659056)
(0.549638 0.012911 -0.0463582)
(0.617529 0.00566537 -0.0383158)
(0.710622 -0.00244648 0.0334254)
(0.810181 -0.000848749 0.0858275)
(0.883301 -0.00686127 0.0686985)
(0.866454 -0.0090681 0.052803)
(0.78361 -0.00202726 0.0579984)
(0.768783 0.00624298 0.0468368)
(0.845181 0.0108687 0.0259427)
(0.83822 0.010036 0.0520063)
(0.800985 -0.00033805 0.0610333)
(0.876155 -0.00937079 0.0275484)
(0.883036 -0.0202432 0.0575886)
(0.919404 -0.0191984 0.056611)
(0.931068 -0.0116064 0.00177301)
(0.892183 -0.0209506 0.00327511)
(1.07531 -0.0205698 0.00164809)
(1.12893 -0.0131887 -0.0371682)
(0.969228 -0.0172551 -0.0264175)
(1.11101 -0.00342966 0.00264483)
(1.0083 0.0212078 -0.0475463)
(0.752268 0.011085 -0.116029)
(0.783549 -0.00824967 -0.116072)
(0.878799 -0.00238455 0.0121905)
(0.689132 0.00502815 0.0675832)
(0.514005 -0.00714315 -7.72077e-06)
(0.421077 -0.0151936 -0.03767)
(0.401148 -0.00479278 -0.0452649)
(0.471863 0.0170632 -0.0462544)
(0.503643 0.0258272 -0.0299246)
(0.491768 0.0270901 -0.00127848)
(0.516401 0.0268665 0.0328146)
(0.607333 0.01354 0.0344269)
(0.713003 0.00493022 -0.0524607)
(0.715424 0.0148149 -0.121864)
(0.623661 0.0164275 -0.0897837)
(0.553019 0.0057287 -0.0320015)
(0.621074 0.01723 -0.0219472)
(0.682842 0.0184685 0.0222594)
(0.676449 0.0169119 0.031088)
(0.631316 0.0195419 -0.0158341)
(0.658033 0.0139891 -0.0428032)
(0.715943 0.00103437 0.0118468)
(0.832337 -0.00134613 0.0656026)
(0.923995 -0.00856686 0.0728071)
(0.886951 -0.0119895 0.0705046)
(0.790695 -0.00370902 0.0583704)
(0.768734 0.00394075 0.0273062)
(0.875181 0.00938176 0.0036261)
(0.882142 0.015673 0.0496042)
(0.812459 0.00436882 0.0757771)
(0.896065 -0.00736299 0.0243366)
(0.924917 -0.016296 0.0322651)
(0.906303 -0.0199767 0.0489374)
(0.925967 -0.0118144 0.00689282)
(0.890902 -0.0238756 -0.00138417)
(1.01171 -0.0350431 0.00699328)
(1.17036 -0.0196362 -0.0259094)
(0.972595 -0.0179066 -0.0300998)
(1.0238 -0.0105272 -0.000318924)
(1.14098 0.02684 -0.0178776)
(0.961436 0.020922 -0.0941256)
(0.805634 -0.012762 -0.15501)
(0.931195 -0.00789838 -0.0660561)
(0.932194 0.0150491 0.0520513)
(0.779963 0.00176038 0.0299207)
(0.60471 -0.0220688 -0.0356005)
(0.464496 -0.0206574 -0.0394306)
(0.509376 0.00881494 -0.023009)
(0.57278 0.0265003 -0.0343938)
(0.576949 0.0370918 -0.0353346)
(0.573869 0.0421615 0.0201256)
(0.616174 0.0199353 0.0815449)
(0.742108 -0.00251283 0.024341)
(0.819433 0.0107465 -0.092293)
(0.755122 0.0234023 -0.114356)
(0.645812 0.0154667 -0.0693186)
(0.6755 0.0228391 -0.0584242)
(0.726882 0.0234886 0.00717746)
(0.729936 0.0234693 0.0385848)
(0.683796 0.0249153 0.0017035)
(0.693942 0.0228454 -0.0381471)
(0.726996 0.00812374 -0.00622298)
(0.839048 -0.00172776 0.0401249)
(0.957808 -0.0107865 0.0700097)
(0.917887 -0.0111195 0.0868458)
(0.792401 0.00179589 0.0534716)
(0.754498 0.00489123 -0.00594744)
(0.875817 0.00669218 -0.0277794)
(0.893709 0.0209076 0.0334168)
(0.812246 0.011238 0.0783865)
(0.887295 -0.00795261 0.0227661)
(0.948879 -0.0148644 0.0113831)
(0.908838 -0.0170403 0.0382522)
(0.912736 -0.00996649 0.0173233)
(0.930275 -0.0224107 0.00270881)
(0.994738 -0.0459458 0.0125774)
(1.15571 -0.0280956 -0.0169252)
(0.996924 -0.0173019 -0.0313578)
(0.916087 -0.0180113 -0.00608763)
(1.13342 0.0231251 -0.00305435)
(1.11301 0.0329376 -0.0576553)
(0.867454 -0.00822662 -0.147524)
(0.857741 -0.0189672 -0.123496)
(1.01947 0.0136827 0.00607622)
(1.02843 0.0173357 0.0512398)
(0.88096 -0.0123651 -0.0121891)
(0.611067 -0.0283672 -0.0525797)
(0.550745 -0.00442927 -0.000895979)
(0.617831 0.0217896 -0.0134525)
(0.630405 0.0450731 -0.04884)
(0.62475 0.058483 0.00747563)
(0.652703 0.0272078 0.125402)
(0.747194 -0.0128343 0.117086)
(0.874217 -0.00179785 -0.0267663)
(0.867745 0.0213372 -0.109011)
(0.741825 0.021891 -0.106046)
(0.737651 0.0252645 -0.0941212)
(0.766216 0.0272097 -0.0219592)
(0.763758 0.030098 0.0229633)
(0.707622 0.0298894 -0.00155815)
(0.711 0.0285273 -0.0387537)
(0.738624 0.0147507 -0.0246689)
(0.835528 -0.00308905 0.00768897)
(0.970013 -0.0142727 0.0607073)
(0.953551 -0.008561 0.101141)
(0.80751 0.0141389 0.0481444)
(0.742717 0.0122406 -0.0411814)
(0.856694 0.00572621 -0.0613877)
(0.896467 0.0253467 0.0103499)
(0.826127 0.0206794 0.0679596)
(0.878203 -0.00665997 0.0200182)
(0.948881 -0.0158752 -0.00375219)
(0.912461 -0.0151214 0.0249647)
(0.893653 -0.00862649 0.0295542)
(0.961033 -0.0171485 0.0111244)
(1.02719 -0.0475716 0.012716)
(1.13518 -0.0359177 -0.011708)
(1.0134 -0.0146624 -0.029196)
(0.848468 -0.0216875 -0.00160582)
(1.05837 0.0121232 0.0105071)
(1.18007 0.0402908 -0.0247492)
(0.963107 0.00558333 -0.118376)
(0.798375 -0.0260821 -0.142404)
(0.937192 -0.0026414 -0.0423441)
(1.08942 0.0183775 0.0507215)
(1.1345 0.00093441 0.036701)
(0.867445 -0.0224661 -0.0616188)
(0.652762 -0.0136372 -0.0106665)
(0.663267 0.0140968 0.0286458)
(0.658303 0.0498314 -0.0544923)
(0.651452 0.0737395 -0.0109915)
(0.759353 0.032107 0.167103)
(0.833093 -0.0227851 0.20303)
(0.927582 -0.0194248 0.0645382)
(0.966678 0.0107586 -0.0702278)
(0.842707 0.0224544 -0.121283)
(0.812856 0.0265062 -0.113663)
(0.80554 0.032366 -0.0497766)
(0.784582 0.0378189 -0.00294629)
(0.717709 0.0364943 -0.0137955)
(0.719594 0.0320358 -0.0440666)
(0.758532 0.0172454 -0.0425935)
(0.838414 -0.00690502 -0.0266292)
(0.955434 -0.0185562 0.0406482)
(0.960521 -0.00546023 0.103825)
(0.82828 0.0268954 0.0481143)
(0.740735 0.0213052 -0.0475115)
(0.818624 0.00689604 -0.0743883)
(0.889627 0.028754 -0.0108457)
(0.84934 0.0295335 0.0483703)
(0.872519 -0.00281117 0.0163667)
(0.933456 -0.0154045 -0.0152509)
(0.913942 -0.012012 0.00575249)
(0.878244 -0.00953155 0.03759)
(0.962264 -0.0162025 0.0275301)
(1.06435 -0.0438222 0.00769804)
(1.11879 -0.037134 -0.0127403)
(1.0023 -0.00994384 -0.0227489)
(0.827297 -0.0210218 0.0127808)
(0.983159 -0.00243738 0.0268776)
(1.16246 0.039157 -0.003985)
(1.03045 0.0214408 -0.08824)
(0.830641 -0.0218311 -0.131223)
(0.833249 -0.0194235 -0.0643883)
(0.995301 0.00337603 0.045399)
(1.20702 -0.000586368 0.0853611)
(1.08514 -0.0140347 -0.0229143)
(0.81174 -0.0114118 -0.0422921)
(0.729574 0.00594738 0.0180957)
(0.662773 0.0588826 -0.0390873)
(0.682928 0.0856516 0.0574025)
(0.868153 0.0222587 0.17811)
(0.958487 -0.0391574 0.192071)
(1.00536 -0.0371407 0.11915)
(1.07129 -0.00479658 -0.00769041)
(0.960086 0.0176741 -0.10891)
(0.912715 0.0284502 -0.116997)
(0.854946 0.0397568 -0.0743326)
(0.805464 0.0494041 -0.034403)
(0.724906 0.0485282 -0.0384253)
(0.731289 0.0355311 -0.0570417)
(0.7925 0.0135271 -0.0600143)
(0.854134 -0.0122022 -0.0546731)
(0.938919 -0.021768 0.0164009)
(0.946527 -0.00289986 0.0958355)
(0.845208 0.0378781 0.0498914)
(0.748841 0.0316541 -0.0357292)
(0.770896 0.0100365 -0.0654448)
(0.868101 0.030058 -0.0250314)
(0.878389 0.0352576 0.0217232)
(0.876022 0.00138449 0.00989495)
(0.905749 -0.0135337 -0.0176855)
(0.911099 -0.00709512 -0.0145661)
(0.891406 -0.00985652 0.0324007)
(0.961619 -0.0182762 0.0471646)
(1.08402 -0.0408954 0.0055217)
(1.11673 -0.03317 -0.0238737)
(0.998593 -0.00387316 -0.0138167)
(0.844449 -0.0203679 0.0377267)
(0.923364 -0.0144775 0.0394051)
(1.07214 0.034257 -0.00637582)
(1.00871 0.0289285 -0.0655642)
(0.882624 -0.0145775 -0.0971425)
(0.811109 -0.0263747 -0.0570595)
(0.91655 -0.0168385 0.0453579)
(1.18502 -0.0174903 0.107215)
(1.18343 -0.0122445 0.0337687)
(0.939652 -0.00125806 -0.045909)
(0.780079 0.00724458 -0.0204613)
(0.671326 0.0586796 0.0455618)
(0.70734 0.0730008 0.114275)
(0.840729 -0.00576416 0.0681625)
(0.932324 -0.0678071 0.055161)
(0.999789 -0.0585682 0.052981)
(1.12353 -0.0228218 0.0087354)
(1.0817 0.00963273 -0.0808332)
(1.01557 0.0325197 -0.115822)
(0.911946 0.0509581 -0.0937018)
(0.844785 0.0623095 -0.0528102)
(0.776233 0.0551544 -0.0552754)
(0.779775 0.0269431 -0.0706074)
(0.840565 0.00372617 -0.0737524)
(0.874498 -0.0160485 -0.0735068)
(0.925148 -0.0255154 -0.00879802)
(0.934915 -0.00343809 0.0798838)
(0.862521 0.0435738 0.0548877)
(0.768015 0.0407215 -0.0166294)
(0.734816 0.0147124 -0.0484887)
(0.832786 0.0258138 -0.0340939)
(0.907593 0.033611 -0.0119954)
(0.894971 0.00635751 -0.0070537)
(0.879819 -0.00938671 -0.00953947)
(0.89574 -0.00450752 -0.0211071)
(0.919438 -0.0106352 0.0168295)
(0.98144 -0.0204728 0.0551763)
(1.0909 -0.0391032 0.0104424)
(1.13286 -0.0286702 -0.0399985)
(1.02805 0.00316158 -0.0148739)
(0.877027 -0.0157239 0.0640719)
(0.83808 -0.020701 0.0467356)
(0.899538 0.0292083 -0.0262863)
(0.945346 0.0280681 -0.0443206)
(0.948082 -0.00941162 -0.0414094)
(0.859221 -0.0240912 -0.025501)
(0.900829 -0.0340581 0.0463694)
(1.16307 -0.0442273 0.099838)
(1.24373 -0.0166628 0.0660689)
(1.03392 0.0108285 -0.0159577)
(0.80768 0.01438 -0.0311768)
(0.683582 0.0514851 0.0393814)
(0.724121 0.0667751 0.00767973)
(0.844167 -0.0102654 -0.0341112)
(0.903403 -0.0757802 0.000707147)
(0.943256 -0.0714915 0.00190875)
(1.06923 -0.0405795 -0.00713483)
(1.13887 -0.00141816 -0.0602418)
(1.06061 0.0333521 -0.105746)
(0.950761 0.0618885 -0.109624)
(0.881833 0.0780451 -0.0710688)
(0.852081 0.0603253 -0.0735279)
(0.847491 0.0116813 -0.0852985)
(0.882801 -0.00888198 -0.082359)
(0.89299 -0.0172875 -0.0828449)
(0.908561 -0.0284923 -0.0299576)
(0.91826 -0.00833684 0.0566982)
(0.872565 0.0405359 0.0576773)
(0.784177 0.0451546 0.00222595)
(0.726562 0.018124 -0.0333029)
(0.801683 0.0129193 -0.0378086)
(0.916232 0.022752 -0.040218)
(0.917922 0.0137223 -0.0320274)
(0.872815 -0.00147449 -0.00404227)
(0.878958 -0.00725613 -0.00734207)
(0.933125 -0.0163502 0.0112497)
(1.00075 -0.0251589 0.0513273)
(1.08299 -0.0397864 0.0225835)
(1.15085 -0.0299139 -0.0402951)
(1.06971 0.00697732 -0.0345271)
(0.904994 -0.00307969 0.0689654)
(0.764856 -0.0103163 0.0740734)
(0.731427 0.0225828 -0.0185309)
(0.871728 0.0119118 -0.0238915)
(1.01333 -0.0123153 0.0116083)
(0.940806 -0.0127564 0.0225152)
(0.903395 -0.0402817 0.0451316)
(1.15716 -0.0776877 0.0870921)
(1.30158 -0.0287944 0.0818453)
(1.05486 0.0289335 0.008788)
(0.791759 0.030856 -0.0389549)
(0.67769 0.057485 -0.0565213)
(0.714997 0.0627489 -0.119621)
(0.884307 -0.0210083 -0.0879136)
(0.957703 -0.0834724 0.00289247)
(0.954542 -0.0823522 0.00868084)
(1.01479 -0.0553947 -0.00223783)
(1.10796 -0.0131983 -0.0370374)
(1.04704 0.033547 -0.0908909)
(0.950521 0.0699529 -0.11013)
(0.916383 0.092111 -0.0926846)
(0.935335 0.0715039 -0.114525)
(0.920571 0.00988745 -0.116756)
(0.918751 -0.0127851 -0.0931652)
(0.91224 -0.0116925 -0.0874708)
(0.89685 -0.0244777 -0.0449297)
(0.886835 -0.0121586 0.0338138)
(0.848742 0.0294541 0.0455427)
(0.779883 0.0396264 0.00397557)
(0.743314 0.0185362 -0.0282742)
(0.805928 -0.00131446 -0.0400221)
(0.908923 0.00586668 -0.0545995)
(0.933728 0.0207358 -0.0538148)
(0.899483 0.00902061 -0.00980131)
(0.889933 -0.0156916 0.00943706)
(0.938186 -0.0291572 0.0164804)
(1.00525 -0.0333084 0.0423621)
(1.07105 -0.0441406 0.0264972)
(1.1386 -0.0328677 -0.0252405)
(1.09036 0.0114343 -0.0399236)
(0.923858 0.0130974 0.0485815)
(0.746865 0.00910992 0.0929754)
(0.688376 0.021104 0.0405328)
(0.8364 -0.00640075 0.0226636)
(1.01956 -0.0215002 0.0434621)
(1.01883 -0.00143088 0.0615729)
(0.956404 -0.043251 0.0679849)
(1.12029 -0.108996 0.082689)
(1.26388 -0.039556 0.0720028)
(1.01953 0.0515319 0.00957295)
(0.82229 0.0407619 -0.024751)
(0.720629 0.0375952 -0.0807808)
(0.74407 0.0331148 -0.1569)
(0.905611 -0.0423133 -0.124854)
(0.99459 -0.0942 -0.0310721)
(0.991428 -0.0922772 -0.00546843)
(1.00266 -0.0650935 -0.00378492)
(1.06986 -0.0201979 -0.0249485)
(1.02451 0.0385437 -0.0815746)
(0.959426 0.0769778 -0.10738)
(0.947235 0.0957176 -0.101566)
(0.989437 0.073138 -0.130283)
(0.96787 0.0143556 -0.136946)
(0.93473 -0.00943096 -0.0998539)
(0.92148 -0.00434875 -0.0833239)
(0.895891 -0.0164523 -0.0561978)
(0.858871 -0.0146858 0.0137604)
(0.81889 0.00912082 0.0364789)
(0.780936 0.0175145 0.000496961)
(0.782384 0.00881071 -0.0279622)
(0.85095 -0.00978161 -0.0407791)
(0.913288 -0.00604928 -0.0565255)
(0.931965 0.0222202 -0.0593569)
(0.932364 0.0174914 -0.0163746)
(0.922125 -0.0182632 0.0132714)
(0.943647 -0.0407102 0.010424)
(1.00055 -0.0440002 0.0204271)
(1.05561 -0.0521711 0.0181718)
(1.12452 -0.0399233 -0.0165087)
(1.10864 0.0143719 -0.0434468)
(0.950725 0.0325984 0.023495)
(0.767238 0.0271074 0.099341)
(0.710051 0.0187615 0.0962338)
(0.83106 -0.0246674 0.0662169)
(1.0198 -0.0352877 0.0622824)
(1.08334 0.0021408 0.0904917)
(1.02488 -0.0352956 0.0951048)
(1.05923 -0.116093 0.0736834)
(1.1535 -0.0442004 0.0427962)
(1.02403 0.0676548 0.00363845)
(0.977896 0.0530243 0.0230208)
(0.879415 0.0270697 -0.0192236)
(0.843037 0.00658506 -0.126271)
(0.940719 -0.0596786 -0.129754)
(1.00665 -0.102028 -0.0407474)
(1.01099 -0.0990766 -0.00912385)
(0.983414 -0.0688179 0.000411158)
(1.01522 -0.0188671 -0.0152615)
(1.01765 0.0365229 -0.0615451)
(1.01872 0.0765954 -0.103057)
(1.01041 0.0927615 -0.105551)
(1.03529 0.0676163 -0.124476)
(1.00273 0.0196483 -0.142754)
(0.951452 -0.00262447 -0.106244)
(0.932123 -0.00487272 -0.070147)
(0.911802 -0.0136147 -0.0613734)
(0.876989 -0.0126479 -0.0139166)
(0.851031 -0.00349557 0.028784)
(0.827512 -0.00332178 0.00782025)
(0.822693 -0.00411622 -0.0246323)
(0.880516 -0.0143777 -0.0419198)
(0.923632 -0.00860213 -0.055261)
(0.927036 0.0210345 -0.0551841)
(0.945401 0.0199174 -0.0154552)
(0.946638 -0.0146849 0.0140781)
(0.947864 -0.0432925 0.00545295)
(0.997528 -0.0504105 0.00453279)
(1.04318 -0.0564955 0.00835579)
(1.08918 -0.0443797 -0.0132942)
(1.09447 0.0128437 -0.0480001)
(0.974628 0.0457016 -0.00376602)
(0.82946 0.0433692 0.087768)
(0.783651 0.025636 0.117264)
(0.864033 -0.0292671 0.085534)
(1.01067 -0.0528179 0.0589786)
(1.10009 -0.00344057 0.092352)
(1.06405 -0.0162815 0.112616)
(1.01639 -0.100912 0.0745666)
(1.06522 -0.0533769 0.0221692)
(1.08186 0.0539294 0.00731473)
(1.10976 0.0482545 0.0607598)
(0.999425 0.0277516 0.0312731)
(0.918701 0.00050313 -0.0970959)
(0.979869 -0.0617783 -0.13014)
(1.02339 -0.097465 -0.0465847)
(1.02448 -0.0953278 -0.00644977)
(0.969787 -0.0639889 0.00375768)
(0.959512 -0.0144554 -0.000374603)
(1.00485 0.0333307 -0.0299064)
(1.03736 0.0707925 -0.082146)
(1.04898 0.0838104 -0.0902647)
(1.09844 0.0538634 -0.0918977)
(1.08118 0.0176675 -0.124275)
(1.011 0.00492458 -0.11405)
(0.963413 -0.000247195 -0.0665605)
(0.922956 -0.00735248 -0.0560119)
(0.88171 -0.00789085 -0.0335655)
(0.878941 -0.0087664 0.0143325)
(0.880117 -0.0145802 0.0190121)
(0.859951 -0.0120837 -0.00592783)
(0.883426 -0.0181026 -0.0287617)
(0.919555 -0.0120109 -0.0505911)
(0.932772 0.0183576 -0.0542008)
(0.953613 0.0195988 -0.0129613)
(0.954978 -0.0128397 0.0200483)
(0.957028 -0.0428207 0.008832)
(0.999479 -0.0559434 -0.00068259)
(1.03184 -0.0580444 0.00351423)
(1.05205 -0.0401823 -0.0107512)
(1.07366 0.0117449 -0.0503505)
(1.01575 0.0449249 -0.0281427)
(0.907215 0.0421323 0.0508276)
(0.860024 0.0257634 0.0970091)
(0.920567 -0.0208346 0.0899826)
(1.01895 -0.0514596 0.0596741)
(1.07027 -0.00999504 0.0827157)
(1.06064 -0.00457121 0.120299)
(1.00866 -0.0762724 0.0900618)
(1.01981 -0.0648861 0.0242485)
(1.1128 0.0175331 0.0132605)
(1.13157 0.0326976 0.0579058)
(1.00917 0.0318454 0.0359573)
(0.941098 0.00604222 -0.0722384)
(1.00154 -0.052877 -0.113081)
(1.02721 -0.0854381 -0.0457702)
(1.01427 -0.0844155 -0.00133745)
(0.966271 -0.0513854 0.00269049)
(0.940762 -0.00632301 0.00913904)
(0.989518 0.0285856 0.00101091)
(1.01732 0.0620887 -0.0331843)
(1.03992 0.0689351 -0.0329862)
(1.10265 0.0383753 -0.0224056)
(1.1116 0.0172217 -0.0712849)
(1.04256 0.0169373 -0.110129)
(0.974279 0.0134103 -0.0714481)
(0.928543 0.00776387 -0.040466)
(0.898082 0.00301369 -0.0328138)
(0.912071 -0.0100393 -0.00112863)
(0.937204 -0.0242694 0.0223014)
(0.91228 -0.0186904 0.0184994)
(0.89856 -0.0174654 -0.000936503)
(0.918522 -0.0158311 -0.0335861)
(0.943803 0.00929005 -0.0469878)
(0.968797 0.0166114 -0.00960378)
(0.971806 -0.0114431 0.0189576)
(0.963722 -0.0412823 0.00436038)
(0.991451 -0.0554716 -0.00778594)
(1.02744 -0.0602502 0.00065221)
(1.04888 -0.0435431 -0.00193304)
(1.07223 0.00187763 -0.04249)
(1.05428 0.0338746 -0.0417848)
(0.987593 0.0348692 0.0147943)
(0.929914 0.0198348 0.0619898)
(0.948021 -0.0180197 0.0804669)
(1.0308 -0.0435012 0.0654416)
(1.07014 -0.0108753 0.0796016)
(1.05556 0.00313287 0.122947)
(1.01721 -0.0552036 0.109357)
(1.01338 -0.0699988 0.0391546)
(1.0755 -0.00155504 0.00905225)
(1.03959 0.0313599 0.0305092)
(0.930703 0.0258371 0.0173538)
(0.911161 -0.0115111 -0.0521168)
(0.999019 -0.054562 -0.084927)
(1.03261 -0.0717481 -0.0337786)
(1.00662 -0.0721432 0.00625515)
(0.971418 -0.0421097 0.000791636)
(0.948621 -0.00221189 0.00979415)
(0.931891 0.017881 0.0297243)
(0.943005 0.0394672 0.0260213)
(0.964081 0.0428153 0.0275745)
(1.03382 0.0180909 0.0288018)
(1.07189 0.0134478 -0.0277041)
(1.02677 0.0319409 -0.10603)
(0.969617 0.0340251 -0.091588)
(0.94328 0.0229251 -0.0404474)
(0.934933 0.0126076 -0.0335603)
(0.953751 -0.00575136 -0.0313794)
(0.977023 -0.0271748 -0.0104568)
(0.954272 -0.0246137 0.00530358)
(0.926376 -0.0155007 0.000103863)
(0.927222 -0.0169935 -0.0241692)
(0.946788 -0.00290463 -0.0337697)
(0.976807 0.0108511 -0.00268188)
(0.99653 -0.00654392 0.00907428)
(0.983963 -0.0338123 -0.013103)
(0.987301 -0.049026 -0.0168946)
(1.01834 -0.0564885 0.00354928)
(1.05216 -0.0481149 0.0124694)
(1.07488 -0.0082721 -0.0297237)
(1.0569 0.026837 -0.0476336)
(1.01771 0.029632 -0.00274987)
(0.976468 0.0111445 0.0376268)
(0.975156 -0.0212794 0.0595559)
(1.04706 -0.0378603 0.0596113)
(1.09159 -0.0116295 0.0733764)
(1.06396 0.00603112 0.113552)
(1.02008 -0.0350064 0.11382)
(0.994648 -0.0582606 0.0528456)
(0.987628 -0.00376343 0.00571374)
(0.955646 0.0376497 0.00801395)
(0.905512 0.0226981 0.00997241)
(0.903901 -0.0332861 -0.01807)
(0.984331 -0.0668798 -0.046199)
(1.0322 -0.0553584 -0.0194323)
(1.0059 -0.0471628 0.0140765)
(0.961873 -0.02809 0.00984836)
(0.923858 0.00085548 0.0166547)
(0.909346 0.00779276 0.0402827)
(0.902622 0.0159491 0.0463148)
(0.908212 0.0189243 0.0428466)
(0.963131 0.00504876 0.045256)
(1.01233 0.0111641 0.00283462)
(0.98542 0.0397597 -0.0802293)
(0.949676 0.0496511 -0.0908008)
(0.959686 0.0378538 -0.0496821)
(0.979795 0.023002 -0.0437642)
(1.00022 0.00174905 -0.0597557)
(1.00842 -0.0212484 -0.0534888)
(0.986574 -0.0237055 -0.0319869)
(0.959566 -0.0121976 -0.0206663)
(0.940798 -0.00828995 -0.0232021)
(0.943551 0.00100261 -0.0250613)
(0.97877 0.0116179 -0.0020221)
(1.01536 0.000677399 0.00340584)
(1.00964 -0.0230614 -0.0240985)
(0.997073 -0.0398375 -0.0273581)
(1.01128 -0.0453042 0.00385796)
(1.04676 -0.040283 0.0261208)
(1.08301 -0.0113497 -0.0139967)
(1.06861 0.0248751 -0.0493453)
(1.03322 0.0329612 -0.0192344)
(1.00695 0.00526784 0.0187313)
(1.001 -0.0329411 0.0444023)
(1.0604 -0.0372196 0.0542605)
(1.10212 -0.00202442 0.0658656)
(1.04235 0.0154671 0.0970878)
(0.973076 -0.0228438 0.108999)
(0.956134 -0.0451001 0.0702027)
(0.949839 -0.000823261 0.024437)
(0.959406 0.0357221 0.00727468)
(0.968672 0.0222339 0.00308596)
(0.958169 -0.0331133 0.00717319)
(0.979645 -0.076706 -0.00346171)
(1.01936 -0.05672 -0.010246)
(1.02911 -0.026007 0.00630202)
(0.990492 -0.00637632 0.0162192)
(0.931079 0.00764712 0.0244481)
(0.974573 0.0219225 0.0374143)
(0.938652 0.0146015 0.046988)
(0.911879 0.00840157 0.0494614)
(0.931433 0.0024609 0.06277)
(0.970079 0.0192488 0.0359063)
(0.964397 0.0548658 -0.0483864)
(0.95257 0.0718925 -0.0948084)
(0.977355 0.0617734 -0.0817973)
(1.01232 0.0383086 -0.0661729)
(1.05053 0.00772646 -0.0696891)
(1.05413 -0.0165619 -0.0740695)
(1.01635 -0.0206445 -0.0598622)
(0.986503 -0.0123092 -0.0344323)
(0.968259 -0.00671736 -0.0178966)
(0.964546 0.000629778 -0.0194943)
(0.985163 0.00689894 -0.00812028)
(1.01358 0.00158331 0.00342016)
(1.01979 -0.0128063 -0.0178794)
(1.01404 -0.0298602 -0.0357936)
(1.01809 -0.0414049 -0.0165286)
(1.03646 -0.0395435 0.0180065)
(1.05933 -0.0132855 -0.00240832)
(1.04939 0.0296375 -0.046182)
(1.04043 0.043605 -0.0361327)
(1.049 0.00719236 0.00235182)
(1.02976 -0.0413002 0.0392748)
(1.03107 -0.039444 0.0557913)
(1.06534 0.00854361 0.0542181)
(1.05546 0.0324088 0.068187)
(1.00386 -0.00981527 0.0996217)
(0.960918 -0.0476916 0.103985)
(0.969805 -0.0178067 0.0659095)
(1.02645 0.0151465 0.0308864)
(1.07313 0.0139326 0.0100995)
(1.06402 -0.0187932 0.0105583)
(1.03858 -0.0652521 0.0164663)
(1.02246 -0.0640485 0.00355451)
(1.02296 -0.0254612 -0.0051644)
(1.02192 0.0117533 0.00744641)
(1.00025 0.0289155 0.022937)
(0.989631 0.0335458 0.0378487)
(0.95633 0.0218456 0.0516543)
(0.923859 0.010778 0.0565034)
(0.913062 0.00943472 0.0661303)
(0.929847 0.0287252 0.0495714)
(0.946319 0.0575932 -0.020749)
(0.963596 0.0754337 -0.0822085)
(0.999086 0.071516 -0.0897539)
(1.03372 0.0458317 -0.0648954)
(1.06852 0.00924478 -0.0499139)
(1.07684 -0.0156751 -0.0594266)
(1.04795 -0.0222323 -0.0643951)
(1.02662 -0.0190073 -0.049356)
(1.01585 -0.0130581 -0.0276321)
(1.00805 -0.00602579 -0.0195505)
(1.00798 -0.00488587 -0.0157132)
(1.01891 -0.00732404 -0.00895343)
(1.03513 -0.00610557 -0.0183531)
(1.04327 -0.0115855 -0.0355974)
(1.0324 -0.0236797 -0.0324518)
(1.00983 -0.0252208 -0.00329657)
(0.992942 -0.00573243 0.00104164)
(0.984909 0.0257994 -0.0281463)
(1.01772 0.0291753 -0.0332492)
(1.07015 -0.0037253 -0.00368703)
(1.0523 -0.0382317 0.0381823)
(0.994237 -0.0298754 0.0583212)
(0.988332 0.0134336 0.0492957)
(1.0294 0.0351892 0.041231)
(1.05905 0.00523717 0.0664016)
(1.04143 -0.0378417 0.1127)
(1.03409 -0.0327007 0.117749)
(1.0748 -0.00765155 0.0859701)
(1.11293 -0.000187299 0.0503613)
(1.10623 -0.011173 0.0264112)
(1.08258 -0.043586 0.0188459)
(1.057 -0.0580498 0.00898779)
(1.03078 -0.033423 -0.00572912)
(1.01923 0.0114167 0.00059595)
(1.00884 0.0386265 0.0198913)
(0.955061 0.0288441 0.0232907)
(0.932512 0.014314 0.0335795)
(0.908706 0.00317357 0.0402568)
(0.888587 0.00712743 0.0475714)
(0.892826 0.0314353 0.0470545)
(0.922638 0.0563102 0.012316)
(0.954906 0.0689273 -0.0342838)
(0.979422 0.0631687 -0.0502988)
(0.994535 0.0400166 -0.0306611)
(1.00775 0.00984191 -0.00952816)
(1.0157 -0.0129209 -0.0224918)
(1.01687 -0.0275335 -0.0471469)
(1.02424 -0.035526 -0.0534676)
(1.04444 -0.0304237 -0.039178)
(1.06586 -0.0189508 -0.0216288)
(1.05883 -0.0178037 -0.0171756)
(1.03574 -0.0224392 -0.0205542)
(1.03802 -0.0151922 -0.0277828)
(1.06474 -0.00585727 -0.0375113)
(1.06815 -0.00931311 -0.0385718)
(1.02936 -0.0128795 -0.0165731)
(0.992815 -0.00316408 0.0037375)
(0.986492 0.0106454 -0.00218045)
(1.01531 0.00270574 -0.012564)
(1.05123 -0.0196692 -0.00783559)
(1.04145 -0.0313667 0.0157744)
(0.995435 -0.0201214 0.0335499)
(0.972248 0.00734726 0.0398947)
(0.989198 0.0190838 0.0466465)
(1.01317 -0.00148401 0.0650714)
(1.03477 -0.0358438 0.109148)
(1.06674 -0.0416904 0.138181)
(1.10888 -0.0255533 0.122691)
(1.14216 -0.0153361 0.0804705)
(1.12734 -0.0136169 0.0354736)
(1.08406 -0.0296047 0.0177002)
(1.06093 -0.0416202 0.0158266)
(1.03643 -0.0236292 0.00145628)
(0.998482 0.0163787 -0.00363656)
(0.97163 0.0388911 0.00985986)
(0.936367 0.0410651 0.0388594)
(0.953791 0.0219748 0.0336924)
(0.967643 -0.00428224 0.0287442)
(0.958715 -0.0178423 0.0265971)
(0.939223 0.00112093 0.0303648)
(0.941123 0.0330624 0.0249841)
(0.954946 0.0507077 0.00250964)
(0.966087 0.0456411 -0.0185016)
(0.97463 0.0265356 -0.0181367)
(0.986161 0.00632468 0.000277268)
(0.997922 -0.00928074 -0.000932564)
(1.0096 -0.0263971 -0.0198545)
(1.01874 -0.0397696 -0.0326869)
(1.03027 -0.0368685 -0.0322168)
(1.05983 -0.0247019 -0.0157417)
(1.0735 -0.0185398 -0.00782584)
(1.04843 -0.0190804 -0.0229878)
(1.02089 -0.0133312 -0.0464467)
(1.02806 0.00169726 -0.0545663)
(1.04782 0.0137087 -0.0443674)
(1.03477 0.0157688 -0.0236146)
(1.00851 0.01238 -0.00207432)
(1.00177 0.0118542 0.00397879)
(1.00921 -0.00283414 -0.00723461)
(1.00824 -0.0280833 -0.0199984)
(0.990301 -0.0308359 -0.0146147)
(0.985268 -0.00882414 -0.00716967)
(1.00063 0.0194416 -0.000978768)
(1.00817 0.0289817 0.0215231)
(0.992436 0.00651953 0.0488987)
(0.989815 -0.0386508 0.0891677)
(1.03561 -0.0622788 0.123791)
(1.09693 -0.050305 0.118205)
(1.14051 -0.0228254 0.0830189)
(1.13704 0.000513586 0.0302158)
(1.0866 -0.00840932 7.26026e-05)
(1.03946 -0.0250487 0.0053398)
(0.998557 -0.00963951 0.00681799)