/*--------------------------------*- C++ -*----------------------------------*\
  =========                 |
  \\      /  F ield         | OpenFOAM: The Open Source CFD Toolbox
   \\    /   O peration     | Website:  https://openfoam.org
    \\  /    A nd           | Version:  10
     \\/     M anipulation  |
\*---------------------------------------------------------------------------*/
FoamFile
{
    format      ascii;
    class       volVectorField;
    location    "2";
    object      U_0;
}
// * * * * * * * * * * * * * * * * * * * * * * * * * * * * * * * * * * * * * //

dimensions      [0 1 -1 0 0 0 0];

internalField   nonuniform List<vector> 
102400
(
(0.0859516 0.000239949 -0.0276347)
(0.0802011 0.000265818 -0.0272994)
(0.0978269 0.000291021 -0.0124165)
(0.136642 0.000159039 0.00847218)
(0.157269 0.000192859 0.0245527)
(0.144721 0.000239598 0.0239196)
(0.133473 0.000660078 0.021014)
(0.121436 0.000255318 0.0204484)
(0.111024 -0.000346726 0.0141749)
(0.115734 -0.000343444 0.0107429)
(0.115887 0.000312716 0.00965162)
(0.113059 0.000390253 0.00884107)
(0.13513 0.000355321 0.0107009)
(0.168681 0.000178392 0.012685)
(0.189216 7.68921e-05 0.0155406)
(0.191272 -0.000268829 0.0109414)
(0.170403 -0.000399644 -0.00367402)
(0.158137 -0.000153111 -0.0214856)
(0.150024 9.86443e-05 -0.0374797)
(0.13188 8.51958e-05 -0.0337485)
(0.11364 -0.000384003 -0.0173958)
(0.0892417 -0.000977161 -0.00989072)
(0.0664165 -0.000685628 -0.019857)
(0.0576963 0.00043281 -0.0287783)
(0.0635434 0.000959966 -0.00208382)
(0.06345 0.00067657 0.0345206)
(0.0578496 -0.000186952 0.0448639)
(0.0586057 -0.000195407 0.0282065)
(0.0564126 0.000592732 -0.00631149)
(0.046007 0.000887474 -0.0269563)
(0.0477897 0.000259571 -0.0219355)
(0.0567125 0.000186701 0.000179692)
(0.0620078 0.00043411 0.0138702)
(0.0748748 0.000327954 0.0110602)
(0.0782418 0.000602719 0.00122229)
(0.0687278 0.00065984 -0.0138817)
(0.0698649 0.000236608 -0.0228124)
(0.07816 -0.000358993 -0.0223129)
(0.0909073 -0.000563403 -0.0253593)
(0.0929816 -0.000244736 -0.0236068)
(0.260079 0.00115046 -0.0466894)
(0.231639 0.00187805 -0.0545239)
(0.244415 0.00191307 -0.0352923)
(0.34566 0.000565964 0.00240659)
(0.441996 -0.000904244 0.0485631)
(0.444983 0.000144172 0.0557109)
(0.426251 0.00176223 0.0404193)
(0.401397 0.000796521 0.0424257)
(0.349189 -0.000668593 0.0380573)
(0.336825 -0.000105718 0.0238178)
(0.34165 0.0021893 0.0142353)
(0.332397 0.00204469 0.0143558)
(0.368494 -0.000686514 0.0240711)
(0.451479 -0.0035564 0.0307862)
(0.524446 -0.00397799 0.0413698)
(0.576134 -0.00298879 0.0374733)
(0.54464 -0.00245947 0.0110266)
(0.49581 -0.00216337 -0.0187411)
(0.482188 -0.000495284 -0.0619127)
(0.441578 0.000369552 -0.0771274)
(0.411209 -0.00139041 -0.0490473)
(0.345952 -0.00392685 -0.0264965)
(0.233996 -0.00308995 -0.0401743)
(0.173692 0.00136029 -0.052589)
(0.202689 0.0033945 0.000682988)
(0.234725 0.00180006 0.0692582)
(0.20397 -0.00158368 0.0837916)
(0.166028 -0.00152182 0.0422342)
(0.15779 0.00232503 -0.0199227)
(0.149174 0.00492557 -0.0530845)
(0.161677 0.00432542 -0.041702)
(0.176972 0.00358608 0.000690819)
(0.176579 0.00352134 0.0289587)
(0.206404 0.00331658 0.0258812)
(0.23896 0.00337924 -0.00112413)
(0.231147 0.00284977 -0.0430526)
(0.225946 0.00206715 -0.0586275)
(0.23053 -0.000236734 -0.0469491)
(0.253681 -0.0021419 -0.049266)
(0.269119 -0.0014907 -0.0447751)
(0.425635 0.00236594 -0.0407049)
(0.393353 0.0043248 -0.0529882)
(0.354143 0.00454087 -0.0541791)
(0.42642 0.00267733 -0.0300893)
(0.576798 -0.00161651 0.0242394)
(0.646936 -0.00176702 0.0776698)
(0.679532 0.000644132 0.0607381)
(0.689705 0.000525017 0.0412677)
(0.606002 6.64801e-05 0.0499944)
(0.543534 0.00114561 0.047095)
(0.551665 0.00480258 0.028192)
(0.549714 0.00554247 0.0154366)
(0.555595 0.000379572 0.0275329)
(0.62921 -0.00737819 0.0326421)
(0.70958 -0.0122621 0.0477953)
(0.797589 -0.0114913 0.0634117)
(0.843959 -0.00651702 0.0320775)
(0.787945 -0.00590848 0.0100762)
(0.800631 -0.00459355 -0.0179831)
(0.787187 -0.00218516 -0.0699889)
(0.75815 -0.00412646 -0.0742617)
(0.748494 -0.00423101 -0.0377525)
(0.56305 -0.0022264 -0.0434278)
(0.351948 0.0028484 -0.0758928)
(0.346366 0.00333564 -0.0310393)
(0.445252 0.00172487 0.0589472)
(0.408941 -0.0019065 0.0972572)
(0.286475 -0.00311989 0.0518189)
(0.247936 0.00108688 -0.0200413)
(0.242576 0.00673299 -0.059062)
(0.274079 0.00985843 -0.0629068)
(0.302508 0.0108031 -0.0190055)
(0.288894 0.00953222 0.0255743)
(0.304875 0.00842528 0.0355807)
(0.387629 0.00827327 0.0124882)
(0.423067 0.00583713 -0.0496717)
(0.406342 0.00522022 -0.0891132)
(0.381562 0.00358626 -0.0717848)
(0.37525 -0.00203512 -0.0499342)
(0.407127 -0.0029014 -0.0440073)
(0.534257 0.00506062 -0.0223863)
(0.542169 0.00776276 -0.024024)
(0.476227 0.00782279 -0.0457555)
(0.478971 0.00703036 -0.0521805)
(0.601017 0.00060753 -0.0144522)
(0.707123 -0.00318872 0.0656388)
(0.777567 -0.0010881 0.0873676)
(0.842228 -0.00404833 0.0495496)
(0.797716 -0.00250032 0.0441925)
(0.706208 0.00200354 0.056828)
(0.705529 0.00700105 0.0474743)
(0.740033 0.00901171 0.0264504)
(0.721625 0.00445182 0.0400458)
(0.740606 -0.00498147 0.0402166)
(0.812608 -0.0139226 0.0368041)
(0.850845 -0.0206324 0.0726352)
(0.93236 -0.0140906 0.0455579)
(0.909671 -0.0098953 0.00522372)
(0.934727 -0.0128402 0.0129315)
(1.04642 -0.00841388 -0.0200619)
(0.968467 -0.0101211 -0.0584155)
(0.977831 -0.0104894 -0.0307385)
(0.988925 0.00124907 -0.0225356)
(0.688918 0.0107351 -0.0827114)
(0.52446 0.00413186 -0.0897234)
(0.645618 -0.00208146 -0.00628045)
(0.644378 -0.00185155 0.0817081)
(0.447003 -0.00252623 0.0585704)
(0.342429 -0.0041275 -0.0170642)
(0.316441 -0.000416637 -0.0464558)
(0.351266 0.00873286 -0.062211)
(0.408866 0.0179703 -0.0445279)
(0.407362 0.0184093 -0.000214485)
(0.391316 0.0163225 0.0289308)
(0.465007 0.0155061 0.0312542)
(0.572208 0.00890754 -0.0184719)
(0.597564 0.00730766 -0.0964033)
(0.554309 0.0108354 -0.106627)
(0.483444 0.00465401 -0.0554706)
(0.484266 -0.00123877 -0.028083)
(0.581039 0.0104625 -0.00693485)
(0.634446 0.0127994 0.0113781)
(0.594963 0.0119279 -0.00706276)
(0.551406 0.0127686 -0.0468493)
(0.623464 0.00501286 -0.0357701)
(0.717424 -0.00280849 0.0377142)
(0.816746 -0.00128769 0.0865705)
(0.885309 -0.00763959 0.0670691)
(0.861932 -0.00903329 0.0528738)
(0.77986 -0.00152524 0.0574114)
(0.77191 0.0066427 0.0449436)
(0.849177 0.0109349 0.0259647)
(0.836438 0.00957288 0.0534477)
(0.802144 -0.00109635 0.0599745)
(0.879717 -0.0100504 0.0274773)
(0.884207 -0.0207527 0.059136)
(0.92231 -0.019037 0.0538525)
(0.930089 -0.0118853 -0.00049353)
(0.899436 -0.0212562 0.00398874)
(1.08811 -0.0199016 4.36644e-05)
(1.12081 -0.0129286 -0.0380957)
(0.968415 -0.0170047 -0.024229)
(1.11422 -0.0023265 0.00129)
(0.99717 0.0214206 -0.0518182)
(0.745623 0.00999243 -0.117785)
(0.791069 -0.0082549 -0.110434)
(0.875189 -0.00161473 0.0195337)
(0.676117 0.00447269 0.0660371)
(0.505577 -0.007656 -0.00362228)
(0.416698 -0.0149224 -0.0380233)
(0.401968 -0.00331155 -0.0443856)
(0.473884 0.0183016 -0.0449405)
(0.505869 0.0262558 -0.0291405)
(0.492494 0.0271424 -0.000122808)
(0.518795 0.0264575 0.0351163)
(0.61432 0.0126678 0.0326653)
(0.717122 0.00495385 -0.0580876)
(0.713073 0.0152425 -0.122885)
(0.618935 0.0161986 -0.0870028)
(0.551744 0.00569527 -0.0300066)
(0.623139 0.0174665 -0.0189122)
(0.686006 0.018483 0.0249409)
(0.676007 0.0169575 0.030913)
(0.632036 0.01944 -0.0174101)
(0.662348 0.0132021 -0.0412743)
(0.722727 0.000347568 0.0159289)
(0.840607 -0.00193659 0.0674916)
(0.924922 -0.00954903 0.072706)
(0.880322 -0.011968 0.0701654)
(0.785882 -0.00320823 0.0562669)
(0.772439 0.00438833 0.0245467)
(0.88064 0.00989052 0.00441171)
(0.879447 0.0155603 0.0527732)
(0.811932 0.00328585 0.0747696)
(0.90104 -0.00814781 0.0224521)
(0.92506 -0.0168536 0.0336299)
(0.90687 -0.0199802 0.0476467)
(0.925582 -0.0122175 0.00469796)
(0.894026 -0.0250526 -0.000731591)
(1.0262 -0.0345523 0.0059797)
(1.16704 -0.0186165 -0.0272868)
(0.964228 -0.0177407 -0.0285855)
(1.03364 -0.00905457 0.000191062)
(1.13929 0.0276795 -0.0212982)
(0.949281 0.0193287 -0.0987815)
(0.806079 -0.0132431 -0.153785)
(0.941678 -0.00637651 -0.0577265)
(0.927735 0.015119 0.0544821)
(0.767744 0.000372044 0.0258602)
(0.590168 -0.0227534 -0.0376273)
(0.460805 -0.0190852 -0.0376267)
(0.511842 0.0107944 -0.0220056)
(0.575419 0.0275512 -0.0347571)
(0.577733 0.0377242 -0.034111)
(0.574218 0.041584 0.024641)
(0.62211 0.018153 0.0828421)
(0.749908 -0.00282368 0.017109)
(0.819469 0.0117651 -0.0969217)
(0.750131 0.0236306 -0.113525)
(0.641674 0.0153727 -0.0668322)
(0.675773 0.0230099 -0.0545517)
(0.729864 0.023568 0.0110008)
(0.729056 0.0235369 0.038857)
(0.683158 0.0247132 -0.000438995)
(0.696709 0.0220371 -0.0377403)
(0.73323 0.00707173 -0.00299432)
(0.848785 -0.00240411 0.0428833)
(0.959297 -0.0117259 0.0718157)
(0.908678 -0.0107714 0.0862368)
(0.785652 0.00229731 0.0491367)
(0.75781 0.00496384 -0.00942578)
(0.88215 0.00748504 -0.0260557)
(0.891256 0.021369 0.03803)
(0.811055 0.00983454 0.0779729)
(0.893113 -0.009107 0.0198287)
(0.949887 -0.0152177 0.0120777)
(0.907463 -0.0169904 0.0383474)
(0.914156 -0.0104065 0.0157187)
(0.932704 -0.0243351 0.00308881)
(1.00524 -0.0459275 0.0120039)
(1.15529 -0.0264723 -0.0187938)
(0.9844 -0.0170601 -0.0304628)
(0.924636 -0.0166752 -0.00478976)
(1.14168 0.024832 -0.00479425)
(1.10278 0.031608 -0.062684)
(0.856079 -0.00969735 -0.150871)
(0.868128 -0.0178133 -0.11742)
(1.02905 0.0150715 0.0121926)
(1.02395 0.0163832 0.0497909)
(0.86029 -0.0141465 -0.0165556)
(0.596522 -0.0277546 -0.0507376)
(0.551458 -0.00209842 0.00110893)
(0.620014 0.0236796 -0.0147957)
(0.630756 0.0464724 -0.047998)
(0.625337 0.0579162 0.0138835)
(0.657993 0.0244176 0.130107)
(0.755257 -0.0138107 0.109415)
(0.877437 -0.000245672 -0.0358956)
(0.862798 0.022284 -0.111581)
(0.735486 0.0220571 -0.104593)
(0.735651 0.0255913 -0.0902668)
(0.768069 0.0275031 -0.0174355)
(0.761975 0.0303218 0.0236781)
(0.705628 0.0294853 -0.00382079)
(0.712788 0.0275675 -0.0392025)
(0.744334 0.0133375 -0.0226763)
(0.845583 -0.00394504 0.0112355)
(0.973947 -0.0149244 0.0647937)
(0.943539 -0.0074884 0.100622)
(0.798805 0.0149061 0.0415656)
(0.74414 0.0117359 -0.0455769)
(0.86341 0.00637767 -0.0586379)
(0.895612 0.0262938 0.0156597)
(0.825058 0.0192164 0.0684055)
(0.883392 -0.00837114 0.0168941)
(0.950792 -0.0162147 -0.00362781)
(0.910072 -0.0149928 0.0262809)
(0.896414 -0.00891173 0.0287603)
(0.966644 -0.0191996 0.0107424)
(1.03412 -0.0484831 0.0124214)
(1.13423 -0.0340677 -0.0135534)
(0.999573 -0.0141588 -0.0284209)
(0.851907 -0.0209481 6.17004e-05)
(1.07318 0.0144285 0.00999255)
(1.17577 0.039983 -0.0295055)
(0.945384 0.00341879 -0.124215)
(0.799043 -0.0262313 -0.139829)
(0.951458 -0.000853163 -0.0348836)
(1.09993 0.0187558 0.053781)
(1.12209 -0.000430142 0.03121)
(0.842889 -0.0229854 -0.0632506)
(0.64561 -0.0118376 -0.00651436)
(0.66373 0.016814 0.0272462)
(0.656927 0.0521829 -0.0551206)
(0.655689 0.0731291 -3.52312e-05)
(0.767658 0.0283234 0.175286)
(0.8378 -0.0244062 0.197501)
(0.931307 -0.0178372 0.0517529)
(0.961505 0.0125263 -0.0778129)
(0.833974 0.0231323 -0.12203)
(0.807645 0.0272173 -0.110686)
(0.805412 0.033038 -0.0453247)
(0.781552 0.0382802 -0.00193597)
(0.714932 0.0358897 -0.0158296)
(0.721432 0.0307283 -0.0450726)
(0.764214 0.015391 -0.0418061)
(0.846924 -0.00805151 -0.0228559)
(0.960058 -0.0188006 0.046478)
(0.951958 -0.00356588 0.104083)
(0.819377 0.027978 0.0410906)
(0.739588 0.0203731 -0.0524348)
(0.824665 0.00718853 -0.0719001)
(0.891267 0.0299457 -0.00579054)
(0.849036 0.0281884 0.0495248)
(0.875969 -0.00494644 0.0136917)
(0.935902 -0.015816 -0.015761)
(0.911775 -0.0119082 0.0079516)
(0.880595 -0.00991753 0.0383925)
(0.970954 -0.018003 0.0261438)
(1.07082 -0.0448986 0.00656397)
(1.11526 -0.0352939 -0.0138073)
(0.988553 -0.00921885 -0.0214123)
(0.826657 -0.0210604 0.0146984)
(0.999265 -6.93817e-05 0.0264389)
(1.1625 0.0401528 -0.00887382)
(1.01487 0.0194193 -0.0944608)
(0.821967 -0.0235338 -0.131488)
(0.841796 -0.0185305 -0.0575893)
(1.01341 0.0044572 0.0519037)
(1.21012 -0.000578883 0.0816183)
(1.0637 -0.0145684 -0.0290785)
(0.79621 -0.0104974 -0.040147)
(0.724662 0.00893708 0.0178181)
(0.660205 0.0620779 -0.0349095)
(0.692269 0.0835945 0.070543)
(0.881112 0.017405 0.183354)
(0.964882 -0.040457 0.192627)
(1.01055 -0.0352373 0.110594)
(1.06659 -0.00258594 -0.0187873)
(0.947906 0.0189225 -0.113229)
(0.903583 0.0296456 -0.116025)
(0.851733 0.0408784 -0.07078)
(0.801017 0.0501425 -0.0334022)
(0.722593 0.0475471 -0.0398592)
(0.734664 0.0333914 -0.057939)
(0.798252 0.0113041 -0.0598369)
(0.860511 -0.0133282 -0.0511326)
(0.942559 -0.0214958 0.0232172)
(0.939944 -0.000389255 0.0972443)
(0.837315 0.0392518 0.0437422)
(0.745551 0.0304895 -0.0405845)
(0.775143 0.0099078 -0.0640842)
(0.872583 0.0312702 -0.021249)
(0.879625 0.0341239 0.0231252)
(0.876991 -0.000885336 0.00840425)
(0.907784 -0.0139457 -0.0188622)
(0.910978 -0.00701763 -0.0124894)
(0.893642 -0.0105601 0.0351268)
(0.970859 -0.0198827 0.0456463)
(1.09131 -0.0416398 0.00232273)
(1.11146 -0.031284 -0.0242362)
(0.985511 -0.0031472 -0.0107533)
(0.840758 -0.0211001 0.0397836)
(0.934768 -0.0122441 0.0375234)
(1.07185 0.0361372 -0.0112855)
(0.998948 0.027242 -0.0697759)
(0.873729 -0.0169269 -0.0981611)
(0.81253 -0.0270014 -0.0521707)
(0.935554 -0.0160225 0.0526183)
(1.19723 -0.0163725 0.106381)
(1.16908 -0.0119512 0.0260732)
(0.920718 -0.00052097 -0.0482513)
(0.769783 0.00971154 -0.0180383)
(0.668958 0.0611551 0.0526179)
(0.714466 0.0694579 0.115242)
(0.850264 -0.012229 0.0659554)
(0.942062 -0.0691619 0.0582778)
(1.01161 -0.055785 0.0529668)
(1.1266 -0.0199326 0.00165489)
(1.06945 0.0115056 -0.0869251)
(1.00476 0.0345794 -0.116952)
(0.905326 0.052457 -0.0908759)
(0.840282 0.0628798 -0.0514789)
(0.775622 0.0531182 -0.0564503)
(0.783659 0.0240243 -0.0713784)
(0.844965 0.00168278 -0.0737402)
(0.878241 -0.0169764 -0.0705308)
(0.927847 -0.0244926 -0.00188305)
(0.930413 -0.000499795 0.0827961)
(0.855634 0.0451456 0.0503687)
(0.763235 0.039494 -0.0212845)
(0.736863 0.0140661 -0.0486786)
(0.84006 0.0267372 -0.0324528)
(0.911003 0.032906 -0.0109099)
(0.89355 0.0044055 -0.00670556)
(0.879939 -0.00994982 -0.0102526)
(0.898028 -0.00464676 -0.0201614)
(0.923406 -0.0116015 0.0203805)
(0.989842 -0.0218649 0.0545351)
(1.09879 -0.0393754 0.00540866)
(1.12832 -0.0264715 -0.0409369)
(1.01537 0.00379783 -0.00973782)
(0.867895 -0.016922 0.0668557)
(0.840006 -0.0189 0.0428542)
(0.899959 0.031224 -0.0299589)
(0.946694 0.0265181 -0.0447269)
(0.943711 -0.0116711 -0.041635)
(0.856375 -0.0259449 -0.02291)
(0.917093 -0.0346532 0.0519333)
(1.18073 -0.0419862 0.101284)
(1.2348 -0.0146681 0.0600446)
(1.01296 0.0118102 -0.0202452)
(0.792992 0.0160884 -0.0300954)
(0.680114 0.0537267 0.0390147)
(0.730413 0.0635614 -0.000187209)
(0.850694 -0.0174236 -0.0344081)
(0.907528 -0.0783952 0.00229878)
(0.952886 -0.069012 0.00236084)
(1.07995 -0.0371786 -0.010437)
(1.13422 0.00146953 -0.0660803)
(1.05163 0.0365245 -0.108851)
(0.942143 0.064023 -0.108019)
(0.878362 0.0782959 -0.0699901)
(0.852997 0.0569819 -0.0749673)
(0.849634 0.00819788 -0.0857038)
(0.885003 -0.0103462 -0.082013)
(0.89412 -0.0179398 -0.0803804)
(0.91 -0.0272332 -0.02372)
(0.915669 -0.00528421 0.0606518)
(0.866336 0.0423288 0.0550829)
(0.778561 0.0441072 -0.00219225)
(0.727222 0.0168482 -0.0348936)
(0.809919 0.0132347 -0.0381147)
(0.92154 0.0229682 -0.039881)
(0.915784 0.0126513 -0.0301851)
(0.87101 -0.00255192 -0.00298681)
(0.881991 -0.00804175 -0.00698624)
(0.938964 -0.0173971 0.0140022)
(1.00806 -0.0262657 0.0517925)
(1.09115 -0.0397262 0.0175513)
(1.14905 -0.0273557 -0.0433451)
(1.05692 0.00808547 -0.0292434)
(0.890987 -0.00388439 0.0742463)
(0.75861 -0.00932401 0.070922)
(0.734188 0.0234942 -0.0214519)
(0.883972 0.0104034 -0.0225115)
(1.01573 -0.013343 0.0130302)
(0.934448 -0.0148732 0.0231265)
(0.914313 -0.0432422 0.047577)
(1.18046 -0.0751771 0.0899507)
(1.29461 -0.0237263 0.0779713)
(1.02902 0.0311338 0.00321293)
(0.776348 0.0315897 -0.0425501)
(0.672905 0.0588929 -0.0636933)
(0.72342 0.0584913 -0.1244)
(0.895189 -0.0278485 -0.0825662)
(0.958615 -0.0862236 0.00719814)
(0.956729 -0.0802817 0.00882425)
(1.02351 -0.0519072 -0.00435688)
(1.10962 -0.00937385 -0.0423867)
(1.03958 0.0376051 -0.0945512)
(0.943431 0.072651 -0.109987)
(0.916181 0.0922124 -0.0935855)
(0.936851 0.0674762 -0.116492)
(0.920002 0.00592389 -0.115704)
(0.918651 -0.0139531 -0.0915544)
(0.911264 -0.0121732 -0.0851674)
(0.896135 -0.0237767 -0.0395841)
(0.8843 -0.00954762 0.0377313)
(0.843695 0.0311408 0.0441641)
(0.7757 0.0389938 0.000443041)
(0.74464 0.0169933 -0.0304154)
(0.812948 -0.00179621 -0.0411147)
(0.914487 0.00705001 -0.0549502)
(0.932949 0.0209151 -0.0514986)
(0.89758 0.0072295 -0.00700006)
(0.891805 -0.0175666 0.0103195)
(0.943823 -0.0300995 0.0181809)
(1.01185 -0.0339995 0.0432682)
(1.0783 -0.0436961 0.0229646)
(1.13899 -0.0297037 -0.0289075)
(1.07885 0.0134634 -0.0362982)
(0.908321 0.0129212 0.0547297)
(0.73806 0.00950492 0.0933301)
(0.692614 0.0204205 0.0388574)
(0.851089 -0.00835435 0.0224208)
(1.02729 -0.0210933 0.0447115)
(1.01451 -0.00311753 0.0623075)
(0.95985 -0.0486928 0.0680791)
(1.14103 -0.107083 0.0838196)
(1.25912 -0.031137 0.0690607)
(0.996901 0.0548019 0.0048204)
(0.812748 0.0392864 -0.028388)
(0.719874 0.0369899 -0.0868787)
(0.753662 0.0285875 -0.159634)
(0.917451 -0.0479883 -0.119398)
(0.997474 -0.0961426 -0.0253815)
(0.990783 -0.0904251 -0.00370237)
(1.00748 -0.0615277 -0.00460619)
(1.07214 -0.0156055 -0.0292908)
(1.02055 0.0431101 -0.0854505)
(0.956074 0.0793914 -0.108012)
(0.949619 0.0952499 -0.103198)
(0.99028 0.0691813 -0.132451)
(0.965028 0.0107122 -0.135389)
(0.933188 -0.0104744 -0.0970257)
(0.919718 -0.00484824 -0.0814048)
(0.893024 -0.0163784 -0.052158)
(0.855494 -0.0132672 0.0176126)
(0.816086 0.0100093 0.0356421)
(0.779773 0.0173406 -0.00229999)
(0.785509 0.00782817 -0.030015)
(0.856368 -0.0104345 -0.042018)
(0.916681 -0.00440537 -0.057037)
(0.932347 0.0232678 -0.0571421)
(0.932114 0.0154842 -0.0130535)
(0.922542 -0.0211219 0.0143466)
(0.947554 -0.0420686 0.0110155)
(1.00611 -0.0445816 0.0213917)
(1.06225 -0.0515289 0.0164951)
(1.12733 -0.0360871 -0.0198418)
(1.09908 0.017701 -0.0415828)
(0.935078 0.0330063 0.0298585)
(0.758509 0.0265587 0.102901)
(0.714292 0.016445 0.0955648)
(0.844749 -0.0273368 0.0639772)
(1.03138 -0.0337402 0.0630693)
(1.08239 0.00169066 0.0919609)
(1.02172 -0.0416898 0.0934024)
(1.07008 -0.115797 0.0714237)
(1.15337 -0.034373 0.0404396)
(1.01616 0.0714599 0.00288141)
(0.974594 0.0502844 0.0225552)
(0.875753 0.0250265 -0.0256957)
(0.847777 0.00264351 -0.131452)
(0.948879 -0.0642043 -0.125692)
(1.00971 -0.103416 -0.0353698)
(1.00924 -0.0972652 -0.00719223)
(0.984359 -0.0649042 0.000178341)
(1.01762 -0.0136581 -0.0192612)
(1.01995 0.0410418 -0.0657667)
(1.01876 0.0789004 -0.104731)
(1.01216 0.0919406 -0.106799)
(1.03473 0.0641398 -0.126307)
(0.998638 0.0166797 -0.142114)
(0.94924 -0.00376142 -0.1026)
(0.930452 -0.00562119 -0.0682093)
(0.909073 -0.0136722 -0.0592287)
(0.874527 -0.0119469 -0.0102399)
(0.849431 -0.00359903 0.0291907)
(0.826476 -0.0033916 0.00523677)
(0.825021 -0.00433486 -0.0270246)
(0.884895 -0.0145471 -0.0433119)
(0.925556 -0.00679346 -0.055605)
(0.927899 0.0222797 -0.0530274)
(0.946475 0.018105 -0.0122612)
(0.94671 -0.0178204 0.0148828)
(0.950347 -0.0452019 0.00514216)
(1.00214 -0.0511577 0.00510009)
(1.04793 -0.0558604 0.00762605)
(1.09237 -0.0404224 -0.016203)
(1.08811 0.0171078 -0.0477083)
(0.962261 0.0466515 0.00225405)
(0.822559 0.0422834 0.0933651)
(0.787484 0.0224987 0.117424)
(0.874424 -0.033093 0.0819847)
(1.02162 -0.051339 0.0588426)
(1.10166 -0.00190456 0.0950053)
(1.05882 -0.0217287 0.111151)
(1.01832 -0.102781 0.0695448)
(1.07024 -0.0449258 0.0198698)
(1.08546 0.0577689 0.0100193)
(1.10624 0.046187 0.0620826)
(0.990409 0.0252289 0.0234571)
(0.919355 -0.00336163 -0.104588)
(0.985953 -0.06591 -0.127296)
(1.02574 -0.0988373 -0.0406895)
(1.0219 -0.0937028 -0.00425174)
(0.967048 -0.0600961 0.00416932)
(0.962001 -0.00931888 -0.00349107)
(1.00919 0.0373085 -0.033561)
(1.03916 0.0729631 -0.0843197)
(1.05205 0.0825913 -0.0900597)
(1.09979 0.0508681 -0.0931694)
(1.07674 0.0157721 -0.12558)
(1.00649 0.00415237 -0.111136)
(0.959612 -0.000973462 -0.0639332)
(0.918957 -0.00748089 -0.0549091)
(0.87977 -0.00779747 -0.0306815)
(0.878991 -0.00955532 0.0162593)
(0.878884 -0.0147996 0.0177034)
(0.859983 -0.0119021 -0.00837034)
(0.886197 -0.0180132 -0.0309422)
(0.921771 -0.0102086 -0.0515823)
(0.934642 0.0196775 -0.0521746)
(0.954813 0.0180403 -0.00959082)
(0.955053 -0.0158958 0.0208521)
(0.959222 -0.0450606 0.00790082)
(1.00315 -0.0568071 -0.000649963)
(1.03435 -0.0570206 0.00309135)
(1.0545 -0.0363034 -0.013478)
(1.07177 0.0158052 -0.0511906)
(1.00792 0.0457426 -0.023453)
(0.900801 0.0407562 0.0569037)
(0.862287 0.0228973 0.0990527)
(0.928811 -0.0244851 0.0874562)
(1.02555 -0.0508987 0.0585864)
(1.07134 -0.00790705 0.0857621)
(1.05764 -0.00838304 0.120622)
(1.00731 -0.0793907 0.0846641)
(1.02621 -0.0595075 0.0211463)
(1.1187 0.0216518 0.0155453)
(1.12477 0.0330381 0.058742)
(0.99872 0.0299555 0.0291935)
(0.941424 0.00193155 -0.0792474)
(1.0067 -0.0566172 -0.111686)
(1.0281 -0.0866841 -0.0405227)
(1.01178 -0.0827925 0.000743857)
(0.962926 -0.0477427 0.00333328)
(0.942805 -0.00182675 0.00760318)
(0.992424 0.032006 -0.000444066)
(1.01877 0.0637736 -0.0336608)
(1.04326 0.0673148 -0.0313039)
(1.10554 0.036097 -0.0239235)
(1.10795 0.0166029 -0.0757949)
(1.03627 0.0166806 -0.110085)
(0.969214 0.01289 -0.0681925)
(0.924868 0.00752733 -0.0389452)
(0.897273 0.00228804 -0.0312009)
(0.913794 -0.0116084 0.00126143)
(0.936677 -0.0247124 0.0229424)
(0.910238 -0.0180346 0.0172366)
(0.898988 -0.0172359 -0.00343187)
(0.920717 -0.0146241 -0.035484)
(0.946474 0.0105423 -0.0455076)
(0.970153 0.0155782 -0.00655664)
(0.971437 -0.0142489 0.0194079)
(0.964609 -0.0435634 0.0033189)
(0.994717 -0.056572 -0.00756111)
(1.03021 -0.0594826 0.000976182)
(1.05105 -0.040046 -0.00424587)
(1.07249 0.00554918 -0.0442897)
(1.04993 0.035025 -0.0389358)
(0.981536 0.0338809 0.0201242)
(0.928534 0.0172369 0.0658245)
(0.953813 -0.0209593 0.0803202)
(1.03647 -0.0431196 0.0646543)
(1.07044 -0.00879762 0.0825464)
(1.05292 0.000525803 0.124823)
(1.01596 -0.0588224 0.104933)
(1.01702 -0.0667617 0.034492)
(1.07667 0.00319136 0.00887031)
(1.03121 0.032511 0.0305399)
(0.924276 0.0229721 0.0133717)
(0.914455 -0.01575 -0.0569527)
(1.00556 -0.0569007 -0.0843114)
(1.03314 -0.0724128 -0.0297239)
(1.004 -0.070739 0.00756866)
(0.968677 -0.0388746 0.000996615)
(0.949461 0.00128383 0.0100075)
(0.932183 0.0199345 0.030636)
(0.943527 0.0403407 0.0267168)
(0.967501 0.0412563 0.0281554)
(1.03842 0.0167992 0.0260153)
(1.07067 0.0143894 -0.0344492)
(1.02139 0.0328328 -0.109058)
(0.965853 0.0334486 -0.0884589)
(0.941638 0.0220977 -0.0379919)
(0.935388 0.0113404 -0.0333809)
(0.955623 -0.00786994 -0.0302922)
(0.976695 -0.0281663 -0.00864929)
(0.95167 -0.0238016 0.00580375)
(0.925256 -0.0150766 -0.00126426)
(0.928247 -0.0166104 -0.0254783)
(0.94909 -0.00182415 -0.0323335)
(0.979075 0.0106534 -0.000692273)
(0.996786 -0.00875623 0.00835043)
(0.983319 -0.0360872 -0.0140385)
(0.989054 -0.0503879 -0.0155996)
(1.0216 -0.0564034 0.00505601)
(1.05499 -0.0453654 0.0105)
(1.07486 -0.00461412 -0.0326124)
(1.05358 0.0285004 -0.04611)
(1.01341 0.0288754 0.00168833)
(0.974392 0.00858483 0.0412733)
(0.979006 -0.0235452 0.0607717)
(1.05275 -0.037307 0.0596894)
(1.09164 -0.0095806 0.0758813)
(1.05973 0.0046595 0.115868)
(1.01733 -0.0381769 0.110861)
(0.994055 -0.0563804 0.0476078)
(0.985811 0.00120809 0.00370996)
(0.951704 0.0386622 0.00808643)
(0.903707 0.0187957 0.00879978)
(0.907112 -0.0378298 -0.0206893)
(0.990888 -0.0674917 -0.0467085)
(1.03363 -0.0543072 -0.0167034)
(1.00256 -0.0459081 0.0152605)
(0.957864 -0.0258368 0.00985284)
(0.92229 0.00300289 0.0177787)
(0.908368 0.00843598 0.0415214)
(0.902821 0.0164147 0.0466783)
(0.911052 0.0180773 0.0427407)
(0.968045 0.00482593 0.0430669)
(1.01287 0.0132097 -0.00325852)
(0.981763 0.0415701 -0.0843871)
(0.948484 0.0493895 -0.0891554)
(0.961092 0.0367019 -0.0477415)
(0.981611 0.0213711 -0.0445208)
(1.00139 -0.000583577 -0.0602692)
(1.00751 -0.0226111 -0.0520505)
(0.984145 -0.0231112 -0.0302885)
(0.957596 -0.0113627 -0.0202918)
(0.940108 -0.00786998 -0.0233177)
(0.945232 0.00167311 -0.0237691)
(0.982189 0.0115455 -0.000765507)
(1.01685 -0.000997207 0.00208777)
(1.00874 -0.0251706 -0.0254264)
(0.997149 -0.0411289 -0.0254916)
(1.01364 -0.0453817 0.00673115)
(1.05054 -0.0383687 0.0248598)
(1.08414 -0.0079708 -0.0178575)
(1.06569 0.0270701 -0.0494076)
(1.0299 0.032109 -0.0157116)
(1.00525 0.0019783 0.0223314)
(1.0037 -0.0347434 0.0463949)
(1.06569 -0.0355713 0.0549108)
(1.10064 0.000467805 0.067751)
(1.03535 0.0142602 0.0993213)
(0.969094 -0.0257447 0.108003)
(0.955889 -0.0436323 0.0659896)
(0.950365 0.00352443 0.0215541)
(0.960882 0.0363749 0.00648472)
(0.969187 0.0184833 0.00322028)
(0.958006 -0.0380064 0.00694204)
(0.982205 -0.0776098 -0.00469813)
(1.02214 -0.05407 -0.00995063)
(1.02767 -0.0235762 0.00755111)
(0.985749 -0.0047344 0.0169147)
(0.927536 0.00837794 0.0256191)
(0.971856 0.0214555 0.0387056)
(0.936202 0.0140589 0.0477246)
(0.912046 0.00768852 0.0501206)
(0.934577 0.00318576 0.0617115)
(0.97159 0.02237 0.030442)
(0.963162 0.0575274 -0.0543142)
(0.953164 0.0720357 -0.0960939)
(0.980017 0.0601707 -0.0804358)
(1.01558 0.0357927 -0.0657142)
(1.05217 0.00496211 -0.0702271)
(1.05189 -0.0180483 -0.0738036)
(1.01287 -0.0203122 -0.0579375)
(0.984305 -0.0114993 -0.0324349)
(0.967322 -0.00621083 -0.0172166)
(0.965408 0.00104327 -0.0188972)
(0.987552 0.00685878 -0.00709408)
(1.01529 0.000674418 0.00270037)
(1.01988 -0.0143769 -0.0198111)
(1.01399 -0.031385 -0.0352804)
(1.01901 -0.0419544 -0.0134473)
(1.03854 -0.0379335 0.0185986)
(1.06007 -0.00957282 -0.00574298)
(1.04804 0.0325143 -0.0477122)
(1.04028 0.0425281 -0.03361)
(1.04821 0.00303621 0.00647072)
(1.02843 -0.04335 0.0421155)
(1.03334 -0.0367658 0.0561776)
(1.0662 0.0122216 0.0546658)
(1.05153 0.031361 0.070328)
(0.997816 -0.0137875 0.101734)
(0.958802 -0.0477456 0.102147)
(0.973626 -0.0146901 0.0621577)
(1.03231 0.0162932 0.0283471)
(1.07532 0.0118429 0.00930352)
(1.06192 -0.0228516 0.0109567)
(1.03588 -0.0674776 0.0159697)
(1.02159 -0.0619122 0.00222096)
(1.02297 -0.0217539 -0.00500839)
(1.02074 0.0143277 0.00870564)
(0.99809 0.0294377 0.0243396)
(0.986636 0.0326937 0.0394649)
(0.953079 0.0207005 0.0526765)
(0.921947 0.010067 0.0571842)
(0.913419 0.0104906 0.0654824)
(0.931221 0.0316314 0.0451695)
(0.947609 0.0600094 -0.0268127)
(0.96598 0.0758981 -0.0850799)
(1.002 0.0699989 -0.08861)
(1.03665 0.0428645 -0.0628692)
(1.07033 0.0062882 -0.0499142)
(1.07535 -0.0172088 -0.0605937)
(1.04519 -0.022282 -0.0641072)
(1.02512 -0.0184104 -0.0475775)
(1.01499 -0.012532 -0.0261648)
(1.0077 -0.00583476 -0.0189333)
(1.00854 -0.00501823 -0.0152808)
(1.02032 -0.00731225 -0.00926388)
(1.03652 -0.00630751 -0.0197336)
(1.04324 -0.0125503 -0.0359828)
(1.03057 -0.0243935 -0.0305149)
(1.00767 -0.0241424 -0.00161326)
(0.991704 -0.00309122 -0.000173603)
(0.98597 0.0273627 -0.029672)
(1.02189 0.0276303 -0.0319724)
(1.07171 -0.00671404 0.000123201)
(1.04789 -0.0393247 0.0414922)
(0.991011 -0.0272026 0.0587451)
(0.990014 0.016905 0.0480809)
(1.03258 0.0348461 0.0419675)
(1.05881 0.00204618 0.070045)
(1.03859 -0.0396875 0.115251)
(1.03567 -0.0314226 0.115945)
(1.07949 -0.00631914 0.0824718)
(1.11503 -0.000581484 0.0474404)
(1.10487 -0.0134409 0.0248772)
(1.08008 -0.0459025 0.0179399)
(1.05418 -0.0574439 0.0076692)
(1.02883 -0.0300592 -0.00608494)
(1.01799 0.0147707 0.00194828)
(1.00695 0.0395023 0.0217172)
(0.952816 0.0275134 0.0244491)
(0.93022 0.0129838 0.0343779)
(0.906624 0.00280344 0.0409049)
(0.887721 0.00865872 0.0478194)
(0.894231 0.0342208 0.0451903)
(0.925419 0.0582378 0.00854845)
(0.957369 0.0690026 -0.0369278)
(0.980704 0.0615304 -0.0499321)
(0.995448 0.0373317 -0.0286545)
(1.00868 0.00726706 -0.00934548)
(1.01612 -0.0147272 -0.024702)
(1.01734 -0.0286196 -0.0489052)
(1.02593 -0.0355178 -0.0531399)
(1.04684 -0.0296106 -0.0375248)
(1.0666 -0.0185259 -0.0204705)
(1.0572 -0.0181006 -0.0172386)
(1.03472 -0.0222334 -0.0212748)
(1.03979 -0.0143079 -0.0286681)
(1.06657 -0.00566073 -0.0378007)
(1.0664 -0.00974899 -0.0372195)
(1.02539 -0.0124593 -0.0144177)
(0.99068 -0.00201157 0.00448067)
(0.98771 0.0107778 -0.00294477)
(1.01841 0.00112366 -0.0129202)
(1.05257 -0.0209192 -0.00629725)
(1.03879 -0.0311029 0.0181242)
(0.991827 -0.0180411 0.0348522)
(0.97193 0.00947492 0.0403744)
(0.991335 0.0186798 0.0477169)
(1.01548 -0.004016 0.0681155)
(1.0373 -0.0376898 0.112748)
(1.07033 -0.04134 0.138764)
(1.11302 -0.0243286 0.119553)
(1.1435 -0.0148206 0.0759218)
(1.12447 -0.0144071 0.0323625)
(1.08081 -0.0309844 0.016811)
(1.05871 -0.0412401 0.0149517)
(1.03325 -0.0207565 0.000571336)
(0.994933 0.0193383 -0.00300778)
(0.968929 0.0392266 0.0112767)
(0.937411 0.0394008 0.039129)
(0.955252 0.0195584 0.0331989)
(0.967827 -0.00628753 0.0283937)
(0.957277 -0.0174655 0.0266658)
(0.938533 0.00375576 0.0304045)
(0.942051 0.0354052 0.0236615)
(0.956124 0.0510035 0.000447927)
(0.966802 0.044192 -0.0195847)
(0.975481 0.0244842 -0.0173326)
(0.98733 0.00450055 0.000928897)
(0.99906 -0.010957 -0.0022531)
(1.01063 -0.0279459 -0.0216956)
(1.01991 -0.0402324 -0.0334728)
(1.03266 -0.0360472 -0.0312883)
(1.06216 -0.0238423 -0.014396)
(1.07281 -0.0183745 -0.00829407)
(1.04565 -0.0188395 -0.0251925)
(1.0201 -0.0122347 -0.0480557)
(1.02995 0.00305866 -0.0541539)
(1.04848 0.0143625 -0.042581)
(1.03273 0.0157318 -0.0215028)
(1.00681 0.0121921 -0.000648183)
(1.00179 0.010973 0.00365892)
(1.00932 -0.00494188 -0.00857216)
(1.00737 -0.0292311 -0.0202293)
(0.989566 -0.0295718 -0.0136501)
(0.986055 -0.00606875 -0.00636965)
(1.00185 0.0214164 0.000410057)
(1.0077 0.0282178 0.023993)
(0.991595 0.00289955 0.0523321)
(0.992246 -0.0420698 0.0929959)
(1.0412 -0.062949 0.125216)
(1.10242 -0.0482218 0.116008)
(1.14265 -0.0200953 0.0782727)
(1.13414 0.00127609 0.0259356)
(1.08145 -0.00976442 -0.00104973)
(1.035 -0.0250364 0.00580652)
(0.994136 -0.00689669 0.00727679)