/*--------------------------------*- C++ -*----------------------------------*\
  =========                 |
  \\      /  F ield         | OpenFOAM: The Open Source CFD Toolbox
   \\    /   O peration     | Website:  https://openfoam.org
    \\  /    A nd           | Version:  10
     \\/     M anipulation  |
\*---------------------------------------------------------------------------*/
FoamFile
{
    format      ascii;
    class       volVectorField;
    location    "2";
    object      UMean;
}
// * * * * * * * * * * * * * * * * * * * * * * * * * * * * * * * * * * * * * //

dimensions      [0 1 -1 0 0 0 0];

internalField   nonuniform List<vector> 
102400
(
(0.1695 -7.42915e-05 0.00229575)
(0.167788 -0.000341393 -0.00471046)
(0.161141 -0.00077553 -0.0401276)
(0.151415 -0.000130118 -0.0303112)
(0.166041 0.000743457 -0.00630205)
(0.219818 0.00132255 -0.0454731)
(0.183452 -0.0010112 -0.0604358)
(0.103397 -0.000901454 -0.0254574)
(0.0786315 -0.000159728 -0.0101437)
(0.0797443 0.000685474 -0.0188522)
(0.0913669 0.000595301 -0.0369674)
(0.0967675 1.217e-05 -0.0403914)
(0.0876495 -0.000790809 -0.0210613)
(0.0752097 -0.000970315 -0.00534029)
(0.0640118 -0.000303853 -0.00583912)
(0.0567811 8.19284e-05 -0.00658128)
(0.0487642 0.000115296 -0.00572599)
(0.0473365 -3.45954e-05 -0.00419033)
(0.0534223 -6.00738e-05 0.00217957)
(0.0497204 0.000359039 0.0122374)
(0.0400222 0.000385405 0.0297394)
(0.0448403 0.000190854 0.0363766)
(0.0579318 7.07342e-05 0.0208522)
(0.0719793 3.2586e-06 -0.00473502)
(0.0874849 -1.60564e-05 -0.0289073)
(0.0983923 -5.24813e-05 -0.0309754)
(0.112145 0.00045542 -0.0191558)
(0.125922 0.000781014 -0.0113021)
(0.127958 0.00057936 -0.00985742)
(0.130597 0.000233581 -0.00763122)
(0.126124 -0.000408301 0.0139134)
(0.100821 -0.000309042 0.0289105)
(0.0944627 0.000273073 0.00965526)
(0.0952805 0.000504483 -0.0108402)
(0.112749 0.000119204 -0.000612941)
(0.132277 -0.00023165 0.0177029)
(0.146355 -0.00018179 0.024054)
(0.13764 -6.48175e-05 0.0168075)
(0.145445 0.000291924 -0.0154581)
(0.164755 0.000203427 -0.0238426)
(0.486443 -0.00124798 -0.00168876)
(0.495595 -0.00223949 0.0192561)
(0.498372 -0.000685111 -0.0632473)
(0.446265 0.000746182 -0.080097)
(0.415901 -0.00468578 -0.0212751)
(0.613687 -0.00706698 -0.0813491)
(0.726736 -0.000771003 -0.138654)
(0.444876 8.00381e-05 -0.0673625)
(0.248514 0.000899354 -0.0301856)
(0.228544 0.00388659 -0.0514659)
(0.272332 0.00213082 -0.0886182)
(0.302686 -0.00127744 -0.0884347)
(0.281869 -0.00382883 -0.0469322)
(0.239551 -0.00281062 -0.0171269)
(0.198566 0.00013939 -0.0101173)
(0.177634 0.000977157 -0.00708812)
(0.157187 0.000317005 -0.00388132)
(0.14147 -0.000400397 -0.000905235)
(0.144946 0.000397878 0.00979575)
(0.143898 0.00267393 0.031091)
(0.130769 0.0032486 0.0566206)
(0.137237 0.00273741 0.05464)
(0.161641 0.001766 0.0209455)
(0.197497 0.000549593 -0.0269949)
(0.2468 -0.000144374 -0.0802459)
(0.271405 -8.23787e-05 -0.0810667)
(0.301513 0.00136915 -0.0346849)
(0.361796 0.00213854 -0.00958681)
(0.378751 0.000597029 -0.0154541)
(0.383444 -0.00137295 -0.0295039)
(0.423555 -0.00214916 0.00577136)
(0.350074 -0.00125041 0.0554882)
(0.275972 0.00108157 0.0288156)
(0.271263 0.00103439 -0.0169763)
(0.336531 -0.00210552 -0.00671045)
(0.381487 -0.00337411 0.0287548)
(0.415982 -0.00340388 0.0502176)
(0.398886 -0.00341952 0.0528546)
(0.408826 -0.000847599 -0.0162965)
(0.463624 0.000822165 -0.0624182)
(0.720091 -0.00191376 -0.0430006)
(0.712701 -0.00519047 0.0520494)
(0.72229 -0.00451697 0.000350796)
(0.738 0.00443623 -0.0990585)
(0.669341 -0.00356207 -0.0439087)
(0.65244 -0.0254708 -0.0342372)
(1.08742 -0.0171832 -0.148641)
(0.989063 0.00748193 -0.118427)
(0.527647 0.00917295 -0.0509811)
(0.369422 0.00677991 -0.0620998)
(0.433758 0.00371503 -0.12043)
(0.508448 -0.0026666 -0.124868)
(0.487735 -0.00937583 -0.0603886)
(0.421167 -0.00646881 -0.0302458)
(0.358273 0.000807434 -0.0199267)
(0.320571 0.0031947 -0.0113259)
(0.289935 0.00250979 -0.00364249)
(0.244124 8.72471e-05 0.00218513)
(0.22447 9.89781e-05 0.0099454)
(0.229132 0.00465726 0.0328854)
(0.220923 0.00763336 0.065752)
(0.222502 0.00796376 0.0617032)
(0.253488 0.00595816 0.0171465)
(0.303859 0.00273512 -0.0343472)
(0.381365 -9.06184e-05 -0.103155)
(0.404439 0.000458142 -0.132922)
(0.421672 0.00222574 -0.0660317)
(0.524711 0.00233447 0.0085634)
(0.591346 0.000873863 0.0200747)
(0.545608 -0.00570738 -0.0223089)
(0.628374 -0.00893961 -0.038638)
(0.656685 -0.00199517 0.0258926)
(0.507667 0.00315767 0.0493071)
(0.426122 0.000637899 0.00572322)
(0.516146 -0.00620846 -0.00516258)
(0.587132 -0.00768756 0.0212746)
(0.621987 -0.00758626 0.0466371)
(0.611402 -0.0102732 0.0829169)
(0.598632 -0.00736445 0.0433055)
(0.66532 -0.00172538 -0.0680906)
(0.840858 -0.00514729 -0.072622)
(0.869163 -0.00522644 0.0413175)
(0.775431 -0.00833338 0.0573049)
(0.824345 -0.00160519 -0.0691595)
(0.887245 0.00456975 -0.0672366)
(0.698754 -0.0256231 -0.00415974)
(0.952511 -0.0397441 -0.0911117)
(1.23225 0.00299451 -0.113465)
(0.864029 0.0227877 -0.0616681)
(0.513924 0.0128433 -0.0568713)
(0.512139 0.00207979 -0.113659)
(0.653381 -0.00410161 -0.138246)
(0.684173 -0.0143343 -0.0576794)
(0.5964 -0.0136017 -0.0270752)
(0.522574 -0.00138917 -0.0381115)
(0.473566 0.0045735 -0.0269668)
(0.439666 0.00561209 -0.0120817)
(0.379095 0.00411935 0.00272534)
(0.311212 0.00172881 0.00979494)
(0.295405 0.00574444 0.0264387)
(0.295768 0.0110423 0.0645385)
(0.29637 0.0135228 0.0682928)
(0.333645 0.0113893 0.0181423)
(0.396397 0.00730592 -0.036526)
(0.496012 0.00327507 -0.0990847)
(0.512528 0.00398987 -0.155896)
(0.496216 0.00590341 -0.0994381)
(0.586032 0.00203304 0.0184419)
(0.716281 0.00232941 0.0685395)
(0.669495 -0.00451439 0.0353103)
(0.641131 -0.0171608 -0.0141341)
(0.769075 -0.00953326 -0.0146702)
(0.759391 0.00453347 0.0209168)
(0.609092 0.000386472 0.0282559)
(0.637948 -0.0130561 0.0249739)
(0.745944 -0.0128652 0.0331501)
(0.765105 -0.00885265 0.0361291)
(0.745435 -0.0164204 0.0717861)
(0.75089 -0.0170876 0.0876019)
(0.779841 -0.00923942 -0.0256343)
(0.909575 -0.0105857 -0.0774807)
(0.976889 -0.00493314 0.0107334)
(0.839403 -0.00718615 0.064075)
(0.81553 -0.0113344 -0.0361685)
(0.930556 0.00668678 -0.0624104)
(0.801584 -0.0202789 0.0203334)
(0.822924 -0.0572947 -0.0299915)
(1.21893 -0.00765144 -0.0820185)
(1.01872 0.0364471 -0.0543033)
(0.63545 0.0211005 -0.0465839)
(0.562014 -0.00492122 -0.0682401)
(0.718217 -0.0128354 -0.109765)
(0.856842 -0.017355 -0.0519889)
(0.767258 -0.0173883 -0.0101733)
(0.655625 -0.00572563 -0.0520401)
(0.616028 0.00227927 -0.0605334)
(0.594455 0.00684269 -0.0371365)
(0.529679 0.0107271 -0.00656922)
(0.427089 0.00827672 0.0115653)
(0.365013 0.0080107 0.0229086)
(0.35923 0.0129845 0.0594692)
(0.359512 0.0178529 0.070449)
(0.401485 0.0156411 0.0211869)
(0.468171 0.0115971 -0.0340686)
(0.572034 0.00883024 -0.0892653)
(0.590178 0.0127173 -0.149447)
(0.560986 0.0157444 -0.103824)
(0.627378 0.00387379 0.0245457)
(0.744515 0.000929802 0.103049)
(0.754996 -0.000409286 0.084151)
(0.700084 -0.015928 0.0374723)
(0.729704 -0.016469 0.00796111)
(0.837717 0.000282714 -0.00538938)
(0.79346 0.000622844 0.00222122)
(0.728503 -0.0225432 0.0226863)
(0.818064 -0.0239778 0.0438268)
(0.87466 -0.00978763 0.0386544)
(0.825063 -0.0187733 0.0629492)
(0.843894 -0.026299 0.0939374)
(0.880531 -0.016947 0.00482128)
(0.960967 -0.0168853 -0.0658151)
(1.06262 -0.00545503 -0.0246545)
(0.938477 -0.00683685 0.0396103)
(0.846643 -0.0161958 -0.0100548)
(0.924541 0.00502482 -0.045184)
(0.900046 -0.0158148 0.0425451)
(0.832053 -0.0712308 0.0266639)
(1.12551 -0.0247332 -0.050609)
(1.06285 0.0446145 -0.0478919)
(0.821486 0.0330019 -0.0204225)
(0.75152 -0.00870923 0.00947017)
(0.80202 -0.027359 -0.0389725)
(0.996103 -0.0253066 -0.0343422)
(0.983445 -0.0140401 0.013706)
(0.793358 -0.0036946 -0.0335102)
(0.703248 -0.00391334 -0.0880318)
(0.723966 0.00248719 -0.0832685)
(0.681191 0.0159281 -0.0360256)
(0.560185 0.0190995 0.00624064)
(0.451157 0.0143673 0.0263022)
(0.42108 0.0154777 0.0597401)
(0.421173 0.0210759 0.0713551)
(0.474189 0.0181258 0.0196554)
(0.534273 0.0152245 -0.0326999)
(0.614507 0.0134317 -0.0816668)
(0.626773 0.0229984 -0.134482)
(0.616994 0.0325104 -0.0793053)
(0.693677 0.0146683 0.0449568)
(0.762294 0.00177782 0.121986)
(0.777802 -0.0018992 0.102352)
(0.775843 -0.013596 0.0616457)
(0.745671 -0.0149826 0.0377727)
(0.814415 -0.00150923 0.0109143)
(0.872788 0.00559882 -0.0141661)
(0.79441 -0.0234286 -0.0180005)
(0.79162 -0.0395891 0.0165135)
(0.891866 -0.0181047 0.019353)
(0.883415 -0.0197356 0.0543265)
(0.873766 -0.0331906 0.0947533)
(0.926389 -0.0263253 0.0227403)
(0.9967 -0.0257091 -0.0415063)
(1.09995 -0.00956551 -0.0398484)
(1.03695 -0.00987095 0.00592015)
(0.956517 -0.0186862 0.00355499)
(0.949854 0.00158929 -0.0157466)
(0.9415 -0.0153342 0.059658)
(0.894837 -0.0745913 0.0512744)
(1.01466 -0.0350762 -0.0301281)
(0.966377 0.0468258 -0.0485498)
(0.908778 0.0320815 -0.00700113)
(0.962749 -0.0122137 0.0596528)
(0.937906 -0.0324712 0.0225824)
(0.987069 -0.0399015 -0.0145211)
(1.08039 -0.0181191 0.0315639)
(0.991337 0.00645054 0.00245371)
(0.816123 -0.00555561 -0.0735131)
(0.775952 -0.00932687 -0.110911)
(0.806766 0.0176949 -0.0837507)
(0.719413 0.0299281 -0.0163268)
(0.586563 0.019631 0.0314325)
(0.490809 0.0151404 0.0724668)
(0.480579 0.0216445 0.077462)
(0.556726 0.0185463 0.0179023)
(0.607566 0.0186903 -0.0384819)
(0.644469 0.0188164 -0.0808985)
(0.639201 0.0344453 -0.116205)
(0.650479 0.0493586 -0.0590606)
(0.742898 0.0290877 0.0509526)
(0.795184 0.00912465 0.12488)
(0.781795 -0.00377619 0.0939839)
(0.796234 -0.0164901 0.0471869)
(0.782214 -0.0134801 0.0380934)
(0.805504 -0.00221578 0.0240049)
(0.879175 0.0149866 0.000389687)
(0.861258 -0.00564665 -0.0229411)
(0.78404 -0.0408037 -0.0102475)
(0.834991 -0.0308853 -0.0113096)
(0.90853 -0.0249918 0.0248423)
(0.892748 -0.0354703 0.0818268)
(0.907992 -0.0353517 0.0336835)
(1.02882 -0.036932 -0.0191374)
(1.09916 -0.0180314 -0.0389554)
(1.05472 -0.0161919 -0.013207)
(1.05463 -0.0210346 -0.00267312)
(1.00546 -0.000648928 0.010984)
(0.969746 -0.0158859 0.0739856)
(0.929552 -0.0704404 0.0566803)
(0.884531 -0.0320301 -0.0117259)
(0.879316 0.0460842 -0.0449753)
(0.972831 0.0179986 -0.0313291)
(0.999107 -0.026717 0.0364112)
(0.980404 -0.0317152 0.0225822)
(0.933964 -0.0428954 -0.0178039)
(0.926768 -0.0314897 0.0263708)
(1.00988 0.00975273 0.0148992)
(0.985302 0.00426535 -0.058012)
(0.829013 -0.0189397 -0.102707)
(0.794565 0.00513847 -0.10627)
(0.870948 0.0377659 -0.0802695)
(0.864407 0.0334901 -0.0136814)
(0.68802 0.0175557 0.073271)
(0.576155 0.0175023 0.0954757)
(0.640833 0.0150182 0.0315125)
(0.687154 0.0209065 -0.0415132)
(0.677529 0.0250082 -0.0875472)
(0.651359 0.0477955 -0.106259)
(0.664944 0.0631477 -0.0553388)
(0.75544 0.0361441 0.0321897)
(0.827551 0.0155315 0.0956076)
(0.810189 -0.00159276 0.0657443)
(0.807181 -0.0203062 0.0170189)
(0.804244 -0.0148527 0.0231742)
(0.810436 -0.00366613 0.0224008)
(0.872024 0.0198806 0.00734032)
(0.90039 0.0156439 -0.013444)
(0.829408 -0.0246495 -0.0190529)
(0.805464 -0.0382752 -0.0301893)
(0.906154 -0.0340112 -0.00647676)
(0.912707 -0.0350148 0.0618108)
(0.895839 -0.0403455 0.0398814)
(1.05588 -0.0477125 -0.00866868)
(1.08051 -0.024071 -0.037023)
(0.99357 -0.0174195 -0.0106726)
(1.06285 -0.024843 -0.00920258)
(1.03676 -0.00310702 0.0132009)
(0.963249 -0.0200491 0.0761168)
(0.932113 -0.0629606 0.0604012)
(0.820926 -0.0224994 0.00329457)
(0.836026 0.0332294 -0.0392911)
(1.0352 0.00476746 -0.0531865)
(1.04292 -0.0261745 0.00714244)
(0.984206 -0.0239188 0.0265566)
(0.995066 -0.0328964 -0.00868825)
(0.859156 -0.0359085 0.0215358)
(0.921943 -0.00240229 0.0231471)
(1.09755 0.00773291 -0.0571196)
(0.957069 -0.0106306 -0.0986761)
(0.758346 -0.00685339 -0.0908071)
(0.844867 0.0183122 -0.106086)
(1.06709 0.0338317 -0.119209)
(1.03629 0.0291298 -0.0123235)
(0.817434 0.0210964 0.0972344)
(0.770291 0.0119752 0.0641401)
(0.77342 0.0205419 -0.0284159)
(0.71378 0.032146 -0.0920228)
(0.663914 0.0608345 -0.102472)
(0.674862 0.0695735 -0.045886)
(0.750413 0.0308242 0.0143841)
(0.850903 0.0110562 0.0468058)
(0.862664 -0.000489058 0.0190146)
(0.839301 -0.022127 -0.0177953)
(0.823814 -0.0169438 0.00792004)
(0.821369 -0.00432751 0.0230213)
(0.873068 0.0177504 0.00676146)
(0.898648 0.0310562 -0.0244127)
(0.853322 -0.00256487 -0.034018)
(0.809489 -0.0362314 -0.0393875)
(0.888906 -0.0423265 -0.0251726)
(0.916402 -0.0337047 0.0465014)
(0.907077 -0.0417686 0.047682)
(1.06757 -0.0587499 -0.0110285)
(1.05568 -0.0234729 -0.0339542)
(0.940448 -0.00772143 0.00781067)
(1.02673 -0.0233849 0.00140123)
(1.02943 -0.00192431 0.00545154)
(0.933246 -0.0186431 0.0658311)
(0.902703 -0.0584199 0.0619371)
(0.815995 -0.0135754 0.00533109)
(0.813806 0.0240412 -0.0227673)
(1.02294 -0.00786654 -0.0399584)
(1.08227 -0.0235265 -0.00762934)
(0.977761 -0.0176962 0.0308689)
(1.01443 -0.0265962 0.013456)
(0.932714 -0.0297109 0.024343)
(0.896481 -0.0164433 0.0402753)
(1.09562 -0.00429966 -0.0410487)
(1.06089 0.00288391 -0.0973699)
(0.823737 -0.00590206 -0.0725684)
(0.819134 -0.0131031 -0.0894381)
(1.04098 0.00553763 -0.154058)
(1.17778 0.0233773 -0.10686)
(1.03977 0.0245916 0.0603382)
(0.916804 0.0149118 0.0886529)
(0.856649 0.0250444 -0.00646029)
(0.741435 0.0421693 -0.0803315)
(0.680878 0.0698403 -0.0883795)
(0.705264 0.0749659 -0.0600977)
(0.739431 0.0273657 -0.0447599)
(0.835375 -0.000707254 -0.0158441)
(0.886235 -0.0072755 -0.0221437)
(0.855689 -0.0299794 -0.0427144)
(0.829239 -0.0246186 -0.00531841)
(0.828224 -0.00489508 0.0285156)
(0.870396 0.0111628 0.00902547)
(0.889926 0.035229 -0.038442)
(0.854041 0.0155838 -0.0558426)
(0.817412 -0.0303767 -0.0466151)
(0.868103 -0.0477643 -0.0344083)
(0.91369 -0.0307907 0.0376236)
(0.935933 -0.0416598 0.0505074)
(1.05395 -0.0681116 -0.00857246)
(1.04176 -0.0211219 -0.0376443)
(0.945581 0.0018613 0.0072445)
(1.01447 -0.0168131 0.0140093)
(1.02228 0.00541674 -0.00249822)
(0.935648 -0.011258 0.0508411)
(0.880148 -0.0495668 0.065859)
(0.801449 -0.00713493 0.00838071)
(0.797045 0.0149684 -0.00800901)
(0.989507 -0.023431 -0.0221271)
(1.09692 -0.0221516 -0.0209239)
(1.00028 -0.00731875 0.0213213)
(1.00367 -0.0213167 0.0343154)
(1.00324 -0.0240684 0.0254539)
(0.952612 -0.0171719 0.0377977)
(1.04562 -0.0133331 -0.016525)
(1.06606 0.0102295 -0.085663)
(0.928218 0.00580038 -0.0755968)
(0.856807 -0.0282611 -0.0677809)
(0.983279 -0.0203129 -0.141968)
(1.15155 0.00595242 -0.138523)
(1.11349 0.0141635 0.0229613)
(0.984823 0.015391 0.0929655)
(0.901459 0.0339079 0.0173652)
(0.770752 0.0527392 -0.0585585)
(0.708676 0.0731207 -0.0821995)
(0.73977 0.0818915 -0.0984589)
(0.754444 0.0367634 -0.114901)
(0.81402 -0.0075102 -0.0679936)
(0.883222 -0.0190621 -0.0250985)
(0.854582 -0.0442557 -0.0178305)
(0.820178 -0.0394093 0.00160513)
(0.826789 -0.0114415 0.0343549)
(0.857362 -0.000159688 0.0136853)
(0.876105 0.0289627 -0.0498521)
(0.851726 0.0283884 -0.0755111)
(0.824801 -0.0261687 -0.0522062)
(0.860275 -0.0542713 -0.0403768)
(0.927684 -0.0286966 0.0221474)
(0.969206 -0.0401632 0.0490917)
(1.03785 -0.0723494 0.00246951)
(1.0239 -0.0236492 -0.0401275)
(0.970942 0.00489646 -0.0112535)
(1.02083 -0.0120789 0.00529361)
(1.03337 0.0109243 -0.019988)
(0.960868 -0.00372462 0.0352456)
(0.870901 -0.0384866 0.0779267)
(0.781834 -0.000531018 0.0195945)
(0.803929 -0.00287426 0.0013621)
(0.979471 -0.051549 4.3503e-07)
(1.10108 -0.0336517 -0.0223328)
(1.02755 -0.00489741 0.00936153)
(1.00264 -0.0203531 0.0464327)
(1.04481 -0.0274388 0.0211664)
(1.00851 -0.0164722 0.0212623)
(1.01122 -0.0100561 0.00692808)
(1.03888 0.0124924 -0.064271)
(1.00219 0.00693533 -0.0922828)
(0.936473 -0.0352712 -0.0703358)
(0.962237 -0.0395771 -0.10061)
(1.10008 -0.0108828 -0.114045)
(1.09867 0.00206033 0.00537747)
(0.974925 0.01162 0.0874996)
(0.896399 0.038695 0.0390975)
(0.814374 0.0622125 -0.0357903)
(0.761557 0.073595 -0.0848345)
(0.772528 0.0806867 -0.127749)
(0.79127 0.0427272 -0.156559)
(0.823997 -0.00937756 -0.109842)
(0.883935 -0.0276749 -0.0380685)
(0.878292 -0.0507896 -0.00319946)
(0.829841 -0.0497509 0.0114758)
(0.827266 -0.0191254 0.0282245)
(0.854536 -0.0122829 0.0115029)
(0.858896 0.0184085 -0.0562145)
(0.847505 0.0380147 -0.090274)
(0.851839 -0.0177974 -0.0588325)
(0.870865 -0.061801 -0.0414325)
(0.943643 -0.0312625 0.000942366)
(1.00415 -0.0369177 0.0398045)
(1.03531 -0.0715577 0.0087666)
(1.00385 -0.0279454 -0.0328876)
(0.987675 0.00451596 -0.0181246)
(1.02514 -0.00949677 -0.00047075)
(1.03468 0.0137588 -0.0313727)
(0.973447 0.00189082 0.0241257)
(0.860285 -0.0286415 0.0909944)
(0.785204 0.00398268 0.0403988)
(0.841318 -0.0194332 0.0173648)
(0.984923 -0.0792343 0.0304878)
(1.09611 -0.0511496 -0.00298246)
(1.04191 -0.00557914 0.00447812)
(1.00964 -0.0142878 0.0453303)
(1.06665 -0.0341346 0.0176335)
(1.03089 -0.024073 0.0129222)
(0.985343 -0.00332417 0.0280226)
(1.03514 0.0136064 -0.0441926)
(1.05569 -0.00215535 -0.10685)
(0.983357 -0.0398784 -0.0793132)
(0.950163 -0.0440193 -0.0636125)
(1.06745 -0.0195783 -0.0839932)
(1.11382 -0.00113939 -0.0244595)
(0.983088 0.0121879 0.0643982)
(0.877764 0.040396 0.0581983)
(0.845219 0.0647678 -0.0136093)
(0.817773 0.0643508 -0.090504)
(0.811484 0.0651394 -0.148275)
(0.83603 0.0403803 -0.173483)
(0.851421 -0.00861868 -0.137477)
(0.885515 -0.0329905 -0.0660924)
(0.901211 -0.0496537 -0.0175929)
(0.851889 -0.0484059 0.0109186)
(0.82709 -0.0228553 0.0180015)
(0.857491 -0.0175811 -0.00466625)
(0.856743 0.0103394 -0.0597125)
(0.852504 0.0421778 -0.0928088)
(0.890982 -0.00484238 -0.056238)
(0.89612 -0.0598057 -0.0305093)
(0.950026 -0.0356672 -0.00856439)
(1.0291 -0.034956 0.0237698)
(1.03249 -0.0668342 0.0127439)
(0.992441 -0.0348334 -0.0177997)
(1.0031 -0.00267749 -0.0150535)
(1.02664 -0.00775744 -0.000847779)
(1.02262 0.0184563 -0.0304725)
(0.967107 0.00772743 0.0237122)
(0.851324 -0.0227038 0.107023)
(0.810837 0.00632921 0.0709942)
(0.892685 -0.018947 0.0429033)
(0.987601 -0.0893474 0.0655876)
(1.07291 -0.0620209 0.0295694)
(1.03985 -0.000425454 0.0143869)
(1.03303 -0.000947039 0.0445628)
(1.09322 -0.0284005 0.0216747)
(1.0233 -0.0297633 0.0121661)
(0.951752 -0.00348046 0.0379308)
(1.04104 0.010819 -0.0275151)
(1.08206 -0.00891528 -0.107033)
(1.00284 -0.033193 -0.0855601)
(0.95151 -0.0348951 -0.0416077)
(1.03696 -0.0283333 -0.0574771)
(1.13685 -0.0143326 -0.0385912)
(1.0465 0.0100556 0.0450685)
(0.894214 0.0415046 0.0761517)
(0.85006 0.0645028 0.0161459)
(0.861407 0.0546493 -0.0774631)
(0.862611 0.0423459 -0.141458)
(0.879664 0.0291098 -0.161536)
(0.882581 -0.0084594 -0.141782)
(0.888049 -0.0365385 -0.0809287)
(0.900647 -0.0475248 -0.023892)
(0.863616 -0.0423073 0.00983853)
(0.827849 -0.0210132 0.0104909)
(0.856064 -0.01716 -0.0180719)
(0.867855 0.00420574 -0.0656528)
(0.869781 0.0387699 -0.0906324)
(0.919524 0.0072517 -0.0438721)
(0.924884 -0.0476135 -0.00779594)
(0.956518 -0.0365094 -0.00328306)
(1.03905 -0.032866 0.0116803)
(1.03241 -0.0612669 0.017477)
(0.991578 -0.0465277 0.000580967)
(1.01548 -0.0157261 -0.00883149)
(1.02697 -0.00729463 -0.00445349)
(1.00925 0.0191327 -0.0267316)
(0.965992 0.0100089 0.0294249)
(0.865487 -0.0209997 0.124025)
(0.838611 0.00288394 0.101971)
(0.942859 -0.0112493 0.0550719)
(1.00444 -0.0799626 0.083921)
(1.04567 -0.0663862 0.0593539)
(1.03044 0.00537069 0.0232865)
(1.04706 0.0129572 0.0422114)
(1.10974 -0.0176929 0.0325708)
(1.01778 -0.0243882 0.0128332)
(0.925051 -0.00846985 0.023128)
(1.02559 -0.0027254 -0.0192058)
(1.0769 -0.0169635 -0.0859722)
(0.998808 -0.0236104 -0.0768605)
(0.971735 -0.0213205 -0.0346725)
(1.03986 -0.0317675 -0.0471689)
(1.1034 -0.0265245 -0.0385736)
(1.0503 0.00780128 0.0404978)
(0.909676 0.0448875 0.0895794)
(0.838265 0.0650423 0.0444896)
(0.870253 0.0492358 -0.0398573)
(0.913446 0.0262105 -0.098842)
(0.932511 0.0208753 -0.124029)
(0.929883 -0.00260655 -0.126588)
(0.916419 -0.0342797 -0.0893366)
(0.909173 -0.0477753 -0.029624)
(0.869886 -0.0387897 0.0118157)
(0.826312 -0.0134842 0.0117117)
(0.849791 -0.00850993 -0.0172854)
(0.878041 0.00124227 -0.0641058)
(0.890258 0.0291745 -0.0895067)
(0.936247 0.00952663 -0.0439381)
(0.941018 -0.0337651 0.00753837)
(0.963626 -0.0299856 0.0125047)
(1.04254 -0.02881 0.0108946)
(1.03932 -0.060606 0.0196856)
(0.992656 -0.0612789 0.0150074)
(1.01998 -0.028947 -0.00410681)
(1.03391 -0.00242404 -0.0123338)
(1.00765 0.0230563 -0.0213258)
(0.978232 0.0116116 0.0367319)
(0.903321 -0.0171008 0.130654)
(0.871449 -0.00484129 0.123037)
(0.973773 -0.0101008 0.0580351)
(1.02442 -0.0627146 0.0771735)
(1.02592 -0.0640815 0.077132)
(1.03435 -3.3641e-05 0.0230866)
(1.04922 0.0132807 0.0273288)
(1.08243 -0.0134151 0.0369723)
(1.01766 -0.0167893 0.0130183)
(0.925464 -0.0144713 -0.00224894)
(0.986652 -0.0265427 -0.0258713)
(1.04115 -0.0296573 -0.0632609)
(0.972903 -0.0166612 -0.0560194)
(0.951396 -0.0110367 -0.0235088)
(1.0437 -0.0250028 -0.0426906)
(1.08571 -0.0238995 -0.0495281)
(1.00804 0.0134366 0.0186111)
(0.881703 0.0535547 0.0808023)
(0.811782 0.0687825 0.0674016)
(0.852517 0.0469033 0.00395301)
(0.922796 0.0144377 -0.0538137)
(0.963404 0.0136597 -0.0844575)
(0.966911 0.00780339 -0.098524)
(0.942827 -0.0216575 -0.0901987)
(0.928873 -0.0451025 -0.0480706)
(0.887153 -0.0395503 0.0025749)
(0.830671 -0.00976604 0.0136825)
(0.845203 -0.000655102 -0.00452189)
(0.888352 1.20238e-05 -0.0409811)
(0.91613 0.0177614 -0.0706489)
(0.964176 0.00230349 -0.0444036)
(0.962059 -0.0314422 0.00450705)
(0.967098 -0.0266115 0.0209772)
(1.04143 -0.0267356 0.014551)
(1.0419 -0.0594995 0.0232189)
(1.00349 -0.0640516 0.0232137)
(1.01023 -0.0344672 -0.000375795)
(1.02758 0.00248884 -0.0171336)
(1.02033 0.0321652 -0.0176424)
(1.00529 0.0202858 0.0261825)
(0.947289 -0.0108074 0.103832)
(0.898937 -0.0101897 0.12337)
(0.959891 -0.0110662 0.0670946)
(1.02441 -0.0465189 0.0632522)
(1.04173 -0.0596055 0.0815945)
(1.05031 -0.0157268 0.0341151)
(1.03802 0.00161864 0.0217923)
(1.03422 -0.0153739 0.0384058)
(1.00393 -0.0128928 0.0215394)
(0.941836 -0.0144992 -0.00978898)
(0.958122 -0.0397637 -0.0269059)
(0.996792 -0.0379037 -0.0400294)
(0.944412 -0.00857625 -0.0395576)
(0.917707 -0.00364811 -0.0144907)
(1.01891 -0.0246165 -0.0252276)
(1.07874 -0.0170584 -0.0508004)
(0.989346 0.0275209 -0.0125225)
(0.870691 0.0625116 0.055151)
(0.817025 0.0683962 0.0781236)
(0.858747 0.0440916 0.0332579)
(0.921735 0.00840424 -0.0272682)
(0.959341 0.00873847 -0.0593774)
(0.962859 0.0186919 -0.070885)
(0.940573 -0.00184069 -0.0751942)
(0.940031 -0.0336024 -0.0612666)
(0.915382 -0.0414886 -0.0225676)
(0.853525 -0.0177629 0.00399312)
(0.853735 -0.00290231 0.0102075)
(0.898112 0.00138913 -0.00247543)
(0.937005 0.0132452 -0.0257311)
(0.992646 -0.0019274 -0.0201223)
(0.992504 -0.0299271 0.00410265)
(0.966183 -0.0282354 0.020921)
(1.01727 -0.0306034 0.0206543)
(1.04144 -0.0568756 0.0286904)
(1.04214 -0.0584105 0.0183916)
(1.02462 -0.0335243 -0.00125201)
(1.01832 -0.000532991 -0.0170971)
(1.02347 0.033871 -0.0186255)
(1.02552 0.0346534 0.00887069)
(0.978138 0.0054018 0.0671411)
(0.917305 -0.00806007 0.107668)
(0.932349 -0.0152021 0.0754247)
(0.999626 -0.0413635 0.0486531)
(1.0609 -0.0551575 0.0691301)
(1.07137 -0.0204141 0.0512166)
(1.03064 -0.00147802 0.0270282)
(1.00066 -0.0152819 0.0321115)
(0.97838 -0.0109976 0.0336058)
(0.953187 -0.00956606 0.00654388)
(0.960269 -0.0383567 -0.0200419)
(0.973217 -0.0370085 -0.0259329)
(0.953767 0.000320147 -0.0275998)
(0.958875 0.00557012 -0.0125034)
(1.02531 -0.0233902 -0.00994985)
(1.05306 -0.015018 -0.03336)
(0.989279 0.0341174 -0.0162512)
(0.916385 0.0594742 0.0372489)
(0.879148 0.0586883 0.062967)
(0.897578 0.0473079 0.0298452)
(0.929543 0.0224186 -0.0213744)
(0.945682 0.0164315 -0.0447067)
(0.949611 0.0254317 -0.046837)
(0.944113 0.0123632 -0.0566876)
(0.965884 -0.019288 -0.061049)
(0.970148 -0.0368676 -0.0384094)
(0.915761 -0.0260331 -0.0150635)
(0.892982 -0.0148441 0.000902125)
(0.917845 -0.00649966 0.0125744)
(0.943685 0.00759631 0.00848737)
(0.990862 -0.00246165 0.00571526)
(1.00235 -0.0232261 0.00576502)
(0.961829 -0.0233996 0.0192002)
(0.983598 -0.0314421 0.0321479)
(1.04993 -0.0521078 0.020766)
(1.06464 -0.0530374 0.00554723)
(1.0338 -0.025774 -0.0029539)
(1.0008 0.00314691 -0.0128574)
(1.00228 0.0308297 -0.0189084)
(1.01147 0.0375905 -0.00258794)
(0.982565 0.0168938 0.0439015)
(0.940635 -0.000543193 0.0912274)
(0.937467 -0.0112457 0.0774674)
(0.973697 -0.0348028 0.0421596)
(1.04167 -0.0535357 0.0598264)
(1.08614 -0.0259649 0.0685384)
(1.04204 -0.00072017 0.0418747)
(0.980377 -0.00838728 0.0274831)
(0.94986 -0.0096136 0.0385725)
(0.956979 -0.0121024 0.0314895)
(0.987455 -0.0383432 -0.00109595)
(0.979082 -0.0432864 -0.0242121)
(0.964431 -0.0138465 -0.0295534)
(1.00883 -0.00506087 -0.00901042)
(1.06947 -0.0241429 0.000429145)
(1.06333 -0.0175802 -0.0242237)
(1.01031 0.0229126 -0.0156974)
(0.967262 0.0503377 0.0319353)
(0.925799 0.0564347 0.0586287)
(0.906426 0.0540034 0.0337294)
(0.914708 0.0436292 -0.0131052)
(0.931284 0.037909 -0.040427)
(0.940108 0.0344852 -0.044227)
(0.94339 0.0168724 -0.0555135)
(0.979541 -0.0125293 -0.0650945)
(1.0162 -0.0320581 -0.0493069)
(0.991327 -0.0301448 -0.0353092)
(0.955327 -0.0235346 -0.0223598)
(0.956278 -0.0138447 -0.00283046)
(0.966284 -2.62631e-05 0.00299607)
(0.985888 -0.00308607 0.00269174)
(0.990589 -0.0133667 -0.00369507)
(0.973294 -0.0114513 0.00622747)
(0.996854 -0.023578 0.0274683)
(1.06067 -0.0436496 0.0115082)
(1.05685 -0.0480072 -0.010986)
(1.01211 -0.0191404 -0.00733345)
(0.968835 0.00807547 0.000701046)
(0.963843 0.0289221 -0.00663897)
(0.973333 0.0361294 -0.0019747)
(0.964066 0.0227224 0.0293595)
(0.941761 0.0084806 0.0723076)
(0.944979 -0.00564 0.0795764)
(0.984331 -0.0268372 0.0508243)
(1.01805 -0.0440229 0.0596385)
(1.04007 -0.0287641 0.0803865)
(1.02839 -0.00492594 0.0650989)
(1.00652 -0.00223503 0.0453908)
(0.997873 -0.00554466 0.0436212)
(1.00464 -0.0161124 0.0383435)
(1.02696 -0.0360292 0.012898)
(1.00872 -0.0415954 -0.0239461)
(0.957459 -0.0260765 -0.0388853)
(0.961219 -0.019299 0.00379039)
(1.00693 -0.0270092 0.0390881)
(1.01998 -0.0128415 0.0109725)
(0.995213 0.0225215 -0.0043455)
(0.959925 0.0468938 0.0288585)
(0.911934 0.0561306 0.0547561)
(0.878339 0.0571489 0.0396748)
(0.875467 0.0546518 0.00686373)
(0.903683 0.054565 -0.0241021)
(0.933608 0.0482289 -0.047754)
(0.943604 0.0270262 -0.0727398)
(0.971609 -0.000987846 -0.0844994)
(1.02271 -0.0239744 -0.0668324)
(1.04619 -0.0338345 -0.0548128)
(1.02468 -0.029812 -0.0396335)
(1.00048 -0.0159987 -0.0174182)
(0.993036 -0.00293621 -0.0158378)
(0.997922 -0.00537416 -0.014333)
(0.991663 -0.0137344 -0.0124043)
(0.983635 -0.0112579 -0.00196319)
(1.01744 -0.0177931 0.0205315)
(1.06368 -0.0319528 -0.000285657)
(1.05491 -0.0335307 -0.0276972)
(0.991655 -0.00420712 -0.0231189)
(0.937149 0.0108308 0.0059372)
(0.930935 0.0119968 0.0115692)
(0.942605 0.0185791 0.00708896)
(0.9543 0.0216113 0.0191694)
(0.959115 0.0199874 0.051263)
(0.955037 0.00615102 0.081021)
(0.975681 -0.0153338 0.0704353)
(0.995984 -0.0265526 0.0595263)
(1.01313 -0.0245472 0.0692628)
(1.04166 -0.0218688 0.0671054)
(1.0716 -0.0198079 0.0614671)
(1.10287 -0.0177111 0.0561367)
(1.11122 -0.0251924 0.0377995)
(1.08197 -0.0262318 0.0122235)
(1.02828 -0.0101262 -0.0134839)
(0.962861 -0.00128352 -0.0236282)
(0.927079 -0.0155471 0.0186744)
(0.926413 -0.0322701 0.0711052)
(0.933041 -0.0168796 0.0634444)
(0.944724 0.0188752 0.0286946)
(0.936989 0.0406121 0.0201433)
(0.901543 0.046403 0.024184)
(0.877808 0.0444733 0.0168171)
(0.871912 0.0461574 0.0119893)
(0.901645 0.0534352 0.0060491)
(0.944182 0.052614 -0.0209351)
(0.954473 0.035544 -0.0660583)
(0.967832 0.0115323 -0.094297)
(1.01372 -0.0113808 -0.0789198)
(1.06145 -0.0328421 -0.0612255)
(1.06814 -0.0381564 -0.0498655)
(1.04277 -0.0221052 -0.0356549)
(1.02444 -0.00691967 -0.0387088)
(1.02276 -0.0072248 -0.0344467)
(1.01301 -0.013291 -0.018795)
(0.998732 -0.0100032 -0.00442142)
(1.02249 -0.0121851 0.0105948)
(1.05786 -0.0225913 -0.00491952)
(1.05817 -0.020653 -0.0285129)
(1.01484 0.00359652 -0.0321477)
(0.976042 0.010394 0.000977114)
(0.964132 -0.000566637 0.0233758)
(0.957178 0.00402566 0.0197201)
(0.966297 0.0157764 0.0137665)
(0.983899 0.0265714 0.0230213)
(0.979544 0.0235014 0.0604849)
(0.983505 -0.00253912 0.0774176)
(1.00118 -0.0261325 0.0615659)
(1.02293 -0.0386165 0.0561224)
(1.06775 -0.0509367 0.0595395)
(1.12029 -0.0481824 0.0624822)
(1.15372 -0.0267865 0.0603636)
(1.1448 -0.0144383 0.0337868)
(1.08527 -0.010002 -0.00489839)
(1.02114 -0.000989407 -0.022983)
(0.984205 0.000852571 -0.0177039)
(0.951078 -0.0141234 0.0157427)
(0.918616 -0.0299276 0.0597585)
(0.903422 -0.0187685 0.0722456)
(0.919283 0.00782393 0.0521357)
(0.935267 0.0178791 0.0303744)
(0.926051 0.0181248 0.0169484)
(0.915846 0.0218593 0.00167972)
(0.912413 0.0298851 -0.00570852)
(0.93257 0.0385796 0.000604157)
(0.966187 0.0409993 -0.00646582)
(0.978002 0.0291841 -0.0398862)
(0.982298 0.00992239 -0.0754378)
(1.00604 -0.00766915 -0.0735296)
(1.04463 -0.0291278 -0.0537639)
(1.07261 -0.0456674 -0.0481311)
(1.08314 -0.0376002 -0.0467777)
(1.08427 -0.0180551 -0.0498534)
(1.07801 -0.0122732 -0.0428489)
(1.06075 -0.0190532 -0.0221113)
(1.03394 -0.0180397 -0.00597054)
(1.03239 -0.0145338 0.00261843)
(1.03017 -0.000160667 -0.018126)
(1.03641 0.00708734 -0.0216199)
(1.0216 0.0196346 -0.0315786)
(0.992722 0.0204492 -0.016925)
(0.978053 0.00296961 0.0116132)
(0.967285 -0.00961921 0.0230265)
(0.972047 -0.00881228 0.020631)
(0.992239 0.0106156 0.0102962)
(0.9966 0.0279894 0.0265647)
(1.0164 0.0140472 0.057892)
(1.05334 -0.0112389 0.0593318)
(1.06673 -0.028525 0.0483176)
(1.06402 -0.048853 0.0488972)
(1.0641 -0.0578144 0.0571965)
(1.07794 -0.0409396 0.0634112)
(1.09848 -0.0145146 0.0440758)
(1.087 0.0177774 -0.00325005)
(1.04516 0.0393113 -0.0286446)
(1.01058 0.0318006 -0.0150769)
(0.966857 0.00933647 0.0188124)
(0.920936 -0.0128069 0.0519106)
(0.900498 -0.0198173 0.0677221)
(0.917784 -0.0119865 0.0670793)
(0.954277 -0.0108387 0.0544849)
(0.974035 -0.01384 0.0404814)
(0.982668 -0.00790197 0.021092)
(0.987327 0.00201364 -0.000629968)
(0.991523 0.00876743 -0.00294609)
(0.990865 0.0155743 -0.00229493)
(0.977532 0.0173621 -0.022201)
(0.970966 0.00966238 -0.0547711)