/*--------------------------------*- C++ -*----------------------------------*\
  =========                 |
  \\      /  F ield         | OpenFOAM: The Open Source CFD Toolbox
   \\    /   O peration     | Website:  https://openfoam.org
    \\  /    A nd           | Version:  10
     \\/     M anipulation  |
\*---------------------------------------------------------------------------*/
FoamFile
{
    format      ascii;
    class       volScalarField;
    location    "50";
    object      nut;
}
// * * * * * * * * * * * * * * * * * * * * * * * * * * * * * * * * * * * * * //

dimensions      [0 2 -1 0 0 0 0];

internalField   nonuniform List<scalar> 
25600
(
6.79216e-08
1.7142e-06
2.46008e-06
1.60988e-06
2.63516e-06
1.99357e-06
1.85308e-06
1.05243e-07
6.15907e-08
1.25302e-06
2.86588e-06
2.56515e-07
1.58202e-06
8.48515e-07
5.58242e-06
2.61268e-06
2.15691e-06
1.39616e-06
4.55892e-06
4.33418e-06
4.28463e-06
5.31859e-06
2.25465e-06
4.11841e-06
1.84115e-06
1.84392e-06
3.32804e-06
3.08407e-06
2.18036e-06
5.64244e-07
5.65426e-07
4.73464e-07
2.27763e-06
5.03535e-06
2.2215e-06
2.13792e-06
4.0798e-06
1.04834e-06
1.19556e-06
1.9899e-06
4.43581e-07
2.73731e-06
2.78085e-06
2.26806e-06
3.44829e-06
2.6748e-06
3.98161e-06
1.01474e-05
4.72909e-07
2.69786e-06
3.89727e-06
9.36906e-06
1.65692e-05
2.03742e-06
3.82531e-06
3.24498e-06
7.04294e-06
2.16058e-05
2.45733e-05
1.71555e-05
1.60956e-05
1.72027e-05
1.33272e-05
8.69559e-06
4.40486e-06
3.32842e-06
4.21061e-06
3.04988e-06
3.02567e-06
2.73357e-06
4.76092e-06
3.70096e-06
4.78192e-06
4.49362e-06
5.39949e-07
1.46928e-06
2.51655e-06
5.31449e-07
3.39196e-06
4.50146e-07
7.47483e-07
5.31134e-06
3.38119e-06
1.76549e-05
4.87303e-06
4.66499e-06
1.34953e-05
3.52498e-05
2.36425e-06
5.94113e-06
2.39704e-05
3.07506e-05
2.73152e-05
1.71485e-06
4.97729e-06
4.80603e-06
1.4407e-05
3.73085e-05
2.45011e-05
1.08747e-05
4.506e-06
3.81558e-06
3.61736e-05
4.80381e-05
7.30214e-06
4.6862e-06
6.51825e-06
3.50124e-06
7.50097e-06
6.70288e-06
6.2848e-06
8.44368e-06
1.55911e-05
2.53723e-05
9.80515e-06
3.01661e-06
2.06553e-06
2.37579e-06
3.4328e-06
1.16766e-05
8.50006e-06
7.25316e-06
8.74453e-06
1.0227e-05
6.64074e-06
3.7069e-06
5.07448e-05
4.38457e-05
6.88322e-06
1.59062e-05
4.51429e-05
4.25672e-05
2.66206e-05
6.25819e-06
1.14648e-05
1.39621e-05
1.54515e-05
1.28434e-05
4.98822e-06
5.1714e-06
1.01753e-05
1.93389e-05
4.6151e-05
7.66011e-05
1.64102e-05
7.56651e-06
4.62702e-06
6.82148e-06
9.80026e-06
8.39432e-06
8.02864e-06
7.04061e-06
4.44885e-06
5.03709e-06
4.06544e-06
1.89359e-06
8.19497e-07
1.85316e-06
9.67972e-07
1.40896e-05
8.51647e-06
2.87776e-06
3.16686e-06
9.53844e-06
8.67682e-06
9.00676e-06
5.39694e-05
7.44715e-06
9.80523e-06
2.48788e-05
4.31755e-05
9.6725e-05
1.19763e-05
1.93571e-05
2.2912e-05
5.1458e-05
4.41118e-05
1.73007e-05
1.97885e-05
1.06847e-05
8.20155e-06
2.05016e-05
6.38784e-05
3.14275e-05
9.4851e-06
1.62164e-05
9.8378e-06
8.84849e-06
1.22022e-05
1.26874e-05
9.30028e-06
2.70162e-06
2.18974e-05
5.95344e-05
8.2339e-06
8.80618e-06
1.04558e-05
5.43022e-06
1.62672e-06
8.16881e-06
5.34782e-06
5.00168e-06
3.2261e-06
5.59606e-06
1.10692e-05
4.33247e-06
8.09807e-05
1.58186e-06
7.83225e-06
3.13547e-05
4.36021e-05
0.000158904
0.00016541
2.08174e-05
3.01471e-05
5.01694e-05
5.68925e-05
1.21645e-05
1.3631e-06
1.43542e-07
1.6926e-05
7.01195e-05
3.19562e-05
5.47386e-06
1.61322e-05
1.33619e-05
2.81244e-06
4.71271e-06
1.24737e-05
3.05145e-05
2.78582e-05
2.10468e-05
1.67978e-05
2.77465e-05
0.000106819
3.09572e-05
1.25574e-05
1.75378e-05
5.54644e-05
2.58557e-05
1.15885e-05
8.20883e-07
4.847e-05
1.79019e-05
1.31968e-05
2.37211e-05
4.84291e-05
5.60209e-05
2.01168e-05
3.84264e-05
6.65329e-05
0.000226898
0.000264286
0.00017566
8.04007e-05
0.000110378
9.12179e-05
1.26765e-05
2.2676e-05
6.48956e-06
1.30139e-05
1.20604e-05
4.0088e-06
1.28567e-05
2.80846e-05
3.62144e-05
1.86449e-05
1.82818e-05
1.06538e-05
7.09546e-05
3.75961e-05
1.47668e-05
6.58988e-06
1.15868e-05
1.17515e-05
2.53783e-05
1.94667e-05
8.41401e-06
2.70451e-05
5.00045e-06
4.57919e-05
0.000141041
8.11694e-06
1.65896e-05
2.61367e-05
5.88997e-05
5.26053e-06
0.000155482
0.000142278
3.45511e-05
0.000209251
0.00032786
5.22095e-05
2.23672e-05
2.2983e-05
0.000142693
9.7274e-05
7.14696e-05
0.000120426
7.29964e-06
9.02729e-06
1.80337e-06
7.21864e-05
9.24701e-06
5.62906e-06
8.11666e-06
1.34253e-05
1.37156e-05
3.35492e-05
7.34409e-05
1.06313e-05
1.76585e-05
1.77725e-05
9.02811e-06
6.56179e-06
5.87691e-06
3.86009e-05
8.50291e-05
4.20207e-05
2.32978e-06
4.26136e-05
9.02443e-06
1.03793e-05
1.62285e-05
4.39089e-06
1.07194e-05
8.11492e-06
0.000316536
0.000214851
2.40923e-05
0.000121222
3.61242e-05
4.36367e-05
2.40128e-05
9.29157e-06
9.00899e-05
0.000145433
3.00336e-05
0.000101679
5.29034e-06
5.15829e-06
8.03787e-05
3.68609e-06
1.32687e-05
9.13928e-05
0.000126931
6.74643e-05
2.01969e-05
2.10709e-05
2.51107e-05
2.12991e-05
1.45604e-05
1.56935e-05
1.3327e-06
4.51019e-06
4.43221e-06
2.57851e-06
1.53963e-05
6.04572e-06
2.83071e-05
2.03092e-05
1.07801e-05
3.19217e-06
8.07976e-08
4.20595e-05
4.41775e-05
6.48589e-05
3.14499e-06
2.41572e-05
8.44261e-06
9.3413e-06
2.86223e-05
2.40688e-05
1.50411e-05
8.13378e-05
0.000162906
2.75942e-05
8.83174e-07
9.92013e-05
2.81839e-05
9.75077e-06
4.9972e-05
3.97933e-05
3.56057e-05
0.000105061
8.16486e-05
2.41145e-05
2.14949e-05
1.71812e-05
1.38537e-05
1.52582e-05
1.35367e-05
3.54868e-05
2.78855e-05
3.04666e-05
2.08901e-05
9.9893e-06
4.62526e-06
9.15682e-06
1.39714e-05
2.88391e-06
2.34279e-05
2.62622e-05
6.93322e-06
0.00015086
1.16537e-05
1.99351e-05
2.64128e-05
3.32898e-05
4.89572e-05
4.05156e-05
2.68884e-05
3.1674e-05
2.81444e-05
8.46083e-06
1.19127e-05
1.37655e-05
3.99255e-06
2.51617e-05
2.00152e-05
1.2507e-05
0.0002402
7.23785e-06
1.82059e-05
5.29291e-05
7.57039e-05
8.51925e-06
2.28283e-05
6.09566e-05
2.67764e-05
1.24098e-05
1.77342e-05
3.24327e-05
2.00422e-05
3.76179e-06
3.76876e-05
6.06807e-05
4.82432e-05
1.76645e-05
5.46309e-06
1.76997e-05
1.69394e-05
9.30761e-06
4.84479e-06
3.5822e-05
2.45879e-05
1.8098e-05
3.64561e-05
4.81574e-05
1.09342e-05
2.42686e-05
1.5773e-05
3.0158e-05
1.36401e-05
2.78955e-05
2.78488e-05
2.86632e-05
6.70376e-06
1.56473e-05
1.0906e-05
0.000236115
0.000217776
3.06358e-06
8.38434e-05
9.7701e-06
1.97936e-05
2.41656e-05
2.36915e-05
2.27708e-05
5.03583e-05
4.98268e-05
3.51255e-05
1.07002e-05
3.47711e-05
5.06063e-05
1.4462e-05
5.76589e-05
0.000288691
0.000285258
0.000103897
1.15262e-05
1.52462e-05
2.87077e-05
2.93479e-06
3.818e-05
1.37152e-06
2.31623e-05
3.2294e-05
3.36159e-05
2.3223e-06
8.92638e-06
1.45605e-05
7.93805e-05
2.59896e-05
3.74951e-06
8.106e-05
1.02116e-05
8.85206e-06
1.82279e-05
4.16496e-05
1.24893e-06
2.04078e-05
1.86677e-05
0.000167335
2.00611e-05
4.26452e-05
1.68756e-05
1.30962e-05
2.09835e-05
5.11166e-05
7.76162e-05
6.10821e-05
2.15001e-05
3.01394e-05
1.25578e-05
4.80712e-06
6.0572e-06
5.72657e-05
0.00023844
4.7108e-05
6.69018e-06
2.78615e-05
4.35771e-05
0.000110429
7.73017e-05
2.09754e-05
2.14574e-05
3.90788e-05
1.49169e-05
1.83951e-05
1.63802e-06
7.61121e-05
2.72569e-05
4.14545e-05
3.85795e-05
1.43318e-05
4.02001e-05
1.65816e-05
7.28623e-05
3.67566e-05
2.07788e-05
2.38264e-05
2.92208e-05
3.06871e-05
2.41135e-05
4.70974e-06
2.64481e-05
3.07625e-05
2.03576e-05
3.00762e-05
4.22202e-05
4.99355e-05
2.04842e-05
2.0274e-05
1.47934e-05
4.67812e-06
4.80031e-05
8.71992e-06
0.000122677
3.01906e-06
8.32055e-06
8.85772e-06
0.000157838
0.000154147
9.4044e-05
3.95546e-05
1.36082e-05
3.26807e-05
2.32056e-05
4.71475e-05
3.3243e-06
0.000268377
6.7299e-05
8.40219e-05
2.24383e-05
2.01036e-05
7.29503e-06
2.02461e-05
8.51057e-05
2.02701e-05
2.14971e-05
1.73474e-05
7.7293e-08
1.57576e-05
1.38841e-05
5.56603e-06
2.86247e-05
4.52859e-05
7.84216e-05
2.5099e-05
5.16164e-05
4.03024e-05
5.48108e-06
3.00981e-05
2.06973e-05
1.6855e-05
2.80235e-05
2.89605e-05
6.91474e-05
1.06459e-05
4.13575e-06
8.09382e-05
0.000113687
0.000178056
3.51942e-05
2.7193e-05
2.74185e-05
4.79134e-05
2.92816e-05
2.67669e-05
3.3185e-05
0.00015779
2.69689e-05
4.71865e-05
4.35021e-05
7.02679e-05
1.61624e-05
3.21726e-05
0.000106361
2.99161e-05
4.91216e-05
1.65419e-05
7.63721e-05
0.000110862
2.00123e-05
9.66694e-05
4.23204e-05
1.31365e-05
4.2868e-05
6.75921e-05
3.8306e-05
2.02017e-05
1.17296e-05
2.73326e-05
2.27291e-05
4.41096e-06
9.95212e-06
9.86649e-05
2.31676e-05
2.13086e-05
1.16951e-05
9.11597e-05
1.43817e-05
0.000152269
5.40326e-06
1.99626e-05
9.8495e-06
3.40171e-06
2.92887e-05
1.92836e-05
5.86984e-05
0.000129701
5.28183e-05
1.91545e-05
3.26268e-05
2.34595e-05
2.66928e-05
4.32282e-05
6.55407e-05
7.93645e-05
6.88381e-05
1.88832e-05
5.18984e-05
0.000123013
4.72974e-06
6.87602e-05
5.1779e-05
4.26223e-06
0.000129019
0.00018135
4.43043e-05
1.7428e-05
2.25212e-06
2.20599e-05
1.88884e-05
1.96448e-05
7.52239e-06
7.41094e-05
8.36193e-06
1.50148e-05
1.08141e-05
4.67755e-05
6.91135e-06
6.6074e-05
1.35161e-05
3.00108e-05
1.21004e-05
1.00844e-05
1.22003e-05
3.76935e-05
3.83359e-05
4.12035e-05
9.42881e-05
1.78147e-05
6.4356e-05
1.58709e-05
1.21441e-05
8.09349e-05
3.11102e-05
0.000104681
6.72016e-05
6.17512e-06
7.21629e-05
4.47176e-05
8.4544e-05
6.78518e-05
0.000109873
3.00094e-05
2.24866e-05
0.000119222
7.07815e-05
8.29255e-06
1.2742e-05
2.76227e-05
2.27253e-05
2.7342e-05
1.59864e-05
6.10942e-05
2.94561e-06
1.21868e-05
6.09651e-06
1.70821e-05
3.03646e-05
1.71049e-05
2.0051e-05
2.37036e-05
2.61752e-06
3.99196e-06
9.044e-06
2.39051e-05
6.37879e-05
3.46925e-05
1.85884e-05
2.26374e-05
7.24726e-05
2.08106e-05
5.58006e-05
2.28089e-05
2.95345e-05
2.60573e-05
6.73119e-05
9.17731e-05
0.000154636
4.98635e-05
3.36023e-05
8.83207e-05
2.25466e-05
3.74482e-05
5.42955e-05
2.77549e-05
3.69672e-06
2.27985e-05
1.95234e-05
3.57869e-05
3.3254e-05
1.48485e-05
3.42372e-05
9.5082e-05
3.90485e-06
2.77667e-06
5.34319e-05
1.23501e-05
6.60729e-05
2.06205e-05
1.86193e-05
1.78972e-05
1.61351e-06
1.25034e-05
4.64446e-05
2.93064e-05
5.03067e-05
8.88911e-05
4.67894e-06
2.59201e-05
4.55343e-05
2.24882e-05
1.08607e-05
3.86641e-05
5.1897e-05
2.33903e-05
1.17033e-05
4.39763e-05
4.41413e-05
5.16864e-05
2.1114e-05
1.94992e-05
5.1643e-05
3.91112e-05
6.08512e-06
1.25624e-05
2.84104e-06
4.10612e-06
3.21475e-06
4.15793e-05
1.20166e-05
1.35776e-05
6.56791e-05
3.11811e-06
5.62239e-06
3.37638e-06
5.19237e-06
6.60493e-06
9.53446e-05
3.06594e-05
1.71284e-05
1.11316e-05
0.000102734
6.40946e-05
1.26643e-05
2.39922e-05
2.60756e-05
1.71658e-05
4.94948e-05
6.76797e-06
1.93602e-05
1.46298e-05
0.000142658
1.1513e-05
3.49516e-05
3.04409e-05
2.07906e-05
1.67252e-06
2.56704e-05
9.98778e-06
9.93001e-05
1.01271e-05
8.78082e-06
6.65134e-06
1.04217e-06
5.30072e-06
9.98163e-06
2.29394e-05
1.14061e-06
5.78997e-05
2.12822e-05
5.11779e-06
0.000122254
1.07026e-06
6.78885e-06
3.11591e-05
2.87994e-06
6.47444e-06
2.37087e-06
5.97564e-06
1.48558e-05
3.18552e-06
0.000148952
2.93853e-05
1.74132e-05
3.3688e-05
3.85461e-05
7.36768e-06
1.92484e-06
7.75038e-06
3.18349e-05
2.06721e-05
0.000133491
4.36401e-05
2.7302e-05
5.46767e-05
3.63302e-05
5.64033e-06
5.32424e-06
2.13503e-05
8.28633e-06
6.12345e-06
4.11258e-06
3.64215e-06
2.62998e-06
3.03799e-05
2.50007e-05
9.34395e-05
7.09677e-07
8.20986e-05
1.13797e-05
3.11695e-05
1.88101e-05
4.76741e-07
1.12509e-05
1.88944e-05
3.47178e-06
5.27814e-06
2.92771e-07
3.07343e-06
1.11029e-05
3.04321e-06
0.000144255
2.29196e-05
5.95081e-05
4.46132e-05
6.1362e-06
9.6327e-05
5.05611e-07
2.84788e-05
2.49856e-05
4.65261e-05
8.03158e-05
0.000126694
7.50642e-05
0.000256902
3.85999e-06
1.02485e-06
4.13245e-06
6.47595e-07
3.21739e-06
5.29225e-06
6.35988e-06
1.91703e-06
2.75861e-05
5.56426e-05
1.55391e-06
3.13075e-05
2.36359e-06
2.20776e-05
5.23757e-05
5.58855e-05
3.83378e-06
4.87496e-07
1.77282e-05
3.68443e-06
4.45766e-06
2.5243e-06
3.3485e-08
2.57449e-05
8.85704e-06
5.33238e-06
0.000108231
4.13311e-05
2.28398e-05
1.90414e-05
1.47599e-05
1.57229e-05
5.58877e-07
0.000105485
5.83252e-06
9.62256e-05
1.39563e-05
6.4169e-05
0.000132478
3.58062e-05
1.71406e-06
2.42664e-06
1.97297e-06
3.8762e-07
3.11234e-06
8.01401e-06
1.46961e-06
3.48802e-05
7.03298e-05
4.12051e-05
7.71992e-07
1.48983e-05
7.88289e-07
4.36963e-05
1.34888e-05
2.65605e-06
1.08201e-06
4.35649e-07
3.76601e-05
2.58276e-07
1.95961e-06
4.58168e-07
9.54314e-08
2.95511e-05
1.46126e-06
3.34383e-05
3.48568e-05
3.03096e-05
1.74865e-05
1.01721e-05
5.33817e-05
1.14351e-06
3.05205e-06
7.8433e-06
1.06207e-05
1.11088e-07
6.6913e-06
4.07265e-06
6.89957e-07
1.89628e-06
8.41454e-07
2.0904e-07
8.80062e-07
5.06356e-07
5.09075e-06
3.68256e-06
5.51921e-05
5.85669e-05
8.26762e-05
2.36209e-05
1.42048e-06
1.19717e-07
5.03507e-07
1.29832e-06
6.46222e-07
5.19504e-07
8.89654e-08
1.3714e-06
6.94843e-06
6.03018e-08
1.06696e-07
2.04441e-06
6.67117e-07
2.47123e-07
4.19362e-07
7.8607e-05
7.48918e-05
7.3769e-06
1.80436e-05
3.02948e-06
1.09207e-05
1.97107e-06
4.06375e-05
1.61294e-05
4.00082e-06
3.46271e-07
3.02072e-06
3.60544e-07
1.25364e-05
3.65259e-06
4.95788e-07
8.7701e-07
6.88791e-07
4.91135e-07
4.72692e-06
3.9717e-05
6.1238e-05
5.27599e-05
3.65443e-05
2.57794e-06
1.10951e-08
7.05007e-08
1.28978e-07
1.37178e-07
1.64991e-08
8.93236e-08
7.3871e-08
7.5864e-08
4.87955e-07
4.49528e-07
7.72925e-07
2.40653e-07
2.23058e-05
6.81067e-07
2.61319e-07
0.000116362
0.000120779
1.54878e-05
5.49392e-06
2.03975e-06
3.82589e-05
5.46955e-07
1.06676e-05
1.76813e-06
1.42615e-08
2.7504e-07
1.45642e-06
2.8484e-07
1.85165e-05
1.98249e-05
6.07983e-08
3.75143e-07
9.98054e-07
3.50554e-06
4.25559e-05
5.38595e-05
2.15724e-05
3.61891e-06
7.0574e-07
1.24555e-07
2.35153e-07
5.27093e-08
9.17016e-08
6.46311e-08
1.23527e-07
1.22056e-07
4.26391e-08
6.06464e-08
1.18297e-07
2.71045e-07
4.7661e-08
4.93366e-07
2.03475e-06
2.23005e-08
1.52043e-07
3.4251e-05
7.01656e-05
2.26112e-05
1.01395e-05
3.12426e-05
9.89367e-06
6.37825e-07
4.40538e-07
2.54147e-08
7.60724e-09
3.07034e-07
5.80624e-07
6.37378e-07
1.58495e-05
5.30993e-06
1.04254e-07
2.26746e-07
2.98629e-06
1.35882e-05
3.12387e-05
4.01219e-06
2.58648e-07
7.98246e-08
2.79462e-07
6.22017e-07
2.67107e-07
3.05463e-08
2.26434e-07
4.52601e-08
1.82383e-07
5.24766e-07
9.47771e-08
2.06737e-08
4.87499e-08
1.44601e-07
3.75008e-10
3.85831e-07
4.94871e-08
1.37444e-08
7.11123e-07
1.7065e-06
1.26856e-07
4.48302e-06
4.13487e-05
7.05454e-06
1.56547e-06
4.96268e-07
1.31855e-08
3.33307e-09
4.49241e-08
1.8222e-07
3.7401e-08
6.87901e-07
6.03521e-06
3.23094e-07
4.45099e-08
5.77586e-07
3.2954e-06
4.95698e-06
1.16746e-06
9.73144e-08
2.85395e-08
7.75981e-08
6.278e-07
5.04583e-07
1.88997e-08
1.25652e-07
1.17306e-07
1.28863e-07
9.50095e-07
4.39032e-07
1.27035e-08
1.18724e-08
1.63965e-08
6.44786e-08
1.4756e-08
3.627e-08
2.02444e-08
1.45687e-08
9.76541e-08
1.91022e-07
1.61587e-07
2.42356e-07
1.65205e-06
6.67266e-07
3.19789e-07
3.49192e-08
5.58544e-09
1.19901e-08
1.79455e-08
6.62117e-09
2.21209e-09
4.80442e-07
1.26747e-06
1.79758e-08
3.51705e-08
7.24883e-07
1.12508e-06
2.9895e-07
2.24388e-08
3.33534e-08
3.28761e-08
1.32397e-07
3.85897e-07
5.84991e-08
8.92252e-09
6.14969e-08
6.50078e-09
6.22423e-07
6.7968e-07
3.94944e-08
6.97044e-10
1.02861e-08
3.32965e-09
3.37859e-09
3.69595e-09
9.29642e-09
2.40001e-08
8.67836e-10
3.57002e-08
2.14348e-07
1.61184e-07
2.88535e-08
1.55876e-07
1.12943e-07
9.38339e-08
4.13165e-08
2.31846e-09
2.30178e-09
3.48636e-10
2.6548e-10
5.46822e-10
1.33568e-07
2.08283e-07
2.86251e-09
5.90768e-08
2.61175e-07
1.52182e-07
1.02953e-08
1.11728e-09
2.53904e-08
1.43685e-08
4.91283e-08
8.58278e-08
3.1735e-09
3.29914e-09
1.39126e-10
5.13473e-08
3.47385e-07
9.03396e-08
3.6912e-11
1.77271e-09
5.55212e-09
1.58333e-10
6.96105e-10
4.77787e-10
5.62028e-10
2.55134e-10
1.80948e-10
8.35456e-09
3.53302e-08
7.83552e-09
1.90923e-09
1.9048e-08
2.08093e-08
6.5421e-09
2.87441e-09
2.54553e-10
8.61076e-12
1.14882e-10
2.84174e-11
1.12955e-11
5.483e-09
3.47835e-08
2.47843e-09
4.1171e-09
1.66432e-08
1.16009e-08
1.6889e-09
1.97823e-10
1.70662e-09
3.42295e-10
2.23432e-09
7.62055e-09
7.50515e-10
9.39193e-11
1.52744e-10
4.88387e-09
2.57723e-08
1.9033e-09
7.4282e-10
2.25375e-10
1.26354e-09
3.84383e-10
8.96493e-11
3.30803e-07
1.54976e-06
3.42099e-06
1.84476e-06
3.17182e-06
1.77893e-06
2.09537e-06
2.86707e-06
6.18899e-06
1.6766e-06
2.42394e-06
4.86677e-07
5.32696e-06
5.47559e-06
5.11921e-06
2.57199e-06
1.15112e-06
1.54003e-07
4.55873e-07
3.89843e-07
2.76558e-06
7.52906e-06
8.30206e-06
5.18777e-06
4.01611e-06
2.42819e-06
3.16375e-06
3.14363e-06
3.26967e-06
1.42769e-06
1.56049e-06
8.79402e-07
2.60194e-06
4.7228e-06
2.53614e-06
2.83882e-06
3.5768e-06
3.50096e-07
2.19566e-06
2.41488e-06
6.19993e-06
6.91454e-07
3.51068e-06
3.71768e-06
4.43152e-06
2.67377e-06
6.46552e-06
3.06815e-05
3.37419e-05
3.73999e-06
1.91531e-06
4.5971e-06
1.2411e-05
1.51369e-05
9.49472e-06
1.35332e-06
1.47533e-06
7.49378e-06
4.38144e-06
3.24647e-06
4.92529e-06
5.51841e-06
7.64024e-06
4.84012e-06
7.40537e-06
6.42499e-06
5.1751e-06
4.16174e-06
4.25893e-06
3.82944e-06
4.6634e-06
2.64019e-06
4.74008e-06
3.68043e-06
2.05456e-06
2.04508e-06
3.40179e-06
3.90698e-07
3.97131e-06
1.72323e-06
1.65842e-05
2.27901e-06
5.13035e-06
2.71518e-05
3.4066e-06
5.61474e-06
4.43322e-05
5.81816e-05
2.07242e-05
7.77787e-06
2.66827e-05
2.07883e-05
1.41502e-05
3.3641e-05
3.339e-05
8.6902e-06
1.48844e-06
2.40603e-05
3.97509e-05
9.02042e-06
4.79768e-06
5.83621e-06
8.92401e-06
1.06026e-05
9.3128e-06
8.8865e-06
8.54978e-06
1.79702e-05
7.87098e-06
6.82838e-06
4.5366e-06
6.19708e-06
1.86539e-05
4.03293e-05
1.31749e-05
3.53103e-06
3.96271e-06
2.33013e-06
4.65861e-06
2.1143e-05
1.10326e-05
4.70433e-06
1.26988e-05
2.56522e-05
5.76752e-06
7.75943e-06
7.65632e-05
5.12773e-05
1.19414e-05
4.41972e-05
3.80126e-05
1.84042e-05
1.948e-05
1.13347e-05
8.17558e-06
3.96255e-06
3.48817e-06
1.8829e-06
3.72596e-06
9.55859e-06
2.49113e-05
3.10498e-05
4.34346e-05
5.886e-05
2.39081e-05
1.27997e-05
1.77066e-05
1.75331e-06
1.312e-05
7.35457e-06
3.71263e-06
4.05633e-06
1.92054e-06
2.14581e-06
3.19488e-06
5.21861e-06
4.77561e-06
2.66636e-06
1.88788e-06
2.8086e-05
1.33974e-05
7.81077e-06
1.72791e-05
5.00157e-05
8.18015e-06
1.20103e-05
0.00010515
3.53098e-05
5.63776e-06
4.53244e-05
2.30865e-05
1.7216e-05
4.40871e-05
1.10795e-05
6.5947e-06
6.2204e-06
7.61104e-06
2.7626e-05
1.22419e-05
1.52245e-05
7.13347e-06
1.20208e-06
3.24265e-06
2.11847e-05
1.33953e-05
5.72417e-06
8.77468e-06
8.72285e-06
1.86917e-05
8.92538e-06
3.14335e-06
9.55354e-07
6.77258e-06
2.76382e-05
2.55093e-05
1.00874e-05
7.81148e-07
7.93934e-06
8.74744e-06
1.91119e-05
3.88451e-05
2.09432e-05
1.34535e-05
3.72008e-05
5.94445e-06
3.21025e-05
7.97964e-05
2.31392e-05
1.23654e-05
1.1538e-05
1.66408e-05
3.62752e-05
0.000120697
3.01097e-05
8.91152e-06
1.05887e-05
1.60763e-05
1.90929e-05
4.25453e-06
7.27363e-05
2.51672e-05
7.74092e-06
4.77422e-06
1.30081e-05
1.23189e-06
2.05755e-05
2.35841e-05
9.81954e-06
1.96658e-05
1.97495e-05
1.0531e-05
1.53968e-06
4.89356e-05
0.000139804
5.76932e-05
1.647e-05
1.53327e-05
4.72169e-06
1.61322e-05
4.76524e-05
1.6099e-05
1.25398e-05
6.91727e-06
4.30384e-06
6.19637e-06
7.18712e-05
3.40142e-05
4.66102e-05
4.93197e-05
2.14221e-05
4.61767e-05
0.000115544
7.88331e-05
0.000159431
0.00017172
2.36402e-05
1.01816e-05
1.70796e-05
1.69511e-05
1.23927e-05
8.96445e-06
4.11358e-05
6.51978e-05
6.15977e-05
0.000115449
8.81024e-05
2.18771e-05
3.13912e-05
3.13229e-05
2.81786e-05
7.16353e-05
2.83078e-05
1.88722e-05
1.26526e-05
7.3195e-06
1.32041e-05
8.20756e-05
9.11555e-06
1.39616e-05
1.96271e-05
2.02179e-05
8.30632e-06
3.49792e-05
3.13215e-05
1.83515e-05
2.38016e-05
2.40955e-05
1.50508e-05
5.52179e-05
4.22271e-05
3.74393e-05
5.94503e-05
7.78428e-05
7.97159e-05
1.6056e-05
3.89749e-05
0.000232673
0.000166108
3.16102e-05
1.21981e-05
3.75717e-06
8.69527e-06
1.70036e-06
2.07704e-05
4.34812e-05
2.59984e-05
8.81651e-06
3.30894e-05
4.12972e-05
2.34792e-05
1.40812e-05
5.06664e-06
3.02881e-05
1.39808e-05
1.04713e-06
3.29404e-05
3.1977e-05
4.1822e-05
2.24083e-05
2.64386e-05
2.69188e-05
3.3434e-05
3.53259e-05
2.92261e-05
1.92687e-05
1.66434e-05
1.07406e-06
3.14548e-05
3.20359e-06
1.98688e-05
1.84021e-05
1.6913e-05
1.62808e-05
3.20582e-05
1.47198e-05
1.77957e-05
4.55296e-05
3.77032e-05
4.47989e-05
2.74547e-06
1.38305e-05
3.29618e-05
2.33961e-05
2.68538e-05
3.96629e-05
4.56367e-05
5.30512e-05
1.58003e-05
3.24008e-05
7.6679e-05
5.57506e-05
0.000167436
0.000118099
5.75e-06
7.89851e-06
1.2252e-05
1.06763e-05
8.00418e-06
2.798e-05
2.63531e-05
4.17842e-05
3.61136e-05
2.40015e-05
1.81568e-05
1.05384e-05
1.33471e-05
8.17065e-06
2.86285e-05
4.04188e-05
2.16552e-05
1.32376e-06
9.0648e-06
1.04522e-05
1.58853e-05
2.0797e-05
6.82199e-05
3.58106e-05
7.59797e-05
7.40457e-05
4.88889e-06
3.55639e-05
1.79559e-05
2.43507e-05
2.20168e-05
5.18761e-05
8.62782e-06
1.23056e-05
1.69211e-05
1.54422e-05
0.000134898
1.19383e-05
2.92591e-05
0.000112775
5.63079e-05
3.5434e-05
2.54546e-05
2.77134e-05
4.07734e-05
2.9616e-05
2.97514e-05
0.000205197
0.000127235
2.10169e-05
3.28953e-05
1.16097e-05
1.83398e-05
1.41285e-05
4.10425e-05
2.62254e-05
2.16754e-06
9.6109e-06
2.1039e-07
4.40923e-05
3.24091e-05
9.687e-05
0.00012705
1.67721e-05
9.37607e-06
1.3558e-05
6.41674e-05
0.000303249
1.33339e-05
2.72768e-05
3.93689e-05
3.1159e-05
2.25139e-05
2.05418e-05
1.33535e-05
7.90052e-05
0.000331667
3.47825e-05
0.000100091
2.81989e-05
1.07255e-05
1.52531e-05
1.74261e-05
7.32553e-06
5.20654e-05
0.000142606
0.000291784
0.000249268
1.61611e-05
8.66215e-06
2.18865e-05
2.11907e-05
8.8208e-06
2.16246e-05
2.58212e-05
1.85075e-05
2.88186e-05
1.4156e-05
1.96126e-06
5.57096e-05
3.38838e-05
1.12733e-05
0.000133391
9.54565e-06
4.19708e-06
1.54594e-05
0.000180689
0.000144772
3.01191e-05
3.98719e-05
2.20271e-05
3.57804e-05
1.59888e-05
2.35595e-05
7.26182e-06
0.000178706
0.000327942
1.37123e-05
6.81532e-05
1.10256e-05
0.000104812
8.32011e-05
0.000146398
3.03735e-05
4.2648e-05
0.00034788
0.000440516
2.2147e-05
5.19175e-05
2.46187e-05
2.71593e-05
4.70806e-05
2.24419e-05
2.02653e-05
3.04537e-05
2.45399e-05
1.55996e-05
4.04897e-06
5.85277e-06
4.92189e-05
4.87964e-05
1.79602e-05
5.16132e-05
7.67448e-06
1.79424e-06
1.63987e-05
5.34535e-05
0.000113377
1.4459e-05
8.29689e-05
1.12468e-05
3.55885e-05
6.06661e-05
2.03474e-05
3.84677e-06
0.000213479
0.000128571
2.28932e-05
3.64201e-05
7.32756e-07
6.65329e-05
7.72895e-05
0.000120071
3.7957e-06
0.00014566
0.000366072
3.56914e-05
2.15588e-05
2.00792e-05
8.45954e-05
3.09949e-05
3.6292e-05
2.4119e-05
3.16975e-05
3.70709e-05
2.53471e-05
8.1959e-05
6.32031e-07
3.45993e-06
3.92051e-05
4.32526e-05
3.5802e-05
4.97131e-06
8.393e-05
0.000138162
1.26824e-05
7.47132e-05
0.000266292
3.37528e-05
4.97948e-05
9.99893e-06
2.57055e-05
5.56251e-05
1.05055e-06
2.95566e-05
0.000239541
3.76936e-05
1.91753e-05
1.85091e-05
5.17821e-06
2.82045e-06
3.74002e-05
8.22301e-06
1.2118e-05
6.14529e-05
4.01442e-05
3.33382e-05
5.09815e-05
4.56314e-05
8.17878e-06
5.02153e-05
5.49999e-05
6.1747e-05
4.82028e-05
1.69416e-05
3.36939e-05
1.20292e-05
1.7324e-06
3.9929e-06
0.000122317
1.50555e-05
2.68537e-05
2.96019e-05
0.000255011
3.36142e-05
1.9949e-05
8.74638e-05
0.000188143
1.45268e-05
5.92926e-05
5.75581e-06
3.56617e-06
3.25139e-06
5.67582e-05
4.02689e-05
2.8244e-05
5.19845e-05
3.37342e-05
1.61144e-05
5.65784e-06
1.43661e-05
3.67517e-05
1.89571e-05
1.06706e-05
3.56445e-05
0.000133598
3.70395e-05
3.54291e-05
6.06161e-05
1.34427e-05
0.000103897
2.27444e-05
0.000132016
1.84447e-05
7.43887e-06
1.52741e-05
2.07094e-05
1.94235e-05
1.70285e-05
0.000345242
2.76326e-05
4.2069e-05
2.58881e-05
7.06702e-05
4.77765e-06
3.39672e-05
8.77057e-05
0.000119944
8.30593e-06
3.04335e-05
5.10075e-05
9.62408e-06
6.45281e-06
4.47909e-05
3.19363e-05
1.58176e-06
3.53852e-05
2.14504e-05
7.05747e-05
5.71431e-06
1.12251e-05
5.01866e-06
2.36872e-06
6.26402e-06
2.94059e-05
4.79701e-05
0.000115897
4.07653e-05
6.40285e-05
7.48957e-06
9.51957e-06
3.49706e-06
6.59778e-05
1.24355e-05
4.53422e-06
8.20485e-06
4.45375e-05
1.27985e-05
0.000101
0.000319782
4.58482e-05
4.01674e-05
0.000179708
6.3874e-05
6.85376e-06
1.13394e-05
2.81843e-05
1.65684e-05
1.16339e-05
1.83491e-05
1.86362e-05
1.34335e-05
1.0721e-05
6.7025e-06
6.18792e-05
8.84807e-06
4.03837e-05
1.60147e-05
5.52479e-05
9.24985e-06
1.20716e-05
1.53797e-06
9.61726e-06
8.88908e-06
3.16202e-05
2.88918e-05
3.82924e-05
9.78213e-06
3.67026e-05
2.6303e-06
2.53269e-05
7.78629e-05
7.14947e-06
7.55013e-06
9.19211e-06
1.54365e-05
1.32786e-05
1.21516e-05
0.000177159
0.000354422
1.58828e-05
4.44253e-05
0.000296875
6.79755e-05
3.76915e-05
1.84494e-05
1.7775e-05
3.88441e-05
1.57424e-05
2.46118e-05
9.32658e-06
7.51292e-06
3.91158e-06
8.03765e-07
4.60595e-05
8.92763e-05
8.07652e-05
9.20859e-06
1.1497e-05
1.00092e-05
1.62674e-05
5.33141e-05
1.78258e-05
2.29452e-05
2.51028e-05
9.8675e-06
8.39588e-05
3.0747e-05
1.2236e-05
1.67239e-06
9.35021e-05
9.61195e-06
4.12604e-06
4.61658e-06
1.37146e-05
4.07943e-06
9.69588e-06
1.30774e-05
0.000264194
0.000126103
1.79624e-05
3.77141e-05
0.000365536
4.26997e-05
5.69774e-05
1.7278e-05
1.73559e-05
6.70119e-07
2.00239e-06
1.32235e-06
1.9633e-05
2.18785e-07
0.000125021
2.20741e-05
8.26979e-06
2.53697e-06
6.1194e-06
4.85972e-06
1.0666e-05
2.41415e-05
0.000115141
9.9487e-06
2.13583e-05
2.24844e-05
4.12713e-05
1.91902e-06
7.63395e-05
1.96792e-05
2.03562e-05
4.27747e-05
1.11111e-05
2.02197e-06
5.64628e-06
6.22096e-06
1.41906e-05
5.96932e-06
9.33044e-07
9.22602e-05
0.000226301
3.84248e-06
2.41704e-05
1.47365e-05
9.98824e-05
4.87133e-05
5.77872e-05
1.10581e-05
8.64356e-05
1.61961e-06
1.73363e-05
1.51186e-05
5.88537e-06
1.5326e-05
1.94976e-05
3.5543e-05
1.0958e-06
0.000170647
8.28444e-05
2.54411e-05
1.91843e-05
7.87603e-06
3.4224e-05
1.00564e-06
5.93345e-05
6.67023e-07
5.99831e-07
6.7329e-06
5.04786e-05
1.76706e-05
2.19305e-05
4.38975e-05
2.31931e-06
8.32464e-06
4.39262e-06
1.23393e-05
2.11127e-05
2.43495e-05
2.68927e-05
0.000231818
0.000130214
1.17065e-05
7.69237e-06
1.75789e-05
2.60911e-05
8.23883e-05
0.000144517
6.59483e-05
4.23756e-06
2.19677e-06
2.806e-06
2.04682e-05
8.64511e-06
3.42622e-05
6.36471e-05
1.92822e-05
9.04137e-05
0.000114738
0.000210341
0.000178213
7.71336e-06
6.11754e-06
2.44423e-06
5.62202e-05
1.37357e-05
6.3495e-06
3.98882e-07
3.43261e-05
4.52041e-05
3.79672e-05
1.82536e-05
3.10958e-06
6.2901e-07
1.84354e-06
1.87373e-05
1.26002e-05
3.28634e-05
1.77247e-05
0.000195054
0.000246821
0.00011033
1.68988e-05
6.67645e-06
1.68784e-05
1.62918e-05
6.81866e-05
4.31117e-05
0.000196713
1.06498e-05
8.41027e-07
2.57752e-05
1.59715e-05
8.85665e-06
1.45348e-05
1.30719e-05
4.14521e-05
3.80218e-05
8.2812e-05
0.000160376
3.45751e-05
5.65517e-06
1.89087e-06
8.10791e-06
4.67122e-05
2.85085e-06
4.01718e-06
8.35798e-06
4.50995e-05
3.54931e-05
0.000115382
1.83429e-06
2.29265e-06
4.66998e-07
2.45781e-06
6.83556e-05
6.79414e-06
2.61825e-05
1.03731e-05
0.000268633
0.000168073
6.55472e-05
8.05155e-06
9.36468e-06
4.51866e-05
4.0948e-05
2.22766e-05
3.34448e-05
4.45567e-05
8.21771e-06
3.00417e-06
3.11579e-05
2.24707e-05
5.81467e-06
2.83437e-05
6.00198e-05
2.75345e-05
3.97743e-05
6.46588e-05
3.89245e-05
8.34762e-06
5.34544e-06
2.90701e-07
1.54392e-06
1.08408e-06
9.81026e-06
8.3763e-06
2.71822e-05
4.25344e-05
1.67988e-05
0.00010408
1.10761e-06
1.47519e-06
1.40539e-06
2.56866e-06
7.03573e-06
1.17968e-05
3.13883e-05
8.1395e-05
0.000168202
0.000152872
6.65663e-05
3.21182e-05
6.70557e-06
8.35051e-06
2.89597e-05
1.03281e-06
5.32647e-05
6.57262e-05
1.51569e-05
1.5632e-05
3.05846e-07
2.99873e-06
6.60209e-07
9.06864e-05
7.07857e-05
4.19556e-05
4.05091e-05
1.16911e-05
7.3126e-06
3.23861e-06
2.37785e-06
3.83251e-07
1.15288e-06
1.06873e-05
1.2008e-05
7.39746e-06
1.66343e-05
2.97507e-05
2.13927e-05
4.39167e-05
1.06909e-06
1.59697e-06
1.38878e-06
3.1125e-06
1.08947e-06
2.2715e-05
6.50934e-05
8.43917e-05
3.67613e-05
0.000107613
5.66657e-05
1.39955e-05
2.47018e-05
2.69603e-06
2.29016e-05
4.7577e-05
7.2552e-06
4.13319e-05
1.98461e-05
8.88438e-05
4.79065e-07
3.79331e-07
6.85971e-06
0.00010715
4.95588e-05
1.84457e-05
5.18449e-06
3.38242e-06
2.57926e-06
1.26226e-06
4.67813e-07
3.13537e-06
1.0747e-05
2.17044e-05
1.88905e-05
6.85493e-06
5.8593e-06
1.86988e-05
4.86115e-05
8.37873e-07
9.60266e-07
1.39705e-06
7.38736e-07
7.74952e-06
1.4967e-05
1.47284e-05
2.12818e-05
4.81818e-05
1.62905e-05
5.05137e-05
2.1743e-05
1.78588e-06
1.37134e-06
7.35494e-06
1.92961e-06
9.0295e-06
3.14847e-06
1.07657e-05
2.13416e-05
2.03654e-05
5.48036e-07
1.1597e-07
3.53316e-05
5.31043e-05
1.31841e-05
2.75561e-06
7.71056e-07
2.68367e-06
8.75784e-07
1.09036e-06
1.81993e-07
9.43389e-06
2.76461e-05
2.32245e-05
2.44076e-05
9.15552e-06
4.68123e-06
1.5568e-05
2.44579e-05
3.03622e-07
7.90393e-07
4.4644e-07
2.15838e-07
1.20498e-05
2.47385e-05
1.50914e-05
1.4105e-05
3.04959e-06
1.50043e-05
3.22437e-05
2.41692e-06
5.02158e-06
1.79854e-06
7.14185e-05
1.11294e-05
2.85088e-07
9.58688e-07
2.4786e-06
2.49289e-06
4.02576e-06
4.69172e-07
9.20724e-07
5.72951e-06
7.08097e-06
3.3303e-06
9.66307e-07
6.34888e-07
8.15973e-07
6.06937e-07
6.21828e-07
1.01115e-06
1.83616e-05
3.78938e-05
3.50831e-05
2.61605e-05
6.64634e-06
2.20886e-06
4.26476e-06
1.10909e-06
1.5799e-07
3.20231e-07
1.48079e-08
1.42871e-06
1.10638e-05
2.47831e-05
3.18271e-05
9.30988e-06
1.05334e-05
2.89126e-07
7.31846e-07
2.56054e-07
3.67287e-06
1.13073e-05
1.34463e-06
1.22457e-06
3.93412e-08
2.1322e-07
6.27041e-07
4.60566e-07
2.27047e-06
1.69592e-06
1.32744e-07
4.69733e-07
1.3786e-06
1.6208e-06
4.24374e-07
1.19898e-07
1.11448e-07
7.21928e-07
8.61872e-08
2.92329e-06
1.99391e-05
3.654e-05
2.45515e-05
2.24757e-06
5.40812e-07
1.86252e-09
5.54049e-07
4.77215e-08
6.48979e-08
3.93386e-08
9.24204e-08
2.39297e-06
5.26548e-06
1.55296e-05
3.34517e-05
3.86841e-05
8.12524e-07
6.94812e-08
3.72474e-08
5.61908e-06
8.28943e-06
9.31799e-07
1.57154e-07
1.81652e-07
3.23726e-08
1.31398e-07
2.54394e-07
1.58231e-07
3.21088e-06
2.19721e-07
7.56025e-08
9.28398e-08
4.97228e-07
5.54419e-07
2.14186e-08
7.29124e-09
1.11277e-07
2.52741e-07
3.51373e-08
2.35927e-06
5.98124e-06
5.51799e-06
1.00719e-06
7.89125e-08
5.35645e-08
8.86477e-11
2.20048e-08
1.66016e-08
1.6525e-08
1.66067e-09
1.66604e-07
9.04105e-07
8.93877e-07
1.54554e-06
1.69274e-06
2.18155e-08
5.19478e-08
1.22195e-08
4.08919e-07
1.83617e-05
1.14308e-06
8.4036e-08
3.07396e-08
8.95914e-08
9.00288e-08
2.01408e-07
1.39732e-07
4.93271e-08
1.44432e-07
2.21885e-07
1.61612e-07
1.18754e-08
1.62727e-07
2.18302e-08
4.84886e-09