/*--------------------------------*- C++ -*----------------------------------*\
  =========                 |
  \\      /  F ield         | OpenFOAM: The Open Source CFD Toolbox
   \\    /   O peration     | Website:  https://openfoam.org
    \\  /    A nd           | Version:  10
     \\/     M anipulation  |
\*---------------------------------------------------------------------------*/
FoamFile
{
    format      ascii;
    class       surfaceScalarField;
    location    "50";
    object      phi_0;
}
// * * * * * * * * * * * * * * * * * * * * * * * * * * * * * * * * * * * * * //

dimensions      [0 3 -1 0 0 0 0];

internalField   nonuniform List<scalar> 
74080
(
0.00505847
3.26128e-07
2.55874e-08
0.00505864
-8.77192e-08
-2.67054e-08
0.00505856
-1.28878e-07
2.38237e-08
0.00505857
2.62222e-07
6.77605e-08
0.0050586
-2.63674e-07
-1.38864e-07
0.00505854
2.25122e-07
2.1577e-07
0.00505863
-1.40075e-07
-1.8981e-07
0.0050585
7.26644e-08
1.46689e-07
0.00505869
5.25236e-08
-4.7088e-08
0.00505847
-1.78319e-07
1.29756e-09
0.00505864
3.31102e-07
5.99127e-08
0.00505859
-3.69078e-07
-5.86552e-08
0.00505849
2.9782e-07
8.12064e-08
0.00505869
-5.53723e-08
-5.56496e-08
0.00505849
-1.91193e-07
8.82211e-08
0.00505861
3.79943e-07
-1.00179e-07
0.0050586
-3.53731e-07
1.77734e-07
0.00505852
1.88459e-07
-2.17369e-07
0.00505863
7.37682e-08
2.5767e-07
0.00505852
-2.27183e-07
-1.90278e-07
0.00505863
2.52142e-07
8.81234e-08
0.00505852
-1.17913e-07
8.48117e-08
0.0050586
-4.09095e-08
-2.11958e-07
0.00505861
1.64719e-07
3.39482e-07
0.00505847
-1.8878e-07
-3.6869e-07
0.00505872
1.66313e-07
3.73308e-07
0.00505844
-9.56531e-08
-2.93548e-07
0.00505865
1.27482e-08
2.2731e-07
0.0050586
1.03839e-07
-1.13836e-07
0.00505847
-1.98158e-07
3.48716e-08
0.00505874
2.37496e-07
8.53529e-08
0.00505841
-1.63913e-07
-1.63716e-07
0.00505871
-2.96077e-09
2.63329e-07
0.00505849
2.16278e-07
-2.88227e-07
0.00505862
-3.60065e-07
2.85704e-07
0.0050586
3.59186e-07
-1.95693e-07
0.0050585
-1.73306e-07
1.23073e-07
0.00505871
-1.12211e-07
-2.21853e-08
0.00505843
3.579e-07
-2.7141e-09
-4.29469e-07
2.18911e-08
0.00459835
3.52432e-07
1.25306e-07
0.00459852
-1.30027e-07
-9.02494e-08
0.00459834
-6.56846e-08
5.60806e-08
0.00459849
1.94316e-07
6.08895e-08
0.00459839
-1.90878e-07
-1.51836e-07
0.00459843
1.59087e-07
2.57983e-07
0.00459846
-9.10319e-08
-2.62151e-07
0.00459834
7.74323e-08
2.36679e-07
0.00459855
-2.52195e-08
-1.16639e-07
0.00459829
-2.55661e-08
2.05746e-08
0.00459854
1.6018e-07
1.07525e-07
0.00459839
-2.47704e-07
-1.53799e-07
0.00459837
2.92026e-07
1.93427e-07
0.00459855
-1.67772e-07
-1.41361e-07
0.00459829
-1.16394e-08
1.13613e-07
0.00459851
2.26809e-07
-5.25245e-08
0.00459842
-2.95142e-07
6.96956e-08
0.00459835
2.50442e-07
-7.69414e-08
0.00459854
-7.89635e-08
1.30032e-07
0.00459831
-4.472e-08
-1.04554e-07
0.00459851
9.6157e-08
7.45275e-08
0.00459838
-2.63755e-08
2.43648e-08
0.00459841
-4.33313e-08
-9.04695e-08
0.0045985
6.67605e-08
1.85188e-07
0.0045983
9.00286e-10
-2.1979e-07
0.00459857
-7.66503e-08
2.59849e-07
0.00459831
1.30415e-07
-2.2497e-07
0.00459847
-1.17238e-07
1.99242e-07
0.00459848
8.17946e-08
-1.16897e-07
0.0045983
-2.59739e-08
6.95084e-08
0.00459858
-2.60513e-08
1.6353e-08
0.0045983
9.25281e-08
-5.91379e-08
0.0045985
-1.70357e-07
1.34047e-07
0.00459841
2.61544e-07
-1.38875e-07
0.0045984
-3.09068e-07
1.55536e-07
0.00459847
2.65312e-07
-1.13357e-07
0.00459839
-8.49386e-08
1.11796e-07
0.00459846
-1.66469e-07
-7.96479e-08
0.00459839
3.85476e-07
1.04331e-07
-4.45003e-07
-9.85228e-08
0.0041801
3.03836e-07
1.5041e-07
0.00418021
-1.51216e-07
-8.8222e-08
0.00418003
2.5532e-08
4.89328e-08
0.00418023
7.70317e-08
5.30793e-08
0.00418008
-7.15771e-08
-1.19202e-07
0.00418015
7.11923e-08
2.19876e-07
0.00418016
-3.78753e-08
-2.31733e-07
0.00418006
8.50121e-08
2.25143e-07
0.00418024
-9.57685e-08
-1.08849e-07
0.00418
1.1583e-07
9.01715e-09
0.00418025
-9.92094e-09
1.32929e-07
0.00418007
-9.80328e-08
-1.83946e-07
0.00418011
2.34566e-07
2.23452e-07
0.00418022
-2.19911e-07
-1.54339e-07
0.00418001
1.29955e-07
1.02407e-07
0.00418023
7.54841e-08
-3.27022e-09
0.0041801
-2.05262e-07
-1.00052e-08
0.00418008
2.72253e-07
2.70079e-08
0.00418024
-1.97521e-07
3.2102e-08
0.00418002
1.20523e-07
-3.81465e-08
0.00418022
-4.6119e-08
6.68118e-08
0.0041801
4.59751e-08
-2.54917e-08
0.0041801
-2.19751e-08
1.28571e-08
0.0041802
-3.57213e-08
5.88632e-08
0.00418003
1.56134e-07
-8.97488e-08
0.00418023
-2.45171e-07
1.49522e-07
0.00418006
2.67563e-07
-1.46908e-07
0.00418015
-1.76395e-07
1.63773e-07
0.00418018
3.40868e-08
-1.18936e-07
0.00418004
1.19743e-07
1.0973e-07
0.00418024
-2.11448e-07
-5.77266e-08
0.00418006
2.42769e-07
4.6879e-08
0.00418015
-2.21731e-07
1.36566e-08
0.00418018
1.99788e-07
-2.07656e-08
0.00418007
-1.74255e-07
6.28199e-08
0.00418019
1.33058e-07
-5.78789e-08
0.00418013
-1.79231e-08
1.06484e-07
0.00418011
-1.37047e-07
-1.15252e-07
0.00418018
2.95619e-07
1.61689e-07
-3.44463e-07
-1.46592e-07
0.00379989
2.31445e-07
1.32501e-07
0.00379995
-1.63645e-07
-5.25991e-08
0.0037998
1.20262e-07
2.28788e-08
0.00379998
-4.44492e-08
5.62669e-08
0.00379983
4.48506e-08
-8.56482e-08
0.00379991
-1.11569e-09
1.68327e-07
0.00379991
-4.14863e-09
-1.70349e-07
0.00379984
1.02779e-07
1.74842e-07
0.00379997
-1.53498e-07
-6.66127e-08
0.00379979
2.25756e-07
-1.58632e-08
0.00379999
-1.42879e-07
1.47387e-07
0.00379982
3.46292e-08
-1.73283e-07
0.0037999
1.6167e-07
2.01768e-07
0.00379994
-2.28776e-07
-1.1927e-07
0.00379979
2.271e-07
6.95514e-08
0.00379998
-5.35491e-08
3.77167e-08
0.00379984
-9.85877e-08
-5.1002e-08
0.00379987
2.45569e-07
7.65475e-08
0.00379996
-2.5286e-07
-1.09057e-08
0.0037998
2.30294e-07
-9.03972e-09
0.00379996
-1.49349e-07
7.171e-08
0.00379986
1.03507e-07
-6.13434e-08
0.00379988
-1.42848e-08
7.98383e-08
0.00379993
-9.04534e-08
-2.12213e-08
0.00379983
2.36556e-07
-2.77139e-09
0.00379994
-3.21002e-07
7.67144e-08
0.00379985
3.2437e-07
-8.97442e-08
0.0037999
-1.91452e-07
1.35311e-07
0.00379991
-1.05456e-09
-1.16719e-07
0.00379984
2.02167e-07
1.41984e-07
0.00379994
-3.03582e-07
-1.11606e-07
0.00379987
3.00388e-07
1.18223e-07
0.00379987
-2.02916e-07
-5.77637e-08
0.00379995
1.01796e-07
4.59837e-08
0.00379982
-3.21821e-08
1.69808e-08
0.00379994
1.69437e-08
-3.25239e-08
0.0037999
1.93489e-08
1.0818e-07
0.00379984
-6.8903e-08
-1.3057e-07
0.00379997
1.63602e-07
1.81345e-07
-2.04942e-07
-1.48759e-07
0.00345426
1.61169e-07
1.10006e-07
0.00345427
-1.68444e-07
-1.97027e-08
0.00345417
1.98625e-07
2.72146e-09
0.00345431
-1.38579e-07
5.67669e-08
0.0034542
1.29092e-07
-5.20726e-08
0.00345425
-3.80268e-08
1.18439e-07
0.00345426
3.76448e-09
-1.07013e-07
0.0034542
1.29986e-07
1.21962e-07
0.00345429
-1.92359e-07
-2.08925e-08
0.00345417
2.95377e-07
-3.45257e-08
0.0034543
-2.24984e-07
1.46538e-07
0.00345418
1.32711e-07
-1.39976e-07
0.00345426
9.48883e-08
1.57955e-07
0.00345426
-2.11241e-07
-6.48191e-08
0.00345417
2.87367e-07
2.80707e-08
0.00345431
-1.57306e-07
7.4969e-08
0.00345417
1.67462e-08
-7.42234e-08
0.00345425
1.76965e-07
1.00668e-07
0.00345426
-2.42644e-07
-2.54276e-08
0.00345418
2.75119e-07
1.66191e-09
0.00345428
-2.05883e-07
8.02361e-08
0.0034542
1.46767e-07
-7.98969e-08
0.00345424
-2.87397e-08
1.13921e-07
0.00345424
-8.83724e-08
-5.82063e-08
0.00345422
2.38598e-07
4.37671e-08
0.00345425
-3.15612e-07
3.489e-08
0.00345422
3.20913e-07
-4.86561e-08
0.00345424
-1.87143e-07
1.11871e-07
0.00345423
-4.55895e-09
-1.05858e-07
0.00345423
2.11992e-07
1.55423e-07
0.00345424
-3.05523e-07
-1.34685e-07
0.00345424
2.85249e-07
1.53343e-07
0.00345421
-1.49876e-07
-8.63798e-08
0.00345429
1.51078e-08
7.14632e-08
0.00345418
7.04997e-08
5.21618e-09
0.00345427
-5.1442e-08
-2.46455e-08
0.00345425
2.054e-08
1.10776e-07
0.00345418
1.86852e-08
-1.31165e-07
0.00345432
2.84363e-08
1.82286e-07
-6.68926e-08
-1.35469e-07
0.00314005
1.08162e-07
9.03419e-08
0.00314004
-1.69592e-07
3.11409e-09
0.00313999
2.55813e-07
-6.15415e-09
0.00314007
-1.95901e-07
5.5131e-08
0.00314
1.74282e-07
-2.41397e-08
0.00314002
-3.83579e-08
8.12668e-08
0.00314004
-1.09455e-08
-5.46012e-08
0.00314
1.62974e-07
7.85659e-08
0.00314005
-2.13126e-07
1.77214e-08
0.00313999
3.2938e-07
-4.66414e-08
0.00314006
-2.61342e-07
1.43599e-07
0.00313998
1.94436e-07
-1.06257e-07
0.00314005
4.2592e-08
1.2006e-07
0.00314002
-1.80211e-07
-1.80012e-08
0.00313998
3.19003e-07
-9.33204e-11
0.00314009
-2.3392e-07
9.73304e-08
0.00313995
1.27467e-07
-7.80465e-08
0.00314006
8.4739e-08
1.07338e-07
0.00314001
-1.85597e-07
-2.55445e-08
0.00314
2.69279e-07
8.04637e-09
0.00314005
-2.23785e-07
8.18312e-08
0.00313999
1.78694e-07
-7.79101e-08
0.00314004
-6.26881e-08
1.21617e-07
0.00314
-4.14849e-08
-6.26311e-08
0.00314004
1.83181e-07
5.85592e-08
0.00314
-2.51962e-07
2.18127e-08
0.00314002
2.7763e-07
-2.57933e-08
0.00314003
-1.73671e-07
9.57763e-08
0.00314
2.03997e-08
-8.95817e-08
0.00314005
1.65687e-07
1.52738e-07
0.00313999
-2.43604e-07
-1.31522e-07
0.00314005
2.22609e-07
1.59574e-07
0.00314
-8.47519e-08
-8.64804e-08
0.00314006
-4.64522e-08
7.66831e-08
0.00313999
1.25404e-07
6.35846e-09
0.00314004
-7.28763e-08
-1.96352e-08
0.00314004
-3.54846e-09
1.0948e-07
0.00313997
1.05415e-07
-1.20763e-07
0.0031401
-8.39828e-08
1.71086e-07
4.63858e-08
-1.14774e-07
0.00285442
7.60443e-08
7.89426e-08
0.00285439
-1.70383e-07
1.56821e-08
0.00285438
2.94573e-07
-5.38074e-09
0.00285441
-2.22361e-07
5.31951e-08
0.00285439
1.8956e-07
-4.47985e-09
0.00285438
-1.33346e-08
6.12512e-08
0.00285441
-3.7931e-08
-2.09159e-08
0.00285438
1.96449e-07
5.57559e-08
0.0028544
-2.1862e-07
3.9768e-08
0.00285439
3.37679e-07
-4.46796e-08
0.0028544
-2.63149e-07
1.35981e-07
0.00285436
2.26154e-07
-7.51571e-08
0.00285442
7.46652e-09
9.50703e-08
0.00285438
-1.45517e-07
1.4537e-08
0.00285437
3.32242e-07
-1.1623e-08
0.00285444
-2.86514e-07
1.06211e-07
0.00285432
2.25862e-07
-6.82704e-08
0.00285444
-1.44808e-08
1.03599e-07
0.00285436
-1.02557e-07
-1.53601e-08
0.0028544
2.28842e-07
1.02115e-08
0.0028544
-2.12929e-07
8.31243e-08
0.00285437
1.99169e-07
-6.70033e-08
0.00285442
-1.07228e-07
1.16584e-07
0.00285435
3.38273e-08
-4.94204e-08
0.00285443
9.11026e-08
5.83209e-08
0.00285435
-1.54252e-07
2.29887e-08
0.00285441
2.11009e-07
-1.08416e-08
0.0028544
-1.54333e-07
8.36307e-08
0.00285436
5.87743e-08
-6.63842e-08
0.00285444
8.99022e-08
1.37843e-07
0.00285435
-1.47068e-07
-1.1043e-07
0.00285442
1.38619e-07
1.48212e-07
0.00285437
-2.31089e-08
-7.07604e-08
0.00285441
-7.82829e-08
7.29888e-08
0.00285438
1.38782e-07
1.23273e-08
0.0028544
-5.67751e-08
-1.17817e-08
0.00285441
-4.31413e-08
1.01515e-07
0.00285436
1.84199e-07
-1.00184e-07
0.00285445
-1.68248e-07
1.54436e-07
1.2965e-07
-9.35974e-08
0.00259477
5.97503e-08
7.57069e-08
0.00259474
-1.70201e-07
1.93928e-08
0.00259475
3.1801e-07
4.82894e-09
0.00259475
-2.25773e-07
5.01037e-08
0.00259475
1.83031e-07
1.22807e-08
0.00259473
2.52644e-08
5.36734e-08
0.00259476
-6.94528e-08
-6.6802e-10
0.00259474
2.26896e-07
4.93714e-08
0.00259473
-2.1428e-07
4.91806e-08
0.00259475
3.31222e-07
-3.07712e-08
0.00259474
-2.45846e-07
1.26287e-07
0.00259473
2.38242e-07
-4.76003e-08
0.00259477
-1.5752e-08
8.39214e-08
0.00259472
-1.10455e-07
3.35633e-08
0.00259473
3.31261e-07
-8.11446e-09
0.00259477
-3.18531e-07
1.07643e-07
0.00259468
3.05193e-07
-5.19666e-08
0.0025948
-1.08512e-07
9.91706e-08
0.0025947
-1.15601e-08
-3.3064e-09
0.00259476
1.68365e-07
1.61235e-08
0.00259474
-1.8415e-07
8.18423e-08
0.00259473
2.06015e-07
-4.88323e-08
0.00259477
-1.51665e-07
1.06777e-07
0.0025947
1.15554e-07
-2.73881e-08
0.00259479
-1.45321e-08
5.32355e-08
0.0025947
-4.42674e-08
3.20764e-08
0.00259476
1.32387e-07
1.30583e-09
0.00259475
-1.30967e-07
7.3788e-08
0.00259471
9.79606e-08
-3.71968e-08
0.00259479
4.8098e-09
1.15552e-07
0.00259469
-4.23747e-08
-7.55207e-08
0.00259478
4.91113e-08
1.26677e-07
0.00259473
2.96197e-08
-4.60206e-08
0.00259475
-8.98659e-08
6.70209e-08
0.00259475
1.23909e-07
1.82887e-08
0.00259474
-1.82657e-08
1.26575e-09
0.00259476
-9.1339e-08
9.07863e-08
0.00259472
2.52304e-07
-7.48406e-08
0.00259479
-2.28163e-07
1.37943e-07
1.87789e-07
-7.40742e-08
0.00235874
5.16248e-08
7.94138e-08
0.0023587
-1.7095e-07
1.96547e-08
0.00235872
3.29204e-07
2.26761e-08
0.00235871
-2.17509e-07
4.89304e-08
0.00235873
1.64261e-07
2.83949e-08
0.0023587
6.55354e-08
5.45768e-08
0.00235872
-1.00641e-07
1.26978e-08
0.00235872
2.5109e-07
5.58732e-08
0.0023587
-2.05816e-07
5.23943e-08
0.00235873
3.15515e-07
-7.05629e-09
0.0023587
-2.222e-07
1.1764e-07
0.0023587
2.3745e-07
-2.2933e-08
0.00235873
-3.32242e-08
8.68532e-08
0.00235869
-7.76531e-08
4.44678e-08
0.00235871
3.16271e-07
9.50045e-09
0.00235873
-3.32959e-07
1.03223e-07
0.00235867
3.59423e-07
-2.97718e-08
0.00235876
-1.89441e-07
9.64545e-08
0.00235866
7.18476e-08
1.1811e-08
0.00235874
9.85626e-08
2.55457e-08
0.00235869
-1.4811e-07
8.10958e-08
0.0023587
1.98244e-07
-2.61738e-08
0.00235874
-1.90918e-07
9.8398e-08
0.00235867
1.89185e-07
4.09421e-10
0.00235876
-1.19211e-07
4.89488e-08
0.00235866
6.04775e-08
4.53254e-08
0.00235874
4.9185e-08
1.34274e-08
0.00235871
-1.0548e-07
6.94483e-08
0.00235869
1.26293e-07
-4.09531e-09
0.00235875
-7.59939e-08
9.29477e-08
0.00235866
5.21525e-08
-3.50315e-08
0.00235874
-3.72431e-08
1.03257e-07
0.00235871
7.1021e-08
-1.61581e-08
0.00235871
-9.24485e-08
6.45395e-08
0.00235872
9.38722e-08
2.35963e-08
0.00235871
2.62095e-08
1.93414e-08
0.00235873
-1.40678e-07
7.87888e-08
0.0023587
3.07475e-07
-4.55371e-08
0.00235875
-2.69782e-07
1.25136e-07
2.25905e-07
-5.62887e-08
0.00214417
4.17763e-08
8.60026e-08
0.00214413
-1.74467e-07
1.92443e-08
0.00214417
3.29712e-07
4.84527e-08
0.00214414
-2.0686e-07
5.57791e-08
0.00214417
1.36235e-07
4.65321e-08
0.00214414
9.55922e-08
5.99732e-08
0.00214415
-1.30929e-07
2.29979e-08
0.00214416
2.65805e-07
7.47397e-08
0.00214413
-1.98763e-07
5.84383e-08
0.00214417
2.92331e-07
2.4673e-08
0.00214413
-2.05687e-07
1.09568e-07
0.00214414
2.27054e-07
9.1833e-10
0.00214417
-5.09883e-08
1.03348e-07
0.00214412
-5.05867e-08
5.6399e-08
0.00214416
2.85984e-07
3.68276e-08
0.00214415
-3.38314e-07
9.64902e-08
0.00214412
3.84621e-07
-4.80538e-09
0.00214419
-2.56129e-07
1.01231e-07
0.0021441
1.37328e-07
3.38232e-08
0.00214418
2.30976e-08
4.03109e-08
0.00214412
-1.15938e-07
8.11449e-08
0.00214415
1.72952e-07
-1.0129e-09
0.00214417
-2.23227e-07
9.90469e-08
0.00214411
2.43008e-07
3.41069e-08
0.00214419
-2.1812e-07
5.14435e-08
0.0021441
1.46005e-07
5.9036e-08
0.00214418
-3.6463e-08
2.76076e-08
0.00214414
-8.09129e-08
7.33702e-08
0.00214413
1.36061e-07
3.49081e-08
0.00214418
-1.48377e-07
7.43812e-08
0.00214411
1.20712e-07
5.98346e-09
0.00214417
-1.17454e-07
8.20141e-08
0.00214414
9.90725e-08
1.91859e-08
0.00214414
-9.56489e-08
7.08471e-08
0.00214416
5.45933e-08
3.03583e-08
0.00214415
6.21501e-08
3.93407e-08
0.00214416
-1.90238e-07
6.86794e-08
0.00214414
3.49447e-07
-1.14046e-08
0.00214417
-3.01686e-07
1.21357e-07
2.46466e-07
-3.71829e-08
0.0019491
1.73834e-08
8.73794e-08
0.00194907
-1.85674e-07
1.95132e-08
0.00194911
3.17808e-07
8.98209e-08
0.00194907
-2.02222e-07
8.18239e-08
0.0019491
9.72605e-08
6.73031e-08
0.00194908
1.03186e-07
5.92421e-08
0.00194909
-1.6394e-07
3.06561e-08
0.0019491
2.67217e-07
1.1127e-07
0.00194907
-1.99587e-07
8.28016e-08
0.00194911
2.58478e-07
6.16245e-08
0.00194907
-2.08807e-07
9.5854e-08
0.00194908
2.05039e-07
2.27408e-08
0.0019491
-7.50063e-08
1.39056e-07
0.00194906
-3.32159e-08
8.31115e-08
0.0019491
2.3576e-07
7.03857e-08
0.00194908
-3.45526e-07
8.08001e-08
0.00194907
3.75544e-07
1.84363e-08
0.00194911
-3.11436e-07
1.2264e-07
0.00194905
1.76392e-07
7.37629e-08
0.00194911
-6.08353e-08
6.0895e-08
0.00194906
-1.00038e-07
7.55767e-08
0.00194909
1.27773e-07
2.24665e-08
0.00194909
-2.51218e-07
1.18108e-07
0.00194906
2.70246e-07
8.30099e-08
0.00194912
-3.1337e-07
6.2044e-08
0.00194904
1.99255e-07
6.4791e-08
0.00194911
-1.26974e-07
4.16481e-08
0.00194907
-6.20642e-08
9.44939e-08
0.00194908
1.22185e-07
8.85374e-08
0.0019491
-2.15852e-07
6.22471e-08
0.00194905
1.51824e-07
3.63539e-08
0.0019491
-1.94918e-07
6.30038e-08
0.00194908
1.12326e-07
6.794e-08
0.00194908
-1.08167e-07
9.58536e-08
0.0019491
6.77092e-09
3.90189e-08
0.00194908
7.63739e-08
4.99215e-08
0.00194909
-2.424e-07
5.88957e-08
0.00194909
3.76527e-07
3.51766e-08
0.0019491
-3.31892e-07
1.37708e-07
2.47549e-07
-1.64247e-08
0.00177169
-3.50448e-08
6.34085e-08
0.00177167
-2.10045e-07
1.94214e-08
0.0017717
2.91782e-07
1.65705e-07
0.00177167
-2.10616e-07
1.46182e-07
0.0017717
3.70065e-08
8.33233e-08
0.00177168
7.53076e-08
2.93131e-08
0.00177168
-2.06224e-07
3.28833e-08
0.0017717
2.52856e-07
1.84105e-07
0.00177167
-2.14135e-07
1.46571e-07
0.0017717
2.02805e-07
9.64258e-08
0.00177167
-2.45412e-07
5.78319e-08
0.00177168
1.67164e-07
3.91158e-08
0.0017717
-1.10157e-07
2.08579e-07
0.00177166
-3.13922e-08
1.42504e-07
0.0017717
1.55043e-07
1.00036e-07
0.00177166
-3.71466e-07
3.65592e-08
0.00177168
3.27759e-07
3.31047e-08
0.0017717
-3.58921e-07
1.79249e-07
0.00177165
1.83496e-07
1.47217e-07
0.0017717
-1.62982e-07
7.98782e-08
0.00177165
-1.13553e-07
4.40071e-08
0.00177169
5.82449e-08
4.11971e-08
0.00177168
-2.7766e-07
1.72817e-07
0.00177166
2.66133e-07
1.64051e-07
0.00177169
-4.14949e-07
7.27496e-08
0.00177164
2.06624e-07
4.16427e-08
0.0017717
-2.26298e-07
5.04934e-08
0.00177166
-5.24025e-08
1.50778e-07
0.00177168
8.07776e-08
1.71687e-07
0.00177168
-2.89449e-07
4.94018e-08
0.00177166
1.33313e-07
3.42294e-08
0.00177169
-2.7432e-07
4.39758e-08
0.00177168
1.11113e-07
1.49175e-07
0.00177168
-1.36309e-07
1.54948e-07
0.00177168
-5.69778e-08
4.1447e-08
0.00177168
5.45058e-08
2.77054e-08
0.00177168
-3.00357e-07
4.45053e-08
0.00177169
3.87591e-07
1.12253e-07
0.00177169
-3.68796e-07
1.91282e-07
2.19614e-07
3.37906e-10
0.0016101
-1.25361e-07
-3.90426e-09
0.00161008
-2.5127e-07
3.38339e-08
0.00161011
2.49618e-07
3.02697e-07
0.00161008
-2.39317e-07
2.5063e-07
0.0016101
-5.50915e-08
6.32376e-08
0.00161009
1.89725e-09
-5.36344e-08
0.00161009
-2.63405e-07
4.23239e-08
0.0016101
2.20585e-07
3.21215e-07
0.00161007
-2.50004e-07
2.55217e-07
0.00161009
1.11876e-07
1.01398e-07
0.00161007
-3.25188e-07
-2.65934e-08
0.00161009
1.09473e-07
6.135e-08
0.0016101
-1.60271e-07
3.31967e-07
0.00161006
-5.33404e-08
2.34781e-07
0.0016101
3.20492e-08
9.31658e-08
0.00161006
-4.29915e-07
-5.98984e-08
0.00161009
2.39757e-07
4.88641e-08
0.00161009
-4.01938e-07
2.96996e-07
0.00161004
1.52895e-07
2.55327e-07
0.00161008
-2.9291e-07
6.80088e-08
0.00161004
-1.64967e-07
-3.70753e-08
0.00161009
-3.53612e-08
6.50277e-08
0.00161006
-3.04837e-07
2.84667e-07
0.00161005
2.26471e-07
2.76609e-07
0.00161007
-5.33949e-07
5.14386e-08
0.00161004
1.60181e-07
-3.45145e-08
0.00161009
-3.35689e-07
6.28327e-08
0.00161005
-5.42084e-08
2.65199e-07
0.00161007
9.89461e-09
2.81648e-07
0.00161006
-3.80186e-07
6.04925e-09
0.00161006
6.18388e-08
-2.30911e-08
0.00161008
-3.56155e-07
3.73589e-08
0.00161007
9.71358e-08
2.87725e-07
0.00161007
-1.86235e-07
2.47051e-07
0.00161007
-1.44677e-07
6.98689e-09
0.00161009
-1.26908e-08
-5.38399e-08
0.00161009
-3.67154e-07
3.78378e-08
0.0016101
3.80632e-07
2.47327e-07
0.00161008
-4.23126e-07
2.84673e-07
1.51712e-07
-1.33404e-08
0.00146223
-2.39356e-07
-8.45961e-08
0.00146221
-2.95753e-07
1.13641e-07
0.00146223
1.86548e-07
4.94687e-07
0.0014622
-3.06404e-07
3.26622e-07
0.00146223
-1.89745e-07
-4.29545e-08
0.00146223
-1.04515e-07
-1.59686e-07
0.00146223
-3.22049e-07
1.16214e-07
0.00146222
1.65693e-07
5.24888e-07
0.00146217
-3.25554e-07
3.39712e-07
0.0014622
-2.57659e-08
2.47293e-08
0.0014622
-4.34248e-07
-1.33159e-07
0.00146222
4.43441e-08
1.35176e-07
0.00146221
-2.3091e-07
4.97531e-07
0.00146216
-1.18561e-07
2.92418e-07
0.00146221
-1.41788e-07
-4.53407e-09
0.00146218
-5.10806e-07
-1.82658e-07
0.00146222
1.32378e-07
1.16935e-07
0.00146217
-4.425e-07
4.71015e-07
0.00146212
6.97033e-08
3.29174e-07
0.00146215
-4.5393e-07
-2.62861e-08
0.00146213
-2.40124e-07
-1.4462e-07
0.00146218
-1.35639e-07
1.42626e-07
0.00146213
-3.35543e-07
4.43025e-07
0.00146213
1.35173e-07
3.53844e-07
0.00146213
-6.7891e-07
-5.53772e-08
0.00146214
7.32903e-08
-1.39827e-07
0.00146219
-4.36888e-07
1.26694e-07
0.00146213
-7.16069e-08
4.29616e-07
0.00146214
-1.02739e-07
3.50108e-07
0.00146213
-4.95724e-07
-1.13436e-07
0.00146217
-4.35072e-08
-1.09671e-07
0.00146218
-4.23579e-07
9.38318e-08
0.00146217
6.84068e-08
4.71734e-07
0.00146216
-2.75465e-07
3.00734e-07
0.00146218
-2.62675e-07
-1.12333e-07
0.00146222
-1.11771e-07
-1.67207e-07
0.00146221
-4.2692e-07
9.50797e-08
0.00146221
3.48587e-07
4.36383e-07
0.00146218
-5.13751e-07
3.52995e-07
3.51877e-08
-1.00137e-07
0.00132557
-3.28229e-07
-5.54791e-08
0.00132555
-3.31299e-07
2.96143e-07
0.00132555
7.72199e-08
6.23647e-07
0.00132552
-4.3001e-07
2.34638e-07
0.00132556
-3.43885e-07
-2.14923e-07
0.00132558
-1.94999e-07
-1.48421e-07
0.00132554
-3.64165e-07
3.06428e-07
0.00132551
6.32812e-08
6.77692e-07
0.00132546
-4.60624e-07
2.5358e-07
0.00132551
-1.8849e-07
-1.27905e-07
0.00132552
-5.21934e-07
-1.47712e-07
0.00132552
-1.86725e-08
2.99075e-07
0.00132548
-3.42869e-07
5.89717e-07
0.00132544
-2.44668e-07
1.83964e-07
0.0013255
-3.38897e-07
-1.78155e-07
0.00132547
-5.61574e-07
-2.01769e-07
0.00132549
2.94679e-08
2.90382e-07
0.00132539
-5.02331e-07
5.88329e-07
0.00132537
-8.19099e-08
2.3369e-07
0.0013254
-6.16488e-07
-1.87477e-07
0.0013254
-2.91751e-07
-1.58572e-07
0.00132543
-2.23713e-07
3.12635e-07
0.00132535
-3.92748e-07
5.34337e-07
0.00132537
-2.34761e-08
2.62873e-07
0.00132539
-8.21186e-07
-2.40155e-07
0.00132543
-4.34611e-09
-1.47379e-07
0.00132545
-5.08081e-07
2.8331e-07
0.00132537
-1.28298e-07
5.32072e-07
0.0013254
-2.6823e-07
2.47976e-07
0.0013254
-6.08678e-07
-2.87725e-07
0.00132547
-1.31487e-07
-9.92783e-08
0.00132547
-4.60425e-07
2.54062e-07
0.00132545
-2.99027e-09
5.77152e-07
0.00132546
-4.19886e-07
1.86138e-07
0.0013255
-3.86867e-07
-2.92668e-07
0.00132556
-1.94651e-07
-1.71483e-07
0.00132553
-4.63295e-07
2.72938e-07
0.00132552
2.60869e-07
5.68487e-07
0.00132548
-6.53954e-07
2.70057e-07
-1.04993e-07
-2.38775e-07
0.00119726
-3.52525e-07
1.68099e-07
0.00119721
-3.92734e-07
4.39362e-07
0.00119722
-1.13828e-07
4.97032e-07
0.0011972
-5.76217e-07
-2.86576e-08
0.00119725
-4.38092e-07
-2.5654e-07
0.00119723
-2.23881e-07
8.51273e-08
0.00119716
-4.21753e-07
4.75967e-07
0.00119714
-1.28309e-07
5.66307e-07
0.00119711
-6.22148e-07
-2.94288e-08
0.00119718
-3.00679e-07
-1.82266e-07
0.00119715
-5.42411e-07
2.22745e-08
0.00119713
-1.13378e-07
4.23111e-07
0.00119708
-5.18369e-07
4.33261e-07
0.00119706
-3.98323e-07
-8.38795e-08
0.00119713
-4.72833e-07
-2.39721e-07
0.00119705
-5.30801e-07
-4.61519e-09
0.00119705
-9.70235e-08
4.43792e-07
0.00119694
-6.16739e-07
4.53973e-07
0.00119697
-2.69362e-07
-3.39727e-08
0.00119701
-6.96616e-07
-2.43954e-07
0.001197
-2.84867e-07
2.02607e-08
0.001197
-3.27226e-07
4.48229e-07
0.00119693
-5.11157e-07
3.78109e-07
0.001197
-2.16887e-07
3.47875e-09
0.00119702
-8.77291e-07
-3.16628e-07
0.00119706
-2.74098e-08
4.98081e-08
0.00119703
-5.76158e-07
4.11135e-07
0.00119698
-2.60247e-07
3.91022e-07
0.00119705
-4.48828e-07
-1.46533e-08
0.00119707
-6.42638e-07
-3.33107e-07
0.00119714
-1.64782e-07
1.0202e-07
0.00119711
-5.03384e-07
3.8603e-07
0.00119712
-1.62019e-07
4.18674e-07
0.00119716
-5.807e-07
-7.28969e-08
0.00119721
-4.41693e-07
-3.38253e-07
0.00119726
-2.19883e-07
5.81834e-08
0.00119718
-5.09415e-07
4.42756e-07
0.00119719
7.73086e-08
4.55631e-07
0.00119717
-8.03109e-07
4.02492e-08
-1.94014e-07
-2.58324e-07
0.00107457
-3.9337e-07
3.65035e-07
0.00107452
-5.3693e-07
2.91188e-07
0.00107456
-3.06578e-07
1.7947e-07
0.00107453
-6.15402e-07
-1.70648e-07
0.00107455
-4.45337e-07
-3.77759e-08
0.00107449
-2.74337e-07
3.04055e-07
0.00107443
-5.63817e-07
3.43982e-07
0.00107445
-3.34803e-07
2.20264e-07
0.00107444
-6.7882e-07
-2.23122e-07
0.00107447
-3.29977e-07
-8.52814e-09
0.00107439
-5.67888e-07
1.75176e-07
0.00107439
-2.9402e-07
2.84226e-07
0.00107435
-6.65688e-07
1.01933e-07
0.00107436
-4.58011e-07
-2.24376e-07
0.00107437
-4.96611e-07
-5.95975e-08
0.00107426
-5.05338e-07
2.05398e-07
0.00107429
-3.07814e-07
3.14464e-07
0.00107422
-7.12444e-07
1.22747e-07
0.00107431
-3.70305e-07
-1.92707e-07
0.00107429
-6.64933e-07
-6.52179e-08
0.00107428
-3.0806e-07
1.92152e-07
0.00107429
-4.94124e-07
3.15613e-07
0.00107427
-6.20704e-07
4.26203e-08
0.00107437
-3.17697e-07
-1.38577e-07
0.00107434
-8.15259e-07
-1.44455e-07
0.00107437
-8.59969e-08
2.50096e-07
0.00107434
-6.93967e-07
2.75409e-07
0.00107436
-4.02566e-07
7.30771e-08
0.00107445
-5.16829e-07
-1.43315e-07
0.00107445
-5.83161e-07
-1.3735e-07
0.0010745
-2.30403e-07
2.8986e-07
0.00107447
-6.0965e-07
2.53415e-07
0.00107453
-3.32582e-07
8.2698e-08
0.00107457
-6.19235e-07
-1.6305e-07
0.00107458
-4.13464e-07
-1.28918e-07
0.00107458
-2.66777e-07
3.17633e-07
0.00107451
-6.31767e-07
3.2976e-07
0.00107457
-1.24576e-07
1.58249e-07
0.00107455
-8.30034e-07
-7.10162e-08
-2.16149e-07
-6.28164e-08
0.000955632
-4.77646e-07
2.71878e-07
0.000955611
-6.46549e-07
-1.01274e-08
0.000955648
-3.68347e-07
4.4846e-08
0.000955575
-5.80847e-07
-9.40249e-08
0.000955581
-4.95302e-07
1.39154e-07
0.000955535
-3.84268e-07
1.95876e-07
0.000955519
-6.75633e-07
3.06146e-08
0.000955537
-4.02991e-07
2.71627e-08
0.000955495
-6.51231e-07
-1.83126e-07
0.000955503
-3.82879e-07
1.4505e-07
0.000955427
-6.27751e-07
6.63115e-08
0.000955468
-4.38045e-07
2.02014e-08
0.000955412
-6.51655e-07
-4.14995e-08
0.000955429
-4.61799e-07
-1.36943e-07
0.000955409
-5.22403e-07
1.03596e-07
0.000955349
-5.46874e-07
1.3313e-07
0.000955426
-4.7848e-07
2.15474e-08
0.000955369
-6.63303e-07
-3.44913e-08
0.000955458
-4.08951e-07
-1.26192e-07
0.000955406
-6.36601e-07
9.02025e-08
0.000955439
-4.04611e-07
9.64565e-08
0.000955461
-5.96829e-07
5.57899e-08
0.000955465
-6.09061e-07
-1.16493e-07
0.000955536
-3.38822e-07
-3.75471e-08
0.000955484
-7.68269e-07
7.05198e-09
0.000955547
-2.18063e-07
1.87284e-07
0.000955541
-7.48924e-07
8.87271e-09
0.000955586
-4.37978e-07
-6.97388e-08
0.000955642
-4.9436e-07
-2.71772e-08
0.000955608
-5.71324e-07
5.73843e-09
0.000955675
-3.47841e-07
2.30922e-07
0.000955641
-6.68245e-07
-1.52607e-08
0.00095571
-3.84249e-07
-3.88748e-08
0.000955683
-5.70253e-07
-4.74552e-09
0.000955681
-4.44905e-07
3.07168e-08
0.000955676
-3.65838e-07
3.06871e-07
0.000955637
-7.2547e-07
1.96782e-08
0.000955713
-2.02585e-07
4.22017e-08
0.000955638
-7.75865e-07
1.28636e-10
-2.93256e-07
7.7162e-08
0.00083977
-4.9699e-07
5.71294e-08
0.000839765
-6.53944e-07
-1.22334e-07
0.000839779
-3.80305e-07
7.36043e-08
0.00083971
-5.78943e-07
-1.03742e-07
0.000839738
-5.47301e-07
1.13636e-07
0.000839698
-4.374e-07
-5.01948e-08
0.000839699
-6.69693e-07
-8.54869e-08
0.000839687
-4.00088e-07
2.81174e-08
0.000839666
-6.51291e-07
-1.77752e-07
0.000839669
-4.17628e-07
1.4106e-07
0.000839628
-6.35703e-07
-1.32784e-07
0.000839679
-4.7559e-07
-5.22556e-08
0.000839609
-5.73577e-07
-7.1393e-09
0.000839665
-5.16646e-07
-1.15677e-07
0.000839637
-5.21589e-07
8.99717e-08
0.000839639
-5.63918e-07
-6.13221e-08
0.000839701
-5.19324e-07
-8.0565e-08
0.000839647
-5.69578e-07
-1.06845e-08
0.000839734
-4.7561e-07
-9.53794e-08
0.00083968
-5.98563e-07
6.70882e-08
0.000839747
-4.63956e-07
-7.80636e-08
0.000839744
-5.74488e-07
-2.08351e-08
0.000839753
-5.67385e-07
-9.95324e-08
0.000839807
-3.72902e-07
3.66709e-08
0.00083976
-7.36465e-07
-5.01292e-08
0.000839842
-2.9548e-07
6.46842e-08
0.000839817
-6.99439e-07
-1.12931e-07
0.00083985
-4.33786e-07
-1.17439e-08
0.000839873
-4.91619e-07
2.82832e-08
0.000839841
-5.86297e-07
-5.29965e-08
0.000839896
-3.92077e-07
1.31492e-07
0.000839847
-6.47023e-07
-1.52314e-07
0.000839895
-3.83874e-07
6.26038e-08
0.000839838
-5.6322e-07
2.71288e-08
0.000839865
-5.03223e-07
-1.52778e-08
0.000839843
-4.00403e-07
1.68434e-07
0.00083982
-7.30722e-07
-1.60434e-07
0.000839869
-2.26104e-07
1.15211e-07
0.000839771
-7.51059e-07
-4.67694e-08
-3.79563e-07
5.34854e-08
0.000727503
-4.49958e-07
-1.04209e-07
0.000727531
-6.23973e-07
-6.78928e-08
0.000727527
-3.98734e-07
-1.98858e-08
0.000727486
-5.31277e-07
-1.42863e-07
0.000727515
-5.50254e-07
5.16344e-08
0.000727484
-4.25705e-07
-2.07809e-07
0.000727493
-6.03522e-07
-4.70567e-09
0.00072748
-4.10116e-07
-6.00666e-08
0.000727492
-6.13958e-07
-1.93047e-07
0.000727478
-3.94871e-07
1.16218e-07
0.000727479
-6.11175e-07
-2.68767e-07
0.000727512
-4.48331e-07
2.91883e-08
0.000727465
-5.16842e-07
-7.24922e-08
0.000727536
-5.42203e-07
-1.46592e-07
0.000727495
-4.5612e-07
5.12949e-08
0.000727529
-5.54582e-07
-1.79175e-07
0.000727552
-4.87133e-07
-2.85904e-08
0.000727526
-5.09195e-07
-5.92164e-08
0.000727591
-4.9956e-07
-1.07149e-07
0.00072754
-5.20961e-07
5.01104e-09
0.000727613
-4.80514e-07
-1.40522e-07
0.000727578
-5.05794e-07
-3.40192e-09
0.000727602
-5.45615e-07
-1.12786e-07
0.000727635
-3.80395e-07
1.4898e-08
0.000727583
-6.60897e-07
-1.2675e-07
0.000727663
-3.27757e-07
4.09711e-08
0.000727609
-6.21298e-07
-1.6703e-07
0.000727637
-4.27113e-07
5.63298e-08
0.000727645
-4.90237e-07
-8.12113e-08
0.000727607
-5.40171e-07
-6.90207e-08
0.000727647
-4.00842e-07
7.00586e-08
0.000727601
-6.05938e-07
-2.07756e-07
0.000727629
-3.74712e-07
1.31241e-07
0.000727581
-5.60099e-07
-1.27073e-07
0.000727618
-4.97496e-07
-2.47517e-08
0.000727566
-3.83925e-07
3.6947e-08
0.000727577
-7.03628e-07
-1.89763e-07
0.00072759
-2.43983e-07
1.10111e-07
0.000727512
-6.96833e-07
-1.68076e-07
-4.20286e-07
3.18776e-08
0.000620228
-3.57421e-07
-1.42983e-07
0.00062028
-6.06936e-07
-5.82769e-08
0.000620251
-3.57106e-07
-1.36295e-07
0.00062025
-4.55197e-07
-7.26864e-08
0.000620262
-5.38319e-07
-7.83837e-08
0.000620253
-3.54029e-07
-1.90758e-07
0.000620257
-5.46592e-07
2.98789e-08
0.000620258
-3.92388e-07
-1.99955e-07
0.000620275
-5.28251e-07
-9.30776e-08
0.000620251
-3.70393e-07
1.42116e-08
0.000620285
-5.50023e-07
-2.87504e-07
0.000620281
-4.00932e-07
8.97787e-08
0.000620269
-4.5943e-07
-2.03673e-07
0.000620318
-5.08998e-07
-8.56418e-08
0.000620277
-3.83834e-07
-2.36856e-08
0.000620317
-5.17606e-07
-1.93987e-07
0.000620312
-4.32306e-07
-2.5757e-09
0.000620311
-4.52955e-07
-1.38675e-07
0.000620336
-4.65879e-07
-7.45801e-08
0.000620307
-4.4756e-07
-6.85423e-08
0.000620358
-4.61281e-07
-1.24523e-07
0.000620307
-4.25628e-07
-3.14411e-08
0.000620351
-5.22306e-07
-1.3327e-07
0.000620342
-3.38992e-07