/*--------------------------------*- C++ -*----------------------------------*\
  =========                 |
  \\      /  F ield         | OpenFOAM: The Open Source CFD Toolbox
   \\    /   O peration     | Website:  https://openfoam.org
    \\  /    A nd           | Version:  10
     \\/     M anipulation  |
\*---------------------------------------------------------------------------*/
FoamFile
{
    format      ascii;
    class       volVectorField;
    location    "50";
    object      UMean;
}
// * * * * * * * * * * * * * * * * * * * * * * * * * * * * * * * * * * * * * //

dimensions      [0 1 -1 0 0 0 0];

internalField   nonuniform List<vector> 
25600
(
(1.03934 1.20639e-06 4.74992e-07)
(1.03933 7.39328e-07 3.09272e-07)
(1.03934 1.24648e-06 4.71788e-07)
(1.03934 9.76378e-07 3.14894e-07)
(1.03934 1.0274e-06 4.30954e-07)
(1.03934 1.28922e-06 3.95069e-07)
(1.03933 8.93198e-07 3.35042e-07)
(1.03934 1.4691e-06 4.75244e-07)
(1.03933 9.07687e-07 2.98434e-07)
(1.03934 1.42267e-06 4.69117e-07)
(1.03933 1.19514e-06 3.23285e-07)
(1.03934 1.06814e-06 4.28379e-07)
(1.03934 1.60055e-06 3.52406e-07)
(1.03933 8.48411e-07 4.01451e-07)
(1.03934 1.5384e-06 3.71177e-07)
(1.03933 1.15956e-06 3.77525e-07)
(1.03933 1.075e-06 4.22517e-07)
(1.03934 1.46181e-06 3.02463e-07)
(1.03933 9.61829e-07 5.40543e-07)
(1.03934 1.21738e-06 1.89459e-07)
(1.03933 1.25693e-06 6.39647e-07)
(1.03934 8.60478e-07 1.70703e-07)
(1.03933 1.33554e-06 6.0025e-07)
(1.03934 8.79696e-07 2.92814e-07)
(1.03934 1.07921e-06 4.53827e-07)
(1.03933 1.10045e-06 4.81537e-07)
(1.03934 7.833e-07 2.953e-07)
(1.03933 1.25382e-06 6.27506e-07)
(1.03934 6.82568e-07 2.02881e-07)
(1.03934 1.11816e-06 6.86842e-07)
(1.03933 9.39606e-07 2.08479e-07)
(1.03934 7.4844e-07 6.52193e-07)
(1.03933 1.20869e-06 3.08563e-07)
(1.03934 6.69268e-07 5.22839e-07)
(1.03933 1.03799e-06 4.55647e-07)
(1.03934 1.0221e-06 3.71146e-07)
(1.03934 6.96914e-07 5.36012e-07)
(1.03933 1.20742e-06 2.97294e-07)
(1.03934 8.19509e-07 5.15959e-07)
(1.03933 9.23127e-07 3.03861e-07)
(1.03934 1.36317e-06 5.66722e-07)
(1.03934 8.54102e-07 3.66639e-07)
(1.03934 1.45401e-06 6.01837e-07)
(1.03933 1.04826e-06 3.7652e-07)
(1.03934 1.24798e-06 5.69759e-07)
(1.03934 1.33208e-06 4.82327e-07)
(1.03934 1.14185e-06 4.52254e-07)
(1.03934 1.47614e-06 6.13322e-07)
(1.03933 1.14556e-06 3.67079e-07)
(1.03934 1.51537e-06 6.46953e-07)
(1.03933 1.28587e-06 3.88463e-07)
(1.03934 1.31949e-06 5.74902e-07)
(1.03934 1.61452e-06 4.76375e-07)
(1.03933 1.04651e-06 4.89557e-07)
(1.03934 1.71578e-06 5.33643e-07)
(1.03933 1.15345e-06 4.59808e-07)
(1.03934 1.37977e-06 5.42429e-07)
(1.03934 1.43414e-06 4.35726e-07)
(1.03933 1.15888e-06 5.87647e-07)
(1.03934 1.34609e-06 3.63595e-07)
(1.03933 1.28878e-06 6.5978e-07)
(1.03934 1.11781e-06 3.29478e-07)
(1.03933 1.2813e-06 6.57902e-07)
(1.03933 1.15118e-06 3.85711e-07)
(1.03934 1.09473e-06 5.73098e-07)
(1.03933 1.19513e-06 5.09943e-07)
(1.03934 1.04248e-06 4.43795e-07)
(1.03933 1.10441e-06 6.36043e-07)
(1.03934 1.08103e-06 3.44384e-07)
(1.03934 9.85373e-07 7.01453e-07)
(1.03933 1.15901e-06 3.28422e-07)
(1.03934 9.01105e-07 6.93606e-07)
(1.03933 1.15977e-06 3.80845e-07)
(1.03934 1.03898e-06 6.19858e-07)
(1.03934 9.16661e-07 4.63579e-07)
(1.03934 1.41588e-06 5.30698e-07)
(1.03934 6.52934e-07 5.14451e-07)
(1.03934 1.5309e-06 4.60836e-07)
(1.03934 8.8009e-07 5.36997e-07)
(1.03934 1.13652e-06 4.07783e-07)
(1.03934 1.5536e-06 7.36115e-07)
(1.03934 1.20068e-06 5.72594e-07)
(1.03934 1.68247e-06 7.86618e-07)
(1.03933 1.29605e-06 5.94417e-07)
(1.03934 1.57928e-06 7.68581e-07)
(1.03934 1.4715e-06 6.98549e-07)
(1.03934 1.55062e-06 6.73863e-07)
(1.03934 1.56762e-06 8.32646e-07)
(1.03933 1.56086e-06 5.85099e-07)
(1.03934 1.69483e-06 8.70447e-07)
(1.03933 1.5652e-06 6.13383e-07)
(1.03934 1.69077e-06 7.74459e-07)
(1.03933 1.75991e-06 7.27682e-07)
(1.03933 1.45289e-06 6.57443e-07)
(1.03934 1.96107e-06 7.9736e-07)
(1.03933 1.38325e-06 6.28761e-07)
(1.03934 1.78585e-06 7.71513e-07)
(1.03933 1.59547e-06 6.48513e-07)
(1.03933 1.49669e-06 7.52731e-07)
(1.03934 1.66185e-06 6.17001e-07)
(1.03933 1.43156e-06 7.92456e-07)
(1.03934 1.56332e-06 5.65058e-07)
(1.03933 1.35708e-06 8.20732e-07)
(1.03933 1.54541e-06 5.53971e-07)
(1.03934 1.28319e-06 7.93271e-07)
(1.03933 1.39987e-06 6.13793e-07)
(1.03934 1.41634e-06 7.05516e-07)
(1.03933 1.14443e-06 7.11168e-07)
(1.03934 1.51871e-06 6.09852e-07)
(1.03934 1.0846e-06 7.87313e-07)
(1.03933 1.43172e-06 5.63858e-07)
(1.03934 1.23387e-06 8.22695e-07)
(1.03933 1.26601e-06 5.54969e-07)
(1.03934 1.46124e-06 8.12607e-07)
(1.03934 1.08213e-06 5.7285e-07)
(1.03933 1.73129e-06 7.79236e-07)
(1.03934 9.41273e-07 5.98406e-07)
(1.03934 1.80022e-06 7.1762e-07)
(1.03934 1.14433e-06 6.56457e-07)
(1.03934 1.47391e-06 6.29034e-07)
(1.03933 1.84733e-06 1.06805e-06)
(1.03934 1.69823e-06 9.35115e-07)
(1.03934 2.00772e-06 1.11526e-06)
(1.03933 1.69348e-06 9.75767e-07)
(1.03934 2.03494e-06 1.10194e-06)
(1.03934 1.76544e-06 1.06667e-06)
(1.03934 2.09333e-06 1.03103e-06)
(1.03934 1.84849e-06 1.18401e-06)
(1.03933 2.10541e-06 9.65439e-07)
(1.03934 2.05305e-06 1.2172e-06)
(1.03933 1.99948e-06 1.01704e-06)
(1.03934 2.19822e-06 1.11621e-06)
(1.03933 2.06108e-06 1.14143e-06)
(1.03933 2.02319e-06 1.00303e-06)
(1.03934 2.29743e-06 1.20005e-06)
(1.03933 1.84062e-06 9.82043e-07)
(1.03934 2.25887e-06 1.14122e-06)
(1.03933 1.96782e-06 1.02022e-06)
(1.03933 1.94674e-06 1.07806e-06)
(1.03934 2.12334e-06 1.00381e-06)
(1.03933 1.71312e-06 1.09567e-06)
(1.03934 2.1245e-06 9.30383e-07)
(1.03933 1.5789e-06 1.14552e-06)
(1.03933 2.05702e-06 8.63123e-07)
(1.03934 1.58945e-06 1.16027e-06)
(1.03933 1.78355e-06 8.74282e-07)
(1.03934 1.82197e-06 1.1091e-06)
(1.03933 1.44845e-06 9.49993e-07)
(1.03934 1.93684e-06 1.02653e-06)
(1.03934 1.44734e-06 1.03549e-06)
(1.03933 1.7349e-06 9.54203e-07)
(1.03934 1.73691e-06 1.11192e-06)
(1.03933 1.49425e-06 8.98003e-07)
(1.03934 1.94856e-06 1.1523e-06)
(1.03934 1.42739e-06 8.77078e-07)
(1.03933 2.05389e-06 1.15168e-06)
(1.03934 1.42003e-06 8.86449e-07)
(1.03934 2.08523e-06 1.09071e-06)
(1.03933 1.56127e-06 9.65066e-07)
(1.03934 1.90168e-06 9.84612e-07)
(1.03933 2.23445e-06 1.60801e-06)
(1.03934 2.38718e-06 1.47454e-06)
(1.03934 2.42908e-06 1.65715e-06)
(1.03933 2.30219e-06 1.53587e-06)
(1.03934 2.59236e-06 1.66019e-06)
(1.03934 2.30361e-06 1.61597e-06)
(1.03934 2.72895e-06 1.62011e-06)
(1.03934 2.39761e-06 1.70822e-06)
(1.03933 2.7311e-06 1.57593e-06)
(1.03934 2.65026e-06 1.72523e-06)
(1.03933 2.54377e-06 1.63941e-06)
(1.03934 2.89286e-06 1.62708e-06)
(1.03933 2.505e-06 1.75887e-06)
(1.03934 2.78601e-06 1.53771e-06)
(1.03934 2.74518e-06 1.78567e-06)
(1.03933 2.5244e-06 1.52754e-06)
(1.03934 2.81454e-06 1.68975e-06)
(1.03933 2.54466e-06 1.57591e-06)
(1.03933 2.53098e-06 1.59717e-06)
(1.03934 2.7313e-06 1.56969e-06)
(1.03933 2.21396e-06 1.60112e-06)
(1.03934 2.81278e-06 1.47846e-06)
(1.03933 2.03752e-06 1.6636e-06)
(1.03933 2.7297e-06 1.38107e-06)
(1.03934 2.06889e-06 1.70781e-06)
(1.03933 2.39749e-06 1.37045e-06)
(1.03934 2.3039e-06 1.68928e-06)
(1.03933 2.02356e-06 1.43386e-06)
(1.03934 2.39358e-06 1.62356e-06)
(1.03934 2.03089e-06 1.52132e-06)
(1.03933 2.1371e-06 1.53031e-06)
(1.03934 2.36481e-06 1.61717e-06)
(1.03934 1.88796e-06 1.43332e-06)
(1.03934 2.54571e-06 1.67592e-06)
(1.03934 1.93252e-06 1.38891e-06)
(1.03933 2.53898e-06 1.68318e-06)
(1.03934 2.02179e-06 1.3961e-06)
(1.03934 2.56784e-06 1.62343e-06)
(1.03933 2.08227e-06 1.48872e-06)
(1.03934 2.52371e-06 1.51004e-06)
(1.03933 2.78381e-06 2.45483e-06)
(1.03934 3.30118e-06 2.32322e-06)
(1.03934 2.98606e-06 2.50783e-06)
(1.03933 3.15549e-06 2.4003e-06)
(1.03934 3.23589e-06 2.53193e-06)
(1.03934 3.11974e-06 2.47745e-06)
(1.03934 3.40158e-06 2.52849e-06)
(1.03934 3.23317e-06 2.55025e-06)
(1.03934 3.37995e-06 2.50701e-06)
(1.03934 3.50867e-06 2.54851e-06)
(1.03933 3.15644e-06 2.58529e-06)
(1.03934 3.79874e-06 2.458e-06)
(1.03933 3.04651e-06 2.69649e-06)
(1.03934 3.74948e-06 2.39128e-06)
(1.03934 3.25814e-06 2.69201e-06)
(1.03933 3.44204e-06 2.38684e-06)
(1.03934 3.41109e-06 2.5664e-06)
(1.03933 3.35669e-06 2.42766e-06)
(1.03933 3.211e-06 2.44316e-06)
(1.03933 3.53461e-06 2.41048e-06)
(1.03933 2.89713e-06 2.42171e-06)
(1.03933 3.6723e-06 2.3039e-06)
(1.03933 2.70289e-06 2.47907e-06)
(1.03933 3.60445e-06 2.19077e-06)
(1.03933 2.7016e-06 2.52907e-06)
(1.03933 3.27257e-06 2.17735e-06)
(1.03933 2.86649e-06 2.53072e-06)
(1.03933 2.88389e-06 2.23866e-06)
(1.03934 2.91495e-06 2.4806e-06)
(1.03934 2.84756e-06 2.32027e-06)
(1.03933 2.67083e-06 2.37581e-06)
(1.03934 3.14494e-06 2.42188e-06)
(1.03934 2.47382e-06 2.25845e-06)
(1.03934 3.28755e-06 2.48474e-06)
(1.03934 2.61339e-06 2.20642e-06)
(1.03933 3.238e-06 2.49833e-06)
(1.03934 2.77417e-06 2.22138e-06)
(1.03934 3.30628e-06 2.44806e-06)
(1.03933 2.7574e-06 2.32532e-06)
(1.03934 3.388e-06 2.34342e-06)
(1.03933 3.40574e-06 3.80985e-06)
(1.03934 4.40873e-06 3.60408e-06)
(1.03934 3.6231e-06 3.87449e-06)
(1.03933 4.23154e-06 3.69544e-06)
(1.03934 3.9275e-06 3.91727e-06)
(1.03934 4.19403e-06 3.77097e-06)
(1.03934 4.09051e-06 3.93649e-06)
(1.03934 4.33758e-06 3.83272e-06)
(1.03934 4.03587e-06 3.92729e-06)
(1.03934 4.60848e-06 3.81423e-06)
(1.03933 3.79981e-06 3.9977e-06)
(1.03934 4.89896e-06 3.71413e-06)
(1.03933 3.63976e-06 4.084e-06)
(1.03934 4.87735e-06 3.65419e-06)
(1.03933 3.81003e-06 4.05314e-06)
(1.03933 4.57088e-06 3.6548e-06)
(1.03934 4.05104e-06 3.92051e-06)
(1.03933 4.42398e-06 3.69475e-06)
(1.03933 3.96388e-06 3.78806e-06)
(1.03933 4.54668e-06 3.67012e-06)
(1.03933 3.66713e-06 3.75609e-06)
(1.03933 4.68713e-06 3.55892e-06)
(1.03933 3.44085e-06 3.80438e-06)
(1.03933 4.63947e-06 3.44232e-06)
(1.03933 3.35428e-06 3.84265e-06)
(1.03933 4.34613e-06 3.42976e-06)
(1.03933 3.40447e-06 3.84855e-06)
(1.03933 3.97061e-06 3.48762e-06)
(1.03933 3.4163e-06 3.81195e-06)
(1.03933 3.8681e-06 3.55361e-06)
(1.03933 3.23291e-06 3.69993e-06)
(1.03934 4.08929e-06 3.63786e-06)
(1.03934 3.12484e-06 3.57086e-06)
(1.03934 4.20106e-06 3.69378e-06)
(1.03934 3.33325e-06 3.52687e-06)
(1.03933 4.15829e-06 3.71443e-06)
(1.03934 3.53069e-06 3.55329e-06)
(1.03934 4.27401e-06 3.68371e-06)
(1.03933 3.45433e-06 3.66754e-06)
(1.03934 4.45291e-06 3.60367e-06)
(1.03933 3.81961e-06 5.96024e-06)
(1.03934 5.6021e-06 5.60967e-06)
(1.03934 4.06036e-06 6.04259e-06)
(1.03933 5.42391e-06 5.69767e-06)
(1.03934 4.40351e-06 6.09199e-06)
(1.03933 5.40778e-06 5.766e-06)
(1.03933 4.55215e-06 6.12247e-06)
(1.03933 5.5918e-06 5.828e-06)
(1.03933 4.47924e-06 6.12697e-06)
(1.03933 5.8549e-06 5.81567e-06)
(1.03933 4.25313e-06 6.18899e-06)
(1.03933 6.12085e-06 5.71181e-06)
(1.03933 4.07148e-06 6.24622e-06)
(1.03933 6.12412e-06 5.6452e-06)
(1.03933 4.22758e-06 6.18867e-06)
(1.03933 5.85404e-06 5.63192e-06)
(1.03933 4.55735e-06 6.04071e-06)
(1.03933 5.66236e-06 5.64912e-06)
(1.03933 4.58579e-06 5.88884e-06)
(1.03933 5.70642e-06 5.61147e-06)
(1.03933 4.32647e-06 5.85138e-06)
(1.03933 5.81803e-06 5.51179e-06)
(1.03933 4.06619e-06 5.89402e-06)
(1.03933 5.78278e-06 5.40583e-06)
(1.03933 3.85727e-06 5.91605e-06)
(1.03933 5.52724e-06 5.40079e-06)
(1.03933 3.75688e-06 5.91987e-06)
(1.03933 5.16568e-06 5.4553e-06)
(1.03933 3.7257e-06 5.89306e-06)
(1.03933 4.99557e-06 5.49577e-06)
(1.03933 3.6295e-06 5.78489e-06)
(1.03933 5.12004e-06 5.55734e-06)
(1.03933 3.61851e-06 5.66324e-06)
(1.03934 5.21996e-06 5.60245e-06)
(1.03934 3.8725e-06 5.63028e-06)
(1.03933 5.22557e-06 5.62818e-06)
(1.03934 4.06359e-06 5.66363e-06)
(1.03933 5.38862e-06 5.62112e-06)
(1.03933 3.92672e-06 5.78581e-06)
(1.03934 5.62031e-06 5.58138e-06)
(1.03933 3.70347e-06 9.39631e-06)
(1.03933 6.68233e-06 8.82182e-06)
(1.03933 3.94444e-06 9.51231e-06)
(1.03933 6.49377e-06 8.91568e-06)
(1.03933 4.29107e-06 9.5862e-06)
(1.03933 6.51435e-06 8.99023e-06)
(1.03933 4.41828e-06 9.62858e-06)
(1.03933 6.75038e-06 9.04983e-06)
(1.03933 4.34713e-06 9.61618e-06)
(1.03933 7.01954e-06 9.02838e-06)
(1.03933 4.15633e-06 9.64359e-06)
(1.03933 7.26832e-06 8.92179e-06)
(1.03933 3.99378e-06 9.67546e-06)
(1.03933 7.32011e-06 8.83866e-06)
(1.03933 4.15666e-06 9.59687e-06)
(1.03933 7.08485e-06 8.79729e-06)
(1.03933 4.52387e-06 9.42942e-06)
(1.03933 6.82863e-06 8.77655e-06)
(1.03933 4.64371e-06 9.25738e-06)
(1.03933 6.80015e-06 8.72432e-06)
(1.03933 4.45973e-06 9.21388e-06)
(1.03933 6.87908e-06 8.63564e-06)
(1.03933 4.17589e-06 9.23638e-06)
(1.03933 6.84614e-06 8.53116e-06)
(1.03933 3.83688e-06 9.22267e-06)
(1.03933 6.61681e-06 8.53234e-06)
(1.03933 3.57856e-06 9.22313e-06)
(1.03933 6.2724e-06 8.58085e-06)
(1.03933 3.51064e-06 9.20532e-06)
(1.03933 6.04883e-06 8.60143e-06)
(1.03933 3.50669e-06 9.12293e-06)
(1.03933 6.06935e-06 8.65308e-06)
(1.03933 3.5789e-06 9.04378e-06)
(1.03933 6.14159e-06 8.70605e-06)
(1.03933 3.85012e-06 9.03126e-06)
(1.03933 6.21835e-06 8.74519e-06)
(1.03933 4.03154e-06 9.06459e-06)
(1.03933 6.43813e-06 8.76027e-06)
(1.03933 3.85275e-06 9.18523e-06)
(1.03933 6.70346e-06 8.75997e-06)
(1.03933 2.23253e-06 1.49646e-05)
(1.03933 7.01591e-06 1.4132e-05)
(1.03933 2.46803e-06 1.51327e-05)
(1.03933 6.81698e-06 1.42419e-05)
(1.03933 2.81063e-06 1.52362e-05)
(1.03933 6.87078e-06 1.4316e-05)
(1.03933 2.89111e-06 1.52706e-05)
(1.03933 7.12149e-06 1.43618e-05)
(1.03933 2.80976e-06 1.52188e-05)
(1.03933 7.38533e-06 1.43283e-05)
(1.03933 2.65775e-06 1.51993e-05)
(1.03933 7.63806e-06 1.42146e-05)
(1.03933 2.57573e-06 1.51932e-05)
(1.03933 7.79008e-06 1.40955e-05)
(1.03933 2.78028e-06 1.50906e-05)
(1.03933 7.60751e-06 1.40062e-05)
(1.03933 3.17093e-06 1.49084e-05)
(1.03933 7.31109e-06 1.39592e-05)
(1.03933 3.37639e-06 1.47367e-05)
(1.03933 7.22439e-06 1.39015e-05)
(1.03933 3.27351e-06 1.46817e-05)
(1.03933 7.25973e-06 1.38147e-05)
(1.03933 2.96967e-06 1.46738e-05)
(1.03933 7.20852e-06 1.37022e-05)
(1.03933 2.49655e-06 1.46188e-05)
(1.03933 6.98509e-06 1.37076e-05)
(1.03933 2.07982e-06 1.46209e-05)
(1.03933 6.66668e-06 1.37558e-05)
(1.03933 1.97622e-06 1.46109e-05)
(1.03933 6.4019e-06 1.37616e-05)
(1.03933 2.05367e-06 1.45798e-05)
(1.03933 6.32426e-06 1.38247e-05)
(1.03933 2.19739e-06 1.45575e-05)
(1.03933 6.37052e-06 1.3888e-05)
(1.03933 2.46389e-06 1.45709e-05)
(1.03933 6.50017e-06 1.39589e-05)
(1.03933 2.60589e-06 1.46143e-05)
(1.03933 6.75681e-06 1.3999e-05)
(1.03933 2.3992e-06 1.47248e-05)
(1.03933 7.0507e-06 1.40316e-05)
(1.03933 -1.79156e-06 2.38185e-05)
(1.03933 5.60117e-06 2.27996e-05)
(1.03933 -1.55465e-06 2.40381e-05)
(1.03933 5.38706e-06 2.29083e-05)
(1.03933 -1.25043e-06 2.41467e-05)
(1.03933 5.45036e-06 2.29678e-05)
(1.03933 -1.21311e-06 2.41705e-05)
(1.03933 5.67892e-06 2.29881e-05)
(1.03933 -1.32559e-06 2.40466e-05)
(1.03933 5.92399e-06 2.29214e-05)
(1.03933 -1.41852e-06 2.39812e-05)
(1.03933 6.22171e-06 2.28112e-05)
(1.03933 -1.38874e-06 2.39338e-05)
(1.03933 6.50334e-06 2.2631e-05)
(1.03933 -1.10973e-06 2.37823e-05)
(1.03933 6.40461e-06 2.24828e-05)
(1.03933 -6.97268e-07 2.36031e-05)
(1.03933 6.087e-06 2.24186e-05)
(1.03933 -4.27023e-07 2.34182e-05)
(1.03933 5.9562e-06 2.23301e-05)
(1.03933 -4.36259e-07 2.33424e-05)
(1.03933 5.96917e-06 2.22577e-05)
(1.03933 -7.26769e-07 2.33179e-05)
(1.03933 5.92124e-06 2.21436e-05)
(1.03933 -1.27083e-06 2.32248e-05)
(1.03933 5.72876e-06 2.21669e-05)
(1.03933 -1.82686e-06 2.32593e-05)
(1.03933 5.39806e-06 2.22411e-05)
(1.03933 -2.02333e-06 2.32709e-05)
(1.03933 5.06786e-06 2.22316e-05)
(1.03933 -1.88501e-06 2.33105e-05)
(1.03933 4.93277e-06 2.23364e-05)
(1.03933 -1.66345e-06 2.33734e-05)
(1.03933 4.94403e-06 2.24137e-05)
(1.03933 -1.4419e-06 2.3389e-05)
(1.03933 5.0863e-06 2.24967e-05)
(1.03933 -1.3558e-06 2.34342e-05)
(1.03933 5.35011e-06 2.2564e-05)
(1.03933 -1.60612e-06 2.35321e-05)
(1.03933 5.64555e-06 2.26378e-05)
(1.03932 -1.02346e-05 3.72484e-05)
(1.03932 6.98813e-07 3.63895e-05)
(1.03932 -1.00029e-05 3.75893e-05)
(1.03932 4.78961e-07 3.64773e-05)
(1.03932 -9.74498e-06 3.76444e-05)
(1.03932 5.22929e-07 3.65183e-05)
(1.03932 -9.76882e-06 3.76796e-05)
(1.03932 7.23428e-07 3.65069e-05)
(1.03932 -9.89184e-06 3.74194e-05)
(1.03932 9.8306e-07 3.63409e-05)
(1.03932 -9.87069e-06 3.72869e-05)
(1.03932 1.36834e-06 3.62559e-05)
(1.03932 -9.71123e-06 3.71941e-05)
(1.03932 1.80125e-06 3.59421e-05)
(1.03932 -9.32068e-06 3.69365e-05)
(1.03932 1.83264e-06 3.57429e-05)
(1.03932 -8.88702e-06 3.68164e-05)
(1.03932 1.50413e-06 3.56835e-05)
(1.03932 -8.57046e-06 3.65706e-05)
(1.03932 1.33999e-06 3.55141e-05)
(1.03932 -8.49521e-06 3.65042e-05)
(1.03932 1.35205e-06 3.55368e-05)
(1.03932 -8.73723e-06 3.65179e-05)
(1.03932 1.3033e-06 3.53958e-05)
(1.03932 -9.33393e-06 3.63452e-05)
(1.03932 1.13469e-06 3.54308e-05)
(1.03932 -1.0017e-05 3.64545e-05)
(1.03932 7.57295e-07 3.55544e-05)
(1.03932 -1.03354e-05 3.64596e-05)
(1.03932 3.45574e-07 3.55028e-05)
(1.03932 -1.01693e-05 3.66078e-05)
(1.03932 1.69343e-07 3.57446e-05)
(1.03932 -9.90152e-06 3.68178e-05)
(1.03932 1.24237e-07 3.58195e-05)
(1.03932 -9.72292e-06 3.67888e-05)
(1.03932 2.69553e-07 3.59149e-05)
(1.03932 -9.67821e-06 3.68479e-05)
(1.03932 5.27012e-07 3.60014e-05)
(1.03932 -9.99827e-06 3.68798e-05)
(1.03932 7.68951e-07 3.60682e-05)
(1.03928 -2.53385e-05 5.59779e-05)
(1.03928 -9.83699e-06 5.59149e-05)
(1.03928 -2.51622e-05 5.64235e-05)
(1.03928 -1.0064e-05 5.58965e-05)
(1.03928 -2.49038e-05 5.63518e-05)
(1.03928 -1.00394e-05 5.59635e-05)
(1.03928 -2.503e-05 5.64742e-05)
(1.03928 -9.91757e-06 5.5912e-05)
(1.03928 -2.51494e-05 5.59565e-05)
(1.03928 -9.58945e-06 5.55324e-05)
(1.03928 -2.497e-05 5.57522e-05)
(1.03928 -9.07664e-06 5.55076e-05)
(1.03928 -2.46178e-05 5.55805e-05)
(1.03928 -8.45766e-06 5.49564e-05)
(1.03928 -2.41243e-05 5.51567e-05)
(1.03928 -8.28567e-06 5.47546e-05)
(1.03928 -2.36615e-05 5.51968e-05)
(1.03928 -8.58809e-06 5.47126e-05)
(1.03928 -2.3309e-05 5.47889e-05)
(1.03928 -8.77373e-06 5.44103e-05)
(1.03928 -2.3153e-05 5.48098e-05)
(1.03928 -8.74902e-06 5.46627e-05)
(1.03928 -2.33073e-05 5.48956e-05)
(1.03928 -8.76594e-06 5.44361e-05)
(1.03928 -2.39297e-05 5.46043e-05)
(1.03928 -8.94002e-06 5.45218e-05)
(1.03928 -2.47654e-05 5.48698e-05)
(1.03928 -9.42142e-06 5.469e-05)
(1.03928 -2.52268e-05 5.48065e-05)
(1.03928 -9.85906e-06 5.4594e-05)
(1.03928 -2.50168e-05 5.51811e-05)
(1.03928 -1.00957e-05 5.51041e-05)
(1.03928 -2.47944e-05 5.55709e-05)
(1.03928 -1.02436e-05 5.50955e-05)
(1.03928 -2.46441e-05 5.54347e-05)
(1.03928 -1.00873e-05 5.52272e-05)
(1.03928 -2.46156e-05 5.55675e-05)
(1.03928 -9.85996e-06 5.53217e-05)
(1.03928 -2.50284e-05 5.54395e-05)
(1.03928 -9.69095e-06 5.53457e-05)
(1.0391 -4.95673e-05 7.88222e-05)
(1.03911 -2.86469e-05 8.06039e-05)
(1.0391 -4.9507e-05 7.92711e-05)
(1.03911 -2.88845e-05 8.03443e-05)
(1.0391 -4.92344e-05 7.90615e-05)
(1.03911 -2.89357e-05 8.05222e-05)
(1.0391 -4.95118e-05 7.92732e-05)
(1.03911 -2.89299e-05 8.02876e-05)
(1.0391 -4.96361e-05 7.83598e-05)
(1.03911 -2.85234e-05 7.97251e-05)
(1.0391 -4.92141e-05 7.81978e-05)
(1.03911 -2.77611e-05 7.97441e-05)
(1.0391 -4.85587e-05 7.77987e-05)
(1.03911 -2.69126e-05 7.88671e-05)
(1.0391 -4.79895e-05 7.72799e-05)
(1.03911 -2.66547e-05 7.8823e-05)
(1.0391 -4.75406e-05 7.75186e-05)
(1.03911 -2.69081e-05 7.86874e-05)
(1.0391 -4.71314e-05 7.68315e-05)
(1.03911 -2.70302e-05 7.83124e-05)
(1.0391 -4.68772e-05 7.7106e-05)
(1.03911 -2.69859e-05 7.88726e-05)
(1.0391 -4.69063e-05 7.7186e-05)
(1.03911 -2.68872e-05 7.84746e-05)
(1.0391 -4.74241e-05 7.68078e-05)
(1.03911 -2.70283e-05 7.87435e-05)
(1.0391 -4.84558e-05 7.72534e-05)
(1.03911 -2.77245e-05 7.88631e-05)
(1.0391 -4.90797e-05 7.70688e-05)
(1.03911 -2.81217e-05 7.88215e-05)
(1.0391 -4.87934e-05 7.78421e-05)
(1.03911 -2.83887e-05 7.96406e-05)
(1.0391 -4.8684e-05 7.83206e-05)
(1.03911 -2.87106e-05 7.94598e-05)
(1.0391 -4.86309e-05 7.81342e-05)
(1.03911 -2.86048e-05 7.97312e-05)
(1.0391 -4.86239e-05 7.83371e-05)
(1.03911 -2.84295e-05 7.9688e-05)
(1.0391 -4.91158e-05 7.79502e-05)
(1.03911 -2.83172e-05 7.9744e-05)
(1.03851 -8.47901e-05 0.000101046)
(1.03854 -5.75012e-05 0.000106067)
(1.03851 -8.47858e-05 0.000101287)
(1.03854 -5.76785e-05 0.000105637)
(1.03851 -8.45503e-05 0.000101217)
(1.03854 -5.7973e-05 0.000106006)
(1.03851 -8.51241e-05 0.000101221)
(1.03854 -5.81288e-05 0.000105286)
(1.03851 -8.51412e-05 9.98965e-05)
(1.03854 -5.74878e-05 0.000104776)
(1.03851 -8.43893e-05 9.98335e-05)
(1.03854 -5.63766e-05 0.000104613)
(1.03851 -8.32887e-05 9.89937e-05)
(1.03854 -5.51836e-05 0.000103471)
(1.03851 -8.26105e-05 9.86493e-05)
(1.03854 -5.50021e-05 0.000103701)
(1.03851 -8.23191e-05 9.88808e-05)
(1.03854 -5.5234e-05 0.000103212)
(1.03851 -8.1742e-05 9.79764e-05)
(1.03854 -5.51286e-05 0.000103072)
(1.03851 -8.13591e-05 9.86704e-05)
(1.03854 -5.50582e-05 0.000103811)
(1.03851 -8.11942e-05 9.85729e-05)
(1.03854 -5.47759e-05 0.000103337)
(1.03851 -8.15266e-05 9.83651e-05)
(1.03854 -5.49188e-05 0.000103889)
(1.03851 -8.28264e-05 9.88134e-05)
(1.03854 -5.59059e-05 0.000103764)
(1.03851 -8.35562e-05 9.86052e-05)
(1.03854 -5.61786e-05 0.000104081)
(1.03851 -8.32548e-05 9.98823e-05)
(1.03854 -5.6559e-05 0.000105029)
(1.03851 -8.3384e-05 0.000100258)
(1.03854 -5.70257e-05 0.000104796)
(1.03852 -8.33903e-05 0.00010032)
(1.03854 -5.70845e-05 0.000105281)
(1.03851 -8.36432e-05 0.000100345)
(1.03854 -5.70311e-05 0.000104812)
(1.03851 -8.41581e-05 9.97498e-05)
(1.03854 -5.69509e-05 0.000105125)
(1.03688 -0.000131248 0.000114865)
(1.03695 -9.69086e-05 0.000124715)
(1.03688 -0.000131008 0.000114903)
(1.03695 -9.67343e-05 0.00012457)
(1.03688 -0.000130822 0.000115293)
(1.03695 -9.7564e-05 0.000124824)
(1.03688 -0.000131728 0.000114539)
(1.03695 -9.76739e-05 0.000123505)
(1.03688 -0.000131491 0.000113177)
(1.03695 -9.67831e-05 0.00012332)
(1.03688 -0.000130495 0.00011289)
(1.03695 -9.53093e-05 0.00012255)
(1.03688 -0.000128749 0.000111602)
(1.03695 -9.36375e-05 0.00012157)
(1.03688 -0.000127942 0.000111774)
(1.03695 -9.37679e-05 0.000121868)
(1.03688 -0.000128049 0.000111533)
(1.03695 -9.39628e-05 0.000121017)
(1.03688 -0.000127224 0.000110898)
(1.03695 -9.36203e-05 0.000121485)
(1.03688 -0.000126778 0.000111794)
(1.03695 -9.35876e-05 0.00012196)
(1.03688 -0.000126293 0.000111536)
(1.03695 -9.28067e-05 0.000121825)
(1.03688 -0.000126369 0.00011177)
(1.03695 -9.33028e-05 0.000122412)
(1.03688 -0.000128237 0.00011178)
(1.03695 -9.45845e-05 0.000122088)
(1.03688 -0.000128764 0.000112004)
(1.03695 -9.4556e-05 0.000123074)
(1.03688 -0.000128546 0.000113524)
(1.03695 -9.52917e-05 0.000123724)
(1.03688 -0.000128962 0.000113885)
(1.03695 -9.57718e-05 0.000123953)
(1.03688 -0.000129008 0.000114454)
(1.03695 -9.61112e-05 0.000124305)
(1.03688 -0.000129793 0.000113756)
(1.03695 -9.62424e-05 0.000123294)
(1.03688 -0.000130281 0.000113385)
(1.03695 -9.62465e-05 0.000124167)
(1.0331 -0.000185887 0.000114323)
(1.03324 -0.000144562 0.000130849)
(1.0331 -0.000185116 0.000114747)
(1.03324 -0.000143804 0.000131424)
(1.0331 -0.000185205 0.000115381)
(1.03324 -0.000145428 0.000130923)
(1.0331 -0.000186591 0.000113764)
(1.03324 -0.000145106 0.000129542)
(1.0331 -0.000185886 0.000112768)
(1.03324 -0.000144024 0.00012939)
(1.0331 -0.000184647 0.00011163)
(1.03324 -0.000142043 0.000127867)
(1.0331 -0.000181954 0.000110321)
(1.03324 -0.000139637 0.000127417)
(1.0331 -0.000181084 0.00011078)
(1.03324 -0.000140271 0.000127258)
(1.0331 -0.0001815 0.000109948)
(1.03324 -0.000140353 0.000126556)
(1.0331 -0.000180443 0.000109981)
(1.03324 -0.000139935 0.000127425)
(1.0331 -0.000180209 0.000110568)
(1.03324 -0.000139699 0.000127606)
(1.0331 -0.00017876 0.00011067)
(1.03324 -0.000137809 0.000128197)
(1.0331 -0.000178451 0.000111084)
(1.03324 -0.000139159 0.000128211)
(1.0331 -0.000181105 0.000110583)
(1.03324 -0.000140691 0.00012827)
(1.0331 -0.000181107 0.000111683)
(1.03324 -0.000140542 0.000129631)
(1.03311 -0.000181428 0.000112919)
(1.03324 -0.000141943 0.000129996)
(1.0331 -0.000181999 0.000113816)
(1.03324 -0.000142199 0.000131094)
(1.0331 -0.000182219 0.000114526)
(1.03324 -0.00014304 0.000130653)
(1.0331 -0.000183675 0.00011293)
(1.03324 -0.000143283 0.000129672)
(1.0331 -0.000184172 0.000113158)
(1.03324 -0.000143721 0.0001308)
(1.02557 -0.000243901 0.000104297)
(1.02581 -0.000196284 0.00012851)
(1.02557 -0.000242452 0.000105375)
(1.02581 -0.000194944 0.000129405)
(1.02557 -0.000243435 0.000105866)
(1.02581 -0.000197665 0.000127968)
(1.02557 -0.000244759 0.000103846)
(1.02581 -0.000196744 0.000126895)
(1.02557 -0.000243861 0.000103018)
(1.02581 -0.000195753 0.000126236)
(1.02557 -0.0002426 0.000100772)
(1.02581 -0.000192846 0.000124392)
(1.02557 -0.000238772 9.96409e-05)
(1.02581 -0.000189991 0.000124235)
(1.02557 -0.000238377 0.000100047)
(1.02581 -0.000191399 0.000123466)
(1.02558 -0.000238821 9.89075e-05)
(1.02581 -0.000191118 0.000123136)
(1.02558 -0.000237461 9.93301e-05)
(1.02581 -0.00019112 0.000123992)
(1.02558 -0.000238051 9.94866e-05)
(1.02581 -0.000190402 0.000124295)
(1.02558 -0.000234791 0.000100127)
(1.02581 -0.000186982 0.000125291)
(1.02558 -0.00023416 0.000100227)
(1.02581 -0.000189349 0.000124818)
(1.02558 -0.000237536 9.97254e-05)
(1.02581 -0.000190508 0.00012569)
(1.02558 -0.000236386 0.000101656)
(1.02581 -0.000190654 0.00012713)
(1.02558 -0.00023776 0.000102734)
(1.02581 -0.000192573 0.000127642)
(1.02558 -0.000237908 0.000104575)
(1.02581 -0.000192548 0.000129353)
(1.02558 -0.000238591 0.000104948)
(1.02581 -0.000194343 0.000128019)
(1.02557 -0.000240358 0.000102799)
(1.02581 -0.000194311 0.00012742)
(1.02557 -0.000241059 0.000103514)
(1.02581 -0.000195636 0.000128614)
(1.01237 -0.000299663 0.000101444)
(1.01272 -0.000247386 0.000132361)
(1.01237 -0.000296778 0.000103084)
(1.01272 -0.000245108 0.000133438)
(1.01237 -0.000299346 0.000103319)
(1.01272 -0.000249357 0.000130813)
(1.01237 -0.000299825 0.000101207)
(1.01272 -0.000248082 0.000130057)
(1.01237 -0.000298839 0.000100591)
(1.01272 -0.000246915 0.000128742)
(1.01237 -0.000297096 9.69108e-05)
(1.01272 -0.000241859 0.000126786)
(1.01237 -0.000291561 9.60022e-05)
(1.01272 -0.000238662 0.00012714)
(1.01237 -0.000291965 9.63468e-05)
(1.01272 -0.000241293 0.000125327)
(1.01237 -0.000292439 9.48914e-05)
(1.01272 -0.00024051 0.000125191)
(1.01237 -0.000290864 9.5706e-05)
(1.01272 -0.00024127 0.000125876)
(1.01237 -0.000292399 9.52068e-05)
(1.01272 -0.000239898 0.000126319)
(1.01237 -0.000287152 9.64185e-05)
(1.01272 -0.000234345 0.000127806)
(1.01237 -0.000286699 9.61405e-05)
(1.01272 -0.00023786 0.000127142)
(1.01237 -0.000290703 9.61297e-05)
(1.01272 -0.000238914 0.000129509)
(1.01237 -0.000288751 9.90436e-05)
(1.01272 -0.000240122 0.000131145)
(1.01237 -0.000291469 9.99123e-05)
(1.01272 -0.000242378 0.00013179)
(1.01237 -0.000290512 0.000102889)
(1.01272 -0.000241838 0.000134011)
(1.01237 -0.000292221 0.000103144)
(1.01272 -0.000245685 0.000131661)
(1.01237 -0.00029414 0.000100506)
(1.01272 -0.000244927 0.000131508)
(1.01237 -0.000295246 0.000101521)
(1.01272 -0.000247312 0.000132679)
(0.991487 -0.000339343 0.000135876)
(0.991929 -0.000286624 0.000170174)
(0.991489 -0.000336001 0.000139225)
(0.991928 -0.000283868 0.000172375)
(0.991488 -0.000340461 0.000137534)
(0.991928 -0.000289522 0.00016788)
(0.991491 -0.000340996 0.000137121)
(0.99193 -0.00028828 0.000169334)
(0.991492 -0.000339578 0.000138227)
(0.991933 -0.000287371 0.000165799)
(0.991493 -0.000337032 0.000132368)
(0.991936 -0.000279366 0.000164609)
(0.991493 -0.000329271 0.000132995)
(0.991935 -0.000274788 0.000166233)
(0.991491 -0.000330566 0.000131499)
(0.991935 -0.000279019 0.00016232)
(0.991494 -0.000331875 0.000130835)
(0.991936 -0.000277614 0.00016441)
(0.991497 -0.000329524 0.000132963)
(0.991934 -0.000280178 0.00016354)
(0.991498 -0.00033191 0.000131002)
(0.991934 -0.000276968 0.000165067)
(0.991497 -0.000324213 0.000134695)
(0.991932 -0.000269068 0.000167356)
(0.991493 -0.000324063 0.00013285)
(0.99193 -0.000273638 0.000165346)
(0.991493 -0.00032792 0.000134352)
(0.991931 -0.000272654 0.000171118)
(0.991492 -0.000324993 0.000138314)
(0.991927 -0.000275942 0.000171412)
(0.99149 -0.000329232 0.000136629)
(0.991925 -0.000279069 0.000172283)
(0.99149 -0.000326482 0.000141115)
(0.991924 -0.000277555 0.00017461)
(0.99149 -0.000329197 0.000139773)
(0.991924 -0.000284989 0.000169957)
(0.99149 -0.000331792 0.000137539)
(0.991926 -0.000283671 0.000171987)
(0.991488 -0.000333434 0.00013902)
(0.991927 -0.00028774 0.000171057)
(0.961101 -0.000358364 0.000256947)
(0.961554 -0.000310139 0.000296023)
(0.961103 -0.000352025 0.000266802)
(0.961553 -0.000306949 0.000300823)
(0.9611 -0.000358928 0.000260691)
(0.961554 -0.000311156 0.000291254)
(0.961103 -0.000359288 0.000265437)
(0.961555 -0.000309221 0.000300847)
(0.961105 -0.000356758 0.000269237)
(0.961558 -0.000310061 0.000289075)
(0.961109 -0.000353815 0.000257594)
(0.961561 -0.000298784 0.000290406)
(0.961109 -0.000344874 0.000265414)
(0.961563 -0.00029398 0.000294313)
(0.961102 -0.00034707 0.000259895)
(0.961563 -0.000298994 0.000285227)
(0.961102 -0.00034859 0.000262372)
(0.961566 -0.000297248 0.000297858)
(0.961104 -0.00034455 0.000267342)
(0.961563 -0.000302658 0.000292696)
(0.961105 -0.000348595 0.000259016)
(0.961559 -0.000297648 0.000296421)
(0.961103 -0.00033828 0.000273497)
(0.961551 -0.00028764 0.000298683)
(0.961094 -0.000340125 0.000264257)
(0.961548 -0.000293111 0.00028873)
(0.961093 -0.000345142 0.000266462)
(0.961549 -0.000289576 0.000301424)
(0.961092 -0.00034124 0.00026978)
(0.961542 -0.000295517 0.000294192)
(0.961091 -0.000347143 0.000259953)
(0.961542 -0.000299908 0.000298067)
(0.961096 -0.000342302 0.00027188)
(0.961542 -0.000297126 0.00029967)
(0.9611 -0.00034599 0.000261277)
(0.961544 -0.000306344 0.000287778)
(0.961104 -0.000349039 0.000263233)
(0.961549 -0.000306512 0.000299695)
(0.961101 -0.000350975 0.000266708)
(0.961548 -0.000313194 0.00029346)
(0.91964 -0.000374226 0.000527826)
(0.919994 -0.000335596 0.000569229)
(0.919636 -0.000367886 0.000560723)
(0.919994 -0.000331525 0.000575119)
(0.919629 -0.000379084 0.000535273)
(0.919991 -0.000335169 0.000556802)
(0.919631 -0.000376542 0.000554058)
(0.919997 -0.000331665 0.000596714)
(0.919634 -0.000371342 0.000557466)
(0.920001 -0.000334946 0.000557208)
(0.919632 -0.000367901 0.000531541)
(0.919991 -0.000321019 0.000558232)
(0.919628 -0.000357355 0.000555965)
(0.919981 -0.000313805 0.000567988)