/*--------------------------------*- C++ -*----------------------------------*\
  =========                 |
  \\      /  F ield         | OpenFOAM: The Open Source CFD Toolbox
   \\    /   O peration     | Website:  https://openfoam.org
    \\  /    A nd           | Version:  10
     \\/     M anipulation  |
\*---------------------------------------------------------------------------*/
FoamFile
{
    format      ascii;
    class       volVectorField;
    location    "50";
    object      UMean;
}
// * * * * * * * * * * * * * * * * * * * * * * * * * * * * * * * * * * * * * //

dimensions      [0 1 -1 0 0 0 0];

internalField   nonuniform List<vector> 
25600
(
(1.05137 -6.2807e-05 -9.09872e-05)
(1.05136 -9.02965e-05 -9.5779e-05)
(1.05135 -0.00010926 -0.00010523)
(1.05135 -0.000119083 -0.000108931)
(1.05134 -0.000132903 -0.000116234)
(1.05136 -0.000143384 -0.000119513)
(1.05136 -0.000144647 -0.000121096)
(1.05137 -0.000153218 -0.000123473)
(1.05139 -0.000154906 -0.000125362)
(1.0514 -0.000161463 -0.000131337)
(1.05142 -0.000163047 -0.000137943)
(1.05143 -0.000165156 -0.000143872)
(1.05145 -0.000165859 -0.000146873)
(1.05148 -0.000160094 -0.000145697)
(1.0515 -0.000148061 -0.000138794)
(1.05152 -0.000125092 -0.000126574)
(1.05153 -0.000102738 -0.000115808)
(1.05154 -7.31214e-05 -0.000102847)
(1.05154 -4.81051e-05 -9.26583e-05)
(1.05153 -2.57375e-05 -8.70153e-05)
(1.05152 -5.02968e-06 -8.07993e-05)
(1.0515 5.22974e-06 -7.71149e-05)
(1.05148 1.30029e-05 -7.64522e-05)
(1.05146 7.63707e-06 -7.68637e-05)
(1.05143 4.25883e-06 -7.7175e-05)
(1.05142 -1.14614e-05 -7.67589e-05)
(1.05141 -1.86241e-05 -7.83536e-05)
(1.0514 -2.2401e-05 -7.36392e-05)
(1.0514 -1.58142e-05 -7.06719e-05)
(1.0514 -4.44437e-06 -6.81174e-05)
(1.05139 1.61471e-05 -6.27428e-05)
(1.0514 3.67796e-05 -5.83246e-05)
(1.0514 5.37264e-05 -5.93301e-05)
(1.0514 5.98566e-05 -6.18283e-05)
(1.05141 5.14926e-05 -6.3909e-05)
(1.05141 4.50686e-05 -7.09746e-05)
(1.05141 1.78274e-05 -7.64123e-05)
(1.05141 5.31432e-07 -8.13663e-05)
(1.0514 -2.44345e-05 -8.70708e-05)
(1.05138 -4.9824e-05 -9.09482e-05)
(1.0513 -8.94018e-05 -9.62586e-05)
(1.05128 -0.000116301 -0.000100626)
(1.05128 -0.000140929 -0.000113997)
(1.05127 -0.000155048 -0.000122108)
(1.05127 -0.00017098 -0.000130247)
(1.05128 -0.000180526 -0.000129962)
(1.05129 -0.00019148 -0.000125567)
(1.0513 -0.000202895 -0.000126283)
(1.05131 -0.000209162 -0.000129794)
(1.05133 -0.000216306 -0.000140309)
(1.05135 -0.000217448 -0.000155141)
(1.05136 -0.000222537 -0.0001643)
(1.05138 -0.000223463 -0.000168089)
(1.05141 -0.000220854 -0.000160719)
(1.05143 -0.000208223 -0.000145826)
(1.05146 -0.000183024 -0.000125895)
(1.05148 -0.000155175 -0.000112284)
(1.05149 -0.000120635 -9.98917e-05)
(1.05149 -9.42144e-05 -9.47212e-05)
(1.05149 -6.51276e-05 -9.48714e-05)
(1.05147 -4.38693e-05 -9.42233e-05)
(1.05145 -2.93123e-05 -9.60874e-05)
(1.05143 -1.81591e-05 -9.92082e-05)
(1.05141 -2.9087e-05 -0.000104106)
(1.05138 -3.91249e-05 -0.00010663)
(1.05136 -6.3071e-05 -0.000107821)
(1.05136 -8.05539e-05 -0.000112415)
(1.05135 -8.8322e-05 -0.000105581)
(1.05136 -8.02439e-05 -0.000101568)
(1.05136 -6.73354e-05 -9.87109e-05)
(1.05136 -4.06539e-05 -8.79131e-05)
(1.05137 -1.28313e-05 -8.02757e-05)
(1.05136 4.53065e-06 -7.98162e-05)
(1.05135 1.58559e-05 -7.59187e-05)
(1.05136 1.19734e-05 -7.65765e-05)
(1.05135 2.76964e-06 -8.2766e-05)
(1.05134 -1.59956e-05 -8.72557e-05)
(1.05134 -3.29974e-05 -9.27866e-05)
(1.05132 -5.47832e-05 -9.54559e-05)
(1.05131 -7.44055e-05 -9.44201e-05)
(1.05107 -0.000155493 -2.02118e-05)
(1.05105 -0.000183381 -2.77369e-05)
(1.05105 -0.000209681 -4.69762e-05)
(1.05105 -0.000227895 -5.94378e-05)
(1.05104 -0.000248529 -6.18581e-05)
(1.05105 -0.000262557 -5.3619e-05)
(1.05105 -0.000291694 -4.22403e-05)
(1.05106 -0.000310408 -4.54355e-05)
(1.05107 -0.000322302 -5.58691e-05)
(1.05109 -0.000327228 -7.77926e-05)
(1.05111 -0.000326036 -0.000101814)
(1.05113 -0.000337372 -0.000114326)
(1.05116 -0.000344523 -0.0001166)
(1.05119 -0.00035132 -0.000103003)
(1.05121 -0.000344869 -7.78174e-05)
(1.05123 -0.000319458 -5.09589e-05)
(1.05124 -0.00028437 -3.43105e-05)
(1.05124 -0.000247183 -2.73759e-05)
(1.05123 -0.000215885 -3.33788e-05)
(1.05123 -0.000182379 -4.43149e-05)
(1.05121 -0.000158773 -5.28783e-05)
(1.05119 -0.000133939 -6.38553e-05)
(1.05117 -0.000118446 -7.18328e-05)
(1.05114 -0.000123155 -8.15469e-05)
(1.05111 -0.000137773 -8.491e-05)
(1.05108 -0.000172535 -8.77599e-05)
(1.05108 -0.000200337 -9.25452e-05)
(1.05108 -0.000215143 -8.47557e-05)
(1.05109 -0.000209448 -7.92669e-05)
(1.05111 -0.000187239 -7.11065e-05)
(1.05113 -0.00014662 -5.19473e-05)
(1.05115 -0.000102966 -3.91958e-05)
(1.05115 -7.56444e-05 -3.16978e-05)
(1.05115 -5.66761e-05 -2.24001e-05)
(1.05115 -5.8288e-05 -2.21755e-05)
(1.05114 -7.135e-05 -2.61597e-05)
(1.05113 -7.95763e-05 -2.84382e-05)
(1.05112 -9.82121e-05 -3.16413e-05)
(1.05111 -0.000116256 -2.5412e-05)
(1.05109 -0.000137272 -1.79473e-05)
(1.05024 -0.000409614 4.44458e-05)
(1.05021 -0.000437592 2.91405e-05)
(1.05021 -0.000465303 4.5033e-06)
(1.05021 -0.000488203 -6.55468e-06)
(1.0502 -0.00051691 -3.21908e-07)
(1.05019 -0.000542338 1.3889e-05)
(1.05016 -0.00059026 2.55584e-05)
(1.05014 -0.000612017 1.67762e-05)
(1.05013 -0.000622324 -2.30397e-06)
(1.05014 -0.000619219 -3.73501e-05)
(1.05018 -0.000622535 -7.08357e-05)
(1.0502 -0.000645339 -8.69368e-05)
(1.05024 -0.00065938 -8.64757e-05)
(1.05027 -0.000668106 -5.76117e-05)
(1.05027 -0.000655916 -1.15623e-05)
(1.05028 -0.000616723 3.46238e-05)
(1.05026 -0.000571475 6.28233e-05)
(1.05023 -0.000527777 7.12394e-05)
(1.05019 -0.000493679 6.26181e-05)
(1.05015 -0.000465984 5.16884e-05)
(1.0501 -0.000440534 4.45628e-05)
(1.05008 -0.000410851 3.53102e-05)
(1.05006 -0.000397818 2.98563e-05)
(1.05005 -0.000401183 2.24067e-05)
(1.05003 -0.000441331 1.47291e-05)
(1.04999 -0.000498439 1.78786e-06)
(1.04996 -0.000537834 -9.84102e-06)
(1.04993 -0.000562924 -2.68499e-06)
(1.04994 -0.000559616 8.47891e-06)
(1.04999 -0.000525751 2.5706e-05)
(1.05006 -0.00047487 4.56445e-05)
(1.05014 -0.000414469 5.13401e-05)
(1.0502 -0.0003725 5.01788e-05)
(1.05024 -0.000337875 4.64922e-05)
(1.05028 -0.000326844 3.88553e-05)
(1.0503 -0.000330502 3.54653e-05)
(1.05033 -0.000332523 3.39082e-05)
(1.05033 -0.000353862 3.49482e-05)
(1.05031 -0.000373336 4.73592e-05)
(1.05028 -0.000393836 5.40753e-05)
(1.04759 -0.000785766 -7.47951e-05)
(1.04756 -0.000813714 -9.56686e-05)
(1.04754 -0.00083937 -0.000125984)
(1.04752 -0.000868074 -0.000141986)
(1.04747 -0.000909264 -0.000137676)
(1.04741 -0.000949762 -0.000121764)
(1.0473 -0.00100659 -0.00010773)
(1.04719 -0.00103659 -0.000115037)
(1.04712 -0.00105458 -0.000142402)
(1.04709 -0.00106614 -0.000192867)
(1.0471 -0.00109734 -0.000232433)
(1.04712 -0.00114473 -0.000240631)
(1.04715 -0.00117079 -0.000216205)
(1.04718 -0.00117131 -0.00014458)
(1.04719 -0.00113676 -5.92814e-05)
(1.04723 -0.00106676 1.13038e-05)
(1.04723 -0.00100008 3.97291e-05)
(1.04723 -0.000936212 3.41846e-05)
(1.04718 -0.000900741 1.21944e-05)
(1.04711 -0.000888216 9.05243e-06)
(1.04705 -0.00087052 2.90367e-05)
(1.04704 -0.000846029 4.87084e-05)
(1.04704 -0.000828054 5.97781e-05)
(1.04704 -0.000816726 5.23134e-05)
(1.04698 -0.000857853 2.61025e-05)
(1.04691 -0.000908759 -3.58937e-06)
(1.04686 -0.000951155 -1.77607e-05)
(1.04684 -0.000997696 2.20687e-06)
(1.04689 -0.00101324 2.777e-05)
(1.047 -0.000993508 5.03058e-05)
(1.04712 -0.000944419 4.67636e-05)
(1.04727 -0.000853383 1.7187e-05)
(1.0474 -0.000778758 -1.17995e-05)
(1.0475 -0.000728256 -2.64627e-05)
(1.0476 -0.000718395 -2.85074e-05)
(1.04769 -0.000722565 -3.42078e-05)
(1.04775 -0.000717399 -5.28203e-05)
(1.04775 -0.000727252 -6.6479e-05)
(1.0477 -0.000742819 -6.28059e-05)
(1.04765 -0.000763236 -6.09011e-05)
(1.04251 -0.00147299 -0.000222468)
(1.04246 -0.00148681 -0.000228006)
(1.04242 -0.00151022 -0.000241913)
(1.04239 -0.0015317 -0.000248)
(1.0423 -0.0015651 -0.000219356)
(1.04219 -0.00159685 -0.00016403)
(1.04201 -0.0016415 -0.000112085)
(1.04185 -0.00165231 -0.000102915)
(1.04174 -0.00165495 -0.000139326)
(1.04169 -0.00167738 -0.000195079)
(1.04164 -0.0017551 -0.000230982)
(1.04165 -0.00183132 -0.000225992)
(1.04169 -0.00185876 -0.000160868)
(1.04175 -0.00181787 -4.33946e-05)
(1.04184 -0.00172653 5.8481e-05)
(1.04199 -0.00161033 0.000105774)
(1.04211 -0.00154129 9.1988e-05)
(1.04223 -0.0014876 3.93812e-05)
(1.04225 -0.00150198 -1.5782e-05)
(1.04221 -0.00154679 -3.42225e-05)
(1.04215 -0.00157456 -2.56602e-05)
(1.04212 -0.00158241 -3.88404e-05)
(1.0421 -0.00158844 -5.64351e-05)
(1.04209 -0.00159809 -8.51836e-05)
(1.04203 -0.00165983 -0.000106514)
(1.04201 -0.00170453 -0.000105517)
(1.04203 -0.00176096 -7.93113e-05)
(1.0421 -0.00182531 -2.65712e-05)
(1.04221 -0.00185004 2.29272e-05)
(1.04235 -0.00182843 5.28401e-05)
(1.04246 -0.0017669 2.97828e-05)
(1.04259 -0.00165355 -2.51394e-05)
(1.04267 -0.00157714 -6.41622e-05)
(1.04274 -0.00153003 -8.73683e-05)
(1.04277 -0.00151173 -0.000121241)
(1.04281 -0.00148039 -0.000181489)
(1.0428 -0.00144266 -0.000232938)
(1.04275 -0.00142727 -0.000240225)
(1.04266 -0.00143519 -0.000225468)
(1.04259 -0.00145033 -0.000217093)
(1.03847 -0.00197138 0.00104878)
(1.03854 -0.0019796 0.00106447)
(1.0386 -0.00199594 0.0010582)
(1.03863 -0.00200006 0.00104742)
(1.03856 -0.0020374 0.00106925)
(1.03851 -0.00209364 0.00111742)
(1.03841 -0.00213944 0.0011602)
(1.03832 -0.00213799 0.00116318)
(1.03825 -0.00215449 0.00111413)
(1.03821 -0.0022231 0.00102991)
(1.0382 -0.0023463 0.000948494)
(1.03824 -0.00245805 0.000932479)
(1.03824 -0.00251349 0.00101839)
(1.03824 -0.00248605 0.00115853)
(1.03824 -0.00238176 0.00128305)
(1.03829 -0.00223483 0.00134373)
(1.03831 -0.00212415 0.00132123)
(1.03837 -0.00202506 0.00122048)
(1.03835 -0.0020144 0.0010974)
(1.03833 -0.00202082 0.00103954)
(1.03829 -0.00203039 0.00101469)
(1.03827 -0.00205465 0.000957902)
(1.03822 -0.00210017 0.000914914)
(1.03819 -0.00214808 0.000882209)
(1.03814 -0.00222422 0.000890804)
(1.03817 -0.00227173 0.000920692)
(1.03822 -0.00237064 0.000953883)
(1.03828 -0.00247351 0.00103091)
(1.03837 -0.00250737 0.00113913)
(1.03847 -0.00246334 0.00122482)
(1.03855 -0.00238182 0.00123096)
(1.03864 -0.00225623 0.00119484)
(1.03864 -0.00216233 0.00114684)
(1.0386 -0.00207987 0.00109573)
(1.03855 -0.00202812 0.00104247)
(1.0386 -0.00197696 0.000997632)
(1.03865 -0.00193838 0.00098653)
(1.03866 -0.0019118 0.00100675)
(1.03858 -0.00191729 0.00101093)
(1.0385 -0.0019427 0.00102325)
(1.03478 -0.00297228 0.00252541)
(1.03496 -0.00297762 0.00250541)
(1.03504 -0.00299731 0.00244775)
(1.03513 -0.00300273 0.00238128)
(1.03511 -0.0030665 0.0023469)
(1.03509 -0.00314816 0.00233596)
(1.03498 -0.00319525 0.00233902)
(1.03486 -0.00320509 0.00234753)
(1.03474 -0.00328048 0.00229858)
(1.03467 -0.00344278 0.00218108)
(1.03459 -0.00365008 0.00208743)
(1.03446 -0.00382189 0.00210877)
(1.03426 -0.00391305 0.00222688)
(1.03405 -0.0038985 0.00236257)
(1.03385 -0.00381463 0.00246381)
(1.03373 -0.00368699 0.00252306)
(1.03358 -0.00355875 0.00250033)
(1.03354 -0.00343405 0.00240122)
(1.03346 -0.00342239 0.00229188)
(1.03345 -0.00343098 0.00230238)
(1.03339 -0.00341599 0.00232786)
(1.03327 -0.00339277 0.00228977)
(1.03307 -0.00340597 0.00227309)
(1.0329 -0.00344591 0.00227606)
(1.03277 -0.00350544 0.00230939)
(1.03276 -0.00350829 0.00232517)
(1.03272 -0.00355055 0.00232815)
(1.03274 -0.00358371 0.0024134)
(1.03289 -0.00356264 0.00252646)
(1.03311 -0.00347665 0.00256341)
(1.03332 -0.0033637 0.00252698)
(1.03354 -0.00321832 0.00250964)
(1.03367 -0.00310994 0.00249616)
(1.03379 -0.00301727 0.00249199)
(1.03395 -0.00297472 0.00248775)
(1.03418 -0.00293636 0.0024529)
(1.03435 -0.00289123 0.00244783)
(1.03449 -0.00284289 0.00246968)
(1.03453 -0.00287046 0.00247129)
(1.03463 -0.00292909 0.00249826)
(1.02798 -0.00317419 0.00213247)
(1.02805 -0.00316554 0.00203452)
(1.02802 -0.00320098 0.00190679)
(1.02801 -0.00320002 0.00179567)
(1.02786 -0.00322923 0.00171708)
(1.02768 -0.00321806 0.00164089)
(1.02737 -0.00314879 0.00160303)
(1.02712 -0.00308815 0.00157802)
(1.0268 -0.00316682 0.00148139)
(1.02649 -0.00330901 0.00128126)
(1.02605 -0.0034314 0.00115698)
(1.02555 -0.00350604 0.00118382)
(1.02506 -0.00351428 0.00127533)
(1.0247 -0.00345008 0.00137574)
(1.02448 -0.00335725 0.00149773)
(1.0244 -0.0032594 0.0016547)
(1.0243 -0.00318471 0.00172985)
(1.02431 -0.00313947 0.00165222)
(1.02422 -0.00318274 0.00155737)
(1.02428 -0.00319908 0.0016217)
(1.02426 -0.00318403 0.00168889)
(1.02418 -0.00320628 0.00173929)
(1.02409 -0.00330265 0.0018344)
(1.02409 -0.00341015 0.00189122)
(1.02412 -0.00349644 0.00198009)
(1.02423 -0.00351822 0.0020316)
(1.02426 -0.0035723 0.0020672)
(1.02441 -0.00362078 0.00215426)
(1.02468 -0.00361763 0.00214928)
(1.02507 -0.00351911 0.00203842)
(1.02537 -0.00338802 0.0019826)
(1.02567 -0.00326394 0.00205818)
(1.02593 -0.00320475 0.00210189)
(1.02624 -0.00315043 0.00213089)
(1.02654 -0.00310885 0.00216229)
(1.02687 -0.00304697 0.00219485)
(1.02712 -0.00301958 0.00226528)
(1.02737 -0.00302552 0.00226753)
(1.02756 -0.00310412 0.00220278)
(1.02782 -0.00316127 0.00218084)
(1.02126 -0.00364317 0.000661454)
(1.02098 -0.00366897 0.000549976)
(1.0206 -0.0037018 0.000462973)
(1.02028 -0.00364541 0.000430483)
(1.01995 -0.00362022 0.000413224)
(1.01974 -0.0035874 0.000444043)
(1.01943 -0.00352463 0.00050446)
(1.01917 -0.00347359 0.0004908)
(1.01876 -0.00355538 0.000381086)
(1.01836 -0.00360347 0.000220886)
(1.01786 -0.00359873 0.000230568)
(1.01746 -0.00357362 0.000313517)
(1.01717 -0.00351028 0.000397895)
(1.01715 -0.00341495 0.000572567)
(1.01718 -0.00333591 0.000825454)
(1.01736 -0.00327516 0.00108697)
(1.01749 -0.00324216 0.00117678)
(1.01763 -0.00320195 0.00111673)
(1.01767 -0.00322453 0.00112145)
(1.01789 -0.00320971 0.0012377)
(1.01805 -0.00321567 0.00130468)
(1.0183 -0.00331674 0.00133703)
(1.01853 -0.00349107 0.00134602)
(1.01878 -0.00361063 0.00133197)
(1.019 -0.00370173 0.00142401)
(1.01927 -0.00376391 0.001482)
(1.01943 -0.00386603 0.00154463)
(1.01965 -0.00395028 0.00160107)
(1.01985 -0.00394675 0.00150897)
(1.02018 -0.00382231 0.00136639)
(1.02029 -0.00370204 0.00135098)
(1.02033 -0.00361751 0.00138464)
(1.0203 -0.00359422 0.00128737)
(1.02037 -0.00359369 0.00119042)
(1.02055 -0.00359072 0.00109216)
(1.02091 -0.00353113 0.00100683)
(1.02114 -0.00350418 0.000967511)
(1.02134 -0.00350919 0.000899368)
(1.02139 -0.00358649 0.00084435)
(1.02144 -0.00362503 0.000786343)
(1.01396 -0.00328916 -0.00110784)
(1.0136 -0.0033405 -0.00109816)
(1.01315 -0.00333864 -0.0010921)
(1.01282 -0.00320943 -0.00100848)
(1.0125 -0.0031648 -0.000799462)
(1.01233 -0.00315848 -0.000557932)
(1.01204 -0.0031293 -0.00040619)
(1.01182 -0.00311183 -0.000323772)
(1.01147 -0.00320337 -0.000260728)
(1.01131 -0.00324509 -0.000193813)
(1.01112 -0.00328955 8.96691e-06)
(1.01117 -0.00334368 0.000122655)
(1.01129 -0.00338173 0.000260402)
(1.01164 -0.0033577 0.000426277)
(1.01194 -0.00334771 0.000477711)
(1.01246 -0.00338023 0.000450494)
(1.01284 -0.00350489 0.000339782)
(1.01321 -0.00365061 0.000260557)
(1.01341 -0.00381378 0.000304008)
(1.01378 -0.00384727 0.000326671)
(1.01415 -0.00384734 0.000240475)
(1.01465 -0.00395544 0.000138579)
(1.01487 -0.00412219 8.19606e-05)
(1.01504 -0.00418635 0.000109377)
(1.01518 -0.00421012 0.000222701)
(1.01532 -0.00424177 0.000271689)
(1.01522 -0.00432872 0.000345976)
(1.01513 -0.00437609 0.000346278)
(1.01497 -0.00432365 0.000188188)
(1.01504 -0.00414537 1.22712e-05)
(1.01479 -0.00395143 -8.649e-05)
(1.01435 -0.00382676 -0.000308796)
(1.01373 -0.00380056 -0.000649558)
(1.01358 -0.00378265 -0.00093206)
(1.01368 -0.0037115 -0.00119537)
(1.01401 -0.00351294 -0.00133912)
(1.01422 -0.00331151 -0.00134766)
(1.01441 -0.0031631 -0.00126022)
(1.01439 -0.00315886 -0.00110083)
(1.01432 -0.00322159 -0.00106492)
(1.0053 -0.00330741 -0.00141498)
(1.00531 -0.00337702 -0.00132024)
(1.00514 -0.00334658 -0.00128651)
(1.00524 -0.00316638 -0.00109016)
(1.00526 -0.00312906 -0.000783743)
(1.00537 -0.00312088 -0.000675511)
(1.00533 -0.00305645 -0.000744905)
(1.00548 -0.00303153 -0.000762143)
(1.00557 -0.00316702 -0.000730396)
(1.00584 -0.00323852 -0.000644295)
(1.00595 -0.00329799 -0.000507018)
(1.00622 -0.00338986 -0.000463046)
(1.00644 -0.00349019 -0.000317255)
(1.00696 -0.00350779 -0.000294953)
(1.00731 -0.00359242 -0.00050468)
(1.0079 -0.00372983 -0.000703713)
(1.00818 -0.0038913 -0.000828877)
(1.00841 -0.00400501 -0.000891129)
(1.00845 -0.0041492 -0.000905522)
(1.00873 -0.00418776 -0.000994071)
(1.00892 -0.00418761 -0.00109674)
(1.00905 -0.00425654 -0.00111616)
(1.00856 -0.00437227 -0.00113257)
(1.00821 -0.00442569 -0.00118023)
(1.00794 -0.00444812 -0.00122509)
(1.00764 -0.00447709 -0.00129314)
(1.00701 -0.00454909 -0.00136214)
(1.00649 -0.00453697 -0.0015788)
(1.00598 -0.00446953 -0.00191706)
(1.0058 -0.00430198 -0.00215037)
(1.00537 -0.00409557 -0.00229249)
(1.00499 -0.00397828 -0.00256556)
(1.00445 -0.00399837 -0.00284196)
(1.00438 -0.00402784 -0.00291017)
(1.00426 -0.00396615 -0.00282692)
(1.00455 -0.00369989 -0.00259748)
(1.00476 -0.003373 -0.00234702)
(1.00509 -0.00312851 -0.00203718)
(1.00527 -0.00312562 -0.00169276)
(1.0054 -0.00322311 -0.00151984)
(1.00025 -0.00319277 -0.00147831)
(1.00041 -0.00310946 -0.00149388)
(1.00044 -0.0029636 -0.00158743)
(1.00109 -0.00280113 -0.00150879)
(1.00157 -0.00283544 -0.00150312)
(1.00204 -0.00280918 -0.00181412)
(1.00227 -0.00268149 -0.00215878)
(1.00268 -0.00263735 -0.00226762)
(1.00283 -0.00272041 -0.00224337)
(1.00315 -0.00269724 -0.00210754)
(1.00309 -0.00271198 -0.00190731)
(1.00306 -0.00281037 -0.00173019)
(1.00283 -0.00291458 -0.00137366)
(1.00298 -0.00294742 -0.0012138)
(1.00284 -0.00308856 -0.00132393)
(1.00296 -0.00320881 -0.00147541)
(1.00267 -0.00329773 -0.00172361)
(1.00244 -0.00342044 -0.00198974)
(1.00196 -0.00364007 -0.00219642)
(1.00161 -0.00369842 -0.0023747)
(1.00108 -0.00361994 -0.00243353)
(1.00056 -0.00352853 -0.00249736)
(0.999568 -0.00355266 -0.00273456)
(0.999096 -0.00352918 -0.0030173)
(0.998698 -0.00349125 -0.00315955)
(0.998391 -0.00351949 -0.00322775)
(0.997865 -0.00363652 -0.00329902)
(0.997567 -0.00370548 -0.00345805)
(0.997283 -0.00374832 -0.00358953)
(0.997474 -0.00367884 -0.00351867)
(0.99762 -0.0036147 -0.00339352)
(0.99793 -0.00368571 -0.00342392)
(0.997957 -0.0038801 -0.00334557)
(0.998317 -0.00401853 -0.00306869)
(0.998359 -0.00400689 -0.00272991)
(0.998907 -0.00379099 -0.00233091)
(0.999212 -0.00353369 -0.00208769)
(0.999684 -0.00329943 -0.0018348)
(0.999962 -0.00328186 -0.00158835)
(1.0002 -0.00326622 -0.0015253)
(0.995141 -0.000963611 -0.00195986)
(0.995432 -0.00089689 -0.00223946)
(0.995643 -0.000856929 -0.0025097)
(0.996519 -0.000867792 -0.00251312)
(0.996928 -0.00099407 -0.00262124)
(0.997326 -0.00100472 -0.00296434)
(0.997307 -0.00098853 -0.00323028)
(0.997395 -0.00106868 -0.00327543)
(0.997054 -0.00120618 -0.00326477)
(0.997095 -0.00126199 -0.00320872)
(0.996791 -0.00140879 -0.00305393)
(0.996728 -0.0015951 -0.00281)
(0.996405 -0.00176221 -0.00252512)
(0.996647 -0.00190326 -0.00254419)
(0.996402 -0.00213097 -0.0028239)
(0.996353 -0.00228233 -0.00320063)
(0.99567 -0.00238182 -0.00375827)
(0.995094 -0.00257232 -0.00409353)
(0.994173 -0.00279114 -0.00413757)
(0.993558 -0.00278387 -0.00400456)
(0.9928 -0.00262985 -0.00380461)
(0.992301 -0.00249601 -0.00379706)
(0.991478 -0.00251189 -0.00396936)
(0.991385 -0.00249849 -0.00404047)
(0.99128 -0.00248583 -0.00382604)
(0.991483 -0.00252266 -0.00352284)
(0.991523 -0.00258072 -0.00329488)
(0.992061 -0.00252585 -0.0031034)
(0.992488 -0.00247599 -0.00286405)
(0.993362 -0.00235623 -0.0025468)
(0.99401 -0.00225142 -0.00236923)
(0.994649 -0.00221729 -0.00233118)
(0.994677 -0.00231683 -0.00214068)
(0.994939 -0.0023465 -0.00190055)
(0.99467 -0.00223246 -0.00163227)
(0.995045 -0.00200653 -0.00138739)
(0.995011 -0.00174503 -0.00136948)
(0.995342 -0.00145843 -0.00136271)
(0.995233 -0.00129547 -0.00151464)
(0.995246 -0.00110307 -0.00178825)
(0.989151 0.000794386 -0.00390302)
(0.98972 0.000822979 -0.00407723)
(0.99005 0.000827166 -0.00416243)
(0.990837 0.000813089 -0.00407904)
(0.990931 0.000695826 -0.00419512)
(0.991229 0.000663096 -0.00446883)
(0.990994 0.000590894 -0.00461653)
(0.990877 0.000450607 -0.00454045)
(0.990302 0.000270182 -0.00457965)
(0.990341 0.000120784 -0.00476652)
(0.989989 -0.000166678 -0.0047047)
(0.989996 -0.000416105 -0.00453089)
(0.989502 -0.000640717 -0.00451155)
(0.989578 -0.000761076 -0.00480771)
(0.989029 -0.000933034 -0.00525647)
(0.988564 -0.00110933 -0.00569361)
(0.987364 -0.00136435 -0.00594403)
(0.986762 -0.0015232 -0.00574343)
(0.985906 -0.00152442 -0.00531413)
(0.9856 -0.00130424 -0.00473378)
(0.985145 -0.00106217 -0.00425607)
(0.985055 -0.000923837 -0.00404462)
(0.984526 -0.000997824 -0.00399526)
(0.98458 -0.00103209 -0.00392224)
(0.984468 -0.00116192 -0.00367125)
(0.985012 -0.00126618 -0.00345223)
(0.985368 -0.00127336 -0.00341866)
(0.986386 -0.00110548 -0.00339438)
(0.986965 -0.000981766 -0.00336146)
(0.987846 -0.000822018 -0.00339179)
(0.988285 -0.00071467 -0.00356373)
(0.988766 -0.000664389 -0.00367168)
(0.988403 -0.000760025 -0.00360948)
(0.988367 -0.000704629 -0.00342239)
(0.987898 -0.000519055 -0.003177)
(0.988141 -0.00029826 -0.00309176)
(0.987983 -0.000112139 -0.00313878)
(0.988486 0.000197068 -0.00314284)
(0.9884 0.000494024 -0.0033975)
(0.988854 0.000741551 -0.00371186)
(0.98139 0.00201442 -0.00373439)
(0.981883 0.00196119 -0.0038115)
(0.982252 0.00193036 -0.00388568)
(0.983003 0.00193298 -0.00396449)
(0.982957 0.00187418 -0.00430815)
(0.983163 0.00184151 -0.00470333)
(0.982731 0.00176662 -0.00493775)
(0.982251 0.00166896 -0.00492466)
(0.981482 0.00151482 -0.00517396)
(0.981179 0.00130696 -0.0054315)
(0.980364 0.000918345 -0.00517908)
(0.9797 0.000665515 -0.00487053)
(0.978517 0.000476741 -0.00489421)
(0.978286 0.000384688 -0.00510876)
(0.977652 0.000198919 -0.00518368)
(0.977408 1.56855e-05 -0.00502074)
(0.977196 -9.54325e-05 -0.00479569)
(0.977672 0.000220795 -0.00450476)
(0.977629 0.000573912 -0.0041937)
(0.978031 0.000792354 -0.00379418)
(0.978242 0.000829284 -0.00361604)
(0.978719 0.000774686 -0.00372925)
(0.978566 0.000642785 -0.00387619)
(0.978891 0.000537479 -0.00400095)
(0.979161 0.000248317 -0.003923)
(0.97986 9.98672e-05 -0.0037706)
(0.979907 0.000123189 -0.00362412)
(0.980562 0.000422693 -0.00347715)
(0.980946 0.000635371 -0.00350976)
(0.981767 0.000741216 -0.00366497)
(0.982059 0.000763322 -0.00375085)
(0.982181 0.000818337 -0.00369543)
(0.981454 0.000833457 -0.00352606)
(0.981285 0.000965751 -0.00333461)
(0.98084 0.00118382 -0.00322523)
(0.980979 0.00141707 -0.00316927)
(0.980659 0.00159391 -0.0030655)
(0.981003 0.00190473 -0.00292754)
(0.980755 0.00210143 -0.00318325)
(0.981212 0.00211586 -0.00354237)
(0.975505 0.00288618 -0.00168731)
(0.976353 0.00279262 -0.00176206)
(0.976657 0.00278174 -0.00190898)
(0.977073 0.0029362 -0.00215026)
(0.976606 0.00302924 -0.00260577)
(0.976496 0.00302258 -0.00305136)
(0.975848 0.00289613 -0.00311479)
(0.97524 0.00267533 -0.00277087)
(0.974005 0.00247693 -0.00262688)
(0.973206 0.00225214 -0.00238711)
(0.972132 0.00187312 -0.00169417)
(0.971259 0.00166267 -0.00121139)
(0.97011 0.00151919 -0.00123924)
(0.970067 0.00146142 -0.00140964)
(0.969225 0.00143106 -0.00135589)
(0.969051 0.0013727 -0.00147241)
(0.96918 0.00136169 -0.0018981)
(0.970288 0.00175656 -0.00247122)
(0.970876 0.00202785 -0.00309513)
(0.9718 0.00206175 -0.00335953)
(0.972583 0.00200363 -0.00361192)
(0.973634 0.00196806 -0.00399897)
(0.973657 0.00196203 -0.00424843)
(0.973931 0.00186793 -0.00419773)
(0.97378 0.00162733 -0.00386402)
(0.973641 0.00159955 -0.00332608)
(0.972715 0.0017293 -0.00286313)
(0.972949 0.00204893 -0.00248847)
(0.973002 0.00217188 -0.00249951)
(0.973625 0.00224844 -0.002674)
(0.97356 0.00239305 -0.00270229)
(0.973473 0.00264955 -0.00253582)
(0.972772 0.00270416 -0.00236216)
(0.972822 0.00282777 -0.00223565)
(0.97275 0.00297213 -0.00207666)
(0.973269 0.00305627 -0.00182982)
(0.973281 0.00303852 -0.00143474)
(0.974 0.00319563 -0.00112085)
(0.974143 0.00320011 -0.00127645)
(0.97497 0.00304317 -0.00158335)
(0.972108 0.00413057 0.000408476)
(0.972355 0.00420538 0.000440078)
(0.971759 0.00438276 0.000581926)
(0.971421 0.00466522 0.000722723)
(0.970579 0.0047951 0.000601386)
(0.970301 0.00470806 0.000507616)
(0.969822 0.00441342 0.000677829)
(0.969503 0.00412363 0.000995562)
(0.968369 0.00384313 0.000859522)
(0.96804 0.00341743 0.00085988)
(0.967688 0.00280261 0.00121838)
(0.967317 0.0025478 0.00124679)
(0.966416 0.00240684 0.000753606)
(0.965897 0.00239208 0.000298574)
(0.964393 0.00236234 8.36901e-05)
(0.963601 0.00221581 -0.00036389)
(0.962969 0.00208935 -0.0010801)
(0.963392 0.00244014 -0.00182647)
(0.963549 0.00269952 -0.00233637)
(0.963929 0.00266984 -0.00239108)
(0.964336 0.00251379 -0.00254359)
(0.964903 0.00249497 -0.0028721)
(0.964595 0.00257533 -0.00303318)
(0.964871 0.00254631 -0.00297108)
(0.964585 0.00238151 -0.00266015)
(0.964496 0.00243427 -0.00213531)
(0.964253 0.00265094 -0.00173121)
(0.965165 0.00292517 -0.00156449)
(0.96537 0.00311576 -0.00172553)
(0.965928 0.00346736 -0.00197787)
(0.965708 0.0038911 -0.00208204)
(0.965862 0.00418362 -0.00194135)
(0.965646 0.00408414 -0.0017184)
(0.966355 0.004033 -0.00138914)
(0.967175 0.00400575 -0.000917902)
(0.968577 0.00397468 -0.00041287)
(0.96912 0.00392366 0.000122215)
(0.970091 0.00403309 0.000488417)
(0.970499 0.00408995 0.000475484)
(0.971534 0.00411595 0.000360071)
(0.963758 0.00489047 0.000420456)
(0.963374 0.00513017 0.000544441)
(0.962757 0.0053627 0.001055)
(0.962665 0.00549751 0.0014937)
(0.962154 0.00535297 0.00164668)
(0.962432 0.00511407 0.0016966)
(0.962451 0.00481521 0.0017481)
(0.962299 0.00451647 0.00149307)
(0.961496 0.00405468 0.000849867)
(0.961562 0.00336211 0.000639916)
(0.96086 0.00269997 0.000875136)
(0.960032 0.002508 0.000733417)
(0.95875 0.00239421 0.000231566)
(0.957776 0.00252804 -0.00011107)
(0.956604 0.0027008 -0.000253182)
(0.956083 0.00266302 -0.000549508)
(0.955059 0.00269385 -0.000960059)
(0.954852 0.00303899 -0.001432)
(0.954619 0.00325479 -0.00156817)
(0.954531 0.00331748 -0.00144589)
(0.95443 0.00335769 -0.00162165)
(0.954481 0.00357822 -0.00173611)
(0.954134 0.00372783 -0.00182946)
(0.954658 0.00368484 -0.00202872)
(0.954818 0.00352287 -0.00192314)
(0.955318 0.00363771 -0.00162228)
(0.955651 0.00373782 -0.00157416)
(0.956834 0.00392511 -0.00180048)
(0.957362 0.00416864 -0.00209763)
(0.958194 0.0045404 -0.00206061)
(0.95826 0.00479422 -0.00162753)
(0.958832 0.00487313 -0.00101058)
(0.958939 0.00466613 -0.000619096)
(0.959988 0.0046204 -0.000273346)
(0.961057 0.00450731 -4.24976e-05)
(0.962398 0.00445438 0.000144602)
(0.962856 0.00444485 0.000377427)
(0.963435 0.00450029 0.000518613)
(0.963585 0.00454098 0.000404657)
(0.964141 0.00469237 0.000392361)
(0.950073 0.00544126 3.52986e-05)
(0.949829 0.0055527 0.000241836)
(0.949492 0.00554526 0.000660002)
(0.949795 0.00550252 0.00103346)
(0.949766 0.00523857 0.00097955)
(0.950246 0.00503672 0.00104826)
(0.950294 0.00485342 0.00140197)
(0.950233 0.00458816 0.00169199)
(0.949622 0.00406737 0.00161545)
(0.949519 0.00349059 0.00187646)
(0.948793 0.00302294 0.00216658)
(0.948489 0.00296032 0.00188685)
(0.947775 0.00288741 0.0012978)
(0.947375 0.00318628 0.000692716)
(0.94718 0.00347002 6.00318e-05)
(0.947333 0.0034903 -0.000493961)
(0.946786 0.00338053 -0.000989045)
(0.946979 0.00361157 -0.00168978)
(0.946566 0.00376332 -0.00217756)
(0.946265 0.00400281 -0.00208171)
(0.945838 0.00423135 -0.00194436)
(0.945923 0.0044621 -0.00124614)
(0.945685 0.00457553 -0.000868304)
(0.946135 0.00458347 -0.00092755)
(0.946222 0.00447914 -0.000949135)
(0.946649 0.00451019 -0.000829226)
(0.946466 0.00432956 -0.0011057)
(0.946748 0.0043724 -0.00149242)
(0.946562 0.00457074 -0.00182356)
(0.947042 0.00485965 -0.00163139)
(0.9476 0.00495731 -0.000966961)
(0.949005 0.00495526 -1.78591e-05)
(0.949485 0.00473837 0.000412916)
(0.950608 0.00474818 0.000476848)
(0.951241 0.00465837 0.000211605)
(0.951897 0.00466918 0.000131205)
(0.95173 0.00476051 0.000137412)
(0.951609 0.00490054 0.000238894)
(0.951066 0.00502106 5.08003e-05)
(0.950958 0.0052404 0.000128443)
(0.93445 0.0058438 0.000164727)
(0.934379 0.00580327 0.000597221)
(0.934392 0.00576282 0.00101272)
(0.9352 0.00577102 0.00134183)
(0.935769 0.00557873 0.00106178)
(0.936424 0.00545508 0.00133527)
(0.937025 0.00522946 0.00206246)
(0.937762 0.00488575 0.00283218)
(0.937864 0.00441963 0.0030803)
(0.937869 0.00396595 0.0034817)
(0.937274 0.00361528 0.00361596)
(0.937198 0.00354059 0.00323964)
(0.93639 0.00352256 0.00270263)
(0.935892 0.00380265 0.00191046)
(0.936173 0.00398772 0.000681038)
(0.936744 0.00391755 -0.000529836)
(0.936779 0.00368853 -0.00131056)
(0.937163 0.00389382 -0.00219453)
(0.937047 0.00422291 -0.002595)
(0.937011 0.00447385 -0.00187189)
(0.937191 0.00452869 -0.000983621)
(0.937755 0.00463964 4.36418e-05)
(0.938433 0.00473993 0.00055203)
(0.939036 0.00478346 0.000658506)
(0.938808 0.00474033 0.000558976)
(0.938089 0.00468703 0.000403807)
(0.936651 0.00438509 -3.81273e-05)
(0.935332 0.00434313 -0.000314073)
(0.934387 0.00449921 -0.000519967)
(0.93454 0.00465649 -0.00058088)
(0.935487 0.00465907 -0.000463854)
(0.937234 0.00465112 0.000151135)
(0.93832 0.00457785 0.000341675)
(0.939244 0.00473994 0.000259389)
(0.939434 0.00480916 0.000106967)
(0.93908 0.0049314 0.000264532)
(0.938206 0.00503842 0.000502885)
(0.937088 0.00525161 0.00078576)
(0.935803 0.00547364 0.000355226)
(0.935198 0.0057424 0.000271686)
(0.918334 0.00543405 0.00152546)
(0.918885 0.00538413 0.00190551)
(0.919946 0.00546168 0.0022039)
(0.921379 0.00552932 0.00237281)
(0.922716 0.00538142 0.00216476)
(0.923507 0.00532968 0.0026338)
(0.924786 0.00516956 0.00336827)
(0.925628 0.00499288 0.00378603)
(0.926353 0.00474799 0.00362558)
(0.926001 0.00450224 0.00386688)
(0.92562 0.00432496 0.00415841)
(0.924897 0.00436909 0.00433393)
(0.923996 0.00442549 0.00429876)
(0.922968 0.00451988 0.00386853)
(0.923772 0.00452776 0.00257218)
(0.92438 0.00432375 0.00134496)
(0.925106 0.00404718 0.000795517)
(0.925042 0.00421433 8.05071e-05)
(0.926139 0.00452171 -0.000217955)
(0.926783 0.00469785 0.000814068)