/*--------------------------------*- C++ -*----------------------------------*\
  =========                 |
  \\      /  F ield         | OpenFOAM: The Open Source CFD Toolbox
   \\    /   O peration     | Website:  https://openfoam.org
    \\  /    A nd           | Version:  10
     \\/     M anipulation  |
\*---------------------------------------------------------------------------*/
FoamFile
{
    format      ascii;
    class       volSymmTensorField;
    location    "50";
    object      UPrime2Mean;
}
// * * * * * * * * * * * * * * * * * * * * * * * * * * * * * * * * * * * * * //

dimensions      [0 2 -2 0 0 0 0];

internalField   nonuniform List<symmTensor> 
25600
(
(0.000604884 -1.09695e-06 -3.09066e-06 7.75465e-06 1.69032e-06 9.59833e-07)
(0.0006037 -2.52129e-06 -3.29564e-06 7.44948e-06 1.73662e-06 1.03968e-06)
(0.000602677 -2.97485e-06 -3.80562e-06 7.41148e-06 1.716e-06 1.00747e-06)
(0.000602522 -2.96548e-06 -3.84782e-06 7.39897e-06 1.6073e-06 1.0201e-06)
(0.000602498 -3.57445e-06 -4.10141e-06 7.76564e-06 1.58998e-06 9.55994e-07)
(0.000603447 -3.3906e-06 -4.31594e-06 7.66116e-06 1.75196e-06 9.76248e-07)
(0.000604087 -3.4786e-06 -4.32917e-06 7.30618e-06 1.71364e-06 1.0829e-06)
(0.000604596 -3.69784e-06 -4.5134e-06 7.98924e-06 1.65652e-06 1.04331e-06)
(0.000605508 -3.39165e-06 -4.62256e-06 8.04465e-06 1.73173e-06 1.01692e-06)
(0.000606576 -3.60002e-06 -4.83036e-06 7.86594e-06 1.76232e-06 1.0495e-06)
(0.00060819 -3.38593e-06 -5.0692e-06 8.32812e-06 1.72902e-06 1.04571e-06)
(0.000609245 -3.40023e-06 -5.25131e-06 8.0577e-06 1.82927e-06 1.02989e-06)
(0.000611181 -3.47728e-06 -5.55742e-06 7.97922e-06 1.82503e-06 1.02714e-06)
(0.000612905 -2.96157e-06 -5.60226e-06 8.57472e-06 1.77243e-06 1.07847e-06)
(0.0006143 -2.67208e-06 -5.24969e-06 8.35617e-06 1.80096e-06 1.01567e-06)
(0.000616121 -2.19474e-06 -4.97305e-06 8.18208e-06 1.72634e-06 9.11739e-07)
(0.000617241 -1.3441e-06 -4.56539e-06 8.24324e-06 1.68677e-06 9.10759e-07)
(0.000618339 -3.69216e-08 -4.03795e-06 7.89383e-06 1.52752e-06 8.33667e-07)
(0.000618261 8.87888e-07 -3.67459e-06 7.67027e-06 1.31502e-06 8.0157e-07)
(0.000617939 1.97612e-06 -3.41853e-06 7.70651e-06 1.36492e-06 7.63023e-07)
(0.000616958 2.94946e-06 -3.17613e-06 7.65689e-06 1.45052e-06 7.7699e-07)
(0.000614737 2.81763e-06 -2.99286e-06 7.57528e-06 1.32396e-06 8.25975e-07)
(0.000613698 3.4716e-06 -2.96216e-06 8.01504e-06 1.41071e-06 7.80497e-07)
(0.000612088 3.49256e-06 -2.93844e-06 7.75225e-06 1.43825e-06 8.31784e-07)
(0.000609407 2.70845e-06 -2.99003e-06 7.85582e-06 1.39018e-06 8.68428e-07)
(0.00060801 2.14821e-06 -2.99533e-06 8.34316e-06 1.58204e-06 8.74316e-07)
(0.000607814 1.4455e-06 -2.96903e-06 7.82498e-06 1.60843e-06 9.02115e-07)
(0.000606904 1.1273e-06 -2.80101e-06 7.97046e-06 1.5695e-06 8.61641e-07)
(0.000606759 1.6533e-06 -2.58793e-06 8.3208e-06 1.6185e-06 9.05102e-07)
(0.000606911 1.59706e-06 -2.38176e-06 8.01483e-06 1.67045e-06 9.52789e-07)
(0.000606121 2.44095e-06 -2.26363e-06 8.29951e-06 1.66528e-06 9.15318e-07)
(0.000606666 3.47291e-06 -2.00816e-06 8.27604e-06 1.71695e-06 9.31564e-07)
(0.000606735 3.9213e-06 -2.01123e-06 8.25725e-06 1.72349e-06 9.30759e-07)
(0.000607 4.24598e-06 -2.08515e-06 8.63296e-06 1.75425e-06 9.83202e-07)
(0.000608148 3.87083e-06 -2.01365e-06 8.36565e-06 1.81863e-06 1.03483e-06)
(0.000607672 3.46503e-06 -2.41127e-06 8.46747e-06 1.68507e-06 9.74366e-07)
(0.00060737 2.1791e-06 -2.66979e-06 8.18386e-06 1.65256e-06 9.45127e-07)
(0.000607669 1.73106e-06 -2.76006e-06 8.21272e-06 1.83632e-06 9.8629e-07)
(0.000606959 7.19911e-07 -2.98026e-06 7.94785e-06 1.73892e-06 1.05491e-06)
(0.000605744 -6.11927e-07 -3.13007e-06 7.55116e-06 1.56509e-06 9.62432e-07)
(0.000601919 -4.76099e-07 -2.09843e-06 1.11004e-05 2.80011e-06 2.08434e-06)
(0.000600272 -2.04582e-06 -2.26785e-06 1.05588e-05 2.65402e-06 2.15049e-06)
(0.000599712 -2.58123e-06 -3.14755e-06 1.09991e-05 2.54612e-06 2.01817e-06)
(0.000599802 -2.65637e-06 -3.36068e-06 1.08491e-05 2.55834e-06 2.04031e-06)
(0.000599763 -3.42041e-06 -3.45645e-06 1.09238e-05 2.48955e-06 2.00855e-06)
(0.000600813 -3.3864e-06 -3.49796e-06 1.10441e-05 2.58348e-06 2.05418e-06)
(0.000601156 -3.63542e-06 -3.2742e-06 1.06969e-05 2.60987e-06 2.18166e-06)
(0.000601538 -3.962e-06 -3.45953e-06 1.11782e-05 2.48736e-06 2.04031e-06)
(0.000602559 -3.87386e-06 -3.6235e-06 1.14677e-05 2.60667e-06 2.00471e-06)
(0.000603882 -3.97518e-06 -3.87835e-06 1.13433e-05 2.68627e-06 2.12426e-06)
(0.000605531 -3.88016e-06 -4.36015e-06 1.15433e-05 2.64832e-06 2.01698e-06)
(0.000606251 -3.91726e-06 -4.66418e-06 1.13589e-05 2.77671e-06 1.87136e-06)
(0.000607965 -3.92296e-06 -4.94923e-06 1.15708e-05 2.76589e-06 1.89549e-06)
(0.00060965 -3.58202e-06 -4.78421e-06 1.21027e-05 2.72679e-06 2.00368e-06)
(0.000611508 -3.29831e-06 -4.17227e-06 1.16198e-05 2.61052e-06 1.7942e-06)
(0.000613377 -2.94542e-06 -3.71879e-06 1.14257e-05 2.53842e-06 1.54404e-06)
(0.000614674 -1.79983e-06 -3.15866e-06 1.15846e-05 2.48078e-06 1.55538e-06)
(0.000616287 -3.59083e-07 -2.61412e-06 1.11402e-05 2.24799e-06 1.55207e-06)
(0.000616334 5.12376e-07 -2.43312e-06 1.0977e-05 2.17839e-06 1.57771e-06)
(0.000616444 1.98383e-06 -2.54226e-06 1.09803e-05 2.30622e-06 1.51036e-06)
(0.000615458 2.78315e-06 -2.62391e-06 1.02987e-05 2.36679e-06 1.57434e-06)
(0.000613319 2.94522e-06 -2.57759e-06 1.05943e-05 2.33855e-06 1.69897e-06)
(0.000612283 4.05889e-06 -2.63273e-06 1.16541e-05 2.54874e-06 1.65945e-06)
(0.000610151 3.51285e-06 -2.97119e-06 1.08372e-05 2.4689e-06 1.68535e-06)
(0.000607154 2.54156e-06 -3.1954e-06 1.07716e-05 2.38835e-06 1.72792e-06)
(0.000605627 1.61856e-06 -3.22579e-06 1.1115e-05 2.582e-06 1.77805e-06)
(0.000605693 4.07401e-07 -3.27269e-06 1.06122e-05 2.59205e-06 1.83824e-06)
(0.000605553 1.14616e-07 -3.08273e-06 1.11173e-05 2.55308e-06 1.76827e-06)
(0.000605873 6.28195e-07 -2.84114e-06 1.10788e-05 2.64297e-06 1.83808e-06)
(0.000606416 5.65439e-07 -2.5789e-06 1.06258e-05 2.64965e-06 1.95352e-06)
(0.000606216 1.68671e-06 -2.27614e-06 1.1242e-05 2.55437e-06 1.87685e-06)
(0.000606746 3.04746e-06 -1.9874e-06 1.10407e-05 2.59262e-06 1.83247e-06)
(0.000606462 3.56938e-06 -1.89417e-06 1.09588e-05 2.5978e-06 1.84613e-06)
(0.000605782 4.03535e-06 -1.58298e-06 1.14947e-05 2.71809e-06 1.98253e-06)
(0.000606496 3.77771e-06 -1.40697e-06 1.11766e-05 2.68092e-06 2.04275e-06)
(0.000605279 3.08967e-06 -1.92923e-06 1.11338e-05 2.51514e-06 1.95522e-06)
(0.000604478 2.3875e-06 -2.10856e-06 1.14096e-05 2.64451e-06 1.94829e-06)
(0.000604987 2.06113e-06 -2.14419e-06 1.14088e-05 2.82022e-06 2.04705e-06)
(0.000603634 9.00157e-07 -2.29641e-06 1.09116e-05 2.60036e-06 2.11901e-06)
(0.000602686 8.98834e-09 -2.28044e-06 1.11488e-05 2.5362e-06 2.01026e-06)
(0.000588647 -7.10607e-07 2.26267e-06 1.70769e-05 2.6098e-06 4.57957e-06)
(0.00058616 -2.51284e-06 1.98501e-06 1.68201e-05 2.22822e-06 4.61798e-06)
(0.000586247 -2.55612e-06 6.4162e-07 1.78575e-05 2.02733e-06 4.31624e-06)
(0.000586632 -2.8652e-06 1.41033e-07 1.72617e-05 2.1598e-06 4.3641e-06)
(0.000586259 -4.19834e-06 5.25099e-07 1.72868e-05 2.11723e-06 4.47253e-06)
(0.000587108 -4.31434e-06 1.05449e-06 1.7647e-05 2.2434e-06 4.54247e-06)
(0.000586833 -5.00864e-06 1.43677e-06 1.69901e-05 2.27992e-06 4.61816e-06)
(0.000586938 -5.59866e-06 1.06765e-06 1.74617e-05 2.06583e-06 4.40353e-06)
(0.000588041 -5.71783e-06 7.71611e-07 1.81092e-05 2.41593e-06 4.35667e-06)
(0.000589497 -5.80496e-06 2.85049e-07 1.76205e-05 2.51187e-06 4.47029e-06)
(0.000591065 -5.88628e-06 -4.65071e-07 1.7758e-05 2.46423e-06 4.23153e-06)
(0.00059201 -5.96185e-06 -6.73117e-07 1.79777e-05 2.82923e-06 3.98962e-06)
(0.000594228 -6.06919e-06 -8.17905e-07 1.81015e-05 2.7956e-06 4.10338e-06)
(0.000595962 -6.0986e-06 -5.36791e-07 1.8562e-05 2.72397e-06 4.27491e-06)
(0.000597498 -6.15667e-06 4.02341e-07 1.8034e-05 2.59636e-06 3.88801e-06)
(0.00059884 -5.84912e-06 1.15269e-06 1.77269e-05 2.48904e-06 3.48771e-06)
(0.000599671 -4.07308e-06 1.90727e-06 1.80821e-05 2.43491e-06 3.53768e-06)
(0.000600769 -2.4187e-06 2.38544e-06 1.75751e-05 2.16388e-06 3.71939e-06)
(0.000600284 -1.4623e-06 2.14924e-06 1.73203e-05 2.28946e-06 3.74971e-06)
(0.000600064 2.89349e-07 1.45818e-06 1.69994e-05 2.63133e-06 3.44454e-06)
(0.000598678 1.01528e-06 8.06729e-07 1.59558e-05 2.74452e-06 3.47544e-06)
(0.00059713 2.09982e-06 6.48461e-07 1.72024e-05 2.96256e-06 3.67107e-06)
(0.000596043 3.42892e-06 4.40542e-07 1.81987e-05 3.216e-06 3.59261e-06)
(0.000593357 2.69807e-06 -3.06287e-07 1.69924e-05 3.03501e-06 3.4822e-06)
(0.000590426 2.1188e-06 -7.56813e-07 1.73386e-05 2.8993e-06 3.53248e-06)
(0.000588586 7.84219e-07 -8.43779e-07 1.72545e-05 2.97997e-06 3.71042e-06)
(0.000588731 -8.13658e-07 -7.93977e-07 1.69269e-05 2.8713e-06 3.80392e-06)
(0.000589017 -1.19704e-06 -6.42377e-07 1.74471e-05 2.68845e-06 3.73306e-06)
(0.000589348 -1.12414e-06 -4.67154e-07 1.69535e-05 2.91448e-06 3.89019e-06)
(0.00059041 -8.04651e-07 5.2086e-08 1.68658e-05 2.82603e-06 4.10476e-06)
(0.000591758 7.11272e-07 5.51259e-07 1.74664e-05 2.41575e-06 4.00113e-06)
(0.000593299 2.38916e-06 8.42475e-07 1.6621e-05 2.45659e-06 3.91927e-06)
(0.000593817 3.15737e-06 1.10586e-06 1.63319e-05 2.36299e-06 4.0245e-06)
(0.000593657 3.70587e-06 1.71274e-06 1.70991e-05 2.42059e-06 4.21564e-06)
(0.00059433 3.52082e-06 1.89594e-06 1.67488e-05 2.34014e-06 4.2019e-06)
(0.000593029 2.63188e-06 1.36294e-06 1.65794e-05 2.1633e-06 4.20363e-06)
(0.000592261 2.61053e-06 1.35345e-06 1.76499e-05 2.39433e-06 4.27961e-06)
(0.000592632 2.18061e-06 1.4111e-06 1.73795e-05 2.45255e-06 4.32914e-06)
(0.000591037 8.78407e-07 1.51735e-06 1.68735e-05 2.21649e-06 4.41311e-06)
(0.000590235 2.85583e-07 1.92151e-06 1.77722e-05 2.3569e-06 4.38583e-06)
(0.000539249 -4.20739e-06 4.5255e-06 3.23834e-05 1.6e-06 1.07587e-05)
(0.000537885 -5.2128e-06 4.12138e-06 3.33216e-05 1.20821e-06 1.06705e-05)
(0.000539782 -4.29058e-06 2.60126e-06 3.45399e-05 9.53269e-07 1.02778e-05)
(0.000539185 -5.55231e-06 1.89065e-06 3.33329e-05 1.16625e-06 1.04989e-05)
(0.000537587 -7.23759e-06 2.92016e-06 3.4028e-05 1.41147e-06 1.06413e-05)
(0.00053832 -7.60931e-06 3.99885e-06 3.39694e-05 1.6934e-06 1.0773e-05)
(0.000536746 -9.01591e-06 4.25736e-06 3.25821e-05 1.685e-06 1.09385e-05)
(0.000535 -9.49644e-06 3.53462e-06 3.38269e-05 1.40449e-06 1.06308e-05)
(0.000534662 -9.52935e-06 3.11752e-06 3.43695e-05 2.20249e-06 1.05619e-05)
(0.000535575 -9.6914e-06 2.39116e-06 3.31791e-05 2.24137e-06 1.04694e-05)
(0.000536914 -1.00622e-05 1.75367e-06 3.40669e-05 2.04816e-06 9.88843e-06)
(0.000539064 -9.89399e-06 2.06952e-06 3.44058e-05 2.82886e-06 9.62784e-06)
(0.000542368 -9.68912e-06 1.84687e-06 3.36844e-05 2.60959e-06 9.88153e-06)
(0.000543135 -9.73354e-06 2.19375e-06 3.43115e-05 2.44002e-06 9.81129e-06)
(0.000543578 -9.6628e-06 4.02209e-06 3.36468e-05 2.2791e-06 8.80088e-06)
(0.00054467 -8.73958e-06 5.37466e-06 3.26169e-05 1.69325e-06 7.7915e-06)
(0.000544351 -5.38933e-06 6.51802e-06 3.34841e-05 1.45054e-06 7.63448e-06)
(0.000543323 -3.24943e-06 6.97347e-06 3.26485e-05 1.11517e-06 8.02432e-06)
(0.000540112 -2.24721e-06 6.39288e-06 3.18696e-05 1.30809e-06 8.1277e-06)
(0.000537701 7.59066e-08 5.55056e-06 3.17234e-05 1.78618e-06 7.68798e-06)
(0.00053446 1.71914e-06 4.69921e-06 3.09347e-05 1.97787e-06 7.86716e-06)
(0.000533206 3.92863e-06 4.537e-06 3.27872e-05 2.40819e-06 8.36909e-06)
(0.000533706 4.5635e-06 4.7062e-06 3.30658e-05 2.68176e-06 8.37681e-06)
(0.000533452 3.89214e-06 4.11196e-06 3.26212e-05 2.50188e-06 8.12924e-06)
(0.000532534 3.86693e-06 3.28531e-06 3.39275e-05 2.09627e-06 8.11834e-06)
(0.000529365 1.63637e-06 2.65193e-06 3.26904e-05 1.82142e-06 8.3192e-06)
(0.000527543 -5.41059e-07 2.25703e-06 3.22965e-05 1.48068e-06 8.38629e-06)
(0.000527084 -1.35027e-06 2.13917e-06 3.30129e-05 9.4278e-07 8.39565e-06)
(0.000527382 -1.61156e-06 2.57803e-06 3.27556e-05 1.41907e-06 8.6617e-06)
(0.000529515 -9.38516e-07 3.05682e-06 3.29096e-05 1.15529e-06 8.94136e-06)
(0.00053233 -7.49617e-07 2.89409e-06 3.29857e-05 2.44199e-07 8.9432e-06)
(0.000534688 -1.33407e-06 3.01001e-06 3.11196e-05 7.23511e-07 9.09416e-06)
(0.000537288 -1.23328e-06 3.06438e-06 3.04063e-05 7.56931e-07 9.51502e-06)
(0.000539347 -8.21917e-07 3.3555e-06 3.1585e-05 8.04712e-07 9.73338e-06)
(0.000541893 -1.09509e-06 3.61149e-06 3.11642e-05 9.98339e-07 9.60066e-06)
(0.000543189 -1.48822e-06 3.08685e-06 3.07944e-05 9.04993e-07 9.98255e-06)
(0.000544464 -5.24184e-07 3.36548e-06 3.30051e-05 1.26946e-06 1.03494e-05)
(0.000546096 -9.02946e-07 3.73236e-06 3.27104e-05 1.37474e-06 1.02046e-05)
(0.000544939 -1.96857e-06 3.8626e-06 3.25475e-05 1.23371e-06 1.02007e-05)
(0.000542865 -2.23332e-06 4.37486e-06 3.38097e-05 1.49863e-06 1.03795e-05)
(0.000471613 5.96541e-06 6.49856e-07 5.68502e-05 2.27562e-06 2.06136e-05)
(0.00047412 7.76222e-06 2.84338e-07 5.91831e-05 1.73493e-06 2.03375e-05)
(0.000476236 8.76955e-06 -9.11196e-07 5.96971e-05 1.15519e-06 2.00881e-05)
(0.000473515 7.34159e-06 -1.57219e-06 5.87735e-05 1.31569e-06 2.06743e-05)
(0.000470029 7.1218e-06 -4.07555e-07 6.01766e-05 2.218e-06 2.07777e-05)
(0.000469916 6.82931e-06 8.81924e-07 5.83719e-05 2.80233e-06 2.10266e-05)
(0.000465526 5.92579e-06 1.4325e-06 5.74216e-05 2.09204e-06 2.14205e-05)
(0.000458316 6.35667e-06 3.31297e-07 6.05926e-05 1.38138e-06 2.11118e-05)
(0.000452473 6.18125e-06 -7.19034e-08 5.98752e-05 2.70322e-06 2.08816e-05)
(0.000453517 6.32367e-06 3.01653e-08 5.8612e-05 2.64787e-06 1.99964e-05)
(0.000455347 7.78161e-06 3.78956e-09 6.1735e-05 1.77259e-06 1.8908e-05)
(0.000456769 9.34134e-06 1.05049e-06 6.16644e-05 2.3163e-06 1.90117e-05)
(0.000460311 9.70579e-06 1.09397e-06 5.95401e-05 1.8247e-06 1.95235e-05)
(0.000462381 1.15837e-05 1.26225e-06 6.13609e-05 1.09606e-06 1.82532e-05)
(0.000465262 1.26251e-05 2.87034e-06 6.02731e-05 -1.93476e-07 1.58255e-05)
(0.000467634 1.20426e-05 3.54234e-06 5.69399e-05 -1.87307e-06 1.45492e-05)
(0.00047146 1.59768e-05 3.96352e-06 5.79673e-05 -1.98078e-06 1.47732e-05)
(0.000473864 1.72028e-05 3.33764e-06 5.61513e-05 -1.82743e-06 1.53993e-05)
(0.000471907 1.7366e-05 2.23139e-06 5.48668e-05 -1.32602e-06 1.53568e-05)
(0.000473482 2.02823e-05 2.65682e-06 5.66903e-05 -6.08125e-07 1.48724e-05)
(0.000472603 2.15568e-05 2.65837e-06 5.75852e-05 -9.61163e-07 1.55779e-05)
(0.000472066 2.26771e-05 2.81142e-06 5.8636e-05 -1.49414e-06 1.66555e-05)
(0.000477229 2.33226e-05 4.01237e-06 5.83695e-05 -1.43115e-06 1.70512e-05)
(0.000483102 2.5012e-05 3.55167e-06 6.12729e-05 -1.2322e-06 1.72209e-05)
(0.000483849 2.55516e-05 1.253e-06 6.42914e-05 -1.98075e-06 1.68638e-05)
(0.000477464 2.13339e-05 -9.53552e-07 6.13888e-05 -2.63718e-06 1.66188e-05)
(0.000475062 1.97749e-05 -2.1475e-06 6.09276e-05 -3.37544e-06 1.70244e-05)
(0.000479702 1.99248e-05 -2.80801e-06 6.28775e-05 -4.18035e-06 1.73772e-05)
(0.000480358 1.8651e-05 -2.66254e-06 6.27452e-05 -3.07167e-06 1.76975e-05)
(0.000481951 1.91084e-05 -2.94811e-06 6.2557e-05 -3.34164e-06 1.82034e-05)
(0.000481127 1.65384e-05 -3.22897e-06 6.24225e-05 -3.75713e-06 1.85259e-05)
(0.000476135 1.08573e-05 -9.04298e-07 5.85647e-05 -1.1356e-06 1.85948e-05)
(0.000474907 7.90013e-06 6.89013e-07 5.54458e-05 1.24093e-07 1.87757e-05)
(0.000473216 5.81823e-06 1.27613e-06 5.5708e-05 8.14408e-07 1.83677e-05)
(0.000474404 4.39205e-06 1.14336e-06 5.44442e-05 1.27735e-06 1.79225e-05)
(0.000475483 4.33464e-06 1.39374e-07 5.38942e-05 1.06658e-06 1.87924e-05)
(0.000476351 6.89803e-06 1.31339e-06 5.72816e-05 1.89634e-06 1.93763e-05)
(0.000479742 7.98498e-06 1.40081e-06 5.73607e-05 1.80639e-06 1.91182e-05)
(0.000477861 7.51614e-06 5.61822e-08 5.79523e-05 1.51967e-06 1.93396e-05)
(0.000473602 7.27749e-06 4.62101e-07 5.8586e-05 2.23151e-06 1.99978e-05)
(0.000529729 7.66283e-05 7.11959e-06 9.31727e-05 6.19611e-06 4.30057e-05)
(0.00053232 7.9196e-05 6.39265e-06 9.51428e-05 5.29662e-06 4.23356e-05)
(0.000535252 8.14527e-05 5.13607e-06 9.66301e-05 3.53927e-06 4.21955e-05)
(0.000538553 8.28871e-05 5.08058e-06 9.93548e-05 3.52696e-06 4.34267e-05)
(0.000538635 8.42773e-05 6.56525e-06 0.000101214 5.58721e-06 4.338e-05)
(0.000544226 8.46325e-05 8.70431e-06 9.83907e-05 7.51697e-06 4.29052e-05)
(0.000543359 8.50185e-05 9.49179e-06 0.000100119 6.85028e-06 4.36723e-05)
(0.000537961 8.69786e-05 6.3976e-06 0.000104851 5.0236e-06 4.50311e-05)
(0.000531577 8.56034e-05 5.07749e-06 0.000103334 6.05527e-06 4.50444e-05)
(0.000538579 8.70002e-05 4.89598e-06 0.000103598 5.46769e-06 4.37581e-05)
(0.000549028 8.95842e-05 2.32176e-06 0.000106128 3.19085e-06 4.37404e-05)
(0.000550345 8.72854e-05 6.91845e-07 0.000101752 3.37963e-06 4.52313e-05)
(0.000556302 8.65295e-05 -1.66015e-06 9.87226e-05 2.2541e-06 4.51819e-05)
(0.000561672 8.91765e-05 -5.31162e-06 0.000101408 -1.98554e-06 4.08555e-05)
(0.000559824 8.26633e-05 -6.94423e-06 9.55798e-05 -6.39554e-06 3.7195e-05)
(0.000552684 7.10978e-05 -7.44597e-06 8.64198e-05 -7.99208e-06 3.76554e-05)
(0.000555975 7.15665e-05 -6.78089e-06 8.76457e-05 -6.42361e-06 3.85522e-05)
(0.000556259 6.95244e-05 -4.45122e-06 8.70319e-05 -4.58212e-06 3.81204e-05)
(0.00055425 6.60116e-05 -3.81461e-06 8.71137e-05 -4.58198e-06 3.64456e-05)
(0.00055695 6.63061e-05 -4.1028e-06 8.97779e-05 -4.9143e-06 3.46158e-05)
(0.00055709 6.41142e-05 -4.7642e-06 8.96241e-05 -5.71419e-06 3.59097e-05)
(0.000554356 6.25102e-05 -5.27451e-06 8.92448e-05 -7.31927e-06 3.75637e-05)
(0.000559822 6.51426e-05 -5.01349e-06 9.18163e-05 -8.082e-06 3.83017e-05)
(0.00056628 6.9525e-05 -5.7233e-06 9.86403e-05 -7.97516e-06 3.92265e-05)
(0.000563907 6.88409e-05 -7.03807e-06 0.000100324 -7.72244e-06 3.89848e-05)
(0.000561553 6.53304e-05 -6.79361e-06 9.63115e-05 -6.66449e-06 3.90971e-05)
(0.000560995 6.82831e-05 -6.77562e-06 9.73247e-05 -7.2256e-06 4.06157e-05)
(0.000563578 7.32784e-05 -9.57284e-06 0.000100298 -7.44294e-06 4.1028e-05)
(0.000553343 7.3209e-05 -1.25105e-05 9.99747e-05 -5.75932e-06 4.07796e-05)
(0.000548726 7.43652e-05 -1.46109e-05 9.89481e-05 -6.53628e-06 4.13734e-05)
(0.000545832 7.18588e-05 -1.17997e-05 9.78589e-05 -5.24349e-06 4.11281e-05)
(0.000537762 6.68929e-05 -4.74068e-06 9.34294e-05 -1.38316e-08 4.02702e-05)
(0.00053276 6.44756e-05 -1.25676e-06 9.04154e-05 1.26488e-06 4.13736e-05)
(0.000524443 6.27839e-05 -1.38951e-07 9.09549e-05 1.22026e-06 4.18103e-05)
(0.000524522 6.3288e-05 1.65849e-06 8.92294e-05 2.21894e-06 4.09969e-05)
(0.000525484 6.35195e-05 4.81905e-06 8.81273e-05 4.0879e-06 4.08784e-05)
(0.000526426 6.90941e-05 8.37567e-06 9.2111e-05 6.00989e-06 4.06213e-05)
(0.000527945 7.21926e-05 7.50935e-06 9.26395e-05 5.07505e-06 4.04974e-05)
(0.000525112 7.09085e-05 4.31058e-06 9.37719e-05 4.23652e-06 4.1343e-05)
(0.000524898 7.38785e-05 5.42142e-06 9.47841e-05 5.44872e-06 4.23307e-05)
(0.000847432 0.00019956 1.74349e-05 0.000149729 1.29342e-05 0.00010191)
(0.00083588 0.000198781 1.42341e-05 0.000152074 1.35761e-05 0.000101228)
(0.000835524 0.000202377 1.30988e-05 0.000159303 1.3291e-05 0.000100656)
(0.000840442 0.000201808 1.42114e-05 0.000167105 1.50807e-05 0.00010341)
(0.00083143 0.0001961 1.55968e-05 0.00016831 1.78778e-05 0.000105726)
(0.000833366 0.000192421 1.64442e-05 0.000165395 2.08632e-05 0.000106273)
(0.00083162 0.000194673 1.53309e-05 0.000169244 2.09786e-05 0.000107707)
(0.000817395 0.000194064 1.13601e-05 0.000171903 1.86049e-05 0.000111845)
(0.00079615 0.000185598 1.01253e-05 0.00016892 1.7056e-05 0.00011404)
(0.000802698 0.000184521 6.88819e-06 0.000170864 1.28515e-05 0.000110978)
(0.000806631 0.000180463 6.72876e-07 0.000168588 8.20987e-06 0.000107418)
(0.000796527 0.00017117 3.02487e-07 0.000155957 8.70072e-06 0.000106973)
(0.000812387 0.000172998 2.12909e-06 0.000153615 7.72642e-06 0.000103513)
(0.000816538 0.000175997 5.87743e-06 0.000159697 1.32041e-06 9.53686e-05)
(0.000801052 0.000167361 1.06963e-05 0.00014983 -6.6501e-06 8.8336e-05)
(0.000798739 0.000157547 1.29125e-05 0.000134379 -1.25537e-05 8.7274e-05)
(0.00081722 0.000159071 1.58334e-05 0.000131187 -1.14794e-05 8.83473e-05)
(0.000828093 0.000156941 2.3967e-05 0.00012676 -4.00321e-06 8.4109e-05)
(0.000830519 0.000155241 2.8265e-05 0.000129387 -7.4805e-07 7.73928e-05)
(0.000824634 0.000155301 2.88122e-05 0.000136894 -1.2903e-06 7.49516e-05)
(0.000826822 0.00015283 2.98912e-05 0.000139152 -1.86943e-06 7.59511e-05)
(0.000834413 0.0001507 3.09366e-05 0.000142494 -5.86821e-06 7.5482e-05)
(0.000847809 0.000154406 3.32119e-05 0.000154443 -9.91178e-06 7.5487e-05)
(0.000860993 0.000161038 3.87268e-05 0.000169265 -9.9424e-06 7.92195e-05)
(0.000860937 0.000160911 4.23898e-05 0.000173105 -9.71678e-06 8.26717e-05)
(0.000862796 0.000158296 4.42229e-05 0.000169789 -1.06766e-05 8.44361e-05)
(0.000867226 0.000167618 4.60888e-05 0.000172144 -1.21783e-05 8.81051e-05)
(0.000883216 0.00018334 4.33184e-05 0.000176386 -1.08859e-05 9.08403e-05)
(0.000880984 0.000186417 3.52043e-05 0.000174539 -9.95979e-06 8.92736e-05)
(0.000879229 0.000184414 2.82869e-05 0.000170185 -1.26586e-05 8.77759e-05)
(0.000884972 0.000182928 3.31037e-05 0.000166029 -9.48916e-06 8.8577e-05)
(0.000885962 0.000182578 4.44126e-05 0.00015658 -1.33371e-06 9.01071e-05)
(0.00088799 0.000183445 4.85801e-05 0.00014772 1.73174e-06 9.27143e-05)
(0.000882094 0.000187222 4.55473e-05 0.000146006 2.66151e-06 9.53245e-05)
(0.00087788 0.000190391 4.16137e-05 0.000142512 5.14493e-06 9.43879e-05)
(0.000868557 0.00018939 3.98936e-05 0.000139253 8.08839e-06 9.29023e-05)
(0.000864172 0.000196546 3.62322e-05 0.000143298 9.31115e-06 9.45807e-05)
(0.000859052 0.00019905 2.89841e-05 0.000145295 8.7498e-06 9.64879e-05)
(0.000856519 0.000199071 2.13424e-05 0.000150154 8.45018e-06 9.84253e-05)
(0.000853748 0.000201964 1.86472e-05 0.00015265 1.00267e-05 0.000100432)
(0.00104458 0.000258399 4.25139e-05 0.000259757 -1.3372e-05 0.000211277)
(0.00105281 0.00026302 3.91062e-05 0.000264449 -1.07273e-05 0.000206448)
(0.00107104 0.000273709 3.75038e-05 0.000274115 -5.55481e-06 0.000206317)
(0.00108752 0.000273636 4.23067e-05 0.000280278 -2.63175e-07 0.000212993)
(0.00108597 0.000264482 4.46264e-05 0.000280401 -7.34824e-07 0.000216087)
(0.00109039 0.00026165 4.24293e-05 0.000282661 -6.27402e-07 0.000212945)
(0.00110301 0.000271791 3.93011e-05 0.000289047 2.21689e-06 0.000209331)
(0.00109849 0.000275897 3.40713e-05 0.000287842 5.93387e-07 0.000210758)
(0.00107814 0.00026747 3.40049e-05 0.000285338 -4.60894e-06 0.000211131)
(0.00110645 0.000268933 3.21194e-05 0.000286804 -1.31535e-05 0.000200461)
(0.00113529 0.000267256 2.72146e-05 0.00027433 -1.78351e-05 0.000190099)
(0.00113248 0.000258716 3.25638e-05 0.000251864 -1.16493e-05 0.000186284)
(0.00115691 0.000265986 4.57128e-05 0.000245158 -6.67655e-06 0.000175141)
(0.00117574 0.000274866 6.30616e-05 0.000246848 -7.60684e-06 0.000162385)
(0.00116481 0.000271052 7.63578e-05 0.000235491 -1.07308e-05 0.00015657)
(0.0011622 0.000264635 7.65233e-05 0.000220724 -1.5806e-05 0.000157544)
(0.00118873 0.000266065 7.25899e-05 0.000215297 -1.39775e-05 0.000158588)
(0.00119967 0.000257905 8.00821e-05 0.000208039 -3.23313e-06 0.000155511)
(0.00120874 0.000257673 9.02321e-05 0.000208772 1.42327e-06 0.000157143)
(0.00119828 0.000260722 9.29967e-05 0.000211158 4.46227e-07 0.000164891)
(0.00117457 0.000254825 8.67091e-05 0.000209288 -2.62369e-06 0.000171305)
(0.00115801 0.00024998 7.37682e-05 0.000216998 -1.02992e-05 0.000167427)
(0.00114915 0.000255423 6.51456e-05 0.000238798 -1.62267e-05 0.000164026)
(0.00114817 0.000264467 6.74105e-05 0.000258338 -1.69294e-05 0.000171175)
(0.00112557 0.000260788 6.61611e-05 0.000264227 -2.19065e-05 0.000178281)
(0.00108514 0.000251488 5.9146e-05 0.000266385 -2.87407e-05 0.000179084)
(0.00106842 0.000260775 5.30039e-05 0.000275364 -3.2276e-05 0.000180405)
(0.00107337 0.000278205 4.57573e-05 0.000283914 -3.25677e-05 0.000184106)
(0.00103881 0.000274036 3.6664e-05 0.000282654 -3.23691e-05 0.000183044)
(0.0010064 0.000263266 3.00857e-05 0.000283172 -3.00776e-05 0.000179553)
(0.00098839 0.000254095 3.4386e-05 0.000286124 -2.01816e-05 0.000180887)
(0.000966994 0.00024252 4.49124e-05 0.000277381 -1.16309e-05 0.000186186)
(0.000964416 0.000238388 4.85429e-05 0.000266032 -1.09016e-05 0.000191317)
(0.000970708 0.000243352 5.1367e-05 0.000263375 -1.29064e-05 0.000200537)
(0.000968223 0.000240481 5.89469e-05 0.000258212 -1.54102e-05 0.000209445)
(0.000962903 0.000236192 5.93748e-05 0.000254118 -1.91241e-05 0.00020934)
(0.000981372 0.000246837 5.11535e-05 0.000258556 -2.17909e-05 0.000202629)
(0.000995775 0.000256199 4.53569e-05 0.000262335 -1.98865e-05 0.000198585)
(0.00101876 0.000266273 4.32162e-05 0.000268536 -1.58973e-05 0.000204043)
(0.00103791 0.000266709 4.40294e-05 0.000265945 -1.44485e-05 0.000210994)
(0.00131258 0.000381744 8.26362e-06 0.000332989 -3.27127e-05 0.000293956)
(0.00134175 0.000390892 1.91708e-05 0.000335281 -2.60224e-05 0.00028213)
(0.00135772 0.000394207 2.14209e-05 0.000332056 -2.04178e-05 0.000268672)
(0.00137627 0.000389699 2.7708e-05 0.0003241 -1.85013e-05 0.000272272)
(0.00138516 0.000379794 3.37048e-05 0.000320816 -2.37962e-05 0.000275742)
(0.00139361 0.000376253 3.46728e-05 0.00032432 -2.06137e-05 0.000267186)
(0.00143247 0.00039002 3.4702e-05 0.000328845 -9.3594e-06 0.000258215)
(0.00145504 0.000397686 2.50436e-05 0.000330088 -8.45921e-06 0.000253897)
(0.00144092 0.000389941 1.54881e-05 0.000328577 -1.3438e-05 0.000240752)
(0.00147412 0.000386955 6.9068e-06 0.000321745 -2.06632e-05 0.000216466)
(0.00151635 0.000376406 9.38859e-07 0.000305703 -2.29379e-05 0.000199013)
(0.00149476 0.000361797 9.4668e-06 0.00028688 -1.39682e-05 0.00018591)
(0.00148859 0.000372124 2.10744e-05 0.000277806 -6.57565e-06 0.000175598)
(0.00150583 0.000388851 2.88232e-05 0.000272244 -5.52262e-06 0.000173111)
(0.00149329 0.000386861 3.13119e-05 0.000258568 -6.89052e-06 0.000179273)
(0.00147326 0.000378957 2.06082e-05 0.000248796 -1.53631e-05 0.000193812)
(0.00148387 0.000374779 1.12884e-05 0.000250833 -1.71995e-05 0.000203149)
(0.00148547 0.000367827 3.20019e-05 0.000254162 -3.59431e-06 0.000203522)
(0.00151461 0.000375059 5.3847e-05 0.000261809 1.10202e-06 0.000205737)
(0.00151075 0.000379207 5.87819e-05 0.000264345 -6.10045e-06 0.000215017)
(0.00150061 0.000383071 6.36118e-05 0.000263655 -1.20793e-05 0.000223042)
(0.00150518 0.000395183 5.94862e-05 0.000282257 -1.76899e-05 0.000219286)
(0.0014991 0.000409937 4.84926e-05 0.000314126 -2.10494e-05 0.000220311)
(0.00150641 0.000424389 5.12338e-05 0.000334071 -2.20208e-05 0.000239504)
(0.00148915 0.000415914 6.08984e-05 0.000332255 -2.41232e-05 0.000258262)
(0.00144275 0.000397125 6.04798e-05 0.000322142 -2.4448e-05 0.000258781)
(0.0014389 0.00040422 5.50999e-05 0.000325241 -2.50759e-05 0.000261684)
(0.00144002 0.000418921 5.18734e-05 0.000337919 -2.61209e-05 0.000282299)
(0.00138337 0.000406702 5.68118e-05 0.000336424 -2.17785e-05 0.00029214)
(0.00133987 0.000394212 6.25971e-05 0.000331589 -1.4435e-05 0.000283988)
(0.00132938 0.000384124 6.02916e-05 0.000334446 -1.23329e-05 0.000287555)
(0.00130149 0.000364808 5.30907e-05 0.000334105 -1.41563e-05 0.000297259)
(0.00128739 0.000362802 4.49534e-05 0.000330368 -1.71476e-05 0.000309167)
(0.00129895 0.000371737 4.4131e-05 0.00032735 -2.7147e-05 0.00032488)
(0.00128497 0.000364305 4.73571e-05 0.000323322 -3.99685e-05 0.000336029)
(0.00126534 0.000356749 3.58935e-05 0.000326761 -5.07911e-05 0.000331604)
(0.00129452 0.000365702 1.64217e-05 0.00033777 -5.29665e-05 0.000306775)
(0.00131227 0.00037698 1.30651e-05 0.000345405 -4.0688e-05 0.000290053)
(0.00131742 0.000390144 9.88047e-06 0.000347427 -3.28695e-05 0.000290702)
(0.00130558 0.000387516 2.31971e-06 0.000338945 -3.5248e-05 0.000293429)
(0.00156044 0.000457924 0.000123465 0.000354987 -2.5316e-05 0.000407445)
(0.0016152 0.000469338 0.000153821 0.000350987 -2.61282e-05 0.000405008)
(0.00163753 0.000467579 0.00016679 0.000344484 -2.32469e-05 0.000397189)
(0.00166069 0.00046963 0.000171929 0.0003396 -2.0976e-05 0.000412758)
(0.00169338 0.000472113 0.000173368 0.000339057 -2.76649e-05 0.000418739)
(0.00174223 0.000483548 0.000169073 0.000337692 -2.32617e-05 0.000397117)
(0.00183523 0.000512022 0.00016327 0.00033955 -1.49382e-05 0.000377973)
(0.00189655 0.000536163 0.00015656 0.000347867 -1.45104e-05 0.000369935)
(0.00190416 0.000538869 0.000151923 0.000344792 -1.24503e-05 0.000359877)
(0.00193361 0.000534745 0.000137212 0.000335312 -1.40663e-05 0.000347841)
(0.0019615 0.000532366 0.000114057 0.000329087 -1.74482e-05 0.000327319)
(0.00196283 0.000531819 0.0001019 0.000322364 -1.42781e-05 0.000300885)
(0.00199827 0.000546333 9.3294e-05 0.00032508 -1.97058e-05 0.000297328)
(0.00200858 0.00055629 7.86326e-05 0.000333687 -3.20358e-05 0.000303551)
(0.00198569 0.000548134 6.06807e-05 0.000334679 -3.71952e-05 0.000309379)
(0.00194277 0.000533522 3.59819e-05 0.000336064 -4.41562e-05 0.000323032)
(0.00192593 0.000529106 1.73792e-05 0.000342483 -4.00139e-05 0.000325339)
(0.0019391 0.000533708 2.3445e-05 0.000346826 -1.81505e-05 0.000317746)
(0.00196875 0.000535105 1.63665e-05 0.000353011 -1.51283e-05 0.000316657)
(0.00196998 0.000532412 -2.66499e-07 0.000357099 -2.52578e-05 0.000311932)
(0.00199998 0.00054491 3.8889e-06 0.000369112 -2.59152e-05 0.000314154)
(0.00200339 0.000557182 1.76052e-05 0.000402428 -2.57299e-05 0.000320355)
(0.00198585 0.000567445 3.51417e-05 0.000438326 -2.35388e-05 0.000328906)
(0.00199439 0.000575508 5.5765e-05 0.000452257 -2.07588e-05 0.000353509)
(0.00193869 0.000549176 6.69705e-05 0.000436333 -2.21776e-05 0.000367959)
(0.0018524 0.000516736 6.77428e-05 0.000411325 -2.15147e-05 0.000355648)
(0.00184454 0.000523011 6.79256e-05 0.000407025 -2.17606e-05 0.000364255)
(0.0018626 0.000538808 7.89211e-05 0.000419024 -2.29351e-05 0.000406955)
(0.00180247 0.000515466 0.000100815 0.00041107 -1.49986e-05 0.000423106)
(0.00174393 0.00048996 0.00011061 0.000396115 -1.17781e-05 0.000408501)
(0.00175308 0.000482547 9.69077e-05 0.000392734 -2.48345e-05 0.000399483)
(0.00174043 0.000468612 8.56851e-05 0.0003872 -3.38247e-05 0.000405812)
(0.00174521 0.000467231 9.84472e-05 0.000382461 -3.76619e-05 0.000432475)
(0.00177801 0.000476662 0.000114917 0.00038414 -4.62217e-05 0.000445602)
(0.0017521 0.000467604 0.000126084 0.000381475 -4.83642e-05 0.0004333)
(0.00166913 0.000442074 0.000132487 0.000378428 -4.41236e-05 0.000409672)