/*--------------------------------*- C++ -*----------------------------------*\
  =========                 |
  \\      /  F ield         | OpenFOAM: The Open Source CFD Toolbox
   \\    /   O peration     | Website:  https://openfoam.org
    \\  /    A nd           | Version:  10
     \\/     M anipulation  |
\*---------------------------------------------------------------------------*/
FoamFile
{
    format      ascii;
    class       volScalarField;
    location    "5";
    object      pMean;
}
// * * * * * * * * * * * * * * * * * * * * * * * * * * * * * * * * * * * * * //

dimensions      [0 2 -2 0 0 0 0];

internalField   nonuniform List<scalar> 
102400
(
-0.0014423
0.00847586
0.033143
0.0185138
-0.0200153
-0.0384366
-0.00123417
0.028663
0.0196269
0.00136737
0.00854754
0.00512052
0.00991322
0.0232348
0.0136372
0.00411066
0.00820976
0.0196984
0.0128726
-0.0190397
-0.011573
0.011373
0.00718997
-0.000818575
0.001141
0.00216024
-0.00455051
-0.00541528
-0.00659881
-0.0186047
0.00583618
0.0296508
0.0011117
-0.0233757
0.00179085
0.021366
0.00438337
0.00742026
0.0171479
0.00644428
-0.00145011
0.00845682
0.0332742
0.0185663
-0.02042
-0.0389365
-0.00116814
0.0288074
0.0195367
0.00139097
0.00850027
0.00507059
0.0100832
0.0234871
0.0137317
0.00412757
0.00823629
0.0197645
0.0129346
-0.0190189
-0.0114496
0.0114453
0.00732572
-0.000751263
0.0011631
0.00213271
-0.00465154
-0.00555125
-0.00681156
-0.0187799
0.00593196
0.029689
0.00097461
-0.0234239
0.00160768
0.0211776
0.00422165
0.00736045
0.0170451
0.00638374
-0.00126308
0.00855043
0.033184
0.0186599
-0.0200078
-0.0398432
-0.00264875
0.0284562
0.0196374
0.00132132
0.00834078
0.00491763
0.0102132
0.0239185
0.0137945
0.00404669
0.00831969
0.0199478
0.0130105
-0.0191914
-0.0114298
0.0114938
0.00752019
-0.000630114
0.00114031
0.00198162
-0.00487287
-0.00581472
-0.00716975
-0.0190942
0.00581393
0.0296604
0.000746443
-0.0233808
0.00153771
0.0210348
0.00393503
0.00720384
0.0168177
0.00610213
-0.00122611
0.00889021
0.033267
0.0187371
-0.0199015
-0.0399809
-0.00474069
0.0261014
0.0186982
0.00197988
0.00847165
0.00445719
0.010007
0.0244103
0.0139772
0.00398668
0.00823491
0.0200659
0.0133215
-0.0191308
-0.0114194
0.0113971
0.0075882
-0.000559081
0.00108701
0.00158585
-0.00519381
-0.00617768
-0.00769894
-0.0191478
0.00560733
0.0289467
0.000427264
-0.0229695
0.00153268
0.0210271
0.00373682
0.00677497
0.016518
0.00572909
-0.00132464
0.00920483
0.0333372
0.0190859
-0.0195183
-0.040126
-0.0084164
0.023574
0.0167972
0.00226781
0.00886939
0.00409447
0.00954176
0.0245247
0.0141483
0.00442756
0.00886978
0.0202181
0.0134041
-0.018778
-0.0110082
0.0114231
0.00761308
-0.000649465
0.000912973
0.00114187
-0.00555478
-0.00666232
-0.00835418
-0.0192669
0.00615812
0.0282905
-0.000221933
-0.0223465
0.00103313
0.0203937
0.00361349
0.0065093
0.0157969
0.00500508
-0.00215006
0.00973958
0.0335078
0.0195317
-0.018824
-0.0390466
-0.0118168
0.0202681
0.0128907
0.00225583
0.0093515
0.00348953
0.00869391
0.0244295
0.014075
0.00457124
0.0100502
0.0209567
0.0132529
-0.0186455
-0.0102227
0.0119335
0.00797019
-0.000687238
0.000505041
0.00060515
-0.00599502
-0.00707021
-0.00900306
-0.0195743
0.00695299
0.0280925
-0.000697632
-0.0217883
0.000224849
0.0182844
0.00272326
0.00656914
0.0148669
0.00343416
-0.00373374
0.0106619
0.0343719
0.0203142
-0.0173999
-0.0365907
-0.012071
0.0174477
0.0093401
0.00286625
0.0106509
0.00300544
0.00564345
0.022325
0.0133452
0.00432848
0.0104232
0.0218306
0.0126163
-0.0195125
-0.00975965
0.0127757
0.00863217
-0.00075613
0.000138619
-0.000903163
-0.00862238
-0.00871749
-0.0100041
-0.0200939
0.00710987
0.0276635
-0.00125932
-0.0220533
0.000315752
0.0170715
0.00167039
0.0067623
0.0146686
0.000918135
-0.00569537
0.0115633
0.0357364
0.0210878
-0.0161872
-0.0349698
-0.0112331
0.0161785
0.00869003
0.00447031
0.0128322
0.00259217
0.00283538
0.0198404
0.0117825
0.00383991
0.0103431
0.0221942
0.0122206
-0.0202113
-0.00950627
0.0139736
0.00873068
-0.00130572
-0.000468555
-0.00337736
-0.0118901
-0.01158
-0.0117967
-0.0206837
0.00697076
0.027027
-0.00187741
-0.0227497
-0.000637045
0.0179053
0.00175547
0.00706303
0.0156073
-0.000995761
-0.00725152
0.012445
0.035956
0.0203187
-0.0156536
-0.0329397
-0.0110709
0.0156997
0.00967733
0.0056355
0.015084
0.00304076
0.00312648
0.0197937
0.0120522
0.00416483
0.0100067
0.0232164
0.0144081
-0.0201056
-0.00931839
0.0161978
0.0089106
-0.0021706
-0.00154418
-0.00552203
-0.0124244
-0.0123184
-0.0130494
-0.0217525
0.0063046
0.0259936
-0.00266432
-0.0224363
-0.00379711
0.0174992
0.00243474
0.00741572
0.0168879
-0.00140506
-0.00896474
0.013948
0.0359135
0.018343
-0.0153396
-0.0302911
-0.0116383
0.0146954
0.0102202
0.00777929
0.0183315
0.00402831
0.00308762
0.0197465
0.0123167
0.00423982
0.00932563
0.0220333
0.0155601
-0.0192527
-0.0108228
0.017981
0.00987205
-0.00279592
-0.00289692
-0.0068143
-0.0126068
-0.0118433
-0.0135439
-0.0231977
0.00402984
0.023655
-0.0045071
-0.0210755
-0.00500827
0.0150119
0.00304108
0.00857993
0.0183605
-0.00167807
-0.0120333
0.0147608
0.0346062
0.0177448
-0.0142357
-0.0273879
-0.0114362
0.0135677
0.0102761
0.00889436
0.0201242
0.0037007
0.000432211
0.0186234
0.0114082
0.00343211
0.0082967
0.0200681
0.0129632
-0.0200682
-0.0130477
0.0186297
0.0105444
-0.00278746
-0.00433633
-0.00784143
-0.0141696
-0.0117676
-0.0146364
-0.0246617
0.00127909
0.021227
-0.00647671
-0.0196455
-0.0041737
0.0114844
0.00173576
0.00972125
0.020839
-0.00249373
-0.0146284
0.0143491
0.0320756
0.0168034
-0.0142798
-0.025507
-0.00954976
0.0131816
0.0088507
0.00769339
0.0215807
0.00362219
-0.00383246
0.0154888
0.0109169
0.00256743
0.00677038
0.018893
0.0107181
-0.0209059
-0.012882
0.0188063
0.00932853
-0.00446075
-0.00639132
-0.00719176
-0.0125153
-0.0100908
-0.0148174
-0.0249805
0.000123174
0.0192034
-0.00822208
-0.0185231
-0.0034412
0.00723654
-0.000292982
0.00912321
0.0227223
-0.00186955
-0.0143167
0.0140002
0.0296294
0.0154343
-0.0143884
-0.0237696
-0.00597452
0.0137945
0.0042034
0.00250524
0.021395
0.00509942
-0.00564491
0.0117109
0.0102765
0.00177569
0.00587889
0.0175484
0.00986573
-0.0217366
-0.0126034
0.0194698
0.0100193
-0.0059823
-0.00898878
-0.0056882
-0.0087101
-0.0083606
-0.013798
-0.0232807
0.0021154
0.0178081
-0.0100436
-0.0178242
-0.00288032
0.00297589
-0.00117649
0.00820703
0.0225192
-0.000272826
-0.0136345
0.0130699
0.0276154
0.0134357
-0.0141415
-0.0227298
-0.00233151
0.0150426
0.00108249
-0.00255443
0.0194672
0.00876745
-0.00204199
0.0111757
0.011134
0.00120531
0.00515171
0.0181213
0.011541
-0.0194547
-0.0110891
0.0189549
0.0122794
-0.00335564
-0.0104079
-0.00638336
-0.00535827
-0.00544406
-0.0125921
-0.0229223
0.00400748
0.0181941
-0.0101064
-0.0152193
-0.000809591
0.000241075
-0.00223018
0.00967804
0.0218659
-0.000245462
-0.0148922
0.00970337
0.0252633
0.011775
-0.0145095
-0.0225101
0.000693841
0.0165603
0.00222446
-0.00110675
0.0193315
0.0112298
-0.000327482
0.0114319
0.0118202
0.00135855
0.00398949
0.0188611
0.0143271
-0.0163482
-0.00800865
0.018036
0.01103
-0.00212758
-0.0107412
-0.00823598
-0.00356814
-0.00121285
-0.0102463
-0.0233865
0.00440502
0.0189663
-0.00953994
-0.0119381
0.00318608
0.00106228
-0.00370046
0.0116844
0.0229321
-0.000522395
-0.0169716
0.00538758
0.0222596
0.0101496
-0.0147075
-0.021743
0.00435168
0.0195292
0.0030857
0.00193866
0.0199422
0.0130491
0.000457719
0.00987155
0.0111105
0.00133811
0.0015246
0.016548
0.0154164
-0.013884
-0.00586693
0.0185519
0.0111688
-0.00148239
-0.0107966
-0.00884565
-0.00143782
0.00345379
-0.00639116
-0.0222973
0.00468198
0.020117
-0.0092234
-0.0103423
0.00689284
0.00452616
-0.00460869
0.0100679
0.022983
-0.00168888
-0.0151246
0.00587474
0.0209921
0.00831718
-0.0133765
-0.0183865
0.00662639
0.0225962
0.00514142
0.00369368
0.0204766
0.0153316
0.00249977
0.00791511
0.00954231
0.00103096
-0.000287705
0.0158561
0.017003
-0.0115653
-0.00515503
0.0187371
0.0133063
0.00319659
-0.00635257
-0.00731081
0.00101399
0.00845116
-0.00233208
-0.0213268
0.00487114
0.0222481
-0.00752467
-0.00971591
0.00820561
0.00626025
-0.00274242
0.00966776
0.0226093
-0.00216951
-0.0103451
0.00753767
0.0200395
0.00602005
-0.0131586
-0.014571
0.00688824
0.0219126
0.0041772
0.00290356
0.019197
0.0152091
0.00302779
0.00478529
0.00744342
0.00186683
0.000968872
0.0184256
0.0189832
-0.00904312
-0.00572283
0.01762
0.0134199
0.00659546
-0.00038909
-0.00463077
0.00336243
0.0120207
0.000702022
-0.0203265
0.0043589
0.0241083
-0.00477084
-0.00820992
0.0097171
0.00662969
-0.0031916
0.00931009
0.0232086
0.000571409
-0.00837877
0.00575442
0.0186352
0.00428206
-0.0148691
-0.0139525
0.0058578
0.0218538
0.00489828
0.00310421
0.0167415
0.0128446
0.00371016
0.00307613
0.00436861
-0.000182012
-0.00243611
0.0144387
0.0177526
-0.00719878
-0.00727975
0.014694
0.0117307
0.00597994
0.0015824
-0.00515875
0.00231821
0.014018
0.00340627
-0.0193754
0.00183328
0.0227987
-0.00378025
-0.00751393
0.0107681
0.00774434
-0.00260643
0.00794
0.021528
0.00305075
-0.00677904
0.00319484
0.0160372
0.00454598
-0.01352
-0.0119667
0.00523355
0.0191642
0.00417804
0.00538932
0.0188082
0.0113584
0.00300727
0.00124922
0.00259374
0.000412453
-0.0052684
0.00516098
0.0144689
-0.00333728
-0.00849741
0.0101722
0.008477
0.00375184
0.00305516
-0.00518939
-0.0011141
0.015147
0.00752602
-0.0175922
0.000180897
0.0223731
-0.00258559
-0.00730649
0.010776
0.00725363
-0.00183056
0.0077954
0.0189649
0.00385364
-0.0015371
0.00540868
0.0159647
0.00577924
-0.0108054
-0.00958263
0.00299426
0.015409
0.00373578
0.00569736
0.0194111
0.0111325
0.00461646
0.00170387
0.000191513
0.00306541
0.00288012
0.00977846
0.0162185
-4.45672e-05
-0.00927908
0.00707927
0.00758799
0.00414838
0.00703283
-0.00267614
-0.00536752
0.0132707
0.0111571
-0.015791
-0.00221992
0.0220517
-0.00101243
-0.00691168
0.0118224
0.00824056
-0.00152743
0.00702209
0.017352
0.00622828
0.00027454
0.00293321
0.0112769
0.0039241
-0.0105317
-0.00588225
0.00353897
0.0107024
0.00123735
0.00331438
0.0165827
0.00616443
-0.00186448
-0.00356811
-0.00212297
0.0048404
0.00206295
0.00450518
0.0141492
0.00614774
-0.0039014
0.00848252
0.0122649
0.00702494
0.0122459
0.00489554
-0.00482302
0.00971906
0.012355
-0.0126363
-0.00317831
0.0222939
0.000969021
-0.00836848
0.0110026
0.00900925
-0.00112197
0.0059014
0.0149676
0.00609353
0.00280585
0.00304151
0.0101352
0.00475931
-0.0118905
-0.00545926
0.00472671
0.00895914
0.00100999
0.00101424
0.0146709
0.00516307
-0.00263838
-0.00494132
-0.00598919
0.00227854
0.00432631
0.00858685
0.0180392
0.00966362
-0.00825148
-0.000958814
0.00905336
0.00411516
0.0104606
0.00883279
-0.00392835
0.00649721
0.0141653
-0.00988233
-0.00646195
0.0201633
0.00281059
-0.0102402
0.00831843
0.00927787
0.00187888
0.00830243
0.0135334
0.00569034
0.00280899
0.000990417
0.00545977
0.00395051
-0.0119524
-0.00551535
0.00531517
0.00791384
0.00288608
0.00231275
0.0168242
0.00981677
0.00285152
0.00159672
-0.00341533
0.00051261
-0.00103485
-0.00320272
0.00621931
0.00916316
-0.00459093
-0.00316162
0.00724921
0.000283995
0.0028203
0.00690049
-0.00455554
0.00229134
0.0161829
-0.00265002
-0.00601114
0.0188725
0.00713989
-0.00688107
0.00792894
0.00896851
0.00247119
0.0101063
0.0142074
0.00574355
0.00607102
0.00413315
0.00696634
0.00560612
-0.0122368
-0.00439507
0.00894591
0.00801267
0.0035702
0.000255896
0.0119932
0.00742849
0.000480405
0.00223505
-0.00293086
4.58645e-05
0.000671839
-0.00273341
0.00126212
0.00455031
-0.00810303
-0.0103384
0.00338099
-0.000444819
-0.00192016
0.00634599
-0.00256102
-0.00318642
0.0133131
0.00167705
-0.00768187
0.0141251
0.00827832
-0.00459799
0.00788278
0.00785285
0.00115246
0.00761785
0.0116203
0.00669101
0.00258994
5.49735e-06
0.00325366
0.00389695
-0.0153333
-0.0118062
0.00482807
0.00668445
0.00523962
0.00147482
0.0112696
0.00953135
-0.000284563
0.00291454
0.00156271
0.0018716
0.00392118
0.00289794
0.00288293
0.00800692
0.00386549
-0.00392045
0.00386433
0.00658297
0.00399237
0.0111895
0.0032549
-0.00429087
0.0125895
0.00857899
-0.00431922
0.0112379
0.00834732
-0.00610949
0.00403696
0.00535697
-0.00028113
0.00452895
0.0076564
0.00396442
0.00416509
-0.000677348
0.00279683
0.00724092
-0.0101281
-0.00960664
0.00465201
0.00291064
0.002443
0.00100815
0.00829107
0.00881366
-0.000731759
0.00199438
0.00166202
3.38378e-06
0.00251186
0.00369459
0.00242861
0.00531098
0.00704052
0.000495805
0.00222952
0.00429286
-9.79525e-06
0.00958526
0.00905709
-0.00266556
0.00817222
0.00953101
-0.00303674
0.00809981
0.0114108
0.00160197
0.0111554
0.0113177
0.00313087
0.0055647
0.00634001
0.00460668
0.00537119
-0.00308391
-0.000679135
0.00659237
-0.00670627
-0.0109247
0.000418473
-0.000891837
-0.00129774
-0.000254948
0.00581871
0.00816855
-7.16775e-05
0.00561444
0.0118187
0.00889662
0.00663477
0.00575299
0.0021538
-0.000616382
0.0015719
-0.000943486
-0.000635721
0.00628643
0.00402687
0.00572977
0.00751832
-0.00245884
0.00177046
0.00652554
-0.00492929
-0.00244466
0.00186571
-0.00521156
0.00337246
0.00878088
0.00781098
0.0104458
0.00730871
0.00649861
0.0100628
0.00123269
0.00117039
0.00705917
0.000164943
-0.00522045
0.00286313
0.00371372
0.000587164
0.000182441
0.00504886
0.0074041
-0.00128093
0.000505883
0.00683133
0.00602069
0.00565041
0.0077052
0.00745348
0.000962769
0.000176771
0.00174912
-0.00197344
-0.000630688
-0.000167559
0.00183568
0.00757985
0.00248425
0.000590395
0.00731656
0.00342546
0.00326657
0.00807416
0.00234809
0.00343579
0.00287437
0.000234159
0.00192492
0.00120563
0.00767
0.00772734
4.27488e-05
-0.000328953
0.0036959
0.00359055
-0.000242852
0.0049112
0.00991922
0.00497789
0.00184764
0.00666251
0.00824823
-0.000244236
0.00147812
0.00799268
0.0076888
0.00307987
0.00277019
0.00880627
0.00313341
-0.000393349
0.00511912
0.00317402
0.00204163
0.00385853
0.00440046
0.00849343
0.005438
-0.00173384
0.00394537
0.00376102
-0.000374845
0.00398118
0.00337337
0.0054001
0.00821004
0.00951118
0.00848123
0.00438612
0.00863418
0.00641999
0.00335539
0.00582377
0.00536391
0.00416115
-0.00118042
-0.00221872
0.00440992
0.00289735
-0.00087929
0.00307055
0.00387016
-0.00245298
-0.00180577
0.000422959
0.00262058
0.00110317
0.001046
0.0106082
0.00566619
-0.00213622
0.0028424
0.00337635
0.00308147
0.00571936
0.00342818
0.00622344
0.00573619
-0.00326768
0.00359197
0.00373838
-0.00707131
-0.00369599
0.000643131
0.00261566
0.00229929
0.00314647
0.00155683
-0.000485018
0.00715909
0.00517968
0.00305777
0.00461531
0.00573949
0.00724797
0.00258197
-0.00202929
0.000195259
0.00308513
0.0035519
0.00396731
0.00354799
0.00328533
0.00245058
0.00110732
0.00596384
0.0033777
-0.000706054
0.00878665
0.00831798
0.00300426
0.00650616
0.00453764
0.00062481
0.00317289
0.00347649
0.00699079
0.00785177
9.90281e-05
0.00527109
0.00701802
-0.000116955
0.00325322
0.00436264
0.00469761
0.00717094
0.00875564
0.00612048
0.00334999
0.00745047
-0.00629527
-0.0110679
0.0317149
0.0349022
-0.0215104
-0.0273824
0.0288791
0.0429899
0.0157421
0.0122246
0.0342229
0.0172304
-0.00949811
-0.00505931
0.0120416
0.0146288
0.0155164
0.023404
0.0132375
-0.0149388
-0.0155117
0.000693482
-0.0109863
-0.0252969
-0.0111788
0.0096617
0.0229281
0.0202304
0.00751545
-0.00727085
0.0029487
0.0185647
0.00526216
0.00198395
0.022279
0.0213137
-0.0110307
-0.00774987
0.0290737
0.0297662
-0.00649791
-0.0112447
0.0318584
0.0350333
-0.021676
-0.0276709
0.029013
0.043123
0.0157055
0.0122723
0.0343329
0.0172422
-0.00967689
-0.0050854
0.0120657
0.0146745
0.0156104
0.0235351
0.0133525
-0.0148722
-0.0154852
0.000781962
-0.0110591
-0.0255968
-0.0112884
0.00969613
0.0232502
0.0203685
0.00752959
-0.0072313
0.00307103
0.0185697
0.00519073
0.00204529
0.0224248
0.0212395
-0.0111331
-0.00778521
0.029154
0.0297973
-0.00695173
-0.0116593
0.0317915
0.0351017
-0.0217759
-0.0275916
0.029436
0.0433616
0.0156204
0.0120187
0.0343253
0.0174507
-0.00992937
-0.0051925
0.0121721
0.0147631
0.0156393
0.0236903
0.0134937
-0.0148832
-0.0157111
0.000451427
-0.0113872
-0.0260498
-0.0114759
0.00982256
0.023863
0.0205528
0.00755497
-0.00703213
0.00313866
0.0185038
0.00515045
0.00220703
0.0227546
0.0210632
-0.0113632
-0.00769748
0.0296044
0.0296525
-0.00745508
-0.0121279
0.0312291
0.0348595
-0.0214161
-0.0273834
0.0294421
0.0435902
0.015907
0.011876
0.0337669
0.0173672
-0.0103058
-0.00533044
0.0123768
0.0149844
0.0158783
0.0238856
0.013486
-0.0152926
-0.0162837
-3.43124e-05
-0.0119945
-0.02649
-0.0114717
0.0102012
0.0249188
0.0207741
0.00735545
-0.0068616
0.00355143
0.0184505
0.00506162
0.00222895
0.0231334
0.0209389
-0.0116651
-0.00771539
0.0304821
0.0297942
-0.00737593
-0.0122018
0.0303607
0.033752
-0.0220672
-0.0291524
0.0257966
0.0418128
0.0160768
0.0123216
0.0332195
0.0174949
-0.0105108
-0.00544203
0.0125428
0.0151329
0.0162328
0.0244456
0.0138741
-0.0160698
-0.017529
-9.60956e-05
-0.0118833
-0.026657
-0.0113729
0.010669
0.026164
0.0210694
0.00704942
-0.00709927
0.00373201
0.0185695
0.00490801
0.001763
0.0229992
0.0204756
-0.0120396
-0.00779458
0.0314134
0.0305026
-0.00720198
-0.0122071
0.029075
0.03188
-0.0245603
-0.033121
0.0193432
0.0387833
0.0152343
0.0130615
0.0331278
0.0175878
-0.0101315
-0.00499536
0.0127852
0.0149539
0.0162646
0.025248
0.0147497
-0.0162194
-0.0189608
-0.000127936
-0.0103446
-0.0258715
-0.0110882
0.0107732
0.0270379
0.0213067
0.00648657
-0.00750563
0.00381399
0.0186114
0.00486602
0.00143244
0.0222513
0.0192814
-0.0129395
-0.00791317
0.0319573
0.0310771
-0.00702164
-0.0124109
0.0268659
0.0295502
-0.0252014
-0.0311735
0.0167182
0.0362826
0.0144291
0.0139164
0.033196
0.0172992
-0.0100254
-0.0045441
0.0131903
0.0148087
0.0162506
0.0260113
0.0158789
-0.0165634
-0.0203995
-4.4244e-05
-0.00828227
-0.0245478
-0.0103641
0.0107375
0.02696
0.0207095
0.00517164
-0.00832356
0.00398756
0.0187969
0.00490061
0.00123559
0.0219235
0.0182407
-0.0138158
-0.00779188
0.0317339
0.0306789
-0.00649943
-0.0120217
0.0242219
0.0277073
-0.023067
-0.0246484
0.0170717
0.0324966
0.0127849
0.0146616
0.0327702
0.0158063
-0.0105805
-0.00425261
0.0138458
0.0144941
0.0159979
0.0270141
0.0164949
-0.0187278
-0.0224473
0.000213454
-0.00619805
-0.0233031
-0.00994069
0.0104921
0.0260297
0.0194513
0.0031945
-0.00965078
0.00411466
0.0189599
0.00475657
0.000221052
0.0210388
0.0177765
-0.0141358
-0.00722056
0.0309014
0.0293357
-0.00530491
-0.0106654
0.0213925
0.0258178
-0.022652
-0.0214117
0.0151971
0.0286697
0.0108702
0.0150857
0.032466
0.0147379
-0.0101203
-0.00319685
0.0149096
0.0144202
0.015518
0.0274611
0.0181675
-0.0213786
-0.02704
-0.000598047
-0.00420574
-0.0214503
-0.00967196
0.00996113
0.0250326
0.0182628
0.00092765
-0.0112937
0.00451024
0.019352
0.00399852
-0.00184508
0.0187178
0.0170864
-0.0142252
-0.00632374
0.0293647
0.0273794
-0.00382416
-0.0083284
0.0196305
0.0224924
-0.0227735
-0.0189904
0.0110953
0.0237653
0.00950207
0.0158819
0.0331917
0.0136763
-0.0105949
-0.00250294
0.0149514
0.0134242
0.0152843
0.0272895
0.0200336
-0.019739
-0.0300265
-0.00177918
-0.00240225
-0.0190985
-0.00916421
0.00961852
0.0232565
0.0164805
-0.00167046
-0.0122813
0.0060856
0.0200356
0.0026039
-0.00394897
0.016871
0.0165127
-0.0138445
-0.0047084
0.0279303
0.0248614
-0.00214707
-0.00557386
0.0202322
0.0194508
-0.0222881
-0.0167319
0.00699917
0.0175094
0.0081354
0.0161449
0.0336589
0.010978
-0.0132994
-0.00347685
0.0135231
0.0119452
0.0147175
0.027667
0.0216554
-0.0171038
-0.0289737
-0.000450728
-0.00112413
-0.0166506
-0.00900552
0.00876093
0.0205648
0.0154309
-0.00340678
-0.012853
0.00801332
0.0204601
0.000808796
-0.0052814
0.0162911
0.0165624
-0.0128877
-0.0025504
0.0274925
0.0221267
-0.000620398
-0.00274215
0.0219364
0.017798
-0.0212769
-0.0144705
0.00582594
0.0130763
0.00712291
0.0161217
0.0334267
0.00721425
-0.0168841
-0.00494525
0.011477
0.0101888
0.0138213
0.0288128
0.0236601
-0.0139202
-0.0265093
0.00220766
-0.00041638
-0.0162565
-0.00977761
0.00716415
0.0189267
0.0171019
-0.00364698
-0.0150086
0.00725337
0.0196541
-0.00160208
-0.00597008
0.0168096
0.0171486
-0.0113843
-0.000526458
0.0272049
0.018742
-7.16232e-05
-0.000529878
0.0212596
0.0155657
-0.0194202
-0.0121681
0.00520542
0.00994386
0.00599312
0.0162091
0.0346426
0.00445655
-0.0211232
-0.00715121
0.00927982
0.00855379
0.0127476
0.0292071
0.0258313
-0.011075
-0.0257865
0.00373432
0.00107239
-0.0171647
-0.0114035
0.00567456
0.0193409
0.0200621
-0.00197503
-0.0162229
0.00669364
0.0182182
-0.00438263
-0.00709583
0.0170133
0.0174749
-0.00907698
0.00162258
0.0261793
0.0153665
-0.000436246
0.000783458
0.0191349
0.0127347
-0.0173769
-0.00984542
0.00316418
0.00624855
0.00473895
0.0156679
0.0379925
0.00724497
-0.0228788
-0.00948878
0.00820985
0.00784721
0.0120452
0.0301699
0.0259484
-0.0124625
-0.0252241
0.00599251
0.00501522
-0.0151059
-0.0129797
0.0026394
0.0181513
0.0213575
-0.00109461
-0.0174906
0.00632528
0.0164685
-0.00590293
-0.00696048
0.016491
0.017063
-0.00609674
0.00423183
0.0247459
0.013257
-0.00149616
0.00208395
0.0184555
0.011289
-0.0155567
-0.00869506
0.00153988
0.00238554
0.00180164
0.0128531
0.0380659
0.0118585
-0.0207027
-0.010428
0.00858929
0.00776131
0.00873103
0.0280719
0.0256109
-0.0130069
-0.0221294
0.00939434
0.00879268
-0.0114553
-0.0133553
-0.000916086
0.0127639
0.0185562
-0.000957436
-0.0184985
0.00483062
0.0150753
-0.00593804
-0.00638831
0.0152656
0.0160394
-0.00344379
0.00587134
0.0228847
0.0111166
-0.00334591
0.00285747
0.0182553
0.00994604
-0.0146115
-0.00975813
0.000156944
0.000290858
-0.00126847
0.00898431
0.0332271
0.0132609
-0.0171883
-0.00979386
0.00883527
0.00781658
0.00474453
0.022588
0.0227455
-0.0123149
-0.0178109
0.0119928
0.0119259
-0.00768286
-0.0131918
-0.00468767
0.00766811
0.015126
0.000335462
-0.0162135
0.00569257
0.0160077
-0.00538281
-0.00689845
0.0122662
0.0136931
-0.00110512
0.00623473
0.0209372
0.00834896
-0.00376452
0.00260463
0.0172214
0.00843471
-0.0144077
-0.0116511
-0.00170028
-0.000676392
-0.00212456
0.00678206
0.0268402
0.0113899
-0.0138892
-0.00827752
0.00825328
0.00839709
0.00478164
0.0203047
0.0206765
-0.0109862
-0.0135273
0.0130136
0.0121216
-0.00437672
-0.0105662
-0.00719207
0.00359216
0.0137041
0.00247048
-0.0144829
0.00516276
0.016545
-0.00437165
-0.00744084
0.00971651
0.0118201
0.00111967
0.00691183
0.0202907
0.00798127
-0.00263553
0.00230059
0.0157307
0.00712557
-0.0134507
-0.0117267
-0.00150966
-0.000295385
-0.00255917
0.00656521
0.0223335
0.00725045
-0.0134246
-0.00804038
0.00737256
0.00910896
0.0078089
0.0213865
0.021138
-0.00742569
-0.0105817
0.011933
0.0096995
-0.00271665
-0.00714719
-0.00771881
-0.000441238
0.0111901
0.00193256
-0.0156765
0.00248029
0.0151661
-0.00384823
-0.00579219
0.0107378
0.0118655
0.0025256
0.00668016
0.0188602
0.00848922
-0.0012314
0.00202072
0.0142621
0.00599076
-0.0121562
-0.00949653
0.000714416
0.00327736
-0.00170302
0.00615744
0.0183393
0.00340132
-0.010924
-0.00528333
0.00736112
0.00987022
0.00720027
0.018735
0.0200146
-0.00552888
-0.00963686
0.0110614
0.00831185
-0.00295672
-0.00642317
-0.00952905
-0.00481613
0.0079355
0.000920584
-0.0172172
-0.000816289
0.0134428
-0.00442542
-0.00514959
0.0119888
0.0117274
0.00339912
0.00713499
0.0165724
0.00797755
0.000371677
0.00154147
0.0129666
0.0047933
-0.0134293
-0.00936207
0.00110483
0.00585889
0.000163908
0.00629424
0.0155558
0.00127798
-0.00683314
-0.00229277
0.00621512
0.0108851
0.00663594
0.0146148
0.0185684
-0.00350444
-0.0122542
0.00729638
0.00778393
-0.00151483
-0.00337914
-0.00886696
-0.00599848
0.00881244
0.00406066
-0.0159596
-0.00151585
0.0142979
-0.00493677
-0.00708622
0.0107149
0.0106502
0.00334525
0.00656054
0.013814
0.00749724
0.00245359
0.00218484
0.0133059
0.00634351
-0.0121697
-0.00883052
0.000858406
0.00790281
0.00322397
0.00685263
0.0131707
-0.0017132
-0.00505627
0.00146941
0.0075716
0.0136603
0.00944086
0.0141376
0.0203062
0.00261573
-0.0101457
0.00387721
0.00406606
-0.00186719
0.00155643
-0.00429023
-0.00613047
0.00949662
0.00762652
-0.0153276
-0.00343748
0.0164091
-0.00120648
-0.0044049
0.0130293
0.0120842
0.00492969
0.0077752
0.0126829
0.00757774
0.00456035
0.00199795
0.0106288
0.00358235
-0.0138648
-0.00789563
0.00169226
0.00752403
0.00342968
0.00632178
0.0126081
-0.00382791
-0.00684107
0.00153226
0.00797022
0.0161126
0.0110359
0.00903823
0.0150788
0.00399131
-0.00593842
0.00631211
0.00749113
-0.000260736
0.00584122
0.00190013
-0.00635127
0.00751669
0.00970446
-0.0142229
-0.00697534
0.0149917
-0.000567842
-0.00441536
0.0144416
0.0126054
0.00325313
0.00553172
0.00941697
0.00681748
0.00407956
0.00255406
0.010749
0.00653541
-0.0104524
-0.00273537
0.00646094
0.00893826
0.0044401
0.00354938
0.011873
-0.0004424
-0.00379324
0.00172112
0.00384987
0.0116321
0.00828549
0.00741278
0.0176345
0.0122297
-0.000554095
0.0067857
0.00966221
-0.000788351
0.00723054
0.00894329
-0.00318118
0.00586852
0.0107239
-0.0130036
-0.0110817
0.0120376
-0.00139643
-0.00881816
0.010474
0.0111229
0.00350975
0.00669316
0.00808418
0.00445153
0.00667669
0.00229497
0.00695185
0.00517247
-0.013037
-0.00520918
0.00412564
0.00495722
0.00352933
0.000993854
0.010518
0.00197955
-0.00208792
0.00333795
0.00254219
0.0085019
0.00682501
0.00215735
0.00730754
0.00924164
-0.00105499
0.00208676
0.00855116
-0.00132096
0.00396034
0.00968262
-0.00230615
0.00481317
0.014444
-0.00716076
-0.0106798
0.0109574
0.00231963
-0.00644088
0.0106937
0.0127045
0.00629251
0.0101714
0.0110521
0.00706321
0.00421512
-0.000732783
0.00511949
0.00785169
-0.0120838
-0.00427794
0.0111104
0.0092962
0.0052808
0.00158612
0.0106653
0.00535052
-0.000551548
0.0057203
0.00302757
0.00488138
0.00528548
0.000720961
0.00105554
0.00503873
-0.0031402
-0.00509246
0.00545303
-0.00135501
-0.00201871
0.00624579
-0.00369454
-0.00193686
0.0110706
-0.00405881
-0.0120334
0.00613353
-0.000127739
-0.00949921
0.0060246
0.00911069
0.00305595
0.00764528
0.00925012
0.00471939
0.00559223
0.00238628
0.00774772
0.0117087
-0.00885848
-0.00850708
0.00273033
-0.000249604
0.000574916
4.81217e-05
0.00907386
0.00659012
-0.00296925
0.00281089
0.00258725
0.00188133
0.00476005
0.00387334
0.00220254
0.00802506
0.00652382
-0.00159753
0.00354786
0.00287072
0.00291192
0.0132473
0.00369936
-0.00278455
0.0116641
0.00288216
-0.00840637
0.00707451
0.00424047
-0.00621848
0.00613278
0.00786411
0.00104225
0.00508769
0.00685851
0.00417022
0.00471543
-0.00346355
-0.000788392
0.00806432
-0.00778482
-0.00813209
0.00533276
0.000988784
-3.07572e-05
-0.00101686
0.00593389
0.00581603
-0.00431086
-0.00118085
-0.000143247
-0.00173329
0.00206317
0.00535355
0.00345745
0.00587059
0.00964732
0.00339978
0.00385265
0.00339192
0.000416844
0.013031
0.0116051
-0.000168923
0.00899812
0.00592039
-0.00573719
0.0059939
0.00833639
0.000680877
0.0110673
0.0104704
0.000640111
0.00254101
0.00474388
0.00489358
0.0091935
-0.00101234
-0.000731172
0.00723357
-0.00574717
-0.00893937
0.00537815
0.00270988
-0.000226729
0.000202893
0.00546194
0.00814174
-0.00141241
0.00169317
0.00822482
0.00524739
0.00390452
0.00571707
0.00313718
-0.000747551
0.00127367
-0.00172904
-0.00135208
0.00443381
0.00423636
0.0102135
0.0105755
0.000614046
0.00525245
0.00674551
-0.00469226
-0.000616856
0.00217193
-0.00390277
0.00533659
0.00840392
0.00373572
0.00556493
0.00537879
0.00856927
0.0121845
0.0026335
0.000823025
0.00738435
0.000974225
-0.00340767
0.00904265
0.0105717
0.00357712
0.00180316
0.00639794
0.00941452
4.68702e-05
0.000574269
0.00636266
0.00422927
0.00272864
0.00555115
0.00598191
-0.000379447
4.87435e-05
0.00271914
0.000482937
0.00131514
0.000485581
0.00324927
0.00717519
0.00215357
0.00300908
0.00886908
0.00425761
0.0058259
0.0083978
0.000317692
0.00263224
0.00246893
-0.000647668
0.000425441
-0.000416558
0.00799166
0.00993059
0.00238382
0.000745644
0.00526718
0.00505163
0.000430271
0.0070325
0.0125984
0.00555156
0.00172044
0.00711544
0.00866092
-0.000655888
5.41639e-05
0.00711135
0.00783255
0.00302172
0.0034075
0.0102891
0.00421105
9.72262e-05
0.00519615
0.0032775
0.00193227
0.00369586
0.00607301
0.00964784
0.0042616
-0.00254004
0.0015487
-0.00119182
-0.00269488
0.00401022
0.0032601
0.00686382
0.00797502
0.00771297
0.00708551
0.00225929
0.00775119
0.00812814
0.00440123
0.00472217
0.00569478
0.00628405
0.00212276
0.00248191
0.00916452
0.00597736
0.000705344
0.0053185
0.0055278
-0.00230419
-0.00313593
-0.00123579
0.00234699
0.000144093
-0.000601249
0.0104986
0.00669867
-0.000996248
0.00452478
0.00533541
0.00439873
0.00584229
0.00516944
0.00992267
0.00790356
-0.0010155
0.0052049
0.00286674
-0.00605652
-0.00222409
-0.00206397
-0.000850207
-0.000862455
0.000769326
0.00214455
-0.000637549
0.00641083
0.0043087
0.00296713
0.00218083
0.00390239
0.00583344
0.00224442
-0.000978596
0.00129991
0.00365439
0.00233127
0.0032691
0.00326123
0.00253589
0.00260374
0.00144105
0.00634147
0.00255131
-0.0016356
0.0100061
0.00992705
0.00389018
0.00699675
0.00449935
0.00084464
0.00279099
0.00335217
0.00894898
0.00895157
0.00120988
0.00723386
0.00730749
9.84688e-06
0.00341411
0.00302325
0.00389301
0.00648625
0.00687719
0.00518631
0.00174996
0.00388885
0.00537898
0.0105368
0.035846
0.0233959
-0.0145695
-0.0430374
-0.0265143
0.0193942
0.00895667
0.00220867
0.0172183
0.0070756
-0.00503859
-0.010752
-0.0012608
0.019666
0.0176902
0.0165892
0.0161262
-0.00707388
-0.00602806
0.0121329
0.0122014
0.0153397
0.0155062
-0.0121379
-0.0100897
0.0150426
0.00702125
-0.0143423
-0.00478836
0.0165551
0.000809593
-0.0197496
-0.000146012
0.0318032
0.0108098
-0.00579252
0.0039053
0.0165549
0.00529051
0.0107732
0.0360482
0.0234604
-0.0145707
-0.0429492
-0.0264895
0.0194362
0.0089456
0.00221981
0.0171862
0.0069553
-0.00502535
-0.0107981
-0.00131184
0.019726
0.0177102
0.0166111
0.0161456
-0.00703123
-0.00604127
0.0121503
0.01225
0.0155191
0.0156102
-0.0122899
-0.0104139
0.0150669
0.00709591
-0.0143176
-0.00479013
0.0164116
0.000629037
-0.0198877
-0.00017395
0.0319638
0.0108841
-0.00586379
0.00361509
0.0161481
0.00499557
0.0106847
0.036154
0.0236002
-0.0146251
-0.043493
-0.0271686
0.0193072
0.00867989
0.00189163
0.0171142
0.00674574
-0.00507458
-0.0109569
-0.001378
0.0196524
0.0174954
0.0165719
0.0161506
-0.00688108
-0.0058951
0.0120203
0.0123029
0.0157954
0.0156529
-0.0128888
-0.0109928
0.0152195
0.00721055
-0.0144162
-0.0048447
0.0164356
0.000390034
-0.0206385
-0.000554011
0.0323644
0.0111817
-0.0057931
0.00337216
0.0159993
0.0051776
0.0104387
0.0357872
0.0235368
-0.0144489
-0.0429251
-0.0273742
0.0190644
0.00837982
0.00131575
0.0170816
0.00610203
-0.00548035
-0.0113024
-0.00147633