/*--------------------------------*- C++ -*----------------------------------*\
  =========                 |
  \\      /  F ield         | OpenFOAM: The Open Source CFD Toolbox
   \\    /   O peration     | Website:  https://openfoam.org
    \\  /    A nd           | Version:  10
     \\/     M anipulation  |
\*---------------------------------------------------------------------------*/
FoamFile
{
    format      ascii;
    class       volTensorField;
    location    "37.5";
    object      TauNN;
}
// * * * * * * * * * * * * * * * * * * * * * * * * * * * * * * * * * * * * * //

dimensions      [0 2 -2 0 0 0 0];

internalField   nonuniform List<tensor> 
25600
(
(4.59514e-05 -0.0127895 -0.0154187 -0.0127895 2.45075e-05 -0.00813093 -0.0154187 -0.00813093 6.55653e-05)
(2.89613e-05 -0.0127875 -0.0154283 -0.0127875 2.30622e-05 -0.00813025 -0.0154283 -0.00813025 4.77332e-05)
(-7.92953e-06 -0.0127941 -0.0154352 -0.0127941 3.02948e-05 -0.00812324 -0.0154352 -0.00812324 5.17601e-05)
(7.92208e-05 -0.0127899 -0.0154173 -0.0127899 3.53897e-05 -0.00812041 -0.0154173 -0.00812041 7.93197e-05)
(1.28436e-05 -0.0127883 -0.0154274 -0.0127883 2.85437e-05 -0.00812316 -0.0154274 -0.00812316 6.37162e-05)
(3.32153e-05 -0.0127911 -0.0154224 -0.0127911 2.83083e-05 -0.00812436 -0.0154224 -0.00812436 0.000104235)
(3.28956e-05 -0.0127925 -0.0154441 -0.0127925 2.77437e-05 -0.00813356 -0.0154441 -0.00813356 4.68116e-05)
(4.02692e-05 -0.012788 -0.0154114 -0.012788 2.84979e-05 -0.00812125 -0.0154114 -0.00812125 9.92815e-05)
(2.19285e-05 -0.0127861 -0.0154332 -0.0127861 2.008e-05 -0.00813025 -0.0154332 -0.00813025 3.81021e-05)
(2.76734e-05 -0.0127895 -0.0154288 -0.0127895 2.09767e-05 -0.008126 -0.0154288 -0.008126 5.12557e-05)
(4.46295e-05 -0.0127896 -0.0154236 -0.0127896 2.38061e-05 -0.00812836 -0.0154236 -0.00812836 5.44012e-05)
(7.89882e-06 -0.0127874 -0.0154326 -0.0127874 2.38938e-05 -0.00812833 -0.0154326 -0.00812833 4.24914e-05)
(2.01754e-05 -0.0127862 -0.0154223 -0.0127862 2.13324e-05 -0.00812509 -0.0154223 -0.00812509 5.89734e-05)
(-2.64334e-05 -0.012801 -0.0154429 -0.012801 3.4499e-05 -0.00811872 -0.0154429 -0.00811872 5.48176e-05)
(2.71173e-05 -0.0127914 -0.0154257 -0.0127914 2.63857e-05 -0.00812051 -0.0154257 -0.00812051 8.68273e-05)
(2.48089e-05 -0.0127909 -0.0154372 -0.0127909 3.01469e-05 -0.00813043 -0.0154372 -0.00813043 4.91361e-05)
(-1.41238e-05 -0.0127991 -0.0154492 -0.0127991 4.07463e-05 -0.00813849 -0.0154492 -0.00813849 5.08939e-05)
(3.1368e-05 -0.0127928 -0.0154411 -0.0127928 2.98281e-05 -0.00813296 -0.0154411 -0.00813296 4.74218e-05)
(8.69972e-05 -0.0127948 -0.0154064 -0.0127948 3.07975e-05 -0.00813173 -0.0154064 -0.00813173 0.000109764)
(4.63682e-05 -0.0127878 -0.0154127 -0.0127878 2.37875e-05 -0.00812669 -0.0154127 -0.00812669 7.04781e-05)
(-3.44424e-05 -0.0127984 -0.015436 -0.0127984 3.88171e-05 -0.00811323 -0.015436 -0.00811323 7.91935e-05)
(3.5697e-05 -0.0127926 -0.0154255 -0.0127926 2.89601e-05 -0.00812473 -0.0154255 -0.00812473 0.000105588)
(9.48339e-05 -0.0127919 -0.015428 -0.0127919 4.01186e-05 -0.00812602 -0.015428 -0.00812602 6.94144e-05)
(-1.21253e-05 -0.0127919 -0.0154344 -0.0127919 3.34109e-05 -0.008123 -0.0154344 -0.008123 6.14691e-05)
(-6.17547e-06 -0.0127884 -0.0154311 -0.0127884 2.49622e-05 -0.00812141 -0.0154311 -0.00812141 6.86497e-05)
(2.14819e-05 -0.0127883 -0.0154156 -0.0127883 2.96536e-05 -0.00811767 -0.0154156 -0.00811767 9.41782e-05)
(2.83466e-05 -0.0127871 -0.0154343 -0.0127871 2.35878e-05 -0.00813194 -0.0154343 -0.00813194 2.70139e-05)
(2.31571e-05 -0.0127872 -0.0154252 -0.0127872 2.18194e-05 -0.008127 -0.0154252 -0.008127 5.29673e-05)
(2.1175e-05 -0.0127853 -0.0154182 -0.0127853 2.30522e-05 -0.00812797 -0.0154182 -0.00812797 8.2658e-05)
(2.99482e-05 -0.0127892 -0.0154301 -0.0127892 2.44925e-05 -0.0081284 -0.0154301 -0.0081284 4.79567e-05)
(4.20629e-05 -0.0127965 -0.0154462 -0.0127965 4.16403e-05 -0.0081302 -0.0154462 -0.0081302 6.37534e-05)
(2.43163e-05 -0.0127917 -0.0154233 -0.0127917 2.81753e-05 -0.0081199 -0.0154233 -0.0081199 0.000103126)
(8.11581e-05 -0.0127952 -0.0154093 -0.0127952 3.00319e-05 -0.00813332 -0.0154093 -0.00813332 9.22284e-05)
(2.73332e-05 -0.0127889 -0.0154219 -0.0127889 2.48843e-05 -0.00812188 -0.0154219 -0.00812188 6.78043e-05)
(3.53155e-05 -0.0127888 -0.0154249 -0.0127888 2.22217e-05 -0.00813062 -0.0154249 -0.00813062 4.67935e-05)
(6.70477e-05 -0.0127983 -0.0154199 -0.0127983 3.25817e-05 -0.00813764 -0.0154199 -0.00813764 5.26846e-05)
(3.28121e-05 -0.0127898 -0.0154169 -0.0127898 2.86199e-05 -0.00811817 -0.0154169 -0.00811817 9.77658e-05)
(1.9207e-06 -0.0127927 -0.0154418 -0.0127927 3.36034e-05 -0.00813006 -0.0154418 -0.00813006 4.85375e-05)
(2.35722e-06 -0.0127875 -0.0154293 -0.0127875 2.22738e-05 -0.00812243 -0.0154293 -0.00812243 6.00128e-05)
(4.64317e-06 -0.0127891 -0.0154365 -0.0127891 2.06903e-05 -0.00812374 -0.0154365 -0.00812374 4.25076e-05)
(4.18282e-05 -0.0127941 -0.015419 -0.0127941 3.26607e-05 -0.00811865 -0.015419 -0.00811865 0.000107964)
(8.4076e-05 -0.0127922 -0.0154047 -0.0127922 2.87004e-05 -0.0081282 -0.0154047 -0.0081282 9.99747e-05)
(3.75259e-05 -0.0127901 -0.0154202 -0.0127901 3.41712e-05 -0.00811481 -0.0154202 -0.00811481 8.50074e-05)
(5.69771e-05 -0.0127913 -0.0154131 -0.0127913 2.72799e-05 -0.00812262 -0.0154131 -0.00812262 9.29877e-05)
(7.20627e-05 -0.0127992 -0.0154187 -0.0127992 4.13601e-05 -0.00814535 -0.0154187 -0.00814535 7.53558e-05)
(1.95823e-05 -0.0127895 -0.0154267 -0.0127895 2.42793e-05 -0.00812163 -0.0154267 -0.00812163 8.8373e-05)
(3.37203e-05 -0.0127892 -0.015425 -0.0127892 2.42022e-05 -0.00812544 -0.015425 -0.00812544 9.15939e-05)
(2.74091e-05 -0.0127874 -0.0154242 -0.0127874 2.27489e-05 -0.00812634 -0.0154242 -0.00812634 8.64134e-05)
(4.10734e-05 -0.012787 -0.0154259 -0.012787 2.46408e-05 -0.00813376 -0.0154259 -0.00813376 5.26849e-05)
(4.46215e-05 -0.0127915 -0.0154264 -0.0127915 2.40583e-05 -0.00813217 -0.0154264 -0.00813217 4.1318e-05)
(8.2692e-05 -0.0127957 -0.0154086 -0.0127957 3.1363e-05 -0.00813661 -0.0154086 -0.00813661 8.60275e-05)
(6.81303e-05 -0.012793 -0.0154104 -0.012793 3.07463e-05 -0.00813597 -0.0154104 -0.00813597 0.00010984)
(8.18426e-05 -0.0127977 -0.0154148 -0.0127977 2.94063e-05 -0.00813469 -0.0154148 -0.00813469 6.78347e-05)
(9.02181e-05 -0.0127973 -0.0154103 -0.0127973 3.27106e-05 -0.00813691 -0.0154103 -0.00813691 0.000101888)
(2.04232e-05 -0.0127871 -0.0154235 -0.0127871 2.2352e-05 -0.00812449 -0.0154235 -0.00812449 7.82601e-05)
(5.85936e-05 -0.0127925 -0.0154166 -0.0127925 2.66653e-05 -0.00813286 -0.0154166 -0.00813286 6.47952e-05)
(3.58212e-05 -0.0127881 -0.0154215 -0.0127881 2.3017e-05 -0.00813123 -0.0154215 -0.00813123 6.81747e-05)
(2.524e-06 -0.0127938 -0.0154399 -0.0127938 2.49744e-05 -0.0081176 -0.0154399 -0.0081176 6.59064e-05)
(3.19405e-05 -0.0127879 -0.0154214 -0.0127879 2.2796e-05 -0.00812568 -0.0154214 -0.00812568 7.69414e-05)
(6.01988e-05 -0.0127907 -0.015415 -0.0127907 2.4181e-05 -0.00812531 -0.015415 -0.00812531 7.58899e-05)
(3.37608e-05 -0.0127878 -0.0154253 -0.0127878 2.20025e-05 -0.00813087 -0.0154253 -0.00813087 4.92926e-05)
(7.02577e-05 -0.0127909 -0.0154167 -0.0127909 2.58682e-05 -0.00812766 -0.0154167 -0.00812766 6.28803e-05)
(0.000118518 -0.012796 -0.0154017 -0.012796 3.10715e-05 -0.00812677 -0.0154017 -0.00812677 0.000103817)
(4.95204e-05 -0.012788 -0.0154275 -0.012788 2.56882e-05 -0.0081346 -0.0154275 -0.0081346 5.46192e-05)
(-5.73885e-06 -0.012795 -0.0154388 -0.012795 2.69176e-05 -0.00811836 -0.0154388 -0.00811836 6.16818e-05)
(7.19596e-06 -0.0127889 -0.0154288 -0.0127889 2.50006e-05 -0.00812043 -0.0154288 -0.00812043 8.30233e-05)
(5.52672e-05 -0.012792 -0.0154194 -0.012792 2.94139e-05 -0.0081363 -0.0154194 -0.0081363 6.978e-05)
(7.96564e-05 -0.0127976 -0.0154152 -0.0127976 3.24297e-05 -0.00812431 -0.0154152 -0.00812431 0.000114722)
(2.2305e-05 -0.0127896 -0.01542 -0.0127896 2.69134e-05 -0.00811863 -0.01542 -0.00811863 9.57907e-05)
(4.52021e-05 -0.01279 -0.0154132 -0.01279 3.37805e-05 -0.0081145 -0.0154132 -0.0081145 0.000101731)
(5.65548e-05 -0.0127955 -0.0154188 -0.0127955 3.28092e-05 -0.00812476 -0.0154188 -0.00812476 0.00011974)
(1.10568e-05 -0.0127885 -0.0154335 -0.0127885 2.11523e-05 -0.00812672 -0.0154335 -0.00812672 4.34845e-05)
(6.97715e-05 -0.0127991 -0.0154208 -0.0127991 3.06402e-05 -0.00813584 -0.0154208 -0.00813584 4.64014e-05)
(6.03064e-05 -0.0127943 -0.0154208 -0.0127943 3.05523e-05 -0.0081376 -0.0154208 -0.0081376 6.72872e-05)
(3.49236e-05 -0.0127855 -0.0154321 -0.0127855 2.01103e-05 -0.00812662 -0.0154321 -0.00812662 7.03138e-05)
(6.48632e-05 -0.012791 -0.0154103 -0.012791 2.62264e-05 -0.00812771 -0.0154103 -0.00812771 9.60108e-05)
(0.000132836 -0.0128057 -0.0154027 -0.0128057 3.6457e-05 -0.00813867 -0.0154027 -0.00813867 7.94627e-05)
(5.83095e-05 -0.0127899 -0.0154244 -0.0127899 3.09325e-05 -0.00813839 -0.0154244 -0.00813839 6.53361e-05)
(2.60344e-05 -0.0127855 -0.015436 -0.0127855 2.34682e-05 -0.0081265 -0.015436 -0.0081265 9.57357e-05)
(1.79505e-05 -0.0127867 -0.0154278 -0.0127867 2.11314e-05 -0.00812512 -0.0154278 -0.00812512 6.70445e-05)
(-4.24205e-07 -0.012796 -0.0154371 -0.012796 3.54319e-05 -0.00812136 -0.0154371 -0.00812136 6.10642e-05)
(8.51908e-05 -0.0127952 -0.0154093 -0.0127952 3.14881e-05 -0.00812658 -0.0154093 -0.00812658 0.000113496)
(5.33763e-05 -0.012791 -0.0154177 -0.012791 2.60979e-05 -0.00813172 -0.0154177 -0.00813172 8.48912e-05)
(3.18987e-05 -0.0127839 -0.0154333 -0.0127839 2.19993e-05 -0.00812697 -0.0154333 -0.00812697 7.3938e-05)
(5.94414e-05 -0.0127922 -0.0154138 -0.0127922 2.92145e-05 -0.00813534 -0.0154138 -0.00813534 0.000101236)
(9.03255e-05 -0.0128067 -0.0154155 -0.0128067 3.84872e-05 -0.00814024 -0.0154155 -0.00814024 5.89524e-05)
(3.67206e-05 -0.0127886 -0.0154235 -0.0127886 2.22514e-05 -0.00813004 -0.0154235 -0.00813004 5.59153e-05)
(4.98248e-05 -0.0127903 -0.0154197 -0.0127903 2.79535e-05 -0.00813343 -0.0154197 -0.00813343 0.000100132)
(2.37237e-05 -0.0127863 -0.0154234 -0.0127863 2.32556e-05 -0.00812891 -0.0154234 -0.00812891 8.66263e-05)
(3.93196e-05 -0.0127884 -0.0154193 -0.0127884 2.4491e-05 -0.0081284 -0.0154193 -0.0081284 8.57145e-05)
(4.54471e-05 -0.0127904 -0.0154225 -0.0127904 2.29974e-05 -0.00812569 -0.0154225 -0.00812569 6.08334e-05)
(4.1629e-05 -0.0127899 -0.015422 -0.0127899 2.22794e-05 -0.00812939 -0.015422 -0.00812939 5.96365e-05)
(2.78271e-05 -0.0127896 -0.0154268 -0.0127896 2.28964e-05 -0.00812408 -0.0154268 -0.00812408 6.03291e-05)
(3.43778e-05 -0.0127892 -0.0154264 -0.0127892 2.51557e-05 -0.00813473 -0.0154264 -0.00813473 4.5443e-05)
(3.30402e-05 -0.0127873 -0.0154234 -0.0127873 2.22618e-05 -0.00812875 -0.0154234 -0.00812875 6.73731e-05)
(5.68478e-05 -0.0127921 -0.0154204 -0.0127921 2.53038e-05 -0.00813153 -0.0154204 -0.00813153 6.85928e-05)
(8.55459e-05 -0.0128013 -0.0154147 -0.0128013 3.06219e-05 -0.0081353 -0.0154147 -0.0081353 6.08227e-05)
(7.11806e-05 -0.0127932 -0.0154168 -0.0127932 2.5002e-05 -0.0081267 -0.0154168 -0.0081267 6.95196e-05)
(5.41454e-05 -0.0127905 -0.0154163 -0.0127905 2.56092e-05 -0.00812954 -0.0154163 -0.00812954 8.93335e-05)
(4.97474e-05 -0.0127908 -0.0154144 -0.0127908 2.83277e-05 -0.0081317 -0.0154144 -0.0081317 0.000111974)
(-1.60132e-05 -0.0127934 -0.0154355 -0.0127934 3.1588e-05 -0.00812001 -0.0154355 -0.00812001 5.64871e-05)
(3.1258e-05 -0.0127899 -0.0154352 -0.0127899 2.41488e-05 -0.0081314 -0.0154352 -0.0081314 3.96505e-05)
(5.01497e-05 -0.0127896 -0.0154172 -0.0127896 2.48438e-05 -0.00812593 -0.0154172 -0.00812593 7.62975e-05)
(8.67758e-05 -0.0128035 -0.0154137 -0.0128035 4.01343e-05 -0.00814304 -0.0154137 -0.00814304 7.66913e-05)
(5.06915e-05 -0.0127928 -0.0154234 -0.0127928 2.25336e-05 -0.00812878 -0.0154234 -0.00812878 4.61378e-05)
(4.5866e-05 -0.0127827 -0.0154384 -0.0127827 1.88838e-05 -0.00812988 -0.0154384 -0.00812988 3.72759e-05)
(4.57813e-05 -0.0127886 -0.0154225 -0.0127886 2.81303e-05 -0.00813734 -0.0154225 -0.00813734 7.4615e-05)
(0.000126866 -0.0128001 -0.0154003 -0.0128001 3.34611e-05 -0.00813489 -0.0154003 -0.00813489 0.000114792)
(4.94322e-05 -0.0127905 -0.015419 -0.0127905 2.3192e-05 -0.00812997 -0.015419 -0.00812997 6.53106e-05)
(5.445e-05 -0.012791 -0.0154137 -0.012791 2.56826e-05 -0.00813081 -0.0154137 -0.00813081 8.23517e-05)
(2.8755e-05 -0.0127885 -0.0154272 -0.0127885 2.20849e-05 -0.00812887 -0.0154272 -0.00812887 4.34643e-05)
(4.61064e-06 -0.0127935 -0.0154404 -0.0127935 2.58061e-05 -0.00811919 -0.0154404 -0.00811919 6.3419e-05)
(2.47585e-05 -0.0127899 -0.0154286 -0.0127899 2.53933e-05 -0.00812352 -0.0154286 -0.00812352 9.98438e-05)
(6.4953e-05 -0.0127992 -0.0154258 -0.0127992 3.11572e-05 -0.00813582 -0.0154258 -0.00813582 4.12944e-05)
(6.63545e-05 -0.012792 -0.0154157 -0.012792 2.40629e-05 -0.00812827 -0.0154157 -0.00812827 6.9306e-05)
(-8.2358e-06 -0.012797 -0.0154394 -0.012797 3.79552e-05 -0.00811923 -0.0154394 -0.00811923 6.62538e-05)
(1.99991e-05 -0.0127878 -0.015429 -0.0127878 2.28654e-05 -0.00812467 -0.015429 -0.00812467 6.79112e-05)
(9.09745e-05 -0.0128044 -0.0154123 -0.0128044 4.13861e-05 -0.00814409 -0.0154123 -0.00814409 7.75646e-05)
(5.91661e-05 -0.0127906 -0.0154131 -0.0127906 2.41013e-05 -0.00812577 -0.0154131 -0.00812577 7.5686e-05)
(-2.37175e-05 -0.0127987 -0.0154363 -0.0127987 3.96503e-05 -0.00811013 -0.0154363 -0.00811013 9.20534e-05)
(-1.08837e-05 -0.0127969 -0.0154381 -0.0127969 3.10923e-05 -0.00811479 -0.0154381 -0.00811479 7.6438e-05)
(1.59437e-05 -0.012786 -0.0154292 -0.012786 1.99969e-05 -0.0081255 -0.0154292 -0.0081255 5.89112e-05)
(2.34474e-05 -0.0127895 -0.0154266 -0.0127895 2.66842e-05 -0.00812304 -0.0154266 -0.00812304 6.42421e-05)
(2.55769e-05 -0.0127908 -0.0154216 -0.0127908 2.76679e-05 -0.00811771 -0.0154216 -0.00811771 8.60097e-05)
(3.70756e-07 -0.0127926 -0.015434 -0.0127926 2.66278e-05 -0.00811661 -0.015434 -0.00811661 8.50998e-05)
(2.33747e-05 -0.0127891 -0.0154292 -0.0127891 2.22813e-05 -0.00812513 -0.0154292 -0.00812513 5.83738e-05)
(6.4529e-05 -0.012796 -0.0154182 -0.012796 3.36415e-05 -0.00813986 -0.0154182 -0.00813986 6.81493e-05)
(2.1771e-05 -0.0127862 -0.0154244 -0.0127862 2.12425e-05 -0.00812631 -0.0154244 -0.00812631 7.07619e-05)
(-1.23887e-05 -0.0127974 -0.015437 -0.0127974 3.72794e-05 -0.00811622 -0.015437 -0.00811622 7.24259e-05)
(5.25996e-05 -0.0127896 -0.0154165 -0.0127896 2.95066e-05 -0.00811851 -0.0154165 -0.00811851 7.97489e-05)
(5.00967e-05 -0.0127907 -0.0154216 -0.0127907 2.69801e-05 -0.00812252 -0.0154216 -0.00812252 6.75186e-05)
(4.25178e-05 -0.0127908 -0.0154308 -0.0127908 2.53831e-05 -0.00812775 -0.0154308 -0.00812775 5.39688e-05)
(2.49903e-05 -0.0127901 -0.0154202 -0.0127901 2.87173e-05 -0.00811699 -0.0154202 -0.00811699 8.99402e-05)
(1.78562e-05 -0.0127944 -0.0154322 -0.0127944 2.87085e-05 -0.00812047 -0.0154322 -0.00812047 6.37185e-05)
(7.97473e-06 -0.0127955 -0.0154312 -0.0127955 3.37836e-05 -0.00811416 -0.0154312 -0.00811416 8.02772e-05)
(-5.18893e-05 -0.0128021 -0.015442 -0.0128021 5.20423e-05 -0.00810587 -0.015442 -0.00810587 8.87959e-05)
(1.35065e-05 -0.0127944 -0.0154347 -0.0127944 3.73911e-05 -0.00812028 -0.0154347 -0.00812028 6.4773e-05)
(9.67368e-06 -0.0127877 -0.0154318 -0.0127877 1.97632e-05 -0.00812425 -0.0154318 -0.00812425 5.15252e-05)
(-2.93038e-06 -0.0127916 -0.0154333 -0.0127916 2.58644e-05 -0.00811936 -0.0154333 -0.00811936 6.3246e-05)
(0.000138121 -0.0127955 -0.0153964 -0.0127955 2.95183e-05 -0.00812757 -0.0153964 -0.00812757 9.51966e-05)
(4.82828e-05 -0.0127914 -0.0154145 -0.0127914 3.0008e-05 -0.00812198 -0.0154145 -0.00812198 0.000106567)
(6.32681e-05 -0.0127936 -0.015417 -0.0127936 3.18669e-05 -0.0081389 -0.015417 -0.0081389 8.31516e-05)
(5.87705e-05 -0.0127936 -0.0154187 -0.0127936 3.14719e-05 -0.00813609 -0.0154187 -0.00813609 0.000116929)
(1.95224e-05 -0.0127878 -0.0154266 -0.0127878 2.3528e-05 -0.00812478 -0.0154266 -0.00812478 9.45401e-05)
(5.80561e-05 -0.0127922 -0.0154147 -0.0127922 2.70754e-05 -0.00813339 -0.0154147 -0.00813339 7.95245e-05)
(2.13018e-05 -0.0127927 -0.0154434 -0.0127927 2.76722e-05 -0.00812095 -0.0154434 -0.00812095 0.000106907)
(1.56524e-05 -0.0127916 -0.0154307 -0.0127916 2.50391e-05 -0.00811977 -0.0154307 -0.00811977 7.5239e-05)
(0.000101215 -0.0128043 -0.0154096 -0.0128043 4.12974e-05 -0.00814377 -0.0154096 -0.00814377 8.32499e-05)
(5.23284e-05 -0.0127906 -0.0154179 -0.0127906 3.07026e-05 -0.00813836 -0.0154179 -0.00813836 0.000106508)
(7.6128e-05 -0.0127987 -0.0154247 -0.0127987 2.84666e-05 -0.00813437 -0.0154247 -0.00813437 4.35224e-05)
(0.00011518 -0.012801 -0.0154027 -0.012801 3.31797e-05 -0.00813587 -0.0154027 -0.00813587 8.65436e-05)
(4.48111e-05 -0.0127894 -0.0154226 -0.0127894 2.72811e-05 -0.00813238 -0.0154226 -0.00813238 0.000105671)
(-4.49763e-05 -0.0128109 -0.0154506 -0.0128109 4.80288e-05 -0.00811658 -0.0154506 -0.00811658 6.50602e-05)
(-3.32105e-05 -0.0128017 -0.0154453 -0.0128017 4.58499e-05 -0.00812193 -0.0154453 -0.00812193 5.80563e-05)
(8.39193e-05 -0.0127956 -0.0154229 -0.0127956 2.595e-05 -0.00813092 -0.0154229 -0.00813092 5.01872e-05)
(7.35503e-05 -0.0127967 -0.0154307 -0.0127967 2.6631e-05 -0.00813275 -0.0154307 -0.00813275 4.51428e-05)
(-2.09173e-05 -0.0128107 -0.0154505 -0.0128107 4.43787e-05 -0.00812827 -0.0154505 -0.00812827 4.85932e-05)
(1.37696e-05 -0.0127894 -0.0154328 -0.0127894 2.13564e-05 -0.00812437 -0.0154328 -0.00812437 5.20289e-05)
(0.000102368 -0.0128052 -0.0154105 -0.0128052 3.83379e-05 -0.00814096 -0.0154105 -0.00814096 7.12272e-05)
(7.7273e-05 -0.0127947 -0.0154104 -0.0127947 2.84622e-05 -0.00813339 -0.0154104 -0.00813339 7.93212e-05)
(6.47019e-05 -0.0127955 -0.0154147 -0.0127955 3.17969e-05 -0.00813862 -0.0154147 -0.00813862 7.78236e-05)
(5.88098e-05 -0.0127918 -0.0154163 -0.0127918 2.70067e-05 -0.00813335 -0.0154163 -0.00813335 7.28501e-05)
(5.29701e-05 -0.0127918 -0.0154153 -0.0127918 2.96902e-05 -0.00811934 -0.0154153 -0.00811934 9.52998e-05)
(2.1621e-05 -0.0127822 -0.0154331 -0.0127822 1.72394e-05 -0.00812837 -0.0154331 -0.00812837 3.36968e-05)
(1.62735e-05 -0.0127888 -0.0154219 -0.0127888 2.54277e-05 -0.00811974 -0.0154219 -0.00811974 9.2396e-05)
(-2.33369e-05 -0.0128017 -0.0154396 -0.0128017 4.11717e-05 -0.00811103 -0.0154396 -0.00811103 0.000107004)
(1.58026e-05 -0.0127872 -0.015428 -0.0127872 2.04033e-05 -0.00812489 -0.015428 -0.00812489 5.74632e-05)
(0.000126574 -0.0127942 -0.0154018 -0.0127942 2.85425e-05 -0.00812295 -0.0154018 -0.00812295 8.31928e-05)
(-5.68848e-07 -0.0127954 -0.0154303 -0.0127954 3.94606e-05 -0.00811262 -0.0154303 -0.00811262 8.41401e-05)
(-2.09607e-05 -0.0127976 -0.0154388 -0.0127976 3.42192e-05 -0.00811654 -0.0154388 -0.00811654 6.67286e-05)
(6.46209e-05 -0.0127935 -0.0154149 -0.0127935 2.91747e-05 -0.00813508 -0.0154149 -0.00813508 8.96913e-05)
(2.29942e-05 -0.012789 -0.0154296 -0.012789 2.27234e-05 -0.00812687 -0.0154296 -0.00812687 4.89067e-05)
(4.50417e-05 -0.0127915 -0.0154276 -0.0127915 2.45653e-05 -0.00813282 -0.0154276 -0.00813282 4.12725e-05)
(1.61946e-05 -0.012789 -0.0154276 -0.012789 2.49559e-05 -0.00812344 -0.0154276 -0.00812344 5.52686e-05)
(4.01923e-05 -0.0127917 -0.0154403 -0.0127917 2.56252e-05 -0.00813205 -0.0154403 -0.00813205 4.52747e-05)
(5.79966e-05 -0.0127978 -0.0154246 -0.0127978 3.88392e-05 -0.00814117 -0.0154246 -0.00814117 4.79132e-05)
(2.90243e-05 -0.0127836 -0.0154385 -0.0127836 2.18893e-05 -0.00813032 -0.0154385 -0.00813032 3.17453e-05)
(4.65783e-05 -0.0127903 -0.015426 -0.0127903 2.35588e-05 -0.00813173 -0.015426 -0.00813173 5.13518e-05)
(2.43011e-05 -0.0127895 -0.0154276 -0.0127895 2.28913e-05 -0.00812392 -0.0154276 -0.00812392 6.14451e-05)
(4.20987e-05 -0.0127903 -0.0154249 -0.0127903 2.23642e-05 -0.00813016 -0.0154249 -0.00813016 5.02739e-05)
(5.4413e-05 -0.0127849 -0.0154293 -0.0127849 3.09974e-05 -0.00814017 -0.0154293 -0.00814017 7.93779e-05)
(-1.93525e-06 -0.0127921 -0.0154333 -0.0127921 2.69634e-05 -0.00812128 -0.0154333 -0.00812128 5.73119e-05)
(8.70368e-05 -0.0127997 -0.0154176 -0.0127997 2.97183e-05 -0.00813463 -0.0154176 -0.00813463 5.58702e-05)
(6.62272e-05 -0.0127931 -0.0154133 -0.0127931 2.75203e-05 -0.00813302 -0.0154133 -0.00813302 8.99258e-05)
(6.74277e-05 -0.0128096 -0.0154383 -0.0128096 5.57802e-05 -0.00813376 -0.0154383 -0.00813376 2.9979e-05)
(2.40347e-05 -0.0127873 -0.015426 -0.0127873 1.99362e-05 -0.00812768 -0.015426 -0.00812768 5.50557e-05)
(-2.80359e-06 -0.0128003 -0.0154454 -0.0128003 3.02889e-05 -0.0081152 -0.0154454 -0.0081152 6.58614e-05)
(2.38722e-05 -0.0127896 -0.0154519 -0.0127896 2.59683e-05 -0.00813559 -0.0154519 -0.00813559 5.00058e-05)
(4.62033e-05 -0.0127881 -0.0154235 -0.0127881 2.53855e-05 -0.00812609 -0.0154235 -0.00812609 5.60417e-05)
(1.4838e-05 -0.0127935 -0.0154302 -0.0127935 3.75848e-05 -0.00811592 -0.0154302 -0.00811592 7.36172e-05)
(7.12192e-05 -0.0127957 -0.0154135 -0.0127957 2.9131e-05 -0.00813509 -0.0154135 -0.00813509 7.89873e-05)
(7.48292e-05 -0.0127963 -0.015411 -0.0127963 2.98235e-05 -0.00813594 -0.015411 -0.00813594 8.10787e-05)
(8.13683e-05 -0.0127911 -0.0154074 -0.0127911 2.8853e-05 -0.00812063 -0.0154074 -0.00812063 9.29534e-05)
(1.13945e-05 -0.0127907 -0.0154359 -0.0127907 2.36825e-05 -0.00812392 -0.0154359 -0.00812392 5.40239e-05)
(2.37463e-05 -0.012784 -0.0154293 -0.012784 1.98545e-05 -0.00812955 -0.0154293 -0.00812955 4.90608e-05)
(0.000100189 -0.0128212 -0.0154184 -0.0128212 6.33618e-05 -0.00814907 -0.0154184 -0.00814907 4.84087e-05)
(3.22556e-05 -0.0127874 -0.0154221 -0.0127874 2.21869e-05 -0.00813014 -0.0154221 -0.00813014 6.23311e-05)
(1.59729e-05 -0.0127965 -0.0154444 -0.0127965 2.65211e-05 -0.00811913 -0.0154444 -0.00811913 6.02014e-05)
(4.54123e-05 -0.0127909 -0.0154221 -0.0127909 2.49394e-05 -0.00813315 -0.0154221 -0.00813315 5.74639e-05)
(0.000131601 -0.012809 -0.0154018 -0.012809 4.26185e-05 -0.00814423 -0.0154018 -0.00814423 9.50613e-05)
(3.70681e-05 -0.0127891 -0.0154235 -0.0127891 2.50112e-05 -0.00813439 -0.0154235 -0.00813439 5.59335e-05)
(6.84179e-05 -0.0127988 -0.0154224 -0.0127988 2.99894e-05 -0.00813544 -0.0154224 -0.00813544 4.88573e-05)
(9.01132e-05 -0.0128059 -0.0154121 -0.0128059 5.08905e-05 -0.00815113 -0.0154121 -0.00815113 0.000101831)
(3.98573e-05 -0.0127886 -0.0154249 -0.0127886 2.65105e-05 -0.00813579 -0.0154249 -0.00813579 5.52104e-05)
(5.44127e-05 -0.0127902 -0.0154154 -0.0127902 2.42528e-05 -0.00812581 -0.0154154 -0.00812581 7.69092e-05)
(5.08061e-05 -0.0127919 -0.0154217 -0.0127919 3.19642e-05 -0.00813741 -0.0154217 -0.00813741 0.00011815)
(-1.34791e-05 -0.0128006 -0.0154415 -0.0128006 3.68051e-05 -0.00811893 -0.0154415 -0.00811893 5.88736e-05)
(4.3779e-05 -0.0127914 -0.0154356 -0.0127914 2.71194e-05 -0.00812909 -0.0154356 -0.00812909 4.66145e-05)
(6.43689e-05 -0.0128017 -0.0154211 -0.0128017 3.99796e-05 -0.00814235 -0.0154211 -0.00814235 5.37889e-05)
(-2.55984e-05 -0.0128015 -0.0154434 -0.0128015 3.66693e-05 -0.00811503 -0.0154434 -0.00811503 7.13506e-05)
(1.7332e-05 -0.0127927 -0.0154446 -0.0127927 2.70201e-05 -0.00813151 -0.0154446 -0.00813151 4.73917e-05)
(4.42793e-05 -0.0127931 -0.0154507 -0.0127931 2.7853e-05 -0.00813548 -0.0154507 -0.00813548 4.87454e-05)
(4.26482e-05 -0.0127916 -0.0154394 -0.0127916 2.32947e-05 -0.00813254 -0.0154394 -0.00813254 4.08369e-05)
(7.26598e-05 -0.0127946 -0.0154149 -0.0127946 2.8213e-05 -0.00813378 -0.0154149 -0.00813378 7.06362e-05)
(4.06361e-05 -0.0127811 -0.0154339 -0.0127811 2.49603e-05 -0.00813346 -0.0154339 -0.00813346 9.43407e-05)
(1.63567e-05 -0.0127876 -0.0154355 -0.0127876 2.11475e-05 -0.00812463 -0.0154355 -0.00812463 5.56485e-05)
(8.04462e-05 -0.0128036 -0.0154448 -0.0128036 3.89541e-05 -0.00813534 -0.0154448 -0.00813534 4.49358e-05)
(3.54803e-05 -0.0127909 -0.015434 -0.0127909 2.19582e-05 -0.00813163 -0.015434 -0.00813163 3.35628e-05)
(-2.92485e-05 -0.0127989 -0.0154406 -0.0127989 3.97908e-05 -0.0081179 -0.0154406 -0.0081179 6.07367e-05)
(6.48424e-05 -0.012792 -0.015415 -0.012792 2.57324e-05 -0.00812983 -0.015415 -0.00812983 8.0086e-05)
(0.000100725 -0.0127956 -0.0154045 -0.0127956 2.86985e-05 -0.00812823 -0.0154045 -0.00812823 9.60299e-05)
(5.39253e-05 -0.0127905 -0.0154156 -0.0127905 2.49018e-05 -0.00812543 -0.0154156 -0.00812543 8.0294e-05)
(1.36277e-05 -0.0127878 -0.0154315 -0.0127878 2.47154e-05 -0.00812445 -0.0154315 -0.00812445 0.000103065)
(2.58528e-05 -0.0127887 -0.0154399 -0.0127887 2.42725e-05 -0.00812151 -0.0154399 -0.00812151 9.37443e-05)
(4.57995e-05 -0.0127909 -0.0154292 -0.0127909 2.32035e-05 -0.00813001 -0.0154292 -0.00813001 4.77646e-05)
(4.90705e-05 -0.012792 -0.0154381 -0.012792 2.4312e-05 -0.00813257 -0.0154381 -0.00813257 4.28336e-05)
(-1.3405e-05 -0.0127971 -0.0154377 -0.0127971 3.74429e-05 -0.00811911 -0.0154377 -0.00811911 6.72371e-05)
(-1.79711e-06 -0.0128007 -0.0154407 -0.0128007 5.76769e-05 -0.00811487 -0.0154407 -0.00811487 8.05723e-05)
(6.81814e-05 -0.0127913 -0.0154139 -0.0127913 2.73286e-05 -0.00812163 -0.0154139 -0.00812163 7.66924e-05)
(4.76963e-05 -0.0127918 -0.0154264 -0.0127918 2.32443e-05 -0.00813143 -0.0154264 -0.00813143 4.56109e-05)
(7.52055e-05 -0.0127948 -0.0154235 -0.0127948 4.4824e-05 -0.00814574 -0.0154235 -0.00814574 7.11998e-05)
(6.69805e-05 -0.0127917 -0.0154121 -0.0127917 2.62788e-05 -0.00812721 -0.0154121 -0.00812721 8.92631e-05)
(4.81704e-05 -0.0127908 -0.0154179 -0.0127908 2.54007e-05 -0.00813301 -0.0154179 -0.00813301 6.88381e-05)
(6.91805e-05 -0.0127881 -0.0154297 -0.0127881 5.11489e-05 -0.00814441 -0.0154297 -0.00814441 4.54727e-05)
(-4.74465e-05 -0.012809 -0.0154485 -0.012809 4.65451e-05 -0.0081173 -0.0154485 -0.0081173 6.14746e-05)
(6.5894e-05 -0.0127915 -0.0154211 -0.0127915 2.48777e-05 -0.00812773 -0.0154211 -0.00812773 6.13189e-05)
(0.000116494 -0.0128341 -0.0154099 -0.0128341 0.000104381 -0.00815483 -0.0154099 -0.00815483 6.37485e-05)
(1.06257e-05 -0.0127885 -0.0154298 -0.0127885 2.47569e-05 -0.00812222 -0.0154298 -0.00812222 9.56731e-05)
(-7.17625e-05 -0.0128159 -0.015454 -0.0128159 6.5892e-05 -0.00812217 -0.015454 -0.00812217 6.03745e-05)
(5.33412e-05 -0.0127903 -0.015415 -0.0127903 2.70871e-05 -0.00811914 -0.015415 -0.00811914 7.93334e-05)
(-2.58888e-05 -0.012799 -0.0154403 -0.012799 3.56283e-05 -0.00811495 -0.0154403 -0.00811495 6.98607e-05)
(-7.35537e-06 -0.0127965 -0.0154337 -0.0127965 3.48259e-05 -0.00811253 -0.0154337 -0.00811253 8.07256e-05)
(7.50758e-05 -0.0128066 -0.0154246 -0.0128066 4.89973e-05 -0.00814301 -0.0154246 -0.00814301 4.22993e-05)
(3.34806e-05 -0.01279 -0.0154227 -0.01279 2.48494e-05 -0.00812259 -0.0154227 -0.00812259 7.68836e-05)
(5.68503e-05 -0.0127927 -0.0154187 -0.0127927 2.77589e-05 -0.00813512 -0.0154187 -0.00813512 7.03208e-05)
(7.42341e-05 -0.0128044 -0.0154204 -0.0128044 4.29731e-05 -0.00814301 -0.0154204 -0.00814301 5.32141e-05)
(5.40565e-05 -0.0127913 -0.0154165 -0.0127913 2.6019e-05 -0.0081331 -0.0154165 -0.0081331 6.66679e-05)
(5.27358e-06 -0.0127888 -0.0154322 -0.0127888 2.47783e-05 -0.00812489 -0.0154322 -0.00812489 5.76341e-05)
(8.25514e-05 -0.0127971 -0.0154131 -0.0127971 2.99229e-05 -0.00813464 -0.0154131 -0.00813464 7.42054e-05)
(8.44604e-05 -0.0128078 -0.0154251 -0.0128078 4.01027e-05 -0.00813799 -0.0154251 -0.00813799 3.76485e-05)
(-2.12828e-05 -0.0128068 -0.0154507 -0.0128068 4.5607e-05 -0.00813413 -0.0154507 -0.00813413 4.9748e-05)
(-9.60516e-06 -0.0127935 -0.0154414 -0.0127935 2.88261e-05 -0.00812731 -0.0154414 -0.00812731 4.48179e-05)
(2.77256e-05 -0.0127888 -0.015434 -0.0127888 2.15028e-05 -0.00812811 -0.015434 -0.00812811 5.02484e-05)
(3.50057e-05 -0.0127887 -0.0154403 -0.0127887 2.24682e-05 -0.00813205 -0.0154403 -0.00813205 3.71755e-05)
(7.99316e-05 -0.0128084 -0.0154275 -0.0128084 4.31014e-05 -0.00813867 -0.0154275 -0.00813867 3.45224e-05)
(-3.28927e-05 -0.0128042 -0.0154442 -0.0128042 4.61551e-05 -0.00811817 -0.0154442 -0.00811817 6.66339e-05)
(-4.90767e-06 -0.0127889 -0.0154321 -0.0127889 2.45231e-05 -0.0081194 -0.0154321 -0.0081194 7.98037e-05)
(0.000127127 -0.0127916 -0.0154091 -0.0127916 3.26067e-05 -0.00812386 -0.0154091 -0.00812386 7.2899e-05)
(4.40979e-05 -0.0127897 -0.0154216 -0.0127897 2.48283e-05 -0.00813186 -0.0154216 -0.00813186 5.63944e-05)
(-3.49826e-05 -0.0128038 -0.0154458 -0.0128038 3.90788e-05 -0.00812136 -0.0154458 -0.00812136 5.14964e-05)
(-7.798e-05 -0.0128073 -0.0154492 -0.0128073 5.38359e-05 -0.00810705 -0.0154492 -0.00810705 8.77286e-05)
(4.95884e-05 -0.0127914 -0.0154252 -0.0127914 2.95175e-05 -0.00813725 -0.0154252 -0.00813725 5.38127e-05)
(8.66478e-05 -0.0127984 -0.0154114 -0.0127984 3.01842e-05 -0.00813504 -0.0154114 -0.00813504 7.15033e-05)
(1.14694e-05 -0.0127897 -0.0154213 -0.0127897 3.10466e-05 -0.00811767 -0.0154213 -0.00811767 8.79632e-05)
(4.8164e-05 -0.0127909 -0.0154246 -0.0127909 2.64121e-05 -0.00812704 -0.0154246 -0.00812704 5.61492e-05)
(7.22933e-05 -0.0127976 -0.0154156 -0.0127976 3.09993e-05 -0.00813689 -0.0154156 -0.00813689 6.82823e-05)
(1.07001e-05 -0.0127942 -0.0154308 -0.0127942 3.14814e-05 -0.00811855 -0.0154308 -0.00811855 6.76737e-05)
(3.22867e-05 -0.012788 -0.0154294 -0.012788 2.04089e-05 -0.00812959 -0.0154294 -0.00812959 4.44156e-05)
(5.91712e-06 -0.0127871 -0.0154341 -0.0127871 2.00193e-05 -0.00812361 -0.0154341 -0.00812361 5.34188e-05)
(2.4368e-06 -0.0127907 -0.0154362 -0.0127907 2.47421e-05 -0.0081205 -0.0154362 -0.0081205 6.58018e-05)
(8.00967e-05 -0.0128004 -0.015417 -0.0128004 3.59599e-05 -0.00813999 -0.015417 -0.00813999 6.61538e-05)
(9.98645e-05 -0.0127999 -0.0154139 -0.0127999 2.87173e-05 -0.00813293 -0.0154139 -0.00813293 5.73805e-05)
(2.6064e-05 -0.0127895 -0.015425 -0.0127895 2.73571e-05 -0.00812725 -0.015425 -0.00812725 0.000109209)
(6.67997e-05 -0.0127943 -0.0154281 -0.0127943 2.52758e-05 -0.00812838 -0.0154281 -0.00812838 5.6137e-05)
(7.36791e-05 -0.0127951 -0.0154192 -0.0127951 2.4593e-05 -0.00812698 -0.0154192 -0.00812698 5.5444e-05)
(2.81971e-05 -0.0127987 -0.0154496 -0.0127987 2.74002e-05 -0.00811405 -0.0154496 -0.00811405 7.53435e-05)
(3.72179e-05 -0.0127895 -0.0154306 -0.0127895 2.28163e-05 -0.00813218 -0.0154306 -0.00813218 3.97018e-05)
(0.000161419 -0.0128077 -0.0154064 -0.0128077 3.37579e-05 -0.00813467 -0.0154064 -0.00813467 6.59878e-05)