/*--------------------------------*- C++ -*----------------------------------*\
  =========                 |
  \\      /  F ield         | OpenFOAM: The Open Source CFD Toolbox
   \\    /   O peration     | Website:  https://openfoam.org
    \\  /    A nd           | Version:  10
     \\/     M anipulation  |
\*---------------------------------------------------------------------------*/
FoamFile
{
    format      ascii;
    class       volVectorField;
    location    "100";
    object      U;
}
// * * * * * * * * * * * * * * * * * * * * * * * * * * * * * * * * * * * * * //

dimensions      [0 1 -1 0 0 0 0];

internalField   nonuniform List<vector> 
25600
(
(0.0512948 -4.87785e-05 -0.0105198)
(0.0446681 0.000549083 0.0036547)
(0.0449421 0.000368964 0.025061)
(0.046888 0.000279154 0.0136995)
(0.0475049 0.0003149 -0.00562274)
(0.0468653 0.000340773 -0.0116562)
(0.0490824 0.000745636 -0.0168709)
(0.0482927 0.000467958 -0.0198257)
(0.0501979 -0.000485388 -0.0107057)
(0.0605388 -0.000796368 0.00316133)
(0.0644189 -0.000502281 0.012769)
(0.0571174 0.000379774 0.00839328)
(0.0522014 0.0004827 -0.013585)
(0.0610612 -2.38412e-05 -0.020849)
(0.0836174 5.38817e-06 -0.0107539)
(0.0863276 0.000430268 -0.0118156)
(0.07125 0.000327166 -0.0143437)
(0.0663982 0.000190313 -0.011202)
(0.0768917 0.000178629 -0.0193787)
(0.07492 -0.000132809 -0.015324)
(0.0629246 -0.00022739 -0.00475774)
(0.0803084 -0.000255945 0.0141479)
(0.105895 -8.79333e-06 0.0285584)
(0.118097 1.9262e-05 0.0122711)
(0.143979 -0.000591797 -0.0143411)
(0.157213 -0.000404952 -0.0253694)
(0.146998 9.16757e-05 -0.0181789)
(0.125146 0.00018735 -0.0181026)
(0.106835 0.000223863 -0.0257611)
(0.116619 0.000241621 -0.0164711)
(0.142673 6.06716e-05 0.00579803)
(0.144859 -0.000174865 0.0130981)
(0.126884 -0.000307444 0.00669621)
(0.111494 0.000231016 -0.00370378)
(0.0887385 0.000909178 -0.0220517)
(0.0666677 -0.000758259 -0.00653157)
(0.0626038 -0.0014281 0.0317036)
(0.0459605 0.00142465 0.0460685)
(0.0269596 0.00149177 0.0377106)
(0.0420051 -0.000106242 0.0102525)
(0.147447 0.00228884 -0.010708)
(0.129985 0.00396186 0.0225664)
(0.125086 0.00330502 0.048398)
(0.135376 0.00266201 0.017195)
(0.161726 0.00144813 -0.0161158)
(0.158254 0.00108666 -0.0274611)
(0.154723 0.00298847 -0.0380642)
(0.166413 0.00181134 -0.0384629)
(0.167465 -0.00262358 -0.00970111)
(0.172025 -0.00378926 0.0197986)
(0.173107 -0.0018636 0.0251899)
(0.166519 0.00271342 0.00258042)
(0.169897 0.00332782 -0.0337724)
(0.174543 -0.000423478 -0.0270647)
(0.229481 0.00193178 -0.0108422)
(0.271145 0.00521658 -0.0412215)
(0.234056 0.00351764 -0.0432967)
(0.205218 0.00215444 -0.0237436)
(0.243798 0.00182826 -0.0460871)
(0.243373 -6.57275e-06 -0.0446097)
(0.185311 -0.00112126 -0.0141378)
(0.206121 -0.00118051 0.0252022)
(0.276512 -8.12444e-05 0.0436245)
(0.322261 -0.000986028 0.0120303)
(0.387243 -0.00415515 -0.0286515)
(0.429692 -0.00232554 -0.0487752)
(0.437843 0.00136157 -0.0346324)
(0.414626 0.000680931 -0.0257427)
(0.348271 -0.000743899 -0.0462526)
(0.325 9.38922e-05 -0.0474438)
(0.382885 -0.00158203 -0.00858591)
(0.430804 -0.00117105 0.0262008)
(0.402145 0.00046273 0.0259405)
(0.354539 0.0017287 -0.000514701)
(0.32122 0.00198071 -0.033295)
(0.26245 -0.00334954 0.00554634)
(0.18493 -0.00307961 0.0678112)
(0.135366 0.0064053 0.0821957)
(0.108459 0.00560193 0.0658035)
(0.136367 0.00103534 0.017691)
(0.243984 0.00629009 0.00229845)
(0.230434 0.00892488 0.0414689)
(0.204023 0.00677067 0.0676645)
(0.222493 0.00547761 0.0273926)
(0.302308 0.00292638 -0.016473)
(0.30357 0.00118077 -0.0318403)
(0.261223 0.00310933 -0.0411692)
(0.285454 0.0019291 -0.0439237)
(0.290569 -0.00545551 -0.00940953)
(0.269342 -0.00796593 0.0396194)
(0.26391 -0.00386948 0.0452551)
(0.266351 0.00526024 0.00484501)
(0.286443 0.00882675 -0.0479692)
(0.264387 0.00120769 -0.0284228)
(0.279739 0.00121107 0.021191)
(0.440944 0.00974699 -0.039515)
(0.442526 0.0103711 -0.0817226)
(0.355308 0.00628662 -0.0422204)
(0.411589 0.00527945 -0.0529017)
(0.446601 0.00260514 -0.0747621)
(0.338458 -0.000392178 -0.0439186)
(0.301374 -0.00173926 0.0155597)
(0.367072 6.35343e-05 0.0337398)
(0.450673 -0.000343432 -0.0162333)
(0.54864 -0.00643721 -0.0595526)
(0.589484 -0.0051548 -0.0723909)
(0.605215 0.00177942 -0.0548852)
(0.658379 0.00389154 -0.0216667)
(0.639398 0.00134836 -0.0300575)
(0.569555 0.000260614 -0.0594909)
(0.558297 -0.00487562 -0.0532036)
(0.602437 -0.0061014 -0.0110659)
(0.624562 -0.000510268 0.0322473)
(0.605152 0.00335095 0.0239242)
(0.646558 0.00432616 -0.0407195)
(0.608534 -0.0057745 -0.00300198)
(0.36022 -0.00755837 0.0839124)
(0.238542 0.0111493 0.0976199)
(0.208585 0.00968565 0.0784863)
(0.214998 0.00239481 0.0318713)
(0.338622 0.00952764 0.0198258)
(0.377078 0.0149912 0.0682045)
(0.32066 0.00931561 0.0932463)
(0.294293 0.00498566 0.0550284)
(0.418562 0.00275454 0.0103695)
(0.498941 0.0032874 -0.0210214)
(0.425869 0.00203655 -0.0329299)
(0.418663 -0.00195413 -0.0352355)
(0.42527 -0.00939252 -0.0176385)
(0.360839 -0.0139366 0.0474829)
(0.314823 -0.0110889 0.0792216)
(0.336845 0.00472745 0.0250609)
(0.388222 0.0155605 -0.0574666)
(0.358713 0.00618635 -0.0420742)
(0.307536 -0.000383467 0.043795)
(0.462266 0.00826981 0.000233928)
(0.613141 0.0154486 -0.100524)
(0.515146 0.0120005 -0.0838598)
(0.529211 0.00932189 -0.0489525)
(0.636784 0.0105386 -0.072581)
(0.537781 0.00552726 -0.0784314)
(0.428337 0.000705501 -0.0101435)
(0.436407 0.00138328 0.0213697)
(0.5202 -0.000209005 -0.0431833)
(0.658181 -0.00771545 -0.106879)
(0.72117 -0.00509852 -0.115175)
(0.674423 0.00296069 -0.0912585)
(0.704365 0.00590613 -0.0397719)
(0.778964 0.00336672 -0.00455583)
(0.797669 0.000720175 -0.02805)
(0.798643 -0.00540866 -0.0572051)
(0.7585 -0.0108635 -0.0580884)
(0.717753 -0.00553452 -0.0174173)
(0.707788 -0.000140212 0.034935)
(0.851368 -0.00162222 -0.0322973)
(1.04035 -0.00833003 -0.0552982)
(0.673122 -0.0015872 0.0685888)
(0.398412 0.0183122 0.120257)
(0.409623 0.002997 0.0936397)
(0.309664 -0.00285876 0.0350965)
(0.440006 0.004872 0.0191267)
(0.586693 0.0191627 0.0894633)
(0.565328 0.0144209 0.124975)
(0.435507 0.000795135 0.0836105)
(0.44657 -0.00672452 0.0615448)
(0.590826 -0.000435788 0.0388079)
(0.64038 0.00177212 -0.0014883)
(0.634491 -0.00724982 -0.0221715)
(0.623115 -0.0114551 -0.0403737)
(0.534396 -0.0151526 0.00527559)
(0.400813 -0.0225795 0.0843227)
(0.354715 -0.00435 0.0550305)
(0.446024 0.0179839 -0.0479288)
(0.440335 0.0114572 -0.0553469)
(0.358691 -0.00212936 0.0432984)
(0.452628 0.00395018 0.0395403)
(0.663333 0.01496 -0.0774979)
(0.637208 0.0166698 -0.11437)
(0.588033 0.0132874 -0.0616762)
(0.684081 0.017073 -0.0505007)
(0.688058 0.0151706 -0.0776391)
(0.585447 0.00734252 -0.0445522)
(0.546841 0.0053904 0.00631807)
(0.602546 -0.00214545 -0.01818)
(0.727828 -0.0161845 -0.0947262)
(0.829151 -0.0073015 -0.139812)
(0.756288 0.00557183 -0.128655)
(0.717265 0.00686045 -0.0842287)
(0.794537 0.00242231 -0.00527807)
(0.860963 -0.00269661 0.00645728)
(0.94601 -0.0103872 -0.0283835)
(0.964707 -0.0129442 -0.0527044)
(0.816205 -0.00773401 -0.0709565)
(0.746209 -0.003384 -0.00848767)
(0.859875 -0.0163449 0.0117921)
(1.15278 -0.0235069 -0.0687673)
(0.954131 0.00271346 -0.020453)
(0.741298 0.0246502 0.109827)
(0.916653 0.00485636 0.1534)
(0.610808 -0.0111607 0.0578472)
(0.641036 0.00632417 0.0244314)
(0.685911 0.0118978 0.0643275)
(0.81317 0.0168953 0.14102)
(0.70343 0.00432889 0.106547)
(0.54986 -0.0151217 0.0891556)
(0.568149 -0.0091464 0.101987)
(0.683898 -0.00573692 0.0736848)
(0.774343 -0.0196935 0.017181)
(0.798887 -0.0181558 -0.0445389)
(0.770421 -0.00742905 -0.0580984)
(0.630898 -0.022408 0.0285831)
(0.412306 -0.0158426 0.0635019)
(0.453269 0.0152123 -0.0239967)
(0.490654 0.0118866 -0.0392759)
(0.423768 -0.00755137 0.0418352)
(0.457923 -0.00303338 0.0706566)
(0.658355 0.0112816 -0.0377879)
(0.675822 0.0200051 -0.112959)
(0.604307 0.0172619 -0.0735406)
(0.674764 0.0229025 -0.0323588)
(0.711869 0.0221746 -0.0392862)
(0.695527 0.0139852 -0.0516454)
(0.677499 0.0121532 -0.0271611)
(0.70426 -0.00364355 0.00338611)
(0.746496 -0.0309358 -0.0356722)
(0.857526 -0.0175341 -0.111174)
(0.85107 0.0058694 -0.134436)
(0.774664 0.00467788 -0.134938)
(0.831996 -0.00405014 -0.0565396)
(0.917378 -0.00796555 0.00274065)
(0.944039 -0.017453 -0.0128089)
(1.02213 -0.0173416 -0.0305047)
(0.921163 -0.00573654 -0.0790058)
(0.778399 -0.00233461 -0.0485938)
(0.857204 -0.0279697 0.0222917)
(1.13698 -0.0417844 -0.0291021)
(0.989901 0.00132496 -0.0441178)
(0.710421 0.0226223 0.0474975)
(1.18285 -0.000701514 0.162764)
(1.14721 -0.00388747 0.126458)
(0.844908 0.0214916 0.0462371)
(0.722041 0.0089015 0.0088488)
(0.848622 0.00740129 0.0876636)
(0.843176 0.00807825 0.110841)
(0.709217 -0.0102132 0.112745)
(0.61119 -0.0122245 0.140998)
(0.695238 -0.0100414 0.129362)
(0.770568 -0.0326245 0.0691383)
(0.760909 -0.0364056 -0.00969558)
(0.833461 -0.00895632 -0.0663328)
(0.880306 -0.00926459 -0.0265656)
(0.587637 -0.0125476 0.0363526)
(0.458708 0.0137933 0.00344637)
(0.555822 0.0058375 0.00144932)
(0.533167 -0.0238011 0.0560423)
(0.497123 -0.0146871 0.087941)
(0.648671 0.00747858 0.00123885)
(0.675714 0.0241375 -0.0916428)
(0.589688 0.0236846 -0.0691682)
(0.619172 0.030555 -0.00392693)
(0.674855 0.0267995 0.0123143)
(0.731655 0.0160487 -0.0258867)
(0.745652 0.0190479 -0.0468874)
(0.783101 -0.000438659 8.19065e-05)
(0.77925 -0.0443381 0.000214834)
(0.791294 -0.0374915 -0.0725983)
(0.898738 -0.00180165 -0.107565)
(0.903197 -0.000700187 -0.144581)
(0.899641 -0.0155868 -0.115605)
(0.980679 -0.0147772 -0.0343002)
(0.959858 -0.0196001 -0.0137492)
(0.984326 -0.0191177 -0.0247146)
(0.957034 -0.00144923 -0.0750071)
(0.850874 0.00264524 -0.0633902)
(0.88446 -0.0336845 0.0151902)
(1.09136 -0.0536589 -0.00912423)
(0.996152 0.00403138 -0.0425038)
(0.706661 0.0220244 0.00583746)
(0.996153 -0.0276025 0.0621972)
(1.26858 -0.00936437 0.114685)
(0.897733 0.0318041 0.0549664)
(0.767497 0.0131158 -0.0265438)
(0.842921 -0.00235039 0.00377354)
(0.858368 0.0074852 0.0690287)
(0.809075 -0.000179919 0.116286)
(0.703597 -0.00952653 0.165605)
(0.721481 -0.00952081 0.165505)
(0.806623 -0.0281172 0.107322)
(0.736241 -0.0413669 0.0151937)
(0.712416 -0.0243095 -0.0278257)
(0.922342 -0.0078528 -0.0120129)
(0.793834 0.0034685 0.0115473)
(0.59178 0.0166444 0.00406639)
(0.741578 -0.00421909 -0.0103818)
(0.755357 -0.0438596 0.0376626)
(0.602814 -0.0321463 0.0869594)
(0.654958 0.00505201 0.0304627)
(0.667048 0.0322854 -0.0614316)
(0.580558 0.0335343 -0.0572321)
(0.557821 0.0373859 0.0309611)
(0.61235 0.0279036 0.0767192)
(0.729886 0.0133318 0.00852551)
(0.750289 0.0228879 -0.0415316)
(0.787751 0.00432034 0.00506749)
(0.844436 -0.0471501 0.0036163)
(0.759245 -0.0563601 -0.0607657)
(0.8704 -0.0208212 -0.081182)
(1.01265 -0.00840024 -0.116857)
(0.983881 -0.0237353 -0.132602)
(1.00796 -0.0217527 -0.0612563)
(0.967971 -0.0191063 -0.0141269)
(0.952222 -0.0174403 -0.0166939)
(0.978044 0.00315846 -0.0679411)
(0.920086 0.00796136 -0.071438)
(0.899316 -0.0384595 0.011594)
(1.07415 -0.056133 0.010348)
(1.02389 0.0162989 -0.0237636)
(0.710607 0.029954 -0.0255109)
(0.822467 -0.0426918 -0.0459701)
(1.16 -0.024684 0.0557698)
(0.874125 0.0392584 0.050954)
(0.795073 0.018327 -0.0327786)
(0.868959 -0.0118678 -0.0351835)
(0.881866 0.00498529 0.035338)
(0.872315 0.00644252 0.0833044)
(0.806179 -0.00568642 0.147148)
(0.744358 -0.0075082 0.184839)
(0.830514 -0.0201337 0.141571)
(0.823693 -0.0316745 0.0247222)
(0.687505 -0.0328573 -0.00632462)
(0.813697 -0.0230102 0.0548119)
(0.832382 0.0092725 0.0561607)
(0.755 0.0246381 -0.00323615)
(0.953395 -0.0021671 -0.064197)
(1.02996 -0.0476387 -0.0313537)
(0.791553 -0.0428229 0.0542843)
(0.70608 0.0052455 0.0403391)
(0.667679 0.0442221 -0.039831)
(0.566883 0.0473708 -0.0453168)
(0.533835 0.0446138 0.0547912)
(0.591303 0.0208017 0.132411)
(0.713464 0.00265762 0.0523423)
(0.748194 0.0220705 -0.0220778)
(0.769388 0.00640623 0.0207586)
(0.850213 -0.0430933 0.00988634)
(0.801867 -0.0652488 -0.0639954)
(0.851194 -0.0434319 -0.0679087)
(1.02809 -0.0186596 -0.0781331)
(1.02832 -0.0251594 -0.118206)
(1.00123 -0.0258672 -0.0707364)
(0.95851 -0.0165127 -0.00809748)
(0.920957 -0.0155965 -0.00369433)
(0.978893 0.0055154 -0.0545832)
(0.969739 0.0214969 -0.0730676)
(0.891358 -0.0425791 0.00709613)
(1.07425 -0.0712359 0.02227)
(1.09474 0.027917 0.00795766)
(0.775672 0.0495313 -0.0272848)
(0.802099 -0.0428815 -0.09531)
(1.03279 -0.0369272 0.000992481)
(0.873247 0.0386934 0.0421821)
(0.839285 0.025009 -0.0179368)
(0.882307 -0.0122595 -0.0422545)
(0.88276 0.00119557 0.0207452)
(0.907521 0.00763394 0.0565166)
(0.884895 -0.00335823 0.105984)
(0.785458 -0.00498128 0.176045)
(0.820977 -0.0150782 0.169858)
(0.884643 -0.0203524 0.0396563)
(0.813607 -0.0252721 -0.0199262)
(0.777177 -0.0330673 0.0849565)
(0.767005 0.00173328 0.123139)
(0.804561 0.0176753 0.0463668)
(1.00399 -0.00813301 -0.0323993)
(1.11882 -0.0492318 -0.0351792)
(0.956807 -0.0457009 0.0199559)
(0.799163 0.00994703 0.0191713)
(0.659452 0.0609047 -0.0322262)
(0.554471 0.0617122 -0.0252945)
(0.593218 0.0458141 0.0517477)
(0.693894 0.00320355 0.149095)
(0.751113 -0.0176342 0.10318)
(0.765974 0.0130798 0.0127404)
(0.781086 0.00641224 0.0433754)
(0.82439 -0.0372045 0.0387666)
(0.824709 -0.0676007 -0.052651)
(0.869241 -0.0615158 -0.0597113)
(1.014 -0.0302493 -0.0447517)
(1.03805 -0.0239787 -0.0959464)
(0.983994 -0.0266379 -0.0746746)
(0.936802 -0.0125044 -0.00182636)
(0.907683 -0.0109258 0.0151833)
(0.960155 0.00447919 -0.029253)
(0.989779 0.0329481 -0.0865533)
(0.935158 -0.0288042 -0.0123423)
(1.03304 -0.0823216 0.0411248)
(1.06678 0.0294442 -0.0093092)
(0.870963 0.064266 -0.0386837)
(0.898583 -0.0341541 -0.0977988)
(0.979951 -0.0402014 -0.0372409)
(0.913663 0.0304272 0.0144666)
(0.891165 0.0248114 -0.0139301)
(0.890115 -8.80301e-05 -0.0302639)
(0.870216 0.00767043 0.0181402)
(0.918492 0.00324855 0.0479844)
(0.931719 -0.00457869 0.07744)
(0.845002 0.000389745 0.148482)
(0.84248 -0.00860336 0.180885)
(0.87071 -0.0175009 0.06288)
(0.90515 -0.0107943 -0.0389472)
(0.856007 -0.025827 0.0582746)
(0.737078 -0.0115076 0.149163)
(0.789551 -0.000650029 0.0977402)
(0.993269 -0.0222624 0.0226448)
(1.0717 -0.0585589 0.00555775)
(0.961784 -0.048579 0.0128843)
(0.819812 0.0221361 0.00127898)
(0.614381 0.0802797 -0.00182849)
(0.545631 0.0708491 0.00449431)
(0.677611 0.0405007 0.00368894)
(0.856505 -0.0150902 0.0821346)
(0.873658 -0.0360874 0.106203)
(0.829709 0.00209851 0.0415895)
(0.822405 0.00691965 0.0623875)
(0.828408 -0.0279481 0.0720233)
(0.832743 -0.0631589 -0.0242591)
(0.889188 -0.0728351 -0.0508104)
(1.00663 -0.0414784 -0.018345)
(1.0283 -0.0223397 -0.0706057)
(0.969752 -0.0209274 -0.0718935)
(0.914754 -0.00766795 0.00487478)
(0.892584 -0.00460365 0.0299507)
(0.950234 0.00689865 0.00351936)
(0.990423 0.0378343 -0.0799472)
(0.950544 -0.014778 -0.0664616)
(1.01169 -0.0803149 0.0638006)
(1.04505 0.00954774 0.00596238)
(0.978474 0.0414534 -0.0402398)
(1.01668 -0.0377957 -0.0644132)
(1.00158 -0.0362968 -0.0573487)
(0.986276 0.0291387 -0.00886912)
(0.957754 0.0237332 -0.0251505)
(0.904332 0.0129623 -0.0352427)
(0.883842 0.0227792 0.00323109)
(0.9577 0.00325348 0.0290677)
(0.968021 -0.00907564 0.0561037)
(0.890756 0.00434238 0.114799)
(0.89473 0.00174466 0.169574)
(0.884891 -0.0161713 0.0804111)
(0.922901 -0.00976042 -0.0519589)
(0.959192 -0.0123761 0.0073505)
(0.790001 -0.0118755 0.133482)
(0.756727 -0.0189919 0.111331)
(0.980615 -0.0346814 0.0288098)
(1.04886 -0.0596365 0.0122693)
(0.883051 -0.0451976 0.00304135)
(0.72313 0.0380814 -0.00281553)
(0.552906 0.0953703 0.0257826)
(0.560941 0.0729311 0.00460688)
(0.713324 0.0328989 -0.0418181)
(0.90972 -0.0251488 0.0107682)
(0.954174 -0.0454533 0.0685142)
(0.891773 -0.00311364 0.0490169)
(0.866651 0.00953454 0.071528)
(0.846005 -0.0172482 0.0924588)
(0.837065 -0.0525816 0.0106206)
(0.895554 -0.0792122 -0.0423966)
(1.00261 -0.0523249 -0.00574424)
(1.00586 -0.0175304 -0.0408847)
(0.941044 -0.0102578 -0.0643932)
(0.9098 -0.00100837 0.00102715)
(0.876368 0.00346512 0.0364278)
(0.926929 0.0119411 0.0230944)
(1.01476 0.0422623 -0.0606917)
(0.999045 0.00203239 -0.0970166)
(0.98439 -0.0753575 0.0372725)
(1.04859 -0.0237215 0.0479957)
(1.09392 0.00623124 0.00626334)
(1.09629 -0.046509 -0.00873499)
(1.0433 -0.0276422 -0.0465878)
(1.04565 0.0297125 -0.0260922)
(1.02809 0.0229176 -0.0314969)
(0.920656 0.0261311 -0.0332166)
(0.885101 0.0370851 -0.00236799)
(0.969891 0.00460445 0.0124456)
(0.98827 -0.0119991 0.0423199)
(0.901202 0.0077308 0.0899655)
(0.90669 0.0106833 0.134988)
(0.931047 -0.0130266 0.0821173)
(0.935821 -0.0234555 -0.0490198)
(0.976358 -0.0135833 -0.029816)
(0.846658 -0.00324441 0.101999)
(0.774407 -0.026293 0.105308)
(0.981109 -0.0476346 0.0182882)
(1.0503 -0.0554032 0.0100765)
(0.79329 -0.0315538 0.00581498)
(0.585769 0.045791 -0.0141905)
(0.52367 0.0911904 0.0132154)
(0.603185 0.0629545 -0.00488548)
(0.745047 0.0236858 -0.0512994)
(0.93749 -0.0310293 -0.0208687)
(1.00243 -0.054355 0.0324212)
(0.943426 -0.00912649 0.0454229)
(0.910686 0.013396 0.078068)
(0.861827 -0.00702453 0.101738)
(0.841402 -0.0407388 0.0405326)
(0.89632 -0.0801139 -0.027416)
(0.985002 -0.0616068 -0.0058552)
(0.976771 -0.00780082 -0.0130872)
(0.906194 0.0049546 -0.0458411)
(0.899366 0.00356226 -0.00733343)
(0.88029 0.0147248 0.0310406)
(0.900958 0.0182845 0.0104652)
(1.01126 0.0386889 -0.0662084)
(1.05568 0.0163748 -0.0995418)
(1.00998 -0.0637046 0.0129831)
(1.02666 -0.0495931 0.0551457)
(1.11744 -0.0174871 0.00589738)
(1.10583 -0.0461318 -0.00673482)
(1.04476 -0.0183354 -0.0370991)
(1.05383 0.0254711 -0.0409418)
(1.04195 0.0267607 -0.0398823)
(0.917891 0.0411963 -0.027335)
(0.89071 0.046458 0.00428712)
(0.986805 0.00777935 0.0116791)
(1.0019 -0.0109804 0.0380842)
(0.895779 0.0122651 0.0781475)
(0.863538 0.0185695 0.101605)
(0.952846 -0.00837764 0.0679708)
(1.00268 -0.0340909 -0.0234919)
(0.967447 -0.0196887 -0.0352192)
(0.882891 0.000457262 0.0603768)
(0.85826 -0.0331867 0.0874478)
(0.991505 -0.0593612 0.0121708)
(1.05004 -0.049649 -0.00165603)
(0.789214 -0.0152124 0.0209173)
(0.563894 0.0467474 -0.00673594)
(0.579004 0.0793626 0.0151367)
(0.679655 0.055454 0.0308044)
(0.792885 0.0210716 -0.00959331)
(0.966582 -0.0329029 -0.0221834)
(1.03663 -0.0615368 0.00303829)
(0.989302 -0.0152306 0.0334813)
(0.953794 0.0181371 0.0789585)
(0.881196 0.00367287 0.107336)
(0.842507 -0.030809 0.0650628)
(0.89286 -0.0774677 -0.00460524)
(0.95668 -0.0665807 -0.00499335)
(0.939848 0.00374914 0.00617391)
(0.883691 0.0255683 -0.0221832)
(0.888276 0.00703739 -0.00719664)
(0.883226 0.0203562 0.0295177)
(0.887979 0.0242402 -0.00842855)
(0.987136 0.0293956 -0.0895748)
(1.05829 0.0206699 -0.103403)
(1.05131 -0.0503891 0.00639831)
(1.04328 -0.0659294 0.0420046)
(1.09464 -0.0416452 -0.0275532)
(1.08133 -0.0470609 -0.0329773)
(1.03106 -0.0145052 -0.0376299)
(0.991753 0.0268624 -0.0455921)
(1.00222 0.0347713 -0.0583193)
(0.943953 0.0488055 -0.027788)
(0.923949 0.0466571 0.0198481)
(0.99127 0.0132024 0.0240245)
(0.99766 0.000210039 0.0368497)
(0.873602 0.023532 0.0651355)
(0.802631 0.0236508 0.0671449)
(0.919268 -0.0191262 0.0280537)
(1.06569 -0.0485384 -0.0254309)
(1.03646 -0.0192311 -0.0284488)
(0.971809 0.0050859 0.0142595)
(0.990356 -0.0382785 0.0324001)
(1.04524 -0.0646475 -0.0024821)
(1.05031 -0.0351844 -0.0196958)
(0.84401 0.00200032 0.0156967)
(0.657178 0.0344395 0.00764455)
(0.67984 0.0497023 0.0261602)
(0.756205 0.042188 0.0631274)
(0.843882 0.0216988 0.0367888)
(1.00166 -0.0312698 -0.00952446)
(1.06609 -0.064183 -0.0241429)
(1.0266 -0.0212947 0.0127707)
(0.992452 0.0212243 0.075228)
(0.905955 0.0136209 0.109699)
(0.844868 -0.0225696 0.0840705)
(0.879006 -0.0733188 0.0194832)
(0.927274 -0.0668702 -0.00174949)
(0.90848 0.0143459 0.0166386)
(0.875924 0.0461439 -0.000469001)
(0.890268 0.0161516 -0.00117794)
(0.879178 0.0267703 0.0284455)
(0.872968 0.0321706 -0.0236012)
(0.952018 0.0213302 -0.105565)
(1.0216 0.0140648 -0.101964)
(1.0487 -0.0461001 -0.00479493)
(1.07419 -0.0738892 0.032386)
(1.06588 -0.0574583 -0.0402409)
(1.02328 -0.0480125 -0.052375)
(0.989023 -0.0101618 -0.0315987)
(0.94437 0.0310913 -0.0409303)
(0.992751 0.0355549 -0.0614525)
(0.979638 0.0434173 -0.025933)
(0.942743 0.0419344 0.035859)
(0.970946 0.0187604 0.0465594)
(0.982739 0.0122747 0.0440645)
(0.886131 0.0399783 0.0464462)
(0.815847 0.0352036 0.0300471)
(0.875532 -0.0291727 -0.0121976)
(0.978112 -0.0810879 -0.0574312)
(1.02974 -0.047412 -0.0358183)
(1.08891 -0.00304032 0.00320532)
(1.14311 -0.0338133 -0.00834332)
(1.1115 -0.0578048 -0.0296204)
(1.05308 -0.017892 -0.0305889)
(0.930784 0.0189474 0.00140553)
(0.831668 0.0255267 -0.0051822)
(0.815347 0.0232386 -0.00581293)
(0.824781 0.0271889 0.0465052)
(0.889571 0.0181065 0.0651474)
(1.03253 -0.0319698 0.0188966)
(1.09812 -0.0656975 -0.0369803)
(1.08047 -0.0279342 -0.0121266)
(1.0501 0.0201146 0.0649349)
(0.943984 0.0201672 0.106024)
(0.850087 -0.0183052 0.0929368)
(0.862576 -0.0685112 0.0360508)
(0.899639 -0.0592124 0.000996247)
(0.87699 0.0275945 0.0248908)
(0.865753 0.0628198 0.0235628)
(0.88503 0.0248075 0.00616179)
(0.86682 0.0307766 0.0204991)
(0.863028 0.0383163 -0.0265346)
(0.925293 0.0198777 -0.0975163)
(0.991232 0.0110701 -0.0840223)
(1.02908 -0.0444675 -0.0177327)
(1.07979 -0.0796059 0.0220448)
(1.05115 -0.0621249 -0.0227904)
(0.954291 -0.0438769 -0.059636)
(0.919323 -0.00473283 -0.0378005)
(0.930588 0.0181883 -0.0513501)
(0.996882 0.0213325 -0.0493598)
(0.987281 0.039929 -0.0182256)
(0.95021 0.0433171 0.0294268)
(0.951523 0.0263032 0.0503616)
(0.944586 0.0257663 0.0594509)
(0.893218 0.0478363 0.0438303)
(0.860493 0.0409392 -0.00364513)
(0.896316 -0.0172202 -0.0467854)
(0.931335 -0.0788739 -0.0758503)
(0.950499 -0.0759889 -0.0483782)
(1.05521 -0.0398314 0.0126256)
(1.16191 -0.0471625 0.0073102)
(1.13731 -0.0517729 -0.02739)
(1.05085 -0.00419374 -0.0317133)
(0.970407 0.0276066 -0.0059471)
(0.961507 0.0120027 -0.0123621)
(0.95546 -0.00178688 -0.0346284)
(0.913572 0.0115495 0.01115)
(0.949394 0.0122831 0.0709026)
(1.06494 -0.0329241 0.0475407)
(1.11508 -0.0687558 -0.0252503)
(1.12319 -0.0369843 -0.0237414)
(1.10838 0.0204897 0.0526409)
(0.98249 0.0346293 0.100811)
(0.85696 -0.00934962 0.091511)
(0.845435 -0.0669864 0.040814)
(0.881784 -0.0556799 -0.00559096)
(0.864258 0.0358326 0.0116385)
(0.875262 0.0759032 0.0373946)
(0.892837 0.0388107 0.0268748)
(0.856932 0.0390457 0.0173003)
(0.858282 0.0459155 -0.0252536)
(0.913791 0.0263718 -0.0787913)
(0.984886 0.0157703 -0.0621367)
(1.01311 -0.039338 -0.021571)
(1.04445 -0.0840899 0.0118549)
(1.04301 -0.0627065 -0.00392159)
(0.936988 -0.0322552 -0.0597467)
(0.879713 3.91017e-05 -0.0657327)
(0.926366 0.00148691 -0.0699267)
(0.95972 0.00594257 -0.0451)
(0.959162 0.0369705 -0.0139713)
(0.941843 0.0504748 0.0139246)
(0.916833 0.0411776 0.0298391)
(0.896107 0.0396228 0.0563278)
(0.904011 0.0509712 0.0575437)
(0.906379 0.0436233 -0.00175995)
(0.922303 -0.000497278 -0.0630517)
(0.951135 -0.0537317 -0.0829147)
(0.952439 -0.075384 -0.0557899)
(1.0195 -0.0637727 0.00182265)
(1.11636 -0.0575193 0.0121421)
(1.10868 -0.0493846 -0.0172145)
(1.05226 -0.00562796 -0.036368)
(1.03091 0.0246091 -0.0210232)
(1.06308 0.00432818 -0.0129415)
(1.02995 -0.0190301 -0.034339)
(0.939691 -0.0104716 -0.0154085)
(0.967237 -0.0040358 0.0471447)
(1.09364 -0.033567 0.0453834)
(1.14532 -0.0656786 -0.013961)
(1.12079 -0.0453371 -0.0128629)
(1.06332 0.0164048 0.0633043)
(0.944898 0.0484407 0.11079)
(0.859245 0.00456766 0.0959685)
(0.853205 -0.0620068 0.0404295)
(0.881769 -0.0528707 -0.0188483)
(0.873948 0.0372424 -0.0164208)
(0.888582 0.0832348 0.0387989)
(0.897579 0.052359 0.0607491)
(0.854719 0.0475998 0.0384981)
(0.864066 0.0526704 -0.00793437)
(0.911269 0.0363125 -0.0540996)
(0.971172 0.0276762 -0.0533281)
(1.00882 -0.030083 -0.0255466)
(1.02371 -0.0901339 0.00895703)
(1.02623 -0.0669789 0.006175)
(0.948392 -0.0215149 -0.0577605)
(0.898826 0.00282744 -0.0898231)
(0.945898 7.03075e-05 -0.0867413)
(0.937836 0.00407718 -0.0591621)
(0.922124 0.0356672 -0.0318796)
(0.913582 0.051337 -0.0109937)
(0.902156 0.0475091 0.0103009)
(0.884005 0.0446065 0.049857)
(0.904121 0.0477996 0.0667643)
(0.931318 0.0422653 0.0207805)
(0.942882 0.010671 -0.0457072)
(0.969647 -0.0300755 -0.0790742)
(1.00125 -0.0590575 -0.0635525)
(1.03986 -0.0680142 -0.0193897)
(1.08206 -0.061629 0.00490007)
(1.08133 -0.0515996 -0.00376304)
(1.04832 -0.0221903 -0.0322847)
(1.03789 0.00383176 -0.0372912)
(1.10739 -0.00625576 -0.00503335)
(1.09292 -0.0258122 0.00215333)
(0.963019 -0.0297087 -0.0160928)
(0.963323 -0.0300428 0.00708115)
(1.10307 -0.0450729 0.0213344)
(1.16181 -0.056178 -0.0082312)
(1.0708 -0.0324627 -0.00587774)
(0.941177 0.0245442 0.0501105)
(0.851517 0.0592902 0.101875)
(0.847267 0.0158303 0.104741)
(0.884693 -0.0587922 0.0497001)
(0.9126 -0.0537711 -0.0175586)
(0.887996 0.0313921 -0.0294753)
(0.883675 0.077388 0.029421)
(0.895612 0.0574966 0.0756213)
(0.858978 0.054838 0.0618796)
(0.87192 0.0620837 0.0288668)
(0.922111 0.053836 -0.00914994)
(0.972786 0.0425424 -0.0414678)
(1.01564 -0.0222709 -0.0366657)
(1.01498 -0.0954528 0.00532996)
(1.01565 -0.0745859 0.0159808)
(0.987202 -0.016706 -0.0452409)
(0.952693 0.00722883 -0.0960485)
(0.999317 0.00539669 -0.0874738)
(0.963073 0.00435392 -0.0732082)
(0.915679 0.0282463 -0.0564111)
(0.897497 0.0425777 -0.037404)
(0.901027 0.0417352 -0.00348699)
(0.898149 0.0366412 0.0473581)
(0.917076 0.0365172 0.0746792)
(0.950492 0.0391267 0.0524037)
(0.964678 0.0258883 0.00206473)
(0.984387 -0.00431591 -0.0522627)
(1.05295 -0.0408203 -0.063978)
(1.11125 -0.0573925 -0.0282811)
(1.08844 -0.0514226 -0.00241316)
(1.04686 -0.0487977 -0.00481804)
(1.03708 -0.0363465 -0.0129409)
(1.0086 -0.0158862 -0.0188129)
(1.03883 -0.0131019 0.00200406)
(1.09092 -0.0311209 0.0267482)
(1.04303 -0.059907 0.00676333)
(1.00232 -0.0686485 -0.0151659)
(1.07063 -0.0586917 -0.00986922)
(1.13445 -0.0406212 -0.0116704)
(1.05942 -0.0118536 -0.00567682)
(0.909772 0.0335935 0.0208793)
(0.832086 0.0602307 0.068805)
(0.860983 0.0184769 0.103043)
(0.916683 -0.059305 0.0715994)
(0.955191 -0.0682978 0.00646683)
(0.931574 0.0158861 -0.0255675)
(0.912763 0.0733146 -0.00326649)
(0.928163 0.0656487 0.0367823)
(0.898744 0.0639542 0.0488505)
(0.89383 0.0719852 0.0396459)
(0.930937 0.0706925 0.0124248)
(0.986815 0.0575655 -0.0280945)
(1.03993 -0.00280824 -0.0352507)
(1.0227 -0.0794289 -0.000793856)
(0.996457 -0.0862997 0.016734)
(1.01268 -0.0342591 -0.0223491)
(1.01743 0.00444587 -0.0751381)
(1.02612 0.0131772 -0.060408)
(0.999507 0.0179463 -0.0736096)
(0.930496 0.0303662 -0.0797363)
(0.899323 0.0334242 -0.0660575)
(0.92624 0.0259005 -0.0262419)
(0.958554 0.0115796 0.0287438)
(0.975129 0.00671227 0.0650494)
(0.985042 0.0197839 0.0695445)
(0.989584 0.0268595 0.0541917)
(1.01682 0.011166 0.0120875)
(1.08962 -0.0328957 -0.0231361)
(1.14435 -0.0551558 -0.0159784)
(1.10769 -0.0364041 0.00102255)
(1.03237 -0.032213 -0.00266108)
(1.00523 -0.0320117 -0.00430191)
(0.973645 -0.0196123 0.000991776)
(0.973359 -0.0222757 0.0109219)
(1.04902 -0.0453173 0.0281091)
(1.10133 -0.0864214 0.0145011)
(1.08402 -0.10258 -0.0163938)
(1.06168 -0.0703221 -0.0301311)
(1.06359 -0.0172385 -0.0307889)
(1.06958 0.0186674 -0.00817517)
(1.01645 0.0299806 0.0248861)
(0.951203 0.0327432 0.0641609)
(0.960299 0.00288543 0.098658)
(0.984748 -0.0523892 0.0848033)
(0.994858 -0.0700699 0.0255505)
(0.966454 -0.00656021 -0.0211785)
(0.940189 0.0547195 -0.0218257)
(0.959321 0.0623039 0.010155)
(0.94205 0.0681076 0.0368311)
(0.920956 0.0732795 0.0379098)
(0.926048 0.0657272 0.0113381)
(0.962535 0.0521373 -0.0248571)
(1.03598 0.013022 -0.0286264)
(1.06462 -0.0432862 0.00188844)
(1.02307 -0.0701083 0.0171759)
(0.996948 -0.0504026 -0.00820721)
(1.01138 -0.00891016 -0.0423009)
(0.986306 -0.0222623 -0.0254361)
(0.972639 -0.00202052 -0.0542416)
(0.933984 0.0290509 -0.0813095)
(0.911794 0.0325829 -0.0923378)
(0.943153 0.0102127 -0.0755435)
(0.995643 -0.0150852 -0.0226843)
(1.02536 -0.0193102 0.0360155)
(1.02144 -0.000134192 0.0706754)
(1.0155 0.0101141 0.0762485)
(1.05201 -0.00116159 0.0390323)
(1.1107 -0.0363193 -0.00487459)
(1.12675 -0.054598 -0.00982288)
(1.08909 -0.0300415 0.00264986)
(1.03126 -0.0187054 -0.00915945)
(0.990712 -0.0213159 -0.023342)
(0.958906 -0.0144537 -0.0133239)
(0.95957 -0.0282728 -0.00229318)
(1.01513 -0.0648914 0.0116359)
(1.08462 -0.104912 0.00914407)
(1.09696 -0.114227 -0.0199108)
(1.06472 -0.0705574 -0.0364819)
(1.03639 -0.0110537 -0.029647)
(1.04766 0.0238455 0.00785072)
(1.05864 0.0311631 0.0523638)
(1.02045 0.018095 0.0745948)
(1.01035 -0.014952 0.0740245)
(1.02408 -0.0483034 0.0538849)
(1.01891 -0.0511505 0.0143258)
(0.978618 -0.00463784 -0.0236956)
(0.940937 0.0380031 -0.0309266)
(0.955155 0.0434605 -0.00696568)
(0.95754 0.0548699 0.0235696)
(0.942316 0.0615049 0.0267586)
(0.922856 0.0519757 -9.82524e-05)
(0.923069 0.0389877 -0.0285637)
(0.98027 0.0141476 -0.0290404)
(1.05955 -0.0125861 0.00456647)
(1.08256 -0.0257565 0.0328648)
(1.03963 -0.0363942 0.0219144)
(1.00016 -0.03471 -0.00421528)
(0.972521 -0.0199771 -0.0212476)
(0.912724 -0.0118012 -0.0631665)
(0.893836 0.00406723 -0.0937986)
(0.920679 -0.000178305 -0.113344)
(0.971854 -0.022314 -0.115642)
(1.01003 -0.0401831 -0.0702533)
(1.02872 -0.0383969 0.0137785)
(1.03566 -0.021244 0.0761087)
(1.05329 -0.0134234 0.0880219)
(1.09489 -0.0147554 0.0530378)
(1.11983 -0.0273634 0.00705369)
(1.09207 -0.0390049 -0.0113802)
(1.05629 -0.0275313 -0.0048609)
(1.04697 -0.0162271 -0.00753046)
(1.02937 -0.013742 -0.0219054)
(0.992616 -0.00556739 -0.0207238)
(0.985566 -0.0112602 -0.0241749)
(1.00935 -0.0444719 -0.0328565)
(1.05902 -0.0854959 -0.0305708)
(1.07947 -0.0955734 -0.0330603)
(1.04813 -0.0582135 -0.0307636)
(1.02412 -0.00444552 -0.0176061)
(1.02713 0.0200728 0.00853294)
(1.04861 0.0165722 0.0472114)
(1.0428 0.0064482 0.0737537)
(1.02607 -0.0150442 0.0637676)
(1.02355 -0.0353438 0.0304772)
(1.02473 -0.0340478 -0.00132911)
(1.01694 0.00180163 -0.0178904)
(1.00325 0.034945 -0.0169157)
(0.996641 0.0342625 -0.00998118)
(0.978416 0.0351544 -0.000870492)
(0.958788 0.0413822 -0.001914)
(0.937549 0.0439022 -0.0115386)
(0.923758 0.0372294 -0.015144)
(0.938158 0.0103219 -0.00349472)