/*--------------------------------*- C++ -*----------------------------------*\
  =========                 |
  \\      /  F ield         | OpenFOAM: The Open Source CFD Toolbox
   \\    /   O peration     | Website:  https://openfoam.org
    \\  /    A nd           | Version:  10
     \\/     M anipulation  |
\*---------------------------------------------------------------------------*/
FoamFile
{
    format      ascii;
    class       volVectorField;
    location    "100";
    object      UMean;
}
// * * * * * * * * * * * * * * * * * * * * * * * * * * * * * * * * * * * * * //

dimensions      [0 1 -1 0 0 0 0];

internalField   nonuniform List<vector> 
25600
(
(0.0869678 5.53809e-05 -0.000140876)
(0.0866379 5.50973e-05 0.000238909)
(0.0864765 4.76339e-05 0.000507317)
(0.0864881 3.72878e-05 0.000587059)
(0.0868727 2.87861e-05 0.000614134)
(0.0872402 2.12672e-05 0.000826815)
(0.0877596 1.54681e-05 0.00108124)
(0.0883364 1.2183e-05 0.00119697)
(0.0888608 2.24867e-05 0.00116261)
(0.0885823 3.66632e-05 0.00114937)
(0.0881776 4.50422e-05 0.00114414)
(0.0878805 3.79204e-05 0.0011102)
(0.0879338 2.83446e-05 0.000981343)
(0.0878143 2.2132e-05 0.000824042)
(0.0882829 2.54238e-05 0.000692628)
(0.0881623 2.96453e-05 0.00060771)
(0.0884701 2.8612e-05 0.000514938)
(0.0884687 1.96388e-05 0.000426956)
(0.0891047 7.47622e-06 0.000198361)
(0.0894116 4.22281e-06 7.61497e-06)
(0.0902045 8.48279e-06 -0.000197806)
(0.0904835 8.13703e-06 -0.000283937)
(0.0910734 5.19896e-07 -0.00051316)
(0.0912518 -9.54086e-06 -0.000867221)
(0.0918012 -1.15981e-05 -0.00109892)
(0.0921331 9.64664e-07 -0.000957204)
(0.0925653 1.22974e-05 -0.000630913)
(0.092645 2.0748e-05 -0.000275382)
(0.0928968 2.39369e-05 8.51212e-05)
(0.0925615 2.59178e-05 0.00039805)
(0.0924495 2.99495e-05 0.000479197)
(0.091519 4.01084e-05 0.000528298)
(0.0912916 4.48986e-05 0.000339353)
(0.0902016 4.42085e-05 0.000120933)
(0.0898489 4.40147e-05 6.66941e-06)
(0.0887688 4.92868e-05 0.00013717)
(0.0883961 5.92433e-05 0.000180979)
(0.0875651 5.96454e-05 6.73293e-05)
(0.0875303 4.57287e-05 -0.000219503)
(0.0871433 4.25613e-05 -0.000317243)
(0.260599 0.000404603 -0.000808983)
(0.259945 0.000407593 -0.000270171)
(0.259737 0.000377479 9.28992e-05)
(0.259774 0.000324787 0.000332355)
(0.260547 0.000271117 0.000502368)
(0.261284 0.000211637 0.000946186)
(0.262763 0.000163548 0.00138833)
(0.26412 0.000152185 0.00161435)
(0.265607 0.000196946 0.00155713)
(0.264978 0.000273907 0.00161755)
(0.264491 0.00030861 0.00168219)
(0.263901 0.000291891 0.0017834)
(0.264028 0.00026473 0.00176023)
(0.26346 0.000226347 0.00164135)
(0.26444 0.000198504 0.00137837)
(0.26402 0.000176252 0.00123774)
(0.264997 0.000149406 0.00100443)
(0.265077 0.000124686 0.000799724)
(0.26679 8.25168e-05 0.000339698)
(0.267458 5.94356e-05 -6.34417e-05)
(0.269646 5.0754e-05 -0.000738695)
(0.270797 5.80617e-05 -0.00108658)
(0.272825 3.63466e-05 -0.00154873)
(0.273385 1.61441e-05 -0.00197249)
(0.274979 -1.50287e-05 -0.00237177)
(0.275811 -8.28901e-06 -0.00232391)
(0.277298 1.47162e-05 -0.00194735)
(0.277339 5.29486e-05 -0.00130854)
(0.278106 0.000122571 -0.00057332)
(0.277278 0.000180339 0.000246875)
(0.277311 0.000239951 0.000570163)
(0.274763 0.000274563 0.000796613)
(0.27424 0.000301909 0.000601621)
(0.271072 0.000322451 0.000370781)
(0.269925 0.000325045 0.000123628)
(0.26666 0.000344825 0.000281816)
(0.265646 0.000385066 0.000253522)
(0.263404 0.000423418 5.36498e-05)
(0.263025 0.000407523 -0.000608586)
(0.261246 0.000395825 -0.000940294)
(0.425087 0.000980779 -0.00132062)
(0.4236 0.000960935 -0.000959166)
(0.423728 0.000907837 -0.00098005)
(0.423088 0.000826481 -0.000901775)
(0.423682 0.000708202 -0.000767371)
(0.423714 0.00054484 -0.000320837)
(0.425376 0.000382301 -9.56242e-05)
(0.426773 0.000314992 1.15342e-06)
(0.429101 0.000413651 -3.878e-05)
(0.428581 0.000579695 0.000353811)
(0.429297 0.000666477 0.00081646)
(0.428906 0.000655968 0.0013221)
(0.429406 0.00061983 0.00147907)
(0.428568 0.000551119 0.00153148)
(0.430081 0.000478779 0.00130229)
(0.429547 0.00043494 0.00116281)
(0.430437 0.000341463 0.000888289)
(0.430204 0.000291603 0.000603919)
(0.432978 0.000235067 -0.000144237)
(0.433872 0.000221705 -0.000724018)
(0.436914 0.000197619 -0.00153869)
(0.438039 0.000198733 -0.00195097)
(0.441873 0.000160282 -0.00251753)
(0.44292 0.000117672 -0.00278954)
(0.445898 2.72168e-05 -0.00314227)
(0.446443 1.30172e-05 -0.00321478)
(0.449311 2.79641e-05 -0.00296598)
(0.448783 0.000108609 -0.00238232)
(0.449997 0.000243542 -0.00190007)
(0.448889 0.000387624 -0.00106571)
(0.449438 0.000552901 -0.00060853)
(0.446614 0.000663475 -0.000192852)
(0.446082 0.000742163 -0.00029132)
(0.441895 0.000821391 -0.000218303)
(0.440055 0.000837059 -0.000478666)
(0.435326 0.000852679 -0.000204011)
(0.433658 0.000897972 -0.000205366)
(0.430278 0.000967199 -4.53677e-05)
(0.429929 0.000965934 -0.000700046)
(0.42672 0.00099533 -0.00112773)
(0.559246 0.00157857 -0.00134671)
(0.556283 0.00146313 -0.00127878)
(0.556285 0.00136511 -0.00163176)
(0.554411 0.0013135 -0.00180122)
(0.555235 0.00115418 -0.00196501)
(0.554001 0.000879262 -0.00179119)
(0.555436 0.000618469 -0.00191544)
(0.555909 0.000506102 -0.00195185)
(0.558766 0.000613843 -0.0017652)
(0.558498 0.000845454 -0.000758202)
(0.561149 0.000964742 0.000129737)
(0.561878 0.00102297 0.000829708)
(0.563113 0.00102073 0.000770917)
(0.561981 0.000960542 0.000676455)
(0.563413 0.000876449 0.000402891)
(0.563042 0.000842057 0.000323766)
(0.563552 0.000705365 9.87693e-05)
(0.562945 0.000577026 9.58358e-05)
(0.566355 0.000484262 -0.00078725)
(0.567903 0.000510785 -0.0014902)
(0.570401 0.000524629 -0.00211382)
(0.570738 0.000541637 -0.00218071)
(0.574348 0.000467415 -0.00258066)
(0.575907 0.00041199 -0.00260624)
(0.578897 0.000307906 -0.00262577)
(0.578934 0.000267197 -0.00252497)
(0.581882 0.00027613 -0.0026039)
(0.581638 0.000377611 -0.00239679)
(0.583735 0.000492731 -0.00263042)
(0.582393 0.000688521 -0.00242852)
(0.583359 0.000927606 -0.00231968)
(0.580732 0.00113248 -0.0019121)
(0.581451 0.00127994 -0.0017951)
(0.578114 0.00141652 -0.00121626)
(0.57701 0.00147248 -0.00125081)
(0.571939 0.001531 -0.000892285)
(0.569366 0.00155625 -0.000808398)
(0.565222 0.0015854 -0.000341755)
(0.56492 0.00155773 -0.00052179)
(0.560985 0.00163967 -0.000880837)
(0.656625 0.0020591 -0.00103536)
(0.652878 0.00185965 -0.00111059)
(0.6522 0.00167526 -0.00114476)
(0.649947 0.00161069 -0.00103987)
(0.651684 0.00139409 -0.00113254)
(0.650678 0.00109904 -0.0011151)
(0.652514 0.000755669 -0.00136111)
(0.652368 0.00061626 -0.00148839)
(0.655286 0.000775463 -0.00130108)
(0.655345 0.00106167 -0.000391854)
(0.659234 0.00116428 0.000332735)
(0.660521 0.00130317 0.000746836)
(0.663346 0.00137852 0.000495572)
(0.661357 0.00137839 0.000128014)
(0.662525 0.00131252 -0.000422317)
(0.660753 0.00128282 -0.000695936)
(0.66164 0.00105502 -0.000640686)
(0.660366 0.000851675 -0.000365162)
(0.663477 0.000737934 -0.000942057)
(0.664254 0.00085594 -0.00160878)
(0.666866 0.000948739 -0.00198999)
(0.665448 0.00101682 -0.00178286)
(0.668618 0.000924609 -0.00195368)
(0.668614 0.000881283 -0.00166214)
(0.671268 0.000843615 -0.00131537)
(0.669802 0.000828297 -0.00100962)
(0.673069 0.000823389 -0.00116823)
(0.672685 0.000887351 -0.00135605)
(0.675679 0.00092992 -0.00205949)
(0.674232 0.00109516 -0.00244496)
(0.676147 0.00133136 -0.00273781)
(0.673502 0.00157679 -0.00250645)
(0.675314 0.00173731 -0.00227444)
(0.673125 0.00198114 -0.00123334)
(0.67306 0.00208194 -0.00102741)
(0.669344 0.00226985 -0.000487823)
(0.666868 0.0022595 -0.000273319)
(0.662497 0.00219408 0.000160802)
(0.662015 0.00207574 7.02478e-05)
(0.658051 0.00218094 -0.000435125)
(0.725483 0.00242974 0.000467057)
(0.722057 0.00218894 0.00069726)
(0.720907 0.00188033 0.000932052)
(0.719054 0.00164751 0.00140575)
(0.721257 0.0013542 0.00183226)
(0.721294 0.00106323 0.00227031)
(0.723721 0.000741707 0.00205102)
(0.723446 0.000663469 0.00146044)
(0.726098 0.000844584 0.000762254)
(0.726038 0.00112384 0.000487385)
(0.729681 0.00117324 0.000604146)
(0.730691 0.00137265 0.000661093)
(0.733556 0.00154037 0.000450347)
(0.732115 0.00162653 0.000154782)
(0.733115 0.00156702 -0.000523955)
(0.73212 0.00155205 -0.000823627)
(0.73338 0.0013248 -0.000759124)
(0.731305 0.00113153 -0.000409217)
(0.732879 0.0010251 -0.000449263)
(0.73209 0.0011922 -0.00101603)
(0.734816 0.00136557 -0.00134153)
(0.733315 0.00151366 -0.00135921)
(0.735148 0.00142367 -0.0014593)
(0.734179 0.00146098 -0.00112047)
(0.735756 0.0015294 -0.00061516)
(0.733551 0.00157042 -0.000218914)
(0.735754 0.00148 -0.00016164)
(0.735054 0.0014506 -0.000186731)
(0.73709 0.00141309 -0.000728309)
(0.736013 0.00150868 -0.00106064)
(0.737443 0.0016947 -0.00153115)
(0.735829 0.00191531 -0.0012935)
(0.737798 0.00203599 -0.00116726)
(0.736878 0.00237277 -0.000139934)
(0.737601 0.00253581 3.72894e-05)
(0.735566 0.00280767 0.000728385)
(0.734292 0.0028366 0.00109696)
(0.730762 0.00271757 0.00153622)
(0.730186 0.00247563 0.00141948)
(0.726894 0.00255734 0.00111724)
(0.775379 0.0025154 0.00198284)
(0.773457 0.00228521 0.00230733)
(0.773174 0.00189106 0.00239507)
(0.771441 0.00149536 0.00281773)
(0.772875 0.00105476 0.00353633)
(0.773063 0.000841985 0.00442024)
(0.775319 0.000666703 0.0045119)
(0.775203 0.000739546 0.00380215)
(0.776823 0.000972022 0.00232808)
(0.776693 0.00122318 0.00112933)
(0.778647 0.00113264 0.000485306)
(0.778334 0.00128075 0.000383939)
(0.781056 0.00146488 0.000367804)
(0.781453 0.00159754 0.000250625)
(0.783694 0.00157587 4.78459e-06)
(0.784188 0.0015879 -8.40322e-05)
(0.786212 0.00154659 -0.00017252)
(0.78354 0.00152425 0.000219982)
(0.783435 0.00148072 0.000344013)
(0.781079 0.00152624 1.66887e-06)
(0.783403 0.00166078 -0.000145036)
(0.782144 0.00182161 8.93457e-05)
(0.784215 0.0017587 0.000181007)
(0.7822 0.00187488 0.000298341)
(0.783758 0.00213198 0.000224447)
(0.780797 0.00228615 0.000242628)
(0.782523 0.00216422 0.000213196)
(0.779538 0.00205494 0.000471588)
(0.780833 0.00191612 0.000546854)
(0.778906 0.001945 0.00054898)
(0.780771 0.002057 0.000381983)
(0.779198 0.00225729 0.000555767)
(0.781019 0.00239906 0.000722547)
(0.780183 0.00274588 0.00112025)
(0.782035 0.00287188 0.00115292)
(0.780202 0.00307929 0.0014228)
(0.78065 0.00309557 0.00186456)
(0.778518 0.00294936 0.00204736)
(0.778356 0.00261828 0.00195126)
(0.775639 0.00267582 0.00211872)
(0.813423 0.00222502 0.00223535)
(0.813167 0.00194513 0.00251027)
(0.814068 0.00164049 0.00250442)
(0.813352 0.00133445 0.00267234)
(0.8131 0.00089723 0.00290276)
(0.812275 0.000748057 0.00314599)
(0.814032 0.0006588 0.00288415)
(0.813843 0.000830757 0.00222842)
(0.815206 0.00111024 0.00108076)
(0.815111 0.00137263 -4.75984e-07)
(0.817149 0.00132555 -0.000682715)
(0.816198 0.00139784 -0.000580443)
(0.818876 0.00146968 -0.000494719)
(0.819238 0.00160164 -0.00027818)
(0.821819 0.00161004 -5.53142e-05)
(0.821833 0.0016625 0.000380049)
(0.823656 0.00175606 0.000405362)
(0.821505 0.0018657 0.000961464)
(0.821619 0.00185646 0.00118927)
(0.818964 0.00183781 0.00110228)
(0.8202 0.00188145 0.00103869)
(0.818821 0.00197039 0.0015571)
(0.82063 0.00190006 0.00210823)
(0.819106 0.00200029 0.00206639)
(0.8206 0.0023926 0.00152485)
(0.817848 0.00274017 0.00115081)
(0.818649 0.00279504 0.000928635)
(0.81555 0.00281614 0.00120445)
(0.815409 0.00267242 0.00145975)
(0.813322 0.00260548 0.00174151)
(0.814475 0.00255154 0.00157586)
(0.813863 0.00265098 0.00162368)
(0.814877 0.00273994 0.00171949)
(0.814867 0.00301808 0.00180459)
(0.81577 0.00316746 0.00159389)
(0.815225 0.00334141 0.00162346)
(0.815939 0.00327806 0.00173612)
(0.815189 0.0030752 0.00182481)
(0.815247 0.00263336 0.00176105)
(0.813497 0.00255054 0.00213939)
(0.846593 0.00207529 0.000775587)
(0.845897 0.00165729 0.000946383)
(0.846911 0.00134895 0.000969109)
(0.846057 0.0011643 0.00102881)
(0.84572 0.00086625 0.000949609)
(0.843582 0.000695916 0.000690433)
(0.844649 0.00059717 0.000122726)
(0.844153 0.000825715 -0.000368445)
(0.846028 0.00111732 -0.00109593)
(0.845874 0.001311 -0.00167329)
(0.848528 0.00132128 -0.00211625)
(0.847995 0.00137961 -0.00197545)
(0.850538 0.00140019 -0.00161208)
(0.84984 0.00155559 -0.00119507)
(0.851301 0.00168158 -0.000501484)
(0.849748 0.00187752 0.000473903)
(0.851086 0.00211406 0.000834907)
(0.849575 0.00224937 0.00139773)
(0.850561 0.00222248 0.00172185)
(0.848839 0.00218969 0.00185397)
(0.849749 0.00227595 0.00169096)
(0.848229 0.00241656 0.00197121)
(0.848694 0.00234451 0.00245863)
(0.847673 0.0024416 0.00253382)
(0.849005 0.00280813 0.00204095)
(0.848072 0.00320514 0.0019249)
(0.848446 0.00330515 0.00196723)
(0.846713 0.00345406 0.00228712)
(0.846182 0.00338176 0.00256592)
(0.843767 0.00333777 0.00272818)
(0.843939 0.00316615 0.00251353)
(0.843708 0.00319214 0.0024987)
(0.844599 0.00308569 0.00248372)
(0.844659 0.00312008 0.00232652)
(0.845856 0.00316917 0.00178061)
(0.845688 0.00335151 0.0013443)
(0.846281 0.00325687 0.000870946)
(0.846517 0.00306367 0.00059779)
(0.847538 0.00264562 0.000442783)
(0.846053 0.00251024 0.000756723)
(0.872256 0.00180164 -0.000988174)
(0.87107 0.0014701 -0.00102522)
(0.871298 0.0011161 -0.000845133)
(0.869925 0.00104764 -0.000692802)
(0.869949 0.000841518 -0.000630444)
(0.867172 0.000628506 -0.000551729)
(0.867343 0.000448128 -0.000533016)
(0.866775 0.000605628 -0.000613999)
(0.869145 0.000874406 -0.00102759)
(0.86954 0.00106236 -0.00166889)
(0.872071 0.00106917 -0.00238098)
(0.871903 0.0011139 -0.00280691)
(0.874096 0.0011818 -0.00268295)
(0.873061 0.00139401 -0.00235342)
(0.874159 0.00163186 -0.00182566)
(0.872367 0.00193354 -0.000750045)
(0.872782 0.00218571 8.25654e-05)
(0.871386 0.00226472 0.00079962)
(0.872841 0.00218509 0.00131401)
(0.871519 0.002156 0.00165606)
(0.872425 0.00222274 0.00162132)
(0.87118 0.00251104 0.00165075)
(0.871404 0.00260536 0.00172189)
(0.870125 0.0026952 0.00185406)
(0.870535 0.00293382 0.0015124)
(0.870492 0.00325662 0.00155306)
(0.871376 0.00338745 0.00188537)
(0.870559 0.00351511 0.00227252)
(0.870687 0.00346957 0.00256381)
(0.86816 0.00343893 0.00309532)
(0.867069 0.00323177 0.00349825)
(0.86619 0.00326855 0.00406718)
(0.867558 0.00320562 0.00443989)
(0.867798 0.00312312 0.00430307)
(0.869577 0.00296841 0.00336014)
(0.870062 0.00300829 0.0021636)
(0.871083 0.00278709 0.00102543)
(0.871182 0.00250836 9.95191e-05)
(0.872769 0.00220416 -0.000591552)
(0.871548 0.00214453 -0.000808054)
(0.889233 0.00144066 -0.00087092)
(0.888414 0.00113416 -0.00112428)
(0.888219 0.000854477 -0.00100446)
(0.886899 0.000886632 -0.00081268)
(0.886835 0.000916455 -0.000592237)
(0.885008 0.000845389 -0.000211172)
(0.88479 0.000619091 0.000263297)
(0.884052 0.000618867 0.000532207)
(0.885374 0.000715399 0.000555224)
(0.885857 0.000794928 0.000116869)
(0.887821 0.000752246 -0.00064972)
(0.888309 0.000861438 -0.00137517)
(0.890493 0.000980729 -0.00161196)
(0.890598 0.00119303 -0.00164108)
(0.891741 0.00137481 -0.00162185)
(0.890949 0.00170728 -0.0011098)
(0.890767 0.00190699 -0.000208467)
(0.889601 0.00192104 0.000776528)
(0.890707 0.00185864 0.00152833)
(0.890045 0.00190894 0.00217045)
(0.890529 0.00196686 0.002375)
(0.890406 0.00232291 0.00216244)
(0.891531 0.00252171 0.00200966)
(0.891055 0.0026978 0.00205109)
(0.89056 0.00291657 0.00183904)
(0.888805 0.00322724 0.0016948)
(0.888551 0.00338671 0.00191204)
(0.887758 0.00358998 0.00207956)
(0.888308 0.00357978 0.00202783)
(0.887298 0.00363223 0.00234918)
(0.886449 0.00340846 0.00248769)
(0.88541 0.00325005 0.00280797)
(0.886508 0.00304856 0.00337708)
(0.886951 0.00292572 0.00367462)
(0.888368 0.00274529 0.00324436)
(0.888827 0.00279614 0.00229967)
(0.889625 0.00260383 0.00126787)
(0.889203 0.00229509 0.000459257)
(0.88989 0.00199683 -0.000204329)
(0.888864 0.00185345 -0.00059568)
(0.903123 0.00178713 -0.000129641)
(0.902645 0.00145307 -0.000205637)
(0.902655 0.00116921 -0.000332309)
(0.902025 0.00118864 -0.000388565)
(0.902055 0.00132482 -0.000357257)
(0.900727 0.0014385 1.95981e-05)
(0.900389 0.00130247 0.000648292)
(0.899383 0.00114596 0.001182)
(0.899034 0.00101788 0.00153182)
(0.898281 0.000865736 0.00159973)
(0.898957 0.000622048 0.000911157)
(0.899132 0.000529274 -8.34803e-05)
(0.900994 0.000505829 -0.000919692)
(0.902061 0.00067539 -0.00114524)
(0.903216 0.000830329 -0.00102711)
(0.903514 0.00113954 -0.000813093)
(0.904282 0.00137222 -0.00027534)
(0.904245 0.00145877 0.000610662)
(0.905408 0.00142751 0.00120408)
(0.905622 0.00151204 0.00180482)
(0.905998 0.00153252 0.00219668)
(0.906208 0.0018029 0.00217296)
(0.907364 0.00204068 0.00201658)
(0.907509 0.00234137 0.00206695)
(0.907621 0.00260161 0.0018215)
(0.906543 0.00292997 0.00166087)
(0.905695 0.00308347 0.00174507)
(0.904736 0.00338488 0.00188903)
(0.904569 0.00349375 0.00161092)
(0.904049 0.00367439 0.00146602)
(0.903685 0.00364096 0.00102073)
(0.902648 0.00343791 0.000677367)
(0.902644 0.00306636 0.000671249)
(0.902151 0.00281066 0.000909814)
(0.902167 0.00254794 0.000972471)
(0.902026 0.00258059 0.000843058)
(0.902527 0.00253767 0.000457122)
(0.90239 0.00246184 0.000301817)
(0.903047 0.00233253 -1.41879e-05)
(0.902799 0.00223711 -0.000147316)
(0.913834 0.00213188 -0.000778633)
(0.913867 0.00194719 -0.000633434)
(0.914359 0.00167792 -0.000762056)
(0.914393 0.00151356 -0.000965128)
(0.9149 0.0015211 -0.00111171)
(0.914402 0.00161926 -0.000747131)
(0.914278 0.0015225 -0.000150056)
(0.913797 0.00140638 0.000534121)
(0.913349 0.00124569 0.00121722)
(0.912042 0.00111499 0.00191401)
(0.911386 0.000812151 0.00197659)
(0.910599 0.00055134 0.00127671)
(0.911342 0.000320464 0.000174917)
(0.91222 0.000452976 -0.000471053)
(0.913293 0.000609911 -0.000617968)
(0.914152 0.000858769 -0.000672394)
(0.91585 0.000976425 -0.000796473)
(0.916907 0.00103169 -0.00065386)
(0.918394 0.000956054 -0.000665003)
(0.918896 0.0010948 -0.000417219)
(0.91908 0.00114024 -0.000163985)
(0.918443 0.00131828 -0.000161221)
(0.918555 0.00153096 -0.000355355)
(0.918496 0.00190048 -0.00036884)
(0.919058 0.00216119 -0.000615322)
(0.919313 0.0024106 -0.000699746)
(0.919431 0.00246907 -0.000468842)
(0.919112 0.00272899 0.000144371)
(0.91882 0.00287641 0.000457395)
(0.918207 0.00308573 0.00058564)
(0.918141 0.00322547 0.000357999)
(0.917313 0.00331326 6.21793e-05)
(0.91653 0.00312162 -0.000161274)
(0.914976 0.00301143 -0.00025859)
(0.913643 0.00274749 -0.000366234)
(0.912262 0.00256219 -0.000403356)
(0.911885 0.00236362 -0.000560553)
(0.911549 0.00229029 -0.000450305)
(0.912466 0.00227824 -0.00061762)
(0.913096 0.00235044 -0.000783754)
(0.923182 0.00168367 -0.00118547)
(0.923053 0.00160698 -0.000995376)
(0.923428 0.0014584 -0.000848724)
(0.923635 0.00135668 -0.000876156)
(0.923986 0.00138372 -0.00111589)
(0.923934 0.00156385 -0.00115537)
(0.924057 0.00157015 -0.00101715)
(0.924261 0.00158023 -0.00070082)
(0.924853 0.0015116 -0.000230143)
(0.924726 0.00150513 0.000541453)
(0.924309 0.00132384 0.00116721)
(0.923751 0.00109777 0.00141255)
(0.923903 0.000771051 0.0010382)
(0.924219 0.000744673 0.000606755)
(0.92475 0.000814208 0.000280403)
(0.925508 0.000965907 -8.9427e-05)
(0.927092 0.000947391 -0.000790076)
(0.928247 0.000945011 -0.00146092)
(0.929514 0.000842376 -0.0022547)
(0.930086 0.000991129 -0.00257459)
(0.930335 0.00108876 -0.0023479)
(0.929575 0.00125607 -0.00206964)
(0.929026 0.00134501 -0.00204203)
(0.928517 0.00163048 -0.00214407)
(0.928487 0.00182399 -0.00239697)
(0.928458 0.00201424 -0.00248478)
(0.928653 0.00205277 -0.00251618)
(0.928504 0.00231749 -0.00224468)
(0.928441 0.00246085 -0.00186314)
(0.927926 0.00254244 -0.00139095)
(0.928072 0.00260228 -0.0010882)
(0.927966 0.00275347 -0.000884755)
(0.92792 0.00274048 -0.000723687)
(0.926914 0.00286794 -0.000570847)
(0.925915 0.00279064 -0.00061312)
(0.924574 0.00260828 -0.000578174)
(0.92362 0.00229135 -0.000646594)
(0.922464 0.00204904 -0.000630825)
(0.922513 0.00183287 -0.000857442)
(0.922761 0.00184695 -0.0011138)
(0.934585 0.00168099 -0.000892593)
(0.934106 0.00151876 -0.000806608)
(0.933927 0.00122489 -0.000601081)
(0.933869 0.00101556 -0.000627778)
(0.933911 0.000881216 -0.00101865)
(0.933735 0.000957583 -0.0015315)
(0.933759 0.000954709 -0.00191534)
(0.933788 0.00100109 -0.00216533)
(0.934426 0.00101978 -0.00222344)
(0.934797 0.00121325 -0.00186998)
(0.934945 0.00126908 -0.00129273)
(0.934937 0.00119228 -0.000854442)
(0.935439 0.000946669 -0.000685889)
(0.935751 0.000915362 -0.000684014)
(0.935952 0.000941932 -0.000655515)
(0.936167 0.00104936 -0.00074053)
(0.936981 0.00107316 -0.00116278)
(0.937254 0.00113849 -0.00165083)
(0.937747 0.00101062 -0.00225783)
(0.93797 0.00101992 -0.00284469)
(0.938467 0.00102724 -0.00284152)
(0.938268 0.00119851 -0.00254708)
(0.938182 0.00128295 -0.00223006)
(0.937981 0.00151549 -0.00212753)
(0.938122 0.0016672 -0.00219934)
(0.937703 0.00172702 -0.00228391)
(0.937343 0.00168375 -0.0023412)
(0.936709 0.00189776 -0.00246387)
(0.936634 0.002018 -0.00249745)
(0.936257 0.00203304 -0.0023224)
(0.936429 0.00194571 -0.00197221)
(0.936508 0.00198319 -0.00165861)
(0.936879 0.00193426 -0.00137978)
(0.936452 0.00208544 -0.00104771)
(0.936089 0.00212644 -0.0008617)
(0.935678 0.00213482 -0.000676961)
(0.935338 0.00209576 -0.000414335)
(0.93464 0.00208316 -0.000211126)
(0.934597 0.00190292 -0.000380717)
(0.934499 0.00185074 -0.000726088)
(0.944386 0.00162571 -6.9326e-05)
(0.94416 0.00151052 -0.000200994)
(0.943722 0.00124261 -0.000156874)
(0.943117 0.00100982 -0.00020041)
(0.942916 0.000808773 -0.000458331)
(0.942469 0.00074293 -0.000975827)
(0.9424 0.000660311 -0.00145124)
(0.94217 0.000676495 -0.00190369)
(0.942534 0.00070811 -0.00226495)
(0.942647 0.000960819 -0.00238596)
(0.942953 0.00121438 -0.00209868)
(0.943097 0.0013306 -0.00184847)
(0.943688 0.00124748 -0.00165902)
(0.944339 0.00126464 -0.0015854)
(0.944977 0.00133224 -0.00141656)
(0.945285 0.00145166 -0.00120441)
(0.945791 0.00153493 -0.00115595)
(0.945723 0.00167076 -0.00124219)
(0.945774 0.00163189 -0.00141091)
(0.94563 0.00160564 -0.00183498)
(0.945605 0.0014835 -0.00204515)
(0.945216 0.00149886 -0.00201111)
(0.945058 0.00149727 -0.00177147)
(0.94478 0.00160127 -0.00155957)
(0.94511 0.0017363 -0.00136459)
(0.945309 0.00182812 -0.00129453)
(0.945274 0.00179966 -0.00122642)
(0.944795 0.00191644 -0.00126334)
(0.944831 0.00191736 -0.00136428)
(0.944962 0.00180105 -0.00151101)
(0.94532 0.00160406 -0.00140331)
(0.945722 0.0014879 -0.00126508)
(0.946321 0.00130359 -0.00116686)
(0.94633 0.00132141 -0.00100194)
(0.945883 0.00132642 -0.000801865)
(0.945283 0.00134333 -0.000701211)
(0.944882 0.0013994 -0.000408764)
(0.944296 0.00156952 -5.15547e-05)
(0.944303 0.00161122 0.000160186)
(0.944145 0.00170083 4.56214e-05)
(0.954603 0.000863059 0.000371942)
(0.954423 0.000775635 0.000180149)
(0.954281 0.000594688 1.05178e-05)
(0.953685 0.00043836 -0.00012903)
(0.953328 0.000276248 -0.000222514)
(0.9527 0.000197661 -0.00042778)
(0.952432 8.96767e-05 -0.000599812)
(0.951957 7.23525e-05 -0.000710205)
(0.951813 0.000111921 -0.000742857)
(0.951447 0.000358265 -0.000791342)
(0.951429 0.000678372 -0.000627482)
(0.951304 0.000995757 -0.000513265)
(0.95137 0.00113447 -0.000355513)
(0.951601 0.00117221 -0.000297002)
(0.952182 0.00119028 -0.000160853)
(0.952675 0.00123284 0.000112418)
(0.953428 0.00122441 0.000483423)
(0.953653 0.00137753 0.000798476)
(0.953968 0.00145033 0.00100856)
(0.95408 0.00149756 0.000772004)
(0.953995 0.00144727 0.000517184)
(0.953469 0.00144443 0.000303886)
(0.953134 0.00139517 0.00024479)
(0.952473 0.00135296 0.000211621)
(0.952207 0.00133845 0.000251845)
(0.952349 0.00140025 0.000243188)
(0.95285 0.00141042 0.000222774)
(0.952869 0.00144918 9.04233e-05)
(0.953094 0.00133374 -7.99898e-05)
(0.953297 0.00120003 -0.000323248)
(0.953764 0.001033 -0.000419553)
(0.954256 0.000942842 -0.000420075)
(0.955164 0.000772069 -0.000399575)
(0.955733 0.000776357 -0.000380969)
(0.956163 0.000828399 -0.000354122)
(0.956046 0.00086585 -0.000443073)
(0.955959 0.000819725 -0.000356738)
(0.95526 0.000849517 -0.000155982)
(0.955063 0.000847018 0.00014901)
(0.954647 0.000913081 0.000308095)
(0.965567 0.000785278 0.000545781)
(0.96554 0.000797391 0.000523481)
(0.965827 0.000724814 0.000407709)
(0.96571 0.000610858 0.000266898)
(0.965725 0.000451278 0.000213975)
(0.965419 0.000355868 0.000123635)
(0.965383 0.000261243 3.73748e-05)
(0.964918 0.000191842 5.47449e-05)
(0.964656 0.000127898 0.000315296)
(0.964093 0.000187293 0.000566918)
(0.963794 0.000289732 0.000790608)
(0.963193 0.000540626 0.000844373)
(0.962629 0.000765039 0.0008889)
(0.961974 0.000861941 0.000968652)
(0.961732 0.000828934 0.00112238)
(0.961431 0.00077293 0.00136528)
(0.961782 0.000647546 0.00168956)
(0.961892 0.00068309 0.00204839)
(0.962259 0.000714186 0.00245629)
(0.9624 0.000694051 0.00257207)
(0.962625 0.000697365 0.00261114)
(0.962521 0.000767068 0.00263051)
(0.962683 0.000787772 0.00259331)
(0.962511 0.000760596 0.00251191)
(0.962715 0.000707677 0.00237612)
(0.962785 0.000707261 0.00221192)
(0.963473 0.000706937 0.00211869)
(0.963747 0.00072894 0.00195897)
(0.964087 0.000598803 0.00176143)
(0.964056 0.000465046 0.00143926)
(0.964192 0.00033168 0.00118312)
(0.964108 0.000287831 0.00103743)
(0.964492 0.000174616 0.000971612)
(0.964742 0.000177 0.000874448)
(0.965175 0.00024647 0.000781327)
(0.965203 0.000374512 0.000591696)
(0.965512 0.00045645 0.000447415)
(0.965377 0.000574 0.00031941)
(0.965505 0.000630823 0.000383532)
(0.965501 0.000730796 0.000448551)
(0.975115 0.000626884 0.00102285)
(0.975333 0.000625403 0.000954485)
(0.975952 0.000533832 0.000810832)
(0.976268 0.000402681 0.000644764)
(0.97681 0.000248604 0.000530485)
(0.977 0.000131701 0.000417849)
(0.977447 -2.92718e-06 0.000271389)
(0.977482 -0.000137338 0.000181218)
(0.977713 -0.000275633 0.000326531)
(0.977666 -0.000346653 0.000595661)
(0.977708 -0.000453484 0.000879483)
(0.977185 -0.000459336 0.00103006)
(0.976592 -0.000385644 0.00111778)
(0.975657 -0.000355971 0.00116737)
(0.974961 -0.000420763 0.00117942)
(0.973936 -0.00047961 0.00127614)
(0.973362 -0.000572681 0.00141749)
(0.972662 -0.000549684 0.00154485)
(0.972538 -0.00045056 0.00180293)
(0.972339 -0.000370464 0.00204677)
(0.972374 -0.000286656 0.00233832)
(0.972189 -0.000192917 0.00257505)
(0.972405 -0.000154273 0.002614)
(0.972508 -0.00012209 0.00259906)
(0.973081 -0.000111725 0.00251924)
(0.973305 -6.5311e-05 0.00237109)
(0.97384 9.39463e-06 0.00232605)
(0.97414 0.000114799 0.00233563)
(0.974647 9.8302e-05 0.00232182)
(0.974872 6.21316e-06 0.00219245)
(0.975206 -9.40816e-05 0.0019929)
(0.975097 -0.000122605 0.00177993)
(0.975256 -0.000206129 0.00167563)
(0.975031 -0.000239118 0.00159498)
(0.975008 -0.000222765 0.00155401)
(0.974542 -7.98966e-05 0.00151536)
(0.974477 9.7454e-05 0.00144339)
(0.974388 0.000321003 0.00127404)
(0.974659 0.00046813 0.00117895)
(0.974781 0.000570417 0.00107387)
(0.985094 0.000171389 0.00072822)
(0.985014 0.000160559 0.000648002)
(0.985393 5.32134e-05 0.000445255)
(0.985678 -8.88238e-05 0.000188196)
(0.986292 -0.000246549 -2.53925e-05)
(0.986635 -0.000380693 -0.000252407)
(0.987233 -0.000524603 -0.000488841)
(0.987509 -0.00065385 -0.000713988)
(0.987898 -0.000790689 -0.000794343)
(0.988037 -0.000913665 -0.000706491)
(0.988319 -0.00109953 -0.000464794)
(0.988078 -0.00121988 -0.000285524)
(0.987897 -0.00124746 -0.000105217)
(0.987383 -0.00126565 0.000113705)
(0.987059 -0.00132684 0.000238536)
(0.986348 -0.00135492 0.000339608)
(0.985917 -0.00140437 0.00046841)
(0.985254 -0.00139485 0.000521866)
(0.984967 -0.00128174 0.000626585)
(0.98458 -0.00110384 0.000726873)
(0.984451 -0.000939784 0.000903278)
(0.983958 -0.000785085 0.00107915)
(0.983641 -0.000708282 0.00109515)
(0.983268 -0.000666671 0.00107977)
(0.98343 -0.000671302 0.00110925)
(0.983331 -0.00061681 0.0010288)
(0.983421 -0.00050559 0.000939332)
(0.983305 -0.000288999 0.000899754)
(0.983486 -0.000143183 0.000897265)
(0.983625 -9.99478e-05 0.000864889)
(0.984062 -0.000146014 0.000842476)
(0.984191 -0.000175377 0.000764218)
(0.984687 -0.000227105 0.000765391)
(0.984797 -0.000248067 0.00081727)
(0.985077 -0.000280728 0.000935973)
(0.984937 -0.000174254 0.00107161)
(0.984986 -3.81121e-05 0.00113478)
(0.984881 8.94019e-05 0.00102901)
(0.985083 0.000163183 0.00093291)
(0.985008 0.000185934 0.000789954)
(0.995791 0.000340391 -0.000612989)
(0.995572 0.000375399 -0.000446919)
(0.995662 0.000324148 -0.00032931)
(0.995765 0.000230692 -0.000300972)
(0.996131 0.000111798 -0.00024379)
(0.996298 1.95066e-05 -0.00024906)
(0.996734 -0.000110195 -0.000303329)
(0.997005 -0.000222527 -0.00040193)
(0.997314 -0.000339673 -0.000478562)
(0.997415 -0.000451708 -0.000491508)
(0.997686 -0.000624414 -0.000353824)
(0.997645 -0.000739924 -0.000198632)
(0.99775 -0.000817901 -4.67779e-05)
(0.997646 -0.000876391 0.000122479)
(0.997785 -0.000983985 0.000224794)
(0.997665 -0.00103855 0.000270919)
(0.997717 -0.00108232 0.000306325)
(0.99754 -0.00109432 0.000251567)
(0.997485 -0.00104964 0.000215576)
(0.997221 -0.000884567 0.000169976)
(0.997183 -0.000713525 0.000177665)
(0.996898 -0.000530159 0.000232071)
(0.996692 -0.000422167 0.000180066)
(0.996205 -0.000344033 5.11026e-05)
(0.996009 -0.000323481 -3.41693e-05)
(0.99561 -0.000252094 -0.00017628)
(0.995368 -0.000155327 -0.000361116)
(0.994942 1.25343e-05 -0.000484248)
(0.994682 0.000153404 -0.000512684)
(0.994411 0.000218899 -0.000548608)
(0.994471 0.000200871 -0.000583241)
(0.994318 0.000180005 -0.000671004)
(0.994595 0.00014064 -0.000717567)
(0.994741 0.00012231 -0.000720488)
(0.99512 5.01708e-05 -0.000683428)
(0.995223 6.10984e-05 -0.000606221)
(0.995413 0.000137737 -0.000527992)
(0.995413 0.000215023 -0.00059379)
(0.995644 0.00028128 -0.000638192)
(0.99569 0.000329258 -0.000676296)
(1.00552 0.000158308 -0.00215796)
(1.00529 0.000255081 -0.00200121)
(1.00529 0.00027426 -0.0017755)
(1.00522 0.000230696 -0.00161223)
(1.00531 0.000157701 -0.00138691)
(1.00516 0.000130601 -0.0011728)
(1.00527 7.70558e-05 -0.0010357)
(1.00535 2.04802e-05 -0.000989489)
(1.00557 -2.69031e-05 -0.000971743)
(1.00562 -6.64932e-05 -0.000970079)
(1.00586 -0.000149833 -0.000902805)
(1.00588 -0.000192014 -0.000791551)
(1.00609 -0.000251294 -0.000668572)
(1.00616 -0.000308026 -0.000568264)
(1.00644 -0.000408014 -0.000498638)