/*--------------------------------*- C++ -*----------------------------------*\
  =========                 |
  \\      /  F ield         | OpenFOAM: The Open Source CFD Toolbox
   \\    /   O peration     | Website:  https://openfoam.org
    \\  /    A nd           | Version:  10
     \\/     M anipulation  |
\*---------------------------------------------------------------------------*/
FoamFile
{
    format      ascii;
    class       surfaceScalarField;
    location    "13";
    object      phi;
}
// * * * * * * * * * * * * * * * * * * * * * * * * * * * * * * * * * * * * * //

dimensions      [0 3 -1 0 0 0 0];

internalField   nonuniform List<scalar> 
74080
(
3.23245e-05
-1.6685e-05
5.36692e-05
2.50335e-05
-2.20705e-05
7.40806e-05
2.98296e-05
1.47934e-05
3.03083e-05
4.65478e-05
2.65972e-05
1.09556e-06
6.55173e-05
-3.4368e-06
-1.07934e-05
7.14525e-05
-1.84479e-05
3.99969e-06
5.80086e-05
-4.01432e-05
4.4225e-05
3.73611e-05
-1.86848e-05
6.59769e-05
3.1424e-05
8.95092e-06
2.40247e-05
3.32486e-05
1.21427e-05
1.67299e-05
2.85549e-05
1.23391e-05
3.47875e-05
1.81196e-05
5.14044e-06
1.57924e-05
1.54835e-05
2.579e-06
1.06404e-05
2.21427e-05
1.3249e-05
1.32315e-05
2.61898e-05
1.97247e-05
1.34141e-05
2.9882e-05
3.37185e-05
2.86386e-05
3.33983e-05
2.87123e-05
4.01116e-05
2.38368e-05
1.57793e-05
6.76641e-05
1.57273e-05
2.67997e-05
3.85215e-05
1.60932e-05
3.13144e-05
6.59251e-06
1.9616e-05
2.30549e-05
1.80792e-05
1.88302e-05
1.19331e-05
3.09127e-05
2.11401e-05
-6.7396e-06
5.36681e-05
2.39929e-05
1.94631e-05
4.58065e-05
3.04206e-05
3.41215e-05
1.13989e-05
4.56964e-05
1.58914e-05
-9.67365e-06
5.66839e-05
-1.10406e-05
5.89087e-06
5.22725e-05
-1.72167e-05
2.61183e-05
3.82207e-05
2.5174e-06
3.91407e-05
2.78643e-05
-2.05006e-06
4.12577e-05
3.47145e-05
5.95633e-06
1.69445e-05
6.96429e-05
-3.63021e-05
1.14811e-05
8.86157e-05
-6.06514e-05
1.69329e-05
6.32771e-05
-1.84844e-05
4.65216e-05
4.35101e-05
4.11057e-05
2.11714e-05
4.96903e-05
1.69292e-05
6.16391e-06
5.03892e-05
-6.3534e-06
2.49278e-05
4.60385e-05
4.38701e-06
2.38861e-05
4.18726e-05
-2.04373e-06
3.88532e-05
1.02678e-05
3.62118e-05
5.92609e-05
-3.14426e-05
2.44578e-05
3.4466e-05
-4.98183e-05
4.54223e-05
6.26581e-05
3.08012e-05
-3.4398e-05
0.00012557
2.42244e-05
-6.26523e-05
0.000161563
-2.91043e-05
-8.62773e-05
0.000169354
-5.42939e-05
-8.13722e-05
0.000138875
-0.000109662
-3.80956e-06
8.26173e-05
-3.03854e-05
3.11375e-05
6.8991e-05
3.32652e-05
-4.3591e-05
7.07136e-05
4.44564e-05
-5.94182e-05
5.23241e-05
4.54598e-05
-9.3561e-06
2.75784e-05
4.59627e-05
-4.0882e-05
1.94267e-05
-5.8272e-06
-5.33865e-05
3.39361e-05
-6.25479e-06
-5.04881e-05
5.39804e-05
2.8584e-05
-5.02331e-05
6.67678e-05
0.000113323
-4.23937e-05
5.82201e-05
0.00010283
-2.84339e-06
3.45664e-05
2.71069e-05
3.87839e-05
3.25637e-05
6.75098e-05
-3.42742e-05
3.91335e-05
8.88816e-05
-7.89279e-05
4.12321e-05
5.97704e-05
-4.63406e-05
3.95349e-05
2.80455e-05
-1.60771e-05
4.05859e-05
-1.1618e-05
1.99441e-05
5.32639e-05
5.71584e-05
2.99982e-06
8.3314e-05
6.63946e-05
-4.63102e-05
0.000123426
1.52569e-05
-8.73894e-05
0.000139099
-3.63606e-05
-6.33248e-05
0.000114849
-3.39417e-05
-2.29132e-05
8.7974e-05
7.74926e-06
3.63248e-06
6.77177e-05
-7.05444e-06
1.25319e-05
5.87577e-05
3.46605e-05
-3.2458e-05
0.000121794
-7.66493e-05
-4.03979e-05
0.000167722
-0.000187242
-3.28942e-05
0.000105577
-2.4554e-05
7.05571e-06
7.43881e-05
9.27196e-05
-3.17604e-05
0.00010214
2.78866e-05
-8.43014e-05
0.000105137
-1.30102e-05
-4.94763e-05
0.000102016
8.48967e-06
-3.5338e-05
9.48859e-05
-6.52562e-06
1.29026e-06
2.64698e-05
1.38777e-06
0.000123395
-4.2679e-05
-8.43247e-06
7.6994e-05
-4.62925e-05
-7.40801e-06
9.88994e-05
0.000116568
-9.93717e-05
0.000175534
3.91619e-06
-6.9789e-05
0.000212728
-9.14678e-05
-0.000103879
0.000211441
-9.0499e-05
-0.000106987
0.000177399
-0.00018575
-3.82075e-05
0.000125965
-4.84918e-05
2.19872e-06
0.000124255
3.49377e-05
-8.75292e-05
0.000138888
6.40915e-05
-0.00012434
0.000112384
8.87269e-05
-6.4628e-05
8.38156e-05
0.000112768
-6.9833e-05
7.8472e-05
-3.77839e-06
-0.000100367
8.34722e-05
-3.09671e-05
-9.40755e-05
9.44589e-05
4.95502e-05
-9.08146e-05
0.000113246
0.000262622
-0.000116499
0.000111608
0.000221503
-7.99035e-05
7.5485e-05
4.40519e-05
-7.83962e-06
7.97371e-05
8.34132e-05
-3.47373e-05
9.64771e-05
0.000105396
-9.86119e-05
9.22932e-05
9.28167e-05
-7.77267e-05
7.95488e-05
8.62936e-05
-6.63392e-05
6.82862e-05
2.0926e-05
-2.40031e-05
9.60309e-05
9.3195e-05
-3.75326e-05
0.000152481
6.97013e-05
-7.29317e-05
0.000193642
-2.38755e-05
-0.000108235
0.000202089
-7.88104e-05
-0.000117984
0.000165232
-5.18926e-05
-7.05885e-05
0.000145132
2.9296e-06
-2.57655e-05
0.000138827
-4.90864e-05
-2.19741e-06
0.0001094
6.97136e-05
-4.85438e-05
0.000144556
-5.05721e-05
-7.48145e-05
0.000187613
-0.000282689
-3.0628e-05
0.000132338
-2.57455e-05
-1.94601e-05
0.000101087
0.000118038
2.07714e-06
0.000132568
5.24981e-05
-8.56308e-05
0.000144094
-1.0658e-05
-8.84316e-05
0.000140288
1.43233e-05
-7.34619e-05
0.000139419
-2.8573e-05
-2.29515e-05
1.88958e-05
-2.99377e-05
0.000171537
-5.42659e-05
-4.12267e-05
0.00011548
-5.13596e-05
-2.91549e-05
0.000117561
0.000226243
-0.000109536
0.000197014
4.61591e-06
-8.81277e-05
0.000231294
-0.000141078
-0.0001392
0.000219849
-0.000114801
-0.000114175
0.000202856
-0.000291756
-5.51407e-05
0.000151222
-6.77944e-05
7.35772e-06
0.000141003
2.17565e-05
-8.59174e-05
0.000154852
4.95609e-05
-0.000127139
0.000140133
0.000101555
-9.8121e-05
0.000112914
0.000137967
-8.66241e-05
0.000111576
1.88442e-06
-0.000101853
0.000114969
-5.90022e-05
-0.000102082
0.00011397
4.61258e-05
-7.3333e-05
0.00013233
0.000409572
-0.00010836
0.000154034
0.000334187
-0.000108925
0.000114137
6.60051e-05
-4.7236e-05
0.000103165
9.61146e-05
6.14606e-06
0.000129542
3.68832e-05
-6.49278e-05
0.000126278
0.000104846
-7.78572e-05
0.000109461
0.000170107
-9.05067e-05
8.55016e-05
8.16751e-05
-4.23115e-05
0.00011906
9.81581e-05
-5.16583e-05
0.00018839
4.35676e-05
-6.56001e-05
0.000219822
-6.30536e-05
-0.000114235
0.000228296
-0.000139752
-0.000126966
0.000182494
-6.04341e-05
-0.000103698
0.000187766
2.89041e-06
-4.95e-05
0.000201757
-0.000123274
8.67945e-06
0.00016146
8.38285e-05
-2.64543e-05
0.000183914
1.20424e-05
-0.000114329
0.000215832
-0.000311608
-4.38686e-05
0.000180463
-4.01214e-05
-3.85128e-05
0.000122715
0.000130798
2.685e-05
0.000124402
0.000128234
-5.01172e-05
0.000153773
-2.3988e-05
-6.79672e-05
0.000165549
8.52616e-06
-9.06497e-05
0.000166225
-6.63774e-05
-3.99945e-05
2.58288e-05
-7.79506e-05
0.000217057
-5.07724e-05
-6.98978e-05
0.000159977
-5.76116e-05
-5.56799e-05
0.000149191
0.000315693
-0.000140849
0.000251015
4.00677e-06
-0.000141461
0.000276942
-0.000154966
-0.000133351
0.000227666
-6.10176e-05
-0.00015745
0.000235063
-0.000383712
-5.90142e-05
0.000199841
-0.000156071
2.61564e-05
0.00018735
-3.01748e-05
-1.86197e-05
0.000209899
2.93754e-06
-8.7038e-05
0.000198491
7.04777e-05
-8.6283e-05
0.000151425
0.000155248
-0.000136045
0.00013385
4.26082e-05
-0.000139471
0.000146082
-0.000133403
-0.000114179
0.000146428
4.27442e-05
-9.41189e-05
0.000161772
0.000509847
-9.22657e-05
0.000197256
0.000441891
-0.000149943
0.000165396
6.4535e-05
-8.2091e-05
0.000126774
9.5071e-05
-6.9418e-06
0.000144414
2.27148e-05
-6.96216e-05
0.000170094
8.64985e-05
-0.000106102
0.00013652
0.000228327
-0.000105038
9.92048e-05
0.000142451
-4.54706e-05
0.000150597
7.78946e-05
-5.00573e-05
0.000206914
1.34015e-05
-6.40056e-05
0.000218746
-6.44658e-05
-0.000117209
0.000239688
-0.000201071
-0.000101511
0.000219029
-0.000130034
-9.18441e-05
0.000251972
-9.49229e-06
-9.69629e-05
0.000292174
-0.000176285
-1.13843e-06
0.000241383
6.53245e-05
8.58908e-06
0.000219775
3.48246e-05
-8.98461e-05
0.000230653
-0.000267835
-7.57507e-05
0.000213248
-5.60224e-05
-5.80337e-05
0.000150237
0.000161446
-1.3623e-06
0.000163567
0.000131342
-4.80929e-06
0.000186453
-2.16955e-05
-8.23945e-05
0.000206168
-3.74954e-05
-6.31267e-05
0.00021755
-0.000122061
-5.05563e-05
-2.11311e-06
-7.97539e-05
0.000255096
-2.99899e-05
-8.92524e-05
0.000200764
-4.3034e-05
-5.23524e-05
0.000197004
0.000357117
-0.000183507
0.000290617
5.47149e-06
-0.00015812
0.000304998
-0.000182343
-9.74378e-05
0.000226175
3.28184e-05
-0.00021437
0.000235403
-0.000392864
-6.3097e-05
0.00024584
-0.000330835
2.71632e-05
0.000236706
-0.000103261
9.23278e-06
0.000253148
-2.33675e-05
-4.83669e-05
0.000242578
4.74457e-05
-4.93866e-05
0.000184445
0.000158034
-0.000107404
0.000161733
0.000125644
-0.000164883
0.000168038
-0.000200605
-0.000117086
0.000164734
2.45017e-05
-6.62635e-05
0.000185703
0.000598978
-6.17597e-05
0.000232504
0.000506183
-0.000157129
0.000224994
7.12466e-05
-0.00014992
0.000166751
3.41043e-05
-2.66713e-05
0.000168363
4.9612e-05
-2.52502e-06
0.000190552
5.4486e-05
-6.92617e-05
0.000120016
0.000235043
-7.45644e-05
9.97164e-05
0.000146761
-2.42802e-05
0.000173375
2.732e-05
1.38782e-05
0.000237504
-3.19539e-05
-5.59651e-05
0.000225135
-2.89832e-05
-0.000114852
0.000235608
-0.000208843
-0.000114002
0.000255534
-0.000243853
-9.87414e-05
0.00029957
-6.28255e-05
-0.000180117
0.000358623
-0.000222048
-7.4405e-05
0.000311137
5.97742e-05
-1.85231e-05
0.000240618
5.48294e-05
-4.30212e-05
0.000233624
-0.000196085
-7.73495e-05
0.000211631
-1.92564e-05
-7.07455e-05
0.000169092
0.000185296
-7.79486e-06
0.000197967
4.87758e-05
3.95865e-05
0.000215378
5.58152e-05
-0.000118967
0.000241976
-6.33593e-05
-4.35908e-05
0.000273016
-0.000201199
-7.6903e-05
-3.65084e-05
-5.58611e-05
0.000290803
2.95897e-05
-9.01514e-05
0.00023915
-2.82034e-06
-7.78586e-05
0.000239898
0.000359358
-0.00015053
0.00033038
-6.02347e-06
-0.000107358
0.000338046
-0.000239465
-5.34878e-05
0.000272403
8.30538e-05
-0.000216627
0.000270077
-0.000348959
-0.000120193
0.000290157
-0.000468117
2.93057e-05
0.000256882
-0.000184466
-5.52635e-06
0.000241253
-4.77585e-05
-3.2158e-05
0.000250632
2.34252e-08
-2.27178e-05
0.000209994
0.000169686
-0.00012285
0.000183044
0.000176449
-0.000128036
0.000207997
-0.000309687
-3.20887e-05
0.000203995
-6.64099e-05
-3.24161e-05
0.000211156
0.000651583
-2.65405e-05
0.000268029
0.000511145
-0.000146852
0.000282238
0.000137145
-0.000199184
0.00023975
-9.41808e-05
-8.82016e-05
0.000217976
-2.15081e-05
1.52468e-05
0.000198125
5.48226e-05
-6.34191e-05
0.000136829
0.000165318
-1.58594e-05
0.000139021
0.000109392
-8.70244e-06
0.000201012
1.9073e-05
-2.94033e-05
0.000282436
-7.7631e-05
-7.65248e-05
0.000283203
-1.43832e-05
-0.000122105
0.00027636
-0.000184372
-0.000146021
0.000296855
-0.000353737
-9.72607e-05
0.000333655
-0.000119643
-0.000184186
0.000387371
-0.000271532
-0.000127999
0.000349343
7.29776e-05
-7.7147e-05
0.000271501
5.27452e-05
-5.71648e-05
0.000249277
-0.000144486
-8.02582e-05
0.000230862
6.55782e-05
-0.000119587
0.000209009
0.000185924
-8.29504e-07
0.00020202
4.38526e-05
7.48835e-06
0.000206788
0.00012012
-8.69691e-05
0.000281749
-4.88933e-05
-3.1542e-05
0.000339006
-0.000233937
-0.000124345
-4.66889e-05
-6.67465e-05
0.00031762
6.75286e-05
-2.83711e-05
0.00027908
3.54619e-05
-7.95478e-05
0.000282871
0.000343822
-6.01063e-05
0.000351484
3.16237e-05
-7.94969e-05
0.000348524
-0.000264477
-2.99802e-05
0.000309839
9.79554e-05
-0.000186323
0.000337647
-0.000286959
-0.00024048
0.000350682
-0.000518949
-5.71977e-05
0.000317728
-0.000266105
-2.64423e-05
0.000262693
-5.87312e-05
3.97822e-06
0.000221416
1.18533e-05
-6.32024e-05
0.000181691
0.000176374
-0.00016299
0.00019648
0.000169964
-0.000124773
0.000223701
-0.000408361
2.01798e-05
0.000192448
-0.000190788
-2.98287e-05
0.000227528
0.000590523
-2.99374e-05
0.000285545
0.000508756
-0.00012248
0.000327169
0.000223877
-0.000162854
0.000327995
-0.000177637
-0.000136193
0.000257335
-7.774e-05
-2.55559e-05
0.000203793
0.000112284
-0.000103113
0.000152734
0.000163946
-5.03842e-05
0.000167001
5.91344e-05
-7.47471e-07
0.000230749
-3.92644e-06
-4.82644e-05
0.000295455
-6.82388e-05
-5.59815e-05
0.000332239
-6.25323e-06
-9.57041e-05
0.000330933
-0.000187943
-0.000182892
0.000293672
-0.00042899
-9.62386e-05
0.000313771
-0.000149804
-0.000127801
0.000404516
-0.000356098
-9.86062e-05
0.000411748
6.31876e-05
-6.94167e-05
0.000333405
3.76214e-05
-7.72958e-05
0.000261246
-6.7593e-05
-3.07774e-05
0.000240081
0.000286259
-0.000127768
0.000264018
0.000169884
1.89203e-05
0.000230456
0.0001178
-4.43028e-05
0.000192749
0.000254427
-4.3943e-05
0.000287335
-4.24488e-05
1.62444e-06
0.000391032
-0.000249989
-0.000153089
-5.686e-05
-9.12472e-05
0.000348684
0.000124872
-6.38021e-05
0.000290883
7.60263e-05
-5.12013e-06
0.000290343
0.000347999
4.51611e-08
0.000330984
9.18557e-05
-0.000117624
0.0003142
-0.00027037
-5.16125e-05
0.000324444
7.05522e-05
-0.000152432
0.000405289
-0.000268053
-0.000248196
0.00042107
-0.000532042
-0.000157244
0.000390119
-0.000303702
-8.26019e-05
0.000301061
-1.51029e-05
-3.37984e-05
0.000221394
7.30469e-05
-8.72546e-05
0.000200065
0.000120903
-0.000111379
0.000275036
0.00019115
-0.000172445
0.000290777
-0.000387062
-8.42449e-05
0.000221301
-0.000318516
5.72866e-06
0.000269066
0.000516951
-0.000100438
0.00032623
0.000593944
-0.000157833
0.000374973
0.000262302
-0.000117264
0.000413756
-0.000187342
-9.43038e-05
0.000335962
-6.58848e-05
-8.85035e-05
0.000272363
0.000222825
-0.000119822
0.000221601
0.000236391
-0.00011503
0.000231972
-5.98232e-05
1.93475e-05
0.000278413
-0.000132733
1.86076e-05
0.000322389
-7.85617e-05
-2.3843e-05
0.000392549
-4.43577e-05
-7.92769e-05
0.000424649
-0.000237557
-0.000160003
0.000338317
-0.000408222
-0.000107493
0.000336665
-0.000141957
-0.000178671
0.000374021
-0.000382976
-9.55119e-05
0.00036789
4.19465e-05
-1.57914e-05
0.000325775
3.4657e-05
-8.15683e-05
0.00026831
-4.12803e-05
-5.57295e-05
0.000257632
0.000438926
-9.42066e-05
0.000322493
0.000163925
-1.98345e-05
0.000283641
0.000183747
-7.02296e-05
0.000232217
0.000430992
-7.08888e-05
0.000298845
4.46976e-05
-8.59775e-05
0.000390595
-0.000272214
-0.000122183
-0.000117014
-5.6628e-05
0.000380109
0.00017853
-0.000110209
0.000276821
9.40891e-05
-1.275e-05
0.000273141
0.000346705
1.94887e-05
0.000322913
0.000132263
-7.42018e-05
0.000279739
-0.000230119
-3.94311e-05
0.000301218
0.000133492
-0.000186886
0.00040948
-0.000236219
-0.000242847
0.0004738
-0.000617799
-0.000124282
0.000443211
-0.000365284
-4.57409e-05
0.000351499
-4.59538e-06
-6.33005e-05
0.000282355
0.000105611
-1.86058e-05
0.000266468
7.73639e-05
-0.000134313
0.000334162
0.000251828
-0.000257175
0.000391515
-0.000363912
-0.000182986
0.00032052
-0.000401245
-5.65017e-05
0.000308057
0.000469045
-6.4803e-05
0.000327458
0.000725233
-0.000150339
0.000370953
0.000284762
-0.000105452
0.000462827
-0.000210796
-1.73665e-05
0.000393707
-8.24187e-06
-0.000101561
0.000358845
0.000350282
-0.000167399
0.000403329
0.000117776
-0.000104153
0.000396315
-0.000264379
6.26329e-05
0.000358628
-0.000257511
6.07628e-05
0.000366442
-0.000127152
-3.29312e-05
0.000454404
-7.2792e-05
-6.97502e-05
0.000494051
-0.000266836
-0.000139376
0.000413591
-0.000346924
-0.000157344
0.000416407
-0.000149677
-0.00024295
0.000380466
-0.000325602
-0.000188014
0.000324191
0.000121018
-3.81043e-05
0.000323388
6.05306e-06
-7.64614e-05
0.000298438
-5.99621e-05
-0.000115039
0.000304473
0.000449686
-9.61246e-05
0.000373708
0.000162574
-7.70078e-05
0.000333864
0.000202211
1.51109e-05
0.000321893
0.000546618
-0.00011764
0.000355615
0.000181071
-0.000177195
0.000351539
-0.000155811
-0.00011207
-8.13997e-05
-6.66949e-05
0.000436715
0.000209344
-0.000101167
0.000319763
7.0469e-05
-2.74079e-05
0.000344941
0.000331765
-1.3093e-05
0.000398479
0.000187132
-6.09412e-05
0.000303352
-0.000111356
-0.000106918
0.000323877
0.000215906
-0.000235049
0.000431051
-0.00017313
-0.000284651
0.000487232
-0.000587817
-0.000157706
0.000485521
-0.000376425
-5.06178e-05
0.000404561
-3.00395e-05
-7.44666e-05
0.000315319
0.000123593
2.33547e-05
0.000315694
7.05791e-05
-0.000139852
0.000394427
0.000232047
-0.000284134
0.000465953
-0.000347963
-0.00022793
0.000415851
-0.000446247
-0.000154981
0.000357823
0.000461102
-9.47858e-05
0.00037706
0.000806759
-0.000119945
0.000462624
0.000295439
-0.000107812
0.000494564
-0.000216742
6.53367e-05
0.000382514
4.35937e-05
4.03069e-07
0.000459055
0.000363857
-0.000146081
0.00061202
-9.44451e-05
-8.25448e-05
0.00056827
-0.00040058
0.000105104
0.000454294
-0.000309
4.83593e-05
0.000441477
-0.00017048
-4.70814e-05
0.000516641
-8.83481e-05
-5.74698e-05
0.000530878
-0.000260042
-0.000215902
0.000467241
-0.000269588
-0.000254184
0.000475015
-0.000116254
-0.000205656
0.000446837
-0.000274225
-0.000229239
0.000390763
0.000286955
-7.0389e-05
0.000397613
6.46777e-05
-7.92042e-05
0.000368118
-1.50362e-05
-0.000186
0.000357755
0.000430588
-0.000194947
0.000399764
7.6143e-05
-6.23099e-05
0.00035993
0.000173533
7.98642e-05
0.000368102
0.000648983
-0.000120399
0.000392625
0.00032395
-0.000151805
0.000368091
-1.54482e-05
-2.93955e-05
1.44887e-05
-0.000123491
0.000538554
0.000206165
-5.04279e-05
0.000409418
0.000139485
-4.78358e-05
0.000410257
0.000335021
-7.73582e-06
0.00043808
0.000202398
-8.35738e-05
0.000382027
-6.60559e-05
-9.22165e-05
0.000436762
0.000244526
-0.000116492
0.00049673
-4.4338e-05
-0.000251797
0.000533971
-0.000416434
-0.000231627
0.000528481
-0.000340375
-6.96319e-05
0.000445532
-5.46217e-05
-3.94699e-05
0.00038299
0.000116774
-1.50628e-05
0.000387031
0.00012146
-0.000205928
0.000437934
0.000194469
-0.000283313
0.000533798
-0.000443019
-0.000193676
0.000518761
-0.000508351
-0.000170046
0.000416544
0.00053567
-0.000129901
0.000438049
0.000889777
-0.000198043
0.000510878
0.000361783
-0.000103033
0.000497665
-0.000180832
5.8892e-05
0.000450274
4.77768e-05
7.84111e-05
0.000615424
0.00021021
5.56786e-06
0.000756437
-0.000229284
-5.96918e-05
0.000658973
-0.000376664
8.32411e-05
0.000531848
-0.000328946
2.09118e-06
0.000509685
-0.000157304
-6.85923e-05
0.000538223
1.91592e-06
-3.95936e-05
0.000556517
-0.000101571
-0.000302889
0.000505761
-0.000211465
-0.000247876
0.000534438
-0.000114557
-0.000202568
0.000520607
-0.000180072
-0.000284838
0.000435342
0.000357068
-5.94655e-05
0.000451561
0.000150582
-0.000119638
0.000416188
5.49205e-05
-0.000174043
0.000386589
0.000346843
-0.000125474
0.000426753
-3.5408e-05
-8.90091e-05
0.000411095
0.000119798
9.70292e-05
0.000426182
0.000645631
-8.73238e-05
0.000454657
0.000456566
-0.000125258
0.000433293
8.05235e-05
-1.47789e-06
9.68961e-05
-0.000120553
0.000576433
0.000292294
-6.63694e-05
0.000430221
0.000279254
-0.000122299
0.000428178
0.000387346
-9.21399e-05
0.000500609
0.000179279
-0.000161724
0.000475621
-7.59686e-05
-6.67187e-05
0.000503197
0.00028375
-9.02577e-05
0.000553973
8.52599e-05
-0.000155176
0.000610851
-0.000313386
-0.000206231
0.000601361
-0.000297409
-0.000119889
0.000562425
-0.000153845
4.17721e-05
0.000508121
6.93118e-05
-5.51197e-05
0.000467179
0.000160883
-0.000245796
0.000539549
0.000104262
-0.000277607
0.000611174
-0.00050834
-0.000158877
0.000532884
-0.000417866
-0.000226897
0.000483398
0.000584624
-0.000163554
0.000483039
0.00101654
-0.000201291
0.000448028
0.000495407
4.32625e-05
0.000441259
-0.000135808
-4.08089e-06
0.000527787
-5.40017e-05
6.11862e-05
0.000747845
7.58264e-05
7.4377e-05
0.00083226
-0.000306698
-2.7112e-05
0.000696729
-0.000302508
6.91481e-05
0.000574829
-0.000268411
5.43287e-05
0.000535341
-0.000104343
-4.49672e-05
0.000587171
0.000193974
-0.000118661
0.000651818
8.66575e-05
-0.000328367
0.000624359
-0.000284768
-0.000131299
0.000641915
-0.000209237
-0.000195134
0.00058991
-5.51702e-05
-0.000367833
0.000476515
0.000352889
-0.000115502
0.000511632
0.000156887
-0.000115208
0.000504242
7.26973e-05
-0.000185257
0.000452988
0.000250982
-7.8614e-05
0.000441608
-5.92444e-05
-0.000133068
0.00042267
4.12712e-05
4.98708e-05
0.000475665
0.000536873
1.33903e-05
0.000543121
0.000582653
-0.000149549
0.000504019
0.000282186
-6.98891e-05
0.000188409
-2.82062e-05
0.000555434
0.000525782
-4.1972e-05
0.000484746
0.000307118
3.95758e-05
0.000526947
0.000408845
-7.92396e-05
0.000612818
0.000197161
-0.000154241
0.000553819
8.51675e-06
-1.69417e-05
0.00052043
0.000388627
-7.45796e-05
0.000570838
0.000196695
2.22907e-05
0.000650628
-0.000164134
-6.11919e-05
0.000694622
-0.000235268
-0.000121003
0.000613925
-0.00012003
6.00522e-05
0.000547332
6.05774e-05
-2.72822e-05
0.000525096
0.000131529
-0.000210713
0.000649818
2.2248e-05
-0.000248188
0.00069767
-0.000449466
-0.000218613
0.000575494
-0.000315216
-0.00024184
0.000504408
0.000522314
-0.00014095
0.000471136
0.000992675
-1.5403e-05
0.00055767
0.000328156
0.00013065
0.000599339
-0.000216488
-2.0246e-06
0.000596128
-6.99706e-05
-7.43393e-05
0.000819899
-4.58943e-06
-5.82002e-05
0.000946428
-0.000465541
-9.59706e-05
0.000775545
-0.000266066
7.51382e-05
0.000632239
-0.000168902
7.80291e-05
0.00057083
-6.23248e-05
-4.33726e-05
0.000601542
0.000420671
-0.000157289
0.000698892
0.000231677
-0.00020765
0.000690472
-0.000327559
-0.000101374
0.000695275
-0.000405969
-6.53462e-05
0.000663359
5.12677e-05
-0.000295268
0.000561663
0.000353468
-0.000128712
0.000593777
8.98787e-05
-0.000144766
0.000601797
0.000159383
-0.000263851
0.000565681
0.000198861
-0.000115479
0.000501616
-6.71263e-05
-3.36398e-05
0.00050244
-3.69304e-05
-4.76161e-05
0.000524029
0.0004643
-4.31787e-05
0.000605322
0.00065319
-0.000103308
0.000650732
0.000416036
-5.29604e-05
0.000396821
-4.95934e-05
0.000651186
0.000707783
1.78291e-05
0.000682348
0.000322277
3.29524e-05
0.000682436
0.000397969
7.72922e-06
0.00068406
0.000203657
-9.12066e-05
0.00055404
9.71515e-05
6.62138e-07
0.000510468
0.000403572
-8.30501e-06
0.000604127
0.000183143
-7.90058e-05
0.000712115
-1.11749e-05
-4.04966e-05
0.000777109
-0.00020882
-0.000156037
0.000716696
-0.000181256
-4.08743e-06
0.000633927
6.34178e-05
7.37179e-05
0.000615432
7.97835e-05
-0.000141882
0.00076754
-4.2952e-06
-0.000283165
0.000781914
-0.000367592
-0.000233286
0.000605744
-0.000291749
-0.000156987
0.000493359
0.000365658
-2.17954e-05
0.000506445
0.000754342
0.000192124
0.000687287
3.18168e-05
0.000153788
0.000731413
-0.00038948
0.000119007
0.000630704
1.28791e-05
-3.81728e-05
0.000822604
-6.63616e-05
5.85512e-06
0.00106752
-0.000787011
1.70794e-05
0.00102232
-0.00036315
6.84105e-05
0.000848165
-2.27644e-05
9.33545e-05
0.000672214
3.97056e-05
-7.7009e-05
0.000633984
0.000521143
-0.000158808
0.000761762
0.000247839
-0.000124441
0.000781052
-0.00022488
-0.000242434
0.000704833
-0.000445639
-0.000190563
0.000673926
5.45834e-05
-0.000156969
0.000686172
0.000377202
-0.000144888
0.000708117
-5.55676e-05
-0.000219442
0.000710032
0.00022312
-0.000248894
0.000698357
0.000236715
-9.20467e-05
0.000573074
-8.05389e-05
1.69613e-05
0.000500914
-5.56344e-05
-4.10282e-05
0.00049399
0.000409983
-7.06235e-05
0.000613458
0.000679885
-3.4829e-05
0.000735179
0.000433735
-0.000178322
0.000601371
-0.000125756
0.000697437
0.000908646
6.86655e-05
0.000805749
0.000389634
2.0004e-05
0.000803427
0.000383459
-2.37231e-05
0.00081452
0.000182582
-2.7747e-05
0.000696724
0.000153981
0.000115872
0.00062699
0.000347034
7.5592e-05
0.000672333
0.000112427
-0.000154276
0.000764635
0.000145835
-0.000161663
0.000887867
-0.000141529
-0.000152051
0.000901537
-0.000334457
-9.12695e-05
0.000827039
7.47025e-06
0.000108153
0.000741924
9.86198e-05
-9.99659e-06
0.00087523
-8.17261e-05
-0.000270292
0.000929267
-0.000402207
-0.000146203
0.000658254
-0.000208498
-0.00013423
0.000520959
0.000177463
-2.22109e-06
0.00060304
0.00049443
0.0001526
0.000784238
0.000100459
-0.00011617
0.000848028
-0.000362238
-5.96172e-05
0.000740564
5.05172e-05
9.42148e-06
0.000856936
-6.61594e-05
-5.36716e-05
0.00107535
-0.000884936
4.03586e-07
0.00106558
-0.000467312
0.00010663
0.000977368
1.40753e-05
0.000179307
0.000804562
0.00010617
-7.27862e-05
0.000761376
0.00047583
-0.000133374
0.000907077
0.000156316
-0.000124408
0.00095712
-0.000244491
-0.00015861
0.000845955
-0.000218798
-0.00026161
0.000775487
0.000104179
-0.000158173
0.000788088
0.000276889
-6.64302e-05
0.000778632
-0.000132354
-0.000170428
0.00080349
0.000362052
-0.000191647
0.000776143
0.000418113
4.62628e-06
0.000622123
-6.52665e-05
-1.18349e-05
0.000553494
-3.74938e-05
-0.000116035
0.00058186
0.000423921
-0.000131017
0.000723237
0.000697624
-8.98166e-05
0.000811842
0.000572315
-0.000183912
0.000847129
-0.000123189
0.000858929
0.000905286
0.000174298
0.00101042
0.000422376
0.000133746
0.000991665
0.000452554
0.000134815
0.000988175
0.000321042
4.4581e-05
0.000861857
0.000239995
7.37182e-05
0.000758383
0.000339314
8.55133e-05
0.000755169
0.000195496
-7.4814e-05
0.000790416
0.000279198
-2.9678e-05
0.000982285
-8.32689e-05
-8.14586e-05
0.00106413
-0.000404443
-0.000153709
0.00105903
-0.000197652
0.00013138
0.000967356
5.94791e-05
7.68747e-05
0.000962338
-6.18901e-05
-0.000272894
0.00108014
-0.000479621
-0.000243631
0.000917184
-0.000217463
-8.3076e-05
0.000701964
5.63113e-05
-6.10184e-05
0.000797816
0.000214244
7.9899e-06
0.00098098
4.39286e-05
-0.000256574
0.000987489
-0.000237146
-0.000271182
0.000843838
8.56607e-05
-6.35439e-05
0.000885746
-2.45167e-05
-0.000251125
0.00111409
-0.000768598
-0.000251866
0.00121144
-0.000639649
6.15008e-05
0.00112443
-8.81382e-05
0.000239431
0.000958959
0.000179442
-2.05935e-05
0.00091043
0.000592592
-0.000112406
0.000973591
0.000262895
-5.98736e-05
0.00102936
-0.000272902
-3.37892e-05
0.000992619
-9.2677e-05
-0.000139282
0.000904849
0.000251338
-0.0001387
0.000907388
0.000132438
-5.3911e-05
0.000927248
-0.000250647
-0.000140717
0.000973517
0.000333767
-0.000146746
0.000944884
0.000414452
4.03922e-05
0.000737627
-0.000109161
2.16523e-05
0.000671858
-6.13449e-05
-0.000233507
0.000729135
0.000510646
-0.000412515
0.000860775
0.000694703
-0.000224636
0.000910602
0.000607754
8.7942e-06
0.000946979
7.76081e-05
0.00104005
0.000723639
0.000217096
0.00110526
0.000479847
1.93518e-05
0.00097096
0.000637089
0.00014818
0.000963297
0.000526283
7.62096e-05
0.000957378
0.000404543
-5.09263e-05
0.000901395
0.000404594
4.82632e-05
0.000936675
0.000264558
-1.94231e-05
0.000988586
0.000270557
3.49925e-05
0.00111247
1.97325e-05
-3.23959e-05
0.00115583
-0.000333956
-0.000237193
0.00119854
-0.000406018
2.56568e-05
0.00124645
-3.29806e-05
0.00012731
0.00119295
0.000126253
-0.000267454
0.00116018
-0.000255835
-0.000387495
0.0011266
-0.00025605
-0.000171472
0.00100801
-5.64004e-05
-8.52642e-05
0.00104915
5.55702e-05
-4.95458e-05
0.0011932
-0.00015646
-0.000190767
0.00119216
-0.000291913
-0.000216279
0.00111247
5.78706e-05
-6.2515e-05
0.00106414
6.4504e-05
-0.000144364
0.00115117
-0.000454359
-0.000367217
0.00131493
-0.000668236
-0.000136485
0.00125074
-0.000294693
0.000230585
0.00106188
0.000136025
0.00012095
0.00098473
0.000572167
-3.46652e-05
0.00104937
0.000368769
-5.78234e-05
0.00114671
-0.000130758
-8.60433e-05
0.00115564
-0.000221863
-6.61638e-07
0.0010379
0.00024758
-1.89184e-05
0.00103269
0.000300355
-0.000205667
0.0010423
-0.000141374
-0.000287074
0.00109644
0.000109102
-0.000231233
0.00111276
0.000180298
-2.30924e-06
0.00085661
-0.00019977
7.22814e-05
0.000750049
-0.000199953
-0.000168997
0.000855181
0.000335512
-0.000321574
0.000933741
0.000619668
-0.0002367
0.000933091
0.000596922
4.33765e-05
0.000843353
0.000231188
0.00126207
0.000560744
2.4729e-05
0.00125133
0.000475863
1.82357e-05
0.00107509
0.000722267
0.000215589
0.00104674
0.000581302
0.000199349
0.00109009
0.000452964
0.000145103
0.00101796
0.000494139
0.000210512
0.0010506
0.000338674
3.76709e-05
0.00123964
0.000168838
-0.000120324
0.00132065
3.43622e-05
-0.000101938
0.00129123
-0.000206382
-0.000217981
0.00132389
-0.000495811
-2.38301e-05
0.00135436
-0.000119781
0.000155967
0.00130002
0.000172902
-0.000181891
0.00123562
-0.000121672
-0.000384859
0.00124202
-0.000264649
-0.000312559
0.00127361
-0.000184134
-0.000159212
0.0013476
-0.000113638
-0.000125228
0.00141246
-0.000224695
-0.000282787
0.00137626
-0.000216884
-0.000216446
0.00133605
0.000124498
-5.48896e-05
0.00129699
0.000115099
1.23292e-05
0.00130958
-0.0003224
-0.00021952
0.00142806
-0.000556848
-0.000293653
0.00142076
-0.000232579
0.000134121
0.00125761
0.000134146
0.000189999
0.00123129
0.000399918
-5.29529e-06
0.00135158
0.000259926
-0.000103098
0.00137023
-7.2364e-05
-0.000130708
0.00128981
-0.000189644
5.10519e-05
0.00123996
0.000153849
7.60431e-05
0.00128228
0.000336292
-8.28179e-05
0.00125064
3.57165e-05
-0.000337781
0.00123639
8.40008e-06
-0.000435785
0.00133701
7.06387e-06
-0.000132518
0.00119004
-0.000274013
0.000148597
0.000985278
-0.000342997
-9.22824e-06
0.000959276
0.000161835
-0.000218371
0.000979607
0.000570863
-0.000263832
0.00103079
0.0006539
-0.000169678
0.000810925
-1.84007e-06
0.00146784
0.000428976
-0.000124712
0.00144119
0.000364998
2.76951e-05
0.00131934
0.000664739
0.000307386
0.00130153
0.000667087
0.000330849
0.00131492
0.000591697
0.000211783
0.00124365
0.000584715
0.000264044
0.00125319
0.000377859
0.00020308
0.00140423
0.000171112
-1.99437e-05
0.00154899
7.34033e-05
-9.91534e-05
0.00153493
-4.4603e-05
-0.000183414
0.00142037
-0.000334616
-7.61745e-05
0.0014172
-0.000145237
0.000125959
0.00146736
5.69066e-05
4.30385e-05
0.00145364
-0.000132237
-0.000188538
0.00141196
-0.000199591
-0.000342084
0.00146078
-0.000238657
-0.000213705
0.00159718
-0.000296598
-2.83183e-05
0.00163519
-0.000314573
-0.000195453
0.00153575
-0.000120312
-0.000285643
0.00152906
0.00019717
-0.00014021
0.0015525
0.00014956
-3.7587e-05
0.00152542
-0.000222085
-0.000115489
0.00164585
-0.000449155
-0.000361033
0.00179158
-0.000149581
-0.000157064
0.00174205
9.46181e-05
0.000191532
0.0017169
0.000247744
0.000211725
0.00173325
0.000168671
9.40854e-05
0.00157145
-1.50081e-05
-1.00943e-05
0.00138603
-6.71722e-05
1.93288e-05
0.00135859
5.63387e-05
0.000105295
0.00142374
0.000204856
0.000147312
0.00145937
7.58628e-05
-0.000121546
0.00144356
6.01724e-05
-0.00045434
0.00152929
-8.17172e-05
-0.000228988
0.00145327
-0.000363173
9.41331e-05
0.00118621
-0.000415481
0.000114799
0.0010398
4.45664e-05
-3.78357e-06
0.00105684
0.000508749
-0.000233472
0.0011962
0.000632538
-0.000275305
0.000706084
-0.000160152
0.00161678
0.000310961
-0.000287113
0.00157051
0.000323826
-0.000174259
0.00149046
0.000626075
0.000160799
0.00150585
0.000753633
0.000289256
0.00159325
0.000714426
0.000221199
0.00162609
0.000609782