/*--------------------------------*- C++ -*----------------------------------*\
  =========                 |
  \\      /  F ield         | OpenFOAM: The Open Source CFD Toolbox
   \\    /   O peration     | Website:  https://openfoam.org
    \\  /    A nd           | Version:  10
     \\/     M anipulation  |
\*---------------------------------------------------------------------------*/
FoamFile
{
    format      ascii;
    class       volVectorField;
    location    "13";
    object      U;
}
// * * * * * * * * * * * * * * * * * * * * * * * * * * * * * * * * * * * * * //

dimensions      [0 1 -1 0 0 0 0];

internalField   nonuniform List<vector> 
25600
(
(0.156845 -0.0664664 0.0748019)
(0.108569 -0.0372974 0.192906)
(0.0957409 -0.0644434 0.111336)
(0.14134 -0.0732953 0.0138209)
(0.242428 -0.0809131 -0.06365)
(0.268872 -0.0862693 -0.0576669)
(0.309435 -0.079027 0.0190875)
(0.171924 -0.0644489 0.120079)
(0.121226 -0.0714146 0.0650084)
(0.133593 -0.076353 0.0382679)
(0.131316 -0.0731475 0.0493815)
(0.0929189 -0.0728954 0.0390673)
(0.0532374 -0.0547765 0.0609876)
(0.0785191 -0.0564521 0.0614204)
(0.0934091 -0.0649658 0.0650053)
(0.120105 -0.0720341 0.113973)
(0.126933 -0.0723516 0.103846)
(0.12627 -0.0436888 0.150867)
(0.0730477 -0.0607997 0.109828)
(0.0575091 -0.0688946 0.0438951)
(0.0713091 -0.0669834 0.0564942)
(0.0786079 -0.070897 0.0496039)
(0.0796953 -0.0520611 0.11306)
(0.0924094 -0.0609013 0.13741)
(0.0959162 -0.0729058 0.0433269)
(0.142413 -0.0754948 -0.0299902)
(0.230467 -0.0778392 -0.0260546)
(0.230158 -0.077157 0.00838201)
(0.180677 -0.0737539 0.0565241)
(0.134387 -0.0713146 0.0552726)
(0.0930244 -0.0757772 0.0365672)
(0.177755 -0.0774937 0.00262675)
(0.388562 -0.0918237 -0.050504)
(0.326196 -0.0760151 0.0728104)
(0.174116 -0.0722747 0.108229)
(0.182122 -0.0784582 0.0113431)
(0.218163 -0.0769812 0.0284379)
(0.180635 -0.0724909 0.0341978)
(0.198359 -0.072125 0.0484807)
(0.13718 -0.0754242 0.030018)
(0.324545 0.0473011 -0.0236936)
(0.122678 0.0238816 0.140494)
(0.124621 0.0624472 0.0442159)
(0.332078 0.0688456 -0.0979043)
(0.597896 0.0666515 -0.26041)
(0.558749 0.0663696 -0.288802)
(0.689559 0.0500196 -0.127071)
(0.347756 0.0462485 0.0541311)
(0.242869 0.0646439 -0.027103)
(0.266489 0.0703977 -0.0674419)
(0.245015 0.0673736 -0.0505144)
(0.130899 0.0652792 -0.054061)
(0.0728666 0.0491649 -0.0451694)
(0.077038 0.0560171 -0.0627483)
(0.162428 0.0663909 -0.0528282)
(0.239054 0.0791419 0.0356344)
(0.250367 0.0753848 0.0359261)
(0.160373 0.0450136 0.0708673)
(0.101533 0.0667009 -0.005439)
(0.13871 0.072828 -0.0786421)
(0.145989 0.066589 -0.0462381)
(0.147468 0.0677861 -0.0561643)
(0.151454 0.0393586 0.0412357)
(0.146801 0.0591659 0.0884462)
(0.232579 0.073307 -0.0525013)
(0.373074 0.0673798 -0.213984)
(0.538242 0.0603605 -0.210777)
(0.483304 0.0573023 -0.108482)
(0.343952 0.0624628 -0.0228351)
(0.310843 0.0577623 -0.0182798)
(0.187758 0.0672179 -0.0574799)
(0.231 0.0512755 -0.0235776)
(0.667228 0.0548171 -0.222809)
(0.561791 0.0571597 -0.0048573)
(0.201167 0.0806212 0.0226748)
(0.348445 0.0746169 -0.160323)
(0.400358 0.0612176 -0.121081)
(0.359051 0.0616737 -0.0714325)
(0.400763 0.0588995 -0.0294539)
(0.288644 0.0673121 -0.065393)
(0.551111 -0.0480304 -0.12636)
(0.283422 -0.0375196 0.00918183)
(0.226835 -0.0417835 0.00728773)
(0.432654 -0.0422164 -0.122357)
(0.740686 -0.0657904 -0.29292)
(0.649724 -0.0711572 -0.286424)
(0.762907 -0.0728904 -0.234286)
(0.441778 -0.0482497 -0.0229461)
(0.381434 -0.0394574 -0.103547)
(0.449534 -0.0394524 -0.162432)
(0.4654 -0.0366855 -0.149957)
(0.273999 -0.0342345 -0.0828527)
(0.28518 -0.0440311 -0.177429)
(0.248944 -0.0524427 -0.184827)
(0.294159 -0.0466148 -0.147425)
(0.342753 -0.0134442 -0.064114)
(0.410946 -0.0145105 -0.0553162)
(0.311201 -0.0287707 -0.0403953)
(0.204013 -0.0276865 -0.0339544)
(0.33246 -0.018699 -0.189519)
(0.30406 -0.0281184 -0.120375)
(0.301062 -0.0485079 -0.120612)
(0.239307 -0.033807 -0.0153223)
(0.21494 -0.0210577 0.0400251)
(0.413563 -0.027566 -0.11074)
(0.594658 -0.0449128 -0.285385)
(0.70265 -0.0614121 -0.338292)
(0.643646 -0.0577604 -0.170149)
(0.442241 -0.0452293 -0.0315219)
(0.537146 -0.0468197 -0.0561481)
(0.389387 -0.040332 -0.116195)
(0.322128 -0.0627944 0.00945409)
(0.653628 -0.1052 -0.166004)
(0.590948 -0.0547891 -0.0802951)
(0.275973 -0.0255709 0.0191618)
(0.404218 -0.0521299 -0.119922)
(0.482971 -0.0490671 -0.142818)
(0.4605 -0.0444572 -0.120256)
(0.488125 -0.0483386 -0.0733594)
(0.436128 -0.0423075 -0.112214)
(0.63786 0.0220841 -0.190278)
(0.411793 0.014061 -0.0739677)
(0.285553 0.0750209 0.0208462)
(0.428181 0.0358982 -0.115747)
(0.771959 0.0155676 -0.260403)
(0.594772 0.0147699 -0.231729)
(0.75183 -0.0153104 -0.268836)
(0.491827 0.0200132 -0.0682809)
(0.408413 0.0445203 -0.136798)
(0.449941 0.0512994 -0.204545)
(0.478056 0.057635 -0.214592)
(0.357781 0.0618423 -0.107617)
(0.331829 0.0359785 -0.166727)
(0.350758 0.0336866 -0.26853)
(0.33451 0.0545395 -0.182539)
(0.361336 0.0950385 -0.0535619)
(0.442049 0.0841595 -0.0740138)
(0.466357 0.040358 -0.140726)
(0.239242 0.0502732 -0.0541168)
(0.39201 0.0462458 -0.227815)
(0.383199 0.0504518 -0.153594)
(0.372544 0.0725732 -0.167725)
(0.303082 0.0378486 -0.0540474)
(0.212008 0.0442185 -0.0209139)
(0.495347 0.038663 -0.0660588)
(0.638838 0.0272575 -0.243404)
(0.703163 0.0174007 -0.31879)
(0.675531 0.0265688 -0.195653)
(0.415519 0.0371844 -0.0167697)
(0.73539 0.0167095 0.0123615)
(0.484427 0.0552738 -0.0752748)
(0.479746 0.0296907 -0.0812269)
(0.641553 -0.0337641 -0.108123)
(0.661199 0.0376926 -0.166166)
(0.415116 0.0535323 0.012045)
(0.335898 0.0637669 -0.0147205)
(0.422808 0.0352838 -0.109834)
(0.490763 0.042651 -0.122189)
(0.527883 0.0297166 -0.0960074)
(0.470375 0.0403444 -0.132438)
(0.696205 -0.0362653 -0.208052)
(0.511095 -0.0302002 -0.138425)
(0.366296 0.0339387 -0.0491141)
(0.459856 -0.0302487 -0.159609)
(0.929217 -0.0595349 -0.156236)
(0.559096 -0.0451625 -0.232925)
(0.707295 -0.105751 -0.226145)
(0.607447 -0.0405065 -0.121961)
(0.477143 -0.0294552 -0.0726623)
(0.558542 -0.0208301 -0.186443)
(0.58497 -0.00306358 -0.211163)
(0.492192 0.00896638 -0.224346)
(0.349281 -0.0284112 -0.180146)
(0.398724 -0.0486433 -0.278263)
(0.393011 -0.0239299 -0.226686)
(0.412611 0.0857587 -0.0994451)
(0.485847 0.0640725 -0.0963451)
(0.57335 -0.0068832 -0.227209)
(0.352954 -0.00174585 -0.154505)
(0.347845 -0.0281016 -0.145121)
(0.441881 0.00419069 -0.218817)
(0.481515 0.0124913 -0.227515)
(0.280521 0.00234437 -0.0495964)
(0.266182 0.00494615 -0.0602785)
(0.551597 -0.0121045 -0.0956742)
(0.576407 -0.0456909 -0.180381)
(0.632943 -0.0715938 -0.177171)
(0.694992 -0.0429148 -0.224209)
(0.492517 -0.0279937 -0.123379)
(0.908048 -0.0573132 0.0559116)
(0.69446 -0.0105366 -0.00436382)
(0.624764 -0.0173725 -0.125114)
(0.580664 -0.0768382 -0.0553751)
(0.700564 -0.0458792 -0.185147)
(0.448182 0.0178497 -0.0264464)
(0.392723 0.00480947 0.0236096)
(0.501857 -0.0394301 -0.101062)
(0.515815 -0.0339224 -0.147737)
(0.62968 -0.048002 -0.153829)
(0.568198 -0.0223929 -0.150828)
(0.758199 0.0117245 -0.251337)
(0.525424 0.00545353 -0.186788)
(0.473581 0.0745776 -0.190975)
(0.519922 0.0258196 -0.16279)
(0.933162 -0.0123878 -0.126148)
(0.566616 0.0223704 -0.289345)
(0.568242 -0.0619815 -0.121689)
(0.635785 -0.0259116 -0.133352)
(0.575536 0.0109553 -0.026644)
(0.601167 0.0162132 -0.093155)
(0.667011 0.0243085 -0.0847726)
(0.527531 0.0463999 -0.176195)
(0.398068 0.0389446 -0.199308)
(0.429381 -0.0123501 -0.229931)
(0.395847 0.0309764 -0.180114)
(0.425485 0.124452 -0.0945449)
(0.51642 0.106902 -0.0961562)
(0.618953 0.0298024 -0.277471)
(0.52109 0.0308498 -0.293509)
(0.324049 0.0346136 -0.0667756)
(0.511104 0.0230016 -0.182122)
(0.427051 0.0587372 -0.198033)
(0.18766 0.055571 -0.00835356)
(0.308633 0.0179078 0.0398072)
(0.551351 0.015353 -0.12809)
(0.625244 0.0179711 -0.157537)
(0.503756 -0.013069 -0.148153)
(0.68576 -0.014088 -0.260223)
(0.576221 0.0201327 -0.331152)
(0.937447 -0.0182119 -0.13133)
(0.850057 0.0283999 -0.0591247)
(0.692341 0.0252339 -0.099028)
(0.518076 -0.0208121 -0.0410485)
(0.649676 0.0136848 -0.145909)
(0.396381 0.0408829 -0.0527787)
(0.459151 0.0340808 0.0571128)
(0.521925 0.0253185 -0.071247)
(0.551441 0.0115842 -0.108995)
(0.671588 -0.0106925 -0.206222)
(0.685801 0.0151909 -0.110343)
(0.779173 -0.0208253 -0.185402)
(0.561876 -0.0186029 -0.155267)
(0.509225 0.0840241 -0.183597)
(0.597957 -0.0154172 -0.0840882)
(0.895495 -0.058243 -0.0713353)
(0.624554 -0.00874719 -0.295298)
(0.606978 -0.0841002 -0.146854)
(0.653211 -0.105031 -0.059187)
(0.64778 -0.0456919 -0.0484374)
(0.516766 -0.0204565 -0.0729174)
(0.566025 -0.0139311 -0.0422585)
(0.567301 0.01206 -0.127805)
(0.393436 0.021211 -0.172584)
(0.454512 -0.06415 -0.147503)
(0.477017 -0.0143941 -0.143102)
(0.440692 0.115608 -0.0684236)
(0.541715 0.0957117 -0.132279)
(0.646281 0.00138648 -0.21086)
(0.651505 -0.0139543 -0.353092)
(0.45013 -0.00834288 -0.193243)
(0.530958 -0.00524008 -0.172191)
(0.357486 0.0492585 -0.104017)
(0.277103 0.00555158 0.0124273)
(0.352902 -0.00276968 -0.0139176)
(0.556586 -0.0275817 -0.125158)
(0.715462 -0.0281004 -0.159551)
(0.570459 -0.0604948 -0.160638)
(0.700817 -0.0828593 -0.229803)
(0.631987 -0.0460752 -0.317249)
(0.899163 -0.0639252 -0.240852)
(0.858771 0.00448134 -0.155731)
(0.716901 0.0040793 -0.141886)
(0.527266 -0.0489648 -0.07982)
(0.594052 -0.0209582 -0.118028)
(0.446807 0.0209525 -0.0496961)
(0.51565 -0.0130321 0.00570892)
(0.396291 0.00613054 -0.0724956)
(0.539097 -0.0321897 0.0629298)
(0.756294 -0.0578025 -0.149522)
(0.779213 -0.0234424 -0.0712078)
(0.733403 0.0294801 -0.0835582)
(0.589457 0.0156195 -0.117037)
(0.559453 0.0587148 -0.115675)
(0.620762 0.0068038 -0.0706321)
(0.825646 -0.0467128 0.00719918)
(0.595124 0.0334284 -0.218555)
(0.686664 -0.0409305 -0.301539)
(0.733417 -0.0969529 -0.163431)
(0.69906 -0.033511 -0.119609)
(0.622556 -0.00575872 -0.0437073)
(0.448414 0.0162564 -0.103975)
(0.458051 0.0498596 -0.231939)
(0.300273 0.0479104 -0.214013)
(0.528776 -0.0670036 -0.0421974)
(0.38159 -0.0169312 -0.10362)
(0.398773 0.134127 -0.0946711)
(0.571105 0.11702 -0.159658)
(0.576918 0.0480263 -0.099277)
(0.791926 -0.0256178 -0.229116)
(0.568705 -0.00323944 -0.272727)
(0.495863 0.033983 -0.186653)
(0.327499 0.0249265 -0.0290145)
(0.312464 0.0310877 0.00325744)
(0.382801 0.00691539 -0.0677354)
(0.56276 -0.00786026 -0.062156)
(0.6464 0.0200282 -0.113443)
(0.721869 -0.0223182 -0.192357)
(0.662738 -0.0749616 -0.207068)
(0.538409 -0.0104067 -0.165591)
(0.768506 -0.0580379 -0.182345)
(0.898166 0.0159615 -0.167736)
(0.800436 0.0116627 -0.169198)
(0.582507 -0.00685402 -0.0301371)
(0.482375 0.0574133 -0.0619234)
(0.498458 0.0466779 -0.0211578)
(0.610326 0.0326131 -0.051582)
(0.337644 0.0503732 -0.0153437)
(0.446733 0.00800466 0.122827)
(0.758608 -0.0456576 -0.103612)
(0.852147 0.00305293 -0.110956)
(0.733756 0.0063342 -0.0571724)
(0.570272 0.00386075 -0.036003)
(0.525995 0.0628825 -0.120957)
(0.570635 0.0103138 -0.153334)
(0.66912 -0.0633884 -0.0509112)
(0.492077 0.00695559 -0.161366)
(0.73401 -0.0729847 -0.258179)
(0.805872 -0.0914513 -0.265869)
(0.769702 -0.066409 -0.151915)
(0.694919 -0.0159002 -0.0634667)
(0.427901 -0.00745671 -0.108622)
(0.386332 0.0289725 -0.202635)
(0.373482 0.014537 -0.161654)
(0.677641 -0.103864 -0.0423775)
(0.406285 -0.050344 -0.00178674)
(0.400627 0.10779 -0.095861)
(0.645696 0.0993607 -0.162713)
(0.547658 0.0475389 -0.121481)
(0.87668 -0.0486973 -0.0725572)
(0.680399 -0.0210015 -0.200728)
(0.581102 0.0076974 -0.164192)
(0.425085 0.0324413 -0.113164)
(0.415759 -0.0042731 -0.0576461)
(0.453494 -0.00848175 -0.0835938)
(0.601322 -0.0145058 -0.0638854)
(0.580408 -0.0208513 -0.119545)
(0.90241 -0.0458059 -0.186938)
(0.703282 -0.0860061 -0.168072)
(0.573127 -0.0366486 -0.177351)
(0.677836 -0.0844531 -0.166945)
(0.734116 0.00670718 -0.141592)
(0.646416 0.00640967 -0.139858)
(0.582332 -0.0190736 -0.0705347)
(0.407057 0.0706237 -0.0587293)
(0.560177 0.0297101 -0.0241982)
(0.66936 0.0240142 -0.0853123)
(0.38812 0.0529826 -0.00947063)
(0.472504 -0.0155835 0.0208809)
(0.662381 -0.0675968 -0.0611291)
(0.801481 -0.0352165 -0.0953638)
(0.76202 0.0295845 -0.0662484)
(0.546215 0.029467 -0.13924)
(0.392567 0.0828489 -0.128259)
(0.547988 0.0305202 -0.112203)
(0.550545 -0.0368583 -0.0521186)
(0.391589 0.0273322 -0.162896)
(0.640783 -0.0470106 -0.187468)
(0.776875 -0.132402 -0.0996733)
(0.832368 -0.0643168 -0.0843685)
(0.694604 0.0120684 -0.111652)
(0.484155 0.0295279 -0.0419813)
(0.472467 0.0235662 -0.142372)
(0.43738 0.0592246 -0.197077)
(0.727166 -0.055912 -0.173175)
(0.602981 -0.0868504 -0.041411)
(0.46225 0.0965911 -0.0574686)
(0.622865 0.12047 -0.124461)
(0.470272 0.0572461 -0.116086)
(0.809304 -0.0339352 0.0146517)
(0.776029 -0.00792764 -0.0848177)
(0.556276 0.0737468 -0.184107)
(0.664416 0.0572978 -0.183612)
(0.721567 -0.0264401 -0.11757)
(0.629111 -0.0457047 -0.071586)
(0.59414 -0.0192966 -0.112732)
(0.634147 0.000111891 -0.109264)
(0.923538 -0.0541598 -0.138739)
(0.774646 -0.0671365 -0.118916)
(0.64438 -0.0265752 -0.239687)
(0.757931 -0.0600292 -0.200373)
(0.558278 0.0150625 -0.100658)
(0.537289 0.00654526 -0.133788)
(0.580622 0.00136787 -0.124467)
(0.414214 0.0851663 -0.0232299)
(0.63556 0.0385829 -0.0412927)
(0.655745 0.036185 -0.0372255)
(0.470806 0.0960666 -0.0576618)
(0.624639 0.0296096 -0.0882525)
(0.597946 -0.0325848 -0.0937365)
(0.601186 -0.0121893 -0.0401582)
(0.808983 0.0572628 -0.0731367)
(0.557155 0.0123725 -0.174804)
(0.425785 0.0704331 -0.0740027)
(0.66182 0.0218023 -0.0417672)
(0.567932 -0.0416242 -0.106294)
(0.363884 0.0308665 -0.207112)
(0.641747 -0.0344234 -0.197037)
(0.709516 -0.135099 -0.0638197)
(0.80676 -0.0748408 -0.0661257)
(0.718458 -0.0137308 -0.100563)
(0.506336 0.0101088 0.00487919)
(0.476598 0.00774384 -0.115807)
(0.498574 0.044308 -0.248633)
(0.754821 -0.0737617 -0.191315)
(0.682665 -0.0715944 -0.122632)
(0.57613 0.0959659 -0.0628437)
(0.563937 0.168483 -0.0535735)
(0.591826 0.057386 -0.0739051)
(0.852258 -0.0438374 0.0788508)
(0.684283 0.00113119 -0.0025058)
(0.494207 0.0733397 -0.12175)
(0.923621 -0.0111375 -0.0644497)
(0.99687 -0.0729166 -0.0240475)
(0.758526 -0.052542 -0.0333506)
(0.64663 -0.0400583 -0.0823043)
(0.713277 -0.0262506 -0.0429698)
(0.881107 -0.0589916 -0.188306)
(0.789611 -0.0674517 -0.205942)
(0.654575 -0.0352604 -0.194811)
(0.812526 -0.0652562 -0.229697)
(0.591584 0.0362093 -0.0935601)
(0.604233 -0.00544941 -0.12327)
(0.646732 -0.023978 -0.153018)
(0.472074 0.104654 -0.0984157)
(0.646144 0.0223737 -0.055231)
(0.607622 0.0528173 0.0176512)
(0.495981 0.147486 -0.0407773)
(0.651242 0.0485744 -0.065609)
(0.574725 -0.0157272 -0.0087802)
(0.569407 -0.00974169 -0.0443098)
(0.887939 0.0232922 -0.06108)
(0.641189 0.0134181 -0.0868136)
(0.502366 0.0580959 -0.0431611)
(0.671502 0.0521187 -0.0696848)
(0.556703 -0.00857965 -0.125986)
(0.511501 0.0531478 -0.0775489)
(0.719229 -0.0284832 -0.106897)
(0.697692 -0.0676564 -0.136691)
(0.818987 -0.0722079 -0.0986823)
(0.68085 -0.000415456 -0.0661352)
(0.545589 0.0348675 -0.0704878)
(0.54353 0.0186463 -0.137645)
(0.542027 0.0510011 -0.241303)
(0.723642 -0.0742354 -0.189085)
(0.772689 -0.109874 -0.106889)
(0.659757 0.101539 -0.0232317)
(0.544265 0.174756 -0.10644)
(0.674987 0.0600631 -0.0344985)
(0.777921 -0.041171 0.141992)
(0.622167 0.0177272 0.0258136)
(0.644487 0.0654611 -0.0123084)
(1.08547 -0.0218711 -0.0336119)
(1.0632 -0.0791176 0.0448905)
(0.791447 -0.0660599 -0.0310825)
(0.710973 -0.0196317 -0.0784148)
(0.701952 -0.0156998 0.00574196)
(0.825827 -0.0321541 -0.21421)
(0.749928 -0.0364244 -0.20536)
(0.67887 -0.0175948 -0.198101)
(0.833856 -0.0437735 -0.240473)
(0.630946 0.0709897 -0.121729)
(0.600845 0.0387169 -0.194076)
(0.661925 0.0200334 -0.0984927)
(0.506233 0.0757451 -0.101547)
(0.588048 0.00474037 -0.109803)
(0.625181 0.0261892 0.037847)
(0.522317 0.111573 -0.0585947)
(0.684564 0.0807694 -0.0168045)
(0.609354 0.00673536 0.00754249)
(0.60623 0.0128674 -0.0602015)
(0.855388 0.0497168 -0.0392862)
(0.640013 0.0470451 -0.0834585)
(0.451444 0.0738182 -0.101789)
(0.660437 0.0230476 -0.149026)
(0.620448 -0.0244902 -0.154609)
(0.582356 0.0384814 -0.105333)
(0.717465 0.00608686 -0.0078165)
(0.720185 -0.097816 -0.0927195)
(0.842274 -0.077806 -0.0881058)
(0.72105 -0.0218165 -0.0373549)
(0.690025 0.0181139 -0.145904)
(0.617654 0.0259013 -0.20438)
(0.57991 0.0253669 -0.206936)
(0.833078 -0.115106 -0.130471)
(0.725211 -0.104803 -0.124642)
(0.611774 0.0960517 -0.00596382)
(0.654029 0.166037 -0.112434)
(0.576133 0.0855307 0.0821088)
(0.576567 -0.0225841 0.118624)
(0.555825 0.0103853 0.0789093)
(0.794915 0.0265688 0.0468036)
(1.11999 -0.0654193 -0.0588414)
(1.01359 -0.0797398 0.0240976)
(0.785869 -0.0627002 0.0214301)
(0.689585 -0.0366672 -0.0473982)
(0.664348 0.0203403 -0.0366962)
(0.837261 -0.00103706 -0.231871)
(0.836609 -0.0489702 -0.0902969)
(0.77692 -0.0227723 -0.187591)
(0.875729 -0.0133568 -0.320415)
(0.614277 0.0687605 -0.124024)
(0.621672 0.0116466 -0.149434)
(0.685733 0.0042765 -0.116543)
(0.602283 0.0606438 -0.0915927)
(0.562356 -0.0164972 -0.154066)
(0.570043 0.0110008 0.00269858)
(0.51308 0.129391 -0.0321014)
(0.710851 0.105988 -0.0345178)
(0.688175 0.022702 -0.0113971)
(0.600917 0.0197287 -0.0160712)
(0.704304 0.0740136 0.022625)
(0.607273 0.0542914 0.0784475)
(0.51615 0.0808366 -0.0443044)
(0.724255 0.0502085 -0.0867048)
(0.710143 0.00126591 -0.0500887)
(0.551032 0.0783523 -0.0679627)
(0.682676 0.0327039 0.12819)
(0.642356 -0.0348887 0.0968193)
(0.880056 -0.030896 -0.0500218)
(0.757677 -0.0349126 -0.00589763)
(0.644197 0.0116033 -0.103375)
(0.633296 0.0401475 -0.211664)
(0.597287 0.0115853 -0.133904)
(0.94421 -0.0878289 -0.114842)
(0.681293 -0.0524212 -0.168498)
(0.620949 0.116451 -0.122821)
(0.579135 0.22081 -0.0524851)
(0.518691 0.110146 0.0468446)
(0.781456 -0.0443277 0.0254728)
(0.62067 -0.0373781 0.0497203)
(0.760584 0.000476574 -0.0227775)
(1.15718 -0.0526038 -0.160431)
(1.04524 -0.0438144 -0.0315184)
(0.773805 -0.0532048 -0.0092489)
(0.701472 -0.00895772 -0.0686891)
(0.62134 0.067397 -0.0579727)
(0.766347 0.0350623 -0.102622)
(0.872553 -0.0774851 -0.108693)
(0.737422 -0.0690163 -0.0764778)
(0.888829 -0.0149801 -0.249923)
(0.646205 0.0732703 -0.110197)
(0.672709 0.0534372 -0.149683)
(0.704863 0.0261129 -0.183329)
(0.70365 0.0402786 -0.0796334)
(0.606015 -0.00695456 -0.0787036)
(0.570116 0.00366588 -0.0657438)
(0.597017 0.099892 -0.0670375)
(0.631537 0.127247 -0.0146604)
(0.785418 0.101322 0.0205527)
(0.726151 0.062636 -0.0300032)
(0.650957 0.141777 -0.00862656)
(0.744985 0.0740674 0.0122713)
(0.690843 0.0764822 0.0627676)
(0.77169 0.0342444 0.00466025)
(0.677413 0.00295818 -0.0175127)
(0.473646 0.0844688 -0.0717334)
(0.620505 0.0375872 -0.0405127)
(0.659826 -0.0253475 0.117722)
(0.856112 -0.0574721 -0.0744004)
(0.796239 -0.0180719 -0.0668848)
(0.700218 0.00728053 -0.0381961)
(0.642288 0.0155883 -0.173317)
(0.672238 -0.00163043 -0.09587)
(0.975253 -0.0809639 -0.129334)
(0.68006 -0.0734371 -0.153756)
(0.572793 0.11461 -0.119846)
(0.490198 0.202726 0.0603742)
(0.587153 0.019906 0.107857)
(0.871497 -0.0459231 0.04802)
(0.671924 0.00333587 0.0372114)
(0.666475 -0.0067543 0.0689997)
(1.08099 -0.144522 -0.076835)
(1.18255 -0.056686 -0.0723192)
(0.987012 -0.00759003 -0.015428)
(0.806168 -0.0161909 -0.103213)
(0.609221 0.0915806 -0.125995)
(0.725175 0.0562357 -0.0387671)
(0.90198 -0.056252 -0.182499)
(0.749153 -0.0930763 -0.178566)
(0.744274 0.0344409 -0.0836163)
(0.682758 0.0706322 -0.0709441)
(0.771627 -0.0196901 -0.202247)
(0.721997 0.037169 -0.14671)
(0.796907 0.0418455 -0.0443091)
(0.672774 -0.0156805 -0.0469744)
(0.543672 -0.0169069 -0.0549689)
(0.510054 0.0791176 -0.0313733)
(0.542639 0.129022 0.0220423)
(0.773812 0.062723 -0.0824418)
(0.766566 0.0887634 -0.0125262)
(0.575061 0.152423 0.0420461)
(0.784367 0.06574 -0.0461235)
(0.755434 0.0814958 -0.0286665)
(0.804297 0.0370071 -0.0268387)
(0.769391 0.0264324 0.0361383)
(0.548648 0.0711407 -0.0346614)
(0.670715 0.037577 -0.125953)
(0.629203 0.0237302 -0.0176918)
(0.841561 -0.0226611 -0.0257432)
(0.88761 -0.050435 -0.0687203)
(0.824772 0.0169506 -0.022029)
(0.761883 0.0102555 -0.11313)
(0.683844 -0.00350363 -0.139775)
(1.02678 -0.0503917 -0.0539197)
(0.750303 -0.0385066 -0.142884)
(0.499701 0.0420318 -0.0812328)
(0.513096 0.102285 0.0691998)
(0.64675 -0.00705309 0.0640248)
(0.872854 -0.0961528 -0.0038371)
(0.760021 0.00714018 -0.0194132)
(0.656487 -0.0105001 0.0784296)
(0.992873 -0.185324 0.0261091)
(1.08622 -0.0855628 -0.0527468)
(0.977182 -0.00126414 0.0248154)
(0.889945 0.0287141 -0.11188)
(0.654979 0.104493 -0.100516)
(0.810096 0.0393048 -0.0685153)
(0.946247 -0.0198136 -0.0886794)
(0.895105 -0.0772848 -0.153207)
(0.738096 -0.00130652 -0.0511349)
(0.75069 0.0868734 -0.0838815)
(0.765531 -0.00364972 -0.194078)
(0.727372 0.0539658 -0.0367138)
(0.835631 0.049774 0.0415598)
(0.650317 -0.0202345 -0.0628485)
(0.548883 -0.009628 -0.0714554)
(0.518152 0.0780363 -0.0333008)
(0.600731 0.143928 0.0193403)
(0.814676 0.107424 -0.0561467)
(0.727221 0.155876 -0.0122603)
(0.636263 0.190108 0.0951468)
(0.888135 0.0799311 0.0503999)
(0.87055 0.0818211 0.0166132)
(0.885733 0.0483235 0.0142831)
(0.843817 0.0496251 -0.0140148)
(0.630042 0.061048 -0.0171704)
(0.722711 0.0114195 -0.0485741)
(0.591036 0.0312201 -0.0230542)
(0.797087 -0.0417689 -0.0247539)
(0.939636 -0.08922 -0.060101)
(0.905386 -0.0117005 0.0291546)
(0.93118 0.0346779 -0.0537087)
(0.775755 -0.0368335 -0.192745)
(0.93591 -0.134464 -0.131688)
(0.944649 -0.0521947 -0.124528)
(0.641352 0.0166491 -0.139565)
(0.59389 0.0765291 -0.0511867)
(0.804067 0.043557 -0.146582)
(0.924873 -0.0589717 -0.130025)
(0.801461 0.00719424 -0.0345107)
(0.677956 -0.0186706 -0.073204)
(0.855204 -0.181514 -0.0939698)
(1.10717 -0.118987 -0.101484)
(1.03956 0.0107081 -0.00971997)
(0.908223 0.0261102 -0.0602669)
(0.76064 0.0991098 -0.0257247)
(0.840711 0.0277886 -0.00591217)
(0.866242 -0.0763456 0.0103125)
(0.935666 -0.0107832 -0.0789245)
(0.804292 0.0322362 -0.0502749)
(0.776826 0.0274229 -0.0449996)
(0.818521 -0.0443729 -0.182113)
(0.7864 0.0894002 -0.0472733)
(0.934236 0.109692 -0.00692754)
(0.719585 -0.00583143 -0.128704)
(0.570615 -0.00278652 -0.149635)
(0.604804 0.089926 -0.132666)
(0.667044 0.136418 -0.030569)
(0.859121 0.115404 0.0238979)
(0.717199 0.185104 0.00714851)
(0.743084 0.17291 0.117365)
(0.930816 0.0821724 0.0402838)
(0.815031 0.0893548 0.0481278)
(0.752348 0.0734627 0.0706838)
(0.781635 0.0478264 0.00916155)
(0.704201 0.0789003 0.00481422)
(0.7562 0.0651295 -0.00711717)
(0.727734 0.0775084 -0.0338638)
(0.853565 0.00418353 -0.0420253)
(0.921186 -0.0718322 -0.137168)
(0.912596 -0.071255 -0.0615883)
(0.977203 -0.00728666 0.0248829)
(1.00867 0.0206405 -0.148089)
(0.915861 -0.0458543 -0.201201)
(0.926641 -0.0282594 -0.12886)
(0.845557 0.00355522 -0.123146)
(0.763339 0.0137331 -0.0867486)
(0.916468 -0.0270951 -0.124122)
(0.985862 -0.0410289 -0.140985)
(0.90984 0.0256676 -0.0857967)
(0.868878 0.0139633 -0.0723194)
(0.806805 -0.0936783 -0.0947979)
(1.0278 -0.132583 -0.086008)
(1.08599 -0.0539005 -0.0736954)
(0.898982 0.0316382 -0.0825172)
(0.771012 0.128518 -0.096175)
(0.808669 0.0724716 -0.035709)
(0.866735 -0.0432627 0.0462225)
(0.964904 -0.0263013 -0.0540475)
(0.863755 0.0650737 -0.107848)
(0.785613 0.02345 0.00446343)
(0.866162 -0.0666524 -0.0628978)
(0.784295 0.0489533 -0.143333)
(0.966913 0.0663135 -0.0516407)
(0.809185 -0.0392621 -0.0853428)
(0.549946 -0.0246801 -0.151729)
(0.640833 0.11361 -0.145491)
(0.719231 0.149769 -0.0715621)
(0.776902 0.131379 0.0187866)
(0.693403 0.186771 0.0596169)
(0.877302 0.130053 0.0157353)
(0.96574 0.126167 0.0534842)
(0.827785 0.166997 0.0849533)
(0.747025 0.126883 0.0566534)
(0.771893 0.100226 0.0455894)
(0.773434 0.0855735 0.0381143)
(0.718968 0.0476069 0.00171691)
(0.806731 0.0373819 -0.0723084)
(0.980856 0.0067039 -0.0386594)
(0.935482 -0.0677075 -0.0603987)
(0.929212 -0.10022 -0.0657025)
(0.977622 -0.00761634 -0.00291512)
(0.978577 0.0341693 -0.110206)
(0.919549 -0.0465755 -0.159915)
(0.871752 -0.0704886 -0.130483)
(0.907222 -0.0237861 -0.0738077)
(0.939178 0.00652493 -0.0856091)
(1.01655 -0.0348159 -0.140826)
(1.02746 -0.0696071 -0.0792181)
(0.96433 0.00178499 -0.0182355)
(0.972514 0.0105053 -0.0208886)
(0.904188 -0.0885471 -0.128145)
(0.979857 -0.122915 -0.0865646)
(1.09915 -0.0544047 0.0856819)
(0.957975 0.0219733 0.0207599)
(0.84229 0.0890557 -0.122668)
(0.946885 0.0641412 -0.159603)
(1.02186 -0.00626969 -0.0662784)
(0.964791 -0.0631233 0.0287645)
(0.886665 0.0293414 -0.0682977)
(0.898136 0.08932 -0.039064)
(0.977272 0.00764389 -0.0587617)
(0.825675 -0.0134321 -0.225005)
(0.958664 -0.00131507 -0.110965)
(0.985988 -0.0453656 -0.00999394)
(0.734645 -0.0630502 -0.110385)
(0.688867 0.0285715 -0.136198)
(0.692472 0.100728 -0.0870004)
(0.730494 0.107946 -0.0599832)
(0.751249 0.155772 -0.00174023)
(0.959052 0.0962797 -0.0835747)
(0.981686 0.0628414 -0.0388169)
(0.89963 0.126526 0.0787686)
(0.857572 0.117364 0.146981)
(0.860046 0.092425 0.0888029)
(0.83945 0.105928 0.0296117)
(0.809342 0.0742461 0.00422208)
(0.846635 0.0227018 -0.0113611)
(0.995686 0.00453814 -0.00525315)
(1.0497 -0.0189342 -0.0266868)
(0.963881 -0.0971288 0.00277131)
(0.901092 -0.0397114 0.0291859)
(0.953816 0.029168 -0.0244091)
(0.99243 -0.00855645 -0.0934522)
(0.926039 -0.0410215 -0.121496)
(0.91768 -0.0482065 -0.065313)
(1.0034 -0.0478657 -0.0142707)
(1.09897 -0.0514191 -0.108871)
(1.04561 -0.0195554 -0.139674)
(0.98077 0.0454306 -0.0327074)
(1.04085 0.0437203 0.0271942)
(0.994837 -0.0412809 -0.0424063)
(1.00283 -0.0967272 -0.118367)
(1.16658 -0.0374492 -0.00377676)
(1.19216 0.0269088 0.0727308)
(1.09697 0.0796146 0.0444138)
(1.16092 0.0520439 -0.0198328)
(1.12616 -0.014552 -0.0497918)
(0.93822 -0.0142567 0.0068229)
(0.882756 0.0365315 0.0127615)
(0.893544 0.0573547 0.0392719)
(0.994027 0.00817404 -0.0216454)
(0.920181 0.018183 -0.201483)
(0.978938 0.00503242 -0.10624)
(1.04027 -0.0644276 0.0139693)
(0.864068 -0.0779229 -0.0554122)
(0.701003 0.0270871 -0.0769447)
(0.658272 0.120501 -0.0772639)
(0.733095 0.146088 -0.0647421)
(0.840227 0.17096 -0.0501818)
(0.971796 0.0642438 -0.163066)
(0.960787 0.0683595 -0.109648)
(0.914143 0.130626 0.0445918)
(0.889624 0.150862 0.141686)
(0.915277 0.147878 0.113892)
(0.965409 0.138454 0.08225)
(0.989449 0.0899903 0.0591987)
(0.915703 0.0539315 0.092279)
(0.93363 0.0324235 0.0616224)
(1.05558 0.00984997 -0.0887383)
(1.09974 -0.0358793 -0.108613)
(1.01654 -0.0214165 -0.0227446)
(1.00266 -0.00535307 -0.0252407)
(0.995319 -0.0392662 -0.0562026)
(0.948396 -0.0359087 -0.081693)
(0.917763 -0.0518347 -0.102886)
(0.937378 -0.0794359 -0.0586655)
(1.02793 -0.0797519 -0.0282408)
(1.09155 -0.0280298 -0.0447762)
(1.05493 0.0366357 -0.0263104)
(1.05327 0.0161668 -0.00682167)
(1.04599 -0.044687 -0.0438844)
(1.04969 -0.086555 -0.0664845)
(1.14728 -0.0215089 0.0398896)
(1.21594 0.0160387 0.129645)
(1.19302 0.0203416 0.126886)
(1.182 0.013761 0.0952555)
(1.12147 0.00661168 0.0439289)
(0.972967 -0.0116749 -0.0311997)
(0.812041 -0.0127611 -0.0991004)
(0.742496 0.0164322 -0.0139632)
(0.928676 0.0183261 0.0320675)
(0.997968 0.00503503 -0.126317)
(0.984538 -0.0337063 -0.125492)
(1.05486 -0.0754821 0.0220977)
(1.00305 -0.0830172 0.0287779)
(0.824004 -0.00639174 -0.0512752)
(0.725212 0.0780534 -0.101776)
(0.778809 0.10395 -0.118548)
(0.898248 0.104676 -0.154173)
(0.819211 0.0545379 -0.120774)
(0.786795 0.057635 -0.0780461)
(0.818937 0.10317 0.0249337)
(0.840678 0.13785 0.104816)
(0.825992 0.137098 0.116847)
(0.856815 0.104013 0.132487)
(0.925104 0.0705586 0.0746747)
(0.933375 0.0633833 0.0369182)
(0.983984 0.0547115 0.0689685)
(1.05186 0.0089918 -0.00490384)
(1.05664 -0.0367701 -0.090056)
(1.05004 -0.0245037 -0.0318189)
(1.05472 -2.53272e-05 0.0297261)
(0.991491 -0.00880009 0.0205716)
(0.949377 -0.0054961 -0.0227175)
(1.02365 -0.00656265 -0.0823963)
(1.05251 -0.0218524 -0.0667452)
(1.02262 -0.0307642 -0.0467926)
(1.04639 0.00681298 -0.0744063)
(1.01127 0.036978 -0.0596934)
(0.953515 0.00044166 0.000980381)
(0.987103 -0.0524186 -0.00204267)
(1.02297 -0.0563016 -0.0646416)
(1.09288 -0.00975005 -0.00492763)
(1.16837 0.0109545 0.106604)
(1.20382 0.028193 0.131402)
(1.18863 0.0379869 0.0771938)
(1.11156 0.0557717 0.0371658)
(0.991505 0.0443189 -0.0192092)
(0.799836 -0.00235843 -0.0839105)
(0.695983 -0.00600513 -0.00876521)
(0.874921 0.00335667 0.0559924)
(1.02515 0.0115014 -0.0726121)
(1.00165 -0.0439451 -0.144597)
(0.971118 -0.0946988 -0.0203323)
(0.943553 -0.0677967 0.0730054)
(0.880931 0.0366158 -0.0138496)
(0.852702 0.118568 -0.134202)
(0.844812 0.090324 -0.180486)
(0.85017 0.0706727 -0.164875)
(0.789298 0.0456184 -0.0645219)
(0.762879 0.0433444 -0.0743839)
(0.750503 0.0631816 -0.0580665)
(0.767208 0.0700312 0.0205447)
(0.772387 0.0638232 0.0883029)
(0.765088 0.0788052 0.120958)
(0.785615 0.0728772 0.0867175)
(0.8626 0.0530511 0.0549181)
(0.961633 0.0626886 0.0986393)
(1.0404 0.0490678 0.0814487)
(1.09789 -0.0164005 0.00209249)
(1.08829 -0.043071 -0.0211238)
(1.07038 -0.0124048 -0.00297348)
(1.03193 0.0206692 0.0154084)
(1.02335 0.0217603 0.00380476)
(1.08333 -0.00223071 -0.00137311)
(1.09225 -0.0239573 0.0261142)
(1.0417 -0.029498 -0.0110656)
(1.00752 0.00406302 -0.0866724)
(1.01299 0.0367025 -0.0717528)
(1.00708 0.00548591 0.0134404)
(1.01297 -0.0470578 0.0219997)
(1.04105 -0.0558356 -0.0656442)
(1.05643 -0.00613892 -0.064913)
(1.08756 0.0111095 0.0325735)
(1.10015 0.0219033 0.0820148)
(1.07449 0.0352625 0.0399135)
(1.01746 0.0543987 -0.0307093)
(0.960106 0.068794 -0.0406122)
(0.873771 0.0269831 -0.0310977)
(0.791288 -0.011226 -0.00790142)
(0.881161 0.00397444 0.00794957)
(1.00705 0.0396237 -0.0793633)
(1.02668 0.00697539 -0.124854)
(0.955865 -0.0567553 -0.0351526)
(0.913647 -0.0489469 0.0704158)
(0.900586 0.00379403 0.0223796)
(0.87626 0.0377921 -0.111582)
(0.822206 0.0417341 -0.173345)
(0.795368 0.051046 -0.127102)
(0.782358 0.0301379 -0.0926949)
(0.802981 0.0103453 -0.0739344)
(0.819557 0.00646594 -0.0724209)
(0.846329 0.0334226 -0.0661369)
(0.906063 0.0800804 -0.0196057)
(0.932276 0.107934 0.0689287)
(0.895311 0.070103 0.125612)
(0.864143 0.00568443 0.108799)
(0.893212 -0.0111425 0.0883595)
(0.972662 -0.00524697 0.0668614)