/*--------------------------------*- C++ -*----------------------------------*\
  =========                 |
  \\      /  F ield         | OpenFOAM: The Open Source CFD Toolbox
   \\    /   O peration     | Website:  https://openfoam.org
    \\  /    A nd           | Version:  10
     \\/     M anipulation  |
\*---------------------------------------------------------------------------*/
FoamFile
{
    format      ascii;
    class       volVectorField;
    location    "13";
    object      UMean;
}
// * * * * * * * * * * * * * * * * * * * * * * * * * * * * * * * * * * * * * //

dimensions      [0 1 -1 0 0 0 0];

internalField   nonuniform List<vector> 
25600
(
(0.0697983 -0.0188297 -0.00110302)
(0.0614601 -0.0181448 0.00910841)
(0.0644824 -0.0178578 0.0311612)
(0.0686818 -0.0187489 0.0205839)
(0.0675658 -0.0190899 0.00171903)
(0.0662372 -0.0189342 -0.00214357)
(0.0704705 -0.0187369 -0.00690586)
(0.0665076 -0.0189095 -0.0112167)
(0.0691797 -0.0194053 -0.00325049)
(0.0806968 -0.019137 0.00990434)
(0.0842774 -0.0189711 0.0217112)
(0.0771592 -0.0185232 0.020101)
(0.0716252 -0.0187648 -0.00221289)
(0.0786745 -0.0192546 -0.0126397)
(0.0995328 -0.0192026 -0.00188449)
(0.102014 -0.0190961 -0.000450591)
(0.0882209 -0.0193842 -0.00426554)
(0.0826704 -0.0192441 -0.000107366)
(0.0897017 -0.0194368 -0.00762532)
(0.0909404 -0.0194693 -0.00384657)
(0.0806272 -0.0193876 0.00361728)
(0.0934847 -0.018765 0.0216076)
(0.116578 -0.0184955 0.0373606)
(0.127059 -0.0188574 0.0227454)
(0.150197 -0.0201 -0.00435497)
(0.165562 -0.0201336 -0.0160305)
(0.156067 -0.0194299 -0.0105417)
(0.135073 -0.0187533 -0.0103126)
(0.119907 -0.0190642 -0.0182985)
(0.128983 -0.0197836 -0.00989855)
(0.151133 -0.0196715 0.010034)
(0.154515 -0.0195096 0.0168086)
(0.138613 -0.0194675 0.0121913)
(0.127081 -0.0193853 0.0041685)
(0.106898 -0.0189095 -0.01412)
(0.0853643 -0.0201576 -0.00257271)
(0.0825418 -0.0196318 0.0367509)
(0.0692359 -0.0160581 0.0522473)
(0.0459119 -0.0156255 0.0452126)
(0.061638 -0.018667 0.0212147)
(0.170532 0.0132451 -0.0151785)
(0.154031 0.0144396 0.0109305)
(0.15403 0.0130997 0.0377452)
(0.165368 0.0129871 0.0095259)
(0.186344 0.0123119 -0.0209437)
(0.18157 0.0122363 -0.0295607)
(0.181563 0.0141668 -0.0386497)
(0.188016 0.0132206 -0.0416989)
(0.190475 0.0086885 -0.0162593)
(0.19738 0.00718831 0.0109944)
(0.198079 0.00854996 0.0183133)
(0.190166 0.0127348 0.000764821)
(0.193414 0.0143926 -0.0354586)
(0.196013 0.011232 -0.0344535)
(0.241802 0.0135425 -0.0171536)
(0.279521 0.0163327 -0.0406161)
(0.248009 0.0144069 -0.0456959)
(0.219773 0.0131994 -0.0261967)
(0.248665 0.0136323 -0.0463651)
(0.252353 0.0113329 -0.0450733)
(0.20176 0.0106613 -0.0205517)
(0.216786 0.00997012 0.0150184)
(0.280324 0.0103879 0.0353335)
(0.319373 0.0102157 0.00862797)
(0.378037 0.00748279 -0.0326225)
(0.420214 0.00900817 -0.0528481)
(0.426363 0.0124569 -0.0408402)
(0.405427 0.0121112 -0.0318179)
(0.350865 0.011461 -0.0517372)
(0.331491 0.0117741 -0.0541388)
(0.379774 0.0102311 -0.0205941)
(0.426726 0.0101521 0.0105674)
(0.404135 0.0115651 0.0119013)
(0.362138 0.0131218 -0.00896884)
(0.329747 0.013835 -0.0408026)
(0.282045 0.00830462 -0.00962304)
(0.215267 0.00697739 0.0524012)
(0.168805 0.0157868 0.0685383)
(0.135006 0.0151747 0.0554028)
(0.1607 0.0117032 0.0135128)
(0.275251 0.000979117 -0.00829545)
(0.262301 0.00295667 0.0237946)
(0.242073 0.000927152 0.0528711)
(0.257135 -0.000393552 0.0165437)
(0.322869 -0.00242417 -0.024284)
(0.325055 -0.00410482 -0.0377157)
(0.290098 -0.00198384 -0.0459687)
(0.306339 -0.00269846 -0.0511166)
(0.31333 -0.00977683 -0.0202994)
(0.296634 -0.0124111 0.0249206)
(0.290759 -0.00878084 0.0318267)
(0.290227 -0.000269723 -0.00274553)
(0.31008 0.00298079 -0.0533069)
(0.291686 -0.00370454 -0.0415213)
(0.30082 -0.0034471 0.00586638)
(0.439883 0.00490155 -0.0429595)
(0.448343 0.00437048 -0.0846347)
(0.369924 0.000488153 -0.0490875)
(0.413374 0.000513299 -0.0592391)
(0.444416 -0.00226066 -0.0782259)
(0.350767 -0.0053488 -0.0515087)
(0.315693 -0.006485 -3.16561e-05)
(0.372724 -0.00514526 0.0211351)
(0.44487 -0.00477776 -0.0222731)
(0.535504 -0.0113712 -0.0662273)
(0.578702 -0.0106609 -0.0794449)
(0.58975 -0.00378482 -0.0641444)
(0.630782 -0.000456037 -0.0344365)
(0.623203 -0.00317018 -0.0405381)
(0.564177 -0.00520226 -0.06642)
(0.552574 -0.00972482 -0.0616894)
(0.594998 -0.0108073 -0.0254019)
(0.617079 -0.00571857 0.0130561)
(0.598106 -0.00230593 0.00947002)
(0.626109 -0.00121453 -0.0509272)
(0.611676 -0.0113665 -0.0230437)
(0.396609 -0.0130874 0.0607714)
(0.278503 0.00375388 0.0771978)
(0.245231 0.00445141 0.0626295)
(0.250571 -0.00296834 0.0217225)
(0.370814 0.0130355 0.00485543)
(0.400965 0.0175521 0.0460122)
(0.355831 0.0127868 0.074796)
(0.328849 0.00861613 0.0413875)
(0.428821 0.00697042 8.48206e-05)
(0.502102 0.00860218 -0.0300537)
(0.441511 0.0060682 -0.0396811)
(0.430257 0.00273323 -0.0437717)
(0.438775 -0.00434448 -0.0299001)
(0.383941 -0.00837431 0.0292125)
(0.342482 -0.00729666 0.0630866)
(0.355559 0.00802627 0.0166314)
(0.404062 0.0183899 -0.0624097)
(0.384007 0.0105338 -0.0545175)
(0.337749 0.00415763 0.0258918)
(0.461809 0.0121494 -0.00585699)
(0.599276 0.0191324 -0.0999263)
(0.51945 0.0151331 -0.0859891)
(0.524084 0.0132399 -0.0588829)
(0.617974 0.0158858 -0.0795306)
(0.534237 0.0102115 -0.0827652)
(0.434104 0.00513328 -0.0230887)
(0.436845 0.00543162 0.00958187)
(0.510642 0.00551277 -0.0477601)
(0.636132 -0.00168055 -0.109298)
(0.702433 -0.00136465 -0.117353)
(0.660995 0.0065634 -0.097947)
(0.676353 0.011727 -0.0548059)
(0.746049 0.00900921 -0.0222842)
(0.766299 0.00522466 -0.0366227)
(0.768721 -0.00116836 -0.0615573)
(0.742469 -0.00585885 -0.0637823)
(0.710663 -7.75242e-05 -0.0300872)
(0.69275 0.00510612 0.0183802)
(0.798288 0.00363669 -0.0410986)
(0.99721 -0.002826 -0.0697034)
(0.701773 0.00130072 0.0437267)
(0.428962 0.0182496 0.0964023)
(0.435421 0.00705656 0.0745971)
(0.348353 0.00126632 0.0233234)
(0.471016 0.00125959 0.00306656)
(0.590324 0.0142811 0.0635162)
(0.582031 0.0105226 0.102094)
(0.467529 -0.00150983 0.06621)
(0.467165 -0.00857823 0.0444658)
(0.585665 -0.0011292 0.0228354)
(0.630031 6.93369e-05 -0.0119205)
(0.625678 -0.00778358 -0.0312683)
(0.624335 -0.0122416 -0.0490611)
(0.548676 -0.0157726 -0.0109687)
(0.432041 -0.0244091 0.0650365)
(0.379324 -0.00923677 0.0479529)
(0.45657 0.0139715 -0.0495019)
(0.460412 0.00914223 -0.0647648)
(0.39108 -0.00304671 0.0260998)
(0.45507 0.00184681 0.0286948)
(0.644841 0.0111735 -0.0748079)
(0.628008 0.0136726 -0.112185)
(0.582093 0.012231 -0.068906)
(0.667544 0.0147442 -0.0569366)
(0.671856 0.014057 -0.0834737)
(0.577617 0.00498945 -0.0547922)
(0.538987 0.00245407 -0.00685135)
(0.58803 -0.00315683 -0.0251055)
(0.704955 -0.0158109 -0.0943795)
(0.800281 -0.0098204 -0.137305)
(0.737237 0.000815196 -0.129028)
(0.701974 0.00390885 -0.0932097)
(0.768234 0.00116039 -0.0242241)
(0.828717 -0.00495097 -0.00712269)
(0.897689 -0.0112197 -0.0361249)
(0.927923 -0.0132247 -0.0579468)
(0.810127 -0.00973508 -0.0748259)
(0.740873 -0.00391461 -0.0208294)
(0.814053 -0.0155731 -0.00287158)
(1.09242 -0.0236178 -0.0775219)
(0.951875 -0.000506386 -0.0365622)
(0.730575 0.0199001 0.0789692)
(0.888926 0.0019471 0.125748)
(0.643367 -0.0140345 0.0460156)
(0.670423 0.00737679 0.0120302)
(0.679359 0.0122633 0.0413646)
(0.797222 0.0183411 0.114794)
(0.710997 0.00679226 0.0875763)
(0.57352 -0.0111985 0.067527)
(0.573389 -0.00518144 0.0805175)
(0.66813 -0.00271903 0.0560401)
(0.747019 -0.0141233 0.00635525)
(0.783297 -0.0144616 -0.0485267)
(0.763278 -0.00301656 -0.0672563)
(0.645005 -0.0181204 0.0126593)
(0.443484 -0.0151571 0.054627)
(0.465309 0.0134385 -0.0258653)
(0.501995 0.01336 -0.0464092)
(0.452634 -0.00291223 0.0264031)
(0.468153 0.000579293 0.056938)
(0.644249 0.0119205 -0.0373923)
(0.66478 0.0217108 -0.106884)
(0.602117 0.0189645 -0.0743681)
(0.661964 0.0233514 -0.0386993)
(0.698187 0.0235368 -0.0466926)
(0.677415 0.016082 -0.0593673)
(0.657628 0.0134062 -0.0378873)
(0.680909 7.69061e-06 -0.00776847)
(0.729173 -0.0240133 -0.0368549)
(0.825617 -0.0166245 -0.106927)
(0.817012 0.00619488 -0.128848)
(0.757976 0.00597632 -0.133057)
(0.808754 -0.000508937 -0.0674871)
(0.886516 -0.00510422 -0.0128812)
(0.903631 -0.0137344 -0.0233071)
(0.980223 -0.014521 -0.0349828)
(0.904158 -0.00318418 -0.0793468)
(0.778752 0.00164748 -0.0550397)
(0.819272 -0.0223077 0.00580995)
(1.07777 -0.0368211 -0.0388138)
(0.98633 0.0032309 -0.0529099)
(0.702086 0.0225497 0.0248512)
(1.09199 -0.00044407 0.12747)
(1.12799 -0.00112467 0.109332)
(0.85414 0.0207672 0.0316756)
(0.721493 0.0067259 -0.00605199)
(0.832551 0.00690703 0.0655911)
(0.833956 0.0074158 0.0877207)
(0.717981 -0.0101629 0.0869174)
(0.622735 -0.010858 0.114522)
(0.686597 -0.0104201 0.107631)
(0.752089 -0.0297816 0.054721)
(0.746471 -0.0334628 -0.0173342)
(0.812388 -0.00907651 -0.0699051)
(0.860358 -0.00878768 -0.0355006)
(0.608592 -0.0139506 0.0258523)
(0.479595 0.00805823 -0.0028103)
(0.561134 0.00481757 -0.0110409)
(0.558599 -0.0211033 0.0378867)
(0.520738 -0.0145007 0.07253)
(0.639853 0.00546809 -0.00746556)
(0.672885 0.0213317 -0.0871684)
(0.595806 0.0199635 -0.0718321)
(0.616751 0.0273386 -0.0170847)
(0.666705 0.0237104 -0.00220264)
(0.717008 0.0137687 -0.0316453)
(0.72174 0.0175297 -0.0505743)
(0.750366 0.00153658 -0.0108196)
(0.765358 -0.036861 -0.00503445)
(0.77141 -0.03367 -0.0686573)
(0.859323 -0.00662177 -0.103474)
(0.867042 -0.00183754 -0.13686)
(0.873748 -0.0136391 -0.117424)
(0.947944 -0.0133148 -0.0470625)
(0.928252 -0.019375 -0.0229731)
(0.949807 -0.0212834 -0.0272707)
(0.932803 -0.00324083 -0.0749914)
(0.841105 0.00351348 -0.0686546)
(0.853374 -0.0292151 0.00107741)
(1.03497 -0.0503547 -0.0189709)
(0.986263 5.93418e-05 -0.046454)
(0.716552 0.0165771 -0.00268085)
(0.928223 -0.0276592 0.037002)
(1.21504 -0.0108218 0.0909154)
(0.896785 0.0319685 0.0378182)
(0.763929 0.0139477 -0.0331373)
(0.83364 -0.000100455 -0.00840867)
(0.851073 0.0091274 0.0477518)
(0.806645 0.00081986 0.0881817)
(0.713173 -0.00629183 0.135917)
(0.71915 -0.00709722 0.140006)
(0.788757 -0.024204 0.0922337)
(0.731663 -0.0354618 0.00677715)
(0.703287 -0.0207837 -0.0322299)
(0.890356 -0.0079182 -0.0185454)
(0.786686 0.00369401 0.00555226)
(0.599665 0.0154464 -0.000358202)
(0.719317 0.000175428 -0.0216452)
(0.759733 -0.0365454 0.0198717)
(0.630863 -0.0279378 0.0689534)
(0.65753 0.00356506 0.0208289)
(0.66884 0.0312209 -0.0622755)
(0.592718 0.0310697 -0.0629974)
(0.565522 0.0369963 0.0141852)
(0.607963 0.0290792 0.0567294)
(0.719491 0.0127812 0.00314738)
(0.73216 0.0223541 -0.0410009)
(0.757043 0.0077717 -0.00253997)
(0.817894 -0.0345327 0.000705702)
(0.749717 -0.0458087 -0.0572399)
(0.835078 -0.0199378 -0.0779782)
(0.961595 -0.00753285 -0.109546)
(0.947912 -0.01907 -0.128223)
(0.978638 -0.0168677 -0.0675861)
(0.943573 -0.0158409 -0.0211145)
(0.920536 -0.0152425 -0.0197307)
(0.951095 0.00363328 -0.0661185)
(0.902179 0.011428 -0.0740694)
(0.874827 -0.0288931 -0.0020975)
(1.02821 -0.0522213 -0.00146532)
(1.00778 0.0129959 -0.0264144)
(0.730984 0.0289154 -0.0263298)
(0.784342 -0.0341476 -0.0524436)
(1.10326 -0.0239059 0.0339436)
(0.878151 0.0335978 0.0349306)
(0.786834 0.0178233 -0.0366496)
(0.853021 -0.00889452 -0.0419922)
(0.873288 0.00519479 0.0189746)
(0.864266 0.00573715 0.0584323)
(0.808094 -0.00410345 0.117325)
(0.750822 -0.00688314 0.155121)
(0.813695 -0.0178004 0.121495)
(0.814867 -0.029475 0.0183516)
(0.691608 -0.0282196 -0.0153506)
(0.798206 -0.0218112 0.0406551)
(0.818412 0.00457515 0.0486167)
(0.738696 0.0215334 -0.00425684)
(0.898913 0.00015646 -0.0655517)
(0.994096 -0.0395371 -0.0415442)
(0.813662 -0.0394164 0.0379198)
(0.720404 0.00262408 0.0299744)
(0.677137 0.0390921 -0.0426777)
(0.585368 0.0412675 -0.0532308)
(0.547323 0.0412253 0.0344772)
(0.594409 0.0212968 0.108021)
(0.70769 0.00207278 0.0440527)
(0.736768 0.0185055 -0.0235471)
(0.749396 0.00637337 0.0095153)
(0.818375 -0.0339888 0.00587686)
(0.790286 -0.0561469 -0.0605062)
(0.821389 -0.040287 -0.0664662)
(0.978671 -0.019042 -0.0757527)
(0.988563 -0.0222444 -0.113768)
(0.975764 -0.0238527 -0.0752747)
(0.939106 -0.0165261 -0.0183498)
(0.897053 -0.0154631 -0.0104702)
(0.952325 0.0022181 -0.0526608)
(0.952766 0.0220406 -0.074209)
(0.872735 -0.0334047 -0.00635891)
(1.02555 -0.0686838 0.00859577)
(1.06911 0.0206229 0.00138203)
(0.791006 0.0475736 -0.0264908)
(0.781508 -0.0364663 -0.0915524)
(0.987234 -0.0352704 -0.0138662)
(0.879751 0.0318508 0.0258125)
(0.832829 0.0253221 -0.0233246)
(0.865128 -0.00881424 -0.0454441)
(0.869748 0.00140122 0.00749496)
(0.894345 0.00706439 0.038045)
(0.880046 -0.00116955 0.0810032)
(0.79451 -0.00391662 0.144345)
(0.811128 -0.0128403 0.143667)
(0.86924 -0.016339 0.0340877)
(0.809562 -0.0199897 -0.0286834)
(0.776215 -0.027706 0.0635401)
(0.763803 1.428e-05 0.106348)
(0.785822 0.0153221 0.0417916)
(0.951259 -0.00479744 -0.034854)
(1.06697 -0.0415306 -0.0418437)
(0.952749 -0.040009 0.00885282)
(0.809741 0.00955468 0.00967327)
(0.682898 0.0534424 -0.0375493)
(0.577842 0.0570032 -0.0355372)
(0.599178 0.0433732 0.0320602)
(0.690603 0.00719033 0.121338)
(0.75019 -0.0163217 0.0895785)
(0.760235 0.0106256 0.0101668)
(0.769978 0.00695134 0.0300789)
(0.80261 -0.0293646 0.0301654)
(0.809249 -0.0550939 -0.0495429)
(0.842706 -0.0564919 -0.0606287)
(0.969797 -0.0285013 -0.0447342)
(1.0047 -0.022207 -0.0905773)
(0.963423 -0.0253503 -0.0770556)
(0.920805 -0.0108114 -0.01381)
(0.890113 -0.0101204 0.00571618)
(0.933987 0.00250916 -0.028292)
(0.972245 0.0329025 -0.0830205)
(0.917347 -0.0188485 -0.0237132)
(0.989901 -0.0727774 0.0264983)
(1.03767 0.0209086 -0.0126787)
(0.860202 0.0607275 -0.0378232)
(0.875232 -0.0273098 -0.0934959)
(0.948843 -0.0378323 -0.0463644)
(0.911103 0.023454 0.000235347)
(0.888551 0.0235131 -0.0203487)
(0.881852 -0.000169082 -0.0335061)
(0.858739 0.00455281 0.00489855)
(0.900713 0.0017733 0.0307027)
(0.921837 -0.00364976 0.0563248)
(0.849717 0.00012083 0.118079)
(0.837253 -0.00787481 0.15336)
(0.861082 -0.0150303 0.056168)
(0.887284 -0.00652235 -0.0422779)
(0.852757 -0.0220732 0.0380674)
(0.745613 -0.0119267 0.126084)
(0.775637 -0.000800692 0.0867797)
(0.950405 -0.0174593 0.0147523)
(1.03139 -0.0509748 -0.00222619)
(0.948354 -0.0455749 0.00588943)
(0.829589 0.0179422 -0.00528446)
(0.651168 0.0698025 -0.0128782)
(0.571335 0.0646777 -0.00547352)
(0.672319 0.0402011 -0.00697758)
(0.833699 -0.00727514 0.0605711)
(0.865473 -0.0322264 0.0880133)
(0.826742 -0.000441669 0.0350733)
(0.816473 0.00662913 0.0485759)
(0.814093 -0.0213665 0.0590782)
(0.818464 -0.0536223 -0.0236022)
(0.862457 -0.0653269 -0.0527765)
(0.966892 -0.040056 -0.0211601)
(1.00093 -0.0231597 -0.0663378)
(0.953678 -0.0218254 -0.0725309)
(0.903175 -0.00738538 -0.00711914)
(0.879887 -0.00479889 0.0190292)
(0.923671 0.00380019 0.00172163)
(0.972411 0.0348244 -0.0724666)
(0.936016 -0.00916097 -0.0704655)
(0.974351 -0.0686932 0.0432934)
(1.02181 0.0034096 0.00352599)
(0.957024 0.03677 -0.0399986)
(0.986088 -0.0334837 -0.0616255)
(0.979094 -0.0353026 -0.0597023)
(0.970499 0.024659 -0.0169024)
(0.95112 0.0225848 -0.0291741)
(0.90283 0.0129511 -0.0368388)
(0.870232 0.0194891 -0.00663059)
(0.930848 0.0039546 0.0148258)
(0.955418 -0.00693917 0.0384911)
(0.891115 0.00529619 0.0882639)
(0.886268 0.00404042 0.14281)
(0.875912 -0.0126331 0.071051)
(0.905179 -0.00710373 -0.0494644)
(0.942082 -0.00742077 -0.00625909)
(0.802756 -0.0112377 0.110926)
(0.750912 -0.0155609 0.0970656)
(0.938828 -0.0272831 0.0212811)
(1.01622 -0.0504366 0.00625759)
(0.881377 -0.0434933 0.000383821)
(0.748553 0.0298808 -0.00824178)
(0.594427 0.0861636 0.014711)
(0.585076 0.0674339 -0.000281909)
(0.7107 0.0339537 -0.0421782)
(0.880917 -0.015339 -0.00056798)
(0.934751 -0.0375036 0.0520723)
(0.886711 -0.00478505 0.0391945)
(0.862432 0.00852646 0.0574898)
(0.83784 -0.0122423 0.0762324)
(0.826668 -0.0442023 0.00759629)
(0.870534 -0.0702704 -0.0437036)
(0.969742 -0.050153 -0.0113131)
(0.986997 -0.0186718 -0.0401393)
(0.930518 -0.0120552 -0.0641095)
(0.900406 -0.00152661 -0.00949252)
(0.868951 0.00338578 0.0240974)
(0.901749 0.00983435 0.0176777)
(0.988356 0.0389852 -0.0533302)
(0.981871 0.00654518 -0.095852)
(0.95725 -0.062921 0.0189925)
(1.01926 -0.0220392 0.0392688)
(1.06407 0.00698217 0.00278654)
(1.06655 -0.0398191 -0.0111994)
(1.02035 -0.0250867 -0.0461785)
(1.02023 0.0244704 -0.0302165)
(1.01434 0.0213762 -0.0341067)
(0.923507 0.0244869 -0.0356024)
(0.875873 0.0319742 -0.00935024)
(0.941734 0.00458596 0.00307321)
(0.973943 -0.0110876 0.0285004)
(0.902494 0.00658033 0.0690163)
(0.89724 0.00990413 0.112689)
(0.91575 -0.00817859 0.0723346)
(0.924572 -0.0209993 -0.0455252)
(0.961233 -0.0116289 -0.0385425)
(0.853759 -0.00188465 0.080254)
(0.773615 -0.022481 0.090335)
(0.941666 -0.0415508 0.010837)
(1.02408 -0.0506153 0.00328948)
(0.810529 -0.0326486 0.00198757)
(0.625256 0.0367045 -0.0181621)
(0.56108 0.0810202 0.00570884)
(0.621397 0.0590575 -0.00865262)
(0.742232 0.0248083 -0.049276)
(0.905359 -0.0216533 -0.0258849)
(0.976413 -0.0451265 0.019392)
(0.935045 -0.0105248 0.0340107)
(0.904729 0.0105339 0.0631728)
(0.859801 -0.00381091 0.0858984)
(0.836236 -0.0334549 0.0345385)
(0.874714 -0.0703954 -0.0285648)
(0.960303 -0.0586801 -0.0123056)
(0.965289 -0.0113502 -0.0162517)
(0.899812 0.00221088 -0.0463338)
(0.889486 0.002643 -0.0149529)
(0.873936 0.0130203 0.0203419)
(0.88313 0.0165191 0.00630499)
(0.982806 0.0344774 -0.0587238)
(1.03096 0.0190617 -0.098362)
(0.987431 -0.0519078 -0.00218966)
(0.999149 -0.0435526 0.0446304)
(1.08524 -0.0158036 0.00375154)
(1.07681 -0.0407703 -0.0102917)
(1.0215 -0.0178379 -0.0367535)
(1.02917 0.0197818 -0.0430606)
(1.02863 0.0231167 -0.0416619)
(0.926703 0.0370811 -0.0306994)
(0.885587 0.0417401 -0.00324908)
(0.958629 0.00816249 0.00314065)
(0.987833 -0.0105084 0.0263544)
(0.902666 0.00956623 0.0618605)
(0.859382 0.0180222 0.0843528)
(0.931971 -0.00391054 0.0594412)
(0.989961 -0.0281442 -0.0213421)
(0.961853 -0.0183984 -0.0395827)
(0.88421 0.00127662 0.0444955)
(0.85465 -0.0266464 0.075374)
(0.962053 -0.0522291 0.00735121)
(1.02518 -0.0459201 -0.00710953)
(0.812021 -0.0187965 0.0144033)
(0.606113 0.0371528 -0.0105912)
(0.610581 0.0686896 0.00642517)
(0.694142 0.0511997 0.0215883)
(0.789781 0.0218615 -0.0117087)
(0.934805 -0.0241436 -0.0245396)
(1.00815 -0.0517735 -0.0065927)
(0.977423 -0.016218 0.0216935)
(0.946837 0.0131554 0.0620913)
(0.882901 0.00456801 0.0913143)
(0.841017 -0.0241474 0.0571872)
(0.874216 -0.0675598 -0.00549123)
(0.938778 -0.0628426 -0.00972064)
(0.935271 -0.00131871 0.00165057)
(0.879657 0.0210911 -0.0236696)
(0.878158 0.00640232 -0.0122539)
(0.876394 0.0184686 0.021841)
(0.875134 0.022637 -0.00708388)
(0.962982 0.0265943 -0.0787929)
(1.03415 0.0214067 -0.101502)
(1.02677 -0.0391863 -0.00835906)
(1.01756 -0.0563762 0.0332326)
(1.06652 -0.0378706 -0.0265058)
(1.05762 -0.0432034 -0.0349305)
(1.01187 -0.0149966 -0.0382251)
(0.976971 0.0199573 -0.0453001)
(0.990847 0.0285216 -0.057425)
(0.948276 0.0434792 -0.0314181)
(0.918951 0.0430617 0.00888063)
(0.967049 0.0115245 0.0138443)
(0.986754 -0.00280748 0.0261561)
(0.888357 0.0187136 0.0517295)
(0.808418 0.0241195 0.0543619)
(0.898759 -0.0132359 0.0220931)
(1.04262 -0.0437729 -0.0250614)
(1.02943 -0.0190864 -0.0300625)
(0.963899 0.00506632 0.00650631)
(0.976874 -0.0324128 0.0257035)
(1.024 -0.0579939 -0.00537488)
(1.03256 -0.0343395 -0.0229767)
(0.859245 -0.00285606 0.0094577)
(0.689507 0.0265633 0.00254228)
(0.70445 0.0423981 0.0159694)
(0.769573 0.0380854 0.0501586)
(0.839907 0.0221165 0.0297398)
(0.971939 -0.0238815 -0.0102995)
(1.03866 -0.0550697 -0.0284244)
(1.01413 -0.0218855 0.00195657)
(0.986345 0.0148828 0.0571657)
(0.910607 0.0126485 0.0917191)
(0.848416 -0.0171427 0.0731836)
(0.867194 -0.064522 0.016613)
(0.915346 -0.0636962 -0.00634588)
(0.907948 0.00733019 0.0106714)
(0.873072 0.0397397 -0.0030421)
(0.882469 0.0143536 -0.00495473)
(0.874799 0.0232709 0.0232763)
(0.866052 0.0294824 -0.0180389)
(0.934652 0.0201363 -0.092883)
(1.00187 0.0145715 -0.0982133)
(1.02325 -0.0372788 -0.0162262)
(1.0475 -0.0637564 0.0258763)
(1.04599 -0.0524397 -0.0361947)
(1.00888 -0.0440054 -0.0513814)
(0.97828 -0.011598 -0.0326904)
(0.935 0.0251864 -0.0394241)
(0.980465 0.0304506 -0.0590551)
(0.978574 0.0404499 -0.030184)
(0.942921 0.0399079 0.0231331)
(0.957302 0.0173773 0.0353408)
(0.97343 0.00755414 0.0352592)
(0.898689 0.0336044 0.037813)
(0.825393 0.0347861 0.0241363)
(0.868374 -0.0187134 -0.0128556)
(0.962203 -0.069662 -0.0548623)
(1.01357 -0.0446097 -0.0373995)
(1.06256 -0.00347034 -0.00190519)
(1.11756 -0.0281964 -0.00909891)
(1.09592 -0.050636 -0.0296612)
(1.04193 -0.0183596 -0.0330266)
(0.931542 0.0154244 -0.00265214)
(0.842179 0.0223194 -0.00798017)
(0.830441 0.0191819 -0.0116145)
(0.836129 0.0237696 0.034087)
(0.884214 0.0188205 0.0541644)
(1.00492 -0.0249078 0.0173182)
(1.06981 -0.0570867 -0.0353503)
(1.06274 -0.0269392 -0.0195037)
(1.04086 0.0149846 0.0475999)
(0.949914 0.0190853 0.0880199)
(0.859443 -0.012468 0.0807202)
(0.859379 -0.0591218 0.0319268)
(0.89552 -0.0568686 -0.00317904)
(0.882194 0.0187703 0.0161665)
(0.866131 0.0560359 0.0179231)
(0.881675 0.0233985 0.00306831)
(0.867556 0.0270608 0.0173721)
(0.862176 0.0348976 -0.0206667)
(0.915103 0.0190194 -0.0862016)
(0.976466 0.0125181 -0.0805798)
(1.00751 -0.0357706 -0.0237252)
(1.05326 -0.0688547 0.0168784)
(1.03782 -0.0575235 -0.0188862)
(0.953297 -0.040274 -0.0551362)
(0.917381 -0.00587318 -0.0367044)
(0.923811 0.0153397 -0.0494641)
(0.985292 0.0178942 -0.0492)
(0.986535 0.0357371 -0.0228011)
(0.954093 0.0403173 0.0184849)
(0.94788 0.0248746 0.0388004)
(0.942205 0.0208967 0.0501561)
(0.902893 0.0400657 0.0384493)
(0.868082 0.039787 -0.00253209)
(0.896363 -0.00923597 -0.0420999)
(0.929098 -0.0653127 -0.0709157)
(0.943735 -0.0673218 -0.0495548)
(1.03181 -0.0361752 0.0054669)
(1.13298 -0.0415038 0.00568125)
(1.12181 -0.0459788 -0.0254646)
(1.04677 -0.00611525 -0.0326182)
(0.965836 0.0242501 -0.0088027)
(0.95314 0.0120271 -0.0128957)
(0.95757 -0.00207185 -0.0356848)
(0.921076 0.0096032 0.00134035)
(0.941724 0.0132524 0.0570557)
(1.03875 -0.0256397 0.0423903)
(1.08863 -0.0598021 -0.022855)
(1.10043 -0.0349039 -0.0284826)
(1.09629 0.0142955 0.0363674)
(0.99026 0.0305613 0.083566)
(0.87083 -0.00380599 0.0793121)
(0.848833 -0.0569997 0.0357909)
(0.88297 -0.0538081 -0.00873488)
(0.874358 0.0258161 0.00323142)
(0.878184 0.0671422 0.02762)
(0.891874 0.0353942 0.0202739)
(0.861952 0.0342277 0.0136337)
(0.861249 0.0413841 -0.0216888)
(0.908003 0.0243794 -0.0717914)
(0.972921 0.0165372 -0.0613611)
(0.998293 -0.0299857 -0.0253284)
(1.02412 -0.071877 0.00670614)
(1.02896 -0.058516 -0.0026477)
(0.942269 -0.0308975 -0.0529044)
(0.884768 -0.000536188 -0.0605353)
(0.924365 0.00165419 -0.0659555)
(0.954904 0.00454377 -0.0450226)
(0.961438 0.0318081 -0.0170384)
(0.949431 0.0455981 0.00687144)
(0.924086 0.0387185 0.0207899)
(0.901054 0.0354241 0.0464077)
(0.90828 0.0431398 0.0503889)
(0.909811 0.0413106 0.000555492)
(0.923063 0.00503415 -0.0555006)
(0.951845 -0.0445211 -0.0775647)
(0.951117 -0.065378 -0.0558567)
(1.00278 -0.0562904 -0.00540249)
(1.09161 -0.0508108 0.008)
(1.09471 -0.0445987 -0.0164715)
(1.04856 -0.00718678 -0.0358414)
(1.02125 0.0217188 -0.0230081)
(1.04464 0.00617374 -0.0143574)
(1.02734 -0.016498 -0.0340059)
(0.951264 -0.00990058 -0.0209622)
(0.96229 -0.00231635 0.0353565)
(1.06623 -0.0281481 0.0395538)
(1.1192 -0.057434 -0.0128552)
(1.10489 -0.0427716 -0.0183625)
(1.0626 0.0100989 0.0465599)
(0.95885 0.0427429 0.0933288)
(0.872927 0.0090307 0.0842697)
(0.858987 -0.0525303 0.0364092)
(0.884497 -0.0522239 -0.018802)
(0.883959 0.0263079 -0.0214441)
(0.895607 0.0726205 0.0270372)
(0.901229 0.0465293 0.0493478)
(0.862384 0.0411494 0.03296)
(0.867796 0.0469797 -0.00651946)
(0.908518 0.0331151 -0.0498695)
(0.962209 0.0277545 -0.0527435)
(0.996967 -0.0201278 -0.0282485)
(1.01005 -0.0755924 0.00391963)
(1.01406 -0.0630119 0.00620931)
(0.951125 -0.0230213 -0.0489292)
(0.904337 0.00186568 -0.0799533)
(0.947818 0.000269652 -0.0799911)
(0.940674 0.00268107 -0.0565477)
(0.930801 0.0305007 -0.0317529)
(0.924407 0.0458272 -0.0146231)
(0.912606 0.0438745 0.00319199)
(0.893373 0.0397399 0.0400341)
(0.908389 0.0400892 0.0581089)
(0.931399 0.0385336 0.020807)
(0.942136 0.0138122 -0.0384972)
(0.968727 -0.0236176 -0.0724955)
(0.996786 -0.0506881 -0.0611474)
(1.02696 -0.0601071 -0.0228254)
(1.06326 -0.0552583 0.00103414)
(1.06852 -0.0467014 -0.00407401)
(1.04531 -0.0217427 -0.0296214)
(1.0307 0.00253502 -0.0361382)
(1.08358 -0.00481096 -0.00830212)
(1.08144 -0.0226876 -0.000131018)
(0.977055 -0.0271663 -0.0164645)
(0.9652 -0.0259962 0.00239238)
(1.07773 -0.0398029 0.0175696)
(1.13825 -0.0517362 -0.00800213)
(1.07093 -0.0326912 -0.00994486)
(0.960568 0.0190121 0.0384988)
(0.874419 0.0544854 0.0874128)
(0.858657 0.019579 0.0931076)
(0.88711 -0.0481107 0.0468336)
(0.916013 -0.0519366 -0.0144164)
(0.900778 0.0215605 -0.0313289)
(0.897158 0.0679208 0.018307)
(0.905448 0.0517055 0.0622311)
(0.870671 0.0478049 0.0539207)
(0.876639 0.0549968 0.0265004)
(0.919124 0.0485145 -0.00766389)
(0.965064 0.0407096 -0.0384799)
(1.00593 -0.0130321 -0.0369053)
(1.00669 -0.0799794 -0.000112248)
(1.00604 -0.0694267 0.0136309)
(0.984285 -0.0193864 -0.03644)
(0.955107 0.00573959 -0.0836842)
(0.997457 0.0051084 -0.0785802)
(0.966223 0.00348737 -0.067479)
(0.927278 0.0241797 -0.0521623)
(0.910526 0.0383398 -0.0376087)
(0.911727 0.0391121 -0.00936394)
(0.908351 0.0333606 0.0375374)
(0.923377 0.0302786 0.065065)
(0.950409 0.0342468 0.0485942)
(0.962535 0.0261567 0.00512531)
(0.980677 -0.000814352 -0.0455282)
(1.04012 -0.0337457 -0.0592264)
(1.0949 -0.0496634 -0.0294396)
(1.07846 -0.0467237 -0.00491091)
(1.04063 -0.0440229 -0.00536132)
(1.03432 -0.033462 -0.0126076)
(1.0117 -0.0152035 -0.0186506)
(1.0302 -0.0116693 -0.00150357)
(1.07269 -0.0269976 0.0216829)
(1.042 -0.051463 0.00643793)
(1.00909 -0.0602681 -0.013809)
(1.05934 -0.0534014 -0.0101523)
(1.11536 -0.0392393 -0.0120037)
(1.06041 -0.0146513 -0.0082741)
(0.93385 0.0258006 0.0144782)
(0.856478 0.0546997 0.0579481)
(0.869875 0.0214168 0.0908603)
(0.913895 -0.0482428 0.0660068)
(0.952948 -0.0631409 0.00878463)
(0.94041 0.00818473 -0.0241408)
(0.924021 0.0637222 -0.00756431)
(0.936454 0.0593184 0.0283419)
(0.909092 0.0564984 0.041168)
(0.899824 0.0634906 0.0349749)
(0.929936 0.0632878 0.0123186)
(0.978858 0.0541693 -0.0244197)
(1.02821 0.00367712 -0.0333651)
(1.01647 -0.0652281 -0.00433084)
(0.99007 -0.0774274 0.0131612)
(1.00294 -0.034398 -0.0169379)
(1.01182 0.00227626 -0.0634452)
(1.02018 0.0101439 -0.0517984)
(1.00148 0.0155967 -0.0647996)
(0.944159 0.0260777 -0.071033)
(0.913327 0.0296441 -0.0621572)
(0.933596 0.0248514 -0.029402)
(0.963456 0.0119666 0.0205014)
(0.979757 0.0043883 0.0551875)
(0.986939 0.01532 0.0614899)
(0.987905 0.0243465 0.0494209)
(1.00992 0.0117409 0.0120221)
(1.07326 -0.0270404 -0.0209321)
(1.12632 -0.0482932 -0.0167596)
(1.10076 -0.0337413 -0.00116057)
(1.03342 -0.0288153 -0.00339069)
(1.00782 -0.0286921 -0.00572991)
(0.982074 -0.0177526 -0.00128726)
(0.977906 -0.0177976 0.00745124)
(1.0365 -0.0381251 0.023599)
(1.08316 -0.0739131 0.0131913)
(1.07792 -0.0899227 -0.0137795)
(1.06087 -0.0657379 -0.0274221)
(1.05894 -0.0194089 -0.0292743)
(1.06273 0.0136437 -0.0111232)
(1.01998 0.0248883 0.0172407)
(0.961539 0.0301997 0.053393)
(0.963272 0.00639361 0.0868069)
(0.981014 -0.0437932 0.077174)
(0.991089 -0.0639941 0.0262071)
(0.971486 -0.0113115 -0.017558)
(0.948097 0.0454593 -0.0213006)
(0.96466 0.0548534 0.00578773)
(0.950228 0.0596709 0.0303238)
(0.929774 0.0643642 0.0335325)
(0.933206 0.0590474 0.0118973)
(0.962364 0.0491497 -0.0209443)
(1.02505 0.0154439 -0.0265945)
(1.05468 -0.0346602 -0.000617002)
(1.01971 -0.0612564 0.0147072)
(0.993351 -0.047951 -0.00515711)
(1.00687 -0.0117844 -0.0341974)
(0.986455 -0.0213854 -0.0195261)
(0.975182 -0.0036177 -0.0450984)
(0.946138 0.0235283 -0.0698179)
(0.925924 0.0285353 -0.082898)
(0.950558 0.0109165 -0.0716272)
(0.99713 -0.0114734 -0.0258975)
(1.0252 -0.0180753 0.0269245)
(1.02172 -0.0025066 0.0598761)
(1.01276 0.00894876 0.0679618)
(1.04256 0.00038564 0.0370478)
(1.09545 -0.0310039 -0.00318422)
(1.11315 -0.048548 -0.00985825)
(1.08397 -0.0281597 0.00165162)
(1.03285 -0.016961 -0.00747574)
(0.996949 -0.0191876 -0.0216553)
(0.968904 -0.013221 -0.0139854)
(0.96605 -0.0226526 -0.00374643)
(1.00934 -0.0538981 0.00931034)
(1.06748 -0.0911974 0.00844306)
(1.0828 -0.101927 -0.0166367)
(1.06109 -0.0670262 -0.0329557)
(1.03786 -0.0140689 -0.0288159)
(1.04492 0.0190656 0.00265719)
(1.05469 0.0275035 0.0425039)
(1.02126 0.0176419 0.0651039)
(1.00853 -0.0104967 0.0669487)
(1.01949 -0.0415002 0.049661)
(1.01788 -0.0474665 0.0148103)
(0.986398 -0.00821625 -0.0201334)
(0.950913 0.031241 -0.029129)
(0.960894 0.0375211 -0.00946957)
(0.964004 0.0474518 0.0185469)
(0.951837 0.0542231 0.0241851)
(0.93563 0.0470183 0.00144928)
(0.932363 0.0368823 -0.025096)
(0.978655 0.0153372 -0.0272029)
(1.0489 -0.00892135 0.00145604)
(1.07207 -0.0208273 0.027819)
(1.03638 -0.0318476 0.0209554)
(1.00334 -0.0322642 -0.000743635)
(0.981714 -0.0190809 -0.0151581)
(0.924987 -0.012064 -0.053414)
(0.908122 0.00172225 -0.0813591)
(0.93081 -0.000717293 -0.100646)
(0.976482 -0.0188407 -0.106068)
(1.01302 -0.0349015 -0.0692269)
(1.03047 -0.0352112 0.00427353)
(1.03385 -0.0212417 0.0622136)
(1.04521 -0.0125715 0.0772686)
(1.08215 -0.0127458 0.0490899)
(1.10808 -0.0243742 0.00771264)
(1.08587 -0.0347234 -0.0109571)
(1.05419 -0.0256119 -0.00573806)
(1.0451 -0.0160851 -0.00699901)
(1.03202 -0.0139888 -0.0203733)
(1.00019 -0.00674782 -0.0197628)
(0.990747 -0.00926165 -0.0213574)
(1.0086 -0.0368903 -0.0289243)
(1.05016 -0.0745373 -0.0276946)
(1.06949 -0.0864777 -0.0303869)
(1.04549 -0.0564798 -0.0295323)
(1.02649 -0.0084112 -0.0185056)
(1.02817 0.0158272 0.00361647)
(1.04591 0.0134488 0.037639)
(1.04003 0.0052642 0.0637939)
(1.02319 -0.0129606 0.0580008)
(1.01961 -0.0314591 0.0288026)
(1.02144 -0.0323995 -0.000747674)
(1.01679 -0.00190209 -0.0166514)
(1.00482 0.0286653 -0.0169478)
(0.999745 0.0290169 -0.0115823)
(0.984557 0.0295589 -0.00312193)
(0.966415 0.0352863 -0.00256598)
(0.94786 0.0381759 -0.0110052)