/*--------------------------------*- C++ -*----------------------------------*\
  =========                 |
  \\      /  F ield         | OpenFOAM: The Open Source CFD Toolbox
   \\    /   O peration     | Website:  https://openfoam.org
    \\  /    A nd           | Version:  10
     \\/     M anipulation  |
\*---------------------------------------------------------------------------*/
FoamFile
{
    format      ascii;
    class       surfaceScalarField;
    location    "7";
    object      phi;
}
// * * * * * * * * * * * * * * * * * * * * * * * * * * * * * * * * * * * * * //

dimensions      [0 3 -1 0 0 0 0];

internalField   nonuniform List<scalar> 
74080
(
4.62073e-05
2.13467e-05
3.65131e-05
3.64146e-05
1.04667e-05
4.39679e-05
3.44527e-05
2.88658e-05
2.95941e-05
4.37879e-05
3.8356e-05
-1.49544e-06
3.9117e-05
2.24967e-05
2.05453e-06
3.31232e-05
3.76049e-05
4.09244e-06
5.3672e-05
8.68628e-06
-1.10764e-05
6.61786e-05
-2.11364e-05
1.22535e-05
6.35293e-05
1.16037e-06
3.80712e-05
7.7563e-05
-1.01596e-05
2.28348e-05
8.65423e-05
-5.12189e-05
2.11989e-05
6.96274e-05
-2.17181e-05
4.79871e-05
5.24576e-05
2.16321e-05
2.91135e-05
4.91779e-05
3.42004e-05
9.43834e-06
6.0998e-05
1.70699e-05
1.05963e-05
6.602e-05
-6.84172e-07
2.24943e-05
5.30397e-05
-3.14278e-05
6.04421e-05
4.07217e-05
-3.74209e-05
7.11072e-05
3.5765e-05
2.84962e-05
2.43774e-05
3.59689e-05
6.17299e-05
1.38937e-05
4.26938e-05
3.51929e-05
1.9024e-06
4.89164e-05
2.32234e-05
3.06112e-06
5.51092e-05
3.98225e-06
2.50785e-05
4.38505e-05
5.30715e-06
4.51644e-05
4.26997e-05
4.64581e-05
2.04165e-05
7.00889e-05
1.47275e-06
-6.47964e-06
8.6007e-05
-4.21376e-05
2.28927e-06
8.44366e-05
-4.77594e-05
2.57196e-05
7.14007e-05
-3.56701e-05
6.64771e-05
5.90721e-05
9.25141e-06
6.86925e-05
7.25115e-05
5.13469e-06
3.67656e-05
7.89441e-05
-3.46831e-05
4.81591e-05
5.62748e-05
-1.78356e-06
6.45973e-05
4.56819e-05
1.31071e-05
4.62961e-05
5.11859e-05
-2.3989e-05
2.36079e-05
4.45523e-05
-3.01407e-05
4.86406e-05
4.39284e-05
2.25669e-05
3.49617e-05
5.6671e-05
1.58361e-06
5.93041e-06
5.83072e-05
-1.8774e-05
1.9092e-05
7.35901e-06
3.01129e-05
8.94557e-05
9.21516e-05
-1.3759e-05
6.32209e-05
3.27153e-05
7.11062e-06
6.80159e-05
4.21699e-05
1.24247e-05
0.000110655
5.71206e-05
-6.37562e-05
0.000107007
5.17914e-05
-7.70471e-05
8.68562e-05
8.98096e-05
-4.96787e-05
0.000128707
3.46687e-06
-7.52848e-05
0.00016294
-7.51315e-05
-6.27934e-05
0.000143067
1.29678e-05
-8.4011e-06
0.000163608
-1.79946e-05
-6.89256e-06
0.000198907
-0.000197273
3.10217e-06
0.000161826
-7.36764e-05
7.42737e-06
0.00011163
7.79981e-05
-3.44236e-05
9.97204e-05
0.000118491
-7.89174e-05
0.000120997
6.6857e-05
-7.75557e-05
0.000136365
6.42401e-06
-4.00515e-05
9.93349e-05
-5.44797e-05
3.10014e-05
6.49275e-05
-0.000103017
5.09329e-05
6.45008e-05
4.70098e-05
-4.12966e-05
8.17577e-05
0.000176867
-8.09593e-05
0.000102555
9.71139e-05
-0.000104338
0.000108
8.62614e-05
-0.000103356
0.000112521
4.74029e-05
-5.0134e-05
8.95116e-05
2.82702e-05
7.71072e-06
9.74546e-05
0.000116705
-2.42276e-05
0.000145705
1.59618e-05
-8.23826e-05
0.000168167
-0.00013225
-5.8895e-05
0.000173912
-0.000163419
-1.307e-05
0.000142232
-9.48446e-05
4.70548e-05
0.000103524
4.70781e-05
2.83528e-05
0.000145548
2.03729e-05
-4.3337e-05
0.000174549
-8.65718e-05
-1.31734e-05
0.000123065
3.25152e-06
3.98379e-05
0.000113699
-1.50612e-05
3.56509e-05
0.000146557
-0.000130734
-6.95719e-06
0.000114138
-0.000103974
2.54901e-05
0.000100417
5.67563e-05
1.20767e-05
0.000131308
-4.15571e-06
-4.26832e-05
0.000121439
-4.12967e-05
-2.57039e-05
6.50723e-05
-2.68533e-05
0.000147129
0.000215703
-2.87288e-05
0.000123572
7.92162e-05
-3.16606e-05
9.4645e-05
5.21917e-05
7.98748e-07
0.000145258
4.13479e-05
1.12979e-06
0.000183334
2.33719e-05
-5.44673e-05
0.000164498
0.000114767
-6.32464e-05
0.000183775
-1.14099e-05
-8.26636e-05
0.000212901
-0.000134272
-8.37462e-05
0.000208358
-1.83998e-06
-3.65452e-05
0.000229032
4.18658e-06
-4.64432e-05
0.000254974
-0.000295236
3.62625e-06
0.000215117
-0.000142663
1.21166e-05
0.000158561
0.00012855
-6.02166e-05
0.000142785
0.000206462
-9.47113e-05
0.000162514
0.000129907
-0.000103032
0.000176542
5.04232e-05
-7.67238e-05
0.000139906
-3.34372e-05
-1.29491e-05
9.16056e-05
-0.000116085
-5.08412e-06
8.55042e-05
2.295e-05
-4.5277e-05
0.000125973
0.000236103
-7.33429e-05
0.000163122
0.000147188
-0.000125615
0.000162282
0.000143886
-0.000114837
0.000153973
0.000137137
-7.35017e-05
0.000127298
0.000111608
-4.15763e-05
0.000144017
0.000148015
-1.00196e-05
0.000169023
5.57367e-05
-6.99919e-05
0.000172675
-0.000147784
-8.65704e-05
0.000200897
-0.000283677
-1.5376e-05
0.000180336
-0.000142847
4.9468e-05
0.000141442
7.24152e-05
-1.79814e-06
0.000162712
4.59172e-05
-6.9954e-05
0.000191651
-8.04783e-05
-3.81621e-05
0.000173399
4.3195e-05
-1.24825e-05
0.000206183
-6.30625e-05
1.47442e-05
0.00025974
-0.000285975
9.77864e-06
0.000201261
-0.000204479
6.56526e-06
0.000141235
8.88992e-05
8.86622e-06
0.000165751
-9.30265e-06
-2.89596e-05
0.00017668
-7.40674e-05
-3.18996e-05
0.000129955
-3.4709e-05
0.000200041
0.000293149
-1.74675e-05
0.000195038
0.000148348
-9.15067e-05
0.000138859
6.55358e-05
-4.55058e-05
0.000161013
3.21541e-05
4.60246e-05
0.000215582
6.22764e-06
-2.76339e-05
0.000206904
0.000148947
-6.0574e-05
0.000221577
-2.39962e-05
-8.17775e-05
0.000240297
-0.000172127
-9.38956e-05
0.000236217
1.05833e-05
-4.97954e-05
0.000268852
3.45774e-05
-8.09043e-05
0.00029105
-0.000327152
-4.65366e-05
0.00023778
-0.000214358
8.50993e-06
0.000179974
0.000157611
-3.89368e-05
0.000165325
0.000268231
-7.98504e-05
0.000180939
0.000170347
-7.88436e-05
0.000190415
0.000120647
-8.52357e-05
0.000165672
-1.21977e-06
-4.09843e-05
0.000109055
-8.67615e-05
-8.67448e-06
9.87626e-05
-2.14345e-05
-1.8429e-05
0.000147279
0.000228703
-3.39568e-05
0.000189831
0.000228257
-0.000132133
0.000195294
0.000178463
-9.11944e-05
0.00018231
0.000228254
-4.1629e-05
0.000161476
0.000224869
-8.11173e-05
0.000172017
0.000152305
6.71415e-06
0.000164943
0.000116699
-3.44476e-05
0.000179972
-0.000125499
-0.000103318
0.000234323
-0.000389418
-4.67308e-05
0.000213451
-0.000136018
5.25732e-05
0.000177679
0.000106395
-2.38586e-05
0.00016469
4.2939e-05
-3.74363e-05
0.00017564
-5.99897e-05
-1.84276e-05
0.000192176
0.000107496
-6.19322e-05
0.000229195
-6.73092e-05
1.50325e-05
0.000274019
-0.000383377
2.56097e-05
0.00024676
-0.000296845
-4.20308e-06
0.000184591
7.62844e-05
-9.62049e-07
0.000191232
2.08319e-05
-3.4546e-05
0.000214445
-9.19634e-05
-5.73711e-05
9.80756e-05
-2.62155e-05
0.000222635
0.000315283
-1.56915e-05
0.000260892
0.000163124
-0.00010352
0.000201832
0.00010818
-9.13303e-05
0.0001812
1.66678e-05
4.90279e-06
0.000228325
-1.29577e-05
-6.32882e-05
0.000232614
0.000194275
-7.8241e-05
0.000247088
-7.1645e-05
-6.46008e-05
0.000281386
-0.000269463
-6.33128e-05
0.000283306
2.84569e-05
-5.06867e-05
0.000308879
7.48326e-05
-6.69051e-05
0.000326578
-0.000325366
-4.58491e-05
0.000278747
-0.000279251
-9.79643e-06
0.000213291
0.000167152
-3.24951e-05
0.000191061
0.000303383
-6.7097e-05
0.000209824
0.000172773
-7.47064e-05
0.00022936
0.000157249
-8.04582e-05
0.000191044
6.62672e-05
-3.24229e-05
0.000126825
-6.1682e-05
1.48032e-05
0.000117486
-2.45471e-05
-2.27456e-05
0.000175888
0.000209237
-6.02977e-05
0.000225061
0.000304345
-0.000156102
0.000218556
0.000248188
-0.000122836
0.000206621
0.000308169
-8.52016e-05
0.000199145
0.000335155
-9.58829e-05
0.000214526
0.000146351
-1.44652e-05
0.000204555
0.000151417
-1.70805e-05
0.000216287
-0.000114194
-0.000105304
0.000276218
-0.000509916
-9.42068e-05
0.000264689
-0.000120247
6.33548e-05
0.00021752
0.000199745
-2.22724e-05
0.000177733
6.60865e-05
-4.93583e-05
0.0002016
-0.00011693
-5.62185e-05
0.000258303
6.19892e-05
-3.52928e-05
0.000253724
-5.72768e-05
3.91864e-05
0.000256125
-0.000473627
2.53777e-06
0.000253592
-0.000325014
-7.83738e-06
0.000237513
3.7975e-05
-1.02538e-05
0.000250819
5.06799e-05
-7.89305e-05
0.000248316
-0.000107184
-5.34341e-05
4.25001e-05
-3.44993e-05
0.0002431
0.000348654
-1.01034e-06
0.000297162
0.000156034
-4.3636e-05
0.000271636
0.000122354
-7.14264e-05
0.000236892
-3.52215e-06
-1.8383e-05
0.000262665
-5.91184e-05
-2.91343e-05
0.000282852
0.000192282
-8.92281e-05
0.000277694
-0.000143491
-5.73022e-05
0.00029184
-0.000391618
-2.51496e-05
0.00031824
-1.87166e-06
-6.10701e-05
0.000355276
0.000135549
-5.3963e-05
0.000363114
-0.000283686
-3.2171e-05
0.000297911
-0.000274552
-4.27045e-05
0.000235447
0.00014013
-5.79384e-05
0.000215265
0.000276056
-5.29443e-06
0.000233678
0.000141722
-4.65401e-05
0.000267051
0.000140561
-8.1386e-05
0.000225085
0.000156745
-4.48673e-05
0.000148448
-2.73019e-05
5.84649e-06
0.000134133
-1.62399e-05
-3.69129e-05
0.000189733
0.000176813
-5.78536e-05
0.000228302
0.000344282
-8.08253e-05
0.000253914
0.000310755
-8.27701e-05
0.000228467
0.000433104
-0.000119482
0.000234656
0.00041026
-6.47783e-05
0.000288586
5.6484e-05
-7.95867e-06
0.000264236
0.000190898
-2.10118e-05
0.000259191
-6.82894e-05
-0.000111359
0.000308902
-0.000587004
-0.000117998
0.000296153
-7.32183e-05
3.86071e-05
0.000254576
0.000273043
3.03061e-05
0.000224702
8.53084e-05
-3.49255e-05
0.000246746
-0.000203721
-8.78941e-05
0.000305521
-5.62413e-05
-1.89499e-05
0.000322199
-6.3943e-05
-2.01565e-05
0.000288717
-0.00056074
-1.07094e-05
0.000255237
-0.000273755
-6.44297e-06
0.000268738
2.47445e-05
-1.70877e-05
0.000287083
7.33882e-05
-8.61216e-05
0.0002732
-0.000113955
-2.35553e-05
2.58827e-05
-2.64068e-05
0.000260553
0.000382651
-4.86346e-05
0.000319499
0.000220214
-5.48799e-05
0.000321539
0.000122734
-3.40944e-05
0.000290932
-2.96181e-05
-7.03458e-05
0.000308536
-0.000121496
-1.24454e-06
0.000355865
0.000159144
-0.000103001
0.00033465
-0.000171498
-0.000121994
0.00030077
-0.00044702
-2.08786e-05
0.000341281
-4.90499e-05
-9.54209e-05
0.000390729
0.000155138
-9.52923e-05
0.000397327
-0.000263917
-2.22989e-06
0.000339955
-0.000248884
-5.14698e-05
0.000279174
0.000160182
-0.000115865
0.000231217
0.000274626
-2.64677e-05
0.000252611
8.21388e-05
-3.14667e-05
0.000302316
0.000106031
-9.00785e-05
0.000253098
0.000199573
-3.09961e-05
0.000175296
9.74698e-06
-4.41047e-06
0.000157401
-1.78674e-05
-4.49773e-05
0.000186209
0.000154998
-4.09435e-06
0.000244806
0.000372985
-8.65514e-05
0.000282966
0.000372555
-0.000114291
0.000235225
0.000551324
-0.000146732
0.000278871
0.000382796
-3.93675e-05
0.000346797
-1.26763e-05
-3.32212e-05
0.000284252
0.000290007
-1.58438e-05
0.000270939
6.21226e-05
-0.000106637
0.000330729
-0.000560178
-0.000138945
0.000346911
-1.84207e-05
1.88674e-05
0.000321542
0.000347382
6.10814e-05
0.000302511
0.000118445
-2.29229e-05
0.000297047
-0.000171646
-0.000125592
0.000327091
-5.22739e-05
-5.66901e-05
0.000364064
-3.4887e-05
-7.13419e-05
0.000345164
-0.00056667
-1.4741e-05
0.000303601
-0.000226392
4.49817e-05
0.000301472
0.000135551
-5.95813e-05
0.000330563
4.34341e-05
-2.49673e-05
0.000331163
-0.000103599
-3.96997e-05
2.83449e-05
-5.12034e-05
0.000270011
0.00034911
-5.38007e-05
0.000353905
0.000294085
-7.43009e-05
0.000370252
0.00018033
-6.94154e-05
0.000331344
6.33028e-06
-0.000135836
0.000347193
-0.000176932
-2.95075e-05
0.000395692
0.000140397
-0.000101945
0.000373379
-0.0001613
-0.00017109
0.000302344
-0.000411547
-5.46807e-05
0.000362023
-8.8015e-05
-9.21042e-05
0.000459553
9.49809e-05
-0.000117605
0.000439999
-0.000242936
1.39077e-05
0.000369463
-0.00021451
-4.21908e-05
0.000313016
0.000214517
-0.000131555
0.000277593
0.000243053
-3.25685e-05
0.000303456
1.51984e-05
-5.4906e-05
0.000341728
8.89007e-05
-7.64699e-05
0.000302226
0.000195308
2.26449e-05
0.000224759
6.03164e-05
-6.44201e-05
0.000151848
4.69304e-05
-3.40085e-05
0.000156345
0.000115549
8.71411e-05
0.000249926
0.000282017
-3.02693e-06
0.000287809
0.000467206
-0.000146316
0.000280641
0.000636463
-0.000122828
0.000324393
0.000413886
-3.36217e-05
0.000320179
3.54765e-05
-2.49651e-05
0.000263581
0.000355431
4.32683e-05
0.000276591
0.000174033
-6.14627e-05
0.000342263
-0.000466383
-0.000149002
0.000375053
7.75462e-06
6.22505e-05
0.000378665
0.00043701
8.09771e-05
0.00035654
0.000137876
-3.64732e-05
0.000348007
-0.000113543
-0.000161125
0.000379393
-5.56388e-06
-0.000134432
0.000414902
-1.9755e-05
-7.26444e-05
0.000406499
-0.000513476
-6.99336e-05
0.000362586
-0.000228247
6.1224e-05
0.000354491
0.000264316
-6.15029e-05
0.000376897
6.38755e-05
-8.62727e-05
0.00036942
-9.42991e-05
-7.05078e-05
2.68601e-05
-6.02446e-05
0.000310165
0.000344643
-6.50086e-05
0.000402797
0.000304622
-6.53026e-05
0.000435745
0.000232126
-0.000115702
0.00039478
9.87851e-05
-0.00020637
0.000385236
-0.000153912
-8.87796e-05
0.000437026
9.67634e-05
-7.46528e-05
0.000454111
-0.000186582
-0.000130323
0.00035899
-0.000303521
-0.000120619
0.000379131
-0.000155281
-7.70347e-05
0.000482842
-2.07271e-05
-4.56239e-05
0.000483966
-0.000236066
6.17458e-05
0.000417363
-0.000147001
4.83768e-07
0.000363295
0.000285134
-0.00011608
0.000333462
0.000215396
-3.51335e-05
0.00035866
-7.14474e-05
-7.05862e-05
0.000391392
7.8093e-05
-6.70488e-05
0.000350008
0.00027306
2.1655e-06
0.000276237
0.000135857
-0.000152342
0.000214845
0.000119204
-9.25293e-05
0.000198338
0.000153712
4.42527e-06
0.000243591
0.000221928
2.89472e-05
0.000289888
0.00050662
-0.000169232
0.000326348
0.00065684
-8.13317e-05
0.000348378
0.000462693
-3.45166e-06
0.000314476
8.19861e-05
-3.95672e-06
0.00028682
0.000255806
0.000130328
0.000323566
0.000226218
-5.73543e-05
0.000375898
-0.000325533
-0.000135104
0.00042472
-3.38951e-05
7.49728e-05
0.000446885
0.000448675
0.000157158
0.000415552
0.000108697
6.26045e-05
0.000412626
-8.79262e-05
-0.000139692
0.000425153
3.98615e-05
-0.000196412
0.000448614
-7.69262e-05
-6.45355e-05
0.000453596
-0.000517484
-5.59742e-05
0.000408001
-0.000278948
3.35339e-05
0.000400333
0.000284073
-4.72223e-05
0.000433444
0.000131411
-0.000179776
0.00042578
-0.000118927
-7.46128e-05
6.98277e-06
-1.95872e-05
0.000362978
0.000369324
-8.14679e-05
0.000473883
0.000286354
-1.15722e-05
0.000516232
0.000217818
-5.12807e-05
0.000476958
0.000152846
-0.000202633
0.000448871
-8.32335e-05
-0.000127614
0.000482897
1.25992e-05
1.83322e-06
0.000495311
-0.000211446
-9.7553e-05
0.000443005
-0.000276109
-0.00010657
0.000432304
-0.000218953
-3.88668e-05
0.000478867
-3.86737e-05
-5.50307e-05
0.000502035
-0.000208136
2.8239e-05
0.000455076
-5.31162e-05
3.56751e-06
0.000424551
0.000353178
-0.000144271
0.000405314
0.000183474
-9.1714e-05
0.000394597
-0.00012903
-5.88202e-05
0.000406364
7.53186e-05
-8.43633e-05
0.000377666
0.00030289
-5.7284e-06
0.000338154
0.000265458
-0.00017059
0.000347145
0.000163969
-0.000158919
0.000329834
0.000188669
-0.000164832
0.000255214
0.000276448
-1.97996e-05
0.000255717
0.000516626
-0.000104594
0.000349531
0.000588405
-7.63215e-05
0.000419665
0.000373264
-5.93236e-07
0.000408767
7.93665e-05
-4.52936e-05
0.00036972
0.000184233
0.000142444
0.000395541
0.000302752
-2.83997e-05
0.000424229
-0.000174108
-0.000137214
0.000455148
-6.56955e-05
4.19487e-05
0.000472873
0.000412838
0.000190868
0.000452124
6.23842e-05
0.000133751
0.000459989
-0.000112324
-7.19762e-05
0.000482887
4.62801e-05
-0.000209999
0.00050198
-8.18641e-05
-0.000112431
0.000508514
-0.000504818
-3.52371e-05
0.000453546
-0.000340051
4.12508e-05
0.000442269
0.000276048
-2.58281e-05
0.000502157
0.000118109
-9.77276e-05
0.000506562
-0.00018021
-5.08284e-05
2.28026e-06
-1.26703e-05
0.000434533
0.000396745
-0.000121096
0.000519261
0.000271579
-2.55109e-05
0.000574416
9.69517e-05
3.4815e-05
0.000576926
0.000108214
-0.000127043
0.000515436
-8.05577e-07
-0.00010993
0.000499264
-1.23221e-05
3.76764e-05
0.000517439
-0.000190277
-4.69719e-05
0.000494
-0.000223863
-0.000123537
0.000488811
-0.000250942
-3.53924e-05
0.000540739
-5.38933e-05
-4.26522e-05
0.000554711
-0.000167174
-2.3186e-05
0.00050278
-6.05716e-05
1.73611e-06
0.000481948
0.000411986
-0.000157757
0.000481501
0.000182155
-0.000161613
0.000441774
-0.000124083
-7.03114e-05
0.000429857
0.000146878
-0.000144585
0.000417337
0.000314382
-5.81637e-05
0.000379549
0.000416349
-0.00011037
0.000440534
0.0002847
-0.000188977
0.000482791
0.000114865
-0.000183292
0.000380126
0.00026731
-8.63887e-05
0.000373237
0.000558714
-0.00013763
0.000488663
0.00049888
-0.000151849
0.000529886
0.000333451
-0.000114364
0.000482706
0.000102367
-9.39553e-05
0.000421166
0.000235337
6.92806e-05
0.000442003
0.000342224
1.23789e-05
0.000461263
-8.52758e-05
-0.000194136
0.000470685
-3.01489e-05
-2.53366e-05
0.000511048
0.000373761
0.000157712
0.000523762
5.51781e-05
0.000143995
0.000519048
-0.000144748
-7.35853e-05
0.000535023
4.35008e-05
-0.000223159
0.000575392
-2.44179e-05
-0.000128854
0.000587654
-0.000471438
-7.71765e-05
0.000509662
-0.000363092
-2.448e-05
0.000498002
0.000244978
-4.09757e-05
0.000575261
7.09251e-05
-0.000110334
0.000557566
-0.000247284
-5.67461e-05
-1.71246e-05
-6.54309e-06
0.000503883
0.000418188
-7.08813e-05
0.000544675
0.000286293
1.78619e-05
0.000649853
-3.35721e-05
3.65753e-05
0.000711493
-3.88223e-05
-9.26386e-05
0.000662588
1.86645e-05
-0.0001294
0.000608629
3.15342e-05
2.99696e-05
0.00060342
-0.000119054
4.74011e-05
0.000578192
-0.000110262
-6.38505e-05
0.000563543
-0.000187926
-4.88664e-05
0.000606762
-8.14032e-05
-5.03801e-06
0.000620697
-0.000115805
-7.05862e-06
0.000553034
-0.000139924
7.43041e-05
0.000545108
0.000365886
-7.13262e-05
0.00056497
0.000230232
-0.000142196
0.000510045
-0.000118865
-7.14386e-05
0.000484896
0.000189028
-0.000156746
0.000465519
0.00029977
-6.06766e-05
0.000430623
0.00044156
-2.68382e-05
0.000470391
0.000394026
-0.000136192
0.000525127
0.000140092
-0.000143883
0.000513052
0.000180469
-0.000109774
0.000503596
0.000495634
-0.000181343
0.000559865
0.000352272
-0.000201484
0.000584905
0.000292717
-0.000174919
0.000549316
0.000159629
-6.75056e-05
0.000472482
0.000267946
5.95359e-05
0.000456286
0.00037015
-1.28376e-05
0.000467595
-3.54594e-05
-0.000192219
0.00050026
-2.47122e-05
-9.1772e-05
0.00057225
0.000329689
0.000197434
0.000610582
-1.76532e-05
0.000268082
0.000617518
-0.000227556
1.80703e-05
0.00062465
6.51744e-05
-0.000205102
0.00066956
4.98043e-05
-0.000185838
0.000647497
-0.000476526
-4.61017e-05
0.000558319
-0.000360576
-3.6049e-05
0.000563234
0.0002329
-9.0416e-05
0.000644132
7.56285e-05
-0.000179472
0.000628325
-0.000316446
-8.50148e-05
-0.000104228
-7.95189e-06
0.000596397
0.00036635
6.18821e-05
0.00063207
0.000283168
7.5232e-05
0.000762361
-0.000139669
4.89504e-05
0.000865887
-0.00022111
-4.6479e-05
0.000863451
-3.27617e-05
-0.00017626
0.000771246
1.70719e-05
-3.65718e-05
0.000721676
-0.000140331
7.58882e-05
0.000683962
-7.24439e-05
-1.8863e-07
0.000672441
-0.000164017
-1.01993e-05
0.000712837
-0.000122341
-2.43902e-05
0.0006995
-7.54785e-05
-2.02608e-05
0.000589984
-0.000142743
7.3154e-05
0.000582939
0.000154788
-2.46271e-05
0.000644345
0.00019435
-0.000159963
0.000565787
-7.5229e-05
-9.15701e-05
0.000506858
0.000112921
-7.9655e-05
0.000506188
0.000168316
-4.3317e-05
0.0004959
0.000351885
3.52605e-05
0.000496545
0.000521281
-0.000120826
0.000519197
0.000258604
-0.000186352
0.000517852
0.000121814
-8.63331e-05
0.000524554
0.000311559
-0.00011436
0.000578345
0.000122631
-0.000145656
0.000626326
0.000106839
-9.05229e-05
0.000626587
0.00013929
-2.89706e-05
0.000552439
0.000251454
2.08351e-05
0.000513448
0.00041495
-4.1268e-05
0.000516262
-2.96586e-06
-0.000162414
0.000528557
-7.81809e-05
-7.37239e-05
0.000596343
0.000286446
0.000226942
0.000640281
-5.06985e-05
0.000253702
0.000631844
-0.000203199
2.25507e-05
0.000672345
7.82679e-05
-0.000173682
0.00076902
3.84279e-05
-0.000206321
0.000736102
-0.000485388
-5.94717e-05
0.000599043
-0.000316177
1.68527e-06
0.000585585
0.000253357
-4.02398e-05
0.000703615
4.67959e-05
-0.000152322
0.000728734
-0.00037811
-0.000112611
-0.000192043
-4.29973e-06
0.000688654
0.000244986
0.000130421
0.000729323
0.000254295
9.1489e-05
0.000831313
-0.000117717
3.83809e-05
0.000924241
-0.000281772
2.19893e-05
0.000970747
-0.000151753
-0.000125522
0.000907471
-6.85517e-05
-0.000103877
0.000832237
-0.000195946
8.65289e-05
0.000783936
-7.60281e-05
0.000103651
0.000764407
-7.37477e-05
5.07774e-05
0.000805157
-8.36183e-05
-5.00448e-05
0.000778594
-4.17721e-05
2.523e-05
0.000641421
-9.53974e-05
0.000131957
0.000616136
-4.10967e-05
-5.03299e-06
0.000725344
3.62832e-05
-0.000205522
0.00070667
-3.28518e-05
-0.000131883
0.000617751
6.39001e-05
-2.75063e-05
0.000601904
4.05893e-05
-7.88149e-05
0.00058171
0.00025982
4.32728e-05
0.000583437
0.000613919
-8.53288e-05
0.000591196
0.000375298
-0.000188653
0.000559509
0.000234031
-0.00014071
0.000614746
0.000219835
-0.000123153
0.000674259
-0.000175082
-0.00010968
0.000698743
-0.00013089
-4.84377e-05
0.000702737
4.37811e-05
-5.14822e-05
0.000629964
0.00019813
3.80332e-05
0.000574871
0.000349285
3.06111e-05
0.000592791
2.51371e-05
-0.000181743
0.000591822
-5.66855e-05
-6.11845e-05
0.000639405
0.000174863
0.000230117
0.000686548
-9.15161e-05
0.000256057
0.000668244
-0.000100663
8.22616e-06
0.000732745
0.000101545
-0.000173597
0.000860062
-4.77151e-05
-0.000139559
0.000814709
-0.000438035
-9.47579e-05
0.000632853
-0.000241511
9.83472e-06
0.000612145
0.000252386
1.30923e-05
0.000780348
-3.2227e-05
-0.00015901
0.000826948
-0.000437892
-0.000208366
-0.000263391
-3.29815e-05
0.000841837
8.93e-05
1.40449e-05
0.000839291
0.000217211
0.000121689
0.000844816
-6.01533e-05
9.86097e-05
0.000952729
-0.000319595
-1.05502e-05
0.00106284
-0.000336826
-8.55241e-05
0.00101541
-0.00027718
-8.65373e-05
0.000897639
-0.000325373
2.76017e-05
0.000821901
-0.000249974
0.000122319
0.000847585
-0.000191029
6.99907e-05
0.000883436
-7.49611e-05
-3.60289e-05
0.000888203
2.23719e-05
-5.86193e-05
0.000821836
-5.30931e-05
6.61561e-05
0.000768656
-0.000156018
8.27743e-05
0.000847723
-0.000124251
-9.67035e-05
0.000850113
-2.97456e-05
-0.000124553
0.00071701
0.000113154
-6.15964e-05
0.000640651
-2.21274e-08
-2.59048e-05
0.000615
0.000175792
7.34618e-05
0.000636853
0.000561865
-3.88793e-05
0.000632554
0.000437349
-0.000138794
0.000648691
0.000340482
-9.72373e-05
0.000739269
0.000217246
-0.000133285
0.000778522
-0.000308056
-0.000162246
0.00080127
-0.000317467
-0.000128053
0.000814407
-6.37638e-05
-9.12587e-05
0.000747089
0.000206921
2.17948e-05
0.000689068
0.000298625
5.52387e-05
0.000704206
5.52055e-05
-0.000178382
0.000712881
1.87565e-05
-0.000105417
0.000781403
7.1907e-05
0.00017128
0.000837884
-0.00013064
0.000289902
0.000824464
6.57635e-06
4.58119e-05
0.000852855
0.000181974
-0.00016066
0.000920805
-7.67113e-05
-0.000131363
0.000862035
-0.000425188
-8.80426e-05
0.00073206
-0.000165272
-1.15905e-05
0.00076751
0.000245768
-7.97421e-06
0.000917244
-8.34231e-05
-0.000171687
0.000949694
-0.000454274
-0.000233772
-0.000358697
-0.000117084
0.000934359
1.99565e-05
-8.85105e-05
0.000954262
0.000156303
1.76099e-05
0.00100114
-9.29007e-05
8.20534e-05
0.00107492
-0.000366752
4.00536e-05
0.00113932
-0.000414169
-4.98977e-05
0.00110987
-0.000330688
-9.20986e-05
0.00101797
-0.000404892
3.7767e-05
0.000944194
-0.0003739
0.000159145
0.000975596
-0.000240177
0.000113604
0.00100529
-3.35102e-05
2.56904e-05
0.00103001
9.09753e-05
-8.37574e-05
0.00101691
5.27792e-05
-6.16755e-05
0.000952766
-0.000162217
3.70528e-06
0.000961089
-0.000170986
-3.63358e-05
0.000963267
-3.939e-05
-3.51995e-05
0.000865319
0.00016598
-0.000149383
0.000780552
0.000110421
-0.000114798
0.00075088
0.000197962
6.14492e-05
0.000753179
0.00041026
0.000110018
0.000753558
0.000391824
1.76242e-05
0.00081111
0.000419113
-3.20065e-05
0.000875318
0.000245718
-6.16522e-05
0.000865786
-0.000273546
-0.000149725
0.000886327
-0.000356732
-0.000206771
0.00090346
-0.000150258
-0.000148474
0.000879254
0.00010952
1.81141e-05
0.000848102
0.000272434
5.48288e-05
0.000827504
0.000157913
-0.000153241
0.00084678
9.79767e-05
-0.000184472
0.000934142
2.64562e-05
6.38916e-05
0.00096151
-8.04248e-05
0.000250831
0.000926344
0.000186068
5.92448e-05
0.000941746
0.000284191
-0.000182632
0.00100525
-8.93031e-05
-0.000204153
0.000962435
-0.000402731
-0.000163092
0.000862453
-0.000106332
-3.59474e-05
0.000889619
0.000266
2.01352e-06
0.0010176
-2.36392e-05
-0.000118139
0.00108143
-0.000414681
-0.000181775
-0.000389874
-0.000134344
0.00111491
5.74453e-05
-0.00013847
0.00112337
0.000214156
-6.38299e-05
0.0011663
-4.06205e-05
3.01972e-05
0.00123495
-0.000353511
4.57049e-05
0.00127496
-0.000401012
-4.99864e-05
0.00127541
-0.000279933
-0.000115743
0.0012297
-0.000373193
-1.41746e-05
0.00114163
-0.000390052
0.000147331
0.00114375
-0.000246263
0.000141669
0.00116464
9.27109e-06
8.93326e-05
0.00115872
0.000130862
-8.58674e-06
0.00116343
0.000115094
-2.74195e-05
0.00110175
-8.5331e-05
-3.05655e-05
0.00106108
-0.000205835
-3.47371e-05
0.00105709
-8.48003e-05
-2.83187e-05
0.00100911
0.000174704
-8.43127e-05
0.000923861
0.000248482
-0.000127877
0.000867913
0.000295716
-5.05309e-05
0.000824637
0.000281761
0.000174127
0.000845891
0.000308966
0.000145051
0.000933585
0.000466763
-6.64331e-05
0.000983367
0.000300975
-0.000169507
0.000955757
-0.000230557
-0.000174261
0.000958444
-0.000360187
-0.000188676
0.000970633
-0.000152425
-0.000234579
0.000971178
3.60651e-05
-0.000110642
0.000976193
0.000182159
3.17758e-05
0.000970614
0.000223267
-8.28875e-05
0.000994357
0.000143475
-0.000175807
0.0010578
1.43325e-05
-1.0171e-06
0.0010559
2.68979e-05
0.000253308
0.00103676
0.000273406
0.000131655
0.00106695
0.000306131
-0.000215536
0.00112054
-2.24232e-05
-0.000292978
0.00108179
-0.000293349
-0.000185557
0.00100895
-7.0626e-05
-4.91759e-05
0.00102131
0.000216815
8.85595e-05
0.00111874
5.39087e-06
1.13125e-05
0.00119205
-0.000365906
-0.000113872
-0.000374388
-0.00015778
0.00132037
3.57003e-05
-9.77738e-05
0.00134013
0.000223946
-9.0661e-05
0.00136805
1.30044e-05
-4.94006e-05
0.00140673
-0.000342878
-1.36477e-07
0.00142102
-0.000396851
-0.000120148
0.00139776
-0.000249623
-0.000185192
0.00135751
-0.000291786
-7.21919e-05
0.00127455
-0.000320657
7.5441e-05
0.00123078
-0.000274839
0.000100073
0.0012261
-7.64196e-05
0.000138998
0.00124419
0.00010216
2.20976e-05
0.00129054
9.31779e-05
-4.37826e-05
0.00126468
-9.24121e-05
-5.94563e-05
0.00117546
-0.000227971
-0.00010367
0.00112374
-7.83702e-05
-8.00183e-05
0.00110465
0.000181099
-5.00523e-05
0.00105644
0.000254524
-0.000127653
0.00100365
0.000275005
-0.000100423
0.000996493
0.000188287
9.69941e-05
0.00106915
0.000154817
9.64795e-05
0.00115987
0.000341029
-7.94791e-05
0.00120899
0.000314285
-0.000160926
0.00116425
-4.46793e-05
-0.000177772
0.00109784
-0.000185053
-0.000211444
0.00109441
-7.10295e-05
-0.000281326
0.00111915
3.01559e-05
-0.000234077
0.00112837
0.000112251
-3.33579e-05
0.00113711
0.000154756
-5.34667e-06
0.00117615
0.000116839
-0.000113931
0.00118565
2.3955e-05
1.26717e-05
0.00111102
0.000104514
0.000216441
0.0011089
0.000273641
0.000108739
0.0012067
0.00026354
-0.000214948
0.00127061
3.35752e-05
-0.000297849
0.00120798
-0.00021313
-0.000181005
0.00113084
-4.95991e-05
-5.98055e-05
0.00115923
0.00020801
0.00011402
0.00127431
-2.14089e-05
0.000102932
0.00134665
-0.000340602
-6.69871e-05
-0.000340081
-0.000142633
0.00154164
-3.85823e-05
-6.88504e-05
0.0015991
0.000121477
-5.22615e-05
0.0016165
3.18264e-05
-7.09691e-05
0.0015729
-0.000271907
-7.18324e-05
0.00152545
-0.000422269
-0.000131957
0.00150658
-0.000304279
-0.00018155
0.00146329
-0.000223432
-8.48007e-05
0.00142079
-0.000209022
-5.65131e-07
0.00141371
-0.000263326
3.52744e-05
0.0013956
-0.000185155
0.000147394
0.00138349
5.42168e-05
9.05363e-05
0.00138943
9.63366e-05
-1.79271e-05
0.00137245
-5.64207e-05
-0.000116483
0.00130365
-0.00016937
-0.00020288
0.00124088
-5.93903e-05
-0.000136272
0.00122926
0.000202563
-0.00013251
0.00121195
0.000257728
-0.000209899
0.00120798
0.000178615
-0.000165993
0.00124672
3.97511e-05
6.68559e-05
0.0013203
-2.13209e-05
0.000190033
0.00140449
0.000142228
0.000108119
0.00142939
0.00023176
8.1282e-06
0.00134352
5.39415e-05
-9.75315e-05
0.00124389
-4.28566e-07
-0.000169088
0.00122429
3.25071e-05
-0.000196028
0.00128173
-7.68311e-05
-0.000193475
0.00133086
-7.09488e-05
-9.20374e-05
0.00135242
-1.6814e-05
2.01444e-06
0.0013546
-2.489e-06
-4.86374e-05
0.00131389
1.40846e-05
-4.89052e-05
0.00123144
0.000177947
9.00583e-05
0.00120895
0.000325226
0.000150354
0.00128482
0.000277917
1.24104e-05
0.00133911
6.54771e-05
-9.00558e-05
0.00130566
-0.00016739
-0.000102936
0.00128415
-7.45653e-05
-7.56984e-05
0.00135618
0.000129054
3.92176e-05
0.00143749
-3.56846e-05
0.000108463
0.00147097
-0.000243402
7.66437e-06
-0.000257643
-8.81736e-05
0.00175432
-9.20707e-05
-8.186e-05
0.00181423
8.30263e-05
-2.20912e-05
0.00179731
8.47706e-05
-1.20176e-05
0.00168319
-9.4017e-05
-7.6021e-06
0.00159473
-0.00031545
8.81424e-08
0.00162363
-0.000331834
-7.68283e-05
0.00164742
-0.000219726
-0.000146939
0.00162606
-0.000124424
-0.000123063
0.00161618
-0.000137882
-5.34872e-05
0.00156926
-0.000126708
7.70588e-05
0.00153129
-4.37726e-05
0.000157184
0.00157877
-5.75125e-05
9.24555e-05
0.0016312
-0.000102642
-6.11585e-05
0.00159473
-0.000138641
-0.000117705
0.00152423
-5.63172e-05
-8.08668e-05
0.00148691
0.000167643
-3.80019e-05
0.00142102
0.000282018
-6.56273e-05
0.00133565
0.000212444
-0.000115533
0.00129294
-3.20144e-06
-1.29354e-05
0.00131968
-0.000144465
0.000166349
0.00145514
-7.47681e-05
0.000219928
0.00157578
5.12427e-05
0.000101467
0.00152007
6.18688e-05
-7.61863e-05
0.00141114
9.07491e-05
-0.00014995
0.00137808
0.000120111
-0.000142185
0.00141182
-3.60951e-05
-0.000140144
0.00146871
-0.000184368
-9.6449e-05
0.00150179
-0.000222654
-4.57868e-05
0.00149481
-0.000142339
-2.2294e-05
0.00147171
2.37545e-05
-3.3406e-06
0.0014272
0.000265052
8.46256e-05
0.00138183
0.000401959
0.000133327
0.00139936
0.000305389
4.35482e-05
0.00145594
0.000103839
-3.93161e-05
0.00147435
-0.000123729
-7.83194e-05
0.00148134
-0.000169908
-6.08703e-05
0.0015202
-2.66913e-05
1.85639e-05
0.00155627
-6.21843e-05
7.25018e-05
0.00160371
-0.000210705
4.4262e-05
-0.000251668
-5.86769e-05
0.00189442
-0.000171789
-1.06601e-05
0.00198239
4.63542e-05
-6.20707e-05
0.00198028
9.91029e-05
-4.17204e-06
0.00191344
-3.38411e-05
3.21401e-05
0.00184654
-0.000195657
-8.10563e-05
0.00186613
-0.000243531
-0.000156902
0.00193638
-0.000174508
-0.000107625