/*--------------------------------*- C++ -*----------------------------------*\
  =========                 |
  \\      /  F ield         | OpenFOAM: The Open Source CFD Toolbox
   \\    /   O peration     | Website:  https://openfoam.org
    \\  /    A nd           | Version:  10
     \\/     M anipulation  |
\*---------------------------------------------------------------------------*/
FoamFile
{
    format      ascii;
    class       volVectorField;
    location    "7";
    object      U;
}
// * * * * * * * * * * * * * * * * * * * * * * * * * * * * * * * * * * * * * //

dimensions      [0 1 -1 0 0 0 0];

internalField   nonuniform List<vector> 
25600
(
(0.191782 -0.0806879 0.0998794)
(0.180529 -0.0747933 0.0725877)
(0.114605 -0.0621929 0.0891133)
(0.155393 -0.0740236 0.0194839)
(0.204809 -0.0804848 -0.0071712)
(0.10361 -0.0822591 0.00973138)
(0.159397 -0.0744646 -0.00308292)
(0.286066 -0.0809625 0.00751472)
(0.244707 -0.0767097 0.0683645)
(0.25215 -0.0710528 0.0266322)
(0.375296 -0.0836205 -0.082358)
(0.331965 -0.0757302 0.00955053)
(0.224019 -0.0820347 0.0740052)
(0.194807 -0.0854606 0.0793469)
(0.20599 -0.082445 0.0397401)
(0.277048 -0.0811519 0.00224104)
(0.258694 -0.0749399 0.0792907)
(0.172071 -0.0551622 0.161441)
(0.146765 -0.0619067 0.113471)
(0.141844 -0.0866453 0.0951696)
(0.153964 -0.0896165 0.0361134)
(0.184445 -0.0898073 0.0235698)
(0.21158 -0.0846805 0.0397341)
(0.238829 -0.0741553 0.120282)
(0.105184 -0.0738094 0.114614)
(0.242018 -0.0802282 -0.0440089)
(0.316876 -0.0810015 -0.0690129)
(0.370009 -0.0881129 -0.0401903)
(0.330483 -0.078881 0.0746549)
(0.236287 -0.0716535 0.145661)
(0.228046 -0.0623251 0.0701404)
(0.365558 -0.0763047 0.0456269)
(0.2711 -0.0735639 0.09464)
(0.170465 -0.0757463 0.0456146)
(0.19871 -0.084651 -0.0475051)
(0.228055 -0.0773135 0.0204864)
(0.123752 -0.0715959 0.0925749)
(0.217429 -0.0757215 -0.0279435)
(0.249983 -0.0815799 -0.0512709)
(0.215081 -0.0813017 0.0635018)
(0.332842 0.0811274 0.0368886)
(0.322259 0.0685131 -0.0194747)
(0.146142 0.0645074 0.0152454)
(0.336919 0.0747696 -0.125715)
(0.48697 0.075923 -0.1714)
(0.287665 0.0861927 -0.116177)
(0.341869 0.0637539 -0.143105)
(0.621008 0.0606916 -0.160049)
(0.563246 0.0645388 -0.0326054)
(0.464448 0.0540422 0.0175593)
(0.73944 0.0515598 -0.185766)
(0.727558 0.0542535 -0.161927)
(0.453996 0.0814998 -0.0479887)
(0.357285 0.0917065 -0.0359151)
(0.375415 0.0807507 -0.0748241)
(0.500135 0.0683639 -0.139472)
(0.504862 0.0495822 -0.0126038)
(0.229578 0.0334253 0.125995)
(0.230846 0.0642706 0.0221513)
(0.243861 0.102378 -0.0326205)
(0.360827 0.0947805 -0.136075)
(0.384144 0.0904039 -0.139418)
(0.411904 0.0762699 -0.0864417)
(0.417891 0.0665286 0.0617543)
(0.222458 0.0825947 0.0786476)
(0.496975 0.067779 -0.167508)
(0.56241 0.0546176 -0.238926)
(0.667296 0.0575087 -0.187204)
(0.633043 0.0535273 -0.00607465)
(0.391899 0.0660054 0.0926677)
(0.360683 0.0577123 -0.0666879)
(0.710321 0.0511912 -0.117918)
(0.569278 0.0610113 -0.0120399)
(0.313912 0.0677769 -0.0714193)
(0.524682 0.0652354 -0.246046)
(0.56903 0.0531107 -0.154991)
(0.254455 0.0701682 0.0388701)
(0.464148 0.0645707 -0.0949434)
(0.512826 0.0614984 -0.215768)
(0.372881 0.0746218 -0.0374995)
(0.457035 -0.0251414 0.0321014)
(0.525387 -0.0448473 -0.0719867)
(0.297243 -0.0363393 -0.0570932)
(0.320208 -0.0349161 -0.0341521)
(0.661981 -0.0360742 -0.138313)
(0.542076 -0.0297275 -0.194589)
(0.550398 -0.0469127 -0.211243)
(0.693031 -0.0754396 -0.216616)
(0.715823 -0.045037 -0.131431)
(0.647088 -0.0483154 -0.0148773)
(0.883181 -0.107043 -0.0473382)
(0.829985 -0.0685507 -0.160819)
(0.591864 -0.0326311 -0.135007)
(0.460575 -0.023402 -0.0831954)
(0.492103 -0.0401081 -0.118407)
(0.582477 -0.0512797 -0.1488)
(0.593363 -0.0556917 -0.0984757)
(0.344398 -0.0623334 -0.0363757)
(0.254501 -0.03111 -0.0498048)
(0.31264 -0.00687896 -0.069764)
(0.53733 -0.0364857 -0.181426)
(0.537553 -0.0374749 -0.180334)
(0.548941 -0.0444232 -0.119069)
(0.482086 -0.0432776 0.00447492)
(0.345565 -0.0145789 0.00671987)
(0.624879 -0.0446532 -0.113065)
(0.481648 -0.0896859 -0.211961)
(0.677431 -0.0971059 -0.130359)
(0.685428 -0.0729134 0.0282922)
(0.493751 -0.0347074 0.0535379)
(0.442921 -0.0391499 -0.143445)
(0.648539 -0.0678159 -0.137374)
(0.625107 -0.0424892 -0.0585838)
(0.51209 -0.0592207 -0.0372541)
(0.865924 -0.0953521 -0.139613)
(0.886415 -0.0749153 -0.229849)
(0.436355 -0.0323633 -0.051564)
(0.48766 -0.0505459 -0.0161464)
(0.635713 -0.064321 -0.170108)
(0.52723 -0.0315604 -0.0595023)
(0.544222 0.0880147 0.0401165)
(0.667074 0.0663167 -0.134931)
(0.512848 0.0467595 -0.0932323)
(0.311156 0.0405836 0.0879657)
(0.680603 0.0317959 -0.052634)
(0.607496 0.0587191 -0.148834)
(0.643575 0.0348589 -0.174151)
(0.721628 0.0103392 -0.219864)
(0.716065 0.0356166 -0.154521)
(0.6921 0.0448429 -0.084463)
(0.944882 -0.0334363 -0.0430663)
(0.828238 -0.000455557 -0.136181)
(0.598288 0.065151 -0.135303)
(0.488014 0.0845868 -0.0731075)
(0.519892 0.078707 -0.10626)
(0.562924 0.0627085 -0.142216)
(0.594094 0.0335803 -0.134697)
(0.409914 0.00369212 -0.112412)
(0.24017 0.0309786 -0.0464538)
(0.350052 0.0769719 -0.0351136)
(0.556122 0.0787384 -0.118477)
(0.584297 0.0748751 -0.138689)
(0.600201 0.0796143 -0.0766044)
(0.513002 0.0731044 -0.0361844)
(0.441729 0.0562709 -0.0308158)
(0.611797 0.0564904 -0.0742611)
(0.369405 0.0164575 -0.202797)
(0.727598 -0.0430603 -0.111496)
(0.720479 0.000892454 0.0715295)
(0.546115 0.0511549 0.0241324)
(0.521496 0.0468791 -0.168958)
(0.487813 0.0229988 -0.0743191)
(0.568842 0.0483095 -0.0525973)
(0.580549 0.0189918 0.085602)
(0.810274 -0.0494319 0.0581338)
(0.876597 -0.0260059 -0.0949335)
(0.592487 0.0496881 -0.0759502)
(0.509916 0.0361328 0.0116754)
(0.671011 0.0224552 -0.140323)
(0.609045 0.0596403 -0.0887476)
(0.495405 0.051662 0.0409571)
(0.736866 0.00973842 -0.193324)
(0.68744 -0.011203 -0.123266)
(0.412558 -0.020422 0.0133363)
(0.596154 -0.0235357 -0.0992965)
(0.64581 0.0133035 -0.159811)
(0.627457 -0.0387041 -0.169011)
(0.755879 -0.0713328 -0.156859)
(0.780968 -0.02212 -0.146436)
(0.752136 -0.0250013 -0.0840961)
(0.951786 -0.0776893 -0.0452424)
(0.864872 -0.0778225 -0.121762)
(0.653592 0.0143966 -0.13717)
(0.521382 0.0443867 -0.0702231)
(0.530528 0.00267933 -0.123363)
(0.61483 -0.00149622 -0.147507)
(0.65199 -0.0290059 -0.0922172)
(0.403632 -0.0279113 -0.0740955)
(0.283188 -0.0332481 -0.0526813)
(0.352479 0.0381245 -0.059294)
(0.629001 0.0295283 -0.131498)
(0.608059 0.0166963 -0.144478)
(0.595181 0.0355703 -0.136436)
(0.544166 0.0330113 -0.0387056)
(0.535179 0.0180096 -0.0504462)
(0.652441 0.000219427 -0.0515205)
(0.455958 -0.0517812 -0.18573)
(0.738895 -0.0951462 -0.214703)
(0.813677 -0.0521003 0.117053)
(0.617514 0.00696702 0.0422051)
(0.57069 -0.0211423 -0.216232)
(0.422053 -0.0397626 -0.18171)
(0.679648 0.00513196 -0.0769506)
(0.726303 -0.0338558 0.0202759)
(0.668561 -0.0971915 -0.086962)
(0.773763 -0.104093 -0.025724)
(0.599531 -0.002906 -0.0482151)
(0.69185 -0.0227367 -0.0873952)
(0.709311 -0.0504872 -0.136719)
(0.643454 9.12749e-05 -0.0893981)
(0.502074 0.0575385 0.0312892)
(0.719029 0.0355793 -0.105053)
(0.764991 0.0459056 -0.134846)
(0.573024 0.0214427 -0.0627325)
(0.628329 0.0162848 -0.0799806)
(0.674653 0.0572029 -0.226643)
(0.728345 -0.00267002 -0.207035)
(0.682473 -0.0556588 -0.140817)
(0.771274 0.0226002 -0.137012)
(0.793397 0.0451298 -0.0665644)
(0.98956 -0.0513293 -0.0437229)
(0.845604 -0.0432693 -0.117248)
(0.630302 0.0488022 -0.208469)
(0.550952 0.0622665 -0.0437419)
(0.520029 0.0503312 -0.0413831)
(0.64486 0.0513737 -0.103334)
(0.692072 0.0475091 -0.0898068)
(0.44467 0.000782155 -0.061918)
(0.279184 0.0172198 -0.0988833)
(0.388781 0.0246594 -0.077845)
(0.567982 0.0754842 -0.04302)
(0.580075 0.0692662 -0.0708317)
(0.687255 0.0709616 -0.107836)
(0.460238 0.089327 -0.00568544)
(0.694974 0.0332209 -0.08487)
(0.754509 0.0539867 -0.0422373)
(0.556124 -0.00780178 -0.14115)
(0.743172 -0.109949 -0.241253)
(0.83215 0.00114856 0.0998614)
(0.626481 0.0601544 0.0467858)
(0.632585 0.0397602 -0.158261)
(0.510292 -0.0162096 -0.284134)
(0.713294 0.0163703 -0.189119)
(0.799227 0.00188746 -0.112515)
(0.809987 -0.0889728 -0.14579)
(0.665934 -0.0257819 -0.0499773)
(0.59211 0.0130054 -0.0402971)
(0.731798 0.0378306 -0.128324)
(0.724929 -0.000391579 -0.0707746)
(0.635887 0.0058012 -0.0486021)
(0.548771 0.0807997 -0.0255279)
(0.649055 0.0409865 -0.0242974)
(0.796297 0.011589 -0.114632)
(0.647436 -0.0185485 -0.162626)
(0.692801 -0.0348867 -0.0696546)
(0.698681 0.0270341 -0.210861)
(0.904081 -0.043623 -0.229896)
(0.63808 -0.0904966 -0.143662)
(0.725787 -0.0192129 -0.139427)
(0.808209 0.0239017 -0.118516)
(0.955486 -0.0748548 -0.0198319)
(0.874292 -0.0767045 -0.0564821)
(0.662258 0.00993515 -0.170237)
(0.602154 0.0500505 -0.0814022)
(0.456873 0.02237 -0.00635008)
(0.675634 0.0120533 -0.120102)
(0.712243 0.0297178 -0.094899)
(0.432543 -0.016306 -0.0755412)
(0.354144 -0.0194907 -0.112594)
(0.359733 0.0389806 0.0531237)
(0.486569 0.0678804 -0.0115528)
(0.633001 0.0587052 -0.0628179)
(0.651649 0.0924233 -0.0904753)
(0.425125 0.0736414 0.00756581)
(0.820213 -0.0168207 -0.047247)
(0.763911 0.0238625 -0.0458225)
(0.523334 -0.00802194 -0.10408)
(0.700581 -0.145353 -0.144043)
(0.842135 -0.0237786 0.0688021)
(0.702658 0.0478055 0.0700088)
(0.753384 0.000158025 -0.0537189)
(0.638278 -0.0539784 -0.257953)
(0.703748 -0.0296806 -0.160682)
(0.765062 -0.0189484 -0.0397404)
(0.888629 -0.130375 0.0214416)
(0.720222 -0.067615 0.00791355)
(0.629407 -0.0107635 -0.0609017)
(0.729678 -0.00181562 -0.0773621)
(0.794477 -0.0400542 -0.0706119)
(0.704715 -0.000211219 -0.0975837)
(0.48784 0.0810383 -0.00692959)
(0.644368 0.0571476 0.0374402)
(0.81498 0.0395682 -0.116728)
(0.691152 0.000518746 -0.169744)
(0.696767 -0.0165066 -0.0964115)
(0.727434 0.0330432 -0.143075)
(0.896061 -0.0195299 -0.267405)
(0.663861 -0.074524 -0.1172)
(0.588119 -0.00406577 -0.126557)
(0.893062 0.0285703 -0.128044)
(0.987957 -0.024627 0.00980302)
(0.851236 -0.015475 -0.0542105)
(0.670123 0.0461272 -0.147282)
(0.621334 0.056945 -0.106887)
(0.529371 0.00100689 -0.0752688)
(0.713062 0.0299527 -0.178934)
(0.70873 0.0407527 -0.0898686)
(0.530125 0.0213663 -0.148795)
(0.391318 0.010904 -0.0756915)
(0.240025 0.0433988 0.192985)
(0.401193 0.0764534 0.0802696)
(0.630601 0.0774191 -0.0464951)
(0.566 0.143883 -0.0377298)
(0.59989 0.089327 0.00715997)
(0.719696 0.0133301 0.0299354)
(0.604089 0.0851763 0.0384005)
(0.491262 0.0329764 -0.0435742)
(0.643496 -0.0764605 -0.0829766)
(0.795593 0.011261 0.0994838)
(0.735465 0.0908941 0.1493)
(0.818666 0.0418951 -0.0830529)
(0.675843 -0.0231095 -0.263119)
(0.743119 -0.00374142 -0.186179)
(0.817757 0.00759319 -0.0522918)
(0.900232 -0.093379 0.00292047)
(0.810465 -0.0350494 0.047493)
(0.662316 0.0581733 -0.0444071)
(0.781993 0.0156409 -0.100804)
(0.802252 -0.00222084 -0.0995582)
(0.720085 0.0193039 -0.146528)
(0.512694 0.0612048 -0.0329439)
(0.666835 0.0463024 -0.00564258)
(0.850912 0.0274016 -0.167938)
(0.759523 0.00420203 -0.185406)
(0.741508 -0.0587154 -0.101832)
(0.699024 0.016615 -0.118316)
(0.932232 -0.0438404 -0.198677)
(0.787843 -0.0848637 -0.124236)
(0.563711 -0.0247161 -0.111671)
(0.839897 -0.000555655 -0.0578642)
(0.967695 -0.0672096 0.0861723)
(0.867211 -0.0649721 -0.0102911)
(0.695223 0.047207 -0.150452)
(0.670382 0.0383984 -0.0960703)
(0.578174 0.00283341 -0.117454)
(0.764902 0.000784042 -0.172974)
(0.7117 0.0382201 -0.0495041)
(0.593933 0.0084993 -0.208807)
(0.434887 0.00964627 -0.143393)
(0.376547 -0.0090013 0.0624847)
(0.372571 0.0512866 0.117232)
(0.527166 0.109813 -0.0639847)
(0.577673 0.121777 0.0178355)
(0.654184 0.0838313 0.0473247)
(0.637971 0.00846886 0.0694677)
(0.541438 0.0698786 0.161414)
(0.536379 0.0275796 -0.0336262)
(0.679534 -0.0888655 -0.0842591)
(0.742829 -0.00128717 0.0806808)
(0.839882 0.0872045 0.17375)
(0.83413 0.019184 -0.00473451)
(0.738451 -0.0164537 -0.215609)
(0.799035 0.00656472 -0.244485)
(0.785375 -0.0189629 -0.0867741)
(0.910165 -0.115945 -0.057937)
(0.821872 -0.0555762 0.00184767)
(0.689389 0.0658364 -0.0718177)
(0.792342 0.0138301 -0.147954)
(0.86064 -0.0368707 -0.0887863)
(0.742575 -0.0122473 -0.0974328)
(0.522759 0.0717568 -0.0636827)
(0.729611 0.066256 0.0137959)
(0.895949 0.0597545 -0.11508)
(0.841656 0.0344671 -0.194385)
(0.797448 -0.00874968 -0.138046)
(0.737629 0.0206963 -0.0485609)
(0.901873 -0.0362829 -0.102643)
(0.803165 -0.0415814 -0.085323)
(0.707001 -0.0378341 -0.0253612)
(0.754173 -0.00335193 -0.0254968)
(0.877675 -0.0360494 0.0876946)
(0.843177 -0.00301312 0.0155687)
(0.713913 0.0699833 -0.165574)
(0.738304 0.0500047 -0.201957)
(0.640484 -0.0295513 -0.118892)
(0.697964 0.0236365 -0.113189)
(0.7003 0.0646958 -0.0449338)
(0.58139 0.0417384 -0.132388)
(0.56219 0.032771 -0.19555)
(0.63107 0.0607682 -0.217305)
(0.496734 0.0309151 -0.0226989)
(0.359542 0.105575 0.0316934)
(0.528903 0.122562 0.0440176)
(0.663717 0.0826504 0.026735)
(0.756247 0.0128997 0.0118518)
(0.639013 0.0301965 0.154767)
(0.629416 0.0589641 -0.0158462)
(0.719476 -0.0428414 -0.111032)
(0.739046 -0.0127711 0.0323486)
(0.803214 0.0887432 0.158113)
(0.805752 0.0192702 0.0365268)
(0.752047 -0.0199811 -0.142516)
(0.812053 0.0124049 -0.243598)
(0.811457 -0.0210669 -0.10967)
(0.921095 -0.0877629 -0.076352)
(0.843646 -0.0527228 0.0107525)
(0.684566 0.0461581 -0.0501054)
(0.803335 0.0303363 -0.121342)
(0.937361 -0.0183175 -0.0677641)
(0.800945 0.0155293 -0.0499417)
(0.590929 0.080054 -0.0977461)
(0.769568 0.0619959 -0.0237096)
(0.845251 0.0318634 -0.0394826)
(0.915764 0.0283633 -0.146584)
(0.881717 -0.0147367 -0.0901944)
(0.722679 -0.0158131 -0.0272717)
(0.822609 -0.0439736 -0.112488)
(0.787909 -0.0672434 -0.125816)
(0.744369 -0.061117 -0.0355683)
(0.771111 -0.00939232 -0.02024)
(0.891994 -0.034766 0.0294156)
(0.836143 -0.0128032 -0.0363275)
(0.726558 0.0737349 -0.173571)
(0.779141 0.0271621 -0.231929)
(0.703066 -0.0250827 -0.138741)
(0.6601 0.0163026 -0.113202)
(0.680447 0.0561909 -0.0556532)
(0.608078 0.0606243 -0.064279)
(0.561885 0.040783 -0.096914)
(0.812043 0.025432 -0.272473)
(0.691893 0.0757664 -0.226924)
(0.473164 0.0996255 -0.021311)
(0.700531 0.109514 -0.0848719)
(0.816321 0.0764263 -0.156965)
(0.812075 0.0245755 -0.0749267)
(0.68839 0.0493148 0.0930232)
(0.631723 0.0795785 -0.000739594)
(0.728719 -0.0322066 -0.193324)
(0.71358 -0.015826 -0.0299174)
(0.736516 0.0809465 0.127041)
(0.84353 0.00788994 0.114826)
(0.803996 -0.0249605 -0.077384)
(0.797489 0.00470922 -0.219173)
(0.834792 -0.0105138 -0.123212)
(0.973689 -0.117926 -0.0947658)
(0.873716 -0.0769441 -0.0391668)
(0.68437 0.0546736 -0.0598574)
(0.844695 0.0189941 -0.144105)
(0.966564 -0.0424255 -0.0853999)
(0.764516 -0.00818099 -0.017518)
(0.711828 0.0851818 -0.0531518)
(0.715864 0.0518419 0.00587578)
(0.825863 0.00732079 -0.0354787)
(0.986368 0.0143173 -0.122449)
(1.02582 0.0122724 -0.080496)
(0.855464 0.0125834 0.00818469)
(0.85575 -0.0222897 -0.0248183)
(0.841987 -0.0201925 -0.0992476)
(0.796789 -0.0323466 -0.0672923)
(0.787549 -0.017953 -0.0278481)
(0.913682 -0.0365366 0.0481372)
(0.831909 -0.0167262 -0.0185497)
(0.735257 0.0802794 -0.154495)
(0.819784 0.0424085 -0.121141)
(0.753116 -0.0213815 -0.146453)
(0.689519 0.0432677 -0.133469)
(0.674202 0.0735651 -0.021756)
(0.634567 0.0967096 -0.0268042)
(0.58229 0.0739342 -0.0255167)
(0.732781 0.0106037 -0.109567)
(0.769551 0.0392564 -0.210617)
(0.65918 0.127803 -0.176082)
(0.777078 0.102913 -0.199955)
(0.806724 0.0663279 -0.19749)
(0.8249 0.0219892 -0.0570497)
(0.728487 0.0403171 0.0550332)
(0.614263 0.0576472 -0.0144338)
(0.665628 -0.00364366 -0.168763)
(0.660152 0.00184418 -0.0836488)
(0.740673 0.0696677 0.14456)
(0.869742 0.010221 0.253446)
(0.878985 -0.0381504 0.0829335)
(0.844447 0.00693985 -0.144634)
(0.902744 0.00477215 -0.156336)
(1.00115 -0.0792802 -0.0469454)
(0.850658 -0.0793175 -0.0208783)
(0.703279 0.0456389 -0.0831928)
(0.870057 0.0148841 -0.134926)
(0.968311 -0.0669889 -0.11615)
(0.800586 -0.00481545 -0.0789991)
(0.785373 0.0782735 0.00653915)
(0.749572 0.0543968 -0.00128207)
(0.879246 -0.0256236 0.000397865)
(1.05723 -0.0330938 -0.0528261)
(1.16692 -0.00084999 -0.153311)
(1.0499 -0.00373957 -0.0643033)
(0.93537 -0.0361748 0.036975)
(0.907225 -0.0300596 -0.0461073)
(0.853374 -0.0511376 -0.0407073)
(0.865667 -0.0207658 -0.0495821)
(0.957893 -0.013283 -0.00011222)
(0.822927 -0.0334332 -0.0175687)
(0.696584 0.0612661 -0.20798)
(0.8198 0.0475462 -0.156537)
(0.812652 -0.0257537 -0.127285)
(0.643924 0.0356883 -0.110851)
(0.645656 0.043002 -0.0775541)
(0.653321 0.0890567 -0.0184233)
(0.621474 0.0919623 -0.0206989)
(0.646836 0.0585342 -0.097479)
(0.688125 0.018772 -0.133923)
(0.636217 0.0761596 -0.173956)
(0.724357 0.052191 -0.193253)
(0.759029 0.0546277 -0.123126)
(0.834563 0.0465218 -0.0636242)
(0.768789 0.06226 -0.0122936)
(0.652197 0.0777814 -0.0267623)
(0.671118 -0.00475494 -0.141622)
(0.651545 -0.00900299 -0.0732033)
(0.690898 0.0602339 0.17495)
(0.841996 -0.0106555 0.22571)
(0.818478 -0.0510984 0.0834203)
(0.783888 0.0249303 -0.0800456)
(0.928853 0.0157031 -0.13757)
(1.05668 -0.100598 -0.0406128)
(0.855638 -0.0631674 0.0115734)
(0.656048 0.0450271 -0.018532)
(0.841301 0.0137751 -0.101568)
(0.977504 -0.0644533 -0.133853)
(0.893789 -0.0326832 -0.0808311)
(0.808738 0.0575732 0.00642735)
(0.802215 0.0516864 0.00965244)
(0.909125 -0.0291328 0.0873364)
(1.0079 -0.0625482 0.104879)
(1.15312 -0.0118859 -0.115462)
(1.11106 0.0134582 -0.201373)
(1.01528 -0.0110397 -0.0243122)
(0.921465 0.00892993 0.0313547)
(0.899242 -0.00242002 0.0479407)
(0.889444 -0.0164866 -0.0759366)
(0.976645 -0.0137069 -0.0484856)
(0.825917 -0.0228777 0.0586303)
(0.680953 0.00836631 -0.122853)
(0.771839 0.0345991 -0.192371)
(0.904833 -0.00613781 -0.107186)
(0.736312 0.00340976 -0.0740621)
(0.706458 0.0251465 -0.107782)
(0.692062 0.0551134 -0.0178506)
(0.66173 0.103023 -0.0292686)
(0.715494 0.0458822 -0.119873)
(0.646311 0.0414997 -0.0788762)
(0.658024 0.0439301 -0.0963293)
(0.788118 -0.0163364 -0.252391)
(0.786099 -0.0220829 -0.22568)
(0.836131 0.0017364 -0.117891)
(0.797352 0.0438781 0.0275534)
(0.661528 0.0851163 0.010306)
(0.692512 2.65406e-05 -0.135176)
(0.687452 -0.0248501 -0.0729165)
(0.675432 0.0492502 0.141997)
(0.823803 -0.0133181 0.173891)
(0.79207 -0.0226687 0.0106146)
(0.747443 0.0102486 -0.0881557)
(0.947843 0.000534202 -0.0851407)
(1.07413 -0.0858329 -0.0525534)
(0.847563 -0.0528457 -0.0107477)
(0.598346 0.0583239 0.0011428)
(0.832945 0.00186491 -0.1167)
(0.994438 -0.0795344 -0.209802)
(0.937152 -0.0449593 -0.0888901)
(0.881939 0.043109 -0.0986277)
(0.905749 0.0578153 0.0255337)
(0.879069 -0.014586 0.0941343)
(0.893597 -0.0536289 0.0612073)
(1.12982 -0.0617886 -0.0661179)
(1.13072 -0.0491655 -0.170841)
(1.02999 -0.0611584 -0.0693647)
(0.861779 -0.0396126 0.0160754)
(0.883386 -0.031279 0.0197585)
(0.914036 -0.02348 -0.0727837)
(0.946398 -0.00381282 -0.109006)
(0.926348 -0.0183627 0.0227483)
(0.826557 -0.0304724 0.0112622)
(0.825848 -0.0220996 -0.0951895)
(0.955781 -0.00417287 -0.0906559)
(0.826817 0.0180231 -0.0695897)
(0.709831 -0.00663016 -0.0420084)
(0.636765 0.0421896 0.0180922)
(0.667081 0.138473 -0.0329911)
(0.692747 0.0923806 -0.0835463)
(0.638758 0.045107 -0.0552003)
(0.73985 0.0360491 -0.0764724)
(0.829885 -0.0509846 -0.21611)
(0.821596 -0.0360427 -0.248325)
(0.876298 0.0120628 -0.155251)
(0.845525 0.0337994 0.0120536)
(0.722055 0.0505711 0.0470505)
(0.754506 0.0101831 -0.100435)
(0.73412 -0.00140749 -0.0796852)
(0.765139 0.0211702 0.0988971)
(0.897332 -0.0279919 0.207292)
(0.890546 -0.0223991 0.0609747)
(0.845243 0.026555 -0.0695402)
(0.94927 -0.0172752 -0.116425)
(1.01614 -0.0937875 -0.126016)
(0.82791 -0.0475379 -0.00239717)
(0.698787 0.0410687 0.0253632)
(0.927129 -0.0184066 -0.11258)
(1.02845 -0.0980868 -0.208002)
(0.98621 -0.062811 -0.165367)
(0.899277 0.000544478 -0.0958986)
(0.898564 0.0316063 -0.0163569)
(0.945666 -0.0137545 0.0574695)
(0.974293 -0.0674025 0.0444014)
(1.09348 -0.0730992 -0.0337892)
(1.10928 -0.0727731 -0.112501)
(1.03717 -0.0870651 -0.0535148)
(0.914575 -0.0748693 0.0341574)
(0.912883 -0.0519409 0.0488554)
(0.959118 -0.0108038 -0.00370988)
(0.97323 0.0108439 -0.0814981)
(1.00179 -0.00270057 -0.0391757)
(0.961437 -0.0402848 -0.0446689)
(0.897975 -0.0333457 -0.0631826)
(0.946405 -0.00713382 -0.0222556)
(0.886833 0.0348482 -0.0967783)
(0.790699 0.00610655 -0.0776167)
(0.71204 0.0304481 0.0284135)
(0.730842 0.103448 0.0523365)
(0.726482 0.0867311 0.023174)
(0.723196 0.0868946 0.0170895)
(0.839438 0.0547405 -0.026775)
(0.847402 -0.0622755 -0.133307)
(0.825755 -0.0833264 -0.185747)
(0.879491 -0.036559 -0.156067)
(0.857439 0.0445158 -0.034001)
(0.824613 0.0730365 0.0551053)
(0.821673 0.0162221 -0.0583384)
(0.768624 0.0116647 -0.090646)
(0.856478 0.00472399 0.0499437)
(0.94722 -0.0172571 0.165412)
(0.915236 0.03123 0.078212)
(0.858221 0.0515417 -0.0814239)
(0.943147 -0.0210242 -0.133613)
(1.00876 -0.0833081 -0.128124)
(0.858831 -0.0244358 -0.040351)
(0.78366 0.0573104 0.0328396)
(0.925095 -0.0139783 0.0137515)
(1.04733 -0.0924179 -0.064618)
(1.04323 -0.0804927 -0.095)
(0.974249 0.00119354 -0.0715558)
(0.974973 0.0255341 0.0105582)
(0.998617 -0.0187011 0.0600233)
(1.03993 -0.0727878 0.0644464)
(1.11603 -0.078853 -0.0074498)
(1.12104 -0.0504057 -0.0823274)
(1.12416 -0.0639823 -0.0474694)
(1.02064 -0.0699963 0.030719)
(0.983386 -0.0404312 0.0700759)
(1.02092 0.000947301 0.038619)
(1.00805 0.0302024 -0.0338669)
(1.01726 0.0277413 0.00880636)
(1.01702 -0.0136737 -0.0250235)
(0.933678 -0.0338641 -0.0587766)
(0.922094 -0.0114589 0.00644621)
(0.912418 0.0357057 -0.0526121)
(0.852761 0.0416954 -0.0684823)
(0.774425 0.0445004 0.00366292)
(0.739844 0.0544106 0.0437829)
(0.711052 0.0668253 0.0276636)
(0.763632 0.0841821 -0.0227792)
(0.867628 0.0426837 -0.0788059)
(0.860142 -0.0595014 -0.114653)
(0.819927 -0.0681517 -0.135642)
(0.854588 -0.0263594 -0.13893)
(0.843915 0.00198218 -0.0755221)
(0.848585 0.0406402 0.0175929)
(0.868053 0.0472036 -0.0200067)
(0.828698 0.029527 -0.076881)
(0.906336 0.00684166 0.00826818)
(0.951295 -0.0178812 0.150109)
(0.911781 0.036175 0.0652905)
(0.888878 0.0595697 -0.120354)
(0.969859 -0.00987152 -0.102099)
(1.00511 -0.0697963 -0.0657859)
(0.902415 -0.0151699 -0.0696725)
(0.846419 0.0479817 0.00728374)
(0.93718 0.00756249 0.0519887)
(1.03542 -0.061051 -0.0134979)
(1.05722 -0.0736547 -0.0856157)
(1.03462 0.0195151 -0.0483127)
(1.05987 0.0572234 0.00483729)
(1.08296 -0.00280297 0.018109)
(1.09427 -0.0778876 0.0151019)
(1.13609 -0.0811603 -0.0541042)
(1.13123 -0.0536124 -0.113818)
(1.10794 -0.0719296 -0.0507268)
(1.04153 -0.0723509 0.032269)
(0.987976 -0.0538073 0.018809)
(0.977296 -0.000299878 0.0151262)
(0.966025 0.0195402 0.00837524)
(1.00849 0.010255 0.0115045)
(1.04838 -0.0178533 -0.0471529)
(0.976969 -0.0439246 -0.0981682)
(0.894535 -0.0178971 -0.0117819)
(0.881491 0.0344401 0.00337496)
(0.875182 0.0637194 -0.0816141)
(0.811158 0.0694196 -0.0760289)
(0.784223 0.0454087 0.0267136)
(0.809805 0.0523198 0.0132243)
(0.882688 0.0978254 -0.0880451)
(0.962207 0.0743241 -0.0818592)
(0.974381 -0.0216095 -0.0516904)
(0.879559 -0.0670621 -0.0763104)
(0.859793 -0.0320532 -0.128957)
(0.884953 0.0101148 -0.14791)
(0.89501 0.0295834 -0.0350967)
(0.901359 0.0370865 0.0118553)
(0.907387 0.0242245 -0.0308793)
(0.961717 -0.00093531 0.0194994)
(0.928939 0.032966 0.0982796)
(0.85032 0.0705501 0.0247742)
(0.90328 0.0602094 -0.0850222)
(1.01165 0.00511018 -0.0620506)
(1.01685 -0.0473878 -0.0607614)
(0.921141 -0.0113196 -0.0609754)
(0.865706 0.0406708 0.0551018)
(0.972455 -0.00318596 0.0838654)
(1.06845 -0.0798004 -0.017708)
(1.07651 -0.0755057 -0.0831149)
(1.08355 -0.00141296 -0.0225058)
(1.14042 0.0347914 0.0074188)
(1.18337 0.0102926 -0.00634604)
(1.15544 -0.0577276 -0.0276065)
(1.10821 -0.0863902 -0.0670097)
(1.10777 -0.0542186 -0.0907053)
(1.08458 -0.0539415 -0.0560114)
(1.02333 -0.0628675 -0.0044803)
(1.02979 -0.0648744 0.0219825)
(1.02278 -0.0356025 0.0273122)
(0.995123 0.0242714 0.0176624)
(1.00005 0.0342712 -0.00875436)
(1.00909 -0.0225426 -0.0588183)
(0.983115 -0.0574823 -0.118355)
(0.90682 -0.0185195 -0.0919986)
(0.882898 0.0323642 -0.0619579)
(0.894302 0.0410608 -0.113628)
(0.860126 0.0468483 -0.125936)
(0.884787 0.0356798 -0.00786612)
(0.926411 0.0158592 0.0575994)
(0.979267 0.0460116 0.00807507)
(1.05107 0.0598172 -0.0158336)
(1.02877 0.00905699 -0.0394122)
(0.912861 -0.00301109 -0.0527394)
(0.875573 0.0027968 -0.0613966)
(0.904767 -0.00178604 -0.125824)
(0.949039 0.0125052 -0.112749)
(0.97674 0.0287479 -0.0332689)
(0.979532 0.0289464 -0.0288425)
(0.976334 0.0101605 -0.0333907)
(0.926253 0.0086073 0.0162931)
(0.862765 0.0406827 0.0546664)
(0.883849 0.0516159 0.0458267)
(0.964183 0.00801422 0.0192194)
(0.977946 -0.0412971 -0.0190571)
(0.925464 -0.00942605 -0.0533018)
(0.928922 0.0409725 0.00618899)
(1.02038 -0.00473754 0.0629831)
(1.06766 -0.055977 0.0258535)
(1.06446 -0.0574762 -0.0407864)
(1.11981 -0.0153241 -0.0202816)
(1.18199 0.0175215 -0.00752592)
(1.21099 0.00380007 -0.0226049)
(1.15056 -0.0422811 -0.01207)
(1.05451 -0.0797442 0.000498424)
(1.05045 -0.0691625 -0.0317849)
(1.09554 -0.0391123 -0.0687248)
(1.06509 -0.0255346 -0.058988)
(1.07112 -0.0337917 0.0191197)
(1.06197 -0.0326425 0.0552413)
(0.998271 -0.00689421 -0.00094435)
(1.01085 -0.00264067 -0.0466275)
(1.06828 0.00214795 -0.0654043)
(1.08233 -0.000152562 -0.0703755)
(1.01692 -0.00154453 -0.0695563)
(0.980839 0.0422052 -0.0699598)
(0.975851 0.0547055 -0.07672)
(0.896843 0.0239441 -0.0818333)
(0.854942 -0.0174577 -0.0268039)
(0.85045 -0.0269477 0.0394687)
(0.885893 0.0037185 0.0525909)
(1.02552 0.0324364 0.00765493)
(1.05277 0.0131023 -0.0525456)
(0.945996 0.00224718 -0.0582387)
(0.904133 0.0106581 -0.0170822)
(0.912906 -0.0227231 -0.00682613)
(0.944978 -0.0394602 -0.0468502)
(0.986942 -0.0380747 -0.0727334)
(0.989503 -0.0332849 -0.0603998)
(0.973501 -0.00233062 -0.024774)
(0.959844 0.0619581 -0.00275233)
(0.924244 0.0846281 0.0163968)
(0.895176 0.0558703 0.00871896)
(0.9364 0.0179626 -0.00504194)
(0.977492 -0.025779 -0.0149442)
(0.973999 -0.019797 -0.0420623)
(0.976884 0.011637 -0.0281533)
(1.00838 -0.0118102 0.0119224)
(1.04448 -0.0470525 0.0201247)
(1.07102 -0.0521009 -0.0108079)
(1.0952 -0.0233528 -0.0013701)
(1.16527 0.0153127 -0.0175356)
(1.2054 0.0260758 -0.00337398)
(1.16849 -0.0022839 0.0065072)
(1.11279 -0.0436448 -0.0267447)
(1.09626 -0.0618201 -0.0608708)
(1.14684 -0.047144 -0.0438563)
(1.16443 -0.0219586 -0.0328979)
(1.12705 -0.0178204 -0.0365369)
(1.06744 -0.0175303 -0.018387)
(0.986839 -0.0114922 0.0038838)
(0.959645 -0.0231731 0.0253719)
(0.985582 -0.0466772 0.00591874)
(1.06437 -0.0546644 -0.0304934)
(1.10013 -0.0206335 -0.0263398)
(1.04743 0.0341228 -0.00325688)
(1.00399 0.0621322 0.00565288)
(0.972611 0.0573715 -0.0132498)
(0.951735 0.0136308 -0.00427055)
(0.921706 -0.0338595 0.0178774)
(0.867133 -0.0332185 0.0282251)
(0.921259 -0.01491 0.0234427)
(1.03569 0.0126577 -0.0266881)
(1.03029 0.0386792 -0.0680681)
(0.972339 0.0356229 -0.0688079)
(0.932742 0.00287287 -0.0208005)
(0.916261 -0.0421477 0.0289418)
(0.935185 -0.0575053 0.018216)
(0.95718 -0.0284284 0.00239831)
(0.959182 0.00933196 0.0220128)
(0.949768 0.0498207 0.0364967)
(0.945622 0.0753011 0.0152982)
(0.966772 0.0587898 0.00160078)
(0.996717 0.0206518 0.0338011)
(1.01746 -0.020101 0.0430884)
(1.05019 -0.0440866 0.00182971)
(1.04042 -0.0218808 -0.0108147)
(1.00657 -0.0116645 0.0353046)
(1.00498 -0.032424 0.0727213)
(1.03713 -0.0472726 0.0490378)
(0.99663 -0.0478661 0.0186646)
(1.10762 -0.00231433 -0.00171825)
(1.25335 0.0140019 -0.0341559)
(1.26293 -0.00696114 -0.0457512)
(1.18972 -0.0300464 -0.0371298)
(1.14354 -0.0360681 -0.00208289)
(1.16483 -0.0188359 0.0428182)
(1.23759 0.0201928 0.0244955)
(1.22759 0.0296142 -0.0153147)
(1.1103 0.00491582 0.0112695)
(0.962198 0.0037003 0.0692155)
(0.883323 0.00666678 0.0721551)
(0.895717 -0.0232393 0.0317637)
(0.975045 -0.0672254 -0.0237453)
(1.04233 -0.04622 -0.0545791)
(1.03068 0.00447261 -0.0267767)
(0.985747 0.0269442 0.00279297)
(0.954713 0.0445345 -0.0105357)
(0.967703 0.0508271 -0.0324516)
(1.00971 0.0451802 -0.0232237)
(1.00857 0.0189742 -0.000481343)
(0.962925 -0.0144128 0.00494673)
(0.978511 -0.0181307 -0.0189187)
(1.02966 0.033892 -0.0658195)
(1.06094 0.0689028 -0.112047)
(1.03857 0.0395365 -0.122487)
(0.985907 -0.0122865 -0.0640011)
(0.936195 -0.0527062 0.00339029)
(0.908714 -0.0479095 0.0358264)
(0.913314 -0.00836521 0.0354591)
(0.963336 0.0478305 0.00763112)
(1.03374 0.0877868 -0.00816322)
(1.07438 0.0619792 0.0259045)
(1.05248 0.00826678 0.06255)
(0.997231 -0.0412762 0.0448472)
(0.999204 -0.0642683 -0.0137488)
(1.00424 -0.0490574 -0.0490013)
(0.987248 -0.046643 -0.0244778)
(0.973164 -0.062069 0.021204)
(0.966052 -0.0707808 0.0317222)
(1.06106 -0.034873 0.0575585)
(1.13508 -0.0297632 0.0189549)
(1.27002 -0.010355 -0.0239604)
(1.28205 -0.00592241 -0.0229313)
(1.17093 -0.0338595 -0.0186484)
(1.05966 -0.0532492 -0.011202)
(1.04164 -0.0499088 0.00718043)
(1.12509 -0.00492173 0.0141247)
(1.1891 0.0458077 -0.00194285)
(1.1318 0.0408469 -0.0130491)
(0.984994 0.0061483 0.0105061)
(0.877583 -0.0242394 0.0397132)
(0.884839 -0.0518631 0.0444507)
(0.958854 -0.0803799 0.00196195)
(1.00594 -0.0677806 -0.0575101)
(1.01553 -0.00233776 -0.0587545)
(1.01624 0.0455723 -0.0297153)
(1.00008 0.0498001 -0.0304068)
(0.979527 0.0166182 -0.0395389)
(0.981976 -0.00756091 -0.0547062)
(1.03127 0.00235594 -0.0793607)
(1.06796 0.01238 -0.0854823)
(1.02981 0.00062118 -0.0851739)
(0.997671 -0.0115457 -0.0897254)
(0.994338 -0.00660814 -0.0935884)
(1.01383 0.00794456 -0.106424)
(1.02871 0.0118747 -0.105097)
(0.99134 -0.0114199 -0.0821567)
(0.935242 -0.0290063 -0.0470623)
(0.913814 -0.0168604 -0.0103551)
(0.949102 0.0050911 0.00287594)
(0.98966 0.0130404 0.0138359)
(1.00254 0.00101369 0.0391359)
(1.00388 -0.00241895 0.0472193)
(1.00602 -0.00762749 0.0196095)
(1.02218 -0.0355946 -0.0192847)
(1.04221 -0.041473 -0.0379316)
(1.07549 -0.0291006 -0.020683)
(1.10195 -0.0301424 0.0210469)
(1.0851 -0.0341262 0.0535749)
(1.09436 -0.0279644 0.0557682)
(1.08661 -0.0128496 0.052411)
(1.16606 -0.00171209 0.0142773)
(1.25638 0.0193377 -0.00710842)
(1.24609 0.0248284 -0.002178)
(1.14043 -0.014535 -0.00113902)
(1.06278 -0.0427886 -0.00999921)