/*--------------------------------*- C++ -*----------------------------------*\
  =========                 |
  \\      /  F ield         | OpenFOAM: The Open Source CFD Toolbox
   \\    /   O peration     | Website:  https://openfoam.org
    \\  /    A nd           | Version:  10
     \\/     M anipulation  |
\*---------------------------------------------------------------------------*/
FoamFile
{
    format      ascii;
    class       volScalarField;
    location    "4";
    object      pMean;
}
// * * * * * * * * * * * * * * * * * * * * * * * * * * * * * * * * * * * * * //

dimensions      [0 2 -2 0 0 0 0];

internalField   nonuniform List<scalar> 
102400
(
-0.00796046
0.00354644
0.0300524
0.0143203
-0.0246532
-0.0434446
-0.00662693
0.0243497
0.016017
-0.000664475
0.00682301
0.000937291
0.00536812
0.0200093
0.0107018
0.00215078
0.00631703
0.0186384
0.0118253
-0.0204137
-0.0132921
0.0109473
0.00785488
-0.000710127
-0.00160676
-0.00203178
-0.0076929
-0.00845333
-0.0101625
-0.0230911
0.00188386
0.0264725
-0.0026015
-0.0278188
-0.00167702
0.0172695
-0.000327962
0.0036701
0.0141438
0.00179267
-0.0133893
-0.00146662
0.0255109
0.00904533
-0.0303408
-0.0482816
-0.0117127
0.0191612
0.0106346
-0.00592121
0.00148671
-0.00444627
0.000294266
0.0150411
0.00562012
-0.0029294
0.00129073
0.0137171
0.00690464
-0.0253053
-0.0180156
0.00605254
0.00292204
-0.00575206
-0.00682904
-0.00745606
-0.01309
-0.0135511
-0.0152834
-0.0283853
-0.00340971
0.0212071
-0.0078663
-0.0328866
-0.00693491
0.011944
-0.0056478
-0.00135368
0.00929233
-0.00345018
-0.0132391
-0.00148535
0.0269292
0.010375
-0.0300581
-0.0474644
-0.0125931
0.0191093
0.0103503
-0.0061217
0.00188051
-0.00427958
0.000599182
0.0155245
0.00561465
-0.00293702
0.00146656
0.0141452
0.00724672
-0.0254837
-0.0182931
0.00560433
0.00286544
-0.00548805
-0.00652799
-0.00757463
-0.0133299
-0.0133936
-0.0148786
-0.0281983
-0.00308386
0.0210657
-0.00861602
-0.0329255
-0.00673384
0.0118987
-0.00610539
-0.00164288
0.00956494
-0.00309838
-0.0129738
-0.00200799
0.0276416
0.0127024
-0.029532
-0.0481414
-0.0149666
0.0168703
0.00853716
-0.00648508
0.00220105
-0.00420437
0.000182391
0.0158
0.00527767
-0.0034896
0.0008485
0.0138701
0.00744562
-0.0257406
-0.0187714
0.00471968
0.00226025
-0.00574452
-0.00640021
-0.00780019
-0.0139071
-0.0137681
-0.0145383
-0.0277423
-0.00225042
0.0209601
-0.00943836
-0.0335381
-0.00701294
0.0121777
-0.0063843
-0.0023034
0.00918923
-0.00291066
-0.0115787
-0.00193852
0.0270698
0.0146971
-0.0264523
-0.0492588
-0.0178462
0.0147877
0.00824338
-0.0068515
0.00205586
-0.00347404
0.000351192
0.0161451
0.00555561
-0.00318119
0.00117732
0.0136641
0.00728745
-0.0255643
-0.0184534
0.00423893
0.00178094
-0.00606375
-0.00578721
-0.00694487
-0.013749
-0.0143237
-0.0140306
-0.0262672
-0.000790155
0.0218147
-0.00894461
-0.0330315
-0.00746177
0.0127689
-0.00507384
-0.00190089
0.00928287
-0.001978
-0.0105763
-0.000465561
0.0262164
0.0142671
-0.0239257
-0.0474032
-0.0192655
0.0111256
0.00669081
-0.00659913
0.00128058
-0.00414725
0.000427015
0.0174183
0.00587384
-0.00294419
0.00240088
0.0141713
0.0063303
-0.0259284
-0.0179723
0.00402348
0.00159513
-0.00656322
-0.00577115
-0.00631625
-0.0132938
-0.0148456
-0.0145467
-0.0247466
0.000616674
0.0225774
-0.00698008
-0.030172
-0.0082462
0.0119439
-0.00488794
-0.000819681
0.00940097
-0.0015542
-0.0105613
0.00348368
0.028353
0.0138176
-0.0225323
-0.0423665
-0.0174242
0.0077412
0.00172978
-0.00495244
0.0024436
-0.0043972
-0.000683951
0.0170562
0.00671432
-0.00281501
0.00335411
0.0157742
0.0052979
-0.0273894
-0.0178066
0.00448688
0.00188027
-0.00687159
-0.00589004
-0.00727326
-0.0143989
-0.0145574
-0.0156835
-0.0249448
0.00219437
0.0227017
-0.00442726
-0.0263114
-0.00756952
0.0116368
-0.00570021
0.00140022
0.0105371
-0.00224207
-0.0115296
0.00665757
0.0310276
0.0158383
-0.0208639
-0.0383756
-0.0146202
0.00661484
-0.000746663
-0.00243114
0.00543162
-0.00263207
-0.00136335
0.0146521
0.00677075
-0.00229718
0.00326358
0.0182046
0.00567381
-0.0283537
-0.0181321
0.00533086
0.00179828
-0.00731657
-0.0060566
-0.00946637
-0.0164558
-0.0147845
-0.016833
-0.0267525
0.00268736
0.0231967
-0.00372861
-0.0247244
-0.00641713
0.0122751
-0.00381561
0.00322454
0.0130602
-0.00317767
-0.0111885
0.00773632
0.0303706
0.0177616
-0.0180185
-0.0354189
-0.0134665
0.00832453
0.00197653
0.000224235
0.00890014
0.000784943
-0.00121399
0.0156154
0.00794628
0.000436146
0.00280659
0.020662
0.0103275
-0.0273007
-0.0177487
0.00681419
0.00187009
-0.00764606
-0.00644112
-0.0110074
-0.0172091
-0.01562
-0.0175326
-0.0274071
0.00269803
0.0241144
-0.00447462
-0.0242575
-0.00683889
0.0128361
-0.00040832
0.00360838
0.015354
-0.00429934
-0.0109119
0.00996895
0.031306
0.0164418
-0.016005
-0.0322399
-0.0148219
0.0109869
0.00520594
0.00362467
0.0143342
0.00226136
-0.00119361
0.0151777
0.00942864
0.00236481
0.00419193
0.0175543
0.0133474
-0.025553
-0.0176337
0.00917516
0.00297805
-0.00749384
-0.00744872
-0.0122315
-0.0186478
-0.0161162
-0.0179235
-0.0263019
0.00207347
0.0229397
-0.00588972
-0.0231098
-0.00731776
0.0122171
0.000978525
0.00528403
0.0163398
-0.00580344
-0.0137005
0.012059
0.0318766
0.0164386
-0.0149414
-0.0290479
-0.0143901
0.0119025
0.00718529
0.00518285
0.0191624
0.000511898
-0.0024471
0.0131254
0.00806319
0.00110415
0.00688029
0.0139138
0.00948973
-0.0262617
-0.0190762
0.0127007
0.0058131
-0.00600857
-0.00915067
-0.0136796
-0.0206639
-0.0160793
-0.0174591
-0.0257736
-0.00050976
0.0202955
-0.00768814
-0.0215606
-0.00657813
0.00992673
-0.00104058
0.00766724
0.0179038
-0.00672491
-0.0165345
0.0119442
0.0292735
0.0162598
-0.015164
-0.0273812
-0.0114362
0.0119464
0.00559672
0.00452287
0.021796
0.000648064
-0.00650375
0.0117436
0.00769666
-8.47403e-05
0.00717983
0.0138116
0.00584563
-0.0263802
-0.019611
0.0151878
0.00668089
-0.00593436
-0.0110532
-0.013131
-0.0188337
-0.0150334
-0.0164696
-0.0257782
-0.00224435
0.0175435
-0.00984487
-0.0202446
-0.0052049
0.00637302
-0.00412604
0.00673019
0.0198737
-0.00559672
-0.0159672
0.0119772
0.0271638
0.0148689
-0.0149265
-0.0250681
-0.00702413
0.0121364
3.11574e-05
-0.000100537
0.0202211
0.00312597
-0.00869367
0.00956316
0.00944451
-0.000237067
0.00647699
0.0149721
0.00655167
-0.0252748
-0.0187859
0.0163053
0.00665902
-0.00688801
-0.012419
-0.0111395
-0.0151525
-0.0140898
-0.0164124
-0.0242602
0.00073908
0.0162297
-0.0117772
-0.0195433
-0.00395764
0.00202826
-0.00478337
0.00472541
0.0202708
-0.00258881
-0.0151218
0.0117469
0.0258961
0.0129922
-0.0144729
-0.023571
-0.00268578
0.0124014
-0.00351219
-0.00457139
0.0170829
0.00683615
-0.00507283
0.0101373
0.0108973
-0.000324486
0.00514059
0.0181367
0.0104814
-0.0212931
-0.0150529
0.0159908
0.00862567
-0.00470261
-0.0127285
-0.0110255
-0.0120207
-0.0114321
-0.0163783
-0.0245465
0.00343341
0.0172751
-0.0114472
-0.0167033
-0.00189155
-0.00131341
-0.00437339
0.00651284
0.0199614
-0.00115149
-0.0160937
0.00885956
0.0241793
0.0114566
-0.0149917
-0.0238082
-0.000285189
0.0138446
-0.0014643
-0.00216451
0.0178833
0.0094912
-0.00255085
0.0106962
0.0110793
0.000717165
0.00227577
0.0185732
0.0134559
-0.0173661
-0.0103662
0.0150613
0.00879489
-0.00357288
-0.0126358
-0.0120385
-0.00951112
-0.00647812
-0.0136245
-0.0255136
0.00363297
0.0184667
-0.0102391
-0.0128583
0.00191945
-0.0010612
-0.00519868
0.00959948
0.0214525
-0.000844877
-0.0180257
0.00434862
0.0215631
0.00996713
-0.015385
-0.0236161
0.00210031
0.0175747
0.00134794
0.0016891
0.0202055
0.0118286
-0.00102643
0.00823598
0.0101764
0.000905273
-0.000998953
0.0141469
0.0136037
-0.0148654
-0.00771071
0.0162687
0.00961234
-0.00280107
-0.0122811
-0.0124637
-0.00600888
6.58517e-05
-0.007819
-0.0237155
0.00352391
0.0191684
-0.00959549
-0.0106416
0.00571256
0.00214071
-0.00623248
0.00855633
0.0220515
-0.00232657
-0.016626
0.00382932
0.020093
0.00804323
-0.0140391
-0.0201183
0.00424883
0.0215363
0.00446236
0.00370814
0.0213206
0.0143372
0.00125352
0.00590841
0.00834481
4.18061e-05
-0.00211923
0.0133565
0.0154855
-0.0131012
-0.00693012
0.0178895
0.0127129
0.00156984
-0.00851244
-0.0110988
-0.00235664
0.00682253
-0.00240844
-0.0219994
0.00316388
0.0196781
-0.00911949
-0.0103624
0.00717294
0.00426042
-0.00402709
0.00881458
0.022083
-0.0035363
-0.0124147
0.00507621
0.0190445
0.00546252
-0.0139103
-0.0156738
0.00558463
0.0212992
0.00376752
0.00269792
0.0200311
0.0147589
0.00191808
0.00373116
0.006323
0.000500527
-0.000906354
0.0170194
0.0180397
-0.0112876
-0.00703338
0.0178437
0.0137164
0.00461826
-0.00289963
-0.00753341
0.000836499
0.0111924
0.000960043
-0.0207407
0.00254374
0.0205932
-0.00852509
-0.0105729
0.0084402
0.00534812
-0.00398002
0.00903925
0.0227866
-0.000873323
-0.0103641
0.00412934
0.0178285
0.00327729
-0.0161611
-0.0150345
0.00532709
0.0212834
0.00467394
0.00302324
0.0173748
0.0128071
0.00268312
0.00217566
0.002831
-0.00237991
-0.00523416
0.0129151
0.0168248
-0.00908037
-0.0086245
0.0144598
0.0117543
0.00517725
0.000914668
-0.00630059
0.000553068
0.013398
0.00372722
-0.0196965
0.000602295
0.0206559
-0.00774124
-0.0111179
0.00911477
0.00681839
-0.00321812
0.00763695
0.020946
0.00188706
-0.00800211
0.00233623
0.0152475
0.0034815
-0.0149202
-0.0130667
0.00483292
0.0184795
0.00381361
0.00552405
0.0191714
0.0110582
0.00184502
-0.000935163
-0.000529219
-0.00301799
-0.00821164
0.00315323
0.0135253
-0.00429101
-0.0111354
0.0076347
0.00771388
0.00412926
0.00347394
-0.00550137
-0.00208492
0.0146714
0.00749937
-0.0180822
-0.000639264
0.0217076
-0.00461746
-0.0100974
0.00919032
0.00620436
-0.00268024
0.00719253
0.018174
0.00299475
-0.00200113
0.00512149
0.0155306
0.00524751
-0.0114382
-0.0101246
0.00257254
0.0146052
0.00322536
0.00580148
0.0196808
0.0107559
0.00343242
-0.000758484
-0.00281097
0.000340047
0.00111157
0.00835833
0.0154698
-0.000175991
-0.0107473
0.00499751
0.00693769
0.00443777
0.00692477
-0.00332407
-0.00604775
0.0128051
0.0106377
-0.0167109
-0.0030199
0.0218052
-0.00134104
-0.00786072
0.0106888
0.00688504
-0.00284088
0.00608389
0.0165692
0.00580234
2.66317e-05
0.00291797
0.011142
0.00358982
-0.0107686
-0.00600415
0.00325426
0.0101323
0.00067342
0.00321239
0.0165927
0.0057864
-0.0025889
-0.00465081
-0.0035138
0.00394479
0.00136806
0.00368137
0.0133292
0.00577992
-0.00381859
0.00851881
0.0123167
0.00693868
0.0116124
0.00379922
-0.00597204
0.0089299
0.0116729
-0.0137533
-0.00404379
0.0221262
0.00111069
-0.0083383
0.0105499
0.00796783
-0.00225475
0.00511082
0.0145027
0.00590711
0.00265266
0.0029306
0.0100509
0.00450185
-0.0121504
-0.00552193
0.0046585
0.00875722
0.000586259
0.000713062
0.0145151
0.00488146
-0.00282063
-0.00518554
-0.00703525
0.00145273
0.00385125
0.00810848
0.0168023
0.00742744
-0.010254
-0.00230576
0.00793506
0.0031363
0.00973455
0.00801754
-0.00506479
0.00566561
0.0137196
-0.0106631
-0.00717827
0.0200241
0.00286595
-0.0101251
0.00842318
0.00900742
0.00136156
0.00793626
0.0133701
0.00561938
0.00274478
0.000827781
0.00529998
0.00371376
-0.0125083
-0.00629897
0.00463536
0.00744386
0.00256963
0.00202009
0.0167605
0.00971573
0.00275425
0.00163659
-0.00382604
-0.000180544
-0.00160712
-0.00374742
0.00510339
0.00684677
-0.00764996
-0.00628796
0.00457644
-0.00133018
0.00238948
0.00677904
-0.00502231
0.00193988
0.0161504
-0.00294634
-0.00653456
0.0186522
0.00712045
-0.00675306
0.00816409
0.00890528
0.00210442
0.00990763
0.014216
0.00572891
0.00611975
0.00410177
0.00679392
0.00509956
-0.0133874
-0.00598144
0.00739357
0.00692746
0.00298193
-7.98421e-05
0.0118809
0.0073011
0.000414794
0.00242484
-0.00273934
2.22367e-05
0.000404778
-0.00320173
0.000634627
0.00384807
-0.00903733
-0.0115523
0.00214156
-0.00136651
-0.00240739
0.00629061
-0.00255659
-0.003174
0.0135372
0.00168559
-0.00809144
0.0137017
0.00813033
-0.00441906
0.00817257
0.00783593
0.000916412
0.00758095
0.0117939
0.00679326
0.00270226
8.99733e-06
0.00311365
0.00339809
-0.0161835
-0.0125189
0.00420768
0.00606393
0.00479681
0.00125086
0.0112735
0.009561
-0.000216021
0.00317486
0.00184971
0.00200043
0.0038052
0.00262652
0.00262726
0.00793547
0.00386684
-0.00383104
0.00422918
0.0068026
0.00352125
0.010584
0.00305391
-0.00419683
0.0129473
0.00870869
-0.00464019
0.0108855
0.00829164
-0.00588306
0.0043253
0.00543336
-0.000345599
0.00460028
0.00789475
0.00417735
0.00428377
-0.000591397
0.00273147
0.00700714
-0.0103738
-0.00956671
0.00489204
0.00311738
0.00262416
0.00118929
0.00853557
0.00902994
-0.000563256
0.00229004
0.00189146
-4.14276e-05
0.00223472
0.00341351
0.00227343
0.00528637
0.00708808
0.000590188
0.00251682
0.004718
0.000158502
0.00941956
0.00885812
-0.00270972
0.0082148
0.00921154
-0.00369031
0.00787345
0.0117176
0.00205999
0.0115819
0.0115102
0.00311511
0.00558231
0.00639247
0.00468743
0.00550292
-0.00299747
-0.000764727
0.00641218
-0.00692464
-0.0110062
0.000623073
-0.000624554
-0.00101822
6.43546e-05
0.00620461
0.00852287
0.000162676
0.00585907
0.011966
0.00878637
0.00636754
0.00552134
0.00196606
-0.000747274
0.0015587
-0.000922387
-0.000580309
0.00650041
0.00440161
0.00615252
0.00776107
-0.0025415
0.00137358
0.00591037
-0.00543122
-0.00238685
0.00231556
-0.00481745
0.00365017
0.00887295
0.00779287
0.0104356
0.0072659
0.00651826
0.0100334
0.00104681
0.000883944
0.00682383
-5.23761e-05
-0.00538388
0.00293429
0.00395991
0.000887139
0.000495597
0.00537072
0.00770507
-0.00110965
0.000571292
0.00687154
0.00603628
0.0056986
0.00781809
0.00752263
0.00091207
9.83917e-05
0.00169071
-0.00200973
-0.000505524
8.49306e-05
0.00212865
0.00785692
0.00258316
0.000479679
0.00721976
0.00352418
0.00360438
0.00853286
0.00270948
0.00362
0.00283375
4.68206e-05
0.00175386
0.0010726
0.00763068
0.00755209
-0.000195078
-0.000583067
0.00345914
0.00333807
-0.000526641
0.00474559
0.00996357
0.00515051
0.00206755
0.00690794
0.00842086
-0.000320855
0.00119059
0.00768829
0.00756603
0.00318078
0.0029979
0.00904685
0.00318123
-0.000440441
0.00517545
0.00335586
0.00236541
0.00424521
0.00473592
0.00879661
0.00563627
-0.00159794
0.00423046
0.00406978
-0.000138214
0.00426454
0.00367876
0.00563298
0.00826676
0.0093353
0.00813187
0.00398852
0.00837503
0.00646338
0.00350089
0.00601116
0.00547772
0.00413397
-0.00141911
-0.00255077
0.0041861
0.0027972
-0.000898019
0.00310812
0.00385207
-0.00261936
-0.00204854
0.000190531
0.00254121
0.00122896
0.00131233
0.0109441
0.00586588
-0.00202889
0.00307585
0.00370704
0.00348147
0.00616677
0.00380378
0.00652479
0.00595024
-0.003116
0.00386285
0.0040286
-0.00687362
-0.00350748
0.000851336
0.0028432
0.00242089
0.00305251
0.0012835
-0.000801012
0.00701381
0.00545788
0.00342613
0.00494655
0.00591562
0.00733655
0.00270881
-0.00178981
0.000509244
0.00336317
0.00377033
0.0041726
0.00376697
0.00354352
0.00271156
0.00133462
0.00625894
0.00369943
-0.000403604
0.00914662
0.00862761
0.00326289
0.00683731
0.00488051
0.000943122
0.00347211
0.00373093
0.00727009
0.00815018
0.000351165
0.00563053
0.0074539
0.000217595
0.00353005
0.0046072
0.00495659
0.00742271
0.00900238
0.00638031
0.00347814
0.00754033
-0.0125168
-0.0148952
0.0266031
0.0293153
-0.0253823
-0.0316072
0.0242349
0.0388466
0.0118232
0.00813177
0.0301132
0.0118993
-0.0145448
-0.00890958
0.00848353
0.0125596
0.0147877
0.0233495
0.0122793
-0.0184752
-0.0204353
-0.00360093
-0.0146503
-0.0296135
-0.0178356
0.0018812
0.0163104
0.0157722
0.00419967
-0.0101445
0.00103589
0.0166395
0.00287409
-0.00113677
0.0174462
0.0158898
-0.0161265
-0.0118736
0.0243942
0.023717
-0.0182451
-0.0202639
0.0213928
0.0240671
-0.0309337
-0.0373306
0.0189533
0.0337381
0.00683165
0.00340071
0.0251348
0.00640511
-0.0202117
-0.0142608
0.00328794
0.00732051
0.00961029
0.0183584
0.0073193
-0.0235832
-0.0256013
-0.00863551
-0.0198701
-0.0352756
-0.0234214
-0.00350891
0.0111931
0.0105278
-0.00105987
-0.0152822
-0.00397566
0.0116358
-0.0018396
-0.00602019
0.0124099
0.0105947
-0.0216123
-0.0170316
0.0197922
0.018645
-0.0179102
-0.0204941
0.0220597
0.0239894
-0.0306487
-0.0372861
0.0186539
0.0331684
0.00632503
0.00388167
0.0266819
0.00702086
-0.0208217
-0.0148739
0.00301867
0.0072376
0.00941254
0.0183525
0.00747971
-0.0236463
-0.0258792
-0.00879842
-0.0197872
-0.0354006
-0.0237914
-0.00377238
0.0115232
0.0107049
-0.00116817
-0.0153054
-0.0042437
0.0112251
-0.00149132
-0.00497274
0.0129298
0.0105732
-0.0218262
-0.017139
0.0207819
0.0193493
-0.0168334
-0.0213586
0.0230294
0.0235449
-0.0304285
-0.0375166
0.0180277
0.0324071
0.00519222
0.00318184
0.0279206
0.00811932
-0.0210662
-0.0156435
0.00207029
0.00657247
0.00884587
0.0177673
0.00702278
-0.0246316
-0.0271844
-0.0100027
-0.0206443
-0.0354524
-0.0239254
-0.00431734
0.0117712
0.0107787
-0.0016623
-0.015798
-0.00465443
0.01013
-0.00260597
-0.00443544
0.0134732
0.010305
-0.0223704
-0.0175282
0.0213512
0.0200828
-0.0164936
-0.020995
0.0231332
0.0244825
-0.0318667
-0.0394868
0.0142156
0.0312058
0.00478385
0.00247844
0.0279443
0.0100359
-0.0197495
-0.0148616
0.00178443
0.00614231
0.00872492
0.018123
0.00762206
-0.0254813
-0.0286042
-0.010121
-0.0205554
-0.0346829
-0.0219931
-0.00356706
0.0127501
0.0115659
-0.000951259
-0.016002
-0.00497562
0.00971219
-0.00367632
-0.0048009
0.0152428
0.0107045
-0.0224913
-0.0173475
0.0223098
0.0215245
-0.0177025
-0.0206544
0.0208308
0.024569
-0.035044
-0.0431974
0.00840496
0.0296788
0.00507007
0.00255473
0.0263027
0.0106549
-0.0180845
-0.0124519
0.00292209
0.00568611
0.00800748
0.0186566
0.00869672
-0.0256018
-0.0288798
-0.00902574
-0.0182235
-0.0332225
-0.0188559
-0.00110018
0.0139926
0.0116419
-0.000158655
-0.0152256
-0.0047541
0.00990768
-0.00397882
-0.00594195
0.0172113
0.0118629
-0.0226239
-0.0176945
0.0234979
0.0235656
-0.0173169
-0.0209432
0.0193923
0.0233845
-0.0349471
-0.0399224
0.00794936
0.0275124
0.00742506
0.00468219
0.0252806
0.0112782
-0.0169394
-0.0104408
0.0051668
0.00601591
0.00740154
0.018764
0.00965517
-0.0259485
-0.028392
-0.00789976
-0.0148725
-0.0306316
-0.0162032
0.00193207
0.0155949
0.0105342
-0.00143761
-0.0143373
-0.00344676
0.0112082
-0.00311031
-0.00678776
0.0174078
0.0139748
-0.020643
-0.0170922
0.0246643
0.0248666
-0.0152032
-0.0199709
0.0197871
0.0238135
-0.0309247
-0.0306173
0.0106492
0.0233527
0.00742238
0.00747306
0.0250215
0.0120518
-0.0175267
-0.0105473
0.00796232
0.00653349
0.00702079
0.0196272
0.00972516
-0.0279817
-0.0303881
-0.00737791
-0.0127022
-0.0277326
-0.0148053
0.00262424
0.0162334
0.00932272
-0.00418913
-0.0149911
-0.00218262
0.0124958
-0.00167396
-0.00767441
0.01435
0.0147994
-0.0169362
-0.0142837
0.0246242
0.0233251
-0.0114546
-0.0174731
0.0181846
0.0233432
-0.0272155
-0.0246642
0.0103666
0.0197525
0.00382764
0.00945134
0.0253558
0.0124055
-0.0167363
-0.00952941
0.0108224
0.00824267
0.00710423
0.0219958
0.012592
-0.0296293
-0.036375
-0.00782329
-0.0102243
-0.0249898
-0.0136291
0.00265212
0.0159403
0.00878221
-0.00589579
-0.0162294
-0.00024208
0.0141144
-0.00100115
-0.00887865
0.0105656
0.0139509
-0.0154711
-0.010313
0.0235911
0.0211526
-0.00727553
-0.0142851
0.014867
0.0203434
-0.0250283
-0.0214108
0.00694098
0.0151113
0.00065094
0.011276
0.0273472
0.0112354
-0.0148519
-0.00715744
0.010175
0.00949987
0.00780033
0.0234652
0.0176679
-0.0257844
-0.0391111
-0.00871749
-0.00673521
-0.0221936
-0.0135369
0.00387318
0.0150019
0.00811266
-0.00671832
-0.0164963
0.00260257
0.0168657
-0.00124607
-0.00980701
0.00926463
0.0127049
-0.0166744
-0.00674595
0.0233702
0.0194808
-0.00421585
-0.0109826
0.0150916
0.0183965
-0.0239931
-0.0190533
0.003102
0.00963176
-0.000688815
0.0118664
0.0298952
0.00866296
-0.0155527
-0.00782014
0.00854707
0.00828075
0.008858
0.0221883
0.0196374
-0.0206418
-0.0354089
-0.0068688
-0.00527674
-0.0196881
-0.0141382
0.00400067
0.0132556
0.00849519
-0.00721944
-0.0166429
0.00393181
0.0187245
-0.00134932
-0.00983215
0.0107771
0.0124269
-0.0160395
-0.00387542
0.0244095
0.0179757
-0.00260267
-0.00717251
0.0185476
0.0172566
-0.0226385
-0.0167338
0.00173686
0.00654057
0.00065044
0.0115732
0.0309732
0.00488468
-0.0189989
-0.00983515
0.00822195
0.00509269
0.0103391
0.0212005
0.0180462
-0.017361
-0.0318354
-0.00404896
-0.00550978
-0.0199413
-0.0135949
0.00297016
0.0118245
0.0102024
-0.00752224
-0.0179627
0.00286587
0.0176968
-0.00209149
-0.00888974
0.013898
0.0136203
-0.0136249
-0.00198285
0.0251891
0.0160633
-0.00224423
-0.00324573
0.0192416
0.014873
-0.0207086
-0.0143818
0.000990009
0.0048954
0.00275177
0.0126441
0.0321341
0.00199805
-0.024251
-0.0120033
0.00726231
0.00401132
0.0110993
0.0222959
0.018005
-0.0168453
-0.0328927
-0.00350923
-0.00464948
-0.02072
-0.0133238
0.00175372
0.0120704
0.0127523
-0.00611653
-0.0175697
0.00359171
0.015704
-0.0056746
-0.00865261
0.0152222
0.0146268
-0.0128088
-0.00130405
0.0245844
0.0137086
-0.00249933
-0.00093331
0.0176965
0.0120079
-0.0186497
-0.0118752
6.6184e-05
0.00242884
0.00175579
0.0131208
0.0356239
0.00481421
-0.0281048
-0.0149857
0.00601282
0.00574919
0.0109785
0.0262706
0.0190758
-0.0196517
-0.0332124
-0.00160199
-0.000841342
-0.0179646
-0.0149995
-0.00110634
0.0115768
0.0151536
-0.00549569
-0.0188657
0.00450815
0.0136037
-0.00985639
-0.00905509
0.0144934
0.01457
-0.0109219
-0.000525412
0.0223438
0.0117205
-0.0031954
0.000605357
0.0172227
0.0108677
-0.0165641
-0.0107212
0.000273066
-0.000362341
-0.0018484
0.0109928
0.0363234
0.00852644
-0.0270074
-0.0160788
0.00560861
0.00650712
0.00751876
0.026993
0.0215905
-0.0186351
-0.0285233
0.00329823
0.00395162
-0.0145235
-0.0167809
-0.00428237
0.00822227
0.0147266
-0.00448248
-0.0219671
0.00389583
0.0130859
-0.0101014
-0.00976216
0.0128148
0.0135686
-0.00653662
0.00145426
0.019698
0.00951508
-0.00488492
0.00136073
0.0171774
0.0096132
-0.0154516
-0.0118063
-0.000817966
-0.00182081
-0.00371826
0.00841232
0.0325397
0.00958963
-0.0219194
-0.0133304
0.00670091
0.0058566
0.0031237
0.0217248
0.0209195
-0.0150305
-0.0221118
0.00764125
0.00845595
-0.0113445
-0.0178079
-0.00840303
0.00479605
0.0127504
-0.000826465
-0.0198054
0.00420416
0.0153195
-0.00719097
-0.00955281
0.00968959
0.0110192
-0.00315625
0.00376774
0.0184539
0.0068213
-0.00526268
0.000875109
0.0163376
0.00797724
-0.0150664
-0.0132205
-0.00356222
-0.00245457
-0.00328042
0.00688027
0.0269288
0.00903307
-0.0162383
-0.00961007
0.00730025
0.00661202
0.00273516
0.0189612
0.019151
-0.0127617
-0.0170516
0.0101724
0.0102323
-0.00742112
-0.0151359
-0.0116168
0.00111277
0.0117843
0.00207729
-0.0157208
0.0025291
0.0144311
-0.00581255
-0.00917401
0.00746643
0.00930833
-0.000811159
0.00568447
0.0191467
0.00673697
-0.00406878
0.000769015
0.0149113
0.00663101
-0.0140902
-0.0129014
-0.00329543
-0.00189831
-0.00350496
0.00676053
0.0226826
0.00640484
-0.0148039
-0.00947007
0.00611622
0.00787766
0.00587613
0.0199972
0.0197873
-0.00986529
-0.0133386
0.0110641
0.00932246
-0.00424495
-0.0103126
-0.0121338
-0.00321058
0.0100335
0.00158081
-0.0159155
-0.000376697
0.0107518
-0.00774782
-0.00888468
0.00867508
0.0100859
0.00110378
0.00585859
0.0182867
0.00744098
-0.00248071
0.000937997
0.0133226
0.00518695
-0.0130575
-0.0106227
-0.000439794
0.00179745
-0.00267436
0.00621942
0.0188611
0.00331289
-0.0121382
-0.00727463
0.00555218
0.00852592
0.00572361
0.017108
0.0184289
-0.00785266
-0.011604
0.0108012
0.00819577
-0.00354371
-0.00827368
-0.0131124
-0.00806101
0.00685499
0.000717542
-0.0178971
-0.003005
0.00930972
-0.00926672
-0.00909008
0.0101813
0.0107897
0.00260703
0.00646699
0.0159296
0.00711116
-0.000616511
0.000588505
0.0120617
0.00354801
-0.0146303
-0.0103994
-3.6834e-05
0.00457704
-0.000592816
0.00613792
0.0158176
0.000963483
-0.00778375
-0.0037579
0.00440488
0.00933291
0.00549479
0.013242
0.016929
-0.00500263
-0.0154605
0.00445086
0.00687258
-0.00201788
-0.00476137
-0.0114489
-0.0089414
0.00740926
0.00307855
-0.0178348
-0.00342938
0.0119743
-0.00802185
-0.0100347
0.00905597
0.0098071
0.00270036
0.00591233
0.0131591
0.00692128
0.00175036
0.00135775
0.0127091
0.00546863
-0.0131929
-0.00973491
-0.000254771
0.00686297
0.00275131
0.00671581
0.0131884
-0.00222607
-0.00587693
0.00025762
0.00576086
0.0121784
0.00875799
0.0136342
0.0193646
0.0014907
-0.0126581
0.000441957
0.00283558
-0.00244359
0.000425771
-0.00584432
-0.00783752
0.00826591
0.00594364
-0.0180158
-0.00549811
0.0154254
-0.00214516
-0.00586736
0.0114099
0.0107747
0.00404552
0.00720638
0.0122861
0.00725405
0.00410329
0.00140915
0.0101644
0.00318243
-0.0144435
-0.00845412
0.00111922
0.00685307
0.0030799
0.00627508
0.0124239
-0.00441947
-0.0076394
0.000339919
0.00622118
0.01478
0.0105114
0.00886263
0.0142047
0.0018522
-0.00729023
0.005139
0.00668905
-0.000885232
0.00518602
0.000936474
-0.0076348
0.00620255
0.0081887
-0.0162268
-0.00861688
0.0145456
-0.000540321
-0.00463473
0.0135517
0.0113133
0.00221483
0.00499376
0.00917003
0.00658583
0.00377651
0.00216549
0.0103544
0.00613794
-0.0109991
-0.00338508
0.00581646
0.00836051
0.00412476
0.0034608
0.0114124
-0.00120727
-0.00444539
0.00116673
0.00298659
0.0107052
0.00744259
0.00706624
0.0169756
0.00973928
-0.00337336
0.00479049
0.00822756
-0.00179536
0.00666455
0.00815182
-0.00467935
0.00449626
0.0100436
-0.0139636
-0.0121656
0.0116976
-0.00140882
-0.00871315
0.010319
0.0104355
0.00270086
0.00615376
0.00775414
0.00416918
0.00649081
0.00198554
0.00647499
0.00429613
-0.0144925
-0.0071653
0.00225808
0.00373852
0.00284229
0.000547345
0.00997196
0.00129046
-0.00254888
0.00325716
0.00247245
0.00827002
0.00636531
0.0016353
0.0069296
0.00846818
-0.00296279
-0.000343526
0.00662913
-0.00243125
0.00343679
0.00923275
-0.00310299
0.00432108
0.0145273
-0.00735259
-0.0112246
0.0105239
0.00207199
-0.00640481
0.0107702
0.0123639
0.00555703
0.00958283
0.0107752
0.00689491
0.00411737
-0.00100158
0.00462716
0.00692151
-0.0135233
-0.00586997
0.0096745
0.00817016
0.00437673
0.000783261
0.0100304
0.00481885
-0.000858956
0.00579941
0.00316886
0.00486218
0.00511358
0.00032404
0.000551236
0.00482996
-0.003327
-0.00567607
0.00466091
-0.0019593
-0.00246974
0.00601212
-0.00385938
-0.00194881
0.0113572
-0.00395709
-0.01247
0.00549158
-0.000526085
-0.00953441
0.00610105
0.00876257
0.00242496
0.00730312
0.00922335
0.00470931
0.00565172
0.00231752
0.00761113
0.0114636
-0.00931709
-0.00874337
0.00265656
-0.000437238
0.000272542
-0.000364833
0.00879512
0.00642391
-0.00303954
0.0029693
0.00274658
0.00172198
0.00429582
0.00343337
0.00181392
0.00767002
0.0063401
-0.00161055
0.00367254
0.00290777
0.00260559
0.0129568
0.00369646
-0.002602
0.0118747
0.00261577
-0.00913855
0.00648259
0.0040585
-0.00614352
0.00626601
0.0077254
0.000796512
0.00505714
0.00696266
0.00427943
0.00481408
-0.00344798
-0.000902063
0.00781674
-0.00819514
-0.008278
0.00550784
0.00115481
9.23543e-05
-0.000923534
0.0061133
0.00596933
-0.00426687
-0.00111064
-0.000186884
-0.0021512
0.00132091
0.00475299
0.00319601
0.00576536
0.00950988
0.00327267
0.00399594
0.00366237
0.000466625
0.0129251
0.0116115
-0.000191029
0.00850285
0.00483013
-0.00670374
0.00580408
0.00858896
0.000931036
0.0112616
0.0104832
0.000534763
0.00247753
0.00472863
0.00496094
0.00918109
-0.00113412
-0.00106808
0.00678574
-0.00623731
-0.00924189
0.00542391
0.00285295
-4.20187e-05
0.000420547
0.00574253
0.00839517
-0.00135536
0.00167818
0.00814623
0.00497061
0.00352605
0.00541135
0.00293943
-0.000851086
0.00125728
-0.00176963
-0.00134657
0.00461161
0.00447804
0.0103856
0.0105583
0.000296766
0.00465624
0.0060444
-0.00511471
-0.000481798
0.00255653
-0.00362565
0.00548889
0.00835097
0.00352306
0.0053804
0.00524374
0.00850434
0.0119516
0.00216835
0.000212855
0.00687668
0.000640842
-0.00351888
0.00917184
0.010797
0.00383595
0.00208609
0.00669966
0.00965575
6.34349e-05
0.000464113
0.00624177
0.00411461
0.00269599
0.00559516
0.00600162
-0.000441824
-1.00318e-05
0.00266265
0.000402731
0.0013272
0.000580332
0.00338372
0.00728026
0.00211384
0.00289783
0.00891095
0.00449637
0.00624016
0.00882645
0.000542842
0.00268525
0.00232528
-0.00094207
0.000125703
-0.000714285
0.00776893
0.00975068
0.00209673
0.000420286
0.00509735
0.00508435
0.000514193
0.00710989
0.0127002
0.0056931
0.00190722
0.00732448
0.00877905
-0.000788238
-0.000261042
0.0068042
0.00771293
0.00310683
0.00361445
0.0105001
0.00418684
-9.65706e-05
0.00510318
0.00334656
0.00211535
0.00394932
0.00633626
0.00987613
0.00440238
-0.00238376
0.00187389
-0.000877642
-0.00244247
0.00431278
0.00352732
0.00705513
0.00799027
0.00751436
0.00675521
0.0018895
0.00750251
0.00822683
0.00458142
0.00488259
0.00581671
0.00645686
0.0023011
0.00262614
0.00929404
0.00603216
0.000687708
0.00531153
0.005514
-0.00235391
-0.00314283
-0.00117154
0.00252574
0.000373785
-0.000386725
0.0107032
0.00669891
-0.00106934
0.00473705
0.00574134
0.00475589
0.00614102
0.00548039
0.0102313
0.00805752
-0.000925496
0.00545946
0.00313837
-0.0058835
-0.00208299
-0.0019271
-0.000724231
-0.000866478
0.000651859
0.00200088
-0.000812171
0.00632713
0.00451443
0.00329391
0.00241514
0.00400042
0.00591163
0.00245933
-0.000593519
0.00171826
0.00395863
0.00251282
0.00343395
0.00347307
0.0028195
0.00292227
0.0017461
0.00670453
0.00289544
-0.00136022
0.0103222
0.0101997
0.00412038
0.00729083
0.0047793
0.00110887
0.00308916
0.00364293
0.0092659
0.0092379
0.00140769
0.00751313
0.00761613
0.000240559
0.00363608
0.00321756
0.00409162
0.00670789
0.00712563
0.00543392
0.00174747
0.00373076
0.0027868
0.00681775
0.0310152
0.0205131
-0.0173349
-0.046829
-0.0301935
0.0162034
0.00431831
-0.00302489
0.0131724
0.00352288
-0.00841206
-0.0134794
-0.00262833
0.0177087
0.0143887
0.0133683
0.0110083
-0.0145824
-0.0142971
0.00403929
0.00683678
0.0102421
0.0115493
-0.0169476
-0.01584
0.0106401
0.00533389
-0.0158484
-0.0075077
0.0137452
-0.00196929
-0.0232404
-0.00465639
0.0270418
0.00832028
-0.00869904
-0.000567404
0.0122769
-0.00265176
0.00151214
0.0258815
0.0154603
-0.0225393
-0.0518427
-0.0351821
0.0113592
-0.000471863
-0.00778893
0.00762142
-0.00207573
-0.0137573
-0.0186893
-0.00755597
0.0130057
0.00952712
0.00839425
0.00597504
-0.0196845
-0.0194261
-0.000995551
0.00167392
0.0051571
0.00641273
-0.0222527
-0.0214063
0.00539356
0.000236101
-0.0209218
-0.0125827
0.00855824
-0.00747432
-0.0281079
-0.0100932
0.0219354
0.00318947
-0.013249
-0.00611949
0.00658289
-0.00294826
0.00167343
0.0254766
0.0152886
-0.0224289
-0.0525646
-0.0364259
0.0113611
2.36607e-05
-0.00665005
0.00870884
-0.00259766
-0.0144494
-0.0193196
-0.00770515
0.0133394
0.010295
0.00953415
0.00686145
-0.0190122
-0.0187324
0.000316719
0.00294487
0.00564515
0.00631939
-0.0227495
-0.0219404
0.00525609
1.54211e-05