/*--------------------------------*- C++ -*----------------------------------*\
  =========                 |
  \\      /  F ield         | OpenFOAM: The Open Source CFD Toolbox
   \\    /   O peration     | Website:  https://openfoam.org
    \\  /    A nd           | Version:  10
     \\/     M anipulation  |
\*---------------------------------------------------------------------------*/
FoamFile
{
    format      ascii;
    class       volVectorField;
    location    "30";
    object      U_0;
}
// * * * * * * * * * * * * * * * * * * * * * * * * * * * * * * * * * * * * * //

dimensions      [0 1 -1 0 0 0 0];

internalField   nonuniform List<vector> 
25600
(
(1.12 -4.29831e-06 -3.13014e-06)
(1.12002 4.47096e-06 1.35832e-06)
(1.12 -1.92725e-06 -5.57174e-07)
(1.12002 -1.92566e-06 -1.13613e-06)
(1.12001 5.66972e-06 2.11945e-06)
(1.12001 -5.90762e-06 -4.07199e-06)
(1.12002 3.5089e-06 4.57428e-06)
(1.12001 1.76585e-06 -4.49787e-06)
(1.12001 -6.72593e-06 1.86353e-06)
(1.12001 1.08644e-05 1.07859e-06)
(1.12002 -1.11133e-05 -4.48751e-06)
(1.12001 9.11699e-06 5.6538e-06)
(1.12001 -5.35349e-06 -5.40971e-06)
(1.12001 3.27179e-06 2.90325e-06)
(1.12 -1.88329e-06 -2.40435e-07)
(1.12002 4.10657e-07 -2.40732e-06)
(1.12001 3.90135e-06 2.76862e-06)
(1.12001 -8.59516e-06 -1.42494e-06)
(1.12002 1.14993e-05 -1.13924e-06)
(1.12001 -1.02394e-05 2.93431e-06)
(1.12002 6.17915e-06 -3.84519e-06)
(1.12001 -8.99868e-07 3.61053e-06)
(1.12001 -3.0944e-06 -2.92596e-06)
(1.12001 5.35695e-06 1.55962e-06)
(1.12001 -5.45018e-06 -2.03096e-07)
(1.12001 3.31321e-06 -1.24057e-06)
(1.12001 1.26932e-06 1.91928e-06)
(1.12001 -6.97482e-06 -2.10117e-06)
(1.12001 1.15553e-05 1.43156e-06)
(1.12001 -1.31417e-05 -6.75652e-07)
(1.12001 1.1427e-05 -3.24305e-07)
(1.12001 -7.80935e-06 -8.45482e-08)
(1.12001 3.30307e-06 1.43679e-06)
(1.12002 1.49697e-06 -3.76142e-06)
(1.12001 -5.81578e-06 4.64652e-06)
(1.12001 7.9803e-06 -4.49469e-06)
(1.12002 -7.33693e-06 1.96531e-06)
(1.12 5.31576e-06 5.86757e-07)
(1.12002 -3.6424e-06 -3.26744e-06)
(1.12001 3.66747e-06 3.48201e-06)
(1.12001 2.94803e-06 -7.40496e-06)
(1.12002 -1.11657e-08 5.64825e-06)
(1.12 -1.5092e-06 -3.5879e-06)
(1.12002 1.78712e-06 -7.1838e-08)
(1.12001 -5.05379e-07 2.76474e-06)
(1.12001 7.95289e-07 -6.0319e-06)
(1.12002 -1.78339e-06 7.33722e-06)
(1.12001 4.79683e-06 -7.24094e-06)
(1.12002 -7.23958e-06 3.95069e-06)
(1.12001 8.90236e-06 7.09282e-08)
(1.12001 -6.99776e-06 -4.49845e-06)
(1.12001 3.17191e-06 6.64959e-06)
(1.12001 1.6738e-06 -7.01977e-06)
(1.12002 -3.75227e-06 4.69859e-06)
(1.12 3.33794e-06 -1.4294e-06)
(1.12002 -1.62323e-06 -1.85011e-06)
(1.12 2.29138e-06 2.78127e-06)
(1.12002 -4.84547e-06 -1.5918e-06)
(1.12001 7.74229e-06 -7.64147e-07)
(1.12 -8.01846e-06 2.21267e-06)
(1.12002 5.30423e-06 -2.47793e-06)
(1.12 -5.51396e-07 1.51729e-06)
(1.12002 -3.79741e-06 -2.00646e-07)
(1.12001 6.37095e-06 -1.50584e-06)
(1.12001 -6.38024e-06 2.79556e-06)
(1.12002 3.91121e-06 -3.71596e-06)
(1.12001 1.11154e-06 3.41076e-06)
(1.12002 -7.32219e-06 -2.59736e-06)
(1.12001 1.24606e-05 9.81297e-07)
(1.12001 -1.39598e-05 2.35049e-07)
(1.12001 1.16911e-05 -1.52172e-06)
(1.12001 -6.77662e-06 8.24985e-07)
(1.12001 1.36816e-06 7.68693e-07)
(1.12001 4.45056e-06 -3.51094e-06)
(1.12001 -9.48269e-06 4.41107e-06)
(1.12001 1.23866e-05 -4.33206e-06)
(1.12002 -1.05972e-05 1.66383e-06)
(1.12 5.62891e-06 1.12874e-06)
(1.12002 3.14729e-07 -4.80799e-06)
(1.12001 -3.18754e-06 6.49463e-06)
(1.12001 9.91746e-06 -9.45941e-06)
(1.12002 -6.15628e-06 7.81234e-06)
(1.12 2.15044e-06 -4.93465e-06)
(1.12002 1.86178e-06 9.46703e-08)
(1.12001 -3.30807e-06 3.77085e-06)
(1.12001 4.93355e-06 -7.77106e-06)
(1.12002 -5.20951e-06 9.46892e-06)
(1.12 6.90428e-06 -9.34498e-06)
(1.12002 -7.54265e-06 5.73592e-06)
(1.12001 7.66864e-06 -9.71409e-07)
(1.12001 -4.09228e-06 -4.12232e-06)
(1.12001 -1.09157e-06 7.12297e-06)
(1.12001 7.3239e-06 -8.09725e-06)
(1.12002 -1.00292e-05 6.19865e-06)
(1.12001 8.96034e-06 -2.52824e-06)
(1.12002 -4.57738e-06 -1.32219e-06)
(1.12 1.31017e-06 2.89962e-06)
(1.12002 -2.77187e-07 -1.92881e-06)
(1.12001 1.49847e-06 -1.78641e-07)
(1.12 -2.16963e-06 1.50052e-06)
(1.12002 1.10381e-06 -1.46428e-06)
(1.12 1.99468e-06 4.6427e-07)
(1.12002 -5.04244e-06 8.29159e-07)
(1.12001 6.7813e-06 -2.37814e-06)
(1.12001 -6.16501e-06 3.55188e-06)
(1.12002 3.81614e-06 -4.36841e-06)
(1.12 4.64408e-07 3.9862e-06)
(1.12002 -5.44384e-06 -3.32725e-06)
(1.12 9.84717e-06 1.76639e-06)
(1.12001 -1.09808e-05 -5.59879e-07)
(1.12002 8.95648e-06 -1.06811e-06)
(1.12 -4.37799e-06 9.58947e-07)
(1.12002 -2.31424e-07 -2.75046e-07)
(1.12001 5.41863e-06 -1.80066e-06)
(1.12001 -9.85771e-06 2.23849e-06)
(1.12001 1.29189e-05 -2.40604e-06)
(1.12001 -1.08963e-05 4.05338e-07)
(1.12001 5.01234e-06 1.5121e-06)
(1.12001 3.4045e-06 -5.24393e-06)
(1.12001 -8.62552e-06 7.62239e-06)
(1.12001 1.30478e-05 -9.54531e-06)
(1.12002 -9.44364e-06 8.13973e-06)
(1.12001 4.80271e-06 -5.1513e-06)
(1.12001 1.20049e-06 -4.7653e-08)
(1.12001 -4.01904e-06 4.34909e-06)
(1.12 6.26059e-06 -8.60887e-06)
(1.12002 -5.70619e-06 1.06303e-05)
(1.12 6.50248e-06 -1.06326e-05)
(1.12002 -6.16399e-06 7.09234e-06)
(1.12001 6.10393e-06 -1.93768e-06)
(1.12001 -2.58388e-06 -3.47234e-06)
(1.12002 -2.34695e-06 7.15826e-06)
(1.12 8.98656e-06 -8.53408e-06)
(1.12002 -1.24487e-05 7.11075e-06)
(1.12001 1.2214e-05 -3.18878e-06)
(1.12002 -7.33345e-06 -9.1592e-07)
(1.12001 1.93234e-06 3.18058e-06)
(1.12002 2.00086e-06 -2.34107e-06)
(1.12001 -2.93812e-06 4.40564e-07)
(1.12 2.66307e-06 1.08306e-06)
(1.12002 -2.25918e-06 -1.05078e-06)
(1.12 3.08048e-06 4.87966e-07)
(1.12002 -3.92666e-06 5.04658e-07)
(1.12001 4.49757e-06 -1.6245e-06)
(1.12001 -3.82125e-06 2.84133e-06)
(1.12002 2.98356e-06 -3.81927e-06)
(1.12 -1.01308e-06 3.99105e-06)
(1.12003 -1.13452e-06 -3.97772e-06)
(1.12 3.86004e-06 3.16505e-06)
(1.12001 -4.52613e-06 -2.41482e-06)
(1.12002 3.9494e-06 6.86573e-07)
(1.12 -1.13268e-06 5.29779e-08)
(1.12002 -1.24093e-06 -8.43758e-07)
(1.12 4.93862e-06 1.90642e-07)
(1.12002 -7.74736e-06 -6.03648e-07)
(1.12001 1.05279e-05 3.27068e-07)
(1.12001 -8.54004e-06 -1.43785e-06)
(1.12001 3.6176e-06 2.07629e-06)
(1.12001 4.94858e-06 -5.00101e-06)
(1.12001 -1.0514e-05 7.29695e-06)
(1.12001 1.28267e-05 -8.15603e-06)
(1.12001 -9.85655e-06 7.25475e-06)
(1.12001 5.96159e-06 -4.74878e-06)
(1.12001 7.23063e-07 5.10628e-08)
(1.12002 -3.73758e-06 4.02137e-06)
(1.12 6.38629e-06 -8.04325e-06)
(1.12002 -4.96102e-06 1.03691e-05)
(1.12 5.27026e-06 -1.06436e-05)
(1.12002 -4.17943e-06 7.69629e-06)
(1.12001 4.78894e-06 -2.56762e-06)
(1.12 -2.35212e-06 -2.77019e-06)
(1.12002 -7.25014e-07 7.05889e-06)
(1.12 6.52384e-06 -8.68353e-06)
(1.12002 -1.0276e-05 7.8154e-06)
(1.12001 1.19335e-05 -3.56088e-06)
(1.12001 -8.38124e-06 -7.41063e-07)
(1.12001 3.11472e-06 3.82227e-06)
(1.12001 2.46891e-06 -3.18231e-06)
(1.12001 -4.93153e-06 1.69415e-06)
(1.12 5.40596e-06 3.07884e-07)
(1.12002 -3.68391e-06 -5.97542e-07)
(1.12 2.27668e-06 1.05684e-06)
(1.12002 -4.441e-07 -6.65378e-07)
(1.12001 -2.60528e-07 2.53242e-07)
(1.12001 8.49209e-07 1.09896e-06)
(1.12002 5.51922e-07 -2.42281e-06)
(1.12 -1.61116e-06 3.57719e-06)
(1.12003 2.99291e-06 -4.47125e-06)
(1.12 -2.25407e-06 4.69305e-06)
(1.12001 1.97166e-06 -4.40272e-06)
(1.12002 -5.59285e-07 2.66416e-06)
(1.12 9.9266e-07 -1.08011e-06)
(1.12002 -8.49424e-07 -1.02395e-06)
(1.12 3.16753e-06 1.76578e-06)
(1.12002 -4.7053e-06 -3.0004e-06)
(1.12001 7.55171e-06 2.69394e-06)
(1.12001 -6.03068e-06 -2.90421e-06)
(1.12002 2.86352e-06 2.20269e-06)
(1.12 4.60548e-06 -3.98417e-06)
(1.12002 -9.39919e-06 5.8163e-06)
(1.12001 1.04446e-05 -5.66373e-06)
(1.12001 -8.41326e-06 5.42013e-06)
(1.12001 6.50638e-06 -3.78915e-06)
(1.12001 -2.74307e-07 2.95545e-07)
(1.12002 -1.85747e-06 3.07725e-06)
(1.12 4.6948e-06 -6.57316e-06)
(1.12002 -2.80678e-06 9.28137e-06)
(1.12 3.35456e-06 -9.97236e-06)
(1.12002 -2.12664e-06 8.0247e-06)
(1.12001 3.97271e-06 -3.0936e-06)
(1.12 -3.14252e-06 -1.92907e-06)
(1.12002 2.76589e-06 6.90196e-06)
(1.12 1.48918e-06 -8.7001e-06)
(1.12002 -4.98148e-06 8.61389e-06)
(1.12001 8.81883e-06 -4.1163e-06)
(1.12001 -7.7107e-06 -1.53621e-07)
(1.12001 4.28247e-06 4.33427e-06)
(1.12001 1.76891e-06 -4.07025e-06)
(1.12001 -5.39041e-06 3.35451e-06)
(1.12 6.96026e-06 -8.66568e-07)
(1.12002 -4.43059e-06 3.14726e-07)
(1.12 1.2351e-06 1.4577e-06)
(1.12002 3.00707e-06 -1.75446e-06)
(1.12001 -4.65701e-06 2.38504e-06)
(1.12001 5.00343e-06 -8.98563e-07)
(1.12002 -1.25188e-06 -5.6361e-07)
(1.12 -2.54479e-06 2.81918e-06)
(1.12003 6.98551e-06 -4.52646e-06)
(1.12 -7.28763e-06 5.86704e-06)
(1.12001 6.762e-06 -6.03692e-06)
(1.12002 -2.71078e-06 4.51438e-06)
(1.12 8.81013e-07 -2.13594e-06)
(1.12002 1.72606e-06 -1.15066e-06)
(1.12 4.01895e-08 3.17654e-06)
(1.12002 -8.01923e-07 -4.99617e-06)
(1.12001 4.54771e-06 4.66356e-06)
(1.12001 -3.76754e-06 -3.95328e-06)
(1.12002 3.04598e-06 2.02651e-06)
(1.12 3.01895e-06 -2.43698e-06)
(1.12002 -6.22615e-06 3.52797e-06)
(1.12001 6.70653e-06 -2.68802e-06)
(1.12001 -5.59026e-06 3.25782e-06)
(1.12002 6.36719e-06 -2.66674e-06)
(1.12001 -1.39913e-06 8.19621e-07)
(1.12002 9.98245e-07 1.70807e-06)
(1.12 1.77352e-06 -4.38597e-06)
(1.12002 7.58001e-07 7.62502e-06)
(1.12 4.82309e-07 -8.77634e-06)
(1.12002 7.10667e-07 8.23024e-06)
(1.12001 2.83909e-06 -3.66329e-06)
(1.12 -3.70057e-06 -7.65693e-07)
(1.12003 6.45123e-06 6.59494e-06)
(1.12 -3.93199e-06 -8.61657e-06)
(1.12002 1.23233e-06 9.66415e-06)
(1.12001 4.83026e-06 -4.87229e-06)
(1.12001 -6.41362e-06 7.4561e-07)
(1.12001 5.78767e-06 4.81883e-06)
(1.12001 8.6148e-08 -5.02679e-06)
(1.12002 -4.27073e-06 5.51708e-06)
(1.12 7.36747e-06 -2.4955e-06)
(1.12002 -4.451e-06 1.75368e-06)
(1.12 2.23145e-07 1.60664e-06)
(1.12002 6.04057e-06 -2.48611e-06)
(1.12001 -7.96994e-06 4.32983e-06)
(1.12001 7.76625e-06 -2.64148e-06)
(1.12002 -1.41154e-06 1.284e-06)
(1.12 -4.65132e-06 2.05167e-06)
(1.12002 1.16138e-05 -4.25e-06)
(1.12 -1.2139e-05 6.64871e-06)
(1.12002 1.08286e-05 -6.97026e-06)
(1.12002 -3.79018e-06 5.76586e-06)
(1.12 -2.56161e-07 -2.70217e-06)
(1.12002 4.9574e-06 -1.22815e-06)
(1.12 -3.24384e-06 4.37587e-06)
(1.12002 2.90182e-06 -6.56179e-06)
(1.12001 1.9502e-06 6.26678e-06)
(1.12001 -1.8748e-06 -4.65909e-06)
(1.12002 3.67645e-06 1.67358e-06)
(1.12 7.25145e-07 -6.16077e-07)
(1.12002 -1.85528e-06 9.45487e-07)
(1.12001 2.64076e-06 5.95413e-07)
(1.12001 -2.08963e-06 9.24542e-07)
(1.12002 5.58566e-06 -1.40245e-06)
(1.12 -1.93916e-06 1.50343e-06)
(1.12002 3.51771e-06 1.48404e-07)
(1.12 -7.22239e-07 -1.89133e-06)
(1.12002 3.95135e-06 5.82694e-06)
(1.12 -2.04584e-06 -7.41253e-06)
(1.12002 3.47601e-06 8.50261e-06)
(1.12001 1.58276e-06 -4.25656e-06)
(1.12 -3.89475e-06 5.75526e-07)
(1.12002 9.74091e-06 6.33936e-06)
(1.11999 -8.96951e-06 -8.57745e-06)
(1.12002 7.16344e-06 1.10629e-05)
(1.12001 1.0786e-06 -5.97729e-06)
(1.12001 -5.29962e-06 2.20815e-06)
(1.12002 7.73751e-06 5.09094e-06)
(1.12 -2.38721e-06 -5.83953e-06)
(1.12002 -2.21569e-06 7.9227e-06)
(1.12 6.94772e-06 -4.345e-06)
(1.12002 -3.97086e-06 3.64787e-06)
(1.12001 -7.78914e-07 1.4565e-06)
(1.12001 8.80855e-06 -2.77506e-06)
(1.12001 -1.0808e-05 5.96899e-06)
(1.12001 1.01977e-05 -3.91527e-06)
(1.12001 -1.34251e-06 2.89375e-06)
(1.12001 -6.5842e-06 1.46306e-06)
(1.12002 1.5812e-05 -3.7859e-06)
(1.12 -1.60907e-05 7.14075e-06)
(1.12002 1.40067e-05 -7.39428e-06)
(1.12001 -3.92568e-06 6.59968e-06)
(1.12 -1.7198e-06 -2.84683e-06)
(1.12002 8.13986e-06 -1.3999e-06)
(1.12 -5.66277e-06 5.53009e-06)
(1.12002 5.51241e-06 -7.76911e-06)
(1.12001 6.52261e-07 7.61629e-06)
(1.12001 -8.34301e-07 -4.99757e-06)
(1.12002 4.89968e-06 1.18021e-06)
(1.12 -1.74381e-06 1.38322e-06)
(1.12002 2.76211e-06 -1.76536e-06)
(1.11999 -8.2761e-07 4.03572e-06)
(1.12 1.18668e-06 -1.44446e-06)
(1.12 4.81504e-06 6.48031e-09)
(1.11999 -2.11762e-06 2.25298e-06)
(1.12001 5.69186e-06 -1.36435e-06)
(1.11999 -2.60584e-06 7.46364e-07)
(1.12001 6.51293e-06 4.09395e-06)
(1.11999 -3.72029e-06 -5.99412e-06)
(1.12 5.589e-06 9.02826e-06)
(1.11999 8.35949e-07 -4.96235e-06)
(1.11999 -3.99108e-06 2.23475e-06)
(1.12001 1.26277e-05 6.10598e-06)
(1.11998 -1.32125e-05 -8.52278e-06)
(1.12001 1.24965e-05 1.28799e-05)
(1.11999 -2.23283e-06 -7.32698e-06)
(1.12 -4.20363e-06 4.18114e-06)
(1.12 9.70681e-06 5.20037e-06)
(1.11999 -4.73641e-06 -6.47245e-06)
(1.12001 -1.04579e-07 1.06044e-05)
(1.11999 6.70348e-06 -6.29942e-06)
(1.12 -3.70826e-06 5.92126e-06)
(1.12 -1.14161e-06 1.19627e-06)
(1.12 1.07754e-05 -2.65191e-06)
(1.12 -1.26359e-05 7.39976e-06)
(1.12 1.19254e-05 -4.79738e-06)
(1.12 -7.86621e-07 4.41545e-06)
(1.12 -8.27559e-06 1.09834e-06)
(1.12001 1.91927e-05 -3.17315e-06)
(1.11999 -1.85978e-05 7.53273e-06)
(1.12001 1.57461e-05 -7.37621e-06)
(1.12 -2.88381e-06 7.1252e-06)
(1.11999 -3.65617e-06 -2.57618e-06)
(1.12001 1.13092e-05 -1.65068e-06)
(1.11999 -7.6062e-06 6.7175e-06)
(1.12001 7.48521e-06 -8.75911e-06)
(1.11999 9.73376e-08 8.84316e-06)
(1.12 -2.11139e-07 -5.20238e-06)
(1.12001 6.20574e-06 7.74224e-07)
(1.11998 -3.76964e-06 3.45024e-06)
(1.12001 6.8202e-06 -4.45667e-06)
(1.11979 -3.25558e-06 7.61497e-06)
(1.1198 3.82351e-06 -3.7249e-06)
(1.1198 4.22735e-06 1.54186e-06)
(1.11979 -2.02538e-06 3.11283e-06)
(1.11981 7.27614e-06 -2.69969e-06)
(1.11979 -3.74668e-06 3.37856e-06)
(1.11981 8.40433e-06 2.68139e-06)
(1.11979 -4.90285e-06 -4.71586e-06)
(1.11981 7.4605e-06 9.9445e-06)
(1.1198 -3.60667e-08 -5.71358e-06)
(1.1198 -3.53467e-06 4.16291e-06)
(1.11981 1.4465e-05 6.05955e-06)
(1.11978 -1.61121e-05 -8.55284e-06)
(1.11982 1.6521e-05 1.51761e-05)
(1.11979 -4.6107e-06 -8.85685e-06)
(1.1198 -3.54214e-06 6.58041e-06)
(1.1198 1.16977e-05 5.36919e-06)
(1.11979 -6.90934e-06 -6.93026e-06)
(1.11981 1.86759e-06 1.35356e-05)
(1.11979 6.70483e-06 -8.106e-06)
(1.1198 -3.88083e-06 8.39418e-06)
(1.1198 -7.66465e-07 1.07724e-06)
(1.1198 1.18987e-05 -2.26277e-06)
(1.1198 -1.35553e-05 8.85734e-06)
(1.1198 1.29621e-05 -5.21961e-06)
(1.11979 1.35574e-07 5.85882e-06)
(1.1198 -9.81765e-06 1.08728e-06)
(1.11981 2.21804e-05 -2.50682e-06)
(1.11979 -2.05673e-05 8.10293e-06)
(1.11981 1.72805e-05 -7.06219e-06)
(1.11979 -1.91715e-06 7.61497e-06)
(1.1198 -4.95805e-06 -1.94809e-06)
(1.11981 1.37058e-05 -1.92693e-06)
(1.11979 -8.59325e-06 8.18554e-06)
(1.11981 8.7123e-06 -9.64533e-06)
(1.11979 1.54471e-07 1.02181e-05)
(1.1198 2.74309e-07 -5.24293e-06)
(1.11981 7.20444e-06 4.17726e-07)
(1.11979 -4.89477e-06 5.64397e-06)
(1.11981 9.8029e-06 -7.01066e-06)
(1.11777 -4.60612e-06 1.14321e-05)
(1.11779 5.58876e-06 -5.95199e-06)
(1.11778 3.92577e-06 3.20915e-06)
(1.11778 -1.7414e-06 4.23076e-06)
(1.11778 8.13217e-06 -3.87445e-06)
(1.11778 -3.95632e-06 6.09723e-06)
(1.11778 9.18573e-06 1.61961e-06)
(1.11778 -5.17538e-06 -3.72282e-06)
(1.11778 8.61971e-06 1.16514e-05)
(1.11778 -6.28921e-07 -6.79699e-06)
(1.11777 -2.98632e-06 6.59279e-06)
(1.11779 1.56162e-05 6.16011e-06)
(1.11776 -1.78858e-05 -8.73853e-06)
(1.1178 1.9101e-05 1.8392e-05)
(1.11776 -5.69038e-06 -1.07972e-05)
(1.11779 -3.69709e-06 9.79721e-06)
(1.11778 1.38757e-05 5.39967e-06)
(1.11777 -8.9286e-06 -7.08692e-06)
(1.11779 3.47298e-06 1.6925e-05)
(1.11777 6.97053e-06 -9.74791e-06)
(1.11777 -4.27631e-06 1.11867e-05)
(1.11779 -1.03182e-07 1.25302e-06)
(1.11777 1.26567e-05 -1.73392e-06)
(1.11779 -1.41456e-05 1.08059e-05)
(1.11778 1.38613e-05 -5.41018e-06)
(1.11778 9.28263e-07 7.56089e-06)
(1.11778 -1.09033e-05 1.46471e-06)
(1.11779 2.45251e-05 -1.79216e-06)
(1.11776 -2.16961e-05 9.28154e-06)
(1.1178 1.80991e-05 -6.71977e-06)
(1.11777 -6.85909e-07 8.55103e-06)
(1.11779 -5.94299e-06 -1.17715e-06)
(1.11779 1.52498e-05 -2.07846e-06)
(1.11777 -8.51808e-06 1.01815e-05)
(1.11779 8.8902e-06 -1.06517e-05)
(1.11778 9.37868e-07 1.2215e-05)
(1.11778 4.27681e-07 -5.517e-06)
(1.1178 7.95157e-06 4.81647e-07)
(1.11776 -5.36338e-06 8.00786e-06)
(1.1178 1.16924e-05 -9.43391e-06)
(1.10727 -4.62381e-06 1.63479e-05)
(1.1073 6.28207e-06 -9.53093e-06)
(1.10728 3.76699e-06 5.07559e-06)
(1.10729 -1.11948e-06 6.01603e-06)
(1.10728 7.8983e-06 -6.66534e-06)
(1.10729 -3.04669e-06 9.86071e-06)
(1.10727 8.54589e-06 2.57018e-07)
(1.1073 -4.34705e-06 -3.86537e-06)
(1.10726 8.73997e-06 1.58895e-05)
(1.1073 -1.02265e-06 -1.09923e-05)
(1.10726 -1.96089e-06 1.13921e-05)
(1.1073 1.51538e-05 5.38725e-06)
(1.10725 -1.7612e-05 -9.69176e-06)
(1.1073 1.94666e-05 2.41562e-05)
(1.10726 -5.54015e-06 -1.57437e-05)
(1.10729 -4.13944e-06 1.54721e-05)
(1.10728 1.51174e-05 4.20422e-06)
(1.10727 -9.85036e-06 -7.18923e-06)
(1.10728 4.02891e-06 2.15693e-05)
(1.10728 7.58232e-06 -1.30609e-05)
(1.10726 -5.08579e-06 1.51724e-05)
(1.1073 9.89149e-07 9.11895e-07)
(1.10725 1.22501e-05 -1.58709e-06)
(1.10731 -1.36015e-05 1.39453e-05)
(1.10726 1.37157e-05 -7.42016e-06)
(1.1073 1.5982e-06 1.05184e-05)
(1.10726 -1.0994e-05 8.00243e-07)
(1.10732 2.46574e-05 -1.26566e-06)
(1.10725 -2.06473e-05 1.14478e-05)
(1.10732 1.70595e-05 -8.6122e-06)
(1.10726 9.81212e-07 1.1269e-05)
(1.1073 -6.51266e-06 -2.27249e-06)
(1.10728 1.54523e-05 -1.83791e-06)
(1.10729 -7.30087e-06 1.28004e-05)
(1.10729 7.99587e-06 -1.40935e-05)
(1.10729 1.98459e-06 1.64578e-05)
(1.10727 6.55598e-07 -8.5192e-06)
(1.10731 7.80151e-06 1.90867e-06)
(1.10726 -4.62044e-06 9.91486e-06)
(1.10731 1.18941e-05 -1.30525e-05)
(1.08087 -3.24381e-06 2.39566e-05)
(1.08091 6.00219e-06 -1.854e-05)
(1.08088 3.81107e-06 1.17157e-05)
(1.0809 -1.801e-07 5.36021e-06)
(1.08088 6.74781e-06 -1.21497e-05)
(1.08091 -9.72364e-07 1.96485e-05)
(1.08086 6.5451e-06 -7.88292e-06)
(1.08092 -2.18458e-06 2.12105e-07)
(1.08085 7.72963e-06 2.04071e-05)
(1.08093 -9.32199e-07 -2.13663e-05)
(1.08085 -3.61772e-07 2.52576e-05)
(1.08093 1.28902e-05 -3.96814e-06)
(1.08085 -1.47247e-05 -6.21569e-06)
(1.08092 1.73419e-05 3.0159e-05)
(1.08087 -4.08402e-06 -2.69907e-05)
(1.08089 -4.4271e-06 2.86506e-05)
(1.08089 1.51146e-05 -4.34686e-06)
(1.08088 -9.44416e-06 -4.35964e-06)
(1.0809 3.9113e-06 2.55601e-05)
(1.08089 8.03456e-06 -2.11497e-05)
(1.08087 -5.70397e-06 2.35921e-05)
(1.08092 2.50282e-06 -5.19281e-06)
(1.08085 1.03828e-05 4.55429e-07)
(1.08093 -1.12718e-05 1.51364e-05)
(1.08085 1.20737e-05 -1.29673e-05)
(1.08094 2.38924e-06 1.65239e-05)
(1.08085 -9.91496e-06 -5.93238e-06)
(1.08095 2.23344e-05 2.24472e-06)
(1.08084 -1.71809e-05 1.00593e-05)
(1.08095 1.41019e-05 -1.30012e-05)
(1.08086 2.97508e-06 1.72604e-05)
(1.08092 -6.398e-06 -1.0503e-05)
(1.08089 1.40329e-05 3.44201e-06)
(1.08091 -4.72215e-06 1.04614e-05)
(1.08089 5.9655e-06 -1.87454e-05)
(1.08092 3.36175e-06 2.43445e-05)
(1.08087 9.50388e-07 -1.89975e-05)
(1.08093 6.81526e-06 1.00491e-05)
(1.08086 -2.69174e-06 5.95008e-06)
(1.08093 1.03974e-05 -1.609e-05)
(1.03969 -1.00672e-06 2.34114e-05)
(1.03973 4.84794e-06 -2.76629e-05)
(1.0397 4.38371e-06 2.68292e-05)
(1.03972 3.09478e-07 -8.52823e-06)
(1.0397 5.77988e-06 -6.02279e-06)
(1.03973 1.05874e-06 2.58851e-05)
(1.03969 4.06996e-06 -2.38668e-05)
(1.03975 9.21429e-07 1.91992e-05)
(1.03967 5.23176e-06 7.51729e-06)
(1.03976 6.20333e-07 -2.18147e-05)
(1.03966 2.99586e-07 3.96843e-05)
(1.03977 1.0478e-05 -2.71449e-05)
(1.03966 -1.07397e-05 1.43781e-05)
(1.03976 1.36997e-05 1.88993e-05)
(1.03969 -1.62022e-06 -3.17318e-05)
(1.03972 -4.75508e-06 4.39655e-05)
(1.03972 1.44212e-05 -2.58785e-05)
(1.0397 -8.37816e-06 1.09343e-05)
(1.03973 3.83721e-06 1.72114e-05)
(1.03971 7.63257e-06 -2.54896e-05)
(1.03971 -5.18076e-06 3.26632e-05)
(1.03974 3.36134e-06 -1.9393e-05)
(1.03969 8.24938e-06 9.98921e-06)
(1.03976 -7.87901e-06 6.89193e-06)
(1.03968 9.04547e-06 -1.29485e-05)
(1.03978 4.08709e-06 1.93872e-05)
(1.03966 -8.96572e-06 -1.56881e-05)
(1.03979 1.92389e-05 1.16871e-05)
(1.03966 -1.25985e-05 -1.04895e-06)
(1.03978 1.00329e-05 -8.19228e-06)
(1.03968 5.4789e-06 1.76587e-05)
(1.03975 -6.29734e-06 -1.96834e-05)
(1.0397 1.21759e-05 1.58049e-05)
(1.03974 -1.70805e-06 -3.45353e-06)
(1.0397 3.33573e-06 -1.0783e-05)
(1.03974 5.24435e-06 2.44406e-05)
(1.03968 7.65568e-07 -2.86314e-05)
(1.03976 5.87935e-06 2.52864e-05)
(1.03967 -4.91111e-07 -1.01567e-05)
(1.03975 8.10762e-06 -5.54069e-06)
(0.987549 1.18355e-06 6.40847e-06)
(0.9876 3.46959e-06 -1.96649e-05)
(0.987569 5.02316e-06 2.96394e-05)
(0.987585 3.98189e-07 -2.35373e-05)
(0.987576 5.3549e-06 1.23231e-05)
(0.987589 2.04772e-06 1.00652e-05)
(0.987563 2.55865e-06 -2.27229e-05)
(0.987611 3.2639e-06 3.09281e-05)
(0.98754 2.69491e-06 -1.71701e-05)
(0.987636 2.79795e-06 -2.18101e-07)
(0.987521 -1.94235e-07 2.69278e-05)
(0.987651 8.96501e-06 -3.56874e-05)
(0.987522 -7.33116e-06 3.52367e-05)
(0.98764 1.01024e-05 -1.08524e-05)
(0.987551 7.62296e-07 -1.23445e-05)
(0.987607 -4.84691e-06 3.7115e-05)
(0.987585 1.3021e-05 -3.90878e-05)
(0.987585 -6.67666e-06 3.11348e-05)
(0.987599 3.37113e-06 -6.12032e-06)
(0.987585 6.85234e-06 -1.28718e-05)
(0.987593 -3.87045e-06 2.89286e-05)
(0.987598 2.96331e-06 -2.76831e-05)
(0.987577 7.0801e-06 2.15098e-05)
(0.987619 -5.31764e-06 -6.87207e-06)
(0.987554 6.16151e-06 -3.09698e-06)
(0.987642 5.86559e-06 1.29112e-05)
(0.987531 -8.72071e-06 -1.54322e-05)
(0.987657 1.67583e-05 1.65589e-05)
(0.987524 -8.82448e-06 -1.12128e-05)
(0.987646 6.29815e-06 4.35366e-06)
(0.987543 7.71635e-06 6.7789e-06)
(0.987621 -6.57676e-06 -1.487e-05)
(0.987558 1.073e-05 1.98605e-05)
(0.98761 6.02483e-07 -1.53854e-05)
(0.987556 9.02961e-07 5.45222e-06)
(0.987616 7.13393e-06 1.02602e-05)
(0.987543 9.29421e-09 -2.18951e-05)
(0.987625 5.42346e-06 2.8854e-05)
(0.987536 1.20006e-06 -2.34576e-05)
(0.987621 5.86592e-06 1.24821e-05)
(0.927797 2.86468e-06 -9.48995e-06)
(0.927856 2.17005e-06 -5.67223e-06)
(0.927817 5.43726e-06 1.57642e-05)
(0.927842 4.1042e-07 -2.29895e-05)
(0.927829 5.00706e-06 1.8306e-05)
(0.927841 2.38046e-06 -8.2152e-06)
(0.927825 1.94495e-06 -8.17972e-06)
(0.927858 4.32667e-06 1.99247e-05)
(0.927806 1.02963e-06 -2.37585e-05)
(0.927886 4.49845e-06 1.51494e-05)
(0.927783 -1.06695e-06 2.48348e-06)
(0.927909 8.15787e-06 -2.00477e-05)
(0.927776 -4.91908e-06 3.08799e-05)
(0.927902 7.11102e-06 -2.52843e-05)
(0.927802 2.74264e-06 1.03146e-05)
(0.927871 -4.97338e-06 1.33872e-05)
(0.927833 1.14713e-05 -2.71803e-05)
(0.927851 -4.83349e-06 3.37213e-05)
(0.927843 2.33708e-06 -2.13445e-05)
(0.927847 6.44531e-06 7.30051e-06)
(0.927843 -2.94325e-06 1.29085e-05)
(0.927847 2.28616e-06 -1.95477e-05)
(0.927837 6.464e-06 2.39417e-05)
(0.927856 -3.93719e-06 -1.44832e-05)
(0.927817 4.3485e-06 8.61932e-06)
(0.92788 6.67635e-06 3.23028e-06)
(0.927786 -8.4341e-06 -6.82927e-06)
(0.9279 1.4811e-05 1.32152e-05)
(0.927774 -6.37863e-06 -1.16406e-05)
(0.927889 3.75651e-06 1.09904e-05)
(0.927792 8.98385e-06 -3.28785e-06)
(0.927864 -6.89386e-06 -3.75117e-06)
(0.927806 9.88479e-06 1.20963e-05)
(0.927857 1.67078e-06 -1.51978e-05)
(0.9278 -6.06184e-07 1.22625e-05)
(0.927867 8.39373e-06 -3.72091e-06)
(0.927787 -1.09478e-06 -8.87073e-06)
(0.927877 5.52614e-06 1.78443e-05)
(0.927783 1.9311e-06 -2.32842e-05)
(0.927873 4.16499e-06 1.81732e-05)
(0.863171 3.75141e-06 -1.56788e-05)
(0.863236 1.17817e-06 6.41472e-07)
(0.863191 5.5896e-06 1.38233e-06)
(0.863225 3.98088e-07 -1.52512e-05)
(0.863205 4.5738e-06 1.18199e-05)
(0.863223 2.45001e-06 -1.37739e-05)
(0.863207 1.73572e-06 7.80003e-07)
(0.863233 4.45728e-06 5.88949e-06)
(0.863196 2.78486e-07 -1.57854e-05)
(0.863256 5.31151e-06 1.47182e-05)
(0.863173 -1.77548e-06 -7.69304e-06)
(0.863281 7.70837e-06 -3.94848e-06)
(0.86316 -3.48943e-06 1.6967e-05)
(0.86328 4.97878e-06 -1.85971e-05)
(0.863178 4.03413e-06 1.71595e-05)
(0.863252 -5.10808e-06 -1.97927e-07)
(0.863203 1.01451e-05 -8.48766e-06)
(0.863233 -3.5176e-06 2.33669e-05)
(0.863209 1.4088e-06 -1.77119e-05)
(0.863229 6.08903e-06 1.69139e-05)
(0.863208 -2.51046e-06 9.6256e-07)
(0.863223 1.87477e-06 -4.70044e-06)
(0.863208 5.71084e-06 1.67871e-05)
(0.863221 -3.07311e-06 -1.14062e-05)
(0.863195 3.19681e-06 1.31641e-05)
(0.863237 6.58423e-06 -3.25108e-06)
(0.863165 -7.74522e-06 1.5096e-06)
(0.863259 1.28587e-05 5.8599e-06)
(0.86315 -4.78262e-06 -7.26525e-06)
(0.863253 2.26977e-06 8.97309e-06)
(0.863165 9.02596e-06 -7.65793e-06)
(0.86323 -6.66969e-06 1.60877e-06)
(0.863179 9.05949e-06 1.80312e-06)
(0.863225 1.78835e-06 -1.06258e-05)
(0.863174 -1.03588e-06 7.84013e-06)
(0.863237 8.49325e-06 -1.02909e-05)
(0.863161 -1.81394e-06 -2.78902e-06)
(0.86325 5.70854e-06 4.38279e-06)
(0.863158 1.87047e-06 -1.76892e-05)
(0.86325 3.21033e-06 1.19644e-05)
(0.795825 3.9701e-06 -1.5162e-05)
(0.795893 6.05375e-07 5.56714e-07)
(0.795844 5.47559e-06 -5.3092e-06)
(0.795884 3.83206e-07 -8.53829e-06)
(0.795857 4.10065e-06 4.77014e-06)
(0.795883 2.44943e-06 -1.03959e-05)
(0.795861 1.58984e-06 3.20259e-06)
(0.795887 4.17369e-06 6.5194e-07)
(0.795856 9.19005e-08 -6.44481e-06)
(0.795901 5.33243e-06 1.07738e-05)
(0.795838 -2.08925e-06 -5.3289e-06)
(0.795923 7.20972e-06 4.03306e-06)
(0.79582 -2.72703e-06 1.00143e-05)
(0.795926 3.59976e-06 -7.35449e-06)
(0.795829 4.53183e-06 1.57376e-05)
(0.795902 -5.05435e-06 -5.31291e-07)
(0.795849 8.88333e-06 2.20262e-06)
(0.795883 -2.69915e-06 1.5183e-05)
(0.795851 7.63374e-07 -8.05946e-06)
(0.795879 5.47402e-06 1.61123e-05)
(0.795847 -2.22844e-06 -1.65128e-06)
(0.795872 1.51378e-06 3.64662e-06)
(0.795847 4.81715e-06 8.48906e-06)
(0.795865 -2.44186e-06 -5.2199e-06)
(0.795841 2.26785e-06 9.43938e-06)
(0.795873 6.06129e-06 -5.23584e-06)
(0.795818 -6.93031e-06 3.3699e-06)
(0.795892 1.08771e-05 -1.48646e-06)
(0.795802 -3.60632e-06 -4.42981e-06)
(0.795891 1.27263e-06 1.94122e-06)
(0.795814 8.34773e-06 -9.16496e-06)
(0.795874 -6.0042e-06 -2.3921e-07)
(0.795829 7.9146e-06 -6.02357e-06)
(0.79587 1.6978e-06 -8.63673e-06)
(0.795827 -1.00022e-06 -2.44012e-07)
(0.795883 7.78146e-06 -1.22882e-05)
(0.795817 -1.91386e-06 -3.71138e-06)
(0.795898 5.51708e-06 -4.2848e-06)
(0.795813 1.59782e-06 -1.3662e-05)
(0.795902 2.73319e-06 3.72584e-06)
(0.727412 3.82347e-06 -1.18306e-05)
(0.727478 3.60262e-07 -1.43507e-07)
(0.727428 5.13117e-06 -5.19995e-06)
(0.727471 3.7245e-07 -3.71055e-06)
(0.727439 3.65242e-06 2.60466e-06)
(0.727469 2.35299e-06 -4.33347e-06)
(0.727441 1.40555e-06 4.38247e-06)
(0.727471 3.76303e-06 2.3086e-06)
(0.727439 7.13475e-08 2.53893e-07)
(0.727477 4.89206e-06 9.77257e-06)
(0.727426 -2.08926e-06 3.06507e-07)
(0.727491 6.48101e-06 7.67467e-06)
(0.727408 -2.29057e-06 9.24135e-06)
(0.727495 2.67233e-06 1.27022e-07)
(0.727409 4.4183e-06 1.39435e-05)
(0.727476 -4.79982e-06 2.50097e-06)
(0.727422 7.59797e-06 5.60489e-06)
(0.727459 -2.18333e-06 1.13314e-05)
(0.727422 2.78727e-07 -2.51608e-06)
(0.727454 4.67928e-06 1.18621e-05)
(0.727417 -1.9908e-06 -1.47739e-06)
(0.727448 1.09107e-06 4.01478e-06)
(0.727416 3.9517e-06 2.54953e-06)
(0.72744 -2.03027e-06 -3.14773e-06)
(0.727413 1.52083e-06 2.49211e-06)
(0.727444 5.35026e-06 -6.12869e-06)
(0.727398 -6.14923e-06 -7.30852e-07)
(0.727459 9.07044e-06 -6.81515e-06)
(0.727386 -2.75086e-06 -5.52782e-06)
(0.727462 5.67625e-07 -5.49721e-06)
(0.727396 7.43583e-06 -1.02717e-05)
(0.72745 -5.199e-06 -5.35795e-06)
(0.72741 6.67381e-06 -1.04476e-05)
(0.727448 1.65276e-06 -9.29781e-06)
(0.727412 -8.90264e-07 -6.46867e-06)
(0.72746 6.83401e-06 -1.23452e-05)
(0.727406 -1.66196e-06 -6.20245e-06)
(0.727475 5.01985e-06 -7.55982e-06)
(0.727403 1.4098e-06 -1.12148e-05)
(0.727483 2.41923e-06 -6.54111e-07)
(0.659177 3.51603e-06 -7.46129e-06)
(0.659237 2.67676e-07 1.17285e-06)
(0.659189 4.61635e-06 -1.75451e-06)
(0.659231 3.60474e-07 4.41093e-07)
(0.659197 3.19695e-06 4.29428e-06)
(0.659228 2.1327e-06 1.22317e-06)
(0.659198 1.20645e-06 6.38794e-06)
(0.659229 3.27415e-06 6.01369e-06)
(0.659194 4.63358e-08 4.50372e-06)
(0.65923 4.2462e-06 1.07178e-05)
(0.659185 -1.95184e-06 4.54911e-06)
(0.659237 5.58546e-06 9.37573e-06)
(0.659169 -1.99384e-06 9.5281e-06)
(0.659239 1.96731e-06 3.47344e-06)
(0.659166 3.95151e-06 1.21864e-05)
(0.659224 -4.41993e-06 3.42124e-06)
(0.659173 6.31697e-06 5.22836e-06)
(0.659209 -1.83848e-06 8.13929e-06)
(0.659172 -1.13652e-07 -1.98238e-06)
(0.659204 3.86126e-06 6.93126e-06)
(0.659167 -1.78932e-06 -3.05239e-06)
(0.659199 6.65369e-07 4.21149e-07)
(0.659166 3.19876e-06 -2.25558e-06)
(0.659194 -1.77341e-06 -5.34926e-06)
(0.659165 9.7397e-07 -3.89033e-06)
(0.659197 4.5722e-06 -8.18917e-06)
(0.659156 -5.38005e-06 -6.52773e-06)
(0.659208 7.49243e-06 -1.01769e-05)
(0.659149 -2.12336e-06 -8.8178e-06)
(0.659212 1.20087e-07 -1.03878e-05)
(0.659157 6.4894e-06 -1.14112e-05)
(0.659206 -4.39554e-06 -9.58175e-06)
(0.659171 5.52849e-06 -1.17786e-05)
(0.659207 1.63725e-06 -1.02099e-05)
(0.659175 -7.88368e-07 -8.92311e-06)
(0.659217 5.91984e-06 -1.09511e-05)
(0.659173 -1.31953e-06 -6.8431e-06)
(0.659231 4.40684e-06 -6.96888e-06)
(0.659171 1.30833e-06 -8.43863e-06)
(0.659239 2.12772e-06 -7.19909e-07)
(0.592042 3.12299e-06 -2.93819e-06)
(0.592093 2.07206e-07 3.98293e-06)
(0.592049 4.00658e-06 2.30591e-06)
(0.592088 3.24809e-07 4.13785e-06)
(0.592055 2.70743e-06 7.06388e-06)
(0.592085 1.83224e-06 5.19266e-06)
(0.592054 9.91353e-07 8.50555e-06)
(0.592083 2.72974e-06 8.7142e-06)
(0.592049 -3.9653e-09 6.69211e-06)
(0.592082 3.52914e-06 1.13481e-05)
(0.59204 -1.77969e-06 6.24717e-06)
(0.592084 4.6429e-06 9.28196e-06)
(0.592028 -1.76477e-06 8.49991e-06)
(0.592083 1.39299e-06 3.78782e-06)
(0.592023 3.3448e-06 9.28925e-06)
(0.592072 -3.97464e-06 1.82499e-06)
(0.592026 5.11508e-06 2.80038e-06)
(0.59206 -1.57556e-06 4.00328e-06)
(0.592024 -4.04684e-07 -4.23429e-06)
(0.592056 3.1158e-06 1.8069e-06)
(0.59202 -1.60626e-06 -6.2447e-06)
(0.592052 3.16577e-07 -4.02516e-06)
(0.59202 2.57304e-06 -6.64356e-06)
(0.592049 -1.57419e-06 -8.87371e-06)
(0.59202 6.07258e-07 -8.49272e-06)
(0.592053 3.82008e-06 -1.07812e-05)
(0.592015 -4.60827e-06 -1.08078e-05)
(0.592062 6.13835e-06 -1.19426e-05)
(0.592013 -1.62891e-06 -1.15272e-05)
(0.592067 -1.30396e-07 -1.21475e-05)
(0.592021 5.57834e-06 -1.18261e-05)
(0.592065 -3.63994e-06 -1.09572e-05)
(0.592033 4.54176e-06 -1.08248e-05)
(0.592067 1.59684e-06 -9.71447e-06)
(0.592038 -6.94654e-07 -8.04895e-06)
(0.592077 5.07877e-06 -8.27632e-06)
(0.592038 -1.00765e-06 -5.16626e-06)
(0.592087 3.77711e-06 -4.20715e-06)
(0.592038 1.21213e-06 -4.76907e-06)
(0.592094 1.82647e-06 1.68144e-06)
(0.526672 2.67672e-06 1.00696e-06)
(0.526715 1.37878e-07 6.87047e-06)
(0.526676 3.36056e-06 5.49732e-06)
(0.526711 2.55934e-07 6.8577e-06)
(0.526678 2.20721e-06 9.05743e-06)
(0.526706 1.50285e-06 7.35871e-06)
(0.526676 7.60619e-07 9.61715e-06)