/*--------------------------------*- C++ -*----------------------------------*\
  =========                 |
  \\      /  F ield         | OpenFOAM: The Open Source CFD Toolbox
   \\    /   O peration     | Website:  https://openfoam.org
    \\  /    A nd           | Version:  10
     \\/     M anipulation  |
\*---------------------------------------------------------------------------*/
FoamFile
{
    format      ascii;
    class       surfaceScalarField;
    location    "14";
    object      phi_0;
}
// * * * * * * * * * * * * * * * * * * * * * * * * * * * * * * * * * * * * * //

dimensions      [0 3 -1 0 0 0 0];

internalField   nonuniform List<scalar> 
74080
(
0.00493748
-0.000303889
0.000127679
0.00496507
-0.000310584
9.78232e-05
0.00499674
-0.000288392
6.19012e-05
0.00502743
-0.000250223
6.3748e-05
0.00506988
-0.000182946
7.12434e-05
0.00514819
-7.87124e-05
2.73844e-05
0.00520785
5.96212e-05
-1.8017e-05
0.0052434
0.000165082
-8.77212e-05
0.00525649
0.000225361
-0.000126026
0.00523597
0.000218364
-8.93457e-05
0.00522747
0.00011434
7.43737e-06
0.00520662
4.45461e-05
0.000140205
0.0051933
-5.38595e-06
0.00018086
0.00522723
-4.72147e-05
0.000155244
0.00525781
-2.76873e-06
0.000121636
0.00527298
6.49014e-05
7.72718e-05
0.00525998
7.35019e-05
8.31554e-05
0.00521251
4.03949e-05
7.61143e-05
0.00517411
2.62063e-06
2.18501e-05
0.00518535
-4.61766e-06
-3.65391e-05
0.00523764
5.94628e-05
-0.000103484
0.00530095
0.000141404
-0.000111582
0.00534663
0.000181883
-6.03559e-05
0.00534491
0.000160544
-2.38178e-05
0.00533886
7.75342e-05
-2.37942e-05
0.00534084
9.13603e-06
-6.77949e-05
0.00534972
-3.16373e-05
-0.000103231
0.00536911
-5.77317e-05
-9.88678e-05
0.00534819
-3.45149e-05
-6.58568e-05
0.00529493
-3.49748e-05
9.39713e-06
0.00524011
-1.51428e-05
5.65341e-05
0.00524765
9.03841e-06
3.39561e-05
0.00533539
2.05168e-05
-2.10711e-05
0.00544165
8.36778e-05
-8.15453e-05
0.00551491
9.33708e-05
-7.9192e-05
0.0054525
8.39526e-05
-2.0032e-05
0.00527425
3.3464e-05
7.4835e-05
0.00508777
-6.56499e-05
0.000140728
0.00495311
-0.000145865
0.00017332
-0.000237001
0.000170051
0.00475945
-0.000249157
3.20077e-05
0.00482381
-0.000251155
-0.000132111
0.00486324
-0.000258403
-0.000264649
0.00481998
-0.000251081
-0.000246591
0.00472289
-0.000229218
-0.00013728
0.00464631
-0.000187484
-6.09742e-05
0.00459485
-6.27116e-05
-3.46642e-05
0.00461692
1.68645e-05
-0.000104152
0.00468949
7.1889e-05
-0.000147088
0.00477514
7.67419e-05
-0.000100817
0.00484122
1.13585e-06
1.32079e-05
0.00483784
-4.35394e-06
0.000161654
0.00482188
-6.58694e-05
0.000247629
0.00483659
-0.000113759
0.000257693
0.00486817
-1.6705e-05
0.000186086
0.00487318
0.000119307
0.000106588
0.00479959
0.000184316
0.00010766
0.00469503
0.000107048
0.000105569
0.00462836
7.02758e-07
1.80141e-05
0.0046459
-3.43588e-05
-0.000146083
0.00474733
8.60538e-06
-0.000314824
0.00485577
9.59794e-05
-0.000372689
0.00495103
0.000133757
-0.000331156
0.00501214
0.000145171
-0.00023427
0.00504522
0.000110378
-0.000118528
0.00507253
6.78103e-05
-2.07631e-05
0.00507201
4.42381e-05
3.39191e-05
0.00502868
-1.2874e-05
2.64929e-05
0.00492615
-2.57357e-05
-2.12002e-05
0.0047786
-1.74401e-05
-4.3069e-05
0.00465904
-8.22504e-06
2.85075e-06
0.00466692
-3.94114e-05
0.000115239
0.00481151
-5.36697e-05
0.000216856
0.00504796
-1.27376e-05
0.000264189
0.00524397
2.08829e-05
0.00025969
0.00524847
7.87823e-05
0.000233853
0.00509704
4.00783e-05
0.000211807
0.00489943
-5.20015e-05
0.000199079
0.00474938
-0.00011343
0.000233091
-0.000196605
0.000192043
0.00408945
-0.000177248
-9.73697e-05
0.0041077
-0.000145726
-0.000267442
0.00421947
-0.000174944
-0.000391468
0.00432801
-0.000159383
-0.000411733
0.00438785
-0.000158954
-0.000368362
0.00434412
-0.000144663
-0.000277043
0.00421258
-5.01704e-05
-0.000169156
0.00410903
-2.04825e-05
-6.90401e-05
0.00408759
3.49485e-05
1.85486e-05
0.00420331
5.04871e-05
1.56323e-05
0.00436555
4.08573e-05
-2.58093e-05
0.0044533
8.48228e-05
-5.15545e-05
0.00444411
-9.46537e-06
-3.16703e-05
0.00440084
-9.31839e-05
5.32163e-05
0.0044505
-5.29606e-05
0.000103042
0.00455324
9.09491e-05
0.000143296
0.00458097
0.000194672
0.000240722
0.00450955
0.000111115
0.000266834
0.00437021
2.33355e-05
0.000120471
0.00423458
4.16936e-06
-0.000117801
0.0041648
4.39732e-05
-0.000283136
0.00417874
8.72041e-05
-0.000235596
0.00432088
1.83219e-05
-6.26339e-05
0.00451265
-1.82591e-05
0.000112667
0.00459158
2.92543e-05
0.000224464
0.00450385
0.000118479
0.000206221
0.00430518
0.000154252
6.67596e-05
0.00413575
2.50118e-05
-0.000103441
0.00410559
-0.000101174
-0.000166967
0.00416368
-0.000133023
-4.39661e-05
0.00426076
-6.84034e-05
0.00016362
0.00437756
-2.17278e-05
0.000307215
0.00444791
-5.33303e-06
0.0003282
0.0044508
-2.1906e-05
0.000278163
0.00437715
-3.95408e-05
0.000220923
0.00427238
-1.26799e-06
0.000181612
0.00422203
-6.77945e-05
0.000135317
0.00420946
-0.000142214
9.02781e-05
0.00418055
-0.000156584
7.79392e-05
-0.000190334
2.421e-05
0.00347575
-0.000189846
-0.000215891
0.00354788
-0.000193698
-0.000220732
0.00361177
-0.0002392
-0.000234088
0.00361535
-0.000170115
-0.000255434
0.003629
-0.000146867
-0.000221829
0.00362643
-9.40527e-05
-0.000103982
0.00365717
1.22293e-05
-3.86566e-05
0.00372759
2.59209e-05
-1.09839e-05
0.0037887
8.42471e-05
9.52165e-08
0.00387834
8.79521e-05
-3.81586e-05
0.00396368
0.000126984
-5.80324e-05
0.00406268
0.000171092
-9.53725e-05
0.00410113
3.92267e-05
-8.77621e-05
0.00404831
-8.11515e-05
5.32045e-05
0.00402645
-0.000112363
0.000233194
0.00406743
2.84131e-05
0.000347602
0.00415102
0.000173745
0.000225384
0.00411322
0.00015272
-6.30084e-05
0.00388105
0.000104577
-0.000207072
0.00363597
1.9503e-05
-0.000102402
0.00352463
-5.80705e-06
4.65059e-05
0.00362537
-1.27699e-05
2.31138e-05
0.00388498
-9.21372e-05
-0.000171159
0.00410875
-6.09605e-05
-0.000303913
0.00414469
4.46161e-05
-0.000142591
0.00401287
0.000178815
4.53586e-05
0.0038825
0.000232695
-3.46589e-06
0.00385207
0.000113059
-0.000135178
0.00388009
-3.75649e-06
-0.000110214
0.00385676
-4.33268e-05
0.000103989
0.00375793
2.19537e-05
0.000300138
0.00362928
6.13786e-05
0.000296929
0.00355653
2.4479e-05
7.26254e-05
0.00359894
-6.28848e-05
-0.000120044
0.0037035
-0.000127213
-8.63984e-05
0.00377227
-8.45047e-05
4.83834e-06
0.00372264
-8.92866e-05
2.4005e-05
0.00357874
-0.000123229
-2.71612e-05
0.0034629
-0.000150632
-0.000141624
-0.000202337
-0.000218664
0.00340565
-0.000122753
-7.01715e-05
0.0034647
-0.000176796
1.49466e-05
0.00340526
-0.000212062
-5.33827e-05
0.00329282
-0.000144191
-0.000137724
0.00324582
-0.000193612
-9.79259e-05
0.00321717
-0.000169279
6.98025e-05
0.00322038
-9.51491e-05
0.000152626
0.00326922
-8.96897e-05
0.000139692
0.00334506
1.55808e-06
7.40273e-05
0.0034507
2.65164e-05
-2.76876e-05
0.00355037
8.54647e-05
-5.13815e-05
0.00369602
5.96075e-05
1.52322e-05
0.00383803
-0.000112783
0.000223828
0.0038548
-0.000113322
0.000357054
0.003739
-6.09308e-06
0.000228555
0.00358933
0.000179631
-2.1839e-05
0.00355173
0.000169551
-0.000231241
0.0035627
1.70949e-05
-0.00021833
0.00352807
-4.71403e-05
1.62096e-05
0.00347239
-0.000106146
0.000272757
0.00346482
-0.000101006
0.000282783
0.00354545
-9.58699e-05
4.84482e-05
0.00357567
-5.02283e-05
-0.000182746
0.00347753
0.000124719
-0.000209561
0.00338091
0.000183614
-2.40736e-05
0.00342355
0.000102722
9.22121e-05
0.00366
-4.44529e-05
3.19158e-05
0.00387352
-0.000106263
2.19421e-06
0.0038719
-6.20308e-06
7.04436e-05
0.00367917
9.74618e-05
0.000178166
0.00347177
0.000154877
0.000185307
0.00338451
5.70195e-05
7.97085e-05
0.00336144
-7.66122e-05
-4.69715e-05
0.00332728
-0.000161365
-7.57699e-05
0.00328399
-0.000197048
-7.03085e-05
0.00328546
-0.000164371
-0.000152304
0.00329957
-0.000148442
-0.000302396
0.00327608
-0.000109814
-0.000468355
0.00327164
-7.43899e-05
-0.000470033
-0.000104047
-0.000285043
0.00334669
-0.000171264
-0.000122904
0.00338766
-0.000202237
-6.68979e-05
0.00324548
-0.000139962
-9.25583e-05
0.00302303
-6.53852e-05
-0.000191073
0.00288645
-0.000218149
-0.000273068
0.00281855
-0.00021335
-0.000204959
0.00281564
-0.00017995
-4.4183e-05
0.00287864
-0.000223208
0.00011279
0.00300707
-7.26615e-05
0.000110488
0.00313804
5.79763e-05
-3.23606e-05
0.00319482
0.000175263
-6.25206e-05
0.003217
6.35441e-05
8.88253e-05
0.00324279
-0.000209794
0.000364188
0.00329645
-0.000221119
0.00046
0.00335018
-6.09481e-05
0.000285494
0.00337183
0.000128338
4.34035e-05
0.00337866
6.91397e-05
-0.000132419
0.00334951
-3.68705e-05
-0.000112551
0.00332046
-8.54781e-06
-9.19778e-06
0.00327807
1.39867e-05
7.07011e-05
0.0032112
3.76283e-05
9.18649e-05
0.00314723
-1.15255e-05
6.03928e-05
0.00304472
2.01076e-05
-8.56015e-06
0.00295822
0.000168621
-8.60725e-05
0.00293815
0.000182208
-8.65804e-05
0.00300458
7.86677e-06
-6.62832e-05
0.00315477
-0.000227556
-3.56008e-05
0.00325011
-0.000239689
6.80104e-05
0.00328146
-0.000118305
0.000192979
0.00327218
-1.04525e-05
0.000223106
0.0032299
7.98426e-05
0.000201194
0.00324598
-3.39276e-05
0.000194515
0.00330303
-0.000127392
0.000135807
0.00334116
-0.000171478
0.000140039
0.0033246
-0.000187646
0.000114532
0.00330296
-0.000119437
-2.91299e-05
0.00329332
-8.34052e-05
-0.000159162
0.00326656
-4.33407e-06
-0.000259417
0.00324267
-4.57209e-05
-0.000235288
-0.000157399
-0.000177142
0.00313922
-0.000155766
-0.000161244
0.00310982
-0.000207296
-0.000110658
0.00293599
-0.000119287
-0.000102527
0.0027476
-6.44547e-05
-0.000179076
0.00270714
-0.000306839
-0.000261149
0.00274379
-0.000301385
-0.000213204
0.00277666
-0.000258906
2.31461e-05
0.00280319
-0.00031716
0.000281868
0.0028703
-0.000166462
0.000291527
0.00294148
-7.44484e-06
0.000146018
0.00293955
0.000155383
0.000100609
0.00288087
9.58671e-05
9.39833e-05
0.00284643
-0.000144209
0.000184567
0.00289848
-0.000212318
0.000238884
0.00296087
-0.00010353
0.000202705
0.00299118
8.71507e-05
3.32251e-05
0.00297034
-1.90824e-05
-0.000203753
0.00285461
-4.11619e-06
-0.000330604
0.00279619
6.50131e-05
-0.000248572
0.002818
5.60383e-05
-3.29594e-05
0.00290521
7.49787e-06
0.00013183
0.00300169
-0.000103097
0.000181396
0.00303946
-0.000112963
8.71545e-05
0.00302766
-1.97727e-05
-6.6306e-05
0.00295363
3.96661e-05
-0.00015699
0.00289265
-0.000120609
-0.000132137
0.00284806
-0.000296991
1.95915e-05
0.00281069
-0.00026148
0.000173917
0.00286276
-0.000247794
0.000248032
0.00289837
-0.000146031
0.000218023
0.00287189
4.89452e-05
0.00013823
0.00288554
-7.02371e-05
0.000140632
0.00295134
-0.000159567
0.000153311
0.00299633
-0.000160246
0.000202583
0.00299665
-0.000166162
0.000287552
0.00303234
-0.000155271
0.000347345
0.00308835
-0.000192319
0.000256687
0.0031059
-0.000106059
-3.97689e-06
0.00310113
-0.000144359
-0.000164125
-0.000199261
-0.0001911
0.00296937
-9.47004e-05
-0.000174075
0.00297026
-0.000100092
-0.000202636
0.002779
2.35106e-05
-0.000127736
0.00255116
3.81817e-05
-6.33445e-05
0.00245989
-0.000325124
-8.56135e-05
0.00249495
-0.000415912
-0.000122002
0.00258209
-0.000332702
-0.00012826
0.00266562
-0.000341375
2.82118e-05
0.00270169
-0.00013877
0.000129314
0.00264414
0.000100785
7.92013e-05
0.0025819
0.000235765
5.03467e-05
0.00252659
0.000175691
7.70392e-05
0.0025283
-0.000128735
0.000189552
0.00261421
-0.00028355
0.00025557
0.00265162
-0.000143549
0.000192951
0.00261732
8.23998e-05
-7.56193e-06
0.00256419
-5.89918e-05
-0.000201192
0.0025889
-9.54251e-05
-0.000241055
0.00274291
-9.01975e-05
-0.000131204
0.00283256
-5.60427e-05
-3.72941e-06
0.00279773
-9.1049e-05
6.90274e-05
0.00267543
-0.000156159
4.6607e-05
0.00262658
-0.0002367
-4.2628e-05
0.00272889
-0.000273
-0.000129165
0.00282471
-0.000202283
-6.88966e-05
0.00281649
-0.000273559
2.48511e-05
0.00271558
-0.000379151
8.40625e-05
0.00260978
-0.000307916
0.000154475
0.00257872
-0.000292417
0.000225245
0.00257728
-0.000126012
0.000186041
0.00259026
0.000103438
5.4976e-05
0.0026408
-0.000118023
4.13817e-05
0.00270877
-0.000238704
0.000162935
0.00267944
-0.000142312
0.000361665
0.0026078
-9.96961e-05
0.000437784
0.00266129
-0.000197341
0.000354659
0.00272476
-0.0002797
0.000236948
0.00270928
-0.000174237
0.000101989
0.00272448
-0.000246251
1.56074e-05
-0.000231737
-8.6357e-05
0.00248258
-0.000211439
0.000110898
0.00259015
-0.000189033
-7.14603e-05
0.00262277
5.30956e-05
-0.000172895
0.00265792
2.09644e-05
-7.99868e-05
0.00262403
-0.000244002
2.0376e-05
0.00244882
-0.000202996
-5.30606e-05
0.0022649
-0.000211132
-0.000136129
0.00222674
-0.000338089
-8.53133e-05
0.0022331
-0.000105397
-4.95199e-05
0.00222271
0.000133455
1.67653e-06
0.00231716
0.000127081
6.56824e-05
0.00239848
6.7036e-05
0.000142458
0.00242262
-0.000202323
0.000257304
0.00244524
-0.000276092
0.000250401
0.00237195
2.59077e-05
0.000115514
0.00228352
0.000221159
-3.42265e-05
0.00224677
-7.72903e-05
-0.000115457
0.00230565
-0.000193964
-0.000195895
0.00239662
-0.000163623
-0.00012246
0.00239927
-3.54131e-05
-3.11847e-05
0.00239453
-0.000106185
1.77633e-05
0.00237612
-0.000186018
0.000126132
0.00235745
-0.000305006
0.000135655
0.00242825
-0.000430546
-5.86926e-05
0.00253557
-0.000283415
-0.000161562
0.00255233
-0.00027951
-2.70259e-05
0.00244388
-0.000383236
0.000228061
0.00232467
-0.00029683
0.000334024
0.00229972
-0.000366656
0.000258811
0.00240718
-0.000251803
7.06481e-05
0.00257126
3.5711e-05
-8.19177e-05
0.00260637
-0.000116817
-1.22933e-05
0.00250463
-0.0001549
8.67678e-05
0.00227913
-1.78176e-05
0.000144126
0.00210831
3.11652e-07
5.12232e-05
0.00212668
-0.00019643
-3.98179e-06
0.0021587
-0.000263843
-7.68242e-05
0.00218725
-0.000122983
-0.000163544
0.0022278
-0.000267054
-6.26265e-05
-0.000283646
9.52709e-05
0.00203375
-0.000348446
-4.22352e-05
0.0021013
-0.000344666
-8.30085e-05
0.00209821
-1.61509e-05
-0.000166865
0.00217728
-0.000108871
-8.40261e-05
0.00228736
-0.000221434
-2.41788e-05
0.00235438
-0.000172677
-3.25323e-05
0.00220335
-0.000200696
-4.1419e-06
0.00190648
-0.000188888
3.89788e-05
0.00182902
-1.72961e-05
-3.686e-07
0.00194453
9.61342e-05
-1.22152e-05
0.00210294
-4.40201e-05
0.000104872
0.00219913
-0.000150148
9.93126e-05
0.00224757
-0.000352324
5.62822e-05
0.00232047
-0.000297095
0.00014142
0.00228538
0.000202391
0.000246861
0.00220277
0.000417114
9.94027e-05
0.00210392
7.8364e-05
-6.29549e-05
0.00206086
-6.03348e-05
-0.000144414
0.00208334
-6.60221e-05
-5.03862e-05
0.00216745
-2.44436e-05
7.08606e-05
0.00227541
-4.93642e-05
8.84015e-05
0.00232971
-2.19437e-05
0.000147553
0.0022673
-3.49376e-05
4.84458e-06
0.00220027
-0.000206334
-0.00022931
0.00214296
-0.000153074
-0.000144692
0.00208511
-0.000252533
-1.78162e-05
0.00203044
-0.000366583
0.000156872
0.00201402
-0.000277811
0.000273759
0.00211268
-0.000485674
0.000248841
0.00220184
-0.00041484
0.000181635
0.00216974
2.46603e-05
0.000155302
0.0020817
-5.77584e-05
0.000265336
0.00206141
-0.000229781
0.00021335
0.00200975
-0.000120063
5.39525e-05
0.00198886
1.93698e-05
-7.84739e-05
0.00200566
-0.000140093
-1.88297e-05
0.001992
-0.000220347
-1.53778e-06
0.00206493
-0.000249395
-6.33542e-05
0.00202943
-0.000381736
-7.73339e-05
-0.000214298
-0.000103713
0.00190852
-0.000526656
0.000100886
0.00184289
-0.000494463
0.000113843
0.00180144
-9.45086e-05
-2.33743e-05
0.00185625
-0.000209564
0.000123511
0.00205994
-0.000312794
6.2139e-05
0.00228712
-0.000275932
-6.30165e-05
0.00217233
-0.000150648
0.000108176
0.00182164
-3.28131e-05
8.45677e-05
0.00170764
0.000109414
-0.000203612
0.00169606
0.000222208
-0.000136128
0.00167892
-0.00011791
0.000125799
0.00171771
-0.000272934
0.00021176
0.00173945
-0.00028908
0.000353381
0.00193199
-0.000315697
0.000320512
0.00222694
0.000115591
6.44608e-05
0.00224163
0.000449819
-0.000109929
0.00191296
0.000247212
-5.89899e-05
0.00171346
-5.85189e-05
5.98549e-05
0.00173624
-0.000266539
0.000177169
0.00172693
-0.000105568
0.000137287
0.00174527
2.50759e-05
-2.29079e-05
0.0018471
1.44897e-05
-2.2853e-05
0.00182532
4.3567e-05
-0.000126132
0.00182703
-0.00016281
-0.000206638
0.00188784
-0.000226819
3.65285e-05
0.00179041
-0.000253957
7.45831e-06
0.00176681
-0.00040883
-2.34014e-05
0.00188661
-0.000326165
-4.18259e-05
0.00184545
-0.000335676
1.58583e-05
0.00184253
-0.000322032
0.000110049
0.00190786
3.20606e-05
0.00020167
0.0018601
5.29325e-05
0.000268729
0.00196666
-0.00018748
0.00013183
0.00211009
-0.00012415
-0.000105349
0.00208113
0.000141906
-0.000182087
0.00195122
-2.17144e-05
0.000120288
0.00189813
-0.000226418
0.000197134
0.00199207
-0.000394676
1.63905e-05
0.00196874
-0.000463742
-4.06526e-05
-0.000224341
-7.30902e-05
0.00171345
-0.000358271
-0.000101713
0.00161618
-0.000454419
6.46296e-05
0.0017501
-0.000243435
0.000154962
0.00179592
-0.00024842
0.000226623
0.00175955
-0.00028546
2.64493e-05
0.0017845
-0.000337738
1.81271e-05
0.00169801
-0.000132259
0.000140537
0.00144521
5.30103e-05
-2.88931e-05
0.00138805
0.000130432
-0.000229591
0.00149908
0.000106663
7.72729e-05
0.00161958
-0.000248155
0.000242243
0.00154305
-9.1302e-05
0.000190106
0.0014967
-1.86425e-05
0.000246708
0.00178742
-0.000387418
9.17073e-05
0.00203765
-9.93577e-05
-0.000139535
0.00188678
0.000375142
-0.000135282
0.00152039
0.000253345
-2.34776e-05
0.00136221
-0.000167521
-2.42669e-05
0.00137195
-0.000403058
-1.97317e-05
0.00131934
-0.000178078
8.65533e-05
0.00139934
-0.00011791
0.000158082
0.00160071
-0.000266355
0.000290655
0.00162816
-9.97846e-05
0.000168479
0.00163173
-0.000191498
7.77056e-05
0.00160701
-5.98014e-05
2.69309e-05
0.00144729
5.71468e-06
-0.000114645
0.00152127
-0.000337052
-0.000105076
0.00165208
-0.000279488
-9.04946e-05
0.00147824
-0.000121416
-5.04485e-05
0.00156001
-0.00027805
-5.08927e-05
0.00169358
7.39659e-05
4.85961e-05
0.00150453
0.000341359
5.61567e-05
0.00154413
-2.59146e-05
-0.000153388
0.00175915
-0.000206499
-0.000250541
0.00182918
9.29257e-05
-9.17031e-05
0.00176772
7.12841e-05
0.0001757
0.00177569
-0.000194025
-1.37622e-06
0.00178399
-0.000450925
-0.000195388
0.00178101
-0.000571961
-7.58809e-05
-0.00030295
-0.000142208
0.0015331
-0.000190599
6.02834e-05
0.0013702
-0.000396452
0.000202059
0.00148071
-0.000376994
0.000427543
0.00139729
-0.000148296
0.000367422
0.0010937
-9.2665e-05
0.000114841
0.0010342
-0.000474867
0.000235658
0.00113305
-0.000460521
0.000202312
0.00109355
-8.56478e-05
-0.000103568
0.00112977
3.81912e-05
-0.000102201
0.00124996
4.85718e-05
0.000154377
0.00130128
-0.000103028
0.000131124
0.00122268
0.000144232
0.000142714
0.00124556
6.68509e-05
0.000331877
0.00141089
-0.000423113
0.000157184
0.00153154
-0.000190226
-0.000103257
0.00160381
0.000272506
-0.000162851
0.00154775
0.000262125
-5.56269e-05
0.0013945
-9.41901e-05
-8.00282e-05
0.0013307
-0.000235903
-0.000158772
0.00130856
-7.49373e-05
-2.82451e-05
0.00140817
-9.182e-05
9.78647e-05
0.00155427
-0.000274226
0.000144453
0.00152969
-8.60562e-05
-7.43848e-05
0.00151481
-0.00021211
2.81689e-05
0.00149356
0.00010085
0.000115374
0.00143236
0.000137271
-0.000189171
0.00153004
-0.000342579
-0.000113233
0.00160409
-0.000225451
0.000116237
0.00146812
-5.34804e-05
0.000118359
0.00146655
-0.000252509
8.08458e-05
0.00144201
0.00019162
0.000134992
0.00128707
0.000485833
6.98313e-05
0.00144042
-8.16408e-05
-0.00018225
0.00167541
-0.000395116
-0.000179049
0.00182526
7.02322e-05
-3.83296e-05
0.00178427
0.000187892
0.000174131
0.00159317
-0.00010451
1.34969e-05
0.00137952
-0.000374854
-8.0616e-05
0.00142974
-0.000649609
0.000138188
-0.000386093
5.84023e-05
0.00131893
-3.37757e-05
0.000235596
0.000903709
-0.000221054
0.000181154
0.000905267
-0.000485928
0.000201308
0.00109
-0.000253711
0.000127326
0.00110256
-7.30002e-05
-8.4164e-05
0.00102293
-0.000439275
0.000214816
0.000954238
-0.000414058
0.00010446
0.000999944
-0.000111797
-0.000285345
0.00109344
-0.000111188
2.60505e-05
0.00112102
2.45913e-05
0.000111995
0.00115151
-3.13148e-05
7.21088e-06
0.00115573
0.000271623
0.000249339
0.00120464
0.000116486
0.000344658
0.00123365
-0.000551029
8.59995e-05
0.00129877
-0.000204849
-0.000129107
0.00129101
0.000312198
-7.67267e-05
0.00119591
0.00029725
-3.33577e-05
0.00113128
-6.81377e-06
-4.1835e-05
0.00106421
-0.000163586
-3.43933e-05
0.00107341
-5.46159e-05
1.23194e-05
0.00121264
-7.00603e-05
0.000116025
0.00130014
-0.00024842
0.000111689
0.00125364
-2.90053e-05
-0.000212742
0.00127903
-0.000128337
-7.38306e-05
0.00141293
2.90685e-06
0.000190168
0.00148575
-6.24216e-05
-6.93144e-05
0.00145754
-0.000365038
-3.52608e-05
0.00141696
-7.24216e-05
0.000128853
0.00134312
-5.85811e-05
0.000116666
0.00137462
-0.000323965
0.000124203
0.00135886
0.00019172
0.000332936
0.00127782
0.00051553
0.000140137
0.00140432
-7.66809e-05
-0.000160855
0.00149655
-0.000379384
-7.52955e-06
0.00158128
8.24929e-05
1.04626e-05
0.00155372
0.000221312
0.000118228
0.0014835
-9.04086e-05
4.4958e-05
0.00126523
-0.000244959
0.000146067
0.00128293
-0.000673178
0.000225082
-0.000486422
9.34565e-05
0.00126493
-7.08792e-05
0.000229211
0.000947446
-9.45343e-05
0.000122338
0.000758231
-0.000395431
1.64336e-05
0.000903548
-0.000415766
2.97368e-05
0.00105387
-0.00024165
-7.3147e-05
0.000950269
-0.000283402
0.00012708
0.000733658
-8.59432e-05
-4.26574e-05
0.000837711
-0.000128114
-0.000272592
0.00102505
-0.000199417
8.04139e-05
0.00097171
3.87702e-05
0.000159788
0.00101703
-0.000210504
3.78883e-05
0.00110886
0.000210039
0.000197197
0.00113482
0.000190487
0.000292161
0.00111697
-0.000619851
0.000106125
0.00123254
-0.000281869
-1.06563e-05
0.00126412
0.000298221
5.03839e-05
0.00112076
0.000294292
-0.000131066
0.00115933
-4.04309e-05
-0.000110457
0.00114114
-0.000294329
8.15637e-05
0.00113907
-0.000151779
1.61118e-05
0.00124082
-0.000108322
0.00013498
0.00113601
-0.000256666
0.000291709
0.00107032
-0.000166787
-7.4364e-06
0.00115868
-0.000165989
-6.33308e-05
0.00130767
-8.66913e-05
0.000100624
0.00142961
-0.000279728
-3.02136e-05
0.00138574
-0.000337325
3.11555e-05
0.00126428
5.48089e-05
0.000178189
0.00113885
6.31939e-06
1.74562e-05
0.00122491
-0.000303668
-6.26797e-05
0.00133097
0.000158043
0.000198356
0.00126876
0.000482765
4.36388e-05
0.00120902
-2.64073e-05
-8.72737e-05
0.00133746
-0.000415641
-1.38932e-05
0.00144062
7.1691e-05
9.99406e-05
0.00139463
0.000250342
0.0001441
0.00140287
-0.000192764
0.000136711
0.00122433
-0.000153366
0.000162446
0.00102517
-0.000583694
0.000102733
-0.000569299
1.30078e-05
0.00092378
-4.32193e-05
0.00027976
0.00063681
6.84454e-05
7.19869e-05
0.000501629
-0.000324839
-2.84848e-05
0.000658361
-0.000699676
0.000164566
0.000842222
-0.000558788
7.03176e-05
0.000855508
-0.000307015
1.06845e-05
0.000809088
-7.9371e-05
-9.96815e-05
0.000889796
-0.00018023
-0.000114107
0.000945232
-0.000151815
0.000143799
0.000908764
2.2941e-05
0.00010169
0.00107115
-0.000375853
0.00011273
0.0011651
0.000175569
0.000216049
0.00101448
0.000414151
0.00015737
0.000861172
-0.00049513
0.000126031
0.00101521
-0.000453069
-1.54603e-06
0.00107746
0.000154589
3.6176e-05
0.000933843
0.000170935
-6.99631e-05
0.00107307
-0.00016718
-0.000149604
0.00111316
-0.000368974
0.000215932
0.0011113
-8.80758e-05
2.85426e-05
0.00117221
-6.03496e-05
3.03554e-05
0.00101979
-0.000183945
0.000209846
0.00105512
-0.000298799
-0.000102418
0.00113426
-0.00020421
-4.32741e-05
0.00108421
-2.87836e-05
6.79835e-05
0.00105372
-0.000383591
2.6675e-05
0.00113125
-0.000406153
7.08949e-05
0.00123046
-2.81472e-05
0.000199106
0.00113823
0.000119339
-6.24447e-05
0.00112442
-0.000167408
-3.76661e-05
0.00123515
-6.10471e-06
0.000123469
0.00118936
0.000345261
-7.34955e-05
0.00114872
-2.52468e-05
-3.62922e-05
0.00125678
-0.000426071
-4.61999e-05
0.00127803
0.000210131
8.64359e-05
0.00125145
0.000270049
6.33987e-05
0.0011672
-0.000108223
0.00010623
0.0010794
-0.000113034
0.000222705
0.00101784
-0.000461519
1.24851e-05
-0.000473107
-2.51682e-06
0.000781331
6.63093e-05
0.000120653
0.000641814
9.48454e-05
-6.50798e-06
0.000523863
-0.000215757
7.11943e-05
0.000530754
-0.000690608
0.000271081
0.000694618
-0.00072351
0.000307345
0.000792586
-0.000393975
-1.08877e-05
0.000859493
-0.000246486
-0.000135823
0.000854761
-0.00032907
6.2378e-05
0.00072736
-0.000174239
0.000234244
0.000796039
-0.000155652
0.000149587
0.00099126
-0.000409992
0.000146425
0.000964567
0.000289329
0.000168236
0.000889661
0.000541369
7.08619e-05
0.000834548
-0.000393062
0.000149675
0.00087981
-0.000490179
3.55689e-05
0.000955612
4.13899e-05
2.14486e-05
0.000865045
5.43358e-05
-1.56652e-05
0.000960822
-0.000217178
-9.52838e-05
0.00103068
-0.000365662
0.000268494
0.0010469
-0.000182437
7.43327e-05
0.00103088
-5.43415e-05
7.22312e-05
0.000960123
-0.000188147
3.71822e-05
0.00104048
-0.000337424
-8.45229e-05
0.00101059
-9.91241e-05
0.00014466
0.000830022
8.29778e-05
7.01079e-05
0.000706342
-0.000492707
0.000122526
0.000831752
-0.00054621
0.000116084
0.00106079
-9.43737e-05
4.01495e-05
0.00107108
0.000188557
-0.000124315
0.000970038
9.39383e-05
-1.77815e-05
0.0010383
-8.37544e-05
7.83686e-05
0.00108022
0.000307346
-0.000117001
0.00107326
5.4946e-05
1.68063e-05
0.00102681
-0.000295808
-1.62608e-05
0.00114617
0.000303697
-7.84448e-06
0.00117595
0.000241749
8.70849e-05
0.000964502
-1.01137e-05
0.000160917
0.000956556
-0.000252627
0.0002159
0.00098587
-0.000471082
-3.6823e-05
-0.000317737
1.30015e-05
0.000768422
0.000237715
8.90917e-05
0.000668696
0.000134347
9.40524e-05
0.000606018
-2.89094e-05
0.000157319
0.000557593
-0.000579174
2.41441e-05
0.000595497
-0.000675426
5.33722e-05
0.000685863
-0.000317514
-0.00015718
0.000832442
-0.000363862
-0.000127494
0.000780204
-0.000401759
0.000105011
0.000601479
-5.17285e-05
6.00209e-05
0.000717451
-0.000315469
0.000105802
0.0008322
-0.000456457
0.000255852
0.00074904
0.000434885
0.000151952
0.000795558
0.000542347
5.87474e-07
0.000814644
-0.000311905
9.10034e-07
0.000778218
-0.00046967
-3.71784e-06
0.00078105
-9.70871e-05
-4.00855e-05
0.00077767
-0.000119884
-0.000103567
0.000836669
-0.000207008
-8.1543e-05
0.000907196
-0.000293702
5.28817e-05
0.000939274
-0.000271826
-2.75297e-05
0.000881539
6.11336e-05
7.02402e-05
0.000892574
-0.000223858
-2.34199e-05
0.000921608
-0.000313174
-6.05143e-05
0.0008681
5.93798e-05
6.92833e-05
0.000830642
0.000108716
2.55961e-05
0.000770907
-0.000500108
0.00010673
0.000777841
-0.000538145
6.1025e-05
0.000836796
-0.000115507
2.48485e-06
0.000862322
0.000172889
1.54511e-05
0.000826511
0.000162179
9.36498e-05
0.000794607
-0.00011676
5.28501e-05
0.000862607
0.000345495
-0.000108183
0.000919331
3.15996e-05
6.02316e-05
0.000847527
-0.000233642
0.000127899
0.00096886
0.000262799
0.000146629
0.000985798
0.000178879
6.88399e-05
0.000825649
3.41078e-05
0.000139684
0.000736463
-0.00027106
0.000219254
0.000778311
-0.000491131
-7.07242e-06
-0.000159761
0.000136653
0.000654369
0.000303292
6.0864e-05
0.000665085
2.22673e-05
0.000226005
0.000679792
3.31576e-05
0.00011097
0.000591688
-0.000467335
4.80232e-05
0.000491763
-0.000609833
-6.94109e-05
0.000571125
-0.000367338
-0.000118534
0.000700391
-0.000477441
-0.000114781
0.000672194
-0.000327467
0.000106581
0.000609635
0.000126101
7.91173e-05
0.000702147
-0.000397575
8.84975e-05
0.000694673
-0.000365196
0.000224355
0.000694103
0.000506246
9.57951e-05
0.000744854
0.000409976
0.000114914
0.000666141
-0.00033099
0.000100303
0.00065955
-0.00052653
-1.35265e-05
0.000560041
-0.000200161
-6.34293e-06
0.000612064
-0.000307685
-0.000106631
0.000750096
-0.000253994
-6.85638e-05
0.000775164
-0.000270248
7.96684e-05
0.000797722
-0.000369972
6.13269e-06
0.000762298
0.000128993
6.14539e-05
0.000771544
-0.000228238
6.93863e-06
0.00078097
-0.000233004
-7.71115e-05
0.000829677
9.42153e-05
8.64914e-06
0.000782334
7.95859e-05
-1.59371e-05
0.000681179
-0.000469503
7.1173e-05
0.000778286
-0.000586831
-2.09778e-05
0.00076842
-4.26616e-05
2.08961e-05
0.000678623
0.000322769
8.73984e-05
0.000660839
0.000130255
-2.01256e-05
0.00061611
-0.000177382
4.78617e-05
0.0007309
0.000375126
-2.79688e-05
0.000800412
-8.12144e-05
8.85089e-05
0.000797887
-0.000282242
0.000217917
0.000889009
0.000168076
0.000140904
0.000812727
0.000129202
-5.39556e-06
0.000740909
2.68457e-05
0.000116205
0.000682953
-0.000215492
0.000139415
0.000622027
-0.000384563
-2.6073e-05
8.2282e-05
6.86206e-05
0.00059103
0.000289662
0.000167713
0.000593718
-4.60446e-06
0.000156302
0.000585255
5.6027e-06
3.39792e-05
0.000527695
-0.000400383
0.000163162
0.00038743
-0.000483558
2.26714e-05
0.000392108
-0.000407149
-1.22264e-05
0.000494977
-0.00053624
-8.81506e-05
0.000568472
-0.00031402
0.000113303
0.000583746
0.000143919
8.493e-05
0.000607318
-0.000396904
6.85015e-05
0.000589154
-0.000185563
8.86179e-05
0.000675851
0.000493437
6.21319e-05
0.000686268
0.000264045
0.000140615
0.000566907
-0.000311974
8.24165e-05
0.000579795
-0.000517144
0.000104772
0.000496565
-0.000208616
8.68857e-05
0.000588261
-0.000462017
-0.000110424
0.000739384
-0.000311536
-0.000105168
0.000716729
-0.000282071
0.000183928
0.000734777
-0.000458421
9.1506e-05
0.000650098
0.000173191
4.66531e-05
0.000582647
-0.00020597
8.21898e-05
0.000663337
-0.000254782
5.51211e-05
0.000767523
-2.37197e-05
5.37314e-05
0.000717699
-8.33921e-05
1.4135e-05
0.000622883
-0.000416625
5.37193e-05
0.000682864
-0.00053757
-0.000156554
0.000619855
7.4736e-05
-0.000102947
0.000573699
0.000434568
3.04469e-05
0.000599485
9.24873e-05
-3.88917e-05
0.000553822
-0.000267782
0.000128764
0.000724705
0.000215468
5.94221e-05
0.000717703
-0.0001544
6.3087e-05
0.000692247
-0.000360982
0.000130296
0.000824239
-4.28512e-05
0.000186944
0.000765658
8.2792e-05
-4.70408e-06
0.00065967
2.21103e-05
0.000143182
0.000631165
-0.000208813
0.000102814
0.000592978
-0.000273505
1.59269e-05
0.000213261
9.05582e-05
0.000588006
0.000250093
0.000163047
0.000527314
8.07267e-05
0.000111046
0.000495561
-0.000119478
5.72964e-05
0.000465564
-0.000328646
9.45107e-08
0.000395472
-0.000368694
2.28376e-05
0.000407487
-0.000388176
-5.1964e-05
0.000452322
-0.000478618
-4.15353e-05
0.000519306
-0.000254563
0.000102162
0.000555271
0.000108003
2.70541e-05
0.000538149
-0.000330718
5.61843e-05
0.00052977
-0.000151383
0.000161366
0.000633284
0.000408333
0.000130957
0.000637091
0.000234534
-1.34264e-06
0.000546806
-0.000246472
-3.27273e-05
0.000548763
-0.00053646
0.000125791
0.00052356
-0.000253263
8.46036e-05
0.000603449
-0.000495397
-0.000116752
0.000716158
-0.000344154
-8.04213e-05
0.000662855
-0.000242564
0.000141036
0.000642754
-0.000312281
-5.3184e-07
0.000542506
0.000265722