/*--------------------------------*- C++ -*----------------------------------*\
  =========                 |
  \\      /  F ield         | OpenFOAM: The Open Source CFD Toolbox
   \\    /   O peration     | Website:  https://openfoam.org
    \\  /    A nd           | Version:  10
     \\/     M anipulation  |
\*---------------------------------------------------------------------------*/
FoamFile
{
    format      ascii;
    class       volScalarField;
    location    "19";
    object      pMean;
}
// * * * * * * * * * * * * * * * * * * * * * * * * * * * * * * * * * * * * * //

dimensions      [0 2 -2 0 0 0 0];

internalField   nonuniform List<scalar> 
25600
(
2.40904e-05
2.59728e-05
2.17449e-05
2.67498e-05
2.18612e-05
2.38757e-05
2.87479e-05
2.38157e-05
2.04885e-05
2.45207e-05
2.48943e-05
2.54695e-05
2.77258e-05
3.12399e-05
3.45949e-05
2.79951e-05
3.86817e-05
3.9429e-05
3.00979e-05
3.89691e-05
4.13468e-05
3.96118e-05
4.1176e-05
4.57536e-05
4.02757e-05
4.11778e-05
4.9248e-05
3.57297e-05
3.89894e-05
4.33079e-05
2.81141e-05
3.24628e-05
3.43997e-05
2.66721e-05
2.64581e-05
3.07116e-05
2.33647e-05
1.68794e-05
2.49432e-05
2.06751e-05
2.57889e-05
2.74721e-05
2.72616e-05
2.82348e-05
1.85796e-05
2.45736e-05
3.23152e-05
2.51512e-05
2.17708e-05
2.6398e-05
2.99645e-05
2.75422e-05
2.75391e-05
3.24044e-05
3.32339e-05
2.78054e-05
3.3424e-05
3.63224e-05
3.3805e-05
3.98861e-05
4.19502e-05
4.10608e-05
4.38703e-05
4.82197e-05
3.91419e-05
3.9634e-05
4.7465e-05
3.24466e-05
3.78093e-05
4.05573e-05
2.32853e-05
2.87704e-05
2.95989e-05
2.19949e-05
2.41604e-05
2.7939e-05
2.2843e-05
1.92225e-05
2.59305e-05
2.39215e-05
2.57512e-05
2.80577e-05
3.04479e-05
2.59345e-05
1.66161e-05
2.5925e-05
3.34904e-05
2.71665e-05
2.58407e-05
2.76713e-05
3.3912e-05
2.8958e-05
2.58846e-05
3.55583e-05
3.12481e-05
2.7078e-05
3.09233e-05
3.29183e-05
3.67514e-05
4.14724e-05
4.15468e-05
4.10854e-05
4.69934e-05
5.03119e-05
3.88633e-05
3.80606e-05
4.55324e-05
3.20982e-05
3.62555e-05
3.43066e-05
1.85284e-05
2.78744e-05
2.30785e-05
1.72177e-05
2.26831e-05
2.09868e-05
2.11453e-05
2.0336e-05
2.44749e-05
2.68052e-05
2.45091e-05
2.83203e-05
3.03951e-05
2.20463e-05
1.69599e-05
2.7359e-05
3.33472e-05
3.00701e-05
2.97232e-05
2.90406e-05
3.68981e-05
2.7327e-05
2.48389e-05
3.93513e-05
2.80248e-05
2.7503e-05
3.2475e-05
3.08573e-05
4.04056e-05
4.4333e-05
3.97893e-05
4.10551e-05
5.06434e-05
5.17962e-05
3.78296e-05
3.64668e-05
4.58284e-05
3.46167e-05
3.4504e-05
2.65922e-05
1.5185e-05
2.64609e-05
1.41021e-05
1.25668e-05
1.96354e-05
1.44513e-05
2.01276e-05
2.00951e-05
2.38465e-05
2.89455e-05
2.26739e-05
2.84117e-05
2.72269e-05
1.63698e-05
1.85118e-05
2.75121e-05
3.17346e-05
3.30726e-05
3.26971e-05
3.19046e-05
3.77237e-05
2.46717e-05
2.67433e-05
4.0152e-05
2.39398e-05
3.08356e-05
3.47376e-05
3.03809e-05
4.62632e-05
4.76119e-05
3.77798e-05
4.27854e-05
5.55938e-05
5.31741e-05
3.64683e-05
3.70391e-05
4.81006e-05
3.68198e-05
3.1215e-05
1.84936e-05
1.32888e-05
2.09546e-05
4.12177e-06
7.59803e-06
1.29377e-05
8.76005e-06
1.73518e-05
1.83461e-05
2.55191e-05
2.98802e-05
2.05534e-05
2.90925e-05
2.09781e-05
9.99375e-06
2.15485e-05
2.63626e-05
3.0629e-05
3.68933e-05
3.6466e-05
3.71037e-05
3.65954e-05
2.48948e-05
3.104e-05
3.57112e-05
2.2048e-05
3.467e-05
3.49437e-05
3.3192e-05
5.38636e-05
5.05679e-05
3.69212e-05
4.68888e-05
6.17372e-05
5.38029e-05
3.49505e-05
4.06053e-05
5.19028e-05
3.82061e-05
2.70335e-05
1.17302e-05
1.09055e-05
1.07057e-05
-5.03985e-06
7.31769e-07
2.04028e-06
3.00531e-06
1.21284e-05
1.63929e-05
2.93377e-05
2.85561e-05
1.98963e-05
2.98182e-05
1.08158e-05
3.99231e-06
2.41675e-05
2.35833e-05
3.16724e-05
4.16059e-05
4.19526e-05
4.25559e-05
3.44845e-05
2.85124e-05
3.35935e-05
2.8428e-05
2.39816e-05
3.80986e-05
3.61901e-05
4.03104e-05
6.20075e-05
5.30566e-05
3.67442e-05
5.26367e-05
6.84268e-05
5.32754e-05
3.4616e-05
4.70856e-05
5.57481e-05
3.75152e-05
2.161e-05
5.57208e-06
4.71212e-06
-2.27288e-06
-1.34856e-05
-1.05234e-05
-1.19758e-05
-3.2621e-06
4.34077e-06
1.60383e-05
3.31776e-05
2.43381e-05
2.28707e-05
2.79515e-05
-1.94581e-06
-2.40129e-07
2.46493e-05
2.12903e-05
3.48759e-05
4.71431e-05
4.90109e-05
4.6757e-05
3.44822e-05
3.52753e-05
3.35402e-05
2.23381e-05
2.99726e-05
4.26653e-05
4.11806e-05
5.0989e-05
6.97575e-05
5.49246e-05
3.63064e-05
6.00219e-05
7.45827e-05
5.19865e-05
3.6451e-05
5.58092e-05
5.86401e-05
3.4173e-05
1.53179e-05
-1.05575e-06
-5.61413e-06
-1.59419e-05
-2.41298e-05
-2.82976e-05
-2.63657e-05
-1.1243e-05
-5.03451e-06
1.86761e-05
3.5586e-05
1.98068e-05
2.64544e-05
2.16351e-05
-1.43187e-05
-3.72033e-06
2.30912e-05
2.08705e-05
3.99185e-05
5.42116e-05
5.58668e-05
5.01346e-05
3.79125e-05
4.21133e-05
3.1296e-05
1.8063e-05
3.80905e-05
4.80379e-05
4.91056e-05
6.20785e-05
7.56266e-05
5.47417e-05
3.63216e-05
6.86497e-05
7.88913e-05
5.00183e-05
4.08141e-05
6.46044e-05
5.86928e-05
2.74667e-05
7.76138e-06
-9.78116e-06
-1.94482e-05
-3.16249e-05
-4.12578e-05
-5.03622e-05
-4.10353e-05
-2.32534e-05
-1.452e-05
2.25462e-05
3.48195e-05
1.7061e-05
2.66488e-05
1.24182e-05
-2.46266e-05
-7.31674e-06
2.0746e-05
2.1958e-05
4.63613e-05
6.20475e-05
6.26359e-05
5.5342e-05
4.43834e-05
4.71424e-05
2.75862e-05
1.83854e-05
4.86984e-05
5.43401e-05
5.73935e-05
7.03838e-05
7.81002e-05
5.17432e-05
3.65489e-05
7.65053e-05
7.96705e-05
4.8067e-05
4.67609e-05
7.02902e-05
5.47946e-05
1.81912e-05
-1.91911e-06
-2.20248e-05
-3.69256e-05
-5.06553e-05
-6.57318e-05
-7.48225e-05
-5.86015e-05
-4.20131e-05
-2.3923e-05
2.5508e-05
3.1631e-05
1.56603e-05
2.14084e-05
6.69433e-07
-3.58909e-05
-1.49013e-05
1.50695e-05
2.22267e-05
5.20119e-05
6.82585e-05
6.82775e-05
6.10531e-05
5.07001e-05
4.76675e-05
2.03906e-05
2.01065e-05
5.76686e-05
5.91476e-05
6.27486e-05
7.37964e-05
7.61639e-05
4.4835e-05
3.51015e-05
7.94974e-05
7.58801e-05
4.50875e-05
4.80875e-05
6.87476e-05
4.71411e-05
4.69667e-06
-1.78108e-05
-4.05101e-05
-6.05905e-05
-7.5795e-05
-9.6078e-05
-0.000102277
-8.26212e-05
-6.97765e-05
-3.49255e-05
2.57044e-05
2.77092e-05
1.48327e-05
1.04108e-05
-1.33281e-05
-5.0666e-05
-2.67296e-05
7.18315e-06
2.18109e-05
5.56012e-05
7.1279e-05
7.14283e-05
6.57306e-05
5.52773e-05
4.13868e-05
6.94675e-06
1.93397e-05
6.20481e-05
5.80928e-05
5.99871e-05
7.14811e-05
6.91136e-05
3.12902e-05
3.00656e-05
7.41381e-05
6.29546e-05
3.59087e-05
3.95933e-05
5.85963e-05
3.37605e-05
-1.6664e-05
-4.21285e-05
-6.8475e-05
-9.43874e-05
-0.000108529
-0.000132372
-0.000135616
-0.000117905
-0.000108099
-5.20176e-05
2.04533e-05
2.21369e-05
1.05495e-05
-9.6758e-06
-3.67269e-05
-7.69015e-05
-5.06125e-05
-8.87434e-06
1.76349e-05
5.42346e-05
6.77064e-05
6.84091e-05
6.55796e-05
5.45008e-05
2.63979e-05
-1.52547e-05
1.05243e-05
5.62553e-05
4.30962e-05
4.05262e-05
5.67159e-05
5.32309e-05
8.68304e-06
1.26504e-05
5.37912e-05
3.63186e-05
1.25911e-05
1.53038e-05
3.68905e-05
1.19951e-05
-4.7871e-05
-7.44077e-05
-0.000105671
-0.000140299
-0.000152147
-0.000177483
-0.000177204
-0.000165646
-0.000155156
-7.50669e-05
7.8606e-06
1.06828e-05
-1.84223e-06
-3.78133e-05
-6.91499e-05
-0.000116344
-8.84673e-05
-3.44024e-05
3.14335e-06
3.67002e-05
4.68677e-05
5.05063e-05
5.32347e-05
3.90155e-05
-6.01774e-06
-5.31736e-05
-9.26561e-06
3.58191e-05
2.86615e-06
-6.94941e-06
2.17142e-05
2.07476e-05
-3.08987e-05
-2.46254e-05
9.18431e-06
-1.31133e-05
-3.23492e-05
-2.7623e-05
3.53235e-06
-2.23182e-05
-9.11864e-05
-0.000114625
-0.000151253
-0.000198981
-0.000209432
-0.000235045
-0.000231952
-0.000226564
-0.00020935
-0.000102951
-1.05193e-05
-7.94129e-06
-2.51789e-05
-8.42926e-05
-0.000122935
-0.000176544
-0.000147802
-7.94072e-05
-3.23298e-05
-5.53997e-06
3.15978e-07
1.3515e-05
2.42237e-05
1.0243e-06
-6.71771e-05
-0.000119722
-5.47698e-05
-1.08758e-05
-6.89548e-05
-8.09698e-05
-3.69088e-05
-3.79973e-05
-9.26708e-05
-8.21037e-05
-5.24865e-05
-8.04979e-05
-9.81134e-05
-8.94206e-05
-4.41721e-05
-6.25602e-05
-0.00014176
-0.000164766
-0.000210515
-0.00027461
-0.000284952
-0.000306608
-0.000300572
-0.000301694
-0.00027229
-0.00013895
-3.90947e-05
-3.99622e-05
-6.4662e-05
-0.00015342
-0.000206497
-0.000266907
-0.000237797
-0.000158217
-0.000106739
-8.50761e-05
-7.67244e-05
-5.03758e-05
-3.36425e-05
-6.75602e-05
-0.00016091
-0.000216945
-0.000136049
-0.000100358
-0.000174692
-0.00016672
-0.000103239
-9.93879e-05
-0.0001488
-0.000139012
-0.000113391
-0.000152263
-0.000186881
-0.000182716
-0.000122823
-0.000126535
-0.000200841
-0.000224416
-0.000290756
-0.000369582
-0.000381716
-0.000397455
-0.000395927
-0.000404125
-0.000360422
-0.000203855
-9.11634e-05
-8.75316e-05
-0.000120458
-0.000255756
-0.000313918
-0.000381646
-0.000366564
-0.000282576
-0.000238321
-0.000227238
-0.000207631
-0.000158222
-0.000139016
-0.000192226
-0.000302574
-0.000350999
-0.00026494
-0.000236325
-0.000301606
-0.000268829
-0.000189188
-0.000176699
-0.000225683
-0.000216263
-0.000187743
-0.000251178
-0.000318643
-0.000310854
-0.00022338
-0.000208124
-0.000277331
-0.000297906
-0.000405244
-0.000505366
-0.000502793
-0.000527443
-0.000544739
-0.000548369
-0.000489469
-0.000334631
-0.000206714
-0.000180506
-0.000211412
-0.000431369
-0.000491286
-0.000576552
-0.000572612
-0.000490554
-0.000457454
-0.000447955
-0.000404937
-0.00030419
-0.000267156
-0.000328274
-0.000435388
-0.000475676
-0.000386829
-0.00035857
-0.000406175
-0.000364353
-0.000269984
-0.000256213
-0.000322665
-0.000311501
-0.000303635
-0.000398302
-0.000476595
-0.000453663
-0.00032044
-0.000299119
-0.000377876
-0.000424992
-0.000598721
-0.000713901
-0.000683822
-0.000701424
-0.000732844
-0.000716388
-0.000646179
-0.000538232
-0.000406772
-0.000357276
-0.000389031
-0.000653326
-0.000709654
-0.000845452
-0.00085705
-0.000769234
-0.000766915
-0.000752197
-0.000631216
-0.000438379
-0.000367051
-0.000413587
-0.000498375
-0.000524179
-0.000442845
-0.000437569
-0.000463098
-0.0003952
-0.000286101
-0.000299686
-0.000409618
-0.000410079
-0.000395719
-0.000474628
-0.00056191
-0.000521655
-0.000373972
-0.000370638
-0.000475407
-0.000572387
-0.00082803
-0.000958564
-0.000912754
-0.000914081
-0.000915579
-0.000869504
-0.000803155
-0.000721812
-0.000567411
-0.000522043
-0.000601396
-0.00082582
-0.000873477
-0.00106807
-0.00111145
-0.00102214
-0.0010462
-0.00102496
-0.000811316
-0.000504273
-0.000389314
-0.000436707
-0.000498386
-0.000524039
-0.000504446
-0.000504706
-0.00046298
-0.000351049
-0.000263745
-0.000346535
-0.000523954
-0.000532131
-0.000456528
-0.000490212
-0.00056313
-0.0005099
-0.000363856
-0.000369183
-0.000512077
-0.000666779
-0.000988104
-0.00114897
-0.00112582
-0.00113787
-0.00111051
-0.00102877
-0.000957965
-0.000833968
-0.00060062
-0.000562647
-0.000731464
-0.000785417
-0.000805095
-0.00104023
-0.00112036
-0.00100893
-0.00101983
-0.00101143
-0.000767795
-0.000424516
-0.000325982
-0.000399282
-0.000454051
-0.000491738
-0.000495937
-0.000445171
-0.00032851
-0.000221342
-0.000214969
-0.000415828
-0.000652884
-0.00065622
-0.000547543
-0.000556
-0.000595105
-0.000508256
-0.000326771
-0.000325799
-0.000511803
-0.000700227
-0.00104368
-0.00121515
-0.0012149
-0.00121686
-0.00116654
-0.00106192
-0.000958096
-0.000751773
-0.000446288
-0.000440806
-0.000688878
-0.000550433
-0.000539548
-0.000789792
-0.000879243
-0.00071414
-0.000698386
-0.000732751
-0.000531007
-0.000278967
-0.000256959
-0.000370977
-0.000411199
-0.000404301
-0.000356288
-0.000254488
-0.000126855
-4.70614e-05
-0.00013433
-0.000411532
-0.00064311
-0.000635761
-0.000575348
-0.000611191
-0.000622614
-0.000503932
-0.000301438
-0.000300463
-0.00051327
-0.000723551
-0.00105428
-0.00120906
-0.0011797
-0.00111079
-0.00101657
-0.000886913
-0.000749308
-0.000474339
-0.000166488
-0.000210607
-0.000487577
-0.000346702
-0.000319048
-0.000567981
-0.000629524
-0.000398223
-0.000374122
-0.000464534
-0.000336531
-0.000166194
-0.000190155
-0.000305945
-0.000295184
-0.000210627
-0.000121306
-4.28018e-05
2.77311e-05
6.43786e-05
-4.24075e-05
-0.000291763
-0.000428835
-0.00041459
-0.000461828
-0.000565673
-0.000558556
-0.000428137
-0.000226054
-0.00024458
-0.000479773
-0.000696695
-0.000984243
-0.00110489
-0.00102751
-0.000893772
-0.000789093
-0.000657094
-0.000565946
-0.000294983
-1.53067e-05
-8.95574e-05
-0.000339125
-0.000253315
-0.000219133
-0.000466177
-0.000481635
-0.000209574
-0.000207525
-0.000353228
-0.000230303
-5.56616e-05
-9.59827e-05
-0.000236375
-0.000214384
-8.92043e-05
3.21998e-06
3.96419e-05
6.98722e-05
0.000114133
3.24335e-05
-0.000139674
-0.000209091
-0.000243025
-0.000362067
-0.000464507
-0.000444313
-0.000324096
-0.000131129
-0.00016658
-0.000412
-0.000610677
-0.000877249
-0.00099376
-0.000903451
-0.000733473
-0.000648165
-0.000538345
-0.000493156
-0.000239266
1.43425e-05
-5.89174e-05
-0.000279036
-0.000146589
-0.000115959
-0.000370563
-0.000340869
-5.61552e-05
-0.000102879
-0.000272461
-9.01227e-05
0.000126451
3.55507e-05
-0.000173767
-0.000169688
-4.56899e-05
4.68288e-05
7.71278e-05
0.000133971
0.000197986
0.000145334
2.62508e-05
-2.8299e-05
-0.000112149
-0.000248692
-0.000306836
-0.000298883
-0.000238283
-8.06782e-05
-0.000150228
-0.000388158
-0.000512004
-0.000744084
-0.000877675
-0.000792248
-0.000612234
-0.000548854
-0.000475074
-0.000478853
-0.000193388
8.35873e-05
1.44407e-05
-0.000186709
2.47117e-05
4.66376e-05
-0.000207606
-0.000141165
0.000131899
3.21199e-05
-0.000142905
0.000105178
0.000348052
0.000218393
-4.8411e-05
-5.06376e-05
5.18303e-05
0.000133646
0.000189264
0.000272295
0.000346868
0.000294131
0.000203669
0.000145168
2.50296e-05
-0.00010322
-0.000116961
-0.000130875
-0.000117581
-4.47954e-06
-0.000120769
-0.000339559
-0.000382551
-0.00057102
-0.000696681
-0.000607918
-0.000419678
-0.00036979
-0.000360473
-0.000435036
-0.000119602
0.000210244
0.000150507
-3.82879e-05
0.000194511
0.00021379
-2.5475e-05
6.02988e-05
0.000308218
0.000175006
6.39081e-06
0.000293041
0.000550124
0.000404718
0.000119905
0.000100244
0.000186394
0.00026299
0.000339225
0.000420234
0.00046924
0.00041116
0.000351017
0.000293563
0.00015502
5.03957e-05
6.46603e-05
3.13401e-05
1.73119e-05
0.000116259
-2.21615e-05
-0.000230946
-0.000238483
-0.000400904
-0.000523013
-0.000420217
-0.000208992
-0.000130607
-0.000157706
-0.000291484
9.09404e-06
0.000365962
0.000312231
0.000132361
0.00030592
0.000316538
9.51718e-05
0.000197231
0.000427057
0.000281638
0.000118129
0.000418032
0.000687552
0.000551237
0.000248471
0.000210965
0.000276036
0.000371718
0.000462315
0.000536223
0.000556307
0.000476906
0.000441443
0.000395727
0.000251378
0.000167975
0.000188673
0.0001532
0.00013477
0.000230594
8.20245e-05
-0.000121631
-0.000120115
-0.000285961
-0.000411887
-0.000292585
-6.54007e-05
4.21004e-05
3.43746e-06
-0.000158195
0.00012746
0.00049273
0.000434238
0.000243449
0.00036856
0.000378192
0.000177603
0.000266788
0.000482092
0.000340411
0.000183085
0.000488177
0.000760282
0.000632486
0.000321415
0.0002655
0.000320668
0.000423572
0.000532919
0.000594123
0.000589791
0.000509213
0.000486924
0.000446235
0.000307481
0.000235054
0.000253105
0.000210591
0.000199627
0.000299236
0.000155299
-4.45111e-05
-4.98259e-05
-0.000206988
-0.000334751
-0.0002221
1.51019e-05
0.000139467
9.22234e-05
-7.99469e-05
0.000199914
0.000568409
0.000500684
0.000307431
0.000394164
0.000407408
0.000212319
0.000288531
0.000502147
0.000372647
0.000221643
0.000523051
0.000793973
0.000672638
0.000356529
0.000287329
0.000339262
0.000450144
0.000558411
0.000613988
0.000606394
0.000528225
0.000501224
0.00046328
0.00033735
0.000266878
0.000276245
0.000237917
0.000230448
0.000328698
0.000198342
2.60822e-06
-8.447e-06
-0.000158001
-0.000285968
-0.000173309
6.42195e-05
0.000181775
0.00013464
-3.72058e-05
0.000243641
0.000607046
0.000536003
0.000338325
0.000404658
0.000417204
0.000223456
0.000294223
0.00050961
0.000391092
0.000241565
0.000535041
0.000803742
0.000685645
0.000373029
0.000300889
0.000348308
0.00045882
0.000567848
0.00062349
0.000615766
0.000536705
0.00050525
0.000472136
0.000353846
0.000280483
0.000287087
0.000247595
0.000240108
0.000346608
0.000221684
2.27158e-05
7.1035e-06
-0.000139392
-0.000260722
-0.000149185
8.13363e-05
0.000196653
0.000153651
-1.46756e-05
0.000264017
0.000624639
0.000551483
0.000351663
0.000409155
0.000420631
0.000225878
0.000297029
0.000515245
0.000398312
0.000248155
0.00053924
0.000807556
0.000690777
0.000379298
0.000306721
0.000353861
0.000464915
0.000574023
0.000628962
0.000621846
0.000542786
0.000510968
0.000480172
0.000363004
0.000289583
0.000294926
0.000255762
0.000251551
0.000357652
0.000232236
3.00752e-05
1.33159e-05
-0.000130036
-0.000250463
-0.000140918
8.78056e-05
0.000202534
0.000160615
-5.79512e-06
0.000273264
0.000630709
0.00055497
0.000356364
2.49598e-05
2.7113e-05
2.26792e-05
2.83794e-05
2.3835e-05
2.52525e-05
3.07456e-05
2.5717e-05
2.12951e-05
2.6425e-05
2.72314e-05
2.48828e-05
2.87954e-05
3.41952e-05
3.38548e-05
2.818e-05
4.06423e-05
4.01518e-05
3.12017e-05
3.9083e-05
4.13151e-05
4.1882e-05
4.1771e-05
4.52226e-05
4.23383e-05
4.2985e-05
4.9652e-05
3.68284e-05
4.07337e-05
4.41994e-05
2.84085e-05
3.36622e-05
3.63028e-05
2.66233e-05
2.62957e-05
3.22383e-05
2.3278e-05
1.70021e-05
2.62965e-05
2.13721e-05
2.61562e-05
2.86486e-05
2.89536e-05
2.99584e-05
2.05912e-05
2.64673e-05
3.48228e-05
2.68774e-05
2.26433e-05
2.90559e-05
3.21917e-05
2.69299e-05
2.89408e-05
3.52018e-05
3.22257e-05
2.81589e-05
3.59561e-05
3.66979e-05
3.47076e-05
4.06479e-05
4.24157e-05
4.33658e-05
4.42642e-05
4.79406e-05
4.15442e-05
4.16827e-05
4.7379e-05
3.33538e-05
3.96431e-05
4.09589e-05
2.33676e-05
2.99783e-05
3.12892e-05
2.20509e-05
2.42396e-05
2.94922e-05
2.37271e-05
2.03131e-05
2.7968e-05
2.53001e-05
2.63642e-05
3.03051e-05
3.27296e-05
2.81198e-05
1.92702e-05
2.87717e-05
3.67905e-05
2.86758e-05
2.77343e-05
3.15492e-05
3.59496e-05
2.96982e-05
2.80719e-05
3.73459e-05
3.05606e-05
2.84804e-05
3.40125e-05
3.33336e-05
3.76269e-05
4.28627e-05
4.27853e-05
4.30923e-05
4.71476e-05
5.09515e-05
4.13252e-05
3.96027e-05
4.54646e-05
3.33072e-05
3.79594e-05
3.4801e-05
1.93225e-05
2.8959e-05
2.44338e-05
1.74604e-05
2.29256e-05
2.28692e-05
2.32586e-05
2.33561e-05
2.81434e-05
2.84908e-05
2.68145e-05
3.21167e-05
3.28961e-05
2.50493e-05
2.1013e-05
3.20812e-05
3.79405e-05
3.20602e-05
3.39134e-05
3.37449e-05
3.88027e-05
3.03903e-05
2.73843e-05
3.97259e-05
2.81561e-05
2.96183e-05
3.52115e-05
3.13228e-05
4.1338e-05
4.63059e-05
4.2001e-05
4.25044e-05
5.06019e-05
5.3821e-05
4.05272e-05
3.79195e-05
4.6538e-05
3.59449e-05
3.55277e-05
2.74911e-05
1.64425e-05
2.72422e-05
1.55877e-05
1.30733e-05
2.03953e-05
1.68901e-05
2.32555e-05
2.58009e-05
2.91823e-05
3.05814e-05
2.75654e-05
3.37944e-05
3.04295e-05
2.10334e-05
2.44701e-05
3.42058e-05
3.78514e-05
3.66843e-05
3.94311e-05
3.68123e-05
4.03881e-05
3.02881e-05
2.95094e-05
4.00428e-05
2.54827e-05
3.33049e-05
3.67676e-05
3.0352e-05
4.63316e-05
4.94601e-05
3.97554e-05
4.25227e-05
5.48446e-05
5.61268e-05
3.87918e-05
3.82996e-05
4.88884e-05
3.73317e-05
3.21831e-05
2.02613e-05
1.40276e-05
2.16103e-05
6.19309e-06
8.17779e-06
1.50256e-05
1.29586e-05
2.32666e-05
2.77103e-05
3.18314e-05
3.24388e-05
2.80827e-05
3.60088e-05
2.56068e-05
1.64633e-05
2.89449e-05
3.42747e-05
3.77544e-05
4.2013e-05
4.38857e-05
4.04487e-05
3.93223e-05
3.06187e-05
3.24791e-05
3.64118e-05
2.60932e-05
3.77501e-05
3.6706e-05
3.21472e-05
5.22261e-05
5.11392e-05
3.66684e-05
4.41556e-05
6.04127e-05
5.68319e-05
3.67659e-05
4.14412e-05
5.15405e-05
3.78281e-05
2.87483e-05
1.39344e-05
1.06098e-05
1.27344e-05
-1.63695e-06
2.8021e-06
7.36438e-06
1.03612e-05
2.22487e-05
2.90956e-05
3.63351e-05
3.33285e-05
2.98026e-05
3.76272e-05
1.69582e-05
1.18141e-05
3.11927e-05
3.11087e-05
3.90161e-05
4.66447e-05
4.68933e-05
4.23224e-05
3.5693e-05
3.21442e-05
3.31751e-05
3.07469e-05
3.03496e-05
4.11471e-05
3.59323e-05
3.62966e-05
5.66628e-05
4.9921e-05
3.23285e-05
4.7186e-05
6.59197e-05
5.5453e-05
3.61687e-05
4.72087e-05
5.39645e-05
3.79354e-05
2.56159e-05
7.39684e-06
3.30372e-06
2.08449e-06
-8.17721e-06
-5.62002e-06
-1.86402e-06
8.68363e-06
1.97169e-05
3.13558e-05
4.24532e-05
3.3285e-05
3.23622e-05
3.56252e-05
5.41069e-06
7.52039e-06
2.93174e-05
2.71245e-05
4.11853e-05
4.95972e-05
4.83951e-05
4.21595e-05
3.30064e-05
3.49833e-05
3.03064e-05
2.50691e-05
3.53298e-05
4.19011e-05
3.57678e-05
4.09641e-05
5.85907e-05
4.51566e-05
2.65346e-05
5.14779e-05
6.96085e-05
5.12862e-05
3.67635e-05
5.4642e-05
5.68589e-05
3.82092e-05
2.31814e-05
-4.39391e-07
-6.78397e-06
-7.64804e-06
-1.56893e-05
-1.86926e-05
-1.11063e-05
6.32432e-06
1.57904e-05
3.5901e-05
4.84084e-05
3.23003e-05
3.34753e-05
2.85064e-05
-7.55062e-06
7.75653e-07
2.24893e-05
2.29375e-05
4.30909e-05
5.00182e-05
4.64324e-05
4.00408e-05
3.20457e-05
3.58513e-05
2.27189e-05
1.91707e-05
3.96319e-05
4.11683e-05
3.6429e-05
4.40972e-05
5.69918e-05
3.59213e-05
2.02596e-05
5.56448e-05
6.86885e-05
4.42559e-05
3.91526e-05
6.27808e-05
6.03718e-05
3.972e-05
2.00821e-05
-1.18909e-05
-1.98505e-05
-1.81782e-05
-2.79345e-05
-3.49772e-05
-1.87611e-05
1.16827e-06
1.13152e-05
4.23224e-05
5.19105e-05
3.0526e-05
3.14066e-05
1.78489e-05
-2.24039e-05
-1.07627e-05
1.12891e-05
1.76152e-05
4.21313e-05
4.57084e-05
4.04134e-05
3.63464e-05
3.03505e-05
3.11081e-05
9.80687e-06
1.30834e-05
4.13835e-05
3.82283e-05
3.63678e-05
4.56773e-05
5.17244e-05
2.08036e-05
1.1852e-05
5.63723e-05
6.17463e-05
3.71049e-05
4.48255e-05
7.0052e-05
6.32916e-05
4.16462e-05
1.44455e-05
-2.83874e-05
-3.52019e-05
-3.17392e-05
-4.82331e-05
-5.35314e-05
-2.65839e-05
-7.86381e-06
6.87289e-06
4.77417e-05
5.0574e-05
2.72954e-05
2.63382e-05
4.76005e-06
-4.25246e-05
-3.03707e-05
-5.59715e-06
9.02714e-06
3.51609e-05
3.3744e-05
2.86153e-05
2.77385e-05
2.41872e-05
1.83598e-05
-7.93846e-06
5.28426e-06
3.74482e-05
3.09108e-05
3.2713e-05
4.24838e-05
3.91774e-05
-2.32671e-06
-2.70431e-06
4.74092e-05
4.91478e-05
3.32692e-05
5.17856e-05
7.42069e-05
6.69652e-05
4.2576e-05
2.37819e-06
-5.20074e-05
-5.45031e-05
-5.2402e-05
-7.92015e-05
-7.47406e-05
-3.74611e-05
-2.09367e-05
2.55108e-06
4.8305e-05
4.38125e-05
2.23568e-05
1.8495e-05
-1.14063e-05
-7.06358e-05
-6.02593e-05
-3.10275e-05
-7.33971e-06
1.72952e-05
1.22701e-05
9.27907e-06
1.15568e-05
1.022e-05
-4.15518e-06
-3.10541e-05
-8.31439e-06
2.5125e-05
1.67858e-05
2.22636e-05
3.27349e-05
1.58656e-05
-3.71063e-05
-2.81653e-05
2.82595e-05
3.32424e-05
3.10421e-05
5.63673e-05
7.51274e-05
6.96578e-05
3.70315e-05
-2.04401e-05
-8.44376e-05
-8.14509e-05
-8.53462e-05
-0.000124148
-0.000102891
-5.56424e-05
-4.09462e-05
-7.83885e-06
3.81235e-05
3.04705e-05
1.38258e-05
4.67974e-06
-3.51402e-05
-0.000110964
-0.000103732
-6.86634e-05
-3.93081e-05
-1.92434e-05
-2.40927e-05
-2.08797e-05
-1.42751e-05
-1.65275e-05
-3.99178e-05
-6.33793e-05
-3.24386e-05
2.02321e-06
-7.7073e-06
-2.05199e-07
9.36147e-06
-2.53492e-05
-8.83678e-05
-6.66613e-05
-1.6673e-06
1.48198e-05
2.69212e-05
5.42242e-05
7.17903e-05
6.51564e-05
1.78322e-05
-5.66788e-05
-0.000126353
-0.000116941
-0.00013457
-0.000186093
-0.000138605
-7.94401e-05
-6.40716e-05
-2.66951e-05
1.32061e-05
8.994e-06
-2.63086e-06
-1.6793e-05
-7.22002e-05
-0.000171086
-0.000165585
-0.00012417
-9.47525e-05
-8.28155e-05
-8.39112e-05
-6.82711e-05
-5.10636e-05
-5.72475e-05
-8.99333e-05
-0.000108574
-7.25824e-05
-3.70284e-05
-4.64209e-05
-3.88987e-05
-3.57619e-05
-9.18085e-05
-0.000161525
-0.000121182
-4.1312e-05
-8.12204e-06
1.4459e-05
3.81578e-05
5.60858e-05
4.60091e-05
-1.92645e-05
-0.000110203
-0.000182808
-0.000174556
-0.000216007
-0.000273955
-0.000192449
-0.000120041
-9.78012e-05
-5.7304e-05
-2.34551e-05
-1.86353e-05
-2.57257e-05
-4.60333e-05
-0.00012908
-0.000259628
-0.000252269
-0.000200763
-0.000177638
-0.000177869
-0.000176649
-0.000144531
-0.000113864
-0.000122563
-0.000158875
-0.000174624
-0.000131346
-9.37673e-05
-0.000105291
-0.000101927
-0.00010808
-0.000189978
-0.000257856
-0.000189254
-9.09072e-05
-3.4632e-05
-7.60884e-06
5.93792e-06
2.56602e-05
5.91436e-06
-7.71178e-05
-0.000176662
-0.000245987
-0.000247439
-0.000322662
-0.000378278
-0.000271248
-0.000188186
-0.000154155
-0.000108286
-7.41321e-05
-5.42999e-05
-5.56404e-05
-8.47338e-05
-0.000209442
-0.00038398
-0.000373682
-0.000312273
-0.000305682
-0.000316549
-0.000302567
-0.000249337
-0.000210287
-0.000220456
-0.000255584
-0.000270473
-0.000217111
-0.000168675
-0.000181171
-0.000181851
-0.000195174
-0.000312811
-0.000383091
-0.00028832
-0.000159496
-8.19644e-05
-6.34469e-05
-6.48801e-05
-4.7197e-05
-8.28647e-05
-0.000175701
-0.000270845
-0.000334085
-0.000354361
-0.000449275
-0.00048027
-0.00034841
-0.000275223
-0.000242959
-0.000196109
-0.000146436
-9.79055e-05
-9.20296e-05
-0.000143005
-0.00032093
-0.000539672
-0.000528054
-0.000468465
-0.000500855
-0.000516862
-0.000471314
-0.000391585
-0.000341328
-0.000337736
-0.000358658
-0.000369121
-0.000304833
-0.000241047
-0.000245619
-0.000259259
-0.000283135
-0.000428429
-0.000509784
-0.000414817
-0.000247047
-0.00014039
-0.000135228
-0.00014981
-0.000156467
-0.000231389
-0.000325026
-0.000389011
-0.000438623
-0.000490074
-0.00060748
-0.000620524
-0.000456883
-0.000370507
-0.000336627
-0.000296444
-0.000234528
-0.000151867
-0.000135938
-0.00025099
-0.000479064
-0.000716175
-0.000685769
-0.000635918
-0.000729471
-0.000753868
-0.00066618
-0.000551781
-0.000492347
-0.000470143
-0.000444689
-0.000438237
-0.000373155
-0.00028879
-0.000287705
-0.00032345
-0.000365966
-0.000517544
-0.000592446
-0.000508853
-0.000306908
-0.00016755
-0.000173554
-0.000182056
-0.000216224
-0.000337556
-0.000447972
-0.000514032
-0.00058126
-0.000666202
-0.0007958
-0.000803836
-0.00062887
-0.000513506
-0.000448648
-0.000397551
-0.000323762
-0.000226279
-0.00021326
-0.000392304
-0.00066625
-0.000898548
-0.000823269
-0.000778326
-0.000925314
-0.000951831
-0.000821731
-0.000646593
-0.000587493
-0.000551857
-0.000481389
-0.000459732
-0.000373637
-0.000287361
-0.000321471
-0.000396162
-0.000471655
-0.000602937
-0.000658354
-0.000562486
-0.000352306
-0.000210112
-0.000188821
-0.000182482
-0.000233697
-0.000377059
-0.000510778
-0.000617538
-0.000748105
-0.000876991
-0.00101113
-0.00101615
-0.000850318
-0.000713883
-0.000602623
-0.000540984
-0.000446669
-0.00031611
-0.000308013
-0.000528496
-0.000845955
-0.00106591
-0.000938447
-0.000875206
-0.00104821
-0.00107368
-0.000890012
-0.000632927
-0.000571191
-0.000548618
-0.000482414
-0.000446363
-0.000330191
-0.000245003
-0.000336188
-0.00047583
-0.000554042
-0.000669006
-0.000740858
-0.000634339
-0.000416235
-0.000292643
-0.000247266
-0.000221014
-0.00027363
-0.000411675
-0.000543079
-0.000701818
-0.000898999
-0.00104869
-0.00117958
-0.00118931
-0.00103751
-0.000877562
-0.000762564
-0.000708689
-0.000583942
-0.000414481
-0.000402066
-0.000660186
-0.000991797
-0.00118366
-0.00100708
-0.00094127
-0.00114436
-0.00114917
-0.000910592
-0.000612296
-0.00058244
-0.000555423
-0.00046478
-0.000417584
-0.000294557
-0.000217701
-0.00033388
-0.000523268
-0.000621718
-0.000749608
-0.000810395
-0.000664701
-0.000451171
-0.000350859
-0.000291103
-0.000262047
-0.000316791
-0.000445522
-0.000588303
-0.000782907
-0.00101402
-0.00116568
-0.00126712
-0.00127572
-0.00113447
-0.000960943
-0.000868076
-0.000830908
-0.000671487
-0.00046549
-0.000476363
-0.000754121
-0.00108772
-0.00126039
-0.00107404
-0.00103842
-0.00123559
-0.00117908
-0.000887957
-0.00060468
-0.000636211
-0.000579716
-0.000446117
-0.000392413
-0.000278029
-0.000191215
-0.000324663
-0.000553867
-0.00067342
-0.000822917
-0.000849751
-0.000664938
-0.000483174
-0.000391301
-0.000321819
-0.000326023
-0.000407433
-0.000526808
-0.000671927
-0.000886879
-0.0011174
-0.00121505
-0.00131564
-0.00135634
-0.00120868
-0.00103104
-0.000965547
-0.000933277
-0.000722177
-0.000481674
-0.000537012
-0.000801176
-0.00113446
-0.00128437
-0.00112495
-0.00112257
-0.00126352
-0.00112104
-0.000782403
-0.000534008
-0.000632934
-0.000553678
-0.000410494
-0.000363629
-0.000252858
-0.000167898
-0.00031203
-0.000541797
-0.000664308
-0.000834496
-0.000831034
-0.000638218
-0.000509323
-0.000414821
-0.000322259
-0.000374718
-0.000501678
-0.000631214
-0.000771723
-0.000979569
-0.00118763
-0.00126594
-0.00140415
-0.00145016
-0.00125801
-0.0010738
-0.0010586
-0.00101617
-0.000755564
-0.000477627
-0.000563457
-0.000823719
-0.00113891
-0.00124898
-0.00109623
-0.0011008
-0.00119201
-0.000994228
-0.000622349
-0.000393603
-0.000520147
-0.000449608
-0.0003405
-0.000312377
-0.000217422
-0.000153246
-0.000279481
-0.000464699
-0.000583061
-0.000789595
-0.00077764
-0.000612711
-0.000498466
-0.000367392
-0.0002784
-0.000397885
-0.000566988
-0.000725961
-0.000880307
-0.00106298
-0.00126639
-0.00136015
-0.00150034
-0.00150069
-0.00124254
-0.00105076
-0.0011016
-0.00106063
-0.000741558
-0.000434425
-0.000563013
-0.000790391
-0.00107144
-0.00114989
-0.000980411
-0.000991852
-0.00105827
-0.000854069
-0.000470238
-0.000224156
-0.000338592
-0.000291638
-0.000217407
-0.000198452
-0.00011496
-7.83942e-05
-0.000186695
-0.00034302
-0.000472925
-0.00068593
-0.0006693
-0.000523887
-0.000397097
-0.000224224
-0.000146394
-0.00031314
-0.000543256
-0.000747185
-0.000920548
-0.00110181
-0.0013172
-0.00140929
-0.00151465
-0.00146328
-0.00116316
-0.000973068
-0.00110766
-0.00107366
-0.000685062
-0.000347338
-0.000517672
-0.000700801
-0.000948403
-0.0010028
-0.000836234
-0.000841341
-0.00088468
-0.000688386
-0.000295076
-1.33108e-05
-0.000106393
-8.45419e-05
-2.71323e-05
-2.74965e-05
2.54489e-05
4.25026e-05
-5.77779e-05
-0.000200325
-0.000330633
-0.000530567
-0.000488777
-0.000350353
-0.000209908
-8.83701e-06
5.11023e-05
-0.000157337
-0.000383937
-0.000615964
-0.000824343
-0.00101442
-0.00125085
-0.00135363
-0.00144307
-0.00137141
-0.00104665
-0.00085777
-0.00103661
-0.000991858
-0.000541557
-0.000194773
-0.000414253
-0.000590139
-0.000833777
-0.0008522
-0.00067833
-0.000681986
-0.000712661
-0.000527038
-0.000126723
0.00017927
8.99624e-05
0.000124255
0.000168381
0.000150614
0.000185639
0.000193221
0.000105427
-5.56656e-05
-0.000193834
-0.000350755
-0.000294744
-0.000163381
-2.38828e-05
0.000165455
0.000231552
3.83777e-05
-0.000199637
-0.000452818
-0.000666673
-0.000852365
-0.00109921
-0.00120196
-0.00130825
-0.00126059
-0.000922119
-0.000717435
-0.000911776
-0.000828317
-0.000332656
-2.49697e-05
-0.000288898
-0.000479135
-0.000723749
-0.000725491
-0.000547415
-0.00054298
-0.000577565
-0.000405998
-1.43011e-05
0.000297825
0.000215839
0.000258438
0.000312168
0.000281786