/*--------------------------------*- C++ -*----------------------------------*\
  =========                 |
  \\      /  F ield         | OpenFOAM: The Open Source CFD Toolbox
   \\    /   O peration     | Website:  https://openfoam.org
    \\  /    A nd           | Version:  10
     \\/     M anipulation  |
\*---------------------------------------------------------------------------*/
FoamFile
{
    format      ascii;
    class       volScalarField;
    location    "19";
    object      pPrime2Mean;
}
// * * * * * * * * * * * * * * * * * * * * * * * * * * * * * * * * * * * * * //

dimensions      [0 4 -4 0 0 0 0];

internalField   nonuniform List<scalar> 
25600
(
1.30459e-09
8.42508e-10
8.45124e-10
8.15434e-10
6.6217e-10
6.43984e-10
6.40173e-10
6.86792e-10
7.65531e-10
8.61018e-10
9.51225e-10
1.01608e-09
1.04998e-09
1.06694e-09
1.09289e-09
1.15008e-09
1.24012e-09
1.34358e-09
1.42886e-09
1.46818e-09
1.44788e-09
1.36945e-09
1.24706e-09
1.10112e-09
9.53966e-10
8.26101e-10
7.31734e-10
6.76667e-10
6.58257e-10
6.6654e-10
6.87534e-10
7.06096e-10
7.11911e-10
7.02693e-10
6.96e-10
6.57184e-10
7.01878e-10
5.64732e-10
4.32489e-10
9.96328e-10
1.35666e-09
1.03045e-09
1.09371e-09
1.07935e-09
8.99596e-10
8.71397e-10
8.70491e-10
9.36982e-10
1.0453e-09
1.16438e-09
1.25199e-09
1.27109e-09
1.21852e-09
1.13075e-09
1.06809e-09
1.07859e-09
1.16482e-09
1.28853e-09
1.39182e-09
1.43368e-09
1.40531e-09
1.32104e-09
1.20557e-09
1.0787e-09
9.56049e-10
8.50421e-10
7.6704e-10
7.06281e-10
6.64871e-10
6.39508e-10
6.2859e-10
6.26983e-10
6.2933e-10
6.33139e-10
6.51406e-10
6.48601e-10
7.2309e-10
6.44666e-10
5.91949e-10
1.12979e-09
1.4978e-09
1.24529e-09
1.36357e-09
1.35123e-09
1.13545e-09
1.09701e-09
1.11279e-09
1.2302e-09
1.41389e-09
1.60532e-09
1.72527e-09
1.70006e-09
1.52662e-09
1.27794e-09
1.07517e-09
1.01298e-09
1.09674e-09
1.25611e-09
1.38737e-09
1.42954e-09
1.38501e-09
1.28895e-09
1.18295e-09
1.08547e-09
1.00494e-09
9.47726e-10
9.05737e-10
8.67055e-10
8.19831e-10
7.64985e-10
7.19017e-10
6.90063e-10
6.77758e-10
6.78126e-10
6.98541e-10
7.04631e-10
7.79751e-10
7.33515e-10
7.4171e-10
1.28666e-09
1.76521e-09
1.54346e-09
1.67365e-09
1.6224e-09
1.3449e-09
1.28872e-09
1.33028e-09
1.53101e-09
1.84711e-09
2.18149e-09
2.39529e-09
2.34284e-09
2.01269e-09
1.53042e-09
1.11775e-09
9.50073e-10
1.0354e-09
1.2519e-09
1.41849e-09
1.44789e-09
1.36798e-09
1.24784e-09
1.15532e-09
1.1026e-09
1.08777e-09
1.11251e-09
1.14763e-09
1.15989e-09
1.11666e-09
1.02135e-09
9.24232e-10
8.54771e-10
8.18594e-10
8.07149e-10
8.15339e-10
8.11921e-10
8.66191e-10
8.31146e-10
8.85064e-10
1.48538e-09
2.15786e-09
1.95234e-09
2.03759e-09
1.88505e-09
1.50845e-09
1.42432e-09
1.49634e-09
1.81215e-09
2.32823e-09
2.90127e-09
3.30387e-09
3.25989e-09
2.733e-09
1.92064e-09
1.20387e-09
8.89003e-10
9.85284e-10
1.29092e-09
1.49652e-09
1.48629e-09
1.33934e-09
1.17633e-09
1.10267e-09
1.11456e-09
1.19499e-09
1.34555e-09
1.50342e-09
1.60262e-09
1.56889e-09
1.40443e-09
1.22473e-09
1.0955e-09
1.02808e-09
1.00296e-09
9.90118e-10
9.66123e-10
9.87868e-10
9.4423e-10
1.03955e-09
1.74381e-09
2.70586e-09
2.50483e-09
2.46459e-09
2.13065e-09
1.61477e-09
1.49697e-09
1.59864e-09
2.0558e-09
2.84639e-09
3.78194e-09
4.51053e-09
4.53383e-09
3.76352e-09
2.49179e-09
1.34377e-09
8.30563e-10
9.5862e-10
1.40226e-09
1.6456e-09
1.54688e-09
1.28864e-09
1.0591e-09
1.01063e-09
1.1096e-09
1.31983e-09
1.65105e-09
1.99201e-09
2.22637e-09
2.20541e-09
1.92004e-09
1.60828e-09
1.39383e-09
1.29115e-09
1.25819e-09
1.21716e-09
1.16352e-09
1.15287e-09
1.08397e-09
1.21711e-09
2.08248e-09
3.45663e-09
3.24098e-09
2.96199e-09
2.35223e-09
1.66445e-09
1.51935e-09
1.64137e-09
2.25391e-09
3.39511e-09
4.84792e-09
6.09307e-09
6.273e-09
5.20292e-09
3.30144e-09
1.55289e-09
7.77777e-10
9.68507e-10
1.61764e-09
1.88734e-09
1.63642e-09
1.21214e-09
8.91673e-10
8.73631e-10
1.08054e-09
1.45893e-09
2.03912e-09
2.6385e-09
3.0735e-09
3.06831e-09
2.58119e-09
2.06783e-09
1.73921e-09
1.60093e-09
1.57479e-09
1.49482e-09
1.39633e-09
1.36894e-09
1.2623e-09
1.42296e-09
2.52305e-09
4.46327e-09
4.20711e-09
3.53745e-09
2.54799e-09
1.67373e-09
1.52519e-09
1.64462e-09
2.40724e-09
3.97057e-09
6.12863e-09
8.14527e-09
8.61118e-09
7.17218e-09
4.41898e-09
1.84675e-09
7.36976e-10
1.04449e-09
1.99862e-09
2.26899e-09
1.76334e-09
1.11566e-09
6.89421e-10
6.992e-10
1.02552e-09
1.61337e-09
2.52422e-09
3.47397e-09
4.19566e-09
4.21079e-09
3.40645e-09
2.59836e-09
2.12585e-09
1.95776e-09
1.96476e-09
1.82684e-09
1.65082e-09
1.64234e-09
1.4964e-09
1.65908e-09
3.08324e-09
5.77337e-09
5.45505e-09
4.20381e-09
2.72422e-09
1.67744e-09
1.56708e-09
1.64052e-09
2.52323e-09
4.57022e-09
7.65604e-09
1.07849e-08
1.17098e-08
9.81816e-09
5.92951e-09
2.23879e-09
7.17958e-10
1.22687e-09
2.62892e-09
2.84349e-09
1.94563e-09
1.02089e-09
4.94902e-10
5.12298e-10
9.48761e-10
1.78869e-09
3.12164e-09
4.53573e-09
5.65096e-09
5.69392e-09
4.42358e-09
3.19763e-09
2.55566e-09
2.36894e-09
2.44816e-09
2.225e-09
1.90687e-09
1.97511e-09
1.81354e-09
1.92594e-09
3.76515e-09
7.41923e-09
7.04192e-09
4.98326e-09
2.89638e-09
1.73206e-09
1.71049e-09
1.66342e-09
2.60541e-09
5.19283e-09
9.45956e-09
1.4139e-08
1.57561e-08
1.33174e-08
7.93719e-09
2.7471e-09
7.36889e-10
1.57995e-09
3.62966e-09
3.69466e-09
2.21204e-09
9.67396e-10
3.86318e-10
3.57917e-10
8.62449e-10
1.99796e-09
3.85006e-09
5.87189e-09
7.50164e-09
7.58317e-09
5.67706e-09
3.86753e-09
3.04034e-09
2.84948e-09
3.05338e-09
2.71469e-09
2.13988e-09
2.36352e-09
2.25356e-09
2.22097e-09
4.5507e-09
9.40952e-09
9.0295e-09
5.91241e-09
3.08787e-09
1.92085e-09
2.02612e-09
1.75779e-09
2.67571e-09
5.83847e-09
1.15337e-08
1.83478e-08
2.09598e-08
1.78836e-08
1.0565e-08
3.38784e-09
8.16905e-10
2.20032e-09
5.17047e-09
4.93421e-09
2.59708e-09
1.02035e-09
4.81076e-10
3.0418e-10
7.90951e-10
2.26319e-09
4.73287e-09
7.54648e-09
9.81002e-09
9.93839e-09
7.2345e-09
4.61532e-09
3.60355e-09
3.42068e-09
3.81438e-09
3.34115e-09
2.32267e-09
2.80056e-09
2.87334e-09
2.54245e-09
5.38603e-09
1.17241e-08
1.14847e-08
7.04879e-09
3.32674e-09
2.3601e-09
2.58376e-09
1.95138e-09
2.7356e-09
6.51072e-09
1.39072e-08
2.35531e-08
2.75477e-08
2.37802e-08
1.39575e-08
4.18045e-09
9.84671e-10
3.22594e-09
7.47872e-09
6.69614e-09
3.14419e-09
1.2774e-09
9.39402e-10
4.41571e-10
7.78106e-10
2.61575e-09
5.80274e-09
9.65088e-09
1.26348e-08
1.28091e-08
9.20231e-09
5.45773e-09
4.28181e-09
4.10561e-09
4.76274e-09
4.16835e-09
2.46637e-09
3.28868e-09
3.74861e-09
2.89968e-09
6.1803e-09
1.43066e-08
1.44773e-08
8.47848e-09
3.6435e-09
3.20792e-09
3.44811e-09
2.26472e-09
2.79049e-09
7.21971e-09
1.65365e-08
2.98708e-08
3.57601e-08
3.13277e-08
1.82742e-08
5.1542e-09
1.26124e-09
4.85159e-09
1.08409e-08
9.16664e-09
3.90203e-09
1.88915e-09
1.96011e-09
8.78614e-10
8.98093e-10
3.09368e-09
7.11939e-09
1.2309e-08
1.60259e-08
1.62316e-08
1.17395e-08
6.42721e-09
5.12387e-09
4.92071e-09
5.8966e-09
5.28054e-09
2.60719e-09
3.85851e-09
4.97798e-09
3.32988e-09
6.81281e-09
1.70553e-08
1.80819e-08
1.03235e-08
4.06586e-09
4.66917e-09
4.71312e-09
2.70166e-09
2.84238e-09
7.99341e-09
1.93908e-08
3.7353e-08
4.5851e-08
4.09743e-08
2.36919e-08
6.35901e-09
1.6426e-09
7.34475e-09
1.56142e-08
1.2571e-08
4.9311e-09
3.07589e-09
3.75554e-09
1.73029e-09
1.2722e-09
3.7341e-09
8.81166e-09
1.56713e-08
1.99871e-08
2.02153e-08
1.50688e-08
7.58675e-09
6.19149e-09
5.86766e-09
7.27189e-09
6.77061e-09
2.81768e-09
4.60456e-09
6.74535e-09
3.92725e-09
7.15424e-09
1.97851e-08
2.23997e-08
1.27243e-08
4.62307e-09
7.01657e-09
6.53052e-09
3.30289e-09
2.90118e-09
8.88696e-09
2.24433e-08
4.59332e-08
5.80611e-08
5.32362e-08
3.04056e-08
7.88106e-09
2.14794e-09
1.10553e-08
2.22352e-08
1.725e-08
6.29823e-09
5.13531e-09
6.54796e-09
3.1062e-09
2.09509e-09
4.5594e-09
1.11111e-08
1.99167e-08
2.45077e-08
2.48151e-08
1.94684e-08
9.05531e-09
7.55478e-09
6.91319e-09
8.85065e-09
8.74277e-09
3.26828e-09
5.73905e-09
9.31508e-09
4.88224e-09
7.10705e-09
2.23071e-08
2.75583e-08
1.58843e-08
5.31903e-09
1.06154e-08
9.22438e-09
4.08734e-09
3.00185e-09
1.00196e-08
2.57163e-08
5.53683e-08
7.26911e-08
6.88187e-08
3.85746e-08
9.85119e-09
2.7662e-09
1.64217e-08
3.11726e-08
2.36026e-08
8.09385e-09
8.46244e-09
1.05442e-08
5.1087e-09
3.67514e-09
5.56038e-09
1.4434e-08
2.52438e-08
2.95324e-08
3.00839e-08
2.53138e-08
1.10711e-08
9.29965e-09
7.98731e-09
1.06183e-08
1.1295e-08
4.22134e-09
7.6544e-09
1.30361e-08
6.55802e-09
6.62524e-09
2.42627e-08
3.37356e-08
2.00552e-08
6.27755e-09
1.58949e-08
1.34647e-08
5.13802e-09
3.24094e-09
1.16119e-08
2.93675e-08
6.5038e-08
9.01811e-08
8.86319e-08
4.8388e-08
1.24545e-08
3.56109e-09
2.39512e-08
4.27788e-08
3.23016e-08
1.05027e-08
1.3502e-08
1.59375e-08
7.85729e-09
6.50757e-09
6.68446e-09
1.93874e-08
3.17931e-08
3.49167e-08
3.59823e-08
3.31044e-08
1.41076e-08
1.15308e-08
9.03809e-09
1.25724e-08
1.4523e-08
6.10104e-09
1.09365e-08
1.85305e-08
9.61493e-09
5.87204e-09
2.52721e-08
4.11768e-08
2.54547e-08
7.63384e-09
2.33836e-08
2.05214e-08
6.62056e-09
3.86947e-09
1.40657e-08
3.38855e-08
7.44444e-08
1.11103e-07
1.13829e-07
6.00831e-08
1.60785e-08
4.80932e-09
3.42428e-08
5.72816e-08
4.40128e-08
1.39016e-08
2.0804e-08
2.29333e-08
1.14429e-08
1.1379e-08
7.8494e-09
2.69416e-08
3.99944e-08
4.01661e-08
4.25397e-08
4.34852e-08
1.91557e-08
1.43618e-08
1.00118e-08
1.47666e-08
1.84005e-08
9.58366e-09
1.6341e-08
2.68993e-08
1.50576e-08
5.17431e-09
2.51064e-08
5.00351e-08
3.29798e-08
9.68846e-09
3.39142e-08
3.28412e-08
8.84551e-09
5.46544e-09
1.79862e-08
3.998e-08
8.25198e-08
1.35975e-07
1.45912e-07
7.40361e-08
2.14767e-08
7.26948e-09
4.81219e-08
7.44394e-08
5.96611e-08
1.90308e-08
3.09512e-08
3.18187e-08
1.61253e-08
1.96003e-08
9.03349e-09
3.85605e-08
5.03674e-08
4.51727e-08
4.99186e-08
5.72885e-08
2.80596e-08
1.78885e-08
1.1369e-08
1.73568e-08
2.2696e-08
1.58278e-08
2.47561e-08
4.0104e-08
2.45476e-08
5.10831e-09
2.39684e-08
5.96374e-08
4.36147e-08
1.30272e-08
4.89742e-08
5.49529e-08
1.2478e-08
9.20738e-09
2.42353e-08
4.89791e-08
8.84704e-08
1.65957e-07
1.86555e-07
9.09043e-08
2.99171e-08
1.21937e-08
6.66502e-08
9.46867e-08
8.03181e-08
2.72827e-08
4.48127e-08
4.30712e-08
2.24391e-08
3.29409e-08
1.04862e-08
5.62398e-08
6.39617e-08
4.93167e-08
5.83868e-08
7.5866e-08
4.43079e-08
2.21196e-08
1.36715e-08
2.05409e-08
2.68238e-08
2.69642e-08
3.70932e-08
6.12867e-08
4.05765e-08
6.70403e-09
2.34753e-08
6.9848e-08
5.92323e-08
1.85739e-08
7.11868e-08
9.39508e-08
1.88266e-08
1.70563e-08
3.36065e-08
6.30564e-08
9.25426e-08
2.0387e-07
2.3856e-07
1.12147e-07
4.41215e-08
2.14948e-08
9.05944e-08
1.17198e-07
1.0834e-07
4.1381e-08
6.35636e-08
5.72022e-08
3.11087e-08
5.45409e-08
1.34695e-08
8.37241e-08
8.29193e-08
5.1848e-08
6.75993e-08
1.00621e-07
7.43957e-08
2.71665e-08
1.78401e-08
2.48321e-08
3.069e-08
4.66784e-08
5.41124e-08
9.41412e-08
6.70129e-08
1.16333e-08
2.6256e-08
8.11071e-08
8.05221e-08
2.73966e-08
1.04632e-07
1.62032e-07
2.88528e-08
3.20966e-08
4.64054e-08
8.31625e-08
9.45502e-08
2.56095e-07
2.99942e-07
1.34469e-07
6.8196e-08
3.63289e-08
1.19999e-07
1.43962e-07
1.41967e-07
6.37024e-08
8.70668e-08
7.37041e-08
4.18181e-08
8.87393e-08
1.96622e-08
1.27937e-07
1.07655e-07
5.20198e-08
7.75267e-08
1.31641e-07
1.24749e-07
3.42125e-08
2.55401e-08
2.98542e-08
3.56169e-08
7.90371e-08
7.77487e-08
1.39669e-07
1.08535e-07
2.06218e-08
3.57574e-08
9.01455e-08
1.08673e-07
4.24357e-08
1.5164e-07
2.659e-07
4.53475e-08
5.64522e-08
5.99036e-08
1.19145e-07
9.54336e-08
3.2626e-07
3.70312e-07
1.69571e-07
1.02961e-07
6.07234e-08
1.59646e-07
1.7575e-07
1.82071e-07
9.88734e-08
1.16373e-07
9.26337e-08
5.5216e-08
1.41626e-07
3.38175e-08
1.93305e-07
1.44561e-07
4.8754e-08
8.31499e-08
1.6765e-07
2.12296e-07
4.4149e-08
3.94266e-08
3.55992e-08
4.1725e-08
1.33899e-07
1.10789e-07
2.04298e-07
1.63249e-07
3.51518e-08
5.80657e-08
8.83485e-08
1.43706e-07
5.49911e-08
2.20898e-07
4.23975e-07
7.06977e-08
1.04244e-07
7.61882e-08
1.82674e-07
9.68058e-08
4.02154e-07
4.37618e-07
1.88906e-07
1.56732e-07
9.36576e-08
1.93411e-07
2.22341e-07
2.24517e-07
1.41222e-07
1.4643e-07
1.21062e-07
7.99493e-08
2.15368e-07
5.81897e-08
2.75712e-07
1.94416e-07
4.82559e-08
8.80725e-08
2.06995e-07
3.28918e-07
5.89447e-08
6.48117e-08
4.37239e-08
5.89634e-08
1.89828e-07
1.51585e-07
2.63369e-07
2.30863e-07
5.09455e-08
9.91572e-08
8.02314e-08
1.83699e-07
8.05921e-08
2.75912e-07
5.95223e-07
1.08421e-07
1.7281e-07
9.54882e-08
2.60449e-07
9.44803e-08
4.36526e-07
5.24137e-07
2.3667e-07
2.30308e-07
1.45294e-07
2.35105e-07
2.69171e-07
2.86957e-07
1.89509e-07
1.81503e-07
1.59661e-07
1.1579e-07
2.88289e-07
8.56885e-08
3.65435e-07
2.19373e-07
6.50363e-08
9.13879e-08
3.01533e-07
5.16276e-07
5.25602e-08
1.14566e-07
5.62199e-08
6.7693e-08
2.64205e-07
2.14077e-07
3.22028e-07
2.57524e-07
6.31362e-08
1.49041e-07
7.80493e-08
2.20705e-07
9.71053e-08
3.10462e-07
7.15431e-07
1.23203e-07
2.6138e-07
1.03555e-07
3.26893e-07
8.91609e-08
4.58169e-07
6.30574e-07
2.85468e-07
3.1256e-07
2.10344e-07
2.8053e-07
3.10469e-07
3.82264e-07
2.23685e-07
2.25856e-07
1.99908e-07
1.65433e-07
3.42191e-07
1.1356e-07
4.2004e-07
2.61117e-07
8.50093e-08
9.99786e-08
3.67842e-07
7.28839e-07
3.76077e-08
1.8565e-07
8.28707e-08
8.57708e-08
3.38336e-07
2.79568e-07
3.73195e-07
2.59409e-07
8.41805e-08
1.9525e-07
1.01162e-07
2.29676e-07
1.04716e-07
3.27153e-07
7.60137e-07
1.10441e-07
3.05135e-07
9.79453e-08
3.74532e-07
8.79427e-08
4.4879e-07
7.38998e-07
3.19708e-07
3.62028e-07
2.6132e-07
3.28508e-07
3.31913e-07
4.82361e-07
2.42289e-07
2.67226e-07
1.92257e-07
2.44877e-07
3.30936e-07
9.3331e-08
4.52633e-07
2.68874e-07
9.93356e-08
9.35479e-08
4.13764e-07
9.61003e-07
3.04943e-08
2.30209e-07
1.22299e-07
8.11207e-08
3.80433e-07
3.06839e-07
3.8266e-07
2.80522e-07
1.00429e-07
2.18355e-07
1.08455e-07
2.25152e-07
1.12118e-07
3.24462e-07
7.8621e-07
9.77061e-08
3.34125e-07
9.85699e-08
3.85086e-07
8.20026e-08
4.05557e-07
7.40921e-07
3.88724e-07
4.09238e-07
2.97795e-07
3.53544e-07
3.37995e-07
5.37796e-07
2.43258e-07
2.84339e-07
1.96585e-07
3.04502e-07
3.25778e-07
7.84556e-08
5.03231e-07
2.689e-07
1.06033e-07
9.80884e-08
4.7824e-07
1.09784e-06
2.35949e-08
2.64926e-07
1.34903e-07
7.19001e-08
3.73101e-07
2.97486e-07
3.63805e-07
2.74408e-07
1.11411e-07
2.27986e-07
1.2924e-07
2.35919e-07
9.77451e-08
3.14667e-07
7.93657e-07
7.548e-08
3.61445e-07
9.66074e-08
3.66444e-07
8.23172e-08
3.9915e-07
7.38521e-07
3.94419e-07
4.15331e-07
3.16183e-07
3.70094e-07
3.19035e-07
5.28946e-07
2.32678e-07
2.68489e-07
2.33086e-07
3.30871e-07
2.87625e-07
7.20799e-08
5.4388e-07
2.73628e-07
1.04373e-07
1.03349e-07
4.77475e-07
1.13957e-06
2.22492e-08
2.91979e-07
1.31383e-07
6.08428e-08
3.49929e-07
2.8852e-07
3.54438e-07
2.5825e-07
1.08127e-07
2.33538e-07
1.47395e-07
2.49569e-07
9.02751e-08
2.99694e-07
7.74083e-07
6.43148e-08
3.67331e-07
9.1304e-08
3.39405e-07
7.79147e-08
4.06955e-07
7.6201e-07
3.99416e-07
3.998e-07
3.23478e-07
3.73326e-07
3.0821e-07
5.18553e-07
2.24726e-07
2.42013e-07
2.73706e-07
3.28625e-07
2.82059e-07
6.84446e-08
5.87266e-07
2.5408e-07
1.02274e-07
1.0819e-07
4.66568e-07
1.14647e-06
2.42636e-08
3.08032e-07
1.14483e-07
5.88016e-08
3.27529e-07
2.7814e-07
3.48936e-07
2.53198e-07
1.04051e-07
2.36902e-07
1.50021e-07
2.59067e-07
8.35154e-08
3.01854e-07
7.53475e-07
6.10656e-08
3.5806e-07
8.81642e-08
3.21686e-07
7.49385e-08
4.14842e-07
7.67247e-07
3.91443e-07
3.805e-07
3.20215e-07
3.64937e-07
3.10213e-07
5.18818e-07
2.18966e-07
2.32892e-07
2.8883e-07
3.14361e-07
2.77288e-07
6.52727e-08
6.04196e-07
2.38331e-07
1.00552e-07
1.10411e-07
4.61076e-07
1.11444e-06
2.78705e-08
3.06284e-07
1.02606e-07
5.59511e-08
3.08814e-07
2.7205e-07
3.452e-07
2.50822e-07
1.02312e-07
2.39609e-07
1.49245e-07
2.64387e-07
8.12114e-08
3.04182e-07
7.41412e-07
6.08214e-08
3.5074e-07
8.65862e-08
3.13182e-07
7.47964e-08
4.17693e-07
7.66827e-07
3.8698e-07
3.71399e-07
3.17634e-07
3.59023e-07
3.13372e-07
5.20176e-07
2.15914e-07
2.33054e-07
2.93273e-07
3.05094e-07
2.74879e-07
6.41265e-08
6.09636e-07
2.29314e-07
1.00872e-07
1.12515e-07
4.56661e-07
1.09366e-06
3.05783e-08
3.0324e-07
9.81332e-08
5.44719e-08
3.0318e-07
2.6988e-07
3.42763e-07
2.50125e-07
1.00565e-07
1.34181e-09
8.42948e-10
8.23825e-10
7.98774e-10
6.47441e-10
6.32164e-10
6.31746e-10
6.81892e-10
7.63466e-10
8.60241e-10
9.49134e-10
1.00976e-09
1.03781e-09
1.04943e-09
1.07232e-09
1.12777e-09
1.21467e-09
1.31112e-09
1.38545e-09
1.41262e-09
1.38308e-09
1.30189e-09
1.18484e-09
1.05133e-09
9.20412e-10
8.08084e-10
7.24406e-10
6.72909e-10
6.51434e-10
6.52528e-10
6.65512e-10
6.78196e-10
6.82001e-10
6.74621e-10
6.72226e-10
6.38311e-10
6.85013e-10
5.49941e-10
4.01621e-10
9.75292e-10
1.37772e-09
1.02352e-09
1.06747e-09
1.05909e-09
8.80785e-10
8.55859e-10
8.59544e-10
9.32097e-10
1.04726e-09
1.17168e-09
1.2597e-09
1.27234e-09
1.20841e-09
1.10923e-09
1.03967e-09
1.04755e-09
1.13166e-09
1.24966e-09
1.3429e-09
1.37311e-09
1.33539e-09
1.24751e-09
1.13589e-09
1.02026e-09
9.14592e-10
8.28258e-10
7.61956e-10
7.12143e-10
6.74397e-10
6.47018e-10
6.31475e-10
6.25727e-10
6.26236e-10
6.3029e-10
6.49591e-10
6.46882e-10
7.16317e-10
6.38331e-10
5.82401e-10
1.10825e-09
1.50838e-09
1.23099e-09
1.32839e-09
1.3234e-09
1.11011e-09
1.07699e-09
1.10048e-09
1.22953e-09
1.42837e-09
1.63402e-09
1.75892e-09
1.72382e-09
1.52811e-09
1.25558e-09
1.03813e-09
9.72313e-10
1.05559e-09
1.21013e-09
1.3305e-09
1.35956e-09
1.30408e-09
1.20286e-09
1.09903e-09
1.01194e-09
9.50868e-10
9.20411e-10
9.06742e-10
8.90107e-10
8.54447e-10
8.01582e-10
7.52425e-10
7.19779e-10
7.05727e-10
7.05503e-10
7.23712e-10
7.24056e-10
7.85749e-10
7.35811e-10
7.43262e-10
1.26857e-09
1.77428e-09
1.51972e-09
1.62216e-09
1.58034e-09
1.30911e-09
1.26225e-09
1.31672e-09
1.53883e-09
1.88566e-09
2.25219e-09
2.48143e-09
2.41434e-09
2.04183e-09
1.51204e-09
1.07101e-09
8.98153e-10
9.86448e-10
1.19875e-09
1.35135e-09
1.36417e-09
1.27077e-09
1.14394e-09
1.05132e-09
1.00694e-09
1.01492e-09
1.07908e-09
1.16237e-09
1.21486e-09
1.19323e-09
1.10114e-09
9.97725e-10
9.21832e-10
8.83165e-10
8.70894e-10
8.74239e-10
8.58443e-10
8.88878e-10
8.421e-10
8.94704e-10
1.47182e-09
2.16443e-09
1.91151e-09
1.95745e-09
1.8197e-09
1.45777e-09
1.3892e-09
1.48112e-09
1.83344e-09
2.40693e-09
3.04498e-09
3.48391e-09
3.41963e-09
2.81544e-09
1.91275e-09
1.1435e-09
8.23643e-10
9.3069e-10
1.23219e-09
1.41729e-09
1.38441e-09
1.22143e-09
1.052e-09
9.75307e-10
9.89817e-10
1.09558e-09
1.30551e-09
1.54599e-09
1.71554e-09
1.71581e-09
1.54893e-09
1.3503e-09
1.20535e-09
1.13272e-09
1.10776e-09
1.08869e-09
1.04588e-09
1.03108e-09
9.66308e-10
1.05984e-09
1.73755e-09
2.70745e-09
2.4302e-09
2.33662e-09
2.03082e-09
1.54583e-09
1.45174e-09
1.58097e-09
2.09652e-09
2.98756e-09
4.04414e-09
4.84649e-09
4.84264e-09
3.9382e-09
2.50316e-09
1.26328e-09
7.49266e-10
9.04478e-10
1.34488e-09
1.55097e-09
1.42175e-09
1.14713e-09
9.17032e-10
8.62121e-10
9.50271e-10
1.18432e-09
1.60555e-09
2.08613e-09
2.44044e-09
2.46803e-09
2.15999e-09
1.79914e-09
1.5484e-09
1.43432e-09
1.40396e-09
1.35918e-09
1.28304e-09
1.22221e-09
1.11826e-09
1.25005e-09
2.08781e-09
3.44525e-09
3.10458e-09
2.75835e-09
2.20563e-09
1.57719e-09
1.46438e-09
1.61972e-09
2.32081e-09
3.62937e-09
5.29341e-09
6.67363e-09
6.82131e-09
5.52638e-09
3.3413e-09
1.43799e-09
6.78007e-10
9.29193e-10
1.57491e-09
1.77944e-09
1.48091e-09
1.04668e-09
7.43972e-10
7.15964e-10
8.84423e-10
1.2757e-09
1.98799e-09
2.82155e-09
3.45695e-09
3.51666e-09
2.95916e-09
2.33603e-09
1.93301e-09
1.77178e-09
1.75329e-09
1.67806e-09
1.55982e-09
1.46964e-09
1.30978e-09
1.47352e-09
2.54738e-09
4.42463e-09
3.96706e-09
3.22082e-09
2.34328e-09
1.57476e-09
1.46398e-09
1.61588e-09
2.50685e-09
4.33938e-09
6.84732e-09
9.0952e-09
9.52288e-09
7.724e-09
4.49857e-09
1.6745e-09
6.17868e-10
1.05036e-09
1.99797e-09
2.14768e-09
1.5727e-09
9.31007e-10
5.63683e-10
5.5963e-10
7.9665e-10
1.36815e-09
2.46922e-09
3.80089e-09
4.85099e-09
4.94965e-09
3.98243e-09
2.95693e-09
2.34613e-09
2.13498e-09
2.15558e-09
2.03976e-09
1.85914e-09
1.77984e-09
1.55735e-09
1.73281e-09
3.1386e-09
5.68761e-09
5.05155e-09
3.7255e-09
2.45413e-09
1.5849e-09
1.50797e-09
1.59825e-09
2.66013e-09
5.12832e-09
8.76831e-09
1.22639e-08
1.3147e-08
1.07061e-08
6.06263e-09
1.9776e-09
5.81528e-10
1.33068e-09
2.72228e-09
2.71344e-09
1.70785e-09
8.2854e-10
4.4199e-10
4.38776e-10
7.00529e-10
1.46446e-09
3.06179e-09
5.08136e-09
6.725e-09
6.87444e-09
5.27567e-09
3.65894e-09
2.78049e-09
2.51676e-09
2.61399e-09
2.44371e-09
2.15536e-09
2.15547e-09
1.88393e-09
2.02668e-09
3.87238e-09
7.26801e-09
6.3937e-09
4.28179e-09
2.56179e-09
1.68236e-09
1.66885e-09
1.59975e-09
2.78443e-09
6.01362e-09
1.11199e-08
1.63518e-08
1.79199e-08
1.46832e-08
8.14163e-09
2.34659e-09
5.92968e-10
1.87625e-09
3.90758e-09
3.56263e-09
1.91004e-09
7.91558e-10
4.88564e-10
4.22357e-10
6.21473e-10
1.57363e-09
3.78023e-09
6.73014e-09
9.19408e-09
9.4157e-09
6.91518e-09
4.44633e-09
3.23996e-09
2.91626e-09
3.13449e-09
2.89992e-09
2.41821e-09
2.59413e-09
2.32093e-09
2.34838e-09
4.74137e-09
9.17938e-09
8.03075e-09
4.91178e-09
2.70293e-09
1.97756e-09
2.02721e-09
1.65512e-09
2.89191e-09
7.01736e-09
1.3955e-08
2.15432e-08
2.40832e-08
1.99072e-08
1.0869e-08
2.78642e-09
6.88409e-10
2.84563e-09
5.78282e-09
4.8062e-09
2.20709e-09
9.07616e-10
8.59264e-10
6.04234e-10
6.01762e-10
1.71164e-09
4.63941e-09
8.82442e-09
1.23786e-08
1.27023e-08
9.00631e-09
5.33279e-09
3.74327e-09
3.33687e-09
3.72088e-09
3.4321e-09
2.62252e-09
3.09084e-09
2.90937e-09
2.68441e-09
5.70822e-09
1.14167e-08
1.00021e-08
5.65453e-09
2.92441e-09
2.625e-09
2.66518e-09
1.78354e-09
2.98425e-09
8.16659e-09
1.73149e-08
2.80225e-08
3.18802e-08
2.66809e-08
1.4399e-08
3.29941e-09
9.15564e-10
4.47031e-09
8.66531e-09
6.60992e-09
2.63897e-09
1.31626e-09
1.76213e-09
1.09596e-09
7.09344e-10
1.9006e-09
5.66005e-09
1.14508e-08
1.63924e-08
1.68564e-08
1.17081e-08
6.34772e-09
4.32638e-09
3.78136e-09
4.35719e-09
4.08785e-09
2.76438e-09
3.64619e-09
3.70061e-09
3.01827e-09
6.70328e-09
1.39492e-08
1.23521e-08
6.56914e-09
3.2799e-09
3.8336e-09
3.6703e-09
1.98993e-09
3.06717e-09
9.50388e-09
2.11504e-08
3.59464e-08
4.15401e-08
3.5366e-08
1.89074e-08
3.89825e-09
1.32256e-09
7.07516e-09
1.29663e-08
9.19794e-09
3.25991e-09
2.22909e-09
3.43282e-09
2.01746e-09
1.0494e-09
2.16512e-09
6.88282e-09
1.46984e-08
2.13264e-08
2.19774e-08
1.52472e-08
7.54456e-09
5.04268e-09
4.2487e-09
5.03323e-09
4.93318e-09
2.86804e-09
4.28073e-09
4.75968e-09
3.3376e-09
7.62387e-09
1.67145e-08
1.51473e-08
7.73232e-09
3.82767e-09
5.86807e-09
5.13595e-09
2.28828e-09
3.15577e-09
1.10835e-08
2.5504e-08
4.53775e-08
5.32664e-08
4.63675e-08
2.45714e-08
4.61353e-09
1.98891e-09
1.10947e-08
1.91947e-08
1.28242e-08
4.14196e-09
3.95102e-09
6.10781e-09
3.48228e-09
1.77937e-09
2.52612e-09
8.39716e-09
1.86759e-08
2.72244e-08
2.81265e-08
1.99358e-08
9.01581e-09
5.96025e-09
4.73097e-09
5.70629e-09
6.0457e-09
3.00482e-09
5.05968e-09
6.17897e-09
3.65152e-09
8.35626e-09
1.9572e-08
1.84591e-08
9.238e-09
4.63157e-09
9.02906e-09
7.19992e-09
2.68413e-09
3.3055e-09
1.29472e-08
3.02874e-08
5.62792e-08
6.7244e-08
6.02356e-08
3.15431e-08
5.51256e-09
2.98719e-09
1.70628e-08
2.79442e-08
1.79104e-08
5.40472e-09
6.88293e-09
9.9853e-09
5.58303e-09
3.12169e-09
2.99212e-09
1.03784e-08
2.34291e-08
3.40581e-08
3.53461e-08
2.61834e-08
1.0919e-08
7.1623e-09
5.22019e-09
6.30863e-09
7.46555e-09
3.31414e-09
6.12072e-09
8.0986e-09
4.01888e-09
8.8058e-09
2.24016e-08
2.23851e-08
1.12085e-08
5.7724e-09
1.35931e-08
1.01045e-08
3.17488e-09
3.65392e-09
1.51749e-08
3.54795e-08
6.8582e-08
8.36537e-08
7.76681e-08
3.99002e-08
6.72669e-09
4.43406e-09
2.55789e-08
3.98228e-08
2.5066e-08
7.28853e-09
1.14782e-08
1.52036e-08
8.38157e-09
5.3735e-09
3.5698e-09
1.31474e-08
2.89529e-08
4.16858e-08
4.37034e-08
3.44789e-08
1.35141e-08
8.72983e-09
5.66731e-09
6.7951e-09
9.1651e-09
4.0087e-09
7.69578e-09
1.076e-08
4.57777e-09
8.9876e-09
2.48847e-08
2.71013e-08
1.37218e-08
7.38059e-09
1.98023e-08
1.4248e-08
3.83061e-09
4.48054e-09
1.78467e-08
4.11893e-08
8.18473e-08
1.0265e-07
9.9367e-08
4.96019e-08
8.49791e-09
6.54656e-09
3.72103e-08
5.5413e-08
3.51404e-08
1.01973e-08
1.82085e-08
2.18194e-08
1.1903e-08
8.90681e-09
4.27503e-09
1.72364e-08
3.51645e-08
4.98355e-08
5.32492e-08
4.53318e-08
1.73175e-08
1.07545e-08
6.07637e-09
7.243e-09
1.091e-08
5.40695e-09
1.0111e-08
1.46365e-08
5.5929e-09
9.11166e-09
2.68765e-08
3.29224e-08
1.70006e-08
9.67373e-09
2.78359e-08
2.02942e-08
4.83992e-09
6.39829e-09
2.11403e-08
4.7841e-08
9.55364e-08
1.24869e-07
1.2573e-07
6.04427e-08
1.12873e-08
9.74637e-09
5.25748e-08
7.57446e-08
4.92985e-08
1.49089e-08
2.74489e-08
2.9834e-08
1.63166e-08
1.41717e-08
5.22715e-09
2.3524e-08
4.19289e-08
5.81457e-08
6.41384e-08
5.93112e-08
2.33415e-08
1.33427e-08
6.60231e-09
8.02132e-09
1.26212e-08
8.02847e-09
1.37652e-08
2.06567e-08
7.47073e-09
9.64962e-09
2.84943e-08
4.05513e-08
2.12316e-08
1.30267e-08
3.7742e-08
2.92695e-08
6.68088e-09
1.05029e-08
2.54103e-08
5.64274e-08
1.09095e-07
1.51187e-07
1.5719e-07
7.22396e-08
1.58837e-08
1.47859e-08
7.21571e-08
1.01811e-07
6.90745e-08
2.28138e-08
3.9335e-08
3.92647e-08
2.18877e-08
2.16453e-08
6.6468e-09
3.33406e-08
4.90413e-08
6.66233e-08
7.6627e-08
7.71105e-08
3.34039e-08
1.67227e-08
7.81729e-09
1.0017e-08
1.4185e-08
1.27791e-08
1.91501e-08
3.05491e-08
1.0742e-08
1.15654e-08
2.99839e-08
5.15076e-08
2.67981e-08
1.8087e-08
4.97027e-08
4.26843e-08
1.01304e-08
1.87365e-08
3.12426e-08
6.86371e-08
1.22404e-07
1.82551e-07
1.93875e-07
8.49626e-08
2.36686e-08
2.28175e-08
9.69233e-08
1.35735e-07
9.60772e-08
3.63825e-08
5.36417e-08
5.02773e-08
2.91586e-08
3.25061e-08
9.2738e-09
4.85364e-08
5.64714e-08
7.54358e-08
9.11799e-08
9.94612e-08
5.03781e-08
2.12416e-08
1.07706e-08
1.47756e-08
1.56589e-08
2.12778e-08
2.67817e-08
4.73259e-08
1.59673e-08
1.69744e-08
3.23664e-08
6.62931e-08
3.43218e-08
2.55932e-08
6.39027e-08
6.20855e-08
1.67441e-08
3.38489e-08
3.95598e-08
8.70664e-08
1.35688e-07
2.19249e-07
2.35539e-07
9.83394e-08
3.67281e-08
3.53802e-08
1.27069e-07
1.8062e-07
1.30626e-07
5.88958e-08
6.99969e-08
6.39521e-08
3.93146e-08
4.74427e-08
1.38517e-08
7.09336e-08
6.37154e-08
8.50625e-08
1.07245e-07
1.27806e-07
7.90229e-08
2.7754e-08
1.7174e-08
2.47454e-08
1.70941e-08
3.56797e-08
3.70062e-08
7.55227e-08
2.30015e-08
2.9235e-08
3.7796e-08
8.68719e-08
4.41479e-08
3.59876e-08
8.04301e-08
8.6753e-08
2.97643e-08
5.89675e-08
4.86805e-08
1.15869e-07
1.506e-07
2.63428e-07
2.83104e-07
1.1652e-07
5.74722e-08
5.46522e-08
1.66039e-07
2.41337e-07
1.75492e-07
9.29928e-08
8.44979e-08
8.30698e-08
5.30762e-08
6.61348e-08
2.00923e-08
1.0231e-07
7.18146e-08
9.35608e-08
1.26303e-07
1.63911e-07
1.21823e-07
3.6972e-08
2.81027e-08
4.19211e-08
1.83163e-08
5.52941e-08
4.95196e-08
1.23163e-07
3.02837e-08
5.24574e-08
4.93642e-08
1.0856e-07
5.67487e-08
4.59113e-08
1.01494e-07
1.17736e-07
4.73311e-08
9.87575e-08
6.30347e-08
1.56848e-07
1.83316e-07
3.02727e-07
3.26653e-07
1.52201e-07
8.99559e-08
8.91384e-08
2.30017e-07
3.12009e-07
2.26647e-07
1.44574e-07
1.02225e-07
9.87089e-08
6.39574e-08
9.05539e-08
3.32543e-08
1.37275e-07
8.22958e-08
1.01255e-07
1.50603e-07
2.14887e-07
1.77248e-07
4.92464e-08
4.37833e-08
7.15327e-08
1.90579e-08
8.77485e-08
6.49495e-08
2.00871e-07
3.629e-08
9.44992e-08
6.79493e-08
1.134e-07
7.01402e-08
4.81496e-08
1.29775e-07
1.7689e-07
7.97417e-08
1.75067e-07
8.19438e-08
2.03505e-07
2.27858e-07
3.6359e-07
3.75494e-07
1.86236e-07
1.40006e-07
1.34529e-07
2.95136e-07
3.93621e-07
3.07676e-07
2.10189e-07
1.24528e-07
1.02442e-07
7.64592e-08
1.1509e-07
4.35843e-08
1.813e-07
9.41133e-08
1.04393e-07
1.71864e-07
2.76443e-07
2.87703e-07
6.17295e-08
6.55035e-08
1.40834e-07
2.06651e-08
1.33707e-07
8.23477e-08
3.08082e-07
4.19685e-08
1.56765e-07
9.41016e-08
1.06955e-07
9.20806e-08
5.11265e-08
1.67481e-07
2.35443e-07
1.16017e-07
2.62012e-07
9.60896e-08
2.45371e-07
2.72056e-07
4.07265e-07
4.30137e-07
2.01965e-07
1.85029e-07
1.77071e-07
3.43723e-07
4.96802e-07
3.9536e-07
3.11621e-07
1.53738e-07
8.06723e-08
8.68108e-08
1.54744e-07
5.75026e-08
2.51669e-07
1.1088e-07
1.0378e-07
1.79521e-07
3.11774e-07
4.39596e-07
6.73704e-08
9.07862e-08
2.01211e-07
2.33112e-08
2.16518e-07
8.67715e-08
4.15529e-07
4.82174e-08
2.18627e-07
1.20529e-07
9.62451e-08
1.24878e-07
5.37246e-08
2.05665e-07
2.84327e-07
1.40487e-07
3.19595e-07
1.33746e-07
2.90478e-07
2.98301e-07
3.91983e-07
4.70862e-07
2.39071e-07
2.15133e-07
2.05951e-07
3.48961e-07
6.08438e-07
5.41162e-07
3.92639e-07
1.99148e-07
5.93135e-08
1.01766e-07
1.78461e-07
6.80606e-08
3.27886e-07
1.24671e-07
1.20817e-07
1.82367e-07
3.37268e-07
6.2424e-07
7.03209e-08
1.30626e-07
2.90954e-07
2.84769e-08
3.48725e-07
9.38144e-08
5.23409e-07
5.558e-08
2.98585e-07
1.53118e-07
9.29794e-08
1.60997e-07
5.73903e-08
2.36987e-07
3.37062e-07
1.41356e-07
3.56158e-07
1.59807e-07
3.71099e-07
3.36593e-07
3.76944e-07
4.82776e-07
2.77851e-07
2.56266e-07
2.22873e-07
3.82666e-07
7.08796e-07
6.25857e-07
4.59948e-07
2.3623e-07
5.88278e-08
9.7445e-08
2.3487e-07
9.40652e-08
4.2225e-07
1.40982e-07
1.36556e-07
2.03478e-07
3.18828e-07
7.10156e-07
5.91798e-08
1.5008e-07
2.52134e-07
3.01752e-08
4.21685e-07
8.85557e-08
6.42329e-07
5.83833e-08
3.60974e-07
1.76915e-07
1.00559e-07
1.50602e-07
6.65402e-08
2.32374e-07
3.56157e-07
1.31077e-07
2.95183e-07
1.86628e-07
4.01193e-07
3.48632e-07
3.90174e-07
4.74178e-07
2.66733e-07
2.9282e-07
2.33481e-07
3.79632e-07
7.56963e-07
7.43743e-07
4.4582e-07
2.68379e-07
5.26291e-08
1.05603e-07
2.19877e-07
1.08921e-07
5.05839e-07
1.27752e-07
1.41702e-07
2.70157e-07
3.01179e-07
7.60244e-07
6.64972e-08
1.70887e-07
2.1576e-07
2.81982e-08
4.06005e-07
7.69635e-08
6.35079e-07
6.65369e-08
3.61871e-07
1.83543e-07
1.14058e-07
1.3859e-07
8.87691e-08
2.23481e-07
3.65316e-07
1.16011e-07
2.39464e-07
2.07539e-07
4.18835e-07
3.41358e-07
3.8352e-07
4.59746e-07
2.51038e-07
3.28108e-07
2.486e-07
3.92204e-07
7.56284e-07
8.46473e-07
3.87358e-07
2.84401e-07
6.90715e-08
1.00351e-07
2.34338e-07
1.33477e-07
5.97243e-07
1.28779e-07
1.53373e-07
3.09922e-07
2.78656e-07
7.05685e-07
6.58329e-08
1.72348e-07
2.12157e-07
2.60341e-08
4.34249e-07
7.72548e-08
5.8382e-07
6.13371e-08
3.47827e-07
1.87708e-07
1.24521e-07
1.28877e-07
1.10626e-07
2.04183e-07
3.65374e-07
9.90552e-08
2.17476e-07
1.96799e-07
4.18672e-07
3.25617e-07
4.03394e-07
4.85753e-07
2.16161e-07
3.46014e-07
2.62636e-07
4.06754e-07
7.03249e-07
9.02216e-07
3.4739e-07
2.79901e-07
8.49593e-08
9.18876e-08
2.47303e-07
1.54067e-07
6.20593e-07
1.30127e-07
1.75584e-07