/*--------------------------------*- C++ -*----------------------------------*\
  =========                 |
  \\      /  F ield         | OpenFOAM: The Open Source CFD Toolbox
   \\    /   O peration     | Website:  https://openfoam.org
    \\  /    A nd           | Version:  10
     \\/     M anipulation  |
\*---------------------------------------------------------------------------*/
FoamFile
{
    format      ascii;
    class       volVectorField;
    location    "19";
    object      UMean;
}
// * * * * * * * * * * * * * * * * * * * * * * * * * * * * * * * * * * * * * //

dimensions      [0 1 -1 0 0 0 0];

internalField   nonuniform List<vector> 
25600
(
(1.03276 1.53466e-05 1.83417e-05)
(1.03275 1.13595e-05 1.56769e-05)
(1.03278 1.21988e-05 1.23182e-05)
(1.03276 4.87585e-06 1.542e-05)
(1.03279 -1.60968e-07 4.83024e-06)
(1.03278 1.96946e-05 6.39975e-06)
(1.03278 1.00826e-06 5.70372e-06)
(1.03279 3.19889e-06 -4.11717e-06)
(1.0328 1.29725e-06 1.62376e-06)
(1.03279 3.91771e-06 1.27207e-07)
(1.03279 5.41812e-06 -6.27041e-07)
(1.03279 -1.11215e-05 -5.42225e-06)
(1.03279 1.19319e-05 1.14353e-05)
(1.03279 -5.2738e-06 -3.8787e-08)
(1.03276 -2.74038e-06 -6.77077e-06)
(1.03279 9.53536e-07 1.60668e-05)
(1.03275 -1.25398e-05 -1.89438e-06)
(1.03275 4.61663e-06 3.8875e-06)
(1.03277 -5.47667e-06 1.02308e-05)
(1.03274 -1.14595e-05 -1.04176e-06)
(1.03274 -8.08643e-06 1.42954e-05)
(1.03274 -1.19831e-05 1.18161e-05)
(1.03274 -1.60788e-05 8.9062e-13)
(1.03272 -1.71156e-05 1.57383e-05)
(1.03273 -3.06999e-05 1.02641e-05)
(1.03274 -1.06399e-05 6.06898e-06)
(1.03269 -2.46475e-05 7.65905e-06)
(1.03274 -1.99144e-05 8.88293e-06)
(1.03272 -2.48851e-06 6.41814e-06)
(1.0327 -2.33791e-05 3.67764e-06)
(1.03275 -1.58136e-06 6.478e-06)
(1.03271 -4.10043e-06 8.39068e-06)
(1.03272 3.40675e-06 6.60887e-06)
(1.03273 1.05915e-05 -4.15341e-08)
(1.03272 1.12559e-05 1.46863e-05)
(1.03273 2.36965e-05 8.33386e-06)
(1.03273 1.49897e-05 5.93714e-06)
(1.03276 1.92108e-05 2.06478e-05)
(1.03273 1.93455e-05 1.23502e-05)
(1.03276 1.03343e-05 1.69943e-05)
(1.03276 4.31761e-06 1.99777e-05)
(1.03275 2.14097e-05 1.94402e-05)
(1.03278 5.90563e-06 1.32853e-05)
(1.03276 1.15856e-05 1.33767e-05)
(1.03279 1.21587e-05 4.80525e-06)
(1.03278 2.10009e-05 7.19764e-06)
(1.03277 1.13904e-05 1.00125e-06)
(1.03279 1.19546e-05 -5.16935e-06)
(1.03279 1.39977e-05 2.63461e-06)
(1.03279 3.11337e-06 -2.38084e-06)
(1.03279 2.14703e-05 5.77606e-07)
(1.03279 -1.14768e-05 -4.59956e-06)
(1.03279 2.1627e-05 1.26548e-05)
(1.03278 1.98902e-06 2.21572e-06)
(1.03277 -1.14373e-06 -3.97083e-06)
(1.03278 2.04136e-05 1.89638e-05)
(1.03275 -1.51677e-05 -1.31586e-07)
(1.03275 2.32815e-05 4.85581e-06)
(1.03276 7.11297e-07 1.74316e-05)
(1.03274 -2.67362e-06 9.29386e-07)
(1.03274 -6.9253e-07 2.14217e-05)
(1.03273 -5.81882e-06 1.35563e-05)
(1.03273 -7.35652e-06 5.86899e-06)
(1.03271 -2.05082e-05 2.05693e-05)
(1.03273 -2.07978e-05 1.28443e-05)
(1.03274 -1.7333e-05 1.0644e-05)
(1.03269 -2.01623e-05 8.41763e-06)
(1.03275 -1.5068e-05 1.43315e-05)
(1.03272 -1.11913e-05 8.57781e-06)
(1.0327 -2.06994e-05 6.67711e-06)
(1.03275 2.61927e-06 1.11608e-05)
(1.03271 -6.71428e-06 1.21572e-05)
(1.03273 -1.8329e-06 1.06205e-05)
(1.03273 1.71307e-05 3.55102e-06)
(1.03272 9.04462e-06 1.771e-05)
(1.03273 1.63297e-05 1.18418e-05)
(1.03272 2.69344e-05 1.12757e-05)
(1.03275 1.21244e-05 2.36966e-05)
(1.03273 1.74414e-05 1.73107e-05)
(1.03275 1.52351e-05 1.9649e-05)
(1.03276 2.58493e-06 3.03122e-05)
(1.03275 2.53457e-05 2.4579e-05)
(1.03277 3.91736e-06 1.85369e-05)
(1.03276 2.37489e-05 1.82266e-05)
(1.03279 2.45311e-05 7.76924e-06)
(1.03278 2.04857e-05 1.33046e-05)
(1.03276 2.27274e-05 -2.78259e-07)
(1.03279 1.84684e-05 -2.59889e-07)
(1.03279 2.00708e-05 7.92667e-06)
(1.03279 6.24828e-06 -3.13518e-06)
(1.03278 2.87921e-05 6.1208e-06)
(1.03279 -4.15239e-06 1.32694e-06)
(1.0328 3.45989e-05 1.15649e-05)
(1.03276 1.23156e-05 7.46113e-06)
(1.03277 7.57821e-06 3.61743e-06)
(1.03278 3.53424e-05 2.17601e-05)
(1.03275 -8.78787e-06 5.20053e-06)
(1.03276 2.69444e-05 1.03529e-05)
(1.03275 7.65823e-06 2.61921e-05)
(1.03273 -1.4421e-06 8.83228e-06)
(1.03274 1.6258e-06 3.17739e-05)
(1.03273 -6.0219e-07 1.87011e-05)
(1.03272 -6.29166e-06 1.82968e-05)
(1.03271 -2.38044e-05 2.98697e-05)
(1.03273 -1.85275e-05 1.84279e-05)
(1.03274 -2.2863e-05 2.04224e-05)
(1.03269 -2.01699e-05 1.54606e-05)
(1.03275 -1.76473e-05 2.11156e-05)
(1.03271 -2.44368e-05 1.49163e-05)
(1.03271 -2.365e-05 1.41629e-05)
(1.03276 2.6277e-06 1.89483e-05)
(1.0327 -1.72849e-05 1.7429e-05)
(1.03274 -2.35682e-06 1.81223e-05)
(1.03274 1.72659e-05 1.16786e-05)
(1.03272 7.89632e-06 2.31186e-05)
(1.03274 1.76743e-05 2.01118e-05)
(1.03272 3.07224e-05 2.02737e-05)
(1.03275 1.0644e-05 3.30548e-05)
(1.03273 1.75738e-05 2.499e-05)
(1.03275 1.29967e-05 2.4822e-05)
(1.03276 5.44415e-06 4.46886e-05)
(1.03275 2.445e-05 3.05706e-05)
(1.03277 5.2781e-06 2.79511e-05)
(1.03277 3.81431e-05 2.71051e-05)
(1.03279 3.48403e-05 1.18264e-05)
(1.03278 2.16232e-05 2.36e-05)
(1.03276 3.59928e-05 -7.18286e-07)
(1.03279 2.40002e-05 8.58522e-06)
(1.03278 2.57443e-05 1.22899e-05)
(1.03279 1.75505e-05 -2.32558e-06)
(1.03277 2.79956e-05 1.40964e-05)
(1.03279 1.56799e-05 9.97474e-06)
(1.0328 4.40667e-05 1.10805e-05)
(1.03275 2.17142e-05 1.82744e-05)
(1.03278 2.8215e-05 1.37952e-05)
(1.03277 4.53177e-05 2.611e-05)
(1.03275 3.68848e-06 1.56753e-05)
(1.03276 2.94313e-05 2.32037e-05)
(1.03274 1.41417e-05 3.87598e-05)
(1.03273 -4.65222e-06 2.51662e-05)
(1.03274 3.68004e-06 4.54833e-05)
(1.03272 1.22844e-06 3.0426e-05)
(1.03271 -1.33882e-05 3.6007e-05)
(1.0327 -2.92779e-05 4.38884e-05)
(1.03273 -2.67997e-05 2.67715e-05)
(1.03273 -2.56789e-05 3.59173e-05)
(1.03269 -3.222e-05 2.63068e-05)
(1.03274 -2.27726e-05 2.83682e-05)
(1.03271 -4.19516e-05 2.4747e-05)
(1.03272 -2.70459e-05 2.51418e-05)
(1.03276 -5.89782e-06 2.83826e-05)
(1.0327 -3.17447e-05 2.68552e-05)
(1.03275 5.05438e-06 2.79652e-05)
(1.03274 1.10215e-05 2.18149e-05)
(1.03272 1.56535e-05 2.95367e-05)
(1.03274 2.74325e-05 2.99111e-05)
(1.03272 2.96738e-05 3.07337e-05)
(1.03274 2.20083e-05 4.66593e-05)
(1.03273 1.42268e-05 3.24065e-05)
(1.03274 9.92036e-06 3.72238e-05)
(1.03277 9.99325e-06 6.22015e-05)
(1.03275 2.20333e-05 4.17238e-05)
(1.03278 8.41326e-06 4.55612e-05)
(1.03278 5.49985e-05 4.06654e-05)
(1.03278 4.15024e-05 2.33968e-05)
(1.03278 2.58551e-05 3.93781e-05)
(1.03276 4.71567e-05 4.90064e-06)
(1.03278 2.60807e-05 2.25523e-05)
(1.03278 2.98576e-05 1.8413e-05)
(1.03279 2.46082e-05 5.32579e-06)
(1.03277 1.87434e-05 2.82785e-05)
(1.03279 3.73973e-05 2.33648e-05)
(1.0328 3.4106e-05 2.03022e-05)
(1.03275 2.69229e-05 3.72407e-05)
(1.03279 4.68163e-05 2.92154e-05)
(1.03275 3.85391e-05 3.72562e-05)
(1.03274 1.49798e-05 3.26956e-05)
(1.03276 2.67812e-05 4.15229e-05)
(1.03272 9.41131e-06 5.8055e-05)
(1.03272 -1.3381e-05 4.78798e-05)
(1.03274 -7.53698e-07 6.42019e-05)
(1.03271 -7.25077e-06 4.93637e-05)
(1.0327 -3.27232e-05 5.98195e-05)
(1.03269 -4.60453e-05 6.08338e-05)
(1.03273 -4.77588e-05 4.07588e-05)
(1.03273 -3.69678e-05 5.57146e-05)
(1.03269 -6.17377e-05 3.95537e-05)
(1.03273 -3.58409e-05 3.91657e-05)
(1.03271 -6.83595e-05 4.00223e-05)
(1.03273 -3.67666e-05 3.86248e-05)
(1.03275 -3.10406e-05 4.267e-05)
(1.03271 -4.81344e-05 4.27555e-05)
(1.03277 7.56831e-06 4.30433e-05)
(1.03274 -2.98783e-06 3.66485e-05)
(1.03273 2.66178e-05 4.22396e-05)
(1.03274 3.66242e-05 4.30321e-05)
(1.03271 2.994e-05 4.87743e-05)
(1.03273 3.98557e-05 6.29549e-05)
(1.03272 6.61606e-06 4.7259e-05)
(1.03274 8.35794e-06 5.83832e-05)
(1.03276 1.99709e-05 8.10382e-05)
(1.03274 1.82037e-05 5.94517e-05)
(1.03279 1.76416e-05 6.75716e-05)
(1.03279 7.36396e-05 5.69007e-05)
(1.03276 4.59759e-05 4.01833e-05)
(1.03278 3.51701e-05 5.79289e-05)
(1.03276 5.44577e-05 1.70877e-05)
(1.03277 2.30261e-05 3.85872e-05)
(1.03277 3.06744e-05 2.61375e-05)
(1.03278 1.87974e-05 2.07406e-05)
(1.03278 1.02199e-05 4.57973e-05)
(1.03279 4.72705e-05 4.14439e-05)
(1.03279 1.08461e-05 3.87687e-05)
(1.03275 3.32339e-05 6.20421e-05)
(1.03278 5.44333e-05 4.81691e-05)
(1.03274 1.81594e-05 5.55451e-05)
(1.03273 2.38652e-05 5.25469e-05)
(1.03275 7.62126e-06 6.70623e-05)
(1.0327 -8.34696e-06 8.27268e-05)
(1.03271 -3.38409e-05 7.46241e-05)
(1.03274 -1.49446e-05 8.62163e-05)
(1.03269 -3.11125e-05 7.51055e-05)
(1.03268 -6.23508e-05 8.55181e-05)
(1.03268 -7.87116e-05 7.96912e-05)
(1.03272 -7.5831e-05 6.17266e-05)
(1.03272 -6.42272e-05 7.67668e-05)
(1.03268 -9.8977e-05 5.51772e-05)
(1.03273 -6.09727e-05 5.42155e-05)
(1.0327 -9.613e-05 5.82379e-05)
(1.03273 -5.88178e-05 5.50842e-05)
(1.03274 -6.45867e-05 6.21307e-05)
(1.03272 -6.13371e-05 6.33317e-05)
(1.03278 4.12292e-06 5.94139e-05)
(1.03274 -1.4226e-05 5.45592e-05)
(1.03274 4.68153e-05 5.49491e-05)
(1.03274 4.63605e-05 5.78994e-05)
(1.03271 4.43596e-05 6.8936e-05)
(1.03272 5.90889e-05 7.99699e-05)
(1.0327 7.10183e-07 6.89623e-05)
(1.03273 1.1308e-05 8.33053e-05)
(1.03276 2.02138e-05 0.000106382)
(1.03273 4.37766e-07 8.73784e-05)
(1.0328 2.55757e-05 9.7292e-05)
(1.03278 7.69745e-05 8.14628e-05)
(1.03274 4.05758e-05 6.55e-05)
(1.03277 3.72729e-05 8.35314e-05)
(1.03274 4.34966e-05 3.9938e-05)
(1.03275 7.5393e-06 5.6943e-05)
(1.03276 1.29776e-05 4.28466e-05)
(1.03277 -6.87555e-06 4.56143e-05)
(1.03278 -7.14722e-06 7.13967e-05)
(1.03278 2.45838e-05 7.12608e-05)
(1.03278 -2.57506e-05 7.05809e-05)
(1.03276 2.49985e-05 9.54898e-05)
(1.03277 3.28999e-05 7.61621e-05)
(1.03272 -2.10241e-05 8.15539e-05)
(1.03272 5.9209e-06 7.87477e-05)
(1.03273 -4.63987e-05 0.000102425)
(1.03268 -5.5622e-05 0.000117593)
(1.0327 -8.54098e-05 0.00010986)
(1.03273 -5.62468e-05 0.000117162)
(1.03267 -8.50355e-05 0.000109624)
(1.03265 -0.000119269 0.000113625)
(1.03267 -0.000141743 0.000104396)
(1.03272 -0.000128891 9.17489e-05)
(1.0327 -0.000123817 0.000101418)
(1.03268 -0.000157684 7.71672e-05)
(1.03272 -0.000112515 7.70667e-05)
(1.03269 -0.000137902 8.12576e-05)
(1.03273 -0.000109787 7.78677e-05)
(1.03273 -0.00011416 9.03591e-05)
(1.03273 -8.71781e-05 9.20247e-05)
(1.03278 -2.07714e-05 8.46118e-05)
(1.03275 -2.42129e-05 7.89245e-05)
(1.03275 6.5204e-05 7.31325e-05)
(1.03273 4.90433e-05 8.04862e-05)
(1.03271 6.85807e-05 9.53761e-05)
(1.03269 6.48348e-05 0.000104735)
(1.03267 -1.02217e-05 0.000102918)
(1.03273 9.25347e-06 0.000113689)
(1.03273 6.42124e-06 0.000137443)
(1.03272 -1.77018e-05 0.000121122)
(1.0328 2.74518e-05 0.000130209)
(1.03276 6.52332e-05 0.000109331)
(1.03271 2.55468e-05 9.28627e-05)
(1.03275 2.6482e-05 0.000113193)
(1.03271 8.24838e-06 6.6798e-05)
(1.03272 -2.08008e-05 7.27776e-05)
(1.03274 -3.5503e-05 6.35925e-05)
(1.03274 -4.45766e-05 7.40683e-05)
(1.03276 -5.18621e-05 0.000103108)
(1.03275 -3.0109e-05 0.000109672)
(1.03276 -8.41296e-05 0.000112137)
(1.03275 -7.64837e-06 0.000134806)
(1.03273 -2.53268e-05 0.000111093)
(1.03269 -7.96959e-05 0.000111624)
(1.03269 -5.53548e-05 0.000112188)
(1.03269 -0.000131638 0.000147097)
(1.03265 -0.000140339 0.000160224)
(1.03268 -0.000167425 0.000150998)
(1.0327 -0.00013244 0.000154266)
(1.03263 -0.000170731 0.000148587)
(1.03261 -0.000214627 0.000141425)
(1.03264 -0.000235264 0.00013436)
(1.0327 -0.000219494 0.000126938)
(1.03267 -0.000213141 0.000127508)
(1.03266 -0.000244104 0.000102464)
(1.03271 -0.000184657 0.000102871)
(1.03267 -0.0002012 0.000104905)
(1.03272 -0.000187909 0.000102519)
(1.03272 -0.000183384 0.000122651)
(1.03274 -0.000130952 0.000123371)
(1.03278 -6.26775e-05 0.000112467)
(1.03276 -2.18134e-05 0.000102152)
(1.03275 7.43785e-05 9.21777e-05)
(1.03271 6.01555e-05 0.000105739)
(1.03269 0.000101935 0.000123738)
(1.03265 6.28653e-05 0.0001346)
(1.03264 -2.01613e-05 0.000142618)
(1.03272 7.65208e-06 0.000143453)
(1.03268 -3.15041e-05 0.000177796)
(1.03268 -4.63625e-05 0.000160427)
(1.03277 -1.10727e-06 0.000167986)
(1.03271 2.22065e-05 0.000143447)
(1.03265 -1.83704e-05 0.000128029)
(1.03269 -2.64973e-05 0.000154614)
(1.03265 -6.55765e-05 0.000102036)
(1.03266 -9.18481e-05 9.32931e-05)
(1.03268 -0.000130816 9.49631e-05)
(1.03268 -0.000124975 0.000112336)
(1.03271 -0.000156448 0.000146956)
(1.03269 -0.000143105 0.000160225)
(1.03271 -0.000193422 0.00016729)
(1.03271 -0.000101511 0.000185789)
(1.03265 -0.000149295 0.000159136)
(1.03262 -0.000196653 0.000151962)
(1.03261 -0.000188498 0.000158326)
(1.0326 -0.00027502 0.000205928)
(1.03258 -0.000288293 0.000218033)
(1.03262 -0.00030856 0.000205138)
(1.03264 -0.000269164 0.000202831)
(1.03254 -0.000321245 0.000192937)
(1.03252 -0.000374374 0.000174741)
(1.03256 -0.000392686 0.000174583)
(1.03263 -0.00037635 0.000173672)
(1.03259 -0.000361569 0.000162239)
(1.0326 -0.000380159 0.000136669)
(1.03266 -0.00030366 0.000132585)
(1.03262 -0.000311922 0.000129995)
(1.03267 -0.000319584 0.000132352)
(1.03269 -0.000297323 0.000158596)
(1.03272 -0.000223064 0.00015955)
(1.03277 -0.000133405 0.000144146)
(1.03275 -3.55e-05 0.000127625)
(1.03273 5.41424e-05 0.000113461)
(1.03268 6.82405e-05 0.000133492)
(1.03265 0.000123305 0.000154454)
(1.03257 3.83967e-05 0.000171192)
(1.03258 -4.16881e-05 0.000186088)
(1.03268 -1.73165e-05 0.000175899)
(1.03253 -8.2824e-05 0.000216346)
(1.03254 -9.64738e-05 0.000192456)
(1.03263 -6.43401e-05 0.000199136)
(1.03256 -5.43123e-05 0.00017214)
(1.03248 -9.24092e-05 0.00016023)
(1.03252 -0.000124486 0.000198051)
(1.03246 -0.000174021 0.00013683)
(1.03247 -0.000211798 0.00011154)
(1.03249 -0.000264025 0.000130381)
(1.0325 -0.000259377 0.000156052)
(1.03252 -0.000317716 0.000197885)
(1.0325 -0.000321794 0.000220776)
(1.03253 -0.000355214 0.00023565)
(1.03252 -0.000258766 0.000248843)
(1.03243 -0.000332021 0.000217566)
(1.03241 -0.000380462 0.000201813)
(1.03238 -0.000390705 0.000217852)
(1.03237 -0.000479727 0.00028164)
(1.03236 -0.000500684 0.000288746)
(1.03241 -0.000519308 0.000270773)
(1.03242 -0.000476495 0.000259538)
(1.03228 -0.000545305 0.000240746)
(1.03227 -0.000601925 0.000210408)
(1.03231 -0.000628921 0.000223304)
(1.03238 -0.000602718 0.000225907)
(1.03235 -0.000567828 0.00019594)
(1.03239 -0.000563759 0.000169002)
(1.03247 -0.000475716 0.000158692)
(1.03242 -0.00047143 0.000150905)
(1.03248 -0.000508072 0.000158892)
(1.03253 -0.000463475 0.000189031)
(1.03258 -0.000362408 0.000187783)
(1.03265 -0.000228306 0.000170368)
(1.03264 -7.52456e-05 0.000147059)
(1.03261 1.40454e-05 0.000125632)
(1.03256 7.59714e-05 0.000152575)
(1.0325 0.000136429 0.000174929)
(1.03239 -5.82441e-07 0.000203559)
(1.03243 -6.96051e-05 0.000221266)
(1.03254 -7.24415e-05 0.000204475)
(1.03211 -0.000164371 0.000238495)
(1.03212 -0.000201114 0.000206115)
(1.03222 -0.000189726 0.00021494)
(1.03212 -0.000189868 0.00019571)
(1.03203 -0.000233198 0.000187288)
(1.03205 -0.00030017 0.000241162)
(1.03198 -0.000358741 0.000166772)
(1.03199 -0.000416396 0.000128424)
(1.03202 -0.000480605 0.000169153)
(1.03203 -0.000488022 0.000203555)
(1.03203 -0.000577105 0.000251494)
(1.03201 -0.000603032 0.000288337)
(1.03205 -0.000612742 0.000314356)
(1.03202 -0.000513861 0.000321386)
(1.03189 -0.000603774 0.000279453)
(1.03187 -0.000660093 0.000251444)
(1.03184 -0.00068258 0.000280782)
(1.03183 -0.000771961 0.000360793)
(1.03183 -0.000811979 0.000361406)
(1.03189 -0.000833827 0.00033641)
(1.03188 -0.000788937 0.000309135)
(1.03172 -0.000874505 0.000280934)
(1.0317 -0.000928662 0.000236211)
(1.03173 -0.000973166 0.000266946)
(1.03179 -0.000922449 0.000270515)
(1.03175 -0.000858806 0.000220058)
(1.03181 -0.000834276 0.000189605)
(1.03191 -0.000736295 0.000171116)
(1.03185 -0.000716081 0.000150347)
(1.03191 -0.000792835 0.000163205)
(1.03199 -0.000722166 0.000187026)
(1.03209 -0.000581453 0.000183657)
(1.0322 -0.000384878 0.000168973)
(1.03222 -0.000173443 0.000140667)
(1.03221 -6.06511e-05 0.000107298)
(1.03218 6.19181e-05 0.000145545)
(1.03209 0.000124584 0.000166452)
(1.03195 -6.10653e-05 0.000218767)
(1.03201 -0.000128411 0.000235601)
(1.03212 -0.0001681 0.000219123)
(1.03133 -0.000250496 0.000158965)
(1.03133 -0.000325495 0.000118068)
(1.03144 -0.000334904 0.000129408)
(1.03133 -0.000341307 0.000124951)
(1.03121 -0.000387648 0.000118376)
(1.03124 -0.000499522 0.000202486)
(1.03117 -0.000576121 0.000113031)
(1.03118 -0.000661133 6.48361e-05)
(1.03121 -0.000740604 0.000123436)
(1.03123 -0.000769184 0.00017268)
(1.03124 -0.000901941 0.000221977)
(1.03124 -0.000946195 0.000276356)
(1.03129 -0.000928641 0.000311582)
(1.03122 -0.000823576 0.00030928)
(1.03106 -0.000930121 0.0002462)
(1.03104 -0.00100179 0.00020259)
(1.03101 -0.00101474 0.000251567)
(1.03098 -0.00110114 0.000344257)
(1.031 -0.00116961 0.000336948)
(1.03107 -0.00121653 0.000304223)
(1.03105 -0.00116332 0.000257087)
(1.03088 -0.00125834 0.000217597)
(1.03086 -0.00130716 0.000151391)
(1.03085 -0.0013602 0.000202238)
(1.03086 -0.0012586 0.000200642)
(1.03076 -0.00116465 0.000127942)
(1.03079 -0.00113482 9.70135e-05)
(1.03087 -0.00103565 6.57281e-05)
(1.03078 -0.00101059 2.24513e-05)
(1.0308 -0.00115333 2.30844e-05)
(1.03085 -0.00104881 1.22493e-05)
(1.03096 -0.000860149 -1.68249e-07)
(1.03115 -0.000587701 4.38677e-06)
(1.03127 -0.000310518 -7.03426e-06)
(1.03135 -0.000151603 -3.61699e-05)
(1.03138 4.05409e-05 2.49969e-05)
(1.03127 0.000101828 4.91803e-05)
(1.03113 -0.000121079 0.00013609)
(1.03121 -0.000201013 0.000146471)
(1.03133 -0.000269441 0.000137598)
(1.03042 -0.000362934 -0.000175966)
(1.03043 -0.000487735 -0.000224756)
(1.03057 -0.000525132 -0.000211102)
(1.03048 -0.000526624 -0.000196829)
(1.03035 -0.000579603 -0.000209992)
(1.03038 -0.00074314 -7.9073e-05)
(1.03031 -0.000840953 -0.000171047)
(1.03032 -0.000953713 -0.000227832)
(1.03033 -0.00105255 -0.000161658)
(1.03039 -0.0011067 -0.000100742)
(1.0304 -0.00129329 -5.36493e-05)
(1.03044 -0.00133695 3.76781e-05)
(1.03046 -0.00129471 8.45755e-05)
(1.03039 -0.00117051 5.61722e-05)
(1.03019 -0.00131026 -4.78556e-05)
(1.03015 -0.00138116 -0.000118442)
(1.03009 -0.00137331 -6.03943e-05)
(1.02998 -0.00144135 3.29362e-05)
(1.02997 -0.00157353 2.46579e-05)
(1.03 -0.00168512 5.1597e-06)
(1.02998 -0.00162947 -6.08914e-05)
(1.02979 -0.0016967 -0.000113266)
(1.0297 -0.00173203 -0.000218487)
(1.02961 -0.00176649 -0.000149183)
(1.0296 -0.00159196 -0.00016862)
(1.02948 -0.00145382 -0.000284333)
(1.02948 -0.00143178 -0.000333856)
(1.02956 -0.00134016 -0.00037408)
(1.02943 -0.00132082 -0.000445641)
(1.02927 -0.00152682 -0.000500138)
(1.02913 -0.00140237 -0.000604718)
(1.02917 -0.00116997 -0.000633974)
(1.02949 -0.000832471 -0.000568172)
(1.02985 -0.000457122 -0.000511077)
(1.03015 -0.000236054 -0.000496977)
(1.03033 3.72745e-05 -0.00038832)
(1.03027 9.4429e-05 -0.000340563)
(1.03015 -0.000181155 -0.000199719)
(1.03026 -0.00029025 -0.000199602)
(1.03042 -0.000370943 -0.000192754)
(1.02957 -0.000351878 -0.000941731)
(1.02962 -0.00051753 -0.00101487)
(1.02979 -0.000613229 -0.000983157)
(1.02971 -0.000608006 -0.000967357)
(1.0296 -0.000664856 -0.000988286)
(1.02961 -0.000895918 -0.000771795)
(1.02947 -0.00103854 -0.000843009)
(1.02945 -0.00116467 -0.000896342)
(1.02928 -0.00129643 -0.000818485)
(1.02936 -0.00140615 -0.000738523)
(1.02927 -0.00166323 -0.000694945)
(1.02929 -0.00168625 -0.000525821)
(1.02909 -0.00161571 -0.000464894)
(1.02902 -0.00145088 -0.000548702)
(1.0288 -0.00163308 -0.000738357)
(1.02867 -0.00169048 -0.000866604)
(1.02856 -0.00164726 -0.000819955)
(1.02838 -0.00169772 -0.00078584)
(1.02833 -0.00194316 -0.000800028)
(1.02816 -0.00217081 -0.000769587)
(1.02805 -0.00210692 -0.000816476)
(1.02781 -0.00213171 -0.00090986)
(1.02763 -0.00213853 -0.00108829)
(1.02747 -0.0021063 -0.000972237)
(1.02747 -0.00184623 -0.00102961)
(1.02741 -0.00163898 -0.00124963)
(1.02743 -0.00165055 -0.00131183)
(1.02757 -0.00158785 -0.00133802)
(1.02749 -0.00155101 -0.00145531)
(1.02702 -0.00175623 -0.00161507)
(1.02656 -0.00162116 -0.00184448)
(1.02658 -0.00140759 -0.00186176)
(1.02713 -0.00103763 -0.00166049)
(1.02792 -0.000527074 -0.00149252)
(1.02859 -0.000227789 -0.00141857)
(1.02908 0.000147841 -0.00124976)
(1.0292 0.000218655 -0.00116437)
(1.02916 -0.000100063 -0.000968994)
(1.02934 -0.000248218 -0.000974249)
(1.02956 -0.000340291 -0.000952046)
(1.02858 -0.000302081 -0.00214074)
(1.02871 -0.000517526 -0.00225473)
(1.02873 -0.000683467 -0.00214671)
(1.02854 -0.000696923 -0.00211603)
(1.02834 -0.000779231 -0.00214696)
(1.0282 -0.00105977 -0.00180891)
(1.02773 -0.00124301 -0.00181325)
(1.02754 -0.00138289 -0.00183039)
(1.02688 -0.0015557 -0.00179996)
(1.02691 -0.00175395 -0.00171331)
(1.02646 -0.00204041 -0.00161121)
(1.02616 -0.00202214 -0.00136188)
(1.02551 -0.00192051 -0.00139735)
(1.0254 -0.00173455 -0.00162793)
(1.02518 -0.0019074 -0.00198627)
(1.02513 -0.00190314 -0.00219116)
(1.0252 -0.00179227 -0.00215681)
(1.02513 -0.00179755 -0.00220393)
(1.02507 -0.00217645 -0.00218449)
(1.02456 -0.00250104 -0.00207416)
(1.02433 -0.00244943 -0.00206546)
(1.02422 -0.00239976 -0.00229918)
(1.02397 -0.00238642 -0.00257198)
(1.02373 -0.00228104 -0.00229449)
(1.02354 -0.00193247 -0.00237658)
(1.02335 -0.00164615 -0.00271128)
(1.02339 -0.00174663 -0.00264675)
(1.02368 -0.00179657 -0.00262237)
(1.02385 -0.00172279 -0.00289524)
(1.0234 -0.00186589 -0.003188)
(1.0232 -0.00174582 -0.00346456)
(1.02365 -0.00157973 -0.00343446)
(1.02442 -0.00119915 -0.00310134)
(1.02563 -0.00053175 -0.00290905)
(1.02665 -0.000159064 -0.00287894)
(1.02749 0.000339683 -0.00264317)
(1.028 0.000462693 -0.00249321)
(1.02806 0.000116621 -0.00222464)
(1.02836 -8.52266e-05 -0.00221734)
(1.0287 -0.000223871 -0.00214837)
(1.02668 2.76603e-05 -0.00366715)
(1.02671 -0.000248407 -0.00381346)
(1.02611 -0.000558568 -0.00352861)
(1.02543 -0.000570597 -0.00343904)
(1.02476 -0.000652081 -0.00351041)
(1.02423 -0.000974181 -0.00303971)
(1.02316 -0.00118187 -0.00295018)
(1.02254 -0.00126408 -0.00301298)
(1.02124 -0.00151989 -0.00313081)
(1.02122 -0.00182087 -0.00295908)
(1.02009 -0.00203686 -0.00274796)
(1.01934 -0.00193976 -0.00259359)
(1.0185 -0.00177774 -0.00292441)
(1.01852 -0.00162465 -0.00331845)
(1.0188 -0.00180023 -0.0038323)
(1.01937 -0.00173428 -0.00401274)
(1.01993 -0.00152705 -0.00386609)
(1.01994 -0.00152907 -0.00388143)
(1.01988 -0.00207177 -0.0038278)
(1.01927 -0.00245435 -0.00357007)
(1.01916 -0.00249137 -0.00348756)
(1.01914 -0.00238516 -0.00401061)
(1.01864 -0.00238191 -0.00428759)
(1.01852 -0.00218454 -0.0037515)
(1.01811 -0.00178864 -0.00388969)
(1.01803 -0.00154084 -0.00430459)
(1.01858 -0.00183587 -0.0041098)
(1.01922 -0.00193654 -0.00432106)
(1.02 -0.00176689 -0.00490753)
(1.02022 -0.00188979 -0.00512968)
(1.02099 -0.00167333 -0.00532569)
(1.02182 -0.00149238 -0.00529006)
(1.02249 -0.00108969 -0.00493117)
(1.02395 -0.00034768 -0.00491974)
(1.02474 3.62239e-05 -0.00495313)
(1.02559 0.000562551 -0.00463838)
(1.02634 0.000812549 -0.00438859)
(1.02639 0.000554798 -0.00393347)
(1.0268 0.00030971 -0.0038658)
(1.02715 0.000146826 -0.0036909)
(1.02253 0.000473055 -0.00475404)
(1.02211 0.000153594 -0.00490847)
(1.02067 -0.000181553 -0.00437279)
(1.01956 -7.65732e-05 -0.00426755)
(1.01833 -0.000167652 -0.00447306)
(1.01734 -0.00055653 -0.00395666)
(1.01597 -0.000760032 -0.00404308)
(1.01526 -0.000754377 -0.00433857)
(1.01384 -0.00116016 -0.00440464)
(1.01357 -0.00148934 -0.00391322)
(1.01164 -0.00165127 -0.0038246)
(1.01127 -0.00150653 -0.00399262)
(1.01111 -0.00130839 -0.00446393)
(1.01222 -0.00123007 -0.00496973)
(1.01362 -0.00140536 -0.00577208)
(1.01473 -0.00122553 -0.00593703)
(1.01572 -0.000943351 -0.00571728)
(1.01576 -0.00112564 -0.00578534)
(1.01616 -0.001952 -0.00583148)
(1.01596 -0.0024359 -0.00543694)
(1.01645 -0.00237727 -0.00557047)
(1.01612 -0.00212087 -0.00627579)
(1.01556 -0.00211875 -0.00614129)
(1.01631 -0.00180739 -0.00531318)
(1.01606 -0.00132415 -0.00572296)
(1.01655 -0.00114694 -0.00628744)
(1.01747 -0.00163809 -0.00607303)
(1.01805 -0.00173106 -0.00651098)
(1.01875 -0.00150485 -0.00696461)
(1.01876 -0.00167187 -0.00666682)
(1.01954 -0.00129577 -0.0067947)
(1.01969 -0.000993189 -0.00666496)
(1.02019 -0.000646603 -0.00627682)
(1.02146 3.80043e-05 -0.00645051)
(1.02122 0.000413983 -0.00636282)
(1.02161 0.000843806 -0.00613915)
(1.02228 0.00111862 -0.00578407)
(1.02245 0.000986915 -0.00508754)
(1.02293 0.000710179 -0.00494114)
(1.0231 0.000592926 -0.00474894)
(1.01592 0.000923158 -0.00382795)
(1.0153 0.000663257 -0.00394401)
(1.01416 0.000302572 -0.00328285)
(1.01374 0.000716032 -0.00349001)
(1.01277 0.000684702 -0.0039773)
(1.01218 0.000321268 -0.00381943)
(1.01112 0.000195571 -0.0044883)
(1.01128 0.000216356 -0.00511597)
(1.01036 -0.000148669 -0.00494919)
(1.00969 -0.000342751 -0.00457239)
(1.00809 -0.00052777 -0.00498582)
(1.00933 -0.000433091 -0.0053997)
(1.01055 -0.000400273 -0.00575061)
(1.01362 -0.000393881 -0.00649947)
(1.01497 -0.000475708 -0.0074019)
(1.01585 -0.000161107 -0.00736657)
(1.01689 0.00017944 -0.00728958)
(1.01717 -0.000213786 -0.00756333)
(1.01783 -0.0013012 -0.00733943)
(1.01708 -0.00171593 -0.00719285)
(1.01732 -0.00145795 -0.00810066)
(1.0162 -0.00129378 -0.00810457)
(1.0164 -0.00147159 -0.00668671)
(1.01757 -0.000975553 -0.00583142)
(1.01717 -0.000419692 -0.00682319)
(1.01774 -0.000284259 -0.00734116)
(1.0178 -0.000774696 -0.00699549)
(1.01739 -0.00082045 -0.00724576)
(1.01672 -0.000704106 -0.00708475)
(1.01562 -0.000861037 -0.00646071)
(1.01526 -0.000210762 -0.00663174)
(1.01487 1.9425e-05 -0.00610391)
(1.01507 0.000359415 -0.00580192)
(1.01515 0.00103458 -0.00601919)
(1.0142 0.001128 -0.00578109)
(1.01432 0.00133711 -0.00592045)
(1.01475 0.00159387 -0.00558419)
(1.01504 0.00135519 -0.00456675)
(1.01572 0.000824538 -0.00412331)
(1.01604 0.000751107 -0.00390995)
(1.00956 0.00170471 -0.00177732)
(1.00938 0.0013853 -0.00199333)
(1.00943 0.000984893 -0.00168182)
(1.00958 0.00172651 -0.00264942)
(1.00961 0.00163421 -0.00334269)
(1.00919 0.00117804 -0.00339357)
(1.00835 0.00110239 -0.00432117)
(1.00916 0.00137812 -0.00527404)
(1.00855 0.00116557 -0.00526858)
(1.00814 0.00101088 -0.00543687)
(1.00822 0.000721873 -0.00598434)
(1.01013 0.000732259 -0.00636653)
(1.012 0.000751515 -0.00666928)
(1.0153 0.000805092 -0.00750733)
(1.01501 0.000638305 -0.00755561)
(1.0152 0.000899898 -0.00656979)
(1.01553 0.0010989 -0.00646635)
(1.01627 0.000787216 -0.00643051)
(1.01631 -0.00014675 -0.00578764)
(1.01406 -0.000368 -0.00636285)
(1.01346 -0.000248519 -0.00708396)
(1.01272 -0.000134296 -0.00545)
(1.01393 -0.000192366 -0.0039874)
(1.0142 0.000546065 -0.00400165)
(1.01458 0.000890752 -0.00548601)
(1.01572 0.000851239 -0.00523314)
(1.01548 0.000173289 -0.00474576)
(1.01475 4.0099e-05 -0.00465075)
(1.01361 -2.98479e-05 -0.00413449)
(1.01173 4.93177e-06 -0.00375001)
(1.01074 0.000843929 -0.00419174)
(1.00981 0.000851028 -0.00333616)
(1.00887 0.00129174 -0.00335703)
(1.00856 0.00211887 -0.00336644)
(1.00746 0.00195763 -0.00320513)
(1.00761 0.0020708 -0.00393954)
(1.00777 0.00229502 -0.00387639)
(1.00788 0.00183577 -0.0022344)
(1.00879 0.00122372 -0.00180328)
(1.00912 0.00126255 -0.00169806)
(1.00532 0.00254257 -0.000321357)
(1.00562 0.00188334 -0.000771699)
(1.00576 0.00149941 -0.000914962)
(1.00566 0.00222428 -0.00211605)
(1.00578 0.00175592 -0.0021902)
(1.00442 0.00117193 -0.00170261)
(1.00447 0.00124726 -0.00292177)
(1.00493 0.00179417 -0.00427047)
(1.00474 0.00150383 -0.00427551)
(1.00432 0.0012059 -0.00460684)
(1.00459 0.000897959 -0.00475939)
(1.00476 0.000948545 -0.00496316)
(1.00609 0.000818798 -0.0054858)
(1.00825 0.000819167 -0.00563834)
(1.00726 0.000845764 -0.0047621)
(1.00675 0.00120707 -0.00368773)
(1.0067 0.00138499 -0.00346028)
(1.00764 0.00119625 -0.00294023)
(1.00636 0.000413701 -0.00226601)
(1.00293 0.000378443 -0.00246166)
(1.00297 0.000488486 -0.00194337)
(1.00251 0.000809495 -0.000289839)
(1.00358 0.00107096 0.000225348)
(1.00366 0.00192326 -0.000244565)
(1.0056 0.00190379 -0.00141908)
(1.00609 0.00177673 -0.000366867)
(1.00593 0.000949249 -3.58781e-06)
(1.0047 0.000728427 0.000349165)
(1.00395 0.000715716 0.000814165)
(1.00165 0.00113335 0.000867792)
(1.00158 0.00200468 -2.29572e-05)
(1.00009 0.0020003 0.0009537)
(1.00074 0.00231184 0.000633956)
(1.00177 0.00315665 0.0007875)
(1.00172 0.0030254 0.00049565)
(1.00316 0.00299922 -0.000732476)
(1.00388 0.00292243 -0.000574925)
(1.00356 0.00243152 0.000656422)
(1.00388 0.00194662 0.00016074)
(1.00396 0.00214945 0.000346514)
(0.998295 0.00264042 0.00316069)
(0.997309 0.00185744 0.0025255)
(0.99599 0.00183173 0.00161609)
(0.994762 0.00252574 0.000521749)
(0.993746 0.00175202 0.00114906)
(0.991368 0.00101164 0.00176464)
(0.992047 0.00131187 -0.000112772)
(0.991442 0.0018465 -0.00155579)
(0.991515 0.00106825 -0.00130678)
(0.989207 0.000664175 -0.00145151)
(0.990291 0.000510604 -0.00113663)
(0.988978 0.000538173 -0.00115121)
(0.991578 0.000233544 -0.00123387)
(0.992696 0.000630543 -0.00110643)
(0.992737 0.00111741 -0.000573807)
(0.991592 0.00158627 -0.000353972)
(0.992573 0.0015633 -0.00026306)
(0.992743 0.00108443 0.000585219)
(0.990884 0.000144435 0.00114927)
(0.987654 -0.000175116 0.00128549)
(0.990212 -0.000342367 0.00188853)
(0.989936 -0.000136881 0.00342676)
(0.991691 0.000297697 0.00445907)
(0.991926 0.00101883 0.0041299)
(0.994391 0.00100711 0.00376953)
(0.993624 0.00109504 0.00494395)
(0.99344 0.000456705 0.00540068)
(0.991018 0.000446285 0.00600251)
(0.990209 0.000636514 0.0066549)
(0.987402 0.00120658 0.0062949)
(0.988996 0.00205072 0.00526378)
(0.988268 0.00215201 0.00640232)
(0.991858 0.00243427 0.00611004)
(0.993498 0.00341009 0.00616498)
(0.995735 0.00330297 0.00515396)
(0.997952 0.00327144 0.00466546)
(0.99941 0.00323986 0.00551991)
(0.99786 0.0028649 0.00561462)
(0.996999 0.00226618 0.00439781)
(0.996124 0.00246914 0.00444409)
(0.981756 0.00166062 0.00701614)
(0.978909 0.0010123 0.00616018)
(0.977091 0.00132751 0.00427921)
(0.976582 0.00195444 0.00349564)
(0.975851 0.000983995 0.00395453)
(0.9726 5.89476e-05 0.00375262)
(0.972533 0.000550058 0.00126657)
(0.971504 0.000858575 0.000384427)
(0.971742 -0.000317383 0.000421818)
(0.969977 -0.000844938 0.000489427)
(0.972612 -0.000832517 0.00113121)
(0.970188 -0.000517319 0.00150368)
(0.972893 -0.000436174 0.00241289)
(0.971756 0.000383465 0.00296264)
(0.973333 0.00104482 0.00373487)
(0.972022 0.00119317 0.00405523)
(0.974147 0.000973924 0.00433421)
(0.972214 0.000655006 0.00490196)
(0.971434 0.00021093 0.00500251)