/*--------------------------------*- C++ -*----------------------------------*\
  =========                 |
  \\      /  F ield         | OpenFOAM: The Open Source CFD Toolbox
   \\    /   O peration     | Website:  https://openfoam.org
    \\  /    A nd           | Version:  10
     \\/     M anipulation  |
\*---------------------------------------------------------------------------*/
FoamFile
{
    format      ascii;
    class       volScalarField;
    location    "15";
    object      nut;
}
// * * * * * * * * * * * * * * * * * * * * * * * * * * * * * * * * * * * * * //

dimensions      [0 2 -1 0 0 0 0];

internalField   nonuniform List<scalar> 
25600
(
9.30234e-11
1.63597e-10
3.50609e-10
2.26826e-10
2.17235e-10
2.7392e-08
2.8866e-10
8.24455e-11
3.0724e-08
1.96657e-09
1.21734e-12
3.31036e-10
1.53536e-10
9.95867e-10
1.25125e-09
1.99594e-09
7.34056e-09
2.64838e-09
1.23753e-08
3.05843e-10
8.05645e-12
2.07521e-10
5.2171e-11
2.7421e-10
1.44726e-09
5.04088e-10
1.67463e-08
4.79542e-08
2.77561e-09
9.15063e-10
3.05144e-09
7.86953e-11
1.95408e-10
1.74948e-09
9.08519e-10
2.4552e-11
4.92412e-10
4.33355e-10
3.86535e-10
1.72291e-11
4.03997e-10
4.10665e-09
1.43043e-11
2.21264e-10
3.14245e-10
2.57954e-09
2.40577e-10
1.61575e-09
1.0216e-08
2.0201e-11
8.17575e-11
3.13749e-10
8.27864e-10
9.26086e-10
3.41561e-10
2.9969e-10
4.84267e-09
3.25471e-08
1.68812e-09
2.51761e-11
3.91734e-11
1.82063e-10
1.50586e-11
2.97156e-10
2.3426e-09
6.40103e-10
3.04286e-09
1.28485e-07
1.51029e-08
4.414e-10
2.66808e-10
1.3713e-10
5.54934e-10
6.82967e-09
1.28154e-09
4.16294e-10
6.07364e-11
7.54672e-11
1.34956e-09
7.60004e-10
1.26777e-11
3.6665e-08
8.94766e-09
1.85454e-09
2.50365e-10
5.2892e-10
2.11701e-09
2.8688e-09
1.10647e-09
2.66279e-10
5.68865e-10
2.25065e-10
1.50052e-09
5.40601e-09
4.342e-08
6.31901e-10
1.3073e-09
8.53249e-08
1.59199e-08
2.61381e-09
1.85517e-11
2.79837e-10
3.91411e-11
3.48253e-10
6.48325e-10
5.12488e-09
7.96141e-11
1.06164e-08
1.95761e-08
3.22044e-08
2.1339e-10
6.13956e-11
3.55374e-10
1.18263e-08
8.32697e-10
2.10391e-09
2.03479e-10
1.06114e-10
2.41358e-09
7.6595e-09
5.03408e-12
1.60301e-08
3.33982e-08
1.76131e-08
3.30196e-09
1.91804e-11
5.12513e-10
7.13942e-09
5.99617e-10
2.48555e-10
4.35148e-10
1.03365e-09
9.02621e-10
1.63746e-09
2.61275e-07
2.31586e-08
1.35136e-09
2.21804e-08
3.90999e-08
2.55348e-08
6.62706e-09
7.78297e-10
6.31938e-11
3.7403e-09
5.7156e-12
1.17651e-09
1.11933e-08
2.35582e-09
1.85462e-09
2.12925e-08
2.09601e-09
1.61214e-09
6.57348e-11
1.25441e-08
1.24628e-09
4.14451e-09
8.7036e-10
1.89168e-10
2.63453e-09
2.03096e-08
2.7098e-09
4.48524e-09
2.8744e-08
1.87486e-08
2.0196e-08
1.11905e-09
1.31635e-11
3.59884e-09
3.47207e-09
8.69454e-12
5.99624e-10
4.29691e-09
8.75448e-09
4.08298e-10
1.67467e-07
5.3944e-08
1.4666e-07
9.25029e-10
1.24126e-08
2.26578e-08
9.94472e-08
2.00725e-09
1.01007e-10
5.22489e-09
8.27946e-11
1.70429e-11
6.91118e-09
1.18511e-09
4.90151e-10
2.81175e-09
3.19477e-10
1.60854e-08
8.96603e-12
8.34807e-09
2.94109e-09
1.09737e-08
1.95695e-09
1.49486e-10
1.43278e-09
2.33295e-08
1.48871e-08
8.7094e-09
2.84096e-08
1.5091e-08
1.88836e-08
1.20465e-08
4.30584e-09
3.65586e-09
3.66087e-09
1.47793e-10
2.09004e-10
2.04064e-09
2.6018e-08
2.40122e-09
3.45688e-08
4.44485e-08
9.48399e-07
1.09915e-08
1.91034e-09
1.426e-09
1.59953e-07
2.09808e-08
5.87974e-10
1.45705e-10
5.98553e-10
6.78977e-10
1.76124e-09
5.34733e-10
1.95791e-10
5.95805e-10
3.06431e-11
1.90504e-08
1.04128e-10
1.08901e-08
5.03862e-09
3.63827e-08
5.06063e-09
1.20065e-09
5.95611e-10
1.85033e-08
8.46728e-08
3.94043e-08
6.13742e-08
2.85127e-08
1.39747e-08
3.77595e-08
3.78415e-08
3.33396e-08
3.56437e-09
7.04177e-10
4.37905e-09
1.81657e-10
3.30094e-08
1.27311e-08
2.51954e-08
1.79424e-08
1.7946e-06
3.94237e-08
7.75023e-09
4.50106e-10
7.42813e-08
6.13809e-08
4.68582e-09
1.0519e-11
7.75202e-10
7.87324e-09
2.26712e-09
1.12782e-09
8.34701e-10
5.91676e-09
4.56269e-11
2.0982e-08
5.75657e-09
1.06408e-07
1.01272e-08
1.1147e-07
1.73531e-08
2.74878e-09
1.76024e-10
2.19492e-08
5.20102e-07
2.02666e-07
2.8407e-07
5.53812e-08
2.17089e-08
1.3487e-07
1.26318e-07
2.88047e-07
2.38741e-08
6.75351e-09
3.13469e-09
2.5299e-10
3.81394e-08
4.01735e-08
1.72973e-07
4.23923e-08
2.42393e-06
9.72392e-08
9.83875e-08
8.61537e-09
2.28058e-08
8.54566e-08
6.93534e-09
8.09094e-10
1.36627e-08
1.15629e-07
5.03365e-08
6.11025e-09
1.41902e-08
2.791e-08
2.62898e-10
1.90133e-07
2.57364e-07
4.42627e-07
7.86988e-08
1.9631e-07
7.35941e-08
7.08293e-09
3.43456e-09
4.08756e-08
1.7975e-06
4.27062e-07
9.26012e-07
1.4094e-07
2.91284e-08
6.25696e-07
5.46412e-07
7.2559e-07
6.03691e-07
1.34589e-07
6.47981e-08
1.67679e-08
1.07743e-07
2.37557e-07
1.39008e-06
5.73388e-07
2.38403e-06
1.94217e-07
6.09511e-07
1.85954e-07
8.41029e-08
3.00524e-08
2.11191e-08
5.06492e-08
2.79176e-07
5.97094e-07
5.2858e-07
3.01045e-08
1.33445e-07
2.00373e-07
1.32139e-07
7.70097e-07
9.67045e-07
6.82339e-07
3.92338e-07
3.57161e-07
3.12958e-07
5.67248e-08
9.15021e-08
2.30702e-07
1.91526e-06
3.79157e-07
1.35948e-06
2.82019e-07
1.73264e-07
1.21218e-06
9.97939e-07
1.08624e-06
1.31892e-06
4.7478e-07
1.33582e-06
1.26172e-06
8.39776e-07
6.51734e-07
2.11999e-06
1.46847e-06
2.34097e-06
3.25644e-07
8.75883e-07
7.37873e-07
6.59456e-07
2.29511e-07
4.15153e-07
4.54077e-07
5.02331e-07
9.13856e-07
8.37836e-07
8.82829e-08
6.20727e-07
4.20124e-07
7.91062e-07
8.08213e-07
1.17275e-06
8.55699e-07
6.53929e-07
4.94834e-07
8.81205e-07
4.68233e-07
6.75042e-07
7.38375e-07
1.59414e-06
4.27488e-07
1.38827e-06
9.96342e-07
7.67675e-07
1.51901e-06
1.86472e-06
2.8988e-06
1.71436e-06
1.03975e-06
1.33199e-06
2.74609e-06
1.48691e-06
9.48668e-07
2.87575e-06
2.4933e-06
3.17441e-06
4.06862e-06
6.40437e-06
4.30688e-06
1.63244e-06
9.17128e-07
8.52512e-07
5.59636e-07
7.44109e-07
1.53481e-06
1.36336e-06
2.9701e-07
1.69522e-06
9.26481e-07
1.35588e-06
9.82324e-07
1.14845e-06
1.15791e-06
6.23813e-07
5.40398e-07
1.80848e-06
1.0643e-06
1.03499e-06
6.23319e-07
1.4357e-06
1.02321e-06
1.65727e-06
1.85335e-06
1.68661e-06
1.58287e-06
3.61494e-06
4.97689e-06
2.73473e-06
2.05203e-06
1.84172e-06
3.27896e-06
1.94669e-06
1.23044e-06
2.81653e-06
3.86939e-06
8.42081e-06
7.57188e-06
1.44775e-05
1.95387e-05
7.0564e-06
1.59825e-06
5.21636e-07
5.47435e-07
2.18048e-06
2.4363e-06
1.86785e-06
1.19602e-06
2.22312e-06
2.26078e-06
2.06387e-06
1.60377e-06
1.3214e-06
1.67619e-06
9.33205e-07
1.03776e-06
2.85687e-06
1.50068e-06
1.70104e-06
8.6074e-07
1.5842e-06
3.8764e-06
2.22267e-06
2.18237e-06
4.23999e-06
2.55289e-06
1.7231e-06
2.52623e-06
3.1101e-06
3.12353e-06
2.3951e-06
3.45256e-06
1.52574e-06
1.41558e-06
5.30036e-06
5.04271e-06
1.62092e-05
6.42029e-06
1.40618e-05
2.12089e-05
1.78108e-05
1.14464e-06
1.8207e-06
2.85826e-06
8.45501e-06
2.00149e-06
1.1702e-06
4.07832e-06
1.9985e-06
2.99893e-06
2.33894e-06
1.90868e-06
1.78525e-06
2.96566e-06
1.96377e-06
1.95533e-06
5.15864e-06
1.97935e-06
3.82328e-06
2.9838e-06
2.75123e-06
1.30449e-05
1.22174e-06
5.89479e-06
3.95476e-06
4.0322e-06
9.86813e-07
2.72178e-06
5.24326e-06
4.95117e-06
3.41126e-06
1.2772e-06
1.18174e-06
7.59401e-07
1.6971e-05
2.12454e-05
5.42677e-06
6.74975e-06
4.74963e-06
5.86472e-07
1.23346e-05
4.55438e-06
5.44345e-06
5.32088e-06
4.71953e-06
1.03562e-05
1.171e-05
2.59871e-06
2.18869e-06
2.47751e-06
4.12794e-06
1.66096e-06
2.47574e-06
4.82165e-06
4.9442e-06
2.14796e-06
5.26959e-06
5.42972e-06
5.80802e-06
5.0193e-06
1.37397e-05
4.89536e-06
1.04541e-06
6.57585e-06
1.68357e-05
2.87627e-06
6.43115e-07
1.03076e-05
1.08877e-05
7.40097e-06
3.9807e-06
2.39635e-06
3.22128e-06
1.63306e-06
9.90016e-06
9.46844e-06
8.3621e-07
1.46534e-06
8.0463e-07
4.50257e-07
5.7475e-06
1.50261e-05
6.83015e-06
8.72945e-06
2.15502e-06
2.96272e-05
2.60583e-05
1.1906e-06
2.75282e-06
3.89898e-06
2.33473e-05
7.14963e-06
4.01413e-06
5.07152e-06
6.93662e-06
3.26629e-06
1.03098e-05
3.92866e-06
3.37201e-06
6.95994e-06
1.11346e-05
1.15128e-06
6.56665e-06
2.79001e-06
1.45177e-05
6.18692e-06
2.02825e-06
4.93665e-06
2.71942e-06
1.36299e-05
6.2853e-06
6.48959e-06
2.85323e-06
4.08492e-06
9.69249e-06
1.29646e-05
1.01657e-05
4.12848e-06
1.41298e-06
4.67145e-06
4.11729e-06
6.40488e-06
6.88458e-06
1.06402e-05
2.78856e-06
1.30259e-05
2.81162e-05
6.12326e-06
4.54038e-06
5.32428e-06
1.61035e-05
1.36113e-05
6.77714e-06
3.39861e-06
6.36523e-06
5.34523e-06
1.10002e-05
1.55213e-05
2.49614e-05
3.93155e-06
8.49209e-06
1.62121e-06
2.67841e-06
7.29024e-06
2.98314e-06
1.25661e-06
3.06798e-06
1.46899e-05
1.60108e-05
6.97665e-07
6.90489e-06
5.43453e-06
1.87397e-05
3.17831e-06
9.69299e-06
5.84609e-05
6.01788e-06
1.55694e-05
5.09707e-05
1.061e-05
4.86116e-06
6.17749e-06
1.14675e-05
1.4041e-05
1.54178e-06
5.73875e-06
1.93511e-05
1.6372e-05
4.86179e-06
7.10367e-06
8.34509e-06
8.3244e-06
3.09532e-05
2.81874e-06
2.22707e-05
1.97456e-05
7.51874e-06
1.72181e-05
1.51567e-05
2.80831e-06
4.33505e-06
2.00899e-06
6.45865e-06
1.13723e-05
3.73121e-06
1.19372e-06
8.3282e-06
1.74493e-05
1.00799e-05
1.05944e-06
8.08791e-06
6.48523e-06
3.96191e-05
1.88981e-06
1.82826e-05
7.37991e-06
3.31578e-07
9.69499e-05
7.72342e-05
1.5223e-05
1.08521e-05
1.66385e-05
9.3783e-06
4.63922e-06
1.74178e-06
4.66607e-06
2.91299e-06
9.68341e-06
1.51179e-05
1.02511e-05
2.24045e-05
1.49727e-05
2.5661e-05
3.09909e-06
2.03725e-05
3.21057e-05
8.75258e-06
9.36954e-06
1.07329e-06
3.2893e-06
4.93553e-06
2.47031e-06
9.03266e-06
1.64598e-05
1.49196e-05
3.932e-06
2.1989e-05
1.99153e-05
6.03656e-06
1.2345e-06
7.7378e-06
5.71684e-06
6.06856e-05
7.24994e-06
2.16619e-05
5.12371e-06
6.37321e-05
0.000150554
4.48575e-05
1.12578e-05
3.39831e-05
1.19341e-05
4.0435e-06
3.853e-06
5.09229e-06
1.94991e-06
1.27437e-06
2.54436e-06
1.61899e-05
1.23272e-05
3.87603e-05
8.38555e-06
1.00898e-05
2.12752e-06
4.29665e-05
1.55818e-05
1.77728e-05
1.48799e-05
8.66485e-07
4.77106e-06
3.48212e-06
6.91256e-06
1.25432e-05
6.91022e-06
1.84814e-05
6.14502e-06
1.81467e-05
1.18874e-05
4.61749e-06
1.9881e-06
1.16426e-05
8.03145e-06
5.76834e-05
1.21861e-05
1.76402e-05
7.28678e-06
8.62107e-05
6.25945e-05
1.65635e-05
2.00449e-05
1.86363e-05
2.40275e-06
4.89814e-06
1.01712e-05
1.04922e-05
7.38372e-07
2.32273e-06
2.17703e-06
2.00016e-05
9.78928e-06
1.11805e-05
2.57884e-06
4.54719e-06
7.85187e-06
4.55948e-06
4.62942e-06
2.58008e-05
4.18661e-06
4.5542e-06
4.88216e-05
3.13607e-06
2.43321e-05
9.18025e-06
3.42584e-06
1.65757e-06
2.91597e-06
1.94866e-05
9.37783e-06
7.45284e-06
2.61385e-05
1.01274e-05
2.87382e-05
3.54014e-05
7.29479e-06
2.20609e-05
5.29445e-06
3.49211e-06
1.08027e-05
1.73631e-05
4.7646e-06
1.91907e-06
3.73925e-06
3.93788e-06
1.57969e-05
2.88968e-06
2.36015e-06
2.85402e-06
3.56439e-06
1.93113e-05
1.79602e-06
4.76256e-06
2.79883e-06
1.13173e-05
2.26519e-05
1.55732e-06
2.19181e-06
5.67977e-07
4.2816e-05
8.95782e-05
1.18584e-05
1.85839e-07
1.21494e-06
2.73283e-06
1.28645e-05
3.89108e-05
2.83538e-05
2.85161e-05
1.70488e-05
4.38136e-05
4.27284e-05
3.39024e-06
5.05677e-05
2.93625e-05
9.778e-06
5.68204e-06
1.57609e-05
4.24715e-07
7.79315e-06
1.0092e-05
7.57831e-06
9.21461e-06
2.36747e-06
1.57869e-06
2.19206e-06
1.60361e-05
1.32925e-06
4.67695e-06
8.8884e-06
9.01166e-06
1.92706e-06
6.63971e-06
3.21188e-06
1.86101e-05
3.54606e-05
1.21613e-05
5.49856e-06
1.21141e-05
1.41498e-05
2.86793e-05
2.22955e-05
1.50088e-08
1.3284e-07
7.54775e-07
4.45631e-06
5.04299e-05
7.39767e-05
2.7268e-05
1.98459e-05
5.76996e-05
2.05262e-05
2.58158e-06
4.30218e-05
1.23603e-05
4.67811e-06
1.72853e-05
6.19951e-06
6.68841e-07
1.45944e-06
4.90096e-06
1.36182e-05
7.26909e-06
3.32857e-06
3.94559e-06
1.19635e-06
2.46894e-07
1.39528e-06
3.30708e-05
3.49413e-05
6.85664e-06
2.73911e-06
1.76365e-05
6.01114e-06
7.44949e-05
5.74233e-05
1.40918e-05
9.23249e-06
9.40867e-06
5.87125e-06
5.82705e-07
1.79663e-07
3.26652e-09
2.73013e-07
1.12217e-06
5.67597e-07
3.2269e-05
0.00011703
3.60249e-05
0.000111864
1.73724e-05
8.19714e-07
4.66596e-05
4.55939e-06
1.21749e-06
2.34442e-05
4.26771e-06
4.41974e-06
8.07984e-06
5.63101e-07
5.01568e-06
1.07707e-05
7.98954e-06
7.007e-06
1.18817e-06
2.93789e-07
4.13423e-08
7.05931e-06
7.96069e-05
1.03881e-06
2.00808e-05
3.87948e-06
9.13056e-07
4.2572e-05
9.19625e-06
7.81071e-07
3.93627e-06
7.34958e-06
5.17876e-06
2.32717e-07
1.52737e-07
7.99007e-08
1.04055e-07
1.77427e-06
2.1017e-06
8.05278e-07
5.43512e-05
0.000118886
0.000107454
8.0971e-07
7.41814e-08
1.02901e-06
2.09202e-05
6.96212e-07
1.3845e-05
8.81449e-06
1.06159e-05
2.20473e-05
2.05365e-05
6.74322e-06
2.70927e-05
6.47572e-06
1.10549e-05
1.58042e-07
3.30077e-07
6.45251e-07
8.4093e-07
2.50246e-05
2.23732e-07
7.48152e-06
2.04641e-06
1.22626e-05
1.4754e-05
1.06097e-06
5.71104e-07
4.83962e-07
3.69552e-06
5.02809e-06
1.81752e-06
2.35341e-08
4.20189e-08
1.95588e-08
1.69398e-06
6.19913e-06
9.18237e-07
1.43959e-05
6.61336e-06
4.45791e-06
1.98959e-07
8.34471e-09
4.39599e-08
6.83377e-06
4.79357e-06
6.72524e-06
1.06354e-05
1.46518e-05
4.62765e-06
7.25792e-08
1.25153e-06
2.48167e-06
5.76046e-06
4.64523e-06
5.75348e-08
1.99134e-07
2.72933e-08
3.05897e-06
4.52885e-08
8.52398e-07
9.22663e-06
5.70408e-07
9.45168e-08
3.91757e-08
6.88174e-06
7.22925e-06
1.40622e-07
2.3559e-06
1.24024e-05
1.71778e-05
8.11661e-06
4.12554e-07
2.03138e-07
8.43043e-07
1.15919e-06
1.41365e-06
3.22627e-06
1.13654e-06
1.19876e-07
2.093e-08
6.49225e-09
9.30038e-08
4.54524e-06
1.24962e-06
1.6498e-06
1.09175e-06
7.54672e-09
3.29972e-08
3.27096e-08
2.65328e-08
5.23699e-07
2.33779e-06
5.51677e-07
1.36608e-07
5.70463e-08
1.25444e-08
3.3178e-07
6.19984e-09
1.75216e-06
3.02696e-07
1.18219e-07
9.64237e-07
1.42726e-06
1.33432e-05
4.86803e-06
2.87716e-06
3.21433e-07
9.67761e-06
3.84099e-05
1.50423e-05
1.45167e-05
4.82271e-06
1.01806e-05
4.50654e-06
8.94326e-08
5.65561e-07
1.77672e-06
6.27398e-07
2.36182e-07
1.92081e-07
2.56661e-07
7.09598e-07
1.28406e-07
2.86161e-07
3.79039e-07
5.13254e-09
1.17502e-07
9.98155e-10
1.86295e-10
3.06262e-08
7.47211e-07
8.74692e-08
1.41341e-07
6.29027e-08
3.5181e-09
3.18571e-08
3.15606e-09
6.39461e-08
3.62067e-08
1.88407e-08
3.74289e-07
1.29818e-05
2.94624e-05
1.43616e-06
1.65272e-06
1.54098e-07
4.03324e-06
3.56532e-05
3.86432e-06
9.19433e-06
5.71896e-06
1.3845e-05
1.06053e-05
4.06603e-07
9.25458e-07
1.12401e-06
1.11504e-06
7.39237e-07
3.66825e-07
4.24443e-07
5.08541e-08
1.60735e-08
2.11716e-08
1.68279e-08
8.66296e-09
5.14961e-08
3.03349e-08
5.99946e-11
5.42988e-10
2.55286e-08
1.66317e-08
1.15268e-07
9.80631e-08
3.86295e-09
5.76678e-09
6.5694e-09
6.03081e-09
2.08528e-08
6.45672e-09
1.03083e-08
4.80873e-08
1.25704e-05
6.50736e-07
3.61777e-07
3.0547e-07
1.52155e-07
7.46702e-06
8.21041e-06
6.98213e-06
1.87393e-06
2.0765e-06
5.31509e-06
1.44742e-07
9.42646e-08
9.65442e-07
6.43906e-07
5.17247e-07
3.3037e-07
1.94431e-07
6.34092e-08
2.77485e-09
1.18712e-09
2.86734e-10
1.05307e-10
2.26579e-09
1.83145e-08
2.06296e-09
2.90771e-10
1.54367e-09
7.48426e-10
1.32242e-08
8.13416e-08
3.6033e-08
2.88707e-09
1.1358e-09
1.02423e-09
7.86553e-09
1.13141e-08
1.60263e-09
1.1237e-10
7.85403e-08
2.00014e-07
8.95072e-08
9.82677e-08
1.14587e-08
3.37982e-07
2.26805e-07
3.48032e-06
6.43057e-07
5.38591e-07
5.84439e-07
1.71273e-07
1.69074e-07
5.94539e-07
3.54241e-07
1.87527e-07
1.20859e-07
7.2147e-08
4.04985e-08
9.11313e-09
1.29221e-09
1.1675e-09
6.40775e-10
8.24845e-11
6.01589e-10
2.29233e-09
2.84843e-10
6.75332e-10
2.10873e-09
8.1594e-10
7.58632e-09
3.21077e-08
1.20314e-08
7.69726e-10
1.87175e-10
9.05416e-10
3.68481e-09
1.87936e-09
1.40815e-10
1.15108e-09
1.10239e-08
2.29888e-08
2.57562e-08
2.75884e-08
2.37189e-10
4.16591e-08
6.7054e-11
7.12571e-08
9.83472e-08
1.58099e-07
1.36562e-07
2.65889e-09
3.31789e-07
4.81092e-07
4.86408e-08
2.8707e-08
1.39238e-08
5.78785e-09
3.09285e-09
1.136e-09
3.66877e-10
4.4442e-10
4.02109e-10
1.85065e-11
4.23065e-11
1.54897e-10
1.14614e-10
9.41686e-11
4.01909e-10
7.47531e-11
7.21292e-10
4.98173e-09
1.24763e-09
8.67245e-11
3.00825e-10
6.20829e-11
2.15904e-10
1.98739e-10
3.5838e-11
7.09194e-11
3.77886e-10
4.3448e-09
4.7151e-09
5.4361e-09
7.6602e-10
1.81658e-10
1.03513e-11
2.01997e-09
1.62566e-08
4.29031e-08
1.27181e-08
1.78372e-09
8.62563e-08
9.20347e-08
1.58785e-10
2.18502e-10
7.86671e-10
6.18129e-10
2.10485e-10
1.22867e-08
2.10892e-10
1.86193e-10
1.73482e-08
1.85904e-09
4.79676e-13
3.92779e-10
3.57438e-10
1.02449e-09
1.99025e-09
1.78726e-09
1.48606e-08
2.72333e-09
1.11831e-08
7.31807e-10
5.57985e-13
8.494e-11
2.39114e-10
5.03681e-10
1.25719e-09
3.88523e-10
9.63242e-09
2.53852e-08
1.09928e-09
6.7833e-10
1.3576e-09
2.18299e-11
4.28208e-11
2.48859e-09
1.29292e-09
2.28972e-11
2.66271e-10
1.87693e-10
4.31931e-10
4.4054e-12
5.32124e-10
9.02418e-10
1.00734e-10
2.18206e-10
4.00153e-10
1.96569e-09
3.49553e-10
1.60632e-09
5.92012e-09
1.00587e-10
1.61051e-11
1.70248e-10
1.2386e-09
8.13327e-10
2.41758e-10
6.78044e-11
1.63238e-08
2.67757e-08
3.53367e-09
9.96676e-12
1.06905e-10
2.14112e-10
2.20563e-10
3.48179e-10
7.24159e-10
1.02067e-10
2.8824e-09
5.55581e-08
1.05203e-08
1.56216e-09
1.33218e-10
1.86878e-11
5.65664e-11
4.05236e-09
2.20325e-09
1.07946e-09
4.01075e-10
1.30643e-11
1.03238e-09
1.27105e-09
1.00856e-10
5.80475e-09
2.89733e-08
8.40497e-10
1.03116e-10
8.16205e-10
2.16741e-09
2.32312e-09
4.20082e-10
3.50978e-10
3.46788e-10
2.80906e-10
5.2335e-10
8.69439e-09
3.53362e-08
2.43137e-09
2.03859e-09
4.94088e-08
7.12324e-08
1.42371e-09
2.35344e-10
2.55098e-10
3.57767e-10
2.27975e-10
2.08958e-10
3.39541e-09
1.03485e-10
7.18637e-09
5.74737e-09
4.09947e-08
1.04234e-09
1.77747e-11
3.50035e-11
4.18353e-09
1.48559e-09
3.05813e-09
3.93037e-10
1.42424e-11
1.68898e-09
1.18876e-08
4.93742e-11
7.75112e-10
8.92856e-08
1.38877e-09
2.30473e-09
8.92622e-12
1.26831e-09
2.37849e-09
1.23675e-09
4.18917e-12
1.89762e-09
2.8834e-09
4.35237e-10
3.01066e-09
1.42203e-07
1.30508e-07
4.73527e-09
3.29615e-09
1.3551e-07
2.40945e-08
1.92318e-09
6.70679e-10
7.82618e-10
1.85805e-10
8.01974e-12
7.69249e-10
4.94685e-09
3.33849e-09
2.13039e-10
1.58271e-08
5.7921e-09
2.67638e-09
9.06947e-11
3.27708e-09
1.27814e-09
3.91033e-09
1.68192e-09
8.68775e-11
3.27862e-09
3.35918e-08
1.00632e-09
4.12032e-10
5.04291e-08
1.8559e-09
1.74763e-08
4.22963e-10
4.51127e-10
1.09358e-09
8.7272e-09
2.76602e-12
9.97063e-10
9.51378e-09
9.5456e-10
3.20946e-11
3.1002e-08
3.5125e-07
3.27275e-08
1.42925e-09
1.37256e-08
4.02677e-08
2.02478e-08
1.73648e-08
1.37044e-09
1.81858e-10
1.60572e-09
1.23953e-11
4.52198e-09
1.14598e-09
4.02879e-11
3.92776e-10
1.77651e-09
2.05306e-08
2.98763e-11
1.6608e-09
2.98857e-09
1.24028e-08
7.33773e-09
1.94972e-09
7.33081e-09
4.87689e-08
1.92244e-09
4.29102e-09
3.44138e-08
2.91063e-09
1.4945e-08
3.43725e-09
8.71639e-10
5.12924e-10
7.87499e-09
1.57702e-09
2.34531e-09
3.18432e-09
2.16672e-09
5.47769e-11
6.53109e-10
1.13579e-07
1.00964e-07
6.02235e-08
2.47023e-12
5.79591e-09
1.72343e-08
2.0479e-07
5.72843e-09
1.50033e-10
4.31795e-09
7.81659e-11
4.26079e-09
1.61184e-10
1.34837e-09
4.30452e-12
3.46444e-10
1.94038e-08
3.58359e-11
1.73992e-08
4.99735e-09
5.92398e-08
3.08778e-08
2.85077e-08
3.5259e-08
5.9849e-08
9.0556e-09
4.03455e-08
3.1709e-08
5.55646e-09
7.74649e-09
1.02532e-08
5.15913e-09
2.11665e-08
2.64156e-09
5.51533e-09
5.82703e-08
7.83683e-11
1.52036e-09
4.5566e-10
6.23184e-10
1.51518e-08
3.03339e-08
2.77958e-07
5.84927e-11
1.5223e-11
3.49156e-09
5.67369e-07
1.89331e-08
2.30847e-09
2.4911e-09
3.36952e-09
2.00104e-09
1.03916e-10
1.16112e-08
3.46799e-10
3.41363e-09
2.37714e-09
1.80139e-10
3.20435e-07
8.49365e-09
2.49168e-07
1.93377e-07
2.59922e-07
3.60597e-07
8.17175e-08
5.56393e-08
3.35373e-07
1.73972e-08
8.92773e-09
6.72579e-09
3.12572e-08
1.72849e-08
3.63158e-07
3.23746e-08
9.99279e-08
1.8274e-07
1.31017e-09
4.31331e-10
1.90363e-09
4.42111e-08
1.29658e-07
2.08503e-08
5.33465e-07
1.76516e-09
4.41605e-10
1.48263e-09
7.92882e-07
5.77189e-08
1.71476e-08
1.73503e-09
4.89695e-08
3.03378e-08
3.00755e-08
4.3224e-08
7.32671e-09
2.08127e-08
1.48473e-09
3.44959e-08
9.73894e-07
8.75875e-08
6.23805e-07
7.57868e-07
8.05094e-07
1.17995e-06
1.3015e-07
2.7031e-07
1.11217e-06
2.34537e-08
1.6182e-08
1.93721e-08
1.69482e-07
1.76609e-07
1.23137e-06
3.2366e-07
1.1544e-06
2.90655e-07
5.22408e-09
6.67266e-11
1.79045e-08
6.45303e-07
5.91214e-07
2.29395e-07
8.42838e-07
4.59537e-09
1.72658e-08
6.61087e-08
5.50103e-07
1.47122e-07
6.57069e-08
4.76808e-08
5.94436e-07
7.28858e-07
5.48223e-07
4.16364e-07
2.05384e-07
6.63999e-08
1.63842e-08
8.10611e-07
1.14051e-06
5.16623e-07
8.50869e-07
1.19146e-06
1.29424e-06
1.00506e-06
3.9842e-07
6.80335e-07
1.16256e-06
1.96814e-07
2.14465e-07
2.45899e-07
6.74118e-07
8.00801e-07
1.39589e-06
9.93418e-07
1.73455e-06
7.48952e-07
2.90578e-09
1.69099e-10
4.08937e-07
1.14061e-06
1.11705e-06
7.14763e-07
1.2249e-06
2.15823e-09
3.09224e-07
1.36803e-06
1.51996e-07
3.75852e-07
2.67057e-07
7.43145e-07
1.13599e-06
1.43057e-06
1.04493e-06
9.19615e-07
8.96767e-07
3.89068e-07
1.42062e-07
1.99135e-06
1.08224e-06
9.74758e-07
1.02085e-06
1.68883e-06
1.59768e-06
8.59774e-07
9.11634e-07
1.02125e-06
4.31659e-07
1.06386e-06
1.56503e-06
9.86703e-07
1.1398e-06
1.2115e-06
1.40275e-06
2.06818e-06
1.79948e-06
2.34911e-06
2.77624e-07
6.71218e-08
1.11175e-06
1.50889e-06
1.77465e-06
1.18652e-06
1.11281e-06
1.7092e-09
1.5684e-06
2.4637e-06
4.806e-07
9.14629e-07
6.01063e-07
1.26194e-06
1.60912e-06
2.17689e-06
1.48122e-06
1.28145e-06
1.55164e-06
6.83366e-07
6.48833e-07
2.28441e-06
1.0389e-06
1.41246e-06
1.13533e-06
2.622e-06
1.51628e-06
1.25681e-06
1.53077e-06
1.26077e-06
1.40061e-06
1.73262e-06
2.04531e-06
3.02968e-06
2.55532e-06
4.9661e-06
2.12632e-06
1.95979e-06
1.36446e-06
3.0603e-06
1.6141e-06
1.37924e-06
1.61457e-06
2.28773e-06
3.49972e-06
2.12985e-06
1.52764e-06
3.31956e-07
1.80208e-06
3.37867e-06
1.19496e-06
1.79506e-06
7.65294e-07
5.58204e-07
2.22019e-06
2.94354e-06
1.5413e-06
1.44126e-06
1.96635e-06
1.22926e-06
9.54105e-07
2.56563e-06
1.01973e-06
1.67383e-06
1.49584e-06
3.29567e-06
2.2368e-06
2.46779e-06
1.99918e-06
2.70534e-06
6.29334e-07
2.49955e-06
5.3773e-06
3.90357e-06
2.24496e-06
2.36018e-06
3.80066e-06
5.37232e-06
1.39269e-06
2.13505e-06
4.97221e-06
8.35552e-07
1.76384e-06
3.60349e-06
3.39794e-06
2.35279e-06
2.44612e-06
8.17551e-07
1.00226e-06
1.28168e-06
1.55139e-06
1.17691e-06
1.48453e-06
2.89727e-06
3.22966e-06
3.77826e-06
1.14394e-06
1.02423e-06
2.59313e-06
2.41136e-06
8.58333e-07
2.65021e-06
1.91994e-06
3.05885e-06
2.89115e-06
3.12739e-06
8.01313e-06
3.90929e-06
3.08937e-06
1.52695e-06
9.56572e-07
7.00022e-07
1.95232e-05
1.03926e-05
2.89886e-06
6.68336e-06
3.04808e-06
5.01576e-06
2.23736e-06
3.94618e-06
2.48512e-06
1.89725e-06
8.03826e-06
2.78642e-05
1.65132e-06
5.31452e-06
2.89206e-06
2.27924e-08
2.3187e-06
2.36705e-06
1.63615e-06
1.53342e-06
4.24661e-06
2.65603e-06
9.58771e-06
3.61042e-06
9.07194e-06
2.95838e-06
2.10524e-06
1.99571e-06
5.03819e-07
2.70386e-06
5.42133e-06
6.1768e-06
6.05711e-06
4.80551e-06
1.36519e-05
2.14082e-06
8.07821e-06
1.11233e-06
4.68817e-06
2.93288e-06
4.97904e-07
2.3034e-05
1.36784e-06
7.12993e-06
3.70051e-06
2.93771e-06
4.03969e-06
1.87621e-06
7.24882e-06
5.00979e-06
1.12758e-05
2.2315e-05
5.27723e-07
1.19141e-05
4.96114e-06
5.01392e-06
1.71929e-06
6.32165e-06
3.54884e-06
2.98609e-06
6.87474e-06
1.22851e-06
2.07454e-05
2.007e-06
1.28014e-05
3.51255e-06
1.82602e-06
6.08696e-07
1.75502e-06
4.77474e-06
4.96066e-06
2.67562e-06
4.11211e-06
2.29065e-06
1.36242e-05
1.83928e-05
7.64482e-06
3.07318e-06
2.76116e-06
6.36884e-06
7.29368e-06
8.22917e-06
7.0456e-06
4.49487e-06
3.64188e-07
1.14781e-06
5.78675e-06
4.04505e-07
1.70057e-05
6.95946e-06
5.08809e-05
3.07974e-05
2.99243e-06
1.1355e-05
1.57984e-05
6.20717e-06
5.73963e-06
1.63821e-05
7.23414e-06
8.71919e-06
4.67133e-06
3.8245e-06
1.70734e-05
7.12897e-07
3.5726e-06
2.38056e-06
9.76788e-07
3.7716e-06
3.10871e-06
5.08907e-06
3.10438e-06
4.23973e-06
4.3425e-06
5.11193e-06
5.4343e-06
1.03524e-05
7.79405e-06
1.99825e-06
7.45102e-06
1.599e-05
7.1362e-06
4.11894e-06
7.11519e-06
1.01014e-05
1.54464e-06
1.79563e-06
8.70829e-06
2.1767e-06
7.43532e-06
5.25936e-06
1.797e-05
4.73503e-06
1.30808e-06
8.29092e-06
5.71745e-06
3.31884e-07
2.19201e-07
3.65067e-06
1.48681e-06
1.14495e-05
3.11391e-06
6.86336e-06
1.03781e-05
2.6245e-06
5.19474e-06
1.10733e-05
1.5169e-05
3.63259e-06
2.8696e-06
3.5321e-06
1.63369e-06
4.50156e-06
5.92967e-06
7.98965e-07
6.89125e-07
4.42604e-06
1.22028e-06
9.48096e-07
2.84262e-05
3.38064e-05
8.21309e-06
3.75968e-06
5.42822e-06
9.33024e-06
1.61929e-05
2.35426e-05
1.26184e-05
3.16832e-05
1.00209e-05
1.35243e-06
9.7346e-06
4.31143e-06
1.4449e-06
3.71027e-06
5.78795e-07
5.83229e-06
2.33909e-07
8.41134e-07
2.26873e-07
4.06067e-06
1.62548e-06
4.84716e-06
1.66983e-05
1.04666e-05
4.43384e-06
2.7878e-05
9.0341e-06
6.35308e-06
1.59889e-05
9.32818e-06
2.25959e-05
7.453e-05
7.0616e-07
9.00243e-07
6.54316e-07
1.96215e-06
3.3267e-06
3.9927e-06
5.97016e-05
1.58043e-05
1.14741e-05
1.77207e-05
1.20469e-06
7.20273e-06
7.53531e-05
3.11606e-05
6.73662e-06
1.4887e-06
7.5565e-06
6.05272e-06
9.99502e-06
4.26546e-07
1.61799e-06
2.32502e-06
6.46358e-05
2.84152e-05
1.16704e-06
4.89501e-07
8.31308e-06
1.87339e-06
2.27991e-06
1.69487e-06
7.16448e-06
2.91943e-06
3.14061e-06
1.66359e-05
9.1497e-06
1.39816e-05
1.51155e-05
2.99876e-05
4.17446e-05
8.55121e-06
7.71526e-07
1.10873e-06
1.15876e-06
1.34192e-05
6.2166e-06
4.52812e-05
5.11712e-05
7.26352e-06
1.57366e-05
4.31183e-06
3.91689e-06
4.89998e-06
0.000108192
3.21862e-05
3.29841e-05
7.82299e-07
3.39306e-06
1.16064e-05
8.84051e-06
2.60961e-07
4.6057e-06
5.25327e-05
8.52014e-07
1.17229e-05
2.26028e-06
8.94474e-06
6.50221e-06
9.8615e-06
8.64998e-07
7.738e-06
6.33303e-06
1.51639e-06
1.88395e-06
1.1542e-05
1.65655e-05
3.20704e-06
3.72794e-06
9.54808e-06
4.80618e-06
6.70769e-07
2.08543e-06
1.57515e-06
7.70146e-06
2.11753e-05
8.93818e-06
6.19606e-05
3.81384e-05
7.82718e-06
1.12718e-05
1.22542e-05
9.73791e-06
3.0025e-05
4.79744e-05
1.13089e-05
2.07539e-05
4.35358e-07
8.6209e-07
2.5374e-05
2.50218e-05
5.39093e-06
5.7507e-06
1.32265e-06
1.10658e-05
4.62222e-06
4.01723e-06
1.27297e-05
5.73515e-06
7.5422e-07
3.06207e-06
5.12309e-06
2.65247e-06
1.12055e-06
1.49849e-06
1.15035e-05
4.70663e-06
1.60906e-06
5.93426e-07
1.04361e-06
1.64385e-06
1.33418e-06
3.57297e-06
2.81773e-06
4.24993e-06
1.39543e-05
2.34021e-05
6.27222e-05
5.1931e-05
2.16729e-05
6.75967e-06
2.92351e-05
1.20476e-05
8.30292e-05
3.53368e-05
5.92988e-06
8.50716e-06
1.6823e-07
6.39528e-08
4.99218e-05
6.45943e-05
1.38171e-06
2.98739e-06
2.82337e-05
6.42499e-06
3.35123e-06
2.06405e-05
1.41792e-06
3.31213e-06
4.3427e-07
3.87488e-06
1.65068e-06
3.29662e-06
8.89542e-07
7.38873e-06
9.93983e-06
4.08456e-06
4.55095e-07
1.55612e-07
7.99986e-07
4.02901e-06
3.30556e-06
1.47315e-06
1.91623e-05
1.13606e-06
1.27625e-05
1.19692e-05
1.82075e-05
2.75639e-05
3.59963e-05
6.26384e-06
1.97445e-05
4.56155e-06
1.32212e-05
3.94963e-06
1.32659e-05
1.52572e-06
2.51225e-07
2.54326e-06
3.25927e-05
2.24291e-05
1.23026e-07
2.90377e-06
4.33876e-05
1.60575e-06
6.64606e-06
1.88108e-07
9.77556e-07
8.11781e-07
1.47519e-05
2.80128e-07
6.72273e-06
2.90539e-07
1.79373e-06
4.71458e-06
2.98309e-06
1.15722e-06
1.30678e-07
4.81808e-07
1.42739e-05
1.03087e-05
7.1163e-06
5.26221e-06
3.34577e-05
8.60482e-07
4.84755e-06
1.15903e-05
1.23826e-06
5.6027e-06
1.03087e-05
2.57711e-06
1.16846e-05
7.1389e-07
2.88154e-06
7.35133e-06
8.22644e-06
5.88485e-07
4.60679e-08
6.93446e-06
4.75922e-06
1.6781e-06
1.07989e-07
4.76813e-06
6.28606e-06
4.05594e-07
7.20663e-05
3.6191e-07
8.97637e-06
1.36356e-06
2.70244e-06
2.16273e-07
1.26046e-07
7.53596e-08
2.54683e-07
4.7314e-07
6.23686e-07
6.62519e-07
4.40307e-07
3.03101e-05
3.38943e-05
1.67517e-05
1.44281e-05
7.39789e-05
3.57235e-05
1.24327e-06
1.58082e-05
2.47903e-07
8.42394e-06
7.04651e-06
9.51132e-07
8.34885e-06
1.81648e-05
7.3265e-07
3.67621e-05
7.64431e-06
1.83814e-06
2.77178e-07
4.46859e-07
7.38647e-07
1.04863e-07
2.4294e-07
2.45061e-07
2.11006e-06
2.44715e-07
2.39729e-06
1.98965e-07
4.73167e-08
7.5968e-07
1.82947e-05
9.21623e-08
2.45772e-07
8.93585e-08
1.00876e-07
1.18926e-07
7.60416e-08
7.96153e-07
9.60983e-07
7.09629e-05
5.69592e-05
2.43083e-05
8.85636e-06
1.31607e-05
0.000115058
2.34947e-05
5.26504e-06
1.50964e-05
4.01853e-06
3.29394e-06
1.41071e-06
2.90604e-05
0.000126721
1.29708e-05
2.09453e-05
1.84282e-06
1.14397e-06
8.72356e-07
3.40545e-07
2.07996e-07
6.23134e-09
2.67397e-08
5.55552e-08
4.24537e-07
2.85659e-07
1.73363e-07
1.27832e-05
5.83967e-07
4.83991e-07
7.08452e-08
3.19801e-07
1.00455e-07
2.26912e-07
3.93636e-07
1.73321e-07
6.70982e-08
7.11374e-08
4.80705e-06
3.4271e-05
7.08508e-05
9.56716e-06
1.19835e-05
3.0294e-06
1.47419e-05
0.000126445
6.71093e-06
2.59024e-06
3.2711e-06
2.49699e-06
3.93682e-06
5.70758e-05
0.000146245
9.32855e-05
2.64485e-06
5.91121e-07
3.33204e-07
3.59906e-07
2.89984e-07
6.34743e-08
8.46632e-08
8.38173e-08
4.86679e-08
2.36907e-08
6.94739e-08
2.52797e-07
1.58686e-06
6.57176e-05
4.0131e-07
4.06824e-09
4.11419e-07
1.25302e-07
9.76445e-08
5.68344e-07
6.57567e-07
2.74549e-07
3.03755e-08
3.7064e-05
7.8949e-05
1.87501e-05
3.23659e-06
2.72593e-06
4.99644e-06
1.42626e-05
6.12988e-05
0.000104948
1.52751e-08
2.9691e-07
4.4917e-07
7.88851e-08
2.8463e-05
0.000108166
0.000137399
3.46086e-07
2.10565e-07
1.31033e-07
7.82711e-08
1.09011e-07
1.04858e-08
4.07455e-08
2.35037e-07
4.90398e-07
6.3486e-08
4.16526e-08
1.91583e-07
2.02526e-07
3.43086e-07
2.49784e-07
1.4395e-08
1.30959e-08
2.06391e-08
2.76177e-08
3.33052e-07
9.56496e-07
1.22041e-07
6.17804e-07
2.25186e-05
3.21372e-05
2.62073e-06
2.05812e-07
1.61311e-07
1.82458e-06
3.75471e-06
2.47626e-05
1.68901e-05
1.20548e-06
3.21303e-10
7.80632e-10
3.78728e-07
8.15558e-06
7.0204e-06
1.29045e-05
1.87184e-07
3.87019e-08
1.02456e-07
6.21791e-08
1.92449e-08
6.28646e-09
1.4141e-08
1.64923e-07
3.71323e-07
1.22683e-07
2.0553e-08
2.01565e-07
5.2188e-08
6.45045e-10
3.5232e-09
1.32476e-08
2.22263e-08
3.69077e-09
1.51531e-08
9.24241e-08
3.32279e-07
1.785e-07
1.18067e-07
1.9651e-06
7.87172e-06
1.09085e-06
3.17778e-09
1.51777e-09
1.05709e-07
5.54214e-07
1.69749e-06
7.03944e-07
4.5587e-07
6.15324e-09
7.69866e-09
7.30218e-07
5.03475e-06
5.3028e-06
7.57955e-08
1.27385e-08
5.8153e-09
4.14333e-08
9.23053e-08
1.45906e-08
1.41556e-09
5.10718e-11
2.15443e-08
6.15726e-08
7.44051e-08
1.33023e-08
6.17375e-08
3.25647e-08
2.71764e-10
1.62587e-09
5.48238e-09
1.99781e-08
8.35629e-09
6.18289e-09
3.13093e-08
7.55474e-08
5.42192e-08
2.35009e-09
2.32333e-07
6.62446e-07
3.66317e-07