/*--------------------------------*- C++ -*----------------------------------*\
  =========                 |
  \\      /  F ield         | OpenFOAM: The Open Source CFD Toolbox
   \\    /   O peration     | Website:  https://openfoam.org
    \\  /    A nd           | Version:  10
     \\/     M anipulation  |
\*---------------------------------------------------------------------------*/
FoamFile
{
    format      ascii;
    class       volVectorField;
    location    "15";
    object      U_0;
}
// * * * * * * * * * * * * * * * * * * * * * * * * * * * * * * * * * * * * * //

dimensions      [0 1 -1 0 0 0 0];

internalField   nonuniform List<vector> 
25600
(
(1.03209 -3.26658e-07 5.29096e-06)
(1.03212 -6.29144e-06 -1.02022e-05)
(1.03217 7.90031e-07 1.25986e-05)
(1.03205 -2.40547e-05 -7.47698e-06)
(1.03218 3.17432e-05 -1.23312e-06)
(1.03209 -1.56878e-05 4.66066e-06)
(1.0321 1.75325e-05 -4.00379e-07)
(1.03214 -5.21672e-05 -3.6263e-06)
(1.03209 2.68073e-06 1.11909e-05)
(1.03215 -2.02923e-05 -1.32128e-05)
(1.0321 -4.93406e-06 1.32943e-05)
(1.03214 2.22734e-05 -1.11487e-05)
(1.03211 -4.43714e-05 1.16131e-05)
(1.03213 4.42181e-05 -7.92106e-06)
(1.03211 -4.40722e-05 4.3474e-06)
(1.03214 4.26262e-05 -2.51898e-06)
(1.03211 -3.59978e-05 6.59181e-06)
(1.03212 3.60945e-05 -5.91194e-06)
(1.03213 2.62223e-06 -4.96132e-06)
(1.03208 -1.71137e-05 1.84372e-05)
(1.03215 2.00252e-05 -3.17074e-05)
(1.03209 -3.60111e-05 3.74884e-05)
(1.03212 5.07893e-05 -3.45491e-05)
(1.03211 -6.67314e-05 2.45768e-05)
(1.03211 2.62687e-05 -1.26581e-05)
(1.03214 -1.99072e-06 -3.27203e-06)
(1.0321 1.54868e-05 1.79346e-05)
(1.03212 2.21945e-05 -2.97387e-05)
(1.03211 -2.42461e-05 3.88746e-05)
(1.03211 1.30211e-05 -4.03312e-05)
(1.03214 -1.59744e-06 3.90901e-05)
(1.0321 -5.61926e-06 -3.09087e-05)
(1.03213 2.06476e-05 2.05717e-05)
(1.03212 2.84968e-05 -3.1642e-06)
(1.03208 -2.62598e-05 -1.098e-05)
(1.03214 2.48745e-05 2.97904e-05)
(1.03211 -2.83022e-06 -4.41064e-05)
(1.03212 5.5728e-06 4.98323e-05)
(1.03209 -1.33408e-05 -3.33909e-05)
(1.03215 -3.34745e-06 1.15675e-05)
(1.03208 -1.36658e-05 2.31052e-06)
(1.03213 -9.97331e-06 -6.88127e-06)
(1.03215 2.22276e-05 1.04693e-05)
(1.03205 -5.34374e-05 -3.49607e-07)
(1.03217 4.82521e-05 -5.24513e-06)
(1.0321 -5.56855e-05 9.76016e-06)
(1.03212 3.31082e-05 1.26891e-06)
(1.03213 -4.42991e-05 -4.3318e-06)
(1.03211 1.31531e-05 1.5829e-05)
(1.03213 -1.28244e-05 -1.39083e-05)
(1.03211 -1.61862e-05 1.68195e-05)
(1.03213 1.94321e-05 -1.06334e-05)
(1.03212 -3.949e-05 1.37982e-05)
(1.03211 3.97603e-05 -8.34582e-06)
(1.03212 -4.90039e-05 3.92122e-06)
(1.03214 4.79472e-05 1.77714e-06)
(1.03209 -4.67267e-05 5.25087e-07)
(1.03214 3.73753e-05 -2.12231e-06)
(1.03212 -1.67522e-05 -4.60352e-06)
(1.03211 6.85384e-06 1.48999e-05)
(1.03213 1.08132e-05 -2.92289e-05)
(1.03212 -2.181e-05 3.50104e-05)
(1.03212 4.3379e-05 -3.77918e-05)
(1.0321 -3.91967e-05 3.16284e-05)
(1.03212 3.19693e-05 -2.20483e-05)
(1.03211 -7.29166e-06 2.08314e-06)
(1.03211 1.30742e-05 1.42008e-05)
(1.03211 -8.48866e-08 -2.81283e-05)
(1.03212 1.2638e-05 4.04241e-05)
(1.0321 -2.00131e-06 -4.89212e-05)
(1.03212 1.88396e-05 5.16864e-05)
(1.0321 -1.87491e-05 -4.40443e-05)
(1.03212 2.43532e-05 2.95483e-05)
(1.03211 1.0397e-05 -7.88984e-06)
(1.0321 -3.09501e-05 -9.15233e-06)
(1.03213 4.81964e-05 2.72145e-05)
(1.0321 -4.08624e-05 -4.04821e-05)
(1.03213 3.18475e-05 5.04486e-05)
(1.03209 -2.51842e-05 -3.65267e-05)
(1.03215 1.67982e-05 1.83343e-05)
(1.03207 -1.52253e-05 4.83446e-06)
(1.03215 -1.47577e-05 -7.26644e-06)
(1.03213 2.7788e-05 1.16042e-05)
(1.03206 -6.23384e-05 6.21648e-06)
(1.03217 5.9542e-05 -1.17943e-05)
(1.03208 -6.56623e-05 2.23431e-05)
(1.03213 3.28248e-05 -7.50808e-06)
(1.03212 -4.20895e-05 6.67108e-06)
(1.03213 9.67219e-06 1.17071e-05)
(1.03212 -1.60022e-05 -7.89197e-06)
(1.03212 -1.32424e-05 1.63458e-05)
(1.03212 1.37288e-05 -7.16127e-06)
(1.03213 -3.07716e-05 1.53484e-05)
(1.03211 2.53593e-05 -1.00525e-05)
(1.03212 -2.76191e-05 7.35551e-06)
(1.03214 2.64671e-05 5.95382e-07)
(1.03209 -3.0656e-05 2.77795e-07)
(1.03215 3.3452e-05 -2.52707e-06)
(1.03211 -2.12885e-05 -3.55534e-07)
(1.03212 1.87362e-05 6.56562e-06)
(1.03212 -6.00019e-06 -2.20567e-05)
(1.03213 2.32805e-06 2.92445e-05)
(1.03211 1.16834e-05 -3.94576e-05)
(1.0321 -8.48653e-06 3.85154e-05)
(1.03213 6.71361e-06 -3.31899e-05)
(1.03211 1.14337e-05 1.1914e-05)
(1.03211 5.55631e-07 2.86926e-06)
(1.03212 5.963e-06 -1.70706e-05)
(1.03211 2.00699e-05 2.99907e-05)
(1.0321 -1.94683e-05 -4.47107e-05)
(1.03212 4.37735e-05 5.23065e-05)
(1.0321 -4.21413e-05 -4.77944e-05)
(1.03214 4.5596e-05 3.52697e-05)
(1.03208 -3.31967e-06 -1.55695e-05)
(1.03212 -2.32873e-05 1.5814e-06)
(1.03212 5.39624e-05 1.26413e-05)
(1.0321 -5.59291e-05 -2.18837e-05)
(1.03213 5.0683e-05 3.57354e-05)
(1.03208 -4.04122e-05 -2.67895e-05)
(1.03216 2.68087e-05 1.6707e-05)
(1.03205 -9.58083e-06 1.11214e-05)
(1.03216 -2.23362e-05 -1.13644e-05)
(1.03211 2.72776e-05 1.84192e-05)
(1.03207 -5.69953e-05 6.17474e-06)
(1.03217 4.84837e-05 -1.02472e-05)
(1.03207 -6.46467e-05 2.93579e-05)
(1.03214 2.83381e-05 -1.38246e-05)
(1.03211 -4.04193e-05 1.90091e-05)
(1.03213 1.51264e-05 6.81398e-06)
(1.03211 -2.46156e-05 1.29204e-06)
(1.03213 -1.254e-06 1.28704e-05)
(1.03212 -4.88677e-06 1.15351e-06)
(1.03213 -1.11394e-05 1.10578e-05)
(1.03211 4.33595e-06 -5.21186e-06)
(1.03212 -8.07472e-06 6.69962e-06)
(1.03214 8.80566e-06 7.47316e-08)
(1.0321 -1.96365e-05 2.32416e-06)
(1.03215 2.84922e-05 -5.71788e-06)
(1.03211 -2.4174e-05 6.10358e-06)
(1.03212 2.71663e-05 -4.58929e-06)
(1.03211 -1.27454e-05 -1.12531e-05)
(1.03213 1.45558e-05 1.97553e-05)
(1.03211 -3.43852e-06 -3.95004e-05)
(1.0321 1.3226e-05 4.49199e-05)
(1.03213 -6.10996e-06 -4.61316e-05)
(1.03211 2.41924e-05 2.59243e-05)
(1.0321 -1.44079e-05 -1.40918e-05)
(1.03213 2.11534e-05 5.69772e-07)
(1.0321 1.21878e-05 1.42381e-05)
(1.03211 -1.2509e-05 -3.29778e-05)
(1.0321 4.29684e-05 4.46525e-05)
(1.0321 -3.90346e-05 -4.46664e-05)
(1.03215 4.38423e-05 3.71288e-05)
(1.03205 -7.47085e-06 -2.36592e-05)
(1.03214 -1.53808e-05 1.39413e-05)
(1.03211 4.71916e-05 -4.50665e-06)
(1.0321 -5.57363e-05 4.75169e-07)
(1.03214 5.31083e-05 1.46252e-05)
(1.03207 -3.98172e-05 -9.59657e-06)
(1.03217 2.58358e-05 1.00218e-05)
(1.03203 -7.30469e-06 2.02489e-05)
(1.03217 -2.49334e-05 -1.8056e-05)
(1.0321 2.17447e-05 3.07678e-05)
(1.03208 -4.31954e-05 -3.1995e-07)
(1.03217 2.88582e-05 4.45457e-07)
(1.03207 -4.97146e-05 2.54633e-05)
(1.03215 1.64564e-05 -8.32368e-06)
(1.03211 -3.89441e-05 2.30788e-05)
(1.03214 2.09653e-05 9.60296e-06)
(1.0321 -3.80629e-05 6.09557e-06)
(1.03213 1.78723e-05 1.25181e-05)
(1.03212 -3.00839e-05 9.78172e-06)
(1.03214 1.51932e-05 4.26197e-06)
(1.03211 -2.13585e-05 4.22894e-06)
(1.03213 1.77178e-05 1.12617e-06)
(1.03213 -1.21584e-05 3.2899e-06)
(1.03211 -3.19498e-06 1.32242e-06)
(1.03214 1.96551e-05 -8.2759e-06)
(1.03211 -2.11288e-05 1.04106e-05)
(1.03212 3.10701e-05 -1.42485e-05)
(1.03211 -1.73267e-05 -2.23183e-06)
(1.03213 2.12344e-05 1.00732e-05)
(1.03211 -1.36676e-05 -3.82724e-05)
(1.0321 2.44013e-05 4.94994e-05)
(1.03213 -1.25226e-05 -5.90276e-05)
(1.03211 2.69892e-05 4.25471e-05)
(1.0321 -1.58744e-05 -3.38717e-05)
(1.03214 2.58868e-05 2.00408e-05)
(1.03209 8.77043e-06 -2.80839e-06)
(1.03213 -6.24923e-06 -1.90335e-05)
(1.0321 3.54243e-05 3.48249e-05)
(1.0321 -2.47917e-05 -3.84644e-05)
(1.03216 2.90546e-05 3.46971e-05)
(1.03204 4.92401e-06 -2.59521e-05)
(1.03216 -1.82201e-05 1.93733e-05)
(1.0321 4.86176e-05 -1.26599e-05)
(1.0321 -5.88767e-05 1.49718e-05)
(1.03215 5.76905e-05 -9.4562e-07)
(1.03206 -4.19691e-05 7.08226e-06)
(1.03218 2.68244e-05 1.71365e-06)
(1.03201 -2.01054e-05 2.67615e-05)
(1.03218 -1.45379e-05 -2.20847e-05)
(1.0321 6.27976e-06 4.27862e-05)
(1.03208 -2.5085e-05 -9.22396e-06)
(1.03216 5.91968e-06 1.65252e-05)
(1.03207 -3.27546e-05 1.35891e-05)
(1.03215 1.26894e-06 7.5496e-06)
(1.03212 -3.3042e-05 1.83083e-05)
(1.03214 2.29921e-05 2.08761e-05)
(1.0321 -4.36256e-05 3.72693e-06)
(1.03213 2.93297e-05 1.92032e-05)
(1.03212 -4.64266e-05 1.31841e-05)
(1.03214 3.21066e-05 1.19286e-06)
(1.03211 -3.88927e-05 1.11537e-05)
(1.03213 3.82659e-05 -2.5873e-06)
(1.03213 -3.08273e-05 4.77265e-06)
(1.03212 1.6218e-05 2.46542e-06)
(1.03214 3.74042e-07 -1.21957e-05)
(1.03211 -3.92603e-06 1.1782e-05)
(1.03212 2.05943e-05 -1.96426e-05)
(1.03211 -7.57779e-06 3.04397e-06)
(1.03213 1.63063e-05 2.51936e-06)
(1.03211 -1.27519e-05 -3.78289e-05)
(1.0321 3.00431e-05 5.20715e-05)
(1.03213 -1.48189e-05 -6.9491e-05)
(1.03211 2.92235e-05 5.69913e-05)
(1.0321 -1.55066e-05 -5.15199e-05)
(1.03214 2.6138e-05 3.88703e-05)
(1.03208 1.06433e-05 -1.95099e-05)
(1.03213 -2.58705e-06 -4.49655e-06)
(1.03209 3.15634e-05 2.28557e-05)
(1.03209 -1.4892e-05 -2.95501e-05)
(1.03217 1.86601e-05 2.86566e-05)
(1.03202 1.2005e-05 -2.23569e-05)
(1.03217 -1.63433e-05 1.65122e-05)
(1.03208 4.6405e-05 -9.96986e-06)
(1.0321 -6.05888e-05 1.82067e-05)
(1.03215 6.34422e-05 -6.27689e-06)
(1.03205 -5.13585e-05 1.7278e-05)
(1.03219 3.995e-05 -2.40853e-06)
(1.032 -3.69992e-05 2.8669e-05)
(1.03219 2.26214e-06 -1.92932e-05)
(1.0321 -1.54016e-05 4.85236e-05)
(1.03208 -5.10726e-06 -1.2857e-05)
(1.03216 -1.73671e-05 2.95567e-05)
(1.03207 -1.42071e-05 1.85785e-06)
(1.03215 -1.60809e-05 2.71732e-05)
(1.03213 -2.35865e-05 9.04794e-06)
(1.03213 1.92154e-05 3.7904e-05)
(1.03211 -4.11111e-05 -3.26801e-06)
(1.03213 3.03946e-05 3.13526e-05)
(1.03212 -4.84309e-05 1.1691e-05)
(1.03214 3.30008e-05 4.27092e-06)
(1.03211 -3.84747e-05 1.04475e-05)
(1.03213 4.38316e-05 7.35522e-07)
(1.03212 -3.62624e-05 -6.41309e-07)
(1.03212 2.78367e-05 1.00091e-05)
(1.03213 -1.44298e-05 -2.07597e-05)
(1.03212 1.6107e-05 1.46321e-05)
(1.03212 2.7999e-06 -2.50477e-05)
(1.03211 1.27339e-05 5.76703e-06)
(1.03213 -9.19135e-07 -2.04637e-06)
(1.03212 -3.87282e-07 -3.86389e-05)
(1.0321 2.41556e-05 5.24288e-05)
(1.03213 -9.85174e-06 -7.61687e-05)
(1.03211 2.63403e-05 6.8291e-05)
(1.0321 -1.12165e-05 -6.47248e-05)
(1.03215 2.41813e-05 5.4159e-05)
(1.03207 1.52337e-05 -3.34164e-05)
(1.03214 -1.02668e-06 8.46436e-06)
(1.03209 2.93106e-05 1.16661e-05)
(1.03209 -7.25372e-06 -1.99278e-05)
(1.03218 1.21671e-05 1.98729e-05)
(1.03201 1.46482e-05 -1.50799e-05)
(1.03218 -7.85459e-06 6.27449e-06)
(1.03207 3.44104e-05 7.95546e-07)
(1.03211 -5.053e-05 1.12314e-05)
(1.03215 5.6794e-05 -1.01804e-06)
(1.03205 -5.33917e-05 1.91827e-05)
(1.0322 5.09508e-05 -3.95073e-07)
(1.03199 -4.71914e-05 2.54949e-05)
(1.03219 1.20339e-05 -9.89361e-06)
(1.0321 -3.24488e-05 4.67568e-05)
(1.03208 5.91316e-06 -9.69218e-06)
(1.03216 -3.20898e-05 3.5408e-05)
(1.03207 -1.81843e-06 -2.37431e-06)
(1.03214 -3.09701e-05 4.28006e-05)
(1.03214 -1.38321e-05 3.23341e-06)
(1.03213 1.22535e-05 5.28161e-05)
(1.03211 -3.15317e-05 -8.94287e-06)
(1.03213 2.64599e-05 4.5039e-05)
(1.03212 -4.20016e-05 8.94779e-06)
(1.03214 2.22231e-05 1.00692e-05)
(1.03212 -2.54443e-05 5.08519e-06)
(1.03213 3.79586e-05 8.89303e-06)
(1.03212 -2.92864e-05 -1.20761e-05)
(1.03213 2.72551e-05 2.34149e-05)
(1.03213 -1.95902e-05 -3.45811e-05)
(1.03212 2.72668e-05 2.05709e-05)
(1.03212 -6.20604e-06 -3.33676e-05)
(1.0321 2.89049e-05 9.9819e-06)
(1.03213 -1.63613e-05 -7.06131e-06)
(1.03213 1.20823e-05 -3.8049e-05)
(1.03209 1.48244e-05 4.90707e-05)
(1.03213 1.33398e-06 -7.73187e-05)
(1.0321 1.90383e-05 7.43365e-05)
(1.0321 -2.35365e-06 -7.02885e-05)
(1.03216 1.70993e-05 6.4926e-05)
(1.03207 2.45144e-05 -4.30593e-05)
(1.03214 -1.68355e-06 1.87995e-05)
(1.03209 3.00182e-05 3.90499e-06)
(1.03209 -3.03003e-06 -1.13257e-05)
(1.03218 7.31093e-06 1.24492e-05)
(1.03201 1.48906e-05 -7.26288e-06)
(1.03218 1.63159e-06 -7.64214e-06)
(1.03206 1.85832e-05 1.49699e-05)
(1.03212 -3.64508e-05 -6.10837e-07)
(1.03215 3.99723e-05 1.07117e-05)
(1.03205 -4.66419e-05 1.46239e-05)
(1.0322 5.36235e-05 6.04852e-06)
(1.03198 -4.95999e-05 2.20432e-05)
(1.0322 1.38609e-05 3.12498e-06)
(1.03209 -4.21597e-05 3.99178e-05)
(1.03208 9.07482e-07 -1.73888e-06)
(1.03216 -3.40908e-05 3.3763e-05)
(1.03207 -9.5085e-07 1.80022e-07)
(1.03214 -3.70048e-05 5.49381e-05)
(1.03215 -1.13342e-05 2.60157e-06)
(1.03212 5.92829e-06 6.19765e-05)
(1.03211 -2.16554e-05 -8.77239e-06)
(1.03213 2.29888e-05 5.51569e-05)
(1.03212 -3.33373e-05 1.13908e-05)
(1.03215 7.23868e-06 1.37241e-05)
(1.03212 -1.04486e-05 -2.12967e-06)
(1.03213 2.94675e-05 1.64042e-05)
(1.03211 -1.67738e-05 -2.22633e-05)
(1.03213 2.20981e-05 3.9267e-05)
(1.03213 -2.05517e-05 -4.96826e-05)
(1.03213 3.02487e-05 2.68566e-05)
(1.03212 -7.85546e-06 -4.25487e-05)
(1.0321 3.9627e-05 1.63256e-05)
(1.03212 -2.47944e-05 -1.15461e-05)
(1.03214 1.7056e-05 -3.49608e-05)
(1.03209 8.32881e-06 4.11508e-05)
(1.03214 7.56963e-06 -7.23056e-05)
(1.0321 1.61166e-05 7.58151e-05)
(1.0321 5.00768e-06 -6.64442e-05)
(1.03216 1.09144e-05 7.01059e-05)
(1.03206 3.08554e-05 -4.83014e-05)
(1.03214 -1.46964e-06 2.59195e-05)
(1.03209 3.20851e-05 9.74469e-08)
(1.03208 -3.22001e-07 -4.1165e-06)
(1.03219 3.06065e-06 8.34434e-06)
(1.03201 1.30996e-05 -3.097e-06)
(1.03218 9.39911e-06 -2.16655e-05)
(1.03205 5.87773e-06 2.86373e-05)
(1.03212 -2.38655e-05 -1.11442e-05)
(1.03215 1.89356e-05 2.40422e-05)
(1.03205 -4.05293e-05 7.09101e-06)
(1.0322 5.06766e-05 1.21362e-05)
(1.03197 -5.16563e-05 2.14062e-05)
(1.0322 1.04405e-05 1.72423e-05)
(1.03209 -4.89126e-05 3.30809e-05)
(1.03208 -1.48057e-05 4.10963e-06)
(1.03216 -3.01039e-05 2.75209e-05)
(1.03206 -1.15385e-05 8.20861e-06)
(1.03214 -3.50017e-05 6.58847e-05)
(1.03215 -1.74843e-05 5.42917e-06)
(1.03212 2.13684e-06 6.74226e-05)
(1.03212 -1.6634e-05 -4.56439e-06)
(1.03212 2.4088e-05 6.47232e-05)
(1.03211 -2.71256e-05 2.07367e-05)
(1.03215 -7.54612e-06 1.38464e-05)
(1.03213 4.87447e-07 -8.46753e-06)
(1.03213 2.30256e-05 2.00354e-05)
(1.03211 -4.73824e-06 -2.56954e-05)
(1.03213 1.73904e-05 5.37405e-05)
(1.03213 -2.27382e-05 -6.06741e-05)
(1.03213 2.75515e-05 2.8106e-05)
(1.03212 -4.77457e-06 -4.83975e-05)
(1.0321 4.85972e-05 2.3717e-05)
(1.03212 -3.0747e-05 -1.1625e-05)
(1.03214 1.85193e-05 -3.16712e-05)
(1.03209 1.61369e-06 3.08984e-05)
(1.03214 1.23002e-05 -6.31606e-05)
(1.0321 1.42222e-05 7.57671e-05)
(1.0321 1.20681e-05 -5.18822e-05)
(1.03217 4.30718e-06 7.19818e-05)
(1.03206 3.3949e-05 -5.06816e-05)
(1.03214 3.56886e-07 2.97499e-05)
(1.03209 3.21527e-05 2.92964e-06)
(1.03207 2.64687e-06 2.62843e-06)
(1.03219 -3.62437e-06 8.26578e-06)
(1.03201 1.12756e-05 -4.11003e-06)
(1.03218 1.09011e-05 -3.46754e-05)
(1.03204 -1.4696e-06 4.06217e-05)
(1.03212 -1.89691e-05 -1.64187e-05)
(1.03214 -2.48431e-06 3.56837e-05)
(1.03206 -4.16931e-05 -1.84744e-06)
(1.03219 4.70749e-05 1.59082e-05)
(1.03196 -5.50188e-05 2.80942e-05)
(1.0322 6.5207e-06 3.28386e-05)
(1.03208 -6.29817e-05 2.9843e-05)
(1.03208 -4.115e-05 2.49626e-06)
(1.03216 -2.8134e-05 1.74737e-05)
(1.03206 -2.58707e-05 1.95506e-05)
(1.03214 -2.90855e-05 8.40183e-05)
(1.03216 -3.25651e-05 9.37501e-06)
(1.03212 -7.31731e-06 6.62305e-05)
(1.03212 -1.74007e-05 3.20042e-07)
(1.03212 3.13706e-05 8.03975e-05)
(1.0321 -2.24093e-05 3.87092e-05)
(1.03216 -2.30649e-05 1.18781e-05)
(1.03213 1.53331e-06 -1.95989e-05)
(1.03212 1.9804e-05 2.01895e-05)
(1.03211 5.97126e-06 -1.84404e-05)
(1.03212 1.74686e-05 7.17233e-05)
(1.03213 -3.17511e-05 -6.59871e-05)
(1.03213 1.7415e-05 2.05061e-05)
(1.03213 -2.03659e-07 -4.91806e-05)
(1.03209 5.86912e-05 3.35483e-05)
(1.03211 -3.27179e-05 4.92371e-07)
(1.03215 1.33485e-05 -3.10011e-05)
(1.03209 -1.24131e-05 2.05771e-05)
(1.03214 1.411e-05 -5.40271e-05)
(1.0321 1.48642e-05 8.23195e-05)
(1.03209 2.25812e-05 -2.66585e-05)
(1.03217 -9.27243e-06 7.49994e-05)
(1.03206 3.10929e-05 -5.39667e-05)
(1.03214 -1.84567e-06 3.21553e-05)
(1.03209 3.76078e-05 1.25451e-05)
(1.03206 2.11995e-06 1.54497e-05)
(1.03219 -1.38182e-05 1.25797e-05)
(1.03202 5.90687e-07 -1.31238e-05)
(1.03217 7.21126e-06 -4.89356e-05)
(1.03204 -2.70594e-06 5.3943e-05)
(1.03212 -2.03914e-05 -1.2738e-05)
(1.03213 -2.87434e-05 4.43225e-05)
(1.03207 -5.72748e-05 -1.5071e-05)
(1.03219 4.25988e-05 1.21354e-05)
(1.03195 -5.59024e-05 4.19334e-05)
(1.03219 3.98508e-06 5.29487e-05)
(1.03207 -8.72719e-05 3.08974e-05)
(1.03209 -8.64312e-05 -1.22679e-05)
(1.03216 -3.77652e-05 4.4476e-06)
(1.03206 -4.01175e-05 3.47732e-05)
(1.03213 -2.09086e-05 0.000113029)
(1.03216 -5.62377e-05 1.23396e-05)
(1.03212 -2.89207e-05 6.05654e-05)
(1.03213 -2.98671e-05 2.25954e-06)
(1.03212 4.20408e-05 0.000107895)
(1.03209 -1.41636e-05 6.67266e-05)
(1.03216 -4.11452e-05 1.14827e-05)
(1.03214 -1.05844e-05 -3.98567e-05)
(1.03212 1.22946e-05 1.70814e-05)
(1.03211 1.61515e-05 -2.2242e-07)
(1.03211 2.37944e-05 9.97742e-05)
(1.03213 -4.94258e-05 -6.62941e-05)
(1.03214 -5.31557e-06 3.23715e-06)
(1.03214 -2.92252e-07 -4.62808e-05)
(1.03208 7.12731e-05 5.04235e-05)
(1.0321 -2.74075e-05 2.87141e-05)
(1.03215 2.12573e-06 -3.33798e-05)
(1.03209 -3.75692e-05 9.30364e-06)
(1.03214 6.93181e-06 -4.75997e-05)
(1.0321 1.91403e-05 0.000101342)
(1.03209 3.63005e-05 1.22447e-05)
(1.03217 -2.84267e-05 8.28584e-05)
(1.03206 1.59224e-05 -6.63863e-05)
(1.03214 -1.26387e-05 3.51831e-05)
(1.03209 4.56662e-05 3.00694e-05)
(1.03205 2.88004e-06 3.98751e-05)
(1.03218 -2.66974e-05 1.96046e-05)
(1.03202 -2.87392e-05 -2.90525e-05)
(1.03217 -4.61944e-06 -6.95434e-05)
(1.03203 -2.38009e-06 7.18189e-05)
(1.03211 -2.0509e-05 2.85964e-06)
(1.03212 -6.59555e-05 5.1856e-05)
(1.03208 -8.88584e-05 -3.81868e-05)
(1.03219 2.69309e-05 5.43651e-07)
(1.03194 -4.87179e-05 6.88835e-05)
(1.03218 1.95995e-06 8.63122e-05)
(1.03204 -0.000126074 3.04862e-05)
(1.03209 -0.000160331 -5.39841e-05)
(1.03216 -6.26912e-05 -1.72296e-05)
(1.03206 -5.43109e-05 6.17376e-05)
(1.03212 -1.00014e-05 0.000165265)
(1.03215 -9.76285e-05 9.03381e-06)
(1.03212 -7.38069e-05 3.65765e-05)
(1.03213 -5.94286e-05 -4.76558e-06)
(1.03212 5.96423e-05 0.000159985)
(1.03207 2.04831e-07 0.000113797)
(1.03215 -6.80834e-05 1.02314e-05)
(1.03214 -4.70821e-05 -8.39122e-05)
(1.03212 -5.41999e-06 9.98725e-06)
(1.0321 2.89894e-05 3.78101e-05)
(1.03209 3.72551e-05 0.000149072)
(1.03212 -8.32642e-05 -6.54381e-05)
(1.03214 -4.99977e-05 -3.1544e-05)
(1.03214 -1.0857e-05 -4.31082e-05)
(1.03207 8.9996e-05 8.53494e-05)
(1.03208 -1.34898e-05 8.10625e-05)
(1.03214 -2.09182e-05 -3.93723e-05)
(1.03208 -8.70523e-05 -1.32204e-05)
(1.03215 -1.21598e-05 -4.6558e-05)
(1.0321 3.2885e-05 0.000142695)
(1.03207 5.58827e-05 7.43514e-05)
(1.03216 -5.83238e-05 9.52389e-05)
(1.03206 -2.50164e-05 -9.83989e-05)
(1.03214 -3.38055e-05 3.36503e-05)
(1.03208 6.00166e-05 6.11313e-05)
(1.03203 7.15596e-06 8.89727e-05)
(1.03217 -5.2081e-05 2.32233e-05)
(1.03202 -8.3948e-05 -6.34605e-05)
(1.03217 -2.8318e-05 -0.000104169)
(1.03202 1.23538e-06 0.000104316)
(1.03209 -1.93431e-05 3.56411e-05)
(1.03211 -0.000122099 5.58511e-05)
(1.03209 -0.000146179 -8.58672e-05)
(1.03219 -8.32122e-06 -2.5691e-05)
(1.03194 -2.47751e-05 0.000110494)
(1.03216 9.04105e-06 0.000145596)
(1.03201 -0.000188069 2.59236e-05)
(1.0321 -0.000286429 -0.000139492)
(1.03217 -0.000110455 -6.28032e-05)
(1.03206 -5.93315e-05 0.000101614)
(1.03211 1.17868e-05 0.000250569)
(1.03214 -0.00016403 -1.14877e-06)
(1.03212 -0.000164171 -2.22296e-05)
(1.03215 -0.000117922 -3.61182e-05)
(1.03212 9.45694e-05 0.000240262)
(1.03204 3.02509e-05 0.000192317)
(1.03214 -0.000108345 8.57284e-06)
(1.03215 -0.000126575 -0.000169869)
(1.03213 -4.21752e-05 -1.75811e-05)
(1.0321 5.32549e-05 9.81406e-05)
(1.03207 6.64506e-05 0.000236507)
(1.0321 -0.000138405 -6.60912e-05)
(1.03215 -0.000136529 -0.00010083)
(1.03216 -4.14796e-05 -5.24881e-05)
(1.03206 0.000123922 0.000145254)
(1.03205 1.82108e-05 0.00016915)
(1.03212 -6.10845e-05 -4.96129e-05)
(1.03208 -0.000179585 -6.46086e-05)
(1.03217 -5.44659e-05 -6.22239e-05)
(1.03211 6.09812e-05 0.000212174)
(1.03205 8.93553e-05 0.000173584)
(1.03214 -0.000103386 0.00011041)
(1.03206 -0.0001094 -0.000167956)
(1.03215 -7.67331e-05 1.65874e-05)
(1.03208 8.47439e-05 0.000108838)
(1.03201 2.7919e-05 0.000173591)
(1.03215 -9.74955e-05 2.37219e-05)
(1.03202 -0.000186246 -0.000132752)
(1.03218 -7.76437e-05 -0.000169694)
(1.03201 1.8166e-05 0.000156674)
(1.03206 -4.93468e-06 9.669e-05)
(1.03208 -0.000205625 5.43902e-05)
(1.03211 -0.000251018 -0.000179985)
(1.0322 -7.10935e-05 -7.93404e-05)
(1.03194 2.40871e-05 0.000178472)
(1.03215 3.71243e-05 0.000264443)
(1.03202 -0.000285459 2.63999e-05)
(1.03215 -0.000483525 -0.000295742)
(1.03222 -0.000201709 -0.000154089)
(1.03208 -5.02346e-05 0.000168304)
(1.03211 5.02874e-05 0.000399261)
(1.03215 -0.000266516 -1.26758e-05)
(1.03217 -0.000318105 -0.000148262)
(1.03219 -0.000218251 -0.000119888)
(1.03212 0.000153439 0.00036047)
(1.03202 8.3508e-05 0.000337615)
(1.03216 -0.000174198 1.32488e-05)
(1.03219 -0.000272434 -0.000323991)
(1.03216 -0.000107932 -8.57201e-05)
(1.03212 9.79301e-05 0.000194426)
(1.03206 0.000119737 0.000394044)
(1.03212 -0.000228036 -6.13707e-05)
(1.0322 -0.000283006 -0.000231109)
(1.0322 -0.00010227 -9.6755e-05)
(1.03207 0.000185373 0.000243076)
(1.03205 7.83836e-05 0.000327079)
(1.03214 -0.000126359 -5.35939e-05)
(1.03213 -0.000337508 -0.00017054)
(1.03221 -0.000127291 -0.000118307)
(1.03213 0.000114832 0.000322999)
(1.03204 0.000145963 0.000344643)
(1.03216 -0.000176266 0.000135561)
(1.03211 -0.000259575 -0.000302368)
(1.03218 -0.000147493 -4.55626e-05)
(1.03209 0.000131493 0.00018523)
(1.03199 7.3393e-05 0.000328975)
(1.03217 -0.000169375 2.87138e-05)
(1.03207 -0.000353047 -0.000263657)
(1.03223 -0.000161516 -0.000291144)
(1.03202 5.44274e-05 0.00023835)
(1.03204 3.24162e-05 0.000220394)
(1.0321 -0.000326158 5.79646e-05)
(1.03217 -0.00042629 -0.000348881)
(1.03225 -0.000172734 -0.000188689)
(1.03196 0.00010956 0.000261714)
(1.03223 8.8152e-05 0.00054358)
(1.03218 -0.000445772 0.000151148)
(1.03235 -0.000779521 -0.00049195)
(1.03233 -0.000333917 -0.000351627)
(1.03214 -1.096e-05 0.000252213)
(1.03219 0.000105332 0.000701204)
(1.03233 -0.000431688 9.10782e-05)
(1.03233 -0.000571909 -0.000322269)
(1.0323 -0.000358303 -0.000325717)
(1.03213 0.000254521 0.000488595)
(1.03209 0.000167185 0.000641428)
(1.03232 -0.000286957 0.000143557)
(1.03235 -0.000518149 -0.000526964)
(1.03225 -0.000208076 -0.000250886)
(1.03217 0.000180408 0.000318602)
(1.03215 0.000199901 0.000715573)
(1.03232 -0.000381291 5.96983e-05)
(1.03238 -0.000522909 -0.000407605)
(1.03229 -0.000196053 -0.000238299)
(1.0321 0.000290922 0.000357593)
(1.03215 0.000168328 0.000649581)
(1.03232 -0.000244141 7.41589e-05)
(1.03234 -0.000592226 -0.000311543)
(1.03232 -0.000229831 -0.000289366)
(1.03218 0.000212244 0.000452677)
(1.03212 0.000227645 0.000666403)
(1.03234 -0.000299066 0.000280869)
(1.0323 -0.00050521 -0.000479214)
(1.03226 -0.000252922 -0.000222852)
(1.03211 0.000216083 0.000261347)
(1.03205 0.000145204 0.00064677)
(1.03235 -0.000295548 0.000164268)
(1.03227 -0.00061779 -0.000430686)
(1.03234 -0.000281323 -0.000526322)
(1.03204 0.000128897 0.00033053)
(1.03212 9.22059e-05 0.000500652)
(1.03227 -0.00051075 0.000190212)
(1.03238 -0.000707815 -0.000562504)
(1.03235 -0.000314979 -0.000410119)
(1.032 0.000207026 0.000318378)
(1.03249 0.000128779 0.00118795)
(1.03254 -0.000675487 0.000698906)
(1.0326 -0.00118094 -0.000576281)
(1.03241 -0.000522491 -0.000728403)
(1.03221 3.11752e-05 0.000326647)
(1.0324 0.000153234 0.0013297)
(1.03266 -0.000661531 0.000603468)
(1.03252 -0.000924789 -0.000405605)
(1.03233 -0.00055083 -0.000742199)
(1.03212 0.000357705 0.000545574)
(1.0323 0.000244742 0.00128186)
(1.03265 -0.000460682 0.000700666)
(1.0325 -0.000859237 -0.000634379)
(1.03228 -0.000359379 -0.000570797)
(1.03223 0.000273355 0.000432323)
(1.03245 0.000274416 0.00138679)
(1.03273 -0.000600788 0.000584149)
(1.0326 -0.000848185 -0.000514226)
(1.03229 -0.000330069 -0.000569438)
(1.03218 0.000408027 0.000428757)
(1.03247 0.000252204 0.00131386)
(1.03273 -0.000429365 0.000651295)
(1.03265 -0.000946385 -0.000353995)
(1.03239 -0.000361355 -0.000697835)
(1.03231 0.000321026 0.000524905)
(1.0324 0.000299112 0.00128522)
(1.03274 -0.000491957 0.000819433)
(1.03259 -0.000838618 -0.000574618)
(1.03226 -0.000393849 -0.000628956)
(1.03214 0.000309702 0.000264866)
(1.03228 0.000209437 0.00130175)
(1.03276 -0.000489579 0.000735741)
(1.03256 -0.000975684 -0.00048843)
(1.03242 -0.000440624 -0.000955564)
(1.03207 0.000215539 0.000371114)
(1.0324 0.000148799 0.00113024)
(1.03265 -0.000763242 0.000773511)
(1.03264 -0.00108684 -0.000673045)
(1.0324 -0.000501228 -0.000827548)
(1.03183 0.000196401 0.000354995)
(1.03255 8.14111e-05 0.0023965)
(1.03238 -0.000922281 0.00185364)
(1.03197 -0.0015703 -0.000533467)
(1.03189 -0.000760867 -0.00140637)
(1.03191 -2.55786e-05 0.000416295)
(1.03234 0.000130749 0.00246217)
(1.03236 -0.00089369 0.00172201)
(1.03184 -0.0012623 -0.000370279)
(1.03166 -0.000788032 -0.0014878)
(1.03193 0.000343959 0.000524695)
(1.03232 0.000230721 0.00245492)
(1.03243 -0.000648803 0.00188094)
(1.03163 -0.00119578 -0.000616594)
(1.03173 -0.000565132 -0.00109154)
(1.03203 0.000254168 0.000571035)
(1.03262 0.000259065 0.0026177)
(1.03252 -0.000827426 0.0016913)
(1.03196 -0.00115507 -0.000545029)
(1.03159 -0.000519131 -0.00119471)
(1.03211 0.00040618 0.000455321)
(1.03268 0.000234888 0.00251875)
(1.03264 -0.000628351 0.00189482)
(1.03215 -0.00129114 -0.000305835)
(1.03192 -0.000535284 -0.00150287)
(1.03235 0.000309165 0.000515848)
(1.03262 0.000273313 0.0023462)
(1.03261 -0.000705139 0.00191238)
(1.03215 -0.00115204 -0.000594216)
(1.03161 -0.000586009 -0.00143147)
(1.03202 0.000291671 0.000170983)
(1.03239 0.000182145 0.00249293)
(1.03271 -0.00070045 0.00193912)
(1.03201 -0.00131635 -0.000447834)
(1.03192 -0.000632207 -0.00170079)
(1.03188 0.000195253 0.000358465)
(1.0326 0.000113573 0.00230111)
(1.03247 -0.00102519 0.00201428)
(1.03203 -0.00144578 -0.000673398)
(1.03176 -0.000724977 -0.00157127)
(1.03052 -1.85183e-05 0.000738964)
(1.0306 -1.76153e-06 0.00404665)
(1.02954 -0.000989849 0.00292951)
(1.02853 -0.00179993 -0.000936627)
(1.02966 -0.0010627 -0.00231578)
(1.02999 -0.000227426 0.000873515)
(1.0303 9.7387e-05 0.00398602)
(1.02917 -0.000933807 0.00282782)
(1.02857 -0.00144931 -0.000746767)
(1.0292 -0.00110659 -0.00246243)
(1.0307 0.000132233 0.000875809)
(1.0303 0.000179669 0.00411962)
(1.02947 -0.000653072 0.00307226)
(1.02779 -0.00141069 -0.000964403)
(1.02966 -0.000865984 -0.00167621)
(1.03041 3.38908e-05 0.00108639)
(1.03093 0.000211062 0.00432677)
(1.02925 -0.000870542 0.00272789)
(1.02877 -0.00132041 -0.000989332)
(1.02915 -0.000825433 -0.00203128)
(1.03105 0.000179022 0.000791804)
(1.03093 0.000147726 0.00419482)
(1.02981 -0.000657101 0.00313845)
(1.02899 -0.00148901 -0.000773414)
(1.03008 -0.00081112 -0.00264392)
(1.0314 6.54937e-05 0.000808938)
(1.0312 0.00017746 0.00375531)
(1.02975 -0.000764524 0.00289286)
(1.02931 -0.00131568 -0.00112027)
(1.02935 -0.000873119 -0.00258393)
(1.03096 5.27746e-05 0.00037099)
(1.03076 9.01897e-05 0.00416325)
(1.03004 -0.000753637 0.00308147)
(1.02871 -0.00149857 -0.000937312)
(1.02984 -0.000895797 -0.00273382)
(1.03051 -3.07837e-05 0.000674848)
(1.03109 2.30528e-05 0.00393221)
(1.02942 -0.00109521 0.00320815)
(1.02871 -0.00163764 -0.0012032)
(1.02928 -0.00101781 -0.00259524)
(1.02502 -0.000195196 0.0020991)
(1.02274 0.000104345 0.00533874)
(1.02103 -0.000845246 0.00260177)
(1.02039 -0.00190029 -0.00213479)
(1.02384 -0.00134029 -0.00254258)
(1.02325 -0.000313744 0.00230856)
(1.02274 0.000260513 0.00518221)
(1.02007 -0.000748272 0.0026711)
(1.02116 -0.00154583 -0.00191192)
(1.02315 -0.00143971 -0.00269048)
(1.02527 -3.08613e-05 0.00238348)
(1.02204 0.000324358 0.00556636)
(1.02076 -0.000428369 0.0029717)
(1.01933 -0.0015438 -0.0019678)
(1.02455 -0.00117994 -0.00151051)
(1.02396 -0.000150675 0.00249183)
(1.02353 0.000351482 0.0057042)
(1.01977 -0.00069096 0.00234116)
(1.02172 -0.0014013 -0.00213374)
(1.02324 -0.00118676 -0.00228119)
(1.02611 -3.90413e-05 0.00207404)
(1.02306 0.000233436 0.00558557)
(1.02144 -0.000467235 0.00287838)
(1.02163 -0.00160318 -0.00224414)
(1.0255 -0.00114172 -0.00319289)
(1.02624 -0.000180498 0.00206888)
(1.02424 0.000246074 0.00479538)
(1.02118 -0.000619262 0.00244532)
(1.02255 -0.00138925 -0.0025642)
(1.02381 -0.00120187 -0.00317769)
(1.02613 -0.000163819 0.00164596)
(1.02341 0.000170823 0.00556051)
(1.02171 -0.000598785 0.00268381)
(1.02095 -0.00157343 -0.00239702)
(1.02461 -0.00118211 -0.00319024)
(1.02488 -0.00023155 0.00199997)
(1.02401 0.000115803 0.00523846)
(1.02031 -0.000926489 0.00288964)
(1.02106 -0.00171497 -0.00270757)
(1.02323 -0.00131662 -0.00295923)
(1.00909 0.000128778 0.00396904)
(1.00401 0.000367233 0.00492619)
(1.00423 -0.000855631 0.000793267)
(1.00501 -0.00196303 -0.0025307)
(1.00961 -0.00117898 -0.000658764)
(1.00573 0.000104436 0.00420675)
(1.00507 0.000541483 0.00474905)
(1.0025 -0.000733396 0.00113635)
(1.00728 -0.00167423 -0.00236652)
(1.00845 -0.00134347 -0.000633001)
(1.00887 0.000341135 0.00452739)
(1.00253 0.000608652 0.00528585)
(1.00413 -0.000426794 0.00137017)
(1.00437 -0.00171773 -0.00218095)
(1.01165 -0.00108199 0.000475275)
(1.00617 0.00015924 0.0041201)
(1.006 0.000617865 0.00524466)
(1.0021 -0.000727535 0.000339357)
(1.00914 -0.00152549 -0.002532)
(1.00918 -0.00117854 -0.00074522)
(1.0111 0.000242881 0.00388291)
(1.00412 0.000463356 0.00509687)
(1.00594 -0.000494451 0.000723995)
(1.00803 -0.0017957 -0.00319809)
(1.0135 -0.00110484 -0.00159038)
(1.01003 7.21855e-05 0.00383048)
(1.00693 0.000490134 0.00406849)
(1.00459 -0.000648028 0.000418636)
(1.0096 -0.00150286 -0.00342005)
(1.01038 -0.00118196 -0.00163146)
(1.01125 0.00013756 0.00367643)
(1.00512 0.000432539 0.00504349)
(1.00542 -0.000617866 0.000441831)
(1.00654 -0.00169744 -0.00324133)
(1.01175 -0.00112288 -0.00155881)
(1.00854 5.48502e-05 0.00393545)
(1.00636 0.000374012 0.00470173)
(1.00261 -0.000903012 0.000804231)
(1.00708 -0.00181109 -0.00352258)
(1.0089 -0.00124947 -0.00106916)
(0.976379 0.000681298 0.00421852)
(0.971332 0.000146903 0.00300415)
(0.976093 -0.00121918 -0.000171641)
(0.975998 -0.00163741 -0.000483926)
(0.978745 -0.000296233 0.00210653)
(0.971742 0.000671065 0.00442952)
(0.974296 0.000294707 0.00287136)
(0.973441 -0.00110978 0.000419382)
(0.980192 -0.00145058 -0.000409429)
(0.976322 -0.000453384 0.00248782)
(0.975584 0.000931525 0.00475036)