/*--------------------------------*- C++ -*----------------------------------*\
  =========                 |
  \\      /  F ield         | OpenFOAM: The Open Source CFD Toolbox
   \\    /   O peration     | Website:  https://openfoam.org
    \\  /    A nd           | Version:  10
     \\/     M anipulation  |
\*---------------------------------------------------------------------------*/
FoamFile
{
    format      ascii;
    class       volSymmTensorField;
    location    "15";
    object      UPrime2Mean;
}
// * * * * * * * * * * * * * * * * * * * * * * * * * * * * * * * * * * * * * //

dimensions      [0 2 -2 0 0 0 0];

internalField   nonuniform List<symmTensor> 
25600
(
(7.51704e-05 -4.21018e-07 -1.2882e-07 1.55929e-07 -1.32879e-08 5.3467e-08)
(7.50721e-05 -4.47989e-07 3.13005e-08 1.39609e-07 -2.19651e-08 4.88025e-08)
(7.50378e-05 -4.29643e-07 -1.67145e-07 1.22631e-07 -4.75141e-09 4.40074e-08)
(7.51471e-05 -2.4313e-07 -4.13849e-08 1.48622e-07 -6.88595e-09 4.10353e-08)
(7.52847e-05 -4.48547e-07 -8.02377e-08 1.3281e-07 -2.24363e-08 4.22329e-08)
(7.4967e-05 -9.51827e-08 -1.84412e-07 1.55175e-07 -1.41393e-08 4.19485e-08)
(7.52701e-05 -3.12741e-07 -2.18404e-08 1.58204e-07 -1.94271e-08 4.25222e-08)
(7.53335e-05 -2.2811e-07 -2.13274e-07 1.42492e-07 -1.47585e-08 4.21008e-08)
(7.50999e-05 -2.4074e-08 -6.64578e-08 1.73821e-07 -7.88732e-09 3.36082e-08)
(7.5582e-05 -1.50045e-07 -1.13919e-07 1.44209e-07 -1.4642e-08 3.3217e-08)
(7.53544e-05 -4.51639e-08 -1.3338e-07 1.81324e-07 -9.64719e-09 3.24709e-08)
(7.56671e-05 7.36821e-08 -2.68605e-08 1.90256e-07 -9.50147e-09 2.39659e-08)
(7.55909e-05 -8.34937e-08 -1.02192e-07 2.01013e-07 -1.43149e-08 2.62913e-08)
(7.56175e-05 1.12425e-07 -2.83401e-08 2.53161e-07 -7.93704e-09 2.81121e-08)
(7.59895e-05 8.71355e-08 -4.38645e-08 2.46898e-07 -1.21518e-08 2.1227e-08)
(7.56415e-05 -8.48631e-09 -1.69358e-08 2.93215e-07 -1.23568e-08 2.31325e-08)
(7.61343e-05 3.62219e-07 -1.70564e-08 3.0164e-07 -1.59492e-08 2.97852e-08)
(7.60032e-05 -6.5738e-08 -6.18808e-09 3.30131e-07 -2.22512e-08 3.09783e-08)
(7.58295e-05 4.2989e-07 -2.24789e-08 3.25938e-07 -1.51536e-08 3.87944e-08)
(7.62086e-05 1.91291e-07 -1.23806e-08 2.96833e-07 -1.1681e-08 4.15774e-08)
(7.58964e-05 3.13311e-07 3.58624e-08 3.25518e-07 -1.5804e-08 3.78483e-08)
(7.58959e-05 4.71499e-07 8.1353e-10 2.90817e-07 -5.74964e-09 3.94031e-08)
(7.59406e-05 2.38596e-07 9.11322e-08 2.82205e-07 -4.35277e-09 3.766e-08)
(7.56022e-05 5.40077e-07 5.20209e-08 2.57495e-07 -9.68905e-09 3.89327e-08)
(7.59342e-05 2.13306e-07 1.01265e-07 2.02703e-07 -2.5023e-09 4.53478e-08)
(7.55884e-05 5.37705e-07 8.10473e-08 2.10345e-07 -4.70323e-09 5.0236e-08)
(7.52648e-05 5.89507e-08 1.05813e-07 1.40441e-07 5.15893e-10 5.9514e-08)
(7.58282e-05 3.78346e-07 1.83705e-07 2.00859e-07 -4.25177e-09 6.56013e-08)
(7.50075e-05 1.56935e-07 7.52513e-09 1.67097e-07 -2.67219e-08 5.91756e-08)
(7.51741e-05 -8.95856e-09 2.07909e-07 1.39652e-07 -1.67623e-08 5.75634e-08)
(7.5131e-05 1.70381e-07 7.57543e-08 2.18799e-07 -3.12996e-08 5.74874e-08)
(7.482e-05 -2.75424e-07 7.43186e-08 1.1553e-07 -3.21442e-08 5.56631e-08)
(7.50139e-05 -5.55318e-08 1.83608e-07 1.84715e-07 -1.59074e-08 5.57126e-08)
(7.46489e-05 -4.54779e-07 -1.7723e-08 1.81965e-07 -3.93359e-08 5.72612e-08)
(7.51483e-05 -3.56554e-07 1.70816e-07 1.22889e-07 -2.82878e-08 6.03162e-08)
(7.48709e-05 -5.31712e-07 -3.00384e-09 1.84303e-07 -2.82012e-08 5.53651e-08)
(7.48527e-05 -5.51109e-07 9.81289e-08 1.32442e-07 -3.19383e-08 6.4192e-08)
(7.52313e-05 -5.06451e-07 3.35997e-08 1.36291e-07 -1.85527e-08 6.69328e-08)
(7.49341e-05 -5.77311e-07 -4.05214e-08 1.8391e-07 -2.4793e-08 5.91919e-08)
(7.51457e-05 -5.20019e-07 6.87446e-08 1.29989e-07 -2.91031e-08 5.81966e-08)
(7.52296e-05 -3.93927e-07 -7.05233e-08 2.10329e-07 1.94038e-08 2.96997e-08)
(7.50083e-05 -6.08125e-07 5.91547e-08 1.86684e-07 5.11242e-09 2.62877e-08)
(7.52624e-05 -4.35699e-07 -8.63086e-08 1.81136e-07 1.25619e-08 2.68736e-08)
(7.50644e-05 -3.01726e-07 -1.77239e-08 1.87654e-07 1.56871e-08 2.57e-08)
(7.53386e-05 -5.22559e-07 -6.85089e-08 1.76633e-07 -5.26281e-09 2.14992e-08)
(7.50702e-05 -1.77134e-07 -1.60073e-07 2.13217e-07 6.2908e-09 2.30416e-08)
(7.50643e-05 -3.78858e-07 -2.69058e-08 1.91119e-07 6.09481e-09 2.58046e-08)
(7.54655e-05 -2.94998e-07 -2.11758e-07 2.10825e-07 6.54948e-09 2.35158e-08)
(7.50891e-05 -1.62425e-07 -5.83765e-08 2.36214e-07 1.2242e-08 2.56016e-08)
(7.54283e-05 -1.84456e-07 -1.37623e-07 2.13137e-07 3.05975e-09 3.07402e-08)
(7.54916e-05 -1.95021e-07 -1.66514e-07 2.63169e-07 6.37098e-09 2.94082e-08)
(7.55827e-05 2.9452e-08 -3.07943e-08 2.19358e-07 3.36359e-09 2.76321e-08)
(7.55996e-05 -2.48226e-07 -1.60981e-07 2.72578e-07 5.07523e-10 3.57673e-08)
(7.58012e-05 1.08099e-07 -6.46818e-08 2.92088e-07 2.41966e-09 3.81469e-08)
(7.58722e-05 -4.92283e-08 -8.19569e-08 2.71856e-07 -3.33219e-09 3.36561e-08)
(7.59897e-05 -6.07216e-08 -8.43792e-08 3.36797e-07 -3.35451e-09 3.84667e-08)
(7.61505e-05 3.75621e-07 -3.5868e-08 2.96685e-07 -1.36596e-08 4.5179e-08)
(7.61232e-05 -1.46607e-07 -7.64132e-08 3.55078e-07 -1.71742e-08 4.56557e-08)
(7.61844e-05 4.74915e-07 -5.12387e-08 3.22166e-07 -7.36647e-09 5.66013e-08)
(7.61563e-05 1.67315e-07 -4.81891e-08 2.81374e-07 -8.34936e-09 6.32021e-08)
(7.6232e-05 3.8343e-07 7.61163e-09 3.42011e-07 -1.06074e-08 5.704e-08)
(7.58839e-05 4.73894e-07 3.01712e-09 2.92289e-07 9.77456e-09 6.23376e-08)
(7.60683e-05 3.29829e-07 4.0736e-08 2.85343e-07 1.08604e-08 6.18685e-08)
(7.56318e-05 5.59176e-07 9.46642e-08 2.70972e-07 8.04296e-09 5.4577e-08)
(7.59711e-05 3.69589e-07 5.44601e-08 2.43582e-07 2.18024e-08 5.92118e-08)
(7.54473e-05 5.20113e-07 8.01025e-08 2.3993e-07 2.79492e-08 6.44007e-08)
(7.51794e-05 1.85888e-07 1.23809e-07 1.9037e-07 3.08132e-08 6.94048e-08)
(7.58829e-05 4.8624e-07 1.44035e-07 2.59197e-07 2.15186e-08 7.37364e-08)
(7.46306e-05 1.15414e-07 3.87407e-08 1.85617e-07 6.82258e-09 6.99653e-08)
(7.51989e-05 1.65634e-07 2.13483e-07 2.00593e-07 1.01542e-08 6.89499e-08)
(7.48888e-05 8.83129e-08 1.21031e-07 2.44433e-07 -1.26559e-08 6.3566e-08)
(7.46495e-05 -2.3243e-07 1.1411e-07 1.58576e-07 -1.49365e-08 5.67922e-08)
(7.48997e-05 -9.04519e-08 2.35219e-07 2.66048e-07 -2.54265e-09 5.35964e-08)
(7.43981e-05 -4.3964e-07 3.02586e-08 2.30562e-07 -2.56727e-08 4.73959e-08)
(7.49986e-05 -4.1878e-07 2.4604e-07 1.9057e-07 -1.04269e-08 4.52478e-08)
(7.46843e-05 -5.90453e-07 3.75335e-08 2.36343e-07 -1.03329e-10 3.38301e-08)
(7.48562e-05 -5.91447e-07 1.30485e-07 1.42729e-07 -3.35595e-09 3.77402e-08)
(7.51634e-05 -6.34376e-07 1.01797e-07 1.82067e-07 9.93851e-09 4.08114e-08)
(7.49109e-05 -5.91846e-07 -1.07235e-08 2.07684e-07 1.14713e-08 3.43054e-08)
(7.52894e-05 -6.57425e-07 1.55094e-07 1.6806e-07 -1.73477e-09 3.40548e-08)
(7.52803e-05 -4.36082e-07 1.93532e-09 2.68714e-07 2.21162e-08 2.8211e-08)
(7.50616e-05 -7.68284e-07 7.64457e-08 2.32476e-07 1.43274e-08 2.88827e-08)
(7.5573e-05 -3.8951e-07 -6.13679e-09 2.50708e-07 2.64148e-08 3.86942e-08)
(7.4981e-05 -4.93865e-07 1.22768e-08 2.25908e-07 2.14894e-08 3.50872e-08)
(7.54679e-05 -4.67502e-07 -7.2822e-08 2.19572e-07 2.16592e-09 2.31109e-08)
(7.51411e-05 -3.56904e-07 -1.40957e-07 2.62641e-07 1.50064e-08 2.70097e-08)
(7.49874e-05 -4.52905e-07 -5.72683e-08 2.1305e-07 1.10411e-08 2.84396e-08)
(7.55824e-05 -3.48949e-07 -1.89307e-07 2.71189e-07 1.4834e-08 2.25044e-08)
(7.51473e-05 -3.44986e-07 -7.68171e-08 2.52734e-07 1.50041e-08 3.52277e-08)
(7.53817e-05 -2.87716e-07 -1.8164e-07 2.70064e-07 7.39891e-09 4.49203e-08)
(7.56789e-05 -3.57779e-07 -1.86199e-07 2.97383e-07 1.57168e-08 4.22298e-08)
(7.55799e-05 -1.32098e-07 -6.13139e-08 2.08367e-07 4.79954e-09 4.86741e-08)
(7.57669e-05 -4.3302e-07 -2.2622e-07 3.31047e-07 1.07924e-08 6.62606e-08)
(7.60866e-05 5.93662e-08 -9.4729e-08 2.67457e-07 4.66545e-09 6.01734e-08)
(7.58569e-05 -3.04055e-07 -1.18605e-07 2.94055e-07 1.46882e-09 4.90927e-08)
(7.65177e-05 -6.19089e-08 -1.31726e-07 3.50004e-07 5.07962e-09 5.53074e-08)
(7.61904e-05 2.2339e-07 -1.93023e-08 2.73291e-07 -1.33436e-08 5.43027e-08)
(7.63909e-05 -1.58566e-07 -1.23254e-07 3.98602e-07 -5.88729e-09 4.63354e-08)
(7.6591e-05 4.58861e-07 -2.48804e-08 3.03209e-07 2.59859e-09 5.37524e-08)
(7.62137e-05 1.41415e-07 -2.01763e-08 3.06726e-07 -5.73176e-09 6.0029e-08)
(7.66083e-05 4.74704e-07 -1.48668e-09 3.69474e-07 -1.04299e-09 5.26973e-08)
(7.59617e-05 4.64172e-07 5.81476e-08 3.03566e-07 1.90617e-08 6.14512e-08)
(7.62216e-05 4.24249e-07 4.34614e-08 3.47131e-07 1.79081e-08 6.482e-08)
(7.57255e-05 5.85965e-07 1.62184e-07 3.35371e-07 1.85781e-08 5.37715e-08)
(7.59216e-05 5.08587e-07 7.82949e-08 3.52658e-07 3.47442e-08 5.84888e-08)
(7.52835e-05 4.2178e-07 1.52203e-07 3.29045e-07 5.2692e-08 6.89676e-08)
(7.51393e-05 3.94799e-07 2.04641e-07 3.07551e-07 3.93085e-08 6.91438e-08)
(7.57009e-05 4.56609e-07 1.60253e-07 3.65834e-07 2.4944e-08 6.4895e-08)
(7.4395e-05 1.38087e-07 1.40208e-07 2.50934e-07 3.29329e-08 7.03501e-08)
(7.51282e-05 3.03862e-07 2.68782e-07 2.8848e-07 2.3899e-08 7.2705e-08)
(7.46061e-05 -5.80506e-08 1.82508e-07 2.5718e-07 4.84e-10 6.07676e-08)
(7.4561e-05 -1.13539e-07 1.89819e-07 2.0739e-07 6.08256e-10 5.70633e-08)
(7.47744e-05 -1.92951e-07 2.66101e-07 3.26881e-07 3.52177e-10 5.29573e-08)
(7.42046e-05 -4.26794e-07 1.20053e-07 2.43433e-07 -1.66099e-08 4.10953e-08)
(7.4812e-05 -5.53866e-07 2.78919e-07 2.58436e-07 -3.73857e-09 3.7336e-08)
(7.45593e-05 -6.479e-07 8.69548e-08 2.8426e-07 8.64335e-09 2.57834e-08)
(7.479e-05 -7.40853e-07 1.75262e-07 1.7667e-07 2.817e-09 3.06531e-08)
(7.5148e-05 -7.59871e-07 1.20971e-07 2.68193e-07 1.03106e-08 3.30413e-08)
(7.49038e-05 -6.8996e-07 6.26149e-08 2.35116e-07 1.39696e-08 3.05489e-08)
(7.54879e-05 -7.78431e-07 1.83899e-07 2.34661e-07 2.08304e-09 3.46245e-08)
(7.53067e-05 -6.40277e-07 1.13969e-07 3.25821e-07 9.20952e-09 4.19617e-08)
(7.52629e-05 -8.65438e-07 1.35531e-07 2.76805e-07 1.24425e-08 4.75397e-08)
(7.58007e-05 -4.68889e-07 1.10194e-07 3.38128e-07 2.77997e-08 6.27675e-08)
(7.49921e-05 -7.02094e-07 8.55596e-08 2.76351e-07 8.86724e-09 5.21025e-08)
(7.56099e-05 -4.2379e-07 -3.9332e-08 2.89828e-07 -1.00947e-09 3.34382e-08)
(7.51169e-05 -6.27048e-07 -8.39089e-08 3.25761e-07 9.12378e-09 4.04705e-08)
(7.50675e-05 -5.24969e-07 -4.99641e-08 2.75707e-07 5.40595e-09 4.05289e-08)
(7.56394e-05 -4.80082e-07 -1.37617e-07 3.68753e-07 1.31352e-08 3.52964e-08)
(7.52106e-05 -5.58167e-07 -1.03862e-07 2.89394e-07 -2.32132e-09 5.44207e-08)
(7.54386e-05 -4.81168e-07 -2.02984e-07 3.73119e-07 -2.40152e-09 6.5645e-08)
(7.58665e-05 -5.28814e-07 -1.82964e-07 3.37157e-07 7.16143e-09 6.02589e-08)
(7.55926e-05 -4.11218e-07 -1.14677e-07 2.64703e-07 -1.52514e-08 7.6328e-08)
(7.60535e-05 -5.73761e-07 -2.64698e-07 4.32318e-07 8.19928e-09 1.03814e-07)
(7.63015e-05 -1.02391e-07 -1.01543e-07 2.76786e-07 -5.87901e-09 8.26704e-08)
(7.59583e-05 -5.56359e-07 -1.2746e-07 4.20674e-07 -3.78872e-09 6.27927e-08)
(7.70234e-05 -6.37861e-08 -1.1847e-07 3.91511e-07 -8.45926e-10 7.25065e-08)
(7.61949e-05 -4.57675e-08 7.74401e-09 3.40435e-07 -2.21163e-08 6.46481e-08)
(7.67678e-05 -7.33653e-08 -1.11179e-07 5.19439e-07 6.06575e-09 4.90403e-08)
(7.68992e-05 3.8998e-07 4.74661e-08 3.56865e-07 1.64943e-09 5.24171e-08)
(7.63132e-05 1.64116e-07 4.81754e-08 4.75889e-07 -1.23406e-08 5.96334e-08)
(7.69553e-05 6.03668e-07 3.44271e-08 4.74392e-07 -3.08893e-09 5.12098e-08)
(7.60166e-05 4.78894e-07 1.61262e-07 4.26034e-07 7.19945e-09 5.70584e-08)
(7.63935e-05 5.43277e-07 1.11431e-07 5.35837e-07 1.32781e-08 6.52442e-08)
(7.58463e-05 6.79097e-07 2.49908e-07 4.85314e-07 1.0895e-08 5.51142e-08)
(7.57999e-05 5.90263e-07 1.79524e-07 5.44155e-07 3.59182e-08 6.01091e-08)
(7.5262e-05 4.34413e-07 2.87251e-07 4.69601e-07 6.61272e-08 8.31841e-08)
(7.51057e-05 5.86034e-07 3.22085e-07 4.75781e-07 2.42001e-08 7.61498e-08)
(7.54454e-05 3.95175e-07 2.47982e-07 5.27484e-07 2.68017e-08 5.96013e-08)
(7.43223e-05 2.2595e-07 2.88707e-07 3.57428e-07 5.48014e-08 8.13056e-08)
(7.49244e-05 3.23417e-07 3.74685e-07 4.241e-07 2.90456e-08 8.22272e-08)
(7.44135e-05 -1.37141e-07 2.73127e-07 3.22054e-07 2.49213e-08 6.02328e-08)
(7.44679e-05 -1.16903e-08 3.15476e-07 3.04993e-07 1.86672e-08 6.58307e-08)
(7.46023e-05 -3.07809e-07 3.27075e-07 4.14463e-07 4.90961e-09 5.98306e-08)
(7.40565e-05 -4.57762e-07 2.59762e-07 2.59394e-07 2.37966e-11 4.5326e-08)
(7.4607e-05 -7.01922e-07 3.24429e-07 3.52074e-07 2.79761e-09 4.35967e-08)
(7.44493e-05 -7.39927e-07 1.92227e-07 3.3459e-07 1.77741e-08 3.94351e-08)
(7.47134e-05 -9.7148e-07 2.55394e-07 2.40468e-07 4.19171e-09 5.10098e-08)
(7.51768e-05 -8.97996e-07 1.49919e-07 3.83088e-07 5.46632e-09 4.62366e-08)
(7.49343e-05 -9.03359e-07 1.92212e-07 2.71733e-07 1.19041e-08 4.90991e-08)
(7.56878e-05 -8.95817e-07 2.12304e-07 3.18835e-07 2.31194e-09 5.69013e-08)
(7.53746e-05 -9.30746e-07 2.78291e-07 4.52168e-07 6.97725e-09 7.61376e-08)
(7.55236e-05 -9.84921e-07 2.51422e-07 3.89144e-07 1.43923e-08 8.5916e-08)
(7.59464e-05 -6.84977e-07 2.78945e-07 5.08631e-07 3.4566e-08 9.78672e-08)
(7.51257e-05 -8.72908e-07 1.84059e-07 3.99386e-07 2.92641e-09 7.87629e-08)
(7.56907e-05 -5.15162e-07 5.07713e-08 4.61628e-07 -2.27174e-09 5.29995e-08)
(7.50838e-05 -9.04122e-07 -7.4234e-09 4.69243e-07 8.57106e-09 5.60755e-08)
(7.52287e-05 -6.45874e-07 1.15604e-08 4.42665e-07 7.28163e-09 5.89518e-08)
(7.56254e-05 -7.06854e-07 -8.72256e-08 5.64188e-07 1.81393e-08 5.62267e-08)
(7.52843e-05 -8.04623e-07 -1.13807e-07 4.2175e-07 -1.5928e-08 7.4866e-08)
(7.55779e-05 -7.02755e-07 -1.88382e-07 5.81322e-07 -5.52528e-09 8.83014e-08)
(7.60124e-05 -7.61324e-07 -1.48032e-07 4.57846e-07 -1.92701e-09 7.5592e-08)
(7.56419e-05 -7.18186e-07 -1.67633e-07 4.60779e-07 -3.46835e-08 1.03319e-07)
(7.63716e-05 -6.76625e-07 -2.26363e-07 6.17564e-07 9.15164e-09 1.39129e-07)
(7.6417e-05 -3.61794e-07 -8.79999e-08 4.01985e-07 -1.35579e-08 1.02684e-07)
(7.61902e-05 -7.01294e-07 -6.10981e-08 6.6841e-07 -1.14638e-08 7.69881e-08)
(7.74207e-05 -1.50871e-07 -5.84723e-08 5.01035e-07 -1.71388e-08 9.25458e-08)
(7.62636e-05 -2.94198e-07 6.87953e-08 5.60568e-07 -3.24969e-08 8.13031e-08)
(7.72555e-05 6.10735e-08 -3.4079e-08 6.88323e-07 1.29309e-08 5.92732e-08)
(7.71193e-05 2.69838e-07 1.64593e-07 5.02812e-07 -1.50427e-08 6.34512e-08)
(7.65484e-05 2.60402e-07 1.5152e-07 7.53829e-07 -3.40676e-08 7.33742e-08)
(7.7274e-05 7.57754e-07 1.33289e-07 6.35949e-07 -1.82003e-08 5.84245e-08)
(7.61111e-05 5.12031e-07 3.03835e-07 6.63002e-07 -1.17803e-08 6.3632e-08)
(7.66886e-05 7.44961e-07 2.36634e-07 7.86466e-07 7.63404e-10 7.90066e-08)
(7.6e-05 7.78032e-07 3.5822e-07 6.9106e-07 -1.03695e-08 6.46479e-08)
(7.58078e-05 7.06506e-07 3.74011e-07 7.88948e-07 3.71473e-08 7.17952e-08)
(7.54202e-05 5.65588e-07 4.61041e-07 6.3148e-07 6.51584e-08 1.0904e-07)
(7.51129e-05 7.18958e-07 4.73603e-07 7.10829e-07 -6.8766e-09 8.99712e-08)
(7.53103e-05 4.17729e-07 4.11669e-07 7.33596e-07 3.49154e-08 6.78499e-08)
(7.43301e-05 2.93362e-07 4.79165e-07 5.04698e-07 5.73934e-08 1.07364e-07)
(7.4707e-05 2.92916e-07 5.35205e-07 6.60793e-07 2.60897e-08 1.05174e-07)
(7.43256e-05 -1.32787e-07 4.19555e-07 4.73095e-07 4.68228e-08 7.27982e-08)
(7.43188e-05 1.35138e-08 5.06618e-07 5.28175e-07 2.21614e-08 8.68377e-08)
(7.43976e-05 -3.93493e-07 4.51635e-07 6.10611e-07 1.44969e-08 7.96681e-08)
(7.39088e-05 -5.67723e-07 4.50211e-07 3.55038e-07 9.74549e-09 6.42719e-08)
(7.43735e-05 -8.6666e-07 4.27379e-07 5.82409e-07 8.20208e-09 6.34028e-08)
(7.43328e-05 -9.11716e-07 3.57407e-07 4.56164e-07 3.10186e-08 7.58278e-08)
(7.46581e-05 -1.24637e-06 3.84931e-07 3.82374e-07 -1.17179e-09 9.30295e-08)
(7.52346e-05 -1.09194e-06 2.31054e-07 5.80282e-07 1.28318e-08 7.78304e-08)
(7.50215e-05 -1.18215e-06 3.77828e-07 3.70407e-07 1.98741e-08 9.23347e-08)
(7.5848e-05 -1.09379e-06 2.9693e-07 4.84628e-07 6.97231e-09 9.90778e-08)
(7.55177e-05 -1.28706e-06 5.02319e-07 6.96345e-07 1.2441e-08 1.32398e-07)
(7.58283e-05 -1.22863e-06 4.92624e-07 6.58481e-07 1.45862e-08 1.41477e-07)
(7.61249e-05 -9.59468e-07 5.01548e-07 8.18161e-07 4.78403e-08 1.39141e-07)
(7.53406e-05 -1.10799e-06 3.57299e-07 6.45489e-07 3.38622e-09 1.23385e-07)
(7.57522e-05 -7.33059e-07 2.12161e-07 8.03801e-07 5.34885e-09 8.99577e-08)
(7.51311e-05 -1.19577e-06 1.34083e-07 7.2951e-07 1.77495e-08 8.11899e-08)
(7.54234e-05 -8.63201e-07 1.19388e-07 7.63883e-07 9.12425e-09 9.45197e-08)
(7.56068e-05 -1.06541e-06 -3.32022e-09 8.86091e-07 3.35346e-08 8.85138e-08)
(7.54433e-05 -1.08563e-06 -9.13408e-08 6.79781e-07 -1.69797e-08 1.03539e-07)
(7.57767e-05 -9.99609e-07 -9.92802e-08 9.4086e-07 5.33709e-09 1.22181e-07)
(7.61658e-05 -1.10891e-06 -1.01194e-07 7.01645e-07 8.7813e-10 9.81437e-08)
(7.58156e-05 -1.02009e-06 -1.47945e-07 8.2742e-07 -4.62525e-08 1.44011e-07)
(7.66966e-05 -8.419e-07 -1.23655e-07 9.2766e-07 2.95506e-08 1.8376e-07)
(7.65669e-05 -6.74107e-07 -1.49888e-09 6.90985e-07 -7.49249e-09 1.31495e-07)
(7.65525e-05 -8.14995e-07 7.97784e-08 1.03606e-06 -1.24547e-08 1.08739e-07)
(7.77405e-05 -3.71829e-07 6.90294e-08 7.45133e-07 -3.53123e-08 1.30104e-07)
(7.65232e-05 -4.75854e-07 1.95036e-07 9.44989e-07 -3.06893e-08 1.07514e-07)
(7.78178e-05 1.42543e-07 1.34226e-07 9.27493e-07 2.72219e-08 8.19774e-08)
(7.73724e-05 1.16744e-07 3.39343e-07 7.94864e-07 -4.37216e-08 9.95047e-08)
(7.69909e-05 3.89079e-07 3.23023e-07 1.11456e-06 -5.46081e-08 1.02196e-07)
(7.75936e-05 8.45683e-07 3.14963e-07 8.98188e-07 -2.88489e-08 7.64909e-08)
(7.63556e-05 5.78942e-07 5.20665e-07 1.0321e-06 -2.86095e-08 9.63824e-08)
(7.71125e-05 9.48745e-07 4.16258e-07 1.10123e-06 -1.65711e-08 1.12347e-07)
(7.62436e-05 8.13833e-07 5.44112e-07 9.99002e-07 -3.99913e-08 8.90496e-08)
(7.60221e-05 8.67681e-07 6.74262e-07 1.11212e-06 4.24379e-08 1.05484e-07)
(7.56738e-05 6.93372e-07 7.0536e-07 9.00091e-07 5.03195e-08 1.46077e-07)
(7.52361e-05 8.24376e-07 7.03902e-07 1.084e-06 -4.09941e-08 1.16799e-07)
(7.5344e-05 4.6957e-07 6.91744e-07 1.0084e-06 4.19628e-08 9.59077e-08)
(7.44027e-05 2.90149e-07 7.29398e-07 7.83038e-07 3.36932e-08 1.47472e-07)
(7.461e-05 2.46383e-07 8.00656e-07 1.0599e-06 2.35659e-08 1.4951e-07)
(7.43341e-05 -1.26757e-07 6.33561e-07 7.50731e-07 4.34324e-08 1.05811e-07)
(7.41586e-05 -8.19437e-08 7.96805e-07 9.2529e-07 8.12063e-09 1.25535e-07)
(7.42213e-05 -4.92065e-07 6.55191e-07 9.24621e-07 2.51477e-08 1.16113e-07)
(7.37484e-05 -8.21381e-07 7.26355e-07 6.0027e-07 -7.48956e-11 9.86532e-08)
(7.41468e-05 -1.12307e-06 6.11547e-07 1.02292e-06 2.08069e-08 9.82612e-08)
(7.42517e-05 -1.20565e-06 6.18951e-07 6.8651e-07 3.13816e-08 1.33907e-07)
(7.46787e-05 -1.61373e-06 5.7712e-07 6.75066e-07 -2.17031e-08 1.44854e-07)
(7.53783e-05 -1.36817e-06 4.23573e-07 9.14543e-07 3.36766e-08 1.2405e-07)
(7.51653e-05 -1.56942e-06 6.20817e-07 5.831e-07 1.59507e-08 1.5482e-07)
(7.6019e-05 -1.40413e-06 5.02539e-07 8.06272e-07 5.00071e-09 1.51631e-07)
(7.57702e-05 -1.74604e-06 8.52603e-07 1.11402e-06 1.79691e-08 2.22385e-07)
(7.62674e-05 -1.53213e-06 8.77555e-07 1.20003e-06 1.27168e-08 2.16623e-07)
(7.64269e-05 -1.28453e-06 8.2105e-07 1.31358e-06 7.03658e-08 1.93044e-07)
(7.56681e-05 -1.41589e-06 6.33198e-07 1.11547e-06 1.73347e-09 1.97211e-07)
(7.59191e-05 -1.00931e-06 5.07971e-07 1.40895e-06 3.47732e-08 1.56014e-07)
(7.5312e-05 -1.51017e-06 3.51437e-07 1.17075e-06 4.09063e-08 1.33807e-07)
(7.56603e-05 -1.17796e-06 3.09415e-07 1.35418e-06 4.19025e-09 1.66106e-07)
(7.57109e-05 -1.49914e-06 1.41819e-07 1.38982e-06 6.73168e-08 1.4326e-07)
(7.57426e-05 -1.36172e-06 1.83868e-08 1.16403e-06 -1.13147e-08 1.65688e-07)
(7.60497e-05 -1.37656e-06 5.90997e-08 1.5608e-06 3.025e-08 1.88884e-07)
(7.64816e-05 -1.49849e-06 2.20702e-08 1.15176e-06 9.94714e-09 1.46381e-07)
(7.61797e-05 -1.3107e-06 -1.01133e-08 1.46314e-06 -5.01578e-08 2.19345e-07)
(7.71048e-05 -1.07016e-06 8.18299e-08 1.47251e-06 7.47951e-08 2.56849e-07)
(7.68712e-05 -9.64988e-07 2.07559e-07 1.25241e-06 5.1495e-09 1.92301e-07)
(7.70822e-05 -9.61246e-07 3.42734e-07 1.64431e-06 -5.60015e-09 1.78308e-07)
(7.81758e-05 -6.45226e-07 3.16726e-07 1.25396e-06 -5.266e-08 1.9709e-07)
(7.70628e-05 -5.92362e-07 4.44566e-07 1.56286e-06 -2.86981e-09 1.59784e-07)
(7.85151e-05 1.82618e-07 4.18905e-07 1.4128e-06 5.69554e-08 1.38442e-07)
(7.78326e-05 2.32223e-08 6.16705e-07 1.35429e-06 -7.70374e-08 1.78698e-07)
(7.76676e-05 5.37198e-07 6.07135e-07 1.65734e-06 -5.40106e-08 1.56983e-07)
(7.8006e-05 9.04906e-07 6.47318e-07 1.43197e-06 -3.20184e-08 1.23374e-07)
(7.68294e-05 7.14503e-07 8.46505e-07 1.6411e-06 -4.56569e-08 1.74627e-07)
(7.76772e-05 1.11886e-06 7.20836e-07 1.63886e-06 -3.96225e-08 1.75184e-07)
(7.66579e-05 8.56094e-07 8.72064e-07 1.56326e-06 -7.40503e-08 1.45185e-07)
(7.64514e-05 1.05098e-06 1.13705e-06 1.7019e-06 5.79727e-08 1.79638e-07)
(7.60465e-05 8.19076e-07 1.04834e-06 1.48314e-06 2.67836e-08 2.06492e-07)
(7.55444e-05 9.27646e-07 1.0764e-06 1.73997e-06 -7.31935e-08 1.75457e-07)
(7.55401e-05 5.205e-07 1.08579e-06 1.52401e-06 3.99638e-08 1.51659e-07)
(7.45735e-05 2.35104e-07 1.09725e-06 1.35156e-06 -3.17503e-09 2.15755e-07)
(7.47207e-05 2.35969e-07 1.18336e-06 1.76143e-06 2.04042e-08 2.31946e-07)
(7.44371e-05 -1.50504e-07 9.55967e-07 1.27804e-06 6.13813e-09 1.6712e-07)
(7.40831e-05 -2.37391e-07 1.19205e-06 1.56631e-06 -5.61398e-09 1.95572e-07)
(7.41556e-05 -5.6326e-07 9.72314e-07 1.42914e-06 2.71284e-08 1.86063e-07)
(7.36073e-05 -1.18803e-06 1.10215e-06 1.117e-06 -1.62624e-08 1.59205e-07)
(7.40461e-05 -1.42604e-06 9.25688e-07 1.72924e-06 5.33812e-08 1.66551e-07)
(7.42761e-05 -1.60551e-06 9.92776e-07 1.08714e-06 2.6736e-09 2.22501e-07)
(7.48326e-05 -2.05256e-06 8.63333e-07 1.23574e-06 -3.99059e-08 2.07655e-07)
(7.56432e-05 -1.69443e-06 7.41014e-07 1.4316e-06 6.14398e-08 2.00877e-07)
(7.54217e-05 -2.06456e-06 9.72719e-07 1.00704e-06 -1.72709e-08 2.39432e-07)
(7.63043e-05 -1.75042e-06 8.37751e-07 1.34904e-06 1.37409e-09 2.16885e-07)
(7.62189e-05 -2.37693e-06 1.40656e-06 1.85619e-06 1.12176e-08 3.81233e-07)
(7.69637e-05 -1.94016e-06 1.4537e-06 2.16875e-06 1.04675e-08 3.4207e-07)
(7.69445e-05 -1.75766e-06 1.30446e-06 2.111e-06 9.07066e-08 2.90627e-07)
(7.62253e-05 -1.81149e-06 1.1202e-06 2.00876e-06 -1.82616e-08 3.31625e-07)
(7.63206e-05 -1.36127e-06 1.00803e-06 2.37113e-06 8.49794e-08 2.79332e-07)
(7.57003e-05 -1.90396e-06 7.01378e-07 1.97001e-06 4.8571e-08 2.50267e-07)
(7.60565e-05 -1.61122e-06 6.46147e-07 2.35616e-06 -1.86663e-08 3.08151e-07)
(7.61009e-05 -2.00598e-06 4.22827e-07 2.17926e-06 1.09394e-07 2.58444e-07)
(7.62501e-05 -1.6924e-06 2.67296e-07 2.07009e-06 -2.42199e-08 3.09002e-07)
(7.65294e-05 -1.86006e-06 3.43769e-07 2.55646e-06 7.02948e-08 3.25438e-07)
(7.71074e-05 -1.9214e-06 3.18884e-07 1.95818e-06 5.25536e-10 2.70218e-07)
(7.68208e-05 -1.69322e-06 3.27507e-07 2.55321e-06 -5.23248e-08 3.76682e-07)
(7.77712e-05 -1.38865e-06 4.94083e-07 2.42639e-06 1.33689e-07 3.97472e-07)
(7.74997e-05 -1.3342e-06 6.25637e-07 2.29106e-06 2.04467e-08 3.2979e-07)
(7.79388e-05 -1.22617e-06 8.36774e-07 2.74682e-06 1.59513e-08 3.18353e-07)
(7.89291e-05 -1.03375e-06 7.71667e-07 2.24348e-06 -7.81231e-08 3.27927e-07)
(7.80099e-05 -7.60249e-07 9.21083e-07 2.63305e-06 6.65459e-08 2.76797e-07)
(7.95545e-05 1.61289e-07 9.11183e-07 2.43152e-06 9.58209e-08 2.62312e-07)
(7.87016e-05 -3.87581e-08 1.10219e-06 2.38233e-06 -1.02576e-07 3.34115e-07)
(7.8689e-05 6.28121e-07 1.12265e-06 2.65514e-06 -1.85998e-08 2.79202e-07)
(7.87052e-05 9.10259e-07 1.21965e-06 2.48338e-06 -3.68093e-08 2.35185e-07)
(7.76692e-05 8.32532e-07 1.37076e-06 2.72381e-06 -5.99596e-08 3.24617e-07)
(7.85366e-05 1.18759e-06 1.22982e-06 2.68738e-06 -8.61629e-08 3.01675e-07)
(7.74154e-05 7.96536e-07 1.41666e-06 2.60757e-06 -1.16511e-07 2.72655e-07)
(7.7218e-05 1.13868e-06 1.80839e-06 2.85055e-06 7.81994e-08 3.28256e-07)
(7.66864e-05 8.79811e-07 1.55275e-06 2.63106e-06 -2.38259e-08 3.2802e-07)
(7.62066e-05 9.52593e-07 1.64423e-06 2.92886e-06 -1.14512e-07 3.07102e-07)
(7.60407e-05 4.59308e-07 1.63569e-06 2.52685e-06 9.48469e-09 2.66645e-07)
(7.50239e-05 7.31284e-08 1.63917e-06 2.43326e-06 -6.84297e-08 3.47478e-07)
(7.52162e-05 2.17665e-07 1.7215e-06 3.04306e-06 -3.7815e-09 3.83618e-07)
(7.4778e-05 -3.42769e-07 1.43608e-06 2.2195e-06 -6.56345e-08 2.88081e-07)
(7.42894e-05 -4.86102e-07 1.73183e-06 2.64203e-06 -3.6538e-08 3.30689e-07)
(7.42955e-05 -7.20469e-07 1.45846e-06 2.3594e-06 -2.82669e-09 3.14396e-07)
(7.36043e-05 -1.72552e-06 1.62527e-06 2.08695e-06 -2.63207e-08 2.75813e-07)
(7.42066e-05 -1.81733e-06 1.43177e-06 2.82796e-06 8.18219e-08 3.0935e-07)
(7.44841e-05 -2.1743e-06 1.52193e-06 1.81567e-06 -7.27309e-08 3.64166e-07)
(7.52187e-05 -2.58526e-06 1.29803e-06 2.22424e-06 -4.48383e-08 3.13028e-07)
(7.6116e-05 -2.19532e-06 1.2326e-06 2.23423e-06 7.70616e-08 3.49625e-07)
(7.58919e-05 -2.69151e-06 1.4716e-06 1.82264e-06 -9.06725e-08 3.76279e-07)
(7.6767e-05 -2.23468e-06 1.34009e-06 2.21214e-06 -4.36939e-09 3.32571e-07)
(7.69873e-05 -3.02351e-06 2.21239e-06 3.23517e-06 -4.14343e-08 6.8708e-07)
(7.80294e-05 -2.38211e-06 2.27974e-06 3.81966e-06 -1.69536e-08 5.99516e-07)
(7.78471e-05 -2.26044e-06 2.00983e-06 3.50725e-06 8.87488e-08 5.04336e-07)
(7.7191e-05 -2.14969e-06 1.87787e-06 3.65453e-06 -6.47024e-08 6.01504e-07)
(7.70898e-05 -1.70585e-06 1.7518e-06 3.95113e-06 1.41389e-07 5.37156e-07)
(7.64056e-05 -2.31614e-06 1.242e-06 3.50458e-06 1.05443e-09 5.17623e-07)
(7.67796e-05 -2.05688e-06 1.17828e-06 4.06171e-06 -6.46727e-08 6.17738e-07)
(7.6894e-05 -2.46232e-06 9.03686e-07 3.62233e-06 1.48143e-07 5.35062e-07)
(7.70627e-05 -1.9716e-06 6.81584e-07 3.77237e-06 -6.87824e-08 6.30927e-07)
(7.73889e-05 -2.27516e-06 8.24194e-07 4.22809e-06 1.17392e-07 6.40398e-07)
(7.81619e-05 -2.27652e-06 8.71668e-07 3.505e-06 -4.94186e-08 5.87532e-07)
(7.7886e-05 -2.06427e-06 9.77725e-07 4.47896e-06 -4.55002e-08 7.0103e-07)
(7.88996e-05 -1.64298e-06 1.21209e-06 4.21096e-06 1.88307e-07 7.05338e-07)
(7.86198e-05 -1.68687e-06 1.37653e-06 4.26463e-06 4.5421e-08 6.40291e-07)
(7.93554e-05 -1.46436e-06 1.68431e-06 4.84094e-06 6.86717e-08 6.07962e-07)
(8.02958e-05 -1.4402e-06 1.54955e-06 4.18214e-06 -1.09163e-07 6.07493e-07)
(7.96451e-05 -8.9112e-07 1.71988e-06 4.73086e-06 2.03796e-07 5.49278e-07)
(8.1256e-05 1.86348e-07 1.70271e-06 4.48164e-06 1.53132e-07 5.39011e-07)
(8.02618e-05 -6.30849e-08 1.86994e-06 4.38069e-06 -8.81503e-08 6.41166e-07)
(8.0286e-05 7.42817e-07 1.9625e-06 4.72133e-06 6.27277e-08 5.65309e-07)
(7.9959e-05 9.25229e-07 2.0773e-06 4.57229e-06 -2.8342e-08 5.00612e-07)
(7.91417e-05 9.88043e-07 2.16333e-06 4.8873e-06 -7.33464e-08 6.34152e-07)
(7.99669e-05 1.17776e-06 2.00158e-06 4.77178e-06 -1.65911e-07 5.87502e-07)
(7.87779e-05 6.50057e-07 2.24333e-06 4.70774e-06 -1.60603e-07 5.64825e-07)
(7.86007e-05 1.17969e-06 2.72017e-06 5.16434e-06 7.84292e-08 6.45048e-07)
(7.79272e-05 8.69457e-07 2.22881e-06 4.87846e-06 -1.14903e-07 6.04817e-07)
(7.74999e-05 9.31492e-07 2.39141e-06 5.24666e-06 -2.03748e-07 6.07598e-07)
(7.7058e-05 2.52877e-07 2.3344e-06 4.4923e-06 -9.95515e-08 5.25518e-07)
(7.60259e-05 -7.86659e-08 2.36008e-06 4.62994e-06 -2.12781e-07 6.27635e-07)
(7.62904e-05 2.29911e-07 2.41915e-06 5.38228e-06 -9.23496e-08 6.87227e-07)
(7.55226e-05 -6.68222e-07 2.09225e-06 3.955e-06 -2.02454e-07 5.48434e-07)
(7.49593e-05 -7.30416e-07 2.43416e-06 4.65801e-06 -1.43122e-07 6.08488e-07)
(7.47785e-05 -9.23181e-07 2.13983e-06 4.13325e-06 -8.64669e-08 5.78423e-07)
(7.39609e-05 -2.31649e-06 2.33587e-06 3.88448e-06 -4.55417e-08 5.34134e-07)
(7.47926e-05 -2.25211e-06 2.17875e-06 4.59472e-06 6.72737e-08 6.15062e-07)
(7.49842e-05 -2.8523e-06 2.24866e-06 3.25569e-06 -2.09157e-07 6.2306e-07)
(7.58813e-05 -3.13742e-06 1.91681e-06 3.92042e-06 -4.93766e-08 5.4461e-07)
(7.68531e-05 -2.78853e-06 1.93511e-06 3.5633e-06 2.938e-08 6.60421e-07)
(7.66378e-05 -3.30376e-06 2.13713e-06 3.36719e-06 -2.26808e-07 6.43598e-07)
(7.74733e-05 -2.80725e-06 2.08235e-06 3.63132e-06 -1.87185e-08 5.81701e-07)
(7.81667e-05 -3.71242e-06 3.26211e-06 5.63717e-06 -2.23295e-07 1.33225e-06)
(7.95781e-05 -2.95585e-06 3.38269e-06 6.44812e-06 -1.21277e-07 1.15953e-06)
(7.93393e-05 -2.83214e-06 3.01673e-06 5.99106e-06 -4.44162e-09 1.0207e-06)
(7.87215e-05 -2.45628e-06 2.97665e-06 6.49721e-06 -1.82704e-07 1.18709e-06)
(7.83628e-05 -2.11174e-06 2.79494e-06 6.56889e-06 1.10137e-07 1.09379e-06)
(7.76201e-05 -2.71989e-06 1.99249e-06 6.24601e-06 -2.18151e-07 1.12686e-06)
(7.81025e-05 -2.5211e-06 1.9362e-06 6.86018e-06 -2.11371e-07 1.30529e-06)
(7.83056e-05 -2.91132e-06 1.57608e-06 6.20248e-06 7.62435e-08 1.20248e-06)
(7.84076e-05 -2.24646e-06 1.23899e-06 6.70355e-06 -2.11866e-07 1.35628e-06)
(7.88647e-05 -2.60163e-06 1.53258e-06 7.05199e-06 1.14443e-07 1.38817e-06)
(7.98407e-05 -2.67242e-06 1.71404e-06 6.41922e-06 -1.9162e-07 1.35985e-06)
(7.96657e-05 -2.46047e-06 1.98922e-06 7.83618e-06 -6.36248e-08 1.41578e-06)
(8.08251e-05 -1.92432e-06 2.277e-06 7.50377e-06 2.27861e-07 1.44202e-06)
(8.06363e-05 -2.09768e-06 2.54108e-06 7.90061e-06 1.30585e-07 1.34769e-06)
(8.17435e-05 -1.74809e-06 2.94925e-06 8.68129e-06 1.69944e-07 1.26576e-06)
(8.26376e-05 -1.90249e-06 2.70289e-06 7.93586e-06 -1.19084e-07 1.25716e-06)
(8.23914e-05 -9.60427e-07 2.86383e-06 8.75563e-06 4.62293e-07 1.17814e-06)
(8.41146e-05 2.36775e-07 2.81945e-06 8.33971e-06 2.64018e-07 1.16702e-06)
(8.30587e-05 -8.66885e-08 2.95439e-06 8.17958e-06 -1.6714e-08 1.31077e-06)
(8.3007e-05 8.73038e-07 3.14487e-06 8.67431e-06 1.87613e-07 1.25309e-06)
(8.23571e-05 9.36112e-07 3.22998e-06 8.4754e-06 8.95788e-09 1.11699e-06)
(8.18291e-05 1.19609e-06 3.22573e-06 8.90706e-06 -1.22988e-07 1.31169e-06)
(8.25363e-05 1.01036e-06 2.98441e-06 8.52816e-06 -3.22891e-07 1.23332e-06)
(8.13548e-05 3.47017e-07 3.26892e-06 8.62765e-06 -2.61731e-07 1.20981e-06)
(8.12004e-05 1.08024e-06 3.7256e-06 9.33712e-06 -3.90843e-08 1.32146e-06)
(8.04252e-05 7.23522e-07 2.95236e-06 8.90495e-06 -3.27273e-07 1.24544e-06)
(8.00339e-05 7.69893e-07 3.16158e-06 9.28345e-06 -4.54299e-07 1.29952e-06)
(7.91718e-05 -2.00508e-07 3.01721e-06 8.02806e-06 -4.29001e-07 1.1267e-06)
(7.81304e-05 -2.08803e-07 3.08531e-06 8.71757e-06 -5.58648e-07 1.25191e-06)
(7.83771e-05 1.29449e-07 3.14668e-06 9.19776e-06 -3.40641e-07 1.33822e-06)
(7.70788e-05 -1.20536e-06 2.79099e-06 7.03403e-06 -5.44752e-07 1.1492e-06)
(7.64032e-05 -1.02838e-06 3.20023e-06 8.22909e-06 -4.48975e-07 1.21625e-06)