/*--------------------------------*- C++ -*----------------------------------*\
  =========                 |
  \\      /  F ield         | OpenFOAM: The Open Source CFD Toolbox
   \\    /   O peration     | Website:  https://openfoam.org
    \\  /    A nd           | Version:  10
     \\/     M anipulation  |
\*---------------------------------------------------------------------------*/
FoamFile
{
    format      ascii;
    class       surfaceScalarField;
    location    "7.5";
    object      phi_0;
}
// * * * * * * * * * * * * * * * * * * * * * * * * * * * * * * * * * * * * * //

dimensions      [0 3 -1 0 0 0 0];

internalField   nonuniform List<scalar> 
300480
(
0.000115999
1.55002e-05
0.000152992
0.000117595
-1.72494e-05
0.00016573
0.000130314
-1.61662e-05
0.000169831
0.000137676
7.65602e-06
0.000162089
0.00012816
2.98882e-05
0.000152314
0.000115747
1.19826e-05
0.000153709
0.000117683
-2.15624e-05
0.000167452
0.000130101
-1.86499e-05
0.000171049
0.000137462
7.8349e-06
0.000162328
0.000127678
2.81746e-05
0.000153031
0.000114062
1.0027e-05
0.000156908
0.000117575
-3.03922e-05
0.000172109
0.000130743
-2.34638e-05
0.000173213
0.000136755
6.70514e-06
0.00016281
0.000127905
2.67073e-05
0.000152466
0.000115028
8.15745e-06
0.000155874
0.000118116
-2.57733e-05
0.000171021
0.000131492
-2.12953e-05
0.000172084
0.000137784
5.15647e-06
0.000162041
0.000128307
2.61003e-05
0.000153283
0.000115832
9.07833e-06
0.000156699
0.000118958
-2.50141e-05
0.000170397
0.000131409
-1.99478e-05
0.000171094
0.000137858
7.52993e-06
0.000160905
0.00012776
3.08619e-05
0.00015125
0.000115643
1.00943e-05
0.000154854
0.000118332
-2.12592e-05
0.000167421
0.000129765
-1.74317e-05
0.000169871
0.000137491
6.50608e-06
0.000161921
0.000129741
2.78704e-05
0.00015144
0.000116054
1.2881e-05
0.000153823
0.000116276
-1.85441e-05
0.000167564
0.000129689
-1.97361e-05
0.000169608
0.000138858
3.66066e-06
0.000162804
0.000130179
2.75682e-05
0.000153532
0.000116183
1.73096e-05
0.000152675
0.000117788
-1.68863e-05
0.000164211
0.000130637
-1.45199e-05
0.00016744
0.000138443
8.72985e-06
0.000161745
3.08395e-05
0.00015316
6.14758e-05
-6.2876e-05
0.000156897
6.41766e-05
-0.000125617
0.000176164
8.97673e-05
-0.000106499
0.000156404
0.000103805
-3.9531e-05
0.000126195
8.95058e-05
-9.27894e-06
0.000124389
6.53818e-05
-6.69787e-05
0.000155263
6.282e-05
-0.000132587
0.000179835
8.9419e-05
-0.000112739
0.000158503
0.000111147
-4.57052e-05
0.00012508
9.80207e-05
-1.84456e-05
0.0001269
7.10989e-05
-7.33181e-05
0.000159912
6.64414e-05
-0.00015116
0.000188555
8.99385e-05
-0.000122793
0.000165016
0.00011249
-5.18119e-05
0.000127199
0.000101928
-1.98347e-05
0.000123515
7.16526e-05
-7.37827e-05
0.000159231
6.85534e-05
-0.00014026
0.000185779
9.62417e-05
-0.000122191
0.000162128
0.000114351
-5.38835e-05
0.000128969
9.84456e-05
-1.69046e-05
0.000127066
6.96347e-05
-6.86139e-05
0.00015857
6.95873e-05
-0.000141594
0.000183576
9.42329e-05
-0.000116903
0.000159981
0.000106826
-3.74209e-05
0.000124031
9.01668e-05
-5.89031e-06
0.000122699
6.59134e-05
-7.38459e-05
0.000158816
6.5614e-05
-0.000131859
0.000179102
9.0317e-05
-0.000110616
0.00015741
0.000110938
-4.38355e-05
0.000123354
9.70395e-05
-9.34958e-06
0.00012044
6.5958e-05
-6.26819e-05
0.000156822
6.21392e-05
-0.000124367
0.000177922
8.82589e-05
-0.0001112
0.000154243
0.000106481
-4.52813e-05
0.000125494
8.86805e-05
-6.82205e-06
0.000125513
6.05324e-05
-5.12536e-05
0.000152953
6.26507e-05
-0.000121897
0.000171922
8.61726e-05
-9.61935e-05
0.000149501
9.95308e-05
-3.36385e-05
0.000125267
-8.85907e-06
0.000128466
9.97152e-05
-0.000137362
0.000139172
7.25818e-05
-0.000216485
0.000183546
9.3213e-05
-0.000222244
0.000174144
0.000129862
-0.000136185
0.000122288
0.000141992
-8.7424e-05
0.000101332
0.000108997
-0.000139831
0.000133384
7.33426e-05
-0.000226398
0.000187213
9.00878e-05
-0.000221521
0.000174157
0.000138569
-0.000143544
0.000113561
0.000162132
-0.000112655
0.00010164
0.000131473
-0.000156831
0.000135734
8.47173e-05
-0.000235842
0.000189984
9.01516e-05
-0.000229852
0.000183742
0.000142711
-0.000161752
0.000118036
0.000167743
-0.000111941
9.54523e-05
0.000128117
-0.000147247
0.000134914
8.43599e-05
-0.000220575
0.00018901
9.95441e-05
-0.000237178
0.000179259
0.00014846
-0.000170111
0.000123337
0.000164186
-0.000105369
0.000104812
0.00012158
-0.000135551
0.000137484
8.41648e-05
-0.000232262
0.000189119
0.000102302
-0.000237868
0.000178353
0.000138787
-0.000133924
0.000118669
0.000144621
-8.03055e-05
0.000100881
0.000105984
-0.000143352
0.000137809
7.49544e-05
-0.00022349
0.000185222
9.62819e-05
-0.000230611
0.000176453
0.00014205
-0.000144634
0.00011598
0.000152292
-8.18034e-05
9.61988e-05
0.000108639
-0.000132523
0.000136164
7.50052e-05
-0.000213633
0.000184484
9.40202e-05
-0.000217985
0.000169199
0.000134676
-0.000137687
0.000116467
0.000135732
-7.49401e-05
0.000103686
9.24295e-05
-0.000118077
0.000137672
6.8022e-05
-0.000211161
0.000180182
8.6165e-05
-0.00019233
0.000161272
0.000120269
-0.000119243
0.0001168
-9.19225e-05
0.000110123
0.00017853
-0.00015253
8.29739e-05
0.000123964
-0.000236219
0.000157062
0.000121714
-0.000298067
0.000186731
0.000165415
-0.000227196
0.000122978
0.000208176
-0.000150261
6.19407e-05
0.000186551
-0.000158897
7.63986e-05
0.000129095
-0.000258353
0.000159741
0.000116846
-0.000287886
0.000190265
0.000159152
-0.000216272
0.000111918
0.000212234
-0.000184728
5.86914e-05
0.000206644
-0.000197162
7.77779e-05
0.000146421
-0.000264175
0.000158321
0.000117186
-0.00028668
0.000197392
0.000163034
-0.000251337
0.000122764
0.00022123
-0.000190299
5.40497e-05
0.000204301
-0.000172793
7.45023e-05
0.000140983
-0.000245426
0.000162289
0.000123687
-0.000303991
0.000195195
0.000174659
-0.000274104
0.000121789
0.000227713
-0.000189166
6.33363e-05
0.000203277
-0.000162041
8.22637e-05
0.000137478
-0.000253061
0.000163095
0.000129919
-0.000318388
0.000193453
0.000179699
-0.000233928
0.000117493
0.000215228
-0.000139437
5.91901e-05
0.000180024
-0.000154224
8.50211e-05
0.000125184
-0.000252489
0.000161633
0.00012364
-0.000314272
0.000192993
0.000172299
-0.000238465
0.000116462
0.000214369
-0.000150075
5.94203e-05
0.000185049
-0.00014964
8.1229e-05
0.000130949
-0.000236096
0.000155905
0.000126491
-0.00028148
0.000180956
0.000174437
-0.00022159
0.000112771
0.000207236
-0.000136379
6.64218e-05
0.000170045
-0.000130413
8.35158e-05
0.00011774
-0.000237183
0.000158354
0.000117336
-0.000249317
0.000174773
0.000165038
-0.000197403
0.00011028
-0.00016008
6.83441e-05
0.000226084
-0.000150777
4.4853e-05
0.000173462
-0.000245529
0.000136959
0.000156249
-0.000348992
0.00020547
0.000188817
-0.000297141
0.000148483
0.000238893
-0.000191945
4.91139e-05
0.000235187
-0.000156108
4.0049e-05
0.000178269
-0.000271975
0.00013584
0.000152077
-0.000348275
0.000214988
0.000181807
-0.000266816
0.000145667
0.00023224
-0.00021621
4.24865e-05
0.000245363
-0.000215719
4.26983e-05
0.000199482
-0.000293212
0.000136967
0.000156411
-0.00032979
0.000213151
0.000183741
-0.0003149
0.000161179
0.000244906
-0.000242198
4.50584e-05
0.000251643
-0.00018097
3.53807e-05
0.000196968
-0.000264877
0.000137288
0.000164029
-0.000352982
0.000215846
0.000197921
-0.000347332
0.000150755
0.000253527
-0.000246026
4.68862e-05
0.00025013
-0.00017376
4.05326e-05
0.000187983
-0.000260997
0.000137302
0.000162176
-0.00037309
0.00021378
0.000205439
-0.000314761
0.00013944
0.000252143
-0.000178892
3.87409e-05
0.000230816
-0.00014002
4.76017e-05
0.000172829
-0.000259531
0.000137773
0.000155741
-0.000377316
0.000210993
0.000194265
-0.000309811
0.000147201
0.000243973
-0.000194801
3.96195e-05
0.000234543
-0.000148457
4.03203e-05
0.000183169
-0.000249709
0.000134406
0.000164044
-0.000329289
0.000201088
0.00019782
-0.000272304
0.000134269
0.000238086
-0.000171604
4.54426e-05
0.000221977
-0.000122841
4.05476e-05
0.000168702
-0.000253558
0.000136955
0.000150384
-0.000293343
0.000200169
0.000188273
-0.000241746
0.00013056
-0.000198138
4.64462e-05
0.000280902
-0.000107135
3.8124e-06
0.000241386
-0.000212655
8.57185e-05
0.000208629
-0.000371639
0.000196702
0.000223208
-0.000336434
0.000182733
0.000270315
-0.000199106
5.9605e-05
0.000291055
-0.00010845
-2.7796e-06
0.000245913
-0.00023194
8.31573e-05
0.000204382
-0.000386489
0.000206308
0.000221098
-0.00030041
0.000184308
0.000265632
-0.000198574
4.49367e-05
0.000293426
-0.000179006
6.75845e-07
0.000265805
-0.000272537
8.59896e-05
0.000216631
-0.000349526
0.00019516
0.000222982
-0.00034464
0.000193108
0.00027583
-0.000250102
5.65394e-05
0.000304781
-0.000140079
-1.16022e-05
0.000266991
-0.000223917
7.35498e-05
0.000223895
-0.000373064
0.000195974
0.000238578
-0.000380129
0.000177482
0.000285919
-0.00025304
4.56037e-05
0.000298809
-0.000129743
-1.16021e-05
0.00025255
-0.000216404
7.46285e-05
0.000214675
-0.000394743
0.000197372
0.000239345
-0.000355063
0.000167263
0.00028735
-0.000181099
3.73458e-05
0.000286885
-7.52801e-05
5.4519e-07
0.000237345
-0.000200819
7.61745e-05
0.000209712
-0.000410809
0.000194318
0.000232005
-0.000347195
0.000175172
0.000274744
-0.000182927
3.74126e-05
0.000286829
-8.87703e-05
-1.65217e-05
0.000251067
-0.000213147
7.6058e-05
0.000222535
-0.000360851
0.00019051
0.000236395
-0.000287295
0.000161599
0.00026986
-0.000152824
4.3351e-05
0.000274726
-6.23987e-05
-9.40612e-06
0.000236639
-0.000215236
7.85295e-05
0.000206345
-0.000323517
0.00019432
0.000222487
-0.000255457
0.000169012
-0.000191714
5.45049e-05
0.000322998
-3.46171e-05
-4.42213e-06
0.00030355
-0.000144614
4.79821e-05
0.000275227
-0.000368595
0.000166623
0.000275901
-0.000359305
0.000201866
0.000308471
-0.000195501
9.91205e-05
0.000334861
-4.20065e-05
-1.56267e-05
0.000309064
-0.000153407
3.92961e-05
0.000270133
-0.000391737
0.000179828
0.000274562
-0.000332563
0.00020695
0.00030752
-0.000166664
7.10791e-05
0.000334442
-0.000106059
-1.95578e-05
0.000322219
-0.000218844
4.92696e-05
0.000285077
-0.000342636
0.000165403
0.000280952
-0.000358935
0.00019964
0.000315866
-0.000237869
8.63755e-05
0.000341233
-6.1552e-05
-3.85804e-05
0.000321542
-0.000147922
2.65525e-05
0.000290789
-0.000365934
0.000161605
0.000294347
-0.000392503
0.0001852
0.000326138
-0.000227474
5.74785e-05
0.000336651
-4.77246e-05
-3.63531e-05
0.000307495
-0.000139882
3.78225e-05
0.000278106
-0.000389431
0.000165849
0.000288982
-0.000372893
0.000181265
0.000327221
-0.000164115
6.00417e-05
0.000330281
1.15095e-05
-2.32918e-05
0.000296437
-0.000106847
3.46058e-05
0.000277218
-0.000411401
0.000162649
0.000287548
-0.000369773
0.000184091
0.000313277
-0.000144834
5.71068e-05
0.000328791
-1.26002e-06
-3.11884e-05
0.000311905
-0.000141511
3.83513e-05
0.000290246
-0.000362949
0.000160712
0.00029236
-0.000292072
0.00017382
0.000309726
-0.000110433
6.8047e-05
0.000318848
1.59648e-05
-9.80956e-06
0.000297315
-0.000140349
4.34691e-05
0.000272571
-0.000324504
0.00016731
0.000279043
-0.000270995
0.000190926
-0.000166223
8.7875e-05
0.000384621
2.56655e-05
1.97215e-05
0.00037077
-6.60853e-05
3.17055e-05
0.000343796
-0.000320856
0.000128276
0.000342474
-0.000354013
0.000187499
0.000368371
-0.000190396
0.000134445
0.000398434
-1.11905e-06
1.78889e-05
0.000380924
-6.53573e-05
1.46737e-05
0.00033948
-0.000337876
0.000136146
0.000339181
-0.000341549
0.000200663
0.000366077
-0.000140921
0.000106729
0.000396194
-5.13278e-05
8.98268e-06
0.000390794
-0.000153358
2.82819e-05
0.000356084
-0.00029168
0.000127637
0.000351637
-0.000336806
0.000176492
0.00037511
-0.000211538
0.000105249
0.000397765
-9.92639e-07
-1.13493e-05
0.000386005
-7.00407e-05
9.93595e-06
0.000360347
-0.00031714
0.000123553
0.000359086
-0.000366959
0.000165104
0.000380789
-0.00018524
7.45716e-05
0.000394923
3.7655e-06
3.92865e-06
0.00037294
-7.28741e-05
3.99324e-05
0.000344396
-0.000345471
0.00013724
0.00035039
-0.000362621
0.000170506
0.000386685
-0.000148593
8.66039e-05
0.00039644
6.55929e-05
5.38078e-06
0.000367355
-2.29331e-05
2.96662e-05
0.000346345
-0.000360257
0.000124865
0.000350898
-0.000366806
0.000170796
0.00036974
-0.000115643
9.43793e-05
0.000391186
3.67731e-05
2.48708e-05
0.000380243
-9.03572e-05
4.5369e-05
0.000354727
-0.000321576
0.000128835
0.000353711
-0.000282388
0.000169315
0.000366975
-7.9672e-05
0.000107018
0.000383316
5.69397e-05
3.46298e-05
0.00036677
-7.42801e-05
4.10252e-05
0.000337089
-0.000284141
0.0001399
0.000342425
-0.000272693
0.00018748
-0.000142039
0.000118784
0.0004378
5.79637e-05
6.01254e-05
0.000441742
-2.69982e-05
5.39381e-05
0.000416738
-0.000270398
0.000120754
0.000408634
-0.000309334
0.000159322
0.000421086
-0.000154232
0.000130112
0.0004475
1.53231e-05
6.61294e-05
0.000452251
-2.66422e-05
4.49165e-05
0.000414213
-0.000273962
0.000120604
0.000402382
-0.000308089
0.000177227
0.000415897
-0.000110634
0.000129012
0.000441811
-2.31477e-05
6.00414e-05
0.00045447
-0.00011958
5.55912e-05
0.000427216
-0.000246825
0.000125345
0.00042119
-0.000272499
0.000143065
0.00043291
-0.000149101
9.27243e-05
0.000444564
4.00978e-05
4.00929e-05
0.000447546
-3.82698e-05
5.97379e-05
0.000432535
-0.000284745
0.000127587
0.000426836
-0.00031189
0.000144953
0.000432402
-0.000122665
8.61324e-05
0.000441862
3.90161e-05
5.11271e-05
0.000439446
-6.05708e-05
8.94137e-05
0.000415614
-0.000314065
0.000144666
0.000414478
-0.000324113
0.000156096
0.000441574
-0.000112371
8.81876e-05
0.000448235
9.47966e-05
5.01781e-05
0.000435585
1.33404e-07
7.95894e-05
0.000418635
-0.000309288
0.000114057
0.00041519
-0.000334782
0.000155569
0.000421727
-8.73816e-05
0.000117797
0.000440877
4.16e-05
7.81104e-05
0.000450232
-9.36377e-05
8.46557e-05
0.000426233
-0.000277048
0.000118792
0.000413378
-0.000242184
0.00015673
0.000415867
-4.47703e-05
0.000120699
0.000435399
7.10745e-05
6.52358e-05
0.000440769
-5.07013e-05
6.30916e-05
0.00040976
-0.000241716
0.000136015
0.000403369
-0.000239556
0.000167933
-9.98241e-05
0.000121288
0.000496506
0.000112134
5.8334e-05
0.000519538
-1.74595e-05
6.28299e-05
0.000503555
-0.000247896
0.000127354
0.000485431
-0.000234758
0.00013254
0.000484613
-5.67255e-05
9.34718e-05
0.000504514
6.25155e-05
6.44875e-05
0.000530505
-1.91202e-05
5.64309e-05
0.000506181
-0.000237678
0.000119815
0.000476358
-0.000243844
0.000159165
0.000475562
-3.69596e-05
0.000123319
0.00049789
3.3932e-05
6.16916e-05
0.000524527
-0.000107715
6.75532e-05
0.000512543
-0.000228563
0.000130246
0.000498781
-0.000178746
0.000111482
0.000500634
-3.14669e-05
6.14065e-05
0.000507129
0.000107072
4.34063e-05
0.000519989
-3.11089e-05
8.34118e-05
0.000517389
-0.000264017
0.000119845
0.000502712
-0.000217488
0.000107166
0.00049433
-9.63446e-06
6.82826e-05
0.00050267
0.000107238
4.56094e-05
0.000518341
-5.52492e-05
8.59698e-05
0.000504357
-0.000289332
0.000130291
0.000488295
-0.000240929
0.000120582
0.000503486
-1.98079e-05
5.77148e-05
0.000511069
0.000142155
5.52365e-05
0.00051472
1.22961e-05
8.18392e-05
0.000505721
-0.000255197
8.19736e-05
0.000486416
-0.000266978
0.000133431
0.000480515
-1.83513e-05
0.000106888
0.000500356
0.000100883
5.33556e-05
0.000529072
-8.79261e-05
6.6902e-05
0.000514455
-0.000237786
9.81675e-05
0.000482254
-0.000162472
0.00013363
0.000471826
3.25134e-05
0.000109719
0.000494232
0.000122629
4.59333e-05
0.000520345
-2.86035e-05
4.80058e-05
0.00050102
-0.000218028
0.000128651
0.000478318
-0.000169741
0.000139064
1.24245e-06
9.195e-05
0.000567469
0.00019857
4.57328e-05
0.000605651
-5.84192e-06
4.68657e-05
0.000600379
-0.000231471
9.79434e-05
0.000574132
-0.000127124
7.41549e-05
0.000559982
7.74278e-05
5.68415e-05
0.00057775
0.000144621
4.97288e-05
0.000615156
5.11847e-06
2.5806e-05
0.000605684
-0.000206995
7.83799e-05
0.000568537
-0.000143875
9.54969e-05
0.00055073
8.456e-05
8.82348e-05
0.000571421
0.000135915
3.66546e-05
0.000605281
-6.54622e-05
2.1083e-05
0.000602357
-0.00018188
6.33424e-05
0.000581071
-4.85491e-05
4.24806e-05
0.000572087
0.000105397
4.05403e-05
0.000583899
0.000185563
3.96244e-05
0.000598382
5.89691e-06
4.87526e-05
0.000596228
-0.000178802
2.7486e-05
0.000576094
-7.27838e-05
1.90621e-05
0.000560098
0.000127547
4.37817e-05
0.000574277
0.000191465
4.06833e-05
0.000596442
-1.14555e-05
3.694e-05
0.000588343
-0.00020833
3.56339e-05
0.000565738
-0.000115614
5.27395e-05
0.000569079
9.73954e-05
3.74789e-05
0.000583303
0.000201517
5.66199e-05
0.000591338
5.3834e-05
5.86977e-05
0.000585086
-0.000158226
4.03088e-07
0.000565797
-0.000148305
4.70783e-05
0.000552396
9.81402e-05
6.98098e-05
0.000573618
0.000197316
3.82073e-05
0.000608943
-4.1969e-05
2.47339e-05
0.000603977
-0.000178368
3.20931e-05
0.00056703
-4.36298e-05
6.40888e-05
0.000542374
0.000155829
8.66932e-05
0.00056349
0.000204114
4.74923e-05
0.00059938
1.13154e-05
2.9251e-05
0.000597639
-0.000182068
7.31434e-05
0.000568779
-6.2407e-05
6.48008e-05
0.000150685
5.34549e-05
0.000665927
0.000244612
6.81502e-05
0.000714924
1.25744e-05
2.3475e-06
0.000704143
-0.000130418
-4.7974e-05
0.000659125
3.29461e-05
-3.27528e-05
0.000651289
0.000185913
3.61976e-05
0.000677065
0.000206653
5.62867e-05
0.000708298
7.39338e-05
-3.8222e-05
0.000688869
-8.47614e-05
-9.19708e-05
0.000646546
3.52772e-05
-5.73366e-05
0.000640022
0.000208633
2.98765e-05
0.00066149
0.000216836
4.84494e-05
0.000684819
3.78048e-05
-6.49575e-05
0.000674589
-3.55524e-05
-0.000109915
0.000654391
9.17995e-05
-3.81559e-05
0.000657812
0.000195222
3.74553e-05
0.00067208
0.000252207
3.94855e-05
0.000683841
9.24235e-05
-4.35204e-05
0.000674316
-4.55806e-05
-6.30288e-05
0.00064855
6.20216e-05
-5.86122e-07
0.000644508
0.000220918
5.53943e-05
0.000668864
0.000243593
5.92342e-05
0.000688479
5.54037e-05
-1.41047e-05
0.000674068
-7.34572e-05
-6.47831e-05
0.000640744
1.72013e-05
8.93045e-06
0.000650115
0.000173681
5.0183e-05
0.000682413
0.000245545
3.94962e-05
0.000685189
0.00011819
1.5502e-05
0.000664384
-2.80761e-05
-5.68755e-05
0.000638468
1.24404e-05
-5.21445e-05
0.000634829
0.000203976
4.38569e-05
0.000671887
0.000243168
7.14616e-05
0.0007038
3.65197e-05
-3.27207e-05
0.000683908
-4.64825e-05
-8.78604e-05
0.000640106
0.000106048
-2.87535e-05
0.000624037
0.000261722
5.84852e-05
0.000655649
0.000251573
6.40842e-05
0.000699363
5.20661e-05
-7.70484e-06
0.000697066
-8.42096e-05
-4.74171e-05
0.00064952
7.42948e-05
-2.01704e-05
0.000266314
4.96599e-05
0.000821092
0.000260937
5.07418e-05
0.000841577
9.22401e-05
-0.000107378
0.000816794
1.77042e-05
-0.000164758
0.000781509
0.000143712
-6.27943e-05
0.000788922
0.000243956
2.74307e-05
0.000819275
0.000239571
2.19974e-05
0.000828349
0.000148427
-8.90954e-05
0.000798077
5.36107e-05
-0.000150495
0.000763014
0.00016515
-7.23522e-05
0.000764434
0.000277919
2.13654e-05
0.000784207
0.000263821
3.0991e-05
0.000797427
0.000127458
-9.52138e-05
0.000797366
6.96107e-05
-0.000127404
0.000789124
0.000153513
-1.94987e-05
0.000786916
0.000258136
3.5468e-05
0.000799647
0.000295745
1.18843e-05
0.000808851
0.00015859
-8.78381e-05
0.00079499
3.77598e-05
-6.43971e-05
0.000776955
0.000143534
1.39779e-05
0.000785387
0.00027161
5.12066e-05
0.000821131
0.000266034
2.86643e-05
0.000830949
0.000121964
-7.30975e-05
0.000807972
2.22936e-05
-8.02808e-05
0.000779709
0.000101555
6.44554e-06
0.000797049
0.000213708
4.80557e-05
0.00083481
0.000256364
1.08874e-05
0.00082981
0.000179902
-5.94223e-05
0.000803511
5.1266e-05
-5.51169e-05
0.000775007
0.00010562
-2.8497e-05
0.000779443
0.000255892
5.09775e-05
0.000820768
0.000253593
5.00357e-05
0.000833136
0.000113077
-8.10922e-05
0.000810445
6.54669e-05
-0.000116701
0.000776425
0.000192132
-3.52491e-05
0.000777203
0.000310623
4.4859e-05
0.000816921
0.000265313
4.2359e-05
0.000834047
0.000109692
-6.90429e-05
0.00082152
2.74482e-05
-0.0001272
0.00077825
0.000176519
-6.70266e-05
0.000320899
4.1614e-05
0.00104781
0.000254653
-1.51615e-05
0.0010701
0.000145671
-9.59834e-05
0.00097841
0.000160812
-0.000142312
0.000908032
0.000260947
-7.59799e-05
0.000955361
0.000286414
-1.50875e-05
0.0010417
0.000224446
-8.3327e-06
0.0010508
0.000185106
-7.73574e-05
0.000951017
0.00018648
-0.000112393
0.00089345
0.000268771
-6.73045e-05
0.00095117
0.00030004
-1.88989e-05
0.00101656
0.000263994
-2.2554e-06
0.00100966
0.000192059
-7.03273e-05
0.000938521
0.000178611
-0.000113239
0.000918321
0.000229984
-6.54739e-05
0.000974745
0.000294147
-1.87871e-05
0.00103416
0.000303416
-3.25385e-05
0.00102133
0.000216354
-8.70333e-05
0.000928998
0.000160769
-7.75052e-05
0.000899183
0.00022309
-2.39564e-05
0.000970882
0.00027402
-2.73703e-06
0.00106355
0.000231816
-1.43245e-05
0.0010632
0.000165653
-6.40093e-05
0.000958139
0.000147994
-8.29807e-05
0.000900451
0.000209606
-3.90061e-05
0.000967631
0.000240605
-2.06343e-05
0.00106301
0.000231064
-4.80151e-05
0.00105788
0.000225956
-8.10772e-05
0.000953208
0.00017655
-8.0304e-05
0.000889182
0.000195239
-3.52312e-05
0.000941674
0.000278859
6.58984e-07
0.00104393
0.000236719
-2.22516e-05
0.00106563
0.000158282
-8.71298e-05
0.000966159
0.000184576
-9.95498e-05
0.000888794
0.000293425
-5.12026e-05
0.000940802
0.000354087
-3.28066e-05
0.00104871
0.000259856
-3.94203e-05
0.00106859
0.000168819
-9.39758e-05
0.000981357
0.000153627
-0.000122434
0.000907518
0.000287093
-8.31724e-05
0.000368288
-3.78974e-05
0.00119761
0.00024833
-8.00464e-05
0.00128596
0.000107273
-9.69178e-05
0.00120668
0.000239923
-0.000142414
0.00106651
0.000438899
-0.000142439
0.00106398
0.000422176
-9.74206e-05
0.00120128
0.000212671
-6.65045e-05
0.00127989
0.000140677
-9.59355e-05
0.00118089
0.000277838
-0.000124781
0.00104882
0.000456939
-0.000147386
0.00107163
0.000419934
-0.000123258
0.00119477
0.000252361
-6.54955e-05
0.00125106
0.00017484
-8.45735e-05
0.00116177
0.00028264
-0.000144879
0.00105945
0.000411203
-0.00015396
0.00110061
0.000389157
-0.000107243
0.00122698
0.000265324
-8.78715e-05
0.00126446
0.000202868
-9.95649e-05
0.00114461
0.000287365
-0.00011432
0.00103505
0.000411366
-0.000130831
0.00107901
0.000375051
-0.000116601
0.00122777
0.000184368
-9.08026e-05
0.00129294
0.00013158
-8.73662e-05
0.00118432
0.000254957
-0.000112925
0.0010553
0.000402127
-0.00012944
0.00107648
0.000355334
-0.000109805
0.00121647
0.000195493
-0.00010727
0.00128566
0.000182478
-0.000107427
0.00118036
0.000277522
-0.000119852
0.00104487
0.000381466
-0.000137344
0.00104157
0.000415386
-0.000109859
0.00117175
0.000238599
-9.2399e-05
0.00127496
0.000109335
-0.000109506
0.00119319
0.000251985
-0.000125689
0.00105005
0.00046596
-0.000142645
0.0010499
0.000479308
-0.000111555
0.00118892
0.00024337
-6.82863e-05
0.00127854
0.000136514
-0.000101825
0.00120125
0.000237353
-0.000147031
0.00106549
0.000450704
-0.000156676
0.000485243
-0.000123773
0.00130309
0.000256858
-8.1419e-05
0.00143402
1.93386e-05
-7.13052e-05
0.00138037
0.000276058
-0.000133795
0.00122605
0.000620317
-0.000180237
0.00117209
0.000584692
-0.000133087
0.0013033
0.000217656
-6.41171e-05
0.00142502
4.62822e-05
-7.42285e-05
0.00135042
0.000335421
-0.000124056
0.00119878
0.000653199
-0.000185615
0.00117594
0.000570751
-0.000154939
0.00130193
0.000245549
-5.71857e-05
0.00140053
0.00010669
-6.8779e-05
0.00132455
0.00036033
-0.00014154
0.00119941
0.000598377
-0.000179379
0.00121052
0.000492908
-0.000134348
0.001358
0.000213961
-7.66533e-05
0.0014318
0.000136046
-7.46487e-05
0.00131841
0.000395144
-0.000116621
0.00118634
0.000609144
-0.000173143
0.00119716
0.000490284
-0.000144001
0.00135643
0.000130292
-8.04463e-05
0.00145094
4.79182e-05
-7.59595e-05
0.00134523
0.000358137
-0.000120498
0.0011979
0.000610217
-0.000170416
0.00118599
0.00049391
-0.000135996
0.00133108
0.000168073
-9.33211e-05
0.00144185
9.0109e-05
-8.47919e-05
0.00134668
0.000349733
-0.000110869
0.00118548
0.000590714
-0.00018391
0.00114506
0.000575095
-0.000143702
0.0012734
0.000242619
-7.91939e-05
0.00141091
6.21372e-06
-8.92255e-05
0.00135086
0.000283473
-0.000127317
0.00119307
0.00066002
-0.000193574
0.0011529
0.000634634
-0.0001523
0.00129347
0.000222624
-5.6175e-05
0.00142127
4.00234e-05
-6.53636e-05
0.00136493
0.000286388
-0.000145579
0.00122359
0.000626368
-0.000203289
0.000640798
-0.000164282
0.00144675
0.000334008
-0.000110063
0.00158053
-4.47577e-05
-6.48482e-05
0.00159376
0.000210004
-0.000105682
0.00147092
0.000715455
-0.000182256
0.00138042
0.000761094
-0.000173588
0.00145762
0.000287775
-9.30083e-05
0.00158272
-3.52527e-05
-6.02545e-05
0.00156273
0.000288763
-9.16302e-05
0.00143556
0.000765834
-0.000177891
0.00137139
0.000733892
-0.0001782
0.00145163
0.000298148
-8.53149e-05
0.00157148
2.27682e-05
-5.14922e-05
0.0015635
0.000308426
-9.79502e-05
0.00145784
0.000697358
-0.000176128
0.00141572
0.000635563
-0.000172793
0.00151351
0.00023632
-0.000106069
0.00161439
4.41701e-05
-5.55552e-05
0.00156424
0.000387039
-9.02414e-05
0.00144256
0.000739154
-0.000182812
0.00140358
0.000641071
-0.000173916
0.0015156
0.000148209
-9.53056e-05
0.0016232
-4.0038e-05
-5.40729e-05
0.00156863
0.000359746
-8.75081e-05
0.00143688
0.000746027
-0.000165003
0.00137733
0.000662105
-0.000162208
0.00147323
0.000210992
-0.000110563
0.00160725
-1.19053e-05
-7.03656e-05
0.00157744
0.000314201
-8.15888e-05
0.00143587
0.000715131
-0.000170945
0.00135268
0.000750168
-0.000168793
0.00142757
0.000315032
-0.000106306
0.00157279
-7.7733e-05
-8.2202e-05
0.00156994
0.000222662
-9.65536e-05
0.00143035
0.000767927
-0.000176321
0.0013537
0.000802573
-0.000183101
0.00143498
0.000283262
-0.000105106
0.00156345
-3.07773e-05
-6.44241e-05
0.00156728
0.000239672
-0.000114172
0.00144979
0.000715356
-0.000193786
0.000799883
-0.000190598
0.00175341
0.000420279
-0.000121552
0.00181944
-4.56221e-05
-5.413e-05
0.00184091
0.000147072
-8.48911e-05
0.00178924
0.000727858
-0.000174425
0.00173358
0.000867191
-0.000193156
0.00175995
0.000373831
-0.000110049
0.00183037
-5.02697e-05
-5.13026e-05
0.00182158
0.000234288
-7.64909e-05
0.00176398
0.000789933
-0.000174027
0.00173885
0.000817759
-0.000198304
0.00177222
0.000365616
-0.000113021
0.00182592
4.5807e-06
-5.23261e-05
0.00182342
0.000263625
-8.16551e-05
0.00178851
0.000715171
-0.000175107
0.00177617
0.000717415
-0.000190183
0.00181718
0.000288403
-0.000118913
0.001862
5.95526e-06
-5.05085e-05
0.00183644
0.000361299
-7.80112e-05
0.00177929
0.000788312
-0.000177292
0.00174136
0.000745411
-0.000179839
0.00178865
0.000204625
-9.89223e-05
0.00185757
-7.63629e-05
-4.79978e-05
0.00183586
0.000332775
-7.86552e-05
0.00177678
0.000791149
-0.000166668
0.00173237
0.000776404
-0.00017302
0.00175456
0.000300278
-0.000113261
0.00183771
-6.12969e-05
-6.34865e-05
0.00184313
0.000242812
-7.45818e-05
0.0017774
0.000743603
-0.000174272
0.00172496
0.000860265
-0.00019238
0.00173457
0.000416662
-0.000122495
0.00180137
-8.40854e-05
-7.65373e-05
0.0018169
0.000153203
-8.67356e-05
0.00176332
0.000776876
-0.000175531
0.00172795
0.000887937
-0.000197728
0.00174849
0.000367883
-0.000121477
0.00180436
-4.23958e-05
-6.39607e-05
0.00182492
0.000170858
-9.07636e-05
0.00177679
0.000720055
-0.000181145
0.00088456
-0.000203343
0.00197414
0.000535366
-9.50007e-05
0.00191734
9.57264e-05
-3.9169e-05
0.00191703
0.000180276
-8.72607e-05
0.00195756
0.000692413
-0.000156276
0.0019979
0.000878812
-0.000155358
0.0019621
0.000502186
-7.63049e-05
0.00190715
8.71919e-05
-4.05243e-05
0.00190335
0.000252034
-9.07971e-05
0.00194767
0.000742293
-0.000166093
0.00199897
0.000827001
-0.000161595
0.00197923
0.000466833
-7.65802e-05
0.00191879
0.000123615
-4.41687e-05
0.00191348
0.000288188
-8.61074e-05
0.00196886
0.000683553
-0.000147111
0.00201614
0.000733838
-0.000141876
0.00199144
0.000384011
-8.33964e-05
0.00194621
0.000101948
-3.96608e-05
0.00194587
0.000372023
-8.1379e-05
0.00198105
0.000780205
-0.000143982
0.00199181
0.000804168
-0.000127843
0.00194443
0.000341506
-6.01183e-05
0.00192174
1.72794e-05
-4.24189e-05
0.00193495
0.000326892
-9.79035e-05
0.00196138
0.000782026
-0.000156749
0.00198167
0.000829165
-0.000140224
0.00194531
0.000434591
-8.23e-05
0.00190874
5.29266e-05
-5.36986e-05
0.00191822
0.000244832
-8.15856e-05
0.00195496
0.000718766
-0.000168803
0.00199898
0.000884799
-0.000162454
0.00196184
0.000550852
-8.16257e-05
0.00188635
7.00034e-05
-5.24034e-05
0.00189299
0.000152985
-9.45753e-05
0.00195875
0.000712127
-0.000177106
0.00200201
0.000903795
-0.000166342
0.00195879
0.000498601
-8.54114e-05
0.00190051
8.28359e-05
-5.53111e-05
0.00190338
0.000183658
-9.8454e-05
0.00195295
0.000676549
-0.00017166
0.000878981
-0.000173322
0.00225361
0.000596836
-2.17085e-05
0.0020989
0.000265502
-4.14316e-06
0.00205113
0.000240993
-4.34973e-05
0.0021702
0.000572525
-7.19832e-05
0.0022807
0.000794228
-5.68818e-05
0.00223041
0.000585022
-8.68783e-06
0.00207492
0.000255906
-5.39925e-06
0.00204338
0.000289521
-5.0453e-05
0.00217891
0.000598297
-7.67265e-05
0.00228681
0.00074697
-5.8423e-05
0.00223261
0.000555652
-7.55559e-06
0.00208077
0.000285217
-3.57319e-06
0.00206605
0.000304647
-3.90062e-05
0.00220851
0.000548198
-5.50723e-05
0.00229461
0.00067983
-4.25519e-05
0.00221341
0.000489179
-1.58623e-05
0.00207812
0.000238682
-9.67659e-06
0.00208944
0.000359819
-3.88374e-05
0.00221352
0.000658908
-4.93631e-05
0.00228169
0.00076219
-2.86299e-05
0.00219016
0.000452229
-3.00426e-07
0.00206197
0.000162677
-1.6016e-05
0.00207773
0.000319223
-5.69014e-05
0.00219895
0.00066056
-6.94504e-05
0.00226661
0.000800832
-4.66066e-05
0.00220265
0.000536706
-2.22698e-05
0.002073
0.000197419
-2.54646e-05
0.00205181
0.000257415
-3.87632e-05
0.00217211
0.000593253
-7.41286e-05
0.00228179
0.000809291
-6.00725e-05
0.00223773
0.000634641
-1.00189e-05
0.00207907
0.000252102
-9.80918e-06
0.00204298
0.000195447
-4.79779e-05
0.00218761
0.000562317
-8.74903e-05
0.00229814
0.000818873
-6.4373e-05
0.00223358
0.000595439
-1.45089e-05
0.00208488
0.00024875
-1.30106e-05
0.0020444
0.000232514
-4.92577e-05
0.00216149
0.000560141
-8.30003e-05
0.000775367
-7.00407e-05
0.00250931
0.000603713
2.17384e-05
0.00235454
0.000439382
-7.52843e-07
0.00223137
0.000400432
-2.94749e-05
0.0023143
0.000544045
-5.70537e-06
0.00248295
0.000665906
1.27242e-05
0.0024925
0.000609081
1.93257e-05
0.00234263
0.00043663
-2.56353e-06
0.00224246
0.00041671
-2.83166e-05
0.00233614
0.000549634
5.08813e-07
0.00249342
0.000632245
1.52671e-05
0.00249095
0.000589549
2.03904e-05
0.00233066
0.00047064
4.15644e-06
0.00223218
0.000435878
-1.16468e-05
0.0023308
0.000518204
8.29108e-06
0.00248532
0.000581537
8.20326e-06
0.00246989
0.000534866
6.13645e-06
0.00231389