/*--------------------------------*- C++ -*----------------------------------*\
  =========                 |
  \\      /  F ield         | OpenFOAM: The Open Source CFD Toolbox
   \\    /   O peration     | Website:  https://openfoam.org
    \\  /    A nd           | Version:  10
     \\/     M anipulation  |
\*---------------------------------------------------------------------------*/
FoamFile
{
    format      ascii;
    class       volScalarField;
    location    "13";
    object      p;
}
// * * * * * * * * * * * * * * * * * * * * * * * * * * * * * * * * * * * * * //

dimensions      [0 2 -2 0 0 0 0];

internalField   nonuniform List<scalar> 
25600
(
0.00100611
-0.00329368
-0.00200949
-0.00137818
-0.000862699
0.00261726
0.00183178
0.000736962
-0.000629198
0.00289961
0.00650027
-0.00547344
-0.010228
-0.00279668
0.00461549
0.00449203
0.00306103
0.00452733
0.00249585
0.00172262
0.0006251
-0.00127277
0.00287095
0.00360054
-0.00157454
-0.00361686
-0.00178793
0.00282061
0.00441042
-0.00225818
-0.00171561
0.00429336
-0.00115605
-0.00671074
0.00273751
0.00748937
0.00108961
-0.00486837
-0.0040968
0.0012475
0.00101366
-0.00329719
-0.00200398
-0.0013664
-0.000864522
0.00262652
0.00183145
0.000728301
-0.000656838
0.0029003
0.00657658
-0.00545401
-0.0103094
-0.00286141
0.00460043
0.00450921
0.00303156
0.00453214
0.00251935
0.00172114
0.000620732
-0.00128783
0.00285415
0.00360873
-0.00156765
-0.00363512
-0.00182189
0.00281084
0.00443155
-0.00229567
-0.00174401
0.00436062
-0.00114654
-0.0067656
0.00271754
0.00754957
0.00112805
-0.00486973
-0.00409128
0.00126102
0.00100577
-0.00331002
-0.00198947
-0.00136303
-0.000881782
0.00263114
0.00180831
0.000706923
-0.000697046
0.00291026
0.00668617
-0.00547808
-0.0103581
-0.00297639
0.00456612
0.00454149
0.00301516
0.00456118
0.00255038
0.00170877
0.000606872
-0.00130599
0.00285889
0.00362504
-0.00158273
-0.00367773
-0.00185653
0.0028226
0.00446944
-0.00241174
-0.00178795
0.00447604
-0.00110502
-0.0068997
0.00271908
0.00771278
0.00116514
-0.00490037
-0.0041239
0.00123449
0.000967991
-0.00333118
-0.00197328
-0.00138422
-0.000922857
0.0026373
0.00175634
0.000677882
-0.00075204
0.00291417
0.00681319
-0.00558953
-0.0103581
-0.00319889
0.00433368
0.00454164
0.00299978
0.00458013
0.00256
0.00170093
0.00058986
-0.00132163
0.00289225
0.00363687
-0.001608
-0.0037149
-0.00188064
0.00285619
0.00452966
-0.00266033
-0.00189461
0.00469298
-0.001032
-0.00714156
0.00271692
0.00797861
0.00117137
-0.00497778
-0.00419073
0.00111113
0.000890721
-0.00335557
-0.00194341
-0.00143778
-0.00100018
0.00265411
0.00168036
0.000651932
-0.00085056
0.00283737
0.00693282
-0.00579074
-0.010291
-0.00354346
0.00372346
0.00437317
0.00291413
0.00449352
0.002485
0.00168782
0.000640196
-0.00131245
0.00293223
0.00361671
-0.00162711
-0.00371517
-0.00196822
0.00279811
0.00458655
-0.00312202
-0.00196005
0.00509601
-0.000956149
-0.00750426
0.00262389
0.00833374
0.00112734
-0.0051671
-0.00422536
0.000864768
0.000799336
-0.00338299
-0.00189082
-0.00150625
-0.00109176
0.002685
0.0015989
0.000686133
-0.000969584
0.00254272
0.00708736
-0.00591167
-0.0102788
-0.00393651
0.00287111
0.00383116
0.00256218
0.00422064
0.00228738
0.0016611
0.000694569
-0.00121036
0.00288344
0.00336856
-0.00167597
-0.00361387
-0.00226287
0.00239656
0.0045225
-0.00333864
-0.00184605
0.00570494
-0.000814561
-0.00792854
0.00243403
0.0085752
0.00106473
-0.00545822
-0.00412
0.00062232
0.000780901
-0.00318519
-0.00178958
-0.00159452
-0.00126212
0.00267904
0.00159833
0.000876769
-0.00102961
0.00198537
0.00707892
-0.00550393
-0.0103934
-0.00411884
0.00223283
0.00295185
0.00173003
0.00364633
0.00189377
0.00150597
0.000961842
-0.00093442
0.00258673
0.00296278
-0.00190727
-0.00320658
-0.00223715
0.00178313
0.00427412
-0.00338784
-0.00165721
0.00621962
-0.000418759
-0.00809884
0.00229352
0.00876591
0.00109176
-0.00574119
-0.00402498
0.000708169
0.000918338
-0.00294528
-0.00164661
-0.00159739
-0.0014828
0.00257153
0.00130295
0.00115109
-0.000879143
0.00127205
0.00666058
-0.00474529
-0.0102696
-0.00377349
0.00202842
0.00240061
0.000368917
0.00287732
0.00132185
0.000798113
0.00106489
-0.000574432
0.00199014
0.00219535
-0.00204172
-0.00262087
-0.00159154
0.00141842
0.00386098
-0.0031755
-0.00154192
0.00653311
0.000132686
-0.00763999
0.00236082
0.0088871
0.0013128
-0.00609584
-0.00400568
0.00110962
0.00128467
-0.00246956
-0.00143658
-0.00133378
-0.00151683
0.0026559
0.00078886
0.000872981
-0.000802778
0.000541791
0.00608858
-0.00405172
-0.0100693
-0.00339902
0.00242969
0.00241581
-0.00104055
0.00244052
0.00186168
0.000328671
0.000853907
-0.000266849
0.00101324
0.00118098
-0.00205727
-0.00219635
-0.000853328
0.00125574
0.00313589
-0.00283984
-0.00178713
0.00650281
0.000745453
-0.00709469
0.00210994
0.00867484
0.00165484
-0.00628557
-0.00393611
0.00186766
0.00159991
-0.00346992
-0.0016908
-0.00101483
-0.00150343
0.00291676
0.00125562
0.000394998
-0.00119261
-0.00054336
0.00536618
-0.00333598
-0.00982225
-0.00370361
0.00268717
0.00263558
-0.00110055
0.000923397
0.00141087
0.000534637
0.000755633
0.000108187
0.000304969
0.000288661
-0.00219467
-0.00167512
-0.000510719
0.000962713
0.00192845
-0.00259439
-0.00231071
0.0061517
0.00117426
-0.00646823
0.00102717
0.007251
0.00151298
-0.00636957
-0.00405835
0.00232201
0.00174521
-0.00377552
-0.00212631
-0.000767151
-0.00159064
0.00250086
0.00242046
0.00101673
-0.00170836
-0.00146817
0.00481754
-0.00259424
-0.00944894
-0.00424491
0.00193143
0.00246358
6.87137e-05
-0.000126468
0.000669252
0.000537211
0.000658157
0.000349633
9.71521e-05
-0.00022588
-0.00233802
-0.00141214
-0.000479618
0.000764199
0.000921083
-0.00247118
-0.00235159
0.00542189
0.00133176
-0.00573327
-0.00056238
0.00546106
0.000730359
-0.00643478
-0.00438366
0.00245141
0.00159376
-0.00376855
-0.00256321
-0.000812936
-0.0015743
0.00173614
0.00294131
0.00252809
-0.00133776
-0.00206167
0.00429226
-0.00198633
-0.0085987
-0.00457206
0.000580579
0.00210074
0.000993175
-0.000183448
0.000194628
8.18463e-05
0.000177652
0.000344978
-0.000137334
-0.000705835
-0.00236646
-0.00149919
-0.000500052
0.000529837
0.000577253
-0.00160845
-0.00205349
0.00471288
0.00105469
-0.00501431
-0.00146599
0.00376142
0.000141518
-0.00620549
-0.00480299
0.00208119
0.00154248
-0.00341657
-0.00247831
-0.000943439
-0.0015861
0.00126138
0.00276192
0.00370572
-0.00021162
-0.00224787
0.00355238
-0.0015827
-0.00729926
-0.00428001
-0.00035446
0.00147472
0.000841801
-6.00196e-05
0.00015841
5.09599e-05
-0.000118927
0.00020941
-0.000335324
-0.00101364
-0.00221682
-0.00157141
-0.000438129
0.000391724
0.000519112
-0.00141231
-0.00180149
0.00385017
0.000718303
-0.00425952
-0.00161541
0.00234025
-0.000117458
-0.00554968
-0.0046972
0.00189553
0.00139385
-0.00286206
-0.00189558
-0.000809861
-0.00151495
0.000890628
0.00218239
0.00402752
0.000735699
-0.00218189
0.00320011
-0.000902849
-0.00627989
-0.00368269
-0.000646448
0.000935703
0.000522095
-1.26532e-05
0.000194869
0.000425126
-0.000112843
0.00013315
-0.000542165
-0.00129512
-0.00180133
-0.00142755
-0.000393751
5.46234e-05
0.000510021
-0.00101156
-0.00143106
0.00267574
0.000405921
-0.00322351
-0.00127487
0.00127877
-0.000317399
-0.00483248
-0.00442718
0.00161426
0.00113083
-0.00202732
-0.0011098
-0.000518433
-0.00144677
0.000765574
0.00185026
0.00364758
0.00111662
-0.00188863
0.00277852
-0.000613372
-0.00554933
-0.0031056
-0.000510156
0.000463153
0.000415471
-8.16179e-05
2.11359e-06
0.00081752
0.000161939
0.0001686
-0.000723595
-0.00152119
-0.00133443
-0.00113047
-0.000302965
0.000235297
0.000406037
-0.000491507
-0.000928301
0.00179975
0.000253595
-0.00227254
-0.000611174
0.000668679
-0.000562817
-0.00440645
-0.00420895
0.00147147
0.00107655
-0.00155009
-0.000470593
-0.000302697
-0.00142153
0.000688044
0.00176014
0.00332282
0.00117577
-0.00167872
0.00233806
-0.000330238
-0.00476809
-0.00253353
-0.000197873
0.000110188
0.000303612
-0.00018911
-0.000248997
0.00101715
0.000430293
0.000207581
-0.000756889
-0.00141211
-0.000969607
-0.000764386
-0.000226992
0.000172709
0.000165551
-9.02447e-05
-0.000425186
0.0015236
0.000276242
-0.00196649
-3.39952e-05
0.000654718
-0.00075245
-0.00416132
-0.00394111
0.00141667
0.000967673
-0.00115039
4.47136e-05
-0.000128187
-0.00129829
0.000575015
0.00173122
0.00299794
0.00113313
-0.00153561
0.00188181
-8.19315e-05
-0.0040414
-0.00193774
9.89639e-05
-0.000168054
0.000132677
-0.000236926
-0.000309655
0.00106218
0.000574944
0.000278541
-0.000698711
-0.00144591
-0.000655893
-0.000411703
-0.000171756
-9.71343e-05
-5.8545e-05
0.000217887
-3.51943e-05
0.00125406
0.000257324
-0.00172573
0.000292625
0.000477129
-0.000849533
-0.0036183
-0.00328319
0.00133297
0.000742485
-0.00109632
0.000308795
-0.000112741
-0.00112764
0.000462982
0.00164458
0.00262005
0.00104702
-0.00133213
0.0014483
4.3659e-05
-0.00330794
-0.00141957
0.000335879
-0.000344423
2.91154e-06
-0.000217016
-0.000234333
0.00105903
0.000565484
0.000347844
-0.000561012
-0.00142895
-0.00040162
-7.77622e-05
-0.000129103
-0.000219227
-0.000232342
0.000442543
0.000189952
0.0010858
0.000240854
-0.00135197
0.000361165
0.000220356
-0.000879679
-0.0030199
-0.00261649
0.00119851
0.000401745
-0.00105242
0.000349802
-8.81162e-05
-0.000983552
0.000330908
0.00154766
0.00223075
0.000925846
-0.001036
0.00107885
2.61049e-05
-0.00259066
-0.000970641
0.000490829
-0.000387004
-8.17592e-05
-0.000177552
-0.000192423
0.00106624
0.000472865
0.000352284
-0.000351187
-0.00134547
-0.000256984
0.00021807
-9.15259e-05
-0.000257182
-0.000340022
0.000503626
0.000303436
0.000845968
0.000190839
-0.0010081
0.000388909
-2.7267e-05
-0.000902831
-0.00248757
-0.00211068
0.00103575
0.000101135
-0.000937723
0.000360417
1.52492e-05
-0.000875846
0.000166303
0.00134737
0.00188328
0.000769323
-0.000757385
0.000875957
-2.03832e-05
-0.00194603
-0.00063775
0.000522938
-0.00036686
-0.000139217
-0.000105369
-0.000213076
0.00105203
0.000444913
0.00029551
-8.61234e-05
-0.00125438
-0.000259424
0.000490475
1.63045e-06
-0.000294601
-0.000415026
0.00051124
0.000335984
0.000603511
0.000157202
-0.000742125
0.000388643
-0.000176428
-0.000915644
-0.00203759
-0.00166347
0.000873071
-7.37281e-05
-0.000798767
0.00040838
0.000131545
-0.000786361
6.11415e-06
0.0010535
0.00156905
0.000630392
-0.000526444
0.000708525
-0.000146933
-0.00145975
-0.000353554
0.00051718
-0.000252714
-0.000194391
-2.9879e-05
-0.000276802
0.000955061
0.000467632
0.000189763
0.00014716
-0.00110765
-0.000341728
0.000697
0.000100563
-0.000117115
-0.000426172
0.000470416
0.000358015
0.000466807
7.48945e-05
-0.000550173
0.000357058
-0.000274064
-0.000916327
-0.00167064
-0.00137364
0.000777395
-0.000158364
-0.000735416
0.000425023
0.000245031
-0.000666679
-0.000131345
0.000846639
0.0012933
0.000505649
-0.000340908
0.000676806
-0.00021937
-0.0011074
-0.000112417
0.000446251
-0.000162387
-0.000203077
6.38873e-05
-0.000364526
0.000765823
0.00053315
7.30946e-05
0.000334273
-0.000860707
-0.000505876
0.000762182
0.000236695
-0.000239647
-0.000435488
0.0003817
0.000386585
0.000251394
-4.04347e-05
-0.00041767
0.000284237
-0.000288603
-0.00082927
-0.00135614
-0.00109679
0.00072791
-0.000179903
-0.00074637
0.000391618
0.000350582
-0.000545062
-0.000241489
0.000748402
0.00104911
0.000420952
-0.000201345
0.000623988
-0.000225157
-0.000896485
6.5222e-05
0.000379134
-7.75103e-05
-0.000176718
0.000122603
-0.000358149
0.000534523
0.000612964
1.6959e-06
0.000368517
-0.000572528
-0.000635926
0.000716248
0.000397591
-0.000311012
-0.000448047
0.000333072
0.000411948
7.48407e-05
-0.000157006
-0.000327333
0.000200917
-0.000254545
-0.000709811
-0.00109137
-0.000869522
0.000686067
-0.000169593
-0.000773214
0.000325003
0.000443553
-0.000427741
-0.000315854
0.000621294
0.000808578
0.000372859
-0.000118377
0.000542021
-0.000140976
-0.000772714
0.000216707
0.000334485
-2.90902e-05
-0.000112557
0.000139934
-0.000299049
0.000306915
0.000715208
-1.50394e-05
0.000306839
-0.000287911
-0.000698868
0.000540768
0.000550011
-0.00030779
-0.000479356
0.000267743
0.000429944
-5.49263e-05
-0.000228058
-0.000266829
5.47996e-05
-0.000201466
-0.000563393
-0.000884025
-0.000685524
0.000573157
-0.000117008
-0.000726482
0.000237394
0.000517146
-0.000311965
-0.000345006
0.000504651
0.00056163
0.000349451
-8.09728e-05
0.000426161
2.14479e-05
-0.000708598
0.000257429
0.000304461
-1.68709e-05
-7.26091e-06
0.000123546
-0.000223145
0.000125625
0.00063576
1.00341e-05
0.000210994
-3.27733e-05
-0.000691822
0.000314287
0.000641339
-0.000253291
-0.000513984
0.000197736
0.000434
-0.000147766
-0.000256877
-0.000205043
-0.000116909
-0.000132333
-0.000414892
-0.000749263
-0.000541862
0.000454195
-5.35531e-05
-0.000641082
0.000124017
0.000551587
-0.000241782
-0.000328816
0.000414642
0.00031718
0.00035722
-6.02522e-05
0.000279941
0.00021631
-0.000665346
0.000236877
0.000290004
-3.25652e-05
9.66217e-05
9.65598e-05
-0.000160377
-9.68966e-06
0.000556987
6.33571e-05
9.24949e-05
0.000171325
-0.000616192
0.000100333
0.00065644
-0.000170816
-0.000508991
0.000117078
0.000424549
-0.000210089
-0.000262662
-9.98957e-05
-0.000295941
-9.88527e-05
-0.000258322
-0.000654271
-0.000424622
0.000346601
1.65344e-06
-0.000527362
1.78098e-05
0.000536523
-0.000192596
-0.000257919
0.000339934
5.89916e-05
0.000383828
-4.7401e-05
8.81384e-05
0.00033943
-0.000592611
0.000209459
0.000278144
-7.1553e-05
0.000201473
7.22877e-05
-4.71163e-05
-9.15782e-05
0.000462912
0.000135388
-1.90177e-05
0.000296136
-0.000536845
-5.80717e-05
0.000605476
-9.6795e-05
-0.000453741
3.16153e-05
0.000404967
-0.000199316
-0.000273663
2.95273e-05
-0.000439106
-0.000107878
-0.000104193
-0.000587276
-0.000331426
0.00022398
4.04744e-07
-0.000409658
-3.17497e-05
0.000460576
-0.000169932
-0.000165628
0.00025475
-1.68285e-05
0.000421756
-4.36942e-05
-3.71308e-05
0.000431486
-0.000483829
0.000190906
0.000249777
-0.000103064
0.000294306
3.57605e-05
2.18e-05
-0.000121953
0.000330817
0.000198061
-8.69174e-05
0.000344232
-0.00043124
-0.000143012
0.000524953
-0.000121714
-0.000369115
-4.13484e-05
0.000352341
-0.00025215
-0.000307289
0.0001436
-0.000496505
-0.00016365
2.06377e-05
-0.00052872
-0.000241501
0.000144282
-4.67425e-05
-0.000326446
-2.87257e-05
0.000325151
-0.000174064
-2.48828e-05
0.000119308
-9.58143e-05
0.000465704
-6.91135e-05
-9.097e-05
0.000445563
-0.000365309
0.00021134
0.000167074
-0.000122673
0.000372364
-2.4683e-05
0.000108873
-8.86882e-05
0.000149929
0.00025616
-9.2209e-05
0.000318594
-0.000350538
-0.000169584
0.000447973
-0.000128753
-0.00027607
-7.0353e-05
0.000259488
-0.000179252
-0.000324897
0.00018115
-0.000420875
-0.000245794
6.76472e-05
-0.000440065
-0.000184613
9.05561e-05
-5.92235e-05
-0.000280904
-1.26864e-05
0.000200881
-0.000197031
0.000126643
-7.41174e-06
-0.000168888
0.000517079
-9.47318e-05
-0.000102088
0.000397959
-0.000239394
0.00023514
8.5161e-05
-0.000120383
0.000468228
-7.9678e-05
0.000120262
1.77597e-05
-6.16271e-05
0.000263688
-2.94309e-05
0.000243875
-0.000250916
-0.000189405
0.000412553
-0.000138944
-0.000208854
-2.04079e-05
8.19601e-05
-8.84741e-05
-0.000272097
7.75681e-05
-0.000222315
-0.000296608
-1.17012e-05
-0.000279034
-0.000177676
9.69671e-06
-3.24368e-06
-0.000208566
-0.000102119
0.000109667
-0.000187037
0.000191152
-5.70806e-05
-0.000220018
0.000471927
-4.13169e-05
-8.06935e-05
0.000279604
-5.89373e-05
0.000231599
4.43136e-05
-7.96551e-05
0.000448867
-6.27074e-05
7.32569e-05
0.000165064
-0.000224395
0.000211423
7.50053e-05
7.05153e-05
-0.000132067
-0.000236919
0.000395674
-9.91232e-05
-0.000230255
0.000140017
-0.000121537
-1.19926e-05
-0.000102726
-0.000165369
1.00033e-05
-0.000243284
-0.000216978
-0.000100387
-0.000152846
-0.000136218
6.82355e-05
-7.57715e-05
-0.000267656
2.24136e-06
-8.82855e-05
0.000116709
-4.93963e-05
-0.000171717
0.000202495
8.64723e-05
1.25131e-05
9.52862e-05
0.000135552
0.000160346
8.11454e-05
2.85097e-05
0.000247468
7.3704e-05
6.65071e-05
0.000145326
-0.000274783
0.000140669
0.000147344
-3.83188e-05
1.92192e-05
-0.000283949
0.000332888
9.64488e-06
-0.000322206
0.000277294
-0.000263282
9.75478e-06
0.0001065
-0.000411931
0.000123542
-0.00013202
-0.000415128
1.77756e-05
-0.000112375
-0.000307859
0.00280875
-0.00302731
-0.00350014
-0.00269528
-0.00107115
0.0042842
0.00779647
0.00555459
-0.00472218
-0.00507991
0.0010952
0.000682345
-0.0017754
-0.000615047
0.00109415
-0.00113109
-0.00218299
0.000212357
0.00138748
0.00436877
-0.000745136
-0.00307912
0.0051146
0.00404036
-0.00214142
-0.000156138
-0.00338983
-0.000983905
0.0022135
-0.00519069
-0.00825173
0.00672007
0.0121587
-0.00251482
-0.00310368
0.00117895
0.0017466
0.000841021
-0.00358043
0.000500853
0.00284103
-0.00301841
-0.00350986
-0.00274214
-0.00111028
0.00426947
0.00780848
0.00558069
-0.00472637
-0.0051049
0.00111323
0.000714423
-0.00176711
-0.000603003
0.00108801
-0.00114799
-0.00221505
0.000208898
0.00140378
0.00437489
-0.000764148
-0.00315844
0.00511116
0.00410254
-0.00211553
-0.000120188
-0.00337771
-0.000999808
0.00223776
-0.00518491
-0.00830707
0.00666389
0.012217
-0.0024872
-0.00311568
0.00117809
0.00173133
0.000856012
-0.00357695
0.000502059
0.002864
-0.00301733
-0.00352764
-0.00275777
-0.0011715
0.00424227
0.00784238
0.00565388
-0.00476745
-0.00514788
0.0011739
0.000758696
-0.0018221
-0.000642963
0.00104527
-0.00115603
-0.00228153
0.000185445
0.00144482
0.00438985
-0.000778814
-0.00328528
0.00511127
0.00421899
-0.00212072
-0.000144086
-0.00341168
-0.00103941
0.00226855
-0.00518556
-0.00844987
0.00661256
0.0122828
-0.00250597
-0.00316759
0.00113501
0.00173587
0.000884425
-0.00356643
0.000515061
0.00284368
-0.00301484
-0.00355156
-0.00281261
-0.00127465
0.00418243
0.00788447
0.00576958
-0.00486264
-0.00521661
0.00134675
0.000880122
-0.0019809
-0.000777635
0.000882079
-0.00113294
-0.00238897
7.37871e-05
0.0014754
0.00445694
-0.000845824
-0.00355293
0.00500786
0.00428592
-0.00208907
-0.000229701
-0.00350527
-0.00107684
0.00227963
-0.00519693
-0.00842312
0.00655907
0.0123644
-0.00262797
-0.00328251
0.00102934
0.00177348
0.000997103
-0.00362764
0.00044363
0.00268943
-0.00301141
-0.00351806
-0.00288733
-0.00151991
0.00400317
0.00792259
0.00592409
-0.00501559
-0.00534808
0.00156772
0.00111045
-0.00222125
-0.000915764
0.000603175
-0.00106555
-0.0024772
-0.00028157
0.00141814
0.00455272
-0.000953416
-0.00400797
0.00462077
0.00439519
-0.00177295
-0.000106673
-0.00358247
-0.00111335
0.00233577
-0.00518261
-0.00850443
0.00632857
0.0121475
-0.0029366
-0.00348207
0.000873205
0.00178791
0.00132386
-0.00377441
7.84687e-05
0.00231333
-0.00299749
-0.00345235
-0.00283472
-0.00189533
0.00364501
0.00777553
0.00611592
-0.00513008
-0.00551382
0.00165589
0.00125513
-0.00245118
-0.000788032
0.000605855
-0.00108607
-0.00235802
-0.000921462
0.00117358
0.00454929
-0.000950638
-0.0047813
0.00396777
0.00452231
-0.00114939
0.000486579
-0.00341414
-0.00111384
0.00233729
-0.00487411
-0.00873414
0.0055443
0.0115159
-0.00346546
-0.00377029
0.000824716
0.00175606
0.0017243
-0.00383907
-0.000596335
0.00175089
-0.00292923
-0.00344367
-0.00269842
-0.00213177
0.00316478
0.00748587
0.00633314
-0.00503477
-0.00566059
0.00165424
0.000950171
-0.00262172
-0.000475765
0.000894869
-0.000957969
-0.00195579
-0.00132582
0.000659183
0.00438578
-0.000692447
-0.00564245
0.00319391
0.0037547
-0.000635844
0.00120747
-0.00323731
-0.00112604
0.00238078
-0.00514229
-0.00894129
0.00427316
0.0104232
-0.00380441
-0.00398101
0.000761283
0.00151553
0.00179628
-0.00347524
-0.00127133
0.000811248
-0.00282182
-0.00342395
-0.00271681
-0.00203616
0.00281549
0.00707357
0.00659607
-0.00458581
-0.00581864
0.00136572
0.000165832
-0.00267282
-0.000199318
0.000840476
-0.000680578
-0.00148629
-0.00130033
-0.00020709
0.00420888
-0.000383996
-0.00557797
0.00248155
0.00237342
-0.000301945
0.0020745
-0.00326117
-0.00117302
0.00258663
-0.0052985
-0.00890667
0.00331302
0.00923531
-0.00385566
-0.00309315
0.00119827
0.00109523
0.00138613
-0.0029412
-0.00136314
0.000502401
-0.0027554
-0.00333824
-0.00272809
-0.00204601
0.00266607
0.00655886
0.00663254
-0.00349231
-0.00614234
0.000555328
-0.000735879
-0.00260292
0.000112019
0.000332375
-0.000736165
-0.00128088
-0.00156889
-0.000446932
0.00436605
-0.000200031
-0.00468125
0.00191706
0.00151142
-0.000274537
0.00307852
-0.0032273
-0.00134393
0.00293866
-0.00483417
-0.00889478
0.0028948
0.00858257
-0.00398037
-0.00356557
0.00182382
0.00121619
0.000780934
-0.00254964
-0.000844881
0.000694472
-0.00274679
-0.00338735
-0.0026594
-0.00228728
0.00258795
0.00577622
0.00613533
-0.00250423
-0.00659847
6.64375e-05
-0.00131043
-0.00236952
0.000218288
-0.000419172
-0.00110187
-0.000984767
-0.00237344
-0.000777871
0.00466578
0.000181757
-0.00356019
0.00142301
0.000972545
-0.000537472
0.00370563
-0.00303215
-0.00171332
0.00320778
-0.00423667
-0.00870934
0.00233259
0.0079366
-0.00427391
-0.00581597
0.000823053
0.0017529
0.000127461
-0.00243494
0.000104779
0.00111547
-0.0027751
-0.00342049
-0.0026717
-0.00266592
0.00219076
0.00506664
0.00604132
-0.00134217
-0.00698526
0.000390186
-0.00134386
-0.00217193
0.000362148
-0.000680426
-0.00127032
-0.000191222
-0.00251593
-0.00129341
0.00427655
0.000605465
-0.00295175
0.00124112
0.000803864
-0.000825895
0.00359491
-0.00262833
-0.0023178
0.00282552
-0.00372728
-0.00807755
0.00153893
0.00680472
-0.00368506
-0.00779651
-0.000160559
0.00188866
-0.000672021
-0.00227582
0.000737315
0.00134364
-0.00285987
-0.00307635
-0.00241463
-0.00299094
0.0016924
0.00436229
0.00625172
-0.000190933
-0.00688476
0.000909731
-0.00126774
-0.00196382
0.000548755
-0.000189484
-0.000891357
0.000200748
-0.00179531
-0.00145023
0.00356015
0.000838998
-0.00261018
0.000437941
0.000446796
-0.000911851
0.00330471
-0.00232771
-0.00303989
0.00172541
-0.00308749
-0.00653383
0.000889207
0.00505597
-0.00224305
-0.00745024
-0.000912664
0.00185295
-0.00117534
-0.00169366
0.00105076
0.00141545
-0.00292529
-0.00266737
-0.00207333
-0.00301303
0.00116311
0.00378589
0.0061908
0.000451045
-0.00650785
0.000674332
-0.000977465
-0.00168443
0.000692556
0.000259131
-0.000427068
0.000441256
-0.00111166
-0.00132691
0.00286644
0.00108533
-0.00190157
-0.00036388
1.0302e-06
-0.000755457
0.00314881
-0.0020895
-0.00306536
0.000961583
-0.00242044
-0.0045821
0.00125374
0.0034197
-0.00125745
-0.00505399
-0.000926015
0.00148601
-0.00168956
-0.00111613
0.00117601
0.00143784
-0.00270728
-0.00240634
-0.00169796
-0.00281828
0.000623643
0.00319896
0.00579826
0.000841816
-0.0060721
-0.000171248
-0.000824516
-0.00155628
0.000809758
0.000282461
-0.000205219
0.000503445
-0.00144809
-0.00119844
0.00224869
0.00129245
-0.00104206
-0.000706847
-0.000266726
-0.000493918
0.00293375
-0.00179158
-0.00276271
0.000748178
-0.00184167
-0.00332157
0.00189132
0.00254392
-0.00103377
-0.00275666
-0.000523766
0.000894531
-0.00192588
-0.000460281
0.00126325
0.00141246
-0.00226931
-0.00215334
-0.00137107
-0.00225086
0.000221883
0.00252829
0.00522263
0.00110658
-0.00548736
-0.00108866
-0.00110545
-0.00163755
0.000969746
0.000402306
-0.000118804
0.000486368
-0.00107779
-0.00108132
0.00173728
0.00131312
-0.000549403
-0.000888719
-0.000732208
-0.000546127
0.00261838
-0.00138597
-0.00289919
0.000572153
-0.0013315
-0.00242753
0.00184906
0.00178851
-0.000947896
-0.00131341
-0.000335747
0.000174133
-0.00195756
0.00029089
0.00143756
0.00134301
-0.00200393
-0.00196875
-0.00116757
-0.00186446
-2.22587e-05
0.00193157
0.00466115
0.00134173
-0.00462508
-0.00146703
-0.00130674
-0.0017864
0.00116157
0.0007393
-0.000124535
0.000329679
-0.000801656
-0.000863738
0.00145422
0.00127814
-0.000272449
-0.00106925
-0.00119927
-0.000455395
0.00232263
-0.00101477
-0.00283927
0.000420611
-0.000874562
-0.00185749
0.00149245
0.000851036
-0.000949697
-0.000566682
-0.000212834
-0.000261202
-0.00187131
0.00040431
0.00171904
0.00120567
-0.0020058
-0.00192076
-0.00104565
-0.0015647
-0.00017763
0.0015538
0.00393387
0.00143509
-0.00359833
-0.00128881
-0.00142377
-0.00181552
0.00121413
0.000921184
-0.000169234
0.00019132
-0.000699002
-0.000691772
0.0011737
0.00118864
-2.8857e-05
-0.0010788
-0.00138556
-0.000259992
0.00198559
-0.000841732
-0.00245897
0.000283371
-0.000533791
-0.00178527
0.00119181
0.000460887
-0.000873807
-9.19256e-05
-3.04819e-05
-0.000478446
-0.00179875
-0.000485864
0.00160636
0.00100645
-0.00168039
-0.00166344
-0.000908111
-0.00137171
-0.000181428
0.0014227
0.0033807
0.00133551
-0.00260254
-0.000984275
-0.00147256
-0.00180976
0.00109204
0.00106546
-0.000116036
0.000143098
-0.000620818
-0.000579478
0.00100398
0.00106638
0.000221077
-0.000886886
-0.00146297
-0.000177207
0.00183529
-0.000648858
-0.00201998
0.000277117
-0.000252926
-0.00130486
0.00100895
0.000254657
-0.000918649
0.00014103
0.000141535
-0.000514205
-0.00165564
-0.000779798
0.0018013
0.000628012
-0.00119811
-0.000833457
-0.000629125
-0.00121951
-0.000154233
0.00136394
0.00287884
0.00114029
-0.00178174
-0.000729152
-0.00150164
-0.0018135
0.000934327
0.00111209
-7.726e-05
0.00013946
-0.000493013
-0.000451059
0.000988544
0.000955244
0.000379709
-0.000594966
-0.00148298
-0.000175044
0.00182783
-0.000416232
-0.00165724
0.00037982
-8.33868e-05
-0.000747899
0.000874011
0.000133133
-0.000944049
0.000220308
0.000129198
-0.000535963
-0.00146389
-0.00064839
0.00170688
0.000265735
-0.000752107
-6.72731e-05
-0.000335249
-0.00106221
-0.00013109
0.00123614
0.00238544
0.000914021
-0.00119509
-0.000560676
-0.00151382
-0.00162197
0.00076919
0.00105843
-7.77603e-06
0.000142699
-0.000348153
-0.000380013
0.00101472
0.000802246
0.000317794
-0.000225169
-0.00142198
-0.000315649
0.00171144
-0.000170518
-0.00149971
0.000419505
2.36051e-05
-0.000453209
0.0007319
8.54642e-05
-0.000878799
0.000217275
4.79281e-05
-0.000523867
-0.00138578
-0.000314943
0.00152641
4.77205e-05
-0.00052245
0.000358624
-0.000128257
-0.000887031
-0.000144729
0.000867257
0.00191786
0.000714785
-0.000778107
-0.000342301
-0.00144883
-0.00149029
0.000607448
0.000920388
3.69658e-05
0.000123426
-0.000211491
-0.000399645
0.000916578
0.000706984
0.000204395
3.93507e-05
-0.0012624
-0.000527511
0.00154495
6.38318e-05
-0.00151969
0.000321753
0.000114985
-0.000245155
0.000600262
-7.89801e-05
-0.000795498
0.000190889
-8.06867e-05
-0.000525052
-0.001288
-0.000190277
0.00143185
-0.000106963
-0.000492466
0.000537471
5.7247e-05
-0.000713408
-0.000177145
0.000723799
0.00151575
0.000597593
-0.000485564
-0.00010367
-0.00128034
-0.00134111
0.00048251
0.000753142
4.26224e-05
0.000134922
-6.36285e-05
-0.00039808
0.000733813
0.000666157
8.86591e-05
0.000222225
-0.000997238
-0.000748285
0.00132926
0.000291293
-0.00132897
0.000140981
0.000197414
-0.000109624
0.000434596
-0.000155793
-0.000691961
0.00011097
-0.000167654
-0.00051609
-0.00116133
-0.000168897
0.00136944
-0.000170555
-0.000523415
0.000581211
0.000231407
-0.000582771
-0.000202878
0.000619242
0.00118194
0.000528815
-0.000294018
9.70948e-05
-0.00100715
-0.00120115
0.000378505
0.000608442
2.74165e-05
0.000136583
6.1028e-05
-0.000402425
0.000517315
0.000643923
-7.21219e-06
0.000298885
-0.000659903
-0.000919815
0.00105149
0.00050903
-0.00114399
-8.86721e-05
0.000254424
-1.70469e-05
0.000268729
-0.000180266
-0.000601469
1.14834e-05
-0.000183954
-0.000433025
-0.00105438
-0.000221905
0.00127058
-0.000132137
-0.000580857
0.000519347
0.000380915
-0.000470664
-0.000221329
0.000537843
0.000829579
0.000488167
-0.000152865
0.000204528
-0.000675836
-0.00110945
0.00029795
0.000500129
-9.7889e-06
0.000140929
0.00015703
-0.000363699
0.000287454
0.000616164
-4.6571e-05
0.00027122
-0.000305468
-0.000980457
0.000726257
0.000689725
-0.000940323
-0.000282569
0.000276491
6.91394e-05
9.75478e-05
-0.0001855
-0.000483912
-0.000109263
-0.000164554
-0.000379924
-0.000951948
-0.000303157
0.00113177
-3.94864e-05
-0.00060697
0.000400686
0.000498748
-0.000379255
-0.000235224
0.000490819
0.000523625
0.000464944
-0.000113647
0.000197746
-0.000293667
-0.000996514
0.000216499
0.000431317
-4.82909e-05
0.000149334
0.000209779
-0.000284464
8.74894e-05
0.000600141
-2.92723e-05
0.000178825
-5.60768e-06
-0.000928667
0.000396573
0.000785528
-0.000713608
-0.000414988
0.000262479
0.000149189
-6.59324e-05
-0.000187009
-0.000377765
-0.000251994
-0.000149398
-0.000287014
-0.00083126
-0.000368522
0.000925468
5.3716e-05
-0.000586987
0.000261084
0.000567675
-0.000309612
-0.000233077
0.000455803
0.000262088
0.000467218
-4.00572e-05
0.000110539
3.98761e-05
-0.000850902
0.000133652
0.000384196
-8.25241e-05
0.000180068
0.00023396
-0.00015527
-6.7548e-05
0.000582585
3.56443e-05
5.64708e-05
0.000203313
-0.000763956
0.000115468
0.000778811
-0.000478525
-0.000476015
0.000194561
0.000218468
-0.00019754
-0.000208035
-0.000198815
-0.00038501
-0.000157787
-0.000168888
-0.000700842
-0.000393806
0.00068391
8.72373e-05
-0.000512655
9.96114e-05
0.000571459
-0.000268898
-0.000200786
0.00041368
7.31897e-05
0.000471412
1.54479e-05
-5.1979e-05
0.000291144
-0.000670887
7.16737e-05
0.000327852
-0.000100696
0.000233972
0.000200936
-3.88254e-05
-0.000163905
0.00049016
0.000130472
-6.94803e-05
0.000318283
-0.000548298
-8.77087e-05
0.000686355
-0.000271198
-0.000463945
9.90427e-05
0.000258456
-0.000301234
-0.000255283
-3.02786e-05
-0.000466845
-0.000198796
-6.32737e-05
-0.00057446
-0.000370256
0.000323255
6.84014e-05
-0.000408594
8.6339e-06
0.000501795
-0.000249008
-0.000130605
0.000339865
-9.02735e-05
0.000467794
6.70084e-05
-0.000144037
0.000414884
-0.000473455
6.90171e-05
0.00022654
-0.00010949
0.000289766
0.000109786
9.23145e-05
-0.000177627
0.000324567
0.000238853
-0.000152027
0.000332602
-0.000367288
-0.000199202
0.000553799
-0.000126001
-0.00039444
1.18498e-06
0.000248091
-0.000265537
-0.000307531
9.51193e-05
-0.000467287
-0.000247156
1.40228e-05
-0.000464554
-0.000299525
0.00014316
-6.25878e-06
-0.000317265
-2.2756e-05
0.000371428
-0.000246573
-1.73702e-05
0.000221046
-0.000193182
0.000465942
6.37885e-05
-0.000161411
0.000410628
-0.000307509
0.000139484
0.000120395
-0.000119853
0.000384325
-1.82153e-05
0.00014597
-9.00026e-05
0.000103796
0.00030997
-0.000133212
0.000269404
-0.000238731
-0.000221797
0.000439859
-8.26661e-05
-0.000308143
-4.2618e-05
0.00016622
-0.000185813
-0.000333094
0.000123856
-0.000366703
-0.000318393
2.61029e-05
-0.000362659
-0.000231068
4.08751e-05
-4.80492e-05
-0.000269691
-2.05327e-05
0.000246148
-0.00025216
0.000100044
0.00010415
-0.000255385
0.00047621
3.66688e-05
-0.000139727
0.000348857