/*--------------------------------*- C++ -*----------------------------------*\
  =========                 |
  \\      /  F ield         | OpenFOAM: The Open Source CFD Toolbox
   \\    /   O peration     | Website:  https://openfoam.org
    \\  /    A nd           | Version:  10
     \\/     M anipulation  |
\*---------------------------------------------------------------------------*/
FoamFile
{
    format      ascii;
    class       surfaceScalarField;
    location    "13";
    object      phi_0;
}
// * * * * * * * * * * * * * * * * * * * * * * * * * * * * * * * * * * * * * //

dimensions      [0 3 -1 0 0 0 0];

internalField   nonuniform List<scalar> 
74080
(
1.09621e-05
4.12665e-06
-4.65319e-06
1.08206e-05
1.15647e-06
-2.11064e-06
1.20647e-05
-3.21594e-07
-2.35025e-06
1.15674e-05
2.16707e-06
-3.45716e-06
1.15533e-05
1.55312e-06
-4.63317e-06
1.37159e-05
9.53348e-07
-4.48817e-06
1.49171e-05
3.5872e-06
-4.07649e-06
1.51891e-05
2.6873e-06
1.9003e-06
1.42643e-05
-2.0475e-06
9.43238e-06
1.45352e-05
-5.00952e-06
5.66238e-06
1.65926e-05
3.43786e-06
-3.70284e-06
1.89641e-05
1.10101e-05
-6.66375e-06
2.23719e-05
-3.09083e-07
3.02531e-07
2.42242e-05
-7.40548e-06
3.29598e-06
2.33495e-05
-6.6555e-06
3.51649e-06
1.98028e-05
5.42787e-07
1.9323e-06
1.56516e-05
-4.23883e-06
5.90357e-06
1.29692e-05
-5.6749e-06
7.92106e-06
1.1954e-05
1.17099e-06
4.20505e-07
1.4282e-05
4.04068e-08
-3.58415e-06
1.50849e-05
-1.64833e-06
1.15438e-06
1.38384e-05
-3.19718e-06
2.72125e-06
1.51133e-05
-8.27132e-06
3.0776e-06
1.64308e-05
-4.61946e-06
3.10873e-06
1.50976e-05
2.11539e-06
-1.03408e-06
1.30964e-05
2.9768e-06
1.54142e-07
1.14678e-05
-1.23655e-06
7.52646e-06
1.17734e-05
-5.93951e-06
8.95313e-06
1.20264e-05
-1.01318e-06
8.33867e-06
9.93203e-06
2.55899e-06
6.10156e-06
1.0328e-05
-1.32215e-06
-4.94022e-06
1.23183e-05
3.71619e-07
-1.10408e-05
1.04424e-05
5.33949e-06
-1.45498e-06
9.42969e-06
8.39983e-07
6.8397e-06
1.21619e-05
-6.72526e-06
4.48844e-06
1.29065e-05
-1.86014e-06
-1.45051e-06
1.15264e-05
4.40119e-06
-3.4312e-06
1.05089e-05
6.03019e-06
-2.47584e-06
1.02151e-05
5.93306e-06
-6.18732e-06
5.17087e-06
-9.12995e-06
3.52246e-05
1.40944e-05
-1.08532e-05
3.72352e-05
3.41938e-06
-7.00039e-06
4.09756e-05
1.4618e-06
-8.59636e-06
4.0323e-05
7.74302e-06
-1.13171e-05
3.98024e-05
4.29463e-06
-1.3445e-05
4.42322e-05
2.65704e-06
-1.17223e-05
4.8826e-05
8.29523e-06
-5.94954e-06
5.16345e-05
4.94324e-06
8.77826e-06
4.97091e-05
-6.95313e-06
2.09441e-05
4.67419e-05
-1.07019e-05
1.19018e-05
4.86548e-05
1.81924e-05
-8.12494e-06
6.04326e-05
2.92586e-05
-1.10679e-05
7.85662e-05
-1.3032e-05
4.26294e-06
8.5311e-05
-2.97687e-05
1.32744e-05
7.98901e-05
-1.88018e-05
1.05743e-05
7.04917e-05
3.31507e-06
2.87146e-06
5.75522e-05
-9.7815e-06
1.19617e-05
4.44372e-05
-1.0817e-05
1.79739e-05
3.91795e-05
5.8874e-06
3.30232e-06
4.60985e-05
1.32017e-06
-5.371e-06
5.07367e-05
-4.85325e-06
1.58915e-06
4.87474e-05
-1.1827e-05
3.69619e-06
4.96997e-05
-2.40992e-05
4.7449e-06
5.21027e-05
-1.14794e-05
2.42029e-06
5.18197e-05
3.76627e-06
-4.26143e-06
4.87387e-05
3.60335e-06
4.53879e-06
4.34928e-05
-6.21037e-06
1.98523e-05
4.06387e-05
-1.61213e-05
2.0343e-05
3.87119e-05
-2.76568e-06
2.06577e-05
3.42416e-05
1.5275e-06
1.4737e-05
3.48866e-05
-5.73161e-06
-1.02593e-05
3.87772e-05
6.42909e-06
-2.23415e-05
3.6465e-05
1.29186e-05
2.09951e-06
3.5733e-05
-4.06052e-06
1.7378e-05
4.00637e-05
-1.65728e-05
4.93717e-06
3.9815e-05
1.22877e-06
-8.20772e-06
3.73485e-05
1.58587e-05
-8.39348e-06
3.73512e-05
1.66575e-05
-5.12321e-06
3.66445e-05
2.10047e-05
-1.80658e-05
2.23149e-05
-2.42324e-05
6.45631e-05
2.92695e-05
-1.77306e-05
6.87091e-05
4.27662e-06
-1.08172e-05
7.6437e-05
3.59891e-06
-1.47081e-05
7.82978e-05
1.64363e-05
-1.91685e-05
7.54559e-05
9.03161e-06
-2.1537e-05
7.89626e-05
4.44546e-06
-2.0856e-05
8.81933e-05
1.04647e-05
-1.20387e-05
9.71047e-05
1.26939e-06
1.35473e-05
9.53324e-05
-1.41118e-05
2.98522e-05
8.55212e-05
-1.67511e-05
1.91145e-05
8.38978e-05
3.8499e-05
-6.13538e-06
0.000103397
5.3131e-05
-9.03254e-06
0.000141748
-3.72805e-05
8.93825e-06
0.000160146
-7.08567e-05
2.56089e-05
0.000151528
-3.89652e-05
2.58713e-05
0.000140993
4.3481e-06
5.75338e-06
0.000120757
-1.03004e-05
1.11733e-05
9.17746e-05
-8.49274e-06
2.46107e-05
7.46418e-05
1.51671e-05
1.04884e-05
8.10261e-05
6.59875e-06
-2.08463e-06
9.38889e-05
-9.59329e-06
5.30935e-06
9.47728e-05
-2.37225e-05
4.73193e-06
9.04615e-05
-3.95655e-05
3.58771e-06
9.14616e-05
-1.73327e-05
-4.30949e-06
9.72173e-05
-1.52736e-06
-1.46063e-05
9.945e-05
-6.67418e-06
9.44161e-07
9.27472e-05
-1.99104e-05
2.73252e-05
8.31007e-05
-2.73585e-05
2.72266e-05
7.51139e-05
-7.2813e-07
2.88343e-05
6.5567e-05
-3.45488e-06
2.70721e-05
6.37313e-05
-2.19295e-05
-2.26323e-06
7.06029e-05
1.20125e-05
-2.67543e-05
7.14653e-05
2.342e-05
3.09688e-06
6.9992e-05
-1.5028e-05
3.10487e-05
7.3414e-05
-3.1782e-05
1.1058e-05
7.2467e-05
8.60521e-06
-1.56711e-05
6.88372e-05
3.46243e-05
-1.56405e-05
7.15914e-05
2.72229e-05
-4.76474e-06
7.15247e-05
3.95974e-05
-2.49348e-05
5.17621e-05
-3.84486e-05
0.000100761
5.1519e-05
-2.82882e-05
0.000103974
7.58291e-07
-1.06541e-05
0.000115015
-6.84202e-07
-1.53619e-05
0.000124396
2.20837e-05
-2.30944e-05
0.000121493
1.3754e-05
-2.56486e-05
0.000119046
7.50663e-06
-2.90978e-05
0.000128706
1.08381e-05
-2.84808e-05
0.000146476
-1.35465e-05
9.76821e-06
0.000149943
-2.90322e-05
3.68829e-05
0.000133058
-2.52002e-05
2.38274e-05
0.000127169
5.38022e-05
-9.19384e-07
0.000143454
8.51889e-05
1.95818e-06
0.000196155
-5.96554e-05
1.07564e-05
0.000237171
-0.000133815
2.52345e-05
0.000230408
-7.46652e-05
4.34948e-05
0.000224558
-8.98716e-06
2.12438e-05
0.00020553
-8.50258e-06
8.42631e-06
0.000163245
4.01296e-06
2.76464e-05
0.000129079
2.92635e-05
1.73603e-05
0.000122307
2.14768e-05
1.10402e-06
0.000139447
-1.4047e-05
1.57304e-05
0.000149882
-4.27093e-05
1.53664e-05
0.000140156
-4.60408e-05
5.39866e-06
0.000133852
-1.41322e-05
-9.68013e-06
0.000143264
-1.47171e-05
-3.20906e-05
0.000156871
-3.56138e-05
-2.06405e-05
0.000159451
-5.56234e-05
2.32949e-05
0.000146907
-4.79744e-05
2.90163e-05
0.000131196
9.43319e-06
2.99173e-05
0.0001107
-1.77541e-07
3.82254e-05
9.84601e-05
-5.53997e-05
1.87087e-05
0.000107226
4.31086e-06
-2.14017e-05
0.000116892
3.7103e-05
2.03592e-07
0.000114352
-2.79568e-05
4.66101e-05
0.000112799
-6.09464e-05
3.40282e-05
0.000111572
1.18119e-05
-1.63693e-05
0.00010514
6.20127e-05
-2.55173e-05
0.000111064
3.62735e-05
-6.37171e-07
0.000115796
5.01534e-05
-2.09243e-05
9.01833e-05
-5.14892e-05
0.000150708
8.07509e-05
-4.55668e-05
0.000148423
-2.29855e-06
-1.2642e-05
0.0001539
-1.19636e-05
-6.78732e-06
0.0001701
1.38977e-05
-1.46466e-05
0.00017643
3.21492e-06
-1.83983e-05
0.000171285
3.78402e-06
-2.51799e-05
0.000170766
1.52411e-05
-4.5799e-05
0.000190321
-3.10592e-05
-1.09921e-05
0.000207462
-5.87787e-05
3.58939e-05
0.000188004
-4.05446e-05
2.30845e-05
0.0001801
5.15148e-05
1.45917e-07
0.000182786
0.000120592
1.27882e-05
0.000226417
-5.58729e-05
6.11265e-06
0.000294839
-0.000206502
-3.2475e-06
0.000302736
-0.000129625
3.22322e-05
0.000304117
-4.86277e-05
4.13293e-05
0.000295417
-2.12433e-05
1.32802e-05
0.000253298
1.93736e-05
3.03089e-05
0.000211866
3.73444e-05
2.6874e-05
0.00018613
4.75221e-05
-3.52983e-06
0.000193987
-3.4481e-06
1.20725e-05
0.000209017
-7.31553e-05
3.29133e-05
0.000198177
-4.52503e-05
1.6423e-05
0.000187314
1.58843e-05
-1.39692e-05
0.000193925
-2.03391e-05
-4.18741e-05
0.000208108
-7.23859e-05
-4.54734e-05
0.000223854
-0.000112602
1.68594e-06
0.000224298
-9.60912e-05
2.0289e-05
0.000215144
1.05564e-05
2.25181e-05
0.000188194
2.22379e-05
4.16579e-05
0.000151854
-7.99566e-05
3.58762e-05
0.00014932
-1.68423e-05
-1.05603e-05
0.000172291
5.10796e-05
-1.00788e-05
0.000173952
-3.42497e-05
4.97406e-05
0.000161409
-0.00010051
6.61487e-05
0.000156191
1.24859e-06
-1.73718e-06
0.000144934
9.35191e-05
-3.30409e-05
0.000150641
5.12388e-05
1.70783e-06
0.000165462
3.95503e-05
-5.5747e-07
0.000120571
-5.56976e-05
0.000219352
0.00010415
-6.36678e-05
0.000213251
3.58996e-06
-2.87175e-05
0.000205435
-1.56065e-05
-2.79896e-06
0.000218124
-6.1498e-06
6.8785e-06
0.000232732
-3.29907e-05
2.62031e-06
0.000237137
-2.74261e-05
-4.62435e-06
0.000231682
7.12459e-06
-4.13668e-05
0.000235509
-3.72576e-05
-3.66344e-05
0.000267941
-9.46211e-05
1.56095e-05
0.000250507
-6.4979e-05
2.24968e-05
0.000231901
3.25524e-05
-3.60016e-06
0.000232389
0.000132854
3.29823e-06
0.000251744
-2.28552e-05
-7.37041e-06
0.000325886
-0.000262592
-2.88173e-05
0.000355416
-0.000193959
-3.87537e-06
0.000367623
-0.000111454
3.7475e-05
0.000371297
-6.71679e-05
1.86664e-05
0.000336484
2.83597e-05
2.82275e-05
0.000308503
2.21373e-05
4.40811e-05
0.000276118
6.01761e-05
2.16007e-06
0.000274096
2.87324e-05
-1.06619e-05
0.000284626
-9.79153e-05
2.45158e-05
0.000262861
-5.0307e-05
3.11353e-05
0.000251158
5.52964e-05
-4.4218e-07
0.000264792
-1.74273e-06
-3.73628e-05
0.000272039
-8.50629e-05
-4.37906e-05
0.000273967
-0.000149726
-4.69934e-06
0.000280453
-0.000155443
1.35748e-06
0.000303673
-2.70731e-05
3.5246e-06
0.00030359
2.66612e-05
4.28688e-05
0.000245119
-7.34715e-05
4.91304e-05
0.000207394
-2.51646e-05
-3.08074e-06
0.000233471
6.00353e-05
-2.71849e-05
0.000247397
-3.27604e-05
2.8929e-05
0.000222917
-0.000131412
8.05576e-05
0.000204519
-2.06849e-05
2.73492e-05
0.000187236
0.000117282
-3.08766e-05
0.000186174
7.41591e-05
1.29948e-06
0.000209484
1.36209e-05
3.22073e-05
0.00011404
-3.99448e-05
0.000294761
9.72312e-05
-7.05154e-05
0.000295102
9.56647e-06
-4.99142e-05
0.000280672
-8.98347e-06
-1.64318e-05
0.000290441
-2.65871e-05
2.64376e-05
0.000304101
-7.83903e-05
3.47076e-05
0.000311513
-7.692e-05
1.90372e-05
0.000322316
-4.47148e-05
-1.57543e-05
0.000306613
-4.52597e-05
-3.68992e-05
0.000343461
-0.000123737
-1.54485e-05
0.000327908
-8.9312e-05
2.72301e-05
0.000274976
2.54832e-05
-2.54524e-07
0.000290148
0.000101312
-3.63897e-05
0.000312557
-1.10699e-05
-2.56421e-05
0.000367453
-0.000286861
-2.98362e-05
0.000390693
-0.000240108
-1.75276e-05
0.000408101
-0.000174685
2.81007e-05
0.000431177
-0.000152249
2.15887e-05
0.00039754
2.82101e-05
1.50199e-05
0.00038643
-9.41961e-06
5.11327e-05
0.000370182
2.56275e-05
2.24667e-05
0.000366867
5.01594e-05
-8.03717e-06
0.000382919
-0.000101246
2.09976e-06
0.000347706
-5.77444e-05
1.95812e-05
0.000321751
7.55635e-05
2.81541e-05
0.000338008
1.61491e-05
-9.12287e-06
0.000353767
-6.47968e-05
-3.99684e-05
0.000343983
-0.000133506
8.33713e-06
0.000315565
-0.000163866
-6.98676e-06
0.000350059
-6.68556e-05
-2.93008e-05
0.000412558
-2.80954e-05
3.73217e-05
0.000369658
-8.38817e-05
7.20282e-05
0.000292941
-1.23086e-05
1.5175e-05
0.000303526
6.35223e-05
-4.16152e-05
0.000328138
-3.68311e-05
-1.15088e-05
0.000295605
-0.000134678
5.50753e-05
0.000261118
-4.02031e-05
5.47875e-05
0.000243055
0.00011579
-1.98111e-05
0.000229234
9.84884e-05
-1.15854e-05
0.000240762
-6.32784e-06
6.57258e-05
6.74005e-05
-9.16005e-06
0.000340475
6.95351e-05
-5.90733e-05
0.000370394
3.82755e-07
-5.09045e-05
0.000370541
-1.40211e-05
-3.20019e-05
0.000372074
-3.89333e-05
2.29082e-05
0.000385909
-0.000120707
7.08959e-05
0.000387472
-0.000108451
4.98103e-05
0.000423507
-0.000131237
1.5963e-05
0.000411711
-9.46936e-05
-8.21166e-06
0.000425893
-0.000136036
-2.81344e-05
0.000419902
-0.000110602
2.67761e-05
0.000343116
3.53245e-05
1.30191e-05
0.000342456
5.25611e-05
-6.57703e-05
0.000373959
-3.26295e-05
-4.10638e-05
0.000422096
-0.000285659
-2.61059e-05
0.000430097
-0.000247577
-4.00158e-05
0.00042779
-0.000188286
6.65059e-06
0.000472928
-0.000248469
2.54679e-05
0.000454272
-7.52744e-08
1.10466e-05
0.000433923
-4.3086e-06
3.20938e-05
0.000437044
-4.36711e-05
2.20765e-05
0.000436607
1.56365e-05
9.35948e-06
0.000466889
-0.000109751
1.2287e-05
0.000450876
-7.55216e-05
-5.22865e-06
0.000416382
6.87977e-05
3.80329e-05
0.000410304
3.84171e-06
4.33347e-05
0.000413509
-3.59949e-05
-4.18616e-05
0.000421344
-9.31627e-05
6.1231e-06
0.000372883
-0.000114473
-8.33615e-06
0.000361061
-3.9179e-05
-7.4807e-05
0.00045735
-8.47205e-05
-1.03913e-05
0.000476994
-0.000145254
6.80819e-05
0.000391494
-5.785e-06
3.88527e-05
0.00038653
5.93089e-05
-2.44184e-05
0.000426733
-5.14869e-05
-3.96415e-05
0.00038443
-9.71074e-05
-1.30575e-05
0.000320641
-2.6603e-05
5.51057e-05
0.000304841
9.70217e-05
-2.57101e-06
0.000300893
0.000104152
-3.67146e-05
0.000282492
-8.10163e-06
7.67667e-05
3.4324e-05
2.4407e-05
0.000360168
6.92776e-05
-1.97889e-05
0.000414968
-2.08361e-06
-1.26424e-05
0.000467054
-4.77927e-05
-1.92625e-05
0.00046481
-4.3897e-05
1.2217e-05
0.00045934
-0.000141487
7.6069e-05
0.000441927
-0.000106486
7.25087e-05
0.000492894
-0.00019539
4.25283e-05
0.000528854
-0.00019915
2.43415e-05
0.000512162
-0.000137915
-1.41041e-05
0.000496694
-0.000116414
1.90569e-05
0.000447838
3.64652e-05
1.83461e-05
0.000428434
2.28016e-05
-6.76741e-05
0.000428734
-4.28164e-05
-4.75721e-05
0.000472179
-0.000257197
-2.40868e-06
0.000493548
-0.000240924
-4.78552e-05
0.000460738
-0.000131476
-4.39786e-05
0.000500701
-0.000296961
1.65467e-06
0.000524955
-9.60816e-05
3.12236e-05
0.00049208
2.53602e-05
2.86354e-05
0.000482504
-6.02396e-05
-1.17239e-05
0.000475754
-2.93039e-05
-1.44953e-05
0.000502981
-0.000127113
2.76478e-05
0.000523899
-0.000109905
-1.75081e-05
0.000520569
1.66439e-05
2.02626e-05
0.00050767
-4.34774e-05
7.90384e-05
0.000482116
-2.60814e-05
-2.47771e-05
0.000489929
-6.2571e-05
2.89309e-06
0.000447084
-5.81641e-05
2.28543e-05
0.000389353
4.54058e-05
-0.000104164
0.000461598
-8.43535e-05
-9.0504e-05
0.000540921
-0.000217889
1.54162e-05
0.000483612
-1.80445e-05
2.79394e-05
0.000457873
5.69636e-05
2.72622e-06
0.000520636
-9.3856e-05
3.41232e-06
0.000504409
-5.29966e-05
-5.98532e-05
0.000397916
4.53972e-05
1.1161e-05
0.000347743
0.000111437
2.4104e-05
0.000380836
6.76205e-05
-2.11374e-05
0.000357807
-2.18015e-05
8.00103e-05
3.33144e-05
5.95745e-05
0.000427585
5.87554e-05
2.12884e-05
0.000466326
-1.6503e-05
2.96677e-05
0.000541877
-9.50386e-05
3.0481e-06
0.000570119
-6.46572e-05
1.17667e-05
0.000556766
-0.00013831
5.24852e-05
0.000508557
-6.45367e-05
6.37699e-05
0.000533575
-0.00018212
3.60521e-05
0.000603805
-0.000286205
9.93796e-06
0.000596223
-0.000154778
4.03068e-06
0.000557716
-0.000131319
4.0545e-05
0.000522433
4.08372e-05
2.80966e-05
0.000515476
2.41041e-05
-5.70157e-05
0.000502775
-4.0937e-05
-6.32646e-05
0.000533535
-0.000218075
1.05624e-05
0.000581425
-0.000250066
-5.63489e-06
0.000547367
-6.18854e-05
-5.57206e-05
0.000549236
-0.000247257
-3.95871e-05
0.000593252
-0.000206011
3.14698e-05
0.000578751
-1.15674e-05
7.01655e-05
0.000553981
-3.67979e-05
-1.02845e-05
0.000533599
-2.08161e-05
-6.37753e-05
0.00054015
-9.85589e-05
1.06783e-05
0.000573305
-0.000110369
-8.69856e-06
0.000610704
-5.12405e-05
-2.52843e-06
0.000607474
-9.9094e-05
8.33823e-05
0.000561
-1.22263e-05
-1.70533e-05
0.000562018
-4.20361e-05
-2.01926e-05
0.000533792
-3.57421e-05
8.37131e-05
0.000472554
0.000119167
-6.45558e-05
0.000508599
-3.82337e-05
-0.00014035
0.00059979
-0.000255485
-4.25809e-05
0.000574922
-4.34966e-05
5.28215e-06
0.000529697
6.9966e-05
3.98176e-08
0.000580464
-0.000127935
4.04319e-05
0.000597515
-3.86206e-05
-3.4043e-05
0.00050676
0.00012606
-2.50644e-05
0.000418016
0.000168514
2.71218e-05
0.000447168
2.83141e-05
6.54821e-06
0.000448637
-6.51886e-05
7.41372e-05
2.30071e-05
8.18863e-05
0.000522772
4.30465e-05
6.75396e-06
0.000541219
-4.621e-05
1.62982e-05
0.000594069
-0.000133789
-4.42479e-06
0.000637956
-9.38228e-05
-4.46794e-07
0.000646338
-0.000153367
2.87246e-05
0.000596449
-3.7473e-05
6.00042e-05
0.000587806
-9.58591e-05
2.44836e-05
0.000645458
-0.000279096
-4.05795e-05
0.000654126
-0.000175487
-1.67644e-05
0.000608867
-0.000127704
5.46885e-05
0.000563502
7.01872e-05
6.65644e-05
0.000570757
5.86566e-05
-2.47334e-05
0.000580641
-3.7349e-05
-8.24169e-05
0.000596565
-0.000192565
-4.85996e-06
0.000646333
-0.000270355
3.03849e-05
0.000650883
-5.99783e-05
-2.72908e-05
0.000632702
-0.000142283
-5.73245e-05
0.00064911
-0.000219446
-8.10811e-06
0.000652933
-8.75214e-05
8.14243e-05
0.00064223
-4.52043e-05
3.29867e-05
0.000624223
-1.06958e-05
-6.71832e-05
0.000614098
-5.44749e-05
-1.16587e-05
0.000636946
-7.52005e-05
1.89312e-05
0.000689781
-8.89568e-05
-1.18911e-05
0.000695619
-0.000137462
6.69001e-05
0.000643944
5.96751e-06
-2.0549e-06
0.000626301
-7.31999e-06
-5.74722e-05
0.000599012
-1.56308e-05
8.43075e-05
0.000572446
0.000128415
1.76753e-05
0.000604235
-9.25854e-06
-0.00010583
0.000682338
-0.000256641
-6.47215e-05
0.000673922
-6.2059e-05
-9.0539e-06
0.000610016
0.00010346
-6.9388e-07
0.000634211
-0.000135956
3.39084e-05
0.000660006
-5.56761e-05
1.20148e-05
0.000612699
0.000159685
-1.53448e-06
0.000538121
0.000213012
1.17203e-05
0.000525687
4.55667e-05
-1.70989e-05
0.000527916
-8.05991e-05
3.08991e-05
3.36505e-06
5.63741e-05
0.000617278
3.69979e-05
-1.87816e-05
0.000623569
-5.8948e-05
-2.37669e-05
0.000663268
-0.000166464
-2.85055e-05
0.000689635
-0.000103823
-8.46676e-06
0.000704395
-0.000152507
6.49388e-06
0.000679303
-5.25859e-05
4.67638e-05
0.000661907
-3.39841e-05
3.20091e-05
0.000695068
-0.000197102
-5.31717e-05
0.000712012
-0.000168772
-3.03951e-05
0.000687596
-0.000123238
2.91844e-05
0.000642837
8.33533e-05
6.57736e-05
0.000638806
0.000105957
2.74687e-06
0.000661208
-1.23745e-05
-9.38199e-05
0.000680396
-0.000182779
-3.66133e-05
0.000711156
-0.000287151
4.17451e-05
0.000726134
-9.95887e-05
-7.40125e-06
0.000716597
-8.12822e-05
-5.50388e-05
0.000710083
-0.000164583
-3.42941e-05
0.000708778
-0.000108444
4.62757e-05
0.000721044
-7.80924e-05
5.34136e-05
0.000724052
-4.86905e-05
-2.62093e-05
0.00071341
-4.36263e-05
-2.67986e-05
0.0007282
-5.61339e-05
1.86504e-05
0.000774335
-0.00011311
1.25983e-06
0.000771946
-0.000146252
4.51456e-05
0.00072002
1.08042e-05
1.20646e-05
0.000698792
9.03646e-06
-6.50135e-05
0.000669079
4.34807e-06
6.04065e-05
0.000656889
0.000114699
6.29285e-05
0.000694948
-1.91533e-05
-4.15236e-05
0.000764729
-0.000251569
-5.38075e-05
0.000766715
-7.4553e-05
-1.20102e-05
0.000697842
0.000148906
2.30922e-06
0.000695118
-0.000112103
2.73489e-05
0.000714743
-0.000102313
5.61246e-05
0.000697167
0.0001458
2.92724e-05
0.000655979
0.00021855
1.50261e-05
0.000634711
7.06409e-05
-2.9927e-05
0.000631597
-7.70006e-05
1.97983e-06
-2.17051e-05
3.62674e-05
0.000731028
4.44293e-05
-3.39912e-05
0.000719231
-3.779e-05
-5.82556e-05
0.00074879
-0.00017388
-5.86232e-05
0.000764839
-0.00010927
-2.92478e-05
0.000769937
-0.000121806
-2.57972e-06
0.000765702
-6.13203e-05
2.43525e-05
0.000758888
-3.77705e-05
3.41784e-05
0.000765633
-0.00011925
-3.35393e-05
0.000770365
-0.000113877
-3.35996e-05
0.000762258
-0.000112168
1.6735e-08
0.00073235
5.68086e-05
2.93879e-05
0.000726015
0.000122107
9.31955e-06
0.000747243
2.94615e-05
-8.53055e-05
0.000771189
-0.000157533
-6.78411e-05
0.000793689
-0.000287353
3.57037e-05
0.000804821
-0.000133624
1.14469e-05
0.000801086
-6.88983e-05
-4.72589e-05
0.000787721
-0.000113274
-3.8266e-05
0.000778877
-7.10023e-05
2.74222e-05
0.000798506
-8.99389e-05
5.33445e-05
0.000819708
-9.53255e-05
1.61073e-06
0.000816103
-4.78035e-05
-2.82486e-05
0.000814936
-4.75596e-05
-1.46381e-07
0.000837993
-0.00011488
7.04585e-06
0.000836387
-0.00013447
3.66309e-05
0.000790238
-3.39327e-06
1.42537e-05
0.000771439
-2.3499e-06
-6.41745e-05
0.000765885
-2.25667e-07
3.17613e-05
0.000763206
8.32235e-05
7.7804e-05
0.000785942
-4.75506e-05
1.11424e-05
0.000841129
-0.000252684
-2.82627e-05
0.000855594
-8.1994e-05
-1.24765e-05
0.000799913
0.000171536
1.41869e-05
0.000780933
-7.36397e-05
3.18363e-05
0.000778211
-0.000132835
7.13483e-05
0.000752657
0.00012583
3.86329e-05
0.000731554
0.0002061
1.57338e-05
0.000742691
5.75583e-05
-2.23598e-05
0.000757387
-9.67858e-05
4.48933e-06
-5.43477e-05
4.24999e-05
0.00085239
4.45116e-05
-1.26001e-05
0.000829157
-4.82849e-06
-6.81098e-05
0.000838371
-0.000142441
-7.95309e-05
0.00085009
-9.67559e-05
-5.71344e-05
0.000857146
-9.76387e-05
-7.71556e-06
0.000864294
-6.19465e-05
1.67817e-05
0.000860603
-7.78903e-05
3.55583e-05
0.000851233
-8.97089e-05
-8.62233e-06
0.000846874
-4.70156e-05
-3.12691e-05
0.000843429
-7.76685e-05
-6.60355e-06
0.000821609
3.9166e-05
1.47797e-06
0.000822233
0.00011592
6.86861e-06
0.000848255
5.67514e-05
-5.15883e-05
0.000868752
-0.000123978
-7.58335e-05
0.000882174
-0.000272493
7.12375e-06
0.000890002
-0.000141211
1.66938e-05
0.000884513
-6.06851e-05
-3.15059e-05
0.000872229
-8.6137e-05
-3.43898e-05
0.000868338
-3.18373e-05
1.88973e-05
0.000884393
-7.41228e-05
4.96879e-05
0.000909411
-0.000116957
1.60308e-05
0.000913331
-4.21431e-05
-2.16769e-05
0.000897189
-2.85478e-05
-1.80423e-05
0.000887726
-9.30924e-05
4.7247e-06
0.000892493
-0.000104924
4.43013e-05
0.00088185
-3.16769e-05
1.28519e-05
0.000873981
-3.36946e-05
-6.5277e-05
0.000884222
-2.12245e-05
1.03869e-05
0.00089194
4.52068e-05
6.55514e-05
0.000894108
-5.97706e-05
2.04753e-05
0.000920223
-0.000240834
-8.79248e-06
0.000936712
-8.61562e-05
-7.22013e-06
0.00090012
0.000169382
1.39774e-05
0.000870776
-3.10974e-05
4.60031e-05
0.000846014
-0.000130243
7.88735e-05
0.000809514
0.000110739
4.14592e-05
0.000794057
0.000196352
6.10095e-06
0.000825162
3.20196e-05
-2.14515e-05
0.000861527
-0.00012766
1.59045e-05
-9.42548e-05
6.93223e-05
0.00095909
4.04862e-05
8.85635e-06
0.000942792
2.07479e-05
-5.12274e-05
0.000938893
-9.41078e-05
-7.3316e-05
0.000944266
-6.03127e-05
-6.58558e-05
0.000952597
-7.86496e-05
-1.34637e-05
0.000962683
-5.62741e-05
1.34448e-05
0.000959867
-0.000104942
3.22282e-05
0.000946162
-9.31085e-05
6.1601e-06
0.000942925
-2.92547e-06
-2.36098e-05
0.000944413
-3.45653e-05
-2.31276e-06
0.000925578
3.90753e-05
-1.10306e-06
0.000927619
0.000104144
2.58164e-06
0.000957711
6.41621e-05
-2.87135e-05
0.00097654
-9.95257e-05
-6.08861e-05
0.000974897
-0.000248272
-7.59821e-06
0.000974946
-0.000133465
8.88107e-06
0.000973373
-4.07353e-05
-2.74848e-05
0.000963527
-7.16311e-05
-2.42927e-05
0.000965359
-2.59301e-05
1.71822e-05
0.000980405
-5.30327e-05
3.58004e-05
0.000996289
-0.000112367
1.05272e-05
0.000998302
-3.47978e-05
-1.27478e-05
0.000987015
-2.13018e-05
-1.30278e-05
0.000973495
-8.04424e-05
-8.42472e-08
0.000975803
-7.55353e-05
4.80516e-05
0.000985993
-5.2029e-05
1.76259e-05
0.000990227
-6.03455e-05
-5.91719e-05
0.000994436
-3.8227e-05
6.43026e-06
0.000997528
1.14272e-05
5.13341e-05
0.000991179
-4.99854e-05
1.40116e-05
0.000997973
-0.000203796
-3.34458e-06
0.00101066
-8.97834e-05
-5.73658e-06
0.000986099
0.000153515
5.72514e-06
0.000948958
1.20618e-05
4.54029e-05
0.000912708
-9.85418e-05
7.43677e-05
0.000888778
9.14374e-05
4.22825e-05
0.000891188
0.000175973
2.48509e-06
0.000920556
1.94972e-05
-2.12385e-05
0.00094889
-0.000141896
1.57272e-05
-0.000120797
7.12952e-05
0.0010705
3.98353e-05
1.45477e-05
0.0010627
3.44357e-05
-2.79779e-05
0.00105182
-5.37011e-05
-5.86865e-05
0.00105258
-2.1372e-05
-5.95786e-05
0.00105818
-6.37164e-05
-8.73868e-06
0.00106466
-5.13781e-05
1.34896e-05
0.00106258
-0.000101724
1.82921e-05
0.0010513
-8.57574e-05
6.24032e-06
0.00105005
2.10894e-05
-1.23032e-05
0.00105601
-8.70913e-06
6.13774e-06
0.00104477
3.41161e-05
5.51996e-06
0.00104775
8.47433e-05
6.68903e-06
0.00107428
5.56914e-05
-1.69946e-05
0.00109103
-8.16011e-05
-5.1768e-05
0.0010795
-0.000211097
-1.10404e-05
0.00106946
-0.000122794
1.0112e-05
0.00107191
-2.76452e-05
-2.2872e-05
0.00106764
-6.53634e-05
-1.80749e-05
0.00107005
-4.44302e-05
1.99137e-05
0.00107976
-4.10831e-05
2.63792e-05
0.00108516
-9.13901e-05
-5.14248e-06
0.0010835
-2.99625e-05
-1.29613e-05
0.00107854
-2.26136e-05
-3.50034e-06
0.00107646
-7.86106e-05
-2.04167e-06
0.00108317
-6.08354e-05
3.85614e-05
0.00109163
-5.4129e-05
1.64512e-05
0.00108785
-6.25655e-05
-4.78747e-05
0.00107794
-4.68159e-05
7.38343e-06
0.00107984
-1.87148e-05
3.80846e-05
0.00108299
-3.66399e-05
9.63682e-06
0.00108169
-0.000153588
3.26965e-06
0.00108253
-8.12024e-05
-7.65211e-06
0.00106688
0.000133582
-2.42024e-06
0.00103846
4.09712e-05
2.95043e-05
0.00100415
-5.26319e-05
5.19238e-05
0.000993735
7.86096e-05
3.58581e-05
0.00101409
0.000144057
6.89893e-06
0.00104314
1.61965e-05
-1.917e-05
0.00105778
-0.000139386
7.91812e-06
-0.000123644
5.13591e-05
0.00118813
3.94041e-05
1.89113e-05
0.00118743
3.77358e-05
-7.97061e-07
0.00117356
-2.44528e-05
-3.64289e-05
0.00117204
1.25437e-05
-5.07055e-05
0.00117551
-4.77797e-05
-8.62354e-06
0.00117667
-4.7362e-05
1.19537e-05
0.00117225
-8.30499e-05
4.0044e-06
0.00116675
-6.41936e-05
-6.4676e-06
0.00116768
3.4509e-05
-7.23964e-06
0.00117362
-1.05183e-06
1.4304e-05
0.00117092
2.02391e-05
1.22071e-05
0.0011759
6.0324e-05
1.11598e-05
0.00119333
4.30889e-05
-1.11877e-05
0.00120514
-6.77869e-05
-4.78951e-05
0.00118975
-0.000169211
-1.70576e-05
0.00117386
-0.000109829
1.11869e-05
0.00117941
-2.7129e-05
-1.18543e-05
0.00117954
-6.29117e-05
-1.47875e-05
0.00118041
-6.08786e-05
1.76587e-05
0.00118536
-3.43954e-05
2.15012e-05
0.00118572
-7.00422e-05
-1.39594e-05
0.00118479
-2.84967e-05
-1.31952e-05
0.00118557
-2.52036e-05
2.24816e-06
0.00118685
-7.53213e-05
-5.92375e-06
0.0011901
-5.2603e-05
2.44594e-05
0.00119499
-4.86985e-05
1.39932e-05
0.00118881
-5.24721e-05
-3.80941e-05
0.00117396
-4.36587e-05
-2.34928e-06
0.00117471
-3.64952e-05
2.5494e-05
0.00118459
-2.49809e-05
9.79958e-06
0.00117951
-0.000104976
5.59643e-06
0.00117178
-5.75071e-05
-9.23269e-06
0.00116357
0.000124677
-1.12388e-05
0.0011481
5.58397e-05
1.13312e-05
0.00112277
-1.20451e-05
2.98582e-05
0.00112338
7.37767e-05
2.48692e-05
0.00115309
0.000111542
7.14631e-06
0.00117819
1.68702e-05
-2.36183e-05
0.00118038
-0.00012158
-7.57741e-06
-0.000107744
2.81895e-05
0.00130721
3.26997e-05
2.09e-05
0.00130925
2.53778e-05
2.11873e-05
0.00129926
-1.46717e-05
-1.38599e-05
0.00130083
2.98968e-05
-3.70907e-05
0.0013034
-3.48892e-05
-1.00791e-05
0.00130114
-4.26424e-05
5.77016e-06
0.00129395
-6.15535e-05
-4.60303e-07
0.00129267
-4.28295e-05
-7.45723e-06
0.00129633
3.78604e-05
-1.06319e-06
0.0013
-1.60954e-06
1.55825e-05
0.00129969
6.73763e-06
1.09001e-05
0.00130547
3.86826e-05
1.14249e-05
0.00131651
3.17845e-05
-7.23222e-06
0.00132423
-5.485e-05
-4.43305e-05
0.00131005
-0.00013095
-2.61566e-05
0.00129506
-9.63369e-05
2.93391e-06
0.00130205
-3.24534e-05
-5.31812e-06
0.00130248
-5.98889e-05
-1.23839e-05
0.00130254
-6.46567e-05
8.32913e-06
0.0013053
-2.69731e-05
1.46146e-05
0.00130419
-5.29804e-05
-1.52712e-05
0.00130353
-2.46896e-05
-1.22929e-05
0.0013048
-2.39893e-05
2.96678e-06
0.00130756
-6.78138e-05
-1.29537e-05
0.00130775
-4.18838e-05
8.11937e-06
0.00130864
-3.95455e-05
1.0414e-05
0.00130636
-4.54233e-05
-2.861e-05
0.00129464
-3.64485e-05
-6.14672e-06
0.00129161
-3.93997e-05
1.46554e-05
0.00130144
-1.39133e-05
5.67044e-06
0.00129612
-6.59732e-05
3.82187e-06
0.00128697
-3.30287e-05
-8.76772e-06
0.00128603
0.000118907
-1.16274e-05
0.00128194
5.68017e-05
2.14222e-06
0.00126722
9.5445e-06
1.48092e-05
0.00127278
6.63968e-05
1.10976e-05
0.00130119
7.9058e-05
4.03967e-06
0.001318
1.50894e-05
-2.05713e-05
0.00130998
-9.49061e-05
-1.99031e-05
-8.28173e-05
1.03902e-05
0.00143443
2.04756e-05
1.90683e-05
0.00143732
9.33965e-06
2.06741e-05
0.0014314
-1.5431e-05
-7.9339e-06
0.00143668
3.11161e-05
-2.55819e-05
0.00143829
-2.66148e-05
-1.05916e-05
0.00143554
-3.61923e-05
-5.17133e-06
0.00142912
-4.26391e-05
-3.67626e-06
0.00142878
-2.86791e-05
6.36154e-07
0.00143302
3.44815e-05
5.19656e-06
0.00143522
-2.7009e-06
1.00884e-05
0.00143292
4.72716e-07
2.44052e-06
0.00143819
2.52281e-05
3.39932e-06
0.00144693
2.5306e-05
-8.29055e-06
0.00145175
-4.07263e-05
-3.81782e-05
0.00143984
-9.53115e-05
-2.86407e-05
0.00142822
-7.83236e-05
-5.22496e-06
0.00143608
-3.492e-05
-4.06023e-06
0.00143369
-5.12734e-05
-9.88237e-06
0.00143298
-5.79754e-05
1.33309e-06
0.00143536
-1.82791e-05
6.53903e-06
0.00143516
-4.01835e-05
-1.62146e-05
0.00143746
-2.15865e-05
-1.2692e-05
0.00143659
-1.72636e-05
1.09717e-06
0.00143708
-5.61856e-05
-1.43445e-05
0.00143806
-3.16124e-05
5.2144e-07
0.00143759
-2.83511e-05
6.4576e-06
0.0014365
-3.95597e-05
-2.19386e-05
0.00142876
-2.96336e-05
-4.44555e-06
0.00142493
-3.53502e-05
6.85871e-06
0.00143291
-5.47249e-06
1.28712e-06
0.00142628
-3.87617e-05
5.3787e-06
0.00142029
-1.71174e-05
-5.72522e-06
0.00142727
0.000103993
-5.59996e-06
0.00143089
4.81303e-05
-9.07561e-07
0.00142389
1.60965e-05
6.4252e-06
0.00142931
5.51825e-05
4.52193e-06
0.00144803
5.17392e-05
2.9183e-06
0.00145452
1.01979e-05
-1.11994e-05
0.00144205
-7.00321e-05
-1.56056e-05
-6.10156e-05
7.34589e-06
0.00157689
1.21698e-05
9.53846e-06
0.00158012
2.15993e-06
5.34185e-06
0.0015763
-1.44551e-05
-1.30057e-05
0.00158334
2.74852e-05
-2.09106e-05
0.00158387
-1.86688e-05
-1.21448e-05
0.00158122
-2.60602e-05
-1.38474e-05
0.00157676
-2.77273e-05
-5.49414e-06
0.00157629
-2.1846e-05
5.93324e-06
0.00157958
2.87313e-05
7.04681e-06
0.00158138
-1.56654e-06
3.66593e-06
0.00157707
-2.96479e-08
-2.68883e-06
0.00158155
1.75921e-05
-1.31915e-06
0.0015894
2.09307e-05
-6.97441e-06
0.00159287
-2.77205e-05
-3.07719e-05
0.00158496
-6.59699e-05
-2.77635e-05
0.00157488
-5.83838e-05
-9.8581e-06
0.0015821
-3.25703e-05
-5.35049e-06
0.00157794
-3.88986e-05
-8.81487e-06
0.00157698
-4.79863e-05
-1.23266e-06
0.00158013
-1.10207e-05
2.83381e-06
0.00157931
-2.86758e-05
-1.63016e-05
0.0015837
-1.90923e-05
-1.41214e-05
0.0015819
-9.58482e-06
5.1382e-07
0.00157948
-4.54075e-05
-1.07794e-05
0.00158184
-2.46981e-05
5.25552e-07
0.00158146
-1.80201e-05
5.97585e-06
0.00158031
-3.53056e-05
-1.79363e-05
0.00157529
-2.33656e-05
-2.33924e-06
0.00157189
-2.87878e-05
3.21826e-06
0.00157801
-9.69494e-07
-8.45525e-07
0.00157093
-2.07498e-05
7.38377e-06
0.0015683
-9.58755e-06
-4.18063e-06
0.00157834
8.31359e-05
-1.88929e-06
0.00158353
3.81023e-05
-2.12942e-06
0.0015797
1.80595e-05
2.73875e-06
0.00158339
4.50677e-05
3.69433e-06
0.00159422
3.29421e-05
1.35693e-06
0.00159439
8.18671e-06
-5.8937e-06
0.00158335
-5.19884e-05
-7.69252e-06
-4.55949e-05
7.29786e-06
0.00173513
8.05561e-06
1.54319e-06
0.00173896
8.95651e-07
-4.12042e-06
0.00173554
-9.82196e-06
-1.66534e-05
0.00174251
2.39706e-05
-1.94325e-05
0.00174274
-1.16916e-05
-1.13214e-05
0.00174089
-1.69895e-05
-1.51645e-05
0.00173779
-1.63799e-05
-5.74203e-06
0.00173657
-1.73938e-05
6.29256e-06
0.00173851
2.27488e-05