/*--------------------------------*- C++ -*----------------------------------*\
  =========                 |
  \\      /  F ield         | OpenFOAM: The Open Source CFD Toolbox
   \\    /   O peration     | Website:  https://openfoam.org
    \\  /    A nd           | Version:  10
     \\/     M anipulation  |
\*---------------------------------------------------------------------------*/
FoamFile
{
    format      ascii;
    class       volScalarField;
    location    "13";
    object      pPrime2Mean;
}
// * * * * * * * * * * * * * * * * * * * * * * * * * * * * * * * * * * * * * //

dimensions      [0 4 -4 0 0 0 0];

internalField   nonuniform List<scalar> 
25600
(
3.70039e-05
3.73322e-05
3.73182e-05
4.01387e-05
3.43053e-05
3.55252e-05
3.67234e-05
3.78833e-05
3.34422e-05
3.35771e-05
3.70401e-05
3.53535e-05
2.89943e-05
2.54064e-05
2.26149e-05
2.37256e-05
2.52974e-05
2.74986e-05
3.17605e-05
3.57584e-05
3.5411e-05
3.04305e-05
2.84929e-05
2.48246e-05
2.74299e-05
3.18042e-05
3.4502e-05
3.57621e-05
3.34741e-05
3.18336e-05
3.14263e-05
2.93344e-05
2.80876e-05
3.03022e-05
2.91102e-05
2.64076e-05
2.80457e-05
3.26256e-05
3.51438e-05
3.59257e-05
3.71761e-05
3.75298e-05
3.7475e-05
4.02809e-05
3.44918e-05
3.5742e-05
3.69875e-05
3.81336e-05
3.36169e-05
3.37379e-05
3.72608e-05
3.55367e-05
2.91445e-05
2.55193e-05
2.27365e-05
2.38739e-05
2.54415e-05
2.76657e-05
3.19673e-05
3.59676e-05
3.5666e-05
3.05925e-05
2.86204e-05
2.49625e-05
2.75746e-05
3.20442e-05
3.47429e-05
3.59971e-05
3.37661e-05
3.20866e-05
3.1594e-05
2.95146e-05
2.82323e-05
3.05234e-05
2.93446e-05
2.66209e-05
2.82691e-05
3.28474e-05
3.53341e-05
3.61253e-05
3.75534e-05
3.7842e-05
3.78235e-05
4.05413e-05
3.4945e-05
3.62616e-05
3.76226e-05
3.87419e-05
3.40336e-05
3.40912e-05
3.77287e-05
3.59304e-05
2.94694e-05
2.57742e-05
2.3046e-05
2.42548e-05
2.58474e-05
2.81154e-05
3.24519e-05
3.64103e-05
3.61848e-05
3.09624e-05
2.87881e-05
2.53047e-05
2.78422e-05
3.26832e-05
3.53664e-05
3.67028e-05
3.44603e-05
3.27634e-05
3.21732e-05
3.00451e-05
2.87081e-05
3.10117e-05
2.98293e-05
2.70593e-05
2.86949e-05
3.333e-05
3.57247e-05
3.64955e-05
3.81883e-05
3.83649e-05
3.84795e-05
4.10514e-05
3.55965e-05
3.70027e-05
3.85027e-05
3.94891e-05
3.46651e-05
3.46139e-05
3.84181e-05
3.64754e-05
2.9966e-05
2.62173e-05
2.34821e-05
2.48282e-05
2.64017e-05
2.8734e-05
3.31475e-05
3.70406e-05
3.69107e-05
3.15292e-05
2.89863e-05
2.57601e-05
2.81642e-05
3.36346e-05
3.63887e-05
3.77187e-05
3.5485e-05
3.37729e-05
3.29543e-05
3.10085e-05
2.93482e-05
3.16346e-05
3.04706e-05
2.76933e-05
2.91849e-05
3.40164e-05
3.63204e-05
3.70964e-05
3.90665e-05
3.90154e-05
3.95214e-05
4.1577e-05
3.6148e-05
3.76054e-05
3.91282e-05
4.00245e-05
3.52338e-05
3.51432e-05
3.90147e-05
3.68723e-05
3.03484e-05
2.65104e-05
2.37235e-05
2.53379e-05
2.692e-05
2.9325e-05
3.38783e-05
3.76647e-05
3.74949e-05
3.1874e-05
2.89646e-05
2.60995e-05
2.8421e-05
3.48731e-05
3.76934e-05
3.91774e-05
3.69802e-05
3.51646e-05
3.40135e-05
3.21129e-05
3.0163e-05
3.21591e-05
3.09825e-05
2.81774e-05
2.95458e-05
3.45893e-05
3.69491e-05
3.78427e-05
3.95491e-05
3.91649e-05
3.98778e-05
4.08291e-05
3.58127e-05
3.74347e-05
3.90569e-05
4.02003e-05
3.57126e-05
3.55321e-05
3.94607e-05
3.72074e-05
3.06589e-05
2.68836e-05
2.40377e-05
2.59225e-05
2.75265e-05
2.98719e-05
3.44375e-05
3.82231e-05
3.78984e-05
3.22337e-05
2.85305e-05
2.61248e-05
2.87403e-05
3.6352e-05
3.90506e-05
4.03812e-05
3.8162e-05
3.6161e-05
3.46794e-05
3.3128e-05
3.07753e-05
3.26513e-05
3.15635e-05
2.87811e-05
2.96395e-05
3.44534e-05
3.70542e-05
3.81195e-05
4.02048e-05
3.93724e-05
3.95429e-05
3.93375e-05
3.44399e-05
3.66053e-05
3.82487e-05
3.94186e-05
3.56921e-05
3.52189e-05
3.92263e-05
3.668e-05
2.99193e-05
2.65155e-05
2.38406e-05
2.58579e-05
2.79353e-05
3.0317e-05
3.46182e-05
3.84954e-05
3.75196e-05
3.18847e-05
2.77893e-05
2.56536e-05
2.90263e-05
3.71791e-05
4.00766e-05
4.09878e-05
3.85834e-05
3.65685e-05
3.4886e-05
3.35341e-05
3.1187e-05
3.28693e-05
3.18449e-05
2.90056e-05
2.90612e-05
3.35519e-05
3.64994e-05
3.79315e-05
4.00527e-05
3.88326e-05
3.835e-05
3.8e-05
3.30101e-05
3.5418e-05
3.68471e-05
3.78667e-05
3.48371e-05
3.3763e-05
3.74732e-05
3.52881e-05
2.8836e-05
2.58568e-05
2.38427e-05
2.56048e-05
2.80941e-05
3.04479e-05
3.43408e-05
3.8426e-05
3.69462e-05
3.10326e-05
2.6402e-05
2.50519e-05
2.88308e-05
3.71315e-05
4.03439e-05
4.12754e-05
3.86173e-05
3.66061e-05
3.47663e-05
3.34461e-05
3.12212e-05
3.30094e-05
3.20674e-05
2.91598e-05
2.91909e-05
3.32933e-05
3.53898e-05
3.67719e-05
3.84631e-05
3.73701e-05
3.65552e-05
3.61968e-05
3.15013e-05
3.388e-05
3.50895e-05
3.58712e-05
3.35017e-05
3.17983e-05
3.4657e-05
3.33294e-05
2.73525e-05
2.4913e-05
2.32098e-05
2.50956e-05
2.78546e-05
3.00686e-05
3.37571e-05
3.72733e-05
3.58109e-05
2.95449e-05
2.48044e-05
2.42952e-05
2.82179e-05
3.63211e-05
4.04364e-05
4.15712e-05
3.87677e-05
3.65089e-05
3.42054e-05
3.28401e-05
3.09167e-05
3.20137e-05
3.08838e-05
2.82036e-05
2.88715e-05
3.23649e-05
3.33098e-05
3.47041e-05
3.58993e-05
3.53169e-05
3.41178e-05
3.39159e-05
2.99906e-05
3.18832e-05
3.2715e-05
3.33904e-05
3.14104e-05
2.95216e-05
3.17116e-05
3.11658e-05
2.5899e-05
2.38093e-05
2.24087e-05
2.40702e-05
2.71226e-05
2.92242e-05
3.274e-05
3.53869e-05
3.39245e-05
2.7528e-05
2.33278e-05
2.35156e-05
2.7492e-05
3.50826e-05
4.00768e-05
4.15033e-05
3.84589e-05
3.57963e-05
3.3247e-05
3.14603e-05
2.96696e-05
3.00959e-05
2.89332e-05
2.66758e-05
2.7766e-05
3.08159e-05
3.15082e-05
3.25874e-05
3.21102e-05
3.1635e-05
3.05879e-05
3.04125e-05
2.70752e-05
2.79749e-05
2.88406e-05
2.99186e-05
2.82151e-05
2.64802e-05
2.79778e-05
2.79976e-05
2.36486e-05
2.16392e-05
2.02401e-05
2.17176e-05
2.44526e-05
2.63746e-05
2.96431e-05
3.16181e-05
2.97733e-05
2.43697e-05
2.16458e-05
2.26239e-05
2.66417e-05
3.35773e-05
3.83942e-05
3.94851e-05
3.6197e-05
3.32681e-05
3.06719e-05
2.81895e-05
2.65964e-05
2.64221e-05
2.53701e-05
2.35641e-05
2.4951e-05
2.82015e-05
2.95449e-05
3.00396e-05
2.68251e-05
2.62898e-05
2.53001e-05
2.49571e-05
2.2306e-05
2.2829e-05
2.37669e-05
2.50693e-05
2.38933e-05
2.27837e-05
2.37076e-05
2.38626e-05
2.04697e-05
1.84567e-05
1.71379e-05
1.82359e-05
2.05172e-05
2.21825e-05
2.50191e-05
2.6448e-05
2.42872e-05
2.02563e-05
1.87533e-05
2.03554e-05
2.44618e-05
3.07239e-05
3.49988e-05
3.57811e-05
3.2837e-05
2.98332e-05
2.73642e-05
2.42291e-05
2.29293e-05
2.29333e-05
2.17941e-05
1.99314e-05
2.11123e-05
2.41284e-05
2.58295e-05
2.59133e-05
2.06064e-05
2.01783e-05
1.94064e-05
1.91462e-05
1.74561e-05
1.79517e-05
1.87879e-05
1.99519e-05
1.91897e-05
1.85226e-05
1.9164e-05
1.90263e-05
1.63969e-05
1.48599e-05
1.36067e-05
1.41425e-05
1.60261e-05
1.75315e-05
1.98149e-05
2.09458e-05
1.88765e-05
1.59019e-05
1.51036e-05
1.66091e-05
2.03512e-05
2.52869e-05
2.8667e-05
2.90902e-05
2.70087e-05
2.47573e-05
2.27738e-05
1.93353e-05
1.80289e-05
1.84639e-05
1.78316e-05
1.60525e-05
1.67849e-05
1.91172e-05
2.04315e-05
2.03622e-05
1.49309e-05
1.48102e-05
1.45357e-05
1.46269e-05
1.37664e-05
1.39467e-05
1.4479e-05
1.53698e-05
1.47522e-05
1.40184e-05
1.46516e-05
1.44838e-05
1.25498e-05
1.15528e-05
1.02397e-05
1.01225e-05
1.15464e-05
1.26239e-05
1.44723e-05
1.55974e-05
1.41799e-05
1.22123e-05
1.17955e-05
1.27334e-05
1.49355e-05
1.83234e-05
2.09896e-05
2.1371e-05
2.01459e-05
1.88447e-05
1.77807e-05
1.46529e-05
1.33611e-05
1.40128e-05
1.3849e-05
1.21483e-05
1.2476e-05
1.42825e-05
1.51018e-05
1.50547e-05
1.0469e-05
1.04765e-05
1.05871e-05
1.07657e-05
1.03645e-05
1.03084e-05
1.0475e-05
1.11436e-05
1.06981e-05
9.98206e-06
1.06204e-05
1.05587e-05
9.17545e-06
8.5886e-06
7.40112e-06
6.93818e-06
7.94211e-06
8.65355e-06
1.01449e-05
1.11613e-05
1.02638e-05
9.04882e-06
8.76262e-06
9.29622e-06
1.02402e-05
1.23167e-05
1.4328e-05
1.47532e-05
1.4102e-05
1.33432e-05
1.27826e-05
1.04863e-05
9.43737e-06
1.00018e-05
1.02934e-05
8.84947e-06
8.86966e-06
1.02658e-05
1.07556e-05
1.07869e-05
7.05819e-06
7.08642e-06
7.43831e-06
7.54797e-06
7.37941e-06
7.34855e-06
7.26562e-06
7.57874e-06
7.31346e-06
6.80244e-06
7.44851e-06
7.4164e-06
6.44084e-06
6.12471e-06
5.16795e-06
4.69316e-06
5.35478e-06
5.78809e-06
6.87118e-06
7.7476e-06
7.21083e-06
6.43801e-06
6.26317e-06
6.56647e-06
6.81854e-06
7.84303e-06
9.30319e-06
9.73919e-06
9.39852e-06
9.00479e-06
8.73313e-06
7.29137e-06
6.42232e-06
6.84101e-06
7.33356e-06
6.27303e-06
6.1101e-06
7.14403e-06
7.43431e-06
7.38571e-06
4.59089e-06
4.61837e-06
5.04817e-06
5.08677e-06
5.02635e-06
5.07742e-06
4.84785e-06
4.9414e-06
4.81142e-06
4.53791e-06
5.15264e-06
5.09339e-06
4.36957e-06
4.22194e-06
3.52267e-06
3.13507e-06
3.54666e-06
3.74846e-06
4.48788e-06
5.17083e-06
4.82858e-06
4.37199e-06
4.31527e-06
4.48958e-06
4.44691e-06
4.89732e-06
5.94646e-06
6.306e-06
6.09561e-06
5.89206e-06
5.70392e-06
4.88306e-06
4.25622e-06
4.5104e-06
4.98863e-06
4.27988e-06
4.08719e-06
4.83015e-06
5.0175e-06
4.90168e-06
2.90008e-06
2.90818e-06
3.319e-06
3.31351e-06
3.28967e-06
3.38694e-06
3.1394e-06
3.1635e-06
3.09276e-06
2.99627e-06
3.51502e-06
3.42334e-06
2.87528e-06
2.8629e-06
2.37079e-06
2.06289e-06
2.33693e-06
2.39977e-06
2.88696e-06
3.41303e-06
3.18544e-06
2.92139e-06
2.90636e-06
3.0197e-06
2.87939e-06
3.01613e-06
3.75787e-06
4.02928e-06
3.84476e-06
3.76118e-06
3.62007e-06
3.18249e-06
2.77428e-06
2.90272e-06
3.28018e-06
2.82209e-06
2.62686e-06
3.17053e-06
3.28834e-06
3.17321e-06
1.80713e-06
1.78851e-06
2.15488e-06
2.11962e-06
2.10386e-06
2.21996e-06
1.98979e-06
1.98104e-06
1.93925e-06
1.92797e-06
2.36639e-06
2.26557e-06
1.84164e-06
1.91725e-06
1.57311e-06
1.35554e-06
1.55042e-06
1.52824e-06
1.84161e-06
2.21648e-06
2.04587e-06
1.90155e-06
1.90904e-06
1.9943e-06
1.84542e-06
1.82708e-06
2.36379e-06
2.57673e-06
2.40425e-06
2.38141e-06
2.27737e-06
2.03697e-06
1.78935e-06
1.85558e-06
2.16481e-06
1.85338e-06
1.67342e-06
2.06926e-06
2.14562e-06
2.04149e-06
1.11376e-06
1.07053e-06
1.37707e-06
1.31852e-06
1.28782e-06
1.41351e-06
1.23286e-06
1.23005e-06
1.21306e-06
1.223e-06
1.58586e-06
1.49858e-06
1.16074e-06
1.28085e-06
1.0381e-06
8.81451e-07
1.04117e-06
9.68724e-07
1.16527e-06
1.42102e-06
1.27655e-06
1.20734e-06
1.23538e-06
1.29945e-06
1.17423e-06
1.08935e-06
1.45563e-06
1.63373e-06
1.47517e-06
1.48991e-06
1.4244e-06
1.27922e-06
1.13685e-06
1.17525e-06
1.42475e-06
1.21722e-06
1.05624e-06
1.32627e-06
1.36287e-06
1.29926e-06
6.98939e-07
6.31871e-07
8.88529e-07
8.22098e-07
7.66519e-07
8.95881e-07
7.63958e-07
7.72848e-07
7.74545e-07
7.69612e-07
1.05599e-06
9.90475e-07
7.23812e-07
8.69053e-07
6.92538e-07
5.74892e-07
7.24844e-07
6.21269e-07
7.40488e-07
9.22424e-07
7.82405e-07
7.53808e-07
7.94473e-07
8.3782e-07
7.48003e-07
6.5009e-07
8.89183e-07
1.03727e-06
8.94578e-07
9.25232e-07
8.91392e-07
7.94433e-07
7.24824e-07
7.42522e-07
9.3914e-07
8.08419e-07
6.76168e-07
8.58078e-07
8.60568e-07
8.3805e-07
4.59397e-07
3.68693e-07
5.80657e-07
5.17172e-07
4.33551e-07
5.57016e-07
4.68136e-07
4.92225e-07
5.13438e-07
4.87326e-07
7.03772e-07
6.59298e-07
4.52172e-07
6.07233e-07
4.74544e-07
3.74258e-07
5.24305e-07
4.04403e-07
4.6782e-07
6.13696e-07
4.73791e-07
4.67237e-07
5.25968e-07
5.4142e-07
4.77133e-07
3.92201e-07
5.38356e-07
6.62491e-07
5.42283e-07
5.80048e-07
5.67792e-07
4.96933e-07
4.70652e-07
4.74117e-07
6.25229e-07
5.52193e-07
4.46636e-07
5.63145e-07
5.33163e-07
5.43258e-07
3.30636e-07
2.19238e-07
3.91124e-07
3.44028e-07
2.40612e-07
3.48639e-07
2.91402e-07
3.24358e-07
3.6353e-07
3.20271e-07
4.77408e-07
4.45151e-07
2.87203e-07
4.44645e-07
3.46814e-07
2.50141e-07
4.02003e-07
2.81192e-07
2.97707e-07
4.27896e-07
2.93188e-07
2.89157e-07
3.6514e-07
3.61507e-07
3.14198e-07
2.51819e-07
3.32003e-07
4.35136e-07
3.39563e-07
3.74183e-07
3.80167e-07
3.21807e-07
3.21466e-07
3.15142e-07
4.24303e-07
3.92376e-07
3.12682e-07
3.84575e-07
3.29684e-07
3.59518e-07
2.59173e-07
1.39706e-07
2.74253e-07
2.51088e-07
1.39076e-07
2.23256e-07
1.86892e-07
2.2018e-07
2.70479e-07
2.22416e-07
3.35947e-07
3.06848e-07
1.87821e-07
3.39712e-07
2.70835e-07
1.75135e-07
3.22644e-07
2.12084e-07
1.90241e-07
3.15804e-07
1.96201e-07
1.85853e-07
2.71119e-07
2.55121e-07
2.19929e-07
1.76925e-07
2.12607e-07
2.96021e-07
2.27334e-07
2.52907e-07
2.7176e-07
2.20282e-07
2.37786e-07
2.27545e-07
2.94799e-07
2.91904e-07
2.35723e-07
2.78573e-07
2.10524e-07
2.44815e-07
2.16388e-07
1.01517e-07
1.96959e-07
2.01868e-07
9.44809e-08
1.50675e-07
1.26702e-07
1.55132e-07
2.0512e-07
1.62613e-07
2.50636e-07
2.17616e-07
1.28866e-07
2.69582e-07
2.21931e-07
1.29139e-07
2.65799e-07
1.74662e-07
1.26833e-07
2.46236e-07
1.46893e-07
1.26301e-07
2.1064e-07
1.93685e-07
1.71007e-07
1.4062e-07
1.49132e-07
2.12605e-07
1.67873e-07
1.83256e-07
2.13325e-07
1.64572e-07
1.90378e-07
1.84001e-07
2.11469e-07
2.2694e-07
1.91058e-07
2.14875e-07
1.4428e-07
1.72326e-07
1.83395e-07
8.69614e-08
1.42761e-07
1.71488e-07
8.10909e-08
1.09272e-07
9.34895e-08
1.17861e-07
1.54585e-07
1.20615e-07
2.00069e-07
1.59142e-07
9.40006e-08
2.21861e-07
1.83751e-07
1.01321e-07
2.20179e-07
1.50929e-07
9.21064e-08
1.9973e-07
1.23945e-07
9.45348e-08
1.69372e-07
1.5566e-07
1.46257e-07
1.25864e-07
1.18399e-07
1.63273e-07
1.36348e-07
1.44714e-07
1.82252e-07
1.35337e-07
1.62137e-07
1.67303e-07
1.60186e-07
1.84697e-07
1.64688e-07
1.72793e-07
1.11311e-07
1.25392e-07
1.5004e-07
8.46846e-08
1.03868e-07
1.4395e-07
8.16861e-08
8.40331e-08
7.56434e-08
1.0021e-07
1.14686e-07
8.99809e-08
1.69225e-07
1.20754e-07
7.30975e-08
1.88494e-07
1.5107e-07
8.34274e-08
1.80248e-07
1.32993e-07
7.651e-08
1.66859e-07
1.16416e-07
8.13306e-08
1.3928e-07
1.295e-07
1.32581e-07
1.20753e-07
1.06685e-07
1.3629e-07
1.18174e-07
1.22128e-07
1.65247e-07
1.19724e-07
1.42502e-07
1.64382e-07
1.29037e-07
1.58152e-07
1.51317e-07
1.42109e-07
9.87663e-08
9.5442e-08
1.16112e-07
8.61171e-08
7.79178e-08
1.15319e-07
8.73718e-08
6.90007e-08
6.71895e-08
9.82109e-08
8.8498e-08
7.22714e-08
1.51615e-07
9.82207e-08
6.5128e-08
1.66676e-07
1.25779e-07
7.62015e-08
1.48348e-07
1.20466e-07
7.55441e-08
1.43387e-07
1.18922e-07
8.20462e-08
1.18882e-07
1.12489e-07
1.22483e-07
1.17214e-07
1.03783e-07
1.23807e-07
1.063e-07
1.08746e-07
1.54981e-07
1.11196e-07
1.27271e-07
1.65656e-07
1.11439e-07
1.3992e-07
1.47381e-07
1.18e-07
9.80145e-08
8.14391e-08
8.82344e-08
8.87808e-08
6.5244e-08
8.95886e-08
9.41145e-08
6.49197e-08
6.7895e-08
1.08282e-07
7.70497e-08
7.03047e-08
1.45958e-07
8.79358e-08
7.11105e-08
1.53436e-07
1.09826e-07
8.11814e-08
1.27272e-07
1.14354e-07
8.52853e-08
1.26048e-07
1.24765e-07
8.97379e-08
1.07168e-07
1.05094e-07
1.13444e-07
1.12512e-07
1.02818e-07
1.19719e-07
9.8919e-08
9.97704e-08
1.47648e-07
1.06048e-07
1.13444e-07
1.62157e-07
9.99878e-08
1.2175e-07
1.46235e-07
9.87576e-08
9.90836e-08
8.12875e-08
7.13525e-08
9.32929e-08
6.57012e-08
7.40467e-08
1.02113e-07
7.01901e-08
7.55096e-08
1.19916e-07
7.50663e-08
7.75341e-08
1.43964e-07
8.4005e-08
8.22048e-08
1.42369e-07
9.92447e-08
9.06829e-08
1.1446e-07
1.11948e-07
9.66566e-08
1.11055e-07
1.28508e-07
9.87832e-08
1.0209e-07
1.07473e-07
1.07366e-07
1.087e-07
1.01477e-07
1.1888e-07
9.77958e-08
9.29659e-08
1.40777e-07
1.02797e-07
9.98967e-08
1.49396e-07
9.00453e-08
1.00787e-07
1.3527e-07
8.19389e-08
9.49973e-08
8.62604e-08
6.08772e-08
9.64523e-08
7.21425e-08
6.84938e-08
1.06163e-07
7.51099e-08
8.1847e-08
1.19971e-07
7.10671e-08
8.29046e-08
1.33233e-07
7.94275e-08
8.56741e-08
1.23082e-07
8.72212e-08
8.76409e-08
1.01018e-07
1.04442e-07
9.63317e-08
9.68112e-08
1.25265e-07
1.02488e-07
9.98452e-08
1.11506e-07
1.01436e-07
1.05639e-07
9.98533e-08
1.15302e-07
1.02521e-07
8.86772e-08
1.31037e-07
1.04284e-07
9.25607e-08
1.35155e-07
8.83818e-08
8.69383e-08
1.1586e-07
7.07469e-08
8.87041e-08
8.51839e-08
5.58349e-08
9.76699e-08
7.75175e-08
6.52252e-08
1.01951e-07
7.17636e-08
7.9425e-08
1.06108e-07
6.31122e-08
7.93885e-08
1.09426e-07
7.26098e-08
7.37432e-08
9.37392e-08
7.42936e-08
6.55397e-08
8.20025e-08
9.15175e-08
7.41301e-08
7.86121e-08
1.06594e-07
8.69423e-08
8.75128e-08
1.00282e-07
8.69111e-08
9.7697e-08
9.55338e-08
1.06631e-07
1.08454e-07
9.04499e-08
1.19309e-07
1.12251e-07
9.84914e-08
1.26414e-07
1.01945e-07
9.3658e-08
1.03666e-07
7.42619e-08
9.31603e-08
8.23368e-08
3.14596e-05
3.07625e-05
3.02958e-05
3.95328e-05
2.9316e-05
3.0862e-05
3.05225e-05
2.97047e-05
3.02752e-05
2.94556e-05
2.81349e-05
2.67579e-05
2.52283e-05
2.4787e-05
2.27508e-05
2.44152e-05
2.42019e-05
2.50797e-05
2.76929e-05
3.2081e-05
3.41274e-05
3.16285e-05
2.77765e-05
2.55371e-05
2.39889e-05
2.45003e-05
2.42434e-05
2.50763e-05
2.70237e-05
2.67522e-05
2.72911e-05
2.7823e-05
2.94069e-05
3.40282e-05
3.48967e-05
3.30876e-05
2.73483e-05
2.48835e-05
2.65203e-05
2.69653e-05
3.16875e-05
3.10243e-05
3.04295e-05
3.98488e-05
2.95219e-05
3.10424e-05
3.07187e-05
2.99252e-05
3.04524e-05
2.95929e-05
2.83036e-05
2.69213e-05
2.5385e-05
2.49465e-05
2.28686e-05
2.45518e-05
2.43558e-05
2.52529e-05
2.78615e-05
3.22291e-05
3.43509e-05
3.18003e-05
2.78776e-05
2.56466e-05
2.40012e-05
2.46075e-05
2.43204e-05
2.51623e-05
2.71124e-05
2.68342e-05
2.7439e-05
2.79355e-05
2.9502e-05
3.41549e-05
3.49918e-05
3.32205e-05
2.74423e-05
2.49599e-05
2.66934e-05
2.71209e-05
3.22054e-05
3.16343e-05
3.07561e-05
4.04312e-05
2.99299e-05
3.14114e-05
3.11159e-05
3.03285e-05
3.08667e-05
2.98907e-05
2.86488e-05
2.72759e-05
2.56484e-05
2.5222e-05
2.31183e-05
2.48037e-05
2.46748e-05
2.5639e-05
2.82933e-05
3.26458e-05
3.47838e-05
3.21984e-05
2.82525e-05
2.60801e-05
2.41304e-05
2.49869e-05
2.45653e-05
2.54168e-05
2.74246e-05
2.70897e-05
2.7904e-05
2.82518e-05
2.97526e-05
3.45384e-05
3.53303e-05
3.35846e-05
2.77174e-05
2.51677e-05
2.6999e-05
2.75161e-05
3.28712e-05
3.21498e-05
3.1043e-05
4.07525e-05
3.03486e-05
3.1835e-05
3.14505e-05
3.06889e-05
3.12766e-05
3.03025e-05
2.90716e-05
2.76389e-05
2.58732e-05
2.54369e-05
2.33261e-05
2.50417e-05
2.50034e-05
2.60876e-05
2.89001e-05
3.30773e-05
3.52957e-05
3.27321e-05
2.87686e-05
2.66279e-05
2.42183e-05
2.52857e-05
2.47719e-05
2.56906e-05
2.78244e-05
2.74332e-05
2.8538e-05
2.87334e-05
3.00285e-05
3.49529e-05
3.57147e-05
3.40516e-05
2.81428e-05
2.54084e-05
2.73e-05
2.79173e-05
3.29439e-05
3.19964e-05
3.09283e-05
4.03407e-05
3.05008e-05
3.19597e-05
3.14417e-05
3.06688e-05
3.14171e-05
3.03216e-05
2.92325e-05
2.77788e-05
2.57668e-05
2.53146e-05
2.32942e-05
2.48806e-05
2.50743e-05
2.6353e-05
2.94671e-05
3.31655e-05
3.57715e-05
3.30304e-05
2.89668e-05
2.70145e-05
2.42118e-05
2.55249e-05
2.47377e-05
2.55898e-05
2.8055e-05
2.7708e-05
2.89136e-05
2.90171e-05
2.99755e-05
3.50725e-05
3.59165e-05
3.41825e-05
2.81128e-05
2.51468e-05
2.7243e-05
2.76475e-05
3.28781e-05
3.1374e-05
3.0358e-05
3.89588e-05
3.04835e-05
3.15861e-05
3.09235e-05
3.0428e-05
3.11342e-05
2.97654e-05
2.86981e-05
2.74108e-05
2.53636e-05
2.50006e-05
2.27612e-05
2.43249e-05
2.47029e-05
2.62211e-05
2.94777e-05
3.26644e-05
3.60926e-05
3.28789e-05
2.90728e-05
2.7576e-05
2.4357e-05
2.57987e-05
2.48738e-05
2.60644e-05
2.82989e-05
2.77244e-05
2.91453e-05
2.91303e-05
2.99171e-05
3.49788e-05
3.57598e-05
3.3896e-05
2.80334e-05
2.5183e-05
2.71749e-05
2.73007e-05
3.23125e-05
3.03234e-05
2.99462e-05
3.79521e-05
3.08958e-05
3.12704e-05
3.05753e-05
3.0214e-05
3.06779e-05
2.86724e-05
2.73783e-05
2.628e-05
2.4713e-05
2.43228e-05
2.1863e-05
2.33122e-05
2.43063e-05
2.61124e-05
2.90611e-05
3.16766e-05
3.51124e-05
3.14793e-05
2.86123e-05
2.79054e-05
2.48506e-05
2.62533e-05
2.51477e-05
2.62673e-05
2.84836e-05
2.74944e-05
2.86177e-05
2.84303e-05
2.9595e-05
3.45857e-05
3.54959e-05
3.32737e-05
2.77583e-05
2.50976e-05
2.6745e-05
2.70089e-05
3.13475e-05
2.92929e-05
2.93537e-05
3.6182e-05
3.02778e-05
3.08304e-05
3.01767e-05
2.97063e-05
2.96362e-05
2.73011e-05
2.56257e-05
2.49491e-05
2.40028e-05
2.34568e-05
2.10701e-05
2.23806e-05
2.40916e-05
2.56605e-05
2.80679e-05
2.99649e-05
3.25776e-05
2.92034e-05
2.78636e-05
2.77721e-05
2.56666e-05
2.62866e-05
2.52434e-05
2.6592e-05
2.83859e-05
2.67701e-05
2.72958e-05
2.6649e-05
2.82485e-05
3.30128e-05
3.41457e-05
3.17798e-05
2.65469e-05
2.42448e-05
2.55703e-05
2.66824e-05
2.92513e-05
2.7169e-05
2.77998e-05
3.38915e-05
2.87409e-05
2.93897e-05
2.88882e-05
2.82493e-05
2.78449e-05
2.57337e-05
2.36757e-05
2.34497e-05
2.28514e-05
2.19951e-05
1.97402e-05
2.09161e-05
2.30639e-05
2.45063e-05
2.65975e-05
2.8214e-05
2.97339e-05
2.67711e-05
2.6406e-05
2.64962e-05
2.5344e-05
2.50944e-05
2.42908e-05
2.54469e-05
2.68724e-05
2.44739e-05
2.43008e-05
2.38323e-05
2.55031e-05
2.97488e-05
3.11206e-05
2.90069e-05
2.40714e-05
2.22693e-05
2.34098e-05
2.52102e-05
2.58647e-05
2.34193e-05
2.43179e-05
2.92462e-05
2.54733e-05
2.62443e-05
2.59158e-05
2.5185e-05
2.47216e-05
2.32443e-05
2.12911e-05
2.14074e-05
2.11311e-05
1.99478e-05
1.77254e-05
1.86387e-05
2.09669e-05
2.25745e-05
2.46659e-05
2.65292e-05
2.68852e-05
2.40658e-05
2.38392e-05
2.4034e-05
2.35064e-05
2.27002e-05
2.21808e-05
2.28872e-05
2.38155e-05
2.12641e-05
2.04218e-05
2.02591e-05
2.19302e-05
2.57561e-05
2.69419e-05
2.5121e-05
2.08674e-05
1.93875e-05
2.03997e-05
2.25313e-05
2.19437e-05
1.91637e-05
2.01509e-05
2.3879e-05
2.13761e-05
2.22233e-05
2.20766e-05
2.12363e-05
2.0777e-05
1.98832e-05
1.82312e-05
1.85859e-05
1.88105e-05
1.75688e-05
1.54091e-05
1.60103e-05
1.81153e-05
1.97672e-05
2.20408e-05
2.41315e-05
2.40733e-05
2.11829e-05
2.06345e-05
2.08527e-05
2.05648e-05
1.97636e-05
1.93563e-05
1.96513e-05
2.01536e-05
1.78966e-05
1.67215e-05
1.65643e-05
1.81505e-05
2.15039e-05
2.26935e-05
2.09877e-05
1.74774e-05
1.6316e-05
1.71791e-05
1.94414e-05
1.80408e-05
1.56299e-05
1.62655e-05
1.91059e-05
1.77157e-05
1.8406e-05
1.82754e-05
1.73257e-05
1.6767e-05
1.64188e-05
1.53616e-05
1.57943e-05
1.62657e-05
1.50431e-05
1.30643e-05
1.34627e-05
1.51224e-05
1.60413e-05
1.7954e-05
2.00719e-05
2.02765e-05
1.78717e-05
1.71214e-05
1.73291e-05
1.70893e-05
1.65068e-05
1.64593e-05
1.63769e-05
1.6509e-05
1.48006e-05
1.38739e-05
1.3549e-05
1.47062e-05
1.73022e-05
1.86456e-05
1.75178e-05
1.46844e-05
1.35624e-05
1.40462e-05
1.61649e-05
1.43012e-05
1.25839e-05
1.28441e-05
1.5092e-05
1.4558e-05
1.48376e-05
1.46584e-05
1.3522e-05
1.279e-05
1.28885e-05
1.26296e-05
1.30448e-05
1.35014e-05
1.23788e-05
1.05112e-05
1.07515e-05
1.20934e-05
1.22477e-05
1.36632e-05
1.5627e-05
1.61489e-05
1.44146e-05
1.37928e-05
1.38628e-05
1.34556e-05
1.29626e-05
1.30594e-05
1.25961e-05
1.2337e-05
1.13955e-05
1.14072e-05
1.11751e-05
1.17201e-05
1.35598e-05
1.48062e-05
1.43877e-05
1.22587e-05
1.10715e-05
1.1183e-05
1.29146e-05
1.06225e-05
9.44032e-06
9.64929e-06
1.13998e-05
1.14267e-05
1.13858e-05
1.11946e-05
1.01042e-05
9.28095e-06
9.49431e-06
9.84716e-06
1.02063e-05
1.06697e-05
9.89409e-06
8.11397e-06
8.03361e-06
8.96361e-06
8.83117e-06
9.85394e-06
1.16439e-05
1.21981e-05
1.08719e-05
1.03783e-05
1.0395e-05
9.93644e-06
9.70573e-06
9.95547e-06
9.39843e-06
8.93155e-06
8.50099e-06
9.03981e-06
8.87831e-06
8.83089e-06
9.96932e-06
1.1217e-05
1.12338e-05
9.85012e-06
8.68268e-06
8.48194e-06
9.72053e-06
7.70514e-06
6.8697e-06
7.02807e-06
8.21239e-06
8.47098e-06
8.40216e-06
8.26581e-06
7.39988e-06
6.60452e-06
6.80039e-06
7.3578e-06
7.65142e-06
8.02469e-06
7.71912e-06
6.24339e-06
5.92574e-06
6.50174e-06
6.19759e-06
6.84044e-06
8.48738e-06
9.07993e-06
8.10589e-06
7.64716e-06
7.5694e-06
7.15828e-06
7.16044e-06
7.52581e-06
7.04952e-06
6.37253e-06
6.19366e-06
6.94025e-06
6.87328e-06
6.49646e-06
7.20611e-06
8.32997e-06
8.43472e-06
7.58313e-06
6.4883e-06
6.12578e-06
7.06144e-06
5.58128e-06
4.97679e-06
5.02403e-06
5.74378e-06
6.05607e-06
6.03599e-06
5.93397e-06
5.32347e-06
4.586e-06
4.79948e-06
5.47894e-06
5.65093e-06
5.76933e-06
5.72716e-06
4.60317e-06
4.31078e-06
4.73368e-06
4.3085e-06
4.6143e-06
6.0247e-06
6.61272e-06
5.93056e-06
5.52215e-06
5.35566e-06
5.00681e-06
5.05217e-06
5.54453e-06
5.21405e-06
4.49497e-06
4.42603e-06
5.15761e-06
5.23028e-06
4.75289e-06
5.18272e-06
6.1225e-06
6.26736e-06
5.80033e-06
4.85971e-06
4.35058e-06
5.13674e-06
3.91339e-06
3.45804e-06
3.51976e-06
3.82974e-06
4.04626e-06
4.126e-06
4.08502e-06
3.69665e-06
3.05604e-06
3.25942e-06
3.97449e-06
4.06192e-06
4.03426e-06
4.11724e-06
3.25045e-06
3.02057e-06
3.38059e-06
2.9236e-06
2.97832e-06
4.03298e-06
4.55349e-06
4.11617e-06
3.84136e-06
3.68874e-06
3.40547e-06
3.41629e-06
3.91732e-06
3.7239e-06
3.05702e-06
3.02694e-06
3.63823e-06
3.77389e-06
3.35988e-06
3.64397e-06
4.41578e-06
4.53514e-06
4.29161e-06
3.57616e-06
3.04912e-06
3.67643e-06
2.60735e-06
2.2847e-06
2.4633e-06
2.56755e-06
2.65841e-06
2.80708e-06
2.77716e-06
2.53583e-06
2.00099e-06
2.15765e-06
2.85425e-06
2.8612e-06
2.77754e-06
2.97265e-06
2.30337e-06
2.07521e-06
2.35487e-06
1.90918e-06
1.85462e-06
2.61085e-06
3.03322e-06
2.7858e-06
2.60873e-06
2.51329e-06
2.2865e-06
2.23938e-06
2.67461e-06
2.56499e-06
1.98737e-06
1.97962e-06
2.40949e-06
2.51539e-06
2.23586e-06
2.44263e-06
3.04415e-06
3.03673e-06
2.87708e-06
2.42775e-06
2.03926e-06
2.5367e-06
1.7079e-06
1.45076e-06
1.68585e-06
1.69387e-06
1.69522e-06
1.881e-06
1.8818e-06
1.70997e-06
1.27721e-06
1.39332e-06
2.03581e-06
2.01115e-06
1.86658e-06
2.10247e-06
1.61023e-06
1.39155e-06
1.61495e-06
1.22122e-06
1.14166e-06
1.6801e-06
1.98529e-06
1.85534e-06
1.73778e-06
1.68885e-06
1.51303e-06
1.43491e-06
1.78051e-06
1.74533e-06
1.26994e-06
1.2518e-06
1.55831e-06
1.63571e-06
1.42627e-06
1.57242e-06
2.04264e-06
1.94622e-06
1.816e-06
1.59819e-06
1.34757e-06
1.73611e-06
1.1414e-06
9.11186e-07
1.13688e-06
1.11186e-06
1.05108e-06
1.23139e-06
1.25335e-06
1.14012e-06
8.07697e-07
8.80969e-07
1.45811e-06
1.42313e-06
1.22545e-06
1.47098e-06
1.12519e-06
9.24136e-07
1.1052e-06
7.79979e-07
7.03137e-07
1.09128e-06
1.28743e-06
1.22371e-06
1.13253e-06
1.09745e-06
9.78483e-07
8.98165e-07
1.14307e-06
1.16834e-06
8.0102e-07
7.89444e-07
1.02333e-06
1.08299e-06
9.11306e-07
9.96315e-07
1.3709e-06
1.27466e-06
1.1592e-06
1.08688e-06
8.94026e-07
1.19292e-06
7.8366e-07
5.73619e-07
7.65086e-07
7.31849e-07
6.3377e-07
7.94834e-07
8.23313e-07
7.65701e-07
5.21001e-07
5.4588e-07
1.0434e-06
1.01125e-06
7.90759e-07
1.01749e-06
7.93611e-07
6.20775e-07
7.73369e-07
5.03176e-07
4.31665e-07
7.21616e-07
8.3058e-07
8.1397e-07
7.47891e-07
7.08786e-07
6.3005e-07
5.73829e-07
7.23395e-07
7.77528e-07
5.03074e-07
4.9496e-07
6.78884e-07
7.34251e-07
5.93366e-07
6.23008e-07
9.20395e-07
8.54353e-07
7.54678e-07
7.65955e-07
5.95741e-07
8.20026e-07
5.64781e-07
3.70897e-07
5.21801e-07
4.90464e-07
3.65873e-07
5.07268e-07
5.31655e-07
5.17151e-07
3.5617e-07
3.43077e-07
7.51849e-07
7.2494e-07
5.0161e-07
7.03191e-07
5.69433e-07
4.21065e-07
5.56073e-07
3.35128e-07
2.70366e-07
4.94047e-07
5.30678e-07
5.42383e-07
5.04459e-07
4.58409e-07
4.01586e-07
3.80054e-07
4.55108e-07
5.15015e-07
3.24284e-07
3.17809e-07
4.59228e-07
5.06236e-07
4.02392e-07
3.94323e-07
6.19681e-07
5.84748e-07
4.97861e-07
5.48692e-07
3.95961e-07
5.69176e-07
4.26868e-07
2.47323e-07
3.64096e-07
3.44901e-07
2.11209e-07
3.27173e-07
3.4333e-07
3.52581e-07
2.66736e-07
2.28043e-07
5.42108e-07
5.23531e-07
3.19009e-07
4.94934e-07
4.18736e-07
2.92789e-07
4.20261e-07
2.4051e-07
1.76172e-07
3.5148e-07
3.42459e-07
3.65545e-07
3.62596e-07
3.05144e-07
2.64913e-07
2.69485e-07
2.96996e-07
3.47519e-07
2.20124e-07
2.16999e-07
3.22784e-07
3.59661e-07
2.95133e-07
2.6305e-07
4.22206e-07
4.13724e-07
3.43311e-07
4.05168e-07
2.67416e-07
3.96705e-07
3.36463e-07
1.74377e-07
2.6546e-07
2.61415e-07
1.28056e-07
2.16822e-07
2.25443e-07
2.39515e-07
2.13659e-07
1.6814e-07
3.97244e-07
3.80703e-07
2.07173e-07
3.59629e-07
3.15665e-07
2.11134e-07
3.31424e-07
1.89485e-07
1.24082e-07
2.63835e-07
2.30983e-07
2.51294e-07
2.78312e-07
2.15382e-07
1.87666e-07
2.03353e-07
2.08425e-07
2.45833e-07
1.63721e-07
1.63157e-07
2.4092e-07
2.64257e-07
2.35567e-07
1.94234e-07
2.95309e-07
3.04863e-07
2.49159e-07
3.07896e-07
1.84601e-07
2.7339e-07
2.7266e-07
1.3302e-07
1.96268e-07
2.11612e-07
9.12939e-08
1.53051e-07
1.55411e-07
1.64747e-07
1.73957e-07
1.33843e-07
2.95811e-07
2.75236e-07
1.40795e-07
2.71594e-07
2.41635e-07
1.55097e-07
2.70564e-07
1.60533e-07
9.46701e-08
2.08995e-07
1.65271e-07
1.76305e-07
2.23395e-07
1.64369e-07
1.48934e-07
1.6473e-07
1.59405e-07
1.8458e-07
1.34193e-07
1.35343e-07
1.94332e-07
2.01364e-07
1.98243e-07
1.62146e-07
2.15222e-07
2.33404e-07
1.91028e-07
2.40598e-07
1.34045e-07
1.85065e-07
2.221e-07
1.13024e-07
1.45204e-07
1.78326e-07
7.95098e-08
1.14344e-07
1.15215e-07
1.20409e-07
1.37488e-07
1.08916e-07
2.27945e-07
1.97106e-07
1.01606e-07
2.16962e-07
1.87128e-07
1.15149e-07
2.24862e-07
1.41708e-07
7.77068e-08
1.7428e-07
1.30361e-07
1.29884e-07
1.82865e-07
1.34836e-07
1.28707e-07
1.42982e-07
1.34387e-07
1.49331e-07
1.19616e-07
1.22336e-07
1.68781e-07
1.6103e-07
1.72327e-07
1.51094e-07
1.63737e-07
1.88096e-07
1.56227e-07
1.90361e-07
1.0672e-07
1.24366e-07
1.73781e-07
1.04746e-07
1.06633e-07
1.48003e-07
8.02219e-08
8.87921e-08
9.09598e-08
9.94172e-08
1.05405e-07
8.69829e-08
1.83308e-07
1.41998e-07
7.7644e-08
1.83283e-07
1.46061e-07
8.78596e-08
1.85104e-07
1.26806e-07
7.02935e-08
1.5276e-07
1.16094e-07
1.0267e-07
1.49949e-07
1.15632e-07
1.17568e-07
1.30926e-07
1.2124e-07
1.29759e-07
1.10275e-07
1.15194e-07
1.56204e-07
1.36275e-07
1.52295e-07
1.50144e-07
1.30211e-07
1.60246e-07
1.39886e-07
1.508e-07
9.56611e-08
8.50689e-08
1.27778e-07
1.00844e-07
8.01522e-08
1.16959e-07
8.65538e-08
7.20111e-08
7.56261e-08
9.65808e-08
8.31971e-08
7.16529e-08
1.57302e-07
1.09043e-07
6.77876e-08
1.62225e-07
1.19965e-07
7.60634e-08
1.53212e-07
1.15891e-07
7.25564e-08
1.38606e-07
1.15066e-07
9.19245e-08
1.2693e-07
1.03216e-07
1.09972e-07
1.21623e-07
1.13428e-07
1.21422e-07
1.02661e-07
1.086e-07
1.50765e-07
1.21981e-07
1.36466e-07
1.54142e-07
1.09483e-07
1.42279e-07
1.38349e-07
1.19382e-07
9.69105e-08
6.8184e-08
9.05595e-08
9.99382e-08
6.73082e-08
8.94382e-08
9.60422e-08
6.62155e-08
6.98433e-08
1.06428e-07
7.32657e-08
6.81891e-08
1.45963e-07
9.25931e-08
7.24258e-08
1.49025e-07
1.06472e-07
8.07225e-08
1.31017e-07
1.1113e-07
8.25457e-08
1.2597e-07
1.19852e-07
9.23226e-08
1.12937e-07
9.94877e-08
1.04247e-07
1.14611e-07
1.08108e-07
1.19627e-07
9.80592e-08
1.01351e-07
1.46381e-07
1.1276e-07
1.22093e-07
1.57118e-07
9.7289e-08
1.25969e-07
1.42428e-07
9.6782e-08
1.01295e-07
7.15849e-08
6.92585e-08
1.03348e-07
6.84584e-08
7.29335e-08
1.07072e-07
7.12008e-08
7.33497e-08
1.19064e-07
7.24837e-08
7.30672e-08
1.39993e-07
8.44987e-08
8.17524e-08
1.36788e-07
9.76845e-08
9.03439e-08
1.15545e-07
1.10206e-07
9.35399e-08
1.1095e-07
1.24728e-07
9.77332e-08
1.0621e-07
1.061e-07
1.02356e-07
1.11139e-07
1.05088e-07