/*--------------------------------*- C++ -*----------------------------------*\
  =========                 |
  \\      /  F ield         | OpenFOAM: The Open Source CFD Toolbox
   \\    /   O peration     | Website:  https://openfoam.org
    \\  /    A nd           | Version:  10
     \\/     M anipulation  |
\*---------------------------------------------------------------------------*/
FoamFile
{
    format      ascii;
    class       volVectorField;
    location    "13";
    object      U_0;
}
// * * * * * * * * * * * * * * * * * * * * * * * * * * * * * * * * * * * * * //

dimensions      [0 1 -1 0 0 0 0];

internalField   nonuniform List<vector> 
25600
(
(0.043322 0.000186903 -0.00694872)
(0.0430117 4.87797e-05 0.000138304)
(0.0470946 -0.000141212 -0.000806993)
(0.0479743 0.000119179 -0.00552824)
(0.0455986 0.000145934 -0.010429)
(0.0496054 6.66191e-05 -0.00828115)
(0.0587578 0.000253894 -0.00555147)
(0.0607297 0.000199478 0.0109583)
(0.0602822 -7.43888e-05 0.0247001)
(0.0580713 -0.000480264 0.0116794)
(0.0599555 -0.000178264 -0.00146881)
(0.0666428 0.0008866 0.00649378)
(0.0866635 0.000443729 0.0119026)
(0.0986123 -0.000292655 0.00698869)
(0.0970828 -0.000505405 0.00735658)
(0.0866864 -7.20825e-05 0.00783384)
(0.0733169 -0.000332507 0.000640534)
(0.0550932 -0.000493585 0.00204473)
(0.0463616 9.23996e-06 -0.000706635)
(0.0513188 4.48153e-06 -0.00402186)
(0.0630237 -4.60691e-05 -0.00234693)
(0.0564973 -5.88972e-05 -0.0125644)
(0.0581271 -0.000442388 -0.0126285)
(0.0634255 -0.000296604 0.00365796)
(0.0652563 0.000182044 0.00555408)
(0.0566818 0.000271989 0.0116853)
(0.0494872 -1.23663e-05 0.0228273)
(0.0454272 -0.000349087 0.0109707)
(0.0487765 9.21031e-06 0.00888733)
(0.0437008 0.000363348 0.00835927)
(0.0389284 -0.000199644 -0.0180196)
(0.047763 -0.000238857 -0.0299671)
(0.0459696 0.00048979 -0.00345473)
(0.0376197 0.000356924 0.0192478)
(0.0440256 -0.00058746 0.00908165)
(0.0519294 -0.000411921 -0.000984931)
(0.0482348 0.00019492 -0.00447545)
(0.0438159 0.000400462 -0.0010755)
(0.0429844 0.000193255 -0.00869675)
(0.0418934 2.23193e-05 -0.0180257)
(0.125905 0.00164773 -0.0106883)
(0.130895 0.000445063 0.00169741)
(0.145611 2.05223e-05 -0.0055324)
(0.150586 0.000874255 -0.0230382)
(0.146072 0.000544605 -0.0307501)
(0.147665 0.000387045 -0.0201498)
(0.172335 0.00129965 -0.0034316)
(0.184415 0.000869147 0.0312621)
(0.192431 -0.000872325 0.0506744)
(0.177662 -0.00158856 0.027149)
(0.163015 0.00189116 0.00783815)
(0.182141 0.00390595 0.0277884)
(0.263716 -0.000741722 0.0397795)
(0.31864 -0.00294853 0.0304362)
(0.304582 -0.00219439 0.0237942)
(0.273295 0.00034064 0.0147311)
(0.244912 -0.0016229 -0.00218651)
(0.178319 -0.00184104 -6.48008e-05)
(0.141785 0.000581766 -0.000829232)
(0.148074 2.22348e-05 0.0018871)
(0.18724 -0.000615329 -0.00256729)
(0.181827 -0.00137502 -0.0342089)
(0.180056 -0.00319059 -0.0304938)
(0.182147 -0.00156816 0.00460703)
(0.194014 0.000797908 0.0104901)
(0.186042 0.000934777 0.0311028)
(0.171961 -0.000617315 0.0523968)
(0.150267 -0.00226449 0.0218339)
(0.144964 -0.000395925 0.0117022)
(0.132782 0.000746711 -0.000521719)
(0.12244 -0.000419704 -0.0460497)
(0.136048 0.000505101 -0.0514412)
(0.138073 0.00181713 0.00471323)
(0.130895 -2.87957e-05 0.0372939)
(0.139673 -0.00229571 0.0102167)
(0.148557 -0.000355409 -0.00809957)
(0.138307 0.00185279 -0.00740802)
(0.134979 0.00223157 0.000127855)
(0.142046 0.00249712 -0.0286266)
(0.128447 0.00237231 -0.0433321)
(0.210971 0.00407847 -0.0165181)
(0.218211 0.000945973 0.00571525)
(0.242976 0.000649405 -0.00366366)
(0.261213 0.00237447 -0.0354147)
(0.261762 0.0011977 -0.0507454)
(0.24243 0.000652045 -0.038763)
(0.278394 0.00209502 -0.0120365)
(0.307873 0.00107041 0.0405796)
(0.33724 -0.00191199 0.0642529)
(0.304442 -0.00261186 0.0357437)
(0.261298 0.00569185 0.0188142)
(0.284581 0.00795243 0.0542086)
(0.409178 -0.00474752 0.0731394)
(0.541254 -0.0088031 0.0611972)
(0.521984 -0.00481378 0.0544141)
(0.478349 0.00117672 0.0317171)
(0.462761 -0.00222533 0.00154966)
(0.341846 -0.00232562 -0.00570489)
(0.262778 0.00196711 -0.00775882)
(0.237777 0.000489032 0.0118045)
(0.298242 -0.00144502 0.0173052)
(0.324144 -0.00342122 -0.0311077)
(0.31228 -0.00665272 -0.0450914)
(0.287144 -0.00303996 -0.0122169)
(0.315653 0.000566211 -0.0072468)
(0.332054 0.000345147 0.022699)
(0.331055 -0.00200164 0.0653615)
(0.290279 -0.0043257 0.0362609)
(0.259438 -0.000746809 0.0170517)
(0.234301 -0.000135169 -0.0125733)
(0.207239 -0.00185168 -0.0653162)
(0.219104 0.00199632 -0.065061)
(0.238991 0.00342669 0.00856617)
(0.24037 -0.0015608 0.0523811)
(0.235137 -0.00420054 0.0135016)
(0.246476 0.00101382 -0.0189392)
(0.231232 0.00482583 -0.0132386)
(0.226935 0.00448262 0.00518415)
(0.253403 0.00618992 -0.0406442)
(0.224023 0.00709524 -0.0650167)
(0.304809 0.00763235 -0.0310149)
(0.304728 0.000705489 0.0119109)
(0.328166 0.000738982 0.0126808)
(0.362565 0.0042277 -0.0322645)
(0.392325 0.00248483 -0.0650735)
(0.344326 0.00105624 -0.0625952)
(0.3705 0.00192426 -0.0434659)
(0.407714 -0.000683307 0.0298662)
(0.477407 -0.00354177 0.0691489)
(0.437641 -0.00386083 0.0292539)
(0.361953 0.00958735 0.0205838)
(0.394359 0.013838 0.0816223)
(0.4814 -0.0101702 0.0950038)
(0.711529 -0.0198195 0.0604852)
(0.71979 -0.0102451 0.0739478)
(0.665335 0.000657191 0.0642133)
(0.6967 -0.00151506 0.0230778)
(0.546514 -0.000703311 0.000319515)
(0.434285 0.00447193 -0.0227669)
(0.350997 0.00226134 0.00146041)
(0.384684 -0.0028328 0.0409851)
(0.456595 -0.0061629 0.00405905)
(0.456539 -0.00902676 -0.0301534)
(0.387852 -0.00387702 -0.0265396)
(0.415649 -0.00135301 -0.0479594)
(0.45191 -0.00317491 -0.0328276)
(0.498576 -0.00570602 0.0408155)
(0.470408 -0.00631736 0.0455648)
(0.413851 0.000547525 0.039115)
(0.373225 -0.00164677 -0.00358325)
(0.302142 -0.00743628 -0.0819749)
(0.294848 0.00235859 -0.0838651)
(0.340811 0.00581174 0.00193213)
(0.371572 -0.00459409 0.0638766)
(0.330222 -0.00842235 0.0285669)
(0.343691 0.0026128 -0.0281913)
(0.326798 0.009443 -0.0269128)
(0.309552 0.00640331 0.0159037)
(0.366271 0.00944216 -0.0383402)
(0.33484 0.0140972 -0.0871181)
(0.420849 0.0128483 -0.0595902)
(0.408193 -0.000540244 0.00629678)
(0.411881 -0.00113704 0.0386027)
(0.428904 0.00429446 -0.00530079)
(0.509347 0.00282272 -0.0633507)
(0.462225 0.00195838 -0.0751012)
(0.473754 0.00239534 -0.082641)
(0.465316 -0.00525775 -0.00999225)
(0.580431 -0.00816893 0.0606265)
(0.568834 -0.00583413 0.011438)
(0.457892 0.0111943 0.0051772)
(0.519357 0.0200046 0.0876477)
(0.495693 -0.0132165 0.0840906)
(0.754071 -0.0350753 0.00710046)
(0.863087 -0.0208096 0.0210035)
(0.793204 -0.00414882 0.0682828)
(0.883511 -0.0014159 0.0471802)
(0.739493 0.00247731 0.0274579)
(0.646409 0.00746171 -0.0200726)
(0.523717 0.00670581 -0.0291078)
(0.494547 -0.00294537 0.0271023)
(0.570079 -0.0113033 0.0239267)
(0.586679 -0.00861016 0.00693101)
(0.498752 -0.00102909 -0.0039346)
(0.524804 -0.00465003 -0.0573832)
(0.542582 -0.0114435 -0.0943516)
(0.603749 -0.016174 -0.0290004)
(0.632117 -0.0119356 0.0128668)
(0.595509 0.00360751 0.0549549)
(0.580536 0.0013279 0.0483018)
(0.460622 -0.015364 -0.0664057)
(0.374926 -0.00106401 -0.105027)
(0.432307 0.00876276 -0.0210336)
(0.521706 -0.00723484 0.0529757)
(0.445154 -0.0162069 0.0464967)
(0.432727 0.00198209 -0.0268932)
(0.421632 0.0155667 -0.0488047)
(0.376097 0.00855731 0.0269603)
(0.456004 0.00962778 -0.0153211)
(0.453529 0.0214443 -0.103952)
(0.556877 0.0192951 -0.100326)
(0.540099 -0.000731805 -0.0310874)
(0.529822 -0.00353536 0.0431302)
(0.490978 0.00123189 0.0396407)
(0.602696 -0.00160549 -0.0373308)
(0.561834 -0.000473317 -0.0713334)
(0.617108 0.0034792 -0.0972704)
(0.541392 -0.00801821 -0.0552203)
(0.634913 -0.0160891 0.027499)
(0.713077 -0.0103967 0.00558888)
(0.531026 0.00917639 -0.0096541)
(0.614504 0.0259726 0.0415682)
(0.558959 -0.00928141 0.036355)
(0.702096 -0.0504649 -0.0214952)
(0.922046 -0.0340673 -0.0544383)
(0.846855 -0.0162867 0.00475714)
(0.996 -0.00688433 0.0304333)
(0.857118 0.00535189 0.0427409)
(0.817998 0.00798787 0.0133168)
(0.730002 0.0127099 -0.0343855)
(0.643987 0.00142515 -0.00148963)
(0.723954 -0.0188079 -0.00335171)
(0.70705 -0.00880871 0.00230268)
(0.601771 0.00765169 0.0313147)
(0.647154 -0.00344779 -0.0029154)
(0.677294 -0.0195373 -0.0635927)
(0.684729 -0.0317085 -0.0421561)
(0.690212 -0.0275189 -0.0457759)
(0.70478 0.000471335 0.0211906)
(0.805899 0.00765267 0.0990949)
(0.718787 -0.0158399 0.00891864)
(0.505943 -0.00541762 -0.097287)
(0.516106 0.0108643 -0.0547898)
(0.658741 -0.00769766 0.00700077)
(0.588547 -0.024632 0.043205)
(0.514967 -0.0016003 -0.0128568)
(0.502423 0.0212485 -0.0720336)
(0.434783 0.0116362 0.0246175)
(0.499424 0.00564723 0.031221)
(0.546122 0.0249385 -0.101065)
(0.669998 0.0231059 -0.136729)
(0.670206 0.00245709 -0.0880942)
(0.674745 -0.00297136 -0.00270134)
(0.593847 -0.00416157 0.0695782)
(0.729602 -0.011755 0.0361733)
(0.653248 -0.0105435 -0.0403289)
(0.755485 -0.000190391 -0.0864528)
(0.709952 -0.00676487 -0.0699524)
(0.681553 -0.02352 -0.0191924)
(0.887896 -0.0164145 0.0278561)
(0.593847 0.00472765 0.00186152)
(0.641195 0.0274369 -0.0559943)
(0.691051 -0.000739298 -0.0401964)
(0.730292 -0.0580647 -0.00324962)
(0.933957 -0.0463129 -0.0484475)
(0.833982 -0.0317105 -0.040386)
(1.02626 -0.0213115 -0.00165354)
(0.929841 0.00533114 0.0276151)
(0.869787 -3.1302e-05 0.0419589)
(0.892818 0.0129747 -0.0110191)
(0.782722 0.0113554 0.00824822)
(0.881475 -0.0199917 -0.00110102)
(0.867152 -0.0116123 -0.0434508)
(0.707224 0.0141621 0.0292485)
(0.748651 0.00289187 0.0413553)
(0.788039 -0.0143973 -0.00117509)
(0.821187 -0.0309733 0.0444201)
(0.747606 -0.03781 -0.0397668)
(0.679076 -0.0119731 -0.0446271)
(0.904421 0.00277073 0.0927657)
(0.978333 -0.0121365 0.0822161)
(0.699604 -0.00423673 -0.0404703)
(0.616438 0.0131542 -0.0701409)
(0.771493 -0.00654833 -0.0525785)
(0.730442 -0.0284556 0.00786689)
(0.601133 -0.00716095 0.00675905)
(0.579904 0.0245927 -0.096876)
(0.526359 0.0175349 -0.0197692)
(0.519202 -0.000252304 0.0832907)
(0.571944 0.0193569 -0.064353)
(0.685072 0.0156839 -0.128656)
(0.722748 0.00140236 -0.102561)
(0.811288 -0.000512475 -0.0561373)
(0.711842 -0.00752011 0.0384974)
(0.828993 -0.0217937 0.112086)
(0.76603 -0.022224 0.0558508)
(0.827341 -0.0182506 -0.0301638)
(0.92413 -0.0093939 -0.0552142)
(0.772902 -0.0259582 -0.049301)
(0.994825 -0.0208804 0.0519773)
(0.731786 0.00592272 0.0368193)
(0.670627 0.0147028 -0.129365)
(0.758648 -0.00368065 -0.114995)
(0.787076 -0.056142 -0.00567557)
(0.950502 -0.0499959 -0.0239167)
(0.818843 -0.0407718 -0.0357931)
(0.953761 -0.0410341 -0.00616863)
(0.998275 0.00597364 0.023278)
(0.870442 -0.00520036 0.0504599)
(0.928632 -0.00525657 -0.00366274)
(0.871566 0.00941584 0.0228955)
(0.927512 -0.019214 0.0576745)
(1.0095 -0.0119556 -0.0577201)
(0.847786 0.0162411 0.00111676)
(0.86644 0.00360999 0.0476734)
(0.829274 -0.00901296 -0.0197819)
(0.879906 -0.0198073 0.0905638)
(0.865741 -0.0280773 0.0262785)
(0.667756 -0.0140871 -0.0940714)
(0.816769 -0.014 0.0259829)
(1.08101 -0.0207473 0.0929067)
(0.886344 -0.000684704 0.0158534)
(0.716241 0.0132315 -0.0348235)
(0.889597 -0.00610475 -0.052843)
(0.883939 -0.0226218 -0.0422193)
(0.691848 -0.00906708 0.0220887)
(0.626345 0.0203053 -0.0933794)
(0.635377 0.0220464 -0.0928834)
(0.612324 -0.00242468 0.0893489)
(0.550701 0.00830071 -0.0010217)
(0.668619 0.0132301 -0.0452195)
(0.685665 -0.00080864 -0.0291017)
(0.877213 -0.00446061 -0.030757)
(0.86847 -0.00715566 0.00569849)
(0.880315 -0.027476 0.0899865)
(0.845998 -0.0228717 0.118486)
(0.805264 -0.0389882 0.0630164)
(1.04958 -0.0297948 -0.0149427)
(0.930722 -0.0260486 -0.0435134)
(1.00003 -0.0231202 0.0474907)
(0.858353 0.0081261 0.0657874)
(0.807621 0.00610887 -0.104957)
(0.815627 -0.00846468 -0.137801)
(0.79671 -0.0524506 0.00122663)
(0.969536 -0.0455948 -0.00535228)
(0.876962 -0.0336617 -0.0404605)
(0.856897 -0.0628075 -0.0226993)
(1.02455 -0.00563616 0.0333139)
(0.938798 0.00528662 0.0692362)
(0.913489 -0.01425 -0.0172695)
(0.895892 -0.00443186 -0.00556809)
(0.885017 -0.0266531 0.0936188)
(1.01079 -0.0206493 -0.0325996)
(0.952918 0.009893 -0.0230364)
(0.996786 -0.00223232 0.0545526)
(0.909937 -0.00591645 -0.0577309)
(0.90131 -0.014684 0.0590716)
(0.942266 -0.0157276 0.0914206)
(0.730527 -0.000172369 -0.105607)
(0.724728 -0.020964 -0.0631523)
(1.01689 -0.0389384 0.0584697)
(1.01111 -0.00178195 0.0215592)
(0.791643 0.0113651 -0.00557249)
(0.936354 -0.0143036 0.0376537)
(1.02885 -0.0139364 -0.0482395)
(0.85348 -0.000330605 -0.00126691)
(0.633267 0.0204308 -0.0205654)
(0.675108 0.0199239 -0.0787713)
(0.761853 -0.000263086 0.0771395)
(0.576656 0.0071357 0.0681902)
(0.735258 0.0142594 0.0427682)
(0.726466 -0.00110709 0.0268524)
(0.87106 -0.0151563 0.0109935)
(0.970177 -0.00941853 0.0271426)
(0.978067 -0.0266798 0.0460724)
(0.925783 -0.0163769 0.0826261)
(0.800054 -0.0417176 0.0880915)
(1.02625 -0.055962 0.00332901)
(1.02928 -0.0300197 -0.0324599)
(1.01188 -0.0261457 0.0302945)
(0.887311 0.00571148 0.0670835)
(0.879874 0.00284222 -0.0363049)
(0.893504 -0.00885048 -0.125093)
(0.826433 -0.0483371 -0.0135536)
(0.98751 -0.0473458 0.0232961)
(0.991305 -0.0155234 -0.0255745)
(0.878258 -0.060126 -0.0397843)
(0.9995 -0.0362289 0.00994734)
(1.02009 0.00542835 0.0952133)
(0.957817 -0.00697777 0.0131167)
(0.931822 -0.00662344 -0.054313)
(0.883632 -0.0242672 0.0735705)
(0.965609 -0.0242472 0.0040638)
(0.989636 -0.00476478 -0.0425687)
(1.09126 -0.0154467 0.0639462)
(0.981683 -0.00421914 -0.0641991)
(0.93398 -0.0113923 -0.00811029)
(0.987202 -0.00799721 0.135504)
(0.829615 0.0179827 -0.0565247)
(0.776816 -0.0133206 -0.113661)
(0.966485 -0.0512888 0.0183998)
(1.07893 -0.00612798 0.00970927)
(0.872054 0.012135 -0.0290408)
(0.943569 -0.0237601 0.0928828)
(1.04593 -0.00837934 0.0123412)
(0.98358 0.0171524 -0.0350366)
(0.739407 0.0262495 0.0294939)
(0.68864 0.00640265 -0.0323386)
(0.846718 -0.00922134 0.050887)
(0.67893 0.00638873 0.118411)
(0.815133 0.00909775 0.0623659)
(0.809733 -0.00687201 0.0178668)
(0.876119 -0.0240844 -0.0118019)
(0.958756 -0.0171193 0.023964)
(1.02192 -0.0288484 0.0452397)
(0.988658 -0.00806414 0.0560331)
(0.852417 -0.0256397 0.0651674)
(0.974131 -0.0601427 -0.00497679)
(1.02442 -0.0351879 -0.0387718)
(1.01166 -0.0243723 0.0087785)
(0.873432 0.0115158 0.0640535)
(0.860402 0.00731996 0.0171354)
(0.92316 -0.00914579 -0.088508)
(0.882592 -0.0426214 -0.0422136)
(0.961621 -0.0535163 0.0134389)
(1.0394 -0.00849323 -0.0163876)
(0.980277 -0.0337795 -0.0319575)
(0.984612 -0.0487649 -0.0252452)
(1.02753 -0.0113641 0.0747294)
(1.00047 -0.00619461 0.0524463)
(0.989864 -0.000714425 -0.0629049)
(0.941662 -0.0134958 0.0289876)
(0.967684 -0.017398 0.0467734)
(1.00861 -0.0149034 -0.0340755)
(1.12905 -0.0249224 0.0507446)
(1.02829 -0.000420739 -0.0362913)
(0.970223 -0.00515321 -0.0594587)
(0.974773 -0.00607121 0.112923)
(0.879825 0.0273941 0.0074176)
(0.890761 -0.00112877 -0.086329)
(0.989709 -0.0515553 0.00040063)
(1.12774 -0.0112278 0.00489754)
(0.95319 0.0161226 -0.0433469)
(0.945666 -0.0288389 0.0686222)
(1.02809 -0.00810567 0.0628118)
(1.01163 0.0308405 -0.0206577)
(0.884385 0.0389619 0.0264155)
(0.785506 0.00461399 -0.0405704)
(0.855494 -0.01765 -0.0205476)
(0.776513 0.00198236 0.0879811)
(0.888422 0.00702621 0.0335445)
(0.856233 -0.0128911 -0.0040147)
(0.909009 -0.0315332 -0.0403295)
(0.953845 -0.0206588 -0.00253447)
(0.99238 -0.0334078 0.0356768)
(0.999586 -0.00858269 0.0510938)
(0.909675 -0.00905807 0.0507896)
(0.9568 -0.0464224 -0.0057359)
(0.99856 -0.036162 -0.0275343)
(1.01813 -0.0254603 -0.00350242)
(0.917236 0.0164922 0.0426704)
(0.883464 0.0173523 0.0316478)
(0.929292 -0.00603045 -0.0559006)
(0.939248 -0.0380804 -0.0479261)
(0.973687 -0.0576905 0.0039146)
(1.02952 -0.0159544 -0.0186823)
(1.01864 -0.0179564 -0.0322998)
(1.00195 -0.0370704 -0.0379081)
(1.00143 -0.0237167 0.0378522)
(0.999232 -0.0141901 0.0640995)
(1.03183 -0.00460855 -0.0326862)
(1.00576 -0.0082286 -0.0123444)
(1.00882 -0.0119526 0.0387542)
(1.04625 -0.0210449 -0.0135946)
(1.13609 -0.0303091 0.0254717)
(1.03991 0.00208564 -0.0199486)
(0.990815 0.00211638 -0.0686179)
(0.981694 6.99372e-05 0.0770593)
(0.902874 0.0261282 0.041385)
(0.945263 -0.000916725 -0.0426819)
(1.0191 -0.0494019 0.00542757)
(1.13994 -0.0132912 0.00568971)
(1.01335 0.0251506 -0.0367627)
(0.959436 -0.0266478 0.0449671)
(1.0049 -0.014913 0.0839378)
(1.00567 0.0319158 0.00937624)
(0.956869 0.045915 0.0268891)
(0.893278 0.0141327 -0.0325201)
(0.906617 -0.0152402 -0.0562077)
(0.86916 -0.00149249 0.0294568)
(0.963113 0.00861211 -0.00175172)
(0.914328 -0.0103789 -0.0228878)
(0.936186 -0.0367667 -0.0504234)
(0.976727 -0.0219652 -0.0290034)
(0.985398 -0.0273898 0.0167906)
(0.993388 -0.0127821 0.0452857)
(0.96558 -0.00509206 0.0393931)
(0.978287 -0.0281308 -0.0087657)
(0.978471 -0.0286238 -0.0274411)
(1.00505 -0.024681 -0.00605728)
(0.946524 0.0151085 0.0217682)
(0.921047 0.0244795 0.0307125)
(0.949527 0.00264977 -0.0298434)
(0.969936 -0.0338665 -0.0403453)
(1.00099 -0.0589116 0.00932305)
(1.03298 -0.0252504 -0.00839913)
(1.03126 -0.0149709 -0.0318297)
(1.02061 -0.0251327 -0.0355636)
(1.00074 -0.0180664 0.0184268)
(0.99669 -0.0182495 0.0619976)
(1.04872 -0.0157297 0.00159218)
(1.0489 -0.00977324 -0.0180138)
(1.04468 -0.0106561 0.0147991)
(1.04696 -0.0244437 -0.0064249)
(1.10027 -0.0292272 0.0154576)
(1.04316 0.00175391 -0.0191553)
(0.982453 0.00164906 -0.076155)
(0.996439 0.00175735 0.042006)
(0.966269 0.0207254 0.054911)
(0.98653 -0.00789868 -0.0135732)
(1.03171 -0.0515709 0.00592924)
(1.12804 -0.0166276 0.0135758)
(1.05655 0.0336812 -0.0238464)
(0.998274 -0.0180082 0.0283886)
(1.00658 -0.024942 0.0813107)
(0.984909 0.0266602 0.0212755)
(0.94241 0.0428363 0.0210592)
(0.933424 0.0151857 -0.0105603)
(0.979382 -0.0154742 -0.0382132)
(0.95793 -0.00728112 -0.00182279)
(1.01113 0.00919734 -0.00433752)
(0.977048 -0.00307814 -0.0275162)
(0.962075 -0.0320413 -0.044283)
(0.986047 -0.0222568 -0.034117)
(0.996417 -0.0215929 0.00214879)
(1.00543 -0.0125149 0.0387651)
(1.00607 -0.0120273 0.0333016)
(0.998184 -0.0189037 -0.00861579)
(0.978788 -0.0144582 -0.0274886)
(1.00238 -0.0193486 -0.00575104)
(0.962053 0.00849559 0.00842724)
(0.944073 0.0235702 0.021619)
(0.980189 0.00985704 -0.0101609)
(1.00074 -0.0264234 -0.0336122)
(1.01728 -0.0555335 0.00148103)
(1.03884 -0.0285296 -0.0032064)
(1.03697 -0.0141496 -0.0260124)
(1.02184 -0.0191787 -0.0302487)
(1.01349 -0.00855171 0.0111733)
(1.00995 -0.01641 0.0500756)
(1.0499 -0.0221705 0.0180867)
(1.06603 -0.00919034 -0.0090384)
(1.063 -0.00716728 -0.00392155)
(1.03125 -0.0202978 -0.00868789)
(1.03658 -0.0236667 0.0292175)
(1.04272 -0.00334959 -0.0053707)
(1.01211 -0.00297149 -0.0808956)
(1.02484 -0.00219216 0.00844979)
(1.03638 0.0125966 0.0516979)
(1.03935 -0.012278 -0.00395656)
(1.04625 -0.0507781 0.000171817)
(1.10214 -0.0167106 0.0186167)
(1.07291 0.0358147 -0.0176277)
(1.02872 -0.00909261 0.0224731)
(1.00247 -0.0271669 0.0751495)
(0.966182 0.0244556 0.0212775)
(0.919527 0.0403083 0.00903831)
(0.93119 0.00793231 -0.00158373)
(0.999522 -0.0239 -0.00491324)
(1.00485 -0.0158471 0.0110812)
(1.02002 0.00814707 0.00288796)
(1.01263 0.00223555 -0.017159)
(0.990648 -0.023012 -0.0303246)
(0.993519 -0.0161633 -0.0221236)
(1.00852 -0.017392 -0.00196382)
(1.01342 -0.0118949 0.0256539)
(1.02382 -0.0205506 0.028853)
(1.00905 -0.0187874 -0.00679405)
(0.988595 -0.00364227 -0.0235108)
(1.01559 -0.010718 -0.00645333)
(0.984982 0.00734257 0.00179543)
(0.968188 0.0222627 0.012232)
(1.00404 0.0127271 -0.00612394)
(1.0293 -0.0216018 -0.0272137)
(1.03284 -0.0519793 -0.00610813)
(1.03318 -0.0273016 -0.00801942)
(1.03447 -0.0101133 -0.0235945)
(1.02493 -0.015775 -0.0239679)
(1.01941 -0.00409465 0.00551041)
(1.02541 -0.0117306 0.0324816)
(1.05027 -0.0240204 0.0144168)
(1.05715 -0.00763651 -0.00219375)
(1.05757 -0.00401894 -0.00807002)
(1.03769 -0.0164175 -0.0177584)
(1.02412 -0.017255 0.0293598)
(1.0423 -0.00940342 0.0101296)
(1.04629 -0.0103745 -0.0641973)
(1.05082 -0.00647082 -0.00280037)
(1.05733 0.00516968 0.0364709)
(1.05414 -0.0112648 0.00117712)
(1.04621 -0.0448986 0.00594694)
(1.07186 -0.0176927 0.0125358)
(1.0624 0.0322963 -0.0173285)
(1.03095 -0.00145056 0.0182748)
(0.980234 -0.023765 0.0641027)
(0.950299 0.0204312 0.02108)
(0.932797 0.0373582 0.00781754)
(0.954937 0.00413229 0.00271989)
(1.00217 -0.0277789 0.00373555)
(1.00541 -0.0221826 0.0184357)
(1.02591 0.00786647 0.00274864)
(1.03645 0.00628504 -0.00962525)
(1.01458 -0.0138343 -0.0240098)
(1.00697 -0.00763783 -0.0149031)
(1.02188 -0.0140095 0.00191779)
(1.0196 -0.0101031 0.0158599)
(1.02915 -0.0214594 0.0240576)
(1.01696 -0.0190659 0.000810279)
(1.00106 0.00255547 -0.0165433)
(1.02685 -0.00302025 -0.0085358)
(1.00767 0.00789367 -0.00384368)
(0.997665 0.0194804 0.00681073)
(1.02603 0.0126326 -0.00711578)
(1.04755 -0.0175031 -0.0245148)
(1.04724 -0.0461253 -0.00603113)
(1.03227 -0.0259553 -0.0077906)
(1.03006 -0.00630999 -0.0211522)
(1.03165 -0.0133149 -0.018579)
(1.0277 -0.00669804 0.00275477)
(1.03299 -0.00904245 0.0199286)
(1.04496 -0.0204013 0.00658083)
(1.04184 -0.00611157 -0.00185156)
(1.04382 -0.00436474 -0.004404)
(1.03835 -0.0158521 -0.0180537)
(1.03463 -0.0126373 0.0171991)
(1.05008 -0.0112229 0.0107624)
(1.05234 -0.0137056 -0.0456721)
(1.04143 -0.00891083 -0.0032007)
(1.03654 -0.00113531 0.0243943)
(1.04222 -0.0082486 0.00453972)
(1.04279 -0.0353131 0.0138914)
(1.04372 -0.0182408 0.00769738)
(1.03551 0.0278109 -0.0173761)
(1.02368 0.00640626 0.00868707)
(0.976407 -0.0148056 0.045143)
(0.954165 0.0163188 0.0186457)
(0.960566 0.0320737 0.0126549)
(0.991755 0.00355985 0.00730247)
(1.02318 -0.0286662 -0.000530353)
(1.01196 -0.0254843 0.0102692)
(1.03149 0.00788754 0.00141914)
(1.05005 0.00783531 -0.0023786)
(1.0313 -0.00665644 -0.0172487)
(1.02005 -0.000148941 -0.0126872)
(1.03356 -0.011395 0.00172649)
(1.02784 -0.0103444 0.00863409)
(1.03092 -0.018942 0.0163535)
(1.02149 -0.0151701 0.00326214)
(1.01495 0.00602222 -0.0129381)
(1.03415 -0.000476002 -0.00932054)
(1.02185 0.00556762 -0.00511553)
(1.02252 0.0145288 0.00283566)
(1.04103 0.00978276 -0.00966255)
(1.05271 -0.0150732 -0.023967)
(1.05136 -0.0377653 -0.00883666)
(1.03178 -0.0230485 -0.00642741)
(1.02646 -0.00463978 -0.0146395)
(1.03575 -0.0125561 -0.0137155)
(1.03271 -0.0113373 0.00172227)
(1.03373 -0.00774467 0.0124783)
(1.04023 -0.01606 0.00207402)
(1.03306 -0.00592025 -0.000691677)
(1.03923 -0.00463638 -0.000424147)
(1.04191 -0.0154851 -0.0146704)
(1.03642 -0.0114241 0.00808782)
(1.04518 -0.0102966 0.0095173)
(1.04728 -0.0111786 -0.031126)
(1.03306 -0.00936773 -0.00359272)
(1.0241 -0.00628649 0.0172192)
(1.03238 -0.00601087 0.00610978)
(1.03993 -0.0250643 0.0138422)
(1.02794 -0.0139788 0.00671872)
(1.01912 0.0253589 -0.014411)
(1.02237 0.00993582 -0.00145118)
(0.987467 -0.00586381 0.0262023)
(0.975025 0.015217 0.0122149)
(0.993299 0.0256328 0.0103813)
(1.02447 0.00334612 0.00451113)
(1.04303 -0.0268365 -0.00484134)
(1.02203 -0.0239381 0.0021473)
(1.03313 0.00743268 -0.00243738)
(1.04936 0.00667978 -0.000704177)
(1.03533 -0.00337527 -0.0129917)
(1.02997 0.00523257 -0.0119402)
(1.04201 -0.00763184 -0.000886426)
(1.03557 -0.00873992 0.00219073)
(1.03425 -0.0142624 0.00987402)
(1.02541 -0.0104555 0.00458557)
(1.02654 0.00789088 -0.00875564)
(1.04055 0.000153829 -0.0085827)
(1.02977 0.00217193 -0.00544497)
(1.03452 0.00917616 0.000928715)
(1.04714 0.0072525 -0.00832133)
(1.0523 -0.012089 -0.019787)
(1.05018 -0.0295649 -0.0111527)
(1.03457 -0.0208271 -0.00738775)
(1.03006 -0.00604869 -0.00996625)
(1.03958 -0.0125498 -0.0107569)
(1.03695 -0.0132683 -0.00029628)
(1.03571 -0.00620226 0.00702028)
(1.04073 -0.0118303 0.000349243)
(1.03338 -0.00517999 0.000685729)
(1.03814 -0.00528963 0.00131277)
(1.0441 -0.0143768 -0.0119928)
(1.03836 -0.00934346 0.00193064)
(1.04037 -0.00912715 0.00820576)
(1.04287 -0.00980365 -0.0197596)
(1.03578 -0.00790473 -0.00299455)
(1.02648 -0.00816887 0.0121895)
(1.02939 -0.00402475 0.00554439)
(1.03982 -0.016428 0.0104791)
(1.02553 -0.00876672 0.00558701)
(1.01935 0.0244136 -0.00883605)
(1.03123 0.0121058 -0.0058361)
(1.00901 0.00114088 0.0107789)
(1.00488 0.0145153 0.00234992)
(1.02278 0.0189492 0.00245404)
(1.04689 0.00353916 -0.00126799)
(1.05463 -0.0214825 -0.00754476)
(1.02882 -0.0188862 -0.0031436)
(1.03261 0.00497067 -0.00404855)
(1.04539 0.0030718 -0.0028858)
(1.03415 -0.00276398 -0.0122956)
(1.03482 0.00671063 -0.0118201)
(1.04531 -0.00613502 -0.00282852)
(1.03868 -0.00818982 -0.00227674)
(1.03766 -0.0100609 0.00520147)
(1.03008 -0.00651333 0.00566411)
(1.0329 0.00746202 -0.00381697)
(1.0437 -0.000684892 -0.00579401)
(1.03353 0.000189821 -0.00484923)
(1.03697 0.00594658 5.08901e-05)
(1.04707 0.0055308 -0.00527063)
(1.0499 -0.0097628 -0.0133481)
(1.0465 -0.0224331 -0.00836626)
(1.03582 -0.0175942 -0.00506694)
(1.03429 -0.00704759 -0.00558988)
(1.04088 -0.0114372 -0.00713217)
(1.03716 -0.0125296 -0.000373888)
(1.03558 -0.00435588 0.0035415)
(1.04022 -0.00927895 -0.00120648)
(1.03603 -0.00455615 0.000762047)
(1.03979 -0.00397194 0.00236863)
(1.04371 -0.0125968 -0.00814616)
(1.03812 -0.00745908 -0.000532003)
(1.03944 -0.00667527 0.0062678)
(1.04096 -0.00822668 -0.0125527)
(1.03751 -0.00663545 -0.0022024)
(1.03121 -0.00788981 0.00874009)
(1.03106 -0.00181724 0.00538552)
(1.03968 -0.00998201 0.00839551)
(1.02617 -0.00435593 0.00456785)
(1.02631 0.0231373 -0.00468005)
(1.04207 0.0108996 -0.00718777)
(1.02813 0.00288946 0.00235452)
(1.0295 0.0121702 -0.00279053)
(1.04062 0.0124051 -0.00314553)
(1.05321 0.00235463 -0.00465915)
(1.05451 -0.0160603 -0.00710676)
(1.03029 -0.013933 -0.00321621)
(1.03385 0.0032016 -0.00458847)
(1.04358 0.000696335 -0.00420778)
(1.03409 -0.00335558 -0.0104764)
(1.03733 0.00578923 -0.00999052)
(1.04647 -0.00443658 -0.00330309)
(1.03989 -0.00616952 -0.00386182)
(1.03945 -0.00686584 0.00309523)
(1.03419 -0.0049246 0.00562309)
(1.03602 0.00632796 -0.000953941)
(1.0444 -0.000201295 -0.00342842)
(1.03547 -2.69071e-05 -0.00375025)
(1.03744 0.00389581 0.000748128)
(1.04557 0.00444296 -0.00165749)
(1.04742 -0.00666172 -0.00806638)
(1.04508 -0.0152248 -0.00618863)
(1.03802 -0.013283 -0.00345382)
(1.03718 -0.00679624 -0.00295787)
(1.04118 -0.00895704 -0.00428656)
(1.03785 -0.0105816 0.000202503)
(1.03627 -0.00267416 0.00235758)
(1.04048 -0.00684936 -0.0018701)
(1.03808 -0.00403947 0.000180839)
(1.04079 -0.00267802 0.00313139)
(1.04346 -0.0101978 -0.00487409)
(1.03799 -0.00522734 -0.000606701)
(1.03947 -0.00435227 0.00513075)
(1.04062 -0.0077177 -0.00850928)
(1.03847 -0.00536507 -0.000981999)
(1.03494 -0.00637402 0.00672124)
(1.03356 -0.000418723 0.00423106)
(1.03925 -0.00546143 0.00721102)
(1.02896 -0.00228581 0.00312434)
(1.03247 0.0184735 -0.00285932)
(1.04628 0.00844193 -0.00562377)
(1.03628 0.00361511 0.00048926)
(1.0395 0.00982146 -0.00249517)
(1.04534 0.00789293 -0.00400739)
(1.0503 0.00163084 -0.00364639)
(1.0498 -0.0119534 -0.00420511)
(1.03098 -0.0103059 -0.00205627)
(1.03542 0.00175202 -0.00425104)
(1.0432 0.000155097 -0.00385125)
(1.03515 -0.00240588 -0.00804473)
(1.03829 0.00513541 -0.00787228)
(1.04616 -0.00293696 -0.00229089)
(1.04076 -0.00418215 -0.00349808)
(1.04065 -0.00408406 0.00198495)
(1.03683 -0.00368602 0.00452518)
(1.03735 0.00501954 0.000279598)
(1.044 -0.000445824 -0.00126357)
(1.03652 -1.86667e-05 -0.00248219)
(1.03838 0.00276856 0.000644981)
(1.04452 0.00391576 -9.62704e-05)
(1.04486 -0.00435755 -0.00428517)
(1.04404 -0.0109859 -0.00391141)
(1.03945 -0.00994126 -0.00221653)
(1.0386 -0.0063207 -0.00179376)
(1.04108 -0.00641387 -0.00250409)
(1.0387 -0.00871396 0.00072427)
(1.03703 -0.00169476 0.00198082)
(1.0404 -0.00458336 -0.0017742)
(1.03918 -0.00374768 -4.02731e-05)
(1.04088 -0.00096016 0.00377502)
(1.04317 -0.00785023 -0.00234936)
(1.03833 -0.00464802 -0.000128214)
(1.0394 -0.00277441 0.0040334)
(1.04065 -0.006452 -0.00616608)
(1.0389 -0.00397835 0.000440853)
(1.0367 -0.00509307 0.00515429)
(1.03481 3.18603e-05 0.00255404)
(1.03901 -0.00269857 0.00636515)
(1.03208 -0.00160288 0.00140537)
(1.03546 0.0144577 -0.00208152)
(1.0458 0.0066206 -0.00296778)
(1.0381 0.0035175 0.000374707)
(1.04178 0.0080898 -0.000997519)
(1.04507 0.00513864 -0.00283418)
(1.04743 0.00157066 -0.001843)
(1.04723 -0.00865336 -0.00237092)
(1.03229 -0.00774141 -0.00171375)
(1.03687 0.00153469 -0.00317508)
(1.04289 0.000203225 -0.00270179)
(1.03643 -0.0015042 -0.00542495)
(1.03896 0.004467 -0.00573441)
(1.04546 -0.00159524 -0.00144469)
(1.04108 -0.00253902 -0.0028461)
(1.04094 -0.00239445 0.00126993)
(1.03855 -0.00327198 0.0032885)
(1.03847 0.0038871 0.000300157)
(1.04377 -0.000681193 -0.000320687)
(1.03727 0.000390611 -0.00156272)
(1.03906 0.00184385 0.000493659)
(1.04379 0.00281404 0.000392555)
(1.04314 -0.00230422 -0.00208486)
(1.04354 -0.00744106 -0.00237888)
(1.04022 -0.00634873 -0.00127533)
(1.03935 -0.00524472 -0.000841444)
(1.04098 -0.004254 -0.00129135)
(1.03958 -0.00683687 0.000913266)
(1.03796 -0.00140379 0.00189709)
(1.04013 -0.00270132 -0.00107679)
(1.03988 -0.00348114 -0.000188364)
(1.04051 -0.00023796 0.0035534)
(1.04269 -0.00609589 -0.00112285)
(1.03938 -0.00428881 9.12944e-05)
(1.0392 -0.00124436 0.00351706)
(1.04033 -0.00539904 -0.00426528)
(1.03943 -0.00324344 0.00125549)
(1.03779 -0.00388764 0.0038877)
(1.03563 3.41328e-05 0.000917124)
(1.03894 -0.000704531 0.00522646)
(1.03453 -0.00113555 0.000533732)
(1.03685 0.0109943 -0.00131331)
(1.04472 0.00502509 -0.00129356)
(1.03883 0.00358374 0.00020724)
(1.04203 0.0067182 0.000322118)
(1.04422 0.0031624 -0.00206178)
(1.04563 0.00163018 -0.00101884)
(1.04596 -0.00646869 -0.00116685)
(1.03414 -0.00552722 -0.00135015)
(1.03794 0.00121888 -0.00209122)
(1.04273 8.94143e-05 -0.00168817)
(1.03745 -0.000638481 -0.00351675)
(1.03918 0.00365468 -0.00424115)
(1.0446 -0.000846767 -0.000740588)
(1.04133 -0.00156344 -0.0020737)
(1.04112 -0.00112968 0.000529026)
(1.03977 -0.00252182 0.00221275)
(1.03899 0.00309406 0.000142324)
(1.04334 -0.00124431 4.20255e-05)
(1.03789 0.000497138 -0.00094882)
(1.03959 0.00121942 0.000259988)
(1.04343 0.00173353 0.000107891)
(1.04164 -0.000630856 -0.00099293)
(1.04291 -0.00546271 -0.00145891)
(1.04061 -0.00399211 -0.000817188)
(1.03991 -0.00444877 -0.000301156)