# y+ ()       
# Time        	patch         	min           	max           	average       
66            	bottomWall	1.402955e+00	6.581843e+00	3.413447e+00
66            	topWall	1.395991e+00	5.566854e+00	3.185284e+00
