/*--------------------------------*- C++ -*----------------------------------*\
  =========                 |
  \\      /  F ield         | OpenFOAM: The Open Source CFD Toolbox
   \\    /   O peration     | Website:  https://openfoam.org
    \\  /    A nd           | Version:  10
     \\/     M anipulation  |
\*---------------------------------------------------------------------------*/
FoamFile
{
    format      ascii;
    class       volScalarField;
    location    "14";
    object      p;
}
// * * * * * * * * * * * * * * * * * * * * * * * * * * * * * * * * * * * * * //

dimensions      [0 2 -2 0 0 0 0];

internalField   nonuniform List<scalar> 
102400
(
0.00101761
-0.0162747
0.00262558
0.011591
0.00889942
0.00182852
0.00774745
-0.00482654
-0.00386029
-0.0100946
-0.000749363
-0.00607637
0.00959634
0.0219428
0.0116181
-0.0103644
0.00992385
0.00517915
-0.0170989
0.00169446
0.00856707
-0.00550464
0.00251893
-0.00482151
-0.00595176
0.010757
0.00460425
-0.00319934
0.011822
0.0059893
0.00919964
-0.00162849
-0.00329632
0.027544
0.0303322
-0.00300804
-0.00720108
-0.0251897
-0.00845303
0.0141037
-0.0131447
-0.0386126
-0.0211627
-0.0108112
-0.00489723
-0.0208468
-0.0108719
-0.0155953
-0.0200561
-0.0281665
-0.0158591
-0.0220708
-0.00553402
0.00409883
-0.00989308
-0.0355072
-0.0109615
-0.0175829
-0.0389769
-0.0203864
-0.0156476
-0.0217784
-0.0158761
-0.0257581
-0.0233126
-0.00548907
-0.0116524
-0.0170193
-0.00443921
-0.014666
-0.00876429
-0.0197117
-0.0190792
0.0126318
0.00817448
-0.0181008
-0.0288171
-0.0434121
-0.0235234
-0.00780184
-0.0126328
-0.0295632
-0.00608437
-0.00108898
0.00484436
-0.0105399
-0.00456843
-0.0176074
-0.017126
-0.0222431
-0.015178
-0.0181079
-0.00350076
0.0110064
-0.000135668
-0.0263425
-0.00257356
-0.0073875
-0.0279502
-0.0117077
-0.00528307
-0.0216416
-0.00908125
-0.0196894
-0.018428
0.00530268
-0.0085482
-0.01585
0.000281822
-0.00718107
-0.00564793
-0.0151228
-0.016918
0.0159988
0.0164179
-0.0187555
-0.020901
-0.038745
-0.0223679
0.00139969
-0.0200489
-0.0375574
-0.00949056
-0.00069967
-0.00926508
-0.0101559
-0.00501502
-0.0216758
-0.0185609
-0.0332138
-0.0222594
-0.0196181
-0.00365263
0.00331073
0.00142002
-0.0296482
-0.0104065
-0.0105928
-0.0301887
-0.0136869
-0.0112169
-0.0261047
-0.00794001
-0.0225113
-0.0290104
-0.00782693
-0.0169722
-0.0245555
0.00266125
-0.0105847
-0.00893551
-0.0214181
-0.0242282
0.00393589
0.0180871
-0.0241257
-0.0270099
-0.0453037
-0.0266945
-0.00380884
-0.00797054
-0.0349968
-0.0148034
0.00686919
-0.00142199
-0.0037242
-0.00876427
-0.0196058
-0.00806665
-0.0174569
-0.012229
-0.0144342
0.00403172
0.0112408
0.00575034
-0.0243978
-0.00150619
-0.00590286
-0.0331314
-0.0176777
-0.0149594
-0.0154327
-0.0027688
-0.0130318
-0.0198196
-0.000376551
-0.0022115
-0.0242873
0.00039464
-0.00156873
0.00455848
-0.0143908
-0.0193761
0.00427044
0.0169797
-0.0174369
-0.022474
-0.0404822
-0.0193298
0.00552699
-0.00652247
-0.0237959
-0.017922
-0.000705336
0.00236128
-0.0140605
-0.0136035
-0.0286866
-0.0200471
-0.0210915
-0.0105611
-0.0247555
-0.00796924
0.0124213
0.000685298
-0.0188444
0.00112216
-0.00493897
-0.0288862
-0.022335
-0.0127371
-0.0219854
-0.0115276
-0.0149243
-0.0189772
0.0059084
-0.00476095
-0.0268458
-0.00734414
-0.0140327
0.00496273
-0.00849019
-0.0076318
0.00768011
0.00728828
-0.00826601
-0.0197216
-0.0396119
-0.0169767
0.00433819
-0.0101047
-0.0225917
-0.0120483
-0.00846863
0.00180229
-0.00941442
-0.00660898
-0.0260126
-0.0243176
-0.0229554
-0.0043886
-0.0216794
-0.00714188
0.00911186
0.003209
-0.024626
-0.000476025
-0.00972979
-0.0273978
-0.0197306
-0.00630141
-0.0309115
-0.0173125
-0.0127366
-0.0224762
0.00599273
-0.0128072
-0.0255233
0.00369092
-0.0133138
-0.00269972
-0.00540302
-0.00588588
0.00801621
0.00737681
-0.00319357
-0.0145222
-0.0451925
-0.0248592
0.00968551
-0.0102074
-0.0304081
-0.0127077
-0.00547013
-0.00216602
-0.0175369
-0.00698618
-0.025713
-0.01855
-0.0227198
-0.00302985
-0.0211333
-0.00325344
-0.00125891
-0.00215438
-0.0256757
-0.00275626
-0.00764626
-0.0410731
-0.0185884
-0.00477632
-0.0206006
-0.0139569
-0.0114004
-0.0200971
-0.00612299
-0.0102452
-0.0163864
0.00274492
-0.00857105
-0.00448791
-0.0127152
-0.0222307
-0.001464
0.0108553
-0.0151961
-0.0114807
-0.0490359
-0.0319668
0.00851713
-0.00883122
-0.026299
-0.0222297
0.00181607
-0.00220186
-0.00779674
-0.0172652
-0.0306099
-0.0117117
-0.0203692
-0.00947556
-0.0201118
-0.00389576
0.00173834
-0.00192783
-0.0194032
-0.00998952
0.00443883
-0.0314677
-0.0162369
-0.00965958
-0.0130548
-0.00727315
-0.0139838
-0.00249504
0.00374231
-0.00615757
-0.0214196
-0.00256807
-0.00901498
5.22067e-05
-0.0165766
-0.0163641
-0.00788104
0.00921721
-0.0217621
-0.00945182
-0.0477718
-0.0366684
0.00841954
-0.00700379
-0.0215272
-0.0267635
-0.0167775
-0.00224634
-0.00263875
-0.0185331
-0.0287298
-0.0113221
-0.00939573
-0.0121984
-0.0151165
-0.00893422
0.00264997
-0.00190486
-0.0193397
-0.0109649
-0.000583533
-0.0275676
-0.0108987
-0.0125689
-0.0209339
-0.0200525
-0.0265144
-0.00856973
0.00243318
-0.00686247
-0.0231848
-0.00696963
-0.0142337
0.00342069
-0.012897
-0.00466788
-0.00359799
0.00266086
-0.0211938
-0.00785834
-0.0396889
-0.0424321
0.00938078
0.00697739
-0.0177743
-0.0204658
-0.0114439
0.00540463
-0.0076984
-0.00155306
-0.0180808
-0.0198592
-0.0125173
-0.00944414
-0.0139187
-0.00287836
-0.00291664
0.00365662
-0.0231858
-0.00503271
-0.00491658
-0.0300259
-0.0132818
-0.00883844
-0.0121541
-0.00933262
-0.0248389
-0.021885
-0.00434764
-0.00581569
-0.0142656
0.00103502
-0.0105309
-0.00832263
-0.0115199
-0.0075144
0.00342183
-0.00168861
-0.00710463
-0.0042597
-0.0258584
-0.0351233
-0.00244744
0.00166469
-0.0236383
-0.0182462
0.00399796
0.00199786
-0.00663171
-0.00476419
-0.0242833
-0.0228695
-0.0147029
-0.0101043
-0.00938613
-0.00444245
-0.00749236
0.00502762
-0.0249531
-0.0143784
-0.00520927
-0.0350974
-0.0136349
-0.00938718
-0.0165436
-0.00802857
-0.0174644
-0.0231359
-0.00805705
-0.00165497
-0.0172207
-0.00160146
-0.0119527
-0.017868
-0.0309832
-0.00776624
-0.00301637
0.00327799
-0.00578418
-0.0162566
-0.00997972
-0.0161802
0.00383342
0.00269394
-0.0294735
-0.0181428
-0.0104242
-0.000178318
-0.00270994
-0.0129992
-0.0135401
-0.0107782
-0.0117655
-0.0190363
-0.000919425
-0.00581154
-0.0125352
-0.00452475
-0.0098094
-0.0113248
0.00730862
-0.0354641
-0.0201372
-0.0193277
-0.0207556
-0.00649467
-0.0169063
-0.0102031
-0.00163048
-0.00507841
-0.0332303
-0.0180693
-0.0051329
-0.0140863
-0.0203434
-0.0052876
-0.0132682
0.00053185
-0.000552558
-0.01013
-0.0308002
-0.0337327
-0.00419677
-0.0216778
-0.0274461
-0.0017555
-0.0241119
-0.00470331
-0.000768056
-0.0161746
-0.0230736
0.000734657
-0.000874881
-0.0178491
-0.0141988
0.00125765
-0.00750049
-0.00111584
-0.0276302
-0.0219543
0.00906308
-0.0176095
-0.029886
-0.0219062
-0.022818
-0.00299747
-0.0111489
-0.015244
-0.0036584
-0.00183878
-0.0379498
-0.0261529
-0.00201447
0.00178569
-0.0147719
-0.00579866
-0.0105428
-0.00650563
0.00244769
-0.00759345
-0.0226385
-0.0289266
-0.00669563
-0.0225723
-0.0419976
0.00471849
-0.000917865
-0.00579515
1.45429e-05
0.0030541
-0.0236663
-0.0169528
-0.00127665
-0.0161798
-0.0213448
-0.00567982
-0.00527372
-0.00409393
-0.0326006
-0.0185589
0.00508076
-0.0186361
-0.0282049
-0.0197291
-0.0365585
-0.0130863
5.87566e-06
-0.0119895
-0.0196812
0.00325691
-0.0248142
-0.019795
-0.010362
-0.0139776
-0.015362
0.00418919
-0.00537356
-0.0143769
0.00539359
-0.00816151
-0.0201304
-0.030249
-0.00475994
-0.0141037
-0.0265752
-0.0010484
-0.00221777
-0.00320235
-0.00130756
-0.00473038
-0.00860901
-0.00910683
-0.00951004
-0.0233932
-0.0204939
-0.000263647
-0.00211339
-0.00818248
-0.0259627
-0.00663124
0.00857822
-0.0127598
-0.0217884
-0.0187325
-0.035014
-0.0238169
0.00190829
0.00296236
-0.0144098
-0.00298584
-0.0204093
-0.00830151
-0.0148656
-0.00217236
-0.00943142
0.00247125
-0.00309072
-0.0152114
0.00251972
-0.0121864
-0.0280631
-0.0258427
1.95456e-05
-0.0114119
-0.00563781
-0.00322508
-0.0106686
-0.0138529
-0.00867768
-0.00446542
-0.00660791
0.00264292
-0.0140968
-0.026572
-0.0427652
-0.0127581
-0.00622874
-0.0126103
-0.0157825
-0.0147602
-0.00228704
-0.00822116
-0.00888559
-0.00899865
-0.0159968
-0.0118281
-0.0102096
0.000709985
-0.00810469
-0.0126514
-0.0131165
-0.00690495
-0.0146631
0.00424195
-0.0258255
-0.00890552
-0.00911362
-0.00802811
0.000214975
-0.00887746
-0.0183832
-0.0105545
-0.00793881
-0.0152397
-0.0273891
-0.0117898
-0.00211932
-0.00334001
-0.0141471
-0.00048665
-0.000911812
-0.00300063
-0.0151442
-0.0106293
-0.0131667
-0.0107699
0.0115331
-0.0123338
-0.00888556
0.00148867
-0.00250717
6.72772e-05
-0.00109318
-0.00492678
-0.0158638
-0.00291747
-0.0107638
-0.00577148
-0.000795088
-0.0164204
-0.0120468
-0.0053341
-0.0200584
0.00567351
-0.0192475
-0.0159916
-0.0123423
-0.00986557
-0.0159159
-0.00631085
-0.0175337
-0.00406979
-0.00400415
0.00288493
-0.00355205
-0.0155489
-0.00476249
-0.000243711
-0.012869
-0.00325042
0.000391478
-0.00173741
-0.00471817
-0.00817626
-0.00683664
-0.00618749
0.00309012
-0.00966609
-0.0129601
0.00455274
-0.00569084
-0.0112775
-0.0125434
-0.0180361
-0.0133696
-0.00350747
-0.00699876
-0.00644992
-0.00252213
-0.00811131
-0.0121242
-0.00348833
-0.0140678
-0.0023863
-0.00580179
-0.0162094
-0.0113605
-0.0075943
-0.0169099
-0.0231869
-0.000648843
-0.00352989
-0.00316675
-0.00479439
-0.0114526
-0.0037844
-0.00212194
-0.00129089
-0.00347656
-0.00780443
-0.00533249
-0.000525567
-0.0143901
0.00190248
-0.00710193
-0.00838465
0.00221453
-0.00407052
-0.00325212
-0.0102454
-0.00745973
-0.00639431
-0.0050777
-0.0167691
-0.0193235
0.000659799
-0.00375746
-0.00482585
0.00328021
-0.00532556
-0.0107271
-0.0134436
-0.0058036
-0.0130127
0.00158756
-0.00963027
-0.00289287
-0.00133055
0.00760885
-0.0180952
-0.0108059
0.00423997
0.00242012
0.00351055
-0.0103066
-0.00102394
0.00204187
-0.00230538
-0.00980551
-0.00138217
0.00717932
0.00203968
0.00663229
-0.00257902
-0.00487629
-0.0104371
-0.00411935
0.00116604
0.00295353
0.00708432
-0.0134484
-0.00598407
-0.0138578
-0.0137772
-0.0170938
0.000526073
0.000359228
-0.00202464
-0.00024078
0.00358675
-0.00331849
-0.00454214
2.48485e-05
0.00586699
0.00405666
-0.00948425
-0.00555938
-0.00634198
-0.00885812
-0.00569741
-0.00424507
0.00148454
-0.00251863
0.000648255
-0.00484175
-0.0026498
-3.31968e-05
0.00663718
-0.00293378
-0.0042592
-0.000298861
-0.000753865
-0.0122318
0.000897007
-0.0040815
-0.00922077
-0.0076787
0.00196622
0.00505424
0.00199303
0.000360513
-0.00117411
-0.00752036
-0.00278609
-0.0161535
-0.00570988
0.00290962
0.00057539
-0.00173487
-0.000314754
-0.00168871
-0.00406696
0.00111652
0.00849296
0.00621396
-0.014093
-0.0103572
-0.0151336
-0.0185151
-0.00327665
-0.0102428
-0.00865009
-0.00351106
0.000645177
-0.00169139
-0.00360797
0.00418854
-0.0028173
-0.00474539
0.00219853
0.00862745
-0.00247556
-0.0105711
-0.00247501
-0.0138017
-0.00321409
0.00313152
-0.00254933
0.00596463
-0.000923748
-0.00837865
-0.00579004
-0.00352177
0.00274286
-0.00564399
-0.0101798
-0.00707728
0.00324014
0.0004199
-0.00211738
0.00563647
0.000597706
-9.62972e-06
0.00694242
0.00628931
-0.00439375
-0.00592275
-0.0100026
-0.0151229
-0.00326276
0.00100114
-0.00764928
-0.00425977
0.00226573
0.000810263
-0.00429008
0.00119503
0.00315312
-0.00392819
2.89165e-05
0.00704826
-0.00466756
-0.00789929
-0.000620198
-0.00783279
-0.00493989
-0.00102718
-0.00275027
-0.000351098
0.000448279
0.00213935
-0.0015017
-0.00378302
-0.00877216
-0.0057031
0.000831656
-0.00513705
-0.00189543
-0.0015553
-0.00823881
0.00324172
0.00515182
-0.00167328
0.0065775
0.00280584
-0.000792526
0.000573111
-0.00789403
-0.00582084
-0.00734395
-0.00478332
0.000600473
-0.00135134
0.00431617
-0.000552488
-0.0048106
0.00121496
0.00218831
-0.00217898
-0.00137698
0.00558379
-0.0084483
-0.0120556
0.00382179
-0.000679153
0.00115921
-0.00310151
-0.0010753
-0.00332776
-0.00129316
0.00179069
0.00211603
0.00626588
-0.000196328
-0.00714546
9.26748e-05
-0.00243865
-0.00699239
0.00114684
-0.00139963
-0.00174383
0.000487221
0.00269409
0.00474476
0.00114143
0.00208209
-0.00870882
-0.0100104
-0.00853197
-0.0112124
-0.00152418
0.00642928
0.00222864
0.00172846
1.93085e-06
-0.00638108
0.000882202
0.00243764
-0.00192472
-0.000706088
0.0126552
-0.00568883
-0.00861244
0.000552169
-0.000441046
0.00456984
-0.00043292
-0.00459577
-0.00564445
-0.00199792
-0.00156212
-0.00511405
-0.000541136
-0.00169177
0.00175587
0.00212695
-0.000622659
-0.00564695
-0.00572607
0.00566399
-0.000106846
-0.00313809
-0.000812605
0.00635946
0.000416845
0.00312459
-0.0100859
-0.0186589
-0.00143668
-0.0053586
-0.0105361
-0.00389044
-0.000465936
-0.00132689
0.000886448
-0.00292296
-0.00143635
0.00181206
-0.0010009
0.00240796
0.00336693
-0.00188653
-0.00486424
-0.00385351
-0.000171078
0.00369553
0.000372433
-0.00269184
-0.00147168
-0.00286709
0.00101749
-0.00561077
-0.00751602
-0.00113066
2.76084e-05
0.00534219
-0.000848304
-0.00117762
-0.000716555
0.0023845
-0.000493655
-0.00193032
-0.00120622
0.00556172
0.00118011
0.000758662
0.000417974
-0.0073096
0.00115253
-0.000263188
-0.00205521
-0.00199447
-0.00251326
-0.00235742
0.00148391
0.000717977
0.000239199
-0.000847158
-0.00340532
0.00225973
0.00235206
0.00236386
0.00325456
-0.00242322
-0.00386899
0.0024262
6.76738e-05
-0.000943731
0.0013694
-0.00199272
0.00146203
-0.00101611
-0.00471617
-0.000513157
0.00254459
0.00123567
0.00127912
-0.00144393
-0.00117984
0.00434537
0.00420843
0.00141516
0.000530695
0.00259384
0.00197558
0.00270119
-0.00327429
-0.00445337
0.00259819
0.00257828
0.00231318
-0.000612882
-0.00227875
0.00248471
0.000975604
0.00122991
0.00101826
-0.00205487
-0.00256726
-0.000663719
0.00139419
-0.000522157
0.00628015
0.00615569
-0.00360167
0.000781363
0.00162469
-0.000542218
0.00175367
0.00233907
0.000751859
0.00149077
-0.000416934
0.000596429
0.00291686
0.000465412
-0.000171561
-0.000192196
-0.000982203
0.000649635
0.00135453
0.000949835
-8.91963e-05
0.00076547
0.00167959
0.00176787
0.000489708
-0.00236724
0.00125566
0.003409
0.00264853
-0.000349715
0.00170924
0.00319524
0.0027033
0.00252039
0.00193384
0.000542876
0.000145064
0.000723613
0.00241997
0.000597167
0.00121824
0.00124931
0.00071093
0.00349143
0.00204474
0.00242659
0.00307686
0.00284292
0.00188995
0.00134673
0.00138111
0.00200175
0.00211407
0.00160304
0.00151688
0.00135733
0.00124611
0.00244442
0.00302097
0.00257502
0.0019759
0.00241395
0.00263796
0.00282774
0.00212806
0.00132581
0.0017321
0.00237875
0.00206254
0.00198708
0.00270321
0.00135562
0.00120861
0.00178743
0.00183737
0.00262713
0.00335149
0.00387737
0.00378119
0.0041812
-0.000353125
-0.0026333
-0.000570322
0.00230408
0.00254956
0.0033006
0.00341309
0.000184203
0.00181093
0.00164769
0.00121799
0.00249484
0.00117174
0.00139619
0.00191629
0.00188343
0.00210451
0.00204435
0.00171734
0.00178015
0.00226717
0.00265743
0.00221762
0.00182082
0.00175224
0.00244561
0.00172293
0.000609329
0.000696423
0.00108583
0.00182372
0.00218488
0.00209316
0.0023051
0.00237509
0.0025138
0.00250027
0.00250995
0.00259632
0.00287802
0.00261834
0.00167291
0.00215755
0.00214677
0.00231255
0.00236182
0.00298435
0.00260943
0.00249264
0.00216387
0.0019748
0.00208563
0.00180952
0.00190748
0.00176703
0.00156056
0.00179893
0.00214804
0.00229881
0.00227693
0.00261479
0.00276845
0.00234728
0.00263765
0.00261026
0.00245532
0.00232027
0.00203095
0.00188772
0.00224975
0.00224259
0.00403715
0.0020891
-0.017011
-0.0039783
0.0109684
0.00199714
0.00412434
-0.00281709
-0.0180446
-0.0126014
0.00596575
0.0028651
0.0111106
-0.000704822
-0.0152871
0.0194598
0.0109674
0.00664159
-0.0235044
-0.0175979
-0.00901667
-0.000506358
0.0116813
-0.0163959
-0.00223788
3.35835e-05
-0.0112321
-0.000393435
-0.0017993
0.00940605
0.0212925
-0.0112575
-0.0190412
0.00814021
-0.0114552
-0.00686095
0.015333
-0.0170978
0.00505446
0.00733891
-0.0185299
-0.0201111
-0.0418688
-0.0186492
-0.00991536
-0.0213322
-0.0123483
-0.0267397
-0.037304
-0.0272229
-0.00928162
-0.0185365
-0.00467651
-0.0238215
-0.0300026
-0.00169084
-0.00734005
-0.0153827
-0.0465253
-0.0309389
-0.0235566
-0.0144046
-0.00939745
-0.0400638
-0.0199727
-0.022874
-0.0339266
-0.0219519
-0.0253012
-0.00659665
0.00123548
-0.0337275
-0.035922
-0.0136091
-0.034542
-0.0223011
-0.00624159
-0.0342422
-0.0155218
-0.0155207
-0.00808128
-0.0106611
-0.0298234
-0.0187785
-0.00125368
-0.0123337
-0.00954626
-0.0149305
-0.0330761
-0.0235416
-0.00653273
-0.0103342
-0.00456933
-0.0155616
-0.0275922
0.00541638
-0.00145699
-0.00644069
-0.0327468
-0.0310179
-0.0182511
-0.00486985
-0.00207443
-0.0319701
-0.0146095
-0.0128516
-0.0248082
-0.0128728
-0.0151338
-0.00314568
0.011158
-0.0188947
-0.032476
-0.00364118
-0.0252344
-0.0197178
0.00439619
-0.0312102
-0.00743727
-0.00504122
-0.0152372
-0.0102754
-0.0362099
-0.0259055
-0.000999738
-0.0116454
-0.0160814
-0.0156973
-0.0390644
-0.0316503
-0.0160698
-0.00957807
-0.00701169
-0.0201577
-0.0364633
0.00955453
-0.00755491
-0.0101306
-0.0360749
-0.0376347
-0.0271999
-0.0117301
0.00251683
-0.0341384
-0.021584
-0.0119549
-0.0294311
-0.0197694
-0.0124018
-0.011184
0.0106014
-0.0258274
-0.0400485
-0.00427046
-0.0255387
-0.0289645
-0.00546318
-0.0386707
-0.0123775
-0.00776926
-0.00223918
-0.011148
-0.0310457
-0.0227332
0.00351154
-0.00829368
-0.00985436
-0.0182717
-0.0328167
-0.0267836
-0.0068526
-0.00421325
-0.00311612
-0.012385
-0.0268521
0.00961471
-0.0016476
-0.00157869
-0.0422124
-0.0252965
-0.0299043
-0.0125499
0.00371087
-0.0257659
-0.00886659
-0.0104726
-0.017449
-0.0166168
-0.0134024
-0.00786074
0.00971819
-0.0333132
-0.04066
-0.00456472
-0.0272224
-0.0187347
0.000197478
-0.0338928
-0.00437787
0.000470324
-0.00474662
-0.0205718
-0.0282252
-0.015984
-0.00265736
-0.016275
-0.00960019
-0.0247622
-0.0286327
-0.0286265
-0.00375715
-0.00822274
-0.00548888
-0.0207432
-0.0242261
0.00069281
-0.00883445
-0.00611297
-0.0431947
-0.0308101
-0.0271362
-0.0172592
-0.0050289
-0.0342219
-0.0133885
-0.0205364
-0.0203105
-0.00991162
-0.0231446
-0.0135254
0.00606796
-0.0374475
-0.0364998
-0.0135526
-0.0304672
-0.0154094
0.00560635
-0.0293709
-0.00606685
0.0011895
-0.00727676
-0.0176805
-0.0330705
-0.0141522
-0.00292376
-0.0110493
-0.00583027
-0.010141
-0.0252981
-0.0210337
-0.00544521
-0.00996376
-0.00156548
-0.0241224
-0.0294699
0.00230537
0.000888911
-0.012783
-0.0356371
-0.0288209
-0.0228687
-0.023959
7.28472e-05
-0.031635
-0.0178098
-0.0186595
-0.0273161
-0.0113663
-0.0108613
-0.0174771
0.00219021
-0.0406378
-0.03141
-0.00998843
-0.026951
-0.0100337
0.0053004
-0.0284601
-0.00760295
0.000381675
-0.0110015
-0.0119261
-0.0331012
-0.0149777
0.00355828
-0.0123528
-0.0148363
-0.00868007
-0.0268007
-0.0176351
-0.0140757
-0.0167571
-0.00129584
-0.020322
-0.0311148
-0.00561
-0.00853272
-0.00851143
-0.0370852
-0.0276039
-0.0164497
-0.0265125
-0.0039365
-0.0277441
-0.0196616
-0.0129997
-0.0315597
-0.0237382
-0.00865538
-0.0140298
-0.00290286
-0.0377772
-0.0304719
-0.0127978
-0.0228383
-0.0197563
-0.0032346
-0.0338795
-0.0143329
0.00128971
-0.00577669
-0.0142617
-0.0214902
-0.0137036
0.00265902
-0.016621
-0.0131235
-0.0222989
-0.0299252
-0.0147971
-0.0139376
-0.0143278
-0.00280437
-0.0162632
-0.0385599
-0.0119406
-0.000699305
-0.00527928
-0.034682
-0.0386958
-0.0160782
-0.0124726
-0.00811367
-0.0285493
-0.0153322
-0.0130908
-0.0243455
-0.0216786
-0.0228159
-0.010734
-0.00745603
-0.0271785
-0.0127145
-0.0254674
-0.0325042
-0.0258099
-0.000277844
-0.0244784
-0.0148974
0.00722062
-0.00601988
-0.0196482
-0.0195459
-0.0126618
-0.0165601
-0.0228803
-0.0149275
-0.0262354
-0.033703
-0.012898
-0.0044609
-0.0125171
-0.00526695
-0.0129286
-0.0380265
-0.0152883
6.79914e-05
-0.00871838
-0.0319453
-0.0402984
-0.0194314
-0.01158
-0.0105244
-0.0349688
-0.0124707
-0.022436
-0.0334113
-0.0177083
-0.0140097
-0.0134502
-0.0180107
-0.0207527
-0.0116523
-0.0178948
-0.032412
-0.0266842
-0.0163832
-0.0223483
-0.00452881
-0.00723421
-0.00847104
-0.0190532
-0.0308392
-0.0166235
-0.0169021
-0.0143132
-0.0187533
-0.02003
-0.0355951
-0.0208341
-0.0111795
-0.00892087
-0.0115969
-0.0100113
-0.0275549
-0.013782
-0.0010102
-0.0026104
-0.0323426
-0.0306677
-0.0124506
-0.00502105
0.000735933
-0.0232807
-0.00983642
-0.017022
-0.035531
-0.0266778
-0.00704203
-0.0075559
-0.0207668
-0.0202233
-0.0120904
-0.0198496
-0.0233194
-0.0168034
-0.0231532
-0.0339938
-0.00883231
-0.00707408
-0.0106806
-0.0106038
-0.0323894
-0.023755
-0.00873803
-0.027312
-0.019803
-0.0110535
-0.0225859
-0.0256728
-0.0270803
-0.00369338
-0.0205883
-0.0061442
-0.0225829
-0.00696355
-0.0132965
-0.0113489
-0.0345599
-0.0298356
-0.0129971
-0.0125129
2.8315e-05
-0.0269979
-0.0314347
-0.0188231
-0.0268856
-0.0344102
-0.00656077
-0.0127037
-0.0176723
-0.0215535
-0.0134874
-0.01651
-0.0109449
-0.0159997
-0.0172612
-0.0350327
-0.0232106
-0.00374106
-0.00176805
-0.00506071
-0.0176383
-0.0146444
-0.0255261
-0.0140644
-0.0153295
-0.0200627
-0.01159
-0.00982606
-0.0251255
-0.00686307
-0.0187328
-0.0165598
-0.0128847
-0.00438864
-0.0232021
-0.0156184
-0.0410097
-0.0403875
-0.0132395
-0.00367392
-0.0118072
-0.0220378
-0.0277642
-0.0293456
-0.00987327
-0.00865366
-0.00476293
-0.0235205
-0.0203501
-0.0237636
-0.0252974
-0.00311981
-0.00966259
-0.0203344
-0.0165545
-0.0176083
-0.0305395
-0.00877504
-0.00206206
0.00423184
-0.0320548
-0.0186553
-0.0153854
-0.0231606
-0.0272389
-0.0186723
-0.0145511
-0.0129232
-0.016417
-0.00801203
-0.0088668
-0.00905593
-0.0304117
-0.0150665
0.00744445
-0.00666796
-0.0410566
-0.0316152
-0.013284
-0.0137616
-0.0129765
-0.0221286
-0.0217016
-0.0287965
-0.0204365
-0.0176258
-0.0149616
-0.0268977
-0.0294873
-0.0108973
-0.0171862
-0.0125659
-0.00808891
-0.0276283
-0.0187427
-0.00497493
-0.0190647
-0.0254034
-0.00972276
0.0040717
-0.0409113
-0.0175443
-0.0135505
-0.0161946
-0.0170526
-0.0188071
-0.0177106
-0.0213595
-0.0172942
0.000104838
-0.00494971
-0.0200051
-0.0273982
-0.0315714
-0.00646499
-0.00800151
-0.0276617
-0.016081
-0.00797233
0.000300028
-0.0103945
-0.0257403
-0.0257149
-0.0148736
-0.00880621
-0.017793
-0.0153423
-0.0282946
-0.0263176
-0.0140037
-0.0036468
-0.0181686
-0.00475245
-0.0207006
-0.0139599
-0.00942606
-0.0108348
-0.00708667
-0.00956447
-0.017188
-0.036485
0.00452
-0.0228289
-0.0339828
-0.00465514
-0.0170456
-0.0212118
-0.0166818
-0.0236764
-0.00897903
-0.00285033
-0.0223078
-0.0218396
-0.0150377
0.000495404
-0.00508966
-0.0214715
-0.0192584
-0.00876597
-0.000142529
8.15173e-05
-0.0235989
-0.0122136
-0.00755563
-0.027357
-0.0119916
0.00291263
-0.0270856
-0.0273991
-0.0183757
-0.00136719
-0.0136744
-0.0062022
-0.0191588
-0.0296955
-0.0274444
-0.0216039
-0.018119
-0.00400319
-0.0132616
-0.0160863
-0.00448384
-0.00380554
-0.0297428
-0.0277836
-0.0125577
-0.00690965
-0.0202793
-0.0216998
-0.0221699
-0.00456066
-0.010962
-0.0119222
0.00406107
-0.0218964
-0.0160628
-0.0129547
4.36205e-05
-0.0102282
-0.00482639
0.00242732
-0.035284
-0.00781556
-0.00454865
-0.0295236
-0.0150802
-0.0145092
-0.0236611
-0.0210298
-0.00211322
-0.00446306
-0.0095041
-0.0227925
-0.0206456
-0.0276496
-0.0274673
-0.0263686
-0.01819
-0.0140808
-0.00646433
-0.0101775
0.00139922
-0.000943195
-0.00953269
-0.00413805
-0.00997276
-0.00533644
-0.0195945
-0.0157714
-0.0154833
-0.00962267
-0.00830045
-0.00911234
-0.00871265
-0.0181238
-0.0163325
-0.00580592
-0.00586614
-0.0105016
-0.0179332
-0.00486435
-0.0232041
-0.0213708
-0.00671238
-0.0105137
-0.0275784
0.00272524
-0.0329202
-0.0125785
-0.0164116
-0.0101495
0.00211326
-0.0258251
-0.0222251
-0.0160187
0.00137118
-0.0244301
-0.0279148
-0.0231551
-0.0247197
-0.00702008
0.00528904
0.00506648
-0.0174123
-0.00725522
-0.00427005
-0.00236565
-0.015925
-0.0176168
-0.0233666
-0.00603922
-0.0106951
-0.0151668
-0.00658566
-0.0105141
-0.00495317
-0.0130679
-0.00974515
-0.0109207
-0.0208255
-0.0124904
-0.00664247
-0.00958435
-0.00262211
0.00138023
-0.00469133
-0.018098
-0.0206231
-0.0054885
-0.00713618
-0.0119762
-0.0150405
-0.0173273
-0.0242989
-0.01145
-0.00262138
-0.00944577
-0.0145798
-0.00542773
-0.0132546
-0.0138674
-0.00553188
0.00618578
0.00667241
-0.0088399
0.000635247
0.00454582
-0.0140536
-0.0174163
-0.0230074
-0.00672076
-0.0131254
-0.00340917
-0.00450557
-0.00791473
-0.00972262
-0.00646519
-0.00817436
-0.00665443
-0.0171604
-0.0121366
-0.0153987
-0.00802912
-0.00629127
-0.00899549
-0.00437215
-0.0159018
-0.019882
-0.0114505
-0.0040952
-0.0027064
-0.0171263
-0.0162194
-0.0285113
-0.0123138
0.000649766
-0.00279295
-0.0091351
-0.0021076
-0.00485146
-0.00420488
-0.00284623
0.00501341
-0.0113156
-0.00447063
0.0042025
0.000721819
-0.00899437
-0.0177541
-0.0110858
0.00498292
-0.00170669
-0.00402198
-0.00480471
-0.00360552
-0.0173422
-0.011797
-0.0117539
-0.00764624
-0.0148752
-0.00823813
-0.0101018
-0.00182512
-0.000122142
-0.0053972
-0.00377553
-0.00742518
-0.0106617
-0.0233381
-0.013135
-0.0159094
0.00175731
-0.00797288
-0.0287639
-0.0123275
0.00100939
-0.00100227
-0.00465554
-0.0104885
-0.00809456
-0.00195443
-0.0112738
0.00320106
-0.00639401
-0.00292172
0.00472061
0.00268108
-0.0063529
-0.00499864
-0.0100009
-0.00516667
8.33264e-05
-0.0047312
-4.53616e-05
-0.00380874
-0.00318604
-0.000920111
-0.00288756
-0.0131062
-0.0141689
-0.00591914
-0.00725609
-0.00256216
-0.00354768
0.000285239
-0.00482805
-0.00219195
-0.013347
-0.00557574
-0.000981942
-0.00586967
-0.000161259
-0.0138925
-0.014139
-0.00518864
-0.00690572
-0.00727143
-0.00362771
0.00463478
-0.00330381
-0.00230414
-0.000958607
0.00372062
0.000174065
-0.000502613
0.00467269
-0.00116647
-0.0118738
-0.00469209
-0.00504165
-0.00146381
-0.00467722
0.00127094
-0.00847162
-0.00527643
-0.00926563
-0.00184446
-0.00448721
-0.00668097
-0.00642755
-0.000965351
-0.00227981
0.00158359
-0.000483244
-0.00233422
-0.0030258
-0.00196595
-0.00114604
0.00392547
-0.0045905
-0.00551631
-0.00334326
-0.0072185
-0.012226
-0.00707543
0.0016667
-0.00386026
-0.00564502
-0.00202177
-0.00525235
-0.00280066
0.00114656
0.00107008
0.00358711
0.000685366
0.00279335
-0.00579879
-0.00853179
0.00167647
-0.00418881
-0.000240905
-0.00277049
-0.00306298
-0.0056746
-0.0047303
0.00105863
-0.00220966
-0.00531017
-0.0050078
-0.00255081
-0.00405644
-0.0016745
-0.00124754
0.00197262
-0.00521743
-0.00381503
-0.0031284
-0.00810695
0.000730416
-0.000821611
-0.00235505
-0.00175043
-0.00700435
-0.00608446
-0.00342805
-0.00048666
-0.00114271
-0.000140679
-0.000778446
-0.00202915
-0.00253286
-0.000781131
0.00176442
0.00193878
0.00355559
0.00392492
0.000530948
-0.00274825
-0.00247566
0.000366773
0.000226837
-0.00220695
-0.00228409
-0.00633317
-0.00392322
-0.00140456
-0.00386697
-0.00273504
-0.0030698
-0.00262647
-0.00429287
-0.00387877
0.000148796
0.00180711
-0.00288046
-0.00433524
0.000372242
0.000391059
0.00344653
0.00238836
-0.0039468
-0.00364426
-0.0013482
-0.00366213
-0.00968993
-0.00738407
0.00125325
-0.000602516
-8.6937e-05
-0.00160943
-0.00418107
0.00238318
-0.000249325
0.000444802
0.00115235
0.00316095
-0.000671402
-0.00334109
-0.00305618
-0.00224101
0.000552735
-0.00267442
0.00140568
0.00117517
-0.00196823
-0.0019146
-0.00666592
-0.00543354
-0.00203983
-0.00301804
-0.000354375
0.000951171
6.66359e-05
0.00128868
-0.00333704
-0.000571516
0.00162103
0.00103664
0.00191307
-0.000652969
-0.00314346
-0.00349775
-0.00436004
-0.00451919
-0.000543231
-0.00301886
-0.00190419
-0.000234801
-0.000210753
-0.00113052
-0.00132192
-0.000862704
0.000194243
-0.000149133
-0.000238127
0.00126311
-0.00211543
-0.00447719
-0.00330931
-0.00280385
0.00231913
-0.000160801
-0.00112003
0.000114465
-0.00344547
-0.00239288
-0.00046524
-0.00473697
-0.00581985
-0.00222395
0.000698402
4.92799e-05
0.001015
0.000311912
-0.000579683
0.000408336
0.00154338
-3.11801e-05
0.00350705
0.000484559
0.000631262
-0.000876707
-0.000685848
-0.00150589
-0.00342421
-0.00281443
-0.000602435
0.00320076
-0.00112193
-0.00185989
-0.00217826
-0.0010749
-0.00135195
-0.00221818
-0.00221416
0.00075573
-0.00347064
-0.000557681
-0.0024901
-0.00316655
0.00161346
-0.00416068
-0.00102417
-0.000249997
-0.00124999
-0.00107268
0.0013186
0.000743318
-0.00219523
-0.00205659
-0.0005824
-0.00121853
-0.0022029
-0.00153912
0.000370173
0.000425229
-0.000688347
-0.00193941
0.00118095
-0.00133745
0.000515256
-0.00135068
-0.00253053
-0.00248692
-0.00251936
-0.00303672
-0.00256239
0.00121634
0.00148033
0.000707869
-0.000219589
0.000566767
0.000646388
0.00170498
0.000677096
0.00156922
0.000529872
0.00161419
0.000124095
-0.00280123
0.000850954
-0.000343086
0.000645517
0.00140679
0.000359758
0.00180064
0.00227961
9.37234e-05
0.000487433
0.000219972
0.000557372
-7.67925e-05
0.000107454
0.0010002
0.000637766
0.000654956
0.000595653
0.000818715
0.00135503
0.000865354
0.00165625
-0.000424365
0.000260516
0.000475912
-0.0018452
-0.0014915
-0.000844612
0.00144154
-0.00120998
-0.00117761
-0.00207864
-0.00221198
-0.00219947
-0.00175893
-0.00102522
-0.000738656
-0.000489423
-0.00186826
-0.00173636
-0.00362174
-0.000287382
-0.00276509
-0.000512035
-0.0010204
-0.000808725
-0.00135692
-0.000843399
-0.00092815
-0.000951837
-0.00126819
-0.00146291
-0.00149754
-0.00133023
-0.000877756
-5.73022e-05
-0.000423498
-0.000515743
-0.00076664
-0.000216251
-0.000390041
-0.000171581
-0.00098087
-0.000618811
-0.000601414
-0.00137878
-0.00136217
-0.0014245
-0.000723474
0.00133918
0.00129438
0.00106586
0.00122625
0.00155788
0.00135005
0.00201924
0.00104105
0.00101498
-0.00176366
0.000649227
0.00117809
0.00185936
0.00137644
0.00140614
0.000795283
0.000793979
0.0012692
0.00146959
0.00143063
0.00105048
0.000870481
0.00108848
0.00115878
0.00118758
0.0013249
0.00143902
0.00150181
0.00170591
0.001757
0.00179794
0.0015941
0.00149313
0.00164187
0.00110375
0.000785883
0.00075592
0.000999977
0.00120261
0.00136902
0.000280165
0.000291333
0.000408713
0.000537271
0.000515908
0.000418667
0.000286107
0.000257813
8.68764e-05
-2.6161e-05
0.000265012
7.27076e-06
0.000324135
0.000401448
0.000548255
0.000701262
0.000682858
0.000468872
0.000249481
0.000213443
0.000156726
-5.59984e-06
-1.63183e-05
-0.000195876
-0.000249553
6.15839e-05
0.000329113
0.000413864
0.000618375
0.000824474
0.000672642
0.000471816
0.000781596
0.000792796
0.000475948
0.000355969
0.000329425
0.000412109
0.00059174
0.00046963
0.00339218
-0.00336518
0.00152712
-0.00831756
-0.00173361
0.0102154
0.014961
0.00500157
-0.0109692
0.00316748
0.00743972
-0.00485175
-0.00156705
0.00281207
0.00883028
0.00475896
0.00304354
-0.00298374