/*--------------------------------*- C++ -*----------------------------------*\
  =========                 |
  \\      /  F ield         | OpenFOAM: The Open Source CFD Toolbox
   \\    /   O peration     | Website:  https://openfoam.org
    \\  /    A nd           | Version:  10
     \\/     M anipulation  |
\*---------------------------------------------------------------------------*/
FoamFile
{
    format      ascii;
    class       volScalarField;
    location    "14";
    object      pMean;
}
// * * * * * * * * * * * * * * * * * * * * * * * * * * * * * * * * * * * * * //

dimensions      [0 2 -2 0 0 0 0];

internalField   nonuniform List<scalar> 
102400
(
0.00275977
-0.000636349
-0.000454175
-0.000330059
-0.00266046
-0.00105255
0.00630736
0.00249976
-0.00227861
-0.00232108
-0.00251283
-0.000732275
-0.000105469
0.00334523
0.00436433
2.43341e-05
-0.00146654
0.00035427
0.00309949
0.00509833
0.00105452
-0.000358642
0.00108226
-0.00284518
-0.00304464
-0.00217595
-0.00106235
0.000647949
0.00281066
0.000686627
-0.000851259
-0.000987516
-0.000145408
0.0025661
0.000880145
-0.000213442
0.0032291
-0.000987121
0.000639081
0.00102461
-0.0162106
-0.0189984
-0.0172894
-0.0169907
-0.0221824
-0.0201086
-0.0128636
-0.0166809
-0.0200067
-0.0200246
-0.0212571
-0.019155
-0.018056
-0.014461
-0.0150331
-0.0181959
-0.020411
-0.0172368
-0.0132269
-0.0127308
-0.0188779
-0.0184712
-0.0170778
-0.0195109
-0.0185126
-0.0194004
-0.0178184
-0.0149968
-0.014439
-0.0168653
-0.0190924
-0.0187171
-0.0165664
-0.0143837
-0.0175227
-0.0172498
-0.0136131
-0.0182718
-0.0163401
-0.0176487
-0.00781839
-0.0103908
-0.00869874
-0.00915783
-0.0115779
-0.0122277
-0.00360828
-0.0098947
-0.012271
-0.013086
-0.0141223
-0.0121345
-0.00987338
-0.00651656
-0.00676194
-0.0121016
-0.0128594
-0.00934951
-0.00576191
-0.00467611
-0.0112791
-0.0126623
-0.0105702
-0.0142449
-0.0108563
-0.0115124
-0.00946475
-0.00820356
-0.00717888
-0.00873366
-0.0110152
-0.0117893
-0.00869498
-0.00723021
-0.0104466
-0.0116316
-0.00794186
-0.0111355
-0.0082923
-0.00886053
-0.0136215
-0.0158377
-0.015739
-0.014454
-0.0172814
-0.0165992
-0.00802649
-0.0111662
-0.017208
-0.0201208
-0.0188233
-0.0170899
-0.015277
-0.0104532
-0.00974993
-0.0167771
-0.0166469
-0.0153291
-0.012909
-0.0101455
-0.0148809
-0.0176682
-0.0150897
-0.0203364
-0.0188051
-0.0177867
-0.0180814
-0.0149136
-0.0120733
-0.0139535
-0.0176044
-0.0174815
-0.0155246
-0.0131827
-0.0160612
-0.0185166
-0.0136346
-0.0171761
-0.0127707
-0.0138606
-0.00876377
-0.0132931
-0.0119953
-0.00962578
-0.0144926
-0.0126293
-0.00439543
-0.0060545
-0.0124047
-0.0144597
-0.0126381
-0.0111907
-0.0110735
-0.00665513
-0.00450281
-0.0114338
-0.0119361
-0.0115758
-0.0075954
-0.00519982
-0.00972418
-0.0123839
-0.00949834
-0.0137704
-0.0140987
-0.0116905
-0.0140108
-0.0114254
-0.00691712
-0.00958598
-0.0128029
-0.0114048
-0.0114025
-0.00782602
-0.00912606
-0.0125898
-0.0088975
-0.0113707
-0.010734
-0.00835974
-0.0103205
-0.0161373
-0.0146352
-0.0123556
-0.0158085
-0.0152966
-0.00798415
-0.0109399
-0.0144897
-0.0171495
-0.0150797
-0.0128882
-0.0132212
-0.0111043
-0.00843773
-0.0143983
-0.0131803
-0.0135724
-0.0102435
-0.00881438
-0.0119452
-0.0141414
-0.0141015
-0.0169546
-0.0169322
-0.013742
-0.0139859
-0.0138357
-0.0105498
-0.012562
-0.0146916
-0.0143332
-0.0124466
-0.0101045
-0.0116672
-0.0142584
-0.0100797
-0.0135697
-0.0142974
-0.0132197
-0.00917316
-0.0156625
-0.0149711
-0.0114338
-0.0142869
-0.0119375
-0.0069271
-0.010009
-0.0137094
-0.0137299
-0.0147386
-0.0124614
-0.0114621
-0.00817731
-0.00661896
-0.0125551
-0.0113934
-0.0105053
-0.00922012
-0.00660467
-0.0106961
-0.0119407
-0.012672
-0.0159907
-0.0161063
-0.0134116
-0.0115425
-0.0110167
-0.00841974
-0.010232
-0.0124086
-0.0133439
-0.0109351
-0.0089244
-0.0108091
-0.0142445
-0.00864133
-0.0143268
-0.0116627
-0.0113161
-0.0091492
-0.0154615
-0.0166934
-0.013791
-0.016367
-0.0139836
-0.00803852
-0.0110606
-0.0167767
-0.0134477
-0.0143147
-0.014216
-0.0128097
-0.00851369
-0.00714524
-0.0132218
-0.0155109
-0.0101616
-0.0102002
-0.00693026
-0.0116191
-0.0121062
-0.0126604
-0.0174675
-0.0166877
-0.0160711
-0.0121604
-0.0120732
-0.0105097
-0.0124238
-0.0121272
-0.0136916
-0.0155256
-0.0105077
-0.0114638
-0.015897
-0.0113243
-0.0166909
-0.0130077
-0.0123212
-0.00809255
-0.0124478
-0.0150802
-0.0142941
-0.014721
-0.0136454
-0.00567326
-0.0091493
-0.0160658
-0.0120363
-0.0125833
-0.0105777
-0.0133865
-0.00985688
-0.00651785
-0.011456
-0.0143275
-0.0103624
-0.00975549
-0.00807992
-0.0112204
-0.0106733
-0.0103451
-0.0151627
-0.0149179
-0.0152488
-0.0104793
-0.0105243
-0.0118242
-0.0116276
-0.0114566
-0.0114144
-0.0135327
-0.00921418
-0.00937412
-0.0141972
-0.00926101
-0.0139004
-0.0128547
-0.0119987
-0.0096688
-0.0121933
-0.0131883
-0.0151362
-0.0148433
-0.013586
-0.00628879
-0.00901825
-0.0144375
-0.0113172
-0.0120356
-0.00989639
-0.0112145
-0.0115384
-0.00698445
-0.00892027
-0.0118246
-0.0116666
-0.010558
-0.00875969
-0.0121726
-0.0131449
-0.0100505
-0.0157435
-0.0158063
-0.0157594
-0.0119593
-0.00888383
-0.0120404
-0.0136215
-0.0134376
-0.0108462
-0.0100217
-0.0110718
-0.011178
-0.0137851
-0.00956692
-0.0113889
-0.0141441
-0.0125838
-0.0082788
-0.00991125
-0.00977991
-0.0138838
-0.0137506
-0.0113684
-0.00533713
-0.00787631
-0.0124358
-0.0109741
-0.0109692
-0.00893799
-0.0102252
-0.0102489
-0.00789396
-0.00871053
-0.0103699
-0.0104862
-0.00872735
-0.00777333
-0.010981
-0.0123513
-0.00806128
-0.0147104
-0.0160575
-0.0137422
-0.0114377
-0.00867356
-0.00950086
-0.0135173
-0.013657
-0.0117143
-0.00920509
-0.0088276
-0.0102117
-0.0127539
-0.0115798
-0.0110349
-0.0106171
-0.012223
-0.00832726
-0.00792487
-0.00907968
-0.0117516
-0.0139672
-0.0120577
-0.00566676
-0.00744766
-0.0121336
-0.0120301
-0.0121119
-0.0109429
-0.010199
-0.0102656
-0.00909684
-0.00874608
-0.0101854
-0.0106272
-0.00940356
-0.00922051
-0.0118808
-0.0123491
-0.0101605
-0.0130602
-0.0135116
-0.0133776
-0.0116639
-0.0085178
-0.00791745
-0.0126096
-0.0138919
-0.0117163
-0.00899109
-0.00917989
-0.00909851
-0.0129069
-0.0124783
-0.0114977
-0.0105586
-0.0128836
-0.00605103
-0.00652116
-0.00855697
-0.010991
-0.0123372
-0.012394
-0.00718409
-0.00796044
-0.0112706
-0.0131218
-0.0112201
-0.0119964
-0.00974669
-0.00870121
-0.00712177
-0.0101059
-0.00915482
-0.00903027
-0.00756247
-0.010202
-0.0124541
-0.0111326
-0.0100008
-0.0117383
-0.0098989
-0.0104219
-0.0130176
-0.0102389
-0.00767622
-0.0115634
-0.0149628
-0.0137179
-0.00806831
-0.00944931
-0.0095074
-0.0107933
-0.0129038
-0.0106797
-0.0109123
-0.0128655
-0.00692034
-0.00620458
-0.00593794
-0.0112535
-0.0128999
-0.0105232
-0.0060081
-0.00782897
-0.00811052
-0.00985081
-0.0132957
-0.00997121
-0.0093575
-0.0094357
-0.00680263
-0.00768914
-0.00968241
-0.00736155
-0.00731208
-0.0110411
-0.0112868
-0.0124978
-0.00739421
-0.00846634
-0.0121169
-0.0108478
-0.00893725
-0.0100833
-0.00763391
-0.0119728
-0.0109441
-0.0142066
-0.00978788
-0.00876458
-0.0100054
-0.0111388
-0.0132141
-0.00756041
-0.00856925
-0.0121921
-0.00606881
-0.00593379
-0.00517473
-0.00716802
-0.0123248
-0.0103502
-0.00385124
-0.00804746
-0.0083287
-0.00760576
-0.011881
-0.00867845
-0.00882929
-0.00831503
-0.00710388
-0.00460779
-0.00756547
-0.00765811
-0.00552261
-0.011941
-0.0100054
-0.0117048
-0.00882879
-0.00757926
-0.0103682
-0.0116064
-0.007905
-0.0062109
-0.00573526
-0.0100182
-0.00794718
-0.0120157
-0.00963349
-0.00911045
-0.00751022
-0.0104248
-0.0106732
-0.00853982
-0.00803286
-0.00982958
-0.0035076
-0.00685305
-0.00534603
-0.00622055
-0.00957404
-0.0105476
-0.00375125
-0.0083071
-0.00773055
-0.00536822
-0.0121542
-0.00641904
-0.00622473
-0.00965613
-0.00634268
-0.00264279
-0.00760907
-0.00698067
-0.00436369
-0.00862103
-0.0118023
-0.00895535
-0.00797868
-0.00796608
-0.00828503
-0.0127792
-0.00870827
-0.00501294
-0.00507906
-0.00907145
-0.007645
-0.00933305
-0.00596477
-0.0060894
-0.00601816
-0.00826478
-0.0114267
-0.00763316
-0.00889167
-0.0079876
-0.00445899
-0.00494898
-0.00382275
-0.00676549
-0.0100191
-0.0109902
-0.00350581
-0.00310086
-0.00743783
-0.00479646
-0.0107696
-0.0074723
-0.00387983
-0.00702216
-0.00693652
-0.00202989
-0.00473309
-0.00427934
-0.00489708
-0.00727966
-0.00744614
-0.00771052
-0.00608716
-0.00558694
-0.00734383
-0.00712005
-0.00940106
-0.00611677
-0.00234308
-0.00760186
-0.00745953
-0.00892606
-0.00412494
-0.00312835
-0.00370224
-0.00512873
-0.00921531
-0.00600149
-0.00526318
-0.0117728
-0.00515861
-0.004288
-0.00384999
-0.00368426
-0.00924312
-0.00787121
-0.00465546
-0.00455605
-0.00624514
-0.00369641
-0.00758653
-0.00468741
-0.00453661
-0.00664556
-0.00601978
-0.002455
-0.00377874
-0.00357943
-0.00508231
-0.00507416
-0.00845051
-0.00641068
-0.00546514
-0.00335061
-0.00593516
-0.00667658
-0.0058411
-0.00368605
-0.0030565
-0.0061636
-0.00486617
-0.00867052
-0.00474531
-0.00382913
-0.00460933
-0.00512383
-0.00671128
-0.00556579
-0.00593497
-0.00720087
-0.00359285
-0.00185239
-0.00439623
-0.00442207
-0.00498998
-0.00606388
-0.00221769
-0.00167606
-0.00267459
-0.00121105
-0.00628641
-0.00609473
-0.00423206
-0.00585899
-0.00381232
-0.00147094
-0.00194168
-0.00280889
-0.00499149
-0.00363654
-0.00674872
-0.00607978
-0.00479347
-0.00263965
-0.00484342
-0.00726999
-0.00504637
-0.00171936
-0.00292328
-0.00618364
-0.00289291
-0.00511713
-0.00301722
-0.00490375
-0.00441671
-0.00390587
-0.00619733
-0.00422872
-0.00466332
-0.00353944
-0.00216836
-0.00206746
-0.00423568
-0.00359425
-0.0038684
-0.00312269
-0.00144231
-0.000808053
-0.000528564
-0.0022711
-0.00490982
-0.00533068
-0.00316269
-0.00437121
-0.00178713
-0.000833425
-0.00213558
-0.00256681
-0.000684829
-0.00216554
-0.00439425
-0.00607664
-0.00352934
-0.000470382
-0.00427113
-0.0047696
-0.00441283
-0.00110029
-0.00286142
-0.00547378
-0.00242484
-0.00350407
-0.00224815
-0.00204957
-0.00348983
-0.00431944
-0.006793
-0.00280447
-0.00285319
-0.0027043
-0.00146143
-0.000923818
-0.00184813
-0.00298219
-0.00304155
-0.00140886
0.000549985
0.00163084
0.000804179
-0.000442117
-0.00275724
-0.00541463
-0.00372378
-0.00232175
-0.00192298
0.000648305
-0.00172577
-0.00528192
-0.00155223
-0.00260523
-0.00203693
-0.00439844
-0.00386445
-0.00122809
-0.00210259
-0.00355588
-0.00338349
0.000638169
-0.000941903
-0.00315631
0.000654896
-0.000825018
-0.0015788
-0.000560262
-0.00232249
-0.00320706
-0.00554713
-0.00241644
-0.00116791
-0.00110298
-0.0015109
-0.00191427
-0.00143749
-0.00144952
-0.00276284
-0.000950567
-0.000221039
0.000836686
0.00128472
-0.000284246
-0.00352553
-0.00558449
-0.00299078
-0.00204509
-0.00166447
0.00164816
-0.00138967
-0.00411383
0.000565199
-0.00136645
-0.00273829
-0.00378997
-0.00228449
6.06954e-05
-0.00159576
-0.00159183
-0.00143517
0.000875411
-0.00073542
-0.00114062
0.000263656
0.000608847
-0.00160915
0.000144726
-0.00286726
-0.0047167
-0.00376894
-0.00210477
-0.00095119
-0.00170571
-0.000844952
-0.000762502
-0.00133858
-0.0013273
-0.00207245
-0.000973739
0.000102119
0.00170742
0.000756338
-0.00105474
-0.00300989
-0.00503729
-0.00143078
0.000697571
-0.00159639
0.000216184
-0.00114796
-0.00414829
-0.00036248
0.000883089
2.108e-05
-0.00268705
-0.00285492
0.000195874
-0.00107163
-0.00201039
-0.00149214
0.000306984
1.32557e-05
-0.000189468
0.00072234
0.00092091
3.2333e-05
-0.00113478
-0.0019766
-0.00448627
-0.0032936
-0.000757765
4.92498e-05
-0.00128313
-0.00129381
-1.24982e-05
-0.000341738
-0.000602596
-0.00149933
-0.00065572
5.25795e-05
0.0014438
0.000982525
-0.000237269
-0.00259666
-0.00406739
-0.000784842
-0.000590044
-0.000567514
-0.00042963
-0.000590451
-0.00167175
-0.00099683
-0.000434615
-0.000824253
-0.00159209
-0.00110569
0.000132253
-0.00101839
-0.00180199
-0.00197691
0.000166192
-1.99174e-05
-0.00136094
0.000909597
0.00064918
0.00028318
-0.000136836
-0.000844715
-0.00373518
-0.00287012
-0.000155046
0.000133296
-0.000796294
-0.000549081
-0.000301946
-0.000136051
-0.000528071
-0.00091646
2.58976e-08
7.99413e-05
0.000971659
0.00042081
-0.000474016
-0.000908352
-0.00186398
0.000202812
-0.000143915
-0.000740705
0.000318092
-0.000903239
-0.000518269
-0.000908188
0.000284576
0.000250475
-0.00117685
-0.000458691
0.000310387
-0.000798319
-0.000439248
-0.000853642
-0.000509928
0.000610416
-0.000419638
0.000832359
0.000698816
0.000302522
-0.000716402
-0.00111368
-0.00217698
-0.00233278
-0.000306701
-7.38986e-05
8.27023e-05
-0.00021929
-3.29823e-08
-0.000313786
-0.000289693
-0.000770284
0.000262746
0.00035509
0.000831184
0.000452865
0.000318472
-0.000954348
-0.00176804
-6.28675e-05
0.000413062
-0.000268293
0.00053087
-0.000967782
-0.00105844
-0.000370139
-0.000578764
0.000205601
-0.000238881
-0.000363203
0.000259905
-0.000723088
-0.000770479
0.000422198
3.32367e-05
-7.65134e-05
-4.82895e-05
0.000991142
0.000557924
0.000445124
-0.000916351
-0.000799797
-0.000305843
-0.00109642
-0.00109491
-0.000757024
-0.000548829
-0.000693432
2.47459e-05
-2.67043e-05
-0.000307174
-0.000420291
0.000277434
0.00062121
0.000579509
0.000777518
0.00077549
3.86767e-06
-0.00148451
-0.000130944
1.19235e-05
-5.23021e-05
0.000528405
-0.000238342
-0.00023004
-0.000455058
-0.000634522
0.000440112
5.97726e-05
3.54228e-05
0.000338158
-4.16725e-06
0.00021414
0.000502759
0.00032164
6.95724e-05
3.67426e-06
0.000612184
0.000712417
0.000501803
-0.000184043
0.000292614
0.000733015
8.40953e-05
-1.63449e-05
-0.000379517
-0.000470092
-0.000145223
-6.8389e-06
0.000242408
-0.000127751
-0.0003223
0.000303153
0.000632515
0.000413291
0.000736224
0.000795633
0.000329421
-0.00111771
-0.000121158
0.00064091
6.00959e-05
0.000480271
3.65876e-05
0.000112889
7.39862e-05
-0.000268972
0.000259673
0.000309409
-2.39161e-05
0.00028468
5.91036e-05
8.77467e-05
0.00067244
0.000517391
0.000336067
0.000353708
0.000551833
0.000545024
0.000528978
2.91717e-05
5.6444e-05
0.000637859
0.000390352
0.000237514
2.99791e-06
0.000106952
0.000389313
7.76493e-05
0.000263383
0.000109225
-9.02304e-05
0.00013939
0.000304205
0.000377563
0.000455072
0.000823613
0.000596225
-4.68284e-05
-9.34896e-05
0.00039531
0.000245988
0.000621133
0.000493494
0.000304366
0.000472099
0.000227117
0.000342005
0.000293962
9.23628e-05
0.000200358
0.000201969
0.000216894
0.000342535
0.000393721
0.000310368
0.00023569
0.000418299
0.000509469
0.000437238
0.000281415
0.000211857
0.000507297
0.000391338
0.000332446
0.000250207
0.000389832
0.000483461
0.000400771
0.000495859
0.000476983
0.000464218
0.000529313
0.000527609
0.000602174
0.00062192
0.000584406
0.000372522
0.000120051
0.000373055
0.00059185
0.000459942
0.000715856
0.00048201
0.000427454
0.000466053
0.000343056
0.000455596
0.000390731
0.000373418
0.000453859
0.000443401
0.000458629
0.000558209
0.000594581
0.000602427
0.000585904
0.000619035
0.000612831
0.000590662
0.000533715
0.000504911
0.000498127
0.000418684
0.000414242
0.000429228
0.000481787
0.000253114
0.000247555
0.000375839
0.000430133
0.000545207
0.000674765
0.000754359
0.000765323
0.00083841
0.000405254
3.71106e-05
0.000140539
0.000298204
0.00055963
0.000564532
0.000631263
0.000333474
0.000456042
0.00045328
0.000341817
0.000471772
0.000392865
0.000415677
0.000497563
0.000492174
0.000488816
0.000490384
0.000491724
0.000503672
0.00055707
0.000582001
0.000530192
0.000502932
0.000491854
0.000497983
0.000375322
0.000290052
0.000332437
0.000336961
0.000338357
0.000549153
0.000543237
0.000569949
0.000583897
0.000612219
0.000644418
0.000673808
0.000683998
0.000719872
0.000713773
0.000622981
0.000627594
0.000597772
0.000632975
0.000633786
0.000678942
0.000632489
0.000606963
0.000607651
0.000586922
0.000586927
0.000576112
0.000578484
0.000584336
0.000611653
0.000639151
0.000661334
0.000680056
0.000687431
0.000694901
0.000685462
0.000667214
0.000653648
0.0006182
0.000602512
0.000578772
0.000540667
0.000524797
0.00052677
0.000527798
-0.00259583
-0.000290579
-0.00216974
-0.00790767
-0.00460431
-0.0013319
0.00276419
-0.000919527
-0.00451541
-0.00438955
-0.00325951
-0.00155547
-0.00249338
-0.0029176
-0.00215044
-0.00249812
0.000304456
-0.00173018
-0.00339362
-0.00268023
-0.00281453
-0.00173987
-0.00236039
-0.00348716
-0.00207921
-0.00176528
-0.000135141
-0.000116881
-0.00327227
-0.00354689
-0.00305474
-0.00261777
-0.000544124
-8.42244e-06
-0.00322984
-0.00177981
-0.00074999
-0.00299301
-0.00168669
-0.00288836
-0.0233376
-0.0185528
-0.0231188
-0.0268748
-0.0242272
-0.0195349
-0.0165549
-0.0213288
-0.0250835
-0.0241364
-0.0208972
-0.0217773
-0.0215949
-0.0214128
-0.0211143
-0.020549
-0.0189093
-0.0200901
-0.0229062
-0.0218249
-0.0219916
-0.0220002
-0.0217248
-0.0230589
-0.0209038
-0.0210422
-0.0206131
-0.0210161
-0.0236535
-0.0244484
-0.0218394
-0.023208
-0.0201981
-0.0202922
-0.0237615
-0.0211957
-0.0209079
-0.0227092
-0.0213073
-0.022195
-0.014391
-0.0110915
-0.0135055
-0.0201123
-0.0169075
-0.0128778
-0.00846197
-0.0111977
-0.0160466
-0.0175429
-0.0150869
-0.012457
-0.0153967
-0.0147961
-0.0138352
-0.0127523
-0.0103596
-0.0138436
-0.0153629
-0.0150933
-0.0135515
-0.0132681
-0.0141283
-0.0162496
-0.013055
-0.0137977
-0.0115425
-0.0117445
-0.0153788
-0.0169705
-0.0132409
-0.0133333
-0.0112024
-0.0118205
-0.0151377
-0.013867
-0.0121483
-0.0141354
-0.0142025
-0.0132444
-0.017584
-0.0155873
-0.0186356
-0.0259047
-0.0217325
-0.018246
-0.0126549
-0.0159898
-0.0189114
-0.0201604
-0.0198285
-0.0166816
-0.01966
-0.0209273
-0.0193608
-0.0184165
-0.0156701
-0.0195016
-0.0201869
-0.0208622
-0.0182939
-0.016653
-0.0176486
-0.0203206
-0.019247
-0.0174887
-0.0163398
-0.0162193
-0.0189464
-0.0189882
-0.0181841
-0.0175637
-0.0159833
-0.0153767
-0.0194661
-0.0186803
-0.0158361
-0.019688
-0.0176484
-0.0185656
-0.0134132
-0.00919839
-0.0132667
-0.0200679
-0.015669
-0.0134119
-0.00851064
-0.0123001
-0.0142295
-0.015275
-0.0140153
-0.011943
-0.0131319
-0.0156797
-0.0147037
-0.0140313
-0.0102832
-0.0145642
-0.0154878
-0.0142784
-0.0145914
-0.0124724
-0.0131423
-0.0142159
-0.0152816
-0.0126972
-0.0107353
-0.0133368
-0.0150941
-0.0150381
-0.0154944
-0.0140009
-0.0113793
-0.0114206
-0.0162919
-0.0146745
-0.0121198
-0.0154631
-0.0135233
-0.0141794
-0.0173549
-0.012729
-0.0146468
-0.0201715
-0.0173134
-0.0150102
-0.011047
-0.0156008
-0.0167633
-0.019266
-0.0172705
-0.0151798
-0.0157224
-0.0163901
-0.0158663
-0.0160622
-0.0121916
-0.0164842
-0.0176979
-0.0156711
-0.0169594
-0.0146188
-0.0176524
-0.0162627
-0.0159916
-0.0149456
-0.0128758
-0.0141261
-0.0180571
-0.0179399
-0.0174954
-0.0154378
-0.0125924
-0.0140202
-0.0174134
-0.0159308
-0.0132466
-0.0172786
-0.0172821
-0.0172967
-0.0165223
-0.0145281
-0.0135192
-0.0191208
-0.0154698
-0.0126438
-0.010014
-0.0130678
-0.0153676
-0.0179368
-0.0156555
-0.0146919
-0.0146186
-0.015145
-0.0144289
-0.0155464
-0.0115544
-0.0137963
-0.0160517
-0.0153908
-0.0152021
-0.0138311
-0.0153392
-0.015959
-0.0151574
-0.0137795
-0.0117468
-0.0114491
-0.0167134
-0.0166351
-0.0149189
-0.0143898
-0.0122152
-0.0126707
-0.0153055
-0.0142858
-0.0127315
-0.0157589
-0.0147479
-0.0169524
-0.0160216
-0.0164156
-0.0156301
-0.0217186
-0.0175598
-0.0142293
-0.0117003
-0.0138115
-0.0169594
-0.016767
-0.0159945
-0.0146657
-0.0159465
-0.0167959
-0.0166221
-0.0172828
-0.0134582
-0.0149912
-0.0173941
-0.0182641
-0.0153689
-0.015209
-0.0150243
-0.018041
-0.0160835
-0.0145381
-0.0127537
-0.013383
-0.0178584
-0.0185879
-0.0170197
-0.0149283
-0.013311
-0.0135711
-0.0164647
-0.0152075
-0.0138297
-0.0161587
-0.0157379
-0.0168486
-0.0129895
-0.0120565
-0.0144301
-0.0208852
-0.0183833
-0.0135093
-0.0104417
-0.0133697
-0.0193191
-0.0153092
-0.0130079
-0.0130246
-0.0151167
-0.0142983
-0.0141893
-0.015253
-0.0123575
-0.013497
-0.0155817
-0.0173889
-0.0136076
-0.0120805
-0.01329
-0.0173612
-0.014366
-0.0149087
-0.0125034
-0.0126552
-0.0156155
-0.0184614
-0.0159608
-0.0154532
-0.0123963
-0.0131167
-0.0143551
-0.0142113
-0.0124177
-0.0157133
-0.0141688
-0.0146641
-0.0141218
-0.0121368
-0.0137803
-0.0183793
-0.0181825
-0.0142575
-0.00914693
-0.0137898
-0.0200511
-0.0165307
-0.0140019
-0.0136745
-0.0142411
-0.0139947
-0.0138876
-0.0135014
-0.0134745
-0.0152945
-0.0165855
-0.0150047
-0.0147399
-0.0125303
-0.0147821
-0.0175413
-0.0139259
-0.0158611
-0.0145589
-0.0139287
-0.0152526
-0.017346
-0.0149066
-0.0152301
-0.0146765
-0.0130471
-0.015524
-0.0145399
-0.0116082
-0.0179124
-0.0145846
-0.0152993
-0.0114267
-0.0124106
-0.0140422
-0.0170894
-0.0162184
-0.012896
-0.00682923
-0.0109995
-0.0171686
-0.0155304
-0.0140281
-0.0120834
-0.0136077
-0.0117817
-0.0130959
-0.0136821
-0.0139056
-0.0137565
-0.0168209
-0.0134882
-0.0130324
-0.0128891
-0.0132319
-0.0170147
-0.0128834
-0.0128545
-0.0126287
-0.0130006
-0.0156511
-0.0157171
-0.0150695
-0.0134076
-0.0128375
-0.0123858
-0.014902
-0.013493
-0.0111351
-0.0175352
-0.0139316
-0.0143731
-0.0107343
-0.0110885
-0.0137793
-0.017492
-0.0153227
-0.0142924
-0.00659905
-0.0102732
-0.017909
-0.0156793
-0.0144588
-0.0116374
-0.0139856
-0.0128842
-0.0116812
-0.014566
-0.0144796
-0.0121374
-0.0157273
-0.0145412
-0.012393
-0.0149037
-0.0127936
-0.0156811
-0.0141686
-0.0126972
-0.0124775
-0.0131979
-0.0147555
-0.014586
-0.0161069
-0.0144742
-0.0120541
-0.0127129
-0.0159598
-0.0151236
-0.0104962
-0.0144447
-0.014062
-0.0133661
-0.0108883
-0.0112
-0.011955
-0.0164712
-0.0158529
-0.0120875
-0.00632902
-0.00972574
-0.0172647
-0.0155025
-0.0129964
-0.0123023
-0.0135988
-0.0109685
-0.010334
-0.0142347
-0.0138574
-0.0108535
-0.0132643
-0.0148359
-0.0118112
-0.0124834
-0.013821
-0.0134737
-0.0146926
-0.0123013
-0.0114541
-0.0126574
-0.0154012
-0.0149973
-0.0142905
-0.0128416
-0.0118191
-0.0111531
-0.0146182
-0.0132545
-0.00779871
-0.0136897
-0.0142905
-0.0117134
-0.00940277
-0.0096837
-0.0108265
-0.0152003
-0.0159953
-0.00891101
-0.00494174
-0.00769494
-0.0157324
-0.0150325
-0.0125901
-0.0114977
-0.0126524
-0.0107032
-0.0106875
-0.0112502
-0.0121015
-0.0088191
-0.0115847
-0.0165622
-0.0118551
-0.010889
-0.0103976
-0.0125199
-0.0136982
-0.0118589
-0.0101012
-0.0112155
-0.0150361
-0.014557
-0.0132384
-0.00978414
-0.00719287
-0.00889803
-0.0160974
-0.0136742
-0.00791594
-0.01311
-0.0141118
-0.0115832
-0.00892385
-0.00687186
-0.0100096
-0.0141857
-0.0148618
-0.00907747
-0.0057991
-0.00662875
-0.0133289
-0.0135911
-0.00964842
-0.0124382
-0.0115991
-0.0114053
-0.00977314
-0.0105172
-0.0107508
-0.00793452
-0.00991313
-0.0143714
-0.0104829
-0.00932207
-0.00954755
-0.00956684
-0.0131214
-0.0105841
-0.00854671
-0.00946854
-0.0131815
-0.0142582
-0.0108086
-0.00933397
-0.00774941
-0.00911003
-0.0123508
-0.0139123
-0.00991219
-0.0118385
-0.0110159
-0.0112941
-0.00803035
-0.00828858
-0.00905282
-0.0121681
-0.0133518
-0.00913888
-0.00476504
-0.00632773
-0.0097238
-0.0134683
-0.00986445
-0.00879853
-0.0109598
-0.0114161
-0.0101738
-0.00803981
-0.00909926
-0.00816811
-0.00817327
-0.0135234
-0.0133452
-0.0108195
-0.00739704
-0.00875937
-0.00930404
-0.0103342
-0.00786062
-0.00762821
-0.00983345
-0.0126502
-0.00799744
-0.00954834
-0.00619733
-0.00782224
-0.0132575
-0.0114903
-0.0106143
-0.0129064
-0.0111431
-0.0101006
-0.00467649
-0.00599102
-0.00741208
-0.0124275
-0.0116987
-0.00895589
-0.00664788
-0.0062026
-0.00685105
-0.0126613
-0.0101988
-0.00644315
-0.00851028
-0.00818837
-0.00835839
-0.00759909
-0.00908569
-0.00693336
-0.00683082
-0.0113169
-0.0107003
-0.0110203
-0.00819049
-0.00692164
-0.00724735
-0.0105117
-0.0079516
-0.00637908
-0.00827004
-0.00983888
-0.00798679
-0.0083285
-0.00731142
-0.00703513
-0.0111478
-0.0128597
-0.0106571
-0.0111328
-0.00900079
-0.0105814
-0.00573532
-0.00485982
-0.00659393
-0.00886476
-0.00996368
-0.00657172
-0.00286697
-0.00704165
-0.00570845
-0.0108375
-0.00896272
-0.00514069
-0.00567656
-0.00796521
-0.00781078
-0.0065652
-0.00833417
-0.00491888
-0.00755737
-0.00850481
-0.00949105
-0.00866371
-0.0072037
-0.00748538
-0.00752808
-0.00717721
-0.00604311
-0.00741783
-0.00615408
-0.0106679
-0.00667562
-0.00695435
-0.00702531
-0.00528261
-0.00973501
-0.0109831
-0.00727076
-0.00661298
-0.00813437
-0.00926948
-0.00602626
-0.00423322
-0.00442263
-0.00636547
-0.00746519
-0.00475869
-0.00236975
-0.00441006
-0.00499206
-0.00792231
-0.00955412
-0.00563081
-0.00458874
-0.00583253
-0.00683385
-0.00451851
-0.00630367
-0.00434426
-0.00557515
-0.00775838
-0.00661382
-0.00888097
-0.00643682
-0.00495213
-0.00751067
-0.00703674
-0.00599731
-0.00400531
-0.00490256
-0.00720027
-0.00421033
-0.00396166
-0.00494536
-0.00700225
-0.00842463
-0.00778984
-0.005776
-0.00689896
-0.00581414
-0.00492995
-0.00386373
-0.00478529
-0.00407068
-0.00402951
-0.00605489
-0.00372247
-0.00112893
-0.0031049
-0.00297557
-0.00509062
-0.00815533
-0.00511768
-0.00255163
-0.00583202
-0.00562739
-0.00330158
-0.00267797
-0.00346259
-0.00313704
-0.00439491
-0.00493911
-0.00731148
-0.00473965
-0.00309192
-0.00640517
-0.00467877
-0.00229239
-0.00104806
-0.00299533
-0.00755185
-0.00389814
-0.00123173
-0.00367001
-0.00392252
-0.00721025
-0.00792053
-0.00570383
-0.00623596
-0.0043664
-0.00330328
-0.00284408
-0.00323186
-0.00283504
-0.00219376
-0.00302815
-0.0027121
-0.00086251
-0.00132747
-0.000926288
-0.00284002
-0.00593839
-0.00354593
-0.00307402
-0.00310556
-0.00470571
-0.00266641
-0.00181058
-0.00301924
-0.00194797
-0.00361967
-0.00370378
-0.00488255
-0.00266204
-0.00300642
-0.00458333
-0.00324348
-0.00191177
-0.000807644
-0.00184748
-0.00593288
-0.00338103
-0.00137831
-0.00395621
-0.00231959
-0.00485931
-0.00580912
-0.00425906
-0.00435925
-0.00421506
-0.000966268
-0.0025913
-0.00263681
-0.0026957
-0.00177869
-0.00245154
-0.00181681
0.000297421
0.000416282
-0.00101887
-0.00244337
-0.00388584
-0.00421025
-0.00190253
-0.00229624
-0.00295951
-0.00231446
-0.00127569
-0.00225572
-0.00124048
-0.00161365
-0.00238569
-0.00352201
-0.00209773
-0.00128044
-0.00244104
-0.00332305
-0.00195705
-0.000185726
-0.000987857
-0.003288
-0.00208706
-0.00222487
-0.00214581
-0.000634122
-0.00448273
-0.0060505
-0.00386212
-0.0028984
-0.00270869
-0.000859801
-0.00130169
-0.00120943
-0.00223146
-0.00108196
-0.00101308
-0.000240422
4.25063e-05
0.000562823
-0.0010475
-0.00149587
-0.00305577
-0.00332369
-0.00113717
-0.00201697
-0.000835257
-0.00299803
-0.00263717
-0.00185518
0.000185673
-0.00168477
-0.00245941
-0.00141784
-0.00176851
-0.00118904
-0.00154737
-0.00173379
-0.000697628
0.000145822
-0.000523146
-0.001196
-0.00049758
-0.000160144
-0.00102958
-0.00102859
-0.00293972
-0.00457079
-0.00324047
-0.00128774
-0.00121343
-0.000446441
-0.00172447
-0.000564415
-0.00133933
-0.000784116
-0.00128575
-9.67972e-05
-0.000112852
0.000149269
-0.000818677
-0.0013749
-0.00257657
-0.00260957
-0.000276806
-0.00218565
-0.00105294
-0.00288977
-0.00283148
-0.000987088
-0.000428568
-0.00115907
-0.00207745
-0.00110765
-0.000924217
-0.000914386
-0.00157135
-0.00160574
-0.00142092
-0.000188617
-0.000855329
-0.00172265
-0.00106752
-0.000347385
-0.000120664
-0.000710446
-0.00206363
-0.00353184
-0.00213627
-0.00046453
-0.000884194
-0.00058952
-0.00105517
-0.00085201
-0.000874571
-0.000744542
-0.000822137
-0.000176794
0.000176316
0.000528022
-0.000598642
-0.00117054
-0.00163452
-0.00191787
-0.000355743
-0.00164417
-0.0012088
-0.00179602
-0.00229607
-0.00100995
-0.000754688
-0.00114306
-0.00117372
-0.00128314
-0.000720414
-0.000663179
-0.000626057
-0.00107835
-0.00131309
0.000334624
0.000126289
-0.000463409
-0.000280827
-0.000202907
-0.000235616
-0.000688417
-0.00107729
-0.00202913
-0.00218689
-0.000972696
-0.00109373
-0.000554276
-0.000844343
-0.000616353
-0.000962614
-0.000597092
-0.00101932
-0.000277916
5.69625e-05
0.00042731
-0.000517113
-0.00114526
-0.00163346
-0.00185214
-0.000285861
-0.00140883
-0.000218878
-0.000461892
-0.00144129
-0.000891837
-0.000667462
-0.000991185
-0.000977814
-0.000910052
-0.000419177
-0.000563377
-0.000804903
-0.000780549
-0.000794388
-0.000261479
6.02057e-05
-0.000261424
7.93266e-05
-0.000411967
-0.000197898
-0.000447994
-0.000821975
-0.00165047
-0.00131778
-0.000678374
-0.00132797
-0.00060386
-0.000638842
-0.000461104
-0.000705448
-0.000491196
-0.000547865
-8.93656e-05
6.00877e-05
0.00023968
-0.000175646
-0.00073906
-0.000807076
-0.00139746
-9.44961e-05
-0.000798598
-0.000410404
-0.000240665
-0.00077302
-0.000315765
4.49689e-05
-0.000511558
-0.000577694
-0.000578172
-0.000109299
-0.000232817
-0.000396357
-0.000401955
-0.00052819
0.00025338
0.000110001
-0.000133242
0.000418842
-4.74059e-05
0.000154313
0.000109354
-0.000260059
-0.000763526
-0.000669319
-0.000821197
-0.000781637
-0.000157938
-0.000639426
-0.000588725
-0.000597425
-0.000438699
-0.000564671
-0.00027257
-0.000228148
-4.6389e-05
-0.000291444
-0.000544997
-0.00094106
-0.00166195
-0.000379439
-0.000789195
-0.000154931
-0.000167013
-0.000580238
-0.000293304
-9.01703e-05
-0.000484277
-0.00038793
-0.000595682
-0.000335898
-0.000423869
-0.000469671
-0.000392152
-0.00015524
-0.000259632
-7.96239e-05
-0.000330025
0.000148114
-0.00024874
7.12477e-06
-0.000251452
-0.000283378
-0.000496533
-0.000688612
-0.000683821
-0.000788714
-0.000482271
-0.000204025
-0.000124774
-0.000203001
1.21403e-05
2.66913e-05
0.00017607
4.4433e-05
0.000161334
0.000213531
-0.00011141
-0.000305813
-0.000859255
-7.30411e-05
-0.000117889
0.000105855
0.000228829
5.67718e-05
0.00015055
0.000193373
-6.56963e-05
7.78484e-05
-7.83823e-05
-5.83891e-06
-7.07304e-06
2.2552e-05
0.000100214
4.79093e-05
0.000143147
0.000187869
0.0001758
0.000266325
0.000222391
0.000185129
3.77151e-05
0.000182067
-7.46601e-05
-0.000297379
-0.000272234
-0.00029117
-0.000124103
-0.000616533
-0.00057235
-0.000652124
-0.000588597
-0.000631587
-0.000626931
-0.000639984
-0.000659944
-0.000470405
-0.000862627
-0.00067088
-0.00118752
-0.000524678
-0.000773557
-0.000489505
-0.000505998
-0.000535624
-0.000558572
-0.000509418
-0.000549062
-0.000539398
-0.000590511
-0.000573079
-0.000546407
-0.00050228
-0.00046629
-0.000404623
-0.000430753
-0.000381951
-0.00043479
-0.000411224
-0.000442723
-0.000480723
-0.000528391
-0.000490881
-0.000552672
-0.000707601
-0.000653582
-0.000670648
-0.00056971
3.23567e-05
5.76389e-05
5.361e-05
0.000111794
0.000151844
0.000184915
0.000242507
0.000150889
0.000221047
-7.11181e-05
7.68818e-05
-1.25464e-05
0.000133888
0.000133383
0.000159517
0.000154438
0.000150395
0.000158188
0.000162093
0.000127603
0.000118559
9.45298e-05
0.000106207
0.000123576
0.000140762
0.000167465
0.000190789
0.000211566
0.000242726
0.000251021
0.000253841
0.000243239
0.000223445
0.000202165
0.000162882
0.000120747
6.24332e-05
4.77987e-05