/*--------------------------------*- C++ -*----------------------------------*\
  =========                 |
  \\      /  F ield         | OpenFOAM: The Open Source CFD Toolbox
   \\    /   O peration     | Website:  https://openfoam.org
    \\  /    A nd           | Version:  10
     \\/     M anipulation  |
\*---------------------------------------------------------------------------*/
FoamFile
{
    format      ascii;
    class       volVectorField;
    location    "60";
    object      UMean;
}
// * * * * * * * * * * * * * * * * * * * * * * * * * * * * * * * * * * * * * //

dimensions      [0 1 -1 0 0 0 0];

internalField   nonuniform List<vector> 
25600
(
(1.06011 1.826e-05 3.04711e-05)
(1.06012 3.18317e-05 1.87339e-05)
(1.06012 3.93832e-05 6.51025e-06)
(1.06011 4.09485e-05 -3.68046e-06)
(1.06009 4.33664e-05 -1.4863e-05)
(1.06006 4.04763e-05 -2.53773e-05)
(1.06003 3.58008e-05 -3.49041e-05)
(1.06001 2.52957e-05 -4.66955e-05)
(1.05999 5.30955e-06 -5.60724e-05)
(1.05997 -2.18503e-05 -6.30901e-05)
(1.05996 -5.45171e-05 -7.1151e-05)
(1.05994 -9.23606e-05 -7.25782e-05)
(1.05993 -0.000142903 -7.23756e-05)
(1.05993 -0.000181392 -7.29689e-05)
(1.05992 -0.000218345 -6.46167e-05)
(1.05992 -0.000249864 -5.73014e-05)
(1.05992 -0.000262319 -4.8282e-05)
(1.05991 -0.000274709 -3.2703e-05)
(1.0599 -0.000279264 -2.38666e-05)
(1.05989 -0.000280967 -1.17034e-05)
(1.05987 -0.000283576 -2.75648e-06)
(1.05985 -0.000281179 4.53347e-06)
(1.05984 -0.000280157 7.48652e-06)
(1.05984 -0.000265522 7.59792e-06)
(1.05984 -0.000259758 8.11364e-06)
(1.05986 -0.000242065 5.31341e-06)
(1.05987 -0.000226349 7.55913e-06)
(1.05989 -0.00021603 9.04106e-06)
(1.0599 -0.000199269 1.88722e-05)
(1.05992 -0.000187926 2.85366e-05)
(1.05993 -0.000172757 3.77735e-05)
(1.05993 -0.000156131 4.81933e-05)
(1.05994 -0.000144099 5.41583e-05)
(1.05994 -0.00012029 5.98345e-05)
(1.05995 -0.000101852 6.06006e-05)
(1.05997 -8.01427e-05 6.29091e-05)
(1.05999 -5.39878e-05 5.77848e-05)
(1.06002 -3.27883e-05 5.48365e-05)
(1.06005 -1.03149e-05 5.06504e-05)
(1.06008 1.08144e-05 4.01027e-05)
(1.05978 -2.01115e-05 0.000235625)
(1.05981 1.01199e-05 0.000228316)
(1.05983 3.28802e-05 0.000215699)
(1.05984 4.68878e-05 0.000201905)
(1.05984 6.06601e-05 0.000187727)
(1.05983 6.45443e-05 0.000173014)
(1.05981 6.15011e-05 0.000161157)
(1.05979 5.32899e-05 0.00014888)
(1.05976 2.76669e-05 0.000139982)
(1.05973 -4.1872e-06 0.000133552)
(1.05972 -3.80447e-05 0.000124104)
(1.05969 -8.32395e-05 0.000122624)
(1.05967 -0.000132765 0.00012228)
(1.05967 -0.00017738 0.000122498)
(1.05966 -0.000219307 0.000128109)
(1.05967 -0.000253884 0.000134142)
(1.05967 -0.000270215 0.000143895)
(1.05965 -0.000284279 0.000157867)
(1.05964 -0.00028843 0.000168682)
(1.05962 -0.000291811 0.000183786)
(1.0596 -0.000294965 0.000194149)
(1.05958 -0.000300992 0.000203278)
(1.05957 -0.000304173 0.000205934)
(1.05956 -0.00030407 0.000207533)
(1.05955 -0.000305939 0.000208523)
(1.05956 -0.000296888 0.000208367)
(1.05957 -0.000285967 0.000210434)
(1.05958 -0.000272109 0.000213485)
(1.0596 -0.000249692 0.000224041)
(1.05962 -0.000227641 0.000232769)
(1.05964 -0.000206232 0.000239607)
(1.05963 -0.000184384 0.000246479)
(1.05963 -0.000169696 0.000245539)
(1.05962 -0.000155046 0.000244649)
(1.0596 -0.00014103 0.000242533)
(1.0596 -0.000130738 0.000242356)
(1.05962 -0.000113332 0.000240883)
(1.05964 -9.63182e-05 0.000242715)
(1.05969 -7.48755e-05 0.000242208)
(1.05973 -4.33151e-05 0.000240107)
(1.05891 -0.000103522 0.000344618)
(1.05899 -5.85063e-05 0.000340367)
(1.05904 -2.04607e-05 0.000325644)
(1.0591 8.51347e-06 0.000306961)
(1.05914 3.73883e-05 0.000288781)
(1.05915 4.69165e-05 0.000267705)
(1.05915 4.99159e-05 0.000249889)
(1.05914 4.65597e-05 0.000232863)
(1.05911 1.88724e-05 0.000219476)
(1.05909 -1.2486e-05 0.000212307)
(1.05906 -5.31679e-05 0.000203554)
(1.05902 -0.000110227 0.000202133)
(1.05899 -0.000160114 0.000201391)
(1.05898 -0.000214041 0.000202742)
(1.05897 -0.000259904 0.000207498)
(1.05898 -0.000292736 0.000217799)
(1.05897 -0.000310771 0.000231868)
(1.05895 -0.000322409 0.000246587)
(1.05892 -0.000325412 0.000261748)
(1.05889 -0.000331705 0.000281031)
(1.05886 -0.00033343 0.000295167)
(1.05884 -0.000342523 0.000306469)
(1.05882 -0.000344592 0.000306493)
(1.05879 -0.000360568 0.000306025)
(1.05876 -0.000376021 0.00030418)
(1.05875 -0.000381133 0.000305517)
(1.05874 -0.000380455 0.000311028)
(1.05875 -0.000364096 0.000322617)
(1.05879 -0.000334599 0.000338287)
(1.05882 -0.000300409 0.000348014)
(1.05885 -0.000264843 0.000351067)
(1.05885 -0.000232954 0.000347742)
(1.05884 -0.000204776 0.000335091)
(1.0588 -0.000192978 0.000321785)
(1.05875 -0.000186584 0.000308848)
(1.05873 -0.000191266 0.000303235)
(1.05871 -0.000191974 0.000306465)
(1.05873 -0.00018933 0.00031701)
(1.05878 -0.000173289 0.000328126)
(1.05883 -0.000141678 0.000341868)
(1.05742 -8.8578e-05 0.000426741)
(1.05752 -3.57952e-05 0.000420957)
(1.05761 5.30969e-06 0.000395035)
(1.05771 4.2838e-05 0.000354769)
(1.05779 7.94458e-05 0.000316505)
(1.05784 9.43018e-05 0.000280494)
(1.05788 0.000107721 0.000259585)
(1.0579 0.000109337 0.00024596)
(1.05789 8.09976e-05 0.000237621)
(1.05786 5.57222e-05 0.000229671)
(1.05783 1.33157e-05 0.000221343)
(1.05778 -4.19619e-05 0.000218398)
(1.05776 -9.51176e-05 0.000223501)
(1.05775 -0.00016522 0.000227304)
(1.05774 -0.000221787 0.000231574)
(1.05775 -0.000259029 0.000242384)
(1.05774 -0.000283856 0.000257978)
(1.0577 -0.000292022 0.000275546)
(1.05765 -0.000294895 0.000301362)
(1.0576 -0.000300627 0.000328094)
(1.05756 -0.000302062 0.000349084)
(1.05754 -0.000308045 0.000359412)
(1.05752 -0.000309799 0.00035802)
(1.05747 -0.000340128 0.000356286)
(1.05741 -0.000369139 0.000354148)
(1.05735 -0.000394977 0.000357443)
(1.05731 -0.000412255 0.000373262)
(1.05732 -0.000391008 0.000396458)
(1.05738 -0.000349946 0.000421631)
(1.05744 -0.000295903 0.000433916)
(1.05751 -0.000235319 0.000429712)
(1.05754 -0.000176634 0.000407102)
(1.05755 -0.000122313 0.000377227)
(1.05753 -9.96136e-05 0.000344194)
(1.05747 -9.49488e-05 0.000323097)
(1.05742 -0.000106602 0.000317426)
(1.05736 -0.000133092 0.000327671)
(1.05732 -0.000156866 0.000347322)
(1.05732 -0.000160118 0.000377687)
(1.05735 -0.00013787 0.000413286)
(1.05544 1.91417e-05 0.000525686)
(1.05554 4.2799e-05 0.000484712)
(1.05567 6.26032e-05 0.000418882)
(1.05584 9.72861e-05 0.000336097)
(1.05599 0.000127488 0.000271013)
(1.05612 0.000135888 0.000214482)
(1.05622 0.00015378 0.000171575)
(1.05629 0.000159876 0.000136609)
(1.05632 0.000135894 0.000116161)
(1.05632 0.000105033 0.000104765)
(1.0563 4.50925e-05 0.000102345)
(1.05625 -1.62721e-05 9.46627e-05)
(1.0562 -7.29395e-05 9.00523e-05)
(1.05619 -0.000137285 8.3902e-05)
(1.05619 -0.000187669 9.25552e-05)
(1.0562 -0.000228502 0.000118156)
(1.05619 -0.000249978 0.00015042)
(1.05613 -0.000243231 0.000181507)
(1.05607 -0.000242382 0.00022122)
(1.05599 -0.000245906 0.000261721)
(1.05595 -0.000243131 0.000294266)
(1.05594 -0.000231928 0.000304564)
(1.05593 -0.00022636 0.000302434)
(1.05586 -0.000261159 0.000295627)
(1.05575 -0.000303288 0.000296661)
(1.05562 -0.000353763 0.000319316)
(1.05552 -0.000384244 0.000365125)
(1.05551 -0.000364226 0.000413693)
(1.05555 -0.000328108 0.000450764)
(1.05561 -0.000265761 0.000471156)
(1.05569 -0.000182866 0.000470261)
(1.05576 -8.71909e-05 0.000448686)
(1.05582 1.06173e-05 0.000427225)
(1.05585 7.85833e-05 0.000393709)
(1.05584 0.000106798 0.000375301)
(1.0558 0.000101761 0.000367817)
(1.05568 6.09613e-05 0.00038642)
(1.05554 2.36546e-05 0.00042888)
(1.05543 -2.40735e-06 0.000488035)
(1.05539 -7.44943e-06 0.000530632)
(1.05321 0.000228835 0.000406092)
(1.05328 0.000236503 0.000359842)
(1.05341 0.000268102 0.000274939)
(1.05361 0.000327968 0.000171226)
(1.0538 0.000368117 7.68452e-05)
(1.05397 0.000393999 -9.24073e-06)
(1.05411 0.000416802 -5.51033e-05)
(1.05419 0.000380422 -6.89207e-05)
(1.0542 0.000321665 -7.40398e-05)
(1.05417 0.000295411 -9.34904e-05)
(1.05409 0.000279776 -0.000106818)
(1.05401 0.000260652 -0.000111706)
(1.05396 0.000211708 -0.0001049)
(1.05393 0.000146559 -0.000101266)
(1.05389 9.7183e-05 -8.78512e-05)
(1.05384 6.42832e-05 -6.27176e-05)
(1.05377 7.68994e-05 -2.31456e-05)
(1.05368 0.000117088 3.55203e-05)
(1.05359 0.000138097 0.000111785)
(1.05351 0.000143029 0.000175984)
(1.05346 0.000142968 0.000196489)
(1.05343 0.000159419 0.000175956)
(1.05336 0.000174038 0.000151056)
(1.05325 0.000165501 0.000135802)
(1.05309 0.000130888 0.000147275)
(1.05294 5.6072e-05 0.000182115)
(1.05283 -5.10906e-06 0.000220647)
(1.05278 -2.00716e-05 0.00024892)
(1.05278 -4.40801e-06 0.000266315)
(1.05282 4.39138e-05 0.000273339)
(1.05291 0.000123474 0.000249379)
(1.05307 0.000221529 0.000197048)
(1.05324 0.000323811 0.000148723)
(1.0534 0.000394442 0.000111369)
(1.05349 0.000420779 0.000125053)
(1.0535 0.000441147 0.000165358)
(1.05341 0.000425673 0.000225379)
(1.0533 0.000375433 0.000289803)
(1.05321 0.000296894 0.000362805)
(1.05317 0.000235281 0.000410849)
(1.04909 0.000395579 0.000498628)
(1.04905 0.000390676 0.000382097)
(1.04913 0.000434944 0.000235099)
(1.04926 0.000505218 0.000114202)
(1.04939 0.000531873 2.37736e-05)
(1.0495 0.000535213 -3.38179e-05)
(1.04959 0.000522882 -6.0338e-05)
(1.04954 0.000460729 -8.77411e-05)
(1.04945 0.000432688 -0.000126478)
(1.04939 0.000405218 -0.000133176)
(1.04938 0.000348641 -9.44499e-05)
(1.0494 0.000283927 -6.99185e-05)
(1.04936 0.000232411 -8.98013e-05)
(1.04927 0.000205233 -0.000107983)
(1.0492 0.000176635 -9.2779e-05)
(1.04917 0.000137319 -5.63466e-05)
(1.0492 0.000142892 -1.26946e-05)
(1.04922 0.000148143 5.67258e-05)
(1.04925 0.000135894 0.000140566)
(1.04929 0.000115517 0.000203147)
(1.04932 0.000126384 0.000195411)
(1.04932 0.000166961 0.000135446)
(1.04931 0.000197664 6.84773e-05)
(1.04928 0.000178805 3.58986e-05)
(1.04925 0.000105523 6.03142e-05)
(1.04916 3.70157e-06 0.000121157)
(1.04905 -5.22149e-05 0.000154584)
(1.04897 -7.75228e-05 0.000157727)
(1.04896 -7.60934e-05 0.000153459)
(1.04898 -7.17664e-05 0.000155738)
(1.04912 -2.7156e-05 0.00011839)
(1.04933 4.79109e-05 7.34779e-05)
(1.04958 0.000190419 4.31863e-05)
(1.04976 0.000347214 3.80983e-05)
(1.04982 0.000461415 8.50139e-05)
(1.04978 0.000530621 0.000166498)
(1.04967 0.000532489 0.000283278)
(1.04954 0.000486519 0.000414586)
(1.04938 0.000437356 0.000525964)
(1.0492 0.000396881 0.000562139)
(1.04178 0.00072612 0.000482839)
(1.04199 0.000733198 0.000333008)
(1.04232 0.000796142 0.000186993)
(1.04259 0.000843342 8.85884e-05)
(1.0428 0.000830163 5.36588e-05)
(1.04293 0.000837415 6.97495e-05)
(1.04298 0.000863541 9.28192e-05)
(1.04295 0.000806523 7.75008e-05)
(1.04304 0.000742821 6.81921e-05)
(1.04312 0.000670782 0.000148048)
(1.04315 0.000652544 0.00022421)
(1.04304 0.000657375 0.000221098)
(1.04295 0.000651524 0.000208744)
(1.04296 0.00060335 0.000232151)
(1.04308 0.000527027 0.000264709)
(1.04314 0.000443126 0.000270329)
(1.04322 0.00042674 0.000300455)
(1.04325 0.000401439 0.000391576)
(1.04333 0.000387711 0.000508081)
(1.04337 0.000371928 0.000540469)
(1.04339 0.000387424 0.000455808)
(1.04336 0.000404626 0.000354566)
(1.04333 0.000410826 0.000322626)
(1.04319 0.000390113 0.000359302)
(1.04295 0.000353461 0.000437952)
(1.04254 0.000294169 0.00049351)
(1.04217 0.000249389 0.000492645)
(1.04189 0.000217622 0.000480911)
(1.04171 0.000243557 0.00049176)
(1.04149 0.000266084 0.000460932)
(1.04141 0.000296671 0.000358298)
(1.04144 0.000331831 0.000289752)
(1.04164 0.000472072 0.00025031)
(1.04183 0.000625892 0.000239161)
(1.04198 0.000740441 0.000320607)
(1.04198 0.000809629 0.000436077)
(1.04187 0.000829395 0.000559756)
(1.04168 0.000795916 0.000634685)
(1.04159 0.000756618 0.000660683)
(1.0416 0.000712636 0.000614755)
(1.03277 0.000774412 0.00092912)
(1.03301 0.000742742 0.000918874)
(1.03337 0.000784766 0.000910886)
(1.03355 0.000793543 0.00092173)
(1.03367 0.000760854 0.000947447)
(1.03373 0.00076322 0.000967613)
(1.03386 0.000762483 0.000977364)
(1.03387 0.000649529 0.000982698)
(1.03386 0.000563692 0.001073)
(1.03372 0.000495814 0.00122924)
(1.03362 0.000522786 0.00125045)
(1.03341 0.000551617 0.00115766)
(1.03326 0.000509106 0.0011092)
(1.03308 0.000411128 0.00113679)
(1.03295 0.000310733 0.00113639)
(1.03276 0.000216559 0.00108599)
(1.03274 0.000204439 0.00105836)
(1.03271 0.00018116 0.00105211)
(1.03277 0.000194699 0.00103561)
(1.03274 0.000228658 0.00094409)
(1.03277 0.000296285 0.000809552)
(1.0327 0.000349078 0.00075555)
(1.03258 0.000380665 0.000760216)
(1.03223 0.000373837 0.000767595)
(1.0319 0.000353987 0.000788468)
(1.03153 0.000327039 0.000820968)
(1.03136 0.000326742 0.000820634)
(1.03118 0.000366551 0.000776716)
(1.03098 0.00042308 0.000695898)
(1.03077 0.000371765 0.000559297)
(1.0308 0.000286163 0.000446054)
(1.03096 0.000251864 0.000431309)
(1.03128 0.000422586 0.000441034)
(1.03154 0.000659966 0.000495746)
(1.03185 0.000881761 0.000625681)
(1.03203 0.00104105 0.0007484)
(1.03221 0.00110047 0.000853587)
(1.03226 0.00100649 0.000910795)
(1.03236 0.00089169 0.000960563)
(1.03248 0.000792741 0.000970917)
(1.0221 0.000487922 0.00194291)
(1.02215 0.000488529 0.00195066)
(1.02227 0.000552944 0.00191009)
(1.02224 0.000531668 0.00185641)
(1.02229 0.000465204 0.00178712)
(1.0223 0.000458341 0.0017569)
(1.02239 0.000432168 0.00176473)
(1.02221 0.000284839 0.00174621)
(1.02201 0.000145026 0.0017992)
(1.02178 -1.1013e-05 0.00185039)
(1.02178 -1.21915e-05 0.00170738)
(1.02163 4.11371e-05 0.00147973)
(1.02144 2.68816e-05 0.00133301)
(1.02115 -5.09963e-05 0.00126093)
(1.02099 -0.000148271 0.00113999)
(1.02073 -0.000291809 0.00102683)
(1.02063 -0.000302531 0.000997597)
(1.02042 -0.000277607 0.000950108)
(1.02038 -0.000243469 0.000900328)
(1.02036 -0.000227723 0.000837004)
(1.02054 -0.000170052 0.00079655)
(1.02061 -0.000126941 0.000826464)
(1.02058 -0.000108233 0.000828737)
(1.02037 -0.000156843 0.000820633)
(1.02036 -0.000192478 0.000880261)
(1.02039 -0.000184126 0.000963745)
(1.02058 -0.00014454 0.000948642)
(1.02065 -8.49201e-05 0.000871324)
(1.02073 -1.41472e-05 0.000830929)
(1.02071 -7.02729e-05 0.000818286)
(1.02078 -0.000185416 0.000810149)
(1.02081 -0.000246444 0.000853312)
(1.02102 -7.56199e-05 0.000953871)
(1.02124 0.00014292 0.00114571)
(1.02156 0.00034221 0.0014029)
(1.02174 0.000488647 0.00161922)
(1.02196 0.000547727 0.00177303)
(1.02196 0.000493477 0.00185272)
(1.02197 0.000467734 0.00192978)
(1.02194 0.000453619 0.00195466)
(1.01326 -0.000207112 0.000614945)
(1.0132 -0.0002171 0.000518884)
(1.01321 -0.000178894 0.000400953)
(1.01298 -0.000264286 0.000364775)
(1.01276 -0.000351036 0.000376259)
(1.01245 -0.000352295 0.000428603)
(1.01228 -0.000385729 0.000448651)
(1.01166 -0.000597266 0.000429141)
(1.01112 -0.000862767 0.000467901)
(1.01056 -0.00112799 0.000361958)
(1.01043 -0.00109993 8.04834e-05)
(1.01036 -0.000968066 -9.70144e-05)
(1.01034 -0.000950074 -9.16196e-05)
(1.01016 -0.00103739 -7.15076e-05)
(1.01017 -0.0011113 -0.000103419)
(1.00986 -0.00127355 -1.32279e-05)
(1.00984 -0.00130904 0.000165178)
(1.00977 -0.00135897 0.000266188)
(1.00999 -0.00141195 0.000439144)
(1.01013 -0.00150071 0.000625836)
(1.01047 -0.00154737 0.000767248)
(1.01062 -0.00164245 0.000843301)
(1.01072 -0.00172285 0.000861459)
(1.0106 -0.00184858 0.000925374)
(1.01068 -0.00191244 0.00104862)
(1.01076 -0.00188914 0.00102591)
(1.01109 -0.00183101 0.000886841)
(1.01129 -0.00176764 0.000845965)
(1.01168 -0.00165363 0.000942695)
(1.01187 -0.00162364 0.00102503)
(1.01212 -0.00166184 0.00107602)
(1.01223 -0.00166992 0.00110252)
(1.01264 -0.00146323 0.00106293)
(1.0129 -0.00119797 0.00104639)
(1.01314 -0.00091759 0.00106938)
(1.01319 -0.000642504 0.00101423)
(1.01332 -0.000446314 0.000962455)
(1.01318 -0.000370756 0.000916516)
(1.01317 -0.00029805 0.000886079)
(1.0131 -0.00024439 0.000755154)
(1.00222 -0.000381819 7.9082e-06)
(1.00192 -0.000491937 -8.34186e-05)
(1.00183 -0.000527736 -0.000212799)
(1.00136 -0.000655631 -0.000249081)
(1.00083 -0.000785267 -0.000300923)
(1.00017 -0.000894695 -0.000433015)
(0.999895 -0.00103108 -0.000642862)
(0.99903 -0.0013468 -0.000756206)
(0.998377 -0.0017012 -0.000887703)
(0.997764 -0.00198048 -0.0012175)
(0.997835 -0.00199616 -0.00139686)
(0.99814 -0.00187108 -0.00116603)
(0.998671 -0.001816 -0.000808797)
(0.998877 -0.00191044 -0.000618414)
(0.999182 -0.00201115 -0.000500824)
(0.998881 -0.00220728 -0.000203055)
(0.998994 -0.00230428 6.02861e-05)
(0.99905 -0.00243957 0.000240966)
(0.999403 -0.00255559 0.000534094)
(0.999427 -0.00273555 0.000763618)
(0.999726 -0.00283285 0.000790318)
(0.999625 -0.00292846 0.000663512)
(0.999546 -0.0029075 0.000575192)
(0.999316 -0.00290195 0.000706856)
(0.99942 -0.00280844 0.000818721)
(0.999503 -0.00268548 0.000677712)
(0.999954 -0.00254523 0.000551501)
(1.00028 -0.00243474 0.000680087)
(1.00094 -0.00223821 0.000752705)
(1.00124 -0.00208391 0.000664206)
(1.00155 -0.00196781 0.000611701)
(1.00152 -0.00189678 0.000441809)
(1.00185 -0.00165452 0.000140038)
(1.00187 -0.00137145 -1.27801e-05)
(1.00193 -0.0010662 -9.29299e-05)
(1.00195 -0.000771766 -0.00017835)
(1.00225 -0.000539903 -0.000138497)
(1.00224 -0.000489605 -1.55007e-05)
(1.0023 -0.000410663 0.000103245)
(1.00214 -0.00036081 6.28032e-05)
(0.989358 -0.00129645 0.00046632)
(0.989002 -0.00143544 0.000297103)
(0.989028 -0.00157903 0.000148837)
(0.988465 -0.00180548 6.44455e-05)
(0.987928 -0.00193367 -0.000156943)
(0.987404 -0.00207303 -0.000492228)
(0.987595 -0.00219302 -0.000854404)
(0.987103 -0.00236142 -0.00108541)
(0.986916 -0.00255623 -0.00143196)
(0.986857 -0.00286297 -0.00190685)
(0.987488 -0.00298466 -0.00206209)
(0.987911 -0.0028934 -0.00173766)
(0.988403 -0.00277469 -0.00143417)
(0.988364 -0.00279243 -0.00140431)
(0.988544 -0.00284609 -0.0013535)
(0.988029 -0.0031036 -0.0011192)
(0.987923 -0.00324742 -0.00095248)
(0.987833 -0.00327594 -0.000832121)
(0.988153 -0.00328147 -0.000653308)
(0.987835 -0.00340669 -0.000592479)
(0.987636 -0.0034425 -0.000764936)
(0.986911 -0.00349865 -0.00109998)
(0.986869 -0.00341829 -0.00107657)
(0.986967 -0.00331052 -0.000682406)
(0.987394 -0.00319451 -0.000525628)
(0.987636 -0.0031764 -0.000668346)
(0.988149 -0.00313896 -0.000608971)
(0.988328 -0.00309432 -0.000367331)
(0.988847 -0.00291634 -0.00045157)
(0.988863 -0.00267863 -0.000613236)
(0.988934 -0.00244793 -0.000580271)
(0.988598 -0.00233201 -0.000694502)
(0.988687 -0.00209769 -0.000722666)
(0.988377 -0.00189021 -0.000459249)
(0.988476 -0.00169641 -0.000283445)
(0.988767 -0.00151364 -0.000119468)
(0.989429 -0.00137513 0.00018028)
(0.989396 -0.00133889 0.000431975)
(0.989533 -0.00120907 0.000567061)
(0.989335 -0.00122186 0.000546353)
(0.979958 -0.00149573 -0.00104531)
(0.979527 -0.00151209 -0.00147262)
(0.979204 -0.00152984 -0.00179931)
(0.978367 -0.00158902 -0.00212884)
(0.978138 -0.00162173 -0.00247631)
(0.978211 -0.00176312 -0.00269581)
(0.978891 -0.00185629 -0.00275457)
(0.978768 -0.00195898 -0.00271695)
(0.97887 -0.00220643 -0.00288542)
(0.978607 -0.00260099 -0.00312168)
(0.978415 -0.00262539 -0.00302266)
(0.977787 -0.00240218 -0.00258745)
(0.97754 -0.00224445 -0.00226744)
(0.977068 -0.00226758 -0.0022391)
(0.976998 -0.00242314 -0.00216)
(0.976056 -0.00282288 -0.0019142)
(0.97577 -0.00305163 -0.00178369)
(0.975756 -0.00309911 -0.00178178)
(0.976053 -0.00309997 -0.00180458)
(0.975209 -0.00324503 -0.00189499)
(0.974812 -0.00329599 -0.00216112)
(0.974295 -0.00341592 -0.00238517)
(0.974648 -0.00336577 -0.0020533)
(0.974747 -0.0032796 -0.00150738)
(0.975266 -0.00319367 -0.00157508)
(0.975511 -0.00312967 -0.00186984)
(0.975865 -0.002956 -0.00180728)
(0.975823 -0.00283475 -0.00163416)
(0.976215 -0.00266633 -0.00165216)
(0.976232 -0.00246841 -0.00156032)
(0.976814 -0.00230198 -0.00135509)
(0.976952 -0.00230335 -0.00111165)
(0.977354 -0.00213945 -0.000645109)
(0.97767 -0.00196179 -0.000184704)
(0.978655 -0.0018259 -4.26571e-05)
(0.979435 -0.00177871 0.000129333)
(0.980077 -0.00173784 0.000340183)
(0.979868 -0.00171903 0.000310643)
(0.980072 -0.00156908 -7.948e-06)
(0.979856 -0.00152878 -0.000532716)
(0.970295 -0.00236578 -0.00352346)
(0.969897 -0.00225401 -0.00381794)
(0.970187 -0.00218435 -0.00391283)
(0.97026 -0.00219769 -0.00385974)
(0.970844 -0.00214338 -0.00377416)
(0.971051 -0.00218799 -0.0036709)
(0.971415 -0.00229071 -0.00337966)
(0.970802 -0.00254264 -0.00301389)
(0.970319 -0.00299767 -0.00288377)
(0.969111 -0.0033624 -0.00287226)
(0.968471 -0.00319633 -0.0027756)
(0.967842 -0.00290462 -0.00233712)
(0.968042 -0.00274542 -0.0018785)
(0.967893 -0.0028073 -0.00171911)
(0.967693 -0.00295346 -0.0014554)
(0.966777 -0.00326178 -0.00115853)
(0.966794 -0.00338671 -0.00128706)
(0.966859 -0.0033714 -0.00170095)
(0.966979 -0.00335694 -0.00189415)
(0.966027 -0.00354892 -0.00188822)
(0.965799 -0.00370407 -0.00198943)
(0.965487 -0.00383901 -0.00206862)
(0.965908 -0.00370599 -0.00158489)
(0.966072 -0.00353438 -0.00115195)
(0.966695 -0.00344647 -0.00137442)
(0.966929 -0.00332575 -0.00172362)
(0.967525 -0.00308653 -0.0016301)
(0.96775 -0.00309256 -0.00150421)
(0.968368 -0.00316452 -0.00147521)
(0.968794 -0.00319327 -0.00141628)
(0.969867 -0.00325035 -0.00126952)
(0.969969 -0.00342124 -0.00106031)
(0.970305 -0.00335194 -0.000791167)
(0.970599 -0.0032486 -0.00062889)
(0.971098 -0.00311284 -0.00066882)
(0.970604 -0.00295103 -0.000852074)
(0.970328 -0.00280335 -0.00104067)
(0.969604 -0.00275992 -0.00161686)
(0.969787 -0.00259228 -0.00242266)
(0.969851 -0.00249454 -0.00311567)
(0.958631 -0.00362809 -0.00461568)
(0.958739 -0.00351555 -0.00447561)
(0.959757 -0.00337276 -0.00400138)
(0.960156 -0.00332203 -0.00328889)
(0.960963 -0.00312598 -0.00284182)
(0.961217 -0.00305574 -0.00273815)
(0.961517 -0.00311718 -0.00254588)
(0.961079 -0.00341872 -0.00225708)
(0.961235 -0.00379648 -0.00204871)
(0.960642 -0.00385445 -0.00192572)
(0.961062 -0.00353811 -0.00162368)
(0.961195 -0.00335132 -0.00106256)
(0.961866 -0.00324497 -0.000688614)
(0.961492 -0.00321512 -0.000697987)
(0.960932 -0.00328882 -0.000590518)
(0.95956 -0.00351897 -0.000552656)
(0.959208 -0.00356433 -0.00081969)
(0.958887 -0.00345784 -0.00101479)
(0.959007 -0.00337583 -0.000945548)
(0.958082 -0.00360372 -0.000825623)
(0.957769 -0.00380207 -0.000933716)
(0.957292 -0.00389651 -0.00104861)
(0.957721 -0.0037469 -0.00100725)
(0.957849 -0.00361486 -0.00126567)
(0.958213 -0.00357561 -0.00190561)
(0.958192 -0.00345853 -0.00226315)
(0.958749 -0.00315634 -0.0021522)
(0.958839 -0.00313762 -0.00203764)
(0.959243 -0.00322184 -0.00206364)
(0.959097 -0.00326056 -0.00210037)
(0.959216 -0.0033076 -0.00217866)
(0.958385 -0.00352367 -0.00221881)
(0.957969 -0.00355658 -0.00217644)
(0.957446 -0.0035417 -0.00210959)
(0.957041 -0.00339818 -0.00246778)
(0.956031 -0.0033205 -0.00331654)
(0.956108 -0.00331689 -0.0040031)
(0.956095 -0.0034394 -0.00449741)
(0.957027 -0.00353882 -0.00476342)
(0.957829 -0.00372158 -0.00477112)
(0.952336 -0.00426718 -0.00415149)
(0.952348 -0.00402163 -0.00408154)
(0.953119 -0.00376314 -0.00345088)
(0.952863 -0.00362307 -0.002563)
(0.953436 -0.00340296 -0.00212912)
(0.953436 -0.00331241 -0.00203245)
(0.953665 -0.00318991 -0.00173559)
(0.953417 -0.00325335 -0.00129246)
(0.953512 -0.00338022 -0.000902895)
(0.952415 -0.00332094 -0.000640144)
(0.95257 -0.00310564 -0.000201256)
(0.952121 -0.00318233 0.00024043)
(0.951761 -0.0031544 0.000437598)
(0.950605 -0.00311607 0.000372635)
(0.949785 -0.00307114 0.000468981)
(0.948282 -0.00331409 0.000497741)
(0.948107 -0.00345957 0.000503222)
(0.948057 -0.00339732 0.000572185)
(0.948698 -0.0031992 0.000499933)
(0.948013 -0.00331945 0.000155928)
(0.947858 -0.00346095 -0.000292976)
(0.947505 -0.0036492 -0.000621671)
(0.948266 -0.00372312 -0.000934868)
(0.948387 -0.00371115 -0.00146692)
(0.948843 -0.00366603 -0.00206679)
(0.948686 -0.0035365 -0.00227312)
(0.949 -0.00319218 -0.00217499)
(0.948554 -0.00315558 -0.00208521)
(0.9483 -0.00316697 -0.00207086)
(0.947288 -0.00311323 -0.00202894)
(0.947075 -0.0031677 -0.00220001)
(0.946451 -0.00339832 -0.00237971)
(0.946576 -0.00350119 -0.00248695)
(0.946542 -0.00359456 -0.00265714)
(0.946901 -0.00360688 -0.00342669)
(0.947281 -0.00375551 -0.00419332)
(0.9486 -0.00401712 -0.00440693)
(0.949553 -0.00434779 -0.00449561)
(0.95135 -0.00454687 -0.00454224)
(0.951982 -0.00458623 -0.00432206)
(0.946718 -0.00385692 -0.00314368)
(0.946629 -0.00378472 -0.0031501)
(0.946953 -0.00364841 -0.00267391)
(0.94607 -0.00361527 -0.00224265)
(0.946354 -0.00342912 -0.00237304)
(0.945807 -0.0033334 -0.0025298)
(0.945453 -0.0032194 -0.00226342)
(0.944369 -0.00333902 -0.00179915)
(0.943242 -0.00342244 -0.00136533)
(0.941296 -0.00338526 -0.00106893)
(0.94096 -0.00315649 -0.000598189)
(0.939344 -0.00304868 1.40561e-05)
(0.938483 -0.0028643 0.00057971)
(0.937562 -0.00274027 0.0010683)
(0.938139 -0.00267724 0.00135211)
(0.938096 -0.00303279 0.00133239)
(0.93907 -0.00328413 0.00126009)
(0.939374 -0.00321292 0.0011496)
(0.94016 -0.00292052 0.0008256)
(0.939508 -0.00292627 0.000438253)
(0.939482 -0.00301326 0.000197446)
(0.939308 -0.00330971 4.24261e-05)
(0.940128 -0.00343786 -9.19619e-05)
(0.939937 -0.0033333 -0.000472868)
(0.94043 -0.00317052 -0.000874751)
(0.939571 -0.00307539 -0.000915872)
(0.939086 -0.00274792 -0.001064)
(0.937938 -0.0027588 -0.00141255)
(0.937588 -0.00276758 -0.00171169)
(0.93693 -0.00283449 -0.00189429)
(0.937694 -0.00301643 -0.00217801)
(0.938091 -0.00338456 -0.00232532)
(0.939379 -0.00350699 -0.00253565)
(0.94 -0.00362553 -0.0027003)
(0.941367 -0.00367826 -0.00301594)
(0.942412 -0.0039347 -0.0030935)
(0.944198 -0.0042024 -0.00296139)
(0.945283 -0.00443076 -0.00309873)
(0.946891 -0.00435448 -0.00328015)
(0.946662 -0.00412752 -0.00314723)
(0.936922 -0.003754 -0.00101861)
(0.936275 -0.00387821 -0.00126403)
(0.936033 -0.00380135 -0.00110537)
(0.934378 -0.00386125 -0.000933172)
(0.93411 -0.00360854 -0.00122656)
(0.933071 -0.00342683 -0.00129308)
(0.932624 -0.00336622 -0.00119676)
(0.931045 -0.00357504 -0.00111172)
(0.929993 -0.00358523 -0.00093464)
(0.928845 -0.00342913 -0.000500838)
(0.929189 -0.00299804 0.000103885)
(0.928249 -0.00276111 0.000949657)
(0.92867 -0.00263691 0.0016912)
(0.928763 -0.00268832 0.00239253)
(0.93048 -0.00268794 0.00248294)
(0.930586 -0.00297964 0.00229291)
(0.930649 -0.0029718 0.00226784)
(0.929583 -0.00287767 0.00240796)
(0.92965 -0.00262037 0.00226785)
(0.929146 -0.00266621 0.00202948)
(0.929739 -0.00272693 0.00167716)
(0.929662 -0.00294419 0.00126264)
(0.930162 -0.00278286 0.000590378)
(0.929628 -0.00250683 -4.93358e-06)
(0.929755 -0.0022713 -5.97934e-05)
(0.928243 -0.0022287 0.000161266)
(0.928045 -0.00213478 -0.000157873)
(0.92757 -0.00245299 -0.000536559)
(0.92866 -0.00268593 -0.000817969)
(0.929038 -0.00292562 -0.000855847)
(0.930373 -0.003204 -0.00066449)
(0.930433 -0.00356447 -0.000224195)
(0.931575 -0.00360779 -3.57218e-05)
(0.932184 -0.00361994 3.59951e-05)
(0.933888 -0.003571 -0.000361618)
(0.93512 -0.00383588 -0.000499996)
(0.936829 -0.0041332 -0.000441263)
(0.937145 -0.00435895 -0.000471713)
(0.937847 -0.00411587 -0.000724655)
(0.936922 -0.00385437 -0.000698982)
(0.925274 -0.00314931 0.00100005)
(0.924704 -0.00326212 0.000714165)
(0.924598 -0.00322493 0.000689464)
(0.922595 -0.00343119 0.000738504)
(0.922025 -0.00331989 0.000312009)
(0.921222 -0.00337055 0.000188431)
(0.921129 -0.00351372 4.98415e-05)
(0.919154 -0.00380348 3.09514e-06)
(0.918598 -0.00379444 0.000137194)
(0.918158 -0.00353098 0.000959478)
(0.919091 -0.00304687 0.00178428)
(0.91868 -0.00292719 0.00265281)
(0.91978 -0.00293965 0.00326605)
(0.919437 -0.00304946 0.00368089)
(0.920704 -0.00293863 0.00333176)
(0.920075 -0.00298133 0.00303033)
(0.920013 -0.00268106 0.00311843)
(0.91889 -0.00263788 0.00343548)
(0.9197 -0.00246493 0.00325661)
(0.920534 -0.00247336 0.00307913)
(0.922025 -0.00244331 0.0026736)
(0.922052 -0.00258749 0.00206189)
(0.922473 -0.00245723 0.00112951)
(0.921427 -0.00232859 0.000778179)
(0.921114 -0.00216495 0.000812669)
(0.919928 -0.00229982 0.000765086)
(0.920472 -0.00230128 0.000709183)
(0.9202 -0.00252621 0.000958938)
(0.921379 -0.00269955 0.00147774)
(0.921067 -0.00299349 0.00218633)
(0.921231 -0.00317908 0.00288824)
(0.920247 -0.00339762 0.00331007)
(0.921179 -0.00346217 0.00283239)
(0.921369 -0.0034646 0.00203071)
(0.923035 -0.00340125 0.00114297)
(0.923792 -0.00369606 0.000914776)
(0.925077 -0.00390972 0.00105774)
(0.92486 -0.00394934 0.00126562)
(0.925104 -0.00346966 0.0012123)
(0.924468 -0.00320562 0.00139618)
(0.913956 -0.00262674 0.00124741)
(0.913359 -0.00279415 0.00109699)
(0.913309 -0.00287086 0.00109678)
(0.911133 -0.00318007 0.00101737)
(0.910869 -0.00321811 0.000747492)
(0.910074 -0.00349041 0.00107133)
(0.909482 -0.00355257 0.00126547)
(0.907429 -0.00371828 0.00151328)
(0.907159 -0.00358578 0.00167809)
(0.906888 -0.00317317 0.00265713)
(0.908256 -0.00259249 0.00360102)
(0.908045 -0.0025585 0.00443809)
(0.909515 -0.00267929 0.00473428)
(0.908858 -0.00267285 0.00463496)
(0.909955 -0.00241034 0.00407165)
(0.909227 -0.00217752 0.00396667)
(0.910238 -0.00175854 0.00402752)
(0.910236 -0.00179234 0.0042582)
(0.911924 -0.00181177 0.00431313)
(0.912421 -0.00188482 0.0047134)
(0.913099 -0.00181039 0.0044306)
(0.912551 -0.00199521 0.00361711)
(0.912217 -0.00195239 0.00296612)
(0.909893 -0.0019622 0.00285205)
(0.909465 -0.00194471 0.00235046)
(0.908591 -0.00227718 0.00202242)
(0.909425 -0.00224121 0.00220957)
(0.908972 -0.00242343 0.00292857)
(0.909241 -0.00267237 0.00381493)
(0.907947 -0.00297888 0.00456566)
(0.908213 -0.00300299 0.00455916)
(0.907687 -0.00310699 0.00366056)
(0.909156 -0.00293856 0.00214781)
(0.909015 -0.00278467 0.00101829)
(0.911023 -0.00260257 0.000332453)
(0.911617 -0.00279536 0.000364713)
(0.912726 -0.0027923 0.000883868)
(0.912023 -0.00273579 0.00137234)
(0.912604 -0.0023681 0.00141691)
(0.912718 -0.00243951 0.00158393)
(0.899685 -0.0021846 0.00181471)
(0.898175 -0.00231574 0.00199655)
(0.897602 -0.00231822 0.00207014)
(0.894995 -0.00258312 0.00190656)
(0.895414 -0.0026261 0.00199348)
(0.894356 -0.00281791 0.00268258)
(0.89374 -0.00278652 0.00346121)
(0.892282 -0.00294469 0.00407378)
(0.892783 -0.00273733 0.00426604)
(0.89279 -0.00228676 0.00488248)
(0.894913 -0.00174705 0.00529486)
(0.895104 -0.00179572 0.00526656)