/*--------------------------------*- C++ -*----------------------------------*\
  =========                 |
  \\      /  F ield         | OpenFOAM: The Open Source CFD Toolbox
   \\    /   O peration     | Website:  https://openfoam.org
    \\  /    A nd           | Version:  10
     \\/     M anipulation  |
\*---------------------------------------------------------------------------*/
FoamFile
{
    format      ascii;
    class       volVectorField;
    location    "70";
    object      U;
}
// * * * * * * * * * * * * * * * * * * * * * * * * * * * * * * * * * * * * * //

dimensions      [0 1 -1 0 0 0 0];

internalField   nonuniform List<vector> 
25600
(
(1.12068 0.011894 0.00757865)
(1.12181 0.00983522 0.0081335)
(1.127 0.00587984 0.00608215)
(1.12828 0.0027133 0.00350129)
(1.12813 -0.000218413 1.68929e-05)
(1.12678 -0.00301153 -0.0010049)
(1.12082 -0.00744053 0.000426232)
(1.11506 -0.0108496 0.00399353)
(1.11186 -0.0118796 0.0101875)
(1.11112 -0.0139086 0.0153783)
(1.11587 -0.0109891 0.019027)
(1.12355 -0.00870977 0.0202598)
(1.12819 -0.00852545 0.0190799)
(1.13158 -0.00594003 0.0171772)
(1.13053 -0.00560646 0.0145024)
(1.1263 -0.00441121 0.00949802)
(1.12677 -0.0020118 0.00330625)
(1.12809 -0.00213802 -0.00311658)
(1.13074 -0.00375238 -0.00739458)
(1.13533 -0.00793149 -0.0087453)
(1.13372 -0.0102172 -0.00833683)
(1.12866 -0.00835554 -0.0061093)
(1.1215 -0.00195537 -0.00558974)
(1.10862 0.0100256 -0.00616677)
(1.10362 0.0178637 -0.00709502)
(1.10537 0.0220697 -0.00789885)
(1.1056 0.0216399 -0.00662922)
(1.11481 0.0149167 -0.00518954)
(1.1251 0.0105825 -0.00474524)
(1.13011 0.00553841 -0.00441021)
(1.13658 0.00160199 -0.00640287)
(1.1388 0.000416376 -0.0103803)
(1.13729 -0.000998408 -0.0131865)
(1.13658 -0.00166715 -0.015618)
(1.13196 -0.000297716 -0.0154485)
(1.12733 0.00117907 -0.0118885)
(1.1261 0.0042337 -0.007311)
(1.12166 0.00978298 -0.00240389)
(1.11902 0.0128714 0.00271859)
(1.12122 0.013176 0.00583512)
(1.12336 0.0120762 0.00239511)
(1.12615 0.0123987 0.00496737)
(1.13049 0.00941416 0.00514251)
(1.12902 0.00531867 0.00342943)
(1.12476 0.00233345 -0.00104819)
(1.11858 -0.000460966 -0.00410966)
(1.11217 -0.00392804 -0.00336853)
(1.11037 -0.00775895 0.00183451)
(1.11149 -0.0103756 0.0129073)
(1.11572 -0.0117621 0.0221748)
(1.12252 -0.00912344 0.0265875)
(1.12783 -0.00491752 0.0247266)
(1.12894 -0.0019439 0.0177753)
(1.12665 0.000346402 0.0129506)
(1.12116 -0.00166681 0.00983345)
(1.11579 -0.0048654 0.0058251)
(1.11774 -0.00736546 0.00150225)
(1.1232 -0.00935431 -0.00533182)
(1.12953 -0.00624809 -0.0115674)
(1.13498 -0.00322561 -0.0162577)
(1.13135 -0.00138278 -0.0185099)
(1.12175 0.00239856 -0.0135994)
(1.11212 0.00453155 -0.00671785)
(1.10271 0.00911887 -0.00160253)
(1.10628 0.0155425 -0.000655184)
(1.11898 0.0171623 -0.00582632)
(1.12408 0.0143261 -0.011633)
(1.12987 0.00904228 -0.0161202)
(1.12964 0.00202409 -0.0194891)
(1.12254 -0.00376523 -0.0176883)
(1.12189 -0.0044633 -0.0162745)
(1.11981 -0.00291354 -0.0163728)
(1.11794 -0.000772475 -0.0139246)
(1.11965 0.000312568 -0.0132451)
(1.11762 0.000248241 -0.0107313)
(1.11634 0.000762128 -0.00605773)
(1.1189 0.00128441 -0.00294175)
(1.11778 0.00397892 -0.00129301)
(1.11687 0.00809171 -0.000248072)
(1.12116 0.0108802 0.000746849)
(1.12175 0.00687784 0.0089548)
(1.12538 0.0102997 0.0165475)
(1.12673 0.0136616 0.0131348)
(1.12114 0.0140005 0.00103566)
(1.11484 0.00999336 -0.0107098)
(1.10961 -2.83524e-05 -0.0135548)
(1.10653 -0.00865936 -0.00218021)
(1.10535 -0.0141579 0.0177632)
(1.10558 -0.01203 0.0339998)
(1.11156 -0.00139993 0.036722)
(1.12125 0.00941728 0.0280842)
(1.13141 0.0171997 0.0152779)
(1.13265 0.0169461 0.00741457)
(1.12526 0.00791506 0.007751)
(1.11358 -0.00449689 0.00798261)
(1.10061 -0.0176054 0.00105785)
(1.09867 -0.0265112 -0.0120529)
(1.0991 -0.0261568 -0.025263)
(1.09911 -0.01571 -0.0311018)
(1.09523 -0.00459151 -0.0309045)
(1.08316 0.00252553 -0.022824)
(1.07578 0.00530447 -0.00831346)
(1.08113 0.00158236 0.000358189)
(1.10144 0.000791906 -0.000391933)
(1.13183 0.00830186 -0.0105199)
(1.1478 0.0144476 -0.0233689)
(1.13221 0.0148324 -0.0275191)
(1.10619 0.0104314 -0.023556)
(1.07865 -0.00111195 -0.0159693)
(1.05861 -0.00988182 -0.00861916)
(1.05423 -0.0107187 -0.00961107)
(1.05096 -0.0104731 -0.0138672)
(1.05458 -0.00774708 -0.0143563)
(1.06354 -0.00536228 -0.0134936)
(1.06898 -0.0043988 -0.00784494)
(1.0762 -0.000291937 -0.00188783)
(1.08494 0.00294778 -0.000738127)
(1.09352 0.00484501 -0.0044513)
(1.10261 0.00725365 -0.00660542)
(1.11417 0.00757825 -0.000793766)
(1.10388 0.006503 0.00440755)
(1.11042 0.0251118 -0.00387408)
(1.10562 0.0315426 -0.0136353)
(1.09509 0.0202755 -0.0158657)
(1.09215 -0.00173737 -0.00597633)
(1.09563 -0.0173316 0.00919749)
(1.09606 -0.0158232 0.0246142)
(1.08978 -0.00612986 0.034341)
(1.08609 0.00571239 0.0326145)
(1.09358 0.0145264 0.0205495)
(1.11432 0.0186857 0.00734769)
(1.13868 0.0202767 0.00192928)
(1.13949 0.011262 0.00646227)
(1.11662 -0.00361058 0.0114107)
(1.07914 -0.0182103 0.00759528)
(1.04721 -0.0310318 -0.00410309)
(1.03695 -0.0336481 -0.0200821)
(1.02852 -0.0273948 -0.0325397)
(1.02154 -0.0155388 -0.0366961)
(1.01827 -0.00719938 -0.0309068)
(1.02708 -0.00922623 -0.0129435)
(1.05347 -0.0167173 0.00485945)
(1.09362 -0.0206197 0.0082222)
(1.13218 -0.00991238 -0.00554817)
(1.13696 0.0131869 -0.0286759)
(1.10137 0.0269185 -0.0420432)
(1.04894 0.0194742 -0.0324382)
(1.01703 -0.00112601 -0.00845943)
(1.00746 -0.0230061 0.0137126)
(1.01211 -0.0310598 0.0229762)
(1.02166 -0.025798 0.0145296)
(1.01555 -0.0194838 0.000286669)
(1.00578 -0.0137147 -0.00954542)
(1.00729 -0.0114303 -0.0117706)
(1.01996 -0.0102747 -0.00497009)
(1.03772 -0.0104308 0.00168806)
(1.0517 -0.0173262 0.00444127)
(1.06079 -0.0231536 0.00319261)
(1.07041 -0.0201578 0.00500066)
(1.08757 -0.0101243 0.00859782)
(1.07331 0.0191375 0.00378081)
(1.0798 0.0302112 -0.00795672)
(1.08127 0.0272664 -0.0179848)
(1.08049 0.0078323 -0.0120194)
(1.07844 -0.0116704 0.00893479)
(1.072 -0.0138613 0.0345796)
(1.05945 0.00170811 0.0585584)
(1.05652 0.0172554 0.0670988)
(1.07222 0.0242693 0.0500131)
(1.10229 0.0282879 0.0213527)
(1.13758 0.0304943 0.00635412)
(1.15416 0.0284297 0.0132072)
(1.12777 0.0167253 0.0284073)
(1.07514 -0.00223442 0.0283622)
(1.02828 -0.0265501 0.0136541)
(1.01013 -0.0497694 -0.00168466)
(1.01943 -0.0540348 -0.0128329)
(1.03127 -0.038301 -0.0184578)
(1.03771 -0.0178197 -0.0212066)
(1.04107 -0.0115524 -0.0149362)
(1.04575 -0.0212323 0.000670189)
(1.05707 -0.0358987 0.0127164)
(1.07954 -0.0389885 0.00890422)
(1.09362 -0.0143698 -0.0194364)
(1.07972 0.0259498 -0.0501491)
(1.05127 0.0475862 -0.0516955)
(1.02557 0.0282571 -0.0180894)
(1.00976 -0.01654 0.023202)
(0.999493 -0.0527566 0.0462771)
(0.998259 -0.0590701 0.0441625)
(1.00659 -0.0356126 0.0202985)
(1.00803 -0.0110098 -0.00171613)
(1.00703 -0.0073388 -0.00889385)
(1.00942 -0.0198489 -0.00220298)
(1.00597 -0.0337614 0.0117056)
(1.00277 -0.0420981 0.0159649)
(1.00616 -0.0439655 0.00634196)
(1.01792 -0.0372267 -0.0044823)
(1.03908 -0.0198977 0.000748146)
(1.05895 0.00195331 0.00854213)
(1.05241 0.037133 -0.0208594)
(1.0895 0.0573088 -0.0341866)
(1.11416 0.0513555 -0.0389203)
(1.11494 0.0198506 -0.0236484)
(1.10631 -0.00800172 0.00588978)
(1.08617 -0.0109958 0.0391016)
(1.0573 0.00647066 0.068325)
(1.04156 0.0188576 0.0733515)
(1.04735 0.0159819 0.0496781)
(1.08597 0.0115531 0.0274881)
(1.13619 0.0148846 0.0267385)
(1.16343 0.0226458 0.0403739)
(1.14555 0.0245032 0.0477073)
(1.09005 0.0132812 0.0302404)
(1.03925 -0.0144574 0.00614029)
(1.02554 -0.0430497 -0.0113068)
(1.0416 -0.0530963 -0.0232654)
(1.06024 -0.0439151 -0.0242172)
(1.06501 -0.0309447 -0.0201884)
(1.04927 -0.0306286 -0.00944058)
(1.04026 -0.0367059 0.00547277)
(1.04346 -0.0453762 0.0105301)
(1.0457 -0.0414834 -0.0045848)
(1.0601 -0.0088295 -0.0397448)
(1.07965 0.0303531 -0.0640021)
(1.09856 0.0468848 -0.0435304)
(1.08623 0.0215019 0.00990179)
(1.03733 -0.015908 0.054766)
(0.99289 -0.0365115 0.0708964)
(0.974008 -0.0394 0.0545396)
(0.994508 -0.0248263 0.0219978)
(1.02535 -0.0144245 0.00691178)
(1.0399 -0.0195561 0.0120704)
(1.02599 -0.0301539 0.0286965)
(0.984897 -0.0401082 0.0406663)
(0.941377 -0.0457432 0.0250823)
(0.910392 -0.0486936 -0.00668622)
(0.915869 -0.0448085 -0.0239049)
(0.958638 -0.0240288 -0.015911)
(1.00926 0.00726696 -0.010025)
(0.977273 -0.00222513 -0.031981)
(1.03222 0.00951944 -0.0362703)
(1.07504 0.0106794 -0.0321547)
(1.10249 0.0010897 -0.0155989)
(1.1168 -0.00457819 0.00994716)
(1.08905 0.00112607 0.0440486)
(1.05305 0.0135612 0.0663831)
(1.06079 0.0195688 0.0455733)
(1.10643 0.00698982 0.00917018)
(1.15415 -0.00438938 0.0048007)
(1.15111 -0.00481081 0.0226458)
(1.10552 -0.0050748 0.0353206)
(1.05042 -0.00379301 0.0245995)
(1.00178 -0.00997633 0.00437632)
(0.985122 -0.0318913 -0.00387007)
(1.00492 -0.0516496 -0.0248437)
(1.03911 -0.0572408 -0.0464349)
(1.06663 -0.0448718 -0.0450797)
(1.06455 -0.0260265 -0.0316975)
(1.02686 -0.0245271 -0.0101857)
(0.999606 -0.0361709 0.00461729)
(0.992069 -0.0489 -0.00206525)
(1.01857 -0.0453111 -0.0263943)
(1.09438 -0.0139728 -0.0493859)
(1.13568 0.0217112 -0.0308043)
(1.09115 0.0332542 0.0227697)
(0.988956 0.00945795 0.041973)
(0.915543 -0.0185523 0.0251605)
(0.898333 -0.0295185 0.0219307)
(0.919686 -0.0265883 0.0275939)
(0.969794 -0.0131434 0.0320202)
(0.99075 -0.00586186 0.0445348)
(0.992192 -0.00735293 0.0594909)
(0.998077 -0.00655538 0.0681235)
(0.988666 -0.00755341 0.0514637)
(0.945905 -0.0208115 0.0108679)
(0.891359 -0.046998 -0.0158009)
(0.884887 -0.0620638 -0.0121442)
(0.914078 -0.0476266 -0.00508938)
(0.940546 -0.0212996 -0.0176538)
(0.958829 -0.0224279 -0.0128389)
(0.993318 -0.0166714 -0.0122956)
(1.03926 -0.0134739 -0.00759133)
(1.10345 -0.0121267 0.00905721)
(1.11176 -0.00456491 0.0445941)
(1.05163 0.01406 0.0713044)
(1.03838 0.0296347 0.0543094)
(1.11147 0.0191515 0.0156478)
(1.18718 -0.00165629 0.00764818)
(1.17059 -0.00232901 0.0285142)
(1.08588 0.00446657 0.0316951)
(1.02576 0.00472269 0.0120415)
(0.994213 0.00113817 -0.00993439)
(0.967113 -0.0176584 -0.0133463)
(0.960795 -0.0440729 -0.00958613)
(0.969633 -0.0531263 -0.0254903)
(0.982895 -0.0410612 -0.0321389)
(1.0063 -0.0176906 -0.0141504)
(1.03133 -0.00429631 0.00895121)
(1.0482 -0.0141653 0.0216203)
(1.05555 -0.0290204 0.0112305)
(1.04256 -0.0429254 -0.0190687)
(1.04246 -0.044536 -0.0406979)
(1.06024 -0.0183612 -0.0257439)
(1.03994 0.021493 0.030452)
(0.999505 0.0444076 0.0784444)
(0.979881 0.0244407 0.0530339)
(0.98914 -0.0120182 -0.00590898)
(0.993318 -0.0289339 -0.0354401)
(0.978778 -0.0235773 -0.0389275)
(0.970785 -0.00588723 -0.0205384)
(0.952063 0.00256691 0.00646719)
(0.958294 0.00805112 0.0225159)
(1.0068 0.02711 0.0373866)
(1.04966 0.0369868 0.0389571)
(1.03125 0.013116 0.0121657)
(0.985185 -0.0241692 -0.00714167)
(0.975927 -0.0443856 0.0109168)
(0.963566 -0.0392498 0.0202091)
(0.943954 -0.0287181 0.000285944)
(1.00399 -0.0110952 -0.035533)
(0.988277 -0.026284 0.000146666)
(0.986808 -0.0361473 0.0196424)
(1.02095 -0.028839 0.0418067)
(1.02341 -0.00756385 0.0687387)
(1.01062 0.0169646 0.0664111)
(1.04577 0.0169087 0.0430837)
(1.09799 0.000316814 0.0321817)
(1.09544 -0.000857335 0.0444713)
(1.03772 0.00660246 0.0516177)
(0.985269 0.0069358 0.023071)
(0.960144 0.00128658 -0.00631177)
(0.935973 -0.00883902 -0.00906295)
(0.915605 -0.032402 -0.00609155)
(0.933735 -0.0488691 -0.0203829)
(0.965422 -0.0291337 -0.0311763)
(0.979607 0.00572195 -0.0111622)
(0.990611 0.0216384 0.0174464)
(1.00605 0.0142883 0.0266596)
(1.02542 0.00455849 0.0116254)
(1.02822 0.000165002 -0.00987563)
(1.01014 -0.0174104 -0.032838)
(1.00849 -0.0279126 -0.0330121)
(1.00663 -0.00699007 0.00740534)
(0.97955 0.0252533 0.0562115)
(0.974929 0.0329073 0.0677773)
(1.00091 0.00261596 0.0213604)
(1.03133 -0.0225584 -0.0291731)
(1.02975 -0.0231283 -0.0352047)
(0.998953 -0.0153804 -0.021982)
(0.978069 -0.00602507 -0.00926156)
(0.964019 -0.000949147 -0.0156666)
(0.983074 0.00843106 -0.0267192)
(1.03324 0.0270563 0.00770996)
(1.04638 0.0281258 0.0469199)
(1.00865 0.00641562 0.00862402)
(1.00768 -0.0036122 -0.0571415)
(1.04445 -0.000755969 -0.0485749)
(1.0328 -0.00122868 -0.0306906)
(1.00628 -0.00418282 -0.047209)
(1.00591 0.0120991 -0.031161)
(0.932641 -0.012807 0.0114112)
(0.905721 -0.0386221 0.0239447)
(0.926755 -0.0370892 0.0404008)
(0.943131 -0.0142819 0.0592938)
(0.96428 0.0120633 0.0461287)
(0.991886 0.0164296 0.0226786)
(1.00814 0.00908522 0.0222731)
(1.03153 0.00878728 0.0418832)
(1.06401 0.00623458 0.051463)
(1.06525 0.00240722 0.0273509)
(1.02262 0.00281953 0.000825767)
(0.976246 -0.0127397 0.00297741)
(0.956823 -0.046802 0.00220416)
(0.965442 -0.0535098 -0.0244973)
(0.958399 -0.0112322 -0.0320668)
(0.947201 0.0269291 -0.0133598)
(0.957897 0.0246352 0.00923551)
(0.977943 -0.000126105 0.0299876)
(1.0069 -0.00541881 0.0259006)
(1.01577 0.0041683 0.00727603)
(1.0017 -0.00438771 -0.017962)
(0.992975 -0.00897456 -0.0179037)
(0.988394 0.00207866 0.0264638)
(1.00646 0.0195669 0.0458849)
(1.04297 0.0297424 0.0227849)
(1.03926 0.0117784 -0.00967046)
(1.02033 -0.000262497 -0.0354084)
(1.01023 -0.00182904 -0.0343552)
(0.993857 -0.0164002 -0.020042)
(0.966925 -0.0291591 -0.0134625)
(0.944024 -0.0304799 -0.0301334)
(0.959126 -0.00936992 -0.043944)
(1.00055 0.0294201 -0.00961238)
(0.987859 0.0340683 0.0239779)
(0.938616 -0.00231904 -0.0207748)
(0.96722 -0.0211611 -0.0910144)
(1.04268 -0.0160964 -0.0839821)
(1.07044 -0.0116692 -0.0630953)
(1.05694 0.00302928 -0.0652004)
(0.994427 0.0274923 -0.0305739)
(0.948054 -0.00220348 0.00220586)
(0.915591 -0.0270212 0.0212069)
(0.904783 -0.0237203 0.0494064)
(0.898946 -0.0138921 0.0683447)
(0.926598 0.00660112 0.0413199)
(0.951988 0.021476 0.00962988)
(0.95859 0.0166296 0.00906083)
(0.997742 0.00289638 0.0244145)
(1.03427 -0.014386 0.0271607)
(1.02349 -0.0208363 0.0013039)
(0.984586 -0.019572 -0.0220728)
(0.956943 -0.0335913 -0.00833028)
(0.946662 -0.0559391 0.00362415)
(0.94361 -0.0466329 -0.0156309)
(0.941911 0.00387615 -0.0282277)
(0.956592 0.0404187 -0.0354078)
(0.965608 0.0310768 -0.0167891)
(0.960767 -0.00313258 0.0280136)
(0.969149 -0.013837 0.0376025)
(0.983847 -0.00486789 0.0238093)
(0.995413 -0.00659174 2.88453e-05)
(0.996286 -0.000635342 -0.00797173)
(0.996231 0.00524878 0.0128481)
(1.03312 0.0139069 0.00448476)
(1.05781 0.0264451 -0.0174632)
(1.02352 0.0128051 -0.0231613)
(1.009 0.00560607 -0.0336604)
(1.01449 0.0107686 -0.0350177)
(0.988735 -0.00252103 -0.0290377)
(0.944456 -0.023551 -0.0314354)
(0.933127 -0.0268214 -0.0384969)
(0.976872 0.00685091 -0.0310926)
(1.02274 0.052241 -0.000733227)
(0.99723 0.0460863 0.012739)
(0.946046 -0.00193571 -0.0408752)
(0.962944 -0.018612 -0.0913574)
(0.991998 -0.0176592 -0.0481779)
(1.00383 -0.0235924 -0.0204549)
(1.0145 0.0048696 -0.0437715)
(1.02675 0.0320728 -0.0366002)
(1.00678 -0.0022841 -0.0150305)
(0.964533 -0.0320696 0.0171236)
(0.930783 -0.0341843 0.0723598)
(0.908503 -0.0294 0.0800711)
(0.92071 -0.00792822 0.0292284)
(0.942549 0.0176253 0.00791402)
(0.980027 0.0262976 0.0231157)
(1.02261 0.0235122 0.0261764)
(0.987403 0.00283964 0.00488676)
(0.923062 -0.021362 -0.0275674)
(0.905227 -0.0285082 -0.031662)
(0.906333 -0.0370269 -0.00419735)
(0.881265 -0.0560539 0.000903644)
(0.859558 -0.04469 -0.0146172)
(0.878605 0.00130597 -0.0223712)
(0.922436 0.030144 -0.0308211)
(0.941286 0.0250598 -0.007259)
(0.951281 0.00107353 0.0215379)
(0.971132 -0.00956605 0.0194542)
(0.980384 -0.0107689 0.020588)
(0.972783 -0.0164376 0.00121096)
(0.955101 -0.0051281 -0.0207684)
(0.958795 -0.00148111 -0.0115444)
(1.01264 0.00608994 -0.0227984)
(1.04333 0.0247855 -0.0427887)
(0.997472 0.0121837 -0.0270606)
(0.976948 0.00552776 -0.00781823)
(1.00413 0.017766 -0.0150936)
(1.00912 0.00970914 -0.0477691)
(0.973104 -0.0122296 -0.0719873)
(0.953227 -0.0167378 -0.0555959)
(0.993204 0.0192408 -0.0244476)
(1.02948 0.0663736 -0.00426033)
(1.00262 0.0546027 -0.0036868)
(0.975138 0.00997468 -0.0336163)
(0.98934 0.0104309 -0.0388465)
(0.98683 0.00113743 -0.000841402)
(0.982936 -0.0292122 -0.0185665)
(1.00968 0.00244859 -0.0540654)
(1.03837 0.0256755 -0.0416436)
(1.08073 -0.00975081 -0.038226)
(1.07491 -0.0457537 0.00235675)
(1.01238 -0.0554081 0.0674819)
(0.942135 -0.0549787 0.0648331)
(0.937703 -0.0309706 0.0233744)
(0.967157 0.00502505 0.0304088)
(1.00473 0.0222712 0.0446862)
(1.00773 0.0275942 0.0283204)
(0.939784 0.00876817 0.00731562)
(0.896738 -0.0211539 -0.017386)
(0.923281 -0.0259931 -0.00999515)
(0.926372 -0.030873 0.0210851)
(0.84605 -0.0581334 0.0141012)
(0.791574 -0.0554624 -0.00735642)
(0.827521 -0.0192057 -0.0139791)
(0.889685 0.0011663 -0.0201033)
(0.930659 0.0046905 -0.00938771)
(0.970947 -0.00685063 -0.00449695)
(0.986866 -0.0108229 0.00424999)
(0.960549 -0.0088956 0.028362)
(0.920937 -0.0188694 0.00276805)
(0.911243 -0.0153959 -0.0334953)
(0.944482 -0.0132421 -0.0319325)
(1.00099 0.00682274 -0.0492747)
(1.00684 0.0396305 -0.0634521)
(0.958336 0.0253664 -0.0225644)
(0.981861 0.0104908 0.018851)
(1.04037 0.0159789 -0.000298322)
(1.02112 0.00845574 -0.0673608)
(0.963155 -0.00237852 -0.100832)
(0.956624 0.00326331 -0.0613941)
(1.00117 0.0446205 -0.018397)
(1.0184 0.0877277 -0.00939709)
(1.00305 0.0606858 -0.0278164)
(1.01182 0.0118291 -0.043228)
(1.04274 0.0186818 -0.0068446)
(1.0242 0.00298233 0.0219904)
(0.975907 -0.0329832 -0.0287846)
(0.987916 -0.00183732 -0.0595079)
(1.0569 0.014584 -0.0251982)
(1.08749 -0.0222475 -0.0201141)
(1.03369 -0.0424937 0.0303944)
(0.937327 -0.0486587 0.0639254)
(0.870779 -0.0586701 0.0415537)
(0.880971 -0.0382101 0.0432225)
(0.933817 0.00381148 0.0717409)
(0.959273 0.0268443 0.0466923)
(0.920892 0.0309368 0.0209428)
(0.863937 0.00581912 0.0197061)
(0.871737 -0.0278603 -0.00496012)
(0.933518 -0.0195057 0.00272419)
(0.930169 -0.00820242 0.0292343)
(0.841721 -0.041181 0.0201875)
(0.798187 -0.0632253 0.0100382)
(0.835815 -0.0476233 0.000225809)
(0.884919 -0.0282178 -0.0273952)
(0.938065 -0.00786618 -0.033065)
(0.989345 -0.00416887 -0.0230351)
(0.988813 -0.00444163 0.00397228)
(0.95808 -0.00785145 0.0248697)
(0.928199 -0.0253641 -0.0148003)
(0.930575 -0.0264383 -0.0437763)
(0.953757 -0.0203905 -0.0367715)
(0.975432 0.0154047 -0.053042)
(0.959878 0.0554844 -0.0571929)
(0.941691 0.0275878 -0.0207077)
(1.01991 0.00540895 0.0155462)
(1.07057 0.0237182 -0.00232266)
(1.00047 0.0254291 -0.0763989)
(0.941898 0.00761999 -0.104561)
(0.960115 0.00903052 -0.0528651)
(1.00962 0.0540916 -0.00469325)
(1.01266 0.0946295 -0.000491696)
(0.990827 0.0607739 -0.0370242)
(1.01964 0.0060326 -0.0458454)
(1.09045 0.00837848 0.00830152)
(1.06166 -0.00441515 0.0112891)
(0.976732 -0.0283084 -0.0518729)
(0.985824 0.00357402 -0.0498304)
(1.08649 0.00938238 -0.00707397)
(1.06729 -0.00705461 0.00172514)
(0.970132 -0.0197272 0.0503231)
(0.902365 -0.0407023 0.0601467)
(0.856543 -0.0617837 0.0401045)
(0.843971 -0.0406888 0.0591379)
(0.868143 0.00554701 0.0528068)
(0.853024 0.0239009 0.00375432)
(0.819917 0.0204043 0.0231735)
(0.821217 -0.00688343 0.039554)
(0.860899 -0.03887 -0.00273264)
(0.919319 -0.0124965 0.00791082)
(0.922066 0.0149401 0.0355481)
(0.867496 -0.0223108 0.0254054)
(0.841644 -0.0562575 0.0277317)
(0.850563 -0.0519325 0.011197)
(0.862706 -0.037029 -0.028433)
(0.930449 -0.00970843 -0.032525)
(0.981279 -0.000403818 -0.0230139)
(0.959797 -0.00330257 -0.00157469)
(0.95273 -0.00613896 0.00489657)
(0.948685 -0.0236372 -0.0401778)
(0.946039 -0.0293461 -0.0481342)
(0.938752 -0.0211254 -0.034432)
(0.938141 0.0273987 -0.0507452)
(0.939664 0.0674984 -0.0518923)
(0.958061 0.0246333 -0.0222623)
(1.03033 0.00260339 0.0101319)
(1.04752 0.0363749 -0.0164034)
(0.978634 0.0386509 -0.0914383)
(0.959293 0.00943579 -0.0908346)
(0.991249 0.00377982 -0.0261012)
(1.00364 0.0486593 0.00560171)
(0.966649 0.0971569 -0.0100214)
(0.962152 0.0602974 -0.0324013)
(1.02002 -0.00833356 -0.0171401)
(1.07499 -0.012689 0.0132539)
(1.00899 -0.0109997 -0.0188045)
(0.93789 -0.0190859 -0.0597532)
(0.996665 0.0023378 -0.0268547)
(1.06846 0.0113491 -0.000672089)
(1.04017 0.00853849 0.0159872)
(0.956544 -0.00708699 0.0669765)
(0.948372 -0.034715 0.0747719)
(0.929317 -0.0547867 0.0412982)
(0.866061 -0.0304444 0.0319986)
(0.826719 0.00882301 -0.00130512)
(0.793897 0.0067488 -0.0210046)
(0.782058 -0.00761118 0.0388759)
(0.804926 -0.0223265 0.0451459)
(0.842864 -0.0367308 0.00350642)
(0.890193 0.00208765 0.0359065)
(0.918974 0.0326361 0.0519406)
(0.904969 -0.00903946 0.0147747)
(0.883578 -0.0438935 0.00644254)
(0.867276 -0.0466811 -0.01184)
(0.866094 -0.0375715 -0.0282177)
(0.940014 -0.0052565 -0.0142433)
(0.950522 0.00119801 -0.0169202)
(0.901251 -0.00970873 -0.00433033)
(0.921091 -0.00987223 -0.00780084)
(0.936865 -0.0255252 -0.0581524)
(0.926684 -0.0307116 -0.0466581)
(0.899785 -0.0170911 -0.0248928)
(0.902079 0.0349442 -0.0519355)
(0.947563 0.0695582 -0.0564984)
(0.985903 0.0264932 -0.018076)
(1.01569 0.011411 0.00434758)
(1.01347 0.0532641 -0.0422267)
(0.97833 0.0516855 -0.101378)
(0.990623 0.0121162 -0.0633801)
(1.00007 0.000647186 -0.00152624)
(0.944783 0.048574 -0.00588604)
(0.906332 0.0990357 -0.0276776)
(0.962214 0.0543857 -0.00981013)
(1.00896 -0.0189436 0.00463108)
(1.00909 -0.0182573 0.00171551)
(0.940833 -0.00679768 -0.0263497)
(0.908097 -0.0189195 -0.0445686)
(0.984063 -0.00640643 -0.0154558)
(1.05314 0.0173252 0.0121167)
(0.998524 0.0210305 0.0398841)
(0.899655 -0.00114439 0.0867224)
(0.949057 -0.0398399 0.0716798)
(0.952229 -0.0526622 0.0195468)
(0.845377 -0.0209177 0.00100945)
(0.786848 0.00578441 -0.0195273)
(0.778314 -0.0117547 -0.0117122)
(0.769919 -0.0273794 0.0519048)
(0.783437 -0.0291215 0.0408508)
(0.809912 -0.0254306 0.00819708)
(0.858527 0.0217434 0.0553407)
(0.921633 0.0448309 0.0536816)
(0.926837 -0.00507524 -0.0101311)
(0.913646 -0.0359475 -0.0342414)
(0.905677 -0.0318684 -0.0388673)
(0.908509 -0.0182086 -0.0109658)
(0.963445 0.0100275 0.0122296)
(0.929122 -0.00317619 -0.00958905)
(0.870127 -0.0235308 0.0102838)
(0.905434 -0.0181224 -0.00033032)
(0.916027 -0.0299459 -0.0653285)
(0.88858 -0.0267135 -0.039539)
(0.857689 -0.00377156 -0.0164389)
(0.883085 0.0403529 -0.064152)
(0.968501 0.0671747 -0.0593902)
(1.00048 0.032323 -0.00461155)
(0.989256 0.021818 -0.00731958)
(0.991125 0.0619926 -0.0677732)
(0.990019 0.0600663 -0.0983886)
(1.01562 0.0182147 -0.0392781)
(0.987698 0.0026772 0.00578228)
(0.881145 0.0491981 -0.0257364)
(0.888938 0.0946162 -0.0318967)
(0.98155 0.041669 0.00867361)
(0.98498 -0.0302597 0.00451998)
(0.963934 -0.0176123 -0.0141972)
(0.913612 -0.00175248 -0.0293672)
(0.881549 -0.0170722 -0.0325353)
(0.953539 -0.00512712 -0.00577742)
(1.03147 0.0210236 0.0282079)
(0.951962 0.037838 0.0613987)
(0.863986 0.000393505 0.097068)
(0.95077 -0.0521504 0.05171)
(0.945041 -0.0517271 -0.00754032)
(0.808938 -0.017668 -0.00911846)
(0.767115 -0.00457678 -0.0145587)
(0.781411 -0.0252676 0.000444915)
(0.777191 -0.0342184 0.0533577)
(0.783878 -0.0267896 0.0272747)
(0.78959 -0.00968918 0.00575205)
(0.841498 0.0403978 0.0606918)
(0.923007 0.0498679 0.0475509)
(0.921276 -0.0107388 -0.0229287)
(0.918272 -0.0344328 -0.0592005)
(0.91801 -0.0150152 -0.057511)
(0.918337 -0.00137939 0.00116332)
(0.973016 0.00946321 0.0283624)
(0.916111 -0.0173109 -0.000615259)
(0.867078 -0.0316497 0.0233109)
(0.923038 -0.0184472 0.00110742)
(0.907521 -0.0272854 -0.0708742)
(0.85646 -0.0151391 -0.0380136)
(0.834201 0.0117242 -0.0271732)
(0.887631 0.0423944 -0.0852397)
(0.997781 0.0657506 -0.0470045)
(1.00763 0.0392126 0.0071213)
(0.963552 0.0292023 -0.0301073)
(0.970414 0.0669225 -0.0833554)
(0.996079 0.0648049 -0.0919572)
(1.03849 0.024116 -0.0300036)
(0.973903 0.0104293 0.00920593)
(0.851264 0.0510054 -0.0309559)
(0.924826 0.0889938 -0.0208199)
(1.00741 0.0295757 0.0303591)
(0.963272 -0.0430514 0.00497445)
(0.958541 -0.0192239 -0.0342069)
(0.91415 0.00333517 -0.0396524)
(0.843023 -0.0137844 -0.0233212)
(0.91335 -0.00829301 0.010446)
(1.00272 0.0199109 0.0413504)
(0.912585 0.0467764 0.0784982)
(0.877426 -0.00189753 0.0868334)
(0.955334 -0.0571862 0.0268683)
(0.912322 -0.0438617 -0.0115996)
(0.78507 -0.0117116 0.00147829)
(0.772874 -0.0122769 -0.00993319)
(0.783156 -0.0333896 0.0142731)
(0.777543 -0.0351415 0.0581282)
(0.796117 -0.0195582 0.0116475)
(0.799058 0.00530373 -0.00331827)
(0.84543 0.0518825 0.0526923)
(0.915108 0.0514464 0.0388627)
(0.903681 -0.0087523 -0.0235321)
(0.901951 -0.0270398 -0.0614709)
(0.909812 -0.00740043 -0.0414884)
(0.914943 -0.00393863 0.0219936)
(0.927063 -0.00517768 0.0174208)
(0.838781 -0.0297787 -0.0169612)
(0.843048 -0.0333057 0.0154208)
(0.937582 -0.0166445 -0.0137854)
(0.88687 -0.024179 -0.07425)
(0.826821 -0.00220189 -0.0359541)
(0.829375 0.0240859 -0.0550468)
(0.893665 0.0414912 -0.0987336)
(1.01082 0.0636064 -0.0240043)
(0.996326 0.0454148 -0.00571032)
(0.911909 0.0404222 -0.0641951)
(0.937169 0.0737603 -0.0838962)
(1.00312 0.0642881 -0.0794737)
(1.04621 0.0304931 -0.0262009)
(0.972787 0.0187251 0.0132595)
(0.876974 0.0463056 -0.015638)
(0.984949 0.0822139 0.0100981)
(1.04317 0.0242148 0.0551829)
(0.962367 -0.0480979 0.00738089)
(0.959375 -0.0177159 -0.0455411)
(0.898913 0.0123325 -0.039283)
(0.811131 -0.0101399 -0.0173725)
(0.898372 -0.0162387 0.0145781)
(0.956053 0.0188157 0.0477061)
(0.870728 0.0493005 0.0900343)
(0.923062 -0.00216988 0.0648292)
(0.962188 -0.0509695 0.00304872)
(0.84506 -0.0299283 -0.00118789)
(0.734208 -0.0060419 0.0215448)
(0.746407 -0.0142983 -0.000714523)
(0.749457 -0.0310778 0.0393306)
(0.750196 -0.0301969 0.0750768)
(0.806443 -0.0111172 -0.00290854)
(0.818844 0.020639 -0.0158978)
(0.840745 0.0632615 0.0426203)
(0.908935 0.0518756 0.0321737)
(0.865385 -0.00936624 -0.0099405)
(0.844007 -0.0271329 -0.0409456)
(0.914981 -0.00689992 -0.0216693)
(0.908802 -0.00401249 0.0088848)
(0.814069 -0.0178028 -0.0238449)
(0.744935 -0.0431913 -0.0448495)
(0.846889 -0.0331697 -0.00133027)
(0.962395 -0.00776772 -0.0352968)
(0.853202 -0.012143 -0.0830811)
(0.796308 0.0138082 -0.0338608)
(0.835313 0.0350723 -0.0672396)
(0.898206 0.0397433 -0.0760809)
(1.02613 0.0584388 0.0144267)
(0.982985 0.0545659 -0.0196768)
(0.862027 0.0556304 -0.0729692)
(0.946023 0.0738509 -0.0574336)
(1.02211 0.0560125 -0.0506616)
(1.0258 0.0324233 -0.0101575)
(0.957117 0.0192704 0.0148831)
(0.894247 0.0362599 0.00788955)
(1.02105 0.0761721 0.0511077)
(1.0608 0.0214404 0.0704676)
(0.952927 -0.0479725 0.00756774)
(0.942854 -0.00898666 -0.0354269)
(0.876952 0.0203901 -0.0199993)
(0.814897 -0.0122337 -0.023013)
(0.913286 -0.0229625 -0.00425774)
(0.899607 0.0286981 0.0497763)
(0.854449 0.0485364 0.0916528)
(0.971653 -0.00664824 0.0389546)
(0.943087 -0.0398674 -0.0161453)
(0.769375 -0.013098 0.0192189)
(0.684045 -0.00139672 0.0537564)
(0.694751 -0.0131219 0.0281226)
(0.702412 -0.0256213 0.0717345)
(0.73493 -0.0260582 0.0924713)
(0.815102 -0.00456318 -0.00786339)
(0.823324 0.0353903 -0.0264828)
(0.864336 0.0710448 0.0237359)
(0.927071 0.0538944 0.0266415)
(0.811917 -0.00793618 0.0081003)
(0.775854 -0.0360986 -0.0248575)
(0.926108 -0.0101603 -0.0304208)
(0.917315 0.00334615 -0.0199038)
(0.760909 -0.0256381 -0.0427664)
(0.723157 -0.0571454 -0.0518332)
(0.876613 -0.0313883 -0.028836)
(0.974902 0.00397411 -0.0725799)
(0.810194 -0.00143463 -0.092522)
(0.78528 0.0213913 -0.0345866)
(0.846117 0.0409732 -0.0676438)
(0.89267 0.0364666 -0.0369203)
(1.03693 0.0540769 0.0426447)
(0.945439 0.0697579 -0.0412659)
(0.849749 0.0685404 -0.0661575)
(1.00294 0.0651325 -0.0365745)
(1.00667 0.0468435 -0.0226275)
(0.966352 0.0324677 0.013168)
(0.90726 0.0156485 0.0210903)
(0.863728 0.0264569 0.0500888)
(1.01299 0.0699421 0.103578)
(1.04911 0.018334 0.0691525)
(0.928962 -0.0431878 0.00310662)
(0.914414 0.00312483 -0.0136403)
(0.857509 0.0225649 0.00269613)
(0.826405 -0.0209108 -0.0277039)
(0.919885 -0.0200683 -0.0218827)
(0.829562 0.0414264 0.0568467)
(0.877784 0.0426009 0.0924499)
(0.995023 -0.00854982 0.0194828)
(0.89313 -0.0251735 -0.0297159)
(0.726015 -0.00227096 0.0378948)
(0.655897 -0.00075986 0.0843969)
(0.64612 -0.0121563 0.0539502)
(0.666112 -0.0244154 0.0858281)
(0.739099 -0.023291 0.102407)
(0.809933 0.00301613 -0.00242792)
(0.818272 0.040639 -0.047655)
(0.897356 0.0672453 -0.00239479)
(0.922253 0.0566515 0.0309094)
(0.799647 -0.00582404 0.0159885)
(0.777863 -0.0422784 -0.0258134)
(0.938677 -0.00969992 -0.0434635)
(0.940178 0.00829483 -0.0485602)
(0.787341 -0.0272068 -0.056145)
(0.741994 -0.0566805 -0.0336993)
(0.844777 -0.0190017 -0.0368098)
(0.887932 0.0203817 -0.1059)
(0.763489 0.00561116 -0.0816025)
(0.790155 0.0254939 -0.0294921)
(0.829532 0.0426421 -0.0559671)
(0.869722 0.0295263 -0.000160576)
(0.998555 0.0537371 0.0373586)
(0.863083 0.0852483 -0.0540986)
(0.893525 0.0724699 -0.0517054)
(1.03221 0.0570742 -0.0416569)
(0.955127 0.0442639 -0.00765232)
(0.934076 0.0319485 0.0393227)
(0.879494 0.00999484 0.0461456)
(0.839335 0.0157124 0.107464)
(0.990187 0.0589511 0.145576)
(1.0307 0.0128519 0.0458346)
(0.901798 -0.0349505 -0.00420811)
(0.864806 0.0155236 0.0234875)
(0.846479 0.0217262 0.0215318)
(0.838541 -0.0307838 -0.0342132)
(0.889271 -0.0140567 -0.0250099)
(0.767387 0.0508371 0.0876921)
(0.917358 0.035071 0.100579)
(0.976291 -0.00301904 0.00480626)
(0.851787 -0.0109654 -0.0388885)
(0.722459 0.00258983 0.0485559)
(0.653696 0.00115503 0.0887983)
(0.633278 -0.0080508 0.0492961)
(0.664605 -0.0238303 0.0737598)
(0.74853 -0.0196364 0.0913588)
(0.794496 0.00921496 -0.0060888)
(0.807868 0.0349678 -0.0837659)
(0.917177 0.061901 -0.0309895)
(0.919486 0.0611464 0.0434014)
(0.81704 -0.00680125 0.023386)
(0.799202 -0.0449004 -0.0190406)
(0.967251 -0.00913222 -0.0365178)
(0.954666 0.00606169 -0.065703)
(0.771727 -0.0229475 -0.0584693)
(0.731733 -0.0431847 -0.0100729)
(0.787757 -0.0012459 -0.0444737)
(0.788202 0.0245759 -0.114194)
(0.737079 -0.00165657 -0.0536741)
(0.80628 0.0264729 -0.00171921)
(0.837077 0.0418261 -0.0202086)
(0.897004 0.0178528 0.0249951)
(0.954669 0.0561219 0.0244582)
(0.806505 0.0935801 -0.0393427)
(0.963692 0.0684294 -0.0396312)
(1.00471 0.0519913 -0.0514722)
(0.917822 0.0417612 0.000601006)
(0.943694 0.0265247 0.0567673)
(0.895332 0.00269219 0.0753965)
(0.853675 0.00779132 0.139157)
(0.976334 0.0453826 0.14124)
(0.997831 0.0100329 0.0044152)
(0.867564 -0.0224594 -0.0113521)
(0.836273 0.0226418 0.066028)