/*--------------------------------*- C++ -*----------------------------------*\
  =========                 |
  \\      /  F ield         | OpenFOAM: The Open Source CFD Toolbox
   \\    /   O peration     | Website:  https://openfoam.org
    \\  /    A nd           | Version:  10
     \\/     M anipulation  |
\*---------------------------------------------------------------------------*/
FoamFile
{
    format      ascii;
    class       volSymmTensorField;
    location    "70";
    object      UPrime2Mean;
}
// * * * * * * * * * * * * * * * * * * * * * * * * * * * * * * * * * * * * * //

dimensions      [0 2 -2 0 0 0 0];

internalField   nonuniform List<symmTensor> 
25600
(
(0.00117045 1.28924e-05 9.12751e-06 3.92445e-05 6.82437e-07 8.79571e-06)
(0.0011717 1.1828e-05 8.34873e-06 3.90079e-05 6.62148e-07 8.96132e-06)
(0.00117202 1.19345e-05 7.74733e-06 3.97025e-05 6.68068e-07 9.07617e-06)
(0.00117084 1.23143e-05 7.46217e-06 3.88195e-05 2.46496e-07 9.01323e-06)
(0.00117027 1.25495e-05 7.2726e-06 3.98512e-05 2.91133e-07 9.16496e-06)
(0.00117009 1.27954e-05 7.32783e-06 4.02969e-05 5.05177e-07 9.42012e-06)
(0.00117055 1.28593e-05 7.42474e-06 3.9319e-05 9.14572e-08 9.44948e-06)
(0.00117156 1.43288e-05 7.40474e-06 3.99023e-05 2.22368e-07 9.65166e-06)
(0.00117245 1.50523e-05 6.84863e-06 4.00445e-05 4.10328e-07 9.75404e-06)
(0.0011744 1.59262e-05 6.08968e-06 3.96001e-05 4.09591e-07 9.63895e-06)
(0.00117719 1.71954e-05 5.02732e-06 4.04325e-05 8.04657e-07 9.42082e-06)
(0.00117835 1.75182e-05 3.60854e-06 3.931e-05 7.74841e-07 8.88767e-06)
(0.00117793 1.86312e-05 1.83571e-06 3.90485e-05 8.86242e-07 8.51875e-06)
(0.001177 1.92349e-05 2.428e-07 4.09902e-05 1.52028e-06 8.40105e-06)
(0.00117557 1.93259e-05 -1.16422e-06 3.98356e-05 1.36084e-06 8.04438e-06)
(0.00117563 2.00489e-05 -2.4757e-06 3.89411e-05 8.56448e-07 7.74469e-06)
(0.00117612 1.96203e-05 -3.1024e-06 4.05069e-05 1.43692e-06 7.9902e-06)
(0.00117559 1.97824e-05 -3.11402e-06 4.10791e-05 1.41373e-06 8.25667e-06)
(0.00117493 2.05498e-05 -2.66988e-06 3.9419e-05 7.80295e-07 8.22307e-06)
(0.00117356 2.08751e-05 -1.84201e-06 4.05976e-05 9.70394e-07 8.11518e-06)
(0.00117161 2.11503e-05 -1.181e-06 4.0869e-05 8.47219e-07 8.31538e-06)
(0.0011709 2.12397e-05 -9.25186e-07 3.97643e-05 5.95357e-07 8.60224e-06)
(0.00117072 2.2127e-05 -3.7733e-07 4.09751e-05 6.29466e-07 8.47581e-06)
(0.00117155 2.22519e-05 4.96674e-07 3.98846e-05 2.64297e-07 8.42912e-06)
(0.00117397 2.15832e-05 6.91771e-07 3.9838e-05 4.27581e-07 8.62967e-06)
(0.00117591 2.00507e-05 8.89262e-07 4.1147e-05 1.09688e-06 8.79213e-06)
(0.00117863 1.79264e-05 1.21541e-06 3.91529e-05 9.29466e-07 8.83699e-06)
(0.00118145 1.79605e-05 1.454e-06 3.77485e-05 7.41594e-07 8.83719e-06)
(0.00118136 1.68036e-05 2.13467e-06 3.89879e-05 1.19621e-06 8.79887e-06)
(0.00118057 1.48987e-05 2.76456e-06 3.92585e-05 1.33471e-06 8.95345e-06)
(0.00117912 1.54654e-05 2.81847e-06 3.87768e-05 1.08818e-06 9.27817e-06)
(0.00117674 1.53543e-05 3.56014e-06 3.85018e-05 1.13966e-06 9.09369e-06)
(0.00117506 1.47347e-05 4.72253e-06 3.89936e-05 1.16018e-06 8.93014e-06)
(0.00117284 1.49042e-05 6.04246e-06 3.92283e-05 1.19102e-06 9.07361e-06)
(0.00117029 1.52575e-05 7.7555e-06 3.88639e-05 1.1045e-06 8.72737e-06)
(0.00116971 1.52694e-05 8.85327e-06 3.92664e-05 8.62839e-07 8.35328e-06)
(0.00116963 1.48775e-05 9.31235e-06 3.92612e-05 1.13174e-06 8.51058e-06)
(0.00116958 1.45528e-05 9.6436e-06 3.97303e-05 1.18539e-06 8.69682e-06)
(0.00117029 1.43962e-05 9.86282e-06 3.9303e-05 9.36867e-07 8.75482e-06)
(0.00117043 1.38361e-05 9.68914e-06 3.9471e-05 8.63475e-07 8.77655e-06)
(0.0011439 1.64219e-05 4.90807e-06 4.25022e-05 3.40109e-06 1.15066e-05)
(0.00114377 1.53867e-05 4.31724e-06 4.22475e-05 3.12114e-06 1.16698e-05)
(0.00114348 1.53181e-05 3.46015e-06 4.33146e-05 3.24401e-06 1.20161e-05)
(0.00114193 1.53984e-05 3.01306e-06 4.24973e-05 2.92067e-06 1.20805e-05)
(0.00114079 1.55303e-05 2.76621e-06 4.27998e-05 2.78727e-06 1.22149e-05)
(0.0011409 1.54896e-05 2.91174e-06 4.30825e-05 3.12476e-06 1.27297e-05)
(0.00114231 1.55419e-05 2.92764e-06 4.24417e-05 2.69063e-06 1.27672e-05)
(0.00114355 1.67323e-05 2.90682e-06 4.31145e-05 2.63149e-06 1.2914e-05)
(0.00114403 1.73821e-05 2.37034e-06 4.32459e-05 3.05691e-06 1.33186e-05)
(0.00114551 1.82525e-05 1.28309e-06 4.30085e-05 3.03512e-06 1.30526e-05)
(0.00114646 1.95711e-05 -6.90369e-07 4.3488e-05 3.40952e-06 1.24591e-05)
(0.00114595 1.99513e-05 -3.23898e-06 4.24712e-05 3.70985e-06 1.16072e-05)
(0.00114442 2.05041e-05 -5.19106e-06 4.28743e-05 3.58872e-06 1.09997e-05)
(0.00114275 2.04832e-05 -6.40186e-06 4.44321e-05 4.04308e-06 1.10838e-05)
(0.00114224 1.99571e-05 -7.69191e-06 4.34924e-05 3.93775e-06 1.11421e-05)
(0.00114313 2.05829e-05 -8.76234e-06 4.23187e-05 3.1982e-06 1.09669e-05)
(0.00114411 2.0712e-05 -9.11826e-06 4.362e-05 3.76677e-06 1.1217e-05)
(0.00114419 2.07347e-05 -9.05547e-06 4.46287e-05 4.07771e-06 1.16213e-05)
(0.00114304 2.17839e-05 -8.469e-06 4.30346e-05 3.29307e-06 1.15443e-05)
(0.00114125 2.28281e-05 -7.67293e-06 4.37034e-05 3.30891e-06 1.1398e-05)
(0.00113911 2.22512e-05 -6.4614e-06 4.34724e-05 3.30368e-06 1.13793e-05)
(0.00113784 2.10451e-05 -5.01245e-06 4.31551e-05 3.21623e-06 1.12863e-05)
(0.00113802 2.13962e-05 -4.33753e-06 4.49257e-05 3.45497e-06 1.11428e-05)
(0.00113952 2.15851e-05 -4.33551e-06 4.35715e-05 3.03668e-06 1.12483e-05)
(0.00114235 2.12441e-05 -4.56106e-06 4.31681e-05 3.01743e-06 1.14874e-05)
(0.0011429 1.92994e-05 -4.43015e-06 4.43221e-05 3.53723e-06 1.17271e-05)
(0.00114213 1.68463e-05 -3.96409e-06 4.31193e-05 3.4029e-06 1.18638e-05)
(0.001142 1.71857e-05 -3.09848e-06 4.23245e-05 3.38772e-06 1.18288e-05)
(0.0011393 1.68088e-05 -1.20605e-06 4.29091e-05 3.8652e-06 1.13525e-05)
(0.00113876 1.55765e-05 3.80505e-07 4.31901e-05 3.8483e-06 1.08296e-05)
(0.00113924 1.64092e-05 1.02037e-06 4.3249e-05 3.50246e-06 1.11412e-05)
(0.00113866 1.70517e-05 2.37452e-06 4.23358e-05 3.4125e-06 1.08536e-05)
(0.00113904 1.68575e-05 3.33776e-06 4.2572e-05 3.39653e-06 1.02722e-05)
(0.00113958 1.68134e-05 4.08076e-06 4.32833e-05 3.75685e-06 1.05627e-05)
(0.00114042 1.70729e-05 5.04256e-06 4.28683e-05 3.6551e-06 1.0646e-05)
(0.00114165 1.72475e-05 5.19466e-06 4.24653e-05 2.97836e-06 1.03648e-05)
(0.00114193 1.70492e-05 5.2134e-06 4.27871e-05 3.45631e-06 1.06356e-05)
(0.00114244 1.72145e-05 5.21116e-06 4.36589e-05 3.81508e-06 1.10715e-05)
(0.00114385 1.75259e-05 5.07662e-06 4.30431e-05 3.20259e-06 1.11047e-05)
(0.00114466 1.73606e-05 5.03538e-06 4.31561e-05 3.29733e-06 1.12754e-05)
(0.00101842 2.26448e-05 5.77684e-06 5.77182e-05 7.60872e-06 2.65534e-05)
(0.0010149 2.20521e-05 4.35075e-06 5.77832e-05 6.86972e-06 2.64446e-05)
(0.00101461 2.29244e-05 2.33223e-06 5.9634e-05 7.09742e-06 2.67038e-05)
(0.00101299 2.20353e-05 1.68239e-06 5.8725e-05 6.96784e-06 2.71334e-05)
(0.00101009 2.07308e-05 2.31091e-06 5.78504e-05 6.66774e-06 2.72288e-05)
(0.00100965 2.13754e-05 3.47285e-06 5.86498e-05 7.39163e-06 2.7749e-05)
(0.00101017 2.1923e-05 3.84878e-06 5.85746e-05 7.08295e-06 2.7819e-05)
(0.00101007 2.31436e-05 3.15e-06 5.88822e-05 6.89941e-06 2.76848e-05)
(0.00101011 2.48818e-05 2.08948e-06 5.92068e-05 8.20714e-06 2.75081e-05)
(0.0010108 2.54499e-05 2.06954e-07 5.8848e-05 8.36453e-06 2.61246e-05)
(0.00100909 2.50817e-05 -2.48773e-06 5.88314e-05 8.1286e-06 2.45626e-05)
(0.0010064 2.44939e-05 -4.43615e-06 5.84542e-05 8.14585e-06 2.4043e-05)
(0.00100321 2.38185e-05 -5.23565e-06 5.8432e-05 7.53585e-06 2.41377e-05)
(0.000999572 2.25887e-05 -5.54595e-06 5.90824e-05 7.74671e-06 2.45049e-05)
(0.000997065 2.11291e-05 -6.16505e-06 5.86406e-05 7.83254e-06 2.482e-05)
(0.000997851 2.23777e-05 -7.09053e-06 5.70786e-05 7.09646e-06 2.48551e-05)
(0.000999992 2.49732e-05 -6.6727e-06 5.71449e-05 7.47398e-06 2.53173e-05)
(0.00100098 2.54254e-05 -5.16528e-06 5.71155e-05 7.45132e-06 2.53667e-05)
(0.00100171 2.59916e-05 -3.83192e-06 5.59466e-05 5.88813e-06 2.42059e-05)
(0.00100337 2.8501e-05 -2.71067e-06 5.58017e-05 5.31925e-06 2.32047e-05)
(0.00100513 2.79707e-05 -1.99751e-06 5.41998e-05 5.61427e-06 2.2742e-05)
(0.00100733 2.65299e-05 -1.16333e-06 5.5057e-05 6.01888e-06 2.26946e-05)
(0.00101093 2.72392e-05 -8.69621e-07 5.7377e-05 6.21196e-06 2.2792e-05)
(0.00101273 2.80969e-05 -1.3596e-06 5.61779e-05 5.75323e-06 2.30778e-05)
(0.00101152 2.89457e-05 -1.35825e-06 5.59109e-05 5.7054e-06 2.34034e-05)
(0.00100496 2.61754e-05 7.93327e-07 5.60445e-05 6.63796e-06 2.35413e-05)
(0.000998548 2.27023e-05 3.75888e-06 5.55386e-05 7.03671e-06 2.30975e-05)
(0.000998406 2.35111e-05 5.59577e-06 5.65138e-05 7.46841e-06 2.25155e-05)
(0.000998249 2.3655e-05 6.95022e-06 5.61405e-05 8.25647e-06 2.20778e-05)
(0.000999852 2.23631e-05 6.72771e-06 5.56108e-05 7.61831e-06 2.21072e-05)
(0.00100392 2.25364e-05 6.22467e-06 5.67925e-05 7.4116e-06 2.31012e-05)
(0.00100699 2.25396e-05 6.32997e-06 5.61894e-05 7.84189e-06 2.35289e-05)
(0.00100783 2.22926e-05 5.85139e-06 5.59243e-05 7.21332e-06 2.31147e-05)
(0.00100963 2.30614e-05 5.73749e-06 5.74041e-05 7.49777e-06 2.34393e-05)
(0.001013 2.3182e-05 5.8185e-06 5.72468e-05 7.70128e-06 2.40246e-05)
(0.00101542 2.2446e-05 5.08622e-06 5.60521e-05 6.55592e-06 2.41133e-05)
(0.00101709 2.2993e-05 5.23899e-06 5.76622e-05 7.10672e-06 2.46407e-05)
(0.0010187 2.38327e-05 5.37659e-06 5.89137e-05 7.75693e-06 2.53587e-05)
(0.00101978 2.33293e-05 4.99947e-06 5.76925e-05 6.81702e-06 2.5497e-05)
(0.00102132 2.3441e-05 5.52489e-06 5.82031e-05 7.27649e-06 2.59933e-05)
(0.000755744 2.46958e-05 1.47258e-05 8.20759e-05 9.82591e-06 4.45237e-05)
(0.000752454 2.47883e-05 1.38999e-05 8.2393e-05 8.84198e-06 4.43019e-05)
(0.000754853 2.64045e-05 1.36965e-05 8.358e-05 9.3721e-06 4.49669e-05)
(0.000755421 2.25852e-05 1.46248e-05 8.13037e-05 1.04236e-05 4.54824e-05)
(0.000754378 2.18684e-05 1.57295e-05 8.08028e-05 1.00593e-05 4.52577e-05)
(0.000756329 2.58021e-05 1.58804e-05 8.17884e-05 1.04402e-05 4.55801e-05)
(0.000757075 2.65386e-05 1.42308e-05 8.11928e-05 1.09773e-05 4.55373e-05)
(0.000759355 2.80637e-05 1.24259e-05 8.27193e-05 1.06285e-05 4.43366e-05)
(0.000761395 3.09131e-05 1.15946e-05 8.43427e-05 1.08673e-05 4.32977e-05)
(0.000761804 2.97612e-05 9.99479e-06 8.33759e-05 1.01826e-05 4.28799e-05)
(0.000760265 2.7595e-05 8.9001e-06 8.36879e-05 9.48481e-06 4.28047e-05)
(0.000759677 2.81456e-05 8.91881e-06 8.48516e-05 9.53048e-06 4.29834e-05)
(0.000754515 2.8337e-05 7.61941e-06 8.46129e-05 8.5824e-06 4.31193e-05)
(0.000746368 2.71329e-05 6.32159e-06 8.52293e-05 8.57836e-06 4.33504e-05)
(0.000745938 2.59213e-05 6.24263e-06 8.56289e-05 9.01274e-06 4.36999e-05)
(0.000750129 2.57646e-05 5.09115e-06 8.42955e-05 7.79249e-06 4.40726e-05)
(0.000754688 2.79152e-05 4.79428e-06 8.42344e-05 7.20375e-06 4.46381e-05)
(0.000757786 2.72989e-05 4.67887e-06 8.40261e-05 7.08355e-06 4.40677e-05)
(0.000756933 2.3943e-05 2.92041e-06 8.3935e-05 5.29015e-06 4.24202e-05)
(0.000758565 2.49939e-05 1.17603e-06 8.39089e-05 4.04842e-06 4.16521e-05)
(0.000758605 2.57419e-05 -9.30696e-07 8.28158e-05 4.24102e-06 4.19739e-05)
(0.000760054 2.6077e-05 -8.5995e-07 8.48006e-05 4.48879e-06 4.22683e-05)
(0.000765353 2.69068e-05 1.15305e-07 8.56345e-05 4.70627e-06 4.27152e-05)
(0.000762886 2.77849e-05 -3.52155e-07 8.51553e-05 4.44226e-06 4.32449e-05)
(0.000751723 2.87685e-05 1.32189e-06 8.61588e-05 4.24883e-06 4.31686e-05)
(0.000745785 2.70962e-05 5.86669e-06 8.38906e-05 5.76233e-06 4.20943e-05)
(0.000747798 2.57255e-05 7.97272e-06 8.28561e-05 7.13959e-06 4.04994e-05)
(0.000751775 2.67129e-05 8.05625e-06 8.51055e-05 8.10926e-06 4.01119e-05)
(0.000748089 2.58089e-05 9.23614e-06 8.37575e-05 9.23054e-06 4.04582e-05)
(0.000742798 2.36912e-05 1.07638e-05 8.13647e-05 8.63355e-06 4.00212e-05)
(0.000745459 2.37199e-05 1.25337e-05 8.20006e-05 9.05211e-06 4.02038e-05)
(0.000750411 2.27558e-05 1.43423e-05 8.1041e-05 1.07265e-05 4.12702e-05)
(0.000748514 2.14695e-05 1.42752e-05 8.02747e-05 9.78707e-06 4.11968e-05)
(0.000744511 2.32991e-05 1.33241e-05 8.26942e-05 9.28945e-06 4.11102e-05)
(0.000744061 2.36331e-05 1.33997e-05 8.21478e-05 9.82505e-06 4.16398e-05)
(0.00074406 2.14217e-05 1.31735e-05 8.02005e-05 8.84668e-06 4.20514e-05)
(0.000748491 2.30245e-05 1.41182e-05 8.33812e-05 8.95219e-06 4.28256e-05)
(0.000751912 2.46644e-05 1.47402e-05 8.37117e-05 9.64445e-06 4.32763e-05)
(0.000750897 2.4126e-05 1.34635e-05 8.15589e-05 8.75204e-06 4.31372e-05)
(0.000755636 2.59142e-05 1.41319e-05 8.27701e-05 9.27624e-06 4.38589e-05)
(0.000682409 0.000123508 3.62194e-05 0.000148981 1.96962e-05 8.93877e-05)
(0.000687725 0.000125628 3.43101e-05 0.000150614 1.77328e-05 9.01196e-05)
(0.00069004 0.000127188 3.45706e-05 0.000152479 1.80986e-05 9.14951e-05)
(0.000684202 0.000123333 3.34914e-05 0.000151448 1.92741e-05 9.25381e-05)
(0.000685355 0.000124042 3.35768e-05 0.000151929 1.89828e-05 9.2591e-05)
(0.00069181 0.000128969 3.30903e-05 0.000154221 1.88736e-05 9.2876e-05)
(0.000696068 0.000131735 3.13071e-05 0.000156181 1.81856e-05 9.08655e-05)
(0.000698992 0.000133394 3.07437e-05 0.000158791 1.56201e-05 8.50149e-05)
(0.000698347 0.000134289 3.01718e-05 0.000160131 1.39356e-05 8.11267e-05)
(0.000700427 0.000133188 2.93204e-05 0.000158876 1.26393e-05 8.106e-05)
(0.000696035 0.000131707 2.94666e-05 0.00016076 1.06006e-05 8.10852e-05)
(0.000687952 0.000131883 2.87449e-05 0.00016378 9.3615e-06 8.17743e-05)
(0.000680333 0.000128868 2.45546e-05 0.000162036 8.44168e-06 8.22927e-05)
(0.000675672 0.000127222 2.28518e-05 0.000162382 7.35084e-06 8.15332e-05)
(0.000676947 0.000128503 2.49675e-05 0.000164072 5.86513e-06 8.16901e-05)
(0.000674563 0.000124897 2.54795e-05 0.000162038 5.07197e-06 8.22564e-05)
(0.000677912 0.000124888 2.58608e-05 0.000160212 4.85096e-06 8.34746e-05)
(0.000678625 0.000125415 2.54383e-05 0.000158374 3.06425e-06 8.43359e-05)
(0.000676971 0.000121965 2.5167e-05 0.00015831 6.77898e-07 8.38881e-05)
(0.000684301 0.000124035 2.69155e-05 0.000160249 1.75773e-07 8.48744e-05)
(0.000683291 0.000125891 2.55205e-05 0.000161595 -2.61877e-08 8.70719e-05)
(0.000683563 0.000126199 2.58254e-05 0.000162672 -1.06174e-06 8.81048e-05)
(0.000690185 0.000127863 2.82024e-05 0.000162964 -1.32185e-06 8.9664e-05)
(0.000688837 0.000129825 2.758e-05 0.000165449 -1.58634e-06 9.08238e-05)
(0.000684768 0.000130663 2.96422e-05 0.000166115 -7.81787e-07 8.87971e-05)
(0.000683352 0.000129553 3.31032e-05 0.000161039 3.13363e-06 8.5566e-05)
(0.000683547 0.000130061 3.35029e-05 0.00015891 5.3942e-06 8.46744e-05)
(0.000686598 0.000131267 3.38856e-05 0.000160911 6.47805e-06 8.51541e-05)
(0.000683249 0.000128194 3.69401e-05 0.000157812 1.0739e-05 8.43134e-05)
(0.000680972 0.000124313 4.06462e-05 0.000151021 1.38734e-05 8.20818e-05)
(0.000680215 0.000124028 4.206e-05 0.000150399 1.54425e-05 8.16865e-05)
(0.00068138 0.000124769 4.28699e-05 0.000152062 1.77657e-05 8.32551e-05)
(0.000682495 0.000124567 4.15135e-05 0.000151608 1.7488e-05 8.3707e-05)
(0.000683732 0.00012745 3.93395e-05 0.000154991 1.68204e-05 8.3928e-05)
(0.000685567 0.000129326 3.9736e-05 0.000154624 1.80571e-05 8.49808e-05)
(0.000679448 0.00012481 3.94257e-05 0.000150018 1.89255e-05 8.54682e-05)
(0.000683104 0.000125317 4.05206e-05 0.000151769 2.01858e-05 8.63308e-05)
(0.000686462 0.000126464 3.96535e-05 0.000151453 1.96923e-05 8.75434e-05)
(0.000680898 0.000123377 3.62891e-05 0.000148737 1.80956e-05 8.76846e-05)
(0.000681427 0.000123731 3.73172e-05 0.000149281 1.94638e-05 8.82033e-05)
(0.000938652 0.000225678 4.34368e-05 0.0002363 1.33073e-05 0.000207974)
(0.000943854 0.000228517 4.33426e-05 0.000236655 1.54397e-05 0.000208099)
(0.000945335 0.000226635 4.80145e-05 0.000233705 1.98829e-05 0.000209357)
(0.000939784 0.000220498 4.97174e-05 0.000230703 2.33201e-05 0.000211318)
(0.000937859 0.000219909 4.98128e-05 0.000230087 2.42031e-05 0.000211548)
(0.000951997 0.000226955 4.97968e-05 0.00023152 2.48995e-05 0.000214035)
(0.000959676 0.00023202 4.76199e-05 0.000236218 2.36719e-05 0.000211821)
(0.000958677 0.000233079 4.61941e-05 0.000239038 1.95638e-05 0.000205038)
(0.000961012 0.000234701 4.6963e-05 0.000234757 1.77195e-05 0.000204517)
(0.0009695 0.000236186 4.575e-05 0.000232229 1.66866e-05 0.000205066)
(0.000964218 0.000235611 4.10036e-05 0.000236947 1.39603e-05 0.0002048)
(0.000949766 0.000233579 3.52575e-05 0.00023828 1.22907e-05 0.000206897)
(0.000935902 0.000227652 2.51755e-05 0.000233086 9.49635e-06 0.000204921)
(0.000933555 0.000228157 1.6607e-05 0.000233599 4.77723e-06 0.00020284)
(0.000938603 0.00022814 1.61701e-05 0.000234054 1.05754e-06 0.000204015)
(0.000926522 0.000221309 1.6155e-05 0.000229583 -4.3519e-08 0.000204873)
(0.000930498 0.000227001 1.70116e-05 0.000229574 -7.15656e-07 0.000208125)
(0.000941663 0.000232764 1.73904e-05 0.000229444 -4.49592e-06 0.000208751)
(0.000937429 0.000231459 1.57182e-05 0.000228754 -8.31735e-06 0.000205937)
(0.000939426 0.000233848 2.01067e-05 0.000230072 -9.96879e-06 0.000209144)
(0.00094237 0.000234889 2.18429e-05 0.000231931 -1.15733e-05 0.000213789)
(0.000943526 0.000237255 2.19882e-05 0.000233184 -1.32015e-05 0.00021273)
(0.000956366 0.000241669 2.55679e-05 0.000233972 -1.57154e-05 0.000213702)
(0.000959749 0.000242374 2.44425e-05 0.000236377 -1.91508e-05 0.000214313)
(0.000953631 0.000240199 2.70797e-05 0.000236086 -1.81074e-05 0.000208642)
(0.000957552 0.000236786 3.64945e-05 0.000231239 -1.31352e-05 0.000205184)
(0.000959746 0.000235124 3.9416e-05 0.000228846 -1.23916e-05 0.000205003)
(0.000964908 0.000235282 3.77463e-05 0.000231372 -1.19022e-05 0.000203364)
(0.00096484 0.000232805 4.13438e-05 0.000229855 -7.52603e-06 0.000200968)
(0.000963837 0.000230604 4.45e-05 0.00022536 -5.6673e-06 0.000196168)
(0.000966513 0.000231628 4.58771e-05 0.000226984 -3.99357e-06 0.000195099)
(0.000973423 0.000234162 4.95113e-05 0.000229696 -8.65641e-08 0.00019837)
(0.000974079 0.000231564 5.00946e-05 0.000230056 -4.08847e-07 0.000199837)
(0.000980828 0.000236943 4.83719e-05 0.000235269 -7.18689e-07 0.000200873)
(0.000996069 0.000241637 5.04703e-05 0.000233914 4.05125e-06 0.000201807)
(0.000986097 0.000232999 5.40908e-05 0.000228497 8.57431e-06 0.000201736)
(0.000974508 0.000233814 5.72121e-05 0.000234431 9.83352e-06 0.000204195)
(0.000958998 0.000232207 5.14219e-05 0.000238362 7.17244e-06 0.000205072)
(0.000932276 0.000220872 4.12484e-05 0.000236835 5.93488e-06 0.000202543)
(0.000926839 0.000220476 4.22387e-05 0.00023616 1.01236e-05 0.000203914)
(0.00141128 0.00032122 1.11353e-07 0.000302694 -1.02407e-05 0.000300489)
(0.00140338 0.000324547 -3.15251e-06 0.000306388 -7.25928e-06 0.000299447)
(0.00140939 0.000327023 2.94386e-06 0.000310746 -3.11235e-06 0.000298459)
(0.00140501 0.000321417 -3.54183e-07 0.000313465 -1.29209e-06 0.000300087)
(0.00137982 0.000313822 -5.85031e-06 0.000312763 2.65468e-07 0.000302185)
(0.00137573 0.000314028 -4.4568e-06 0.000313651 3.24195e-06 0.00030738)
(0.00138612 0.000321884 -6.96036e-06 0.000317383 2.67762e-06 0.0003055)
(0.00138586 0.00032125 -8.46905e-06 0.000312285 -6.52876e-07 0.000302028)
(0.00137317 0.000310372 -8.38313e-06 0.00030014 -2.89405e-06 0.000305179)
(0.00136432 0.000305477 -1.42654e-05 0.000296396 -4.72387e-06 0.000305763)
(0.00133464 0.000301497 -1.7358e-05 0.000298258 -3.30849e-06 0.000308226)
(0.00131485 0.000299806 -1.23597e-05 0.000295944 1.54117e-06 0.000310216)
(0.00132865 0.000302944 -7.16133e-06 0.000297113 2.91575e-06 0.000308543)
(0.00134518 0.000306733 -6.25533e-06 0.000306452 -1.09141e-06 0.00031232)
(0.00134279 0.000300558 -8.26792e-06 0.000305787 -4.80913e-06 0.000316326)
(0.00134011 0.000289251 -4.91274e-06 0.000297678 -7.43164e-06 0.000319788)
(0.00135844 0.000291249 6.79015e-06 0.000296857 -1.04251e-05 0.000328105)
(0.00137989 0.000293208 1.43119e-05 0.000294035 -1.32247e-05 0.00032996)
(0.00139194 0.000290203 1.11382e-05 0.000292293 -1.88038e-05 0.000325391)
(0.00139345 0.00028796 1.35062e-05 0.0002949 -2.37975e-05 0.00033078)
(0.00140886 0.000288076 1.6015e-05 0.0002985 -2.50022e-05 0.000336573)
(0.00143023 0.000291364 1.78993e-05 0.000301332 -2.50387e-05 0.000332107)
(0.00145468 0.000293557 1.94722e-05 0.000305474 -2.9066e-05 0.000330708)
(0.00146662 0.000299226 1.59831e-05 0.000315854 -3.64471e-05 0.000329419)
(0.00145416 0.000302504 2.59999e-05 0.000321663 -3.90115e-05 0.000324321)
(0.00146005 0.000302828 3.38623e-05 0.000317664 -4.07077e-05 0.000324569)
(0.00148492 0.000312645 2.74811e-05 0.000316621 -4.50449e-05 0.000324078)
(0.00148715 0.00031928 2.57928e-05 0.000320914 -4.3703e-05 0.000326666)
(0.00146263 0.000318378 2.41625e-05 0.000321431 -4.22123e-05 0.00032822)
(0.00146384 0.000323572 1.85363e-05 0.000320921 -4.53332e-05 0.000323712)
(0.00148682 0.000333629 1.69734e-05 0.000323052 -4.45836e-05 0.000321589)
(0.0014913 0.000336948 2.17762e-05 0.000318149 -3.88941e-05 0.000321236)
(0.00148667 0.000335255 3.35847e-05 0.000312595 -3.56384e-05 0.000316997)
(0.00150209 0.000347055 3.98295e-05 0.000318048 -3.45187e-05 0.000311458)
(0.00151118 0.000352308 3.42203e-05 0.000315921 -3.17534e-05 0.000304407)
(0.00149856 0.000344614 2.84311e-05 0.00031131 -2.78651e-05 0.00030037)
(0.00147749 0.000348607 2.61897e-05 0.000316614 -2.41389e-05 0.000301545)
(0.00144687 0.000341527 2.00368e-05 0.000313372 -2.21484e-05 0.000300773)
(0.00143214 0.000327045 1.10658e-05 0.00030717 -1.95017e-05 0.000295314)
(0.00142096 0.000322167 6.77916e-06 0.000303806 -1.42848e-05 0.00029555)
(0.00181436 0.000404387 -1.44946e-06 0.000372766 -3.02071e-05 0.000410924)
(0.00181572 0.000406433 -3.96236e-07 0.000381578 -2.1848e-05 0.00040752)
(0.00183027 0.000409865 1.1091e-05 0.000391955 -8.0015e-06 0.000408615)
(0.00184607 0.000404158 1.47677e-05 0.000394892 1.78256e-06 0.000412359)
(0.00184631 0.000403593 1.34784e-05 0.000397505 8.29837e-06 0.000411159)
(0.0018669 0.000420043 1.3231e-05 0.000411451 1.23776e-05 0.000408433)
(0.00188363 0.000434928 1.49797e-05 0.000421986 1.2186e-05 0.000400647)
(0.00186378 0.000423197 1.97128e-05 0.00040971 1.06226e-05 0.000391493)
(0.00181868 0.000402948 2.98193e-05 0.000391108 6.35806e-06 0.000386472)
(0.0017993 0.000398055 3.17668e-05 0.000386531 3.72576e-06 0.000387671)
(0.00180009 0.000402404 3.47852e-05 0.000391083 8.55333e-06 0.000390832)
(0.0018107 0.00041399 4.86183e-05 0.000394245 1.66806e-05 0.000392508)
(0.00184457 0.000424217 6.84443e-05 0.000396893 2.62566e-05 0.000396088)
(0.00187048 0.000428881 8.48223e-05 0.000399969 3.34333e-05 0.00039965)
(0.00186815 0.000421832 8.97136e-05 0.000393425 3.09981e-05 0.000397374)
(0.00188891 0.000419345 9.00304e-05 0.000386522 2.32872e-05 0.000397785)
(0.00192829 0.000430914 9.47368e-05 0.00038925 2.24809e-05 0.000408642)
(0.00194159 0.000430546 0.000101397 0.000388013 2.70477e-05 0.000418167)
(0.00194935 0.00042363 0.000100384 0.000383376 2.5901e-05 0.000417499)
(0.00193572 0.000422835 9.63063e-05 0.000381981 2.00206e-05 0.00042409)
(0.00194055 0.000432748 8.6741e-05 0.000390757 1.24874e-05 0.0004367)
(0.00194203 0.00044556 7.99303e-05 0.000406085 9.75952e-06 0.000435043)
(0.00192792 0.000450196 7.65657e-05 0.000420228 8.05208e-06 0.000428045)
(0.00191719 0.000449927 7.28079e-05 0.000431988 6.32581e-07 0.000428942)
(0.00189463 0.00044021 7.58331e-05 0.000435412 -6.59891e-06 0.000429419)
(0.0018717 0.000434529 7.46353e-05 0.000433773 -1.89495e-05 0.000421801)
(0.0018555 0.000438082 6.61895e-05 0.000432662 -3.17387e-05 0.000413086)
(0.00185422 0.000437366 6.49332e-05 0.000430314 -3.27367e-05 0.000409418)
(0.00186014 0.000436649 6.10797e-05 0.00042681 -3.56906e-05 0.000400529)
(0.00186922 0.000442318 4.05674e-05 0.000430166 -4.21387e-05 0.000393702)
(0.00185688 0.000445018 2.38948e-05 0.000434124 -4.17684e-05 0.000393351)
(0.0018217 0.000433951 2.56923e-05 0.000425623 -3.76072e-05 0.000392094)
(0.00180571 0.000426717 3.63792e-05 0.000418976 -3.44299e-05 0.000393655)
(0.00182141 0.000439325 3.8442e-05 0.000419972 -3.62242e-05 0.000401959)
(0.00181602 0.00043455 3.01694e-05 0.000407129 -4.54969e-05 0.00040555)
(0.00181133 0.000424525 2.05779e-05 0.000396313 -5.42692e-05 0.000404218)
(0.00182455 0.000433239 1.50756e-05 0.000400278 -5.41287e-05 0.00040545)
(0.00182911 0.000431916 1.61407e-05 0.000399885 -4.55492e-05 0.000404639)
(0.00184568 0.00042645 1.69568e-05 0.000392867 -3.5953e-05 0.000400952)
(0.0018288 0.000415582 1.08999e-05 0.000379065 -3.1773e-05 0.000405681)
(0.00196991 0.000509372 -1.78778e-05 0.000462885 -5.96204e-06 0.000489565)
(0.00202775 0.000538343 8.44303e-06 0.000478231 3.19632e-08 0.000485802)
(0.00205654 0.000547036 3.56677e-05 0.000491302 1.51288e-05 0.000489351)
(0.00209192 0.000537237 4.55364e-05 0.000489124 2.15583e-05 0.000499291)
(0.00212215 0.000533866 4.91065e-05 0.00048315 1.98862e-05 0.000505783)
(0.00215953 0.000549684 5.57228e-05 0.00048949 1.8998e-05 0.000512862)
(0.00220335 0.000568589 5.56392e-05 0.000498177 1.71618e-05 0.000517871)
(0.0022223 0.000574349 4.6713e-05 0.000494201 8.38997e-06 0.000508606)
(0.00222551 0.000574613 4.2303e-05 0.000487122 -3.49957e-06 0.000495763)
(0.00228131 0.000583296 5.10518e-05 0.000487039 -9.69919e-06 0.000494015)
(0.00233464 0.00059823 6.33883e-05 0.000491955 -1.03724e-05 0.000489867)
(0.00231232 0.000604714 6.91993e-05 0.000497101 -4.11829e-06 0.000474373)
(0.00227449 0.000604889 7.64319e-05 0.000493983 1.14023e-05 0.000471832)
(0.00225261 0.000605942 8.04444e-05 0.000485875 2.20471e-05 0.00047689)
(0.00220936 0.000593789 7.20609e-05 0.000476495 1.26138e-05 0.000472204)
(0.00217924 0.00058787 5.82665e-05 0.000476844 -5.84896e-06 0.000470235)
(0.00218794 0.000595624 5.30369e-05 0.000485696 -6.7183e-06 0.000481423)
(0.00219665 0.000598952 6.75074e-05 0.000487203 6.96306e-06 0.00050044)
(0.0022055 0.000595594 7.10393e-05 0.000481079 1.43336e-05 0.000505825)
(0.00216522 0.000586925 5.13848e-05 0.000478012 1.1355e-05 0.000506715)
(0.00214946 0.000600369 3.76614e-05 0.000496998 3.0476e-06 0.000517868)
(0.00213809 0.000618541 4.0787e-05 0.000528638 4.55901e-06 0.000515481)
(0.00210148 0.000615652 4.31933e-05 0.000548131 1.62481e-05 0.000503311)
(0.00207933 0.000602813 4.65817e-05 0.000548008 2.32776e-05 0.000506408)
(0.00203763 0.000580026 5.86238e-05 0.000532658 2.46572e-05 0.00050837)
(0.0019695 0.000558902 6.42896e-05 0.000513308 2.234e-05 0.000498579)
(0.00193206 0.000548092 5.7805e-05 0.000499468 2.15824e-05 0.000497561)
(0.00191243 0.000540295 5.95289e-05 0.000491605 2.32065e-05 0.000507573)
(0.00187395 0.000529963 7.07334e-05 0.000486215 2.51308e-05 0.000510415)
(0.00187058 0.000529086 6.25539e-05 0.000484593 2.51865e-05 0.000511548)
(0.00187889 0.000529835 3.8878e-05 0.000486033 1.82805e-05 0.000511728)
(0.00184122 0.000518015 3.12387e-05 0.000488551 1.38671e-05 0.000513334)
(0.00182304 0.000514613 3.5166e-05 0.000494801 1.82989e-05 0.000538852)
(0.00185697 0.000523517 3.21508e-05 0.000499543 1.41266e-05 0.000569328)
(0.00187013 0.00051653 2.09835e-05 0.000493028 -4.8579e-06 0.000569091)
(0.00187614 0.00051235 2.95855e-06 0.000490604 -2.30948e-05 0.000547141)
(0.00189874 0.000518442 -1.17173e-05 0.000496875 -2.66215e-05 0.000524196)
(0.00191295 0.000520463 7.88252e-07 0.000500354 -1.32074e-05 0.000504597)
(0.00192921 0.000518283 5.40597e-06 0.000491963 -1.17062e-06 0.000497045)
(0.00192258 0.000503543 -1.36947e-05 0.000470273 -1.68216e-06 0.000493581)
(0.0031689 0.000755141 8.05599e-05 0.000561299 -3.85065e-05 0.000655802)
(0.00324237 0.000782578 0.000141004 0.00057795 -2.91837e-05 0.000669962)
(0.00319782 0.00076582 0.000178733 0.00058021 -6.81151e-06 0.000673264)
(0.00312014 0.000736718 0.00018906 0.000570873 4.85169e-06 0.000691442)
(0.00305472 0.000715247 0.000200609 0.000564589 8.82878e-06 0.000703137)
(0.00305142 0.000727192 0.000210046 0.000571087 1.69739e-05 0.000692469)
(0.00309953 0.000757186 0.000201354 0.000581567 1.7988e-05 0.000684367)
(0.00309814 0.000763659 0.000183956 0.00058475 8.94975e-06 0.000680365)
(0.00307161 0.000750011 0.000191444 0.000582554 5.64789e-06 0.000681292)
(0.00309888 0.000746244 0.000208494 0.000578958 8.03465e-06 0.000678055)
(0.00311663 0.000759865 0.000192452 0.000580399 9.45286e-06 0.000642214)
(0.00307232 0.000769903 0.000169696 0.000586665 1.32074e-05 0.000603805)
(0.00303557 0.000780732 0.00016853 0.000588156 1.8367e-05 0.000610521)
(0.00299345 0.000784679 0.000175674 0.000581046 1.88827e-05 0.000635712)
(0.00291646 0.000760002 0.000174565 0.000570167 8.08424e-06 0.000651605)
(0.00285652 0.000733765 0.000147005 0.000570934 -1.52792e-05 0.000658985)
(0.00283572 0.000725666 0.00011429 0.000572786 -2.39015e-05 0.000663042)
(0.00282565 0.000725441 0.000109909 0.000563096 -1.10603e-05 0.000673521)
(0.00282401 0.000707139 9.02322e-05 0.000541638 -6.85929e-06 0.000670281)
(0.00279855 0.000687687 4.80884e-05 0.000526107 -1.50635e-05 0.00065589)
(0.00283597 0.000715784 2.62717e-05 0.000552499 -2.08973e-05 0.00065845)
(0.00283279 0.000736187 3.06472e-05 0.000601527 -1.33108e-05 0.000656422)
(0.00282086 0.000728227 4.21365e-05 0.000626858 5.8066e-06 0.00064051)
(0.00287919 0.000729783 5.17997e-05 0.000625473 1.56915e-05 0.000641475)
(0.00286417 0.000720469 4.75e-05 0.000615688 1.06841e-05 0.00064091)
(0.00279777 0.000709189 3.84082e-05 0.000610081 8.62122e-06 0.000625215)
(0.00280889 0.00071644 3.98839e-05 0.000608356 1.34063e-05 0.000635369)
(0.00284516 0.000728368 5.80054e-05 0.000604406 2.08691e-05 0.000674652)
(0.00281813 0.000716279 7.81516e-05 0.000596197 3.19212e-05 0.000699725)
(0.00280905 0.000706717 5.79535e-05 0.000590935 3.04805e-05 0.000706798)
(0.00284574 0.000712415 1.93342e-05 0.000585509 1.40798e-05 0.000699434)
(0.00285835 0.000707636 1.49807e-05 0.000577802 4.05667e-06 0.000693425)
(0.00288654 0.000705108 2.46021e-05 0.000576183 -4.28447e-07 0.000712966)
(0.00292881 0.000703552 2.33735e-05 0.000573757 -8.39696e-06 0.000723299)
(0.00292794 0.000684393 2.54064e-05 0.000558854 -1.76994e-05 0.00070354)
(0.00293467 0.000671975 3.56932e-05 0.000548559 -2.70372e-05 0.000678776)
(0.00298615 0.000677917 3.91972e-05 0.000552774 -3.16816e-05 0.000648654)
(0.00303196 0.000708055 5.6553e-05 0.000569651 -2.58339e-05 0.000620792)
(0.00306783 0.000730596 5.65272e-05 0.000575 -2.61864e-05 0.000620588)
(0.00307698 0.000729065 4.81476e-05 0.000560007 -3.44152e-05 0.000632535)
(0.00360266 0.000835363 0.000260043 0.000643625 -5.31458e-05 0.000745982)