/*--------------------------------*- C++ -*----------------------------------*\
  =========                 |
  \\      /  F ield         | OpenFOAM: The Open Source CFD Toolbox
   \\    /   O peration     | Website:  https://openfoam.org
    \\  /    A nd           | Version:  10
     \\/     M anipulation  |
\*---------------------------------------------------------------------------*/
FoamFile
{
    format      ascii;
    class       volVectorField;
    location    "10";
    object      U;
}
// * * * * * * * * * * * * * * * * * * * * * * * * * * * * * * * * * * * * * //

dimensions      [0 1 -1 0 0 0 0];

internalField   nonuniform List<vector> 
102400
(
(0.056679 5.29237e-05 0.00705732)
(0.0563764 -0.000160158 0.00630874)
(0.0542873 -0.000211783 0.00252051)
(0.054343 4.25605e-05 0.00451934)
(0.054756 -1.15711e-05 0.00662705)
(0.0590296 -4.50896e-05 0.00257626)
(0.0579163 6.46084e-05 -0.00152814)
(0.0584484 -3.8571e-05 0.000789353)
(0.0607712 -2.1332e-05 0.000896226)
(0.0614569 0.000217417 -0.00325326)
(0.0583875 0.000210753 -0.00158933)
(0.0590962 0.000168471 0.00168642)
(0.059048 -3.34315e-05 0.0021122)
(0.0604244 -0.000190661 0.00125868)
(0.0606727 3.80459e-05 -0.00310828)
(0.0598847 6.44576e-05 -0.00887034)
(0.0556276 -7.45409e-05 -0.00769371)
(0.0556065 -6.63697e-05 -0.00427415)
(0.0562579 -0.000246379 -0.00394196)
(0.0601805 -0.000284154 -0.00524769)
(0.0569636 -5.3608e-06 -0.00933055)
(0.0558313 0.000357024 -0.0132628)
(0.0535669 0.000672789 -0.0105931)
(0.0543041 0.000422988 -3.22791e-05)
(0.0567912 0.000226128 0.00296)
(0.0608384 0.00018232 -0.00175183)
(0.0573319 -6.04826e-05 -0.00630131)
(0.0553505 6.93723e-05 -0.00701953)
(0.053251 0.000146675 -0.00253912)
(0.0511419 2.71236e-06 0.000836962)
(0.0490617 -2.0286e-05 0.000723402)
(0.0538693 -0.000217826 -0.000602427)
(0.0550717 -0.000224047 -0.000459237)
(0.0571952 0.000133071 -0.000662909)
(0.0549068 0.000143352 -0.00361985)
(0.0610127 -0.000188394 -0.00472067)
(0.0637905 -8.93159e-05 -0.00649144)
(0.0659543 0.000293828 -0.00711168)
(0.0592886 0.000317704 -0.00338873)
(0.0578736 0.000102036 0.00285669)
(0.181086 -0.000253001 0.0160049)
(0.175733 -0.00128404 0.0131855)
(0.160358 -0.00105672 0.00716298)
(0.160192 0.000401503 0.00992595)
(0.16294 0.000431048 0.0120945)
(0.175519 0.000268839 0.00333991)
(0.177595 0.000494754 -0.00467124)
(0.180593 0.000125802 0.000143164)
(0.182744 0.000117049 0.00079561)
(0.185975 0.000807963 -0.00609266)
(0.179931 0.000654426 -0.000571722)
(0.184741 0.00032715 0.00463619)
(0.192387 -0.000406789 0.000685632)
(0.194988 -0.000654927 -0.00531689)
(0.188567 0.000308452 -0.0124798)
(0.187861 -0.000204904 -0.0204312)
(0.173816 -0.00081899 -0.0137359)
(0.171458 -0.000755247 -0.00653619)
(0.168079 -0.000974928 -0.00873835)
(0.175056 -2.73684e-05 -0.0151563)
(0.16542 0.00166013 -0.0202979)
(0.163485 0.00318544 -0.021635)
(0.163477 0.00406336 -0.0164503)
(0.169321 0.00259223 -0.00302781)
(0.173559 0.00155745 0.000384934)
(0.194656 0.00094412 -0.00770549)
(0.187666 0.00017585 -0.0156662)
(0.173233 0.000503536 -0.0154835)
(0.16504 0.000461811 -0.00342119)
(0.158601 -0.00024205 0.00338311)
(0.151234 -0.000133254 0.00125153)
(0.164506 -0.0010283 -0.000903298)
(0.162396 -0.000942869 0.00158717)
(0.169964 0.000776316 -0.00138691)
(0.167138 0.00130588 -0.00914552)
(0.183049 0.000320505 -0.011695)
(0.187786 0.000859881 -0.0150376)
(0.199506 0.00202636 -0.0155781)
(0.190923 0.00125274 -0.00680474)
(0.186827 0.000131999 0.00780716)
(0.327215 -0.000614838 0.0190494)
(0.316077 -0.0028973 0.0173171)
(0.272949 -0.00270053 0.0112873)
(0.264619 0.000417939 0.0128885)
(0.267405 0.00119282 0.0155492)
(0.287901 0.00114552 0.00671008)
(0.300228 0.0014584 -0.00666211)
(0.309514 0.000994447 -0.00383696)
(0.30954 0.000944453 8.81352e-05)
(0.318761 0.00141661 -0.00779713)
(0.315033 0.000624648 -0.00062767)
(0.317261 -0.000554075 0.0107915)
(0.334192 -0.0019032 0.00696392)
(0.350783 -0.00122437 -0.00848721)
(0.338483 0.00101564 -0.0215742)
(0.337449 -0.000677908 -0.0317493)
(0.306465 -0.00199345 -0.0217374)
(0.288275 -0.0018354 -0.00769466)
(0.264293 -0.00208869 -0.00746176)
(0.272804 0.000101928 -0.0183132)
(0.265541 0.00392968 -0.0251795)
(0.261585 0.00763976 -0.0218587)
(0.268541 0.00964183 -0.0148158)
(0.289615 0.0062537 -0.0048123)
(0.291962 0.00387892 -0.00325159)
(0.341956 0.00185888 -0.0129002)
(0.351417 -0.000108753 -0.0233746)
(0.319815 0.00108116 -0.0261593)
(0.29886 0.000995437 -0.00995456)
(0.2837 -0.000838482 0.00437382)
(0.259279 -0.000549629 0.00211265)
(0.276948 -0.00207894 -0.00240707)
(0.264732 -0.00200316 0.00476264)
(0.27332 0.00112017 0.00323709)
(0.270271 0.0027683 -0.00897087)
(0.296318 0.00153375 -0.0130418)
(0.30326 0.00295884 -0.0174474)
(0.332356 0.00553073 -0.0216959)
(0.341662 0.00310689 -0.0153624)
(0.33755 0.000151465 0.00446177)
(0.486714 0.000129993 0.0178613)
(0.486313 -0.00341779 0.0168972)
(0.411353 -0.00463939 0.0123624)
(0.372948 -0.00114792 0.0154305)
(0.364826 0.000853875 0.0179353)
(0.386153 0.00201618 0.0131685)
(0.406156 0.00262426 -0.00179593)
(0.432201 0.00244965 -0.00721885)
(0.43938 0.00335311 -0.00408907)
(0.457149 0.00316699 -0.0121943)
(0.468895 0.000486398 -0.00673135)
(0.468068 -0.00264965 0.013593)
(0.466159 -0.00681506 0.026436)
(0.499868 -0.00439589 0.00985161)
(0.50902 0.00188009 -0.0227576)
(0.519942 -0.000272799 -0.0450696)
(0.469597 -0.00239808 -0.036367)
(0.42194 -0.00254897 -0.0140409)
(0.352855 -0.0035355 -0.00512072)
(0.342434 -0.00148826 -0.0167837)
(0.342334 0.00494824 -0.0278572)
(0.335239 0.0122923 -0.0195693)
(0.335322 0.0159388 -0.00169659)
(0.3864 0.0100309 0.0092523)
(0.393037 0.00558841 0.00253935)
(0.469836 0.00261193 -0.0130482)
(0.530491 0.000730604 -0.0271428)
(0.509153 0.0021637 -0.0385178)
(0.473234 0.00201562 -0.0275086)
(0.451343 -0.00141293 -0.00248902)
(0.391984 -0.00174092 0.00377191)
(0.399803 -0.00352799 -0.00608658)
(0.368125 -0.00341865 0.00333062)
(0.363564 5.94709e-05 0.0108772)
(0.351804 0.00222564 -0.00372119)
(0.389201 0.00186504 -0.0103128)
(0.39624 0.00501627 -0.0123419)
(0.434532 0.0106462 -0.0168027)
(0.476857 0.00762041 -0.0202212)
(0.492397 0.00171635 -0.00381242)
(0.612836 0.00232587 0.0231549)
(0.65041 -0.00126677 0.0190083)
(0.585066 -0.00364106 0.00728417)
(0.509212 -0.0025812 0.0151991)
(0.465949 -0.00134421 0.0186902)
(0.475996 0.00191848 0.0171722)
(0.486173 0.00359092 0.00985274)
(0.515122 0.00232749 0.000884807)
(0.542649 0.00530663 -0.00410338)
(0.582387 0.00717668 -0.0192026)
(0.620835 0.00231378 -0.0214708)
(0.65864 -0.00292023 -0.00279157)
(0.634961 -0.0122508 0.0290339)
(0.608308 -0.0131167 0.0493129)
(0.642553 -0.00246918 0.010947)
(0.710073 -0.000167226 -0.0428495)
(0.668327 -0.000554577 -0.0525301)
(0.603571 -0.000746708 -0.0288231)
(0.480921 -0.0037444 -0.00777538)
(0.408305 -0.00504147 -0.0140462)
(0.39809 0.00298016 -0.0297064)
(0.396483 0.015709 -0.0198111)
(0.378723 0.0222687 0.0121667)
(0.441733 0.0130374 0.0390259)
(0.45777 0.00528834 0.0293454)
(0.527638 -0.00151548 0.00898357)
(0.63178 -0.0029702 -0.00944481)
(0.686254 0.00248355 -0.0350297)
(0.672475 0.00406677 -0.0469648)
(0.672528 -0.000202527 -0.026415)
(0.591872 -0.00268495 -0.000372968)
(0.570582 -0.00538427 -0.0079235)
(0.505974 -0.00458484 -0.00516932)
(0.471127 -0.00175602 0.0127379)
(0.425731 -0.00183817 0.00160799)
(0.458283 -0.00236133 -0.00897609)
(0.466075 0.00386264 -0.00927763)
(0.500957 0.0149562 -0.00425486)
(0.555469 0.0140231 -0.00622053)
(0.600343 0.00542196 -0.00129632)
(0.685576 0.00441548 0.0368845)
(0.746214 0.000416347 0.0362522)
(0.732937 0.000216954 0.00679579)
(0.669404 -3.96213e-05 0.00981218)
(0.586545 -0.00241159 0.0169178)
(0.568847 0.000879885 0.0168115)
(0.569007 0.00505692 0.0179194)
(0.583003 0.00250356 0.0148636)
(0.591508 0.00424252 0.00817609)
(0.641936 0.00876705 -0.0138789)
(0.693734 0.0037499 -0.0287143)
(0.789084 -0.00158981 -0.0242378)
(0.860901 -0.0111809 -0.00417952)
(0.761434 -0.0173266 0.0523045)
(0.708361 -0.0114358 0.0636446)
(0.807319 -0.0089779 -0.000419358)
(0.827506 -0.00186062 -0.0461473)
(0.808026 0.00354452 -0.0421731)
(0.676683 0.00104792 -0.0158424)
(0.514432 -0.00641705 -0.0114265)
(0.443069 -0.00179535 -0.0297764)
(0.44872 0.0170105 -0.0210661)
(0.430742 0.0281191 0.0217465)
(0.500097 0.0154942 0.0673265)
(0.526954 0.00462183 0.060674)
(0.574545 -0.00599467 0.0413529)
(0.632882 -0.010371 0.0226444)
(0.732712 -0.00479086 -0.00130397)
(0.781474 0.000315109 -0.0319159)
(0.8371 -0.00102828 -0.0470903)
(0.808654 -0.00285772 -0.0224076)
(0.80035 -0.00625991 -0.0128159)
(0.718701 -0.00420576 -0.0137545)
(0.664737 -0.00206297 0.00683421)
(0.574545 -0.00848865 0.00423281)
(0.545793 -0.0124193 -0.00936228)
(0.526598 -0.00306778 -0.0128081)
(0.544444 0.0152713 2.77808e-05)
(0.59871 0.0196476 0.00907721)
(0.658671 0.0100714 0.00909545)
(0.743965 0.00510836 0.0268356)
(0.813048 -0.000391608 0.0464005)
(0.819777 0.00252873 0.0158969)
(0.801884 0.00396044 0.00754392)
(0.715227 -0.00091721 0.0111041)
(0.665122 0.000363656 0.0110518)
(0.648086 0.00604557 0.0192697)
(0.66451 0.00431823 0.024494)
(0.649745 0.00468563 0.0194419)
(0.670027 0.00929794 -0.00187947)
(0.697074 0.00359096 -0.0192693)
(0.751371 -0.006389 -0.0200842)
(0.941954 -0.0142839 -0.0243417)
(0.950364 -0.0147087 0.0144632)
(0.82096 -0.0128604 0.0792889)
(0.831416 -0.0178803 0.0402473)
(0.863332 -0.0119745 -0.0201934)
(0.926989 0.00210953 -0.0390582)
(0.878571 0.00879788 -0.0207781)
(0.687846 -0.000702385 -0.00642278)
(0.513012 -0.00626352 -0.0256139)
(0.494139 0.014742 -0.0194114)
(0.510567 0.0312587 0.0260412)
(0.616329 0.0156887 0.0772007)
(0.643824 0.002141 0.0743349)
(0.671086 -0.00829569 0.0555533)
(0.663392 -0.015002 0.0433963)
(0.726805 -0.0126345 0.0272927)
(0.810386 -0.00790675 0.0110015)
(0.882225 -0.00735002 -0.0261905)
(0.873829 -0.00826049 -0.0326446)
(0.91705 -0.0110998 -0.0294118)
(0.902208 -0.00504324 -0.027261)
(0.930381 0.000962296 0.000254526)
(0.867828 -0.0091786 0.00940408)
(0.727038 -0.020545 -0.00120532)
(0.614755 -0.0128 -0.0186799)
(0.587361 0.0113234 -0.00635423)
(0.629339 0.022187 0.0103856)
(0.694853 0.0130927 -0.000757332)
(0.812381 0.00440935 -0.0280903)
(0.900166 -0.00358716 0.0123528)
(0.900594 0.00301799 0.00849325)
(0.905882 0.00654888 0.00834399)
(0.834398 0.000487904 0.00859694)
(0.764283 0.000685565 -0.000745794)
(0.7203 0.00678438 0.0108585)
(0.738283 0.00501806 0.0291043)
(0.719924 0.00521659 0.0273369)
(0.711397 0.0109922 0.00607899)
(0.723797 0.00887073 -0.0106784)
(0.701579 -0.00757584 -0.00601516)
(0.874885 -0.0245228 -0.0142074)
(1.01068 -0.0175566 -0.0149773)
(0.951326 -0.00915065 0.0632827)
(0.890391 -0.0188851 0.0613915)
(0.855519 -0.0216383 0.00139747)
(0.940067 -0.00675818 -0.0321678)
(0.993604 0.0115039 -0.0204975)
(0.875312 0.0104562 0.00885232)
(0.657913 -0.0058468 -0.0127969)
(0.551303 0.00901057 -0.0274738)
(0.582277 0.0279565 -0.00185414)
(0.731547 0.0122744 0.0415364)
(0.770455 -0.000735329 0.0529966)
(0.7947 -0.00791251 0.0392697)
(0.748039 -0.0143954 0.0416915)
(0.736524 -0.017542 0.0361963)
(0.813352 -0.0168222 0.0439874)
(0.920145 -0.0119296 0.0114697)
(0.897719 -0.0115737 -0.0126934)
(0.907567 -0.0183308 -0.0255242)
(0.884857 -0.0141283 -0.045905)
(1.02148 -0.00462113 -0.0113779)
(1.14371 -0.00544749 0.0136587)
(0.999114 -0.0167166 0.0178129)
(0.764324 -0.0179017 -0.00589693)
(0.647068 0.00565265 -0.0205239)
(0.679531 0.0229145 -0.0101776)
(0.755959 0.0157689 -0.0392215)
(0.872929 0.00270695 -0.0696497)
(0.979351 -0.00882478 -0.0409939)
(0.986618 0.000831818 -0.0262188)
(1.01608 0.00917909 -0.00361051)
(0.965831 0.00262405 0.0111775)
(0.872386 0.00183758 -0.00817357)
(0.783908 0.00847349 -0.00687344)
(0.800104 0.00574263 0.0256363)
(0.784321 0.00526078 0.0434845)
(0.749917 0.0108989 0.0222677)
(0.779815 0.0139705 -0.0054381)
(0.735762 -0.00058265 -0.00101321)
(0.839636 -0.0303624 0.00439432)
(0.981822 -0.025343 -0.0258306)
(1.02781 -0.00631058 0.03634)
(0.988862 -0.0130551 0.0669729)
(0.881427 -0.02489 0.0211618)
(0.89627 -0.0177508 -0.0271175)
(1.01291 0.00772822 -0.0356379)
(1.00451 0.018957 0.0227298)
(0.870197 -0.00116921 0.0220668)
(0.673604 0.00370512 -0.0268538)
(0.64652 0.0208363 -0.0431105)
(0.789699 0.0051589 -0.0182087)
(0.826181 -0.00409042 0.0150488)
(0.85632 -0.00575357 0.0109888)
(0.834438 -0.00629835 0.0209838)
(0.791949 -0.0132491 0.0213962)
(0.80716 -0.024673 0.0518614)
(0.943507 -0.0198201 0.0421384)
(0.953381 -0.010967 0.0054271)
(0.939783 -0.0170505 -0.00158571)
(0.86194 -0.0205375 -0.0432178)
(0.954322 -0.0202931 -0.0251766)
(1.18799 -0.0160644 0.00979897)
(1.16184 -0.0115299 0.0219159)
(0.934192 -0.0123278 0.0171573)
(0.722862 0.0024186 -0.0128831)
(0.703498 0.018678 -0.00959722)
(0.79864 0.0138334 -0.0440858)
(0.889571 -0.00331608 -0.0495838)
(1.00571 -0.0151395 -0.0501245)
(1.00984 -0.0062502 -0.0466278)
(1.07192 0.00628274 -0.016947)
(1.08118 0.00376948 0.0123112)
(0.995823 0.00491557 -0.00334998)
(0.841406 0.0125401 -0.0167537)
(0.823669 0.00722703 0.00902307)
(0.831729 0.00453179 0.0508296)
(0.782486 0.00676396 0.053619)
(0.835394 0.0118369 0.0155923)
(0.826592 0.00726344 -0.00549053)
(0.883882 -0.0275518 0.0129417)
(0.954541 -0.0345625 -0.0208208)
(1.03658 -0.012024 0.00955381)
(1.08249 -0.00626013 0.0564952)
(0.977336 -0.0166869 0.0357234)
(0.85831 -0.0217597 -0.00942203)
(0.962098 -0.000559555 -0.0597793)
(1.04645 0.0205995 -0.00445348)
(1.04979 0.0048104 0.0424785)
(0.839378 0.00193045 -0.00680727)
(0.715981 0.0131356 -0.05689)
(0.82348 -0.00249331 -0.0490434)
(0.846134 -0.00800477 -0.00555413)
(0.856206 -0.00616763 -0.00125691)
(0.862927 -0.00117994 0.0157408)
(0.865284 -0.00193944 0.00728538)
(0.835751 -0.0229706 0.0301582)
(0.950101 -0.0286762 0.0525709)
(0.994375 -0.0139625 0.0111541)
(0.985981 -0.0129539 0.00956847)
(0.911089 -0.0199112 -0.0180188)
(0.925984 -0.0296102 -0.0271832)
(1.1435 -0.0286231 0.000370478)
(1.16177 -0.0126233 0.0126108)
(1.01128 -0.00452405 0.022002)
(0.81111 0.00623344 0.00243584)
(0.721223 0.0159986 0.00586944)
(0.791612 0.00814786 -0.0124354)
(0.911213 -0.0103998 -0.0294525)
(1.03659 -0.0188682 -0.0342368)
(1.02426 -0.0107055 -0.0396146)
(1.06949 -0.000767843 -0.017801)
(1.09429 0.000608528 0.0172931)
(1.04171 0.00850271 0.00879546)
(0.88541 0.019433 -0.0131203)
(0.823221 0.00935921 -0.00579774)
(0.860131 0.00100183 0.0265443)
(0.845778 -0.00154648 0.0536119)
(0.88819 0.000791032 0.030447)
(0.917689 0.00705613 -0.0146916)
(0.970023 -0.0172173 0.00457478)
(0.992145 -0.0357025 -0.00669983)
(1.01455 -0.0248898 -0.00298319)
(1.09599 -0.00963179 0.0377074)
(1.0752 -0.00314856 0.0354422)
(0.899831 -0.012601 0.0204892)
(0.910943 -0.00864126 -0.0465175)
(1.00859 0.0126271 -0.0373442)
(1.12883 0.011598 0.0212465)
(0.997169 0.0102101 0.00383584)
(0.817526 0.00968676 -0.047107)
(0.86858 -0.00942027 -0.0512728)
(0.883342 -0.0120471 -0.0153839)
(0.868171 -0.00669285 -0.0121318)
(0.866776 -0.00188625 0.0160206)
(0.908232 0.00351981 0.010183)
(0.888632 -0.0166675 0.0113587)
(0.965003 -0.0322153 0.0419596)
(1.01782 -0.017415 0.0101797)
(1.00713 -0.00997665 0.00597484)
(0.967806 -0.0175148 0.00323522)
(0.939798 -0.0332661 -0.0166889)
(1.10719 -0.0328096 -0.00891899)
(1.12779 -0.0111982 0.00833904)
(1.01476 -3.10761e-05 0.0221686)
(0.881675 0.0123312 0.00670574)
(0.767184 0.0200966 0.00655142)
(0.798461 0.00542904 -0.000672409)
(0.947071 -0.019264 -0.0227883)
(1.06831 -0.0245025 -0.0255622)
(1.05697 -0.0123815 -0.0240693)
(1.05618 -0.00264578 -0.0131001)
(1.04057 0.00199857 0.0211747)
(0.995667 0.0129035 0.0195476)
(0.911526 0.0228708 -0.0118802)
(0.86796 0.00824747 -0.0114291)
(0.903302 -0.00192166 0.010458)
(0.934622 -0.00657205 0.0365533)
(0.960614 -0.0100097 0.0279718)
(0.980197 -0.00139193 -0.0210979)
(1.01882 -0.0115646 -0.0117435)
(1.04701 -0.0284027 -0.00168263)
(1.0167 -0.0323705 -1.60591e-05)
(1.05062 -0.0204699 0.0225912)
(1.08994 0.00263807 0.0222125)
(0.974087 0.00328773 0.0358662)
(0.923933 -0.00817784 -0.0099742)
(0.967319 0.00039306 -0.0397118)
(1.10538 0.00991229 -0.00116838)
(1.09416 0.0196477 0.00809678)
(0.973598 0.0139871 -0.0214912)
(0.974671 -0.00907727 -0.028016)
(0.959484 -0.0126134 -0.014792)
(0.924569 -0.0089182 -0.0240131)
(0.90789 -0.00446561 0.00940336)
(0.938416 0.00529846 0.0146241)
(0.934282 -0.0124121 0.00973479)
(0.980332 -0.0319983 0.0332449)
(1.02545 -0.0200627 0.0098505)
(1.02561 -0.00744122 0.00236725)
(1.00482 -0.0128992 0.00722183)
(0.960138 -0.0347177 -0.000989461)
(1.07267 -0.0349225 -0.00547018)
(1.11337 -0.00673998 0.00552321)
(1.01757 0.00572589 0.0238588)
(0.912778 0.0178076 0.00870757)
(0.823774 0.025113 0.00266547)
(0.84549 0.0025807 0.0026125)
(0.990184 -0.0256146 -0.0048821)
(1.06885 -0.0262562 -0.0252191)
(1.05662 -0.00890107 -0.0229116)
(1.02936 0.00332031 -0.00911479)
(0.991776 0.00783842 0.025578)
(0.963645 0.013685 0.0265292)
(0.947845 0.017617 -0.0171981)
(0.946896 -5.80725e-05 -0.0207396)
(0.973134 -0.00636513 0.00577675)
(1.01436 -0.00833957 0.0296792)
(1.02396 -0.0151396 0.02296)
(1.017 -0.0096833 -0.0197092)
(1.0296 -0.0112629 -0.0166487)
(1.05847 -0.0200206 -0.0063173)
(1.036 -0.0311291 0.00153136)
(1.01688 -0.0285941 0.0161914)
(1.04795 0.000872622 0.00837177)
(1.00798 0.0152768 0.0261512)
(0.96705 0.000535497 0.00337043)
(0.969078 -0.00649009 -0.0296559)
(1.0628 0.0019806 -0.013109)
(1.10392 0.0195136 -7.3216e-05)
(1.06422 0.0146072 -0.0122083)
(1.05409 -0.00440785 -0.00511552)
(1.02123 -0.00566949 0.00289637)
(0.98257 -0.00956438 -0.0235317)
(0.958278 -0.00897753 0.00339744)
(0.970879 0.00514505 0.018897)
(0.98166 -0.00797955 0.0137036)
(1.00445 -0.0275942 0.0262374)
(1.0252 -0.0217361 0.00541153)
(1.03366 -0.00776901 -0.000761669)
(1.02794 -0.00541642 0.000684506)
(0.992456 -0.0309099 0.00632454)
(1.04335 -0.0368002 0.0067588)
(1.09399 -0.00493838 0.00129091)
(1.04467 0.0136911 0.0164027)
(0.949047 0.0262699 0.0111495)
(0.888767 0.028477 0.00890958)
(0.922209 -0.000465571 0.0180162)
(1.02814 -0.027376 0.00674289)
(1.05768 -0.0251188 -0.0232673)
(1.04175 -0.00252523 -0.0287551)
(1.01551 0.0132303 -0.0087839)
(0.986926 0.0136208 0.0298057)
(0.978464 0.00994908 0.0318288)
(0.989842 0.0111738 -0.0145763)
(1.00508 -0.00610887 -0.0226916)
(1.02154 -0.00936701 0.0029657)
(1.05202 -0.00614144 0.0258398)
(1.05066 -0.0129759 0.0136929)
(1.02892 -0.0129545 -0.0250682)
(1.02641 -0.0118734 -0.0207153)
(1.04654 -0.0144896 -0.00735361)
(1.04729 -0.0275371 0.00299474)
(1.0134 -0.0314407 0.00770272)
(1.01172 -0.00267644 -0.00502538)
(1.00766 0.0194928 0.0124418)
(0.997339 0.00865824 0.00269453)
(0.996113 -0.00717635 -0.0216643)
(1.04513 -0.00619947 -0.0164299)
(1.09421 0.0135577 -0.00761888)
(1.08775 0.0133149 -0.0149238)
(1.06144 0.00212305 -0.00397381)
(1.02597 0.00463559 0.0101739)
(1.00062 -0.00624486 -0.0172131)
(0.978944 -0.0130508 -0.00180716)
(0.983986 0.000233557 0.019008)
(1.01203 -0.00790392 0.0145943)
(1.02886 -0.0212947 0.0172885)
(1.032 -0.0194734 -0.00200943)
(1.02737 -0.00925337 -0.00591751)
(1.02019 -0.000736707 -0.00343239)
(1.02002 -0.0239665 0.00521783)
(1.04281 -0.0346797 0.010727)
(1.06583 -0.00608393 -0.00202749)
(1.04089 0.0178335 0.0040054)
(0.976969 0.0343527 0.00790189)
(0.960114 0.0316767 0.00965113)
(1.0007 -0.00133232 0.0198284)
(1.0447 -0.027974 0.00256645)
(1.03469 -0.0228736 -0.0215086)
(1.01726 0.0030684 -0.0280111)
(1.01349 0.020973 -0.010151)
(1.01475 0.0182818 0.0239874)
(1.01527 0.00846993 0.0256047)
(1.01256 0.00795696 -0.00853647)
(1.02421 -0.0086993 -0.0158358)
(1.03278 -0.0116226 0.000786685)
(1.05058 -0.00527453 0.0203424)
(1.04821 -0.00898518 0.00546624)
(1.02422 -0.0124861 -0.027843)
(1.0182 -0.0120443 -0.0235378)
(1.03003 -0.0126137 -0.00493537)
(1.0457 -0.0264176 0.00710054)
(1.02019 -0.0316424 0.00218803)
(0.991328 -0.00527518 -0.0108416)
(0.994209 0.018839 0.00493559)
(1.00699 0.0111194 0.0019329)
(1.02627 -0.00617003 -0.0173585)
(1.0514 -0.0122124 -0.0200126)
(1.07099 0.00627812 -0.0137043)
(1.0572 0.0138051 -0.0143391)
(1.02318 0.00974624 -0.00396236)
(1.00313 0.0133395 0.00989829)
(0.999444 -0.00153259 -0.00851198)
(0.990537 -0.0135015 -0.00123958)
(0.996384 -0.00480906 0.0170718)
(1.02781 -0.0100205 0.0114629)
(1.04184 -0.0157843 0.00906437)
(1.03626 -0.0147057 -0.00444328)
(1.02296 -0.00812954 -0.00893916)
(1.01272 0.00108793 -0.00288786)
(1.03177 -0.0198521 0.00367933)
(1.04515 -0.0308611 0.00566547)
(1.03525 -0.0056712 -0.0042266)
(1.01596 0.0207052 -0.00197636)
(0.990673 0.0382063 0.0069124)
(1.009 0.0308903 0.0109299)
(1.04533 -0.00355893 0.0130179)
(1.0482 -0.0256996 -0.00288819)
(1.02188 -0.0183607 -0.0172773)
(1.00545 0.00475365 -0.0210402)
(1.02066 0.0210755 -0.010151)
(1.0412 0.0186407 0.0136674)
(1.04364 0.0100589 0.0141551)
(1.02853 0.0083532 -0.00367307)
(1.03268 -0.00950499 -0.00765458)
(1.03689 -0.0133715 -0.00200185)
(1.044 -0.00474005 0.0110788)
(1.0418 -0.0048307 -0.000580243)
(1.02477 -0.00961813 -0.023524)
(1.02263 -0.0109538 -0.0244987)
(1.02674 -0.0126252 -0.00333109)
(1.04007 -0.0273723 0.012767)
(1.02228 -0.0301696 0.00205627)
(0.985616 -0.0049081 -0.00953266)
(0.992415 0.0154181 0.00181323)
(1.01561 0.006048 0.000938255)
(1.04508 -0.00887618 -0.0161529)
(1.05188 -0.0132894 -0.0208866)
(1.02995 0.00610653 -0.0110325)
(1.00553 0.0151179 -0.0059965)
(0.985487 0.0121609 -0.000835365)
(0.990157 0.0162817 0.00678126)
(1.00711 0.00246341 -0.00201302)
(1.00701 -0.0112626 0.00142875)
(1.01227 -0.00787665 0.0133733)
(1.0358 -0.0110634 0.00457425)
(1.04417 -0.0105337 0.000793344)
(1.03859 -0.00958569 -0.00447386)
(1.02429 -0.00808755 -0.0104037)
(1.01594 -0.00114116 -0.00213202)
(1.03629 -0.017968 0.00268397)
(1.04105 -0.0262807 -0.00222468)
(1.01651 -0.00500166 -0.00643674)
(1.00234 0.0185198 0.000357115)
(1.00599 0.0340005 0.0121655)
(1.03952 0.0248588 0.0131889)
(1.0627 -0.00646573 0.00704162)
(1.04016 -0.022137 -0.00688304)
(1.01947 -0.0144636 -0.013906)
(1.00855 0.00385676 -0.0139789)
(1.02858 0.0168921 -0.0110313)
(1.04781 0.0145293 0.000227852)
(1.04761 0.00922097 7.89336e-05)
(1.03969 0.00901864 -0.00285046)
(1.03594 -0.00750128 -0.000367407)
(1.03326 -0.0125238 0.000169034)
(1.03505 -0.00461686 0.00416485)
(1.03517 -0.00381206 -0.00410035)
(1.02683 -0.00934712 -0.0135396)
(1.02508 -0.0134091 -0.0204481)
(1.02692 -0.0134066 -0.00321073)
(1.03194 -0.0248133 0.0139802)
(1.01791 -0.0261359 0.00525874)
(0.994306 -0.0033093 -0.00397818)
(1.00814 0.010768 -0.00239264)
(1.02551 0.00124941 -0.00223446)
(1.04091 -0.00932215 -0.0143669)
(1.03775 -0.00947797 -0.0155315)
(1.00967 0.0085429 -0.00287344)
(0.994041 0.0137517 0.00122813)
(0.987627 0.00966737 -0.00200259)
(1.00336 0.0144164 -0.00221354)
(1.02576 0.00538871 -0.00243279)
(1.02501 -0.00791172 -0.00094602)
(1.02796 -0.00855336 0.00553551)
(1.03789 -0.0108826 -0.00329013)
(1.0378 -0.00738952 -0.00579713)
(1.03722 -0.00542144 -0.00531916)
(1.02818 -0.00806997 -0.0123813)
(1.02394 -0.00260399 -0.00280613)
(1.03386 -0.014553 0.00283891)
(1.0291 -0.0228094 -0.00526309)
(1.01345 -0.0075038 -0.00749718)
(1.01265 0.0117059 -0.000667109)
(1.0292 0.0257031 0.00931817)
(1.05843 0.0175481 0.00579273)
(1.06123 -0.00883921 -0.00148461)
(1.03076 -0.0151823 -0.00816283)
(1.02463 -0.00970497 -0.0112185)
(1.01599 0.00375032 -0.00772398)
(1.02374 0.0132268 -0.00954093)
(1.03284 0.0101988 -0.00720706)
(1.03322 0.00736177 -0.00780072)
(1.04026 0.00889828 -0.00403656)
(1.03547 -0.00382387 0.0010978)
(1.02728 -0.00973166 0.00156944)
(1.02573 -0.00461645 0.000514564)
(1.02876 -0.00314759 -0.00543337)
(1.02976 -0.00853667 -0.0066105)
(1.02231 -0.0140568 -0.0153707)
(1.02544 -0.0111238 -0.00265071)
(1.02905 -0.0182221 0.00960641)
(1.01706 -0.0200339 0.0051674)
(1.00644 -0.0024295 3.28773e-05)
(1.01868 0.00710343 -0.00514981)
(1.02824 0.000704486 -0.00351768)
(1.02909 -0.00577768 -0.0105344)
(1.02489 -0.00385537 -0.00734935)
(1.01283 0.00934848 0.00343456)
(1.01104 0.010776 0.00353911)
(1.00756 0.00723774 -0.0052744)
(1.01934 0.0126451 -0.010239)
(1.03991 0.00743259 -0.00737656)
(1.03402 -0.00562273 -0.00755509)
(1.03276 -0.00803505 -0.00180685)
(1.03281 -0.00838259 -0.00638156)
(1.02893 -0.00432284 -0.00777067)
(1.03303 -0.00318699 -0.00674335)
(1.02679 -0.00744829 -0.0127061)
(1.02757 -0.00142053 -0.00180205)
(1.03037 -0.00919579 0.0035381)
(1.01932 -0.0184525 -0.00462037)
(1.01219 -0.00874045 -0.00801226)
(1.01918 0.00683975 -0.00649859)
(1.0363 0.0193023 -7.88131e-05)
(1.05173 0.0132153 -0.0035884)
(1.04453 -0.00670366 -0.00655332)
(1.02699 -0.00978222 -0.00661319)
(1.02568 -0.00589427 -0.00797636)
(1.02038 0.00332403 -0.00336418)
(1.02126 0.0108961 -0.00608565)
(1.02389 0.00854912 -0.00640718)
(1.02393 0.00785665 -0.00768594)
(1.03509 0.0078854 -0.0041585)
(1.03376 -0.00304004 0.00128937)
(1.02648 -0.00825154 0.00220871)
(1.02279 -0.00341294 -0.000569186)
(1.02599 -0.00140439 -0.00555045)
(1.0309 -0.00730689 -0.0055337)
(1.02227 -0.0106401 -0.0103448)
(1.02543 -0.00680054 -0.000186456)
(1.03097 -0.0121422 0.00596198)
(1.02109 -0.0139523 0.00276522)
(1.01398 -0.0011876 9.19572e-05)
(1.02209 0.00665597 -0.00345574)
(1.02803 0.00132065 -0.00119288)
(1.02533 -0.00235046 -0.00700697)
(1.02341 0.000647401 -0.00334638)
(1.02052 0.00929851 0.00462439)
(1.02392 0.00929446 0.00423996)
(1.01973 0.00752071 -0.00434269)
(1.02454 0.0123668 -0.0108807)
(1.03922 0.00704091 -0.00892507)
(1.03118 -0.00326749 -0.00881892)
(1.02836 -0.00519447 -0.00276351)
(1.02756 -0.0053634 -0.00451999)
(1.02533 -0.00295658 -0.00567851)
(1.02994 -0.00255033 -0.00622863)
(1.02467 -0.00512841 -0.00982699)
(1.02749 9.61308e-05 0.000279783)
(1.03164 -0.00593471 0.00373216)
(1.02179 -0.0143185 -0.00324784)
(1.01324 -0.00741644 -0.00687919)
(1.01594 0.00596739 -0.00747164)
(1.02895 0.0167916 -0.0025306)
(1.04029 0.0118017 -0.00407405)
(1.03645 -0.00446677 -0.00505612)
(1.02705 -0.00573873 -0.00427979)
(1.02565 -0.00335892 -0.00505378)
(1.02165 0.00153647 -0.00098871)
(1.02269 0.00790927 -0.00255967)
(1.02462 0.0067677 -0.00292543)
(1.02462 0.00775404 -0.00449099)
(1.03261 0.0066425 -0.00252878)
(1.03202 -0.00244748 0.00159498)
(1.02759 -0.00668506 0.00229233)
(1.02456 -0.00193169 -0.000487415)
(1.02717 0.000195531 -0.00450726)
(1.0302 -0.00519282 -0.0052707)
(1.02388 -0.00671281 -0.00645871)
(1.02569 -0.00353327 0.00147709)
(1.03176 -0.00828168 0.00391345)
(1.02486 -0.0101975 0.001273)
(1.01754 -0.000961323 -0.00084267)
(1.02401 0.00531179 -0.00129701)
(1.02727 0.000753185 0.00107754)
(1.02591 -0.000718575 -0.00434762)
(1.02543 0.0024591 -0.00202815)
(1.02254 0.00796816 0.00311739)
(1.02623 0.00779484 0.00371403)
(1.02339 0.007346 -0.00162759)
(1.02629 0.0113808 -0.00668577)
(1.03617 0.00558092 -0.00614818)
(1.02883 -0.00194637 -0.00619238)
(1.02617 -0.0029735 -0.00153587)
(1.02666 -0.00303828 -0.00216829)
(1.0264 -0.00194538 -0.00288741)
(1.02969 -0.00219923 -0.00424778)
(1.02532 -0.00354098 -0.00632371)
(1.02659 0.000565721 0.000909734)
(1.03168 -0.00391375 0.00278553)
(1.02665 -0.0104909 -0.00187499)
(1.01833 -0.00531449 -0.00417237)
(1.01766 0.00574841 -0.00465372)
(1.02563 0.0135989 -0.000808439)
(1.03476 0.00901338 -0.000820442)
(1.03417 -0.00352347 -0.00181816)
(1.02742 -0.00401615 -0.00283648)
(1.02632 -0.0025353 -0.00301152)
(1.02277 0.000275742 3.6842e-05)
(1.02411 0.00532814 -0.000810563)
(1.02615 0.00454773 -0.000901607)
(1.02627 0.00582182 -0.00210241)
(1.03162 0.00456796 -0.00110736)
(1.03042 -0.00167681 0.00145498)
(1.02804 -0.00520247 0.00189984)
(1.02641 -0.00164592 -0.000237909)
(1.02806 -0.000138703 -0.00291432)
(1.0295 -0.00441236 -0.00432224)
(1.02505 -0.00495884 -0.00431397)
(1.02603 -0.00198018 0.00196284)
(1.03143 -0.00600822 0.0024522)
(1.02661 -0.00831714 0.000626014)
(1.01975 -0.00136646 -0.00109056)
(1.02486 0.0035483 -0.000157866)
(1.02652 0.000413111 0.00207834)
(1.02637 -8.76613e-05 -0.00267425)
(1.02653 0.00180626 -0.0011025)
(1.02286 0.00539889 0.0020803)
(1.02618 0.00591594 0.00289071)
(1.02452 0.00616711 2.85443e-05)
(1.02728 0.00914475 -0.00339612)
(1.03506 0.00360501 -0.00310936)
(1.02856 -0.0017424 -0.00335134)
(1.02627 -0.00186225 -0.000686289)
(1.02715 -0.00142272 -0.00107158)
(1.02747 -0.0014212 -0.00123575)
(1.03004 -0.00196721 -0.0024821)
(1.0263 -0.00271226 -0.00364552)
(1.02662 0.00045034 0.001053)
(1.03086 -0.00228934 0.00158621)
(1.02801 -0.00740034 -0.00160405)
(1.02156 -0.00419817 -0.00242189)
(1.02064 0.00395263 -0.0019382)
(1.02577 0.0097935 0.000708441)
(1.03244 0.0066069 0.000704199)
(1.03267 -0.00282814 -0.000550973)
(1.02772 -0.00293696 -0.00160602)
(1.02704 -0.00210098 -0.00168562)
(1.02409 -0.000539567 0.00041439)
(1.02526 0.00342448 -0.000191642)
(1.02676 0.00285123 -0.000119907)
(1.0268 0.00376518 -0.000828743)
(1.03081 0.00266039 -0.000483657)
(1.02919 -0.00107976 0.00105378)
(1.02827 -0.00381929 0.00142305)
(1.02745 -0.00157522 -0.000279463)
(1.02796 -0.000846528 -0.00177266)
(1.02893 -0.0038438 -0.00340401)
(1.02591 -0.00395995 -0.00308476)
(1.02618 -0.00116292 0.00164827)
(1.03047 -0.00420643 0.00127196)
(1.0274 -0.00689686 0.000765411)
(1.02161 -0.00154319 -0.000840893)
(1.02541 0.00199043 0.000148406)
(1.02617 0.000136788 0.00215966)
(1.02669 0.000112218 -0.00161883)
(1.02732 0.000958028 -0.000170683)
(1.02339 0.0034159 0.00147666)
(1.02653 0.00423775 0.00177823)
(1.02558 0.00479429 0.00060034)
(1.02763 0.00713984 -0.00157741)
(1.03388 0.0022092 -0.001582)
(1.02831 -0.00173184 -0.00177638)
(1.02695 -0.0014091 -0.000333957)
(1.02768 -0.000470962 -0.000731878)
(1.02769 -0.00103267 -0.000560328)
(1.03006 -0.00169136 -0.00168793)
(1.02694 -0.00198859 -0.00207502)
(1.02697 2.98143e-05 0.000906646)
(1.03001 -0.00136652 0.000850987)
(1.02807 -0.0050761 -0.0009921)
(1.02356 -0.0031434 -0.00128708)
(1.02299 0.00253891 -0.00062472)
(1.02637 0.00643321 0.000926399)
(1.03091 0.00434499 0.000817741)
(1.03148 -0.00225732 1.65752e-05)
(1.02786 -0.0021852 -0.000870026)
(1.02748 -0.00174703 -0.000924438)
(1.02501 -0.00091472 0.000541935)
(1.02599 0.00192463 -1.97245e-05)
(1.02705 0.0016399 -4.51689e-07)
(1.02697 0.00234983 -0.000265787)
(1.03023 0.00125504 -0.000196187)
(1.0283 -0.000690215 0.000606104)
(1.02826 -0.00274002 0.00100787)
(1.02802 -0.00154308 -0.000300354)
(1.02773 -0.001245 -0.000957419)