/*--------------------------------*- C++ -*----------------------------------*\
  =========                 |
  \\      /  F ield         | OpenFOAM: The Open Source CFD Toolbox
   \\    /   O peration     | Website:  https://openfoam.org
    \\  /    A nd           | Version:  10
     \\/     M anipulation  |
\*---------------------------------------------------------------------------*/
FoamFile
{
    format      ascii;
    class       volVectorField;
    location    "3";
    object      UMean;
}
// * * * * * * * * * * * * * * * * * * * * * * * * * * * * * * * * * * * * * //

dimensions      [0 1 -1 0 0 0 0];

internalField   nonuniform List<vector> 
25600
(
(0.0537016 -1.16639e-05 -0.0111839)
(0.0452464 0.000462593 0.00100761)
(0.0474296 0.000104686 0.0259661)
(0.0499485 5.73342e-05 0.0151222)
(0.0475105 0.000226168 -0.00611304)
(0.0475551 0.000330139 -0.0114211)
(0.0506127 0.000765556 -0.0168113)
(0.0472332 0.000449509 -0.0215376)
(0.0495525 -0.000586951 -0.0128493)
(0.061878 -0.000898439 0.000909656)
(0.0656146 -0.000600474 0.0136761)
(0.0573365 0.00026375 0.0122677)
(0.0512813 0.000497234 -0.0117563)
(0.0603603 -2.01757e-05 -0.0228443)
(0.0833999 -9.61261e-06 -0.0107064)
(0.0858529 0.000441871 -0.00945012)
(0.0712297 0.000176317 -0.0144006)
(0.0660363 3.65375e-06 -0.0103698)
(0.0756964 0.000104456 -0.0190627)
(0.075712 -0.000166149 -0.0155462)
(0.0642219 -0.000194588 -0.00639566)
(0.0794297 -0.000283514 0.0123214)
(0.104622 -0.000127916 0.0297444)
(0.11533 5.20553e-05 0.0141528)
(0.1406 -0.000664666 -0.0138195)
(0.156568 -0.000472798 -0.0259188)
(0.146751 0.000166032 -0.0193304)
(0.124288 0.000475981 -0.019194)
(0.106426 0.000491292 -0.0270768)
(0.114881 0.000318079 -0.0174902)
(0.140301 0.00015126 0.00450378)
(0.143414 -0.000106021 0.0121879)
(0.125812 -0.000260765 0.00661141)
(0.112979 0.000230421 -0.00228837)
(0.0908961 0.00114922 -0.0228658)
(0.067479 -0.000732795 -0.0110741)
(0.0665019 -0.00176883 0.0304693)
(0.050882 0.00127409 0.0466142)
(0.0279182 0.00156173 0.0390351)
(0.0434707 -0.000143162 0.0135995)
(0.154373 0.00236475 -0.0114116)
(0.134734 0.00369712 0.0189029)
(0.131531 0.00271509 0.0495154)
(0.141254 0.00209951 0.0197908)
(0.163634 0.00125676 -0.0156847)
(0.161182 0.00114308 -0.02639)
(0.157265 0.00309943 -0.0370573)
(0.165328 0.0018603 -0.0399201)
(0.167803 -0.00269412 -0.0126035)
(0.175095 -0.00393772 0.0169632)
(0.175914 -0.00225464 0.0265077)
(0.167352 0.00237681 0.00784258)
(0.16898 0.00332842 -0.0309961)
(0.174146 -0.000437062 -0.0296553)
(0.227204 0.00192681 -0.0103653)
(0.268845 0.00539051 -0.03699)
(0.234531 0.00307261 -0.0427905)
(0.205496 0.00160579 -0.0230511)
(0.241407 0.0016358 -0.0451739)
(0.244508 -1.32514e-05 -0.0447658)
(0.18936 -0.00107197 -0.0169648)
(0.206026 -0.00137759 0.0220663)
(0.273152 -0.000475044 0.0446207)
(0.31606 -0.000851649 0.0146153)
(0.380031 -0.00437203 -0.0276085)
(0.424572 -0.00260574 -0.049215)
(0.432192 0.00153345 -0.0363099)
(0.41056 0.00160284 -0.0270641)
(0.348842 8.67491e-05 -0.0468892)
(0.323489 0.000208508 -0.0479576)
(0.376967 -0.00124621 -0.0110126)
(0.425951 -0.000946452 0.0231654)
(0.400471 0.000515718 0.0248153)
(0.355814 0.00176746 0.00136716)
(0.322035 0.00249493 -0.0345949)
(0.268809 -0.00344682 -0.0017591)
(0.198278 -0.00398633 0.0650476)
(0.14689 0.00605154 0.082318)
(0.113719 0.00569316 0.0673141)
(0.141813 0.000827776 0.0219957)
(0.253985 0.00642593 0.00114841)
(0.238302 0.00856701 0.0371027)
(0.214614 0.00618076 0.068855)
(0.229991 0.00466563 0.0307246)
(0.303755 0.00270379 -0.0151442)
(0.308351 0.00151551 -0.0302311)
(0.266336 0.00338795 -0.0400314)
(0.285238 0.0020789 -0.0452221)
(0.29269 -0.00527125 -0.0128573)
(0.275452 -0.00796693 0.0360369)
(0.26955 -0.00454468 0.0469461)
(0.268863 0.00482295 0.0110119)
(0.286708 0.00866359 -0.0446783)
(0.267645 0.00121114 -0.0320792)
(0.278659 0.00124223 0.0202153)
(0.432678 0.00986988 -0.0335325)
(0.442146 0.00991224 -0.0796581)
(0.357439 0.00548656 -0.0418509)
(0.4079 0.00501894 -0.0519154)
(0.445666 0.00250929 -0.0736311)
(0.344902 -0.000416708 -0.0466089)
(0.304591 -0.00217462 0.0118971)
(0.364945 -0.000559312 0.0353711)
(0.443948 -7.28062e-05 -0.0122579)
(0.541727 -0.00663115 -0.0580126)
(0.584948 -0.00552932 -0.0729283)
(0.596459 0.00180986 -0.0572164)
(0.646473 0.00526575 -0.0250481)
(0.635241 0.00287958 -0.0311855)
(0.568659 0.000414198 -0.0581487)
(0.555658 -0.00455261 -0.0531163)
(0.598634 -0.00552947 -0.0144055)
(0.621965 -0.000443803 0.0285243)
(0.601451 0.00341106 0.0255236)
(0.635403 0.00475186 -0.0406229)
(0.617063 -0.00571004 -0.0122093)
(0.384506 -0.00877995 0.0791246)
(0.255043 0.00951732 0.0973047)
(0.220576 0.00990723 0.0803583)
(0.224337 0.00194817 0.0359048)
(0.349805 0.00948088 0.0173832)
(0.384535 0.0146799 0.0623467)
(0.334165 0.00890287 0.0935605)
(0.305115 0.00415215 0.0577264)
(0.417128 0.00236022 0.0116032)
(0.500379 0.00406364 -0.0183945)
(0.43144 0.00262152 -0.0318781)
(0.420545 -0.00175679 -0.0367418)
(0.430017 -0.00911173 -0.0213258)
(0.371299 -0.0137223 0.0419908)
(0.325022 -0.012175 0.0798784)
(0.34042 0.00369568 0.0319526)
(0.390415 0.015186 -0.0533957)
(0.366217 0.0063467 -0.0464684)
(0.31275 -0.00021216 0.0408199)
(0.452778 0.00792759 0.00554212)
(0.607444 0.0147889 -0.0958129)
(0.518432 0.0111644 -0.0824866)
(0.525719 0.00877619 -0.0489968)
(0.632604 0.0102412 -0.0708462)
(0.54411 0.0055408 -0.0794058)
(0.433911 0.00018102 -0.0137429)
(0.436052 0.000826097 0.0234695)
(0.515268 0.000570854 -0.0369803)
(0.652665 -0.00745423 -0.102877)
(0.717651 -0.00561461 -0.114531)
(0.671164 0.00270687 -0.0930989)
(0.693959 0.00758796 -0.0446449)
(0.768074 0.00542057 -0.00868849)
(0.788782 0.00103183 -0.0268202)
(0.792608 -0.00569088 -0.0541238)
(0.759166 -0.0103215 -0.0573895)
(0.721988 -0.00510048 -0.0210784)
(0.705019 0.000428201 0.0342157)
(0.820831 -0.00152409 -0.0289172)
(1.03843 -0.00819496 -0.0627735)
(0.711577 -0.00247398 0.0595643)
(0.415489 0.0164417 0.118324)
(0.422953 0.00326088 0.0956747)
(0.325588 -0.00390413 0.038866)
(0.453489 0.00405948 0.016541)
(0.588756 0.0184136 0.0816434)
(0.577617 0.014485 0.124182)
(0.452263 0.000784446 0.0852946)
(0.451682 -0.00677044 0.0599463)
(0.585238 0.000605959 0.0401308)
(0.636207 0.00221206 0.000675404)
(0.634094 -0.00691484 -0.0223869)
(0.630617 -0.0112922 -0.0422809)
(0.547423 -0.0145342 -0.000864296)
(0.418801 -0.0236205 0.0816849)
(0.362222 -0.00664845 0.0611601)
(0.447679 0.0166545 -0.0428401)
(0.449355 0.0115451 -0.0595245)
(0.370513 -0.00157961 0.0389179)
(0.447269 0.00337663 0.0430198)
(0.653336 0.0136978 -0.0712699)
(0.639582 0.0157639 -0.11091)
(0.589265 0.0125424 -0.0621373)
(0.680425 0.0170696 -0.0499367)
(0.690507 0.0152458 -0.0771333)
(0.59034 0.00681475 -0.0465204)
(0.544256 0.00488614 0.00747801)
(0.595718 -0.000931168 -0.0129727)
(0.722786 -0.0148032 -0.0876944)
(0.823951 -0.00810306 -0.135704)
(0.754704 0.00471902 -0.127864)
(0.712313 0.00844157 -0.0880869)
(0.787628 0.00470396 -0.0123704)
(0.850184 -0.00210236 0.0053194)
(0.930436 -0.0107812 -0.0249815)
(0.960858 -0.0130532 -0.0484221)
(0.82593 -0.00728151 -0.0699993)
(0.749999 -0.00183857 -0.0105966)
(0.832267 -0.0150303 0.0119554)
(1.13608 -0.0231796 -0.0690413)
(0.982329 0.00189051 -0.0275656)
(0.739424 0.0239967 0.100846)
(0.914848 0.00477615 0.152312)
(0.64305 -0.0116566 0.0641262)
(0.670729 0.00625669 0.0253309)
(0.686443 0.0107454 0.0566913)
(0.817545 0.0169598 0.138342)
(0.718869 0.00509977 0.107523)
(0.564284 -0.014705 0.0854081)
(0.570702 -0.00767511 0.0991303)
(0.675441 -0.00524507 0.0739727)
(0.76387 -0.0194323 0.0190952)
(0.801712 -0.0180625 -0.0422171)
(0.781169 -0.00649826 -0.0610626)
(0.649678 -0.0221906 0.0239856)
(0.428181 -0.0186274 0.0670396)
(0.455733 0.0124128 -0.0196887)
(0.496444 0.011689 -0.0430535)
(0.440219 -0.00695098 0.0373818)
(0.459255 -0.00357018 0.0729875)
(0.649805 0.00959215 -0.0315519)
(0.679155 0.0189891 -0.108075)
(0.609302 0.01627 -0.0738667)
(0.673262 0.023001 -0.0336316)
(0.712501 0.0223268 -0.0400808)
(0.697371 0.0131145 -0.0514388)
(0.670709 0.0115649 -0.0256916)
(0.694808 -0.00208306 0.00463674)
(0.744665 -0.027637 -0.0299518)
(0.850429 -0.0181761 -0.104941)
(0.844506 0.00381379 -0.129856)
(0.771502 0.00568758 -0.134442)
(0.82796 -0.00143822 -0.0636142)
(0.912044 -0.00721548 -0.00121041)
(0.931641 -0.0174248 -0.0112064)
(1.01261 -0.0177762 -0.0258701)
(0.92924 -0.00595057 -0.0748955)
(0.785334 -0.000296333 -0.0495199)
(0.832952 -0.0252593 0.0186981)
(1.11393 -0.0412024 -0.0288154)
(1.01996 6.22918e-06 -0.0456885)
(0.70888 0.0213639 0.0407829)
(1.13272 -0.00251109 0.153109)
(1.17397 -0.00416734 0.131324)
(0.873482 0.0222543 0.0473328)
(0.727803 0.00845107 0.0056831)
(0.852612 0.00794959 0.0844732)
(0.853495 0.00901018 0.109051)
(0.72205 -0.0103187 0.107246)
(0.618685 -0.0110543 0.135908)
(0.692325 -0.00933671 0.127414)
(0.763992 -0.0319761 0.0703169)
(0.759014 -0.0359296 -0.00639398)
(0.832911 -0.00866002 -0.0651726)
(0.886788 -0.00883276 -0.0284072)
(0.607975 -0.0143816 0.0379526)
(0.464844 0.0109172 0.00549031)
(0.55413 0.00653371 -0.00317831)
(0.552255 -0.0229554 0.0520677)
(0.508974 -0.0156039 0.0897897)
(0.645832 0.00528522 0.0066404)
(0.681418 0.0232028 -0.0867428)
(0.599196 0.0224239 -0.0701576)
(0.621613 0.030011 -0.00773431)
(0.674112 0.0267734 0.0092271)
(0.732749 0.0148224 -0.0244782)
(0.737645 0.0181318 -0.0439992)
(0.769271 0.00154192 -0.000822502)
(0.781099 -0.0383273 0.00289875)
(0.789286 -0.0362872 -0.0671845)
(0.884307 -0.00465807 -0.102098)
(0.894311 -0.000581564 -0.139926)
(0.897337 -0.0126426 -0.119262)
(0.97955 -0.0136579 -0.0397885)
(0.955341 -0.0195928 -0.0141634)
(0.976134 -0.0199469 -0.0205875)
(0.961809 -0.00230983 -0.0700775)
(0.856129 0.00521286 -0.0633573)
(0.866915 -0.0306844 0.0106096)
(1.06976 -0.0550935 -0.00971269)
(1.01632 0.00168768 -0.0408467)
(0.71905 0.0206133 0.0053114)
(0.954824 -0.0279113 0.0545285)
(1.26971 -0.0108917 0.112927)
(0.920003 0.0318895 0.0538776)
(0.770625 0.0136116 -0.025192)
(0.846289 -0.00100117 0.00253317)
(0.868332 0.00891391 0.0648052)
(0.818818 -0.000446927 0.108539)
(0.714064 -0.00854728 0.158538)
(0.723401 -0.00890622 0.162214)
(0.802732 -0.0281601 0.108007)
(0.740483 -0.041193 0.0172686)
(0.712362 -0.0245032 -0.0275172)
(0.918038 -0.00893669 -0.0110137)
(0.805456 0.00155566 0.0153958)
(0.596205 0.0154662 0.00682942)
(0.726372 -0.00171543 -0.0143772)
(0.770312 -0.0420612 0.0319583)
(0.628873 -0.0335672 0.0869294)
(0.661255 0.00218654 0.0344698)
(0.674136 0.0311505 -0.0569674)
(0.59294 0.0320478 -0.0585462)
(0.565038 0.0366256 0.0248781)
(0.611484 0.0277631 0.0724989)
(0.7311 0.0120264 0.0116716)
(0.747133 0.0218039 -0.0374528)
(0.772584 0.00606565 0.00423142)
(0.838441 -0.0400712 0.00558786)
(0.764261 -0.0520671 -0.0568154)
(0.855667 -0.0230808 -0.0773794)
(0.994992 -0.00923899 -0.111184)
(0.979533 -0.0213729 -0.132028)
(1.0102 -0.0204811 -0.0662042)
(0.970248 -0.0190644 -0.0162066)
(0.945657 -0.0187459 -0.0131905)
(0.978923 0.00183062 -0.0622596)
(0.923326 0.0110678 -0.0704374)
(0.891363 -0.0336066 0.00654417)
(1.06093 -0.0596391 0.00831644)
(1.03903 0.0127348 -0.0205841)
(0.733692 0.030706 -0.0209099)
(0.793215 -0.0401323 -0.0495425)
(1.14428 -0.0268549 0.0495705)
(0.894348 0.0372604 0.0479876)
(0.794205 0.0195965 -0.0299443)
(0.864569 -0.010322 -0.0348154)
(0.887323 0.0061752 0.0306572)
(0.878983 0.00671961 0.0756391)
(0.817632 -0.00439291 0.138716)
(0.753266 -0.00684628 0.179177)
(0.827409 -0.0205833 0.141772)
(0.829858 -0.0319324 0.0279395)
(0.696712 -0.0320166 -0.00930964)
(0.814699 -0.0243753 0.0526787)
(0.83632 0.00600125 0.0615095)
(0.748853 0.0232763 0.00439948)
(0.923482 -0.000380811 -0.0627854)
(1.02824 -0.0452628 -0.0362847)
(0.825958 -0.043794 0.0515233)
(0.723515 0.00258839 0.0429156)
(0.678541 0.0423869 -0.0353984)
(0.580442 0.0451435 -0.0465838)
(0.540702 0.0444272 0.0476336)
(0.59159 0.0222223 0.127586)
(0.716196 0.00123154 0.0569274)
(0.74984 0.0207372 -0.0171299)
(0.761447 0.00802175 0.0205311)
(0.837504 -0.037424 0.0129017)
(0.803773 -0.0595081 -0.0594574)
(0.840622 -0.0444854 -0.0658009)
(1.00808 -0.0201726 -0.0734607)
(1.02152 -0.0245208 -0.114827)
(1.00423 -0.0256042 -0.074104)
(0.96391 -0.0164403 -0.011236)
(0.916854 -0.0167398 -0.00107349)
(0.974814 0.00337299 -0.0482731)
(0.975343 0.0243364 -0.0713801)
(0.885864 -0.0349813 0.00218339)
(1.05357 -0.0732472 0.0191195)
(1.10527 0.0234074 0.0114388)
(0.799435 0.0528791 -0.0194811)
(0.788784 -0.0391054 -0.0928456)
(1.01565 -0.0400095 -0.00544261)
(0.891724 0.0349401 0.0377232)
(0.842657 0.0267364 -0.0156236)
(0.87529 -0.010965 -0.0405982)
(0.881875 0.00056143 0.0163927)
(0.908861 0.00715434 0.0502725)
(0.894978 -0.00213953 0.0980735)
(0.798893 -0.00460467 0.167538)
(0.821663 -0.0149325 0.168169)
(0.886941 -0.020409 0.0452817)
(0.822403 -0.0229602 -0.0226036)
(0.786655 -0.0322121 0.0770544)
(0.773634 -0.00185458 0.124948)
(0.795155 0.0162827 0.0535342)
(0.977135 -0.00738842 -0.0294978)
(1.10493 -0.0476169 -0.0354497)
(0.97903 -0.0465135 0.0193353)
(0.822461 0.00824385 0.0214375)
(0.680159 0.0584811 -0.0293602)
(0.567905 0.0600064 -0.0273278)
(0.590974 0.0472053 0.0454967)
(0.691932 0.00694784 0.142438)
(0.757157 -0.0189947 0.106403)
(0.771621 0.0105578 0.0181144)
(0.78128 0.00773917 0.0432968)
(0.815473 -0.0326489 0.0421624)
(0.821388 -0.0623459 -0.0462707)
(0.859279 -0.0619644 -0.0580157)
(0.996062 -0.0323842 -0.0409287)
(1.03388 -0.0251316 -0.0912964)
(0.988325 -0.0280076 -0.0763591)
(0.941647 -0.012954 -0.00575672)
(0.906311 -0.0116914 0.0160547)
(0.953273 0.001879 -0.0223448)
(0.994246 0.0347936 -0.0824412)
(0.932649 -0.0221107 -0.0184518)
(1.01509 -0.0815781 0.0380872)
(1.06971 0.0219249 -0.00274338)
(0.877086 0.0653851 -0.0306881)
(0.890277 -0.0309604 -0.0924144)
(0.971765 -0.0428492 -0.0419698)
(0.925126 0.0265615 0.0103019)
(0.900495 0.0261514 -0.0132354)
(0.892785 0.000444825 -0.0289978)
(0.868174 0.00571098 0.013996)
(0.914209 0.00261046 0.0424849)
(0.938862 -0.00409296 0.0710573)
(0.858212 0.000211841 0.139103)
(0.846583 -0.00815506 0.17682)
(0.873357 -0.0168217 0.0690395)
(0.907121 -0.00887255 -0.0381871)
(0.865293 -0.0231424 0.0483132)
(0.749516 -0.0137281 0.146733)
(0.78032 -0.00121125 0.101963)
(0.9717 -0.0203601 0.0239699)
(1.06242 -0.0570419 0.00622656)
(0.970797 -0.0506944 0.0153453)
(0.840566 0.0195534 0.00281925)
(0.641708 0.0773091 -0.00292062)
(0.556739 0.0707286 0.00370643)
(0.668222 0.04297 0.00271958)
(0.847081 -0.00983663 0.0750986)
(0.879807 -0.0358326 0.10504)
(0.838956 -0.00113668 0.0454352)
(0.827906 0.00722086 0.0615393)
(0.825981 -0.0239531 0.0743223)
(0.828334 -0.0587488 -0.0170373)
(0.878285 -0.072855 -0.0489384)
(0.991893 -0.0442631 -0.0157252)
(1.02797 -0.0247851 -0.0655235)
(0.97527 -0.0237143 -0.0723223)
(0.919719 -0.00866994 0.00044938)
(0.892116 -0.0052543 0.0291053)
(0.940274 0.00434836 0.00876137)
(0.99323 0.0385891 -0.0729362)
(0.952108 -0.00957259 -0.0708869)
(0.995329 -0.0772035 0.0549523)
(1.04761 0.00293749 0.0123917)
(0.979625 0.0405406 -0.0350055)
(1.01032 -0.0367012 -0.0591864)
(1.00018 -0.0383008 -0.0582012)
(0.989379 0.0257026 -0.0112532)
(0.968643 0.024069 -0.0247319)
(0.915572 0.013619 -0.0338459)
(0.88045 0.0209863 0.000253251)
(0.946326 0.00325351 0.0244528)
(0.973552 -0.00926238 0.0506817)
(0.902463 0.00387687 0.105888)
(0.898044 0.00223524 0.163875)
(0.887189 -0.0143577 0.0856782)
(0.922928 -0.00894875 -0.0477417)
(0.963768 -0.0106145 -0.000472315)
(0.808317 -0.0122022 0.128468)
(0.752798 -0.0178012 0.114362)
(0.957987 -0.0319058 0.0300315)
(1.04349 -0.0587913 0.012871)
(0.892831 -0.0493482 0.00637628)
(0.745493 0.0331219 -0.00268057)
(0.578099 0.0924636 0.0239227)
(0.56897 0.07402 0.00687557)
(0.706866 0.0356161 -0.0390191)
(0.894083 -0.0189988 0.00673385)
(0.95281 -0.0430304 0.0639612)
(0.900459 -0.006193 0.049707)
(0.873069 0.00865996 0.0692579)
(0.848893 -0.0139945 0.0926507)
(0.834097 -0.0489398 0.0170133)
(0.88302 -0.0777249 -0.039556)
(0.991316 -0.0552654 -0.00482237)
(1.00899 -0.0212391 -0.0366263)
(0.945876 -0.0137792 -0.0634106)
(0.913291 -0.00228061 -0.00307892)
(0.877229 0.00279492 0.0343592)
(0.914912 0.00960092 0.0264244)
(1.00881 0.041655 -0.0524973)
(1.00149 0.00631416 -0.0986341)
(0.974113 -0.0700093 0.0257107)
(1.04096 -0.0257613 0.0498873)
(1.09132 0.00588244 0.00915046)
(1.094 -0.0455514 -0.00492689)
(1.04323 -0.0291728 -0.0440802)
(1.04141 0.0266071 -0.0273254)
(1.03732 0.0224221 -0.0317347)
(0.936623 0.0265723 -0.0324077)
(0.885103 0.0358129 -0.00475133)
(0.957073 0.00503785 0.00919287)
(0.992072 -0.0128411 0.0377201)
(0.913017 0.00641002 0.0823593)
(0.907178 0.0110935 0.129541)
(0.928271 -0.0104321 0.0858349)
(0.938557 -0.0229605 -0.0428293)
(0.980796 -0.013378 -0.0345201)
(0.862675 -0.00287444 0.0958878)
(0.773493 -0.0234718 0.107375)
(0.959038 -0.0448917 0.0198519)
(1.04901 -0.056074 0.00970705)
(0.812443 -0.0373582 0.00938211)
(0.609852 0.0394614 -0.0129329)
(0.53987 0.0887664 0.0126658)
(0.606795 0.0643737 -0.00255645)
(0.739034 0.0264787 -0.0481589)
(0.918409 -0.0245758 -0.0224201)
(0.995995 -0.0507378 0.0275246)
(0.950765 -0.0123227 0.0434202)
(0.916528 0.0109384 0.0743662)
(0.86826 -0.00459846 0.100242)
(0.840184 -0.037057 0.0451586)
(0.883233 -0.0771955 -0.0236802)
(0.97702 -0.0643971 -0.00617763)
(0.982471 -0.0126648 -0.0107564)
(0.909813 0.00147076 -0.0439934)
(0.899204 0.00243191 -0.0100274)
(0.880805 0.0139152 0.0293632)
(0.892208 0.0167208 0.0141223)
(1.00041 0.0375439 -0.0582063)
(1.05344 0.0193607 -0.100577)
(1.00566 -0.0577563 0.00338231)
(1.01718 -0.0482242 0.0551638)
(1.11079 -0.0178553 0.00909596)
(1.1024 -0.0446373 -0.00496777)
(1.04262 -0.0192218 -0.0345656)
(1.04741 0.022164 -0.0411691)
(1.04911 0.0250364 -0.0403496)
(0.936741 0.040892 -0.0278949)
(0.892331 0.0459576 0.00127441)
(0.972814 0.00858009 0.00886306)
(1.00504 -0.0122666 0.0344908)
(0.910943 0.00990639 0.0724311)
(0.863843 0.0191726 0.0975511)
(0.942918 -0.00492585 0.0698593)
(1.0072 -0.0334917 -0.0181291)
(0.976633 -0.0205853 -0.0366495)
(0.891392 0.000976457 0.0554611)
(0.857901 -0.0294548 0.0882718)
(0.976387 -0.0570294 0.0143331)
(1.04765 -0.0511045 -0.0028534)
(0.810193 -0.0211983 0.0225379)
(0.585064 0.0403714 -0.00531974)
(0.588311 0.0767952 0.0130336)
(0.681706 0.0564437 0.0301178)
(0.786378 0.0236681 -0.0067576)
(0.947182 -0.0270283 -0.020669)
(1.02732 -0.0574976 -0.000331813)
(0.994405 -0.0182984 0.0297597)
(0.959695 0.0143322 0.0740087)
(0.889844 0.00526521 0.104315)
(0.842932 -0.0267235 0.0674917)
(0.880382 -0.0743788 -0.00102337)
(0.951374 -0.0696253 -0.00574896)
(0.947463 -0.0020269 0.0065609)
(0.88601 0.0223284 -0.0205562)
(0.885293 0.00632248 -0.00875267)
(0.882168 0.0192192 0.0287962)
(0.880858 0.0232999 -0.00281001)
(0.976454 0.0283439 -0.0813063)
(1.05359 0.0225263 -0.104823)
(1.04522 -0.0450234 -0.00219919)
(1.03534 -0.062628 0.043259)
(1.08871 -0.0422626 -0.0226345)
(1.07819 -0.0467236 -0.0319408)
(1.02885 -0.0155111 -0.035626)
(0.987826 0.0227099 -0.0445437)
(1.00416 0.0319065 -0.0581806)
(0.957524 0.0486553 -0.0301174)
(0.926102 0.0473332 0.0153013)
(0.97896 0.0135068 0.0211269)
(1.0011 -0.00222982 0.034445)
(0.891909 0.0212583 0.0617572)
(0.80514 0.0259729 0.0656264)
(0.902792 -0.013899 0.0296369)
(1.06026 -0.0473382 -0.0224526)
(1.04569 -0.0207397 -0.0284051)
(0.974711 0.00576186 0.012728)
(0.987803 -0.0344528 0.033414)
(1.03919 -0.0627609 -0.000903135)
(1.05068 -0.0373062 -0.0206414)
(0.85932 -0.00214361 0.015329)
(0.671778 0.0303977 0.00791574)
(0.687247 0.0472973 0.0227233)
(0.760085 0.0425885 0.0603786)
(0.838024 0.0241767 0.0388972)
(0.983642 -0.0263161 -0.0050529)
(1.05595 -0.060746 -0.0246221)
(1.02977 -0.0241696 0.00817834)
(0.999068 0.0168507 0.0691123)
(0.917073 0.0145907 0.105689)
(0.849212 -0.0185553 0.0848501)
(0.870207 -0.0706715 0.0227062)
(0.923927 -0.0705728 -0.00237275)
(0.916008 0.00740849 0.0154965)
(0.877693 0.043255 0.00028808)
(0.887564 0.0157305 -0.00198481)
(0.878955 0.0251676 0.0289322)
(0.868733 0.0313977 -0.0164346)
(0.944174 0.0208437 -0.097886)
(1.01686 0.0153752 -0.103615)
(1.04012 -0.0416362 -0.0121316)
(1.06551 -0.0707219 0.033725)
(1.06387 -0.0585248 -0.0337669)
(1.02236 -0.0488288 -0.051103)
(0.989304 -0.0120666 -0.0305174)
(0.940084 0.0269395 -0.0400887)
(0.990256 0.0332204 -0.06116)
(0.98826 0.0439604 -0.0295559)
(0.949596 0.0436165 0.0295249)
(0.964962 0.0192829 0.042941)
(0.983171 0.00913006 0.0434115)
(0.899898 0.0369697 0.0460319)
(0.819628 0.0386396 0.0316147)
(0.866187 -0.0215625 -0.00887229)
(0.969064 -0.0767453 -0.0548746)
(1.02414 -0.0485669 -0.0366875)
(1.07823 -0.00398655 0.00278929)
(1.13843 -0.0315245 -0.00487595)
(1.1147 -0.0561723 -0.0279074)
(1.05698 -0.0203637 -0.0317028)
(0.936246 0.0165002 0.000975828)
(0.837695 0.0245315 -0.00393722)
(0.823561 0.0216436 -0.00819228)
(0.830749 0.0266528 0.0418297)
(0.88419 0.0206703 0.0643281)
(1.01666 -0.0272912 0.0241257)
(1.0876 -0.0629378 -0.0338315)
(1.08085 -0.0307687 -0.0162972)
(1.05698 0.0152401 0.0577503)
(0.957909 0.0200347 0.101327)
(0.859095 -0.0141415 0.0927449)
(0.858931 -0.0654736 0.0390147)
(0.899454 -0.0634136 0.00043444)
(0.885044 0.0196997 0.0220714)
(0.867766 0.0607105 0.0232089)
(0.883436 0.0252091 0.00637587)
(0.867836 0.0290644 0.0219792)
(0.86112 0.0374532 -0.0198323)
(0.919406 0.019978 -0.0915298)
(0.986846 0.0122736 -0.085517)
(1.02058 -0.0400989 -0.022852)
(1.07001 -0.0763198 0.0216311)
(1.05258 -0.0636885 -0.0173442)
(0.960012 -0.045488 -0.0570613)
(0.921319 -0.00720105 -0.0372508)
(0.924947 0.0164743 -0.0514299)
(0.992362 0.0200241 -0.0501845)
(0.993744 0.0395999 -0.0210969)
(0.958164 0.0446656 0.0240183)
(0.951125 0.0276095 0.0460098)
(0.944754 0.0233838 0.0587362)
(0.900566 0.0443715 0.0458216)
(0.861886 0.043739 0.00100286)
(0.89163 -0.00968881 -0.0423387)
(0.928638 -0.0728028 -0.0738263)
(0.944679 -0.0743947 -0.0504078)
(1.04053 -0.0398587 0.00975639)
(1.15169 -0.0451214 0.0101177)
(1.14014 -0.0505065 -0.0243974)
(1.05867 -0.00689098 -0.032473)
(0.970749 0.0261581 -0.00636594)
(0.956693 0.0132911 -0.0103011)
(0.961042 -0.0021262 -0.0351605)
(0.921796 0.0102712 0.00530674)
(0.944364 0.0140838 0.0666969)
(1.05128 -0.0286339 0.0511651)
(1.10615 -0.0657641 -0.0204446)
(1.12007 -0.0395164 -0.0267077)
(1.11549 0.0149605 0.0449822)
(0.999702 0.0331148 0.0957351)
(0.868809 -0.00468631 0.0909258)
(0.844824 -0.0629332 0.0433752)
(0.882655 -0.0597887 -0.00523459)
(0.873039 0.027592 0.00825316)
(0.877779 0.0731906 0.0349882)
(0.892184 0.0384634 0.0265834)
(0.859246 0.0368674 0.0194171)
(0.857716 0.0443672 -0.0196458)
(0.908712 0.0259543 -0.0746547)
(0.980271 0.017212 -0.0635261)
(1.00799 -0.0338446 -0.0247883)
(1.03593 -0.0796863 0.0103546)
(1.04082 -0.0648333 -0.000253744)
(0.944952 -0.0347718 -0.0548153)
(0.882523 -0.00133316 -0.0634077)
(0.923413 0.00193884 -0.0699583)
(0.956821 0.00488086 -0.0465391)
(0.963841 0.0351312 -0.015501)
(0.950214 0.0504364 0.0109093)
(0.922223 0.0426224 0.026119)
(0.896658 0.0386262 0.054376)
(0.903953 0.0478239 0.0590314)
(0.904812 0.0452178 0.00413869)
(0.918892 0.00576362 -0.0575023)
(0.9503 -0.0484434 -0.0816338)
(0.949889 -0.0715955 -0.0579439)
(1.00679 -0.0615133 -0.00209818)
(1.1037 -0.0552188 0.0127798)
(1.10737 -0.0481484 -0.0141576)
(1.05687 -0.00782008 -0.0359261)
(1.02727 0.0233709 -0.0216981)
(1.0534 0.00619048 -0.0120547)
(1.03428 -0.0183215 -0.0334988)
(0.951382 -0.0110229 -0.0196551)
(0.964031 -0.00297439 0.0422084)
(1.07844 -0.0313207 0.0469952)
(1.13702 -0.063558 -0.0102709)
(1.12222 -0.0474626 -0.0161606)
(1.07568 0.0114138 0.0553103)
(0.962505 0.0468686 0.10614)
(0.868434 0.00931354 0.0960713)
(0.853478 -0.0577072 0.0437535)
(0.881921 -0.0572626 -0.0166725)
(0.88153 0.028833 -0.0197107)
(0.894829 0.0798658 0.0333627)
(0.90123 0.0512362 0.0580696)
(0.858564 0.0452479 0.0403028)
(0.864037 0.0509848 -0.00327643)
(0.908039 0.0355635 -0.0509744)
(0.966967 0.0293155 -0.0538737)
(1.00486 -0.0231208 -0.0279018)
(1.01861 -0.0842432 0.00695752)
(1.02266 -0.0697235 0.00888417)
(0.952944 -0.0253361 -0.0510994)
(0.901442 0.00240106 -0.0853927)
(0.946182 0.0005913 -0.0856345)
(0.938468 0.00306779 -0.0600861)
(0.927601 0.0336989 -0.0325365)
(0.920342 0.0509523 -0.0133147)
(0.907286 0.0487949 0.00623389)
(0.886016 0.0443997 0.0468017)
(0.902289 0.0451261 0.0669109)
(0.926799 0.0429452 0.0257221)
(0.938645 0.0159948 -0.0396566)
(0.967556 -0.0252213 -0.0770671)
(0.998265 -0.0547126 -0.0647463)
(1.03148 -0.0647556 -0.0226906)
(1.07134 -0.060152 0.00350771)
(1.07699 -0.0505937 -0.00222577)
(1.05168 -0.0231446 -0.0304546)
(1.0353 0.00306612 -0.0375886)
(1.09342 -0.0047329 -0.00712959)
(1.09142 -0.024822 0.00207693)
(0.977113 -0.0290107 -0.0160527)
(0.964743 -0.0279288 0.00476214)
(1.08805 -0.0437304 0.021295)
(1.15474 -0.0565047 -0.00651794)
(1.08124 -0.0360613 -0.00870047)
(0.960681 0.0195867 0.0438949)
(0.86637 0.058666 0.0980831)
(0.849375 0.021246 0.10446)
(0.880677 -0.0529596 0.0536141)
(0.912697 -0.0571759 -0.013575)
(0.896434 0.023513 -0.0316973)
(0.892668 0.0745808 0.0230285)
(0.902072 0.0570406 0.0713603)
(0.864156 0.0528649 0.0622611)
(0.870891 0.0603266 0.0318491)
(0.916975 0.0528889 -0.00584238)
(0.96738 0.0442662 -0.0393158)
(1.01188 -0.0147096 -0.0375007)
(1.01232 -0.0881965 0.00259161)
(1.01099 -0.0766 0.0173835)
(0.986804 -0.0215494 -0.0378425)
(0.954329 0.00607367 -0.0897192)
(0.999444 0.00483887 -0.0846107)
(0.965019 0.00348057 -0.0727082)
(0.922075 0.0262691 -0.0561497)
(0.903567 0.0419514 -0.0399461)
(0.904678 0.0429856 -0.00880925)
(0.90068 0.0370449 0.0426984)
(0.916875 0.0340395 0.072938)
(0.946078 0.0381853 0.0549136)
(0.959115 0.0292086 0.00715511)
(0.978862 -0.000168547 -0.0482973)
(1.04409 -0.0367559 -0.0631873)
(1.10383 -0.0544437 -0.0304969)
(1.08576 -0.0505377 -0.00365156)
(1.0441 -0.0477019 -0.00428306)
(1.03732 -0.0360816 -0.0123525)
(1.01218 -0.0161784 -0.0190191)
(1.03212 -0.0120217 -0.00010801)
(1.07894 -0.0290516 0.0253627)
(1.04549 -0.0565477 0.00871345)
(1.00947 -0.0656458 -0.0137145)
(1.06496 -0.0584767 -0.00954984)
(1.12654 -0.0424214 -0.0112165)
(1.06633 -0.016161 -0.00737629)
(0.928014 0.0282655 0.0171478)
(0.843781 0.0600514 0.065481)
(0.859175 0.0238653 0.101461)
(0.907798 -0.0527797 0.0740513)
(0.95107 -0.0694744 0.0111659)
(0.937571 0.00858357 -0.0245942)
(0.919617 0.0696693 -0.00598724)
(0.933202 0.0650232 0.0335195)
(0.903419 0.061977 0.0477183)
(0.893678 0.0694763 0.0408465)
(0.926692 0.0690462 0.015588)
(0.980638 0.0589638 -0.024612)
(1.03495 0.00330887 -0.0343159)
(1.02214 -0.0725625 -0.00259598)
(0.992628 -0.0858436 0.0165507)
(1.00617 -0.0388558 -0.0169836)
(1.0154 0.00137742 -0.0682678)
(1.02302 0.0106625 -0.056791)
(1.0023 0.0168021 -0.0710271)
(0.939075 0.0283696 -0.0779698)
(0.904866 0.0324987 -0.0680541)
(0.926558 0.0273988 -0.0317162)
(0.958946 0.0132409 0.0235002)
(0.976826 0.00527035 0.0617575)
(0.984504 0.017371 0.0689493)
(0.98522 0.0273955 0.0559674)
(1.0092 0.0135637 0.0151962)
(1.07858 -0.0293375 -0.0209474)
(1.13674 -0.0527221 -0.0164471)
(1.10887 -0.0362585 0.00053998)
(1.0348 -0.0309003 -0.00209805)
(1.00671 -0.0308182 -0.00475888)
(0.978461 -0.0189833 0.000131101)
(0.973931 -0.019651 0.009702)
(1.03786 -0.041305 0.0273068)
(1.08928 -0.0810272 0.0161181)
(1.08376 -0.0987447 -0.0135786)
(1.06545 -0.0718672 -0.028546)
(1.06338 -0.0213643 -0.0304665)
(1.06767 0.0151736 -0.0105329)
(1.02139 0.0274105 0.0206458)
(0.95752 0.0332508 0.0604136)
(0.959803 0.00685044 0.0967922)
(0.979552 -0.0482115 0.0862657)
(0.99099 -0.0704135 0.0302619)
(0.969551 -0.0127428 -0.0177875)
(0.943852 0.049565 -0.0217912)
(0.961684 0.0598355 0.00782519)
(0.945943 0.0651329 0.034908)
(0.923902 0.0705034 0.0385902)
(0.927929 0.0645344 0.0145135)
(0.96026 0.0533799 -0.0216209)
(1.02926 0.0164321 -0.027883)
(1.06211 -0.0390971 0.000518297)
(1.02373 -0.0680004 0.0168775)
(0.994391 -0.0529176 -0.00492135)
(1.00871 -0.0133823 -0.0372129)
(0.985041 -0.0238283 -0.0213215)
(0.972317 -0.00421589 -0.0496142)
(0.940019 0.0255857 -0.0768381)
(0.917554 0.0312671 -0.0910743)
(0.944304 0.0121505 -0.0782902)
(0.995004 -0.0125575 -0.0276396)
(1.02577 -0.0197646 0.0305696)
(1.0219 -0.00242191 0.0667221)
(1.01198 0.010307 0.0757779)
(1.04457 0.000784363 0.0418822)
(1.10251 -0.0337406 -0.00228547)
(1.12201 -0.0528537 -0.00974851)
(1.09005 -0.0304788 0.00286729)
(1.03387 -0.0181469 -0.0070265)
(0.994324 -0.0205813 -0.0225703)
(0.963649 -0.0140796 -0.0142359)
(0.960781 -0.0245346 -0.00316614)
(1.0083 -0.0589524 0.0110526)
(1.07196 -0.0996583 0.0102104)
(1.08896 -0.111676 -0.0172795)
(1.06522 -0.073265 -0.0352897)
(1.03976 -0.015532 -0.0307773)
(1.04736 0.020826 0.00383164)
(1.05815 0.0295675 0.0474496)
(1.02168 0.0188257 0.0721216)
(1.00799 -0.0119348 0.0743073)
(1.02026 -0.0458956 0.0554349)
(1.01865 -0.0524004 0.0172553)
(0.98418 -0.00927317 -0.0210097)
(0.945159 0.0340204 -0.0308269)
(0.955863 0.0408731 -0.00939873)
(0.959205 0.0516875 0.0213282)
(0.946237 0.0591989 0.0275942)
(0.92879 0.051406 0.0026419)
(0.925703 0.0400108 -0.0264399)
(0.976697 0.0161494 -0.0288688)
(1.05371 -0.0106472 0.00271317)
(1.07938 -0.0240872 0.031505)
(1.04021 -0.0356675 0.0235815)
(1.00367 -0.0358946 -0.000389255)
(0.978394 -0.0205249 -0.0152712)
(0.915918 -0.0127966 -0.0573951)
(0.897065 0.00250364 -0.0884155)
(0.921649 -7.98151e-05 -0.10969)
(0.971584 -0.0200103 -0.115571)
(1.01155 -0.0377074 -0.0749569)
(1.03042 -0.0381589 0.00573837)
(1.03387 -0.0228331 0.0693785)
(1.04621 -0.0133291 0.0859809)
(1.08669 -0.0135121 0.055224)
(1.11533 -0.0261351 0.00984955)
(1.09111 -0.0375335 -0.0107409)
(1.05646 -0.0275188 -0.00499731)
(1.04665 -0.0169533 -0.00634452)
(1.03224 -0.0146572 -0.021106)
(0.997405 -0.00674602 -0.0205844)
(0.987255 -0.00959144 -0.0224179)
(1.00712 -0.0398321 -0.0307006)
(1.05273 -0.08127 -0.0293941)
(1.07409 -0.0943417 -0.032385)
(1.048 -0.061486 -0.0314633)
(1.02729 -0.00887272 -0.019252)
(1.02925 0.017592 0.0051217)
(1.04877 0.0150627 0.0424297)
(1.04252 0.00607846 0.0710908)
(1.02436 -0.0136993 0.064926)
(1.0208 -0.0339208 0.0330725)
(1.023 -0.0349451 0.00066717)
(1.01805 -0.00152408 -0.0169198)
(1.00498 0.0319159 -0.0172617)
(0.999282 0.0323177 -0.011346)
(0.982413 0.0328258 -0.00198462)
(0.962463 0.039126 -0.00129981)