/*--------------------------------*- C++ -*----------------------------------*\
  =========                 |
  \\      /  F ield         | OpenFOAM: The Open Source CFD Toolbox
   \\    /   O peration     | Website:  https://openfoam.org
    \\  /    A nd           | Version:  10
     \\/     M anipulation  |
\*---------------------------------------------------------------------------*/
FoamFile
{
    format      ascii;
    class       volScalarField;
    location    "47.5";
    object      nut;
}
// * * * * * * * * * * * * * * * * * * * * * * * * * * * * * * * * * * * * * //

dimensions      [0 2 -1 0 0 0 0];

internalField   nonuniform List<scalar> 
25600
(
5.37358e-16
2.92794e-16
4.01928e-16
9.1686e-17
3.85111e-17
1.75967e-16
2.79378e-15
5.15042e-15
7.44406e-16
3.85501e-18
3.05233e-17
9.29744e-16
1.55632e-15
5.37334e-16
1.10173e-17
4.16158e-17
2.36432e-17
2.50221e-18
6.26654e-17
2.33158e-16
8.05388e-17
1.03967e-15
8.79636e-15
3.23076e-15
4.1313e-19
9.94931e-17
2.55036e-15
1.20419e-15
3.25134e-17
3.50407e-19
2.41645e-19
1.29112e-18
4.991e-18
2.14235e-18
6.62816e-17
1.67659e-16
3.23434e-17
2.21127e-18
1.27126e-16
1.28821e-15
6.68809e-16
5.41237e-17
1.05514e-17
8.50209e-18
9.99523e-17
3.5806e-16
1.18262e-15
4.10019e-16
7.13324e-18
8.6912e-18
4.89951e-16
8.26345e-16
1.88196e-16
4.82935e-16
3.87872e-17
7.99328e-18
8.10658e-18
2.65796e-19
9.49635e-18
4.46501e-16
1.04966e-16
1.66005e-16
4.557e-15
1.57335e-14
2.2721e-15
1.49411e-19
5.81924e-17
7.92392e-16
2.13779e-16
3.98838e-18
1.56211e-18
1.31358e-18
4.23466e-18
9.23259e-20
2.84287e-18
1.49568e-16
4.07899e-16
3.25378e-17
1.74992e-17
3.76192e-16
3.95103e-16
5.44047e-16
3.26633e-17
4.24318e-18
4.71908e-17
8.29758e-17
8.71753e-17
3.51138e-18
4.55098e-19
5.5987e-17
2.7342e-16
5.0411e-17
9.35454e-20
2.33824e-17
3.22625e-17
4.00307e-18
1.11202e-18
1.95066e-18
6.17843e-19
2.53513e-16
9.27432e-16
1.91971e-17
2.81407e-16
8.0222e-15
1.17477e-14
5.0082e-16
5.08399e-20
3.47896e-17
1.25453e-16
3.39519e-17
3.7751e-18
4.48756e-19
5.60157e-18
1.39092e-18
2.48122e-21
1.87401e-17
4.10908e-16
3.05236e-16
4.69156e-18
2.23499e-17
1.06735e-16
9.78812e-16
2.30552e-16
6.52451e-19
4.13691e-18
2.89506e-17
2.35072e-17
2.59565e-18
4.02943e-18
7.81711e-17
3.69035e-17
2.7445e-17
1.94761e-17
3.07995e-17
1.51307e-17
1.21656e-18
3.80397e-20
1.46325e-18
6.8485e-22
7.256e-17
1.27639e-15
6.18551e-16
2.93685e-18
8.59266e-16
1.03784e-14
3.96609e-15
5.29828e-17
5.88906e-20
1.79615e-17
4.70335e-17
1.0219e-17
4.17708e-18
8.57444e-18
7.47941e-18
7.03224e-20
2.64488e-19
1.64149e-16
7.37403e-16
9.87724e-17
2.76684e-19
7.22471e-18
8.12503e-16
7.12233e-16
7.51691e-18
5.01706e-20
4.08745e-17
4.47445e-17
4.98994e-18
5.72617e-18
1.79023e-17
1.78931e-18
4.12589e-17
1.04814e-16
4.86114e-17
3.49765e-18
7.26605e-19
3.70704e-19
1.24734e-18
5.72879e-19
2.28401e-17
8.39809e-16
2.45759e-15
9.70871e-17
1.95022e-17
3.19982e-15
6.35904e-15
8.8198e-16
2.09858e-19
2.63298e-18
1.83739e-17
1.39911e-17
2.02484e-17
1.63698e-17
2.46351e-17
3.3419e-18
4.03423e-20
4.88376e-17
1.03903e-15
6.7264e-16
2.23996e-18
7.79965e-19
3.60429e-16
1.11379e-15
7.57625e-17
2.20304e-22
2.6054e-17
6.4138e-17
5.66759e-18
2.84809e-18
4.8987e-18
5.43943e-19
3.4423e-17
2.00197e-16
3.2535e-17
7.75716e-19
3.87255e-19
3.98076e-18
1.35841e-18
4.95375e-18
5.96449e-18
2.82781e-16
3.61867e-15
1.20458e-15
9.52263e-19
2.97128e-16
3.66305e-15
2.53062e-15
4.08776e-17
3.13264e-18
2.96467e-18
7.76623e-18
3.11754e-17
2.36507e-17
5.52458e-17
2.71415e-17
1.68684e-19
6.35625e-18
7.16576e-16
1.50848e-15
9.02106e-17
1.39843e-18
7.89024e-17
9.48423e-16
2.49468e-16
1.94518e-19
6.47723e-18
7.39772e-17
6.58299e-18
2.16158e-18
1.97864e-17
5.32686e-18
3.35099e-17
1.92287e-16
2.99018e-17
1.53883e-18
3.98416e-18
7.39069e-18
7.22948e-19
1.15093e-17
3.25883e-18
4.66532e-17
2.57882e-15
3.18012e-15
1.14467e-16
6.31928e-18
9.69266e-16
3.09137e-15
3.07038e-16
2.14495e-18
1.58186e-18
1.67478e-18
2.10936e-17
1.74744e-17
7.19544e-17
8.50236e-17
4.99528e-18
4.8317e-19
2.65588e-16
1.83192e-15
5.39445e-16
1.98345e-17
7.10188e-18
4.70062e-16
4.31143e-16
3.61505e-18
1.05497e-18
6.83788e-17
9.8134e-18
1.9081e-18
3.6518e-17
4.30489e-17
2.55776e-17
1.50221e-16
2.91712e-17
7.63542e-18
1.43378e-17
7.01165e-18
3.43949e-19
1.3961e-17
8.4086e-18
4.74372e-18
1.32015e-15
4.20326e-15
9.49487e-16
5.57419e-19
1.19161e-16
2.29345e-15
7.77917e-16
2.17389e-17
2.19066e-18
1.66539e-19
9.11357e-18
8.25115e-18
6.11607e-17
1.57354e-16
3.3556e-17
5.03213e-19
7.34614e-17
1.56176e-15
1.65567e-15
1.12785e-16
7.68163e-19
1.43286e-16
4.82442e-16
2.78677e-17
1.30841e-18
4.63623e-17
2.32185e-17
1.96164e-18
2.47282e-17
1.84763e-16
1.67596e-17
1.19228e-16
2.36882e-17
2.59551e-17
2.52043e-17
3.86656e-18
2.27946e-19
1.09824e-17
1.83048e-17
1.88499e-19
5.44635e-16
3.85173e-15
2.70362e-15
3.28374e-17
4.10454e-18
1.12895e-15
1.20778e-15
1.16843e-16
3.36987e-18
5.27348e-20
3.926e-18
5.25951e-18
4.25651e-17
2.47178e-16
8.98003e-17
4.1038e-18
4.70623e-17
8.61814e-16
3.29867e-15
1.37595e-16
1.36272e-17
5.69032e-17
2.63691e-16
2.23685e-16
4.90551e-18
1.30704e-17
9.58014e-17
3.64644e-18
2.89842e-18
7.57597e-16
1.77896e-17
1.23084e-16
2.51354e-17
3.88568e-17
4.70971e-17
1.02811e-18
1.67707e-18
2.88083e-18
4.53964e-17
8.05116e-19
1.77782e-16
3.73173e-15
3.49908e-15
5.23817e-16
1.884e-19
3.40334e-16
2.04754e-15
2.44215e-16
2.79534e-17
9.39598e-20
2.35919e-18
1.46696e-17
2.21163e-17
5.53396e-16
8.03258e-17
1.158e-16
7.02748e-17
3.6611e-16
6.40754e-15
2.74206e-16
1.58732e-15
1.28157e-15
7.16104e-16
5.88054e-15
2.16173e-16
2.21994e-17
2.96551e-15
2.14806e-16
5.71137e-17
9.86359e-15
2.55858e-17
1.80132e-15
4.20558e-16
1.89471e-16
8.46557e-16
1.07468e-16
3.01062e-16
1.40392e-16
1.63444e-15
4.82557e-17
1.29833e-16
1.71103e-14
1.40097e-15
1.44935e-14
8.09025e-17
1.45039e-16
1.6465e-14
4.39782e-16
2.0628e-15
4.41123e-17
1.72631e-16
7.23347e-16
1.8135e-16
7.21345e-15
1.10454e-16
6.35621e-15
4.31969e-16
1.86886e-15
3.51329e-14
2.57539e-13
4.19129e-13
3.22442e-13
2.02e-13
7.70757e-13
9.28474e-14
4.6703e-14
5.30718e-13
1.3639e-13
8.90889e-14
7.71803e-13
7.31466e-14
5.67983e-13
9.86135e-14
2.24402e-13
1.51335e-13
9.19198e-14
1.72694e-13
1.0241e-13
4.32529e-13
3.41535e-14
1.08954e-13
9.61642e-13
2.75551e-13
1.66851e-12
5.30519e-14
1.47844e-13
1.15443e-12
1.87803e-13
6.26384e-13
4.53075e-14
1.91546e-13
2.26516e-13
9.57351e-14
8.93204e-13
1.12471e-13
9.93933e-13
1.9068e-13
2.4518e-13
1.44884e-12
4.17125e-11
1.11397e-10
8.82339e-11
5.70709e-11
1.37926e-10
2.28372e-11
3.53579e-11
1.20873e-10
5.36549e-11
4.5863e-11
8.63572e-11
3.13054e-11
1.68417e-10
3.69604e-11
7.51125e-11
3.37809e-11
4.71019e-11
7.32411e-11
4.74534e-11
1.10216e-10
1.29363e-11
6.33126e-11
1.56982e-10
5.83447e-11
2.78085e-10
1.62043e-11
8.22673e-11
1.86498e-10
5.92962e-11
1.70349e-10
1.58128e-11
8.88908e-11
8.65402e-11
5.12621e-11
1.76685e-10
2.40736e-11
1.97077e-10
7.46639e-11
8.42053e-11
1.65125e-10
3.09215e-10
1.56001e-09
9.80228e-10
1.0671e-09
1.00523e-09
2.42934e-10
8.03467e-10
1.40733e-09
8.96051e-10
7.42649e-10
5.06837e-10
8.41176e-10
1.97894e-09
7.73789e-10
9.09321e-10
4.24528e-10
9.87941e-10
1.33368e-09
9.40276e-10
1.33447e-09
1.94673e-10
1.50728e-09
1.68133e-09
9.46476e-10
2.15845e-09
2.22905e-10
1.58174e-09
1.98246e-09
9.87431e-10
1.8249e-09
1.93448e-10
1.73005e-09
1.19943e-09
1.01512e-09
1.4431e-09
2.68333e-10
1.92559e-09
1.09597e-09
1.23421e-09
1.18926e-09
1.1667e-10
5.37861e-10
2.98835e-10
4.2703e-10
1.78908e-10
1.10624e-10
3.27114e-10
4.22518e-10
3.69319e-10
1.46949e-10
1.64444e-10
3.2527e-10
5.93708e-10
3.39386e-10
1.79992e-10
1.8544e-10
3.70752e-10
4.6009e-10
4.05807e-10
2.61244e-10
1.14929e-10
5.51734e-10
5.32304e-10
3.60598e-10
4.47778e-10
1.15373e-10
5.39643e-10
6.18885e-10
3.6736e-10
3.75728e-10
1.07492e-10
6.14283e-10
4.09306e-10
4.22952e-10
2.81809e-10
1.26304e-10
6.03369e-10
3.53856e-10
4.76435e-10
2.09269e-10
7.11524e-11
1.48666e-10
1.08161e-10
1.06285e-10
2.68171e-11
7.50031e-11
9.38647e-11
1.57208e-10
8.90156e-11
2.7209e-11
8.6192e-11
9.65712e-11
2.07e-10
9.11777e-11
3.39968e-11
9.62253e-11
1.0485e-10
1.84215e-10
1.02207e-10
4.85135e-11
7.69856e-11
1.55071e-10
1.98518e-10
8.89898e-11
8.36681e-11
7.64826e-11
1.43936e-10
2.28427e-10
7.85176e-11
7.37597e-11
7.0205e-11
1.64468e-10
1.54228e-10
1.08861e-10
4.62696e-11
7.9855e-11
1.57477e-10
1.28662e-10
1.17232e-10
3.37666e-11
3.14519e-11
5.16187e-11
2.84838e-11
1.54433e-11
1.73307e-11
3.54653e-11
3.32941e-11
4.51157e-11
1.33752e-11
1.92559e-11
4.00481e-11
3.31198e-11
5.86627e-11
1.54848e-11
1.98244e-11
4.28453e-11
3.62763e-11
5.29981e-11
1.46172e-11
2.53925e-11
3.4931e-11
5.4002e-11
5.39259e-11
1.30375e-11
3.06452e-11
3.55216e-11
4.85434e-11
5.9894e-11
9.40153e-12
3.21865e-11
2.97483e-11
5.37946e-11
4.08505e-11
1.55624e-11
2.18809e-11
3.56654e-11
5.31973e-11
3.26938e-11
1.66941e-11
2.04482e-11
1.08801e-11
1.4139e-11
7.10599e-12
8.77102e-12
1.16365e-11
1.35245e-11
9.12538e-12
9.87822e-12
9.49373e-12
1.2033e-11
1.70205e-11
8.42925e-12
1.24948e-11
9.04414e-12
1.19104e-11
1.7898e-11
8.90889e-12
1.13171e-11
7.4932e-12
1.55331e-11
1.29363e-11
1.41557e-11
1.07245e-11
7.37687e-12
1.71973e-11
1.23748e-11
1.21917e-11
1.12894e-11
6.90824e-12
1.79238e-11
1.09272e-11
1.36728e-11
8.48005e-12
8.29214e-12
1.35348e-11
1.23414e-11
1.4088e-11
8.68204e-12
8.04146e-12
1.35204e-11
3.26157e-12
4.70225e-12
4.45464e-12
4.92109e-12
4.38767e-12
4.4143e-12
3.35958e-12
5.00528e-12
5.41159e-12
4.57978e-12
5.49684e-12
3.09129e-12
5.51473e-12
4.57929e-12
4.43791e-12
5.37537e-12
3.12944e-12
5.45737e-12
3.68766e-12
6.19043e-12
3.46011e-12
4.29644e-12
5.36469e-12
3.65491e-12
6.70535e-12
3.48748e-12
3.81059e-12
5.57161e-12
3.85264e-12
6.83856e-12
3.44289e-12
4.3262e-12
4.99135e-12
4.38444e-12
5.28442e-12
3.63078e-12
4.40851e-12
5.83445e-12
4.37934e-12
5.46733e-12
1.59708e-12
2.25897e-12
1.89586e-12
1.92111e-12
1.65263e-12
2.18312e-12
1.5761e-12
2.27537e-12
2.06749e-12
1.7399e-12
2.29528e-12
1.6587e-12
2.334e-12
1.68457e-12
1.83675e-12
1.88013e-12
2.08996e-12
2.11472e-12
1.49549e-12
2.49203e-12
1.29778e-12
2.27093e-12
2.04225e-12
1.63814e-12
2.5241e-12
1.62091e-12
2.10068e-12
2.20926e-12
1.74046e-12
2.47608e-12
1.74544e-12
2.24914e-12
2.04323e-12
1.79143e-12
2.15864e-12
1.67984e-12
2.21409e-12
2.34747e-12
1.78784e-12
2.23821e-12
8.00915e-13
8.83899e-13
8.98472e-13
7.79004e-13
7.54822e-13
1.04736e-12
6.25499e-13
9.61977e-13
8.82913e-13
7.77364e-13
1.00687e-12
7.8726e-13
8.70681e-13
9.07735e-13
7.94298e-13
7.96491e-13
1.16942e-12
6.96514e-13
9.77187e-13
9.16847e-13
7.8247e-13
1.05305e-12
6.76605e-13
1.12371e-12
9.0621e-13
1.0402e-12
8.91488e-13
8.10668e-13
1.12094e-12
9.02666e-13
1.03761e-12
9.05596e-13
8.26777e-13
8.88937e-13
8.80353e-13
8.64291e-13
8.97032e-13
9.84462e-13
7.88999e-13
9.68938e-13
3.96481e-13
3.52205e-13
4.84135e-13
3.22746e-13
3.47055e-13
4.3117e-13
3.17279e-13
4.06107e-13
4.12972e-13
3.39681e-13
4.02604e-13
4.48654e-13
3.48624e-13
4.67362e-13
3.46359e-13
3.72588e-13
5.16848e-13
3.32503e-13
5.1901e-13
3.10057e-13
5.38084e-13
3.50553e-13
3.88655e-13
5.57515e-13
3.14939e-13
6.97372e-13
3.03363e-13
4.18138e-13
5.27259e-13
3.42924e-13
5.62006e-13
3.26766e-13
4.53446e-13
3.56227e-13
3.77073e-13
4.17509e-13
3.36103e-13
5.49315e-13
3.10677e-13
4.22357e-13
1.93794e-13
1.36917e-13
2.78268e-13
1.3978e-13
1.53932e-13
2.12814e-13
1.4945e-13
1.55959e-13
2.47558e-13
1.36557e-13
1.70753e-13
2.65146e-13
1.30412e-13
2.52455e-13
1.72744e-13
1.50758e-13
2.71195e-13
1.51036e-13
2.19787e-13
1.54385e-13
2.57203e-13
1.30461e-13
2.21933e-13
2.17791e-13
1.38772e-13
3.58152e-13
1.18721e-13
2.00144e-13
2.34226e-13
1.49664e-13
2.52592e-13
1.39965e-13
2.12657e-13
1.38184e-13
1.99378e-13
1.71145e-13
1.34763e-13
2.99428e-13
1.15078e-13
2.17394e-13
8.71385e-14
5.39664e-14
1.57968e-13
5.57072e-14
7.62264e-14
1.03578e-13
6.8019e-14
6.85179e-14
1.29241e-13
5.5609e-14
8.40322e-14
1.36727e-13
4.87061e-14
1.42877e-13
7.52696e-14
6.34086e-14
1.46178e-13
5.79796e-14
1.15012e-13
6.63194e-14
1.24865e-13
5.73829e-14
1.03085e-13
1.0291e-13
5.4468e-14
1.83764e-13
4.96579e-14
8.75155e-14
1.22098e-13
5.66124e-14
1.26703e-13
6.39979e-14
8.98245e-14
6.48635e-14
9.49874e-14
7.22991e-14
6.15257e-14
1.46428e-13
4.33041e-14
1.18012e-13
4.21208e-14
2.2403e-14
8.02529e-14
2.41124e-14
3.74437e-14
4.85316e-14
3.50401e-14
2.83717e-14
6.93301e-14
2.42889e-14
3.74903e-14
7.61299e-14
1.8105e-14
7.40448e-14
3.57654e-14
2.65706e-14
7.40903e-14
2.36847e-14
5.63893e-14
2.73915e-14
6.49643e-14
2.25886e-14
5.14889e-14
4.78444e-14
2.04585e-14
9.54549e-14
1.90744e-14
4.16833e-14
6.08863e-14
2.05785e-14
6.91858e-14
2.6451e-14
4.15184e-14
3.27209e-14
4.07948e-14
3.60066e-14
2.78772e-14
6.95783e-14
1.78827e-14
5.80593e-14
2.37861e-14
8.61634e-15
4.11556e-14
1.13282e-14
1.68106e-14
2.42133e-14
1.78819e-14
1.12542e-14
3.85968e-14
1.02896e-14
1.6259e-14
4.27981e-14
6.28825e-15
3.85013e-14
1.70272e-14
1.06649e-14
3.87124e-14
9.38749e-15
2.82047e-14
1.12782e-14
3.23436e-14
9.3499e-15
2.3561e-14
2.42953e-14
7.60662e-15
4.6927e-14
8.24574e-15
1.79528e-14
3.23249e-14
7.56431e-15
3.56696e-14
1.12975e-14
2.00177e-14
1.58408e-14
1.78447e-14
1.96925e-14
1.11088e-14
3.68961e-14
7.62698e-15
2.60559e-14
1.39671e-14
2.85854e-15
2.219e-14
5.24632e-15
7.02817e-15
1.2542e-14
8.73833e-15
4.18613e-15
2.13192e-14
4.27536e-15
6.5176e-15
2.45364e-14
1.92274e-15
1.91785e-14
8.4996e-15
3.89151e-15
2.00273e-14
3.68083e-15
1.3715e-14
4.41184e-15
1.66221e-14
3.69177e-15
1.02185e-14
1.36035e-14
2.37057e-15
2.49356e-14
3.55691e-15
6.94928e-15
1.89073e-14
2.42154e-15
1.88112e-14
4.90071e-15
9.34506e-15
7.69013e-15
7.8916e-15
1.07015e-14
4.06202e-15
2.08776e-14
2.98323e-15
1.17282e-14
7.89265e-15
7.70604e-16
1.18144e-14
2.25088e-15
2.70973e-15
6.32013e-15
4.00362e-15
1.40098e-15
1.13169e-14
1.66499e-15
2.3369e-15
1.4025e-14
4.36536e-16
9.36018e-15
4.19348e-15
1.18488e-15
1.04918e-14
1.30329e-15
6.37357e-15
1.64239e-15
8.23011e-15
1.35434e-15
4.21803e-15
7.60432e-15
5.67399e-16
1.36059e-14
1.37486e-15
2.51147e-15
1.09108e-14
6.21237e-16
9.9085e-15
2.02651e-15
4.16713e-15
3.65864e-15
3.33478e-15
5.61262e-15
1.32417e-15
1.16328e-14
1.03443e-15
5.10241e-15
4.20679e-15
1.24972e-16
5.88737e-15
8.65715e-16
8.71212e-16
2.96961e-15
1.66559e-15
3.6479e-16
5.62116e-15
5.76148e-16
6.57965e-16
7.7885e-15
5.9709e-17
4.27601e-15
1.96728e-15
2.52963e-16
5.28745e-15
3.69624e-16
2.77535e-15
5.18444e-16
3.81491e-15
4.39471e-16
1.53081e-15
4.12409e-15
7.82963e-17
7.1886e-15
4.66833e-16
7.60209e-16
6.04046e-15
1.00054e-16
4.8822e-15
7.58442e-16
1.65444e-15
1.61582e-15
1.23699e-15
2.73873e-15
3.36021e-16
6.09299e-15
2.83636e-16
1.98169e-15
1.98599e-15
6.49717e-18
2.60858e-15
2.58307e-16
1.883e-16
1.2221e-15
5.54841e-16
5.13194e-17
2.48016e-15
1.42124e-16
1.10008e-16
4.02902e-15
8.63814e-18
1.74577e-15
7.95656e-16
1.95964e-17
2.41568e-15
5.85115e-17
1.05219e-15
1.09465e-16
1.55009e-15
9.64234e-17
4.27614e-16
2.03555e-15
9.34885e-18
3.49388e-15
1.06774e-16
1.55283e-16
3.03146e-15
6.41589e-18
2.1317e-15
2.13473e-16
5.18131e-16
5.97898e-16
3.35301e-16
1.17023e-15
3.97486e-17
2.86294e-15
4.04591e-17
6.21503e-16
7.90191e-16
6.3243e-18
7.71074e-16
6.41832e-17
8.14347e-18
3.64944e-16
1.34014e-16
4.25132e-19
8.02628e-16
2.5503e-17
1.38466e-18
1.7323e-15
2.07724e-17
4.06631e-16
2.96763e-16
1.2505e-18
8.28431e-16
2.82531e-18
2.45133e-16
9.95531e-18
4.22385e-16
1.11823e-17
4.32849e-17
8.55812e-16
2.86295e-17
1.18018e-15
1.90652e-17
3.73527e-18
1.25802e-15
6.67241e-18
5.88973e-16
4.58851e-17
7.06722e-17
1.63521e-16
3.90047e-17
3.72808e-16
2.1928e-19
9.66356e-16
1.72114e-18
7.85382e-17
2.58693e-16
4.5545e-17
1.08498e-16
1.43264e-17
2.79991e-18
6.70153e-17
1.73248e-17
9.84071e-18
1.69034e-16
2.60983e-18
1.68232e-17
5.89787e-16
5.29244e-17
2.2002e-17
1.06609e-16
3.65865e-17
1.81749e-16
3.55279e-21
1.50777e-17
1.50958e-20
5.15039e-17
2.91999e-19
4.43781e-20
2.89386e-16
9.29822e-17
2.14639e-16
4.64102e-18
1.30166e-17
4.24017e-16
3.29212e-17
6.07336e-17
7.1638e-18
8.58333e-20
2.54928e-17
5.02543e-20
7.01893e-17
8.31891e-18
1.94657e-16
5.15095e-20
7.41128e-21
6.00571e-16
3.0897e-16
3.73882e-16
7.61649e-17
7.82165e-17
4.47833e-16
4.26359e-15
5.65385e-15
5.95998e-16
2.20106e-18
6.56994e-17
1.3656e-15
2.05756e-15
7.20283e-16
1.66996e-17
3.52452e-17
9.43e-18
2.03757e-18
1.16563e-16
3.51563e-16
6.38159e-17
1.23726e-15
1.3453e-14
6.18431e-15
5.15761e-18
1.92011e-17
1.75265e-15
1.26477e-15
5.84562e-17
9.83474e-19
5.01567e-20
1.67709e-18
7.02246e-18
2.76583e-18
8.04946e-17
1.77152e-16
2.95945e-17
7.59759e-19
2.24251e-16
1.68639e-15
8.78156e-16
6.87928e-17
8.38928e-18
7.53375e-18
1.35627e-16
5.91533e-16
1.3978e-15
3.04109e-16
1.57154e-17
1.49846e-17
7.51418e-16
1.01262e-15
1.41481e-16
4.18111e-16
3.22531e-17
1.16017e-17
5.93947e-18
8.18121e-20
3.22293e-17
9.53038e-16
2.06496e-16
6.16071e-17
4.78808e-15
2.23404e-14
4.59824e-15
5.60759e-19
1.00995e-17
4.57333e-16
2.06588e-16
1.15296e-17
9.18152e-19
3.31516e-18
5.05144e-18
4.2945e-20
4.82772e-18
2.08873e-16
4.34207e-16
1.94222e-17
3.31743e-17
5.49136e-16
5.07923e-16
6.82454e-16
3.89149e-17
4.12452e-18
5.0378e-17
9.6847e-17
6.81894e-17
3.67868e-18
1.38021e-18
8.15672e-17
2.96902e-16
4.28252e-17
1.0813e-20
1.21305e-17
2.92818e-17
5.54297e-18
1.11918e-18
1.75454e-18
4.07323e-18
6.40923e-16
2.00956e-15
5.24868e-17
9.97419e-17
7.9146e-15
1.62578e-14
1.15953e-15
1.00546e-18
6.04357e-18
7.08031e-17
4.32955e-17
7.19143e-18
2.11341e-18
5.59074e-18
9.28496e-19
2.54556e-21
3.17326e-17
5.10193e-16
2.86007e-16
4.7412e-18
2.51994e-17
1.1693e-16
1.14405e-15
2.77368e-16
4.7816e-19
2.94572e-18
1.94683e-17
1.53842e-17
3.53026e-18
7.09959e-18
8.07472e-17
3.20469e-17
4.55229e-17
2.8356e-17
5.28827e-17
2.5909e-17
4.71685e-19
5.46834e-20
2.37533e-18
6.46144e-20
1.73098e-16
2.54437e-15
1.35386e-15
1.08365e-18
4.61779e-16
1.07004e-14
5.8512e-15
1.80398e-16
1.88928e-19
4.52333e-18
3.59283e-17
1.60611e-17
1.10937e-17
1.39241e-17
1.00122e-17
3.14667e-20
4.81897e-19
2.22278e-16
8.02894e-16
9.23449e-17
1.30401e-19
5.08363e-18
9.10852e-16
8.15109e-16
1.18718e-17
4.70683e-20
2.24537e-17
2.59583e-17
8.55142e-18
5.86008e-18
1.62918e-17
1.70375e-18
7.90687e-17
1.9453e-16
7.57614e-17
8.50602e-18
2.15953e-19
2.8004e-19
2.16794e-18
8.04235e-19
4.13497e-17
1.46368e-15
4.49484e-15
1.72246e-16
3.97244e-18
2.35465e-15
7.09212e-15
1.62631e-15
2.76647e-18
3.63993e-18
1.01456e-17
1.2421e-17
3.27206e-17
2.79571e-17
3.79269e-17
3.12835e-18
2.61515e-20
7.1838e-17
1.22125e-15
7.18837e-16
1.36616e-18
1.7246e-18
3.81303e-16
1.20527e-15
9.25939e-17
6.22171e-22
1.15973e-17
3.62894e-17
9.50143e-18
1.68548e-18
2.89177e-18
5.06325e-19
6.14839e-17
3.84343e-16
4.6229e-17
2.34003e-18
2.30802e-19
3.71044e-18
2.5889e-18
6.97066e-18
7.164e-18
4.18975e-16
6.03271e-15
1.79567e-15
2.49808e-18
1.21919e-16
3.13414e-15
3.50765e-15
9.16824e-17
4.46759e-18
5.14462e-18
3.75842e-18
3.70125e-17
3.00824e-17
7.94395e-17
2.91117e-17
1.51536e-19
1.15754e-17
8.77393e-16
1.7558e-15
7.31862e-17
3.6918e-18
7.7145e-17
9.59846e-16
2.60926e-16
4.25453e-19
2.77533e-18
4.49809e-17
8.93025e-18
1.08837e-18
1.63943e-17
3.29503e-18
5.24354e-17
3.59069e-16
4.02551e-17
4.24867e-18
3.75459e-18
7.72436e-18
1.92253e-18
1.60996e-17
2.50251e-18
5.55409e-17
4.07378e-15
4.10755e-15
2.55267e-16
3.54906e-19
5.98242e-16
3.70076e-15
3.92796e-16
4.79905e-18
8.41151e-18
3.93001e-19
2.11495e-17
1.45714e-17
9.59591e-17
9.03561e-17
6.68604e-18
1.50971e-18
2.99785e-16
2.26614e-15
4.86237e-16
4.84985e-17
5.25636e-18
4.56073e-16
4.28203e-16
2.89151e-18
1.75129e-18
4.90858e-17
9.54433e-18
7.91525e-19
4.5537e-17
2.56214e-17
2.78624e-17
2.69238e-16
3.03624e-17
1.87865e-17
2.03639e-17
6.79603e-18
1.30989e-18
1.81135e-17
8.83593e-18
6.02997e-18
2.01128e-15
4.41282e-15
1.82988e-15
2.39669e-19
3.84415e-17
2.71339e-15
6.68616e-16
4.46372e-17
1.09401e-17
2.54183e-19
9.33628e-18
2.74584e-18
8.29538e-17
1.4066e-16
5.5802e-17
2.58259e-18
4.32988e-17
2.27788e-15
1.40115e-15
4.04014e-16
2.80052e-18
1.34387e-16
5.2466e-16
9.29825e-18
5.28208e-18
4.83141e-17
1.16748e-17
7.00226e-19
6.47747e-17
9.55988e-17
9.45533e-18
2.15173e-16
7.37158e-18
6.78153e-17
5.23557e-17
2.2255e-18
1.14175e-18
1.10195e-17
1.9919e-17
2.34126e-18
8.90998e-16
2.69937e-15
5.25069e-15
1.21974e-17
1.27729e-19
1.56822e-15
5.70709e-16
2.37723e-16
1.26159e-17
1.00013e-18
5.02857e-18
1.3907e-19
7.09033e-17
1.45446e-16
2.14772e-16
9.33547e-18
3.06801e-18
1.86374e-15
2.23769e-15
1.32325e-15
3.77877e-17
2.87766e-17
4.62186e-16
3.0655e-17
2.18281e-17
2.78475e-17
1.08953e-17
3.69447e-18
7.43438e-17
2.70854e-16
6.94882e-17
2.25625e-16
4.64104e-19
1.49176e-16
1.5815e-16
4.16203e-19
6.51747e-18
8.72472e-19
1.91761e-17
2.62175e-18
4.08768e-16
8.97756e-16
8.93538e-15
1.00574e-16
3.37848e-18
7.65804e-16
2.28966e-16
6.98553e-16
2.14249e-17
2.28391e-18
3.49721e-18
7.33424e-18
5.57608e-17
1.11081e-16
4.6909e-16
4.53533e-17
1.73313e-17
1.58378e-15
2.5227e-15
7.65856e-16
6.99335e-16
7.57839e-17
8.08669e-16
1.83429e-16
2.29549e-16
4.62046e-18
1.32643e-16
3.15463e-16
9.66397e-17
1.71421e-15
1.29119e-16
9.61573e-16
6.01431e-16
1.93855e-16
1.3701e-15
3.68637e-17
2.46678e-16
3.38733e-16
6.04893e-17
8.88767e-17
2.93494e-16
2.81014e-16
6.70892e-15
7.51555e-16
1.82808e-16
1.84549e-16
7.25892e-16
7.90259e-16
2.70829e-16
1.22298e-16
3.76894e-17
5.81844e-16
1.92911e-16
3.6613e-16
1.09511e-16
6.71707e-16
2.905e-16
3.90455e-15
3.88873e-15
6.96703e-14
6.63086e-14
2.9062e-14
1.31769e-13
2.309e-14
6.71757e-14
3.81913e-14
3.25892e-14
1.00195e-13
2.11556e-14
1.076e-13
4.08249e-14
5.95815e-14
1.11914e-13
3.73995e-14
8.24463e-14
3.13047e-14
3.48097e-14
1.07042e-13
1.45148e-14
7.23869e-14
3.90737e-14
3.13026e-14
7.71451e-14
4.26039e-14
9.08513e-14
3.79122e-14
1.01236e-13
4.74965e-14
4.08181e-14
7.53586e-14
2.07954e-14
7.74471e-14
4.72089e-14
4.11525e-14
6.89027e-14
7.04408e-14
4.49406e-14
1.68382e-13
5.40786e-14
3.46165e-11
1.45426e-11
1.0244e-11
1.75757e-11
1.08655e-11
2.229e-11
1.59714e-11
7.93069e-12
1.9825e-11
9.29384e-12
2.12231e-11
2.52818e-11
9.83812e-12
1.65743e-11
1.40209e-11
1.5362e-11
1.51958e-11
7.60859e-12
1.71068e-11
8.4674e-12
2.55315e-11
1.26851e-11
8.69764e-12
2.20985e-11
1.11511e-11
3.0233e-11
1.42291e-11
1.45905e-11
1.53402e-11
1.37545e-11
2.58399e-11
9.43591e-12
1.32734e-11
9.14689e-12
1.50936e-11
3.22603e-11
1.63925e-11
1.4387e-11
1.52567e-11
1.4777e-11
4.09133e-09
2.02263e-09
1.14916e-09
1.30202e-09
2.08278e-09
3.15589e-09
2.45025e-09
8.72167e-10
1.94831e-09
1.81495e-09
2.77794e-09
3.7326e-09
8.89891e-10
1.38265e-09
2.29086e-09
2.08086e-09
2.53835e-09
7.47923e-10
1.52554e-09
1.93293e-09
3.53682e-09
2.03541e-09
8.86986e-10
1.65526e-09
1.93822e-09
3.99549e-09
2.2075e-09
1.12404e-09
1.57788e-09
2.41936e-09
3.45295e-09
1.81287e-09
1.12565e-09
9.40047e-10
2.73002e-09
4.11117e-09
2.25488e-09
1.49817e-09
1.08034e-09
2.59923e-09
2.47729e-09
1.46416e-09
4.37219e-10
1.0819e-09
1.80336e-09
2.61734e-09
1.63012e-09
3.9066e-10
1.60081e-09
1.81252e-09
2.23039e-09
2.56146e-09
3.41328e-10
1.17075e-09
1.97476e-09
1.9112e-09
1.74089e-09
3.18673e-10
1.29982e-09
2.06423e-09
2.67685e-09
1.66984e-09
3.53237e-10
1.23591e-09
1.78662e-09
3.12323e-09
1.58482e-09
4.50069e-10
1.34257e-09
2.22435e-09
2.36572e-09
1.56247e-09
4.07343e-10
9.49638e-10
2.32749e-09
2.77341e-09
1.48979e-09
5.79437e-10
8.76937e-10
2.31257e-09
6.00501e-10
2.79556e-10
1.15842e-10
4.98373e-10
5.9924e-10
7.44987e-10
2.97755e-10
1.05441e-10
7.08166e-10
5.4416e-10
6.91398e-10
3.69212e-10
7.91148e-11
5.56773e-10
5.79306e-10
5.83442e-10
2.85375e-10
8.89377e-11
5.73283e-10
5.87554e-10
6.88192e-10
2.75376e-10
9.50865e-11
5.03116e-10
5.40077e-10
7.18083e-10
2.59895e-10
1.27064e-10
5.37414e-10
5.88166e-10
5.93011e-10
2.8147e-10
1.05102e-10
4.54569e-10
6.65933e-10
6.28572e-10
2.82046e-10
1.37377e-10
4.12035e-10
6.92615e-10
9.45013e-11
3.25088e-11
8.94641e-11
1.64485e-10
1.57766e-10
1.22501e-10
3.09395e-11
7.8052e-11
2.18722e-10
1.31267e-10
1.1966e-10
2.81836e-11
5.73772e-11
1.90893e-10
1.3406e-10
9.60507e-11
2.6979e-11
7.33382e-11
1.65242e-10
1.33538e-10
1.00279e-10
2.29249e-11
7.70518e-11
1.48765e-10
1.27642e-10
9.62719e-11
2.35995e-11
9.23547e-11
1.47537e-10
1.37772e-10
9.11204e-11
2.62263e-11
7.99387e-11
1.42445e-10
1.48726e-10
9.00807e-11
3.33646e-11
9.44719e-11
1.30808e-10
1.65323e-10
1.07964e-11
1.73873e-11
4.22164e-11
3.08633e-11
2.51917e-11
1.42858e-11
1.55697e-11
3.39824e-11
3.66923e-11
2.07455e-11
1.51585e-11
1.26117e-11
2.91484e-11
3.16775e-11
2.04148e-11
1.13909e-11
1.48233e-11
3.12426e-11
2.50754e-11
2.16321e-11
9.37532e-12
1.21371e-11
3.50948e-11
2.33488e-11
2.39586e-11
9.99724e-12
1.26594e-11
3.6983e-11
2.41841e-11
2.62862e-11
9.58504e-12
1.414e-11
3.51512e-11
2.5501e-11
2.40447e-11
9.44696e-12
1.77028e-11
4.16333e-11
2.62918e-11
2.60682e-11
4.56071e-12
7.40723e-12
7.5277e-12
5.03449e-12
5.23005e-12
5.33363e-12
5.75441e-12
7.26755e-12
4.46948e-12
4.96175e-12
5.73868e-12
5.09706e-12
6.98537e-12
4.09512e-12
4.50093e-12
4.93128e-12
6.08742e-12
5.57532e-12
4.94297e-12
4.76042e-12
4.12948e-12
5.84086e-12
6.59942e-12
4.53635e-12
6.37023e-12
4.39916e-12
5.82617e-12
7.11098e-12
4.26214e-12
6.67666e-12
4.33064e-12
6.69091e-12
6.47857e-12
5.24469e-12
5.57572e-12
4.24584e-12
7.76528e-12
7.17434e-12
6.34013e-12
5.60372e-12
1.44248e-12
2.09727e-12
1.64516e-12
1.52343e-12
2.022e-12
1.5426e-12
1.46508e-12
2.43682e-12
1.2259e-12
2.01815e-12
1.94917e-12
1.24686e-12
2.46888e-12
1.59805e-12
1.50427e-12
2.47923e-12
1.54264e-12
2.07929e-12
2.12814e-12
1.63547e-12
1.95951e-12
1.69479e-12
2.22506e-12
1.68386e-12
2.2876e-12
1.67167e-12
1.67967e-12
2.67762e-12
1.39573e-12
2.47527e-12
1.57331e-12
1.93097e-12
1.86505e-12
1.8699e-12
1.97721e-12
1.53261e-12
2.24789e-12
1.46618e-12
2.19636e-12
1.96664e-12
5.17838e-13
1.04965e-12
6.02796e-13
6.5329e-13
9.10373e-13
5.75156e-13
8.31478e-13
9.31802e-13
5.72213e-13
8.51139e-13
9.7235e-13
5.09171e-13
1.28086e-12
6.73797e-13
5.67215e-13
1.72206e-12
4.46267e-13
1.65727e-12
5.76801e-13
8.36346e-13
1.02504e-12
5.44299e-13
1.53893e-12
4.28719e-13
1.32345e-12
6.75282e-13
5.98082e-13
1.61261e-12
4.12406e-13
1.41166e-12
5.70155e-13
7.70083e-13
9.28714e-13
5.87486e-13
8.91008e-13
5.9612e-13
9.32815e-13
6.02542e-13
7.56479e-13
7.90974e-13
2.12221e-13
7.18514e-13
2.76825e-13
3.93893e-13
4.96462e-13
3.55363e-13
4.03764e-13
5.1471e-13
3.50952e-13
3.67073e-13
7.14945e-13
2.10307e-13
7.85302e-13
3.27417e-13
3.29014e-13
8.52158e-13
1.93563e-13
1.05629e-12
1.77545e-13
7.68802e-13
2.99662e-13
3.53318e-13
8.11348e-13
1.31145e-13
1.13356e-12
1.94646e-13
3.80258e-13
7.92981e-13
1.38295e-13
1.07314e-12
1.88357e-13
5.19121e-13
4.08659e-13
2.72046e-13
5.92166e-13
2.31137e-13
6.44289e-13
2.62254e-13
3.95502e-13
5.68455e-13
9.54103e-14
5.59074e-13
1.36149e-13
2.54725e-13
2.98273e-13
2.14637e-13
1.91308e-13
3.89819e-13
1.74616e-13
2.05342e-13
4.71083e-13
8.15697e-14
5.52039e-13
1.61181e-13
1.98832e-13
4.25008e-13
1.02664e-13
5.65625e-13
9.15925e-14
5.53034e-13
1.03372e-13
2.91667e-13
3.70834e-13
7.19776e-14
7.20879e-13
7.96822e-14
2.89985e-13
3.90877e-13
7.44906e-14
6.28419e-13
8.91521e-14
3.7872e-13
1.92013e-13
2.08148e-13
3.25085e-13
1.16137e-13
5.0034e-13
1.17146e-13
2.91929e-13
3.51847e-13
5.17236e-14
3.97158e-13
6.35242e-14
1.714e-13
1.85361e-13
1.27459e-13
1.03695e-13
2.78395e-13
7.90211e-14
1.41259e-13
2.95804e-13
3.56183e-14
3.5088e-13
9.36982e-14
1.17222e-13
2.34961e-13
7.23044e-14
2.66441e-13
5.64597e-14
3.64852e-13
4.4054e-14
2.47301e-13
1.79043e-13
4.32406e-14
4.72239e-13
4.0333e-14
2.00174e-13
2.3344e-13
4.27441e-14
3.7559e-13
5.80471e-14
2.30036e-13
1.1071e-13
1.5829e-13
1.69067e-13
8.09743e-14
3.2707e-13
5.30607e-14
2.34686e-13
1.90515e-13
3.43135e-14
2.44718e-13
3.21571e-14
1.13498e-13
1.11425e-13
7.12645e-14
6.35556e-14
1.85892e-13
3.37772e-14
1.05169e-13
1.71974e-13
1.66088e-14
2.38848e-13
5.39571e-14
6.20498e-14
1.6385e-13
4.28297e-14
1.36648e-13
4.86667e-14
1.83193e-13
2.60117e-14
1.83753e-13
8.11136e-14
3.56722e-14
2.70576e-13
2.15889e-14
1.39628e-13
1.34113e-13
2.60578e-14
2.31877e-13
3.60162e-14
1.34342e-13
7.31658e-14
9.90468e-14
9.3789e-14
5.95519e-14
1.8315e-13
3.0011e-14
1.6307e-13
9.74109e-14
2.09182e-14
1.41301e-13
1.74718e-14
6.89496e-14
6.4605e-14
3.94057e-14
3.9822e-14
1.0777e-13
1.68685e-14
7.22113e-14
9.01897e-14
9.66868e-15
1.50946e-13
2.7977e-14
3.74534e-14
1.06335e-13
2.10342e-14
8.63351e-14
3.14953e-14
9.51985e-14
1.90753e-14
1.02306e-13
4.68477e-14
2.43587e-14
1.48145e-13
1.37322e-14
8.11112e-14
8.10112e-14
1.47808e-14
1.39331e-13
2.13017e-14
7.68747e-14
4.6258e-14
5.56202e-14
5.60045e-14
3.64475e-14
1.03207e-13
1.78707e-14
9.58653e-14
5.46037e-14
1.07647e-14
8.0585e-14
8.97754e-15
3.82434e-14
3.64753e-14
2.10217e-14
2.24353e-14
6.03039e-14
8.80568e-15
4.15768e-14
4.96988e-14
5.17929e-15
8.655e-14
1.51823e-14
2.06777e-14
6.25464e-14
1.05335e-14
5.13743e-14
1.70794e-14
5.32063e-14
1.10579e-14
5.51104e-14
2.79832e-14
1.25405e-14
8.58506e-14
7.26972e-15
4.43646e-14
4.80585e-14
6.99455e-15
8.28635e-14
1.09786e-14
4.26172e-14
2.66892e-14
2.92658e-14
3.23399e-14
1.9265e-14
5.83788e-14
9.35714e-15
5.30113e-14
3.05162e-14
4.5785e-15
4.43212e-14
4.04075e-15
1.91842e-14
1.95565e-14
1.00682e-14
1.12828e-14
3.23501e-14
4.00879e-15
2.13556e-14
2.71711e-14
2.08837e-15
4.77189e-14
7.52253e-15
9.76703e-15
3.49902e-14
4.63084e-15
2.76563e-14
8.35451e-15
2.79089e-14
5.34318e-15
2.82686e-14
1.51167e-14
5.37355e-15
4.82276e-14
3.11857e-15
2.26216e-14
2.62099e-14
2.82659e-15
4.59567e-14
4.94819e-15
2.18255e-14
1.3755e-14
1.41734e-14
1.70274e-14
8.89155e-15
3.16541e-14
4.05799e-15
2.74835e-14
1.6015e-14
1.45763e-15
2.27557e-14
1.39644e-15
8.32741e-15
9.47915e-15
3.99068e-15
4.80472e-15
1.58534e-14
1.41271e-15
9.46649e-15
1.38015e-14
5.02972e-16
2.45634e-14
3.05733e-15
3.75333e-15
1.78541e-14
1.56892e-15
1.31418e-14
3.41115e-15
1.30708e-14
2.0447e-15
1.28933e-14
7.21776e-15
1.71486e-15
2.53729e-14
9.4534e-16
1.01291e-14
1.29605e-14
7.69368e-16
2.32497e-14
1.79371e-15
9.65068e-15
6.21437e-15
5.85119e-15
7.88303e-15
3.35923e-15
1.56997e-14
1.33179e-15
1.29023e-14
7.43112e-15
2.47593e-16
1.01971e-14
2.66183e-16
2.85439e-15
3.79302e-15
1.09897e-15
1.5511e-15
6.53724e-15
2.86654e-16
3.29345e-15
6.02769e-15
2.59583e-17
1.11473e-14
8.1617e-16
1.01391e-15
7.7907e-15
2.95645e-16
5.17461e-15
9.81999e-16
5.03889e-15
5.04894e-16
4.77146e-15
2.7825e-15
2.80331e-16
1.18805e-14