/*--------------------------------*- C++ -*----------------------------------*\
  =========                 |
  \\      /  F ield         | OpenFOAM: The Open Source CFD Toolbox
   \\    /   O peration     | Website:  https://openfoam.org
    \\  /    A nd           | Version:  10
     \\/     M anipulation  |
\*---------------------------------------------------------------------------*/
FoamFile
{
    format      ascii;
    class       volVectorField;
    location    "47.5";
    object      UMean;
}
// * * * * * * * * * * * * * * * * * * * * * * * * * * * * * * * * * * * * * //

dimensions      [0 1 -1 0 0 0 0];

internalField   nonuniform List<vector> 
25600
(
(1.03831 1.06942e-06 5.38847e-07)
(1.03831 7.79031e-07 1.49827e-07)
(1.03831 1.33249e-06 5.80044e-07)
(1.03831 7.63419e-07 1.37642e-07)
(1.03831 1.24709e-06 5.37815e-07)
(1.03831 1.11714e-06 2.45329e-07)
(1.03831 1.01954e-06 3.78481e-07)
(1.03831 1.34345e-06 4.31795e-07)
(1.03831 1.0825e-06 2.02947e-07)
(1.03831 1.28048e-06 5.55095e-07)
(1.03831 1.24789e-06 1.45714e-07)
(1.03831 1.24846e-06 5.47283e-07)
(1.03831 1.27076e-06 1.72946e-07)
(1.03831 1.27663e-06 5.03871e-07)
(1.03831 1.2775e-06 2.17618e-07)
(1.03831 1.23961e-06 4.49151e-07)
(1.03831 1.25578e-06 2.97192e-07)
(1.03831 1.25663e-06 3.58508e-07)
(1.03831 1.1488e-06 4.15101e-07)
(1.03831 1.21714e-06 2.59057e-07)
(1.03831 1.21471e-06 5.14922e-07)
(1.03831 9.48147e-07 2.10733e-07)
(1.03831 1.33615e-06 5.37714e-07)
(1.03831 9.01417e-07 2.41164e-07)
(1.03831 1.04692e-06 5.01337e-07)
(1.03831 1.21566e-06 3.27795e-07)
(1.03831 6.80963e-07 4.16223e-07)
(1.03831 1.32183e-06 4.36155e-07)
(1.03831 6.79243e-07 3.29323e-07)
(1.03831 1.12742e-06 5.08358e-07)
(1.03831 8.53794e-07 3.18046e-07)
(1.03831 9.24845e-07 5.03526e-07)
(1.03831 9.76332e-07 3.51977e-07)
(1.03831 8.27006e-07 4.8892e-07)
(1.03831 1.01703e-06 3.49024e-07)
(1.03831 8.37147e-07 4.77616e-07)
(1.03831 9.62903e-07 3.51392e-07)
(1.03831 9.50464e-07 3.8594e-07)
(1.03831 9.00098e-07 4.40025e-07)
(1.03831 9.7413e-07 2.35572e-07)
(1.03831 1.1718e-06 5.56437e-07)
(1.03831 1.10189e-06 2.87945e-07)
(1.03831 1.24854e-06 6.18737e-07)
(1.03831 1.12978e-06 2.6802e-07)
(1.03831 1.2287e-06 6.27512e-07)
(1.03831 1.32148e-06 3.2779e-07)
(1.03831 1.19315e-06 5.52632e-07)
(1.03831 1.34218e-06 4.40496e-07)
(1.03831 1.43586e-06 4.4025e-07)
(1.03831 1.17093e-06 5.42628e-07)
(1.03831 1.60455e-06 3.6622e-07)
(1.03831 1.28141e-06 5.85854e-07)
(1.03831 1.37983e-06 3.28939e-07)
(1.03831 1.59591e-06 6.1555e-07)
(1.03831 1.16149e-06 3.05927e-07)
(1.03831 1.63965e-06 6.23755e-07)
(1.03831 1.17907e-06 3.17689e-07)
(1.03831 1.53958e-06 5.72225e-07)
(1.03831 1.1394e-06 4.04707e-07)
(1.03831 1.49223e-06 4.42395e-07)
(1.03831 1.17324e-06 5.65417e-07)
(1.03831 1.19691e-06 2.90919e-07)
(1.03831 1.41833e-06 6.83087e-07)
(1.03831 9.31838e-07 2.50378e-07)
(1.03831 1.33864e-06 6.6138e-07)
(1.03831 1.1244e-06 3.55521e-07)
(1.03831 9.45585e-07 5.05602e-07)
(1.03831 1.34659e-06 5.39868e-07)
(1.03831 8.02208e-07 3.37933e-07)
(1.03831 1.2407e-06 6.48531e-07)
(1.03831 9.38508e-07 3.25129e-07)
(1.03831 1.05767e-06 6.03228e-07)
(1.03831 1.06368e-06 4.05651e-07)
(1.03831 9.60311e-07 5.50917e-07)
(1.03831 1.20187e-06 4.12912e-07)
(1.03831 8.52864e-07 5.55635e-07)
(1.03831 1.32974e-06 3.95716e-07)
(1.03831 8.76408e-07 4.96966e-07)
(1.03831 1.25659e-06 4.6377e-07)
(1.03831 1.05193e-06 3.69656e-07)
(1.03831 1.34486e-06 6.82574e-07)
(1.03831 1.54589e-06 5.2927e-07)
(1.03831 1.31875e-06 7.54711e-07)
(1.03831 1.55581e-06 5.03232e-07)
(1.03831 1.40445e-06 8.13392e-07)
(1.03831 1.58737e-06 5.11392e-07)
(1.03831 1.50728e-06 8.31984e-07)
(1.03831 1.52103e-06 5.4713e-07)
(1.03831 1.80276e-06 7.83859e-07)
(1.03831 1.35638e-06 6.30237e-07)
(1.03831 1.97303e-06 6.8685e-07)
(1.03831 1.51557e-06 7.24081e-07)
(1.03831 1.69317e-06 5.79559e-07)
(1.03831 1.91683e-06 8.17791e-07)
(1.03831 1.39975e-06 4.90905e-07)
(1.03831 2.0026e-06 8.77164e-07)
(1.03831 1.42247e-06 4.47748e-07)
(1.03831 1.86465e-06 8.68789e-07)
(1.03831 1.38529e-06 4.88927e-07)
(1.03831 1.86159e-06 7.44332e-07)
(1.03831 1.30615e-06 6.63367e-07)
(1.03831 1.63732e-06 5.30865e-07)
(1.03831 1.548e-06 8.40832e-07)
(1.03831 1.22218e-06 4.18324e-07)
(1.03831 1.67048e-06 8.52443e-07)
(1.03831 1.20017e-06 5.01086e-07)
(1.03831 1.37591e-06 6.87154e-07)
(1.03831 1.41663e-06 6.99485e-07)
(1.03831 1.15292e-06 5.0097e-07)
(1.03831 1.40212e-06 8.10975e-07)
(1.03831 1.21696e-06 4.98367e-07)
(1.03831 1.29314e-06 7.39421e-07)
(1.03831 1.30955e-06 6.00698e-07)
(1.03831 1.23554e-06 6.6638e-07)
(1.03831 1.47638e-06 6.12448e-07)
(1.03831 1.08515e-06 6.78542e-07)
(1.03831 1.68784e-06 5.83446e-07)
(1.03831 1.06614e-06 6.57021e-07)
(1.03831 1.59731e-06 6.17897e-07)
(1.03831 1.34061e-06 5.835e-07)
(1.03831 1.61695e-06 9.88011e-07)
(1.03831 2.09038e-06 9.02763e-07)
(1.03831 1.55719e-06 1.06965e-06)
(1.03831 2.07822e-06 8.66679e-07)
(1.03831 1.73619e-06 1.16566e-06)
(1.03831 2.01028e-06 8.27438e-07)
(1.03831 1.92664e-06 1.24581e-06)
(1.03831 1.96366e-06 8.08521e-07)
(1.03831 2.1808e-06 1.24705e-06)
(1.03831 1.88348e-06 8.86725e-07)
(1.03831 2.32483e-06 1.14445e-06)
(1.03831 2.02123e-06 1.02666e-06)
(1.03831 2.11641e-06 9.94038e-07)
(1.03831 2.34298e-06 1.17233e-06)
(1.03831 1.87769e-06 8.61243e-07)
(1.03831 2.41084e-06 1.2608e-06)
(1.03831 1.90293e-06 7.77078e-07)
(1.03831 2.27193e-06 1.27208e-06)
(1.03831 1.84309e-06 7.73274e-07)
(1.03831 2.29375e-06 1.1646e-06)
(1.03831 1.65312e-06 9.20491e-07)
(1.03831 2.14953e-06 9.37522e-07)
(1.03831 1.82031e-06 1.10594e-06)
(1.03831 1.67732e-06 7.81609e-07)
(1.03831 2.07276e-06 1.14592e-06)
(1.03831 1.45927e-06 8.26506e-07)
(1.03831 1.91264e-06 1.00992e-06)
(1.03831 1.6068e-06 1.00262e-06)
(1.03831 1.66257e-06 8.46602e-07)
(1.03831 1.66813e-06 1.09845e-06)
(1.03831 1.63663e-06 8.54062e-07)
(1.03831 1.65256e-06 1.02202e-06)
(1.03831 1.66361e-06 9.5768e-07)
(1.03831 1.64754e-06 9.53404e-07)
(1.03831 1.80091e-06 9.7475e-07)
(1.03831 1.5059e-06 9.63399e-07)
(1.03831 2.01545e-06 9.4527e-07)
(1.03831 1.48808e-06 9.57387e-07)
(1.03831 1.92279e-06 9.51342e-07)
(1.03831 1.80853e-06 9.30669e-07)
(1.03831 2.06955e-06 1.48411e-06)
(1.03831 2.71618e-06 1.46409e-06)
(1.03831 2.00301e-06 1.57768e-06)
(1.03831 2.71798e-06 1.43107e-06)
(1.03831 2.24244e-06 1.7073e-06)
(1.03831 2.62528e-06 1.37008e-06)
(1.03831 2.48406e-06 1.82844e-06)
(1.03831 2.64217e-06 1.31729e-06)
(1.03831 2.65869e-06 1.85712e-06)
(1.03831 2.66561e-06 1.38295e-06)
(1.03831 2.75148e-06 1.75697e-06)
(1.03831 2.76158e-06 1.53932e-06)
(1.03831 2.66041e-06 1.5951e-06)
(1.03831 2.94822e-06 1.7109e-06)
(1.03831 2.52529e-06 1.43843e-06)
(1.03831 2.97446e-06 1.79896e-06)
(1.03831 2.52701e-06 1.33228e-06)
(1.03831 2.85885e-06 1.80811e-06)
(1.03831 2.42734e-06 1.30208e-06)
(1.03831 2.90982e-06 1.72131e-06)
(1.03831 2.17163e-06 1.41e-06)
(1.03831 2.85288e-06 1.50911e-06)
(1.03831 2.25412e-06 1.57603e-06)
(1.03831 2.38637e-06 1.34161e-06)
(1.03831 2.5662e-06 1.64276e-06)
(1.03831 1.99926e-06 1.35237e-06)
(1.03831 2.52909e-06 1.56018e-06)
(1.03831 2.02027e-06 1.49073e-06)
(1.03831 2.26997e-06 1.44082e-06)
(1.03831 2.11729e-06 1.563e-06)
(1.03831 2.1427e-06 1.44643e-06)
(1.03831 2.19067e-06 1.4898e-06)
(1.03831 2.09797e-06 1.51399e-06)
(1.03831 2.25409e-06 1.43311e-06)
(1.03831 2.20686e-06 1.51506e-06)
(1.03831 2.15069e-06 1.44118e-06)
(1.03831 2.41731e-06 1.48851e-06)
(1.03831 2.12854e-06 1.44947e-06)
(1.03831 2.36175e-06 1.47077e-06)
(1.03831 2.41726e-06 1.46443e-06)
(1.03831 2.72431e-06 2.30771e-06)
(1.03831 3.51202e-06 2.3229e-06)
(1.03831 2.64603e-06 2.40391e-06)
(1.03831 3.54104e-06 2.30457e-06)
(1.03831 2.89203e-06 2.55201e-06)
(1.03831 3.45524e-06 2.2522e-06)
(1.03831 3.15289e-06 2.69515e-06)
(1.03831 3.52148e-06 2.19528e-06)
(1.03831 3.24792e-06 2.73557e-06)
(1.03831 3.63772e-06 2.24953e-06)
(1.03831 3.29443e-06 2.6514e-06)
(1.03831 3.68877e-06 2.40594e-06)
(1.03831 3.32543e-06 2.50158e-06)
(1.03831 3.71707e-06 2.57755e-06)
(1.03831 3.30262e-06 2.33924e-06)
(1.03831 3.69193e-06 2.65013e-06)
(1.03831 3.27171e-06 2.22363e-06)
(1.03831 3.62568e-06 2.63824e-06)
(1.03831 3.13818e-06 2.16551e-06)
(1.03831 3.71796e-06 2.55242e-06)
(1.03831 2.86081e-06 2.21854e-06)
(1.03831 3.76171e-06 2.36139e-06)
(1.03831 2.84984e-06 2.34517e-06)
(1.03831 3.36253e-06 2.19253e-06)
(1.03831 3.14799e-06 2.42515e-06)
(1.03831 2.85707e-06 2.17017e-06)
(1.03831 3.19517e-06 2.40458e-06)
(1.03831 2.73073e-06 2.26204e-06)
(1.03831 2.93417e-06 2.33792e-06)
(1.03831 2.82858e-06 2.30163e-06)
(1.03831 2.71097e-06 2.34011e-06)
(1.03831 2.98717e-06 2.23874e-06)
(1.03831 2.60225e-06 2.36976e-06)
(1.03831 3.12663e-06 2.20184e-06)
(1.03831 2.68806e-06 2.35576e-06)
(1.03831 3.09197e-06 2.21224e-06)
(1.03831 2.91467e-06 2.34142e-06)
(1.03831 3.06232e-06 2.23676e-06)
(1.03831 2.94599e-06 2.31292e-06)
(1.03831 3.25399e-06 2.29415e-06)
(1.03831 3.4694e-06 3.64744e-06)
(1.03831 4.48463e-06 3.60934e-06)
(1.03831 3.38575e-06 3.74921e-06)
(1.03831 4.57504e-06 3.6117e-06)
(1.03831 3.60532e-06 3.90473e-06)
(1.03831 4.52844e-06 3.57753e-06)
(1.03831 3.87045e-06 4.04967e-06)
(1.03831 4.62765e-06 3.53119e-06)
(1.03831 3.9007e-06 4.09181e-06)
(1.03831 4.8057e-06 3.5683e-06)
(1.03831 3.89726e-06 4.0153e-06)
(1.03831 4.8158e-06 3.69054e-06)
(1.03831 4.01772e-06 3.87701e-06)
(1.03831 4.68578e-06 3.83672e-06)
(1.03831 4.09795e-06 3.71873e-06)
(1.03831 4.62732e-06 3.89485e-06)
(1.03831 4.06978e-06 3.61397e-06)
(1.03831 4.64135e-06 3.87402e-06)
(1.03831 3.92682e-06 3.54676e-06)
(1.03831 4.74382e-06 3.79618e-06)
(1.03831 3.63039e-06 3.55725e-06)
(1.03831 4.83374e-06 3.64009e-06)
(1.03831 3.51136e-06 3.63987e-06)
(1.03831 4.50993e-06 3.48062e-06)
(1.03831 3.73214e-06 3.7172e-06)
(1.03831 3.92909e-06 3.42707e-06)
(1.03831 3.82388e-06 3.74216e-06)
(1.03831 3.66664e-06 3.47301e-06)
(1.03831 3.57765e-06 3.71778e-06)
(1.03831 3.74887e-06 3.48042e-06)
(1.03831 3.28211e-06 3.70343e-06)
(1.03831 3.98294e-06 3.42048e-06)
(1.03831 3.12742e-06 3.69026e-06)
(1.03831 4.19795e-06 3.40183e-06)
(1.03831 3.19377e-06 3.67133e-06)
(1.03831 4.2437e-06 3.41847e-06)
(1.03831 3.43454e-06 3.67684e-06)
(1.03831 4.19774e-06 3.45638e-06)
(1.03831 3.57439e-06 3.65435e-06)
(1.03831 4.27153e-06 3.55054e-06)
(1.03831 4.03656e-06 5.78634e-06)
(1.03831 5.51049e-06 5.62742e-06)
(1.03831 3.95591e-06 5.89319e-06)
(1.03831 5.6917e-06 5.64175e-06)
(1.03831 4.13552e-06 6.03694e-06)
(1.03831 5.70699e-06 5.62409e-06)
(1.03831 4.4007e-06 6.16979e-06)
(1.03831 5.83671e-06 5.5999e-06)
(1.03831 4.39515e-06 6.2203e-06)
(1.03831 6.0695e-06 5.63442e-06)
(1.03831 4.3474e-06 6.16585e-06)
(1.03831 6.05489e-06 5.71565e-06)
(1.03831 4.53144e-06 6.04465e-06)
(1.03831 5.81198e-06 5.819e-06)
(1.03831 4.71503e-06 5.88984e-06)
(1.03831 5.75658e-06 5.8473e-06)
(1.03831 4.70734e-06 5.78321e-06)
(1.03831 5.85353e-06 5.79862e-06)
(1.03831 4.55577e-06 5.69646e-06)
(1.03831 5.95348e-06 5.71926e-06)
(1.03831 4.24761e-06 5.67588e-06)
(1.03831 6.05848e-06 5.60558e-06)
(1.03831 4.02444e-06 5.72546e-06)
(1.03831 5.7941e-06 5.46486e-06)
(1.03831 4.1244e-06 5.79766e-06)
(1.03831 5.14799e-06 5.39005e-06)
(1.03831 4.21672e-06 5.85498e-06)
(1.03831 4.74806e-06 5.3989e-06)
(1.03831 3.98622e-06 5.85567e-06)
(1.03831 4.80462e-06 5.37877e-06)
(1.03831 3.64901e-06 5.8222e-06)
(1.03831 5.08962e-06 5.32865e-06)
(1.03831 3.46888e-06 5.77701e-06)
(1.03831 5.37039e-06 5.32675e-06)
(1.03831 3.53494e-06 5.75385e-06)
(1.03831 5.49253e-06 5.34647e-06)
(1.03831 3.78499e-06 5.77665e-06)
(1.03831 5.41571e-06 5.39594e-06)
(1.03831 4.02636e-06 5.76863e-06)
(1.03831 5.34629e-06 5.53163e-06)
(1.03831 4.05452e-06 9.22284e-06)
(1.03831 6.43328e-06 8.85421e-06)
(1.03831 3.95904e-06 9.34685e-06)
(1.03831 6.68385e-06 8.89459e-06)
(1.03831 4.07747e-06 9.49377e-06)
(1.03831 6.76554e-06 8.91003e-06)
(1.03831 4.34612e-06 9.61611e-06)
(1.03831 6.92703e-06 8.90394e-06)
(1.03831 4.34209e-06 9.64826e-06)
(1.03831 7.22027e-06 8.91342e-06)
(1.03831 4.27198e-06 9.598e-06)
(1.03831 7.21122e-06 8.94967e-06)
(1.03831 4.52621e-06 9.50011e-06)
(1.03831 6.91614e-06 9.0052e-06)
(1.03831 4.8156e-06 9.3491e-06)
(1.03831 6.8568e-06 8.99938e-06)
(1.03831 4.79515e-06 9.22656e-06)
(1.03831 6.99035e-06 8.9152e-06)
(1.03831 4.62369e-06 9.11649e-06)
(1.03831 7.09268e-06 8.83113e-06)
(1.03831 4.33468e-06 9.07064e-06)
(1.03831 7.21269e-06 8.74928e-06)
(1.03831 4.01665e-06 9.08243e-06)
(1.03831 6.99793e-06 8.61058e-06)
(1.03831 3.97677e-06 9.13168e-06)
(1.03831 6.2925e-06 8.51599e-06)
(1.03831 4.03755e-06 9.21168e-06)
(1.03831 5.7713e-06 8.49441e-06)
(1.03831 3.82929e-06 9.22435e-06)
(1.03831 5.80539e-06 8.46416e-06)
(1.03831 3.4686e-06 9.18354e-06)
(1.03831 6.1188e-06 8.44189e-06)
(1.03831 3.26401e-06 9.14043e-06)
(1.03831 6.43285e-06 8.47382e-06)
(1.03831 3.3222e-06 9.12926e-06)
(1.03831 6.63308e-06 8.4995e-06)
(1.03831 3.59098e-06 9.16644e-06)
(1.03831 6.54053e-06 8.55094e-06)
(1.03831 3.93611e-06 9.17118e-06)
(1.03831 6.33752e-06 8.71725e-06)
(1.03831 2.68309e-06 1.48019e-05)
(1.03831 6.62541e-06 1.41905e-05)
(1.03831 2.57136e-06 1.49609e-05)
(1.03831 6.93283e-06 1.427e-05)
(1.03831 2.63208e-06 1.51171e-05)
(1.03831 7.07662e-06 1.431e-05)
(1.03831 2.87861e-06 1.52118e-05)
(1.03831 7.22992e-06 1.43073e-05)
(1.03831 2.87128e-06 1.52087e-05)
(1.03831 7.56392e-06 1.42839e-05)
(1.03831 2.78396e-06 1.5157e-05)
(1.03831 7.59792e-06 1.42683e-05)
(1.03831 3.14066e-06 1.50699e-05)
(1.03831 7.33561e-06 1.4263e-05)
(1.03831 3.55354e-06 1.49129e-05)
(1.03831 7.28526e-06 1.42124e-05)
(1.03831 3.52891e-06 1.47731e-05)
(1.03831 7.44763e-06 1.41107e-05)
(1.03831 3.35406e-06 1.46588e-05)
(1.03831 7.5537e-06 1.40307e-05)
(1.03831 3.09467e-06 1.45875e-05)
(1.03831 7.67163e-06 1.39632e-05)
(1.03831 2.68947e-06 1.45593e-05)
(1.03831 7.47989e-06 1.38118e-05)
(1.03831 2.49797e-06 1.45803e-05)
(1.03831 6.71203e-06 1.37006e-05)
(1.03831 2.50319e-06 1.46799e-05)
(1.03831 6.0941e-06 1.36643e-05)
(1.03831 2.31859e-06 1.46913e-05)
(1.03831 6.10076e-06 1.36391e-05)
(1.03831 1.95157e-06 1.46599e-05)
(1.03831 6.41989e-06 1.36692e-05)
(1.03831 1.73155e-06 1.46344e-05)
(1.03831 6.75191e-06 1.37324e-05)
(1.03831 1.77023e-06 1.46449e-05)
(1.03831 7.00752e-06 1.37771e-05)
(1.03831 2.02375e-06 1.47088e-05)
(1.03831 6.89602e-06 1.38273e-05)
(1.03831 2.45706e-06 1.47218e-05)
(1.03831 6.59375e-06 1.40086e-05)
(1.0383 -1.29599e-06 2.36813e-05)
(1.0383 5.08417e-06 2.2904e-05)
(1.0383 -1.40542e-06 2.38761e-05)
(1.0383 5.42863e-06 2.30071e-05)
(1.0383 -1.42468e-06 2.40193e-05)
(1.0383 5.60604e-06 2.3055e-05)
(1.0383 -1.19931e-06 2.40842e-05)
(1.0383 5.71975e-06 2.30426e-05)
(1.0383 -1.22666e-06 2.40182e-05)
(1.0383 6.07181e-06 2.2965e-05)
(1.0383 -1.30519e-06 2.39712e-05)
(1.0383 6.19592e-06 2.29093e-05)
(1.0383 -8.31857e-07 2.38906e-05)
(1.0383 6.02322e-06 2.28274e-05)
(1.0383 -2.83103e-07 2.37e-05)
(1.0383 6.01227e-06 2.27272e-05)
(1.0383 -2.95868e-07 2.35533e-05)
(1.0383 6.19627e-06 2.2618e-05)
(1.0383 -4.7431e-07 2.34205e-05)
(1.0383 6.30634e-06 2.25156e-05)
(1.0383 -6.90844e-07 2.33195e-05)
(1.0383 6.44033e-06 2.24687e-05)
(1.0383 -1.14412e-06 2.3273e-05)
(1.0383 6.29156e-06 2.23076e-05)
(1.0383 -1.43281e-06 2.32719e-05)
(1.0383 5.50625e-06 2.21968e-05)
(1.0383 -1.48897e-06 2.34136e-05)
(1.0383 4.77181e-06 2.21808e-05)
(1.0383 -1.71115e-06 2.3429e-05)
(1.0383 4.70609e-06 2.21656e-05)
(1.0383 -2.07836e-06 2.34213e-05)
(1.0383 5.0433e-06 2.2278e-05)
(1.0383 -2.28258e-06 2.34444e-05)
(1.0383 5.3696e-06 2.23738e-05)
(1.0383 -2.29856e-06 2.34557e-05)
(1.0383 5.6384e-06 2.24091e-05)
(1.0383 -2.08308e-06 2.35349e-05)
(1.0383 5.50094e-06 2.24555e-05)
(1.0383 -1.60613e-06 2.35553e-05)
(1.0383 5.10453e-06 2.26564e-05)
(1.0383 -9.7835e-06 3.71588e-05)
(1.0383 6.42914e-08 3.65865e-05)
(1.0383 -9.88797e-06 3.74758e-05)
(1.0383 4.3903e-07 3.66992e-05)
(1.0383 -9.97682e-06 3.75482e-05)
(1.0383 6.16144e-07 3.67431e-05)
(1.0383 -9.79609e-06 3.76071e-05)
(1.0383 6.89603e-07 3.67192e-05)
(1.0383 -9.82402e-06 3.74204e-05)
(1.0383 1.08925e-06 3.65208e-05)
(1.0383 -9.82828e-06 3.73574e-05)
(1.0383 1.34378e-06 3.64521e-05)
(1.0383 -9.23072e-06 3.72829e-05)
(1.0383 1.29664e-06 3.62297e-05)
(1.0383 -8.51964e-06 3.69926e-05)
(1.0383 1.37432e-06 3.60877e-05)
(1.0383 -8.50555e-06 3.68892e-05)
(1.0383 1.56024e-06 3.59935e-05)
(1.0383 -8.68307e-06 3.66861e-05)
(1.0383 1.66979e-06 3.58099e-05)
(1.0383 -8.85915e-06 3.65881e-05)
(1.0383 1.83924e-06 3.58652e-05)
(1.0383 -9.32521e-06 3.65931e-05)
(1.0383 1.72799e-06 3.56647e-05)
(1.0383 -9.69979e-06 3.65234e-05)
(1.0383 9.38055e-07 3.55442e-05)
(1.0383 -9.82933e-06 3.67423e-05)
(1.0383 6.83455e-08 3.55818e-05)
(1.0383 -1.01235e-05 3.67243e-05)
(1.0383 -9.88838e-08 3.55461e-05)
(1.0383 -1.0499e-05 3.67736e-05)
(1.0383 2.44425e-07 3.58428e-05)
(1.0383 -1.07007e-05 3.69205e-05)
(1.0383 5.3446e-07 3.59563e-05)
(1.0383 -1.07678e-05 3.68821e-05)
(1.0383 8.18075e-07 3.59688e-05)
(1.0383 -1.05881e-05 3.69834e-05)
(1.0383 6.63851e-07 3.60022e-05)
(1.0383 -1.01232e-05 3.6955e-05)
(1.0383 1.48732e-07 3.61674e-05)
(1.03826 -2.5048e-05 5.59924e-05)
(1.03827 -1.0596e-05 5.63109e-05)
(1.03826 -2.51843e-05 5.645e-05)
(1.03827 -1.0211e-05 5.63534e-05)
(1.03826 -2.52823e-05 5.63709e-05)
(1.03827 -1.00394e-05 5.64252e-05)
(1.03827 -2.51916e-05 5.65099e-05)
(1.03827 -1.00509e-05 5.64005e-05)
(1.03827 -2.52125e-05 5.6085e-05)
(1.03827 -9.55542e-06 5.59618e-05)
(1.03826 -2.50938e-05 5.59984e-05)
(1.03827 -9.13042e-06 5.59321e-05)
(1.03826 -2.43111e-05 5.59124e-05)
(1.03827 -9.00825e-06 5.54696e-05)
(1.03826 -2.3463e-05 5.54361e-05)
(1.03827 -8.83476e-06 5.53184e-05)
(1.03826 -2.34004e-05 5.54729e-05)
(1.03827 -8.63127e-06 5.52494e-05)
(1.03826 -2.35676e-05 5.50843e-05)
(1.03827 -8.5308e-06 5.49062e-05)
(1.03826 -2.37009e-05 5.50654e-05)
(1.03827 -8.31163e-06 5.52097e-05)
(1.03826 -2.41334e-05 5.51787e-05)
(1.03827 -8.35279e-06 5.48982e-05)
(1.03826 -2.45749e-05 5.49825e-05)
(1.03827 -9.16214e-06 5.47894e-05)
(1.03826 -2.4823e-05 5.53594e-05)
(1.03827 -1.02066e-05 5.48914e-05)
(1.03826 -2.52185e-05 5.52289e-05)
(1.03827 -1.04334e-05 5.48189e-05)
(1.03826 -2.5557e-05 5.54575e-05)
(1.03827 -1.01244e-05 5.54559e-05)
(1.03826 -2.58272e-05 5.57933e-05)
(1.03827 -9.92258e-06 5.55036e-05)
(1.03826 -2.59336e-05 5.5618e-05)
(1.03827 -9.60386e-06 5.5498e-05)
(1.03826 -2.57729e-05 5.5803e-05)
(1.03827 -9.77331e-06 5.55233e-05)
(1.03826 -2.53718e-05 5.56276e-05)
(1.03827 -1.04039e-05 5.56043e-05)
(1.03813 -4.96189e-05 7.90992e-05)
(1.03814 -2.96086e-05 8.14446e-05)
(1.03813 -4.98415e-05 7.96454e-05)
(1.03814 -2.92333e-05 8.1261e-05)
(1.03813 -4.99252e-05 7.93703e-05)
(1.03814 -2.91364e-05 8.14422e-05)
(1.03813 -4.99824e-05 7.96385e-05)
(1.03814 -2.9271e-05 8.13069e-05)
(1.03813 -5.00162e-05 7.88169e-05)
(1.03814 -2.86777e-05 8.06364e-05)
(1.03813 -4.96848e-05 7.88279e-05)
(1.03814 -2.79609e-05 8.06737e-05)
(1.03813 -4.86067e-05 7.85933e-05)
(1.03814 -2.76195e-05 7.98471e-05)
(1.03813 -4.76598e-05 7.79372e-05)
(1.03814 -2.74121e-05 7.98268e-05)
(1.03813 -4.7585e-05 7.81669e-05)
(1.03814 -2.71876e-05 7.96641e-05)
(1.03813 -4.77014e-05 7.74283e-05)
(1.03814 -2.70226e-05 7.91697e-05)
(1.03813 -4.77642e-05 7.76675e-05)
(1.03814 -2.67492e-05 7.98363e-05)
(1.03813 -4.81161e-05 7.7831e-05)
(1.03814 -2.66276e-05 7.92729e-05)
(1.03813 -4.84914e-05 7.74946e-05)
(1.03814 -2.7399e-05 7.92901e-05)
(1.03813 -4.89227e-05 7.80856e-05)
(1.03814 -2.87121e-05 7.9379e-05)
(1.03813 -4.94452e-05 7.77494e-05)
(1.03814 -2.89345e-05 7.93463e-05)
(1.03813 -4.96849e-05 7.83648e-05)
(1.03814 -2.86438e-05 8.04299e-05)
(1.03813 -5.00718e-05 7.88366e-05)
(1.03814 -2.86041e-05 8.0284e-05)
(1.03813 -5.0288e-05 7.85268e-05)
(1.03814 -2.83025e-05 8.03612e-05)
(1.03813 -5.0164e-05 7.88319e-05)
(1.03814 -2.84894e-05 8.02692e-05)
(1.03813 -4.98366e-05 7.83844e-05)
(1.03814 -2.91986e-05 8.03246e-05)
(1.03766 -8.5514e-05 0.000101907)
(1.03768 -5.88637e-05 0.000107732)
(1.03766 -8.5756e-05 0.000102299)
(1.03768 -5.84549e-05 0.000107323)
(1.03766 -8.58811e-05 0.0001021)
(1.03768 -5.86199e-05 0.000107757)
(1.03766 -8.6237e-05 0.000102267)
(1.03768 -5.89235e-05 0.000107186)
(1.03766 -8.61902e-05 0.00010097)
(1.03768 -5.80866e-05 0.000106513)
(1.03766 -8.555e-05 0.000101172)
(1.03768 -5.69673e-05 0.000106417)
(1.03766 -8.40284e-05 0.000100502)
(1.03768 -5.62925e-05 0.000105181)
(1.03765 -8.29668e-05 9.9874e-05)
(1.03768 -5.6217e-05 0.000105431)
(1.03765 -8.3008e-05 0.000100095)
(1.03767 -5.60148e-05 0.000104862)
(1.03765 -8.29423e-05 9.89929e-05)
(1.03767 -5.56384e-05 0.00010452)
(1.03765 -8.28778e-05 9.97213e-05)
(1.03767 -5.5294e-05 0.000105438)
(1.03765 -8.30654e-05 9.97072e-05)
(1.03767 -5.49425e-05 0.000104625)
(1.03765 -8.32976e-05 9.94811e-05)
(1.03767 -5.56867e-05 0.0001049)
(1.03765 -8.39896e-05 0.000100166)
(1.03767 -5.73216e-05 0.000104735)
(1.03765 -8.45934e-05 9.96828e-05)
(1.03767 -5.74542e-05 0.000105093)
(1.03765 -8.47638e-05 0.00010089)
(1.03767 -5.72718e-05 0.0001065)
(1.03765 -8.53717e-05 0.000101267)
(1.03767 -5.738e-05 0.000106186)
(1.03765 -8.56718e-05 0.000101118)
(1.03767 -5.72021e-05 0.000106505)
(1.03765 -8.58404e-05 0.000101368)
(1.03767 -5.74623e-05 0.000106009)
(1.03765 -8.55674e-05 0.000100647)
(1.03767 -5.82158e-05 0.00010631)
(1.03628 -0.00013317 0.000116691)
(1.03633 -9.90728e-05 0.000127492)
(1.03628 -0.000133141 0.000116732)
(1.03634 -9.83585e-05 0.000127283)
(1.03628 -0.000133309 0.000117051)
(1.03634 -9.90959e-05 0.000127769)
(1.03628 -0.000134009 0.000116519)
(1.03634 -9.93672e-05 0.000126486)
(1.03628 -0.000133743 0.00011508)
(1.03634 -9.82693e-05 0.000126145)
(1.03628 -0.000132872 0.000115172)
(1.03634 -9.67377e-05 0.000125358)
(1.03628 -0.000130719 0.000113849)
(1.03633 -9.55835e-05 0.000124067)
(1.03628 -0.000129528 0.000113661)
(1.03633 -9.58704e-05 0.000124459)
(1.03628 -0.000129925 0.000113324)
(1.03633 -9.56964e-05 0.000123373)
(1.03628 -0.000129571 0.000112347)
(1.03633 -9.51013e-05 0.000123711)
(1.03628 -0.000129415 0.000113405)
(1.03633 -9.47643e-05 0.000124325)
(1.03628 -0.000129302 0.000113074)
(1.03633 -9.38546e-05 0.000123672)
(1.03628 -0.000129306 0.000113376)
(1.03633 -9.49049e-05 0.000124056)
(1.03628 -0.000130588 0.000113697)
(1.03633 -9.68494e-05 0.000123569)
(1.03628 -0.000130952 0.000113611)
(1.03633 -9.66876e-05 0.000124812)
(1.03628 -0.000131122 0.000115241)
(1.03633 -9.68915e-05 0.000126003)
(1.03628 -0.000131994 0.000115445)
(1.03633 -9.7033e-05 0.000126011)
(1.03628 -0.000132348 0.000115915)
(1.03633 -9.70925e-05 0.000126368)
(1.03628 -0.00013311 0.000115555)
(1.03633 -9.74912e-05 0.000125256)
(1.03628 -0.000132879 0.000115012)
(1.03633 -9.83072e-05 0.000126311)
(1.03297 -0.000189606 0.000117224)
(1.03309 -0.00014807 0.000134664)
(1.03298 -0.000189049 0.000117393)
(1.03309 -0.000146821 0.000135325)
(1.03297 -0.000189452 0.00011813)
(1.03309 -0.000148395 0.000135092)
(1.03297 -0.000190677 0.000116517)
(1.03309 -0.000148267 0.000133524)
(1.03297 -0.000189964 0.000115488)
(1.03309 -0.000146946 0.00013323)
(1.03297 -0.000188843 0.000114656)
(1.03309 -0.000144877 0.000131301)
(1.03297 -0.000185791 0.000113055)
(1.03309 -0.000142943 0.000130517)
(1.03297 -0.000184514 0.00011324)
(1.03309 -0.000143757 0.00013045)
(1.03297 -0.000185184 0.000112059)
(1.03309 -0.000143564 0.000129435)
(1.03297 -0.000184526 0.000111835)
(1.03309 -0.000142892 0.000130415)
(1.03297 -0.000184527 0.000112519)
(1.03309 -0.000142357 0.000130508)
(1.03297 -0.00018344 0.000112432)
(1.03309 -0.000140238 0.000130687)
(1.03297 -0.000183041 0.000113197)
(1.03309 -0.000142078 0.000130509)
(1.03297 -0.000185191 0.000112938)
(1.03309 -0.000144283 0.000130358)
(1.03297 -0.000184976 0.000113987)
(1.03309 -0.000143975 0.000132293)
(1.03297 -0.000185607 0.000115301)
(1.03309 -0.000144953 0.000133021)
(1.03297 -0.000186622 0.000115902)
(1.03309 -0.000144908 0.000134048)
(1.03297 -0.000187107 0.000116896)
(1.03309 -0.000145434 0.000133655)
(1.03297 -0.000188636 0.000115597)
(1.03309 -0.000145916 0.000132471)
(1.03297 -0.00018852 0.000115856)
(1.03309 -0.000147089 0.000134125)
(1.02619 -0.000250006 0.000108296)
(1.02641 -0.000201691 0.000133258)
(1.0262 -0.000248735 0.000109021)
(1.02641 -0.000199835 0.00013454)
(1.02619 -0.00025001 0.000109447)
(1.02641 -0.000202648 0.000133178)
(1.02619 -0.000251242 0.000107123)
(1.02641 -0.000201911 0.000131876)
(1.02619 -0.000250294 0.000106361)
(1.02641 -0.000200675 0.000130799)
(1.02619 -0.000249212 0.000104201)
(1.02641 -0.000197667 0.000128202)
(1.02619 -0.000245019 0.00010288)
(1.02641 -0.000195138 0.000127843)
(1.02619 -0.000244233 0.000103034)
(1.0264 -0.000196797 0.000127036)
(1.02619 -0.000244919 0.000101453)
(1.0264 -0.000196275 0.000126601)
(1.02619 -0.000243795 0.000101786)
(1.0264 -0.000196067 0.000127656)
(1.02619 -0.000244647 0.00010176)
(1.0264 -0.000195097 0.000127888)
(1.02619 -0.000241608 0.000102403)
(1.0264 -0.00019127 0.000128726)
(1.02619 -0.000240863 0.000103037)
(1.0264 -0.000194121 0.000127887)
(1.02619 -0.000243888 0.000102858)
(1.0264 -0.000195847 0.000128757)
(1.02619 -0.000242406 0.000104985)
(1.02641 -0.000195839 0.000130848)
(1.02619 -0.000244135 0.0001058)
(1.02641 -0.000197501 0.000131761)
(1.02619 -0.000244609 0.000107485)
(1.02641 -0.000197167 0.000133738)
(1.02619 -0.000245488 0.000108343)
(1.02641 -0.000198747 0.000132149)
(1.02619 -0.000247438 0.000106578)
(1.02641 -0.000198875 0.000131315)
(1.02619 -0.000247597 0.00010765)
(1.02641 -0.000200857 0.00013299)
(1.01403 -0.000308501 0.000107207)
(1.01434 -0.000255045 0.000138268)
(1.01403 -0.000305685 0.000108455)
(1.01434 -0.000252255 0.000139825)
(1.01402 -0.000308647 0.000108144)
(1.01434 -0.000256748 0.000137355)
(1.01402 -0.000308993 0.000105379)
(1.01434 -0.000255609 0.000136588)
(1.01402 -0.000307948 0.000104696)
(1.01434 -0.000254266 0.000134565)
(1.01402 -0.000306365 0.000101195)
(1.01434 -0.00024895 0.000131705)
(1.01402 -0.000300369 0.000100446)
(1.01434 -0.000245954 0.000131864)
(1.01402 -0.000300516 0.000100572)
(1.01434 -0.000248885 0.000129999)
(1.01402 -0.000301161 9.88531e-05)
(1.01434 -0.000247846 0.000129892)
(1.01402 -0.000299717 9.96603e-05)
(1.01434 -0.00024853 0.000130796)
(1.01402 -0.000301515 9.88339e-05)
(1.01434 -0.000246869 0.000131566)
(1.01402 -0.000296271 0.000100105)
(1.01434 -0.000240798 0.000133077)
(1.01402 -0.000295755 0.000100403)
(1.01434 -0.000244813 0.000131851)
(1.01402 -0.000299496 0.000101123)
(1.01434 -0.00024629 0.000134149)
(1.01402 -0.000297235 0.000104382)
(1.01434 -0.000247434 0.000136343)
(1.01402 -0.000300379 0.000104746)
(1.01435 -0.000249476 0.000137838)
(1.01402 -0.000299563 0.000107425)
(1.01435 -0.000248681 0.000140654)
(1.01402 -0.00030149 0.000107915)
(1.01435 -0.000252532 0.000137837)
(1.01402 -0.000303571 0.000105875)
(1.01435 -0.000251836 0.000137154)
(1.01402 -0.000304271 0.000107484)
(1.01434 -0.000254879 0.000138297)
(0.994425 -0.000350468 0.000145)
(0.994822 -0.000296351 0.000178863)
(0.994425 -0.00034718 0.00014829)
(0.994821 -0.00029314 0.000181272)
(0.994422 -0.00035211 0.000145984)
(0.994821 -0.000299099 0.000177021)
(0.994424 -0.000352552 0.000144578)
(0.994823 -0.000297958 0.000179207)
(0.994425 -0.000351072 0.000145154)
(0.994824 -0.000296913 0.000175239)
(0.994426 -0.000348546 0.000139501)
(0.994827 -0.000288497 0.000173046)
(0.994426 -0.000340224 0.000140812)
(0.994824 -0.000283967 0.000174374)
(0.994425 -0.000341386 0.000139193)
(0.994823 -0.000288486 0.000170425)
(0.994427 -0.000342884 0.000138441)
(0.994826 -0.000286842 0.000172592)
(0.994428 -0.000340548 0.000140875)
(0.994827 -0.000289479 0.000171748)
(0.994428 -0.000343146 0.000138637)
(0.994828 -0.000285912 0.000173931)
(0.994427 -0.000335275 0.000142187)
(0.994827 -0.000277414 0.000176664)
(0.994424 -0.000335077 0.000140549)
(0.994825 -0.000282479 0.000174095)
(0.994427 -0.000338722 0.00014307)
(0.994825 -0.000281762 0.000179479)
(0.994427 -0.000335502 0.000147899)
(0.994822 -0.000285084 0.000179746)
(0.994425 -0.000340216 0.000145847)
(0.994822 -0.000288057 0.000181533)
(0.994424 -0.00033751 0.000149671)
(0.994822 -0.000286311 0.00018492)
(0.994422 -0.000340458 0.000147786)
(0.994823 -0.000294014 0.000180034)
(0.994423 -0.000343202 0.00014594)
(0.994823 -0.000292763 0.000181404)
(0.994423 -0.000344569 0.000148192)
(0.994821 -0.000297486 0.000179865)
(0.965452 -0.000371063 0.000273382)
(0.965854 -0.000321408 0.000312503)
(0.965455 -0.000364619 0.000283692)
(0.965853 -0.000317824 0.00031732)
(0.96545 -0.000372003 0.000277365)
(0.965855 -0.000322321 0.000307183)
(0.965452 -0.00037227 0.000281798)
(0.965855 -0.000320365 0.00031818)
(0.965454 -0.000369679 0.000284648)
(0.965858 -0.000321113 0.000306502)
(0.965458 -0.000366693 0.000272316)
(0.965861 -0.000309295 0.000307299)
(0.965459 -0.000357094 0.000281431)
(0.965862 -0.000304473 0.000310761)
(0.965453 -0.000359275 0.000275881)
(0.965861 -0.00030972 0.000301402)
(0.965454 -0.000361034 0.000278327)
(0.965865 -0.000307718 0.000314779)
(0.965454 -0.000356858 0.000283884)
(0.965865 -0.000313413 0.00030911)
(0.965453 -0.000361121 0.000275337)
(0.965864 -0.000308043 0.000313312)
(0.96545 -0.000350417 0.000290213)
(0.965856 -0.000297375 0.000316259)
(0.965442 -0.000352328 0.000280277)
(0.965852 -0.000303322 0.000305794)
(0.965444 -0.000357314 0.000283084)
(0.965852 -0.000299833 0.000318519)
(0.965444 -0.000353107 0.000287405)
(0.965845 -0.000305986 0.000310262)
(0.965441 -0.000359515 0.000277459)
(0.965847 -0.000310375 0.000314437)
(0.965445 -0.000354588 0.00028943)
(0.965848 -0.000307314 0.000317038)
(0.965447 -0.000358559 0.000277258)
(0.965851 -0.000316946 0.000305158)
(0.965452 -0.000361745 0.000279141)
(0.965854 -0.000317296 0.000317225)
(0.96545 -0.000363465 0.000283415)
(0.965849 -0.000324664 0.000309972)
(0.92539 -0.000388486 0.000559457)
(0.925686 -0.000348744 0.000601092)
(0.925387 -0.000382099 0.00059392)
(0.925686 -0.000344222 0.000607344)
(0.925378 -0.000393947 0.000567261)
(0.925683 -0.000348191 0.000587683)
(0.925381 -0.000391088 0.000587259)
(0.92569 -0.0003446 0.000629907)
(0.925383 -0.000385686 0.000590103)
(0.925694 -0.000347887 0.00058932)
(0.925381 -0.000382188 0.000562086)
(0.925683 -0.000333262 0.000590567)
(0.925378 -0.000370902 0.000588277)
(0.925672 -0.000325884 0.000600189)
(0.92537 -0.000377711 0.000567725)
(0.925668 -0.000333572 0.000582323)