/*--------------------------------*- C++ -*----------------------------------*\
  =========                 |
  \\      /  F ield         | OpenFOAM: The Open Source CFD Toolbox
   \\    /   O peration     | Website:  https://openfoam.org
    \\  /    A nd           | Version:  10
     \\/     M anipulation  |
\*---------------------------------------------------------------------------*/
FoamFile
{
    format      ascii;
    class       volScalarField;
    location    "30";
    object      p;
}
// * * * * * * * * * * * * * * * * * * * * * * * * * * * * * * * * * * * * * //

dimensions      [0 2 -2 0 0 0 0];

internalField   nonuniform List<scalar> 
25600
(
-2.39477e-06
5.19343e-06
-1.0247e-05
2.00241e-06
-4.2591e-07
-6.81558e-06
5.80537e-06
-8.13407e-06
-2.30833e-06
4.07514e-06
-6.84285e-06
-3.2186e-06
4.61062e-06
-6.28242e-06
-6.47947e-06
6.40152e-06
-6.75026e-06
-3.99399e-06
5.93055e-06
-1.04288e-05
1.83474e-07
3.4759e-06
-1.09835e-05
2.89683e-06
-9.95106e-07
-4.43896e-06
-2.03523e-06
1.03637e-06
-5.98914e-06
-2.51563e-06
3.97084e-06
-1.03607e-05
5.89524e-06
-5.20257e-06
-5.95423e-06
5.8092e-06
-6.46563e-06
-1.70039e-06
2.34855e-06
-6.58044e-06
1.91919e-06
2.00106e-06
-9.58451e-06
4.40702e-06
-3.92247e-06
-5.41077e-06
6.54065e-06
-8.70176e-06
-3.10173e-06
5.35057e-06
-7.17227e-06
-4.62586e-06
7.31596e-06
-9.85995e-06
-2.98061e-06
5.41661e-06
-9.02119e-06
-1.62602e-07
3.08686e-06
-1.01341e-05
1.68717e-06
1.69845e-06
-9.89509e-06
3.78926e-06
-3.10433e-06
-3.07471e-06
-1.63363e-06
-6.03175e-07
-4.53153e-06
-2.2631e-06
2.82127e-06
-1.01178e-05
6.3041e-06
-5.18688e-06
-7.67695e-06
7.83455e-06
-9.27751e-06
3.21956e-07
3.01347e-06
-1.00219e-05
4.11627e-06
5.28415e-08
-8.82823e-06
5.72998e-06
-6.53286e-06
-4.05908e-06
5.96546e-06
-7.79381e-06
-3.80538e-06
5.33286e-06
-6.22854e-06
-5.8463e-06
8.21919e-06
-1.07812e-05
-1.76122e-06
4.7576e-06
-1.00553e-05
2.14974e-06
1.35066e-06
-9.82619e-06
2.20783e-06
8.3578e-07
-9.23568e-06
3.73653e-06
-3.60088e-06
-3.92028e-06
5.88096e-07
-3.71442e-06
-2.5006e-06
-1.50648e-06
-4.06433e-07
-6.59756e-06
3.80411e-06
-3.48739e-06
-7.74117e-06
6.81635e-06
-8.63423e-06
4.23881e-07
3.59607e-06
-1.16661e-05
4.24092e-06
-1.73329e-07
-8.84263e-06
6.59833e-06
-7.65505e-06
-4.35623e-06
6.90658e-06
-7.42958e-06
-3.91879e-06
5.47891e-06
-6.49722e-06
-5.05701e-06
7.02098e-06
-9.8225e-06
-1.54599e-06
3.89275e-06
-9.84714e-06
2.68298e-06
1.04626e-06
-1.02756e-05
2.52371e-06
1.19184e-06
-1.01093e-05
4.91153e-06
-4.287e-06
-5.16772e-06
4.24477e-06
-8.19662e-06
7.53091e-07
-1.0659e-06
-4.65912e-06
-9.69004e-07
-7.94733e-07
-1.51867e-06
-6.49761e-06
3.45373e-06
-5.62151e-06
-7.90719e-07
4.06881e-06
-1.19537e-05
3.32649e-06
6.97538e-07
-1.00276e-05
7.89558e-06
-8.00829e-06
-5.87544e-06
9.12892e-06
-1.01427e-05
-2.9082e-06
5.26278e-06
-7.81422e-06
-2.28624e-06
3.8533e-06
-7.50351e-06
-1.82134e-06
2.49627e-06
-8.42792e-06
1.88665e-06
1.73404e-06
-1.14511e-05
3.17783e-06
1.57089e-06
-1.16159e-05
6.86007e-06
-5.75269e-06
-5.78032e-06
7.32454e-06
-1.27512e-05
4.48795e-06
-1.33144e-06
-8.73931e-06
5.30043e-06
-6.26582e-06
7.55786e-07
-4.76693e-06
-7.46436e-07
-1.84632e-06
-4.40024e-06
4.63803e-06
-1.17663e-05
2.35287e-06
2.26193e-06
-1.162e-05
9.72852e-06
-8.5251e-06
-7.34869e-06
1.18643e-05
-1.28301e-05
-7.52284e-07
4.4281e-06
-9.29762e-06
1.16688e-06
-3.23723e-07
-4.56244e-06
-2.47725e-06
1.04353e-06
-6.5074e-06
5.01977e-07
2.82884e-06
-1.27536e-05
4.32994e-06
1.5549e-06
-1.27306e-05
8.74786e-06
-7.53045e-06
-5.54234e-06
9.35195e-06
-1.65288e-05
8.24384e-06
-2.39268e-06
-1.17624e-05
1.08874e-05
-1.15931e-05
3.18506e-06
-3.34202e-06
-4.52544e-06
1.79083e-06
-6.15171e-06
5.34081e-06
-1.14802e-05
1.78413e-06
3.24659e-06
-1.30963e-05
1.14197e-05
-9.39239e-06
-8.1095e-06
1.40726e-05
-1.55172e-05
1.94812e-06
3.02912e-06
-1.0272e-05
4.33669e-06
-4.21332e-06
-1.70727e-06
-3.21903e-06
-2.11304e-07
-4.68157e-06
-8.02827e-07
3.72008e-06
-1.37817e-05
5.59416e-06
1.02827e-06
-1.32465e-05
1.02928e-05
-9.61879e-06
-4.41647e-06
1.00403e-05
-1.91042e-05
1.14733e-05
-4.05244e-06
-1.32194e-05
1.47563e-05
-1.56765e-05
5.06746e-06
-2.42919e-06
-7.11133e-06
4.24535e-06
-7.73167e-06
5.86524e-06
-1.1391e-05
1.93238e-06
3.3867e-06
-1.40708e-05
1.33103e-05
-1.09812e-05
-7.91617e-06
1.51927e-05
-1.76756e-05
4.69786e-06
1.24617e-06
-1.04949e-05
6.60185e-06
-7.32055e-06
7.11529e-07
-3.89424e-06
-1.13815e-06
-3.24976e-06
-1.73602e-06
4.12793e-06
-1.43536e-05
6.6526e-06
-4.38634e-08
-1.29953e-05
1.12469e-05
-1.16095e-05
-2.58885e-06
9.49782e-06
-2.03484e-05
1.37633e-05
-5.85589e-06
-1.33078e-05
1.66357e-05
-1.80179e-05
6.10951e-06
-1.88563e-06
-8.34247e-06
5.26022e-06
-8.19354e-06
6.08694e-06
-1.15402e-05
2.75012e-06
2.67953e-06
-1.43375e-05
1.47475e-05
-1.26182e-05
-6.71604e-06
1.51125e-05
-1.90089e-05
7.13726e-06
-9.16837e-07
-9.92532e-06
7.7588e-06
-9.4255e-06
2.50249e-06
-4.44412e-06
-1.7164e-06
-2.35681e-06
-2.09197e-06
3.95102e-06
-1.4405e-05
7.65068e-06
-1.48889e-06
-1.20098e-05
1.15371e-05
-1.34293e-05
-2.79915e-07
8.00901e-06
-2.04346e-05
1.51703e-05
-7.66535e-06
-1.23695e-05
1.6766e-05
-1.86296e-05
6.22451e-06
-1.68838e-06
-8.33909e-06
4.8999e-06
-7.6947e-06
5.9301e-06
-1.18644e-05
4.0857e-06
1.21053e-06
-1.38678e-05
1.57332e-05
-1.44192e-05
-4.70619e-06
1.38963e-05
-1.93788e-05
9.13981e-06
-3.24349e-06
-8.56901e-06
7.90267e-06
-1.05311e-05
3.60744e-06
-4.81902e-06
-1.95894e-06
-2.01807e-06
-1.93196e-06
3.28768e-06
-1.39698e-05
8.31924e-06
-3.16922e-06
-1.04681e-05
1.13239e-05
-1.49625e-05
2.18332e-06
5.81683e-06
-1.95575e-05
1.57765e-05
-9.18988e-06
-1.07485e-05
1.55134e-05
-1.77244e-05
5.48684e-06
-1.57856e-06
-7.47559e-06
3.39768e-06
-6.35642e-06
5.29519e-06
-1.23769e-05
5.74449e-06
-7.85255e-07
-1.28123e-05
1.62109e-05
-1.61934e-05
-2.04348e-06
1.18374e-05
-1.8952e-05
1.06145e-05
-5.51363e-06
-6.71373e-06
7.09938e-06
-1.06945e-05
4.09516e-06
-5.01937e-06
-1.83793e-06
-2.07178e-06
-1.41674e-06
2.24191e-06
-1.31353e-05
8.81712e-06
-5.00907e-06
-8.57546e-06
1.06834e-05
-1.61967e-05
4.75967e-06
3.29235e-06
-1.80769e-05
1.56018e-05
-1.02996e-05
-8.79641e-06
1.33044e-05
-1.5678e-05
4.01863e-06
-1.4438e-06
-6.00275e-06
1.11208e-06
-4.40463e-06
4.40996e-06
-1.28183e-05
7.52572e-06
-3.10485e-06
-1.13193e-05
1.62884e-05
-1.78798e-05
8.27679e-07
9.28205e-06
-1.78877e-05
1.15751e-05
-7.6239e-06
-4.57232e-06
5.72554e-06
-1.0206e-05
4.14792e-06
-5.14968e-06
-1.31617e-06
-2.34742e-06
-6.27255e-07
9.24228e-07
-1.20216e-05
9.09446e-06
-6.86159e-06
-6.43403e-06
9.73874e-06
-1.71651e-05
6.98505e-06
6.99532e-07
-1.62567e-05
1.48974e-05
-1.1012e-05
-6.83612e-06
1.05673e-05
-1.29253e-05
2.07679e-06
-1.23542e-06
-4.22894e-06
-1.63648e-06
-1.89614e-06
3.34824e-06
-1.3161e-05
9.39569e-06
-5.56232e-06
-9.58184e-06
1.60397e-05
-1.93624e-05
3.6985e-06
6.44956e-06
-1.63886e-05
1.2177e-05
-9.50808e-06
-2.40344e-06
4.04712e-06
-9.32265e-06
3.87565e-06
-5.11669e-06
-1.39578e-06
-2.8562e-06
3.04981e-07
-3.45102e-07
-1.07211e-05
9.17397e-06
-8.63134e-06
-4.21224e-06
8.60437e-06
-1.78831e-05
9.12326e-06
-1.84984e-06
-1.42395e-05
1.39043e-05
-1.13548e-05
-5.04379e-06
7.61407e-06
-9.9376e-06
-1.91875e-07
-8.69493e-07
-2.39924e-06
-4.86325e-06
7.40703e-07
2.01783e-06
-1.34012e-05
1.11359e-05
-8.00612e-06
-7.71786e-06
1.55806e-05
-2.05931e-05
6.38114e-06
3.56628e-06
-1.46428e-05
1.24577e-05
-1.10988e-05
-4.557e-07
2.2183e-06
-8.21767e-06
3.38434e-06
-4.93642e-06
-1.28978e-06
-3.54448e-06
1.30296e-06
-1.61034e-06
-9.30824e-06
9.10716e-06
-1.02988e-05
-1.95408e-06
7.41531e-06
-1.8415e-05
1.11046e-05
-4.19046e-06
-1.22215e-05
1.27922e-05
-1.13333e-05
-3.5508e-06
4.71828e-06
-7.17931e-06
-2.73804e-06
-3.23459e-07
-6.28598e-07
-7.85321e-06
3.40865e-06
5.858e-07
-1.3582e-05
1.27023e-05
-1.04061e-05
-5.87317e-06
1.49658e-05
-2.13892e-05
8.78423e-06
7.36595e-07
-1.28361e-05
1.25333e-05
-1.23991e-05
1.35692e-06
3.67059e-07
-7.04296e-06
2.84737e-06
-4.59719e-06
-1.20049e-06
-4.20523e-06
2.26056e-06
-2.84306e-06
-7.83708e-06
8.93997e-06
-1.18916e-05
1.61502e-07
6.24251e-06
-1.87386e-05
1.28451e-05
-6.33041e-06
-1.0398e-05
1.1605e-05
-1.09821e-05
-2.37135e-06
2.0332e-06
-3.27681e-06
-5.3563e-06
3.96541e-07
9.8603e-07
-1.08367e-05
6.09538e-06
-8.46796e-07
-1.36039e-05
1.4006e-05
-1.26157e-05
-4.01397e-06
1.41896e-05
-2.21669e-05
1.08825e-05
-1.88909e-06
-1.10067e-05
1.24242e-05
-1.35722e-05
2.90806e-06
-1.30808e-06
-5.82487e-06
2.25652e-06
-4.22664e-06
-1.21089e-06
-4.77577e-06
3.19132e-06
-4.17794e-06
-6.49462e-06
8.64565e-06
-1.32981e-05
2.22336e-06
5.08789e-06
-1.90058e-05
1.43439e-05
-8.18699e-06
-8.73437e-06
1.04039e-05
-1.04829e-05
-1.54257e-06
-3.42309e-07
6.47583e-08
-8.0294e-06
1.20937e-06
2.32683e-06
-1.36429e-05
8.64073e-06
-2.31444e-06
-1.35745e-05
1.50519e-05
-1.46036e-05
-2.23044e-06
1.33831e-05
-2.28023e-05
1.25117e-05
-4.18191e-06
-9.13669e-06
1.21922e-05
-1.45615e-05
4.06632e-06
-2.85537e-06
-4.54653e-06
1.72151e-06
-3.88939e-06
-1.38422e-06
-5.25965e-06
4.1243e-06
-5.36372e-06
-5.28724e-06
8.17241e-06
-1.46007e-05
4.25651e-06
4.1201e-06
-1.92456e-05
1.54996e-05
-9.84825e-06
-7.24896e-06
9.39646e-06
-9.91061e-06
-1.249e-06
-2.44682e-06
3.10192e-06
-1.0552e-05
2.07897e-06
3.23733e-06
-1.62196e-05
1.10091e-05
-3.74774e-06
-1.35187e-05
1.5797e-05
-1.60793e-05
-5.22723e-07
1.23568e-05
-2.34201e-05
1.37227e-05
-5.83791e-06
-7.46568e-06
1.16254e-05
-1.55088e-05
4.9113e-06
-3.94679e-06
-3.3359e-06
1.05108e-06
-3.75014e-06
-1.59159e-06
-5.33335e-06
5.05014e-06
-6.58704e-06
-4.39537e-06
7.63448e-06
-1.55093e-05
6.2261e-06
3.13193e-06
-1.96077e-05
1.63959e-05
-1.10387e-05
-5.8109e-06
8.38148e-06
-9.50006e-06
-1.3313e-06
-3.93335e-06
5.99717e-06
-1.30389e-05
2.75079e-06
3.77617e-06
-1.82102e-05
1.35219e-05
-5.22391e-06
-1.35823e-05
1.64608e-05
-1.68195e-05
1.08123e-06
1.10193e-05
-2.41361e-05
1.4774e-05
-6.72704e-06
-6.02765e-06
1.0789e-05
-1.63437e-05
5.55892e-06
-4.46405e-06
-2.23043e-06
2.55204e-07
-3.90895e-06
-1.6748e-06
-4.91934e-06
5.92149e-06
-7.80321e-06
-3.71178e-06
7.08034e-06
-1.59265e-05
8.1204e-06
2.153e-06
-2.01572e-05
1.70834e-05
-1.16364e-05
-4.55185e-06
7.30406e-06
-9.27612e-06
-1.58793e-06
-4.60033e-06
8.52127e-06
-1.54544e-05
3.07555e-06
4.17382e-06
-1.94026e-05
1.57479e-05
-6.71872e-06
-1.38363e-05
1.78379e-05
-1.706e-05
1.76207e-06
9.19143e-06
-2.44012e-05
1.62055e-05
-7.17852e-06
-5.53036e-06
9.56862e-06
-1.68037e-05
6.68858e-06
-4.61907e-06
-1.88268e-06
-8.55847e-07
-3.78537e-06
-9.50537e-07
-4.57291e-06
6.03416e-06
-9.25954e-06
-2.9203e-06
7.2709e-06
-1.6272e-05
9.07196e-06
8.743e-07
-2.03638e-05
1.82865e-05
-1.17596e-05
-4.30011e-06
5.89246e-06
-8.84957e-06
-1.2467e-06
-4.69307e-06
9.79365e-06
-1.79251e-05
3.66883e-06
5.17865e-06
-2.00407e-05
1.68282e-05
-8.4232e-06
-1.37462e-05
1.89822e-05
-1.76857e-05
1.8829e-06
9.5314e-06
-2.40224e-05
1.68944e-05
-7.946e-06
-5.37744e-06
9.15588e-06
-1.65462e-05
7.5244e-06
-5.18162e-06
-1.89197e-06
-1.16281e-06
-3.25935e-06
-9.66421e-07
-4.90134e-06
5.79915e-06
-9.82312e-06
-1.83952e-06
7.39964e-06
-1.7004e-05
9.42312e-06
4.005e-07
-1.99823e-05
1.891e-05
-1.22554e-05
-4.50601e-06
5.52678e-06
-8.04506e-06
-1.24712e-06
-5.18978e-06
1.02837e-05
-1.89973e-05
4.64592e-06
5.66755e-06
-2.09868e-05
1.72417e-05
-8.84822e-06
-1.3149e-05
1.88083e-05
-1.80436e-05
1.99539e-06
9.82568e-06
-2.38336e-05
1.70533e-05
-8.30391e-06
-5.06139e-06
8.93462e-06
-1.64505e-05
7.90774e-06
-5.46114e-06
-1.73172e-06
-1.26609e-06
-3.04472e-06
-1.07596e-06
-5.04036e-06
5.71548e-06
-1.01946e-05
-1.29594e-06
7.2392e-06
-1.73499e-05
9.6741e-06
2.30992e-07
-1.98017e-05
1.89739e-05
-1.24263e-05
-4.65581e-06
5.51144e-06
-7.66547e-06
-1.48237e-06
-5.36653e-06
1.05868e-05
-1.94202e-05
5.06117e-06
5.8441e-06
-2.14426e-05
1.74915e-05
-8.85193e-06
-1.2939e-05
1.86566e-05
-1.82309e-05
2.02324e-06
9.91835e-06
-2.36091e-05
1.71736e-05
-8.49896e-06
-4.9102e-06
8.57535e-06
-1.6234e-05
7.95348e-06
-5.64995e-06
-1.70218e-06
-1.34698e-06
-2.88384e-06
-1.15309e-06
-5.12081e-06
5.56423e-06
-1.00414e-05
-1.01204e-06
7.09397e-06
-1.74954e-05
9.74462e-06
1.51091e-07
-1.96442e-05
1.89462e-05
-1.24663e-05
-4.7932e-06
5.57248e-06
-7.4682e-06
-1.51984e-06
-5.44826e-06
1.06652e-05
-1.9457e-05
5.16219e-06
6.10048e-06
-2.16022e-05
1.74358e-05
-8.76242e-06
-1.28082e-05
1.84789e-05
-1.82652e-05
2.02459e-06
9.90329e-06
-2.32777e-05
1.70554e-05
-8.52804e-06
-4.8467e-06
8.16133e-06
-1.58576e-05
7.75375e-06
-5.73499e-06
-1.72853e-06
-1.39299e-06
-2.70645e-06
-1.24929e-06
-5.20491e-06
5.42136e-06
-9.90705e-06
-8.64652e-07
7.04032e-06
-1.75415e-05
9.72531e-06
7.87208e-08
-1.94575e-05
1.88435e-05
-1.24319e-05
-4.86722e-06
5.5897e-06
-7.35311e-06
-1.51253e-06
-5.46046e-06
1.05806e-05
-1.93334e-05
5.13451e-06
6.23135e-06
-2.1558e-05
1.72358e-05
-8.6386e-06
-1.26818e-05
1.8185e-05
-1.8246e-05
2.06503e-06
9.73228e-06
-2.27629e-05
1.68692e-05
-8.54957e-06
-4.81921e-06
8.16855e-06
-1.54549e-05
7.49573e-06
-5.75437e-06
-1.7953e-06
-1.45899e-06
-2.57713e-06
-1.34308e-06
-5.21603e-06
5.22043e-06
-9.78396e-06
-7.2184e-07
6.8798e-06
-1.74792e-05
9.66374e-06
-6.74153e-08
-1.91411e-05
1.86277e-05
-1.23888e-05
-4.83666e-06
5.49594e-06
-7.2104e-06
-1.49394e-06
-5.46504e-06
1.03791e-05
-1.90785e-05
5.06983e-06
6.21636e-06
-2.13336e-05
1.68682e-05
-8.53182e-06
-1.24095e-05
1.77533e-05
-1.81101e-05
2.10527e-06
9.42754e-06
-2.21682e-05
1.65951e-05
-8.5954e-06
-4.72388e-06
8.00648e-06
-1.50312e-05
7.22499e-06
-5.7608e-06
-1.84907e-06
-1.53243e-06
-2.45176e-06
-1.43482e-06
-5.19759e-06
5.00232e-06
-9.65634e-06
-6.06435e-07
6.65734e-06
-1.73128e-05
9.52606e-06
-2.56485e-07
-1.87119e-05
1.82763e-05
-1.23179e-05
-4.73759e-06
5.31059e-06
-7.03838e-06
-1.51617e-06
-5.45726e-06
1.01203e-05
-1.87257e-05
5.0142e-06
6.08735e-06
-2.10156e-05
1.64248e-05
-8.40199e-06
-1.20819e-05
1.7277e-05
-1.79359e-05
2.14257e-06
9.07301e-06
-2.156e-05
1.62705e-05
-8.64599e-06
-4.58613e-06
7.75571e-06
-1.46062e-05
6.96188e-06
-5.76623e-06
-1.88939e-06
-1.61354e-06
-2.33612e-06
-1.56507e-06
-5.15542e-06
4.76793e-06
-9.53158e-06
-5.03756e-07
6.39629e-06
-1.70925e-05
9.3563e-06
-4.54976e-07
-1.82421e-05
1.78514e-05
-1.225e-05
-4.61384e-06
5.08151e-06
-6.85505e-06
-1.56416e-06
-5.42829e-06
9.82536e-06
-1.83725e-05
4.9875e-06
5.84512e-06
-2.06254e-05
1.59831e-05
-8.32075e-06
-1.17174e-05
1.67958e-05
-1.77541e-05
2.18913e-06
8.69935e-06
-2.09953e-05
1.59452e-05
-8.69953e-06
-4.42824e-06
7.46361e-06
-1.42165e-05
6.72725e-06
-5.78132e-06
-1.9049e-06
-1.7033e-06
-2.23563e-06
-1.68494e-06
-5.10465e-06
4.54123e-06
-9.40362e-06
-4.19509e-07
6.1208e-06
-1.68576e-05
9.19196e-06
-6.6022e-07
-1.77819e-05
1.74202e-05
-1.21955e-05
-4.47895e-06
4.83561e-06
-6.68089e-06
-1.62951e-06
-5.39243e-06
9.54184e-06
-1.8066e-05
4.98167e-06
5.55625e-06
-2.02207e-05
1.55638e-05
-8.2771e-06
-1.13466e-05
1.63655e-05
-1.75924e-05
2.2403e-06
8.34747e-06
-2.05196e-05
1.56602e-05
-8.75663e-06
-4.27547e-06
7.18199e-06
-1.38939e-05
6.53601e-06
-5.8066e-06
-1.90266e-06
-1.79529e-06
-2.14963e-06
-1.78692e-06
-5.05979e-06
4.34652e-06
-9.30235e-06
-3.52376e-07
5.86645e-06
-1.66458e-05
9.05015e-06
-8.56851e-07
-1.73785e-05
1.70351e-05
-1.21625e-05
-4.34987e-06
4.60016e-06
-6.53586e-06
-1.69581e-06
-5.35886e-06
9.29272e-06
-1.783e-05
4.99727e-06
5.26745e-06
-1.98579e-05
1.52078e-05
-8.26866e-06
-1.10158e-05
1.60251e-05
-1.74753e-05
2.29033e-06
8.04994e-06
-2.01644e-05
1.54364e-05
-8.81757e-06
-4.14725e-06
6.94631e-06
-1.36608e-05
6.39877e-06
-5.84277e-06
-1.89329e-06
-1.88034e-06
-2.0873e-06
-1.86768e-06
-5.02778e-06
4.1937e-06
-9.23719e-06
-3.03029e-07
5.65814e-06
-1.6484e-05
8.94003e-06
-1.03064e-06
-1.70652e-05
1.67326e-05
-1.21563e-05
-4.24312e-06
4.40109e-06
-6.43365e-06
-1.75224e-06
-5.33801e-06
9.09601e-06
-1.76734e-05
5.02442e-06
5.01537e-06
-1.95737e-05
1.49369e-05
-8.29192e-06
-1.07552e-05
1.57948e-05
-1.7418e-05
2.33352e-06
7.82608e-06
-1.99477e-05
1.53004e-05
-8.88167e-06
-4.06447e-06
6.77393e-06
-1.3526e-05
6.2911e-06
-5.88876e-06
-1.88485e-06
-1.9546e-06
-2.05213e-06
-1.92766e-06
-5.01279e-06
4.08634e-06
-9.2111e-06
-2.73938e-07
5.50787e-06
-1.63885e-05
8.87381e-06
-1.17215e-06
-1.68628e-05
1.65327e-05
-1.21785e-05
-4.16938e-06
4.25266e-06
-6.38094e-06
-1.79533e-06
-5.33503e-06
8.96128e-06
-1.75994e-05
5.05221e-06
4.82181e-06
-1.93927e-05
1.47608e-05
-8.3396e-06
-1.05828e-05
1.56765e-05
-1.74208e-05
2.37364e-06
7.67357e-06
-1.98614e-05
1.52505e-05
-8.95706e-06
-3.99582e-06
6.65612e-06
-1.34774e-05
6.2623e-06
-5.94509e-06
-1.86681e-06
-2.02281e-06
-2.0376e-06
-1.9698e-06
-5.01238e-06
4.02144e-06
-9.22073e-06
-2.54698e-07
5.41023e-06
-1.63581e-05
8.85421e-06
-1.2846e-06
-1.67683e-05
1.64432e-05
-1.22274e-05
-4.11054e-06
4.14443e-06
-6.3674e-06
-1.82449e-06
-5.3506e-06
8.89453e-06
-1.76035e-05
5.08835e-06
4.68241e-06
-1.93137e-05
1.46876e-05
-8.40724e-06
-1.04413e-05
-3.50196e-06
5.98122e-06
-1.02373e-05
5.69295e-07
1.77262e-06
-7.72314e-06
4.80004e-06
-6.17665e-06
-4.02343e-06
4.75708e-06
-6.5438e-06
-3.50461e-06
4.83624e-06
-7.02144e-06
-5.65907e-06
6.14566e-06
-7.22704e-06
-3.84203e-06
6.82837e-06
-1.2266e-05
2.10674e-06
2.35462e-06
-1.12663e-05
4.3502e-06
-2.933e-06
-2.63247e-06
-3.41145e-06
2.02507e-06
-6.15986e-06
-2.8819e-06
4.36023e-06
-1.04939e-05
6.10776e-06
-5.64095e-06
-5.3341e-06
5.04326e-06
-5.69194e-06
-2.36941e-06
2.06487e-06
-5.54616e-06
4.31379e-07
2.90023e-06
-9.55053e-06
3.13001e-06
-2.15145e-06
-6.2457e-06
5.87337e-06
-7.18385e-06
-4.31086e-06
5.80574e-06
-7.08467e-06
-4.39846e-06
6.98547e-06
-1.03792e-05
-1.22252e-06
4.23501e-06
-8.52467e-06
-5.20397e-07
3.86688e-06
-1.14035e-05
3.0386e-06
8.61713e-07
-1.00135e-05
4.67743e-06
-4.4621e-06
-1.65153e-06
-2.98829e-06
6.11536e-07
-5.42367e-06
-2.0536e-06
3.16834e-06
-1.07021e-05
7.10914e-06
-5.49443e-06
-6.88965e-06
7.2045e-06
-8.53475e-06
1.62525e-07
1.96794e-06
-8.25249e-06
2.59524e-06
9.74597e-07
-8.98305e-06
5.09692e-06
-5.50805e-06
-4.5195e-06
5.54376e-06
-6.76468e-06
-4.6155e-06
5.32088e-06
-5.86375e-06
-5.48221e-06
7.51777e-06
-1.0904e-05
-4.77997e-07
3.31723e-06
-9.13869e-06
1.48e-06
1.95127e-06
-1.05314e-05
2.88835e-06
4.29164e-07
-9.29487e-06
4.04458e-06
-4.18723e-06
-3.10231e-06
-3.73287e-07
-2.41586e-06
-3.75848e-06
-9.31424e-07
-3.53148e-08
-7.57264e-06
5.01275e-06
-4.58925e-06
-6.81251e-06
6.04651e-06
-7.91816e-06
6.31636e-07
2.18222e-06
-9.6843e-06
2.96967e-06
6.65269e-07
-9.10479e-06
6.53673e-06
-7.2904e-06
-4.52387e-06
6.63614e-06
-7.02056e-06
-4.20645e-06
5.02006e-06
-5.79131e-06
-4.98668e-06
6.28115e-06
-9.44869e-06
-1.01344e-06
2.96945e-06
-9.06778e-06
1.90595e-06
1.57016e-06
-1.06194e-05
2.71367e-06
1.19639e-06
-1.02119e-05
4.77022e-06
-4.20912e-06
-4.97832e-06
3.60056e-06
-7.05709e-06
-6.75551e-07
-2.67934e-07
-4.33e-06
-2.05802e-06
5.85043e-07
-2.80765e-06
-5.41425e-06
2.57226e-06
-4.96111e-06
-4.36935e-07
2.60245e-06
-1.00866e-05
2.40805e-06
1.84083e-06
-1.02385e-05
8.18251e-06
-8.07304e-06
-5.87977e-06
9.09958e-06
-9.63772e-06
-2.83749e-06
4.41893e-06
-6.72036e-06
-2.78119e-06
3.26881e-06
-6.76325e-06
-2.22411e-06
2.51903e-06
-8.06344e-06
1.08782e-06
2.35924e-06
-1.16367e-05
3.06534e-06
1.90711e-06
-1.17919e-05
6.49855e-06
-5.15162e-06
-6.202e-06
7.22557e-06
-1.19153e-05
3.12836e-06
-4.27141e-07
-8.50008e-06
4.31643e-06
-5.00262e-06
-4.45434e-07
-3.67009e-06
-1.61462e-06
-1.3729e-06
-3.74624e-06
3.14534e-06
-1.01003e-05
1.66967e-06
2.73612e-06
-1.18107e-05
1.02496e-05
-8.84261e-06
-7.25276e-06
1.1953e-05
-1.26204e-05
-5.08004e-07
3.36095e-06
-7.91694e-06
3.43717e-07
-5.82667e-07
-3.53651e-06
-3.73456e-06
2.03725e-06
-6.71393e-06
-2.51168e-07
3.62779e-06
-1.30236e-05
4.04784e-06
1.98734e-06
-1.30349e-05
8.35044e-06
-6.61529e-06
-6.45614e-06
9.77888e-06
-1.60958e-05
7.13038e-06
-1.5476e-06
-1.15866e-05
1.00866e-05
-1.06452e-05
2.17297e-06
-2.30093e-06
-5.2955e-06
2.02562e-06
-5.24701e-06
3.92589e-06
-1.0064e-05
1.4345e-06
3.36842e-06
-1.31943e-05
1.23686e-05
-9.9138e-06
-8.01491e-06
1.42515e-05
-1.54463e-05
2.16736e-06
1.92327e-06
-8.73592e-06
3.14163e-06
-4.18085e-06
-4.86125e-07
-5.2662e-06
1.60296e-06
-5.45632e-06
-1.49839e-06
4.64057e-06
-1.41383e-05
5.22541e-06
1.58409e-06
-1.36907e-05
9.9494e-06
-8.49149e-06
-5.62417e-06
1.08392e-05
-1.91128e-05
1.06843e-05
-3.29314e-06
-1.30382e-05
1.41452e-05
-1.50888e-05
4.38435e-06
-1.42601e-06
-7.76157e-06
4.2189e-06
-7.27431e-06
4.62817e-06
-1.02778e-05
1.86752e-06
3.26971e-06
-1.40966e-05
1.39487e-05
-1.13837e-05
-7.82926e-06
1.54263e-05
-1.76802e-05
4.92117e-06
2.00195e-07
-8.91991e-06
5.11512e-06
-6.98536e-06
1.86884e-06
-6.49112e-06
1.16638e-06
-4.45564e-06
-2.3412e-06
5.14295e-06
-1.48032e-05
6.3885e-06
5.5248e-07
-1.35373e-05
1.10126e-05
-1.05584e-05
-3.94343e-06
1.04613e-05
-2.0654e-05
1.33289e-05
-5.29072e-06
-1.3151e-05
1.61832e-05
-1.77593e-05
5.84772e-06
-1.03899e-06
-8.82976e-06
5.04618e-06
-7.43518e-06
5.11164e-06
-1.07169e-05
2.91485e-06
2.39247e-06
-1.43214e-05
1.5295e-05
-1.30758e-05
-6.57441e-06
1.52996e-05
-1.90202e-05
7.23744e-06
-1.72557e-06
-8.42698e-06
6.05855e-06
-8.8677e-06
3.46052e-06
-6.92757e-06
7.99255e-07
-3.80807e-06
-2.65868e-06
5.00947e-06
-1.48984e-05
7.43516e-06
-1.02759e-06
-1.25801e-05
1.14379e-05
-1.23991e-05
-1.68317e-06
8.9881e-06
-2.09522e-05
1.50712e-05
-7.26355e-06
-1.21662e-05
1.64032e-05
-1.86231e-05
6.42734e-06
-9.84172e-07
-8.65855e-06
4.52802e-06
-6.85855e-06
5.21315e-06
-1.12995e-05
4.48586e-06
8.04623e-07
-1.38333e-05
1.6262e-05
-1.49405e-05
-4.43923e-06
1.40053e-05
-1.93403e-05
9.05522e-06
-3.75674e-06
-7.28677e-06
5.92977e-06
-9.91827e-06
4.26084e-06
-7.10164e-06
5.20896e-07
-3.5491e-06
-2.47383e-06
4.3131e-06
-1.4455e-05
8.16214e-06
-2.80081e-06
-1.1017e-05
1.13295e-05
-1.40523e-05
9.65842e-07
6.7562e-06
-2.02191e-05
1.59473e-05
-8.96352e-06
-1.04753e-05
1.52201e-05
-1.78876e-05
6.0346e-06
-1.05263e-06
-7.61394e-06
2.9592e-06
-5.57449e-06
4.91503e-06
-1.20055e-05
6.34223e-06
-1.33965e-06
-1.27786e-05
1.67947e-05
-1.67119e-05
-1.7981e-06
1.18062e-05
-1.88685e-05
1.03153e-05
-5.65598e-06
-5.73871e-06
5.36352e-06
-9.77912e-06
4.38336e-06
-6.87921e-06
3.18952e-07
-3.61586e-06
-1.90779e-06
3.209e-06
-1.35678e-05
8.69595e-06
-4.74357e-06
-9.04797e-06
1.08101e-05
-1.54539e-05
3.67171e-06
4.07441e-06
-1.87361e-05
1.60199e-05
-1.02331e-05
-8.46083e-06
1.28798e-05
-1.59091e-05
4.92482e-06
-1.13965e-06
-5.99244e-06
5.69275e-07
-3.75902e-06
4.31163e-06
-1.26483e-05
8.32271e-06
-3.77137e-06
-1.13101e-05
1.69467e-05
-1.841e-05
1.15822e-06
9.14648e-06
-1.77741e-05
1.10166e-05
-7.34797e-06
-4.05118e-06
4.23179e-06
-9.14125e-06
3.97943e-06
-6.4162e-06
1.60026e-07
-3.94258e-06
-1.06242e-06
1.90115e-06
-1.2376e-05
9.05559e-06
-6.73687e-06
-6.8197e-06
9.90359e-06
-1.66157e-05
6.27529e-06
1.25662e-06
-1.68193e-05
1.54417e-05
-1.10719e-05
-6.41372e-06
1.01011e-05
-1.30717e-05
3.13252e-06
-1.14409e-06
-4.05723e-06
-2.37911e-06
-1.58109e-06
3.49865e-06
-1.31679e-05
1.02899e-05
-6.34671e-06
-9.60433e-06
1.68345e-05
-1.98815e-05
4.13877e-06
6.21968e-06
-1.63156e-05
1.13488e-05
-8.75999e-06
-2.46374e-06
2.74403e-06
-8.17775e-06
3.2505e-06
-5.75673e-06
-7.10518e-08
-4.44332e-06
-1.21591e-07
4.96992e-07
-1.09545e-05
9.21474e-06
-8.68986e-06
-4.49713e-06
8.84726e-06
-1.75291e-05
8.705e-06
-1.54688e-06
-1.47765e-05
1.45148e-05
-1.15515e-05
-4.55384e-06
7.12031e-06
-9.62805e-06
9.08393e-07
-1.00968e-06
-2.09976e-06
-5.36988e-06
8.2867e-07
2.46266e-06
-1.35901e-05
1.21226e-05
-8.88407e-06
-7.79831e-06
1.64481e-05
-2.109e-05
6.92361e-06
3.30827e-06
-1.47503e-05
1.13518e-05
-9.90576e-06
-9.61514e-07
1.16957e-06
-7.05455e-06
2.28905e-06
-4.97807e-06
-2.84826e-07
-4.86017e-06
8.31827e-07
-7.67042e-07
-9.41968e-06
9.22498e-06
-1.05483e-05
-2.22469e-06
7.66531e-06
-1.824e-05
1.09201e-05
-4.21355e-06
-1.28683e-05
1.34115e-05
-1.16815e-05
-2.97233e-06
4.21199e-06
-5.69016e-06
-1.49827e-06
-6.79757e-07
-2.09594e-07
-8.35857e-06
3.2663e-06
1.32341e-06
-1.39365e-05
1.36546e-05
-1.13782e-05
-5.98765e-06
1.59569e-05
-2.20237e-05
9.27286e-06
5.4722e-07
-1.31073e-05
1.11841e-05
-1.07946e-05
2.09977e-07
-3.97382e-07
-5.96225e-06
1.26285e-06
-4.11891e-06
-5.20576e-07
-5.30506e-06
1.70731e-06
-1.46968e-06
-7.8687e-06
9.10276e-06
-1.23213e-05
-2.09241e-09
6.47988e-06
-1.87988e-05
1.2893e-05
-6.63157e-06
-1.10421e-05
1.2257e-05
-1.15108e-05
-1.72535e-06
1.45399e-06
-3.04219e-06
-4.00073e-06
-1.92492e-07
1.50171e-06
-1.12839e-05
5.54989e-06
2.08294e-07
-1.40937e-05
1.48163e-05
-1.3737e-05
-4.3627e-06
1.54028e-05
-2.27486e-05
1.10862e-05
-2.74042e-06
-1.16428e-05
1.09402e-05
-1.14619e-05
1.31239e-06
-1.83184e-06
-5.02152e-06
2.40878e-07
-3.22436e-06
-8.66776e-07
-5.71852e-06
2.46655e-06
-3.71047e-06
-6.39009e-06
8.88536e-06
-1.39713e-05
2.11059e-06
5.27434e-06
-1.92666e-05
1.45998e-05
-8.80968e-06
-9.41009e-06
1.10653e-05
-1.11714e-05
-8.04685e-07
-9.98929e-07
-1.12773e-07
-6.52277e-06
3.49935e-07
2.9581e-06
-1.40079e-05
7.7386e-06
-9.10441e-07
-1.41021e-05
1.56991e-05
-1.58143e-05
-2.84654e-06
1.49581e-05
-2.33945e-05
1.31096e-05
-4.91463e-06
-1.03533e-05
1.07872e-05
-1.2026e-05
2.14241e-06
-3.07354e-06
-4.18993e-06
-6.60874e-07
-2.3266e-06
-1.34283e-06
-6.09852e-06
3.21845e-06
-5.2933e-06
-4.99951e-06
8.55284e-06
-1.54792e-05
4.12903e-06
4.28209e-06
-1.96675e-05
1.59854e-05
-1.05746e-05
-7.92288e-06
1.00201e-05
-1.07711e-05
-2.50031e-07
-2.99882e-06
2.78664e-06
-8.91236e-06
9.14493e-07
4.12016e-06
-1.63958e-05
9.91553e-06
-1.95866e-06
-1.41267e-05
1.6588e-05
-1.74468e-05
-1.59932e-06
1.47016e-05
-2.39992e-05
1.47682e-05
-6.6666e-06
-9.24292e-06
1.06713e-05
-1.25474e-05
2.81747e-06
-4.01928e-06
-3.5076e-06
-1.42233e-06
-1.45818e-06
-1.73847e-06
-6.33347e-06
3.87513e-06
-6.55099e-06
-3.73625e-06
8.33981e-06
-1.66773e-05
5.95095e-06
3.43723e-06
-1.99914e-05
1.72618e-05
-1.18956e-05
-6.83261e-06
9.12404e-06
-1.02841e-05
-1.70709e-07
-4.48043e-06
5.40301e-06
-1.12073e-05
1.5003e-06
5.19824e-06
-1.83117e-05
1.16639e-05
-2.99595e-06
-1.42414e-05
1.74696e-05
-1.87128e-05
-7.0078e-07
1.46841e-05
-2.44908e-05
1.61987e-05
-8.09704e-06
-8.4104e-06
1.05663e-05
-1.29216e-05
3.58272e-06
-4.78561e-06
-3.0623e-06
-1.99742e-06
-5.63767e-07
-1.99657e-06
-6.51328e-06
4.31201e-06
-7.56502e-06
-2.47726e-06
8.40446e-06
-1.76836e-05
7.34184e-06
2.70412e-06
-2.01839e-05
1.85445e-05
-1.28649e-05
-6.14407e-06
8.3764e-06
-9.63359e-06
2.00436e-07
-5.57711e-06
7.11683e-06
-1.33387e-05
2.19551e-06
6.28716e-06
-1.98646e-05
1.31525e-05
-3.9856e-06
-1.42981e-05
1.80368e-05
-2.00172e-05
-2.18761e-07
1.52494e-05
-2.43226e-05
1.73339e-05
-9.45637e-06
-7.90536e-06
1.0767e-05
-1.25449e-05
4.32595e-06
-5.62106e-06
-2.86886e-06
-2.21767e-06
4.55711e-07
-2.33203e-06
-6.92458e-06
4.55376e-06
-8.17282e-06
-1.18972e-06
8.54519e-06
-1.88612e-05
8.29761e-06
2.21753e-06
-2.00533e-05
1.96115e-05
-1.38388e-05
-5.92473e-06
8.0041e-06
-8.77331e-06
3.7459e-07
-6.63993e-06
8.25349e-06
-1.49628e-05
3.25343e-06
7.16499e-06
-2.13903e-05
1.41862e-05
-4.61796e-06
-1.39565e-05
1.76076e-05
-2.09264e-05
5.46874e-07
1.49637e-05
-2.45172e-05
1.76598e-05
-1.04401e-05
-7.03116e-06
1.13684e-05
-1.24399e-05
4.38486e-06
-6.17629e-06
-2.29569e-06
-1.97371e-06
1.02755e-06
-3.28068e-06
-7.09386e-06
5.18489e-06
-8.43872e-06
-4.02585e-07
8.0569e-06
-1.98934e-05
9.51578e-06
2.13222e-06
-2.02204e-05
1.98346e-05
-1.45612e-05
-5.46833e-06
8.2157e-06
-8.32993e-06
-1.6221e-07
-7.36194e-06
9.60431e-06
-1.57595e-05
3.84982e-06
7.24888e-06
-2.26861e-05
1.55232e-05
-4.60116e-06
-1.39286e-05
1.83623e-05
-2.0968e-05
1.18229e-06
1.46405e-05
-2.50287e-05
1.80247e-05
-1.05511e-05
-6.31842e-06
1.13436e-05
-1.26765e-05
4.47798e-06
-6.09644e-06
-1.82159e-06
-2.27747e-06
1.07955e-06
-3.45e-06
-6.80497e-06
5.71218e-06
-8.99878e-06
-2.53985e-07
7.96598e-06
-2.02765e-05
1.05992e-05
1.73939e-06
-2.07598e-05
2.03669e-05
-1.45123e-05
-5.17074e-06
8.13329e-06
-8.40489e-06
-3.31885e-07
-7.26112e-06
1.07953e-05
-1.65731e-05
3.77937e-06
7.56349e-06
-2.30235e-05
1.67771e-05
-4.78304e-06
-1.43739e-05
1.90545e-05
-2.11046e-05
1.43255e-06
1.44791e-05
-2.49718e-05
1.83123e-05
-1.06511e-05
-6.09706e-06
1.12686e-05
-1.25049e-05
4.51492e-06
-6.10818e-06
-1.81946e-06
-2.45217e-06
1.30474e-06
-3.41926e-06
-6.84284e-06
5.74978e-06
-9.29689e-06
1.18913e-08
8.05749e-06
-2.07722e-05
1.08319e-05
1.63049e-06
-2.08959e-05
2.08526e-05
-1.45883e-05
-5.30891e-06
8.32638e-06
-8.25394e-06
-2.14223e-07
-7.32708e-06
1.10185e-05
-1.69415e-05
3.90543e-06
8.05789e-06
-2.33699e-05
1.6742e-05
-4.77692e-06
-1.43877e-05
1.92996e-05
-2.10795e-05
1.69201e-06
1.43736e-05
-2.48343e-05
1.82398e-05
-1.05093e-05
-5.96769e-06
1.12957e-05
-1.23391e-05
4.3263e-06
-6.00367e-06
-1.74415e-06
-2.48402e-06
1.29548e-06
-3.48774e-06
-6.78578e-06
5.89e-06
-9.42966e-06
1.08543e-07
8.01478e-06
-2.07427e-05
1.11473e-05
1.56515e-06
-2.09842e-05
2.09884e-05
-1.45594e-05
-5.19352e-06
8.40498e-06
-8.18547e-06
-2.47245e-07
-7.30752e-06
1.12675e-05
-1.69735e-05
3.92215e-06
8.20571e-06
-2.34085e-05
1.67876e-05
-4.67309e-06
-1.43422e-05
1.92805e-05
-2.09109e-05
1.89996e-06
1.40882e-05
-2.4579e-05
1.81693e-05
-1.03551e-05
-5.88148e-06
1.09298e-05
-1.22408e-05
4.2502e-06
-5.85245e-06
-1.76222e-06
-2.45434e-06
1.22898e-06
-3.46388e-06
-6.57539e-06
5.8866e-06
-9.51456e-06
2.40854e-07
7.90297e-06
-2.05127e-05
1.13275e-05
1.36268e-06
-2.08072e-05
2.09676e-05
-1.44254e-05
-5.02925e-06
8.31802e-06
-8.08608e-06
-2.0529e-07
-7.15605e-06
1.12823e-05
-1.68374e-05
3.88097e-06
8.23804e-06
-2.3107e-05
1.66144e-05
-4.64062e-06
-1.41328e-05
1.90524e-05
-2.0594e-05
2.09183e-06
1.36734e-05
-2.41373e-05
1.79807e-05
-1.02367e-05
-5.6449e-06
1.0518e-05
-1.20762e-05
4.19155e-06
-5.76505e-06
-1.68251e-06
-2.42937e-06
1.17182e-06
-3.42557e-06
-6.37628e-06
5.84826e-06
-9.47018e-06
3.0771e-07
7.71111e-06
-2.01275e-05
1.13564e-05
1.16912e-06
-2.04316e-05
2.07245e-05
-1.42251e-05
-4.80252e-06
8.13622e-06
-7.92233e-06
-1.96635e-07
-6.98273e-06
1.11949e-05
-1.66369e-05
3.8216e-06
8.16979e-06
-2.26795e-05
1.63504e-05
-4.57857e-06
-1.38741e-05
1.87332e-05
-2.02325e-05
2.29041e-06
1.32004e-05
-2.3609e-05
1.77264e-05
-1.01064e-05
-5.33889e-06
1.00771e-05
-1.18358e-05
4.09757e-06
-5.67568e-06
-1.57034e-06
-2.42588e-06
1.13955e-06
-3.41914e-06
-6.1309e-06
5.77533e-06
-9.39635e-06
3.73535e-07
7.49275e-06
-1.96878e-05
1.13284e-05
9.50318e-07
-1.9969e-05
2.03818e-05
-1.39965e-05
-4.54227e-06
7.88011e-06
-7.72995e-06
-2.09413e-07