/*--------------------------------*- C++ -*----------------------------------*\
  =========                 |
  \\      /  F ield         | OpenFOAM: The Open Source CFD Toolbox
   \\    /   O peration     | Website:  https://openfoam.org
    \\  /    A nd           | Version:  10
     \\/     M anipulation  |
\*---------------------------------------------------------------------------*/
FoamFile
{
    format      ascii;
    class       volVectorField;
    location    "30";
    object      UMean;
}
// * * * * * * * * * * * * * * * * * * * * * * * * * * * * * * * * * * * * * //

dimensions      [0 1 -1 0 0 0 0];

internalField   nonuniform List<vector> 
25600
(
(1.03021 -7.7762e-07 8.18504e-07)
(1.03021 -2.7825e-07 3.74475e-07)
(1.03021 -5.76959e-07 7.83908e-07)
(1.03021 -2.36275e-07 5.21339e-07)
(1.03021 -3.94078e-07 6.69459e-07)
(1.03021 -7.60394e-08 5.41321e-07)
(1.03021 -5.6111e-07 7.36043e-07)
(1.03021 1.10341e-08 4.45965e-07)
(1.03021 -5.40746e-07 6.88337e-07)
(1.03021 -9.11009e-08 5.48084e-07)
(1.03021 -6.35464e-07 4.69543e-07)
(1.03021 5.23597e-08 7.48918e-07)
(1.03021 -8.98279e-07 3.17411e-07)
(1.03021 1.44194e-07 9.08582e-07)
(1.03021 -9.55781e-07 2.1524e-07)
(1.03021 5.28968e-09 9.65179e-07)
(1.03021 -7.51392e-07 1.92047e-07)
(1.03021 -3.16412e-07 9.83746e-07)
(1.03021 -5.78789e-07 1.31816e-07)
(1.03021 -4.77889e-07 9.63562e-07)
(1.03021 -5.12273e-07 2.52099e-07)
(1.03021 -7.40235e-07 6.59869e-07)
(1.03021 -3.20059e-07 6.54553e-07)
(1.03021 -9.34675e-07 1.81056e-07)
(1.03021 -2.41007e-07 1.01381e-06)
(1.03021 -9.16594e-07 -7.27458e-08)
(1.03021 -3.07169e-07 1.05448e-06)
(1.03021 -7.09908e-07 2.10694e-08)
(1.03021 -3.15851e-07 8.24037e-07)
(1.03021 -7.25272e-07 3.16308e-07)
(1.03021 -1.977e-07 5.44608e-07)
(1.03021 -7.80848e-07 5.66371e-07)
(1.03021 -6.19733e-08 3.71855e-07)
(1.03021 -9.31782e-07 7.13618e-07)
(1.03021 3.77798e-08 3.3124e-07)
(1.03021 -9.42911e-07 7.08268e-07)
(1.03021 1.74293e-09 4.35713e-07)
(1.03021 -6.82281e-07 6.01736e-07)
(1.03021 -3.90099e-07 6.60956e-07)
(1.03021 -4.27299e-07 4.05861e-07)
(1.03021 -3.6215e-07 1.4296e-06)
(1.03021 -9.15186e-08 4.97837e-07)
(1.03021 -1.97962e-07 1.3261e-06)
(1.03021 -1.71617e-07 6.92436e-07)
(1.03021 -4.771e-08 1.13698e-06)
(1.03021 -8.61872e-08 7.75391e-07)
(1.03021 -1.63637e-07 1.06861e-06)
(1.03021 1.6603e-08 7.76701e-07)
(1.03021 -2.34151e-07 9.23493e-07)
(1.03021 3.26417e-08 9.50204e-07)
(1.03021 -3.53025e-07 6.78655e-07)
(1.03021 1.16148e-07 1.17726e-06)
(1.03021 -5.30027e-07 5.0097e-07)
(1.03021 1.53854e-07 1.3948e-06)
(1.03021 -6.20962e-07 3.17972e-07)
(1.03021 1.9887e-08 1.53784e-06)
(1.03021 -5.37669e-07 2.49717e-07)
(1.03021 -2.40361e-07 1.55622e-06)
(1.03021 -4.91464e-07 2.46333e-07)
(1.03021 -3.2105e-07 1.48623e-06)
(1.03021 -5.49738e-07 4.22779e-07)
(1.03021 -3.95903e-07 1.19144e-06)
(1.03021 -5.27286e-07 8.33175e-07)
(1.03021 -4.90781e-07 7.45803e-07)
(1.03021 -4.80289e-07 1.21263e-06)
(1.03021 -4.87849e-07 4.34566e-07)
(1.03021 -4.98406e-07 1.34877e-06)
(1.03021 -4.74349e-07 4.11223e-07)
(1.03021 -3.30967e-07 1.23493e-06)
(1.03021 -7.01673e-07 6.30841e-07)
(1.03021 1.60704e-08 9.90933e-07)
(1.03021 -8.91581e-07 8.7535e-07)
(1.03021 1.61531e-07 8.35579e-07)
(1.03021 -8.59328e-07 9.7803e-07)
(1.03021 9.75745e-08 8.67816e-07)
(1.03021 -6.5459e-07 8.88955e-07)
(1.03021 -6.61095e-08 1.04994e-06)
(1.03021 -3.88996e-07 6.8243e-07)
(1.03021 -2.68923e-07 1.31425e-06)
(1.03021 -1.39818e-07 4.67653e-07)
(1.03021 -1.81847e-07 2.13318e-06)
(1.03021 -3.40119e-10 9.18186e-07)
(1.03021 4.94184e-08 2.05891e-06)
(1.03021 -7.37593e-08 1.04726e-06)
(1.03021 2.13629e-07 1.8514e-06)
(1.03021 -5.33414e-09 1.12175e-06)
(1.03021 1.3177e-07 1.67575e-06)
(1.03021 4.36029e-08 1.20472e-06)
(1.03021 1.09581e-07 1.45327e-06)
(1.03021 1.26756e-08 1.4313e-06)
(1.03021 1.07014e-07 1.19774e-06)
(1.03021 -2.76222e-08 1.62646e-06)
(1.03021 3.54128e-08 1.04371e-06)
(1.03021 -5.25115e-08 1.80676e-06)
(1.03021 -1.28935e-07 8.51703e-07)
(1.03021 -8.12005e-08 1.98591e-06)
(1.03021 -2.4903e-07 7.49512e-07)
(1.03021 -1.86304e-07 2.05178e-06)
(1.03021 -3.4551e-07 7.57352e-07)
(1.03021 -1.71145e-07 2.01248e-06)
(1.03021 -4.79174e-07 9.28058e-07)
(1.03021 -1.57998e-07 1.79676e-06)
(1.03021 -5.38885e-07 1.23539e-06)
(1.03021 -1.28564e-07 1.47261e-06)
(1.03021 -5.77219e-07 1.51716e-06)
(1.03021 -2.6443e-08 1.19706e-06)
(1.03021 -6.12053e-07 1.67034e-06)
(1.03021 -4.77388e-08 1.11028e-06)
(1.03021 -3.32264e-07 1.64298e-06)
(1.03021 -4.35867e-07 1.25999e-06)
(1.03021 1.88368e-07 1.45423e-06)
(1.03021 -7.50587e-07 1.492e-06)
(1.03021 3.26486e-07 1.34379e-06)
(1.03021 -5.93086e-07 1.55923e-06)
(1.03021 3.69406e-08 1.43954e-06)
(1.03021 -2.03243e-07 1.40467e-06)
(1.03021 -2.29451e-07 1.6802e-06)
(1.03021 1.01201e-08 1.12623e-06)
(1.03021 -2.78905e-07 1.99248e-06)
(1.03021 5.91761e-08 8.99136e-07)
(1.03021 1.06663e-07 2.77456e-06)
(1.03021 2.74721e-07 1.62271e-06)
(1.03021 3.64013e-07 2.74651e-06)
(1.03021 2.41447e-07 1.66647e-06)
(1.03021 4.63843e-07 2.57845e-06)
(1.03021 3.6461e-07 1.71861e-06)
(1.03021 3.64219e-07 2.36003e-06)
(1.03021 3.82161e-07 1.82754e-06)
(1.03021 4.22391e-07 2.10088e-06)
(1.03021 2.1918e-07 2.037e-06)
(1.03021 5.9392e-07 1.85599e-06)
(1.03021 -1.88299e-08 2.15918e-06)
(1.03021 6.17947e-07 1.77915e-06)
(1.03021 -9.70579e-08 2.25119e-06)
(1.03021 3.72548e-07 1.67292e-06)
(1.03021 -1.23879e-08 2.42267e-06)
(1.03021 9.54197e-08 1.56751e-06)
(1.03021 -5.71001e-09 2.56203e-06)
(1.03021 -9.95906e-08 1.55727e-06)
(1.03021 1.51103e-08 2.60047e-06)
(1.03021 -2.37953e-07 1.70225e-06)
(1.03021 7.19804e-09 2.49208e-06)
(1.03021 -2.57532e-07 1.90755e-06)
(1.03021 5.76142e-08 2.31214e-06)
(1.03021 -2.93643e-07 2.0585e-06)
(1.03021 2.40215e-07 2.10941e-06)
(1.03021 -3.75132e-07 2.17066e-06)
(1.03021 2.73825e-07 1.99008e-06)
(1.03021 -1.05434e-07 2.19336e-06)
(1.03021 -1.34157e-07 2.07714e-06)
(1.03021 4.79857e-07 2.05154e-06)
(1.03021 -4.94207e-07 2.278e-06)
(1.03021 5.97991e-07 1.96461e-06)
(1.03021 -2.3613e-07 2.32636e-06)
(1.03021 1.50409e-07 2.07208e-06)
(1.03021 2.7945e-07 2.16074e-06)
(1.03021 -1.9488e-07 2.31999e-06)
(1.03021 4.60855e-07 1.86984e-06)
(1.03021 -1.42155e-07 2.62704e-06)
(1.03021 3.98134e-07 1.64575e-06)
(1.03021 5.54778e-07 3.58254e-06)
(1.03021 5.8489e-07 2.57325e-06)
(1.03021 8.25527e-07 3.56554e-06)
(1.03021 5.70464e-07 2.52297e-06)
(1.03021 8.80967e-07 3.39121e-06)
(1.03021 7.7559e-07 2.52896e-06)
(1.03021 7.1837e-07 3.12817e-06)
(1.03021 8.50873e-07 2.63936e-06)
(1.03021 7.60558e-07 2.85804e-06)
(1.03021 6.22728e-07 2.83695e-06)
(1.03021 1.03324e-06 2.66079e-06)
(1.03021 2.38884e-07 2.90339e-06)
(1.03021 1.13834e-06 2.67921e-06)
(1.03021 1.21056e-07 2.89719e-06)
(1.03021 8.42597e-07 2.6875e-06)
(1.03021 2.81573e-07 3.03346e-06)
(1.03021 4.41634e-07 2.59413e-06)
(1.03021 3.47019e-07 3.25657e-06)
(1.03021 1.82314e-07 2.5424e-06)
(1.03021 3.61217e-07 3.36766e-06)
(1.03021 5.87498e-08 2.63239e-06)
(1.03021 3.09108e-07 3.32842e-06)
(1.03021 1.13621e-07 2.73337e-06)
(1.03021 2.99547e-07 3.25454e-06)
(1.03021 1.66419e-07 2.76269e-06)
(1.03021 4.59794e-07 3.1325e-06)
(1.03021 9.94898e-08 2.83737e-06)
(1.03021 5.41035e-07 3.01183e-06)
(1.03021 3.21204e-07 2.926e-06)
(1.03021 2.07206e-07 3.04316e-06)
(1.03021 8.97336e-07 2.86983e-06)
(1.03021 -1.49069e-07 3.18599e-06)
(1.03021 1.01612e-06 2.83023e-06)
(1.03021 1.19801e-07 3.20565e-06)
(1.03021 5.20879e-07 2.9343e-06)
(1.03021 6.65688e-07 3.05988e-06)
(1.03021 1.60557e-07 3.17173e-06)
(1.03021 8.35305e-07 2.80858e-06)
(1.03021 2.53196e-07 3.45144e-06)
(1.03021 7.35429e-07 2.62671e-06)
(1.03021 1.27637e-06 4.48729e-06)
(1.03021 1.04988e-06 3.65984e-06)
(1.03021 1.57037e-06 4.48637e-06)
(1.03021 1.01295e-06 3.52717e-06)
(1.03021 1.63837e-06 4.31798e-06)
(1.03021 1.23869e-06 3.48132e-06)
(1.03021 1.42573e-06 4.03295e-06)
(1.03021 1.38698e-06 3.57416e-06)
(1.03021 1.37089e-06 3.76305e-06)
(1.03021 1.18849e-06 3.74886e-06)
(1.03021 1.63152e-06 3.59739e-06)
(1.03021 7.37035e-07 3.77355e-06)
(1.03021 1.75321e-06 3.68558e-06)
(1.03021 5.50575e-07 3.69436e-06)
(1.03021 1.42632e-06 3.80302e-06)
(1.03021 6.85876e-07 3.80739e-06)
(1.03021 9.61299e-07 3.73561e-06)
(1.03021 7.46084e-07 4.12308e-06)
(1.03021 6.77468e-07 3.6441e-06)
(1.03021 7.56864e-07 4.32635e-06)
(1.03021 5.58378e-07 3.68949e-06)
(1.03021 7.01223e-07 4.36094e-06)
(1.03021 6.72578e-07 3.71815e-06)
(1.03021 6.526e-07 4.37756e-06)
(1.03021 8.33023e-07 3.64944e-06)
(1.03021 7.6535e-07 4.32569e-06)
(1.03021 7.90946e-07 3.66311e-06)
(1.03021 9.04707e-07 4.20443e-06)
(1.03021 9.33259e-07 3.77033e-06)
(1.03021 7.40452e-07 4.16951e-06)
(1.03021 1.43476e-06 3.78907e-06)
(1.03021 4.54269e-07 4.23471e-06)
(1.03021 1.57547e-06 3.81153e-06)
(1.03021 6.61038e-07 4.22026e-06)
(1.03021 1.15574e-06 3.92179e-06)
(1.03021 1.10169e-06 4.09736e-06)
(1.03021 8.5101e-07 4.13993e-06)
(1.03021 1.23526e-06 3.88868e-06)
(1.03021 9.61545e-07 4.37558e-06)
(1.03021 1.17537e-06 3.74284e-06)
(1.03021 2.25185e-06 5.49451e-06)
(1.03021 1.70041e-06 4.93142e-06)
(1.03021 2.55926e-06 5.48532e-06)
(1.03021 1.60224e-06 4.69465e-06)
(1.03021 2.6815e-06 5.30076e-06)
(1.03021 1.77377e-06 4.5673e-06)
(1.03021 2.4327e-06 5.00769e-06)
(1.03021 1.96904e-06 4.62828e-06)
(1.03021 2.23331e-06 4.76773e-06)
(1.03021 1.88124e-06 4.77816e-06)
(1.03021 2.39401e-06 4.64456e-06)
(1.03021 1.43111e-06 4.78729e-06)
(1.03021 2.4583e-06 4.7971e-06)
(1.03021 1.13819e-06 4.66601e-06)
(1.03021 2.11344e-06 4.99838e-06)
(1.03021 1.15415e-06 4.7398e-06)
(1.03021 1.66449e-06 4.94799e-06)
(1.03021 1.15389e-06 5.11133e-06)
(1.03021 1.42874e-06 4.82951e-06)
(1.03021 1.17986e-06 5.38492e-06)
(1.03021 1.35802e-06 4.84894e-06)
(1.03021 1.17487e-06 5.48774e-06)
(1.03021 1.53287e-06 4.84746e-06)
(1.03021 1.09807e-06 5.57461e-06)
(1.03021 1.80118e-06 4.70245e-06)
(1.03021 1.1465e-06 5.56156e-06)
(1.03021 1.80123e-06 4.63417e-06)
(1.03021 1.35512e-06 5.45221e-06)
(1.03021 1.83752e-06 4.74691e-06)
(1.03021 1.42359e-06 5.38845e-06)
(1.03021 2.18735e-06 4.8257e-06)
(1.03021 1.29096e-06 5.3973e-06)
(1.03021 2.31482e-06 4.91842e-06)
(1.03021 1.40864e-06 5.38777e-06)
(1.03021 2.03312e-06 5.05216e-06)
(1.03021 1.65347e-06 5.3265e-06)
(1.03021 1.84474e-06 5.25358e-06)
(1.03021 1.73843e-06 5.1758e-06)
(1.03021 1.96151e-06 5.42524e-06)
(1.03021 1.77298e-06 5.05818e-06)
(1.03021 3.52357e-06 6.61223e-06)
(1.03021 2.41012e-06 6.31075e-06)
(1.03021 3.84034e-06 6.60894e-06)
(1.03021 2.22411e-06 6.01174e-06)
(1.03021 4.03125e-06 6.4147e-06)
(1.03021 2.27767e-06 5.81098e-06)
(1.03021 3.77895e-06 6.09926e-06)
(1.03021 2.52484e-06 5.82417e-06)
(1.03021 3.43128e-06 5.86533e-06)
(1.03021 2.59325e-06 5.95822e-06)
(1.03021 3.43434e-06 5.77744e-06)
(1.03021 2.19267e-06 5.99047e-06)
(1.03021 3.38936e-06 5.97819e-06)
(1.03021 1.77178e-06 5.88249e-06)
(1.03021 3.02363e-06 6.25127e-06)
(1.0302 1.59328e-06 5.94728e-06)
(1.03021 2.59399e-06 6.25003e-06)
(1.03021 1.46687e-06 6.3564e-06)
(1.03021 2.413e-06 6.13879e-06)
(1.03021 1.53754e-06 6.68128e-06)
(1.03021 2.41994e-06 6.16818e-06)
(1.03021 1.62945e-06 6.82963e-06)
(1.03021 2.62451e-06 6.15898e-06)
(1.03021 1.52e-06 6.92001e-06)
(1.03021 2.99195e-06 5.93672e-06)
(1.03021 1.5194e-06 6.88265e-06)
(1.03021 3.08365e-06 5.79707e-06)
(1.03021 1.81922e-06 6.78456e-06)
(1.03021 3.04722e-06 5.91652e-06)
(1.03021 2.14213e-06 6.71391e-06)
(1.03021 3.24127e-06 6.04689e-06)
(1.03021 2.20074e-06 6.67693e-06)
(1.03021 3.34195e-06 6.19489e-06)
(1.03021 2.23229e-06 6.66429e-06)
(1.03021 3.24002e-06 6.34242e-06)
(1.03021 2.25919e-06 6.65411e-06)
(1.03021 3.19505e-06 6.49543e-06)
(1.03021 2.26899e-06 6.54314e-06)
(1.03021 3.29296e-06 6.58036e-06)
(1.03021 2.40705e-06 6.44684e-06)
(1.03021 4.94563e-06 7.89649e-06)
(1.03021 2.82684e-06 7.85631e-06)
(1.03021 5.23491e-06 7.87516e-06)
(1.03021 2.53788e-06 7.48053e-06)
(1.03021 5.51531e-06 7.67139e-06)
(1.0302 2.46649e-06 7.22414e-06)
(1.03021 5.31705e-06 7.36228e-06)
(1.03021 2.77143e-06 7.2324e-06)
(1.03021 4.83403e-06 7.15298e-06)
(1.03021 2.99159e-06 7.38135e-06)
(1.0302 4.61445e-06 7.08414e-06)
(1.03021 2.6112e-06 7.46059e-06)
(1.0302 4.40091e-06 7.27125e-06)
(1.0302 2.03415e-06 7.3937e-06)
(1.03021 4.02645e-06 7.58163e-06)
(1.0302 1.64696e-06 7.48944e-06)
(1.03021 3.64739e-06 7.64867e-06)
(1.0302 1.37412e-06 7.94616e-06)
(1.03021 3.51971e-06 7.58004e-06)
(1.03021 1.47393e-06 8.31341e-06)
(1.0302 3.59821e-06 7.62667e-06)
(1.03021 1.67892e-06 8.47507e-06)
(1.03021 3.8279e-06 7.59666e-06)
(1.03021 1.60389e-06 8.50442e-06)
(1.03021 4.33741e-06 7.29434e-06)
(1.03021 1.63553e-06 8.40179e-06)
(1.03021 4.56602e-06 7.08646e-06)
(1.03021 2.04971e-06 8.30205e-06)
(1.03021 4.49854e-06 7.18583e-06)
(1.03021 2.63278e-06 8.21558e-06)
(1.03021 4.55693e-06 7.34509e-06)
(1.03021 2.90255e-06 8.15004e-06)
(1.03021 4.60701e-06 7.57636e-06)
(1.03021 2.84004e-06 8.17279e-06)
(1.03021 4.66258e-06 7.78955e-06)
(1.03021 2.63519e-06 8.22863e-06)
(1.03021 4.75588e-06 7.91945e-06)
(1.03021 2.54262e-06 8.14604e-06)
(1.03021 4.80691e-06 7.91878e-06)
(1.03021 2.76223e-06 8.0377e-06)
(1.0302 6.38387e-06 9.48001e-06)
(1.03021 2.50563e-06 9.847e-06)
(1.0302 6.58453e-06 9.43421e-06)
(1.0302 2.11502e-06 9.38665e-06)
(1.03021 6.95868e-06 9.23485e-06)
(1.0302 1.92968e-06 9.08201e-06)
(1.03021 6.83046e-06 8.95795e-06)
(1.0302 2.2461e-06 9.10025e-06)
(1.0302 6.2165e-06 8.78047e-06)
(1.03021 2.59104e-06 9.25691e-06)
(1.0302 5.74034e-06 8.71648e-06)
(1.0302 2.20701e-06 9.41851e-06)
(1.0302 5.32873e-06 8.89509e-06)
(1.0302 1.4918e-06 9.44227e-06)
(1.0302 4.95814e-06 9.21349e-06)
(1.0302 9.10377e-07 9.57111e-06)
(1.0302 4.64371e-06 9.33727e-06)
(1.0302 4.98865e-07 1.00764e-05)
(1.0302 4.56281e-06 9.34908e-06)
(1.0302 6.02923e-07 1.05028e-05)
(1.0302 4.69719e-06 9.46235e-06)
(1.03021 9.26064e-07 1.06855e-05)
(1.0302 4.99763e-06 9.41047e-06)
(1.03021 9.79453e-07 1.06212e-05)
(1.03021 5.72128e-06 9.02315e-06)
(1.0302 1.10504e-06 1.04141e-05)
(1.03021 6.12766e-06 8.7167e-06)
(1.0302 1.63392e-06 1.02598e-05)
(1.0302 6.05912e-06 8.7229e-06)
(1.03021 2.42055e-06 1.01204e-05)
(1.0302 5.97927e-06 8.88382e-06)
(1.03021 2.86987e-06 1.00698e-05)
(1.03021 5.93449e-06 9.23444e-06)
(1.0302 2.71462e-06 1.01735e-05)
(1.03021 6.08864e-06 9.52163e-06)
(1.0302 2.28623e-06 1.0301e-05)
(1.03021 6.333e-06 9.65119e-06)
(1.0302 2.13398e-06 1.02638e-05)
(1.03021 6.37542e-06 9.57569e-06)
(1.03021 2.4251e-06 1.0115e-05)
(1.0302 7.22417e-06 1.16514e-05)
(1.0302 5.16453e-07 1.2646e-05)
(1.0302 7.32369e-06 1.15624e-05)
(1.0302 1.4384e-08 1.20707e-05)
(1.0302 7.72075e-06 1.13397e-05)
(1.0302 -3.2945e-07 1.17335e-05)
(1.0302 7.63926e-06 1.11872e-05)
(1.0302 -3.95954e-08 1.18689e-05)
(1.0302 6.89936e-06 1.11116e-05)
(1.0302 3.73318e-07 1.20384e-05)
(1.0302 6.21316e-06 1.0988e-05)
(1.0302 3.6207e-08 1.22424e-05)
(1.0302 5.66873e-06 1.11263e-05)
(1.0302 -7.56869e-07 1.23622e-05)
(1.0302 5.29024e-06 1.14002e-05)
(1.0302 -1.5381e-06 1.2507e-05)
(1.0302 4.98412e-06 1.15862e-05)
(1.0302 -2.10664e-06 1.30835e-05)
(1.0302 4.93925e-06 1.17183e-05)
(1.0302 -1.99781e-06 1.35511e-05)
(1.0302 5.10545e-06 1.1885e-05)
(1.0302 -1.57057e-06 1.37329e-05)
(1.0302 5.47225e-06 1.18283e-05)
(1.0302 -1.35366e-06 1.35737e-05)
(1.0302 6.41505e-06 1.13504e-05)
(1.0302 -1.11336e-06 1.3235e-05)
(1.0302 6.99507e-06 1.0944e-05)
(1.0302 -4.81128e-07 1.30223e-05)
(1.0302 7.01862e-06 1.0837e-05)
(1.0302 5.489e-07 1.27926e-05)
(1.0302 6.91652e-06 1.09564e-05)
(1.0302 1.18784e-06 1.27813e-05)
(1.0302 6.74483e-06 1.14588e-05)
(1.0302 9.09739e-07 1.30027e-05)
(1.0302 6.91492e-06 1.18078e-05)
(1.0302 2.72459e-07 1.31643e-05)
(1.0302 7.29241e-06 1.19257e-05)
(1.0302 9.61757e-08 1.32122e-05)
(1.0302 7.37057e-06 1.18294e-05)
(1.0302 4.3931e-07 1.30216e-05)
(1.0302 6.43076e-06 1.44656e-05)
(1.0302 -4.42438e-06 1.64038e-05)
(1.0302 6.47239e-06 1.43765e-05)
(1.0302 -5.0024e-06 1.57484e-05)
(1.0302 6.86876e-06 1.41297e-05)
(1.0302 -5.51919e-06 1.54147e-05)
(1.0302 6.81005e-06 1.419e-05)
(1.0302 -5.31968e-06 1.57706e-05)
(1.0302 5.91103e-06 1.42546e-05)
(1.0302 -4.95483e-06 1.58954e-05)
(1.0302 4.9883e-06 1.40342e-05)
(1.0302 -5.25803e-06 1.61839e-05)
(1.0302 4.35251e-06 1.4169e-05)
(1.0302 -6.13635e-06 1.64288e-05)
(1.0302 3.93176e-06 1.43628e-05)
(1.0302 -7.08953e-06 1.65651e-05)
(1.0302 3.65133e-06 1.46536e-05)
(1.0302 -7.75696e-06 1.72876e-05)
(1.0302 3.61123e-06 1.49627e-05)
(1.0302 -7.68929e-06 1.77686e-05)
(1.0302 3.82167e-06 1.51362e-05)
(1.0302 -7.11311e-06 1.79006e-05)
(1.0302 4.30557e-06 1.50593e-05)
(1.0302 -6.73719e-06 1.75992e-05)
(1.0302 5.3806e-06 1.44095e-05)
(1.0302 -6.42763e-06 1.70474e-05)
(1.0302 6.10943e-06 1.38646e-05)
(1.0302 -5.6653e-06 1.67515e-05)
(1.0302 6.30909e-06 1.36096e-05)
(1.0302 -4.35728e-06 1.63908e-05)
(1.0302 6.33149e-06 1.36414e-05)
(1.0302 -3.4428e-06 1.64597e-05)
(1.0302 6.0816e-06 1.43597e-05)
(1.0302 -3.85162e-06 1.68454e-05)
(1.0302 6.1588e-06 1.47857e-05)
(1.0302 -4.6986e-06 1.7046e-05)
(1.0302 6.64417e-06 1.49042e-05)
(1.0302 -4.89422e-06 1.71847e-05)
(1.0302 6.70905e-06 1.4775e-05)
(1.0302 -4.54498e-06 1.68925e-05)
(1.0302 2.23545e-06 1.7519e-05)
(1.0302 -1.44303e-05 2.07581e-05)
(1.0302 2.26814e-06 1.74892e-05)
(1.0302 -1.50573e-05 2.00948e-05)
(1.0302 2.64025e-06 1.72522e-05)
(1.0302 -1.56751e-05 1.98091e-05)
(1.0302 2.66163e-06 1.76373e-05)
(1.0302 -1.55335e-05 2.05677e-05)
(1.0302 1.63794e-06 1.79434e-05)
(1.0302 -1.52608e-05 2.05839e-05)
(1.0302 4.93306e-07 1.74731e-05)
(1.0302 -1.55644e-05 2.0876e-05)
(1.0302 -2.32363e-07 1.76799e-05)
(1.0302 -1.65362e-05 2.12845e-05)
(1.0302 -7.73838e-07 1.77102e-05)
(1.0302 -1.76241e-05 2.13418e-05)
(1.0302 -1.01626e-06 1.8157e-05)
(1.0302 -1.83556e-05 2.23862e-05)
(1.0302 -1.10135e-06 1.87796e-05)
(1.0302 -1.83796e-05 2.28473e-05)
(1.0302 -8.40445e-07 1.8813e-05)
(1.0302 -1.75866e-05 2.28522e-05)
(1.0302 -1.42447e-07 1.8763e-05)
(1.0302 -1.70687e-05 2.24478e-05)
(1.0302 9.97128e-07 1.78691e-05)
(1.0302 -1.67382e-05 2.15196e-05)
(1.0302 1.89709e-06 1.71146e-05)
(1.0302 -1.57997e-05 2.11761e-05)
(1.0302 2.29134e-06 1.6736e-05)
(1.0302 -1.42689e-05 2.05835e-05)
(1.0302 2.42225e-06 1.65319e-05)
(1.0302 -1.31761e-05 2.06977e-05)
(1.0302 2.10845e-06 1.75541e-05)
(1.0302 -1.36713e-05 2.1355e-05)
(1.0302 2.08112e-06 1.80227e-05)
(1.0302 -1.46257e-05 2.1498e-05)
(1.0302 2.74001e-06 1.81525e-05)
(1.0302 -1.48418e-05 2.18531e-05)
(1.0302 2.65289e-06 1.80753e-05)
(1.0302 -1.46517e-05 2.14053e-05)
(1.03019 -7.13734e-06 1.9545e-05)
(1.03019 -3.14635e-05 2.45863e-05)
(1.03019 -7.09397e-06 1.98458e-05)
(1.03019 -3.22185e-05 2.42152e-05)
(1.03019 -6.90662e-06 1.96311e-05)
(1.03019 -3.29384e-05 2.38482e-05)
(1.03019 -6.70192e-06 2.035e-05)
(1.03019 -3.27815e-05 2.53238e-05)
(1.03019 -7.86649e-06 2.11188e-05)
(1.03019 -3.27276e-05 2.50815e-05)
(1.03019 -9.15939e-06 2.01001e-05)
(1.03019 -3.29128e-05 2.52025e-05)
(1.03019 -9.88307e-06 2.0516e-05)
(1.03019 -3.39997e-05 2.5956e-05)
(1.03019 -1.07727e-05 2.02782e-05)
(1.03019 -3.53599e-05 2.56226e-05)
(1.03019 -1.10432e-05 2.0811e-05)
(1.03019 -3.61654e-05 2.72349e-05)
(1.03019 -1.11499e-05 2.20136e-05)
(1.03019 -3.6245e-05 2.76155e-05)
(1.03019 -1.07802e-05 2.16101e-05)
(1.03019 -3.51371e-05 2.7333e-05)
(1.03019 -9.81017e-06 2.18052e-05)
(1.03019 -3.45821e-05 2.706e-05)
(1.03019 -8.74916e-06 2.06052e-05)
(1.03019 -3.42604e-05 2.54758e-05)
(1.03019 -7.60813e-06 1.9516e-05)
(1.03019 -3.29869e-05 2.52843e-05)
(1.03019 -6.83479e-06 1.91535e-05)
(1.03019 -3.11225e-05 2.42829e-05)
(1.03019 -6.48805e-06 1.83264e-05)
(1.03019 -2.98921e-05 2.43137e-05)
(1.03019 -6.95404e-06 1.98593e-05)
(1.03019 -3.0545e-05 2.54976e-05)
(1.03019 -7.06129e-06 2.02688e-05)
(1.03019 -3.14275e-05 2.52383e-05)
(1.03019 -6.12801e-06 2.03047e-05)
(1.03019 -3.16509e-05 2.60961e-05)
(1.03019 -6.48549e-06 2.05766e-05)
(1.03019 -3.18047e-05 2.5444e-05)
(1.03017 -2.39595e-05 2.01512e-05)
(1.03017 -5.78837e-05 2.76583e-05)
(1.03017 -2.38855e-05 2.14106e-05)
(1.03017 -5.85708e-05 2.81202e-05)
(1.03017 -2.38225e-05 2.10985e-05)
(1.03016 -5.92963e-05 2.72718e-05)
(1.03017 -2.3375e-05 2.21723e-05)
(1.03016 -5.90532e-05 3.00179e-05)
(1.03017 -2.46432e-05 2.37245e-05)
(1.03017 -5.92822e-05 2.91994e-05)
(1.03017 -2.60665e-05 2.14401e-05)
(1.03017 -5.91981e-05 2.89311e-05)
(1.03017 -2.66151e-05 2.24623e-05)
(1.03016 -6.03526e-05 3.03735e-05)
(1.03017 -2.79925e-05 2.16322e-05)
(1.03016 -6.22131e-05 2.90499e-05)
(1.03017 -2.84475e-05 2.22025e-05)
(1.03016 -6.30773e-05 3.1793e-05)
(1.03017 -2.8593e-05 2.44552e-05)
(1.03016 -6.3283e-05 3.19174e-05)
(1.03017 -2.82278e-05 2.30268e-05)
(1.03017 -6.18957e-05 3.11582e-05)
(1.03017 -2.69945e-05 2.4022e-05)
(1.03017 -6.13116e-05 3.15528e-05)
(1.03017 -2.61331e-05 2.23784e-05)
(1.03016 -6.11069e-05 2.87965e-05)
(1.03017 -2.48313e-05 2.08719e-05)
(1.03016 -5.94302e-05 2.91873e-05)
(1.03017 -2.35223e-05 2.08907e-05)
(1.03017 -5.71529e-05 2.73486e-05)
(1.03017 -2.2937e-05 1.86874e-05)
(1.03016 -5.5859e-05 2.71052e-05)
(1.03017 -2.35641e-05 2.12748e-05)
(1.03016 -5.66592e-05 2.93057e-05)
(1.03017 -2.36873e-05 2.13572e-05)
(1.03016 -5.7501e-05 2.798e-05)
(1.03017 -2.25428e-05 2.11794e-05)
(1.03016 -5.77583e-05 2.98805e-05)
(1.03017 -2.30705e-05 2.2228e-05)
(1.03016 -5.82573e-05 2.88074e-05)
(1.03004 -4.97937e-05 2.24826e-05)
(1.03002 -9.53249e-05 3.37616e-05)
(1.03004 -4.97752e-05 2.55624e-05)
(1.03002 -9.58359e-05 3.53296e-05)
(1.03004 -4.96909e-05 2.47121e-05)
(1.03002 -9.64083e-05 3.37384e-05)
(1.03005 -4.90609e-05 2.65297e-05)
(1.03002 -9.60124e-05 3.83706e-05)
(1.03004 -5.03077e-05 2.87112e-05)
(1.03002 -9.6477e-05 3.61848e-05)
(1.03004 -5.18988e-05 2.45353e-05)
(1.03002 -9.62381e-05 3.57378e-05)
(1.03004 -5.23831e-05 2.68061e-05)
(1.03002 -9.7619e-05 3.78775e-05)
(1.03004 -5.43715e-05 2.46342e-05)
(1.03002 -9.99082e-05 3.5063e-05)
(1.03004 -5.49978e-05 2.5588e-05)
(1.03002 -0.00010084 3.96453e-05)
(1.03004 -5.51785e-05 2.90802e-05)
(1.03002 -0.000101104 3.89186e-05)
(1.03004 -5.49334e-05 2.60503e-05)
(1.03002 -9.95923e-05 3.80408e-05)
(1.03004 -5.35441e-05 2.88065e-05)
(1.03002 -9.89221e-05 3.93291e-05)
(1.03004 -5.27058e-05 2.62551e-05)
(1.03002 -9.88144e-05 3.49786e-05)
(1.03004 -5.13155e-05 2.46218e-05)
(1.03002 -9.6711e-05 3.65502e-05)
(1.03004 -4.91833e-05 2.49662e-05)
(1.03002 -9.37537e-05 3.3052e-05)
(1.03004 -4.8323e-05 2.07581e-05)
(1.03002 -9.26224e-05 3.28206e-05)
(1.03004 -4.91539e-05 2.50672e-05)
(1.03002 -9.33029e-05 3.61956e-05)
(1.03004 -4.92391e-05 2.42143e-05)
(1.03002 -9.4319e-05 3.33105e-05)
(1.03004 -4.82624e-05 2.42531e-05)
(1.03002 -9.49542e-05 3.69951e-05)
(1.03004 -4.87538e-05 2.61334e-05)
(1.03002 -9.54994e-05 3.47707e-05)
(1.0295 -8.39439e-05 3.90021e-05)
(1.02941 -0.000142146 5.56713e-05)
(1.02951 -8.40899e-05 4.39211e-05)
(1.02941 -0.000142704 5.71876e-05)
(1.02951 -8.38149e-05 4.20891e-05)
(1.02941 -0.000143004 5.58693e-05)
(1.02951 -8.28605e-05 4.57891e-05)
(1.02942 -0.000142259 6.19975e-05)
(1.02951 -8.39925e-05 4.68955e-05)
(1.02941 -0.000142908 5.75665e-05)
(1.02951 -8.56956e-05 4.15488e-05)
(1.02942 -0.000142588 5.8297e-05)
(1.02951 -8.59854e-05 4.4937e-05)
(1.02941 -0.00014408 5.97005e-05)
(1.0295 -8.846e-05 4.05177e-05)
(1.02941 -0.000146831 5.63783e-05)
(1.0295 -8.94971e-05 4.31405e-05)
(1.02941 -0.000147804 6.27484e-05)
(1.0295 -8.97558e-05 4.6669e-05)
(1.02941 -0.000148381 6.05769e-05)
(1.0295 -8.98446e-05 4.2996e-05)
(1.02941 -0.000146833 6.12356e-05)
(1.0295 -8.85977e-05 4.78768e-05)
(1.02941 -0.000146149 6.23737e-05)
(1.0295 -8.80436e-05 4.38521e-05)
(1.02941 -0.000146533 5.71597e-05)
(1.0295 -8.66887e-05 4.33236e-05)
(1.02941 -0.000143765 5.96187e-05)
(1.0295 -8.3185e-05 4.245e-05)
(1.02941 -0.000139896 5.34855e-05)
(1.0295 -8.21469e-05 3.71547e-05)
(1.02941 -0.000138852 5.44822e-05)
(1.0295 -8.30194e-05 4.30025e-05)
(1.02941 -0.000138913 5.75068e-05)
(1.0295 -8.23989e-05 4.04127e-05)
(1.02941 -0.000139953 5.41766e-05)
(1.0295 -8.19366e-05 4.22369e-05)
(1.02941 -0.000141408 5.9535e-05)
(1.0295 -8.26137e-05 4.34664e-05)
(1.02941 -0.000141893 5.52517e-05)
(1.02782 -0.000122095 9.31971e-05)
(1.02755 -0.000194918 0.000115426)
(1.02782 -0.000122239 9.77537e-05)
(1.02755 -0.000195308 0.000115259)
(1.02782 -0.000121919 9.66579e-05)
(1.02755 -0.000195385 0.000117185)
(1.02782 -0.000120721 0.000102778)
(1.02755 -0.000194484 0.000122454)
(1.02782 -0.000121909 0.000101015)
(1.02755 -0.000195416 0.000117371)
(1.02782 -0.000123279 9.74507e-05)
(1.02755 -0.000194953 0.000120178)
(1.02781 -0.00012354 9.9482e-05)
(1.02755 -0.000196162 0.000118565)
(1.02781 -0.000125909 9.37218e-05)
(1.02755 -0.000198944 0.000117451)
(1.02781 -0.000127291 9.84293e-05)
(1.02754 -0.00020033 0.000123404)
(1.0278 -0.000127878 0.000100308)
(1.02754 -0.000201359 0.000120863)
(1.0278 -0.000128062 9.87119e-05)
(1.02754 -0.000199785 0.000124089)
(1.0278 -0.000127203 0.000103517)
(1.02754 -0.000199168 0.000123245)
(1.0278 -0.000127182 9.90323e-05)
(1.02754 -0.000200225 0.000119645)
(1.0278 -0.000126468 9.99751e-05)
(1.02754 -0.000196574 0.00012021)
(1.0278 -0.000121354 9.55942e-05)
(1.02754 -0.000191897 0.000112037)
(1.0278 -0.000120622 9.16661e-05)
(1.02754 -0.000190939 0.000114512)
(1.0278 -0.000121717 9.66517e-05)
(1.02754 -0.000189878 0.000114837)
(1.02781 -0.00011991 9.31768e-05)
(1.02754 -0.000190714 0.00011411)
(1.02781 -0.000120124 9.73616e-05)
(1.02754 -0.000193264 0.00011847)
(1.02781 -0.000120714 9.5837e-05)
(1.02755 -0.000194298 0.000113239)
(1.02364 -0.000158529 0.000222029)
(1.02303 -0.00024499 0.000248441)
(1.02364 -0.000158111 0.000224718)
(1.02302 -0.000244016 0.000249257)
(1.02364 -0.000155636 0.000228707)
(1.02303 -0.000243053 0.00025504)
(1.02364 -0.000154657 0.000234962)
(1.02302 -0.000242627 0.000257897)
(1.02364 -0.0001562 0.000232918)
(1.02302 -0.000242403 0.000256568)
(1.02364 -0.000155824 0.000232146)
(1.02302 -0.00024212 0.000258804)
(1.02363 -0.000157267 0.00023015)
(1.02301 -0.00024403 0.000255461)
(1.02363 -0.000159336 0.000225639)
(1.02301 -0.000247129 0.000256393)
(1.02362 -0.000161427 0.000228795)
(1.02301 -0.000250001 0.000259539)
(1.02362 -0.000162875 0.000230376)
(1.02301 -0.000250798 0.000260144)
(1.02362 -0.000163897 0.000231634)
(1.023 -0.000250524 0.000262939)
(1.02361 -0.000163467 0.000233835)
(1.023 -0.000249045 0.000261288)
(1.02361 -0.000163835 0.000231211)
(1.023 -0.000250866 0.000259042)
(1.02362 -0.000164707 0.000229681)
(1.023 -0.000246178 0.00025533)
(1.02362 -0.000156826 0.000222901)
(1.02301 -0.000240189 0.000248067)
(1.02362 -0.000155702 0.000220388)
(1.02301 -0.000240173 0.000248208)
(1.02362 -0.00015789 0.000221981)
(1.02301 -0.000237118 0.00024706)
(1.02363 -0.000154678 0.00022151)
(1.02302 -0.000237391 0.000249142)
(1.02363 -0.000156693 0.000224418)
(1.02302 -0.000241338 0.000250129)
(1.02364 -0.000156719 0.000222209)
(1.02302 -0.00024312 0.000247535)
(1.015 -0.000176802 0.000480062)
(1.01381 -0.000278344 0.000513442)
(1.015 -0.000175346 0.00048945)
(1.01381 -0.000273459 0.000520949)
(1.015 -0.000169609 0.000497767)
(1.0138 -0.000273484 0.000524929)
(1.01499 -0.000170923 0.00050263)
(1.0138 -0.000274141 0.000528872)
(1.01499 -0.0001719 0.000504745)
(1.01379 -0.000272004 0.000528962)
(1.01498 -0.000170817 0.000500412)
(1.01379 -0.000273127 0.000528753)
(1.01498 -0.000172696 0.000498276)
(1.01378 -0.000273886 0.000527832)
(1.01497 -0.000173347 0.000492716)
(1.01378 -0.000276146 0.000524994)
(1.01497 -0.000178185 0.000492387)
(1.01378 -0.000280537 0.00052973)
(1.01498 -0.000177821 0.000497894)
(1.01379 -0.000280049 0.000531779)
(1.01498 -0.000180025 0.000495998)
(1.01379 -0.00028394 0.000533363)
(1.01498 -0.000180582 0.000501616)
(1.01379 -0.000281188 0.000535431)
(1.01498 -0.000180543 0.000498404)
(1.01379 -0.000285753 0.000526705)
(1.01498 -0.000184644 0.000491996)
(1.0138 -0.000279735 0.000523066)
(1.01499 -0.000173158 0.000486857)
(1.0138 -0.0002711 0.000514675)
(1.01499 -0.000171256 0.00047868)
(1.0138 -0.000273765 0.00051042)
(1.01499 -0.000173857 0.000480796)
(1.01381 -0.000267688 0.000511791)
(1.01499 -0.000169229 0.000480661)
(1.0138 -0.000268314 0.000510244)
(1.015 -0.000175079 0.000480601)
(1.0138 -0.000272157 0.000514259)
(1.015 -0.00017291 0.000482753)
(1.01381 -0.000274203 0.000513192)
(0.999277 -0.000184871 0.000950619)
(0.997273 -0.000294215 0.000991298)
(0.999273 -0.000180845 0.00097707)
(0.997267 -0.000285645 0.00100435)
(0.999264 -0.000170565 0.00097484)
(0.997257 -0.000283749 0.000992085)
(0.99925 -0.000171253 0.000978789)
(0.997244 -0.000286234 0.000999411)
(0.999237 -0.000173041 0.000982605)
(0.997246 -0.000282588 0.000984864)
(0.999241 -0.000174993 0.000967026)
(0.997254 -0.000288366 0.000992286)
(0.999247 -0.000179122 0.000977655)
(0.997256 -0.000287774 0.000994679)
(0.999252 -0.000179665 0.000959317)
(0.997263 -0.000295406 0.000981671)
(0.999263 -0.000187252 0.000965154)
(0.99727 -0.000300364 0.00100168)
(0.999272 -0.000185221 0.000977097)
(0.997279 -0.000301498 0.000992737)
(0.999276 -0.000189962 0.0009646)
(0.997285 -0.000307651 0.00100019)
(0.999277 -0.000191404 0.000986771)
(0.997283 -0.000302913 0.00100831)
(0.999286 -0.000192744 0.000966253)
(0.99729 -0.000312218 0.00098991)
(0.999299 -0.00019932 0.000966083)
(0.997304 -0.000301265 0.00100289)
(0.999306 -0.000183116 0.000963425)
(0.997314 -0.000291667 0.000978541)
(0.999303 -0.000180718 0.00094339)
(0.997308 -0.00029712 0.000978199)
(0.999294 -0.000181229 0.000961713)
(0.997297 -0.000285379 0.000981575)
(0.999284 -0.000176218 0.00095149)
(0.997283 -0.000287096 0.000971346)
(0.999277 -0.00018462 0.000954974)
(0.997279 -0.000287197 0.000991461)
(0.999274 -0.00017841 0.000963431)
(0.997275 -0.000287351 0.000981747)
(0.973269 -0.000213315 0.00169021)
(0.970318 -0.0003352 0.00173439)
(0.973249 -0.000207161 0.00174746)
(0.970289 -0.00032459 0.00174247)
(0.97324 -0.000202098 0.00169418)
(0.970279 -0.000327177 0.00168516)
(0.973229 -0.000199354 0.00169948)
(0.970264 -0.000331034 0.00172214)
(0.973225 -0.000204696 0.00169982)
(0.970287 -0.000326821 0.00165716)
(0.973247 -0.000208133 0.0016793)
(0.970312 -0.000337361 0.00168557)
(0.973266 -0.000213933 0.00174211)
(0.970322 -0.000338916 0.0016962)
(0.973286 -0.000215158 0.00169233)
(0.970331 -0.00034497 0.00166206)
(0.973307 -0.000227226 0.0017296)
(0.970342 -0.0003477 0.00172587)
(0.973314 -0.000222401 0.00175513)