/*--------------------------------*- C++ -*----------------------------------*\
  =========                 |
  \\      /  F ield         | OpenFOAM: The Open Source CFD Toolbox
   \\    /   O peration     | Website:  https://openfoam.org
    \\  /    A nd           | Version:  10
     \\/     M anipulation  |
\*---------------------------------------------------------------------------*/
FoamFile
{
    format      ascii;
    class       surfaceScalarField;
    location    "50";
    object      phi;
}
// * * * * * * * * * * * * * * * * * * * * * * * * * * * * * * * * * * * * * //

dimensions      [0 3 -1 0 0 0 0];

internalField   nonuniform List<scalar> 
74080
(
0.00627174
0.00118112
0.00217604
0.00536734
7.68562e-05
0.00191254
0.00492033
-0.000327136
0.00341913
0.00433338
0.000464136
0.00317023
0.00398114
8.28858e-05
0.00292343
0.00411419
-0.000360021
0.00321222
0.00602866
-0.000251493
0.00130575
0.00639158
-0.000374253
0.00274297
0.00615195
0.00118149
6.37794e-05
0.00605935
0.00088542
0.000153977
0.00509699
-7.51579e-05
0.00249486
0.00516213
0.000568282
0.00127541
0.00548667
-2.19462e-05
0.00117539
0.00568566
-0.000415244
0.00100897
0.00629202
0.000607059
0.00105344
0.00742954
-0.000201256
0.00238262
0.00679498
-0.000387784
0.00318748
0.00492146
0.000446062
0.00132264
0.00551528
0.000770514
0.000803865
0.00668136
0.00122127
0.000947128
0.00667501
0.000435954
0.000663871
0.00549253
0.000667718
0.00151869
0.00474629
0.00135771
0.00175403
0.00553737
0.000749757
0.0012149
0.00580981
0.000544704
-0.000706981
0.00622318
1.12155e-05
-0.000180314
0.00624033
0.000668728
0.00139447
0.0051671
0.00073708
0.00168379
0.00514168
-0.000371408
0.00207745
0.00520829
0.000457441
0.00224421
0.00438131
0.00114165
0.000903604
0.00572404
0.000226668
5.95088e-05
0.00618434
0.000340801
0.000244291
0.00480651
0.000949584
0.00129387
0.0046495
0.00078492
0.00143639
0.00397003
0.00112174
0.00126726
0.00405382
0.00100183
0.00189926
0.00507585
0.000409869
0.00101522
0.00513681
7.87762e-05
-0.000716267
-8.37475e-05
6.19281e-05
0.00601687
0.000488742
0.000987195
0.00612633
-4.63127e-05
0.000263722
0.00605991
-0.000513521
0.00027866
0.00603911
0.000354804
0.00025873
0.00477334
0.000167198
0.00170219
0.00363212
-4.94276e-05
0.00111044
0.00427144
0.000162585
-0.0004418
0.00520347
0.000586052
-0.00126423
0.0056278
0.000859545
-7.1997e-05
0.00574855
0.00058118
-0.000324488
0.00622666
-3.65349e-06
-6.42761e-05
0.00636488
0.000496574
0.000317691
0.0048915
0.000810431
0.00128092
0.00482814
0.000241808
0.000390208
0.00495318
0.000902128
-0.000502965
0.00401317
0.00109451
0.000413779
0.00511241
-0.00033629
-0.000151632
0.00583302
0.000216882
-0.000654559
0.00547763
0.0007994
0.000792786
0.00544591
0.000865858
0.000424944
0.00531702
0.00102584
-0.000503593
0.00629192
0.000470986
-0.000184306
0.00677146
0.00102214
-0.000363949
0.00630589
0.000966149
-6.12842e-05
0.00632329
0.0004332
0.000468295
0.00668697
-0.00028315
4.49434e-05
0.00637489
0.000931995
-0.000346795
0.00608004
0.000537711
0.000676766
0.00569085
-0.000570963
0.00056134
0.00495331
0.000278011
0.00160883
0.00493724
0.00089316
0.000754378
0.00514468
5.55818e-05
-0.000623298
0.00611
-0.00012074
-0.000785845
0.00593698
0.00121715
-0.000431724
0.00503925
0.00073775
0.00199944
0.00582071
0.00078812
-5.4955e-05
0.00629905
0.000794231
-0.000934555
0.00548101
0.000499014
0.000886187
0.0058569
-9.65231e-05
0.000919076
-0.000914666
0.00178883
0.00482069
0.000673076
-0.000388001
0.00458257
-0.000197176
-0.000164764
0.00381242
-0.000590151
0.00130696
0.00518935
-0.000222479
0.000108164
0.00518785
0.000232854
-7.71542e-05
0.00448063
0.000823393
0.00058088
0.00447108
0.000590443
0.000717108
0.00416216
0.000589669
0.000991226
0.00417543
0.000871158
0.000722242
0.00429777
0.000398307
0.000909772
0.00398958
-0.000138856
0.000667855
0.00363674
0.00050984
0.00060237
0.00344306
0.00127144
0.00167735
0.00380794
0.000232575
0.00113507
0.00466632
0.00023825
-0.000594951
0.00466091
0.00107927
-0.000405935
0.00470373
-0.000494713
6.39587e-05
0.00461558
0.000360132
-0.000505117
0.00383305
0.00158818
0.000521747
0.00414941
0.000461126
0.00138123
0.00501615
-0.000170588
0.000668602
0.00514316
0.000728271
1.18938e-05
0.00566948
0.000225602
0.000704107
0.00543632
-0.000244142
0.00128327
0.00461082
0.000781066
-2.37604e-05
0.00461948
0.000258277
0.000588849
0.00508562
0.000866715
0.00104511
0.0049185
0.000313313
0.000827123
0.00440657
-0.000699818
0.000783344
0.00465193
4.6053e-05
0.000366004
0.00543083
0.000133587
0.000697315
0.00518972
0.000258435
0.000442208
0.00522223
-0.000116584
0.000395865
0.00494241
0.000921476
0.000435434
0.00465757
0.00104477
0.000411798
0.00498915
0.000427935
0.00018433
0.00476445
0.000531131
-0.000171103
0.0044976
6.92824e-05
0.00101708
0.00434513
-0.000440387
0.00137735
-7.3018e-05
0.000654822
0.00366248
0.00118156
2.30439e-05
0.00365389
0.00070648
-0.00140587
0.00449606
-0.000280073
-0.000268091
0.0046779
5.15695e-06
0.000636921
0.00422155
0.00046627
0.00046008
0.00464395
0.000788938
-0.000398886
0.00432981
0.0007769
-0.000137162
0.00438899
0.000556206
-0.000268987
0.00517762
0.000341572
-0.00022952
0.00475388
0.000576466
0.000272297
0.00425791
0.000283547
0.000113025
0.00398853
0.000447491
0.000380509
0.00378858
0.0010369
0.000699881
0.00443944
-0.000701888
0.000267291
0.00522911
-0.000254109
-0.000998201
0.00476904
0.000305683
0.000452806
0.00456323
-0.000721357
0.000340756
0.00540293
-0.000163101
-0.000316666
0.00505625
0.00104992
0.000804796
0.0036558
0.00116921
9.48171e-05
0.00393235
0.000131589
-0.00012604
0.00503281
0.000238686
0.000282273
0.00383771
0.00134572
0.00064932
0.00366532
0.000777812
-9.50739e-05
0.00419355
0.000839569
-0.00049836
0.00458634
0.000785163
-0.00101209
0.00559942
2.13554e-05
8.24828e-06
0.00466651
0.000248177
0.000843936
0.00408932
0.00067616
-0.000568221
0.0042575
0.000483189
0.000759178
0.00407279
0.000333573
0.000870286
0.00417848
0.000354402
0.000339525
0.00422947
1.36943e-06
0.000437323
0.00482812
0.000238066
-0.000321349
0.00471476
0.000727328
0.000601639
0.00486358
0.000737211
-0.000220044
0.00438248
0.00152453
0.000112163
0.00366141
0.000545827
0.000744624
0.00488587
-0.000921111
-0.0008321
0.000148098
-7.57243e-05
0.00482889
0.00127255
-0.000583045
0.00412917
0.00162336
-0.000598238
0.00341332
0.000762107
-0.00024235
0.00371876
0.000525519
1.13751e-05
0.00355599
0.00115597
-6.22472e-05
0.00349149
0.00128234
-0.000912912
0.00374489
0.00078985
-0.000213213
0.00435154
-2.57024e-05
-0.00016212
0.0046137
0.000315589
-0.000287193
0.00455531
0.00084729
0.000322916
0.00357097
0.00096421
-0.000147416
0.00284664
0.00134516
-0.000439253
0.0037178
0.000781817
-0.000287095
0.00390359
-0.000203977
-0.000723648
0.00432284
-0.000141759
-0.000801068
0.00436154
-3.68281e-05
0.000737898
0.00371614
0.000191589
0.000193945
0.00479487
1.07174e-05
-0.000992419
0.00474063
0.00120793
0.000331192
0.00411291
0.00155201
0.000383635
0.00387279
0.000735824
-0.000419993
0.00401909
0.000178121
1.29274e-06
0.00402898
0.00112733
0.00043238
0.00312122
0.00151997
0.000253498
0.00308267
0.00108912
6.83335e-05
0.00381841
0.000451615
-0.000295744
0.00433866
-5.27581e-05
-0.00028989
0.00408805
-7.77318e-05
0.000785199
0.004009
0.00043461
0.000614783
0.00401208
0.000951517
0.000337653
0.00341459
0.000942905
0.000431214
0.00341771
5.77486e-05
0.000160485
0.00382019
-0.000791484
0.000333182
0.00425492
-0.000364964
0.000322504
0.00426294
0.00090114
0.000550253
0.00509259
0.000364416
-1.79119e-05
0.00527039
0.00119248
0.000386908
0.0044689
0.00138153
0.000248727
0.00390874
-0.000131946
-0.000653468
0.000346589
-0.000254244
0.00368622
0.00116347
-0.000355389
0.00416004
0.00153022
4.81029e-05
0.00408818
0.0013035
-0.000615612
0.0036113
0.00135264
1.41903e-05
0.00352714
0.00130598
0.000386221
0.00409542
0.00087158
-0.000354463
0.00433108
0.000789994
5.09918e-05
0.00432829
0.000405605
-6.08704e-05
0.00428141
0.000828404
-0.000111393
0.00409601
0.00093592
6.44964e-05
0.00396185
0.000845243
0.000188977
0.00408748
0.00109821
0.000152236
0.00434316
0.000695775
-7.30611e-05
0.00362046
0.000952328
-0.000148269
0.00332351
0.000210908
-0.000237467
0.00403188
-0.000686201
0.000234414
0.00426698
5.59392e-06
9.96227e-05
0.00367861
0.000524204
-4.78024e-05
0.00351616
0.00112635
2.40219e-05
0.00421157
0.000745505
2.97888e-06
0.00423537
0.000880696
0.000125371
0.00316283
0.00078883
0.000294901
0.00290436
0.00114848
0.000146983
0.00400423
0.000853572
0.000266598
0.00404454
0.000309904
0.00123312
0.0029809
0.000694269
0.0005525
0.0022752
0.000830616
-0.000238783
0.00253654
0.000277618
-0.000404116
0.00386151
-0.000528514
-0.000237392
0.00402699
0.000463331
0.000199997
0.0031902
0.00110994
0.000337843
0.00296075
0.000468962
-0.000192398
0.00323436
-0.000763864
-0.000322805
0.00343224
-0.000452316
-9.87658e-05
0.00351173
0.00108002
8.81575e-05
0.00379892
0.000408044
-9.6625e-05
0.00469667
0.000729005
-7.38814e-05
0.00514702
0.000768169
0.000597684
0.00405079
0.000606722
0.000698686
0.00133029
-0.000336682
0.00389079
0.000519864
-0.000181575
0.0040553
0.00145552
-0.000134038
0.00375909
0.00151514
5.14388e-05
0.00356214
0.00110484
0.000550083
0.00333205
0.00112187
0.000457909
0.00395993
0.000220242
7.42353e-05
0.0041186
0.000499539
-0.000210684
0.00319265
0.0010506
-0.000217139
0.00323725
0.000848961
0.000234909
0.00348209
0.000741308
4.38855e-05
0.00290019
0.00156312
5.84118e-06
0.00319755
0.000947556
-6.25296e-05
0.0040066
-0.000167835
-2.96576e-05
0.00390837
0.00075352
0.000598409
0.0028803
0.000740857
0.000168795
0.00262469
-0.000349433
-0.000556522
0.00351228
-0.000186531
-0.000653046
0.00366752
0.000654506
-6.40659e-05
0.00337458
0.000723313
0.000477524
0.00320448
0.000409383
0.00048658
0.00314298
0.000943718
0.000422679
0.00351189
0.000291112
5.27879e-05
0.0033979
0.000863233
-0.000219178
0.0034601
0.000698569
0.000471588
0.00429794
-0.000276327
0.000104705
0.00403487
0.000824888
0.000130343
0.00305444
0.00151182
0.000510253
0.00247509
0.000908585
-0.000176275
0.00303782
-0.000678078
-2.77127e-05
0.00396557
-0.000440865
4.48345e-05
0.00402514
0.000834632
-6.60873e-05
0.00379863
0.0010899
-0.000178367
0.00294537
0.00052605
-5.45419e-05
0.00257564
-0.000231952
-0.000100359
0.00325509
0.000570481
-0.000308621
0.00402513
0.000162239
-0.000141807
0.00418019
0.000339115
0.000390895
0.00375082
0.000874029
0.000411043
0.00347104
0.000900962
0.000112286
0.00121437
7.4203e-05
0.00398243
0.000171674
-0.000235758
0.00391537
0.00145781
-0.00015938
0.00347887
0.00191201
-0.000182631
0.00383404
0.000612822
0.000151007
0.0039587
0.000743392
2.9027e-05
0.0036542
0.000420478
-4.89036e-06
0.00357543
0.000556413
-0.000215963
0.00332152
0.00104843
-0.000234037
0.00269013
0.00105752
0.000174005
0.00269177
0.000592829
-0.000174972
0.0031379
0.0011159
-7.96731e-06
0.00293876
0.00112393
0.000272197
0.0029502
5.28152e-06
-7.32065e-05
0.00349455
0.000363506
-0.000273754
0.00321259
0.00112753
-7.63156e-05
0.00305467
0.000366217
-0.000120936
0.00351517
-0.000243275
-0.000360753
0.00321217
0.00070681
0.000168727
0.00232935
0.00139564
0.000131002
0.0019914
0.000948767
-0.000690016
0.00253052
0.000624974
-0.000675578
0.00246586
0.000313787
-0.000221509
0.00263922
0.00043388
-0.000335779
0.00257558
0.000758229
-0.000173885
0.00257074
-1.82507e-05
-0.000220802
0.00371806
-0.000198217
-0.000226339
0.00382988
0.000943603
0.000140077
0.0034287
0.000673633
0.000258483
0.00374028
-0.000967562
-0.000123019
0.00340688
-0.000276766
0.00016268
0.00308279
0.000934424
8.94451e-05
0.00354033
0.00056727
-3.19466e-05
0.00280972
0.00103922
0.000254178
0.00218871
0.000154508
-9.71304e-05
0.00249386
-3.91948e-05
-0.000140109
0.00306343
-0.000257421
-0.000400766
0.00379044
-0.00025593
-0.000342795
0.00328025
0.000897543
0.000654775
0.00343763
0.0005745
0.00026174
0.000686683
-0.000443409
0.00272525
0.000389203
-0.000446071
0.00370676
0.000863857
-0.00034973
0.0035247
0.00163794
0.000184302
0.00255694
0.000938637
0.000258591
0.00277864
0.00036389
-0.000209497
0.00270588
0.000265232
5.81042e-05
0.00265993
0.000472627
-0.000401971
0.00338732
0.000273694
-0.0004619
0.00287305
0.00117005
0.000128831
0.00219894
0.00119385
-0.000205552
0.00259447
0.000938445
-0.000394967
0.00268043
0.000805428
-4.60884e-05
0.0024323
0.000255161
0.000144381
0.00276239
0.000199858
-0.000122811
0.00302087
0.000531313
-1.96738e-05
0.002783
0.000449613
6.78815e-05
0.0031976
-0.000412865
-9.91182e-05
0.00333526
0.00052258
-8.08818e-05
0.00288935
0.00160122
9.51118e-05
0.00281226
0.00112669
9.07206e-05
0.00285765
0.000781044
-0.000294753
0.00243161
0.000751722
-0.00014585
0.00212755
0.000746512
2.30136e-05
0.00188112
0.000875741
-0.000466835
0.00194853
0.000195447
-0.000671995
0.00315665
-0.000945789
-0.000588286
0.00395257
7.47369e-05
-8.76242e-05
0.00326728
0.00103841
9.03282e-05
0.00293253
-0.000184613
-0.000634498
0.00261904
0.000359303
-0.000257743
0.00223004
0.00104299
0.000186114
0.00265275
0.00022884
9.11429e-05
0.00268769
0.00077542
-0.000169721
0.00204611
0.000796085
-3.7568e-05
0.00196667
0.000475059
0.000170484
0.00234406
-0.000200031
-0.000429533
0.00251212
-6.91747e-05
-0.000601634
0.00263958
0.000711606
-8.05984e-05
0.00308907
0.000207904
-9.95263e-05
0.000987895
-0.000275039
0.00229233
0.000923512
-9.76533e-05
0.00260643
0.000761454
-0.000232921
0.00332575
0.000604395
-0.000286748
0.00302563
0.00089905
3.03338e-05
0.00261255
0.000640153
7.05003e-05
0.00246743
0.000349054
-0.000107277
0.0023755
0.000565052
-0.000353975
0.00246813
0.000150971
-0.000388069
0.00274314
0.000798268
-0.000211633
0.00272859
0.0012628
-0.000218478
0.00257353
0.00125425
-0.000265596
0.00278555
0.000773797
-0.000486251
0.00262961
0.00058634
-0.000284158
0.00236622
0.000587759
-0.000210622
0.00251847
0.000233507
-0.00023173
0.00228733
0.000628807
1.2812e-05
0.00212619
8.27949e-05
-0.000355138
0.00251397
0.00039682
-0.000418807
0.00272793
0.00142215
-0.00011482
0.00263819
0.00115256
4.11705e-05
0.00266973
0.000894891
-2.12275e-05
0.00251089
0.000920238
-0.000168094
0.00221247
0.00113742
-8.96757e-05
0.00239593
0.000870583
-6.55845e-05
0.00253592
0.000304471
-0.000422882
0.0028667
-0.000846181
-0.000313767
0.00308528
8.83992e-05
9.4436e-05
0.00248942
0.00178069
-0.000125885
0.002579
0.000120674
-0.000322711
0.00293816
-6.47258e-05
-1.28234e-05
0.00265554
0.00112572
1.86539e-05
0.00257119
0.000438581
-0.000140766
0.00248705
0.000585685
-0.000256221
0.00227408
0.000826272
-0.000192678
0.00216115
0.000799302
-5.2245e-05
0.00219169
4.94565e-05
-0.000237548
0.00202776
0.000172297
-0.000386172
0.00192467
0.000897707
-0.000447156
0.00241026
-5.56443e-06
-0.000416423
0.00062442
-0.000218125
0.00225209
0.00129546
-0.000173549
0.00252089
0.000692962
-0.000211319
0.00307599
-0.000197299
-6.87653e-05
0.00273037
0.000938689
-0.000114904
0.00245645
0.00108933
-0.000187735
0.00237668
0.000521243
2.55669e-05
0.00220643
0.000900778
-0.000160443
0.0022016
0.000416748
-0.000256749
0.00219226
0.000803459
-0.000382056
0.00228905
0.00122505
-0.000419236
0.00259419
0.000966863
-0.000144508
0.00249187
0.000739229
-0.000108661
0.00206188
0.000943191
-0.000129726
0.0020088
0.000760515
-0.000219589
0.00246175
-2.22723e-05
-0.000363763
0.0025285
0.00060454
-5.01473e-05
0.00220901
0.00037453
5.37857e-05
0.00257576
-0.000139238
6.58838e-05
0.00269617
0.000916832
4.34082e-05
0.00203047
0.00154457
0.00011275
0.00185691
0.00113337
-2.73777e-05
0.00205
0.000787103
-0.000342
0.00212585
0.00117528
-5.30011e-05
0.0019914
0.00127324
1.11431e-05
0.00182167
0.000694376
-0.000376551
0.00222669
-0.000901226
-0.000384869
0.00270227
-0.000217793
-7.17034e-05
0.00243514
0.00186975
-1.96432e-05
0.00202838
0.000670461
-0.000127623
0.00216697
0.000116363
4.86133e-05
0.00221303
0.00101376
6.66428e-05
0.00218876
0.000342451
7.75776e-05
0.00225601
0.000397412
-7.75224e-05
0.0022284
0.000797935
-0.000153049
0.00225817
0.000708628
5.61202e-06
0.00232238
-7.62397e-06
-7.56324e-05
0.00209715
0.000339111
-2.49122e-05
0.0018136
0.00113776
-0.000222515
0.00210104
-0.000138558
-0.000466176
0.000200298
-0.000230102
0.00235511
0.00105318
-0.000296039
0.00275905
0.000409413
-0.00021116
0.00273032
-0.000280548
-0.000202076
0.0024753
0.00102526
-0.000105531
0.00231641
0.00114914
1.58316e-05
0.0021693
0.000604226
-0.000101367
0.00198623
0.00115934
-0.00016307
0.00184622
0.000685807
-0.000200093
0.00187375
0.000772084
-0.000188489
0.00238241
0.000774293
-0.000106317
0.0027156
0.000628156
-0.000124961
0.0022297
0.0011129
-4.80238e-05
0.00190771
0.00116342
-6.67419e-05
0.00199903
0.00062703
-0.000163185
0.00203588
-6.35773e-05
-0.000188368
0.00180316
0.000931785
-0.000145645
0.00190571
0.000435417
-0.00021369
0.00246305
-0.000785295
7.33107e-05
0.00230839
0.000693929
0.00014011
0.00196642
0.00163504
-3.14785e-05
0.00206752
0.00107341
-6.58168e-05
0.00194557
0.000847609
-0.000138853
0.0020719
0.00103358
7.52417e-05
0.00219402
0.00132594
-3.90507e-05
0.00214291
0.000995897
-0.000388782
0.0023449
-0.000836403
-0.00015508
0.00240114
-0.000459388
4.48465e-05
0.00233724
0.00180407
-0.000123451
0.0021411
0.00124824
-0.000242556
0.00225958
0.000252344
-8.63509e-05
0.00248813
0.000719832
-2.70495e-05
0.00219836
0.000454057
2.80098e-05
0.00204645
0.00035208
-0.0001912
0.00206827
0.000719992
-0.000286008
0.00208328
0.00066526
-0.000181554
0.00207415
-3.51646e-05
-0.000136678
0.0020521
0.000347456
-3.36889e-05
0.00208894
0.00117802
-0.000198646
0.00203798
1.02485e-05
-0.00048
0.000128177
-0.000339082
0.00218825
0.00046511
-0.000144095
0.00234726
0.00034846
-0.000253291
0.0021785
1.01764e-05
-0.000284242
0.00217823
0.00094457
-0.000155345
0.002066
0.00114771
-0.000120587
0.00195312
0.000693602
-0.000291976
0.00190473
0.00116356
-0.000107391
0.0015695
0.000984726
-0.000103374
0.00158974
0.00083136
-0.00030251
0.00208687
0.000479177
-0.000292162
0.00219228
0.000544414
-0.000250164
0.00224714
0.000977326
-4.01286e-05
0.00230778
0.000938753
6.53117e-05
0.00199968
0.000834425
-0.000194473
0.00190506
0.000206726
-0.000258521
0.0017107
0.00118353
1.0697e-05
0.00162235
0.000412298
-0.000153691
0.00206494
-0.00122143
-0.000210325
0.00231846
0.000437444
-7.47238e-05
0.00221897
0.0016506
-6.68308e-05
0.00192324
0.00133431
-0.000137242
0.001532
0.00123921
-0.000159937
0.00177364
0.000898205
-0.00011843
0.00233012
0.000707212
-4.69199e-05
0.00246517
0.000922737
-0.000149414
0.00218041
-0.000252343
-0.000260903
0.00198056
-0.000245621
-0.000156069
0.00206335
0.00172903
-5.17273e-05
0.00197044
0.00159332
-0.000107601
0.00216232
0.000202673
-0.000143766
0.002663
0.00017797
-0.000163658
0.00231129
0.000744015
-0.000125867
0.00180719
0.000637111
-0.000134965
0.00191113
0.000473868
-0.000211353
0.00200223
0.000539918
-0.000184892
0.0018232
0.000102712
-0.000187444
0.00171498
0.000343647
-0.000117365
0.00165352
0.00123338
-0.000180544
0.00151355
0.000347175
-0.000388613
-0.000113999
-0.000177577
0.00208672
1.32913e-05
-4.25195e-05
0.00207241
0.000517068
-0.000277403
0.00191751
0.000338295
-0.00028886
0.00187371
0.000884107
-7.20365e-05
0.00183971
0.000995189
-0.000240947
0.00181112
0.000490529
-0.000214986
0.00185308
0.00102473
-0.000103642
0.00159543
0.00115312
-7.34609e-05
0.00160578
0.000850792
-0.000172787
0.00188236
0.000274886
-0.000238075
0.00195815
0.000450868
-0.000238981
0.00211515
0.000743282
-4.98946e-05
0.00212587
0.000753437
-7.6324e-05
0.0018427
0.000954572
-9.13949e-05
0.00172997
0.000423837
-0.000213533
0.00142536
0.00155886
-0.000223312
0.0013361
0.000482797
-0.000280383
0.00175219
-0.00141375
-0.000389205
0.00189936
0.000472387
-0.000230162
0.00173263
0.00166984
-7.81771e-05
0.00187205
0.00114167
-0.00011444
0.00192522
0.00113436
-2.02652e-05
0.0018554
0.00101532
-0.000106677
0.0021293
0.000515756
-0.000127566
0.00231308
0.000811949
-0.00016296
0.00202575
0.000258423
-0.000215664
0.00173481
-0.000103164
-0.00013863
0.00186966
0.00133597
-5.93553e-05
0.00192203
0.00160162
-6.72732e-05
0.00207331
0.000212534
-8.57404e-05
0.00221052
2.15434e-05
-5.58165e-05
0.00201416
0.000975604
-0.000202658
0.00176871
0.000910938
-0.000241888
0.0017163
0.000531908
-0.000300908
0.00185889
0.000465046
-0.000271883
0.00181949
0.000194179
-0.000242203
0.00171408
0.000424399
-0.000204032
0.00169195
0.00134667
-0.000253378
0.00152542
0.000706138
-0.000332681
-0.000276163
-0.000231824
0.00163213
4.03849e-05
-0.000171132
0.00173365
0.000609111
-0.000307006
0.00178094
0.000571237
-0.000348704
0.00161987
0.00102424
-0.000137927
0.00162337
0.000896687
-0.00032051
0.00166338
0.000310162
-0.00024588
0.00166534
0.000957824
-0.000146112
0.00132443
0.00146542
-0.000163626
0.00119303
0.00105359
-0.00024037
0.00157834
-2.42011e-05
-0.000237953
0.00186903
0.000151575
-0.000124836
0.00189103
0.00074906
-9.32902e-05
0.00179127
0.000848514
-0.000211536
0.00161398
0.00104603
-0.000116624
0.00155111
0.000535345
-0.000175245
0.00148168
0.00163871
-0.000146018
0.00118433
0.000770411
-0.000156216
0.0012454
-0.00108323
-0.000486669
0.00149491
0.000560175
-0.000343738
0.00145122
0.00164949
-0.000125698
0.00154058
0.00102458
-9.59539e-05
0.00163375
0.00109912
-0.000146941
0.00181766
0.000914037
-0.000216318
0.00233055
0.000179162
-0.00023983
0.00233784
0.000792404
-0.000166873
0.00176762
0.000879783
-0.000171266
0.00139112
0.000175451
-0.000110883
0.00165534
0.000794496
-9.05466e-05
0.00182418
0.00132565
-0.000101986
0.00175845
0.000178651
-8.43995e-05
0.00172234
3.12027e-05
-6.94832e-05
0.00170536
0.00105542
-0.000202928
0.00157384
0.00105438
-0.0002496
0.00154769
0.000558645
-0.0003284
0.00165499
0.00039125
-0.000225494
0.00155609
0.000406312
-0.000260367
0.00156412
0.000445838
-0.000185528
0.00163752
0.00129679
-9.74497e-05
0.00155557
0.000810805
-9.95458e-05
-0.000272257
-0.000288419
0.00136835
0.000206254
-0.000265205
0.00154494
0.000519611
-0.000224028
0.00166727
0.00056092
-0.000225176
0.0016742
0.000895219
-0.00012519
0.0014161
0.001089
-0.000177997
0.00127309
0.000370974
-0.000204919
0.00149074
0.000598568
-0.000137017
0.00144671
0.00157602
-0.000178486
0.00122583
0.00134463
-0.000156198
0.00135907
1.13795e-05
-0.000307589
0.00159558
-5.9373e-05
-0.000164106
0.0015833
0.000733088
-0.00018063
0.00151471
0.000853852
-0.000214856
0.0015038
0.000979857
-5.66477e-05
0.00134876
0.000706378
-0.000141907
0.00138105
0.00161099
-0.000147561
0.00125739
0.000838934
-0.000162989
0.00116007
-0.000730479
-0.000395221
0.00140682
0.000591058
-0.000332729
0.00147015
0.0014918
-9.39631e-05
0.0015164
0.000883139
-5.71314e-05
0.00168994
0.000877876
-0.000203237
0.00188005
0.000645054
-0.000190101
0.00212435
5.42641e-05
-0.000301021
0.0020762
0.000860605
-0.000213068
0.00162351
0.00135308
-5.45817e-05
0.0013434
0.000386302
-5.77816e-06
0.0016583
0.000245306
3.03478e-05
0.00173206
0.00112867
-4.59354e-05
0.00154129
0.000271436
-0.000157034
0.00157264
2.88814e-05
-0.000126063
0.00164847
0.00103663
-0.000202104
0.00150947
0.00120815
-0.000222213
0.00142888
0.000699548
-0.000339833
0.00157313
0.000319288
-0.000224625
0.00134075
0.000722316
-0.000201111
0.00129117
0.000529325
-0.000181557
0.0015549
0.00109898
-0.000147595
0.00163388
0.000688119
-3.94666e-05
-0.000152467
-0.000179164
0.00133534
0.000272218
-0.000263232
0.0014718
0.000442677
-0.000192634
0.001462
0.000554025
-8.81761e-05
0.00151259
0.000675187
-0.000152142
0.00122005
0.00129678
-0.000110593
0.000959018
0.000593598
-0.000122504
0.00116198
0.000261825
-0.000108202
0.00142007
0.00137367
-0.000199855
0.00138386
0.00143394
-0.000148723
0.00133425
0.000195592
-0.000220903
0.00148258
-0.000174689
-9.41703e-05
0.00150868
0.00070414
-0.000120101
0.00143706
0.00083338
-0.000127459
0.00141745
0.000837341
-3.7224e-05
0.00128303
0.000731039
-3.19104e-05
0.0013378
0.00152318
-2.34276e-05
0.00121653
0.000907699
-0.000133089
0.000998094
-0.000444163
-0.000283307
0.00128704
0.000349147
-0.000222748
0.00141888
0.00122588
-0.000106587
0.00155445
0.000757741
-0.000199867
0.00171374
0.000742108
-0.000192832
0.00162112
0.000646315
-0.000159372
0.00152255
0.000110006
-0.000202011
0.00158103
0.000701962
-0.00010154
0.00155212
0.00135747
-2.01112e-05
0.00132285
0.000498193
1.89453e-05
0.00153957
-0.000259679
0.000128447
0.00157306
0.000936326
6.57475e-05
0.00138577
0.000284466
-0.000113819
0.00146777
-3.50516e-05
-0.000166039
0.00153889
0.00105245
-0.000223224
0.00130967
0.00139905
-0.000208886
0.00130188
0.00075263
-0.000267765
0.00147389
0.000202796
-0.00016892
0.00123344
0.00100366
-0.00016813
0.00120353
0.000575726
-0.000150663
0.00135367
0.000980119
-0.000183368
0.00141902
0.000571896
-8.72377e-05
-0.000181877
-9.48116e-05
0.00124362
0.000250379
-0.000216363
0.00142069
0.000330747
-0.000160468
0.00148431
0.000424875
-6.62682e-05
0.00149992
0.000459445
-9.35258e-05
0.00114926
0.00164505
-0.000152206
0.000770925
0.000985939
-0.000162107
0.000919261
1.02884e-05
-0.000130846
0.00137306
0.000899151
-0.000139435
0.00152002
0.00128569
-0.00012413
0.00140741
0.000382141
-0.000152799
0.00135661
-0.000120289
-4.75351e-05
0.0013546
0.000699159
-0.00011794
0.00132073
0.000798183
-0.000130081
0.00132521
0.00073628
-0.000144486
0.00133882
0.000650262
-9.98663e-05
0.00134554
0.00146056
4.1096e-05
0.0010345
0.00108603
-5.51475e-05
0.000930056
-0.000349168
-0.00030676
0.00129997
-0.000117084
-0.000103701
0.00135177
0.00109136
-3.55732e-05
0.0014369
0.00072355
-0.000195985
0.00151324
0.000573496
-0.000174344
0.00141291
0.000652201
-0.000174548
0.00118177
0.000169593
-3.52357e-05
0.00120576
0.000376954
7.55706e-05
0.00139499
0.00110943
-0.000105187
0.00116888
0.000711966
-0.000125942
0.00129609
-0.000643732
0.000129405
0.00131128
0.000685873
8.42994e-05
0.0011475
0.000190595
-7.25002e-05
0.00129357
-0.000170299
-0.000146794
0.0013442
0.001091
-0.000236081
0.00112889
0.00157097
-0.000152558
0.00108261
0.000841074
-0.000240944
0.00120626
5.25219e-05
-0.000122427
0.00109162
0.00103136
-7.05048e-05
0.00105011
0.000597332
-0.000119002
0.00118171
0.000844043
-0.000193629
0.00127292
0.000374999
-8.32127e-05
-0.000195373
-7.80026e-05
0.00123642
0.000189907
-0.000222364
0.00123843
0.000335669
-0.000135978
0.00120499
0.000362014
-4.81619e-05
0.00135117
0.000131622
-9.86711e-05
0.00119916
0.00184529
-0.000138843
0.000917649
0.00126838
-0.000119938
0.000970256
-0.000122946
-0.000158341
0.00132732
0.000526502
-0.000108176
0.00138495
0.00121336
-0.000134351
0.00126021
0.000564055
-0.00016238
0.00132266
-0.000172748
-7.15586e-05
0.00127309
0.000725847
-7.17884e-05
0.00113298
0.000873286
-0.000106163
0.00109096
0.00071792
-0.000163169
0.00110448
0.000576125
-0.000143781
0.00132814
0.00121031
-4.9706e-05
0.00113729
0.0010967
5.14727e-05
0.000892785
-0.000160414
-0.000270755
0.00124417
-0.000464711
-0.000277047
0.00139215
0.000888329
-7.14022e-05
0.00134836
0.000831245
-0.000144243
0.00119569
0.000550323
-5.00292e-05
0.0011179
0.000605918
-0.000146037
0.00128549
-0.000112875
-4.92936e-05
0.00144233
-6.58535e-05
0.000105906
0.00141647
0.00103778
-8.63627e-05
0.00121312
0.00089583
-0.000133121
0.00125184
-0.000876806
2.54917e-05
0.00112514
0.000648194
-4.4173e-05
0.000986529
0.000136482
-8.55056e-05
0.00119281
-0.000349568
-0.000132634
0.00127151
0.00111135
-0.000241924
0.0011622
0.00164841
-9.4349e-05
0.0011032
0.000930882
-0.000154292
0.00112492
3.87785e-05
-0.000167437
0.00106299
0.000972759
-9.5701e-05
0.000986887
0.000592296
-6.33175e-05
0.00105955
0.000717219
-0.000116415
0.00116722
0.000159605
-0.000119782
-0.000174525
-0.000136003
0.000960318
0.000291556
-0.000179286
0.00102304
0.000259422
-0.000202401
0.00109362
0.000138018
-4.89282e-05
0.00118339
-8.02086e-05
-0.000118567
0.00103901
0.00200078
-5.78611e-05
0.000889579
0.00139158
-0.000113366
0.000997656
-0.000275392
-0.000189832
0.00120561
0.000315349
-0.000133595
0.00118522
0.00125055
-0.000185053
0.00103865
0.000700429
-8.86945e-05
0.00107403
-0.000248762
-7.75323e-05
0.00105475
0.000688746
-6.36717e-05
0.000928941
0.000977411
-0.000104153
0.000729334
0.00087614
-0.00019854
0.000802814
0.000383287
-0.000147343
0.00124115
0.000651176
-2.53716e-05
0.00122298
0.000899254
6.6557e-05
0.00100479
1.90484e-05
-0.000220174
0.00114968
-0.000530728
-0.000327257
0.00128878
0.000693742
-0.000112389
0.0012378
0.000819254
-4.26694e-05
0.000971799
0.000615003
-1.73402e-05
0.000975894
0.000488183
-0.000185577
0.00127559
-0.000448576
-0.000157176
0.00142283
-0.000331057
-3.17842e-05
0.00135055
0.00109801
-0.000155784
0.00112472
0.00108285
-6.02932e-05
0.00115778
-0.00100514
-4.17978e-05
0.00118304
0.00056881
-5.63761e-05
0.000955215
0.000194556
-1.66417e-05
0.00101995
-0.000405773
-0.000108835
0.00112202
0.00114781
-0.00026625
0.00107305
0.00170517
-0.000110873
0.00103155
0.000953715
-9.86337e-05
0.00101272
8.5946e-05
-0.000213978
0.00103705
0.000846029
-0.000138466
0.00102819
0.000492427
-1.298e-05
0.00107305
0.000607606
-5.59627e-05
0.00119206
-3.99694e-05
-0.000121373
-7.64855e-05
-0.000117599
0.000733169
0.000522569
-0.000102067
0.000809857
0.00019367
-0.000212615
0.00100215
-0.000169108
-8.2063e-05
0.000966079
-4.16944e-05
-0.000181
0.000851524
0.00214697
-7.9903e-05
0.000757929
0.00142315
-6.2463e-05
0.000772675
-0.000304146
-0.000213775
0.00103168
8.41274e-06
-0.00012474
0.00114294
0.00116619
-0.0001938
0.00107027
0.000744735
-3.74811e-05
0.00101034
-0.000280646
-4.48467e-05
0.000937104
0.000633854
-5.87211e-05
0.000905326
0.00103042
-0.000134084
0.000731839
0.00101371
-0.000151543
0.000782343
0.000213099
-0.000125395
0.00107311
0.000250514
-2.22431e-05
0.00101453
0.000793603
-9.50625e-06
0.000954355
5.64288e-05
-0.000190498
0.0010939
-0.000566531
-0.000257001
0.00115159
0.000584414
-8.79104e-05
0.00110804
0.000746865
1.29963e-05
0.00099971
0.000558639
-4.69024e-05
0.00105474
0.000320509
-0.000126203
0.00115116
-0.000577529
-0.000102473
0.00115687
-0.000369485
-0.000107377
0.00120113
0.00112021
-0.000198043
0.00105594
0.0011558
-3.80596e-05
0.00101876
-0.00102723
-8.9854e-05
0.00117001
0.000426967
-4.29294e-05
0.000979059
0.000254748
8.13748e-06
0.000933281
-0.000370196
-0.000111561
0.00098568
0.00125565
-0.000238786
0.000992959
0.00171519
-7.6774e-05
0.000962727
0.000924234
-5.84012e-05
0.000737925
0.000290436
-0.000147381
0.000734001
0.000750839
-0.000127029
0.000913035
0.000186242
5.24994e-05