/*--------------------------------*- C++ -*----------------------------------*\
  =========                 |
  \\      /  F ield         | OpenFOAM: The Open Source CFD Toolbox
   \\    /   O peration     | Website:  https://openfoam.org
    \\  /    A nd           | Version:  10
     \\/     M anipulation  |
\*---------------------------------------------------------------------------*/
FoamFile
{
    format      ascii;
    class       volVectorField;
    location    "50";
    object      U;
}
// * * * * * * * * * * * * * * * * * * * * * * * * * * * * * * * * * * * * * //

dimensions      [0 1 -1 0 0 0 0];

internalField   nonuniform List<vector> 
25600
(
(1.50946 0.24653 0.141743)
(1.1057 0.115442 0.0100434)
(1.08619 -0.110525 0.261904)
(0.985062 -0.110007 0.507259)
(0.903356 0.0981217 0.273157)
(0.695695 0.107366 0.235659)
(1.06917 -0.124717 0.245664)
(1.45683 -0.29216 0.3362)
(1.16978 0.244431 0.0707847)
(1.46765 0.242624 -0.00530623)
(1.04218 0.168426 0.130721)
(1.08422 0.11111 0.0103408)
(1.09073 -0.300862 0.273569)
(1.24105 -0.0701678 0.236495)
(1.12999 -0.031496 -0.00691929)
(1.4801 -0.170876 0.400812)
(1.62916 0.0211393 0.454804)
(1.16215 0.171608 -0.0918303)
(0.975277 0.312569 0.00389597)
(1.29605 0.145661 0.237287)
(1.50624 -0.193421 0.147634)
(1.32311 0.13703 0.0159808)
(0.924682 -0.127688 0.159799)
(1.05146 -0.135714 0.0838834)
(1.29974 0.276043 -0.139668)
(1.18464 0.00523504 -0.0505364)
(1.372 -0.00383712 0.0974836)
(1.27219 0.0540318 0.203802)
(0.868863 -0.208522 0.268152)
(1.32515 0.102299 0.342558)
(0.805344 0.256788 0.0330128)
(1.05339 0.111285 -0.0986535)
(1.44619 -0.051922 0.12127)
(1.02159 0.0655162 -0.103574)
(1.03522 0.370123 -0.090252)
(0.939334 0.16193 -0.0134197)
(0.665085 -0.135372 0.28901)
(1.084 0.00543958 0.28528)
(0.98128 0.169822 -0.232563)
(1.21795 0.105101 0.0203087)
(1.313 0.190823 0.10195)
(1.43753 -0.0818471 0.0920144)
(1.40911 -0.0317069 0.0473391)
(1.43323 0.314954 -0.0205306)
(1.32072 -0.053719 0.17445)
(0.850183 -0.226093 0.126206)
(0.819068 0.0271872 -0.0875156)
(1.14885 0.106944 -0.0724485)
(1.29514 0.230539 -0.000716729)
(1.29729 0.138311 -0.0977588)
(1.28563 -0.193433 0.0713525)
(1.63476 0.104194 0.0171478)
(1.34808 0.280963 0.0993474)
(0.833986 -0.0682893 0.141185)
(1.40902 0.241386 -0.0278111)
(0.919234 0.0927161 0.0873377)
(0.863931 -0.164655 0.062993)
(1.52276 0.0342618 -0.00848518)
(1.20096 0.0338119 0.0917229)
(1.3075 0.338939 0.0168507)
(1.20805 0.349325 -0.0329262)
(1.21576 0.0837863 -0.00686332)
(1.69626 0.566723 -0.0921625)
(1.43699 0.42241 -0.01354)
(1.47295 -0.0348785 0.128722)
(1.44016 -0.00738722 0.0355249)
(1.63905 0.243425 -0.0897424)
(1.31708 0.220279 0.129667)
(1.4495 0.0515472 0.0331361)
(1.21754 0.0825845 0.186103)
(1.01986 0.184127 0.106104)
(1.27399 -0.0271952 -0.0117397)
(1.13351 0.140811 -0.0290208)
(1.64432 0.315997 -0.152828)
(1.13092 0.0042472 0.138367)
(1.09549 0.236809 -0.013081)
(1.64364 0.476501 -0.0658985)
(1.30237 0.165567 0.0954199)
(1.18962 -0.111705 0.126435)
(1.49892 -0.123754 0.209113)
(1.01683 0.0377618 0.000885639)
(1.43069 0.0751871 -0.1158)
(0.86346 -0.15555 0.122258)
(1.08159 -0.176472 0.0718889)
(1.56795 0.100507 -0.106467)
(1.06898 0.191957 -0.0347514)
(1.1486 0.0242037 0.0632057)
(1.14322 0.136355 0.201803)
(1.01097 0.126581 0.231776)
(1.0817 0.0746594 0.244141)
(1.07275 0.175662 0.121074)
(0.959823 0.0877772 0.0272859)
(0.886682 0.00568578 0.282671)
(0.830045 0.127385 0.20964)
(1.15113 0.119281 -0.0794188)
(1.17676 0.300191 0.00915979)
(1.21543 0.0157953 0.0645984)
(1.17761 0.0751428 -0.0497032)
(1.1061 0.256311 0.0596721)
(0.868469 -0.0103914 0.18966)
(1.23101 0.06571 0.154166)
(1.29156 0.125499 0.0215636)
(1.37362 -0.0717314 0.0236817)
(1.47827 0.0270414 0.0882131)
(1.26523 0.212667 -0.0704954)
(1.056 -0.0853419 0.183846)
(1.30426 0.127559 0.272594)
(1.30016 0.00335696 0.104006)
(1.17311 -0.254404 0.0219488)
(1.07052 0.0310008 0.0460534)
(1.29303 0.190593 0.101467)
(1.42941 0.0499045 0.116352)
(1.22154 -0.170714 0.122631)
(1.44032 0.159098 0.023057)
(1.02525 0.243624 0.156686)
(1.3518 0.110253 -0.00387571)
(1.2183 -0.0823672 -0.116817)
(1.14693 0.043684 0.149773)
(1.15167 0.0480846 0.179318)
(1.04609 -0.233263 0.182274)
(1.11319 0.241213 -0.186099)
(0.92194 -0.161288 -0.244929)
(1.11023 -0.109291 0.102223)
(1.41321 0.0731691 0.142215)
(1.19817 -0.003725 -0.0177267)
(1.16336 0.118791 -0.0127111)
(1.43247 0.223759 -0.00258458)
(0.982133 0.130283 -0.00209859)
(1.46048 0.223579 0.0316897)
(1.41288 0.0977431 0.00428224)
(1.24035 -0.214453 0.00084506)
(1.1717 0.13555 0.0730063)
(0.997001 0.514435 0.116099)
(1.13474 -0.0136629 0.0254882)
(1.36621 -0.00981675 -0.103479)
(1.56193 0.166134 0.0610951)
(1.08452 -0.16902 0.0600462)
(1.44129 0.0549106 -0.0239402)
(1.54132 0.349781 0.116793)
(1.3574 0.19843 -0.00883156)
(0.64394 -0.113179 -0.00156704)
(1.54325 0.163254 0.0577106)
(1.31533 0.152562 0.0793773)
(0.774949 -0.135212 0.0196325)
(1.3033 0.0736337 -0.0214115)
(1.02384 0.160911 -0.103125)
(1.51988 0.206704 0.0790511)
(1.6043 0.118482 0.117023)
(1.00394 -0.0380454 -0.0849724)
(1.28102 -0.00491546 0.223176)
(1.07334 -0.12216 0.205312)
(1.20347 0.0426473 0.0943683)
(1.14289 0.109467 0.0454008)
(1.22313 0.208437 -0.195927)
(1.44439 0.207453 -0.000866454)
(1.19479 0.0856676 -0.107542)
(1.51913 0.250278 0.0672392)
(0.922246 -0.0171434 0.180541)
(1.1063 -0.219884 -0.0634792)
(1.64272 0.182997 0.0116234)
(1.47222 0.189688 -0.0567099)
(1.51308 0.408519 -0.0901122)
(1.00399 0.0172558 -0.0240121)
(1.10625 -0.0564868 0.0565275)
(1.15545 0.189465 -0.0190085)
(1.03979 0.191746 -0.171488)
(1.09823 0.0767836 -0.0453662)
(1.21392 0.0828955 -0.0769957)
(1.42797 -0.0708925 0.0411147)
(1.42834 0.111912 0.182033)
(1.3907 0.312719 -0.0305713)
(0.765201 0.0580596 -0.11423)
(0.975726 -0.0749253 -0.0320802)
(1.32497 -0.244974 -0.0867142)
(1.07656 -0.0877537 -0.136353)
(1.59302 -0.0190854 0.0698587)
(1.01922 -0.156144 0.0416475)
(1.27443 -0.12338 -0.0675015)
(1.69666 0.116029 0.0751207)
(1.21084 0.272125 0.014438)
(1.28833 0.150122 -0.109836)
(1.08909 -0.0785784 0.0193053)
(1.37242 0.33743 0.126331)
(1.08654 0.409275 0.0313697)
(0.843564 0.247542 0.0157198)
(1.05477 0.159871 -0.0134685)
(1.27212 -0.175859 0.00983739)
(1.39583 -0.0154148 0.0808357)
(1.10135 0.27899 0.0419573)
(1.35151 0.174171 0.0742011)
(1.10039 0.217145 0.0261267)
(1.02431 0.103058 -0.0603913)
(1.06554 -0.0960982 0.0236485)
(1.28379 -0.0742131 0.0475784)
(1.28515 0.0731411 0.147337)
(1.33164 0.151461 0.0439282)
(1.83513 0.372091 0.0391566)
(1.3899 0.236985 0.0466944)
(1.35791 -0.136187 -0.0846888)
(1.0165 -0.0948219 -0.0314539)
(1.16201 0.32909 -0.107574)
(1.31201 0.26039 0.00439472)
(1.48328 0.247469 -0.0774918)
(1.27596 0.225104 -0.0324742)
(1.17158 0.267247 0.0367123)
(1.18807 0.315955 -0.0891096)
(1.61148 0.230025 0.0587936)
(1.3067 -0.0808644 -0.00683383)
(1.56922 0.172203 -0.000532667)
(1.37678 0.23513 0.045655)
(1.36978 0.0806525 0.0454527)
(1.28586 0.421383 0.0338174)
(1.49319 0.359629 -0.0140022)
(1.41995 0.147673 -0.00849956)
(1.03558 0.0174914 -0.0676955)
(1.22053 -0.00138722 0.0305701)
(1.47433 0.220299 -0.0213621)
(1.39449 0.127482 -0.0261425)
(1.11872 0.316392 0.0216635)
(1.25246 0.302384 0.0319008)
(1.57826 0.140771 0.102275)
(1.29277 0.154072 0.0556981)
(0.837301 0.156634 -0.00422112)
(1.10344 0.230116 0.0812924)
(1.63469 0.211505 0.213162)
(1.0719 0.0347866 0.0784475)
(0.935318 0.131185 -0.0499499)
(0.637603 -0.0153608 -0.0588811)
(1.04213 -0.0758747 -0.0855712)
(1.58577 0.235513 -0.0132732)
(1.12504 0.202938 0.0507448)
(1.01203 -0.0734736 -0.019938)
(1.00688 -0.253485 6.13222e-05)
(1.15194 -0.093022 0.0339788)
(1.18811 0.263654 0.102388)
(1.18363 0.0342134 0.0607341)
(1.34817 0.101956 0.0130189)
(1.87015 0.278719 0.165973)
(1.59416 0.0773467 0.157847)
(1.08822 0.178246 -0.0628955)
(1.19085 0.171428 -0.0307431)
(1.66533 0.317073 -0.000298735)
(1.37374 0.296204 0.0393749)
(1.40866 0.32767 0.0675202)
(1.23622 0.260679 0.00878229)
(1.24063 0.053555 -0.0230148)
(1.73338 0.0814549 -0.0412681)
(1.28012 0.203262 -0.0366729)
(1.09677 0.165831 0.0798907)
(1.3459 0.14771 0.0711058)
(1.19848 0.224764 0.0462778)
(0.980131 0.0525268 -0.0656727)
(1.37395 -0.0688075 -0.0670525)
(1.60754 0.227655 0.123653)
(1.30742 0.0726081 -0.0161853)
(0.811155 -0.222816 -0.186571)
(1.13162 -0.193737 -0.091503)
(1.48847 0.0685584 0.0779146)
(1.27692 0.176359 0.00468936)
(1.21075 0.049382 0.00101016)
(1.14515 0.231045 0.0884282)
(1.19903 0.150875 -0.0172228)
(1.42009 0.282892 -0.0722281)
(1.091 0.121517 0.12283)
(1.50515 -0.0744056 -0.0164109)
(1.67436 0.235387 0.0237373)
(1.27013 0.181968 0.163834)
(1.03465 0.0982258 -0.0012776)
(0.820161 -0.146905 -0.0172498)
(1.39788 -0.0617992 0.027636)
(1.56037 0.195607 0.0818955)
(1.44761 0.243303 0.0413858)
(1.36816 -0.0326145 -0.00387397)
(0.815699 -0.0710795 -0.0737775)
(1.07326 0.198952 -0.0675322)
(1.37046 0.105272 -0.00131515)
(1.58824 0.195998 0.0634635)
(1.54982 0.0734481 0.0775412)
(1.24193 0.181237 0.0476939)
(1.31144 0.406001 0.0609447)
(1.45202 0.0230559 -0.0684542)
(1.80141 0.302637 0.0138108)
(1.41753 0.293452 -0.0524105)
(1.40765 0.121859 0.0305369)
(1.7066 0.190199 -0.00765127)
(1.52821 0.0236137 -0.0274448)
(1.51053 0.131434 -0.0528014)
(1.36176 0.257763 -0.0514563)
(1.33924 0.165649 0.0252248)
(0.903115 0.139439 -0.0683834)
(1.2816 0.407424 0.0485155)
(1.30756 0.326225 0.132114)
(1.05562 -0.00105203 -0.00609291)
(1.36927 0.0769423 -0.0804721)
(1.4775 0.189511 0.0329215)
(1.1411 0.0346688 0.0727453)
(1.37236 0.0962428 -0.0338559)
(1.49596 0.207776 0.0580513)
(1.152 0.116447 0.00332728)
(0.714004 0.0835232 -0.204004)
(0.919628 0.124529 -0.121993)
(1.15073 -0.0219936 -0.0362355)
(0.866097 0.0691078 -0.170466)
(1.27476 0.172599 0.0039868)
(0.852599 -0.0271319 0.00266387)
(1.21884 0.10071 -0.0974821)
(1.82439 0.429993 -0.039337)
(1.34719 0.291905 0.0619117)
(1.40836 -0.10813 0.0124416)
(1.62672 -0.108026 0.0504203)
(1.1739 0.174134 0.0740345)
(1.37538 0.214009 0.0864444)
(1.52039 0.231716 0.0621087)
(0.741422 -0.0365548 -0.0547178)
(1.0506 0.030748 -0.067258)
(1.01291 -0.0326404 -0.135425)
(1.48231 -0.0484772 -0.0648364)
(1.62491 0.244696 0.130904)
(1.05747 0.168271 0.0326528)
(1.70743 0.0610405 -0.11663)
(0.945767 0.0502793 -0.0686851)
(1.48362 0.248339 -0.00222338)
(1.89419 0.474485 0.0564672)
(1.24379 0.12797 -0.00368706)
(1.05765 0.0936295 -0.0896514)
(1.45766 0.162243 0.01534)
(0.975291 0.0856666 -0.144905)
(1.39299 0.143194 -0.121788)
(1.65404 0.279758 0.0483166)
(0.910573 0.116326 -0.047776)
(1.07686 0.0637095 -0.0538059)
(1.26402 0.125651 -0.00912901)
(1.12355 0.00667594 0.0527204)
(1.05555 0.0604248 -0.04043)
(1.44736 0.265593 -0.0518669)
(1.28903 0.12912 0.00480724)
(1.19412 -0.161284 -0.00361953)
(1.63864 0.0654725 -0.025747)
(1.40174 0.38997 0.0591956)
(1.1871 0.305789 0.0232831)
(1.32027 0.134708 -0.108897)
(1.25863 0.127597 0.0126353)
(0.944332 0.106466 0.048667)
(0.930143 0.105244 -0.136445)
(0.770633 0.00734365 -0.178553)
(0.969818 -0.173658 -0.15675)
(1.88687 0.00728238 0.0251884)
(1.71841 0.029375 0.0460421)
(1.15814 -0.219413 -0.197913)
(1.44864 -0.00313223 -0.018525)
(0.949936 0.178368 0.0831279)
(1.05838 0.00142839 0.118395)
(1.33398 0.177589 -0.070251)
(1.04439 0.096916 -0.0712217)
(0.816599 -0.0437232 0.151535)
(0.954452 -0.062475 -0.0429435)
(1.12321 -0.0556213 -0.112028)
(1.17158 0.113041 -0.0292899)
(1.19691 0.0610475 -0.109978)
(1.55025 0.209452 -0.112869)
(1.17979 0.117496 0.0389489)
(1.06228 0.138771 -0.0327076)
(1.55786 0.214226 -0.0984123)
(1.71763 0.257532 0.0268121)
(1.27535 0.075201 0.0442081)
(1.2792 -0.0522486 -0.0227207)
(1.17958 0.0993322 -0.0817817)
(1.16738 -0.00504354 -0.0855954)
(1.26515 0.178421 -0.0494153)
(1.42836 0.320354 0.00997082)
(1.28705 0.282414 0.00324771)
(1.27863 0.180377 -0.111966)
(1.43786 0.0833341 -0.0693858)
(1.17945 0.0297472 -0.0621492)
(1.17669 0.000716024 -0.137339)
(1.2994 0.0528975 -0.0131911)
(0.942666 -0.0373268 -0.0368014)
(1.14907 0.113304 -0.11442)
(1.37003 0.273146 -0.0301725)
(1.3221 0.164939 -0.0221015)
(1.26994 0.192255 -0.0080701)
(1.39117 0.202542 -0.00702172)
(1.08484 0.207963 -0.00601582)
(1.07743 0.252172 0.00751885)
(1.30278 0.0770229 -0.0881291)
(1.17706 -0.178156 -0.0578355)
(1.68063 0.00791714 0.176053)
(1.40768 0.307746 0.0524616)
(0.99468 0.0895857 -0.0894415)
(1.56239 0.12238 0.0188553)
(1.36586 0.247498 0.0163141)
(1.2562 0.0968921 0.000948716)
(1.26569 0.125626 -0.0771333)
(1.17019 0.202556 -0.0692728)
(1.08984 0.210333 0.052878)
(1.06359 -0.0265649 -0.00136668)
(1.07084 0.0240438 -0.0692652)
(0.965359 0.169488 -0.0954571)
(0.933534 0.0220064 -0.0962423)
(1.43823 0.200113 -0.0776418)
(1.32308 0.221485 0.000109467)
(1.11554 0.133059 0.00241188)
(1.67061 0.0269677 0.0190746)
(1.65686 0.107871 -0.0561435)
(1.28602 0.149335 0.00412782)
(1.41063 0.157998 0.0894501)
(1.16939 0.143552 0.0143253)
(1.20194 0.0490821 0.0337354)
(1.22027 0.127303 -0.0792702)
(1.15952 0.21271 -0.0767078)
(1.3214 0.223435 0.0741654)
(1.51473 0.122034 0.00622799)
(1.17922 0.16 -0.0443147)
(1.0581 0.192636 -0.00548856)
(1.13393 0.0628868 -0.075676)
(1.54904 0.171012 -0.0143674)
(1.19902 0.0748693 0.0110438)
(1.18618 0.0573842 -0.0334119)
(1.62246 0.280826 -0.0387832)
(1.30813 0.278198 -0.00803854)
(0.898696 0.155036 -0.00474929)
(1.13069 0.133763 -0.108854)
(1.1081 0.213812 0.00558219)
(1.1778 0.120152 0.0406432)
(0.974671 0.0355382 -0.129223)
(1.00621 -0.185077 -0.0896345)
(1.42557 0.0147419 -0.000486165)
(1.54325 0.4327 -0.0175771)
(1.07765 -0.0198091 0.0543537)
(1.13407 -0.124747 0.141706)
(1.2425 0.174174 -0.00832241)
(1.14275 0.0567297 -0.0383398)
(1.23527 0.100743 -0.0760685)
(1.21443 0.131309 -0.078602)
(1.21219 0.122161 0.0180532)
(1.26104 0.0420262 0.0122446)
(1.25169 0.0626706 0.0527235)
(1.02424 0.192684 -0.0730032)
(0.95806 -0.025506 -0.164868)
(1.33357 0.0527771 -0.0552351)
(1.20709 0.295968 -0.0289908)
(1.60069 0.154693 0.0200436)
(1.70201 -0.10073 -0.0157209)
(1.551 0.212809 -0.0434683)
(1.43281 0.287558 -0.00603084)
(1.34783 0.0849244 0.0116498)
(1.20652 0.188426 0.0165407)
(1.18484 0.120041 0.0132162)
(1.04762 0.203291 -0.037611)
(1.17937 0.271168 -0.030791)
(1.66964 0.181722 0.0118764)
(1.5774 0.182672 0.0444061)
(1.08136 0.194208 -0.00179624)
(1.20964 0.103048 -0.0594102)
(1.19933 -0.0608302 -0.017854)
(1.20145 0.0994821 -0.014995)
(0.966466 0.0578102 -0.0727389)
(1.32615 -0.107297 0.0250833)
(1.60773 0.147168 0.0245344)
(1.15735 0.337558 -0.0260173)
(1.18089 0.258155 -0.0281663)
(1.32153 0.185681 -0.0952927)
(1.02272 0.262954 0.0571851)
(1.40306 0.338538 0.0240673)
(1.2446 0.212908 -0.0809736)
(1.3243 -0.190243 0.040277)
(1.48199 -0.0909551 0.011003)
(1.39496 0.314437 -0.065477)
(1.36585 0.243449 0.0066955)
(1.2132 0.132808 0.0751242)
(1.52863 0.261326 0.0531187)
(1.40756 0.0997656 0.00229478)
(1.22386 0.0748645 -0.105096)
(1.21547 0.201211 -0.0950285)
(1.26054 0.168414 -0.0525954)
(1.24208 -0.0376203 -0.0581447)
(1.2209 0.046981 0.0294389)
(1.24598 0.247969 -0.0322262)
(1.24137 -0.0192155 -0.191755)
(1.21986 0.0279593 -0.11685)
(1.23649 0.166539 -0.00931214)
(1.63218 0.0287994 0.013341)
(1.44101 -0.0176898 0.00897259)
(1.41531 0.233566 -0.031446)
(1.46812 0.190495 -0.0771224)
(1.25095 0.129984 -0.106828)
(1.29155 0.27906 -0.014581)
(1.22914 0.158708 -0.039799)
(0.840195 0.114368 -0.0719763)
(1.24478 0.051636 -0.0700792)
(1.51643 0.0698549 -0.0811825)
(1.35324 0.238205 0.0258391)
(1.5972 0.258728 0.066703)
(1.45509 0.154394 -0.0622063)
(1.18054 0.0277403 -0.0172214)
(1.31238 0.246178 0.0709511)
(0.968765 0.125546 -0.10733)
(1.13131 -0.209668 -0.103793)
(1.56992 0.0917357 0.0187345)
(1.51321 0.319622 0.00606875)
(1.39641 0.214686 -0.0386623)
(1.14759 0.170455 -0.0823426)
(0.875828 0.136353 -0.000136717)
(1.41802 0.21557 -0.0183591)
(1.67788 0.219669 0.00914539)
(1.55739 -0.124159 0.0322156)
(1.31738 -0.102457 -0.0389664)
(1.29091 0.382444 -0.0207769)
(1.40365 0.271357 -0.00866572)
(1.1898 -0.00321491 -0.0236428)
(1.68502 0.0253754 0.013954)
(1.78364 0.0944813 0.00609968)
(1.26967 0.0708229 -0.074861)
(1.10676 0.102478 -0.0777686)
(1.39254 0.11379 -0.0319226)
(1.26454 0.0219274 -0.0344211)
(1.11621 0.0996495 -0.0136537)
(1.14822 0.241121 -0.0694738)
(1.00029 0.0214266 -0.160798)
(1.01629 0.0278543 -0.055283)
(1.4693 0.0143549 -0.014449)
(1.54511 0.102985 -0.0115277)
(1.42803 0.0183235 -0.0185809)
(1.35793 0.132042 -0.024556)
(1.37031 0.252218 -0.136141)
(1.29331 0.14236 -0.13744)
(1.32172 0.195417 -0.0165144)
(1.33679 0.239575 -0.033854)
(0.981414 0.210948 -0.0487799)
(1.34171 0.125073 -0.108808)
(1.40644 0.137588 -0.0681887)
(1.43591 0.172304 0.0442946)
(1.60586 0.151557 -0.00863333)
(1.45763 0.191426 -0.0386349)
(1.23163 0.0718149 -0.00504968)
(1.25613 0.256502 -0.0282562)
(0.82264 0.0451311 -0.143352)
(1.09983 -0.291027 -0.16841)
(1.40378 0.0522425 -0.0171646)
(1.3663 0.316555 -0.0503242)
(1.14798 0.283354 -0.0536622)
(1.57959 0.287928 0.00401477)
(1.2177 0.227399 0.0135882)
(1.41971 0.111345 -0.0140045)
(1.67662 0.157003 -0.011975)
(1.69658 0.0308855 0.0178925)
(1.22444 -0.00701218 -0.0486361)
(1.30591 0.326126 -0.059142)
(1.37387 0.345278 -0.0188195)
(1.40442 0.0702848 -0.0168946)
(1.62221 0.0285901 0.0093302)
(1.53199 0.168765 -0.0505278)
(1.41465 0.165029 -0.0729881)
(1.13831 0.0884313 -0.0924323)
(1.31982 0.0897142 -0.0688527)
(1.4067 0.0218523 -0.0650135)
(1.22445 0.0627588 -0.0323307)
(1.25465 0.243134 -0.0274443)
(1.16371 0.104265 -0.0875823)
(1.06491 -0.069124 -0.0738429)
(1.42179 -0.0157831 -0.049431)
(1.16607 0.090717 -0.0720809)
(1.57676 0.114456 -0.0309546)
(1.28176 0.223258 -0.0314444)
(1.29494 0.16701 -0.171026)
(1.30356 0.0705759 -0.128504)
(1.34532 0.21785 -0.0339214)
(1.27593 0.232188 -0.0639614)
(0.833188 0.133407 -0.0868409)
(1.08456 -0.000394858 -0.0868092)
(1.44805 0.0575191 -0.000171458)
(1.55234 0.145721 0.0225154)
(1.42776 0.151421 -0.0718104)
(1.41314 0.183884 -0.0214889)
(1.17311 0.0750742 -0.0155788)
(1.29116 0.330098 -0.0417813)
(1.07327 0.142662 -0.0806832)
(0.826312 -0.265709 -0.193539)
(1.13719 0.1398 -0.0538069)
(1.25476 0.352756 -0.0610772)
(1.0291 0.186427 -0.0607079)
(1.46927 0.206501 -0.044366)
(1.13688 0.194707 -0.0691671)
(1.68994 0.0706188 -0.0213774)
(2.03397 0.148921 -0.0182721)
(1.7268 0.0791237 -0.0279585)
(1.08213 -0.025206 -0.0247066)
(1.15223 0.23548 -0.0495427)
(1.45042 0.312813 -0.038732)
(1.46038 0.0236922 -0.0357344)
(1.35141 -0.00868204 -0.0101371)
(1.34828 0.210361 -0.0789786)
(1.39965 0.201659 -0.0881246)
(1.1084 0.112131 -0.127557)
(1.32277 0.0941195 -0.0850218)
(1.33718 0.045893 -0.0980633)
(1.14986 0.0805191 -0.0628282)
(1.33534 0.27341 0.0240249)
(1.26029 0.17047 -0.00619209)
(1.21455 -0.0538088 -0.0866847)
(1.20603 0.0359307 -0.0984942)
(1.18047 0.131393 -0.0688887)
(1.52089 0.101306 -0.0474912)
(1.43751 0.203652 -0.0752784)
(1.45592 0.188118 -0.0839029)
(1.0508 0.0553378 -0.0815972)
(1.18136 0.158794 -0.0684401)
(1.38569 0.31371 -0.0134802)
(1.14518 0.258273 -0.0260842)
(1.03284 -0.0193363 -0.0646937)
(1.35877 0.00205594 -0.00222516)
(1.46173 0.136342 -0.0346931)
(1.27514 0.161798 -0.116553)
(1.38311 0.208568 0.0122505)
(1.25366 0.13505 0.0017804)
(1.10575 0.323043 -0.0145541)
(1.3194 0.156687 -0.0747649)
(0.893124 -0.177372 -0.173029)
(1.14868 0.112428 -0.0962092)
(1.31057 0.328936 -0.0420322)
(1.22482 0.215818 -0.0325209)
(1.48176 0.207955 -0.0904132)
(1.48922 0.152747 -0.108167)
(1.74005 0.00338054 -0.101413)
(1.98842 0.13703 -0.0789339)
(1.67612 0.227638 0.0139985)
(1.16008 0.0700766 0.0338733)
(1.24494 0.102442 0.0400955)
(1.60897 0.2325 -0.0140412)
(1.41976 0.0415347 -0.084024)
(1.3087 0.0249985 -3.6307e-05)
(1.40294 0.243318 -0.0330323)
(1.50311 0.228356 -0.0535743)
(1.15323 0.115048 -0.121782)
(1.31816 0.0691222 -0.0866708)
(1.45936 0.127377 -0.0816852)
(0.900306 0.111103 -0.0670912)
(1.34819 0.263922 0.0107641)
(1.38931 0.163891 0.00572434)
(1.45902 -0.039909 -0.0631817)
(1.20915 0.0413931 -0.125315)
(1.36269 0.0912337 -0.0617094)
(1.47235 0.127727 -0.00527025)
(1.37527 0.155891 -0.0954508)
(1.48481 0.245613 -0.0658456)
(0.900701 0.09983 -0.0159881)
(0.952399 0.108393 -0.0620116)
(1.23777 0.331078 -0.0286051)
(1.50297 0.289376 -0.00275243)
(1.19153 0.0143032 -0.0206392)
(1.37581 -0.0298951 0.0103749)
(1.50903 0.139667 -0.0338057)
(1.36312 0.169192 -0.0827612)
(1.41936 0.191503 -0.000365783)
(1.30265 0.147392 0.0157049)
(1.16558 0.315821 0.023574)
(1.43449 0.180104 -0.0609462)
(0.896635 -0.0921071 -0.141935)
(1.04406 0.138767 -0.0822924)
(1.43376 0.291764 -0.0168484)
(1.25227 0.157926 -0.042599)
(1.78962 0.141769 -0.0415498)
(1.52558 0.108739 -0.0867015)
(1.53925 0.00788543 -0.116625)
(1.4196 0.182734 -0.062778)
(1.63083 0.320667 0.0214035)
(1.34279 0.0916537 0.0127508)
(1.26985 -0.0113368 0.0827167)
(1.64188 0.201456 0.041233)
(1.39676 0.0698997 -0.0681576)
(1.2811 -0.00308675 -0.0348222)
(1.53248 0.17824 -0.0165836)
(1.43023 0.262319 -0.0499249)
(1.11254 0.162291 -0.106535)
(1.36547 0.0494459 -0.0593147)
(1.49495 0.145788 -0.0790658)
(0.886133 0.0947669 -0.0770009)
(1.42883 0.186685 -0.039505)
(1.19721 0.118286 -0.0192564)
(1.52323 -0.0257807 -0.022536)
(1.2204 0.0602734 -0.125965)
(1.41285 0.0734475 -0.0580443)
(1.59628 0.0833506 -0.0245164)
(1.56675 0.113913 -0.0556744)
(1.55912 0.286717 -0.0448244)
(0.912926 0.13091 -0.0480533)
(0.740711 0.00679247 -0.101346)
(1.16335 0.241217 -0.0499896)
(1.74986 0.292961 0.00600111)
(1.49753 0.0664945 0.0127951)
(1.47978 -0.0274827 0.0136138)
(1.42236 0.152682 -0.0551685)
(1.41852 0.1799 -0.0757937)
(1.39703 0.162502 -0.0508072)
(1.3971 0.153771 -0.00206464)
(1.43875 0.309108 0.0720162)
(1.4363 0.180767 -0.0427297)
(0.734863 -0.112406 -0.204367)
(1.26297 0.0312288 -0.0149589)
(1.48009 0.224736 0.102739)
(1.34277 0.138093 -0.00624731)
(1.75501 0.138115 -0.0967571)
(1.44892 0.137921 -0.109706)
(1.49882 0.0496616 -0.0683329)
(1.04988 0.148928 -0.0150781)
(1.48103 0.257391 -0.0573452)
(1.46349 0.109103 -0.0780938)
(1.0765 -0.0909839 0.0604738)
(1.62211 0.179275 0.0252289)
(1.15613 0.0538065 -0.0723998)
(1.27341 -0.0149159 -0.0541636)
(1.47806 0.229097 -0.0607537)
(1.35625 0.281023 -0.0690951)
(1.06326 0.127307 -0.113375)
(1.20415 0.0219703 -0.0576205)
(1.35711 0.222823 -0.0781392)
(0.963034 0.126321 -0.0653262)
(1.26274 0.186527 -0.0701367)
(1.26375 0.110535 -0.0207249)
(1.40956 -0.0391267 -0.0268199)
(1.30264 0.0428453 -0.105884)
(1.57527 0.0713428 -0.076386)
(1.31569 0.0941553 -0.0214131)
(1.50079 0.0510436 -0.0336338)
(1.58748 0.326534 -0.00932983)
(1.26062 0.250124 -0.0300379)
(0.883298 -0.00295822 -0.108863)
(1.35493 0.115812 -0.0545023)
(1.74088 0.2415 -0.00854527)
(1.48786 0.0951226 0.00304186)
(1.46779 -0.0239562 -0.00666524)
(1.63478 0.137886 -0.0313152)
(1.3035 0.160998 -0.0694911)
(1.35269 0.139987 -0.0694827)
(1.17992 0.120108 -0.0871203)
(1.39273 0.270005 0.0117125)
(1.73413 0.23691 0.0596078)
(0.887384 -0.0397955 -0.194967)
(1.21402 -0.0771619 -0.126523)
(1.66974 0.18945 0.0692373)
(1.5432 0.140204 0.0332908)
(1.66551 0.104804 -0.0915968)
(1.10761 0.14187 -0.150602)
(1.44937 0.0264079 -0.0821926)
(1.60574 0.036142 0.0364131)
(1.7081 0.20425 -0.0309496)
(1.60467 0.163361 -0.0851112)
(1.28147 -0.158357 -0.0142907)
(1.59338 0.128042 -0.0464657)
(1.02856 0.0220228 -0.0817584)
(1.26507 -0.051203 -0.0420903)
(1.52069 0.191775 -0.0842894)
(1.44731 0.317684 -0.0558606)
(1.28407 0.194349 -0.0849683)
(1.2806 0.00542661 -0.0577799)
(1.31963 0.217532 -0.093374)
(1.15985 0.112104 -0.0232433)
(1.15785 0.147072 -0.0485945)
(1.31306 0.0434503 -0.0209129)
(1.37875 -0.0452941 -0.0489709)
(1.15288 0.041166 -0.0755065)
(1.29609 0.0633686 -0.144354)
(1.35562 0.0628277 -0.0617016)
(1.44913 0.0141407 -0.0138855)
(1.5088 0.374852 0.0182147)
(1.22407 0.260202 -0.0710775)
(1.03608 -0.0504282 -0.123445)
(1.52754 0.081422 -0.0700032)
(1.56502 0.235811 -0.0338153)
(1.44208 0.114196 -0.00878)
(1.27281 -0.0426725 -0.0400687)
(1.45723 0.145496 -0.0460856)
(1.22095 0.172656 -0.0788352)
(1.17701 0.132723 -0.126146)
(0.685876 0.0943692 -0.179574)
(1.36911 0.218408 -0.0478631)
(1.84923 0.228199 0.0793152)
(1.25458 -0.00913225 -0.128988)
(1.32649 -0.114481 -0.17132)
(1.60705 0.143949 -0.0377958)
(1.68421 0.172715 -0.00901962)
(1.56532 0.125689 -0.0781353)
(0.901891 0.108727 -0.171425)
(1.55171 -0.0808633 -0.145469)
(1.77277 -0.0655658 0.0170268)
(1.82183 0.184824 -0.0638472)
(1.68158 0.195568 -0.0230577)
(1.22087 -0.212886 -0.0478042)
(1.72015 0.113678 -0.0254392)
(1.3289 0.029975 -0.0438767)
(1.10881 -0.0871253 -0.0346123)
(1.49191 0.227662 -0.0907867)
(1.41673 0.351987 -0.0564464)
(1.34634 0.198109 -0.0613395)
(1.28389 0.00712997 -0.0763645)
(1.29411 0.184623 -0.11748)
(1.36791 0.131613 0.0256141)
(1.29753 0.137769 -0.0113917)
(1.43135 0.0159496 -0.0166301)
(1.60217 -0.0257902 -0.0167852)
(1.17672 0.0778891 -0.0361512)
(0.87438 0.0497467 -0.122404)
(1.44275 -0.00862388 -0.0554542)
(1.38195 -0.0325551 -0.00244123)
(1.26991 0.416876 -0.00182449)
(1.20403 0.277769 -0.0436499)
(0.896373 -0.0661632 -0.158062)
(1.32006 0.0336664 -0.104903)
(1.56918 0.250616 -0.0251323)
(1.62661 0.157925 -0.00884305)
(1.46211 -0.0502132 -0.0314033)
(1.33756 0.124909 -0.0676974)
(1.30222 0.211622 -0.0762343)
(1.26656 0.200159 -0.121698)
(0.80401 0.0580495 -0.175334)
(1.39272 0.0673179 -0.0268838)
(1.67343 0.141085 0.0460893)
(1.16041 0.0168095 -0.113857)
(1.51368 -0.0991448 -0.109657)
(1.56903 0.129067 -0.0854788)
(1.68573 0.167172 -0.0617804)
(1.51274 0.129334 -0.0815423)
(1.26964 0.0795296 -0.137598)
(1.67536 -0.105084 -0.121796)
(1.6036 -0.0763282 -0.0487928)
(1.61212 0.220479 -0.0868774)
(1.8416 0.241298 0.0163188)
(1.11376 -0.202088 -0.0816044)
(1.73531 0.0896857 -0.0126583)
(1.61002 0.0472616 -0.0268244)
(1.13147 -0.0770425 -0.0687346)
(1.47154 0.25607 -0.0571152)
(1.35716 0.332354 -0.040047)
(1.44695 0.173983 -0.0866528)
(1.24393 0.0232805 -0.0681636)
(0.830397 0.169487 -0.113428)
(1.24762 0.083988 0.0918877)
(1.36638 0.12219 0.109139)
(1.53517 -0.0195168 -0.0304743)
(1.69104 -0.00381672 -0.0213872)
(1.36322 0.127137 -0.0170685)
(0.912721 0.0271121 -0.0492728)
(1.42405 -0.0569089 0.0195936)
(1.13334 -0.00509344 -0.0556841)
(1.28452 0.440116 -0.0212658)
(1.34379 0.276966 -0.00293396)
(1.13408 -0.0535643 -0.123837)
(1.34739 -0.0221827 -0.134856)
(1.56392 0.219642 -0.0533461)
(1.66742 0.143006 -0.0482634)
(1.65115 -0.0657935 -0.0574838)
(1.47573 0.129089 -0.0403467)
(1.0674 0.204041 -0.102619)
(1.47874 0.20124 -0.0617438)
(1.20053 0.0388937 -0.0989092)
(1.41336 0.0343523 0.00178837)
(1.35988 0.161158 0.0162557)
(0.771128 0.00902321 -0.126417)
(1.66706 -0.116772 0.0175057)
(1.73172 0.125638 -0.0689554)
(1.47265 0.143685 -0.0862023)
(1.66512 0.0917899 -0.0847034)
(1.68981 0.0512343 -0.097205)
(1.74136 -0.111598 -0.0649919)
(1.45757 -0.0579001 -0.12393)
(1.28954 0.235888 -0.0968418)
(1.77941 0.217706 -0.025072)
(1.28842 -0.192918 -0.0129408)
(1.5351 0.0756319 -0.0375251)
(1.5113 0.0518838 -0.0407829)
(1.21106 -0.0664231 -0.091767)
(1.4301 0.266915 -0.0209633)
(1.18016 0.344968 -0.0334048)
(1.78984 0.184626 -0.0482092)
(1.29663 0.0959782 -0.0511347)
(0.732752 0.135355 -0.0731884)
(1.20299 -0.0149343 0.101277)
(1.45991 0.075375 0.152901)
(1.35281 -0.0589832 0.000662355)
(1.68881 0.000754976 -0.0397338)
(1.56313 0.142306 -0.0250307)
(1.45576 0.046843 0.0316919)
(1.65626 -0.0735108 0.0593276)
(0.985123 0.0149575 -0.102365)
(1.44754 0.430339 0.0131571)
(1.38167 0.266073 0.0484487)
(1.64701 -0.0559042 0.0784449)
(1.48589 -0.060174 -0.0836366)
(1.53789 0.216808 -0.0426103)
(1.68932 0.130811 -0.0557281)
(1.59196 -0.0906683 -0.0918871)
(1.44393 0.139649 -0.0247586)
(1.08383 0.198989 -0.0893183)
(1.28067 0.162414 -0.0453849)
(1.07089 0.0043398 -0.0794692)
(1.39781 0.0295045 0.0138022)
(1.18771 0.161398 -0.0356307)
(0.592287 -0.053647 -0.0816962)
(1.58436 -0.169919 0.128466)
(1.8144 0.143127 -0.052972)
(1.5808 0.144056 -0.0629543)
(1.9443 0.0277147 -0.046874)
(1.8124 0.0166584 -0.0799707)
(1.82931 -0.111796 -0.044965)
(1.64592 -0.0466221 -0.0907664)
(1.2779 0.206168 -0.0460631)
(1.7563 0.16336 -0.0005076)
(1.68849 -0.188072 0.0710585)
(1.28528 0.112733 -0.0896831)
(1.24362 0.0329499 -0.0649159)
(1.18146 -0.0523029 -0.0434311)
(1.29742 0.311687 -0.0883225)
(1.08523 0.274655 -0.0637161)
(1.90559 0.115014 0.00792286)
(1.3129 0.134487 -0.0902972)
(1.26378 0.12573 -0.0295964)
(1.22113 -0.0443928 0.0985217)
(1.43934 0.0580432 0.0720066)
(1.48556 -0.0354037 0.0391667)
(1.61174 -0.0311893 -0.0315265)
(1.46271 0.159862 -0.0592524)
(1.77015 0.0490357 0.0576759)
(1.73961 -0.0547827 0.033055)
(1.17737 0.0374006 -0.130572)
(1.4893 0.362551 0.0485393)
(1.48606 0.20954 0.130469)
(1.97952 -0.047179 0.190808)
(1.57862 -0.0630224 -0.0116375)
(1.66731 0.20221 0.0128541)
(1.66874 0.10401 -0.0552759)
(1.78313 -0.0874953 -0.076624)
(1.07686 0.151983 -0.0696138)
(1.43548 0.214152 -0.0450711)
(1.3373 0.174502 -0.0342611)
(1.28299 -0.0287757 -0.0379643)
(1.53061 0.0168446 0.0581267)
(0.90184 0.153797 -0.104818)
(1.03235 -0.128021 -0.0453105)
(1.51973 -0.195626 0.121515)
(1.82964 0.130109 0.0352596)
(1.93873 0.110271 0.00943814)
(2.15538 0.00734326 -0.0368198)
(2.10922 0.0138041 -0.0469465)
(1.78764 -0.120693 -0.0942398)
(1.43394 -0.0113442 -0.0571542)
(1.08646 0.216922 -0.0264592)
(2.04462 0.0870287 0.0401386)
(1.72389 -0.15853 0.0287265)
(1.40165 0.136067 -0.0580396)
(1.5084 0.00785352 0.023195)
(1.1172 -0.0607235 -0.0117676)
(1.65878 0.291161 -0.0122693)
(1.41903 0.229233 -0.0290422)
(1.73215 0.0928158 0.00278166)
(1.13417 0.161729 -0.143724)
(1.69292 0.117305 -0.0227096)
(1.49784 -0.0548915 0.115818)
(1.39038 0.025347 0.0564581)
(1.82163 -0.0507198 0.0314431)
(1.67788 -0.0226172 -0.0316478)
(1.55221 0.147639 -0.0369243)
(1.76572 0.0390479 0.00400377)
(2.11726 -0.0546568 0.0888737)
(1.52335 0.0413682 -0.0625421)
(1.21229 0.365887 -0.0718115)
(1.86393 0.137258 0.18336)
(1.84498 -0.0752129 0.0969687)
(1.36563 -0.0662199 -0.0451147)
(1.78845 0.19484 0.011241)
(1.75383 0.087194 -0.0443225)
(1.60902 -0.0831388 -0.072722)
(0.950317 0.104965 -0.0582805)
(1.63603 0.169884 0.00493894)
(1.22771 0.159716 -0.0417091)
(1.68974 -0.0574809 0.0439933)
(1.28563 0.0651546 -0.0129202)
(1.05202 0.12272 -0.0651796)
(1.3317 -0.177953 0.00420795)