/*--------------------------------*- C++ -*----------------------------------*\
  =========                 |
  \\      /  F ield         | OpenFOAM: The Open Source CFD Toolbox
   \\    /   O peration     | Website:  https://openfoam.org
    \\  /    A nd           | Version:  10
     \\/     M anipulation  |
\*---------------------------------------------------------------------------*/
FoamFile
{
    format      ascii;
    class       volVectorField;
    location    "50";
    object      UMean;
}
// * * * * * * * * * * * * * * * * * * * * * * * * * * * * * * * * * * * * * //

dimensions      [0 1 -1 0 0 0 0];

internalField   nonuniform List<vector> 
25600
(
(1.11594 0.069803 0.0862251)
(1.11587 0.065239 0.0875092)
(1.10958 0.0676995 0.0848737)
(1.11448 0.0648183 0.0854171)
(1.10615 0.0618031 0.0794202)
(1.11601 0.0567359 0.0821091)
(1.12078 0.0516134 0.0840087)
(1.12374 0.0521423 0.0886328)
(1.12202 0.0535748 0.0874654)
(1.12462 0.0509251 0.0892968)
(1.12667 0.0499257 0.0872059)
(1.12794 0.0487977 0.0897541)
(1.12898 0.05032 0.0922727)
(1.13016 0.053715 0.0932513)
(1.13012 0.0572253 0.0928456)
(1.13261 0.061244 0.0892234)
(1.1337 0.0631351 0.085404)
(1.13538 0.0643477 0.0861183)
(1.13455 0.0638045 0.0897711)
(1.13457 0.0615086 0.0905463)
(1.13026 0.0575802 0.0885626)
(1.12893 0.0554932 0.0898062)
(1.13067 0.056933 0.0896828)
(1.13639 0.0588036 0.0941346)
(1.13256 0.0544035 0.0961283)
(1.13197 0.0513266 0.0986151)
(1.13307 0.0491933 0.0987033)
(1.13576 0.0472306 0.103255)
(1.13298 0.046926 0.101179)
(1.13529 0.0468843 0.0998815)
(1.1337 0.0456129 0.0998831)
(1.1444 0.0474266 0.10167)
(1.14141 0.0471589 0.0994033)
(1.14525 0.0503639 0.10053)
(1.14033 0.0542909 0.100566)
(1.14567 0.0571461 0.0995155)
(1.13913 0.061397 0.0948488)
(1.14084 0.0639625 0.0940432)
(1.12918 0.0682459 0.0898849)
(1.13268 0.0691227 0.0909501)
(1.22557 0.10563 0.0162021)
(1.22183 0.10414 0.0172479)
(1.22031 0.103902 0.0187493)
(1.2186 0.104086 0.0214203)
(1.22162 0.107237 0.0199509)
(1.2216 0.109143 0.0205717)
(1.22129 0.109607 0.020542)
(1.21897 0.107406 0.0228013)
(1.21926 0.10928 0.0226928)
(1.21973 0.112655 0.0208152)
(1.22199 0.11235 0.0189201)
(1.21919 0.111493 0.0169189)
(1.21754 0.108681 0.0165853)
(1.22156 0.111441 0.0166637)
(1.22076 0.109647 0.0151486)
(1.22302 0.108907 0.0141115)
(1.22594 0.107893 0.0136359)
(1.22655 0.107003 0.0144057)
(1.22842 0.111125 0.0128351)
(1.23328 0.111185 0.0126834)
(1.22965 0.108548 0.0120174)
(1.22961 0.107704 0.0100348)
(1.23092 0.108543 0.0101584)
(1.2281 0.111167 0.00905108)
(1.22838 0.112844 0.00841102)
(1.22778 0.114956 0.00983396)
(1.22769 0.114648 0.0118224)
(1.22018 0.110288 0.0133674)
(1.22088 0.107412 0.0135258)
(1.21345 0.104109 0.0143903)
(1.21964 0.103574 0.0139039)
(1.21912 0.101577 0.0157802)
(1.22295 0.102029 0.0164859)
(1.21997 0.101121 0.0171625)
(1.22553 0.100644 0.0175556)
(1.22313 0.0975735 0.0197286)
(1.22329 0.0974734 0.0179645)
(1.22297 0.0963233 0.0172054)
(1.22739 0.0984852 0.0161876)
(1.22673 0.103142 0.0159273)
(1.18188 0.0762749 0.0509984)
(1.19266 0.0783058 0.0506791)
(1.18751 0.0787721 0.0512906)
(1.19313 0.0813462 0.0524943)
(1.18237 0.0792989 0.0523174)
(1.18501 0.0779848 0.0530065)
(1.18092 0.076671 0.054013)
(1.18391 0.0796999 0.0544691)
(1.17974 0.0766031 0.0553821)
(1.18225 0.0777499 0.0538436)
(1.18062 0.0780958 0.0519758)
(1.18418 0.0805022 0.0508374)
(1.18361 0.076616 0.0513281)
(1.1769 0.0733528 0.0483839)
(1.18077 0.0714413 0.0481933)
(1.17693 0.0698523 0.0472548)
(1.17204 0.067341 0.0481091)
(1.17119 0.0674659 0.04924)
(1.17264 0.065634 0.0503695)
(1.16811 0.064356 0.0497548)
(1.1706 0.0647249 0.0489197)
(1.17172 0.0686819 0.0467922)
(1.16733 0.0726073 0.0480594)
(1.16574 0.0737824 0.046558)
(1.17062 0.0773379 0.0439599)
(1.16788 0.0790929 0.0447804)
(1.16915 0.0799163 0.0444647)
(1.1709 0.0805968 0.0453176)
(1.17171 0.0801174 0.045592)
(1.17347 0.0818731 0.0493532)
(1.17149 0.0797924 0.0492386)
(1.17841 0.0753554 0.04992)
(1.16954 0.0736692 0.0506884)
(1.17538 0.0713597 0.0518843)
(1.1769 0.0702335 0.0515134)
(1.17901 0.0691538 0.051311)
(1.17499 0.0713844 0.0512287)
(1.18325 0.0758324 0.0508086)
(1.17575 0.073247 0.0512395)
(1.18725 0.074117 0.0517079)
(1.2373 0.0910942 0.0215342)
(1.24093 0.0922787 0.0224621)
(1.24519 0.0973928 0.0213696)
(1.24741 0.100585 0.0222453)
(1.24349 0.100659 0.0213787)
(1.24 0.100462 0.0224485)
(1.24156 0.0998122 0.0200667)
(1.23964 0.0990157 0.019291)
(1.23892 0.100058 0.01945)
(1.23505 0.101969 0.0176669)
(1.24121 0.10523 0.0157988)
(1.23744 0.10843 0.0158658)
(1.24121 0.111094 0.0151514)
(1.24319 0.112033 0.0150518)
(1.24569 0.113173 0.0173054)
(1.23932 0.111839 0.018308)
(1.24468 0.109365 0.0193835)
(1.23854 0.108631 0.0193155)
(1.23758 0.105321 0.0183848)
(1.23558 0.103091 0.0190208)
(1.2271 0.0976747 0.0182909)
(1.2354 0.0975131 0.0168642)
(1.23288 0.0994259 0.0181)
(1.24066 0.104322 0.0173878)
(1.23951 0.106118 0.0186545)
(1.2385 0.103765 0.0195087)
(1.23571 0.104157 0.0213896)
(1.23612 0.105578 0.0204287)
(1.23231 0.10484 0.0192406)
(1.24031 0.10383 0.0184548)
(1.23198 0.105716 0.0152276)
(1.24059 0.10509 0.0139071)
(1.23649 0.101767 0.0128659)
(1.24109 0.101127 0.0120315)
(1.23706 0.101067 0.0138175)
(1.24044 0.101543 0.0140177)
(1.23587 0.0979405 0.0144068)
(1.24234 0.0961068 0.0156975)
(1.23828 0.0935739 0.0171132)
(1.23871 0.0917644 0.0205005)
(1.21878 0.0953938 0.0218029)
(1.20913 0.09598 0.0220013)
(1.21574 0.0950658 0.0249142)
(1.21489 0.0974156 0.0257769)
(1.21419 0.0966263 0.0245302)
(1.21671 0.0969275 0.024261)
(1.2209 0.0949993 0.0239811)
(1.22479 0.100523 0.0251375)
(1.22099 0.100812 0.0257188)
(1.22155 0.10082 0.024512)
(1.21868 0.0958302 0.0246604)
(1.21868 0.095836 0.0257913)
(1.21321 0.0974803 0.0255614)
(1.22316 0.102829 0.0259369)
(1.22421 0.104243 0.0253897)
(1.23264 0.109888 0.0255676)
(1.22553 0.10763 0.0243562)
(1.23173 0.106342 0.0252611)
(1.22106 0.103727 0.0247747)
(1.22992 0.101542 0.0241767)
(1.22638 0.100058 0.0256767)
(1.23375 0.101925 0.0258582)
(1.23083 0.103355 0.0257666)
(1.23675 0.105837 0.0239227)
(1.22931 0.10477 0.0233504)
(1.23819 0.104262 0.0220293)
(1.23421 0.105121 0.0224047)
(1.23937 0.107301 0.0203815)
(1.23097 0.103073 0.019275)
(1.2368 0.104457 0.0179428)
(1.23427 0.103826 0.0173706)
(1.23625 0.100235 0.0164046)
(1.22947 0.0966129 0.0171148)
(1.22827 0.0951962 0.0174956)
(1.22747 0.0927874 0.0181765)
(1.22493 0.0951534 0.016692)
(1.22013 0.0948741 0.0188669)
(1.21989 0.0941228 0.0187769)
(1.21933 0.0953487 0.020682)
(1.21488 0.0963512 0.0217942)
(1.26032 0.109902 0.0125197)
(1.26101 0.110549 0.0121237)
(1.26066 0.112533 0.0125629)
(1.2578 0.114488 0.0107741)
(1.25946 0.111472 0.0106916)
(1.25969 0.11001 0.010542)
(1.25343 0.107337 0.0114335)
(1.25861 0.109645 0.011616)
(1.25697 0.111603 0.0131087)
(1.26109 0.116662 0.0133207)
(1.2621 0.118727 0.0153662)
(1.26452 0.118979 0.0149669)
(1.25353 0.114201 0.0156458)
(1.25555 0.114816 0.0159171)
(1.24943 0.113113 0.0156819)
(1.25229 0.113648 0.0160125)
(1.25325 0.115021 0.0153211)
(1.25829 0.117536 0.0155797)
(1.26234 0.118853 0.0168344)
(1.26399 0.118816 0.0151717)
(1.26211 0.118982 0.0151258)
(1.26161 0.118315 0.0149516)
(1.26035 0.115998 0.0140429)
(1.26119 0.115719 0.0126621)
(1.25967 0.114195 0.0132945)
(1.25605 0.109229 0.0143255)
(1.26575 0.11083 0.0153073)
(1.26716 0.112511 0.0141362)
(1.27235 0.114403 0.0151579)
(1.26967 0.113036 0.0151939)
(1.27458 0.114776 0.0155345)
(1.27239 0.11645 0.0145999)
(1.27605 0.119066 0.0168707)
(1.27585 0.12109 0.0164352)
(1.27287 0.122971 0.0177323)
(1.27571 0.119929 0.0171797)
(1.27428 0.118051 0.0184277)
(1.26744 0.113609 0.0185292)
(1.2649 0.111213 0.017093)
(1.26109 0.112634 0.0142037)
(1.23723 0.111207 0.0125982)
(1.23919 0.111908 0.0114419)
(1.2325 0.10769 0.0116579)
(1.24089 0.108303 0.0110691)
(1.23515 0.106934 0.0128471)
(1.23949 0.109948 0.0133072)
(1.23086 0.107977 0.0156148)
(1.23283 0.109957 0.0137266)
(1.23604 0.111233 0.0118079)
(1.24652 0.113715 0.0105786)
(1.24557 0.11288 0.0105461)
(1.25193 0.115107 0.0115308)
(1.25027 0.115473 0.0124373)
(1.24912 0.114021 0.0126539)
(1.251 0.110959 0.0140541)
(1.25042 0.108097 0.0156351)
(1.2501 0.110253 0.0164944)
(1.25197 0.114189 0.0149839)
(1.25414 0.115262 0.0141127)
(1.25205 0.116845 0.0132887)
(1.25408 0.119016 0.0125156)
(1.25644 0.117985 0.0115269)
(1.25451 0.118247 0.00994244)
(1.25681 0.116569 0.0101026)
(1.25624 0.118338 0.0100102)
(1.24872 0.116441 0.00903973)
(1.24189 0.114441 0.00645403)
(1.2402 0.114531 0.00641355)
(1.23464 0.113603 0.00659737)
(1.23966 0.11412 0.00506935)
(1.23369 0.111998 0.00612645)
(1.23429 0.11334 0.00812597)
(1.23408 0.111272 0.0105313)
(1.24509 0.11323 0.0128977)
(1.24042 0.11132 0.014492)
(1.24768 0.113144 0.014513)
(1.24277 0.11356 0.0151174)
(1.24499 0.118729 0.0140733)
(1.24116 0.11624 0.013282)
(1.24585 0.113977 0.0108402)
(1.2714 0.127978 -0.0024267)
(1.27706 0.131324 -0.00280286)
(1.27572 0.130923 -0.000525684)
(1.27443 0.129817 -0.00050849)
(1.27383 0.12763 -0.00020456)
(1.26579 0.12539 -0.000664144)
(1.26772 0.124874 -0.000934423)
(1.2595 0.121241 -0.000928254)
(1.26202 0.119538 -0.00126577)
(1.25566 0.117743 0.00023352)
(1.25508 0.120263 0.00257788)
(1.2485 0.11729 0.00197734)
(1.25398 0.118667 0.000974157)
(1.25538 0.11953 -0.00197487)
(1.2551 0.122821 -0.00119915)
(1.25306 0.123431 -0.00140823)
(1.25937 0.124487 -0.00237498)
(1.26305 0.124648 -0.00301318)
(1.26457 0.125106 -0.00331141)
(1.26921 0.1254 -0.00395135)
(1.27108 0.127192 -0.00148817)
(1.27984 0.12804 -0.00242671)
(1.28028 0.128515 -0.0027102)
(1.28444 0.129035 -0.00258189)
(1.28318 0.129004 -0.00174172)
(1.29174 0.133026 -0.000656781)
(1.28134 0.130322 -0.000343311)
(1.28933 0.131662 0.000513647)
(1.28353 0.128538 -2.82905e-05)
(1.2886 0.130935 0.000217751)
(1.28107 0.129156 -0.000599178)
(1.28796 0.131498 -0.00159482)
(1.28087 0.129691 -0.00156118)
(1.28606 0.130463 -0.000560168)
(1.27781 0.128962 -0.000121615)
(1.27826 0.128609 -0.00222844)
(1.27595 0.127226 -0.00335225)
(1.27481 0.126896 -0.00497447)
(1.26669 0.125155 -0.00497457)
(1.27144 0.125993 -0.00517172)
(1.28216 0.126506 -0.0107671)
(1.27871 0.126038 -0.0122237)
(1.2813 0.128104 -0.0106937)
(1.27901 0.127464 -0.0117037)
(1.28876 0.127914 -0.0114955)
(1.28476 0.128984 -0.0117823)
(1.28093 0.130988 -0.0122347)
(1.28305 0.132554 -0.0105505)
(1.28089 0.131658 -0.00985273)
(1.28738 0.132485 -0.00788264)
(1.28204 0.13371 -0.00817125)
(1.28378 0.134321 -0.00830747)
(1.27432 0.130189 -0.00952305)
(1.27641 0.12779 -0.00938429)
(1.26877 0.126439 -0.0106349)
(1.27027 0.125421 -0.0105447)
(1.26087 0.119982 -0.0133542)
(1.26932 0.120466 -0.0120952)
(1.25498 0.120274 -0.0109766)
(1.26395 0.121355 -0.00931254)
(1.25417 0.118993 -0.00749005)
(1.26234 0.119656 -0.00573275)
(1.25826 0.118589 -0.00529467)
(1.27212 0.120904 -0.0083393)
(1.26089 0.11945 -0.00998111)
(1.27714 0.122488 -0.00955653)
(1.27082 0.122369 -0.00919464)
(1.28119 0.126232 -0.0103889)
(1.27478 0.128831 -0.0109011)
(1.28018 0.130951 -0.0109432)
(1.28081 0.129452 -0.00985874)
(1.28383 0.127818 -0.00907334)
(1.2823 0.127282 -0.00786898)
(1.28444 0.126815 -0.00667883)
(1.28833 0.127901 -0.00748316)
(1.28319 0.128251 -0.00842231)
(1.28232 0.126566 -0.00796242)
(1.28549 0.12585 -0.00781863)
(1.28658 0.127707 -0.00801275)
(1.28559 0.128352 -0.00990871)
(1.31034 0.135935 -0.0162959)
(1.30488 0.135152 -0.0174784)
(1.2968 0.133788 -0.0167882)
(1.29432 0.134698 -0.0177477)
(1.29263 0.133635 -0.0172962)
(1.30083 0.135775 -0.0177188)
(1.29818 0.134958 -0.0162735)
(1.31143 0.135019 -0.0177198)
(1.3004 0.134667 -0.0177069)
(1.30732 0.133123 -0.0175886)
(1.29569 0.133046 -0.016304)
(1.30379 0.133959 -0.0177299)
(1.2994 0.134892 -0.0178491)
(1.30361 0.134294 -0.0184473)
(1.29667 0.135752 -0.016452)
(1.30697 0.135848 -0.0154631)
(1.30309 0.13684 -0.0167995)
(1.31219 0.137267 -0.0164217)
(1.30216 0.135614 -0.0155361)
(1.307 0.134909 -0.0163621)
(1.29864 0.133229 -0.0154169)
(1.30041 0.134866 -0.0159532)
(1.29307 0.135301 -0.014693)
(1.29546 0.133318 -0.0152094)
(1.29096 0.129282 -0.0151475)
(1.29144 0.12876 -0.0155233)
(1.29354 0.12869 -0.0161447)
(1.28991 0.128328 -0.0180319)
(1.29819 0.129743 -0.0183351)
(1.29238 0.129445 -0.0188622)
(1.29816 0.129814 -0.0189777)
(1.29207 0.132729 -0.0185537)
(1.29692 0.131893 -0.017373)
(1.28752 0.131366 -0.016766)
(1.29454 0.130339 -0.0187245)
(1.29527 0.132699 -0.0192008)
(1.30588 0.135813 -0.0175151)
(1.30352 0.134722 -0.0158779)
(1.30382 0.13379 -0.0146722)
(1.30426 0.135571 -0.0159854)
(1.31562 0.136531 -0.0166389)
(1.32451 0.138139 -0.0168898)
(1.31581 0.137393 -0.0161313)
(1.31832 0.136762 -0.0166286)
(1.31135 0.136674 -0.0166497)
(1.31854 0.137311 -0.0199113)
(1.31399 0.138143 -0.0204607)
(1.32234 0.13784 -0.0220014)
(1.31478 0.140525 -0.0198322)
(1.31671 0.139297 -0.0190049)
(1.31343 0.137063 -0.0176664)
(1.3088 0.134552 -0.0202386)
(1.30964 0.134081 -0.0199499)
(1.30698 0.132414 -0.0206982)
(1.30542 0.130173 -0.0189852)
(1.30214 0.129738 -0.0206363)
(1.30027 0.127405 -0.0220685)
(1.2999 0.129646 -0.0230861)
(1.30338 0.129246 -0.0244461)
(1.30382 0.130663 -0.0242378)
(1.30702 0.129353 -0.0240836)
(1.30652 0.132542 -0.0228455)
(1.30889 0.13547 -0.0213469)
(1.30389 0.13634 -0.0203014)
(1.30111 0.134637 -0.0208835)
(1.3019 0.132797 -0.0204993)
(1.30282 0.133336 -0.0209911)
(1.30288 0.131882 -0.0211356)
(1.30678 0.130704 -0.0214497)
(1.31186 0.134057 -0.0208121)
(1.30662 0.132056 -0.0218861)
(1.31294 0.132858 -0.0210327)
(1.30497 0.132998 -0.0204554)
(1.30201 0.132992 -0.0188102)
(1.29902 0.130498 -0.0185567)
(1.30339 0.12789 -0.0182646)
(1.30306 0.129779 -0.0189884)
(1.30742 0.131582 -0.0192453)
(1.30743 0.133463 -0.0190675)
(1.31248 0.134955 -0.0175234)
(1.30668 0.140867 -0.0227419)
(1.32017 0.143338 -0.0222509)
(1.31796 0.143559 -0.0201327)
(1.32459 0.14186 -0.0214127)
(1.32806 0.14077 -0.0195097)
(1.32649 0.139297 -0.0204816)
(1.33235 0.140966 -0.0195894)
(1.33495 0.14111 -0.0222607)
(1.33874 0.14306 -0.0216956)
(1.33871 0.142571 -0.021579)
(1.34006 0.141665 -0.0219366)
(1.33837 0.141085 -0.022286)
(1.33562 0.14125 -0.0212755)
(1.33901 0.140675 -0.0218154)
(1.33087 0.139076 -0.0216974)
(1.33082 0.139315 -0.0221069)
(1.3211 0.137865 -0.0205026)
(1.32121 0.134922 -0.0204541)
(1.31261 0.132402 -0.0224134)
(1.31647 0.131565 -0.0222598)
(1.31224 0.131937 -0.0236584)
(1.31905 0.131927 -0.0237128)
(1.31614 0.135327 -0.0234954)
(1.32475 0.135659 -0.0231629)
(1.31514 0.135574 -0.0218555)
(1.32204 0.134307 -0.0185215)
(1.31465 0.133926 -0.018981)
(1.31478 0.133909 -0.0205301)
(1.30798 0.131172 -0.0227299)
(1.31167 0.131797 -0.0224213)
(1.30771 0.132285 -0.0226246)
(1.30519 0.13276 -0.0210674)
(1.31361 0.133649 -0.0202439)
(1.30878 0.132494 -0.0216591)
(1.31377 0.133759 -0.0228716)
(1.30205 0.134028 -0.0224271)
(1.30756 0.136381 -0.0216476)
(1.30168 0.136762 -0.022276)
(1.30413 0.138132 -0.0230895)
(1.30797 0.140216 -0.0236685)
(1.29999 0.137601 -0.0245255)
(1.30446 0.136528 -0.0256007)
(1.30977 0.139524 -0.0249574)
(1.31124 0.139359 -0.0255635)
(1.32074 0.139286 -0.0243865)
(1.31151 0.138275 -0.0249857)
(1.31771 0.138391 -0.0254077)
(1.31952 0.140039 -0.0260871)
(1.32695 0.141112 -0.0273877)
(1.32472 0.139769 -0.0277545)
(1.3234 0.139678 -0.0268509)
(1.32969 0.138531 -0.0274432)
(1.32297 0.139449 -0.0284506)
(1.32833 0.13874 -0.0289971)
(1.32787 0.138398 -0.0275499)
(1.32704 0.139826 -0.0276254)
(1.32206 0.139443 -0.0260323)
(1.32071 0.137562 -0.0268385)
(1.31282 0.136553 -0.0282605)
(1.30696 0.135086 -0.0261551)
(1.305 0.133543 -0.0266903)
(1.30587 0.133503 -0.0253088)
(1.31212 0.133137 -0.0277226)
(1.31595 0.13468 -0.0267729)
(1.32056 0.135682 -0.0287562)
(1.32306 0.13747 -0.025069)
(1.33328 0.137515 -0.0248948)
(1.32554 0.137658 -0.025103)
(1.32863 0.136787 -0.0250284)
(1.32413 0.134161 -0.0254497)
(1.33094 0.13524 -0.0255207)
(1.32009 0.13419 -0.0237528)
(1.32413 0.137752 -0.0205922)
(1.32684 0.138245 -0.0228717)
(1.32318 0.139346 -0.0232229)
(1.32587 0.139813 -0.0237796)
(1.30779 0.139262 -0.0249352)
(1.3175 0.140162 -0.025223)
(1.30285 0.13882 -0.0242883)
(1.31016 0.139015 -0.0247412)
(1.33816 0.14237 -0.0266805)
(1.31478 0.140465 -0.0270278)
(1.32994 0.14239 -0.0278888)
(1.31978 0.143726 -0.0282298)
(1.32585 0.14405 -0.0283604)
(1.32385 0.14371 -0.0281557)
(1.31832 0.142564 -0.0290224)
(1.32404 0.145101 -0.0280454)
(1.32178 0.145683 -0.0278908)
(1.33224 0.144616 -0.028391)
(1.32637 0.143991 -0.0278504)
(1.33476 0.145334 -0.027227)
(1.33109 0.145757 -0.0280239)
(1.33195 0.14619 -0.0275146)
(1.33077 0.145609 -0.0270608)
(1.32771 0.145467 -0.0273142)
(1.3299 0.145927 -0.029161)
(1.33028 0.145464 -0.0298553)
(1.32339 0.142772 -0.03344)
(1.31493 0.139671 -0.0335613)
(1.31032 0.137016 -0.0335952)
(1.30748 0.135015 -0.0317185)
(1.30861 0.134454 -0.0339389)
(1.3061 0.135217 -0.0326387)
(1.31457 0.136578 -0.0349335)
(1.31287 0.134193 -0.0343465)
(1.32049 0.136238 -0.0318345)
(1.32464 0.136549 -0.0305984)
(1.32144 0.136985 -0.0272286)
(1.32993 0.134333 -0.0274597)
(1.32413 0.136096 -0.0259492)
(1.33713 0.137953 -0.0262031)
(1.32186 0.138813 -0.023425)
(1.33887 0.141112 -0.0229523)
(1.32999 0.140817 -0.023063)
(1.34649 0.142624 -0.0240682)
(1.33663 0.142074 -0.0261643)
(1.33553 0.142328 -0.0275429)
(1.33879 0.141988 -0.0268277)
(1.32436 0.141105 -0.02793)
(1.31832 0.141543 -0.0327055)
(1.31205 0.142041 -0.0308933)
(1.29776 0.140694 -0.0318728)
(1.30649 0.14191 -0.0312095)
(1.29036 0.139376 -0.0320864)
(1.31551 0.143187 -0.0300822)
(1.29881 0.140917 -0.030349)
(1.31314 0.142424 -0.0299052)
(1.31388 0.141755 -0.03103)
(1.32 0.14142 -0.0319392)
(1.32312 0.141591 -0.0322238)
(1.32346 0.142459 -0.0325071)
(1.32722 0.145012 -0.0317255)
(1.31935 0.145669 -0.0311003)
(1.31795 0.147442 -0.0324111)
(1.31724 0.144266 -0.0317766)
(1.31756 0.145148 -0.0317488)
(1.32581 0.146024 -0.0306562)
(1.32355 0.147741 -0.0305026)
(1.32267 0.145773 -0.0297732)
(1.31917 0.143416 -0.0303164)
(1.31129 0.141863 -0.0302569)
(1.3139 0.140317 -0.0303772)
(1.30731 0.139331 -0.0307469)
(1.31218 0.141195 -0.0306222)
(1.31899 0.140821 -0.0325214)
(1.31731 0.139518 -0.0334825)
(1.32692 0.139312 -0.0333193)
(1.32063 0.1388 -0.0323297)
(1.32919 0.136021 -0.0321169)
(1.31946 0.138663 -0.0304624)
(1.32787 0.140514 -0.0301673)
(1.31879 0.141836 -0.0294896)
(1.31477 0.141337 -0.0301468)
(1.32163 0.1432 -0.0300842)
(1.31208 0.140648 -0.0299607)
(1.33426 0.143948 -0.0288021)
(1.31598 0.141274 -0.03051)
(1.32942 0.14215 -0.0315556)
(1.31626 0.140761 -0.032783)
(1.33162 0.145601 -0.0315034)
(1.34237 0.147962 -0.0286248)
(1.32108 0.144657 -0.0288145)
(1.33112 0.147335 -0.0273483)
(1.31419 0.143722 -0.0286925)
(1.30995 0.142266 -0.0301244)
(1.31707 0.144328 -0.0294424)
(1.29467 0.142904 -0.0301898)
(1.32131 0.146952 -0.0289917)
(1.30804 0.145765 -0.0310427)
(1.32094 0.147949 -0.0324651)
(1.31549 0.146483 -0.0338127)
(1.32193 0.148244 -0.0332859)
(1.32771 0.150817 -0.0316753)
(1.32059 0.152383 -0.0348384)
(1.33051 0.148837 -0.0353832)
(1.3242 0.14684 -0.0339702)
(1.32677 0.146494 -0.0333214)
(1.32666 0.147752 -0.0323619)
(1.32587 0.147012 -0.0309901)
(1.33006 0.145214 -0.0301689)
(1.32175 0.143031 -0.0317616)
(1.31852 0.141909 -0.0307757)
(1.31709 0.140673 -0.0308764)
(1.31492 0.138783 -0.0309934)
(1.31774 0.141172 -0.0303024)
(1.31626 0.141196 -0.0320121)
(1.32242 0.13834 -0.0330271)
(1.32613 0.140174 -0.0324328)
(1.32811 0.136586 -0.0319701)
(1.33167 0.139672 -0.0280081)
(1.32659 0.137894 -0.028534)
(1.34233 0.14221 -0.0276177)
(1.33216 0.141463 -0.0292626)
(1.34813 0.146451 -0.0287589)
(1.33443 0.144057 -0.0286434)
(1.33986 0.143957 -0.029506)
(1.34634 0.145674 -0.0294276)
(1.33552 0.145202 -0.0302068)
(1.35146 0.148052 -0.0289103)
(1.32725 0.141168 -0.0332376)
(1.32826 0.142313 -0.0318171)
(1.32947 0.14112 -0.0307915)
(1.32847 0.140065 -0.0319674)
(1.335 0.143095 -0.031743)
(1.30572 0.138687 -0.0341106)
(1.32214 0.142648 -0.0348464)
(1.30216 0.141467 -0.0339025)
(1.30603 0.140825 -0.0338194)
(1.31168 0.141656 -0.0331411)
(1.30165 0.142999 -0.0351882)
(1.31855 0.14447 -0.0357325)
(1.30461 0.144866 -0.0359763)
(1.32748 0.147816 -0.033752)
(1.32026 0.14969 -0.033105)
(1.32399 0.1483 -0.0350134)
(1.3251 0.147632 -0.0338826)
(1.31535 0.145646 -0.0367612)
(1.32453 0.149632 -0.0342734)
(1.32494 0.148108 -0.0341728)
(1.3215 0.147764 -0.0323065)
(1.32416 0.146433 -0.0327605)
(1.31504 0.143858 -0.0314832)
(1.31998 0.142524 -0.0298683)
(1.31009 0.140387 -0.0331388)
(1.30633 0.139075 -0.032312)
(1.31374 0.139408 -0.0327832)
(1.30724 0.136637 -0.0348861)
(1.31373 0.137137 -0.0363)
(1.30847 0.133138 -0.0367926)
(1.31607 0.135111 -0.0347042)
(1.30475 0.13368 -0.0353354)
(1.31993 0.13746 -0.0355625)
(1.33222 0.13785 -0.0364767)
(1.33622 0.141346 -0.0366423)
(1.34208 0.141387 -0.0344456)
(1.31866 0.139373 -0.0361505)
(1.33152 0.139789 -0.035218)
(1.32409 0.138117 -0.0344154)
(1.33283 0.141663 -0.032056)
(1.34173 0.140362 -0.0324253)
(1.34509 0.142209 -0.0294761)
(1.33582 0.14308 -0.0310702)
(1.3305 0.138199 -0.0332422)
(1.33774 0.142501 -0.0350719)
(1.34075 0.141564 -0.0323353)
(1.32703 0.141947 -0.0350007)
(1.34186 0.143332 -0.0349708)
(1.32317 0.142066 -0.0374193)
(1.33394 0.142876 -0.0376457)
(1.31954 0.143423 -0.0357123)
(1.3221 0.141977 -0.0363177)
(1.32238 0.143686 -0.0365972)
(1.32218 0.142972 -0.0365465)
(1.33235 0.148185 -0.0344978)
(1.32867 0.146914 -0.0361325)
(1.32369 0.147552 -0.0342441)
(1.32347 0.143398 -0.0388892)
(1.31928 0.145184 -0.0362844)
(1.33996 0.145826 -0.0347748)
(1.32653 0.146381 -0.0362094)
(1.33306 0.147151 -0.035404)
(1.32968 0.144345 -0.0368858)
(1.32295 0.141929 -0.0338372)
(1.32365 0.139754 -0.0369265)
(1.31041 0.138582 -0.0362325)
(1.31462 0.136022 -0.0365547)
(1.31155 0.136283 -0.0338792)
(1.31249 0.13605 -0.0365975)
(1.30684 0.134182 -0.0358037)
(1.31764 0.138009 -0.0332935)
(1.32075 0.136412 -0.0345754)
(1.32032 0.13555 -0.0370994)
(1.34251 0.133816 -0.0382186)
(1.34278 0.137256 -0.0393054)
(1.35675 0.139679 -0.0365611)
(1.35834 0.141072 -0.0354161)
(1.35377 0.140416 -0.0351812)
(1.34767 0.136988 -0.0349491)
(1.34686 0.137906 -0.0345701)
(1.36116 0.134275 -0.0378626)
(1.35964 0.135851 -0.0342777)
(1.35815 0.137448 -0.0342853)
(1.32943 0.133284 -0.0372715)
(1.3278 0.132048 -0.0408789)
(1.34375 0.134132 -0.0388745)
(1.33816 0.136395 -0.0354256)
(1.3456 0.136164 -0.036401)
(1.34586 0.13783 -0.0373445)
(1.33941 0.136894 -0.0419333)
(1.34083 0.137723 -0.0409797)
(1.3244 0.135886 -0.0382622)
(1.32289 0.136985 -0.0390862)
(1.32796 0.13773 -0.0381035)
(1.32489 0.141522 -0.0371714)
(1.33829 0.141966 -0.0383452)
(1.32058 0.141942 -0.0372243)
(1.33403 0.138806 -0.0409573)
(1.32757 0.137462 -0.0393772)
(1.3338 0.14017 -0.0374482)
(1.33697 0.143772 -0.0371433)
(1.32685 0.143367 -0.0386799)
(1.33374 0.140528 -0.0400103)
(1.3339 0.139617 -0.0405997)
(1.33416 0.135337 -0.0420665)
(1.32717 0.13547 -0.0426801)
(1.31735 0.132871 -0.0435878)
(1.31304 0.130541 -0.0415485)
(1.31452 0.128883 -0.0412454)
(1.3024 0.125128 -0.0410746)
(1.31137 0.127218 -0.0360901)
(1.32971 0.12842 -0.0349537)
(1.31587 0.127592 -0.0390873)
(1.31924 0.125381 -0.0416011)
(1.32626 0.128599 -0.0430426)
(1.33761 0.129279 -0.0431027)
(1.35716 0.132699 -0.0407319)
(1.36748 0.134507 -0.038647)
(1.35348 0.133023 -0.0395692)
(1.36185 0.132952 -0.0399819)
(1.36956 0.125883 -0.0399467)
(1.35995 0.128634 -0.0369077)
(1.37509 0.12955 -0.0366365)
(1.36125 0.128742 -0.0383713)
(1.34756 0.125797 -0.040163)
(1.35097 0.125935 -0.0421702)
(1.34783 0.129142 -0.0392634)
(1.35207 0.128739 -0.036895)
(1.34952 0.131519 -0.0382068)
(1.35257 0.129307 -0.0408333)
(1.34695 0.130915 -0.0443124)
(1.34277 0.130425 -0.0415675)
(1.3273 0.130658 -0.039003)
(1.32669 0.130983 -0.0418169)
(1.32981 0.13265 -0.0381896)
(1.33176 0.133466 -0.0403815)
(1.34219 0.133684 -0.0399512)
(1.33461 0.12992 -0.0452695)
(1.34918 0.130354 -0.0414832)
(1.33406 0.131687 -0.0438116)
(1.3431 0.135529 -0.037746)
(1.34068 0.136579 -0.0398883)
(1.3373 0.132382 -0.0398973)
(1.35446 0.131989 -0.0402675)
(1.33501 0.127729 -0.0441309)
(1.34215 0.129337 -0.0435402)
(1.33283 0.126844 -0.0466303)
(1.33195 0.126189 -0.0454958)
(1.33782 0.124253 -0.0437514)
(1.33384 0.123082 -0.0428292)
(1.3162 0.117711 -0.0397235)
(1.34146 0.120862 -0.0372126)
(1.34483 0.121409 -0.0360222)
(1.33182 0.118467 -0.0386696)
(1.33543 0.119789 -0.039521)
(1.34375 0.12099 -0.0423892)
(1.33152 0.122328 -0.0431523)
(1.36004 0.126149 -0.0411118)
(1.35766 0.124883 -0.0390975)
(1.35683 0.125963 -0.0408229)
(1.36812 0.114685 -0.042223)
(1.36037 0.115775 -0.0373367)
(1.37438 0.116886 -0.0381868)
(1.38364 0.119785 -0.0374476)
(1.37774 0.119074 -0.0379248)
(1.36324 0.115864 -0.0385685)
(1.36976 0.116834 -0.0397674)
(1.37436 0.11819 -0.0365802)
(1.37809 0.122115 -0.0370081)
(1.36786 0.117903 -0.0410711)
(1.3655 0.11893 -0.0400938)
(1.36391 0.118043 -0.0428266)
(1.35634 0.11815 -0.0355259)
(1.35686 0.118416 -0.0404382)
(1.35787 0.117875 -0.0374657)
(1.35805 0.118934 -0.0372684)
(1.36822 0.121646 -0.0386238)
(1.36285 0.120226 -0.0469644)
(1.35903 0.120638 -0.0419659)
(1.3638 0.123148 -0.0436719)
(1.35465 0.120746 -0.0386958)
(1.37198 0.12465 -0.0350688)
(1.36981 0.12267 -0.0389246)
(1.373 0.122572 -0.0402466)
(1.35242 0.118818 -0.0455981)
(1.35343 0.118756 -0.0443687)
(1.34275 0.116053 -0.0448507)
(1.33475 0.116503 -0.046369)
(1.33643 0.113769 -0.0451474)
(1.35562 0.113641 -0.044147)
(1.34185 0.108862 -0.0407257)
(1.33663 0.10874 -0.04118)
(1.36257 0.110442 -0.039802)
(1.35395 0.108917 -0.0425383)
(1.33844 0.107763 -0.0437919)
(1.3457 0.110414 -0.0445193)
(1.34145 0.11231 -0.0433501)
(1.33477 0.11506 -0.0467836)
(1.36727 0.115222 -0.0430946)
(1.34222 0.115083 -0.045103)
(1.3734 0.10062 -0.0441712)
(1.38579 0.102952 -0.038087)
(1.38051 0.101945 -0.0391765)
(1.39784 0.106122 -0.0401794)
(1.40214 0.109144 -0.0425657)
(1.38192 0.10643 -0.0387589)
(1.39189 0.103769 -0.0400004)
(1.38054 0.103383 -0.0408901)
(1.40022 0.109361 -0.0369295)
(1.4008 0.107277 -0.0424148)
(1.39754 0.107145 -0.0392954)
(1.39429 0.107217 -0.0409377)
(1.39002 0.106609 -0.0374744)
(1.39503 0.105457 -0.0375052)
(1.39835 0.10441 -0.0364277)
(1.38769 0.103209 -0.0346206)
(1.39364 0.106389 -0.0340895)
(1.38119 0.108144 -0.0473299)
(1.3885 0.105858 -0.0424868)
(1.38662 0.109032 -0.0431745)
(1.3847 0.106295 -0.0347528)
(1.39195 0.109378 -0.0347282)
(1.39352 0.107085 -0.0358928)
(1.3985 0.109666 -0.0399967)
(1.39075 0.1087 -0.042945)
(1.39282 0.106873 -0.0431548)
(1.38935 0.104396 -0.0404976)
(1.37369 0.106799 -0.0397739)
(1.36242 0.100519 -0.0452237)
(1.36901 0.0991142 -0.0416901)
(1.3839 0.0967093 -0.0378918)
(1.36061 0.0971713 -0.0368594)
(1.36338 0.0959804 -0.039801)
(1.37221 0.0986943 -0.0451241)
(1.36458 0.0951303 -0.0451334)
(1.37452 0.0985195 -0.0451495)
(1.38575 0.101219 -0.0390288)
(1.36235 0.100953 -0.0425135)
(1.37819 0.100664 -0.0421659)
(1.3787 0.102393 -0.0433415)
(1.39307 0.086118 -0.042577)
(1.40159 0.0894334 -0.0353507)
(1.39452 0.0894441 -0.0391527)
(1.39714 0.0912252 -0.0394767)
(1.41921 0.0972841 -0.0431138)
(1.41828 0.0946058 -0.037908)
(1.41863 0.0935311 -0.037148)
(1.39824 0.0904579 -0.0403038)
(1.40266 0.0957449 -0.0395019)
(1.41224 0.091201 -0.0417021)
(1.42287 0.0944045 -0.0403122)
(1.40235 0.0913068 -0.0387)
(1.43729 0.092765 -0.0365602)
(1.39721 0.089572 -0.038917)
(1.43791 0.0885605 -0.0353956)
(1.40814 0.0884825 -0.0386315)
(1.42437 0.0918382 -0.0353076)
(1.41328 0.0953138 -0.046236)
(1.42399 0.0932857 -0.0409966)
(1.41289 0.0966757 -0.0424692)
(1.41759 0.0917398 -0.0352595)
(1.42298 0.0969388 -0.0389843)
(1.40616 0.0949311 -0.0404799)
(1.40483 0.0985087 -0.0401015)
(1.41276 0.0968863 -0.0442155)
(1.41531 0.0949434 -0.0399235)
(1.41485 0.0922758 -0.0366933)
(1.4188 0.0935738 -0.0315313)
(1.40169 0.0885252 -0.0393781)
(1.38393 0.084681 -0.0377689)
(1.41301 0.0836907 -0.0282309)
(1.38893 0.0851473 -0.0349089)
(1.394 0.0838523 -0.0330022)
(1.39023 0.0859624 -0.0397353)
(1.41312 0.0859236 -0.0384383)
(1.39193 0.0872812 -0.0435587)
(1.41194 0.0904369 -0.0379811)
(1.40463 0.0907514 -0.0390902)
(1.39871 0.0874756 -0.0393859)
(1.40625 0.0905273 -0.0426561)
(1.43838 0.0738525 -0.0386405)
(1.4343 0.0765193 -0.029821)
(1.42827 0.0779256 -0.0345798)
(1.43086 0.0784628 -0.0357625)
(1.44152 0.081598 -0.0394159)
(1.45401 0.0786713 -0.0356328)
(1.45158 0.0801248 -0.0355285)
(1.43501 0.0780449 -0.0349512)
(1.43774 0.0822349 -0.0370312)
(1.42692 0.0753287 -0.0386155)
(1.44983 0.0824019 -0.0369717)
(1.42244 0.0761471 -0.0360374)
(1.45503 0.0794736 -0.0322154)
(1.42242 0.0778241 -0.0345997)
(1.44585 0.0722794 -0.0310022)
(1.44188 0.0756709 -0.032487)
(1.4432 0.0821986 -0.0334197)
(1.44837 0.0847944 -0.0406096)
(1.42849 0.0799937 -0.0370652)
(1.45911 0.0828703 -0.0328192)
(1.44918 0.0759103 -0.0320263)
(1.45526 0.082587 -0.0335932)
(1.44232 0.0831192 -0.0364127)
(1.42966 0.086059 -0.0340506)
(1.43527 0.0816927 -0.0379944)
(1.44578 0.0788374 -0.0349726)
(1.44269 0.0782725 -0.0294106)
(1.45568 0.0795245 -0.0290417)
(1.45697 0.0791687 -0.0308558)
(1.42732 0.0708959 -0.0307521)
(1.45329 0.0686472 -0.0187619)
(1.43384 0.0720964 -0.0258288)
(1.43512 0.0726832 -0.0289238)
(1.43199 0.0741282 -0.0303379)
(1.42763 0.0746251 -0.0351613)
(1.41527 0.0769427 -0.0362093)
(1.41368 0.0776664 -0.0364425)
(1.43661 0.0798796 -0.0360748)
(1.44262 0.0761168 -0.0355402)
(1.43122 0.079523 -0.0401512)
(1.44122 0.0578277 -0.0397327)
(1.45975 0.0614738 -0.0288598)
(1.45336 0.0647003 -0.0311026)
(1.45491 0.0643016 -0.0327689)
(1.46276 0.0666972 -0.0385496)
(1.44322 0.06386 -0.0371458)
(1.46306 0.0665148 -0.0353735)
(1.43368 0.0637262 -0.0336881)
(1.46145 0.0681252 -0.0333218)
(1.42607 0.0624741 -0.0383522)
(1.45872 0.0678613 -0.0313819)
(1.45223 0.0615348 -0.0315604)
(1.43367 0.0642176 -0.0344202)
(1.45715 0.0655405 -0.0293231)
(1.43654 0.0593969 -0.0327277)
(1.44728 0.0608407 -0.0285309)
(1.4441 0.0682586 -0.0292139)
(1.44516 0.0719594 -0.0407395)
(1.4148 0.0661223 -0.0389905)
(1.45856 0.0666119 -0.0307582)
(1.46003 0.0605181 -0.025023)
(1.45671 0.0673497 -0.0309066)
(1.46349 0.0694477 -0.0294735)
(1.46053 0.0730366 -0.0310681)
(1.4535 0.0672304 -0.0331153)
(1.45435 0.0618055 -0.0332029)
(1.47334 0.0619604 -0.0219069)