/*--------------------------------*- C++ -*----------------------------------*\
  =========                 |
  \\      /  F ield         | OpenFOAM: The Open Source CFD Toolbox
   \\    /   O peration     | Website:  https://openfoam.org
    \\  /    A nd           | Version:  10
     \\/     M anipulation  |
\*---------------------------------------------------------------------------*/
FoamFile
{
    format      ascii;
    class       volScalarField;
    location    "40";
    object      nut;
}
// * * * * * * * * * * * * * * * * * * * * * * * * * * * * * * * * * * * * * //

dimensions      [0 2 -1 0 0 0 0];

internalField   nonuniform List<scalar> 
25600
(
2.44383e-10
1.16554e-09
3.55473e-09
2.12273e-10
2.23416e-09
2.02259e-08
4.79106e-08
4.73386e-08
1.287e-08
4.27997e-09
3.34078e-08
4.92738e-08
2.22952e-08
5.86944e-08
3.65917e-08
1.42758e-09
5.44633e-09
1.05752e-08
5.39046e-08
1.60023e-08
3.11133e-09
5.99334e-08
6.21104e-08
5.28763e-10
2.45238e-08
3.1803e-09
3.46357e-09
7.29819e-09
1.77209e-07
1.93676e-07
1.13314e-07
5.3128e-08
3.74855e-10
4.48512e-10
7.37832e-10
1.60781e-10
4.6395e-12
7.20207e-14
9.0261e-11
3.05886e-10
3.89358e-09
1.44137e-08
1.7475e-08
1.32397e-09
1.05454e-08
7.76381e-08
2.89738e-07
2.15147e-07
6.28821e-08
1.70031e-08
1.38184e-07
3.96671e-07
3.88338e-07
6.99274e-07
4.25057e-07
1.05297e-08
6.80401e-08
1.17309e-07
2.09677e-07
8.82241e-08
3.68157e-08
1.09516e-07
4.55213e-07
1.47486e-08
1.55578e-07
3.39013e-08
4.25887e-08
1.21171e-08
7.74947e-07
1.59369e-06
1.43048e-06
4.71703e-07
1.03779e-08
6.41745e-09
3.67886e-09
1.45264e-09
4.68642e-11
1.01921e-11
8.23828e-10
3.77303e-09
1.3353e-08
4.59593e-08
8.16142e-08
2.18401e-09
1.44084e-08
4.57838e-08
6.28296e-07
3.18041e-07
1.08901e-07
3.93832e-08
2.28868e-07
8.39757e-07
1.50121e-06
2.23134e-06
1.24449e-06
2.56457e-08
4.1659e-08
2.07453e-07
3.29277e-07
2.7046e-08
2.59431e-08
1.70664e-07
6.89948e-08
1.08121e-07
1.6501e-07
2.91691e-07
2.66431e-07
6.66057e-09
5.50408e-07
2.41119e-06
5.01784e-06
1.89497e-06
1.25416e-07
2.11675e-08
2.73868e-08
1.26594e-08
7.69434e-09
1.35617e-11
2.34038e-09
1.31815e-08
4.04705e-08
1.70647e-07
3.3381e-07
1.54074e-08
1.30523e-08
7.88994e-10
7.56853e-07
1.40098e-06
7.66058e-08
4.39408e-08
3.37257e-07
1.19911e-06
3.5044e-06
7.83136e-06
2.45691e-06
3.17451e-08
1.47719e-06
2.44537e-07
6.04467e-07
2.18127e-08
1.59649e-06
2.64279e-07
9.31869e-08
1.75807e-08
1.51182e-07
1.75492e-06
2.38135e-06
5.01623e-07
1.81362e-07
1.17698e-06
5.67118e-06
5.74719e-06
4.13292e-07
5.9734e-08
1.1059e-07
1.40896e-08
5.14976e-07
4.62157e-08
2.65412e-08
3.48884e-08
3.5472e-07
4.8364e-07
1.46181e-06
2.82367e-07
1.74708e-08
5.46233e-09
2.30473e-08
1.08302e-05
1.74755e-07
1.41478e-08
1.94795e-07
1.03099e-06
6.60261e-06
8.98208e-06
1.22832e-06
2.7772e-05
3.58115e-05
9.04183e-06
4.18135e-06
4.06584e-07
1.37957e-05
6.61084e-06
1.00885e-07
4.78619e-07
7.99278e-09
1.42666e-06
7.21189e-06
8.28091e-06
5.31087e-07
3.25035e-07
1.95031e-06
1.01656e-05
3.74218e-07
7.55991e-07
7.00183e-07
7.77485e-09
2.80297e-06
1.60273e-06
5.75925e-07
1.08196e-06
1.66797e-05
5.52907e-07
2.63274e-06
2.47099e-06
2.34834e-08
1.84703e-08
7.12708e-09
2.02935e-06
6.84804e-06
3.16005e-08
8.70777e-08
3.14656e-07
4.41787e-06
1.50308e-05
1.42302e-06
1.77972e-05
1.29117e-05
8.64432e-06
6.22212e-06
6.58059e-06
8.29081e-06
3.212e-05
3.76454e-06
5.13588e-05
1.18379e-07
8.93674e-07
4.4269e-06
1.25964e-05
2.11922e-05
4.47552e-07
1.42321e-06
1.24158e-05
7.84543e-07
3.81142e-06
1.0563e-05
1.1122e-06
2.22571e-06
4.92975e-06
5.07067e-06
1.39475e-06
2.88638e-06
1.22127e-06
3.23168e-06
3.96913e-06
1.50355e-08
1.49923e-06
7.37833e-09
8.35353e-08
3.36923e-06
3.06206e-06
2.65514e-07
8.91386e-07
2.70556e-06
2.60519e-05
2.0072e-05
3.61577e-05
6.04956e-05
9.88067e-06
1.2576e-05
5.22602e-07
1.16385e-05
2.99454e-06
1.07412e-05
0.000114986
3.59389e-05
7.90874e-06
2.3037e-06
5.81241e-06
2.58132e-05
4.44493e-05
4.2695e-06
2.90725e-05
3.76379e-06
8.57748e-07
2.56107e-05
1.05053e-05
4.21834e-08
4.199e-06
1.63969e-05
8.3666e-06
3.37229e-06
6.11207e-05
8.29335e-07
3.65693e-07
6.18296e-06
8.39146e-05
3.76823e-06
8.48851e-08
9.9811e-07
2.04285e-05
2.15661e-06
2.39387e-06
5.60566e-06
3.56616e-05
5.49286e-05
6.8152e-05
0.000106821
1.44469e-05
5.32358e-05
3.7442e-06
9.11215e-06
3.44685e-05
1.775e-05
8.6117e-07
2.69635e-05
2.07643e-06
3.2769e-05
1.79217e-06
4.90938e-06
8.95567e-05
1.72526e-05
5.43241e-05
2.1022e-05
4.0726e-05
4.51509e-07
3.42002e-05
6.40619e-06
1.09965e-06
1.31484e-05
3.4082e-05
3.13981e-05
6.14977e-06
2.69224e-05
3.6342e-07
4.6201e-07
3.54306e-05
0.000158888
2.5957e-07
2.48808e-06
7.64651e-06
1.01208e-05
2.41095e-06
4.82059e-06
3.98819e-05
5.89048e-05
6.39547e-05
0.000113744
5.04548e-05
4.70184e-05
1.96002e-05
1.06692e-05
1.55533e-06
5.25948e-06
1.38814e-06
3.25761e-06
1.82969e-06
2.00904e-05
2.97824e-06
1.67323e-06
6.94711e-07
8.20437e-06
3.08961e-05
3.34954e-05
7.3358e-05
6.52503e-05
2.75506e-05
2.3064e-05
2.66875e-06
1.01028e-05
1.67595e-05
5.02369e-05
6.59374e-06
1.57102e-05
4.5874e-06
7.82206e-07
1.2292e-05
0.000104033
1.36048e-05
1.83716e-06
1.13939e-05
3.02766e-05
4.64906e-06
5.44151e-06
3.6829e-05
5.4561e-05
7.50255e-05
0.000114137
0.000138127
8.78687e-05
2.69183e-05
1.65566e-05
5.24911e-06
2.63732e-06
6.97835e-06
3.37312e-06
1.84657e-05
2.3171e-06
1.0697e-05
4.7124e-06
2.0008e-06
7.21345e-07
4.02464e-06
3.06957e-05
6.6394e-05
0.000108002
1.83853e-07
2.72924e-05
2.02591e-05
3.73466e-06
1.28536e-05
1.63978e-05
1.86976e-05
6.26935e-06
2.44376e-05
1.35587e-06
1.56246e-05
4.17614e-05
3.07664e-05
2.38478e-06
6.39158e-06
6.5483e-05
1.10017e-05
6.46863e-06
4.01726e-05
4.51079e-05
0.000101914
0.000101154
0.000163269
0.000253212
5.42349e-05
8.79069e-06
5.59562e-06
1.47311e-06
2.61952e-05
7.20688e-06
2.02606e-05
2.97048e-05
4.24125e-05
2.9124e-05
5.89019e-05
3.19972e-06
1.16369e-06
5.16626e-05
7.11951e-05
4.9466e-05
4.80766e-06
5.09362e-06
1.97355e-05
8.91374e-06
9.45503e-06
1.47328e-05
2.54281e-05
1.27071e-05
1.47187e-05
2.52887e-05
1.87766e-05
1.46943e-05
1.69579e-05
7.98361e-06
6.39147e-06
0.000136255
8.43074e-05
1.11048e-05
3.22105e-05
2.51811e-05
0.000119817
8.74196e-05
0.000182344
0.000295009
4.31076e-05
2.05636e-05
5.3456e-06
4.21641e-06
3.18656e-05
1.86338e-05
1.97914e-05
1.4794e-05
6.71214e-06
6.87276e-06
0.000179518
0.000255482
3.9743e-05
2.89652e-05
8.81509e-06
9.07438e-06
3.87823e-07
1.6558e-06
1.47988e-05
2.85625e-05
1.67071e-05
1.09473e-05
3.73123e-05
2.34784e-05
1.96822e-05
3.02338e-05
4.36548e-06
2.286e-05
3.07648e-05
3.77575e-05
7.55398e-06
0.000252886
0.000473555
2.88414e-05
1.90094e-05
8.29124e-06
9.59443e-05
8.85942e-05
0.000126236
0.000265012
4.57626e-05
1.57273e-06
7.48377e-07
2.86482e-05
2.43003e-05
1.37971e-05
4.33677e-05
5.32276e-06
1.6491e-06
1.6506e-06
5.37423e-05
8.16136e-05
6.18001e-06
1.72527e-05
5.76289e-05
2.78357e-05
5.10052e-06
5.91937e-06
1.57959e-05
2.63409e-05
2.74249e-05
1.59075e-05
2.95592e-05
4.14431e-05
1.36724e-05
3.13773e-05
6.16768e-06
2.51546e-05
1.38266e-05
2.25648e-05
2.48827e-05
0.000176791
0.000564759
0.000177804
1.32687e-05
5.36874e-06
0.000116571
8.99325e-05
7.76553e-05
0.000233432
3.8205e-05
3.90002e-06
3.72527e-06
1.74751e-05
2.11641e-05
2.39813e-05
5.7001e-06
1.48613e-05
3.8831e-06
3.12949e-06
5.71585e-05
2.1031e-05
1.74879e-06
4.25101e-05
0.000104478
2.16092e-05
2.65275e-05
1.24184e-05
1.00517e-05
2.26932e-05
3.2911e-05
2.38363e-05
4.56917e-05
2.65829e-05
1.56492e-05
2.87269e-05
1.99674e-05
3.88457e-05
1.82419e-05
1.66554e-05
7.07242e-07
2.84354e-05
0.000404283
0.000549923
7.31364e-06
2.46249e-05
0.00017199
8.33242e-05
7.86046e-05
0.000195941
2.22183e-05
1.67703e-05
1.74234e-05
4.81927e-05
2.18386e-05
6.62555e-05
7.8401e-06
2.0056e-05
6.69851e-06
1.64336e-06
5.29368e-05
1.59189e-05
1.31717e-05
1.22624e-05
0.000296087
3.88926e-05
3.90331e-05
4.45955e-05
2.93066e-06
2.02515e-05
1.84731e-05
2.69926e-05
4.52154e-05
3.79569e-05
1.9902e-05
0.000162867
2.21687e-05
5.93694e-05
3.56795e-05
1.80535e-05
2.44857e-07
1.59513e-05
7.27716e-05
0.000540963
0.000145495
2.35336e-05
6.93017e-05
5.75772e-05
5.24238e-05
0.000212007
0.0001698
8.86164e-05
5.1772e-05
5.4858e-05
4.45072e-05
3.59214e-05
8.21575e-06
2.41467e-06
2.95406e-05
9.06843e-06
4.22711e-05
4.176e-05
1.8124e-05
1.04255e-05
7.54173e-05
8.4684e-05
3.19706e-05
0.000139406
2.64201e-05
1.32383e-05
2.15497e-05
3.44948e-05
2.9752e-06
8.53958e-05
2.76619e-05
0.000266312
5.36053e-05
2.05795e-05
2.29691e-05
7.41087e-06
1.73599e-05
2.01095e-05
3.39988e-05
0.000303782
0.000182731
7.72249e-05
3.9486e-05
6.36381e-05
3.68289e-05
0.000114471
1.37701e-05
3.94134e-05
1.69759e-05
4.73417e-06
3.02053e-05
2.53502e-05
1.13025e-05
8.32111e-06
1.09677e-05
2.5632e-05
3.29159e-05
8.09586e-06
4.79813e-05
1.47474e-05
1.98015e-05
4.41264e-05
4.06249e-05
0.000100656
2.51898e-06
3.60762e-05
7.05734e-05
1.20679e-05
1.96969e-05
0.000173302
2.68656e-05
0.000396142
0.000261234
1.67111e-05
4.58471e-05
1.86397e-06
1.13012e-05
5.22738e-05
2.43831e-05
3.47196e-05
0.000235718
0.000183828
2.21499e-05
2.22359e-05
2.33923e-05
2.24553e-05
8.91773e-06
1.45018e-05
1.0238e-05
2.55312e-05
4.26117e-05
2.31724e-05
1.64626e-05
1.8838e-05
0.000164693
2.64845e-05
2.56805e-05
1.13437e-05
8.14332e-05
0.000150768
1.5828e-05
5.21453e-05
3.60676e-05
6.7732e-05
1.1184e-05
1.51737e-05
2.60115e-05
0.000119399
2.65594e-05
0.000112106
3.83456e-05
0.000172116
7.47482e-06
1.45486e-05
8.37535e-05
1.83263e-05
2.39637e-06
5.33948e-05
2.67948e-05
3.3753e-05
6.35129e-05
0.000355233
3.94709e-05
7.77722e-05
3.84102e-05
1.30459e-05
1.16702e-05
2.97977e-05
1.13977e-05
2.17727e-05
3.93995e-05
4.13781e-05
1.89904e-06
1.69369e-05
0.000232725
4.90362e-05
3.12963e-05
1.11418e-05
1.93885e-05
0.000107631
1.49383e-05
3.54447e-05
1.75555e-05
1.04057e-05
6.17499e-05
3.34092e-05
8.46191e-05
2.147e-05
3.33135e-05
8.02089e-05
2.10018e-05
0.00013295
2.4048e-05
2.11701e-05
5.7625e-05
0.000166838
0.000172332
2.00623e-05
4.35835e-05
4.64076e-05
6.59292e-05
0.000191164
0.000241607
3.04777e-05
8.79464e-05
4.35419e-05
5.40536e-06
1.24223e-05
1.63348e-05
0.000110476
9.23157e-06
1.65923e-05
0.000102265
2.43743e-05
9.97037e-05
0.000128954
4.53969e-05
1.46854e-05
1.6171e-05
4.68891e-05
3.36908e-05
1.08907e-06
2.21394e-05
3.33287e-05
4.21579e-05
4.52082e-05
7.3531e-05
1.80539e-05
4.18671e-05
4.87274e-05
1.17559e-05
7.83538e-05
8.92186e-05
6.95673e-05
1.13442e-05
0.000143362
0.000278342
1.17795e-05
2.0407e-05
5.95758e-05
6.92019e-05
5.54839e-05
0.00017733
8.05456e-05
1.78724e-05
0.000186818
4.98437e-05
0.000126545
1.07745e-05
8.51159e-06
7.34101e-06
4.8521e-05
2.65265e-05
0.000136101
2.19979e-05
6.36693e-05
7.43377e-05
2.25602e-06
0.000108347
0.00010231
0.000110734
1.16811e-05
9.63627e-06
1.2748e-05
4.61839e-05
6.1909e-05
0.000114742
4.86067e-05
2.15341e-05
0.000155667
0.000137947
6.32809e-06
6.75613e-05
5.32027e-05
2.4133e-05
6.63663e-05
0.000125976
3.05713e-06
8.64669e-06
1.79854e-05
1.32635e-05
1.25436e-05
0.000145489
0.000170231
6.21221e-06
0.000188502
0.000270571
0.000149951
0.000114284
1.33243e-05
1.78272e-05
1.00155e-05
2.22879e-05
1.77409e-05
2.08702e-05
1.22788e-05
1.65201e-05
1.07713e-05
1.86197e-05
0.000114128
9.62754e-05
0.000144879
8.1161e-06
0.000110041
5.87224e-05
1.87748e-05
0.000146422
5.20534e-06
1.6128e-05
5.82541e-05
0.000120746
1.72528e-05
3.46665e-05
1.31275e-05
5.26918e-05
4.54155e-05
1.26908e-05
1.94557e-05
2.77197e-05
2.30114e-05
8.30326e-06
3.74002e-06
3.20587e-05
4.32243e-05
2.08051e-05
2.59171e-05
0.000171031
0.000148776
0.000130322
1.41558e-05
6.57778e-06
3.02784e-05
3.67281e-05
1.82385e-05
3.35167e-05
5.77342e-07
1.43441e-05
2.25609e-05
2.585e-05
9.69768e-06
9.76176e-05
1.06842e-05
7.0989e-06
5.59036e-05
0.00010177
4.01769e-05
3.43674e-05
2.11351e-05
2.89214e-05
0.000259088
0.000118816
2.98619e-05
1.97754e-05
1.4408e-05
1.58794e-05
3.43138e-05
2.05105e-05
1.54254e-05
4.21602e-05
9.21774e-06
4.97692e-05
4.88151e-05
4.78597e-06
4.07478e-05
9.66048e-06
1.28918e-05
4.40062e-05
2.9557e-05
0.00014098
2.68851e-06
5.7566e-05
4.87442e-05
1.78043e-05
2.02565e-05
5.6579e-06
5.42754e-05
0.000105589
2.21392e-05
1.62031e-05
2.76492e-06
6.9472e-05
9.4649e-06
2.2112e-05
1.81191e-05
0.000111376
2.00678e-05
1.43729e-05
1.93407e-05
3.53793e-05
4.22289e-05
4.47851e-05
2.35489e-06
2.53069e-06
2.17057e-06
3.80382e-06
2.51233e-06
4.59579e-06
5.92913e-06
1.10898e-05
4.96286e-05
7.01927e-06
0.00014147
1.31724e-05
6.97072e-06
3.0331e-05
4.74838e-07
1.10788e-05
1.89335e-05
1.86482e-05
5.47534e-06
1.58085e-05
2.04412e-05
1.42676e-05
1.90742e-05
1.20935e-05
1.95201e-05
2.13003e-05
3.07791e-05
1.40518e-05
1.46954e-05
2.11888e-05
1.43041e-05
2.09406e-05
1.8082e-05
0.000203053
0.000285555
6.93014e-05
1.56353e-05
2.92959e-05
2.84244e-05
8.59772e-06
4.91625e-07
3.1037e-06
3.67492e-06
2.86423e-06
7.35369e-07
1.23102e-06
5.81582e-06
5.95972e-06
1.5467e-05
2.68025e-06
1.0562e-05
6.8842e-05
4.77799e-06
2.76233e-06
6.68576e-07
4.72013e-06
3.19211e-05
1.11931e-05
1.4799e-05
1.01828e-05
1.19918e-05
7.11659e-06
5.31226e-06
1.12442e-06
1.39798e-06
1.17154e-05
1.15761e-05
8.6629e-06
2.19917e-06
1.47702e-05
3.59066e-06
2.03713e-05
2.65615e-05
1.57776e-05
0.000126863
8.03394e-05
1.06991e-05
1.06963e-05
3.42179e-05
1.16836e-05
2.72842e-07
3.2125e-06
3.17702e-06
2.29729e-06
2.39502e-06
3.39269e-06
3.0757e-05
2.17661e-05
7.06169e-07
2.67043e-06
2.48363e-06
1.25497e-05
4.08204e-06
5.92875e-06
4.27949e-06
9.47198e-06
3.95643e-05
8.60056e-06
9.52139e-06
7.57325e-06
8.97923e-06
8.85148e-06
3.36131e-06
1.93179e-06
3.25554e-06
1.27678e-05
1.59035e-05
9.95926e-06
4.80424e-06
2.81422e-06
3.1632e-06
8.22835e-06
1.11802e-05
2.02851e-05
2.86965e-05
2.2715e-05
5.90876e-06
1.39516e-05
6.61142e-05
1.13894e-05
7.11244e-07
2.73279e-06
3.51463e-06
2.02087e-06
1.89345e-06
1.96532e-06
2.94134e-07
1.70798e-06
1.83649e-06
5.66624e-06
2.48376e-06
1.01018e-06
2.61258e-06
2.39603e-06
1.61099e-06
5.5911e-06
7.49622e-06
5.61229e-06
4.67445e-06
5.73082e-06
5.41769e-06
6.54493e-06
6.77175e-06
3.41139e-06
6.17134e-06
3.83492e-05
4.20577e-05
1.71423e-05
2.4191e-06
2.4161e-06
2.20555e-06
4.64576e-06
2.07871e-06
8.30556e-06
1.16011e-05
1.06829e-05
5.4195e-06
1.60725e-06
3.45528e-06
2.80909e-06
1.73079e-06
2.12783e-06
2.45372e-06
1.15276e-06
2.4923e-06
1.7514e-06
6.84743e-07
1.76819e-06
1.86312e-06
2.04491e-06
1.31231e-06
8.1709e-07
1.4033e-06
8.47371e-07
1.58042e-06
6.67809e-07
1.95807e-06
3.46428e-06
3.78375e-06
3.85389e-06
3.56413e-06
1.61855e-06
7.3149e-06
2.70678e-06
2.31316e-06
4.12835e-06
7.67516e-07
1.64632e-06
2.35968e-06
1.80149e-06
1.70902e-06
2.41675e-06
2.19129e-06
4.14429e-06
7.07706e-06
8.82805e-06
4.29399e-06
1.66311e-06
4.09972e-06
4.04356e-06
1.6652e-06
2.84173e-06
6.78627e-07
3.35651e-07
3.98861e-06
8.79896e-07
3.70493e-07
1.48748e-06
1.29584e-06
1.03849e-06
1.18134e-06
2.0329e-06
8.70401e-07
1.85767e-07
2.56024e-06
1.89029e-08
1.64933e-06
1.33173e-06
2.5771e-06
2.34494e-06
3.96603e-06
2.57205e-07
5.8473e-06
2.72428e-06
2.35815e-07
5.04454e-06
1.84035e-06
1.83475e-06
1.83701e-06
1.25355e-06
1.95569e-06
1.69457e-06
1.71369e-06
2.47075e-06
4.64694e-06
5.6674e-06
2.90615e-06
9.59655e-07
3.426e-06
2.44838e-06
6.12517e-07
3.09579e-06
3.65039e-08
8.23962e-07
2.15225e-06
2.10416e-07
4.17228e-07
1.13196e-06
1.51099e-06
8.93836e-07
1.07114e-07
1.15657e-06
7.70202e-08
1.68314e-08
4.1451e-07
5.18621e-09
1.94824e-08
2.95032e-07
1.46497e-06
1.45793e-06
3.93558e-06
7.23206e-07
2.73671e-06
2.92708e-06
3.52782e-07
3.30555e-06
1.96746e-06
1.51958e-06
1.86021e-06
1.35093e-06
1.53592e-06
2.08268e-07
1.1841e-06
1.50135e-06
3.60081e-06
3.59112e-06
1.69504e-06
4.05227e-07
1.54201e-06
2.04009e-08
3.25657e-07
1.20056e-06
1.50947e-08
7.08396e-07
2.29968e-07
6.78151e-09
4.44519e-07
1.65312e-07
6.79277e-07
7.54694e-07
1.4507e-08
1.50413e-07
6.04734e-09
5.08582e-08
1.48191e-07
7.44486e-10
4.40914e-08
1.52311e-09
7.49873e-07
2.96859e-07
2.1569e-06
3.60795e-07
4.53293e-08
3.51925e-07
3.44471e-08
6.48818e-07
1.21728e-06
8.72564e-07
1.71647e-06
1.19367e-06
1.42855e-07
1.16134e-08
5.45486e-07
2.05459e-06
2.82693e-06
2.58165e-06
1.54734e-11
1.06123e-09
1.16473e-09
6.84172e-11
1.32563e-09
3.73066e-09
7.62603e-09
2.94166e-09
3.29211e-10
1.78068e-09
3.67835e-10
4.34377e-09
9.75856e-08
1.32509e-07
1.05883e-07
1.06566e-09
1.58522e-08
2.20168e-09
2.4705e-08
3.67123e-07
7.55503e-08
1.95333e-11
8.80647e-10
1.00453e-08
2.29666e-08
3.7129e-10
1.9481e-08
2.92305e-09
3.12118e-10
7.52594e-09
2.68695e-09
3.33858e-09
1.29771e-08
1.00948e-09
2.75599e-10
1.50025e-09
1.91773e-09
5.50819e-10
4.16057e-10
5.53647e-10
5.68953e-10
5.21365e-09
3.44411e-09
1.00306e-09
5.31896e-09
9.31239e-09
1.19743e-08
4.61768e-09
1.40553e-08
6.9296e-08
8.89641e-08
7.38922e-08
4.70334e-07
9.8778e-07
7.95533e-07
4.58004e-08
2.66435e-09
6.31236e-09
6.98603e-08
2.57061e-06
1.4106e-06
1.45432e-10
5.40049e-08
7.88469e-08
1.01499e-07
2.36872e-09
1.75899e-07
5.59539e-08
1.5236e-08
7.82758e-08
1.36137e-08
1.72968e-08
9.63062e-08
1.57014e-08
3.45807e-09
1.24831e-08
9.48238e-09
2.69973e-09
2.70641e-09
2.1457e-09
1.2012e-08
2.9323e-08
1.31762e-08
2.41983e-09
9.52132e-09
1.0226e-08
3.57611e-09
2.30806e-08
8.86224e-08
1.94187e-07
9.27502e-07
1.02054e-06
1.75015e-06
3.98745e-06
3.25701e-06
1.16326e-07
7.93766e-09
4.66091e-09
1.89059e-08
2.29878e-06
2.81668e-06
4.35738e-07
6.46828e-07
5.78603e-07
4.54649e-07
2.63283e-09
2.58221e-07
2.34488e-07
1.66932e-07
1.34961e-06
9.9029e-07
8.33405e-09
2.78121e-07
1.36348e-07
6.47929e-10
4.40654e-08
3.02656e-08
2.63239e-08
3.66376e-09
3.32916e-09
9.72751e-08
3.30439e-07
2.89103e-08
1.42827e-08
1.93073e-08
2.70282e-08
1.09246e-08
6.12958e-08
4.24507e-07
2.28688e-07
1.41609e-06
4.37541e-06
5.78616e-06
1.05027e-05
3.91136e-06
3.30077e-08
4.22517e-07
8.77178e-08
1.74527e-08
3.87126e-07
2.68952e-06
7.89825e-06
2.38765e-05
8.11427e-06
2.38451e-06
1.10019e-07
1.19052e-07
6.19678e-08
2.81694e-07
3.11135e-06
2.13259e-05
4.69497e-06
2.32915e-07
5.08661e-07
5.05321e-08
1.33578e-07
1.19795e-08
1.49639e-07
4.69198e-08
9.5051e-09
2.95437e-07
2.35613e-06
4.56695e-07
1.26977e-07
8.28768e-08
9.98135e-08
1.3347e-07
1.78755e-08
1.42855e-06
3.51545e-07
6.69737e-07
7.0799e-06
1.70324e-05
3.62272e-05
3.72827e-06
9.88852e-07
4.14741e-06
2.32057e-06
1.36702e-07
1.94997e-08
1.28932e-06
1.23175e-05
6.11948e-05
2.20088e-06
1.17293e-05
1.03076e-06
1.01828e-07
1.69965e-08
8.68331e-07
3.32479e-06
2.73811e-05
6.42647e-05
7.55656e-06
9.93347e-07
5.68129e-07
1.70591e-07
7.88734e-08
2.23516e-08
5.11606e-07
2.01382e-07
2.25423e-06
4.59365e-06
5.37344e-06
1.1432e-07
2.068e-06
2.19415e-07
5.54716e-07
9.63214e-08
2.21613e-06
1.06065e-06
3.35918e-07
1.35128e-05
8.57057e-05
7.90447e-05
3.30121e-06
6.97989e-06
2.84954e-05
2.99263e-06
2.06956e-06
4.30705e-08
1.90174e-07
8.2169e-06
2.21562e-05
1.73138e-06
4.12112e-07
1.57604e-06
3.98317e-07
6.79835e-08
2.54222e-06
7.76831e-06
6.13518e-05
7.68474e-05
1.35865e-05
2.87937e-06
2.36447e-06
1.02213e-06
2.56473e-06
1.70924e-09
1.73457e-07
4.73482e-06
4.70608e-05
1.58741e-05
7.7688e-06
3.06633e-06
4.2692e-05
1.76825e-06
9.71466e-07
4.8844e-07
9.4203e-07
4.85534e-06
2.76279e-07
1.57597e-05
0.000125234
5.48548e-05
2.50828e-05
1.8404e-05
4.68231e-05
0.000143585
1.01939e-05
5.02701e-07
5.2286e-07
1.16157e-05
8.34207e-06
1.10274e-05
2.86444e-05
6.64856e-07
5.06478e-07
8.90758e-08
2.79596e-06
1.12136e-05
0.000107384
3.52264e-05
4.76043e-05
3.24485e-05
1.17618e-05
2.82804e-06
1.51974e-05
1.39995e-06
1.89978e-08
3.29432e-06
7.78405e-05
0.000100627
1.31306e-05
4.67263e-06
6.75693e-07
4.58771e-05
1.90052e-06
1.26641e-06
1.22374e-07
1.03696e-05
3.98472e-07
5.91475e-06
9.13583e-05
1.95179e-05
8.28869e-06
2.75579e-05
4.22635e-05
0.000251786
1.46187e-05
6.14267e-06
9.86251e-07
1.88726e-05
1.36094e-05
1.59437e-05
1.35453e-05
6.20949e-05
1.92522e-06
1.31486e-07
5.35533e-07
4.35998e-06
6.0509e-05
2.44595e-05
2.43483e-05
2.54929e-05
3.47309e-05
1.487e-05
2.42281e-05
0.000139583
1.77244e-08
1.11045e-07
3.72996e-06
6.66034e-05
5.53276e-05
4.44902e-06
3.26511e-05
7.96927e-06
6.93609e-06
2.04911e-06
5.75255e-07
9.06204e-06
2.61593e-06
4.67173e-06
6.43237e-05
6.55609e-06
1.91621e-05
6.41962e-05
4.49335e-05
0.000291399
5.99644e-05
1.70611e-05
2.05841e-06
1.54641e-05
1.26124e-05
1.82374e-05
1.89602e-05
0.000167866
4.79427e-05
7.15117e-07
3.50441e-07
2.83998e-06
5.82699e-06
8.11871e-05
6.47534e-06
7.49643e-06
1.72475e-05
4.86706e-05
2.77324e-05
0.000114975
2.41317e-05
2.73831e-06
1.78296e-06
4.57634e-05
0.000151043
4.42915e-06
8.68824e-06
6.01432e-06
1.76369e-05
3.74834e-06
2.07127e-06
9.9834e-07
1.41392e-05
8.94487e-06
2.67046e-05
4.16844e-06
5.79454e-05
3.94016e-05
3.23846e-05
0.000126002
0.000115245
1.5983e-05
1.30788e-05
2.11698e-06
1.76665e-05
1.45974e-05
3.88967e-05
0.000123212
3.27645e-05
6.05206e-06
3.72718e-05
4.48724e-06
5.34387e-06
4.4311e-05
3.5488e-05
3.95536e-06
3.59911e-05
4.84857e-05
2.48787e-06
7.80595e-05
0.000202894
5.68473e-06
1.6351e-05
3.0842e-05
3.52994e-05
8.36202e-06
6.24589e-06
1.93777e-05
9.01671e-06
7.77501e-06
4.00816e-06
3.20185e-07
1.97024e-05
1.05118e-05
2.40105e-05
2.43695e-05
3.11773e-05
2.41248e-05
2.75395e-05
3.22658e-05
0.000153853
6.35125e-06
3.80267e-05
4.2925e-05
2.53863e-06
4.5784e-06
1.99386e-05
8.40699e-05
0.000103703
1.78784e-05
1.69294e-05
6.58844e-05
5.57324e-05
7.24135e-05
2.31714e-05
4.1643e-06
3.96361e-05
4.16378e-05
2.47768e-05
0.000140131
0.000161529
7.73924e-06
4.8331e-05
7.90985e-06
2.40387e-05
0.000108435
2.0827e-05
4.66163e-05
1.13442e-05
8.34807e-05
1.47952e-05
9.52362e-07
1.24942e-05
2.66238e-05
4.11931e-05
8.32438e-05
8.67333e-05
2.20377e-05
2.18739e-05
2.62908e-05
5.55362e-05
1.17441e-05
4.54723e-05
9.69608e-05
3.02514e-05
1.64628e-06
2.10761e-05
1.79021e-05
4.81318e-05
1.60828e-06
1.61285e-05
6.12982e-05
1.91259e-05
4.92032e-05
3.37319e-05
1.78825e-05
1.43371e-05
9.39366e-06
9.49416e-06
5.95247e-06
0.000103149
8.42746e-06
6.40989e-05
2.07632e-06
6.65307e-05
9.52483e-05
3.22347e-05
3.60644e-05
3.00264e-05
3.72839e-05
6.98397e-05
3.50652e-07
2.05969e-06
8.96307e-05
1.9016e-05
0.000340589
0.000314296
3.92282e-05
1.93136e-05
3.12762e-05
3.658e-05
2.27275e-05
3.73909e-05
5.78607e-05
5.48847e-05
2.62576e-05
1.98437e-05
2.36169e-05
3.45393e-06
1.23948e-06
7.11497e-06
4.01651e-06
5.63397e-06
2.74075e-05
2.48212e-05
4.12777e-05
1.2528e-05
5.65459e-05
4.34948e-07
3.19059e-06
4.45736e-05
8.2413e-06
2.35723e-05
1.4685e-05
4.25487e-05
0.000157353
1.91653e-05
3.62485e-05
3.49227e-05
3.65801e-05
1.23631e-05
1.21344e-05
1.45959e-05
4.9122e-05
2.72857e-05
0.00035641
0.000400156
6.13924e-05
1.84388e-05
2.5856e-05
2.95747e-05
2.68066e-05
2.53623e-06
3.90109e-05
4.34469e-05
8.81366e-05
6.02176e-05
3.79654e-05
1.45486e-05
8.79061e-06
2.79569e-05
1.74793e-05
4.17366e-05
3.0073e-05
3.28789e-05
3.47663e-05
2.1021e-05
6.18398e-05
3.16868e-06
5.95542e-06
2.46099e-05
0.000121308
1.78049e-05
0.000120528
0.000132824
0.00018096
0.000130107
5.16009e-05
3.54246e-05
7.11678e-05
1.33632e-05
3.59134e-05
7.72611e-06
1.66526e-06
9.07389e-05
0.000369996
0.000399056
0.000132284
2.12771e-05
1.33879e-05
2.13404e-06
3.73381e-05
6.57286e-05
2.20985e-05
3.55774e-05
4.29751e-05
0.000263134
1.59634e-06
5.56294e-05
5.38402e-05
3.87633e-05
3.57786e-06
4.05725e-06
8.62887e-06
9.22628e-06
4.27893e-05
1.10453e-05
3.27214e-05
0.000173977
9.67674e-06
1.24552e-05
6.78148e-05
7.28427e-05
7.3942e-05
8.40832e-05
5.43093e-05
0.00010017
2.83832e-05
2.78453e-05
1.19e-05
1.10522e-05
1.79478e-05
3.16407e-05
3.76743e-05
2.53658e-05
2.53268e-06
7.71571e-05
3.98474e-05
2.97885e-05
2.49897e-05
8.46624e-06
2.11785e-05
4.90302e-05
0.000109631
9.99077e-05
2.72564e-05
0.000159723
4.2067e-06
1.03693e-05
6.84848e-05
4.86038e-05
2.95298e-06
2.72052e-06
8.9519e-07
2.5395e-06
5.77963e-07
2.5118e-05
3.43396e-05
0.000144922
2.86563e-05
2.82425e-05
5.09304e-05
5.19646e-05
6.28818e-05
6.76728e-05
7.67648e-06
9.27724e-05
3.971e-06
1.50541e-05
1.98412e-05
6.47977e-06
5.87188e-05
2.82788e-05
4.00086e-05
6.14183e-05
5.86935e-05
3.77208e-05
4.25005e-05
1.85668e-05
9.63585e-06
2.01116e-05
1.97317e-05
3.20492e-05
6.35279e-05
6.98915e-05
8.70491e-05
0.000134646
5.95474e-05
8.64869e-06
7.05264e-06
1.49467e-05
1.65581e-05
4.14478e-05
5.65928e-05
5.77835e-05
4.25291e-06
2.60798e-05
4.54267e-05
0.000203119
4.64553e-06
3.32689e-05
3.65322e-05
1.14842e-05
0.000276831
0.000135586
3.43786e-05
0.000120761
6.89695e-06
0.0001269
4.71615e-06
5.65199e-06
2.90527e-06
3.19397e-05
2.76051e-05
2.62473e-05
6.63819e-05
5.31203e-05
3.84818e-05
2.62093e-05
8.70886e-06
3.85723e-05
3.4698e-05
2.18726e-05
5.16691e-05
1.83477e-05
0.000139168
6.69222e-05
8.56792e-05
3.92304e-05
2.23015e-05
8.77728e-06
1.89257e-05
6.52665e-05
6.82741e-05
0.000100139
2.87346e-05
2.95082e-05
5.44733e-05
0.000257319
4.06225e-05
2.84355e-05
3.88338e-05
1.36533e-05
1.24446e-05
3.00411e-05
1.64805e-05
8.7318e-05
2.39672e-05
6.22238e-05
6.59766e-05
2.16184e-05
4.68279e-06
2.11873e-06
1.40658e-05
1.01344e-05
1.43947e-05
2.84275e-05
2.94665e-05
2.47992e-05
1.23921e-05
1.62881e-05
3.59575e-05
5.6608e-05
2.62584e-05
1.37059e-05
7.67488e-06
2.73428e-05
0.00014385
6.06555e-05
2.33848e-05
4.62336e-06
1.6807e-05
1.38797e-05
6.4605e-05
7.44383e-05
3.90754e-05
2.72793e-05
6.24813e-05
0.000253284
0.000121258
6.09335e-07
4.50338e-05
3.09913e-06
8.88072e-06
2.65138e-06
2.3411e-05
1.75939e-05
2.26708e-05
1.12155e-05
3.0808e-05
2.89433e-05
1.35931e-05
8.81172e-06
1.27485e-05
2.1781e-06
4.0062e-06
2.20119e-05
1.34323e-05
2.56133e-05
4.97205e-05
1.35418e-05
6.78935e-06
0.000128956
2.80493e-05
3.34754e-05
4.66581e-06
2.00739e-05
4.44744e-05
3.53867e-05
3.36353e-05
7.60251e-06
1.39256e-05
2.4511e-05
2.46781e-05
3.90904e-05
5.78856e-05
7.18787e-06
0.000128848
0.00014225
0.000293884
8.82515e-06
2.24816e-05
3.39868e-05
2.66436e-05
2.29607e-05
3.25629e-06
1.83157e-05
2.31742e-05
2.85619e-05
6.70842e-06
1.39711e-05
5.3541e-05
1.65415e-05
4.11058e-05
1.66936e-05
2.72661e-05
2.10982e-05
2.54561e-05
2.36187e-05
1.34791e-05
0.000213036
8.98581e-06
3.92692e-05
2.16667e-05
2.84237e-05
1.08411e-05
1.34413e-05
1.8974e-05
1.55891e-05
4.55521e-05
5.85647e-06
2.50952e-05
8.46709e-07
3.11308e-05
4.1054e-05
2.77683e-05
6.29516e-06
5.09449e-05
5.46769e-05
0.00014494
1.73743e-05
0.000308825
5.81574e-05
5.42326e-05
4.81174e-05
1.02509e-05
3.39593e-05
4.08741e-05
2.6473e-05
3.64108e-05
2.10073e-05
8.87803e-05
6.64671e-05
6.84411e-06
7.81891e-05
2.57902e-05
1.67442e-05
1.64417e-05
2.15603e-05
1.80693e-05
0.00022808
0.000137505
3.32634e-05
7.22632e-05
1.69871e-05
1.90991e-05
1.75777e-05
3.8016e-05
8.95539e-05
7.90561e-05
4.58441e-05
3.00462e-05
7.16134e-06
3.72599e-05
3.08515e-05
4.74e-05
6.24495e-06
2.72307e-05
8.80639e-05
0.000139946
1.96036e-05
3.2791e-05
2.99402e-05
4.86463e-05
3.20153e-05
5.58102e-05
1.65893e-05
2.31658e-05
9.4958e-05
8.07332e-05
0.000102354
1.27105e-05
0.000175503
3.35485e-05
9.82683e-06
1.6e-05
1.12022e-05
5.62946e-06
2.36333e-05
2.41365e-05
3.95303e-06
0.000235711
2.58511e-05
0.000195084
6.41891e-05
1.68391e-05
1.3143e-05
1.04519e-05
2.41607e-05
9.33592e-05
5.30591e-05
8.61372e-06
2.22672e-05
1.54827e-05
6.51359e-05
3.6818e-06
2.18603e-05
4.00805e-05
0.000162625
4.77328e-05
1.53409e-05
1.48111e-05
4.02983e-05
3.18511e-05
6.96455e-06
8.72931e-06
4.42889e-05
6.18463e-06
6.36948e-06
6.25283e-05
8.83492e-05
2.14543e-05
1.82149e-05
3.82878e-06
1.79694e-05
1.45795e-05
2.07344e-05
2.17383e-05
5.77065e-06
2.30389e-05
8.07578e-06
0.000122589
5.27735e-05
6.73119e-05
0.000150517
1.39893e-05
0.000115322
3.68472e-06
1.36618e-05
4.09061e-05
6.34022e-05
1.59651e-05
1.77289e-05
1.26871e-05
4.03131e-05
1.06297e-05
1.36474e-05
1.6223e-05
1.96583e-05
5.16458e-05
7.72235e-05
6.56055e-05
2.13151e-05
5.22616e-05
2.06027e-05
4.72332e-07
1.23892e-05
1.23872e-05
2.72223e-07
1.75897e-06
8.09979e-07
2.75048e-06
8.51108e-06
6.7912e-06
2.71465e-06
8.34575e-06
5.22029e-06
1.31452e-05
1.31931e-05
6.28756e-06
7.30218e-06
3.53228e-05
0.000123926
3.71795e-06
2.86308e-05
1.27908e-05
1.94301e-05
6.57038e-05
3.1807e-06
1.0903e-05
2.93067e-05
3.24786e-05
3.17682e-06
7.23883e-06
1.29702e-05
1.55984e-05
1.01619e-05
2.05789e-05
1.71399e-05
1.00886e-05
0.000210015
9.12573e-05
9.8084e-06
1.15227e-05
1.27286e-05
3.63504e-06
2.16918e-07
3.143e-06
2.36495e-06
5.8363e-07
3.05851e-09
1.53799e-06
5.50365e-06
6.32218e-06
3.24715e-06
4.25266e-06
3.30463e-06
2.18444e-06
8.25634e-06
6.93702e-06
5.54114e-06
1.57445e-05
9.13245e-05
1.14602e-05
7.37289e-06
8.55556e-06
1.27867e-05
2.97497e-05
3.18992e-05
1.52381e-06
5.16564e-07
4.23572e-06
7.42353e-06
1.50491e-05
2.4992e-05
2.24382e-05
1.11766e-05
6.88762e-06
2.40886e-05
6.58289e-06
1.70988e-05
1.69187e-05
6.31317e-06
1.49471e-05
4.59519e-05
1.02249e-05
1.42277e-06
4.58688e-06
3.24266e-06
1.22224e-06
1.3294e-07
8.02062e-06
2.22698e-05
9.75828e-06
8.03313e-06
2.67969e-06
1.63971e-06
7.23921e-07
2.39075e-06
4.13736e-06
2.41456e-06
8.61725e-06
4.88004e-05
8.21948e-06
8.05046e-06
7.01801e-06
8.10563e-06
5.89992e-06
1.60256e-06
9.22991e-07
1.1604e-06
9.52497e-06
1.87012e-05
1.33282e-05
7.15067e-06
4.39116e-06
4.55675e-06
3.94817e-06
1.42719e-05
5.51942e-06
7.02217e-06
7.41777e-06
5.57529e-06
6.4972e-06
2.51073e-05
1.98552e-06
3.70181e-06
3.07022e-06
3.52243e-06
2.13774e-06
1.87735e-06
2.56889e-06
8.76735e-07
2.29348e-06
3.15226e-06
4.11759e-06
1.95423e-06
1.20583e-06
1.41092e-06
1.35597e-06
1.24196e-06
2.32846e-06
2.75923e-06
6.33864e-06
5.54976e-06
7.31885e-07
6.52172e-06
5.5717e-06
5.17361e-06
2.49962e-06
4.42384e-06
3.00074e-05
2.55943e-05
2.67018e-06
1.99163e-06
2.83174e-06
2.55675e-06
3.55146e-06
4.35553e-06
4.20423e-06
6.18701e-06
6.57794e-06
3.2758e-06
1.76255e-06
2.75755e-06
3.59089e-06
2.62963e-06
1.87691e-06
3.15838e-06
1.46454e-06
2.6357e-06
2.08435e-06
5.48653e-07
1.56595e-06
2.29964e-06
2.01824e-06
1.86268e-06
9.93274e-07
1.23685e-06
6.20842e-07
1.59487e-06
9.39861e-07
1.6014e-06
3.22608e-06
4.72566e-06
2.88801e-06
5.65659e-06
2.12866e-06
7.01009e-06
1.46638e-06
1.22694e-06
4.31934e-06
1.63849e-06
2.12951e-06
2.6509e-06
2.04744e-06
1.96623e-06
2.06721e-06
1.95534e-06
3.21752e-06
3.94974e-06
3.84261e-06
2.11513e-06
9.83917e-07
2.33342e-06
2.97516e-06
2.82935e-06
2.35359e-06
6.88571e-07
7.45971e-07
3.53417e-06
1.02851e-06
2.79094e-07
1.3767e-06
1.21708e-06
1.05745e-06
1.255e-06
1.96878e-06
8.1005e-07
1.14636e-07
1.21833e-06
4.67562e-08
1.00562e-06
1.14081e-06
2.71866e-06
2.22335e-06
4.73059e-06
7.03527e-07