/*--------------------------------*- C++ -*----------------------------------*\
  =========                 |
  \\      /  F ield         | OpenFOAM: The Open Source CFD Toolbox
   \\    /   O peration     | Website:  https://openfoam.org
    \\  /    A nd           | Version:  10
     \\/     M anipulation  |
\*---------------------------------------------------------------------------*/
FoamFile
{
    format      ascii;
    class       volScalarField;
    location    "40";
    object      p;
}
// * * * * * * * * * * * * * * * * * * * * * * * * * * * * * * * * * * * * * //

dimensions      [0 2 -2 0 0 0 0];

internalField   nonuniform List<scalar> 
25600
(
0.00530094
0.00258288
0.00332725
0.00326343
0.00194756
0.00148385
0.00367489
0.00317323
0.00105393
-0.00053753
-0.00550058
-0.00561968
0.00128417
0.00219203
-0.00361738
0.00541363
0.0115819
0.002255
0.0032029
0.00926507
0.00615111
0.00930845
0.0137886
0.00374831
-0.003426
0.00416866
0.0102362
0.00422298
-0.00592301
-0.00916314
-0.00268831
0.000241933
0.00165835
0.00405419
0.00314662
0.00460552
0.00259122
0.00206923
0.00533769
0.00756188
0.00530625
0.00255917
0.00333421
0.00329934
0.0019666
0.00149107
0.00368248
0.00318091
0.00107582
-0.00050708
-0.00548669
-0.00561941
0.00131227
0.00222922
-0.00366096
0.00530607
0.0115579
0.00219174
0.00312924
0.00929082
0.00614477
0.00926207
0.0138127
0.00376645
-0.00349263
0.00413573
0.0103047
0.0043087
-0.00591398
-0.00920566
-0.00269282
0.000239924
0.00159957
0.00404916
0.00314596
0.00462008
0.0026029
0.00205667
0.00533538
0.007572
0.00533337
0.00251492
0.00335651
0.00335887
0.0019873
0.00147967
0.00364282
0.00311534
0.00105182
-0.000482744
-0.00552683
-0.00571746
0.00125213
0.00220588
-0.00373325
0.00516579
0.0114514
0.00200068
0.0030623
0.00933024
0.00608983
0.00924013
0.0139081
0.00379979
-0.00367498
0.00405693
0.0104188
0.00440495
-0.00610996
-0.00959517
-0.00288362
0.000160016
0.00155014
0.00406452
0.00315667
0.00463085
0.00261458
0.00203271
0.00533724
0.00759251
0.00534719
0.00246416
0.00338272
0.00343932
0.00199785
0.00145958
0.00359945
0.00300017
0.000949297
-0.000493208
-0.00565257
-0.00593749
0.00104563
0.00206097
-0.0037652
0.00506736
0.0111232
0.00156212
0.00295474
0.00952446
0.00598372
0.00912749
0.0140494
0.00380185
-0.00395205
0.00392183
0.010682
0.00459948
-0.00649456
-0.0104781
-0.0033731
-4.66583e-05
0.00138486
0.00408338
0.00318364
0.00469295
0.00263426
0.00199325
0.00534499
0.00759874
0.00537788
0.00231997
0.00332635
0.00350329
0.00199611
0.00143374
0.00359849
0.00301838
0.000805429
-0.000588892
-0.00592163
-0.00627925
0.000668149
0.00177559
-0.00388487
0.00480158
0.0102686
0.000631947
0.00252024
0.00977851
0.00600302
0.00886585
0.0139404
0.00363465
-0.00427523
0.00367194
0.0109626
0.00511432
-0.00659385
-0.0117083
-0.0042227
-0.000192132
0.00116977
0.00407973
0.0032022
0.00481089
0.00267158
0.00197149
0.00537668
0.00763705
0.00550306
0.00217653
0.00306779
0.00341641
0.00196409
0.00142256
0.00356106
0.00315547
0.000785143
-0.000780338
-0.00642599
-0.00669798
0.000184233
0.00145445
-0.00424952
0.00424441
0.00905717
-0.000896436
0.00159147
0.0097434
0.00607483
0.00856546
0.0135075
0.00334233
-0.00441534
0.00364094
0.0111187
0.00602844
-0.00598243
-0.0125076
-0.00529095
-0.000119168
0.00103381
0.00404663
0.00319241
0.00496565
0.00265925
0.00190207
0.00542064
0.00772394
0.00571007
0.00216867
0.00275563
0.00323538
0.00192236
0.00133587
0.00345167
0.00317588
0.00105937
-0.000902618
-0.00721841
-0.00722523
-0.000321072
0.00103466
-0.00449076
0.00375208
0.00762201
-0.0027349
0.000404312
0.00923903
0.00597425
0.00823057
0.0128661
0.00319238
-0.00386106
0.00402556
0.0109874
0.0062877
-0.00471182
-0.0122107
-0.00619833
-0.000154702
0.00087356
0.00396231
0.00311661
0.005246
0.00265822
0.00170308
0.00540352
0.00789562
0.00600763
0.00234341
0.00260727
0.00310371
0.00194883
0.0012594
0.00320967
0.00301964
0.0014888
-0.000799504
-0.00820193
-0.00789522
-0.00082706
0.000764089
-0.00425609
0.0032506
0.00633988
-0.00465251
-0.000821879
0.00846062
0.00551733
0.00770397
0.0118677
0.00284974
-0.00392211
0.00423401
0.0103025
0.00547997
-0.00326437
-0.0106232
-0.00646055
-0.000237766
0.000492584
0.00376167
0.00286644
0.00559894
0.00281808
0.00148376
0.00514482
0.00797457
0.00622735
0.00259476
0.00265208
0.00300915
0.00190034
0.00130031
0.00301748
0.00279512
0.00212662
-0.000530939
-0.00924712
-0.00870544
-0.00134361
0.000737917
-0.00397281
0.00250512
0.00525127
-0.00622938
-0.00257291
0.00752653
0.00506472
0.00691007
0.0106578
0.00255449
-0.00366991
0.00424819
0.00954157
0.00387997
-0.00301748
-0.00799841
-0.00585444
-9.43311e-05
5.644e-05
0.0034269
0.00246382
0.00598203
0.00329466
0.00159346
0.00466988
0.00762769
0.00619568
0.00277897
0.00271852
0.00299724
0.00161019
0.00127277
0.00304615
0.00263195
0.00238594
-0.000229435
-0.0102954
-0.00961555
-0.00185805
0.00105254
-0.00388243
0.00141206
0.00377143
-0.0070886
-0.00341623
0.00652128
0.00485147
0.00616963
0.00980079
0.00267565
-0.00224587
0.00518592
0.0100044
0.00274866
-0.00378071
-0.00565016
-0.00470773
0.000344828
-1.97622e-05
0.00301883
0.00190459
0.00618275
0.00403699
0.00204281
0.00425701
0.00681626
0.00574488
0.00295022
0.00256521
0.00301877
0.00115838
0.00118644
0.00299603
0.0023775
0.00257292
-2.48386e-05
-0.0113369
-0.010802
-0.00248072
0.00117875
-0.00418276
4.78837e-05
0.00202033
-0.00754703
-0.00379071
0.00553761
0.00453018
0.00575988
0.00949863
0.00319223
-0.000341072
0.00708062
0.0102622
0.00274236
-0.00276524
-0.00521301
-0.00442683
0.000985381
0.000848502
0.00242524
0.00105183
0.00598314
0.00465447
0.00260466
0.00428437
0.0057436
0.00502227
0.00298882
0.00239694
0.0027623
0.000663443
0.00111078
0.00335037
0.00195348
0.00236417
9.40323e-06
-0.0124481
-0.0129034
-0.00348584
0.000435498
-0.00553257
-0.00107643
0.000662837
-0.00814749
-0.00468311
0.00445395
0.00403629
0.00529951
0.00960703
0.00372707
0.000763458
0.0089591
0.0106446
0.00233371
-0.00218435
-0.00370983
-0.00391006
0.00115601
0.00151813
0.00192714
-0.000638435
0.00526997
0.00492086
0.00338345
0.00508634
0.00509528
0.00441949
0.00284996
0.00206528
0.00244244
0.000234503
0.00105669
0.00398146
0.0018426
0.00180978
-0.000195959
-0.0124057
-0.015541
-0.0049479
-0.0012038
-0.00768725
-0.00137109
0.000892725
-0.00829266
-0.00651523
0.00313809
0.00324619
0.00480296
0.0096266
0.00351621
0.000800683
0.00974877
0.0105538
0.0016771
-0.00175868
-0.00201795
-0.00303124
0.00107922
0.0026989
0.00201971
-0.000830181
0.00476662
0.0047779
0.00361733
0.00644148
0.00551931
0.00419452
0.00242056
0.0014429
0.00228806
-0.000104632
0.000900358
0.00460923
0.00284167
0.0013872
-0.000453629
-0.0105971
-0.0165448
-0.00684677
-0.00304991
-0.00938104
-0.00225041
0.00262966
-0.00680681
-0.00707605
0.00189092
0.00230191
0.0035609
0.00866342
0.0019048
-0.00170704
0.00655603
0.00968659
0.0012993
-0.00115195
4.15156e-05
-0.00174622
0.00108854
0.00287589
0.00185784
0.000184925
0.00470209
0.00401634
0.00337111
0.00759291
0.00687762
0.00396832
0.00172224
0.000777541
0.00200305
-0.000998679
0.000285079
0.00460212
0.00261763
0.000986846
-0.000658767
-0.00688006
-0.014614
-0.00891781
-0.00464105
-0.00984531
-0.00303909
0.00425725
-0.00298918
-0.00668803
0.000940638
0.00214827
0.00189594
0.00569442
0.00179118
-0.00380144
0.00421978
0.00846264
0.00144947
-0.00027514
0.00223489
-0.000382033
0.00124935
0.00189622
0.00070595
0.00041862
0.00416893
0.00248519
0.0025366
0.00757095
0.00801953
0.00362809
0.00126129
0.000636234
0.00156572
-0.00235261
-0.00126452
0.00385127
0.00223124
0.000787325
-0.00052253
-0.00351775
-0.0098726
-0.0104933
-0.00570376
-0.00872454
-0.00299504
0.00484724
0.000199351
-0.00549632
5.03448e-06
0.00245753
0.00144263
0.00447008
0.00320248
-0.00319023
0.00217354
0.00700208
0.00176833
0.00092512
0.00440947
0.000815206
0.00107493
0.000764985
0.000671852
0.00084094
0.00351461
0.0011007
0.00219945
0.00719932
0.00816093
0.00322066
0.00122592
0.0007184
0.00116564
-0.0029381
-0.00211318
0.00293827
0.00197093
0.000992039
-0.00044389
-0.00234411
-0.00555569
-0.00806303
-0.00571565
-0.00685678
-0.00108996
0.00545121
0.00200014
-0.00400441
-0.000496392
0.00265115
0.00260563
0.00401091
0.00435018
-0.00127027
0.000837171
0.00570767
0.00158863
0.0013987
0.00617029
0.00185028
0.00087244
0.000690947
0.00160694
0.00131708
0.00334876
0.000420559
0.00237871
0.00670104
0.00762834
0.00209129
0.00136658
0.000776003
0.00131688
-0.0018091
-0.00143064
0.00239572
0.00173825
0.000829345
-0.000851034
-0.00221127
-0.00255942
-0.00367124
-0.00471066
-0.00622256
0.000715173
0.00611493
0.00303908
-0.00212425
-0.000522498
0.00231532
0.00391217
0.00457608
0.00497957
0.00118183
0.000480518
0.00387256
0.000572059
0.00107331
0.00530269
0.00245987
0.000643757
0.000838559
0.00147241
0.000805127
0.00318335
0.000189524
0.00287578
0.00629945
0.00599191
0.0016612
0.00182591
0.00125125
0.00234519
0.000518777
0.00022648
0.00230244
0.00102433
-0.000129094
-0.00123864
-0.00150145
-0.00104256
-0.000959237
-0.00329518
-0.00627117
-0.000316885
0.00582773
0.00347169
-0.000255953
-7.60204e-05
0.00185883
0.00394514
0.0051603
0.00582728
0.00314517
0.000858071
0.00305029
-0.000150757
2.45708e-05
0.00420275
0.00272511
0.000479482
0.000147488
0.000884408
0.000720525
0.00261669
0.000127117
0.00284698
0.00690053
0.00554137
0.00233705
0.00189457
0.00146311
0.00255801
0.0010274
0.0011162
0.00220218
0.0010254
-0.000981933
-0.00209546
-0.0010581
-0.000652839
0.000215275
-0.00147237
-0.0040096
-0.000470624
0.00584348
0.00339122
0.000266919
0.000110125
0.00178861
0.00390208
0.00520227
0.00587782
0.00385978
0.00161746
0.00266166
0.00105016
-1.87117e-05
0.00268118
0.00199534
0.00015269
-0.000339233
0.000458567
0.00118384
0.00266616
0.0013457
0.00177698
0.00603358
0.00614184
0.00166361
0.000894852
0.000840858
0.00167389
0.00164511
0.00207288
0.00262505
0.0013745
-0.00156837
-0.002837
-0.00091534
-0.000775546
0.000125617
0.000247122
-0.00188132
0.000723978
0.00547414
0.00355165
0.000205893
-0.000141441
0.00118437
0.00331398
0.00520765
0.00582741
0.00391909
0.00233359
0.00299366
0.00130047
-0.000122627
0.00164215
0.00183213
0.000642234
-0.000642285
0.000108249
0.00101392
0.00258824
0.00302527
0.00172468
0.00362824
0.00343603
0.00119235
-0.000285218
-0.000197208
0.000853397
0.00170895
0.00247898
0.00341452
0.00312515
4.11832e-06
-0.00241003
-0.000747086
0.000393261
0.000880006
0.00161161
0.000351899
0.00185994
0.00475547
0.00382148
0.000506049
-0.000735562
0.000562793
0.00269786
0.00466299
0.00519156
0.0043244
0.00314637
0.00333032
0.00203289
0.00044809
0.00132257
0.00193519
0.00127499
0.000697202
0.000375051
0.00132516
0.0021093
0.00225307
0.00375494
0.00505315
0.00315911
0.00284662
-0.000474726
-0.00115354
0.000432529
0.00225834
0.00339919
0.00411628
0.00433496
0.00165225
-0.00118202
-0.000388159
0.00066742
0.00122322
0.00192597
0.00158028
0.00275158
0.0044823
0.00415834
0.00165949
8.00196e-05
0.00043989
0.00216342
0.00384184
0.00422132
0.00440782
0.00377491
0.00336987
0.0026421
0.000375569
0.000815507
0.00176803
0.00161515
0.00131807
0.00109419
0.00190265
0.0029703
0.00216683
0.00316221
0.00940799
0.00797082
0.00363807
-0.00018314
-0.00182379
-0.000275885
0.00218535
0.00358995
0.00439523
0.0046919
0.00227822
-0.000191494
-0.000444795
-0.000324477
0.000468449
0.00170787
0.00188021
0.00308566
0.00435095
0.00415299
0.0032877
0.00151472
0.0012334
0.00264304
0.00376416
0.00419135
0.0041611
0.00390498
0.00320552
0.00218837
0.00026871
5.64367e-05
0.00123062
0.00200276
0.00219069
0.00215452
0.00230722
0.00338484
0.00327451
0.00352686
0.0049473
0.00611033
0.00321119
-0.000198751
-0.00179774
-0.000354352
0.00217266
0.00357319
0.00418117
0.00430141
0.0022143
-0.000104563
-0.000466739
-0.000702562
0.000514609
0.00170393
0.00219473
0.00335883
0.00418735
0.00367273
0.00320618
0.00230787
0.00231841
0.00339101
0.00413653
0.00451198
0.00422057
0.0038786
0.00299654
0.002255
0.000987744
-0.000114346
0.000525143
0.00137262
0.00248075
0.00282052
0.00270161
0.0037838
0.00385849
0.00345919
0.00330165
0.00447872
0.00311378
-0.000280793
-0.0013383
0.000285822
0.00225374
0.00357884
0.00408231
0.00394664
0.00231955
0.00052189
1.92631e-05
0.00072482
0.0015655
0.00195953
0.00241797
0.00348632
0.00426515
0.00391827
0.0033087
0.0027705
0.00304224
0.00349733
0.00390312
0.00460297
0.00462934
0.00396571
0.00306569
0.00223483
0.00128297
0.00021717
0.000329606
0.00146737
0.00238912
0.00300013
0.00294575
0.00365252
0.00447846
0.00455834
0.00429362
0.00472202
0.00369378
0.00032759
-0.000489969
0.00122948
0.00251989
0.00308277
0.00378342
0.00368121
0.00242948
0.00135958
0.000657934
0.000832267
0.00195345
0.00221554
0.00243069
0.00360604
0.00401631
0.00378491
0.00341498
0.00302089
0.0034161
0.00357747
0.00361601
0.00445495
0.00468187
0.00380028
0.00304968
0.00231692
0.00164264
0.0010472
0.00132765
0.00185935
0.00249086
0.00309095
0.00342065
0.00385971
0.00437885
0.00465794
0.00540932
0.00562763
0.00380948
0.00132976
0.000692023
0.00210351
0.00259783
0.00266154
0.0034007
0.00333302
0.0024998
0.0019888
0.00123433
0.0010873
0.00227089
0.00255243
0.00236278
0.00335092
0.00385476
0.00373615
0.00333037
0.00310739
0.00365994
0.00371091
0.00344101
0.00410226
0.00450336
0.00353981
0.00306836
0.00276207
0.00192215
0.00170065
0.00204363
0.00234672
0.00272181
0.00319058
0.00359984
0.00375794
0.00419079
0.00432235
0.00478193
0.00503348
0.00379828
0.00199031
0.0014124
0.00269266
0.00268858
0.00246026
0.00322447
0.00295703
0.00251144
0.0024457
0.00169378
0.00144449
0.00237459
0.0027836
0.00262375
0.0030961
0.00365214
0.00379301
0.00322483
0.00323263
0.00369825
0.00364219
0.00332593
0.00367224
0.00433081
0.00336386
0.00291298
0.00316738
0.00219032
0.00214466
0.00263554
0.00267088
0.00282167
0.00327571
0.00370989
0.00368516
0.00408257
0.00417273
0.00406391
0.00432851
0.00365175
0.00232861
0.00188027
0.00306067
0.00265942
0.00234016
0.00322335
0.00255361
0.00247635
0.00279318
0.00192428
0.00184431
0.00245034
0.00277793
0.00294726
0.002895
0.00329815
0.00382499
0.00313661
0.00316605
0.00363542
0.00348246
0.0033194
0.00328246
0.00406683
0.00333373
0.00273749
0.00340794
0.00250975
0.00231166
0.00303535
0.00301412
0.0029323
0.00344475
0.00376851
0.0035467
0.00403321
0.00397219
0.0036145
0.00392624
0.0034856
0.00248273
0.00220025
0.00327574
0.002487
0.00225967
0.00339652
0.00232499
0.00238172
0.003025
0.00208599
0.00214957
0.0025371
0.00267456
0.00314074
0.00291499
0.00302663
0.00369123
0.00319693
0.00318058
0.00346965
0.00327946
0.00330548
0.00310616
0.00372233
0.00334362
0.00271454
0.0034001
0.00283215
0.00251568
0.00321884
0.00330251
0.0030823
0.00360814
0.00376227
0.00340595
0.0040976
0.00389153
0.00337374
0.00365961
0.00336076
0.00247906
0.00240722
0.00334401
0.00232414
0.00223046
0.0034419
0.00224415
0.00227693
0.00307061
0.00225695
0.00227956
0.0026043
0.00273583
0.00311876
0.0029353
0.00300386
0.00342006
0.00311877
0.0032166
0.00325355
0.00305685
0.00322131
0.00308167
0.00338822
0.00324709
0.00284988
0.00324751
0.00307958
0.0028231
0.00319365
0.00345601
0.00337468
0.00379971
0.00369946
0.00339351
0.00423007
0.00382429
0.00316573
0.0035379
0.0106161
0.00284779
-0.00474842
-0.00425042
0.000968777
0.00528906
0.00880756
0.010381
0.00709815
0.00211387
-0.000359963
4.0541e-05
-0.00106786
-0.00295
-0.00599176
-0.00122412
0.0109141
0.0103947
0.0021717
-0.00397624
-0.00338748
0.00440681
0.0107501
0.00940218
0.00997411
0.00720633
0.00183076
-0.000591286
-0.00120657
-0.00491204
-0.00682747
0.00117806
0.0091129
0.00784932
0.000899476
-0.000946733
0.00128425
0.00266949
0.0042583
0.0085546
0.0106503
0.0028703
-0.00477638
-0.00428722
0.000955709
0.00528645
0.00880923
0.0104094
0.00712304
0.00212131
-0.000348783
9.18611e-05
-0.00103415
-0.00294378
-0.00600692
-0.00126707
0.0109276
0.0104595
0.00221582
-0.00400153
-0.00343849
0.00431691
0.0107477
0.00939303
0.010002
0.00726472
0.00181085
-0.000600165
-0.00118005
-0.00489746
-0.00687597
0.00111474
0.00911381
0.00786338
0.000914828
-0.000934701
0.00127995
0.00266001
0.00424974
0.00855866
0.0107071
0.00288032
-0.0048486
-0.00434422
0.00093816
0.00528508
0.0088226
0.0104809
0.00716266
0.00212428
-0.000337294
0.000164222
-0.00119664
-0.00321498
-0.00618267
-0.00138345
0.0109867
0.010598
0.00225799
-0.00422316
-0.00360514
0.00417723
0.010557
0.00928376
0.0100675
0.0073206
0.00172106
-0.000626096
-0.00113645
-0.00490525
-0.00701157
0.00104523
0.00913602
0.00787393
0.000898193
-0.000909449
0.00125638
0.00264564
0.00425132
0.0085698
0.0107767
0.00286654
-0.00497669
-0.0044082
0.000923551
0.0052804
0.00882923
0.0105536
0.00721433
0.00211362
-0.000381903
0.000302092
-0.00154123
-0.00395127
-0.00659653
-0.00159611
0.0110713
0.0107576
0.00237233
-0.00441352
-0.00398543
0.00404004
0.0103108
0.0088711
0.00993718
0.00727939
0.00152357
-0.000648734
-0.00102418
-0.00478897
-0.00711465
0.000816783
0.0090936
0.00788162
0.000941987
-0.000882411
0.00120743
0.00262831
0.00428862
0.00858832
0.0108535
0.00285771
-0.00517769
-0.00447408
0.000902286
0.00523603
0.00879564
0.0106085
0.00726431
0.00208622
-0.00050566
0.000443546
-0.00184344
-0.00527063
-0.00717695
-0.00179876
0.0112062
0.0109094
0.00240033
-0.00424151
-0.00392822
0.00390415
0.0103198
0.008416
0.0095474
0.0070308
0.00114528
-0.000648976
-0.000798149
-0.00454764
-0.00695936
0.000513562
0.00885013
0.00765991
0.0009862
-0.000713556
0.00121388
0.002599
0.00440032
0.00859558
0.010967
0.00299062
-0.00542388
-0.00456519
0.00087948
0.00515179
0.00868265
0.0106103
0.00729307
0.00203034
-0.000668009
0.000585264
-0.00195386
-0.00703725
-0.00758041
-0.00206688
0.0104632
0.0110998
0.00235836
-0.00404957
-0.00335631
0.00406563
0.01054
0.00803016
0.00910385
0.00662693
0.000549655
-0.000671059
-0.000401202
-0.00407824
-0.00674961
0.000130758
0.00838526
0.00722702
0.000893301
-0.000388944
0.00132779
0.00259477
0.00455346
0.00855986
0.0109659
0.00321951
-0.00556799
-0.0047022
0.000872364
0.00508399
0.00845939
0.0105351
0.00727451
0.00195145
-0.000824848
0.000714017
-0.00188516
-0.00873671
-0.00783664
-0.00238177
0.0089449
0.010199
0.00212743
-0.00379109
-0.00294467
0.0045025
0.0107976
0.0079208
0.00866314
0.00631102
-7.349e-05
-0.000852871
4.52562e-05
-0.00330202
-0.0063874
-0.000357062
0.00752701
0.0065181
0.000565919
-4.31696e-05
0.00145367
0.00255432
0.00478687
0.00861458
0.0109402
0.00339155
-0.00549352
-0.0048431
0.000909398
0.00501045
0.00814882
0.0103321
0.00722189
0.0018806
-0.000959895
0.000726997
-0.00173178
-0.0103135
-0.00818303
-0.0021439
0.0083521
0.00916414
0.00164592
-0.00325153
-0.00229745
0.0048363
0.0109269
0.00801571
0.00827116
0.00626468
-0.000190566
-0.000779009
0.000323452
-0.00253629
-0.00600836
-0.000953108
0.006268
0.00555006
-4.27457e-05
0.000207819
0.00161468
0.00235579
0.00495426
0.00875179
0.0110105
0.00352804
-0.00518354
-0.00495996
0.000949397
0.00485272
0.00758056
0.00974994
0.00720704
0.00186677
-0.001071
0.000381868
-0.00178714
-0.011497
-0.00857246
-0.0012739
0.00888202
0.00858901
0.0010168
-0.00280142
-0.00161614
0.00510645
0.0109096
0.00802389
0.00773825
0.00658891
0.000255851
-0.00054041
0.000528846
-0.00198717
-0.00578227
-0.000991695
0.00497538
0.00473814
-0.000783012
0.000139939
0.00179595
0.00207291
0.00494237
0.00881135
0.0111102
0.00381943
-0.0045633
-0.00509339
0.000935858
0.00456275
0.00675882
0.00873127
0.0071179
0.00190173
-0.00117694
-0.00060403
-0.00219337
-0.0119912
-0.00905026
-0.000383543
0.0100467
0.00890235
0.000281686
-0.00262469
-0.000946302
0.00539919
0.0107841
0.00765354
0.00688185
0.00673967
0.000939331
-0.000254959
-7.48904e-05
-0.00218332
-0.00433466
5.79156e-06
0.00426927
0.00424262
-0.00144829
-0.000178982
0.00194273
0.00182329
0.00473088
0.00856168
0.0110417
0.00414372
-0.00376294
-0.00514301
0.000804028
0.00411049
0.00560798
0.00719792
0.00677272
0.00198696
-0.00135085
-0.00240468
-0.00287047
-0.0112921
-0.00979098
-0.000165204
0.0109085
0.009663
-0.000183223
-0.00261243
-0.000638837
0.00556482
0.0106025
0.00690877
0.00584509
0.0065397
0.00124365
-0.000461226
-0.000279447
-0.00245884
-0.00428535
0.00100106
0.00447523
0.00397983
-0.00167546
-0.000487766
0.0019272
0.00189327
0.00454691
0.00790691
0.0105602
0.00425096
-0.00313194
-0.00477287
0.000573725
0.00394498
0.00414081
0.00524498
0.00575568
0.00194858
-0.0017625
-0.00480574
-0.00357782
-0.0100281
-0.0108368
-0.000303043
0.010881
0.0105041
-0.000401654
-0.00267024
-0.000578212
0.00544447
0.0103447
0.00611593
0.00446473
0.00599057
0.00161204
-0.000842927
-0.000361915
-0.00229569
-0.00389548
0.0012648
0.00473389
0.00377218
-0.00141222
-0.000440436
0.00181801
0.0019054
0.0044265
0.00722108
0.00939802
0.00385953
-0.00288401
-0.00468169
1.83886e-05
0.00426186
0.00267632
0.00368106
0.00404703
0.00153069
-0.00245513
-0.00659233
-0.00383075
-0.00841331
-0.0116252
-0.000466758
0.010245
0.0111346
-0.000141047
-0.0030648
-0.00124359
0.00534781
0.0101631
0.00568867
0.0030545
0.0050594
0.00190303
-0.000967258
-0.000540139
-0.00195314
-0.00322751
0.00113194
0.00442774
0.00353192
-0.000941761
-0.000484847
0.00154045
0.00181321
0.00361305
0.00616027
0.00699315
0.00291539
-0.00289796
-0.00518547
-0.000917747
0.00460726
0.0048024
0.00312207
0.00271054
0.000788942
-0.00233637
-0.00634628
-0.00313703
-0.00655968
-0.0110921
-9.9344e-05
0.00977997
0.0110496
0.000413551
-0.00282457
-0.00258279
0.00417298
0.00995756
0.00568267
0.00178777
0.00350034
0.00200856
-0.000666003
-0.000449414
-0.00151138
-0.00255852
0.000809522
0.00384358
0.00327805
-0.000296666
-0.00128446
0.000257131
0.00157438
0.00217006
0.00430627
0.00436048
0.00248137
-0.00203656
-0.00547533
-0.00203424
0.00340979
0.00472505
0.00307397
0.00185409
0.000122924
-0.00129317
-0.00425682
-0.0017934
-0.00442727
-0.00936893
0.000618852
0.00971198
0.00892142
0.000597726
-0.00197728
-0.0026416
0.00217687
0.00888658
0.00598487
0.00114217
0.00232168
0.00182975
-0.000384802
0.000292069
-0.000862712
-0.00202496
0.000621917
0.0035087
0.00296052
0.000603355
-0.00147018
-0.000937786
0.0016424
0.00175129
0.00209147
0.00246936
0.00323958
7.00996e-06
-0.0040279
-0.00339795
0.00137227
0.0040335
0.00305773
0.00165296
-0.000297611
-0.000817978
-0.00201924
-0.000119051
-0.00197881
-0.00613127
0.00175718
0.0093427
0.00779579
0.000298046
-0.00154591
-0.00184025
0.000440157
0.00704693
0.00613501
0.00109065
0.00191417
0.00181487
-0.000138083
0.000571557
-0.00031536
-0.00141072
0.000431368
0.00332558
0.00306952
0.00149126
-0.000724807
-0.00190845
0.00227101
0.00320529
0.000861184
0.00209058
0.00340523
0.00123067
-0.00289572
-0.0038708
0.000167397
0.00332267
0.00296413
0.00121278
-0.000729198
-0.000743018
0.000380269
0.00110975
3.88782e-05
-0.00327017
0.00330589
0.00927269
0.00677921
0.000396939
-0.00121948
-0.000880388
0.000620796
0.00555748
0.00587782
0.00154524
0.00222096
0.00223642
5.31079e-05
0.000653387
0.000245333
-0.000857727
0.000135322
0.00244657
0.00336662
0.00210666
-3.0973e-05
-0.00272274
0.00292222
0.00472243
0.0020351
0.0032169
0.00249464
0.00134245
-0.0022681
-0.00308352
0.000486295
0.00289877
0.00280469
0.000616875
-0.00135139
-0.00110475
0.00156284
0.00269435
0.00136165
-0.00198162
0.00368611
0.00906777
0.00611847
0.000497556
-0.000891092
0.000290473
0.00244302
0.00543588
0.00609459
0.00295641
0.00284827
0.00282243
0.000268631
0.000609817
0.000872381
-0.000583635
-0.000221329
0.00134964
0.00297976
0.0020731
0.000120583
-0.00332725
0.0005231
0.0045639
0.00522607
0.00377163
0.00246179
0.00219455
0.00164286
-0.00160454
0.00105327
0.00279609
0.00304281
0.000387249
-0.0017273
-0.00113131
0.0014041
0.00322624
0.0017977
-0.00188537
0.00275308
0.00842778
0.00542355
0.000517313
-0.000719793
0.000712705
0.00374546
0.00577499
0.00622081
0.00415846
0.0032075
0.00360958
0.000818545
0.0003965
0.000870762
-0.000600562
-0.000599368
0.000521546
0.00199338
0.00161208
-0.000151587
-0.00410104
-0.000280508
0.00388322
0.00453126
0.00365602
0.00354648
0.0033551
0.00334325
0.000796469
0.00126552
0.00254111
0.0034761
0.000782015
-0.00181322
-0.000988065
0.000582219
0.00243017
0.00186854
-0.00121113
0.00287484
0.00793008
0.00492336
0.000635444
-0.000480059
0.000879821
0.00391023
0.00612052
0.00643666
0.00445815
0.00289482
0.00354781
0.0012216
0.000628509
0.00139114
-0.000210779
-0.00054476
0.000761428
0.00190343
0.00165537
0.000179878
-0.00326623
-6.39224e-06
0.0032265
0.00314765
0.00198982
0.0019541
0.00204512
0.00302669
0.00223551
0.00174812
0.00250181
0.00347757
0.00072501
-0.00147898
-0.000448863
-2.60402e-05
0.0011287
0.00215555
0.000337175
0.00302205
0.00758451
0.00490888
0.000620391
-0.000282706
0.00112801
0.00347997
0.00601856
0.00662051
0.00454916
0.00252536
0.00252239
0.000333304
5.88347e-06
0.00155824
0.000759437
0.000261158
0.000992197
0.00184315
0.001818
0.000958626
-0.00113776
0.000307259
0.00315865
0.00204304
0.00115291
0.000926167
0.00132211
0.00214591
0.00260492
0.00221885
0.00279441
0.00354062
0.00103604
-0.00125103
-0.0007161
-0.000370227
0.000950231
0.00294424
0.00143797
0.00293486
0.00669089
0.0051547
0.00105439
-0.000841004
0.000327477
0.00274639
0.00495698
0.00620485
0.00464545
0.00260812
0.00208558
-0.000375768
-0.000599192
0.000898663
0.000902381
0.0006036
0.00128999
0.00182422
0.00237699
0.00168336
0.000231319
0.000270337
0.00332417
0.00222915
0.00111861
-0.000142727
0.000414561
0.00194452
0.00282291
0.002727
0.00328083
0.00346449
0.00112534
-0.00107932
-0.0008496
-0.000295244
0.00111699
0.00366876
0.00270244
0.00353072
0.00581569
0.00498235
0.00198252
0.000180154
0.000702707
0.00244315
0.00388021
0.00528502
0.00485389
0.00331355
0.00203291
-0.000605113
-0.000499527
0.000632243
0.0010984
0.000491439
0.00160514
0.00209695
0.0027885
0.00288749
0.0017844
0.00202085
0.0038835
0.00325965
0.00221574
-0.000300019
-0.000781374
0.000996797
0.00279306
0.0035003
0.00378577
0.00439858
0.00201373
-0.000365419
-0.000448059
-0.000380276
0.000547779
0.00210013
0.00308395
0.00413065
0.00547042
0.0044013
0.00285932
0.00149249
0.00141905
0.00259759
0.00359152
0.00461055
0.00435803
0.00344611
0.00260669
0.00149604
0.000416403
0.000119204
0.000727024
0.00172975
0.00233423
0.00280322
0.00316933
0.00363223
0.00310128
0.00275529
0.00317557
0.0038594
0.00291622
-0.00086141
-0.00154692
0.000410591
0.00237814
0.00334723
0.00392188
0.00430496
0.00254299
8.6665e-05
-0.000496197
-0.000444913
0.000474944
0.00179386
0.00271688
0.00399314
0.00492196
0.00414902
0.00315962
0.00232981
0.00242965
0.00320447
0.00392633
0.00469167
0.00433112
0.00361185
0.00238957
0.00201019
0.00122729
1.38873e-05
2.18637e-05
0.000778657
0.00228413
0.00305478
0.00357013
0.0042102
0.00374837
0.00346681
0.00429669
0.00491148
0.00335692
-0.000608377
-0.0014008
0.000875998
0.0024914
0.00315122
0.00356602
0.003768
0.00247373
0.000923362
0.00032175
0.000687072
0.00123251
0.00198157
0.00257765
0.00376393
0.0044335
0.00409213
0.00339814
0.00285071
0.00329412
0.00358371
0.00389763
0.0046371
0.00525888
0.00412126
0.00286892
0.00221855
0.00120142
-1.06781e-05
7.13278e-05
0.00110967
0.00238426
0.00323528
0.00343609
0.00395507
0.00404301
0.00473603
0.00539801
0.00576779
0.00352236
0.00052805
-0.000139577
0.001782
0.00280254
0.00277174
0.00341415
0.00353383
0.00245884
0.00155286
0.000915591
0.000864787
0.00188933
0.00228321
0.0024676
0.00365731
0.00410866
0.00391125
0.00343671
0.00304619
0.0035818
0.00369294
0.00365018
0.00447868
0.00516264
0.00401447
0.00298781
0.00226146
0.00163827
0.00100482
0.00105337
0.00169285
0.00250108
0.00319156
0.00354679
0.00408221
0.00425758
0.00348801
0.00489216
0.00529005
0.00356441
0.00144253
0.000763406
0.00229088
0.00296464
0.00252031
0.00314756
0.00322579
0.00241309
0.00206955
0.00145821
0.00113888
0.00225299
0.00262478
0.00243941
0.00334923
0.00388335
0.00377659
0.00334994
0.00320073
0.00372843
0.00377906
0.00347532
0.00411541
0.00464404
0.00366846
0.00311257
0.00280915
0.00195391
0.00164437
0.00188649
0.00223267
0.00275512
0.00332247
0.0036267
0.00384783
0.00419539
0.00402514
0.0042664
0.00464318
0.00352196
0.0020149
0.00144702
0.00266646
0.00286938
0.00241768
0.00306725
0.00287912
0.00243551
0.00249142
0.00182943
0.00145545
0.00237933
0.00284381
0.00265234
0.00307563
0.00365813
0.00379929
0.00323908
0.00324636
0.00370803
0.00366869
0.00338372
0.00371154
0.00441128
0.00348074
0.00299233
0.00319048
0.00217776
0.00211567
0.00260034
0.0026226
0.00279837
0.00335485
0.003682
0.00367899
0.00418777
0.004015
0.00375254
0.00407949
0.00349205
0.0023111
0.001907
0.00297803
0.00266866
0.00236665
0.0031496
0.0024706
0.00241191
0.00283126
0.00201545
0.00181567
0.00247075
0.00284688
0.00295025
0.00291285
0.00329678
0.00379495
0.00316398
0.00319565
0.00360925
0.00348336
0.00338619
0.00327487
0.00406357
0.00336404
0.00282626
0.00343649
0.00250489
0.00231514
0.00301152
0.00298749
0.00290158
0.0034874
0.00378073
0.00348096
0.00409508
0.00396289
0.00340939
0.003773
0.00345229
0.00242911
0.00222578
0.00323046
0.00241825
0.00232043
0.00339214
0.0022274
0.00232567
0.00307242
0.00215905
0.00208732
0.00256297
0.00274303
0.00310151
0.00295579
0.00302816
0.00362444
0.00324442
0.00321234
0.00342275
0.00326347
0.00337132
0.00317103
0.00369951
0.00333672
0.0028006
0.00343649
0.00282096
0.00251481
0.0032046
0.00331016
0.00305071
0.00360154
0.00380461
0.00333664
0.00410202
0.00395148
0.00321382
0.00357123
0.00341238
0.00243169
0.00240378
0.0033205
0.00224382
0.00228974
0.0034555
0.00214899
0.0022424
0.00310312
0.00231484
0.00223022
0.00263053
0.00278409
0.0030654
0.00300057
0.00300865
0.00332837
0.00318465
0.00325947
0.00319223
0.00304794
0.00327744
0.00313594
0.00339313
0.00324399
0.00288207
0.00329914
0.0031024
0.00279039
0.00318178
0.00349299
0.00333608
0.00376728
0.00376297
0.00334196
0.00419561
0.00392235
0.00305947
0.00344597
0.00561691
0.0024203
-0.00101401
-0.0021259
0.000368086
0.00409625
0.00763168
0.0094896
0.00767201
0.000503225
-0.00576389
-0.00502606
-0.000287789
0.00147806
0.00168217
0.00206616
0.0024739
0.0015636
0.00176546
0.00445797
0.0072493
0.00848743
0.00821428
0.00488453
0.00157977
0.00407631
0.00122546
-0.00304835
-0.00468895
-0.0039947
-0.00124338
0.00311342
0.0100767
0.0076935
-0.0041969
-0.00590238
0.00349678
0.0103388
0.0122604
0.00940604
0.00564253
0.00242767
-0.00101822
-0.0021483
0.000370862
0.00410368
0.00763702
0.00951399
0.00770691
0.000530096
-0.00578391
-0.00499698
-0.000288131