/*--------------------------------*- C++ -*----------------------------------*\
  =========                 |
  \\      /  F ield         | OpenFOAM: The Open Source CFD Toolbox
   \\    /   O peration     | Website:  https://openfoam.org
    \\  /    A nd           | Version:  10
     \\/     M anipulation  |
\*---------------------------------------------------------------------------*/
FoamFile
{
    format      ascii;
    class       volVectorField;
    location    "40";
    object      UMean;
}
// * * * * * * * * * * * * * * * * * * * * * * * * * * * * * * * * * * * * * //

dimensions      [0 1 -1 0 0 0 0];

internalField   nonuniform List<vector> 
25600
(
(0.0620242 1.39958e-06 -0.000189999)
(0.0613987 2.25363e-06 -0.000122142)
(0.0619296 1.41157e-06 -9.93987e-05)
(0.0613143 1.51933e-06 -0.000107476)
(0.0619231 5.83029e-07 -0.000219463)
(0.061355 4.86932e-07 -0.000186761)
(0.0619324 2.21935e-06 -0.000169609)
(0.0613254 2.24043e-06 -7.78077e-05)
(0.0618683 2.07283e-06 -0.00014609)
(0.0613037 1.0371e-06 -0.000172534)
(0.0618833 1.27516e-06 -0.00022669)
(0.0613225 1.92276e-06 -0.00010722)
(0.0618802 2.94375e-06 -0.000100202)
(0.0612828 1.01887e-06 -7.87082e-05)
(0.0619102 6.14563e-07 -0.000216396)
(0.0613122 1.4989e-06 -0.000171913)
(0.0619117 1.82193e-06 -0.000183592)
(0.0612925 1.65857e-06 -4.64608e-05)
(0.0619241 8.53164e-07 -0.000160942)
(0.0613391 4.96646e-07 -0.00016169)
(0.0619832 1.43942e-06 -0.00024178)
(0.0613648 2.60694e-06 -0.000122296)
(0.0619939 2.23226e-06 -0.000107389)
(0.0613686 1.16574e-06 -8.89203e-05)
(0.0620182 -1.73707e-06 -0.000189048)
(0.0614964 4.95882e-07 -0.000162629)
(0.0620992 8.65851e-07 -0.00012065)
(0.0614713 1.01656e-06 -5.55027e-05)
(0.0621028 1.86179e-07 -0.000106304)
(0.0614415 2.12731e-07 -0.000132073)
(0.0621579 -1.85158e-06 -0.000201314)
(0.061481 1.84755e-06 -7.93552e-05)
(0.062163 3.06681e-06 -7.18729e-05)
(0.0614177 2.14112e-06 -7.59174e-05)
(0.0621324 4.45621e-07 -0.000174116)
(0.0614338 2.21734e-06 -0.000173037)
(0.0621194 1.12876e-06 -0.000132003)
(0.0613856 1.73559e-06 -6.04101e-05)
(0.0620373 2.03337e-07 -0.000114985)
(0.0613989 -3.39505e-07 -0.000173234)
(0.179016 2.72322e-05 -0.000561758)
(0.177127 3.86753e-05 -0.000461326)
(0.178828 3.90785e-05 -0.000456511)
(0.176959 3.65513e-05 -0.00044214)
(0.178788 2.99421e-05 -0.00067675)
(0.176975 2.87014e-05 -0.000543045)
(0.1788 3.09495e-05 -0.000569303)
(0.176949 4.02254e-05 -0.000350358)
(0.178693 3.62804e-05 -0.000543555)
(0.176881 3.45306e-05 -0.000515032)
(0.178653 2.9464e-05 -0.000672261)
(0.176906 3.34315e-05 -0.000399335)
(0.178666 3.14221e-05 -0.000457847)
(0.176857 3.48111e-05 -0.000369661)
(0.1787 3.21818e-05 -0.000653826)
(0.176856 3.35387e-05 -0.000487562)
(0.178733 2.8379e-05 -0.000583839)
(0.176854 3.2103e-05 -0.000288883)
(0.178768 2.64173e-05 -0.000566702)
(0.176922 2.77303e-05 -0.000466628)
(0.178867 2.14262e-05 -0.000705133)
(0.177007 2.77756e-05 -0.000388611)
(0.17897 2.69732e-05 -0.000489888)
(0.17706 2.95856e-05 -0.000347604)
(0.179001 1.60155e-05 -0.000576946)
(0.177251 1.75603e-05 -0.000470225)
(0.179223 2.34702e-05 -0.000489943)
(0.17731 2.52737e-05 -0.000322268)
(0.17929 2.66237e-05 -0.000443976)
(0.177267 2.37544e-05 -0.000449245)
(0.1794 1.94234e-05 -0.000608403)
(0.177317 2.73232e-05 -0.000387901)
(0.179427 2.47617e-05 -0.000438812)
(0.177229 3.50395e-05 -0.000365072)
(0.179367 2.37467e-05 -0.000586779)
(0.17722 3.27627e-05 -0.000525262)
(0.179334 2.68209e-05 -0.000479882)
(0.177181 4.1324e-05 -0.000347323)
(0.17914 2.95134e-05 -0.000448962)
(0.17712 3.87207e-05 -0.0005262)
(0.292143 9.8373e-05 -0.00124103)
(0.288897 0.000131956 -0.000908312)
(0.291988 0.000114704 -0.000975498)
(0.288774 0.000125299 -0.00087308)
(0.291879 0.000107236 -0.00122803)
(0.288736 0.000116505 -0.00101079)
(0.291797 0.000106221 -0.00109451)
(0.288664 0.000128874 -0.000753281)
(0.291745 0.000114289 -0.00106781)
(0.288629 0.000125625 -0.00105261)
(0.291703 0.000108385 -0.00126842)
(0.288645 0.00011948 -0.000825147)
(0.291668 0.000112339 -0.00097451)
(0.288591 0.000118896 -0.000797727)
(0.291655 0.000109063 -0.00125435)
(0.288564 0.000115291 -0.000967941)
(0.291698 0.000100421 -0.0011009)
(0.288532 0.00010804 -0.000687882)
(0.291786 9.63864e-05 -0.00109644)
(0.288573 0.000103502 -0.00100919)
(0.291924 9.62113e-05 -0.00127337)
(0.288612 9.9883e-05 -0.000821867)
(0.292032 9.75781e-05 -0.00102276)
(0.288732 0.000102558 -0.000756822)
(0.292144 7.88324e-05 -0.00119619)
(0.288869 8.80797e-05 -0.000989502)
(0.292376 8.62933e-05 -0.00102974)
(0.289005 9.81247e-05 -0.000667483)
(0.292415 9.21188e-05 -0.00105654)
(0.28914 9.85537e-05 -0.000999079)
(0.292532 8.36703e-05 -0.00127762)
(0.289208 0.000103996 -0.000846311)
(0.292558 9.85912e-05 -0.000990646)
(0.289128 0.000115161 -0.000821926)
(0.29251 9.54482e-05 -0.00124848)
(0.289112 0.000116408 -0.000993897)
(0.292525 9.8863e-05 -0.00107709)
(0.289012 0.000133737 -0.000756773)
(0.292352 0.000100632 -0.00109978)
(0.288992 0.000129643 -0.00108321)
(0.399676 0.000240231 -0.00188874)
(0.395192 0.000299199 -0.00147266)
(0.399515 0.000256637 -0.00153906)
(0.39508 0.000298748 -0.0013932)
(0.39944 0.000248791 -0.00181405)
(0.395059 0.000285601 -0.0015849)
(0.399357 0.00025233 -0.00161488)
(0.394959 0.000290106 -0.00117623)
(0.399312 0.00025459 -0.00161104)
(0.394951 0.000285414 -0.00162087)
(0.399277 0.000247849 -0.00186663)
(0.394928 0.000284394 -0.00133781)
(0.399171 0.000260449 -0.00154462)
(0.394871 0.000284045 -0.00131669)
(0.399137 0.000257039 -0.00189598)
(0.394862 0.000272689 -0.00153581)
(0.39914 0.000244461 -0.00171875)
(0.394767 0.00026613 -0.00118324)
(0.399171 0.000235691 -0.00169577)
(0.394767 0.000250704 -0.00152869)
(0.399206 0.000228255 -0.00189697)
(0.394787 0.000247442 -0.00128689)
(0.399271 0.000230175 -0.00151994)
(0.394921 0.000251963 -0.0012412)
(0.399409 0.000219367 -0.00186891)
(0.395062 0.000235014 -0.00146529)
(0.399566 0.000221658 -0.00170861)
(0.39513 0.000240604 -0.00115166)
(0.399718 0.000227389 -0.00174698)
(0.39536 0.000254919 -0.00159016)
(0.399791 0.000227183 -0.00200179)
(0.395364 0.000258924 -0.00142297)
(0.399822 0.000241688 -0.00160063)
(0.395372 0.000269302 -0.00142434)
(0.399868 0.00023686 -0.00199909)
(0.39542 0.000273257 -0.00168108)
(0.399907 0.000237625 -0.00169836)
(0.395346 0.00029152 -0.00133329)
(0.399819 0.000243265 -0.00168022)
(0.395285 0.000297893 -0.00172231)
(0.500709 0.000448409 -0.0020639)
(0.495437 0.000521851 -0.00159701)
(0.500608 0.000455987 -0.00159621)
(0.495357 0.000520539 -0.00153797)
(0.500657 0.000450282 -0.00196862)
(0.495349 0.000508505 -0.00176189)
(0.500583 0.000458272 -0.00168958)
(0.495296 0.000523764 -0.00130227)
(0.500553 0.000459333 -0.00165279)
(0.49528 0.000513779 -0.0017351)
(0.500575 0.000450344 -0.00201412)
(0.495159 0.000510398 -0.00152052)
(0.500465 0.000461709 -0.00171164)
(0.495052 0.000511662 -0.00149167)
(0.500463 0.000461119 -0.00203382)
(0.495101 0.000498386 -0.00183301)
(0.50045 0.000447746 -0.00175392)
(0.495086 0.000485278 -0.00129287)
(0.500388 0.000434856 -0.00176473)
(0.495024 0.000469696 -0.00167226)
(0.500404 0.000431642 -0.00203771)
(0.494952 0.000465315 -0.00141514)
(0.500431 0.000441801 -0.00166373)
(0.495056 0.000465782 -0.00133927)
(0.50049 0.000428684 -0.00197499)
(0.495162 0.000462623 -0.00166814)
(0.500512 0.000434608 -0.00183331)
(0.495188 0.000462783 -0.00129532)
(0.50059 0.000433601 -0.0018327)
(0.495338 0.000486378 -0.00175626)
(0.500769 0.000440682 -0.0021277)
(0.495432 0.000496576 -0.00151979)
(0.500733 0.000447617 -0.00182568)
(0.495437 0.000503591 -0.00147615)
(0.500723 0.000437747 -0.00215503)
(0.495543 0.00050728 -0.00181942)
(0.500781 0.000436846 -0.0019177)
(0.495461 0.00051432 -0.00147608)
(0.500779 0.00044378 -0.00185617)
(0.495474 0.000527516 -0.00188553)
(0.59534 0.000655364 -0.00143641)
(0.589651 0.0007285 -0.000824954)
(0.595402 0.000655529 -0.000892242)
(0.589668 0.000725121 -0.000761143)
(0.595364 0.000640094 -0.00122839)
(0.589643 0.000721194 -0.000998179)
(0.595376 0.000647032 -0.00103674)
(0.589586 0.000729181 -0.000630484)
(0.595513 0.000646078 -0.00104178)
(0.589667 0.000735469 -0.00117388)
(0.595527 0.000645724 -0.00133334)
(0.58959 0.000726964 -0.000928981)
(0.595329 0.000657228 -0.00105172)
(0.589442 0.000729781 -0.00091694)
(0.595317 0.000654168 -0.0014596)
(0.589469 0.000714919 -0.00124941)
(0.595235 0.000646218 -0.00117763)
(0.589333 0.000689917 -0.000881437)
(0.59516 0.000636624 -0.00106262)
(0.589187 0.000678067 -0.00112309)
(0.595167 0.000635842 -0.00129544)
(0.589318 0.000683126 -0.00086577)
(0.595145 0.000643639 -0.000964954)
(0.589393 0.000681982 -0.000909619)
(0.59521 0.000639888 -0.00138696)
(0.589422 0.000688293 -0.00116479)
(0.595167 0.000648002 -0.00120919)
(0.589491 0.000684883 -0.000695821)
(0.595157 0.000651603 -0.00119697)
(0.589637 0.000698833 -0.00109118)
(0.595281 0.000661254 -0.00155055)
(0.589603 0.000712558 -0.000808309)
(0.595381 0.000651306 -0.00105368)
(0.589629 0.000719265 -0.000783945)
(0.59536 0.000636565 -0.00146663)
(0.589734 0.000715709 -0.00109847)
(0.595447 0.000645156 -0.00123379)
(0.589619 0.000738435 -0.0007216)
(0.59541 0.000643731 -0.00122738)
(0.589689 0.000733143 -0.00114078)
(0.68361 0.000744832 4.74679e-05)
(0.677787 0.00082914 0.000372107)
(0.683511 0.0007376 0.000347847)
(0.677778 0.000827656 0.000395541)
(0.683601 0.000726744 -6.44851e-05)
(0.677829 0.000829889 0.000131836)
(0.683628 0.000731817 0.000189783)
(0.677837 0.000811956 0.000578812)
(0.683664 0.000717552 0.00021591)
(0.677884 0.000821651 0.000200511)
(0.683664 0.000727469 -2.20977e-05)
(0.677802 0.000813731 0.000396444)
(0.683595 0.000733092 0.000327271)
(0.67785 0.000810941 0.000397167)
(0.6836 0.000748481 -1.09702e-05)
(0.677778 0.000804096 0.000191764)
(0.68365 0.000748784 0.00017486)
(0.677623 0.000785326 0.000463953)
(0.683519 0.000749267 0.000219935)
(0.677602 0.000773398 0.000121058)
(0.683541 0.000737739 -6.04632e-05)
(0.677637 0.000784951 0.000356976)
(0.683594 0.00073567 0.000284606)
(0.67762 0.00078445 0.000342351)
(0.683626 0.000754579 -9.35415e-05)
(0.677676 0.000791252 5.89349e-05)
(0.6836 0.000756789 0.000119928)
(0.677668 0.000787982 0.000527557)
(0.683608 0.000760555 0.000183212)
(0.677747 0.000794863 9.18262e-05)
(0.683655 0.000769238 9.58014e-07)
(0.677656 0.000799257 0.000273053)
(0.683566 0.00074815 0.000366549)
(0.677614 0.000800044 0.000303574)
(0.683677 0.000740528 2.13666e-05)
(0.67762 0.000802599 5.90815e-05)
(0.683592 0.000743693 0.000214399)
(0.677687 0.000830119 0.000549515)
(0.683586 0.000744652 0.000252606)
(0.677755 0.000831985 0.000148117)
(0.76468 0.000673628 0.00153221)
(0.759365 0.000769924 0.00175094)
(0.764613 0.00066773 0.00174913)
(0.759336 0.000761984 0.00173677)
(0.7647 0.000669156 0.00136345)
(0.759387 0.000775313 0.00153384)
(0.764722 0.000679258 0.00150603)
(0.759337 0.000760226 0.00179052)
(0.764705 0.000666535 0.00155839)
(0.759314 0.000749745 0.00158827)
(0.76478 0.000682126 0.00136307)
(0.759329 0.000744884 0.00180139)
(0.764753 0.000684301 0.00157933)
(0.759275 0.00073794 0.00185799)
(0.764772 0.000687039 0.00131325)
(0.759391 0.000731879 0.00162071)
(0.764878 0.000696326 0.00150379)
(0.759254 0.000730288 0.00184026)
(0.764823 0.000687795 0.00154231)
(0.759361 0.000719813 0.00145611)
(0.764801 0.000689633 0.00137906)
(0.759285 0.00072267 0.00156952)
(0.764776 0.000679819 0.00167628)
(0.759229 0.000723497 0.00156978)
(0.764838 0.000701114 0.00135071)
(0.759203 0.000746371 0.00144962)
(0.764853 0.000701008 0.00153891)
(0.759183 0.000754488 0.00179485)
(0.764725 0.000701402 0.00160247)
(0.759204 0.000750488 0.00161005)
(0.764651 0.000717735 0.00151762)
(0.759179 0.000757438 0.00173771)
(0.764621 0.000704544 0.00179123)
(0.759247 0.000755232 0.00178538)
(0.764642 0.000695337 0.00155165)
(0.759232 0.000768088 0.00170033)
(0.764708 0.000684676 0.00170442)
(0.759221 0.000767716 0.00194064)
(0.764683 0.000676584 0.00170794)
(0.759324 0.000772555 0.00160695)
(0.837136 0.000512362 0.0022517)
(0.832489 0.000597736 0.00236143)
(0.83707 0.000504386 0.00233638)
(0.832426 0.000587912 0.00234462)
(0.837107 0.000506516 0.00212443)
(0.832448 0.000602113 0.00221342)
(0.837138 0.000525523 0.00220947)
(0.832425 0.000587471 0.00240246)
(0.837173 0.000509908 0.00221469)
(0.832436 0.000565188 0.00218554)
(0.837216 0.000524035 0.00208515)
(0.832429 0.000571922 0.00228245)
(0.837253 0.000528508 0.00232801)
(0.832435 0.000566049 0.00226876)
(0.837292 0.000525293 0.00212815)
(0.832456 0.000563747 0.00211522)
(0.837252 0.000537128 0.00223495)
(0.832448 0.000571419 0.00234144)
(0.837229 0.000521389 0.00228814)
(0.832479 0.000566946 0.00216599)
(0.837196 0.000522318 0.00219663)
(0.832461 0.000565238 0.00223182)
(0.837113 0.000513423 0.00232529)
(0.832409 0.0005666 0.0022251)
(0.837141 0.00054049 0.00209919)
(0.832398 0.000594763 0.00214386)
(0.837124 0.000543499 0.00219271)
(0.832388 0.000606482 0.00232382)
(0.837113 0.000550833 0.0022355)
(0.832416 0.000603223 0.00216861)
(0.83711 0.000570876 0.00215525)
(0.832428 0.00061811 0.00228585)
(0.837095 0.000548982 0.00237086)
(0.83248 0.0006093 0.00231811)
(0.837132 0.000535421 0.00218924)
(0.832512 0.000612141 0.00221989)
(0.837144 0.000519014 0.00232913)
(0.832496 0.000606985 0.00240902)
(0.837132 0.000509341 0.00237124)
(0.832481 0.000599705 0.00227898)
(0.898175 0.000356174 0.00190296)
(0.894417 0.000438807 0.00192803)
(0.898168 0.000344429 0.00200169)
(0.894381 0.000426343 0.00192791)
(0.898185 0.000350489 0.00190421)
(0.894397 0.00043031 0.00184706)
(0.898177 0.000368705 0.00195291)
(0.894383 0.000414485 0.00195218)
(0.898181 0.000350312 0.0019615)
(0.894358 0.00039319 0.0018653)
(0.898209 0.000357332 0.001868)
(0.894358 0.000399805 0.00188407)
(0.898196 0.000359805 0.00194336)
(0.894345 0.000396243 0.00188852)
(0.898195 0.000363425 0.00185671)
(0.894366 0.000406714 0.00182662)
(0.898196 0.000372525 0.00191588)
(0.894384 0.000413407 0.00196062)
(0.898184 0.000363333 0.00193761)
(0.894408 0.00041001 0.00185989)
(0.898185 0.000364918 0.00187231)
(0.894405 0.000416925 0.00191505)
(0.898118 0.000368193 0.00190194)
(0.894379 0.000421917 0.00192535)
(0.898102 0.000388551 0.00181007)
(0.8944 0.000442825 0.00184538)
(0.898113 0.000390035 0.00184939)
(0.894361 0.000450545 0.00191217)
(0.89812 0.000393887 0.00186436)
(0.89438 0.000456497 0.00181352)
(0.898114 0.000406535 0.0018186)
(0.894383 0.000469692 0.00186397)
(0.898108 0.000394341 0.00191812)
(0.894395 0.000460657 0.00188505)
(0.898115 0.000384997 0.0018514)
(0.894434 0.000464313 0.00182073)
(0.898142 0.000369812 0.00192041)
(0.894439 0.000453079 0.00194874)
(0.898174 0.000358257 0.00195213)
(0.894429 0.000444203 0.00187637)
(0.945899 0.000273067 0.00124)
(0.943148 0.000348733 0.00120273)
(0.945889 0.000269064 0.00128386)
(0.943135 0.000340816 0.00121686)
(0.945887 0.00026388 0.00125471)
(0.943143 0.000338925 0.0011946)
(0.945888 0.00027733 0.00128706)
(0.94313 0.000330947 0.00123083)
(0.945876 0.000262299 0.00129578)
(0.943116 0.000312899 0.00120475)
(0.945872 0.00025881 0.00125229)
(0.943115 0.000318906 0.00121592)
(0.945853 0.000263098 0.00127873)
(0.943109 0.000320047 0.00121521)
(0.945846 0.000262599 0.00123679)
(0.943119 0.000326694 0.00118936)
(0.945851 0.000266832 0.00125937)
(0.943126 0.000335217 0.00123191)
(0.945846 0.000263117 0.00127143)
(0.943129 0.00032619 0.00119784)
(0.945841 0.000267329 0.0012396)
(0.943122 0.000333182 0.00120409)
(0.945824 0.000277934 0.00127075)
(0.943111 0.000338092 0.00120793)
(0.945832 0.000291057 0.00122615)
(0.943121 0.000353961 0.00117577)
(0.945839 0.000294766 0.00124701)
(0.943128 0.000357557 0.00121997)
(0.945826 0.000295883 0.0012533)
(0.943129 0.000360039 0.00118168)
(0.945834 0.000301078 0.00121621)
(0.943129 0.000373173 0.00118695)
(0.945836 0.000295603 0.00126378)
(0.943137 0.000366215 0.00119256)
(0.945846 0.000290967 0.00122851)
(0.943141 0.000370946 0.00116949)
(0.945871 0.000286038 0.00125736)
(0.943145 0.000362341 0.00121441)
(0.945881 0.000276681 0.00127162)
(0.943149 0.000354418 0.00117882)
(0.980642 0.000239693 0.000774883)
(0.978792 0.000311175 0.000712855)
(0.98064 0.000238089 0.000789641)
(0.978792 0.000302564 0.000720328)
(0.980637 0.000233653 0.000784775)
(0.978792 0.000301225 0.000719936)
(0.980632 0.00024308 0.000796112)
(0.978791 0.000299003 0.000737189)
(0.980626 0.000233016 0.000802213)
(0.97879 0.000284589 0.000725443)
(0.980618 0.000227924 0.000789288)
(0.978784 0.00028795 0.000730892)
(0.980608 0.000229025 0.000799249)
(0.978776 0.000287486 0.000732599)
(0.980605 0.000230528 0.000784951)
(0.978778 0.000292815 0.000719494)
(0.980602 0.000235319 0.000786304)
(0.978778 0.000301066 0.00072585)
(0.9806 0.000234936 0.00078748)
(0.978778 0.000297555 0.000711779)
(0.9806 0.000237272 0.000770202)
(0.978771 0.000303905 0.000711606)
(0.980594 0.000246294 0.000781962)
(0.978767 0.000307983 0.000719639)
(0.980598 0.000254395 0.000775189)
(0.978776 0.000321158 0.000712662)
(0.98061 0.00025832 0.000781723)
(0.978782 0.00032073 0.000727436)
(0.980612 0.000257022 0.000786109)
(0.978783 0.000320641 0.000715888)
(0.980614 0.0002588 0.000773253)
(0.978785 0.000330103 0.000719115)
(0.980615 0.000258396 0.000787447)
(0.978787 0.000325923 0.000724883)
(0.980619 0.000253608 0.000780973)
(0.978791 0.000326321 0.000711216)
(0.980631 0.000248201 0.000785315)
(0.978793 0.000319494 0.000720743)
(0.980637 0.000241971 0.00078715)
(0.978793 0.000313812 0.00071107)
(1.00431 0.000230367 0.000505197)
(1.00317 0.0002954 0.000434754)
(1.00431 0.000229041 0.000506729)
(1.00318 0.000290707 0.000437137)
(1.00431 0.000226506 0.000506239)
(1.00318 0.00028901 0.000437706)
(1.00431 0.000232147 0.000509972)
(1.00318 0.000289514 0.000445146)
(1.00431 0.000226127 0.000513972)
(1.00318 0.000279567 0.000444068)
(1.00431 0.000220421 0.000509882)
(1.00317 0.000281155 0.000444296)
(1.0043 0.000222552 0.000513601)
(1.00317 0.000283262 0.000445686)
(1.0043 0.00022289 0.000510162)
(1.00317 0.00028609 0.000438788)
(1.0043 0.000225981 0.000506953)
(1.00317 0.000289804 0.00043822)
(1.0043 0.00022647 0.000505674)
(1.00317 0.000285344 0.00043256)
(1.0043 0.000226061 0.000498691)
(1.00316 0.000288667 0.00042996)
(1.00429 0.00023261 0.000500855)
(1.00316 0.000293595 0.000435764)
(1.00429 0.000238832 0.000503275)
(1.00317 0.000303411 0.00043587)
(1.0043 0.000241855 0.000504041)
(1.00317 0.000302431 0.000440758)
(1.0043 0.000239839 0.000507486)
(1.00317 0.000303479 0.000439725)
(1.0043 0.000241364 0.000505099)
(1.00317 0.000310547 0.000440898)
(1.0043 0.000242509 0.000511457)
(1.00317 0.000307326 0.000445551)
(1.0043 0.000238602 0.000510926)
(1.00317 0.000306245 0.000441128)
(1.00431 0.000235621 0.000509992)
(1.00317 0.000302172 0.000440994)
(1.00431 0.00023193 0.000510238)
(1.00317 0.000297609 0.000436816)
(1.01929 0.000208022 0.00034536)
(1.01865 0.000265392 0.000277115)
(1.01929 0.000206899 0.0003441)
(1.01865 0.000261903 0.000278249)
(1.01929 0.000204588 0.000344475)
(1.01865 0.000260108 0.00027897)
(1.01929 0.000208014 0.000345361)
(1.01866 0.000262202 0.000282004)
(1.01929 0.000205595 0.000347976)
(1.01866 0.000255378 0.000282521)
(1.01929 0.0002002 0.000346415)
(1.01865 0.000256094 0.000281479)
(1.01929 0.000202437 0.000347238)
(1.01865 0.000257605 0.000282608)
(1.01929 0.000202237 0.000346444)
(1.01866 0.00025927 0.000278856)
(1.01929 0.000204128 0.000342379)
(1.01866 0.000261801 0.000276342)
(1.01929 0.000205567 0.000340836)
(1.01866 0.000259683 0.000274043)
(1.01928 0.000204837 0.000336954)
(1.01866 0.000261928 0.000271466)
(1.01928 0.000209908 0.000337229)
(1.01865 0.000267703 0.000275702)
(1.01928 0.000214299 0.000340833)
(1.01866 0.000274235 0.000277604)
(1.01929 0.000216506 0.00034083)
(1.01866 0.000273954 0.000279237)
(1.01929 0.000214428 0.00034342)
(1.01866 0.000274441 0.000280279)
(1.01929 0.000215476 0.000343495)
(1.01866 0.000277875 0.00028009)
(1.01929 0.000217181 0.000346654)
(1.01866 0.000275822 0.000283801)
(1.01929 0.000214261 0.000348981)
(1.01866 0.000274237 0.000282487)
(1.01929 0.000212717 0.000347594)
(1.01865 0.000271202 0.000281098)
(1.01929 0.000209387 0.000348058)
(1.01865 0.000267539 0.000280032)
(1.02789 0.000169468 0.00024447)
(1.02758 0.000218798 0.000185325)
(1.02789 0.000168682 0.000242564)
(1.02758 0.000216819 0.000185556)
(1.02789 0.000166895 0.000243686)
(1.02758 0.000215457 0.000187095)
(1.02789 0.000168972 0.000244018)
(1.02758 0.000217556 0.000187767)
(1.02789 0.00016847 0.000245261)
(1.02758 0.000213103 0.00018878)
(1.02789 0.000163928 0.000245165)
(1.02758 0.00021261 0.000187535)
(1.02789 0.000165563 0.000244271)
(1.02758 0.000214909 0.000187497)
(1.02789 0.000165915 0.000244107)
(1.02758 0.000215565 0.000185827)
(1.02789 0.000167327 0.000240707)
(1.02758 0.000217664 0.00018254)
(1.02789 0.000169208 0.000238643)
(1.02758 0.000216914 0.000181654)
(1.02789 0.000168305 0.000237019)
(1.02758 0.00021799 0.000179465)
(1.02789 0.000171937 0.000235767)
(1.02758 0.00022305 0.000181456)
(1.02789 0.000175077 0.000239075)
(1.02758 0.000226839 0.000184369)
(1.02789 0.000176582 0.000239522)
(1.02758 0.000227292 0.000184503)
(1.02789 0.000174996 0.000241146)
(1.02758 0.000226576 0.00018625)
(1.02789 0.000175069 0.000242625)
(1.02758 0.000227686 0.000185951)
(1.02789 0.000176843 0.000243579)
(1.02758 0.000226903 0.000187901)
(1.02789 0.000175186 0.000246169)
(1.02758 0.000225156 0.000188407)
(1.02789 0.00017368 0.000245304)
(1.02758 0.000223568 0.000186655)
(1.02789 0.000171354 0.00024501)
(1.02758 0.000220825 0.000187001)
(1.03225 0.000125413 0.000174559)
(1.03211 0.000165977 0.000127341)
(1.03224 0.000124592 0.000173011)
(1.03211 0.000164974 0.000126159)
(1.03224 0.000123603 0.000173296)
(1.03211 0.00016388 0.000128365)
(1.03224 0.000124401 0.000174533)
(1.03211 0.000164779 0.000128403)
(1.03224 0.000124775 0.000174197)
(1.03211 0.000162449 0.00012874)
(1.03224 0.000121423 0.000175171)
(1.03211 0.000161541 0.000128819)
(1.03224 0.000122235 0.000173885)
(1.03211 0.000164091 0.000127341)
(1.03224 0.000123046 0.000173267)
(1.03211 0.0001647 0.000127212)
(1.03224 0.00012386 0.000172071)
(1.03211 0.000166058 0.000124506)
(1.03224 0.000125567 0.000169283)
(1.03211 0.000165968 0.00012331)
(1.03224 0.000125076 0.000169057)
(1.03211 0.000166251 0.000122709)
(1.03224 0.000127553 0.00016749)
(1.03211 0.000170394 0.000122433)
(1.03224 0.000130501 0.000169093)
(1.03211 0.000173245 0.000125523)
(1.03224 0.000131228 0.00017086)
(1.03211 0.000173342 0.000125517)
(1.03224 0.000130134 0.000170904)
(1.03211 0.000172179 0.000126456)
(1.03224 0.000130092 0.000173273)
(1.03211 0.000172244 0.000127442)
(1.03224 0.000131664 0.000173528)
(1.03211 0.000172173 0.000127369)
(1.03225 0.000130846 0.000174774)
(1.03211 0.00017068 0.000128898)
(1.03225 0.000129044 0.000175331)
(1.03211 0.000169676 0.00012736)
(1.03225 0.000127321 0.000173698)
(1.03211 0.000167738 0.000127242)
(1.03413 8.2759e-05 0.00012203)
(1.03408 0.000115168 8.7429e-05)
(1.03413 8.18527e-05 0.00012171)
(1.03408 0.000114427 8.60913e-05)
(1.03413 8.12443e-05 0.000120751)
(1.03408 0.000113637 8.76408e-05)
(1.03412 8.15969e-05 0.0001226)
(1.03408 0.000113748 8.82503e-05)
(1.03412 8.2287e-05 0.000121831)
(1.03408 0.00011282 8.75673e-05)
(1.03412 8.02286e-05 0.000122592)
(1.03408 0.000112109 8.84951e-05)
(1.03412 8.03545e-05 0.00012212)
(1.03408 0.000114069 8.67234e-05)
(1.03412 8.12674e-05 0.000120754)
(1.03408 0.000114823 8.66082e-05)
(1.03412 8.18331e-05 0.000121034)
(1.03408 0.000115517 8.54362e-05)
(1.03412 8.31126e-05 0.000118553)
(1.03408 0.000115706 8.35685e-05)
(1.03412 8.32606e-05 0.000118279)
(1.03408 0.000115862 8.40811e-05)
(1.03412 8.48841e-05 0.000117663)
(1.03408 0.000118938 8.30785e-05)
(1.03412 8.74424e-05 0.000117464)
(1.03408 0.000121331 8.50425e-05)
(1.03413 8.75744e-05 0.000119797)
(1.03408 0.000120993 8.58847e-05)
(1.03413 8.66909e-05 0.000119451)
(1.03408 0.000119784 8.57023e-05)
(1.03413 8.67447e-05 0.000121215)
(1.03408 0.000119281 8.74665e-05)
(1.03413 8.7859e-05 0.000121967)
(1.03408 0.000119446 8.67974e-05)
(1.03413 8.74091e-05 0.000121772)
(1.03408 0.000118528 8.78384e-05)
(1.03413 8.55922e-05 0.00012318)
(1.03408 0.000117795 8.74512e-05)
(1.03413 8.41124e-05 0.000121425)
(1.03408 0.000116611 8.63109e-05)
(1.0348 4.65838e-05 8.10915e-05)
(1.03478 7.19796e-05 5.73615e-05)
(1.0348 4.58548e-05 8.13892e-05)
(1.03478 7.13003e-05 5.6615e-05)
(1.0348 4.53732e-05 8.01678e-05)
(1.03478 7.05573e-05 5.72422e-05)
(1.0348 4.56495e-05 8.15915e-05)
(1.03478 7.03373e-05 5.81165e-05)
(1.0348 4.63215e-05 8.12231e-05)
(1.03478 7.01693e-05 5.72051e-05)
(1.0348 4.52348e-05 8.13941e-05)
(1.03478 6.98462e-05 5.79609e-05)
(1.0348 4.48768e-05 8.14701e-05)
(1.03478 7.11864e-05 5.66932e-05)
(1.0348 4.56447e-05 8.00954e-05)
(1.03478 7.20355e-05 5.62172e-05)
(1.0348 4.62829e-05 8.05478e-05)
(1.03478 7.23904e-05 5.6029e-05)
(1.0348 4.73417e-05 7.90406e-05)
(1.03478 7.25659e-05 5.43865e-05)
(1.0348 4.79017e-05 7.8459e-05)
(1.03478 7.27121e-05 5.49926e-05)
(1.0348 4.89278e-05 7.84931e-05)
(1.03478 7.48717e-05 5.42958e-05)
(1.0348 5.0644e-05 7.77512e-05)
(1.03478 7.6686e-05 5.51276e-05)
(1.0348 5.05877e-05 7.95699e-05)
(1.03478 7.63567e-05 5.6315e-05)
(1.0348 4.99756e-05 7.95852e-05)
(1.03478 7.5194e-05 5.5872e-05)
(1.0348 4.99539e-05 8.04724e-05)
(1.03478 7.44265e-05 5.7337e-05)
(1.0348 5.06164e-05 8.14576e-05)
(1.03478 7.45704e-05 5.69913e-05)
(1.0348 5.04412e-05 8.09266e-05)
(1.03478 7.43144e-05 5.73362e-05)
(1.0348 4.88515e-05 8.21263e-05)
(1.03478 7.38793e-05 5.76584e-05)
(1.0348 4.75733e-05 8.10637e-05)
(1.03478 7.31364e-05 5.63859e-05)
(1.03499 2.0893e-05 5.02767e-05)
(1.03499 4.01455e-05 3.48803e-05)
(1.03499 2.03198e-05 5.05348e-05)
(1.03499 3.9515e-05 3.4653e-05)
(1.03499 1.99663e-05 4.97294e-05)
(1.03499 3.8785e-05 3.49273e-05)
(1.03499 2.02492e-05 5.05229e-05)
(1.03499 3.8442e-05 3.5565e-05)
(1.03499 2.0856e-05 5.04878e-05)
(1.03499 3.85544e-05 3.49526e-05)
(1.03499 2.02269e-05 5.04315e-05)
(1.03499 3.85793e-05 3.52436e-05)
(1.03499 1.96681e-05 5.05328e-05)
(1.03499 3.94795e-05 3.44337e-05)
(1.03499 2.02385e-05 4.96262e-05)
(1.03499 4.02844e-05 3.3926e-05)
(1.03499 2.09291e-05 4.97816e-05)
(1.03499 4.055e-05 3.39518e-05)
(1.03499 2.18868e-05 4.89558e-05)
(1.03499 4.0593e-05 3.29473e-05)
(1.03499 2.25659e-05 4.83837e-05)
(1.03499 4.07702e-05 3.32461e-05)
(1.03499 2.32677e-05 4.84677e-05)
(1.03499 4.22349e-05 3.29026e-05)
(1.03499 2.42034e-05 4.79355e-05)
(1.03499 4.35446e-05 3.31916e-05)
(1.03499 2.41279e-05 4.89634e-05)
(1.03499 4.33833e-05 3.41252e-05)
(1.03499 2.37809e-05 4.92574e-05)
(1.03499 4.23466e-05 3.3958e-05)
(1.03499 2.36207e-05 4.97371e-05)
(1.03499 4.15293e-05 3.48404e-05)
(1.03499 2.40202e-05 5.04918e-05)
(1.03499 4.16873e-05 3.48008e-05)
(1.03499 2.39798e-05 5.02056e-05)
(1.03499 4.18644e-05 3.49133e-05)
(1.03499 2.27028e-05 5.09287e-05)
(1.03499 4.16593e-05 3.52785e-05)
(1.03499 2.16218e-05 5.04683e-05)
(1.03499 4.10912e-05 3.44237e-05)
(1.03504 5.21913e-06 2.88995e-05)
(1.03504 1.92495e-05 1.94297e-05)
(1.03504 4.81775e-06 2.89736e-05)
(1.03504 1.86315e-05 1.94253e-05)
(1.03504 4.58152e-06 2.85389e-05)
(1.03504 1.79493e-05 1.96411e-05)
(1.03504 4.89113e-06 2.88986e-05)
(1.03504 1.75523e-05 1.99362e-05)
(1.03504 5.24969e-06 2.89632e-05)
(1.03504 1.76631e-05 1.95981e-05)
(1.03504 4.72611e-06 2.89287e-05)
(1.03504 1.79441e-05 1.96029e-05)
(1.03504 4.2068e-06 2.89134e-05)
(1.03504 1.86161e-05 1.90373e-05)
(1.03504 4.56528e-06 2.83981e-05)
(1.03504 1.92652e-05 1.86682e-05)
(1.03504 5.27838e-06 2.83415e-05)
(1.03504 1.94544e-05 1.86571e-05)
(1.03504 6.16514e-06 2.78212e-05)
(1.03504 1.94216e-05 1.8155e-05)
(1.03504 6.84695e-06 2.73869e-05)
(1.03504 1.96304e-05 1.82245e-05)
(1.03504 7.34682e-06 2.73618e-05)
(1.03504 2.06132e-05 1.80035e-05)
(1.03504 7.77303e-06 2.70859e-05)
(1.03504 2.15977e-05 1.81307e-05)
(1.03504 7.73608e-06 2.76123e-05)
(1.03504 2.15629e-05 1.86976e-05)
(1.03504 7.53273e-06 2.79627e-05)
(1.03504 2.06713e-05 1.88093e-05)
(1.03504 7.35416e-06 2.83412e-05)
(1.03504 1.99045e-05 1.9333e-05)
(1.03504 7.6213e-06 2.87977e-05)
(1.03504 2.00524e-05 1.94013e-05)
(1.03504 7.56903e-06 2.8778e-05)
(1.03504 2.04342e-05 1.95216e-05)
(1.03504 6.62301e-06 2.92111e-05)
(1.03504 2.04603e-05 1.9763e-05)
(1.03504 5.72281e-06 2.90569e-05)
(1.03504 2.00228e-05 1.92874e-05)
(1.03505 -2.77396e-06 1.50298e-05)
(1.03505 7.03116e-06 9.48752e-06)
(1.03505 -2.99391e-06 1.49897e-05)
(1.03505 6.479e-06 9.56985e-06)
(1.03505 -3.10093e-06 1.47365e-05)
(1.03505 5.84715e-06 9.76052e-06)
(1.03505 -2.8402e-06 1.48926e-05)
(1.03505 5.40363e-06 9.86388e-06)
(1.03505 -2.73034e-06 1.49655e-05)
(1.03505 5.51484e-06 9.66365e-06)
(1.03505 -3.22967e-06 1.4983e-05)
(1.03505 5.95015e-06 9.56283e-06)
(1.03505 -3.66296e-06 1.49427e-05)
(1.03505 6.49038e-06 9.15675e-06)
(1.03505 -3.46323e-06 1.46682e-05)
(1.03505 6.94845e-06 8.90454e-06)
(1.03505 -2.77319e-06 1.44869e-05)
(1.03505 7.08754e-06 8.83841e-06)
(1.03505 -1.96497e-06 1.40799e-05)
(1.03505 7.03845e-06 8.62677e-06)
(1.03505 -1.34951e-06 1.37581e-05)
(1.03505 7.22056e-06 8.59171e-06)
(1.03505 -9.65138e-07 1.3686e-05)
(1.03505 7.90477e-06 8.39228e-06)
(1.03505 -7.812e-07 1.35663e-05)
(1.03505 8.62002e-06 8.43344e-06)
(1.03505 -7.92018e-07 1.3814e-05)
(1.03505 8.62589e-06 8.71967e-06)
(1.03505 -9.31684e-07 1.40847e-05)
(1.03505 7.89508e-06 8.94009e-06)
(1.03505 -1.07143e-06 1.44003e-05)
(1.03505 7.25456e-06 9.30272e-06)
(1.03505 -9.09521e-07 1.47094e-05)
(1.03505 7.32262e-06 9.41282e-06)
(1.03505 -1.03436e-06 1.48173e-05)
(1.03505 7.82262e-06 9.54227e-06)
(1.03505 -1.7022e-06 1.51107e-05)
(1.03505 8.08443e-06 9.69001e-06)
(1.03505 -2.38602e-06 1.50975e-05)
(1.03505 7.71304e-06 9.46338e-06)
(1.03505 -5.73342e-06 6.7518e-06)
(1.03505 7.98769e-07 3.65632e-06)
(1.03505 -5.79445e-06 6.69275e-06)
(1.03505 3.34237e-07 3.7942e-06)
(1.03505 -5.75978e-06 6.52225e-06)
(1.03505 -2.37514e-07 3.95848e-06)
(1.03505 -5.57533e-06 6.59911e-06)
(1.03505 -6.55003e-07 3.97576e-06)
(1.03505 -5.65121e-06 6.69666e-06)
(1.03505 -5.07344e-07 3.8331e-06)
(1.03505 -6.16974e-06 6.74233e-06)
(1.03505 -3.45837e-08 3.69134e-06)
(1.03505 -6.54872e-06 6.71817e-06)
(1.03505 3.58853e-07 3.37885e-06)
(1.03505 -6.42002e-06 6.53308e-06)