/*--------------------------------*- C++ -*----------------------------------*\
  =========                 |
  \\      /  F ield         | OpenFOAM: The Open Source CFD Toolbox
   \\    /   O peration     | Website:  https://openfoam.org
    \\  /    A nd           | Version:  10
     \\/     M anipulation  |
\*---------------------------------------------------------------------------*/
FoamFile
{
    format      ascii;
    class       volSymmTensorField;
    location    "40";
    object      UPrime2Mean;
}
// * * * * * * * * * * * * * * * * * * * * * * * * * * * * * * * * * * * * * //

dimensions      [0 2 -2 0 0 0 0];

internalField   nonuniform List<symmTensor> 
25600
(
(0.00452071 3.02531e-07 -5.86334e-06 1.28496e-09 1.30376e-08 2.77955e-06)
(0.00449171 -2.15104e-07 2.88135e-05 1.47718e-09 2.89736e-09 3.11674e-06)
(0.00446492 -5.40135e-07 4.70933e-05 1.29004e-09 -6.26172e-10 3.31663e-06)
(0.00446397 8.71735e-08 4.03301e-06 1.10373e-09 2.63016e-09 2.83731e-06)
(0.00449038 -1.95239e-07 -3.12405e-05 9.70415e-10 1.02085e-08 2.95605e-06)
(0.00449413 -2.78895e-07 -1.46569e-05 1.06546e-09 1.41183e-08 2.71466e-06)
(0.00447949 2.84099e-07 2.53106e-05 1.16051e-09 1.53983e-08 2.88707e-06)
(0.0044698 -1.77763e-07 4.06096e-05 1.20891e-09 1.27683e-08 3.04743e-06)
(0.00446494 3.64086e-08 7.15803e-06 1.00656e-09 1.14276e-08 2.8096e-06)
(0.0044788 -2.55003e-07 -2.69247e-05 1.07732e-09 1.08966e-08 3.0741e-06)
(0.0044862 -4.62838e-08 -1.17655e-05 9.07085e-10 7.87879e-09 3.00519e-06)
(0.004498 -1.1067e-07 3.97942e-05 8.31006e-10 9.22072e-09 3.68556e-06)
(0.00448024 3.73403e-07 5.12118e-05 7.79104e-10 2.19223e-08 3.78864e-06)
(0.00447844 -6.54549e-07 1.50185e-05 1.07916e-09 1.42846e-08 3.30817e-06)
(0.00451629 -4.23594e-07 -2.91711e-05 1.02265e-09 1.30322e-08 3.41437e-06)
(0.0044952 4.74972e-08 -1.37434e-05 8.65157e-10 1.06455e-08 3.22171e-06)
(0.00449138 1.20385e-07 2.42177e-05 8.19484e-10 1.444e-08 3.19804e-06)
(0.00447096 -1.57408e-07 5.34792e-05 8.49238e-10 1.60816e-08 3.49443e-06)
(0.00450638 -4.02817e-07 -1.33919e-06 8.93831e-10 1.55541e-08 3.13495e-06)
(0.0045106 -4.11271e-07 -2.45816e-05 1.04474e-09 1.81617e-08 3.45936e-06)
(0.00452565 1.64495e-07 -2.02783e-05 1.0975e-09 1.10611e-08 3.22231e-06)
(0.00450228 5.65127e-07 3.56626e-05 1.14016e-09 2.49802e-08 3.15097e-06)
(0.00451339 1.06557e-07 4.88119e-05 1.1482e-09 2.32888e-08 3.2352e-06)
(0.00449701 -4.79199e-07 1.22435e-05 1.18824e-09 1.841e-08 3.25601e-06)
(0.00452285 -1.07282e-06 -2.64983e-05 1.61008e-09 1.70023e-08 3.59383e-06)
(0.00457046 8.52159e-08 -1.05536e-05 1.30152e-09 1.04898e-08 3.12774e-06)
(0.00451608 -2.281e-07 3.8949e-05 1.35416e-09 6.7262e-09 3.01873e-06)
(0.00452164 -3.77032e-07 4.05187e-05 1.21193e-09 1.08233e-08 2.85784e-06)
(0.00449691 -3.80546e-07 1.72925e-05 1.19205e-09 6.0058e-09 2.87014e-06)
(0.00449791 -2.47341e-07 -1.77946e-05 1.23625e-09 7.70957e-09 3.08021e-06)
(0.00453399 -1.1493e-06 -1.15832e-05 1.2136e-09 1.74909e-08 2.99275e-06)
(0.00452177 4.05341e-07 4.83189e-05 1.07435e-09 2.57133e-08 3.46119e-06)
(0.00453081 6.9819e-07 5.19804e-05 1.20214e-09 3.20034e-08 3.449e-06)
(0.00448071 -1.5747e-08 1.31884e-05 1.14534e-09 1.98437e-08 3.11398e-06)
(0.00452899 -3.52988e-07 -2.31334e-05 1.19395e-09 1.22066e-08 3.42893e-06)
(0.00450138 6.11655e-07 -1.42965e-05 1.33146e-09 3.35883e-09 3.28217e-06)
(0.00452795 -6.5897e-07 3.58112e-05 1.40444e-09 -5.3651e-09 3.45808e-06)
(0.00446371 -3.92803e-07 4.65093e-05 1.1482e-09 6.48869e-09 3.36568e-06)
(0.0045069 -9.72081e-07 8.72304e-06 1.36928e-09 1.69855e-08 3.08382e-06)
(0.00449814 -7.34217e-07 -3.08946e-05 1.40147e-09 2.30317e-08 3.11152e-06)
(0.0176644 -5.19763e-06 1.03897e-05 2.8071e-08 -1.07427e-07 1.94928e-05)
(0.01756 1.37546e-06 2.6884e-05 3.00238e-08 -7.15693e-08 2.06362e-05)
(0.0174685 3.05109e-06 0.00012267 3.04938e-08 -8.18942e-09 2.19549e-05)
(0.0174063 -1.18005e-06 3.71717e-05 2.56328e-08 2.47379e-09 2.07729e-05)
(0.0175281 -3.01833e-06 -7.3816e-05 2.72745e-08 -3.36538e-08 2.11484e-05)
(0.0174821 -5.74231e-06 -4.90775e-05 2.93551e-08 -3.75518e-08 1.91165e-05)
(0.0175899 -9.59674e-07 3.41903e-05 3.25966e-08 -7.41569e-08 2.15568e-05)
(0.0174382 2.40697e-06 0.000125502 3.02545e-08 -9.45623e-08 2.18868e-05)
(0.0174909 5.25572e-07 5.28758e-05 2.81738e-08 -1.05275e-07 2.10036e-05)
(0.0174324 -2.9868e-06 -3.40416e-05 2.88715e-08 -8.45612e-08 2.25274e-05)
(0.017505 -3.78479e-06 -5.58265e-05 2.78336e-08 -1.29648e-07 2.17591e-05)
(0.0175393 -2.59744e-06 7.79197e-05 2.81862e-08 -1.82736e-07 2.62568e-05)
(0.0175343 -2.64915e-06 0.000139853 2.65362e-08 -2.10427e-07 2.6083e-05)
(0.0175184 -2.30701e-06 8.95825e-05 2.55852e-08 -2.63292e-07 2.43108e-05)
(0.0176138 -1.71469e-06 -4.39168e-05 2.55855e-08 -2.92044e-07 2.4219e-05)
(0.0175422 -2.37951e-06 -1.46626e-05 2.38699e-08 -2.32679e-07 2.29732e-05)
(0.0176369 -4.02006e-06 3.01289e-05 2.46361e-08 -1.9701e-07 2.43594e-05)
(0.0175215 -2.75496e-06 0.000171475 2.58014e-08 -1.91939e-07 2.44408e-05)
(0.0176461 -5.04374e-06 3.68585e-05 2.77567e-08 -1.96378e-07 2.25745e-05)
(0.0176086 -5.2923e-06 8.27437e-06 2.84164e-08 -2.07409e-07 2.35584e-05)
(0.0177216 -7.65461e-06 -8.45772e-05 2.83435e-08 -1.34137e-07 2.18764e-05)
(0.0176676 -4.20297e-06 9.6813e-05 2.75442e-08 -1.37395e-07 2.22384e-05)
(0.0177675 -2.68432e-06 0.000106371 2.99873e-08 -1.18838e-07 1.99084e-05)
(0.0176577 -3.07049e-06 0.000121301 3.32229e-08 -1.4188e-07 2.01917e-05)
(0.0176974 -1.09673e-05 -3.89942e-07 4.14858e-08 -1.12441e-07 2.21678e-05)
(0.0178713 -9.02592e-06 -1.72676e-06 4.2074e-08 -1.82777e-07 1.97974e-05)
(0.0178201 -2.32914e-06 7.43476e-05 3.83304e-08 -1.91017e-07 1.93238e-05)
(0.0177962 -3.74479e-06 0.00012766 3.14829e-08 -2.26967e-07 1.8996e-05)
(0.0177489 -1.50674e-06 0.000103602 3.04268e-08 -1.76965e-07 1.93872e-05)
(0.0176558 -6.69041e-06 2.56419e-06 3.03301e-08 -7.94957e-08 2.13472e-05)
(0.017874 -7.10362e-06 -3.90476e-05 3.3565e-08 -1.3619e-07 1.95751e-05)
(0.0176926 -3.60007e-06 7.74144e-05 3.27667e-08 -1.71295e-07 2.06131e-05)
(0.0178698 -3.91241e-06 0.000117269 3.2358e-08 -2.23774e-07 2.17105e-05)
(0.0175261 4.68387e-08 9.61127e-05 2.7509e-08 -1.44911e-07 2.16964e-05)
(0.0178335 -5.94887e-06 -2.73586e-05 2.97536e-08 -1.0049e-07 2.47397e-05)
(0.0175385 -2.40072e-06 -4.02664e-05 2.77964e-08 -1.21518e-07 2.30913e-05)
(0.0178855 -3.42511e-06 7.91471e-05 2.97399e-08 -1.5836e-07 2.56081e-05)
(0.0174917 3.23453e-06 0.00012792 2.71106e-08 -8.4538e-08 2.32197e-05)
(0.0177087 -2.89573e-06 0.000100279 2.52167e-08 -1.28372e-07 2.11756e-05)
(0.0174624 6.19752e-07 -4.0683e-05 2.45369e-08 -9.74159e-08 2.0901e-05)
(0.0288447 -9.02135e-06 -0.000147043 1.20765e-07 -3.84022e-07 5.44958e-05)
(0.0285113 9.28651e-06 -1.17511e-05 1.16351e-07 -3.99856e-07 5.72008e-05)
(0.0287464 2.77002e-06 5.17698e-05 1.12906e-07 -5.95975e-07 5.37262e-05)
(0.0284208 4.95318e-06 7.30934e-06 9.98856e-08 -5.43529e-07 4.6679e-05)
(0.0286917 -1.53321e-06 -0.00014271 1.15946e-07 -6.01676e-07 4.76512e-05)
(0.0284355 -5.92494e-07 -0.000101169 1.14294e-07 -6.61601e-07 4.56707e-05)
(0.0286451 -2.13703e-06 -3.88759e-05 1.28725e-07 -7.86441e-07 5.37316e-05)
(0.0283929 8.22524e-06 9.79579e-05 1.20762e-07 -8.54956e-07 5.80786e-05)
(0.0286318 2.09766e-06 -1.03184e-05 1.18405e-07 -8.54048e-07 5.91284e-05)
(0.0284352 4.71739e-06 -0.000128978 1.13555e-07 -7.77113e-07 6.33417e-05)
(0.0286399 -2.92833e-06 -0.000164428 1.12936e-07 -6.63963e-07 5.64935e-05)
(0.0285611 4.03127e-07 4.41753e-05 1.0906e-07 -7.34427e-07 6.19092e-05)
(0.0286315 2.90892e-07 6.13069e-05 1.03644e-07 -6.87611e-07 6.11003e-05)
(0.0285677 7.46381e-08 6.59062e-05 1.01619e-07 -8.12595e-07 5.77823e-05)
(0.0286446 -1.9787e-06 -0.000157145 1.0041e-07 -8.11184e-07 5.97844e-05)
(0.0285932 -1.60974e-06 -6.8918e-05 1.01502e-07 -7.58054e-07 5.52541e-05)
(0.0287165 -7.36226e-06 -4.28057e-05 1.08038e-07 -8.41874e-07 6.16144e-05)
(0.0285807 -5.75243e-06 0.000151376 1.1627e-07 -9.82858e-07 6.30366e-05)
(0.0288317 -9.07145e-06 -3.37312e-05 1.31768e-07 -1.04406e-06 6.12398e-05)
(0.0286532 -7.60927e-06 -9.34942e-05 1.44128e-07 -1.29029e-06 6.27504e-05)
(0.0289805 -7.50546e-06 -0.000175322 1.3698e-07 -1.14672e-06 5.22663e-05)
(0.0286862 -9.10192e-06 4.6555e-05 1.31246e-07 -1.1082e-06 4.81683e-05)
(0.0290485 -5.13082e-06 1.60514e-05 1.35703e-07 -8.66351e-07 4.57555e-05)
(0.0288048 -5.84115e-06 0.000100052 1.4934e-07 -8.85543e-07 4.62458e-05)
(0.0290863 -1.74771e-05 -0.000118519 1.61709e-07 -6.4697e-07 5.34082e-05)
(0.0288995 -1.44871e-05 -7.48225e-05 1.52516e-07 -9.76175e-07 5.1679e-05)
(0.0292744 -8.66918e-06 6.94226e-06 1.40299e-07 -9.9292e-07 5.95419e-05)
(0.0289248 -6.11116e-06 0.000162442 1.2903e-07 -1.03049e-06 5.83093e-05)
(0.0291571 -4.75766e-06 -2.14905e-05 1.23807e-07 -9.9894e-07 5.49741e-05)
(0.0289561 -7.79272e-06 -8.8916e-05 1.1199e-07 -5.84524e-07 5.74116e-05)
(0.0292344 -1.24854e-05 -0.000188302 1.20474e-07 -5.20426e-07 5.34809e-05)
(0.0289444 -4.82257e-06 3.28944e-05 1.14401e-07 -4.76465e-07 5.72555e-05)
(0.0292267 -2.00559e-06 3.24065e-05 1.19762e-07 -5.8134e-07 5.9267e-05)
(0.0287323 1.89034e-06 6.12309e-05 9.79011e-08 -5.62227e-07 5.84079e-05)
(0.0291477 -5.54445e-06 -0.000156268 1.08584e-07 -5.64513e-07 6.18789e-05)
(0.0286667 7.26613e-07 -7.51788e-05 9.68324e-08 -5.24325e-07 5.53049e-05)
(0.0292218 -4.68942e-06 -3.53767e-05 1.16333e-07 -5.6982e-07 5.97316e-05)
(0.0285277 1.29696e-05 9.97232e-05 1.02366e-07 -4.47457e-07 6.10773e-05)
(0.0290404 -4.89599e-06 -4.57567e-05 1.05531e-07 -5.42414e-07 5.84449e-05)
(0.0285524 8.44913e-06 -0.000141117 9.90289e-08 -4.26365e-07 5.71112e-05)
(0.0340346 1.41474e-05 -0.000357902 4.27698e-07 4.74618e-07 0.000114926)
(0.0335403 4.24824e-05 -0.00020385 3.88676e-07 2.73151e-07 0.000112968)
(0.0338751 2.3984e-05 -0.000143221 3.77971e-07 4.04384e-09 0.000105409)
(0.0334412 4.28731e-05 -0.000169913 3.466e-07 1.7775e-07 9.41946e-05)
(0.033828 1.98265e-05 -0.000332453 3.86209e-07 1.9622e-07 0.000101881)
(0.0334785 3.52963e-05 -0.000293589 3.82043e-07 -3.18528e-07 0.000103783)
(0.0337709 2.17266e-05 -0.000189784 4.24778e-07 -6.27287e-07 0.000124994)
(0.0334209 3.7343e-05 -1.64163e-05 4.06659e-07 -9.16303e-07 0.000132936)
(0.0337555 2.1909e-05 -0.000185213 4.10037e-07 -5.46853e-07 0.000134415)
(0.03349 3.3314e-05 -0.000313875 4.15366e-07 2.24346e-07 0.00013451)
(0.0337584 1.6537e-05 -0.000359943 4.37779e-07 4.62723e-07 0.000115753)
(0.0335475 3.25283e-05 -0.000127147 3.95872e-07 3.07759e-07 0.00011481)
(0.033659 2.49606e-05 -0.000147156 3.7308e-07 2.35203e-07 0.000113598)
(0.0335567 3.23551e-05 -0.000116664 3.59396e-07 9.16027e-08 0.000110218)
(0.03365 2.31464e-05 -0.000385229 3.61822e-07 1.17942e-07 0.000118856)
(0.0336118 2.57266e-05 -0.000265079 3.74471e-07 2.19502e-07 0.000110282)
(0.0336858 1.6089e-05 -0.000265728 3.80946e-07 2.05112e-07 0.000120037)
(0.0335386 2.22353e-05 -2.36153e-05 3.96579e-07 -2.08232e-08 0.000123842)
(0.0337516 1.13995e-05 -0.000245269 4.18219e-07 -2.7008e-07 0.000121391)
(0.0335719 1.35042e-05 -0.000255097 4.17412e-07 -5.41762e-07 0.000117571)
(0.0337965 8.23436e-06 -0.000387067 4.08969e-07 -6.68041e-07 0.000104347)
(0.0335988 1.23541e-05 -0.000100662 4.21836e-07 -1.0688e-06 0.000100689)
(0.0338649 1.12098e-05 -0.00014098 4.20882e-07 -9.54856e-07 9.99849e-05)
(0.0337524 1.68866e-05 -6.57316e-05 4.48034e-07 -6.42829e-07 9.90678e-05)
(0.0340138 6.59101e-06 -0.000365441 4.40506e-07 -1.05647e-07 0.000109487)
(0.0338667 7.35441e-06 -0.000207892 4.53991e-07 -4.68621e-07 0.000103838)
(0.0341492 1.0163e-05 -0.000260172 4.36471e-07 -7.88214e-07 0.000115834)
(0.0338272 1.18647e-05 -3.57995e-06 4.53967e-07 -1.15081e-06 0.000122998)
(0.0342561 1.3986e-05 -0.000290203 4.33935e-07 -1.05844e-06 0.000121017)
(0.033995 2.03022e-05 -0.000296881 4.1829e-07 -6.83526e-07 0.000120502)
(0.034282 1.31646e-05 -0.000451492 4.15507e-07 -1.06643e-07 0.000115181)
(0.0338907 2.20372e-05 -0.000172553 4.16274e-07 1.03976e-07 0.000118974)
(0.0342714 2.17632e-05 -0.000176954 3.97674e-07 3.76797e-07 0.000125138)
(0.0338132 2.82748e-05 -0.000163538 3.66733e-07 4.52947e-07 0.000125467)
(0.0342791 1.77227e-05 -0.000439065 3.52938e-07 5.37514e-07 0.000135073)
(0.0338093 2.91671e-05 -0.000344829 3.44349e-07 5.43045e-07 0.000117969)
(0.0342923 1.63263e-05 -0.000248601 3.67802e-07 3.1423e-07 0.00012567)
(0.0336853 4.02368e-05 -0.000113352 3.51303e-07 2.81806e-09 0.00012251)
(0.034181 1.85031e-05 -0.000223295 3.8328e-07 1.11098e-07 0.000120187)
(0.0336246 4.3009e-05 -0.000358231 3.81604e-07 3.39733e-07 0.000124204)
(0.0330037 6.9925e-05 -0.000436376 1.45655e-06 3.16832e-06 0.000188721)
(0.0327639 9.8019e-05 -0.000274123 1.38145e-06 2.72972e-06 0.000186251)
(0.032876 7.30006e-05 -0.000193389 1.336e-06 2.29517e-06 0.000179133)
(0.0326694 9.79518e-05 -0.000261363 1.22603e-06 2.88933e-06 0.000166124)
(0.0329348 7.05657e-05 -0.000408924 1.27112e-06 3.25957e-06 0.000179424)
(0.0326939 9.19223e-05 -0.000378419 1.2701e-06 2.72137e-06 0.000180872)
(0.0328745 7.42412e-05 -0.000230918 1.35706e-06 2.17512e-06 0.000207515)
(0.0326704 9.90856e-05 -0.000105957 1.31824e-06 1.62817e-06 0.000209874)
(0.0328505 7.36049e-05 -0.000213379 1.36863e-06 1.5414e-06 0.000207667)
(0.0326814 9.27389e-05 -0.000369353 1.40595e-06 2.82989e-06 0.000205604)
(0.0328956 6.80363e-05 -0.000432078 1.45868e-06 3.14681e-06 0.000181123)
(0.0325928 9.06952e-05 -0.000250013 1.3447e-06 3.05649e-06 0.000172858)
(0.032801 7.44666e-05 -0.000262674 1.29142e-06 2.79862e-06 0.000170812)
(0.0325191 9.10044e-05 -0.000240965 1.23323e-06 2.96931e-06 0.000168413)
(0.0328311 7.46366e-05 -0.000454325 1.23188e-06 2.78337e-06 0.00018619)
(0.0326177 8.42698e-05 -0.000431518 1.27389e-06 2.89092e-06 0.000181823)
(0.032861 6.82355e-05 -0.000274534 1.31685e-06 2.78198e-06 0.000206781)
(0.0326451 7.74588e-05 -0.000106502 1.34896e-06 3.02469e-06 0.000200873)
(0.0328401 6.17871e-05 -0.000278459 1.35181e-06 2.15442e-06 0.000195088)
(0.0325959 6.92493e-05 -0.000332306 1.29083e-06 1.60553e-06 0.000191462)
(0.0328861 6.09973e-05 -0.000447174 1.22136e-06 1.21217e-06 0.000169789)
(0.0325157 6.73143e-05 -0.000194543 1.27783e-06 8.13206e-07 0.000159997)
(0.0329378 6.82994e-05 -0.000236507 1.27377e-06 8.93519e-07 0.000154056)
(0.0326344 6.92742e-05 -0.000144707 1.41876e-06 1.43068e-06 0.000152994)
(0.0330257 6.32476e-05 -0.000406654 1.38114e-06 2.01804e-06 0.000171195)
(0.0327326 6.8643e-05 -0.000321978 1.47504e-06 2.11799e-06 0.000172777)
(0.0330335 6.75537e-05 -0.000322188 1.3947e-06 1.84642e-06 0.000191973)
(0.0327029 6.92263e-05 -0.00011596 1.46109e-06 1.16836e-06 0.00019947)
(0.0330776 6.69124e-05 -0.000326625 1.36379e-06 1.06033e-06 0.000202869)
(0.0328084 8.20034e-05 -0.00037776 1.40983e-06 1.08838e-06 0.000212535)
(0.0332466 7.08029e-05 -0.000489886 1.35977e-06 2.08589e-06 0.000195333)
(0.0328698 8.79053e-05 -0.000230584 1.45803e-06 2.72724e-06 0.000189937)
(0.033175 7.44661e-05 -0.000303346 1.36385e-06 3.52491e-06 0.000189843)
(0.0328389 9.17004e-05 -0.000197212 1.37631e-06 4.00018e-06 0.000190358)
(0.0331094 6.82397e-05 -0.000499417 1.25275e-06 4.64587e-06 0.000201625)
(0.0329094 9.26962e-05 -0.000411816 1.2443e-06 3.96417e-06 0.000183985)
(0.0331123 6.63775e-05 -0.000379139 1.22063e-06 3.35654e-06 0.000191597)
(0.0327886 9.58555e-05 -0.000214072 1.28469e-06 2.8588e-06 0.000193228)
(0.0330849 6.93062e-05 -0.00032526 1.34805e-06 2.96399e-06 0.000194776)
(0.0328079 0.000102416 -0.000427829 1.41682e-06 3.04367e-06 0.00020041)
(0.0282056 0.000125142 -0.000288908 3.59337e-06 7.51386e-06 0.000237677)
(0.02822 0.000144482 -7.36289e-05 3.54123e-06 6.97953e-06 0.000243802)
(0.0282443 0.000124249 -3.98353e-05 3.38524e-06 6.88581e-06 0.000227002)
(0.0282213 0.000143503 -4.84866e-05 3.17896e-06 7.02504e-06 0.000212315)
(0.0282085 0.000117656 -0.000194545 3.16101e-06 7.04716e-06 0.000219959)
(0.0282061 0.000141868 -0.000154726 3.17129e-06 6.30939e-06 0.000223347)
(0.0282305 0.000118955 -9.70829e-05 3.33353e-06 4.66471e-06 0.000249621)
(0.028149 0.00014336 2.38573e-05 3.29919e-06 3.38744e-06 0.00026209)
(0.0283457 0.000116893 -0.000106555 3.47974e-06 2.80945e-06 0.00026224)
(0.0282141 0.000146502 -0.000251777 3.53834e-06 4.32322e-06 0.000259566)
(0.0283586 0.00011766 -0.000253462 3.61027e-06 5.6148e-06 0.000228463)
(0.0281551 0.00014329 -0.000131869 3.38957e-06 6.54968e-06 0.00022044)
(0.0281853 0.000123415 -0.000118417 3.20527e-06 6.66725e-06 0.000220398)
(0.0280283 0.000143596 -0.000128746 3.03295e-06 7.12618e-06 0.000218481)
(0.0281851 0.000121711 -0.000319822 3.00345e-06 6.93876e-06 0.00023372)
(0.0280672 0.000137112 -0.000290924 3.16252e-06 6.52751e-06 0.00021573)
(0.0281367 0.000119527 -0.000181693 3.33845e-06 6.83909e-06 0.000217138)
(0.0279641 0.000126474 -0.000103955 3.4157e-06 7.72517e-06 0.000218642)
(0.0281098 0.0001154 -0.000113361 3.27118e-06 6.47086e-06 0.000222851)
(0.0278415 0.000119946 -0.000209442 3.11522e-06 5.51739e-06 0.000226563)
(0.0281401 0.000114067 -0.000227665 2.88079e-06 3.78045e-06 0.000208254)
(0.0279603 0.000121802 -9.84619e-05 3.05086e-06 3.08636e-06 0.000207108)
(0.028133 0.00011865 -7.86274e-05 3.11279e-06 2.80096e-06 0.000206324)
(0.0280428 0.000122698 -0.000114262 3.58769e-06 3.66204e-06 0.000203728)
(0.0282208 0.00011898 -0.000262441 3.63624e-06 4.56411e-06 0.000219707)
(0.0280849 0.000126606 -0.000219249 3.9601e-06 5.22489e-06 0.000228762)
(0.0281832 0.000122985 -0.000172377 3.70805e-06 5.3843e-06 0.000251542)
(0.0281358 0.000125137 -5.06093e-06 3.7332e-06 5.46232e-06 0.000254855)
(0.0281476 0.00012499 -0.000182703 3.39439e-06 5.35108e-06 0.000252859)
(0.0282563 0.000131572 -0.000208199 3.58145e-06 5.0889e-06 0.000265716)
(0.0282469 0.000129891 -0.000344566 3.4362e-06 4.99464e-06 0.000254248)
(0.0282209 0.000138864 -5.06154e-05 3.76973e-06 5.61319e-06 0.000257694)
(0.0283316 0.00012555 -9.74735e-05 3.60847e-06 7.16559e-06 0.000240315)
(0.0282436 0.000142102 -4.02916e-05 3.76627e-06 8.31882e-06 0.00023647)
(0.0282798 0.000118297 -0.000307034 3.432e-06 9.98607e-06 0.000248314)
(0.0283232 0.000139731 -0.000208695 3.42252e-06 9.52426e-06 0.000235277)
(0.0283248 0.00012199 -0.000207799 3.16729e-06 9.34383e-06 0.000247129)
(0.0282041 0.000150451 -3.02523e-05 3.33501e-06 8.97642e-06 0.000251563)
(0.0282805 0.000121055 -0.000195143 3.36029e-06 8.50589e-06 0.000245415)
(0.0282746 0.000147504 -0.000218757 3.58179e-06 7.99365e-06 0.000244905)
(0.0220059 0.000133348 4.67402e-05 6.94122e-06 9.66015e-06 0.000229226)
(0.0220633 0.000151558 0.000116078 6.8314e-06 9.77303e-06 0.000223441)
(0.0219229 0.000130082 0.000153443 6.6019e-06 9.57328e-06 0.000220189)
(0.0220467 0.000152005 0.0001276 6.28133e-06 9.94465e-06 0.000217855)
(0.0220016 0.000126685 7.66164e-06 6.25411e-06 9.37705e-06 0.000235823)
(0.0220965 0.000152416 3.9108e-05 6.31112e-06 8.04456e-06 0.000238806)
(0.0220318 0.000125518 0.000115154 6.62477e-06 5.34052e-06 0.00026037)
(0.022093 0.000142016 0.000212263 6.70308e-06 3.47977e-06 0.000261496)
(0.0220427 0.000118356 0.00011464 7.02043e-06 3.58528e-06 0.000251885)
(0.0221121 0.000147505 5.25724e-05 6.97589e-06 5.25906e-06 0.000245131)
(0.0220358 0.000125466 1.63318e-05 7.01112e-06 6.74482e-06 0.000229717)
(0.0220576 0.000146716 0.000132392 6.52003e-06 7.60107e-06 0.000229081)
(0.0219874 0.000128084 0.000156828 6.16584e-06 7.40068e-06 0.000224165)
(0.0220941 0.000144345 0.000137694 5.8406e-06 8.28736e-06 0.000215951)
(0.0219835 0.000132736 2.37927e-05 5.87776e-06 8.41115e-06 0.000211914)
(0.0220383 0.000142025 4.81058e-05 6.22801e-06 9.04645e-06 0.000204511)
(0.0220283 0.000134721 8.28148e-05 6.55535e-06 9.87976e-06 0.000211602)
(0.0219321 0.000136702 0.000151102 6.71612e-06 1.11933e-05 0.000220923)
(0.0219464 0.000135452 0.000106994 6.3018e-06 1.10249e-05 0.000225646)
(0.021918 0.000129918 3.0933e-05 5.99568e-06 9.99821e-06 0.000240017)
(0.0219664 0.00012832 5.93293e-06 5.51219e-06 6.77036e-06 0.000227933)
(0.0219389 0.000132411 0.000124527 5.90958e-06 4.46158e-06 0.000230977)
(0.0220079 0.000127325 0.000136558 6.36727e-06 3.37508e-06 0.000219501)
(0.0219344 0.00013313 0.000123943 7.48732e-06 4.52643e-06 0.000216507)
(0.0220478 0.000136534 4.98272e-06 7.85636e-06 5.81862e-06 0.000233729)
(0.0219965 0.000137068 2.68995e-05 8.44476e-06 7.62233e-06 0.000238956)
(0.0220304 0.000137754 8.8382e-05 7.95491e-06 7.9376e-06 0.000255171)
(0.0219906 0.000136158 0.000194575 7.80175e-06 8.22977e-06 0.000260572)
(0.0220207 0.000139657 0.000100503 7.10928e-06 8.28639e-06 0.000256013)
(0.0220455 0.000138654 2.06185e-05 7.28427e-06 8.07797e-06 0.000255736)
(0.0220479 0.000143581 2.99254e-05 6.95938e-06 7.05761e-06 0.000238465)
(0.0219794 0.000141451 8.89454e-05 7.54713e-06 7.52506e-06 0.000231843)
(0.0219773 0.000136561 0.000163359 7.2573e-06 8.12106e-06 0.000224364)
(0.0219478 0.000142569 9.68753e-05 7.58184e-06 9.90706e-06 0.000220273)
(0.0220504 0.000133849 3.15926e-05 6.85325e-06 1.12217e-05 0.000233389)
(0.0219457 0.000143278 7.82675e-06 6.92429e-06 1.26998e-05 0.000245362)
(0.021983 0.000135264 0.00011145 6.40466e-06 1.23289e-05 0.000262501)
(0.0220017 0.000153382 0.000192932 6.62276e-06 1.15788e-05 0.000258993)
(0.0219908 0.000134943 0.000129237 6.62908e-06 1.08368e-05 0.000250409)
(0.0220563 0.000153418 4.15211e-05 6.99161e-06 1.08354e-05 0.000248382)
(0.0157656 9.78155e-05 0.000267085 1.07016e-05 6.61414e-06 0.000192671)
(0.0159594 0.000115718 0.000300224 1.03298e-05 7.05347e-06 0.000193723)
(0.0157262 9.61962e-05 0.000325301 1.01112e-05 6.18197e-06 0.000192322)
(0.0159441 0.00011466 0.000299845 9.9107e-06 6.24811e-06 0.000191661)
(0.0157837 9.70274e-05 0.000222985 1.02054e-05 5.23866e-06 0.000198325)
(0.015984 0.000117552 0.000245716 1.03489e-05 4.68087e-06 0.000197323)
(0.0157977 9.68791e-05 0.000263219 1.06704e-05 3.52559e-06 0.000201475)
(0.0159511 0.000110304 0.000318681 1.05598e-05 2.60436e-06 0.000204443)
(0.0157811 9.25727e-05 0.000276744 1.0856e-05 2.13652e-06 0.000204299)
(0.0159377 0.000109059 0.000259299 1.07636e-05 2.42042e-06 0.000204988)
(0.0158243 9.99449e-05 0.000222831 1.07599e-05 3.15502e-06 0.000193608)
(0.0159556 0.000108906 0.000328698 1.02118e-05 3.87868e-06 0.000188608)
(0.0158112 0.000100059 0.00029011 9.81822e-06 4.76799e-06 0.000184313)
(0.015928 0.000104833 0.000347887 9.488e-06 5.92824e-06 0.000184382)
(0.0158153 9.98943e-05 0.000210883 9.62542e-06 7.13896e-06 0.00019018)
(0.0159963 0.000103852 0.00026959 9.95734e-06 7.85249e-06 0.000181349)
(0.0158802 0.000105111 0.000253841 1.0182e-05 8.64058e-06 0.000188993)
(0.0159221 0.00010617 0.000328345 1.02143e-05 8.75096e-06 0.000197403)
(0.0158549 0.00010345 0.000267575 9.66282e-06 8.74378e-06 0.00019859)
(0.0159791 0.000100524 0.000223765 9.22521e-06 7.34173e-06 0.000200696)
(0.0158361 0.000100813 0.000226317 8.72655e-06 4.76962e-06 0.000197697)
(0.0159233 9.96933e-05 0.000254502 9.48707e-06 2.64476e-06 0.000200718)
(0.0158193 9.88749e-05 0.000303731 1.04518e-05 1.15044e-06 0.000195924)
(0.0158927 0.000101862 0.000260512 1.21954e-05 1.37163e-06 0.000192549)
(0.0158577 0.000106372 0.000226885 1.30715e-05 2.14778e-06 0.000199896)
(0.0158852 0.000108735 0.000234934 1.36612e-05 3.9298e-06 0.000204068)
(0.0158658 0.00010616 0.000278638 1.29055e-05 4.67046e-06 0.000210888)
(0.015875 0.000111018 0.000321412 1.25299e-05 5.59496e-06 0.000206121)
(0.0157878 0.000106352 0.000289854 1.16288e-05 5.26087e-06 0.000197339)
(0.0158836 0.000110359 0.000266997 1.15871e-05 5.33779e-06 0.000192532)
(0.0157462 0.000112037 0.000263488 1.11142e-05 4.72666e-06 0.000188955)
(0.0158694 0.000114321 0.000298572 1.15153e-05 4.97564e-06 0.000189366)
(0.0157287 0.000109732 0.000338493 1.11235e-05 4.68663e-06 0.000186272)
(0.0159041 0.000114078 0.000315457 1.1344e-05 5.64108e-06 0.000184283)
(0.0157366 0.000106712 0.000278933 1.05615e-05 6.22801e-06 0.000189173)
(0.0158907 0.000117687 0.000291913 1.05999e-05 7.39014e-06 0.000194303)
(0.0157785 0.000103952 0.000317585 1.01692e-05 6.95673e-06 0.000205254)
(0.0158901 0.000117496 0.000357459 1.05452e-05 6.71101e-06 0.000210172)
(0.0157738 0.000100628 0.000319402 1.06549e-05 6.12343e-06 0.000206531)
(0.0159464 0.000117347 0.000263826 1.09141e-05 7.10697e-06 0.000203878)
(0.0105073 5.39258e-05 0.000307043 1.25583e-05 -1.76743e-07 0.000129193)
(0.0106807 6.50926e-05 0.000317657 1.20161e-05 5.25958e-08 0.000127415)
(0.0104797 5.27187e-05 0.000319983 1.18646e-05 -2.54822e-07 0.00012515)
(0.0106574 6.40671e-05 0.000313414 1.18567e-05 -4.19291e-07 0.000124915)
(0.0104929 5.34589e-05 0.000279283 1.23948e-05 -1.0842e-06 0.000128696)
(0.010667 6.56589e-05 0.000287254 1.25924e-05 -1.82735e-06 0.000130567)
(0.0105018 5.53696e-05 0.000294847 1.28394e-05 -2.24436e-06 0.000135392)
(0.0106564 6.148e-05 0.000324827 1.25883e-05 -2.82279e-06 0.000137534)
(0.0105157 5.26263e-05 0.000297116 1.27092e-05 -3.18357e-06 0.000137961)
(0.0106662 5.8004e-05 0.000283054 1.25236e-05 -3.55698e-06 0.000139677)
(0.0105357 5.62611e-05 0.000274952 1.25316e-05 -3.54577e-06 0.000137254)
(0.0106643 5.87426e-05 0.000305664 1.22014e-05 -2.81602e-06 0.000134755)
(0.0105488 5.61104e-05 0.000322713 1.20093e-05 -1.4531e-06 0.000129542)
(0.0106635 5.67129e-05 0.00030172 1.18732e-05 1.21894e-07 0.000126952)
(0.0105618 5.61634e-05 0.000282381 1.2029e-05 1.48872e-06 0.000131361)
(0.0106742 5.79325e-05 0.00027003 1.22791e-05 1.95906e-06 0.000134267)
(0.0105538 6.05709e-05 0.00030353 1.23436e-05 1.89603e-06 0.000137691)
(0.0106771 6.07974e-05 0.000316126 1.22831e-05 1.45614e-06 0.000135587)
(0.0105523 5.65557e-05 0.00031763 1.17105e-05 1.38363e-06 0.000131685)
(0.0106889 5.71916e-05 0.000284139 1.1253e-05 7.19022e-07 0.000130476)
(0.0105395 5.42985e-05 0.000297992 1.08243e-05 -8.52219e-07 0.000128581)
(0.0106787 5.62188e-05 0.000292392 1.17045e-05 -2.41396e-06 0.000130136)
(0.010509 5.41381e-05 0.000318143 1.28763e-05 -4.18808e-06 0.000130535)
(0.0106588 5.88534e-05 0.000291712 1.47449e-05 -4.44169e-06 0.00013009)
(0.010516 6.096e-05 0.00027844 1.58224e-05 -4.3973e-06 0.000132969)
(0.0106527 6.5095e-05 0.000276961 1.63641e-05 -3.12106e-06 0.00013403)
(0.0105043 6.11708e-05 0.000294856 1.57413e-05 -2.48381e-06 0.000136384)
(0.0106476 6.68759e-05 0.00030945 1.52645e-05 -1.53879e-06 0.000135015)
(0.0104992 6.1931e-05 0.000301201 1.423e-05 -1.86541e-06 0.000132666)
(0.0106609 6.67397e-05 0.000276257 1.39678e-05 -1.69978e-06 0.000132433)
(0.0105002 6.62885e-05 0.000284505 1.35441e-05 -2.61402e-06 0.000130029)
(0.0106646 7.01906e-05 0.000300009 1.37971e-05 -2.27711e-06 0.000131207)
(0.0104924 6.19837e-05 0.000328527 1.3639e-05 -2.89536e-06 0.000130755)
(0.0106783 6.84084e-05 0.000308604 1.37642e-05 -1.99473e-06 0.000132395)
(0.0105051 5.98179e-05 0.000294049 1.32085e-05 -1.61227e-06 0.000136196)
(0.010691 7.0278e-05 0.000288178 1.31586e-05 -2.10314e-07 0.000136806)
(0.0105153 5.80729e-05 0.000320761 1.28424e-05 -3.33286e-07 0.000137803)
(0.0106899 6.96672e-05 0.000328297 1.30516e-05 -6.24955e-08 0.00013783)
(0.0105128 5.52363e-05 0.000331767 1.30739e-05 -4.33368e-07 0.000135811)
(0.010682 6.63056e-05 0.000304638 1.29741e-05 7.37251e-08 0.000135362)
(0.00632322 2.03545e-05 0.000197248 1.15336e-05 -4.45884e-06 7.29022e-05)
(0.00646195 2.68337e-05 0.000196775 1.10322e-05 -4.31346e-06 7.13184e-05)
(0.00631986 1.91393e-05 0.000206281 1.09548e-05 -4.2162e-06 7.05429e-05)
(0.00645229 2.57988e-05 0.000194188 1.09511e-05 -4.4512e-06 7.03214e-05)
(0.0063214 2.03361e-05 0.000192987 1.13374e-05 -4.78996e-06 7.28092e-05)
(0.00645491 2.57884e-05 0.000184649 1.14194e-05 -5.4517e-06 7.34801e-05)
(0.00631937 2.17443e-05 0.000200888 1.1498e-05 -5.47964e-06 7.45203e-05)
(0.00645139 2.29914e-05 0.000199703 1.12631e-05 -5.92121e-06 7.4023e-05)
(0.00632315 1.91255e-05 0.000203463 1.12862e-05 -6.23631e-06 7.4107e-05)
(0.00644617 2.01707e-05 0.000188393 1.11167e-05 -6.57473e-06 7.33366e-05)
(0.00633056 1.9567e-05 0.000190568 1.10949e-05 -6.60166e-06 7.13743e-05)
(0.00644387 2.03604e-05 0.000188303 1.09526e-05 -6.11068e-06 6.86075e-05)
(0.00632605 1.96001e-05 0.000197499 1.08548e-05 -5.27025e-06 6.69096e-05)
(0.00643827 2.05191e-05 0.000187855 1.08288e-05 -4.37217e-06 6.64671e-05)
(0.00632499 2.12393e-05 0.000187953 1.10083e-05 -3.75186e-06 6.94185e-05)
(0.00644342 2.3238e-05 0.000181632 1.12429e-05 -3.53503e-06 7.11812e-05)
(0.0063263 2.31131e-05 0.00019644 1.13634e-05 -3.70923e-06 7.37425e-05)
(0.00644904 2.38082e-05 0.000199592 1.13352e-05 -4.05229e-06 7.364e-05)
(0.00632556 2.04818e-05 0.000200143 1.08114e-05 -4.29229e-06 7.28465e-05)
(0.00645573 2.17336e-05 0.000187835 1.04516e-05 -4.44261e-06 7.12324e-05)
(0.00632713 1.96257e-05 0.000190649 1.01755e-05 -5.27083e-06 6.88622e-05)
(0.00645728 2.26952e-05 0.000193333 1.08554e-05 -5.72218e-06 6.78697e-05)
(0.00631222 2.11102e-05 0.000193106 1.17523e-05 -6.47341e-06 6.83925e-05)
(0.0064536 2.47049e-05 0.000194051 1.31133e-05 -6.42717e-06 6.86286e-05)
(0.00630656 2.46742e-05 0.000181733 1.39631e-05 -6.49734e-06 7.10583e-05)
(0.00645851 2.81825e-05 0.00018325 1.4468e-05 -5.86386e-06 7.06439e-05)
(0.00630643 2.52604e-05 0.000185233 1.42521e-05 -5.90694e-06 7.21075e-05)
(0.00644978 2.93512e-05 0.000190814 1.38974e-05 -5.67155e-06 7.20554e-05)
(0.00630933 2.55277e-05 0.000187394 1.30771e-05 -6.00749e-06 7.19782e-05)
(0.00645539 3.02081e-05 0.000178747 1.27416e-05 -5.77767e-06 7.12886e-05)
(0.00630887 2.67751e-05 0.000182072 1.24461e-05 -6.24668e-06 7.04062e-05)
(0.00645327 3.14391e-05 0.000184834 1.26264e-05 -6.00724e-06 6.97845e-05)
(0.00630706 2.47561e-05 0.000193903 1.26241e-05 -6.37347e-06 6.98065e-05)
(0.00645249 3.02656e-05 0.000186784 1.26936e-05 -5.94396e-06 7.08526e-05)
(0.00630963 2.42945e-05 0.000185492 1.24253e-05 -5.69439e-06 7.35647e-05)
(0.00646268 3.17609e-05 0.000179209 1.23865e-05 -5.04766e-06 7.44484e-05)
(0.00631784 2.3697e-05 0.000195537 1.22534e-05 -4.95862e-06 7.54944e-05)
(0.00646708 3.06571e-05 0.000198208 1.23214e-05 -5.02677e-06 7.52708e-05)
(0.00632542 2.18067e-05 0.000202462 1.22614e-05 -4.93078e-06 7.51683e-05)
(0.00646563 2.82142e-05 0.000191745 1.19642e-05 -4.75046e-06 7.4472e-05)
(0.00324477 4.09277e-06 8.25608e-05 9.2445e-06 -4.68408e-06 3.6192e-05)
(0.00334789 7.11025e-06 7.86668e-05 8.8895e-06 -4.48603e-06 3.53892e-05)
(0.00324226 3.98358e-06 8.42895e-05 8.74994e-06 -4.39106e-06 3.5727e-05)