/*--------------------------------*- C++ -*----------------------------------*\
  =========                 |
  \\      /  F ield         | OpenFOAM: The Open Source CFD Toolbox
   \\    /   O peration     | Website:  https://openfoam.org
    \\  /    A nd           | Version:  10
     \\/     M anipulation  |
\*---------------------------------------------------------------------------*/
FoamFile
{
    format      ascii;
    class       volTensorField;
    location    "12";
    object      gradientUWrite;
}
// * * * * * * * * * * * * * * * * * * * * * * * * * * * * * * * * * * * * * //

dimensions      [0 0 -1 0 0 0 0];

internalField   nonuniform List<tensor> 
25600
(
(0.182364 0.0778107 -0.0458858 -0.257896 -0.477054 -0.128709 -0.0157515 0.336502 0.239368)
(-0.0565765 0.0626297 0.0214012 -0.397855 -0.480332 -0.055976 -0.185782 0.217269 0.46766)
(-0.241131 0.00425554 0.0517923 -0.37127 -0.311052 0.0261043 -0.310704 0.0766679 0.537968)
(-0.250844 -0.0917648 0.0844577 -0.191173 -0.104383 0.0760901 -0.31632 -0.0441068 0.361379)
(-0.0986575 -0.172037 0.123713 0.00648414 0.0637752 0.0751102 -0.129071 -0.0971504 0.0304521)
(0.157942 -0.180261 0.124338 0.135366 0.100118 0.0917391 0.110675 -0.0657837 -0.266747)
(0.319733 -0.144495 0.0506047 0.166247 0.0834977 0.101089 0.253465 -0.0157386 -0.41045)
(0.22461 -0.0499724 -0.0747212 0.104983 0.11396 0.0798643 0.236166 0.118635 -0.39261)
(0.0221 0.104194 -0.168736 0.0904429 0.188351 0.0349255 0.0889659 0.280206 -0.259863)
(-0.165935 0.218521 -0.169507 0.0691946 0.296675 -0.0756163 -0.0331212 0.369153 -0.1337)
(-0.289354 0.209802 -0.0827738 -0.0314881 0.308097 -0.169689 -0.124042 0.390962 -0.0821466)
(-0.268527 0.103796 0.0284485 -0.165345 0.25475 -0.220082 -0.217597 0.323246 -0.0548796)
(-0.182259 -0.0283253 0.0649429 -0.243003 0.158406 -0.246512 -0.352181 0.209125 -0.028243)
(-0.0731767 -0.0911701 0.0127036 -0.16752 0.019695 -0.218095 -0.496829 0.103847 0.0103842)
(0.0228006 -0.0857393 -0.0284561 -0.0217044 -0.0785626 -0.174325 -0.508763 0.0261228 0.0515613)
(0.072978 -0.0605911 -0.0254905 0.064899 -0.168026 -0.133533 -0.423701 0.0170065 0.0542583)
(0.12423 0.0214667 0.0110726 0.0667124 -0.184254 -0.076335 -0.301602 0.0932335 0.054227)
(0.104765 0.0874128 0.0758557 -0.00442588 -0.171668 -0.0307258 -0.182209 0.2052 0.0721268)
(0.0301272 0.0777253 0.0878826 -0.072075 -0.188275 0.0040715 -0.150993 0.249271 0.10897)
(-0.0187191 0.04973 0.021803 -0.0324512 -0.194301 0.0287488 -0.197859 0.176275 0.167665)
(-0.00420461 0.00143419 -0.0408039 0.139723 -0.229659 0.0223246 -0.184163 0.0200896 0.196755)
(0.103288 -0.0879368 -0.0880663 0.365272 -0.240997 0.0375467 -0.0366145 -0.123574 0.125426)
(0.202078 -0.134147 -0.127406 0.530696 -0.220857 0.081469 0.184456 -0.164206 -0.00437024)
(0.232657 -0.088992 -0.0937745 0.573381 -0.116278 0.0842627 0.35904 -0.134236 -0.101813)
(0.122886 -0.0693366 -0.0134311 0.339395 0.0163132 0.0263303 0.41031 -0.11131 -0.133941)
(-0.0809352 -0.0612613 0.0442081 -0.06585 0.100964 -0.066668 0.223045 -0.115542 -0.0681279)
(-0.165025 -0.0397324 0.0739615 -0.364056 0.18206 -0.104481 -0.059989 -0.134191 0.000834628)
(-0.122498 -0.0501033 0.063433 -0.616547 0.151672 -0.077897 -0.265459 -0.0464498 -0.0457501)
(0.0229591 0.00688787 0.0381261 -0.729265 0.0615347 -0.054553 -0.266469 0.181124 -0.121551)
(0.221038 0.0744873 0.0282807 -0.714752 0.0124721 -0.085052 -0.110439 0.437835 -0.177114)
(0.236644 0.0774537 -0.00132765 -0.609885 -0.0396906 -0.193217 0.0492715 0.50627 -0.17235)
(0.0727501 0.0931936 -0.0434651 -0.45251 -0.00607602 -0.277768 0.101303 0.340532 -0.077629)
(-0.121802 0.101895 -0.062883 -0.349085 0.0980903 -0.229525 0.0636983 0.0604072 0.0367982)
(-0.310185 0.142505 -0.0557448 -0.294257 0.128101 -0.142325 -0.11581 -0.158213 0.151356)
(-0.363225 0.173828 3.04198e-05 -0.200882 0.0982893 -0.0605483 -0.288082 -0.175799 0.223494)
(-0.264557 0.058551 0.0819604 -0.101842 0.0278211 -0.0188036 -0.363624 -0.0197522 0.199794)
(-0.092717 -0.055337 0.0974253 0.0344868 -0.0572216 -0.0560808 -0.329138 0.194043 0.100189)
(0.115783 -0.10461 0.0420894 0.145256 -0.138757 -0.0971556 -0.134954 0.35945 -0.0273983)
(0.272453 -0.127603 -0.027848 0.071729 -0.256918 -0.156686 0.0509008 0.406092 -0.0758647)
(0.306142 -0.024163 -0.0782099 -0.0780798 -0.361932 -0.183666 0.0960725 0.383406 0.0215164)
(0.0559693 -0.095648 0.110018 -0.556139 -0.385257 0.100279 -0.415248 -0.181423 0.317299)
(0.118152 0.0302474 0.195196 -0.544216 -0.417223 0.196963 -0.344051 -0.125213 0.292287)
(0.163086 0.1386 0.216596 -0.298949 -0.385086 0.233398 -0.163454 -0.0294984 0.263944)
(0.158179 0.112435 0.17841 0.0463653 -0.346315 0.202121 0.0278978 -0.00715187 0.203318)
(0.120225 -0.0150538 0.133856 0.316457 -0.226172 0.17991 0.152775 -0.00156802 0.100389)
(0.110838 -0.0978172 0.0808475 0.34505 -0.0697597 0.157331 0.181902 0.119101 -0.0127948)
(0.072336 -0.0495685 -0.00921404 0.12575 0.141151 0.0696517 0.11946 0.320617 -0.170326)
(-0.00984029 0.0734184 -0.120159 -0.166924 0.271023 -0.0298642 0.100026 0.498677 -0.284144)
(-0.0423726 0.206929 -0.226267 -0.289101 0.248086 -0.0979255 0.132231 0.457157 -0.22386)
(-0.117407 0.213831 -0.263685 -0.214638 0.161463 -0.109273 0.21785 0.240884 -0.0267271)
(-0.21829 0.0886867 -0.218118 -0.0776164 0.0135139 -0.0854059 0.302272 0.101391 0.174004)
(-0.171924 -0.0498412 -0.139677 0.0694252 -0.0940948 -0.101636 0.267435 0.107646 0.266087)
(-0.00830384 -0.197622 -0.0705652 0.18781 -0.162354 -0.177358 0.126765 0.198684 0.194591)
(0.141322 -0.247093 -0.0259394 0.20656 -0.154813 -0.266588 0.0281263 0.225015 0.0627279)
(0.12677 -0.186963 0.0374136 0.0397929 -0.0876951 -0.295164 0.100732 0.119021 -0.0082907)
(-0.0478548 -0.0533275 0.116078 -0.202128 -0.023583 -0.272225 0.239405 0.0500085 0.0424626)
(-0.186916 0.129578 0.178773 -0.352154 0.0293329 -0.206479 0.213493 0.151765 0.180694)
(-0.220399 0.187833 0.195764 -0.337303 -0.0205417 -0.138011 0.00605884 0.310286 0.238058)
(-0.109838 0.141828 0.126415 -0.121406 -0.0803927 -0.122769 -0.233097 0.357515 0.176274)
(0.129202 0.0636096 0.00772001 0.165857 -0.0616999 -0.0861531 -0.290542 0.217409 -0.0179692)
(0.34846 -0.0195769 -0.0517673 0.335368 -0.0204383 0.0122421 -0.111478 -0.00703583 -0.281841)
(0.419468 -0.0588979 -0.03674 0.301665 0.0260526 0.139792 0.129721 -0.114404 -0.425424)
(0.285257 -0.0178748 -0.0584986 0.146613 0.0839497 0.200477 0.311019 -0.0435872 -0.366987)
(-0.0537187 0.0605899 -0.125115 -0.042495 0.113153 0.121544 0.405403 0.168749 -0.0827901)
(-0.453996 0.0225335 -0.166536 -0.369963 0.0323149 -0.0240792 0.36146 0.41725 0.295756)
(-0.55693 -0.0427128 -0.113309 -0.665525 -0.0750542 -0.140066 0.121964 0.512154 0.528449)
(-0.366059 -0.0934338 0.0382673 -0.798792 -0.162824 -0.158134 -0.250506 0.377052 0.517897)
(-0.122635 -0.149975 0.140413 -0.81422 -0.236746 -0.106435 -0.362406 0.0872788 0.314231)
(0.129002 -0.0789079 0.116456 -0.753726 -0.181025 -0.0530722 -0.045493 -0.130027 0.0509506)
(0.293219 0.0175922 0.00969171 -0.750999 -0.128357 -0.0224782 0.430913 -0.120606 -0.128768)
(0.264321 0.0928188 -0.0937145 -0.844796 -0.112474 -0.0704568 0.597042 0.0456641 -0.154658)
(0.107272 0.18517 -0.08997 -0.883819 -0.109543 -0.111853 0.390454 0.246609 -0.0173948)
(-0.0446031 0.151247 -0.0316301 -0.851496 -0.147767 -0.113487 -0.000806054 0.341217 0.176557)
(-0.111826 0.060732 -0.0055469 -0.713536 -0.193546 -0.132389 -0.296391 0.231432 0.303966)
(-0.0917437 0.0214146 0.0234588 -0.506577 -0.233139 -0.133996 -0.276586 0.0802073 0.317276)
(-0.0373772 -0.0383228 0.0335563 -0.35692 -0.254605 -0.149074 -0.110541 0.0142681 0.25187)
(0.0135735 -0.0670675 -0.00110645 -0.262936 -0.198624 -0.201641 0.0127805 0.00879331 0.17085)
(-0.0217559 -0.103256 -0.0446801 -0.234297 -0.197412 -0.205789 -0.0187155 0.0112901 0.166355)
(-0.0568778 -0.17192 -0.0538366 -0.344242 -0.254941 -0.175165 -0.189916 -0.0778262 0.233203)
(-0.00598187 -0.164216 0.00714398 -0.464032 -0.287689 -0.0620946 -0.359539 -0.174228 0.295253)
(0.104438 -0.0452811 0.182913 0.0895285 -0.225981 0.217784 -0.377555 -0.566872 0.113669)
(0.172387 0.0598251 0.147494 0.244482 -0.209804 0.209857 -0.616502 -0.399135 0.00592782)
(0.284906 0.0752201 0.0710566 0.302793 -0.245547 0.191195 -0.644769 -0.153805 -0.0850271)
(0.296198 0.0584634 0.0486915 0.215796 -0.275007 0.0805696 -0.632192 0.129847 -0.0795574)
(0.168699 0.0713558 0.0875291 0.141904 -0.190863 -0.0876361 -0.631561 0.363962 0.000403065)
(-0.00433408 0.131548 0.0290383 0.0663612 -0.0369721 -0.277542 -0.547699 0.504592 0.0874141)
(-0.126917 0.146463 -0.109919 -0.0301384 0.0915018 -0.442609 -0.322235 0.535569 0.0966728)
(-0.140401 0.0498424 -0.217684 -0.169509 0.0114954 -0.473366 0.0379991 0.393935 0.132719)
(-0.0232936 0.022774 -0.239755 -0.265094 -0.176674 -0.339151 0.268595 0.124236 0.221373)
(0.0136844 0.0237623 -0.167702 -0.236525 -0.253646 -0.112869 0.362827 -0.0719811 0.242156)
(-0.0475572 -0.0129325 -0.0887586 -0.124052 -0.219725 0.0618987 0.332158 -0.0279148 0.218709)
(-0.0398461 -0.0558779 -0.0630231 0.0695515 -0.189264 0.0762515 0.132152 0.267035 0.18932)
(-0.0528259 -0.0940274 -0.0840386 0.278803 -0.162557 -0.0461468 -0.0377951 0.561617 0.195811)
(-0.17629 -0.0435023 -0.088408 0.320334 -0.041188 -0.148112 0.0406127 0.494622 0.210556)
(-0.30632 0.0137706 -0.0271339 0.126851 0.0451656 -0.134536 0.325838 0.0617781 0.17259)
(-0.262723 0.0370218 0.0608587 -0.0237004 0.0569717 -0.0982492 0.658474 -0.342634 0.119799)
(-0.0160591 0.0338206 0.137517 0.0350157 -0.108167 -0.0703891 0.86928 -0.328887 0.122553)
(0.26635 0.005645 0.156113 0.185109 -0.398594 -0.0610118 0.845332 0.010274 0.106872)
(0.43424 0.0494588 0.134349 0.338165 -0.484079 -0.0170983 0.535764 0.293025 0.0449382)
(0.373152 0.100662 0.132372 0.449668 -0.323666 0.120346 -0.0622018 0.326721 -0.0365106)
(0.140385 0.0722217 0.145384 0.478818 -0.115311 0.251844 -0.547414 0.186167 -0.0866112)
(-0.0243253 0.00118519 0.072546 0.321892 -0.00575461 0.246677 -0.466047 0.0839401 -0.0969894)
(-0.0754755 -0.0514118 -0.136256 -0.0957974 0.0405471 0.0681721 0.154194 0.0767322 -0.00437894)
(-0.221351 -0.118162 -0.282659 -0.612726 -0.0256212 -0.0736947 0.981022 0.146969 0.281132)
(-0.445741 -0.2169 -0.24409 -0.845288 -0.127049 0.00891182 1.56054 0.181429 0.551417)
(-0.479498 -0.221237 -0.0811783 -0.579234 -0.0926359 0.237797 1.76648 0.0155164 0.604109)
(-0.306498 -0.178571 0.0985762 -0.150039 -0.122567 0.34185 1.69389 -0.206082 0.442918)
(-0.0851752 -0.0742672 0.157474 0.111425 -0.21447 0.208903 1.48688 -0.188838 0.299742)
(0.0849804 0.0888783 0.114805 0.0954968 -0.24975 0.0362009 1.29732 0.148512 0.242781)
(0.152156 0.126103 0.0121875 -0.187944 -0.293065 -0.0246974 1.05094 0.558967 0.182474)
(0.129127 0.0944382 -0.0837744 -0.51939 -0.212032 -0.0425243 0.762939 0.706453 0.16228)
(0.0703399 0.0723215 -0.0833441 -0.66521 -0.128369 -0.0810329 0.57127 0.526603 0.140077)
(0.0262919 0.0367914 -0.0770534 -0.693829 -0.104629 -0.156079 0.414883 0.172751 0.107998)
(-0.00639228 0.0643398 -0.0681693 -0.50266 -0.109303 -0.138413 0.348013 -0.122625 0.129087)
(-0.0430896 0.109379 -0.0116605 -0.167337 -0.14371 0.0194202 0.397961 -0.229753 0.135113)
(-0.0420464 0.0783335 0.0215165 0.0853689 -0.118398 0.181256 0.402245 -0.169118 0.0832185)
(0.0185387 -0.00902218 0.0414763 0.215758 -0.0521876 0.296676 0.368508 -0.0799512 0.00866759)
(0.0359136 -0.151143 0.0561311 0.112033 -0.0532363 0.342359 0.326855 -0.150255 -0.00756419)
(0.052171 -0.206424 0.0888321 -0.0108639 -0.088645 0.314909 0.20821 -0.365872 0.0452869)
(0.102203 -0.144864 0.157746 0.00744185 -0.169197 0.262243 -0.0502457 -0.55814 0.110814)
(0.238892 -0.121648 0.0771973 0.10073 -0.347702 0.0965126 0.254131 -0.22613 0.0602716)
(0.283693 0.0182026 0.170833 0.24108 -0.343808 -0.0391148 -0.279771 -0.0701742 0.114963)
(0.152564 0.0837312 0.105992 0.246855 -0.152904 -0.131154 -0.689632 0.232756 0.0388286)
(0.0495696 0.148708 -0.0433758 0.00243853 0.0855556 -0.23674 -0.660413 0.566533 -0.126894)
(0.0120963 0.172069 -0.140049 -0.358827 0.136745 -0.398604 -0.265652 0.737424 -0.153161)
(-0.0292029 0.135694 -0.191193 -0.633538 0.0177303 -0.559691 0.114905 0.708674 0.0491878)
(-0.123421 0.0047639 -0.165849 -0.685996 -0.0138304 -0.570539 0.191302 0.624453 0.171169)
(-0.19866 -0.130688 -0.0511166 -0.583877 0.0101735 -0.438476 0.0285649 0.411557 0.129422)
(-0.0911061 -0.00949866 0.0439946 -0.471306 0.0448434 -0.203381 -0.252283 0.0981356 0.00581489)
(0.000735768 0.16412 0.0470732 -0.426206 0.0914038 0.112604 -0.345238 -0.0828319 -0.143475)
(0.0277438 0.127929 -0.0639257 -0.414974 0.0422828 0.330437 -0.170308 0.0196378 -0.135322)
(0.143477 -0.00733781 -0.214072 -0.408632 -0.174389 0.291064 0.180452 0.31065 0.00685323)
(0.176509 -0.0766839 -0.240758 -0.374605 -0.256728 0.0926238 0.553829 0.384265 0.186603)
(-0.00200334 -0.0721388 -0.0981867 -0.11567 -0.148223 0.0116937 0.737544 0.0484378 0.312059)
(-0.171716 -0.0947802 0.0690936 0.270614 -0.0442962 0.119742 0.723298 -0.380305 0.291904)
(-0.136561 -0.160583 0.159363 0.675059 0.0273325 0.201051 0.501512 -0.498843 0.215906)
(-0.0141208 -0.222215 0.203063 0.75059 -0.0467417 0.164511 0.181749 -0.139805 0.133661)
(0.0521773 -0.111836 0.23229 0.347627 -0.064522 0.0588651 0.0460148 0.420619 0.00868857)
(0.138891 0.189853 0.263716 -0.222658 -0.0274542 0.024667 0.148133 0.778197 -0.0829707)
(0.257318 0.344696 0.221597 -0.632073 0.0232138 0.032061 0.356537 0.619653 -0.185621)
(0.233305 0.22819 0.0613054 -0.635809 0.0993987 0.0208648 0.520571 0.0976306 -0.226463)
(-0.0536407 0.0639432 -0.165121 -0.46 0.240961 -0.0227632 0.557302 -0.292857 -0.104599)
(-0.45141 -0.0358868 -0.306841 -0.541536 0.370358 -0.0988001 0.453678 -0.323919 0.133625)
(-0.633403 -0.0818855 -0.184074 -0.743329 0.324483 -0.0327384 0.33983 -0.0549879 0.284651)
(-0.428022 -0.0497148 0.0609911 -0.417001 0.24888 0.194322 0.211101 0.108129 0.0997996)
(-0.0262998 -0.0555767 0.140347 0.432145 0.153191 0.476847 0.0187498 -0.0233949 -0.149742)
(0.159488 -0.192931 0.0219934 1.01056 -0.093949 0.598233 -0.103593 -0.147724 -0.147019)
(0.065684 -0.238869 -0.0882168 0.954246 -0.263087 0.445275 -0.160151 0.000920775 0.0526675)
(-0.100454 -0.122834 -0.0596168 0.516769 -0.209839 0.106525 -0.14821 0.520885 0.187215)
(-0.182679 0.0558681 -0.0493686 -0.00289108 -0.0969468 -0.27997 -0.0389785 1.04044 0.180667)
(-0.107403 0.216997 -0.135236 -0.334457 -0.0471552 -0.445266 0.0734991 1.18291 0.089879)
(-0.0274566 0.25579 -0.174884 -0.452 -0.084372 -0.349759 0.152235 1.08878 0.0485097)
(0.0842618 0.155194 -0.0789743 -0.389734 -0.194035 -0.0956354 0.10269 0.882378 0.0814099)
(0.294262 0.031628 0.120924 -0.272693 -0.344099 0.270801 -0.11015 0.593077 0.0785861)
(0.355522 0.0225668 0.261004 -0.146297 -0.396077 0.524828 -0.2487 0.359038 0.0744216)
(0.250704 0.0412139 0.241261 -0.0584156 -0.3045 0.502903 -0.323933 0.211148 0.0931378)
(0.0341059 -0.0127144 0.124092 0.0846523 -0.0964859 0.35705 -0.37205 0.138437 0.123817)
(-0.187177 -0.135068 -0.0217787 0.147751 0.115362 0.25325 -0.234973 0.0627538 0.0647386)
(-0.125725 -0.262387 -0.101194 0.164741 0.140862 0.2723 0.0757 -0.0916921 -0.0777405)
(0.079464 -0.265882 -0.0523009 0.110465 -0.0991046 0.249266 0.359658 -0.213643 -0.0762689)
(0.206086 -0.219749 -0.0241256 -0.654115 0.0761609 0.221112 -1.15766 -0.342281 -0.273111)
(0.282547 0.189396 -0.00624086 -0.752504 0.0937668 0.0155252 -1.29496 0.183771 -0.31639)
(0.109497 0.369931 -0.0610573 -0.820375 0.168634 -0.37413 -1.0476 0.302652 -0.257374)
(-0.14088 0.264962 -0.142777 -0.78427 0.288709 -0.573782 -0.465506 0.113048 -0.149078)
(-0.280928 0.0340847 -0.154261 -0.740406 0.197442 -0.482881 0.195634 -0.0781519 0.11516)
(-0.230572 0.0288428 -0.108699 -0.789823 0.00395677 -0.373937 0.725813 0.0230338 0.316447)
(-0.0926016 0.1284 -0.0320241 -0.696861 -0.129275 -0.359293 0.758964 0.269422 0.226)
(0.0012737 0.0735879 0.0488191 -0.508194 -0.227568 -0.463917 0.131256 0.276813 0.13801)
(0.0784771 0.0754477 0.163319 -0.457551 -0.0846261 -0.410971 -0.513006 0.146066 -0.0275435)
(0.0510709 0.034777 0.21728 -0.340354 0.165103 -0.109709 -0.595062 -0.0378519 -0.229161)
(-0.0286761 -0.182078 0.0356719 -0.139436 0.104655 0.123406 -0.116089 -0.169247 -0.0746508)
(0.00446576 -0.256161 -0.239567 -0.280003 -0.258396 0.197339 0.509267 -0.0630943 0.22879)
(0.168594 -0.074537 -0.289548 -0.682371 -0.424959 0.291115 0.631621 0.0716863 0.257293)
(0.281273 0.0993207 -0.0707328 -0.779666 -0.111255 0.474161 0.455881 0.0127717 -0.157265)
(0.247247 0.12408 0.111251 -0.353675 0.314056 0.469093 0.508906 -0.240825 -0.611441)
(0.077339 0.0173727 0.100467 0.19355 0.358028 0.156091 0.683775 -0.466127 -0.454278)
(-0.240038 -0.0523521 0.0461407 0.0958215 0.153578 -0.163212 0.649831 -0.3635 0.0798643)
(-0.419406 0.00816236 0.067307 -0.331215 0.166278 -0.297205 0.219562 0.0307427 0.265653)
(-0.263317 0.122293 0.127767 -0.681018 0.210895 -0.267905 -0.16012 0.470401 0.150513)
(0.0797775 0.209702 0.137886 -0.865305 -0.0475628 -0.16417 -0.189852 0.646447 0.0320548)
(0.266636 0.235477 0.100204 -0.900666 -0.406531 -0.107494 -0.318901 0.726733 0.0916613)
(0.0375462 0.19239 -0.0309944 -0.951037 -0.306266 -0.152068 -0.474512 0.715766 0.216114)
(-0.303636 0.00717867 -0.158602 -0.974586 0.130575 -0.125602 -0.362332 0.468439 0.17486)
(-0.173578 -0.198025 -0.0730239 -0.435146 0.264417 -0.0241753 0.0680954 0.347032 -0.0496161)
(0.360587 -0.318957 0.132518 1.10603 0.00720905 0.035634 0.387138 0.401048 -0.281863)
(0.539018 -0.440864 0.215485 2.18754 -0.347712 -0.0896484 0.201126 0.452169 -0.145642)
(0.0933139 -0.464856 0.0699959 1.31448 -0.471848 -0.378423 -0.097214 0.268548 0.364811)
(-0.409496 -0.168577 -0.201492 -0.343616 -0.349116 -0.36027 -0.155726 0.0303044 0.859719)
(-0.587132 0.183357 -0.397555 -1.38231 -0.196949 -0.230771 0.387512 0.386904 0.937753)
(-0.461041 0.231086 -0.371162 -1.63017 -0.0712478 -0.251416 1.14034 1.15565 0.639664)
(-0.199843 0.114195 -0.136232 -1.35141 0.00100515 -0.333963 1.35556 1.66241 0.223861)
(0.023602 -0.0115414 0.147682 -0.934802 -0.0841672 -0.180234 1.07418 1.46007 0.0185992)
(0.154317 -0.130244 0.3476 -0.432754 -0.28043 0.370161 0.676132 0.749511 0.072492)
(0.18761 -0.0769512 0.373793 -0.273722 -0.336491 0.8337 0.312899 0.22231 0.0810408)
(0.139861 0.128591 0.172037 -0.434969 -0.225566 0.696707 0.22853 0.0863246 0.022791)
(0.142689 0.280053 -0.0733534 -0.697437 -0.309571 0.182799 0.356317 0.229457 0.0684923)
(0.161094 0.278074 -0.121918 -0.774309 -0.505864 -0.158601 0.340543 0.225481 0.25951)
(0.070448 0.0128051 -0.00897516 -0.562704 -0.411706 -0.183109 0.065606 -0.205903 0.322379)
(0.0104634 -0.358336 0.068819 -0.362432 -0.0921679 0.0394004 -0.394542 -0.685503 0.124183)
(0.0563135 -0.490337 0.0182976 -0.475539 0.0656183 0.218291 -0.84016 -0.776745 -0.110854)
(0.0635477 -0.113054 -0.0582033 -1.45394 0.366643 0.0396679 -1.94744 -0.141939 -0.29857)
(0.180123 0.0913226 -0.215702 -1.89737 0.375463 -0.244652 -1.20138 0.0569888 -0.349534)
(0.128878 0.231081 -0.275938 -1.93203 0.362923 -0.671492 -0.677862 0.364118 -0.427169)
(0.0820111 0.17721 -0.120095 -1.16363 0.382227 -0.592375 -0.222578 0.362885 -0.462245)
(-0.0180148 -0.0176885 -0.0169755 -0.116735 0.158996 -0.10534 0.193335 0.0855147 -0.15715)
(-0.0204218 -0.0773468 -0.106778 0.276567 -0.186954 0.163621 0.791288 0.101246 0.274182)
(0.0546446 -0.128071 -0.209671 -0.29204 -0.330331 0.0110724 1.13805 0.610875 0.360254)
(-0.0315468 -0.0843201 -0.0741863 -1.0991 -0.0373337 -0.257546 0.563134 0.821202 0.070208)
(0.0287691 0.242593 0.275278 -1.10125 0.32609 -0.242978 -0.24634 0.466934 -0.376588)
(0.203282 0.270147 0.395107 -0.291755 0.340035 -0.257498 -0.538859 0.131152 -0.641287)
(0.060169 -0.163821 0.136214 -0.0336187 0.207981 -0.494756 -0.406521 0.240047 -0.36276)
(-0.207045 -0.359559 -0.112024 -0.781954 0.143845 -0.556039 0.0879622 0.719262 0.145921)
(-0.135159 0.0150797 -0.0729253 -1.2085 0.266185 -0.237703 0.268386 0.967542 0.0391236)
(0.228317 0.403358 0.0150691 -0.716302 0.385363 0.142414 0.167367 0.552989 -0.604719)
(0.472041 0.21717 -0.125011 -0.0313966 0.204816 0.143622 0.584987 -0.0446257 -0.741594)
(0.162625 -0.244263 -0.239487 -0.122725 0.0526133 0.0419173 1.04991 -0.165935 -0.182273)
(-0.36124 -0.326093 -0.0933035 -0.607499 0.252521 0.124447 0.858804 0.1297 0.172329)
(-0.474159 -0.0652512 0.15213 -0.501199 0.420468 0.198092 0.055423 0.170762 0.0569064)
(-0.230068 0.0506313 0.334138 -0.0930441 0.195 0.173662 -0.802691 -0.0124923 -0.0449712)
(0.104478 -0.0518166 0.313808 0.167093 -0.0759394 0.234834 -1.16957 0.000294126 -0.165375)
(0.182985 0.0678587 0.072375 -0.25306 0.0885321 0.0867322 -0.881819 0.403366 -0.30844)
(-0.0913479 0.409877 -0.164189 -0.808254 0.463651 -0.222517 -0.376098 0.540551 -0.340369)
(-0.116922 0.323175 -0.213767 -0.723342 0.4506 -0.278161 -0.324141 0.0774547 -0.361449)
(0.70322 -0.169223 -0.0736327 0.228713 -0.108264 -0.152823 -0.701911 -0.327521 -0.558621)
(1.27585 -0.455143 0.0267526 1.51395 -0.563857 0.0140708 -0.605356 -0.162092 -0.678132)
(0.154849 -0.388748 -0.110492 1.47635 -0.0884513 -0.234742 0.25301 0.552641 -0.185872)
(-1.42171 -0.21854 -0.142052 0.352276 0.569564 -0.706249 0.786501 0.849539 0.610891)
(-1.65579 -0.0614011 -0.00663504 -0.371597 0.502317 -0.779715 0.432577 0.452213 1.01277)
(-0.945364 0.0779398 -0.0226158 -0.555658 -0.157681 -0.476331 0.470065 0.174869 1.0695)
(-0.188771 0.194996 -0.142858 -0.769227 -0.687723 -0.0795322 1.0961 0.468217 0.890196)
(0.316924 0.199606 -0.091029 -0.945749 -0.663038 0.0776825 1.70006 1.07275 0.285724)
(0.548879 0.056331 0.292644 -0.908804 -0.329604 0.23238 1.47777 1.46203 -0.288249)
(0.502034 -0.027795 0.590815 -0.939325 -0.0553286 0.309185 0.615277 1.24931 -0.438129)
(0.283182 0.0558938 0.34714 -1.04184 0.262553 -0.185392 0.149867 0.898417 -0.359271)
(0.0722209 0.0489636 -0.152154 -0.840569 0.518093 -0.811648 0.13238 0.544539 -0.41222)
(0.0297017 -0.111494 -0.319629 -0.591407 0.427392 -0.815165 0.194006 0.314125 -0.338178)
(0.129503 -0.0498227 -0.125996 -0.660093 0.243389 -0.489314 -0.277492 0.326302 -0.200571)
(0.0925751 0.135832 0.102605 -0.947479 0.185005 -0.273424 -1.16229 0.331248 -0.233439)
(-0.0590923 0.0259305 0.164068 -1.19682 0.21474 -0.173064 -1.98551 0.159608 -0.277648)
(-0.104161 -0.181546 0.0672028 -1.27218 0.277586 -0.0510686 -2.41566 -0.0312807 -0.267966)
(-0.160553 -0.154673 -0.136737 -0.386044 0.286943 0.0541685 0.199503 -0.331993 -0.0376702)
(0.00277101 0.17837 -0.427601 -1.39759 -0.0806911 -0.424319 0.653682 -0.199811 0.148932)
(0.52634 0.361127 -0.277313 -1.35666 -0.548132 -0.772789 0.88056 -0.173952 -0.0599177)
(0.906319 0.141617 0.179562 -0.392575 -0.867526 -0.428168 0.643784 -0.229405 -0.245385)
(0.557718 -0.292614 0.285898 0.382901 -0.89685 0.130365 0.243582 -0.388419 0.229396)
(-0.310627 -0.257632 -0.0426692 0.13627 -0.498989 0.330875 0.169391 -0.250332 0.829223)
(-0.857432 0.189711 -0.28644 -0.825269 0.131329 0.57395 0.249885 0.195398 0.578283)
(-0.459485 0.430565 -0.106088 -0.842576 0.732467 1.04005 0.186321 0.183732 -0.368808)
(0.530678 0.304132 0.17353 0.608271 0.643263 0.606551 -0.129881 -0.090262 -1.07234)
(0.668881 -0.0106276 0.0910234 1.54918 0.407892 -0.270475 -0.363556 -0.175201 -1.03753)
(-0.297903 -0.291402 -0.124068 0.58055 0.613448 -0.433224 -0.27279 -0.130945 -0.325718)
(-0.679412 -0.232641 -0.0825485 -0.519816 0.17509 -0.00137517 0.210538 0.248207 0.429232)
(0.178103 0.070243 0.125276 -1.02872 -0.463708 0.102621 0.44106 0.909624 0.1729)
(0.94235 0.0922605 0.15279 -0.625562 -0.328162 -0.106867 0.435732 0.893339 -0.700603)
(0.603485 -0.0556911 0.0329082 -0.0699833 -0.0136977 0.209089 0.608597 -0.169395 -0.706865)
(-0.240807 0.0205603 0.0586961 -0.760526 0.211275 0.500057 0.458948 -0.775911 -0.0532221)
(-0.465168 0.130845 0.121805 -1.48871 0.257697 0.534149 0.371414 -0.381109 0.0548054)
(-0.133357 -0.0310556 0.102864 -1.14985 0.256623 0.552433 0.233027 0.157309 -0.23397)
(0.117764 -0.165047 0.167325 -0.381931 0.313665 0.456935 -0.162443 0.400871 -0.468507)
(-0.00849766 0.125684 0.104712 0.236834 0.391396 0.418797 0.0443292 0.599093 -0.568932)
(-0.292733 0.525479 -0.161054 0.118371 0.597833 0.190902 0.798406 0.835852 -0.422786)
(-0.24022 0.416997 -0.249532 -0.430828 0.535786 -0.147131 0.681592 0.689789 -0.26756)
(0.299967 -0.287612 -0.124194 -0.509064 -0.0471657 -0.355759 -0.633077 0.214531 -0.198941)
(1.17183 -0.769289 0.0922378 -0.504385 -0.517683 -0.361385 -1.77388 -0.357763 -0.619735)
(1.14964 -0.320137 0.0765547 -1.13944 -0.617154 -0.137527 -1.65094 -0.640057 -0.866916)
(-0.153093 0.205059 -0.221656 -1.28417 -0.347916 -0.233077 -0.930233 -0.451542 -0.0515413)
(-1.08989 -0.108249 -0.257587 -0.434103 0.332383 -0.54881 -1.12939 -0.2103 0.622129)
(-1.03649 -0.570235 -0.0537008 0.752407 0.661324 -0.633056 -1.60177 -0.0770782 0.470651)
(-0.84466 -0.499444 0.0326489 1.48598 0.520878 -0.00233178 -1.1379 -0.0709325 0.227251)
(-0.656951 -0.0580805 -0.0369854 1.08005 0.121139 0.502042 -0.487405 0.202852 0.256672)
(-0.231795 0.324554 0.04433 0.487608 -0.173207 0.450951 0.147182 0.977162 0.147492)
(0.0750179 0.338417 0.29183 -0.0644656 0.0206831 0.0859089 0.430257 1.63391 -0.290999)
(0.110689 0.214062 0.133388 -0.648802 0.134424 -0.566271 0.438575 1.57315 -0.44136)
(0.252171 0.259521 -0.262693 -0.941798 -0.0148195 -1.22397 0.864978 1.16979 -0.268994)
(0.388519 0.214598 -0.213719 -0.686304 -0.0702359 -1.33085 0.876224 0.815054 -0.34878)
(0.234507 0.0890347 0.0865908 0.221755 0.00613333 -0.891412 0.522615 0.82282 -0.321035)
(-0.0432117 0.111128 0.184177 0.281242 0.3577 -0.553128 0.451445 0.887343 -0.319714)
(-0.231167 0.00778953 0.180079 -0.500195 0.798061 -0.422349 0.18668 0.568877 -0.591176)
(-0.179552 -0.271008 0.203271 -0.517579 0.726231 -0.217841 -0.352505 0.230886 -0.614758)
(-0.103739 -0.376316 0.14309 -0.0351815 0.476889 0.046719 -0.367161 -0.134637 -0.403628)
(-0.657454 -0.403574 -0.307577 0.842595 1.25545 0.160651 -0.995086 -0.406835 -0.594132)
(-0.335145 -0.330193 -0.660237 0.965114 0.627601 0.28745 -0.363141 -0.301528 -0.35491)
(0.681861 -0.161717 -0.278042 1.3625 -0.672129 0.537487 0.0940423 -0.023944 0.0117942)
(1.05156 -0.00535486 0.371607 0.205828 -1.09826 0.618562 0.0574524 0.200178 0.123335)
(0.306313 0.146822 0.400911 -1.53268 -0.248314 0.201981 -0.178536 0.411575 0.148412)
(-0.668118 0.434991 0.127166 -2.20011 0.706547 -0.0629391 -0.134152 0.632182 -0.0576818)
(-0.53169 0.534108 0.148037 -0.229911 0.720016 -0.0121876 0.245797 0.431911 -0.338759)
(0.666719 0.225776 -0.0603232 1.9232 0.0277939 -0.391597 0.52271 0.149566 -0.674359)
(1.30437 0.0812795 -0.407911 1.63739 -0.359783 -0.930661 0.398215 0.13901 -0.858815)
(0.231379 0.229275 -0.167255 -0.0272579 0.444155 -1.01534 -0.0241553 0.221413 -0.635889)
(-1.03637 -0.295144 0.250922 0.153339 0.574369 -0.588737 -0.780019 0.169124 0.512496)
(-1.07757 -0.901937 0.166214 1.01248 -0.315041 0.2277 -0.804552 0.109941 1.45213)
(-0.161043 -0.238698 -0.109145 0.471948 -0.709112 0.646813 0.284185 0.598022 0.850732)
(0.786294 0.606475 0.0823472 -0.244363 -0.734678 0.281408 0.936694 0.97879 -0.0210803)
(0.414593 0.469753 0.201462 -0.455328 -0.254226 0.133144 0.310713 0.440348 -0.0927269)
(-0.603648 -0.0806094 -0.0452015 -0.625646 0.142212 0.249577 0.0307859 -0.0693525 0.505445)
(-0.570903 -0.261208 -0.046802 -1.20338 0.0392784 0.248081 0.305226 -0.0318727 0.453886)
(0.125999 -0.0333591 0.107942 -1.59163 -0.246207 -0.169936 0.125648 0.0338459 -0.0162862)
(0.514671 0.100319 0.250242 -1.25981 -0.541103 -0.495039 -0.428626 -0.317431 -0.211251)
(0.35148 0.110462 0.157982 -0.64091 -0.630658 -0.540318 -0.74951 -0.358587 -0.135911)
(-0.203631 0.183738 -0.239886 0.255536 -0.241837 0.180924 -0.0218268 0.317552 0.383961)
(-0.427547 0.0788359 -0.453071 0.888314 0.0524054 0.482576 0.411545 0.941967 0.618045)
(-0.116826 -0.274128 -0.315798 1.6845 -0.204048 -0.269978 -0.0775371 0.886344 0.27675)
(0.421678 -0.516922 0.0536808 1.69303 -0.0687089 -0.465124 -0.475105 0.162923 -0.458461)
(0.863365 -0.355561 0.0972648 -0.583934 0.0376169 -0.0972284 -0.384237 0.0182872 -0.739627)
(0.489555 0.153563 -0.332105 -2.854 -0.364851 -0.475048 -0.683692 0.925174 -0.0138742)
(-0.344219 0.310491 -0.358249 -3.17619 -0.340465 -1.11425 -2.41673 1.39015 0.593489)
(-0.612063 -0.0107543 0.270108 -2.89161 0.263301 -0.666215 -3.14506 0.680996 0.249399)
(-0.767715 -0.25237 0.566132 -2.46267 1.11466 0.509025 -1.92495 -0.192952 -0.398609)
(-0.744766 -0.184955 0.0998715 -1.77712 1.08669 1.1449 -0.288594 -0.258397 -0.482763)
(-0.321553 0.159313 -0.292711 -0.95927 0.535702 1.36839 1.31363 -0.127491 -0.201565)
(-0.0786204 0.240189 -0.230533 -0.514818 0.261591 0.820017 2.26899 0.223802 -0.155684)
(0.0152699 -0.0240516 -0.124395 -0.595486 -0.0627942 -0.372866 1.994 0.39037 0.00100193)
(0.261076 -0.0308288 -0.101514 -0.426761 -0.128601 -0.819888 1.57512 0.497932 -0.121528)
(0.699346 0.0748054 0.0132625 0.149379 0.151189 -0.835797 0.921572 0.377361 -0.914538)
(0.545889 0.126812 0.117262 0.222223 0.325276 -0.570259 0.695457 -0.0104427 -0.998503)
(-0.257469 0.372064 0.143433 -0.0346151 0.596007 -0.197851 1.16883 0.123342 -0.469521)
(-0.347665 0.3137 0.282073 0.632978 0.624439 0.0417132 0.626402 0.649914 -0.340285)
(0.169082 -0.166242 0.408851 2.01101 0.539034 0.266628 -0.42897 0.527294 -0.553533)
(-0.0364807 -0.425165 0.213986 2.17485 0.904514 0.215391 -0.998865 -0.138505 -0.66647)
(-0.771265 -0.306763 -0.118592 0.365814 1.21435 0.0354657 -0.823059 -0.426103 -0.266216)
(0.215071 -0.768975 -0.272604 2.32436 1.23703 0.473029 0.366798 -0.945819 -1.2007)
(0.185545 -0.493218 -0.122595 2.54697 0.707938 0.752031 0.414274 -1.39674 -0.915701)
(-0.433876 0.326368 0.0401925 0.0916314 0.496712 0.511399 -0.365074 -0.954987 -0.126342)
(-0.589849 0.59105 -0.0222198 -2.16963 0.899128 -0.07223 -0.506163 -0.274107 -0.100702)
(0.265859 0.258036 -0.127337 -1.66579 0.614121 -0.0557604 0.75894 -0.0740999 -0.743462)
(1.09971 -0.0962569 -0.400555 1.43814 -0.340838 -0.00618115 1.99486 0.207662 -0.849898)
(0.515866 -0.0928349 -0.531282 1.7944 -0.274886 -0.60437 1.42517 0.653283 -0.300981)
(-0.310719 0.478496 -0.170939 -1.26078 0.452854 -0.706567 0.219293 0.489083 0.0168894)
(-0.0646652 0.447881 0.227368 -1.08119 0.135678 -0.624854 -1.21283 0.603497 0.145482)