/*--------------------------------*- C++ -*----------------------------------*\
  =========                 |
  \\      /  F ield         | OpenFOAM: The Open Source CFD Toolbox
   \\    /   O peration     | Website:  https://openfoam.org
    \\  /    A nd           | Version:  10
     \\/     M anipulation  |
\*---------------------------------------------------------------------------*/
FoamFile
{
    format      ascii;
    class       volScalarField;
    location    "12";
    object      p;
}
// * * * * * * * * * * * * * * * * * * * * * * * * * * * * * * * * * * * * * //

dimensions      [0 2 -2 0 0 0 0];

internalField   nonuniform List<scalar> 
25600
(
0.00127376
0.00168593
0.00124066
-0.000436895
-0.000144241
0.00118228
0.000732133
0.000577645
0.00195334
0.00158981
0.00137962
0.00272585
0.00288026
0.00298062
0.00259128
0.00321133
0.00418872
0.00303198
0.00324828
0.00382164
0.00321019
0.00185274
0.00138902
0.000973323
0.000147307
0.00156439
0.0020575
0.00100909
0.00240479
0.00146404
-0.00119928
-0.000820091
-0.000418771
-0.000501419
-0.000260073
-0.000422063
-0.000100406
0.000389436
0.00104246
0.001559
-0.000256256
9.99547e-05
-0.000576896
-0.00110733
0.000457995
0.00130479
1.21231e-05
9.37763e-05
0.00130068
-0.000151106
0.00026648
0.00137777
0.00131111
0.000863628
0.00116065
0.00338845
0.00380648
0.00282756
0.0031322
0.00267886
0.000963061
0.00105954
0.00210169
0.00144468
0.00210319
0.00393094
0.0013862
0.000115657
0.00144072
-0.000216601
-0.00306925
-0.00230066
-0.00167007
-0.00213746
-0.00248538
-0.00130727
-0.000756122
-0.000834139
0.000892341
0.000841754
-0.000654025
-0.000170402
-0.000478265
0.000267073
0.00193331
0.00160864
-0.00026332
6.47583e-05
0.000788841
-0.000259324
-0.000113488
0.00159851
0.00217265
0.00132017
0.00175672
0.00413895
0.00310496
0.00234426
0.00393134
0.00390003
0.00247351
0.0035557
0.00418105
0.00145754
0.0012828
0.00240296
0.00082558
0.00143352
0.00120102
-0.00085591
-0.00326447
-0.00358385
-0.00257348
-0.00239806
-0.00234051
-0.000568198
-0.000647125
-0.00122694
-0.000247388
-0.00118161
0.000906189
0.000333437
-0.000605971
0.000476216
0.00155563
0.000419566
-0.00162058
-2.65361e-05
0.00149637
0.000873479
0.00136138
0.00172576
0.00131324
-0.000669813
0.000919751
0.00288654
0.00184041
0.00258107
0.00247828
0.00253325
0.000670496
0.000898772
0.00197157
0.00245079
0.00314548
0.00146534
0.000161079
0.0038405
0.00294825
-0.00101766
-0.00339515
-0.00308825
-0.00111116
-0.00104322
-0.0017759
-0.00113077
-0.00194321
-0.0016983
-0.000697119
-0.000159872
0.00158292
-0.000839575
-0.00254536
-0.000264393
0.00154921
-0.000403612
-0.00146989
0.000756133
0.00182636
0.000475671
0.000105181
0.000453765
0.000314777
0.000118313
0.00196722
0.00271693
0.00190669
0.00386714
0.00304627
0.00140849
0.000905783
0.00104975
0.00159327
0.00227375
-0.000791824
-0.00398153
0.000715954
0.00333646
-0.00077294
-0.00587682
-0.00833683
-0.00505587
-0.00104785
-0.000508464
-0.00177559
-0.00139347
-0.000649842
-0.00112243
-0.000922953
0.000623582
0.00356005
-0.00233352
-0.0051099
-0.0014293
0.00157012
0.000499423
-0.00136571
0.000547121
0.00142557
0.000132417
0.000854622
-0.000100188
-0.00220586
-0.000683505
0.00274197
0.0021081
0.000906846
0.00387283
0.00492715
0.00435871
0.00316864
-7.85667e-05
0.000219376
0.00258713
-0.00147562
3.04591e-05
0.00607958
0.00719814
0.00140782
-0.00516393
-0.00804833
-0.00561395
-0.000402337
-0.00315233
-0.00616263
-0.00429712
-0.00362964
-0.00345477
-0.000942173
0.00337327
0.00373283
-0.000689325
-0.00363225
0.00214784
0.00361107
-0.000796989
-0.00089132
0.00167699
0.000654828
-0.0016687
-0.00207001
-0.00102622
0.000395166
0.0013962
0.00249997
0.000870951
0.000468631
0.00521372
0.00417997
0.00489044
0.00558676
0.000629541
-0.00211466
0.000255455
0.000928325
0.00553409
0.00771929
0.00421496
-0.00232989
-0.00269586
-0.00127936
-0.00146622
-0.000943803
-0.00501272
-0.00764661
-0.002482
-0.000877163
-0.00128636
0.000377059
0.00355784
0.00265938
0.000429257
-0.00285807
0.00100856
-0.00283361
-0.00528998
-0.00102592
-3.13082e-05
-0.00239254
-0.0052639
-0.00620225
-0.00254421
-0.000267293
-0.000799101
-0.000613632
-0.00212914
-0.00153522
0.00227532
0.00321093
0.0064179
0.00710498
0.000423144
-0.00591212
-0.00140915
-0.000350816
-0.00417633
-0.00156505
5.20967e-05
-0.00635012
-0.00436438
-0.00127215
-0.00406101
-0.00597374
-0.00728309
-0.00601282
-0.00072566
-1.86806e-05
-0.000257354
-0.000886377
-0.00145605
0.00210032
-0.00445575
-0.00479677
0.00258657
-0.0012353
-0.00790083
-0.00556981
-0.00044199
-0.0014528
-0.00641009
-0.00774891
-0.0113206
-0.00381921
-0.00374229
-0.00242219
-0.000545976
0.00131787
-0.00133106
0.000839389
0.0054509
0.0041515
0.00108328
-0.00791859
-0.00661951
0.00379877
-0.000218855
-0.0044618
-0.00939136
-0.0161077
-0.00998859
-0.00186115
-0.0073486
-0.00784456
-0.00632571
-0.00568682
-0.000856036
-0.00242852
-0.00258365
-0.000330288
0.0012177
-0.000467757
-0.00498675
-0.0036498
0.00385501
0.00106816
-0.00647036
-0.00442109
0.00219166
0.00155939
-0.00402137
-0.00445782
-0.00142856
-0.000988811
-0.00247914
-0.00241539
0.000553613
0.00041535
0.000213633
0.00585314
0.0134613
0.0031199
-0.0131072
-0.015108
-0.00547028
0.00638438
0.00383598
0.00300469
-0.0076936
-0.0163503
-0.00789658
0.000791855
-0.00650842
-0.00362451
-0.00321198
-0.0085912
-0.0090058
-0.00595604
-0.00300355
-0.00193628
-0.00199066
-0.0062075
-0.00500947
-0.000727953
0.00488743
0.00250252
-0.00642889
-0.00394474
0.000100678
-0.00237961
-0.0056265
-0.00772887
-0.00829777
-0.00220276
-0.00421706
-0.00350829
-0.00185609
-0.00136101
-0.00902735
-0.00115376
0.000542774
-0.000616001
-0.0120919
-0.0151119
-0.00567452
0.00770818
0.00358522
0.000343799
-0.012352
-0.0173011
-0.0058927
0.0027266
-0.00652114
-0.00550026
-0.00170085
-0.00644218
-0.0070191
-0.00760127
-0.00350689
0.00140997
-0.00402588
-0.00415986
-0.00317601
-0.00217872
0.00174941
-0.00177697
-0.00241157
0.00339196
-0.00236285
-0.000708767
-0.001691
-0.00810126
-0.0112813
-0.00908979
-0.0091532
-0.00110152
-0.00368568
-0.0047227
0.00391527
-0.00174457
0.0015512
0.00046958
-0.00694041
-0.0118309
-0.00717192
-0.000802385
-0.000928955
-0.00103793
-0.0103842
-0.0160824
-0.00385524
-0.00450273
-0.00934441
-0.00267943
0.00314664
-0.00117395
-0.00515228
-0.00966817
-0.00564112
0.00189536
-0.00154165
-0.00254701
-0.00254811
-0.00441689
0.00179936
-0.00564812
-0.00899648
-0.00333676
-0.00190927
0.0010808
-0.00721408
-0.00949262
-0.0116523
-0.0127814
-0.00996627
-0.00487602
-0.00466251
-0.0118704
-0.0122129
-0.00533715
0.00654552
0.00168824
-0.00444261
-0.0038622
0.000141746
-0.00283046
-0.00363973
0.0049318
-0.0136059
-0.0224914
-0.00444305
-0.00356524
-0.00964172
-0.00136145
0.0033863
-0.00253139
-0.0045058
-0.012257
-0.00569892
0.00157999
0.00143677
-0.00363458
0.00189056
-0.00192738
-0.00134349
-0.00486951
-0.00850432
-0.00683625
-0.00510364
-0.00500135
-0.00290479
-0.00679343
-0.00375855
-0.00554905
-0.00837654
-0.00807098
-0.00276035
-0.00311831
-0.01251
-0.00886671
0.00686703
0.00583777
-0.00184824
-0.0010235
0.000657882
-0.00216354
-0.00385669
-0.00289543
-0.00884693
-0.017272
-0.00691119
-0.00777944
-0.0127366
-0.00390121
-0.000447805
-0.00759932
-0.00988547
-0.0179147
-0.00595092
0.00430324
0.000727129
-0.00344772
-0.00441432
3.53624e-05
0.00341974
0.000675437
-0.00909639
-0.00979794
-0.00523201
0.000429567
0.00215395
-0.00973095
-0.00415055
-0.00417416
-0.0147563
-0.00866214
-0.00676291
-0.00792748
-0.00705674
-0.00721666
0.00912179
0.00749302
-0.00215593
-0.000113709
0.0011316
-0.00261374
-0.000378942
-0.000505573
-0.0165094
-0.0125958
-0.00177621
-0.0086547
-0.0145538
0.000199488
-0.00125429
-0.00687735
-0.0152705
-0.0234218
-0.0112584
0.00448721
0.00256279
-0.00112682
-0.00521142
-0.00700735
0.0019333
0.0019773
-0.00960483
-0.00986208
-0.00224731
0.000220917
0.000220323
-0.00378622
-0.0101779
-0.0129873
-0.0061793
-0.00588936
-0.00583669
-0.0192238
-0.0162604
-0.00880531
0.00900268
0.0062159
-0.00371527
0.000234565
0.00463359
0.00200862
0.00249898
-0.00157599
-0.0217453
-0.0103899
0.0029968
-0.00512887
-0.014225
-0.00593196
-0.00221706
-0.00220556
-0.0108227
-0.0228809
-0.0120277
0.00501346
0.000913327
0.00826791
-0.000699003
-0.00867098
-0.0018912
0.000616693
-0.00888007
-0.0136913
-0.00466833
0.000430273
-0.00196485
0.00146413
-0.00644227
-0.0189088
-0.0166627
-0.00314491
-0.00308901
-0.0185586
-0.0237999
-0.00973915
-0.00168634
0.00276445
-0.00348376
-0.00191666
0.00190754
0.00016826
0.00368318
-0.00787751
-0.0249802
-0.00932958
0.000263945
-0.0112003
-0.0106673
-0.00707234
-0.0040834
-0.00603004
-0.0122673
-0.0206131
-0.00985337
0.00498447
-0.00025557
0.00968844
-0.00310424
-0.00879106
-0.00348082
-0.00457009
-0.00841767
-0.0182523
-0.0125823
-0.000165349
-0.00707887
-0.00948984
-0.00176929
-0.0114254
-0.0114996
0.00116878
-0.0030659
-0.0102789
-0.0146595
-0.00938524
0.0044272
-0.00327781
-0.00498976
-0.00457581
-0.00589471
-0.00545822
0.00816039
-0.00981006
-0.025874
-0.0112365
0.00102328
-0.00887582
-0.00893516
-0.00159576
-0.00243761
-0.00353667
-0.0115855
-0.0186301
-0.00194477
0.00768831
0.000440733
0.00402663
-0.00653926
-0.0122232
-0.00558055
-0.00517129
-0.0122908
-0.0197804
-0.0133195
0.00293173
-0.00668247
-0.017157
-0.00514645
-0.00458916
-0.00504735
0.00285602
-0.00679231
-0.0114225
-0.00910891
-0.0105381
0.00768609
-0.00187618
-0.00661568
-0.000355023
-0.00962454
-0.0184168
0.00418511
-0.00757161
-0.0227709
-0.0118933
6.3271e-05
-0.0048833
-0.0104268
-0.00607396
-0.00727676
-0.00351651
-0.00667525
-0.0168512
0.00377815
0.00591565
0.00076772
0.00321124
-0.00955831
-0.0158789
-0.00564332
-0.00192436
-0.0111955
-0.0193044
-0.011307
0.00477597
-0.00424537
-0.0172749
-0.00837784
-0.00471718
-0.00244875
0.0044745
-0.00955456
-0.018083
-0.0061474
-0.00997052
0.00266644
-0.000664324
-0.00581882
0.00578962
-0.00831236
-0.0171378
-0.00305405
-0.00560796
-0.02284
-0.00987422
0.000712957
-0.0055309
-0.0120698
-0.00635021
-0.00944562
-0.00862278
-0.00569373
-0.0146193
0.00469766
0.00724809
0.0010148
0.00420208
-0.0104478
-0.0180168
-0.00517213
-0.00100886
-0.00946611
-0.0206707
-0.010454
0.00705255
-0.00438862
-0.0150852
-0.00767538
-0.00594053
-0.000987778
0.00777173
-0.0103233
-0.0189218
-0.00876116
-0.00404114
0.00597242
-0.00400774
-0.0090324
0.0072305
-0.00655382
-0.00943645
-0.0032969
-0.00681319
-0.0269924
-0.0101757
0.00529617
-0.00903218
-0.0160944
-0.00737193
-0.0103888
-0.00740357
-0.00676818
-0.0172845
0.00470969
0.00881671
0.000673966
0.000974055
-0.0111599
-0.0177385
-0.00457041
-0.00223919
-0.0080574
-0.0193065
-0.0128223
0.0060719
-0.00563426
-0.0135221
-0.0136839
-0.00798241
-0.00185808
0.0105166
-0.01216
-0.0128473
-0.0125562
-0.00275344
0.0124153
-0.00717485
-0.0173797
0.00590638
-0.00289494
-0.00776453
-0.0013585
-0.00777047
-0.0339069
-0.0129398
0.00696494
-0.00788687
-0.0177917
-0.00749089
-0.0146506
-0.00178458
-0.00617158
-0.0199008
0.00530791
0.0092368
0.00130976
0.00335855
-0.0135308
-0.0117578
-0.00247209
-0.00696673
-0.0105934
-0.0166953
-0.0111323
0.000949041
-0.0138004
-0.0173248
-0.0126968
-0.00828811
-0.00301468
0.0102587
-0.0159885
-0.011585
-0.0129659
-0.00442174
0.0150722
-0.00633673
-0.0177735
0.000870859
0.00144018
-0.00935796
-0.000455514
-0.00870386
-0.034463
-0.0166055
0.00381636
-0.00482337
-0.0170675
-0.00731484
-0.021299
-0.00909814
-0.00573397
-0.0176895
0.00560951
0.00706489
-0.00451004
0.00664764
-0.0142596
-0.0106315
0.0035627
-0.00774433
-0.0131809
-0.0163602
-0.00796298
-0.000233929
-0.017437
-0.0232604
-0.0031288
-0.00411814
-0.00330738
0.00954243
-0.0168874
-0.0168663
-0.0106839
-0.00187636
0.0168173
-0.00207223
-0.0141915
0.00112268
0.00191851
-0.0105698
0.000489864
-0.00789568
-0.0212458
-0.014471
0.00434168
-0.00418628
-0.0169827
-0.0112618
-0.0207097
-0.0118928
-0.00778844
-0.0161388
0.00542668
0.00300794
-0.00397703
0.00316222
-0.0145964
-0.0123454
-0.00101504
-0.00461886
-0.0140061
-0.0161636
-0.0116149
0.000391369
-0.0178188
-0.0266262
-0.0068981
-0.00950602
-0.00286044
0.00416592
-0.0158553
-0.0160506
-0.0133035
-0.00199941
0.0182409
0.00263563
-0.0124143
0.00442657
-0.00452205
-0.0111498
-0.00211754
-0.0050789
-0.0243314
-0.0117483
0.0060919
-0.00245909
-0.0164842
-0.0163433
-0.0159358
-0.0118455
-0.00871472
-0.017685
0.00694059
0.000961419
-0.00334446
0.00726233
-0.0137072
-0.00909341
0.000400132
-0.00883557
-0.0151661
-0.0155504
-0.0129797
0.00100632
-0.0195408
-0.025694
-0.00682245
-0.00973518
-6.52989e-05
0.0115335
-0.0113263
-0.00924757
-0.0150743
-0.00484642
0.0253559
0.00457501
-0.0101207
0.00396716
-0.00561107
-0.0102688
-0.00190258
-0.00215884
-0.022926
-0.0104798
0.00497155
-0.00148098
-0.0153013
-0.0158847
-0.0169081
-0.00942187
-0.00887948
-0.0172009
0.00878149
-0.00116559
-0.0035103
0.00873263
-0.0164065
-0.00733552
0.00300924
-0.0125487
-0.0193598
-0.0191823
-0.0149848
-0.00377653
-0.0180473
-0.0254977
-0.00830816
-0.00805066
-0.00123156
0.0125345
-0.00952569
-0.00985224
-0.0152047
-0.00678927
0.0197622
0.00344277
-0.0103914
-0.0021057
-0.00579202
-0.0101859
0.000443596
-0.00111483
-0.0211464
-0.0101789
0.00303756
-0.00236337
-0.0169479
-0.0176179
-0.0216023
-0.0111618
-0.0104856
-0.0142107
0.00609157
-0.00132938
-0.00317621
0.00595876
-0.0103671
-0.00648657
0.00793056
-0.0103154
-0.0157983
-0.016917
-0.0112425
0.00108901
-0.0179378
-0.026301
-0.0113839
-0.0061222
0.00159429
0.0129616
-0.0102256
-0.0118056
-0.0134268
-0.00412915
0.0205267
0.00419721
-0.00834147
0.0041253
-0.0033402
-0.00904692
0.00221792
0.000443345
-0.0182855
-0.00781566
0.00460899
0.000520944
-0.0153745
-0.0099386
-0.0202663
-0.00847696
-0.00801842
-0.00924049
0.00880905
0.00186938
-0.000129207
-0.00123947
-0.0169767
-0.0119812
0.00190685
-0.0135621
-0.0211157
-0.0213546
-0.0160719
-0.00421289
-0.0233702
-0.0269966
-0.0153386
-0.0119811
-0.00326179
0.00578466
-0.0136356
-0.0127745
-0.0168775
-0.00651272
0.0190115
-0.000792314
-0.0156036
0.000850892
-0.00555598
-0.00835537
-0.000839417
-0.0084443
-0.02033
-0.00959636
0.00189902
-0.00282103
-0.0189902
-0.017679
-0.0220608
-0.0111156
-0.00650645
-0.00646769
0.00742686
-0.00422098
-0.00723831
0.00691504
-0.0139257
-0.00761406
0.0075205
-0.00697037
-0.0137545
-0.0154059
-0.00930886
0.00589518
-0.0150722
-0.0198351
-0.00687867
-0.00705539
0.00205475
0.013393
-0.00727808
-0.0112769
-0.00988924
-0.0010671
0.0223288
0.00518657
-0.00809826
0.00087236
-0.00498839
-0.00726033
0.00323894
0.000249357
-0.0140415
-0.00338159
0.00775012
0.00327316
-0.0127258
-0.0115975
-0.0157048
-0.00440508
-0.00638209
-0.00404991
0.0150235
5.68376e-05
-0.000843995
-0.00352922
-0.0220672
-0.0153858
-0.00128219
-0.015495
-0.0234029
-0.0245809
-0.0179706
-0.0046004
-0.0184767
-0.0268044
-0.0158929
-0.0145948
-0.00627317
0.00318126
-0.0157687
-0.0122426
-0.0182636
-0.0107893
0.0153262
-0.00437374
-0.0170293
-0.00643636
-0.00962792
-0.0140696
-0.00428871
-0.0078071
-0.0222229
-0.0126619
-0.00112517
-0.0051935
-0.0211743
-0.0205185
-0.0226612
-0.0113672
-0.0101435
-0.0105721
0.00637019
-0.00648818
-0.00973869
0.0103753
-0.00803458
-0.0023122
0.0118837
-0.00172908
-0.00916653
-0.0106651
-0.00521671
0.00801332
-0.00994015
-0.0133389
-0.00217018
-0.0016927
0.00693484
0.016878
-0.00250786
-0.00123065
-0.00406365
0.0033476
0.0281161
0.00975269
-0.00292193
0.00719766
0.00262173
-0.00103721
0.00791276
0.00394917
-0.00866839
0.000987692
0.0118247
0.00787815
-0.00738402
-0.00671803
-0.0110124
0.000285428
0.00147901
0.001734
0.0183418
0.00693956
0.00346252
0.000503935
0.000946461
0.000550264
-0.000844218
-0.00030018
0.0013519
0.00112831
0.000855111
0.00201928
0.0016684
0.000911283
0.00149119
0.00118433
0.0012608
0.000725092
0.00205582
0.00415622
0.00317481
0.00295255
0.00371442
0.00265288
0.000647964
0.000471312
0.000834349
0.000315726
0.00144418
0.00171897
0.000955905
0.00258302
0.00182997
-0.00052699
-8.27963e-05
-0.000238456
-0.000581552
-0.000323991
-0.000413379
-0.000627422
-0.000570815
-6.12082e-05
0.000750758
0.000538406
0.00115162
-0.000151599
-0.000927062
0.000394195
0.00142297
0.000668535
0.000735093
0.00196208
0.000440353
-0.00129211
-0.000181176
0.000184515
0.000235224
0.000748327
0.00338417
0.00426029
0.00249211
0.00253235
0.00183348
8.43341e-05
0.000164435
0.00234726
0.00215214
0.00165597
0.00246155
0.000938436
0.00035667
0.00143205
-0.00072156
-0.00248933
-0.00207288
-0.00131357
-0.00133034
-0.00202793
-0.00104894
-0.000612891
-0.00122955
0.000253652
0.00114494
0.000755811
0.000822409
-0.000284973
-4.22903e-05
0.00103598
0.00121153
0.000269676
0.000652267
0.00149996
0.000227993
-0.00160385
0.000304909
0.00147589
0.000889657
0.0013414
0.00358739
0.00251473
0.00203397
0.0047707
0.00457212
0.00272926
0.00276687
0.00318343
0.00104377
0.000705447
0.00109339
1.61075e-05
0.00184384
0.000926608
-0.0015347
-0.00202637
-0.00224163
-0.00125983
-0.00133389
-0.00236458
-0.000903286
-0.000831172
-0.0014264
0.000241705
0.00146603
0.000351782
-0.000481586
-0.00110512
0.000497467
0.00124747
0.000655403
-0.000397599
0.000134926
0.000925829
-0.000358384
-0.00100758
0.000321356
0.00148557
0.00072987
0.00247601
0.0039941
0.00240353
0.00310004
0.00535593
0.00293829
0.00101887
0.00102952
0.00288015
0.00297354
0.00107274
-0.000198125
-0.000394989
0.00108437
-0.000270678
-0.00440298
-0.00554319
-0.00437073
-0.00179073
-0.00110301
-0.00157309
-0.000625363
-0.00056808
-0.000833264
0.000104746
3.97377e-05
0.00135535
-0.00145242
-0.00259358
-0.000170716
0.00124063
0.000286782
-0.000695825
0.000482487
0.00109703
-0.000871368
-0.00227682
-0.00109038
0.000203961
0.00109742
0.00277161
0.00246055
0.000789914
0.00328166
0.00425459
0.00113163
0.00043721
0.000611529
0.000248823
0.00171488
0.000696961
-0.00302258
-0.00245975
-8.85799e-05
-0.00290296
-0.0090733
-0.00896824
-0.00538234
-0.00113829
-0.000142729
-0.00139975
-0.00160554
-0.00220595
-0.00205826
-0.000512616
0.00105652
0.00291814
-0.000611663
-0.00188247
0.000224175
0.00120067
-0.000227018
-0.00132495
0.00109414
0.00249523
-0.000335018
-0.00173483
-0.00264044
-0.00217787
0.000560103
0.00331995
0.00107154
-9.48238e-05
0.00284422
0.00374446
0.00203013
0.00116986
-0.00035364
0.00114797
0.00390904
-0.00147027
-0.00786258
-0.00210944
0.00264184
-0.00450355
-0.0150444
-0.0232991
-0.0109196
-0.00248733
-0.000621705
-0.00375907
-0.00318015
-0.00199331
-0.00133847
-0.00023015
0.00209324
0.00361153
-0.00145274
-0.00332282
0.000925269
0.00240852
-0.000448218
-0.00319606
-0.00113307
0.00107975
-0.000727875
-0.00423361
-0.00608324
-0.00120609
0.00231733
0.00116234
-0.00258028
-0.00297898
0.00170813
0.00311081
0.00313851
0.00486866
0.00106312
0.000210626
0.00167511
-0.00588994
-0.0118335
-0.00448924
-0.0011466
-0.00669187
-0.00887078
-0.00825285
-0.00652861
-0.00487665
-0.00869492
-0.0107636
-0.00428056
-0.00204493
-0.00178672
0.00018542
0.00399584
0.00157137
-0.00234933
-0.00369059
0.000496261
0.00148303
-0.00153337
-0.00725604
-0.00416111
-0.00115589
-0.0041772
-0.00725261
-0.0043972
0.000612983
0.00126588
0.000262625
-0.00359731
-0.00526333
-0.000978932
-0.000331516
-0.000373214
0.00213017
-0.00449452
-0.00722786
0.000833248
-0.00475889
-0.00760955
-0.000213794
0.000445335
-0.00951853
-0.0105716
-0.00698288
-0.00532065
-0.00679399
-0.00992553
-0.00718064
-0.00181461
-0.00473371
-0.00438827
-0.00223573
0.000269303
-0.00171478
-0.00218565
-0.00327524
0.00330515
0.00166454
-0.00633218
-0.00964707
-0.00171205
-0.00133788
-0.00559574
-0.00986076
-0.010854
-0.0028506
0.000966546
3.49065e-05
-0.0061304
-0.00649627
-0.00401974
-0.00336228
-0.00176421
0.00283972
-0.00525796
-0.0105079
-0.00285729
-0.0123829
-0.00721582
0.00384663
-0.000664572
-0.0129038
-0.0133337
-0.0146846
-0.0134695
-0.0118579
-0.0121782
-0.0109706
-0.00294091
-0.00420818
-0.00769606
-0.013108
-0.00680099
0.00766775
-0.00223525
-0.00236942
0.00153365
0.000255044
-0.0119193
-0.00973741
-0.000221922
0.000200908
-0.00368329
-0.0151018
-0.010876
0.00015479
0.000340019
-0.00208844
-0.00459884
-0.00812544
-0.00718524
-0.00467984
3.32568e-05
-0.00480373
-0.011672
-0.00366559
0.00253182
-0.00653176
-0.00347256
0.00523701
-0.00231636
-0.0143117
-0.0112364
-0.0130552
-0.0144077
-0.00689088
-0.00583358
-0.00922002
-0.0114469
-0.0104036
-0.00762249
-0.00358129
-0.00194262
-0.0127619
-0.00915913
-0.00525217
-0.000420033
0.00264718
-0.0115676
-0.0211045
-0.00302662
0.00318468
-0.000916455
-0.0102491
-0.0107575
-0.00568964
-0.000820873
0.000204551
-0.00276734
-0.00726646
-0.00719902
-0.00793374
-0.00306636
-0.00400569
-0.0155782
-0.00670106
0.0083016
0.000802317
-0.0026334
0.00520927
-0.0108022
-0.024105
-0.0115245
-0.0068981
-0.0136562
-0.0117905
-0.0056531
-0.00135685
-0.00523229
-0.0187919
-0.0148179
-0.00501333
-0.00839633
-0.0172782
-0.00799564
-0.00793308
-0.00488256
-0.00157156
-0.0116081
-0.0192364
-0.00355526
0.00018281
-0.00630266
-0.0114201
-0.0105676
-0.00372732
-0.00305894
0.00293909
-0.00194804
-0.00468749
-0.00830486
-0.0121861
-0.00438741
-0.00339634
-0.0146664
-0.00544102
0.000418007
-0.0056806
-0.00416445
0.00508693
-0.00513134
-0.024077
-0.0151472
-0.00797654
-0.0135729
-0.0146085
-0.00787022
-0.000753822
-0.00396684
-0.013142
-0.00842949
-0.0059518
-0.0124827
-0.00297549
-0.003231
-0.00746987
-0.00525764
0.00109065
-0.00950848
-0.00976164
0.000102723
0.000562806
-0.0100468
-0.0156728
-0.017261
-0.0147155
-0.00748121
0.00354544
-0.00151015
-0.01055
-0.0130554
-0.0135131
-0.00223476
-0.00169339
-0.00810532
-0.0040417
-0.000147521
-0.00693442
-0.00944355
0.00811468
-0.00812259
-0.0245723
-0.0130088
-0.0105351
-0.0125989
-0.0146852
-0.00959062
-0.00329253
-0.00499547
-0.0161949
-0.013378
-0.00940403
-0.00875393
-0.000595869
0.00200784
-0.00888818
-0.00176778
0.00300647
-0.013346
-0.0118323
-0.00164917
0.00215355
-0.00497495
-0.00430354
-0.00899953
-0.0186352
-0.01062
4.03795e-05
-0.00189413
-0.00990114
-0.0133094
-0.0136089
0.000724025
0.00405791
-0.00610991
-0.00217709
0.00138006
-0.00335121
-0.0102412
0.00157699
-0.0123579
-0.0188643
-0.00688372
-0.0121872
-0.0111882
-0.00560399
-0.00278287
-0.00470129
-0.00833772
-0.0218878
-0.0192391
-0.0122081
-0.00689442
-0.00351524
-0.00761944
-0.0114249
-0.00199359
0.000756083
-0.0153209
-0.0131355
-0.00564213
0.000995099
-0.00445817
-0.00470333
-0.00736117
-0.00780478
-0.00499476
-0.00471807
-0.00631814
-0.0136732
-0.0154492
-0.012136
-0.003219
0.00155019
-0.00798727
0.000795926
0.00371913
-0.00214924
-0.00467062
0.00299569
-0.0100859
-0.0110107
-0.00393722
-0.0137697
-0.0177653
-0.00576918
-0.00260633
-0.00895223
-0.0172216
-0.0247522
-0.0165017
-0.0108419
-0.00475555
-0.00424072
-0.00740413
-0.0120514
-0.0056615
-0.000213165
-0.00870916
-0.00938389
-0.00747113
-0.00467723
-0.00172564
-0.00472642
-0.0130533
-0.0185979
-0.0124007
-0.00897642
-0.0081602
-0.0214819
-0.0176039
-0.00731221
-0.00281662
-0.00692104
-0.00987568
0.0034666
0.00544241
-0.000760279
-0.00298144
-0.00242473
-0.0108937
-0.00961416
-0.00706397
-0.0166532
-0.0171425
-0.00760514
-0.0104197
-0.010718
-0.0180115
-0.0218554
-0.0129091
-0.00613355
-0.00200166
-0.000201198
-0.00169314
-0.0102692
0.00144169
-0.00182307
-0.0102187
-0.00607532
-0.00692353
-0.00559955
0.00027281
0.004387
-0.0116869
-0.0216552
-0.0126825
-0.00652929
-0.00787747
-0.0189001
-0.0169962
-0.00561934
0.00324265
-0.00754028
-0.0115303
-0.00165025
0.00159978
-0.00306801
-0.00277559
-0.00503332
-0.0133931
-0.0132423
-0.00725691
-0.0177487
-0.0181844
-0.00791294
-0.00796673
-0.00966708
-0.0136359
-0.0221317
-0.0140476
-0.00191749
-0.000811414
-0.00344259
-0.0113375
-0.0131053
-0.00938177
-0.00602175
-0.00704586
-0.00872833
-0.00688833
-0.00396415
-0.00296767
0.00537293
-0.00894818
-0.0165945
-0.0101707
-0.00259277
-0.00910586
-0.0149521
-0.0177637
-0.00725435
0.0040392
-0.00847065
-0.00874255
-0.00373238
-0.00636998
-0.0100009
0.000198521
-0.00791825
-0.0190009
-0.0148612
-0.00421492
-0.0128381
-0.0146093
-0.00505839
-0.00853032
-0.00737445
-0.0132084
-0.0250322
-0.0123762
0.00352842
-0.000197403
-0.00390942
-0.0105533
-0.0146571
-0.00861025
-0.00752299
-0.0117449
-0.0123907
-0.00734849
-0.00620164
-0.00406997
0.00072825
-0.0110617
-0.0191302
-0.0116337
0.000719125
-0.00999183
-0.0177202
-0.0191193
-0.0084859
0.00163657
-0.01059
-0.0188885
-0.00188069
-0.0132292
-0.015898
-0.000590278
-0.00750485
-0.0223221
-0.0229443
-0.00870931
-0.0159794
-0.012116
-0.00893952
-0.0107922
-0.00527606
-0.0161985
-0.0259296
-0.0116448
0.00139919
0.00267557
-0.00775387
-0.00677892
-0.0125802
-0.00349303
-0.00657313
-0.00796012
-0.0111077
-0.00587498
-0.00560362
0.00236674
0.00019909
-0.01532
-0.0207569
-0.0157492
0.00321932
-0.00959559
-0.0218909
-0.0150451
-0.0076753
0.00183736
-0.0121058
-0.016119
-5.48464e-05
-0.0155776
-0.0197462
-0.00341884
-0.00708182
-0.0254298
-0.0239637
-0.00821315
-0.014365
-0.0115943
-0.00828462
-0.0130353
-0.00654592
-0.0144776
-0.0306283
-0.0136672
0.00183768
-0.00261961
-0.0140533
-0.0181281
-0.0133169
-0.00238562
-0.00712898
-0.0105271
-0.0119772
-0.010178
-0.00884105
0.0059877
0.00160213
-0.019384
-0.0331197
-0.0187574
-1.65639e-05
-0.00873519
-0.0225815
-0.0132683
-0.00174992
0.0041187
-0.0197316
-0.0156566
0.00259093
-0.0151163
-0.0206228
-0.00254522
-0.00699731
-0.0267852
-0.0183838
-0.000430074
-0.0107995
-0.0146436
-0.0100604
-0.015126
-0.00794265
-0.00895924
-0.0367296
-0.0134948
0.00682197
-0.00372488
-0.0167031
-0.0242697
-0.0136781
0.00135902
-0.00877636
-0.0118485
-0.0144598
-0.0141112
-0.0082611
0.00645233
0.00407347
-0.0199536
-0.0329493
-0.0175984
0.000659662
-0.00991055
-0.0228694
-0.0138911
0.00160174
0.000263414
-0.0256444
-0.023425
0.000411632
-0.0106042
-0.016751
-0.00185297
-0.00609621
-0.0257197
-0.0157247
0.00152809
-0.0136464
-0.0211708
-0.0148254
-0.0151224
-0.00467127
-0.0134191
-0.0396875
-0.0101724
0.00879808
-0.00277257
-0.0190935
-0.0291063
-0.0132373
-0.00167468
-0.00429289
-0.0127519
-0.0165328
-0.0101079
-0.00477916
0.00803201
0.00766353
-0.0203921
-0.0316979
-0.0144519
0.00252469
-0.0147663
-0.028248
-0.0135133
-0.00228075
-0.000304758
-0.0287262
-0.0282995
-0.00349563
-0.00747731
-0.0155451
-0.00487121
-0.0022721
-0.0236318
-0.0178866
-9.86777e-05
-0.0135798
-0.0207441
-0.0153245
-0.0151234
-0.0117251
-0.0186524
-0.0410429
-0.00719763
0.0168104
-0.00358607
-0.0188787
-0.0324439
-0.0133434
-0.00200918
-0.000280571
-0.0106215
-0.0145644
-0.00954688
-0.00378442
0.00500975
0.00884798
-0.0219956
-0.0320165
-0.012923
0.00502456
-0.0156632
-0.0310471
-0.01152
-0.00317278
-0.00154811
-0.0294977
-0.0288812
-0.00387489
-0.00953546
-0.0184821
-0.00432523
-0.00144155
-0.0225513
-0.0131058
0.000281163
-0.00575224
-0.0136856
-0.0159785
-0.0100661
-0.00794321
-0.0185888
-0.0394606
-0.00274614
0.0181974
-0.00566919
-0.0171191
-0.0317474
-0.0123575
0.00293601
-0.00498187
-0.00972083
-0.0116644
-0.00938527
-0.00295544
0.000883448
0.00579144
-0.0187218
-0.0287417
-0.016068
0.00619627
-0.0138506
-0.0284013
-0.0125205
-0.0052201
-0.00375651
-0.0276297
-0.027882
-0.00412123
-0.0113072
-0.0208349
-0.00878968
-0.00512107
-0.0220818
-0.0122782
-0.000547692
-0.00333034
-0.0155482
-0.0192065
-0.0106765
-0.00356642
-0.019373
-0.0363915
0.00314008
0.0148924
-0.00631191
-0.0179988
-0.0311736
-0.0113253
0.00987276
-0.00521122
-0.014504
-0.0115902
-0.00893822
-0.00339525
0.00569386
0.000911651
-0.012804
-0.0305068
-0.0154163
0.00611653
-0.013911
-0.0262021
-0.0140984
-0.00706161
-0.00544692
-0.0238133
-0.0249913
-0.00330622
-0.0113555
-0.0199118
-0.00874059
-0.00334069
-0.0156312
-0.0142821
-0.00195514
-0.00261109
-0.0181037
-0.0183735
-0.0155527
-0.00280679
-0.0191781
-0.0334415
0.0102991
0.0167051
-0.00528121
-0.0220566
-0.0346331
-0.0136386
0.00482521
-0.00616338
-0.0203979
-0.0193865
-0.0120521
-0.00794698
0.00507662
-0.00247157
-0.0148852
-0.0334206
-0.0208841
0.00390233
-0.0159384
-0.0332586
-0.0153353
-0.00934456
-0.00620562
-0.0222916
-0.0255407
-0.00480422
-0.009958
-0.0182505
-0.00563389
-0.00588485
-0.0173473
-0.0178012
-0.00330195
-0.00123042
-0.0189683
-0.0170061
-0.0186169
-0.00392334
-0.0183047
-0.0315227
0.0100324
0.0187855
-0.00466951
-0.0223387
-0.0346214
-0.0126565
0.00499718
-0.00250151
-0.0156408
-0.0188535
-0.0136919
-0.00652584
0.00823212
0.00567384
-0.0194224
-0.0309069
-0.0183319
0.00538438
-0.0116719
-0.0304202
-0.0155326
-0.00492628
-0.00432589
-0.0194661
-0.0244335
0.0027276
-0.00585084
-0.0178714
-0.00282021
-0.00246324
-0.018691
-0.0126539
-0.00221591
0.00201403
-0.0105937
-0.0146904
-0.0130815
-0.00380521
-0.0166163
-0.0270578
0.0112235
0.0205223
-0.00402434
-0.0261055
-0.0358036
-0.0167502
0.00198615
-0.00677613
-0.0217043
-0.0221801
-0.0144728
-0.00796737
0.00319132
-0.00603628
-0.025124
-0.0296507
-0.0198313
0.00380093
-0.0181067
-0.0347327
-0.0186724
-0.0088777
-0.00593631
-0.0169864
-0.0279712
-0.00138401
-0.0122935
-0.0196847
-0.00908253
-0.00566612
-0.0200022
-0.0194555
-0.003342
-0.00795062
-0.0183688
-0.0191447
-0.0152397
-0.00382636
-0.0193095
-0.0258965
0.010617
0.0186763
-0.00596425
-0.0187297
-0.0351059
-0.010013
0.00790599
-0.0013278
-0.0158043
-0.0192682
-0.0111214
-0.000693315
0.0101996
0.00164929
-0.0171944
-0.0234858
-0.0130766
0.00871562
-0.0100823
-0.0278941
-0.00912358
-0.00254856
0.00227822
-0.0111111
-0.0196398
0.00278487
-0.00712046
-0.0137209
-0.00666219
-0.00454133
-0.0137604
-0.010699
0.000216722
-0.00237798
-0.0127643
-0.0144885
-0.0161645
-0.00160394
-0.016666
-0.0249099
0.0177813
0.0256436
0.00144239
-0.0299491
-0.0371255
-0.0187636
-0.000767706
-0.00942322
-0.023897
-0.0235528
-0.0150095
-0.0103099
0.000168275
-0.00659842
-0.0228916
-0.0285132
-0.0190278
0.00202773
-0.0187552
-0.0380304
-0.0231585
-0.0163807
-0.00633109
-0.0243249
-0.029331
-0.00628934
-0.0162037
-0.0239899
-0.0126464
-0.00881891
-0.0224162
-0.0227013
-0.00754963
-0.00983201
-0.022861
-0.0240973
-0.0215838
-0.00637384
-0.0235172
-0.0320165
0.0094452
0.0159375
-0.00833291
-0.0147711
-0.026035
-0.00513403
0.0125265
0.00357741
-0.010691
-0.0113815
-0.00318983
0.00219057
0.0134136
0.00489121
-0.0126306
-0.0179871
-0.00657272
0.0147859
-0.00612163
-0.0226628
-0.00842143
-0.00218926
0.00679809
-0.0100992
-0.015458
0.00765686
-0.00225288
-0.00979027
-0.000347852
0.0034052
-0.00919485
-0.00706009
0.00515492
0.00281204
-0.0083938
-0.011318
-0.00934303
0.00575549
-0.00990343
-0.0183469
0.0206631
0.0281849