/*--------------------------------*- C++ -*----------------------------------*\
  =========                 |
  \\      /  F ield         | OpenFOAM: The Open Source CFD Toolbox
   \\    /   O peration     | Website:  https://openfoam.org
    \\  /    A nd           | Version:  10
     \\/     M anipulation  |
\*---------------------------------------------------------------------------*/
FoamFile
{
    format      ascii;
    class       surfaceScalarField;
    location    "25";
    object      phi_0;
}
// * * * * * * * * * * * * * * * * * * * * * * * * * * * * * * * * * * * * * //

dimensions      [0 3 -1 0 0 0 0];

internalField   nonuniform List<scalar> 
74080
(
0.000149354
-3.32665e-05
0.000144771
0.000161119
-1.1276e-05
0.00015187
0.000152313
5.97564e-05
0.000187492
0.000165031
-3.59107e-05
0.000206213
0.000171472
-4.29869e-05
0.000194699
0.00016465
-3.54391e-07
0.000180718
0.000161377
3.05167e-05
0.000169162
0.000160333
2.72021e-05
0.000165183
0.000173238
-9.33629e-06
0.000177422
0.000174541
4.61804e-06
0.000181766
0.00016206
2.73784e-05
0.000168006
0.000144316
3.90931e-05
0.000167919
0.000140968
1.54115e-06
0.000175975
0.000158464
-3.92983e-05
0.000191305
0.000166913
-2.8584e-05
0.000200544
0.000173003
-1.25402e-05
0.00018519
0.000161039
1.13249e-05
0.000186849
0.000146954
1.40396e-05
0.000173375
0.000161954
-7.16254e-06
0.000151393
0.000164204
2.50282e-06
0.000164843
0.000156638
1.64324e-05
0.000176805
0.000152132
3.68722e-05
0.000167981
0.000152748
2.81918e-05
0.00016633
0.00016127
1.535e-06
0.000179825
0.000166454
8.05829e-06
0.000171663
0.000162992
2.40312e-05
0.00017434
0.000142046
4.55744e-05
0.000167007
0.00013362
-2.53864e-06
0.00016515
0.000161183
-4.29282e-05
0.000172661
0.000160063
1.85341e-05
0.000190865
0.000154962
2.20368e-05
0.000202646
0.000168809
-1.85292e-05
0.000186458
0.000165604
2.57719e-05
0.000183694
0.000154952
1.07596e-05
0.000187891
0.000160112
4.13732e-06
0.000164516
0.000158448
2.79185e-05
0.000146789
0.000167561
-9.21801e-06
0.000164468
0.000175953
2.32273e-07
0.000179705
0.000160422
3.70691e-05
0.000185141
4.5881e-05
0.000165195
0.00013494
-0.000127179
0.000109347
0.000159882
-6.36959e-05
0.000119726
0.000167971
0.000107474
0.000178494
0.000218226
-0.00016994
0.000220804
0.00021889
-0.00016172
0.000207315
0.000185183
7.12209e-06
0.000173256
0.000177202
8.30595e-05
0.000137499
0.000179054
3.47538e-05
0.000129474
0.000206746
-7.79538e-05
0.000148993
0.000207108
-8.73936e-07
0.00015994
0.000169217
8.42053e-05
0.000134137
0.000122149
0.00011129
0.000132434
0.000122188
-4.19956e-05
0.000157751
0.000167657
-0.000154461
0.00016917
0.000192796
-0.000111961
0.000177123
0.000211653
-4.0511e-05
0.000168032
0.000174898
4.44966e-05
0.000174479
0.000142471
-1.66001e-05
0.000163524
0.00017683
-7.38127e-05
0.000105765
0.000183425
-8.84117e-06
0.000126712
0.000163069
4.18605e-05
0.000152897
0.000144426
8.01415e-05
0.000139808
0.000144019
2.73639e-05
0.000137375
0.000174419
-3.72105e-05
0.00015856
0.000190935
-3.76486e-06
0.000143718
0.000168707
7.07166e-05
0.000145158
0.000113858
9.54903e-05
0.000141288
9.89759e-05
-7.06053e-05
0.000162553
0.000164379
-0.000162625
0.000142596
0.000173943
-1.5665e-05
0.000186966
0.000165053
3.87121e-05
0.00019504
0.000195046
-5.99695e-05
0.00014674
0.000187641
7.92724e-05
0.000164701
0.000167836
-2.65856e-05
0.00019419
0.000179094
-4.14586e-05
0.000135461
0.000165839
6.21723e-05
9.26124e-05
0.000185392
-9.24274e-05
0.000139322
0.000214934
-5.70504e-05
0.000181918
0.000178677
0.000105986
0.000172856
7.95553e-05
0.000137022
0.000131482
-0.000152999
7.58912e-05
0.00013693
-8.80923e-05
8.66513e-05
0.000173497
8.11575e-05
0.000158955
0.000295321
-0.000328868
0.000214961
0.000299442
-0.000313029
0.000238858
0.000222758
4.14233e-05
0.00018441
0.000199369
0.000153172
0.000113788
0.00018838
4.44746e-05
0.000104985
0.000219442
-0.000178591
0.000134577
0.000223028
-2.05208e-05
0.000133263
0.000167975
0.000154698
9.91936e-05
9.76044e-05
0.000184415
0.000118822
0.000106389
-0.000100499
0.00015171
0.000185866
-0.0002644
0.00014593
0.000228068
-0.000234036
0.000159022
0.000256629
-8.39704e-05
0.000153274
0.00021752
8.49442e-05
0.000148317
0.000187379
-9.36736e-05
0.000179803
0.000215887
-0.000202214
0.000129298
0.000211563
-3.32824e-05
0.000106786
0.000182478
6.47562e-05
0.00013412
0.000144343
0.000136797
0.000138017
0.000132827
2.72371e-05
0.000137583
0.000184877
-9.46379e-05
0.000143668
0.000211777
-2.85691e-05
0.000121657
0.00015888
0.000131485
0.000124027
7.6336e-05
0.000136183
0.000143079
7.49454e-05
-0.000138166
0.000167486
0.000172522
-0.000317133
0.000146442
0.000176214
-8.07367e-05
0.000183786
0.000164248
3.76844e-05
0.000177167
0.000219992
-0.000142294
0.000104952
0.000217067
0.000134404
0.000130907
0.000198896
-6.03026e-05
0.000182765
0.000218224
-0.000118165
0.000131062
0.00017383
0.000108602
7.05476e-05
0.000194637
-0.000210127
0.000133433
0.000247284
-0.000156975
0.000188088
0.000208148
0.00017007
0.000159401
0.000109956
0.00013522
0.000188448
-0.000161322
7.2634e-05
0.000153479
-7.58456e-05
4.02996e-05
0.000170333
1.86519e-05
0.000137905
0.000328746
-0.000469222
0.0001802
0.000371222
-0.000472176
0.000233494
0.000272216
9.84648e-05
0.000190728
0.000227367
0.00024297
9.74384e-05
0.00019834
6.79904e-05
9.09682e-05
0.000220638
-0.000264737
0.000130672
0.00021948
-3.84916e-05
0.000109604
0.000157932
0.000224761
7.60385e-05
8.26699e-05
0.000229719
0.000130992
0.000102735
-0.000160405
0.000150265
0.000212474
-0.000339475
0.000128925
0.000272981
-0.000377933
0.000158507
0.000298246
-0.000143773
0.000148197
0.00027005
0.000129472
0.000116211
0.000282685
-0.000176089
0.000174446
0.000295728
-0.000351436
0.000183196
0.00025373
-4.71129e-05
0.000104572
0.000216865
8.58644e-05
0.000120056
0.000173289
0.000196766
0.000151963
0.000143098
4.68738e-05
0.000151852
0.00019787
-0.000138694
0.000130434
0.000235596
-5.52909e-05
0.000100032
0.00014886
0.000206649
0.000118411
6.076e-05
0.000155512
0.000154646
9.41229e-05
-0.000227207
0.000177937
0.000187581
-0.000477963
0.000173829
0.000158574
-0.000117132
0.000170184
0.000167114
-3.70615e-05
0.000178697
0.000250063
-0.000303799
0.000115144
0.000238058
0.000163513
0.000115147
0.000230763
-6.05007e-05
0.000148822
0.000262427
-0.000158925
9.55255e-05
0.000192906
0.000179561
5.43485e-05
0.000202996
-0.000301003
0.00012295
0.000256444
-0.00026438
0.00017351
0.000237984
0.000210111
0.000140607
0.000104478
0.000149332
0.000234452
-0.000143266
8.26555e-05
0.000197924
-4.26834e-05
3.69677e-06
0.000205273
5.231e-06
0.000119846
0.00034641
-0.000559103
0.000135629
0.000409298
-0.000605635
0.000201048
0.000313468
0.000161025
0.000186585
0.000270979
0.000328856
8.1148e-05
0.00025264
6.80474e-05
7.65913e-05
0.000246994
-0.000308159
0.000122981
0.000205183
-1.63552e-05
9.47842e-05
0.000143156
0.000271136
7.68121e-05
9.38156e-05
0.000209272
0.000155376
0.000124431
-0.000251231
0.000152975
0.000248858
-0.000420874
0.000115223
0.000332819
-0.000526025
0.000155835
0.000337585
-0.000198175
0.000144989
0.000289401
0.000192162
8.4995e-05
0.000328329
-0.000209237
0.000166817
0.000359376
-0.000457032
0.000202503
0.00030565
-5.18315e-05
0.000105544
0.000262052
0.000119321
0.00010908
0.000233438
0.000226443
0.000160098
0.000191912
6.87726e-05
0.000173026
0.000228498
-0.000143423
0.000121916
0.000273806
-7.25491e-05
6.66085e-05
0.000190037
0.000266212
0.000118603
0.000108503
0.000178482
0.000144278
0.00015001
-0.000338792
0.00018349
0.000197133
-0.00058763
0.00018486
0.000151553
-8.28125e-05
0.000149284
0.000206132
-0.000192603
0.000195388
0.000285243
-0.000494984
0.000159897
0.000263213
0.000154045
0.000130646
0.00026842
-3.99898e-05
0.000129043
0.000296744
-0.000129597
5.75654e-05
0.000236255
0.000233909
3.8227e-05
0.00023179
-0.000334158
0.000106524
0.00024798
-0.000338612
0.000142637
0.000257115
0.000238729
0.000119866
8.48653e-05
0.000153953
0.000265766
-7.89483e-05
7.88859e-05
0.000236477
-6.00582e-06
-2.09779e-05
0.000262268
-1.07742e-05
0.000100616
0.000380917
-0.000629803
0.000100289
0.000427282
-0.000707478
0.000169277
0.000359176
0.000197165
0.000192235
0.000335485
0.000376981
7.41931e-05
0.000340471
4.53837e-05
6.3642e-05
0.000299511
-0.000304059
0.000108475
0.000200511
6.15847e-05
9.04618e-05
0.000139835
0.000289702
9.42997e-05
0.000140483
0.000122433
0.000179551
0.000167706
-0.000345539
0.000156004
0.000283819
-0.000494258
9.83731e-05
0.000400523
-0.000675643
0.000138142
0.00036909
-0.000208249
0.000132887
0.000288422
0.000266256
5.60053e-05
0.000311873
-0.000233771
0.000168734
0.00036397
-0.000506952
0.000193555
0.000346025
-6.52838e-05
8.86408e-05
0.000310883
0.00016221
0.000101545
0.000286553
0.000238196
0.00016267
0.000253002
5.17377e-05
0.000202843
0.00027378
-0.0001268
0.000142391
0.000302566
-6.8045e-05
3.17399e-05
0.000249536
0.000238663
0.00011678
0.000170988
0.00018663
0.000130034
0.000185509
-0.000418307
0.000165514
0.000199954
-0.000631216
0.000172917
0.00021759
-7.20305e-05
0.000134497
0.000320667
-0.000358187
0.000174592
0.000330067
-0.000607324
0.000177824
0.000303418
0.000136546
0.000136551
0.000325137
-1.00906e-05
0.000131277
0.000336855
-5.51744e-05
5.34679e-05
0.000287726
0.00025527
3.63066e-05
0.000265547
-0.00031159
0.000105986
0.000246273
-0.000366995
0.000125118
0.000277529
0.000255921
9.99681e-05
9.30235e-05
0.000130466
0.000347429
-2.35852e-05
7.54503e-05
0.000301544
2.81258e-05
-1.9046e-05
0.000314317
-1.83089e-05
6.85944e-05
0.000393808
-0.000701304
8.42188e-05
0.000417457
-0.000824362
0.000146139
0.000407866
0.000149202
0.000219442
0.000401545
0.000384559
8.96522e-05
0.000414512
4.46263e-05
4.89022e-05
0.000361352
-0.000261132
8.70726e-05
0.000236138
0.000167587
9.7971e-05
0.000164564
0.000315941
0.000114819
0.000203715
7.88323e-06
0.00018749
0.000217224
-0.000374639
0.000143588
0.000294519
-0.00048396
7.14892e-05
0.000435838
-0.000784742
0.000108807
0.00037144
-0.000214814
0.000121224
0.000285386
0.000303981
5.31341e-05
0.000305217
-0.000243301
0.000146857
0.000356617
-0.000515845
0.000162738
0.000380092
-7.57539e-05
4.80609e-05
0.000363193
0.000201361
9.1846e-05
0.000316613
0.00028
0.000164921
0.00028398
1.02873e-05
0.000218773
0.000307963
-0.000139458
0.000179
0.000327278
-5.60806e-05
1.24863e-05
0.000284736
0.000148708
0.000120198
0.000215899
0.0001408
0.000144425
0.000196278
-0.00044655
0.000141063
0.000210368
-0.000670836
0.000156996
0.00030416
-0.000175479
0.000105602
0.000416569
-0.000497072
0.000138671
0.000382436
-0.000639833
0.000180684
0.000358732
0.000114088
0.000125458
0.000397823
8.98513e-06
0.000144855
0.000390694
3.72096e-05
8.6101e-05
0.000338139
0.000292941
4.59899e-05
0.000300184
-0.000242714
0.000118074
0.000229276
-0.000338708
0.000137467
0.000263684
0.000239775
8.04667e-05
0.000103953
9.6565e-05
0.000424904
3.31403e-06
6.50716e-05
0.00041241
3.04631e-05
-3.03653e-05
0.000415081
1.40242e-05
2.51831e-05
0.000424517
-0.000653475
8.5565e-05
0.000406409
-0.000887562
0.000116649
0.00044616
-3.88056e-06
0.000252206
0.000463524
0.000354585
0.000109214
0.000473859
5.06697e-05
3.03825e-05
0.000430949
-0.000230708
7.35844e-05
0.00030711
0.00026899
0.000112381
0.000216752
0.000366035
0.000126014
0.000263591
-8.1875e-05
0.000138883
0.000291839
-0.000335599
8.35747e-05
0.000307743
-0.000399409
1.1866e-05
0.000459442
-0.000801635
4.22371e-05
0.000423236
-0.00034857
0.00012851
0.000330341
0.000343603
5.44557e-05
0.000347034
-0.000199715
0.000126142
0.000388026
-0.000499368
0.000150496
0.000426351
-3.78555e-05
6.9695e-06
0.000412798
0.000257237
8.64028e-05
0.000339785
0.000337958
0.000161401
0.000304817
-4.86125e-05
0.000212911
0.000344193
-0.000204264
0.000221055
0.000336852
4.47761e-05
-3.11278e-06
0.000291531
0.000138358
9.58664e-05
0.000292938
4.85857e-05
0.000155526
0.000244558
-0.000388086
0.000112407
0.000274127
-0.000739589
0.000177577
0.000415358
-0.000321288
2.04205e-05
0.000462616
-0.000519069
3.75865e-05
0.000418796
-0.000590481
0.000145485
0.000399902
0.000110394
9.221e-05
0.000463139
-6.33177e-06
0.000139099
0.000458319
9.1433e-05
0.000114429
0.000401046
0.000361863
5.61763e-05
0.000336649
-0.000134059
0.000109344
0.000217154
-0.000289742
0.000169854
0.000246528
0.000203433
7.71067e-05
0.000100983
7.27603e-05
0.000472414
3.0059e-06
5.7095e-05
0.000558672
-1.88891e-05
-6.40187e-05
0.000582185
-2.64445e-05
4.99166e-06
0.000514712
-0.000507664
8.0136e-05
0.000438642
-0.000826735
7.64871e-05
0.000482649
-0.000219391
0.000276641
0.000526531
0.000289801
0.000117335
0.000544693
5.57595e-05
1.83012e-05
0.000508574
-0.000204967
7.55569e-05
0.000401302
0.000332673
0.000136794
0.000317354
0.000390273
0.00013492
0.000337392
-9.35367e-05
5.77271e-05
0.000392091
-0.00024328
-8.8159e-06
0.000390552
-0.000282109
-8.08151e-05
0.000497283
-0.000677287
-5.20117e-05
0.000501054
-0.000467365
9.34279e-05
0.000419506
0.000392103
3.29407e-05
0.000409616
-0.000159923
0.000122054
0.000429587
-0.000488437
0.000169278
0.000453898
3.80081e-05
2.54629e-06
0.000442784
0.000296834
9.16589e-05
0.000402984
0.000345092
0.000158758
0.000358864
-9.90309e-05
0.000210127
0.000374391
-0.000322035
0.000271345
0.000378517
0.000154086
-3.27099e-06
0.000352707
0.000230535
4.38512e-05
0.000365135
2.40311e-05
0.000144636
0.000311639
-0.00027635
9.56655e-05
0.000364779
-0.000786004
0.000219321
0.000533318
-0.000419694
-8.36298e-05
0.00056282
-0.000492891
-7.61205e-05
0.000488938
-0.000522795
8.4237e-05
0.000439044
0.000169293
5.36241e-05
0.000512751
-3.78511e-05
0.000129738
0.00053017
9.23291e-05
0.000137889
0.000477059
0.000446739
7.07929e-05
0.000397084
-2.52145e-06
4.67364e-05
0.000262637
-0.000243981
0.00019324
0.000283139
0.000131482
0.000149426
6.50209e-05
9.38678e-05
0.000513105
-2.05035e-05
7.35439e-05
0.00066233
-6.96314e-05
-0.000113268
0.00070674
-9.18259e-05
-3.65591e-05
0.000602789
-0.000325012
4.2296e-05
0.000510036
-0.00071197
3.5047e-05
0.00053513
-0.000409911
0.000270786
0.000588344
0.000240119
0.000103355
0.0006252
2.06984e-05
2.8208e-05
0.000571752
-0.00016573
6.96799e-05
0.000486133
0.00035208
0.000150489
0.000439132
0.000330204
0.000160276
0.000404971
-1.1151e-05
3.07996e-06
0.000456741
-0.000114715
-5.37305e-05
0.000496783
-0.000178204
-0.000121372
0.000551156
-0.000498866
-8.5786e-05
0.000566707
-0.000485631
6.03052e-05
0.000547399
0.0003837
-2.5524e-05
0.000505813
-9.53167e-05
0.00011302
0.000476867
-0.000421996
0.000206374
0.000477521
0.000120611
5.36219e-07
0.000473274
0.000257876
7.09198e-05
0.000519156
0.000335061
0.000150045
0.000468933
-0.000105836
0.000226555
0.000427321
-0.00047468
0.000319979
0.00045801
0.000138132
7.43877e-05
0.000422144
0.000364012
5.37266e-06
0.000403267
7.59392e-05
0.000135899
0.000350011
-0.000154066
0.000107455
0.000390321
-0.000742196
0.000132299
0.000592736
-0.000530458
-0.000125948
0.000632396
-0.000457362
-8.50519e-05
0.000528927
-0.000424383
7.78189e-05
0.000487716
0.000239291
3.36358e-05
0.000560273
-7.41129e-05
9.21771e-05
0.000573193
0.000105727
0.000146957
0.000543465
0.000501813
9.51145e-05
0.00049565
0.000141358
-4.36513e-05
0.000354368
-0.000123458
0.000121015
0.000366494
1.10356e-07
0.000248734
-9.91105e-06
0.000156289
0.000645479
-5.1557e-05
8.57001e-05
0.000764955
-0.000102247
-0.000132215
0.000777272
-8.2585e-05
-0.000101414
0.000676783
-0.000101764
-8.62917e-06
0.000583165
-0.000555095
1.52188e-06
0.000551113
-0.000487582
0.000277423
0.000613026
0.000224137
9.56809e-05
0.000695861
-5.32011e-05
4.90531e-05
0.000631298
-0.000133729
6.9157e-05
0.000573338
0.000317256
0.000165014
0.000566939
0.000201428
0.00017946
0.000483307
0.000112044
-1.88354e-05
0.000524107
1.85537e-05
-3.44591e-05
0.000590281
-0.000114452
-0.000122003
0.000625076
-0.000367616
-3.30188e-05
0.000647665
-0.000522335
0.00010834
0.000648341
0.000342286
-3.66891e-05
0.000588747
1.72057e-05
0.000112258
0.000567139
-0.000354882
0.000240241
0.000592942
0.000112443
1.20787e-05
0.000558072
0.000231361
1.15068e-05
0.000597457
0.000381569
0.000145141
0.000557908
-0.000110049
0.00026185
0.000511396
-0.000632963
0.000322946
0.000542454
5.00913e-05
0.000158144
0.000449346
0.000505292
3.22968e-05
0.000411503
0.000138589
0.000155212
0.000437774
-0.000126681
0.000107448
0.000466702
-0.000616042
2.56429e-05
0.000673667
-0.000680508
-6.2479e-05
0.000693179
-0.000462398
-2.0949e-05
0.000546675
-0.000284322
0.000158221
0.000553834
0.000268639
4.26667e-05
0.000625171
-8.83245e-05
4.29547e-05
0.00062198
0.000137936
0.000134686
0.000587529
0.000526209
0.000136083
0.000577598
0.000265731
-1.86559e-05
0.000493803
1.08483e-05
1.49078e-05
0.000518899
-0.000130757
0.000212571
-0.000127531
0.000147078
0.000789753
-5.78697e-05
5.21951e-05
0.000853741
-6.96036e-05
-0.000160844
0.000858522
-6.24501e-05
-0.000119172
0.000779501
9.0205e-05
-2.86933e-05
0.000663804
-0.000344362
-6.8457e-06
0.000561503
-0.000445158
0.000293089
0.000642363
0.000183231
0.000114115
0.000768849
-0.00015995
6.55926e-05
0.000726352
-0.000143067
8.04262e-05
0.000709756
0.000195351
0.000184346
0.000712548
7.29478e-05
0.000188661
0.000564906
0.000241596
4.53705e-05
0.000586892
0.000113093
8.20063e-05
0.000689016
-8.86722e-05
-0.000118201
0.000704773
-0.000262645
-4.91023e-05
0.000740335
-0.000567015
0.000113604
0.000747086
0.000235457
-6.83819e-06
0.000685736
0.000118
0.00012243
0.000665049
-0.000269432
0.000226216
0.00069858
8.28965e-05
5.95649e-05
0.000702684
0.000197799
-4.52544e-05
0.000712611
0.000441856
2.86901e-05
0.000640608
-6.35704e-05
0.000181659
0.000579317
-0.000748413
0.000303449
0.000567945
-2.46268e-05
0.000179005
0.000453937
0.000631981
5.24809e-05
0.000421618
0.000204004
0.000153924
0.000517251
-0.000180461
0.000114313
0.000547619
-0.000476424
3.4031e-05
0.000733048
-0.000747607
-4.09726e-05
0.000759352
-0.000456448
-5.16986e-06
0.000637857
-0.000209145
0.000206836
0.000651401
0.000244591
6.1718e-05
0.000640717
-1.80201e-05
6.17685e-05
0.000658941
0.000121173
0.000154818
0.00063442
0.000521683
0.000160958
0.000598473
0.000388353
6.73647e-05
0.000595997
5.41941e-05
1.54839e-05
0.000670262
-0.000253131
7.70815e-05
-0.000272195
5.44435e-05
0.00089679
-8.48548e-05
2.53993e-05
0.000935082
-2.98709e-05
-0.000164151
0.000936687
-3.72162e-05
-0.000134996
0.000860871
0.000230002
-2.49923e-05
0.000755811
-0.00010037
-9.22924e-06
0.000649178
-0.000375048
0.000253282
0.000736295
6.50593e-05
7.40555e-05
0.000852521
-0.000227545
9.57019e-06
0.000804423
-0.000181846
0.000103012
0.000796781
6.99653e-05
0.000182638
0.000827503
-2.42719e-05
0.000177662
0.000647838
0.000318272
0.000148116
0.000632713
0.000187367
0.000180009
0.000759149
-8.0892e-05
-0.000119633
0.000777047
-0.000185408
-5.13255e-05
0.000825022
-0.000538074
3.88455e-05
0.000842133
8.83888e-05
-6.41935e-06
0.00078841
0.000137401
0.000157617
0.000753661
-0.000179439
0.000184919
0.000756115
0.000176892
0.000112543
0.000784634
0.000258719
-6.61897e-05
0.000870014
0.000462036
-0.000105569
0.000795184
3.92494e-06
1.83768e-05
0.00069278
-0.000767949
0.000248141
0.000683013
-0.000102815
0.000169424
0.000566761
0.000775919
1.49286e-05
0.000525737
0.00030996
0.000123174
0.000610902
-0.000226579
0.000167055
0.000647139
-0.000393846
9.56059e-05
0.000772739
-0.000689182
-9.28732e-05
0.00074767
-0.000348633
-2.49938e-05
0.000665855
-0.000163033
0.000171023
0.00068757
0.000159666
6.72427e-05
0.000635367
-3.61972e-06
0.000143594
0.000690188
2.88102e-05
0.000192464
0.000684468
0.000458544
0.000189855
0.000636896
0.000517323
0.000109478
0.000670129
5.70163e-05
2.98413e-05
0.000769961
-0.000408661
4.41603e-05
-0.000428017
-1.22566e-05
0.000960089
-0.000171734
4.02831e-05
0.00104418
-0.000112759
-0.000117827
0.000997658
9.21592e-05
-0.000193028
0.000928344
0.000309539
-2.27154e-05
0.000852337
0.000157599
-1.99167e-05
0.000730143
-0.000259217
0.00021015
0.000840321
-8.85514e-05
2.65696e-05
0.000943611
-0.000217165
-6.07477e-05
0.000870643
-0.000203549
0.000146002
0.000862345
-7.95445e-06
0.000174312
0.000864824
-4.67074e-05
0.000113432
0.000705667
0.000309326
0.000198889
0.00070006
0.000271538
0.000201614
0.000813959
2.332e-05
-0.000122048
0.000851531
-0.000100765
-5.01441e-05
0.000888269
-0.000474585
-1.31205e-05
0.00087904
6.59022e-06
5.59903e-05
0.000835631
6.85112e-05
0.000177416
0.000808291
-0.000126842
0.000180517
0.000764546
0.000405112
0.00012553
0.000785375
0.000436956
-0.000135824
0.000968612
0.000467072
-0.00021144
0.000968177
9.59692e-05
-0.000150088
0.000859724
-0.000703526
0.000196363
0.000845529
-0.000158857
0.000212355
0.000738591
0.000904602
-1.83441e-05
0.000719586
0.00041504
5.62458e-05
0.000763709
-0.000221094
0.000122412
0.000743417
-0.000296979
0.000113101
0.000850646
-0.00057036
-9.73535e-05
0.000891174
-0.000300811
-8.71608e-05
0.00083664
-0.000123345
3.9012e-05
0.000767348
0.000204336
2.98743e-05
0.000655351
3.02676e-06
0.000225647
0.000700777
-0.000125491
0.000250484
0.000710994
0.00028167
0.000254163
0.000745846
0.000548852
0.000126354
0.000760065
0.000154288
-5.54593e-05
0.000758038
-0.000449398
7.4461e-05
-0.000499261
4.70619e-06
0.000931484
-0.00025016
5.71504e-05
0.000964736
-0.000153866
-3.47948e-05
0.00101952
0.000169561
-0.000194456
0.00114682
0.000203141
-3.53603e-05
0.00109873
0.000284554
-1.54561e-05
0.000916738
-4.06258e-05
0.000175305
0.000977465
-5.59386e-05
-4.97519e-05
0.000976246
-5.20515e-05
-8.79605e-05
0.000912137
-0.00019292
0.000205347
0.000955283
-9.57556e-06
0.000143765
0.000903359
-1.06905e-05
8.11088e-05
0.000773344
0.000287982
0.000198465
0.000763459
0.000356754
0.000228101
0.000878653
0.0001633
-2.55884e-05
0.000987468
-4.06951e-05
-0.000118178
0.000999422
-0.000437673
-6.68954e-05
0.000930449
8.6694e-06
7.91123e-05
0.000851939
2.6556e-05
0.00012426
0.000860317
-0.000106782
0.000260521
0.000744973
0.000689526
0.000185119
0.00076989
0.000567269
-4.14085e-05
0.00111032
0.000268307
-0.000239482
0.00117064
0.000111579
-0.000157287
0.00093898
-0.000494592
0.000227019
0.000813081
-0.000156244
0.00030343
0.000800728
0.000868011
0.000105256
0.000853828
0.000396261
3.10023e-05
0.000901463
-0.000231294
6.01968e-05
0.000885383
-0.000244312
0.000103075
0.000961803
-0.000448589
-1.3434e-05
0.00100619
-0.000288559
-3.25722e-06
0.000998311
-0.000118722
-5.1607e-06
0.000904174
0.000267603
1.89856e-06
0.000750472
8.71792e-05
0.000241116
0.000767541
-0.000249924
0.000250607
0.00079111
4.78417e-05
0.000347214
0.000886839
0.000535437
0.000140154
0.000875849
0.000352639
-0.000167255
0.000746481
-0.000352386
8.44569e-05
-0.000551599
0.000127449
0.00102126
-0.000246074
2.96816e-05
0.0010829
-0.000146992
-2.34125e-05
0.00118688
0.000182006
-0.000129436
0.00125786
0.000167857
3.80341e-05
0.00109522
0.000444773
0.000126529
0.000901879
0.000172316
0.000257619
0.000969681
-2.37411e-05
8.86818e-06
0.00098369
0.000118895
-0.000101949
0.000881701
-0.00012977
0.00024956
0.000950446
3.49731e-05
0.000179492
0.000985558
4.89135e-05
8.9755e-06
0.000866861
0.000334934
0.00010362
0.000797024
0.000390894
0.000325186
0.000933075
0.000251212
5.02915e-05
0.00102367
0.000111622
-0.000191887
0.00108108
-0.000461022
-1.75076e-05
0.00111418
-7.99374e-05
6.93682e-05
0.000898332
0.000164215
8.88565e-05
0.00076463
-6.29541e-05
0.000392579
0.000779705
0.000735744
0.000274663
0.000942825
0.000482689
-1.08e-05
0.00120815
0.000120451
-0.000209601
0.00128469
0.000130621
-6.84172e-05
0.00103383
-0.000324102
0.000288927
0.000807929
-0.000134195
0.000358562
0.000883287
0.000677387
8.77882e-05
0.00100424
0.000326102
-5.39062e-05
0.000996291
-0.000141773
3.8923e-05
0.000983668
-0.000163799
7.1818e-05
0.00105867
-0.000284602
-3.77388e-05
0.00101271
-0.000173104
2.83115e-05
0.000989712
-6.54943e-05
-2.60735e-05
0.000941161
0.000251497
1.04093e-05
0.000896452
7.94988e-07
0.000305995
0.000882318
-0.000287006
0.000226819
0.000820854
-3.84358e-05
0.000278197
0.000982351
0.000421635
0.000109129
0.00108855
0.000451143
-0.000286332
0.000948684
-0.000227411
1.76991e-06
-0.000569811
0.000230436
0.00107818
-3.79059e-05
1.44499e-05
0.00117619
-5.6708e-05
-0.000121408
0.00131457
0.000179247
-0.000168455
0.00125594
0.000193974
7.23634e-05
0.00120368
0.000579731
6.0382e-05
0.00122701
0.000261406
0.000167951
0.00115588
3.45522e-06
0.000156236
0.000979029
0.000317861
1.01965e-05
0.000904051
-0.000105006
0.00026053
0.00103569
1.41174e-05
0.000240378
0.00115634
4.05183e-05
4.61087e-05
0.00107279
0.000423738
0.000111506
0.000940511
0.000507279
0.00032487
0.000948278
0.000402684
0.000130433
0.00107198
0.000351466
-0.000152617
0.00117271
-0.000390811
-0.000105045
0.00126677
-0.000134827
-1.27352e-05
0.00113045
0.000359846
4.22005e-05
0.000770599
0.000153978
0.000378915
0.000770515
0.000569845
0.000403323
0.000988295
0.000256667
0.000154631
0.0011639
7.58903e-05
3.6641e-06
0.00129339
0.000117087
2.996e-05
0.00122572
-0.000342139
0.000277254
0.00109884
-0.000195887
0.000349255
0.00104444
0.000614091
0.000135776
0.00113354
0.000298683
-1.66522e-05
0.00109485
-2.42886e-05
5.21443e-05
0.00100153
-4.67006e-05
0.0001275
0.00123581
-0.00027388
-0.000150926
0.00121567
-8.73594e-05
-0.000104765
0.00102621
0.000121116
-2.82082e-05
0.000938247
0.000275003
9.86803e-05
0.000902383
-0.00012367
0.000308612
0.00100513
-0.000400859
0.000144059
0.000851695
-1.17484e-05
0.000264672
0.000868386
0.000418896
0.00025439
0.00129612
0.0001632
-0.000260525
0.00135999
-0.000308626
-0.000123473
-0.000342786
0.000175995
0.00115856
-3.57826e-05
5.11546e-05
0.00122831
5.75004e-05
-9.73714e-05
0.00127191
0.000326941
-0.000132872
0.00150343
4.76426e-05
0.000117412
0.00172744
0.000342109
-3.39061e-06
0.00158276
0.000318625
0.00022486
0.00135382
0.000213084
0.000219788
0.00117278
0.000458271
4.25696e-05
0.000985962
-3.23459e-05
0.00021538
0.00108709
-4.70914e-05
0.000203144
0.00126805
-7.85319e-05
6.57906e-05
0.00115337
0.000570344
7.63152e-05
0.00111952
0.000650205
0.00028541
0.00126943
0.000458895
0.000102271
0.00138235
0.000509838
-6.45508e-05
0.00130711
-0.000247971
9.90263e-05
0.00136755
-8.62129e-05
-4.5022e-05
0.00126439
0.000459417
-4.84665e-05
0.000922692
0.000296666
0.000415697
0.00105231
0.000165848
0.000550981
0.00119543
1.8691e-05
0.00028505
0.0011957
0.000196124
0.000133286
0.00113391
0.00029244
0.000202829
0.000975311
-0.000316415
0.000389187
0.000995405
-0.000316222
0.000239833
0.00113618
0.000435191
2.66535e-05
0.00117657
0.000257414
6.39592e-05
0.00111776
0.000196858
6.10496e-05
0.00117651
7.26109e-05
7.0178e-05
0.00148095
-0.000382576
-9.81257e-05
0.00137738
-6.63494e-05
-2.86913e-05
0.00114908
0.000300068
-6.2635e-06
0.00110017
0.000374064
7.68251e-05
0.00101496
-7.23124e-05
0.000203036
0.00112268
-0.000475472
3.30972e-05
0.00104844
3.02805e-06
0.000222979
0.00109762
0.000404209
0.000197813
0.00124847
6.90268e-05
-0.000254165
0.00103342
-0.000206166
3.02869e-05
-0.000279414
0.000242765
0.00137895
-0.000165746
0.000127026
0.00147418
0.000261442
-9.68896e-05
0.00157667
0.000405388
-5.98215e-05
0.00154271
0.000143347
0.000249903
0.00147854
0.000483194
0.000105681
0.00131782
0.000320187
0.000410717
0.0012987
0.000259975
0.000327926
0.00127511
0.000530243
1.54265e-05
0.00103499
0.000145837
0.000196739
0.00109331
-5.96995e-05
0.000274223
0.00132824
-0.00028899
8.85811e-05
0.00135743
0.000501142
4.68e-05
0.00124593
0.000740249
0.000283265
0.00122224
0.000608948
0.000110831
0.00146944
0.000547811
-4.60053e-05
0.00144301
-0.000140592
0.000142492
0.00136703
-3.57385e-06
-1.19257e-06
0.00128739
0.000597339
-6.77829e-05
0.00112369
0.000397788
0.000252636
0.00110652
-3.9035e-05
0.000373587
0.00100138
-8.67948e-05
0.000460734
0.00130567
3.23661e-05
0.000221825
0.00158906
0.000202048
1.96542e-05
0.00149535
-0.000290479
0.000335019
0.00138023
-0.000284317
0.000240702
0.00120786
0.000568259
8.104e-05
0.00130591
0.000224861
0.000124775
0.00147617
0.000192345
1.27181e-05
0.001493
0.000174127
9.85372e-05
0.0015666
-0.00024945
-6.74433e-05
0.00136602
8.88393e-05
-2.3125e-06
0.00128286
0.00034931
8.82628e-05
0.00135388
0.000526724
-0.000153492
0.00122154
0.000123278
5.19379e-05
0.0012342
-0.000466502
0.0001924
0.00135917
-0.000136381
0.000178002
0.00139272
0.000349301
0.000156357
0.00108132
0.000474299
-9.55314e-05
0.000822647
5.66859e-05
0.000149114
-0.000475662
0.00032315
0.00137311
-0.000177971
0.000103028
0.00139198
0.000362702
-7.52992e-05
0.00140911
0.000500828
-0.000123399
0.00166724
2.463e-06
0.000125181
0.00175039
0.000361321
3.20341e-05
0.00132603
0.000460355
0.000348237
0.00135761
0.00032179
0.000421757
0.0016715
0.000445539
8.12331e-05
0.00143831
0.000427006
0.000124873
0.00135628
0.000116832
0.000222126
0.00147432
-0.000307967
5.24824e-05
0.00144718
0.000375759
7.07719e-05
0.00138322
0.000715888
0.000231424
0.00152403
0.000487693
9.32433e-05
0.00183969
0.000331204
4.52399e-06
0.00179805
-2.45635e-05
0.000167849
0.00175489
1.23041e-05
6.36839e-05
0.0014565
0.000876442
2.63567e-05
0.00117066
0.000674256
0.000259878
0.00140879
-0.000273542
0.000260475
0.00138721
-0.000210375
0.000343016
0.00148065
-4.41596e-05
0.000265225
0.00153127
0.000168093
8.4994e-05
0.00111431
-9.54405e-05
0.000440173
0.00102822
-0.000182466
0.000341205
0.00121494
0.000393219
5.55315e-05
0.00133411
7.28069e-05
7.99004e-05
0.00147755
0.000139456
0.000107407
0.00154774
0.000228894
0.000108724
0.00173119
-0.000189716
-0.000257509
0.00171405
7.44088e-05
-5.08125e-05
0.00159234
0.00030678
0.000192728
0.00155881
0.000696289
-0.000279242
0.00133714
0.000399683
5.68213e-06
0.00140448
-0.00043269
0.000168554
0.00148714
-0.000105366
-6.73567e-06
0.00139385
0.000412258
0.000103084
0.0014534
0.000508646
-0.000159445
0.00139486
0.000277158
-0.000120782
-0.000209309
0.000181916
0.00150786
-0.000152755
9.28854e-05
0.00171564
0.000344316
-0.000175245
0.00190798
0.000449274
-0.000142975
0.00177751
1.91548e-05
0.000218674
0.00193811
0.000186415
0.000127061
0.0018964
0.000340696
0.000295401
0.00164968
0.00056148
0.000376619
0.00184928
0.000587256
0.000129609
0.00216215
0.000382526
0.00012966
0.00183597
0.000496221
0.000223355
0.0016936
-4.65147e-05
0.000144804
0.00166156
0.000147107
0.000100017
0.0014852
0.000627626
0.000238839
0.00160964
0.000232731
0.000134485
0.00172784
3.35808e-05
0.000175759
0.00186387
-0.000174903
0.000285448
0.00199587
-0.000129067
6.07645e-05
0.00168936
0.001136
-2.3876e-05
0.00149836
0.000854638