/*--------------------------------*- C++ -*----------------------------------*\
  =========                 |
  \\      /  F ield         | OpenFOAM: The Open Source CFD Toolbox
   \\    /   O peration     | Website:  https://openfoam.org
    \\  /    A nd           | Version:  10
     \\/     M anipulation  |
\*---------------------------------------------------------------------------*/
FoamFile
{
    format      ascii;
    class       volScalarField;
    location    "7";
    object      pPrime2Mean;
}
// * * * * * * * * * * * * * * * * * * * * * * * * * * * * * * * * * * * * * //

dimensions      [0 4 -4 0 0 0 0];

internalField   nonuniform List<scalar> 
25600
(
6.17318e-08
6.84879e-08
6.37407e-08
5.79303e-08
5.7193e-08
6.03922e-08
5.99687e-08
4.64368e-08
4.30238e-08
5.01605e-08
3.79449e-08
2.75254e-08
3.23888e-08
2.92731e-08
2.5327e-08
2.38602e-08
2.61633e-08
3.34673e-08
2.74978e-08
2.71831e-08
3.68572e-08
3.63156e-08
4.09645e-08
4.69934e-08
5.17875e-08
6.33021e-08
6.52784e-08
6.92556e-08
7.70675e-08
7.15648e-08
7.4474e-08
8.47072e-08
7.32941e-08
7.16805e-08
9.05226e-08
7.82292e-08
6.51541e-08
8.23217e-08
8.0022e-08
6.00206e-08
7.1915e-08
7.44111e-08
6.6452e-08
6.47286e-08
6.05496e-08
6.17829e-08
6.04992e-08
4.26247e-08
3.87101e-08
4.08793e-08
2.90914e-08
2.23068e-08
2.31742e-08
2.68282e-08
2.50175e-08
2.11961e-08
3.16774e-08
2.97355e-08
2.37768e-08
4.01963e-08
3.46418e-08
3.64149e-08
6.48834e-08
5.50167e-08
5.76995e-08
8.58742e-08
7.55706e-08
7.25934e-08
8.60784e-08
7.4421e-08
7.16579e-08
7.85584e-08
6.87691e-08
6.89228e-08
8.49113e-08
7.45333e-08
6.71997e-08
8.76111e-08
8.32165e-08
6.49894e-08
7.90271e-08
7.76266e-08
7.32116e-08
7.40865e-08
6.81389e-08
6.88151e-08
6.16967e-08
4.31773e-08
4.11203e-08
3.61745e-08
2.94824e-08
2.74668e-08
2.30925e-08
3.21841e-08
3.31895e-08
3.12412e-08
4.27208e-08
3.35091e-08
4.17612e-08
6.08609e-08
3.93296e-08
5.50851e-08
8.51181e-08
6.13708e-08
7.38771e-08
9.977e-08
8.01878e-08
7.74679e-08
8.39925e-08
7.40354e-08
6.89203e-08
6.49483e-08
6.13662e-08
6.87559e-08
7.48374e-08
6.50222e-08
7.05023e-08
8.69735e-08
7.95653e-08
7.14006e-08
8.51052e-08
8.08792e-08
8.25622e-08
8.5374e-08
8.01878e-08
8.06518e-08
6.47678e-08
4.90364e-08
4.8882e-08
3.8143e-08
3.53982e-08
3.28314e-08
2.53848e-08
3.53439e-08
3.95168e-08
3.98429e-08
4.11564e-08
3.27078e-08
5.60788e-08
5.99733e-08
3.41929e-08
6.58322e-08
7.85837e-08
6.01186e-08
8.78588e-08
9.78212e-08
8.29926e-08
8.28237e-08
7.87456e-08
7.85044e-08
6.78639e-08
5.31244e-08
5.90951e-08
7.33758e-08
6.85627e-08
6.14304e-08
7.87141e-08
8.69883e-08
7.93161e-08
8.11381e-08
9.22138e-08
8.56463e-08
9.33204e-08
9.972e-08
9.70073e-08
9.41879e-08
6.99013e-08
5.82165e-08
5.69101e-08
4.26524e-08
3.92948e-08
3.17321e-08
2.49211e-08
3.62533e-08
4.69073e-08
4.30359e-08
2.91688e-08
3.31151e-08
6.1954e-08
4.31316e-08
3.19276e-08
6.8503e-08
6.08722e-08
6.75324e-08
1.0381e-07
9.67663e-08
9.6146e-08
9.35494e-08
8.37308e-08
8.96572e-08
6.64962e-08
4.66496e-08
6.14451e-08
7.98446e-08
6.71828e-08
6.60944e-08
8.9992e-08
9.09506e-08
8.73904e-08
9.39442e-08
1.01416e-07
9.20545e-08
1.06598e-07
1.20259e-07
1.20518e-07
1.08875e-07
7.79949e-08
6.97713e-08
6.43927e-08
4.83026e-08
4.07751e-08
2.86004e-08
2.52731e-08
4.46185e-08
6.19859e-08
4.37379e-08
2.02655e-08
4.1741e-08
6.67418e-08
3.23561e-08
4.04898e-08
6.97519e-08
5.09213e-08
8.79757e-08
1.23862e-07
1.06207e-07
1.19455e-07
1.11247e-07
1.00183e-07
1.00782e-07
6.18086e-08
4.26768e-08
6.58064e-08
8.72296e-08
7.0717e-08
7.61134e-08
1.01988e-07
1.01337e-07
1.04459e-07
1.09639e-07
1.14017e-07
1.01881e-07
1.26894e-07
1.53414e-07
1.54963e-07
1.27841e-07
9.19735e-08
8.46894e-08
7.59322e-08
5.79594e-08
4.56842e-08
3.0425e-08
3.34974e-08
6.91034e-08
8.78843e-08
4.75394e-08
2.23568e-08
5.98505e-08
7.76441e-08
3.61366e-08
5.79933e-08
7.11092e-08
5.39092e-08
1.18649e-07
1.48537e-07
1.27835e-07
1.52357e-07
1.38111e-07
1.26423e-07
1.10412e-07
5.66398e-08
4.19619e-08
7.50998e-08
9.95872e-08
8.11421e-08
9.16765e-08
1.16989e-07
1.22919e-07
1.32966e-07
1.3005e-07
1.34657e-07
1.21583e-07
1.64285e-07
2.08971e-07
2.05967e-07
1.58262e-07
1.16864e-07
1.0711e-07
9.8209e-08
7.89215e-08
6.4028e-08
4.37212e-08
5.93349e-08
1.18881e-07
1.2858e-07
6.39682e-08
4.19695e-08
9.04767e-08
1.02889e-07
5.69732e-08
8.31945e-08
7.80729e-08
7.39079e-08
1.61256e-07
1.81973e-07
1.6681e-07
2.00797e-07
1.79945e-07
1.64703e-07
1.25406e-07
5.71728e-08
4.9825e-08
9.59264e-08
1.24571e-07
1.05194e-07
1.19938e-07
1.42663e-07
1.65155e-07
1.77453e-07
1.6063e-07
1.75167e-07
1.65085e-07
2.36665e-07
3.01661e-07
2.8523e-07
2.12097e-07
1.6162e-07
1.46618e-07
1.4213e-07
1.24158e-07
1.08486e-07
7.96426e-08
1.19112e-07
2.09111e-07
1.96987e-07
1.09296e-07
9.20029e-08
1.44995e-07
1.53646e-07
1.02826e-07
1.22079e-07
1.04054e-07
1.2128e-07
2.23323e-07
2.35372e-07
2.32707e-07
2.7646e-07
2.48346e-07
2.20185e-07
1.55858e-07
7.33812e-08
7.53368e-08
1.37119e-07
1.72149e-07
1.55432e-07
1.74737e-07
1.9349e-07
2.41496e-07
2.46793e-07
2.12206e-07
2.58685e-07
2.57034e-07
3.68668e-07
4.54871e-07
4.15209e-07
3.09567e-07
2.40547e-07
2.1928e-07
2.24935e-07
2.14248e-07
1.96698e-07
1.6146e-07
2.40429e-07
3.61691e-07
3.19562e-07
2.08691e-07
1.97167e-07
2.46609e-07
2.49658e-07
1.90995e-07
1.92225e-07
1.71635e-07
2.1336e-07
3.20579e-07
3.27055e-07
3.39652e-07
3.9692e-07
3.61053e-07
3.06032e-07
2.17211e-07
1.19235e-07
1.32988e-07
2.13633e-07
2.60659e-07
2.53709e-07
2.75426e-07
2.93349e-07
3.72057e-07
3.61191e-07
3.05442e-07
4.20441e-07
4.33334e-07
5.96605e-07
7.05634e-07
6.321e-07
4.83247e-07
3.80512e-07
3.52219e-07
3.75829e-07
3.81266e-07
3.57938e-07
3.25608e-07
4.65415e-07
6.15696e-07
5.42839e-07
4.06975e-07
4.01223e-07
4.3465e-07
4.2859e-07
3.56165e-07
3.27689e-07
3.14361e-07
3.75811e-07
4.79142e-07
4.81379e-07
5.0924e-07
5.91902e-07
5.42951e-07
4.43681e-07
3.35307e-07
2.1581e-07
2.42968e-07
3.47663e-07
4.16566e-07
4.33947e-07
4.49629e-07
4.80032e-07
5.88755e-07
5.52245e-07
4.73966e-07
7.15712e-07
7.47929e-07
9.76511e-07
1.10808e-06
9.9173e-07
7.7762e-07
6.18808e-07
5.87545e-07
6.3795e-07
6.68966e-07
6.39345e-07
6.3125e-07
8.55937e-07
1.03922e-06
9.41531e-07
7.72204e-07
7.7031e-07
7.69625e-07
7.51849e-07
6.52612e-07
5.79485e-07
5.75037e-07
6.43566e-07
7.43669e-07
7.30968e-07
7.74065e-07
9.05314e-07
8.31288e-07
6.70145e-07
5.4337e-07
3.9469e-07
4.32299e-07
5.71147e-07
6.79284e-07
7.40966e-07
7.39519e-07
8.06554e-07
9.38879e-07
8.69792e-07
7.76356e-07
1.21515e-06
1.27416e-06
1.58551e-06
1.74398e-06
1.56806e-06
1.26009e-06
1.0112e-06
9.83713e-07
1.07624e-06
1.13919e-06
1.10656e-06
1.16072e-06
1.49503e-06
1.7342e-06
1.62123e-06
1.40636e-06
1.40133e-06
1.34656e-06
1.31586e-06
1.16263e-06
1.0169e-06
1.01242e-06
1.06748e-06
1.16886e-06
1.11547e-06
1.18676e-06
1.39962e-06
1.28615e-06
1.04549e-06
8.91972e-07
7.03241e-07
7.4487e-07
9.32348e-07
1.11089e-06
1.23912e-06
1.21485e-06
1.35226e-06
1.5004e-06
1.38608e-06
1.29225e-06
2.02332e-06
2.11876e-06
2.53119e-06
2.73419e-06
2.4689e-06
2.02433e-06
1.64453e-06
1.63435e-06
1.79651e-06
1.88336e-06
1.86782e-06
2.04458e-06
2.52927e-06
2.8759e-06
2.75398e-06
2.48276e-06
2.45817e-06
2.32864e-06
2.27135e-06
2.00662e-06
1.73949e-06
1.71385e-06
1.7266e-06
1.83712e-06
1.70549e-06
1.8264e-06
2.16134e-06
1.97933e-06
1.64558e-06
1.44417e-06
1.20479e-06
1.23969e-06
1.49145e-06
1.78107e-06
2.00453e-06
1.96915e-06
2.2335e-06
2.38397e-06
2.2028e-06
2.14459e-06
3.26529e-06
3.39659e-06
3.93659e-06
4.21421e-06
3.80596e-06
3.17838e-06
2.62127e-06
2.63418e-06
2.91589e-06
3.01459e-06
3.06183e-06
3.45431e-06
4.16031e-06
4.67893e-06
4.53362e-06
4.19896e-06
4.12262e-06
3.8994e-06
3.77303e-06
3.31592e-06
2.86716e-06
2.76772e-06
2.7088e-06
2.82116e-06
2.5797e-06
2.77936e-06
3.30757e-06
3.03725e-06
2.59838e-06
2.33352e-06
2.01015e-06
2.00831e-06
2.33219e-06
2.79492e-06
3.16264e-06
3.14608e-06
3.62144e-06
3.75753e-06
3.48319e-06
3.47227e-06
5.15233e-06
5.3355e-06
6.04448e-06
6.45345e-06
5.83597e-06
4.93947e-06
4.1432e-06
4.20717e-06
4.64462e-06
4.76005e-06
4.93038e-06
5.67024e-06
6.75528e-06
7.5652e-06
7.3973e-06
6.98984e-06
6.82468e-06
6.43738e-06
6.13891e-06
5.31899e-06
4.60152e-06
4.33123e-06
4.16772e-06
4.25466e-06
3.88619e-06
4.21025e-06
5.04037e-06
4.60862e-06
4.077e-06
3.69702e-06
3.22478e-06
3.15667e-06
3.55695e-06
4.28468e-06
4.88014e-06
4.9516e-06
5.75244e-06
5.82816e-06
5.44335e-06
5.48686e-06
7.87704e-06
8.12192e-06
9.03623e-06
9.58245e-06
8.68704e-06
7.41904e-06
6.34868e-06
6.47717e-06
7.10715e-06
7.25869e-06
7.63614e-06
8.96947e-06
1.06815e-05
1.19122e-05
1.17122e-05
1.11837e-05
1.08358e-05
1.0268e-05
9.58072e-06
8.1834e-06
7.11388e-06
6.54146e-06
6.22325e-06
6.25572e-06
5.74077e-06
6.27353e-06
7.57079e-06
6.93427e-06
6.30437e-06
5.76228e-06
5.02386e-06
4.80674e-06
5.2686e-06
6.42278e-06
7.37246e-06
7.68835e-06
8.97528e-06
8.94505e-06
8.41353e-06
8.43798e-06
1.18575e-05
1.21118e-05
1.325e-05
1.39912e-05
1.2686e-05
1.09052e-05
9.47161e-06
9.61446e-06
1.05007e-05
1.06921e-05
1.14752e-05
1.37033e-05
1.63051e-05
1.81728e-05
1.79204e-05
1.7318e-05
1.65091e-05
1.5576e-05
1.42041e-05
1.20367e-05
1.05446e-05
9.62314e-06
9.04048e-06
8.97852e-06
8.31968e-06
9.14301e-06
1.11546e-05
1.02443e-05
9.37319e-06
8.63446e-06
7.55136e-06
7.04668e-06
7.60183e-06
9.48147e-06
1.09762e-05
1.16734e-05
1.35964e-05
1.33532e-05
1.26475e-05
1.26331e-05
1.68176e-05
1.68838e-05
1.82833e-05
1.93737e-05
1.75867e-05
1.51698e-05
1.34011e-05
1.3512e-05
1.4399e-05
1.48018e-05
1.63969e-05
1.99679e-05
2.35425e-05
2.6226e-05
2.57012e-05
2.49846e-05
2.3662e-05
2.20653e-05
1.97168e-05
1.65093e-05
1.44064e-05
1.32459e-05
1.23798e-05
1.22968e-05
1.15679e-05
1.26851e-05
1.57825e-05
1.45147e-05
1.3221e-05
1.23028e-05
1.09051e-05
1.0019e-05
1.06948e-05
1.35031e-05
1.57881e-05
1.69744e-05
1.95082e-05
1.87845e-05
1.79908e-05
1.77237e-05
2.25326e-05
2.21713e-05
2.40938e-05
2.58158e-05
2.34635e-05
2.02879e-05
1.81029e-05
1.80977e-05
1.87712e-05
1.96939e-05
2.25239e-05
2.80651e-05
3.29193e-05
3.67886e-05
3.58074e-05
3.51989e-05
3.29337e-05
2.99545e-05
2.60469e-05
2.15813e-05
1.88586e-05
1.73575e-05
1.59679e-05
1.56652e-05
1.52311e-05
1.69725e-05
2.11273e-05
1.93551e-05
1.74687e-05
1.65017e-05
1.51682e-05
1.37239e-05
1.44715e-05
1.8347e-05
2.14546e-05
2.31577e-05
2.66351e-05
2.5385e-05
2.42915e-05
2.34406e-05
2.83114e-05
2.7489e-05
3.02976e-05
3.31679e-05
3.00726e-05
2.60434e-05
2.34429e-05
2.30551e-05
2.36719e-05
2.49127e-05
2.9091e-05
3.73022e-05
4.37933e-05
4.87352e-05
4.73196e-05
4.72723e-05
4.36025e-05
3.88826e-05
3.2847e-05
2.76041e-05
2.40219e-05
2.18967e-05
1.95923e-05
1.87603e-05
1.86919e-05
2.10573e-05
2.65306e-05
2.44089e-05
2.15713e-05
2.0309e-05
1.89498e-05
1.69434e-05
1.84141e-05
2.31849e-05
2.72727e-05
3.00432e-05
3.5235e-05
3.32041e-05
3.17304e-05
2.96285e-05
3.35828e-05
3.24131e-05
3.585e-05
3.93986e-05
3.63033e-05
3.15232e-05
2.81958e-05
2.69026e-05
2.76192e-05
2.89173e-05
3.41194e-05
4.44551e-05
5.1329e-05
5.65467e-05
5.62222e-05
5.68093e-05
5.22554e-05
4.58654e-05
3.82703e-05
3.32496e-05
2.87759e-05
2.56563e-05
2.1767e-05
2.08137e-05
2.19193e-05
2.51869e-05
3.25293e-05
2.9092e-05
2.50581e-05
2.38888e-05
2.22317e-05
1.99645e-05
2.17676e-05
2.73957e-05
3.27878e-05
3.75622e-05
4.45818e-05
4.1634e-05
3.90984e-05
3.55217e-05
3.75307e-05
3.59436e-05
3.92009e-05
4.34666e-05
4.09611e-05
3.61847e-05
3.18477e-05
2.95371e-05
3.01828e-05
3.09978e-05
3.67019e-05
4.90597e-05
5.48459e-05
6.00628e-05
6.08342e-05
6.19506e-05
5.67789e-05
4.96013e-05
4.17389e-05
3.71043e-05
3.1844e-05
2.79695e-05
2.28804e-05
2.24397e-05
2.42487e-05
2.76114e-05
3.74037e-05
3.27681e-05
2.8087e-05
2.73388e-05
2.51435e-05
2.19722e-05
2.31359e-05
2.88088e-05
3.4961e-05
4.14484e-05
4.90875e-05
4.62e-05
4.34171e-05
3.94103e-05
4.02812e-05
3.81619e-05
4.07917e-05
4.56664e-05
4.34976e-05
3.91207e-05
3.36293e-05
3.06472e-05
3.13017e-05
3.17986e-05
3.74821e-05
5.15e-05
5.53275e-05
6.11281e-05
6.19514e-05
6.2896e-05
5.69503e-05
5.04515e-05
4.32042e-05
3.89618e-05
3.35035e-05
2.98969e-05
2.31395e-05
2.24731e-05
2.40975e-05
2.69739e-05
3.88386e-05
3.32369e-05
2.8469e-05
2.92554e-05
2.66548e-05
2.19539e-05
2.30203e-05
2.88221e-05
3.49593e-05
4.20104e-05
4.95966e-05
4.77453e-05
4.50549e-05
4.16296e-05
4.17939e-05
3.91368e-05
4.17785e-05
4.7194e-05
4.51291e-05
4.08701e-05
3.48911e-05
3.24654e-05
3.30929e-05
3.33093e-05
3.81872e-05
5.43377e-05
5.53533e-05
6.11284e-05
6.16015e-05
6.21066e-05
5.59683e-05
5.01746e-05
4.41861e-05
3.99614e-05
3.46521e-05
3.24781e-05
2.37267e-05
2.28757e-05
2.37731e-05
2.62262e-05
3.96721e-05
3.4572e-05
2.89447e-05
3.20289e-05
2.84715e-05
2.19601e-05
2.3247e-05
2.93021e-05
3.48588e-05
4.1758e-05
4.95434e-05
4.81561e-05
4.59112e-05
4.28176e-05
4.26414e-05
3.96531e-05
4.26606e-05
4.86732e-05
4.63807e-05
4.15013e-05
3.61407e-05
3.40882e-05
3.47483e-05
3.41408e-05
3.84521e-05
5.53006e-05
5.45461e-05
6.01034e-05
6.02504e-05
6.04435e-05
5.48652e-05
5.01809e-05
4.49994e-05
4.08073e-05
3.58202e-05
3.58853e-05
2.48131e-05
2.34827e-05
2.43887e-05
2.58687e-05
4.0172e-05
3.65814e-05
2.94231e-05
3.55329e-05
2.97509e-05
2.18572e-05
2.32862e-05
2.98715e-05
3.45448e-05
4.14038e-05
4.91364e-05
4.72981e-05
4.66008e-05
4.37075e-05
4.25137e-05
3.97711e-05
4.30218e-05
4.97141e-05
4.7066e-05
4.22614e-05
3.73434e-05
3.56494e-05
3.62232e-05
3.43607e-05
3.83927e-05
5.35016e-05
5.23839e-05
5.8773e-05
5.86139e-05
5.87654e-05
5.37705e-05
5.01915e-05
4.52881e-05
4.12969e-05
3.62339e-05
3.76094e-05
2.5157e-05
2.36589e-05
2.43488e-05
2.59285e-05
3.99366e-05
3.72666e-05
2.9542e-05
3.75861e-05
3.03524e-05
2.19995e-05
2.33943e-05
3.03685e-05
3.40326e-05
4.16692e-05
4.90807e-05
4.623e-05
4.64951e-05
4.37887e-05
4.14589e-05
3.90864e-05
4.2353e-05
4.95756e-05
4.67872e-05
4.27237e-05
3.78585e-05
3.64503e-05
3.71048e-05
3.45639e-05
3.84864e-05
5.13181e-05
5.09133e-05
5.74311e-05
5.68087e-05
5.67031e-05
5.25574e-05
4.97215e-05
4.5167e-05
4.08354e-05
3.68107e-05
3.77118e-05
2.5168e-05
2.34902e-05
2.36683e-05
2.52081e-05
3.86673e-05
3.74334e-05
2.88351e-05
3.77865e-05
2.95837e-05
2.19143e-05
2.33875e-05
3.09906e-05
3.34937e-05
4.19741e-05
4.93606e-05
4.44286e-05
4.5172e-05
4.29359e-05
4.02063e-05
3.81241e-05
4.13159e-05
4.88654e-05
4.596e-05
4.22196e-05
3.77788e-05
3.65625e-05
3.71429e-05
3.43859e-05
3.77452e-05
4.85683e-05
4.97968e-05
5.62246e-05
5.53207e-05
5.52327e-05
5.11653e-05
4.88694e-05
4.43406e-05
4.0284e-05
3.60726e-05
3.75465e-05
2.48679e-05
2.31502e-05
2.28129e-05
2.43416e-05
3.76101e-05
3.8555e-05
2.83873e-05
3.72909e-05
2.90341e-05
2.17188e-05
2.3196e-05
3.1279e-05
3.30237e-05
4.17107e-05
4.86587e-05
4.32359e-05
4.38791e-05
4.17508e-05
3.93758e-05
3.74179e-05
4.04478e-05
4.81021e-05
4.53094e-05
4.17452e-05
3.73657e-05
3.61333e-05
3.67063e-05
3.41744e-05
3.71656e-05
4.72457e-05
4.88565e-05
5.50928e-05
5.40595e-05
5.37128e-05
5.00144e-05
4.7608e-05
4.36221e-05
3.95384e-05
3.56691e-05
3.68878e-05
2.46864e-05
2.28853e-05
2.23253e-05
2.37019e-05
3.65128e-05
3.84004e-05
2.80674e-05
3.60676e-05
2.89006e-05
2.15032e-05
2.29537e-05
3.10438e-05
3.26338e-05
4.14085e-05
4.78355e-05
4.2261e-05
4.30522e-05
4.08944e-05
3.88487e-05
3.69759e-05
3.99862e-05
4.75668e-05
4.47835e-05
4.13207e-05
3.70413e-05
3.569e-05
3.62361e-05
3.38105e-05
3.66739e-05
4.66098e-05
4.82431e-05
5.44369e-05
5.33876e-05
5.29365e-05
4.93121e-05
4.67498e-05
4.29052e-05
3.88936e-05
3.49354e-05
3.61489e-05
2.43996e-05
2.25891e-05
2.19336e-05
2.3365e-05
3.57884e-05
3.76562e-05
2.76537e-05
3.52472e-05
2.86024e-05
2.11939e-05
2.2632e-05
3.05219e-05
3.22527e-05
4.08688e-05
4.73789e-05
4.15576e-05
4.23555e-05
4.02829e-05
3.85516e-05
3.67587e-05
3.9788e-05
4.73373e-05
4.46293e-05
4.11207e-05
3.68844e-05
3.55197e-05
3.59809e-05
3.35957e-05
3.63949e-05
4.63039e-05
4.79663e-05
5.41441e-05
5.30871e-05
5.25828e-05
4.89951e-05
4.6419e-05
4.26471e-05
3.86107e-05
3.46783e-05
3.58843e-05
2.42675e-05
2.24219e-05
2.17349e-05
2.31415e-05
3.54822e-05
3.72616e-05
2.7457e-05
3.48421e-05
2.84082e-05
2.10437e-05
2.24741e-05
3.02702e-05
3.20581e-05
4.06102e-05
4.71597e-05
4.13435e-05
4.20257e-05
4.00494e-05
6.00702e-08
6.59614e-08
6.47995e-08
5.77983e-08
5.49011e-08
5.77623e-08
6.01353e-08
4.83426e-08
4.08142e-08
4.90522e-08
3.9133e-08
2.76886e-08
3.37568e-08
2.83379e-08
2.55125e-08
2.60646e-08
2.65566e-08
3.77308e-08
3.24179e-08
2.78617e-08
3.90124e-08
3.75967e-08
4.1425e-08
4.85515e-08
4.81905e-08
6.18359e-08
6.76914e-08
6.64844e-08
7.54438e-08
7.24766e-08
7.27935e-08
8.44318e-08
7.46883e-08
7.36254e-08
9.13879e-08
7.6413e-08
6.71081e-08
8.3337e-08
7.66287e-08
5.96689e-08
6.98693e-08
7.10098e-08
6.88223e-08
6.59316e-08
5.78654e-08
6.19544e-08
6.41034e-08
4.54058e-08
3.81931e-08
4.03454e-08
2.95899e-08
2.46794e-08
2.47722e-08
2.40461e-08
2.4482e-08
2.10933e-08
2.95105e-08
3.16469e-08
2.34597e-08
3.62699e-08
3.3362e-08
3.53714e-08
6.60492e-08
5.64716e-08
5.42276e-08
8.88001e-08
8.08573e-08
7.17246e-08
8.93389e-08
7.75653e-08
7.09382e-08
8.19577e-08
7.2821e-08
7.08828e-08
8.56534e-08
7.38177e-08
7.10606e-08
8.89983e-08
7.85652e-08
6.40786e-08
7.54825e-08
7.67202e-08
7.60749e-08
7.2922e-08
6.38506e-08
6.98262e-08
6.68532e-08
4.62896e-08
4.07288e-08
3.44944e-08
2.98002e-08
3.41894e-08
2.56873e-08
2.80119e-08
3.17891e-08
2.91948e-08
4.09891e-08
3.45782e-08
3.81962e-08
5.57423e-08
3.80419e-08
5.75844e-08
9.16928e-08
6.27784e-08
7.35892e-08
1.09201e-07
8.72781e-08
8.061e-08
9.0358e-08
7.50384e-08
6.91464e-08
7.02678e-08
6.5401e-08
6.91699e-08
7.22664e-08
6.5215e-08
7.67984e-08
8.61762e-08
7.33012e-08
6.88011e-08
8.03876e-08
8.50471e-08
8.44244e-08
7.94537e-08
7.35514e-08
8.18489e-08
7.29035e-08
5.33324e-08
4.753e-08
3.4563e-08
3.7621e-08
4.54335e-08
2.94948e-08
2.9503e-08
3.57986e-08
3.90181e-08
4.43925e-08
3.51145e-08
5.24619e-08
5.47468e-08
3.51082e-08
7.71338e-08
9.09048e-08
5.8091e-08
8.87663e-08
1.08776e-07
8.8127e-08
8.77527e-08
8.00481e-08
7.35563e-08
6.90368e-08
5.85142e-08
6.2812e-08
7.0867e-08
6.16002e-08
6.4822e-08
8.81543e-08
8.26593e-08
7.09686e-08
7.46228e-08
8.91872e-08
9.69672e-08
9.318e-08
8.79064e-08
8.60695e-08
9.74527e-08
8.52561e-08
6.35577e-08
5.21552e-08
3.65752e-08
4.47464e-08
5.02961e-08
2.90616e-08
2.54014e-08
3.9446e-08
4.66802e-08
4.00325e-08
3.84856e-08
5.67772e-08
3.49174e-08
3.67321e-08
9.11783e-08
7.6185e-08
5.94534e-08
1.03052e-07
1.04781e-07
1.00912e-07
9.81291e-08
7.54806e-08
8.08952e-08
7.17803e-08
5.49596e-08
6.60572e-08
7.26409e-08
5.72727e-08
7.49849e-08
1.01489e-07
8.20147e-08
7.51943e-08
8.06859e-08
1.04245e-07
1.11495e-07
1.03002e-07
9.83344e-08
1.00357e-07
1.17465e-07
1.04336e-07
7.47459e-08
5.40551e-08
3.86186e-08
5.05346e-08
5.40837e-08
2.69131e-08
2.38574e-08
5.04076e-08
5.50485e-08
4.06574e-08
5.2102e-08
5.45376e-08
1.9543e-08
5.36778e-08
1.07878e-07
6.83129e-08
7.21041e-08
1.19046e-07
1.13702e-07
1.28611e-07
1.13099e-07
8.21409e-08
9.07402e-08
7.36625e-08
5.72476e-08
6.95096e-08
7.25875e-08
5.85684e-08
9.07987e-08
1.12038e-07
8.61765e-08
8.39987e-08
8.73687e-08
1.26054e-07
1.28382e-07
1.15151e-07
1.10928e-07
1.18153e-07
1.45942e-07
1.31495e-07
8.92343e-08
5.89482e-08
4.4698e-08
6.1998e-08
6.46625e-08
2.91397e-08
3.37521e-08
7.00419e-08
6.70022e-08
5.72875e-08
7.69009e-08
5.23677e-08
2.10902e-08
8.61188e-08
1.29664e-07
7.37604e-08
9.29639e-08
1.39484e-07
1.41684e-07
1.69482e-07
1.34267e-07
9.79374e-08
9.90011e-08
7.66513e-08
6.45437e-08
7.48272e-08
7.31363e-08
6.57132e-08
1.09861e-07
1.22009e-07
9.83939e-08
9.6838e-08
9.68863e-08
1.57234e-07
1.49939e-07
1.32428e-07
1.28823e-07
1.45162e-07
1.89777e-07
1.71091e-07
1.12491e-07
7.31217e-08
6.24144e-08
8.93077e-08
8.74953e-08
4.22516e-08
6.00234e-08
9.6898e-08
8.87101e-08
9.75568e-08
1.11935e-07
5.94233e-08
4.19135e-08
1.33532e-07
1.63286e-07
9.62168e-08
1.23513e-07
1.70825e-07
1.9443e-07
2.27735e-07
1.68996e-07
1.22928e-07
1.09716e-07
8.96717e-08
8.10799e-08
8.8986e-08
7.72625e-08
8.10248e-08
1.34466e-07
1.41063e-07
1.24963e-07
1.15896e-07
1.13976e-07
2.03504e-07
1.83668e-07
1.63379e-07
1.6017e-07
1.90682e-07
2.58146e-07
2.33151e-07
1.56324e-07
1.07232e-07
1.03748e-07
1.42498e-07
1.28633e-07
7.6706e-08
1.06372e-07
1.32892e-07
1.32316e-07
1.72724e-07
1.63995e-07
8.67643e-08
8.67781e-08
2.0492e-07
2.21382e-07
1.46014e-07
1.72655e-07
2.28523e-07
2.82634e-07
3.15628e-07
2.29729e-07
1.62721e-07
1.35146e-07
1.25901e-07
1.17781e-07
1.21868e-07
9.33146e-08
1.12318e-07
1.74438e-07
1.84215e-07
1.74914e-07
1.48428e-07
1.47043e-07
2.76413e-07
2.45008e-07
2.21345e-07
2.19094e-07
2.69603e-07
3.6363e-07
3.33231e-07
2.38334e-07
1.79882e-07
1.89058e-07
2.36477e-07
2.04355e-07
1.48914e-07
1.78465e-07
1.90998e-07
2.16929e-07
2.99534e-07
2.5093e-07
1.48536e-07
1.69971e-07
3.21285e-07
3.26964e-07
2.41756e-07
2.58002e-07
3.3492e-07
4.23217e-07
4.57072e-07
3.34742e-07
2.29349e-07
1.95153e-07
2.02833e-07
1.95932e-07
1.92127e-07
1.39063e-07
1.7665e-07
2.48013e-07
2.70103e-07
2.63194e-07
2.07429e-07
2.09736e-07
3.97584e-07
3.60947e-07
3.28492e-07
3.29244e-07
4.05973e-07
5.30555e-07
4.99688e-07
3.90485e-07
3.23313e-07
3.49969e-07
3.94806e-07
3.39748e-07
2.76096e-07
2.89256e-07
2.93918e-07
3.72177e-07
5.06284e-07
4.0198e-07
2.70497e-07
3.23779e-07
5.1839e-07
5.2104e-07
4.13795e-07
4.08746e-07
5.22617e-07
6.47281e-07
6.93983e-07
5.16135e-07
3.51811e-07
3.22249e-07
3.51381e-07
3.51838e-07
3.32371e-07
2.4729e-07
3.02092e-07
3.83156e-07
4.2509e-07
4.15954e-07
3.16366e-07
3.24838e-07
6.06204e-07
5.68285e-07
5.17263e-07
5.25902e-07
6.34612e-07
7.98045e-07
7.75667e-07
6.60269e-07
5.89174e-07
6.3347e-07
6.58676e-07
5.73768e-07
4.83105e-07
4.69273e-07
4.75354e-07
6.36911e-07
8.3509e-07
6.55587e-07
4.93689e-07
5.97284e-07
8.41127e-07
8.54254e-07
7.02144e-07
6.79421e-07
8.35984e-07
1.00314e-06
1.08503e-06
8.19944e-07
5.7487e-07
5.61719e-07
6.20171e-07
6.41708e-07
5.93122e-07
4.69727e-07
5.30961e-07
6.18083e-07
6.91431e-07
6.73921e-07
5.13622e-07
5.30325e-07
9.67869e-07
9.2813e-07
8.39597e-07
8.65273e-07
1.0084e-06
1.22664e-06
1.22655e-06
1.11654e-06
1.05117e-06
1.10268e-06
1.08735e-06
9.52131e-07
8.0412e-07
7.6497e-07
7.95463e-07
1.07345e-06
1.36213e-06
1.06875e-06
8.87899e-07
1.06397e-06
1.37427e-06
1.40971e-06
1.16801e-06
1.14443e-06
1.33321e-06
1.57757e-06
1.72219e-06
1.31697e-06
9.63341e-07
9.79345e-07
1.08473e-06
1.14522e-06
1.05132e-06
8.77165e-07
9.227e-07
1.00359e-06
1.13439e-06
1.09442e-06
8.55846e-07
8.84295e-07
1.57869e-06
1.51444e-06
1.36253e-06
1.41996e-06
1.60159e-06
1.90762e-06
1.9448e-06
1.86194e-06
1.8212e-06
1.85647e-06
1.7728e-06
1.54238e-06
1.29833e-06
1.23879e-06
1.31819e-06
1.75489e-06
2.16112e-06
1.71294e-06
1.54145e-06
1.8173e-06
2.2157e-06
2.27915e-06
1.89388e-06
1.90551e-06
2.12426e-06
2.49882e-06
2.73773e-06
2.12168e-06
1.62445e-06
1.6801e-06
1.86115e-06
1.98247e-06
1.8112e-06
1.56823e-06
1.55909e-06
1.61853e-06
1.8384e-06
1.75982e-06
1.4277e-06
1.47205e-06
2.56418e-06
2.42987e-06
2.18258e-06
2.29933e-06
2.52082e-06
2.94476e-06
3.04035e-06
3.0121e-06
3.02086e-06
3.00978e-06
2.81203e-06
2.41435e-06
2.0214e-06
1.96523e-06
2.12053e-06
2.77649e-06
3.3277e-06
2.68705e-06
2.56611e-06
2.97104e-06
3.50179e-06
3.5926e-06
2.9977e-06
3.08132e-06
3.32661e-06
3.90547e-06
4.27557e-06
3.3413e-06
2.66259e-06
2.777e-06
3.07462e-06
3.28818e-06
3.0013e-06
2.66065e-06
2.54485e-06
2.56247e-06
2.91387e-06
2.76572e-06
2.33602e-06
2.40929e-06
4.07815e-06
3.784e-06
3.41141e-06
3.62266e-06
3.89409e-06
4.46617e-06
4.65637e-06
4.72953e-06
4.80049e-06
4.71864e-06
4.32033e-06
3.65615e-06
3.05053e-06
3.02545e-06
3.3094e-06
4.27033e-06
4.96471e-06
4.10224e-06
4.11791e-06
4.68979e-06
5.41375e-06
5.50106e-06
4.63752e-06
4.82188e-06
5.15239e-06
6.02013e-06
6.57142e-06
5.18224e-06
4.27297e-06
4.45882e-06
4.88363e-06
5.2115e-06
4.75687e-06
4.3006e-06
4.0077e-06
3.94412e-06
4.49438e-06
4.24846e-06
3.75813e-06
3.86074e-06
6.33501e-06
5.71688e-06
5.21452e-06
5.5505e-06
5.90178e-06
6.62682e-06
6.94176e-06
7.19241e-06
7.33113e-06
7.17301e-06
6.42437e-06
5.35945e-06
4.43327e-06
4.49587e-06
4.97541e-06
6.35352e-06
7.19669e-06
6.10182e-06
6.3428e-06
7.11348e-06
8.05503e-06
8.07603e-06
6.9372e-06
7.29526e-06
7.7998e-06
9.02788e-06
9.81379e-06
7.82137e-06
6.61041e-06
6.88428e-06
7.50848e-06
7.94234e-06
7.23631e-06
6.6564e-06
6.08698e-06
5.88991e-06
6.712e-06
6.35309e-06
5.88823e-06
6.07481e-06
9.47595e-06
8.33844e-06
7.72311e-06
8.24299e-06
8.73894e-06
9.56338e-06
1.00058e-05
1.05373e-05
1.06985e-05
1.04253e-05
9.1382e-06
7.58463e-06
6.27807e-06
6.51322e-06
7.37052e-06
9.38114e-06
1.0366e-05
9.05072e-06
9.63476e-06
1.06358e-05
1.17326e-05
1.16146e-05
1.02023e-05
1.07829e-05
1.1581e-05
1.31768e-05
1.42773e-05
1.15377e-05
1.0073e-05
1.04135e-05
1.12155e-05
1.1643e-05
1.05994e-05
9.86138e-06
8.87038e-06
8.55328e-06
9.74625e-06
9.33514e-06
8.97853e-06
9.30445e-06
1.37078e-05
1.18036e-05
1.10596e-05
1.18484e-05
1.24844e-05
1.33121e-05
1.39553e-05
1.4865e-05
1.508e-05
1.46076e-05
1.25328e-05
1.03873e-05
8.63937e-06
9.10083e-06
1.04242e-05
1.31997e-05
1.43579e-05
1.30047e-05
1.40771e-05
1.53411e-05
1.64397e-05
1.62463e-05
1.46562e-05
1.55905e-05
1.67923e-05
1.86902e-05
2.02666e-05
1.67598e-05
1.49878e-05
1.5202e-05
1.60318e-05
1.63916e-05
1.49308e-05
1.41333e-05
1.25064e-05
1.19775e-05
1.36662e-05
1.32991e-05
1.32792e-05
1.38516e-05
1.92391e-05
1.62856e-05
1.53859e-05
1.64867e-05
1.71094e-05
1.77619e-05
1.86829e-05
1.98285e-05
2.02911e-05
1.9378e-05
1.62209e-05
1.34945e-05
1.13398e-05
1.19093e-05
1.39175e-05
1.74065e-05
1.88834e-05
1.79337e-05
1.9738e-05
2.12932e-05
2.24646e-05
2.25291e-05
2.07918e-05
2.21396e-05
2.3562e-05
2.58238e-05
2.81591e-05
2.38477e-05
2.18567e-05
2.16205e-05
2.23176e-05
2.24623e-05
2.06811e-05
1.97817e-05
1.71365e-05
1.6261e-05
1.84126e-05
1.83135e-05
1.88925e-05
1.99296e-05
2.5628e-05
2.12254e-05
1.98215e-05
2.13708e-05
2.16415e-05
2.20608e-05
2.34552e-05
2.50188e-05
2.599e-05
2.41171e-05
1.98413e-05
1.66284e-05
1.42037e-05
1.4819e-05
1.79929e-05
2.22096e-05
2.39633e-05
2.36446e-05
2.63854e-05
2.82728e-05
3.00718e-05
3.07071e-05
2.87897e-05
3.06804e-05
3.21994e-05
3.51144e-05
3.85576e-05
3.34381e-05
3.07287e-05
2.97943e-05
3.05432e-05
3.03633e-05
2.82517e-05
2.65439e-05
2.22781e-05
2.09176e-05
2.3781e-05
2.44544e-05
2.58334e-05
2.72069e-05
3.17228e-05
2.59376e-05
2.37051e-05
2.58852e-05
2.52307e-05
2.58182e-05
2.77783e-05
3.01924e-05
3.17113e-05
2.87263e-05
2.36123e-05
1.98193e-05
1.71414e-05
1.78093e-05
2.22473e-05
2.74899e-05
2.99207e-05
3.00863e-05
3.36733e-05
3.58236e-05
3.88369e-05
4.04339e-05
3.88826e-05
4.15561e-05
4.27639e-05
4.63902e-05
5.11017e-05
4.56318e-05
4.12594e-05
3.91961e-05
3.99568e-05
3.98797e-05
3.72819e-05
3.37528e-05
2.75295e-05
2.57223e-05
2.97637e-05
3.12485e-05
3.28788e-05
3.43675e-05
3.74628e-05
3.04149e-05
2.70342e-05
3.01571e-05
2.81918e-05
2.97702e-05
3.24836e-05
3.61706e-05
3.79124e-05
3.35413e-05
2.72738e-05
2.29933e-05
2.042e-05
2.07953e-05
2.59608e-05
3.21716e-05
3.60771e-05
3.65712e-05
4.07365e-05
4.25129e-05
4.71481e-05
5.00269e-05
4.93355e-05
5.32198e-05
5.44218e-05
5.91896e-05
6.48121e-05
5.83399e-05
5.17855e-05
4.91082e-05
5.01713e-05
5.06353e-05
4.74949e-05
4.19349e-05
3.35685e-05
3.14601e-05
3.71194e-05
3.85007e-05
4.00154e-05
4.10799e-05
4.26673e-05
3.49652e-05
3.00459e-05
3.47247e-05
3.12168e-05
3.39748e-05
3.74713e-05
4.25055e-05
4.42912e-05
3.82191e-05
3.07808e-05
2.62614e-05
2.36427e-05
2.40106e-05
2.92304e-05
3.63663e-05
4.19726e-05
4.29277e-05
4.77864e-05
4.83089e-05
5.42915e-05
5.74931e-05
5.73544e-05
6.33522e-05
6.47175e-05
7.09769e-05
7.61123e-05
6.87591e-05
6.05677e-05
5.75586e-05
5.88532e-05
5.9679e-05
5.69163e-05
5.08438e-05
4.06484e-05
3.77574e-05
4.46157e-05
4.51347e-05
4.64947e-05
4.72294e-05
4.62376e-05
3.8399e-05
3.25798e-05
3.86066e-05
3.42134e-05
3.72205e-05
4.11409e-05
4.66517e-05
4.85816e-05
4.13837e-05
3.34219e-05
2.92202e-05
2.64241e-05
2.66229e-05
3.1593e-05
3.92071e-05
4.64072e-05
4.71564e-05
5.30295e-05
5.18939e-05
5.85943e-05
6.27496e-05
6.09228e-05
6.98604e-05
7.04479e-05
7.92664e-05
8.38555e-05
7.53948e-05
6.55193e-05
6.26242e-05
6.407e-05
6.52113e-05
6.28464e-05
5.71147e-05
4.53804e-05
4.22424e-05
5.00478e-05
4.97366e-05
5.0672e-05
5.16734e-05
4.84802e-05
4.04784e-05
3.36549e-05
3.98932e-05
3.55408e-05
3.87106e-05
4.28235e-05
4.81621e-05
4.99135e-05
4.26332e-05
3.51101e-05
3.08506e-05
2.90451e-05
2.86814e-05
3.33125e-05
4.0946e-05
4.83995e-05
4.84395e-05
5.53678e-05
5.31248e-05
6.02957e-05
6.43993e-05
6.08727e-05
7.1392e-05
7.15814e-05
8.31084e-05
8.76234e-05
7.83468e-05
6.77976e-05
6.54016e-05
6.67986e-05
6.81863e-05
6.59045e-05
6.11474e-05
4.77411e-05
4.48588e-05
5.25895e-05
5.15296e-05
5.25916e-05
5.45615e-05
4.97983e-05
4.10309e-05
3.41062e-05
3.97759e-05
3.62414e-05
3.98727e-05
4.35826e-05
4.84396e-05
5.01038e-05
4.28424e-05
3.59018e-05
3.12029e-05
2.8727e-05
2.95701e-05
3.41378e-05
4.16734e-05
4.85245e-05
4.82671e-05
5.60207e-05
5.37325e-05
6.12247e-05
6.4513e-05
5.94722e-05
6.90155e-05
7.08894e-05
8.31721e-05
8.84811e-05
7.93295e-05
6.87937e-05
6.76782e-05
6.90324e-05
7.05311e-05
6.7649e-05
6.41403e-05
4.92101e-05
4.77593e-05
5.42116e-05
5.21406e-05
5.30604e-05
5.59733e-05
5.04543e-05
4.12496e-05
3.39854e-05
3.98501e-05
3.58261e-05
3.97147e-05
4.40917e-05
4.85195e-05
5.03475e-05
4.33372e-05
3.70082e-05
3.1986e-05
2.93742e-05
2.99827e-05
3.49332e-05
4.22986e-05
4.81843e-05
4.86897e-05
5.64016e-05
5.43806e-05
6.22538e-05
6.47957e-05
5.92974e-05
6.78272e-05
7.09972e-05
8.27161e-05
8.97463e-05
7.98385e-05
6.88777e-05
6.91782e-05
7.03297e-05
7.17974e-05
6.82848e-05
6.52257e-05
4.9566e-05
4.97397e-05
5.60907e-05
5.22274e-05
5.29088e-05
5.652e-05
5.05133e-05
4.15395e-05
3.39475e-05
4.02952e-05
3.56564e-05
3.96641e-05
4.38913e-05
4.84083e-05
4.98987e-05
4.32719e-05
3.70448e-05
3.21407e-05
2.94465e-05
3.01581e-05
3.49448e-05
4.2012e-05
4.75942e-05
4.86956e-05
5.56958e-05
5.42376e-05
6.21589e-05
6.51319e-05
5.92594e-05
6.7448e-05
7.10373e-05
8.21385e-05
8.97693e-05
7.99707e-05
6.83758e-05
6.94001e-05
7.0512e-05
7.17854e-05
6.7991e-05
6.52166e-05
4.92938e-05
5.11569e-05
5.76587e-05
5.20935e-05
5.27784e-05
5.63752e-05
4.98562e-05
4.12293e-05
3.369e-05
4.00761e-05
3.53537e-05
3.91027e-05
4.33649e-05
4.77268e-05
4.93099e-05
4.28973e-05
3.67262e-05
3.19783e-05
2.90587e-05
2.9782e-05
3.44281e-05
4.12415e-05
4.66986e-05
4.80695e-05
5.48295e-05
5.35144e-05
6.11315e-05
6.46391e-05
5.8719e-05
6.66499e-05
7.04511e-05
8.11496e-05