/*--------------------------------*- C++ -*----------------------------------*\
  =========                 |
  \\      /  F ield         | OpenFOAM: The Open Source CFD Toolbox
   \\    /   O peration     | Website:  https://openfoam.org
    \\  /    A nd           | Version:  10
     \\/     M anipulation  |
\*---------------------------------------------------------------------------*/
FoamFile
{
    format      ascii;
    class       volSymmTensorField;
    location    "7";
    object      UPrime2Mean;
}
// * * * * * * * * * * * * * * * * * * * * * * * * * * * * * * * * * * * * * //

dimensions      [0 2 -2 0 0 0 0];

internalField   nonuniform List<symmTensor> 
25600
(
(4.09163e-05 -2.49955e-07 -4.06321e-09 3.7665e-08 -6.57164e-09 6.97619e-09)
(4.08708e-05 -3.83089e-07 1.0992e-07 3.57003e-08 -6.98053e-11 7.30056e-09)
(4.12074e-05 -3.06597e-07 -7.76734e-08 3.40202e-08 6.53487e-09 6.81008e-09)
(4.09028e-05 -3.4975e-07 7.63043e-08 3.8388e-08 2.18285e-09 9.41868e-09)
(4.09153e-05 -2.5381e-07 6.20343e-08 3.0245e-08 3.3455e-09 1.39749e-08)
(4.11007e-05 -2.03234e-07 -9.03105e-08 2.96922e-08 4.22953e-09 1.90243e-08)
(4.06202e-05 -2.54524e-07 8.64522e-08 4.17455e-08 -3.49486e-09 2.53923e-08)
(4.09078e-05 -1.58005e-08 -8.35019e-08 2.71205e-08 4.58739e-09 2.53134e-08)
(4.10672e-05 -6.27438e-08 -9.72184e-08 4.01134e-08 -6.11891e-10 2.43393e-08)
(4.03542e-05 -7.02106e-08 6.29786e-08 5.53486e-08 -1.08287e-08 2.04673e-08)
(4.07125e-05 2.16301e-07 -1.0784e-07 4.14006e-08 -2.47424e-09 1.14313e-08)
(4.09276e-05 5.31279e-08 -6.13795e-08 5.99278e-08 -6.82454e-09 6.44394e-09)
(4.02802e-05 9.21843e-08 -5.69216e-08 8.47478e-08 -1.33079e-08 4.62158e-09)
(4.06134e-05 4.80915e-07 -9.99601e-08 8.20891e-08 -1.57917e-08 6.31707e-09)
(4.06431e-05 1.53133e-07 4.61938e-09 8.83939e-08 -2.22552e-08 9.93325e-09)
(4.0288e-05 3.19365e-07 -1.47751e-07 1.1826e-07 -3.0767e-08 1.20515e-08)
(4.03965e-05 5.89778e-07 -1.13379e-07 1.35615e-07 -4.07713e-08 1.92081e-08)
(4.02677e-05 1.60279e-07 3.10208e-08 1.28177e-07 -4.40547e-08 2.32618e-08)
(4.03453e-05 4.35881e-07 -1.73837e-07 1.55376e-07 -4.84958e-08 2.09872e-08)
(4.03983e-05 5.19558e-07 -6.51282e-08 1.70265e-07 -4.78397e-08 1.98972e-08)
(4.01417e-05 5.89127e-08 4.46828e-08 1.35594e-07 -3.95473e-08 1.9557e-08)
(4.01836e-05 3.77393e-07 -1.20125e-07 1.45653e-07 -3.60622e-08 1.70832e-08)
(4.0211e-05 3.90061e-07 5.56719e-09 1.52275e-07 -2.67593e-08 1.33482e-08)
(4.04092e-05 -9.46596e-08 2.26652e-08 1.0456e-07 -1.46823e-08 1.53703e-08)
(4.04529e-05 2.26364e-07 -3.94952e-08 8.87655e-08 -1.18676e-08 1.65727e-08)
(4.02218e-05 1.58274e-07 8.17048e-08 7.93547e-08 -3.04398e-09 1.40941e-08)
(4.05136e-05 -1.03044e-07 -1.94429e-08 5.27721e-08 2.90305e-09 1.70149e-08)
(4.0834e-05 3.78612e-08 -4.43455e-09 3.36371e-08 -6.05684e-10 1.84405e-08)
(4.05458e-05 -8.5956e-08 1.24452e-07 3.01754e-08 -1.96542e-09 1.16462e-08)
(4.07784e-05 -9.33355e-08 -3.38205e-08 2.70572e-08 1.6017e-09 6.2494e-09)
(4.12726e-05 -1.24331e-07 3.45697e-08 1.83226e-08 4.48356e-09 6.03778e-09)
(4.07523e-05 -1.26543e-07 1.10884e-07 1.98016e-08 2.15561e-09 4.14413e-09)
(4.09905e-05 -1.66156e-07 -6.23929e-09 1.85507e-08 -1.907e-09 2.7142e-09)
(4.15849e-05 -2.5611e-07 1.0948e-07 2.22231e-08 -3.49836e-09 6.2751e-09)
(4.08202e-05 -1.48277e-07 7.45502e-10 3.13384e-08 -6.62827e-09 6.92523e-09)
(4.10609e-05 -2.68381e-07 3.21589e-08 2.68762e-08 -6.5446e-09 7.57202e-09)
(4.15308e-05 -3.39078e-07 1.4765e-07 2.98047e-08 -4.43219e-09 9.58703e-09)
(4.08177e-05 -2.22365e-07 -5.66709e-08 3.77332e-08 -6.20081e-09 7.50439e-09)
(4.09419e-05 -3.62943e-07 6.15856e-08 3.74019e-08 -4.48648e-09 5.6586e-09)
(4.13474e-05 -3.19776e-07 1.65978e-08 3.89002e-08 -4.85684e-09 5.4e-09)
(4.08881e-05 -3.42735e-07 2.98488e-08 2.63033e-08 -6.81911e-09 1.82592e-08)
(4.08723e-05 -3.47794e-07 7.14219e-08 3.18259e-08 -3.47784e-09 1.71603e-08)
(4.11957e-05 -2.61316e-07 3.94668e-08 3.5771e-08 -1.96806e-09 1.40531e-08)
(4.09394e-05 -3.99475e-07 9.96862e-08 4.482e-08 -5.46383e-09 1.10592e-08)
(4.1052e-05 -1.85541e-07 7.86903e-08 3.02282e-08 -5.16374e-09 1.04455e-08)
(4.10204e-05 -2.27031e-07 3.4243e-08 4.03289e-08 -6.94249e-09 1.29023e-08)
(4.07997e-05 -2.70091e-07 6.9193e-08 5.84196e-08 -1.0408e-08 1.5646e-08)
(4.10459e-05 5.96799e-08 -2.26512e-08 4.13401e-08 -6.22743e-09 1.35012e-08)
(4.09022e-05 -1.28434e-07 9.86043e-09 6.73133e-08 -1.14806e-08 1.2171e-08)
(4.06431e-05 -5.93549e-08 5.55554e-08 8.28841e-08 -1.4544e-08 1.08516e-08)
(4.07766e-05 2.67085e-07 -4.60346e-08 6.63668e-08 -7.52409e-09 5.32515e-09)
(4.06959e-05 -2.89698e-09 -3.08134e-08 8.70804e-08 -1.10591e-08 3.79651e-09)
(4.0726e-05 1.33291e-07 -8.77976e-08 1.02514e-07 -1.35095e-08 7.28346e-09)
(4.06015e-05 5.15709e-07 -5.34464e-08 9.75653e-08 -2.12893e-08 1.4025e-08)
(4.04284e-05 1.22127e-07 -2.25547e-08 1.03551e-07 -3.15363e-08 1.94064e-08)
(4.07192e-05 3.47615e-07 -2.12056e-07 1.26848e-07 -3.64686e-08 2.17734e-08)
(4.02512e-05 5.27892e-07 -9.28404e-08 1.38623e-07 -4.89447e-08 3.11275e-08)
(4.01824e-05 2.16279e-07 -3.03312e-08 1.39135e-07 -5.97627e-08 3.65181e-08)
(4.07123e-05 5.24399e-07 -2.33548e-07 1.56077e-07 -5.73545e-08 3.02212e-08)
(4.00312e-05 4.12344e-07 -5.98942e-08 1.52439e-07 -4.67419e-08 2.73296e-08)
(4.01202e-05 1.30204e-07 -3.34433e-08 1.27077e-07 -4.37212e-08 3.01318e-08)
(4.0544e-05 4.13512e-07 -1.72355e-07 1.22648e-07 -3.63725e-08 2.69036e-08)
(3.98342e-05 2.53937e-07 -4.16894e-09 9.26318e-08 -1.90429e-08 2.38403e-08)
(4.03204e-05 2.5747e-08 -3.27667e-08 6.34414e-08 -1.34535e-08 3.10932e-08)
(4.06661e-05 1.30585e-07 -1.0307e-07 5.71802e-08 -1.04214e-08 3.49674e-08)
(3.99932e-05 7.0242e-09 7.4162e-08 3.53809e-08 2.25652e-09 3.45258e-08)
(4.04371e-05 -5.7585e-08 -5.63652e-08 2.05677e-08 2.96949e-09 4.29016e-08)
(4.0802e-05 -1.11527e-07 -4.31507e-08 2.04771e-08 -5.21139e-09 4.72608e-08)
(4.04626e-05 -1.52395e-07 1.40258e-07 2.18186e-08 -6.8197e-09 3.79238e-08)
(4.07578e-05 -1.44241e-07 -7.81465e-08 1.93228e-08 -2.17784e-09 3.14092e-08)
(4.12134e-05 -2.10916e-07 2.63832e-08 2.1994e-08 -5.67795e-09 3.26412e-08)
(4.07327e-05 -2.02744e-07 1.5882e-07 2.67409e-08 -1.3401e-08 2.66362e-08)
(4.09091e-05 -1.54905e-07 -5.65551e-08 2.54634e-08 -1.17936e-08 1.69603e-08)
(4.15149e-05 -1.95956e-07 1.0233e-07 2.74142e-08 -9.65545e-09 1.90782e-08)
(4.084e-05 -2.87519e-07 6.15141e-08 2.85449e-08 -1.26157e-08 2.02573e-08)
(4.09514e-05 -1.51712e-07 -5.13505e-09 3.10182e-08 -7.95814e-09 1.83239e-08)
(4.1453e-05 -2.91693e-07 1.38822e-07 2.79707e-08 1.57435e-09 2.07528e-08)
(4.08276e-05 -3.25597e-07 -5.74459e-09 2.41827e-08 -2.2999e-10 2.31589e-08)
(4.08794e-05 -2.83074e-07 3.4069e-08 2.80995e-08 -2.99596e-09 2.13798e-08)
(4.13484e-05 -3.29204e-07 6.7782e-08 2.59957e-08 -4.79168e-09 1.80477e-08)
(4.08774e-05 -4.39755e-07 8.39388e-08 3.9905e-08 -6.31309e-09 2.8662e-08)
(4.09928e-05 -3.04839e-07 4.12559e-08 4.29138e-08 -3.70352e-09 2.91891e-08)
(4.11065e-05 -2.51125e-07 1.52411e-07 4.95911e-08 -9.73971e-09 2.23299e-08)
(4.10224e-05 -4.49364e-07 1.55893e-07 5.74027e-08 -1.25128e-08 1.62538e-08)
(4.11929e-05 -1.17681e-07 8.46549e-08 3.71541e-08 -1.1984e-08 1.64648e-08)
(4.09042e-05 -3.29834e-07 1.48904e-07 6.02016e-08 -1.74564e-08 1.84588e-08)
(4.10715e-05 -2.10212e-07 6.95073e-08 6.61047e-08 -1.46609e-08 1.50089e-08)
(4.11098e-05 3.18892e-08 5.70789e-08 5.87807e-08 -1.47328e-08 1.12313e-08)
(4.0798e-05 -1.95768e-07 8.67508e-08 8.78575e-08 -1.59149e-08 1.14738e-08)
(4.10079e-05 -3.47358e-09 2.61435e-08 7.66851e-08 -8.29928e-09 1.16208e-08)
(4.08026e-05 1.68943e-07 2.37998e-08 6.85036e-08 -6.68707e-09 1.0372e-08)
(4.06688e-05 1.52297e-08 -3.89448e-08 8.19606e-08 -8.15128e-09 1.33016e-08)
(4.11867e-05 2.06497e-07 -1.3229e-07 6.82288e-08 -1.08643e-08 2.40833e-08)
(4.05923e-05 4.15204e-07 -1.4082e-08 7.07987e-08 -2.13955e-08 3.09076e-08)
(4.03955e-05 1.77425e-07 -1.07955e-07 7.83703e-08 -2.87223e-08 2.98765e-08)
(4.1063e-05 3.83345e-07 -2.5743e-07 8.34512e-08 -3.17575e-08 3.44291e-08)
(4.02434e-05 3.81067e-07 -9.12951e-08 9.02016e-08 -4.59692e-08 4.29802e-08)
(4.03561e-05 3.96028e-07 -1.50665e-07 9.61286e-08 -5.34444e-08 4.04827e-08)
(4.08657e-05 5.28075e-07 -2.35435e-07 1.01398e-07 -4.37003e-08 3.15613e-08)
(3.98602e-05 2.87607e-07 -9.80754e-08 9.19127e-08 -3.76876e-08 3.18361e-08)
(4.03033e-05 3.59067e-07 -1.43734e-07 9.92024e-08 -4.08345e-08 3.39748e-08)
(4.06225e-05 3.36259e-07 -1.60474e-07 8.0178e-08 -2.79398e-08 3.05602e-08)
(3.97017e-05 1.34838e-07 -5.61498e-08 4.95722e-08 -2.21436e-08 3.48814e-08)
(4.03029e-05 2.13155e-07 -5.72595e-08 7.38931e-08 -2.91403e-08 4.43061e-08)
(4.05569e-05 -3.31787e-08 -9.14012e-08 5.74534e-08 -1.89259e-08 4.8766e-08)
(3.99702e-05 -9.66136e-08 4.86963e-08 3.07454e-08 -1.16996e-08 5.29035e-08)
(4.03286e-05 -2.21671e-08 -1.85231e-08 4.83222e-08 -2.32383e-08 6.38052e-08)
(4.06539e-05 -2.86518e-07 -8.25567e-11 5.34865e-08 -2.6998e-08 6.51051e-08)
(4.04845e-05 -1.56099e-07 1.41169e-07 3.30687e-08 -2.22552e-08 5.5107e-08)
(4.06787e-05 -2.493e-07 -4.40276e-08 3.07212e-08 -1.67218e-08 5.01436e-08)
(4.11342e-05 -2.5896e-07 7.7319e-08 4.14712e-08 -2.26467e-08 4.98308e-08)
(4.07791e-05 -2.72773e-07 1.67605e-07 4.28025e-08 -2.89287e-08 4.05303e-08)
(4.09318e-05 -1.47856e-07 -4.03477e-08 4.40686e-08 -1.82919e-08 2.79323e-08)
(4.13229e-05 -1.48063e-07 1.11863e-07 5.09973e-08 -1.29331e-08 2.87262e-08)
(4.08633e-05 -4.02016e-07 8.96335e-08 5.3185e-08 -1.41992e-08 2.79438e-08)
(4.09867e-05 -7.74496e-08 2.16223e-08 7.13051e-08 -3.14635e-09 2.50094e-08)
(4.12162e-05 -2.87514e-07 8.86814e-08 6.39414e-08 9.95761e-09 3.14026e-08)
(4.08456e-05 -3.76808e-07 3.72904e-08 4.57937e-08 7.30288e-09 3.6342e-08)
(4.09194e-05 -2.763e-07 3.73804e-08 4.67559e-08 -7.57574e-10 3.14339e-08)
(4.12321e-05 -3.0181e-07 7.68136e-08 3.94882e-08 -5.93488e-09 2.66044e-08)
(4.08867e-05 -5.54252e-07 1.25879e-07 7.26213e-08 -4.83146e-09 3.53466e-08)
(4.11747e-05 -2.55027e-07 2.82847e-08 6.95909e-08 -4.78632e-09 3.73125e-08)
(4.09909e-05 -3.26954e-07 2.71902e-07 7.74668e-08 -1.6203e-08 2.34912e-08)
(4.11749e-05 -4.39649e-07 1.91026e-07 7.51463e-08 -1.43081e-08 1.63428e-08)
(4.12562e-05 -1.30312e-07 1.05643e-07 6.60857e-08 -1.7171e-08 2.33843e-08)
(4.08752e-05 -4.56345e-07 2.41755e-07 9.36997e-08 -2.41113e-08 2.695e-08)
(4.13773e-05 -8.74572e-08 9.39869e-08 6.84169e-08 -1.44141e-08 1.8743e-08)
(4.10839e-05 -1.35129e-07 1.34359e-07 8.60606e-08 -1.95656e-08 1.71713e-08)
(4.08764e-05 -1.73866e-07 1.13673e-07 9.8867e-08 -1.2883e-08 2.28152e-08)
(4.12789e-05 -4.42141e-09 3.03319e-08 6.85548e-08 -5.31936e-09 2.46261e-08)
(4.08634e-05 1.93207e-08 6.70921e-08 8.42452e-08 -8.11595e-09 2.49107e-08)
(4.08449e-05 1.02103e-07 -6.9349e-08 7.38083e-08 -4.87262e-09 3.27927e-08)
(4.14552e-05 2.16496e-07 -1.46957e-07 5.38968e-08 -1.93662e-08 4.92433e-08)
(4.06023e-05 2.81616e-07 -1.33674e-08 7.73193e-08 -2.3321e-08 4.83751e-08)
(4.04738e-05 2.4202e-07 -1.90375e-07 7.3249e-08 -1.95351e-08 3.79676e-08)
(4.11789e-05 3.36159e-07 -2.55623e-07 7.38889e-08 -3.39218e-08 5.0838e-08)
(4.03745e-05 2.85635e-07 -1.41643e-07 8.96135e-08 -5.21382e-08 5.65745e-08)
(4.05168e-05 5.52756e-07 -2.46295e-07 8.68264e-08 -4.25634e-08 4.11534e-08)
(4.0712e-05 4.11695e-07 -1.71755e-07 1.01844e-07 -3.24109e-08 3.29518e-08)
(3.99149e-05 3.242e-07 -1.88918e-07 1.2854e-07 -5.12603e-08 4.0096e-08)
(4.03443e-05 5.35491e-07 -1.7644e-07 1.52351e-07 -4.58322e-08 3.61881e-08)
(4.0373e-05 1.72467e-07 -1.11367e-07 1.0308e-07 -2.1166e-08 3.50784e-08)
(3.97566e-05 1.38824e-07 -1.02088e-07 1.20057e-07 -4.1834e-08 5.1279e-08)
(4.01326e-05 3.13579e-07 6.05423e-10 1.79143e-07 -5.07581e-08 5.65261e-08)
(4.02682e-05 -2.10732e-07 -6.68457e-08 1.01162e-07 -2.40844e-08 6.13538e-08)
(4.00636e-05 -1.11264e-07 6.81319e-08 8.46667e-08 -2.93701e-08 6.82905e-08)
(4.01217e-05 -9.61336e-08 9.01125e-08 1.29188e-07 -4.67014e-08 7.47914e-08)
(4.05492e-05 -3.78918e-07 6.21112e-08 9.69714e-08 -3.68e-08 6.99151e-08)
(4.05205e-05 -1.66814e-07 1.73376e-07 4.62647e-08 -2.62772e-08 5.81379e-08)
(4.05936e-05 -4.11427e-07 3.3996e-08 5.72929e-08 -1.96216e-08 5.47839e-08)
(4.11373e-05 -2.10087e-07 1.39015e-07 5.62594e-08 -2.43808e-08 5.36636e-08)
(4.08541e-05 -3.73711e-07 1.74103e-07 5.53784e-08 -2.83167e-08 4.17515e-08)
(4.10537e-05 -1.14505e-07 2.32886e-08 7.0061e-08 -1.04431e-08 3.17807e-08)
(4.10996e-05 -1.69201e-07 1.20427e-07 7.36978e-08 -2.83372e-09 3.43142e-08)
(4.09308e-05 -4.15969e-07 1.17687e-07 8.11764e-08 -3.6653e-09 3.21535e-08)
(4.10918e-05 -6.37813e-08 6.60613e-08 1.15671e-07 1.121e-08 3.45192e-08)
(4.09816e-05 -3.13542e-07 3.22198e-08 9.07122e-08 2.3327e-08 4.76247e-08)
(4.08691e-05 -3.54769e-07 8.7195e-08 6.62361e-08 1.3182e-08 4.66906e-08)
(4.09927e-05 -3.44379e-07 2.84859e-08 6.57934e-08 -1.93046e-09 3.47028e-08)
(4.10853e-05 -2.67719e-07 8.52096e-08 6.17993e-08 -9.07427e-09 3.1599e-08)
(4.09398e-05 -6.56441e-07 1.49289e-07 1.37134e-07 -5.77879e-09 4.6937e-08)
(4.1379e-05 -1.71689e-07 7.44378e-08 1.26998e-07 -1.26214e-08 4.79333e-08)
(4.09143e-05 -4.65917e-07 4.00755e-07 1.31433e-07 -2.25663e-08 2.5444e-08)
(4.13686e-05 -3.19921e-07 1.97514e-07 1.22258e-07 -1.39046e-08 1.77237e-08)
(4.12228e-05 -2.64333e-07 1.96785e-07 1.4288e-07 -2.71326e-08 3.40835e-08)
(4.10255e-05 -4.84725e-07 3.28422e-07 1.49954e-07 -3.1066e-08 3.83667e-08)
(4.16018e-05 -3.38188e-09 1.38151e-07 1.16601e-07 -1.69565e-08 2.38283e-08)
(4.10393e-05 -3.53957e-07 2.09436e-07 1.56603e-07 -2.5048e-08 2.75255e-08)
(4.10724e-05 -7.48309e-08 1.30818e-07 1.35221e-07 -4.3512e-09 3.90314e-08)
(4.13945e-05 -1.35157e-07 6.93619e-08 1.3698e-07 -8.29006e-09 4.08555e-08)
(4.10591e-05 -3.74075e-08 7.42532e-08 1.66775e-07 -5.13103e-09 4.03343e-08)
(4.10864e-05 1.2519e-07 -7.02937e-08 1.14634e-07 -7.50657e-09 5.75136e-08)
(4.15436e-05 1.77124e-07 -1.56286e-07 1.25731e-07 -3.4064e-08 7.20405e-08)
(4.06536e-05 1.82077e-07 -3.99203e-08 1.5336e-07 -1.30577e-08 5.80268e-08)
(4.05439e-05 2.10446e-07 -2.3677e-07 1.17315e-07 -1.12053e-08 5.03134e-08)
(4.12159e-05 2.44094e-07 -2.60602e-07 1.34006e-07 -4.70998e-08 7.2052e-08)
(4.06033e-05 2.5382e-07 -2.21895e-07 1.31262e-07 -5.21873e-08 6.81706e-08)
(4.0534e-05 5.5332e-07 -2.72172e-07 1.22603e-07 -2.71491e-08 4.45576e-08)
(4.05329e-05 3.27534e-07 -1.25427e-07 1.74036e-07 -3.65798e-08 4.26149e-08)
(4.00895e-05 4.89437e-07 -2.89661e-07 2.10578e-07 -7.4257e-08 5.25546e-08)
(4.01791e-05 5.17675e-07 -1.23175e-07 2.24831e-07 -3.67468e-08 3.72359e-08)
(4.01016e-05 9.08043e-08 -1.06773e-07 1.62254e-07 -1.63465e-08 5.10704e-08)
(3.99124e-05 1.85039e-07 -9.81369e-08 2.3264e-07 -5.99994e-08 7.53965e-08)
(3.98646e-05 3.17207e-07 8.67577e-08 2.76294e-07 -5.04096e-08 7.02467e-08)
(4.00378e-05 -3.16114e-07 -5.1921e-08 1.41916e-07 -1.69307e-08 7.94768e-08)
(4.01769e-05 -7.74205e-08 1.67915e-07 1.72364e-07 -4.18453e-08 8.49249e-08)
(3.9947e-05 -2.21381e-07 2.00407e-07 1.99157e-07 -4.84188e-08 8.28907e-08)
(4.05636e-05 -3.51235e-07 1.39671e-07 1.09233e-07 -3.0886e-08 7.4711e-08)
(4.04759e-05 -2.58458e-07 2.35909e-07 8.74891e-08 -2.24575e-08 6.24534e-08)
(4.06467e-05 -5.14801e-07 1.09498e-07 1.20072e-07 -5.98543e-09 6.11821e-08)
(4.12182e-05 -1.38597e-07 2.18551e-07 8.14157e-08 -1.6354e-08 6.17668e-08)
(4.09344e-05 -4.87787e-07 1.77599e-07 9.63917e-08 -2.49587e-08 4.80044e-08)
(4.12541e-05 -2.50261e-08 7.47492e-08 1.22131e-07 2.22919e-09 4.4696e-08)
(4.09356e-05 -2.57148e-07 1.32768e-07 1.04006e-07 1.05792e-08 4.68044e-08)
(4.10567e-05 -2.92766e-07 1.59037e-07 1.2198e-07 8.65355e-09 4.37504e-08)
(4.11913e-05 -1.28613e-07 7.22005e-08 1.57542e-07 2.69039e-08 5.91885e-08)
(4.08722e-05 -2.77352e-07 2.05279e-08 1.10821e-07 3.39469e-08 7.6471e-08)
(4.08716e-05 -3.2874e-07 1.25035e-07 9.60453e-08 9.95856e-09 5.87311e-08)
(4.10845e-05 -4.09813e-07 1.23197e-08 9.52191e-08 -7.83046e-09 4.0619e-08)
(4.09599e-05 -2.30771e-07 1.38088e-07 1.11057e-07 -1.39449e-08 4.39169e-08)
(4.10918e-05 -6.99463e-07 1.51683e-07 2.72911e-07 -4.38682e-09 6.68533e-08)
(4.15877e-05 -1.13977e-07 1.87247e-07 2.56529e-07 -2.22727e-08 5.92408e-08)
(4.09574e-05 -5.98312e-07 4.89094e-07 2.56878e-07 -2.7768e-08 2.88863e-08)
(4.15829e-05 -1.52678e-07 1.92434e-07 2.75199e-07 -1.65861e-08 2.54511e-08)
(4.11719e-05 -5.01444e-07 3.54076e-07 2.93709e-07 -4.01598e-08 5.21762e-08)
(4.13519e-05 -3.84997e-07 3.92226e-07 2.56526e-07 -3.8186e-08 5.63725e-08)
(4.16966e-05 -7.46481e-08 1.9626e-07 2.77283e-07 -2.7587e-08 3.2368e-08)
(4.11095e-05 -4.83808e-07 2.75429e-07 3.05619e-07 -2.81836e-08 4.26315e-08)
(4.13007e-05 -4.57706e-08 1.59565e-07 2.75553e-07 6.17238e-09 6.01505e-08)
(4.1493e-05 -2.95824e-07 9.54239e-08 3.53607e-07 -5.79157e-09 5.98606e-08)
(4.14212e-05 1.12585e-08 8.45095e-08 3.38905e-07 1.43086e-08 6.05855e-08)
(4.13506e-05 2.0678e-08 -5.99284e-08 2.62058e-07 -2.02091e-08 8.86131e-08)
(4.16653e-05 2.05312e-07 -2.06977e-07 3.28692e-07 -3.77991e-08 9.19102e-08)
(4.0731e-05 6.88922e-08 -4.08825e-08 3.2399e-07 1.66915e-08 7.10512e-08)
(4.06876e-05 1.02436e-07 -3.07067e-07 2.71428e-07 -1.28816e-08 7.74856e-08)
(4.13715e-05 1.82037e-07 -3.00494e-07 2.87006e-07 -5.89357e-08 9.91256e-08)
(4.08537e-05 2.23076e-07 -2.78334e-07 2.02848e-07 -3.00421e-08 7.84645e-08)
(4.05704e-05 4.42746e-07 -2.67677e-07 2.31417e-07 -7.49265e-09 5.45141e-08)
(4.05719e-05 4.35925e-07 -1.26794e-07 3.0445e-07 -5.21506e-08 5.94395e-08)
(4.02519e-05 6.27287e-07 -3.54907e-07 3.04715e-07 -8.84879e-08 6.64977e-08)
(3.99738e-05 4.23459e-07 -3.17623e-08 3.09966e-07 -1.38128e-08 4.26475e-08)
(3.99841e-05 1.44192e-07 -1.33343e-07 2.52344e-07 -1.42054e-08 8.56017e-08)
(4.00989e-05 2.30348e-07 -3.57219e-08 3.7045e-07 -6.78007e-08 1.09176e-07)
(3.9648e-05 3.15257e-07 1.62647e-07 3.54599e-07 -3.521e-08 9.2109e-08)
(3.99388e-05 -3.66953e-07 4.57843e-09 2.17556e-07 -6.39411e-09 1.10436e-07)
(4.03072e-05 1.75757e-08 3.41201e-07 3.2188e-07 -4.33066e-08 1.0403e-07)
(3.98892e-05 -3.24781e-07 3.15335e-07 2.7302e-07 -3.58141e-08 9.83801e-08)
(4.06259e-05 -2.64729e-07 2.64121e-07 1.65399e-07 -2.97336e-08 9.17541e-08)
(4.04037e-05 -3.95628e-07 3.06791e-07 2.21034e-07 -1.17453e-08 7.42482e-08)
(4.08676e-05 -4.87837e-07 2.18971e-07 2.46105e-07 2.37774e-08 7.82842e-08)
(4.13182e-05 -1.43144e-07 3.09212e-07 1.64296e-07 -1.31031e-08 8.56094e-08)
(4.11153e-05 -5.03315e-07 1.87099e-07 2.08983e-07 -2.4868e-08 6.83266e-08)
(4.14974e-05 1.16613e-07 1.10675e-07 2.36286e-07 1.60036e-08 7.18628e-08)
(4.08783e-05 -3.26855e-07 1.73554e-07 1.83814e-07 2.40714e-08 6.92588e-08)
(4.1227e-05 -6.31827e-08 1.93364e-07 2.15225e-07 2.05238e-08 6.87693e-08)
(4.12877e-05 -2.48591e-07 4.11417e-08 2.2564e-07 4.23747e-08 1.04694e-07)
(4.08972e-05 -1.28755e-07 7.01487e-08 1.76624e-07 3.73049e-08 1.15321e-07)
(4.08381e-05 -3.78192e-07 1.18184e-07 1.76852e-07 -1.55708e-09 7.1799e-08)
(4.12307e-05 -3.92869e-07 1.40801e-08 1.78448e-07 -1.27801e-08 5.70186e-08)
(4.08633e-05 -2.45491e-07 2.01881e-07 2.32671e-07 -1.55768e-08 6.86742e-08)
(4.13987e-05 -6.50049e-07 1.43684e-07 5.53728e-07 8.36018e-09 1.04276e-07)
(4.18639e-05 -1.3129e-07 3.32174e-07 5.34653e-07 -2.18323e-08 7.45976e-08)
(4.12185e-05 -6.17018e-07 5.20485e-07 5.60122e-07 -2.45022e-08 3.63669e-08)
(4.18413e-05 -2.28805e-08 2.30279e-07 6.49955e-07 -2.42391e-08 5.05957e-08)
(4.12861e-05 -7.06089e-07 5.57673e-07 5.74805e-07 -5.60389e-08 8.95664e-08)
(4.18327e-05 -2.3578e-07 4.27245e-07 5.25545e-07 -4.30623e-08 8.20321e-08)
(4.17878e-05 -2.9709e-07 2.88614e-07 6.19649e-07 -4.04342e-08 4.70819e-08)
(4.13655e-05 -4.70324e-07 3.47386e-07 5.80429e-07 -2.16867e-08 6.81813e-08)
(4.16003e-05 -1.75459e-07 1.97421e-07 6.62523e-07 1.98809e-08 9.03817e-08)
(4.18445e-05 -3.31564e-07 1.04104e-07 8.08841e-07 2.32245e-08 9.11718e-08)
(4.19529e-05 3.11914e-08 1.31262e-07 6.87837e-07 4.90427e-08 9.62886e-08)
(4.18072e-05 -1.47112e-07 -8.04959e-08 6.49145e-07 -4.02504e-08 1.26651e-07)
(4.1987e-05 3.10032e-07 -2.71717e-07 7.76113e-07 -1.80883e-08 1.14641e-07)
(4.08923e-05 -1.13289e-07 -1.50744e-08 7.27997e-07 5.90493e-08 1.02653e-07)
(4.10933e-05 1.99855e-08 -4.61893e-07 6.941e-07 -1.42373e-08 1.26758e-07)
(4.1765e-05 1.01933e-07 -3.13684e-07 6.15605e-07 -4.69245e-08 1.31585e-07)
(4.11763e-05 1.67499e-07 -3.32632e-07 4.24573e-07 1.11281e-08 9.97759e-08)
(4.08505e-05 3.392e-07 -2.60607e-07 5.39776e-07 7.10007e-09 8.05112e-08)
(4.08602e-05 7.32735e-07 -1.31044e-07 5.37977e-07 -6.95397e-08 8.5604e-08)
(4.03934e-05 6.30333e-07 -3.67374e-07 5.14498e-07 -9.63479e-08 8.71335e-08)
(3.99446e-05 4.3112e-07 8.18837e-08 5.28509e-07 -1.74559e-09 6.12085e-08)
(4.00604e-05 2.30416e-07 -1.39364e-07 4.49008e-07 -1.32837e-08 1.48206e-07)
(4.03688e-05 3.33757e-07 9.31866e-08 6.42548e-07 -6.99011e-08 1.58866e-07)
(3.95509e-05 3.41386e-07 2.43158e-07 5.33674e-07 -2.92142e-08 1.25676e-07)
(4.00318e-05 -3.64142e-07 1.67292e-07 4.47649e-07 -1.0525e-09 1.57511e-07)
(4.0527e-05 1.94748e-07 5.69072e-07 6.04656e-07 -3.49625e-08 1.37248e-07)
(3.99489e-05 -4.3135e-07 4.7181e-07 4.45437e-07 -2.37121e-08 1.32146e-07)
(4.0755e-05 -1.33486e-07 4.24209e-07 3.86573e-07 -3.89863e-08 1.26455e-07)
(4.04332e-05 -5.22919e-07 4.04044e-07 4.9791e-07 1.79049e-08 9.6707e-08)
(4.12407e-05 -3.63173e-07 3.82035e-07 4.83367e-07 6.76992e-08 1.16067e-07)
(4.15102e-05 -2.64164e-07 3.94087e-07 3.7333e-07 -2.26994e-08 1.30425e-07)
(4.15075e-05 -3.23112e-07 2.04521e-07 4.40788e-07 -2.22047e-08 1.06594e-07)
(4.17875e-05 2.26496e-07 1.2991e-07 4.73183e-07 3.2072e-08 1.18659e-07)
(4.10057e-05 -2.74309e-07 2.45763e-07 3.81147e-07 3.96712e-08 1.0446e-07)
(4.14357e-05 1.676e-07 1.9164e-07 4.23236e-07 3.32482e-08 1.14227e-07)
(4.1456e-05 -3.62953e-07 7.52657e-09 3.93485e-07 6.12751e-08 1.77288e-07)
(4.10439e-05 9.86147e-08 1.26305e-07 3.70946e-07 3.50738e-08 1.62468e-07)
(4.08271e-05 -5.13681e-07 6.65556e-08 3.5479e-07 -1.62117e-08 8.94406e-08)
(4.14845e-05 -2.55065e-07 3.19055e-08 3.92095e-07 -1.30004e-08 9.05111e-08)
(4.08454e-05 -3.16015e-07 2.43566e-07 5.04406e-07 -1.05585e-08 1.11157e-07)
(4.19801e-05 -5.40686e-07 1.35547e-07 1.14162e-06 4.43858e-08 1.79424e-07)
(4.24019e-05 -1.79269e-07 4.56935e-07 1.14361e-06 -1.28344e-09 9.92564e-08)
(4.1852e-05 -4.71812e-07 4.94752e-07 1.26244e-06 -2.76446e-09 5.97461e-08)
(4.23247e-05 3.38365e-08 3.33872e-07 1.41581e-06 -2.02243e-08 1.15655e-07)
(4.17522e-05 -7.77587e-07 7.59273e-07 1.15422e-06 -6.74058e-08 1.67985e-07)
(4.24915e-05 -1.63646e-07 4.56133e-07 1.21568e-06 -4.746e-08 1.25668e-07)
(4.21261e-05 -5.15563e-07 4.13649e-07 1.27605e-06 -3.7613e-08 8.05983e-08)
(4.19222e-05 -4.09878e-07 4.12318e-07 1.18457e-06 3.40466e-09 1.18954e-07)
(4.21876e-05 -3.89772e-07 2.23677e-07 1.56329e-06 5.51312e-08 1.41872e-07)
(4.26701e-05 -1.96978e-07 9.39782e-08 1.69885e-06 1.14054e-07 1.54156e-07)
(4.27806e-05 -6.36293e-08 2.09365e-07 1.47931e-06 1.08642e-07 1.64048e-07)
(4.27572e-05 -2.34689e-07 -1.82845e-07 1.54984e-06 -3.75274e-08 1.76194e-07)
(4.27479e-05 4.29558e-07 -2.97784e-07 1.76342e-06 3.93376e-08 1.52327e-07)
(4.14603e-05 -2.77086e-07 -3.26061e-08 1.72061e-06 1.27051e-07 1.73379e-07)
(4.20051e-05 -4.95453e-08 -6.74198e-07 1.69704e-06 2.32187e-08 2.26638e-07)
(4.25431e-05 -5.55379e-09 -2.78049e-07 1.3545e-06 8.82926e-09 1.81679e-07)
(4.1802e-05 8.1007e-08 -4.40791e-07 1.09332e-06 7.47326e-08 1.52181e-07)
(4.16005e-05 3.73082e-07 -2.2299e-07 1.26412e-06 2.3139e-08 1.31737e-07)
(4.14249e-05 1.10427e-06 -1.21403e-07 1.0492e-06 -7.49537e-08 1.3342e-07)
(4.06823e-05 5.63427e-07 -3.18198e-07 1.074e-06 -1.06532e-07 1.27944e-07)
(4.02668e-05 6.30643e-07 2.21709e-07 1.05516e-06 -6.86149e-09 1.00217e-07)
(4.04188e-05 3.15402e-07 -9.77692e-08 9.55364e-07 -2.77399e-09 2.59975e-07)
(4.08941e-05 5.97414e-07 2.72471e-07 1.25645e-06 -8.29662e-08 2.48035e-07)
(3.97033e-05 3.65457e-07 3.8002e-07 9.81403e-07 -4.6719e-08 1.84e-07)
(4.04542e-05 -2.11375e-07 4.52372e-07 1.01008e-06 -6.26488e-09 2.34548e-07)
(4.09115e-05 4.32312e-07 8.55866e-07 1.15817e-06 -1.32714e-08 2.04078e-07)
(4.0231e-05 -4.89326e-07 6.98246e-07 8.91826e-07 -1.5777e-08 2.08101e-07)
(4.10858e-05 5.02108e-08 6.091e-07 9.00846e-07 -4.94603e-08 1.97624e-07)
(4.06971e-05 -5.86626e-07 5.63478e-07 1.00096e-06 7.91841e-08 1.37072e-07)
(4.18057e-05 -1.83947e-07 6.04103e-07 9.55047e-07 1.2327e-07 1.91266e-07)
(4.1986e-05 -4.51272e-07 4.87547e-07 8.19634e-07 -4.5946e-08 2.09589e-07)
(4.22341e-05 7.50009e-08 2.24379e-07 9.02647e-07 -2.16767e-08 1.7393e-07)
(4.22187e-05 2.69315e-07 1.09986e-07 9.50344e-07 4.53195e-08 1.95127e-07)
(4.14375e-05 2.17843e-10 3.18107e-07 8.12615e-07 5.38992e-08 1.60195e-07)
(4.17493e-05 3.04827e-07 1.35186e-07 8.61458e-07 4.08851e-08 1.94925e-07)
(4.18669e-05 -3.53298e-07 -4.27549e-08 8.12102e-07 8.24769e-08 2.91709e-07)
(4.13407e-05 3.49906e-07 1.24119e-07 8.17984e-07 2.52701e-08 2.25626e-07)
(4.09924e-05 -6.90138e-07 -2.33143e-08 7.5042e-07 -2.81986e-08 1.27804e-07)
(4.19772e-05 -5.19696e-09 2.8441e-08 9.14323e-07 -5.31212e-09 1.57486e-07)
(4.10332e-05 -4.22181e-07 2.35261e-07 1.08638e-06 6.92214e-09 1.92403e-07)
(4.31249e-05 -3.7202e-07 8.15592e-08 2.39948e-06 1.51691e-07 3.28891e-07)
(4.35776e-05 -2.19286e-07 4.77569e-07 2.45941e-06 6.5876e-08 1.57271e-07)
(4.31532e-05 -1.76265e-07 4.09764e-07 2.76079e-06 5.8394e-08 1.40267e-07)
(4.33874e-05 5.32627e-08 4.97167e-07 2.90382e-06 3.7069e-08 2.59573e-07)
(4.28468e-05 -7.04473e-07 9.15153e-07 2.42356e-06 -5.08981e-08 3.16767e-07)
(4.36452e-05 -1.90068e-07 4.77597e-07 2.72896e-06 -3.30147e-08 2.13721e-07)
(4.30841e-05 -6.12293e-07 5.49355e-07 2.53934e-06 8.23525e-09 1.74248e-07)
(4.30079e-05 -3.99945e-07 4.50723e-07 2.55139e-06 7.42565e-08 2.32571e-07)
(4.3536e-05 -5.38633e-07 2.1381e-07 3.38467e-06 1.63308e-07 2.47573e-07)
(4.43382e-05 2.43211e-08 8.66575e-08 3.4186e-06 3.21424e-07 2.95012e-07)
(4.43502e-05 -2.54874e-07 2.96988e-07 3.20015e-06 2.33782e-07 2.91474e-07)
(4.46932e-05 -2.28063e-07 -3.32361e-07 3.43861e-06 2.6333e-08 2.60784e-07)
(4.44111e-05 5.26324e-07 -2.82041e-07 3.84833e-06 1.701e-07 2.27935e-07)
(4.29612e-05 -3.05621e-07 -1.75177e-07 3.90692e-06 2.7529e-07 3.12084e-07)
(4.3881e-05 -1.48275e-07 -9.02264e-07 3.81438e-06 1.76629e-07 4.28036e-07)
(4.41393e-05 -1.41567e-07 -2.31209e-07 3.00817e-06 1.47213e-07 2.76765e-07)
(4.31799e-05 -4.14608e-08 -6.04611e-07 2.72056e-06 1.97612e-07 2.8188e-07)
(4.314e-05 6.09053e-07 -1.45804e-07 2.73608e-06 7.38228e-08 2.42957e-07)
(4.24544e-05 1.45771e-06 -8.23128e-08 2.20791e-06 -5.21061e-08 2.44591e-07)
(4.15143e-05 5.95022e-07 -1.63317e-07 2.36928e-06 -1.19884e-07 2.1985e-07)
(4.12011e-05 9.99001e-07 4.20553e-07 2.16665e-06 -9.72673e-09 1.71146e-07)
(4.13262e-05 4.32311e-07 4.52241e-08 2.1507e-06 1.78369e-08 4.7436e-07)
(4.19347e-05 1.05876e-06 4.98345e-07 2.51001e-06 -1.36473e-07 4.27283e-07)
(4.03786e-05 4.12601e-07 6.25256e-07 1.99016e-06 -1.15148e-07 2.91768e-07)
(4.14855e-05 1.60998e-07 8.62838e-07 2.19629e-06 -4.37347e-08 3.80131e-07)
(4.1709e-05 6.03624e-07 1.20769e-06 2.23185e-06 1.99471e-08 3.60754e-07)
(4.09816e-05 -4.01971e-07 9.89165e-07 1.9092e-06 -2.59752e-08 3.79265e-07)
(4.18333e-05 2.34466e-07 8.16935e-07 1.94128e-06 -5.86613e-08 3.30516e-07)
(4.14092e-05 -5.10704e-07 8.07858e-07 1.97144e-06 1.89104e-07 2.26299e-07)
(4.27283e-05 -5.13074e-08 8.78427e-07 1.90644e-06 2.01468e-07 3.39609e-07)
(4.30109e-05 -5.45704e-07 6.10914e-07 1.73444e-06 -8.78222e-08 3.40858e-07)
(4.34629e-05 6.29163e-07 2.2256e-07 1.84302e-06 -2.88202e-08 2.83311e-07)
(4.30508e-05 3.15422e-07 4.51308e-08 1.87371e-06 5.85051e-08 3.22959e-07)
(4.23565e-05 4.85936e-07 3.61845e-07 1.68219e-06 6.79939e-08 2.52896e-07)
(4.23786e-05 3.00411e-07 2.87786e-08 1.7259e-06 4.37601e-08 3.39681e-07)
(4.27784e-05 -1.31523e-07 -1.46909e-07 1.72561e-06 1.08919e-07 4.80853e-07)
(4.18966e-05 5.36113e-07 4.21563e-08 1.69423e-06 1.29079e-08 3.30255e-07)
(4.15798e-05 -8.23693e-07 -1.74541e-07 1.63601e-06 -2.74599e-08 2.1862e-07)
(4.29264e-05 3.83615e-07 -4.32529e-08 2.09063e-06 2.45641e-08 2.90077e-07)
(4.16639e-05 -5.2765e-07 1.42212e-07 2.29401e-06 7.85173e-08 3.59394e-07)
(4.53259e-05 -1.46605e-07 -1.16819e-07 4.96442e-06 4.00523e-07 6.13321e-07)
(4.59431e-05 -1.32579e-07 3.20369e-07 5.11782e-06 2.19941e-07 3.0566e-07)
(4.5713e-05 2.18114e-07 2.48545e-07 5.76509e-06 2.23751e-07 3.87892e-07)
(4.56557e-05 8.071e-08 6.22597e-07 5.82726e-06 2.4391e-07 5.8378e-07)
(4.50849e-05 -5.4303e-07 9.92226e-07 5.21328e-06 5.11256e-08 6.24e-07)
(4.58308e-05 -2.04837e-07 4.84939e-07 5.75368e-06 6.57392e-08 4.44809e-07)
(4.51626e-05 -5.33635e-07 6.17299e-07 5.01156e-06 1.49698e-07 4.2568e-07)
(4.51541e-05 -4.03309e-07 3.71283e-07 5.46942e-06 2.40354e-07 4.97309e-07)
(4.62732e-05 -4.26625e-07 9.45608e-08 6.87853e-06 4.60679e-07 4.94872e-07)
(4.74035e-05 3.40561e-07 1.17264e-08 6.83333e-06 7.64701e-07 6.21078e-07)
(4.73823e-05 -3.55449e-07 3.37356e-07 6.77516e-06 5.20848e-07 5.62806e-07)
(4.84054e-05 -7.66805e-08 -5.54211e-07 7.26149e-06 2.33557e-07 4.51121e-07)
(4.79574e-05 8.13914e-07 -2.69511e-07 8.10996e-06 4.63174e-07 4.06608e-07)
(4.63876e-05 -1.07974e-07 -4.88362e-07 8.3624e-06 6.07683e-07 6.15819e-07)
(4.75034e-05 -8.93539e-08 -1.16124e-06 8.06281e-06 5.60145e-07 8.61689e-07)
(4.72578e-05 -1.46537e-07 -2.7273e-07 6.59411e-06 4.51126e-07 4.98546e-07)
(4.6048e-05 8.81136e-09 -8.5145e-07 6.22762e-06 5.02395e-07 5.83738e-07)
(4.60382e-05 1.10383e-06 -3.52141e-08 5.70468e-06 2.75815e-07 4.82679e-07)
(4.44797e-05 1.82311e-06 2.58252e-08 4.80187e-06 7.15877e-08 5.19541e-07)
(4.34757e-05 9.15721e-07 1.06614e-07 5.05665e-06 -7.14528e-08 4.35207e-07)
(4.31569e-05 1.55211e-06 7.34798e-07 4.44271e-06 3.79854e-08 3.08441e-07)
(4.32812e-05 7.72152e-07 3.37092e-07 4.63409e-06 6.35973e-08 9.01742e-07)
(4.39941e-05 1.72633e-06 7.9588e-07 4.87626e-06 -2.32276e-07 7.90907e-07)
(4.20837e-05 6.44006e-07 1.04527e-06 4.12047e-06 -2.60773e-07 5.16023e-07)
(4.34855e-05 8.00168e-07 1.38291e-06 4.48161e-06 -1.26736e-07 6.70179e-07)
(4.33566e-05 7.37672e-07 1.64255e-06 4.29578e-06 5.76791e-08 6.93244e-07)
(4.26552e-05 -1.09992e-07 1.34293e-06 4.01436e-06 -4.30974e-08 7.55449e-07)
(4.33932e-05 4.33852e-07 1.01074e-06 3.93793e-06 -5.6277e-08 5.90062e-07)
(4.28988e-05 -2.33508e-07 1.11189e-06 3.89061e-06 3.84967e-07 4.34842e-07)
(4.44068e-05 -1.37089e-08 1.20099e-06 3.74766e-06 3.30344e-07 6.12529e-07)