/*--------------------------------*- C++ -*----------------------------------*\
  =========                 |
  \\      /  F ield         | OpenFOAM: The Open Source CFD Toolbox
   \\    /   O peration     | Website:  https://openfoam.org
    \\  /    A nd           | Version:  10
     \\/     M anipulation  |
\*---------------------------------------------------------------------------*/
FoamFile
{
    format      ascii;
    class       surfaceScalarField;
    location    "7";
    object      phi_0;
}
// * * * * * * * * * * * * * * * * * * * * * * * * * * * * * * * * * * * * * //

dimensions      [0 3 -1 0 0 0 0];

internalField   nonuniform List<scalar> 
300480
(
1.48085e-06
-2.79525e-07
4.63822e-07
1.47084e-06
-3.73589e-07
5.3863e-07
1.37377e-06
-9.10472e-08
5.92493e-08
1.36957e-06
4.34513e-07
-7.01545e-07
1.43518e-06
1.94752e-07
-2.86773e-07
1.46399e-06
-2.93934e-07
3.93799e-07
1.46442e-06
-3.48054e-07
4.66083e-07
1.37534e-06
-7.37887e-08
6.11024e-08
1.36811e-06
3.49443e-07
-5.7292e-07
1.40658e-06
1.58749e-07
-1.97127e-07
1.4239e-06
-3.04685e-07
5.08615e-07
1.43181e-06
-3.47959e-07
4.56626e-07
1.36829e-06
-6.92937e-08
4.6399e-08
1.40098e-06
3.49076e-07
-5.54998e-07
1.46628e-06
1.21667e-07
-1.56598e-07
1.47342e-06
-2.95345e-07
5.48819e-07
1.45125e-06
-3.35253e-07
5.67505e-07
1.36186e-06
-2.35194e-08
7.42572e-08
1.3562e-06
5.36354e-07
-7.37246e-07
1.4255e-06
3.22373e-07
-4.91018e-07
1.46009e-06
-2.84274e-07
4.14913e-07
1.43908e-06
-3.54201e-07
5.0749e-07
1.35036e-06
-4.0331e-09
-3.48318e-08
1.35707e-06
4.59704e-07
-7.19319e-07
1.43044e-06
2.56044e-07
-3.87091e-07
1.47701e-06
-2.64656e-07
4.47475e-07
1.46486e-06
-3.74353e-07
5.13326e-07
1.39269e-06
-6.4198e-08
-4.35269e-10
1.39804e-06
3.87075e-07
-6.39104e-07
1.44279e-06
2.26229e-07
-3.894e-07
1.47677e-06
-2.57682e-07
4.63718e-07
1.46129e-06
-3.22374e-07
5.04643e-07
1.3676e-06
-5.59243e-08
5.94941e-08
1.36636e-06
4.17725e-07
-6.21013e-07
1.42851e-06
2.61659e-07
-3.34165e-07
1.46838e-06
-2.51172e-07
4.38189e-07
1.47077e-06
-3.68812e-07
5.08041e-07
1.38523e-06
-1.16967e-07
8.97246e-08
1.39056e-06
4.11948e-07
-5.93021e-07
2.53574e-07
-3.5981e-07
4.99969e-06
-9.416e-07
1.31416e-06
4.93246e-06
-1.3004e-06
1.82016e-06
4.57396e-06
-2.2103e-07
2.42628e-07
4.59988e-06
1.7115e-06
-2.42717e-06
4.86923e-06
6.9572e-07
-1.12994e-06
4.93748e-06
-9.75614e-07
1.10456e-06
4.9188e-06
-1.20463e-06
1.61239e-06
4.58335e-06
-1.40372e-07
2.39596e-07
4.5828e-06
1.41678e-06
-2.02892e-06
4.76816e-06
5.83304e-07
-8.46728e-07
4.79953e-06
-9.94378e-07
1.45597e-06
4.8053e-06
-1.21152e-06
1.60877e-06
4.56337e-06
-1.22804e-07
2.12664e-07
4.69731e-06
1.39855e-06
-1.95901e-06
4.96268e-06
3.945e-07
-7.22057e-07
4.96448e-06
-9.8362e-07
1.59601e-06
4.86438e-06
-1.16903e-06
1.94318e-06
4.52233e-06
2.68629e-08
2.7074e-07
4.55631e-06
2.07234e-06
-2.54233e-06
4.85325e-06
1.16329e-06
-1.74176e-06
4.93028e-06
-9.32233e-07
1.20093e-06
4.81816e-06
-1.22742e-06
1.72364e-06
4.49452e-06
9.27613e-08
-6.65337e-08
4.55344e-06
1.78466e-06
-2.47004e-06
4.85492e-06
9.18706e-07
-1.45079e-06
4.986e-06
-8.88142e-07
1.27462e-06
4.91633e-06
-1.32496e-06
1.74605e-06
4.64276e-06
-1.28543e-07
7.35729e-08
4.69016e-06
1.51776e-06
-2.20662e-06
4.88995e-06
8.23557e-07
-1.46003e-06
4.97543e-06
-8.08458e-07
1.31885e-06
4.90635e-06
-1.12769e-06
1.72713e-06
4.5629e-06
-1.1395e-07
2.53789e-07
4.57807e-06
1.65987e-06
-2.16452e-06
4.84277e-06
9.72737e-07
-1.27494e-06
4.9556e-06
-8.30079e-07
1.24798e-06
4.94203e-06
-1.29913e-06
1.73987e-06
4.61393e-06
-3.12638e-07
3.46505e-07
4.65077e-06
1.6603e-06
-2.09234e-06
8.98244e-07
-1.36409e-06
9.41897e-06
-1.70489e-06
1.83096e-06
9.2674e-06
-2.54137e-06
3.38951e-06
8.57159e-06
-3.21087e-07
8.25068e-07
8.63668e-06
3.77935e-06
-4.44837e-06
9.19268e-06
1.52978e-06
-2.59944e-06
9.2908e-06
-1.7425e-06
1.50914e-06
9.24543e-06
-2.336e-06
3.05271e-06
8.58988e-06
-1.09301e-07
7.70189e-07
8.59158e-06
3.20707e-06
-3.777e-06
8.99996e-06
1.31699e-06
-2.09189e-06
9.02671e-06
-1.76742e-06
2.14259e-06
9.02213e-06
-2.34707e-06
3.08787e-06
8.55003e-06
-8.80193e-08
7.44732e-07
8.80523e-06
3.14879e-06
-3.64264e-06
9.35581e-06
8.60264e-07
-1.88517e-06
9.3409e-06
-1.78496e-06
2.38868e-06
9.1364e-06
-2.28274e-06
3.66659e-06
8.46472e-06
1.65169e-07
8.62254e-07
8.55977e-06
4.50497e-06
-4.62311e-06
9.18071e-06
2.54932e-06
-3.65663e-06
9.29098e-06
-1.62222e-06
1.67882e-06
9.04686e-06
-2.39487e-06
3.23819e-06
8.42064e-06
3.21464e-07
2.40095e-07
8.54531e-06
3.89105e-06
-4.50489e-06
9.16355e-06
2.00067e-06
-3.18664e-06
9.38946e-06
-1.59865e-06
1.77746e-06
9.2393e-06
-2.63982e-06
3.27644e-06
8.70414e-06
-1.49239e-07
5.37144e-07
8.80606e-06
3.33711e-06
-4.01502e-06
9.2283e-06
1.82354e-06
-3.1805e-06
9.35838e-06
-1.34548e-06
1.8643e-06
9.22389e-06
-2.19571e-06
3.24251e-06
8.56288e-06
-1.39696e-07
8.31372e-07
8.5873e-06
3.67762e-06
-3.95966e-06
9.13734e-06
2.15804e-06
-2.83579e-06
9.32904e-06
-1.45314e-06
1.74231e-06
9.2918e-06
-2.5497e-06
3.25704e-06
8.64588e-06
-5.18339e-07
9.91752e-07
8.71044e-06
3.7244e-06
-3.84699e-06
1.94206e-06
-3.0129e-06
1.48504e-05
-2.14942e-06
1.48963e-06
1.45935e-05
-3.69556e-06
5.11269e-06
1.35061e-05
-4.06618e-07
2.21972e-06
1.35841e-05
6.46911e-06
-6.42746e-06
1.45092e-05
2.78024e-06
-5.01604e-06
1.46263e-05
-2.15192e-06
1.12658e-06
1.45543e-05
-3.35634e-06
4.67476e-06
1.35302e-05
5.95786e-08
2.03267e-06
1.34951e-05
5.64479e-06
-5.52639e-06
1.42055e-05
2.47341e-06
-4.27155e-06
1.42046e-05
-2.18586e-06
2.08738e-06
1.41822e-05
-3.34499e-06
4.79455e-06
1.34544e-05
8.99375e-08
2.02124e-06
1.38178e-05
5.54059e-06
-5.32106e-06
1.47462e-05
1.63095e-06
-3.98826e-06
1.47123e-05
-2.30192e-06
2.44271e-06
1.43855e-05
-3.29714e-06
5.63791e-06
1.33321e-05
3.55766e-07
2.28659e-06
1.34754e-05
7.57631e-06
-6.59417e-06
1.45178e-05
4.53519e-06
-6.54064e-06
1.4659e-05
-1.88346e-06
1.3326e-06
1.42458e-05
-3.4781e-06
4.95199e-06
1.32672e-05
6.41004e-07
1.32066e-06
1.34379e-05
6.56762e-06
-6.48157e-06
1.44555e-05
3.54975e-06
-5.91139e-06
1.47949e-05
-1.98572e-06
1.42711e-06
1.4549e-05
-3.94927e-06
4.98536e-06
1.37139e-05
-1.65475e-07
1.77994e-06
1.38603e-05
5.6812e-06
-5.71463e-06
1.45685e-05
3.28571e-06
-5.8372e-06
1.47323e-05
-1.43189e-06
1.58883e-06
1.45308e-05
-3.13709e-06
4.92711e-06
1.35113e-05
-1.46038e-07
2.17426e-06
1.35031e-05
6.29833e-06
-5.66312e-06
1.44159e-05
3.87483e-06
-5.31164e-06
1.46939e-05
-1.70079e-06
1.41198e-06
1.46334e-05
-3.70197e-06
4.92157e-06
1.36197e-05
-7.25729e-07
2.404e-06
1.36723e-05
6.47144e-06
-5.50873e-06
3.44768e-06
-5.60696e-06
2.13784e-05
-1.75903e-06
-4.19365e-07
2.10036e-05
-4.17288e-06
6.59177e-06
1.95111e-05
-3.77707e-07
4.79818e-06
1.95363e-05
9.49191e-06
-7.71654e-06
2.08972e-05
4.49433e-06
-8.50424e-06
2.1019e-05
-1.67515e-06
-6.96098e-07
2.09259e-05
-3.70307e-06
6.12501e-06
1.9535e-05
4.92713e-07
4.38516e-06
1.93834e-05
8.57116e-06
-6.69252e-06
2.04652e-05
4.15836e-06
-7.55465e-06
2.0412e-05
-1.69559e-06
5.89982e-07
2.03601e-05
-3.60916e-06
6.38508e-06
1.93954e-05
5.40604e-07
4.40071e-06
1.98098e-05
8.45888e-06
-6.41191e-06
2.12026e-05
2.83102e-06
-7.19783e-06
2.11642e-05
-2.07306e-06
1.08547e-06
2.07112e-05
-3.64429e-06
7.51071e-06
1.92623e-05
6.14685e-07
4.94852e-06
1.94011e-05
1.08508e-05
-7.74447e-06
2.09519e-05
7.06329e-06
-1.04629e-05
2.11305e-05
-1.16214e-06
-5.27467e-07
2.05165e-05
-3.91053e-06
6.51878e-06
1.91697e-05
1.07227e-06
3.53816e-06
1.93281e-05
9.47846e-06
-7.75311e-06
2.08041e-05
5.54209e-06
-9.71695e-06
2.12817e-05
-1.53783e-06
-5.01195e-07
2.09354e-05
-4.6934e-06
6.49002e-06
1.97999e-05
-1.2427e-07
4.16047e-06
1.99582e-05
8.27213e-06
-6.65306e-06
2.10022e-05
5.19381e-06
-9.49124e-06
2.11784e-05
-5.1065e-07
-2.36957e-07
2.092e-05
-3.36798e-06
6.40905e-06
1.95479e-05
-7.3458e-08
4.61852e-06
1.9426e-05
9.22546e-06
-6.63988e-06
2.07604e-05
6.11026e-06
-8.78876e-06
2.11303e-05
-1.06644e-06
-4.36795e-07
2.10553e-05
-4.14024e-06
6.34128e-06
1.96694e-05
-8.31275e-07
4.91121e-06
1.96273e-05
9.65796e-06
-6.43221e-06
5.43728e-06
-9.23308e-06
2.9051e-05
-2.61693e-07
-4.34573e-06
2.8562e-05
-3.28131e-06
7.07784e-06
2.67007e-05
1.58671e-08
8.64014e-06
2.65708e-05
1.25047e-05
-7.35891e-06
2.8398e-05
6.54619e-06
-1.26978e-05
2.85122e-05
-8.70324e-09
-4.42646e-06
2.84055e-05
-2.71733e-06
6.71589e-06
2.67188e-05
1.42699e-06
7.93773e-06
2.6338e-05
1.17818e-05
-6.38428e-06
2.78243e-05
6.3427e-06
-1.16416e-05
2.77079e-05
1.05161e-07
-2.91367e-06
2.761e-05
-2.44839e-06
7.16813e-06
2.64751e-05
1.51813e-06
7.98702e-06
2.68368e-05
1.17648e-05
-6.01924e-06
2.87486e-05
4.48041e-06
-1.12081e-05
2.87497e-05
-7.4439e-07
-2.29811e-06
2.81916e-05
-2.65552e-06
8.59592e-06
2.63742e-05
1.13443e-06
8.95511e-06
2.64101e-05
1.37748e-05
-7.04342e-06
2.853e-05
9.78504e-06
-1.49616e-05
2.87749e-05
8.11583e-07
-4.37804e-06
2.79422e-05
-3.01898e-06
7.25297e-06
2.62464e-05
1.78934e-06
7.0093e-06
2.6299e-05
1.22401e-05
-7.37696e-06
2.82453e-05
7.73993e-06
-1.41689e-05
2.88924e-05
1.62691e-08
-4.49724e-06
2.84618e-05
-4.20042e-06
7.05222e-06
2.70662e-05
1.82685e-07
7.7484e-06
2.71867e-05
1.0771e-05
-5.89187e-06
2.859e-05
7.32106e-06
-1.36874e-05
2.87479e-05
1.60546e-06
-3.98478e-06
2.84577e-05
-2.20304e-06
6.98206e-06
2.67936e-05
2.93651e-07
8.21447e-06
2.64441e-05
1.21006e-05
-5.98283e-06
2.82191e-05
8.64426e-06
-1.28585e-05
2.86888e-05
6.98565e-07
-4.25301e-06
2.86198e-05
-3.15738e-06
6.78537e-06
2.69119e-05
-5.75254e-07
8.55082e-06
2.66522e-05
1.29828e-05
-5.69543e-06
7.75763e-06
-1.3469e-05
3.78595e-05
2.33366e-06
-1.04027e-05
3.73043e-05
-5.49704e-07
5.59287e-06
3.51474e-05
1.18954e-06
1.32472e-05
3.47276e-05
1.52509e-05
-4.39222e-06
3.70002e-05
8.52258e-06
-1.64751e-05
3.71055e-05
2.87816e-06
-1.01752e-05
3.7004e-05
5.12502e-08
5.50971e-06
3.51549e-05
3.17835e-06
1.22823e-05
3.44255e-05
1.51003e-05
-3.673e-06
3.62844e-05
8.73077e-06
-1.54764e-05
3.61223e-05
3.26596e-06
-8.58752e-06
3.59785e-05
5.97959e-07
6.1817e-06
3.47615e-05
3.37624e-06
1.23391e-05
3.4929e-05
1.52993e-05
-3.20829e-06
3.73527e-05
6.37268e-06
-1.49564e-05
3.74658e-05
1.61033e-06
-7.80113e-06
3.68841e-05
1.07492e-07
7.93847e-06
3.47485e-05
2.34229e-06
1.38141e-05
3.45207e-05
1.5873e-05
-3.47987e-06
3.72244e-05
1.19354e-05
-1.8789e-05
3.76104e-05
3.89669e-06
-1.03129e-05
3.65925e-05
-3.55213e-07
6.2285e-06
3.4579e-05
3.13705e-06
1.12984e-05
3.43969e-05
1.45811e-05
-4.41912e-06
3.67616e-05
9.60103e-06
-1.80543e-05
3.76137e-05
2.6606e-06
-1.06903e-05
3.71652e-05
-1.99613e-06
5.69261e-06
3.55754e-05
1.1407e-06
1.20434e-05
3.55883e-05
1.28908e-05
-2.53474e-06
3.73377e-05
9.14083e-06
-1.72155e-05
3.74478e-05
4.85292e-06
-9.8731e-06
3.71823e-05
8.13933e-07
5.70899e-06
3.53273e-05
1.34678e-06
1.24597e-05
3.46143e-05
1.46384e-05
-2.82607e-06
3.679e-05
1.09576e-05
-1.63805e-05
3.73747e-05
3.53066e-06
-1.01407e-05
3.73638e-05
-3.12827e-07
5.3043e-06
3.54276e-05
4.57421e-07
1.28019e-05
3.47959e-05
1.6153e-05
-2.43125e-06
9.96863e-06
-1.71241e-05
4.7694e-05
5.48172e-06
-1.74545e-05
4.72272e-05
3.74137e-06
1.46058e-06
4.4896e-05
3.44073e-06
1.74187e-05
4.40037e-05
1.77891e-05
1.45746e-06
4.66061e-05
9.82168e-06
-1.8005e-05
4.67147e-05
6.48244e-06
-1.68658e-05
4.67016e-05
4.31308e-06
1.78669e-06
4.48771e-05
5.86311e-06
1.63383e-05
4.36965e-05
1.84984e-05
1.80302e-06
4.57994e-05
1.07727e-05
-1.72503e-05
4.56253e-05
7.42233e-06
-1.54997e-05
4.55104e-05
5.22369e-06
2.68342e-06
4.43043e-05
6.2731e-06
1.63064e-05
4.41031e-05
1.91896e-05
2.38696e-06
4.69195e-05
8.09759e-06
-1.66411e-05
4.72186e-05
4.54177e-06
-1.45222e-05
4.68089e-05
4.29502e-06
4.75178e-06
4.44555e-05
4.6519e-06
1.82995e-05
4.36939e-05
1.71857e-05
3.21878e-06
4.68661e-05
1.25381e-05
-1.99899e-05
4.75421e-05
7.2873e-06
-1.72489e-05
4.65138e-05
3.72836e-06
2.75303e-06
4.42361e-05
5.37615e-06
1.52869e-05
4.36191e-05
1.65948e-05
1.3536e-06
4.6242e-05
1.04682e-05
-1.94688e-05
4.73356e-05
5.83715e-06
-1.79451e-05
4.70438e-05
1.68532e-06
1.70928e-06
4.53715e-05
3.04153e-06
1.58597e-05
4.51458e-05
1.46915e-05
3.69235e-06
4.71445e-05
9.99027e-06
-1.82146e-05
4.72007e-05
8.6176e-06
-1.68027e-05
4.7092e-05
5.36077e-06
1.91549e-06
4.51983e-05
3.37204e-06
1.61945e-05
4.39579e-05
1.68347e-05
3.0964e-06
4.63824e-05
1.24009e-05
-1.75775e-05
4.71037e-05
6.83068e-06
-1.69785e-05
4.72896e-05
3.99337e-06
1.26517e-06
4.52763e-05
2.51967e-06
1.64797e-05
4.40787e-05
1.92565e-05
3.63995e-06
1.14571e-05
-1.8307e-05
5.8283e-05
8.08248e-06
-2.301e-05
5.82368e-05
8.39717e-06
-4.82135e-06
5.6029e-05
6.18454e-06
1.9549e-05
5.44098e-05
2.00696e-05
9.55276e-06
5.69678e-05
1.02138e-05
-1.55776e-05
5.71327e-05
9.70319e-06
-2.2064e-05
5.74243e-05
8.84132e-06
-4.12332e-06
5.59284e-05
8.70652e-06
1.85508e-05
5.42131e-05
2.16049e-05
9.50606e-06
5.62426e-05
1.20628e-05
-1.5181e-05
5.60992e-05
1.155e-05
-2.12493e-05
5.62092e-05
1.01151e-05
-2.93848e-06
5.52002e-05
9.41356e-06
1.82714e-05
5.44184e-05
2.29713e-05
1.0036e-05
5.72643e-05
9.42294e-06
-1.45441e-05
5.77928e-05
7.08845e-06
-2.01278e-05
5.78853e-05
8.50468e-06
-7.77647e-07
5.5635e-05
7.64632e-06
2.07587e-05
5.39151e-05
1.81534e-05
1.19911e-05
5.7043e-05
1.13069e-05
-1.67648e-05
5.82696e-05
9.50663e-06
-2.27745e-05
5.76626e-05
7.79629e-06
-2.82693e-06
5.53464e-05
7.94978e-06
1.74639e-05
5.39649e-05
1.84081e-05
9.2463e-06
5.64055e-05
1.02748e-05
-1.66964e-05
5.77967e-05
8.40852e-06
-2.37209e-05
5.80054e-05
5.73207e-06
-4.43566e-06
5.65389e-05
5.33868e-06
1.76489e-05
5.58204e-05
1.62418e-05
1.17422e-05
5.7714e-05
9.70506e-06
-1.50771e-05
5.77878e-05
1.1705e-05
-2.23856e-05
5.80894e-05
1.0068e-05
-3.9524e-06
5.64733e-05
5.80579e-06
1.79096e-05
5.45056e-05
1.87062e-05
1.08666e-05
5.67502e-05
1.28326e-05
-1.48847e-05
5.76449e-05
9.46115e-06
-2.23294e-05
5.83142e-05
8.32783e-06
-4.78061e-06
5.65494e-05
4.89749e-06
1.80632e-05
5.45369e-05
2.21381e-05
1.14846e-05
1.20372e-05
-1.53283e-05
6.91774e-05
9.07105e-06
-2.38754e-05
7.00854e-05
1.07513e-05
-1.08568e-05
6.86628e-05
7.30645e-06
1.85102e-05
6.6176e-05
2.18854e-05
1.70497e-05
6.78661e-05
1.04887e-05
-9.40048e-06
6.80375e-05
1.13156e-05
-2.26815e-05
6.90299e-05
1.11311e-05
-9.88996e-06
6.83922e-05
9.52291e-06
1.76641e-05
6.6169e-05
2.37386e-05
1.68967e-05
6.75017e-05
1.28742e-05
-9.21028e-06
6.73351e-05
1.4282e-05
-2.26666e-05
6.80024e-05
1.30937e-05
-8.56813e-06
6.76234e-05
1.0567e-05
1.70765e-05
6.6151e-05
2.5784e-05
1.70644e-05
6.82547e-05
1.07832e-05
-8.80377e-06
6.8888e-05
8.17854e-06
-2.15737e-05
6.98899e-05
1.06122e-05
-6.75797e-06
6.84519e-05
9.29642e-06
1.99299e-05
6.5489e-05
1.92298e-05
1.97945e-05
6.73768e-05
9.67348e-06
-9.39633e-06
6.92395e-05
9.22387e-06
-2.37428e-05
6.98065e-05
9.19142e-06
-8.41174e-06
6.80758e-05
8.85585e-06
1.67939e-05
6.56687e-05
2.00654e-05
1.64343e-05
6.70052e-05
1.02007e-05
-1.00504e-05
6.85913e-05
9.23687e-06
-2.46921e-05
6.97961e-05
7.52339e-06
-1.02858e-05
6.91666e-05
6.01874e-06
1.64159e-05
6.77388e-05
1.74845e-05
1.88199e-05
6.86992e-05
9.27916e-06
-8.18277e-06
6.88117e-05
1.28988e-05
-2.35511e-05
6.99321e-05
1.24657e-05
-9.67775e-06
6.92082e-05
6.64669e-06
1.66165e-05
6.64675e-05
2.00982e-05
1.78218e-05
6.76549e-05
1.32985e-05
-8.64615e-06
6.86063e-05
1.03814e-05
-2.31359e-05
7.02075e-05
1.00643e-05
-1.04402e-05
6.9338e-05
5.36878e-06
1.66123e-05
6.64178e-05
2.43993e-05
1.84074e-05
1.26001e-05
-8.55403e-06
8.03141e-05
8.99004e-06
-1.93759e-05
8.24287e-05
9.25125e-06
-1.34342e-05
8.26951e-05
4.72211e-06
1.46223e-05
7.97697e-05
2.22191e-05
2.09862e-05
7.97609e-05
1.16701e-05
-2.23816e-06
7.94896e-05
1.15138e-05
-1.81721e-05
8.13487e-05
9.67463e-06
-1.25344e-05
8.2252e-05
6.42075e-06
1.37897e-05
7.99115e-05
2.35995e-05
2.10343e-05
7.98595e-05
1.38753e-05
-1.91139e-06
7.93146e-05
1.53099e-05
-1.87473e-05
8.07199e-05
1.25175e-05
-1.13106e-05
8.1632e-05
7.85541e-06
1.31044e-05
7.97864e-05
2.60747e-05
2.05345e-05
8.02702e-05
1.26678e-05
-2.12103e-06
8.04748e-05
8.01385e-06
-1.80582e-05
8.25043e-05
9.06247e-06
-1.02932e-05
8.27349e-05
7.43677e-06
1.58736e-05
7.91273e-05
1.97606e-05
2.3536e-05
7.85834e-05
9.65185e-06
-1.0824e-06
8.02907e-05
7.32359e-06
-1.92896e-05
8.25183e-05
6.32208e-06
-1.11126e-05
8.22969e-05
6.03345e-06
1.35742e-05
7.92386e-05
2.06975e-05
2.0141e-05
7.86179e-05
1.15827e-05
-2.45974e-06
7.97501e-05
8.81326e-06
-2.00705e-05
8.20823e-05
5.75844e-06
-1.2737e-05
8.30509e-05
3.13929e-06
1.26402e-05
8.12426e-05
1.75793e-05
2.19073e-05
8.0402e-05
1.01483e-05
-6.52516e-07
8.01455e-05
1.2502e-05
-1.94032e-05
8.22808e-05
1.08947e-05
-1.21943e-05
8.31793e-05
3.96901e-06
1.27472e-05
8.02011e-05
2.02057e-05
2.10657e-05
7.95241e-05
1.50053e-05
-1.5878e-06
7.99682e-05
1.02057e-05
-1.88104e-05
8.26179e-05
7.78978e-06
-1.26926e-05
8.34255e-05
2.00681e-06
1.26187e-05
8.0176e-05
2.47966e-05
2.15967e-05
1.40851e-05
-9.74693e-07
9.26576e-05
9.11921e-06
-1.23711e-05
9.49079e-05
5.33483e-06
-1.15446e-05
9.70527e-05
-9.85134e-07
9.55863e-06
9.48798e-05
1.98261e-05
1.99445e-05
9.3417e-05
1.3275e-05
3.0161e-06
9.23028e-05
1.14487e-05
-1.13742e-05
9.40839e-05
5.80927e-06
-1.08972e-05
9.66122e-05
1.48119e-07
8.62399e-06
9.5138e-05
2.03477e-05
2.00214e-05
9.37942e-05
1.49015e-05
3.50676e-06
9.25344e-05
1.55356e-05
-1.20824e-05
9.39265e-05
9.43563e-06
-1.00239e-05
9.632e-05
1.9352e-06
8.05709e-06
9.50642e-05
2.28868e-05
1.90051e-05
9.39072e-05
1.47921e-05
2.54512e-06
9.3088e-05
7.9788e-06
-1.217e-05
9.52444e-05
5.23258e-06
-9.92536e-06
9.73228e-05
2.42031e-06
1.01935e-05
9.45869e-05
1.83029e-05
2.18974e-05
9.20281e-05
1.13412e-05
4.80751e-06
9.24206e-05
6.01387e-06
-1.20773e-05
9.52402e-05
1.08489e-06
-9.88846e-06
9.68828e-05
-8.95162e-08
9.26035e-06
9.43755e-05
1.89457e-05
1.921e-05
9.22226e-05
1.37422e-05
3.2236e-06
9.22603e-05
8.48633e-06
-1.27595e-05
9.45536e-05
2.08888e-06
-1.08459e-05
9.70408e-05
-2.51969e-06
8.05828e-06
9.58791e-05
1.54671e-05
1.97949e-05
9.36017e-05
1.20471e-05
4.49437e-06
9.25729e-05
1.19532e-05
-1.26215e-05
9.47715e-05
6.85569e-06
-1.04544e-05
9.72252e-05
-1.50276e-06
8.00189e-06
9.52117e-05
1.79739e-05
1.94028e-05
9.31539e-05
1.73504e-05
3.53314e-06
9.2633e-05
1.02324e-05
-1.20717e-05
9.51083e-05
3.43658e-06
-1.07278e-05
9.75474e-05
-4.2256e-06
7.78088e-06
9.53602e-05
2.2062e-05
1.98519e-05
1.61943e-05
4.3553e-06
0.000106472
9.06256e-06
-5.93199e-06
0.000107125
2.67918e-06
-6.93777e-06
0.000109519
-5.96157e-06
5.28784e-06
0.000109179
1.44378e-05
1.52903e-05
0.000107782
1.27726e-05
4.81461e-06
0.000106477
1.08828e-05
-5.17518e-06
0.000106723
3.01204e-06
-6.53969e-06
0.000109254
-5.49013e-06
4.36112e-06
0.000109467
1.43481e-05
1.5051e-05
0.000108186
1.38793e-05
5.27002e-06
0.00010685
1.47676e-05
-5.81822e-06
0.000106885
7.01211e-06
-6.08175e-06
0.000109299
-3.5848e-06
3.95475e-06
0.000109476
1.66408e-05
1.39998e-05
0.000108037
1.47145e-05
3.75627e-06
0.000106663
8.05683e-06
-6.62698e-06
0.000107409
2.54676e-06
-6.59799e-06
0.000109883
-2.45644e-06
5.20578e-06
0.000109323
1.411e-05
1.63219e-05
0.000106909
1.18111e-05
6.73241e-06
0.000106107
5.63397e-06
-5.38619e-06
0.000107396
-2.1989e-06
-6.19963e-06
0.000109515
-5.723e-06
5.46152e-06
0.000108815
1.4326e-05
1.48571e-05
0.000106885
1.37951e-05
5.47771e-06
0.00010624
8.04465e-06
-5.8498e-06
0.000106904
4.41809e-09
-6.43202e-06
0.000109133
-7.09613e-06
4.44801e-06
0.000109344
1.10803e-05
1.42837e-05
0.000107416
1.21465e-05
5.97783e-06
0.000106292
1.10031e-05
-6.15584e-06
0.000107032
3.94271e-06
-6.04105e-06
0.000109289
-6.00751e-06
4.2689e-06
0.000109154
1.31709e-05
1.43833e-05
0.000107533
1.72903e-05
5.38912e-06
0.000106704
1.00808e-05
-5.89231e-06
0.000107286
8.84775e-07
-6.3086e-06
0.000109509
-9.15489e-06
3.95964e-06
0.000109479
1.61694e-05
1.46669e-05
1.59232e-05
6.03709e-06
0.000119584
8.0641e-06
-1.91471e-06
0.000118888
2.55884e-06
-2.44699e-06
0.000119984
-7.27389e-06
2.72247e-06
0.000120582
8.63667e-06
9.49466e-06
0.000120164
9.47146e-06
3.65901e-06
0.000119715
9.37282e-06
-1.43774e-06
0.000118854
2.62275e-06
-2.2263e-06
0.000119834
-7.41186e-06
1.85393e-06
0.000120707
8.30888e-06
9.03616e-06
0.000120388
1.03354e-05
3.89793e-06
0.000120016
1.25215e-05
-1.91636e-06
0.000119101
6.38758e-06
-2.10888e-06
0.000120001
-5.7566e-06
1.63702e-06
0.000120728
1.01558e-05
8.26903e-06
0.000120166
1.18157e-05
2.56503e-06
0.00011943
7.45503e-06
-3.00027e-06
0.000118937
2.20396e-06
-2.76541e-06
0.000120201
-4.41029e-06
2.15999e-06
0.000121002
9.01258e-06
9.74832e-06
0.00012012
9.6198e-06
5.28749e-06
0.000119382
5.18681e-06
-1.3428e-06
0.000118948
-2.10871e-06
-2.53964e-06
0.000119938
-7.70431e-06
2.95455e-06
0.000120509
8.96905e-06
9.26666e-06
0.000119863
1.08763e-05
4.52638e-06
0.000119487
6.87026e-06
-1.53123e-06
0.000118848
3.91066e-07
-2.27765e-06
0.000119511
-8.075e-06
2.30104e-06
0.000120226
6.49997e-06
8.25544e-06
0.000119626
9.57229e-06
4.61789e-06
0.000119349
9.05436e-06
-1.99035e-06
0.000118879
3.34347e-06
-1.75936e-06
0.000119586
-7.05685e-06
2.1784e-06
0.000120365
7.91135e-06
8.65532e-06
0.000120066
1.3999e-05
4.46661e-06
0.000119898
8.94908e-06
-2.04916e-06
0.000119041
1.12071e-06
-2.14111e-06
0.000119651
-1.01055e-05
1.79901e-06
0.000120696
9.84403e-06
8.62675e-06
1.26103e-05
4.76086e-06
0.000131333
6.54273e-06
-8.96437e-08
0.000130747
3.26945e-06
2.33365e-07
0.000130805
-6.10653e-06
1.4496e-06
0.000130957
4.6097e-06
5.13745e-06
0.000130978
5.70984e-06
1.9052e-06
0.000131436
7.55285e-06
1.20598e-07
0.000130883
3.13669e-06
3.06603e-07
0.000130674
-6.62517e-06
5.90977e-07
0.000130913
4.22706e-06
4.6574e-06
0.000131024
6.4991e-06
2.0071e-06
0.000131611
9.75026e-06
-2.78686e-07
0.000131089
6.23315e-06
2.22689e-07
0.000130815
-5.45611e-06
5.38223e-07
0.000130942
5.53769e-06
4.19155e-06
0.000131007
8.0811e-06
1.15341e-06
0.000131205
6.34755e-06
-1.20053e-06
0.000130731
2.65243e-06
-2.9554e-07
0.000130869
-4.17382e-06
6.96969e-07
0.000131355
5.11061e-06
4.98871e-06
0.000131338
6.45673e-06
3.22205e-06
0.000131339
4.36689e-06
2.74317e-07
0.000130684
-8.00581e-07
-3.55636e-07
0.000130632
-6.96795e-06
1.54854e-06
0.00013108
4.99704e-06
4.94203e-06
0.00013111
7.23204e-06
2.6519e-06
0.000131338
5.35611e-06
2.1037e-07
0.000130801
1.399e-06
7.08592e-08
0.00013043
-6.87219e-06
1.15405e-06
0.000130638
3.30103e-06
4.04715e-06
0.000130684
6.32123e-06
2.79553e-06
0.000131193
6.81307e-06
-1.87916e-07
0.000130801
3.55035e-06
6.20477e-07
0.000130456
-5.97202e-06
1.16542e-06
0.000130784
4.08198e-06
4.58685e-06
0.000131043
9.82653e-06
2.91597e-06
0.000131633
7.27677e-06
-3.72258e-07
0.00013093
2.17769e-06
2.33549e-07
0.000130453
-8.59985e-06
7.54112e-07
0.000131001
5.34089e-06
4.24754e-06
8.59749e-06
2.98812e-06
0.000143599
5.05278e-06
5.11492e-07
0.000143591
3.6108e-06
1.1332e-06
0.000143293
-4.51601e-06
8.62344e-07
0.00014282
2.34425e-06
2.92925e-06
0.0001428
2.92159e-06
9.10673e-07
0.000143669
5.96531e-06
5.33015e-07
0.000143762
3.31807e-06
1.10168e-06
0.000143176
-5.21352e-06
6.20227e-09
0.000142716
1.9567e-06
2.49054e-06
0.000142754
3.6711e-06
9.34916e-07
0.00014375
7.31859e-06
1.93721e-07
0.000143911
5.68273e-06
9.17729e-07
0.000143265
-4.46156e-06
5.95948e-09
0.000142751
2.70857e-06
2.15189e-06
0.000142914
5.0416e-06
4.43411e-07
0.000143622
5.17959e-06
-5.1638e-07
0.00014362
2.77087e-06
5.46555e-07
0.000143303
-3.33671e-06
1.20956e-07
0.000143084
2.78925e-06
2.62937e-06
0.000143193
3.8916e-06
2.0798e-06
0.000143729
3.44916e-06
6.76925e-07
0.000143514
1.80476e-07
4.19581e-07
0.000143034
-5.49354e-06
8.78859e-07
0.000142964
2.59974e-06
2.69171e-06
0.000143067
4.36459e-06
1.49587e-06
0.000143676
3.9726e-06
6.49651e-07
0.000143662
1.93643e-06
7.86214e-07
0.000143009
-5.38389e-06
6.11782e-07
0.00014268
1.40566e-06
2.0028e-06
0.000142742
3.80764e-06
1.74477e-06
0.000143564
4.91999e-06
3.10591e-07
0.000143666
3.45708e-06
1.31863e-06
0.000143029
-4.55666e-06
7.06468e-07
0.000142711
1.80153e-06
2.56426e-06
0.000142912
6.40873e-06
1.97328e-06
0.000143876
5.63752e-06
1.75672e-07
0.000143807
2.79034e-06
9.42795e-07
0.000143022
-6.68213e-06
2.6135e-07
0.000142816
2.62244e-06
2.10748e-06
5.40408e-06
2.01496e-06
0.000157432
3.79839e-06
6.15679e-07
0.000157743
3.44673e-06
1.20419e-06
0.000157414
-3.29197e-06
5.71321e-07
0.000156734
1.09303e-06
1.95596e-06
0.000156568
1.23329e-06
5.40443e-07
0.000157504
4.68329e-06
5.34921e-07
0.000157903
3.07242e-06
1.0875e-06
0.00015732
-4.05735e-06
-2.34321e-07
0.000156637
7.2432e-07
1.56293e-06
0.000156511
1.91641e-06
4.99455e-07
0.000157541
5.39956e-06
2.33093e-07
0.000158016
4.81319e-06
8.69786e-07
0.000157374
-3.553e-06
-2.42187e-07
0.000156655
1.05591e-06
1.21745e-06
0.000156707
2.99022e-06
2.06586e-07
0.000157535
4.15724e-06
-3.40217e-07
0.000157806
2.56083e-06
5.9103e-07
0.000157422
-2.58833e-06
-5.72448e-08
0.000156901
1.43856e-06
1.63991e-06
0.000156908
2.13603e-06
1.57163e-06
0.000157601
2.625e-06
6.73027e-07
0.00015769
6.35652e-07
5.03712e-07
0.000157147
-4.18395e-06
5.76292e-07
0.000156844
1.17602e-06
1.71102e-06
0.000156837
2.45187e-06
1.00789e-06
0.000157541
2.87855e-06
6.95324e-07
0.00015781
1.96476e-06
8.25181e-07
0.000157175
-4.21983e-06
3.84878e-07
0.000156683
2.68729e-07
1.14189e-06
0.000156623
2.16369e-06
1.24986e-06
0.00015745
3.482e-06
3.46581e-07
0.00015782
3.03953e-06
1.25664e-06
0.000157201
-3.43323e-06
5.03876e-07
0.000156644
4.64999e-07
1.64521e-06
0.000156673
4.01692e-06
1.49026e-06
0.000157677
4.25988e-06
2.64745e-07
0.000157968
2.84551e-06
9.07048e-07
0.00015721
-5.09904e-06
3.15618e-08
0.000156701
1.04308e-06
1.20169e-06
3.22506e-06
1.56681e-06
0.000172911
2.79335e-06
5.24155e-07
0.000173315
3.04692e-06
9.87412e-07
0.00017301
-2.42779e-06
4.10259e-07
0.000172389
3.66367e-07
1.41943e-06
0.000172126
2.95629e-07
3.74587e-07
0.000172995
3.64371e-06
4.03231e-07
0.000173458
2.66005e-06
8.21403e-07
0.000172938
-3.17358e-06
-3.2859e-07
0.000172318
6.14829e-08
1.08371e-06
0.000172092
9.01933e-07
2.82216e-07
0.000173017
3.92251e-06
1.46753e-07
0.00017355
3.91135e-06
5.93029e-07
0.000172974
-2.83143e-06
-3.60053e-07
0.000172308
1.14466e-07
6.89014e-07
0.000172252
1.68359e-06
9.31013e-08
0.000173034
3.31296e-06
-3.3124e-07
0.000173391
2.23813e-06
4.04369e-07
0.00017303
-2.00144e-06
-8.40087e-08
0.000172517
6.36668e-07
1.12438e-06
0.000172424
1.03543e-06
1.23335e-06
0.000173079
1.95822e-06
5.33708e-07
0.000173284
7.86881e-07
3.73986e-07
0.000172778
-3.16476e-06
4.27495e-07
0.000172477
3.03916e-07
1.19443e-06
0.000172371
1.24591e-06
7.37789e-07
0.000173019
2.04244e-06
6.09212e-07
0.00017338
1.75424e-06
6.43009e-07
0.000172797
-3.32454e-06
2.89151e-07
0.000172357
-4.09239e-07
7.09967e-07
0.000172219
1.1502e-06
9.35397e-07
0.000172936
2.42861e-06
2.61202e-07
0.000173383
2.51285e-06
9.72695e-07
0.000172826
-2.58667e-06
4.14251e-07
0.000172305
-3.05156e-07
1.12379e-06
0.000172222
2.43622e-06
1.138e-06
0.00017312
3.16302e-06
2.07336e-07
0.000173533
2.61398e-06
6.42757e-07
0.000172852
-3.87463e-06
-4.93032e-08
0.000172354
1.19104e-07
7.23703e-07
1.82115e-06
1.22938e-06
0.00019
2.00439e-06
3.95683e-07
0.000190423
2.5678e-06
7.38841e-07
0.000190127
-1.78161e-06
3.01115e-07
0.000189635
-4.17104e-08
1.04039e-06
0.000189335
-1.57655e-07
2.67649e-07
0.0001901
2.79327e-06
2.64395e-07
0.000190554
2.23387e-06
5.55407e-07
0.000190075
-2.47139e-06
-3.47066e-07
0.000189592
-2.6021e-07
7.62615e-07
0.000189332
3.81618e-07
1.33905e-07
0.000190115
2.79914e-06
5.1368e-08
0.00019063
3.09219e-06
3.28572e-07
0.000190108
-2.21979e-06
-4.03848e-07
0.000189561
-3.748e-07
3.33921e-07
0.000189444
9.22258e-07
3.24617e-09
0.000190136
2.61966e-06
-3.45174e-07
0.000190507
1.90679e-06
2.19268e-07
0.000190167
-1.52132e-06
-6.79326e-08
0.000189753
1.72792e-07
7.73174e-07
0.000189603
3.96387e-07
9.58348e-07
0.000190167
1.44136e-06
3.85751e-07
0.000190413
7.86715e-07
2.29916e-07
0.000189962
-2.37041e-06
3.29793e-07
0.000189716
-2.15167e-07
8.43248e-07
0.000189559
5.30865e-07
5.32593e-07
0.000190108
1.41051e-06
4.9383e-07
0.000190489
1.46593e-06
4.40923e-07
0.000189952
-2.58707e-06
2.30901e-07
0.000189605
-7.72756e-07
4.38411e-07
0.000189444
5.7279e-07
6.90286e-07
0.000190029
1.66996e-06
1.70917e-07
0.000190486
1.99375e-06
6.92664e-07
0.000189984
-1.9317e-06
3.6661e-07
0.000189557
-7.00608e-07
7.61084e-07
0.000189428
1.44542e-06
8.37011e-07
0.000190187
2.30846e-06
1.27895e-07
0.000190629
2.26367e-06
3.84123e-07
0.000190011
-2.90659e-06
-6.4637e-08
0.000189611
-3.92267e-07
4.06402e-07
9.65622e-07
9.29324e-07
0.000208804
1.39787e-06
2.87428e-07
0.000209218
2.07784e-06
5.3562e-07
0.000208938
-1.28487e-06
2.27601e-07
0.000208556
-2.34858e-07
7.54502e-07
0.000208263
-3.16109e-07
1.93642e-07
0.000208911
2.10229e-06
1.59399e-07
0.000209338
1.83625e-06
3.58332e-07
0.000208892
-1.8785e-06
-3.29156e-07
0.000208537
-3.86512e-07
5.26337e-07
0.000208287
1.64515e-07
2.57628e-08
0.000208921
1.96211e-06
-1.81696e-08
0.0002094
2.39928e-06
1.36822e-07
0.000208929
-1.68428e-06
-4.00788e-07
0.000208494
-5.69969e-07
9.00936e-08
0.000208358
5.00838e-07
-4.22077e-08
0.00020895
2.04817e-06
-3.36859e-07
0.000209309
1.59008e-06
8.91497e-08
0.000208996
-1.12724e-06
-3.67407e-08
0.000208677
-6.75646e-08
5.17489e-07
0.000208501
6.06297e-08
7.20374e-07
0.00020897
1.04777e-06
2.69902e-07
0.000209226
7.07859e-07
1.24874e-07
0.000208839
-1.7424e-06
2.5563e-07
0.000208634
-4.77188e-07
5.88844e-07
0.000208466
1.44739e-07
3.73225e-07
0.000208911
9.42533e-07
3.90017e-07
0.000209285
1.16264e-06
2.79994e-07
0.000208807
-1.96749e-06
1.93563e-07
0.000208528
-9.1423e-07
2.5922e-07
0.000208377
2.66205e-07
4.98486e-07
0.000208842
1.1382e-06
1.1009e-07
0.000209276
1.52481e-06
4.73916e-07
0.000208839
-1.41771e-06
3.27092e-07
0.000208489
-8.40969e-07
5.00887e-07
0.000208355
8.49581e-07
5.92678e-07
0.000208973
1.6481e-06
6.77616e-08
0.000209409
1.86807e-06
1.91943e-07
0.000208864
-2.13796e-06
-5.74791e-08
0.000208546
-6.23568e-07
1.90467e-07
4.82868e-07
6.79855e-07
0.000229484
9.43514e-07
2.08387e-07
0.000229869
1.6151e-06
3.8487e-07
0.000229617
-9.09606e-07
1.70864e-07
0.00022932
-2.91758e-07
5.41235e-07
0.00022906
-3.15724e-07
1.44249e-07
0.000229588
1.55106e-06
9.01082e-08
0.00022998
1.47733e-06
2.26829e-07
0.000229582
-1.37632e-06
-2.95591e-07
0.00022932
-3.97886e-07
3.53798e-07
0.000229106
1.01993e-07
-3.29053e-08
0.000229595
1.35582e-06
-5.97392e-08
0.000230031
1.81653e-06
1.93166e-08
0.000229621
-1.21697e-06
-3.68821e-07
0.000229269
-5.9077e-07
-5.40683e-08
0.000229145