/*--------------------------------*- C++ -*----------------------------------*\
  =========                 |
  \\      /  F ield         | OpenFOAM: The Open Source CFD Toolbox
   \\    /   O peration     | Website:  https://openfoam.org
    \\  /    A nd           | Version:  10
     \\/     M anipulation  |
\*---------------------------------------------------------------------------*/
FoamFile
{
    format      ascii;
    class       volVectorField;
    location    "7";
    object      U;
}
// * * * * * * * * * * * * * * * * * * * * * * * * * * * * * * * * * * * * * //

dimensions      [0 1 -1 0 0 0 0];

internalField   nonuniform List<vector> 
102400
(
(0.00586914 -1.02575e-05 0.000706561)
(0.00603008 -1.38135e-05 0.000406884)
(0.00580347 -9.80588e-06 0.000119885)
(0.00516485 1.00032e-05 -0.000558914)
(0.00585619 1.00651e-05 0.000168067)
(0.00575059 -1.11068e-05 0.000520258)
(0.00600186 -1.29042e-05 0.000198279)
(0.00579633 -9.04742e-06 4.2896e-05)
(0.00519686 7.59206e-06 -0.000387284)
(0.00578416 7.89402e-06 0.00029583)
(0.00559995 -1.2648e-05 0.000712019)
(0.00583192 -1.14955e-05 0.000116105)
(0.00569674 -8.32707e-06 4.03696e-05)
(0.00524496 8.61581e-06 -0.00033066)
(0.00601056 8.56452e-06 0.000342047)
(0.00583823 -1.11004e-05 0.000782916)
(0.00600214 -1.21654e-05 0.000430696)
(0.00569645 -7.24998e-06 0.000254723)
(0.00515187 1.34171e-05 -0.00053785)
(0.00576207 1.53986e-05 -0.000252155)
(0.0057915 -1.03432e-05 0.000511784)
(0.00593709 -1.32433e-05 0.000326032)
(0.00562446 -5.71795e-06 2.54276e-06)
(0.00516963 1.11395e-05 -0.000587161)
(0.00573546 1.27617e-05 -3.68105e-05)
(0.00583993 -9.17033e-06 0.00067344)
(0.0060264 -1.357e-05 0.000328407)
(0.00576034 -8.1638e-06 2.42266e-06)
(0.00537396 9.33187e-06 -0.00048075)
(0.00585719 1.05878e-05 -0.00013728)
(0.00581672 -1.08967e-05 0.000649595)
(0.00603621 -1.13323e-05 0.000334429)
(0.00573117 -7.40716e-06 0.000103373)
(0.00521065 8.93867e-06 -0.000461429)
(0.00575083 1.17072e-05 3.81734e-05)
(0.00580703 -8.71664e-06 0.00067715)
(0.00598811 -1.24997e-05 0.00030828)
(0.00586243 -1.06128e-05 9.17666e-05)
(0.00521104 8.41742e-06 -0.000362486)
(0.0059298 1.31503e-05 4.61283e-05)
(0.0181049 -0.000113002 0.00193081)
(0.0184234 -0.000153838 0.00165069)
(0.0176484 -3.33798e-05 0.000500994)
(0.0156555 0.000183493 -0.00219779)
(0.0179888 7.97747e-05 -7.35915e-05)
(0.017712 -0.000118407 0.00143932)
(0.0183424 -0.000143325 0.00113321)
(0.0176577 -2.58263e-05 0.000302175)
(0.0157339 0.000148763 -0.00165238)
(0.0177356 6.57106e-05 0.000324658)
(0.0172424 -0.000121804 0.00200559)
(0.0178057 -0.000143822 0.000944405)
(0.0173516 -2.38144e-05 0.000335821)
(0.0159011 0.000147773 -0.00147874)
(0.018421 4.79555e-05 0.000437616)
(0.0179504 -0.000119253 0.0022225)
(0.0183249 -0.00013824 0.00178296)
(0.017289 -5.097e-06 0.000809848)
(0.015592 0.000225049 -0.00223018)
(0.0177403 0.00013194 -0.00127037)
(0.0178843 -0.000114411 0.00148178)
(0.0181308 -0.000145711 0.00140468)
(0.0170777 2.50057e-06 9.25063e-05)
(0.0156693 0.000193467 -0.00227857)
(0.0176092 0.00010488 -0.000688465)
(0.0179982 -0.000106899 0.00186876)
(0.0184256 -0.000154503 0.001428)
(0.0175302 -2.26376e-05 0.000201548)
(0.0162996 0.00016315 -0.001908)
(0.0179718 9.29299e-05 -0.000941628)
(0.0178923 -0.000101743 0.0018365)
(0.0184359 -0.000133249 0.00147024)
(0.0174639 -1.98147e-05 0.000455914)
(0.0157982 0.000177082 -0.00189314)
(0.0176288 0.000108665 -0.000429339)
(0.0178872 -0.000101249 0.00189519)
(0.0183124 -0.000152812 0.00141234)
(0.0178593 -4.38413e-05 0.000466399)
(0.0157573 0.000175254 -0.00162464)
(0.0181739 0.000103212 -0.000457053)
(0.0311433 -0.00026822 0.0026804)
(0.0314256 -0.000382301 0.00334087)
(0.030185 -5.93693e-05 0.00134949)
(0.0266263 0.000519964 -0.00425065)
(0.0307878 0.000211065 -0.00120831)
(0.030423 -0.000276649 0.00201189)
(0.0312714 -0.000353479 0.00261266)
(0.0302252 -3.3671e-05 0.00101798)
(0.0267292 0.00043393 -0.00332602)
(0.0303261 0.000178198 -0.000515453)
(0.0296257 -0.000282148 0.00298695)
(0.0303159 -0.00035569 0.0024102)
(0.0296799 -2.96348e-05 0.00110471)
(0.0270158 0.000427078 -0.003032)
(0.0314749 0.000118955 -0.000359255)
(0.030806 -0.000280769 0.00331615)
(0.0312504 -0.00034404 0.00366278)
(0.0295378 1.29817e-05 0.00176082)
(0.0265059 0.000626744 -0.00433705)
(0.0304073 0.000353294 -0.00314327)
(0.0307714 -0.000262495 0.00209287)
(0.0309409 -0.000360909 0.00293264)
(0.0291726 3.33031e-05 0.000572518)
(0.0266634 0.000540019 -0.00436716)
(0.0301126 0.000278094 -0.00227005)
(0.030917 -0.000252508 0.00263078)
(0.0314492 -0.000391427 0.00299736)
(0.0299767 -3.27263e-05 0.000882564)
(0.0277414 0.000460493 -0.00364961)
(0.0307599 0.000250692 -0.00259477)
(0.0307038 -0.000224184 0.00263344)
(0.0314339 -0.00033175 0.00309789)
(0.0299096 -3.00581e-05 0.00125923)
(0.0268908 0.00050533 -0.00369078)
(0.0301274 0.000296622 -0.00176347)
(0.0307257 -0.000234248 0.00270704)
(0.0312366 -0.000382832 0.00302382)
(0.0305707 -8.7056e-05 0.00131752)
(0.0267585 0.000507361 -0.00327996)
(0.0310438 0.000270631 -0.00186301)
(0.0448626 -0.000406859 0.00244679)
(0.0448264 -0.000643223 0.00530489)
(0.043371 -8.23328e-05 0.00306546)
(0.0380496 0.00100633 -0.00631029)
(0.0440386 0.000419568 -0.00350959)
(0.0437602 -0.000413085 0.00178431)
(0.044549 -0.000588944 0.00448487)
(0.0434474 -1.8979e-05 0.00256555)
(0.0381432 0.000862937 -0.00505147)
(0.0433373 0.000364838 -0.00251374)
(0.0426538 -0.000421205 0.00321087)
(0.04311 -0.000590602 0.00439909)
(0.0426187 -1.3814e-05 0.00271107)
(0.0385186 0.000846591 -0.00463738)
(0.0449271 0.000239969 -0.0023331)
(0.0442874 -0.000430369 0.00359476)
(0.0445754 -0.000577255 0.00594046)
(0.0424234 4.50919e-05 0.00354649)
(0.0378753 0.00119263 -0.00637574)
(0.0435694 0.00069469 -0.0061331)
(0.0443365 -0.000377052 0.00182742)
(0.0441889 -0.000606697 0.00477398)
(0.0418719 8.68092e-05 0.00184066)
(0.0381374 0.00103082 -0.00643753)
(0.0430307 0.000543648 -0.00505557)
(0.0444578 -0.000379607 0.00244353)
(0.044887 -0.00067404 0.0048822)
(0.0430435 -3.82567e-05 0.00241255)
(0.0396614 0.000887578 -0.00527539)
(0.0440492 0.000498763 -0.00532705)
(0.044129 -0.000304951 0.00252897)
(0.0448106 -0.000553372 0.00507054)
(0.0430344 -3.6204e-05 0.00288813)
(0.0384729 0.000980195 -0.00543196)
(0.0430454 0.000588962 -0.00422365)
(0.0442015 -0.000338796 0.002606)
(0.0445305 -0.000645131 0.00498209)
(0.0439485 -0.000133465 0.0030031)
(0.0381863 0.000997623 -0.00490694)
(0.0443123 0.000527185 -0.00441536)
(0.0590376 -0.000426378 0.000620246)
(0.0583478 -0.000833106 0.00709233)
(0.0570468 -9.85871e-05 0.00595223)
(0.0499031 0.00159423 -0.00765231)
(0.0574243 0.000722519 -0.00698354)
(0.0575237 -0.000421881 0.000163278)
(0.0578602 -0.000750727 0.00633688)
(0.0571493 3.14119e-05 0.00525319)
(0.0499612 0.00141076 -0.00615874)
(0.0564433 0.000651902 -0.00571799)
(0.0561652 -0.000431127 0.00205502)
(0.0558859 -0.000743584 0.00652206)
(0.0559944 3.86063e-05 0.0054696)
(0.0503514 0.00138691 -0.00562627)
(0.058411 0.000438692 -0.00551927)
(0.0581967 -0.000473395 0.00243718)
(0.0580234 -0.000739018 0.00822651)
(0.0558351 8.20025e-05 0.00652723)
(0.0496633 0.00184969 -0.00756809)
(0.0569372 0.00116019 -0.0102073)
(0.0583777 -0.000345446 5.32383e-05)
(0.0576376 -0.000784532 0.00653407)
(0.0550406 0.000154416 0.00422353)
(0.0500718 0.00160809 -0.0077683)
(0.0560673 0.000907773 -0.00901506)
(0.0583871 -0.000387588 0.000666537)
(0.058456 -0.000905356 0.00665056)
(0.0565671 -4.46902e-05 0.00506708)
(0.0520018 0.00139738 -0.00606454)
(0.0575848 0.000845516 -0.00906512)
(0.0579687 -0.000236403 0.000885604)
(0.0582744 -0.000696759 0.00697281)
(0.0566944 -3.85391e-05 0.00562642)
(0.0505233 0.0015516 -0.0064031)
(0.0561011 0.000993882 -0.00778469)
(0.0581104 -0.000313508 0.000961141)
(0.0578994 -0.000831582 0.0068439)
(0.0578291 -0.000176208 0.00578978)
(0.0500224 0.00160552 -0.00578692)
(0.0576564 0.000884883 -0.00807327)
(0.073314 -0.000239879 -0.00321146)
(0.0717099 -0.00081321 0.00790274)
(0.0709407 -7.69396e-05 0.00994916)
(0.0621169 0.00221304 -0.00731318)
(0.0705986 0.00111693 -0.0111071)
(0.071415 -0.000216903 -0.00330187)
(0.0708931 -0.000707498 0.00739987)
(0.0710246 0.000152481 0.0090644)
(0.0621586 0.00203633 -0.0057273)
(0.0692966 0.00105224 -0.0096693)
(0.069892 -0.000213545 -0.00100946)
(0.0683968 -0.0006753 0.00799798)
(0.0695266 0.000164458 0.0093747)
(0.062439 0.00201721 -0.00507453)
(0.0715236 0.000734188 -0.00943904)
(0.072222 -0.000319291 -0.00066712)
(0.0713104 -0.000695505 0.00977117)
(0.0695735 0.000139293 0.0107001)
(0.061754 0.00249032 -0.00691329)
(0.0701754 0.0017134 -0.0147844)
(0.0725801 -7.5358e-05 -0.00368967)
(0.0710526 -0.000759883 0.00747598)
(0.0684555 0.000251086 0.00771394)
(0.0623789 0.00219152 -0.00741478)
(0.0689237 0.00134854 -0.0135556)
(0.0723521 -0.000194072 -0.00316333)
(0.0718665 -0.000951806 0.00751783)
(0.0702881 -2.81637e-05 0.00876992)
(0.0646322 0.00191986 -0.00510564)
(0.0710848 0.00127017 -0.0131899)
(0.071925 6.92751e-05 -0.00276408)
(0.071534 -0.000624505 0.00803208)
(0.0706377 -1.24439e-05 0.00940998)
(0.0629604 0.00214608 -0.0056945)
(0.0690035 0.00149184 -0.0118884)
(0.0721377 -7.48262e-05 -0.00267861)
(0.0710647 -0.000798312 0.00779716)
(0.0719365 -0.000181794 0.0095929)
(0.0622112 0.00226918 -0.00500225)
(0.0707323 0.00133452 -0.0122614)
(0.0871862 0.000191726 -0.00877533)
(0.0846415 -0.000453066 0.00672621)
(0.0847279 5.89403e-05 0.014376)
(0.0744814 0.00278654 -0.00446006)
(0.0832336 0.00154611 -0.0146712)
(0.0850026 0.00025948 -0.00841966)
(0.0833818 -0.000341273 0.00663485)
(0.0846833 0.000408063 0.0133923)
(0.0746026 0.00269039 -0.0029386)
(0.0816253 0.00153196 -0.0132226)
(0.0834082 0.000300778 -0.0059047)
(0.0805022 -0.00025582 0.00771692)
(0.082886 0.000434317 0.0138054)
(0.0746105 0.0026999 -0.00216259)
(0.083924 0.00110626 -0.0129221)
(0.0858917 6.84619e-05 -0.00562204)
(0.0841652 -0.000325375 0.00952849)
(0.0833931 0.000288142 0.0154261)
(0.0738941 0.00299076 -0.00355101)
(0.0828961 0.00223977 -0.0185946)
(0.0864656 0.00046258 -0.00920472)
(0.0842111 -0.000405636 0.00663211)
(0.0818708 0.000438667 0.0117095)
(0.0748153 0.00269802 -0.00457379)
(0.0813286 0.00178492 -0.0173836)
(0.0858614 0.00024859 -0.00881748)
(0.0848362 -0.000680004 0.0064807)
(0.0839071 7.95178e-05 0.0128448)
(0.0772904 0.00237723 -0.00168749)
(0.0842377 0.00169324 -0.0164223)
(0.0855787 0.000633259 -0.00821245)
(0.0843225 -0.000205995 0.00722152)
(0.0845468 0.000110552 0.0135802)
(0.0755692 0.00268432 -0.00257441)
(0.0814861 0.00200508 -0.0153145)
(0.0858271 0.0004105 -0.00807833)
(0.0837879 -0.000414878 0.00678897)
(0.0859305 -7.28417e-05 0.013728)
(0.0745896 0.00291596 -0.00182654)
(0.0832223 0.00181369 -0.0157285)
(0.0999902 0.000804063 -0.0147518)
(0.0968157 0.000298511 0.00294718)
(0.0981029 0.000413471 0.0178611)
(0.0867374 0.00328937 0.000904381)
(0.0949863 0.00188986 -0.0159186)
(0.0976889 0.00095028 -0.0139566)
(0.0950718 0.000409389 0.00328368)
(0.0977447 0.000870612 0.0169224)
(0.0870675 0.00334957 0.00223978)
(0.0932523 0.00199465 -0.0146579)
(0.0961499 0.00106957 -0.0115112)
(0.0920934 0.000561179 0.00480877)
(0.0957849 0.000929083 0.0173867)
(0.0866606 0.00343101 0.00310773)
(0.0953627 0.00148148 -0.0142282)
(0.0985914 0.000628252 -0.011294)
(0.0962744 0.000418308 0.00664562)
(0.0970246 0.000645937 0.0193403)
(0.085883 0.00329585 0.00248492)
(0.0945698 0.00254151 -0.0198033)
(0.0993277 0.00116379 -0.0152572)
(0.0968207 0.000321743 0.00334469)
(0.0950872 0.000810596 0.0149366)
(0.0871025 0.00310294 0.000727242)
(0.0929475 0.00207368 -0.0186565)
(0.0982855 0.000875039 -0.0149804)
(0.0970289 -4.8018e-05 0.00291049)
(0.0971386 0.000375541 0.0159575)
(0.0897197 0.00274394 0.00401305)
(0.0965967 0.00197455 -0.0170181)
(0.0983684 0.00137178 -0.0141955)
(0.0963435 0.000601124 0.00382062)
(0.0980818 0.000428742 0.0168127)
(0.0881111 0.00313409 0.00284515)
(0.0932466 0.00239606 -0.0163452)
(0.0985572 0.0010651 -0.0139443)
(0.095807 0.00035601 0.00314903)
(0.0994669 0.000251239 0.016843)
(0.0869863 0.0035229 0.00358983)
(0.0947928 0.00219826 -0.0166919)
(0.110882 0.00141016 -0.01886)
(0.107783 0.00128242 -0.00274861)
(0.110726 0.000989659 0.0186877)
(0.0989173 0.00377098 0.00735521)
(0.105422 0.00202699 -0.0133015)
(0.108693 0.00166102 -0.0177116)
(0.10568 0.00138308 -0.00215266)
(0.109857 0.00149657 0.017894)
(0.0994647 0.00401404 0.00849117)
(0.103981 0.00231853 -0.0124188)
(0.107479 0.00192476 -0.0157142)
(0.10298 0.0015955 -0.000323555)
(0.107968 0.00160243 0.0182736)
(0.0986249 0.00422108 0.00930868)
(0.10562 0.00177052 -0.0118323)
(0.109606 0.00120396 -0.0155516)
(0.107249 0.00134857 0.0013968)
(0.110051 0.00124624 0.0206549)
(0.0980131 0.00350759 0.00965963)
(0.104454 0.002425 -0.0166488)
(0.110156 0.00177055 -0.0196154)
(0.10841 0.00123629 -0.00186989)
(0.107865 0.00136649 0.0158124)
(0.0993104 0.00347734 0.00706131)
(0.103254 0.00209165 -0.0157521)
(0.108844 0.00148414 -0.0193161)
(0.107998 0.000806326 -0.00253715)
(0.109635 0.000866127 0.0164921)
(0.101997 0.00307874 0.0104259)
(0.107481 0.00198997 -0.0135937)
(0.109536 0.00208655 -0.0185006)
(0.107214 0.00161655 -0.00165297)
(0.110814 0.000943559 0.0174616)
(0.100622 0.00354227 0.00910863)
(0.103864 0.00254263 -0.0135305)
(0.109521 0.00168717 -0.0180298)
(0.106756 0.00131757 -0.00245155)
(0.112155 0.000770114 0.0172908)
(0.0994943 0.00413115 0.00972986)
(0.105021 0.00236763 -0.013622)
(0.119005 0.00176022 -0.0186014)
(0.116983 0.00207039 -0.00808058)
(0.122086 0.00149397 0.0159107)
(0.111414 0.00425248 0.012387)
(0.11459 0.00203513 -0.00726443)
(0.117272 0.00214761 -0.0173104)
(0.11489 0.00215013 -0.0074699)
(0.120661 0.00196669 0.015166)
(0.111971 0.0046157 0.0133652)
(0.11384 0.00249143 -0.00679878)
(0.116855 0.00263103 -0.0161696)
(0.112866 0.00245784 -0.00557278)
(0.119134 0.00213164 0.0153474)
(0.110895 0.0049663 0.0138741)
(0.114883 0.00200401 -0.00620026)
(0.118326 0.00157348 -0.0160594)
(0.116722 0.00205914 -0.00427651)
(0.121769 0.00182079 0.0181641)
(0.110947 0.00376893 0.0152191)
(0.112645 0.00202308 -0.00939598)
(0.117846 0.00195679 -0.0196588)
(0.118281 0.00188042 -0.00694482)
(0.119733 0.00182732 0.0135196)
(0.111882 0.00388877 0.0119728)
(0.11226 0.00198215 -0.00916507)
(0.116802 0.00181949 -0.0191906)
(0.117211 0.00148041 -0.00760249)
(0.120839 0.00127353 0.0136665)
(0.114482 0.00342197 0.0149527)
(0.116654 0.0018406 -0.00680508)
(0.118207 0.00251769 -0.0187012)
(0.116484 0.00241746 -0.00705074)
(0.122128 0.00137972 0.0146395)
(0.113385 0.0039347 0.0137554)
(0.113359 0.00256018 -0.00737028)
(0.117913 0.00203312 -0.0178834)
(0.116154 0.00201364 -0.00770412)
(0.123448 0.00117121 0.0142767)
(0.112418 0.00472172 0.0141042)
(0.114063 0.00242182 -0.00710191)
(0.124965 0.00179744 -0.0136611)
(0.124151 0.00216771 -0.0102825)
(0.131486 0.00141988 0.0107295)
(0.124118 0.00456391 0.0140508)
(0.123597 0.00219177 -0.000929603)
(0.12406 0.00229583 -0.0125025)
(0.122597 0.0022432 -0.00985668)
(0.12978 0.00180888 0.00983568)
(0.124499 0.00490903 0.0147603)
(0.123486 0.00267584 -0.000670899)
(0.124563 0.00300006 -0.0123327)
(0.121497 0.00271545 -0.0082348)
(0.128865 0.00205437 0.00984696)
(0.123528 0.00537556 0.0147923)
(0.124095 0.00234438 -0.000392519)
(0.125189 0.00162349 -0.0123478)
(0.124504 0.00212215 -0.00766654)
(0.131403 0.00187837 0.0126898)
(0.124314 0.00402078 0.0169695)
(0.121271 0.00184403 -0.00155741)
(0.123108 0.00163875 -0.0146613)
(0.125853 0.00173928 -0.00923968)
(0.129922 0.00171003 0.00916107)
(0.124592 0.0042138 0.0136574)
(0.121317 0.00212848 -0.00218384)
(0.122969 0.00180482 -0.0141939)
(0.124455 0.00148624 -0.00955322)
(0.130036 0.00111414 0.00878191)
(0.126814 0.00364119 0.0156776)
(0.125227 0.00188325 4.87419e-05)
(0.124632 0.00255046 -0.0142488)
(0.123929 0.00251104 -0.00957858)
(0.131291 0.0012608 0.00952442)
(0.126002 0.00416863 0.0149223)
(0.122753 0.00279282 -0.000933474)
(0.124344 0.00205001 -0.0131737)
(0.123755 0.0019562 -0.00980176)
(0.132579 0.000948011 0.00913297)
(0.125358 0.00508672 0.0149678)
(0.123239 0.00264893 -0.000463209)
(0.13109 0.00181561 -0.00744549)
(0.130195 0.00145213 -0.00829692)
(0.137467 0.000429375 0.00568504)
(0.135231 0.00437036 0.0122506)
(0.132655 0.00258214 0.00260322)
(0.130945 0.00232188 -0.00647623)
(0.129453 0.00155089 -0.00803424)
(0.135975 0.000724167 0.00463965)
(0.135522 0.0045671 0.0124731)
(0.132927 0.00296809 0.00279432)
(0.131846 0.0031425 -0.00693643)
(0.129136 0.00221879 -0.00699743)
(0.135768 0.0010438 0.00452308)
(0.134962 0.0050976 0.0121439)
(0.13331 0.00285397 0.00255218)
(0.131738 0.00159397 -0.00717644)
(0.130886 0.00142384 -0.00724191)
(0.137678 0.00105147 0.00674909)
(0.135814 0.0039524 0.0146663)
(0.131071 0.00214124 0.00329461)
(0.129008 0.00127543 -0.00784489)
(0.131552 0.000710245 -0.0076306)
(0.136864 0.000671143 0.00496569)
(0.135518 0.00412497 0.0120752)
(0.130767 0.00261988 0.00215005)
(0.129663 0.00173479 -0.0077369)
(0.130579 0.000763089 -0.00748784)
(0.13598 8.3159e-05 0.00435266)
(0.136865 0.00342733 0.0127601)
(0.133568 0.00228327 0.00376082)
(0.130798 0.00246049 -0.00815638)
(0.13024 0.00177975 -0.00791523)
(0.137029 0.00027954 0.00467466)
(0.136377 0.00394896 0.0125761)
(0.132118 0.00333119 0.00279525)
(0.130941 0.00205039 -0.00718586)
(0.130348 0.00109497 -0.00770411)
(0.13798 -0.000217402 0.00442702)
(0.136182 0.00485786 0.0124694)
(0.132687 0.00313677 0.00321341)
(0.136991 0.00192508 -0.0033469)
(0.13594 0.000678093 -0.00414431)
(0.138802 -0.00092295 0.00269147)
(0.141052 0.00347888 0.00819624)
(0.13919 0.00279316 0.00233497)
(0.137211 0.00234513 -0.00260979)
(0.135851 0.000771331 -0.00385145)
(0.137953 -0.000755991 0.00173027)
(0.141253 0.00349605 0.00786555)
(0.139573 0.00304262 0.00237596)
(0.138013 0.00316791 -0.00332367)
(0.135912 0.00158289 -0.00347415)
(0.138243 -0.000379198 0.00148295)
(0.141148 0.00401042 0.00744841)
(0.139739 0.00315389 0.00185506)
(0.1374 0.00168241 -0.00366612)
(0.136181 0.000654193 -0.00416324)
(0.139203 -0.000189919 0.00271213)
(0.141598 0.00329591 0.00967618)
(0.138865 0.00248483 0.00391656)
(0.13567 0.00120189 -0.00293681)
(0.136309 -0.000291462 -0.00385942)
(0.138933 -0.000801707 0.00249332)
(0.141072 0.00338119 0.00828182)
(0.138048 0.00295362 0.0028071)
(0.13627 0.00174686 -0.00322089)
(0.136167 7.26179e-05 -0.00353075)
(0.137884 -0.00119738 0.00200949)
(0.14118 0.00266112 0.00787714)
(0.139205 0.00258985 0.00346917)
(0.136521 0.00239722 -0.00383288)
(0.135964 0.000973448 -0.00388127)
(0.138489 -0.000972105 0.00200377)
(0.141007 0.00313945 0.008069)
(0.138839 0.00367715 0.00286214)
(0.137144 0.00214555 -0.00321464)
(0.136475 0.00028374 -0.00358362)
(0.13876 -0.00161111 0.00193101)
(0.141143 0.00387201 0.00792605)
(0.139518 0.00342757 0.00303589)
(0.139479 0.00178314 -0.0016222)
(0.139173 0.000469956 -0.000817689)
(0.138076 -0.00151495 0.00161253)
(0.140848 0.00219596 0.00405343)
(0.140478 0.00229573 0.000133161)
(0.139626 0.00208652 -0.00121259)
(0.139447 0.000509658 -0.000450144)
(0.137814 -0.0014947 0.000879213)
(0.140776 0.00213946 0.00340025)
(0.140698 0.00247406 1.15226e-05)
(0.1401 0.00280721 -0.00196395)
(0.139567 0.00132392 -0.000571245)
(0.138217 -0.00111859 0.000564235)
(0.140856 0.00255964 0.00308746)
(0.140696 0.00274701 -0.000362875)
(0.139495 0.00161612 -0.0020864)
(0.138971 0.000419381 -0.00118729)
(0.138285 -0.000852766 0.000965298)
(0.141116 0.0022175 0.00464721)
(0.141092 0.0022329 0.00198661)
(0.13923 0.00112863 -0.00078559)
(0.138951 -0.000506505 -0.000790398)
(0.138268 -0.00155088 0.00155216)
(0.140684 0.00222718 0.00420243)
(0.140287 0.00255916 0.00114683)
(0.139332 0.00154829 -0.00126062)
(0.139193 -1.12892e-05 -0.000530867)
(0.137844 -0.0016901 0.00122739)
(0.14016 0.00165423 0.00350949)
(0.140061 0.00224203 0.00128487)
(0.139043 0.00206157 -0.00180345)
(0.13909 0.000682114 -0.000559332)
(0.138067 -0.00147294 0.00115973)
(0.140135 0.00200378 0.00375971)
(0.140366 0.00323059 0.000960737)
(0.139729 0.00197863 -0.00155806)
(0.139757 0.000140595 -0.00045051)
(0.137899 -0.00211226 0.00116703)
(0.14032 0.00248638 0.0035211)
(0.140946 0.00293862 0.000875575)
(0.138792 0.00146935 -0.000739609)
(0.13938 0.000626093 0.000755118)
(0.137833 -0.00136296 0.00116684)
(0.138811 0.00116759 0.00157894)
(0.138848 0.00143508 -0.00104373)
(0.138714 0.00168529 -0.000596998)
(0.139777 0.000618101 0.00110069)
(0.13782 -0.00144416 0.000622184)
(0.138535 0.00109741 0.000915441)
(0.138906 0.00159592 -0.00121743)
(0.138925 0.00221085 -0.00123838)
(0.139836 0.00131651 0.000728496)
(0.138151 -0.00116159 0.000335062)
(0.138618 0.0014062 0.000731082)
(0.138884 0.00193005 -0.00137806)
(0.138793 0.00139916 -0.00115971)
(0.139277 0.000524605 0.000359009)
(0.137804 -0.000903166 0.000330889)
(0.138907 0.00126827 0.00165102)
(0.139566 0.0015508 0.000532064)
(0.139019 0.000977239 -1.36351e-05)
(0.139179 -0.000250315 0.000606397)
(0.137767 -0.0015208 0.00111668)
(0.138619 0.00124925 0.00161549)
(0.139138 0.00174232 -0.000124537)
(0.138888 0.00122414 -0.000481765)
(0.139387 0.000221928 0.000761929)
(0.137842 -0.00151198 0.000857239)
(0.13816 0.000858451 0.00110581)
(0.138562 0.00152189 -4.99253e-06)
(0.138594 0.0015744 -0.000799623)
(0.139326 0.000727049 0.000952943)
(0.137927 -0.00132267 0.000834859)
(0.138153 0.00105867 0.00129397)
(0.138849 0.00231161 -0.000214242)
(0.139029 0.00163159 -0.000775806)
(0.139881 0.000374478 0.000909908)
(0.137747 -0.00189205 0.000822061)
(0.138216 0.00135015 0.000964458)
(0.139239 0.00204162 -0.000354689)
(0.13775 0.00114209 -0.000127066)
(0.138734 0.000735301 0.00110114)
(0.13803 -0.00102443 0.000820806)
(0.13765 0.000595475 0.000735363)
(0.137538 0.000773248 -0.000932022)
(0.13759 0.00132423 -0.000116503)
(0.139123 0.000690943 0.00135438)
(0.138076 -0.00115127 0.000402065)
(0.137343 0.000514779 0.000205933)
(0.137532 0.000925294 -0.0010879)
(0.137668 0.00166668 -0.000585861)
(0.139114 0.00123325 0.000937436)
(0.138316 -0.000970288 0.000166688)
(0.137398 0.000710145 5.65291e-05)
(0.137518 0.001231 -0.0011558)
(0.137852 0.00114491 -0.000517277)
(0.138842 0.000581146 0.000738319)
(0.137931 -0.00074018 0.000111203)
(0.137672 0.000692594 0.000585542)
(0.138043 0.000963925 0.00022674)
(0.138041 0.00077672 0.00032666)
(0.138719 -1.07182e-05 0.000873219)
(0.137812 -0.00122976 0.00080623)
(0.137458 0.000658995 0.000659397)
(0.137873 0.00107802 -0.000297313)
(0.137913 0.000912678 -1.8134e-05)
(0.138801 0.000382299 0.000988203)
(0.138031 -0.00118922 0.000583559)
(0.13723 0.000389621 0.000335613)
(0.137443 0.000936444 -0.000135958)
(0.137744 0.00113975 -0.000197842)
(0.138733 0.000738711 0.00120988)
(0.138109 -0.00101971 0.000592655)
(0.137211 0.000488641 0.000474542)
(0.13751 0.00153225 -0.000266615)
(0.137963 0.00127312 -0.000228871)
(0.139156 0.000551699 0.00111526)
(0.138048 -0.00148982 0.000512215)
(0.137163 0.000679353 0.000166996)
(0.137758 0.00131215 -0.000340374)
(0.137302 0.000864298 0.000137466)
(0.138282 0.000732236 0.000928205)
(0.138104 -0.00073931 0.000534798)
(0.13736 0.000291553 0.000518079)
(0.137106 0.000348019 -0.000526828)
(0.137153 0.001038 9.76328e-05)
(0.138629 0.000663539 0.00108814)
(0.138153 -0.000889276 0.000205624)
(0.137092 0.000213799 0.000134828)
(0.137101 0.000491303 -0.000650357)
(0.137198 0.00123291 -0.000212863)
(0.138582 0.00106571 0.000720428)
(0.138332 -0.000770622 1.25576e-05)
(0.13713 0.000310275 -2.9413e-05)
(0.137061 0.000736552 -0.000690902)
(0.137437 0.000920994 -0.000207809)
(0.138479 0.000552295 0.000622087)
(0.138022 -0.000569878 3.62894e-05)
(0.13736 0.000367547 0.000330499)
(0.137445 0.000542208 0.000280529)
(0.137556 0.000595796 0.000404225)
(0.138356 0.000115709 0.000703131)
(0.137887 -0.000936455 0.000566565)
(0.137187 0.000320643 0.000416697)
(0.137368 0.000617685 -0.000114061)
(0.137465 0.000664616 0.000193742)
(0.138376 0.000417735 0.000811086)
(0.138083 -0.000925387 0.000390865)
(0.137073 0.000121807 0.000180795)
(0.137093 0.00053908 1.76542e-05)
(0.137385 0.000809223 6.06444e-05)
(0.138302 0.000667047 0.000976387)
(0.138158 -0.000764659 0.000408427)
(0.137061 0.000171086 0.00029073)
(0.137044 0.000967065 -4.47087e-05)
(0.137481 0.000968212 3.47633e-05)
(0.138633 0.000596306 0.00087262)
(0.138172 -0.00113553 0.000273061)
(0.136979 0.00030067 4.56729e-05)
(0.137214 0.00079122 -6.90875e-05)
(0.137188 0.000638366 0.000166838)
(0.138022 0.000663547 0.000646546)
(0.138026 -0.000541867 0.000335031)
(0.137342 0.000115704 0.000400054)
(0.137052 0.000109693 -0.000262339)
(0.137068 0.000811567 0.000119781)
(0.138321 0.000584562 0.000741008)
(0.13807 -0.000696441 7.69931e-05)
(0.137118 4.70621e-05 0.000131787)
(0.137066 0.000237527 -0.000364047)
(0.137119 0.000901477 -7.96141e-05)
(0.13826 0.000877326 0.000440556)
(0.13821 -0.000613972 -7.94993e-05)
(0.137152 7.67241e-05 -4.23898e-05)
(0.136992 0.000420375 -0.000388821)
(0.137308 0.000734684 -0.000110364)
(0.138229 0.000489233 0.000408026)
(0.137971 -0.000442028 1.46127e-05)
(0.137344 0.000174438 0.000236314)
(0.137307 0.000275696 0.00028573)
(0.137394 0.000444994 0.000338043)
(0.138114 0.000161017 0.000465668)
(0.137861 -0.00070894 0.000394234)
(0.137209 0.000112982 0.000312957)
(0.137254 0.000326835 2.4892e-06)
(0.137331 0.000474318 0.000223825)
(0.138114 0.000385281 0.000559742)
(0.138008 -0.000729635 0.000264079)
(0.137121 -4.21645e-05 0.000130897)
(0.137055 0.000292357 9.19142e-05)
(0.137293 0.000566484 0.000112778)
(0.138043 0.000561379 0.000667921)
(0.138064 -0.000576387 0.00028673)
(0.137122 -1.75829e-05 0.000215218)
(0.136987 0.000591552 6.77751e-05)
(0.13733 0.000722149 9.45925e-05)
(0.138307 0.000564359 0.000564225)
(0.13811 -0.000864288 0.000133392)
(0.13705 7.62146e-05 2.28468e-05)
(0.137118 0.000454925 5.42613e-05)
(0.137155 0.000462555 0.000123443)
(0.137822 0.00056888 0.000412237)
(0.13789 -0.000399618 0.000202565)
(0.137337 1.50162e-05 0.000295539)
(0.137064 -1.21567e-05 -0.000123497)
(0.13706 0.000626792 8.27039e-05)
(0.138074 0.000495349 0.000465828)
(0.137931 -0.000545097 4.4339e-06)
(0.137153 -3.79259e-05 0.000110141)
(0.137093 0.000100137 -0.000214196)
(0.137123 0.000647151 -4.50989e-05)
(0.138013 0.000701257 0.000229491)
(0.138038 -0.000487053 -0.0001189)
(0.13719 -5.03505e-05 -5.78274e-05)
(0.137002 0.000228643 -0.000226384)
(0.137251 0.000582776 -8.82617e-05)
(0.138018 0.000420328 0.000234692)
(0.137858 -0.000338486 8.71854e-06)
(0.137348 6.03594e-05 0.000165098)
(0.137268 0.000115077 0.000238694)
(0.13732 0.000328016 0.000242894)
(0.137913 0.00016866 0.000281044)
(0.137777 -0.000533098 0.000273086)
(0.137247 -1.28569e-05 0.000230116)
(0.137222 0.000148475 3.93714e-05)
(0.137275 0.00032973 0.000186385)
(0.137905 0.000329697 0.000352676)
(0.137882 -0.000572138 0.000177196)
(0.137166 -0.000136129 9.15802e-05)
(0.137065 0.000145829 9.69956e-05)
(0.137259 0.00039162 9.41914e-05)
(0.137845 0.000452827 0.000423096)
(0.137919 -0.000432006 0.000203419)
(0.137176 -0.000120461 0.000152475)
(0.137007 0.000350424 8.77214e-05)
(0.137267 0.000529333 8.03057e-05)
(0.138054 0.000498958 0.000325068)
(0.137976 -0.000652227 5.80467e-05)
(0.137121 -5.16145e-05 9.01644e-07)
(0.137113 0.000244161 7.60687e-05)
(0.13713 0.000326063 7.75725e-05)
(0.137642 0.00046705 0.000251302)
(0.137733 -0.000290249 0.000117408)
(0.137303 -3.73722e-05 0.000209336)
(0.137066 -6.25971e-05 -5.04375e-05)
(0.137053 0.000474945 4.63432e-05)
(0.137849 0.000410031 0.000280749)
(0.137774 -0.000419462 -3.13382e-05)
(0.137156 -7.46054e-05 8.16143e-05)
(0.137103 3.7712e-05 -0.000133487)
(0.137123 0.000456892 -3.67404e-05)
(0.137794 0.000546254 9.71936e-05)
(0.137853 -0.000375886 -0.00012586)
(0.137198 -0.000109061 -6.93748e-05)
(0.13701 0.000121237 -0.000137785)
(0.137201 0.000457165 -7.9792e-05)
(0.137821 0.000352778 0.000120969)
(0.137724 -0.000253214 7.72487e-06)
(0.137323 -1.72509e-06 0.000109127)
(0.13723 2.85613e-05 0.000181933)
(0.137259 0.000240116 0.000164968)
(0.137728 0.000156282 0.000160897)
(0.137665 -0.000395272 0.000187173)
(0.137249 -8.23755e-05 0.000164735)
(0.13719 4.88036e-05 4.35283e-05)
(0.137227 0.000223005 0.000140491)
(0.137715 0.000266065 0.000209724)
(0.137735 -0.000439212 0.000117151)
(0.137176 -0.000181212 6.00511e-05)
(0.137064 6.7631e-05 7.97695e-05)
(0.137223 0.000267391 6.61211e-05)
(0.137668 0.000351243 0.00025612)
(0.137757 -0.000318924 0.000144471)
(0.13719 -0.000167248 0.000101736)
(0.137021 0.000204288 7.44724e-05)
(0.137217 0.000380976 5.46409e-05)
(0.13783 0.000418197 0.000168908)
(0.137816 -0.000483312 1.85073e-05)
(0.137149 -0.000116775 -1.69458e-05)
(0.137105 0.000122299 6.43577e-05)
(0.137097 0.000222694 4.51132e-05)
(0.137475 0.000368395 0.000149958)
(0.137569 -0.000207099 6.58699e-05)
(0.137245 -5.78813e-05 0.00014435)
(0.137051 -7.1231e-05 -1.21674e-05)
(0.137036 0.000352836 2.25981e-05)
(0.13764 0.000332284 0.000164895)
(0.137612 -0.000312703 -4.46115e-05)
(0.137132 -8.36491e-05 5.69186e-05)
(0.137089 1.77493e-05 -8.70705e-05)
(0.137105 0.00031661 -3.23256e-05)
(0.137594 0.000416917 2.46024e-05)
(0.137667 -0.000277759 -0.000114804)
(0.137176 -0.00012446 -7.25936e-05)
(0.137006 6.54785e-05 -8.84439e-05)
(0.137148 0.000354314 -7.07873e-05)
(0.137633 0.000289515 5.43956e-05)
(0.137579 -0.000184949 7.63104e-06)
(0.137271 -2.9546e-05 6.93298e-05)
(0.137182 -1.26956e-05 0.000132295)
(0.137197 0.000172917 0.000110627)
(0.137555 0.000133796 9.03776e-05)
(0.137537 -0.000286369 0.000127115)
(0.137219 -0.000112461 0.000116928)
(0.137147 -1.3212e-07 3.79907e-05)
(0.137175 0.000145059 0.000102749)
(0.137539 0.00020463 0.000120353)
(0.13758 -0.000328839 7.72609e-05)
(0.137156 -0.000189356 3.81088e-05)
(0.137045 2.79964e-05 6.0568e-05)
(0.137176 0.000180567 4.39609e-05)
(0.137504 0.000262397 0.000150119)
(0.137591 -0.000230903 0.000101444)
(0.13717 -0.000174347 6.59685e-05)
(0.137017 0.000119424 5.33187e-05)
(0.137165 0.00026691 3.36675e-05)
(0.137626 0.000335361 7.74014e-05)
(0.137647 -0.000350618 -4.05397e-08)
(0.13714 -0.000138544 -2.63359e-05)
(0.137083 5.76352e-05 4.72701e-05)
(0.137052 0.000146231 2.49124e-05)
(0.13732 0.000278978 9.01092e-05)
(0.137406 -0.000144139 3.68407e-05)
(0.137168 -5.89451e-05 9.73077e-05)
(0.137018 -6.00547e-05 6.35208e-06)