/*--------------------------------*- C++ -*----------------------------------*\
  =========                 |
  \\      /  F ield         | OpenFOAM: The Open Source CFD Toolbox
   \\    /   O peration     | Website:  https://openfoam.org
    \\  /    A nd           | Version:  10
     \\/     M anipulation  |
\*---------------------------------------------------------------------------*/
FoamFile
{
    format      ascii;
    class       volTensorField;
    location    "19";
    object      gradientUWrite;
}
// * * * * * * * * * * * * * * * * * * * * * * * * * * * * * * * * * * * * * //

dimensions      [0 0 -1 0 0 0 0];

internalField   nonuniform List<tensor> 
25600
(
(0.131086 0.162894 0.167055 -0.193897 -0.269486 0.106177 0.100149 -0.372355 0.106064)
(0.00588748 0.211261 0.191051 -0.103637 -0.231982 0.185096 0.0457063 -0.0744724 0.192034)
(-0.0970564 0.152424 0.107363 0.12066 -0.157789 0.204538 -0.049476 0.0790815 0.197168)
(-0.036827 0.0234258 -0.00255845 0.440569 0.0201589 0.166201 -0.0189051 0.0596708 0.0403024)
(0.0179267 -0.156838 -0.0431441 0.63816 0.157903 0.152541 0.040596 -0.0280585 -0.14341)
(0.0185075 -0.307851 -0.0279449 0.582566 0.205779 0.114801 0.0856899 -0.0986477 -0.211935)
(-0.0518173 -0.282879 -0.0189567 0.357475 0.2043 0.0951898 0.268839 -0.0693721 -0.148141)
(-0.169892 -0.0759332 -0.0645068 0.09256 0.143115 0.0487668 0.607591 -0.0237367 -0.0159753)
(-0.211353 0.189143 -0.142718 -0.103509 0.144267 -0.0316591 1.04831 -0.0142214 0.0455982)
(-0.180575 0.371502 -0.178673 -0.208953 0.141138 -0.0750644 1.34084 0.022164 0.0158182)
(-0.0297848 0.380715 -0.146024 -0.184415 0.0778096 -0.125131 1.3707 0.0558213 -0.0757229)
(0.163939 0.203202 -0.0547854 -0.0150469 -0.00274165 -0.113196 1.09182 0.00399846 -0.161555)
(0.181257 -0.0924291 0.0649863 0.100262 -0.0636731 -0.0146563 0.550868 -0.150812 -0.152012)
(0.0655646 -0.328779 0.129368 -0.00283359 -0.0857517 -0.00427403 0.0251293 -0.368026 0.0125696)
(-0.130851 -0.36938 0.0957132 -0.250936 -0.117372 -0.0266561 -0.391146 -0.482357 0.271626)
(-0.284727 -0.2864 0.00879015 -0.539054 -0.206947 -0.0380133 -0.391926 -0.359964 0.453367)
(-0.175437 -0.101755 -0.0596644 -0.655029 -0.318878 -0.039097 -0.037602 -0.015481 0.467786)
(-0.0399448 0.112741 -0.0574242 -0.541815 -0.363976 -0.00387692 0.35856 0.438749 0.39913)
(-0.0347321 0.136684 -0.0112092 -0.379111 -0.379532 -0.0240392 0.755094 0.784188 0.292777)
(0.0650919 0.0759674 0.0227987 -0.20999 -0.288598 -0.0595312 0.86885 0.951104 0.15719)
(0.140541 0.0398762 0.0119234 -0.0897661 -0.164437 -0.0811331 0.786692 0.918266 0.0286941)
(0.190163 0.00525154 -0.0288063 -0.139289 -0.173276 -0.0862864 0.670145 0.725408 -0.109556)
(0.351013 0.136425 -0.058443 -0.212577 -0.118346 -0.0556141 0.502756 0.556829 -0.198339)
(0.32581 0.241227 -0.0651342 -0.241885 -0.0222539 -0.0612227 0.449529 0.41617 -0.265922)
(0.139337 0.1162 -0.0384256 -0.300158 0.0703157 -0.0972475 0.42756 0.351296 -0.283354)
(-0.00950068 -0.043315 -0.0133549 -0.178669 0.165211 -0.169149 0.290878 0.37899 -0.151446)
(-0.15677 -0.185533 0.000169004 0.0400575 0.0494202 -0.285949 0.0454598 0.30462 0.0424248)
(-0.191588 -0.186654 0.0386571 0.222386 -0.0978388 -0.353819 -0.321975 0.232891 0.210165)
(-0.15049 -0.0508008 0.0811913 0.340046 -0.0890924 -0.319193 -0.503287 0.160054 0.212721)
(-0.0941757 0.00386498 0.0980548 0.289085 -0.0282474 -0.207828 -0.395394 0.00929345 0.0430503)
(0.0202022 0.050704 0.0434292 0.224134 0.0798677 -0.0799741 -0.0124867 -0.0478946 -0.1007)
(0.0678632 0.0571582 -0.0409093 0.120385 0.114039 0.000674427 0.433924 -0.0945479 -0.184948)
(0.0495278 0.0108514 -0.101686 -0.0304832 0.034609 0.0432872 0.665903 -0.120907 -0.139383)
(0.038729 0.0280487 -0.13088 -0.0927401 -0.0636344 0.0457599 0.68135 -0.125485 0.0161963)
(0.00110598 -0.00261259 -0.0817736 -0.0821716 -0.217424 0.0579444 0.556251 -0.290883 0.162355)
(-0.0429249 -0.0491778 -0.00394808 0.0127917 -0.240868 0.0867518 0.424069 -0.469171 0.260207)
(-0.0754322 -0.0865188 0.0566688 0.134808 -0.181867 0.119511 0.296638 -0.622427 0.226629)
(-0.0259453 -0.118893 0.0831197 0.101392 -0.136969 0.127984 0.197632 -0.715027 0.12425)
(0.0817282 -0.0471704 0.0735444 0.0297523 -0.0820872 0.107915 0.166549 -0.694661 0.0215085)
(0.134545 0.0633523 0.097085 -0.0988976 -0.191165 0.099053 0.126927 -0.600571 0.0104618)
(0.114213 -0.102854 0.170819 -0.125806 -0.247802 0.162116 -0.373848 -0.603148 0.0931936)
(0.256332 0.0738462 0.132091 -0.241468 -0.391078 0.0716274 -0.310999 -0.41907 0.0312187)
(0.345536 0.261842 0.000682502 -0.110399 -0.419342 -0.069422 -0.167167 -0.306357 -0.0596358)
(0.296918 0.355044 -0.041823 0.347259 -0.201842 -0.0615946 -0.20373 -0.384566 -0.16131)
(-0.0141987 0.182414 -0.0220652 0.748232 0.080393 0.129889 -0.365098 -0.536958 -0.127174)
(-0.344818 -0.142556 -0.0384628 0.680268 0.17818 0.240936 -0.273409 -0.508351 0.103495)
(-0.488211 -0.334344 -0.114491 0.118744 0.0625469 0.150125 0.242299 -0.208769 0.36169)
(-0.392096 -0.244525 -0.21209 -0.489471 -0.200565 -0.0473441 0.823135 0.110972 0.518006)
(-0.152973 0.0102812 -0.183222 -0.701049 -0.467649 -0.133861 1.08103 0.290575 0.574324)
(0.065792 0.203034 -0.0442113 -0.541018 -0.589504 -0.0796314 0.927446 0.425927 0.501052)
(0.269305 0.253335 0.0859778 -0.199027 -0.579196 -0.059622 0.547643 0.49727 0.297049)
(0.316544 0.199327 0.150758 0.0758713 -0.430593 -0.0623275 0.165075 0.419057 0.124781)
(0.054281 0.0570496 0.0514385 0.112107 -0.204066 -0.0394542 0.0260002 0.32021 0.123761)
(-0.264873 -0.118089 -0.096041 0.0624758 -0.0307707 -0.0325474 0.158198 0.090593 0.316544)
(-0.444619 -0.246562 -0.102559 0.0575853 0.116648 0.0514301 0.197865 -0.173467 0.415851)
(-0.432431 -0.322041 -0.014518 0.162268 0.144553 0.139796 0.065367 -0.29947 0.256331)
(-0.172439 -0.239621 0.0773329 0.351862 0.113241 0.121665 -0.140211 -0.316748 0.0334309)
(0.0346884 -0.0545407 0.0823767 0.429173 0.0333282 0.0837034 -0.0839091 -0.129929 -0.13561)
(0.0705548 0.0801677 0.00950647 0.40332 -0.126492 0.0452377 0.31292 0.169937 -0.142842)
(0.174402 0.169276 -0.0646043 0.382533 -0.124959 0.00135546 0.766632 0.459056 -0.0672191)
(0.159493 0.118442 -0.108234 0.263072 -0.117427 -0.0441202 1.02635 0.659527 -0.0231053)
(0.0940481 0.0478226 -0.0926171 0.0511175 -0.179413 -0.0917401 0.9044 0.620636 0.0124914)
(0.22022 0.169804 -0.0424486 -0.204438 -0.159983 -0.0939401 0.563379 0.392104 0.0571423)
(0.194417 0.263893 0.0136784 -0.454449 -0.188025 -0.0522041 0.28845 0.0545436 0.0531695)
(0.145183 0.181545 0.0202204 -0.506754 -0.161293 -0.0609766 0.290683 -0.157585 0.0294619)
(0.219479 -0.0447285 -0.0613234 -0.332343 -0.0633504 -0.134807 0.514142 -0.0904855 -0.0368551)
(0.147898 -0.267042 -0.126903 -0.270138 -0.00329877 -0.146321 0.649443 0.00715635 -0.131311)
(0.046129 -0.166491 -0.078028 -0.269187 0.230955 -0.0794349 0.587863 -0.0691231 -0.238487)
(-0.0958663 0.0929602 0.0495737 -0.25402 0.420412 -0.0276744 0.46921 -0.280238 -0.324195)
(-0.187767 0.193339 0.132084 -0.25179 0.339895 -0.0536214 0.346919 -0.422688 -0.258005)
(-0.131565 0.158253 0.0998688 -0.169399 0.141772 -0.126648 0.229217 -0.362981 -0.0451567)
(-0.135933 0.00947797 0.0300856 -0.177466 -0.157334 -0.0909578 0.0565427 -0.216498 0.191747)
(-0.0762306 -0.145613 -0.0361142 -0.221196 -0.281278 -0.00747911 -0.226604 -0.0390178 0.297529)
(0.0812561 -0.205045 -0.068313 -0.277031 -0.306869 0.0515306 -0.414426 0.0529605 0.220272)
(0.180463 -0.153919 -0.0218371 -0.301914 -0.328828 0.0566702 -0.418883 0.0219619 0.106835)
(0.174161 -0.0271023 0.0377384 -0.104812 -0.211262 0.0499043 -0.114685 -0.046646 0.104894)
(-0.00227588 0.0213729 0.0801841 0.069114 -0.207856 0.115905 0.327104 -0.120298 0.189185)
(-0.129527 -0.00406213 0.104391 0.142749 -0.145824 0.20539 0.525981 -0.241803 0.277)
(-0.128769 -0.0975106 0.11227 0.126065 -0.0518501 0.258342 0.322893 -0.414413 0.242163)
(-0.0667222 -0.185878 0.128828 -0.0146097 -0.130743 0.231821 -0.111181 -0.570875 0.153049)
(-0.0583899 -0.0769539 0.0346849 -0.267646 -0.177241 -0.0897955 -1.09969 -0.28817 0.289317)
(0.041433 0.0566479 -0.00613079 -0.312143 -0.0372289 -0.00220313 -1.39296 -0.443013 -0.0629667)
(0.430936 0.31915 -0.012709 -0.204683 -0.115013 0.117221 -1.34661 -0.308353 -0.422952)
(0.704867 0.467598 0.158989 0.0460908 -0.261025 0.245801 -1.14359 0.00806314 -0.496237)
(0.290887 0.188852 0.209406 0.279729 -0.174973 0.253405 -0.888258 0.148655 -0.183618)
(-0.536043 -0.307599 -0.0121367 0.234481 0.161436 0.108135 -0.375922 0.119749 0.326529)
(-1.06059 -0.601333 -0.266473 -0.0286933 0.449379 -0.0740259 0.257451 0.0475125 0.590458)
(-0.869264 -0.530511 -0.313201 -0.40638 0.368158 -0.134056 0.593309 0.0147192 0.422897)
(-0.248746 -0.149344 -0.173151 -0.639371 0.111427 -0.0403031 0.701027 0.0680929 0.0901389)
(0.257737 0.263766 -0.104938 -0.688949 -0.18382 -0.0377801 0.662711 0.251908 -0.0850379)
(0.508485 0.500778 -0.110585 -0.630053 -0.532193 -0.231535 0.356167 0.366454 -0.0350036)
(0.435581 0.513628 -0.0193801 -0.361647 -0.64093 -0.47103 -0.0670531 0.398795 0.20904)
(0.158609 0.252402 0.0884254 -0.00325841 -0.545902 -0.546376 -0.35197 0.404105 0.38168)
(-0.00966245 -0.0439176 0.184157 0.356968 -0.354268 -0.358137 -0.460542 0.26442 0.400915)
(-0.0767201 -0.212961 0.220456 0.493025 -0.0318687 -0.0568398 -0.307446 0.206331 0.178017)
(-0.0543686 -0.292465 0.064856 0.418143 0.165151 0.123511 0.011416 0.213208 -0.142838)
(0.0459537 -0.20644 -0.0936725 0.464558 0.240657 0.0673783 0.353526 0.130695 -0.227175)
(0.0094748 -0.101083 -0.108023 0.572437 0.132663 -0.0943569 0.609818 -0.0211558 -0.162334)
(-0.0637944 0.00040986 -0.0775462 0.652926 -0.125199 -0.183387 0.689643 -0.204918 0.0560102)
(-0.0411537 0.0919653 -0.0591807 0.542601 -0.264445 -0.11766 0.789705 -0.145312 0.297227)
(-0.132297 0.0019102 -0.0761319 0.204483 -0.312508 0.0206346 0.852289 0.0896438 0.371864)
(-0.20589 -0.0261322 -0.0758842 0.0208167 -0.241471 0.0636169 0.91089 0.164332 0.382769)
(-0.079723 0.132327 -0.0242344 -0.0975641 -0.180906 0.0713059 0.868059 0.112581 0.296994)
(0.0634037 0.242205 -0.0306565 -0.178466 -0.352821 0.0160644 0.596457 0.0111268 0.184237)
(0.241028 0.225431 -0.101524 -0.167931 -0.485582 -0.147343 0.210291 0.00681115 0.1756)
(0.207353 0.0874467 -0.0884221 -0.279268 -0.420028 -0.267053 -0.171673 0.140258 0.199913)
(-0.0767346 0.0508711 0.0344834 -0.506706 -0.12669 -0.237968 -0.305908 0.145141 0.133214)
(-0.156611 0.166205 0.126336 -0.435624 0.310181 -0.0651664 -0.143091 -0.0241346 -0.110077)
(-0.131108 0.0525274 0.0997006 -0.295258 0.482405 0.063404 0.0277191 -0.0873801 -0.305107)
(-0.0325848 -0.20974 0.0191551 -0.301608 0.295853 0.0699912 0.0785543 0.0233022 -0.27099)
(0.0679705 -0.351443 0.0176318 -0.430121 -0.0652679 0.0781549 0.129371 0.221488 -0.0150865)
(0.00641314 -0.297656 0.0642747 -0.536266 -0.392234 0.142145 0.13399 0.406989 0.298957)
(-0.0443961 -0.127264 0.0223237 -0.370437 -0.387337 0.109013 0.110633 0.48229 0.445464)
(-0.0242736 -0.0325479 -0.0720435 -0.235349 -0.28855 -0.0118083 -0.133482 0.274052 0.31033)
(0.160096 0.0628293 -0.0776688 -0.18064 -0.123528 -0.074214 -0.391629 -0.231711 -0.0169397)
(0.284202 0.0530503 0.0489175 -0.229319 0.0895196 0.0341299 -0.415151 -0.74731 -0.278273)
(0.136315 -0.022492 0.18762 -0.46636 0.0362522 0.242227 -0.335542 -0.862105 -0.23252)
(0.0118134 0.0207961 0.203057 -0.470716 -0.0567517 0.30906 -0.226733 -0.432747 0.0265139)
(-0.0677834 -0.0392558 0.0989643 -0.300871 -0.236179 0.158132 -0.216133 -0.0133442 0.279888)
(-0.0924267 -0.121655 0.0202538 -0.251769 -0.332602 -0.0568126 -0.524839 -0.0361972 0.396316)
(0.0530445 0.121946 0.199561 -0.85747 0.3647 -0.142183 -0.905872 0.269764 -0.4339)
(0.284201 0.119145 0.275421 -0.220514 0.419009 -0.0106251 -1.38121 -0.396721 -0.757307)
(0.623088 0.0985152 0.186235 -0.0855558 0.448656 -0.0598451 -1.38464 -0.665792 -0.99393)
(0.698834 0.320127 0.0790031 -0.856911 0.350248 -0.243636 -0.786766 -0.362422 -0.813645)
(0.155428 0.501152 -0.104685 -1.83012 0.115401 -0.504413 0.0949404 0.204008 -0.140097)
(-0.594483 0.312626 -0.282654 -2.02593 -0.0537437 -0.653432 0.964732 0.782755 0.609011)
(-1.0229 -0.20295 -0.310708 -1.30828 -0.0651388 -0.567313 1.39623 1.09264 0.957473)
(-0.895399 -0.525049 -0.195891 -0.412451 -0.0182829 -0.385811 1.33804 0.956903 0.667831)
(-0.374485 -0.419929 -0.109801 0.108675 0.150298 -0.329186 1.14311 0.60218 0.157689)
(0.0902698 -0.276147 -0.193751 0.0784647 0.13937 -0.376001 0.866666 0.296102 -0.265979)
(0.537551 -0.0684036 -0.25818 -0.106158 -0.0857342 -0.345318 0.428534 0.0709417 -0.506539)
(0.799407 0.217593 -0.101823 -0.166777 -0.224654 -0.0906281 0.0449867 0.149053 -0.503378)
(0.604954 0.290703 0.139822 -0.466693 -0.310596 0.265503 -0.0148793 0.414111 -0.305073)
(0.13209 0.275772 0.298113 -0.820492 -0.151637 0.403961 0.168952 0.501111 0.0607934)
(-0.365083 0.147664 0.289549 -0.867787 0.096882 0.1967 0.484009 0.211256 0.283091)
(-0.419479 -0.114114 0.0862499 -0.713767 0.151201 -0.261866 0.77989 -0.204309 0.17584)
(-0.0363753 -0.261069 -0.102297 -0.422235 0.0935514 -0.605766 0.884615 -0.439806 -0.0944412)
(0.174253 -0.334298 -0.123793 -0.106684 -0.0998721 -0.607363 0.683718 -0.383965 -0.147257)
(0.0358649 -0.226147 -0.0159613 -0.11744 -0.152556 -0.448227 0.246409 -0.148147 0.121022)
(-0.182925 0.0211831 0.0895364 -0.514204 -0.0294213 -0.195988 0.0455378 0.0204907 0.244399)
(-0.260001 0.125144 0.0312045 -0.715831 0.141976 -0.0407575 0.378442 -0.0551549 0.0403679)
(-0.160705 0.140203 -0.0529348 -0.44978 0.268069 -0.135554 0.858198 -0.343614 -0.0838816)
(0.0428571 0.0825376 -0.0766032 -0.14017 0.0973256 -0.221622 1.12953 -0.467781 -0.075964)
(0.129507 0.0324704 -0.155018 -0.0428623 -0.208953 -0.248881 1.05202 -0.350519 0.0923215)
(0.0779881 0.134925 -0.204068 -0.217727 -0.376891 -0.161883 0.572769 -0.077996 0.386522)
(-0.036753 0.237574 -0.132037 -0.538824 -0.432659 -0.0597596 -0.165156 -0.0630018 0.538793)
(0.00971393 0.311791 0.0398173 -0.480649 -0.291778 -0.165049 -0.879733 -0.310972 0.333459)
(0.186926 0.322477 0.167523 0.0184198 -0.0794248 -0.249581 -0.929929 -0.385073 -0.0676037)
(0.00185414 0.0784921 0.15592 0.137812 -0.00494694 -0.16665 -0.548298 -0.214672 -0.0926731)
(-0.275216 -0.255775 0.13292 -0.161012 -0.0522605 0.107717 -0.338247 -0.0174792 0.226318)
(-0.290133 -0.406305 0.146727 -0.577196 -0.185057 0.478756 -0.288673 0.0287105 0.408064)
(-0.0780367 -0.261008 0.0564345 -0.560869 -0.207867 0.357653 -0.115509 0.141337 0.231556)
(0.153283 -0.0658598 -0.14674 -0.382483 -0.0649118 -0.213132 0.415032 0.386341 -0.0561198)
(0.214591 0.00931852 -0.206639 -0.567962 0.0419671 -0.555098 0.478591 0.313606 -0.327861)
(0.183152 0.150519 0.00767985 -0.641466 0.259849 -0.301422 -0.128835 -0.220943 -0.453574)
(-0.0310021 0.100518 0.277065 -0.529249 0.297511 0.291452 -1.07187 -0.723987 -0.292314)
(-0.171464 -0.0927731 0.297005 -0.407404 -0.0456205 0.581528 -1.60464 -0.79469 0.0902203)
(0.00795807 -0.206967 0.0500345 -0.348832 -0.328998 0.211183 -1.10078 -0.25883 0.294296)
(0.041666 -0.299953 -0.164477 -0.669738 -0.276601 -0.287311 -0.348044 0.410112 0.204751)
(-0.0440387 -0.135651 -0.0677605 -1.09657 0.11366 -0.359092 -0.292796 0.64625 -0.0708204)
(0.551486 0.150177 0.288239 -0.711747 -0.0120354 -0.529194 -0.881873 -0.186011 -0.555526)
(0.591959 0.119808 0.0758481 -0.121328 -0.0448247 -0.494381 -1.15907 -0.242129 -0.727045)
(0.0127453 0.252007 -0.154129 -0.0193385 0.440518 -0.392532 -0.762845 0.0341001 -0.530519)
(-0.489989 0.226041 -0.152633 -0.617687 0.592513 -0.327601 0.111301 0.116695 -0.177569)
(-0.521732 -0.0593078 -0.0997067 -1.41193 0.198541 -0.555109 0.984555 0.105873 0.152172)
(-0.184116 -0.374776 -0.0798048 -1.80216 -0.355255 -0.76164 1.36965 0.340858 0.480562)
(0.0474095 -0.540818 -0.0872869 -1.29827 -0.615788 -0.501663 1.39317 0.646193 0.516951)
(0.0983913 -0.382529 -0.139511 -0.175209 -0.359905 -0.158319 1.67362 0.641171 0.330459)
(0.0758911 -0.066031 -0.160672 0.659389 0.0333252 -0.181034 1.96498 0.67774 0.13496)
(0.0954313 0.0530681 -0.124061 0.533526 0.153165 -0.383708 1.57421 0.704213 -0.19774)
(0.34324 0.199796 0.0713518 -0.0536696 0.148935 -0.116021 0.533284 0.375752 -0.44792)
(0.221858 0.332761 0.391282 -0.581674 0.23875 0.694754 0.0841136 0.279421 -0.321668)
(-0.248315 0.305873 0.43169 -1.18579 0.285276 1.05497 0.585075 0.358728 -0.0341234)
(-0.271352 0.264117 0.147422 -1.34316 0.266047 0.699045 1.32148 0.253378 0.160454)
(-0.0298883 0.0271624 -0.229076 -0.811733 -0.0445517 0.245917 1.77817 -0.0365527 0.202212)
(0.217439 -0.278522 -0.482556 -0.48377 -0.32392 -0.136622 1.20789 0.0069786 0.100607)
(0.454066 -0.383291 -0.33098 -0.490101 -0.196348 -0.271708 -0.245401 0.343509 -0.212652)
(0.233123 -0.290779 -0.00160876 -0.6507 0.191182 -0.276073 -1.69785 0.546362 -0.444415)
(-0.333712 0.028031 0.209678 -0.791306 0.618698 -0.189868 -2.13546 0.388618 -0.28942)
(-0.463701 0.287159 0.233296 -0.579964 0.595896 0.0286743 -0.895212 -0.019074 -0.159913)
(-0.0998096 0.216779 -0.0249957 -0.228894 0.223636 -0.130215 0.638336 -0.229057 -0.131826)
(0.192311 -0.0415685 -0.197614 -0.0117679 -0.116054 -0.437141 1.1843 -0.239685 -0.0311603)
(0.209999 -0.198766 -0.106581 0.0470457 -0.158611 -0.427567 0.879318 -0.0526089 -0.212277)
(0.0163219 -0.101517 -0.00107257 -0.164371 0.0782363 -0.298351 0.0951947 0.25218 -0.323902)
(-0.113332 0.0640515 0.0186186 -0.462 0.263438 -0.00340331 -0.328516 0.707834 -0.214839)
(0.00515552 0.15937 -0.0945566 -0.771607 0.0907301 0.406505 -0.309451 0.814928 -0.118679)
(0.312611 0.316426 -0.0949811 -0.548176 -0.192829 0.565866 -0.102657 0.355964 -0.0792352)
(0.298029 0.376781 0.128987 -0.317612 -0.185807 0.614015 -0.0467409 -0.188124 0.0255503)
(-0.241851 0.0734856 0.349417 -0.451127 -0.0176025 0.617369 -0.113928 -0.4496 0.36655)
(-0.544141 -0.337228 0.471341 -0.544226 0.125529 0.678465 -0.274406 -0.271598 0.442473)
(-0.238341 -0.462959 0.200478 -0.679553 0.0276242 0.67373 -0.171707 -0.140161 0.120099)
(0.132029 -0.212073 -0.410097 -0.277048 0.0847286 0.17001 0.466268 -0.0837174 -0.190025)
(-0.0312707 0.0493546 -0.617914 -0.25992 0.17682 -0.334907 0.694828 0.0609135 -0.046776)
(-0.179842 0.193588 -0.144729 -0.73893 -0.0911083 -0.233672 0.178282 -0.0179939 0.242549)
(0.188697 0.245748 0.509633 -0.869126 -0.30087 0.0855512 -1.00629 -0.443277 0.266389)
(0.415766 -0.151752 0.674128 -0.479424 -0.341498 0.126041 -2.1577 -0.873882 0.0956158)
(0.231829 -0.457785 0.142619 0.228686 -0.0543837 0.0996865 -2.02652 -0.768475 -0.0490601)
(-0.168129 -0.158049 -0.405659 0.258036 0.2749 0.0123482 -0.813526 0.0100686 0.0405199)
(-0.569722 0.240068 -0.315403 -0.532369 0.325437 -0.131551 -0.0155193 0.567378 0.288056)
(-0.216544 0.316098 0.1116 -1.01791 0.261617 -0.323263 -0.172777 0.326843 0.0730789)
(0.656338 -0.0661894 0.101139 -0.877671 -0.23851 -0.659699 0.825237 0.49384 -0.59417)
(0.743092 0.400836 0.342313 -1.39724 -0.409448 -0.147189 0.129336 0.0386066 -0.395465)
(0.258677 0.509102 0.259063 -1.10667 -0.120672 0.606568 -0.204825 -0.507798 -0.0903284)
(-0.275938 0.160983 -0.0432418 0.19055 0.469401 0.862275 0.589189 -0.539278 -0.0602329)
(-0.643285 -0.13964 -0.374341 1.07697 0.552356 0.172938 1.8576 -0.140419 0.207501)
(-0.486419 -0.256672 -0.230941 0.93252 -0.058814 -0.332274 2.45851 0.277843 0.702554)
(0.086933 -0.236578 0.0850706 0.47971 -0.249383 -0.235538 2.15542 0.381596 0.213327)
(0.41328 -0.108132 0.00876989 0.403092 -0.0589868 0.0431125 1.5638 0.0908858 -0.403542)
(0.10754 -0.0684458 -0.254692 0.73122 0.365966 0.359302 1.40017 0.394782 -0.480516)
(-0.353008 -0.174255 -0.146953 0.554509 0.602285 0.250855 1.1429 0.709015 -0.485793)
(-0.174129 0.00925346 0.442938 0.0322514 0.536694 0.0372065 0.495914 0.152644 -0.501102)
(0.0423353 0.312917 0.671759 -0.256487 0.349581 0.325113 0.304304 -0.435745 -0.454022)
(0.0534519 0.309071 0.169042 -0.298867 0.110078 0.612492 0.9332 -0.494676 -0.333453)
(0.328172 0.0694554 -0.219082 0.610067 -0.248488 0.383378 1.38703 -0.337049 -0.0705894)
(0.200221 -0.230442 -0.277675 1.62894 -0.346088 -0.0438662 1.09334 -0.293994 0.15042)
(-0.161385 -0.223534 -0.287617 0.922424 0.0717837 -0.188069 0.0391932 -0.170043 0.150073)
(-0.0956458 0.0483683 -0.209881 -0.301918 0.287771 0.361876 -1.20223 0.047101 0.0488115)
(-0.00783593 0.176876 -0.061748 -0.965567 0.207113 0.851814 -2.00934 0.0319953 -0.0801281)
(0.0462664 0.0488344 0.194212 -0.807963 0.171581 0.817914 -1.96464 -0.31523 -0.318553)
(0.141532 -0.200476 0.139737 0.231475 0.153395 0.519948 -0.2278 -0.655695 -0.400685)
(0.108167 -0.309578 -0.263792 0.42704 0.137012 0.0650654 1.41386 -0.679483 -0.252269)
(0.0431281 -0.114209 -0.251142 -0.29061 0.0576481 0.133079 1.14589 -0.659351 -0.0312963)
(-0.0369062 0.177859 0.00704128 -0.789347 0.420429 0.208418 0.0830969 -0.333847 -0.385922)
(-0.197576 0.282929 0.122949 -0.874595 0.975996 0.0337018 -0.968309 0.201885 -0.769383)
(-0.317307 0.136253 0.254831 -0.282614 0.715379 0.287821 -1.43794 0.547578 -0.36844)
(-0.0865688 -0.0534812 0.225637 0.0988243 -0.188021 0.524613 -0.788331 -0.00157229 0.20194)
(0.319794 0.14012 0.156692 -0.0458637 -0.70777 0.566736 0.0874868 -0.638853 0.392265)
(0.257428 0.436463 0.196069 -0.679911 -0.650986 0.535038 0.117175 -0.655261 0.409715)
(-0.161339 0.271786 0.213629 -0.985162 -0.469365 0.337128 0.0769984 -0.63316 0.485304)
(-0.441831 -0.23504 0.198778 -0.799527 -0.154684 0.253812 -0.0572449 -0.557471 0.425569)
(-0.119154 -0.436849 -0.164802 -0.595495 -0.0472541 0.0729641 -0.0235952 -0.529555 0.0465019)
(0.202216 -0.16371 -0.613692 -0.176992 0.00674002 -0.306669 0.2384 -0.247226 -0.284886)
(-0.150941 -0.164805 -0.440818 -0.0403022 0.13579 -0.462222 0.0618572 0.0657365 -0.106083)
(-0.200407 -0.271193 0.0606495 0.156058 -0.0748377 -0.0789842 -0.308018 0.0504342 0.1958)
(0.345151 0.00336047 0.277195 0.0679826 -0.548851 0.376997 -0.783031 -0.135377 0.231592)
(0.692822 0.230962 0.32198 -0.320487 -0.655189 -0.0138766 -1.2662 -0.112292 -0.172211)
(0.324154 0.257617 0.212208 0.0871958 -0.0298362 -0.458806 -1.56321 -0.172231 -0.419548)
(-0.481675 0.0338512 -0.13532 0.512806 0.606163 -0.378598 -1.04726 -0.188477 -0.133535)
(-0.807986 -0.259096 -0.387061 0.409239 0.601859 -0.11565 0.0222245 0.196345 0.115122)
(-0.17136 -0.304571 -0.298904 -0.0716147 0.220275 -0.410158 0.950291 0.515259 -0.177728)
(-0.188892 -0.225743 0.419983 -0.988795 0.578203 0.933735 0.89465 -0.744358 -0.405176)
(0.476162 0.212033 0.816421 -1.98653 0.21186 0.838773 -0.0601565 -0.111381 -0.628703)
(0.93334 0.772563 0.454517 -2.23652 -0.202377 0.645725 0.0908369 0.366782 -0.807055)
(0.764777 0.600859 -0.387989 -0.460244 -0.0328932 0.176998 1.18658 0.106421 -0.902834)
(-0.113053 -0.365429 -0.800452 2.28089 0.554947 -0.273364 0.958626 -0.501741 -0.363824)
(-0.549487 -0.817581 -0.32463 2.76613 0.481431 0.153135 -0.0161734 -0.324298 0.186361)
(-0.248496 -0.513241 0.14075 1.29483 0.445915 -0.0408906 -0.934257 0.292016 -0.354522)
(0.269315 -0.00946178 0.210482 -0.505624 0.0355422 -0.587609 -2.02063 0.482011 -0.481331)
(0.164427 0.307835 -0.0517037 -0.536144 -0.0388285 -0.245411 -1.17944 0.279271 -0.252484)
(-0.340771 0.128971 -0.308355 0.020419 0.411041 0.590905 0.0407722 -0.345789 -0.155276)
(-0.162607 0.039507 0.147161 -0.0512806 0.262436 0.669015 -0.240546 -0.422903 -0.0615306)
(0.0182128 0.0896173 0.742237 -0.0218411 -0.0274956 0.105503 -1.08753 0.436287 -0.140645)
(0.26935 -0.0321675 0.44076 0.0419798 0.0228722 0.045219 -1.01861 0.881276 -0.515558)
(0.873752 -0.0116457 -0.257223 -0.209648 -0.236819 0.173002 0.0423748 0.681948 -0.60096)
(0.167746 0.184909 -0.556768 0.0893182 -0.338498 -0.29381 0.475932 0.371922 0.0768264)
(-0.909316 0.085058 -0.235293 0.285881 0.0513465 -0.651168 -0.458324 0.525403 0.734222)
(-0.663985 -0.267468 0.268303 0.115779 0.262539 -0.319302 -1.35858 0.725453 0.429822)
(-0.0750684 -0.313968 0.250904 -0.232162 0.290227 0.429619 -0.966636 0.252291 -0.139482)
(0.378026 -0.00046535 0.0205329 -0.731279 -0.0687829 0.696721 0.0529077 -0.327007 -0.292948)
(0.290003 0.223246 -0.201105 -1.09181 -0.436726 0.180944 1.39568 -0.702539 0.134755)
(-0.376238 0.114734 -0.265572 -0.976246 -0.118362 -0.00966026 2.29986 -0.72383 0.571558)
(-0.509377 0.112155 -0.121388 -0.966629 0.24511 0.555313 1.79278 -0.474306 0.36018)
(-0.142825 0.355008 -0.152463 -0.912557 0.287502 0.753362 0.758389 0.0278639 -0.0601435)
(0.283527 0.10031 0.0551282 -0.182472 -0.043166 0.426105 -0.57266 0.393612 -0.0787039)
(0.418783 -0.587872 0.317817 0.935805 -0.449845 0.268222 -0.826558 0.279864 0.148609)
(0.130743 -0.665075 0.092353 1.3285 -0.419358 -0.183907 -0.197579 0.00781657 0.29781)
(-0.12727 0.038486 -0.0661904 0.242275 -0.279594 -0.417519 -0.456 0.57078 0.47234)
(-0.23703 0.517077 0.00519842 -0.722889 -0.38877 -0.376764 -1.61566 1.13795 0.67353)
(-0.302194 0.372285 0.177974 -0.91264 -0.573018 -0.568831 -2.19351 0.752703 0.794666)
(-0.314398 -0.0891421 0.297108 -0.078936 -0.225375 -0.627032 -1.27347 0.430497 0.444364)
(0.124672 -0.369266 -0.149817 0.507023 0.239009 -0.651227 0.0359692 0.33 -0.347269)
(0.452489 -0.104124 -0.731375 -0.437535 0.174545 -0.551942 0.265132 0.158285 -0.481461)
(0.146252 -0.0162754 -0.473002 -0.431858 -0.222553 -0.102701 -0.29666 0.143879 0.0154574)
(-0.120456 -0.235997 0.348704 1.22876 0.0183513 0.260842 -0.925674 0.152753 0.0133997)
(-0.0666563 -0.104609 0.525321 1.66547 0.348272 0.178367 -0.864155 -0.157508 -0.140115)
(0.451837 0.176671 0.169276 0.0485395 0.128016 -0.327364 -0.432587 -0.245163 -0.556326)
(0.711626 0.320845 -0.0573759 -1.14007 0.0504877 -0.936388 -0.825822 0.0563018 -0.66865)
(-0.0144687 0.216761 -0.186943 -0.642555 0.171702 -0.917542 -0.970662 0.0262921 -0.121192)
(-0.922005 -0.0236368 -0.339775 0.398816 0.537933 -0.0202057 -0.0886022 -0.222682 0.294401)
(-0.940446 -0.215763 -0.233513 0.286134 0.824327 0.661475 1.15485 -0.650163 0.106867)
(-0.589257 -0.395662 0.221317 0.0450169 0.189144 0.753138 -0.893802 -0.393959 0.0500243)
(0.0771694 -0.0177491 0.237332 -0.350876 0.0446584 0.53174 0.137369 -0.212793 -0.399268)
(1.10493 0.407204 -0.0634729 -0.579682 -0.496918 0.333383 0.927977 -0.055182 -0.900674)
(2.1418 0.590447 -0.54724 -0.636578 -1.21842 0.401391 0.899092 0.37003 -1.15265)
(1.0641 0.104311 -0.425373 -0.355185 -0.963107 0.438866 -1.00637 -0.0635204 -0.227685)
(-0.999234 -0.363764 -0.119915 -0.47685 0.253679 0.471972 -2.00226 -0.557922 0.635688)
(-1.62607 -0.491041 -0.29079 -0.381534 0.832417 -0.100383 -2.40579 -0.157532 0.504699)
(-0.541389 -0.348434 -0.0780554 -1.24657 0.23276 -0.756044 -3.01908 -0.173375 0.420335)
(0.38323 0.158881 0.36982 -2.16021 -0.0373364 -0.232107 -2.39733 -0.378007 0.0272556)
(-0.102555 0.00825264 0.308606 -1.66615 -0.146758 1.09996 -1.83705 -0.325757 0.165743)
(-0.194814 -0.213511 0.166417 -0.177852 -0.576742 1.63629 -1.84404 -0.594632 0.673568)
(0.0880998 0.169409 0.357385 -0.366975 -0.779264 0.720693 -0.964347 -0.514557 0.565165)
(-0.023488 0.170386 0.22847 -1.53668 -0.12897 -0.113913 0.737214 -0.0258259 0.214888)
(0.402144 -0.123755 -0.396896 -2.15616 -0.186434 -0.308306 1.79596 0.0478712 0.051126)
(0.452091 -0.0444713 -0.726889 -2.61745 -0.00250313 -0.672454 1.25673 0.150443 -0.302559)
(-0.215813 0.113618 -0.295967 -2.15798 0.0913758 -0.823239 -0.216179 0.517862 0.317827)
(-0.413746 0.142482 0.389408 -1.19502 0.203789 -0.392534 -1.4669 0.736093 0.422107)
(-0.449549 -0.038155 0.489179 -0.836302 0.334491 0.199376 -1.61499 0.507568 -0.00808711)
(-0.365627 -0.329483 0.0505332 -1.6213 -0.0311269 0.0714568 -0.39115 -0.0964142 0.453703)
(0.029064 -0.187428 -0.254522 -2.88134 -0.420794 0.0418492 0.816513 -0.607962 0.727225)
(0.128479 0.0796516 -0.0714356 -2.18794 -0.286637 0.492251 0.847281 -0.56023 0.364189)
(0.0256213 0.115096 0.153043 -0.898507 0.16337 0.671659 0.4314 -0.0118939 -0.214437)
(0.356709 0.0457279 -0.0739128 0.0403478 -0.194893 0.722941 0.358647 0.379631 -0.24828)
(0.796701 -0.112861 -0.132702 0.265043 -0.658033 0.694773 0.399474 0.478103 -0.155304)
(0.526662 -0.123072 -0.0531362 -0.915425 -0.727148 0.203052 0.692323 0.414751 0.165313)
(-0.423447 -0.0215636 -0.139128 -0.924423 -0.135024 -0.214551 0.0677137 0.23302 0.599089)
(-0.775791 0.146605 0.037241 -0.137482 0.283714 0.264655 0.0154751 0.502788 0.522943)
(-0.381461 0.292903 0.100895 0.615894 0.0706337 0.43798 0.150865 0.623872 0.214486)
(0.156998 0.364952 0.0816866 0.40835 -0.140755 0.00296746 -0.749137 0.113433 -0.153705)
(0.299817 0.195814 0.165351 0.902322 -0.449878 -0.368883 -0.558655 -0.329848 0.108872)
(-0.281382 -0.225044 -0.124824 1.35494 -0.401596 -0.753903 0.67734 -0.194667 0.738601)
(-0.257834 -0.395646 -0.342319 -0.352198 0.211139 -0.290135 0.342044 0.0324288 0.104045)
(0.732978 -0.231616 -0.0257742 -1.66146 0.013323 1.13521 -0.767723 -0.496606 -0.77663)
(0.885411 0.0255534 0.23139 -1.16013 -0.245099 1.86624 -0.882235 -1.02493 -0.53493)
(-0.299232 0.0499336 -0.00271727 0.716748 0.2348 0.717754 -0.116748 -0.722453 0.13563)
(-0.771841 0.0728892 -0.26517 1.56466 0.569444 -0.477058 0.039207 0.0981341 0.144013)
(0.00400761 0.285834 -0.115811 0.186091 0.394205 -0.496812 -1.19955 0.558809 -0.268588)
(0.352194 0.301157 0.331128 -1.07039 0.360422 0.147378 -2.14384 0.0163053 -0.438269)
(-0.340783 0.0979324 0.429244 -1.47166 0.41207 0.348211 -2.03496 -0.375208 -0.0621145)
(-0.954894 -0.275784 0.197605 -0.541973 0.449687 0.423888 -1.56551 -0.467879 0.20955)
(-0.135979 -0.430537 0.452329 2.97191 0.65949 -0.472275 -1.43422 -0.545941 -0.434447)
(0.147841 -0.129581 0.567523 1.77969 1.28154 -0.16766 -1.69662 0.0968568 -1.43719)
(0.815392 0.14888 0.346464 0.884942 0.771648 -0.345486 0.0732305 0.857121 -1.63881)
(0.994982 0.381983 -0.353166 -1.27145 0.207133 0.0221592 1.88221 0.77274 -0.631875)
(0.0686943 0.365459 -0.733339 -3.842 0.126885 0.0537955 3.22061 -0.0709932 0.20427)
(-0.602715 0.063051 -0.55809 -4.343 -0.000793261 -0.273516 1.97029 -0.241788 0.723427)
(-0.733626 -0.521 -0.472563 -2.30526 0.19406 -0.379297 -0.0353244 -0.257448 0.381198)
(-0.635906 -0.446879 0.122659 -0.426434 0.142341 0.146712 -0.595906 -0.298025 0.430309)
(-0.0118113 0.116873 0.854265 -1.8587 -0.0581243 1.73415 -1.11371 -0.712785 0.436057)
(0.607588 -0.134165 0.621183 -2.11056 -0.710654 1.7168 -0.784879 -0.646142 0.15817)