/*--------------------------------*- C++ -*----------------------------------*\
  =========                 |
  \\      /  F ield         | OpenFOAM: The Open Source CFD Toolbox
   \\    /   O peration     | Website:  https://openfoam.org
    \\  /    A nd           | Version:  10
     \\/     M anipulation  |
\*---------------------------------------------------------------------------*/
FoamFile
{
    format      ascii;
    class       surfaceScalarField;
    location    "19";
    object      phi_0;
}
// * * * * * * * * * * * * * * * * * * * * * * * * * * * * * * * * * * * * * //

dimensions      [0 3 -1 0 0 0 0];

internalField   nonuniform List<scalar> 
74080
(
0.00553178
-0.000167067
6.16056e-05
0.00552569
-0.000121863
0.000229907
0.00549237
-3.05141e-05
0.000365621
0.00546707
8.7152e-05
0.000395356
0.00547513
0.000163756
0.000370796
0.00548864
0.000107427
0.00034253
0.00546034
-5.91098e-05
0.000314365
0.00538313
-0.000201278
0.000279486
0.00527588
-0.000219335
0.000191162
0.00519507
-0.000107508
4.30893e-05
0.0051812
6.53028e-05
-7.93899e-05
0.00525225
0.000210196
-0.000189188
0.00534792
0.000267506
-0.000231606
0.00537701
0.000194521
-0.000161645
0.00530494
4.7143e-05
-4.30285e-05
0.0051836
-0.000109733
8.42723e-05
0.00509745
-0.00025565
0.000163322
0.00505832
-0.000281757
0.000185341
0.00507011
-0.000230318
0.000182664
0.00509567
-0.000172807
0.000154003
0.00513314
-0.000103531
0.000106556
0.00526135
-9.67521e-05
1.23592e-05
0.00541503
-7.98279e-05
-8.93327e-05
0.00555612
6.14357e-05
-0.000167267
0.00564898
0.000177334
-0.000211748
0.00562345
0.000214332
-0.000195155
0.00555628
0.000133009
-0.000178644
0.00547259
-1.65823e-05
-0.000160422
0.00538301
-4.44571e-05
-0.000130429
0.00535759
2.5116e-06
-9.38828e-05
0.00535616
5.47411e-05
-2.87883e-05
0.00538322
0.000106732
-2.13318e-05
0.00542371
8.51635e-05
-3.88441e-05
0.00542799
3.998e-05
-0.000100678
0.00543627
-5.23606e-06
-0.000177368
0.0054091
-3.95195e-05
-0.000194311
0.00537536
-4.11926e-05
-0.000200536
0.00537257
-6.9367e-05
-0.000170406
0.00539365
-9.78778e-05
-0.000130746
-0.000141501
-6.98674e-05
0.00492221
-0.000269171
0.000253934
0.00503084
-0.000284451
0.000468603
0.0051908
-0.000213173
0.00055056
0.00531144
-5.05652e-06
0.000500134
0.00530679
0.000193105
0.000455127
0.00516451
0.000183714
0.000403353
0.00494535
-2.20318e-05
0.000373256
0.00477579
-0.000282536
0.000291388
0.00471044
-0.000420279
0.000154737
0.00473936
-0.000358641
8.60575e-05
0.00485761
-0.000185311
7.09915e-05
0.0049875
2.14083e-05
9.79077e-05
0.00502015
0.000180163
0.000106651
0.00490593
0.00018387
2.33667e-05
0.00469839
0.000100093
-6.54099e-05
0.00453097
-4.17447e-05
-6.8592e-05
0.00444689
-0.000204647
4.44301e-05
0.00444631
-0.000274988
0.000221147
0.00451219
-0.000295578
0.000333733
0.00456293
-0.000237664
0.00034399
0.00462042
-0.000165551
0.000231274
0.00469707
-0.000179835
6.79331e-05
0.00476489
-0.000151219
-7.17092e-05
0.00485209
-2.53792e-05
-0.000168928
0.00493368
9.41237e-05
-0.000187462
0.00500323
0.000169346
-0.000214217
0.00508497
0.000117391
-0.000308919
0.0051025
7.23309e-05
-0.000404706
0.00504994
0.000136786
-0.000420712
0.00498517
0.000156816
-0.000327068
0.00491331
0.000120936
-0.000196072
0.00486648
4.25018e-05
-0.000129813
0.00483096
-3.57166e-05
-0.000132438
0.00485484
-9.61298e-05
-0.000209623
0.00495338
-0.000149417
-0.000275515
0.0050061
-0.000132403
-0.00025547
0.0050185
-0.000136401
-0.00019078
0.00496629
-0.000137893
-0.000109025
0.00489459
-0.000129023
-3.08304e-05
-0.000201624
8.62453e-05
0.00443241
-0.000357647
0.00039014
0.00445452
-0.000309489
0.000457651
0.00463327
-0.000252742
0.000368382
0.00490034
-9.87052e-05
0.000304585
0.0050206
0.000143553
0.000348505
0.00481701
0.000243676
0.000394552
0.00438372
0.000142719
0.000405383
0.00405162
-0.000161627
0.000292199
0.00394984
-0.000386509
0.000156508
0.00404663
-0.000430259
9.29203e-05
0.00425828
-0.000398357
-2.20656e-05
0.00441642
-0.00023299
-0.000120859
0.00448944
-3.86254e-05
-0.000166081
0.00448718
3.45011e-05
-0.000148808
0.00444066
7.73025e-05
-1.06536e-05
0.0044403
1.4767e-05
0.000104339
0.00444452
-0.000121432
0.000135462
0.00444789
-0.000218659
0.000154485
0.00444133
-0.000327275
0.000191931
0.00439882
-0.00033091
0.000251642
0.00435926
-0.000285008
0.00024197
0.00428807
-0.000267563
0.00016379
0.00423246
-0.000214592
4.89508e-05
0.00427683
-0.000156763
-6.65866e-05
0.00437103
-8.44663e-05
-0.00019871
0.00443802
1.85155e-05
-0.000317074
0.00442643
8.49331e-05
-0.000343244
0.00435439
0.000201906
-0.000286059
0.00430042
0.000316702
-0.000211109
0.004293
0.000259753
-0.000176658
0.00431229
8.7871e-05
-0.000159878
0.00433285
-0.000110725
-9.48007e-05
0.00429751
-0.000184505
-4.22504e-05
0.00429202
-0.00021119
-6.60483e-05
0.00436757
-0.000205209
-0.000140209
0.00445588
-0.00010664
-0.000156248
0.00452865
-0.000123575
-5.63104e-05
0.00452671
-0.000158588
0.000101098
0.00449902
-0.000220806
0.000240236
-0.000340798
0.000320438
0.00390178
-0.000217511
7.43396e-05
0.00401485
-0.000166455
0.000221827
0.00424142
-0.000104185
0.000277316
0.00447348
1.48752e-05
0.000285489
0.00454454
0.000154772
0.000317762
0.00433183
0.00022394
0.00036331
0.00395745
0.000130585
0.000339795
0.00365198
-0.000129798
0.000177766
0.00349864
-0.000299192
2.78217e-05
0.00353417
-0.000377145
-9.87147e-05
0.00374257
-0.000423865
-0.000325611
0.00400623
-0.000305023
-0.000498821
0.00424033
-0.000143461
-0.000472154
0.0042845
-1.19317e-05
-0.000296553
0.00414267
0.000129589
-6.88512e-05
0.00401
7.28483e-05
6.9496e-05
0.00398448
-8.28754e-05
7.23782e-05
0.00405382
-0.000260842
9.27557e-05
0.00406276
-0.000401508
0.000130141
0.00398817
-0.000354694
0.000165066
0.00391441
-0.00023075
0.000162474
0.0038455
-0.000171523
9.1916e-05
0.00385476
-0.0001958
2.18062e-05
0.00391743
-0.000254289
-6.05999e-05
0.00393249
-0.00023427
-0.000206459
0.00391993
-0.000144066
-0.000322461
0.00393274
-2.81659e-05
-0.00037527
0.0039891
0.000177199
-0.000354127
0.00399469
0.000332852
-0.000240419
0.00389438
0.00025548
-0.000105112
0.00379339
2.47938e-05
2.52861e-05
0.00377196
-0.000184992
0.000111999
0.00380704
-0.000208226
6.63654e-05
0.0039037
-0.000191513
-7.39102e-05
0.00396342
-0.000100285
-0.000128083
0.00394146
1.01821e-05
6.9036e-06
0.00389402
-0.000132275
0.000265267
0.003888
-0.000275469
0.000386654
0.00391074
-0.00031527
0.00025538
-0.000287718
7.14038e-05
0.00341002
-0.000226455
-1.51832e-06
0.00362067
-0.000165816
8.64593e-07
0.00361536
5.52257e-05
-9.89044e-05
0.00345123
0.0002316
-9.33653e-05
0.00329408
0.000253035
9.46485e-05
0.00322169
0.000127096
0.000284369
0.00323846
-7.01907e-05
0.000280422
0.00328535
-0.000284169
0.00010835
0.00328282
-0.000336223
-7.94208e-05
0.00333426
-0.00035327
-0.000329288
0.00345121
-0.000389686
-0.000555355
0.00350264
-0.000243074
-0.000492914
0.00343998
-5.84461e-05
-0.000172043
0.00333995
6.17741e-05
4.62457e-05
0.00332921
9.94919e-05
0.000102924
0.00341484
-2.914e-05
-2.25443e-05
0.00355328
-0.00013423
-0.000193541
0.00362942
-0.000181805
-0.000234116
0.00351614
-0.000190861
-0.00023107
0.00337027
-0.000160639
-0.000119127
0.0033451
-0.000165801
-6.40337e-06
0.00338778
-0.000218731
-7.243e-05
0.00346992
-0.000235031
-0.000193869
0.00348317
-0.000204453
-0.000271923
0.00342878
-0.000139968
-0.000287329
0.00343791
-0.000116041
-0.000265099
0.0035457
-9.23127e-05
-0.000354004
0.00363329
0.000112631
-0.00040007
0.00355689
0.000309493
-0.000217545
0.00337667
0.000281086
8.80634e-05
0.00331168
3.07666e-05
0.000380834
0.00334797
-0.000169047
0.000342244
0.00332378
-0.000162841
-2.76677e-05
0.00329457
-0.000227873
-0.000342141
0.00333332
-0.000211228
-0.000293158
0.00346588
-0.000117762
5.6019e-05
0.00355681
-0.000166938
0.000358765
0.00349031
-0.000192322
0.000284359
0.00331795
-0.000221556
4.53807e-05
-0.000222546
-3.57705e-05
0.00306273
-0.000274281
-0.000229753
0.00328786
-0.00028236
-0.000217433
0.00336133
1.44976e-05
-0.000117408
0.00328196
0.000341819
2.62606e-05
0.00309742
0.000393869
0.000133759
0.00293415
9.41041e-05
0.000172871
0.00297357
-0.000166428
8.13381e-05
0.00310282
-0.00030046
-3.47099e-05
0.00311312
-0.000220957
-0.000142107
0.00303221
-0.000151437
-0.000315933
0.00297324
-0.000212176
-0.00038708
0.00297473
-0.000129751
-0.000118592
0.0030059
-2.56279e-05
0.000167574
0.00309118
-1.41772e-06
0.00013251
0.00314999
7.58409e-07
4.68395e-05
0.00311815
-2.18316e-05
-9.2009e-05
0.00308018
-7.26053e-05
-0.00016619
0.00306864
-0.000134513
-0.000160024
0.00308834
-0.000134578
-0.000149699
0.00313795
-0.000103606
-2.73372e-05
0.00316472
-0.000111554
-7.18897e-05
0.00317009
-0.00018674
-0.00025887
0.00317214
-0.000109647
-0.000286648
0.00311008
7.95439e-05
-0.000272714
0.00300649
7.63854e-05
-0.000138583
0.0029947
-0.000161254
9.8485e-05
0.00308414
-0.000300941
0.000141717
0.00315141
-8.1466e-05
0.000195728
0.00311096
0.000175173
0.000362037
0.0029793
0.000241886
0.000508451
0.0029524
1.99586e-05
0.000494094
0.00300053
-0.000147556
0.000185223
0.00295702
-0.000110541
-0.000154618
0.0029148
-0.000247333
-0.000236853
0.00299262
-0.000358565
-9.22375e-05
0.00320766
-0.000283611
1.03518e-05
0.00330832
-0.000154485
0.000142971
0.00315735
-7.72384e-06
0.00021148
0.00293136
-3.15794e-05
0.000142737
-0.00012732
-3.08345e-05
0.00247659
-0.000157825
-0.000233836
0.00260157
-0.000249226
-9.72999e-05
0.00285345
-4.84174e-05
6.2251e-05
0.00306558
0.000339088
0.000114137
0.00302697
0.000542964
-1.28447e-05
0.00287439
0.000224593
-0.000144279
0.0028222
-3.66617e-05
-0.000215024
0.00289427
-0.000261079
-0.000139247
0.00292054
-0.000193969
-3.85583e-05
0.00284902
-4.09887e-05
-0.000142466
0.00279864
-0.000156731
-0.000216358
0.00279426
-0.000133877
8.23205e-05
0.00287832
-1.68326e-05
0.000329776
0.00310205
-5.64189e-05
0.000230168
0.00315514
-7.40702e-05
0.00015225
0.00292379
5.66029e-06
2.70044e-05
0.00272567
1.49452e-05
-1.72657e-05
0.00270181
-5.71406e-05
1.60557e-05
0.00281735
-0.000157982
3.14092e-05
0.00289336
-0.000208099
9.75467e-05
0.00278177
-0.000136571
-1.60108e-06
0.00265086
-0.000131855
-9.46054e-05
0.00262102
-3.89807e-05
-0.000114926
0.00268994
5.87684e-05
-0.000167005
0.00279336
-5.80825e-05
3.11858e-06
0.00284777
-0.000277147
0.000142502
0.00280461
-0.000379697
0.000116474
0.0027306
-0.00019134
0.000158906
0.00265546
2.06656e-05
0.000168456
0.00257694
0.000191958
0.000186147
0.00261621
8.79371e-05
0.000147006
0.00271732
-0.00010826
-0.000122192
0.00277147
-0.000165573
-0.0004004
0.0027483
-0.000228891
-0.000364173
0.00270507
-0.000279393
-9.90441e-05
0.00284215
-0.000274371
-7.30897e-05
0.00303264
-0.000149752
-5.04344e-05
0.00302568
5.20281e-05
3.71017e-05
0.0027869
0.000122727
8.80458e-05
7.36453e-05
-7.81462e-05
0.00212926
-6.99474e-05
0.00020094
0.00214677
-0.000219999
0.000200432
0.00242902
-0.000165757
0.000144515
0.0029462
6.71813e-05
0.000131856
0.00320382
0.000346512
7.89708e-05
0.00295474
0.000301964
9.40456e-05
0.00257893
0.000177556
-5.12402e-05
0.00244131
-0.000218454
-0.000243019
0.00250454
-0.000217795
-0.000242943
0.00251412
-7.37919e-05
-5.20117e-05
0.00245221
-0.000282649
0.000166236
0.00247123
-0.000334604
0.000353989
0.00247369
-5.32676e-05
0.000387097
0.0025598
-0.000104944
0.000273588
0.00267908
-9.44789e-05
1.40864e-05
0.00263687
1.578e-05
-0.000167346
0.00251079
5.17813e-05
-0.000119185
0.00241883
3.07469e-05
3.0422e-05
0.00233175
-0.000172776
0.000185212
0.0023222
-0.000356713
0.000133363
0.00235806
-0.000245474
-4.37832e-05
0.00237337
-9.81511e-05
-3.42382e-05
0.00246325
-7.86704e-05
5.11859e-05
0.00265071
-9.10007e-05
-4.31936e-05
0.00277693
-0.000216665
1.33312e-05
0.0026796
-0.000314578
1.67251e-05
0.00248637
-0.000304013
-1.83893e-05
0.00239137
-0.000163174
8.12159e-05
0.00242866
-8.67641e-06
-5.622e-05
0.00250894
7.33415e-05
-4.54065e-05
0.00244413
-1.9323e-05
0.000127916
0.00236157
-6.6066e-05
-7.68314e-05
0.00255867
-0.000182425
-0.000316424
0.00277696
-0.000308532
-0.000191208
0.0026834
-0.000211755
-1.28879e-05
0.00251205
-0.000118063
-9.81578e-05
0.00251502
-5.46879e-05
-0.000246165
0.00258826
0.000110152
-0.000219802
0.00250725
0.000203892
6.61476e-05
0.0002016
0.000164969
0.00199321
4.74565e-05
-5.12642e-05
0.00203183
5.85264e-05
-1.45107e-05
0.0022363
5.38733e-06
0.000144447
0.00242676
7.3256e-05
0.00033216
0.00245323
0.000315577
0.00019397
0.00231646
0.000285203
0.000136176
0.00216913
0.000229866
-9.06649e-05
0.00203116
-0.000200081
-0.000284489
0.00198695
-0.000262584
-2.97746e-06
0.00215783
-0.000269675
0.00028511
0.00224432
-0.000415894
0.000270378
0.00211084
-0.000374829
0.000286786
0.00198746
-0.000230046
0.000378855
0.00203976
-0.000387049
0.000290321
0.00209704
-0.000102696
-0.00010213
0.00206213
0.000102711
-0.000332676
0.00203633
0.000121716
-0.000157032
0.00199066
3.89225e-05
0.00017942
0.00183578
-0.000212336
0.000263118
0.00182636
-0.000381696
0.00015141
0.00197058
-0.000283433
9.52572e-05
0.00210371
-9.94114e-05
0.000149738
0.00220131
-8.45178e-05
0.000131643
0.0021701
-5.39259e-05
6.36421e-05
0.00214144
-0.000212605
8.51117e-05
0.00224572
-0.000292604
-3.3716e-05
0.00236191
-0.000281841
4.07786e-05
0.00236413
-0.000224337
0.000211294
0.00232722
-3.37812e-05
0.000106264
0.00237665
-2.18597e-05
8.03912e-05
0.00226918
-6.81396e-05
0.000122453
0.00202734
-3.84432e-05
0.000102301
0.00200513
-0.000226374
0.000126871
0.00224431
-0.000333767
0.000151662
0.00248632
-0.000202864
6.55849e-06
0.0025314
-2.96892e-05
-0.000153756
0.00239885
6.2697e-05
-4.62488e-05
0.00221553
8.34472e-05
0.000185696
0.0020932
3.82312e-06
0.000273286
0.000135072
1.3816e-05
0.00216985
3.33296e-05
0.00018189
0.00200769
0.000189123
0.000273883
0.00197984
8.57121e-05
0.000323116
0.00197146
-7.2597e-05
0.000423771
0.00190982
0.000132306
0.000165027
0.00183849
0.000196286
-2.00631e-05
0.00187971
0.000255893
-0.000259302
0.00180266
-7.64126e-05
-0.000281882
0.00170606
-0.000238516
0.000325907
0.00189018
-0.000432466
0.000514889
0.00211385
-0.000535841
0.000163555
0.00215549
-0.000370091
6.80146e-05
0.00205511
-0.000232626
0.000147938
0.00196744
-0.000380359
0.000135919
0.00192839
-2.93806e-05
4.37744e-05
0.00189652
0.000110463
4.58231e-05
0.00190181
9.00315e-05
6.20817e-05
0.0019077
1.55121e-05
-1.65509e-05
0.00174927
-0.000223151
-3.84171e-05
0.00174717
-0.000450843
5.98166e-07
0.00184246
-0.000322224
0.000130625
0.00179678
-5.16537e-05
0.000197557
0.00183078
-0.000110409
0.000105103
0.00192116
-0.000108754
-2.05403e-05
0.0019789
-0.00026514
8.86575e-05
0.00203437
-0.00029532
8.47483e-05
0.00204697
-0.000244125
0.000144588
0.00206213
-0.000250624
0.000200521
0.00209524
-0.00010772
0.000184562
0.00219321
-7.92462e-05
0.000166752
0.00220457
5.58925e-06
4.35855e-05
0.00204813
-2.32462e-06
4.62594e-06
0.00189806
-0.000101189
-3.38949e-05
0.00185741
-0.000128678
-8.83439e-05
0.00196606
-0.000193116
-0.00011342
0.00213516
-0.00022887
-2.8466e-06
0.00214832
-8.77889e-06
0.00011697
0.00218011
0.000127281
-2.45383e-05
0.00233157
-6.22646e-05
5.97047e-06
6.23515e-05
0.000115509
0.00192438
-8.9715e-05
2.26341e-05
0.00180437
0.000396694
-4.20885e-05
0.00167703
0.000253239
0.000138506
0.00180119
-0.000309737
0.000317547
0.0018907
-0.000233367
0.000306716
0.00177829
1.97041e-05
0.000171429
0.00172137
0.00012352
-8.03139e-05
0.00164024
-0.000158782
-0.000120559
0.0017229
-0.000428393
0.000340218
0.00183313
-0.000544802
0.000315945
0.00185848
-0.000495003
-9.07507e-06
0.00190822
-0.000401786
0.00018867
0.00175237
-7.84102e-05
0.00011009
0.00172721
-0.000332522
-9.54928e-05
0.00185464
-0.000134044
6.63842e-05
0.00181344
0.000138478
0.000195958
0.00174855
9.99287e-05
1.73095e-05
0.0017827
-5.7579e-05
-0.000216269
0.00165584
-0.000281607
-3.19673e-05
0.00150892
-0.000512968
0.000274653
0.00156987
-0.000383176
0.000307171
0.00159643
-4.24427e-05
0.000166586
0.00158909
-9.30606e-05
0.000181731
0.00170342
-0.000228289
0.000174808
0.00181298
-0.000431618
0.000149573
0.0017552
-0.000319136
8.07646e-05
0.00171434
-0.000268966
7.57392e-05
0.00182327
-0.000440274
0.000107751
0.00196333
-0.000315313
0.000220802
0.00197134
-0.000140203
0.000293651
0.00187984
0.00013135
0.000189335
0.00187168
-5.0594e-05
1.89656e-05
0.00188871
-5.92783e-05
-0.000117538
0.0018429
2.28848e-05
8.51592e-05
0.00181531
-0.000172409
0.00019963
0.00204372
-0.000524454
9.86693e-05
0.00222073
-0.000194433
3.15813e-05
0.00203803
0.00033064
-5.41516e-05
0.00187278
0.000126474
0.000146164
-8.55069e-05
0.000163754
0.00169043
1.63806e-07
0.000209919
0.00165984
0.000568424
0.000121704
0.00162074
0.000376351
0.000342796
0.00166841
-0.000229123
0.000335499
0.00156753
-0.000107387
0.000159266
0.00141962
-6.97086e-05
0.000149077
0.0013964
-0.000120264
8.60012e-05
0.00139234
-0.000328995
7.15553e-05
0.00145208
-0.00049262
0.000201849
0.00139249
-0.000360829
8.02842e-05
0.00146326
-0.000346187
-0.000353354
0.00161114
-0.000315613
-0.000189865
0.00150967
2.10713e-05
-0.000140103
0.00155735
-0.000358185
-0.000195275
0.00184625
-0.000295287
-7.78741e-05
0.00177101
0.00014476
-6.83159e-05
0.0015512
4.24661e-05
-0.000139131
0.00145844
-4.93771e-05
-0.000182347
0.00142601
-0.000214228
2.4041e-05
0.00128461
-0.000444774
0.000300557
0.00139883
-0.000480766
0.000441273
0.00160729
-0.000132445
0.000374296
0.00160235
9.46213e-06
0.000255906
0.00170809
-0.000263225
0.00022312
0.00177989
-0.000428743
0.000153645
0.00171972
-0.000127604
0.000104535
0.00171203
-0.000215512
0.000156763
0.00167761
-0.00047545
0.000242242
0.00162637
-0.000338727
0.000238105
0.00157778
-6.66321e-05
5.72025e-05
0.0015973
0.000251828
-0.000101961
0.00168886
-0.000172376
0.000121398
0.00178797
-0.000144712
0.000192591
0.00177007
0.000175329
0.00010596
0.00165864
-5.84418e-05
2.76973e-05
0.00173353
-0.00061348
-0.000194513
0.00184202
-0.000261313
-0.000328212
0.00181603
0.000364828
-0.000198148
0.00180954
0.000113593
4.47197e-05
-0.000201169
0.000194465
0.00140221
0.00016124
0.000227219
0.0015762
0.000433172
0.000197085
0.0016574
0.000238339
0.000212168
0.00160482
-0.00012979
0.000134432
0.00148908
-1.58591e-05
7.23106e-05
0.00140285
-0.000185243
0.000269449
0.00138147
-0.000223527
-1.41152e-05
0.00133953
-0.000281912
8.15536e-05
0.00130673
-0.000376532
0.000201939
0.00126642
-0.000246423
3.02546e-05
0.00122287
-0.000193218
-0.000123234
0.00117734
-0.000163788
-1.08401e-05
0.00118373
-0.000127303
-6.30363e-05
0.0012641
-0.000466493
8.35635e-06
0.00148945
-0.000445722
1.07579e-06
0.00158979
-1.1678e-05
-3.75092e-05
0.0014427
-1.58722e-06
-5.70286e-05
0.00118387
7.50409e-05
-4.33528e-05
0.00118572
-0.000217275
2.23701e-05
0.00126635
-0.000579899
0.00016309
0.00133222
-0.000398051
0.00013342
0.0014014
-4.38231e-06
0.000197864
0.0014318
2.52462e-05
0.000217289
0.0014792
-0.000182011
-4.00174e-05
0.00140509
-0.000216348
-8.81638e-05
0.00144564
-6.384e-05
0.000134322
0.00147845
-0.000259475
0.000198294
0.00142983
-0.000452408
0.000181947
0.00137398
-0.000277364
0.000172136
0.00135049
1.76096e-05
-4.71377e-05
0.00147293
0.000113377
-0.000106201
0.0015396
-0.000351198
2.54466e-05
0.00159012
1.24439e-05
3.78855e-05
0.00160685
0.000436297
-0.000111138
0.00142241
5.0973e-05
-8.76968e-05
0.00135211
-0.000574351
-0.000109603
0.00153541
-0.000291528
-0.000341384
0.00173286
0.000337726
-0.000344826
0.00174818
0.000209279
-0.000133222
2.97444e-05
8.21511e-05
0.00141077
0.000145967
-3.45939e-07
0.00163171
0.000335764
-5.18954e-05
0.001746
6.93134e-05
0.000116452
0.00166095
-0.000261748
-7.77159e-05
0.00137806
5.98275e-05
2.44522e-05
0.00109561
-7.72592e-05
0.000399469
0.00104489
-0.000158879
-1.90395e-05
0.00103436
-0.000245165
3.1445e-06
0.00104849
-0.00032195
0.000200625
0.00108181
-0.000244943
0.000177286
0.000989022
-0.000176584
0.000211171
0.000972403
-0.000204507
0.000193932
0.00108643
-0.000289835
0.000139569
0.00111192
-0.000390991
0.000131743
0.00113811
-0.00045864
0.000312368
0.00127478
-0.000157757
0.000181554
0.00132715
-0.000107714
-0.000150202
0.00128677
2.84911e-05
-9.03042e-06
0.00127872
-0.000222717
0.00014067
0.00130088
-0.000553256
0.000166562
0.00128848
-0.000321618
9.23587e-05
0.00135088
1.90872e-05
0.00014333
0.00141719
-9.77472e-05
0.000241481
0.0012798
-1.42267e-05
3.75732e-05
0.00119131
-3.37129e-05
9.55271e-05
0.001187
-4.26e-05
0.000211608
0.00110326
-0.000346501
0.000235528
0.00113529
-0.000572847
0.000152791
0.00120325
-0.000274692
0.000178722
0.0012666
-8.41963e-05
0.000124242
0.00131655
3.39265e-05
-8.52082e-05
0.00128857
-0.000241563
3.42266e-05
0.00131555
0.000122793
-3.07098e-05
0.00127976
0.000443951
-4.02671e-05
0.00110254
0.000155156
-5.80027e-05
0.00120326
-0.000389905
-0.000273446
0.00145229
-0.000322239
-0.000329393
0.00142146
0.000245533
-0.000212053
0.0013936
0.000138102
7.6153e-05
1.66012e-06
0.000165273
0.00126279
0.000353236
3.14973e-05
0.00147347
0.000224387
8.60985e-05
0.00164715
-0.000161559
0.000263326
0.00159927
-0.00027207
-1.08009e-05
0.00135032
0.000119313
5.26228e-05
0.00107729
-4.2937e-05
0.00034525
0.000988733
-0.000221271
0.000168165
0.00100695
-0.000346229
1.77327e-05
0.00104131
-0.000234594
0.000202245
0.00117105
-0.000307751
0.000221078
0.00122079
-0.00036753
0.000200874
0.00111021
-0.000171148
9.66518e-06
0.00121806
-0.000268261
-4.71001e-05
0.00125305
-0.000364593
0.000155498
0.00101442
-0.000264362
0.000314624
0.00100476
-0.000119035
-2.70017e-06
0.0011901
-0.00029731
-5.33685e-05
0.00128882
-6.00677e-05
3.14225e-05
0.00108211
-0.000107867
0.000152646
0.000963272
-0.000517203
2.93746e-05
0.00110641
-0.000355116
2.82116e-05
0.00126163
5.07028e-05
9.52001e-05
0.00122153
-4.07278e-05
0.000221827
0.0010899
2.22041e-05
0.000305982
0.00109777
1.55733e-06
6.80209e-05
0.00104831
8.17884e-05
2.68825e-05
0.000970469
-0.000341734
0.000240381
0.00107176
-0.000611625
5.50591e-05
0.00119092
-0.000308821
9.81111e-05
0.00117402
-0.000142641
5.81178e-05
0.00108773
0.000132115
-0.000180843
0.00103428
-0.000126888
0.000166962
0.0012359
-0.000134773
0.00016587
0.00143456
0.000158275
8.06126e-05
0.00128568
0.000173955
-0.000185496
0.0012588
-0.000252093
-0.000256585
0.0013972
-0.00033965
-0.000160919
0.00129339
0.000227462
-0.000290316
0.00130358
1.172e-05
5.65799e-06
-0.000105366
0.00029713
0.0013629
0.000383424
1.30014e-05
0.00131275
0.000201256
0.000218363
0.00115672
-5.2786e-05
0.000308476
0.00108315
-0.000163492
4.47779e-05
0.00103869
-2.15241e-06
0.00015524
0.000912535
-0.000131757
0.000382473
0.00082241
-0.000214884
9.81407e-05
0.00088074
-0.000379712
-5.3054e-05
0.000979305
-0.000289235
0.000246421
0.000959513
-0.000280734
0.000211018
0.000916796
-0.000369101
0.000226293
0.000821499
-0.000128807
-6.10947e-06
0.000940718
-0.000299312
-0.000143895
0.00102904
-0.000310231
0.000132078
0.000871865
1.3572e-05
6.87294e-05
0.000863619
2.58638e-05
-0.000108422
0.000992324
-0.000458808
3.92065e-05
0.0011203
-0.000226779
-3.93101e-05
0.00100676
-6.76372e-05
0.000218183
0.000793883
-0.000391501
0.000123617
0.00076915
-0.000236152
-5.42452e-05
0.000828425
6.8621e-05
-2.39745e-05
0.000872549
1.35566e-06
0.000128122
0.000963457
-3.76855e-06
0.000224268
0.00100905
8.19758e-05
-2.37611e-05
0.000966756
0.000111188
0.000139789
0.000852985
-0.000321947
0.000326135
0.000936171
-0.000497905
-7.52621e-05
0.00105762
-0.000292089
-0.000112518
0.000980767
-9.54955e-05
-9.97666e-05
0.00103748
5.89819e-06
9.29991e-05
0.00108418
-0.000214215
0.000141969
0.00117968
-0.000183172
0.000142144
0.00134757
5.40012e-05
8.63135e-05
0.00122665
6.42291e-05
-0.000185873
0.00104316
-9.52312e-05
-0.000192329
0.00112464
-0.000193969
-0.000233159
0.00116469
0.000240631
-0.000418397
0.00118884
1.42822e-07
4.07398e-05
-0.00014459
0.000215836
0.0012132
0.000232862
-2.39008e-05
0.00109665
0.000229643
0.000182104
0.00104312
3.91343e-05
0.000229566
0.00100205
-0.000200408
0.000119502
0.000991817
-0.00015848
0.000231622
0.00079147
-5.17607e-05
0.000241836
0.000595019
-7.34194e-05
-1.32407e-06
0.000708252
-0.000419005
4.99053e-05
0.000797656
-0.000341144
0.000141479
0.00073863
-0.000260547
2.84064e-05
0.000674484
-0.00013484
7.89672e-05
0.000661977
-4.71639e-05
-7.24568e-05
0.000753656
-0.000414572
-8.49488e-05
0.000849903
-0.000318739
0.000121202
0.000812407
9.84278e-05
2.35687e-05
0.000805414
6.91136e-05
-8.61773e-05
0.000899807
-0.000512934
7.09477e-06
0.000920148
-0.000300437
7.07165e-05
0.000837056
-4.61152e-05
0.000166849
0.000693837
-0.00034213
0.00013727
0.00068429
-0.00012917
0.000119182
0.000816753
-1.9458e-05
5.01085e-05
0.000814637
-3.54893e-05
6.10809e-05
0.000796115
7.57654e-05
0.000206087
0.000885928
0.000136679
6.92363e-05
0.000858814
4.14716e-05
0.000163193
0.000685264
-0.000233531
0.000263159
0.000725543
-0.000398118
-7.20105e-05
0.000879192
-0.000388978
-0.000141902
0.00093264
-0.000248013
-7.99593e-05
0.00102415
-0.000127244
9.35987e-05
0.00110404
-0.000248029
-6.04131e-05
0.00111675
-0.000101367
-1.73844e-05
0.00107409
8.87388e-05
1.56811e-05
0.000991702
-8.55717e-05
-0.000202609
0.000986192
-5.55034e-05
-0.0002702
0.000986506
0.000127946
-0.000196374
0.000953145
0.00029227
-0.000207077
0.000986839
-0.000133993
0.000106671
-0.000291494
9.09678e-05
0.00110779
4.63287e-05
7.1347e-05
0.00101179
0.000286399
0.000224998
0.00081888
9.72147e-05
0.000249901
0.000736182
-0.000141212
0.000122062
0.000799927
-0.000184807
9.71424e-05
0.000621866
5.97196e-05
0.000114613
0.000488883
-6.90731e-05
6.67181e-05
0.000614786
-0.000441632
9.10352e-05
0.000692873
-0.000328913
0.000112692
0.000648711
-0.000203159
3.36267e-05
0.000640609
5.41309e-05
1.95932e-06
0.000671909
-0.000116242
-7.36544e-06
0.000726496
-0.000486518
-6.78581e-05
0.000766213
-0.000270389
9.49676e-05
0.000832517
4.48689e-05
-1.13439e-07
0.000815674
4.64432e-05
-8.74941e-06
0.000810792
-0.000527833
7.15423e-05
0.000844978
-0.000370815
8.46104e-05
0.000775895
-3.51065e-05
0.000174798
0.000668675
-0.00033218
0.000169544
0.00071179
-5.71881e-05
0.000107901
0.000840863
-7.42068e-05
3.18205e-05
0.000793155
-0.00014003
6.79031e-05
0.00073679
-1.34123e-06
0.000257703
0.000741882
0.000143137
0.000200857
0.000704846
-4.38736e-05
0.000136192
0.000640075
-0.000184984
5.38453e-05
0.000657319
-0.000384123
-2.81205e-05
0.000739545
-0.000482978
-5.20844e-05
0.000807842
-0.000327079
-2.66396e-05
0.00085846
-0.000102816
-2.36604e-05
0.000857188
-0.000276554
-0.000107151
0.000987121
-0.000167365
-8.74509e-05
0.000976831
4.76276e-05
-5.97751e-05
0.000822345
-5.99571e-05
-0.000117757
0.000860151
8.21897e-05
-4.11647e-05
0.00093797
0.00033512
-6.51088e-05
0.000940962
0.000226263
-6.40424e-05
0.000856709
-0.000244317
0.000197085
-0.000479244
0.000200482
0.000933118
-0.000191321
6.51012e-05
0.000957067
0.00028909
0.000140453
0.000731665
0.000159797
0.000208715
0.000662427
-0.000144143
6.58843e-05
0.000666972
-5.56695e-05
5.90516e-05
0.000574762
0.000128583
0.000156438
0.000503754
-7.8222e-05
4.02065e-05
0.000530292
-0.000352994
9.0664e-05
0.000573909
-0.000360526
0.000191788
0.000538677
-0.000210996
9.01572e-05
0.000594252
5.97726e-05
0.000112217
0.000654435
-0.000347556
0.000127068
0.000627864
-0.000452753
-4.06113e-05
0.000660552
-0.000167829
5.37157e-05
0.000790667
2.35221e-05
2.38748e-05
0.00077322
0.000141026
8.46473e-05
0.000723929
-0.00050885
2.66418e-05
0.000717855
-0.000275475
-4.39041e-05
0.000643084
9.67721e-05
2.27934e-05
0.000576672
-0.000396169
0.00017922
0.000634416
-0.000110704
2.26756e-05
0.000739133
-0.000179739
1.50455e-05
0.000729791
-0.00028351
5.39819e-05
0.000712839
-4.92778e-05
0.000139878
0.000734476
0.000175576
0.000133928
0.000748882
-8.01319e-05
0.000194094
0.00072717
-0.000302673
0.000133193
0.000644711
-0.000432659
0.000134282
0.000573905
-0.000407318
6.02793e-05
0.000677162
-0.000337032
7.08608e-05
0.000764376
-8.56577e-05
2.10854e-05
0.000709385
-0.000247896
-5.45476e-05
0.000880509
-0.000226981
-8.37696e-05
0.000799608
0.00011765
-0.000124319
0.000643032
4.54884e-05
-0.000107906
0.000778747
0.000151477
6.1853e-07
0.000898613
0.000403232
-8.23939e-05
0.000835049
0.000122094
2.13625e-05
0.000651318
-0.000100773
0.000133615
-0.000511444
0.000162073
0.000738919
-0.000406021
5.46013e-06
0.000802829
0.000224917
0.000173583
0.000615603
0.000191303
0.000167069
0.000548449
-0.000184254
7.19057e-05
0.000506931
8.01216e-06
0.000115935
0.00048326
8.39124e-05
0.000101859
0.000496271
-0.000103434
-4.08329e-05
0.000555582
-0.000317821
0.000115758
0.000561829
-0.000371931
0.000132601
0.000496418
-0.000200726
6.37041e-05
0.000549828
5.60322e-05
0.000142843
0.000583828
-0.000508673
8.10361e-05
0.000564954
-0.000307381
-3.55707e-05
0.000586626
-4.36996e-05
8.10287e-05
0.000664468
-1.25057e-05
0.000112054
0.000648928
0.000160399
0.000210494
0.000645414
-0.000534657
-9.34874e-07
0.000694151
-0.000233995
-5.4377e-05
0.000651006
0.000235316
6.35535e-05
0.00060063
-0.000409571
0.000145139
0.000699724
-0.00024191
7.85801e-05
0.00073335
-0.000265917
1.12865e-05
0.000603032
-0.000256666
9.04786e-05
0.00064526
-6.3162e-05
0.000120124
0.000700381
0.000192984
6.82855e-05
0.000683652
-4.1555e-05
0.000214593
0.00065159
-0.000376847
0.000270765
0.000530582
-0.000332598
0.00014898
0.000408098
-0.00032179
7.79583e-05
0.000520781
-0.000417635
7.03807e-05
0.000659841
-0.000144328
0.000121526
0.000682799
-0.000280116
2.26426e-05
0.000800488
-0.000240979
-4.97867e-05
0.000680639
0.0002407
-0.00015307
0.000602683
0.000125111
-5.5526e-05
0.000745188
0.000170354
3.28617e-05
0.000775302
0.000455709
9.87406e-06
0.000699174
3.56741e-05
0.000168543
0.000520077
7.12977e-05
0.000133896
-0.000415422
4.5924e-05
0.000587088
-0.000475397
6.26594e-05
0.00066995
8.0286e-05
0.000195195
0.0005579
0.000178386
0.000113424
0.000482294
-0.000182046
0.000116236
0.000436454
-4.82248e-05
0.000185387
0.000424123
9.61729e-05
3.27832e-05
0.000446012
-0.0001367
6.24098e-05
0.000537166
-0.000373224
0.000176029
0.000550655
-0.000364857
9.86554e-05
0.000501777
-0.000184505
8.69894e-05
0.000507459
4.02162e-05
0.000188467
0.000478501
-0.000478488
5.7992e-06
0.000535282
-0.000233004
-3.4572e-05
0.000573328
8.29842e-05
7.80662e-05
0.000588289
-1.69423e-05
0.000118345
0.000599032
0.000154872
0.000110366
0.000570308
-0.000501288
-6.48701e-05
0.000654922
-0.000271595
3.11164e-06
0.000654492
0.000222016
3.93652e-05
0.000577835
-0.000342486
7.83813e-07
0.000636704
-0.000285086
6.93598e-05
0.000627501