# y+ ()       
# Time        	patch         	min           	max           	average       
63            	bottomWall	1.539863e+00	7.177542e+00	3.365419e+00
63            	topWall	1.345644e+00	6.028371e+00	3.230564e+00
