/*--------------------------------*- C++ -*----------------------------------*\
  =========                 |
  \\      /  F ield         | OpenFOAM: The Open Source CFD Toolbox
   \\    /   O peration     | Website:  https://openfoam.org
    \\  /    A nd           | Version:  10
     \\/     M anipulation  |
\*---------------------------------------------------------------------------*/
FoamFile
{
    format      ascii;
    class       volScalarField;
    location    "1";
    object      nut;
}
// * * * * * * * * * * * * * * * * * * * * * * * * * * * * * * * * * * * * * //

dimensions      [0 2 -1 0 0 0 0];

internalField   nonuniform List<scalar> 
102400
(
9.10716e-10
8.36487e-10
9.11539e-10
1.07837e-09
1.12682e-09
1.00872e-09
9.98883e-10
1.1412e-09
1.18087e-09
1.04206e-09
9.53694e-10
1.07175e-09
1.17907e-09
1.15392e-09
9.81575e-10
9.60093e-10
9.91086e-10
1.03095e-09
1.1396e-09
8.40965e-10
6.191e-10
6.21257e-10
5.95588e-10
5.01978e-10
7.46732e-10
8.39955e-10
6.61299e-10
7.26353e-10
8.10142e-10
8.39142e-10
8.44089e-10
8.95648e-10
9.6586e-10
9.53656e-10
8.78174e-10
8.24448e-10
8.74929e-10
9.91111e-10
1.13681e-09
1.06122e-09
4.62443e-13
3.31329e-13
4.80458e-13
6.76297e-13
5.45928e-13
4.57127e-13
6.04244e-13
1.06934e-12
1.18634e-12
8.6553e-13
7.72837e-13
1.52863e-12
1.03341e-12
5.62266e-13
5.95951e-13
7.70074e-13
9.03087e-13
1.12743e-12
6.95276e-13
4.55015e-13
3.42228e-13
3.71628e-13
3.55776e-13
3.90338e-13
2.10187e-13
1.73511e-13
2.79325e-13
3.14941e-13
3.71185e-13
3.61265e-13
2.98188e-13
2.87211e-13
3.01743e-13
3.20128e-13
3.04923e-13
2.81546e-13
3.24693e-13
4.20807e-13
3.69111e-13
3.73038e-13
1.42135e-09
1.04463e-09
1.82288e-09
2.06824e-09
1.6683e-09
1.56184e-09
1.86325e-09
1.85568e-09
1.86609e-09
1.73506e-09
1.85373e-09
1.71516e-09
1.95761e-09
1.73792e-09
1.89843e-09
1.78093e-09
1.47088e-09
1.79738e-09
1.78388e-09
1.32198e-09
1.35478e-09
1.261e-09
1.17088e-09
1.31098e-09
1.55378e-09
2.3075e-09
2.50481e-09
2.14835e-09
2.12791e-09
2.07597e-09
1.99246e-09
1.83139e-09
1.57422e-09
1.47556e-09
1.74615e-09
1.45605e-09
1.46648e-09
1.588e-09
1.87952e-09
1.4536e-09
6.81073e-14
4.54015e-13
8.8174e-14
9.63479e-14
1.489e-13
1.13548e-13
1.08624e-13
9.97292e-14
5.22919e-14
2.33244e-13
1.64394e-13
6.34481e-14
2.31856e-13
3.85282e-13
1.05087e-13
1.48477e-13
2.86616e-13
2.48113e-13
7.98586e-13
1.0569e-12
4.41935e-13
1.39787e-13
3.24509e-14
3.51592e-14
3.83926e-14
7.49256e-15
4.85733e-14
6.24681e-14
5.81932e-14
2.31311e-13
3.67752e-13
2.11715e-13
1.00933e-13
4.31591e-14
4.94239e-14
6.55846e-14
5.59757e-14
6.58938e-14
6.63446e-14
8.6793e-14
1.30776e-09
7.11575e-10
1.08528e-09
6.64525e-10
7.19331e-10
9.40488e-10
1.09472e-09
1.31182e-09
1.23243e-09
1.23241e-09
1.24871e-09
1.41644e-09
1.15121e-09
1.24542e-09
8.94907e-10
7.33887e-10
1.27748e-09
1.83855e-09
1.2813e-09
1.01167e-09
8.55185e-10
1.20028e-09
9.52102e-10
1.22562e-09
1.25376e-09
1.37653e-09
1.89628e-09
1.89296e-09
1.55292e-09
1.17722e-09
1.0011e-09
1.37578e-09
1.20535e-09
1.42526e-09
1.81141e-09
1.35266e-09
1.10822e-09
1.20016e-09
1.14172e-09
1.56528e-09
4.89414e-14
4.87659e-14
2.13987e-12
6.65969e-10
1.54562e-13
7.68506e-14
1.2845e-13
8.08718e-14
5.52675e-14
6.0344e-14
1.38024e-13
1.61905e-13
9.39088e-14
6.7839e-14
2.85888e-13
6.69049e-13
6.44739e-14
2.58536e-14
1.01569e-13
8.65936e-14
8.74005e-13
9.55368e-13
3.98171e-13
9.1951e-14
4.72207e-14
1.65422e-14
3.36255e-14
1.22931e-13
1.32661e-13
2.2338e-13
1.48159e-13
1.45659e-13
2.0482e-13
8.56347e-14
6.23388e-14
6.82039e-14
8.81516e-14
6.09383e-14
7.47483e-14
3.47268e-14
9.00098e-10
5.00772e-10
7.3353e-13
7.71783e-13
6.74844e-10
4.32832e-10
1.2604e-09
5.08494e-10
8.93489e-10
8.5e-10
2.89696e-13
1.15882e-09
8.78912e-10
5.65042e-10
5.45501e-10
6.75059e-11
9.75018e-10
6.14426e-10
2.56979e-10
6.45654e-10
6.59212e-10
6.12056e-10
4.12423e-10
5.52111e-10
8.78442e-10
2.25083e-10
4.59053e-14
4.21319e-13
1.56957e-13
1.48907e-13
2.14242e-13
1.31944e-13
6.20981e-10
3.38651e-10
2.56082e-10
1.19804e-09
5.24956e-10
6.94812e-10
7.78984e-10
1.12499e-09
6.17085e-12
8.50237e-14
9.9598e-14
3.8055e-13
6.00715e-14
4.86022e-14
6.27505e-14
7.37613e-14
2.76592e-14
3.51334e-13
3.05879e-13
6.83994e-14
3.92821e-10
9.75406e-14
1.90716e-13
2.41599e-14
2.34883e-13
1.04695e-09
3.64429e-10
5.92464e-13
3.24313e-14
3.4454e-13
1.10885e-12
6.37173e-13
2.06484e-13
1.14104e-09
1.1165e-09
6.04677e-10
1.5294e-12
1.18814e-10
1.01884e-12
2.68748e-13
1.05564e-13
3.72268e-13
9.25395e-10
1.67375e-10
4.08172e-14
4.42147e-14
1.50399e-13
2.3243e-10
3.17584e-11
9.55671e-10
4.40397e-10
1.59317e-09
7.40273e-10
4.63489e-10
2.67047e-13
3.98671e-10
3.12109e-10
2.99404e-13
6.48571e-10
6.34875e-14
2.73749e-13
1.20195e-09
4.57335e-10
8.6496e-10
7.43837e-14
1.55737e-13
1.76858e-10
4.94454e-10
6.32883e-10
6.37611e-10
3.6925e-10
2.16883e-12
9.64051e-11
4.68035e-14
2.14317e-13
5.42203e-13
4.52618e-12
4.04809e-11
1.16491e-10
2.20516e-10
3.39893e-13
5.6424e-10
1.51057e-10
2.69547e-13
2.54592e-10
5.72536e-10
4.71539e-10
6.0776e-14
2.84373e-13
1.30474e-10
9.8576e-14
1.48084e-13
4.85406e-14
4.13532e-14
6.13045e-10
2.5849e-13
1.48041e-10
1.12885e-10
1.12356e-13
6.74004e-10
5.89785e-11
1.31628e-13
2.06829e-13
4.87327e-13
1.19237e-13
1.03093e-13
1.12608e-12
1.07884e-13
5.09997e-11
9.14793e-14
7.27314e-13
3.13886e-12
1.85931e-10
1.95558e-12
3.45341e-12
2.84575e-12
1.37282e-12
3.21146e-13
1.25022e-13
1.09504e-13
1.041e-10
1.39161e-13
5.19209e-14
4.28166e-13
8.24546e-12
1.38609e-13
2.52699e-13
1.14875e-13
7.77915e-14
5.52137e-14
1.26663e-10
8.47021e-13
5.49428e-14
1.56517e-10
3.0847e-13
4.18704e-10
2.71621e-10
4.60201e-10
3.55868e-10
1.49402e-12
4.70107e-10
7.86212e-14
2.30822e-13
3.73144e-13
3.71661e-12
3.03026e-10
4.50475e-10
5.01806e-10
5.71033e-13
4.10745e-10
3.63432e-10
1.89067e-10
3.66014e-11
1.03727e-12
7.87844e-13
3.85242e-12
2.3809e-10
2.76375e-10
4.6383e-13
4.29719e-11
2.10658e-10
2.91251e-13
5.03335e-10
6.4429e-10
5.96254e-14
1.09543e-13
7.69957e-10
4.71121e-10
6.62472e-10
2.861e-12
1.4937e-13
2.07525e-10
2.85251e-10
3.27372e-14
8.83054e-14
3.17094e-13
3.38674e-10
1.3325e-13
7.50259e-14
7.39918e-14
1.22931e-13
1.03126e-09
7.92964e-10
1.85227e-10
8.59384e-14
3.98269e-13
1.13612e-13
3.82347e-10
2.3759e-12
4.55502e-13
1.35253e-13
1.1347e-13
3.19723e-10
3.16366e-10
6.31273e-12
1.33259e-10
1.72096e-13
7.13154e-14
2.42792e-13
2.49091e-13
2.65871e-14
5.74017e-14
2.90352e-13
3.6207e-10
4.20225e-14
7.33793e-14
3.23538e-12
9.89476e-11
8.23455e-11
3.72912e-10
1.01166e-13
4.18169e-14
4.50996e-11
1.51839e-12
5.15504e-10
2.94754e-10
7.45071e-14
3.4546e-13
3.69691e-10
7.16111e-10
6.88579e-10
1.01353e-10
1.26963e-12
1.89694e-13
4.28783e-10
1.92252e-13
4.81042e-11
5.40304e-13
4.18893e-10
3.15519e-13
5.51924e-13
1.22725e-13
9.65408e-14
1.06069e-12
3.62331e-10
5.94632e-10
3.89103e-10
3.68727e-10
6.52557e-11
2.05776e-11
1.17945e-12
4.93141e-14
5.50398e-14
1.88201e-13
6.12539e-10
4.02697e-14
4.9889e-14
2.57876e-13
1.50698e-13
1.51643e-13
1.14018e-12
1.54541e-13
7.47173e-14
6.39425e-14
3.40726e-13
4.21674e-15
1.47034e-11
4.67532e-10
1.93099e-10
7.66044e-14
9.46346e-13
4.80889e-14
2.68977e-14
6.33018e-14
5.20124e-13
1.01445e-12
3.38885e-13
2.82646e-13
6.40545e-13
3.24653e-10
4.32495e-10
1.91241e-10
3.09295e-13
3.97435e-13
1.2611e-13
9.74505e-14
5.26517e-11
1.99633e-11
4.34438e-14
1.12296e-13
3.28409e-10
2.96023e-13
7.36127e-13
2.86241e-10
9.81447e-12
8.2499e-11
3.63507e-10
7.88666e-11
1.29533e-10
6.50674e-14
1.90032e-13
8.73175e-11
6.15794e-11
1.82759e-13
7.55141e-14
5.65171e-14
4.4561e-10
3.34113e-10
5.32498e-14
3.84922e-14
9.12404e-11
5.09108e-10
7.4798e-14
8.80724e-14
8.51518e-14
5.1778e-13
6.49229e-11
3.73528e-13
1.31205e-13
2.93965e-13
1.57423e-12
8.52265e-12
5.87383e-10
5.20084e-10
3.12867e-10
6.47397e-10
1.85791e-10
2.68253e-14
1.67932e-11
3.23126e-13
2.88287e-14
1.17915e-13
1.27418e-12
2.17144e-10
7.85626e-14
2.42739e-14
6.17813e-11
1.13539e-10
1.96924e-10
2.13244e-10
1.36123e-13
1.39321e-10
2.75892e-10
6.65912e-12
7.17267e-11
3.1728e-10
2.08024e-10
1.62671e-10
4.71135e-10
4.82766e-10
2.04574e-10
3.11333e-10
3.42202e-10
1.12584e-13
1.7648e-13
8.18669e-14
2.53311e-13
5.00431e-13
1.11052e-13
1.81076e-13
6.85704e-13
2.86733e-11
7.16785e-14
8.89391e-14
4.96307e-10
9.15355e-10
7.03508e-10
2.15169e-10
3.32604e-13
1.02682e-12
6.96913e-13
2.29554e-13
3.02145e-13
3.00878e-11
1.9877e-10
6.47259e-14
3.40388e-13
3.09582e-10
4.6119e-10
3.53935e-10
1.16609e-13
6.63281e-14
3.19165e-13
7.21473e-14
5.77955e-13
1.57634e-10
3.90306e-14
4.03482e-11
1.44121e-10
3.64597e-11
1.47414e-13
2.55208e-13
1.63758e-10
2.49902e-10
7.20965e-11
6.65323e-13
1.41418e-11
2.05954e-10
5.42465e-10
4.42466e-10
1.26601e-10
1.36801e-10
3.14434e-10
4.44928e-10
1.73803e-10
3.93485e-12
1.18369e-13
3.71006e-14
3.12249e-10
3.22825e-10
3.24022e-10
2.39942e-10
3.76848e-11
1.74495e-10
1.90032e-10
3.86491e-13
1.99483e-13
3.62579e-11
1.44061e-13
1.46021e-13
1.81943e-13
1.38286e-13
5.01317e-11
7.03752e-11
1.18961e-10
1.06289e-13
4.66279e-14
1.28393e-13
2.80805e-14
4.40788e-14
1.56682e-10
2.32444e-10
4.79962e-13
9.35907e-11
2.02375e-10
3.62986e-10
4.67863e-10
2.13822e-11
7.54301e-12
5.965e-11
5.48794e-12
1.39479e-10
3.3004e-10
8.78317e-11
1.04133e-13
1.79444e-10
5.75373e-10
1.91237e-10
2.01469e-10
1.68286e-10
1.10489e-13
1.01075e-13
9.6705e-14
1.30622e-13
7.82236e-14
1.13123e-13
2.11614e-13
2.25416e-13
7.45869e-13
2.17888e-13
1.9481e-10
2.40344e-10
9.04988e-11
2.73201e-13
7.09161e-14
5.13456e-11
3.96176e-10
4.75412e-10
3.49751e-10
9.54417e-14
1.26088e-10
4.37334e-10
1.04602e-10
2.08853e-13
1.23665e-13
2.00311e-13
9.27726e-13
1.3977e-13
1.48209e-13
1.03886e-13
9.87294e-11
2.16488e-12
4.14365e-13
3.31895e-11
5.2154e-10
1.64059e-10
1.90993e-10
6.1979e-11
4.91081e-14
4.34302e-14
3.84539e-13
1.24703e-10
2.64999e-11
7.80679e-11
1.54616e-11
1.59912e-10
4.5768e-10
3.60324e-10
1.36628e-10
1.84621e-13
1.23202e-13
1.06755e-13
1.46046e-13
8.722e-13
2.35215e-11
1.49864e-10
6.15522e-11
1.59792e-13
1.80384e-13
6.33892e-14
7.73235e-14
1.1787e-13
1.24718e-13
8.53521e-14
1.44893e-13
6.26431e-14
8.20678e-14
1.32506e-12
2.2066e-10
1.96015e-13
2.60787e-14
5.81876e-14
5.86835e-13
1.39588e-10
2.39161e-12
1.17113e-13
1.32728e-13
9.01751e-13
1.84829e-10
2.39704e-10
2.73108e-10
1.31724e-10
1.97449e-13
5.43565e-11
1.65753e-10
1.39784e-10
1.9435e-10
2.68597e-10
1.02105e-11
1.212e-10
7.17764e-11
9.74508e-14
1.02934e-13
1.91653e-13
3.24e-13
3.7501e-12
1.34466e-10
1.64611e-10
1.28773e-10
7.67762e-11
2.36105e-11
1.06145e-12
4.25025e-11
4.52048e-11
3.35926e-13
3.41072e-11
4.01159e-10
4.10717e-10
8.74535e-11
3.61385e-13
2.49442e-13
2.52715e-13
8.55125e-13
2.10183e-10
1.32972e-10
2.59876e-10
3.19546e-10
1.48642e-10
1.71131e-10
1.6872e-10
6.8186e-11
9.15306e-11
2.09665e-10
1.87293e-10
1.33713e-11
1.04187e-13
6.76673e-12
4.88634e-11
1.14321e-10
1.10285e-11
7.61056e-11
1.56196e-13
7.78915e-14
9.84874e-14
7.10775e-14
3.77045e-11
3.41268e-11
1.47732e-13
2.92041e-13
3.76148e-13
3.83204e-11
2.51098e-10
1.24411e-10
3.09271e-13
1.73196e-13
1.58229e-13
6.41113e-11
7.46403e-11
9.38594e-11
2.57074e-10
5.1741e-10
4.82735e-10
2.92768e-10
3.15595e-10
2.62535e-10
2.44703e-10
2.3145e-10
2.80344e-14
3.27484e-14
9.363e-14
1.37762e-13
1.65626e-13
1.82201e-12
2.29346e-11
3.76826e-12
4.75147e-11
1.84223e-10
2.95449e-10
5.15519e-11
5.19632e-12
3.55826e-11
3.01036e-11
5.88469e-11
2.89948e-12
3.29856e-13
7.7571e-11
1.28882e-10
3.69554e-13
6.78952e-14
1.00551e-13
1.28592e-13
5.98158e-11
1.60316e-10
4.76984e-11
3.66772e-12
3.12888e-11
6.87303e-11
1.95572e-10
1.79998e-10
6.48678e-14
3.17282e-14
7.10822e-14
1.78231e-13
1.05371e-10
3.26057e-11
4.25115e-13
1.35825e-12
9.21013e-11
1.27488e-10
6.52591e-11
5.09842e-13
1.75456e-13
3.35088e-13
9.4901e-13
9.99437e-13
4.05059e-12
6.12145e-13
7.43214e-11
1.36792e-11
3.20833e-13
6.94113e-13
1.47317e-13
1.64653e-13
4.31869e-13
4.11312e-13
1.23952e-11
4.46718e-12
1.8407e-13
7.98213e-14
4.12598e-13
5.44581e-11
3.52013e-11
4.80761e-13
8.08732e-11
8.20988e-11
7.98237e-12
2.73192e-11
1.58339e-10
2.56351e-10
1.41678e-10
8.09226e-14
2.93569e-14
5.17191e-14
2.27746e-13
1.72824e-10
4.45382e-12
1.04365e-12
6.02995e-13
5.62366e-13
3.01752e-11
1.071e-10
5.82785e-11
2.95232e-11
5.57347e-11
1.08573e-10
9.06442e-11
1.79098e-11
5.91126e-11
1.32534e-10
8.42067e-13
6.17511e-11
1.49354e-10
1.75961e-10
1.40836e-10
4.43077e-11
5.35503e-11
7.51504e-11
1.0461e-10
4.77747e-11
2.44368e-13
1.01304e-13
1.41669e-13
1.79569e-13
4.45922e-13
1.47755e-10
1.7055e-10
8.24371e-11
7.91973e-13
5.97544e-13
1.25727e-10
1.66513e-10
7.14891e-11
5.43901e-14
3.7105e-14
7.78441e-14
1.34423e-10
2.97078e-10
1.26089e-10
4.16843e-11
9.03785e-11
1.23646e-10
1.51386e-10
1.0672e-10
7.15334e-13
8.20053e-14
1.91141e-11
2.79522e-11
1.22736e-10
2.50813e-10
4.1936e-11
4.53713e-13
1.00518e-13
9.33736e-14
5.35768e-11
7.17405e-11
4.37674e-11
6.77655e-11
1.07086e-10
3.11906e-11
3.23116e-13
2.5964e-11
1.74891e-10
3.11656e-10
2.817e-10
2.17217e-10
1.07703e-10
5.14702e-11
1.16652e-11
3.99725e-13
1.06482e-10
1.39139e-10
8.17974e-12
2.55452e-11
8.34095e-11
1.0112e-10
1.27964e-10
1.38001e-10
1.1042e-10
1.47448e-10
8.80321e-11
5.96527e-14
9.93539e-14
2.35541e-13
3.31272e-13
1.41989e-13
1.33115e-10
2.22204e-10
2.54106e-10
1.82006e-10
1.83715e-10
2.22373e-10
2.09266e-10
9.82075e-11
9.39053e-11
1.55239e-11
3.9282e-14
5.10343e-14
6.24333e-14
1.1431e-13
1.66001e-13
1.64105e-12
2.06755e-11
2.47477e-13
5.76984e-14
9.16305e-13
1.44579e-11
1.82425e-13
2.72645e-13
2.58896e-13
1.18359e-10
2.134e-10
9.86988e-11
4.39858e-11
5.87731e-11
4.71681e-13
2.58226e-13
5.40459e-11
1.31884e-13
2.0195e-13
1.51283e-12
2.65806e-13
3.58652e-14
6.01672e-14
5.21938e-13
1.15636e-11
2.02146e-10
1.87608e-10
7.34399e-11
2.15352e-14
1.24631e-14
4.3816e-14
1.33613e-13
1.32815e-12
1.46623e-10
1.22225e-10
1.78344e-11
3.60586e-13
1.40513e-13
5.59202e-12
2.63946e-13
2.17202e-13
1.90103e-13
2.06936e-14
8.89437e-15
1.46585e-14
3.05353e-14
1.42737e-12
7.39049e-11
2.00469e-11
2.49149e-13
1.03641e-10
1.36264e-10
7.65659e-11
5.96805e-11
1.61704e-11
3.57935e-13
9.74966e-12
2.49127e-13
6.78626e-14
4.92903e-14
4.70151e-14
2.12769e-13
8.63592e-12
5.08905e-11
4.74118e-11
1.23647e-10
9.80663e-11
2.86207e-13
2.21931e-13
5.20034e-11
1.55515e-10
1.6619e-10
1.95462e-11
3.95904e-11
1.32548e-10
1.41938e-10
1.86159e-10
1.65186e-10
1.53745e-10
5.75595e-11
4.18026e-13
4.91497e-13
1.01194e-12
3.18234e-11
8.10154e-11
6.11126e-11
9.91651e-14
3.31211e-14
5.9119e-14
5.20188e-14
1.63225e-11
6.27409e-11
9.72857e-11
1.60383e-10
1.69127e-10
3.6809e-11
4.27702e-11
6.23437e-11
3.44004e-13
1.63073e-11
1.83187e-11
1.52806e-13
5.42595e-13
2.44164e-11
4.87498e-13
2.00641e-13
1.9502e-13
1.29217e-13
7.97905e-13
3.78496e-13
1.99255e-13
5.86174e-11
6.62117e-11
8.32485e-11
1.48778e-10
4.29815e-11
3.1907e-13
2.72147e-13
3.41145e-13
1.96942e-13
1.46032e-13
1.87259e-13
4.32912e-13
1.5305e-12
3.85589e-12
5.33161e-11
6.36614e-11
3.46342e-11
7.50853e-11
5.74343e-11
7.80472e-13
6.07263e-13
5.46593e-13
2.58556e-13
4.74298e-13
1.86449e-13
2.04209e-13
4.93715e-11
1.80886e-13
5.05552e-13
8.86697e-11
1.173e-10
1.41957e-10
8.9447e-11
5.67482e-12
8.01065e-14
9.07468e-13
1.94179e-12
3.38147e-14
1.59276e-14
2.636e-14
1.75658e-11
5.09833e-11
2.35774e-11
5.1196e-11
6.17617e-11
5.86074e-11
8.24513e-11
9.81884e-11
2.45291e-11
5.60645e-12
4.58922e-13
2.16133e-13
3.87226e-13
3.76251e-13
3.83599e-13
3.17569e-13
1.53057e-13
1.63757e-13
3.05667e-13
1.7153e-13
1.5137e-13
2.30077e-13
3.12929e-13
9.20153e-11
1.19051e-10
6.9542e-11
1.23387e-10
3.54191e-12
1.42562e-13
4.35229e-13
8.57004e-13
2.08777e-13
1.57666e-13
1.42063e-12
3.88912e-13
1.18257e-11
3.6236e-13
1.57282e-10
1.93194e-10
6.95812e-11
5.53979e-11
9.12076e-11
8.44273e-11
1.15262e-10
1.30936e-10
7.91209e-11
6.39421e-11
4.6459e-11
1.29784e-12
3.17401e-11
6.20516e-11
7.93745e-11
5.39845e-11
8.8554e-14
6.1091e-14
9.91732e-13
3.99147e-13
6.0729e-13
6.14385e-11
1.35938e-12
8.45776e-13
5.80484e-11
1.25243e-13
5.8788e-13
4.37173e-13
9.20544e-14
4.04418e-11
3.86881e-11
5.15477e-11
7.93116e-11
8.25248e-11
6.44206e-11
6.86754e-11
4.92517e-11
1.29776e-12
1.18543e-12
3.96923e-11
9.8218e-10
9.99068e-10
1.11344e-09
9.91492e-10
9.08289e-10
8.63021e-10
9.48342e-10
1.0066e-09
8.83962e-10
8.60339e-10
9.39891e-10
8.84903e-10
7.64744e-10
8.35625e-10
1.00754e-09
1.07079e-09
1.11215e-09
9.55636e-10
8.88871e-10
9.65181e-10
8.75724e-10
7.6213e-10
9.74248e-10
1.07297e-09
1.15981e-09
1.21347e-09
1.18836e-09
1.03205e-09
1.09067e-09
1.12203e-09
9.90853e-10
9.85655e-10
1.07477e-09
1.1314e-09
9.44226e-10
1.0749e-09
1.15415e-09
1.01909e-09
9.8136e-10
9.78149e-10
2.89687e-13
1.69278e-13
6.01539e-13
9.53402e-13
5.01151e-13
5.01271e-13
6.46204e-13
5.27873e-13
4.9222e-13
4.8232e-13
6.46265e-13
7.62514e-13
4.37355e-13
5.10389e-13
8.94766e-13
1.5624e-12
1.41693e-12
7.20262e-13
4.42416e-13
2.71192e-13
2.09715e-13
1.65866e-13
2.27867e-13
4.2538e-13
5.63055e-13
6.90184e-13
7.51577e-13
7.1393e-13
6.99311e-13
7.8467e-13
5.7226e-13
5.88279e-13
5.40135e-13
3.259e-13
3.12362e-13
2.38628e-13
1.37427e-13
2.85728e-13
4.99362e-13
5.42664e-13
1.70212e-09
1.70892e-09
1.7008e-09
1.42678e-09
1.57694e-09
1.81122e-09
1.72148e-09
1.56783e-09
1.39372e-09
1.46123e-09
1.38224e-09
1.41566e-09
1.25516e-09
1.51418e-09
2.38365e-09
2.15512e-09
1.63498e-09
1.44787e-09
1.52681e-09
1.60369e-09
1.62046e-09
1.91127e-09
1.55918e-09
1.5475e-09
1.42092e-09
2.05601e-09
1.80332e-09
1.32661e-09
1.57327e-09
1.62295e-09
1.45977e-09
1.57307e-09
1.58088e-09
1.62767e-09
1.72062e-09
1.65591e-09
1.6468e-09
1.85898e-09
1.45842e-09
1.56714e-09
4.95414e-14
5.28687e-14
8.52408e-14
1.30889e-13
9.74176e-14
1.63247e-14
5.24309e-14
4.41383e-14
3.72611e-14
5.21841e-14
6.08878e-14
6.48938e-14
1.52582e-13
1.18321e-13
8.90783e-14
1.35702e-13
4.85611e-14
1.1123e-13
3.56868e-13
1.27731e-12
7.19663e-13
3.55995e-13
7.83722e-13
7.04751e-13
1.34056e-13
8.95075e-14
1.64648e-13
4.84195e-14
8.18586e-14
4.30959e-13
4.88695e-13
3.27139e-13
4.65309e-13
1.92783e-13
3.89348e-14
5.84089e-14
3.14185e-13
4.63479e-14
5.28321e-14
3.72721e-14
1.49025e-09
1.55093e-09
7.7379e-10
1.47572e-09
5.95826e-10
1.28213e-09
1.14265e-09
9.83089e-10
1.23839e-09
1.25123e-09
8.13919e-10
9.37927e-10
9.05041e-10
8.6363e-10
8.29203e-13
1.39109e-09
1.30766e-09
1.09808e-09
8.28628e-10
5.30072e-10
7.06822e-10
7.38276e-10
7.93998e-10
8.84565e-10
1.25421e-09
1.02957e-09
1.10928e-09
9.0372e-10
1.08583e-12
8.99865e-10
9.76597e-10
6.78984e-10
8.11148e-10
1.16265e-09
1.69614e-09
9.20164e-10
9.78019e-10
1.43258e-09
1.23963e-09
7.51417e-10
5.98072e-14
1.27227e-13
8.24747e-14
9.14986e-14
6.9602e-15
9.21841e-14
3.41724e-14
6.49018e-14
3.26821e-14
4.1023e-14
8.02549e-14
8.47325e-14
5.55959e-14
8.7275e-14
5.91638e-14
6.6891e-14
2.05019e-14
4.84477e-14
1.91036e-13
1.59334e-13
5.49904e-14
1.2763e-13
2.84428e-13
2.17294e-13
1.77931e-13
1.10435e-13
1.04055e-13
2.49193e-13
1.31071e-13
1.03366e-13
5.06709e-14
2.98928e-14
2.0122e-12
4.11562e-13
4.40501e-14
5.38674e-14
1.34587e-13
3.96793e-14
2.33601e-14
4.78315e-14
7.69561e-10
3.40293e-12
1.12719e-09
6.39393e-10
8.16365e-10
6.17992e-13
5.21978e-10
4.44472e-10
3.1371e-10
4.44858e-13
6.94812e-10
5.37184e-10
1.75313e-10
7.85444e-10
1.24451e-09
4.67036e-10
7.00888e-10
2.08598e-10
4.58371e-13
3.99324e-10
7.477e-10
2.98074e-10
6.39436e-10
1.07313e-09
7.39255e-10
8.43486e-13
8.20022e-11
6.58757e-12
9.59882e-10
4.57224e-10
1.35675e-10
7.61334e-10
4.4881e-10
7.2971e-10
7.4482e-10
8.33867e-10
5.39113e-10
8.77144e-10
6.35744e-10
9.54275e-10
5.68533e-14
1.28448e-13
2.1398e-10
2.34035e-10
1.94337e-13
1.84262e-10
4.83065e-11
5.46789e-14
7.73013e-14
1.61276e-10
1.5916e-13
1.11285e-13
3.44175e-13
1.01258e-14
4.52002e-14
5.42574e-10
1.63346e-10
1.09823e-13
8.64262e-14
3.46102e-14
4.80353e-14
1.66125e-13
5.15433e-13
5.74309e-12
1.33332e-13
9.87159e-14
3.66303e-10
1.28112e-13
1.52288e-13
1.26706e-12
1.7299e-10
1.32115e-13
2.2773e-12
4.6521e-13
2.17264e-13
1.89294e-13
1.37347e-13
4.15298e-14
4.90907e-14
5.73135e-14
2.29808e-13
5.40904e-10
6.47801e-11
2.85304e-10
9.6518e-11
1.00064e-10
7.44556e-11
4.37487e-10
1.475e-13
1.89657e-10
5.19706e-10
1.70818e-10
8.70921e-11
4.18743e-13
3.93833e-13
2.54694e-13
4.79344e-10
1.2817e-10
6.25381e-10
3.35022e-10
1.66373e-13
2.9466e-12
1.47159e-13
4.18137e-13
3.01977e-10
3.95952e-10
2.60454e-10
5.56854e-10
2.38471e-10
6.70377e-10
1.83069e-10
1.08331e-10
1.32598e-09
5.41802e-10
3.68109e-13
3.30266e-10
4.80268e-10
1.18832e-13
1.79929e-10
3.85365e-10
3.42518e-11
1.43114e-13
1.14943e-10
5.45249e-13
1.16656e-13
7.4008e-15
1.48269e-14
4.49294e-14
5.88336e-14
6.91593e-15
4.41609e-14
3.17259e-13
7.39241e-14
1.69102e-10
6.30644e-10
2.41643e-13
4.93246e-11
6.56373e-13
2.46296e-13
1.31662e-10
1.02373e-12
1.42442e-13
2.06388e-13
2.46283e-13
4.06225e-13
4.33712e-13
1.15153e-13
8.49547e-14
1.1641e-13
1.37182e-13
1.98224e-14
1.31766e-13
1.52575e-13
1.18999e-10
2.01123e-12
2.62802e-10
2.91148e-10
3.65557e-10
4.4379e-13
4.73019e-11
2.22225e-13
4.5518e-11
4.12013e-10
3.81421e-10
2.96583e-10
2.28064e-10
7.40089e-11
6.61048e-14
7.49858e-14
1.63803e-14
5.61336e-11
2.42319e-10
4.02846e-10
3.65007e-14
3.32498e-13
5.08998e-10
5.51109e-10
3.55272e-10
1.66406e-13
2.23871e-13
3.85358e-10
1.6585e-13
7.77526e-10
7.94941e-10
5.61328e-11
2.52878e-10
3.96849e-10
3.28002e-10
2.46645e-10
1.16179e-10
8.33845e-10
2.75941e-10
6.18877e-10
2.55756e-10
2.99014e-13
7.07557e-13
7.89161e-13
2.4431e-13
5.56308e-13
3.62209e-10
4.23669e-13
3.09464e-13
5.61071e-13
1.88061e-10
4.15956e-10
1.42302e-10
1.45313e-12
1.89104e-10
7.20576e-11
1.14326e-10
2.08428e-11
1.49247e-10
1.10741e-13
2.91402e-11
4.23168e-14
8.50544e-14
1.1244e-10
8.02282e-12
3.61111e-10
9.56709e-11
4.50111e-14
1.22693e-13
1.88222e-13
2.66346e-13
1.05188e-13
6.31129e-13
1.31046e-12
2.27089e-13
3.65149e-13
3.02189e-11
1.05708e-13
4.01698e-10
4.15257e-10
5.42058e-10
2.18112e-10
1.48717e-13
1.48226e-11
9.50113e-13
2.46025e-13
2.00116e-13
3.37504e-13
1.14272e-13
7.153e-13
1.15564e-12
7.93535e-11
6.19084e-13
5.83576e-11
5.24424e-13
3.02501e-13
1.66577e-14
2.58269e-13
2.82518e-10
5.81992e-14
6.00584e-13
5.26398e-13
1.8647e-13
5.27862e-13
3.44323e-10
7.59406e-14
2.78159e-13
6.16625e-14
1.05081e-13
9.01592e-13
4.31178e-13
1.57131e-10
1.34261e-13
2.89329e-13
3.18642e-13
1.32645e-12
1.10189e-10
4.26894e-13
1.53605e-13
9.75097e-14
6.19844e-10
3.18559e-10
1.35487e-10
3.40764e-10
2.98416e-10
1.71471e-10
1.15392e-13
7.62831e-11
3.69726e-10
4.08149e-10
2.02352e-10
4.05199e-12
5.01202e-14
6.4528e-14
5.77261e-14
1.11039e-14
2.26034e-14
9.01255e-14
1.01672e-12
6.34417e-13
2.7858e-14
1.7659e-10
5.65505e-10
2.96036e-13
2.32221e-11
8.06341e-11
7.18596e-14
6.21865e-11
1.10343e-12
9.89651e-11
1.08669e-11
1.15398e-13
7.86384e-11
3.05665e-14
1.24981e-13
3.4692e-13
1.38593e-10
3.88236e-10
2.49348e-10
2.74352e-10
2.86644e-11
6.93433e-14
1.22613e-13
3.78885e-11
4.54761e-14
6.96462e-11
6.67356e-10
1.44685e-13
2.75582e-13
5.25993e-13
2.20186e-10
4.24259e-10
2.75678e-10
1.3991e-13
9.93126e-11
4.19187e-11
4.8862e-14
1.63427e-10
6.26975e-11
9.3107e-13
3.38504e-10
3.55662e-14
1.19852e-10
5.45347e-10
5.77633e-11
6.12449e-10
3.65282e-10
2.94987e-11
5.01724e-10
2.44082e-10
1.429e-10
6.66711e-14
3.33294e-13
8.04575e-13
3.79926e-14
3.35792e-14
7.61182e-14
4.97248e-12
6.32248e-10
5.30891e-10
1.64646e-10
3.5068e-11
6.12126e-13
3.30607e-13
2.82043e-10
3.54049e-14
3.92614e-14
2.62708e-10
2.64293e-10
5.56236e-13
2.05111e-13
2.38041e-11
3.06829e-10
1.57432e-10
4.37251e-14
2.3142e-14
2.18657e-11
6.51699e-11
4.31641e-11
6.87103e-14
6.07094e-14
1.69689e-14
1.9241e-13
3.73676e-10
3.91947e-10
2.24747e-10
2.09733e-10
6.51915e-14
2.03164e-13
3.45803e-11
9.64149e-14
1.28093e-10
4.75432e-14
9.92127e-14
7.59956e-14
8.43845e-14
8.71214e-13
2.22739e-13
8.33834e-14
3.75964e-14
1.81576e-10
7.13792e-10
6.54609e-11
1.52384e-13
6.96166e-13
1.76852e-14
2.20257e-13
2.46542e-13
4.86926e-13
3.3413e-10
7.93517e-12
9.91676e-14
1.12706e-11
9.30899e-14
6.41562e-14
1.81316e-14
2.02716e-14
2.19808e-14
5.02814e-11
8.3076e-13
6.19436e-14
4.88872e-14
5.17023e-11
1.14898e-10
7.30147e-13
4.99784e-14
2.79958e-13
1.38692e-13
6.90668e-14
2.5408e-13
2.08757e-13
6.61058e-14
1.4815e-13
2.2536e-13
1.96042e-13
6.73666e-14
1.47416e-13
8.32103e-14
8.29165e-14
3.04005e-13
3.59019e-13
1.41923e-13
8.3191e-13
9.6399e-12
2.00104e-13
4.39799e-10
4.59087e-10
1.51446e-13
8.93404e-14
2.02519e-13
2.25325e-11
2.20688e-13
1.30402e-11
6.14616e-14
1.15725e-14
1.0978e-13
2.1909e-11
1.76222e-10
2.5638e-10
1.48374e-10
1.13221e-10
7.26884e-13
1.63169e-13
7.81072e-14
1.2237e-13
2.53706e-10
1.00774e-10
1.08911e-13
8.04752e-14
6.00319e-11
3.90963e-11
1.08105e-13
1.26139e-13
1.02852e-10
6.69837e-10
3.93338e-10
2.22999e-13
1.32571e-13
9.47197e-14
3.93203e-13
1.9579e-13
5.27727e-11
4.20386e-11
7.40669e-11
9.03534e-12
7.90498e-14
9.36767e-14
8.85522e-11
3.95386e-10
2.97408e-10
1.66032e-10
9.66022e-11
1.09072e-10
1.16572e-10
6.21755e-14
1.14448e-14
1.5787e-13
1.32036e-13
8.66834e-11
1.71332e-11
1.22146e-13
1.24373e-13
4.25747e-11
4.15308e-11
6.57754e-11
4.36363e-10
4.78467e-10
2.66191e-10
2.81363e-10
3.37957e-10
6.25646e-13
1.3174e-10
1.32686e-10
3.19994e-14
6.12941e-14
8.7304e-11
2.0698e-10
3.79383e-10
3.95075e-10
1.73551e-11
9.8575e-14
2.67941e-13
9.95471e-14
2.62872e-13
2.00093e-10
5.04102e-14
7.2827e-14
6.85868e-14
6.98179e-14
2.38922e-13
1.90627e-11
1.32628e-10
1.21218e-10
1.69897e-12
5.06126e-14
1.18067e-14
2.14664e-14
4.2833e-14
2.33194e-11
4.21019e-14
3.42219e-14
6.8086e-14
2.46622e-13
5.83079e-11
6.44283e-11
2.18029e-13
7.70719e-12
2.13104e-13
5.42137e-13
2.28192e-10
2.63911e-10
3.39217e-13
1.25767e-13
7.91929e-14
1.03416e-14
2.891e-14
6.4612e-14
1.99191e-13
1.12917e-12
1.3022e-13
9.60922e-14
1.72943e-13
1.8712e-13
6.67615e-14
2.87367e-14
3.55358e-14
6.63459e-14
1.42787e-13
1.23736e-13
8.15551e-14
1.25819e-13
4.26928e-11
1.48519e-10
9.73706e-11
5.3555e-14
3.85718e-14
3.67228e-13
4.62385e-11
1.25152e-10
1.70726e-10
4.33515e-13
6.87616e-14
3.37905e-13
2.40167e-13
4.58252e-13
2.91626e-11
1.05481e-13
3.77758e-14
7.56239e-14
2.33569e-10
5.06483e-10
2.84506e-10
4.72414e-13
1.71495e-13
2.53967e-10
2.40481e-10
1.15107e-13
5.44045e-14
1.13551e-13
1.60231e-13
5.06006e-11
9.17424e-11
4.32781e-13
1.12319e-13
1.11112e-13
9.05009e-14
8.54012e-14
2.3221e-13
3.52049e-11
7.6945e-11
7.39913e-13
3.16598e-13
6.32156e-11
1.57323e-10
6.04731e-12
6.27373e-14
7.9264e-14
1.68384e-13
1.49115e-13
3.76359e-14
3.84779e-14
2.13273e-14
4.66003e-13
2.17441e-13
1.10255e-13
3.12886e-11
1.26531e-10
2.05418e-10
1.02699e-10
1.69772e-13
2.07339e-13
3.59691e-13
1.57328e-10
2.44935e-13
1.7007e-13
2.43969e-10
3.26128e-10
3.51429e-10
2.64072e-10
2.3871e-10
1.06858e-10
4.7875e-11
4.01442e-11
8.8906e-11
1.36091e-10
1.74348e-11
1.98006e-13
8.29501e-14
7.47296e-14
8.21747e-14
1.32373e-12
1.83385e-11
6.81418e-11
4.22647e-12
2.07662e-14
2.79818e-14
2.68665e-13
1.66728e-12
1.14284e-10
2.15265e-10
1.20205e-10
1.20704e-10
1.49831e-10
1.15952e-10
3.86535e-11
2.4626e-13
1.66066e-13
9.43618e-13
2.93112e-14
3.72091e-13
6.801e-13
1.96676e-13
2.52137e-13
6.14391e-11
6.72509e-14
2.68559e-13
2.32696e-13
1.78716e-13
1.1325e-10
1.48181e-11
1.53077e-13
3.1151e-13
2.08533e-13
1.08265e-13
1.42097e-13
6.89359e-14
6.71353e-14
8.93707e-11
1.71149e-10
1.94675e-10
6.23382e-12
8.71206e-14
3.54813e-13
4.01971e-13
9.33026e-14
5.43949e-14
4.94767e-11
1.19596e-10
6.84235e-11
1.71116e-13
6.24307e-14
8.03779e-14
1.94125e-13
3.63428e-13
5.21612e-13
2.10593e-12
2.15618e-13
1.26378e-13
1.64713e-12
3.75257e-10
6.34792e-10
4.12137e-10
2.97248e-12
6.83555e-13
1.36387e-10
8.0069e-11
2.13298e-13
1.2648e-13
2.02124e-13
3.40509e-13
1.97591e-13
6.51712e-13
4.3091e-11
2.90372e-11
1.31359e-10
1.09311e-10
3.91969e-11
5.35277e-14
4.09886e-14
3.88165e-14
6.53226e-14
7.12055e-14
2.06774e-13
2.60944e-11
6.45852e-13
7.01547e-14
5.0981e-14
6.83241e-14
5.03617e-14
1.00019e-13
9.17547e-11
2.56885e-10
1.3004e-10
5.08481e-12
2.51236e-11
5.66153e-11
5.98891e-11
1.05865e-10
1.05462e-10
5.39987e-11
1.41834e-10
2.86082e-10
2.29004e-10
1.77955e-13
1.18299e-13
4.40181e-12
1.10629e-10
8.89649e-13
3.8763e-13
1.14364e-12
3.09688e-11
1.39352e-10
7.13225e-11
7.19468e-14
1.89249e-14
8.71046e-15
2.97642e-14
3.12161e-14
1.19265e-14
5.7851e-14
1.37074e-11
2.37857e-13
6.38399e-13
8.69738e-12
9.38588e-11
9.30725e-11
2.55634e-11
4.16614e-11
1.47698e-10
2.57426e-10
1.44675e-10
9.25391e-14
3.99236e-14
7.21567e-14
5.6787e-14
4.3342e-14
1.65234e-13
1.27965e-13
4.51055e-14
4.33976e-14
1.00128e-14
5.13613e-14
3.74521e-13
3.40564e-11
1.01686e-12
7.59594e-14
1.46331e-13
9.8574e-13
1.39589e-10
1.18362e-10
1.87104e-11
4.52172e-11
9.71255e-11
1.27947e-10
2.11073e-10
1.05449e-10
1.02099e-13
2.02785e-13
6.36007e-14
4.06491e-11
2.91568e-11
8.76997e-14
6.57583e-14
4.18257e-14
8.88598e-14
1.50749e-13
9.64686e-14
7.61011e-14
1.54452e-14
3.14258e-14
1.62471e-13
2.98356e-13
4.58195e-13
3.1343e-12
8.71779e-14
5.32638e-14
1.11467e-13
5.0583e-14
2.31739e-14
1.11074e-13
2.649e-13
3.79641e-13
1.33843e-13
6.50976e-14
8.67236e-14
1.07409e-11
6.0543e-13
2.99306e-12
1.36125e-10
9.31463e-11
1.52218e-13
3.65021e-13
1.207e-10
6.36547e-11
1.50776e-13
1.19518e-13
1.55382e-13
3.0383e-13
8.69764e-14
6.02643e-14
4.69835e-13
2.39424e-13
5.33802e-13
1.92855e-13
1.59949e-13
5.0218e-11
8.65421e-11
1.04388e-10
6.89891e-11
7.87903e-11
8.85763e-11
2.96256e-13
5.0065e-14
9.10434e-14
1.12617e-13
7.64126e-14
1.46682e-11
2.39421e-11
2.02177e-11
7.16274e-11
9.65713e-11
5.92897e-11
1.55996e-11
2.8065e-12
2.52255e-13
5.35174e-11
1.48239e-12
1.14222e-13
1.87891e-13
5.94791e-13
8.03951e-11
1.53437e-10
4.17233e-11
1.43562e-13
2.53198e-13
4.08971e-13
3.46648e-13
1.58964e-10
4.92122e-13
9.88283e-14
9.40451e-14
1.6189e-14
3.06176e-14
3.19325e-14
1.47441e-14
9.54393e-14
3.63929e-13
1.25608e-12
4.82939e-13
3.56763e-13
6.95618e-13
1.64161e-13
1.10443e-13
2.44018e-13
5.63224e-13
3.13097e-13
1.51014e-12
1.31981e-11
1.0285e-13
1.92309e-13
3.02903e-13
1.97985e-13
5.35783e-13
1.01016e-11
7.26366e-14
7.71728e-14
1.8347e-13
1.36352e-13
5.1378e-13
4.50574e-13
1.47653e-13
1.50253e-13
2.03317e-13
1.11075e-11
8.94908e-11
1.42648e-10
1.58389e-10
2.00045e-13
1.17999e-12
4.3755e-11
6.1498e-11
1.90459e-13
5.11683e-13
3.61053e-11
1.11393e-12
1.0659e-12
7.7481e-13
2.85821e-12
7.87885e-13
8.01245e-13
1.80015e-11
2.11206e-11
4.97027e-12
2.32377e-12
4.07319e-11
4.4308e-11
1.10067e-11
1.83392e-11
5.59014e-14
7.054e-14
1.73997e-13
6.79224e-13
1.91809e-12
7.2635e-11