/*--------------------------------*- C++ -*----------------------------------*\
  =========                 |
  \\      /  F ield         | OpenFOAM: The Open Source CFD Toolbox
   \\    /   O peration     | Website:  https://openfoam.org
    \\  /    A nd           | Version:  10
     \\/     M anipulation  |
\*---------------------------------------------------------------------------*/
FoamFile
{
    format      ascii;
    class       surfaceScalarField;
    location    "1";
    object      phi;
}
// * * * * * * * * * * * * * * * * * * * * * * * * * * * * * * * * * * * * * //

dimensions      [0 3 -1 0 0 0 0];

internalField   nonuniform List<scalar> 
300480
(
3.5146e-05
1.79255e-07
3.01091e-05
3.87171e-05
2.35767e-05
1.06627e-05
3.33375e-05
2.80065e-05
2.19572e-05
4.55087e-05
-9.00992e-06
3.47045e-05
5.08368e-05
-1.20237e-05
3.65386e-05
3.59246e-05
1.77745e-05
2.16361e-05
3.95396e-05
1.42642e-05
2.26917e-05
3.59188e-05
2.79682e-05
3.23927e-05
3.74898e-05
-8.87216e-06
3.37505e-05
4.5065e-05
-8.13604e-06
1.95327e-05
3.87338e-05
3.00946e-05
-2.28738e-06
4.21276e-05
5.10269e-06
2.69118e-05
3.82406e-05
1.39321e-05
3.48057e-05
3.07087e-05
3.77786e-06
4.00965e-05
3.29112e-05
-7.7086e-06
2.68475e-05
4.29329e-05
1.64949e-05
-8.38933e-06
4.50385e-05
7.53115e-06
3.14303e-05
3.97929e-05
1.03363e-05
3.55445e-05
3.45613e-05
3.68761e-06
3.07963e-05
3.68342e-05
7.13965e-06
1.80146e-05
4.34225e-05
-2.33716e-06
2.71441e-05
4.66027e-05
6.39981e-06
2.54132e-05
3.87284e-05
1.81049e-05
3.47838e-05
2.87686e-05
8.84569e-06
3.64847e-05
4.59133e-05
-1.91611e-05
2.57205e-05
5.06895e-05
2.86371e-06
2.30869e-05
4.03841e-05
1.8509e-05
2.37798e-05
3.92083e-05
1.56523e-05
3.11081e-05
3.21964e-05
6.64764e-06
3.06399e-05
2.94006e-05
-2.58065e-07
2.54251e-05
3.4176e-05
6.48075e-06
2.56425e-05
4.05934e-05
1.57646e-05
2.30507e-05
4.0997e-05
4.99607e-06
3.02128e-05
4.20436e-05
-7.20011e-07
3.49774e-05
3.74517e-05
3.65275e-07
2.32774e-05
3.61213e-05
1.03273e-05
1.80295e-05
4.53829e-05
6.32211e-06
2.5848e-05
3.84914e-05
1.40496e-05
3.45357e-05
3.86261e-05
-9.59469e-06
3.65253e-05
9.68108e-06
6.82762e-07
4.37942e-05
-1.45895e-05
9.59899e-06
4.92661e-05
4.73373e-05
-3.02203e-05
5.14099e-05
5.48967e-05
-1.56422e-05
4.32693e-05
-8.93136e-06
3.32071e-05
4.12485e-05
1.03639e-05
-2.53942e-05
5.24259e-05
7.29115e-06
-1.07025e-05
5.88874e-05
2.89743e-05
-1.28422e-05
5.5362e-05
6.30365e-05
-6.59399e-06
5.01167e-05
-3.92229e-05
1.5209e-05
4.58001e-05
-6.82897e-06
1.63597e-06
4.31283e-05
4.3667e-05
-3.41475e-05
5.28219e-05
8.41284e-08
2.19159e-06
4.67411e-05
8.48896e-06
1.13098e-05
3.52896e-05
-3.6508e-06
3.04163e-05
2.65044e-05
-1.46569e-05
-8.94845e-06
5.28174e-05
2.29208e-05
-5.14365e-05
6.276e-05
9.95243e-06
-1.30771e-05
4.46044e-05
3.08571e-05
-9.33373e-06
3.72831e-05
-1.63561e-05
1.71588e-05
4.91146e-05
1.1015e-05
-3.28475e-05
7.85276e-05
-3.45728e-05
-1.65696e-05
8.08977e-05
2.81257e-05
-3.14046e-05
5.60711e-05
6.75418e-05
-3.47155e-06
3.83422e-05
1.91824e-05
4.04298e-05
3.70241e-05
-1.37486e-05
-5.76163e-06
4.42852e-05
7.8169e-06
-4.77051e-05
6.42823e-05
3.16466e-05
-2.37838e-05
5.75009e-05
5.47597e-05
-2.0276e-05
3.72698e-05
-1.56804e-06
1.16844e-05
4.08475e-05
-9.9456e-06
-6.17002e-06
5.27801e-05
8.92537e-06
-1.18671e-06
6.36855e-05
3.16336e-05
-2.29928e-05
6.11882e-05
1.71428e-05
3.01538e-06
5.11199e-05
-1.84109e-05
1.55713e-05
5.39954e-05
-1.27233e-05
-1.22617e-05
6.6885e-05
-3.96295e-06
-4.5143e-06
7.99927e-05
2.27573e-05
-2.10444e-05
5.87075e-05
5.34907e-05
1.73556e-05
4.12729e-05
-2.46632e-05
2.30284e-05
-1.52643e-05
-9.32352e-06
4.80203e-05
1.15596e-05
-2.95123e-05
5.46909e-05
5.72569e-05
-1.16156e-05
5.44852e-05
7.50064e-05
-3.74719e-06
1.54045e-05
3.73478e-05
1.616e-05
1.42962e-05
5.21878e-05
-3.11045e-05
5.11403e-05
-1.11292e-05
-1.42536e-05
5.8944e-05
2.33367e-05
2.55231e-05
6.47392e-05
6.06664e-05
4.07733e-05
7.04566e-05
-7.03904e-05
2.46253e-05
6.46336e-05
-7.44074e-06
3.22141e-05
5.60634e-05
2.92174e-05
-2.58065e-05
6.05327e-05
-2.42039e-05
2.46408e-05
5.70687e-05
-1.61679e-06
2.30276e-05
4.13399e-05
6.30157e-06
6.70705e-06
4.26162e-05
-1.78755e-06
-2.09889e-05
6.19297e-05
3.98699e-05
-4.53058e-05
6.11456e-05
-2.38336e-05
5.11031e-06
5.80401e-05
2.99549e-05
1.06585e-05
4.71001e-05
5.02104e-06
4.66057e-06
4.2704e-05
5.07787e-05
-3.07671e-05
4.67568e-05
1.97215e-05
-5.78879e-05
6.10288e-05
2.53646e-05
4.69275e-06
5.59168e-05
5.96676e-05
4.44198e-05
4.50444e-05
4.44521e-05
1.58262e-05
1.35293e-05
3.20909e-05
-1.8334e-05
1.77704e-05
-1.77069e-05
3.74618e-06
5.72076e-05
2.22203e-05
-4.08103e-05
5.23859e-05
7.24819e-05
2.54833e-05
4.42901e-05
-5.10014e-06
1.59955e-05
5.45725e-05
1.14144e-06
-1.31169e-05
6.33417e-05
1.77164e-05
-1.13041e-05
5.61159e-05
1.69631e-05
1.05584e-05
5.98452e-05
-5.19755e-05
3.91319e-05
6.31397e-05
-2.38173e-05
1.04521e-05
7.27621e-05
1.86585e-05
-1.14184e-05
7.11381e-05
-1.61199e-05
1.14143e-05
5.98882e-05
3.93815e-05
2.3826e-05
5.78033e-05
6.51785e-05
2.10583e-05
5.91373e-05
-4.23993e-05
3.37538e-05
1.51901e-05
-7.34642e-06
6.35091e-05
2.93042e-05
-5.47987e-05
7.79415e-05
1.21876e-05
2.37784e-06
7.0695e-05
4.31431e-05
1.52088e-05
3.52774e-05
5.437e-05
-3.26511e-06
4.25612e-05
4.32632e-05
-3.78131e-08
6.19376e-05
-2.87821e-05
-4.99746e-06
6.59496e-05
-2.85008e-05
4.63448e-05
6.35588e-05
1.84629e-05
5.68581e-05
4.2912e-05
2.80847e-06
-2.56005e-05
3.30369e-05
6.56749e-05
-9.40994e-05
6.05869e-05
3.316e-05
-6.08054e-05
7.83818e-05
-7.92061e-05
2.88538e-05
7.6261e-05
-1.56755e-05
-4.33721e-06
3.86009e-05
3.9097e-05
-1.76405e-05
5.17594e-05
6.60632e-06
-3.60685e-05
6.0188e-05
6.80153e-05
-4.10192e-05
6.55375e-05
-6.84278e-05
2.56041e-05
7.50535e-05
3.12145e-06
3.67742e-05
4.12412e-05
5.67013e-05
-3.44105e-06
1.49523e-05
8.50001e-05
-9.92132e-06
9.62705e-06
8.12724e-05
-2.70676e-05
5.19003e-05
-0.000106315
3.51466e-05
7.02573e-05
2.85309e-06
4.55528e-05
5.25766e-05
6.04918e-05
-1.05114e-05
3.36984e-05
5.88287e-05
-8.32362e-05
4.70085e-05
-9.27553e-05
5.49593e-05
5.69883e-05
-2.33578e-05
-1.23443e-05
4.58941e-05
3.97363e-05
4.57776e-05
3.98419e-05
2.44309e-05
-1.19631e-05
4.9197e-05
1.6025e-06
-7.60145e-06
6.5647e-05
2.4124e-05
-3.02198e-05
8.74791e-05
-4.32837e-05
1.89496e-05
8.22778e-05
-0.000115024
4.40015e-05
3.21602e-05
3.22018e-05
-3.6961e-05
3.22639e-05
7.40816e-05
-2.71292e-05
2.98994e-05
-3.18972e-05
-4.08451e-05
4.69482e-05
8.69948e-06
3.22152e-05
7.2373e-05
-2.97698e-05
3.0147e-05
4.28641e-05
-1.65772e-05
-2.09548e-05
0.000117589
-7.35366e-05
7.14333e-05
4.43796e-06
-2.72378e-05
8.86188e-05
-5.72044e-05
4.06296e-05
8.15552e-05
1.59332e-05
2.75604e-05
5.56087e-05
4.7073e-05
1.58313e-05
3.79973e-05
6.55209e-05
-4.02363e-05
4.54519e-05
-2.22352e-05
-2.0599e-05
8.93633e-05
-9.45789e-05
7.18503e-06
0.000113044
-8.72312e-05
-1.56333e-05
3.66602e-05
0.000138868
-1.47458e-05
6.77435e-06
0.000100806
-5.3586e-05
6.36766e-05
-3.01766e-05
2.49702e-05
8.88001e-05
-8.71664e-05
-2.56679e-05
8.99216e-05
-6.19352e-05
-1.63098e-05
6.25748e-05
0.000106123
1.24549e-05
6.08057e-05
2.58098e-05
-7.02423e-05
6.94442e-05
5.58777e-05
-2.26322e-05
0.00010033
-0.000103622
2.60028e-05
0.000101376
-5.85781e-06
4.70376e-05
6.8838e-05
3.31949e-05
2.45841e-05
4.88712e-05
3.82492e-05
-1.92707e-05
8.4939e-05
5.45684e-05
-2.19503e-05
0.000109844
-0.000168754
1.3182e-05
8.89718e-05
3.56973e-05
-1.39574e-05
6.52238e-05
9.99901e-05
-1.66228e-05
3.97516e-05
0.000109027
-0.000101396
7.19717e-05
-0.000113133
-2.36778e-05
0.000101562
-0.000111918
3.53243e-05
8.75854e-05
-2.42816e-05
3.66472e-06
6.73844e-05
6.17171e-05
-2.44054e-06
5.30827e-05
3.37978e-05
-4.17662e-05
5.40725e-05
5.31572e-05
-7.952e-05
9.16749e-05
-9.50636e-05
-3.4648e-05
0.000106904
-2.62766e-05
2.7094e-05
3.94586e-05
1.90906e-05
-9.06395e-06
2.20835e-06
0.000106034
-6.50881e-05
4.27494e-05
-2.51389e-05
-7.08115e-05
7.64039e-05
-2.86294e-05
-1.00449e-05
8.10839e-05
-7.05913e-05
3.70661e-05
5.06182e-05
-1.7918e-07
-2.40742e-05
0.000118258
3.10141e-06
5.68913e-05
-3.2624e-05
-1.83521e-05
0.000133778
-0.000138501
4.03397e-05
0.00011955
1.11914e-05
1.51001e-05
6.35436e-05
8.56879e-05
-1.26888e-05
1.76821e-05
9.83178e-05
-3.13404e-05
2.7073e-05
-4.82603e-05
-4.78829e-05
0.000123016
-0.00015918
-4.237e-05
0.00014679
-0.00012834
5.78144e-06
6.96587e-05
0.000189435
-1.62711e-05
5.57406e-05
0.000118538
-6.07845e-05
8.36464e-05
-0.000165821
-1.90891e-05
0.000112931
-9.75124e-05
-5.29049e-05
0.0001151
-3.20966e-05
1.75265e-05
6.36237e-05
0.000148704
-3.15389e-05
8.85207e-06
7.26728e-05
-8.90856e-05
3.81078e-05
3.1064e-05
-1.21786e-05
0.000128119
-0.000189126
9.99886e-06
0.000124693
3.61934e-05
2.45315e-05
7.09735e-05
8.62131e-05
-2.31511e-05
3.61125e-05
4.67049e-05
-0.000100159
4.6256e-05
6.82711e-05
-4.82182e-05
0.000101615
-0.000172964
2.08443e-05
0.000123984
-1.72162e-05
-3.85833e-05
6.59918e-05
0.000134509
3.04508e-06
3.53266e-05
0.000163039
-2.71824e-05
7.3964e-05
-9.98099e-05
-3.10343e-05
0.000140504
-0.000226374
4.15616e-05
0.000133136
-9.67426e-05
1.19038e-05
7.11629e-05
0.000140595
6.80451e-06
2.66164e-05
4.67448e-05
-6.92621e-05
3.50766e-05
4.97483e-05
-4.24344e-05
8.28113e-05
-0.000155175
-3.73244e-05
0.000111201
2.66995e-05
6.24533e-05
6.26501e-05
2.56385e-05
-3.42817e-05
5.38672e-06
0.000138679
-5.73625e-05
2.37757e-05
1.64618e-05
-7.78611e-06
8.77808e-05
-0.000105593
1.1206e-05
0.000103931
-3.59779e-05
-4.60416e-06
6.89685e-05
5.69084e-05
-3.67591e-05
0.000119197
-3.40925e-06
2.44348e-05
9.69504e-06
-1.86007e-05
9.282e-05
-0.000171131
3.0279e-05
0.00015189
-1.22945e-06
3.28479e-05
9.97703e-05
0.000130614
-1.76542e-05
4.49992e-05
6.96091e-05
-1.24899e-05
6.59825e-05
-7.35806e-05
-7.54744e-05
9.79612e-05
-0.000102595
-3.93091e-05
0.000133594
-4.7193e-05
7.26475e-05
0.000108207
0.000137651
-2.72339e-05
5.28711e-05
0.000194549
-0.00010458
8.66547e-05
-0.000195112
-3.74266e-05
0.000102674
-4.03661e-05
-2.77387e-05
0.000106843
7.2098e-05
4.74798e-05
7.84215e-05
0.000166963
-5.86357e-05
3.16725e-05
0.000132928
-4.15885e-05
7.6652e-05
-1.25898e-06
1.0631e-05
0.000131941
-0.000162094
-1.13482e-05
0.000109544
9.71726e-05
3.91257e-05
6.98614e-05
0.000150514
-7.50903e-06
3.1441e-05
0.000118653
-4.35118e-05
7.73015e-06
8.82821e-05
3.16509e-06
3.04808e-05
-0.000112444
9.34963e-06
0.000109458
-4.98488e-05
4.55272e-05
8.11022e-05
0.000121436
-1.00853e-05
4.37029e-05
0.000189771
1.14527e-07
4.90682e-05
-8.70684e-05
-7.91248e-05
9.31818e-05
-0.000167807
3.50445e-05
0.000139931
-0.000129136
8.66681e-05
0.000125827
0.000150092
-1.59188e-05
8.12331e-05
-2.43008e-05
-5.33338e-05
5.09154e-05
4.92799e-05
1.34438e-05
9.53854e-05
-0.000111296
4.2244e-06
0.000143883
-1.63947e-05
6.71353e-05
8.01811e-05
0.000108602
-5.92491e-05
2.23016e-05
0.000148546
-3.06366e-05
3.73134e-05
8.55925e-06
1.66829e-05
0.000100319
-0.00011652
1.30525e-05
0.000141586
-9.19394e-06
5.22147e-07
0.000112679
0.000122063
-9.1551e-06
0.000113244
-5.14474e-05
-1.40682e-05
7.06697e-05
-6.78879e-05
-1.28889e-05
-5.78375e-05
-1.47805e-05
8.26483e-05
3.30861e-06
5.13709e-05
9.59342e-05
0.000176849
-6.38092e-05
4.59085e-05
6.30251e-05
-7.73376e-05
1.81077e-05
-3.9073e-06
-9.43247e-05
5.63324e-06
4.37428e-06
2.5704e-05
7.0823e-05
3.55061e-05
-4.66438e-06
7.83485e-05
0.000183136
-0.000102172
1.03755e-05
0.000208962
-4.76952e-05
8.61966e-06
-0.000143246
-9.72608e-06
1.79134e-05
6.46843e-05
-2.45081e-05
3.96388e-05
8.90505e-05
5.28074e-05
4.72863e-05
0.000201733
-8.71866e-05
3.43467e-05
0.000161514
-4.23122e-05
6.79771e-05
-3.97649e-05
-6.12324e-05
5.95181e-05
-6.77735e-05
-1.68355e-05
6.54525e-05
0.000129541
4.76745e-05
6.20722e-05
0.00015077
-6.74734e-05
3.45197e-05
0.00014202
-4.28503e-05
3.6258e-05
6.29905e-05
-6.4017e-05
5.56879e-06
-1.9387e-05
2.23858e-05
7.56628e-05
-3.48312e-05
4.38538e-05
9.63968e-05
0.000109739
-0.000106969
5.01565e-05
0.000178782
-3.88751e-05
2.59778e-05
-7.23833e-05
-7.45509e-05
2.04352e-05
-6.2962e-05
3.69515e-05
9.0151e-05
-7.37996e-05
4.13597e-05
0.000118754
0.000159719
-0.000111824
6.62278e-05
3.8436e-05
-0.000110321
4.57851e-05
2.33898e-05
-9.00029e-05
8.60796e-05
-8.31207e-05
4.75624e-05
0.000117335
-3.88567e-06
5.01985e-06
0.00010257
0.000198174
-8.08531e-05
5.30604e-05
0.000106431
-6.74792e-05
6.31565e-05
1.89117e-05
-7.05956e-05
6.72625e-05
-9.74563e-05
-1.80929e-05
7.1577e-05
5.91695e-05
3.63821e-05
0.000101017
0.000155562
-7.61398e-05
7.75155e-05
-0.000129635
7.83687e-06
0.00010699
-2.04104e-05
-1.83706e-05
1.1745e-05
7.48162e-06
2.88252e-05
-3.0736e-05
1.62663e-05
6.59651e-05
0.000179189
-8.32294e-05
4.85582e-05
0.000112092
-0.000107515
4.36729e-06
6.4156e-05
-2.34408e-05
-3.26146e-05
6.5541e-05
3.17923e-05
-1.48978e-05
3.67187e-05
-2.2493e-06
3.47954e-05
0.00016932
-3.82599e-05
3.39781e-05
0.000151536
-6.81046e-05
-1.33004e-05
-4.32393e-05
-3.95122e-05
1.04887e-05
7.84922e-05
1.04574e-05
2.69082e-05
6.67491e-05
4.7136e-05
2.4166e-05
0.000207032
-2.97222e-06
6.00564e-05
9.92521e-05
-5.43087e-05
2.55556e-05
-1.01734e-05
-4.13101e-05
-1.32647e-05
5.26832e-05
-1.82563e-05
5.94536e-05
5.34701e-05
1.84896e-05
7.83011e-05
0.00016578
-9.14563e-05
5.89036e-05
0.000125954
-9.45541e-05
6.62377e-05
5.82515e-05
-7.62993e-05
2.53949e-05
5.35938e-05
3.08548e-06
7.13978e-06
-1.02664e-05
1.35088e-05
4.01247e-05
0.000117789
-7.57353e-05
4.72626e-05
0.000134222
-7.43565e-05
1.5324e-05
-2.91594e-05
-3.49676e-05
-1.43088e-05
-1.29693e-05
2.02017e-05
3.11583e-06
-2.99234e-06
-2.83384e-05
1.83414e-05
0.000194569
-6.56463e-05
3.49993e-05
5.87617e-05
-4.37877e-05
4.68153e-05
1.70555e-05
-8.05e-05
1.68966e-05
-1.14963e-05
8.14464e-06
1.9742e-05
6.24513e-05
-5.09769e-05
6.36536e-05
0.000210611
-7.13184e-06
7.57935e-05
9.3224e-05
-6.81489e-05
6.2611e-05
2.83909e-05
-8.45192e-05
2.44562e-05
-6.69334e-06
3.90862e-06
2.13507e-05
6.39006e-05
2.78597e-05
4.16422e-05
0.000146578
-0.000102869
0.000112309
-0.000112463
5.32174e-05
8.96293e-05
-2.87053e-05
5.38136e-05
2.39688e-05
2.24378e-06
3.30539e-05
-4.31392e-06
-1.17744e-06
2.0532e-05
0.000186218
-1.59456e-05
3.51838e-05
0.000118174
-3.92996e-05
4.56868e-05
6.42527e-05
-1.46423e-05
4.33929e-05
7.21463e-05
2.54323e-05
3.1488e-05
4.70172e-05
1.63015e-05
5.55597e-05
0.000112813
2.01439e-05
6.90054e-05
0.000124973
-5.65113e-05
5.01263e-05
1.5979e-05
-5.22474e-05
5.44045e-05
8.36182e-05
1.79763e-05
4.48915e-05
6.42315e-05
-5.19327e-06
4.65974e-05
0.000182294
1.89803e-05
7.94876e-05
6.10284e-05
-4.27722e-05
2.79626e-05
5.68574e-05
-2.88956e-05
-5.91865e-06
9.17531e-05
-2.48581e-07
3.43768e-05
7.82148e-06
-1.67227e-05
4.75627e-05
0.000169541
-3.70196e-05
6.21704e-05
0.000103434
-6.81879e-05
6.2763e-05
4.15582e-05
-3.89117e-05
6.57495e-05
6.11497e-05
-2.39721e-06
1.12101e-05
6.98016e-05
2.50258e-05
2.3754e-05
9.42293e-05
-9.79987e-06
7.3827e-05
8.12212e-05
-6.99118e-05
5.89685e-05
-8.61903e-06
-5.27518e-05
1.15202e-05
6.0411e-05
7.40752e-06
-3.25656e-06
4.22976e-05
3.35882e-06
8.06027e-06
0.000142463
8.79311e-06
3.25381e-05
6.63259e-05
-1.43361e-05
6.49576e-05
-3.20378e-06
-3.97713e-05
1.75158e-05
5.16461e-05
-2.82815e-05
-6.38633e-06
9.14424e-05
-1.04868e-05
3.73814e-05
0.000170534
2.02737e-05
7.05625e-05
8.07659e-05
-7.08323e-05
5.09266e-05
3.63584e-05
-6.94109e-05
3.05946e-05
5.14409e-05
1.04962e-05
2.19703e-05
4.86875e-05
2.41263e-05
6.26791e-06
0.000152529
-9.67314e-06
0.000107483
-1.94093e-05
7.28647e-05
5.68512e-05
-1.24224e-05
5.75799e-05
4.3077e-05
-1.51383e-05
4.1966e-05
1.17189e-05
-1.34107e-05
4.85096e-05
0.000158771
1.48463e-06
6.0374e-05
9.24166e-05
-2.849e-05
6.42057e-05
3.62093e-05
1.23713e-06
6.33933e-05
6.1955e-05
9.44841e-07
6.48277e-05
4.06721e-05
-1.01282e-05
7.14208e-05
0.000106148
-1.94912e-05
7.16586e-05
0.00011426
-2.84449e-05
6.38129e-05
2.34746e-05
-2.13067e-05
7.17389e-05
5.56737e-05
-5.89121e-06
6.85301e-05
4.79434e-05
1.50293e-05
6.45139e-05
0.000167158
-2.18919e-06
8.33888e-05
4.17744e-05
-6.94651e-06
7.74153e-05
4.24121e-05
-9.91199e-06
6.56529e-05
0.00010882
3.44373e-07
6.09762e-05
1.73564e-05
5.07332e-06
4.94424e-05
0.000152564
-1.99067e-05
7.33794e-05
5.39876e-05
-3.14102e-05
7.79073e-05
1.66582e-05
-1.69552e-05
7.59407e-05
3.62299e-05
3.28685e-05
6.42562e-05
7.20447e-05
2.40514e-06
6.89585e-05
7.19675e-05
-6.02359e-06
8.06973e-05
5.87856e-05
-4.86231e-05
6.71522e-05
1.16549e-05
-4.84918e-06
6.12909e-05
6.63462e-05
-3.65104e-06
5.98432e-05
5.44438e-05
8.13891e-07
6.51669e-05
0.000108515
-5.49425e-06
6.45082e-05
9.78034e-05
-1.26594e-05
7.42359e-05
-1.97296e-05
-2.32586e-05
7.0152e-05
4.49627e-05
1.64094e-05
5.55223e-05
6.46983e-05
2.43556e-05
6.35744e-05
0.000146542
2.14719e-06
6.91615e-05
5.33998e-05
-1.82705e-05
7.71913e-05
2.06199e-05
-2.06126e-05
6.08063e-05
6.24584e-05
2.43931e-05
5.08028e-05
4.58042e-05
6.15317e-06
5.83772e-05
0.000131519
1.35279e-05
7.78036e-05
-1.30814e-05
8.65042e-05
4.53988e-05
-2.39352e-06
8.77603e-05
3.68868e-05
2.17642e-06
7.94566e-05
1.5503e-05
3.17689e-06
8.84255e-05
0.000119469
-2.33461e-06
8.70867e-05
7.69423e-05
-1.46908e-05
8.59442e-05
2.05005e-05
-1.6683e-06
8.92937e-05
4.66734e-05
1.14975e-05
8.50893e-05
2.59376e-05
6.64647e-06
8.43429e-05
8.28899e-05
3.21565e-06
8.47445e-05
8.69636e-05
-2.61639e-06
8.2624e-05
1.86859e-05
-9.33375e-06
8.81903e-05
2.06743e-05
1.4274e-05
8.01836e-05
5.43994e-05
-1.32868e-06
8.80068e-05
0.000133154
1.75515e-05
9.01899e-05
2.82827e-05
-7.44387e-06
8.68524e-05
4.09589e-05
8.48679e-06
8.42169e-05
9.94638e-05
-7.79725e-06
8.50757e-05
2.18175e-05
-9.39976e-06
8.44556e-05
0.000114386
-3.06584e-06
8.47816e-05
2.53022e-05
-8.09371e-06
8.91366e-05
9.54258e-06
-7.12371e-06
8.28208e-05
4.73801e-05
1.16914e-05
8.84151e-05
5.74016e-05
1.16233e-05
8.50298e-05
6.42436e-05
-3.95426e-06
8.57873e-05
4.53478e-05
-3.95412e-06
8.58375e-05
1.61017e-05
2.33252e-06
8.65167e-05
5.39556e-05
1.09556e-05
8.26162e-05
5.82298e-05
-1.42901e-05
8.57771e-05
8.19117e-05
-2.73396e-06
8.63221e-05
9.43142e-05
-8.93197e-06
8.40578e-05
-2.4118e-05
-1.15329e-05
8.73735e-05
2.97399e-05
6.23278e-06
7.6876e-05
6.30973e-05
-7.40622e-06
8.49538e-05
0.000114369
1.57554e-06
8.48634e-05
3.73891e-05
4.11063e-06
8.65546e-05
1.50406e-05
-1.3706e-06
8.22544e-05
8.2177e-05
-3.3892e-06
8.3667e-05
3.65011e-05
2.53279e-06
7.83943e-05
0.000107077
-3.55073e-06
6.02711e-05
-1.91865e-05
9.54664e-05
3.81595e-05
3.67426e-06
9.81419e-05
3.30248e-05
8.86535e-06
8.84808e-05
2.73757e-05
1.34994e-06
9.31505e-05
9.46649e-05
1.83415e-05
0.000100225
4.97428e-05
1.1328e-05
9.65568e-05
1.90526e-05
9.59589e-06
9.81805e-05
4.15143e-05
8.40517e-06
9.1476e-05
3.03141e-05
1.25976e-05
9.09576e-05
7.24519e-05
1.49115e-05
9.60297e-05
6.13972e-05
2.2574e-05
9.69258e-05
1.47207e-05
5.58561e-06
9.16511e-05
1.99413e-05
1.38905e-05
9.49696e-05
3.93019e-05
8.23732e-06
9.73608e-05
0.000113126
1.37132e-05
9.3445e-05
2.99181e-05
1.36618e-05
9.30177e-05
3.76109e-05
1.65749e-05
9.89159e-05
7.14067e-05
1.6238e-05
9.46793e-05
1.97116e-05
1.12695e-05
9.78996e-05
8.48434e-05
1.89567e-05
9.43928e-05
1.51178e-05
1.02807e-05
9.34267e-05
9.05177e-06
6.78583e-06
9.97295e-05
2.62624e-05
2.38619e-05
9.29615e-05
5.57044e-05
1.13708e-05
9.55239e-05
4.92169e-05
1.21045e-05
9.34057e-05
4.47273e-05
-2.36206e-06
9.52641e-05
1.52278e-05
3.67596e-06
9.31097e-05
5.26857e-05
7.87575e-06
9.69466e-05
4.26559e-05
1.36136e-05
9.25216e-05
7.21613e-05
1.29849e-05
9.70892e-05
6.84369e-05
5.05201e-06
9.45562e-05
-2.45751e-05
2.85735e-06
9.27927e-05
2.55594e-05
2.06481e-05
9.69842e-05
3.14966e-05
1.71021e-05
9.67745e-05
8.88684e-05
1.48742e-05
9.14882e-05
3.47384e-05
6.28867e-06
8.99757e-05
2.1752e-05
4.93686e-06
0.000102264
5.12737e-05
2.24317e-05
9.30452e-05
4.41838e-05
8.14707e-06
9.41228e-05
7.60005e-05
2.29994e-05
4.40119e-05
7.1497e-06
0.00010285
3.35763e-05
5.0868e-06
0.000102393
2.76703e-05
7.31088e-06
0.000101479
1.91559e-05
4.37224e-06
0.000107509
6.86104e-05
9.39409e-06
0.000101786
5.11067e-05
3.57627e-06
0.000102013
2.20514e-05
6.23025e-06
0.000105007
3.10819e-05
1.23473e-05
0.000102242
2.26108e-05
1.11747e-05
0.000103341
5.21662e-05
1.09685e-05
0.000104745
4.92818e-05
1.02441e-05
0.000103192
1.73359e-05
6.99537e-07
0.000102882
1.50356e-05
1.18604e-05
0.000100119
3.62487e-05
9.04602e-07
0.000106909
8.48054e-05
1.78642e-05
0.000102805
2.62054e-05
6.16218e-06
0.000105932
3.20823e-05
8.94623e-06
0.000105736
6.14312e-05
1.32267e-05
0.000101216
2.15385e-05
-3.1173e-07
0.000106056
6.33834e-05
1.44759e-05
0.000102091
1.86831e-05
2.14011e-06
0.000104005
1.20051e-05
3.47103e-06
0.000101045
3.16658e-05
6.69769e-06
0.000103781
4.04595e-05
1.04509e-05
0.000102168
4.11813e-05
1.46864e-05
0.000103683
3.38249e-05
1.10535e-05
0.000102912
2.04241e-05
5.788e-06
0.000105597
3.80071e-05
1.30244e-05
0.000101641
3.95621e-05
4.52844e-06
0.000105387
4.81267e-05
1.07683e-05
0.000106055
5.73894e-05
7.4541e-06
0.000101248
-2.74694e-06
9.60442e-07
0.000105932
2.14166e-05
5.81898e-06
9.97495e-05
3.68607e-05
5.24551e-06
0.000103553
6.44187e-05
1.08455e-05
0.000102198
2.73459e-05
1.34374e-05
0.000104295
2.19871e-05
5.63391e-06
0.000103073
5.96039e-05
7.13668e-06
0.000104406
3.26273e-05
7.61167e-06
0.000104988
6.10191e-05
9.92771e-06
4.08672e-05
4.80985e-06
0.000114751
2.80423e-05
5.25824e-06
0.000115674
2.52483e-05
6.00246e-06
0.000110246
2.15066e-05
2.19945e-06
0.00011195
5.62042e-05
1.50336e-05
0.000117286
3.30337e-05
1.47272e-05
0.000114787
2.21821e-05
9.96899e-06
0.000115827
2.7737e-05
6.77274e-06
0.000112233
2.36301e-05
9.26052e-06
0.000113001
3.99937e-05
1.15974e-05
0.000115094
3.76578e-05
1.68713e-05
0.000114477
1.8103e-05
7.3858e-06
0.000112049
1.5987e-05
9.73222e-06
0.000111637
3.0065e-05
2.71414e-06
0.000115737
6.66987e-05
1.08401e-05
0.000113621
2.58553e-05
1.24434e-05
0.000112989
3.06514e-05
8.7242e-06
0.00011684
4.3012e-05
1.54558e-05
0.000113174
1.7609e-05
7.08675e-06
0.000115537
4.76787e-05
1.72514e-05
0.000114326
1.30186e-05
1.25049e-05
0.000111931
1.38088e-05
6.87159e-06
0.000115932
1.99806e-05
1.00059e-05
0.00011324
3.56552e-05
7.60843e-06
0.000113592
3.28756e-05
1.02498e-05
0.000113092
3.21347e-05
1.73102e-06
0.000114301
1.99694e-05
3.28838e-06
0.000114043
3.50022e-05
6.84522e-06
0.000115007
3.10414e-05
9.48542e-06
0.000112272
4.00271e-05
1.12492e-05
0.000114986
4.06244e-05
8.11725e-06
0.000114164
2.7863e-07
6.76869e-06
0.000113539
2.29095e-05
1.12752e-05
0.000114682
2.33544e-05
1.15035e-05
0.00011443
4.74651e-05
1.14965e-05
0.000111176
2.4434e-05
7.97562e-06
0.00011057
2.55674e-05
4.37019e-06
0.000118325
4.21894e-05
1.30879e-05
0.000113099
3.17547e-05
6.1825e-06
0.000113504
4.52536e-05
1.74868e-05
3.10808e-05
1.02217e-05
0.000124581
2.43673e-05
3.2781e-06
0.000124937
2.04586e-05
3.68134e-06
0.000123055
1.89665e-05
9.69479e-07
0.000127952
3.90508e-05
5.73149e-06
0.000124035
3.12743e-05
3.32115e-06
0.000124709
2.20478e-05
3.88e-06
0.00012617
2.22425e-05
6.29019e-06
0.000124221
1.96045e-05
5.78065e-06
0.000124444
2.93965e-05
4.85784e-06
0.000125279
2.96133e-05
6.70831e-06
0.000125179
1.71871e-05
1.86059e-06
0.000123352
1.55681e-05
5.84447e-06
0.000122829
2.5781e-05
7.3486e-07
0.000127374
4.9701e-05
1.00738e-05
0.000124267
2.23431e-05
5.34823e-06
0.00012642
2.53778e-05
5.82267e-06
0.000126573
3.5276e-05
8.16462e-06
0.000123575
1.76459e-05
1.42493e-07
0.000127449
3.42524e-05
9.53533e-06
0.000123706
1.53987e-05
2.8668e-06
0.000125139
1.39615e-05
2.35773e-06
0.00012342
2.19705e-05
3.82593e-06
0.000124389
2.73753e-05
5.33008e-06
0.000124525
2.59372e-05
8.92102e-06
0.000124699
2.51758e-05
8.19583e-06
0.000125029
2.06786e-05
3.9334e-06
0.000125741
2.73323e-05
6.81726e-06
0.000125011
2.55804e-05
3.684e-06
0.000125502
2.85832e-05
4.65762e-06
0.00012616
3.1508e-05
4.84978e-06
0.000123737
1.13524e-05
1.73187e-06
0.000126275
1.97396e-05
2.98903e-06
0.000123221
2.42244e-05
3.97001e-06
0.000124555
3.40799e-05
7.09123e-06
0.000123062
2.00674e-05
8.40838e-06
0.000124385
2.43707e-05
4.6024e-06
0.000125925
4.08996e-05
5.28116e-06
0.00012537
2.60241e-05
4.84038e-06
0.000126225
3.46035e-05
7.25925e-06
2.62538e-05
5.16408e-06
0.000137925
2.16248e-05
2.30756e-06
0.000137933
1.95864e-05
2.29225e-06
0.000135941
1.8563e-05
1.29683e-06
0.000136555
3.29132e-05
8.1273e-06
0.000138919
2.30847e-05
7.70959e-06
0.000138203
2.13352e-05
5.53034e-06
0.000138632
2.08036e-05
3.37532e-06
0.000137084
1.91626e-05
5.73596e-06
0.000136888
2.36695e-05
6.80051e-06
0.000137887
2.40471e-05
9.24901e-06
0.000137507
1.76619e-05
3.99935e-06
0.000136327
1.56037e-05
4.88286e-06
0.000135858
2.30325e-05
1.03808e-06
0.000138619
3.91483e-05
5.87795e-06
0.000137495
2.21511e-05
7.02799e-06
0.00013746
2.36553e-05
5.04336e-06
0.00013921
2.7278e-05
7.00038e-06
0.000137224
1.6205e-05
3.51505e-06
0.000138007
2.78431e-05
8.11151e-06
0.000137592
1.28804e-05
7.00526e-06
0.000136196
1.51833e-05
3.86208e-06
0.000138104
1.7098e-05
3.5751e-06
0.000137242
2.44533e-05
4.0081e-06
0.000136884
2.23414e-05
5.35394e-06
0.000136986
2.4315e-05
6.72481e-07
0.000137816
2.02332e-05
1.57128e-06
0.000138277
2.51991e-05
3.56962e-06
0.000138053
2.2755e-05
4.61053e-06
0.000136852
2.36808e-05
6.49558e-06
0.000137497
2.45033e-05
3.83713e-06
0.000137543
1.2324e-05
3.18555e-06
0.000138035
1.98983e-05
5.77234e-06
0.000137652
1.95347e-05
5.0553e-06
0.000137147
2.60827e-05
5.94093e-06
0.00013522
1.82572e-05
4.50383e-06
0.0001356
2.41841e-05
2.94263e-06
0.00014007
3.27124e-05
5.5031e-06
0.000137815
2.47992e-05
3.56141e-06
0.000137492
2.85654e-05
8.28184e-06
2.24924e-05
4.89806e-06
0.000150937
1.87645e-05
1.88818e-06
0.000151113
1.69894e-05
1.52505e-06
0.000150046
1.74089e-05
1.33539e-07
0.000152356
2.47118e-05
2.21751e-06
0.000150466
2.07636e-05
2.33608e-06
0.000151295
1.96001e-05
2.15634e-06
0.000151912
1.79152e-05
3.1928e-06
0.000150875
1.6769e-05
3.51522e-06
0.000150639
1.88614e-05
2.44198e-06
0.000150947
1.97664e-05
3.20813e-06
0.000151087
1.67064e-05
1.18266e-06
0.000150047
1.53588e-05
2.83885e-06
0.000149901
2.03137e-05
8.84978e-07
0.000152232
3.0326e-05
5.12143e-06
0.000150821
1.93767e-05
3.94304e-06
0.000151804
2.06528e-05
3.16454e-06
0.00015204
2.24782e-05
4.49491e-06
0.000150424
1.54236e-05
6.01953e-07
0.000152408
2.09642e-05
5.45761e-06
0.000150085
1.38552e-05
2.46763e-06
0.000150865
1.44482e-05
1.62477e-06
0.000150299
1.70978e-05
2.17876e-06
0.000150718
2.02176e-05
3.11163e-06
0.000150619
1.91067e-05
4.5599e-06
0.000150672
2.01123e-05
5.09878e-06
0.00015136
1.90353e-05
2.65807e-06
0.000151765
2.10954e-05
3.12111e-06
0.000151601
1.90896e-05
2.69311e-06
0.000151234
1.89022e-05
2.00505e-06
0.000151009
1.94789e-05
2.72586e-06
0.000150586
1.52655e-05
1.41575e-06
0.000151693
1.7766e-05
1.76161e-06
0.000150773
1.79615e-05
2.97134e-06
0.000150523
2.0411e-05
4.32016e-06
0.00014915
1.66021e-05
4.21922e-06
0.000150146
2.24519e-05
2.91777e-06
0.000152317
2.8943e-05
3.23207e-06
0.000151617
2.17087e-05
3.40507e-06
0.000151889
2.25415e-05
4.42289e-06
1.858e-05
3.95794e-06
0.000166327
1.79622e-05
1.67867e-07
0.000166294
1.66386e-05
1.9519e-07
0.000165558
1.70062e-05
2.2088e-07
0.000166046
2.15838e-05
3.86117e-06
0.00016661
1.84026e-05
2.81287e-06
0.000166687
1.88714e-05
2.40553e-06
0.000166959
1.73233e-05
1.31133e-06
0.000166225
1.64241e-05
2.82909e-06
0.000165814
1.66682e-05
2.98519e-06
0.00016603
1.77032e-05
3.99153e-06
0.000166087
1.6287e-05
1.63031e-06
0.000165398
1.55161e-05
1.8449e-06
0.000165315
1.88487e-05
4.4947e-07
0.000166845
2.52033e-05
2.66055e-06
0.00016626
1.91857e-05
3.02734e-06
0.000166546
1.92219e-05
2.42092e-06
0.000167115
1.97935e-05
2.54704e-06
0.000166085
1.57481e-05
1.35605e-06
0.000166433
1.87268e-05
3.59704e-06
0.000165968
1.38458e-05
2.76932e-06
0.00016557
1.50441e-05
1.48772e-06
0.000166133
1.61328e-05
7.44432e-07
0.000165959
1.87148e-05
1.78881e-06
0.000165637
1.76261e-05
2.40548e-06
0.000165884
1.97632e-05
-1.75139e-07
0.000166472
1.87007e-05
4.0528e-07
0.000166975
2.00999e-05
1.57317e-06
0.000166814
1.79023e-05
2.28731e-06
0.000166038
1.70225e-05
2.83524e-06
0.000165985
1.74425e-05
8.9489e-07
0.000166188
1.57855e-05
1.04892e-06
0.000166837
1.76427e-05
2.42085e-06
0.000166194
1.68013e-05
2.31339e-06
0.00016554
1.73852e-05
2.80731e-06
0.000164419
1.58717e-05
2.04445e-06
0.000165162
2.10989e-05
1.83978e-06
0.000167447
2.54217e-05
2.19411e-06
0.000166818
2.06509e-05
1.82652e-06
0.00016653
2.06087e-05
3.31289e-06
1.81193e-05
1.32235e-06
0.000182759
1.63123e-05
9.75026e-07
0.000182743
1.56009e-05
4.54101e-07
0.000182379
1.64105e-05
-6.11862e-08
0.000183132
1.86011e-05
9.80952e-07
0.000182549
1.64778e-05
1.62172e-06
0.000183121
1.73643e-05
1.23317e-06
0.000183352
1.59783e-05
1.52246e-06
0.00018285
1.54066e-05
2.11072e-06
0.000182426
1.51811e-05
1.34853e-06
0.000182461
1.59517e-05
1.60309e-06
0.000182584
1.57064e-05
6.0756e-07
0.000182117
1.5342e-05
1.30036e-06
0.000182158
1.75122e-05
5.4146e-07
0.000183266
2.12328e-05
2.30149e-06
0.000182777
1.73245e-05
2.62208e-06
0.000183142
1.76179e-05
1.80925e-06
0.000183327
1.73133e-05
2.35424e-06
0.000182598
1.48262e-05
1.0033e-06
0.000183094
1.62506e-05
2.55981e-06
0.000182201
1.36827e-05
1.86582e-06
0.000182376
1.45611e-05
1.15769e-06
0.000182443
1.53603e-05
1.11252e-06
0.000182529
1.69107e-05
1.68353e-06
0.000182342
1.63736e-05
2.11206e-06
0.000182458
1.75046e-05
2.70818e-06
0.000183006
1.75004e-05
1.62372e-06
0.000183407
1.79637e-05
1.23374e-06
0.000183286
1.62563e-05
1.52092e-06
0.000182846
1.55859e-05
9.01653e-07
0.0001824
1.52595e-05
1.49831e-06
0.000182654
1.56378e-05
9.85934e-07
0.00018322
1.63121e-05
1.34408e-06
0.000182797
1.57117e-05
1.81735e-06
0.000182115
1.56326e-05
2.17411e-06
0.000181237
1.53217e-05
1.87126e-06
0.000181908
1.96443e-05
1.67774e-06
0.000183654
2.24575e-05
1.69397e-06
0.00018337
1.90291e-05
2.12981e-06
0.000183239
1.80559e-05
2.7134e-06
1.5765e-05
2.72075e-06
0.000201061
1.60156e-05
-2.98724e-07
0.00020101
1.54678e-05
-3.39045e-07
0.000200845
1.61004e-05
-2.90903e-07
0.000201158
1.70958e-05
1.17674e-06
0.000201076
1.63351e-05
3.2915e-07
0.000201371
1.67129e-05
7.64825e-07
0.000201526
1.5734e-05
3.59353e-07
0.000201161
1.50917e-05
1.208e-06
0.000200771
1.46196e-05
8.64358e-07
0.000200709
1.53176e-05
1.16117e-06
0.000200806
1.5452e-05
3.64461e-07
0.000200508
1.53892e-05
4.15234e-07
0.000200598
1.68031e-05
1.00331e-07
0.000201363
1.8987e-05
1.04843e-06
0.000201129
1.70786e-05
1.01775e-06
0.000201327
1.6776e-05
1.02014e-06