/*--------------------------------*- C++ -*----------------------------------*\
  =========                 |
  \\      /  F ield         | OpenFOAM: The Open Source CFD Toolbox
   \\    /   O peration     | Website:  https://openfoam.org
    \\  /    A nd           | Version:  10
     \\/     M anipulation  |
\*---------------------------------------------------------------------------*/
FoamFile
{
    format      ascii;
    class       volVectorField;
    location    "50";
    object      UMean;
}
// * * * * * * * * * * * * * * * * * * * * * * * * * * * * * * * * * * * * * //

dimensions      [0 1 -1 0 0 0 0];

internalField   nonuniform List<vector> 
25600
(
(1.10524 -5.52118e-08 4.99686e-07)
(1.10524 1.90658e-09 4.98738e-07)
(1.10524 6.30652e-08 5.04678e-07)
(1.10524 1.0093e-07 4.88717e-07)
(1.10524 1.06043e-07 5.11648e-07)
(1.10524 1.67825e-07 4.82783e-07)
(1.10524 1.5748e-07 5.07486e-07)
(1.10524 1.56585e-07 4.90742e-07)
(1.10524 1.99749e-07 4.94797e-07)
(1.10524 1.45795e-07 5.00391e-07)
(1.10524 2.07585e-07 4.87006e-07)
(1.10524 1.84544e-07 4.99513e-07)
(1.10524 1.42286e-07 4.85219e-07)
(1.10524 2.01742e-07 4.94101e-07)
(1.10524 9.99752e-08 4.79757e-07)
(1.10524 1.61325e-07 4.87994e-07)
(1.10524 1.05966e-07 4.75014e-07)
(1.10524 8.19268e-08 4.69937e-07)
(1.10524 1.15921e-07 4.76205e-07)
(1.10524 2.5623e-08 4.43053e-07)
(1.10524 1.16072e-07 4.70209e-07)
(1.10524 3.70527e-08 4.25768e-07)
(1.10524 1.05942e-07 4.48155e-07)
(1.10524 8.47775e-08 4.22889e-07)
(1.10524 9.75358e-08 4.22912e-07)
(1.10524 1.17228e-07 4.2404e-07)
(1.10524 8.81527e-08 4.05963e-07)
(1.10524 1.19446e-07 4.28645e-07)
(1.10524 8.38845e-08 4.03287e-07)
(1.10524 9.4091e-08 4.41188e-07)
(1.10524 1.00838e-07 4.15464e-07)
(1.10524 8.09195e-08 4.57873e-07)
(1.10524 9.35538e-08 4.40666e-07)
(1.10524 8.03705e-08 4.73757e-07)
(1.10524 9.0842e-08 4.68787e-07)
(1.10524 4.06311e-08 4.86803e-07)
(1.10524 8.49304e-08 4.89625e-07)
(1.10524 9.14115e-09 4.96982e-07)
(1.10524 3.8946e-08 4.9775e-07)
(1.10524 -9.74714e-08 5.02041e-07)
(1.10524 1.75149e-07 5.74965e-07)
(1.10524 1.32804e-07 5.65665e-07)
(1.10524 1.94663e-07 5.75409e-07)
(1.10524 1.88147e-07 5.51119e-07)
(1.10524 2.1017e-07 5.78562e-07)
(1.10524 2.55074e-07 5.4034e-07)
(1.10524 2.46816e-07 5.70455e-07)
(1.10524 2.71284e-07 5.47288e-07)
(1.10524 2.95205e-07 5.52412e-07)
(1.10524 2.64239e-07 5.58441e-07)
(1.10524 3.12736e-07 5.41936e-07)
(1.10524 2.77341e-07 5.57001e-07)
(1.10524 2.615e-07 5.40757e-07)
(1.10524 2.79913e-07 5.49174e-07)
(1.10524 2.06127e-07 5.37141e-07)
(1.10524 2.37926e-07 5.44455e-07)
(1.10524 1.88445e-07 5.3066e-07)
(1.10524 1.61766e-07 5.32316e-07)
(1.10524 1.88567e-07 5.27762e-07)
(1.10524 1.06624e-07 5.12632e-07)
(1.10524 1.82217e-07 5.23403e-07)
(1.10524 1.09236e-07 4.94295e-07)
(1.10524 1.64732e-07 5.12768e-07)
(1.10524 1.48246e-07 4.79339e-07)
(1.10524 1.51233e-07 4.98179e-07)
(1.10524 1.83237e-07 4.725e-07)
(1.10524 1.52624e-07 4.81916e-07)
(1.10524 1.94234e-07 4.84092e-07)
(1.10524 1.6623e-07 4.72342e-07)
(1.10524 1.77537e-07 5.10253e-07)
(1.10524 1.77436e-07 4.79972e-07)
(1.10524 1.63104e-07 5.3697e-07)
(1.10524 1.5556e-07 5.0564e-07)
(1.10524 1.59856e-07 5.57127e-07)
(1.10524 1.29807e-07 5.40046e-07)
(1.10524 1.31836e-07 5.66039e-07)
(1.10524 1.32034e-07 5.67905e-07)
(1.10524 1.07108e-07 5.70514e-07)
(1.10524 1.53072e-07 5.7742e-07)
(1.10524 1.00438e-07 5.71032e-07)
(1.10524 2.91174e-07 7.39964e-07)
(1.10524 2.19602e-07 7.20765e-07)
(1.10524 3.22614e-07 7.32517e-07)
(1.10524 2.84102e-07 7.00642e-07)
(1.10524 3.53253e-07 7.26414e-07)
(1.10524 3.62843e-07 6.84248e-07)
(1.10524 3.94074e-07 7.12431e-07)
(1.10524 4.01119e-07 6.88774e-07)
(1.10524 4.40798e-07 6.88858e-07)
(1.10524 4.04999e-07 6.98924e-07)
(1.10524 4.59417e-07 6.73347e-07)
(1.10524 4.06335e-07 6.93404e-07)
(1.10524 4.148e-07 6.69009e-07)
(1.10524 3.97102e-07 6.80198e-07)
(1.10524 3.48027e-07 6.65201e-07)
(1.10524 3.52206e-07 6.72336e-07)
(1.10524 3.09304e-07 6.56654e-07)
(1.10524 2.7792e-07 6.63769e-07)
(1.10524 2.97642e-07 6.49271e-07)
(1.10524 2.22952e-07 6.53833e-07)
(1.10524 2.88996e-07 6.43792e-07)
(1.10524 2.24139e-07 6.39457e-07)
(1.10524 2.81828e-07 6.3853e-07)
(1.10524 2.62823e-07 6.14486e-07)
(1.10524 2.87015e-07 6.31588e-07)
(1.10524 3.01463e-07 5.95375e-07)
(1.10524 3.04776e-07 6.20326e-07)
(1.10524 3.16834e-07 6.02594e-07)
(1.10524 3.21647e-07 6.10489e-07)
(1.10524 3.02961e-07 6.33186e-07)
(1.10524 3.23477e-07 6.1634e-07)
(1.10524 2.84515e-07 6.72985e-07)
(1.10524 2.87625e-07 6.41775e-07)
(1.10524 2.75074e-07 7.07996e-07)
(1.10524 2.46048e-07 6.82067e-07)
(1.10524 2.47152e-07 7.22593e-07)
(1.10524 2.42936e-07 7.19785e-07)
(1.10524 2.15706e-07 7.2597e-07)
(1.10524 2.67245e-07 7.39227e-07)
(1.10524 1.9656e-07 7.26807e-07)
(1.10524 4.76419e-07 9.41847e-07)
(1.10524 3.84511e-07 9.19845e-07)
(1.10524 5.17894e-07 9.20922e-07)
(1.10524 4.44532e-07 8.94522e-07)
(1.10524 5.57013e-07 9.04575e-07)
(1.10524 5.17956e-07 8.76722e-07)
(1.10524 6.0676e-07 8.89078e-07)
(1.10524 5.7192e-07 8.82401e-07)
(1.10524 6.56604e-07 8.67345e-07)
(1.10524 5.9289e-07 8.9103e-07)
(1.10524 6.72157e-07 8.49005e-07)
(1.10524 5.89619e-07 8.8057e-07)
(1.10524 6.22419e-07 8.39093e-07)
(1.10524 5.60051e-07 8.62226e-07)
(1.10524 5.37192e-07 8.32548e-07)
(1.10524 4.99429e-07 8.5284e-07)
(1.10524 4.73739e-07 8.2459e-07)
(1.10524 4.2146e-07 8.4846e-07)
(1.10524 4.46387e-07 8.1669e-07)
(1.10524 3.68759e-07 8.46187e-07)
(1.10524 4.39657e-07 8.08384e-07)
(1.10524 3.7361e-07 8.34756e-07)
(1.10524 4.49818e-07 8.00918e-07)
(1.10524 4.15378e-07 8.0384e-07)
(1.10524 4.75145e-07 7.96222e-07)
(1.10524 4.5769e-07 7.74159e-07)
(1.10524 5.06658e-07 7.91257e-07)
(1.10524 4.75152e-07 7.71616e-07)
(1.10524 5.24972e-07 7.88892e-07)
(1.10524 4.6081e-07 8.02347e-07)
(1.10524 5.18692e-07 7.99802e-07)
(1.10524 4.32832e-07 8.56187e-07)
(1.10524 4.7059e-07 8.26934e-07)
(1.10524 4.07461e-07 9.10273e-07)
(1.10524 4.11968e-07 8.71902e-07)
(1.10524 3.77997e-07 9.35928e-07)
(1.10524 3.98773e-07 9.19586e-07)
(1.10524 3.55628e-07 9.40973e-07)
(1.10524 4.31508e-07 9.45184e-07)
(1.10524 3.5412e-07 9.34296e-07)
(1.10524 7.19843e-07 1.20473e-06)
(1.10524 5.9014e-07 1.18039e-06)
(1.10524 7.57339e-07 1.1683e-06)
(1.10524 6.41367e-07 1.15074e-06)
(1.10524 8.06827e-07 1.14147e-06)
(1.10524 7.09747e-07 1.13245e-06)
(1.10524 8.76863e-07 1.12478e-06)
(1.10524 7.74496e-07 1.13732e-06)
(1.10524 9.3656e-07 1.10627e-06)
(1.10524 8.14621e-07 1.14369e-06)
(1.10524 9.49378e-07 1.08872e-06)
(1.10524 8.1237e-07 1.13153e-06)
(1.10524 8.87833e-07 1.07581e-06)
(1.10524 7.60437e-07 1.11256e-06)
(1.10524 7.84094e-07 1.06584e-06)
(1.10524 6.78265e-07 1.10206e-06)
(1.10524 7.00757e-07 1.05687e-06)
(1.10524 5.92718e-07 1.09878e-06)
(1.10524 6.58598e-07 1.05024e-06)
(1.10524 5.47278e-07 1.10178e-06)
(1.10524 6.60436e-07 1.04369e-06)
(1.10524 5.66859e-07 1.09406e-06)
(1.10524 6.96444e-07 1.03145e-06)
(1.10524 6.22479e-07 1.05814e-06)
(1.10524 7.45295e-07 1.01909e-06)
(1.10524 6.76565e-07 1.01655e-06)
(1.10524 7.92037e-07 1.01237e-06)
(1.10524 7.01191e-07 1.00032e-06)
(1.10524 8.17086e-07 1.01875e-06)
(1.10524 6.83325e-07 1.02842e-06)
(1.10524 8.05597e-07 1.04135e-06)
(1.10524 6.3767e-07 1.09432e-06)
(1.10524 7.42575e-07 1.07721e-06)
(1.10524 5.87165e-07 1.17142e-06)
(1.10524 6.64191e-07 1.12939e-06)
(1.10524 5.51679e-07 1.21456e-06)
(1.10524 6.40262e-07 1.18502e-06)
(1.10524 5.4668e-07 1.22291e-06)
(1.10524 6.7478e-07 1.21481e-06)
(1.10524 5.61637e-07 1.20798e-06)
(1.10524 1.04782e-06 1.5176e-06)
(1.10524 8.48979e-07 1.52033e-06)
(1.10524 1.0818e-06 1.46857e-06)
(1.10524 8.95318e-07 1.4877e-06)
(1.10524 1.14223e-06 1.43238e-06)
(1.10524 9.57553e-07 1.46946e-06)
(1.10524 1.23608e-06 1.41357e-06)
(1.10524 1.02915e-06 1.47264e-06)
(1.10524 1.3153e-06 1.40088e-06)
(1.10524 1.08488e-06 1.4752e-06)
(1.10524 1.32454e-06 1.38239e-06)
(1.10524 1.07872e-06 1.45666e-06)
(1.10524 1.24355e-06 1.36196e-06)
(1.10524 9.97115e-07 1.43527e-06)
(1.10524 1.11641e-06 1.34568e-06)
(1.10524 8.80264e-07 1.42573e-06)
(1.10524 1.01285e-06 1.33575e-06)
(1.10524 7.85691e-07 1.42237e-06)
(1.10524 9.65869e-07 1.33413e-06)
(1.10524 7.57589e-07 1.42797e-06)
(1.10524 9.83938e-07 1.33241e-06)
(1.10524 8.02033e-07 1.42247e-06)
(1.10524 1.04284e-06 1.31531e-06)
(1.10524 8.77914e-07 1.3831e-06)
(1.10524 1.11054e-06 1.28857e-06)
(1.10524 9.52903e-07 1.33141e-06)
(1.10524 1.17108e-06 1.27316e-06)
(1.10524 9.90161e-07 1.30299e-06)
(1.10524 1.20172e-06 1.28748e-06)
(1.10524 9.65804e-07 1.32709e-06)
(1.10524 1.18347e-06 1.32499e-06)
(1.10524 8.95961e-07 1.4056e-06)
(1.10524 1.10242e-06 1.37668e-06)
(1.10524 8.11494e-07 1.50679e-06)
(1.10524 9.9827e-07 1.43967e-06)
(1.10524 7.66394e-07 1.57145e-06)
(1.10524 9.6155e-07 1.50329e-06)
(1.10524 7.78168e-07 1.58668e-06)
(1.10524 9.99433e-07 1.53496e-06)
(1.10524 8.1411e-07 1.56121e-06)
(1.10524 1.48362e-06 1.88837e-06)
(1.10524 1.16022e-06 1.93691e-06)
(1.10524 1.50474e-06 1.83041e-06)
(1.10524 1.20008e-06 1.90436e-06)
(1.10524 1.57071e-06 1.78443e-06)
(1.10524 1.26095e-06 1.88853e-06)
(1.10524 1.69753e-06 1.76484e-06)
(1.10524 1.34724e-06 1.8941e-06)
(1.10524 1.80395e-06 1.76054e-06)
(1.10524 1.41262e-06 1.8907e-06)
(1.10524 1.80541e-06 1.74318e-06)
(1.10524 1.39477e-06 1.8619e-06)
(1.10524 1.69042e-06 1.71408e-06)
(1.10524 1.27006e-06 1.83828e-06)
(1.10524 1.52601e-06 1.6908e-06)
(1.10524 1.10713e-06 1.83237e-06)
(1.10524 1.40464e-06 1.68492e-06)
(1.10524 1.00188e-06 1.83632e-06)
(1.10524 1.36688e-06 1.69963e-06)
(1.10524 9.98773e-07 1.84644e-06)
(1.10524 1.41373e-06 1.70971e-06)
(1.10524 1.07896e-06 1.83957e-06)
(1.10524 1.50234e-06 1.68012e-06)
(1.10524 1.18466e-06 1.79113e-06)
(1.10524 1.58912e-06 1.62859e-06)
(1.10524 1.28906e-06 1.72705e-06)
(1.10524 1.6667e-06 1.59355e-06)
(1.10524 1.34746e-06 1.68696e-06)
(1.10524 1.70622e-06 1.61275e-06)
(1.10524 1.31498e-06 1.70938e-06)
(1.10524 1.67884e-06 1.67118e-06)
(1.10524 1.209e-06 1.79912e-06)
(1.10524 1.56758e-06 1.74241e-06)
(1.10524 1.08144e-06 1.92383e-06)
(1.10524 1.43452e-06 1.8194e-06)
(1.10524 1.02929e-06 2.01319e-06)
(1.10524 1.39149e-06 1.88954e-06)
(1.10524 1.06438e-06 2.03207e-06)
(1.10524 1.43538e-06 1.91559e-06)
(1.10524 1.12051e-06 1.99139e-06)
(1.10522 2.0486e-06 2.3392e-06)
(1.10522 1.49255e-06 2.47225e-06)
(1.10522 2.04966e-06 2.27588e-06)
(1.10522 1.52298e-06 2.44288e-06)
(1.10522 2.10933e-06 2.22453e-06)
(1.10522 1.5889e-06 2.4368e-06)
(1.10522 2.27665e-06 2.2102e-06)
(1.10522 1.6914e-06 2.446e-06)
(1.10522 2.4075e-06 2.21522e-06)
(1.10522 1.76034e-06 2.43417e-06)
(1.10522 2.39571e-06 2.19535e-06)
(1.10522 1.72509e-06 2.39235e-06)
(1.10522 2.23681e-06 2.15425e-06)
(1.10522 1.54867e-06 2.3647e-06)
(1.10522 2.02501e-06 2.1146e-06)
(1.10522 1.34062e-06 2.3548e-06)
(1.10522 1.89657e-06 2.10417e-06)
(1.10522 1.23808e-06 2.35956e-06)
(1.10522 1.88563e-06 2.13733e-06)
(1.10522 1.27498e-06 2.37641e-06)
(1.10522 1.97136e-06 2.1652e-06)
(1.10522 1.39421e-06 2.36328e-06)
(1.10522 2.08817e-06 2.11748e-06)
(1.10522 1.52722e-06 2.29659e-06)
(1.10522 2.19119e-06 2.02842e-06)
(1.10522 1.66553e-06 2.21341e-06)
(1.10522 2.29013e-06 1.96385e-06)
(1.10522 1.74806e-06 2.16232e-06)
(1.10522 2.3429e-06 1.98442e-06)
(1.10522 1.71272e-06 2.18531e-06)
(1.10522 2.31212e-06 2.06463e-06)
(1.10522 1.55435e-06 2.28891e-06)
(1.10522 2.14503e-06 2.16612e-06)
(1.10522 1.36185e-06 2.44732e-06)
(1.10522 1.97483e-06 2.27081e-06)
(1.10522 1.30754e-06 2.56849e-06)
(1.10522 1.94123e-06 2.34996e-06)
(1.10522 1.37506e-06 2.59103e-06)
(1.10522 2.00032e-06 2.37193e-06)
(1.10522 1.45093e-06 2.53715e-06)
(1.10502 2.73073e-06 2.90167e-06)
(1.10502 1.85064e-06 3.16252e-06)
(1.10502 2.71344e-06 2.82928e-06)
(1.10502 1.87288e-06 3.13837e-06)
(1.10502 2.76319e-06 2.77896e-06)
(1.10502 1.9546e-06 3.1571e-06)
(1.10502 2.9739e-06 2.7798e-06)
(1.10502 2.06972e-06 3.17543e-06)
(1.10502 3.12929e-06 2.79502e-06)
(1.10502 2.1359e-06 3.1456e-06)
(1.10502 3.10143e-06 2.77026e-06)
(1.10502 2.07038e-06 3.08525e-06)
(1.10502 2.88126e-06 2.71266e-06)
(1.10502 1.82749e-06 3.05343e-06)
(1.10502 2.60504e-06 2.6566e-06)
(1.10502 1.566e-06 3.04386e-06)
(1.10502 2.46523e-06 2.64224e-06)
(1.10502 1.47087e-06 3.05742e-06)
(1.10502 2.49793e-06 2.70554e-06)
(1.10502 1.57455e-06 3.08805e-06)
(1.10502 2.64206e-06 2.75463e-06)
(1.10502 1.74713e-06 3.05944e-06)
(1.10502 2.79264e-06 2.67673e-06)
(1.10502 1.91843e-06 2.96162e-06)
(1.10502 2.92384e-06 2.5357e-06)
(1.10502 2.10073e-06 2.85442e-06)
(1.10502 3.04126e-06 2.43509e-06)
(1.10502 2.20186e-06 2.7948e-06)
(1.10502 3.10482e-06 2.45596e-06)
(1.10502 2.16339e-06 2.81291e-06)
(1.10502 3.06523e-06 2.5459e-06)
(1.10502 1.94198e-06 2.9179e-06)
(1.10502 2.82557e-06 2.67192e-06)
(1.10502 1.66317e-06 3.11517e-06)
(1.10502 2.6057e-06 2.81402e-06)
(1.10502 1.60679e-06 3.27935e-06)
(1.10502 2.59076e-06 2.90994e-06)
(1.10502 1.70859e-06 3.31005e-06)
(1.10502 2.67582e-06 2.93648e-06)
(1.10502 1.81049e-06 3.24582e-06)
(1.10367 3.48508e-06 3.61077e-06)
(1.10367 2.19379e-06 4.04575e-06)
(1.10367 3.45578e-06 3.54136e-06)
(1.10367 2.2163e-06 4.04945e-06)
(1.10367 3.51024e-06 3.51288e-06)
(1.10367 2.33162e-06 4.11828e-06)
(1.10367 3.76406e-06 3.53599e-06)
(1.10367 2.46552e-06 4.15121e-06)
(1.10367 3.94161e-06 3.55969e-06)
(1.10367 2.52672e-06 4.08956e-06)
(1.10367 3.90071e-06 3.52087e-06)
(1.10367 2.42381e-06 3.99318e-06)
(1.10367 3.6034e-06 3.43667e-06)
(1.10367 2.08624e-06 3.95353e-06)
(1.10367 3.23307e-06 3.35458e-06)
(1.10367 1.7525e-06 3.95298e-06)
(1.10367 3.07229e-06 3.33534e-06)
(1.10367 1.66765e-06 3.98154e-06)
(1.10367 3.16286e-06 3.43596e-06)
(1.10367 1.85306e-06 4.01574e-06)
(1.10367 3.3783e-06 3.50495e-06)
(1.10367 2.09408e-06 3.95561e-06)
(1.10367 3.58242e-06 3.38939e-06)
(1.10367 2.32247e-06 3.81446e-06)
(1.10367 3.76143e-06 3.17724e-06)
(1.10367 2.55267e-06 3.67503e-06)
(1.10367 3.89914e-06 3.02774e-06)
(1.10367 2.67562e-06 3.60324e-06)
(1.10367 3.97525e-06 3.04805e-06)
(1.10367 2.63783e-06 3.61078e-06)
(1.10367 3.90779e-06 3.15396e-06)
(1.10367 2.33881e-06 3.72566e-06)
(1.10367 3.57015e-06 3.31277e-06)
(1.10367 1.95979e-06 3.97636e-06)
(1.10367 3.29644e-06 3.49209e-06)
(1.10367 1.8977e-06 4.1904e-06)
(1.10367 3.30626e-06 3.60006e-06)
(1.10367 2.03416e-06 4.22776e-06)
(1.10367 3.42846e-06 3.63927e-06)
(1.10367 2.16048e-06 4.15117e-06)
(1.09872 4.23707e-06 4.49293e-06)
(1.09871 2.4492e-06 5.14439e-06)
(1.09872 4.19287e-06 4.44691e-06)
(1.09871 2.45375e-06 5.17669e-06)
(1.09872 4.24567e-06 4.45445e-06)
(1.09871 2.60819e-06 5.33293e-06)
(1.09872 4.54095e-06 4.501e-06)
(1.09871 2.78165e-06 5.41062e-06)
(1.09872 4.73597e-06 4.52513e-06)
(1.09871 2.82991e-06 5.3071e-06)
(1.09872 4.67332e-06 4.47405e-06)
(1.09871 2.67309e-06 5.1355e-06)
(1.09872 4.28564e-06 4.36715e-06)
(1.09871 2.20855e-06 5.07241e-06)
(1.09872 3.80441e-06 4.247e-06)
(1.09871 1.8149e-06 5.09733e-06)
(1.09872 3.64059e-06 4.20957e-06)
(1.09871 1.76614e-06 5.17643e-06)
(1.09872 3.80192e-06 4.35264e-06)
(1.09871 2.04448e-06 5.21079e-06)
(1.09872 4.10101e-06 4.44814e-06)
(1.09871 2.36794e-06 5.08644e-06)
(1.09872 4.37399e-06 4.30698e-06)
(1.09871 2.66801e-06 4.88752e-06)
(1.09872 4.62963e-06 4.00349e-06)
(1.09871 2.95299e-06 4.70834e-06)
(1.09872 4.78822e-06 3.7689e-06)
(1.09871 3.09535e-06 4.61951e-06)
(1.09872 4.88027e-06 3.78261e-06)
(1.09871 3.07342e-06 4.60576e-06)
(1.09872 4.7716e-06 3.92604e-06)
(1.09871 2.67041e-06 4.71396e-06)
(1.09872 4.28026e-06 4.14297e-06)
(1.09871 2.17033e-06 5.03336e-06)
(1.09872 3.96576e-06 4.35196e-06)
(1.09871 2.12219e-06 5.32454e-06)
(1.09872 4.01784e-06 4.44451e-06)
(1.09871 2.28886e-06 5.39198e-06)
(1.09872 4.17846e-06 4.50101e-06)
(1.09871 2.42817e-06 5.30172e-06)
(1.0874 4.90159e-06 5.55129e-06)
(1.08739 2.5316e-06 6.53218e-06)
(1.0874 4.83402e-06 5.57512e-06)
(1.08739 2.49303e-06 6.55823e-06)
(1.0874 4.88622e-06 5.68688e-06)
(1.08739 2.7033e-06 6.79902e-06)
(1.0874 5.23902e-06 5.76531e-06)
(1.08739 2.93551e-06 6.95318e-06)
(1.0874 5.44957e-06 5.73708e-06)
(1.08738 2.94917e-06 6.83669e-06)
(1.0874 5.338e-06 5.63185e-06)
(1.08738 2.70043e-06 6.57548e-06)
(1.0874 4.82654e-06 5.52622e-06)
(1.08738 2.06053e-06 6.43075e-06)
(1.0874 4.21353e-06 5.41005e-06)
(1.08738 1.61416e-06 6.44785e-06)
(1.0874 4.06519e-06 5.34825e-06)
(1.08738 1.62472e-06 6.62227e-06)
(1.0874 4.30336e-06 5.49129e-06)
(1.08738 2.00073e-06 6.70934e-06)
(1.0874 4.70014e-06 5.57262e-06)
(1.08739 2.41573e-06 6.49704e-06)
(1.0874 5.03893e-06 5.41845e-06)
(1.08739 2.80641e-06 6.17258e-06)
(1.0874 5.39625e-06 5.04241e-06)
(1.08739 3.16084e-06 5.90499e-06)
(1.0874 5.56934e-06 4.68488e-06)
(1.08739 3.31276e-06 5.83591e-06)
(1.0874 5.70051e-06 4.65409e-06)
(1.08738 3.34832e-06 5.8522e-06)
(1.0874 5.54993e-06 4.83883e-06)
(1.08738 2.80437e-06 5.93696e-06)
(1.0874 4.84275e-06 5.17789e-06)
(1.08738 2.15595e-06 6.28029e-06)
(1.0874 4.49737e-06 5.47724e-06)
(1.08739 2.14618e-06 6.638e-06)
(1.0874 4.60184e-06 5.53626e-06)
(1.08739 2.33718e-06 6.79007e-06)
(1.0874 4.80319e-06 5.56917e-06)
(1.08739 2.51829e-06 6.74931e-06)
(1.06807 5.21319e-06 6.95244e-06)
(1.06806 2.18618e-06 8.35406e-06)
(1.06807 5.11202e-06 7.00788e-06)
(1.06806 2.10362e-06 8.41391e-06)
(1.06807 5.19893e-06 7.28801e-06)
(1.06806 2.40721e-06 8.70604e-06)
(1.06807 5.63035e-06 7.48189e-06)
(1.06806 2.68242e-06 8.88957e-06)
(1.06807 5.82427e-06 7.41165e-06)
(1.06805 2.63464e-06 8.76865e-06)
(1.06807 5.65861e-06 7.1712e-06)
(1.06805 2.26303e-06 8.46354e-06)
(1.06807 4.98153e-06 6.99457e-06)
(1.06805 1.41223e-06 8.24276e-06)
(1.06807 4.23963e-06 6.89535e-06)
(1.06805 9.28493e-07 8.18013e-06)
(1.06807 4.1165e-06 6.88066e-06)
(1.06805 1.01007e-06 8.39876e-06)
(1.06807 4.44153e-06 7.05663e-06)
(1.06805 1.49022e-06 8.58626e-06)
(1.06807 4.93125e-06 7.05752e-06)
(1.06805 1.98248e-06 8.34367e-06)
(1.06807 5.32147e-06 6.82515e-06)
(1.06806 2.49014e-06 7.89954e-06)
(1.06807 5.80926e-06 6.38908e-06)
(1.06806 2.94814e-06 7.44109e-06)
(1.06807 5.99746e-06 5.95385e-06)
(1.06805 3.10773e-06 7.35815e-06)
(1.06807 6.19789e-06 5.89271e-06)
(1.06805 3.25163e-06 7.46529e-06)
(1.06807 5.98919e-06 6.02703e-06)
(1.06805 2.50238e-06 7.59033e-06)
(1.06807 4.9936e-06 6.46229e-06)
(1.06805 1.68009e-06 7.95112e-06)
(1.06807 4.64172e-06 6.90984e-06)
(1.06805 1.72893e-06 8.27335e-06)
(1.06807 4.7968e-06 7.01642e-06)
(1.06806 1.941e-06 8.48259e-06)
(1.06807 5.0522e-06 7.05834e-06)
(1.06806 2.17332e-06 8.55471e-06)
(1.0402 5.01208e-06 8.8986e-06)
(1.04017 1.22359e-06 1.06178e-05)
(1.0402 4.86649e-06 8.96935e-06)
(1.04018 1.10718e-06 1.08313e-05)
(1.04021 5.03763e-06 9.41609e-06)
(1.04018 1.53863e-06 1.12306e-05)
(1.04021 5.54157e-06 9.74429e-06)
(1.04018 1.82404e-06 1.1403e-05)
(1.0402 5.66376e-06 9.66533e-06)
(1.04017 1.68479e-06 1.11937e-05)
(1.0402 5.45291e-06 9.2839e-06)
(1.04017 1.16648e-06 1.08084e-05)
(1.0402 4.56752e-06 8.96761e-06)
(1.04017 8.65281e-08 1.05468e-05)
(1.0402 3.73711e-06 8.80401e-06)
(1.04017 -4.24834e-07 1.04116e-05)
(1.0402 3.62737e-06 8.82446e-06)
(1.04017 -3.08301e-07 1.06561e-05)
(1.0402 4.0513e-06 9.13815e-06)
(1.04017 2.90373e-07 1.091e-05)
(1.04021 4.62355e-06 9.08335e-06)
(1.04017 8.24317e-07 1.06144e-05)
(1.04021 5.06387e-06 8.71591e-06)
(1.04018 1.49207e-06 1.00953e-05)
(1.04021 5.72226e-06 8.1403e-06)
(1.04018 2.06376e-06 9.43503e-06)
(1.0402 5.8608e-06 7.61767e-06)
(1.04017 2.21569e-06 9.30968e-06)
(1.0402 6.18088e-06 7.60913e-06)
(1.04017 2.54124e-06 9.47504e-06)
(1.0402 5.88155e-06 7.68705e-06)
(1.04017 1.49078e-06 9.67237e-06)
(1.0402 4.50872e-06 8.17217e-06)
(1.04017 5.3415e-07 1.0143e-05)
(1.0402 4.20716e-06 8.71897e-06)
(1.04017 6.76359e-07 1.04218e-05)
(1.0402 4.41488e-06 8.89916e-06)
(1.04018 9.08541e-07 1.06456e-05)
(1.0402 4.75844e-06 9.07344e-06)
(1.04018 1.2133e-06 1.07871e-05)
(1.00403 3.90174e-06 1.15222e-05)
(1.00398 -7.04058e-07 1.35393e-05)
(1.00403 3.70617e-06 1.16854e-05)
(1.00399 -8.35783e-07 1.39765e-05)
(1.00403 4.0285e-06 1.2326e-05)
(1.00399 -2.3743e-07 1.45356e-05)
(1.00403 4.58751e-06 1.27684e-05)
(1.00399 1.38589e-09 1.4718e-05)
(1.00403 4.55886e-06 1.26747e-05)
(1.00398 -2.07982e-07 1.43954e-05)
(1.00403 4.36852e-06 1.21383e-05)
(1.00398 -8.82178e-07 1.38564e-05)
(1.00403 3.25009e-06 1.16855e-05)
(1.00398 -2.21498e-06 1.35298e-05)
(1.00403 2.34394e-06 1.13966e-05)
(1.00398 -2.74372e-06 1.32979e-05)
(1.00403 2.24865e-06 1.13922e-05)
(1.00398 -2.60153e-06 1.362e-05)
(1.00403 2.8238e-06 1.18985e-05)
(1.00398 -1.85651e-06 1.39323e-05)
(1.00403 3.45337e-06 1.1757e-05)
(1.00398 -1.34431e-06 1.35003e-05)
(1.00403 3.92925e-06 1.12733e-05)
(1.00399 -4.44877e-07 1.29109e-05)
(1.00403 4.76416e-06 1.05257e-05)
(1.00398 1.51196e-07 1.20633e-05)
(1.00403 4.69943e-06 9.87258e-06)
(1.00398 2.79551e-07 1.19509e-05)
(1.00403 5.2589e-06 9.9637e-06)
(1.00398 9.13414e-07 1.21405e-05)
(1.00403 4.79841e-06 9.98463e-06)
(1.00398 -5.72394e-07 1.23663e-05)
(1.00403 2.96475e-06 1.05518e-05)
(1.00398 -1.58103e-06 1.29999e-05)
(1.00403 2.79064e-06 1.11586e-05)
(1.00398 -1.37423e-06 1.32408e-05)
(1.00403 2.97782e-06 1.13553e-05)
(1.00399 -1.15774e-06 1.35377e-05)
(1.00403 3.47361e-06 1.17607e-05)
(1.00399 -6.85775e-07 1.3745e-05)
(0.960295 1.76474e-06 1.47677e-05)
(0.960236 -3.64971e-06 1.70419e-05)
(0.960295 1.5584e-06 1.51325e-05)
(0.960236 -3.7696e-06 1.77769e-05)
(0.960295 2.14736e-06 1.6045e-05)
(0.960236 -3.02521e-06 1.84774e-05)
(0.960295 2.76762e-06 1.65893e-05)
(0.960236 -2.90787e-06 1.867e-05)
(0.960295 2.48949e-06 1.64834e-05)
(0.960235 -3.13628e-06 1.81958e-05)
(0.960294 2.37953e-06 1.56945e-05)
(0.960234 -4.03648e-06 1.74526e-05)
(0.960294 9.67859e-07 1.50916e-05)
(0.960234 -5.75424e-06 1.70355e-05)
(0.960294 -1.85955e-08 1.46157e-05)
(0.960235 -6.33694e-06 1.66582e-05)
(0.960295 -9.77171e-08 1.45968e-05)
(0.960235 -6.09639e-06 1.71527e-05)
(0.960295 7.23698e-07 1.54146e-05)
(0.960236 -5.20015e-06 1.75367e-05)
(0.960295 1.31508e-06 1.50833e-05)
(0.960236 -4.82453e-06 1.68796e-05)
(0.960295 1.88661e-06 1.44914e-05)
(0.960236 -3.51122e-06 1.62217e-05)
(0.960295 2.91206e-06 1.35269e-05)
(0.960236 -2.97971e-06 1.51413e-05)
(0.960295 2.38631e-06 1.2707e-05)
(0.960236 -2.75355e-06 1.51588e-05)
(0.960295 3.40346e-06 1.2929e-05)
(0.960235 -1.64646e-06 1.53586e-05)
(0.960294 2.6658e-06 1.28574e-05)
(0.960234 -3.72226e-06 1.55908e-05)
(0.960294 2.96616e-07 1.35722e-05)
(0.960235 -4.57658e-06 1.64306e-05)
(0.960295 2.93821e-07 1.42301e-05)
(0.960236 -4.41501e-06 1.65717e-05)
(0.960295 3.38373e-07 1.44107e-05)
(0.960236 -4.25813e-06 1.70571e-05)
(0.960295 1.09841e-06 1.51377e-05)
(0.960236 -3.53242e-06 1.73197e-05)
(0.910049 -2.15415e-06 1.87636e-05)
(0.909974 -7.73437e-06 2.1372e-05)
(0.910049 -2.30866e-06 1.95215e-05)
(0.909975 -7.70243e-06 2.25332e-05)
(0.91005 -1.3234e-06 2.07365e-05)
(0.909975 -6.90303e-06 2.33029e-05)
(0.91005 -6.42519e-07 2.1384e-05)
(0.909975 -6.97841e-06 2.34805e-05)
(0.91005 -1.0825e-06 2.13223e-05)
(0.909974 -7.1672e-06 2.27702e-05)
(0.910049 -1.03145e-06 2.01348e-05)
(0.909973 -8.46192e-06 2.17568e-05)
(0.910049 -2.6615e-06 1.93496e-05)
(0.909973 -1.06646e-05 2.12056e-05)
(0.910049 -3.58064e-06 1.85313e-05)
(0.909974 -1.14471e-05 2.05444e-05)
(0.91005 -3.69332e-06 1.84328e-05)
(0.909974 -1.10448e-05 2.1297e-05)
(0.910051 -2.40085e-06 1.971e-05)
(0.909974 -1.01093e-05 2.16968e-05)
(0.910051 -2.09753e-06 1.90246e-05)
(0.909974 -1.01369e-05 2.07517e-05)
(0.910051 -1.31307e-06 1.84144e-05)
(0.909975 -8.221e-06 2.00606e-05)
(0.910051 -2.3968e-07 1.71419e-05)
(0.909974 -8.07905e-06 1.86534e-05)
(0.910051 -1.5302e-06 1.61321e-05)
(0.909974 -7.48853e-06 1.90151e-05)
(0.910051 2.5663e-07 1.65253e-05)
(0.909973 -5.78972e-06 1.91781e-05)
(0.910049 -1.00634e-06 1.62526e-05)
(0.909972 -8.57198e-06 1.94174e-05)
(0.910049 -3.91573e-06 1.72442e-05)
(0.909973 -8.79931e-06 2.05362e-05)
(0.910049 -3.81598e-06 1.79225e-05)
(0.909974 -8.80285e-06 2.04699e-05)
(0.91005 -4.131e-06 1.8128e-05)
(0.909974 -8.57954e-06 2.13604e-05)
(0.91005 -2.96357e-06 1.93712e-05)
(0.909975 -7.42176e-06 2.16647e-05)
(0.854481 -7.70918e-06 2.32874e-05)
(0.854388 -1.31756e-05 2.62101e-05)
(0.854481 -7.75373e-06 2.46418e-05)
(0.854389 -1.26973e-05 2.78918e-05)
(0.854481 -6.39909e-06 2.60449e-05)
(0.85439 -1.20176e-05 2.85798e-05)
(0.85448 -5.81548e-06 2.67597e-05)
(0.85439 -1.23644e-05 2.87182e-05)
(0.85448 -6.58352e-06 2.67866e-05)
(0.85439 -1.22548e-05 2.74994e-05)
(0.854478 -6.40114e-06 2.4947e-05)
(0.854389 -1.40805e-05 2.60849e-05)
(0.854477 -8.2575e-06 2.40627e-05)
(0.854388 -1.67854e-05 2.54082e-05)
(0.854477 -8.92499e-06 2.27809e-05)
(0.854389 -1.79426e-05 2.43698e-05)
(0.854478 -9.00633e-06 2.26569e-05)
(0.854389 -1.73652e-05 2.56317e-05)
(0.854479 -6.80204e-06 2.47493e-05)
(0.854389 -1.65478e-05 2.59162e-05)
(0.854479 -6.81396e-06 2.35657e-05)
(0.854388 -1.73288e-05 2.46919e-05)
(0.854479 -5.48456e-06 2.32465e-05)
(0.854388 -1.48007e-05 2.406e-05)
(0.854479 -4.42326e-06 2.16291e-05)
(0.854386 -1.55148e-05 2.22461e-05)
(0.854479 -6.64346e-06 2.05284e-05)
(0.854387 -1.4032e-05 2.33439e-05)
(0.85448 -3.68607e-06 2.11049e-05)
(0.854385 -1.17145e-05 2.3424e-05)
(0.854478 -5.7565e-06 2.04622e-05)
(0.854384 -1.54416e-05 2.37817e-05)
(0.854479 -9.05211e-06 2.19081e-05)
(0.854385 -1.44963e-05 2.52821e-05)
(0.85448 -9.14872e-06 2.2377e-05)
(0.854386 -1.50282e-05 2.47699e-05)
(0.854481 -1.02156e-05 2.25883e-05)
(0.854387 -1.4505e-05 2.63203e-05)
(0.854481 -8.3975e-06 2.44266e-05)
(0.854388 -1.2651e-05 2.64669e-05)
(0.794808 -1.54709e-05 2.85438e-05)
(0.794697 -2.05111e-05 3.14669e-05)
(0.794807 -1.51153e-05 3.09117e-05)
(0.794697 -1.93281e-05 3.38259e-05)
(0.794807 -1.32589e-05 3.23081e-05)
(0.794697 -1.86355e-05 3.44039e-05)
(0.794805 -1.27813e-05 3.33555e-05)
(0.794696 -1.90814e-05 3.49854e-05)
(0.794804 -1.43961e-05 3.36517e-05)
(0.794696 -1.81728e-05 3.29759e-05)
(0.794801 -1.44643e-05 3.08136e-05)
(0.794696 -2.05637e-05 3.14063e-05)
(0.794799 -1.6482e-05 3.0134e-05)
(0.794696 -2.37215e-05 3.08073e-05)
(0.794798 -1.68563e-05 2.79044e-05)
(0.794698 -2.59736e-05 2.93064e-05)
(0.794798 -1.69581e-05 2.78983e-05)
(0.794699 -2.50577e-05 3.1838e-05)
(0.794798 -1.37312e-05 3.11997e-05)
(0.794699 -2.46325e-05 3.16179e-05)
(0.794798 -1.44999e-05 2.92051e-05)
(0.794699 -2.64243e-05 3.01471e-05)
(0.794799 -1.19302e-05 2.97751e-05)
(0.7947 -2.3447e-05 2.94132e-05)
(0.794799 -1.10364e-05 2.7413e-05)
(0.794699 -2.58425e-05 2.65758e-05)
(0.794801 -1.42817e-05 2.62922e-05)
(0.7947 -2.2991e-05 2.88466e-05)
(0.794803 -9.74394e-06 2.68069e-05)
(0.794699 -2.02049e-05 2.82615e-05)
(0.794802 -1.2868e-05 2.52753e-05)
(0.794698 -2.49886e-05 2.8755e-05)
(0.794805 -1.60282e-05 2.7484e-05)
(0.794699 -2.2247e-05 3.06224e-05)
(0.794807 -1.67492e-05 2.75763e-05)
(0.794699 -2.36605e-05 2.91326e-05)
(0.794808 -1.87143e-05 2.79908e-05)
(0.794699 -2.25373e-05 3.17731e-05)
(0.794809 -1.59802e-05 3.05659e-05)
(0.794698 -1.99032e-05 3.13598e-05)
(0.732204 -2.43498e-05 3.22221e-05)
(0.732084 -2.96726e-05 3.59296e-05)
(0.732205 -2.31465e-05 3.81646e-05)
(0.732083 -2.76923e-05 3.92405e-05)
(0.732207 -2.13456e-05 3.8671e-05)
(0.732082 -2.78455e-05 3.90954e-05)
(0.732207 -2.08567e-05 4.07428e-05)
(0.732079 -2.84709e-05 4.09554e-05)
(0.732206 -2.33301e-05 4.17926e-05)
(0.732079 -2.6262e-05 3.66515e-05)
(0.732204 -2.42142e-05 3.69773e-05)
(0.732078 -2.89427e-05 3.5604e-05)
(0.7322 -2.62025e-05 3.78628e-05)
(0.732079 -3.17737e-05 3.50618e-05)
(0.732199 -2.62839e-05 3.29307e-05)
(0.732082 -3.41455e-05 3.21505e-05)
(0.732199 -2.65837e-05 3.30345e-05)
(0.732086 -3.2222e-05 3.76608e-05)
(0.732198 -2.23676e-05 3.75296e-05)
(0.732089 -3.25082e-05 3.58644e-05)
(0.732198 -2.44293e-05 3.30725e-05)
(0.732094 -3.58899e-05 3.50877e-05)
(0.7322 -1.99372e-05 3.58542e-05)
(0.732096 -3.30252e-05 3.41398e-05)
(0.732199 -1.91688e-05 3.12813e-05)
(0.732098 -3.75999e-05 2.81772e-05)
(0.732201 -2.30207e-05 3.04845e-05)
(0.7321 -3.31565e-05 3.27145e-05)
(0.732202 -1.66979e-05 3.07065e-05)
(0.732097 -3.05212e-05 3.05767e-05)
(0.732199 -2.10612e-05 2.73509e-05)
(0.732094 -3.6675e-05 3.24432e-05)
(0.732201 -2.31544e-05 3.20712e-05)
(0.732093 -3.19111e-05 3.50712e-05)
(0.732201 -2.53521e-05 3.03992e-05)
(0.732091 -3.42399e-05 3.15921e-05)
(0.732202 -2.81886e-05 3.22127e-05)
(0.732089 -3.23738e-05 3.70516e-05)
(0.732203 -2.43024e-05 3.60078e-05)
(0.732086 -2.9449e-05 3.43348e-05)
(0.667773 -3.50956e-05 2.61483e-05)
(0.667657 -3.77879e-05 3.57507e-05)
(0.667776 -3.25064e-05 4.0848e-05)
(0.667653 -3.52989e-05 4.01827e-05)
(0.667778 -2.99921e-05 3.55675e-05)
(0.66765 -3.59578e-05 3.31286e-05)
(0.667777 -2.83366e-05 4.02483e-05)
(0.66764 -3.76786e-05 3.90133e-05)
(0.667774 -3.10409e-05 4.32448e-05)
(0.667636 -3.30489e-05 2.55285e-05)
(0.667776 -3.39724e-05 3.2615e-05)
(0.667637 -3.55954e-05 2.85015e-05)
(0.667779 -3.68691e-05 4.129e-05)
(0.667638 -3.78359e-05 2.83546e-05)
(0.667782 -3.65273e-05 2.85922e-05)
(0.667647 -4.32908e-05 1.90184e-05)
(0.667787 -3.66755e-05 3.13429e-05)
(0.667652 -4.0595e-05 3.22199e-05)
(0.667784 -3.2807e-05 3.77416e-05)
(0.667656 -4.22655e-05 2.34133e-05)
(0.66778 -3.70082e-05 2.78333e-05)
(0.667664 -4.56691e-05 2.66391e-05)
(0.667777 -3.07861e-05 3.84691e-05)
(0.667663 -4.29738e-05 2.6305e-05)
(0.667772 -3.11683e-05 2.26628e-05)
(0.667664 -5.03907e-05 1.55351e-05)
(0.667772 -3.41379e-05 2.70547e-05)
(0.667668 -4.26501e-05 3.08085e-05)
(0.667767 -2.55018e-05 2.65776e-05)
(0.667666 -4.02811e-05 2.04718e-05)
(0.66776 -3.10773e-05 1.75257e-05)
(0.667664 -4.82115e-05 2.80998e-05)
(0.667762 -3.11123e-05 3.24593e-05)
(0.667662 -4.13067e-05 3.24456e-05)
(0.667761 -3.56426e-05 2.3979e-05)
(0.66766 -4.40711e-05 2.4269e-05)
(0.667762 -3.88954e-05 2.81278e-05)
(0.66766 -4.08744e-05 3.85975e-05)
(0.667764 -3.33794e-05 3.48458e-05)
(0.667658 -3.78071e-05 2.93872e-05)
(0.602471 -4.00508e-05 -3.86357e-06)
(0.602381 -4.0266e-05 1.96063e-05)
(0.602459 -3.51934e-05 2.6211e-05)
(0.602366 -3.67036e-05 2.20177e-05)
(0.602465 -3.57437e-05 -3.51756e-06)
(0.602363 -3.98137e-05 -2.23698e-06)
(0.602467 -3.21882e-05 1.20266e-05)
(0.602347 -4.31397e-05 2.97458e-05)
(0.602475 -3.5011e-05 1.70486e-05)
(0.602352 -3.71584e-05 -1.19351e-05)
(0.602488 -3.91475e-05 1.61834e-06)
(0.602349 -4.04111e-05 -2.35886e-06)
(0.602493 -4.28652e-05 3.77679e-05)
(0.602349 -4.43335e-05 -7.85509e-07)
(0.602509 -4.19817e-05 7.74266e-06)