/*--------------------------------*- C++ -*----------------------------------*\
  =========                 |
  \\      /  F ield         | OpenFOAM: The Open Source CFD Toolbox
   \\    /   O peration     | Website:  https://openfoam.org
    \\  /    A nd           | Version:  10
     \\/     M anipulation  |
\*---------------------------------------------------------------------------*/
FoamFile
{
    format      ascii;
    class       volSymmTensorField;
    location    "4";
    object      UPrime2Mean;
}
// * * * * * * * * * * * * * * * * * * * * * * * * * * * * * * * * * * * * * //

dimensions      [0 2 -2 0 0 0 0];

internalField   nonuniform List<symmTensor> 
25600
(
(0.000190579 -6.36108e-07 2.74939e-05 1.43712e-08 -5.91177e-08 1.57025e-05)
(0.000178248 -1.50189e-06 1.11057e-05 1.85993e-08 1.87543e-08 1.57369e-05)
(0.000141697 -1.97442e-06 -4.74393e-05 3.78271e-08 1.309e-06 6.46078e-05)
(0.000100651 -5.0522e-07 -1.40299e-05 6.92193e-09 2.4698e-07 3.99856e-05)
(0.000136911 1.06423e-06 1.83638e-05 2.50944e-08 1.6986e-08 1.59107e-05)
(0.000424828 4.56701e-06 -0.000136033 7.29415e-08 -1.91014e-06 7.38077e-05)
(0.000190359 -2.18388e-06 -0.000119274 6.30813e-08 2.18797e-06 0.00013394)
(8.46774e-05 9.62055e-07 1.81247e-05 3.95313e-08 8.19471e-07 3.63795e-05)
(0.000120336 1.66343e-07 1.78186e-05 8.25944e-09 1.82719e-07 1.58277e-05)
(8.90511e-05 -1.14509e-06 3.29166e-05 2.92457e-08 -4.52118e-07 2.32233e-05)
(4.95525e-05 -6.16939e-07 3.83479e-05 1.95588e-08 -8.45003e-07 6.26675e-05)
(4.27072e-05 -1.53168e-07 3.11212e-05 8.13171e-09 -4.18956e-08 7.19675e-05)
(6.45866e-05 6.65825e-07 2.59431e-05 3.60357e-08 4.69307e-07 2.83962e-05)
(0.000101806 1.43833e-06 8.3766e-06 5.11453e-08 -3.78841e-08 1.71072e-05)
(0.000145646 7.13819e-07 8.31429e-06 1.86929e-08 -3.66645e-08 1.63902e-05)
(0.000175249 1.17856e-07 1.04877e-05 1.26866e-08 -2.02256e-08 1.62453e-05)
(0.000203149 1.00206e-07 8.2288e-06 1.0447e-08 1.45239e-08 1.48324e-05)
(0.000194136 3.04319e-07 6.90996e-07 6.72176e-09 9.04979e-09 1.1764e-05)
(0.000160096 2.16387e-07 -1.30405e-05 3.66643e-09 2.57933e-09 1.1205e-05)
(0.000164997 -6.09599e-07 -3.09553e-05 7.85594e-09 2.55139e-07 1.66721e-05)
(0.000197231 -8.56525e-07 -7.12237e-05 9.78777e-09 5.45829e-07 4.51551e-05)
(0.000171707 -4.3145e-07 -7.65602e-05 6.57765e-09 3.82867e-07 6.06294e-05)
(0.000130043 -1.92402e-07 -4.04396e-05 7.53319e-09 1.50599e-07 2.68088e-05)
(0.000103221 -1.51705e-07 -1.19123e-05 1.01466e-08 6.80576e-08 1.35248e-05)
(8.99771e-05 -2.95116e-07 -9.92342e-06 1.40317e-08 1.38162e-07 4.87205e-05)
(8.54978e-05 -4.62367e-07 -1.96204e-05 1.5713e-08 2.27561e-07 5.22998e-05)
(8.76916e-05 -2.55979e-07 -2.45549e-05 1.78845e-08 -1.49033e-07 2.9964e-05)
(0.000104992 3.02993e-07 -2.25503e-05 2.43667e-08 -1.34035e-07 2.32819e-05)
(9.94164e-05 6.32783e-08 -1.98917e-05 1.37107e-08 1.8588e-09 2.30947e-05)
(0.000106904 -3.61477e-07 -1.68416e-05 9.42692e-09 5.25047e-08 2.34707e-05)
(8.75949e-05 -1.03941e-06 1.87501e-05 2.29709e-08 -5.70948e-07 4.0351e-05)
(4.55335e-05 -2.27812e-07 7.78272e-06 1.38302e-08 -6.77062e-07 6.43939e-05)
(4.94703e-05 -8.14827e-08 2.71369e-06 1.06802e-08 1.13712e-08 2.8927e-05)
(4.15861e-05 -1.12561e-07 8.55208e-06 1.73648e-08 -1.06709e-07 2.21207e-05)
(4.76207e-05 -8.04901e-08 1.905e-05 9.64597e-09 5.77846e-09 2.28381e-05)
(8.62746e-05 -3.325e-07 4.96647e-05 9.96168e-09 -2.19168e-07 4.46781e-05)
(0.000126934 -2.35923e-07 6.95454e-05 9.40187e-09 -1.82713e-07 5.85765e-05)
(9.04495e-05 1.53643e-08 4.24703e-05 9.3999e-09 7.15591e-09 4.08124e-05)
(0.000102601 6.00313e-07 -5.36433e-06 1.62749e-08 -1.67964e-08 1.74935e-05)
(0.000175123 4.40034e-07 -3.24074e-05 1.61105e-08 -6.00798e-08 2.55483e-05)
(0.00149267 -1.35371e-05 0.000148054 5.33512e-07 -2.26148e-06 7.19322e-05)
(0.0015712 -2.51648e-05 0.000297572 5.87743e-07 -4.80532e-06 0.000107181)
(0.0014745 -1.43249e-05 -0.00020464 2.69942e-07 -3.62173e-07 0.000173132)
(0.000832811 -4.18549e-06 -0.000129633 1.5942e-07 -3.02429e-06 0.00024309)
(0.000547333 -1.64844e-05 0.000100281 1.17194e-06 -4.51707e-07 7.95216e-05)
(0.0029148 -7.49842e-05 -0.000569724 2.34598e-06 1.65258e-05 0.000247111)
(0.00534491 -8.5697e-06 -0.00169934 5.5868e-07 -2.82027e-07 0.000690881)
(0.000707326 1.75839e-07 -0.000181611 3.28185e-07 -2.83807e-06 0.000218621)
(0.000994781 -7.67929e-06 0.000120473 2.89531e-07 -2.31286e-06 9.59733e-05)
(0.00094393 -2.22198e-05 0.000273908 7.99955e-07 -9.04233e-06 0.000155745)
(0.000487365 -1.00032e-05 0.000281604 3.38358e-07 -8.36198e-06 0.000361682)
(0.000350775 -4.15632e-06 0.000165271 2.79577e-07 2.69173e-06 0.000363974)
(0.000474501 1.60694e-06 0.000139643 7.49384e-07 4.91517e-06 0.000159393)
(0.000803209 4.64277e-06 8.02812e-05 5.54038e-07 8.4966e-07 9.97169e-05)
(0.00126846 -5.56658e-06 5.58997e-05 3.44872e-07 -7.12562e-08 9.76116e-05)
(0.00154965 -8.17312e-06 4.44628e-05 3.99975e-07 4.46514e-07 9.9266e-05)
(0.0017942 -1.39516e-06 2.69594e-05 3.9312e-07 1.31173e-06 9.42529e-05)
(0.0018872 2.95544e-06 -1.37612e-05 3.17974e-07 8.81561e-07 7.59285e-05)
(0.00172883 -5.48467e-06 -9.4232e-05 1.98178e-07 4.76785e-07 6.31047e-05)
(0.00164335 -2.06725e-05 -0.000210768 5.30318e-07 4.21699e-06 8.2692e-05)
(0.00174842 -2.60287e-05 -0.000372332 7.00078e-07 8.71537e-06 0.00015146)
(0.0016153 -2.22617e-05 -0.000341105 5.69225e-07 7.45255e-06 0.000134667)
(0.00135338 -1.61299e-05 -0.000155235 4.20392e-07 3.16897e-06 5.21153e-05)
(0.00108573 -1.12568e-05 7.19554e-07 3.74133e-07 9.98738e-07 8.75239e-05)
(0.000880709 -1.03373e-05 1.82584e-05 4.51338e-07 1.84101e-06 0.000328549)
(0.000788487 -1.05015e-05 -2.81459e-05 4.60795e-07 1.74062e-06 0.000310234)
(0.000696176 -8.58834e-06 -6.44329e-05 3.92426e-07 -1.70448e-07 0.000101924)
(0.000832583 -4.18838e-06 -3.95543e-05 3.44788e-07 1.74088e-07 7.32624e-05)
(0.000836353 -8.73221e-06 -5.49704e-05 2.71037e-07 -1.62072e-07 7.28145e-05)
(0.000857594 -1.62136e-05 -0.000102527 4.95146e-07 9.32031e-07 7.90886e-05)
(0.00118275 -2.1947e-05 0.000101539 5.7205e-07 -3.39309e-06 9.64919e-05)
(0.000584057 -1.15353e-05 0.000160293 3.57831e-07 -3.13846e-06 0.000291297)
(0.000518453 -9.3378e-06 -3.85069e-05 3.43231e-07 2.96758e-06 0.000166556)
(0.000482796 -6.89709e-06 1.26079e-05 2.78169e-07 1.3048e-06 9.20726e-05)
(0.000459975 -8.43752e-06 6.60744e-05 4.08431e-07 2.1e-07 8.31554e-05)
(0.000612235 -1.57306e-05 0.0002093 5.96047e-07 -4.7888e-06 0.000140293)
(0.000868835 -1.86648e-05 0.00034004 5.54278e-07 -7.24623e-06 0.000217959)
(0.000715834 -1.54219e-05 0.000282186 5.16717e-07 -7.40736e-06 0.000230417)
(0.000704371 -5.11072e-06 4.24701e-05 3.36259e-07 -1.34699e-06 6.24522e-05)
(0.00120767 4.00724e-06 -0.00023286 5.44713e-07 -4.349e-06 0.000159767)
(0.00271019 -3.32267e-05 -0.000147598 2.39665e-06 -5.90478e-06 0.000136321)
(0.00257676 -6.89478e-05 0.000693792 2.89961e-06 -2.01546e-05 0.000285777)
(0.0025119 -6.27455e-05 0.000314356 2.15205e-06 -1.04822e-05 0.000118238)
(0.00247145 1.46228e-05 -0.000428064 1.89887e-06 -2.27979e-05 0.000367619)
(0.00137541 -3.21851e-05 8.83832e-05 1.51639e-06 -3.24547e-06 0.000142165)
(0.00106318 -0.000110782 0.00012887 2.71607e-05 8.0406e-06 0.000133458)
(0.0112452 -0.000339375 -0.00253789 1.3097e-05 7.68078e-05 0.00079994)
(0.00738749 0.000135873 -0.00168718 5.52176e-06 -4.10312e-05 0.000575661)
(0.00102541 -2.06097e-05 7.06482e-05 5.62842e-06 -2.22206e-05 0.000200528)
(0.00215882 -5.83953e-05 0.000503279 3.25888e-06 -2.1085e-05 0.000244328)
(0.00116764 -2.91778e-05 0.000611614 1.76241e-06 -2.03233e-05 0.000671964)
(0.000704604 -1.56275e-05 0.00023806 1.74119e-06 9.66887e-06 0.000726205)
(0.000828981 -3.78453e-06 0.000173704 4.44356e-06 1.94725e-05 0.000283944)
(0.00143553 2.95425e-06 0.000152087 2.75814e-06 8.21204e-06 0.00019391)
(0.0024235 -3.4345e-05 0.000145261 1.87286e-06 1.92426e-06 0.000189961)
(0.00319336 -5.13022e-05 0.000104389 2.25367e-06 2.25699e-06 0.00019246)
(0.00388979 -3.87347e-05 6.40145e-05 1.93058e-06 5.30454e-06 0.000191733)
(0.00477934 -8.97501e-06 8.73367e-06 1.59425e-06 6.51998e-06 0.000168666)
(0.00496608 -1.61327e-05 -0.000106755 1.17789e-06 2.96571e-06 0.00012219)
(0.0045252 -7.23874e-05 -0.000340774 2.13931e-06 7.21391e-06 0.000113625)
(0.00452234 -0.000107371 -0.000664374 3.93465e-06 2.17846e-05 0.000195486)
(0.00433928 -0.000110282 -0.000583654 4.15484e-06 2.06214e-05 0.000162101)
(0.0037146 -8.4689e-05 -0.000152345 3.07782e-06 5.98877e-06 7.13667e-05)
(0.00289845 -5.51864e-05 0.000140959 2.44856e-06 -2.94115e-07 0.000155213)
(0.00210884 -3.84616e-05 0.000218015 2.69083e-06 3.14594e-06 0.000573504)
(0.00179751 -3.36062e-05 0.000232987 2.59964e-06 6.23414e-07 0.000798126)
(0.00148109 -2.81217e-05 6.70142e-05 2.07402e-06 -2.96776e-06 0.000249051)
(0.00145994 -2.06497e-05 6.12419e-05 1.62e-06 -1.12176e-06 0.000133707)
(0.00177519 -2.5226e-05 0.000185089 1.58701e-06 -3.85919e-06 0.00014371)
(0.00133451 -4.76671e-05 -1.33509e-05 3.74787e-06 -1.27743e-06 8.65824e-05)
(0.0020755 -9.05929e-05 -0.000106232 5.55073e-06 3.97688e-06 7.99147e-05)
(0.00246896 -4.77417e-05 0.000353841 2.79443e-06 1.75891e-06 0.000206455)
(0.00128167 -3.93753e-05 5.04016e-05 3.48837e-06 1.96547e-05 0.000325508)
(0.0013009 -4.0401e-05 -7.1142e-05 2.51197e-06 8.94658e-06 0.000167974)
(0.00108257 -3.55413e-05 5.8486e-05 3.19601e-06 1.14323e-06 0.000127558)
(0.00125771 -5.13564e-05 0.000239141 3.50094e-06 -9.54064e-06 0.000135445)
(0.00148265 -6.06391e-05 0.000411167 3.15409e-06 -1.74364e-05 0.000197516)
(0.00142747 -6.89963e-05 0.000539994 4.32084e-06 -3.56985e-05 0.000410345)
(0.00129312 -4.75424e-05 0.000334812 2.82061e-06 -1.8353e-05 0.000197338)
(0.00185275 -2.29981e-05 -0.000264822 2.07114e-06 -6.86106e-06 0.000228821)
(0.00273558 -7.67198e-05 -0.000531879 5.95903e-06 -8.58285e-08 0.000283075)
(0.00331785 -8.55935e-05 0.000554836 5.28411e-06 -2.12104e-05 0.000219742)
(0.00170455 -8.19901e-05 0.000510827 5.60731e-06 -3.26683e-05 0.000313811)
(0.00205399 -3.49622e-05 -0.000165841 2.91499e-06 -1.61059e-05 0.000228067)
(0.00264784 1.72661e-05 -0.000171529 3.63377e-06 -2.31499e-05 0.00020594)
(0.000844634 -3.36542e-05 0.000193747 2.91824e-05 -3.08407e-05 0.000153918)
(0.00341286 -0.000405445 -0.000596191 6.48166e-05 9.74372e-05 0.000356212)
(0.0115701 8.52399e-05 -0.00197191 7.37206e-06 -2.85815e-05 0.000545666)
(0.00200026 0.000128897 -0.000292808 2.70585e-05 -6.02214e-05 0.000263226)
(0.0024055 -0.000107348 0.000498886 1.09374e-05 -3.56876e-05 0.000237339)
(0.00219306 -3.70337e-05 0.000932148 4.29267e-06 -1.12565e-05 0.000631567)
(0.000989107 -2.5879e-05 0.000300728 4.90585e-06 2.34168e-05 0.000897642)
(0.000915505 -3.15437e-05 7.09388e-05 1.12109e-05 3.83588e-05 0.0003058)
(0.00138886 4.70776e-06 0.000103641 9.60817e-06 2.58967e-05 0.000208862)
(0.00243912 -4.76411e-05 0.000280852 4.79578e-06 1.12875e-05 0.000263882)
(0.00341815 -9.82664e-05 0.000272831 6.13393e-06 3.78006e-06 0.000248093)
(0.00431518 -0.000109994 0.000187633 5.93683e-06 7.07961e-06 0.000226718)
(0.00584155 -9.13726e-05 8.51866e-05 4.78606e-06 1.18168e-05 0.000204534)
(0.00761975 -6.18624e-05 3.16889e-06 3.79951e-06 9.60779e-06 0.000163325)
(0.00757459 -0.00012747 -0.000271773 4.6792e-06 8.90989e-06 0.000127057)
(0.00718141 -0.000204924 -0.000818074 8.70841e-06 2.92734e-05 0.000195155)
(0.00677436 -0.000235919 -0.000824144 1.15587e-05 3.47723e-05 0.000191073)
(0.00565079 -0.000187129 -0.000139965 9.65291e-06 6.62682e-06 8.58833e-05)
(0.00411443 -0.00011823 0.000309516 7.88938e-06 -7.50763e-06 0.000193339)
(0.00266589 -6.92496e-05 0.000361643 7.55487e-06 -7.55611e-06 0.000578952)
(0.00225927 -5.72242e-05 0.000517512 7.15261e-06 -1.66177e-05 0.00110307)
(0.00207247 -5.20714e-05 0.000369713 6.08032e-06 -1.33866e-05 0.000488528)
(0.00151648 -3.38777e-05 -5.01054e-06 4.68943e-06 -9.96518e-07 0.000215816)
(0.00192807 -3.28163e-05 0.000413548 4.65854e-06 1.79914e-06 0.000449792)
(0.00151633 -6.03455e-05 0.00011063 7.29508e-06 -9.9741e-06 0.000247094)
(0.00137589 -8.96169e-05 -5.53561e-05 1.95009e-05 -3.90198e-06 0.000109049)
(0.00236333 -0.000127704 3.94563e-05 1.23219e-05 -2.66598e-06 8.71624e-05)
(0.00217662 -3.94705e-05 0.00022928 1.12666e-05 1.41816e-05 0.000170259)
(0.00137855 -7.40952e-05 -3.32159e-05 8.15542e-06 1.08714e-05 0.000222194)
(0.00126355 -6.5205e-05 4.67395e-05 1.20395e-05 -1.37779e-05 0.000203209)
(0.00163217 -0.00010382 0.000281046 1.06597e-05 -2.41802e-05 0.000179346)
(0.00172538 -9.05031e-05 0.000342992 6.9214e-06 -2.21842e-05 0.000160056)
(0.00153629 -0.000117957 0.000453528 1.28867e-05 -5.45761e-05 0.000318524)
(0.00162653 -0.000119888 0.000534279 1.40588e-05 -6.8399e-05 0.000416751)
(0.00190463 -8.55594e-05 -3.89325e-05 7.64494e-06 -7.13574e-06 0.000140637)
(0.00246824 -0.000132863 -0.000665897 1.45365e-05 2.01786e-05 0.000352837)
(0.00382282 -9.41671e-05 0.000119083 8.24998e-06 -1.64876e-05 0.000120727)
(0.00145792 -6.8136e-05 0.000378671 7.31626e-06 -3.14619e-05 0.000306231)
(0.00109001 -6.95971e-05 -1.73419e-05 8.00812e-06 -1.31645e-05 0.000150693)
(0.00211921 2.80047e-05 -0.000183266 8.20557e-06 -3.52265e-05 0.000194465)
(0.000901823 -6.1641e-05 0.000201721 1.99215e-05 -4.86925e-05 0.000197764)
(0.000964817 -0.000135961 7.24579e-05 0.000128868 1.33367e-05 0.000151068)
(0.00821028 -0.000111436 -0.00111078 1.26847e-05 -3.18473e-06 0.000336712)
(0.00302737 0.000289712 -0.000334593 6.38965e-05 -8.45286e-05 0.000227637)
(0.00204493 -0.000148018 0.000376695 2.54424e-05 -4.80097e-05 0.000198217)
(0.00288753 9.55634e-06 0.000737962 9.76647e-06 1.1376e-05 0.000296927)
(0.00120238 -1.23354e-05 0.000394085 1.40821e-05 6.03471e-05 0.000614264)
(0.00117797 -8.51271e-05 -7.04238e-05 1.8023e-05 4.91773e-05 0.000266627)
(0.000982589 -3.40669e-05 2.49596e-05 1.65518e-05 2.92001e-05 0.00014414)
(0.00186619 -3.54816e-05 0.000351872 8.44147e-06 2.37062e-05 0.00029828)
(0.00245571 -8.56551e-05 0.000524032 8.84992e-06 1.46431e-06 0.000370048)
(0.00292401 -0.000127812 0.000398263 1.01751e-05 -2.73055e-06 0.000269425)
(0.00429816 -0.000181773 0.000208793 1.17563e-05 3.38469e-06 0.000187318)
(0.00701902 -0.000173335 3.32134e-05 9.23733e-06 9.89881e-06 0.000147846)
(0.00863089 -0.000178779 -0.000166933 8.49025e-06 1.09109e-05 0.00012788)
(0.00845716 -0.00025356 -0.000788897 1.28094e-05 3.14588e-05 0.000190456)
(0.00785535 -0.000316071 -0.00095867 1.91998e-05 4.60299e-05 0.000218323)
(0.0063445 -0.00024719 -0.000229843 1.63534e-05 1.02046e-05 9.34404e-05)
(0.00447735 -0.000157097 0.000319975 1.3752e-05 -1.08981e-05 0.000185312)
(0.00275834 -9.94402e-05 0.000382537 1.35148e-05 -1.91611e-05 0.000493539)
(0.00236554 -0.000102545 0.000569374 1.53826e-05 -5.45108e-05 0.0010196)
(0.00241172 -0.000118182 0.000478589 1.58387e-05 -3.93253e-05 0.0005503)
(0.00166088 -4.6157e-05 -0.000167092 9.00781e-06 7.77262e-06 0.000275169)
(0.00140803 -4.93548e-05 0.0001417 9.65895e-06 1.76299e-06 0.000753849)
(0.00142863 -6.59508e-05 9.45661e-05 1.31387e-05 4.45573e-06 0.000532134)
(0.00131303 -8.16494e-05 -8.92202e-05 2.72334e-05 -2.87462e-05 0.000230324)
(0.00121618 -0.000106939 1.94181e-05 2.80301e-05 -2.1239e-05 0.000125573)
(0.00168111 -7.7008e-05 6.30066e-05 1.75458e-05 -7.24327e-06 0.000118626)
(0.00134013 -7.95817e-05 3.70984e-05 1.4841e-05 -2.30338e-06 0.000173713)
(0.00115367 -8.29337e-05 1.06839e-05 3.03872e-05 -2.77956e-05 0.000217482)
(0.00136779 -0.000156467 0.000218585 3.19587e-05 -5.30875e-05 0.000221685)
(0.0018785 -0.000125583 0.000297245 1.34708e-05 -2.86916e-05 0.000181394)
(0.00139114 -0.00014326 0.000283031 2.19205e-05 -5.71807e-05 0.000284964)
(0.00152029 -0.00018954 0.000495156 3.62892e-05 -0.000111839 0.000455278)
(0.00203028 -0.000162348 4.04394e-05 2.175e-05 -2.21109e-05 0.000132208)
(0.00221373 -0.000184332 -0.000575394 3.01278e-05 3.0776e-05 0.000277263)
(0.00429521 -0.000110747 -0.000318797 1.2918e-05 -1.16084e-05 0.000126242)
(0.00177282 -7.21037e-05 0.000271978 9.89162e-06 -2.4695e-05 0.000166451)
(0.000776714 -8.15495e-05 -2.38159e-06 1.48197e-05 -1.69202e-05 0.000117243)
(0.00132954 -8.02979e-06 -0.000128197 1.1971e-05 -3.25978e-05 0.000163571)
(0.00108868 -0.00010112 0.000302186 1.62643e-05 -5.03074e-05 0.000242736)
(0.000793625 -9.94943e-05 0.000123122 0.000193479 -0.000120064 0.000173759)
(0.00440499 -0.000297274 -0.000397923 3.43258e-05 1.10384e-05 0.000185797)
(0.00297743 0.000339144 -0.000250629 9.55072e-05 -9.40415e-05 0.0001839)
(0.00111434 -5.97792e-05 0.000116131 5.30783e-05 -3.85963e-05 0.000126984)
(0.0012699 -1.28847e-05 9.63388e-05 1.89998e-05 -1.46181e-05 0.000108744)
(0.000985329 -1.2212e-05 0.000178188 4.22569e-05 4.53226e-05 0.000168527)
(0.00175265 -0.000181365 -0.000135387 3.5582e-05 4.68975e-05 0.000163883)
(0.00146075 -0.000108124 6.20367e-05 1.83844e-05 1.21999e-05 8.902e-05)
(0.00102082 -5.15084e-05 0.000138429 1.13829e-05 1.3083e-05 0.000164858)
(0.00180714 -4.04669e-05 0.000631917 9.87831e-06 1.66976e-05 0.000502443)
(0.00158225 -7.83857e-05 0.000517727 1.00751e-05 -4.40649e-06 0.000476256)
(0.00213544 -0.000181405 0.000316551 2.0049e-05 -2.13963e-05 0.000220854)
(0.00458374 -0.000281441 2.01998e-05 2.33337e-05 3.92333e-06 0.000117091)
(0.0074749 -0.000263339 -0.000287554 1.63023e-05 1.51318e-05 0.000112599)
(0.00827913 -0.000276954 -0.000856902 1.71488e-05 3.58549e-05 0.000201812)
(0.00783043 -0.000339898 -0.00103049 2.43859e-05 5.45171e-05 0.000248693)
(0.00603118 -0.000248411 -0.000272653 1.99855e-05 1.39035e-05 0.000102591)
(0.00435951 -0.000175332 0.000247616 1.82146e-05 -1.05422e-05 0.000172136)
(0.00292769 -0.000126766 0.000383797 1.82427e-05 -2.32927e-05 0.000425431)
(0.00253625 -0.000167496 0.000603166 2.89701e-05 -9.05016e-05 0.000842603)
(0.00240464 -0.000225197 0.000342829 4.45675e-05 -6.99398e-05 0.000399773)
(0.00154331 -8.20662e-05 -0.000247526 1.70472e-05 2.96256e-05 0.000316018)
(0.00123254 -5.96085e-05 -0.000142918 1.58637e-05 -6.66459e-07 0.000835445)
(0.00123146 -8.15001e-05 -7.81314e-05 2.14647e-05 -6.15741e-06 0.00058344)
(0.00116347 -9.24906e-05 -5.81906e-05 3.39918e-05 -3.2006e-05 0.000283648)
(0.00100871 -7.17261e-05 -5.76098e-05 3.68122e-05 -2.82612e-05 0.000172684)
(0.000906248 -8.84361e-05 4.6516e-05 2.61504e-05 -9.1369e-06 0.000128144)
(0.00119259 -7.11635e-05 -1.51086e-05 2.50414e-05 -1.42034e-05 0.000175537)
(0.000914821 -9.70534e-05 -2.02576e-05 4.29162e-05 -2.59588e-07 0.000201024)
(0.000810278 -0.000100789 -3.09409e-06 8.09411e-05 -4.31345e-05 0.00016086)
(0.00132904 -0.00016487 7.00709e-05 3.17348e-05 -2.97987e-05 0.000140513)
(0.00125714 -0.000167519 0.000180666 3.21186e-05 -5.34054e-05 0.000249992)
(0.00110104 -0.000201466 0.000339974 6.18041e-05 -0.000142221 0.000460103)
(0.00167422 -0.000222974 0.000102937 4.75073e-05 -4.639e-05 0.000140803)
(0.00182556 -0.000237326 -0.000340866 5.56442e-05 2.42124e-05 0.00016803)
(0.00373679 -0.000163184 -0.000435858 2.34247e-05 -4.0665e-06 0.000153104)
(0.00229537 -0.000121593 8.07497e-05 1.62223e-05 -1.78691e-05 9.68206e-05)
(0.00112733 -0.00013978 5.21031e-05 2.19432e-05 -1.72339e-05 9.0125e-05)
(0.00100688 -4.43653e-05 -2.31298e-05 1.48928e-05 -2.00023e-05 0.000107425)
(0.000971839 -0.000117556 0.000333144 2.07689e-05 -5.15304e-05 0.000254738)
(0.000743087 -0.00022068 0.000218424 0.000215979 -0.000177193 0.000202592)
(0.00189144 -0.000277847 -5.06917e-05 5.94689e-05 4.70162e-06 0.000103404)
(0.00134864 0.000131453 -5.17485e-05 0.000107092 -9.67136e-05 0.000152508)
(0.00103358 2.75018e-07 0.000120369 5.50737e-05 -1.61836e-05 9.9398e-05)
(0.00122761 -0.000111617 0.000381377 2.9214e-05 -4.96226e-05 0.000274473)
(0.000930769 -0.000134997 0.000183594 5.96774e-05 -3.36958e-05 0.000116972)
(0.00106753 -0.000201581 2.97713e-05 7.60322e-05 2.5065e-05 9.18055e-05)
(0.00201215 -0.000167904 0.000272054 2.88517e-05 -1.14501e-05 0.000106465)
(0.00101814 -2.01518e-05 3.82857e-05 1.86434e-05 2.34216e-06 6.0368e-05)
(0.000884549 -3.64934e-05 0.0002818 1.31957e-05 1.77839e-05 0.000312814)
(0.00121513 -1.48825e-05 0.000570599 1.37862e-05 4.30974e-05 0.000597303)
(0.000891268 -0.000123425 0.00031715 2.49591e-05 -5.74875e-05 0.000384658)
(0.00187241 -0.000267914 0.000103643 4.6868e-05 -1.9251e-05 9.53158e-05)
(0.00445154 -0.000270156 -0.00038687 2.5479e-05 2.46215e-05 0.000106418)
(0.00707031 -0.000243993 -0.00110254 1.83021e-05 4.1986e-05 0.00027155)
(0.00718807 -0.00031892 -0.00116452 2.51335e-05 6.0143e-05 0.000297433)
(0.00501951 -0.000211082 -0.000271835 2.04857e-05 1.57793e-05 0.000107031)
(0.00373794 -0.000179228 0.000244923 2.15697e-05 -1.35934e-05 0.000187128)
(0.00297319 -0.00015787 0.000427761 2.27263e-05 -3.29027e-05 0.0004055)
(0.00279754 -0.000253292 0.000637108 4.91445e-05 -0.000118889 0.00065508)
(0.00239771 -0.000330509 0.000243614 9.07124e-05 -8.37843e-05 0.000291401)
(0.00140069 -0.000121472 -0.000251101 3.7274e-05 5.48156e-05 0.000315727)
(0.00113783 -7.32037e-05 -0.000214016 2.27341e-05 2.22797e-05 0.000809775)
(0.00111669 -7.85688e-05 -0.000217175 3.14048e-05 -1.95342e-05 0.000482389)
(0.00100171 -7.95238e-05 -0.000114606 4.6477e-05 -2.26947e-05 0.000219238)
(0.000876429 -6.71944e-05 -0.000102917 4.46957e-05 -1.38367e-05 0.000156752)
(0.000724106 -8.72901e-05 -3.2209e-05 3.61021e-05 -5.32111e-06 0.000123704)
(0.000801637 -6.17175e-05 -6.16637e-06 4.29815e-05 -1.41144e-05 0.000149898)
(0.000709466 -0.000101233 -6.5454e-05 3.49395e-05 -1.19327e-05 0.000193794)
(0.000699156 -1.81044e-05 -4.42792e-05 0.000102502 -2.21236e-06 0.000162511)
(0.000670162 -0.00010887 -8.89259e-05 7.03367e-05 -2.00534e-06 0.000153861)
(0.00102254 -0.000184704 -1.19461e-05 5.29606e-05 -3.68082e-05 0.000170982)
(0.00084976 -0.000186185 0.000157645 7.623e-05 -0.000131944 0.000389088)
(0.000868755 -0.000186068 6.37511e-05 7.78141e-05 -6.78659e-05 0.000167785)
(0.00177033 -0.000321075 -0.000180777 8.79809e-05 9.93188e-06 0.00018688)
(0.00287857 -0.000250423 -0.000402836 4.07868e-05 1.35822e-05 0.000228982)
(0.00204499 -0.000192576 -0.000126219 2.85764e-05 -2.88331e-06 0.000164219)
(0.0020412 -0.000220783 -5.05719e-05 2.99515e-05 -5.03862e-06 0.000116349)
(0.00133572 -7.08899e-05 4.13524e-05 1.77307e-05 -1.47681e-05 0.000100263)
(0.00102209 -0.00013009 0.000320811 2.65006e-05 -5.78864e-05 0.00026902)
(0.000743089 -0.000266579 0.00022342 0.000204393 -0.000160416 0.000169355)
(0.000616284 -0.000115231 9.00453e-05 5.87127e-05 -7.28708e-06 6.40427e-05)
(0.000636047 -5.18814e-05 9.27453e-05 0.000106265 -8.82402e-05 0.000129414)
(0.00110844 -2.20805e-05 2.93046e-05 3.68251e-05 -2.51924e-05 8.85952e-05)
(0.00120824 -0.00021397 0.000329729 6.08913e-05 -6.64302e-05 0.000175607)
(0.000920378 -0.00018279 0.000202413 6.28244e-05 -4.47025e-05 0.000119868)
(0.000558786 -0.000116008 5.44148e-05 8.97005e-05 1.05199e-05 8.26308e-05)
(0.000485855 -8.75292e-05 5.73384e-05 5.78442e-05 -4.25002e-05 0.00011597)
(0.000845237 -1.39565e-05 0.00012332 2.53685e-05 3.16572e-06 8.69378e-05)
(0.000672375 -4.15398e-05 -0.000114613 1.74959e-05 -1.18775e-05 0.000176316)
(0.000744833 6.95923e-06 0.000347797 2.89868e-05 6.85103e-05 0.000422429)
(0.000988234 -7.5884e-05 0.000496312 1.53569e-05 -2.41198e-05 0.000436104)
(0.000416736 -0.000118201 0.000165418 6.9026e-05 -0.000106349 0.000253416)
(0.000440694 -0.000108828 2.23874e-05 5.49061e-05 -6.00471e-06 7.08525e-05)
(0.00252308 -0.000172501 -0.000718459 2.33357e-05 5.12473e-05 0.000347829)
(0.00492685 -0.000220203 -0.00127976 2.1428e-05 5.87394e-05 0.000470526)
(0.00349253 -0.000138318 -0.000387861 1.83325e-05 1.70995e-05 0.000147896)
(0.00261899 -0.000150329 0.000200283 2.5164e-05 -2.17554e-05 0.000219452)
(0.00259065 -0.000177167 0.000495317 3.11212e-05 -5.97612e-05 0.0004674)
(0.00275469 -0.000348362 0.000681866 8.53844e-05 -0.000162484 0.000584547)
(0.00234183 -0.000429994 0.000299905 0.00014488 -0.000111754 0.000271955)
(0.00131356 -0.000159618 -0.000173492 5.52839e-05 3.95554e-05 0.000242883)
(0.00096849 -8.34787e-05 -0.000136311 3.26844e-05 2.72342e-05 0.000571687)
(0.00095085 -7.81905e-05 -0.000152868 3.96709e-05 -2.08432e-05 0.000350496)
(0.000897534 -5.41894e-05 -8.39155e-05 6.14823e-05 -7.1571e-06 0.000202053)
(0.00078611 -5.37832e-05 -0.000102324 5.46307e-05 -6.44892e-07 0.000159682)
(0.000690676 -7.44782e-05 -8.95302e-05 4.62259e-05 6.80721e-07 0.000120051)
(0.000600993 -7.33025e-05 -2.21805e-05 5.75495e-05 -9.22933e-06 0.000144643)
(0.000644903 -7.11738e-05 -1.56504e-05 4.86424e-05 -2.89752e-05 0.000197162)
(0.000638175 -4.84588e-05 2.00808e-05 7.1281e-05 -5.52222e-06 0.000215081)
(0.000687734 -5.028e-06 2.8726e-05 0.000106074 2.5773e-05 0.000237716)
(0.000757769 -0.000169244 -9.26791e-05 8.74263e-05 -9.24746e-06 0.000180243)
(0.000824052 -0.000170357 5.74828e-05 8.03559e-05 -0.000105455 0.000306294)
(0.000654654 -0.000131363 1.44444e-05 9.28259e-05 -8.48326e-05 0.000226005)
(0.00199377 -0.000424772 1.31275e-05 0.000127622 -2.35169e-05 0.000111964)
(0.00235619 -0.000283265 -0.000256425 5.61399e-05 4.38119e-06 0.000168516)
(0.00127482 -0.000163471 -4.28824e-05 3.64409e-05 -1.18252e-05 0.000117441)
(0.0021019 -0.000245779 -8.90841e-05 4.14222e-05 -1.82297e-06 8.98722e-05)
(0.00163997 -8.06152e-05 7.05269e-05 2.358e-05 -1.87834e-05 7.57697e-05)
(0.000944253 -0.000121118 0.000260783 3.86544e-05 -7.38476e-05 0.000265405)
(0.000671598 -0.000208041 0.000173286 0.000171551 -0.000156832 0.000183403)
(0.000581156 -4.1424e-05 6.23732e-05 4.17465e-05 -2.21989e-05 6.1582e-05)
(0.000595674 -0.000133118 0.000129365 7.02826e-05 -6.24781e-05 0.000125146)
(0.0016202 -9.78527e-05 -0.000200866 3.23041e-05 -1.17232e-05 0.000153325)
(0.00163544 -0.000278268 0.000176555 6.51747e-05 -2.93685e-05 9.90551e-05)
(0.000979406 -0.000172486 0.000197469 5.23208e-05 -4.55384e-05 0.000147568)
(0.000806717 -0.000175388 8.17791e-05 6.84888e-05 -1.99994e-05 8.92741e-05)
(0.000599699 -1.64269e-06 -4.13927e-05 7.61611e-05 -5.98893e-05 0.0001318)
(0.000371199 -6.34436e-05 3.91506e-05 2.61954e-05 -1.68064e-05 0.000140988)
(0.00167257 -9.99855e-06 -0.000283567 2.29191e-05 -1.99075e-05 0.000165482)
(0.000469885 -7.33668e-05 -0.000106098 2.38582e-05 3.07703e-05 0.000358048)
(0.00136979 -5.50039e-07 0.000475476 1.76666e-05 9.02637e-06 0.000290025)
(0.000546929 -8.97941e-05 0.000296808 2.56524e-05 -6.78945e-05 0.000354551)
(0.00104161 0.000153189 -0.000497118 5.53547e-05 -0.000128687 0.000446653)
(0.000735212 8.95092e-05 8.13089e-05 4.42382e-05 7.50819e-06 0.000113711)
(0.000833917 -0.000102473 -0.00042929 2.95865e-05 7.45603e-05 0.000623757)
(0.00133561 -6.74466e-05 -0.000386516 1.99985e-05 1.30603e-05 0.000338451)
(0.00127226 -9.68999e-05 0.000135712 2.85331e-05 -1.83268e-05 0.000182803)
(0.00185121 -0.000197066 0.000603996 4.6875e-05 -9.08617e-05 0.000480599)
(0.00246639 -0.000466163 0.000828629 0.000135862 -0.000207636 0.00055141)
(0.00220401 -0.000509088 0.000369339 0.000176411 -0.000106195 0.000246246)
(0.0012757 -0.000170887 -2.72922e-05 4.80147e-05 6.10895e-06 0.000212878)
(0.000771688 -7.96629e-05 4.02725e-06 3.39527e-05 -1.08065e-05 0.000310953)
(0.000770154 -8.01702e-05 2.09316e-05 4.33011e-05 -2.85802e-05 0.00024332)
(0.000803421 -5.11958e-05 4.86422e-05 6.99306e-05 1.82356e-06 0.000253418)
(0.000774149 -3.4703e-05 -1.02214e-05 6.13908e-05 -5.16151e-06 0.000196493)
(0.000747681 -5.28996e-05 -5.78702e-05 5.22824e-05 2.56187e-06 0.000167973)
(0.000632972 -8.96488e-05 3.48993e-05 6.16026e-05 -7.1652e-06 0.000187613)
(0.000676699 -0.000100466 0.000125623 7.96619e-05 -5.65127e-05 0.000263075)
(0.000751476 -9.31359e-05 0.000201139 4.85741e-05 -3.3797e-05 0.000284441)
(0.000866883 2.38979e-05 0.000214219 0.000110813 1.78904e-05 0.00026383)
(0.000630851 -0.000112816 1.64218e-05 0.000128324 6.51155e-06 0.000159656)
(0.000741401 -0.000142706 7.86688e-05 9.08407e-05 -9.38942e-05 0.000204539)
(0.000680747 -0.000123419 0.000116913 0.000104232 -0.000116368 0.000206211)
(0.00191754 -0.000517516 7.34064e-05 0.000194363 -3.43936e-05 7.90986e-05)
(0.00178507 -0.000257492 -9.73519e-05 7.28639e-05 -1.49455e-05 0.000101963)
(0.000783486 -0.000107011 7.53321e-05 4.41512e-05 -3.01556e-05 8.01025e-05)
(0.0014322 -0.000202869 5.66039e-05 5.3765e-05 -2.03117e-05 7.39835e-05)
(0.00135227 -8.65174e-05 9.4839e-05 3.7106e-05 -1.56938e-05 7.50057e-05)
(0.00064246 -9.766e-05 0.000148751 5.23482e-05 -6.37377e-05 0.000263105)
(0.000482243 -0.000110962 7.39814e-05 0.00016594 -0.000165001 0.000248508)
(0.000635956 -5.08266e-05 1.5869e-05 3.71744e-05 -2.68873e-05 8.31019e-05)
(0.000750946 -0.000160927 9.41124e-05 5.69673e-05 -3.36322e-05 8.45823e-05)
(0.00148926 -0.000174658 -0.000119984 4.5045e-05 1.38857e-06 0.000109172)
(0.0022148 -0.000301109 7.34816e-05 7.16946e-05 -7.23474e-06 8.17263e-05)
(0.000891564 -0.000142817 0.000207394 5.9848e-05 -3.17266e-05 0.000167083)
(0.00084843 -0.000163814 0.000198689 7.17202e-05 -3.33404e-05 0.000117701)
(0.000328472 -9.63637e-05 7.26596e-05 7.35787e-05 -5.28428e-05 0.000155489)
(0.000276216 -5.04271e-05 -4.81764e-06 4.35042e-05 -5.14416e-05 0.000225772)
(0.00153204 -9.21924e-05 -0.000136784 2.86233e-05 -5.91777e-06 0.000122702)
(0.00111914 -4.26988e-05 -0.000416276 2.25781e-05 -1.14354e-05 0.000345677)
(0.000715398 -1.43141e-05 0.000194669 1.88749e-05 -1.47597e-06 0.000213276)
(0.000731308 1.95116e-05 0.000274162 1.8139e-05 1.97816e-05 0.000263531)
(0.000824849 4.58338e-06 -0.00057255 1.43104e-05 -3.6266e-05 0.00073644)
(0.00272544 0.000207245 -0.000761061 3.75818e-05 -7.37934e-05 0.000371458)
(0.000818751 7.84112e-05 0.000384406 4.10302e-05 7.34076e-05 0.000427947)
(0.000406317 -2.63594e-05 2.46613e-06 2.63969e-05 3.46126e-05 0.000597626)
(0.000601159 -6.7795e-05 7.56078e-05 4.02104e-05 -6.78085e-06 0.000172499)
(0.00159344 -0.000256309 0.000580512 7.67741e-05 -0.000104138 0.000339602)
(0.00244542 -0.000568748 0.000818796 0.000179762 -0.000193692 0.00037319)
(0.00205179 -0.000552758 0.000548892 0.000205773 -0.000139545 0.000234941)
(0.00160399 -0.000199054 0.000406391 4.64576e-05 -5.33044e-05 0.000195739)
(0.000859706 -7.31301e-05 0.000207256 3.60075e-05 -3.77087e-05 0.000155207)
(0.000812912 -8.90415e-05 0.000167073 4.96234e-05 -4.12998e-05 0.000156304)
(0.000913048 -4.95908e-05 0.000193893 9.09004e-05 -3.93699e-06 0.000191391)
(0.000967212 -1.67907e-05 9.83157e-05 7.60312e-05 -3.39566e-05 0.000122233)