/*--------------------------------*- C++ -*----------------------------------*\
  =========                 |
  \\      /  F ield         | OpenFOAM: The Open Source CFD Toolbox
   \\    /   O peration     | Website:  https://openfoam.org
    \\  /    A nd           | Version:  10
     \\/     M anipulation  |
\*---------------------------------------------------------------------------*/
FoamFile
{
    format      ascii;
    class       surfaceScalarField;
    location    "19";
    object      phi_0;
}
// * * * * * * * * * * * * * * * * * * * * * * * * * * * * * * * * * * * * * //

dimensions      [0 3 -1 0 0 0 0];

internalField   nonuniform List<scalar> 
74080
(
0.00532479
-1.92832e-05
8.55125e-05
0.00535085
-4.03715e-07
3.56501e-05
0.00539407
5.46775e-06
-5.48727e-06
0.00545624
4.46414e-06
-1.85431e-05
0.00548994
1.86703e-05
-3.29501e-05
0.00546147
3.83497e-05
-6.44772e-05
0.00543339
8.28714e-05
-9.35662e-05
0.0054371
0.000120036
-0.000136318
0.0054633
9.80195e-05
-8.8222e-05
0.005499
4.61658e-05
3.06093e-05
0.00550776
-8.04623e-05
8.52143e-05
0.00545763
-0.00017634
0.000116125
0.00539464
-0.000219086
9.40415e-05
0.00533938
-0.000249528
3.032e-05
0.00530975
-0.000227022
4.98087e-06
0.00529524
-0.000175331
2.07448e-05
0.00527061
-8.95531e-05
6.11457e-05
0.00524164
-9.03526e-06
0.000107633
0.00522193
8.25344e-05
8.35035e-05
0.00526137
0.000105593
-3.82134e-05
0.00530576
0.00011054
-0.000122488
0.00534653
0.000124443
-0.000185242
0.00536189
9.93922e-05
-0.000170229
0.00529798
0.000115578
-6.99597e-05
0.00526371
8.35489e-05
-7.73347e-05
0.00525465
4.96852e-05
-8.89163e-05
0.00526733
2.46914e-05
-0.000101819
0.00529499
-3.45983e-05
-0.000139285
0.00524012
-3.23961e-05
-7.65076e-05
0.0051631
-2.87199e-05
-2.18463e-05
0.00510631
-2.43387e-05
5.39874e-05
0.00508594
1.22607e-05
0.000167819
0.00513345
4.60993e-05
0.000195983
0.00519484
9.71274e-05
0.000158505
0.0052413
0.000146065
6.5604e-05
0.00528652
0.000176618
-6.76141e-05
0.00532861
0.000175603
-0.000130732
0.00535786
0.000114884
-9.23606e-05
0.0053809
3.61669e-05
-2.75431e-05
-1.33076e-05
6.07556e-05
0.00501543
1.40904e-05
-6.97292e-05
0.00496876
5.24235e-05
1.27181e-06
0.00494868
6.74987e-05
2.29698e-06
0.00497083
6.55155e-05
-4.10529e-05
0.00497771
7.04401e-05
-6.85454e-05
0.00494647
8.11121e-05
-4.88296e-05
0.004928
7.50518e-05
6.43725e-05
0.00495001
4.0941e-05
0.000147498
0.00497167
1.63509e-05
0.000210037
0.00494854
-5.06997e-05
0.000281039
0.00483574
-0.000180201
0.000277749
0.00469946
-0.000254163
0.00026966
0.00464855
-0.000302956
0.000215934
0.00469362
-0.000277553
5.84862e-05
0.00480139
-0.00019071
-8.68807e-05
0.00487912
-0.000116667
-0.000160095
0.00487775
-2.88686e-05
-0.000134812
0.00478679
3.57379e-05
-2.90488e-05
0.00468652
8.26019e-05
2.21957e-05
0.00466436
4.23882e-05
2.20352e-05
0.00468964
2.76139e-05
7.39045e-06
0.00476945
1.11565e-05
-6.58997e-05
0.00482889
-6.42172e-06
-0.000121255
0.00484413
3.04569e-05
-0.00014947
0.00490398
-1.61762e-05
-0.000132424
0.00500242
-1.06867e-05
4.98886e-06
0.00514009
-6.83579e-06
0.000157825
0.00523494
-3.62307e-05
0.000282534
0.00520961
-2.09584e-05
0.000357897
0.00508515
-2.0532e-05
0.000299906
0.00488621
1.69077e-05
0.000157457
0.00470706
4.12878e-05
3.43752e-05
0.00458517
4.56152e-05
-4.42645e-05
0.00455247
5.28402e-05
-5.78376e-05
0.00463221
7.0731e-05
-3.23268e-05
0.00480672
0.000143804
-9.59917e-05
0.00500532
0.000187533
-0.000175696
0.00513376
0.000140274
-0.000236112
0.00516937
5.93473e-05
-0.000248115
1.02958e-05
-0.000158459
0.00436498
-1.65485e-06
5.7168e-06
0.00443022
5.99669e-05
-1.05381e-05
0.0044806
2.23019e-05
-1.98274e-05
0.00447696
-1.87935e-05
2.70448e-05
0.0043998
-2.29076e-05
5.53473e-05
0.00430384
6.98971e-05
9.48015e-05
0.0042058
0.000157002
0.000110228
0.00416218
0.000155975
1.30385e-05
0.00413121
0.000125263
-3.49033e-05
0.00406733
-1.92922e-06
-6.52692e-05
0.00398196
-0.000139653
-8.72619e-05
0.00392428
-0.000175988
-6.10229e-05
0.00393283
-0.000213455
-0.00012806
0.00398122
-0.000217649
-0.000239852
0.00405156
-0.00021545
-0.000270122
0.00411645
-0.00017551
-0.000232784
0.00418334
-6.38906e-05
-8.16278e-05
0.00420842
4.32889e-05
7.47348e-05
0.00421281
9.66166e-05
8.2376e-05
0.0042097
3.74967e-05
-1.78419e-07
0.00421672
8.99652e-06
-0.000167896
0.00425971
-3.15198e-05
-0.000307858
0.00427959
-2.91367e-05
-0.000303189
0.00435578
-2.08759e-05
-0.000226641
0.00448346
-6.94113e-05
-6.14972e-05
0.00456303
-2.99176e-05
0.000167778
0.00452929
-5.39004e-06
0.000312105
0.00437599
7.12586e-06
0.000367275
0.00428148
-1.78548e-05
0.000256198
0.00428113
-2.99137e-05
5.63115e-05
0.00429658
1.77098e-05
-5.58493e-05
0.00429853
1.57217e-07
-5.60319e-05
0.00425772
-2.76705e-05
4.15614e-05
0.0043059
-6.9141e-05
9.12732e-05
0.00448009
-2.67702e-05
4.66854e-05
0.00462707
0.000144713
-3.97092e-05
0.00462351
0.000211686
-5.36761e-05
0.00448288
0.000138592
-1.11244e-05
0.00432795
2.32946e-05
4.20487e-05
-4.15865e-05
3.80609e-05
0.00369627
8.40929e-05
0.000130023
0.00375233
0.000137621
3.11237e-05
0.00382468
3.51662e-05
-3.01042e-05
0.00380496
-3.27014e-05
-3.78349e-05
0.0037102
-6.38243e-05
-3.40022e-05
0.00365942
-1.75266e-05
5.1881e-05
0.00372402
1.61543e-05
5.69123e-05
0.00384884
2.30971e-05
-0.000145695
0.00397411
5.67868e-05
-0.000402156
0.00401673
5.80895e-05
-0.000562917
0.0038984
6.4397e-05
-0.000446009
0.00370437
8.52276e-05
-0.000195035
0.00355101
1.86385e-06
-8.57426e-05
0.00352031
-9.41961e-05
-8.1119e-05
0.00362775
-0.000196742
-8.06465e-05
0.00376213
-0.000206988
-5.54908e-05
0.00384759
-0.00010252
2.11991e-05
0.00385073
4.92141e-06
2.96074e-05
0.00381118
4.5908e-05
-9.3722e-05
0.00376546
1.93617e-05
-0.000247195
0.00375401
1.75385e-05
-0.000311351
0.003775
8.78373e-06
-0.000208064
0.00381177
2.09678e-05
-3.72584e-05
0.00389116
-2.7297e-05
2.84082e-05
0.00398202
-8.68555e-05
5.2977e-05
0.00413448
-4.93098e-05
4.53822e-05
0.00426099
4.23077e-05
3.00459e-05
0.00422312
0.00014929
9.89148e-05
0.00405269
8.87245e-05
0.000117669
0.00384464
-2.69297e-05
0.000133102
0.00380189
-0.000119854
0.000113696
0.00389073
-0.000176661
2.74697e-05
0.00398124
-0.000134541
-3.88023e-05
0.00403816
-0.000113247
-0.000135721
0.00402833
-1.94082e-05
-0.000176838
0.00405583
0.000128244
-0.000147906
0.00413399
0.000148341
-7.63743e-05
0.00411033
9.21165e-05
3.4748e-05
0.00393615
5.98091e-05
0.000114045
3.63148e-05
0.000143319
0.00368701
0.000128198
5.42811e-05
0.00369056
0.000151851
-3.22608e-05
0.0036382
3.18301e-05
-0.000115538
0.00348674
-9.12794e-06
-3.72504e-05
0.00331211
-5.65102e-05
0.000156582
0.00324482
-0.000104328
0.000343971
0.00336517
-0.000190859
0.000326397
0.00354431
-0.000211788
0.000105821
0.00364188
-0.000138427
-9.80386e-05
0.00369094
-7.6592e-05
-0.000179488
0.00377002
-5.52852e-05
-8.6403e-05
0.00389524
-5.49901e-05
3.60065e-05
0.0039381
-0.000118035
6.52905e-05
0.00380721
-0.000126087
-1.13545e-06
0.00363817
-0.000171082
-5.93454e-05
0.00349891
-0.000166415
-8.18686e-05
0.00338085
-6.96397e-05
-8.33164e-05
0.0033199
-4.813e-05
-6.72881e-05
0.00333034
-0.000104894
-0.00011345
0.0033577
-0.000130553
-9.92111e-05
0.00342283
-8.3461e-05
-3.42326e-05
0.00348258
5.2413e-06
4.2701e-05
0.00352455
5.6436e-05
0.000166336
0.00361568
-3.05378e-05
0.000205471
0.00366763
-2.47557e-05
0.000197735
0.003687
5.9393e-05
0.000131453
0.0037247
0.000105617
5.01456e-05
0.00378641
0.000111292
3.03777e-05
0.00381704
1.2536e-05
-7.44853e-06
0.00370816
-4.4157e-06
5.6542e-05
0.00354154
-5.09965e-05
5.79475e-05
0.00339782
-8.84358e-05
-4.4231e-05
0.00334782
-5.69509e-05
-0.000141351
0.0033978
-7.10819e-05
-0.00023452
0.00346509
-6.29946e-06
-0.000220878
0.00353786
6.61195e-05
-0.00016373
0.00359669
3.88363e-05
-0.000154106
0.00362356
1.83202e-05
-0.000163789
0.00363473
7.39723e-05
-9.03355e-05
9.60172e-05
8.23015e-06
0.00342612
0.000122898
-8.18466e-05
0.00340816
0.000156421
-0.000146571
0.00332487
-8.01676e-06
-0.000138828
0.00320542
-5.17404e-05
1.43754e-05
0.00307746
-7.5133e-05
0.000219426
0.00303713
-0.000107575
0.00034584
0.00311511
-0.000260894
0.000318569
0.00316015
-0.000279038
0.000229733
0.00308661
-0.00017631
0.000118511
0.00300378
-0.000164624
1.44602e-05
0.00301679
-0.000184695
8.11956e-07
0.003175
-0.000151508
-2.88234e-05
0.00342758
-0.000216841
-2.62398e-05
0.00356049
-0.000183403
2.53183e-05
0.00351927
-0.000201444
6.6871e-05
0.00338354
-0.000153669
3.19686e-06
0.00326954
4.78846e-05
-0.000187294
0.00326557
4.12815e-05
-0.0002572
0.003307
-0.000116246
-0.000166403
0.00330055
-0.000142081
-5.77533e-05
0.00331513
-0.000113058
8.41969e-06
0.00330802
1.82439e-05
3.0503e-05
0.00325727
7.94577e-05
0.000121197
0.00321726
-6.41349e-05
0.000220805
0.0031982
-7.23749e-05
0.000275234
0.00321064
-7.87649e-06
0.000186992
0.00326747
4.20805e-05
2.11295e-05
0.00337049
3.4365e-05
-4.65406e-05
0.00346565
-5.43719e-05
-6.76081e-05
0.0034823
3.95674e-05
3.51803e-05
0.00338061
0.000130092
3.20886e-05
0.00321002
0.000148348
-3.03147e-05
0.0031337
8.7596e-05
-7.72964e-05
0.00315486
-5.19826e-05
-0.000108746
0.00318026
1.92751e-05
-1.98191e-05
0.00316221
0.000150118
-1.75057e-05
0.00311151
7.88109e-05
-8.88662e-05
0.00310122
3.05782e-07
-0.00011162
0.00315788
5.20896e-05
-4.48692e-05
6.58574e-05
-2.43904e-05
0.00299342
5.55787e-05
2.90258e-05
0.00300155
4.00239e-05
4.70022e-05
0.00290316
-0.000116468
-2.01689e-05
0.00283764
-9.74528e-05
-0.0001666
0.00281856
6.98035e-06
-0.000215235
0.00282633
8.66112e-05
-4.86133e-05
0.00286975
-5.89127e-05
5.04342e-05
0.00292181
-0.000119305
5.07527e-05
0.00290498
-8.39133e-05
-4.2792e-05
0.0028704
-9.41249e-05
-0.000192899
0.0029084
-0.000142084
-0.000148752
0.00302688
-0.000108191
-1.64806e-05
0.00316761
-0.000132886
-2.68798e-06
0.00323106
-2.19821e-05
-8.33901e-05
0.00318207
-2.91859e-05
-0.00016941
0.00316106
-7.10074e-05
-0.000197682
0.00318291
2.77718e-05
-0.000176779
0.00315331
1.91417e-06
-0.00017912
0.00311679
-0.000105167
-0.000113781
0.00309487
-0.000156908
3.96273e-05
0.00309867
-0.000212278
9.31681e-05
0.00303279
-3.6077e-05
8.3408e-05
0.00291136
7.01278e-05
0.000144219
0.00281891
-5.13041e-05
0.000188836
0.00285881
-0.000102028
0.000222635
0.00298419
-0.000107461
0.000146952
0.00300767
7.24801e-05
1.83288e-05
0.00292972
0.000172161
2.71569e-05
0.00285013
2.98559e-05
8.85023e-05
0.00290429
-1.87434e-05
0.000231124
0.00304912
6.15566e-06
0.000196768
0.00317238
6.50991e-05
6.46886e-05
0.00319117
8.87691e-05
-2.80158e-05
0.00304135
-1.69185e-06
-7.26091e-05
0.00287895
4.76974e-05
6.00108e-06
0.00277492
8.78848e-05
-9.01459e-06
0.00274601
-9.44795e-05
-8.32989e-05
0.00277151
-0.000232115
-1.96491e-05
0.00277693
-8.62594e-05
5.50089e-05
5.09708e-05
1.34759e-05
0.00278906
-0.000142607
4.73302e-05
0.00279668
-0.000141896
2.40313e-05
0.00259627
-0.000136642
9.65694e-05
0.00248379
-0.000186495
0.000194795
0.00246836
-7.97695e-06
8.64256e-05
0.00253202
0.000128809
1.72047e-05
0.0026658
2.7534e-06
-2.33315e-05
0.00278127
6.52312e-05
-0.000150447
0.00273042
0.000167977
-0.000218556
0.0026264
0.000100194
-0.000111951
0.00268398
-6.43252e-05
0.000150466
0.0028603
-0.000151768
0.0001457
0.00296483
-0.00018545
-6.09421e-05
0.00297768
-4.31633e-05
-0.000194789
0.00285584
4.8115e-05
-0.000181503
0.00286814
-4.49068e-05
-0.000129248
0.00298612
-0.000159614
-2.13834e-05
0.00293483
-0.000149301
-1.44787e-05
0.00286309
-9.35363e-05
-6.00309e-06
0.00288857
-0.00017403
4.45329e-05
0.00289344
-0.000333843
-7.82009e-06
0.00279086
-0.000113825
-5.7252e-05
0.00266343
5.78518e-05
2.43853e-05
0.00256843
2.59735e-05
0.000106092
0.00260513
-5.86111e-05
0.000167943
0.00270204
-0.000187964
0.000158724
0.00272296
1.27546e-05
0.00010456
0.0026491
0.000183103
7.51197e-05
0.00256268
1.86431e-05
0.000141863
0.00266411
-9.66156e-05
0.000124941
0.00281301
-9.83048e-05
-1.29058e-05
0.00287842
-5.52343e-05
7.92562e-05
0.00284313
0.000111018
9.07987e-05
0.00268941
0.000181558
-5.28302e-05
0.00264878
0.00010853
-9.09003e-05
0.0026726
-4.63355e-06
-0.000119943
0.00258856
-0.000195008
-8.45028e-05
0.00252038
-0.00029344
-1.54781e-05
0.00256116
-6.28064e-05
-0.000112545
4.7567e-05
-0.000103609
0.00243864
-0.000171158
5.59685e-05
0.00227965
-9.9129e-05
2.95237e-05
0.00216514
-0.000132823
0.000172873
0.00226857
-0.000210727
9.87962e-05
0.00241879
-2.21455e-05
-2.3286e-05
0.00245928
-1.84262e-05
0.000231192
0.0024402
-0.000108249
0.000395369
0.00244577
0.000112408
7.26001e-05
0.00232125
0.000253929
-0.000126156
0.00214761
0.000181504
0.000159739
0.00210878
2.63314e-05
0.000364872
0.00219681
-0.000226002
0.000293232
0.00229303
-0.000318013
0.000174348
0.00237655
-0.000177015
4.31943e-05
0.00237484
2.67195e-05
-3.30813e-06
0.0024708
-4.69613e-05
-0.000126683
0.00249757
-0.000171583
-0.000120399
0.00240261
-0.000123968
-5.10269e-05
0.00238596
3.72151e-05
-5.02603e-05
0.00246737
-0.00011009
4.30012e-05
0.00255251
-0.00028894
-6.90967e-05
0.00260949
-5.23367e-05
-0.000157501
0.00258814
8.49332e-05
6.01126e-06
0.00250875
7.62028e-05
5.81415e-05
0.00247977
-0.000103879
0.000146113
0.00239827
-0.000235117
0.000162815
0.00232623
9.29266e-05
5.21035e-05
0.00229797
0.000218356
-2.30104e-05
0.00220151
0.000101004
-1.51349e-05
0.0022495
4.66799e-05
-7.18241e-05
0.00235975
-4.76728e-05
-9.85921e-05
0.00244496
-9.56261e-05
8.25429e-05
0.00243476
0.000177795
6.04551e-05
0.00240132
0.000264124
-7.75424e-05
0.00247703
0.000119418
-0.000109321
0.00248965
1.42265e-05
-0.000183266
0.00237915
-0.000111755
-8.70123e-05
0.0023786
-0.000241122
0.000110224
0.00246228
7.9959e-05
-3.41207e-05
0.000133225
-8.40357e-05
0.00215722
-0.000121103
0.00026378
0.00209374
-1.07188e-05
8.44212e-05
0.00211534
-0.000197698
0.000339972
0.00214353
-0.000206495
0.00025384
0.00219062
6.17185e-05
-0.000117678
0.00215231
5.76467e-05
-8.32037e-05
0.00214781
3.84739e-06
-3.80403e-05
0.00220736
0.000127097
-0.000153463
0.00205449
0.000232279
-0.000122972
0.00190836
0.000165967
0.000157073
0.00204168
-1.19309e-05
0.000128511
0.0022406
-0.000241302
-9.05714e-05
0.00226349
-0.000190701
-0.000145867
0.00210101
1.60918e-05
-0.000113619
0.00189788
0.000198262
-5.92383e-05
0.00185931
-8.09041e-05
9.69108e-06
0.00184528
-0.000238453
0.000185254
0.00190493
-5.26935e-05
4.71953e-05
0.00206214
7.41741e-05
-7.11866e-05
0.00211021
-0.000140386
0.00018022
0.00206282
-0.000105911
7.03706e-05
0.00215444
0.000169827
5.67677e-06
0.00227973
6.08701e-05
0.000190632
0.00221749
0.000215113
7.46459e-05
0.00217335
-6.72885e-05
0.00010109
0.00206473
-0.000232189
8.66616e-05
0.00199508
0.000216496
-5.58647e-05
0.00202801
9.5682e-05
-4.26555e-05
0.00200433
-3.64965e-05
-2.76144e-05
0.00197363
8.29553e-05
-0.00015032
0.00191759
-1.9202e-05
-9.18281e-05
0.00192678
-0.000175015
0.000353721
0.00205306
0.000106086
0.000168473
0.00225873
0.000187997
-0.000171506
0.00240729
5.06342e-05
5.38537e-05
0.00227836
4.50054e-05
7.44199e-05
0.002145
-8.08964e-05
6.82509e-05
0.00218254
-0.000300669
0.00010376
0.00226093
0.000139852
-0.000233743
0.000143153
-7.96392e-05
0.00171088
-0.000147434
0.000242848
0.00174513
-0.000181695
0.000123772
0.00190008
-0.000456721
0.000400799
0.00195384
-0.000158222
0.000128476
0.00189326
0.000132315
-0.000272042
0.00175314
2.48676e-05
-5.29666e-05
0.00181626
-4.25872e-05
-7.78082e-05
0.00192357
0.000242648
-0.000252325
0.00177645
0.000513687
-0.000169023
0.00165116
0.000163073
0.000210116
0.0017309
-0.000220922
0.000381874
0.00184303
-0.000276048
6.56353e-05
0.00184418
-4.4305e-05
-2.48417e-06
0.00179056
0.000199833
4.76613e-05
0.00181799
0.000213197
-8.50008e-05
0.00181495
-0.000234199
0.000103832
0.0016976
-0.000399113
0.000340091
0.00175735
-0.000190056
0.000165567
0.00202874
-0.000171207
-3.16473e-06
0.00198242
-0.000169907
0.000180254
0.00176901
0.000178292
8.84111e-05
0.00179892
0.000381471
8.07096e-06
0.00197327
-3.57001e-05
9.60883e-05
0.0021833
-5.72699e-06
-9.66725e-05
0.00228093
-0.000214157
-1.1867e-05
0.00229642
-0.000344587
0.000128012
0.00223976
0.000242725
8.28289e-05
0.00202176
5.10414e-05
8.69739e-05
0.00208732
-0.000371276
-9.45157e-06
0.00215108
-9.83369e-05
-0.000218967
0.0019601
2.60221e-05
-5.95857e-05
0.00190942
-0.000192548
0.000371254
0.00200559
7.34377e-05
7.04336e-06
0.00200997
0.000187636
-0.000284932
0.00194939
7.87076e-05
-3.66795e-05
0.00193483
3.42697e-05
5.7653e-07
0.00201513
-7.26063e-05
9.18766e-06
0.00206059
-0.000285663
4.99955e-05
0.00204225
0.000142194
-0.000127896
0.000125936
0.00014664
0.00184243
-0.000289793
0.000126859
0.00174503
-0.000207575
3.27639e-05
0.0015693
-0.000219723
0.000233611
0.00145733
-7.43513e-05
-9.49422e-05
0.00138923
3.6594e-05
-0.000206547
0.00148152
-0.000210543
9.97503e-05
0.00168002
-0.00034756
4.04475e-05
0.00158737
0.000270913
-4.86941e-06
0.0014127
0.00066125
4.06208e-06
0.00140829
0.00010138
0.000171784
0.0014745
-0.000414576
0.000206197
0.00153929
-0.000514203
0.000122786
0.00148873
6.85598e-05
9.9477e-05
0.00153192
0.000332509
-0.000164719
0.00168007
7.60725e-05
-0.000133142
0.00166888
-0.000253575
0.000156574
0.00166298
-0.000402246
0.000117544
0.00174908
-0.000308354
0.000184665
0.0016552
-0.00011639
0.000200046
0.00148345
-4.24354e-05
9.5428e-05
0.0015642
0.000153576
1.13821e-05
0.00158571
0.000383093
-2.99559e-05
0.00166741
-0.000131463
-2.55779e-05
0.00180429
-0.000123427
1.11029e-05
0.00161852
-3.77505e-05
0.000321355
0.00174825
-0.000384785
0.000242081
0.00186146
0.000105573
8.87587e-05
0.0016365
8.2699e-05
0.000244915
0.00171575
-0.000397167
8.59289e-05
0.00179987
-0.000104676
-0.000206065
0.0018059
-6.07776e-05
-7.78472e-05
0.00187004
-0.000192395
0.0002068
0.00176553
0.000117935
-0.000129043
0.00153534
0.000184714
-0.000315339
0.00162361
-3.90954e-05
-6.32944e-05
0.00190436
-0.00016714
0.000135947
0.00195833
-7.07366e-05
0.000269378
0.0019734
-0.000238266
0.000274055
0.00206417
-4.25824e-06
0.000353531
6.77762e-05
0.000471129
0.00131186
-0.000375553
0.000163929
0.00128811
-0.00030907
9.15014e-05
0.00129879
-0.000158119
9.88912e-05
0.00148672
-0.000256873
-0.000151611
0.00150296
-0.000185237
-0.000165365
0.00147642
-0.000309802
-3.71118e-05
0.00152211
-0.000429454
1.89289e-05
0.00152204
0.000216848
8.25074e-06
0.00160432
0.000584392
-6.88893e-05
0.0015427
0.000115292
7.97757e-05
0.00142765
-0.000413858
0.000153677
0.00141309
-0.000534968
0.000188129
0.00146076
0.000247725
-0.000145044
0.00150074
0.000437963
-0.000264781
0.00144158
0.000155512
5.66266e-05
0.00147003
-0.000343997
0.00011603
0.00153595
-0.000468073
2.06621e-05
0.00150036
-0.000282231
0.000216464
0.00140481
-7.85164e-05
0.00026544
0.00152397
-0.000127279
0.000172262
0.00182197
-7.95266e-05
0.000150836
0.00188111
0.000290673
4.58487e-05
0.00177003
-2.61132e-05
-6.70698e-05
0.00140736
0.000190184
9.70601e-05
0.00114857
0.00015821
0.000107325
0.00138086
-0.000508686
2.57317e-05
0.00149929
-6.20822e-05
0.000176034
0.00147118
2.35255e-05
0.000169561
0.00140008
-0.000297856
0.00016827
0.00128191
-9.60301e-05
1.67074e-05
0.00139128
-0.000337728
6.95681e-05
0.00153767
-0.000313977
0.000207789
0.00154709
0.000137315
-0.000196891
0.00166179
3.02931e-05
-0.000274846
0.00183751
-0.00021569
1.84497e-05
0.0017162
-3.03121e-05
0.000321066
0.00163782
0.000105191
0.00039221
0.00188803
-0.000418476
0.000256446
0.00184322
-0.000140798
0.0004741
0.00018887
0.000421957
0.00129532
-0.000265952
9.1991e-05
0.00133404
-0.000304647
0.000123193
0.00143884
-0.000237789
0.000134021
0.00148196
-0.00029037
-0.000162409
0.00139901
-0.000152207
-0.000112073
0.00132509
-0.000159663
-8.30859e-06
0.00136558
-0.000236522
-3.05974e-05
0.00145706
0.000273071
-8.91727e-05
0.00151898
0.000518507
-3.86676e-05
0.00154055
0.000135271
0.000150368
0.00137938
-0.000156147
0.000101807
0.0012209
-0.000149133
6.65683e-05
0.0014031
0.000160049
-0.000266878
0.00148227
0.000332997
-0.000125148
0.00145161
0.000193444
0.000110943
0.00148451
-0.000469498
0.000117819
0.001419
-0.000502863
0.000227414
0.00146538
-0.000236847
0.000250362
0.00147809
-5.85281e-05
0.00025953
0.00136424
-6.01449e-05
0.00025714
0.00138204
-0.000187271
0.000180266
0.0013707
0.000159323
3.53302e-05
0.00118466
0.000161762
-0.000213115
0.00107594
0.000295019
-1.12148e-05
0.00120232
-0.000110301
0.000111057
0.00128341
-0.000501358
0.000130903
0.00122218
0.000126306
0.000245278
0.00118435
4.23074e-05
1.5389e-05
0.00113852
-0.000290947
0.000121082
0.00120305
-9.45288e-05
9.76873e-05
0.00121579
-0.000263553
0.000127194
0.00122553
-0.000268412
-4.165e-06
0.00131256
-7.0024e-05
-0.000295951
0.00143512
-0.000277217
-0.000117671
0.00151352
-0.000343168
-5.05853e-05
0.00138593
0.000109983
0.000247859
0.00133415
0.000181871
0.000358057
0.00149882
-0.000439009
-4.71927e-06
0.00156461
-5.28546e-05
4.61513e-05
0.000319472
0.000155665
0.00120845
-0.000213732
0.000164292
0.00113712
-0.000137342
7.27519e-05
0.00117091
-0.000154423
-0.00010377
0.00117277
-0.000275344
-0.000242106
0.00106874
9.01667e-05
-0.000131369
0.00101487
8.20208e-05
-9.64731e-05
0.00114372
-3.76645e-05
-8.24235e-05
0.00127782
0.000360956
-0.000133512
0.00129732
0.000547058
4.16422e-05
0.00133276
0.000154714
0.000224131
0.00126876
-5.51416e-05
0.000184193
0.00116679
9.49868e-05
0.000180444
0.00121638
0.000185831
5.20083e-05
0.00131286
0.000233415
-1.70678e-05
0.00144371
-9.09862e-05
0.00015961
0.00139489
-0.000576076
0.000167921
0.00120779
-0.000427905
0.000220942
0.00126912
-0.000240542
5.54587e-05
0.00134613
4.61128e-05
-6.42836e-08
0.00124915
0.000147951
4.38453e-05
0.00125275
-0.000183006
9.59284e-05
0.00128516
8.57384e-06
-5.81587e-05
0.00119288
0.000213515
-0.000136389
0.00107157
0.000429738
4.58468e-05
0.00107801
-0.00019928
0.000151569
0.0010586
-0.000381036
0.000203289
0.00104031
0.000252159
0.000216221
0.00101821
-5.86911e-05
-3.39013e-05
0.0010379
-0.000412735
3.7064e-05
0.00119523
-0.000172403
-2.89996e-06
0.0011689
-0.000280106
0.000134725
0.0012324
-0.000302585
-1.71602e-05
0.00140331
-0.000163355
-0.000410637
0.00133513
-0.000329945
-9.04763e-05
0.00127288
-0.000333013
0.000121808
0.00130805
0.000171587
0.000372099
0.00133363
0.00013667
0.000357392
0.00135444
-0.000527213
-0.000116106
0.00137095
1.89808e-05
-0.000208284
0.000423611
8.7233e-05
0.0010929
-0.000229978
0.000258323
0.00106972
-1.95384e-05
3.51563e-05
0.00112035
-0.000182123
-5.65723e-05
0.0011139
-0.000293737
-0.000153859
0.000984809
0.000178526
-8.91009e-05
0.000921279
0.000168677
1.71581e-05
0.000997641
-8.93917e-05
0.000110068
0.00109232
0.000215105
2.65567e-06
0.0011597
0.000449335
0.000108163
0.00115144
0.000191229
0.00018059
0.00113116
3.52573e-05
8.89892e-05
0.00108646
0.000163163
-2.00264e-05
0.0010513
0.000305504
8.62156e-05
0.00105866
0.000265371
0.000119193
0.000998783
-0.00028274
0.000238487
0.000969005
-0.000726649
0.000150238
0.000969048
-0.000395801
3.66498e-05
0.00102455
-0.000176931
7.12476e-05
0.00115594
6.58764e-05
0.000134745
0.00121854
0.000168667
7.38424e-05
0.00121966
-0.000191854
0.000121428
0.00127948
-0.000112185
-2.76203e-06
0.00123502
0.000200954
-7.62635e-05
0.0010704
0.00057679
9.18795e-05
0.000977719
-0.000120929
0.000194185
0.000989075
-0.000393328
0.000172883
0.00103
3.62272e-05
0.000231008
0.000952999
-0.00010048
-7.11166e-05
0.000905007
-0.000342409
-7.45707e-05
0.00102118
-0.000261063
-6.03992e-05
0.00110184
-0.000377334
7.74219e-05
0.00120007
-0.000358572
-1.54931e-05
0.00124795
-0.000137514
-0.00023638
0.00105389
-0.000192854
-4.22776e-05
0.000931344
-0.000146684
0.000119113
0.00110869
0.000101702
0.000321266
0.00127772
4.1673e-05
0.000328732
0.00127763
-0.000468456
-9.55532e-07
0.00124347
0.000177507
-5.78268e-05
0.000461615
0.000268379
0.000993772
-0.000249043
0.000137134
0.00104114
-0.000112578
7.78545e-05
0.00109344
-0.000296791
7.02023e-05
0.00106707
-0.000337969
-9.82428e-05
0.000956323
0.000106217
-2.91319e-05
0.000920076
0.00010985
9.24194e-05
0.000905925
-0.0001485
0.000124299
0.000987987
-1.70381e-07
9.0948e-05
0.00109545
0.000369827
0.00012664
0.00111532
0.000287024
0.000130583
0.0010862
0.000178647
6.2685e-05
0.000964595
0.000285549
-3.9002e-05
0.000956618
0.000348851
1.97814e-05
0.000962217
0.000178367
0.00018598
0.000766524
-0.000250662
0.000201713
0.000728233
-0.000740802
6.25418e-05
0.000860535
-0.000576172
0.000118074
0.000879639
-0.000232034
0.000277268
0.00103018
4.0624e-06
0.000273305
0.00112613
0.000108874
0.00023229
0.00100235
-9.66685e-05
0.000140592
0.00102748
-0.000122433
-3.31029e-05
0.0010634
0.000219931
-5.95879e-05
0.000969585
0.000628665
0.0002099
0.000901017
-0.000104735
0.000282761
0.000943673
-0.000351437
3.73422e-05
0.000916381
5.55786e-05
3.83602e-05
0.000849826
-4.93187e-05
-6.91719e-05
0.00087563
-0.000285205
-7.09176e-05
0.000884682
-0.000249625
-0.000145484
0.000951629
-0.000301963
2.43418e-06
0.00106734
-0.000323518
5.13959e-05
0.00105536
-3.8337e-05
-9.21153e-06
0.000929934
-8.80856e-05
2.48048e-05
0.00096458
-0.000141377
0.000123825
0.00113288
-1.15448e-05
0.000304956
0.00115308
3.17439e-05
0.000272425
0.00111617
-0.000361495
-2.73911e-05
0.00114136
0.00023048
-0.000118106
0.000512289
0.000124592
0.000975154
-0.000300977
0.000123088
0.000977468
-0.000139123
-4.20545e-06
0.000833097
-0.000131369
-6.94225e-05
0.00081002
-0.000274986
-0.000183082
0.000819558
9.86067e-05
-2.62148e-05
0.000839467
2.83951e-05
0.000165781
0.000793612
-9.99383e-05
0.000123877
0.000883303
-0.000104316
0.000129855
0.00102498
0.000280917
0.000236904
0.00105096
0.000400359
0.000148967
0.00102697
0.000304334
3.07104e-05
0.00096584
0.000357589
8.86922e-05
0.00103929
0.000239606
7.25089e-05
0.00096305
0.000111118
0.000156183
0.000675811
-4.81424e-05
0.000163681
0.000572906
-0.000679486
0.000159764
0.000725607
-0.000819996
0.000206357
0.000832022
-0.000408735
0.000234021
0.000991632
-3.84908e-05
0.000134084
0.00100415
0.00016101
0.000152814
0.000809735
1.70285e-05
0.00010371
0.000834723
-0.000170647
-0.000130241
0.000930012
0.000197497
-7.76893e-06
0.000899665
0.000631026
0.00022527
0.000778852
7.45469e-07
0.000225182
0.000727922
-0.000191073
-7.0134e-05
0.00078313
9.74778e-05
-2.393e-05
0.000869832
-0.000231084
-3.59193e-05
0.000906947
-0.000330827
-8.79136e-05
0.000855375
-0.00020702
-0.000144467
0.000842457
-0.000142448
1.15635e-05
0.000941978
-0.000208302
0.000135609
0.000940601
2.41953e-05
-2.17821e-07
0.000838117
3.84645e-05
1.53023e-05
0.000906987
-9.13563e-05
0.000155301
0.000985962
-8.61455e-06
0.000226441
0.0010296
-2.48956e-05
0.000136389
0.000989568
-0.000257652
-6.41768e-05
0.00101048
0.000220469
-6.39052e-05
0.000463159
0.000207941
0.00083057
-0.000341512
0.000261563
0.00079093
-4.02082e-05
3.27e-05
0.000672312
8.67684e-05
-8.20775e-05
0.00071362
-0.000297798
-0.000159289
0.000780248
9.81068e-05
-5.62835e-05
0.000735786
3.66778e-05
0.000336332
0.00065439
-0.000102838
0.000180461
0.000787917
-0.000207644
-1.43735e-05
0.000961173
0.000191461
0.000137549
0.00093912
0.000599181
5.01635e-05
0.000864618
0.000416478
6.7486e-05
0.000863045
0.000256419
0.000204015
0.000946573
0.000135229
0.000101798
0.00087494
0.000118606
0.000222593
0.000636044
1.97022e-05
0.000191331
0.000516904
-0.000673043
0.000151656
0.000565064
-0.000882427
0.000188593
0.000647009
-0.000446796
0.000234952
0.000845962
-3.38941e-05
0.000158477
0.000822342
0.000228642
9.54732e-05
0.000654859
0.00010016
3.1814e-05
0.000652911
-0.000137985
-0.000121214
0.000709438
0.000238904
-7.72643e-05
0.000807727
0.000464901
0.000134619
0.000753406
5.4209e-05
0.0001132
0.000614147
-0.0001253
2.9486e-05
0.000664476
5.0842e-05
2.27764e-05
0.000790981
-0.000467479
7.28259e-05
0.000801826
-0.000456778
2.06596e-05
0.000765573
-0.000159345
-4.1778e-05
0.000751498
-4.00865e-05
3.75564e-05
0.000834
-0.000142934
0.000106087
0.000863197
5.5056e-05
-9.68708e-05
0.000777469
0.00015239
8.75727e-06
0.000761198
2.12589e-05
0.000146909
0.000805894
3.37899e-05
0.00026274
0.000844556
4.77292e-05
5.62972e-05
0.000767299
-0.000121882
-7.1622e-05
0.000816475
0.000259273
1.2302e-05
0.000383447
0.000234478
0.000687627
-0.000323165
0.000192937
0.000617131
1.94471e-05
5.75577e-05
0.000602866
9.73618e-05
-5.68718e-05
0.000713978
-0.000313713
-0.000124511
0.000791174
0.000116176
7.28205e-05
0.000725563
1.04866e-05
0.000356102
0.000583489
-0.000143294
0.000221173
0.000638186
-0.000226427
1.78822e-05
0.000777606
0.000234838
0.000129636
0.000816813
0.00072598
0.000121586
0.000792003
0.000402146
7.78912e-05
0.000784773
4.68932e-05
0.000111549
0.000869325
-2.36557e-05
0.000173085
0.00081841
2.71383e-05
0.000282405
0.000654843
-7.04809e-05
0.000200648
0.000506591
-0.000625764
0.000184434
0.000429984
-0.000821873
0.000190311
0.000473915
-0.000356342
0.000187281
0.000655133
-5.52283e-06
0.000111434
0.000658468
0.000273424
5.04012e-05
0.000561726
0.000215186
-6.47015e-05
0.000531628
-3.73687e-06
-3.4639e-05
0.000647608
0.00018952
-0.000101265
0.000780147
0.000259922
0.00010469
0.000698391
2.24973e-05
0.000171337
0.000563499
-0.000145744
0.000173254
0.000602946
-7.68531e-05
1.78839e-05
0.000712393
-0.000595675
2.24951e-05
0.000730197
-0.000531195
9.62611e-05
0.000705487
-0.000107992
-1.80602e-05
0.000685154
4.25305e-05
1.87333e-05
0.000733104
-8.85884e-05
0.000139914
0.000745077
0.000101956
-7.8985e-06
0.000697649
0.000202984
5.30003e-05
0.00074871
4.97066e-05
0.00017465
0.000780958
7.58876e-05
0.00014145
0.000674911
0.00024323
2.12273e-05
0.00056619
-4.59971e-06
-7.82607e-05
0.000700403
0.000304635
-3.5373e-05
0.000301836
0.000139627
0.00055136
-0.00034754
0.000102172
0.000555375
-6.64454e-05
2.89365e-05
0.000614048
-7.56869e-06
-3.5494e-05
0.000683777
-0.000234738
-0.000160413
0.000738963
0.000114999
8.98548e-05
0.000653261
3.42868e-05
0.000295553
0.000499893
-0.000172038
0.000165376
0.000517326
-0.00024462
0.000131551
0.000630055
0.000255706
0.000195575
0.000704069
0.000711752
0.00012714
0.000687212
0.000354166
4.85194e-05
0.000718866
-0.000137478
5.60198e-05
0.000806445
-0.000209817
0.000238955
0.000734123
-3.73691e-06
0.000251468
0.000582881
-6.10635e-05
0.000145856
0.000449979
-0.000576451
0.000162918
0.000417579
-0.000721863
9.3782e-05
0.000482407
-0.000293699
7.59146e-05
0.000567757
5.20224e-05
5.79263e-05
0.000563962
0.00034072
4.00977e-05
0.000453524
0.000247591
-8.23831e-05
0.000436708
7.89629e-05
-5.40832e-07
0.000622786
6.20343e-05
-6.31518e-05
0.000712109
0.000156596
0.000166744
0.000608066
-1.33749e-05
0.000203919