/*--------------------------------*- C++ -*----------------------------------*\
  =========                 |
  \\      /  F ield         | OpenFOAM: The Open Source CFD Toolbox
   \\    /   O peration     | Website:  https://openfoam.org
    \\  /    A nd           | Version:  10
     \\/     M anipulation  |
\*---------------------------------------------------------------------------*/
FoamFile
{
    format      ascii;
    class       volVectorField;
    location    "19";
    object      U_0;
}
// * * * * * * * * * * * * * * * * * * * * * * * * * * * * * * * * * * * * * //

dimensions      [0 1 -1 0 0 0 0];

internalField   nonuniform List<vector> 
25600
(
(1.1189 -0.0254607 0.01051)
(1.11534 -0.0191149 0.00926689)
(1.12364 -0.0187784 0.00541887)
(1.13615 -0.0197755 0.00280484)
(1.15164 -0.0133961 -0.00309311)
(1.14709 -0.00304535 -0.010049)
(1.13974 0.014871 -0.0119354)
(1.13945 0.0314583 -0.0125525)
(1.13614 0.0296062 -0.00369897)
(1.1521 0.0216309 0.00935276)
(1.1561 -0.00141785 0.0103183)
(1.14652 -0.0229097 0.00822949)
(1.14108 -0.0351583 0.00325941)
(1.12125 -0.0519005 -0.00247288)
(1.11205 -0.0602602 -0.000972932)
(1.11473 -0.0546396 0.0025421)
(1.10459 -0.0320564 0.00360785)
(1.09982 -0.00938609 0.00400445)
(1.0984 0.010485 -0.00131852)
(1.0925 0.0167641 -0.0125197)
(1.1054 0.0135723 -0.0151973)
(1.12123 0.0169792 -0.0149437)
(1.12119 0.0155713 -0.0123342)
(1.1178 0.0186736 -0.00603334)
(1.1072 0.0231716 -0.0115709)
(1.09692 0.0264674 -0.0159547)
(1.10264 0.0238533 -0.0147554)
(1.10877 0.00355929 -0.0142448)
(1.10551 -0.0167583 -0.00496306)
(1.09123 -0.0218923 0.000100115)
(1.07211 -0.0107174 0.00205581)
(1.0652 0.0130215 0.00845117)
(1.06816 0.0293955 0.0105236)
(1.08072 0.0354849 0.00857418)
(1.09533 0.0422507 0.000879558)
(1.10213 0.0443321 -0.0120851)
(1.11036 0.037698 -0.018791)
(1.12228 0.0172182 -0.015515)
(1.1256 -0.00833178 -0.00798693)
(1.12469 -0.0243314 0.0029969)
(1.16507 0.0149644 -0.0320138)
(1.14974 0.0170129 -0.0115509)
(1.13755 0.0187203 -0.00509383)
(1.14243 0.0191828 -0.00778238)
(1.15132 0.0190616 -0.0145191)
(1.14111 0.0182999 -0.0128379)
(1.13749 0.0194572 0.00868598)
(1.13726 0.0190213 0.027508)
(1.14041 0.0119855 0.039109)
(1.1525 -0.00149055 0.0372097)
(1.12881 -0.0297609 0.0177254)
(1.0951 -0.049988 0.00809123)
(1.07473 -0.0563226 0.00424186)
(1.06794 -0.052067 -0.0045006)
(1.09302 -0.0342858 -0.0134877)
(1.12223 -0.0186511 -0.0253036)
(1.1272 -0.00578897 -0.030103)
(1.1157 0.00490513 -0.0225132)
(1.09389 0.0213385 -0.0124296)
(1.06916 0.0249069 -0.00195245)
(1.07359 0.0288568 0.00382165)
(1.0924 0.0304276 -0.00337878)
(1.10507 0.0219804 -0.0128824)
(1.11744 0.0260597 -0.0198601)
(1.11926 0.0114029 -0.0172596)
(1.13725 -0.00495532 -0.000647043)
(1.17049 -0.0123265 0.0152173)
(1.19868 -0.0155982 0.025909)
(1.21256 0.002896 0.032265)
(1.19102 0.00963885 0.0281024)
(1.14893 0.000906672 0.0144096)
(1.10447 -0.00686406 -0.00136244)
(1.06555 -0.00890987 -0.0134077)
(1.04656 0.00369576 -0.0130888)
(1.05171 0.0161615 -0.00227846)
(1.08214 0.0251638 0.0021325)
(1.13292 0.0297881 -0.0041964)
(1.17507 0.0262019 -0.0242859)
(1.19267 0.0208119 -0.0434031)
(1.18564 0.0163846 -0.0455588)
(1.09602 -0.00719184 -0.00735928)
(1.11769 0.00588538 -0.00232395)
(1.12799 0.00859072 -0.00356751)
(1.14256 0.00889672 -0.000532395)
(1.12851 0.0106256 -0.00332695)
(1.10231 0.0149625 0.00784126)
(1.07847 0.0125363 0.0142047)
(1.05639 -0.000506651 -0.00210401)
(1.05192 -0.00442265 -0.0172729)
(1.04322 -0.0176974 -0.0333594)
(1.01739 -0.040317 -0.0398475)
(1.00097 -0.0474258 -0.0346379)
(0.991758 -0.0579317 -0.0448449)
(0.999266 -0.0552807 -0.0601062)
(1.01939 -0.0416071 -0.0599312)
(1.03612 -0.0278636 -0.0463502)
(1.05169 -0.00581327 -0.0137296)
(1.06489 0.00940471 0.012009)
(1.07247 0.0120582 0.0102184)
(1.06369 -0.00704063 -0.00686787)
(1.06714 -0.0165578 -0.0323399)
(1.07518 -0.0233203 -0.0490739)
(1.07995 -0.0222035 -0.046705)
(1.0927 -0.0113501 -0.0348283)
(1.11535 -0.0157472 -0.00648364)
(1.15496 0.000599602 0.0261606)
(1.16233 0.00926511 0.0414275)
(1.13058 0.000103917 0.0454891)
(1.09147 -0.0111256 0.0311984)
(1.07832 -0.0164411 0.0102991)
(1.08942 0.00466668 -0.0049339)
(1.0921 0.02213 -0.0138699)
(1.08469 0.0262371 -0.00805019)
(1.07639 0.017954 0.00244929)
(1.10537 0.0146138 0.0115481)
(1.16398 0.034652 0.0130769)
(1.18399 0.0479767 0.0051983)
(1.15983 0.032842 -0.00637712)
(1.11263 0.00473145 -0.0142224)
(1.08008 -0.0108488 -0.0156591)
(1.02688 0.00540144 0.0243406)
(1.03655 0.0167789 0.0104541)
(1.05785 0.000949872 -0.00125517)
(1.07055 -0.0144028 -0.00652805)
(1.05492 -0.0184523 -0.00993671)
(1.01437 0.0108618 -0.00577944)
(1.02327 0.0443416 -0.019427)
(1.05775 0.0559047 -0.0622985)
(1.08919 0.0503826 -0.104866)
(1.12519 0.0141165 -0.120862)
(1.11438 -0.0194969 -0.08785)
(1.0601 -0.0276952 -0.038704)
(1.00618 -0.0342014 -0.0153373)
(0.974505 -0.0347655 -0.00855519)
(0.989543 -0.0424244 -0.00061808)
(1.03391 -0.0398525 0.0111964)
(1.06395 -0.0188539 0.0236344)
(1.07892 0.00887124 0.0183996)
(1.07238 0.0264352 -0.010371)
(1.05169 0.0209435 -0.0417099)
(1.04971 0.0185968 -0.0508191)
(1.04452 0.0103287 -0.0318527)
(1.05501 0.00905544 -0.00809694)
(1.07802 0.00179275 -0.00164532)
(1.08894 -0.0130829 0.0022228)
(1.13049 -0.0118476 0.0116947)
(1.17819 -0.0104866 0.0236548)
(1.19606 0.00219457 0.0307955)
(1.16326 0.00380397 0.010809)
(1.09249 0.00274887 -0.00971046)
(1.05472 0.00179834 -0.0163607)
(1.06495 -0.0202865 -0.0177619)
(1.10224 -0.0357179 -0.0173321)
(1.12393 -0.0434969 -0.0255986)
(1.12345 -0.023815 -0.0295164)
(1.12356 0.0206225 -0.0262387)
(1.14086 0.0355794 -0.0132513)
(1.16212 0.0223601 0.0047212)
(1.13101 0.00464339 0.0188687)
(1.06492 -0.00569142 0.025915)
(1.12848 0.0261282 0.0149983)
(1.13712 0.035307 -0.00895088)
(1.12856 0.0121876 -0.0219378)
(1.0982 -0.00096647 -0.00525753)
(1.04623 -0.00939062 0.0322499)
(0.984559 -0.0171439 0.0590892)
(1.003 -0.0333893 0.0538567)
(1.06759 -0.0404355 0.0122438)
(1.10601 -0.0215892 -0.0376734)
(1.12541 0.0120009 -0.0529636)
(1.13917 0.0444597 -0.0286467)
(1.17354 0.0590385 -0.00824899)
(1.21723 0.0314531 -0.0119706)
(1.19848 -0.00642515 -0.0357018)
(1.13772 -0.0392041 -0.044857)
(1.09606 -0.0448411 -0.0352287)
(1.0488 -0.0225916 -0.0272148)
(1.02314 -0.00660019 -0.0217507)
(1.01809 -0.0067654 -0.0331067)
(1.02214 -0.0120383 -0.0351282)
(1.04165 -0.0109247 -0.0182098)
(1.05596 -0.00677259 0.00406787)
(1.07631 -0.00106957 0.0292707)
(1.09489 -0.011599 0.0382013)
(1.11823 -0.0201848 0.0377449)
(1.1297 -0.00797754 0.0247014)
(1.13547 0.0231783 0.00595922)
(1.15106 0.0536758 -0.00728669)
(1.17185 0.0306128 -0.0189118)
(1.16768 -0.0115247 -0.00660955)
(1.11194 -0.0446311 -0.00346122)
(1.05599 -0.0454447 -0.0119758)
(1.02974 -0.0162201 -0.0171458)
(1.02786 -0.00241983 -0.0250336)
(1.05171 0.0147947 -0.0265281)
(1.07691 0.0306425 -0.028357)
(1.09337 0.0226577 -0.0275585)
(1.11028 0.012685 -0.0161217)
(1.11532 0.0168308 0.00936361)
(1.11637 0.0186562 0.0239894)
(1.15074 0.0253094 -0.0116561)
(1.16425 0.0278018 -0.0383015)
(1.13391 0.00144507 -0.0503983)
(1.10885 -0.00182761 -0.0215686)
(1.06033 -0.0097431 0.0314621)
(1.01271 -0.0202543 0.0736922)
(1.03589 -0.0419113 0.0694292)
(1.07119 -0.0462611 0.0408889)
(1.05961 -0.0368134 0.0059395)
(1.02239 -0.043803 -0.0164805)
(1.00441 -0.0631577 -0.00225866)
(1.03135 -0.0727501 0.010139)
(1.11527 -0.070256 0.0116099)
(1.19428 -0.0418536 0.00200408)
(1.20893 -0.0302805 -0.0144082)
(1.16995 -0.0222504 -0.0315732)
(1.10866 -0.00678272 -0.0424087)
(1.09783 -0.0142811 -0.0290896)
(1.11192 -0.034893 -0.0103485)
(1.1163 -0.0380468 -0.00384188)
(1.1156 -0.0207799 -0.000804211)
(1.11539 0.00945186 0.00175823)
(1.11739 0.0236849 0.0146305)
(1.08887 -0.00147612 0.0295888)
(1.07596 0.00860071 0.0416557)
(1.08155 0.0312649 0.027902)
(1.08944 0.022837 0.00257501)
(1.1158 -0.00337001 -0.00942092)
(1.15576 -0.0228396 -0.0186823)
(1.18666 0.00835675 0.00835895)
(1.16484 0.0199382 0.015266)
(1.10943 0.00505611 0.00115281)
(1.06434 -0.00934579 -0.0137331)
(1.04953 -0.0264866 -0.0266603)
(1.07459 -0.0164475 0.00102254)
(1.07934 -0.00313966 0.0131395)
(1.05126 -0.00480001 -0.00162563)
(1.0453 -0.00324033 -0.00724155)
(1.05116 0.0133199 0.00390679)
(1.08109 0.0180775 0.0084465)
(1.09229 0.0278561 -0.00191563)
(1.13385 0.0368427 -0.0132165)
(1.09097 -0.00575984 -0.0402198)
(1.06251 -0.0208491 -0.0624138)
(1.04918 -0.0246544 -0.0445347)
(1.04244 -0.0268034 0.0196618)
(1.05633 -0.0633008 0.0499999)
(1.07686 -0.0624917 0.043659)
(1.0896 -0.0297762 0.00631567)
(1.06808 -0.0177249 -0.0269967)
(1.05907 -0.00989246 -0.0116462)
(1.10093 0.00949328 0.0170428)
(1.15328 -0.0143974 0.0152234)
(1.19412 -0.0255448 -0.0152498)
(1.20202 -0.0438905 -0.0488872)
(1.16585 -0.0362401 -0.0639041)
(1.17625 0.0261451 -0.0688943)
(1.18727 0.0290854 -0.0691837)
(1.15849 -0.0126979 -0.0413994)
(1.15326 -0.0209366 -0.00603785)
(1.14821 -0.0250435 0.0113745)
(1.14375 -0.00393686 0.00831282)
(1.11381 0.00764394 0.0095882)
(1.05136 -0.0223099 0.0176342)
(1.0327 -0.0364296 0.0237324)
(1.09358 -0.0316655 0.00679134)
(1.12402 -0.00522032 -0.0124782)
(1.10694 0.0154337 -0.00975622)
(1.06822 -0.000731939 0.00362077)
(1.05386 0.0077141 0.0507508)
(1.09793 0.0316203 0.0650454)
(1.16106 0.0503276 0.0493403)
(1.20465 0.0416654 0.0220308)
(1.1595 0.00563963 -0.0167777)
(1.09675 0.0251065 -0.0189404)
(1.04565 0.0637291 -0.0299316)
(1.0088 0.0353405 -0.0443598)
(1.03052 0.00298125 -0.0294229)
(1.03087 0.00849848 -0.000646766)
(1.02948 0.0108865 0.00811585)
(1.10103 -0.00596227 -0.0231085)
(1.18068 -0.018558 -0.0331969)
(1.09969 -0.0353955 -0.0257566)
(1.02389 -0.0135262 -0.00121878)
(1.00274 0.0275135 0.00810324)
(1.01522 0.0586129 0.0338172)
(1.05427 0.0396092 0.0558176)
(1.12318 0.0141547 0.0289144)
(1.14306 -0.00534696 -0.0249968)
(1.08928 -0.0202145 -0.0313708)
(1.05138 -0.0474114 0.0410958)
(1.14337 -0.0535873 0.0511779)
(1.19797 -0.0429915 -0.0234604)
(1.22184 0.0124174 -0.0979058)
(1.20558 0.0259738 -0.0940871)
(1.13253 0.00306319 -0.0449083)
(1.20501 -0.0119517 -0.038614)
(1.23587 -0.0243439 -0.0703459)
(1.16601 -0.0239938 -0.0503714)
(1.1684 -0.0376218 -0.0148269)
(1.19042 -0.0537958 -0.00981145)
(1.16919 -0.00886618 -0.0140817)
(1.11743 0.021798 -0.000291828)
(1.05575 0.00281527 0.0218481)
(1.03518 -0.00230329 0.0287973)
(1.09604 -0.00958223 0.00247718)
(1.11371 0.0324053 -0.0306191)
(1.10661 0.0512608 -0.0439748)
(1.05785 0.0116739 -0.00742738)
(1.04367 -0.014413 0.0320254)
(1.12558 -0.0267835 0.0125134)
(1.1696 -0.0176818 0.0260156)
(1.18784 -0.000403144 0.040524)
(1.12608 -0.00476815 -0.00638279)
(1.07294 -0.00603732 -0.0619651)
(1.09689 -0.0267314 -0.107152)
(1.07811 -0.0694127 -0.0918468)
(1.03724 -0.0889615 -0.0349935)
(1.02746 -0.0400564 -0.0205711)
(1.05844 0.00796116 -0.0345618)
(1.1102 -0.0539654 -0.0195393)
(1.08578 -0.0436021 -0.0301494)
(0.960943 -0.0250977 -0.012198)
(0.980966 -0.0633237 -0.00743868)
(1.06535 -0.0294912 -0.0138075)
(1.10972 -0.0056647 0.0405564)
(1.09202 -0.0358261 0.0905409)
(1.10675 0.0105121 0.0417162)
(1.083 0.0721085 -0.0280274)
(1.00449 0.0561602 0.0315026)
(0.920971 0.014767 0.0987087)
(0.979824 -0.00712147 0.0662832)
(0.998186 -0.0287921 0.0268817)
(1.05512 -0.0270043 -0.0123863)
(1.07842 -0.00566996 -0.00655585)
(1.06623 -0.0208122 0.0126912)
(1.13883 -0.0562029 -0.0019487)
(1.11124 -0.0434324 -0.042281)
(1.05656 -0.0204679 -0.0371059)
(1.08108 -0.0380104 0.00755524)
(1.1273 -0.0875263 0.00180914)
(1.17189 -0.038996 -0.0237836)
(1.18243 0.00135396 -0.00419293)
(1.13033 0.00752904 -0.0226669)
(1.12464 -0.0238831 -0.0215271)
(1.10849 -0.0698712 -0.00834833)
(1.04479 -0.0246398 -0.0173875)
(1.0488 0.0258606 -0.0211838)
(1.01155 -0.00326809 -0.006647)
(0.973942 -0.0233215 0.00264096)
(1.03633 -0.0150807 -0.0260668)
(1.09035 -0.00696318 0.00548173)
(1.10869 0.0391379 0.0315979)
(1.06539 0.0699835 -0.00157932)
(1.09984 0.0439043 -0.0373255)
(1.13637 0.0250725 -0.0815198)
(1.08731 -0.00929504 -0.0539448)
(1.05276 -0.0351896 0.0308545)
(1.08954 0.0117515 0.0269315)
(1.11779 0.0102217 -0.027415)
(1.10693 -0.00942575 0.0598846)
(1.03364 0.00683142 -0.0199245)
(1.02511 -0.0189827 0.036471)
(1.0556 -0.0148327 0.0418223)
(1.08096 0.0193991 -0.0596035)
(1.09262 -0.00040096 -0.0404225)
(1.02457 -0.00418351 -0.00586615)
(1.09091 0.0334193 -0.0519362)
(1.08731 0.0239338 -0.086594)
(0.956043 0.0139289 0.0196986)
(0.923528 -0.00253028 0.046228)
(1.09474 -0.0725151 -0.0401064)
(1.12691 -0.0854797 -0.0817923)
(1.10023 -0.037758 -0.0777953)
(0.976944 0.0165709 -0.0324817)
(0.909566 0.00471032 0.0197527)
(0.916035 -0.0085718 0.0746238)
(0.915753 -0.00177136 0.012892)
(0.972601 0.0367002 -0.0356864)
(1.05669 0.000237909 0.0372096)
(1.02129 -0.0243392 0.0500313)
(1.0234 0.0148734 0.0560096)
(1.12534 0.0311569 0.0670341)
(1.10262 0.0235285 0.00173306)
(1.09862 -0.0162072 0.0040653)
(1.05565 -0.0173881 0.032721)
(0.973602 0.0560674 0.0111846)
(1.00877 0.0523712 -0.00200505)
(0.997855 0.0386438 -0.001988)
(0.976917 0.0384764 -0.0521658)
(0.969653 7.24851e-05 -0.0701382)
(0.932318 -0.0277383 0.0858741)
(0.969748 0.0296793 0.0855377)
(1.04792 0.0389119 0.00392879)
(1.20034 0.00897485 0.0392081)
(1.18162 -0.0178056 -0.0125399)
(1.05917 -0.0375273 -0.0128832)
(1.06645 -0.0580098 0.00975987)
(1.09239 0.0230841 -0.056183)
(1.14371 0.0467256 -0.0121222)
(0.961386 -0.0399126 0.0162018)
(0.905033 -0.00953771 -0.0891642)
(0.971068 -0.0706883 0.0269471)
(1.09225 -0.0787767 0.0462507)
(1.06244 -0.0010377 -0.111391)
(0.993276 0.017903 -0.0574069)
(0.90314 0.00610433 -0.0153518)
(1.0533 0.0146416 -0.0517948)
(1.04701 0.0725673 -0.0666292)
(0.89579 0.0598673 0.00959284)
(0.890768 -0.00425383 0.0905721)
(0.994512 -0.0359334 0.0255726)
(1.01274 -0.00570452 0.00156999)
(0.988291 0.0368138 0.00834773)
(0.955706 0.0607729 -0.0634449)
(1.0274 -0.0417813 -0.0208006)
(0.944251 -0.0850616 0.0601313)
(0.896686 -0.0191368 0.0363865)
(1.02 -0.00821371 0.00524007)
(1.17978 -0.0633149 0.0859759)
(0.974259 -0.020637 0.0840574)
(0.956406 0.0587219 0.0662359)
(1.00617 -0.00219462 0.0691252)
(1.12302 0.0560665 -0.0645853)
(1.26323 -0.00653524 -0.10037)
(1.2061 -0.075906 -0.017931)
(1.29634 0.036726 0.0371026)
(1.14738 -0.00345092 -0.0131432)
(1.05216 -0.0450118 -0.0780669)
(1.20204 -0.00489569 -0.103882)
(1.13729 -0.0121073 -0.0223369)
(1.00865 -0.0428647 0.128966)
(1.05864 0.016045 0.0208597)
(1.11032 0.0351573 -0.104141)
(1.09644 0.00978965 -0.0327277)
(1.01686 0.0348398 -0.0153648)
(1.0772 0.00682327 -0.000534014)
(1.12256 -0.0643101 0.00758615)
(1.11559 0.0253009 -0.0619361)
(1.10153 0.00674708 0.0178987)
(1.08622 -0.0166995 -0.0286464)
(1.10852 -0.0627769 -0.0134242)
(0.969436 -0.098139 0.0680392)
(0.910232 0.0191371 -0.0915444)
(0.857526 0.0620528 -0.135931)
(0.792334 -0.00387688 -0.0129371)
(0.96513 -0.0221073 -0.0411669)
(1.04082 0.0764549 -0.0384617)
(0.857612 0.122528 -0.0405146)
(0.842773 0.00894225 0.0145219)
(0.846669 -0.0732477 0.0159522)
(0.919024 -0.0640477 0.012799)
(0.917115 -0.00942195 0.0823826)
(0.850835 0.0477062 -0.0364104)
(0.990199 0.0311882 -0.0866998)
(1.02951 -0.0450632 0.0272039)
(0.952274 -0.0792199 0.0230636)
(1.04013 -0.0545466 0.0707413)
(1.05483 -0.0525289 0.0516424)
(0.921774 -0.00230353 0.00207273)
(0.853697 0.083932 0.0195749)
(1.02523 0.0871106 -0.0347237)
(0.86374 -0.0180318 -0.0381388)
(1.11458 -0.0548621 -0.0240502)
(1.06635 -0.0827729 0.0671489)
(0.855618 -0.0708442 0.0761725)
(1.24199 0.0528629 0.0195287)
(0.9943 0.0202142 0.0379624)
(0.951519 -0.111888 -0.0116409)
(1.09176 -0.0320825 -0.115743)
(1.06939 0.0247945 -0.0211033)
(1.09699 -0.0274093 0.120874)
(1.12679 0.0130955 -0.0605482)
(0.978609 0.0364049 -0.19846)
(0.881297 0.0216836 -0.0914974)
(1.04434 -0.0197881 0.0178742)
(1.23397 -0.0415561 0.0602878)
(1.12017 -0.0451201 0.0813434)
(1.22681 0.0387522 0.121967)
(1.24971 0.0408762 0.120291)
(0.827976 -0.103643 -0.00377085)
(0.89707 -0.019827 -0.00140214)
(0.78819 0.00378715 0.0265122)
(0.923667 -0.047029 -0.0668215)
(1.05036 -0.0450216 -0.150183)
(0.921011 -0.0822868 -0.101726)
(1.01315 -0.108588 0.0322966)
(0.98618 0.0377583 0.0112984)
(1.0106 0.133743 -0.0960186)
(1.10438 0.0248914 -0.015179)
(0.943243 -0.111027 -0.00469865)
(0.939976 -0.143101 0.074755)
(0.905364 0.0277054 0.0343024)
(0.99532 0.0764269 -0.100818)
(0.995532 -0.0021215 -0.0178933)
(0.912358 -0.0507539 -0.0669085)
(1.00299 -0.0711539 -0.0469207)
(1.02903 -0.0606028 0.111107)
(0.947923 0.000712886 0.0761305)
(0.89159 -0.0135833 0.00870554)
(1.10667 -0.00983276 0.0467705)
(1.31026 0.0689191 0.00430084)
(1.16456 -0.020775 -0.0295098)
(1.14092 0.00977082 0.0597402)
(0.733003 0.0643116 0.00738653)
(0.758721 -0.0739748 -0.00653963)
(1.06944 -0.00896321 0.0553163)
(0.921571 0.0160064 0.0582267)
(0.991755 -0.0522388 0.0508703)
(0.845671 -0.0170732 -0.0844692)
(0.849123 -0.0525652 -0.0579606)
(0.994999 -0.06033 0.0616549)
(1.01369 0.0330102 -0.0842671)
(1.02361 0.0449484 -0.173776)
(1.18083 -0.0308694 -0.108806)
(1.22339 -0.0381897 0.0247484)
(1.0346 0.0179495 0.113617)
(1.12149 -0.0559379 0.111929)
(1.35903 -0.0380072 0.182251)
(1.08246 -0.00767813 0.0834554)
(0.939685 -0.0582105 -8.5657e-06)
(0.937699 -0.095984 0.0272431)
(0.987745 -0.0606583 0.0317517)
(1.09016 -0.055171 -0.0338857)
(1.07066 -0.0355609 -0.0620875)
(0.948594 -0.0551173 -0.0232881)
(0.96301 -0.0771822 0.0836504)
(1.01644 0.0530967 0.0117476)
(1.09031 0.111855 -0.0564557)
(1.11338 0.0282162 0.0898828)
(1.1196 -0.0401794 0.0537347)
(0.879499 -0.0683158 0.0706884)
(0.883624 0.0645624 -0.157797)
(1.13428 0.100509 -0.105633)
(1.02359 0.064585 0.0565946)
(1.07719 -0.0870248 -0.0355724)
(1.05806 -0.119619 -0.0298578)
(1.01138 -0.0534287 0.0561708)
(1.11851 -0.0285152 0.0698857)
(1.00396 -0.041067 0.052901)
(0.961619 -0.0273147 0.0216647)
(1.06974 0.0425573 -0.0532321)
(0.905548 0.00393875 -0.114276)
(0.791001 0.0560558 -0.0484805)
(0.784017 -0.00136331 -0.0852245)
(0.942351 -0.128844 0.0273796)
(0.917265 -0.0172906 0.099868)
(0.87836 -0.00481615 -0.0290998)
(0.816281 -0.0591084 0.0420533)
(0.820654 -0.0126177 0.0360907)
(0.930129 -0.0670195 0.0624445)
(0.842581 -0.0543226 -0.0216944)
(0.910555 0.0163031 -0.1925)
(0.995016 -0.0308821 -0.126968)
(1.09526 -0.0583121 -0.0738154)
(1.08505 0.0226558 0.0975596)
(0.925023 0.0235574 0.16627)
(1.00347 -0.112603 0.00985282)
(1.16286 -0.0253401 0.0494979)
(1.11366 0.0683015 0.0121484)
(0.996984 -0.0354212 0.0753322)
(0.920038 -0.0370109 0.00151231)
(0.904073 -0.0365962 -0.0420313)
(0.961569 -0.054363 -0.0704372)
(0.911561 -0.0216626 -0.0561116)
(0.784114 -0.00156999 -0.0332699)
(0.825781 -0.0176309 0.0710351)
(0.998891 0.0489168 -0.00513564)
(1.04733 0.103471 0.0453619)
(1.01048 0.0229567 0.139321)
(1.11439 -0.0168554 0.089054)
(0.906016 -0.00150429 0.107695)
(0.948014 0.012708 0.00308144)
(0.995073 0.0406594 -0.0979965)
(1.09125 0.0213533 -0.00672421)
(1.2039 -0.107496 0.069615)
(0.999883 -0.0962321 0.0370035)
(0.943798 -0.0522158 -0.0265667)
(1.08776 0.00147645 0.0115937)
(1.03431 0.0144846 -0.0163391)
(0.958916 -0.0361605 0.0128843)
(1.05085 0.030306 -0.0835664)
(0.992469 0.0650141 -0.0927509)
(0.886963 0.0617933 -0.057804)
(0.838107 -0.0431959 -0.0133534)
(0.86714 -0.0649903 0.0852047)
(0.821945 0.0715008 0.0481651)
(0.848108 0.0198965 -0.0864573)
(0.758086 -0.0666663 0.0109339)
(0.891515 -0.0309316 0.0122036)
(1.02486 -0.0405417 0.0199347)
(0.842872 -0.054073 -0.00264606)
(1.10343 -0.035524 -0.158037)
(1.13177 -0.0810277 -0.0643861)
(0.99998 -0.0882832 0.0217038)
(1.01861 0.013895 0.195045)
(1.0694 0.0413602 0.190126)
(1.05152 -0.0733453 -0.0349871)
(1.10886 0.00474118 -0.0701179)
(1.0813 0.0727141 0.0507001)
(0.994898 -0.0462448 0.130639)
(0.92376 -0.0104287 0.00877672)
(0.948646 -0.0277786 -0.0637424)
(1.02538 -0.0585016 -0.0911317)
(0.922731 0.0610144 -0.0809007)
(0.800259 0.0310965 0.0468571)
(0.8146 0.00349577 0.0848916)
(0.921378 0.0841472 -0.0507118)
(1.01025 0.10322 0.0228579)
(1.00903 0.0338051 0.0895841)
(1.01636 -0.00823719 0.0179689)
(0.963313 0.037368 -0.0452925)
(0.927618 0.0493668 0.0726076)
(0.930832 0.0584533 0.016621)
(0.912216 -0.0594596 -0.0180929)
(0.834256 -0.130612 -0.00813162)
(0.84568 -0.0694025 -0.0240921)
(0.869054 -0.0390366 0.034646)
(0.944705 0.011067 0.0684527)
(1.05888 0.0393302 0.00388852)
(1.06761 -0.0433281 0.0590328)
(1.08551 -0.0264838 0.00265264)
(1.14762 0.0287718 -0.0690841)
(1.01734 0.111505 -0.0216208)
(0.85914 -0.0288946 0.108267)
(0.840952 -0.085841 0.0693196)
(0.909134 0.0262903 0.0353999)
(0.887854 -0.0371578 -0.0765946)
(0.777229 -0.0875995 -0.0365156)
(0.801592 -0.0373532 -0.0466021)
(1.00044 -0.0755021 -0.0518424)
(0.941894 -0.0620206 -0.0056083)
(1.13512 -0.0342601 -0.0671919)
(1.06335 -0.0440998 -0.0265703)
(0.777972 -0.0342764 0.0600744)
(0.846741 0.0587737 0.174084)
(1.11508 0.0179816 0.147824)
(1.11192 -0.115512 0.00951598)
(1.12446 0.00549253 0.00760171)
(1.06932 0.0913619 0.140691)
(0.950586 -0.0528097 0.0707313)
(0.974222 -0.00146423 0.0297305)
(1.03042 -0.0469465 -0.0389943)
(1.07923 -0.064711 -0.0873282)
(0.970143 0.00640939 -0.103487)
(0.884846 0.032882 -0.0233391)
(0.881904 -0.0396743 0.00162244)
(0.854747 0.0125855 -0.026547)
(1.05694 0.0742709 0.0209373)
(1.05726 0.0370352 0.0186046)
(1.09601 0.0180017 0.0156617)
(0.994142 0.02957 -0.0822561)
(0.862271 0.0785895 -0.0240911)
(0.983138 0.0485023 0.0212465)
(0.869329 -0.0653445 -0.0119427)
(0.597575 -0.15196 -0.0381841)
(0.796819 -0.0790625 -0.0299911)
(0.876781 -0.0230435 0.111813)
(0.841227 0.0222998 0.131599)
(1.12355 0.0354068 0.0580124)
(1.02846 -0.0338565 0.0331794)
(0.920816 -0.0214229 0.00973952)
(1.04524 0.0364208 -0.0754532)
(1.0212 0.111036 0.0377534)
(0.841265 -0.0261193 0.232746)
(0.877801 -0.0857104 0.0542393)
(0.962237 -0.00940845 -0.000786959)
(0.79844 -0.00420065 -0.0586504)
(0.829787 -0.0609422 -0.0200028)
(0.855151 -0.0642944 -0.0535365)
(0.864207 -0.087708 -0.0105297)
(0.979381 -0.0801152 0.00920031)
(1.05188 -0.0256203 0.0270371)
(0.991942 -0.0379454 0.00359109)
(0.801584 -0.0303901 0.068982)
(1.03906 -0.00959635 0.174092)
(1.17096 0.00171476 0.10047)
(1.03012 -0.0878443 -0.0163715)
(1.11669 0.0528728 -0.0748232)
(1.10171 0.0955823 -0.00889552)
(0.929878 -0.0401748 0.0682766)
(1.15036 -0.0318329 -0.103217)
(0.924702 -0.0671913 -0.0744301)
(0.840026 -0.0713025 -0.0824671)
(0.872214 0.0259783 -0.063923)
(0.870593 0.00701517 -0.00115047)
(0.899534 -0.0273825 0.0460448)
(0.786514 -0.00902727 0.0543266)
(1.10161 0.0823383 0.116916)
(1.05934 0.0907038 0.0995097)
(1.17065 0.0570048 0.0193313)
(1.00804 0.0704887 -0.0353287)
(1.03587 0.0560915 -0.0536814)
(1.17717 0.0144884 -0.0458923)
(0.857662 -0.0212465 -0.0123298)
(0.563362 -0.138139 -0.00054883)
(0.644578 -0.160123 0.000537949)
(0.904208 -0.0794372 0.0695714)
(0.890705 -0.0159679 0.0951126)
(1.19255 0.0142808 0.0359312)
(0.916263 -0.00495315 0.00979248)
(0.811655 -0.0246453 -0.0455695)
(0.959805 0.0524951 -0.00698774)
(1.01874 0.144973 0.0927572)
(0.886452 -0.0103804 0.202631)
(0.747512 -0.0447606 0.0238201)
(0.809049 0.0271257 0.016295)
(0.859556 -0.0129007 -0.139192)
(0.960183 -0.0488894 -0.12508)
(0.968799 -0.0351579 -0.116623)
(0.869628 -0.0201778 0.0379161)
(0.90201 -0.0531294 0.110492)
(1.08975 0.0119748 -0.0125878)
(0.900077 -0.00472753 -0.0114637)
(0.896309 -0.0212396 0.0940957)
(0.991795 0.0018703 0.163106)
(1.13591 0.00738086 0.0508941)
(1.0183 -0.0593547 -0.0302439)
(1.08374 0.0292793 -0.0263325)
(1.07444 0.0975723 0.0682526)
(0.910162 -0.0859335 0.0661146)
(1.03864 -0.032867 -0.0857419)
(0.822537 0.00697871 0.00463652)
(0.738588 -0.0400483 -0.141407)
(0.927385 0.0206803 -0.0670018)
(0.891182 0.00650314 0.17393)
(0.809443 -0.0126331 0.00681031)
(0.725004 -0.03839 -0.0782663)
(1.13078 0.0336118 0.0820277)
(1.08673 0.06163 0.0494978)
(1.11217 0.0564419 -0.0274179)
(0.915547 0.081903 0.0845499)
(1.08022 0.0458346 0.0441432)
(1.14621 0.0368457 0.122092)
(0.881235 -0.00144339 0.0250506)
(0.591645 -0.150204 -0.0441961)
(0.603583 -0.183672 0.0454224)
(0.727594 -0.0950042 0.176878)
(0.80023 -0.0062031 0.198642)
(1.16702 0.0435101 0.068593)
(0.728431 0.00909024 -0.0191677)
(0.806089 -0.0422981 -0.0829962)
(0.727476 0.0433416 -0.0306923)
(0.920689 0.111516 0.0445435)
(0.965717 0.00846311 0.13367)
(0.771198 -0.0304733 -0.0416258)
(0.680856 0.0145466 -0.0478115)
(0.869183 -0.0716341 -0.0567101)
(0.950767 -0.070557 -0.0976983)
(0.923526 -0.0424794 -0.0618733)
(0.897689 -0.0315276 0.0107308)
(0.828311 -0.0277087 0.116396)
(1.11444 -0.00415646 -0.0702405)
(0.913785 0.0233871 -0.0282846)
(0.894016 -0.00946081 0.0918556)
(0.865191 -0.00124482 0.160514)
(1.03871 -0.0142682 0.0149539)
(0.907348 -0.048129 -0.00478313)
(0.88978 0.0609584 0.0194602)
(1.03414 0.0974541 0.116127)
(0.896471 -0.0618674 0.0262662)
(0.880926 0.0141126 -0.0555092)
(0.719111 0.0309909 -0.0220196)
(0.810071 -0.0830795 -0.121543)
(1.03216 0.0120139 0.0419305)
(0.999789 0.0090497 0.208248)
(0.840955 -0.0225137 0.00738657)
(0.665546 -0.0417062 -0.0836941)
(0.979781 0.0331352 0.133395)
(0.995201 0.145334 0.121633)
(1.11671 0.108433 -0.0593146)
(0.919894 0.0280789 -0.0557993)
(1.08187 0.0110784 0.0551114)
(1.15804 0.0186318 0.118515)
(0.929041 0.00568801 -0.0337487)
(0.745132 -0.123083 0.0310251)
(0.545862 -0.149594 0.0837704)
(0.567967 -0.0724965 0.168828)
(0.656726 -0.00396829 0.146191)
(1.01875 0.0401251 0.0628128)
(0.666659 0.0371839 -0.0454428)
(0.757554 -0.0154702 -0.0125881)
(0.628515 0.0471646 -0.0579185)
(1.01606 0.0728197 0.0814672)
(0.993338 0.0129163 0.110218)
(0.777274 -0.0195159 -0.0556597)
(0.693642 0.0057686 -0.162524)
(0.845893 -0.129431 0.00290681)
(0.955711 -0.116208 0.022677)
(0.929904 -0.0210905 -0.0415119)
(0.904848 0.00879543 -0.0246033)
(0.830628 -0.0317118 0.140872)
(1.04072 0.0179858 0.0169387)
(0.898103 0.0315172 0.00701624)
(0.875102 0.0145156 0.164181)
(1.0306 0.00886438 0.0654501)
(1.00226 0.0353222 0.00682272)
(0.700178 0.000843855 0.0154693)
(0.765458 0.0572636 0.0162108)
(1.04699 0.0685924 0.124578)
(0.817491 -0.0561694 -0.0672641)
(0.744212 -0.00174695 -0.0806871)
(0.834389 0.0101089 -0.0507836)
(0.896273 -0.0355435 -0.150753)
(1.03988 0.0400405 0.0205873)
(1.03301 -0.00547803 0.243443)
(0.80323 -0.0398066 -0.0295828)
(0.617476 -0.0434516 0.0505286)
(0.842991 0.0522563 0.211332)
(0.92561 0.161838 0.0811561)
(1.07305 0.0615791 -0.0907748)
(0.872557 -0.00838823 -0.0789381)
(1.14061 -0.0225347 0.144769)
(1.14651 -0.00992971 0.130453)
(0.912072 -0.025048 0.0203513)
(0.733983 -0.11488 0.0945083)
(0.520736 -0.170504 0.0739443)
(0.672984 -0.066499 0.0709981)
(0.689066 0.00162393 0.0771579)
(0.912033 0.0685103 0.0475211)
(0.674936 0.0431153 -0.0963769)
(0.592413 0.013633 0.0206075)
(0.660154 0.0193187 -0.0159794)
(1.08192 0.0306536 0.14856)
(0.937201 -0.000604506 0.140329)
(0.749321 -0.0432502 0.0885669)
(0.86935 -0.0305808 -0.100863)
(0.853244 -0.110274 0.0235391)
(0.782195 -0.109194 0.043974)
(0.92686 -0.0278892 -0.0440801)
(0.983661 0.0107288 -0.0365055)
(0.801937 -0.00909459 0.0970213)
(0.967935 0.0280412 -0.0426247)
(0.841848 0.0433425 0.020114)
(0.960285 0.00691942 0.159853)
(0.99704 0.0135572 0.0364572)
(0.957055 0.0590055 0.000854797)
(0.750707 -0.00100912 -0.0434504)
(0.770982 0.0558413 0.0754173)
(1.06643 0.0366877 0.176598)
(0.800548 -0.0699958 -0.134566)
(0.728804 -0.0278158 -0.0545159)
(0.772572 -0.0198121 -0.00421706)
(0.911955 -0.0510195 -0.0707523)
(1.08797 0.0174845 0.104184)
(0.878237 0.0198284 0.294564)
(0.751949 -0.0348272 -0.0973368)
(0.76752 -0.0553847 0.0335948)
(0.759441 0.0647939 0.167734)
(0.849984 0.138461 0.0570133)
(1.04814 0.0770241 0.00353557)
(0.896727 -0.0332702 0.063151)
(1.07569 -0.060648 0.23622)
(1.07371 0.00617357 0.138693)
(0.970194 -0.00250076 0.00404)
(0.787647 -0.115459 0.0176129)
(0.480343 -0.126716 -0.0190954)
(0.703748 -0.0442004 -0.0128582)
(0.651202 0.0257127 0.0239847)
(0.742 0.0766292 0.00326529)
(0.643625 0.0496786 -0.112422)
(0.507056 0.0182907 0.0409865)
(0.797844 0.00679605 0.0338114)
(0.97123 0.0366391 0.226847)
(0.992275 -0.00588009 0.0909737)
(0.698332 -0.0548509 0.0932929)
(0.932042 -0.0212931 -0.0527806)
(0.801022 -0.0659811 0.0700345)
(0.573268 -0.0866646 0.0149598)
(0.780111 -0.0370329 0.050417)
(0.876279 0.0397897 0.120713)
(0.754739 0.0281718 0.113685)
(0.933803 0.0479558 -0.0927752)
(0.845439 0.047202 0.0396017)
(1.01981 0.023485 0.0911365)
(0.838208 0.0471966 0.01605)
(1.01997 0.0569639 -0.133181)
(0.758734 0.0335428 0.0206499)
(0.738241 0.0901033 0.13361)
(0.952935 0.0571932 0.0217464)
(0.803214 -0.124813 -0.0552737)
(0.723052 -0.00987467 -0.00605564)
(0.626723 0.0202705 0.000417503)
(0.784437 -0.0191666 0.0645826)
(1.02601 0.0233359 0.263167)
(0.830019 0.0147355 0.311977)
(0.771032 -0.0493524 -0.0723827)
(0.831738 -0.0375985 -0.0175697)
(0.729244 0.0722453 0.126093)
(0.88199 0.0965358 0.115693)
(1.05232 0.0411155 0.00399944)
(0.940172 -0.0573559 0.0787573)
(1.02039 -0.0603696 0.242326)
(1.01114 0.00672172 0.0581207)
(0.928805 -0.0115698 -0.0604437)
(0.83654 -0.106098 0.0193381)
(0.438494 -0.117854 -0.0072243)
(0.671249 -0.0461307 0.00498274)
(0.666457 0.0333396 0.0418013)
(0.719615 0.0674652 -0.0248805)
(0.680572 0.051393 -0.0694212)
(0.616703 0.0250135 0.0380671)
(0.907745 -0.0196351 0.0434717)
(0.911152 -0.00252739 0.233037)
(0.968788 -0.00730521 0.0846012)
(0.737353 -0.0314471 0.0450191)
(0.911785 -0.0289787 -0.000394824)
(0.803686 -0.0573681 0.0685527)
(0.446819 -0.0935285 0.0137904)
(0.669304 -0.0113197 0.0518486)
(0.805215 0.0622412 0.0148621)
(0.824487 0.0205659 0.0277647)
(0.938573 0.022168 -0.131004)
(0.936128 0.0173725 0.0231121)
(1.09325 0.0210366 0.165264)
(0.849285 0.038554 -0.0376905)
(1.04488 0.0402878 -0.116589)
(0.503484 0.0368894 0.194774)
(0.769618 0.072198 0.188404)
(0.879651 0.00457252 0.0339697)
(0.72008 -0.136073 -0.0589301)
(0.781339 -0.00947503 0.0391542)
(0.64428 0.0173909 0.010038)
(0.751584 -0.0231727 0.165093)
(0.867971 0.0419633 0.311864)
(0.775337 0.0048862 0.246834)
(0.79628 -0.0791421 -0.0687942)
(0.864861 0.00446404 -0.0345465)
(0.690058 0.100015 0.158674)
(0.962277 0.0939162 0.0555212)
(1.06129 0.061914 0.046994)
(0.805613 0.000553457 0.117862)
(0.850997 -0.028521 0.230692)
(0.928739 0.0291726 0.0879955)