/*--------------------------------*- C++ -*----------------------------------*\
  =========                 |
  \\      /  F ield         | OpenFOAM: The Open Source CFD Toolbox
   \\    /   O peration     | Website:  https://openfoam.org
    \\  /    A nd           | Version:  10
     \\/     M anipulation  |
\*---------------------------------------------------------------------------*/
FoamFile
{
    format      ascii;
    class       surfaceScalarField;
    location    "8";
    object      phi_0;
}
// * * * * * * * * * * * * * * * * * * * * * * * * * * * * * * * * * * * * * //

dimensions      [0 3 -1 0 0 0 0];

internalField   nonuniform List<scalar> 
74080
(
0.00555385
-1.98277e-05
0.00014806
0.00543574
3.001e-06
0.000175768
0.00530855
1.39356e-05
0.000164728
0.00525887
3.07757e-05
0.000106768
0.00530498
5.4695e-05
4.11788e-05
0.00542278
8.74302e-05
2.84974e-06
0.00552977
9.92101e-05
1.92456e-05
0.00554778
7.13643e-05
8.15154e-05
0.00547097
4.88682e-05
9.82948e-05
0.00535723
4.12535e-05
2.67524e-05
0.00525151
5.94722e-05
-7.3071e-05
0.00518054
0.000126306
-0.000169746
0.00514652
0.000174393
-0.00017868
0.00514764
0.000134282
-9.6076e-05
0.00518314
3.16121e-05
2.34272e-05
0.00526748
-7.34172e-05
0.000131352
0.0053893
-0.000105067
0.000160224
0.00549004
-3.85973e-05
8.9804e-05
0.00554851
8.67926e-05
-7.90103e-05
0.00555088
0.000203712
-0.000233515
0.00552074
0.000216261
-0.00029397
0.00550992
0.000129933
-0.000275093
0.00552435
1.14494e-05
-0.00018087
0.00554708
-9.18043e-05
-8.88191e-05
0.00556167
-0.000136144
-4.59788e-05
0.00555494
-0.000139356
-1.84411e-05
0.00553343
-0.00013857
-7.78816e-06
0.00550105
-0.000102512
3.45907e-06
0.00545032
-5.23007e-05
2.80958e-05
0.00540551
-2.98737e-05
1.98335e-06
0.0053641
-1.64111e-05
-7.78338e-05
0.00532167
-1.18793e-06
-0.000131231
0.00530051
2.36501e-05
-0.000102212
0.00527412
5.70707e-05
8.92873e-06
0.00523879
6.32855e-05
0.000149552
0.00524172
3.97903e-05
0.000262817
0.00529312
2.63536e-06
0.000297737
0.00539525
-3.17088e-05
0.000237716
0.00551806
-3.82043e-05
0.000177309
-3.19804e-05
0.000147837
0.00484701
-7.0971e-05
0.000210759
0.00479173
1.81068e-05
0.00035234
0.00475465
6.90748e-05
0.00041722
0.00479656
8.18082e-05
0.000363825
0.0048776
0.000106889
0.000236726
0.00494514
0.000140632
8.65525e-05
0.00495689
0.000155659
-4.24598e-05
0.00489216
0.000128612
-0.000135818
0.00480346
7.13582e-05
-0.000243279
0.00476305
-3.13467e-07
-0.000372934
0.0047783
-1.32358e-06
-0.000473665
0.00483088
8.90547e-05
-0.000529049
0.00488828
0.000152966
-0.000457295
0.00489216
0.000113205
-0.0002448
0.00484221
1.7218e-06
1.01114e-05
0.00479137
-0.000106868
0.000218945
0.00477852
-0.000102713
0.000298354
0.00481177
2.16627e-05
0.000228589
0.0048712
0.000161742
6.51822e-05
0.00493657
0.000245366
-0.000107008
0.00498499
0.000211577
-0.000241174
0.00501411
0.000107676
-0.000329071
0.00503049
1.28341e-05
-0.000326047
0.00502106
-6.42923e-05
-0.000249835
0.00496035
-7.77085e-05
-0.000135915
0.00486697
-8.57432e-05
-9.01438e-06
0.00476172
-0.000108758
6.78231e-05
0.00468229
-0.000100338
8.4489e-05
0.00466254
-9.02631e-05
5.92401e-05
0.00469707
-9.63277e-05
-4.54048e-05
0.00474245
-7.99429e-05
-0.000188328
0.00479337
-6.48863e-05
-0.000284629
0.00484194
-2.96558e-05
-0.000258074
0.00484939
3.1844e-05
-0.000101262
0.00481777
4.15235e-05
0.000101347
0.00478607
-1.40934e-05
0.000227649
0.00477725
-9.61589e-05
0.000231358
0.00480308
-0.000161547
0.000140208
0.00484886
-0.00017075
7.80515e-05
-0.000134245
0.000107462
0.00430804
-0.000180451
0.000338285
0.00432727
-4.41422e-05
0.000365504
0.00437367
6.03445e-05
0.000295175
0.0044307
0.000113767
0.000171382
0.00444079
0.000159905
7.5209e-05
0.00441094
0.000156289
-1.23437e-05
0.00437663
0.00010556
-9.5042e-05
0.00434247
5.46221e-05
-0.000181398
0.00431913
3.03025e-05
-0.000288911
0.0043103
1.52045e-05
-0.000376331
0.00432433
4.81215e-05
-0.000419401
0.00439256
0.000115958
-0.000440365
0.00447981
0.000129165
-0.000384597
0.00451743
7.02612e-05
-0.00023295
0.00447438
-1.23441e-05
-6.90541e-05
0.00435865
-7.49076e-05
5.3382e-05
0.00424878
-5.91653e-05
0.000124668
0.00422662
3.00095e-05
0.000126307
0.00433354
9.60493e-05
9.10854e-05
0.00452606
0.000134491
7.32906e-05
0.00462834
0.000154263
9.70104e-05
0.00452676
0.000152022
0.000128045
0.0042784
0.000109011
0.000113373
0.0040126
2.87707e-05
1.58737e-05
0.00384518
-5.6562e-05
-0.000113826
0.00377807
-0.000143281
-0.00019948
0.00375507
-0.000195483
-0.000187782
0.00377643
-0.000199324
-9.12745e-05
0.00383565
-0.000193166
6.21202e-06
0.00390734
-0.000181478
2.49783e-05
0.00398897
-0.000151926
-2.04944e-05
0.004065
-0.000119141
-6.27851e-05
0.0041025
-4.45135e-05
-6.26445e-05
0.00409145
2.8316e-05
5.20552e-07
0.00405791
1.563e-05
6.82764e-05
0.00404168
-7.77489e-05
9.42114e-05
0.0040686
-0.000200207
0.000105876
0.00414267
-0.000291026
0.000125191
0.0042284
-0.000306527
0.000186658
-0.000268443
0.000271993
0.0038742
-0.000232101
0.000424736
0.00399125
-0.000127006
0.000172281
0.00405376
-1.58727e-05
-6.82893e-05
0.0040244
8.12743e-05
-0.000142602
0.0039735
0.000132699
-9.3944e-05
0.00395185
0.000116375
-7.196e-05
0.00392609
7.14978e-05
-0.000119495
0.003861
3.93171e-05
-0.000244705
0.00377583
4.01127e-05
-0.00036951
0.00375177
1.56489e-05
-0.00039662
0.00381238
1.76976e-05
-0.000325322
0.00388276
6.15534e-05
-0.000197357
0.00389787
5.60255e-05
-8.61906e-05
0.00384586
3.45406e-05
-9.25876e-05
0.00378615
1.6752e-05
-0.000194054
0.0037793
-2.88264e-05
-0.000241626
0.00383188
-3.50146e-05
-0.000137287
0.00391929
5.81006e-06
9.63328e-05
0.00397276
6.04991e-05
0.000282237
0.00393796
0.00015239
0.000307533
0.00381554
0.000229105
0.000215346
0.00366368
0.000221096
0.0001046
0.00356037
0.000129557
3.59504e-05
0.00350817
3.99943e-05
-2.44187e-05
0.00348521
-5.05586e-06
-0.000102629
0.00347138
-5.80158e-05
-0.000146938
0.00344679
-0.000118375
-0.000117136
0.00342618
-0.00017925
-5.88522e-05
0.00342122
-0.000226045
-3.77843e-05
0.00341843
-0.000220326
-5.81072e-05
0.0034448
-0.000192221
-5.69995e-05
0.00349978
-0.000149222
-1.48628e-06
0.00354502
-8.19545e-05
6.94129e-05
0.00358612
-4.64587e-05
8.96872e-05
0.00363322
-8.56012e-05
5.38204e-06
0.00368043
-0.000183076
-9.62132e-05
0.00373201
-0.000276839
-8.44723e-05
0.00375026
-0.000297448
9.94775e-05
0.00373884
-0.000276815
0.000385482
-0.000276057
0.000533668
0.0035825
-0.000245044
6.56646e-05
0.00357671
-0.000148207
-0.000244873
0.00355797
-6.37224e-05
-0.000341726
0.00354226
4.43873e-05
-0.000260796
0.0035419
0.000127531
-0.000168824
0.00350353
0.000160164
-0.000147411
0.00342347
0.000107468
-0.000160962
0.00334575
1.44552e-05
-0.000173422
0.00331858
-1.6311e-05
-0.000165463
0.00339436
-5.55903e-05
-0.0001379
0.00351806
-4.4032e-05
-0.000121161
0.00360238
7.88785e-06
-0.000133431
0.00360336
-8.24352e-06
-0.000153517
0.00351413
-1.69383e-05
-0.000148708
0.0034164
-2.67408e-05
-9.065e-05
0.0033722
-5.66504e-05
-6.84238e-06
0.00339107
-4.45393e-05
4.35315e-05
0.00343834
4.02938e-06
2.75681e-05
0.00343198
5.66359e-05
-8.98272e-06
0.00335609
0.000114416
5.66506e-06
0.00325455
0.000167395
9.8282e-05
0.00317782
0.00016981
0.000219554
0.00315533
9.42918e-05
0.000291141
0.00317037
6.0115e-05
0.00027009
0.00325146
3.70723e-05
0.000165368
0.00337996
-1.13701e-05
6.48819e-05
0.0034379
6.83424e-06
-3.3978e-06
0.00339143
-8.05806e-06
-7.74012e-05
0.00328053
-0.000117547
-0.000180006
0.0031755
-0.000214285
-0.000263248
0.00313251
-0.000269046
-0.000250815
0.00314937
-0.000244223
-0.000169049
0.00322461
-0.000177643
-0.000128476
0.00334237
-0.000128874
-0.000124369
0.003411
-0.000109261
-8.036e-05
0.00340104
-0.00017419
4.95589e-05
0.00338434
-0.000260829
0.000245946
0.00339482
-0.000262044
0.000455545
0.00346011
-0.000255434
0.0005545
-0.000277273
0.00039756
0.00317176
-0.000130251
-0.000274882
0.00318054
-4.07773e-05
-0.00051246
0.00315293
1.65321e-05
-0.000477065
0.00311625
7.80969e-05
-0.000243748
0.00309838
9.11227e-05
-6.23631e-05
0.00307839
9.92496e-05
-7.91658e-05
0.00307962
3.51028e-05
-0.000201831
0.00310059
-5.34957e-05
-0.000266392
0.0031224
-3.87562e-05
-0.000192218
0.0031481
-2.55907e-05
-4.23845e-05
0.00318585
-1.82568e-05
7.3761e-05
0.0032523
-3.52479e-05
0.000110712
0.00328164
-8.85853e-05
7.1947e-05
0.00320961
-6.72229e-05
-3.12979e-05
0.00313086
-7.48417e-05
-0.000117157
0.00313556
-0.000119946
-7.68449e-05
0.00318624
-0.000110403
-3.75849e-06
0.00321147
-7.17606e-05
-3.13054e-05
0.00319333
-3.83923e-05
-7.2796e-05
0.00317306
1.69037e-05
-1.48711e-05
0.00317006
0.000128944
0.000149326
0.00318407
0.000149109
0.00027794
0.00320246
5.35209e-06
0.000300913
0.00322272
-0.000135266
0.000328735
0.00330755
-0.000236038
0.000302663
0.00339572
-0.000188018
0.000231068
0.00335979
2.80733e-05
0.000117492
0.00317128
9.85106e-05
-6.88685e-05
0.00293852
-6.72942e-05
-0.000263977
0.00282829
-0.000278072
-0.000348149
0.00286792
-0.000397335
-0.000230687
0.0029827
-0.000391159
-2.18343e-05
0.00308943
-0.00029743
0.000117026
0.00310339
-0.000150474
0.000150102
0.00300759
-5.65915e-05
0.000138806
0.00291241
-0.000186134
0.000168192
0.00289401
-0.000340018
0.000225134
0.00292383
-0.00028304
0.000266923
0.00300231
-0.000207633
0.000249388
-0.000201002
6.85978e-05
0.00267538
9.59855e-05
-0.000414113
0.00270013
0.000143875
-0.000520113
0.00270923
0.000113411
-0.000287154
0.00268884
2.06761e-05
0.000110198
0.00270662
-9.85571e-05
0.000287517
0.00278089
-6.75875e-05
0.000135584
0.00285959
-1.52258e-05
-4.49814e-05
0.00286526
2.58808e-05
-0.000118751
0.00282862
7.60589e-05
-8.47126e-05
0.00280124
5.74374e-05
-3.55049e-05
0.00280336
6.34219e-05
-3.88328e-05
0.00281289
4.90091e-05
-2.17181e-05
0.00278052
-6.88246e-05
9.40527e-06
0.00270526
-7.37811e-05
-5.52617e-05
0.00266768
-6.32655e-05
-0.000140023
0.00272072
-6.47973e-05
-0.000145583
0.00285612
-2.84388e-05
-0.000113761
0.00299018
1.70399e-05
-2.64392e-05
0.00302779
7.98308e-05
0.000161227
0.00298082
0.000164879
0.00030682
0.00295888
0.000216933
0.000334623
0.00301178
0.000113496
0.000221796
0.00304078
-6.23377e-05
0.000132476
0.00300907
-0.000173712
0.000153218
0.00300336
-0.000292661
0.000134174
0.00303489
-0.00024869
5.8796e-05
0.00303281
1.60851e-05
-7.31936e-05
0.00290112
0.000137553
-0.000214338
0.00266973
-8.09208e-05
-0.000240408
0.00250815
-0.00038214
-0.000198117
0.002497
-0.000474884
-0.000148259
0.00268142
-0.000401403
-8.57728e-05
0.00290101
-0.000195111
6.16881e-05
0.00290084
8.05302e-05
0.000267878
0.00274845
0.000122455
0.000371508
0.00264009
-0.000189809
0.000336869
0.00263154
-0.000442737
0.000203503
0.00266789
-0.000358785
0.000112673
0.00269212
-0.000168301
9.9281e-05
-2.37993e-05
-9.65815e-05
0.00238881
2.87124e-05
-0.000257363
0.00254452
0.00015602
-0.000344042
0.00257069
0.000190687
-6.69739e-05
0.00251318
5.0166e-05
0.000313991
0.00252412
-0.00019348
0.000365436
0.00259227
-0.000183084
0.00018752
0.00264937
-4.01652e-05
7.55166e-05
0.00273247
-2.24355e-05
3.57516e-05
0.00279012
8.85454e-06
2.56218e-05
0.00265347
9.84302e-05
5.42499e-05
0.00236402
0.000264784
2.56168e-05
0.00218535
0.000188655
-3.04862e-05
0.00221283
-0.000204555
-3.42907e-05
0.00233286
-0.000341929
-0.000105308
0.00240775
-0.000199857
-0.000198862
0.00243814
-7.41093e-05
-0.000248867
0.00249924
-1.47758e-05
-0.000195045
0.00253988
0.000159058
2.33022e-05
0.00253131
0.000400423
9.25876e-05
0.00258451
0.000422497
-1.18808e-05
0.00268554
0.000285065
-0.000130345
0.00271798
4.56903e-05
-0.000215413
0.00263534
-7.54781e-05
-9.38155e-05
0.00253113
-0.000121677
0.000132328
0.00252249
-0.000316573
0.000212158
0.00263089
-0.000417286
0.000116321
0.00270083
-9.89757e-05
-0.000114761
0.00257565
0.000206876
-0.000229572
0.00239029
1.19657e-05
-0.000201375
0.00228874
-0.00042455
-0.000106402
0.00224379
-0.000533887
-1.93798e-05
0.00224063
-0.000306105
-1.43204e-05
0.00228763
3.90573e-05
-1.52894e-05
0.0023721
0.000280213
-3.68056e-05
0.00242698
0.000127529
-6.14301e-05
0.00237374
-0.000246555
-3.81624e-05
0.00230451
-0.000499323
9.55785e-06
0.00225791
-0.000410414
4.61567e-05
0.00223262
-0.000178045
7.97251e-05
-8.77278e-05
-2.11637e-05
0.00219051
-1.09005e-05
-0.000368115
0.00212605
0.000214467
-0.000286144
0.00206378
0.000180265
0.000118419
0.00211773
-7.51919e-05
0.000419834
0.00229873
-0.000358136
0.000377506
0.00238766
-0.000262098
0.00022846
0.00226185
-3.25681e-05
0.000109811
0.00212254
-8.93961e-05
-1.48874e-05
0.00213768
-0.000144555
-8.83079e-05
0.00218243
-2.03716e-05
-2.53321e-07
0.00212096
0.000200635
3.01256e-05
0.00203869
5.51034e-05
-5.12048e-05
0.00204484
-0.000458859
-9.34472e-05
0.00206553
-0.000537617
-9.94848e-05
0.0020199
-0.00022258
-0.000129771
0.00203983
-0.000112395
-0.000224255
0.00212201
-4.49338e-05
-0.000205443
0.00216036
0.000251125
-5.87043e-05
0.00221334
0.000447431
0.000100417
0.0023395
0.000336594
0.000192982
0.0024855
0.000129781
8.97691e-05
0.00258653
-8.68866e-05
-0.000125994
0.00264987
-0.000143678
-0.000143992
0.00267669
-0.000173487
5.1633e-05
0.00260221
-0.000342878
0.000255614
0.00240655
-0.000393476
0.000279368
0.00215376
-1.95119e-05
8.08745e-05
0.00198256
0.000241894
-0.00010802
0.00194059
-9.87423e-06
-0.000184992
0.00195931
-0.000382657
-0.000105231
0.00197442
-0.000399941
4.31005e-05
0.00202252
-0.00022114
7.0433e-05
0.00218307
-6.24446e-05
-0.000100667
0.00232542
1.30519e-05
-0.000227238
0.00219173
-8.56602e-05
-0.000101308
0.00195596
-0.000311691
7.52172e-05
0.00190232
-0.000556498
0.000102421
0.00196677
-0.000509617
2.91586e-05
0.00206403
-0.000325095
-3.02878e-05
-0.000252957
-0.000175374
0.00189048
0.000128426
-0.000229265
0.00182476
0.000264168
2.97345e-05
0.00187566
-3.97847e-05
0.000420808
0.00193805
-0.000358235
0.00044883
0.00196958
-0.000484061
6.45913e-05
0.00201798
-0.000292141
-0.000165128
0.00200905
-7.65486e-05
-0.000122061
0.00191464
-8.88009e-05
-0.000109254
0.00190747
-0.000139718
-0.000176591
0.00203402
-0.000107809
-0.000164428
0.00215731
4.55543e-05
-8.94537e-05
0.0020589
4.81752e-05
-4.0443e-05
0.00185219
-0.000322176
-0.000178932
0.00179734
-0.000481951
-0.000278455
0.00184725
-0.000301634
-0.000159551
0.00186563
-0.000199162
-3.42738e-05
0.00184179
-0.000118391
0.000116059
0.00196324
-1.21164e-05
0.000340455
0.00215854
8.44764e-05
0.000576549
0.00224467
0.000131791
0.00061294
0.00222094
8.00716e-05
0.000388637
0.00213577
-4.32269e-05
0.000137986
0.00216285
-0.000156391
6.77777e-05
0.00222681
-0.000198931
0.000188354
0.00212383
-0.000162002
0.000264311
0.00196729
-0.000185288
0.000152484
0.00188852
8.24166e-06
-6.45737e-05
0.00180855
0.000213574
-0.000139391
0.00166618
3.03047e-07
-3.68227e-05
0.00166625
-0.000394603
2.78185e-05
0.00183591
-0.000440104
7.09358e-05
0.00201476
-0.000276402
-3.53778e-06
0.00216315
-0.000183696
-0.000149292
0.00205842
-3.91782e-05
-7.20538e-05
0.00163278
8.04284e-06
0.000140061
0.00133472
-0.000313483
0.00018989
0.00139827
-0.000762772
9.83493e-05
0.00161966
-0.000700791
-4.83231e-05
0.00183421
-0.000387703
-0.000154059
-0.000203136
-0.000229107
0.00167707
3.80937e-05
9.04425e-05
0.00172762
0.000235966
0.000216915
0.00164488
-2.76687e-06
0.000298946
0.00162494
-0.00037987
0.000166565
0.00179338
-0.000651459
7.8177e-05
0.0019743
-0.000417737
0.000167436
0.00192592
1.79409e-05
9.33756e-05
0.00167447
3.04196e-05
-0.000139319
0.00154089
-8.62981e-05
-0.000313938
0.00160264
-6.21203e-05
-0.00035748
0.00178312
4.53153e-05
-0.000283666
0.00181265
8.25253e-05
-0.000178482
0.00169949
-0.000233695
-0.000199174
0.00173222
-0.000440964
-0.000166858
0.00182551
-0.000271041
-8.0777e-07
0.00172721
-0.00011214
0.000132242
0.00162749
-0.000244424
0.000314306
0.0017325
-0.000339121
0.000543019
0.00188708
-8.16152e-05
0.000489081
0.00191107
0.000224592
0.000145876
0.00182549
0.000198825
-2.51215e-05
0.00181634
-6.2927e-05
-1.85573e-05
0.00191707
-0.000242975
2.14968e-05
0.00191091
-0.000125664
8.51577e-05
0.00175443
8.29049e-05
8.98123e-05
0.00168787
-5.71749e-05
-6.59247e-06
0.00179647
-9.92746e-05
-0.000106194
0.0017988
0.000226594
-0.000106992
0.00156736
0.000192789
0.000101575
0.00149161
-0.000342529
0.000281707
0.00167176
-0.000525652
8.10808e-05
0.00184327
-0.000430271
-0.000241834
0.00195414
-0.000372893
-0.000297035
0.00183107
-5.8814e-05
-0.000103844
0.00147536
0.00016532
1.99949e-05
0.0011961
-0.000132794
4.30947e-05
0.00114915
-0.000806614
7.98983e-05
0.00122665
-0.000948397
0.000127486
0.00137981
-0.000638434
8.4249e-05
-0.000363408
4.96352e-05
0.00141431
3.65751e-05
0.000114921
0.00133603
0.000310292
0.000134656
0.00117529
0.000172613
7.21433e-05
0.00120563
-0.000297823
6.16785e-05
0.0014966
-0.000758712
0.000250022
0.00177484
-0.000454313
0.00023829
0.00180306
0.00016211
-4.44442e-05
0.00160446
0.000192657
-0.000197433
0.00140368
-5.13816e-05
-0.000181848
0.0014281
-0.000242483
-0.000103495
0.00153413
-0.00011525
-8.04276e-05
0.0014617
5.30393e-05
-0.000146278
0.0014524
-0.000279401
-0.000172276
0.00159434
-0.000430802
-4.53305e-05
0.00154552
-9.40492e-05
7.72282e-05
0.00135368
-5.89679e-05
0.000230502
0.00128402
-0.000357594
0.000458844
0.001385
-0.000371883
0.000393592
0.00148602
4.38794e-05
2.29707e-05
0.00150236
0.000360383
-0.000135789
0.00153202
0.000145251
-2.69578e-05
0.00161976
-0.000230211
9.08968e-06
0.00169914
-0.000231434
-1.53217e-05
0.00170677
4.39207e-05
-3.94375e-05
0.0016122
0.000173195
9.16751e-06
0.00149058
-3.74381e-05
0.000159654
0.001504
-8.28778e-06
0.000115219
0.00160044
0.000318297
-0.000169587
0.00153684
0.000260903
-1.96331e-05
0.00141274
-0.00029956
0.000440926
0.00143731
-0.000472923
0.00035012
0.00154581
-0.000414528
-4.75784e-05
0.00165231
-0.000430728
-0.000175628
0.00163129
-4.6483e-05
-0.000173992
0.00145973
0.00032433
-0.000149163
0.0013251
0.000165047
-0.000111369
0.00125322
-0.000554045
-0.000118632
0.00119376
-0.000901677
0.000152191
0.00123111
-0.00066955
0.000325111
-0.000376961
0.000180349
0.00125777
-1.82337e-05
-7.29349e-05
0.00122797
0.00018025
4.96643e-05
0.0011527
9.30585e-05
4.33894e-05
0.00111199
-0.000275289
4.74772e-05
0.00118345
-0.000603226
8.77121e-05
0.00141465
-0.000343777
9.4315e-05
0.00162119
0.000115819
8.59048e-05
0.00159985
0.000159305
5.46746e-05
0.00143095
-6.88248e-05
-4.29026e-05
0.00138582
-0.000357571
-5.3798e-05
0.00127281
-0.000171788
3.05112e-05
0.00110379
6.20656e-05
3.30511e-05
0.00124619
-0.000367763
-2.28486e-05
0.00143445
-0.000501716
0.00010015
0.00129601
-4.17199e-05
0.000160435
0.0011044
2.16719e-05
0.00016899
0.00102529
-0.000276119
0.000278038
0.00107628
-0.000343647
0.000235547
0.00124916
0.000112551
-1.14204e-05
0.00143998
0.000443322
-0.000166474
0.00153112
0.000121568
-9.35218e-05
0.00151248
-0.000167307
-9.81963e-05
0.00146506
2.54832e-05
-0.000136338
0.00143857
0.000168686
-7.20892e-05
0.00137787
0.000186939
-4.72963e-05
0.00125479
7.08644e-05
2.87318e-05
0.00124536
0.000125777
7.39139e-05
0.00139845
0.000313851
-0.000167931
0.00139964
0.000288228
-4.2297e-05
0.00128845
-0.000223966
0.000314611
0.00130198
-0.000463363
0.000315783
0.00125083
-0.000350246
0.000146239
0.00127061
-0.000458129
-0.000140894
0.00143775
-0.000219183
-0.000182345
0.00145156
0.000243912
3.49534e-05
0.00140035
0.000275199
-8.78904e-05
0.00133637
-0.00033892
-0.00028799
0.00119224
-0.000711406
-0.000121665
0.00108921
-0.000650721
0.000193934
-0.000424487
6.40387e-05
0.00114938
6.3177e-07
-0.000241107
0.00110092
0.000334848
-0.000138921
0.000908576
0.000185237
6.23544e-05
0.000819266
-0.000365929
8.49446e-05
0.00101523
-0.000797087
-7.42467e-05
0.0012779
-0.000324563
-5.65576e-05
0.00128061
0.000314591
6.8044e-05
0.00112695
0.000251116
-0.000133421
0.00100001
7.71295e-07
-0.000406603
0.00108206
-0.000307928
-0.000436665
0.00116184
-0.000188337
-0.000246
0.00109324
0.000145714
6.91784e-05
0.00134212
-0.000461557
0.000184137
0.00152237
-0.000686186
9.2802e-05
0.00128985
-2.05223e-05
8.10373e-05
0.00110617
0.000266584
0.000149908
0.00101803
-0.000187321
0.000218258
0.000991893
-0.000438751
0.000143702
0.00124022
-8.77648e-05
3.62998e-05
0.00138804
0.000284013
-5.97536e-05
0.00121852
5.36213e-05
-3.82507e-05
0.00104308
-0.00012042
1.0887e-05
0.00104827
4.50264e-05
-5.70357e-05
0.00122009
-1.81793e-05
-8.40728e-05
0.00126346
0.000117113
-3.82978e-06
0.00111831
0.000159217
8.74186e-05
0.00110883
0.000134508
1.30879e-05
0.00115037
0.000404349
-0.000153611
0.00107578
0.000411825
0.000122471
0.00110436
-0.000274704
0.00039422
0.00124826
-0.000586979
0.000314116
0.0012295
-0.000224635
0.000119936
0.00125492
-0.000366367
-0.000200335
0.00136474
-0.000216827
-0.000134709
0.00134893
0.000372981
0.000112364
0.00130417
0.000390611
8.02985e-05
0.00121739
-0.000391966
5.80502e-05
0.00111273
-0.000829569
1.29853e-06
0.00110104
-0.000816792
7.94436e-05
-0.000498963
-7.85266e-05
0.00105593
-0.000140082
-0.000331294
0.00119513
0.000367767
-0.000256464
0.00111095
0.00038442
4.25745e-05
0.00101566
-0.000287462
0.000146645
0.00103674
-0.00092255
0.000161293
0.000972344
-0.000180928
-8.86392e-05
0.000894056
0.0003813
-0.000237014
0.000955703
-1.54291e-05
-0.000263805
0.000976175
-6.10443e-05
-0.000309285
0.000942972
-0.000301434
-0.000268001
0.00101588
-0.000223722
-0.000249288
0.00112831
5.62235e-05
3.45692e-06
0.00127516
-0.000491239
0.00018299
0.0013282
-0.000612871
4.89271e-05
0.00118872
0.000133842
3.00703e-06
0.00110223
0.000448134
0.000144178
0.00100255
-6.64905e-05
0.000299832
0.000950703
-0.000411833
0.000179599
0.00101929
-0.000164692
-3.32917e-05
0.000980249
0.000180323
-0.000125707
0.000895429
1.37616e-05
-0.000154029
0.000889546
-0.00014561
-2.60655e-05
0.00102347
-0.000154229
0.000159188
0.00118974
-0.000172108
0.000161555
0.0011566
0.000100895
0.000130376
0.00105127
0.000156952
5.47281e-05
0.00103808
0.000161948
-0.000101015
0.00103018
0.000471189
-0.000164469
0.00105037
0.000321249
0.000140811
0.0011608
-0.000447879
0.000303471
0.00120185
-0.000502683
0.000278247
0.00113665
3.36042e-05
5.54752e-05
0.00112886
-0.000268608
-0.000183532
0.00105204
-0.000122973
-1.55802e-05
0.0010786
0.000594867
7.63646e-05
0.00129495
0.000354405
6.84556e-05
0.0012776
-0.000558101
0.000294809
0.00106543
-0.000841223
0.000242759
0.000960459
-0.000807682
-4.61826e-06
-0.000577099
-0.000181582
0.000875341
-0.000218217
-0.000120441
0.00106557
0.000284897
-0.000168604
0.00116257
0.000430885
-7.23633e-05
0.00109722
-0.000184873
6.47027e-05
0.000925986
-0.000664445
0.000135905
0.000782786
-3.12817e-05
-2.42523e-05
0.000846954
8.27098e-05
-0.000104359
0.00105456
-0.000353342
-0.000167298
0.00111151
-6.73468e-05
-0.000281281
0.000919134
-0.000160524
-0.000214193
0.000928405
-0.00020765
-0.000124082
0.00116395
-0.000161654
2.86915e-06
0.00117271
-0.000458941
2.17186e-05
0.00107488
-0.000407941
-4.83494e-05
0.0010552
0.000260536
-2.02603e-05
0.00101041
0.000535003
0.000123722
0.000856405
6.46213e-05
0.000231956
0.000775829
-0.000280245
0.000150431
0.000880101
-0.000197368
-8.94262e-05
0.000909391
0.000232014
-0.000204631
0.000904047
0.000103661
-0.000122011
0.00103829
-0.000173668
1.94502e-05
0.00112689
-0.000181533
0.000113895
0.0010737
-7.96907e-05
8.71893e-05
0.00102906
0.000150287
4.97147e-05
0.00097401
0.000191277
-4.81399e-06
0.000952698
0.000294554
-0.000151343
0.00100906
0.000495686
-0.000106661
0.00107997
0.000140765
0.000147364
0.00110174
-0.000560911
0.000135039
0.001102
-0.000305135
0.000138466
0.00104561
0.000277354
-2.0279e-05
0.00100141
-0.000166128
-0.000141525
0.000921273
-3.40227e-05
-2.45087e-05
0.00102251
0.000636235
-1.09363e-05
0.00123493
0.000249737
-0.000105621
0.00106638
-0.000441541
0.000191585
0.000833711
-0.000812627
0.00023579
0.000852305
-0.000986251
5.55251e-05
-0.000626061
-4.72099e-05
0.000761386
-0.000103917
-0.000266598
0.000934261
0.000264427
-0.000233601
0.00102389
0.0004672
-0.000117046
0.000898954
-8.54801e-05
8.2308e-05
0.000729568
-0.000495671
9.19749e-05
0.000684476
-0.000193617
0.000154599
0.000772026
-0.000293294
0.00017896
0.000872045
-0.000397979
-0.000221072
0.000940362
-2.53712e-05
-0.000274097
0.000878463
-0.000135641
-0.000129292
0.000862767
-0.000206584
4.75572e-05
0.00101616
-0.000254095
0.000164041
0.00102873
-0.000455016
0.000133763
0.000913234
-0.000295258
0.000111811
0.000906133
0.0003397
9.35053e-05
0.000943475
0.000479548
0.000189291
0.000807678
0.000117523
0.000245921
0.000712047
-0.000306022
0.000136051
0.000812525
-0.000223556
-0.000116093
0.000809038
0.000299183
-0.000146033
0.000825562
5.47685e-05
-9.54122e-07
0.000949775
-0.000274912
0.000118156
0.000931087
-0.000128924
0.000104151
0.000870362
2.42846e-06
6.50132e-05
0.000857826
0.000201666
1.55509e-05
0.000824765
0.000115705
-9.57404e-06
0.000893173
0.000192589
-0.000104081
0.00096646
0.000494285
-5.63215e-06
0.00096886
3.66669e-05
0.000191014
0.000931097
-0.000540744
9.67105e-05
0.000967863
-0.000219095
8.39771e-05
0.000953307
0.000368917
-1.04244e-05
0.000772614
4.90644e-05
-7.21289e-05
0.000764009
5.21186e-05
2.49797e-05
0.0010623
0.000455211
-4.36764e-06
0.00108838
0.000228773
-5.78996e-05
0.000590102
-2.34104e-05
0.000157417
0.000352834
-0.000598887
0.000180454
0.000630006
-0.0012253
2.16526e-06
-0.000634726
-0.000162484
0.000668801
-0.000137016
-0.000115062
0.000806829
0.000272573
3.88601e-07
0.000784808
0.000430343
4.1815e-05
0.000613722
-8.01819e-05
0.000142289
0.000491332
-0.00047038
0.000149653
0.000547475
-0.000469311
0.000196639
0.000671869
-0.00046165
3.3522e-05
0.00075841
-0.000275813
-0.000331814
0.000851704
1.73423e-05
-0.000237712
0.000855881
-0.00017175
-3.52639e-05
0.000812546
-0.000161324
3.62574e-05
0.000826787
-0.000240547
0.000158356
0.000881453
-0.000552754
0.000161092
0.000894239
-0.00016988
6.76992e-05
0.00088052
0.000459093
0.000106754
0.000949915
0.000302764
0.0001991
0.000881633
7.01272e-05
0.000230401
0.000752866
-0.000278424
0.000137941
0.000754511
-0.000156968
-6.62243e-05
0.000762093
0.000282738
-6.52261e-05
0.000752388
6.67758e-05
1.77596e-05
0.000759858
-0.000280945
0.000136519
0.000712091
-8.34904e-05
0.000115002
0.000700854
8.81891e-05
-6.53519e-07
0.00070218
0.000241043
-1.07294e-06
0.000714109
1.53737e-05
1.82462e-05
0.000823264
7.9319e-05
-0.000113867
0.000951146
0.000318724
-2.33371e-05
0.000913076
-6.55562e-05
0.000105681
0.00081801
-0.000417701
5.2238e-06
0.000890318
-5.68684e-05
-3.00958e-05
0.000924807
0.000370676
3.42302e-05
0.000793138
9.08858e-05
-0.000158696
0.000871405
-1.38358e-05
2.29296e-05
0.00108133
0.000345027
0.000158656
0.00100563
0.000290508
5.6235e-05
0.00068407
0.000131554
0.000131456
0.000442143
-0.000434861
0.000238756
0.000476028
-0.00107224
-1.00681e-05
-0.000689668
-9.48679e-05
0.000608899
-0.000207342
1.99363e-05
0.000754069
8.06851e-05
0.000115699
0.000728319
0.000222734
8.37506e-05
0.000568868
-2.49655e-05
0.000100069
0.000508159
-0.000388503
0.000178629
0.00058853
-0.000518263
2.43148e-05
0.000683319
-0.000399961
-0.000212385
0.000705768
-0.000162533
-0.000154672
0.000715415
5.0443e-06
9.64257e-05
0.00069826
-0.000200868
0.000132519
0.000743636
-0.000194968
0.000105011
0.00070254
-0.000171277
0.000115314
0.000716263
-0.000523034
0.000132719
0.000779342
-3.03924e-05
0.000131633
0.000798103
0.000530875
8.88575e-07
0.000841178
0.000219115
0.000112365
0.000801636
8.65284e-05
0.000190485
0.000674912
-0.00015361
-2.81076e-05
0.000605138
3.45381e-05
-0.000121607
0.000647916
0.000284689
-0.000154353
0.000697813
1.19419e-06
-6.421e-05
0.000747848
-0.000306907
0.000206255
0.000686827
-8.31273e-05
0.000126163
0.000608653
0.000147715
-8.58483e-05
0.00064398
0.000169881
0.000105805
0.00071696
-8.06993e-05
3.85501e-05
0.000807316
1.77494e-05
-0.000162598
0.000879932
0.000211041
-2.30682e-05
0.000813575
-6.74822e-05
5.089e-05
0.000792005
-0.000363196
5.51793e-05
0.000840274
0.000103614
-5.48479e-05
0.000851404
0.000310603
6.90051e-05
0.000833485
-8.58121e-05
-2.49537e-05
0.000855443
5.59802e-05
1.62606e-05
0.00091346
0.000395081
0.000132711
0.000941365
0.00022424
9.52251e-05
0.000783912
3.61526e-05
4.17239e-05
0.000482177
-0.000311855
0.000174864
0.000393743
-0.000891996
2.60383e-05
-0.000737284
-2.72043e-05
0.00050422
-0.000274327
-4.96796e-05
0.000637735
4.36359e-05
-8.65929e-06
0.000580975
0.000297129
-6.5092e-05
0.000436599
0.000140223
3.68622e-05
0.000442571
-0.000405773
0.000185248
0.000539268
-0.000416809
-5.88373e-05
0.000586435
-0.000281071
-0.000181816
0.000667777
-0.000206416
1.577e-05
0.000722339
-0.000192083
0.000209176
0.000663169
-0.000201944
0.000157682
0.000670421
-0.000253634
0.00018791
0.000601641
-0.000160019
0.000213922
0.000609376
-0.000433544
6.48441e-05
0.000648147
5.16799e-05
3.29644e-05
0.000653643
0.000512354
-8.22213e-05
0.000626319
0.000191853
0.000190501
0.000583929
7.82651e-05
0.00024548
0.000539225
-7.42421e-05
2.81639e-05
0.00054977
0.00015654
-1.56575e-05
0.000656249
0.000209014
-0.000110158
0.000714789
-0.000137027
4.67659e-05
0.000657521
-0.000254967
0.000235329
0.000571658
-4.82868e-05
7.75737e-06
0.000566527
0.00012561
-8.00244e-05
0.000648821
2.89786e-05
0.000105263
0.000702975
-0.000182765
9.71062e-05
0.000724962
2.39361e-05
-0.000100186
0.000777277
0.000216613
9.32274e-06
0.000775824
-5.28537e-05
0.000118902
0.000732242
-0.000197054
2.68487e-05
0.000757154
0.000163393
7.96641e-05
0.00079848
0.000195609
0.000208413
0.00072781
-8.9376e-05
0.000119479
0.000744495
0.000256765
-1.65556e-05
0.000935796
0.000322779
2.73923e-05
0.000889572
0.000184988
9.83426e-05
0.000639168
-7.81263e-05
0.000150384
0.000487128
-0.000223215
7.8339e-05
0.000348031
-0.000669649
-2.99413e-06
-0.000728917
-2.79251e-05
0.000359776
-0.000304883
-8.86768e-05
0.000428422
7.35562e-05
-1.75018e-05
0.000445377
0.000229404
-2.04975e-05
0.000399964
0.000147105
7.77819e-05
0.000353276
-0.00041988
0.000166196
0.000405254
-0.000452828
0.000102369
0.000423685
-0.000288079
9.0929e-05
0.000484151
-0.000229022
0.000135175
0.000565146
-0.000355307
0.000192879
0.000603225
-0.000244357
0.000198305
0.000603836
-0.000160782
0.000163178
0.000543147
-0.000104268
0.000110876
0.000506366
-0.000297276
1.65204e-05
0.000547343
-1.78922e-05
1.74538e-05
0.000596182
0.000349961
-2.606e-05
0.000537336
9.72978e-05
0.000218678
0.000485272
9.72457e-06
0.000202611
0.000468854
6.33603e-06
6.80146e-05
0.000500342
0.000245965
1.68679e-05
0.000574372
5.63208e-05
-2.88662e-05
0.000573736
-0.000186272
0.00011666