/*--------------------------------*- C++ -*----------------------------------*\
  =========                 |
  \\      /  F ield         | OpenFOAM: The Open Source CFD Toolbox
   \\    /   O peration     | Website:  https://openfoam.org
    \\  /    A nd           | Version:  10
     \\/     M anipulation  |
\*---------------------------------------------------------------------------*/
FoamFile
{
    format      ascii;
    class       volSymmTensorField;
    location    "20";
    object      UPrime2Mean;
}
// * * * * * * * * * * * * * * * * * * * * * * * * * * * * * * * * * * * * * //

dimensions      [0 2 -2 0 0 0 0];

internalField   nonuniform List<symmTensor> 
25600
(
(1.41578e-05 7.61301e-08 1.26931e-06 5.77267e-10 4.47211e-09 1.49336e-06)
(1.57507e-05 1.50108e-08 6.18792e-06 8.49996e-11 4.54798e-09 3.47186e-06)
(1.61945e-05 -4.30585e-08 3.80493e-06 2.06317e-10 -6.11074e-09 1.93429e-06)
(1.57996e-05 -5.70457e-08 -2.30189e-06 3.82337e-10 1.54806e-08 2.4577e-06)
(1.27492e-05 8.46714e-09 -4.03173e-06 2.28117e-10 -5.67596e-09 3.28439e-06)
(1.37184e-05 6.34373e-08 1.12735e-06 4.87719e-10 4.04585e-09 1.37425e-06)
(1.51839e-05 1.08658e-08 6.08153e-06 6.73429e-11 4.17841e-09 3.38206e-06)
(1.68643e-05 -3.29103e-08 3.77619e-06 1.5738e-10 -3.09514e-09 1.92563e-06)
(1.70287e-05 -5.24058e-08 -2.24881e-06 3.10475e-10 1.21317e-08 2.68065e-06)
(1.25398e-05 8.58602e-09 -4.32844e-06 1.62146e-10 -6.97941e-09 3.79761e-06)
(1.37332e-05 7.57183e-08 9.42873e-07 5.77131e-10 5.72717e-09 1.39062e-06)
(1.59653e-05 -7.80687e-10 6.49211e-06 5.79993e-11 -3.11434e-11 3.58129e-06)
(1.59635e-05 -4.58374e-08 3.87505e-06 2.25842e-10 -8.14063e-09 1.75916e-06)
(1.59419e-05 -5.93859e-08 -2.44631e-06 4.15063e-10 1.52082e-08 2.26592e-06)
(1.29124e-05 3.38978e-09 -4.18206e-06 2.13168e-10 -3.49225e-09 3.53003e-06)
(1.35218e-05 7.66452e-08 1.4708e-06 6.58737e-10 4.15044e-09 1.66302e-06)
(1.5967e-05 1.12072e-08 6.23917e-06 8.79002e-11 3.42921e-09 3.41957e-06)
(1.67501e-05 -5.44614e-08 3.77883e-06 3.03981e-10 -7.51679e-09 1.8332e-06)
(1.70676e-05 -7.08174e-08 -3.50683e-06 5.70337e-10 2.20773e-08 2.98436e-06)
(1.21579e-05 1.10557e-08 -4.23553e-06 2.38846e-10 -9.18657e-09 3.83287e-06)
(1.44965e-05 8.14502e-08 1.52681e-06 6.4606e-10 6.1621e-09 1.74661e-06)
(1.45627e-05 1.58694e-08 5.74282e-06 9.80859e-11 5.93598e-09 3.37567e-06)
(1.68285e-05 -3.43845e-08 3.73934e-06 1.91849e-10 -4.59351e-09 1.86448e-06)
(1.58337e-05 -5.03044e-08 -3.16965e-06 2.73776e-10 1.37651e-08 2.71883e-06)
(1.35295e-05 -9.89648e-10 -4.38994e-06 1.70899e-10 -3.72361e-09 3.37296e-06)
(1.23941e-05 5.94552e-08 8.08833e-07 4.73731e-10 1.51151e-09 1.46374e-06)
(1.59195e-05 1.86046e-08 6.47464e-06 1.02572e-10 6.70972e-09 3.67589e-06)
(1.63159e-05 -4.77808e-08 3.73641e-06 2.51151e-10 -8.61861e-09 1.87357e-06)
(1.46256e-05 -5.03377e-08 -2.43601e-06 2.72481e-10 9.32267e-09 2.23359e-06)
(1.26934e-05 1.61028e-09 -4.00331e-06 1.7624e-10 -4.96619e-09 3.19706e-06)
(1.29429e-05 6.45725e-08 9.8104e-07 4.57713e-10 1.90825e-09 1.48935e-06)
(1.67056e-05 1.20298e-08 7.55008e-06 8.91755e-11 5.26397e-09 4.59165e-06)
(1.58934e-05 -4.19819e-08 4.40767e-06 1.96411e-10 -6.13367e-09 2.50156e-06)
(1.56603e-05 -5.73037e-08 -2.25424e-06 3.49522e-10 1.33956e-08 2.33588e-06)
(1.24594e-05 5.9875e-09 -3.58141e-06 2.09967e-10 -3.41839e-09 2.908e-06)
(1.30203e-05 6.65032e-08 1.15409e-06 5.17749e-10 7.59843e-09 1.45662e-06)
(1.57587e-05 8.15105e-09 6.67916e-06 9.2568e-11 4.007e-09 3.80584e-06)
(1.74215e-05 -5.24687e-08 4.20982e-06 2.61363e-10 -9.67341e-09 2.02519e-06)
(1.60086e-05 -5.0756e-08 -2.81009e-06 2.92778e-10 1.21897e-08 2.79479e-06)
(1.2347e-05 8.48073e-09 -3.9212e-06 2.26572e-10 -8.59055e-09 3.52363e-06)
(0.000133058 8.24259e-07 7.44891e-06 1.33272e-08 -3.70648e-08 1.4099e-05)
(0.000152545 1.18948e-07 5.64346e-05 6.20555e-09 3.91923e-08 3.07929e-05)
(0.000155445 -7.10869e-07 4.00028e-05 9.95629e-09 -3.16852e-07 1.95241e-05)
(0.000148373 -1.02345e-06 -1.72253e-05 1.94016e-08 3.37402e-08 2.12187e-05)
(0.000116551 -1.92397e-07 -3.83935e-05 1.10664e-08 -9.50257e-08 3.17732e-05)
(0.000128885 8.50295e-07 6.32846e-06 1.24673e-08 -1.38957e-08 1.28203e-05)
(0.000146318 -8.14131e-10 5.52241e-05 3.96906e-09 -1.74072e-08 2.94812e-05)
(0.000161415 -7.21076e-07 3.97958e-05 8.75476e-09 -2.84961e-07 1.93347e-05)
(0.000159495 -9.44604e-07 -1.66128e-05 1.70825e-08 -2.7059e-08 2.32289e-05)
(0.000114506 -6.64838e-08 -4.11177e-05 1.01182e-08 -1.30161e-07 3.64449e-05)
(0.000129672 8.2128e-07 4.65889e-06 1.36678e-08 6.48412e-08 1.30156e-05)
(0.000154409 -4.31699e-08 5.85941e-05 5.5174e-09 4.87464e-08 3.10326e-05)
(0.000153091 -7.551e-07 4.01632e-05 9.04666e-09 -2.98358e-07 1.78314e-05)
(0.000149358 -1.0911e-06 -1.93064e-05 1.72857e-08 6.0611e-08 1.97448e-05)
(0.00011749 -1.38924e-07 -4.01107e-05 9.50949e-09 -1.11426e-07 3.45466e-05)
(0.000126473 1.0766e-06 9.51204e-06 1.77122e-08 -8.13582e-08 1.56505e-05)
(0.000155085 -2.5582e-07 5.70742e-05 5.3858e-09 -1.54822e-07 3.04e-05)
(0.000161069 -1.13298e-06 4.08468e-05 1.5046e-08 -4.38056e-07 1.95196e-05)
(0.000159404 -1.34127e-06 -2.82235e-05 2.54626e-08 1.5026e-07 2.61348e-05)
(0.000110479 -3.46449e-08 -4.03248e-05 1.26508e-08 -1.47317e-07 3.77337e-05)
(0.000136623 9.71622e-07 1.0527e-05 1.59741e-08 1.12561e-08 1.68227e-05)
(0.000140911 1.95009e-07 5.27709e-05 6.88643e-09 8.18768e-08 3.0353e-05)
(0.000161262 -8.88099e-07 3.94211e-05 1.13306e-08 -3.13287e-07 1.91427e-05)
(0.000148894 -9.27236e-07 -2.57781e-05 1.68163e-08 1.82407e-08 2.35034e-05)
(0.000124152 -3.42282e-07 -4.14797e-05 1.12562e-08 -1.56366e-08 3.25549e-05)
(0.000116074 6.76305e-07 3.29384e-06 1.15156e-08 -6.5938e-08 1.41058e-05)
(0.000153911 -3.18224e-08 5.91622e-05 7.14342e-09 -4.00463e-08 3.24591e-05)
(0.000156657 -9.00957e-07 3.94456e-05 1.19936e-08 -3.72351e-07 1.90551e-05)
(0.000137188 -8.5735e-07 -1.8906e-05 1.72773e-08 -4.26558e-08 1.92486e-05)
(0.000116191 -1.1879e-07 -3.82862e-05 9.88227e-09 -1.0849e-07 3.13533e-05)
(0.000121333 5.36325e-07 4.46653e-06 8.41414e-09 -9.70645e-08 1.43105e-05)
(0.000160864 2.82635e-07 6.93308e-05 5.22167e-09 6.72358e-08 4.06564e-05)
(0.000152708 -5.72333e-07 4.54473e-05 8.17103e-09 -3.27381e-07 2.48502e-05)
(0.000147044 -1.12141e-06 -1.73801e-05 1.95416e-08 1.68126e-08 2.0706e-05)
(0.000114006 -4.52056e-08 -3.39429e-05 1.09204e-08 -1.27335e-07 2.8177e-05)
(0.000122247 7.31766e-07 6.80585e-06 1.16731e-08 -1.21718e-08 1.35766e-05)
(0.000151498 -1.22958e-07 6.13583e-05 4.89939e-09 -9.3266e-08 3.37338e-05)
(0.000166616 -1.04266e-06 4.37924e-05 1.30246e-08 -4.15932e-07 2.05731e-05)
(0.000149764 -4.94026e-07 -2.18688e-05 1.33553e-08 -1.37724e-07 2.4017e-05)
(0.000113232 -7.1577e-08 -3.76472e-05 1.1297e-08 -1.584e-07 3.42072e-05)
(0.000362082 1.76406e-06 1.18645e-05 5.9059e-08 -4.1224e-07 4.39862e-05)
(0.000427084 -5.16852e-07 0.000156241 4.92266e-08 -1.59281e-07 8.7727e-05)
(0.00043288 -2.71972e-06 0.000126165 6.88543e-08 -1.45176e-06 6.13956e-05)
(0.000406186 -2.86626e-06 -3.89454e-05 1.0612e-07 -4.33224e-07 6.20688e-05)
(0.000305316 -3.87215e-07 -0.000109839 7.46304e-08 -6.56921e-07 9.67702e-05)
(0.000348 2.25221e-06 6.63528e-06 5.55533e-08 -3.19879e-07 3.92044e-05)
(0.000411649 -8.52664e-07 0.000155722 3.10454e-08 -4.19602e-07 8.46907e-05)
(0.00044898 -2.69061e-06 0.000125809 5.80883e-08 -1.32455e-06 6.04924e-05)
(0.000438793 -2.83657e-06 -3.63536e-05 9.81495e-08 -6.66466e-07 6.78143e-05)
(0.000300158 -4.23185e-08 -0.000120364 7.19492e-08 -7.4812e-07 0.000111725)
(0.000358085 1.93567e-06 5.71063e-06 5.85087e-08 1.61237e-07 4.05685e-05)
(0.000435562 -1.09477e-06 0.000163106 4.55035e-08 -3.27053e-08 8.82934e-05)
(0.000423453 -2.76459e-06 0.000124893 5.9407e-08 -1.28231e-06 5.60338e-05)
(0.000408063 -2.90944e-06 -4.60093e-05 8.65396e-08 -3.68152e-07 5.84044e-05)
(0.000309234 2.9921e-08 -0.000117739 6.75206e-08 -8.52957e-07 0.000107132)
(0.000344716 3.56798e-06 1.79734e-05 8.53392e-08 -6.66008e-07 4.86557e-05)
(0.000432033 -2.07614e-06 0.000155838 5.10117e-08 -1.06958e-06 8.56767e-05)
(0.000451072 -4.49739e-06 0.000130797 9.77868e-08 -2.09927e-06 6.36304e-05)
(0.000435763 -3.74928e-06 -6.98036e-05 1.29573e-07 -2.39103e-07 7.76493e-05)
(0.000284905 4.82872e-08 -0.000117715 9.01801e-08 -8.77939e-07 0.000117003)
(0.000376355 2.14713e-06 2.29006e-05 6.89858e-08 -2.63982e-07 5.32465e-05)
(0.000398203 -2.5978e-08 0.000150885 4.96776e-08 5.15797e-08 8.91478e-05)
(0.000452338 -3.27274e-06 0.000124386 7.28686e-08 -1.46332e-06 6.05269e-05)
(0.000404237 -2.52651e-06 -6.2109e-05 9.47251e-08 -5.46634e-07 6.81121e-05)
(0.000327344 -1.05162e-06 -0.000119322 7.63941e-08 -2.52498e-07 9.90739e-05)
(0.000311177 1.21861e-06 -1.9792e-06 5.07384e-08 -5.37208e-07 4.41089e-05)
(0.00043692 -1.33504e-06 0.000169509 6.08673e-08 -5.91267e-07 9.46988e-05)
(0.000436121 -3.32694e-06 0.000124487 7.96989e-08 -1.67911e-06 6.0079e-05)
(0.000369028 -2.03079e-06 -4.0338e-05 9.76052e-08 -7.52397e-07 5.42938e-05)
(0.000306958 -1.28487e-07 -0.000112936 6.72204e-08 -7.01549e-07 9.73042e-05)
(0.000325295 8.36531e-07 1.18728e-07 3.82367e-08 -6.19245e-07 4.47084e-05)
(0.000449771 6.88636e-07 0.000194194 3.87924e-08 3.50925e-08 0.000115982)
(0.000424064 -1.89395e-06 0.000141387 5.78802e-08 -1.46423e-06 7.65937e-05)
(0.000400964 -3.65083e-06 -4.04526e-05 1.10978e-07 -3.71999e-07 6.16033e-05)
(0.000298571 1.09094e-07 -9.73582e-05 7.34091e-08 -7.79908e-07 8.58693e-05)
(0.000329608 1.54012e-06 9.00039e-06 4.99171e-08 -3.60011e-07 4.15166e-05)
(0.000428586 -1.95701e-06 0.000176277 4.14098e-08 -1.03203e-06 9.95165e-05)
(0.000472759 -4.0179e-06 0.000136758 8.79197e-08 -1.93081e-06 6.46083e-05)
(0.000408072 2.77814e-07 -4.92047e-05 9.69681e-08 -1.49866e-06 6.85475e-05)
(0.000296818 -8.59604e-08 -0.000110321 8.22546e-08 -9.00621e-07 0.000104988)
(0.000619949 5.36213e-08 3.15056e-06 1.78153e-07 -9.74497e-07 9.78688e-05)
(0.000757793 -4.05385e-06 0.000269053 2.18223e-07 -9.1228e-07 0.000166895)
(0.00075643 -4.96734e-06 0.000258557 2.38093e-07 -3.47326e-06 0.000132894)
(0.000701315 -3.18363e-06 -3.127e-05 3.37176e-07 -2.06004e-06 0.000123306)
(0.000475652 -1.0198e-07 -0.000181233 2.77416e-07 -1.96889e-06 0.000193452)
(0.000575668 1.33865e-06 -1.37846e-05 1.39114e-07 -1.0675e-06 8.44551e-05)
(0.000713365 -4.77346e-06 0.000259908 1.34525e-07 -1.91705e-06 0.000154883)
(0.000799243 -5.34371e-06 0.000257076 1.95156e-07 -3.28752e-06 0.00012969)
(0.00075477 -4.73062e-06 -1.45573e-05 3.04613e-07 -2.18601e-06 0.000127007)
(0.000471809 5.86741e-07 -0.000209117 2.75859e-07 -2.12115e-06 0.000229511)
(0.000600231 -3.09516e-07 -1.50927e-05 1.58435e-07 5.44856e-07 8.59025e-05)
(0.000759373 -4.89939e-06 0.000267388 2.01285e-07 -3.33826e-07 0.000158351)
(0.000759318 -4.95715e-06 0.000250895 2.02452e-07 -2.85998e-06 0.000119927)
(0.000696219 -3.57596e-06 -3.75831e-05 2.65717e-07 -1.71195e-06 0.000107757)
(0.000473043 1.04574e-06 -0.000191812 2.73284e-07 -2.69597e-06 0.000213531)
(0.000543326 5.68314e-06 -1.87145e-06 2.08251e-07 -2.0388e-06 0.000101634)
(0.000764655 -8.85502e-06 0.000273938 2.33751e-07 -3.86759e-06 0.000167692)
(0.000797605 -9.90213e-06 0.000270867 3.17032e-07 -5.46136e-06 0.00014115)
(0.00073981 -5.10232e-06 -7.46869e-05 3.76934e-07 -1.8443e-06 0.000145283)
(0.000455711 7.76024e-07 -0.000212672 3.53416e-07 -2.58123e-06 0.000246034)
(0.000633628 1.13186e-06 1.52092e-05 1.95717e-07 -5.98523e-07 0.000114488)
(0.000689007 -2.49099e-06 0.000252237 1.97265e-07 -4.68346e-07 0.000165346)
(0.000781676 -7.00754e-06 0.00025194 2.47717e-07 -3.64175e-06 0.000130109)
(0.00069125 -2.34759e-06 -7.15613e-05 3.09481e-07 -2.63788e-06 0.000132429)
(0.00053707 -1.78608e-06 -0.00021067 2.82525e-07 -8.48973e-07 0.000202764)
(0.000494343 1.56186e-07 -3.29974e-05 1.45474e-07 -1.21607e-06 9.52453e-05)
(0.000767319 -6.55853e-06 0.000288352 2.70373e-07 -2.33655e-06 0.00017575)
(0.00076497 -5.93669e-06 0.000254036 2.67662e-07 -4.02576e-06 0.000129942)
(0.000614213 -1.42462e-06 -2.74094e-05 3.38704e-07 -2.68141e-06 0.000100936)
(0.000488522 9.34456e-07 -0.000197376 2.58029e-07 -2.24075e-06 0.000200591)
(0.000530464 -1.24928e-06 -2.38192e-05 1.24201e-07 -1.45135e-06 9.87684e-05)
(0.000786584 -7.33745e-07 0.000337248 1.43238e-07 -7.57466e-07 0.000218481)
(0.000762664 -3.0758e-06 0.00028853 2.13317e-07 -3.48283e-06 0.00016158)
(0.000693594 -4.66643e-06 -3.87307e-05 3.33184e-07 -2.12563e-06 0.000123924)
(0.000476494 1.59187e-06 -0.000167096 2.7944e-07 -2.54394e-06 0.000175909)
(0.000536736 -4.81524e-08 -8.37694e-06 1.38911e-07 -1.06137e-06 8.92231e-05)
(0.000716343 -8.28593e-06 0.000276809 2.10009e-07 -3.91646e-06 0.000168139)
(0.000800103 -8.46452e-06 0.000271327 2.97171e-07 -4.85553e-06 0.000137642)
(0.000687964 5.31446e-06 -3.48948e-05 4.49964e-07 -5.00553e-06 0.000125299)
(0.000478546 -1.08161e-07 -0.000197882 3.3015e-07 -2.27574e-06 0.00021904)
(0.000762843 -8.9771e-06 -3.93837e-05 6.28895e-07 -4.25785e-07 0.000168219)
(0.0010081 -1.46236e-05 0.000322309 6.98652e-07 -2.95281e-06 0.000235725)
(0.0010749 -6.2462e-06 0.000407798 5.9751e-07 -5.5329e-06 0.00022866)
(0.000996191 2.03233e-06 8.1092e-06 9.48435e-07 -4.46702e-06 0.000216427)
(0.000624914 1.35697e-06 -0.000239786 8.23291e-07 -3.19362e-06 0.000318889)
(0.000748674 -2.6085e-06 -5.06711e-05 3.76934e-07 -8.75229e-07 0.000146918)
(0.00099981 -1.36605e-05 0.000342006 4.49305e-07 -4.62247e-06 0.000235367)
(0.00109903 -6.30479e-06 0.000404265 4.76662e-07 -5.47619e-06 0.000220895)
(0.00105124 -2.17275e-06 5.08749e-05 7.87379e-07 -4.52848e-06 0.000206072)
(0.000598191 3.11867e-06 -0.000265083 8.14327e-07 -3.94509e-06 0.000365081)
(0.000776278 -1.08449e-05 -5.57404e-05 5.82274e-07 2.71378e-06 0.000142912)
(0.00101091 -1.2225e-05 0.00029966 6.61263e-07 1.20953e-07 0.000203884)
(0.00103931 -5.08256e-06 0.000384213 5.17449e-07 -3.92726e-06 0.000202646)
(0.000964642 1.90171e-06 -5.09187e-06 7.60112e-07 -4.0035e-06 0.000185427)
(0.000590262 4.24819e-06 -0.000239692 8.85624e-07 -5.54815e-06 0.000344051)
(0.000685648 3.5938e-06 -3.26943e-05 4.00125e-07 -3.15288e-06 0.000178155)
(0.00105542 -2.29588e-05 0.00036822 8.01418e-07 -9.23474e-06 0.00026719)
(0.00113509 -1.47074e-05 0.00042917 7.13919e-07 -9.82925e-06 0.000246574)
(0.000974703 1.30498e-06 -5.91302e-06 9.79916e-07 -5.42512e-06 0.000211837)
(0.000575801 2.8388e-06 -0.000266126 1.09856e-06 -4.67963e-06 0.000382751)
(0.000769058 -6.50871e-06 -4.01338e-05 6.16787e-07 6.48366e-07 0.000189381)
(0.000960454 -6.25164e-06 0.000337936 6.4651e-07 3.92177e-07 0.000258907)
(0.00104722 -8.94741e-06 0.000382079 5.87247e-07 -5.82795e-06 0.000218079)
(0.000904687 3.6945e-06 2.10646e-05 8.85485e-07 -6.38391e-06 0.000167363)
(0.000631155 -1.675e-06 -0.000226138 8.50483e-07 -1.29394e-06 0.000293697)
(0.000594938 -4.36076e-06 -6.92798e-05 4.18007e-07 -6.62139e-07 0.000167934)
(0.00104729 -2.06029e-05 0.000359091 8.58923e-07 -6.85629e-06 0.000247813)
(0.00103173 -7.17116e-06 0.000399568 6.77658e-07 -6.52765e-06 0.000224962)
(0.000859192 6.79894e-06 -3.23435e-06 1.03324e-06 -6.72474e-06 0.000183928)
(0.000572859 4.16264e-06 -0.000223531 7.99957e-07 -4.34177e-06 0.000303868)
(0.000680715 -8.69312e-06 -4.4308e-05 4.58139e-07 -1.58822e-06 0.000179865)
(0.00105968 -5.83898e-06 0.000428946 4.13058e-07 -2.55659e-06 0.00031323)
(0.00105774 -2.34182e-06 0.000447958 5.9276e-07 -5.55124e-06 0.000267807)
(0.000954099 2.31272e-07 6.88143e-06 8.79449e-07 -5.50546e-06 0.000203391)
(0.000605678 3.4625e-06 -0.000207279 8.23367e-07 -4.15675e-06 0.000283289)
(0.000664461 -6.20362e-06 -4.5161e-05 4.43128e-07 -8.60095e-07 0.000154695)
(0.000940037 -1.52991e-05 0.000350844 5.70148e-07 -6.34688e-06 0.00025014)
(0.0011277 -1.27221e-05 0.000421867 7.25184e-07 -8.5134e-06 0.000233552)
(0.000967781 1.64877e-05 2.64667e-05 1.47866e-06 -9.20538e-06 0.000194279)
(0.00057916 2.76707e-06 -0.000224909 1.02629e-06 -4.64128e-06 0.000329391)
(0.000757809 -2.42523e-05 -6.83114e-05 2.40597e-06 4.63854e-06 0.00024121)
(0.00109525 -3.49353e-05 0.000324752 2.07833e-06 -6.74762e-06 0.000306143)
(0.00128257 -6.15207e-06 0.00051083 1.27504e-06 -6.77854e-06 0.000321629)
(0.00117936 1.71486e-05 0.000145807 2.54236e-06 -7.46145e-06 0.000261061)
(0.00063922 4.52898e-06 -0.000179611 2.402e-06 -1.43376e-06 0.000376996)
(0.000839794 -1.41072e-05 -4.62029e-05 1.30108e-06 1.88696e-06 0.000219263)
(0.00114045 -2.92104e-05 0.000338612 1.32055e-06 -8.07486e-06 0.000281377)
(0.00126675 -6.09284e-06 0.000500101 1.0285e-06 -7.26916e-06 0.000303043)
(0.00124326 7.61936e-06 0.00014902 1.98984e-06 -6.67839e-06 0.000287325)
(0.000659479 9.54869e-06 -0.000232102 2.1348e-06 -4.83983e-06 0.000428247)
(0.00079493 -2.53038e-05 -7.21497e-05 2.28221e-06 9.41707e-06 0.000190757)
(0.00108865 -2.76815e-05 0.000241995 1.7251e-06 6.03659e-08 0.000213589)
(0.001155 -4.02594e-06 0.000461201 1.11144e-06 -3.70373e-06 0.000276577)
(0.00113342 1.68644e-05 5.03935e-05 2.25725e-06 -7.02131e-06 0.00027841)
(0.000605525 1.20145e-05 -0.000176824 2.53029e-06 -8.34649e-06 0.00039335)
(0.000671944 -6.16054e-06 -4.76612e-05 1.11475e-06 -7.56442e-07 0.000253263)
(0.00118634 -4.09538e-05 0.000381754 2.087e-06 -1.4166e-05 0.000338595)
(0.00121772 -1.5049e-05 0.000526621 1.37652e-06 -1.3316e-05 0.000349681)
(0.00108084 1.97638e-05 0.000106203 2.89538e-06 -1.08999e-05 0.000280725)
(0.000620689 9.27819e-06 -0.000207237 3.03782e-06 -7.27869e-06 0.00040918)
(0.000629913 -2.20513e-05 -0.000104794 2.43456e-06 7.10457e-06 0.000252124)
(0.00109122 -1.96445e-05 0.00035498 1.75273e-06 -8.28649e-08 0.000331695)
(0.00117227 -6.47994e-06 0.000464743 1.26073e-06 -6.49491e-06 0.00029808)
(0.00107218 1.21992e-05 0.000123378 2.21946e-06 -7.85183e-06 0.000224583)
(0.000646468 5.13512e-06 -0.000162504 2.18537e-06 -2.91929e-06 0.000339546)
(0.000590497 -1.27986e-05 -7.85002e-05 1.41805e-06 3.14667e-06 0.000232383)
(0.00114108 -4.13172e-05 0.000375028 2.40772e-06 -1.29314e-05 0.000323562)
(0.00116533 -8.10208e-06 0.000501892 1.4735e-06 -8.52582e-06 0.000320093)
(0.00104421 2.12581e-05 5.5422e-05 2.81795e-06 -1.05455e-05 0.000267022)
(0.000610918 1.12025e-05 -0.000180284 2.2439e-06 -5.31059e-06 0.000355554)
(0.00064069 -1.97665e-05 -6.54913e-05 1.69514e-06 1.39505e-06 0.000248002)
(0.00111374 -1.69359e-05 0.000381428 1.08327e-06 -5.661e-06 0.000332181)
(0.00119112 -2.41496e-06 0.000540524 1.34884e-06 -7.6845e-06 0.000352101)
(0.00114186 1.38137e-05 7.289e-05 2.39373e-06 -9.64095e-06 0.000294975)
(0.000628431 8.65485e-06 -0.000158288 2.38084e-06 -4.47746e-06 0.000347771)
(0.000653386 -1.79452e-05 -5.84213e-05 1.71328e-06 2.41693e-06 0.000220504)
(0.00104215 -2.60786e-05 0.00036942 1.51011e-06 -8.20609e-06 0.000323125)
(0.00126155 -1.33867e-05 0.000514964 1.54239e-06 -1.12111e-05 0.000322068)
(0.00111803 3.19067e-05 0.000156771 3.83789e-06 -1.03949e-05 0.000243511)
(0.000644752 8.24161e-06 -0.000194051 2.89705e-06 -5.03685e-06 0.000394736)
(0.000572511 -2.97136e-05 -8.18856e-05 6.23901e-06 1.39983e-05 0.000256234)
(0.000948725 -4.94395e-05 0.000281922 5.10374e-06 -6.17804e-06 0.000345938)
(0.0011446 -7.28185e-06 0.000497027 2.54336e-06 -8.355e-06 0.000368524)
(0.00125153 3.15055e-05 0.000231718 5.61156e-06 -7.78214e-06 0.000327463)
(0.000692542 1.76697e-05 -0.000116724 5.54935e-06 -8.2135e-07 0.000389282)
(0.000646481 -2.38553e-05 -7.5419e-05 3.99872e-06 8.36024e-06 0.000222768)
(0.000998146 -4.45271e-05 0.000255785 3.36119e-06 -9.58824e-06 0.000284128)
(0.00111416 -8.51752e-06 0.000444606 2.11409e-06 -1.02606e-05 0.000313431)
(0.00123653 2.07444e-05 0.000258962 4.54408e-06 -9.57455e-06 0.000307702)
(0.000636235 1.96172e-05 -0.000115431 5.01645e-06 -3.29567e-06 0.00038108)
(0.000664369 -3.64538e-05 -3.58629e-05 6.26974e-06 1.58882e-05 0.000205689)
(0.000868298 -4.08848e-05 0.000150368 3.93433e-06 1.36076e-06 0.000209594)
(0.000993175 -6.3563e-06 0.000403448 2.13686e-06 -4.42457e-06 0.000289573)
(0.00109963 3.16943e-05 0.00015498 5.43014e-06 -8.38529e-06 0.000299704)
(0.000641213 2.46131e-05 -9.45248e-05 6.15842e-06 -8.90672e-06 0.000366884)
(0.000509807 -1.53021e-05 -5.8701e-05 3.5417e-06 6.24368e-06 0.000260851)
(0.00101537 -5.65347e-05 0.000311073 4.68824e-06 -1.72339e-05 0.000364285)
(0.00110173 -1.41889e-05 0.000513867 2.69629e-06 -1.54186e-05 0.000401374)
(0.00109832 3.56992e-05 0.000171307 7.05674e-06 -1.35748e-05 0.000357038)
(0.000606243 2.25088e-05 -0.000110543 7.06189e-06 -8.4669e-06 0.000380131)
(0.000520762 -2.90538e-05 -6.5448e-05 6.32877e-06 1.38196e-05 0.00025922)
(0.00091833 -4.67498e-05 0.000260742 4.59783e-06 -7.17121e-06 0.00032237)
(0.00110348 -9.78564e-06 0.00043032 2.52466e-06 -8.50226e-06 0.000319159)
(0.00112395 1.89481e-05 0.000197619 4.65574e-06 -6.9924e-06 0.000274885)
(0.000671408 1.77977e-05 -8.49428e-05 4.93799e-06 -3.92483e-06 0.000343208)
(0.000561541 -2.15526e-05 -5.64067e-05 3.94216e-06 7.83816e-06 0.000244945)
(0.000946711 -5.70072e-05 0.000296774 5.40573e-06 -1.70947e-05 0.000341367)
(0.00108858 -1.30791e-05 0.000464989 2.92627e-06 -1.23885e-05 0.000342672)
(0.00106479 3.24879e-05 0.000151868 5.81664e-06 -1.06432e-05 0.000288449)
(0.000653135 2.44767e-05 -0.000112771 5.2617e-06 -4.61845e-06 0.000346889)
(0.000511331 -1.99666e-05 -6.26803e-05 3.76205e-06 7.50173e-06 0.000255458)
(0.00089965 -3.0219e-05 0.000266264 2.65959e-06 -8.45415e-06 0.000317658)
(0.00111737 -7.78711e-06 0.000480201 2.73719e-06 -1.21843e-05 0.000345716)
(0.0011199 2.94682e-05 0.000201047 5.74125e-06 -1.2883e-05 0.000293907)
(0.000651598 2.18242e-05 -7.02787e-05 5.81423e-06 -5.59905e-06 0.000332867)
(0.000495692 -2.36398e-05 -5.27925e-05 4.88907e-06 8.10976e-06 0.000227823)
(0.000879256 -4.02736e-05 0.000259479 3.80833e-06 -9.66433e-06 0.000301664)
(0.00110415 -1.55519e-05 0.000474756 3.12693e-06 -1.36706e-05 0.000348723)
(0.00117888 4.54645e-05 0.000211077 7.90434e-06 -1.05235e-05 0.000317459)
(0.000705271 1.90126e-05 -0.000133423 6.99809e-06 -2.78308e-06 0.000391129)
(0.000405574 -2.17353e-05 -6.6628e-05 1.06575e-05 1.77101e-05 0.000219109)
(0.000648161 -5.10454e-05 0.000172219 8.92087e-06 -6.10571e-06 0.000271439)
(0.000804299 -1.32421e-05 0.000343109 4.72355e-06 -1.22002e-05 0.000312603)
(0.00108941 2.8345e-05 0.000248648 9.46961e-06 -7.96816e-06 0.000323098)
(0.000686689 3.57209e-05 -3.10236e-05 1.02978e-05 -2.93678e-07 0.000332519)
(0.000498589 -2.05447e-05 -4.89014e-05 7.74054e-06 1.22176e-05 0.000197674)
(0.000673203 -4.34359e-05 0.000135273 5.85883e-06 -7.21058e-06 0.000213897)
(0.000775586 -1.38736e-05 0.000291794 4.11775e-06 -1.40774e-05 0.000256959)
(0.00106216 2.0644e-05 0.000239357 8.42853e-06 -1.2898e-05 0.000292973)
(0.000643644 3.20636e-05 -3.9054e-05 9.47961e-06 -1.66308e-06 0.000314114)
(0.000449028 -3.27327e-05 -4.67841e-05 1.1037e-05 1.94729e-05 0.000184001)
(0.000616179 -4.02096e-05 0.000119907 6.49649e-06 1.38217e-06 0.000202813)
(0.000715399 -1.1392e-05 0.000277948 3.80208e-06 -6.96049e-06 0.000246977)
(0.000950229 3.34885e-05 0.000192765 9.58846e-06 -7.04229e-06 0.00027041)
(0.000633388 3.85714e-05 -2.63222e-05 1.18528e-05 -5.58447e-06 0.000323892)
(0.000458612 -1.70568e-05 -2.04059e-05 7.49781e-06 1.06391e-05 0.000227586)
(0.000721814 -5.31034e-05 0.000207209 7.41655e-06 -1.3613e-05 0.000303459)
(0.000798171 -1.60445e-05 0.000359581 5.11021e-06 -1.69148e-05 0.000339084)
(0.000970172 3.75389e-05 0.000205555 1.26511e-05 -1.29975e-05 0.000331269)
(0.000612179 3.71113e-05 -3.69515e-05 1.31545e-05 -5.88048e-06 0.000323013)
(0.000412707 -2.53565e-05 -4.70425e-05 1.10004e-05 1.55036e-05 0.000217615)
(0.000659696 -5.37347e-05 0.000166599 8.70075e-06 -9.23649e-06 0.000257683)
(0.000750197 -1.86495e-05 0.000287112 4.71953e-06 -1.20563e-05 0.000269112)
(0.000962001 1.67507e-05 0.000202863 8.06199e-06 -8.25156e-06 0.000275799)
(0.000658867 3.03243e-05 -1.13601e-05 9.21678e-06 -2.19692e-06 0.000311682)
(0.000467382 -2.07993e-05 -3.70532e-05 7.51561e-06 9.42174e-06 0.000220218)
(0.000624489 -5.53951e-05 0.000153157 8.51767e-06 -1.72277e-05 0.000250268)
(0.000753871 -2.26055e-05 0.000291667 5.25678e-06 -1.77292e-05 0.000271418)
(0.000905684 3.13162e-05 0.000174502 9.42562e-06 -1.10826e-05 0.000271935)
(0.000658703 3.90277e-05 -4.72211e-05 9.74519e-06 -1.39302e-06 0.000307205)
(0.000404779 -1.07709e-05 -4.57444e-05 6.13353e-06 1.09181e-05 0.000218823)
(0.000617444 -3.62165e-05 0.000152207 5.1577e-06 -1.04865e-05 0.000243394)
(0.000809573 -1.7709e-05 0.000316904 5.20266e-06 -1.73873e-05 0.000271499)
(0.000980443 3.27011e-05 0.000209323 1.06441e-05 -1.52263e-05 0.00027841)
(0.000654244 3.72326e-05 -1.21367e-05 1.12488e-05 -4.98534e-06 0.000305068)
(0.000409423 -1.76571e-05 -2.9721e-05 8.65364e-06 1.06052e-05 0.00020099)
(0.000651167 -4.38639e-05 0.000157872 7.24063e-06 -7.96484e-06 0.00024124)
(0.000772545 -2.06262e-05 0.000319788 5.73789e-06 -1.6052e-05 0.000287899)
(0.00102351 4.18887e-05 0.000203502 1.26724e-05 -1.11271e-05 0.000316066)
(0.000695921 3.77758e-05 -4.03177e-05 1.28051e-05 -2.64293e-06 0.000321806)
(0.00033959 -8.09371e-06 -3.08473e-05 1.43431e-05 1.44463e-05 0.000174852)
(0.000408051 -4.05579e-05 8.28397e-05 1.13205e-05 -7.04703e-06 0.000185853)
(0.000500328 -1.80885e-05 0.000185875 7.21805e-06 -1.46878e-05 0.000213734)
(0.000741688 1.09804e-05 0.000155631 1.32655e-05 -1.21589e-05 0.000235873)
(0.00061761 4.52171e-05 3.02438e-05 1.55323e-05 -2.03189e-09 0.000241747)
(0.000351112 -6.54514e-06 -3.80501e-05 1.1337e-05 1.29099e-05 0.000157532)
(0.000431171 -3.27177e-05 7.91876e-05 7.69445e-06 -6.93156e-06 0.000165819)
(0.000494085 -1.62727e-05 0.00015921 6.45103e-06 -1.52393e-05 0.000181262)
(0.00072204 4.6166e-06 0.000144152 1.21236e-05 -1.46232e-05 0.000204262)
(0.000569798 4.08024e-05 1.74332e-05 1.38833e-05 -2.76022e-06 0.000228791)
(0.000353141 -1.78264e-05 -2.68934e-05 1.40731e-05 1.66988e-05 0.000158354)
(0.000407256 -3.20239e-05 7.75017e-05 8.3014e-06 -1.59745e-06 0.000164921)
(0.000473552 -1.33637e-05 0.000156352 5.95835e-06 -8.76391e-06 0.000176227)
(0.000678816 2.10024e-05 0.000147666 1.34628e-05 -6.53301e-06 0.000191849)
(0.00056369 4.60776e-05 3.61097e-05 1.79106e-05 -1.68539e-06 0.000229308)
(0.000349431 -8.36691e-06 -5.04367e-06 1.17312e-05 1.10449e-05 0.000176054)
(0.000457326 -3.83711e-05 0.000108678 9.37362e-06 -9.02633e-06 0.000207943)
(0.000504205 -1.79233e-05 0.00019382 8.20958e-06 -1.62543e-05 0.000226322)
(0.000709869 2.23026e-05 0.000153259 1.76234e-05 -1.11364e-05 0.000238728)
(0.00056213 4.4158e-05 1.66677e-05 1.97266e-05 -1.00296e-06 0.000249492)
(0.000354053 -1.6398e-05 -2.22904e-05 1.56884e-05 1.23432e-05 0.000173905)
(0.000429989 -4.21162e-05 8.88191e-05 1.14105e-05 -8.46484e-06 0.000184142)
(0.000479543 -2.28517e-05 0.000158399 7.62544e-06 -1.3511e-05 0.000190885)
(0.000676665 4.45598e-06 0.000122015 1.21019e-05 -1.02723e-05 0.000211628)
(0.000590001 3.44925e-05 2.83682e-05 1.38467e-05 -4.322e-07 0.000248283)
(0.000384839 -8.92479e-06 -2.34334e-05 1.04899e-05 8.75295e-06 0.00018315)
(0.000415789 -4.10284e-05 7.89608e-05 1.00916e-05 -1.48181e-05 0.000184087)
(0.000491144 -2.42902e-05 0.000146945 7.78564e-06 -1.7966e-05 0.000183905)
(0.000619329 1.53731e-05 0.000119642 1.22683e-05 -1.0813e-05 0.000192517)
(0.000565124 4.65439e-05 1.96044e-05 1.42617e-05 3.47005e-07 0.000227258)
(0.000333334 -1.54797e-08 -1.67935e-05 8.9411e-06 9.39333e-06 0.000173169)
(0.000411787 -3.20481e-05 9.54013e-05 7.79049e-06 -1.25705e-05 0.000182862)
(0.000483607 -2.31539e-05 0.000169414 8.30305e-06 -1.89895e-05 0.000187342)
(0.000677 1.83715e-05 0.000137032 1.53063e-05 -1.62087e-05 0.000204433)
(0.00059075 4.46325e-05 2.29629e-05 1.71813e-05 -4.5429e-06 0.000238997)
(0.000357619 -6.14289e-06 -4.57983e-06 1.20915e-05 8.64647e-06 0.000164151)
(0.000419632 -3.56221e-05 7.40713e-05 1.02238e-05 -7.2313e-06 0.000167136)
(0.000468472 -2.1163e-05 0.000163045 8.81737e-06 -1.61964e-05 0.000191635)
(0.000684764 2.19442e-05 0.000139276 1.67959e-05 -1.23866e-05 0.000212745)
(0.000604897 4.75242e-05 2.57795e-05 1.90901e-05 -1.22412e-06 0.000240199)
(0.000288508 6.1575e-06 -2.89718e-06 1.61172e-05 8.61279e-06 0.000130279)
(0.000272502 -2.34998e-05 4.0578e-05 1.16263e-05 -6.101e-06 0.000130558)
(0.000289919 -1.5446e-05 7.35744e-05 9.33771e-06 -1.31262e-05 0.00012488)
(0.000381295 -2.74345e-06 7.11663e-05 1.65239e-05 -1.27848e-05 0.00012387)
(0.000440222 3.84441e-05 3.9858e-05 1.8714e-05 -3.53676e-06 0.000146744)
(0.000286446 7.91157e-06 -5.11198e-06 1.29965e-05 7.26868e-06 0.000116802)
(0.000280977 -1.78735e-05 3.81793e-05 8.21928e-06 -6.12414e-06 0.000115143)
(0.000283898 -1.10459e-05 6.41128e-05 8.3625e-06 -1.23973e-05 0.000111251)
(0.000381859 -6.17901e-06 5.56101e-05 1.49483e-05 -1.31664e-05 0.000114672)
(0.000413141 3.34585e-05 2.41597e-05 1.61902e-05 -5.51928e-06 0.000141401)
(0.000286331 -2.08325e-06 -4.22234e-06 1.47855e-05 8.31281e-06 0.000119434)
(0.000271674 -1.8687e-05 3.54196e-05 8.79843e-06 -3.3643e-06 0.000114771)
(0.000280152 -1.06469e-05 6.70547e-05 7.821e-06 -8.44881e-06 0.000110307)
(0.000380548 6.49573e-06 6.77804e-05 1.62517e-05 -6.26941e-06 0.000115901)
(0.000435839 3.96121e-05 3.87635e-05 2.1458e-05 -5.30388e-07 0.000144338)
(0.000276636 4.66366e-06 9.7594e-06 1.40523e-05 8.17208e-06 0.000125885)
(0.000282846 -2.2686e-05 3.80115e-05 1.03236e-05 -5.85294e-06 0.000126037)
(0.000280446 -1.60782e-05 7.5154e-05 1.0656e-05 -1.29263e-05 0.000129395)
(0.000410885 4.99839e-06 6.35537e-05 2.05903e-05 -9.21787e-06 0.00014116)
(0.000426385 3.87156e-05 3.72309e-05 2.38543e-05 -1.24778e-07 0.000159682)
(0.00029148 -1.85772e-06 -2.12062e-07 1.82681e-05 6.94778e-06 0.000129395)
(0.00027609 -2.55785e-05 3.92043e-05 1.24368e-05 -7.69992e-06 0.000127325)
(0.000296882 -1.99901e-05 6.43914e-05 1.00912e-05 -1.21388e-05 0.000115515)
(0.000377911 -5.48441e-06 5.25487e-05 1.55485e-05 -9.21994e-06 0.00011923)
(0.000428271 2.61324e-05 2.65299e-05 1.67239e-05 -1.97742e-06 0.000158945)
(0.000312296 3.84858e-06 -4.02637e-06 1.20095e-05 4.51763e-06 0.000134269)
(0.00028028 -2.29217e-05 2.97087e-05 1.0055e-05 -1.05161e-05 0.000122576)
(0.000282758 -1.78046e-05 5.18917e-05 9.61173e-06 -1.39242e-05 0.000112203)
(0.000338281 2.37617e-06 4.6617e-05 1.44088e-05 -9.74311e-06 0.000115234)
(0.000398475 3.86608e-05 3.26976e-05 1.657e-05 -2.17292e-06 0.000142938)