# y+ ()       
# Time        	patch         	min           	max           	average       
67            	bottomWall	2.582703e+00	4.845764e+00	3.538764e+00
67            	topWall	2.783087e+00	5.128573e+00	3.601269e+00
