/*--------------------------------*- C++ -*----------------------------------*\
  =========                 |
  \\      /  F ield         | OpenFOAM: The Open Source CFD Toolbox
   \\    /   O peration     | Website:  https://openfoam.org
    \\  /    A nd           | Version:  10
     \\/     M anipulation  |
\*---------------------------------------------------------------------------*/
FoamFile
{
    format      ascii;
    class       volScalarField;
    location    "3";
    object      pPrime2Mean;
}
// * * * * * * * * * * * * * * * * * * * * * * * * * * * * * * * * * * * * * //

dimensions      [0 4 -4 0 0 0 0];

internalField   nonuniform List<scalar> 
25600
(
7.10133e-07
3.49855e-06
9.04208e-07
2.77484e-06
1.88967e-06
1.0414e-06
2.07041e-06
4.39356e-06
2.39848e-06
5.06644e-07
1.9666e-06
1.97491e-06
5.65641e-07
3.20769e-06
1.60104e-06
2.49532e-06
1.32427e-06
7.20523e-07
9.3908e-07
1.03208e-06
2.48805e-06
2.55951e-06
1.0655e-06
4.56691e-06
1.86654e-06
4.3532e-07
9.24549e-07
1.23934e-06
3.61583e-06
1.55719e-06
1.79621e-06
2.98286e-06
2.9157e-07
4.1668e-06
1.84848e-06
4.48421e-07
1.98085e-06
7.50658e-07
6.27037e-07
2.61442e-06
7.0085e-07
3.45679e-06
8.91227e-07
2.73873e-06
1.92607e-06
1.0241e-06
2.07266e-06
4.35921e-06
2.40285e-06
5.15883e-07
2.03302e-06
1.94912e-06
5.74943e-07
3.21938e-06
1.64131e-06
2.51742e-06
1.35462e-06
7.2117e-07
9.31256e-07
1.02256e-06
2.54237e-06
2.5818e-06
1.04799e-06
4.58512e-06
1.85727e-06
4.54508e-07
9.18552e-07
1.2622e-06
3.60835e-06
1.59619e-06
1.80069e-06
2.91855e-06
2.87193e-07
4.14523e-06
1.86722e-06
4.61749e-07
1.97088e-06
7.6486e-07
6.27304e-07
2.70275e-06
6.95873e-07
3.41958e-06
8.89355e-07
2.66423e-06
1.94922e-06
1.02058e-06
2.08046e-06
4.2751e-06
2.39116e-06
5.2017e-07
2.16717e-06
1.89339e-06
5.9082e-07
3.27105e-06
1.70214e-06
2.56429e-06
1.38359e-06
7.18552e-07
9.31678e-07
9.83301e-07
2.62573e-06
2.61415e-06
1.01357e-06
4.67538e-06
1.82546e-06
4.9457e-07
8.69241e-07
1.29403e-06
3.52913e-06
1.62357e-06
1.82478e-06
2.81654e-06
2.82998e-07
4.09993e-06
1.871e-06
4.92252e-07
1.91515e-06
7.85827e-07
6.18093e-07
2.73436e-06
7.12852e-07
3.35502e-06
8.7313e-07
2.69005e-06
1.92815e-06
9.99075e-07
2.03217e-06
4.0376e-06
2.33049e-06
5.17221e-07
2.33555e-06
1.72769e-06
6.07435e-07
3.28999e-06
1.72477e-06
2.61506e-06
1.44502e-06
7.0574e-07
9.65322e-07
9.30316e-07
2.61707e-06
2.78423e-06
9.55513e-07
4.76338e-06
1.73503e-06
5.34058e-07
7.20941e-07
1.26475e-06
3.20534e-06
1.48332e-06
1.87169e-06
2.60732e-06
2.75134e-07
3.84119e-06
1.80479e-06
5.10477e-07
1.65387e-06
7.52712e-07
5.70667e-07
2.63124e-06
7.06944e-07
3.13676e-06
8.43258e-07
2.65934e-06
1.80133e-06
8.92168e-07
1.93362e-06
3.74394e-06
2.11161e-06
4.84975e-07
2.40225e-06
1.43694e-06
6.19011e-07
3.21629e-06
1.64765e-06
2.57204e-06
1.47347e-06
6.81245e-07
9.39505e-07
7.97963e-07
2.56954e-06
3.03523e-06
8.93948e-07
4.73916e-06
1.5404e-06
5.50541e-07
5.74517e-07
1.15308e-06
2.90318e-06
1.23418e-06
1.87402e-06
2.53316e-06
2.74427e-07
3.42567e-06
1.69085e-06
4.79735e-07
1.3464e-06
7.06726e-07
5.66488e-07
2.5747e-06
6.98314e-07
2.72337e-06
7.89396e-07
2.39295e-06
1.68574e-06
8.26407e-07
1.82634e-06
3.59113e-06
1.81149e-06
4.57031e-07
2.26147e-06
1.23033e-06
6.05472e-07
2.87044e-06
1.49691e-06
2.61245e-06
1.62675e-06
6.98686e-07
9.3263e-07
6.55001e-07
2.34891e-06
3.51894e-06
7.67074e-07
4.62008e-06
1.35713e-06
6.01504e-07
4.87246e-07
1.04066e-06
2.55181e-06
1.10786e-06
1.76332e-06
2.17883e-06
2.615e-07
2.85809e-06
1.45935e-06
4.85219e-07
1.26003e-06
6.15852e-07
4.97334e-07
2.56329e-06
8.00604e-07
2.56113e-06
6.89653e-07
2.08101e-06
1.49417e-06
7.21735e-07
1.57696e-06
3.14529e-06
1.52504e-06
4.2209e-07
1.94431e-06
8.6526e-07
5.28487e-07
2.04242e-06
1.16867e-06
2.37423e-06
1.75309e-06
7.80396e-07
9.35721e-07
6.00064e-07
2.08204e-06
3.52683e-06
6.50144e-07
4.0378e-06
1.03058e-06
5.49475e-07
4.90805e-07
9.04248e-07
2.09487e-06
9.90136e-07
1.63968e-06
1.79567e-06
2.30788e-07
2.26142e-06
1.00813e-06
5.28713e-07
7.80605e-07
4.46171e-07
4.18027e-07
2.34459e-06
8.84957e-07
2.31425e-06
6.02065e-07
1.97801e-06
1.28925e-06
5.92289e-07
1.36235e-06
2.78661e-06
1.40992e-06
3.48565e-07
1.53939e-06
8.31342e-07
4.02153e-07
1.64171e-06
8.62221e-07
2.23239e-06
1.63484e-06
8.85593e-07
8.49628e-07
7.04801e-07
1.84083e-06
3.0481e-06
4.20377e-07
3.17401e-06
7.13576e-07
4.43906e-07
4.2913e-07
7.55832e-07
1.65246e-06
7.97852e-07
1.34705e-06
1.40729e-06
2.12772e-07
1.5613e-06
8.67835e-07
4.8274e-07
6.12192e-07
3.41384e-07
4.10556e-07
1.75495e-06
9.241e-07
1.94952e-06
4.92247e-07
1.69424e-06
1.1321e-06
4.7551e-07
1.26409e-06
2.39377e-06
1.19308e-06
2.86395e-07
1.06761e-06
5.91744e-07
2.7664e-07
1.11728e-06
4.4893e-07
1.70585e-06
1.15587e-06
7.42121e-07
7.15837e-07
6.55076e-07
1.63788e-06
2.40179e-06
2.67725e-07
2.20758e-06
4.86746e-07
2.99998e-07
2.1644e-07
5.87484e-07
1.26754e-06
5.88156e-07
1.12317e-06
1.11669e-06
1.8529e-07
1.21038e-06
6.54624e-07
3.86901e-07
4.03903e-07
2.21129e-07
3.28349e-07
1.21444e-06
8.39053e-07
1.43186e-06
3.85025e-07
1.39787e-06
9.23048e-07
3.7845e-07
1.10329e-06
1.88511e-06
1.08953e-06
2.14259e-07
7.90005e-07
5.0365e-07
1.88097e-07
8.21777e-07
2.70331e-07
1.22212e-06
8.13876e-07
5.68745e-07
6.39629e-07
5.27557e-07
1.46186e-06
1.76557e-06
1.99185e-07
1.52795e-06
3.82631e-07
1.65009e-07
1.1533e-07
4.56336e-07
9.84402e-07
4.28721e-07
9.33075e-07
9.49694e-07
1.52697e-07
9.79665e-07
5.15565e-07
2.59201e-07
2.49895e-07
1.40009e-07
2.53692e-07
8.56384e-07
7.2901e-07
9.55832e-07
3.07603e-07
9.8988e-07
6.94405e-07
3.05443e-07
9.17176e-07
1.55065e-06
9.56165e-07
1.53004e-07
5.59303e-07
3.90604e-07
1.24094e-07
5.37971e-07
1.59529e-07
8.29226e-07
5.38418e-07
3.91061e-07
4.84712e-07
4.08079e-07
1.15492e-06
1.18356e-06
1.54509e-07
9.97434e-07
2.67752e-07
9.87567e-08
8.06145e-08
3.50265e-07
7.11201e-07
2.97093e-07
7.91991e-07
8.17462e-07
1.26286e-07
7.22282e-07
4.10228e-07
1.84653e-07
1.60469e-07
8.83634e-08
2.09919e-07
5.73756e-07
5.7068e-07
6.36703e-07
2.48105e-07
6.31673e-07
4.90273e-07
2.70857e-07
7.79793e-07
1.28386e-06
7.88596e-07
1.06211e-07
3.87443e-07
3.03584e-07
8.24077e-08
3.3157e-07
9.37181e-08
5.5909e-07
3.35488e-07
2.64597e-07
3.75995e-07
3.07815e-07
8.5519e-07
8.0487e-07
1.19732e-07
6.28566e-07
1.93512e-07
6.07744e-08
5.01744e-08
2.50426e-07
4.70413e-07
1.88982e-07
6.68022e-07
7.00252e-07
1.02685e-07
5.0301e-07
3.3299e-07
1.30563e-07
1.01592e-07
5.83917e-08
1.56179e-07
3.74839e-07
4.35771e-07
4.37236e-07
2.02006e-07
3.95148e-07
3.38226e-07
2.49122e-07
6.61612e-07
1.03917e-06
6.29723e-07
7.80611e-08
2.67793e-07
2.27686e-07
5.46667e-08
1.90325e-07
5.71698e-08
3.68642e-07
2.09553e-07
1.80689e-07
2.93079e-07
2.3534e-07
6.06131e-07
5.37218e-07
9.02131e-08
3.75324e-07
1.30888e-07
3.91218e-08
2.96201e-08
1.78218e-07
3.13376e-07
1.15908e-07
5.55411e-07
5.80189e-07
8.47907e-08
3.31483e-07
2.66338e-07
9.39821e-08
6.85065e-08
4.14858e-08
1.12657e-07
2.48278e-07
3.31734e-07
3.0705e-07
1.65885e-07
2.47577e-07
2.34923e-07
2.33237e-07
5.58846e-07
8.3243e-07
4.90646e-07
6.52149e-08
1.85665e-07
1.67163e-07
3.72535e-08
1.01852e-07
3.60942e-08
2.40982e-07
1.31864e-07
1.24778e-07
2.29568e-07
1.83299e-07
4.1643e-07
3.55299e-07
6.75695e-08
2.14376e-07
8.40417e-08
2.63885e-08
1.64821e-08
1.26846e-07
1.99886e-07
7.26128e-08
4.49694e-07
4.68887e-07
7.04994e-08
2.09502e-07
2.08316e-07
6.81302e-08
4.91748e-08
3.20266e-08
8.40531e-08
1.72852e-07
2.49159e-07
2.23398e-07
1.36562e-07
1.58254e-07
1.65232e-07
2.16332e-07
4.66566e-07
6.5747e-07
3.80268e-07
5.96856e-08
1.29605e-07
1.20867e-07
2.69778e-08
5.16245e-08
2.44082e-08
1.56462e-07
8.2834e-08
8.68357e-08
1.7842e-07
1.40866e-07
2.79023e-07
2.30673e-07
5.03416e-08
1.18016e-07
5.00675e-08
1.86349e-08
8.96402e-09
8.81681e-08
1.21553e-07
4.73293e-08
3.52816e-07
3.68223e-07
5.91333e-08
1.2755e-07
1.57289e-07
5.11888e-08
3.7075e-08
2.60471e-08
6.54069e-08
1.24852e-07
1.85334e-07
1.66994e-07
1.12475e-07
1.04462e-07
1.17477e-07
1.96093e-07
3.86121e-07
5.12432e-07
2.95124e-07
5.68104e-08
9.11828e-08
8.67471e-08
2.12044e-08
2.56893e-08
1.79779e-08
1.01214e-07
5.20709e-08
6.09055e-08
1.35565e-07
1.04835e-07
1.81853e-07
1.47256e-07
3.7229e-08
6.3033e-08
2.77559e-08
1.33975e-08
4.85652e-09
5.90063e-08
7.02259e-08
3.24593e-08
2.68513e-07
2.82323e-07
4.98408e-08
7.39187e-08
1.13463e-07
4.00448e-08
2.9037e-08
2.18808e-08
5.23539e-08
9.29212e-08
1.37143e-07
1.27019e-07
9.19333e-08
7.15439e-08
8.42772e-08
1.72305e-07
3.1561e-07
3.94301e-07
2.2928e-07
5.41569e-08
6.49611e-08
6.22127e-08
1.79661e-08
1.38446e-08
1.44078e-08
6.54468e-08
3.30078e-08
4.3127e-08
9.9879e-08
7.49066e-08
1.14578e-07
9.33258e-08
2.72965e-08
3.30594e-08
1.43806e-08
9.61116e-09
2.99553e-09
3.77035e-08
3.8108e-08
2.36751e-08
1.9869e-07
2.12188e-07
4.21624e-08
4.06051e-08
7.76591e-08
3.14847e-08
2.32404e-08
1.85665e-08
4.21915e-08
7.07307e-08
1.01305e-07
9.72081e-08
7.39713e-08
5.05239e-08
6.10528e-08
1.4621e-07
2.53781e-07
3.00186e-07
1.78261e-07
5.0841e-08
4.72906e-08
4.47808e-08
1.59574e-08
9.29654e-09
1.236e-08
4.25199e-08
2.12409e-08
3.00971e-08
7.08563e-08
5.08055e-08
6.95164e-08
5.88113e-08
1.98658e-08
1.74254e-08
7.11027e-09
6.91586e-09
2.19181e-09
2.28371e-08
1.91043e-08
1.83912e-08
1.43506e-07
1.5684e-07
3.57921e-08
2.11788e-08
5.01467e-08
2.43838e-08
1.86691e-08
1.58055e-08
3.37094e-08
5.47499e-08
7.49029e-08
7.42182e-08
5.82929e-08
3.63968e-08
4.47915e-08
1.19771e-07
2.002e-07
2.26309e-07
1.38601e-07
4.68332e-08
3.56136e-08
3.26424e-08
1.45695e-08
8.13452e-09
1.1042e-08
2.80348e-08
1.39809e-08
2.04359e-08
4.76928e-08
3.26679e-08
4.05608e-08
3.68791e-08
1.44182e-08
9.58045e-09
3.4927e-09
5.05374e-09
1.83445e-09
1.31122e-08
8.67049e-09
1.51627e-08
1.01775e-07
1.14359e-07
3.04041e-08
1.07393e-08
3.03948e-08
1.83404e-08
1.49709e-08
1.34724e-08
2.65258e-08
4.29221e-08
5.56536e-08
5.61391e-08
4.48769e-08
2.64956e-08
3.33563e-08
9.49086e-08
1.54896e-07
1.69095e-07
1.07624e-07
4.22748e-08
2.79958e-08
2.44526e-08
1.33379e-08
8.20375e-09
1.01229e-08
1.9013e-08
9.50414e-09
1.34121e-08
3.02709e-08
1.95658e-08
2.28703e-08
2.31701e-08
1.0533e-08
5.75246e-09
1.87078e-09
3.80833e-09
1.62287e-09
7.10611e-09
3.59669e-09
1.31091e-08
7.1467e-08
8.25274e-08
2.57585e-08
5.82989e-09
1.73564e-08
1.34056e-08
1.20846e-08
1.15111e-08
2.06206e-08
3.40151e-08
4.14824e-08
4.19166e-08
3.37473e-08
1.94398e-08
2.52441e-08
7.30691e-08
1.17344e-07
1.25217e-07
8.33232e-08
3.74247e-08
2.30208e-08
1.89613e-08
1.21712e-08
8.49555e-09
9.36407e-09
1.34539e-08
6.74779e-09
8.40454e-09
1.78757e-08
1.07578e-08
1.26634e-08
1.47694e-08
7.86162e-09
3.92283e-09
1.24971e-09
3.00854e-09
1.52288e-09
3.78376e-09
1.6911e-09
1.16935e-08
5.01822e-08
5.92085e-08
2.17916e-08
4.12011e-09
9.61547e-09
9.61475e-09
9.81178e-09
9.87922e-09
1.59765e-08
2.71757e-08
3.10737e-08
3.08334e-08
2.48627e-08
1.44436e-08
1.93824e-08
5.47993e-08
8.69997e-08
9.18766e-08
6.41893e-08
3.25257e-08
1.96491e-08
1.53753e-08
1.11475e-08
8.63897e-09
8.69976e-09
1.00545e-08
5.07702e-09
5.05003e-09
9.6794e-09
5.34359e-09
7.14871e-09
9.77212e-09
6.12113e-09
3.09502e-09
1.1422e-09
2.52732e-09
1.53454e-09
2.25259e-09
1.50296e-09
1.06106e-08
3.56224e-08
4.24409e-08
1.84542e-08
4.08429e-09
5.66984e-09
6.99347e-09
8.17843e-09
8.56706e-09
1.24874e-08
2.18626e-08
2.34228e-08
2.23803e-08
1.80781e-08
1.09783e-08
1.50654e-08
4.01678e-08
6.31325e-08
6.67248e-08
4.90939e-08
2.77633e-08
1.71755e-08
1.30575e-08
1.02815e-08
8.57504e-09
8.12327e-09
7.99604e-09
4.12301e-09
3.02925e-09
4.78995e-09
2.49976e-09
4.44717e-09
6.94416e-09
5.08055e-09
2.80377e-09
1.30493e-09
2.28543e-09
1.6621e-09
1.82514e-09
2.09858e-09
9.71673e-09
2.58003e-08
3.06277e-08
1.57023e-08
4.76952e-09
4.17277e-09
5.45643e-09
7.11351e-09
7.55206e-09
9.95593e-09
1.7716e-08
1.77994e-08
1.61049e-08
1.31378e-08
8.62792e-09
1.18292e-08
2.89291e-08
4.48788e-08
4.78892e-08
3.71882e-08
2.32724e-08
1.51611e-08
1.15315e-08
9.57999e-09
8.36814e-09
7.63124e-09
6.77959e-09
3.67369e-09
2.06105e-09
2.34217e-09
1.38983e-09
3.3717e-09
5.47872e-09
4.54927e-09
2.83192e-09
1.6355e-09
2.24017e-09
1.89636e-09
2.00076e-09
2.92813e-09
8.92719e-09
1.91942e-08
2.24473e-08
1.34663e-08
5.6085e-09
4.0483e-09
4.78637e-09
6.50337e-09
6.79378e-09
8.15047e-09
1.4488e-08
1.37091e-08
1.16199e-08
9.71108e-09
7.05491e-09
9.36472e-09
2.05668e-08
3.12939e-08
3.39076e-08
2.78308e-08
1.9147e-08
1.33829e-08
1.04552e-08
9.0178e-09
8.10684e-09
7.25674e-09
6.11527e-09
3.60041e-09
1.87887e-09
1.5417e-09
1.37486e-09
3.20031e-09
4.84887e-09
4.37352e-09
3.0607e-09
2.07263e-09
2.35869e-09
2.2114e-09
2.43537e-09
3.67119e-09
8.18059e-09
1.47141e-08
1.68574e-08
1.16558e-08
6.29841e-09
4.52818e-09
4.68597e-09
6.19605e-09
6.23685e-09
6.85921e-09
1.1998e-08
1.08001e-08
8.54317e-09
7.44491e-09
6.00056e-09
7.47062e-09
1.45012e-08
2.14569e-08
2.36551e-08
2.05384e-08
1.54653e-08
1.17016e-08
9.5966e-09
8.56048e-09
7.85156e-09
7.00723e-09
5.82957e-09
3.8127e-09
2.24808e-09
1.75853e-09
1.97791e-09
3.50508e-09
4.71392e-09
4.43121e-09
3.40466e-09
2.56286e-09
2.59973e-09
2.56475e-09
2.91262e-09
4.19411e-09
7.46492e-09
1.16132e-08
1.30378e-08
1.01687e-08
6.6945e-09
5.11739e-09
4.85208e-09
6.05758e-09
5.81841e-09
5.91763e-09
1.01172e-08
8.81178e-09
6.53124e-09
6.01785e-09
5.28922e-09
6.02448e-09
1.02162e-08
1.45201e-08
1.62646e-08
1.49396e-08
1.22806e-08
1.01193e-08
8.83067e-09
8.1665e-09
7.63696e-09
6.88592e-09
5.81022e-09
4.23286e-09
2.95423e-09
2.51888e-09
2.86954e-09
4.03618e-09
4.85652e-09
4.62714e-09
3.79392e-09
3.05331e-09
2.91062e-09
2.91287e-09
3.30843e-09
4.4584e-09
6.76251e-09
9.39694e-09
1.03789e-08
8.90083e-09
6.76692e-09
5.53877e-09
5.05186e-09
5.96122e-09
5.47853e-09
5.21329e-09
8.74025e-09
7.52808e-09
5.2906e-09
5.17474e-09
4.82233e-09
4.95812e-09
7.28361e-09
9.77881e-09
1.107e-08
1.07488e-08
9.63582e-09
8.67451e-09
8.10734e-09
7.80863e-09
7.47269e-09
6.87013e-09
5.97414e-09
4.78676e-09
3.82497e-09
3.50513e-09
3.84245e-09
4.65163e-09
5.14125e-09
4.8918e-09
4.17805e-09
3.50347e-09
3.23567e-09
3.21371e-09
3.5695e-09
4.49166e-09
6.06706e-09
7.74345e-09
8.45174e-09
7.77387e-09
6.53948e-09
5.6803e-09
5.12903e-09
5.81875e-09
5.17208e-09
4.66923e-09
7.76353e-09
6.79128e-09
4.59042e-09
4.7412e-09
4.5648e-09
4.24465e-09
5.3862e-09
6.68996e-09
7.57238e-09
7.75033e-09
7.56752e-09
7.43815e-09
7.44717e-09
7.48361e-09
7.35293e-09
6.93344e-09
6.25317e-09
5.40245e-09
4.7294e-09
4.51949e-09
4.77674e-09
5.27135e-09
5.48715e-09
5.17818e-09
4.52617e-09
3.88684e-09
3.53071e-09
3.44321e-09
3.69274e-09
4.35258e-09
5.38806e-09
6.45222e-09
6.98001e-09
6.7417e-09
6.08474e-09
5.54544e-09
5.0365e-09
5.58685e-09
4.87362e-09
4.23007e-09
7.09352e-09
6.58032e-09
4.26815e-09
4.62538e-09
4.52504e-09
3.89483e-09
4.3225e-09
4.87399e-09
5.42215e-09
5.79784e-09
6.12089e-09
6.51132e-09
6.92333e-09
7.22625e-09
7.28574e-09
7.04822e-09
6.58259e-09
6.01384e-09
5.57989e-09
5.45583e-09
5.61792e-09
5.85902e-09
5.85344e-09
5.46556e-09
4.82839e-09
4.19721e-09
3.77419e-09
3.60166e-09
3.71299e-09
4.1193e-09
4.75795e-09
5.42145e-09
5.81529e-09
5.80215e-09
5.50093e-09
5.21408e-09
4.79933e-09
5.26475e-09
4.59037e-09
3.84025e-09
6.65299e-09
6.57241e-09
4.21106e-09
4.80902e-09
4.76257e-09
3.94826e-09
3.99084e-09
4.10425e-09
4.41048e-09
4.82504e-09
5.37394e-09
6.02834e-09
6.66028e-09
7.11924e-09
7.30341e-09
7.2045e-09
6.9144e-09
6.56543e-09
6.31932e-09
6.26813e-09
6.3563e-09
6.41249e-09
6.23346e-09
5.75743e-09
5.09868e-09
4.45366e-09
3.97748e-09
3.72197e-09
3.6987e-09
3.89056e-09
4.24007e-09
4.63139e-09
4.91367e-09
4.99977e-09
4.90764e-09
4.80456e-09
4.50273e-09
4.91924e-09
4.42764e-09
3.81542e-09
6.45889e-09
1.23771e-08
4.8029e-09
5.60014e-09
5.36793e-09
4.46582e-09
4.36778e-09
4.29258e-09
4.47503e-09
4.87514e-09
5.48293e-09
6.20098e-09
6.86023e-09
7.31047e-09
7.4828e-09
7.41369e-09
7.21439e-09
7.01443e-09
6.91936e-09
6.94778e-09
7.01404e-09
6.96294e-09
6.65767e-09
6.09043e-09
5.38209e-09
4.70673e-09
4.19147e-09
3.87634e-09
3.75493e-09
3.7905e-09
3.93983e-09
4.14197e-09
4.32115e-09
4.42538e-09
4.43814e-09
4.45208e-09
4.26088e-09
4.50397e-09
4.55778e-09
7.902e-09
6.21498e-09
1.25629e-06
1.70819e-06
1.28581e-06
5.06153e-06
4.75123e-06
1.95532e-06
2.96722e-06
2.37312e-06
1.76854e-06
4.37027e-07
9.70949e-07
1.8131e-06
4.64911e-07
1.37304e-06
2.70503e-06
9.45807e-07
2.81375e-07
5.98997e-07
9.36955e-07
1.56159e-06
1.18636e-06
1.60945e-06
1.14163e-06
5.99425e-06
1.53981e-07
7.99847e-07
6.54223e-07
9.87574e-07
9.98815e-07
8.56935e-07
1.10035e-06
1.8124e-06
4.93642e-07
1.13841e-06
1.07717e-07
3.1738e-06
3.87554e-07
1.34195e-06
1.76864e-06
1.3882e-06
1.28171e-06
1.7144e-06
1.29391e-06
5.04548e-06
4.79918e-06
1.96597e-06
3.07234e-06
2.39024e-06
1.74305e-06
4.39304e-07
9.847e-07
1.82635e-06
4.62086e-07
1.34946e-06
2.72451e-06
9.34453e-07
2.95349e-07
6.0362e-07
9.20623e-07
1.55633e-06
1.18277e-06
1.55993e-06
1.14533e-06
5.91554e-06
1.46739e-07
8.2336e-07
6.31852e-07
1.01832e-06
9.82297e-07
8.57429e-07
1.12243e-06
1.78688e-06
4.83361e-07
1.09778e-06
1.02235e-07
3.2211e-06
3.88508e-07
1.36012e-06
1.77153e-06
1.39203e-06
1.33161e-06
1.71167e-06
1.31839e-06
5.0564e-06
4.80183e-06
1.92946e-06
3.29093e-06
2.43806e-06
1.6705e-06
4.38211e-07
1.03869e-06
1.8483e-06
4.72915e-07
1.29725e-06
2.76478e-06
9.19543e-07
3.33507e-07
6.21145e-07
9.44346e-07
1.52083e-06
1.15059e-06
1.43938e-06
1.14389e-06
5.61369e-06
1.32787e-07
8.94677e-07
5.64948e-07
1.10474e-06
9.3703e-07
8.24372e-07
1.18029e-06
1.68667e-06
4.56726e-07
9.95051e-07
9.73773e-08
3.29791e-06
3.85495e-07
1.41057e-06
1.8031e-06
1.37489e-06
1.41902e-06
1.64126e-06
1.29638e-06
4.99632e-06
4.66105e-06
1.77384e-06
3.36716e-06
2.44842e-06
1.54766e-06
4.37043e-07
1.13079e-06
1.84142e-06
4.97408e-07
1.23977e-06
2.8025e-06
9.29149e-07
3.58549e-07
6.64749e-07
9.64798e-07
1.37077e-06
1.05275e-06
1.35544e-06
1.05926e-06
5.08248e-06
1.19498e-07
9.12293e-07
4.74918e-07
1.17535e-06
8.63438e-07
7.32091e-07
1.27567e-06
1.52873e-06
4.0866e-07
8.56627e-07
1.08771e-07
3.30012e-06
3.68509e-07
1.44951e-06
1.73969e-06
1.32297e-06
1.51099e-06
1.49428e-06
1.18577e-06
4.79501e-06
4.45363e-06
1.62709e-06
3.41918e-06
2.47979e-06
1.35044e-06
4.66146e-07
1.24798e-06
1.76409e-06
5.16523e-07
1.16106e-06
2.84844e-06
9.75704e-07
3.61321e-07
7.60974e-07
1.05699e-06
1.08039e-06
1.18073e-06
1.23095e-06
9.26931e-07
4.69011e-06
1.16112e-07
8.98829e-07
3.97446e-07
1.17819e-06
7.56077e-07
6.09682e-07
1.29802e-06
1.41399e-06
3.97525e-07
6.03205e-07
1.42182e-07
3.15832e-06
3.66859e-07
1.40771e-06
1.80904e-06
1.29137e-06
1.51765e-06
1.33812e-06
1.02057e-06
4.25537e-06
4.24436e-06
1.48402e-06
3.20024e-06
2.5807e-06
1.23343e-06
3.83943e-07
1.23742e-06
1.67638e-06
4.9431e-07
9.67045e-07
2.63192e-06
9.78991e-07
2.05101e-07
8.95526e-07
1.11465e-06
6.53002e-07
1.465e-06
1.11725e-06
8.40225e-07
4.23506e-06
1.2941e-07
8.35311e-07
3.07485e-07
1.31525e-06
6.56859e-07
4.49096e-07
1.42163e-06
1.44839e-06
4.00676e-07
5.18049e-07
1.60035e-07
2.89512e-06
3.12229e-07
1.38048e-06
1.81148e-06
1.20864e-06
1.46268e-06
9.96542e-07
8.62324e-07
3.84969e-06
4.11843e-06
1.22812e-06
2.91188e-06
2.55642e-06
1.02802e-06
2.85773e-07
1.10064e-06
1.40616e-06
4.17945e-07
8.66902e-07
2.23247e-06
9.87051e-07
1.13131e-07
9.82944e-07
1.28043e-06
4.92541e-07
1.46438e-06
7.9094e-07
7.32984e-07
3.55458e-06
1.37987e-07
7.67104e-07
2.6108e-07
1.25039e-06
6.22005e-07
3.23527e-07
1.48859e-06
1.47182e-06
3.7326e-07
4.93234e-07
2.0343e-07
2.1784e-06
2.77749e-07
1.06642e-06
1.66643e-06
1.05713e-06
1.0362e-06
9.56897e-07
7.05256e-07
3.12685e-06
3.54069e-06
8.88127e-07
2.37124e-06
2.35807e-06
9.42478e-07
2.46229e-07
8.55288e-07
9.94864e-07
3.33572e-07
6.84026e-07
1.82103e-06
9.25359e-07
1.04939e-07
7.98296e-07
1.32892e-06
4.96218e-07
1.11182e-06
6.42669e-07
5.87671e-07
2.50642e-06
2.5803e-07
5.08712e-07
2.99366e-07
1.1909e-06
6.55241e-07
2.63095e-07
1.59256e-06
1.50886e-06
3.34715e-07
4.78537e-07
2.52215e-07
1.39004e-06
2.31209e-07
6.25755e-07
1.27191e-06
8.81069e-07
7.41267e-07
9.40512e-07
5.95645e-07
2.5819e-06
2.70411e-06
6.04722e-07
1.86736e-06
1.89619e-06
1.00044e-06
2.27382e-07
6.35502e-07
6.82984e-07
2.53806e-07
4.60634e-07
1.2021e-06
7.39613e-07
7.81685e-08
6.16814e-07
9.59844e-07
4.16123e-07
7.19282e-07
6.97227e-07
4.78478e-07
1.70871e-06
2.66282e-07
2.63838e-07
2.68594e-07
8.79608e-07
5.94834e-07
2.80375e-07
1.35273e-06
1.33994e-06
2.84036e-07
4.66899e-07
2.62621e-07
9.21305e-07
2.00209e-07
4.56136e-07
7.55281e-07
6.59728e-07
5.29021e-07
7.29205e-07
5.01002e-07
1.79396e-06
1.8864e-06
4.60414e-07
1.37511e-06
1.57654e-06
9.58419e-07
1.89652e-07
4.70792e-07
4.73093e-07
1.80849e-07
3.40168e-07
7.41464e-07
6.24392e-07
7.64626e-08
3.96132e-07
6.61149e-07
4.32285e-07
4.92646e-07
5.73203e-07
4.04311e-07
1.24163e-06
2.1698e-07
1.2507e-07
2.27992e-07
5.44333e-07
5.1013e-07
2.94015e-07
1.03155e-06
1.21631e-06
2.20596e-07
4.20347e-07
2.77519e-07
6.75954e-07
1.44083e-07
3.36395e-07
4.87966e-07
4.92261e-07
3.98313e-07
5.08657e-07
4.0476e-07
1.2025e-06
1.20916e-06
3.94094e-07
1.0786e-06
1.30243e-06
8.36526e-07
1.38791e-07
3.30024e-07
3.66688e-07
1.14092e-07
2.33025e-07
4.44232e-07
4.81513e-07
6.47592e-08
2.71238e-07
4.34802e-07
3.51517e-07
4.15588e-07
4.32567e-07
3.15155e-07
7.87361e-07
1.65116e-07
7.04248e-08
1.52251e-07
3.34096e-07
3.74031e-07
2.64826e-07
7.87566e-07
1.02624e-06
1.58825e-07
3.85223e-07
2.66181e-07
4.32566e-07
9.38853e-08
2.32094e-07
3.51637e-07
3.69826e-07
3.00373e-07
3.52139e-07
3.1859e-07
7.74054e-07
7.61695e-07
3.26918e-07
8.7138e-07
1.11485e-06
6.97173e-07
1.00393e-07
2.42441e-07
2.81303e-07
6.29863e-08
1.43381e-07
2.65397e-07
3.81676e-07
6.21115e-08
1.86616e-07
3.14037e-07
2.65894e-07
3.60186e-07
2.96093e-07
2.21504e-07
5.04972e-07
1.19405e-07
4.79429e-08
9.59899e-08
2.11176e-07
2.52837e-07
2.07916e-07
6.17237e-07
8.26003e-07
1.1647e-07
2.92498e-07
2.40119e-07
2.55102e-07
6.57689e-08
1.44602e-07
2.48311e-07
2.62295e-07
2.32238e-07
2.56161e-07
2.50472e-07
4.97469e-07
4.88194e-07
2.82888e-07
7.08929e-07
9.43541e-07
5.7388e-07
7.7806e-08
1.85065e-07
2.08602e-07
3.45342e-08
7.9741e-08
1.56817e-07
2.92346e-07
5.62193e-08
1.31144e-07
2.3784e-07
2.03793e-07
2.89429e-07
1.95406e-07
1.50039e-07
3.15184e-07
7.64024e-08
3.89128e-08
6.04999e-08
1.34375e-07
1.62954e-07
1.51986e-07
4.98588e-07
6.57669e-07
9.10809e-08
2.05226e-07
2.09358e-07
1.55725e-07
4.76077e-08
9.16219e-08
1.77668e-07
1.84215e-07
1.85724e-07
1.96789e-07
1.98514e-07
3.19369e-07
3.18247e-07
2.52779e-07
5.78239e-07
7.75685e-07
4.65959e-07
6.75099e-08
1.41415e-07
1.52452e-07
2.12881e-08
4.07408e-08
9.44151e-08
2.18092e-07
4.91107e-08
9.70476e-08
1.8285e-07
1.53157e-07
2.18624e-07
1.29709e-07
1.01853e-07
1.90364e-07
4.58378e-08
3.44138e-08
3.76708e-08
8.70489e-08
1.01603e-07
1.0712e-07
4.02976e-07
5.1018e-07
7.55394e-08
1.36572e-07
1.70349e-07
1.00556e-07
3.77932e-08
6.17463e-08
1.28019e-07
1.30704e-07
1.49909e-07
1.56598e-07
1.59135e-07
2.07028e-07
2.10871e-07
2.27201e-07
4.74168e-07
6.25799e-07
3.72572e-07
6.33713e-08
1.0588e-07
1.1027e-07
1.60116e-08
2.02491e-08
6.07185e-08
1.58937e-07
4.19612e-08
7.46554e-08
1.41864e-07
1.13708e-07
1.55888e-07
8.74009e-08
6.95921e-08
1.11512e-07
2.63907e-08
2.88714e-08
2.34925e-08
5.72891e-08
6.12173e-08
7.51548e-08
3.20824e-07
3.88417e-07
6.50501e-08
8.41316e-08
1.30777e-07
6.81588e-08
3.19538e-08
4.43677e-08
9.3964e-08
9.58892e-08
1.2101e-07
1.26983e-07
1.2838e-07
1.36982e-07
1.42255e-07
2.01098e-07
3.86232e-07
4.96567e-07
2.9479e-07
6.06155e-08
7.82516e-08
7.92071e-08
1.43936e-08
1.13288e-08
4.25227e-08
1.13775e-07
3.47266e-08
5.82723e-08
1.09486e-07
8.26205e-08
1.05169e-07
5.9861e-08
4.78455e-08
6.38993e-08
1.47274e-08
2.28818e-08
1.48434e-08
3.77246e-08
3.55541e-08
5.32322e-08
2.49224e-07
2.91562e-07
5.65449e-08
4.83598e-08
9.491e-08
4.83303e-08
2.74969e-08
3.36818e-08
6.9662e-08
7.23498e-08
9.69632e-08
1.03426e-07
1.03444e-07
9.31119e-08
9.75689e-08
1.73165e-07
3.11106e-07
3.86901e-07
2.31792e-07
5.75133e-08
5.78792e-08
5.68357e-08
1.4176e-08
8.71153e-09
3.21889e-08
7.98622e-08
2.78765e-08
4.48644e-08
8.24413e-08
5.78553e-08
6.73062e-08
4.13678e-08
3.3147e-08
3.62448e-08
8.15934e-09
1.71015e-08
9.66913e-09
2.45152e-08
1.98629e-08
3.87267e-08
1.88547e-07
2.16548e-07
4.91475e-08
2.63722e-08
6.45937e-08
3.49836e-08
2.34661e-08
2.64797e-08
5.1754e-08
5.5799e-08
7.68436e-08
8.36131e-08
8.2524e-08
6.48985e-08
6.79642e-08
1.44245e-07
2.47149e-07
2.96558e-07
1.81577e-07
5.37054e-08
4.35145e-08
4.09848e-08
1.42059e-08
8.84637e-09
2.55729e-08
5.52433e-08
2.17911e-08
3.36024e-08
5.97104e-08
3.85546e-08
4.09977e-08
2.88985e-08
2.32449e-08
2.07056e-08
4.55941e-09
1.22068e-08
6.59955e-09
1.55676e-08
1.07901e-08
2.93145e-08
1.39328e-07
1.59626e-07
4.24819e-08
1.41377e-08
4.12272e-08
2.57489e-08
1.96788e-08
2.12776e-08
3.83667e-08
4.37988e-08
6.0239e-08
6.65497e-08
6.47011e-08
4.60282e-08
4.80895e-08
1.16179e-07
1.93179e-07
2.23958e-07
1.41456e-07
4.92387e-08
3.37729e-08
2.99974e-08
1.39141e-08
9.70545e-09
2.08232e-08
3.80591e-08
1.66751e-08
2.42772e-08
4.10151e-08
2.41042e-08
2.38909e-08
2.05013e-08
1.66314e-08
1.22544e-08
2.67001e-09
8.51658e-09
4.76314e-09
9.71531e-09
5.98143e-09
2.31864e-08
1.01196e-07
1.16998e-07
3.64305e-08
8.18477e-09
2.48747e-08
1.8956e-08
1.62523e-08
1.73092e-08
2.8404e-08
3.49387e-08
4.68524e-08
5.19652e-08
4.96152e-08
3.28967e-08
3.46018e-08
9.06488e-08
1.48096e-07
1.66937e-07
1.09717e-07
4.43137e-08
2.7302e-08
2.25802e-08
1.32116e-08
1.0353e-08
1.72607e-08
2.63771e-08
1.25652e-08
1.67216e-08
2.64335e-08
1.3844e-08
1.35162e-08
1.48299e-08
1.2266e-08
7.77334e-09
1.74593e-09
5.97238e-09
3.65782e-09
6.10563e-09
3.82504e-09
1.9138e-08
7.28483e-08
8.54006e-08
3.1038e-08
5.89707e-09
1.44876e-08
1.38168e-08
1.33365e-08
1.42104e-08
2.11144e-08
2.82625e-08
3.65302e-08
3.98113e-08
3.71655e-08
2.36143e-08
2.53498e-08
6.88502e-08
1.11327e-07
1.22998e-07
8.46453e-08
3.91103e-08
2.29528e-08
1.76872e-08
1.22588e-08
1.05063e-08
1.443e-08
1.85896e-08
9.39453e-09
1.0881e-08
1.57235e-08
7.11424e-09
7.70592e-09
1.10807e-08
9.43178e-09
5.44876e-09
1.38267e-09
4.33495e-09
3.00424e-09
4.0926e-09
3.2294e-09
1.63026e-08
5.24279e-08
6.22031e-08
2.63255e-08
5.56065e-09
8.63917e-09
1.01117e-08
1.10029e-08
1.17943e-08
1.59011e-08
2.31384e-08
2.82649e-08
2.98584e-08
2.72633e-08
1.71007e-08
1.89461e-08
5.10182e-08
8.20437e-08
8.97061e-08
6.48753e-08
3.38405e-08
1.98626e-08
1.45242e-08
1.12396e-08
1.02207e-08
1.21595e-08
1.34736e-08
7.05802e-09
6.68792e-09
8.47432e-09
3.18078e-09
4.78224e-09
8.65749e-09
7.6373e-09
4.30659e-09
1.36895e-09
3.34672e-09
2.65076e-09
3.15891e-09
3.44958e-09
1.41984e-08
3.81504e-08
4.53548e-08
2.22579e-08
6.10441e-09
5.89848e-09
7.6806e-09
9.27866e-09
9.94424e-09
1.22656e-08
1.91376e-08
2.19198e-08
2.20282e-08
1.97226e-08
1.26259e-08
1.44324e-08
3.70798e-08
5.92642e-08
6.47688e-08
4.93227e-08
2.86891e-08
1.74556e-08
1.24959e-08
1.03029e-08
9.66444e-09
1.03567e-08
1.01614e-08
5.44501e-09
3.97649e-09
4.09357e-09
1.30932e-09
3.57297e-09
7.15549e-09
6.5485e-09
3.83529e-09
1.57252e-09
2.81012e-09
2.51279e-09
2.89581e-09
3.99529e-09
1.2527e-08
2.82091e-08
3.3289e-08
1.8843e-08
6.8945e-09
5.05493e-09
6.30468e-09
8.10811e-09
8.5638e-09
9.7743e-09
1.59638e-08
1.70926e-08
1.60804e-08
1.42416e-08
9.62807e-09
1.12083e-08
2.65797e-08
4.20036e-08
4.62585e-08
3.71289e-08
2.3855e-08
1.53923e-08
1.11577e-08
9.52768e-09
9.02706e-09
8.978e-09
8.05944e-09
4.45403e-09
2.52218e-09
1.92391e-09
8.36796e-10
3.32411e-09
6.29691e-09
5.93472e-09
3.75369e-09
1.94138e-09
2.59628e-09
2.53764e-09
2.99984e-09
4.5627e-09
1.11209e-08
2.13208e-08
2.47633e-08
1.60215e-08
7.58197e-09
5.19332e-09
5.70403e-09
7.37282e-09
7.55881e-09
8.06764e-09
1.3426e-08
1.34761e-08
1.17506e-08
1.0443e-08
7.65941e-09
8.85803e-09
1.89006e-08
2.92721e-08
3.26414e-08
2.76216e-08
1.94517e-08
1.35108e-08
1.01968e-08
8.91905e-09
8.45262e-09
7.99597e-09
6.80074e-09
3.98882e-09
2.04426e-09
1.29648e-09
1.22629e-09
3.57917e-09
5.87611e-09
5.63773e-09
3.90025e-09
2.40365e-09
2.6176e-09
2.6781e-09
3.25968e-09
4.98295e-09
9.88429e-09
1.64975e-08
1.87912e-08
1.37029e-08
8.00101e-09
5.69009e-09
5.58347e-09
6.94391e-09
6.83558e-09
6.87232e-09
1.14031e-08
1.0837e-08
8.72738e-09
7.92969e-09
6.3776e-09
7.11205e-09
1.33898e-08
2.01077e-08
2.27353e-08
2.02788e-08
1.5571e-08
1.17386e-08
9.4083e-09
8.4427e-09
7.98577e-09
7.36004e-09
6.14073e-09
3.95117e-09
2.26164e-09
1.64446e-09
2.07489e-09
4.07409e-09
5.74632e-09
5.54732e-09
4.1597e-09
2.89671e-09
2.80085e-09
2.8954e-09
3.53727e-09
5.18973e-09
8.76271e-09
1.30495e-08
1.45979e-08
1.17801e-08
8.09856e-09
6.17104e-09
5.66038e-09
6.68656e-09
6.30234e-09
6.00214e-09
9.82193e-09
8.98808e-09
6.71791e-09
6.34352e-09
5.54483e-09
5.81102e-09
9.53965e-09
1.36758e-08
1.56413e-08
1.46948e-08
1.2269e-08
1.00931e-08
8.68684e-09
8.05306e-09
7.65632e-09
7.01391e-09
5.90867e-09
4.23779e-09
2.9142e-09
2.50573e-09
3.10555e-09
4.66055e-09
5.79989e-09
5.58459e-09
4.45988e-09
3.37559e-09
3.0768e-09
3.14015e-09
3.75033e-09
5.17883e-09
7.72522e-09
1.05103e-08
1.1598e-08
1.01466e-08
7.88e-09
6.42341e-09
5.73671e-09
6.48118e-09
5.88019e-09
5.34123e-09
8.62403e-09
7.76177e-09
5.45832e-09
5.40091e-09
5.01849e-09
4.86633e-09
6.91583e-09
9.29457e-09
1.06818e-08
1.05552e-08
9.5745e-09
8.61654e-09
8.00054e-09
7.71648e-09
7.44405e-09
6.88992e-09
5.97318e-09
4.7422e-09
3.79038e-09
3.56943e-09
4.14683e-09
5.25837e-09
5.96152e-09
5.69505e-09
4.75408e-09
3.8041e-09
3.38032e-09
3.36798e-09
3.86542e-09
4.9901e-09
6.75714e-09
8.57376e-09
9.37333e-09
8.71601e-09
7.39924e-09
6.39083e-09
5.68919e-09
6.24372e-09
5.51095e-09
4.81808e-09
7.745e-09
7.03014e-09
4.73632e-09
4.90615e-09
4.73362e-09
4.24436e-09
5.22715e-09
6.45066e-09
7.36069e-09
7.62279e-09
7.50375e-09
7.38324e-09
7.37493e-09
7.42258e-09
7.32205e-09
6.91867e-09
6.22291e-09
5.36121e-09
4.73008e-09
4.6408e-09
5.10617e-09
5.82709e-09
6.18278e-09
5.84555e-09
5.01741e-09
4.16127e-09
3.66185e-09
3.55065e-09
3.88175e-09
4.68095e-09
5.86172e-09
7.04505e-09
7.65214e-09
7.43658e-09
6.733e-09
6.09926e-09
5.48121e-09
5.93162e-09
5.15962e-09
4.38701e-09
7.12296e-09
6.72936e-09
4.40119e-09
4.75202e-09
4.68185e-09
3.95482e-09
4.29627e-09
4.79326e-09
5.33611e-09
5.73607e-09
6.0814e-09
6.47679e-09
6.8873e-09
7.20069e-09
7.2762e-09
7.0436e-09
6.56861e-09
6.00448e-09
5.62347e-09
5.61583e-09
5.94848e-09
6.35542e-09
6.4402e-09
6.02054e-09
5.24718e-09