/*--------------------------------*- C++ -*----------------------------------*\
  =========                 |
  \\      /  F ield         | OpenFOAM: The Open Source CFD Toolbox
   \\    /   O peration     | Website:  https://openfoam.org
    \\  /    A nd           | Version:  10
     \\/     M anipulation  |
\*---------------------------------------------------------------------------*/
FoamFile
{
    format      ascii;
    class       volVectorField;
    location    "3";
    object      U;
}
// * * * * * * * * * * * * * * * * * * * * * * * * * * * * * * * * * * * * * //

dimensions      [0 1 -1 0 0 0 0];

internalField   nonuniform List<vector> 
25600
(
(0.00599558 2.94786e-06 -0.00245274)
(0.00780484 1.33268e-05 -0.00210708)
(0.00781594 1.86083e-06 0.00154482)
(0.00961833 -1.79027e-05 0.00298447)
(0.00929255 -3.19554e-06 0.000978064)
(0.00635127 -3.20677e-06 -0.00228809)
(0.00777339 1.33537e-05 -0.00228728)
(0.00745013 2.48853e-06 0.00140861)
(0.00974024 -2.28101e-05 0.00330503)
(0.00905642 -8.22363e-07 0.000536076)
(0.00635149 2.03643e-06 -0.00256192)
(0.00770613 9.58773e-06 -0.00176279)
(0.00800757 -8.39651e-06 0.0015356)
(0.00960009 -1.85267e-05 0.00312528)
(0.00897874 2.25859e-06 0.000691053)
(0.00607519 2.69021e-06 -0.00250189)
(0.00773104 1.40237e-05 -0.0020038)
(0.0078076 1.78677e-06 0.00153122)
(0.00982019 -1.9466e-05 0.00298136)
(0.0092744 -4.16643e-06 0.000900588)
(0.00611277 2.1701e-06 -0.00255563)
(0.00740021 1.55899e-05 -0.0017602)
(0.00760517 8.90084e-07 0.00165624)
(0.00970345 -2.29704e-05 0.00283991)
(0.0092276 -7.32343e-06 0.000801266)
(0.00596353 -3.55101e-07 -0.00210376)
(0.00750741 1.65909e-05 -0.00239701)
(0.00750804 4.29138e-07 0.00145701)
(0.00944464 -1.87684e-05 0.00331473)
(0.00890455 -2.13889e-06 0.000833272)
(0.00583235 5.33808e-06 -0.00243672)
(0.00755655 1.33766e-05 -0.00197042)
(0.00772931 2.82204e-07 0.00131429)
(0.00967663 -2.28993e-05 0.00309449)
(0.00918102 -1.36855e-06 0.000560982)
(0.00621438 -1.58931e-06 -0.00232376)
(0.00790911 9.07822e-06 -0.00213506)
(0.00766926 1.11576e-06 0.00159861)
(0.00953842 -2.10645e-05 0.00317956)
(0.00888593 -4.84279e-08 0.000847204)
(0.0183156 0.00012536 -0.00794668)
(0.0235791 -3.36502e-05 -0.0072504)
(0.0239187 -0.00013039 0.00416056)
(0.0291156 -0.000251057 0.00932543)
(0.0283708 0.000135637 0.00335024)
(0.0193723 0.000107379 -0.00732064)
(0.0234891 3.08098e-05 -0.00764598)
(0.0228034 -0.000112107 0.00375279)
(0.0294426 -0.000308052 0.0103319)
(0.0276303 0.000159149 0.00209905)
(0.0194134 7.80751e-05 -0.00810577)
(0.0233459 -6.32343e-05 -0.00619695)
(0.0245112 -0.000200806 0.004021)
(0.0290142 -0.000208858 0.0096869)
(0.0273463 0.000199972 0.00244844)
(0.0185463 0.000123592 -0.00804135)
(0.023378 -2.14336e-05 -0.00694163)
(0.0238982 -0.000113755 0.00404163)
(0.0297143 -0.000254586 0.00929755)
(0.0282676 0.000148332 0.00308424)
(0.0186388 0.000148577 -0.008133)
(0.0224247 2.18429e-05 -0.00619342)
(0.0233215 -0.000153408 0.00457699)
(0.0293606 -0.000313991 0.00895909)
(0.0281078 0.000137813 0.00274984)
(0.0180774 0.000183019 -0.00704174)
(0.0226645 4.59846e-05 -0.00807014)
(0.023036 -0.000125629 0.00401866)
(0.0285966 -0.000241109 0.0103458)
(0.0271379 0.000168799 0.00278889)
(0.0177336 0.000167297 -0.00800938)
(0.0228522 -1.58352e-05 -0.0068165)
(0.0236798 -0.000147817 0.00345262)
(0.0292888 -0.000280736 0.00959416)
(0.0280076 0.000152448 0.00218661)
(0.0189578 7.23641e-05 -0.0074075)
(0.0238757 -5.04295e-05 -0.00733801)
(0.0234918 -0.000135255 0.00433572)
(0.0288854 -0.000245646 0.00985171)
(0.0271066 0.000179483 0.0028217)
(0.031512 0.000397516 -0.0133135)
(0.0392131 -0.000115144 -0.0138206)
(0.0406287 -0.000370445 0.00523125)
(0.0488678 -0.000637583 0.016041)
(0.0484778 0.000432445 0.00697571)
(0.0332342 0.000363092 -0.0121302)
(0.0391876 7.84188e-05 -0.0142377)
(0.0387349 -0.000295251 0.00448604)
(0.0493254 -0.000802424 0.017732)
(0.047201 0.000489388 0.00510032)
(0.0333403 0.000252455 -0.0133984)
(0.0389852 -0.000198594 -0.0120015)
(0.0416348 -0.000544725 0.00490757)
(0.0486963 -0.00050485 0.016603)
(0.0466778 0.00061413 0.0054802)
(0.0318672 0.00038535 -0.0134293)
(0.0389193 -8.76074e-05 -0.013306)
(0.0405727 -0.000320168 0.00496385)
(0.0498741 -0.000651768 0.0160058)
(0.0482582 0.000481118 0.00651401)
(0.0319834 0.000450448 -0.0135142)
(0.0374108 3.98104e-05 -0.0120923)
(0.0396236 -0.000416006 0.00607508)
(0.0492262 -0.000811888 0.0155709)
(0.047966 0.000462988 0.00586097)
(0.0308957 0.000583616 -0.0119869)
(0.0376745 0.000111796 -0.015142)
(0.0391771 -0.000345212 0.00505109)
(0.0480061 -0.000606088 0.0177953)
(0.0463599 0.000533596 0.00597331)
(0.030386 0.000506446 -0.0135878)
(0.0380487 -7.43793e-05 -0.013038)
(0.0401954 -0.000411993 0.00409145)
(0.0491487 -0.000720698 0.0164234)
(0.0478511 0.000475633 0.00517623)
(0.0325348 0.000258819 -0.0122604)
(0.0397228 -0.00014994 -0.0139258)
(0.0399742 -0.000388992 0.00548761)
(0.0485453 -0.000619096 0.0168749)
(0.046343 0.000554711 0.00598663)
(0.0458884 0.000894469 -0.0173532)
(0.0538386 -0.000221926 -0.0217971)
(0.0573567 -0.00071829 0.00355882)
(0.068105 -0.00115974 0.0225858)
(0.0692869 0.000925585 0.0123593)
(0.0481214 0.000838628 -0.0156148)
(0.0541456 0.000153294 -0.0219906)
(0.0546955 -0.000515089 0.00235727)
(0.0685733 -0.0014981 0.02485)
(0.0674217 0.00102023 0.0101342)
(0.0483525 0.000584704 -0.0172727)
(0.0538468 -0.000388209 -0.0191405)
(0.0587491 -0.00103021 0.00306225)
(0.067956 -0.000891713 0.0233372)
(0.0666784 0.00128678 0.0103751)
(0.0463067 0.000863242 -0.0174919)
(0.0535122 -0.000187793 -0.0210937)
(0.0572217 -0.000618185 0.00311724)
(0.0695134 -0.00120133 0.0226034)
(0.0689044 0.00104666 0.011727)
(0.0463702 0.000970384 -0.0175708)
(0.0515756 6.37755e-05 -0.0195337)
(0.0559343 -0.000760806 0.00489916)
(0.0684729 -0.0015017 0.0221904)
(0.0684744 0.00101741 0.0106667)
(0.0446775 0.00128013 -0.0157919)
(0.0517193 0.00021682 -0.0236094)
(0.0553549 -0.000648361 0.00324961)
(0.0669594 -0.00110433 0.0250887)
(0.0662893 0.00113282 0.010998)
(0.0440949 0.00109006 -0.0180023)
(0.0523257 -0.000171927 -0.020626)
(0.05664 -0.000782418 0.00213201)
(0.068457 -0.00133543 0.0230473)
(0.0683863 0.00100521 0.0100701)
(0.0471711 0.000637454 -0.0157512)
(0.0545957 -0.000268608 -0.0218398)
(0.0565772 -0.000770017 0.0037981)
(0.0678171 -0.00113155 0.0237038)
(0.0663329 0.00115473 0.0109317)
(0.0616627 0.00173316 -0.0186786)
(0.0667991 -0.000300484 -0.030309)
(0.0731617 -0.00113361 -0.0015552)
(0.0860184 -0.00179489 0.0278765)
(0.0901457 0.00163443 0.0194338)
(0.0641164 0.00163734 -0.0165558)
(0.0678249 0.00027611 -0.0300548)
(0.0698271 -0.000688879 -0.0033204)
(0.0863529 -0.00237355 0.0304224)
(0.0876118 0.00175576 0.0171297)
(0.0646032 0.00118351 -0.0184013)
(0.0673637 -0.000587186 -0.0267466)
(0.0748466 -0.00158967 -0.00217554)
(0.0861014 -0.00136544 0.0288044)
(0.0867599 0.00223063 0.0171354)
(0.0620589 0.00168419 -0.0188552)
(0.0665174 -0.000277867 -0.0294816)
(0.0728956 -0.000975891 -0.00222288)
(0.0877783 -0.00189328 0.0280748)
(0.0895237 0.00187923 0.0186909)
(0.0619473 0.00180467 -0.018992)
(0.0643542 0.000127626 -0.0277662)
(0.0713436 -0.00110244 0.000165367)
(0.0862324 -0.00235444 0.0277685)
(0.0889804 0.00182849 0.0171662)
(0.059638 0.00236534 -0.0171477)
(0.0642014 0.000393612 -0.0326309)
(0.0706187 -0.000975331 -0.00218493)
(0.0847642 -0.0017346 0.0310442)
(0.0863433 0.00197568 0.0178629)
(0.0591373 0.00201958 -0.0198656)
(0.0650651 -0.000275237 -0.0287709)
(0.0720382 -0.0011969 -0.00304231)
(0.0863477 -0.0021152 0.0284121)
(0.0889514 0.00175469 0.0168245)
(0.0630279 0.00134031 -0.0166163)
(0.0678298 -0.000344952 -0.0302156)
(0.0723905 -0.00124871 -0.00146297)
(0.0859784 -0.00178043 0.0292238)
(0.086518 0.00197158 0.0176461)
(0.0786194 0.00306656 -0.016425)
(0.0783076 -0.000265026 -0.0372842)
(0.0869883 -0.00152781 -0.00943671)
(0.102019 -0.00258235 0.0303413)
(0.110178 0.002548 0.0273494)
(0.0809458 0.00289677 -0.0142247)
(0.0803263 0.000470556 -0.0365421)
(0.0832363 -0.000705241 -0.0117599)
(0.102082 -0.00344989 0.0326162)
(0.106918 0.00266039 0.025137)
(0.0818764 0.00221301 -0.0160244)
(0.0797925 -0.000720177 -0.0328096)
(0.08873 -0.00212034 -0.0101855)
(0.102648 -0.0019961 0.0314314)
(0.106181 0.00342257 0.0249497)
(0.0789095 0.00302694 -0.0166129)
(0.0781304 -0.000276947 -0.0364979)
(0.0865564 -0.00132516 -0.0104534)
(0.10399 -0.00277652 0.030945)
(0.109229 0.00297931 0.0265883)
(0.0784728 0.0030944 -0.0169092)
(0.0760171 0.000273714 -0.0348864)
(0.0848179 -0.00131292 -0.00768398)
(0.101889 -0.00339429 0.0306997)
(0.108624 0.00289391 0.0246067)
(0.0756435 0.00394739 -0.0152032)
(0.0753601 0.000680613 -0.0401631)
(0.0838739 -0.00123327 -0.0106285)
(0.101 -0.00257648 0.0338826)
(0.105761 0.00302911 0.0257239)
(0.0754013 0.00343564 -0.0182293)
(0.0764619 -0.000323401 -0.0355316)
(0.0853155 -0.00154352 -0.0107682)
(0.10213 -0.00310615 0.030981)
(0.108666 0.00270065 0.0246259)
(0.0799049 0.00254751 -0.0141544)
(0.0795992 -0.000279969 -0.0370652)
(0.086346 -0.00174333 -0.00962632)
(0.102497 -0.00263396 0.0318142)
(0.106154 0.00295409 0.0252983)
(0.0959634 0.00497837 -0.0110955)
(0.0897129 2.73324e-05 -0.0395582)
(0.0982344 -0.00183369 -0.0174401)
(0.115813 -0.00364803 0.0286605)
(0.12851 0.00356258 0.0344229)
(0.097866 0.00471305 -0.00911813)
(0.0924226 0.00077266 -0.0386719)
(0.0945433 -0.000502226 -0.0201929)
(0.115474 -0.00477743 0.0299751)
(0.124617 0.0035943 0.0323182)
(0.0994171 0.00380026 -0.0107565)
(0.0923725 -0.000646858 -0.0345149)
(0.0995538 -0.00253465 -0.0184894)
(0.117274 -0.00295684 0.0298694)
(0.124311 0.00474276 0.0321586)
(0.0960773 0.00500792 -0.0111788)
(0.0896419 -3.73277e-05 -0.0391102)
(0.097669 -0.00159985 -0.0190123)
(0.117733 -0.00398015 0.0299262)
(0.127243 0.00424188 0.0337362)
(0.0951415 0.00493472 -0.0117078)
(0.0878801 0.000574292 -0.0379848)
(0.0957738 -0.00130539 -0.0161708)
(0.11518 -0.00472194 0.0295352)
(0.126605 0.00411987 0.0314251)
(0.0920428 0.00607731 -0.0103823)
(0.0864898 0.00113122 -0.0428375)
(0.094461 -0.00135674 -0.01943)
(0.115449 -0.00380421 0.0320295)
(0.123839 0.00415554 0.0328546)
(0.0921656 0.00542426 -0.0134408)
(0.0877509 -0.00018993 -0.0379833)
(0.0959139 -0.00172704 -0.018517)
(0.115367 -0.00443185 0.0293828)
(0.126682 0.00371892 0.0318634)
(0.0970651 0.00438034 -0.00899093)
(0.0912001 8.35461e-05 -0.0394083)
(0.0977268 -0.00216048 -0.0181001)
(0.116985 -0.003841 0.0301061)
(0.124525 0.00395609 0.0322224)
(0.112672 0.00734805 -0.0045257)
(0.102504 0.000698646 -0.0357327)
(0.107489 -0.00211276 -0.0213171)
(0.127082 -0.0051362 0.02336)
(0.1445 0.00440708 0.0384714)
(0.113938 0.0070233 -0.00305207)
(0.10473 0.00124879 -0.034944)
(0.104476 -0.000143546 -0.0241491)
(0.126159 -0.0063612 0.0234561)
(0.140384 0.00424119 0.0363966)
(0.116179 0.00588589 -0.00449338)
(0.10619 -0.000195314 -0.0308633)
(0.107754 -0.00281624 -0.0229687)
(0.129317 -0.00447073 0.0244809)
(0.140827 0.0058859 0.0366177)
(0.112589 0.00751774 -0.00435608)
(0.102452 0.000583346 -0.0356654)
(0.106871 -0.00181889 -0.0236185)
(0.128578 -0.00564573 0.0253512)
(0.143233 0.00535529 0.0379042)
(0.110938 0.00725058 -0.00514342)
(0.10119 0.00112532 -0.0353881)
(0.104863 -0.00112984 -0.0210504)
(0.125822 -0.00643688 0.0246499)
(0.142444 0.00523232 0.0355876)
(0.107938 0.00866863 -0.00445743)
(0.0989179 0.00181486 -0.0385745)
(0.102977 -0.00139802 -0.0241182)
(0.127514 -0.00558975 0.0259387)
(0.1401 0.00504032 0.0370414)
(0.108407 0.00788956 -0.00716641)
(0.10023 0.000274415 -0.0347564)
(0.104721 -0.0017383 -0.0221804)
(0.125625 -0.00620655 0.0239607)
(0.142454 0.00450699 0.0364398)
(0.113464 0.00674604 -0.00300368)
(0.104002 0.000903498 -0.0358151)
(0.106886 -0.00248342 -0.0226865)
(0.128716 -0.00555107 0.0245377)
(0.141088 0.0046689 0.0363082)
(0.127875 0.00982113 0.00111927)
(0.116669 0.00176984 -0.028933)
(0.117065 -0.00254458 -0.0183383)
(0.135018 -0.00715626 0.0169534)
(0.157287 0.00470845 0.0377035)
(0.128329 0.00957252 0.00170114)
(0.117081 0.00193536 -0.0280784)
(0.115153 -6.55708e-05 -0.0205295)
(0.13321 -0.00822517 0.0163308)
(0.153749 0.0041966 0.0357877)
(0.131107 0.00818377 0.000548343)
(0.120648 0.000675932 -0.0247371)
(0.11615 -0.00307323 -0.0202831)
(0.137131 -0.00672946 0.0175513)
(0.155215 0.00640606 0.0367622)
(0.127702 0.0101884 0.00161318)
(0.116484 0.00160312 -0.0287944)
(0.116383 -0.00210322 -0.0209769)
(0.135683 -0.007843 0.0194295)
(0.156762 0.00589159 0.0373927)
(0.125161 0.00975552 0.00046115)
(0.115548 0.001962 -0.0293478)
(0.114554 -0.00106601 -0.0189099)
(0.132951 -0.00858624 0.0184914)
(0.155589 0.00583327 0.0355132)
(0.122563 0.0114527 0.000488166)
(0.112614 0.00273952 -0.0305425)
(0.112141 -0.00162816 -0.021245)
(0.135708 -0.008016 0.0183337)
(0.153789 0.00528261 0.0366715)
(0.123254 0.0105042 -0.00146703)
(0.11381 0.00111875 -0.0285753)
(0.114566 -0.00178395 -0.0192062)
(0.132179 -0.00843118 0.0171324)
(0.155372 0.00466669 0.0366225)
(0.128045 0.00932224 0.00163646)
(0.117743 0.00219203 -0.0290739)
(0.116092 -0.00277618 -0.0201288)
(0.136203 -0.0078111 0.0175647)
(0.154984 0.00467968 0.0359807)
(0.140007 0.01177 0.00385152)
(0.130719 0.0029933 -0.0221823)
(0.128193 -0.0029991 -0.0114497)
(0.138772 -0.00914655 0.0120554)
(0.161588 0.00412286 0.0310043)
(0.139298 0.0117363 0.00322717)
(0.129045 0.0026534 -0.0214485)
(0.12733 -0.00042158 -0.0125494)
(0.136301 -0.00989153 0.0115635)
(0.160019 0.00307747 0.0296196)
(0.142396 0.0101275 0.00252641)
(0.133896 0.00174647 -0.0193118)
(0.127143 -0.00317838 -0.0129278)
(0.139021 -0.00925797 0.0117379)
(0.1634 0.00584777 0.0317741)
(0.140199 0.0124036 0.00472187)
(0.130358 0.0027564 -0.0216195)
(0.127561 -0.00232169 -0.0135825)
(0.138331 -0.0100325 0.0144995)
(0.163373 0.00548485 0.0312429)
(0.136679 0.0118416 0.00294473)
(0.129503 0.00287518 -0.0228316)
(0.126294 -0.00115106 -0.0120521)
(0.135896 -0.0105831 0.0135377)
(0.161736 0.00556781 0.0300397)
(0.13457 0.0138213 0.00264292)
(0.126699 0.00369606 -0.0225525)
(0.124111 -0.00201765 -0.0136356)
(0.138665 -0.0105221 0.0122968)
(0.160254 0.00457995 0.0307899)
(0.135342 0.012683 0.0017136)
(0.127467 0.00211703 -0.0222706)
(0.126581 -0.00195618 -0.0125129)
(0.135014 -0.0104799 0.0117497)
(0.160984 0.00388351 0.0311692)
(0.13911 0.0115062 0.00311044)
(0.130917 0.00363199 -0.0223337)
(0.127305 -0.00289766 -0.0129153)
(0.13846 -0.010021 0.0119278)
(0.161532 0.00359426 0.0302679)
(0.146319 0.0123121 0.00261287)
(0.140829 0.00382755 -0.0162517)
(0.137495 -0.00301965 -0.00469763)
(0.139139 -0.0100043 0.009211)
(0.155224 0.00296359 0.0206251)
(0.144804 0.0125385 0.00129551)
(0.138136 0.00295293 -0.015838)
(0.137532 -0.000707411 -0.0047632)
(0.137264 -0.0104619 0.00945665)
(0.155308 0.00135457 0.019603)
(0.147187 0.0108433 0.000788545)
(0.142233 0.00249425 -0.015119)
(0.13703 -0.00289985 -0.0055281)
(0.137472 -0.0106987 0.00837246)
(0.159788 0.00429684 0.022517)
(0.147425 0.0132338 0.00362807)
(0.140532 0.003525 -0.0153463)
(0.137275 -0.00212862 -0.00586498)
(0.13808 -0.0110252 0.0110823)
(0.158805 0.00426286 0.0210674)
(0.143671 0.0125935 0.00155459)
(0.139784 0.00339475 -0.0168221)
(0.136685 -0.00107429 -0.0048165)
(0.136439 -0.0113026 0.0104624)
(0.156785 0.00445815 0.0203339)
(0.142061 0.0147882 0.0011649)
(0.138108 0.00417991 -0.0158107)
(0.135602 -0.00213387 -0.00598254)
(0.138141 -0.0117692 0.0090876)
(0.155335 0.0032181 0.0208276)
(0.142772 0.0135609 0.00127971)
(0.138105 0.00279599 -0.0165201)
(0.137203 -0.00191045 -0.00573418)
(0.135917 -0.011301 0.00885581)
(0.156002 0.00252753 0.0216124)
(0.14467 0.0124261 0.00095716)
(0.140411 0.004592 -0.0164439)
(0.137297 -0.00261626 -0.00557042)
(0.137897 -0.0109602 0.00859438)
(0.156581 0.00180918 0.020678)
(0.145469 0.0107607 -0.000713556)
(0.143241 0.00378 -0.0113364)
(0.14122 -0.00233927 0.000274425)
(0.137731 -0.00931535 0.0069763)
(0.145036 0.0017685 0.0102689)
(0.144181 0.0110581 -0.00169264)
(0.140907 0.00252275 -0.0110735)
(0.141566 -0.000509038 0.000759636)
(0.137138 -0.00960399 0.00792843)
(0.145773 -0.000131853 0.00976615)
(0.144891 0.00956625 -0.00249984)
(0.142923 0.00249119 -0.011541)
(0.14139 -0.00206276 -4.19297e-06)
(0.1356 -0.0104401 0.00604747)
(0.149396 0.00255673 0.0124533)
(0.1473 0.011863 -0.000319808)
(0.1432 0.00348971 -0.0104987)
(0.141589 -0.00132692 -2.34093e-05)
(0.136718 -0.0103214 0.00788937)
(0.148466 0.00279244 0.0107213)
(0.144605 0.0111688 -0.00152256)
(0.142613 0.00316418 -0.0116444)
(0.14151 -0.000591033 0.000688396)
(0.135934 -0.0103928 0.00790062)
(0.146461 0.00304121 0.0102159)
(0.14389 0.0132925 -0.00201564)
(0.142557 0.00379379 -0.0103025)
(0.141493 -0.00163842 -0.00025621)
(0.136693 -0.0111576 0.00706713)
(0.145254 0.00177245 0.0106233)
(0.144219 0.0121276 -0.00138389)
(0.141893 0.00275711 -0.0115592)
(0.141958 -0.00133366 -0.000407876)
(0.135857 -0.0104591 0.00698883)
(0.146222 0.00127459 0.0116735)
(0.144321 0.0112589 -0.00249566)
(0.143031 0.00456103 -0.0114596)
(0.141838 -0.00178765 1.81362e-06)
(0.136755 -0.0102254 0.00611872)
(0.14647 0.00017277 0.0110512)
(0.140803 0.00809913 -0.00272661)
(0.140608 0.00317709 -0.00746417)
(0.140621 -0.00132762 0.00282879)
(0.136924 -0.00756859 0.00489345)
(0.137598 0.000707921 0.00311388)
(0.140333 0.00832718 -0.0028917)
(0.139151 0.00183273 -0.00719042)
(0.140574 8.09934e-05 0.00339071)
(0.137305 -0.00772141 0.00622819)
(0.13824 -0.00106225 0.00308986)
(0.139965 0.00718698 -0.00414037)
(0.139866 0.00204009 -0.00817216)
(0.141025 -0.00103014 0.00290771)
(0.135378 -0.00881941 0.00416472)
(0.139925 0.00112942 0.00458698)
(0.142481 0.00915474 -0.00325533)
(0.140651 0.00295699 -0.00691866)
(0.141145 -0.000270765 0.00301638)
(0.136276 -0.00841419 0.00499571)
(0.139621 0.00141007 0.00343057)
(0.141117 0.00845297 -0.00305486)
(0.140261 0.00255616 -0.00746838)
(0.141141 0.000105113 0.00352727)
(0.135991 -0.00840476 0.00546166)
(0.138169 0.00161541 0.00308623)
(0.14124 0.0102096 -0.00334442)
(0.141067 0.00297967 -0.0059202)
(0.14147 -0.00082121 0.00279127)
(0.136306 -0.00923228 0.00531576)
(0.137449 0.000546307 0.0033762)
(0.141105 0.00923254 -0.00296235)
(0.140268 0.00229396 -0.00756835)
(0.141332 -0.000467938 0.00251266)
(0.136159 -0.0084784 0.00531771)
(0.138238 0.000316325 0.00438962)
(0.140548 0.00873267 -0.00407539)
(0.140795 0.00388074 -0.00742173)
(0.141423 -0.000778779 0.0029232)
(0.136596 -0.00832511 0.00411873)
(0.138336 -0.000900935 0.00417826)
(0.137034 0.00557685 -0.00253121)
(0.137973 0.00249505 -0.00462164)
(0.139094 -0.000522023 0.00322467)
(0.13697 -0.00561494 0.00330669)
(0.134888 0.000110588 0.000438209)
(0.137229 0.00574763 -0.00222188)
(0.137233 0.00131026 -0.00441191)
(0.138751 0.000594042 0.00373608)
(0.137645 -0.00566297 0.00455906)
(0.135327 -0.00125825 0.000597635)
(0.136623 0.00485919 -0.0034998)
(0.137507 0.00159989 -0.00530388)
(0.139424 -0.000290316 0.00344586)
(0.136242 -0.00674154 0.00289604)
(0.135303 0.000335953 0.000980865)
(0.138063 0.0064505 -0.00345856)
(0.137966 0.00235524 -0.00425611)
(0.139415 0.000452292 0.00357856)
(0.136787 -0.00622363 0.00310073)
(0.135601 0.000550356 0.000586635)
(0.137621 0.00584652 -0.00251335)
(0.137768 0.00199553 -0.00449377)
(0.139395 0.000566004 0.00398443)
(0.136649 -0.00622617 0.00353199)
(0.134753 0.000661374 0.000460036)
(0.137902 0.00723698 -0.00233116)
(0.138612 0.00227293 -0.00291505)
(0.139688 -0.000194839 0.00348825)
(0.136755 -0.00696261 0.00385874)
(0.134426 -6.29925e-05 0.000541502)
(0.137685 0.00647369 -0.00241996)
(0.138009 0.00181637 -0.00462564)
(0.139464 0.000171442 0.00321385)
(0.136777 -0.00630264 0.00386394)
(0.134847 -0.000124135 0.00129791)
(0.137153 0.00618034 -0.0033175)
(0.138266 0.00309186 -0.00441242)
(0.139685 -7.61578e-05 0.00345981)
(0.137084 -0.00618329 0.00280162)
(0.135015 -0.001167 0.00127831)
(0.1356 0.00363211 -0.00159948)
(0.136729 0.00187911 -0.00277049)
(0.138084 -2.26889e-05 0.00258817)
(0.137003 -0.00398306 0.00220567)
(0.134722 -0.000118216 1.69303e-05)
(0.136004 0.00375789 -0.00125223)
(0.136337 0.00093128 -0.00268068)
(0.137692 0.000856553 0.00305513)
(0.137594 -0.003963 0.00313947)
(0.135062 -0.0011453 0.000176126)
(0.135493 0.00307326 -0.002242)
(0.136502 0.00122516 -0.00330511)
(0.13833 0.00011336 0.00285495)
(0.13666 -0.00489241 0.00194798)
(0.134417 8.59957e-05 0.000203791)
(0.13611 0.00429695 -0.00239008)
(0.136655 0.00179454 -0.00245868)
(0.138226 0.000753366 0.00296209)
(0.137017 -0.00438984 0.00197919)
(0.13491 0.0001985 8.97428e-05)
(0.136062 0.00379248 -0.00148097)
(0.136594 0.0015239 -0.00266537)
(0.138205 0.000720803 0.00325482)
(0.136931 -0.00442358 0.00221203)
(0.134326 0.000240543 0.000114715)
(0.136172 0.00490148 -0.00105417)
(0.137219 0.00168926 -0.0013105)
(0.138426 0.00017999 0.00296996)
(0.136918 -0.00501124 0.00266851)
(0.134178 -0.000207157 7.86648e-05)
(0.136078 0.0043232 -0.00131904)
(0.13682 0.00139001 -0.00272876)
(0.138267 0.000487825 0.00278388)
(0.136981 -0.00450965 0.00266879)
(0.13442 -0.000222166 0.000582992)
(0.135697 0.00414365 -0.00199468)
(0.136963 0.00236629 -0.00250758)
(0.138487 0.00029079 0.00288258)
(0.137186 -0.00439957 0.00187936)
(0.134678 -0.00104151 0.000580132)
(0.135406 0.00223732 -0.000910002)
(0.136256 0.00138118 -0.00164754)
(0.13749 0.000211148 0.0017739)
(0.136906 -0.00274479 0.00143481)
(0.135133 -0.000234567 4.49363e-05)
(0.135757 0.00232627 -0.000650693)
(0.135992 0.000659709 -0.00163454)
(0.137146 0.000893045 0.00219429)
(0.137361 -0.00267361 0.00208334)
(0.135405 -0.000987352 0.000165258)
(0.135366 0.00181006 -0.0013368)
(0.136133 0.000948971 -0.00204693)
(0.137689 0.000272015 0.00204579)
(0.136661 -0.00343941 0.00125474)
(0.134755 -6.15106e-06 0.00016467)
(0.135676 0.00271666 -0.00145985)
(0.136163 0.00134837 -0.00136345)
(0.137556 0.000790861 0.00211671)
(0.136938 -0.00298297 0.00127674)
(0.135226 3.20005e-05 7.66175e-05)
(0.135721 0.00230941 -0.000803014)
(0.136169 0.00115818 -0.0015962)
(0.137539 0.000689079 0.00228745)
(0.136879 -0.00303142 0.00137943)
(0.134756 1.69523e-05 0.000155477)
(0.135734 0.00318839 -0.00041978)
(0.136617 0.00121815 -0.000577188)
(0.137703 0.000332355 0.00214152)
(0.136831 -0.0034891 0.00179389)
(0.134656 -0.000241643 0.000108012)
(0.135715 0.00275523 -0.000619595)
(0.136336 0.00104996 -0.00159808)
(0.137616 0.000564744 0.00205575)
(0.1369 -0.00313878 0.00179232)
(0.134825 -0.000239707 0.000447499)
(0.135443 0.00265201 -0.00111258)
(0.13643 0.00177196 -0.0014185)
(0.137786 0.00040878 0.00207408)
(0.137033 -0.00302756 0.00122125)
(0.135076 -0.000864654 0.000424916)
(0.135497 0.00128076 -0.000504202)
(0.13603 0.000995161 -0.000952593)
(0.137065 0.000308712 0.00110731)
(0.136761 -0.00184141 0.000897617)
(0.135494 -0.000288555 7.98102e-05)
(0.135746 0.00133791 -0.000321931)
(0.135831 0.000463855 -0.000980558)
(0.136785 0.000836432 0.00147361)
(0.137092 -0.00175022 0.0013331)
(0.135708 -0.000818914 0.00016448)
(0.13545 0.000962294 -0.000787449)
(0.135956 0.000728559 -0.00125017)
(0.137231 0.000320372 0.00135681)
(0.136547 -0.00234198 0.000776666)
(0.135187 -5.48726e-05 0.000181993)
(0.135658 0.00161733 -0.000877693)
(0.135943 0.000996568 -0.000715912)
(0.137103 0.000740405 0.00139921)
(0.136773 -0.00195259 0.000815958)
(0.135586 -5.85578e-05 8.97698e-05)
(0.135709 0.00128988 -0.000425918)
(0.13598 0.000866293 -0.000944647)
(0.137091 0.000597369 0.00148084)
(0.136725 -0.00201317 0.000840763)
(0.135206 -0.000112305 0.000173285)
(0.135707 0.00198121 -0.00016458)
(0.136309 0.000860309 -0.000230312)
(0.13721 0.000381646 0.00141839)
(0.136675 -0.00237121 0.00118037)
(0.135117 -0.000238348 0.00014688)
(0.135709 0.00166094 -0.000263802)
(0.136099 0.000786315 -0.000915578)
(0.137174 0.000556276 0.00140747)
(0.136738 -0.00213733 0.00116685)
(0.135242 -0.000231322 0.000369158)
(0.135511 0.00160509 -0.000614964)
(0.136169 0.0013038 -0.000786766)
(0.13729 0.000437212 0.00138983)
(0.136826 -0.00202932 0.000765465)
(0.135446 -0.000693193 0.000344435)
(0.135591 0.000660969 -0.000268574)
(0.135891 0.000704477 -0.000522491)
(0.136723 0.000331994 0.000638509)
(0.136597 -0.00120789 0.000531421)
(0.135715 -0.000303264 8.44064e-05)
(0.135752 0.000694137 -0.000141915)
(0.135739 0.000320811 -0.000567882)
(0.136505 0.000726803 0.000944656)
(0.136829 -0.00111099 0.000816871)
(0.13588 -0.000658878 0.00014433)
(0.135535 0.000427931 -0.000453493)
(0.135847 0.000555206 -0.000742498)
(0.136861 0.000315545 0.000851724)
(0.136408 -0.00156518 0.000459004)
(0.135484 -8.26348e-05 0.000175601)
(0.135685 0.000886146 -0.000520978)
(0.135816 0.00073591 -0.000335818)
(0.136748 0.000652669 0.000876232)
(0.136591 -0.00123747 0.000507789)
(0.135809 -0.000101459 8.68754e-05)
(0.135731 0.00063417 -0.00021009)
(0.135867 0.000644295 -0.000539885)
(0.136741 0.000488635 0.000904996)
(0.136553 -0.00129422 0.000484337)
(0.135507 -0.000180271 0.000158837)
(0.135729 0.00117024 -4.98224e-05)
(0.136105 0.00059036 -5.51575e-05)
(0.136825 0.00037484 0.000888218)
(0.136509 -0.00158427 0.000755483)
(0.135425 -0.000213034 0.000149372)
(0.135738 0.000934033 -8.03566e-05)
(0.135948 0.000580594 -0.000493812)
(0.136821 0.000502017 0.0009187)
(0.136563 -0.0014255 0.000736263)
(0.135521 -0.000208172 0.000294445)
(0.135595 0.000908829 -0.000329065)
(0.136002 0.000943249 -0.000411183)
(0.136896 0.000412899 0.000885597)
(0.136618 -0.00132901 0.000461554)
(0.135675 -0.000545657 0.000273992)
(0.135646 0.000289277 -0.00013243)
(0.135796 0.000486612 -0.000262505)
(0.136443 0.000308544 0.000337099)
(0.136425 -0.000774773 0.000294749)
(0.135819 -0.000291089 7.1476e-05)
(0.135745 0.000304528 -4.55092e-05)
(0.135684 0.000217325 -0.000313009)
(0.136278 0.00059834 0.00058246)
(0.13658 -0.000683857 0.000476051)
(0.135942 -0.000514248 0.000114638)
(0.13559 0.000121869 -0.000253067)
(0.135771 0.00041427 -0.000424882)
(0.136555 0.000278442 0.000509631)
(0.136265 -0.00102316 0.000256977)
(0.135649 -9.43235e-05 0.000152653)
(0.135695 0.000436361 -0.000301324)
(0.135733 0.000534775 -0.000123712)
(0.136461 0.000543261 0.000524455)
(0.136408 -0.000755616 0.000309597)
(0.135906 -0.000113067 7.43599e-05)
(0.135736 0.000244265 -8.83621e-05)
(0.13579 0.000469746 -0.000295107)
(0.136457 0.000378901 0.000523858)
(0.136379 -0.000806727 0.000258701)
(0.135672 -0.000204432 0.000129745)
(0.135736 0.000652769 3.46841e-06)
(0.135958 0.000394016 2.61101e-05)
(0.136514 0.000337839 0.000531359)
(0.136343 -0.00103937 0.000471942)
(0.135599 -0.000179353 0.000133675)
(0.135748 0.000481773 1.23808e-05)
(0.135843 0.000423882 -0.000240517)
(0.136529 0.000428906 0.000581225)
(0.136389 -0.000931379 0.000447838)
(0.135674 -0.000182086 0.000223298)
(0.135646 0.000471788 -0.000161252)
(0.135884 0.000670423 -0.000193729)
(0.136575 0.00036158 0.0005446)
(0.136417 -0.000852888 0.000267451)
(0.135786 -0.000420431 0.000210432)
(0.135666 8.64263e-05 -5.71927e-05)
(0.135725 0.000328883 -0.000115854)
(0.13621 0.000264295 0.000159671)
(0.136249 -0.000485908 0.000151472)
(0.13584 -0.00025895 5.4673e-05)
(0.135721 8.97735e-05 2.17725e-06)
(0.135645 0.000142759 -0.000162364)
(0.136088 0.000468148 0.000347866)
(0.136348 -0.000408007 0.000263151)
(0.13593 -0.000388593 8.54941e-05)
(0.135615 -3.40177e-05 -0.000135147)
(0.135713 0.000301995 -0.000233272)
(0.136299 0.00022919 0.000292662)
(0.136119 -0.000656641 0.000136512)
(0.135716 -9.4764e-05 0.000124557)
(0.135684 0.000177835 -0.000167214)
(0.135674 0.000384762 -1.51814e-05)
(0.136224 0.000433803 0.000301562)
(0.136228 -0.000444217 0.000185874)
(0.135915 -0.000106655 5.92912e-05)
(0.135722 3.6519e-05 -2.29241e-05)
(0.135731 0.000337198 -0.000153271)
(0.136222 0.000280875 0.000287488)
(0.136208 -0.000485226 0.000124451)
(0.135738 -0.000199757 9.72436e-05)
(0.135721 0.000343203 2.43755e-05)
(0.135846 0.000254837 5.49505e-05)
(0.136259 0.000286079 0.000305146)
(0.13618 -0.000669646 0.00028852)
(0.135675 -0.000141369 0.000110278)
(0.135734 0.000221427 5.3905e-05)
(0.135764 0.000305228 -9.53969e-05)
(0.136284 0.000349383 0.000360823)
(0.136217 -0.00059535 0.000265884)
(0.135736 -0.000150878 0.000164922)
(0.135663 0.000217094 -6.67528e-05)
(0.135793 0.000464055 -7.62678e-05)
(0.136309 0.000295723 0.000324966)
(0.136225 -0.000535521 0.000150056)
(0.135813 -0.000316568 0.000156665)
(0.135653 -9.87903e-06 -1.73874e-05)
(0.135664 0.00021504 -3.87434e-05)
(0.136012 0.000209969 6.42422e-05)
(0.136073 -0.000297755 7.06772e-05)
(0.135804 -0.000216134 3.80272e-05)
(0.135681 -1.48832e-05 2.15159e-05)
(0.135609 8.91877e-05 -7.74741e-05)
(0.135926 0.000348126 0.000202948)
(0.136134 -0.000235705 0.00013749)
(0.135868 -0.000284298 6.05777e-05)
(0.13561 -9.65786e-05 -6.86289e-05)
(0.135659 0.00021283 -0.000123077)
(0.136081 0.000175384 0.000162833)
(0.135973 -0.000412834 6.90805e-05)
(0.135715 -8.4859e-05 9.66209e-05)
(0.135652 4.48372e-05 -8.79995e-05)
(0.135623 0.000271703 3.23017e-05)
(0.136024 0.000330392 0.000168156)
(0.136053 -0.000249543 0.000112207)
(0.135865 -8.9267e-05 4.48208e-05)
(0.135686 -5.73799e-05 7.3359e-06)
(0.135676 0.000235547 -7.54824e-05)
(0.136024 0.000197412 0.000149609)
(0.13604 -0.000281112 5.06345e-05)
(0.135735 -0.000177106 6.69648e-05)
(0.135685 0.000169297 2.80234e-05)
(0.135752 0.000158631 5.67081e-05)
(0.136047 0.00022867 0.000170008)
(0.136021 -0.000422296 0.000174261)
(0.135683 -0.000105002 8.67353e-05)
(0.135699 8.63098e-05 6.66586e-05)
(0.135696 0.000218134 -1.93598e-05)
(0.136074 0.000272836 0.000224669)
(0.136049 -0.000371853 0.000155541)
(0.135733 -0.00011859 0.000118736)
(0.13565 7.95571e-05 -1.64225e-05)
(0.135715 0.000311656 -1.78537e-05)
(0.136087 0.000228187 0.000191379)
(0.136044 -0.000330049 8.23167e-05)
(0.135783 -0.000231632 0.000113579)
(0.135612 -4.59728e-05 1.04553e-06)
(0.135599 0.00013513 -2.28461e-06)
(0.13584 0.000154774 1.9426e-05)
(0.135902 -0.000178695 2.89844e-05)
(0.135731 -0.000170103 2.5188e-05)
(0.135623 -5.4902e-05 2.62919e-05)
(0.135564 5.25221e-05 -3.22482e-05)
(0.135781 0.000245864 0.000117845)
(0.135937 -0.000131281 6.81275e-05)
(0.135775 -0.000200637 4.14924e-05)
(0.135577 -0.000106541 -3.26011e-05)
(0.135599 0.000144511 -6.19855e-05)
(0.135891 0.000125988 8.8662e-05)
(0.135828 -0.000254407 3.40606e-05)
(0.135667 -6.95171e-05 7.23263e-05)