/*--------------------------------*- C++ -*----------------------------------*\
  =========                 |
  \\      /  F ield         | OpenFOAM: The Open Source CFD Toolbox
   \\    /   O peration     | Website:  https://openfoam.org
    \\  /    A nd           | Version:  10
     \\/     M anipulation  |
\*---------------------------------------------------------------------------*/
FoamFile
{
    format      ascii;
    class       volScalarField;
    location    "9";
    object      nut;
}
// * * * * * * * * * * * * * * * * * * * * * * * * * * * * * * * * * * * * * //

dimensions      [0 2 -1 0 0 0 0];

internalField   nonuniform List<scalar> 
25600
(
1.59262e-05
1.8465e-05
1.79472e-05
1.66566e-05
1.60471e-05
1.64391e-05
1.63568e-05
1.62921e-05
1.66554e-05
1.76626e-05
1.74946e-05
1.64723e-05
1.41412e-05
1.45802e-05
1.45596e-05
1.51636e-05
1.47139e-05
1.46913e-05
1.59231e-05
1.54485e-05
1.40189e-05
1.31039e-05
1.18285e-05
1.23778e-05
1.32113e-05
1.47807e-05
1.55874e-05
1.61497e-05
1.71305e-05
1.63516e-05
1.47281e-05
1.43247e-05
1.26854e-05
1.27606e-05
1.26759e-05
1.22243e-05
1.32978e-05
1.44839e-05
1.61515e-05
1.73217e-05
1.61905e-05
2.03499e-05
1.87486e-05
1.79539e-05
1.83276e-05
1.57295e-05
1.57172e-05
1.73612e-05
1.78009e-05
1.8959e-05
1.82007e-05
1.75762e-05
1.49062e-05
1.46303e-05
1.47167e-05
1.55816e-05
1.4931e-05
1.57543e-05
1.75295e-05
1.57628e-05
1.44306e-05
1.40486e-05
1.26325e-05
1.32363e-05
1.28391e-05
1.32658e-05
1.44982e-05
1.58858e-05
1.88638e-05
2.11446e-05
1.82301e-05
1.32254e-05
1.16729e-05
1.26804e-05
1.27973e-05
1.24942e-05
1.26772e-05
1.34272e-05
1.59462e-05
1.71196e-05
1.5742e-05
2.03212e-05
1.89511e-05
1.89564e-05
2.10264e-05
1.62222e-05
1.45494e-05
1.65454e-05
1.7855e-05
1.99644e-05
1.84232e-05
1.86949e-05
1.66823e-05
1.45328e-05
1.4136e-05
1.54129e-05
1.51865e-05
1.62868e-05
1.79741e-05
1.61531e-05
1.48965e-05
1.51645e-05
1.36205e-05
1.37819e-05
1.22153e-05
1.11173e-05
1.18214e-05
1.38998e-05
1.82295e-05
2.46719e-05
2.40596e-05
1.40659e-05
1.01093e-05
1.17888e-05
1.2842e-05
1.19197e-05
1.10323e-05
1.16108e-05
1.41345e-05
1.6132e-05
1.39267e-05
1.80036e-05
1.70776e-05
1.76932e-05
2.26447e-05
1.8359e-05
1.47981e-05
1.54225e-05
1.64642e-05
2.01808e-05
1.83999e-05
1.82591e-05
1.88572e-05
1.50338e-05
1.29414e-05
1.43338e-05
1.47963e-05
1.71378e-05
1.83766e-05
1.59218e-05
1.46139e-05
1.5174e-05
1.45591e-05
1.52136e-05
1.28828e-05
9.97466e-06
8.87104e-06
9.12675e-06
1.21703e-05
2.17285e-05
2.94344e-05
1.86375e-05
8.68763e-06
9.04372e-06
1.23555e-05
1.17966e-05
9.19333e-06
9.31913e-06
1.10604e-05
1.33287e-05
9.91915e-06
1.35277e-05
1.24898e-05
1.27192e-05
2.07801e-05
1.87293e-05
1.70329e-05
1.82124e-05
1.70267e-05
2.01866e-05
1.92227e-05
1.67511e-05
1.91031e-05
1.68493e-05
1.19736e-05
1.22796e-05
1.23848e-05
1.72841e-05
2.07887e-05
1.56012e-05
1.46583e-05
1.37513e-05
1.38993e-05
1.77749e-05
1.54582e-05
1.07209e-05
8.1351e-06
5.77134e-06
4.19643e-06
1.02874e-05
2.66877e-05
2.42721e-05
1.06368e-05
6.10092e-06
9.56888e-06
1.24053e-05
9.04828e-06
7.28374e-06
8.38709e-06
9.06348e-06
4.9579e-06
9.5543e-06
8.55774e-06
6.63922e-06
1.7044e-05
1.55749e-05
1.44035e-05
1.99748e-05
2.00161e-05
2.16859e-05
2.09588e-05
1.68317e-05
1.55012e-05
1.78556e-05
1.33669e-05
1.17694e-05
8.51307e-06
1.27605e-05
2.28711e-05
1.61525e-05
1.75821e-05
1.49817e-05
1.21863e-05
2.01888e-05
1.99134e-05
1.37358e-05
8.97436e-06
6.92417e-06
5.33295e-06
7.64209e-06
1.58955e-05
2.34524e-05
1.57071e-05
8.10865e-06
5.08577e-06
1.23127e-05
1.2096e-05
7.30497e-06
8.44286e-06
6.42078e-06
2.86238e-06
7.92535e-06
8.75086e-06
7.36044e-06
1.40279e-05
1.54363e-05
8.29262e-06
1.25356e-05
1.41828e-05
1.81579e-05
2.19195e-05
1.80581e-05
1.06428e-05
1.29485e-05
1.37168e-05
1.35505e-05
9.62172e-06
7.67713e-06
1.6772e-05
1.36258e-05
2.01303e-05
2.17944e-05
1.44331e-05
2.06874e-05
2.3647e-05
1.89458e-05
1.1142e-05
1.04737e-05
7.48166e-06
7.6451e-06
1.01729e-05
1.58465e-05
1.74718e-05
1.59664e-05
3.96696e-06
1.03942e-05
1.62054e-05
1.06893e-05
1.15124e-05
7.95475e-06
2.50728e-06
7.55003e-06
1.11096e-05
5.59981e-06
1.23262e-05
1.68649e-05
7.48831e-06
7.36238e-06
5.83282e-06
5.66965e-06
1.36757e-05
1.99922e-05
1.14933e-05
6.41888e-06
7.26517e-06
1.09326e-05
1.07234e-05
9.65834e-06
1.00205e-05
5.74897e-06
1.18748e-05
2.25776e-05
2.10327e-05
2.02789e-05
2.11972e-05
2.15457e-05
1.46907e-05
1.46706e-05
1.89131e-05
5.99052e-06
7.34105e-06
1.08127e-05
1.28243e-05
2.20011e-05
8.50827e-06
6.53169e-06
1.74491e-05
1.43767e-05
1.43237e-05
1.25682e-05
7.18766e-06
5.39244e-06
1.04595e-05
4.65133e-06
9.00243e-06
1.23094e-05
9.07627e-06
6.75825e-06
5.59683e-06
8.49429e-06
5.89505e-06
1.43858e-05
1.49277e-05
7.75282e-06
2.21702e-06
3.23541e-06
7.80908e-06
4.44901e-06
9.33651e-06
3.42444e-06
6.08992e-06
1.01201e-05
1.6044e-05
2.00597e-05
1.49749e-05
1.66663e-05
1.15275e-05
1.36386e-05
2.67963e-05
1.12365e-05
6.28838e-06
1.09143e-05
7.19079e-06
1.9274e-05
1.46827e-05
4.51923e-06
1.26573e-05
1.55409e-05
1.44847e-05
1.4981e-05
1.34291e-05
9.92297e-06
7.80208e-06
6.83141e-06
8.00397e-06
7.24325e-06
6.38359e-06
6.48197e-06
1.10724e-05
4.49684e-06
6.91047e-06
5.27369e-06
1.42894e-05
1.0481e-05
5.38055e-06
3.64655e-06
5.9523e-06
3.49944e-06
4.91524e-06
9.32134e-06
3.25059e-06
5.35534e-06
8.20588e-06
8.24538e-06
1.02777e-05
9.85316e-06
3.24694e-06
4.90243e-06
1.62179e-05
1.3156e-05
5.80572e-06
1.06739e-05
6.61062e-06
1.09986e-05
1.89214e-05
7.728e-06
8.89668e-06
1.42991e-05
9.53046e-06
1.25706e-05
1.22548e-05
1.19288e-05
1.08806e-05
8.83497e-06
6.71704e-06
6.0034e-06
5.44765e-06
6.60351e-06
5.94256e-06
9.37633e-06
3.17101e-06
4.19254e-06
7.62108e-06
1.09059e-05
1.02543e-05
7.62251e-06
7.21375e-06
6.46991e-06
2.83252e-06
9.01475e-06
4.61164e-06
3.49657e-06
4.0199e-06
5.22387e-06
5.20908e-06
5.4038e-06
6.50667e-06
5.04137e-06
3.31715e-06
8.99248e-06
4.37688e-06
5.46343e-06
8.83036e-06
4.62795e-06
1.63732e-05
1.62111e-05
7.33185e-06
1.11789e-05
5.27318e-06
4.7938e-06
7.36253e-06
8.41565e-06
8.72878e-06
1.12072e-05
6.53434e-06
2.16867e-06
7.5258e-06
5.46852e-06
3.73448e-06
4.34839e-06
3.58664e-06
2.79962e-06
3.81462e-06
6.35729e-06
1.0894e-05
9.77067e-06
5.95813e-06
6.87402e-06
3.26786e-06
5.94901e-06
4.61842e-06
3.13011e-06
3.32287e-06
4.71605e-06
5.02199e-06
4.02833e-06
6.9624e-06
3.81264e-06
5.11302e-06
5.61114e-06
3.16805e-06
3.17043e-06
8.32927e-06
2.7393e-06
7.54744e-06
1.44101e-05
9.53701e-06
5.73594e-06
6.98137e-06
1.90988e-06
5.20133e-06
6.77935e-06
5.41894e-06
8.81346e-06
5.70798e-06
2.2989e-06
5.08078e-06
2.31344e-06
3.19129e-06
1.9046e-06
1.99944e-06
1.46379e-06
2.78123e-06
3.56667e-06
5.92629e-06
6.35448e-06
3.25786e-06
4.01775e-06
3.13818e-06
2.86777e-06
3.71432e-06
1.98246e-06
1.11427e-06
4.45108e-06
3.82239e-06
3.64416e-06
5.8458e-06
7.83954e-06
2.98127e-06
2.63545e-06
3.64065e-06
3.42771e-06
5.93743e-06
4.08286e-06
1.41991e-06
5.47823e-06
5.09936e-06
1.3601e-06
4.70779e-06
3.19406e-06
2.8422e-06
3.22183e-06
2.1365e-06
3.05963e-06
3.07122e-06
1.45326e-06
1.37995e-06
2.51695e-06
2.06094e-06
1.56401e-06
7.23875e-07
1.25613e-06
2.82051e-06
3.41113e-06
1.33676e-06
2.02113e-06
1.41763e-06
1.77471e-06
3.05605e-06
9.02539e-07
1.97376e-06
1.42684e-06
2.23357e-06
4.91687e-06
2.87667e-06
2.76501e-06
4.52042e-06
6.9817e-06
2.18938e-06
1.73052e-06
1.86293e-06
2.63033e-06
4.73189e-06
3.52918e-06
8.00204e-07
9.69161e-07
1.53729e-06
1.22827e-06
1.97234e-06
2.91341e-06
4.27273e-07
2.43651e-06
1.76076e-06
1.57686e-06
1.54727e-06
1.19308e-06
1.61798e-06
1.74024e-06
1.01793e-06
1.54133e-06
7.91271e-07
8.49444e-07
2.42182e-06
2.4712e-06
1.72656e-06
1.72009e-06
1.08331e-06
1.09623e-06
2.36748e-06
5.95947e-07
1.20468e-06
1.30367e-06
1.90068e-06
3.90977e-06
2.55514e-06
2.05858e-06
4.60212e-06
4.32952e-06
2.79333e-06
1.47118e-06
1.91621e-06
1.99301e-06
3.14539e-06
2.80312e-06
8.13161e-07
2.91294e-07
1.63906e-06
8.65967e-07
1.7356e-06
2.08393e-06
5.23021e-07
2.50879e-06
1.7e-06
1.75313e-06
1.51734e-06
1.12671e-06
1.13712e-06
8.47719e-07
1.61536e-06
1.94357e-06
8.59517e-07
6.37512e-07
1.67563e-06
1.99451e-06
1.90608e-06
1.26868e-06
7.02424e-07
3.13731e-07
1.89942e-06
2.31586e-07
9.46823e-07
8.98707e-07
9.43498e-07
2.28589e-06
2.04919e-06
2.95765e-06
4.1606e-06
1.78514e-06
1.41034e-06
1.19973e-06
1.7435e-06
1.31124e-06
1.88047e-06
1.34786e-06
8.24486e-07
9.64957e-07
1.94053e-06
5.43972e-07
1.15587e-06
1.211e-06
2.61233e-07
1.9617e-06
9.14221e-07
1.30853e-06
2.13982e-06
1.16443e-06
8.82451e-07
9.06468e-07
1.08843e-06
1.80623e-06
8.09834e-07
4.08675e-07
1.20995e-06
1.47936e-06
9.01912e-07
1.24141e-06
8.54548e-07
2.13581e-07
1.87727e-06
4.37152e-07
7.43473e-07
7.48644e-07
3.32706e-07
1.53622e-06
1.78177e-06
2.20331e-06
1.99836e-06
2.64315e-07
9.53359e-07
1.33745e-06
1.42433e-06
1.12507e-06
1.30182e-06
1.7327e-06
1.60633e-06
1.54816e-06
1.83061e-06
1.94048e-07
6.82509e-07
8.06557e-07
1.4407e-07
1.33008e-06
1.14772e-06
6.93888e-07
2.26396e-06
1.1306e-06
6.4894e-07
1.29221e-06
8.54431e-07
1.32276e-06
7.64477e-07
3.18351e-07
1.19343e-06
1.24069e-06
4.04852e-07
1.18884e-06
7.12774e-07
6.0232e-07
1.57065e-06
5.33281e-07
7.52571e-07
8.08419e-07
2.66281e-07
1.1076e-06
1.08702e-06
9.35148e-07
8.10408e-07
5.18761e-07
6.98813e-07
1.2694e-06
1.21532e-06
7.64169e-07
7.07784e-07
1.73825e-06
1.16232e-06
1.22874e-06
1.2526e-06
1.589e-07
7.80059e-07
5.2171e-07
1.09374e-07
9.03606e-07
9.84775e-07
7.23551e-07
1.83277e-06
7.18852e-07
4.03084e-07
1.01244e-06
5.261e-07
8.29198e-07
7.77319e-07
2.06379e-07
8.88183e-07
9.59156e-07
3.34304e-07
6.84575e-07
3.9261e-07
4.04318e-07
1.21257e-06
2.28762e-07
4.34988e-07
6.19028e-07
1.78129e-07
8.44505e-07
6.82226e-07
4.6691e-07
4.78047e-07
3.91366e-07
5.94645e-07
7.62791e-07
8.03332e-07
4.34223e-07
6.91553e-07
1.70366e-06
6.27855e-07
5.6481e-07
8.80982e-07
9.67558e-08
4.82963e-07
3.99609e-07
7.9673e-08
5.94405e-07
5.79306e-07
5.39192e-07
1.29341e-06
3.50552e-07
3.45867e-07
7.77411e-07
2.32865e-07
5.61115e-07
7.78349e-07
1.42379e-07
5.99278e-07
5.45885e-07
2.01077e-07
3.84767e-07
3.71232e-07
1.64145e-07
9.41245e-07
6.1556e-08
1.81866e-07
7.0793e-07
1.01328e-07
6.16604e-07
5.45752e-07
1.94634e-07
2.54307e-07
2.33967e-07
3.57926e-07
3.47423e-07
4.76021e-07
2.70219e-07
2.80497e-07
1.41398e-06
5.02985e-07
2.63435e-07
8.78418e-07
7.7223e-08
1.96595e-07
3.113e-07
7.8952e-08
4.87682e-07
3.10297e-07
2.90819e-07
1.08164e-06
1.94809e-07
2.84631e-07
7.03546e-07
9.76403e-08
3.31644e-07
6.3141e-07
1.38882e-07
4.32916e-07
3.12315e-07
2.21232e-07
2.79998e-07
2.68412e-07
1.0877e-07
7.63054e-07
4.78096e-08
7.56884e-08
7.16232e-07
6.89533e-08
4.165e-07
5.27223e-07
1.01613e-07
1.50141e-07
1.12132e-07
2.17847e-07
1.51487e-07
2.79137e-07
1.72504e-07
7.68033e-08
1.0507e-06
3.71954e-07
1.46464e-07
7.14225e-07
9.48396e-08
7.94255e-08
2.62267e-07
7.82261e-08
3.81458e-07
1.92773e-07
1.48823e-07
9.95536e-07
1.20248e-07
2.04668e-07
6.8699e-07
5.52052e-08
2.04711e-07
4.64981e-07
1.56e-07
3.68182e-07
1.95342e-07
2.29959e-07
2.3629e-07
2.35548e-07
9.65261e-08
5.68413e-07
8.63899e-08
3.59405e-08
6.83027e-07
5.40629e-08
2.56594e-07
4.64307e-07
7.84211e-08
1.11521e-07
4.63961e-08
1.87748e-07
5.88294e-08
1.55925e-07
1.93245e-07
5.45107e-08
7.12362e-07
3.16705e-07
9.73906e-08
5.41052e-07
1.44489e-07
7.3407e-08
1.85445e-07
9.25086e-08
2.76579e-07
1.34575e-07
5.2906e-08
8.59328e-07
8.80479e-08
1.30106e-07
6.83644e-07
3.54962e-08
1.71606e-07
3.11498e-07
1.32274e-07
3.76885e-07
8.86237e-08
2.08315e-07
1.87925e-07
1.59557e-07
9.57837e-08
3.99787e-07
1.29119e-07
2.25961e-08
5.55013e-07
3.65881e-08
1.62397e-07
3.33466e-07
9.00798e-08
1.02697e-07
1.28078e-08
2.69631e-07
2.14691e-08
5.14796e-08
2.26806e-07
5.11111e-08
4.35527e-07
3.0013e-07
7.85033e-08
3.43616e-07
1.81363e-07
5.26713e-08
9.72862e-08
1.10569e-07
1.9806e-07
8.65465e-08
2.34278e-08
7.12331e-07
9.15323e-08
7.64725e-08
6.64504e-07
2.23581e-08
1.81781e-07
2.55036e-07
8.34696e-08
4.29625e-07
2.25565e-08
1.81366e-07
1.59639e-07
7.88198e-08
1.17896e-07
2.6265e-07
1.44891e-07
1.87559e-08
4.00492e-07
2.49647e-08
1.39562e-07
1.77495e-07
1.01068e-07
1.69129e-07
5.7522e-09
3.5398e-07
1.28556e-08
1.15314e-08
2.70659e-07
5.27062e-08
2.09549e-07
2.79548e-07
7.51295e-08
1.28304e-07
2.04469e-07
8.63319e-08
3.12317e-08
1.24838e-07
1.65114e-07
4.79293e-08
1.41094e-08
4.70746e-07
1.27655e-07
4.94023e-08
5.82234e-07
1.78967e-08
1.21189e-07
3.18936e-07
4.26612e-08
4.6477e-07
1.29781e-08
9.86593e-08
1.76067e-07
1.61437e-08
1.56651e-07
1.90798e-07
1.16736e-07
2.17062e-08
2.87488e-07
1.44672e-08
1.54244e-07
8.18583e-08
5.50918e-08
3.4604e-07
4.12114e-09
3.60928e-07
4.80369e-08
4.19216e-09
3.0559e-07
4.57926e-08
8.80128e-08
2.11895e-07
9.54786e-08
4.46395e-08
1.45927e-07
1.91617e-07
9.74653e-09
9.08531e-08
1.8836e-07
2.35734e-08
1.46695e-08
2.98284e-07
1.6185e-07
3.547e-08
4.04338e-07
2.10811e-08
4.45341e-08
4.06756e-07
2.62244e-08
3.76964e-07
1.2171e-07
3.34637e-08
1.92762e-07
9.48511e-09
1.48342e-07
1.57394e-07
1.00309e-07
2.40964e-08
2.33738e-07
7.60213e-09
1.58147e-07
6.08463e-08
8.64884e-09
5.41259e-07
3.43035e-09
2.62888e-07
2.2416e-07
3.35049e-09
3.28833e-07
3.6431e-08
3.95115e-08
1.6206e-07
1.06395e-07
3.58246e-08
5.03109e-08
3.21928e-07
6.3773e-09
4.82918e-08
2.17927e-07
1.46992e-08
1.46521e-08
2.17626e-07
1.35779e-07
2.76594e-08
2.59265e-07
2.19813e-08
1.89618e-08
4.11279e-07
1.92249e-08
2.29691e-07
2.0966e-07
1.84661e-08
1.28337e-07
1.00231e-08
1.41554e-07
9.46556e-08
1.5338e-07
2.1244e-08
1.54525e-07
9.66315e-09
8.25082e-08
9.61863e-08
3.64672e-09
6.35931e-07
2.03356e-09
4.90452e-08
4.00534e-07
2.93646e-09
3.452e-07
2.36798e-08
1.6673e-08
1.81058e-07
4.79092e-08
6.01341e-08
2.23744e-08
3.27465e-07
1.02323e-08
2.64701e-08
2.2895e-07
3.59069e-08
1.01943e-08
1.84619e-07
1.33664e-07
1.69746e-08
2.18228e-07
1.50207e-08
1.83512e-08
4.2151e-07
1.24882e-08
1.66001e-07
1.76157e-07
1.34678e-08
1.44137e-07
1.01537e-08
2.18722e-07
4.75209e-08
1.89798e-07
1.96216e-08
1.87609e-08
1.73087e-07
3.93054e-08
1.40168e-07
4.3975e-09
5.41904e-07
2.18311e-09
9.83388e-09
4.79889e-07
2.47099e-09
2.979e-07
1.2464e-08
7.91532e-09
2.61381e-07
7.80189e-09
1.00526e-07
1.84977e-08
2.5061e-07
7.59449e-08
1.41753e-08
2.32772e-07
1.83165e-07
7.03859e-09
1.27158e-07
1.86034e-07
9.22728e-09
1.621e-07
5.62227e-08
1.89727e-08
4.18864e-07
7.68946e-09
9.65997e-08
2.21276e-07
8.57134e-09
2.9682e-07
9.82976e-09
1.4659e-07
5.80516e-08
4.16394e-08
9.00113e-08
1.36271e-08
2.60581e-07
2.66359e-08
8.78509e-08
5.61489e-09
3.04721e-07
7.36854e-08
1.18495e-08
3.65973e-07
2.72049e-09
2.2751e-07
8.5923e-09
4.63609e-09
3.5696e-07
4.28959e-09
1.54523e-07
1.27383e-08
1.62638e-07
2.55345e-07
7.05952e-09
2.65384e-07
2.72781e-07
4.44154e-09
9.76344e-08
1.72731e-07
8.26216e-09
2.32459e-08
2.68381e-07
1.92484e-08
1.64227e-07
1.05564e-07
4.10698e-08
2.39593e-07
8.22902e-09
2.81999e-07
4.98322e-09
7.66029e-09
2.39788e-07
9.68204e-09
8.89202e-08
1.71788e-08
9.98579e-08
1.55707e-08
8.11943e-08
8.70053e-09
8.94766e-08
2.60077e-07
1.02901e-08
1.30009e-07
6.42476e-09
2.47717e-07
6.12939e-09
9.72406e-09
4.18411e-07
4.32604e-09
2.40161e-07
5.25891e-09
6.27572e-08
4.70687e-07
4.06815e-09
2.62246e-07
2.25145e-07
3.90572e-09
1.46426e-07
3.56946e-08
7.10033e-08
1.15662e-08
2.88143e-07
2.28002e-08
5.30624e-09
4.80144e-07
3.14249e-08
2.55731e-08
7.35212e-08
6.67383e-08
9.00325e-08
5.8406e-09
2.43722e-07
5.10547e-08
8.50656e-09
1.12759e-07
1.02092e-08
4.38594e-09
2.06911e-07
6.60905e-09
1.4408e-08
3.15507e-07
7.52079e-09
2.3109e-08
1.8189e-08
2.33184e-07
1.80423e-08
2.85164e-08
3.35742e-07
4.21289e-09
2.67822e-07
6.17724e-09
3.84566e-08
5.57272e-07
1.01141e-08
2.39545e-07
6.27648e-08
7.96768e-09
1.44903e-07
7.28717e-09
2.41258e-07
6.9277e-09
8.45569e-08
2.33088e-07
3.39175e-09
5.26421e-07
2.94117e-08
1.20179e-09
3.86303e-07
2.62046e-08
2.32859e-08
7.1647e-09
1.28316e-07
1.04769e-07
9.45838e-09
2.10846e-07
1.97402e-08
7.56719e-09
2.29516e-07
1.28564e-08
1.08283e-08
2.53157e-07
1.10618e-08
1.23247e-08
6.45821e-08
8.21781e-08
8.43804e-08
6.9261e-08
5.3169e-08
3.12885e-08
1.89675e-07
2.14409e-08
9.43303e-08
2.78448e-07
2.5162e-05
2.25477e-05
2.30498e-05
2.34398e-05
2.35166e-05
2.30467e-05
2.34155e-05
2.45353e-05
2.40373e-05
3.10736e-05
3.3803e-05
2.96873e-05
2.37788e-05
2.0651e-05
2.16406e-05
2.2868e-05
2.35127e-05
2.35692e-05
2.70788e-05
2.74743e-05
2.43559e-05
2.47862e-05
2.07224e-05
2.00287e-05
2.10332e-05
2.32616e-05
2.67098e-05
2.7081e-05
2.54677e-05
2.56355e-05
2.77606e-05
2.6612e-05
2.41393e-05
2.5031e-05
2.36655e-05
2.19854e-05
2.25667e-05
2.28231e-05
2.48423e-05
2.84301e-05
2.77266e-05
2.4696e-05
2.43771e-05
2.41878e-05
2.42938e-05
2.47757e-05
2.41289e-05
2.38281e-05
2.2214e-05
2.9049e-05
3.31777e-05
3.12614e-05
2.7776e-05
2.21978e-05
2.12724e-05
2.2422e-05
2.25929e-05
2.18176e-05
2.64896e-05
2.97526e-05
2.52453e-05
2.58362e-05
2.17247e-05
1.97037e-05
2.12627e-05
2.21996e-05
2.46668e-05
2.60785e-05
2.70345e-05
2.70153e-05
2.69422e-05
2.72529e-05
2.46207e-05
2.50051e-05
2.58923e-05
2.29435e-05
2.16873e-05
2.14906e-05
2.24571e-05
2.80842e-05
2.80017e-05
2.57111e-05
2.55109e-05
2.48873e-05
2.32582e-05
2.62838e-05
2.50181e-05
2.10629e-05
1.89503e-05
2.35261e-05
2.65412e-05
2.88168e-05
3.10648e-05
2.52056e-05
2.04273e-05
2.02123e-05
2.04411e-05
1.82942e-05
2.10056e-05
2.90349e-05
2.45302e-05
2.50834e-05
2.33583e-05
1.93616e-05
2.07017e-05
1.94796e-05
1.91829e-05
2.15864e-05
2.57102e-05
2.6993e-05
2.32443e-05
2.57913e-05
2.38692e-05
2.2104e-05
2.74278e-05
2.35832e-05
1.89452e-05
1.91644e-05
1.73683e-05
2.31036e-05
2.15258e-05
2.22108e-05
2.34186e-05
2.4574e-05
1.90365e-05
2.36444e-05
2.71616e-05
1.8913e-05
1.42435e-05
1.75663e-05
1.649e-05
1.77437e-05
2.76698e-05
2.81846e-05
2.11622e-05
1.78307e-05
1.73335e-05
1.44879e-05
1.20818e-05
2.26319e-05
2.11738e-05
2.0189e-05
2.27409e-05
1.85333e-05
1.99579e-05
1.8469e-05
1.32845e-05
1.34389e-05
1.80054e-05
2.35834e-05
1.72951e-05
1.98282e-05
2.21125e-05
1.58841e-05
2.42273e-05
2.51122e-05
1.6205e-05
1.61002e-05
1.21127e-05
1.35996e-05
1.1181e-05
1.33527e-05
1.54818e-05
2.02053e-05
1.31083e-05
1.26733e-05
2.47366e-05
2.07079e-05
1.08171e-05
1.24943e-05
1.28673e-05
6.37144e-06
1.42375e-05
2.49134e-05
2.2115e-05
1.68688e-05
1.45897e-05
1.19994e-05
6.49444e-06
1.29995e-05
1.66868e-05
1.23534e-05
1.66796e-05
1.42346e-05
1.59789e-05
1.81143e-05
1.21917e-05
7.39837e-06
8.10305e-06
1.55963e-05
1.26079e-05
1.00849e-05
1.913e-05
1.00145e-05
1.52534e-05
2.3948e-05
1.58811e-05
1.28484e-05
9.30458e-06
6.74391e-06
5.64237e-06
5.90582e-06
6.54016e-06
1.22052e-05
1.03996e-05
3.27531e-06
1.21022e-05
2.07591e-05
1.12572e-05
9.39752e-06
1.52426e-05
4.26401e-06
6.92121e-06
1.28406e-05
1.84615e-05
1.59329e-05
1.29914e-05
1.17305e-05
5.89816e-06
6.94084e-06
1.37659e-05
9.01844e-06
8.91347e-06
7.23505e-06
8.15711e-06
1.35077e-05
1.33925e-05
7.90564e-06
5.71474e-06
6.40632e-06
1.16056e-05
3.19719e-06
1.40787e-05
8.56052e-06
8.9153e-06
1.70102e-05
1.67047e-05
1.12926e-05
8.4852e-06
5.74325e-06
5.0247e-06
3.81967e-06
3.16491e-06
5.56188e-06
1.22043e-05
2.83126e-06
4.43322e-06
1.30446e-05
1.32461e-05
7.13057e-06
1.22301e-05
1.29683e-05
4.95804e-06
5.34773e-06
1.02584e-05
1.24802e-05
1.12819e-05
1.12671e-05
8.17949e-06
4.08496e-06
1.15476e-05
1.14265e-05
7.34988e-06
5.32671e-06
2.80126e-06
8.27769e-06
1.15801e-05
1.15178e-05
6.51623e-06
5.06333e-06
1.05566e-05
3.86929e-06
8.69877e-06
1.37127e-05
5.14699e-06
8.94395e-06
1.50927e-05
1.18993e-05
8.73746e-06
6.436e-06
5.80579e-06
3.91994e-06
2.6629e-06
4.00456e-06
1.01384e-05
8.10656e-06
4.74689e-06
4.70609e-06
1.15499e-05
7.10125e-06
5.06117e-06
1.41535e-05
7.66136e-06
3.64322e-06
5.1707e-06
7.27191e-06
8.66861e-06
8.86851e-06
9.05532e-06
3.42597e-06
7.6408e-06
1.28623e-05
8.38303e-06
7.44414e-06
4.20608e-06
5.19725e-06
9.89309e-06
1.14862e-05
1.20847e-05
6.39374e-06
6.9421e-06
6.53105e-06
6.43505e-06
1.47703e-05
7.03313e-06
4.69197e-06
1.16861e-05
1.30708e-05
9.75436e-06
7.32505e-06
7.82617e-06
6.31459e-06
2.36902e-06
4.3485e-06
3.48907e-06
8.22468e-06
2.83088e-06
2.68169e-06
6.06435e-06
5.64386e-06
4.19175e-06
6.35208e-06
1.07859e-05
6.18213e-06
4.7655e-06
4.27489e-06
5.79022e-06
6.98458e-06
7.97648e-06
3.47347e-06
3.80889e-06
1.15482e-05
7.88748e-06
8.51488e-06
5.60936e-06
3.36239e-06
8.01603e-06
8.33252e-06
1.19531e-05
8.45314e-06
4.38296e-06
5.74557e-06
5.73043e-06
1.1951e-05
9.19873e-06
4.14654e-06
5.5656e-06
1.1363e-05
1.05301e-05
8.2461e-06
8.91289e-06
8.63269e-06
5.32296e-06
5.01475e-06
1.90881e-06
5.63865e-06
4.12889e-06
3.56802e-06
1.70152e-06
4.58097e-06
2.75897e-06
1.74199e-06
4.87026e-06
6.94814e-06
6.722e-06
4.44673e-06
4.46009e-06
5.85377e-06
7.34117e-06
2.90655e-06
3.17994e-06
7.96747e-06
8.85846e-06
9.38124e-06
9.24717e-06
1.28559e-06
4.72911e-06
5.19474e-06
6.47265e-06
7.69903e-06
4.21146e-06
3.30231e-06
4.72941e-06
7.32048e-06
8.79706e-06
5.11251e-06
2.31705e-06
5.68859e-06
9.38632e-06
7.13381e-06
7.07865e-06
7.35747e-06
5.63787e-06
5.77331e-06
3.21764e-06
3.669e-06
5.71744e-06
2.00761e-06
6.69511e-07
2.40679e-06
3.3825e-06
1.81114e-06
4.79751e-07
2.33166e-06
5.70677e-06
5.45488e-06
4.99374e-06
5.90965e-06
5.86691e-06
4.2377e-06
3.91536e-06
3.33806e-06
8.25614e-06
6.8924e-06
7.36837e-06
3.67452e-06
4.13992e-06
4.37421e-06
2.33614e-06
4.1802e-06
4.52774e-06
2.02279e-06
3.52224e-06
2.73964e-06
4.89543e-06
6.22925e-06
3.45602e-06
3.0843e-06
7.82552e-06
5.48123e-06
4.0621e-06
5.54348e-06
3.90451e-06
3.19979e-06
3.33318e-06
1.61523e-06
4.16269e-06
2.64311e-06
1.07689e-06
1.72614e-06
1.59077e-06
2.11729e-06
1.63857e-06
1.14182e-06
2.19423e-06
4.39597e-06
4.48599e-06
5.46642e-06
3.82397e-06
4.16949e-06
2.88394e-06
3.61399e-06
5.46906e-06
3.90113e-06
2.16725e-06
3.88243e-06
5.63743e-06
5.05791e-06
6.54372e-07
2.80861e-06
3.96259e-06
2.11601e-06
2.00837e-06
2.56632e-06
2.28588e-06
2.19156e-06
3.68686e-06
2.9514e-06
6.70511e-06
5.09752e-06
2.61194e-06
2.51563e-06
3.2438e-06
2.54712e-06
2.35376e-06
1.85893e-06
2.45488e-06
3.70291e-06
1.86966e-06
2.28094e-06
3.41416e-06
8.5045e-07
2.53937e-06
1.1073e-06
1.66041e-06
2.69746e-06
3.20836e-06
2.76884e-06
1.70203e-06
2.78512e-06
2.64679e-06
5.21383e-06
2.50923e-06
3.80542e-06
2.26463e-06
2.45205e-06
6.15213e-06
5.42436e-06
1.77773e-06
2.24699e-06
2.91509e-06
1.521e-06
2.24204e-06
2.49571e-06
1.75659e-06
1.93027e-06
2.39295e-06
1.7884e-06
4.66333e-06
5.03155e-06
2.21136e-06
1.85286e-06
1.80953e-06
2.70213e-06
1.74074e-06
1.79484e-06
1.68624e-06
3.80677e-06
3.11314e-06
1.1413e-06
3.2051e-06
1.65501e-06
1.42194e-06
1.86051e-06
1.77681e-06
2.17446e-06
2.61118e-06
6.13949e-07
2.14314e-06
1.41591e-06
2.9605e-06
5.02557e-06
3.01093e-06
3.07814e-06
2.98877e-06
3.35883e-06
4.86634e-06
3.78306e-06
3.59179e-06
3.57171e-06
3.62595e-06
9.02577e-07
2.90821e-06
2.84611e-06
1.01613e-06
1.80559e-06
2.26754e-06
1.89301e-06
2.42384e-06
4.04716e-06
1.12237e-06
1.63872e-06
1.38686e-06
2.44889e-06
2.55958e-06
1.20106e-06
1.16785e-06
4.3943e-06
2.63084e-06
1.44863e-06
1.62493e-06
2.03712e-06
2.0652e-06
1.13705e-06
1.33196e-06
1.92048e-06
2.77639e-06
1.51092e-06
3.52556e-06
8.56943e-07
2.47262e-06
2.67605e-06
2.7685e-06
1.51871e-06
1.79052e-06
4.21278e-06
3.13429e-06
1.73694e-06
3.39119e-06
5.42117e-06
2.82458e-06
1.43529e-06
1.87197e-06
2.83984e-06
3.50381e-06
1.96151e-06
1.62657e-06
1.42008e-06
1.72583e-06
2.82385e-06
7.5477e-07
1.42608e-06
2.37062e-06
1.5597e-06
1.83656e-06
9.21905e-07
1.66821e-06
2.48051e-06
7.62761e-07
1.93224e-06
1.829e-06
1.14465e-06
1.77284e-06
8.23475e-07
1.96782e-06
1.09495e-06
2.47133e-06
2.08063e-06
1.44117e-06
9.04454e-07
1.39551e-06
1.59396e-06
2.30331e-06
3.44032e-06
1.35512e-06
3.32531e-06
1.76367e-06
2.73498e-06
9.86596e-07
3.28804e-06
3.45682e-06
9.82432e-07
1.84576e-06
1.50337e-06
2.12025e-06
2.09578e-06
1.16265e-06
1.05249e-06
1.59031e-06
1.58853e-06
6.01371e-07
1.28164e-06
1.63444e-06
2.02346e-06
1.87513e-06
8.14442e-07
7.23034e-07
2.77221e-06
2.1036e-06
1.12496e-06
2.11407e-06
2.62712e-07
1.29215e-06
1.24436e-06
9.81587e-07
1.89379e-06
8.10147e-07
2.35427e-06
3.60378e-06
8.93292e-07
1.37428e-06
1.65034e-06
1.72308e-06
2.34368e-06
7.18555e-07
1.21714e-06
1.61071e-06
2.09083e-06
3.0392e-06
3.31007e-06
3.01537e-06
1.43601e-06
2.65588e-06
3.27888e-06
2.45488e-06
2.45511e-06
1.52109e-06
1.22815e-06
1.68207e-06
1.77133e-06
3.9245e-07
6.17618e-07
1.17096e-06
2.86251e-06
2.3218e-06
3.58704e-07
1.27682e-06
1.66907e-06
1.24445e-06
9.22664e-07
1.69003e-06
1.93221e-07
7.62389e-07
1.20894e-06
1.08341e-06
1.92969e-06
1.5858e-06
1.23878e-06
4.33845e-06
9.18998e-07
1.57028e-06
1.53307e-06
7.27397e-07
1.36668e-06
1.03451e-06
2.29287e-06
1.7359e-06
9.17782e-07
3.22973e-06
4.05318e-06
1.76698e-06
8.40611e-07
1.41252e-06
2.70739e-06
3.1538e-06
2.26091e-06
1.10503e-06
4.972e-07
1.4962e-06
1.71399e-06
2.87538e-07
8.14376e-07
3.91225e-07
1.34755e-06
1.41254e-06
3.39417e-07
6.80673e-07
1.41357e-06
4.25291e-07
7.14279e-07
1.21997e-06
3.14152e-07
2.95494e-07
4.57814e-07
1.02281e-06
1.00113e-06
1.05153e-06
1.85794e-07
1.93136e-06
8.93601e-07
9.16711e-07
1.24378e-06
2.78575e-07
6.98682e-07
7.18943e-07
1.66658e-06
1.19667e-06
6.64058e-07
8.23125e-07
1.99889e-06
1.45244e-06
1.50968e-07
1.49376e-07
1.22315e-06
1.10037e-06
8.57e-07
1.31362e-06
2.99244e-07
7.59033e-07
1.05424e-06
3.28347e-07
7.07212e-07
4.89847e-07
5.80119e-07
8.26821e-07
8.68544e-08
3.69122e-07
1.42444e-06
3.44312e-07
3.10673e-07
7.9956e-07
1.69333e-07
2.6403e-07
2.52246e-07
4.61804e-07
4.73065e-07
4.15837e-07
3.133e-07
1.07721e-06
3.85369e-07
3.52252e-07
8.96824e-07
1.95433e-07
4.79452e-07
4.52175e-07
7.49036e-07
7.23275e-07
7.04455e-07
4.53274e-07
7.44895e-07
1.20134e-06
1.471e-07
1.24061e-07
1.16424e-06
4.0996e-07
2.89761e-07
1.14643e-06
2.01906e-07
2.56198e-07
7.20575e-07
1.98976e-07
5.66008e-07
4.25399e-07
4.04467e-07
6.94131e-07
3.09505e-08
2.32356e-07
1.22494e-06
1.9272e-07
1.4101e-07
6.17862e-07
9.47574e-08
2.07825e-07
8.44614e-08
1.83766e-07
3.68466e-07
2.48755e-07
1.18614e-07
7.82449e-07
1.34758e-07
1.14912e-07
8.51495e-07
1.01677e-07
3.21959e-07
4.22932e-07
3.62371e-07
4.75648e-07
4.37296e-07
3.08926e-07
3.47007e-07
8.63291e-07
2.58326e-07
7.87169e-08
8.37548e-07
2.766e-07
1.76346e-07
9.14729e-07
1.02905e-07
8.91387e-08
5.93127e-07
1.12612e-07
4.87129e-07
2.51636e-07
2.02183e-07
6.53778e-07
3.70734e-08
1.73432e-07
1.08117e-06
1.15202e-07
1.05781e-07
4.78341e-07
7.35925e-08
1.95023e-07
2.33741e-08
1.27855e-07
2.87846e-07
1.72572e-07
3.31586e-08
4.66668e-07
1.02972e-07
5.75107e-08
7.74052e-07
7.8878e-08
1.45522e-07
3.65095e-07
2.10267e-07
2.94055e-07
2.42426e-07
2.18919e-07
1.55856e-07
6.19043e-07
3.07184e-07
1.03492e-07
5.57419e-07
2.24214e-07
1.30326e-07
6.92004e-07
8.5919e-08
3.72048e-08
4.16391e-07
1.20654e-07
4.01912e-07
1.86488e-07
1.46215e-07
6.46516e-07
3.16618e-08
1.11413e-07
9.59761e-07
8.09637e-08
7.22478e-08
3.29295e-07
5.92179e-08
2.11552e-07
1.17542e-08
1.11117e-07
2.46255e-07
1.23623e-07
2.26691e-08
2.22472e-07
1.41365e-07
4.08514e-08
6.08983e-07
8.4885e-08
9.74102e-08
2.46715e-07
1.407e-07
2.02981e-07
8.13399e-08
2.45919e-07
5.69392e-08
3.35161e-07
3.50106e-07
1.07125e-07
3.00955e-07
2.23583e-07
9.42196e-08
4.59961e-07
9.68531e-08
4.24992e-08
2.6747e-07
1.68471e-07
3.75661e-07
1.36232e-07
1.0879e-07
5.12865e-07
2.44258e-08
7.45183e-08
8.36067e-07
6.2017e-08
4.24772e-08
2.97307e-07
3.76249e-08
3.06307e-07
1.07385e-08
9.58827e-08
2.14844e-07
6.45666e-08
6.53875e-08
1.10219e-07
1.25179e-07
3.53286e-08
4.48666e-07
7.79845e-08
9.86591e-08
1.01558e-07
1.09926e-07
2.21931e-07
1.69096e-08
3.09879e-07
5.33152e-08
1.25279e-07
3.81859e-07
9.56645e-08
1.14784e-07
2.09927e-07
7.3004e-08
2.34489e-07
1.12345e-07
5.33017e-08
9.03391e-08
1.67634e-07
3.45663e-07
8.12686e-08
9.61972e-08
3.54074e-07
3.69542e-08
5.43567e-08
6.57065e-07
5.74821e-08
2.70115e-08
3.81253e-07
2.15807e-08
3.59349e-07
1.32051e-08
4.66494e-08
2.32262e-07
2.69955e-08
1.54996e-07
8.5633e-08
5.89455e-08
3.70402e-08
3.26263e-07
4.8197e-08
1.74653e-07
4.05669e-08
5.40718e-08
3.41191e-07
6.97885e-09
3.23538e-07
1.31461e-07
1.95006e-08
3.74175e-07
9.07967e-08
3.69587e-08
1.60467e-07
6.46974e-08
1.11685e-07
9.02307e-08
1.06435e-07
2.1278e-08
8.13192e-08
3.72765e-07
6.02428e-08
8.23034e-08
2.23886e-07
5.98502e-08
4.16588e-08
4.18186e-07
6.57158e-08
1.91854e-08
4.39189e-07
1.74088e-08
2.52148e-07
7.94261e-08
2.54674e-08
2.31858e-07
1.55586e-08
1.20215e-07
1.24696e-07
3.05467e-08
3.26238e-08
2.91238e-07
2.41313e-08
1.65274e-07
3.54401e-08
1.0708e-08
5.15733e-07
3.92205e-09
2.30156e-07
2.81176e-07
3.61358e-09
3.67926e-07
7.63958e-08
1.15516e-08
1.29991e-07
5.95212e-08
6.22951e-08
4.552e-08
1.70525e-07
1.10155e-08
3.91786e-08
3.56445e-07
9.63209e-08
4.7143e-08
1.66553e-07
6.07783e-08
3.35435e-08
2.59068e-07
5.08753e-08
2.34492e-08
3.96859e-07
1.65429e-08
9.8353e-08
1.96428e-07
1.69947e-08
1.44299e-07
1.09228e-08
7.74633e-08
9.61136e-08
5.37966e-08
2.45498e-08
2.30527e-07
3.27495e-08
6.58812e-08
9.97057e-08
5.56627e-09
5.84789e-07
2.46089e-09
4.33932e-08
4.40118e-07
1.91306e-09
3.56448e-07
6.26795e-08
2.57329e-09
1.56531e-07
2.7549e-08
5.01931e-08
2.95551e-08
1.57255e-07
2.47265e-08
2.13652e-08
2.94035e-07
2.33013e-07
2.2205e-08
1.43261e-07
1.04563e-07
2.12995e-08
2.31607e-07
2.65694e-08
3.18256e-08
3.8738e-07
1.0273e-08
9.58825e-08
1.46613e-07
1.22078e-08
1.4964e-07
5.77389e-09
1.43859e-07
4.33258e-08
9.58822e-08
2.09341e-08
5.62428e-08
1.92905e-07
2.56917e-08
1.42168e-07
5.62952e-09
4.95366e-07
4.67518e-09
5.77176e-09
4.92039e-07
3.24788e-09
3.09222e-07
3.78079e-08
1.64203e-09
2.25769e-07
1.11582e-08
5.29785e-08
2.43734e-08
1.17217e-07
1.02509e-07
1.11871e-08
2.55903e-07
3.21074e-07
1.13666e-08
9.53272e-08
1.98595e-07
1.119e-08
1.83539e-07
5.17029e-08
3.10765e-08
4.02147e-07
5.08003e-09
1.10259e-07
1.38685e-07
8.17977e-09
3.23458e-07
5.41514e-09
9.06935e-08
7.523e-08
9.52092e-09
7.78214e-08
1.92803e-08
2.64276e-07
1.63909e-08
8.37696e-08
6.44281e-09
2.86338e-07
6.24158e-08
9.20294e-09
3.61521e-07
6.39608e-09
3.14557e-07
1.10174e-08
3.34127e-09
3.34515e-07
6.64407e-09
1.07213e-07
1.23492e-08
8.61492e-08
2.41568e-07
5.27066e-09
3.02995e-07
3.00027e-07
6.46622e-09
1.08011e-07
1.47086e-07
1.18741e-08
2.91891e-08
2.13237e-07
3.23383e-08
1.61952e-07
4.64528e-08
5.91279e-08
1.67974e-07
7.67836e-09
3.17663e-07
1.5958e-09
5.37024e-09
2.63666e-07
6.0011e-09
7.01655e-08
2.20219e-08
1.09237e-07
8.09616e-09
6.38605e-08