/*--------------------------------*- C++ -*----------------------------------*\
  =========                 |
  \\      /  F ield         | OpenFOAM: The Open Source CFD Toolbox
   \\    /   O peration     | Website:  https://openfoam.org
    \\  /    A nd           | Version:  10
     \\/     M anipulation  |
\*---------------------------------------------------------------------------*/
FoamFile
{
    format      ascii;
    class       volSymmTensorField;
    location    "9";
    object      UPrime2Mean;
}
// * * * * * * * * * * * * * * * * * * * * * * * * * * * * * * * * * * * * * //

dimensions      [0 2 -2 0 0 0 0];

internalField   nonuniform List<symmTensor> 
25600
(
(0.00589712 1.47242e-06 0.000115474 1.10023e-07 -5.64799e-07 0.000104437)
(0.0058954 3.89159e-06 0.000235236 1.00157e-07 -4.64169e-07 0.000125677)
(0.00576331 -1.08025e-06 0.000184058 7.27298e-08 -1.70101e-07 0.0001226)
(0.00562659 -4.45343e-06 0.000130862 8.90272e-08 -1.62217e-07 0.000122642)
(0.00583653 7.83636e-08 3.51455e-05 9.57127e-08 -5.90641e-07 0.000127985)
(0.00578333 4.25559e-07 0.000136782 1.1113e-07 -9.35432e-07 0.000122314)
(0.00566818 -1.1454e-06 0.00022488 1.19338e-07 -6.40005e-07 0.000115327)
(0.00572072 -2.44778e-06 0.000186047 1.08294e-07 -4.7678e-08 0.000104986)
(0.00586532 -4.88147e-06 3.7004e-05 1.12465e-07 5.87853e-07 0.000106812)
(0.00592674 -3.13687e-06 -3.00544e-05 1.29644e-07 2.84783e-07 0.000111897)
(0.00596941 -4.22773e-07 9.23093e-05 1.15533e-07 -4.19213e-07 0.000104939)
(0.00588797 8.68738e-07 0.000197461 9.74515e-08 -3.58067e-07 9.28362e-05)
(0.00590546 -2.20556e-06 0.000159005 8.98008e-08 -2.1058e-07 8.6291e-05)
(0.0057421 -4.95372e-06 5.05827e-05 9.65743e-08 1.21318e-08 9.07497e-05)
(0.00616556 -5.09814e-06 2.68792e-05 1.094e-07 -6.0804e-08 9.7825e-05)
(0.00593142 1.31168e-06 0.000146151 1.19828e-07 -2.47882e-07 0.000100432)
(0.00614538 1.15083e-06 0.000223609 1.04433e-07 2.84069e-07 0.00011168)
(0.00576004 -6.7153e-06 0.000226442 9.3986e-08 1.29254e-07 0.000125377)
(0.00614203 -7.92286e-06 4.31482e-05 1.0815e-07 1.90383e-07 0.000112237)
(0.00609705 -5.59872e-06 5.87823e-06 1.01514e-07 -1.76324e-07 9.79971e-05)
(0.0061894 -4.50653e-07 0.000151258 9.47574e-08 -4.09318e-07 8.22804e-05)
(0.00579124 5.64657e-07 0.000216047 7.96485e-08 -1.32769e-07 8.6645e-05)
(0.00581273 4.22419e-07 0.000172887 8.28611e-08 -1.88713e-07 9.76134e-05)
(0.00597589 -3.72053e-06 3.87463e-05 1.03838e-07 -2.97198e-07 9.62965e-05)
(0.00592363 -1.4426e-06 -9.8777e-06 9.56727e-08 1.44377e-07 8.51557e-05)
(0.00610871 -1.20905e-06 0.00011641 1.02215e-07 2.8766e-07 9.42915e-05)
(0.00573139 5.33935e-07 0.000222201 1.17085e-07 -3.20637e-08 0.000110626)
(0.00584754 -1.39106e-06 0.000200595 1.00541e-07 -7.74775e-08 0.000105288)
(0.0059519 -6.35809e-06 3.06403e-05 1.07899e-07 4.01929e-07 0.000105833)
(0.00600521 -4.99138e-06 3.60235e-05 1.20035e-07 5.65391e-07 0.000123302)
(0.00586835 3.82297e-06 8.5639e-05 1.28165e-07 5.59738e-07 0.000129879)
(0.00598258 2.11528e-07 0.000208476 1.10514e-07 2.20872e-07 0.000133148)
(0.00575285 -6.4793e-06 0.000162109 9.60607e-08 -1.35564e-07 0.000125708)
(0.00585086 -6.85082e-06 4.06726e-05 7.97059e-08 -4.689e-07 0.000120158)
(0.00592692 -2.56379e-06 1.18275e-05 7.8029e-08 -6.60119e-07 0.000107925)
(0.00594542 2.92114e-06 7.50386e-05 8.24362e-08 -1.65183e-07 9.92083e-05)
(0.00569207 7.37136e-07 0.00012199 6.43475e-08 1.88349e-07 9.30045e-05)
(0.00576529 -1.801e-06 0.000155892 5.77665e-08 1.43695e-07 7.99689e-05)
(0.00595555 -4.94265e-06 4.90232e-05 7.14184e-08 -2.62895e-07 9.22933e-05)
(0.00613892 -4.51171e-06 8.97871e-06 8.25935e-08 -4.39202e-07 9.92399e-05)
(0.0315702 -4.17386e-05 0.000573905 2.27134e-06 -8.42755e-06 0.00060007)
(0.0310498 8.21854e-06 0.00121263 1.59931e-06 -4.38745e-06 0.000696091)
(0.0312981 -1.55439e-06 0.00122232 1.13514e-06 -1.72707e-06 0.000678025)
(0.0295659 -5.77277e-05 0.00116572 1.53631e-06 -5.02866e-06 0.000688372)
(0.0311861 -8.57132e-05 0.000492466 1.88574e-06 -1.04124e-05 0.000748889)
(0.0311355 -2.74066e-05 0.000624804 1.92924e-06 -1.33551e-05 0.000719703)
(0.0303035 -1.56043e-05 0.00117381 1.97882e-06 -8.25272e-06 0.000648703)
(0.0302577 -5.05292e-05 0.00132918 1.8072e-06 -2.01627e-06 0.000564937)
(0.0309355 -9.54086e-05 0.000891778 2.24403e-06 1.35155e-06 0.000537459)
(0.0321111 -0.000103385 0.000271072 3.0845e-06 -3.41411e-06 0.00055841)
(0.0320312 -5.65447e-05 0.000446325 2.65481e-06 -1.14833e-05 0.000544843)
(0.0314501 -2.96644e-05 0.000975586 2.1087e-06 -1.00258e-05 0.000483479)
(0.0321932 -5.70103e-05 0.00112669 2.17347e-06 -8.30686e-06 0.000479868)
(0.0304639 -0.000104595 0.000769378 2.41595e-06 -6.12882e-06 0.000476429)
(0.0338837 -0.00013026 0.000350688 3.03018e-06 -7.59701e-06 0.000500493)
(0.0316813 -7.24661e-05 0.000733946 3.28213e-06 -1.2421e-05 0.000547103)
(0.0352362 -4.08939e-05 0.00129329 3.03336e-06 -6.6845e-06 0.000608569)
(0.0307368 -4.6955e-05 0.00161845 2.39104e-06 -6.42672e-06 0.000713947)
(0.0336067 -0.000137849 0.000935919 2.93561e-06 -1.08901e-05 0.000635987)
(0.0326955 -0.000146406 0.000288001 3.16892e-06 -8.0976e-06 0.000531605)
(0.0337667 -7.19123e-05 0.000642308 2.93256e-06 -6.21617e-06 0.000463861)
(0.0309988 8.50122e-06 0.00100451 2.3615e-06 -2.90579e-06 0.000482917)
(0.0304864 -3.85561e-05 0.00132889 2.39752e-06 -5.29321e-06 0.000570946)
(0.0328052 -9.78278e-05 0.000862537 2.90498e-06 -8.07605e-06 0.000537754)
(0.0317033 -0.000107218 0.000314905 2.84981e-06 -8.15015e-07 0.000453746)
(0.0340937 -6.15141e-05 0.000704796 2.91863e-06 -1.2108e-06 0.00047792)
(0.0302588 3.58968e-06 0.00122399 3.6722e-06 -8.674e-06 0.000575961)
(0.0307684 -5.49872e-05 0.00156814 2.89908e-06 -3.20003e-06 0.000585188)
(0.0322345 -0.000100125 0.000675607 2.7907e-06 4.19263e-06 0.000581451)
(0.0325297 -8.76259e-05 0.000434241 2.88374e-06 5.71623e-06 0.000689436)
(0.0312628 -4.76047e-05 0.000348299 2.19079e-06 7.16447e-06 0.00069656)
(0.0334753 -2.60582e-05 0.00105133 1.95327e-06 2.77173e-06 0.000680358)
(0.030911 -4.12201e-05 0.00112618 1.80012e-06 -2.56395e-07 0.000664845)
(0.0309812 -9.6883e-05 0.00069005 1.58452e-06 -3.41198e-06 0.000638811)
(0.0309293 -0.000103645 0.000329361 1.85522e-06 -3.7278e-06 0.000589587)
(0.0315109 -4.43023e-05 0.000357992 1.96874e-06 -2.02129e-06 0.000523892)
(0.0310078 2.02104e-05 0.000742841 1.58635e-06 1.61261e-06 0.000494998)
(0.0302985 -2.28336e-05 0.00118407 1.19141e-06 4.08264e-09 0.000436796)
(0.032195 -9.83569e-05 0.000825891 1.64988e-06 -6.74088e-06 0.000496659)
(0.0323344 -9.55203e-05 0.000425273 2.1887e-06 -8.45122e-06 0.000550301)
(0.0619883 -0.000185782 0.00128357 1.27307e-05 -2.11046e-05 0.00120022)
(0.0611902 -3.58227e-05 0.00199854 8.27015e-06 -4.25011e-06 0.0013646)
(0.0613 -1.59597e-05 0.00218275 6.3739e-06 -3.94421e-07 0.00129203)
(0.0580988 -0.000127571 0.00225619 7.34956e-06 -1.63525e-05 0.00131992)
(0.0598348 -0.000250103 0.0015063 8.77161e-06 -3.56621e-05 0.00155606)
(0.0571715 -0.000151743 0.00101843 8.95732e-06 -3.78903e-05 0.00153397)
(0.0592602 -0.000127762 0.0019746 9.98181e-06 -2.41358e-05 0.00133229)
(0.0581248 -0.000163959 0.00240365 9.33459e-06 -9.93103e-06 0.00107715)
(0.0606223 -0.000307034 0.00227415 1.09362e-05 -1.24035e-05 0.000964271)
(0.0612427 -0.000370403 0.00144422 1.48852e-05 -3.17406e-05 0.00101145)
(0.0638281 -0.00030364 0.00144084 1.35216e-05 -5.24549e-05 0.00106002)
(0.063425 -0.000197137 0.00204308 1.05726e-05 -4.36848e-05 0.00100894)
(0.0651958 -0.000197158 0.00214388 1.10325e-05 -3.55365e-05 0.00101087)
(0.0594058 -0.000282251 0.00189826 1.11346e-05 -2.56123e-05 0.000977105)
(0.0665797 -0.000424838 0.00118766 1.40689e-05 -2.88796e-05 0.00100384)
(0.0622769 -0.000322692 0.00170146 1.54512e-05 -4.38125e-05 0.00115064)
(0.0689473 -0.000210143 0.00205715 1.4965e-05 -3.04636e-05 0.0012436)
(0.0594871 -0.000173078 0.00278401 1.22365e-05 -3.4569e-05 0.00146596)
(0.0678895 -0.000378314 0.0023246 1.49997e-05 -6.0567e-05 0.00135458)
(0.0627101 -0.000418711 0.00123792 1.75711e-05 -4.48877e-05 0.0010826)
(0.0674446 -0.000371458 0.00145689 1.55416e-05 -2.27523e-05 0.000973591)
(0.0639179 -0.000106657 0.00182535 1.1101e-05 -1.86791e-05 0.00103987)
(0.0635511 -0.000186226 0.00255851 1.19066e-05 -3.21237e-05 0.00119718)
(0.0653631 -0.000294055 0.00227357 1.38312e-05 -3.85342e-05 0.00107417)
(0.0627613 -0.00031415 0.00148981 1.33909e-05 -2.10494e-05 0.000848847)
(0.0660928 -0.000317861 0.00173976 1.41161e-05 -2.13827e-05 0.000862353)
(0.0613831 -0.000112265 0.00272969 1.79376e-05 -4.43424e-05 0.00109944)
(0.0633892 -0.000163097 0.00327645 1.42873e-05 -2.20793e-05 0.00109474)
(0.0600636 -0.000276994 0.0022632 1.35932e-05 5.41827e-06 0.0010865)
(0.0647103 -0.000261411 0.00156235 1.34147e-05 7.51681e-06 0.00130386)
(0.0602453 -0.000235664 0.000958724 9.84189e-06 1.70791e-05 0.00129815)
(0.0652432 -0.000194085 0.00151031 8.92716e-06 9.59347e-06 0.00119992)
(0.0604376 -0.000108485 0.0018304 8.18768e-06 3.60312e-06 0.00120765)
(0.0611736 -0.000262662 0.00137899 7.29837e-06 -2.76007e-06 0.00121549)
(0.0600658 -0.000314144 0.0010854 9.27812e-06 -1.89057e-06 0.0011416)
(0.059739 -0.000272107 0.000816719 1.01817e-05 -5.72261e-06 0.00101186)
(0.0605517 -9.54024e-05 0.00157511 7.48023e-06 -6.09604e-08 0.000973115)
(0.0622737 -0.000155504 0.00231825 6.68872e-06 1.80349e-07 0.000830949)
(0.0630986 -0.000256989 0.00217572 8.86734e-06 -2.24452e-05 0.000927981)
(0.0621402 -0.000245964 0.00139207 1.2035e-05 -2.57724e-05 0.00106627)
(0.0797364 -0.000438181 0.00171956 3.6331e-05 1.69221e-05 0.00170156)
(0.0830258 -0.000205599 0.00238118 2.79444e-05 3.56877e-05 0.00185392)
(0.0824745 -0.000117127 0.00269162 2.44418e-05 2.33021e-05 0.0016716)
(0.0790624 -0.000140415 0.00244973 2.24246e-05 -1.22725e-05 0.00167145)
(0.078815 -0.000280625 0.00194482 2.40937e-05 -4.62572e-05 0.00222215)
(0.0750896 -0.000215053 0.000951412 2.63398e-05 -3.52026e-05 0.00236296)
(0.0768712 -0.000321971 0.00208756 3.47688e-05 -1.79584e-05 0.00201811)
(0.0768971 -0.000400794 0.0026771 3.6295e-05 -1.15523e-05 0.00151551)
(0.0812671 -0.000609809 0.0031724 3.57423e-05 -3.47172e-05 0.00123881)
(0.0769953 -0.000678578 0.00227338 4.28035e-05 -6.70894e-05 0.00130779)
(0.0843775 -0.000665615 0.00229271 4.0757e-05 -9.1617e-05 0.00152875)
(0.0796009 -0.000580391 0.00282 3.61746e-05 -7.36769e-05 0.00159657)
(0.0904243 -0.000527926 0.00274301 3.83531e-05 -5.21899e-05 0.00159057)
(0.0800335 -0.00052104 0.00232603 3.45577e-05 -3.37293e-05 0.00152156)
(0.0898506 -0.000720827 0.00193758 3.89927e-05 -3.74709e-05 0.00151389)
(0.0790558 -0.00057088 0.00219999 3.98456e-05 -5.32238e-05 0.00178267)
(0.0908617 -0.000542758 0.00272037 4.03077e-05 -3.49632e-05 0.00186189)
(0.0802305 -0.00041299 0.00300211 3.48666e-05 -5.31197e-05 0.00208699)
(0.0908586 -0.000670071 0.00311557 4.17666e-05 -0.000113428 0.00199638)
(0.0826488 -0.000632035 0.00162929 4.63136e-05 -6.21162e-05 0.00160355)
(0.0914221 -0.000689405 0.00193174 4.02797e-05 -7.60462e-06 0.00145525)
(0.0856304 -0.000325502 0.00205235 2.79044e-05 -1.07775e-05 0.00162283)
(0.0878483 -0.000467882 0.00280174 3.05728e-05 -3.77264e-05 0.00183283)
(0.0874213 -0.000522891 0.00251744 3.54477e-05 -4.03593e-05 0.00155071)
(0.0864643 -0.000549557 0.00198706 3.30025e-05 -2.90209e-05 0.00115048)
(0.0887586 -0.000544405 0.00225757 3.50268e-05 -2.73165e-05 0.00123988)
(0.0801538 -0.000371358 0.00369241 4.34615e-05 -5.12002e-05 0.00166303)
(0.0870464 -0.000324463 0.00436871 3.73412e-05 -2.45165e-05 0.0015094)
(0.0794867 -0.000451416 0.00367239 3.61323e-05 1.3054e-05 0.00143045)
(0.0852093 -0.000476998 0.00254895 3.49254e-05 1.71737e-05 0.00164015)
(0.0807247 -0.000413018 0.00180223 2.82585e-05 3.91645e-05 0.00165485)
(0.0856998 -0.000487373 0.00193247 2.77814e-05 3.79776e-05 0.00153489)
(0.0831208 -0.000289931 0.00205331 2.47953e-05 3.07953e-05 0.00154628)
(0.0847119 -0.000478462 0.00131765 2.24555e-05 2.48208e-05 0.00164988)
(0.0808881 -0.000474295 0.00100386 2.60994e-05 3.28458e-05 0.00157198)
(0.0801633 -0.000494443 0.00105308 2.95162e-05 1.90393e-05 0.00137717)
(0.0791086 -0.000327869 0.00186256 2.32192e-05 2.51475e-05 0.00129375)
(0.0777121 -0.000363851 0.00218659 2.4129e-05 4.06352e-05 0.00104801)
(0.0773663 -0.000362849 0.00274384 2.72336e-05 -1.42938e-06 0.00116938)
(0.0773271 -0.000385008 0.00160328 3.27662e-05 1.24002e-06 0.00146269)
(0.0826108 -0.000495272 0.00235985 7.93737e-05 9.10058e-05 0.00184683)
(0.0823634 -0.000355953 0.00245817 7.46949e-05 0.000102849 0.00185952)
(0.0857573 -0.000196534 0.0033239 6.60739e-05 6.16112e-05 0.00166861)
(0.0828636 -0.000210413 0.00234236 5.73584e-05 2.6367e-05 0.00166768)
(0.0875592 -0.000378015 0.00193383 5.42321e-05 -1.99729e-05 0.0023967)
(0.0807833 -0.000104482 0.000749169 5.55984e-05 2.63416e-06 0.00277192)
(0.0858837 -0.000321444 0.00221153 8.30378e-05 2.92264e-05 0.0025765)
(0.0825806 -0.000487829 0.00275659 9.39576e-05 2.84814e-05 0.00201762)
(0.0871232 -0.000765758 0.00356615 8.46058e-05 -2.10366e-05 0.00149439)
(0.0821158 -0.000836824 0.00218335 9.39639e-05 -6.26609e-05 0.00150385)
(0.0889556 -0.000912996 0.00228544 9.17268e-05 -8.48264e-05 0.00181546)
(0.0827095 -0.000876315 0.00277089 8.96385e-05 -6.38681e-05 0.00197934)
(0.0928636 -0.000872277 0.00291717 9.39126e-05 -1.86592e-05 0.001963)
(0.0872444 -0.00070301 0.00220168 8.4466e-05 2.45805e-05 0.00193077)
(0.0930069 -0.000895629 0.00144831 8.13232e-05 1.90262e-05 0.00203601)
(0.0875592 -0.000649231 0.00172659 7.21845e-05 -5.1126e-06 0.00227063)
(0.0920696 -0.000847071 0.0026918 7.19353e-05 -5.85973e-06 0.00219479)
(0.0907027 -0.000649582 0.00295075 6.51064e-05 -2.6835e-05 0.00227534)
(0.0959429 -0.0008052 0.0028999 7.65897e-05 -9.86224e-05 0.00232225)
(0.0896011 -0.000602804 0.00165036 7.71371e-05 -3.04262e-05 0.00188909)
(0.0952404 -0.000860908 0.00172273 7.17197e-05 5.70623e-05 0.00168277)
(0.0911143 -0.000406494 0.00256141 4.96994e-05 5.38971e-05 0.00200692)
(0.0965124 -0.000662433 0.00278863 5.27861e-05 4.08861e-05 0.00221901)
(0.0908315 -0.000525091 0.00287881 5.78615e-05 3.64283e-05 0.00179298)
(0.0920278 -0.000659273 0.00269226 5.6029e-05 1.64619e-05 0.00125483)
(0.0887929 -0.000577722 0.0029052 5.92208e-05 2.93414e-05 0.00165302)
(0.0860464 -0.000501946 0.00392335 6.95488e-05 4.67571e-05 0.00233758)
(0.0861847 -0.000533612 0.00524699 6.83062e-05 3.87292e-05 0.00195001)
(0.0864935 -0.000530443 0.00479086 6.90528e-05 4.16178e-05 0.00167179)
(0.0860804 -0.000557714 0.00350451 6.87651e-05 3.91678e-05 0.00168792)
(0.0854532 -0.000529179 0.00301758 6.2429e-05 6.48298e-05 0.00159726)
(0.0903518 -0.000682808 0.00285456 6.33515e-05 6.26333e-05 0.00161145)
(0.0891479 -0.00050049 0.00273507 5.71406e-05 5.6085e-05 0.00165919)
(0.0895378 -0.000634388 0.0014745 5.32657e-05 5.73891e-05 0.00181428)
(0.0868528 -0.000616113 0.000596599 5.55881e-05 7.43878e-05 0.00175179)
(0.0849138 -0.000634416 0.000555288 5.74538e-05 7.39409e-05 0.00152414)
(0.0826749 -0.000358217 0.00188336 4.64161e-05 8.57876e-05 0.00143848)
(0.0802407 -0.000447895 0.00228326 5.79635e-05 9.88524e-05 0.00120314)
(0.0839563 -0.000474915 0.00300887 6.04883e-05 3.88536e-05 0.00122298)
(0.0803526 -0.000380709 0.00205677 7.01639e-05 3.44342e-05 0.00150469)
(0.0747659 -0.000431315 0.00305116 0.000135842 9.03467e-05 0.00176981)
(0.0727632 -0.000248877 0.0033076 0.000135022 9.05086e-05 0.0016549)
(0.0778347 -0.00017832 0.00406874 0.0001144 2.24406e-05 0.00152476)
(0.0789926 -9.49019e-05 0.00364513 0.000106366 1.57823e-05 0.00163622)
(0.0759904 -0.000307973 0.00359606 0.000100958 -6.52829e-06 0.00210398)
(0.0762351 -5.24058e-05 0.00247335 9.90288e-05 4.71239e-05 0.00230362)
(0.0797587 -0.000253463 0.00331692 0.000148446 0.000103985 0.00239072)
(0.0777482 -0.000302482 0.00347913 0.000176135 0.000108609 0.0022821)
(0.0796322 -0.000650509 0.00397699 0.000163802 4.03813e-05 0.00181482)
(0.0780189 -0.000733622 0.00229686 0.000170237 -7.8981e-06 0.00170925)
(0.079202 -0.000794186 0.00246024 0.00016727 -5.04874e-05 0.00192631)
(0.0761717 -0.000844963 0.0028074 0.000168752 -4.81926e-05 0.00196832)
(0.0796734 -0.000887202 0.00340261 0.000167105 -5.72672e-06 0.00189951)
(0.0827266 -0.000513971 0.00275944 0.00015213 6.26368e-05 0.00184497)
(0.0809232 -0.000498269 0.00184022 0.000125758 6.80946e-05 0.0021554)
(0.0801294 -0.000424145 0.00227385 0.000111292 4.39445e-05 0.00240869)
(0.0806377 -0.000833694 0.00325129 0.000116286 8.42554e-06 0.00224802)
(0.0809744 -0.000599205 0.00305124 0.000112614 7.63424e-06 0.00218072)
(0.0794685 -0.000486342 0.00230558 0.000121851 -1.81834e-05 0.0022209)
(0.081254 -0.000269424 0.00202065 0.000117095 -4.52516e-06 0.00190251)
(0.0779939 -0.000501357 0.00216035 0.000110795 5.80467e-05 0.00164463)
(0.0799563 -0.000326498 0.00299666 8.34228e-05 7.35604e-05 0.00198788)
(0.0844679 -0.000421754 0.00323574 8.62247e-05 9.90447e-05 0.00220562)
(0.0809452 -0.000203702 0.00304735 9.70569e-05 0.000107089 0.00182927)
(0.0850537 -0.000312218 0.0028851 0.000108098 7.29596e-05 0.00143778)
(0.0786484 -0.00023155 0.00290301 0.000111091 0.000115829 0.00189131)
(0.0792373 -0.000397922 0.00364903 0.000120704 0.000179718 0.00262333)
(0.0763165 -0.00042839 0.00509269 0.000127507 0.000106101 0.00212448)
(0.0786563 -0.000349089 0.00527835 0.000130183 5.57111e-05 0.00179495)
(0.0784673 -0.000301146 0.00400778 0.000136114 5.9791e-05 0.00177366)
(0.0754269 -0.000423874 0.00403462 0.000132812 8.58165e-05 0.00145186)
(0.0813718 -0.000641414 0.00355494 0.000129482 6.37127e-05 0.00144489)
(0.0784595 -0.000490673 0.00348703 0.000123592 3.98115e-05 0.00154285)
(0.0825709 -0.000670368 0.00203954 0.000114638 3.58337e-05 0.00160544)
(0.0795534 -0.000605929 0.00122737 0.000100453 4.43826e-05 0.00170161)
(0.0753088 -0.000549835 0.000555618 9.19332e-05 6.44266e-05 0.00150602)
(0.0762227 -0.000249833 0.0021486 7.94762e-05 8.07059e-05 0.00148456)
(0.074552 -0.00039822 0.00216417 0.000111125 9.98395e-05 0.00138329)
(0.0760149 -0.000443325 0.00321398 0.000113614 5.91425e-05 0.00128711)
(0.0720279 -0.000334655 0.00280052 0.000121582 3.19517e-05 0.00142069)
(0.0615705 -0.000216584 0.00347144 0.000226585 5.81432e-05 0.00177685)
(0.0598516 -0.000157687 0.00392049 0.000228836 4.64181e-05 0.00162064)
(0.064731 -0.000185544 0.00451013 0.000188854 -4.02144e-05 0.00169824)
(0.0615309 -5.06491e-05 0.00378059 0.000187092 -3.60184e-05 0.00184972)
(0.0664231 -0.000256725 0.0041305 0.000186631 -4.02616e-05 0.00199997)
(0.0626397 -7.87733e-05 0.00296101 0.000185536 4.81387e-05 0.00178993)
(0.0690815 -0.000310927 0.00403016 0.000235865 0.000106168 0.00183859)
(0.0631026 -9.89872e-05 0.00386692 0.000262948 0.000131091 0.00198619)
(0.0669742 -0.000314893 0.00439294 0.000255117 6.4009e-05 0.00191444)
(0.0612147 -0.000433437 0.00296035 0.000258709 1.62992e-05 0.00190985)
(0.0641242 -0.000548739 0.00299975 0.000263742 -6.20887e-05 0.00214536)
(0.0573049 -0.000401539 0.00340079 0.000259214 -8.30005e-05 0.00192224)
(0.0597935 -0.000578907 0.00379561 0.000232279 -5.07693e-05 0.00178849)
(0.0584973 -0.000149791 0.00307539 0.000215339 4.14907e-05 0.00169256)
(0.0615645 -0.00010187 0.00207837 0.000199767 5.41845e-05 0.00197803)
(0.0595933 -9.37203e-05 0.00258193 0.000211023 1.44068e-05 0.00242898)
(0.0620514 -0.000489233 0.00338747 0.000224046 -8.03107e-05 0.00239295)
(0.0590233 -0.000221603 0.00350427 0.000209471 -8.64848e-05 0.00228964)
(0.0649465 -3.33963e-05 0.00237812 0.000193809 -2.8222e-05 0.00206359)
(0.0622032 0.000184001 0.00245119 0.000183987 -2.63187e-05 0.00179029)
(0.0614143 7.13051e-05 0.00267333 0.000182718 -2.822e-06 0.00150575)
(0.0636332 1.1474e-05 0.00292453 0.000168559 2.89308e-05 0.0016386)
(0.0676007 -5.09428e-05 0.00334414 0.000170958 5.7241e-05 0.00182098)
(0.0677228 0.000171146 0.00308163 0.000192659 6.79602e-05 0.00166426)
(0.07093 0.000277255 0.00290954 0.000215684 6.41348e-05 0.00153993)
(0.0688319 0.000343798 0.00277429 0.000215295 0.000120114 0.00174075)
(0.0697846 -1.21475e-06 0.00315776 0.000221722 0.000185166 0.00225756)
(0.0693898 -0.000101116 0.00425249 0.000243571 8.18094e-05 0.0018963)
(0.069037 7.69376e-05 0.00462386 0.000244108 7.46361e-06 0.00169145)
(0.0671417 0.000188017 0.00392306 0.000235731 3.41822e-05 0.00179646)
(0.0670421 4.36204e-05 0.00397887 0.000225783 8.65219e-05 0.00142747)
(0.067092 -0.000199244 0.0044523 0.000209881 4.82778e-05 0.00144801)
(0.0702231 -0.000150207 0.00406949 0.00020331 1.0593e-05 0.00149886)
(0.0685377 -0.000285091 0.00345092 0.000193092 -4.75476e-05 0.00144753)
(0.0672197 -0.000269163 0.00271027 0.000162514 -5.74846e-05 0.00166736)
(0.0607162 -0.00026144 0.00155955 0.000153415 -2.87806e-05 0.00139801)
(0.0616448 -0.000142791 0.0022514 0.000151937 -6.92518e-06 0.00145952)
(0.0606976 -0.000218138 0.00179277 0.000195106 2.16492e-05 0.00161707)
(0.0628652 -0.000122183 0.00229748 0.000197897 4.39933e-05 0.00160043)
(0.0630715 -6.11531e-05 0.00275276 0.000205093 3.59991e-05 0.00160609)
(0.0461979 1.26262e-05 0.00359719 0.000339514 6.12407e-05 0.00184031)
(0.0448166 -0.000132379 0.00409949 0.00035155 2.23811e-05 0.00170902)
(0.0455414 1.81173e-05 0.00426229 0.000290436 -8.0451e-05 0.00196192)
(0.0461522 7.55765e-05 0.00404732 0.000289444 -0.000107678 0.00206497)
(0.0470107 -0.000258838 0.00402834 0.000300639 -0.000135365 0.00196154)
(0.0513807 -0.000217022 0.00345758 0.000329261 -7.29618e-05 0.00174442)
(0.050081 -0.000358644 0.00343393 0.000386714 4.1002e-06 0.00184356)
(0.0477307 8.96704e-05 0.0037211 0.000383475 4.11995e-05 0.00196748)
(0.047472 6.97873e-05 0.00364736 0.000365642 -1.30381e-05 0.00201756)
(0.0515624 -0.000107213 0.00272911 0.000369079 -1.5589e-05 0.00219224)
(0.0452199 -8.13869e-05 0.00288103 0.000372234 -6.63861e-05 0.00247224)
(0.0435047 0.000137715 0.00397016 0.000352877 -8.97511e-05 0.00219552)
(0.0424704 -5.25769e-05 0.004133 0.000305161 -6.72261e-05 0.00205328)
(0.0443332 0.000224134 0.00309485 0.000298264 6.91162e-06 0.00232141)
(0.0428828 0.000233743 0.00171546 0.000334078 1.36544e-05 0.00254554)
(0.0454659 0.000150124 0.00184789 0.000392506 -6.36859e-05 0.0030206)
(0.0440767 -0.000104302 0.00249147 0.000392388 -0.000187241 0.00290443)
(0.0437092 0.000154341 0.00292219 0.000346451 -0.00018042 0.00259843)
(0.0435222 0.000444716 0.00245378 0.000302148 -0.000102531 0.00237008)
(0.0474593 0.00070097 0.0023878 0.000281502 -6.13113e-05 0.00220325)
(0.042832 0.000575946 0.00253188 0.000289597 -1.24475e-05 0.00185832)
(0.0483803 0.000382593 0.00287185 0.000285551 4.43771e-05 0.00157683)
(0.0457429 0.000356311 0.00296937 0.000286997 4.75366e-05 0.00154691)
(0.0467448 0.000448015 0.00314938 0.00031447 -2.74272e-05 0.00164678)
(0.0474881 0.000667316 0.0029382 0.000343295 -4.31772e-05 0.00173533)
(0.0491873 0.000644348 0.0028808 0.000354822 7.69809e-06 0.00173397)
(0.0505375 0.000348765 0.00262343 0.000365071 9.13716e-05 0.00193528)
(0.049629 0.000210914 0.00323931 0.000397818 5.8769e-06 0.00188326)
(0.0490218 0.000533432 0.00360364 0.000389099 -7.45059e-05 0.00183856)
(0.0488127 0.000506638 0.00315663 0.000363603 -4.45321e-05 0.00187028)
(0.0495286 0.000329705 0.00336004 0.000344316 1.6824e-05 0.00162111)
(0.0490935 8.63436e-05 0.00418757 0.00031128 5.10143e-06 0.00179766)
(0.0509695 0.000168588 0.0040088 0.000304849 -2.99322e-05 0.00191625)
(0.0522212 0.000256171 0.00392189 0.000306483 -0.000120048 0.00198027)
(0.0517943 0.000117488 0.00345989 0.000272614 -0.000166178 0.00214282)
(0.0460874 -5.76543e-05 0.00240252 0.000262637 -0.000113848 0.00177556)
(0.0455349 -0.000143649 0.00281065 0.00025099 -4.6175e-05 0.00178047)
(0.0459365 -9.34394e-05 0.00232438 0.000270799 -1.81228e-05 0.00188792)
(0.046417 3.90238e-05 0.00199278 0.000266017 5.29102e-05 0.00191549)
(0.0512994 0.000127405 0.00308485 0.000295402 6.1853e-05 0.0018397)
(0.0376301 -0.000347273 0.00397308 0.000461205 -4.98195e-06 0.00188397)
(0.0326841 -0.000378273 0.00369665 0.000461295 1.14627e-05 0.00195878)
(0.0309838 -0.000113051 0.00329104 0.000375298 -7.54383e-05 0.00216505)
(0.031747 0.000209985 0.00323667 0.000400475 -4.7292e-05 0.00221829)
(0.0336511 -0.000286224 0.00275178 0.000468443 -0.000114206 0.0019453)
(0.0375184 -0.000250981 0.00275485 0.000540732 -0.000101355 0.00206923)
(0.0348756 -0.00023006 0.00296405 0.000611675 -1.51237e-05 0.00229002)
(0.0331006 0.00037289 0.00350916 0.000546167 2.38755e-05 0.00242828)
(0.0343465 0.000286035 0.00299423 0.000517045 -6.40788e-05 0.00217316)
(0.0379419 2.5261e-05 0.00229275 0.000513824 6.13274e-06 0.00236376)
(0.0329055 0.000175545 0.00241305 0.000466844 3.10582e-05 0.00233442)
(0.0323323 0.000366511 0.00395258 0.000414682 3.03783e-05 0.00210163)
(0.0323679 0.000156573 0.00402166 0.000381398 -1.03361e-05 0.00202276)
(0.0329264 0.000380108 0.00315131 0.000412677 -7.41653e-05 0.00255968)
(0.0299592 0.000435587 0.00213167 0.000508017 -0.000177619 0.00310596)
(0.0299151 0.000555153 0.00195959 0.000571768 -0.000227553 0.00345644)
(0.0270417 0.000511206 0.00250381 0.000546498 -0.00024732 0.00333648)
(0.0285598 0.000645535 0.00267538 0.000470544 -0.000161763 0.00308852)
(0.0273932 0.000835895 0.00242163 0.000410968 -6.65259e-05 0.00293986)
(0.0304544 0.000908421 0.00186914 0.000400647 1.67681e-05 0.00296492)
(0.0283796 0.000680213 0.00217414 0.000418203 9.30277e-05 0.00261779)
(0.0297807 0.000638324 0.00265938 0.000395176 0.000155139 0.00211977)
(0.0290759 0.000702989 0.00296513 0.000357723 0.000145435 0.00185636)
(0.030513 0.000686152 0.00328152 0.000372323 1.22613e-05 0.00191341)
(0.0300564 0.000900225 0.00318855 0.00041215 -7.73671e-05 0.0022542)
(0.0321056 0.000889665 0.00273849 0.000447722 -3.57766e-05 0.00235546)
(0.0328637 0.000709945 0.00260152 0.000472751 6.09955e-05 0.00203055)
(0.0334798 0.000611089 0.00281596 0.000499244 5.06925e-05 0.00202516)
(0.0329513 0.000851993 0.00321387 0.000495434 -4.01236e-05 0.00205982)
(0.0333339 0.000739664 0.0034336 0.000489781 -4.60308e-05 0.00190937)
(0.0334184 0.000402914 0.00346682 0.00046315 1.63831e-06 0.00191404)
(0.0347438 0.000102003 0.00414604 0.000450613 -3.44812e-05 0.00236506)
(0.0323411 0.000105306 0.00438354 0.000483335 -0.000102597 0.00253781)
(0.0344987 0.000249667 0.00412109 0.000493532 -0.000185638 0.00257913)
(0.0375278 -6.79826e-06 0.00373878 0.000418396 -0.000290422 0.00270504)
(0.0330841 -0.000191768 0.00264649 0.000357702 -0.000216312 0.00249968)
(0.0318638 -0.000216264 0.0030383 0.000313338 -0.000107348 0.00234288)
(0.0317381 1.77678e-05 0.00300228 0.000324362 -3.69629e-05 0.00229153)
(0.0332368 3.1209e-05 0.00278742 0.000366739 3.25087e-05 0.00207212)
(0.0369525 -6.11516e-05 0.0036926 0.000418312 4.29165e-05 0.0018338)
(0.0320385 -0.000946672 0.00344461 0.000622921 -0.000188306 0.00170921)
(0.0269896 -0.000799922 0.00290215 0.000596503 -0.000130835 0.00190217)
(0.0214137 -0.000327552 0.00230814 0.000473789 -0.000128588 0.00194888)
(0.021924 4.8924e-05 0.00239011 0.000503573 -5.80354e-05 0.00189328)
(0.021492 -0.000286075 0.00160214 0.000620133 5.60608e-05 0.00157777)
(0.0252957 -0.000258397 0.00212768 0.000686451 3.79417e-05 0.00179271)
(0.0265231 -0.000339167 0.00284271 0.000759196 2.89153e-05 0.00209965)
(0.0250996 0.000110337 0.00317766 0.000713523 3.12523e-05 0.00233493)
(0.0242306 0.000184749 0.00225158 0.00070149 -1.4446e-05 0.002181)
(0.0254592 5.20148e-06 0.00150552 0.000697005 2.82872e-05 0.00224729)
(0.0227492 9.65896e-05 0.00154863 0.000607668 9.65117e-05 0.00208551)
(0.0247495 6.23626e-05 0.0026527 0.000527718 0.000107863 0.00186996)
(0.0259436 -8.38023e-05 0.00278407 0.000481965 4.04214e-05 0.00179348)
(0.0233179 0.000217166 0.0026591 0.000486991 -9.33262e-05 0.00196447)
(0.0213496 0.000362266 0.00264968 0.000558696 -0.00022276 0.00244128)
(0.0198482 0.00052629 0.00217229 0.000574023 -0.000245999 0.00255179)
(0.0188461 0.000596764 0.00196502 0.000537295 -0.000175255 0.00264294)
(0.0200831 0.000503677 0.00186222 0.000500894 -7.41735e-05 0.0029645)
(0.0200645 0.000534504 0.00129344 0.000465797 6.80961e-05 0.00302986)
(0.0192041 0.000555186 0.000529302 0.00049166 0.000206874 0.00291825)
(0.0196986 0.000279912 0.00109092 0.000520984 0.000248419 0.00263846)
(0.0192327 0.000483775 0.00192716 0.000458566 0.000245628 0.00215475)
(0.0194272 0.000634772 0.00212647 0.000407982 0.000196893 0.00200845)
(0.0210854 0.000548507 0.00250662 0.000440453 7.44626e-05 0.00211396)
(0.0208554 0.000759876 0.0024893 0.00049169 2.45064e-05 0.00234827)
(0.0223071 0.000841396 0.00229917 0.000553014 6.36458e-05 0.00272436)
(0.0236776 0.000882965 0.00220597 0.00060121 0.000130785 0.00254034)
(0.0225491 0.000930984 0.00190864 0.000624258 0.000204753 0.0022745)
(0.0232831 0.000962782 0.00260595 0.000628254 0.00011057 0.00221435)
(0.0235761 0.000853775 0.00342782 0.000657804 1.56285e-05 0.00188755)
(0.0228552 0.000487769 0.00286527 0.000661919 2.90524e-05 0.00199938)
(0.0241833 4.54533e-05 0.00325288 0.000698444 -2.3691e-06 0.00259405)
(0.0214835 -0.000199005 0.00379449 0.000725131 -5.40761e-05 0.00278945)
(0.0220534 -7.01985e-05 0.00307235 0.000663593 -8.37585e-05 0.00264315)
(0.0264991 -0.00036793 0.00205051 0.000528329 -0.000247672 0.00265603)
(0.0233402 -0.00044032 0.00162828 0.000412596 -0.000239944 0.00243738)
(0.0198651 -0.000247339 0.00177853 0.000344553 -0.000162324 0.00202075)
(0.0204205 4.74667e-06 0.00202581 0.00036744 -7.0259e-05 0.00218973)
(0.023267 -0.00011809 0.0021445 0.000483635 -3.02719e-05 0.00192288)
(0.0277483 -0.00040856 0.00335794 0.000577343 -9.30706e-05 0.00168356)
(0.0220486 -0.00073996 0.00353399 0.000879726 -0.000253704 0.0017137)
(0.0193545 -0.000646357 0.00300161 0.000794745 -0.000213564 0.00175878)
(0.0154317 -0.000111224 0.00262613 0.00062692 -0.000140171 0.00186999)
(0.0160113 0.000221471 0.002373 0.000643392 8.24074e-06 0.00186853)
(0.0134822 0.000244994 0.00132974 0.00073175 0.000256134 0.0017961)
(0.0148704 0.000231517 0.00174243 0.000782818 0.000227897 0.00188423)
(0.0198469 -0.000194822 0.00198494 0.000883141 0.000192123 0.00191878)
(0.0202809 -4.9525e-05 0.00175352 0.000877776 0.000194069 0.00195955)
(0.0172027 0.000246904 0.00168616 0.000845375 0.000111644 0.00182824)
(0.0171503 0.000119123 0.00121825 0.000818656 9.38701e-05 0.00160952)
(0.0161715 1.79601e-05 0.000899861 0.000724712 0.000182343 0.00145513)