/*--------------------------------*- C++ -*----------------------------------*\
  =========                 |
  \\      /  F ield         | OpenFOAM: The Open Source CFD Toolbox
   \\    /   O peration     | Website:  https://openfoam.org
    \\  /    A nd           | Version:  10
     \\/     M anipulation  |
\*---------------------------------------------------------------------------*/
FoamFile
{
    format      ascii;
    class       surfaceScalarField;
    location    "15";
    object      phi;
}
// * * * * * * * * * * * * * * * * * * * * * * * * * * * * * * * * * * * * * //

dimensions      [0 3 -1 0 0 0 0];

internalField   nonuniform List<scalar> 
74080
(
0.00492723
-3.5261e-07
-1.97308e-07
0.00492706
3.79627e-07
1.31321e-07
0.0049272
-4.38213e-07
-8.77861e-08
0.00492714
3.20974e-07
4.91698e-08
0.0049271
-2.34246e-07
8.93277e-09
0.00492722
8.44167e-09
-7.16158e-08
0.00492709
8.63845e-08
1.67295e-07
0.00492718
-2.07745e-07
-2.17189e-07
0.00492714
2.39249e-07
2.3537e-07
0.00492715
-3.11063e-07
-2.03593e-07
0.00492713
3.1228e-07
1.03723e-07
0.00492716
-2.67467e-07
6.79361e-08
0.00492711
2.03175e-07
-1.38915e-07
0.00492715
-1.39584e-07
9.34215e-08
0.00492712
9.64411e-08
5.24285e-08
0.00492716
1.98574e-08
-1.18707e-07
0.00492705
-7.80301e-08
1.56734e-07
0.00492719
1.7854e-07
-9.29063e-08
0.00492705
-1.35169e-07
1.05069e-08
0.0049271
1.36247e-07
1.1994e-07
0.00492719
-5.26105e-08
-1.80461e-07
0.00492696
1.13209e-07
2.62343e-07
0.00492726
-7.69663e-08
-2.69882e-07
0.00492695
1.70254e-07
2.59646e-07
0.00492718
-1.02031e-07
-1.58001e-07
0.00492707
9.76455e-08
4.70415e-08
0.00492705
2.08104e-08
5.09478e-08
0.00492717
2.6059e-08
-6.92887e-08
0.00492698
-6.45992e-09
1.15509e-07
0.00492722
7.94035e-08
-1.65432e-07
0.00492695
1.85122e-08
2.62814e-07
0.00492724
-1.33646e-07
-3.64492e-07
0.00492702
3.16725e-07
3.7427e-07
0.00492712
-3.74877e-07
-2.47841e-07
0.00492715
3.81396e-07
1.12068e-07
0.00492706
-2.70209e-07
3.21631e-08
0.00492719
1.07159e-07
-1.82395e-07
0.00492706
5.68356e-08
2.92604e-07
0.00492722
-1.85628e-07
-3.25874e-07
2.39e-07
2.93725e-07
0.00447892
-3.55035e-07
-6.7702e-08
0.00447897
3.38831e-07
3.24153e-08
0.00447893
-3.68938e-07
-3.14793e-08
0.00447897
2.27211e-07
1.51933e-08
0.00447893
-1.38385e-07
-2.55121e-08
0.00447895
-5.13262e-08
7.10264e-09
0.004479
8.43338e-08
2.74934e-08
0.00447888
-1.06538e-07
-6.51986e-08
0.00447907
8.55334e-08
5.61806e-08
0.00447884
-1.08459e-07
-3.31344e-08
0.00447905
1.60195e-07
-5.41293e-08
0.00447891
-1.51679e-07
1.64776e-07
0.00447896
1.82833e-07
-1.64987e-07
0.00447896
-1.39104e-07
5.82066e-08
0.0044789
1.57252e-07
1.33965e-07
0.00447903
-6.37929e-08
-2.22931e-07
0.0044788
7.20057e-08
2.72463e-07
0.00447908
2.42442e-08
-1.85348e-07
0.00447881
1.93709e-08
1.09047e-07
0.00447896
5.42195e-08
2.19039e-08
0.00447894
-3.44628e-08
-8.08222e-08
0.00447886
1.4712e-07
2.08815e-07
0.00447898
-1.27481e-07
-2.31316e-07
0.00447884
2.28097e-07
2.63519e-07
0.00447896
-1.55758e-07
-1.65624e-07
0.00447886
1.34399e-07
1.10833e-07
0.00447891
-3.66264e-09
-2.82866e-08
0.00447893
3.18679e-09
1.99176e-08
0.00447886
3.66648e-08
6.72488e-08
0.00447895
-2.35966e-09
-9.57338e-08
0.00447887
7.19279e-08
1.68175e-07
0.00447892
-1.84209e-07
-2.11473e-07
0.00447895
3.07981e-07
2.26541e-07
0.00447885
-3.26916e-07
-1.36678e-07
0.00447898
2.80342e-07
8.28245e-08
0.00447891
-2.03966e-07
-1.70732e-08
0.0044789
6.15628e-08
-5.32653e-08
0.00447899
6.23406e-08
9.46746e-08
0.00447889
-1.9548e-07
-1.10757e-07
2.45287e-07
9.94156e-08
0.00407141
-2.47809e-07
4.51952e-08
0.00407162
2.0333e-07
-4.02567e-08
0.00407146
-2.36026e-07
1.50411e-09
0.00407157
1.08785e-07
1.56867e-09
0.00407153
-5.67447e-08
-6.19103e-08
0.0040715
-6.01115e-08
7.2958e-08
0.00407162
2.36955e-08
-7.79295e-08
0.00407142
5.31784e-08
3.62219e-08
0.00407169
-1.23297e-07
-5.62402e-08
0.00407136
1.72701e-07
6.51638e-08
0.00407169
-7.87392e-08
-1.31197e-07
0.00407144
5.12776e-08
1.94194e-07
0.00407158
9.68283e-08
-1.4639e-07
0.00407151
-8.55944e-08
2.33661e-08
0.00407149
1.94369e-07
1.76461e-07
0.0040716
-1.39299e-07
-2.65238e-07
0.0040714
2.21954e-07
3.1589e-07
0.00407165
-1.30781e-07
-1.94455e-07
0.00407141
1.68175e-07
1.19615e-07
0.00407154
-1.29953e-08
1.09654e-08
0.00407149
-7.68701e-09
-3.27809e-08
0.00407151
1.32963e-07
1.51436e-07
0.00407148
-9.38385e-08
-1.42982e-07
0.00407151
1.80099e-07
1.89883e-07
0.00407146
-1.05656e-07
-1.00158e-07
0.00407149
1.01126e-07
1.14965e-07
0.00407149
1.19621e-09
-6.08659e-08
0.00407149
-1.82985e-08
8.36126e-08
0.00407148
5.7136e-08
5.5718e-09
0.00407147
-4.25772e-08
4.53312e-09
0.00407154
5.21485e-08
4.01414e-08
0.00407141
-1.3222e-07
-4.049e-08
0.00407162
1.86912e-07
6.87206e-08
0.00407137
-1.97661e-07
-1.90408e-08
0.00407158
1.40211e-07
3.99118e-08
0.0040715
-1.44103e-07
-5.49399e-08
0.00407144
5.89201e-08
6.52511e-08
0.00407164
-1.79103e-08
-9.09804e-08
0.00407138
-9.53279e-08
9.62156e-08
1.36977e-07
-8.29523e-08
0.00370103
-1.13143e-07
1.05402e-07
0.00370129
5.0119e-08
-7.42047e-08
0.00370109
-1.01616e-07
1.05352e-08
0.00370122
8.69297e-10
-2.80113e-09
0.00370116
1.83753e-08
-8.21941e-08
0.00370115
-6.74411e-08
9.77906e-08
0.00370125
-1.12326e-08
-1.21053e-07
0.00370111
1.67094e-07
6.41382e-08
0.00370129
-2.59635e-07
-8.84462e-08
0.00370104
3.97913e-07
8.44265e-08
0.00370131
-2.74903e-07
-1.40881e-07
0.00370109
2.51892e-07
1.7459e-07
0.00370124
-1.13124e-08
-9.46672e-08
0.00370112
1.13936e-08
-1.2218e-08
0.00370117
1.79443e-07
1.99031e-07
0.00370118
-1.40304e-07
-2.67925e-07
0.00370112
2.80367e-07
3.1591e-07
0.00370121
-1.80712e-07
-1.56911e-07
0.00370111
2.162e-07
7.90182e-08
0.00370114
1.38714e-09
6.22682e-08
0.00370115
-3.17549e-08
-4.60774e-08
0.00370116
1.41444e-07
1.37653e-07
0.0037011
-5.50102e-08
-7.75881e-08
0.0037012
9.65815e-08
1.22523e-07
0.00370106
-2.17423e-09
-2.43028e-08
0.00370117
1.36876e-08
8.595e-08
0.0037011
4.84892e-08
-5.19279e-08
0.00370114
-7.56533e-08
1.11362e-07
0.00370111
9.3567e-08
-2.1557e-08
0.00370111
-9.85799e-08
7.01962e-08
0.00370119
3.76864e-08
-3.51779e-08
0.00370103
-8.69137e-08
7.37323e-08
0.00370127
6.77239e-08
-4.31647e-08
0.00370101
-8.73858e-08
8.21975e-08
0.00370121
2.47731e-08
-1.90863e-08
0.00370114
-1.02857e-07
-4.49723e-08
0.00370109
6.11575e-08
1.24383e-07
0.00370128
-1.04004e-07
-2.06993e-07
0.00370101
2.13072e-08
2.28029e-07
3.27416e-09
-1.97669e-07
0.00336437
8.96064e-09
1.20906e-07
0.00336461
-8.39883e-08
-6.49386e-08
0.00336443
5.87929e-09
-1.87534e-08
0.00336455
-7.88219e-08
2.00411e-08
0.0033645
8.09376e-08
-1.05992e-07
0.0033645
-6.93176e-08
1.04959e-07
0.00336455
-7.24006e-09
-1.33688e-07
0.0033645
2.1229e-07
5.88979e-08
0.00336455
-2.85478e-07
-8.2166e-08
0.00336445
5.11748e-07
7.11281e-08
0.00336457
-3.57572e-07
-1.18283e-07
0.00336446
3.74897e-07
1.36937e-07
0.00336455
-7.52197e-08
-3.76601e-08
0.00336446
1.02873e-07
-4.4273e-08
0.00336452
1.43409e-07
2.25787e-07
0.00336447
-8.40179e-08
-2.6946e-07
0.00336451
2.58592e-07
3.23692e-07
0.00336448
-1.3817e-07
-1.38521e-07
0.0033645
1.72835e-07
6.02918e-08
0.00336443
9.0977e-08
9.6846e-08
0.00336451
-1.14738e-07
-4.99036e-08
0.00336447
2.00215e-07
1.29612e-07
0.00336444
-6.62208e-08
-2.60678e-08
0.00336452
5.26222e-08
8.46625e-08
0.0033644
7.03695e-08
1.60466e-08
0.00336449
-4.9505e-08
8.43949e-08
0.00336445
7.09565e-08
-5.93413e-08
0.00336446
-1.09601e-07
1.4843e-07
0.00336446
9.99046e-08
-5.69897e-08
0.00336444
-1.43628e-07
1.25255e-07
0.00336451
3.12087e-08
-7.52801e-08
0.00336439
-8.21189e-08
1.26767e-07
0.00336457
-1.03918e-09
-8.72372e-08
0.00336438
-4.87965e-08
1.33953e-07
0.00336451
-2.34076e-08
-5.91913e-08
0.00336448
-1.07547e-07
-2.08181e-08
0.00336444
7.52137e-08
1.44221e-07
0.00336459
-1.88427e-07
-2.64806e-07
0.00336436
1.29539e-07
2.98727e-07
-1.18639e-07
-2.577e-07
0.00305834
1.2781e-07
1.31887e-07
0.00305855
-2.0933e-07
-5.57339e-08
0.00305839
9.87147e-08
-5.1235e-08
0.00305851
-1.44936e-07
5.48079e-08
0.00305845
1.46221e-07
-1.3554e-07
0.00305847
-7.32345e-08
1.10688e-07
0.00305849
3.15225e-08
-1.38293e-07
0.0030585
2.02053e-07
5.10903e-08
0.00305845
-2.17475e-07
-7.30671e-08
0.00305847
5.26346e-07
5.99434e-08
0.00305847
-3.3074e-07
-9.72826e-08
0.00305847
4.13039e-07
1.16877e-07
0.00305848
-8.07063e-08
-8.86808e-10
0.00305843
1.68152e-07
-5.22615e-08
0.00305846
1.20258e-07
2.37408e-07
0.00305841
-1.43261e-08
-2.62452e-07
0.00305849
2.11861e-07
3.37943e-07
0.00305841
-6.82608e-08
-1.43997e-07
0.00305847
1.02579e-07
8.46372e-08
0.00305839
1.93804e-07
9.15828e-08
0.00305846
-1.989e-07
-2.08083e-08
0.00305842
2.69372e-07
1.01173e-07
0.00305841
-1.03498e-07
3.39922e-08
0.00305845
4.76683e-08
4.22786e-08
0.00305839
9.25931e-08
6.0308e-08
0.00305841
-5.6976e-08
7.67827e-08
0.00305844
3.40039e-08
-6.07468e-08
0.00305837
-8.59182e-08
1.90236e-07
0.00305846
3.56133e-08
-1.0559e-07
0.00305836
-1.30626e-07
1.92807e-07
0.00305849
-2.01968e-08
-1.16913e-07
0.00305836
-7.09145e-08
1.75904e-07
0.00305851
-6.05537e-08
-1.21693e-07
0.00305836
-4.18918e-08
1.72708e-07
0.00305845
-4.19449e-08
-9.0795e-08
0.00305844
-1.31278e-07
4.26821e-09
0.00305841
8.94121e-08
1.41741e-07
0.00305853
-2.67398e-07
-2.88762e-07
0.00305834
2.33e-07
3.36079e-07
-2.31935e-07
-2.9921e-07
0.00278017
2.12619e-07
1.36414e-07
0.00278033
-3.04957e-07
-5.73851e-08
0.00278021
1.60999e-07
-6.68505e-08
0.0027803
-1.87695e-07
7.2326e-08
0.00278025
2.10256e-07
-1.49491e-07
0.00278028
-7.15772e-08
1.08934e-07
0.00278027
9.09232e-08
-1.33329e-07
0.00278033
1.54088e-07
4.52143e-08
0.00278021
-8.0594e-08
-7.20353e-08
0.00278031
4.68349e-07
6.42838e-08
0.00278021
-2.15817e-07
-9.19424e-08
0.0027803
3.79656e-07
1.22002e-07
0.00278025
-3.6713e-08
1.40502e-08
0.00278024
2.08654e-07
-3.11442e-08
0.00278024
1.13487e-07
2.2966e-07
0.00278021
5.32571e-08
-2.3918e-07
0.00278028
1.65975e-07
3.45712e-07
0.00278021
-8.92034e-09
-1.50236e-07
0.00278025
4.70403e-08
1.23723e-07
0.00278021
2.65791e-07
7.11382e-08
0.00278022
-2.44487e-07
2.27031e-08
0.00278024
3.04866e-07
6.77992e-08
0.0027802
-1.30005e-07
1.01372e-07
0.00278024
3.95069e-08
-3.33075e-09
0.00278019
1.06341e-07
1.17902e-07
0.0027802
-5.18974e-08
4.42574e-08
0.00278024
-1.84916e-08
-2.52889e-08
0.00278015
-4.98841e-08
1.95181e-07
0.00278027
-6.79659e-08
-1.20434e-07
0.00278013
-8.72076e-08
2.37519e-07
0.0027803
-1.14511e-07
-1.3705e-07
0.00278015
-4.17539e-08
2.12162e-07
0.00278031
-1.4939e-07
-1.46197e-07
0.00278015
-1.74277e-08
2.1068e-07
0.00278027
-9.21375e-08
-1.25775e-07
0.0027802
-1.173e-07
4.94052e-08
0.00278026
4.69058e-08
1.06958e-07
0.00278028
-2.88979e-07
-2.71279e-07
0.00278018
2.84326e-07
3.34561e-07
-2.95548e-07
-3.17048e-07
0.00252731
2.43057e-07
1.26836e-07
0.0025274
-3.47298e-07
-5.38656e-08
0.00252735
1.64571e-07
-7.55906e-08
0.00252738
-1.80162e-07
7.85035e-08
0.00252738
2.39656e-07
-1.4487e-07
0.00252736
-2.58921e-08
9.96965e-08
0.00252739
1.33684e-07
-1.2267e-07
0.00252744
1.08279e-07
4.35141e-08
0.0025273
7.21967e-08
-7.1144e-08
0.00252743
3.85193e-07
8.02466e-08
0.00252729
-5.45648e-08
-9.59446e-08
0.00252742
3.06638e-07
1.48277e-07
0.00252734
3.06464e-08
2.06877e-08
0.00252735
2.28533e-07
6.56236e-09
0.00252734
1.1544e-07
2.13008e-07
0.00252732
1.19204e-07
-2.02064e-07
0.00252737
1.25315e-07
3.46546e-07
0.00252733
2.54654e-08
-1.45403e-07
0.00252734
6.25277e-09
1.67439e-07
0.00252733
3.06438e-07
5.21247e-08
0.00252729
-2.5509e-07
6.338e-08
0.00252736
3.07969e-07
5.32611e-08
0.00252729
-1.47538e-07
1.54442e-07
0.00252735
9.94901e-09
-2.28412e-08
0.00252728
1.26853e-07
1.63055e-07
0.00252731
-5.79393e-08
1.86178e-08
0.00252733
-5.60355e-08
2.01338e-08
0.00252727
-4.93799e-08
1.84586e-07
0.00252736
-1.62159e-07
-1.04792e-07
0.00252726
-7.6301e-08
2.51382e-07
0.00252738
-1.92762e-07
-1.23796e-07
0.00252728
-4.49699e-08
2.21457e-07
0.0025274
-2.26716e-07
-1.38887e-07
0.00252725
-6.26519e-09
2.2159e-07
0.00252738
-1.5977e-07
-1.34865e-07
0.00252728
-6.85732e-08
8.77214e-08
0.00252741
-4.91315e-08
6.8584e-08
0.00252734
-2.56765e-07
-2.27164e-07
0.00252733
2.70877e-07
3.02501e-07
-2.92277e-07
-3.06385e-07
0.00229743
2.49345e-07
1.11519e-07
0.00229748
-3.67814e-07
-4.61023e-08
0.00229749
1.22466e-07
-7.26119e-08
0.00229747
-1.38346e-07
8.0036e-08
0.00229751
2.36366e-07
-1.29004e-07
0.00229744
6.99088e-08
9.40035e-08
0.00229752
1.4024e-07
-1.07859e-07
0.00229753
9.59217e-08
4.58267e-08
0.00229742
1.84892e-07
-6.35915e-08
0.00229753
3.21595e-07
1.02834e-07
0.0022974
9.98573e-08
-9.78159e-08
0.00229752
2.32256e-07
1.86819e-07
0.00229745
8.23687e-08
3.47807e-08
0.00229745
2.43119e-07
5.14882e-08
0.00229744
1.09154e-07
1.97925e-07
0.00229742
1.88955e-07
-1.56464e-07
0.00229747
8.47401e-08
3.47453e-07
0.00229744
3.63541e-08
-1.31445e-07
0.00229743
-3.84027e-08
2.14217e-07
0.00229745
3.23198e-07
4.00973e-08
0.00229738
-2.50162e-07
1.05858e-07
0.00229748
2.96852e-07
5.79434e-08
0.0022974
-1.77461e-07
1.96074e-07
0.00229745
-3.53231e-08
-2.14474e-08
0.00229739
1.36519e-07
1.97334e-07
0.00229741
-6.66004e-08
8.8779e-09
0.00229742
-8.68573e-08
6.15171e-08
0.00229739
-8.92132e-08
1.80305e-07
0.00229744
-2.52688e-07
-8.14302e-08
0.00229739
-1.1331e-07
2.64293e-07
0.00229746
-2.42212e-07
-1.02115e-07
0.00229743
-1.02456e-07
2.29323e-07
0.00229748
-2.76501e-07
-1.13696e-07
0.00229739
-5.36949e-08
2.20503e-07
0.00229748
-2.09704e-07
-1.16512e-07
0.00229739
-3.69707e-08
1.05619e-07
0.00229753
-1.4945e-07
5.17536e-08
0.00229744
-2.22432e-07
-1.85514e-07
0.00229745
2.31481e-07
2.67769e-07
-2.65907e-07
-2.8375e-07
0.00208845
2.65733e-07
1.02925e-07
0.0020885
-4.03426e-07
-3.6263e-08
0.00208852
6.43499e-08
-5.50552e-08
0.00208849
-1.13389e-07
7.81926e-08
0.00208854
2.26918e-07
-9.40078e-08
0.00208844
1.9281e-07
8.96758e-08
0.00208855
1.32602e-07
-8.6395e-08
0.00208854
9.15657e-08
6.08066e-08
0.00208846
2.45192e-07
-4.70009e-08
0.00208852
2.7726e-07
1.31906e-07
0.00208842
2.29353e-07
-9.20418e-08
0.00208852
1.73236e-07
2.35696e-07
0.00208848
9.06119e-08
6.26984e-08
0.00208846
2.50499e-07
9.86619e-08
0.00208846
6.89285e-08
1.95571e-07
0.00208843
2.75309e-07
-1.04056e-07
0.00208847
3.13817e-08
3.54245e-07
0.00208847
2.58449e-08
-1.05489e-07
0.00208845
-1.15601e-07
2.68426e-07
0.00208847
3.27198e-07
3.73538e-08
0.0020884
-2.52922e-07
1.56693e-07
0.00208849
2.88882e-07
8.17647e-08
0.00208843
-2.47005e-07
2.41638e-07
0.00208846
-9.77888e-08
-7.54098e-09
0.00208842
1.13694e-07
2.32323e-07
0.00208841
-6.47183e-08
1.11638e-08
0.00208843
-1.30249e-07
1.06825e-07
0.00208841
-1.58617e-07
1.86096e-07
0.00208845
-3.77993e-07
-5.12935e-08
0.00208842
-1.91006e-07
2.82796e-07
0.00208846
-2.84873e-07
-7.56495e-08
0.00208846
-1.91187e-07
2.51804e-07
0.00208848
-3.24843e-07
-8.38795e-08
0.00208843
-1.69282e-07
2.28079e-07
0.00208848
-2.54227e-07
-8.85016e-08
0.00208842
-3.24175e-08
1.2745e-07
0.00208854
-2.33255e-07
4.82419e-08
0.00208847
-2.23479e-07
-1.40915e-07
0.00208847
1.83304e-07
2.39794e-07
-2.59932e-07
-2.57332e-07
0.00189846
2.9442e-07
9.72827e-08
0.00189853
-4.58512e-07
-1.39131e-08
0.00189855
-1.07698e-08
-2.15371e-08
0.00189854
-1.51337e-07
8.56159e-08
0.00189856
2.17974e-07
-3.77878e-08
0.00189847
3.18006e-07
9.3821e-08
0.00189857
1.45355e-07
-5.53318e-08
0.00189856
6.29051e-08
8.69193e-08
0.0018985
2.47486e-07
-1.57576e-08
0.00189853
2.14438e-07
1.69348e-07
0.00189845
3.39524e-07
-7.06421e-08
0.00189853
1.14763e-07
3.0185e-07
0.00189851
5.15114e-08
1.16025e-07
0.00189848
2.11671e-07
1.49687e-07
0.00189849
-1.06407e-08
2.08643e-07
0.00189845
3.67545e-07
-4.20542e-08
0.00189849
-2.97113e-08
3.75399e-07
0.00189849
-1.29393e-08
-6.77782e-08
0.00189848
-2.61479e-07
3.33889e-07
0.00189849
3.09711e-07
4.95963e-08
0.00189842
-2.75795e-07
2.19122e-07
0.0018985
3.00844e-07
1.26027e-07
0.00189847
-3.79486e-07
3.01144e-07
0.00189848
-2.05514e-07
2.36901e-08
0.00189846
3.08871e-08
2.798e-07
0.00189842
-4.12841e-08
2.23249e-08
0.00189846
-1.92688e-07
1.65192e-07
0.00189843
-2.59015e-07
2.0649e-07
0.00189848
-5.80614e-07
-1.0382e-08
0.00189845
-3.10249e-07
3.08601e-07
0.00189849
-3.4806e-07
-3.58027e-08
0.00189849
-2.8914e-07
2.90448e-07
0.00189851
-4.1342e-07
-4.39108e-08
0.00189847
-3.539e-07
2.5007e-07
0.0018985
-3.29632e-07
-5.27934e-08
0.00189845
-4.24377e-08
1.59828e-07
0.00189856
-3.0847e-07
5.56691e-08
0.00189851
-2.65166e-07
-8.16953e-08
0.0018985
9.49431e-08
2.18213e-07
-2.92327e-07
-2.18655e-07
0.00172576
3.21971e-07
9.72882e-08
0.00172583
-5.06402e-07
3.14065e-08
0.00172586
-1.35235e-07
3.01271e-08
0.00172586
-2.88747e-07
1.14046e-07
0.00172586
1.78361e-07
2.98602e-08
0.00172577
4.54395e-07
1.17696e-07
0.00172586
1.84404e-07
-4.20869e-09
0.00172587
-2.04412e-08
1.40147e-07
0.00172581
1.43108e-07
4.44372e-08
0.00172582
9.76315e-08
2.2092e-07
0.00172575
4.301e-07
-2.92032e-08
0.00172583
5.27286e-08
3.88256e-07
0.00172581
-4.40687e-08
1.97912e-07
0.00172579
6.78985e-08
2.10984e-07
0.00172579
-1.35917e-07
2.43263e-07
0.00172575
4.6456e-07
2.44938e-08
0.00172577
-7.18328e-08
4.1724e-07
0.00172581
-1.03355e-07
-1.40826e-08
0.00172579
-5.09634e-07
4.15168e-07
0.0017258
2.36645e-07
8.69714e-08
0.00172572
-3.13848e-07
2.9741e-07
0.00172579
3.35767e-07
1.96925e-07
0.00172578
-5.86854e-07
3.82225e-07
0.00172579
-4.08449e-07
6.82512e-08
0.00172577
-1.32569e-07
3.44292e-07
0.00172571
2.70575e-09
4.98654e-08
0.00172575
-2.6275e-07
2.42364e-07
0.00172572
-4.08927e-07
2.46236e-07
0.0017258
-9.25106e-07
6.27513e-08
0.00172575
-4.97534e-07
3.44146e-07
0.0017258
-4.41948e-07
2.2173e-08
0.00172579
-3.68451e-07
3.45872e-07
0.00172582
-5.77584e-07
1.47326e-08
0.00172579
-6.41314e-07
2.88284e-07
0.00172581
-4.8945e-07
2.99227e-09
0.00172575
-4.68383e-08
2.07507e-07
0.00172587
-3.71249e-07
8.03506e-08
0.00172582
-3.44011e-07
-1.2186e-08
0.00172582
-8.5851e-08
2.10078e-07
-3.83409e-07
-1.61182e-07
0.00156877
3.48249e-07
1.14148e-07
0.00156883
-5.22946e-07
1.18491e-07
0.00156889
-3.58341e-07
1.07809e-07
0.00156889
-5.80519e-07
1.69345e-07
0.00156887
6.44497e-08
1.0244e-07
0.00156877
6.28571e-07
1.71076e-07
0.00156885
2.68593e-07
6.78335e-08
0.00156887
-1.7554e-07
2.26264e-07
0.00156884
-1.4435e-07
1.25564e-07
0.00156882
-1.16469e-07
2.8818e-07
0.00156876
5.22348e-07
2.74419e-08
0.00156882
8.07445e-09
5.14159e-07
0.00156882
-2.19959e-07
3.11883e-07
0.00156882
-2.47959e-07
2.85195e-07
0.00156879
-3.37801e-07
2.92865e-07
0.00156876
5.75723e-07
1.01097e-07
0.00156875
-6.23698e-08
4.87586e-07
0.00156882
-2.90206e-07
7.58321e-08
0.0015688
-9.16412e-07
5.10763e-07
0.00156882
5.34942e-08
1.48198e-07
0.00156872
-3.43288e-07
3.95277e-07
0.00156878
4.08899e-07
3.04939e-07
0.00156878
-8.84675e-07
4.92539e-07
0.00156881
-7.85374e-07
1.23233e-07
0.00156879
-4.08248e-07
4.22904e-07
0.00156871
7.66118e-08
9.53753e-08
0.00156874
-3.06404e-07
3.48853e-07
0.00156872
-6.46257e-07
3.13314e-07
0.00156882
-1.4683e-06
1.46939e-07
0.00156876
-8.07364e-07
3.88039e-07
0.00156882
-5.30748e-07
9.38713e-08
0.00156878
-4.09704e-07
4.25884e-07
0.00156883
-8.55129e-07
1.11986e-07
0.0015688
-1.1001e-06
3.43512e-07
0.00156883
-7.72658e-07
5.95256e-08
0.00156876
-3.03705e-08
2.72168e-07
0.00156887
-4.01082e-07
1.36794e-07
0.00156882
-4.95095e-07
9.41465e-08
0.00156884
-4.49419e-07
2.19688e-07
-5.71745e-07
-9.05226e-08
0.00142606
4.02082e-07
1.52908e-07
0.0014261
-4.73001e-07
2.55028e-07
0.0014262
-7.33538e-07
2.25263e-07
0.00142621
-1.11211e-06
2.44591e-07
0.00142617
-1.81917e-07
1.81247e-07
0.00142605
8.81164e-07
2.55828e-07
0.00142612
4.21094e-07
1.91535e-07
0.00142615
-4.38064e-07
3.61607e-07
0.00142615
-7.22096e-07
2.20943e-07
0.00142611
-4.84477e-07
3.5774e-07
0.00142605
6.36055e-07
9.86278e-08
0.00142609
2.15517e-08
6.91495e-07
0.00142611
-5.22469e-07
4.69458e-07
0.00142613
-8.32762e-07
3.6749e-07
0.00142608
-6.74197e-07
3.42571e-07
0.00142605
7.37606e-07
2.01163e-07
0.001426
3.25172e-08
6.06399e-07
0.00142612
-6.01344e-07
2.04847e-07
0.0014261
-1.5752e-06
6.15916e-07
0.00142612
-2.83442e-07
2.2251e-07
0.001426
-3.2859e-07
5.15145e-07
0.00142605
5.5228e-07
4.67067e-07
0.00142607
-1.30597e-06
6.40454e-07
0.00142613
-1.43206e-06
1.84394e-07
0.00142609
-8.38765e-07
5.00023e-07
0.00142599
2.09322e-07
1.62373e-07
0.001426
-2.76945e-07
4.98826e-07
0.00142601
-1.02144e-06
4.207e-07
0.00142612
-2.29794e-06
2.40696e-07
0.00142607
-1.30457e-06
4.27955e-07
0.0014261
-5.7313e-07
1.935e-07
0.00142605
-3.83074e-07
5.52388e-07
0.00142613
-1.29172e-06
2.54841e-07
0.00142611
-1.84015e-06
4.12e-07
0.00142614
-1.22388e-06
1.15332e-07
0.00142604
4.36993e-08
3.54134e-07
0.00142615
-3.47947e-07
2.37805e-07
0.00142612
-7.56287e-07
2.33568e-07
0.00142616
-1.09636e-06
2.5324e-07
-9.23454e-07
-1.67858e-08
0.00129634
5.36533e-07
2.11821e-07
0.00129639
-3.35208e-07
4.95389e-07
0.00129655
-1.34687e-06
4.40203e-07
0.00129656
-2.00467e-06
3.31526e-07
0.00129647
-5.9315e-07
2.14317e-07
0.0012963
1.26736e-06
3.64364e-07
0.0012964
6.59341e-07
4.22242e-07
0.00129649
-9.00808e-07
6.00515e-07
0.00129652
-1.72773e-06
3.28194e-07
0.00129641
-1.04264e-06
3.85211e-07
0.00129634
8.14891e-07
1.85409e-07
0.00129638
1.316e-07
9.69626e-07
0.00129646
-1.0254e-06
7.14037e-07
0.00129649
-1.79999e-06
4.46796e-07
0.00129639
-1.17745e-06
3.36305e-07
0.00129632
1.02894e-06
3.04281e-07
0.00129628
2.34389e-07
8.2982e-07
0.00129646
-1.11351e-06
4.30108e-07
0.00129645
-2.62196e-06
7.25841e-07
0.00129643
-7.87909e-07
2.47998e-07
0.00129627
-2.02857e-07
6.44187e-07
0.00129634
7.92807e-07
7.39092e-07
0.00129641
-1.94005e-06
8.79184e-07
0.00129651
-2.46977e-06
2.4261e-07
0.0012964
-1.45384e-06
5.18574e-07
0.00129625
4.72197e-07
2.33371e-07
0.00129627
-1.39897e-07
7.53936e-07
0.00129634
-1.62921e-06
6.34373e-07
0.00129648
-3.54213e-06
3.36575e-07
0.0012964
-2.01161e-06
4.10742e-07
0.00129638
-4.96819e-07
3.04702e-07
0.00129633
-2.7133e-07
7.85948e-07
0.00129647
-1.97114e-06
5.02199e-07
0.00129647
-3.0005e-06
4.86415e-07
0.00129646
-1.87628e-06
1.18481e-07
0.00129632
2.37078e-07
4.38526e-07
0.00129643
-1.71079e-07
4.3695e-07
0.00129645
-1.21503e-06
4.70639e-07
0.00129652
-2.1714e-06
3.08372e-07
-1.49618e-06
1.05769e-08
0.00117847
7.22444e-07
2.4291e-07
0.00117862
-2.05313e-07
9.89237e-07
0.0011789
-2.27967e-06
9.29241e-07
0.00117885
-3.33041e-06
4.24897e-07
0.0011786
-1.20038e-06
5.41119e-08
0.00117839
1.73718e-06
4.24887e-07
0.00117861
8.68836e-07
9.2472e-07
0.00117882
-1.70794e-06
1.12705e-06
0.00117884
-3.24489e-06
4.51614e-07
0.00117858
-1.81495e-06
2.22652e-07
0.00117849
1.02735e-06
2.32239e-07
0.00117861
2.67962e-07
1.47541e-06
0.0011788
-1.83294e-06
1.21218e-06
0.00117879
-3.22008e-06
5.13634e-07
0.00117856
-1.86723e-06
1.20226e-07
0.00117844
1.44495e-06
3.40666e-07
0.00117849
4.51318e-07
1.31e-06
0.0011788
-1.93735e-06
9.44555e-07
0.00117875
-4.11375e-06
8.31399e-07
0.00117859
-1.45666e-06
5.4956e-08
0.00117838
1.2535e-08
7.14247e-07
0.00117855
1.04335e-06
1.26445e-06
0.00117876
-2.90747e-06
1.3931e-06
0.00117884
-3.95094e-06
3.07073e-07
0.00117857
-2.22654e-06
3.10245e-07
0.00117836
8.71962e-07
2.30448e-07
0.00117847
1.53298e-08
1.26859e-06
0.00117868
-2.60436e-06
1.15485e-06
0.00117881
-5.28144e-06
4.45172e-07
0.0011786
-2.92955e-06
1.87795e-07
0.00117849
-2.94653e-07
3.63827e-07
0.00117854
-1.63366e-07
1.2901e-06
0.0011788
-2.98542e-06
1.04742e-06
0.00117879
-4.67463e-06
5.74603e-07
0.00117863
-2.721e-06
-9.41429e-08
0.00117843
5.35788e-07
4.49629e-07
0.00117863
7.2282e-08
8.81877e-07
0.00117878
-2.00735e-06
1.00745e-06
0.00117882
-3.77632e-06
4.01599e-07
-2.29577e-06
-1.62451e-07
0.00107139
6.28429e-07
1.79825e-07
0.00107172
-3.57933e-07
2.01831e-06
0.00107203
-3.47552e-06
1.94656e-06
0.00107185
-4.89578e-06
4.11229e-07
0.0010714
-2.02947e-06
-7.13463e-07
0.00107125
1.88231e-06
3.32537e-07
0.00107168
7.2501e-07
2.00366e-06
0.00107198
-2.85555e-06
2.2277e-06
0.00107188
-5.06247e-06
4.95554e-07
0.00107146
-2.83242e-06
-4.73717e-07
0.00107146
9.28183e-07
1.55607e-07
0.00107171
1.63861e-07
2.46043e-06
0.00107195
-2.88162e-06
2.21774e-06
0.0010718
-4.87135e-06
4.31262e-07
0.00107141
-2.77052e-06
-7.0822e-07
0.00107135
1.61209e-06
2.05119e-07
0.00107159
3.89122e-07
2.34513e-06
0.00107196
-2.99728e-06
2.06398e-06
0.00107174
-5.82566e-06
8.05709e-07
0.00107143
-2.30104e-06
-7.82612e-07
0.00107125
-2.06269e-08
6.09976e-07
0.00107162
1.00728e-06
2.32864e-06
0.00107194
-4.15617e-06
2.45568e-06
0.0010719
-5.60061e-06
2.55124e-07
0.00107143
-3.11905e-06
-5.10399e-07
0.00107126
1.07199e-06
5.41014e-08
0.00107156
-1.15009e-07
2.33547e-06
0.00107186
-3.86926e-06
2.27616e-06
0.00107187
-7.25385e-06
4.40363e-07
0.00107149
-3.99506e-06
-6.14717e-07
0.00107135
-2.72533e-07
2.67907e-07
0.00107159
-3.33317e-07
2.34491e-06
0.00107195
-4.28482e-06
2.16761e-06
0.00107182
-6.61438e-06
5.36214e-07
0.00107148
-3.71438e-06
-9.05907e-07
0.00107132
5.88753e-07
2.75514e-07
0.00107168
9.27496e-08
1.86975e-06
0.00107191
-3.12227e-06
2.14205e-06
0.00107185
-5.68258e-06
4.11194e-07
-3.33179e-06
-8.55698e-07
0.00097379
-2.60326e-07
1.32077e-07
0.000974063
-8.42794e-07
3.80861e-06
0.000974043
-4.26798e-06
3.32816e-06
0.00097375
-6.18919e-06
-2.37555e-07
0.000973492
-3.37847e-06
-2.44518e-06
0.000973651
1.0327e-06
2.0234e-07
0.00097405
1.35511e-07
3.90979e-06
0.00097402
-3.728e-06
3.76417e-06
0.000973784
-6.58177e-06
-8.86528e-08
0.000973558
-4.25351e-06
-2.09402e-06
0.000973895
-2.84918e-08
2.93956e-08
0.000974087
-2.69583e-07
4.14443e-06
0.000974011
-3.57269e-06
3.57363e-06
0.000973677
-6.19119e-06
-3.4163e-07
0.000973494
-4.11123e-06
-2.51251e-06
0.000973795
8.87322e-07
7.69948e-10
0.00097402
-4.18173e-08
4.17642e-06
0.000974077
-3.64733e-06
3.65663e-06
0.000973626
-7.14091e-06
3.01605e-08
0.000973516
-3.55972e-06
-2.61669e-06
0.000973615
-8.4338e-07
4.02492e-07
0.000973976
5.9457e-07
4.16514e-06
0.000974007
-5.02072e-06
3.88901e-06
0.000973856
-6.83028e-06
-4.52216e-07
0.000973604
-4.33039e-06
-2.31853e-06
0.000973763
4.12508e-07
-1.83583e-07
0.000974074
-6.29341e-07
4.19142e-06
0.000974009
-4.76977e-06
3.84976e-06
0.000973834
-8.77053e-06
-2.58205e-07
0.000973626
-5.32841e-06
-2.39071e-06
0.000973679
-9.76297e-07
9.3748e-08
0.00097392
-8.37715e-07
4.15861e-06
0.000974003
-5.15329e-06
3.67355e-06
0.000973718
-8.17636e-06
-2.36775e-07
0.000973554
-5.0309e-06
-2.67613e-06
0.000973733
-2.45389e-07
-2.01574e-08
0.000974067
-2.59159e-07
3.67305e-06
0.000973957
-3.94292e-06
3.74284e-06
0.000973766
-7.27233e-06
-2.36284e-07
-4.76706e-06
-2.44571e-06
0.000883621
-1.58352e-06
6.22508e-07
0.000883085
-9.24302e-07
6.08407e-06
0.000882394
-4.04764e-06
4.00095e-06
0.000882511
-7.11996e-06
-2.32608e-06
0.000883174
-5.36787e-06
-4.98174e-06
0.000883557
-5.28183e-07
6.50374e-07
0.000883156
-1.45114e-07
6.37216e-06
0.000882308
-3.62812e-06
4.66034e-06
0.000882398
-7.59327e-06
-2.15963e-06
0.000883052
-6.07556e-06
-4.49158e-06
0.000883726
-1.46537e-06
3.01787e-07
0.000883206
-3.33337e-07
6.29302e-06
0.000882428
-3.3183e-06
4.20264e-06
0.000882378
-7.0095e-06
-2.60872e-06
0.000883104
-5.91782e-06
-5.13816e-06
0.000883817
-4.7099e-07
2.75188e-07
0.000883317
-9.89837e-08
6.56018e-06
0.000882637
-3.27145e-06
4.5672e-06
0.000882373
-7.84349e-06
-2.35388e-06
0.000883165
-5.26677e-06
-5.26308e-06
0.000883481
-2.06372e-06
6.50861e-07
0.000883139
4.99433e-07
6.49359e-06
0.000882476
-4.82838e-06
4.53699e-06
0.000882721
-7.4929e-06
-2.71301e-06
0.000883471
-5.97246e-06
-4.9715e-06
0.000883989
-9.01514e-07
7.31704e-08
0.000883591
-7.80085e-07
6.57304e-06
0.000882648
-4.62789e-06
4.70172e-06
0.00088265
-9.51371e-06
-2.53255e-06
0.000883309
-6.93255e-06
-4.97369e-06
0.000883507
-2.07389e-06
3.69159e-07
0.000883083
-9.45702e-07
6.43565e-06
0.000882436
-4.97699e-06
4.43199e-06
0.00088243
-9.13339e-06
-2.59705e-06
0.000883197
-6.7735e-06
-5.22313e-06
0.000883752
-1.71524e-06
1.25677e-07
0.000883305
-3.00954e-07
6.11222e-06
0.000882327
-3.80198e-06
4.68977e-06
0.000882483
-8.30996e-06
-2.41382e-06
-6.59916e-06
-4.7752e-06
0.000797563
-1.54626e-06
2.24119e-06
0.000795735
-8.68251e-08
7.65811e-06
0.00079515
-3.75277e-06
2.61824e-06
0.000796499
-8.25494e-06
-5.75149e-06
0.000797939
-6.80165e-06
-6.7774e-06
0.000797521
-8.53106e-07
2.36725e-06
0.000795816
5.50894e-07
8.17e-06
0.000794808
-3.37547e-06
3.47416e-06
0.000796172
-8.62422e-06
-5.59515e-06
0.000797647
-7.15641e-06
-6.26338e-06
0.000797774
-1.53857e-06
1.55221e-06
0.000796073
5.66676e-07
7.82025e-06
0.000795262
-2.98965e-06
2.72759e-06
0.000796397
-7.8622e-06
-6.11433e-06
0.000798022
-6.99888e-06
-7.09023e-06
0.000798234
-5.49261e-07
1.70226e-06
0.000796459
8.68765e-07
8.3111e-06
0.00079568
-2.79219e-06
3.24602e-06
0.000796477
-8.48183e-06
-6.066e-06
0.000798144
-6.21924e-06
-7.12899e-06
0.000797751
-1.80486e-06
2.02161e-06
0.000796325
1.29342e-06
8.04357e-06
0.000795609
-4.40826e-06
2.94073e-06
0.000797162
-8.18991e-06
-6.31336e-06
0.000798864
-6.91751e-06
-6.93465e-06
0.000798802
-1.01712e-06
1.46251e-06
0.000797087
9.01869e-08
8.33647e-06
0.000795828
-4.21082e-06
3.37877e-06
0.000796846
-1.00602e-05
-6.04283e-06
0.000798261
-7.74267e-06
-6.7549e-06
0.00079772
-1.86516e-06
1.78651e-06
0.000796177
-1.29866e-07
8.04429e-06
0.000795354
-4.57459e-06
2.96416e-06
0.000796512
-1.00432e-05
-6.2223e-06
0.000798149
-7.83301e-06
-7.02467e-06
0.000798073
-1.92144e-06
1.51076e-06
0.000796198
6.03704e-07
8.08801e-06
0.00079499
-3.6058e-06
3.50768e-06
0.000796384
-9.31643e-06
-5.88362e-06
-7.63108e-06
-6.3507e-06
0.000711794
3.85213e-07
4.39875e-06
0.000709903
-1.02729e-07
6.76164e-06
0.000711027
-5.11862e-06
-7.95931e-07
0.00071317
-8.85446e-06
-8.1515e-06
0.000713684
-5.28685e-06
-5.59309e-06
0.000711639
8.95907e-07
4.77985e-06
0.000709908
5.49664e-07
7.45259e-06
0.000710431
-4.71396e-06
8.82007e-08
0.000712993
-9.06271e-06
-8.15097e-06
0.000713661
-5.36149e-06
-5.33674e-06
0.000712371
4.46393e-07
3.44719e-06
0.000710515
8.05509e-07
7.09563e-06
0.00071128
-4.27627e-06
-9.05147e-07
0.000713547
-8.11846e-06
-8.52498e-06
0.00071454
-5.24054e-06
-6.12935e-06
0.000713232
1.54175e-06
3.94609e-06
0.000711201
1.16529e-06
7.62279e-06
0.000711889
-3.99517e-06
-3.72094e-07
0.000713738
-8.48962e-06
-8.63475e-06
0.000714872
-4.35495e-06
-5.99227e-06
0.000713024
3.90745e-07
4.10983e-06
0.000711701
1.31289e-06
6.99094e-06
0.000712367
-5.49339e-06
-7.33224e-07
0.000715036
-8.33054e-06
-8.85885e-06
0.000715985
-5.08435e-06
-6.04486e-06
0.000714356