/*--------------------------------*- C++ -*----------------------------------*\
  =========                 |
  \\      /  F ield         | OpenFOAM: The Open Source CFD Toolbox
   \\    /   O peration     | Website:  https://openfoam.org
    \\  /    A nd           | Version:  10
     \\/     M anipulation  |
\*---------------------------------------------------------------------------*/
FoamFile
{
    format      ascii;
    class       surfaceScalarField;
    location    "15";
    object      phi;
}
// * * * * * * * * * * * * * * * * * * * * * * * * * * * * * * * * * * * * * //

dimensions      [0 3 -1 0 0 0 0];

internalField   nonuniform List<scalar> 
74080
(
0.00494175
-1.49548e-06
5.81009e-07
0.00494251
-3.67841e-06
2.89632e-07
0.0049433
4.72147e-07
-1.46011e-06
0.0049411
-4.14939e-06
2.44557e-06
0.00494458
-2.17209e-06
-2.18511e-06
0.00494216
-7.69015e-07
3.65987e-06
0.00494404
-3.2804e-06
1.3482e-07
0.00494209
1.18353e-06
1.84516e-06
0.00494304
-1.94905e-06
1.55449e-06
0.00494357
8.29342e-07
9.66979e-07
0.00494045
-7.32917e-08
3.61585e-06
0.00494333
1.81284e-06
-6.11979e-07
0.00494101
-1.64089e-08
1.99105e-06
0.00494173
2.3439e-07
3.1812e-06
0.0049415
2.40693e-06
3.20493e-07
0.0049416
-2.83166e-06
1.33211e-06
0.00494165
2.73886e-06
3.18828e-06
0.00494112
-2.97049e-07
-4.62641e-08
0.00494274
-1.61746e-06
1.48467e-06
0.00494037
2.06848e-06
2.96794e-06
0.00494277
-1.31934e-06
-1.82848e-06
0.0049425
-5.60723e-07
3.61585e-06
0.00494102
2.92943e-06
5.93026e-07
0.00494405
-2.97567e-06
-2.48343e-06
0.00494054
2.051e-06
5.12593e-06
0.00494342
1.80066e-06
-3.27904e-06
0.00494232
-2.65065e-06
1.38788e-06
0.00494161
4.44706e-06
3.94132e-07
0.00494421
-1.41777e-06
-2.35913e-06
0.00493958
2.08305e-06
2.52378e-06
0.00494453
1.51206e-06
-3.95397e-06
0.00494129
-4.08349e-07
1.14061e-06
0.00494108
3.29904e-06
-2.65668e-06
0.00494329
-1.53426e-06
1.21062e-06
0.00494065
2.14406e-06
-2.61405e-06
0.00494235
6.72174e-07
-1.86626e-06
0.00494099
-2.38578e-06
2.74387e-06
0.00494293
1.42032e-06
-5.2301e-06
0.00494095
-1.548e-06
3.07614e-06
-1.67947e-06
-3.33424e-06
0.00449181
-1.65277e-06
3.81343e-07
0.00449272
-3.82871e-06
-1.77256e-07
0.00449393
-7.99484e-07
-1.08192e-06
0.00449174
-2.72242e-06
2.58348e-06
0.00449458
-4.22095e-06
-2.25354e-06
0.00449379
2.68372e-07
3.29171e-06
0.00449367
-4.24414e-06
1.92883e-06
0.00449357
2.27687e-06
-6.28105e-07
0.00449375
-2.50374e-06
4.56292e-06
0.0044939
2.40307e-07
-3.99281e-07
0.00449136
2.73798e-06
3.03562e-06
0.00449364
-4.53649e-07
1.48743e-06
0.00449158
2.0527e-06
-5.24377e-08
0.00449137
2.82702e-07
5.20445e-06
0.00449312
1.63287e-06
-1.41875e-06
0.00449086
-1.09101e-06
3.80444e-06
0.00449221
1.70485e-06
2.66425e-06
0.00449238
1.91865e-07
1.71319e-07
0.0044921
-1.75779e-06
3.39652e-06
0.00449177
2.29518e-06
1.39827e-06
0.00449318
-2.34554e-06
-7.80311e-08
0.00449236
-4.3202e-07
2.50443e-06
0.00449266
2.47751e-06
1.11558e-06
0.0044936
-3.61821e-06
-2.26054e-06
0.0044911
3.26116e-06
4.16088e-06
0.00449484
-8.63841e-07
-3.15629e-06
0.00449185
-3.49223e-07
1.3997e-06
0.00449284
3.05989e-06
4.42655e-08
0.0044943
-1.88323e-06
-3.17427e-06
0.00449033
4.61939e-06
3.22679e-06
0.00449476
-2.02129e-06
-4.90172e-06
0.00449188
2.65567e-06
1.22874e-06
0.00449149
2.60427e-06
-2.38384e-06
0.00449319
-2.16277e-06
-1.31339e-07
0.0044914
3.61456e-06
-1.09087e-06
0.00449207
-6.77865e-07
-3.01714e-06
0.00449164
-8.39866e-07
2.71171e-06
0.00449244
-2.2734e-07
-3.49276e-06
0.00449152
-2.74508e-07
1.00082e-06
-2.70116e-06
-1.56857e-06
0.00408282
-1.67017e-06
-5.70004e-08
0.00408399
-4.2342e-06
-6.7063e-07
0.00408523
-1.81952e-06
-3.23285e-07
0.00408313
-1.41481e-06
2.0912e-06
0.00408589
-5.96168e-06
-1.73047e-06
0.00408605
2.39111e-07
3.51161e-06
0.00408419
-3.79066e-06
3.08486e-06
0.00408644
1.54733e-06
-1.57149e-06
0.0040851
-2.19775e-06
6.67773e-06
0.00408488
2.78076e-07
-1.60796e-06
0.00408365
4.13926e-06
3.06684e-06
0.00408452
-1.54578e-06
2.64527e-06
0.00408305
3.63946e-06
-9.49608e-07
0.0040825
5.43214e-07
6.1219e-06
0.00408486
3.85262e-07
-1.87616e-06
0.00408156
1.66423e-06
5.62975e-06
0.00408407
-4.11509e-07
2.22037e-06
0.00408353
1.39461e-06
1.18456e-06
0.00408287
-1.6572e-06
4.30096e-06
0.00408392
1.00205e-06
1.04531e-06
0.00408399
-2.05926e-06
1.47012e-06
0.00408399
-1.47486e-06
1.55218e-06
0.00408433
2.2602e-06
1.2141e-06
0.00408441
-3.96599e-06
-1.25596e-06
0.00408324
3.3389e-06
2.73124e-06
0.00408586
-2.42461e-06
-2.92948e-06
0.00408338
9.47988e-07
1.67877e-06
0.00408441
2.01706e-06
-7.37043e-07
0.004085
-2.13719e-06
-2.85196e-06
0.004083
5.60109e-06
2.53684e-06
0.00408483
-3.4923e-06
-4.84283e-06
0.00408364
3.90429e-06
8.84402e-07
0.00408307
2.20033e-06
-2.28118e-06
0.00408358
-2.04141e-06
-1.0344e-06
0.00408322
3.75975e-06
-4.95046e-07
0.0040828
-1.06317e-06
-3.13262e-06
0.00408307
-1.46754e-08
2.07408e-06
0.00408292
-1.10839e-06
-1.84303e-06
0.00408294
2.64538e-07
-6.19639e-07
-3.33411e-06
-9.29924e-08
0.00371124
-1.91384e-06
-5.68235e-07
0.00371271
-4.75166e-06
-1.12672e-06
0.00371311
-1.91511e-06
6.56814e-07
0.00371205
-7.59949e-07
9.91015e-07
0.00371462
-7.49785e-06
-6.5902e-07
0.0037144
2.15976e-07
3.98923e-06
0.00371295
-3.33624e-06
3.12978e-06
0.00371575
-5.53183e-08
-3.35432e-07
0.00371357
-1.30499e-06
7.17448e-06
0.00371349
2.68445e-07
-2.00004e-06
0.00371275
4.72647e-06
3.80529e-06
0.00371272
-1.62267e-06
2.14799e-06
0.00371147
4.62528e-06
-2.45876e-07
0.0037111
1.03505e-06
5.71094e-06
0.00371295
-6.10968e-07
-1.30336e-06
0.00371043
3.72894e-06
7.02464e-06
0.00371248
-2.00611e-06
1.65563e-06
0.00371149
2.87635e-06
2.61937e-06
0.0037116
-2.15649e-06
4.81006e-06
0.00371221
-8.20386e-08
1.09991e-06
0.00371254
-2.12092e-06
2.62501e-06
0.00371271
-2.90081e-06
8.91647e-07
0.00371282
2.38582e-06
1.06725e-06
0.00371281
-4.61405e-06
-5.78866e-09
0.00371229
2.9118e-06
8.55578e-07
0.00371402
-3.38752e-06
-2.14176e-06
0.00371247
1.22041e-06
1.5033e-06
0.00371276
1.79982e-06
-1.43366e-06
0.0037133
-2.92412e-06
-2.10772e-06
0.00371262
5.71458e-06
1.11994e-06
0.00371206
-3.25178e-06
-4.13104e-06
0.00371277
3.39827e-06
-1.42769e-07
0.00371165
2.53965e-06
-2.18067e-06
0.0037114
-1.7728e-06
-1.36976e-06
0.00371202
3.13595e-06
-9.28439e-07
0.00371093
-7.6214e-07
-2.48899e-06
0.0037115
2.35094e-07
1.36886e-06
0.00371087
-1.41497e-06
-8.31905e-07
0.00371153
1.25348e-07
-1.34102e-06
-3.88811e-06
1.04251e-06
0.00337413
-2.88012e-06
-1.10275e-06
0.00337491
-4.659e-06
-9.63805e-07
0.00337469
-1.16884e-06
9.83318e-07
0.00337526
-1.12915e-06
1.10705e-07
0.00337635
-7.85245e-06
9.0427e-07
0.00337673
-4.09607e-07
4.41811e-06
0.003376
-3.21199e-06
3.29158e-06
0.00337796
-1.5179e-06
2.03271e-06
0.00337619
-6.71688e-07
6.36767e-06
0.00337575
4.48079e-07
-1.31426e-06
0.00337555
4.59036e-06
4.39756e-06
0.00337479
-1.05773e-06
8.21794e-07
0.00337362
5.42842e-06
1.05376e-06
0.0033735
1.66244e-06
4.512e-06
0.00337482
-1.43796e-06
1.03005e-07
0.0033734
4.92962e-06
7.99096e-06
0.00337399
-2.10748e-06
1.23637e-06
0.00337383
3.37998e-06
4.38735e-06
0.0033737
-2.27817e-06
5.21564e-06
0.00337412
-1.01702e-06
1.00724e-06
0.00337529
-3.13906e-06
3.64737e-06
0.00337477
-3.7165e-06
3.70989e-07
0.00337559
1.79874e-06
8.92464e-07
0.0033747
-4.78161e-06
1.14518e-06
0.00337503
1.98985e-06
-1.04682e-06
0.00337629
-4.21805e-06
-1.18836e-06
0.00337485
1.35013e-06
1.02597e-06
0.00337518
1.56401e-06
-1.8511e-06
0.00337571
-4.14316e-06
-1.35268e-06
0.0033752
5.77348e-06
-3.5751e-07
0.00337405
-2.85809e-06
-3.42419e-06
0.00337526
2.29379e-06
-1.13871e-06
0.00337405
3.21386e-06
-2.17136e-06
0.00337348
-1.55926e-06
-1.47095e-06
0.00337417
2.52158e-06
-2.01217e-06
0.00337329
-6.97228e-07
-1.26246e-06
0.00337349
3.64063e-07
7.25179e-07
0.00337295
-1.57223e-06
-3.48534e-07
0.00337371
-2.94574e-07
-7.842e-07
-4.22971e-06
1.20218e-06
0.00306797
-4.46942e-06
-1.05864e-06
0.00306735
-3.29207e-06
-6.478e-07
0.00306771
-3.37808e-07
5.76555e-07
0.00306865
-1.38905e-06
-1.7231e-07
0.0030684
-7.30733e-06
2.34526e-06
0.00307028
-2.28718e-06
4.85444e-06
0.00306946
-2.85138e-06
3.93211e-06
0.00307082
-2.80197e-06
4.06648e-06
0.00306954
-4.73704e-07
5.49927e-06
0.00306884
6.77084e-07
-1.95314e-07
0.00306916
3.75346e-06
4.39984e-06
0.00306725
1.66209e-07
-6.36536e-07
0.00306641
5.90003e-06
2.19746e-06
0.00306681
1.9626e-06
3.33129e-06
0.00306753
-2.11263e-06
1.67072e-06
0.00306668
5.71417e-06
8.37716e-06
0.00306658
-1.4109e-06
1.0296e-06
0.00306675
3.45426e-06
6.33173e-06
0.00306607
-1.75623e-06
5.50256e-06
0.00306718
-2.60029e-06
9.2066e-07
0.0030684
-4.5038e-06
4.91768e-06
0.00306779
-4.29081e-06
-2.44762e-07
0.00306901
7.04411e-07
8.23356e-07
0.00306701
-4.2197e-06
1.81206e-06
0.00306873
6.53082e-08
-2.54953e-06
0.00306944
-4.8699e-06
-4.85451e-07
0.00306749
1.91708e-06
4.19234e-07
0.00306877
5.18724e-07
-2.20292e-06
0.00306863
-5.10683e-06
-7.56921e-07
0.00306819
5.63224e-06
-1.56e-06
0.00306742
-3.01638e-06
-3.25162e-06
0.003068
1.7371e-06
-1.97816e-06
0.00306744
3.50908e-06
-2.27807e-06
0.00306619
-8.10434e-07
-1.76018e-06
0.00306708
1.70949e-06
-3.13308e-06
0.00306651
-1.09621e-06
2.0978e-07
0.00306602
8.92775e-07
-1.62871e-07
0.00306619
-1.99606e-06
2.29918e-07
0.00306622
-2.68305e-07
1.81056e-07
-4.86207e-06
2.49895e-07
0.00278948
-6.31029e-06
-4.44588e-07
0.0027881
-8.54519e-07
-8.08947e-07
0.00278875
9.80413e-07
-3.37687e-07
0.00278919
-7.19109e-07
1.31588e-07
0.00278873
-6.66016e-06
3.21653e-06
0.00279173
-5.14838e-06
5.91767e-06
0.00279071
-2.08851e-06
4.94423e-06
0.00279159
-3.78698e-06
5.61426e-06
0.00279056
-5.07693e-07
5.09863e-06
0.00279018
4.93545e-07
5.82318e-07
0.00279049
2.56575e-06
3.93768e-06
0.00278757
2.02065e-06
-2.07726e-06
0.00278731
5.95667e-06
2.61347e-06
0.00278819
1.79017e-06
2.4198e-06
0.0027878
-2.12882e-06
2.96122e-06
0.00278796
5.66917e-06
8.19688e-06
0.00278756
-2.90483e-07
1.37521e-06
0.00278701
4.09987e-06
7.96023e-06
0.0027865
-1.14561e-06
5.42596e-06
0.00278801
-4.6115e-06
1.03906e-06
0.00278925
-6.15815e-06
6.02434e-06
0.00278929
-5.1109e-06
-9.09748e-07
0.00278988
-3.84118e-08
9.42953e-07
0.00278732
-3.2186e-06
1.97857e-06
0.00279038
-2.82811e-06
-3.70263e-06
0.00279025
-5.16227e-06
-1.16848e-07
0.00278801
2.7806e-06
-1.74449e-07
0.00279042
-1.47416e-06
-2.40293e-06
0.00278923
-5.51378e-06
-2.37638e-07
0.00278919
4.94409e-06
-2.73353e-06
0.00278875
-3.68211e-06
-3.34345e-06
0.00278871
1.74931e-06
-2.50637e-06
0.00278873
3.76895e-06
-2.69784e-06
0.00278677
4.27973e-07
-2.21576e-06
0.00278799
2.86929e-07
-3.80146e-06
0.00278748
-1.6607e-06
1.33403e-06
0.00278697
1.07973e-06
-7.54318e-07
0.00278717
-2.5757e-06
1.55465e-06
0.00278653
-2.13615e-07
1.00692e-06
-6.55701e-06
-7.42733e-07
0.00253656
-8.65453e-06
4.80045e-07
0.00253463
2.88495e-06
-1.43132e-06
0.00253489
3.92193e-06
-1.6408e-06
0.00253475
1.08177e-06
5.78716e-07
0.00253459
-6.17852e-06
3.47285e-06
0.00253832
-8.53652e-06
7.28982e-06
0.00253726
-8.43474e-07
5.56999e-06
0.00253754
-4.0743e-06
6.49557e-06
0.00253707
-8.79479e-07
5.04e-06
0.00253718
-8.1476e-08
8.00467e-07
0.0025367
1.62089e-06
2.98921e-06
0.00253343
4.09133e-06
-3.84536e-06
0.00253381
5.6539e-06
2.28699e-06
0.00253464
1.50222e-06
1.96459e-06
0.00253348
-1.61686e-06
3.39783e-06
0.00253498
4.50656e-06
7.4646e-06
0.00253388
1.4931e-06
2.01448e-06
0.00253234
5.78834e-06
9.02828e-06
0.00253252
-9.1373e-07
5.38537e-06
0.00253388
-6.63596e-06
1.31557e-06
0.00253568
-8.28009e-06
6.72501e-06
0.00253632
-5.90996e-06
-1.41384e-06
0.0025356
2.5425e-07
1.12284e-06
0.00253326
-2.30315e-06
1.72449e-06
0.00253729
-6.38747e-06
-4.20966e-06
0.0025363
-5.18596e-06
1.41115e-07
0.00253417
3.832e-06
-1.00089e-06
0.00253702
-3.62469e-06
-2.43779e-06
0.00253512
-5.55472e-06
3.51013e-07
0.00253572
3.57044e-06
-4.01203e-06
0.00253545
-4.88175e-06
-3.72404e-06
0.00253499
2.38827e-06
-2.94562e-06
0.00253499
4.74644e-06
-3.38019e-06
0.00253288
1.54515e-06
-2.67827e-06
0.0025341
-1.60154e-06
-4.1325e-06
0.00253378
-2.6572e-06
1.92471e-06
0.00253353
8.657e-07
-7.97526e-07
0.00253329
-2.86773e-06
3.00067e-06
0.00253246
-6.86836e-07
1.4454e-06
-9.28834e-06
-1.38112e-06
0.00230718
-1.19029e-05
1.42409e-06
0.00230435
8.78117e-06
-2.64158e-06
0.00230386
9.25579e-06
-3.40031e-06
0.00230285
4.61458e-06
6.88835e-07
0.00230354
-6.17435e-06
3.6456e-06
0.00230804
-1.23239e-05
9.13554e-06
0.00230672
1.43393e-06
5.87188e-06
0.00230625
-3.13947e-06
7.12981e-06
0.00230668
-1.70198e-06
5.10056e-06
0.00230707
-1.01701e-06
5.86208e-07
0.00230566
1.02804e-06
1.59658e-06
0.00230289
5.89132e-06
-5.94272e-06
0.00230339
5.40469e-06
1.40324e-06
0.00230356
1.56567e-06
1.53378e-06
0.00230262
-1.37826e-06
2.77598e-06
0.00230521
2.32435e-06
6.40254e-06
0.00230302
4.36551e-06
2.56009e-06
0.00230085
8.38258e-06
9.40794e-06
0.00230149
-7.87514e-07
5.233e-06
0.00230249
-8.5095e-06
1.52416e-06
0.00230557
-1.12336e-05
7.06201e-06
0.00230638
-6.37412e-06
-1.42012e-06
0.00230414
1.92617e-06
1.31731e-06
0.00230251
-1.7512e-06
1.14399e-06
0.00230685
-1.0058e-05
-4.26348e-06
0.00230532
-4.84621e-06
-7.95941e-09
0.00230361
5.08607e-06
-2.10455e-06
0.00230624
-5.37551e-06
-2.0469e-06
0.00230415
-5.6264e-06
9.49294e-07
0.00230527
1.57871e-06
-5.48456e-06
0.00230527
-6.84865e-06
-3.92705e-06
0.00230442
3.88983e-06
-3.28063e-06
0.00230417
6.68239e-06
-4.38181e-06
0.00230189
2.30279e-06
-2.90709e-06
0.00230303
-4.076e-06
-4.3816e-06
0.00230342
-5.01489e-06
2.44657e-06
0.00230306
8.09093e-07
-7.50757e-08
0.00230251
-2.87083e-06
4.12617e-06
0.0023011
-2.07164e-06
1.8774e-06
-1.39084e-05
-1.52799e-06
0.00209895
-1.5878e-05
2.50826e-06
0.00209521
1.76642e-05
-4.35183e-06
0.0020935
1.81954e-05
-5.76127e-06
0.00209144
1.04266e-05
3.21742e-07
0.00209346
-7.14029e-06
3.64673e-06
0.0020985
-1.62306e-05
1.05019e-05
0.0020968
5.18127e-06
5.77742e-06
0.00209589
-1.03273e-06
7.56815e-06
0.00209718
-2.90951e-06
5.37974e-06
0.00209746
-1.96264e-06
2.95667e-07
0.00209546
5.17003e-07
-4.16888e-07
0.00209355
7.34917e-06
-8.38207e-06
0.00209346
5.92936e-06
3.61705e-07
0.00209325
1.59452e-06
1.18879e-06
0.00209325
-2.09202e-06
1.14865e-06
0.00209621
-4.6423e-07
4.75729e-06
0.00209298
8.33055e-06
2.68288e-06
0.00209059
1.16675e-05
9.53656e-06
0.00209107
-2.95915e-07
5.1322e-06
0.00209208
-1.04753e-05
1.22165e-06
0.00209676
-1.51808e-05
7.45512e-06
0.00209714
-5.46747e-06
-9.50687e-07
0.00209348
5.18929e-06
1.33509e-06
0.00209269
-1.51796e-06
4.97897e-07
0.00209712
-1.36136e-05
-3.88408e-06
0.00209563
-4.36104e-06
-2.54736e-07
0.00209391
7.10816e-06
-3.46295e-06
0.00209584
-6.11514e-06
-1.15036e-06
0.00209429
-5.99675e-06
1.57881e-06
0.00209581
-1.09717e-06
-7.14347e-06
0.0020959
-9.62862e-06
-4.063e-06
0.00209491
6.29512e-06
-3.73795e-06
0.00209414
9.85017e-06
-5.34771e-06
0.00209141
2.89419e-06
-3.09743e-06
0.00209308
-8.14706e-06
-4.91616e-06
0.00209402
-8.96317e-06
2.99566e-06
0.00209344
1.16183e-06
1.01878e-06
0.00209261
-2.54327e-06
4.75917e-06
0.00209053
-5.16861e-06
2.65729e-06
-2.19728e-05
-1.11197e-06
0.00191014
-2.06726e-05
3.77258e-06
0.00190554
3.00481e-05
-6.84616e-06
0.00190177
3.21926e-05
-9.26828e-06
0.0018987
1.8849e-05
-6.55915e-07
0.00190251
-9.43244e-06
3.94021e-06
0.0019077
-1.96482e-05
1.17899e-05
0.00190559
1.07454e-05
5.75241e-06
0.00190419
2.38706e-06
8.00136e-06
0.00190599
-4.31611e-06
5.86431e-06
0.00190627
-3.06923e-06
-3.35783e-07
0.00190435
-2.18142e-07
-2.93328e-06
0.00190316
8.99577e-06
-1.06941e-05
0.00190211
7.35036e-06
-7.85321e-07
0.001902
1.15592e-06
8.28884e-08
0.00190324
-4.2987e-06
-1.46681e-06
0.00190604
-3.54798e-06
2.4496e-06
0.00190209
1.3251e-05
2.33822e-06
0.00189954
1.5834e-05
9.45478e-06
0.00189942
1.18116e-06
4.42733e-06
0.00190105
-1.31759e-05
3.34775e-07
0.00190736
-1.99812e-05
8.2699e-06
0.00190693
-2.60225e-06
-2.1762e-07
0.0019023
9.91932e-06
9.27048e-07
0.00190208
-1.22535e-06
-7.29653e-07
0.00190623
-1.63787e-05
-3.60676e-06
0.00190524
-3.39549e-06
-5.93301e-07
0.00190301
1.0225e-05
-4.83911e-06
0.00190434
-6.78169e-06
2.37068e-07
0.00190355
-6.75339e-06
2.00437e-06
0.00190513
-4.47237e-06
-8.64854e-06
0.00190556
-1.36483e-05
-3.67382e-06
0.00190471
9.37024e-06
-4.28708e-06
0.00190291
1.45058e-05
-6.392e-06
0.00189996
2.94196e-06
-4.01279e-06
0.00190271
-1.53422e-05
-6.00181e-06
0.00190366
-1.48346e-05
3.67889e-06
0.00190277
2.57818e-06
1.53264e-06
0.00190137
-1.25437e-06
4.47432e-06
0.00189931
-1.12158e-05
3.19137e-06
-3.50832e-05
-4.16117e-07
0.00173926
-2.62241e-05
5.67839e-06
0.00173337
4.73949e-05
-9.94481e-06
0.00172754
5.15117e-05
-1.38465e-05
0.00172411
2.90812e-05
-2.91198e-06
0.00172898
-1.34956e-05
4.58357e-06
0.00173331
-2.2191e-05
1.36731e-05
0.00173078
1.80505e-05
6.39774e-06
0.00172932
6.22972e-06
8.51945e-06
0.00173156
-6.63665e-06
6.83291e-06
0.00173185
-5.41263e-06
-2.26347e-07
0.00173009
-1.06119e-06
-5.43191e-06
0.00172921
1.15094e-05
-1.2497e-05
0.00172843
8.92796e-06
-2.214e-06
0.00172949
-1.8945e-06
-1.43231e-06
0.00173166
-8.61637e-06
-5.05459e-06
0.00173332
-5.36466e-06
-1.23495e-06
0.00172861
1.97036e-05
1.65814e-06
0.00172631
2.08583e-05
9.18879e-06
0.00172604
3.33887e-06
2.67964e-06
0.00172859
-1.7024e-05
-6.7826e-07
0.00173573
-2.44773e-05
1.03868e-05
0.00173476
2.66408e-06
1.43727e-06
0.00173014
1.53031e-05
-2.69083e-08
0.00172978
-7.42046e-07
-2.67172e-06
0.00173337
-1.80269e-05
-3.65575e-06
0.00173253
-1.42659e-06
-4.17716e-07
0.00172933
1.40751e-05
-5.58051e-06
0.00173056
-8.71624e-06
2.14197e-06
0.00173052
-7.83203e-06
2.12786e-06
0.00173223
-8.60507e-06
-1.00571e-05
0.00173284
-1.90594e-05
-2.73948e-06
0.00173211
1.28287e-05
-4.19604e-06
0.00173019
1.90811e-05
-7.29723e-06
0.0017284
3.12634e-07
-6.38041e-06
0.00173209
-2.70128e-05
-8.40722e-06
0.00173154
-2.23463e-05
4.00883e-06
0.00172954
6.25377e-06
6.88482e-07
0.00172822
1.06914e-06
1.82239e-06
0.00172746
-2.18493e-05
1.69288e-06
-5.43776e-05
3.88529e-07
0.00158486
-3.56084e-05
1.20176e-05
0.00157732
6.6136e-05
-1.0987e-05
0.00157097
7.42662e-05
-2.01572e-05
0.00156804
3.94408e-05
-7.76202e-06
0.00157202
-1.82865e-05
6.27747e-06
0.00157347
-2.3218e-05
1.84591e-05
0.00157046
2.70911e-05
7.22853e-06
0.00157032
9.36378e-06
7.26291e-06
0.00157341
-1.22235e-05
8.25081e-06
0.0015733
-1.20871e-05
4.07377e-06
0.0015704
-4.01738e-06
-3.45997e-06
0.00156996
1.28679e-05
-1.18345e-05
0.00157282
6.86083e-06
-4.06788e-06
0.0015776
-1.04851e-05
-4.2462e-06
0.00157935
-1.58899e-05
-7.93338e-06
0.00157675
-5.08713e-06
-4.02921e-06
0.00157108
2.88387e-05
-4.37668e-07
0.00157124
2.55613e-05
6.29676e-06
0.00157196
5.044e-06
-7.4594e-07
0.00157324
-2.01026e-05
-5.04674e-07
0.00157928
-2.58515e-05
1.52867e-05
0.00158069
8.97929e-06
4.26654e-06
0.00157866
1.8756e-05
-1.7021e-06
0.00157643
-5.41212e-07
-4.41812e-06
0.00157738
-1.83773e-05
-2.3051e-06
0.00157589
1.94454e-07
2.8831e-06
0.00157223
1.63377e-05
-4.68536e-06
0.00157355
-1.10183e-05
1.22396e-06
0.00157496
-9.05542e-06
1.76349e-08
0.00157797
-1.5052e-05
-9.96784e-06
0.00157788
-2.61319e-05
1.52632e-06
0.00157742
1.49752e-05
-1.7702e-06
0.00157836
2.00979e-05
-7.9265e-06
0.00158037
-7.9375e-06
-9.34599e-06
0.00158381
-4.32663e-05
-1.04073e-05
0.00157913
-3.14459e-05
6.14498e-06
0.00157546
1.12497e-05
3.37834e-07
0.00157511
3.81854e-06
-3.40567e-06
0.00157535
-3.53597e-05
-3.84111e-06
-7.88687e-05
1.70228e-06
0.00144301
-5.1159e-05
2.47501e-05
0.00143619
7.66506e-05
-4.55438e-06
0.00143264
9.34616e-05
-2.61415e-05
0.00143091
4.87287e-05
-1.48167e-05
0.00143092
-2.1913e-05
7.63317e-06
0.0014274
-2.31867e-05
2.72693e-05
0.00142557
3.41008e-05
1.04409e-05
0.0014294
1.16394e-05
2.21944e-06
0.00143229
-1.87722e-05
7.27998e-06
0.00142884
-2.34309e-05
1.31921e-05
0.00142218
-1.15246e-05
4.48258e-06
0.00142287
8.1358e-06
-7.96419e-06
0.00143398
-4.49723e-06
-4.92632e-06
0.0014456
-2.64551e-05
-5.81398e-06
0.00144558
-2.63259e-05
-6.75824e-06
0.00143551
-2.80418e-06
-4.49802e-06
0.00142902
3.77724e-05
-3.52153e-06
0.0014346
2.64043e-05
7.7405e-07
0.00143637
4.71188e-06
-5.91711e-06
0.00143211
-1.80539e-05
-1.16059e-06
0.0014346
-2.2152e-05
2.13218e-05
0.00144257
1.28392e-05
9.3005e-06
0.00144573
1.97993e-05
-2.61836e-06
0.00143986
8.9177e-07
-3.86406e-06
0.00143596
-1.74737e-05
1.31896e-06
0.00143421
-2.05698e-06
9.19295e-06
0.00143104
1.38746e-05
7.32148e-07
0.0014313
-1.14336e-05
-7.44906e-07
0.00143536
-1.01129e-05
-4.65865e-06
0.00144094
-2.36397e-05
-1.00933e-05
0.00143906
-3.40363e-05
8.83295e-06
0.00143902
1.49438e-05
5.73517e-06
0.00144559
1.62787e-05
-5.95431e-06
0.00145314
-1.92804e-05
-1.05551e-05
0.00145452
-5.64549e-05
-1.05676e-05
0.00144505
-3.95758e-05
1.26347e-05
0.00144163
1.32442e-05
6.76922e-06
0.00144309
5.96239e-06
-6.59747e-06
0.00144044
-4.32634e-05
-1.24714e-05
-9.97868e-05
1.96682e-06
0.00130983
-6.55073e-05
3.0651e-05
0.00130742
7.56669e-05
4.41226e-06
0.00130919
0.000102925
-2.5647e-05
0.00130842
5.40566e-05
-1.67644e-05
0.00130378
-2.14183e-05
6.90613e-06
0.00129757
-2.10317e-05
3.21e-05
0.00129951
3.51552e-05
1.47833e-05
0.00130744
1.3497e-05
-2.38959e-06
0.00130796
-1.88582e-05
3.05695e-06
0.00129965
-3.076e-05
1.81508e-05
0.00128894
-2.00215e-05
1.13684e-05
0.00128888
-7.29634e-07
-5.3928e-06
0.00130538
-2.01769e-05
-7.43897e-06
0.0013222
-4.2166e-05
-9.17394e-06
0.00132148
-3.49598e-05
-4.69142e-06
0.00130738
-1.05019e-07
-2.51221e-06
0.00130274
4.13791e-05
-3.9317e-06
0.00131363
2.0191e-05
-1.76273e-06
0.00131523
3.96451e-06
-1.0766e-05
0.00130399
-1.0333e-05
-3.67914e-06
0.00130174
-1.59126e-05
2.31273e-05
0.00131521
1.29069e-05
1.11189e-05
0.0013227
1.97182e-05
-4.42224e-06
0.00131328
5.9991e-06
-4.14432e-06
0.00130619
-1.52607e-05
4.84582e-06
0.00130575
-8.06438e-06
1.28023e-05
0.00130364
5.29838e-06
8.84819e-06
0.0013017
-1.18028e-05
5.94897e-07
0.00130659
-8.64434e-06
-1.19124e-05
0.00131465
-3.04546e-05
-1.41238e-05
0.00131263
-3.98804e-05
1.13079e-05
0.00131285
1.3113e-05
1.27473e-05
0.00132245
9.95814e-06
-1.31418e-06
0.00133235
-2.82873e-05
-8.60238e-06
0.00132946
-5.99946e-05
-7.26806e-06
0.00131622
-4.05632e-05
1.95523e-05
0.00131623
1.36035e-05
1.53318e-05
0.00132307
7.59544e-06
-4.42278e-06
0.00131659
-4.57021e-05
-1.56258e-05
-0.000111704
1.75105e-07
0.00118659
-6.89534e-05
2.14435e-05
0.00118925
7.52347e-05
3.70837e-06
0.00119367
0.000103896
-1.92818e-05
0.0011909
5.36252e-05
-9.58211e-06
0.00118362
-1.9084e-05
9.98932e-06
0.00118005
-1.59212e-05
3.23213e-05
0.00118709
3.53721e-05
1.5984e-05
0.00119629
1.76128e-05
-3.73851e-06
0.00119409
-1.18904e-05
2.05246e-06
0.00118432
-3.01602e-05
1.80535e-05
0.00117326
-2.09969e-05
7.52246e-06
0.00117107
-3.78165e-06
-1.0768e-05
0.00118605
-2.89322e-05
-1.32337e-05
0.00120257
-4.84638e-05
-1.38195e-05
0.0012014
-3.56692e-05
-4.47069e-06
0.00118828
1.8779e-06
-1.28341e-06
0.00118807
3.43961e-05
-1.8669e-06
0.00120228
6.81229e-06
-1.0568e-06
0.00120318
4.71916e-06
-1.30405e-05
0.00118831
9.89813e-07
-6.91361e-06
0.00118349
-8.60682e-06
1.88272e-05
0.00119881
1.22631e-05
6.21604e-06
0.00120742
1.9997e-05
-1.08709e-05
0.00119548
1.54965e-05
-1.18086e-05
0.00118718
-1.02148e-05
3.14193e-06
0.00118786
-1.42317e-05
1.21199e-05
0.00118648
-3.31255e-06
1.08391e-05
0.00118345
-1.31229e-05
1.31413e-06
0.00118798
-5.12064e-06
-1.87132e-05
0.0011963
-3.34487e-05
-2.06424e-05
0.00119558
-4.26649e-05
4.4354e-06
0.00119781
1.26307e-05
1.08695e-05
0.0012089
2.95635e-06
4.9048e-07
0.00121749
-3.40445e-05
-7.54143e-06
0.0012081
-5.56824e-05
-5.35892e-06
0.0011906
-3.28633e-05
1.85728e-05
0.00119338
1.92025e-05
1.58865e-05
0.00120669
8.46849e-06
-6.88176e-07
0.00120063
-4.97985e-05
-1.2033e-05
-0.000117899
-3.85253e-06
0.00107553
-6.23505e-05
7.06246e-06
0.00108298
7.4662e-05
1.39555e-06
0.00108676
9.69379e-05
-9.58177e-06
0.00107816
4.83599e-05
1.45305e-06
0.00106845
-1.5834e-05
1.61506e-05
0.0010695
-7.29204e-06
3.05319e-05
0.00108137
3.62176e-05
1.59064e-05
0.00108952
1.99622e-05
1.95296e-06
0.0010844
-4.31224e-06
8.93837e-06
0.0010751
-2.36943e-05
1.69663e-05
0.00106682
-1.19196e-05
-3.95203e-06
0.00106524
2.03392e-06
-2.03355e-05
0.00107746
-2.98069e-05
-1.6619e-05
0.001091
-4.56433e-05
-1.43809e-05
0.00108905
-2.79034e-05
-3.91341e-06
0.00107885
3.44887e-06
-1.38426e-06
0.00108233
1.92483e-05
4.89357e-07
0.00109634
-7.92539e-06
-8.6019e-07
0.00109605
9.97615e-06
-1.5567e-05
0.00108122
1.78845e-05
-1.26633e-05
0.00107772
4.47092e-06
7.63094e-06
0.00109362
1.32997e-05
-1.62972e-06
0.00110135
2.13264e-05
-1.9925e-05
0.00108813
2.84026e-05
-2.31544e-05
0.00107983
-2.49083e-06
-1.48195e-06
0.00108055
-1.91131e-05
9.29811e-06
0.00107804
-8.96056e-06
8.9168e-06
0.00107565
-1.31236e-05
-1.55463e-06
0.00108067
2.82183e-07
-2.35099e-05
0.00108585
-3.10047e-05
-2.41941e-05
0.0010843
-3.91441e-05
-5.45548e-06
0.0010897
1.51184e-05
4.53504e-06
0.00110299
-4.56312e-06
-9.51093e-07
0.00110854
-3.50995e-05
-9.16018e-06
0.00109324
-4.28331e-05
-8.73153e-06
0.00107468
-1.65827e-05
6.96841e-06
0.00108087
2.84439e-05
1.07509e-05
0.00109769
7.60157e-06
4.50435e-06
0.00109241
-5.515e-05
-8.32214e-06
-0.000116994
-1.332e-05
0.000976657
-5.12652e-05
-1.90225e-06
0.000986112
7.18388e-05
2.04415e-06
0.000988257
8.25441e-05
6.52068e-07
0.000974331
4.01406e-05
1.08866e-05
0.000963464
-1.11593e-05
2.05009e-05
0.000968326
1.93146e-06
2.75903e-05
0.000982655
3.18418e-05
1.77335e-05
0.000988763
1.5463e-05
1.13418e-05
0.000981795
6.18836e-07
1.68264e-05
0.00097407
-1.35141e-05
1.46744e-05
0.000969124
4.68617e-06
-1.49161e-05
0.000968913
1.30484e-05
-2.59946e-05
0.000977701
-2.65698e-05
-1.46286e-05
0.000986778
-3.71262e-05
-1.0838e-05
0.000985048
-1.47205e-05
-3.27275e-06
0.00097997
4.37987e-06
-1.126e-06
0.00098577
2.25711e-06
1.0558e-06
0.000996353
-1.38821e-05
-7.23811e-06
0.000994029
2.62468e-05
-2.27115e-05
0.000981879
4.13062e-05
-1.73166e-05
0.000983205
1.75022e-05
2.54147e-06
0.000999669
8.02099e-06
-5.29502e-07
0.00100476
1.96305e-05
-2.23756e-05
0.000990085
4.1859e-05
-2.87104e-05
0.000982466
3.40116e-06
-8.33897e-07
0.000982764
-2.66773e-05
1.08107e-05
0.000977929
-1.44311e-05
9.30944e-06
0.00097756
-1.08709e-05
-7.08329e-06
0.000984423
4.19885e-06
-2.43693e-05
0.000985855
-2.73574e-05
-2.02521e-05
0.000981622
-2.82391e-05
-1.12504e-05
0.000988311
1.84583e-05
1.09182e-06
0.00100228
-1.30422e-05
-2.36339e-06
0.00100398
-3.0562e-05
-1.05369e-05
0.000986323
-2.12787e-05
-1.53771e-05
0.000971342
4.69532e-06
-8.31593e-06
0.000981535
3.64849e-05
6.32575e-06
0.000998995
2.97346e-06
1.16503e-05
0.000994405
-6.01044e-05
-5.95231e-06
-0.000109805
-2.24178e-05
0.000887469
-3.78131e-05
-7.7052e-06
0.000897192
6.27166e-05
5.27794e-06
0.000896808
6.3674e-05
7.84857e-06
0.000879576
3.45585e-05
1.59475e-05
0.000869982
-3.55066e-06
2.02837e-05
0.000878139
5.02093e-06
2.57206e-05
0.000892224
1.69112e-05
2.18375e-05
0.000895439
3.79141e-06
1.82828e-05
0.000888115
3.47778e-06
1.90904e-05
0.000882797
-7.7585e-08
9.54338e-06
0.000881295
2.42077e-05
-1.87065e-05
0.000881786
2.22808e-05
-2.19266e-05
0.000885685
-2.22559e-05
-1.00596e-05
0.000889467
-2.33204e-05
-9.16347e-06
0.000889025
1.83339e-06
-4.42051e-06
0.000890184
5.85992e-07
1.87078e-06
0.000897263
-1.25939e-05
-1.23734e-08
0.00090263
-2.68293e-06
-1.8749e-05
0.000897866
5.41809e-05
-2.71575e-05
0.000890742
6.08747e-05
-9.83062e-06
0.000899233
1.61657e-05
1.40339e-05
0.000915449
-8.00872e-06
9.33162e-06
0.000916658
1.71143e-05
-2.23316e-05
0.000901529
5.5239e-05
-3.06459e-05
0.000894514
7.42469e-06
1.8038e-06
0.00089239
-3.50165e-05
1.37976e-05
0.000885064
-1.7729e-05
8.65973e-06
0.00088778
-7.59889e-06
-1.21027e-05
0.000896329
2.56406e-06
-2.05799e-05
0.00089452
-2.43968e-05
-1.33338e-05
0.000888774
-1.42095e-05
-1.07709e-05
0.00089613
1.79335e-05
1.94224e-06
0.000908073
-2.28301e-05
-1.85496e-06
0.00090531
-1.96598e-05
-1.13575e-05
0.000888733
8.2905e-06
-2.47212e-05
0.000880128
2.90069e-05
-2.1596e-05
0.000893366
4.05185e-05
5.141e-06
0.000908822
-5.39586e-06
1.85306e-05
0.000904053
-6.45402e-05
-4.56827e-06
-9.70486e-05
-2.97901e-05
0.000806484
-2.85332e-05
-7.75796e-06
0.000815897
4.30548e-05
9.74725e-06
0.000810889
4.48873e-05
1.36699e-05
0.000792359
3.80328e-05
1.69276e-05
0.000786302
5.37402e-06
1.93541e-05
0.000796767
-3.62298e-06
2.83478e-05
0.000808257
-8.52994e-06
2.53434e-05
0.000808491
-1.23425e-05
1.9052e-05
0.000802512
5.11695e-06
1.64513e-05
0.000800725
1.52188e-05
3.38873e-06
0.000802855
4.04139e-05
-1.6132e-05
0.000802341
2.44443e-05
-1.37757e-05
0.000800435
-1.78236e-05
-7.81755e-06
0.000800486
-5.26474e-06
-1.10701e-05
0.000802447
1.7149e-05
-6.18813e-06
0.000807208
-8.02463e-06
6.13824e-06
0.000812103
-1.60225e-05
-4.9114e-06
0.000811982
2.50116e-05
-2.69121e-05
0.000807873
8.23665e-05
-2.22841e-05
0.00080912
6.73102e-05
4.55292e-06
0.000822174
4.76704e-06
2.55893e-05
0.000833252
-1.44705e-05
4.05024e-06
0.000831103
2.61299e-05
-3.38396e-05
0.000819296
6.90275e-05
-3.44624e-05
0.000813072
1.28693e-05
9.26033e-07
0.000806631
-3.56595e-05
1.12961e-05
0.00079875
-1.29114e-05
4.86423e-07
0.00080546
-5.56435e-06
-1.60666e-05
0.000813312
-3.98047e-06
-1.58552e-05
0.000808701
-1.69299e-05
-1.19799e-05
0.00080504
1.62902e-06
-9.38672e-06
0.000813263
1.39927e-05
2.64377e-06
0.000820318
-2.67043e-05
-3.67429e-06
0.000813774
1.80898e-06
-1.60127e-05
0.00080167
4.4516e-05
-3.7572e-05
0.000799471
5.08603e-05
-2.64012e-05
0.000812264
4.02923e-05
9.36146e-06
0.00082298
-1.34444e-05
2.13723e-05
0.000817737
-6.48135e-05
-9.14641e-06
-7.84474e-05
-3.69758e-05
0.00073154
-2.77456e-05
1.40506e-06
0.000735627
2.12566e-05
1.68833e-05
0.000724233
3.57805e-05
1.73824e-05
0.000710199
4.77738e-05
1.51865e-05
0.000711366
5.88377e-06
2.00364e-05
0.000721182
-2.5142e-05
3.28249e-05
0.000726751
-3.77513e-05
2.48294e-05
0.000725603
-2.83682e-05
1.46409e-05
0.000724546
5.69724e-06
1.11214e-05
0.000727888
2.78271e-05
-1.25763e-06
0.000730992
4.58702e-05
-1.05464e-05
0.000725494
2.08816e-05
-8.90515e-06
0.000718942
-9.30804e-06
-1.02922e-05
0.000719745
1.397e-05
-1.38491e-05
0.000725065
2.37096e-05
-4.82395e-06
0.000728622
-1.50625e-05
7.96816e-06
0.000727747
1.06368e-06
-1.70274e-05
0.000725058
5.74062e-05
-3.05227e-05
0.000727134
9.73336e-05
-1.23205e-05
0.000736831
6.298e-05
1.5479e-05
0.000746088
5.84615e-06
2.03259e-05
0.000747457
6.29539e-06
-1.81283e-05
0.000745935
4.2789e-05
-4.5683e-05
0.0007404
7.53284e-05
-3.22557e-05
0.0007335
2.16092e-05