/*--------------------------------*- C++ -*----------------------------------*\
  =========                 |
  \\      /  F ield         | OpenFOAM: The Open Source CFD Toolbox
   \\    /   O peration     | Website:  https://openfoam.org
    \\  /    A nd           | Version:  10
     \\/     M anipulation  |
\*---------------------------------------------------------------------------*/
FoamFile
{
    format      ascii;
    class       volScalarField;
    location    "15";
    object      pPrime2Mean;
}
// * * * * * * * * * * * * * * * * * * * * * * * * * * * * * * * * * * * * * //

dimensions      [0 4 -4 0 0 0 0];

internalField   nonuniform List<scalar> 
25600
(
4.19139e-10
4.77408e-10
4.05236e-10
3.82342e-10
4.18916e-10
3.41221e-10
3.09994e-10
3.22047e-10
2.48603e-10
2.30451e-10
2.42662e-10
1.81923e-10
2.02974e-10
1.97299e-10
1.55024e-10
2.13837e-10
2.06834e-10
1.88293e-10
2.2957e-10
2.56875e-10
2.94122e-10
3.42958e-10
3.65049e-10
4.17613e-10
5.08531e-10
5.01833e-10
6.1368e-10
7.16295e-10
6.46157e-10
7.47995e-10
7.82442e-10
7.11532e-10
7.34872e-10
6.67316e-10
5.95307e-10
5.83781e-10
5.18821e-10
4.52379e-10
4.61161e-10
4.23989e-10
4.95789e-10
5.33131e-10
4.82344e-10
4.9202e-10
4.88023e-10
4.14677e-10
3.92243e-10
3.58193e-10
2.78222e-10
2.48143e-10
2.425e-10
1.81951e-10
1.85049e-10
1.74424e-10
1.40893e-10
1.84379e-10
1.54585e-10
1.60584e-10
1.88389e-10
2.01257e-10
2.72846e-10
2.83808e-10
3.12766e-10
4.0697e-10
4.68678e-10
4.89982e-10
6.19716e-10
7.12861e-10
6.68974e-10
7.66035e-10
7.9717e-10
7.18306e-10
7.26883e-10
6.61282e-10
5.88614e-10
5.66689e-10
5.02074e-10
4.70604e-10
4.82527e-10
4.62601e-10
5.57382e-10
5.80528e-10
5.7725e-10
6.1559e-10
5.68567e-10
4.96119e-10
4.70959e-10
3.76444e-10
3.07107e-10
2.69815e-10
2.30896e-10
1.98061e-10
1.81688e-10
1.65545e-10
1.52432e-10
1.61804e-10
1.30139e-10
1.55103e-10
1.66815e-10
1.82397e-10
2.5968e-10
2.44762e-10
2.90686e-10
3.94915e-10
4.25236e-10
4.92379e-10
6.15875e-10
6.87428e-10
7.04034e-10
7.86759e-10
8.02211e-10
7.37526e-10
7.18829e-10
6.47807e-10
5.73031e-10
5.2743e-10
4.77753e-10
4.70827e-10
4.7686e-10
4.9939e-10
6.04255e-10
6.4403e-10
7.00892e-10
7.54564e-10
6.71831e-10
5.95403e-10
5.54327e-10
4.09135e-10
3.57294e-10
2.97192e-10
2.24511e-10
2.28872e-10
1.83867e-10
1.69059e-10
1.70772e-10
1.39376e-10
1.27253e-10
1.47801e-10
1.52287e-10
1.86238e-10
2.35225e-10
2.18919e-10
2.81351e-10
3.60352e-10
3.86209e-10
4.94841e-10
6.03723e-10
6.71996e-10
7.50994e-10
8.1597e-10
8.16793e-10
7.79063e-10
7.23389e-10
6.41882e-10
5.60737e-10
4.77782e-10
4.48629e-10
4.4248e-10
4.53215e-10
5.37142e-10
6.37088e-10
7.2688e-10
8.44402e-10
9.0349e-10
7.97181e-10
7.15658e-10
6.48555e-10
4.6577e-10
4.18393e-10
3.21173e-10
2.26206e-10
2.58872e-10
1.8203e-10
1.77116e-10
1.83446e-10
1.20183e-10
1.36742e-10
1.36966e-10
1.48932e-10
1.97925e-10
2.03024e-10
2.08083e-10
2.70425e-10
3.14974e-10
3.59506e-10
4.87423e-10
5.95832e-10
6.77543e-10
8.10878e-10
8.72622e-10
8.65522e-10
8.51794e-10
7.46913e-10
6.53352e-10
5.55801e-10
4.18484e-10
4.09229e-10
3.90157e-10
4.22585e-10
5.67027e-10
6.63278e-10
8.30697e-10
1.0097e-09
1.0719e-09
9.50523e-10
8.5955e-10
7.51703e-10
5.35748e-10
4.76341e-10
3.43863e-10
2.36262e-10
2.83957e-10
1.83938e-10
1.91434e-10
1.95591e-10
1.12077e-10
1.52661e-10
1.28939e-10
1.55554e-10
2.09387e-10
1.74761e-10
2.09265e-10
2.5667e-10
2.76143e-10
3.37012e-10
4.66498e-10
5.90914e-10
6.95431e-10
8.89765e-10
9.63404e-10
9.53274e-10
9.54455e-10
7.95113e-10
6.90347e-10
5.49495e-10
3.53671e-10
3.65614e-10
3.29198e-10
3.8691e-10
5.74765e-10
6.92013e-10
9.5452e-10
1.202e-09
1.26617e-09
1.13965e-09
1.02517e-09
8.57339e-10
6.08776e-10
5.30913e-10
3.73794e-10
2.60214e-10
3.13851e-10
1.98988e-10
2.1683e-10
2.12109e-10
1.17219e-10
1.72429e-10
1.29039e-10
1.72946e-10
2.23659e-10
1.63017e-10
2.17844e-10
2.46638e-10
2.51907e-10
3.137e-10
4.41037e-10
5.86963e-10
7.27356e-10
9.90047e-10
1.08575e-09
1.089e-09
1.09137e-09
8.80722e-10
7.4269e-10
5.31391e-10
2.91557e-10
3.2146e-10
2.67428e-10
3.39614e-10
5.58402e-10
7.23155e-10
1.1e-09
1.42434e-09
1.49521e-09
1.37303e-09
1.20664e-09
9.59556e-10
6.78608e-10
5.92129e-10
4.15086e-10
3.06122e-10
3.56713e-10
2.31514e-10
2.61396e-10
2.36793e-10
1.36229e-10
1.99418e-10
1.42755e-10
2.01872e-10
2.4525e-10
1.68553e-10
2.34029e-10
2.47497e-10
2.45227e-10
2.93904e-10
4.14391e-10
5.82974e-10
7.7704e-10
1.11058e-09
1.24694e-09
1.2852e-09
1.27725e-09
1.01029e-09
8.00472e-10
5.08485e-10
2.41858e-10
2.87167e-10
2.16268e-10
2.85511e-10
5.26241e-10
7.57791e-10
1.26703e-09
1.67682e-09
1.77767e-09
1.65739e-09
1.40166e-09
1.05411e-09
7.44976e-10
6.68345e-10
4.75743e-10
3.8391e-10
4.17028e-10
2.88246e-10
3.42029e-10
2.82084e-10
1.80603e-10
2.45068e-10
1.778e-10
2.46007e-10
2.79678e-10
1.96172e-10
2.65287e-10
2.65841e-10
2.64012e-10
2.8828e-10
3.8997e-10
5.85125e-10
8.46668e-10
1.25871e-09
1.46419e-09
1.55857e-09
1.53129e-09
1.18884e-09
8.70843e-10
4.98753e-10
2.10693e-10
2.86338e-10
2.17464e-10
2.57102e-10
4.92724e-10
8.03508e-10
1.45976e-09
1.96793e-09
2.1322e-09
2.00391e-09
1.61133e-09
1.1415e-09
8.15991e-10
7.67314e-10
5.68164e-10
4.92436e-10
5.01212e-10
3.86005e-10
4.81361e-10
3.68938e-10
2.68453e-10
3.22916e-10
2.4656e-10
3.17075e-10
3.38591e-10
2.59931e-10
3.28483e-10
3.09563e-10
3.24967e-10
3.20105e-10
3.79404e-10
6.0427e-10
9.43226e-10
1.44254e-09
1.75991e-09
1.93658e-09
1.87777e-09
1.42577e-09
9.66582e-10
5.11246e-10
2.12883e-10
3.67975e-10
3.46996e-10
3.07442e-10
4.7372e-10
8.77631e-10
1.68709e-09
2.31538e-09
2.57899e-09
2.43354e-09
1.84466e-09
1.22721e-09
9.02882e-10
9.03957e-10
7.18891e-10
6.45346e-10
6.25734e-10
5.54688e-10
7.06576e-10
5.28905e-10
4.21274e-10
4.60691e-10
3.71002e-10
4.40138e-10
4.41222e-10
3.82738e-10
4.57416e-10
4.01751e-10
4.61734e-10
4.34208e-10
4.07889e-10
6.51447e-10
1.08195e-09
1.67686e-09
2.16807e-09
2.45884e-09
2.34399e-09
1.73481e-09
1.10213e-09
5.6399e-10
2.68697e-10
6.07898e-10
7.22019e-10
5.13381e-10
4.98377e-10
9.95144e-10
1.96837e-09
2.74358e-09
3.14431e-09
2.9772e-09
2.11342e-09
1.32722e-09
1.02881e-09
1.1036e-09
9.64765e-10
8.61679e-10
8.2028e-10
8.33923e-10
1.07005e-09
8.07167e-10
6.69588e-10
7.01999e-10
5.89736e-10
6.427e-10
6.10266e-10
5.9895e-10
6.98618e-10
5.67482e-10
7.30149e-10
7.1558e-10
5.31112e-10
7.50763e-10
1.2917e-09
1.98551e-09
2.73415e-09
3.1812e-09
2.96628e-09
2.13821e-09
1.29222e-09
6.81875e-10
4.11128e-10
1.11672e-09
1.51032e-09
9.8303e-10
6.09186e-10
1.18302e-09
2.33323e-09
3.28078e-09
3.87034e-09
3.68095e-09
2.44105e-09
1.47651e-09
1.22572e-09
1.41505e-09
1.35697e-09
1.1747e-09
1.13779e-09
1.27114e-09
1.64232e-09
1.26143e-09
1.05037e-09
1.11034e-09
9.51364e-10
9.58398e-10
8.73089e-10
9.52739e-10
1.13563e-09
8.57172e-10
1.21933e-09
1.28428e-09
8.19777e-10
9.41061e-10
1.61062e-09
2.40055e-09
3.52577e-09
4.17174e-09
3.78771e-09
2.66161e-09
1.54941e-09
9.04975e-10
6.7976e-10
2.04131e-09
2.93994e-09
1.87372e-09
8.73308e-10
1.48602e-09
2.82911e-09
3.959e-09
4.80838e-09
4.62374e-09
2.8644e-09
1.72539e-09
1.5469e-09
1.89215e-09
1.98418e-09
1.63405e-09
1.65283e-09
1.92812e-09
2.52662e-09
1.97473e-09
1.59763e-09
1.77648e-09
1.5176e-09
1.4283e-09
1.28483e-09
1.50444e-09
1.90973e-09
1.33235e-09
2.06621e-09
2.32581e-09
1.38075e-09
1.28352e-09
2.09074e-09
2.95262e-09
4.62682e-09
5.50108e-09
4.87698e-09
3.35145e-09
1.91899e-09
1.29558e-09
1.1233e-09
3.57832e-09
5.31607e-09
3.392e-09
1.36836e-09
1.97531e-09
3.51877e-09
4.81967e-09
6.03655e-09
5.91777e-09
3.4369e-09
2.15533e-09
2.07343e-09
2.61738e-09
2.97027e-09
2.30398e-09
2.44714e-09
2.86606e-09
3.85728e-09
3.04265e-09
2.36938e-09
2.82101e-09
2.37772e-09
2.12319e-09
1.91782e-09
2.33495e-09
3.23987e-09
2.05537e-09
3.4348e-09
4.07336e-09
2.34787e-09
1.85442e-09
2.7926e-09
3.69655e-09
6.15429e-09
7.25952e-09
6.32518e-09
4.26339e-09
2.45325e-09
1.93218e-09
1.79748e-09
5.99612e-09
9.03734e-09
5.84469e-09
2.20346e-09
2.74793e-09
4.51387e-09
5.94396e-09
7.65637e-09
7.74407e-09
4.25397e-09
2.92698e-09
2.94789e-09
3.71415e-09
4.50241e-09
3.27969e-09
3.64238e-09
4.18403e-09
5.82859e-09
4.60693e-09
3.4404e-09
4.38452e-09
3.64066e-09
3.14211e-09
2.88949e-09
3.57404e-09
5.50749e-09
3.14605e-09
5.59131e-09
6.84713e-09
3.89455e-09
2.7738e-09
3.79618e-09
4.67558e-09
8.239e-09
9.53076e-09
8.24584e-09
5.48342e-09
3.23912e-09
2.91593e-09
2.7696e-09
9.64899e-09
1.45667e-08
9.62997e-09
3.52188e-09
3.93305e-09
5.93302e-09
7.40756e-09
9.82992e-09
1.03774e-08
5.44398e-09
4.2584e-09
4.34729e-09
5.31834e-09
6.81278e-09
4.69606e-09
5.39382e-09
5.99032e-09
8.6838e-09
6.87818e-09
4.94927e-09
6.65838e-09
5.47787e-09
4.67078e-09
4.38364e-09
5.40378e-09
9.25422e-09
4.74492e-09
8.86518e-09
1.10443e-08
6.22915e-09
4.23061e-09
5.23111e-09
5.99479e-09
1.10466e-08
1.23962e-08
1.0797e-08
7.12755e-09
4.43494e-09
4.42748e-09
4.18632e-09
1.50935e-08
2.25041e-08
1.53949e-08
5.52252e-09
5.82156e-09
8.0647e-09
9.49568e-09
1.28113e-08
1.43466e-08
7.22846e-09
6.62429e-09
6.66026e-09
7.74182e-09
1.03999e-08
6.86046e-09
7.96049e-09
8.53184e-09
1.27601e-08
1.02286e-08
7.12791e-09
9.98771e-09
8.10708e-09
7.07499e-09
6.71604e-09
8.17417e-09
1.53799e-08
7.09818e-09
1.38117e-08
1.72439e-08
9.71796e-09
6.55558e-09
7.29476e-09
7.8554e-09
1.48557e-08
1.59724e-08
1.42053e-08
9.42654e-09
6.33999e-09
6.71989e-09
6.32527e-09
2.32497e-08
3.36268e-08
2.42366e-08
8.61291e-09
8.97834e-09
1.14034e-08
1.2652e-08
1.71157e-08
2.05765e-08
1.01514e-08
1.09179e-08
1.05263e-08
1.15691e-08
1.61604e-08
1.03978e-08
1.18485e-08
1.21992e-08
1.86297e-08
1.54248e-08
1.0576e-08
1.51138e-08
1.2045e-08
1.11325e-08
1.04006e-08
1.24873e-08
2.52809e-08
1.07568e-08
2.13069e-08
2.63541e-08
1.49419e-08
1.04266e-08
1.05086e-08
1.07225e-08
2.01419e-08
2.05469e-08
1.90022e-08
1.28687e-08
9.57935e-09
1.03637e-08
9.8251e-09
3.5762e-08
4.90455e-08
3.82243e-08
1.34867e-08
1.43621e-08
1.67236e-08
1.77941e-08
2.37775e-08
3.08348e-08
1.51894e-08
1.85797e-08
1.71098e-08
1.81191e-08
2.55702e-08
1.64194e-08
1.79841e-08
1.78408e-08
2.73403e-08
2.37302e-08
1.6159e-08
2.31242e-08
1.80282e-08
1.8268e-08
1.6434e-08
1.95911e-08
4.10593e-08
1.6602e-08
3.28022e-08
3.96474e-08
2.274e-08
1.68645e-08
1.55506e-08
1.55154e-08
2.75665e-08
2.66407e-08
2.60351e-08
1.82741e-08
1.51472e-08
1.63292e-08
1.55654e-08
5.54829e-08
7.03193e-08
6.1052e-08
2.1238e-08
2.36878e-08
2.52182e-08
2.60584e-08
3.40882e-08
4.77104e-08
2.37013e-08
3.13781e-08
2.7795e-08
2.88497e-08
4.06725e-08
2.62134e-08
2.77461e-08
2.65829e-08
4.0002e-08
3.71776e-08
2.53148e-08
3.59836e-08
2.74184e-08
3.06808e-08
2.6019e-08
3.12067e-08
6.52549e-08
2.58874e-08
5.05292e-08
5.93037e-08
3.44299e-08
2.80703e-08
2.34385e-08
2.33079e-08
3.81023e-08
3.51207e-08
3.70298e-08
2.67315e-08
2.43236e-08
2.59348e-08
2.49679e-08
8.56922e-08
9.8928e-08
9.85573e-08
3.33582e-08
3.75024e-08
3.7711e-08
3.82203e-08
4.81462e-08
7.24382e-08
3.63761e-08
5.06847e-08
4.34495e-08
4.47362e-08
6.27653e-08
4.07285e-08
4.17447e-08
3.92559e-08
5.63483e-08
5.6557e-08
3.81724e-08
5.40911e-08
4.06126e-08
4.9663e-08
3.94847e-08
4.77029e-08
9.86314e-08
3.92104e-08
7.60643e-08
8.59457e-08
4.96827e-08
4.31863e-08
3.39642e-08
3.43655e-08
5.14304e-08
4.5735e-08
5.3581e-08
3.84473e-08
3.753e-08
3.94951e-08
3.8196e-08
1.27829e-07
1.33333e-07
1.58835e-07
5.05126e-08
5.77322e-08
5.47516e-08
5.57421e-08
6.88798e-08
1.0771e-07
5.59397e-08
7.97254e-08
6.45226e-08
6.69732e-08
9.81607e-08
6.18587e-08
6.08992e-08
5.64344e-08
7.94204e-08
8.25513e-08
5.64348e-08
7.35372e-08
5.82792e-08
7.38456e-08
5.82388e-08
7.10706e-08
1.45895e-07
5.72234e-08
1.10788e-07
1.2349e-07
6.8337e-08
6.75032e-08
4.84494e-08
5.07197e-08
6.72943e-08
6.05369e-08
7.88472e-08
5.47067e-08
5.58581e-08
5.84994e-08
5.80095e-08
1.89543e-07
1.77047e-07
2.42494e-07
7.29552e-08
8.46905e-08
7.87834e-08
7.93149e-08
9.1416e-08
1.51324e-07
8.11787e-08
1.1921e-07
9.36539e-08
9.46435e-08
1.48579e-07
8.80158e-08
8.475e-08
8.06429e-08
1.00227e-07
1.17435e-07
8.02927e-08
9.03475e-08
8.00053e-08
1.0138e-07
8.12061e-08
1.04036e-07
2.21713e-07
7.92933e-08
1.63599e-07
1.79782e-07
8.81612e-08
1.07151e-07
6.70593e-08
7.20344e-08
8.84491e-08
7.67441e-08
1.169e-07
7.64315e-08
8.08183e-08
8.32141e-08
8.24991e-08
2.61307e-07
2.183e-07
3.47392e-07
1.02767e-07
1.13488e-07
1.04804e-07
1.05833e-07
1.17473e-07
1.99074e-07
1.10929e-07
1.65794e-07
1.28226e-07
1.28389e-07
2.06649e-07
1.17148e-07
1.10257e-07
1.05503e-07
1.22664e-07
1.64046e-07
1.08438e-07
1.10965e-07
1.03326e-07
1.25011e-07
1.07797e-07
1.37252e-07
3.22614e-07
1.05139e-07
2.09798e-07
2.51587e-07
1.13851e-07
1.52301e-07
9.25321e-08
1.00171e-07
1.21394e-07
1.02723e-07
1.48469e-07
1.01264e-07
1.07289e-07
1.10556e-07
1.13201e-07
3.78675e-07
2.61468e-07
3.99309e-07
1.38536e-07
1.39512e-07
1.3872e-07
1.3274e-07
1.46374e-07
2.32586e-07
1.38213e-07
1.9558e-07
1.6682e-07
1.59001e-07
2.57868e-07
1.49832e-07
1.35251e-07
1.2996e-07
1.50943e-07
2.05971e-07
1.38829e-07
1.31616e-07
1.25723e-07
1.43814e-07
1.33283e-07
1.71679e-07
4.16016e-07
1.29672e-07
2.3113e-07
3.42169e-07
1.2782e-07
2.18786e-07
1.14005e-07
1.27643e-07
1.50668e-07
1.24457e-07
1.62587e-07
1.25253e-07
1.36181e-07
1.36184e-07
1.43065e-07
4.79569e-07
2.98467e-07
4.20647e-07
1.60325e-07
1.59187e-07
1.80634e-07
1.53035e-07
1.78167e-07
2.51331e-07
1.61276e-07
2.03973e-07
1.89277e-07
1.81765e-07
2.89819e-07
1.6418e-07
1.55975e-07
1.49378e-07
1.70517e-07
2.20928e-07
1.61459e-07
1.48809e-07
1.40361e-07
1.60198e-07
1.53541e-07
1.99051e-07
4.30495e-07
1.49811e-07
2.3035e-07
3.71254e-07
1.44369e-07
2.37957e-07
1.31442e-07
1.44708e-07
1.77352e-07
1.44734e-07
1.77021e-07
1.40661e-07
1.54108e-07
1.52843e-07
1.61998e-07
5.25468e-07
3.09906e-07
4.50796e-07
1.768e-07
1.67188e-07
1.93782e-07
1.57197e-07
1.89458e-07
2.50304e-07
1.71675e-07
2.01816e-07
1.99443e-07
1.85458e-07
2.90679e-07
1.7344e-07
1.6375e-07
1.51685e-07
1.87351e-07
2.20233e-07
1.75767e-07
1.51248e-07
1.44899e-07
1.62771e-07
1.64735e-07
2.14609e-07
4.2046e-07
1.5938e-07
2.37575e-07
3.60788e-07
1.49226e-07
2.15883e-07
1.37634e-07
1.55848e-07
2.05663e-07
1.56648e-07
1.72262e-07
1.45688e-07
1.61928e-07
1.58434e-07
1.68177e-07
5.06417e-07
3.00903e-07
4.35563e-07
1.81242e-07
1.6472e-07
1.9019e-07
1.56548e-07
1.85788e-07
2.3929e-07
1.70413e-07
1.87759e-07
2.00933e-07
1.86213e-07
2.75169e-07
1.77664e-07
1.62484e-07
1.50767e-07
1.79093e-07
2.02755e-07
1.76389e-07
1.49596e-07
1.42936e-07
1.59034e-07
1.64337e-07
2.14688e-07
4.25388e-07
1.57582e-07
2.26229e-07
3.48767e-07
1.51925e-07
1.82287e-07
1.36993e-07
1.57195e-07
2.1176e-07
1.57602e-07
1.68681e-07
1.42175e-07
1.62913e-07
1.54734e-07
1.66044e-07
4.80613e-07
2.93478e-07
3.96641e-07
1.79704e-07
1.61196e-07
1.8598e-07
1.53381e-07
1.78629e-07
2.27087e-07
1.6329e-07
1.794e-07
1.9597e-07
1.84603e-07
2.55283e-07
1.74542e-07
1.59051e-07
1.47756e-07
1.74347e-07
1.91519e-07
1.7181e-07
1.46453e-07
1.39601e-07
1.61013e-07
1.61718e-07
2.0549e-07
4.38337e-07
1.5456e-07
2.18659e-07
3.37466e-07
1.48754e-07
1.69021e-07
1.34148e-07
1.56248e-07
2.11782e-07
1.56213e-07
1.68434e-07
1.37151e-07
1.60313e-07
1.5247e-07
1.62248e-07
4.57557e-07
2.86823e-07
3.76144e-07
1.78305e-07
1.58075e-07
1.81305e-07
1.51116e-07
1.71522e-07
2.26447e-07
1.5975e-07
1.7806e-07
1.90443e-07
1.82827e-07
2.43045e-07
1.69685e-07
1.55896e-07
1.44421e-07
1.69955e-07
1.82559e-07
1.66142e-07
1.44206e-07
1.36415e-07
1.58535e-07
1.57657e-07
1.97329e-07
4.36635e-07
1.51423e-07
2.12843e-07
3.23298e-07
1.45656e-07
1.6228e-07
1.31803e-07
1.55811e-07
2.1259e-07
1.54134e-07
1.67109e-07
1.34045e-07
1.56383e-07
1.49623e-07
1.5696e-07
4.42781e-07
2.8489e-07
3.6669e-07
1.75856e-07
1.5612e-07
1.79203e-07
1.49015e-07
1.68847e-07
2.2369e-07
1.56902e-07
1.77063e-07
1.8733e-07
1.81347e-07
2.37708e-07
1.67364e-07
1.54392e-07
1.4305e-07
1.67981e-07
1.79496e-07
1.6412e-07
1.43221e-07
1.3492e-07
1.57048e-07
1.56321e-07
1.94674e-07
4.29226e-07
1.50097e-07
2.10248e-07
3.18708e-07
1.43691e-07
1.59614e-07
1.30245e-07
1.54962e-07
2.09483e-07
1.52379e-07
1.67033e-07
1.32756e-07
1.53843e-07
1.48061e-07
1.55403e-07
4.36909e-07
2.83958e-07
3.60288e-07
1.74253e-07
4.19276e-10
4.75136e-10
4.03086e-10
3.74469e-10
4.2181e-10
3.39118e-10
2.98977e-10
3.24852e-10
2.47715e-10
2.23171e-10
2.45344e-10
1.81798e-10
1.98456e-10
2.00221e-10
1.55604e-10
2.18656e-10
2.13229e-10
1.81707e-10
2.34804e-10
2.58931e-10
2.85136e-10
3.46276e-10
3.63769e-10
4.19788e-10
5.0987e-10
4.98051e-10
6.14206e-10
7.01127e-10
6.28449e-10
7.31114e-10
7.5467e-10
6.89797e-10
7.17501e-10
6.50675e-10
5.82939e-10
5.75682e-10
5.18853e-10
4.4825e-10
4.52286e-10
4.2592e-10
4.99168e-10
5.30408e-10
4.81801e-10
4.83247e-10
4.8543e-10
4.08948e-10
3.76881e-10
3.56374e-10
2.6962e-10
2.35119e-10
2.39383e-10
1.77676e-10
1.83385e-10
1.77053e-10
1.39489e-10
1.88698e-10
1.57607e-10
1.51952e-10
1.87431e-10
1.92844e-10
2.59941e-10
2.84387e-10
3.0659e-10
4.05396e-10
4.66392e-10
4.82306e-10
6.17735e-10
6.97647e-10
6.48316e-10
7.4554e-10
7.68326e-10
6.92198e-10
7.05124e-10
6.44056e-10
5.78421e-10
5.61655e-10
5.02811e-10
4.71237e-10
4.79792e-10
4.67455e-10
5.61841e-10
5.79637e-10
5.81612e-10
6.08492e-10
5.60438e-10
4.84207e-10
4.51211e-10
3.6726e-10
2.91402e-10
2.5489e-10
2.25336e-10
1.95484e-10
1.81947e-10
1.6491e-10
1.47339e-10
1.61915e-10
1.30182e-10
1.46476e-10
1.60375e-10
1.69534e-10
2.50018e-10
2.44204e-10
2.82083e-10
3.9012e-10
4.19671e-10
4.8125e-10
6.09084e-10
6.70825e-10
6.80199e-10
7.62057e-10
7.73104e-10
7.07813e-10
6.91207e-10
6.28209e-10
5.61999e-10
5.22452e-10
4.78896e-10
4.78009e-10
4.8135e-10
5.06138e-10
6.12962e-10
6.48952e-10
7.09142e-10
7.45022e-10
6.54872e-10
5.75498e-10
5.30312e-10
3.88385e-10
3.33989e-10
2.77814e-10
2.14983e-10
2.27199e-10
1.79554e-10
1.66065e-10
1.63665e-10
1.35134e-10
1.28501e-10
1.41541e-10
1.43135e-10
1.75467e-10
2.30651e-10
2.18041e-10
2.72979e-10
3.52767e-10
3.77681e-10
4.80242e-10
5.91608e-10
6.54655e-10
7.23364e-10
7.87713e-10
7.88221e-10
7.43693e-10
6.89954e-10
6.1898e-10
5.44487e-10
4.71397e-10
4.51386e-10
4.54988e-10
4.61793e-10
5.46193e-10
6.55192e-10
7.41304e-10
8.53898e-10
8.90743e-10
7.71926e-10
6.87579e-10
6.18848e-10
4.30114e-10
3.85883e-10
2.91971e-10
2.12521e-10
2.55908e-10
1.73005e-10
1.76663e-10
1.74408e-10
1.13206e-10
1.4361e-10
1.34013e-10
1.39439e-10
1.93316e-10
2.02498e-10
2.08021e-10
2.62941e-10
3.03571e-10
3.47713e-10
4.6909e-10
5.80092e-10
6.59325e-10
7.75956e-10
8.378e-10
8.31297e-10
8.06419e-10
7.08943e-10
6.23294e-10
5.31355e-10
4.15177e-10
4.16721e-10
4.07479e-10
4.36627e-10
5.80937e-10
6.94222e-10
8.58567e-10
1.01886e-09
1.05614e-09
9.14953e-10
8.18949e-10
7.12452e-10
4.83916e-10
4.31728e-10
3.02327e-10
2.23214e-10
2.82493e-10
1.74104e-10
1.90697e-10
1.77043e-10
1.02675e-10
1.68864e-10
1.29573e-10
1.47182e-10
2.12395e-10
1.79697e-10
2.15041e-10
2.5053e-10
2.57421e-10
3.2056e-10
4.46924e-10
5.75945e-10
6.76642e-10
8.45857e-10
9.17077e-10
9.08991e-10
8.98777e-10
7.54364e-10
6.50281e-10
5.15422e-10
3.56393e-10
3.79228e-10
3.50804e-10
4.09959e-10
5.97153e-10
7.37993e-10
1.00132e-09
1.21107e-09
1.24508e-09
1.08771e-09
9.67968e-10
8.03964e-10
5.37004e-10
4.65181e-10
3.14058e-10
2.47881e-10
3.16522e-10
1.86297e-10
2.05909e-10
1.77506e-10
1.06389e-10
2.01435e-10
1.3146e-10
1.63071e-10
2.34156e-10
1.74036e-10
2.33908e-10
2.42343e-10
2.22674e-10
2.90715e-10
4.22988e-10
5.77328e-10
7.10069e-10
9.39898e-10
1.02429e-09
1.03451e-09
1.03032e-09
8.39322e-10
6.89347e-10
4.89245e-10
3.03897e-10
3.4144e-10
2.92917e-10
3.70215e-10
5.87003e-10
7.92351e-10
1.16825e-09
1.43099e-09
1.46052e-09
1.29796e-09
1.13255e-09
8.88848e-10
5.83569e-10
4.91053e-10
3.2867e-10
2.91756e-10
3.64598e-10
2.0776e-10
2.30956e-10
1.85417e-10
1.30468e-10
2.41579e-10
1.44047e-10
1.87118e-10
2.58791e-10
1.88988e-10
2.64299e-10
2.44333e-10
1.99724e-10
2.61427e-10
4.03882e-10
5.82957e-10
7.65453e-10
1.05198e-09
1.17398e-09
1.22539e-09
1.21884e-09
9.71613e-10
7.29582e-10
4.632e-10
2.67733e-10
3.13055e-10
2.43223e-10
3.14103e-10
5.61036e-10
8.59026e-10
1.36217e-09
1.67942e-09
1.71617e-09
1.55294e-09
1.31116e-09
9.68324e-10
6.27511e-10
5.15606e-10
3.53109e-10
3.60722e-10
4.26236e-10
2.46496e-10
2.79364e-10
2.14235e-10
1.83206e-10
2.95356e-10
1.70655e-10
2.22474e-10
2.90254e-10
2.2899e-10
3.14564e-10
2.64143e-10
1.95697e-10
2.44126e-10
3.96522e-10
5.98098e-10
8.45332e-10
1.18338e-09
1.38636e-09
1.50231e-09
1.48725e-09
1.15565e-09
7.80794e-10
4.57182e-10
2.50456e-10
3.15409e-10
2.27785e-10
2.62122e-10
5.32109e-10
9.47912e-10
1.58612e-09
1.95877e-09
2.02639e-09
1.86331e-09
1.50826e-09
1.04703e-09
6.76443e-10
5.51498e-10
4.01778e-10
4.66754e-10
5.12057e-10
3.24564e-10
3.69787e-10
2.7995e-10
2.76155e-10
3.80032e-10
2.27081e-10
2.80834e-10
3.45536e-10
3.10116e-10
4.02228e-10
3.11448e-10
2.26211e-10
2.63583e-10
4.18283e-10
6.30354e-10
9.48881e-10
1.34354e-09
1.68883e-09
1.89658e-09
1.8613e-09
1.40046e-09
8.63206e-10
4.82277e-10
2.6391e-10
3.8955e-10
2.98255e-10
2.53624e-10
5.16104e-10
1.07685e-09
1.84488e-09
2.27756e-09
2.4151e-09
2.24603e-09
1.73594e-09
1.1367e-09
7.46436e-10
6.17487e-10
5.01119e-10
6.22368e-10
6.44362e-10
4.72103e-10
5.3324e-10
4.04098e-10
4.25719e-10
5.23805e-10
3.40149e-10
3.92112e-10
4.52235e-10
4.6505e-10
5.69827e-10
4.07093e-10
3.33365e-10
3.74648e-10
5.02539e-10
6.97818e-10
1.08357e-09
1.55683e-09
2.12151e-09
2.45823e-09
2.3746e-09
1.72374e-09
1.0039e-09
5.58505e-10
3.3311e-10
5.96913e-10
5.37313e-10
3.39187e-10
5.34645e-10
1.26636e-09
2.15049e-09
2.65563e-09
2.91027e-09
2.73451e-09
2.01784e-09
1.26956e-09
8.69158e-10
7.46561e-10
6.91656e-10
8.5072e-10
8.64818e-10
7.38886e-10
8.12614e-10
6.22121e-10
6.62765e-10
7.67985e-10
5.53937e-10
6.00933e-10
6.53687e-10
7.45698e-10
8.89299e-10
5.86037e-10
5.79664e-10
6.66364e-10
6.99399e-10
8.20097e-10
1.27443e-09
1.85465e-09
2.74092e-09
3.25935e-09
3.07302e-09
2.16065e-09
1.23282e-09
7.1981e-10
4.93401e-10
1.02319e-09
1.06581e-09
5.85021e-10
6.23891e-10
1.56088e-09
2.5383e-09
3.1362e-09
3.55825e-09
3.38337e-09
2.4029e-09
1.49799e-09
1.10763e-09
1.00163e-09
1.04239e-09
1.19191e-09
1.23748e-09
1.19464e-09
1.27402e-09
9.90355e-10
1.04642e-09
1.19066e-09
9.47694e-10
9.84749e-10
1.01474e-09
1.2373e-09
1.48356e-09
9.09808e-10
1.08014e-09
1.29161e-09
1.10587e-09
1.05111e-09
1.57565e-09
2.29187e-09
3.64522e-09
4.4015e-09
4.01278e-09
2.76337e-09
1.58612e-09
1.0212e-09
8.01018e-10
1.7845e-09
2.04607e-09
1.08591e-09
8.46539e-10
2.03771e-09
3.07882e-09
3.7891e-09
4.42865e-09
4.26724e-09
2.96688e-09
1.91567e-09
1.55184e-09
1.47324e-09
1.63904e-09
1.72676e-09
1.86425e-09
1.9307e-09
2.01796e-09
1.5962e-09
1.64282e-09
1.87758e-09
1.61154e-09
1.62691e-09
1.63425e-09
2.05619e-09
2.55445e-09
1.46603e-09
2.00316e-09
2.46042e-09
1.83487e-09
1.46317e-09
2.06527e-09
2.93204e-09
4.97624e-09
6.00313e-09
5.28239e-09
3.61404e-09
2.10918e-09
1.55122e-09
1.33441e-09
3.0424e-09
3.7036e-09
1.98621e-09
1.2986e-09
2.80388e-09
3.88674e-09
4.718e-09
5.62883e-09
5.50843e-09
3.83985e-09
2.68215e-09
2.36963e-09
2.30911e-09
2.61489e-09
2.57807e-09
2.88571e-09
3.08247e-09
3.20059e-09
2.57266e-09
2.59528e-09
2.99835e-09
2.70419e-09
2.65956e-09
2.65837e-09
3.3385e-09
4.41257e-09
2.37005e-09
3.59919e-09
4.48767e-09
3.07258e-09
2.19142e-09
2.87605e-09
3.86855e-09
6.95286e-09
8.21473e-09
6.99732e-09
4.80472e-09
2.90798e-09
2.43768e-09
2.23076e-09
5.02236e-09
6.34253e-09
3.4636e-09
2.10702e-09
4.06956e-09
5.16686e-09
6.07632e-09
7.30461e-09
7.2754e-09
5.21174e-09
4.04774e-09
3.82118e-09
3.71632e-09
4.1528e-09
3.9668e-09
4.51458e-09
4.82733e-09
4.98983e-09
4.05271e-09
4.04888e-09
4.73666e-09
4.40931e-09
4.28313e-09
4.3046e-09
5.27473e-09
7.54487e-09
3.78566e-09
6.19514e-09
7.75179e-09
5.02142e-09
3.39902e-09
4.19023e-09
5.25085e-09
9.90944e-09
1.12088e-08
9.312e-09
6.46599e-09
4.12075e-09
3.82821e-09
3.70307e-09
8.04079e-09
1.03976e-08
5.82026e-09
3.51068e-09
6.08947e-09
7.20898e-09
8.12194e-09
9.68629e-09
9.8151e-09
7.33988e-09
6.38951e-09
6.29318e-09
6.03068e-09
6.55355e-09
6.23826e-09
7.06303e-09
7.42515e-09
7.66608e-09
6.3084e-09
6.24857e-09
7.36722e-09
6.92642e-09
6.67542e-09
6.80605e-09
8.05478e-09
1.26077e-08
5.93096e-09
1.02258e-08
1.27767e-08
7.94309e-09
5.32432e-09
6.19218e-09
7.30192e-09
1.42746e-08
1.51469e-08
1.24434e-08
8.76778e-09
6.04376e-09
6.03045e-09
6.09697e-09
1.25125e-08
1.64032e-08
9.40348e-09
5.79238e-09
9.31675e-09
1.05258e-08
1.11721e-08
1.31273e-08
1.35362e-08
1.07136e-08
1.04061e-08
1.04602e-08
9.82111e-09
1.0307e-08
1.01521e-08
1.1071e-08
1.13026e-08
1.15652e-08
9.62883e-09
9.66783e-09
1.1463e-08
1.07742e-08
1.03938e-08
1.06918e-08
1.21094e-08
2.06476e-08
9.17946e-09
1.62574e-08
2.03237e-08
1.21878e-08
8.42277e-09
9.35138e-09
1.04533e-08
2.07214e-08
2.03296e-08
1.67353e-08
1.19505e-08
9.06161e-09
9.4498e-09
9.99503e-09
1.90557e-08
2.52878e-08
1.48745e-08
9.51713e-09
1.44278e-08
1.58977e-08
1.57745e-08
1.82246e-08
1.89317e-08
1.58109e-08
1.69013e-08
1.70806e-08
1.58222e-08
1.60365e-08
1.68159e-08
1.72852e-08
1.69395e-08
1.72642e-08
1.45895e-08
1.4706e-08
1.7555e-08
1.61919e-08
1.59116e-08
1.65327e-08
1.79597e-08
3.29409e-08
1.40046e-08
2.49054e-08
3.10883e-08
1.79809e-08
1.30465e-08
1.40341e-08
1.52611e-08
3.0125e-08
2.71982e-08
2.27949e-08
1.65584e-08
1.39784e-08
1.49318e-08
1.62357e-08
2.83862e-08
3.81486e-08
2.2962e-08
1.53268e-08
2.2338e-08
2.45511e-08
2.28361e-08
2.59282e-08
2.71573e-08
2.39443e-08
2.75962e-08
2.77661e-08
2.53695e-08
2.48909e-08
2.84859e-08
2.74004e-08
2.54584e-08
2.55248e-08
2.20671e-08
2.26555e-08
2.71819e-08
2.44416e-08
2.46531e-08
2.5527e-08
2.67373e-08
5.1273e-08
2.13028e-08
3.73846e-08
4.64553e-08
2.631e-08
2.02529e-08
2.14127e-08
2.30311e-08
4.38796e-08
3.64589e-08
3.1429e-08
2.32846e-08
2.22089e-08
2.38173e-08
2.5832e-08
4.16092e-08
5.67823e-08
3.46918e-08
2.41672e-08
3.43034e-08
3.80628e-08
3.38176e-08
3.78567e-08
3.90549e-08
3.58113e-08
4.43354e-08
4.41188e-08
3.99562e-08
3.86924e-08
4.75575e-08
4.31262e-08
3.7855e-08
3.78974e-08
3.34545e-08
3.49182e-08
4.14375e-08
3.66038e-08
3.83588e-08
3.9693e-08
3.99608e-08
7.76411e-08
3.20773e-08
5.4265e-08
6.71964e-08
3.74997e-08
3.12734e-08
3.26072e-08
3.53491e-08
6.39611e-08
4.91155e-08
4.40177e-08
3.38445e-08
3.56804e-08
3.9012e-08
4.07497e-08
6.02889e-08
8.39577e-08
5.13755e-08
3.72176e-08
5.14397e-08
5.91056e-08
5.00453e-08
5.56191e-08
5.65911e-08
5.40222e-08
7.04769e-08
6.9042e-08
6.10915e-08
5.92739e-08
7.96955e-08
6.85719e-08
5.59488e-08
5.49094e-08
4.9746e-08
5.36034e-08
6.37403e-08
5.50165e-08
5.77242e-08
6.03701e-08
5.78238e-08
1.15555e-07
4.80657e-08
7.86183e-08
9.4996e-08
5.30529e-08
4.79857e-08
4.93445e-08
5.47695e-08
9.33122e-08
6.5564e-08
6.18834e-08
4.9118e-08
5.62621e-08
6.38814e-08
6.11495e-08
8.48071e-08
1.22334e-07
7.25341e-08
5.46649e-08
7.41647e-08
8.70389e-08
7.23072e-08
8.14425e-08
8.05107e-08
7.81049e-08
1.03402e-07
1.03773e-07
9.06685e-08
8.88862e-08
1.32979e-07
1.0378e-07
7.97815e-08
8.15146e-08
7.26677e-08
7.85524e-08
9.36618e-08
7.87852e-08
8.59919e-08
8.87639e-08
8.31275e-08
1.61682e-07
6.94344e-08
1.08079e-07
1.34495e-07
7.20994e-08
7.03197e-08
7.22584e-08
8.13897e-08
1.3116e-07
8.71854e-08
8.27165e-08
7.0201e-08
8.45406e-08
9.89269e-08
8.97178e-08
1.22206e-07
1.76053e-07
9.95947e-08
7.6584e-08
1.07133e-07
1.18946e-07
1.02734e-07
1.13916e-07
1.12139e-07
1.10355e-07
1.5698e-07
1.53757e-07
1.29454e-07
1.29008e-07
2.01375e-07
1.50686e-07
1.1039e-07
1.15641e-07
1.02392e-07
1.13428e-07
1.35167e-07
1.10901e-07
1.19588e-07
1.21505e-07
1.14845e-07
1.91407e-07
9.75742e-08
1.47683e-07
1.74808e-07
9.63952e-08
9.77737e-08
9.99033e-08
1.19326e-07
1.82242e-07
1.21596e-07
1.07291e-07
9.52729e-08
1.33179e-07
1.5009e-07
1.22844e-07
1.64497e-07
2.40474e-07
1.36107e-07
1.05807e-07
1.4568e-07
1.48704e-07
1.39924e-07
1.52202e-07
1.47878e-07
1.43939e-07
2.16843e-07
2.08027e-07
1.73489e-07
1.6882e-07
2.65228e-07
1.93148e-07
1.47059e-07
1.61331e-07
1.35675e-07
1.51926e-07
1.83167e-07
1.44531e-07
1.62312e-07
1.65938e-07
1.52977e-07
1.94408e-07
1.28842e-07
1.85844e-07
2.20192e-07
1.28719e-07
1.2787e-07
1.30743e-07
1.68692e-07
2.23161e-07
1.46426e-07
1.33366e-07
1.2546e-07
1.77422e-07
2.11167e-07
1.65944e-07
2.0825e-07
3.03319e-07
1.77015e-07
1.35313e-07
1.8129e-07
1.75474e-07
1.77974e-07
1.85071e-07
1.86078e-07
1.79305e-07
2.60683e-07
2.55564e-07
2.20838e-07
2.07543e-07
3.25565e-07
2.20537e-07
1.81607e-07
2.06054e-07
1.65835e-07
1.86515e-07
2.2187e-07
1.78848e-07
2.02486e-07
2.0555e-07
1.91214e-07
1.98757e-07
1.63995e-07
2.32918e-07
2.53086e-07
1.60386e-07
1.58406e-07
1.60081e-07
2.03761e-07
2.56479e-07
1.83044e-07
1.55487e-07
1.56631e-07
2.34442e-07
2.69976e-07
2.02531e-07
2.45347e-07
3.5974e-07
2.24091e-07
1.6594e-07
2.08322e-07
2.01576e-07
2.09264e-07
2.14385e-07
2.17059e-07
2.06298e-07
2.75899e-07
2.86349e-07
2.63867e-07
2.55685e-07
3.84549e-07
2.44834e-07
2.0921e-07
2.35673e-07
1.90169e-07
2.08972e-07
2.39648e-07
2.04329e-07
2.32675e-07
2.47512e-07
2.1752e-07
2.18111e-07
1.82311e-07
3.1087e-07
2.70483e-07
1.87974e-07
1.83117e-07
1.80202e-07
2.35761e-07
2.678e-07
1.82985e-07
1.76629e-07
1.77487e-07
2.31484e-07
3.03318e-07
2.26514e-07
2.70403e-07
4.13687e-07
2.5014e-07
1.93664e-07
2.17497e-07
2.12807e-07
2.18181e-07
2.24487e-07
2.3039e-07
2.16765e-07
2.73044e-07
2.8505e-07
2.79154e-07
2.60404e-07
4.08946e-07
2.48435e-07
2.21296e-07
2.42544e-07
1.98855e-07
2.17067e-07
2.45003e-07
2.15518e-07
2.38392e-07
2.48446e-07
2.34999e-07
2.31571e-07
1.97522e-07
3.37587e-07
2.77238e-07
1.96022e-07
1.95413e-07
1.8965e-07
2.67743e-07
2.70282e-07
1.97777e-07
1.88152e-07
1.89303e-07
2.312e-07
3.03682e-07
2.28468e-07
2.68486e-07
4.19648e-07
2.62468e-07
2.042e-07
2.25541e-07
2.15296e-07
2.18655e-07
2.34758e-07
2.35967e-07
2.17443e-07
2.61465e-07
2.72982e-07
2.8301e-07
2.5304e-07
3.99728e-07
2.4395e-07
2.21661e-07
2.37677e-07
1.9757e-07
2.1486e-07
2.42297e-07
2.1553e-07
2.36587e-07
2.36852e-07
2.31495e-07
2.48363e-07
1.95757e-07
3.51362e-07
2.79841e-07
1.94114e-07
1.99358e-07
1.92704e-07
2.66225e-07
2.6715e-07
1.9896e-07
1.86992e-07
1.85864e-07
2.27101e-07
2.8928e-07
2.31864e-07
2.68369e-07
4.04937e-07
2.51729e-07
2.02686e-07
2.19599e-07
2.14165e-07
2.14821e-07
2.34308e-07
2.32708e-07
2.14182e-07
2.53607e-07
2.63313e-07
2.73992e-07
2.47828e-07
3.80649e-07
2.36938e-07
2.20507e-07
2.29578e-07
1.94541e-07
2.1119e-07
2.42386e-07
2.14859e-07
2.3591e-07
2.3498e-07
2.27138e-07
2.58918e-07
1.93909e-07
3.49415e-07
2.88369e-07
1.88993e-07
2.01672e-07
1.91419e-07