/*--------------------------------*- C++ -*----------------------------------*\
  =========                 |
  \\      /  F ield         | OpenFOAM: The Open Source CFD Toolbox
   \\    /   O peration     | Website:  https://openfoam.org
    \\  /    A nd           | Version:  10
     \\/     M anipulation  |
\*---------------------------------------------------------------------------*/
FoamFile
{
    format      ascii;
    class       volVectorField;
    location    "17.5";
    object      U;
}
// * * * * * * * * * * * * * * * * * * * * * * * * * * * * * * * * * * * * * //

dimensions      [0 1 -1 0 0 0 0];

internalField   nonuniform List<vector> 
25600
(
(1.03477 -2.80232e-06 -1.76145e-05)
(1.03479 1.69705e-05 2.00562e-05)
(1.03483 -1.77173e-05 -2.17261e-05)
(1.03474 3.4663e-05 2.45307e-05)
(1.03484 -2.87664e-05 -1.72034e-05)
(1.03477 4.25193e-05 2.04021e-06)
(1.03479 -3.36313e-05 1.39246e-05)
(1.03479 3.3389e-05 -2.43081e-05)
(1.03481 -6.67073e-06 2.96376e-05)
(1.03476 -1.14592e-05 -3.13633e-05)
(1.03481 4.89712e-05 3.32948e-05)
(1.03482 -7.49496e-05 -3.37811e-05)
(1.03473 0.000100137 3.11277e-05)
(1.03486 -9.80139e-05 -2.58101e-05)
(1.03475 7.69473e-05 1.02454e-05)
(1.03479 -3.5119e-05 1.17672e-05)
(1.03483 -7.93213e-06 -3.45364e-05)
(1.03477 3.66812e-05 4.47867e-05)
(1.03481 -5.76758e-05 -4.21817e-05)
(1.0348 7.57515e-05 3.4092e-05)
(1.0348 -0.000104856 -3.25976e-05)
(1.0348 0.0001127 2.54504e-05)
(1.03481 -9.88865e-05 -8.21422e-06)
(1.0348 4.70441e-05 -1.1215e-05)
(1.03478 2.627e-06 2.45533e-05)
(1.03482 -5.10615e-05 -2.83771e-05)
(1.03479 6.21966e-05 2.90186e-05)
(1.0348 -6.32301e-05 -2.1808e-05)
(1.03482 4.89815e-05 1.54923e-05)
(1.03477 -5.44033e-05 -5.5191e-06)
(1.03483 5.90036e-05 5.08206e-06)
(1.03479 -6.19367e-05 -3.52142e-06)
(1.0348 4.76147e-05 1.15027e-05)
(1.03479 -1.64948e-05 -1.39362e-05)
(1.03482 -1.41138e-05 1.42117e-05)
(1.03479 4.04695e-05 -3.62998e-06)
(1.03478 -3.85306e-05 -9.29789e-06)
(1.03485 3.41963e-05 2.59872e-05)
(1.03474 -1.33773e-05 -2.708e-05)
(1.03484 1.34377e-05 2.26189e-05)
(1.03477 -2.10214e-05 -1.28527e-05)
(1.03479 3.39567e-05 1.29586e-05)
(1.03483 -2.21713e-05 -1.07913e-05)
(1.03474 2.99238e-05 1.6961e-05)
(1.03484 -1.89053e-05 -1.18854e-05)
(1.03477 3.0144e-05 2.04779e-06)
(1.03479 -2.35689e-05 1.21813e-05)
(1.03481 2.61646e-05 -1.55811e-05)
(1.03479 -6.86177e-07 1.56297e-05)
(1.03478 -2.43654e-05 -1.1445e-05)
(1.03478 6.22482e-05 1.59753e-05)
(1.03484 -8.55067e-05 -2.47534e-05)
(1.03473 9.37134e-05 3.3226e-05)
(1.03484 -8.00635e-05 -3.46348e-05)
(1.03479 4.90698e-05 2.01038e-05)
(1.03475 -1.62272e-05 4.4081e-06)
(1.03486 -2.00924e-05 -3.02726e-05)
(1.03474 4.06777e-05 3.8195e-05)
(1.03483 -6.63776e-05 -3.23429e-05)
(1.03478 8.41844e-05 2.00323e-05)
(1.03481 -0.000112322 -1.9258e-05)
(1.03481 0.000110073 1.57861e-05)
(1.03477 -8.7846e-05 -8.3162e-06)
(1.03485 3.19292e-05 -3.71651e-06)
(1.03474 1.09481e-05 1.15919e-05)
(1.03485 -4.99788e-05 -1.55258e-05)
(1.03478 5.60068e-05 1.64229e-05)
(1.03479 -5.49834e-05 -1.14784e-05)
(1.03482 4.23774e-05 8.96097e-06)
(1.03477 -4.60662e-05 -5.20185e-06)
(1.03483 5.23857e-05 5.07108e-06)
(1.03478 -5.15311e-05 -2.81604e-06)
(1.03482 4.31558e-05 9.59216e-06)
(1.03476 -1.66454e-05 -1.38048e-05)
(1.03484 3.91564e-06 1.60373e-05)
(1.03478 1.47434e-05 -6.42655e-06)
(1.03478 -7.59918e-06 -5.56634e-06)
(1.03485 1.89473e-05 2.32533e-05)
(1.03473 -1.09671e-05 -2.395e-05)
(1.03485 2.82494e-05 2.11345e-05)
(1.03477 -1.77224e-05 -9.81629e-06)
(1.03479 3.16214e-05 1.12954e-05)
(1.03483 -1.18623e-05 -5.67856e-06)
(1.03474 1.40548e-05 1.3417e-05)
(1.03484 -3.70965e-07 -8.9725e-06)
(1.03477 9.49095e-06 4.51829e-06)
(1.03479 -5.48654e-06 8.38222e-06)
(1.03481 1.22407e-05 -5.49433e-06)
(1.03477 2.98263e-06 6.699e-07)
(1.03481 -2.27241e-05 8.55262e-06)
(1.03476 4.99564e-05 -2.04039e-06)
(1.03485 -6.71503e-05 -1.30784e-05)
(1.03474 6.18362e-05 3.10529e-05)
(1.03482 -4.66292e-05 -4.01743e-05)
(1.03481 1.51089e-05 2.97973e-05)
(1.03473 1.14675e-06 -7.07095e-06)
(1.03488 -2.6027e-05 -1.94612e-05)
(1.03473 3.12665e-05 2.61408e-05)
(1.03485 -5.52129e-05 -1.9653e-05)
(1.03476 6.42437e-05 3.68392e-06)
(1.03482 -8.46939e-05 -2.19253e-06)
(1.03482 7.27419e-05 1.19457e-06)
(1.03474 -5.14375e-05 -4.98173e-06)
(1.03489 8.11903e-06 4.43644e-06)
(1.03471 1.29934e-05 -6.89082e-06)
(1.03486 -3.11213e-05 6.00013e-06)
(1.03479 2.78063e-05 -3.60744e-06)
(1.03479 -2.37892e-05 2.67982e-06)
(1.03483 1.25055e-05 3.39541e-06)
(1.03478 -1.14021e-05 -8.68749e-06)
(1.03483 1.66358e-05 1.16026e-05)
(1.03478 -1.15062e-05 -7.83415e-06)
(1.03483 1.59901e-05 1.07726e-05)
(1.03475 -4.43075e-06 -1.27054e-05)
(1.03485 2.19971e-05 1.52679e-05)
(1.03478 -1.68325e-05 -7.54567e-06)
(1.03478 3.33451e-05 6.5432e-07)
(1.03485 -8.47995e-06 1.54398e-05)
(1.03474 7.64968e-06 -1.50895e-05)
(1.03484 2.35843e-05 1.79077e-05)
(1.03478 -1.1048e-05 -7.60232e-06)
(1.03479 2.75533e-05 1.31862e-05)
(1.03482 -5.37352e-06 -6.07852e-06)
(1.03475 3.98607e-06 1.58666e-05)
(1.03484 1.44865e-05 -9.18427e-06)
(1.03477 -1.11602e-05 9.2639e-06)
(1.03479 1.84294e-05 5.27129e-06)
(1.03481 -1.32965e-05 2.332e-06)
(1.03476 1.89044e-05 -8.3953e-06)
(1.03482 -2.74282e-05 2.27369e-05)
(1.03475 3.82071e-05 -1.5446e-05)
(1.03485 -4.80919e-05 -1.2713e-06)
(1.03474 3.11915e-05 2.51058e-05)
(1.03481 -1.99409e-05 -4.03118e-05)
(1.03482 -8.97794e-06 3.60206e-05)
(1.03472 1.03072e-05 -1.79724e-05)
(1.03489 -2.67929e-05 -7.30984e-06)
(1.03472 1.66385e-05 1.39628e-05)
(1.03486 -3.70192e-05 -8.83674e-06)
(1.03475 3.5292e-05 -9.04831e-06)
(1.03482 -4.7597e-05 1.15585e-05)
(1.03484 2.96071e-05 -1.16926e-05)
(1.03472 -1.56453e-05 -9.27309e-07)
(1.0349 -1.20668e-05 1.02893e-05)
(1.03471 1.10126e-05 -2.33806e-05)
(1.03486 -9.2007e-06 2.6103e-05)
(1.03479 -2.10521e-06 -2.22026e-05)
(1.03478 8.82845e-06 1.47091e-05)
(1.03483 -1.77794e-05 7.6195e-07)
(1.03478 2.56792e-05 -1.54461e-05)
(1.03483 -2.08654e-05 2.27149e-05)
(1.03478 3.23674e-05 -1.80554e-05)
(1.03483 -1.60422e-05 1.53843e-05)
(1.03477 1.69256e-05 -1.15777e-05)
(1.03483 2.88639e-05 1.29226e-05)
(1.03479 -3.09923e-05 -5.95417e-06)
(1.03478 5.75438e-05 5.85058e-06)
(1.03483 -2.27525e-05 7.85829e-06)
(1.03476 2.09142e-05 -5.41636e-06)
(1.03483 1.89248e-05 1.49035e-05)
(1.03478 -9.55437e-06 -2.01491e-06)
(1.03479 3.03993e-05 1.38775e-05)
(1.03481 -1.08419e-05 -5.92776e-06)
(1.03476 1.01268e-05 1.99437e-05)
(1.03483 1.3743e-05 -9.84818e-06)
(1.03477 -1.74012e-05 1.47853e-05)
(1.03479 3.0626e-05 2.95623e-06)
(1.03481 -3.30451e-05 8.21187e-06)
(1.03476 3.45247e-05 -1.38238e-05)
(1.03482 -3.46611e-05 3.271e-05)
(1.03474 3.10293e-05 -2.53001e-05)
(1.03484 -3.86565e-05 1.01222e-05)
(1.03476 1.31605e-05 1.62523e-05)
(1.0348 -1.14495e-05 -3.54363e-05)
(1.03483 -1.45274e-05 3.72489e-05)
(1.03472 3.21002e-06 -2.58856e-05)
(1.03489 -1.7831e-05 3.92295e-06)
(1.03472 -6.51101e-06 2.69204e-06)
(1.03486 -1.11846e-05 -1.89247e-07)
(1.03475 1.03501e-06 -1.71788e-05)
(1.03481 -8.68976e-06 1.96144e-05)
(1.03485 -8.06941e-06 -1.97485e-05)
(1.03471 8.51592e-06 2.08064e-06)
(1.03491 -1.95451e-05 1.25809e-05)
(1.03471 4.03295e-06 -3.43631e-05)
(1.03485 1.11647e-05 4.15661e-05)
(1.0348 -2.51885e-05 -3.72632e-05)
(1.03478 3.1379e-05 2.52124e-05)
(1.03484 -3.49842e-05 -1.61111e-06)
(1.03478 4.86753e-05 -2.09787e-05)
(1.03483 -3.91116e-05 3.28986e-05)
(1.03479 5.84266e-05 -2.89225e-05)
(1.03482 -3.41549e-05 2.20718e-05)
(1.03479 3.54367e-05 -1.16862e-05)
(1.03481 2.80992e-05 1.07604e-05)
(1.0348 -2.54015e-05 -2.89615e-06)
(1.03479 5.85992e-05 9.66365e-06)
(1.03482 -1.72781e-05 1.74318e-06)
(1.03477 2.09644e-05 5.46203e-06)
(1.03481 2.29245e-05 1.05104e-05)
(1.03478 -8.61725e-06 5.52252e-06)
(1.03479 3.19341e-05 1.26021e-05)
(1.03481 -1.85621e-05 -2.85178e-06)
(1.03476 2.25328e-05 2.29959e-05)
(1.03482 3.74819e-06 -7.80376e-06)
(1.03478 -1.19664e-05 1.92549e-05)
(1.03478 2.81389e-05 2.61887e-06)
(1.03482 -3.95514e-05 1.26909e-05)
(1.03476 3.76642e-05 -1.55112e-05)
(1.03482 -3.09777e-05 3.95736e-05)
(1.03474 1.58806e-05 -3.16966e-05)
(1.03484 -2.63087e-05 2.06686e-05)
(1.03476 -5.61189e-06 6.86538e-06)
(1.03479 -5.43238e-06 -2.75941e-05)
(1.03483 -1.61547e-05 3.59723e-05)
(1.03472 -7.33786e-06 -3.10413e-05)
(1.03488 -9.02489e-06 1.31965e-05)
(1.03472 -3.15799e-05 -4.65744e-06)
(1.03486 1.69894e-05 4.30015e-06)
(1.03475 -3.56175e-05 -2.03833e-05)
(1.03481 3.10897e-05 2.25074e-05)
(1.03485 -4.49712e-05 -2.30345e-05)
(1.03471 2.80778e-05 3.45687e-06)
(1.0349 -2.1706e-05 1.25484e-05)
(1.03473 -1.11715e-06 -3.9156e-05)
(1.03484 2.62842e-05 4.91032e-05)
(1.0348 -3.94638e-05 -4.50696e-05)
(1.03478 4.16451e-05 3.16615e-05)
(1.03485 -3.65682e-05 -3.15637e-06)
(1.03477 5.56438e-05 -2.41698e-05)
(1.03484 -3.53323e-05 4.00037e-05)
(1.03479 6.20788e-05 -3.67084e-05)
(1.03481 -3.26562e-05 2.80175e-05)
(1.03481 4.46699e-05 -1.09269e-05)
(1.0348 2.81331e-05 8.86247e-06)
(1.03481 -9.83595e-06 2.41913e-06)
(1.03479 4.65431e-05 1.10417e-05)
(1.03481 6.71753e-07 9.82335e-09)
(1.03478 1.26385e-05 1.44153e-05)
(1.03481 3.21099e-05 7.16837e-06)
(1.03478 -5.48674e-06 1.34505e-05)
(1.03479 2.6973e-05 1.19482e-05)
(1.0348 -2.08395e-05 1.77191e-06)
(1.03477 3.05582e-05 2.60159e-05)
(1.03481 -4.31086e-06 -3.55151e-06)
(1.03478 -4.07861e-06 2.39392e-05)
(1.03477 1.7698e-05 4.19913e-06)
(1.03482 -3.89465e-05 1.64368e-05)
(1.03476 3.42404e-05 -1.38847e-05)
(1.03481 -2.18592e-05 4.35274e-05)
(1.03475 -1.89914e-06 -3.37861e-05)
(1.03483 -1.56487e-05 2.88153e-05)
(1.03477 -2.55986e-05 -2.25061e-08)
(1.03479 1.81283e-06 -2.09261e-05)
(1.03483 -2.14321e-05 3.5358e-05)
(1.03472 -1.00581e-05 -3.53669e-05)
(1.03487 -1.49185e-05 2.22004e-05)
(1.03473 -4.2515e-05 -1.05617e-05)
(1.03486 3.0473e-05 7.14806e-06)
(1.03476 -5.62511e-05 -1.9185e-05)
(1.03481 5.73048e-05 2.07256e-05)
(1.03484 -7.19266e-05 -2.12054e-05)
(1.03472 4.02556e-05 2.07187e-06)
(1.03489 -2.0365e-05 1.25109e-05)
(1.03474 -1.06799e-06 -4.04749e-05)
(1.03483 3.40217e-05 5.19089e-05)
(1.03481 -4.47528e-05 -4.69449e-05)
(1.03478 4.01408e-05 3.50458e-05)
(1.03485 -2.37673e-05 -4.51534e-06)
(1.03478 5.11675e-05 -2.43778e-05)
(1.03484 -1.41154e-05 4.39207e-05)
(1.03479 4.88159e-05 -4.13933e-05)
(1.03481 -1.54828e-05 3.36879e-05)
(1.03482 4.47109e-05 -1.11977e-05)
(1.03478 3.3763e-05 9.55933e-06)
(1.03481 8.46622e-06 7.93459e-06)
(1.03479 3.02555e-05 1.28779e-05)
(1.0348 2.14313e-05 2.18469e-06)
(1.03479 4.13978e-06 2.03788e-05)
(1.0348 4.21136e-05 7.19793e-06)
(1.03477 1.64921e-06 2.168e-05)
(1.03478 1.37286e-05 1.40927e-05)
(1.03481 -1.59737e-05 7.43509e-06)
(1.03477 2.97334e-05 3.02792e-05)
(1.0348 -5.84753e-06 2.67453e-06)
(1.03479 4.54818e-07 3.10434e-05)
(1.03476 5.36185e-06 6.87264e-06)
(1.03482 -3.77692e-05 2.2398e-05)
(1.03477 3.08301e-05 -1.20357e-05)
(1.0348 -1.5393e-05 4.83916e-05)
(1.03475 -1.3871e-05 -3.39514e-05)
(1.03482 -1.67824e-05 3.76256e-05)
(1.03477 -3.72585e-05 -5.15518e-06)
(1.03479 3.56127e-07 -1.4399e-05)
(1.03483 -2.18716e-05 3.54138e-05)
(1.03472 -1.44434e-05 -3.80089e-05)
(1.03486 -2.85517e-05 3.15336e-05)
(1.03475 -4.57909e-05 -1.48547e-05)
(1.03486 3.0938e-05 1.05097e-05)
(1.03477 -5.91826e-05 -1.71818e-05)
(1.0348 6.47996e-05 1.92512e-05)
(1.03484 -8.1361e-05 -1.69486e-05)
(1.03474 3.5645e-05 -2.20624e-07)
(1.03488 -8.07089e-06 1.09542e-05)
(1.03476 -5.42092e-06 -3.78581e-05)
(1.03482 4.3945e-05 5.05959e-05)
(1.03481 -5.0873e-05 -4.37949e-05)
(1.03479 3.72007e-05 3.70194e-05)
(1.03485 -8.18812e-06 -6.17443e-06)
(1.03478 4.50538e-05 -2.129e-05)
(1.03483 1.2521e-05 4.59484e-05)
(1.03479 2.81033e-05 -4.20809e-05)
(1.03481 7.02239e-06 3.95555e-05)
(1.03483 4.00871e-05 -1.21986e-05)
(1.03478 4.31073e-05 1.40042e-05)
(1.03481 2.678e-05 1.32587e-05)
(1.0348 1.23421e-05 1.67903e-05)
(1.0348 4.06234e-05 6.99523e-06)
(1.03479 -3.11139e-06 2.56239e-05)
(1.0348 5.07484e-05 1.04322e-05)
(1.03476 6.98827e-06 3.18244e-05)
(1.03478 -3.75244e-06 1.94955e-05)
(1.03481 -9.36537e-06 1.4313e-05)
(1.03477 2.27226e-05 3.60363e-05)
(1.0348 -2.72687e-06 1.26315e-05)
(1.03479 9.66053e-07 4.17208e-05)
(1.03475 -9.87932e-06 1.14217e-05)
(1.03483 -3.71417e-05 3.16285e-05)
(1.03477 2.6032e-05 -9.69952e-06)
(1.03479 -9.51574e-06 5.58922e-05)
(1.03475 -2.37834e-05 -3.20081e-05)
(1.03482 -2.93812e-05 4.92613e-05)
(1.03478 -4.28076e-05 -9.69792e-06)
(1.0348 -1.06895e-05 -6.29076e-06)
(1.03482 -1.35148e-05 3.48028e-05)
(1.03472 -2.82296e-05 -3.58603e-05)
(1.03486 -4.156e-05 3.97134e-05)
(1.03476 -5.37837e-05 -1.45713e-05)
(1.03485 3.11429e-05 1.29099e-05)
(1.03478 -5.6626e-05 -1.22365e-05)
(1.0348 6.47104e-05 1.87604e-05)
(1.03483 -8.4866e-05 -1.03445e-05)
(1.03476 2.31584e-05 -8.14287e-07)
(1.03487 6.69946e-06 7.41829e-06)
(1.03477 -7.81931e-06 -3.10092e-05)
(1.03481 5.37904e-05 4.71686e-05)
(1.0348 -6.14303e-05 -3.41878e-05)
(1.0348 3.70954e-05 3.75192e-05)
(1.03485 3.03879e-06 -6.08496e-06)
(1.03479 4.90997e-05 -1.67251e-05)
(1.03483 3.24262e-05 4.8143e-05)
(1.03478 1.30442e-05 -3.92609e-05)
(1.03482 2.35777e-05 4.61345e-05)
(1.03484 3.87294e-05 -1.34705e-05)
(1.03477 5.12611e-05 2.42107e-05)
(1.0348 4.80666e-05 1.86465e-05)
(1.0348 -9.82414e-06 2.56703e-05)
(1.03479 5.95056e-05 1.26661e-05)
(1.0348 -1.26448e-05 3.22548e-05)
(1.0348 6.15822e-05 1.66226e-05)
(1.03474 5.91997e-06 4.84874e-05)
(1.03478 -2.08764e-05 3.04054e-05)
(1.03482 -9.61656e-06 2.49915e-05)
(1.03477 1.31953e-05 4.26447e-05)
(1.03479 -3.37266e-07 2.85976e-05)
(1.03478 6.77356e-07 5.78787e-05)
(1.03474 -3.16449e-05 2.16661e-05)
(1.03484 -3.83337e-05 4.42468e-05)
(1.03478 1.68882e-05 -5.62205e-06)
(1.03478 -2.34647e-06 6.59364e-05)
(1.03474 -3.64949e-05 -2.42848e-05)
(1.03481 -4.78006e-05 6.56127e-05)
(1.03478 -5.11272e-05 -1.16939e-05)
(1.0348 -2.72729e-05 2.54715e-06)
(1.03482 -2.02906e-06 3.47807e-05)
(1.03471 -4.75502e-05 -2.60739e-05)
(1.03485 -5.70845e-05 4.90277e-05)
(1.03478 -6.85772e-05 -8.13815e-06)
(1.03485 3.08468e-05 1.27909e-05)
(1.03478 -5.37644e-05 -2.31575e-06)
(1.03479 6.45276e-05 2.08541e-05)
(1.03482 -9.2382e-05 2.05431e-06)
(1.03478 1.04086e-05 -1.60516e-06)
(1.03486 1.34014e-05 2.83395e-06)
(1.03478 -2.13749e-06 -2.2087e-05)
(1.0348 5.62595e-05 4.66003e-05)
(1.0348 -6.91726e-05 -1.89389e-05)
(1.03481 3.09836e-05 3.9199e-05)
(1.03486 1.36401e-05 -5.37551e-06)
(1.03479 5.84347e-05 -9.15558e-06)
(1.03482 4.87922e-05 5.4365e-05)
(1.03478 1.84001e-06 -3.13416e-05)
(1.03482 3.02901e-05 5.49936e-05)
(1.03485 4.13429e-05 -1.51336e-05)
(1.03478 5.70243e-05 4.09306e-05)
(1.03478 7.16417e-05 2.63507e-05)
(1.0348 -3.68095e-05 4.26934e-05)
(1.03479 7.71991e-05 1.95126e-05)
(1.03479 -2.82772e-05 4.22685e-05)
(1.03481 7.8169e-05 2.47348e-05)
(1.03472 -1.14799e-06 7.51743e-05)
(1.03477 -3.81755e-05 4.85222e-05)
(1.03482 -2.03932e-05 4.13526e-05)
(1.03478 1.79798e-07 5.08239e-05)
(1.03479 -4.26855e-06 5.41513e-05)
(1.03477 5.66643e-07 8.29679e-05)
(1.03473 -6.17654e-05 4.06014e-05)
(1.03485 -4.34586e-05 6.05233e-05)
(1.03479 -1.08331e-06 2.12486e-06)
(1.03477 4.92197e-06 7.97199e-05)
(1.03473 -5.51073e-05 -7.22658e-06)
(1.03481 -7.09196e-05 8.94119e-05)
(1.03478 -6.87225e-05 -9.11578e-06)
(1.03481 -4.785e-05 1.10946e-05)
(1.03481 3.34685e-06 3.8025e-05)
(1.03469 -6.85508e-05 -7.46311e-06)
(1.03485 -8.04057e-05 6.34926e-05)
(1.0348 -8.97437e-05 5.03878e-06)
(1.03486 2.27871e-05 1.10466e-05)
(1.03479 -4.98018e-05 1.33657e-05)
(1.03478 6.16938e-05 2.76923e-05)
(1.03481 -0.000102068 2.36659e-05)
(1.0348 -6.9209e-06 -2.26863e-06)
(1.03486 1.11524e-05 -1.26465e-06)
(1.03478 9.24261e-06 -1.2134e-05)
(1.03478 5.22333e-05 5.44363e-05)
(1.03479 -7.45923e-05 2.48733e-06)
(1.03483 1.52379e-05 4.5379e-05)
(1.03486 2.35157e-05 -5.21595e-06)
(1.0348 6.80047e-05 4.25886e-06)
(1.0348 6.74648e-05 6.60435e-05)
(1.03477 -1.13254e-05 -1.52867e-05)
(1.03483 3.04708e-05 6.65867e-05)
(1.03485 3.7174e-05 -1.48589e-05)
(1.03478 6.15088e-05 6.54282e-05)
(1.03476 9.23113e-05 4.11971e-05)
(1.0348 -6.60445e-05 6.94611e-05)
(1.03479 8.70964e-05 2.84648e-05)
(1.03479 -5.16164e-05 5.69226e-05)
(1.03481 9.56799e-05 3.56407e-05)
(1.03469 -1.18685e-05 0.000120749)
(1.03476 -6.17878e-05 8.1614e-05)
(1.03483 -4.53672e-05 6.30774e-05)
(1.03478 -2.09824e-05 5.86429e-05)
(1.03479 -1.49067e-05 9.06529e-05)
(1.03476 -3.72568e-06 0.00012502)
(1.03472 -0.00010249 7.5414e-05)
(1.03486 -6.01807e-05 7.95208e-05)
(1.03479 -3.03014e-05 1.18675e-05)
(1.03475 8.51742e-06 9.80077e-05)
(1.03471 -7.9767e-05 2.71834e-05)
(1.0348 -0.000100614 0.000127342)
(1.03478 -0.000105384 -1.99289e-06)
(1.03482 -7.52705e-05 1.56272e-05)
(1.03481 6.41157e-07 4.65928e-05)
(1.03467 -9.09912e-05 2.6498e-05)
(1.03484 -0.000117246 9.01731e-05)
(1.03481 -0.000120853 2.31086e-05)
(1.03486 7.46721e-07 5.53911e-06)
(1.03479 -4.53765e-05 3.53329e-05)
(1.03477 5.39396e-05 4.81232e-05)
(1.03479 -0.000115155 5.84908e-05)
(1.03481 -3.81968e-05 -3.43298e-06)
(1.03487 -1.20673e-06 -8.17247e-06)
(1.03479 1.87542e-05 6.3353e-07)
(1.03476 4.49737e-05 7.73907e-05)
(1.03478 -8.30549e-05 3.50402e-05)
(1.03485 -1.14398e-05 5.64959e-05)
(1.03487 2.47597e-05 -9.19268e-06)
(1.0348 7.73727e-05 2.56459e-05)
(1.03478 8.62984e-05 9.13417e-05)
(1.03476 -2.77388e-05 1.56794e-05)
(1.03484 1.91544e-05 7.91996e-05)
(1.03485 2.099e-05 -1.32611e-05)
(1.03479 6.58508e-05 9.73806e-05)
(1.03473 0.000104876 7.39244e-05)
(1.03479 -9.50736e-05 0.000110467)
(1.03479 8.11598e-05 4.11872e-05)
(1.03479 -8.24974e-05 7.1926e-05)
(1.03482 0.000108197 5.21394e-05)
(1.03465 -2.02414e-05 0.00019227)
(1.03475 -8.99092e-05 0.000137939)
(1.03483 -9.27507e-05 8.80668e-05)
(1.03478 -6.582e-05 6.20135e-05)
(1.03478 -3.35454e-05 0.000139188)
(1.03473 -8.73771e-06 0.000193868)
(1.03471 -0.000149407 0.00013214)
(1.03487 -0.000102269 0.000100158)
(1.0348 -7.89463e-05 1.89898e-05)
(1.03474 2.95704e-06 0.000120769)
(1.03468 -0.000104473 8.63297e-05)
(1.03479 -0.000135695 0.000186902)
(1.03478 -0.000168589 7.14392e-06)
(1.03484 -0.00012417 9.02332e-06)
(1.0348 -1.44553e-05 5.93952e-05)
(1.03464 -0.000110603 8.30381e-05)
(1.03483 -0.000166134 0.000136569)
(1.03483 -0.000171193 4.29491e-05)
(1.03487 -4.39632e-05 -1.05645e-05)
(1.03479 -4.34913e-05 6.25214e-05)
(1.03475 4.54742e-05 9.13853e-05)
(1.03477 -0.000131493 0.00011351)
(1.03483 -9.21261e-05 -7.33804e-06)
(1.03487 -3.24747e-05 -2.57684e-05)
(1.03479 1.91424e-05 1.54683e-05)
(1.03474 3.97474e-05 0.000124232)
(1.03477 -9.80451e-05 8.55705e-05)
(1.03486 -5.60823e-05 7.05999e-05)
(1.03488 5.29217e-06 -2.25874e-05)
(1.03481 8.61663e-05 5.43775e-05)
(1.03476 0.000106898 0.000139013)
(1.03475 -4.47965e-05 6.72806e-05)
(1.03484 -1.72831e-05 9.17063e-05)
(1.03486 -1.67212e-05 -1.56659e-05)
(1.0348 6.44094e-05 0.000136929)
(1.03469 0.000114949 0.000134259)
(1.03478 -0.000124887 0.000170865)
(1.03479 4.98652e-05 5.71633e-05)
(1.0348 -0.000131352 7.97657e-05)
(1.03483 0.000111029 7.50374e-05)
(1.03461 -2.56904e-05 0.000309866)
(1.03474 -0.000123032 0.000235748)
(1.03484 -0.000170266 0.000106358)
(1.0348 -0.000142876 3.7526e-05)
(1.03479 -6.82548e-05 0.000192186)
(1.0347 -1.62986e-05 0.00031017)
(1.03469 -0.000201487 0.000225654)
(1.03489 -0.000176562 0.000112353)
(1.03483 -0.000156676 -7.039e-07)
(1.03473 -1.90749e-05 0.000142107)
(1.03465 -0.000128491 0.000188183)
(1.03478 -0.000181314 0.000284437)
(1.0348 -0.000263369 9.27313e-06)
(1.03487 -0.000205371 -3.00491e-05)
(1.03479 -4.64639e-05 7.00371e-05)
(1.03461 -0.000131764 0.000181791)
(1.03482 -0.000228405 0.000216747)
(1.03486 -0.000250582 5.3068e-05)
(1.0349 -0.000122264 -6.13162e-05)
(1.0348 -5.1387e-05 8.91819e-05)
(1.03472 3.89916e-05 0.000174863)
(1.03474 -0.000152495 0.000204555)
(1.03486 -0.000177022 -2.32345e-05)
(1.0349 -9.67245e-05 -7.66369e-05)
(1.0348 4.71559e-06 2.61634e-05)
(1.03471 3.8747e-05 0.000211724)
(1.03475 -0.00012081 0.000170384)
(1.03489 -0.00012593 7.72342e-05)
(1.03491 -4.76141e-05 -6.7441e-05)
(1.03482 8.81628e-05 8.66468e-05)
(1.03473 0.000130555 0.000229243)
(1.03473 -6.36926e-05 0.000154843)
(1.03486 -8.84107e-05 9.34513e-05)
(1.03488 -8.49113e-05 -4.54871e-05)
(1.03482 4.72116e-05 0.000179289)
(1.03465 0.00012676 0.000242578)
(1.03478 -0.000157476 0.000265287)
(1.03481 -1.23814e-05 6.70472e-05)
(1.03482 -0.000212814 5.54957e-05)
(1.03484 0.000100496 0.00010037)
(1.03457 -1.48068e-05 0.000495451)
(1.03476 -0.000164125 0.000424209)
(1.03493 -0.000304119 0.000130095)
(1.03488 -0.000266277 -5.36867e-05)
(1.03481 -0.000113309 0.000217049)
(1.03468 -1.16599e-05 0.000495599)
(1.03472 -0.000266494 0.000405902)
(1.03499 -0.000307442 0.000126363)
(1.03491 -0.000278782 -8.68143e-05)
(1.03474 -5.36736e-05 0.000130634)
(1.03463 -0.000138316 0.000357127)
(1.03482 -0.000240136 0.000467899)
(1.03489 -0.000413113 1.23098e-05)
(1.03496 -0.000339058 -0.00013611)
(1.03481 -9.14646e-05 4.92175e-05)
(1.03459 -0.000143446 0.000348645)
(1.03486 -0.000307819 0.000378771)
(1.03497 -0.000379448 6.18606e-05)
(1.03499 -0.000249694 -0.000189123)
(1.03482 -6.71409e-05 8.4234e-05)
(1.0347 4.53811e-05 0.000325596)
(1.03475 -0.000185983 0.000382695)
(1.03496 -0.000314754 -4.12535e-05)
(1.03498 -0.000212434 -0.000197237)
(1.03483 -2.53135e-05 2.89349e-06)
(1.0347 5.05253e-05 0.000364156)
(1.03478 -0.000153909 0.000338681)
(1.03498 -0.000242451 8.5558e-05)
(1.035 -0.000148909 -0.000186189)
(1.03484 8.57364e-05 9.04146e-05)
(1.03469 0.000170015 0.000389073)
(1.03474 -9.13464e-05 0.000329824)
(1.03495 -0.000217111 0.00010039)
(1.03497 -0.000201902 -0.000142384)
(1.03486 1.81384e-05 0.000188417)
(1.03462 0.000151016 0.000421921)
(1.03481 -0.000199208 0.000443495)
(1.0349 -0.000126074 7.98008e-05)
(1.03491 -0.000344026 -4.08426e-05)
(1.03487 8.21302e-05 9.65051e-05)
(1.03456 1.19612e-05 0.000781838)
(1.03486 -0.00021563 0.00083439)
(1.03513 -0.000509899 0.000240629)
(1.03503 -0.000454162 -0.000261866)
(1.03485 -0.00017284 0.000134351)
(1.03467 1.26495e-05 0.000781297)
(1.03483 -0.000343701 0.000810512)
(1.03521 -0.000510824 0.000224448)
(1.03505 -0.000463586 -0.000293697)
(1.03476 -0.000104538 1.62015e-05)
(1.03465 -0.000130838 0.000636987)
(1.03494 -0.000313189 0.000865176)
(1.03511 -0.000630406 0.000101446)
(1.03511 -0.000542899 -0.000343992)
(1.03483 -0.000161558 -6.68617e-05)
(1.03461 -0.000142945 0.000623602)
(1.035 -0.000404307 0.000759604)
(1.03519 -0.000574209 0.000152162)
(1.03512 -0.000442483 -0.000444663)
(1.03485 -9.46903e-05 -3.41628e-05)
(1.03469 6.98164e-05 0.000580994)
(1.03483 -0.000238112 0.000788053)
(1.0352 -0.000524591 3.11924e-05)
(1.03512 -0.000399179 -0.00042617)
(1.03488 -7.62737e-05 -0.000116454)
(1.03471 7.45873e-05 0.000616708)
(1.03489 -0.000203153 0.000728181)
(1.03519 -0.000422864 0.000174512)
(1.03512 -0.000315015 -0.000437041)
(1.03486 7.11748e-05 -1.57915e-05)
(1.03466 0.000218607 0.000657383)
(1.03485 -0.000137715 0.000735311)
(1.03516 -0.000418972 0.000204974)
(1.03514 -0.0003861 -0.000351565)
(1.03491 -3.11139e-05 7.42902e-05)
(1.0346 0.000191428 0.000696903)
(1.03494 -0.000258692 0.000843298)
(1.03512 -0.000307626 0.00017665)
(1.03509 -0.000537853 -0.000256679)
(1.03491 5.29801e-05 -1.27769e-05)
(1.03451 1.3179e-05 0.00122288)
(1.03487 -0.000306912 0.00165558)
(1.03508 -0.00078516 0.000552697)
(1.03485 -0.000694677 -0.000657523)
(1.03465 -0.0002598 -0.000162442)
(1.03456 7.26795e-06 0.00121847)
(1.03482 -0.000458606 0.00163631)
(1.03516 -0.000772953 0.000523195)
(1.03492 -0.000699557 -0.000701581)
(1.03457 -0.000196622 -0.000298753)
(1.03469 -0.000147037 0.00110133)
(1.03494 -0.000424842 0.00164708)
(1.03511 -0.000903692 0.000400851)
(1.03494 -0.000804095 -0.000698521)
(1.03463 -0.00027361 -0.000362914)
(1.03454 -0.000170113 0.00107222)
(1.03501 -0.000534558 0.00156213)
(1.03514 -0.000820911 0.000445338)
(1.03489 -0.000690613 -0.000900279)
(1.03469 -0.000161377 -0.000378077)
(1.03461 6.80382e-05 0.00100344)
(1.0348 -0.000335588 0.00162742)
(1.03519 -0.000799076 0.00033195)
(1.03492 -0.00064509 -0.000813834)
(1.0347 -0.000169219 -0.000408186)
(1.03469 7.75812e-05 0.00103251)
(1.03486 -0.000288181 0.00154746)
(1.03517 -0.00066502 0.000456859)
(1.03487 -0.00054084 -0.000907031)
(1.03469 2.00379e-05 -0.00033057)
(1.03452 0.000229302 0.00110295)
(1.03489 -0.000234777 0.00159121)
(1.03511 -0.000688533 0.000550248)
(1.03502 -0.00062639 -0.000733686)
(1.03473 -0.000121426 -0.000284996)
(1.0345 0.000204111 0.0011141)
(1.03497 -0.000359748 0.00166554)
(1.03509 -0.000554089 0.000472754)
(1.03495 -0.000784359 -0.000657653)
(1.03474 -4.65571e-06 -0.000327248)
(1.03378 -6.59957e-05 0.00197112)
(1.03368 -0.000392394 0.00280453)
(1.03339 -0.00103032 0.000789266)
(1.03316 -0.000971184 -0.00141499)
(1.0335 -0.00043559 -0.0005913)
(1.03363 -7.16727e-05 0.00194313)
(1.03358 -0.000568119 0.00278865)
(1.03342 -0.00101576 0.000735081)
(1.03349 -0.00096744 -0.00149538)
(1.03348 -0.000391366 -0.00071575)
(1.03414 -0.000227592 0.00189803)
(1.03367 -0.000529225 0.00270294)
(1.03358 -0.00113997 0.000650532)
(1.03326 -0.00109633 -0.00137277)
(1.03348 -0.00047856 -0.000755176)
(1.03363 -0.000257662 0.00182639)
(1.03374 -0.000640236 0.0027167)
(1.0334 -0.00103641 0.000664953)
(1.03313 -0.000976101 -0.0017422)
(1.03367 -0.000334715 -0.00085447)
(1.03373 -1.26218e-05 0.00175795)
(1.03357 -0.000432756 0.00284752)
(1.03345 -0.001041 0.000595582)
(1.03318 -0.000923446 -0.00151567)
(1.03343 -0.000368422 -0.000778081)
(1.03395 5.01059e-06 0.00176236)
(1.03351 -0.000364323 0.00273749)
(1.03357 -0.000877624 0.000656555)
(1.03304 -0.000817978 -0.00176959)
(1.0337 -0.000156444 -0.000729516)
(1.03351 0.000137971 0.00189239)
(1.03374 -0.000337861 0.00284355)
(1.03332 -0.000928707 0.000874987)
(1.0334 -0.000899734 -0.00147229)
(1.0335 -0.000320659 -0.000807005)
(1.0336 0.0001238 0.0018239)
(1.03372 -0.000452675 0.00283331)
(1.03337 -0.000774761 0.000682277)
(1.03333 -0.00106502 -0.00141457)
(1.03368 -0.00017164 -0.000747943)
(1.03009 -0.0001763 0.00318041)
(1.02863 -0.000365517 0.00348978)
(1.02791 -0.00113641 8.70906e-05)
(1.02832 -0.001257 -0.00252002)
(1.02979 -0.000711081 -0.00050975)
(1.02961 -0.000172521 0.00307352)
(1.02868 -0.000544598 0.00343577)
(1.02791 -0.00114441 -3.16412e-05)
(1.02932 -0.00127345 -0.00265657)
(1.02981 -0.000699791 -0.000584427)
(1.03081 -0.000315362 0.00311068)
(1.0285 -0.000508581 0.00325514)
(1.02846 -0.00123921 2.55907e-05)
(1.0283 -0.0013928 -0.00240408)
(1.02976 -0.000770901 -0.000628747)
(1.0295 -0.000345011 0.00301419)
(1.02867 -0.000597975 0.00343875)
(1.02776 -0.00112611 -8.90856e-05)
(1.02831 -0.00129076 -0.0029397)
(1.03004 -0.000636317 -0.000754321)
(1.02965 -0.00011466 0.00304151)
(1.02846 -0.000410489 0.00367579)
(1.02758 -0.0011511 -6.15155e-05)
(1.02821 -0.00121357 -0.00252166)
(1.02927 -0.000660132 -0.000643387)
(1.03017 -8.65199e-05 0.00297442)
(1.02809 -0.000327082 0.00350531)
(1.02819 -0.000980436 -0.000103381)
(1.02788 -0.00114229 -0.00294851)
(1.03012 -0.000461087 -0.000506341)
(1.02911 4.24687e-07 0.00316745)
(1.02876 -0.000325061 0.00370859)
(1.02738 -0.00103312 0.000264163)
(1.02861 -0.00120023 -0.00260758)
(1.02936 -0.00062675 -0.000827756)
(1.02963 5.85844e-06 0.00298687)
(1.02851 -0.000422317 0.0035393)
(1.02776 -0.000876765 -7.6334e-05)
(1.02862 -0.00136845 -0.00250831)
(1.03007 -0.000463016 -0.000640408)
(1.01892 -7.26333e-05 0.00418012)
(1.01633 -0.000286119 0.00246806)
(1.01669 -0.00126552 -0.00163802)
(1.01815 -0.00147848 -0.00280551)
(1.02001 -0.000777508 0.000915411)
(1.01838 -7.56126e-05 0.00389882)
(1.01714 -0.000464294 0.00234759)
(1.01686 -0.00132217 -0.00187382)
(1.0201 -0.00153001 -0.00294911)
(1.0198 -0.000791814 0.000937867)
(1.02023 -0.000186793 0.00398943)
(1.01605 -0.000426573 0.0021969)
(1.01764 -0.00136104 -0.00156632)
(1.0175 -0.00162729 -0.00267161)
(1.01986 -0.000841486 0.000872111)
(1.0176 -0.000207297 0.00400029)
(1.01659 -0.000485269 0.00247564)
(1.01592 -0.00126713 -0.00194447)
(1.01813 -0.0015729 -0.00316135)
(1.01952 -0.000748771 0.000895744)
(1.01772 -6.17115e-06 0.00423034)
(1.01574 -0.000331826 0.00279275)
(1.01535 -0.00128896 -0.00178462)
(1.01756 -0.00145099 -0.00268204)
(1.01847 -0.000760415 0.000799336)
(1.01865 3.20777e-05 0.00403501)
(1.01509 -0.000246873 0.00252952)
(1.01672 -0.0011544 -0.00191895)
(1.01685 -0.00144068 -0.00314339)
(1.01991 -0.000581886 0.00119004)
(1.01666 6.19326e-05 0.00419008)
(1.01647 -0.000258319 0.00288965)
(1.01503 -0.00117228 -0.00152553)
(1.01835 -0.00146601 -0.00299833)
(1.01847 -0.000734243 0.00055501)
(1.01834 7.98203e-05 0.00394377)
(1.01591 -0.000330969 0.00251471)
(1.01643 -0.00104892 -0.00188324)
(1.01856 -0.00162018 -0.00273242)
(1.02018 -0.000567447 0.000830642)
(0.995823 0.000117117 0.00326003)
(0.994543 -0.000499869 -2.29462e-05)
(0.996926 -0.0014673 -0.00233976)
(0.998042 -0.00129932 -0.000956035)
(0.998758 -0.000363564 0.00267395)
(0.996024 7.69019e-05 0.00275931)
(0.996507 -0.000678783 -0.000123665)
(0.997192 -0.00157354 -0.00266111)
(1.00036 -0.00134982 -0.000930477)
(0.997544 -0.000361018 0.00279394)
(0.997678 3.02314e-05 0.00294)
(0.993567 -0.000620946 -5.297e-05)
(0.997601 -0.00154952 -0.00217101)
(0.995693 -0.00145503 -0.000775281)
(0.997856 -0.000401687 0.00280787)
(0.993277 5.31907e-06 0.00310789)
(0.994724 -0.000681457 5.76701e-05)
(0.994286 -0.00151794 -0.00266213)
(0.997236 -0.00142608 -0.000878471)
(0.995422 -0.000325181 0.00300081)
(0.993558 0.000188086 0.00346269)
(0.992348 -0.000561118 0.000273148)
(0.994021 -0.0015158 -0.00249173)
(0.996025 -0.00130262 -0.000739058)
(0.995297 -0.000373632 0.00257283)
(0.99449 0.000228163 0.00319242)
(0.991998 -0.000493298 -2.12134e-05)
(0.995729 -0.00142479 -0.00259667)
(0.995023 -0.0013135 -0.000978599)
(0.996907 -0.000199043 0.00318904)
(0.992036 0.000199231 0.00317475)
(0.994221 -0.000482066 0.000503484)
(0.993486 -0.00141861 -0.00254346)
(0.997928 -0.00134158 -0.00116655)
(0.995281 -0.000329552 0.00237594)
(0.995643 0.00023211 0.00301245)
(0.99332 -0.000534828 1.90152e-05)
(0.996799 -0.00132596 -0.00257549)
(0.998064 -0.00143864 -0.000727565)
(0.998345 -0.000168888 0.00268053)
(0.959256 -0.000211481 0.000822418)
(0.960801 -0.000961402 -0.00107331)
(0.962843 -0.00122593 -0.00066091)
(0.962279 -0.000551727 0.00118212)
(0.962303 1.79011e-05 0.00225864)
(0.960527 -0.000284349 0.000310016)
(0.962713 -0.00109025 -0.000998467)
(0.962153 -0.00130887 -0.000931644)
(0.963135 -0.000542685 0.00151607)