/*--------------------------------*- C++ -*----------------------------------*\
  =========                 |
  \\      /  F ield         | OpenFOAM: The Open Source CFD Toolbox
   \\    /   O peration     | Website:  https://openfoam.org
    \\  /    A nd           | Version:  10
     \\/     M anipulation  |
\*---------------------------------------------------------------------------*/
FoamFile
{
    format      ascii;
    class       volSymmTensorField;
    location    "17.5";
    object      UPrime2Mean;
}
// * * * * * * * * * * * * * * * * * * * * * * * * * * * * * * * * * * * * * //

dimensions      [0 2 -2 0 0 0 0];

internalField   nonuniform List<symmTensor> 
25600
(
(7.064e-05 4.80518e-09 3.22777e-09 8.24827e-10 1.69404e-10 1.45311e-10)
(7.06804e-05 -4.21933e-10 8.70326e-09 7.68508e-10 1.67038e-10 1.43942e-10)
(7.06439e-05 -1.02409e-10 5.66928e-12 7.60714e-10 1.32829e-10 1.29952e-10)
(7.06692e-05 1.33097e-09 1.09907e-08 7.63616e-10 1.16524e-10 1.21441e-10)
(7.0662e-05 -8.76798e-09 -4.06495e-09 7.69524e-10 8.98934e-11 1.1718e-10)
(7.06555e-05 3.40411e-09 1.36489e-08 7.69434e-10 8.68936e-11 1.19916e-10)
(7.06702e-05 -1.73171e-08 -3.23188e-09 7.12235e-10 6.46148e-11 1.12948e-10)
(7.06596e-05 6.43025e-09 1.10141e-08 7.33041e-10 3.76729e-11 1.0599e-10)
(7.06702e-05 -2.3186e-08 1.53547e-09 6.97917e-10 2.01453e-11 1.0659e-10)
(7.06559e-05 5.4285e-09 6.11347e-09 7.0928e-10 1.54733e-11 1.10243e-10)
(7.06878e-05 -2.07515e-08 6.60444e-09 7.25644e-10 1.29327e-11 1.21809e-10)
(7.06507e-05 -2.62781e-09 9.8147e-10 7.3858e-10 4.25092e-12 1.2803e-10)
(7.06807e-05 -7.49569e-09 1.18597e-08 8.16636e-10 8.01169e-12 1.37541e-10)
(7.06742e-05 -1.73069e-08 -3.32548e-09 9.02086e-10 1.24167e-11 1.48032e-10)
(7.06592e-05 9.96714e-09 1.57655e-08 9.81176e-10 3.368e-11 1.43304e-10)
(7.06883e-05 -2.666e-08 -4.88145e-09 9.98269e-10 3.99737e-11 1.50461e-10)
(7.06648e-05 1.73036e-08 1.33875e-08 9.84802e-10 1.80478e-11 1.67837e-10)
(7.06742e-05 -2.10912e-08 4.4896e-10 9.93212e-10 1.72745e-12 1.86893e-10)
(7.06718e-05 1.31066e-08 5.34287e-09 9.84035e-10 -2.86182e-11 1.9104e-10)
(7.06702e-05 -9.44614e-09 6.75429e-09 1.0489e-09 -2.20171e-11 1.75263e-10)
(7.06678e-05 4.56617e-09 2.93394e-10 1.08125e-09 1.34161e-11 1.75378e-10)
(7.06694e-05 1.00571e-08 1.22183e-08 1.15233e-09 5.07635e-11 1.78112e-10)
(7.06643e-05 -1.12553e-08 -4.9357e-09 1.24936e-09 8.19346e-11 1.76468e-10)
(7.06629e-05 2.83461e-08 1.32776e-08 1.28168e-09 9.16653e-11 1.80837e-10)
(7.06629e-05 -1.6553e-08 -3.28045e-09 1.35687e-09 1.25477e-10 1.80286e-10)
(7.06665e-05 2.85124e-08 8.57018e-09 1.37506e-09 1.57672e-10 1.8864e-10)
(7.0652e-05 -5.77079e-09 1.6831e-09 1.44454e-09 1.89087e-10 1.92493e-10)
(7.0665e-05 1.875e-08 3.47848e-09 1.45168e-09 2.24568e-10 1.98442e-10)
(7.06494e-05 4.61211e-09 6.2502e-09 1.47136e-09 2.42123e-10 2.06626e-10)
(7.06556e-05 1.19331e-08 1.12414e-09 1.45975e-09 2.44224e-10 1.98318e-10)
(7.0658e-05 1.25187e-08 7.3595e-09 1.38321e-09 2.39222e-10 1.87839e-10)
(7.06423e-05 1.68584e-09 5.73054e-10 1.34211e-09 2.49561e-10 1.87421e-10)
(7.06587e-05 2.20767e-08 8.06854e-09 1.25488e-09 2.68048e-10 1.97431e-10)
(7.06456e-05 -7.46397e-09 -4.73544e-10 1.16479e-09 2.71559e-10 2.00835e-10)
(7.06614e-05 2.42713e-08 1.12913e-08 1.09498e-09 2.59179e-10 1.93643e-10)
(7.06396e-05 -4.97904e-09 -1.70352e-09 1.05605e-09 2.38178e-10 1.7558e-10)
(7.06665e-05 1.60037e-08 1.17454e-08 1.02399e-09 2.20444e-10 1.72751e-10)
(7.06478e-05 4.01361e-10 5.42927e-10 9.79179e-10 1.87725e-10 1.63703e-10)
(7.06505e-05 8.86118e-09 6.29372e-09 9.46528e-10 1.76572e-10 1.55232e-10)
(7.06694e-05 4.1374e-10 6.08821e-09 8.67294e-10 1.6249e-10 1.48026e-10)
(7.06421e-05 5.07996e-09 3.86875e-09 7.88216e-10 1.58847e-10 1.12508e-10)
(7.06741e-05 -1.54559e-09 9.00276e-09 7.56044e-10 1.63845e-10 9.63444e-11)
(7.06467e-05 -2.3899e-09 1.68645e-09 7.74515e-10 1.44779e-10 8.3407e-11)
(7.06616e-05 3.51737e-10 8.7145e-09 7.54652e-10 1.389e-10 8.12163e-11)
(7.06637e-05 -9.56768e-09 -1.16541e-09 7.09941e-10 1.07001e-10 8.30774e-11)
(7.06486e-05 9.65179e-10 1.05189e-08 6.99842e-10 9.74434e-11 8.25458e-11)
(7.0672e-05 -1.61086e-08 -7.0272e-10 6.43179e-10 8.65497e-11 7.19359e-11)
(7.06546e-05 2.43448e-09 8.24218e-09 6.77658e-10 6.42996e-11 8.0124e-11)
(7.06686e-05 -2.19495e-08 2.19791e-09 6.64908e-10 5.89655e-11 8.64348e-11)
(7.06602e-05 1.46063e-09 5.94329e-09 6.82598e-10 6.1483e-11 9.16467e-11)
(7.06781e-05 -1.78844e-08 3.50832e-09 7.17722e-10 5.09387e-11 1.07012e-10)
(7.06652e-05 -8.51756e-09 4.08905e-09 7.51556e-10 3.46841e-11 1.21246e-10)
(7.06666e-05 -2.77896e-09 7.59062e-09 8.45465e-10 3.15876e-11 1.54394e-10)
(7.06895e-05 -2.20933e-08 -7.24775e-10 9.11843e-10 4.66622e-11 1.82462e-10)
(7.06526e-05 1.1419e-08 1.34566e-08 9.01678e-10 6.40291e-11 1.94084e-10)
(7.06935e-05 -2.6572e-08 -4.02363e-09 8.83931e-10 6.47679e-11 2.04433e-10)
(7.06708e-05 1.57114e-08 1.25696e-08 8.46664e-10 3.98545e-11 1.97748e-10)
(7.06694e-05 -2.00414e-08 1.33796e-09 8.69925e-10 2.99033e-11 1.90025e-10)
(7.0684e-05 1.12753e-08 5.67369e-09 8.45961e-10 1.06038e-11 1.73086e-10)
(7.06602e-05 -7.21329e-09 6.34139e-09 9.16316e-10 2.25288e-11 1.55548e-10)
(7.06882e-05 1.15632e-09 3.31376e-09 9.64088e-10 4.97907e-11 1.6107e-10)
(7.06534e-05 1.38748e-08 9.89407e-09 1.0381e-09 6.91747e-11 1.70431e-10)
(7.06818e-05 -1.39828e-08 5.06788e-10 1.15013e-09 8.5458e-11 1.78524e-10)
(7.0659e-05 3.01594e-08 1.13846e-08 1.11218e-09 8.9078e-11 1.86632e-10)
(7.06624e-05 -1.62483e-08 1.10245e-09 1.16359e-09 1.25838e-10 1.8729e-10)
(7.06774e-05 2.90546e-08 9.13416e-09 1.13429e-09 1.55715e-10 1.99179e-10)
(7.06426e-05 -6.16315e-09 4.12439e-09 1.16262e-09 1.76486e-10 2.17708e-10)
(7.06757e-05 2.04512e-08 6.04134e-09 1.16833e-09 2.05406e-10 2.23435e-10)
(7.06426e-05 2.92054e-09 6.73946e-09 1.15318e-09 2.20118e-10 2.2273e-10)
(7.0664e-05 1.41789e-08 5.01126e-09 1.16015e-09 2.23069e-10 2.14606e-10)
(7.06475e-05 9.49309e-09 8.00009e-09 1.08804e-09 2.29127e-10 2.15363e-10)
(7.06522e-05 4.31365e-09 4.36908e-09 1.09939e-09 2.48198e-10 2.35716e-10)
(7.06497e-05 1.72394e-08 8.45665e-09 1.06353e-09 2.61062e-10 2.49687e-10)
(7.06481e-05 -4.35389e-09 3.67443e-09 9.74261e-10 2.66556e-10 2.46739e-10)
(7.06632e-05 1.91121e-08 1.14833e-08 9.42006e-10 2.56584e-10 2.29372e-10)
(7.06335e-05 -4.99387e-09 1.83344e-09 9.19428e-10 2.43579e-10 1.90983e-10)
(7.06704e-05 1.54533e-08 1.20587e-08 9.07653e-10 2.42515e-10 1.70205e-10)
(7.06416e-05 -4.69512e-09 3.1131e-09 8.76932e-10 2.1709e-10 1.4951e-10)
(7.0652e-05 1.11516e-08 6.81584e-09 8.32919e-10 1.98148e-10 1.33458e-10)
(7.06638e-05 -4.29228e-09 7.68879e-09 7.64745e-10 1.59871e-10 1.26808e-10)
(7.06449e-05 3.24781e-09 6.44867e-09 7.16411e-10 1.65236e-10 1.38766e-10)
(7.06676e-05 -2.92779e-09 8.18642e-09 6.57663e-10 1.78579e-10 1.40903e-10)
(7.06475e-05 -3.73754e-09 4.17976e-09 7.06105e-10 1.77048e-10 1.56996e-10)
(7.06569e-05 -3.63115e-09 6.86453e-09 6.46694e-10 1.76362e-10 1.62955e-10)
(7.06634e-05 -7.59484e-09 1.84947e-09 5.94171e-10 1.39669e-10 1.61583e-10)
(7.06442e-05 -6.35731e-09 8.18557e-09 6.10846e-10 1.27968e-10 1.46608e-10)
(7.06728e-05 -1.10842e-08 1.24115e-09 5.99434e-10 1.25277e-10 1.39652e-10)
(7.06496e-05 -8.01355e-09 6.56588e-09 6.34302e-10 1.12484e-10 1.64568e-10)
(7.06687e-05 -1.55907e-08 2.27505e-09 6.26965e-10 1.31328e-10 1.64596e-10)
(7.06633e-05 -8.73866e-09 7.04046e-09 6.15963e-10 1.19556e-10 1.71965e-10)
(7.06707e-05 -1.25565e-08 2.15584e-10 6.00249e-10 8.89268e-11 1.80107e-10)
(7.06774e-05 -1.60064e-08 8.30627e-09 6.51999e-10 5.90735e-11 1.88493e-10)
(7.06573e-05 -6.34758e-10 2.72886e-09 6.87411e-10 4.877e-11 2.33881e-10)
(7.06995e-05 -2.38458e-08 3.55106e-09 7.33761e-10 7.72836e-11 2.6067e-10)
(7.06515e-05 7.74645e-09 1.00962e-08 6.64148e-10 7.99174e-11 2.88014e-10)
(7.06962e-05 -2.25321e-08 -1.36658e-09 6.3041e-10 6.9516e-11 2.96075e-10)
(7.06765e-05 9.2176e-09 1.15981e-08 5.91521e-10 5.1802e-11 2.54512e-10)
(7.06668e-05 -1.56916e-08 2.93186e-09 6.15266e-10 5.40695e-11 2.25682e-10)
(7.06946e-05 6.93106e-09 7.08844e-09 6.00056e-10 4.40472e-11 2.01952e-10)
(7.06529e-05 -4.49155e-09 6.34261e-09 6.34624e-10 5.83739e-11 1.93415e-10)
(7.0705e-05 -1.26402e-10 7.68627e-09 6.79183e-10 5.89666e-11 2.05127e-10)
(7.06432e-05 1.2106e-08 7.09249e-09 6.93756e-10 4.8887e-11 2.14268e-10)
(7.06933e-05 -8.96148e-09 7.94464e-09 7.65121e-10 5.60041e-11 2.16231e-10)
(7.06593e-05 2.21767e-08 8.31558e-09 6.85705e-10 5.729e-11 2.17585e-10)
(7.06616e-05 -6.49771e-09 7.33438e-09 7.12808e-10 8.62324e-11 2.18861e-10)
(7.06849e-05 2.15023e-08 9.78805e-09 6.93014e-10 9.88074e-11 2.41666e-10)
(7.06375e-05 -1.33307e-10 6.69165e-09 7.22543e-10 1.04021e-10 2.70922e-10)
(7.06817e-05 1.78816e-08 1.02705e-08 7.50012e-10 1.12984e-10 2.74293e-10)
(7.06391e-05 3.72421e-09 6.73519e-09 7.14042e-10 1.23429e-10 2.67703e-10)
(7.06678e-05 1.61464e-08 1.02581e-08 7.48283e-10 1.22619e-10 2.61106e-10)
(7.06413e-05 4.63297e-09 8.843e-09 7.12028e-10 1.35726e-10 2.7331e-10)
(7.06565e-05 1.20657e-08 8.27574e-09 7.74362e-10 1.68904e-10 3.01601e-10)
(7.06439e-05 5.33181e-09 1.00379e-08 7.57839e-10 1.80746e-10 3.12365e-10)
(7.06492e-05 7.78943e-09 7.25209e-09 7.07767e-10 1.95773e-10 3.01939e-10)
(7.06608e-05 4.69679e-09 1.25664e-08 7.10954e-10 1.93564e-10 2.80813e-10)
(7.06332e-05 3.33095e-09 5.28356e-09 7.01103e-10 2.03782e-10 2.36656e-10)
(7.06676e-05 6.88408e-09 1.3142e-08 7.14057e-10 2.10185e-10 2.22436e-10)
(7.06404e-05 -3.19843e-09 5.18996e-09 7.29649e-10 1.98121e-10 1.97755e-10)
(7.06515e-05 7.79319e-09 9.33849e-09 6.96467e-10 1.76879e-10 1.66392e-10)
(7.0659e-05 -5.05215e-09 7.74574e-09 6.78347e-10 1.3948e-10 1.56164e-10)
(7.06457e-05 -3.50031e-09 1.05888e-08 7.44134e-10 2.25147e-10 2.21931e-10)
(7.06631e-05 -8.57809e-10 7.15962e-09 6.65948e-10 2.19333e-10 2.56401e-10)
(7.06459e-05 -9.66654e-09 7.49016e-09 7.66406e-10 2.33653e-10 2.8486e-10)
(7.06555e-05 -3.02886e-09 6.10849e-09 6.77698e-10 2.40105e-10 2.88603e-10)
(7.06598e-05 -1.1547e-08 4.35105e-09 6.63372e-10 2.02903e-10 2.88563e-10)
(7.06431e-05 -8.79055e-09 7.32377e-09 7.04806e-10 2.0005e-10 2.68319e-10)
(7.06697e-05 -1.18869e-08 2.40613e-09 7.30293e-10 1.9252e-10 2.85641e-10)
(7.06476e-05 -1.49652e-08 6.25232e-09 7.29771e-10 1.93032e-10 3.14044e-10)
(7.06679e-05 -1.22395e-08 2.3783e-09 7.3193e-10 2.26002e-10 2.89731e-10)
(7.06655e-05 -1.8407e-08 8.4931e-09 6.93585e-10 1.69406e-10 3.0495e-10)
(7.0667e-05 -8.60176e-09 -1.8051e-09 6.1603e-10 1.41912e-10 2.81473e-10)
(7.06849e-05 -2.34925e-08 1.20857e-08 7.06107e-10 1.02444e-10 2.78573e-10)
(7.06545e-05 2.35194e-10 -9.44181e-10 6.69645e-10 1.02674e-10 3.25722e-10)
(7.07036e-05 -2.61729e-08 8.439e-09 7.50869e-10 1.40994e-10 3.32328e-10)
(7.0655e-05 4.32908e-09 6.94458e-09 6.48304e-10 1.20176e-10 3.8074e-10)
(7.06965e-05 -2.10863e-08 2.81849e-09 6.44331e-10 9.61227e-11 3.7025e-10)
(7.06821e-05 4.34054e-09 1.06459e-08 6.27464e-10 8.35136e-11 3.03667e-10)
(7.06662e-05 -1.41619e-08 5.48176e-09 6.72414e-10 1.0441e-10 2.74579e-10)
(7.07024e-05 4.7249e-09 8.58741e-09 6.65376e-10 8.20291e-11 2.63573e-10)
(7.06495e-05 -5.30038e-09 7.66681e-09 6.19548e-10 1.09594e-10 2.67434e-10)
(7.07153e-05 1.74811e-09 1.17072e-08 6.77828e-10 8.59693e-11 2.79269e-10)
(7.06397e-05 5.07354e-09 6.22464e-09 5.97163e-10 6.89055e-11 2.90146e-10)
(7.06985e-05 -4.41152e-10 1.47861e-08 6.08128e-10 8.36978e-11 2.7831e-10)
(7.06632e-05 9.48675e-09 6.93865e-09 5.21432e-10 7.07014e-11 2.78702e-10)
(7.06617e-05 5.90781e-09 1.34027e-08 5.21906e-10 9.49621e-11 2.83031e-10)
(7.06882e-05 1.00784e-08 1.17362e-08 5.31681e-10 8.87589e-11 3.1865e-10)
(7.06371e-05 8.57634e-09 9.22558e-09 5.66591e-10 9.86926e-11 3.49539e-10)
(7.06824e-05 1.17379e-08 1.57298e-08 5.94061e-10 9.83858e-11 3.45107e-10)
(7.064e-05 7.25273e-09 7.05482e-09 5.74137e-10 1.16783e-10 3.34191e-10)
(7.0666e-05 1.50739e-08 1.61393e-08 6.47823e-10 1.02368e-10 3.34564e-10)
(7.0641e-05 2.51792e-09 1.06657e-08 6.35153e-10 1.0523e-10 3.51849e-10)
(7.06538e-05 1.73845e-08 1.21829e-08 7.16961e-10 1.30909e-10 3.75205e-10)
(7.06429e-05 -4.445e-09 1.37729e-08 6.50597e-10 1.42464e-10 3.71116e-10)
(7.06473e-05 1.8343e-08 1.02903e-08 6.97895e-10 1.65464e-10 3.54366e-10)
(7.06563e-05 -9.24937e-09 1.56007e-08 6.93024e-10 1.65022e-10 3.37136e-10)
(7.06368e-05 1.19625e-08 8.4495e-09 6.7187e-10 2.05364e-10 2.93045e-10)
(7.06604e-05 -4.28221e-09 1.57871e-08 7.57651e-10 2.01118e-10 2.98807e-10)
(7.06431e-05 1.62739e-09 7.26959e-09 7.89449e-10 2.15379e-10 2.65004e-10)
(7.06493e-05 -4.10516e-10 1.3585e-08 7.50772e-10 1.89386e-10 2.27988e-10)
(7.06566e-05 -1.58319e-09 7.48852e-09 7.71166e-10 1.72615e-10 2.25106e-10)
(7.06462e-05 -1.12021e-08 1.51783e-08 9.41908e-10 2.83058e-10 3.47312e-10)
(7.06589e-05 1.28097e-09 6.14839e-09 8.83305e-10 2.46803e-10 3.95563e-10)
(7.06447e-05 -1.7929e-08 1.15444e-08 1.02942e-09 2.97433e-10 4.0263e-10)
(7.06544e-05 -9.61908e-11 5.26107e-09 9.01942e-10 2.97996e-10 4.16053e-10)
(7.06555e-05 -2.17023e-08 7.11217e-09 9.28382e-10 2.67635e-10 4.27489e-10)
(7.06439e-05 -6.22667e-09 6.44998e-09 9.60986e-10 2.8461e-10 4.06082e-10)
(7.06644e-05 -2.14511e-08 4.07155e-09 1.00512e-09 2.56695e-10 4.58233e-10)
(7.06493e-05 -1.46428e-08 6.05718e-09 9.60231e-10 2.79406e-10 4.67108e-10)
(7.06644e-05 -1.80373e-08 3.57554e-09 9.94563e-10 3.0731e-10 4.25739e-10)
(7.0669e-05 -2.0877e-08 9.25191e-09 9.17022e-10 1.92389e-10 4.5263e-10)
(7.0664e-05 -1.28633e-08 -1.92074e-09 8.02204e-10 1.99172e-10 3.8167e-10)
(7.06907e-05 -2.49996e-08 1.45166e-08 9.30269e-10 1.33616e-10 3.95535e-10)
(7.06539e-05 -5.67387e-09 -2.67567e-09 8.81683e-10 1.56503e-10 4.41529e-10)
(7.0706e-05 -2.52683e-08 1.29159e-08 1.00566e-09 1.77478e-10 4.3075e-10)
(7.06594e-05 -2.45957e-09 4.90807e-09 8.64972e-10 1.40945e-10 5.0121e-10)
(7.06967e-05 -2.00283e-08 7.98402e-09 9.46992e-10 1.02272e-10 4.483e-10)
(7.0687e-05 -7.72905e-10 1.02811e-08 9.31949e-10 1.1082e-10 3.82544e-10)
(7.06677e-05 -1.5037e-08 9.28006e-09 1.02867e-09 1.60406e-10 3.55974e-10)
(7.07078e-05 3.59512e-09 1.06513e-08 9.77235e-10 1.06467e-10 3.60009e-10)
(7.06491e-05 -1.03251e-08 1.07985e-08 9.14852e-10 1.74502e-10 3.59287e-10)
(7.07207e-05 6.03267e-09 1.56879e-08 1.01458e-09 1.20627e-10 3.61254e-10)
(7.06404e-05 -6.26554e-09 8.28054e-09 8.34451e-10 1.36013e-10 3.67706e-10)
(7.07003e-05 9.98756e-09 2.07165e-08 8.53802e-10 1.43193e-10 3.40353e-10)
(7.06687e-05 -4.89394e-09 8.50294e-09 7.55535e-10 1.31099e-10 3.50054e-10)
(7.06627e-05 1.76998e-08 1.93764e-08 7.62783e-10 1.66165e-10 3.55002e-10)
(7.0689e-05 -1.81588e-09 1.53776e-08 7.85811e-10 1.4056e-10 4.09871e-10)
(7.06399e-05 1.7607e-08 1.25389e-08 8.15471e-10 1.80029e-10 4.40205e-10)
(7.06801e-05 4.51832e-09 2.19934e-08 8.07642e-10 1.71883e-10 4.33866e-10)
(7.06438e-05 1.31591e-08 8.45768e-09 8.48284e-10 2.14756e-10 4.26391e-10)
(7.06613e-05 1.10116e-08 2.27607e-08 9.13574e-10 1.74789e-10 4.39443e-10)
(7.06445e-05 4.86295e-09 1.32992e-08 8.96752e-10 1.73749e-10 4.56678e-10)
(7.06468e-05 1.623e-08 1.72993e-08 1.00788e-09 1.74144e-10 4.69123e-10)
(7.06453e-05 -7.03538e-09 1.84185e-08 8.48552e-10 1.9792e-10 4.50381e-10)
(7.06425e-05 1.99078e-08 1.4198e-08 1.08539e-09 2.04015e-10 4.32827e-10)
(7.06516e-05 -1.552e-08 1.96e-08 9.69616e-10 2.01704e-10 4.2473e-10)
(7.06403e-05 1.32751e-08 1.25891e-08 9.72331e-10 2.61415e-10 3.80591e-10)
(7.06529e-05 -1.12318e-08 1.90896e-08 1.16717e-09 2.23103e-10 4.02443e-10)
(7.06462e-05 3.22889e-09 1.04564e-08 1.08977e-09 2.87011e-10 3.50987e-10)
(7.06472e-05 -7.95808e-09 1.81245e-08 1.02384e-09 2.23426e-10 3.30399e-10)
(7.06548e-05 8.17644e-10 7.94141e-09 1.04294e-09 2.39218e-10 3.32385e-10)
(7.06468e-05 -1.59509e-08 1.92436e-08 1.39818e-09 2.91642e-10 5.12731e-10)
(7.06547e-05 -7.36057e-10 6.93786e-09 1.33784e-09 2.57879e-10 5.48855e-10)
(7.06445e-05 -2.31549e-08 1.57883e-08 1.5392e-09 3.44287e-10 5.11197e-10)
(7.06513e-05 -1.0199e-09 5.60539e-09 1.36515e-09 3.22428e-10 5.63497e-10)
(7.06523e-05 -3.05762e-08 1.04113e-08 1.42938e-09 3.04545e-10 5.64932e-10)
(7.06441e-05 -5.82652e-09 6.3014e-09 1.46823e-09 3.46239e-10 5.37924e-10)
(7.06594e-05 -3.20879e-08 6.80026e-09 1.53254e-09 2.99779e-10 6.28738e-10)
(7.06527e-05 -1.37111e-08 6.30564e-09 1.45636e-09 3.63579e-10 6.05252e-10)
(7.06606e-05 -2.74287e-08 6.4442e-09 1.50264e-09 3.72219e-10 5.70437e-10)
(7.0673e-05 -2.03869e-08 9.88479e-09 1.35377e-09 2.12601e-10 5.88619e-10)
(7.06623e-05 -2.29088e-08 3.55004e-10 1.17476e-09 2.61595e-10 4.71709e-10)
(7.06949e-05 -2.19261e-08 1.64182e-08 1.30688e-09 1.50478e-10 5.42572e-10)
(7.06546e-05 -1.81307e-08 -1.62955e-09 1.28309e-09 1.9309e-10 5.67218e-10)
(7.07084e-05 -1.92413e-08 1.7128e-08 1.372e-09 1.63223e-10 5.60406e-10)
(7.06626e-05 -1.58403e-08 5.16313e-09 1.24776e-09 1.38845e-10 6.40898e-10)
(7.06991e-05 -1.46729e-08 1.34591e-08 1.41385e-09 7.2619e-11 5.46997e-10)
(7.06892e-05 -1.23727e-08 1.20232e-08 1.39163e-09 1.27753e-10 5.076e-10)
(7.06723e-05 -1.21657e-08 1.40506e-08 1.5144e-09 1.8718e-10 4.74481e-10)
(7.07091e-05 -3.97785e-09 1.43178e-08 1.38825e-09 1.12097e-10 4.92629e-10)
(7.0653e-05 -1.26519e-08 1.58612e-08 1.43973e-09 2.36005e-10 4.71489e-10)
(7.07215e-05 5.06908e-09 2.0331e-08 1.51268e-09 1.38681e-10 4.57843e-10)
(7.06453e-05 -1.51362e-08 1.32377e-08 1.2985e-09 2.25803e-10 4.46398e-10)
(7.0701e-05 1.61182e-08 2.61094e-08 1.41902e-09 1.87459e-10 4.14252e-10)
(7.06737e-05 -1.59904e-08 1.33194e-08 1.25438e-09 2.21787e-10 4.33983e-10)
(7.06658e-05 2.5191e-08 2.5249e-08 1.34533e-09 2.48342e-10 4.4094e-10)
(7.06883e-05 -1.01586e-08 2.10099e-08 1.35855e-09 2.17394e-10 5.05039e-10)
(7.06454e-05 2.46517e-08 1.70359e-08 1.3514e-09 2.8321e-10 5.35571e-10)
(7.06768e-05 -1.25304e-10 2.8802e-08 1.27899e-09 2.75694e-10 5.31288e-10)
(7.06486e-05 2.00036e-08 1.20176e-08 1.39638e-09 3.47664e-10 5.24224e-10)
(7.06555e-05 6.75671e-09 3.00499e-08 1.36513e-09 2.70993e-10 5.64126e-10)
(7.06481e-05 1.02675e-08 1.78072e-08 1.40792e-09 3.04947e-10 5.70685e-10)
(7.06387e-05 1.013e-08 2.35278e-08 1.53628e-09 2.6054e-10 5.77957e-10)
(7.06481e-05 -3.44296e-09 2.42265e-08 1.29965e-09 3.24065e-10 5.46897e-10)
(7.06365e-05 1.27449e-08 1.93456e-08 1.74586e-09 2.72408e-10 5.45477e-10)
(7.06478e-05 -1.42155e-08 2.46696e-08 1.40068e-09 2.9218e-10 5.46741e-10)
(7.06426e-05 5.92395e-09 1.80189e-08 1.58484e-09 3.24513e-10 5.00891e-10)
(7.06476e-05 -1.2523e-08 2.29263e-08 1.79734e-09 2.66719e-10 5.45091e-10)
(7.0648e-05 -1.40381e-09 1.53247e-08 1.57295e-09 3.88774e-10 4.71829e-10)
(7.06467e-05 -1.18533e-08 2.20943e-08 1.52968e-09 2.3056e-10 4.86724e-10)
(7.0653e-05 -1.48242e-09 1.05577e-08 1.50164e-09 3.02475e-10 4.76878e-10)
(7.0648e-05 -1.91955e-08 2.38614e-08 2.32996e-09 2.57027e-10 7.26304e-10)
(7.06512e-05 -7.98125e-09 1.01929e-08 2.2254e-09 2.73039e-10 7.21739e-10)
(7.06453e-05 -2.53855e-08 2.02733e-08 2.55352e-09 3.75097e-10 6.57247e-10)
(7.06467e-05 -7.91597e-09 7.91864e-09 2.29743e-09 3.30494e-10 7.58724e-10)
(7.06506e-05 -3.52641e-08 1.4165e-08 2.44004e-09 3.18851e-10 7.27503e-10)
(7.06432e-05 -1.14513e-08 8.15324e-09 2.51837e-09 3.90075e-10 6.96199e-10)
(7.06561e-05 -3.88301e-08 1.05986e-08 2.62682e-09 3.17495e-10 8.10422e-10)
(7.06562e-05 -1.75306e-08 8.48518e-09 2.51638e-09 4.418e-10 7.67404e-10)
(7.06577e-05 -3.41408e-08 1.06412e-08 2.57357e-09 4.39305e-10 7.3533e-10)
(7.06757e-05 -2.36673e-08 1.21712e-08 2.32901e-09 2.44252e-10 7.17461e-10)
(7.06632e-05 -3.16435e-08 4.82981e-09 2.024e-09 3.33726e-10 5.92257e-10)
(7.06973e-05 -2.27163e-08 1.95358e-08 2.19987e-09 1.88521e-10 7.17175e-10)
(7.06578e-05 -2.93875e-08 2.21563e-09 2.14535e-09 2.31875e-10 6.95467e-10)
(7.07097e-05 -1.64235e-08 2.21612e-08 2.17946e-09 1.51681e-10 7.28599e-10)
(7.06657e-05 -2.90912e-08 8.7151e-09 2.1391e-09 1.597e-10 8.00845e-10)
(7.07017e-05 -1.18172e-08 1.97065e-08 2.34465e-09 3.57503e-11 6.88432e-10)
(7.06909e-05 -2.68227e-08 1.74713e-08 2.34566e-09 1.46842e-10 6.7142e-10)
(7.06785e-05 -9.06189e-09 1.9713e-08 2.39649e-09 1.89569e-10 6.19807e-10)
(7.07081e-05 -1.72963e-08 2.19736e-08 2.21738e-09 1.33868e-10 6.56969e-10)
(7.06605e-05 -1.11313e-08 2.24499e-08 2.39966e-09 2.95981e-10 6.10631e-10)
(7.07191e-05 -4.28526e-09 2.82898e-08 2.34189e-09 1.73789e-10 5.67078e-10)
(7.06544e-05 -1.79146e-08 2.06231e-08 2.23798e-09 3.25123e-10 5.42673e-10)
(7.07005e-05 1.19525e-08 3.38321e-08 2.51593e-09 2.24821e-10 5.24897e-10)
(7.06802e-05 -1.96756e-08 2.15098e-08 2.21909e-09 3.39837e-10 5.35303e-10)
(7.06701e-05 2.24957e-08 3.33891e-08 2.48054e-09 3.12435e-10 5.51056e-10)
(7.0689e-05 -1.16658e-08 2.94598e-08 2.43742e-09 3.24096e-10 6.05498e-10)
(7.06523e-05 2.37462e-08 2.45135e-08 2.29636e-09 3.78053e-10 6.55725e-10)
(7.06751e-05 6.00943e-10 3.73809e-08 2.18773e-09 3.9893e-10 6.5072e-10)
(7.06526e-05 2.14888e-08 1.90347e-08 2.34792e-09 4.66662e-10 6.52046e-10)
(7.06505e-05 5.25478e-09 3.91936e-08 2.19799e-09 3.62023e-10 7.18804e-10)
(7.06494e-05 1.25482e-08 2.52635e-08 2.36899e-09 4.49166e-10 6.96156e-10)
(7.06314e-05 3.27264e-09 3.2243e-08 2.44641e-09 3.63535e-10 7.15089e-10)
(7.06493e-05 2.77055e-10 3.23841e-08 2.22431e-09 4.76292e-10 6.65057e-10)
(7.06305e-05 1.77266e-09 2.69084e-08 2.74043e-09 3.45264e-10 7.14623e-10)
(7.06443e-05 -1.1155e-08 3.2145e-08 2.23182e-09 4.18893e-10 6.99996e-10)
(7.06432e-05 -6.59417e-09 2.54495e-08 2.68377e-09 3.45981e-10 6.48829e-10)
(7.0645e-05 -1.2406e-08 2.91359e-08 2.75128e-09 3.52307e-10 7.20804e-10)
(7.06483e-05 -1.06908e-08 2.23654e-08 2.51806e-09 4.83317e-10 6.32555e-10)
(7.06482e-05 -1.43475e-08 2.75979e-08 2.46127e-09 1.99827e-10 6.83098e-10)
(7.06511e-05 -8.56148e-09 1.59325e-08 2.38309e-09 3.54087e-10 6.40038e-10)
(7.06493e-05 -2.6352e-08 3.11117e-08 4.23668e-09 2.17379e-10 9.94432e-10)
(7.06496e-05 -1.65895e-08 1.58409e-08 4.06235e-09 3.1391e-10 9.16588e-10)
(7.06466e-05 -2.9864e-08 2.72614e-08 4.62744e-09 4.25025e-10 8.65239e-10)
(7.06426e-05 -1.79459e-08 1.31213e-08 4.23355e-09 3.57993e-10 1.00392e-09)
(7.06502e-05 -4.01685e-08 2.06281e-08 4.4958e-09 3.4502e-10 9.35914e-10)
(7.06423e-05 -2.13674e-08 1.31219e-08 4.72037e-09 4.31355e-10 9.0246e-10)
(7.06549e-05 -4.46432e-08 1.68568e-08 4.87206e-09 2.81972e-10 1.03428e-09)
(7.066e-05 -2.53725e-08 1.3976e-08 4.72699e-09 5.09204e-10 9.98805e-10)
(7.06563e-05 -3.96235e-08 1.68828e-08 4.88838e-09 4.78433e-10 9.44265e-10)
(7.06779e-05 -3.11117e-08 1.78992e-08 4.46389e-09 2.4377e-10 8.88938e-10)
(7.06652e-05 -3.82681e-08 1.15635e-08 4.00252e-09 4.36108e-10 7.92101e-10)
(7.0699e-05 -2.92743e-08 2.65412e-08 4.28517e-09 2.58222e-10 9.4258e-10)
(7.0663e-05 -3.66268e-08 9.06033e-09 4.03746e-09 2.79554e-10 8.73951e-10)
(7.07106e-05 -2.1917e-08 3.14571e-08 4.13872e-09 1.88334e-10 9.6333e-10)
(7.06694e-05 -3.78484e-08 1.57664e-08 4.19068e-09 2.23758e-10 1.01548e-09)
(7.07034e-05 -1.89018e-08 3.02252e-08 4.47288e-09 -1.52358e-12 8.92761e-10)
(7.06942e-05 -3.72302e-08 2.66358e-08 4.49638e-09 1.61075e-10 8.97319e-10)
(7.06846e-05 -1.45289e-08 3.0044e-08 4.4014e-09 1.76838e-10 8.12749e-10)
(7.07085e-05 -2.83126e-08 3.37935e-08 4.17531e-09 1.65942e-10 8.73833e-10)
(7.06689e-05 -1.56687e-08 3.36012e-08 4.40942e-09 3.31328e-10 8.06637e-10)
(7.07164e-05 -1.51824e-08 4.06009e-08 4.22097e-09 2.20713e-10 7.02707e-10)
(7.06647e-05 -2.3157e-08 3.24263e-08 4.3212e-09 4.05498e-10 7.10304e-10)
(7.07012e-05 2.37766e-09 4.59025e-08 4.80574e-09 2.76128e-10 7.0437e-10)
(7.0687e-05 -2.22033e-08 3.43048e-08 4.30053e-09 4.50831e-10 7.018e-10)
(7.06761e-05 1.2498e-08 4.60748e-08 4.8449e-09 3.51176e-10 7.16791e-10)
(7.06915e-05 -1.02241e-08 4.15781e-08 4.61791e-09 4.533e-10 7.4601e-10)
(7.06603e-05 1.50203e-08 3.73868e-08 4.24501e-09 4.50065e-10 8.53735e-10)
(7.06759e-05 5.0557e-09 4.87808e-08 4.22048e-09 5.15271e-10 8.12723e-10)
(7.06553e-05 1.48046e-08 3.15872e-08 4.31582e-09 5.47954e-10 8.46598e-10)
(7.06476e-05 6.73132e-09 5.10875e-08 4.14873e-09 4.34666e-10 9.17704e-10)
(7.0648e-05 6.24021e-09 3.74557e-08 4.4522e-09 6.12374e-10 8.68038e-10)
(7.06274e-05 -1.49833e-09 4.40479e-08 4.53038e-09 5.07551e-10 9.03731e-10)
(7.06485e-05 -3.40301e-09 4.45588e-08 4.36841e-09 6.6332e-10 8.3951e-10)
(7.06262e-05 -8.58932e-09 3.74872e-08 4.84955e-09 4.93744e-10 9.65773e-10)
(7.06408e-05 -1.46147e-08 4.3779e-08 4.31698e-09 5.82333e-10 8.88145e-10)
(7.06432e-05 -1.90538e-08 3.50861e-08 4.88923e-09 3.77789e-10 8.44667e-10)
(7.06452e-05 -1.81192e-08 3.95201e-08 4.76539e-09 5.07275e-10 9.46328e-10)
(7.06482e-05 -1.98305e-08 3.1411e-08 4.57682e-09 5.51762e-10 8.43768e-10)
(7.0651e-05 -2.15656e-08 3.66955e-08 4.35272e-09 1.67299e-10 9.13835e-10)
(7.06498e-05 -1.5764e-08 2.3467e-08 4.29261e-09 4.21207e-10 8.33944e-10)
(7.06508e-05 -4.33597e-08 4.46129e-08 8.23666e-09 2.1069e-10 1.34209e-09)
(7.06509e-05 -2.42005e-08 2.51966e-08 7.91037e-09 4.21677e-10 1.18584e-09)
(7.06478e-05 -4.30046e-08 4.00271e-08 8.98112e-09 5.67797e-10 1.15894e-09)
(7.06405e-05 -2.7565e-08 2.24346e-08 8.35692e-09 4.33199e-10 1.33486e-09)
(7.06509e-05 -5.25509e-08 3.29786e-08 8.87248e-09 4.6139e-10 1.2606e-09)
(7.06429e-05 -3.23248e-08 2.25379e-08 9.4268e-09 5.27383e-10 1.19301e-09)
(7.06563e-05 -5.70008e-08 2.90814e-08 9.49899e-09 2.62388e-10 1.39541e-09)
(7.06653e-05 -3.45774e-08 2.46542e-08 9.3347e-09 6.5115e-10 1.36004e-09)
(7.06565e-05 -5.169e-08 2.92842e-08 9.62697e-09 4.74625e-10 1.23119e-09)
(7.06811e-05 -4.04507e-08 3.00175e-08 8.79541e-09 2.19806e-10 1.17245e-09)
(7.06686e-05 -5.10558e-08 2.50316e-08 8.21456e-09 6.33787e-10 1.10554e-09)
(7.07024e-05 -3.88265e-08 4.06501e-08 8.59649e-09 3.41773e-10 1.26081e-09)
(7.06685e-05 -4.85937e-08 2.29095e-08 7.97499e-09 3.63282e-10 1.15881e-09)
(7.07124e-05 -3.38062e-08 4.83908e-08 8.40483e-09 2.98451e-10 1.32771e-09)
(7.06728e-05 -5.04751e-08 2.9605e-08 8.63095e-09 3.05995e-10 1.33833e-09)
(7.07063e-05 -3.45225e-08 4.88289e-08 9.07081e-09 -9.95763e-12 1.20162e-09)
(7.06995e-05 -4.90065e-08 4.21591e-08 9.07649e-09 1.83528e-10 1.24217e-09)
(7.06915e-05 -2.88977e-08 4.93042e-08 8.77443e-09 2.15308e-10 1.06504e-09)
(7.07107e-05 -3.95479e-08 5.13289e-08 8.37187e-09 2.44532e-10 1.19281e-09)
(7.06774e-05 -3.05282e-08 5.38485e-08 8.61578e-09 4.28081e-10 1.10393e-09)
(7.07159e-05 -2.78799e-08 5.86035e-08 8.35831e-09 3.74067e-10 9.01155e-10)
(7.06756e-05 -3.75131e-08 5.34139e-08 8.72298e-09 5.38067e-10 1.02734e-09)
(7.07057e-05 -9.29304e-09 6.36479e-08 9.54795e-09 4.57823e-10 9.87872e-10)
(7.06944e-05 -3.22305e-08 5.58286e-08 8.83114e-09 6.00061e-10 1.00272e-09)
(7.06858e-05 2.8902e-10 6.49766e-08 9.8002e-09 4.262e-10 9.80341e-10)
(7.06957e-05 -1.54957e-08 6.15456e-08 9.07895e-09 6.13573e-10 9.93021e-10)
(7.06711e-05 3.89215e-09 5.74271e-08 8.47998e-09 4.86087e-10 1.17337e-09)
(7.06784e-05 4.14647e-09 6.71821e-08 8.56064e-09 5.94556e-10 1.07615e-09)
(7.0658e-05 4.52911e-09 5.18308e-08 8.4691e-09 5.83791e-10 1.16105e-09)
(7.06459e-05 4.01578e-09 6.90914e-08 8.47191e-09 4.80011e-10 1.19302e-09)
(7.06456e-05 -5.89135e-09 5.68082e-08 8.94408e-09 8.20704e-10 1.17137e-09)
(7.06263e-05 -8.60979e-09 6.17456e-08 9.21154e-09 7.20585e-10 1.19935e-09)
(7.06468e-05 -1.48361e-08 6.32028e-08 9.04204e-09 9.10713e-10 1.14153e-09)
(7.06241e-05 -1.97246e-08 5.36542e-08 9.6188e-09 7.46472e-10 1.34191e-09)
(7.06386e-05 -2.67042e-08 6.21561e-08 9.03277e-09 7.97512e-10 1.17699e-09)
(7.06438e-05 -3.22146e-08 4.92849e-08 9.55926e-09 4.94878e-10 1.15024e-09)
(7.06486e-05 -3.37834e-08 5.68949e-08 9.24459e-09 7.38516e-10 1.27315e-09)
(7.06492e-05 -2.93277e-08 4.45906e-08 8.87946e-09 6.46959e-10 1.15283e-09)
(7.06559e-05 -3.89152e-08 5.28043e-08 8.35302e-09 1.52287e-10 1.21546e-09)
(7.06501e-05 -2.27791e-08 3.49803e-08 8.35603e-09 5.51176e-10 1.10293e-09)
(7.06545e-05 -7.09902e-08 6.91579e-08 1.65584e-08 2.34083e-10 1.88586e-09)
(7.0656e-05 -3.69054e-08 4.31426e-08 1.59302e-08 7.49662e-10 1.65561e-09)
(7.06507e-05 -6.73215e-08 6.30313e-08 1.79575e-08 9.16783e-10 1.65479e-09)
(7.06414e-05 -4.13755e-08 3.98523e-08 1.68967e-08 7.28893e-10 1.91787e-09)
(7.06532e-05 -7.63102e-08 5.61206e-08 1.812e-08 8.82429e-10 1.85639e-09)
(7.06463e-05 -4.74103e-08 4.04054e-08 1.91542e-08 8.02398e-10 1.70156e-09)
(7.0661e-05 -8.02861e-08 5.28261e-08 1.90009e-08 3.93143e-10 2.08164e-09)
(7.06726e-05 -4.63962e-08 4.40461e-08 1.89229e-08 9.22862e-10 1.96049e-09)
(7.06591e-05 -7.44572e-08 5.34952e-08 1.92844e-08 3.91698e-10 1.7376e-09)
(7.0686e-05 -5.21149e-08 5.15519e-08 1.77091e-08 2.28777e-10 1.72604e-09)
(7.06735e-05 -7.5698e-08 5.09792e-08 1.70345e-08 1.0061e-09 1.64683e-09)
(7.07079e-05 -5.17948e-08 6.47806e-08 1.7343e-08 5.02772e-10 1.78911e-09)
(7.06744e-05 -7.38986e-08 4.99013e-08 1.59938e-08 6.18673e-10 1.68935e-09)
(7.07164e-05 -5.16961e-08 7.59099e-08 1.72071e-08 5.55683e-10 1.95132e-09)
(7.06768e-05 -7.65491e-08 5.68833e-08 1.77887e-08 5.155e-10 1.8834e-09)
(7.07129e-05 -5.73766e-08 7.90583e-08 1.8414e-08 1.18958e-10 1.751e-09)
(7.07078e-05 -7.3078e-08 7.0458e-08 1.84636e-08 2.88779e-10 1.80282e-09)
(7.07012e-05 -5.08653e-08 8.05977e-08 1.78453e-08 4.08512e-10 1.44119e-09)
(7.07145e-05 -6.21296e-08 8.02154e-08 1.70002e-08 4.2635e-10 1.74023e-09)
(7.0687e-05 -5.40284e-08 8.67237e-08 1.72702e-08 7.48588e-10 1.59604e-09)
(7.07182e-05 -5.16319e-08 8.77345e-08 1.70269e-08 7.73532e-10 1.31357e-09)
(7.06891e-05 -6.14274e-08 8.74149e-08 1.78429e-08 9.22934e-10 1.63868e-09)
(7.07143e-05 -3.08032e-08 9.14459e-08 1.92351e-08 9.99224e-10 1.50338e-09)
(7.07041e-05 -5.25047e-08 9.04734e-08 1.83861e-08 9.80223e-10 1.60658e-09)
(7.06993e-05 -1.93955e-08 9.41938e-08 1.98172e-08 7.53081e-10 1.47053e-09)
(7.07031e-05 -3.28715e-08 9.51231e-08 1.81377e-08 9.21184e-10 1.51445e-09)
(7.06853e-05 -1.29537e-08 8.78464e-08 1.74002e-08 5.69824e-10 1.76529e-09)
(7.06834e-05 -9.88726e-09 9.8601e-08 1.73702e-08 6.57147e-10 1.5736e-09)
(7.06625e-05 -1.04017e-08 8.24751e-08 1.70139e-08 5.81792e-10 1.68581e-09)
(7.06458e-05 -1.16855e-08 9.98116e-08 1.74311e-08 5.02977e-10 1.6787e-09)
(7.0645e-05 -2.3623e-08 8.63204e-08 1.83104e-08 1.15974e-09 1.72698e-09)
(7.06282e-05 -2.74583e-08 9.14335e-08 1.89537e-08 1.1041e-09 1.71901e-09)
(7.06475e-05 -3.28898e-08 9.16124e-08 1.87947e-08 1.35699e-09 1.72521e-09)
(7.06249e-05 -4.03438e-08 8.13032e-08 1.98097e-08 1.2201e-09 1.96047e-09)
(7.06387e-05 -4.62714e-08 9.08455e-08 1.89989e-08 1.19137e-09 1.74371e-09)