/*--------------------------------*- C++ -*----------------------------------*\
  =========                 |
  \\      /  F ield         | OpenFOAM: The Open Source CFD Toolbox
   \\    /   O peration     | Website:  https://openfoam.org
    \\  /    A nd           | Version:  10
     \\/     M anipulation  |
\*---------------------------------------------------------------------------*/
FoamFile
{
    format      ascii;
    class       volVectorField;
    location    "14";
    object      UMean;
}
// * * * * * * * * * * * * * * * * * * * * * * * * * * * * * * * * * * * * * //

dimensions      [0 1 -1 0 0 0 0];

internalField   nonuniform List<vector> 
102400
(
(0.00712368 6.38475e-06 -0.000180825)
(0.00735155 2.75284e-06 0.000481792)
(0.00745584 -3.23169e-06 0.000686817)
(0.00755803 -6.9349e-06 5.83862e-05)
(0.00737201 -4.43964e-06 -0.00052151)
(0.00712049 5.82161e-06 -0.000292076)
(0.00738524 1.65067e-06 0.000542945)
(0.00746311 -2.31029e-06 0.000650144)
(0.00761806 -6.87925e-06 0.000165427)
(0.00725492 -3.36941e-06 -0.000581201)
(0.00702212 6.05484e-06 -0.000242553)
(0.00732089 -1.37639e-07 0.000549896)
(0.00740927 -4.99329e-06 0.000728073)
(0.00753527 -8.33906e-06 8.12855e-05)
(0.00731157 -5.50222e-06 -0.000492477)
(0.00697759 7.45121e-06 -0.000203864)
(0.00727004 2.9276e-06 0.000532132)
(0.00736477 -2.55065e-06 0.000675247)
(0.00755587 -7.48254e-06 -3.32686e-05)
(0.00720013 -2.11773e-06 -0.000592012)
(0.00699714 8.59197e-06 -0.000240749)
(0.00719258 4.50008e-06 0.000436183)
(0.0073551 -4.12707e-07 0.000605322)
(0.00745724 -4.86362e-06 -8.06611e-05)
(0.00735566 -3.75822e-06 -0.000526558)
(0.00698381 5.60306e-06 -0.000331248)
(0.00732872 2.71615e-06 0.000479991)
(0.00744055 -4.06062e-06 0.000592172)
(0.00747492 -7.10277e-06 -2.42711e-05)
(0.00734969 -4.38002e-06 -0.000568948)
(0.00707887 5.80087e-06 -0.000278758)
(0.00738439 3.0443e-06 0.000548654)
(0.00737071 -2.17015e-06 0.000772847)
(0.00752713 -6.79975e-06 8.14218e-05)
(0.00731532 -3.48215e-06 -0.00040565)
(0.00709759 5.15505e-06 -0.000203327)
(0.00728233 2.51423e-06 0.000585689)
(0.00753362 -4.08003e-06 0.000710603)
(0.00755961 -5.96776e-06 7.28295e-05)
(0.00733895 -3.19296e-06 -0.000525981)
(0.0217231 3.72306e-05 -0.000840118)
(0.0225257 8.5446e-06 0.00117143)
(0.0228431 -2.02493e-05 0.00203156)
(0.0231283 -3.82836e-05 0.00028834)
(0.0224788 -2.18931e-05 -0.00161392)
(0.0217187 3.35258e-05 -0.00111965)
(0.0226226 1.95595e-06 0.00138625)
(0.0228499 -2.02382e-05 0.00194978)
(0.0232911 -4.27639e-05 0.000632083)
(0.0221149 -1.02887e-05 -0.0017804)
(0.0214432 1.74987e-05 -0.000946006)
(0.0224363 -1.5178e-05 0.00139355)
(0.022698 -3.63248e-05 0.00217192)
(0.0230352 -4.97901e-05 0.00036006)
(0.0222589 -1.58996e-05 -0.00157656)
(0.0212456 5.42488e-05 -0.000896125)
(0.0222679 3.29699e-06 0.00133061)
(0.0225645 -2.00563e-05 0.00205906)
(0.0230952 -3.58847e-05 4.2394e-05)
(0.0219234 1.12012e-05 -0.00190287)
(0.0213258 5.56812e-05 -0.00102921)
(0.0220341 2.97299e-05 0.00104418)
(0.022533 -6.86269e-06 0.00179777)
(0.0228206 -2.52605e-05 -0.000136364)
(0.0224359 -1.50948e-05 -0.00165389)
(0.0212907 3.27944e-05 -0.00127663)
(0.0224548 1.00663e-06 0.00119132)
(0.0228055 -2.65732e-05 0.00179325)
(0.0228645 -3.80026e-05 6.23981e-05)
(0.0224032 -1.06444e-05 -0.00177632)
(0.0215732 2.87491e-05 -0.0011286)
(0.0226033 2.25207e-05 0.001407)
(0.0225933 -4.8582e-06 0.00232198)
(0.0230315 -3.81242e-05 0.000358137)
(0.0223083 -4.26497e-06 -0.0012801)
(0.0216434 3.18948e-05 -0.000865003)
(0.0222908 5.77538e-06 0.00151956)
(0.0230707 -3.26947e-05 0.00211639)
(0.0231064 -1.69768e-05 0.000335369)
(0.0223777 -6.75638e-06 -0.00168438)
(0.0367479 8.8798e-05 -0.00179557)
(0.0382382 8.04602e-06 0.0015135)
(0.0387723 -3.22618e-05 0.0032989)
(0.0392287 -4.88944e-05 0.000604789)
(0.0380278 -1.29696e-05 -0.00273839)
(0.036744 8.34422e-05 -0.00220256)
(0.0384339 -1.17461e-06 0.00195329)
(0.0387659 -2.62364e-05 0.00319464)
(0.039492 -6.70471e-05 0.00121823)
(0.0373986 1.45626e-05 -0.00303504)
(0.0363323 3.11975e-05 -0.00184097)
(0.038108 -5.0506e-05 0.00192964)
(0.0384986 -6.94494e-05 0.00355359)
(0.0390368 -7.19164e-05 0.000739764)
(0.0376125 1.39987e-05 -0.00276124)
(0.0359059 0.000147264 -0.00187765)
(0.0377723 -6.38331e-07 0.0017802)
(0.0382936 -2.69823e-05 0.00342725)
(0.0391337 -3.1172e-05 0.000249728)
(0.0370198 7.95956e-05 -0.00334192)
(0.0360655 0.000131964 -0.00211983)
(0.0374258 6.70189e-05 0.00135226)
(0.0382582 2.65429e-06 0.00292073)
(0.038694 -1.87125e-05 -9.09147e-05)
(0.037951 2.07653e-06 -0.00284951)
(0.0359964 7.47991e-05 -0.0025251)
(0.0381491 -1.47174e-05 0.00161819)
(0.0387106 -4.48718e-05 0.00295766)
(0.0387529 -4.23555e-05 0.000294625)
(0.0379011 2.22814e-05 -0.00306332)
(0.0364618 7.07912e-05 -0.0022892)
(0.0383645 5.70621e-05 0.00195828)
(0.038352 1.32952e-05 0.00382047)
(0.0390559 -5.28974e-05 0.000718232)
(0.0377306 3.40398e-05 -0.0022105)
(0.0366079 7.73841e-05 -0.00179799)
(0.0378563 1.08684e-06 0.00218444)
(0.0391875 -6.32558e-05 0.00345417)
(0.0391682 2.44039e-05 0.000723701)
(0.037843 2.65224e-05 -0.00295189)
(0.0516517 0.000150063 -0.00297101)
(0.0538744 -7.36854e-06 0.00133167)
(0.0545557 -4.62569e-06 0.00428357)
(0.0551879 1.3212e-05 0.0010559)
(0.0533283 6.3501e-05 -0.00364897)
(0.0515837 0.000142965 -0.00345037)
(0.0541186 -1.41928e-05 0.00197947)
(0.0546163 1.13969e-05 0.00415852)
(0.0554957 -3.91151e-05 0.00201635)
(0.0524574 0.000111565 -0.00413176)
(0.0510604 2.54341e-05 -0.00287534)
(0.0536235 -0.000104798 0.00188395)
(0.0542461 -6.51405e-05 0.00464098)
(0.0548266 -2.35956e-05 0.00134694)
(0.0526289 0.000128755 -0.00373881)
(0.0502118 0.000281517 -0.00316691)
(0.0531655 -2.14301e-05 0.00177568)
(0.053896 6.77586e-06 0.00455977)
(0.0549415 5.94319e-05 0.000740027)
(0.0519574 0.000246215 -0.00470378)
(0.0505911 0.000225728 -0.00350548)
(0.0526666 0.000102723 0.00108274)
(0.053813 4.54604e-05 0.0037543)
(0.0544476 6.24415e-05 0.000131118)
(0.0533179 8.53629e-05 -0.00393052)
(0.0504443 0.000131774 -0.00401877)
(0.0537118 -5.24494e-05 0.00147424)
(0.0545008 -2.39403e-05 0.0038728)
(0.0544423 2.89143e-05 0.000732382)
(0.0532165 0.00014262 -0.00420553)
(0.0511329 0.000126914 -0.00363839)
(0.0540165 9.67499e-05 0.00198073)
(0.054112 7.98997e-05 0.00502835)
(0.0549788 9.19787e-06 0.00117744)
(0.0529578 0.000159929 -0.00303656)
(0.051353 0.000132357 -0.00295022)
(0.0531508 -2.01486e-05 0.00214492)
(0.0549965 -6.45179e-05 0.00446303)
(0.0550239 0.000171346 0.0013541)
(0.0531564 0.000132334 -0.00415267)
(0.065718 0.000211894 -0.0042689)
(0.0686546 -5.09068e-05 0.000510349)
(0.0698225 9.18147e-05 0.00476262)
(0.0706763 0.000204778 0.0013726)
(0.0682448 0.000256216 -0.00439244)
(0.0658871 0.000244329 -0.00459485)
(0.0693088 -2.90385e-05 0.00159893)
(0.0697633 0.000138887 0.00464071)
(0.0708919 0.000108921 0.00267755)
(0.0670278 0.00033623 -0.00488076)
(0.0652301 -7.83381e-06 -0.00377639)
(0.0683069 -0.000148463 0.00112315)
(0.0691957 2.77312e-05 0.00521723)
(0.0699979 0.000175645 0.00173878)
(0.0670736 0.000392238 -0.00449777)
(0.0639649 0.000450076 -0.00438634)
(0.0678771 -5.24456e-05 0.00134645)
(0.068964 0.000124842 0.00519957)
(0.0698802 0.000324027 0.00141819)
(0.0664143 0.000558166 -0.00555603)
(0.0642503 0.000319423 -0.00509019)
(0.0674047 0.000160506 0.000462046)
(0.0686202 0.00016067 0.00402305)
(0.0693915 0.000274502 0.00084451)
(0.0677604 0.0002764 -0.0044313)
(0.064249 0.000208271 -0.00533334)
(0.0685696 -0.000131938 0.000731448)
(0.0695147 6.69887e-05 0.00436027)
(0.0697477 0.000259496 0.000860395)
(0.0677791 0.000399774 -0.00483373)
(0.0652749 0.000198094 -0.00475106)
(0.0689553 0.000147157 0.0013794)
(0.0692264 0.000225039 0.00562963)
(0.0703128 0.000208491 0.00154269)
(0.067635 0.000399406 -0.00364968)
(0.065421 0.000208539 -0.00413085)
(0.0677239 1.38459e-06 0.00171405)
(0.0703101 6.2507e-07 0.00496054)
(0.0704429 0.000453201 0.00199188)
(0.0677832 0.000384571 -0.00480494)
(0.0787381 0.000290141 -0.00509991)
(0.0820722 -0.00014271 -0.000306803)
(0.0839238 0.00027244 0.00454917)
(0.0849152 0.000572888 0.0020454)
(0.0818587 0.000582078 -0.00420167)
(0.0794867 0.00036634 -0.00490438)
(0.0832315 -4.34093e-05 0.000831141)
(0.0837234 0.000368312 0.00440813)
(0.0850915 0.000416305 0.002932)
(0.080867 0.000736852 -0.00478487)
(0.0783651 1.4856e-06 -0.0039488)
(0.0815418 -0.000198273 -1.01096e-05)
(0.0826721 0.000228028 0.00510045)
(0.0839449 0.000582561 0.00175393)
(0.0804265 0.000865133 -0.00423897)
(0.0766448 0.000631448 -0.00496116)
(0.0812887 -5.04333e-05 0.000590595)
(0.0821777 0.000366206 0.00512036)
(0.0834286 0.000823425 0.00181817)
(0.0801573 0.001073 -0.00513587)
(0.0761943 0.000377167 -0.00623827)
(0.0809541 0.000164564 -0.000344111)
(0.0821879 0.000378969 0.00367762)
(0.0835219 0.000566101 0.00114004)
(0.0812011 0.000662967 -0.00432758)
(0.0772906 0.000306677 -0.00588737)
(0.0819871 -0.000229151 4.81937e-06)
(0.0832986 0.000222524 0.00424817)
(0.0841876 0.000629629 0.000853254)
(0.0816741 0.000829573 -0.00472432)
(0.0781403 0.00030139 -0.00536577)
(0.0823471 0.000202834 0.000106483)
(0.0830056 0.000429422 0.00529654)
(0.0847076 0.000579825 0.00145838)
(0.081164 0.000809142 -0.00368901)
(0.0784055 0.000300007 -0.00474936)
(0.0812249 4.56691e-05 0.00104712)
(0.084051 0.000178577 0.00469975)
(0.0844847 0.000866452 0.00258062)
(0.0818056 0.000802219 -0.00485456)
(0.0905012 0.000527505 -0.00513144)
(0.0935603 -0.000153739 -0.000513173)
(0.0954628 0.000520209 0.0038899)
(0.0977231 0.00099388 0.00181736)
(0.0951697 0.00117242 -0.00373754)
(0.0912105 0.000578302 -0.00477191)
(0.0949134 -1.69816e-05 0.00032636)
(0.0953153 0.000668204 0.00332214)
(0.0973624 0.000860968 0.00281788)
(0.0935849 0.0013017 -0.00384319)
(0.0904059 0.000143881 -0.00311781)
(0.0923699 -0.00015479 -0.000480601)
(0.0937992 0.000505603 0.00414389)
(0.0958243 0.00110927 0.00181713)
(0.0933665 0.00155049 -0.00336581)
(0.088282 0.000890513 -0.00463139)
(0.0925581 4.97739e-06 0.000257059)
(0.0936855 0.000700352 0.00450848)
(0.0957192 0.00137972 0.00137323)
(0.0929649 0.00177406 -0.00426821)
(0.0881747 0.000585736 -0.00539802)
(0.0922696 2.83638e-05 -0.000893787)
(0.0940897 0.000584219 0.00272487)
(0.0962566 0.00087478 0.000825242)
(0.09415 0.00123078 -0.00393902)
(0.0901542 0.000488037 -0.00531966)
(0.0932272 -0.000273848 -0.000447996)
(0.0953006 0.00039079 0.00324895)
(0.0968812 0.00102792 0.000840944)
(0.0951245 0.00144366 -0.00413925)
(0.0902157 0.000608095 -0.00501989)
(0.0936646 0.000268381 -0.000680379)
(0.0950512 0.0006362 0.00384163)
(0.0970802 0.00105893 0.00150823)
(0.0941849 0.00144031 -0.00313645)
(0.0901849 0.000507868 -0.00451478)
(0.0927342 9.00485e-05 9.07688e-05)
(0.0954724 0.000423025 0.00369648)
(0.097272 0.00132846 0.001928)
(0.0953304 0.00140075 -0.00439916)
(0.101965 0.00103953 -0.0042639)
(0.103304 1.66132e-05 -0.00027016)
(0.104809 0.000766674 0.00292245)
(0.107995 0.00126483 0.00108732)
(0.107205 0.00187995 -0.00288577)
(0.102724 0.00104582 -0.00361264)
(0.10439 0.000222558 0.000272366)
(0.104755 0.000994092 0.00231746)
(0.10768 0.00125424 0.0016246)
(0.105757 0.00197425 -0.00302943)
(0.101381 0.000572066 -0.00279556)
(0.102182 0.000150302 0.000415303)
(0.10326 0.000827639 0.0032722)
(0.106001 0.00156995 0.00163292)
(0.105123 0.00232595 -0.00267635)
(0.100535 0.00136864 -0.00306269)
(0.102381 0.000318463 0.000706468)
(0.103192 0.00104954 0.00345113)
(0.106129 0.00180635 0.00093256)
(0.105163 0.00249721 -0.00333369)
(0.100068 0.00104388 -0.00409153)
(0.102297 0.000110086 -0.000477136)
(0.103241 0.000741667 0.00188507)
(0.106532 0.00112426 -3.74823e-06)
(0.105951 0.00181245 -0.00344719)
(0.102214 0.00086536 -0.00431422)
(0.102801 -0.000115189 -0.00060507)
(0.104723 0.000524025 0.00185269)
(0.107275 0.00135104 0.000226993)
(0.107462 0.00208994 -0.0035702)
(0.102088 0.00116608 -0.00406361)
(0.103727 0.000420028 -0.00057115)
(0.104818 0.000800364 0.00240949)
(0.10773 0.0014622 0.00065443)
(0.106309 0.00214347 -0.00294698)
(0.102193 0.00100269 -0.00362321)
(0.103186 0.000292926 -0.000111427)
(0.104819 0.000670866 0.0024693)
(0.107659 0.00167038 0.000717713)
(0.107436 0.00214333 -0.00353027)
(0.113338 0.00168648 -0.00289599)
(0.112419 0.000417309 0.000152103)
(0.113377 0.00102234 0.00249529)
(0.115571 0.00134794 0.000239844)
(0.117388 0.00242028 -0.00188144)
(0.113072 0.0016406 -0.0027394)
(0.113195 0.000626115 0.000902512)
(0.113467 0.0013165 0.00220413)
(0.115525 0.00139528 0.000683003)
(0.115953 0.00258487 -0.00218826)
(0.112354 0.00125773 -0.00220068)
(0.111403 0.000649227 0.00111057)
(0.11212 0.00120624 0.00282967)
(0.114109 0.00182796 0.00146274)
(0.115148 0.00296526 -0.00148745)
(0.111496 0.00197973 -0.00172233)
(0.111393 0.000857694 0.00128204)
(0.111721 0.00137444 0.00293083)
(0.114256 0.00192625 0.000602848)
(0.115558 0.00296794 -0.00235566)
(0.11161 0.00157018 -0.0025865)
(0.111566 0.00047498 0.000274166)
(0.111933 0.000900299 0.00192764)
(0.114624 0.00118846 -0.000635511)
(0.116003 0.00219359 -0.00280883)
(0.113282 0.00139886 -0.00340722)
(0.112101 0.00028232 -0.000127651)
(0.113535 0.000719351 0.00128818)
(0.115215 0.0014124 -0.000176171)
(0.117463 0.0025473 -0.00266509)
(0.113315 0.00174919 -0.00289267)
(0.113327 0.000687304 0.000306701)
(0.113269 0.000949195 0.00198294)
(0.115807 0.00158271 1.89617e-05)
(0.116652 0.00266276 -0.0026333)
(0.113722 0.001625 -0.00255224)
(0.11259 0.000670146 -2.19272e-05)
(0.113209 0.00095809 0.0017932)
(0.115286 0.00177458 8.61279e-05)
(0.117311 0.00269183 -0.00265931)
(0.123269 0.00220604 -0.00165686)
(0.121101 0.000920514 0.000511249)
(0.121288 0.001271 0.00214145)
(0.121392 0.00134674 0.000629587)
(0.124523 0.00257256 -0.000951397)
(0.122654 0.00217015 -0.00141181)
(0.121375 0.00106494 0.00100407)
(0.121201 0.00161087 0.00216419)
(0.121722 0.00144194 0.000672683)
(0.123515 0.00277573 -0.00132363)
(0.12212 0.00188463 -0.00141698)
(0.120038 0.00120667 0.000990687)
(0.120082 0.00156102 0.00241535)
(0.120653 0.00191035 0.00136923)
(0.123071 0.00321121 -0.000620786)
(0.121208 0.00252854 -0.000670448)
(0.11972 0.00137656 0.00115905)
(0.119411 0.00161669 0.00266893)
(0.120659 0.00180246 0.000631563)
(0.123142 0.00299895 -0.00108272)
(0.121444 0.00198257 -0.00118346)
(0.12013 0.000863196 0.000851762)
(0.120162 0.00101642 0.00208667)
(0.121121 0.00110124 1.45404e-05)
(0.123352 0.00217616 -0.00184199)
(0.122731 0.00182413 -0.00224537)
(0.120668 0.000745153 4.34719e-05)
(0.121162 0.000948729 0.00115772)
(0.121536 0.00134543 -1.17375e-05)
(0.124612 0.00259958 -0.0016153)
(0.122916 0.00216575 -0.00177818)
(0.121854 0.00107213 0.000594711)
(0.121065 0.00114968 0.00171543)
(0.122001 0.00146266 0.000459083)
(0.124042 0.00270777 -0.00171214)
(0.12309 0.00208879 -0.00161798)
(0.120958 0.00112609 -0.000111258)
(0.120905 0.00123202 0.00147022)
(0.121525 0.00170322 0.000107798)
(0.124496 0.00274223 -0.00189824)
(0.130118 0.00229525 -0.000719548)
(0.128062 0.00121847 0.000407448)
(0.128004 0.00146025 0.00170196)
(0.127121 0.00126396 0.00101421)
(0.129191 0.00222419 -0.000131629)
(0.129624 0.00228415 -0.000496764)
(0.128297 0.00136396 0.000706003)
(0.127881 0.00180181 0.00184619)
(0.127357 0.00136633 0.000942443)
(0.128619 0.00244393 -0.000327774)
(0.129136 0.00210491 -0.000909871)
(0.127299 0.00156099 0.000619999)
(0.127036 0.00182174 0.00177418)
(0.126473 0.00181813 0.00143854)
(0.128381 0.00291795 0.000138917)
(0.128548 0.00269493 -1.98374e-05)
(0.127159 0.00173402 0.00103526)
(0.12643 0.00176252 0.00237413)
(0.126341 0.00160235 0.00105099)
(0.128365 0.00256243 -1.52288e-05)
(0.12873 0.00204798 -0.000210448)
(0.127365 0.00107539 0.000997595)
(0.12711 0.00109328 0.00200637)
(0.126978 0.000908499 0.000865515)
(0.128309 0.0017783 -0.000443438)
(0.129338 0.00185112 -0.00110796)
(0.127843 0.00104857 0.000238095)
(0.127687 0.00110956 0.00118887)
(0.127214 0.00120412 0.000475106)
(0.12941 0.00217739 -0.000593339)
(0.129746 0.00223777 -0.00100369)
(0.128867 0.00133627 0.000427579)
(0.127813 0.0013228 0.0013378)
(0.127776 0.00127287 0.00090548)
(0.128897 0.00230143 -0.000702222)
(0.129942 0.00215739 -0.000723052)
(0.12829 0.00143428 7.86763e-05)
(0.127726 0.00142552 0.00124697)
(0.127399 0.00152554 0.000550069)
(0.129013 0.00228909 -0.00079146)
(0.134298 0.0019067 -0.000145616)
(0.133176 0.00120142 0.000341992)
(0.133052 0.00144107 0.0012058)
(0.132355 0.00110233 0.00123045)
(0.132734 0.00168661 0.000507116)
(0.134039 0.00197065 4.70067e-05)
(0.133251 0.00132859 0.000354418)
(0.132993 0.00174048 0.00130809)
(0.132535 0.00121507 0.00101906)
(0.132466 0.00190099 0.000429513)
(0.133703 0.00185903 -0.000439404)
(0.132489 0.00156659 0.000209423)
(0.132403 0.00184746 0.00103625)
(0.131852 0.00163795 0.00121746)
(0.132236 0.00236797 0.000567791)
(0.133375 0.00237291 0.000331915)
(0.132523 0.00172794 0.00059321)
(0.132149 0.00174025 0.00177299)
(0.13164 0.00135054 0.00122052)
(0.132302 0.00193088 0.000718903)
(0.133422 0.00169994 0.000376118)
(0.132797 0.00102716 0.000919883)
(0.132469 0.00104041 0.00177415)
(0.132199 0.000696172 0.00132378)
(0.132255 0.0012665 0.000670452)
(0.133565 0.00146596 -0.0001251)
(0.132881 0.00102 0.000304058)
(0.132662 0.00110594 0.00106942)
(0.13224 0.000998038 0.000869659)
(0.132872 0.00160181 0.000339937)
(0.133872 0.0018845 -0.000293366)
(0.133746 0.00127031 0.000336451)
(0.132947 0.00131199 0.000952317)
(0.132853 0.00105812 0.00110571)
(0.132672 0.00174141 0.000204078)
(0.13402 0.00177271 -0.000111506)
(0.133359 0.00138808 0.000104448)
(0.132873 0.00140952 0.000910847)
(0.132636 0.00131089 0.000870782)
(0.132582 0.00170156 0.000150417)
(0.136631 0.00135858 0.00014365)
(0.136296 0.000936567 0.000234817)
(0.135959 0.00116608 0.000684849)
(0.136129 0.000893668 0.00104412)
(0.135677 0.00116247 0.000766447)
(0.136529 0.00145298 0.000275406)
(0.136294 0.00106564 0.000114798)
(0.135932 0.00140548 0.000724157)
(0.136246 0.000983255 0.000756386)
(0.135595 0.00136009 0.000702407)
(0.136381 0.00140795 -0.000146762)
(0.135825 0.00128773 -3.72292e-05)
(0.135548 0.00154138 0.000415975)
(0.135734 0.00135057 0.000758339)
(0.135348 0.00179097 0.000596518)
(0.136205 0.00184702 0.000317515)
(0.135816 0.00142115 0.000151862)
(0.135638 0.00144841 0.000968735)
(0.135588 0.00105535 0.000984292)
(0.135538 0.00137213 0.00089585)
(0.136229 0.00121775 0.000521442)
(0.13613 0.000772225 0.00064115)
(0.135817 0.000809566 0.00130191)
(0.135951 0.00047614 0.00129348)
(0.135529 0.000808329 0.00107496)
(0.13622 0.00100024 0.000428765)
(0.136058 0.000782828 0.000348638)
(0.135718 0.00089321 0.000820981)
(0.135807 0.00076109 0.000890385)
(0.135706 0.00107413 0.00077357)
(0.136212 0.00136725 0.000119529)
(0.136503 0.0009817 0.000274423)
(0.135939 0.00109023 0.000590403)
(0.136307 0.000807927 0.000981445)
(0.13574 0.00124357 0.000621033)
(0.136397 0.00129273 0.000244383)
(0.136397 0.00110535 9.86938e-05)
(0.135846 0.00114242 0.00056075)
(0.136257 0.00104081 0.000797324)
(0.135621 0.00117231 0.000639251)
(0.137634 0.000899269 0.000277845)
(0.137729 0.00063428 0.000172633)
(0.137355 0.000824973 0.000349058)
(0.137732 0.000606248 0.00063929)
(0.137422 0.000756289 0.000659957)
(0.137623 0.000986318 0.000334115)
(0.137723 0.000747948 5.302e-07)
(0.137343 0.00101126 0.000341822)
(0.137779 0.000671268 0.000343723)
(0.137429 0.000918712 0.000572951)
(0.13759 0.000952762 -2.43103e-05)
(0.137527 0.000944705 -0.000138548)
(0.137176 0.00114346 7.51895e-05)
(0.137528 0.000994066 0.00029854)
(0.137245 0.00126248 0.000405073)
(0.137553 0.00133698 0.000207299)
(0.137483 0.00104313 -0.000107785)
(0.137297 0.00106895 0.000329845)
(0.137467 0.000734452 0.000498949)
(0.137404 0.000913598 0.000673094)
(0.137611 0.000807444 0.000444731)
(0.137659 0.000506852 0.000358402)
(0.13745 0.000544946 0.000765444)
(0.13764 0.000263077 0.000902225)
(0.137385 0.000465104 0.000958958)
(0.137523 0.000611983 0.000588056)
(0.137592 0.000512552 0.00035783)
(0.137306 0.00061303 0.000598766)
(0.137464 0.000518716 0.000659786)
(0.137359 0.000671729 0.000782932)
(0.137371 0.000932833 0.000324225)
(0.137672 0.000664785 0.000250982)
(0.137348 0.0007831 0.000355392)
(0.137676 0.000544925 0.000662778)
(0.137445 0.000840628 0.000620872)
(0.137485 0.000883963 0.00039089)
(0.137737 0.000790449 9.11477e-05)
(0.137304 0.000819772 0.000350906)
(0.137721 0.000738723 0.000477715)
(0.137424 0.000773504 0.000688843)
(0.137803 0.000606091 0.000317389)
(0.137881 0.000414708 0.000198545)
(0.137753 0.000551414 0.000247312)
(0.13791 0.000381386 0.000356461)
(0.137814 0.000469216 0.000427164)
(0.137799 0.000664423 0.000332766)
(0.137876 0.000489101 3.65097e-05)
(0.13776 0.00068731 0.000213679)
(0.137913 0.00041661 0.000103899)
(0.137854 0.00059948 0.000324174)
(0.137808 0.00061965 4.05176e-05)
(0.137824 0.000655803 -0.000104655)
(0.137716 0.000783898 -3.524e-06)
(0.13786 0.000678215 3.90364e-05)
(0.137797 0.000850301 0.000185648)
(0.137868 0.00094473 0.000152158)
(0.137858 0.000727526 -0.000111937)
(0.137803 0.00074953 6.47455e-05)
(0.137872 0.000476889 0.000144136)
(0.137871 0.00059279 0.000362313)
(0.137904 0.000531142 0.00033759)
(0.137887 0.00031869 0.000240293)
(0.137856 0.000345131 0.000445325)
(0.137906 0.000122343 0.00051918)
(0.137812 0.000254673 0.000623696)
(0.137788 0.000369832 0.00052277)
(0.137841 0.000314717 0.000341425)
(0.137753 0.000382352 0.000464365)
(0.137799 0.000323832 0.000435509)
(0.137751 0.00040438 0.000579465)
(0.137698 0.000631055 0.00038332)
(0.137792 0.000428927 0.000288176)
(0.137736 0.000529199 0.000280154)
(0.137814 0.000338757 0.000422359)
(0.137784 0.000555939 0.000422816)
(0.137717 0.000609007 0.000415545)
(0.137843 0.00054891 0.000134856)
(0.137731 0.000560769 0.000294419)
(0.13786 0.000500778 0.000244992)
(0.137854 0.000508116 0.000499634)
(0.137621 0.000414379 0.000285281)
(0.137618 0.000286628 0.00023063)
(0.137628 0.000365685 0.000250387)
(0.137665 0.000248379 0.000267469)
(0.137582 0.000285052 0.000271817)
(0.137604 0.000458386 0.000286718)
(0.137604 0.000325854 0.000113302)
(0.137642 0.000471304 0.000216078)
(0.137653 0.000259176 8.20682e-05)
(0.137624 0.000389493 0.000176058)
(0.13762 0.000396075 6.81839e-05)
(0.137592 0.000460755 -2.23129e-05)
(0.137642 0.000526736 4.68461e-05)
(0.137661 0.000462529 4.13938e-06)
(0.137638 0.000553974 7.11858e-05)
(0.137692 0.000653514 0.000111856)
(0.137685 0.000503494 -1.39566e-05)
(0.137713 0.000511786 5.7685e-05)
(0.137714 0.000309398 6.02515e-05)
(0.137684 0.000369362 0.000185788)
(0.137719 0.000342453 0.000257561)
(0.137661 0.000205242 0.000233925)
(0.137698 0.000206094 0.000341035)
(0.13768 4.87045e-05 0.000352683)
(0.137612 0.000129697 0.000384237)
(0.137604 0.00022112 0.000400291)
(0.137622 0.000201646 0.000313847)
(0.137624 0.000223367 0.000394821)
(0.137632 0.000199194 0.000334512)
(0.137561 0.000227636 0.000397772)
(0.137581 0.000417655 0.000337476)
(0.137582 0.000283549 0.000307355)
(0.137622 0.000347693 0.000270097)
(0.137606 0.00021223 0.000328837)
(0.137557 0.000357998 0.000266001)
(0.137567 0.000413057 0.000354434)
(0.137585 0.000389562 0.000180042)
(0.137617 0.000375153 0.000296826)
(0.13762 0.000346316 0.000189647)
(0.137635 0.000330255 0.000333062)
(0.137418 0.000270206 0.000226896)
(0.137408 0.000203307 0.000219179)
(0.137438 0.000241251 0.000232727)
(0.137462 0.000166763 0.000226565)
(0.137361 0.000165448 0.000200966)
(0.137396 0.00030776 0.00022634)
(0.137391 0.00022089 0.000141769)
(0.137449 0.000326379 0.000202618)
(0.13745 0.000163737 9.89913e-05)
(0.137398 0.000255638 0.000117014)
(0.137414 0.000244576 6.92917e-05)
(0.137384 0.000327497 2.16853e-05)
(0.137464 0.000355327 7.89279e-05)
(0.137463 0.000315618 2.41943e-05)
(0.137426 0.000352915 4.43683e-05)
(0.137468 0.000435911 7.99726e-05)
(0.137478 0.000344318 4.59446e-05)
(0.137521 0.000342751 8.30267e-05)
(0.137517 0.000197039 7.26075e-05)
(0.137463 0.000220452 0.00013012)
(0.137496 0.000205299 0.000206037)
(0.137456 0.000128091 0.000227697)
(0.137497 0.000115822 0.000291891)
(0.137475 4.22884e-06 0.000286481)
(0.137406 5.29057e-05 0.000270783)
(0.137402 0.00011537 0.000303988)
(0.137424 0.000128033 0.000269985)
(0.137438 0.000120473 0.000326794)
(0.137446 0.000115267 0.000275825)
(0.137369 0.000113293 0.000290611)
(0.137397 0.000258404 0.000266492)
(0.137403 0.000182227 0.00027541)
(0.137444 0.000224686 0.000237513)
(0.137433 0.000126362 0.000270388)
(0.137357 0.000222425 0.000184331)
(0.137384 0.000265412 0.000272697)
(0.137391 0.000276062 0.0001778)
(0.137435 0.000249089 0.00026516)
(0.137431 0.000235829 0.000170355)
(0.137409 0.000211813 0.000242302)
(0.137293 0.000165294 0.000166459)
(0.137293 0.000142141 0.000171751)
(0.137316 0.000155688 0.00018159)
(0.137345 0.000108056 0.000168872)
(0.137252 9.27732e-05 0.000149322)
(0.137276 0.000202393 0.000162143)
(0.137278 0.000149822 0.000121177)
(0.137322 0.000225717 0.000152775)
(0.137334 0.000100733 8.36891e-05)
(0.137282 0.000172523 7.74799e-05)
(0.137294 0.000145367 5.27893e-05)
(0.137275 0.000233821 1.99986e-05)
(0.137344 0.000237491 6.57727e-05)
(0.137348 0.000212726 1.84433e-05)
(0.137311 0.00022369 3.24345e-05)
(0.137334 0.000280367 4.9771e-05)
(0.137349 0.00023185 5.308e-05)
(0.137386 0.000221294 7.25069e-05)
(0.13739 0.000119597 6.96889e-05)
(0.137337 0.000125897 0.000102639)
(0.137358 0.000110631 0.000159979)
(0.137335 7.23247e-05 0.00019245)
(0.137369 5.79411e-05 0.000230913)
(0.137358 -2.57262e-05 0.000227246)
(0.137297 7.31609e-06 0.000202414)
(0.137287 4.33777e-05 0.00022831)
(0.137312 7.43627e-05 0.000212284)
(0.137322 5.33528e-05 0.000248295)
(0.137333 5.51071e-05 0.000213561)
(0.137268 4.26792e-05 0.000215457)
(0.137281 0.000146606 0.000198583)
(0.137296 0.000108559 0.000215138)
(0.137326 0.000138982 0.000179575)
(0.137329 6.34879e-05 0.000203296)
(0.137258 0.000132137 0.000128401)
(0.137272 0.000158415 0.000195099)
(0.137285 0.000189564 0.000139114)
(0.137316 0.000161152 0.000201401)
(0.137322 0.000152497 0.00013168)
(0.137289 0.000134045 0.000176293)
(0.137209 9.64709e-05 0.000111073)
(0.137211 9.64055e-05 0.000116789)
(0.137228 0.00010031 0.000123875)
(0.137257 6.57182e-05 0.000109966)
(0.13718 5.15346e-05 0.00010249)
(0.137197 0.000130474 0.000104118)
(0.1372 9.96505e-05 8.32678e-05)
(0.137231 0.000157688 9.60697e-05)
(0.137248 5.80952e-05 5.32951e-05)
(0.137205 0.000121111 4.16031e-05)
(0.137214 8.51066e-05 2.93498e-05)
(0.137202 0.000165787 4.63848e-07)
(0.137256 0.000159094 3.60351e-05)
(0.137263 0.000140414 -1.14774e-06)
(0.137233 0.000143171 1.64418e-05)
(0.137246 0.00017573 2.14325e-05)
(0.137258 0.000152569 3.67202e-05)
(0.137286 0.000140649 4.53574e-05)
(0.137295 6.62505e-05 5.13041e-05)
(0.137251 6.8108e-05 7.59556e-05)
(0.137265 5.19251e-05 0.000115586)
(0.137248 3.37085e-05 0.0001457)
(0.137275 2.52983e-05 0.000166847)
(0.137271 -4.36956e-05 0.000168417)
(0.137222 -1.664e-05 0.000147352)
(0.13721 5.70538e-07 0.00016476)
(0.137233 3.49032e-05 0.000153929)
(0.137237 1.32578e-05 0.000175193)
(0.137249 1.36339e-05 0.000153169)
(0.137198 1.57208e-06 0.000154025)
(0.137203 7.50933e-05 0.000138735)
(0.137217 5.47541e-05 0.000152922)
(0.137237 8.33134e-05 0.000119807)
(0.137248 1.95152e-05 0.00014014)
(0.137189 7.37207e-05 8.20804e-05)
(0.137195 8.73918e-05 0.000129628)
(0.137207 0.000123709 9.1629e-05)
(0.137229 0.000103746 0.000135218)
(0.13724 9.11832e-05 8.66353e-05)
(0.137208 8.49193e-05 0.000120152)
(0.137129 5.59888e-05 6.91332e-05)
(0.137131 6.22903e-05 7.17454e-05)
(0.137142 6.76706e-05 7.83629e-05)
(0.137169 3.67382e-05 6.4487e-05)
(0.137106 2.90574e-05 6.55407e-05)
(0.137121 8.58694e-05 6.06514e-05)
(0.137123 6.48552e-05 4.96362e-05)
(0.137143 0.000114776 5.24329e-05)
(0.137162 3.14548e-05 2.69758e-05)
(0.137127 8.85145e-05 1.48753e-05)
(0.137137 5.26982e-05 1.0313e-05)
(0.137129 0.000116256 -1.61543e-05)
(0.13717 0.000110189 1.1661e-05)
(0.137178 9.06766e-05 -1.68225e-05)
(0.137155 9.3572e-05 2.17548e-06)
(0.137164 0.000109399 1.14415e-06)
(0.137171 9.81568e-05 1.85938e-05)
(0.137192 8.99817e-05 2.19853e-05)
(0.137202 3.19647e-05 3.25806e-05)
(0.137166 3.45508e-05 5.27345e-05)
(0.137177 2.02167e-05 7.92936e-05)
(0.137164 8.51814e-06 0.000104172)
(0.137182 9.18988e-06 0.000114445)
(0.137184 -5.08745e-05 0.000119752)
(0.137146 -2.72146e-05 0.000104026)
(0.137136 -2.01423e-05 0.000115362)
(0.137153 7.53882e-06 0.000106298)
(0.137153 -7.46556e-06 0.000118593)
(0.137165 -1.17593e-05 0.000104326)
(0.137125 -2.07183e-05 0.000106235)
(0.137127 3.36152e-05 9.1701e-05)
(0.137138 1.77854e-05 0.000102579)
(0.13715 4.90343e-05 7.31228e-05)
(0.137165 -7.72333e-06 9.09091e-05)
(0.137116 3.63358e-05 4.72978e-05)
(0.137121 4.48051e-05 8.05821e-05)
(0.137129 7.4372e-05 5.29773e-05)
(0.137143 6.80724e-05 8.33888e-05)
(0.137156 4.84488e-05 5.09231e-05)
(0.137127 5.36637e-05 7.63534e-05)
(0.137042 3.41732e-05 4.07636e-05)
(0.137044 3.8216e-05 4.07511e-05)
(0.13705 4.84022e-05 4.77195e-05)
(0.137075 2.00294e-05 3.4827e-05)
(0.137025 1.69528e-05 3.99065e-05)
(0.137037 6.03225e-05 3.26999e-05)
(0.137039 4.08539e-05 2.64301e-05)
(0.13705 8.76131e-05 2.48276e-05)
(0.13707 1.74105e-05 1.02196e-05)
(0.137041 6.68711e-05 -1.46839e-06)
(0.137052 3.81016e-05 -1.05885e-06)
(0.137047 8.1497e-05 -2.45608e-05)
(0.137076 8.05247e-05 -2.81909e-06)
(0.137086 5.92461e-05 -2.4253e-05)
(0.137068 6.30346e-05 -6.93752e-06)
(0.137075 6.98368e-05 -9.98849e-06)
(0.137079 6.22358e-05 6.34474e-06)
(0.137093 5.89659e-05 7.55422e-06)
(0.137105 1.30486e-05 1.93483e-05)
(0.137075 1.5492e-05 3.58116e-05)
(0.137085 5.77443e-06 5.30851e-05)
(0.137074 -6.34226e-06 7.298e-05)
(0.137085 2.26842e-06 7.73125e-05)
(0.137091 -4.89337e-05 8.394e-05)
(0.137061 -3.03205e-05 7.27489e-05)
(0.137052 -2.68659e-05 8.00998e-05)
(0.137067 -9.31882e-06 7.20411e-05)
(0.137062 -1.71305e-05 7.94299e-05)
(0.137075 -2.35e-05 6.93691e-05)
(0.137043 -3.19498e-05 7.20249e-05)
(0.137044 1.19877e-05 5.83217e-05)
(0.137052 -5.26871e-06 6.69679e-05)
(0.137058 2.79675e-05 4.14744e-05)
(0.137074 -2.08534e-05 5.70008e-05)
(0.137035 1.27504e-05 2.42073e-05)
(0.137038 2.1549e-05 4.76293e-05)
(0.137044 3.94486e-05 2.70201e-05)
(0.137051 4.5723e-05 4.86377e-05)
(0.137065 2.2026e-05 2.70085e-05)
(0.137041 3.32266e-05 4.57899e-05)
(0.136948 2.30334e-05 2.33732e-05)