/*--------------------------------*- C++ -*----------------------------------*\
  =========                 |
  \\      /  F ield         | OpenFOAM: The Open Source CFD Toolbox
   \\    /   O peration     | Website:  https://openfoam.org
    \\  /    A nd           | Version:  10
     \\/     M anipulation  |
\*---------------------------------------------------------------------------*/
FoamFile
{
    format      ascii;
    class       volScalarField;
    location    "17.5";
    object      nut;
}
// * * * * * * * * * * * * * * * * * * * * * * * * * * * * * * * * * * * * * //

dimensions      [0 2 -1 0 0 0 0];

internalField   nonuniform List<scalar> 
25600
(
4.46664e-17
1.61809e-16
5.28377e-20
3.26863e-16
2.76834e-18
8.59199e-17
1.64092e-16
1.19791e-16
6.53369e-19
4.58565e-16
1.54222e-19
5.05402e-16
1.54861e-16
3.08658e-16
4.60194e-18
7.51516e-17
5.68966e-16
9.21239e-16
3.89981e-16
1.23718e-15
5.78243e-17
1.45995e-15
9.49518e-16
4.97201e-15
1.92938e-15
5.02898e-16
3.20261e-15
1.29472e-15
1.26797e-15
7.18956e-15
2.81135e-16
6.67927e-16
1.18788e-15
2.55225e-16
3.701e-16
6.37255e-16
1.05352e-16
1.44393e-17
4.6238e-16
2.39299e-18
8.62786e-16
1.5678e-15
1.67637e-16
2.70609e-15
2.88957e-16
1.67439e-15
1.91394e-15
2.90332e-15
3.66504e-16
7.33351e-15
3.21571e-16
1.00728e-14
2.35869e-15
7.48953e-15
7.15643e-16
6.78511e-15
7.68217e-15
2.17562e-14
6.79771e-15
2.16257e-14
5.27461e-15
2.8789e-14
2.07959e-14
6.17256e-14
2.6278e-14
2.45105e-14
3.73133e-14
3.45136e-14
2.795e-14
6.5631e-14
8.8635e-15
1.8371e-14
1.31143e-14
8.93211e-15
6.07131e-15
8.61822e-15
1.67535e-15
1.85033e-15
3.34113e-15
5.3728e-16
7.04904e-15
7.97627e-15
3.63397e-15
9.26474e-15
3.42006e-15
7.96962e-15
9.87554e-15
1.93388e-14
4.84133e-15
4.417e-14
6.36239e-15
6.64627e-14
2.09483e-14
5.43699e-14
1.29718e-14
6.22113e-14
5.27928e-14
1.35029e-13
5.03096e-14
1.12518e-13
5.33046e-14
1.43282e-13
1.14098e-13
2.51726e-13
1.24448e-13
1.4738e-13
1.59174e-13
1.86267e-13
1.34334e-13
2.80137e-13
5.81071e-14
1.13707e-13
6.74506e-14
6.43082e-14
3.45117e-14
5.5098e-14
1.39167e-14
1.81827e-14
1.75511e-14
6.4348e-15
3.87205e-14
2.45848e-14
2.77836e-14
2.24545e-14
1.84353e-14
2.37493e-14
2.58979e-14
6.24188e-14
2.12821e-14
1.51177e-13
4.23253e-14
2.51089e-13
1.17993e-13
2.22081e-13
1.05084e-13
2.86683e-13
2.63529e-13
5.13448e-13
2.99945e-13
3.81272e-13
3.21825e-13
4.85386e-13
4.42801e-13
7.27974e-13
4.05912e-13
5.16558e-13
4.45167e-13
6.07631e-13
3.96908e-13
8.0849e-13
2.23398e-13
3.88181e-13
2.19056e-13
2.57411e-13
1.30709e-13
2.09666e-13
7.07673e-14
8.31296e-14
7.21386e-14
3.58179e-14
1.82442e-13
5.57124e-14
1.21096e-13
6.31136e-14
5.92282e-14
7.02344e-14
5.1331e-14
1.13757e-13
4.76752e-14
2.4707e-13
1.31848e-13
5.27683e-13
4.41272e-13
5.33656e-13
4.37191e-13
8.21705e-13
1.06216e-12
1.47989e-12
1.50336e-12
1.13728e-12
1.40488e-12
1.64589e-12
1.75123e-12
2.39483e-12
1.25948e-12
1.7035e-12
1.22047e-12
1.84729e-12
1.2161e-12
2.03566e-12
7.22621e-13
1.09589e-12
6.1552e-13
7.59625e-13
4.41881e-13
5.59847e-13
2.61526e-13
2.64393e-13
2.66162e-13
1.24526e-13
7.22164e-13
1.51826e-13
3.46631e-13
2.08802e-13
1.53682e-13
1.83758e-13
1.22243e-13
1.7837e-13
1.12368e-13
1.58511e-13
2.09087e-13
4.26913e-13
9.18684e-13
7.98615e-13
8.82371e-13
1.01742e-12
2.40269e-12
3.10454e-12
5.22489e-12
3.13826e-12
3.88437e-12
4.25543e-12
5.29778e-12
9.76982e-12
4.61698e-12
5.78605e-12
3.50761e-12
5.31716e-12
5.01356e-12
6.30697e-12
2.54045e-12
3.01816e-12
1.97495e-12
2.14854e-12
1.71212e-12
1.44625e-12
8.04285e-13
6.03093e-13
9.45789e-13
3.75369e-13
3.03501e-12
5.31697e-13
9.30037e-13
7.21976e-13
5.99091e-13
4.92393e-13
2.88051e-13
2.28158e-13
3.58428e-13
1.66075e-13
3.73559e-13
1.60012e-13
7.09814e-13
8.04044e-13
1.47501e-12
8.00617e-13
1.65874e-12
2.67118e-12
9.34172e-12
8.22872e-12
7.33967e-12
6.81446e-12
5.7028e-12
2.58422e-11
1.79454e-11
1.95925e-11
1.05024e-11
9.43583e-12
1.57322e-11
2.55212e-11
1.26148e-11
8.36103e-12
6.35453e-12
6.16961e-12
8.39911e-12
5.4947e-12
3.13924e-12
1.00567e-12
2.76024e-12
1.44174e-12
1.79931e-11
3.80545e-12
2.90557e-12
9.20266e-13
2.98501e-12
3.8295e-12
1.87093e-12
1.44318e-13
4.82445e-13
6.49478e-13
1.34039e-12
5.11596e-13
1.0478e-12
4.70833e-13
2.19646e-12
2.1273e-12
2.81338e-12
1.88333e-12
3.00285e-12
1.23756e-11
1.39742e-11
1.40872e-11
3.82848e-12
1.44107e-11
3.56974e-11
5.69386e-11
3.64595e-11
1.23888e-11
1.63926e-11
5.60093e-11
7.19666e-11
3.1131e-11
1.69946e-11
8.69095e-12
3.27912e-11
3.02386e-11
2.32688e-11
2.28482e-12
3.94589e-12
3.77441e-12
4.0612e-11
4.5274e-11
3.22052e-11
3.97972e-13
1.38408e-12
1.78807e-11
3.2897e-11
6.91483e-12
1.12516e-12
2.41206e-13
5.22704e-12
1.04507e-11
5.55969e-12
7.34807e-12
4.30891e-12
5.21856e-12
1.03346e-11
1.01192e-11
2.49453e-11
3.15741e-12
1.28779e-11
5.52934e-11
2.09074e-11
8.38011e-12
8.98715e-12
6.56586e-11
1.54018e-10
4.95061e-11
1.4797e-11
1.25234e-11
1.64241e-10
1.59624e-10
1.02712e-10
7.18853e-12
2.42146e-11
7.03168e-11
1.90246e-10
3.77719e-11
7.94565e-12
4.82506e-13
1.33698e-11
9.9827e-11
2.65661e-10
4.72773e-11
1.12679e-11
4.64312e-12
8.79365e-11
2.66484e-10
3.8697e-11
1.43501e-11
2.90877e-12
8.95153e-11
1.21353e-10
2.74294e-11
1.11124e-10
5.33642e-12
1.69955e-11
1.0048e-10
8.04021e-11
1.28859e-10
3.87511e-11
5.12822e-11
1.69348e-10
6.58348e-11
1.29728e-10
2.13916e-11
1.51981e-10
2.87812e-10
1.82458e-10
7.34635e-11
4.33328e-11
1.94177e-10
6.38414e-10
1.13023e-10
4.1858e-11
1.37495e-11
2.75417e-10
4.25031e-10
2.12956e-10
1.01545e-11
3.0992e-10
9.37272e-11
4.11563e-10
9.12064e-10
2.71098e-10
2.16157e-10
6.59582e-11
9.69478e-10
6.94465e-10
2.27488e-10
3.10088e-10
1.24966e-10
4.90071e-10
9.21749e-10
4.58627e-10
4.97409e-10
2.46007e-11
3.44792e-10
5.7066e-10
4.60738e-10
9.75706e-10
4.44489e-11
3.20869e-10
5.38134e-10
6.47596e-10
1.04949e-09
5.299e-11
2.38565e-10
1.12171e-09
6.08351e-10
5.66922e-10
8.20437e-11
6.57656e-10
8.63171e-10
6.12379e-10
3.82704e-10
1.89341e-10
7.38137e-10
1.27286e-09
2.69601e-10
2.87869e-09
2.41596e-09
5.88567e-10
2.61943e-09
2.52832e-09
1.78459e-09
2.642e-09
1.28576e-09
2.09363e-09
2.24624e-09
2.95935e-09
2.63501e-09
6.93806e-10
3.58439e-09
3.16487e-09
3.58422e-09
3.34392e-09
1.36156e-10
2.33863e-09
2.37252e-09
5.22575e-09
3.42992e-09
2.21671e-10
1.72056e-09
3.44265e-09
4.96159e-09
3.95625e-09
4.34552e-11
1.91888e-09
2.79028e-09
4.83032e-09
3.33414e-09
3.67194e-10
1.61473e-09
2.92854e-09
3.3545e-09
3.89908e-09
7.25233e-10
1.90299e-09
2.2487e-09
1.35989e-08
1.23326e-08
1.09238e-08
1.86421e-09
1.63287e-08
8.21668e-09
1.58984e-08
9.65225e-09
1.67335e-09
1.46635e-08
1.53046e-08
1.33698e-08
1.16936e-08
2.62976e-09
2.24945e-08
1.65903e-08
2.5209e-08
6.88619e-09
1.81917e-09
1.6969e-08
2.37257e-08
1.89465e-08
1.14101e-08
1.09637e-09
2.1476e-08
1.8277e-08
2.50836e-08
8.29899e-09
1.37138e-09
1.82019e-08
2.08669e-08
2.01089e-08
8.02853e-09
7.93586e-10
1.49707e-08
1.45036e-08
2.08094e-08
9.33861e-09
9.85654e-10
1.23314e-08
9.06498e-08
2.96837e-08
4.13809e-08
1.53252e-09
6.53141e-08
5.99177e-08
4.0018e-08
3.54039e-08
8.56836e-10
6.12995e-08
1.08074e-07
2.92602e-08
4.97389e-08
1.59112e-09
1.09176e-07
1.0805e-07
7.29297e-08
4.42881e-08
4.84078e-10
7.8316e-08
1.56718e-07
5.03489e-08
5.63558e-08
8.57835e-10
9.52305e-08
1.13854e-07
6.53607e-08
5.42505e-08
7.54011e-10
9.37248e-08
1.24688e-07
5.58787e-08
3.77667e-08
3.32852e-10
6.37505e-08
9.1486e-08
5.81892e-08
3.9041e-08
4.6094e-10
4.81277e-08
4.31032e-07
8.51085e-08
1.17925e-07
4.39374e-08
1.96134e-07
2.86599e-07
1.1508e-07
9.64928e-08
4.43842e-08
2.03786e-07
4.77894e-07
7.80352e-08
1.40146e-07
4.34752e-08
3.97959e-07
4.71215e-07
1.95417e-07
1.38018e-07
5.21485e-08
2.7313e-07
6.21393e-07
1.36852e-07
1.55573e-07
5.70599e-08
2.93414e-07
4.66163e-07
1.65885e-07
1.70247e-07
4.46216e-08
3.55546e-07
5.19903e-07
1.64353e-07
1.14369e-07
4.22763e-08
2.31387e-07
4.24456e-07
1.79848e-07
1.14964e-07
3.51999e-08
1.59509e-07
5.62792e-07
2.06039e-07
3.09375e-07
3.74531e-07
4.95403e-07
4.57072e-07
2.2077e-07
2.86899e-07
3.80877e-07
6.16157e-07
5.19595e-07
1.7726e-07
2.88735e-07
3.83876e-07
5.1288e-07
6.1438e-07
3.04846e-07
3.19036e-07
3.48428e-07
6.57143e-07
5.93091e-07
2.55259e-07
2.66508e-07
4.27381e-07
3.7685e-07
5.39576e-07
2.57842e-07
3.71777e-07
3.67461e-07
3.12653e-07
5.94241e-07
3.07341e-07
2.88047e-07
4.51698e-07
7.62434e-07
5.78019e-07
3.22879e-07
3.07259e-07
4.10934e-07
7.41948e-07
8.04839e-08
1.42548e-07
2.38445e-08
4.69268e-08
1.4101e-09
3.4576e-08
1.56159e-07
1.63967e-08
2.63823e-08
1.74394e-09
9.24661e-08
1.44285e-07
1.44741e-08
5.27742e-08
3.73302e-09
1.35437e-07
2.23367e-07
1.30573e-08
1.90106e-08
2.58563e-09
1.18188e-07
2.04157e-07
1.58477e-08
4.10967e-08
6.71377e-10
9.34561e-08
2.09342e-07
2.89844e-08
3.86758e-08
6.93998e-10
1.30392e-07
2.65323e-07
3.26273e-08
1.96485e-08
1.75255e-09
1.01468e-07
2.73618e-07
3.52098e-08
3.58599e-08
3.26262e-09
3.40043e-09
2.87161e-09
1.79773e-09
2.79006e-09
3.65322e-12
7.86131e-10
3.5126e-09
2.63401e-09
1.41342e-09
5.25431e-12
3.61848e-09
3.0624e-09
1.51047e-09
2.94189e-09
3.4085e-11
6.27696e-09
7.19657e-09
1.13617e-09
1.04157e-09
6.17946e-12
5.33497e-09
5.55037e-09
1.19332e-09
2.5401e-09
7.42185e-12
2.89369e-09
6.3298e-09
2.83302e-09
2.18503e-09
1.70818e-11
4.81601e-09
1.14938e-08
2.77568e-09
1.96852e-09
2.07211e-11
3.85872e-09
1.19093e-08
3.07454e-09
2.42187e-09
4.53528e-12
1.21031e-10
2.71853e-11
3.85351e-11
9.84209e-11
5.79358e-13
1.64893e-11
3.47607e-11
8.84626e-11
4.32755e-11
5.08345e-13
1.2681e-10
3.18584e-11
3.90808e-11
1.00172e-10
1.85032e-12
2.59801e-10
1.06739e-10
2.77626e-11
2.62595e-11
5.47735e-13
1.99172e-10
6.67266e-11
2.2387e-11
7.8857e-11
9.75513e-13
8.23982e-11
7.20171e-11
7.06542e-11
6.7741e-11
2.4421e-12
1.47642e-10
2.19939e-10
6.73231e-11
7.63946e-11
5.17947e-12
1.29653e-10
2.0007e-10
8.58229e-11
9.04494e-11
5.29709e-13
4.40706e-12
3.27542e-13
1.19009e-12
2.14771e-12
3.69664e-14
4.68949e-13
5.15649e-13
2.69716e-12
8.79586e-13
3.10099e-14
4.37665e-12
6.16297e-13
1.29562e-12
2.18829e-12
1.48445e-13
1.1321e-11
2.48392e-12
8.2912e-13
3.70095e-13
3.23685e-14
6.66826e-12
1.32774e-12
5.02156e-13
1.65e-12
6.36271e-14
2.29253e-12
1.06066e-12
1.94223e-12
1.27737e-12
1.60603e-13
4.30711e-12
7.71656e-12
1.55849e-12
1.95137e-12
5.85145e-13
4.52129e-12
5.09087e-12
3.26066e-12
2.41634e-12
3.91391e-14
1.94238e-13
3.89371e-15
6.20974e-14
4.23045e-14
1.22732e-15
2.11004e-14
7.77747e-15
7.4079e-14
1.8482e-14
2.87562e-15
1.48001e-13
1.68511e-14
6.13105e-14
6.24609e-14
1.70016e-14
6.10589e-13
8.50335e-14
3.43269e-14
3.25869e-15
1.61793e-15
2.23458e-13
4.81593e-14
1.34537e-14
3.26854e-14
4.03961e-15
6.61583e-14
2.61711e-14
6.20761e-14
2.29185e-14
6.33431e-15
1.18209e-13
5.06944e-13
2.95846e-14
6.75185e-14
5.28701e-14
1.57964e-13
1.60464e-13
1.3147e-13
6.67107e-14
3.81942e-15
1.92101e-14
2.11756e-16
3.27343e-15
8.56739e-16
8.23432e-17
2.13376e-15
4.15265e-17
1.55847e-15
4.06297e-16
4.2655e-16
6.79654e-15
5.94067e-16
2.37977e-15
4.18291e-15
1.34132e-15
3.9692e-14
2.6048e-15
1.61267e-15
3.88445e-17
3.03547e-16
1.05844e-14
2.25882e-15
2.86187e-16
8.02103e-16
4.71009e-16
2.24533e-15
1.25195e-15
1.17923e-15
4.79158e-16
2.09478e-16
3.76899e-15
4.3571e-14
2.97396e-16
4.30227e-15
4.96788e-15
5.87298e-15
4.7508e-15
2.57565e-15
2.56399e-15
4.5497e-16
4.37667e-15
6.80336e-17
1.55719e-16
2.8746e-17
9.85959e-17
3.94946e-16
7.76168e-20
2.05691e-16
1.70751e-17
9.7332e-17
9.73499e-16
6.20393e-17
4.50732e-17
9.83434e-16
9.15361e-17
3.09695e-15
4.01938e-17
1.06845e-16
7.2121e-18
9.66983e-17
1.30089e-15
1.72775e-16
8.10651e-18
6.25517e-17
1.05317e-16
1.82895e-16
1.80948e-16
1.3908e-17
1.40875e-17
1.70862e-17
1.74016e-16
3.79445e-15
1.02415e-16
5.03977e-16
5.83113e-16
2.2576e-16
1.3835e-16
3.30136e-17
2.187e-16
3.37614e-16
1.5593e-15
1.82582e-17
4.97432e-18
4.18334e-18
1.16946e-16
6.77548e-17
4.02825e-18
2.83199e-16
6.57048e-18
2.74871e-17
5.02267e-16
9.20727e-18
3.41082e-17
3.55364e-16
3.58119e-17
3.00861e-16
7.91524e-19
1.08226e-17
3.32082e-18
3.09889e-17
2.32344e-16
3.75332e-17
1.2673e-19
2.89955e-17
3.24401e-17
8.26951e-17
9.08301e-17
1.05031e-17
1.9726e-18
6.2677e-18
2.19374e-17
8.38947e-16
1.16489e-16
8.00733e-17
1.60744e-16
2.87614e-17
8.19897e-18
4.76124e-18
2.74394e-17
3.23094e-16
5.06114e-16
2.35533e-18
5.09585e-20
1.0401e-17
7.14535e-17
7.43448e-18
1.62637e-17
4.62952e-16
1.29014e-17
1.13301e-17
3.03934e-16
8.73224e-18
4.28789e-17
1.54421e-16
5.11343e-17
2.50875e-17
6.79804e-19
2.33973e-18
8.98009e-19
1.17684e-17
5.04369e-17
1.99314e-17
2.7232e-19
2.75622e-17
1.15303e-17
3.86975e-17
2.53902e-17
3.08108e-18
3.65731e-18
8.89788e-18
7.97861e-18
6.28045e-16
1.33922e-16
3.27988e-17
1.11183e-16
6.65214e-18
8.94561e-19
1.47544e-18
5.426e-18
2.12051e-16
1.41977e-16
1.65115e-19
1.29704e-18
3.08581e-17
2.54932e-17
1.46596e-17
3.95304e-17
6.13135e-16
2.66398e-17
4.48185e-18
2.18364e-16
3.52829e-17
1.42827e-17
6.55204e-17
5.34327e-17
9.43124e-18
2.15362e-18
6.83831e-19
6.44982e-19
6.81727e-18
1.82834e-17
1.95595e-17
2.57634e-18
2.6126e-17
4.712e-18
8.18313e-18
2.1161e-18
7.01321e-19
7.5665e-18
1.99245e-17
5.55037e-17
5.46441e-16
1.09152e-16
2.17193e-17
6.71475e-17
1.70613e-18
5.98735e-19
1.12961e-19
2.35805e-18
1.10925e-16
4.84645e-17
2.87394e-19
5.40379e-18
3.27244e-17
6.01301e-18
1.74546e-17
4.85841e-17
6.07755e-16
1.80215e-17
1.95943e-18
1.44437e-16
6.57142e-17
1.56402e-19
2.09691e-17
2.61453e-17
7.11824e-18
9.09803e-19
3.97517e-19
1.35202e-18
5.46809e-18
2.06303e-17
1.18931e-17
2.22184e-18
5.40143e-18
7.71253e-19
6.12103e-19
8.6876e-20
4.73354e-19
3.88802e-17
1.20834e-16
2.16677e-16
3.55734e-16
3.9062e-17
6.83356e-18
1.81681e-17
2.25432e-18
8.36317e-18
3.99326e-18
6.19054e-18
9.44107e-17
1.40377e-17
3.35017e-20
2.5316e-17
3.20051e-17
2.68218e-19
2.71704e-18
6.85514e-17
3.74433e-16
1.29511e-17
2.13421e-18
8.81633e-17
7.11188e-17
1.81969e-17
2.79476e-17
1.75028e-17
7.58082e-18
1.17999e-18
1.42315e-18
1.69402e-18
3.416e-18
3.60822e-17
1.11378e-17
1.40019e-18
2.39428e-20
7.8106e-19
1.72609e-18
5.22224e-19
3.63021e-18
1.93561e-16
3.3069e-16
2.54234e-16
8.23055e-17
1.45966e-18
1.5527e-18
2.132e-17
4.13387e-17
4.02634e-17
1.25481e-17
1.05895e-17
7.75084e-17
5.62302e-19
2.94988e-18
6.83326e-17
3.57057e-17
7.01093e-20
1.43461e-19
9.10659e-17
1.7925e-16
8.96908e-18
1.90703e-17
8.64225e-17
3.14086e-17
5.55352e-18
7.24309e-18
7.63733e-18
6.38753e-18
3.25211e-19
1.74675e-19
1.42021e-18
4.05858e-18
4.42138e-17
5.51414e-17
1.49757e-17
1.68483e-20
5.27916e-19
1.2677e-18
3.03939e-18
2.2543e-17
2.5232e-16
1.65888e-16
2.61508e-17
5.1348e-19
3.03923e-18
9.37679e-17
3.37726e-16
1.24188e-16
2.2044e-17
6.28236e-18
2.53419e-17
5.39824e-17
1.3573e-18
4.31527e-17
8.68471e-17
1.10535e-17
2.38811e-19
6.15424e-19
7.17896e-17
3.30091e-17
2.62912e-18
1.34443e-17
4.22742e-17
1.28568e-17
2.21683e-18
4.33006e-18
1.40379e-17
2.49689e-17
9.52709e-19
6.89775e-20
4.0317e-18
3.33198e-18
2.55687e-17
8.97245e-17
6.0173e-17
1.58323e-18
2.25006e-19
1.82655e-18
1.92343e-17
1.60439e-17
6.26912e-17
3.90499e-18
2.94048e-18
5.32382e-18
5.47238e-17
7.35515e-16
7.48532e-16
5.95458e-17
5.34243e-18
1.65754e-18
6.26593e-18
5.09333e-18
1.82306e-17
1.90253e-17
5.44574e-16
3.09572e-17
2.63592e-18
1.92647e-17
5.54924e-17
3.45807e-18
3.71251e-18
2.56205e-18
1.1384e-18
4.94148e-19
8.00129e-19
1.82224e-16
2.93555e-18
3.12784e-16
9.45684e-18
4.21205e-18
6.0043e-17
4.05211e-18
2.82617e-17
1.01452e-17
2.06564e-17
3.59422e-18
3.54815e-19
7.71403e-17
4.2419e-18
8.34611e-18
1.31993e-17
4.51667e-18
4.11855e-17
2.75908e-17
1.33252e-16
9.68158e-16
7.23887e-16
6.99151e-19
3.96536e-17
1.03574e-17
1.67166e-17
2.30814e-17
2.08688e-15
3.72704e-15
4.56499e-18
3.44377e-18
2.74637e-18
2.0025e-15
1.63091e-17
1.74239e-17
3.31522e-19
8.58719e-18
1.81711e-18
6.85933e-19
9.18205e-15
2.51361e-18
2.77408e-16
4.46936e-16
3.2004e-17
1.35817e-17
3.1455e-17
1.18569e-16
3.59289e-19
1.80895e-17
4.68973e-16
1.82685e-16
2.37254e-15
1.30716e-17
2.37513e-15
5.01087e-18
2.76035e-18
2.98122e-17
1.95195e-18
1.01598e-16
3.28235e-16
2.08989e-15
7.22575e-18
5.27778e-17
5.32795e-17
5.73723e-16
6.92983e-16
2.08836e-17
6.18215e-16
1.83637e-18
1.81326e-15
5.45058e-18
7.68962e-17
2.11499e-18
1.79245e-20
1.15395e-16
9.4118e-17
5.64337e-19
3.36607e-16
1.86788e-17
1.32124e-15
1.83316e-16
1.63985e-15
8.34885e-16
2.2028e-15
4.81801e-15
5.54492e-15
1.18439e-15
5.26335e-15
3.97764e-15
9.26383e-15
6.04648e-15
2.39922e-15
8.91896e-15
1.28782e-15
1.21828e-14
1.14254e-14
8.8318e-16
7.50341e-15
4.40088e-15
4.21552e-15
6.09158e-15
4.49288e-15
6.70811e-16
3.05041e-15
3.18744e-15
1.09996e-15
6.33278e-16
8.57821e-15
2.97334e-16
1.14823e-14
1.8144e-17
1.16631e-15
1.71427e-18
1.235e-16
3.66537e-16
1.34945e-15
2.40175e-17
5.7054e-15
1.10309e-15
2.26315e-14
6.76182e-15
3.86935e-14
2.42036e-14
7.1761e-14
8.19205e-14
1.21539e-13
5.70672e-14
1.38313e-13
1.09844e-13
1.88855e-13
1.28422e-13
1.05178e-13
1.5468e-13
8.16947e-14
1.90648e-13
1.659e-13
5.71023e-14
1.36132e-13
8.61201e-14
9.10529e-14
8.96656e-14
6.85737e-14
2.39553e-14
4.93517e-14
3.22439e-14
1.8909e-14
7.35761e-15
6.07656e-14
4.96328e-15
5.90067e-14
5.73172e-16
8.29478e-15
6.88341e-17
1.19443e-15
7.43519e-16
4.9555e-15
5.38826e-17
1.88194e-14
2.77701e-15
7.10653e-14
2.0719e-14
1.36989e-13
8.35968e-14
3.0163e-13
2.96191e-13
5.2743e-13
2.73752e-13
6.43836e-13
5.41939e-13
8.73017e-13
6.17496e-13
6.06117e-13
7.28954e-13
5.04387e-13
8.81243e-13
7.68422e-13
3.53868e-13
6.72501e-13
4.54121e-13
4.84163e-13
4.51887e-13
3.73742e-13
1.54283e-13
2.80762e-13
1.69333e-13
1.22957e-13
4.88505e-14
3.43579e-13
4.80057e-14
2.59426e-13
1.2618e-14
4.29966e-14
2.1659e-15
6.53076e-15
9.64361e-16
7.40035e-15
3.80614e-16
2.09412e-14
6.39294e-16
8.2859e-14
1.19566e-14
1.62803e-13
7.89132e-14
4.99465e-13
4.32418e-13
1.03289e-12
5.43354e-13
1.35488e-12
1.33896e-12
2.2081e-12
1.63292e-12
1.77227e-12
2.11525e-12
1.60796e-12
2.60119e-12
2.33756e-12
1.18879e-12
2.07404e-12
1.54863e-12
1.59564e-12
1.47867e-12
1.43459e-12
6.37039e-13
1.08108e-12
6.90932e-13
5.6622e-13
2.36935e-13
1.47824e-12
3.70088e-13
1.07205e-12
1.51736e-13
2.39393e-13
2.89798e-14
6.59529e-14
8.21864e-15
2.55007e-14
1.0071e-14
1.01794e-14
4.29384e-15
4.87511e-14
1.65184e-15
7.29101e-14
7.70712e-15
3.3012e-13
2.91095e-13
1.05374e-12
5.54129e-13
1.35186e-12
1.65704e-12
3.55322e-12
3.10984e-12
3.34806e-12
4.31231e-12
3.42149e-12
5.72923e-12
6.04502e-12
3.27264e-12
4.97651e-12
4.07683e-12
4.50788e-12
3.81013e-12
4.27564e-12
2.1611e-12
3.34222e-12
2.36021e-12
2.27703e-12
9.27955e-13
5.53025e-12
1.96448e-12
3.70581e-12
1.05982e-12
1.6609e-12
2.47878e-13
5.54431e-13
9.08965e-14
3.80866e-13
1.14658e-14
2.19308e-14
7.11463e-14
1.79472e-14
2.54561e-14
5.10057e-14
4.44808e-14
1.87687e-14
5.80133e-14
5.00152e-13
6.05299e-13
7.98441e-13
6.96332e-13
2.20167e-12
3.79035e-12
5.79087e-12
6.87538e-12
4.65907e-12
7.49762e-12
1.16862e-11
9.22097e-12
1.24914e-11
7.96008e-12
9.69554e-12
9.16585e-12
1.22121e-11
6.87913e-12
8.56411e-12
5.54947e-12
7.6252e-12
3.79537e-12
2.25025e-11
1.25843e-11
1.30636e-11
2.37118e-12
8.1451e-12
2.85513e-12
5.65194e-12
6.18564e-13
1.40148e-12
5.30493e-13
1.42244e-12
4.47011e-14
7.63481e-14
3.58715e-13
2.75117e-13
1.03884e-13
6.30205e-14
8.88026e-13
3.25133e-13
6.35804e-13
2.48738e-12
5.69585e-13
3.54041e-13
5.16035e-13
6.35976e-12
1.95209e-11
1.08916e-11
5.04715e-12
6.68645e-12
1.40751e-11
4.63895e-11
2.64602e-11
1.49356e-11
9.88212e-12
2.58362e-11
3.02303e-11
3.62426e-11
1.14221e-11
1.17215e-11
9.08352e-12
4.02865e-11
8.32722e-11
1.04584e-10
4.99618e-12
7.27741e-12
1.14117e-11
7.10527e-11
1.87229e-11
2.31835e-12
8.70077e-13
1.7e-11
1.98517e-11
5.14358e-12
2.39878e-12
1.11849e-12
3.34427e-12
1.22928e-11
1.90409e-13
3.11225e-11
1.10781e-11
6.55068e-12
3.07947e-11
2.9702e-12
1.28793e-11
5.53302e-12
2.69081e-11
1.46277e-10
3.73933e-11
2.82379e-12
3.21224e-12
7.05426e-11
2.17912e-10
1.08338e-10
7.24556e-12
8.28862e-12
5.01611e-11
2.61833e-10
1.07484e-10
2.0108e-11
3.22506e-12
1.73441e-11
1.60378e-10
1.38775e-09
1.45326e-10
2.14722e-11
1.51939e-11
2.11322e-10
6.81809e-10
8.98013e-11
2.48694e-11
1.06459e-11
1.4267e-10
6.44612e-10
3.3647e-11
6.47066e-11
2.9345e-11
1.45729e-10
3.8563e-10
5.71969e-14
4.33143e-10
2.04115e-10
9.75217e-11
7.49001e-10
2.70978e-12
5.82571e-10
1.60323e-10
3.11903e-10
1.49334e-09
9.52163e-11
3.24377e-10
8.13713e-11
4.44345e-10
1.97338e-09
2.15841e-10
7.99173e-11
3.49746e-11
5.7789e-10
1.57576e-09
4.48082e-10
1.9828e-11
2.65506e-09
3.51949e-10
4.31609e-09
6.27611e-09
1.4961e-10
1.99552e-09
3.55327e-10
2.40272e-09
5.49419e-09
1.3009e-10
1.575e-09
2.17981e-10
2.40814e-09
4.47499e-09
1.73324e-10
1.6465e-09
3.15417e-10
1.93663e-09
3.96137e-09
2.2247e-11
7.01799e-09
1.07037e-09
2.22687e-09
4.54514e-09
4.94091e-11
9.09235e-09
1.1874e-09
3.61132e-09
9.82461e-09
6.70107e-11
1.11555e-08
4.81411e-10
6.16072e-09
8.74478e-09
1.21044e-10
4.62413e-09
4.73495e-10
4.02951e-09
1.26396e-08
1.64617e-10
9.2819e-09
3.90898e-08
4.00108e-09
2.55392e-08
1.81915e-08
5.91712e-09
5.02971e-08
2.66338e-09
2.36681e-08
1.13757e-08
6.4422e-09
2.26003e-08
2.85074e-09
1.59696e-08
1.81893e-08
3.88987e-09
2.39255e-08
2.49416e-09
1.57674e-08
1.1536e-08
6.54419e-09
4.66108e-08
6.58598e-09
1.64754e-08
1.08879e-08
1.16279e-08
8.63286e-08
6.04936e-09
3.38945e-08
1.2976e-08
2.92294e-08
6.16554e-08
5.26695e-09
2.98271e-08
1.83718e-08
1.3407e-08
8.73322e-08
4.56804e-09
4.55908e-08
1.66831e-08
5.6237e-09
2.40909e-07
4.25768e-07
5.00115e-08
1.20476e-07
8.43187e-09
3.44869e-07
2.10897e-07
6.00811e-08
7.57919e-08
7.45192e-09
1.64902e-07
2.26623e-07
4.52366e-08
9.22906e-08
1.38376e-08
1.61806e-07
9.61339e-08
4.87992e-08
6.6283e-08
8.16098e-09
1.76115e-07
2.88725e-07
6.33266e-08
8.20835e-08
3.23707e-09
4.62301e-07
2.51995e-07
1.15395e-07
8.34557e-08
2.34778e-09
3.62819e-07
4.26429e-07
7.35009e-08
1.26069e-07
3.33403e-09
6.23812e-07
3.33822e-07
8.17155e-08
1.00257e-07
1.00978e-07
1.18062e-07
5.38846e-06
1.31172e-06
4.28353e-07
1.09457e-07
2.02043e-07
3.08301e-06
1.49294e-06
3.16011e-07
9.50795e-08
1.21837e-07
3.45344e-06
1.01919e-06
4.41366e-07
9.63846e-08
1.48354e-07
1.8101e-06
8.67757e-07
2.63557e-07
8.25586e-08
9.73358e-08
3.46941e-06
1.03368e-06
3.98628e-07
5.02963e-08
2.51526e-07
3.22595e-06
2.14668e-06
3.98335e-07
7.25035e-08
2.19385e-07
5.55367e-06
1.39505e-06
3.91868e-07
7.14414e-08
2.97844e-07
4.73597e-06
2.06865e-06
3.61478e-07
1.32369e-07
7.74177e-08
6.18959e-06
6.52836e-06
2.20074e-06
1.6707e-07
1.36836e-07
4.66018e-06
5.1235e-06
1.87335e-06
1.11183e-07
8.55123e-08
4.73042e-06
5.30467e-06
3.0848e-06
1.24286e-07
1.08784e-07
3.85008e-06
5.37439e-06
1.69201e-06
8.95042e-08
6.61709e-08
4.92711e-06
5.57019e-06
2.56656e-06
7.19763e-08
1.10416e-07
4.73834e-06
6.63877e-06
2.93468e-06
7.64161e-08
1.31362e-07
6.41184e-06
6.09483e-06
1.83209e-06
1.051e-07
1.67266e-07
6.06593e-06
7.32385e-06
1.84986e-06
1.6935e-07
1.03454e-07
3.58887e-06
4.29804e-06
1.16773e-06
1.1935e-07
1.41563e-07
3.13533e-06
3.25052e-06
1.25068e-06
1.66237e-07
1.14464e-07
2.83842e-06
3.30853e-06
1.38692e-06
1.16538e-07
1.41711e-07
2.75507e-06
3.92136e-06
1.18136e-06
2.38938e-07
1.07383e-07
2.66858e-06
4.4946e-06
9.83714e-07
2.25994e-07
1.26186e-07
2.78872e-06
3.98105e-06
1.07292e-06
1.5617e-07
2.08247e-07
3.27777e-06
3.64318e-06
7.62591e-07
9.98778e-08
2.02826e-07
3.62117e-06
4.33185e-06
1.88376e-06
2.63582e-07
2.4627e-07
2.97752e-07
2.81398e-06
1.18504e-07
1.76526e-07
2.32264e-07
3.61905e-07
2.2441e-06
1.03597e-07
1.78001e-07
2.06547e-07
2.2701e-07
2.35996e-06
1.57817e-07
2.06813e-07
2.33645e-07
2.32663e-07
2.10423e-06
9.41658e-08
2.21109e-07
2.36464e-07
1.9207e-07
2.4187e-06
8.49505e-08
2.3828e-07
2.11562e-07
2.16273e-07
2.38496e-06
1.23252e-07
2.51109e-07
3.04477e-07
3.15537e-07
1.82301e-06
5.99112e-08
2.15327e-07
2.94447e-07
3.58313e-07
2.84192e-06
1.16667e-07
8.74468e-08
8.44274e-08
6.72344e-08
2.35039e-08
1.62404e-09
3.03431e-08
9.55509e-08
6.40641e-08
1.98493e-08
1.54322e-09
4.78075e-08
6.66447e-08
4.37547e-08
2.90606e-08
4.32274e-09
9.38095e-08
9.60222e-08
4.00429e-08
1.45699e-08
2.32513e-09
7.82809e-08
8.94244e-08
4.25738e-08
1.81505e-08
1.41573e-09
6.13859e-08
8.54447e-08
3.82965e-08
2.06593e-08
3.0199e-09
9.58043e-08
1.35753e-07
4.095e-08
1.28801e-08
3.78074e-09
1.03753e-07
1.6106e-07
6.514e-08
2.35596e-08
1.76179e-09
8.38513e-09
3.98259e-09
8.33256e-09
9.053e-10
2.83261e-11
2.20544e-09
5.32252e-09
7.19187e-09
6.16805e-10
2.44916e-11
4.05432e-09
2.76156e-09
4.19177e-09
8.65136e-10
1.53656e-10
1.10805e-08
6.04571e-09
3.71169e-09
5.37579e-10
5.59988e-11
8.06514e-09
4.59638e-09
3.42781e-09
1.09228e-09
4.71525e-11
4.78162e-09
4.36639e-09
3.61199e-09
6.24533e-10
1.29908e-10
8.04308e-09
7.19952e-09
3.34312e-09
2.57358e-10
3.24241e-10
1.04698e-08
1.11293e-08
8.15387e-09
5.03216e-10
4.1572e-11
4.34768e-10
1.81052e-10
4.30359e-10
8.20723e-11
4.44358e-12
8.26623e-11
2.61961e-10
2.71344e-10
4.08099e-11
2.59448e-12
1.74918e-10
9.89648e-11
1.48459e-10
3.92836e-11
1.25867e-11
6.4212e-10
2.86294e-10
1.43595e-10
4.90035e-11
4.4139e-12
3.99213e-10
1.97032e-10
1.10208e-10
6.9455e-11
4.82147e-12
1.99174e-10
1.84729e-10
1.3217e-10
3.9961e-11
1.20761e-11
3.5684e-10
2.63162e-10
1.17328e-10
2.6093e-11
3.24074e-11
4.97075e-10
5.77162e-10
4.01132e-10
3.98896e-11
5.05446e-12
1.66105e-11
9.09491e-12
1.75242e-11
2.82232e-12
3.93984e-13
2.24473e-12
1.31668e-11
6.45348e-12
1.26385e-12
2.01292e-13
5.29144e-12
3.91436e-12
3.42528e-12
6.24491e-13
5.76149e-13
3.14849e-11
1.2083e-11
4.59285e-12
1.80274e-12
3.47139e-13
1.48297e-11
7.01262e-12
2.44126e-12
1.89065e-12
3.58481e-13
6.39874e-12
6.36137e-12
3.1988e-12
1.10868e-12
8.58403e-13
1.33946e-11
7.78077e-12
3.70935e-12
1.33696e-12
2.79784e-12
1.72656e-11
3.25445e-11
1.50556e-11
9.22601e-13
3.09854e-13
3.89047e-13
6.50007e-13
7.22805e-13
5.8663e-14
3.12678e-14
4.65865e-14
6.11271e-13
1.33877e-13
4.3969e-14
1.14522e-14
1.1013e-13
1.93728e-13
6.64126e-14
5.07755e-15
1.32219e-14
1.6124e-12
4.63014e-13
1.96811e-13
5.98552e-14
1.92579e-14
5.25329e-13
2.03809e-13
5.40013e-14
5.30581e-14
2.50931e-14
1.57267e-13
1.93504e-13
7.30582e-14
2.62087e-14
3.84537e-14
5.2148e-13
1.53837e-13
2.01786e-13
6.00023e-14
2.49703e-13
5.40121e-13
1.89534e-12
5.98451e-13
1.02239e-14
1.32642e-14
4.46794e-15
8.37051e-14
2.87934e-14
8.1336e-16
3.84802e-15
7.6713e-16
1.81496e-14
3.87324e-15
3.95751e-15
9.8199e-16
1.25781e-15
1.03231e-14
6.67251e-16
2.42938e-16
2.09705e-15
9.45615e-14
2.04106e-14
1.09073e-14
2.5831e-15
1.32269e-15
2.43597e-14
2.56656e-15
1.86058e-15
3.51502e-15
3.06611e-15
3.35338e-15
5.82624e-15
1.29018e-15
1.12869e-15
1.09082e-15
3.24856e-14
2.12704e-15
1.5969e-14
3.9317e-15
2.27954e-14
2.05858e-14
1.00772e-13
2.73083e-14
2.10197e-16
1.0484e-15
2.00331e-16
1.6665e-14
1.04609e-15
2.39761e-17
8.55158e-16
1.30149e-17
1.90859e-16
3.6935e-16
1.14529e-15
1.33895e-16
1.39677e-18
4.143e-16
1.10016e-17
7.89297e-17
1.27812e-15
3.27443e-15
1.8855e-15
7.10389e-16
2.25902e-16
3.89454e-16
1.72159e-15
1.55479e-17
2.71335e-16
8.9097e-16
5.39493e-16
1.11997e-16
1.49632e-16
4.76382e-17
1.0027e-16
2.40219e-17
2.35069e-15
7.87352e-17
1.26362e-15
7.7113e-16
1.7106e-15
1.24066e-15
3.82358e-15
1.83053e-15
1.4534e-17
4.53845e-16
6.99657e-17
3.1008e-15
2.38728e-17
4.5939e-17
2.98064e-16
6.66408e-19
3.63025e-18
4.72733e-17
5.22496e-16
4.19837e-17
2.58636e-17
6.28327e-17
2.51105e-17
3.76558e-17
5.49974e-16
3.98174e-17
2.87544e-16
5.52768e-17
1.79513e-17
1.62261e-16
1.63219e-16
5.39854e-18
5.28995e-17
3.62423e-16
1.30746e-16
2.00227e-17
7.67398e-18
1.41837e-17
3.56576e-17
1.34447e-18
2.42725e-16
1.31183e-17
1.74796e-16
2.46054e-16
1.22021e-16
8.45304e-17
9.0639e-17
2.27731e-16
2.13662e-17
4.42638e-16
4.61495e-17
3.10677e-16
6.91258e-20
1.13308e-16
1.08205e-16
6.43714e-19
2.59016e-17
4.83792e-17
3.17956e-16
2.46532e-17
1.17166e-16
9.66029e-17
9.26074e-18
4.02448e-17
2.5403e-16
2.66023e-18
6.98739e-17
1.09554e-17
8.12987e-19
1.99119e-17
2.94133e-17
4.92905e-18
1.16481e-17
1.41281e-16
3.64352e-17
8.2448e-18
4.51902e-18
6.84371e-18
1.32613e-17
7.92093e-18
1.09402e-16
1.72321e-17
1.19772e-16
1.02274e-16
2.01992e-17
3.09071e-18
2.25677e-18
3.02297e-17
2.08959e-17
3.43896e-16
2.49752e-17
2.31146e-17
1.32545e-18
1.14825e-16
1.73233e-17
7.57693e-18
5.00822e-17
1.69683e-16
2.01717e-16
1.13598e-17
2.28407e-16
1.23057e-16
2.19457e-18
3.20463e-17
1.52987e-16
8.71623e-18
1.11754e-17
2.96737e-18
3.51971e-19
3.84416e-18
3.36225e-17
6.74998e-18
7.58006e-18
9.35767e-17
1.02131e-17
3.91367e-18
4.44731e-18
5.93662e-18
2.13766e-17
2.49648e-17
1.42341e-16
5.68327e-17
1.10685e-16
3.98447e-17
1.34914e-17
6.47726e-19
2.22667e-19
3.14568e-18
1.6018e-17
2.2184e-16
1.75628e-17
4.38447e-18
8.74991e-18
5.31886e-17
2.519e-18
3.07272e-17
8.32951e-17
2.8796e-16
3.51919e-17
4.14691e-18
2.50321e-16
1.1968e-16
3.2578e-18
1.05465e-17
6.50819e-17
7.28396e-18
5.82492e-19
2.54575e-19
4.83153e-19
2.10086e-18
5.40657e-17
1.67988e-17
4.94326e-18
4.33857e-17
1.97123e-18
1.09897e-18
1.43927e-18
1.00803e-17
5.07996e-17
9.24629e-17
1.97026e-16
7.01439e-17
3.70794e-17
3.58942e-18
3.87435e-18
9.45292e-18
1.0063e-18
1.14748e-17
4.99586e-17
2.46316e-16
4.31821e-18
4.57921e-19
4.37871e-17
2.76709e-17
1.72643e-18
1.36302e-17
1.21613e-16
2.15847e-16
3.02908e-18
3.66098e-18
1.73741e-16
7.71682e-17
2.72408e-17
7.98646e-18
1.55622e-17
3.545e-18
1.70031e-18
2.59841e-19
6.7858e-19
1.98563e-18
6.50053e-17
4.86177e-17
5.28187e-18
9.70548e-19
3.3434e-19
5.91051e-19
1.64362e-18
1.85634e-17
8.94454e-17
1.33768e-16
8.03515e-17
6.83945e-18
4.4794e-19
1.0363e-18
4.47315e-17
1.04884e-16
1.97169e-17
7.32769e-17
1.04773e-16
1.61268e-16
7.63523e-20
1.12168e-17
9.55543e-17
1.79247e-17
3.9405e-21
8.95239e-19
1.1761e-16
1.47188e-16
4.93433e-18
2.54491e-17
1.12985e-16
3.49639e-17
2.39915e-17
6.49852e-18
8.09351e-18
7.21169e-18
1.71406e-18
3.04907e-19
1.99465e-18
2.2401e-18
6.08729e-17
1.34427e-16
4.75245e-17
3.0702e-19
3.6675e-19
3.56854e-19
1.80858e-18
1.27055e-17
3.74204e-17
2.45376e-17
1.43063e-18
1.14515e-19
3.7824e-18
1.28823e-16
5.3074e-16
2.37955e-16
2.61314e-17
3.45772e-17
4.49723e-17
2.06188e-17
7.21344e-18
2.54189e-17
6.76581e-17
4.7479e-18
3.29845e-20
1.67361e-18
7.27941e-17
3.58012e-17
4.03702e-18
1.94962e-17
4.8891e-17
1.65881e-17
3.86448e-18
3.22809e-19
6.71246e-18
1.55535e-17
3.17022e-18
3.73025e-19
3.20773e-18
2.96413e-18
2.33729e-17
1.35711e-16
1.18508e-16
6.07501e-18
1.37666e-19
7.15341e-19