/*--------------------------------*- C++ -*----------------------------------*\
  =========                 |
  \\      /  F ield         | OpenFOAM: The Open Source CFD Toolbox
   \\    /   O peration     | Website:  https://openfoam.org
    \\  /    A nd           | Version:  10
     \\/     M anipulation  |
\*---------------------------------------------------------------------------*/
FoamFile
{
    format      ascii;
    class       volVectorField;
    location    "17.5";
    object      U;
}
// * * * * * * * * * * * * * * * * * * * * * * * * * * * * * * * * * * * * * //

dimensions      [0 1 -1 0 0 0 0];

internalField   nonuniform List<vector> 
25600
(
(0.0450426 6.26777e-07 -4.71892e-05)
(0.0443091 1.00831e-06 3.76194e-06)
(0.0450047 -5.1889e-07 -4.46743e-05)
(0.0442888 1.27503e-06 5.317e-07)
(0.0449795 -3.00572e-07 -1.04509e-05)
(0.0442829 2.71554e-07 1.46039e-05)
(0.0449729 8.93779e-07 -9.35141e-07)
(0.0442783 2.23493e-07 3.54556e-06)
(0.0449939 -4.75601e-07 -2.82881e-05)
(0.0442874 8.98921e-07 -2.74216e-06)
(0.0450022 -7.76897e-07 -4.38506e-05)
(0.0443098 6.12933e-07 -1.55351e-05)
(0.0450237 9.17497e-07 -6.68179e-05)
(0.0443084 5.29102e-07 -4.71272e-05)
(0.0450452 -8.83993e-07 -8.92438e-05)
(0.0443442 -4.65707e-07 -8.53091e-05)
(0.0450467 1.50104e-06 -0.000109597)
(0.0443306 5.08442e-07 -9.90221e-05)
(0.045079 7.43641e-07 -0.000131097)
(0.0443387 1.01896e-06 -0.000102504)
(0.0450856 -5.64943e-07 -0.000143268)
(0.0443546 8.92364e-07 -0.000125582)
(0.0451066 6.62281e-07 -0.000140946)
(0.044365 2.21244e-06 -0.00011542)
(0.0451168 1.24602e-06 -0.000123561)
(0.0444103 -5.82363e-07 -0.000127735)
(0.0451442 2.363e-06 -0.000126783)
(0.044408 4.39066e-07 -0.000133808)
(0.0451835 4.77891e-07 -0.000118981)
(0.0444371 3.4462e-06 -9.93977e-05)
(0.0451613 1.41729e-07 -0.000106504)
(0.0444644 4.40489e-07 -0.000101865)
(0.0451606 2.09671e-06 -0.000104936)
(0.0444347 2.05675e-07 -9.28528e-05)
(0.0451562 7.28722e-07 -8.28282e-05)
(0.044423 1.52976e-06 -6.00075e-05)
(0.0451028 9.09851e-07 -7.51117e-05)
(0.0443983 -2.91961e-07 -6.28609e-05)
(0.0450685 1.88464e-06 -5.98085e-05)
(0.0443522 -5.11176e-07 -2.72426e-05)
(0.138535 7.05109e-06 -9.38816e-05)
(0.136308 7.60906e-06 9.06413e-06)
(0.138426 2.56551e-06 -8.93487e-05)
(0.1362 8.12387e-06 3.00062e-05)
(0.138338 2.68109e-06 -3.3924e-05)
(0.136145 5.03005e-06 4.61136e-05)
(0.138283 6.47654e-06 -3.06096e-05)
(0.136141 4.55398e-06 1.02792e-05)
(0.138303 2.20077e-06 -8.50059e-05)
(0.136139 8.42126e-06 -1.76847e-05)
(0.138341 1.36147e-06 -0.000134814)
(0.136181 8.91447e-06 -6.93022e-05)
(0.138401 8.4926e-06 -0.000214445)
(0.136208 8.56526e-06 -0.000153662)
(0.138471 3.53693e-06 -0.000281996)
(0.136267 8.69648e-06 -0.000247958)
(0.138486 1.40212e-05 -0.000337742)
(0.136287 1.36015e-05 -0.000302816)
(0.138571 1.3172e-05 -0.000389741)
(0.136304 1.58528e-05 -0.000325366)
(0.138617 1.00832e-05 -0.000426719)
(0.136342 1.65114e-05 -0.000364914)
(0.138668 1.65566e-05 -0.00041923)
(0.136384 2.24944e-05 -0.000348834)
(0.138733 1.69186e-05 -0.000392525)
(0.136506 1.3402e-05 -0.000365682)
(0.138781 2.0886e-05 -0.000374338)
(0.136572 1.5276e-05 -0.000356613)
(0.138878 1.56951e-05 -0.000331107)
(0.136644 2.48848e-05 -0.000290304)
(0.138909 1.03921e-05 -0.000298936)
(0.136713 1.36225e-05 -0.000271761)
(0.138899 1.6018e-05 -0.000264571)
(0.136689 1.05697e-05 -0.000232033)
(0.138875 1.13404e-05 -0.000204982)
(0.136639 1.37338e-05 -0.000158991)
(0.13877 8.54053e-06 -0.000176845)
(0.13656 6.68645e-06 -0.000133487)
(0.138651 1.16514e-05 -0.000124891)
(0.136444 4.20046e-06 -6.13913e-05)
(0.238737 2.16087e-05 -0.000120101)
(0.234903 2.14043e-05 3.18584e-05)
(0.238518 1.37477e-05 -0.000109394)
(0.234658 2.18009e-05 7.74464e-05)
(0.238302 1.2014e-05 -4.18178e-05)
(0.234478 1.61082e-05 0.000108069)
(0.238109 1.81402e-05 -3.56671e-05)
(0.234408 1.571e-05 6.21223e-05)
(0.238049 1.07262e-05 -0.000100968)
(0.234328 2.31204e-05 1.75394e-05)
(0.238073 8.85511e-06 -0.000171994)
(0.234329 2.62159e-05 -6.26681e-05)
(0.238154 2.29624e-05 -0.000296684)
(0.23437 2.59398e-05 -0.000200626)
(0.238252 1.56215e-05 -0.000407267)
(0.23444 3.04096e-05 -0.000349375)
(0.238306 3.79594e-05 -0.000505637)
(0.234518 4.18317e-05 -0.000457192)
(0.238464 3.8502e-05 -0.000597867)
(0.234568 4.56912e-05 -0.00051248)
(0.23857 3.54967e-05 -0.000668738)
(0.234651 4.99784e-05 -0.000580156)
(0.23866 4.9895e-05 -0.000676791)
(0.234763 6.1864e-05 -0.000576117)
(0.238785 4.85321e-05 -0.000649694)
(0.234975 4.65793e-05 -0.000597517)
(0.238869 5.60932e-05 -0.000616276)
(0.235149 4.83513e-05 -0.000574379)
(0.239038 4.77004e-05 -0.000544478)
(0.235307 6.3448e-05 -0.000481151)
(0.239196 3.35699e-05 -0.000483409)
(0.23544 4.34966e-05 -0.000438032)
(0.239244 4.22908e-05 -0.000411085)
(0.235476 3.48601e-05 -0.000362947)
(0.239237 3.31079e-05 -0.000317161)
(0.235435 3.85042e-05 -0.000249383)
(0.23914 2.53742e-05 -0.00025646)
(0.235313 2.49783e-05 -0.000187449)
(0.238963 3.01348e-05 -0.000170998)
(0.235145 1.76002e-05 -8.1566e-05)
(0.344164 4.74496e-05 -0.000147374)
(0.338669 4.40976e-05 8.91526e-05)
(0.343813 3.701e-05 -0.000115283)
(0.33829 4.26488e-05 0.000167346)
(0.343394 3.1725e-05 -2.12743e-05)
(0.337919 3.50284e-05 0.000223365)
(0.342921 3.61611e-05 1.92948e-05)
(0.337652 3.54328e-05 0.000184539)
(0.342659 2.48672e-05 -3.27874e-05)
(0.337346 4.59452e-05 0.000148284)
(0.342558 2.14582e-05 -9.65444e-05)
(0.337169 5.06818e-05 6.93705e-05)
(0.342565 4.15069e-05 -0.000232269)
(0.337139 5.03607e-05 -0.000115235)
(0.342613 3.20187e-05 -0.000377237)
(0.337163 6.0349e-05 -0.000316891)
(0.342686 6.76224e-05 -0.000515911)
(0.337289 8.06833e-05 -0.000484557)
(0.342947 7.29832e-05 -0.000668469)
(0.337401 8.55832e-05 -0.000583884)
(0.343127 7.32474e-05 -0.000794705)
(0.3376 9.65739e-05 -0.000707839)
(0.343274 9.60876e-05 -0.000843039)
(0.337863 0.000117794 -0.000748125)
(0.343484 9.39121e-05 -0.000845284)
(0.338199 9.82618e-05 -0.000802548)
(0.343659 0.000105495 -0.000828535)
(0.338494 9.99761e-05 -0.00078546)
(0.343962 9.44503e-05 -0.000745945)
(0.338767 0.000120118 -0.000676984)
(0.344323 7.10374e-05 -0.000664159)
(0.339019 9.03253e-05 -0.000621007)
(0.34452 8.1879e-05 -0.000564344)
(0.339188 7.57326e-05 -0.00050572)
(0.344621 6.70561e-05 -0.000435855)
(0.339227 7.86479e-05 -0.000349483)
(0.344631 5.46003e-05 -0.000343487)
(0.339134 5.63716e-05 -0.000244095)
(0.344461 5.93547e-05 -0.000214606)
(0.338988 4.33995e-05 -8.91604e-05)
(0.45246 9.02263e-05 -0.000213527)
(0.445465 7.45147e-05 0.000179699)
(0.452019 7.66344e-05 -0.000127416)
(0.445101 7.21139e-05 0.000305969)
(0.451422 6.25823e-05 3.63633e-05)
(0.4446 6.78691e-05 0.000378915)
(0.450621 5.9139e-05 0.000145733)
(0.443991 6.54015e-05 0.000369182)
(0.450052 4.4503e-05 0.000128228)
(0.443248 7.71069e-05 0.000372199)
(0.449679 4.00371e-05 0.000111784)
(0.4427 8.28992e-05 0.000330465)
(0.4494 6.09774e-05 2.66447e-05)
(0.442409 7.81972e-05 0.000140671)
(0.44921 4.83408e-05 -0.00012713)
(0.442201 9.34317e-05 -9.93369e-05)
(0.44915 9.50891e-05 -0.000287747)
(0.442242 0.000119811 -0.000307174)
(0.449436 0.000111577 -0.00051825)
(0.442396 0.000123932 -0.00044692)
(0.449602 0.000113385 -0.000703721)
(0.442783 0.000149399 -0.000656181)
(0.449805 0.000143132 -0.000805648)
(0.443254 0.000182196 -0.000764727)
(0.450208 0.000142978 -0.000887885)
(0.443711 0.00016209 -0.000898698)
(0.450614 0.00016261 -0.000940944)
(0.44413 0.000165532 -0.000936576)
(0.45115 0.000151519 -0.000877053)
(0.44455 0.000190706 -0.000846001)
(0.451768 0.000119815 -0.000809136)
(0.444982 0.000152098 -0.000802408)
(0.452208 0.000132168 -0.000720731)
(0.445356 0.000132369 -0.000661012)
(0.452534 0.00011372 -0.000564834)
(0.445569 0.000131715 -0.000457001)
(0.452765 9.86019e-05 -0.000461475)
(0.445664 0.000101683 -0.000314703)
(0.452704 0.000100924 -0.000283226)
(0.445696 8.10225e-05 -8.11203e-05)
(0.560203 0.000152151 -0.000349735)
(0.552372 0.000111833 0.000266242)
(0.559802 0.000128199 -0.000176246)
(0.552303 0.000115946 0.000427453)
(0.559255 9.58474e-05 0.000144794)
(0.5519 0.000121437 0.000525994)
(0.558474 9.00493e-05 0.000324977)
(0.550986 0.000106296 0.000568572)
(0.557687 6.96332e-05 0.000355843)
(0.549691 0.000112965 0.000621816)
(0.55692 6.3554e-05 0.000423808)
(0.548697 0.000126272 0.000641579)
(0.556182 8.76301e-05 0.000432303)
(0.547919 0.000108182 0.000530745)
(0.555479 6.13728e-05 0.000338198)
(0.547172 0.000125576 0.000295118)
(0.554979 0.00012061 0.000182911)
(0.546848 0.000150603 0.000114311)
(0.55497 0.000152115 -0.000123038)
(0.546891 0.000156083 -6.30263e-05)
(0.554795 0.000136707 -0.000320891)
(0.547299 0.000201399 -0.000357199)
(0.555028 0.00018092 -0.00048077)
(0.547754 0.000242552 -0.000492414)
(0.555759 0.000181431 -0.000658066)
(0.548183 0.000220226 -0.000756662)
(0.556516 0.000213115 -0.000821734)
(0.54878 0.000236124 -0.000928705)
(0.557345 0.000210738 -0.00081793)
(0.549445 0.000265882 -0.000879874)
(0.558249 0.000171183 -0.000833564)
(0.550084 0.000219325 -0.000886338)
(0.559018 0.000188101 -0.000818823)
(0.550739 0.000196394 -0.000771395)
(0.559625 0.000172828 -0.000687754)
(0.551255 0.000187438 -0.000513345)
(0.560111 0.000152272 -0.000598994)
(0.551738 0.000156324 -0.00037919)
(0.560259 0.000155851 -0.000400739)
(0.552163 0.000122906 -3.57817e-05)
(0.66302 0.000214949 -0.000469071)
(0.655735 0.000161316 0.000312994)
(0.662963 0.000175102 -0.000229321)
(0.656148 0.000181361 0.000395173)
(0.662883 0.000121987 0.000276578)
(0.655935 0.000178511 0.00061583)
(0.662783 0.000130491 0.000529226)
(0.655242 0.000162425 0.000693256)
(0.662308 0.000109592 0.000600841)
(0.653739 0.000150437 0.000797832)
(0.661148 8.18011e-05 0.000763791)
(0.652402 0.000166333 0.00092013)
(0.660122 0.000131956 0.000826957)
(0.651287 0.000157665 0.000899564)
(0.658842 7.69894e-05 0.000887047)
(0.649763 0.000143496 0.000783207)
(0.657519 0.000143138 0.000772422)
(0.648833 0.000179577 0.000727557)
(0.656851 0.000198998 0.000462098)
(0.648489 0.000205357 0.0004867)
(0.655984 0.000136774 0.000301796)
(0.648138 0.000229465 0.000190932)
(0.656173 0.000210645 6.57439e-05)
(0.648042 0.000302192 8.05303e-05)
(0.657104 0.000213053 -8.15769e-05)
(0.648129 0.000259531 -0.000317258)
(0.657808 0.000223533 -0.00033328)
(0.6489 0.00029038 -0.000663304)
(0.658851 0.000270413 -0.000493621)
(0.649879 0.000337995 -0.000613925)
(0.660061 0.000217398 -0.000630298)
(0.650683 0.000268391 -0.000720891)
(0.661075 0.000239981 -0.000749579)
(0.651793 0.000253903 -0.000679662)
(0.661914 0.000247032 -0.000749978)
(0.652746 0.000238448 -0.000421007)
(0.66254 0.000198634 -0.000665846)
(0.653748 0.000202195 -0.000361864)
(0.662901 0.000219979 -0.000544627)
(0.654754 0.000161517 9.80923e-05)
(0.756564 0.000252728 -0.000374205)
(0.751239 0.000203725 0.000391453)
(0.757223 0.000190024 -7.30245e-05)
(0.752139 0.00025992 0.000207007)
(0.758238 0.000176005 0.000341134)
(0.752034 0.000223854 0.000577678)
(0.75876 0.000141555 0.00078631)
(0.751979 0.000194903 0.000738845)
(0.7594 0.000182524 0.00075794)
(0.751443 0.00022332 0.000817332)
(0.758436 0.000113214 0.000963542)
(0.749903 0.000169433 0.00115689)
(0.757246 0.000141365 0.00115071)
(0.749099 0.000233124 0.00107548)
(0.756197 0.000152287 0.00121309)
(0.747283 0.000175893 0.00117622)
(0.753942 0.000133183 0.00126042)
(0.745403 0.000182209 0.0013487)
(0.752672 0.000245739 0.00108896)
(0.744581 0.000314341 0.00104439)
(0.751564 0.000185413 0.000925417)
(0.742579 0.00021968 0.000883281)
(0.751062 0.000190618 0.000731341)
(0.741523 0.000363325 0.000688929)
(0.751766 0.000279027 0.00072045)
(0.741342 0.000339636 0.000290601)
(0.7515 0.000200557 0.000457079)
(0.741531 0.000261993 -2.54623e-05)
(0.752284 0.000309651 -1.61989e-05)
(0.742763 0.000421166 -4.64591e-05)
(0.753659 0.000290653 -0.000185178)
(0.7437 0.000283901 -0.000193452)
(0.754359 0.000258607 -0.000461311)
(0.745259 0.000282439 -0.000272395)
(0.755377 0.00033871 -0.000636624)
(0.746848 0.000311546 -0.000148687)
(0.755938 0.000231112 -0.000522226)
(0.748233 0.000213682 -0.000142769)
(0.756393 0.000268938 -0.000638723)
(0.749868 0.000221573 0.000254136)
(0.838376 0.000368365 -0.000233614)
(0.83506 0.000279678 0.000390484)
(0.839134 0.00012132 0.000514124)
(0.835545 0.000214879 0.00026817)
(0.841491 0.000271484 0.000399811)
(0.836499 0.000372168 0.000283569)
(0.842499 0.000198934 0.000921149)
(0.836249 0.00010098 0.000983979)
(0.843345 0.00014208 0.000952301)
(0.837433 0.000337549 0.000713132)
(0.844205 0.000275135 0.000760762)
(0.836855 0.000242551 0.00113869)
(0.842744 5.20699e-05 0.00146501)
(0.835806 0.000175369 0.00129519)
(0.842633 0.000260707 0.00117623)
(0.835262 0.000362639 0.00114426)
(0.841037 0.00019405 0.00135148)
(0.832313 0.000103408 0.00177761)
(0.839 0.000165679 0.00160747)
(0.830872 0.000414881 0.0014085)
(0.8389 0.000392078 0.0012247)
(0.828538 0.000341613 0.0012841)
(0.837019 0.00010355 0.0014977)
(0.82595 0.000309302 0.00121024)
(0.83659 0.000349884 0.00134916)
(0.826171 0.000556457 0.000797131)
(0.835782 0.00032494 0.00104527)
(0.825077 0.000168318 0.000974448)
(0.834717 0.000219467 0.000624233)
(0.825908 0.000469048 0.000594839)
(0.836093 0.000481473 0.000189823)
(0.827319 0.00037185 0.0004998)
(0.835816 0.000220744 0.00011644)
(0.828439 0.000216715 0.000365961)
(0.836584 0.000406903 -0.000329479)
(0.830823 0.000491949 0.000102475)
(0.83734 0.000329416 -0.000226918)
(0.832092 0.000188406 0.000385668)
(0.837506 0.000207261 -0.000385741)
(0.834069 0.00031462 0.000225824)
(0.906374 0.000498283 -0.00018343)
(0.905047 0.000649866 -0.000329153)
(0.907883 0.000316738 0.000758406)
(0.903862 -3.11551e-05 0.000915254)
(0.908817 5.27404e-05 0.00097316)
(0.905523 0.000508602 5.35787e-06)
(0.911635 0.000601952 0.000292479)
(0.906418 0.000262651 0.00104711)
(0.911064 -0.000122651 0.00158659)
(0.906436 0.000114517 0.00116754)
(0.913066 0.000429819 0.000367903)
(0.908566 0.000651833 0.000398102)
(0.913657 0.000231968 0.00125758)
(0.906964 -6.56389e-05 0.00182837)
(0.912756 1.53544e-05 0.00145587)
(0.906923 0.000539983 0.000769736)
(0.913936 0.000608125 0.000642659)
(0.905351 0.000283178 0.00160168)
(0.911499 -7.9996e-05 0.00218811)
(0.90234 0.000160585 0.0018032)
(0.911364 0.000521318 0.00117894)
(0.902167 0.000812502 0.000758842)
(0.910395 0.00033038 0.00166227)
(0.898974 0.0001092 0.00195066)
(0.90738 0.000109372 0.00185525)
(0.898787 0.000720853 0.00100778)
(0.907316 0.000821471 0.000703534)
(0.898398 0.000400403 0.00156864)
(0.904191 1.63544e-05 0.00161636)
(0.896888 0.000190453 0.00150448)
(0.90431 0.000630291 0.000363907)
(0.899392 0.00079714 0.0005016)
(0.904198 0.000401673 0.000639775)
(0.899138 2.58782e-05 0.00133415)
(0.903207 0.000165591 0.000426745)
(0.901248 0.000655702 0.000139677)
(0.905224 0.000728429 -0.000448735)
(0.90289 0.000426538 0.000648231)
(0.904655 1.31784e-06 0.000618333)
(0.903309 0.000129393 0.000545778)
(0.95778 0.000103636 0.000909812)
(0.957406 0.000806687 -0.0011109)
(0.961605 0.00106015 -0.00063842)
(0.958125 0.000334331 0.000889219)
(0.960352 -0.000286031 0.00224104)
(0.956839 6.20496e-05 0.000931332)
(0.962394 0.00080067 -0.00064338)
(0.960591 0.00100703 -0.000321399)
(0.96385 0.000214258 0.00153328)
(0.95863 -0.000261472 0.00255759)
(0.962844 -1.5507e-05 0.00121911)
(0.960282 0.000860104 -0.000461717)
(0.966709 0.000940726 -0.000303211)
(0.961471 0.000294654 0.00160193)
(0.965554 -0.000383156 0.00258881)
(0.959027 9.64145e-05 0.00136076)
(0.966826 0.000841701 -0.000369488)
(0.960676 0.00102524 -7.55511e-05)
(0.966888 0.00026738 0.00205762)
(0.957487 -0.000229047 0.00286402)
(0.963953 1.17996e-05 0.00191989)
(0.95736 0.00100333 -6.14836e-05)
(0.965472 0.00110435 8.99394e-05)
(0.957528 0.000501062 0.00200536)
(0.96158 -0.000285447 0.00291079)
(0.954872 0.000232071 0.00185301)
(0.960913 0.00107586 -0.000248663)
(0.95705 0.00122129 0.000232604)
(0.959669 0.000451613 0.00192756)
(0.953805 -0.000184593 0.00301691)
(0.95601 0.000137604 0.00148573)
(0.955156 0.00104876 -9.66392e-05)
(0.958146 0.0011197 -0.00027516)
(0.955997 0.000401363 0.00169835)
(0.955342 -0.000210265 0.00206425)
(0.954517 0.000227221 0.00111886)
(0.956904 0.000917852 -0.00095109)
(0.957927 0.00118564 -0.000732298)
(0.958338 0.000388722 0.00106063)
(0.956374 -0.000181521 0.0018201)
(0.994484 -0.000169466 0.00301902)
(0.992327 0.000373246 0.000134501)
(0.996517 0.00133002 -0.00212408)
(0.996161 0.001128 -0.00109852)
(0.997674 0.000113642 0.00234637)
(0.99347 -0.000263492 0.00304709)
(0.995547 0.000370688 0.000274226)
(0.995692 0.00131056 -0.0019504)
(1.00022 0.00100563 -0.000563667)
(0.996362 0.000119137 0.0027514)
(0.997522 -0.000376041 0.00334103)
(0.993847 0.00045307 0.000595299)
(0.999876 0.00120524 -0.00182906)
(0.997866 0.00108598 -0.000565684)
(1.00195 -4.84135e-05 0.00275538)
(0.995049 -0.000301838 0.00329608)
(0.99994 0.00040757 0.000497203)
(0.996326 0.00133163 -0.00196655)
(1.00288 0.00107488 -0.000190509)
(0.99683 0.000130873 0.00296505)
(0.999187 -0.000401111 0.00378191)
(0.993728 0.000498445 0.00101979)
(0.999401 0.00137529 -0.00169514)
(0.997407 0.00134224 -0.000123498)
(0.999297 7.77192e-05 0.00306889)
(0.994057 -0.000215079 0.00384137)
(0.995659 0.000552327 0.000715404)
(0.995386 0.00153384 -0.00179753)
(0.998213 0.00132856 -0.000187938)
(0.995669 0.000259263 0.00324281)
(0.993202 -0.000269163 0.00371069)
(0.99241 0.000600622 0.000970846)
(0.994368 0.00140366 -0.00165015)
(0.995947 0.00120345 -8.42762e-05)
(0.994388 0.000148073 0.00263448)
(0.992438 -0.00011681 0.0032466)
(0.992024 0.000470607 0.000421616)
(0.993932 0.00146339 -0.00231542)
(0.996236 0.0011839 -0.000735025)
(0.994803 0.000195175 0.00215262)
(1.01807 4.92817e-05 0.00373123)
(1.01502 0.000205054 0.00242408)
(1.01651 0.00114745 -0.00135964)
(1.01754 0.0013428 -0.00277046)
(1.01986 0.000554138 0.00061555)
(1.01733 -4.23088e-05 0.00380315)
(1.01667 0.000193107 0.0024645)
(1.01582 0.0011529 -0.00143632)
(1.02004 0.00122381 -0.00243727)
(1.01906 0.000577 0.000939527)
(1.01965 -0.000167646 0.00406486)
(1.01547 0.000291585 0.00275935)
(1.01834 0.00102049 -0.00114708)
(1.01795 0.00131267 -0.0024437)
(1.02227 0.000367102 0.00101292)
(1.01795 -0.00014708 0.00404509)
(1.01951 0.000176989 0.00270523)
(1.01666 0.0011113 -0.00149834)
(1.02147 0.00130892 -0.00230923)
(1.01982 0.000567549 0.0010779)
(1.02063 -0.000214636 0.00429531)
(1.01643 0.000272438 0.0031962)
(1.01801 0.0011155 -0.00109072)
(1.01887 0.00155837 -0.00219483)
(1.02099 0.00052205 0.00125065)
(1.01829 -4.00237e-05 0.00445093)
(1.01709 0.000260321 0.00309481)
(1.01653 0.00126953 -0.00137753)
(1.01905 0.00150627 -0.00235119)
(1.02022 0.000733418 0.00128092)
(1.01764 -4.16628e-05 0.0043642)
(1.01573 0.00039524 0.00311321)
(1.01554 0.00118804 -0.00101666)
(1.01811 0.00139705 -0.0018684)
(1.01837 0.000535525 0.00117194)
(1.01709 7.54861e-05 0.00397832)
(1.01505 0.000300275 0.00281246)
(1.01496 0.00127276 -0.00157266)
(1.01764 0.00139325 -0.00246804)
(1.01796 0.000577195 0.000640086)
(1.02974 0.00016275 0.0028449)
(1.02804 0.00030998 0.00324614)
(1.02778 0.00104728 0.000239794)
(1.02811 0.00116079 -0.00247861)
(1.02992 0.000511482 -0.000677741)
(1.02941 0.000109919 0.00284457)
(1.02871 0.000319997 0.00333289)
(1.02732 0.00107076 2.89983e-05)
(1.0293 0.00102637 -0.00232418)
(1.02956 0.000551572 -0.000502928)
(1.03047 3.05573e-06 0.003058)
(1.02804 0.000433173 0.00350125)
(1.02853 0.000935 0.00035127)
(1.02807 0.00113442 -0.00233038)
(1.03084 0.000315329 -0.000413802)
(1.02943 -3.73269e-05 0.0030847)
(1.02996 0.000268121 0.00357286)
(1.02784 0.000954209 5.90958e-05)
(1.02987 0.00111109 -0.00229973)
(1.03 0.000519403 -0.000480991)
(1.03076 -7.75193e-05 0.00313725)
(1.0288 0.000380072 0.00381407)
(1.02834 0.000955836 0.000445125)
(1.02888 0.00133645 -0.00220925)
(1.03053 0.000472698 -0.00029696)
(1.02991 9.28504e-05 0.00326325)
(1.02899 0.00032746 0.00392264)
(1.0279 0.00110413 0.000239403)
(1.02873 0.00122946 -0.00237072)
(1.03065 0.000636514 -0.00031555)
(1.02987 0.000115079 0.00322124)
(1.02859 0.000507806 0.00379272)
(1.02744 0.00106662 0.000436041)
(1.02866 0.00119092 -0.00183919)
(1.02943 0.000443931 -0.00011111)
(1.02947 0.000170615 0.00303598)
(1.02822 0.000414139 0.00366132)
(1.02708 0.00117269 9.92674e-05)
(1.02825 0.00121662 -0.00227084)
(1.02891 0.000492506 -0.000582306)
(1.03379 5.44832e-05 0.00178167)
(1.03355 0.000340897 0.00251682)
(1.03329 0.000978108 0.000808413)
(1.03301 0.000915662 -0.00147713)
(1.03356 0.00025 -0.000736605)
(1.03372 3.55094e-05 0.00167526)
(1.03377 0.000384447 0.00260634)
(1.03312 0.00101314 0.000558646)
(1.03339 0.000775231 -0.00142084)
(1.03343 0.000294829 -0.000673598)
(1.03404 -5.17101e-05 0.00185977)
(1.03349 0.000508457 0.00267763)
(1.03348 0.000895294 0.000823461)
(1.03295 0.000888185 -0.00144835)
(1.03376 6.08121e-05 -0.000586381)
(1.0335 -0.000127843 0.00189605)
(1.03415 0.000342209 0.00281425)
(1.03321 0.000858784 0.000669909)
(1.03358 0.000841587 -0.00137387)
(1.03357 0.000263452 -0.000709981)
(1.034 -0.000155427 0.00188579)
(1.03375 0.000439672 0.00284393)
(1.03342 0.00086165 0.000907752)
(1.03331 0.00104366 -0.00135879)
(1.03385 0.000215681 -0.000576829)
(1.03377 1.46159e-05 0.00191936)
(1.03388 0.000377557 0.00299027)
(1.03335 0.00101074 0.000853304)
(1.03315 0.000916316 -0.0014744)
(1.03396 0.000313532 -0.000547685)
(1.03399 3.18338e-05 0.00194185)
(1.03381 0.000571046 0.00292465)
(1.0332 0.000998238 0.000907574)
(1.03334 0.00093697 -0.00109229)
(1.03342 0.000165509 -0.000312634)
(1.03378 4.59753e-05 0.00189144)
(1.03369 0.000449083 0.00288965)
(1.03309 0.00110189 0.000742801)
(1.03318 0.000979272 -0.00131117)
(1.03318 0.000211111 -0.000678527)
(1.03464 -2.99464e-05 0.00108102)
(1.03491 0.00025896 0.00139406)
(1.035 0.000780862 0.000499959)
(1.03476 0.000666468 -0.000807289)
(1.03464 7.67239e-05 -0.000355162)
(1.03466 -4.66729e-05 0.000925332)
(1.03496 0.000316276 0.00144012)
(1.03501 0.000815239 0.000253343)
(1.03482 0.000539672 -0.000792578)
(1.03457 0.000113601 -0.000337454)
(1.03468 -0.000114651 0.00108448)
(1.0349 0.000439163 0.00147081)
(1.03503 0.00071928 0.000456278)
(1.03476 0.00063883 -0.000844989)
(1.03463 -8.49252e-05 -0.000242431)
(1.03444 -0.00019263 0.00112191)
(1.03505 0.000297528 0.00162391)
(1.03492 0.000668089 0.000397471)
(1.03486 0.000596708 -0.000710527)
(1.03463 9.90087e-05 -0.000383679)
(1.03459 -0.000218021 0.001118)
(1.0349 0.000375991 0.00155389)
(1.03502 0.000656613 0.000496522)
(1.03484 0.000755551 -0.000766718)
(1.03477 4.81412e-05 -0.000317486)
(1.03456 -6.02907e-05 0.00107475)
(1.03499 0.000302326 0.00164819)
(1.03504 0.000792378 0.000529783)
(1.03477 0.000643484 -0.000843226)
(1.03475 0.000113375 -0.0002287)
(1.03475 -5.77658e-05 0.00112788)
(1.03498 0.000487783 0.00168639)
(1.03502 0.000792975 0.000542742)
(1.03494 0.000687623 -0.000599646)
(1.03458 -3.56314e-06 -8.15279e-05)
(1.03468 -5.02486e-05 0.00112875)
(1.03496 0.000353274 0.00168978)
(1.03497 0.000882979 0.000473156)
(1.03492 0.000739806 -0.000668399)
(1.03456 2.25145e-05 -0.00034516)
(1.03468 -2.72699e-05 0.000649202)
(1.03491 0.000163561 0.000614911)
(1.03508 0.000532675 0.0001506)
(1.03504 0.000437369 -0.000452584)
(1.03483 2.7023e-06 -8.77307e-05)
(1.03472 -5.64024e-05 0.000499799)
(1.03489 0.000220973 0.00062079)
(1.03514 0.000552971 -6.0975e-05)
(1.03502 0.000335091 -0.000457557)
(1.03479 3.93341e-05 -8.04883e-05)
(1.03466 -0.000107252 0.000623389)
(1.03491 0.000332775 0.000641571)
(1.03509 0.000484365 9.01776e-05)
(1.03507 0.000411556 -0.000515494)
(1.03484 -0.000119961 2.08381e-05)
(1.03455 -0.000169817 0.000655468)
(1.03494 0.000229323 0.000782878)
(1.03505 0.00044418 6.81809e-05)
(1.03501 0.000378495 -0.000366512)
(1.03486 3.54287e-05 -0.000123706)
(1.03461 -0.000192888 0.000665951)
(1.03488 0.000294986 0.000684451)
(1.03509 0.000420362 0.000101792)
(1.03504 0.00050112 -0.000455569)
(1.03492 -2.24986e-05 -9.90604e-05)
(1.03461 -6.66326e-05 0.000589851)
(1.03493 0.000217817 0.000730634)
(1.03511 0.000530529 0.000160954)
(1.03503 0.000412017 -0.000504253)
(1.03485 3.10823e-05 1.52959e-05)
(1.03472 -7.41111e-05 0.000639812)
(1.03489 0.000370819 0.000815189)
(1.03513 0.000538386 0.000162676)
(1.03513 0.000459862 -0.000343095)
(1.03479 -6.12105e-05 8.56931e-05)
(1.03472 -5.98976e-05 0.000662351)
(1.03489 0.000240603 0.000827244)
(1.03507 0.000605466 0.000135513)
(1.03516 0.000512797 -0.000347051)
(1.03485 -5.845e-05 -9.83853e-05)
(1.03464 3.63609e-06 0.000379969)
(1.03478 0.000100336 0.000254579)
(1.0349 0.00033591 3.21874e-05)
(1.03494 0.000253663 -0.000238632)
(1.03483 -3.47397e-05 2.96771e-06)
(1.03469 -3.68413e-05 0.000264634)
(1.03474 0.00015819 0.000239819)
(1.03495 0.00033622 -0.000125149)
(1.03493 0.000179153 -0.000261841)
(1.03479 3.67543e-06 1.35373e-05)
(1.03463 -7.60104e-05 0.000345502)
(1.03478 0.000254306 0.000265209)
(1.03492 0.000292235 -1.75108e-05)
(1.03499 0.000236951 -0.000307818)
(1.03485 -0.000123718 0.000104674)
(1.03457 -0.000117758 0.000363706)
(1.0348 0.000179082 0.000381139)
(1.0349 0.000263939 -3.9208e-05)
(1.0349 0.000211017 -0.000177193)
(1.03487 1.07784e-05 -3.00945e-05)
(1.03461 -0.000141833 0.000384132)
(1.03478 0.000240814 0.000280677)
(1.03493 0.000234974 -2.06081e-05)
(1.03493 0.000304821 -0.000269287)
(1.0349 -5.57688e-05 -1.90111e-05)
(1.03461 -4.40555e-05 0.000310065)
(1.0348 0.000169346 0.000301414)
(1.03493 0.000317635 3.96222e-05)
(1.03494 0.000231361 -0.000299921)
(1.03482 -4.16387e-06 8.9252e-05)
(1.03467 -5.50219e-05 0.000343511)
(1.03474 0.000283297 0.00038964)
(1.03496 0.00032936 2.92991e-05)
(1.03501 0.000276019 -0.000180749)
(1.03479 -8.15881e-05 0.000116335)
(1.03469 -3.60032e-05 0.000379141)
(1.03474 0.000169124 0.000398487)
(1.03487 0.000380386 2.23232e-05)
(1.03503 0.000326411 -0.000167573)
(1.03486 -0.000100749 -7.4875e-06)
(1.03466 2.56939e-05 0.000217532)
(1.03474 5.73607e-05 0.000114987)
(1.03483 0.000201186 2.08137e-05)
(1.03487 0.000131815 -0.00011221)
(1.03481 -5.45274e-05 1.37648e-05)
(1.03471 -2.37625e-05 0.000141225)
(1.03471 0.000115696 9.12484e-05)
(1.03486 0.000185224 -8.39206e-05)
(1.03487 8.10888e-05 -0.000149763)
(1.03478 -1.67709e-05 3.25149e-05)
(1.03465 -5.46696e-05 0.000181113)
(1.03475 0.000195395 0.000123786)
(1.03484 0.000162037 -1.14466e-05)
(1.03491 0.000124228 -0.000179505)
(1.03484 -0.000115529 0.000105542)
(1.03461 -7.77889e-05 0.000184609)
(1.03477 0.000137533 0.00021172)
(1.03483 0.000144954 -4.40855e-05)
(1.03484 0.000104924 -7.44202e-05)
(1.03485 -2.6475e-06 -1.4742e-05)
(1.03464 -0.000106087 0.000211448)
(1.03476 0.000196965 0.000119042)
(1.03485 0.000113152 -1.99231e-05)
(1.03487 0.000179572 -0.00015873)
(1.03487 -7.13402e-05 -5.27708e-06)
(1.03464 -3.07962e-05 0.000152178)
(1.03477 0.00013162 0.000126408)
(1.03484 0.00017173 3.33187e-05)
(1.03487 0.000117109 -0.000178639)
(1.0348 -2.20241e-05 8.38615e-05)
(1.03469 -4.52951e-05 0.000170437)
(1.0347 0.000212603 0.000203787)
(1.03487 0.000185864 1.20085e-05)
(1.03492 0.000151487 -8.29601e-05)
(1.03477 -8.73733e-05 9.01566e-05)
(1.03471 -2.109e-05 0.000213957)
(1.03471 0.000118972 0.000207511)
(1.03479 0.000220209 1.50969e-05)
(1.03494 0.000201686 -6.90958e-05)
(1.03484 -0.000121632 9.58451e-06)
(1.03468 3.28814e-05 0.00012108)
(1.03475 2.66849e-05 5.6909e-05)
(1.03482 0.000117045 1.96419e-05)
(1.03484 6.26109e-05 -4.60721e-05)
(1.0348 -6.27349e-05 1.7393e-06)
(1.03473 -2.20239e-05 7.54683e-05)
(1.03472 8.64244e-05 2.86698e-05)
(1.03484 9.04139e-05 -4.15282e-05)
(1.03485 3.01526e-05 -9.37871e-05)
(1.03478 -2.69331e-05 2.94948e-05)
(1.03469 -4.76572e-05 8.41125e-05)
(1.03476 0.000151217 6.64275e-05)
(1.03481 7.83532e-05 5.27668e-06)
(1.03488 6.58307e-05 -0.000112668)
(1.03483 -0.000104305 8.61955e-05)
(1.03464 -5.35173e-05 7.5813e-05)
(1.03478 0.000104156 0.000132885)
(1.03481 7.20686e-05 -3.76144e-05)
(1.03482 4.51181e-05 -2.60572e-05)
(1.03484 -9.96604e-06 -2.11854e-05)
(1.03468 -8.5532e-05 0.00010921)
(1.03478 0.000162792 4.84602e-05)
(1.03483 4.09886e-05 -5.95262e-06)
(1.03484 0.000107092 -0.000102149)
(1.03486 -7.56465e-05 -1.0307e-05)
(1.03467 -2.77662e-05 6.49619e-05)
(1.03479 0.000104589 4.89327e-05)
(1.03483 8.26194e-05 3.93212e-05)
(1.03485 5.4041e-05 -0.00011652)
(1.03479 -3.23875e-05 6.02253e-05)
(1.03472 -4.25705e-05 7.23659e-05)
(1.03472 0.000156047 0.000113666)
(1.03485 9.96998e-05 1.21405e-05)
(1.03489 7.57023e-05 -3.53929e-05)
(1.03476 -8.41159e-05 5.53184e-05)
(1.03474 -1.75261e-05 0.000118302)
(1.03472 8.38565e-05 0.000113194)
(1.03479 0.000117434 1.88534e-05)
(1.03489 0.000128321 -2.48966e-05)
(1.03483 -0.000129858 3.47005e-06)
(1.03471 3.40272e-05 6.52227e-05)
(1.03476 1.03802e-05 2.89295e-05)
(1.03483 6.24325e-05 9.94274e-06)
(1.03482 2.62211e-05 -1.35287e-05)
(1.0348 -5.95279e-05 -9.50506e-06)
(1.03476 -2.26198e-05 4.28415e-05)
(1.03474 6.69167e-05 -1.37117e-06)
(1.03483 3.11602e-05 -1.91701e-05)
(1.03484 6.6355e-06 -6.77914e-05)
(1.03477 -2.66833e-05 2.67957e-05)
(1.03472 -4.57726e-05 2.99356e-05)
(1.03478 0.000120645 3.68483e-05)
(1.0348 2.47244e-05 1.07023e-05)
(1.03486 3.91485e-05 -8.08199e-05)
(1.03482 -9.06579e-05 7.30273e-05)
(1.03468 -3.44151e-05 1.22841e-05)
(1.0348 7.76565e-05 9.14492e-05)
(1.03481 2.84776e-05 -4.0903e-05)
(1.03482 1.5688e-05 -4.31544e-06)
(1.03483 -1.06174e-05 -2.67702e-05)
(1.03471 -6.96011e-05 5.1788e-05)
(1.0348 0.000132492 1.18859e-05)
(1.03483 -2.58594e-06 -2.56678e-06)
(1.03483 6.72587e-05 -7.43018e-05)
(1.03484 -6.95258e-05 -1.34926e-05)
(1.03471 -2.60776e-05 2.04034e-05)
(1.0348 8.34686e-05 7.95727e-06)
(1.03482 2.70525e-05 3.59318e-05)
(1.03484 2.20623e-05 -8.67852e-05)
(1.03478 -3.44302e-05 4.1496e-05)
(1.03475 -3.75061e-05 2.04371e-05)
(1.03474 0.000111476 6.22825e-05)
(1.03484 4.98725e-05 5.94786e-06)
(1.03487 3.02285e-05 -1.58763e-05)
(1.03476 -6.9469e-05 2.91428e-05)
(1.03477 -1.7119e-05 6.66586e-05)
(1.03474 5.99456e-05 5.91915e-05)
(1.0348 5.13597e-05 1.3942e-05)
(1.03486 8.67691e-05 -8.78348e-06)
(1.03482 -0.000124509 -1.83002e-06)
(1.03474 2.7299e-05 3.27429e-05)
(1.03477 4.17103e-06 1.62538e-05)
(1.03483 2.76068e-05 -1.29247e-06)
(1.03481 1.08539e-05 3.7795e-06)
(1.03479 -4.84945e-05 -1.58408e-05)
(1.03478 -2.57328e-05 2.43335e-05)
(1.03475 5.32161e-05 -1.44792e-05)
(1.03482 -2.46148e-06 -7.2307e-06)