/*--------------------------------*- C++ -*----------------------------------*\
  =========                 |
  \\      /  F ield         | OpenFOAM: The Open Source CFD Toolbox
   \\    /   O peration     | Website:  https://openfoam.org
    \\  /    A nd           | Version:  10
     \\/     M anipulation  |
\*---------------------------------------------------------------------------*/
FoamFile
{
    format      ascii;
    class       volSymmTensorField;
    location    "17.5";
    object      UPrime2Mean;
}
// * * * * * * * * * * * * * * * * * * * * * * * * * * * * * * * * * * * * * //

dimensions      [0 2 -2 0 0 0 0];

internalField   nonuniform List<symmTensor> 
25600
(
(0.00860614 6.09236e-07 -1.741e-06 2.9323e-09 3.03552e-08 6.27421e-06)
(0.00857616 -6.29831e-07 7.32088e-05 3.36425e-09 7.22148e-09 7.09177e-06)
(0.00849198 -1.3173e-06 0.000112908 2.94383e-09 -1.1787e-09 7.56437e-06)
(0.00852448 1.12094e-07 1.5552e-05 2.51744e-09 6.33864e-09 6.46114e-06)
(0.00855098 -4.70113e-07 -5.76035e-05 2.21695e-09 2.35241e-08 6.645e-06)
(0.0085876 -6.53429e-07 -2.1541e-05 2.43442e-09 3.23801e-08 6.11949e-06)
(0.0085247 5.09772e-07 6.82029e-05 2.64044e-09 3.60406e-08 6.5362e-06)
(0.00853597 -5.44546e-07 9.72097e-05 2.75117e-09 2.95439e-08 6.95379e-06)
(0.00850038 -4.69674e-08 2.50819e-05 2.29009e-09 2.67878e-08 6.37708e-06)
(0.00855948 -6.3652e-07 -5.04915e-05 2.46015e-09 2.52595e-08 6.95312e-06)
(0.00854679 -1.804e-07 -1.2433e-05 2.06947e-09 1.86413e-08 6.74585e-06)
(0.00860062 -3.69152e-07 9.74749e-05 1.89075e-09 2.15277e-08 8.39857e-06)
(0.00853353 6.61207e-07 0.000122628 1.75835e-09 5.07362e-08 8.64132e-06)
(0.00856138 -1.54933e-06 3.88473e-05 2.4642e-09 3.27935e-08 7.54913e-06)
(0.00861164 -9.95688e-07 -5.28873e-05 2.33621e-09 3.00081e-08 7.69246e-06)
(0.00859551 1.99757e-08 -2.03844e-05 1.97192e-09 2.49154e-08 7.29096e-06)
(0.00855448 1.62414e-07 6.6801e-05 1.86475e-09 3.37617e-08 7.23277e-06)
(0.00854278 -4.59072e-07 0.00012446 1.93433e-09 3.68892e-08 7.98408e-06)
(0.00858694 -9.65389e-07 6.75166e-06 2.04098e-09 3.58075e-08 7.109e-06)
(0.00862682 -9.57899e-07 -4.59375e-05 2.38685e-09 4.16203e-08 7.8442e-06)
(0.00862254 2.89793e-07 -3.08291e-05 2.50331e-09 2.60616e-08 7.22461e-06)
(0.00860416 1.12574e-06 8.89558e-05 2.58865e-09 5.78295e-08 7.16893e-06)
(0.00859296 1.00459e-07 0.000117526 2.61138e-09 5.37242e-08 7.37375e-06)
(0.0085916 -1.15985e-06 3.3033e-05 2.71229e-09 4.22711e-08 7.42667e-06)
(0.00861109 -2.31299e-06 -4.88544e-05 3.6675e-09 3.79159e-08 8.13455e-06)
(0.00874157 1.77489e-07 -1.38844e-05 2.97354e-09 2.40792e-08 7.08706e-06)
(0.00858414 -5.67296e-07 9.58635e-05 3.09281e-09 1.55546e-08 6.8726e-06)
(0.00863361 -9.14726e-07 9.52672e-05 2.76727e-09 2.48222e-08 6.52743e-06)
(0.00853986 -8.6679e-07 4.52931e-05 2.7235e-09 1.37178e-08 6.54061e-06)
(0.00858377 -5.62243e-07 -3.266e-05 2.8246e-09 1.76074e-08 7.00217e-06)
(0.00861689 -2.47612e-06 -1.39416e-05 2.75965e-09 3.88955e-08 6.75013e-06)
(0.00863289 8.14213e-07 0.000114741 2.44736e-09 5.90558e-08 7.89994e-06)
(0.00860908 1.39537e-06 0.000122094 2.72372e-09 7.35229e-08 7.87655e-06)
(0.00854813 -1.66756e-07 3.41818e-05 2.60688e-09 4.56674e-08 7.10758e-06)
(0.00860944 -8.21323e-07 -4.23344e-05 2.72793e-09 2.79876e-08 7.77333e-06)
(0.00859325 1.26271e-06 -2.18068e-05 3.03155e-09 8.54535e-09 7.43205e-06)
(0.00860904 -1.56943e-06 8.93962e-05 3.20694e-09 -1.19899e-08 7.87109e-06)
(0.00851402 -9.98947e-07 0.000109268 2.61749e-09 1.50077e-08 7.6874e-06)
(0.00857269 -2.2194e-06 2.62551e-05 3.1289e-09 3.88152e-08 7.02525e-06)
(0.00859088 -1.63394e-06 -5.97117e-05 3.20121e-09 5.23547e-08 7.04138e-06)
(0.0288218 -1.61481e-05 0.000113689 6.2569e-08 -2.12186e-07 4.38512e-05)
(0.0288593 -3.06091e-06 0.000136458 6.51869e-08 -1.2213e-07 4.66658e-05)
(0.0284428 5.47865e-07 0.000351209 6.60704e-08 2.10599e-08 4.97434e-05)
(0.0285681 -8.51737e-06 0.000156619 5.55457e-08 4.30212e-08 4.70193e-05)
(0.0285928 -1.1663e-05 -5.73224e-05 6.03421e-08 -3.03879e-08 4.72504e-05)
(0.0287349 -1.75473e-05 -2.18606e-05 6.53398e-08 -5.00513e-08 4.29612e-05)
(0.028729 -7.15252e-06 0.000170434 7.23402e-08 -1.2937e-07 4.85254e-05)
(0.0286427 -1.00392e-06 0.000342784 6.53506e-08 -1.83498e-07 4.97442e-05)
(0.0285411 -4.74144e-06 0.000208694 6.1277e-08 -1.94662e-07 4.73285e-05)
(0.0286527 -1.23055e-05 8.04028e-06 6.32884e-08 -1.50946e-07 5.08251e-05)
(0.0285872 -1.33608e-05 -1.60552e-05 6.16572e-08 -2.50002e-07 4.86365e-05)
(0.0288871 -1.12302e-05 0.000243305 6.19019e-08 -3.86633e-07 5.96312e-05)
(0.0286486 -1.11282e-05 0.000392382 5.83779e-08 -4.48469e-07 5.91514e-05)
(0.028856 -1.08186e-05 0.000264557 5.57052e-08 -5.71944e-07 5.5244e-05)
(0.0288176 -9.133e-06 8.09822e-06 5.60775e-08 -6.17711e-07 5.43198e-05)
(0.0289102 -1.07713e-05 4.73825e-05 5.19918e-08 -4.92994e-07 5.19193e-05)
(0.0288575 -1.37093e-05 0.000164433 5.4504e-08 -4.12323e-07 5.48741e-05)
(0.0288631 -1.13633e-05 0.000436764 5.66567e-08 -4.18292e-07 5.56822e-05)
(0.0288652 -1.5687e-05 0.000176424 6.19161e-08 -4.15216e-07 5.08514e-05)
(0.0290372 -1.63706e-05 9.54949e-05 6.33039e-08 -4.44699e-07 5.33192e-05)
(0.0290014 -2.07421e-05 -7.60496e-05 6.38538e-08 -2.73298e-07 4.87981e-05)
(0.0291413 -1.38871e-05 0.000283448 6.13097e-08 -2.90236e-07 5.0482e-05)
(0.0290681 -1.0398e-05 0.000320815 6.69463e-08 -2.42773e-07 4.49773e-05)
(0.0290993 -1.16095e-05 0.000331649 7.40435e-08 -3.01985e-07 4.58846e-05)
(0.0288958 -2.73059e-05 9.24425e-05 9.4373e-08 -2.38805e-07 4.99097e-05)
(0.0295187 -2.30407e-05 7.25493e-05 9.56393e-08 -4.01378e-07 4.47285e-05)
(0.0290948 -8.93063e-06 0.000247276 8.64745e-08 -4.12492e-07 4.365e-05)
(0.0293264 -1.23537e-05 0.00034125 7.06727e-08 -5.02106e-07 4.31989e-05)
(0.0289079 -7.61976e-06 0.000305462 6.80299e-08 -3.79776e-07 4.39051e-05)
(0.0290218 -1.88034e-05 7.81658e-05 6.82207e-08 -1.59154e-07 4.83273e-05)
(0.0291543 -1.90645e-05 9.65474e-06 7.60197e-08 -2.8725e-07 4.39016e-05)
(0.0290895 -1.23913e-05 0.000238084 7.33529e-08 -3.68981e-07 4.67823e-05)
(0.0291359 -1.27546e-05 0.000335598 7.27036e-08 -4.89376e-07 4.92302e-05)
(0.0287423 -5.43315e-06 0.000276592 6.01438e-08 -3.0325e-07 4.93022e-05)
(0.029077 -1.72277e-05 3.21244e-05 6.68649e-08 -2.00158e-07 5.57766e-05)
(0.0287753 -1.06072e-05 -6.01654e-06 6.11972e-08 -2.38654e-07 5.21219e-05)
(0.0292092 -1.20284e-05 0.00025589 6.64501e-08 -3.3489e-07 5.80477e-05)
(0.0286833 7.23048e-07 0.000346275 5.79987e-08 -1.61312e-07 5.28141e-05)
(0.0288769 -1.13071e-05 0.000298403 5.57258e-08 -2.6537e-07 4.79858e-05)
(0.0286387 -4.78384e-06 -6.54463e-06 5.26492e-08 -1.74908e-07 4.71067e-05)
(0.0414554 -4.36102e-05 -3.5025e-05 2.54232e-07 -5.92595e-07 0.000120825)
(0.0413846 -9.89841e-06 0.0001929 2.24842e-07 -6.23848e-07 0.000128692)
(0.0413138 -2.09891e-05 0.000349231 2.27138e-07 -1.10142e-06 0.000120598)
(0.041242 -1.80679e-05 0.000227665 1.91556e-07 -9.78529e-07 0.000104796)
(0.0412457 -2.88533e-05 -2.76258e-05 2.3832e-07 -1.06115e-06 0.000105215)
(0.0412935 -2.8489e-05 1.66056e-05 2.29889e-07 -1.22558e-06 0.000101763)
(0.041181 -2.99867e-05 0.000175187 2.67984e-07 -1.52183e-06 0.000119913)
(0.0412314 -1.15797e-05 0.000405134 2.36644e-07 -1.71903e-06 0.00013134)
(0.0411759 -2.25009e-05 0.000234235 2.39553e-07 -1.65874e-06 0.000132378)
(0.0413429 -1.87714e-05 -3.46314e-05 2.22244e-07 -1.44729e-06 0.000141874)
(0.0412143 -3.24639e-05 -6.41974e-05 2.30411e-07 -1.18234e-06 0.000125068)
(0.0416196 -2.7071e-05 0.000302233 2.15813e-07 -1.43771e-06 0.000139766)
(0.0412111 -2.61702e-05 0.000374465 2.06805e-07 -1.309e-06 0.00013736)
(0.0416598 -2.76849e-05 0.000344722 1.99088e-07 -1.6259e-06 0.000130455)
(0.0412459 -3.04981e-05 -5.07391e-05 2.01294e-07 -1.51923e-06 0.000132667)
(0.04173 -3.06325e-05 8.07619e-05 2.00915e-07 -1.45764e-06 0.000123856)
(0.0413859 -4.05198e-05 0.000169785 2.23498e-07 -1.65969e-06 0.000137839)
(0.0417164 -3.81779e-05 0.000510495 2.38947e-07 -2.07028e-06 0.00014292)
(0.0416005 -4.33486e-05 0.000188931 2.79879e-07 -2.13604e-06 0.000137026)
(0.0418589 -4.12147e-05 3.40791e-05 3.05181e-07 -2.69687e-06 0.000140796)
(0.0418652 -3.97288e-05 -8.81475e-05 2.91942e-07 -2.32837e-06 0.000115407)
(0.041913 -4.36547e-05 0.000304335 2.77702e-07 -2.33997e-06 0.000108419)
(0.0419611 -3.4663e-05 0.000282153 2.88395e-07 -1.74752e-06 0.00010209)
(0.0421207 -3.68528e-05 0.00040886 3.17832e-07 -1.8439e-06 0.000104315)
(0.0419867 -5.78516e-05 2.01357e-05 3.56377e-07 -1.26408e-06 0.000118581)
(0.0422653 -5.27962e-05 6.9635e-05 3.32168e-07 -2.03034e-06 0.000115657)
(0.0422926 -3.97098e-05 0.000262402 3.04429e-07 -2.06858e-06 0.000133602)
(0.0422526 -3.6254e-05 0.000527056 2.73921e-07 -2.20864e-06 0.000132244)
(0.0420046 -3.22737e-05 0.000203914 2.64205e-07 -2.06171e-06 0.000123032)
(0.0422554 -4.02151e-05 3.95374e-05 2.34825e-07 -1.10689e-06 0.000128736)
(0.042121 -4.76204e-05 -0.000118487 2.60479e-07 -9.46638e-07 0.000118266)
(0.0421961 -3.48747e-05 0.000277665 2.37559e-07 -8.85979e-07 0.00012914)
(0.0420931 -2.76422e-05 0.000309022 2.52025e-07 -1.10791e-06 0.000133214)
(0.0417578 -2.24044e-05 0.000335803 1.93669e-07 -1.06465e-06 0.000131884)
(0.0419424 -3.49001e-05 -5.37245e-05 2.27994e-07 -1.01492e-06 0.000137673)
(0.0416199 -2.537e-05 6.93614e-05 1.9051e-07 -9.23616e-07 0.000123955)
(0.0421079 -3.3882e-05 0.000176945 2.43979e-07 -1.0588e-06 0.000133814)
(0.0413583 -1.915e-06 0.000406946 1.91834e-07 -7.84151e-07 0.000138249)
(0.0417887 -3.48093e-05 0.000159033 2.18321e-07 -9.84704e-07 0.000130739)
(0.0414276 -1.11952e-05 -5.73308e-05 1.86957e-07 -6.32134e-07 0.000127559)
(0.0428944 -3.59055e-05 -0.000263278 8.42167e-07 2.18547e-06 0.000253734)
(0.0428521 1.23679e-05 -3.324e-05 6.73004e-07 1.72502e-06 0.000252579)
(0.0426356 -1.85732e-05 0.00011732 7.06635e-07 9.61015e-07 0.000235168)
(0.0426973 1.34052e-05 2.01323e-05 5.77016e-07 1.4465e-06 0.000210264)
(0.0425773 -2.56369e-05 -0.000227207 7.35475e-07 1.554e-06 0.000224566)
(0.0427954 8.98347e-08 -0.000201668 6.77843e-07 4.12111e-07 0.000230554)
(0.0424976 -2.24561e-05 3.74189e-05 8.18412e-07 -4.37571e-07 0.000279185)
(0.0427222 3.36287e-06 0.000305813 7.26817e-07 -1.24405e-06 0.000300273)
(0.0424882 -2.28642e-05 4.81324e-05 7.80993e-07 -2.39876e-07 0.000300697)
(0.0428794 -4.46453e-06 -0.000234512 7.53412e-07 1.68999e-06 0.000300367)
(0.0425119 -3.31116e-05 -0.000269264 8.52911e-07 2.21194e-06 0.00025555)
(0.0430193 -6.02095e-06 0.000105304 7.09859e-07 1.66657e-06 0.000257654)
(0.0423457 -1.78351e-05 0.000116419 6.87613e-07 1.53707e-06 0.000253594)
(0.0430694 -6.35114e-06 0.000123098 6.2659e-07 1.15771e-06 0.000247302)
(0.0423416 -2.09322e-05 -0.000316665 6.66348e-07 1.49799e-06 0.000262267)
(0.0431951 -1.80768e-05 -0.000147948 6.77323e-07 1.56824e-06 0.000245695)
(0.0424152 -3.31056e-05 -9.94433e-05 7.26878e-07 1.51544e-06 0.000266744)
(0.0430817 -2.39396e-05 0.00029363 7.37355e-07 7.4043e-07 0.000279386)
(0.0425412 -4.10279e-05 -6.05086e-05 8.23534e-07 3.7052e-07 0.000270083)
(0.0431539 -3.90497e-05 -0.000129111 8.0631e-07 -2.76701e-07 0.000262464)
(0.0426163 -4.58963e-05 -0.000322066 8.11737e-07 -4.56233e-07 0.00022918)
(0.0432005 -4.06016e-05 0.000147489 8.21062e-07 -1.65652e-06 0.000225811)
(0.0427269 -3.96823e-05 0.000120473 8.36945e-07 -1.33467e-06 0.000222778)
(0.0434656 -3.15746e-05 0.000212083 8.75767e-07 -7.02507e-07 0.000222461)
(0.0429771 -4.67601e-05 -0.000283253 8.95179e-07 7.56208e-07 0.000241334)
(0.0436376 -4.80546e-05 -4.39774e-05 9.11425e-07 -2.30343e-07 0.00023173)
(0.0431861 -3.93011e-05 -9.40805e-05 8.83791e-07 -8.90175e-07 0.000257456)
(0.0435045 -3.93951e-05 0.00032426 9.05094e-07 -1.9672e-06 0.000277803)
(0.0433346 -3.23338e-05 -0.000151291 8.71822e-07 -1.46378e-06 0.000268992)
(0.043747 -2.46515e-05 -0.000209399 8.05494e-07 -5.66635e-07 0.000268839)
(0.0433506 -3.40114e-05 -0.000439941 8.30684e-07 8.5607e-07 0.000253099)
(0.0435109 -2.19219e-05 2.19112e-05 7.95624e-07 1.13595e-06 0.000266754)
(0.0433127 -1.89211e-05 5.96524e-05 7.72413e-07 1.78356e-06 0.000279788)
(0.0433358 -1.08288e-05 4.26617e-05 6.68409e-07 1.97309e-06 0.000281595)
(0.043308 -2.667e-05 -0.00041348 6.7613e-07 2.37572e-06 0.00029865)
(0.0433045 -1.00164e-05 -0.000291293 6.1174e-07 2.37818e-06 0.000262263)
(0.0433218 -3.01588e-05 -7.34642e-05 7.09034e-07 1.6831e-06 0.000280163)
(0.0430752 9.63373e-06 0.00012919 6.00359e-07 9.61642e-07 0.000275512)
(0.0431315 -2.69593e-05 -2.1572e-05 7.37068e-07 1.23431e-06 0.000267789)
(0.0429817 1.39799e-05 -0.000308712 6.59367e-07 2.0652e-06 0.000276085)
(0.0357254 2.32859e-05 -0.000352758 2.84865e-06 9.50961e-06 0.000420647)
(0.0363455 6.66442e-05 -0.000125501 2.50053e-06 8.33335e-06 0.000419027)
(0.0355124 2.78083e-05 4.64303e-05 2.55387e-06 6.99849e-06 0.000403286)
(0.0361916 6.69672e-05 -0.000115412 2.14796e-06 8.61698e-06 0.000373501)
(0.0356214 2.39767e-05 -0.0003193 2.418e-06 9.63449e-06 0.000400312)
(0.0362571 5.70568e-05 -0.000307608 2.28037e-06 8.49357e-06 0.000405101)
(0.0355378 2.96718e-05 -4.36801e-06 2.59386e-06 6.87039e-06 0.00046721)
(0.0362375 6.83249e-05 0.00016467 2.3472e-06 5.43913e-06 0.000475255)
(0.0355022 2.77013e-05 2.53494e-05 2.61598e-06 5.39484e-06 0.000467815)
(0.0362687 5.70167e-05 -0.00029252 2.57401e-06 8.75383e-06 0.000461757)
(0.0355854 1.77719e-05 -0.000351099 2.84224e-06 9.47062e-06 0.000403429)
(0.0361381 5.34727e-05 -8.94497e-05 2.44172e-06 8.9744e-06 0.000388822)
(0.0354349 2.86493e-05 -6.37689e-05 2.43114e-06 8.37584e-06 0.000382886)
(0.0360307 5.37466e-05 -7.72726e-05 2.18216e-06 8.75014e-06 0.000378867)
(0.0354951 2.91246e-05 -0.00039248 2.29559e-06 8.74401e-06 0.000414646)
(0.0362124 4.24532e-05 -0.000398913 2.30914e-06 8.97573e-06 0.000406269)
(0.0355612 1.89435e-05 -7.48318e-05 2.52205e-06 8.33258e-06 0.000464635)
(0.0362745 3.11851e-05 0.000165801 2.51498e-06 8.51615e-06 0.0004546)
(0.0355434 8.61874e-06 -8.06918e-05 2.63275e-06 6.84572e-06 0.000437817)
(0.0361947 1.76981e-05 -0.000225784 2.42235e-06 5.68394e-06 0.000429924)
(0.0356272 7.87962e-06 -0.000375457 2.34233e-06 4.9854e-06 0.000377155)
(0.0360511 1.48927e-05 2.74528e-06 2.40438e-06 3.52825e-06 0.000360288)
(0.0357182 2.11934e-05 -2.04993e-05 2.43927e-06 3.86568e-06 0.000345071)
(0.0362473 1.9292e-05 9.04638e-05 2.72719e-06 4.83821e-06 0.000344907)
(0.0358733 1.41894e-05 -0.000306441 2.71699e-06 6.71852e-06 0.000381207)
(0.036396 1.89281e-05 -0.000207278 2.86513e-06 6.78817e-06 0.000387405)
(0.0358731 2.2192e-05 -0.000162872 2.73596e-06 6.18276e-06 0.000430259)
(0.0363079 2.03678e-05 0.000138605 2.83463e-06 4.15319e-06 0.000451549)
(0.0359206 2.11877e-05 -0.000174971 2.66933e-06 4.36765e-06 0.000455248)
(0.0364504 4.16939e-05 -0.000308077 2.65967e-06 4.6377e-06 0.000477557)
(0.0361887 2.77718e-05 -0.000449902 2.64601e-06 7.07813e-06 0.000434907)
(0.0365336 5.17371e-05 -5.08519e-05 2.74383e-06 8.11576e-06 0.000428103)
(0.0360548 3.39646e-05 -0.000126954 2.6399e-06 1.00413e-05 0.00042566)
(0.0364684 5.8212e-05 1.00495e-05 2.53949e-06 1.09904e-05 0.000429459)
(0.0359208 2.30794e-05 -0.000465708 2.40912e-06 1.293e-05 0.000449084)
(0.0365701 5.92216e-05 -0.00036666 2.22837e-06 1.13813e-05 0.000411778)
(0.0358999 1.90404e-05 -0.000270924 2.33758e-06 9.7023e-06 0.000428806)
(0.0363614 6.42592e-05 -2.90546e-05 2.30154e-06 8.42177e-06 0.00043604)
(0.0358517 2.33745e-05 -0.000168675 2.61221e-06 8.76915e-06 0.000436703)
(0.0364104 7.48287e-05 -0.000381567 2.5664e-06 9.47636e-06 0.000448622)
(0.0255822 9.06874e-05 -0.000228648 7.19687e-06 1.94159e-05 0.000538285)
(0.0266151 0.000115746 7.97153e-05 6.83981e-06 1.74037e-05 0.000555551)
(0.0256475 8.84306e-05 0.000162185 6.71869e-06 1.70492e-05 0.000517145)
(0.026622 0.000114576 0.000116587 6.02384e-06 1.73812e-05 0.000483843)
(0.0256074 7.84353e-05 -7.91738e-05 6.25681e-06 1.79626e-05 0.000499185)
(0.0266157 0.000112064 -4.79982e-05 6.01916e-06 1.61977e-05 0.000507904)
(0.0256634 7.90611e-05 8.21566e-05 6.62617e-06 1.22267e-05 0.000568072)
(0.0265291 0.000112853 0.000241858 6.27877e-06 8.84781e-06 0.00059805)
(0.025844 7.42484e-05 6.45085e-05 6.9609e-06 8.00914e-06 0.000596838)
(0.0266265 0.000117713 -0.000209061 6.79888e-06 1.20697e-05 0.000589534)
(0.0258645 7.58766e-05 -0.000172756 7.25788e-06 1.49365e-05 0.000517719)
(0.0265382 0.000113123 -1.29748e-05 6.489e-06 1.66782e-05 0.000501503)
(0.0255929 8.54056e-05 4.47313e-05 6.29056e-06 1.69115e-05 0.000501023)
(0.0263355 0.000112987 -7.97492e-06 5.66056e-06 1.7998e-05 0.000497043)
(0.0255907 8.23808e-05 -0.000279154 5.83798e-06 1.82473e-05 0.000528619)
(0.0263946 0.000102634 -0.000268469 6.00975e-06 1.7236e-05 0.000488652)
(0.0255195 8.00361e-05 -5.5313e-05 6.63004e-06 1.75138e-05 0.000492725)
(0.0262324 8.65693e-05 4.00779e-05 6.6803e-06 1.92236e-05 0.000497535)
(0.0254903 7.38152e-05 6.34636e-05 6.50869e-06 1.6451e-05 0.000506477)
(0.026033 7.57766e-05 -0.0001225 6.0372e-06 1.4579e-05 0.000514241)
(0.0255374 7.09346e-05 -0.000120921 5.61892e-06 1.06906e-05 0.000471615)
(0.0262034 7.8131e-05 4.75667e-05 5.87265e-06 8.57263e-06 0.000471253)
(0.0255213 7.88942e-05 0.000110007 6.12394e-06 7.90765e-06 0.000469275)
(0.0263282 8.05659e-05 2.50743e-05 7.10641e-06 9.95601e-06 0.00046332)
(0.0256677 8.09796e-05 -0.000172011 7.3366e-06 1.26295e-05 0.000497206)
(0.0263935 8.75266e-05 -0.000133027 7.93738e-06 1.39941e-05 0.000519059)
(0.0256011 8.77004e-05 -2.68871e-05 7.47589e-06 1.42134e-05 0.000571292)
(0.0264569 8.53442e-05 0.000202004 7.43417e-06 1.36674e-05 0.000581201)
(0.0255203 9.13619e-05 -5.70097e-05 6.75e-06 1.41082e-05 0.000574442)
(0.0266344 9.53649e-05 -0.000134616 7.039e-06 1.35517e-05 0.000604091)
(0.0256632 9.9502e-05 -0.0003122 6.81658e-06 1.39215e-05 0.000575058)
(0.0265781 0.000107695 0.000131419 7.41973e-06 1.42476e-05 0.000587292)
(0.0257928 9.28464e-05 8.65286e-05 7.24673e-06 1.79729e-05 0.000546706)
(0.0266213 0.000113032 0.000145499 7.38854e-06 2.0387e-05 0.000538921)
(0.0256952 8.12203e-05 -0.000258028 6.89381e-06 2.50562e-05 0.000562296)
(0.0267469 0.000108757 -0.000137666 6.61772e-06 2.37161e-05 0.000534603)
(0.0257521 8.66681e-05 -0.000109099 6.25963e-06 2.32191e-05 0.00056128)
(0.0265649 0.000126167 0.000145905 6.33111e-06 2.17922e-05 0.000573713)
(0.0256896 8.50688e-05 -8.32272e-05 6.70503e-06 2.12833e-05 0.000557429)
(0.0266975 0.000121045 -0.000148462 6.91515e-06 2.03435e-05 0.000556377)
(0.016169 0.000103889 6.70427e-05 1.46234e-05 2.18235e-05 0.000523824)
(0.0170433 0.000125085 0.000145578 1.408e-05 2.15024e-05 0.000510205)
(0.0160617 9.88436e-05 0.000219416 1.38735e-05 2.10625e-05 0.000502679)
(0.0170272 0.000126624 0.000164269 1.28284e-05 2.18413e-05 0.000497373)
(0.0162095 9.42594e-05 1.28691e-05 1.31177e-05 2.1399e-05 0.00053898)
(0.0171268 0.000126688 4.24812e-05 1.2884e-05 1.80612e-05 0.000545711)
(0.0162832 9.00574e-05 0.000181899 1.3945e-05 1.17063e-05 0.000594879)
(0.0171293 0.000108283 0.000303853 1.3853e-05 6.71928e-06 0.000596597)
(0.0163034 7.79004e-05 0.000174041 1.48998e-05 7.66999e-06 0.000575448)
(0.0171574 0.000117774 5.49993e-05 1.4434e-05 1.15793e-05 0.000560106)
(0.0162976 9.09432e-05 2.37208e-05 1.48386e-05 1.53424e-05 0.000525006)
(0.0170883 0.000118422 0.000179949 1.34218e-05 1.65469e-05 0.000523086)
(0.0162324 9.52056e-05 0.000240057 1.28832e-05 1.62009e-05 0.000511879)
(0.0171416 0.00011362 0.000193903 1.18783e-05 1.81368e-05 0.000493095)
(0.0162177 0.000101023 4.12721e-05 1.21641e-05 1.91645e-05 0.000484283)
(0.0170513 0.000110216 5.37218e-05 1.27871e-05 2.03236e-05 0.000467297)
(0.0162794 0.000105216 0.000121018 1.37095e-05 2.21775e-05 0.000483432)
(0.0168891 0.00010387 0.000208799 1.39776e-05 2.47107e-05 0.000504339)
(0.0161562 0.000106856 0.000164027 1.31269e-05 2.47201e-05 0.00051548)
(0.0168537 9.19946e-05 3.91194e-05 1.23795e-05 2.26807e-05 0.000548512)
(0.0161703 9.3944e-05 1.95682e-05 1.13664e-05 1.5543e-05 0.000520894)
(0.0168586 9.39763e-05 0.000182213 1.21358e-05 9.55552e-06 0.000527567)
(0.0162146 9.21272e-05 0.000212673 1.33294e-05 7.1266e-06 0.00050136)
(0.0168375 9.58699e-05 0.000185283 1.57466e-05 9.73441e-06 0.000494512)
(0.0162679 0.000107457 2.74728e-05 1.66645e-05 1.34281e-05 0.000534167)
(0.0169277 0.000102761 4.89246e-05 1.79101e-05 1.73739e-05 0.000546093)
(0.0162264 0.000109696 0.000151524 1.6884e-05 1.78431e-05 0.00058313)
(0.0169047 0.000101752 0.000288915 1.6456e-05 1.78107e-05 0.000594775)
(0.0161851 0.000113068 0.000157661 1.49406e-05 1.84962e-05 0.000584971)
(0.0169737 0.00010531 2.22072e-05 1.52485e-05 1.83248e-05 0.000584446)
(0.0162083 0.000119592 5.00771e-05 1.45696e-05 1.6026e-05 0.000544993)
(0.016876 0.000110617 0.000121748 1.58331e-05 1.66736e-05 0.000529663)
(0.0160949 0.000110303 0.000240809 1.53352e-05 1.77404e-05 0.000512209)
(0.0168337 0.000113196 0.000128745 1.59119e-05 2.20372e-05 0.000503163)
(0.0161941 0.000106249 4.32608e-05 1.44415e-05 2.5473e-05 0.000533344)
(0.0168339 0.000114277 -2.4875e-06 1.44015e-05 2.89012e-05 0.000560765)
(0.0160984 0.000108644 0.000165123 1.34038e-05 2.76214e-05 0.000599653)
(0.0169329 0.000129014 0.000270171 1.35983e-05 2.52762e-05 0.000591012)
(0.0161316 0.000107633 0.000192869 1.39124e-05 2.41248e-05 0.000571938)
(0.017031 0.000128471 4.44016e-05 1.44339e-05 2.4416e-05 0.000567596)
(0.00872272 7.33024e-05 0.000192527 2.35813e-05 1.26569e-05 0.000433399)
(0.00945774 9.25801e-05 0.000224273 2.24545e-05 1.29947e-05 0.000434233)
(0.00868768 7.13426e-05 0.000267075 2.22494e-05 1.13452e-05 0.000430505)
(0.00944901 9.23447e-05 0.000226585 2.15243e-05 1.12088e-05 0.000429609)
(0.00879331 7.28169e-05 0.000136899 2.246e-05 9.79101e-06 0.00044775)
(0.00952799 9.52201e-05 0.000157261 2.24748e-05 7.93266e-06 0.000444437)
(0.00883399 6.97989e-05 0.000190645 2.34897e-05 5.60466e-06 0.000453757)
(0.00949716 8.27474e-05 0.000255904 2.30094e-05 2.78989e-06 0.000458313)
(0.00882444 6.33817e-05 0.000208107 2.39526e-05 2.40515e-06 0.000459765)
(0.00949912 8.28829e-05 0.000175785 2.35129e-05 2.79173e-06 0.000461552)
(0.00889994 7.58347e-05 0.000138146 2.36808e-05 4.9863e-06 0.000437031)
(0.00954688 8.37947e-05 0.000278231 2.22663e-05 5.77718e-06 0.000422132)
(0.00889744 7.54335e-05 0.00023501 2.15182e-05 8.31939e-06 0.000413973)
(0.00952174 7.6371e-05 0.000308833 2.06344e-05 1.04102e-05 0.000411983)
(0.0089052 7.43206e-05 0.000126929 2.10681e-05 1.41781e-05 0.000429663)
(0.00962029 7.54022e-05 0.000195031 2.17257e-05 1.52666e-05 0.000407467)
(0.00899713 8.3485e-05 0.000174592 2.23072e-05 1.72673e-05 0.000425449)
(0.00952046 8.11756e-05 0.000272766 2.23161e-05 1.69606e-05 0.000442137)
(0.00896236 8.19604e-05 0.000197404 2.11472e-05 1.74906e-05 0.000447122)
(0.0095831 7.09077e-05 0.000138131 2.00924e-05 1.44649e-05 0.000453232)
(0.00892064 7.55281e-05 0.000148386 1.90034e-05 8.68175e-06 0.000446503)
(0.00948123 6.82696e-05 0.000179122 2.06805e-05 3.53416e-06 0.000452381)
(0.00887869 7.36229e-05 0.00024588 2.29783e-05 -3.32019e-08 0.000439922)
(0.00942258 7.3081e-05 0.000193431 2.6869e-05 6.28243e-07 0.000433726)
(0.00891236 8.49709e-05 0.000158423 2.88992e-05 2.70375e-06 0.000451839)
(0.00940253 8.2762e-05 0.000167835 3.01419e-05 6.60066e-06 0.000461059)
(0.0089007 8.45597e-05 0.000225181 2.85235e-05 8.15163e-06 0.000475417)
(0.00937255 8.57378e-05 0.000272556 2.75274e-05 9.75169e-06 0.000462705)
(0.00876983 8.51104e-05 0.000232785 2.56054e-05 9.38403e-06 0.000443823)
(0.00936783 8.53085e-05 0.000197088 2.53895e-05 9.51009e-06 0.000433346)
(0.00869662 9.40665e-05 0.000194396 2.4379e-05 8.23324e-06 0.00042535)
(0.00934203 9.25923e-05 0.000233803 2.52024e-05 8.41051e-06 0.000424895)
(0.00865861 9.24337e-05 0.000290318 2.44466e-05 7.72496e-06 0.000416514)
(0.00938119 9.25955e-05 0.000257522 2.48206e-05 9.84117e-06 0.000412736)
(0.00865685 8.79157e-05 0.000217277 2.31929e-05 1.16804e-05 0.000425364)
(0.0093596 9.768e-05 0.000224828 2.30775e-05 1.39176e-05 0.000436366)
(0.00871637 8.435e-05 0.000262498 2.23315e-05 1.3132e-05 0.000460592)
(0.00936634 9.74528e-05 0.000308126 2.29544e-05 1.19091e-05 0.000470073)
(0.00872625 7.89024e-05 0.000264771 2.34662e-05 1.12464e-05 0.000463413)
(0.00944384 9.56766e-05 0.000181566 2.37805e-05 1.33853e-05 0.000458907)
(0.00398846 4.12348e-05 0.000203145 2.83474e-05 -2.59536e-06 0.000281643)
(0.00438949 5.10534e-05 0.000210098 2.69615e-05 -2.5708e-06 0.000276655)
(0.00396646 4.03968e-05 0.000213337 2.67774e-05 -2.81498e-06 0.00027126)
(0.0043666 5.08692e-05 0.000204106 2.66179e-05 -3.57713e-06 0.000271113)
(0.00399116 4.14926e-05 0.000168118 2.79835e-05 -4.52352e-06 0.000281965)
(0.0043876 5.12283e-05 0.000173677 2.82648e-05 -6.7323e-06 0.000285626)
(0.00401013 4.16453e-05 0.000183673 2.89618e-05 -7.38102e-06 0.000296176)
(0.0043877 4.49877e-05 0.000216911 2.8289e-05 -9.14459e-06 0.000299156)
(0.00403776 3.86924e-05 0.000187751 2.86927e-05 -9.44518e-06 0.000301993)
(0.00442098 4.21385e-05 0.000171594 2.81915e-05 -1.04324e-05 0.000306839)
(0.00407995 4.37496e-05 0.000166615 2.82577e-05 -1.02237e-05 0.000301936)
(0.00443675 4.24468e-05 0.000201603 2.74407e-05 -8.88728e-06 0.00029442)
(0.00410851 4.23032e-05 0.000220844 2.70528e-05 -5.72576e-06 0.000281315)
(0.00444474 3.89534e-05 0.000197061 2.67003e-05 -2.12066e-06 0.000276863)
(0.00413324 4.30669e-05 0.000174762 2.71028e-05 1.23451e-06 0.000288022)
(0.00447092 4.2227e-05 0.000160663 2.76333e-05 2.2702e-06 0.000295503)
(0.00414387 5.06615e-05 0.000199686 2.77978e-05 1.98652e-06 0.000301227)
(0.00448784 4.69438e-05 0.000215683 2.76239e-05 8.2274e-07 0.000295861)
(0.00415301 4.49184e-05 0.000221269 2.63818e-05 8.61363e-07 0.00028694)
(0.00450109 3.95972e-05 0.00018384 2.52783e-05 -6.25985e-07 0.000286429)
(0.00413653 3.97154e-05 0.000198461 2.43567e-05 -4.14555e-06 0.000281087)
(0.00448462 3.79839e-05 0.000188429 2.63165e-05 -7.83715e-06 0.000284921)
(0.00409639 4.14386e-05 0.000216683 2.90666e-05 -1.18419e-05 0.000284032)
(0.00445478 4.36489e-05 0.00018951 3.32617e-05 -1.24666e-05 0.000284963)
(0.00408425 5.07952e-05 0.000177785 3.57432e-05 -1.22376e-05 0.000292435)
(0.00443575 5.16247e-05 0.000175191 3.68987e-05 -9.50472e-06 0.00029499)
(0.00404908 5.08766e-05 0.000193907 3.5556e-05 -7.97313e-06 0.000299155)
(0.00441676 5.30729e-05 0.000208904 3.43583e-05 -6.17125e-06 0.000295142)
(0.00402164 5.0794e-05 0.000198389 3.20837e-05 -6.65489e-06 0.000290145)
(0.00442091 5.33222e-05 0.000168201 3.14019e-05 -6.33055e-06 0.000291119)
(0.0040052 5.63655e-05 0.000177793 3.04728e-05 -8.38606e-06 0.000285055)
(0.00441473 5.79773e-05 0.000194803 3.09782e-05 -7.88307e-06 0.000286884)
(0.0039779 5.15891e-05 0.000228514 3.07417e-05 -9.13945e-06 0.00028396)
(0.00441378 5.58045e-05 0.000205739 3.0925e-05 -7.23315e-06 0.000289144)
(0.00397742 4.94755e-05 0.000189987 2.97856e-05 -5.933e-06 0.000298622)
(0.00442005 5.96089e-05 0.000179835 2.9537e-05 -3.05287e-06 0.000300318)
(0.00399173 4.92989e-05 0.000217896 2.89853e-05 -3.05428e-06 0.00030044)
(0.00441709 5.95274e-05 0.000226626 2.93069e-05 -2.92618e-06 0.000300145)
(0.00399466 4.48535e-05 0.000233067 2.95318e-05 -3.27699e-06 0.00029529)
(0.00439909 5.33945e-05 0.000200618 2.91458e-05 -2.4268e-06 0.000296007)
(0.00147098 1.69343e-05 0.000133474 2.62883e-05 -1.09259e-05 0.000158018)
(0.00163149 2.03293e-05 0.000130125 2.50802e-05 -1.08864e-05 0.000154374)
(0.00147 1.65089e-05 0.000135409 2.49762e-05 -1.03436e-05 0.000151497)
(0.0016212 2.0257e-05 0.000123826 2.49092e-05 -1.11396e-05 0.000152062)
(0.0014689 1.78009e-05 0.000122639 2.58433e-05 -1.16652e-05 0.000157681)
(0.00162304 1.92495e-05 0.000116545 2.59725e-05 -1.34114e-05 0.000160064)
(0.00147022 1.78533e-05 0.000131096 2.61953e-05 -1.33565e-05 0.000161006)
(0.00162877 1.5934e-05 0.000131499 2.56353e-05 -1.44578e-05 0.000160214)
(0.00148227 1.50869e-05 0.000135433 2.57272e-05 -1.49995e-05 0.000159965)
(0.00163376 1.31038e-05 0.000122202 2.53191e-05 -1.58142e-05 0.000159554)
(0.00149548 1.45809e-05 0.000122882 2.5282e-05 -1.58396e-05 0.000154678)
(0.00163839 1.24763e-05 0.000118445 2.49389e-05 -1.47922e-05 0.000148535)
(0.00150116 1.44323e-05 0.000124802 2.47327e-05 -1.28328e-05 0.000143644)
(0.00164052 1.34296e-05 0.00011735 2.46591e-05 -1.08055e-05 0.000143647)
(0.00150849 1.7272e-05 0.000119249 2.5077e-05 -9.34985e-06 0.000150296)
(0.00165343 1.7451e-05 0.00011508 2.5593e-05 -8.91998e-06 0.000155075)
(0.00152015 2.01283e-05 0.000127986 2.58821e-05 -9.31951e-06 0.000159573)
(0.00167041 1.77567e-05 0.000131871 2.57994e-05 -1.01975e-05 0.000159382)
(0.00152815 1.57399e-05 0.000133311 2.46292e-05 -1.06151e-05 0.000157364)
(0.0016842 1.33566e-05 0.000124297 2.37805e-05 -1.10237e-05 0.00015495)
(0.00153192 1.33292e-05 0.000124437 2.31729e-05 -1.28308e-05 0.000149004)
(0.00169436 1.45208e-05 0.000127005 2.4697e-05 -1.40021e-05 0.00014674)
(0.00152212 1.64929e-05 0.00012535 2.67765e-05 -1.5596e-05 0.000147667)
(0.00169722 1.83177e-05 0.00012754 2.98529e-05 -1.56371e-05 0.00014842)
(0.00150946 2.07945e-05 0.000116771 3.18076e-05 -1.57052e-05 0.000154732)
(0.00169752 2.23209e-05 0.000118246 3.29237e-05 -1.44021e-05 0.000153866)
(0.00149801 2.21455e-05 0.000117568 3.24688e-05 -1.43722e-05 0.000156776)
(0.00168837 2.40614e-05 0.000123712 3.16132e-05 -1.40244e-05 0.000156469)
(0.0014918 2.21281e-05 0.000119969 2.97797e-05 -1.46236e-05 0.000156379)
(0.00168644 2.46099e-05 0.000114688 2.89609e-05 -1.42366e-05 0.000155706)
(0.00147865 2.25687e-05 0.000116254 2.83226e-05 -1.52082e-05 0.000153259)
(0.00167306 2.52267e-05 0.000118903 2.86823e-05 -1.48504e-05 0.00015179)
(0.00146594 2.05216e-05 0.000124838 2.87455e-05 -1.5478e-05 0.000150886)
(0.00165885 2.42509e-05 0.000119146 2.88498e-05 -1.46766e-05 0.000154033)
(0.00145975 2.07964e-05 0.000117654 2.82987e-05 -1.38602e-05 0.00016015)
(0.00165596 2.68847e-05 0.000112694 2.81422e-05 -1.26101e-05 0.000162826)
(0.00146611 2.22712e-05 0.000127334 2.79217e-05 -1.213e-05 0.000163815)
(0.00165319 2.67673e-05 0.000131198 2.80112e-05 -1.2583e-05 0.000163356)
(0.0014743 2.00404e-05 0.000137043 2.79506e-05 -1.20226e-05 0.000162735)
(0.00164189 2.2465e-05 0.000129131 2.7203e-05 -1.18794e-05 0.000162198)
(0.000400108 4.04456e-06 5.51812e-05 2.10929e-05 -1.07156e-05 7.97839e-05)
(0.000444446 4.13899e-06 5.12722e-05 2.02691e-05 -1.03964e-05 7.82369e-05)