/*--------------------------------*- C++ -*----------------------------------*\
  =========                 |
  \\      /  F ield         | OpenFOAM: The Open Source CFD Toolbox
   \\    /   O peration     | Website:  https://openfoam.org
    \\  /    A nd           | Version:  10
     \\/     M anipulation  |
\*---------------------------------------------------------------------------*/
FoamFile
{
    format      ascii;
    class       volScalarField;
    location    "20";
    object      p;
}
// * * * * * * * * * * * * * * * * * * * * * * * * * * * * * * * * * * * * * //

dimensions      [0 2 -2 0 0 0 0];

internalField   nonuniform List<scalar> 
25600
(
1.60831e-06
-2.37691e-05
-1.53539e-05
7.46822e-06
-3.59392e-05
-2.6815e-06
-1.467e-05
-2.52762e-05
-1.22578e-06
-2.42701e-05
9.4021e-07
-1.69696e-05
-1.10868e-05
9.61442e-06
-2.6114e-05
-7.01284e-07
-1.05616e-05
-6.64314e-06
6.93019e-06
-1.42309e-05
-4.64295e-06
-3.54293e-06
-1.17085e-05
-5.31533e-06
8.40663e-06
-1.89177e-05
-1.8002e-05
1.0909e-05
-1.12236e-05
-1.10441e-05
1.06485e-05
-1.99451e-05
-5.67657e-06
1.0649e-05
-1.33282e-05
-6.75295e-06
-1.01474e-05
-9.85687e-06
-3.19792e-06
-1.39278e-05
1.79386e-06
-2.36485e-05
-1.54142e-05
7.72556e-06
-3.59029e-05
-2.61842e-06
-1.44976e-05
-2.53483e-05
-1.07707e-06
-2.42267e-05
9.95283e-07
-1.68494e-05
-1.11422e-05
9.83614e-06
-2.61234e-05
-6.95907e-07
-1.04832e-05
-6.70246e-06
7.10087e-06
-1.41999e-05
-4.65588e-06
-3.48181e-06
-1.17497e-05
-5.30571e-06
8.53905e-06
-1.88726e-05
-1.80869e-05
1.0999e-05
-1.11453e-05
-1.10387e-05
1.08489e-05
-1.99124e-05
-5.77022e-06
1.08532e-05
-1.32192e-05
-6.62346e-06
-1.00518e-05
-9.84779e-06
-3.0759e-06
-1.38096e-05
2.062e-06
-2.35948e-05
-1.55729e-05
8.15432e-06
-3.59404e-05
-2.49719e-06
-1.43557e-05
-2.55412e-05
-8.42454e-07
-2.42424e-05
1.0958e-06
-1.67587e-05
-1.12488e-05
1.01847e-05
-2.62221e-05
-6.65201e-07
-1.04408e-05
-6.81473e-06
7.3865e-06
-1.4187e-05
-4.67579e-06
-3.43326e-06
-1.18499e-05
-5.27268e-06
8.77509e-06
-1.88527e-05
-1.83069e-05
1.11316e-05
-1.10155e-05
-1.10349e-05
1.1163e-05
-1.99676e-05
-5.91207e-06
1.12035e-05
-1.30834e-05
-6.4555e-06
-1.00116e-05
-9.90842e-06
-2.86278e-06
-1.3676e-05
2.40615e-06
-2.36191e-05
-1.58481e-05
8.76992e-06
-3.60579e-05
-2.33498e-06
-1.42665e-05
-2.58683e-05
-5.2218e-07
-2.43298e-05
1.2263e-06
-1.67035e-05
-1.1408e-05
1.06677e-05
-2.64137e-05
-6.23449e-07
-1.04412e-05
-6.97971e-06
7.81035e-06
-1.41926e-05
-4.70371e-06
-3.40795e-06
-1.20026e-05
-5.20347e-06
9.12209e-06
-1.88519e-05
-1.86823e-05
1.13122e-05
-1.08194e-05
-1.10392e-05
1.16018e-05
-2.01052e-05
-6.14239e-06
1.17114e-05
-1.29293e-05
-6.2497e-06
-1.00452e-05
-1.00571e-05
-2.54612e-06
-1.35356e-05
2.81493e-06
-2.37104e-05
-1.62122e-05
9.56788e-06
-3.62329e-05
-2.13517e-06
-1.42747e-05
-2.62966e-05
-1.38699e-07
-2.44894e-05
1.38167e-06
-1.66957e-05
-1.15919e-05
1.12644e-05
-2.6678e-05
-5.82984e-07
-1.0503e-05
-7.18585e-06
8.3589e-06
-1.42001e-05
-4.73529e-06
-3.4332e-06
-1.21778e-05
-5.05876e-06
9.55388e-06
-1.88772e-05
-1.91787e-05
1.15213e-05
-1.05487e-05
-1.1064e-05
1.21404e-05
-2.02618e-05
-6.45244e-06
1.23352e-05
-1.27611e-05
-5.99311e-06
-1.01586e-05
-1.02813e-05
-2.11615e-06
-1.33925e-05
3.29339e-06
-2.38299e-05
-1.66178e-05
1.05502e-05
-3.64288e-05
-1.90792e-06
-1.44234e-05
-2.6782e-05
2.8126e-07
-2.47214e-05
1.53976e-06
-1.67288e-05
-1.17642e-05
1.19363e-05
-2.69944e-05
-5.94112e-07
-1.06428e-05
-7.40751e-06
9.00735e-06
-1.42226e-05
-4.7745e-06
-3.52223e-06
-1.23729e-05
-4.78212e-06
1.00059e-05
-1.89157e-05
-1.97078e-05
1.17045e-05
-1.02631e-05
-1.10952e-05
1.27631e-05
-2.04355e-05
-6.82866e-06
1.29428e-05
-1.25786e-05
-5.65984e-06
-1.03325e-05
-1.05381e-05
-1.58093e-06
-1.32548e-05
3.847e-06
-2.38624e-05
-1.7016e-05
1.17332e-05
-3.65376e-05
-1.6718e-06
-1.47193e-05
-2.72767e-05
6.76186e-07
-2.49533e-05
1.65395e-06
-1.68087e-05
-1.18706e-05
1.26372e-05
-2.73075e-05
-7.09568e-07
-1.08904e-05
-7.64822e-06
9.7493e-06
-1.42229e-05
-4.85291e-06
-3.55852e-06
-1.26182e-05
-4.48476e-06
1.04386e-05
-1.89168e-05
-2.02307e-05
1.17561e-05
-9.98575e-06
-1.11299e-05
1.33636e-05
-2.05782e-05
-7.25211e-06
1.34267e-05
-1.23427e-05
-5.26533e-06
-1.05338e-05
-1.07712e-05
-9.49308e-07
-1.31082e-05
4.56484e-06
-2.36386e-05
-1.73208e-05
1.30496e-05
-3.64626e-05
-1.37598e-06
-1.50782e-05
-2.75993e-05
8.46622e-07
-2.51903e-05
1.82977e-06
-1.68457e-05
-1.18625e-05
1.32751e-05
-2.76038e-05
-9.52963e-07
-1.11352e-05
-7.8792e-06
1.04528e-05
-1.4214e-05
-4.97576e-06
-3.6322e-06
-1.28552e-05
-4.11001e-06
1.07467e-05
-1.89826e-05
-2.07042e-05
1.15935e-05
-9.74132e-06
-1.11128e-05
1.38844e-05
-2.08842e-05
-7.6722e-06
1.37849e-05
-1.21124e-05
-4.86719e-06
-1.06344e-05
-1.10352e-05
-3.50059e-07
-1.29577e-05
5.07209e-06
-2.31157e-05
-1.71412e-05
1.46292e-05
-3.64818e-05
-1.39791e-06
-1.55102e-05
-2.72291e-05
1.11131e-06
-2.56257e-05
1.66037e-06
-1.67462e-05
-1.13001e-05
1.40543e-05
-2.78685e-05
-1.62422e-06
-1.14643e-05
-7.8179e-06
1.13287e-05
-1.42888e-05
-5.34036e-06
-3.8816e-06
-1.29327e-05
-3.57583e-06
1.09682e-05
-1.93369e-05
-2.12084e-05
1.12437e-05
-9.80159e-06
-1.1106e-05
1.38956e-05
-2.14809e-05
-8.02634e-06
1.35572e-05
-1.20955e-05
-4.44477e-06
-1.05697e-05
-1.10221e-05
6.58913e-08
-1.29858e-05
4.90039e-06
-2.33801e-05
-1.69001e-05
1.67666e-05
-3.55697e-05
-1.88886e-06
-1.56798e-05
-2.66193e-05
1.97423e-06
-2.52555e-05
1.20895e-06
-1.73726e-05
-1.05567e-05
1.54049e-05
-2.74764e-05
-2.52119e-06
-1.2231e-05
-7.82689e-06
1.27622e-05
-1.41749e-05
-5.90993e-06
-4.56579e-06
-1.28937e-05
-2.76526e-06
1.1127e-05
-1.98417e-05
-2.18604e-05
1.0793e-05
-9.52361e-06
-1.1262e-05
1.32735e-05
-2.26646e-05
-8.23149e-06
1.28449e-05
-1.21465e-05
-4.78104e-06
-1.10276e-05
-1.08416e-05
1.59906e-06
-1.27928e-05
4.72491e-06
-2.44363e-05
-1.79247e-05
1.81702e-05
-3.34485e-05
-1.95632e-06
-1.65859e-05
-2.6957e-05
2.78315e-06
-2.39069e-05
1.30096e-06
-1.86029e-05
-1.28117e-05
1.74331e-05
-2.60081e-05
-3.39884e-06
-1.36873e-05
-8.11832e-06
1.54414e-05
-1.31323e-05
-6.44655e-06
-6.33639e-06
-1.34221e-05
-9.56741e-07
1.18861e-05
-2.03453e-05
-2.33527e-05
9.57891e-06
-8.18321e-06
-1.0878e-05
1.21387e-05
-2.52799e-05
-9.3043e-06
1.31984e-05
-1.12969e-05
-5.43729e-06
-1.24147e-05
-1.17237e-05
1.21965e-06
-1.14271e-05
5.83103e-06
-2.51775e-05
-2.05197e-05
1.97042e-05
-3.0522e-05
-1.67846e-07
-1.69049e-05
-2.90146e-05
2.26848e-06
-2.17748e-05
3.5498e-06
-1.89646e-05
-1.70064e-05
1.8905e-05
-2.3473e-05
-2.33196e-06
-1.46113e-05
-1.06664e-05
1.79145e-05
-1.06106e-05
-4.59958e-06
-7.76166e-06
-1.60168e-05
-3.56459e-07
1.32008e-05
-1.81685e-05
-2.45097e-05
6.20816e-06
-7.72357e-06
-8.03159e-06
1.30468e-05
-2.78706e-05
-1.22263e-05
1.2513e-05
-9.37663e-06
-4.15728e-06
-1.33304e-05
-1.43949e-05
8.18821e-08
-9.43406e-06
6.92468e-06
-2.41441e-05
-2.12821e-05
2.23017e-05
-2.95783e-05
1.85054e-06
-1.51318e-05
-2.88944e-05
1.44808e-06
-2.17536e-05
5.89638e-06
-1.63048e-05
-1.91002e-05
2.08073e-05
-2.30485e-05
-3.28688e-08
-1.2538e-05
-1.16363e-05
2.12295e-05
-1.05984e-05
-1.68756e-06
-6.58015e-06
-1.68114e-05
-3.30558e-06
1.16026e-05
-1.44606e-05
-2.31033e-05
4.67585e-06
-8.30822e-06
-7.94716e-06
1.48548e-05
-2.92975e-05
-1.33426e-05
1.03032e-05
-9.84889e-06
-2.25919e-06
-1.14492e-05
-1.52271e-05
-2.1914e-06
-9.68029e-06
6.81577e-06
-2.48986e-05
-2.08606e-05
1.2844e-05
-2.84825e-05
2.03215e-06
-1.32104e-05
-2.70257e-05
-1.07468e-06
-2.16769e-05
7.4841e-06
-1.38427e-05
-1.95849e-05
1.36033e-05
-2.26323e-05
9.24376e-07
-1.03877e-05
-1.14095e-05
1.16239e-05
-1.12954e-05
5.28425e-07
-5.71549e-06
-1.61124e-05
-6.17185e-06
9.34286e-06
-1.23155e-05
-2.24334e-05
4.63561e-06
-1.17595e-05
-8.33532e-06
1.51436e-05
-3.31959e-05
-1.30344e-05
6.03547e-06
-1.02661e-05
-1.8254e-06
-9.70658e-06
-1.44267e-05
-5.21756e-06
-1.00871e-05
5.44242e-06
-1.85014e-05
-2.01471e-05
7.70459e-06
-2.67304e-05
1.04125e-06
-1.19513e-05
-2.45212e-05
-1.6229e-06
-2.17915e-05
7.05351e-06
-1.13708e-05
-1.94817e-05
9.57692e-06
-2.18489e-05
4.87564e-07
-8.62578e-06
-1.08142e-05
5.7839e-06
-1.21815e-05
1.3557e-06
-4.52455e-06
-1.50756e-05
-7.10657e-06
6.99648e-06
-1.1176e-05
-1.90322e-05
4.89869e-06
-1.32156e-05
-9.07506e-06
1.45e-05
-2.66183e-05
-1.22694e-05
3.84824e-06
-1.0603e-05
-2.28947e-06
-8.55323e-06
-1.32441e-05
-6.66112e-06
-1.05564e-05
3.74435e-06
-1.41422e-05
-2.00452e-05
4.84331e-06
-2.37289e-05
-5.48174e-07
-1.13737e-05
-2.27937e-05
-1.38721e-06
-2.12051e-05
5.96789e-06
-9.39499e-06
-1.95662e-05
7.28442e-06
-1.96073e-05
-7.98795e-07
-7.45128e-06
-1.0547e-05
2.25008e-06
-1.27903e-05
1.42196e-06
-4.02945e-06
-1.45823e-05
-7.19019e-06
4.89967e-06
-1.04965e-05
-1.68729e-05
4.64955e-06
-1.36297e-05
-9.9808e-06
1.35502e-05
-2.25425e-05
-1.16689e-05
2.4449e-06
-1.09648e-05
-3.02557e-06
-7.94922e-06
-1.27169e-05
-7.28821e-06
-1.06432e-05
1.89066e-06
-1.08974e-05
-1.96881e-05
3.23886e-06
-2.13069e-05
-2.69322e-06
-1.11649e-05
-1.96921e-05
-9.27583e-07
-2.06415e-05
4.18248e-06
-7.77748e-06
-1.96189e-05
5.74231e-06
-1.72768e-05
-2.88282e-06
-6.45611e-06
-1.00069e-05
-1.00023e-07
-1.32593e-05
1.10695e-06
-3.79088e-06
-1.43158e-05
-6.87865e-06
2.98204e-06
-1.03457e-05
-1.52885e-05
4.51178e-06
-1.3794e-05
-1.08672e-05
1.23954e-05
-1.98158e-05
-1.10491e-05
1.29118e-06
-1.12932e-05
-4.08365e-06
-7.31032e-06
-1.20079e-05
-7.58388e-06
-1.08457e-05
2.14359e-07
-8.80539e-06
-1.96657e-05
1.80578e-06
-1.85361e-05
-4.647e-06
-1.10747e-05
-1.72648e-05
-8.31015e-07
-2.02756e-05
2.30382e-06
-6.47924e-06
-1.98433e-05
4.51505e-06
-1.48552e-05
-5.23442e-06
-5.28818e-06
-9.808e-06
-1.87334e-06
-1.31028e-05
9.66929e-07
-4.03523e-06
-1.44181e-05
-6.20052e-06
1.18633e-06
-1.03578e-05
-1.38244e-05
4.21356e-06
-1.37979e-05
-1.12756e-05
1.15179e-05
-1.8573e-05
-1.097e-05
4.1478e-07
-1.13151e-05
-5.16275e-06
-6.40754e-06
-1.15708e-05
-7.69615e-06
-1.06061e-05
-1.69671e-06
-7.52844e-06
-1.94923e-05
6.93821e-07
-1.52183e-05
-6.54536e-06
-1.15694e-05
-1.5141e-05
-9.13712e-07
-1.93338e-05
4.053e-07
-5.77524e-06
-2.01284e-05
3.5629e-06
-1.2125e-05
-7.78444e-06
-4.42873e-06
-9.76067e-06
-3.22685e-06
-1.26479e-05
6.36842e-07
-4.28033e-06
-1.46645e-05
-5.3691e-06
-4.78508e-07
-1.02512e-05
-1.32337e-05
3.57028e-06
-1.32406e-05
-1.14091e-05
1.07323e-05
-1.79324e-05
-1.12334e-05
1.74213e-07
-1.10674e-05
-6.20975e-06
-5.82932e-06
-1.11834e-05
-7.81794e-06
-9.94814e-06
-3.58416e-06
-6.3294e-06
-1.89857e-05
-6.51648e-07
-1.19243e-05
-8.42056e-06
-1.1474e-05
-1.29628e-05
-1.37204e-06
-1.78536e-05
-1.50581e-06
-4.32775e-06
-2.025e-05
2.57978e-06
-9.02434e-06
-1.04592e-05
-3.89898e-06
-9.58478e-06
-4.49519e-06
-1.22644e-05
1.28563e-07
-4.00524e-06
-1.49e-05
-4.42574e-06
-1.97868e-06
-1.01099e-05
-1.25916e-05
2.53796e-06
-1.2372e-05
-1.19077e-05
9.81277e-06
-1.67079e-05
-1.15758e-05
3.39538e-08
-1.06705e-05
-6.97784e-06
-5.45206e-06
-1.07508e-05
-8.00366e-06
-9.22899e-06
-5.24813e-06
-5.3737e-06
-1.84092e-05
-2.43342e-06
-9.41677e-06
-9.98061e-06
-1.17455e-05
-1.08632e-05
-2.28344e-06
-1.58742e-05
-3.36113e-06
-2.84663e-06
-2.02163e-05
1.15661e-06
-6.8618e-06
-1.30993e-05
-2.46385e-06
-9.35063e-06
-5.8853e-06
-1.21301e-05
-2.45364e-07
-3.79452e-06
-1.53775e-05
-3.41469e-06
-3.69392e-06
-9.95899e-06
-1.09522e-05
1.22459e-06
-1.13626e-05
-1.33035e-05
8.81354e-06
-1.54286e-05
-1.1965e-05
-6.33698e-08
-1.00862e-05
-7.61393e-06
-5.20865e-06
-1.06418e-05
-8.46888e-06
-8.25207e-06
-6.82996e-06
-4.66836e-06
-1.69998e-05
-4.68129e-06
-6.29629e-06
-1.11249e-05
-1.22546e-05
-8.58312e-06
-3.44265e-06
-1.53652e-05
-5.36256e-06
-1.61105e-06
-1.96146e-05
-8.47461e-07
-3.80342e-06
-1.60212e-05
-1.20027e-06
-8.553e-06
-7.38503e-06
-1.14075e-05
-7.67291e-07
-3.83527e-06
-1.56508e-05
-2.48402e-06
-5.27842e-06
-9.6811e-06
-9.45734e-06
-2.62887e-07
-1.04455e-05
-1.4205e-05
7.68475e-06
-1.39543e-05
-1.21996e-05
-1.79785e-07
-9.53638e-06
-8.4149e-06
-4.81759e-06
-9.71932e-06
-9.42015e-06
-7.09894e-06
-8.56733e-06
-4.18214e-06
-1.52045e-05
-7.35169e-06
-3.17417e-06
-1.1891e-05
-1.29237e-05
-6.01002e-06
-4.91318e-06
-1.45427e-05
-7.22906e-06
-5.44528e-07
-1.84384e-05
-3.45724e-06
-8.29241e-07
-1.84944e-05
3.0036e-07
-7.61186e-06
-9.33578e-06
-9.93829e-06
-1.32736e-06
-3.77012e-06
-1.5529e-05
-1.83852e-06
-6.65759e-06
-9.25484e-06
-7.96218e-06
-1.71295e-06
-9.57107e-06
-1.42495e-05
6.17506e-06
-1.22764e-05
-1.25249e-05
-4.37154e-07
-8.8614e-06
-9.21264e-06
-4.36458e-06
-9.18931e-06
-1.00307e-05
-5.85713e-06
-1.01557e-05
-4.17516e-06
-1.28438e-05
-1.03783e-05
-6.01266e-07
-1.22405e-05
-1.3689e-05
-3.87301e-06
-6.53319e-06
-1.25755e-05
-9.14742e-06
1.36763e-07
-1.6529e-05
-6.39321e-06
2.00902e-06
-2.035e-05
9.09989e-07
-6.54701e-06
-1.16489e-05
-7.94123e-06
-1.95076e-06
-4.16046e-06
-1.48604e-05
-1.83931e-06
-7.65952e-06
-8.74478e-06
-6.85395e-06
-3.16305e-06
-8.84358e-06
-1.38071e-05
4.36253e-06
-1.04661e-05
-1.29403e-05
-9.78704e-07
-7.94171e-06
-1.01096e-05
-3.8883e-06
-8.65879e-06
-1.10749e-05
-4.3741e-06
-1.13223e-05
-4.68594e-06
-9.88444e-06
-1.35372e-05
1.31486e-06
-1.20391e-05
-1.4586e-05
-1.93378e-06
-8.24969e-06
-1.03014e-05
-1.10608e-05
2.63949e-07
-1.40298e-05
-9.32961e-06
4.09041e-06
-2.14738e-05
8.68047e-07
-5.16964e-06
-1.414e-05
-5.75059e-06
-2.69598e-06
-5.20062e-06
-1.31083e-05
-2.77299e-06
-8.40594e-06
-8.04887e-06
-6.20597e-06
-4.4809e-06
-8.19966e-06
-1.29148e-05
2.11174e-06
-8.61305e-06
-1.31445e-05
-2.04631e-06
-6.84108e-06
-1.1043e-05
-3.45084e-06
-7.93569e-06
-1.23614e-05
-2.70104e-06
-1.21353e-05
-5.64652e-06
-6.56758e-06
-1.64906e-05
2.33746e-06
-1.11482e-05
-1.52665e-05
-6.60896e-07
-9.85739e-06
-8.54959e-06
-1.24731e-05
-1.79259e-07
-1.11658e-05
-1.21664e-05
5.16582e-06
-2.15655e-05
3.40778e-07
-3.61151e-06
-1.67752e-05
-3.53639e-06
-3.08127e-06
-7.19894e-06
-1.02352e-05
-4.5152e-06
-8.76515e-06
-6.8204e-06
-6.24046e-06
-5.3877e-06
-7.63721e-06
-1.16422e-05
-5.20527e-07
-6.66747e-06
-1.29302e-05
-3.80731e-06
-5.51062e-06
-1.17858e-05
-3.09471e-06
-7.05426e-06
-1.43704e-05
-7.75984e-07
-1.26211e-05
-7.09896e-06
-3.00979e-06
-1.89215e-05
2.53825e-06
-1.00944e-05
-1.52266e-05
-3.9147e-07
-1.05015e-05
-7.25071e-06
-1.31631e-05
-1.36665e-06
-8.04694e-06
-1.39936e-05
4.84562e-06
-2.04233e-05
-8.9326e-07
-2.0751e-06
-1.90484e-05
-1.50093e-06
-3.20199e-06
-1.01792e-05
-6.22682e-06
-6.65344e-06
-9.52329e-06
-4.95961e-06
-7.14318e-06
-5.64774e-06
-7.87104e-06
-1.0119e-05
-3.41836e-06
-4.88858e-06
-1.20114e-05
-6.22412e-06
-3.95677e-06
-1.24119e-05
-3.19829e-06
-5.62298e-06
-1.67117e-05
1.30127e-06
-1.23796e-05
-9.18614e-06
3.84861e-07
-2.12816e-05
1.8762e-06
-9.19878e-06
-1.4195e-05
-1.41302e-06
-9.99896e-06
-6.50313e-06
-1.34449e-05
-2.45407e-06
-5.89483e-06
-1.44645e-05
2.89854e-06
-1.79805e-05
-2.91019e-06
-5.6074e-07
-2.07316e-05
1.77557e-07
-3.12899e-06
-1.35716e-05
-1.73012e-06
-8.81842e-06
-1.07986e-05
-2.56669e-06
-8.83453e-06
-5.42802e-06
-7.80388e-06
-8.79821e-06
-6.15598e-06
-3.67475e-06
-1.00478e-05
-9.39168e-06
-2.19499e-06
-1.28869e-05
-3.84815e-06
-3.57359e-06
-1.94264e-05
3.05892e-06
-1.11869e-05
-1.15218e-05
2.82755e-06
-2.13829e-05
2.43191e-07
-8.36721e-06
-1.27295e-05
-3.7732e-06
-8.45667e-06
-6.8772e-06
-1.29302e-05
-3.13795e-06
-5.19586e-06
-1.31646e-05
-5.00976e-07
-1.44975e-05
-5.26277e-06
6.45925e-07
-2.14902e-05
1.35397e-06
-3.15257e-06
-1.66517e-05
2.54089e-06
-1.06643e-05
-1.18488e-05
-1.89938e-07
-1.06976e-05
-5.12435e-06
-7.1316e-06
-8.09855e-06
-8.12248e-06
-3.58115e-06
-6.92238e-06
-1.31983e-05
-6.67221e-08
-1.32993e-05
-5.45949e-06
-3.63903e-07
-2.24188e-05
4.12332e-06
-9.19541e-06
-1.33515e-05
3.19384e-06
-1.91464e-05
-2.52172e-06
-7.90857e-06
-9.29421e-06
-7.59671e-06
-5.44567e-06
-8.54801e-06
-1.1875e-05
-3.0982e-06
-6.57279e-06
-1.0127e-05
-4.9367e-06
-1.103e-05
-7.67906e-06
1.26724e-06
-2.06797e-05
1.46996e-06
-3.66041e-06
-1.88385e-05
5.79653e-06
-1.2019e-05
-1.24767e-05
8.58873e-07
-1.20152e-05
-5.17297e-06
-5.82136e-06
-8.41218e-06
-8.85847e-06
-4.44104e-06
-3.19677e-06
-1.6984e-05
1.6448e-06
-1.26826e-05
-8.81757e-06
4.07319e-06
-2.48455e-05
4.02526e-06
-5.93111e-06
-1.47365e-05
1.23741e-06
-1.46324e-05
-6.18169e-06
-7.96454e-06
-5.60124e-06
-1.24117e-05
-1.69618e-06
-1.06829e-05
-1.10587e-05
-1.85759e-06
-9.68024e-06
-6.77968e-06
-8.22215e-06
-7.99382e-06
-9.60423e-06
3.43894e-07
-1.71258e-05
-6.41157e-07
-3.97256e-06
-1.91239e-05
6.32993e-06
-1.1787e-05
-1.26116e-05
1.63763e-07
-1.19297e-05
-5.91121e-06
-4.24402e-06
-8.72511e-06
-9.27731e-06
-5.20347e-06
-6.72369e-07
-1.90927e-05
2.23586e-06
-1.11829e-05
-1.27541e-05
8.90085e-06
-2.57178e-05
2.07652e-06
-1.80515e-06
-1.52091e-05
-2.95159e-06
-8.31401e-06
-1.05253e-05
-8.29327e-06
-1.95662e-06
-1.64962e-05
1.08207e-06
-1.1673e-05
-1.10815e-05
-4.52881e-07
-1.27183e-05
-3.0849e-06
-9.56019e-06
-6.35736e-06
-1.01266e-05
-2.93754e-06
-1.02142e-05
-5.05999e-06
-4.67703e-06
-1.59239e-05
3.11857e-06
-8.0847e-06
-1.23827e-05
-2.30591e-06
-1.00235e-05
-6.96849e-06
-3.94415e-06
-7.56404e-06
-1.1633e-05
-4.47653e-06
1.00045e-07
-1.98143e-05
2.88875e-06
-1.09155e-05
-1.51758e-05
1.06615e-05
-2.42821e-05
-2.14646e-06
7.30272e-06
-1.78602e-05
-1.3236e-05
5.90092e-06
-4.22862e-05
4.03487e-06
-4.5159e-06
-2.15338e-05
7.24439e-07
-2.69874e-05
8.19648e-06
-1.10015e-05
-6.89454e-06
1.24365e-05
-2.33333e-05
5.80475e-06
-2.69327e-06
-2.3047e-06
8.60614e-06
-1.3144e-05
3.01284e-06
4.71332e-06
-9.82783e-06
-9.7063e-06
8.61787e-06
-1.18264e-05
-1.38157e-05
1.11699e-05
-1.82458e-05
-1.5527e-05
1.63809e-05
-1.81467e-05
-8.43227e-06
-4.42553e-06
-2.05979e-05
-2.33668e-07
-5.96846e-06
-1.06926e-05
-1.31278e-05
-1.86521e-05
7.23835e-06
-1.78965e-05
-1.34017e-05
5.98758e-06
-4.26118e-05
3.85578e-06
-4.43966e-06
-2.17247e-05
7.15925e-07
-2.71927e-05
8.04916e-06
-1.09854e-05
-7.11078e-06
1.25127e-05
-2.35457e-05
5.66342e-06
-2.72476e-06
-2.44515e-06
8.61385e-06
-1.32872e-05
2.84998e-06
4.70003e-06
-9.9425e-06
-9.82645e-06
8.53172e-06
-1.19155e-05
-1.40255e-05
1.11962e-05
-1.83393e-05
-1.57801e-05
1.63743e-05
-1.82182e-05
-8.59089e-06
-4.4217e-06
-2.08586e-05
-3.31079e-07
-6.00319e-06
-1.07584e-05
-1.31896e-05
-1.88766e-05
7.22841e-06
-1.79252e-05
-1.3575e-05
6.18368e-06
-4.30848e-05
3.7026e-06
-4.26455e-06
-2.19542e-05
7.8093e-07
-2.75139e-05
7.94418e-06
-1.09386e-05
-7.33179e-06
1.27243e-05
-2.38635e-05
5.55019e-06
-2.72571e-06
-2.56703e-06
8.72635e-06
-1.34874e-05
2.69096e-06
4.72592e-06
-1.00496e-05
-9.9842e-06
8.46095e-06
-1.20523e-05
-1.42719e-05
1.13136e-05
-1.85084e-05
-1.61719e-05
1.6438e-05
-1.834e-05
-8.77056e-06
-4.45275e-06
-2.1264e-05
-4.25833e-07
-6.02616e-06
-1.0808e-05
-1.3285e-05
-1.92138e-05
7.26234e-06
-1.79464e-05
-1.37518e-05
6.45221e-06
-4.37525e-05
3.577e-06
-3.99497e-06
-2.22166e-05
9.17432e-07
-2.79532e-05
7.88396e-06
-1.08421e-05
-7.55004e-06
1.30688e-05
-2.42686e-05
5.47896e-06
-2.68308e-06
-2.65779e-06
8.96211e-06
-1.37283e-05
2.55696e-06
4.79581e-06
-1.01219e-05
-1.01481e-05
8.41237e-06
-1.22303e-05
-1.453e-05
1.15217e-05
-1.87394e-05
-1.66929e-05
1.6552e-05
-1.85166e-05
-8.97728e-06
-4.54387e-06
-2.17835e-05
-5.31519e-07
-6.06978e-06
-1.08461e-05
-1.34113e-05
-1.9649e-05
7.29011e-06
-1.80012e-05
-1.39278e-05
6.69138e-06
-4.45843e-05
3.44991e-06
-3.71529e-06
-2.24802e-05
1.01347e-06
-2.85051e-05
7.8489e-06
-1.074e-05
-7.77162e-06
1.34753e-05
-2.47006e-05
5.43722e-06
-2.61759e-06
-2.70281e-06
9.29798e-06
-1.39645e-05
2.47599e-06
4.89184e-06
-1.01148e-05
-1.02699e-05
8.39666e-06
-1.24043e-05
-1.47443e-05
1.1805e-05
-1.90042e-05
-1.72595e-05
1.66598e-05
-1.87541e-05
-9.19289e-06
-4.72432e-06
-2.23787e-05
-6.7613e-07
-6.22308e-06
-1.08846e-05
-1.35728e-05
-2.01493e-05
7.28294e-06
-1.81796e-05
-1.40888e-05
6.82475e-06
-4.55593e-05
3.25937e-06
-3.6142e-06
-2.27362e-05
9.7101e-07
-2.92034e-05
7.75327e-06
-1.07114e-05
-8.05e-06
1.38253e-05
-2.51646e-05
5.33825e-06
-2.60587e-06
-2.66475e-06
9.71005e-06
-1.41764e-05
2.45386e-06
4.9887e-06
-1.0011e-05
-1.02968e-05
8.4672e-06
-1.25204e-05
-1.48824e-05
1.221e-05
-1.92282e-05
-1.77052e-05
1.67626e-05
-1.90498e-05
-9.34119e-06
-4.82778e-06
-2.30127e-05
-8.56462e-07
-6.44951e-06
-1.09086e-05
-1.37363e-05
-2.06776e-05
7.31512e-06
-1.8336e-05
-1.42399e-05
6.85503e-06
-4.64918e-05
2.95739e-06
-3.68847e-06
-2.31191e-05
6.51458e-07
-2.99538e-05
7.47713e-06
-1.10159e-05
-8.51444e-06
1.38857e-05
-2.5666e-05
5.1626e-06
-2.73068e-06
-2.70959e-06
1.00592e-05
-1.4326e-05
2.47051e-06
5.10593e-06
-9.83437e-06
-1.02102e-05
8.56621e-06
-1.24836e-05
-1.49075e-05
1.27575e-05
-1.93478e-05
-1.80568e-05
1.69707e-05
-1.92514e-05
-9.33625e-06
-4.73723e-06
-2.35992e-05
-1.13918e-06
-6.6291e-06
-1.08537e-05
-1.37303e-05
-2.10791e-05
7.46903e-06
-1.82931e-05
-1.42947e-05
6.57155e-06
-4.71861e-05
2.47258e-06
-3.77048e-06
-2.34861e-05
-2.01991e-08
-3.08924e-05
6.92702e-06
-1.15495e-05
-9.19572e-06
1.35805e-05
-2.65186e-05
4.56016e-06
-2.9933e-06
-2.68757e-06
1.01311e-05
-1.4609e-05
2.17439e-06
5.14104e-06
-9.46708e-06
-9.94484e-06
8.4419e-06
-1.25046e-05
-1.47458e-05
1.33604e-05
-1.90855e-05
-1.82442e-05
1.68921e-05
-1.9222e-05
-9.11948e-06
-4.38664e-06
-2.38288e-05
-1.29149e-06
-6.79527e-06
-1.07043e-05
-1.32049e-05
-2.11998e-05
8.22418e-06
-1.79361e-05
-1.42762e-05
6.03522e-06
-4.64345e-05
2.20947e-06
-3.90603e-06
-2.33877e-05
-9.89983e-07
-3.14405e-05
6.20779e-06
-1.23937e-05
-1.06122e-05
1.29922e-05
-2.70563e-05
3.5245e-06
-4.14978e-06
-3.14748e-06
9.91739e-06
-1.44268e-05
1.68034e-06
4.34482e-06
-9.79207e-06
-9.6751e-06
8.76494e-06
-1.21548e-05
-1.465e-05
1.3163e-05
-1.87973e-05
-1.76808e-05
1.71759e-05
-1.91282e-05
-9.24532e-06
-3.80115e-06
-2.34484e-05
-1.07165e-06
-6.70853e-06
-1.07592e-05
-1.2322e-05
-2.08256e-05
1.01524e-05
-1.62496e-05
-1.36138e-05
5.02163e-06
-4.58957e-05
2.74149e-06
-4.25329e-06
-2.28032e-05
-3.61265e-06
-3.22032e-05
6.26225e-06
-1.19294e-05
-1.23282e-05
1.09794e-05
-2.82626e-05
3.13622e-06
-4.50318e-06
-3.82243e-06
7.98381e-06
-1.51275e-05
1.75715e-06
4.23181e-06
-1.01849e-05
-1.12885e-05
7.86742e-06
-1.10696e-05
-1.32384e-05
1.29379e-05
-2.00733e-05
-1.8041e-05
1.79186e-05
-1.77044e-05
-8.78245e-06
-4.2993e-06
-2.39055e-05
-1.29041e-07
-5.29779e-06
-1.01285e-05
-1.27058e-05
-2.10698e-05
1.10738e-05
-1.45146e-05
-1.0831e-05
4.80952e-06
-4.62371e-05
1.51701e-06
-4.55017e-06
-1.97935e-05
-6.05378e-06
-3.40806e-05
4.59433e-06
-1.11463e-05
-9.91374e-06
1.00924e-05
-3.0864e-05
6.77468e-07
-4.6886e-06
-2.3645e-06
6.96829e-06
-1.76851e-05
-2.81799e-07
3.60048e-06
-8.65663e-06
-1.2159e-05
5.24317e-06
-1.21713e-05
-1.25793e-05
1.4718e-05
-2.03011e-05
-1.99059e-05
1.66307e-05
-1.67545e-05
-6.13736e-06
-4.0811e-06
-2.55537e-05
-1.17936e-06
-4.25378e-06
-7.29236e-06
-1.21725e-05
-2.29896e-05
5.25515e-06
-1.50465e-05
-9.82156e-06
5.67598e-06
-4.40586e-05
-2.37395e-06
-7.41786e-06
-1.80093e-05
-8.40524e-06
-3.36548e-05
1.2994e-06
-1.2975e-05
-9.46056e-06
1.07264e-05
-3.09732e-05
-3.24744e-06
-7.29006e-06
-2.22376e-06
7.90902e-06
-1.82238e-05
-3.17943e-06
3.30962e-07
-8.68102e-06
-1.17675e-05
4.40831e-06
-1.49242e-05
-1.48814e-05
1.49479e-05
-1.93145e-05
-1.9846e-05
1.30688e-05
-1.86077e-05
-5.37615e-06
-2.79289e-06
-2.48449e-05
-4.78929e-06
-5.76334e-06
-5.87876e-06
-1.03457e-05
-2.30138e-05
2.15054e-06
-1.45196e-05
-1.23884e-05
9.0105e-06
-4.05603e-05
-4.10219e-06
-9.09132e-06
-1.85821e-05
-1.95566e-06
-3.2034e-05
1.11199e-07
-1.39413e-05
-1.1991e-05
1.31317e-05
-2.95542e-05
-4.65849e-06
-9.08761e-06
-4.64569e-06
7.86817e-06
-1.74466e-05
-3.89336e-06
-2.25234e-06
-1.10777e-05
-1.02128e-05
4.25202e-06
-1.55385e-05
-1.63434e-05
1.21519e-05
-1.7095e-05
-1.89408e-05
1.1523e-05
-2.09162e-05
-7.22206e-06
-6.25002e-07
-2.29003e-05
-5.95481e-06
-6.58049e-06
-6.91034e-06
-8.41943e-06
-2.21626e-05
5.82713e-07
-1.48154e-05
-1.38542e-05
9.12284e-06
-3.75493e-05
-4.7094e-06
-1.03489e-05
-1.87259e-05
6.28762e-07
-3.09686e-05
7.9384e-08
-1.35204e-05
-1.43103e-05
1.25896e-05
-2.89111e-05
-5.05728e-06
-9.30736e-06
-6.5666e-06
5.74663e-06
-1.71153e-05
-3.3988e-06
-2.92345e-06
-1.27078e-05
-1.03743e-05
3.2813e-06
-1.51556e-05
-1.58123e-05
9.97854e-06
-1.67829e-05
-1.85038e-05
1.08774e-05
-2.04227e-05
-8.39933e-06
-3.44422e-08
-2.14285e-05
-6.37266e-06
-6.21055e-06
-7.89651e-06
-8.12217e-06
-2.11936e-05
-4.61533e-07
-1.35982e-05
-1.40062e-05
8.61972e-06
-3.50524e-05
-5.00479e-06
-1.05532e-05
-1.75321e-05
1.95028e-06
-3.03765e-05
6.83157e-07
-1.19918e-05
-1.55082e-05
1.09917e-05
-2.89925e-05
-5.25822e-06
-8.409e-06
-7.09216e-06
3.41189e-06
-1.70068e-05
-2.53927e-06
-2.70423e-06
-1.29554e-05
-1.05141e-05
1.92403e-06
-1.4228e-05
-1.43121e-05
8.97467e-06
-1.64894e-05
-1.82066e-05
1.06697e-05
-1.89274e-05
-8.08069e-06
-5.7981e-08
-2.03779e-05
-6.68463e-06
-5.7149e-06
-7.55817e-06
-7.93113e-06
-1.99625e-05
-1.28039e-06
-1.17528e-05
-1.38775e-05
7.44972e-06
-3.18327e-05
-5.31021e-06
-1.06503e-05
-1.53398e-05
3.04162e-06
-2.85088e-05
1.06347e-06
-1.03356e-05
-1.614e-05
9.71578e-06
-2.48793e-05
-5.7247e-06
-7.42877e-06
-6.99632e-06
1.59143e-06
-1.66927e-05
-1.71805e-06
-2.70271e-06
-1.2832e-05
-9.62581e-06
6.5826e-07
-1.33318e-05
-1.31446e-05
8.37664e-06
-1.55664e-05
-1.79619e-05
1.07334e-05
-1.76699e-05
-7.50424e-06
3.00058e-07
-1.88901e-05
-6.82348e-06
-5.69855e-06
-6.93478e-06
-7.53158e-06
-1.83684e-05
-2.1248e-06
-9.75873e-06
-1.41917e-05
6.20523e-06
-2.81803e-05
-5.98558e-06
-1.07397e-05
-1.43101e-05
3.01466e-06
-2.70174e-05
9.01429e-07
-8.50559e-06
-1.68417e-05
8.74136e-06
-2.14404e-05
-6.95979e-06
-6.44222e-06
-6.98975e-06
-7.37081e-08
-1.63567e-05
-1.24719e-06
-2.93589e-06
-1.27363e-05
-8.49659e-06
-4.73247e-07
-1.2722e-05
-1.2359e-05
7.8613e-06
-1.44494e-05
-1.7517e-05
1.05392e-05
-1.69446e-05
-7.14497e-06
8.50601e-07
-1.7262e-05
-7.12546e-06
-5.9839e-06
-6.46486e-06
-7.20865e-06
-1.65866e-05
-3.23102e-06
-8.13896e-06
-1.46279e-05
4.83572e-06
-2.42584e-05
-6.88903e-06
-1.08412e-05
-1.32456e-05
2.57962e-06
-2.54856e-05
2.06831e-07
-6.88526e-06
-1.78537e-05
7.88937e-06
-1.81573e-05
-8.48083e-06
-5.30552e-06
-7.06762e-06
-1.71903e-06
-1.59098e-05
-1.2209e-06
-3.2285e-06
-1.30672e-05
-7.52665e-06
-1.46688e-06
-1.24683e-05
-1.16672e-05
6.76157e-06
-1.34151e-05
-1.69191e-05
9.78328e-06
-1.66501e-05
-7.40152e-06
1.14257e-06
-1.5637e-05
-7.60133e-06
-5.76306e-06
-5.89609e-06
-7.29142e-06
-1.49489e-05
-4.20624e-06
-6.55108e-06
-1.48795e-05
3.0455e-06
-2.02613e-05
-7.83641e-06
-1.1601e-05
-1.21095e-05
1.93368e-06
-2.39454e-05
-1.06155e-06
-5.27317e-06
-1.87924e-05
6.70738e-06
-1.50967e-05
-1.03335e-05
-4.00144e-06
-7.24463e-06
-3.12589e-06
-1.55046e-05
-1.34901e-06
-3.46779e-06
-1.36697e-05
-6.29658e-06
-2.7037e-06
-1.2056e-05
-1.09838e-05
5.25946e-06
-1.23828e-05
-1.69289e-05
9.34827e-06
-1.62947e-05
-8.12885e-06
1.28906e-06
-1.4156e-05
-7.92109e-06
-5.3183e-06
-5.56095e-06
-7.60445e-06
-1.35225e-05
-5.24378e-06
-5.21873e-06
-1.46366e-05
9.87545e-07
-1.60939e-05
-8.88066e-06
-1.18282e-05
-1.05292e-05
1.00066e-06
-2.24866e-05
-2.52166e-06
-3.98015e-06
-1.95977e-05
4.9607e-06
-1.18833e-05
-1.24809e-05
-2.96931e-06
-7.33511e-06
-4.50974e-06
-1.47503e-05
-1.38123e-06
-3.5078e-06
-1.43805e-05
-5.01524e-06
-4.08125e-06
-1.14472e-05
-1.05575e-05
3.40943e-06
-1.12416e-05
-1.72362e-05
9.15344e-06
-1.62434e-05
-9.06711e-06
1.39554e-06
-1.29516e-05
-8.187e-06
-4.83861e-06
-5.47233e-06
-8.08253e-06
-1.1913e-05
-6.73119e-06
-4.55506e-06
-1.50353e-05
-1.21741e-06
-1.17589e-05
-1.02518e-05
-1.18532e-05
-8.45027e-06
-2.55693e-07
-2.08094e-05
-4.30803e-06
-2.36184e-06
-1.98348e-05
2.96342e-06
-8.64534e-06
-1.51169e-05
-1.70065e-06
-7.34057e-06
-5.83642e-06
-1.36544e-05
-1.662e-06
-3.52653e-06
-1.49274e-05
-3.66216e-06
-5.36705e-06
-1.09839e-05
-9.66253e-06
1.43821e-06
-1.0025e-05
-1.72398e-05
8.5935e-06
-1.552e-05
-9.79019e-06
1.52652e-06
-1.18851e-05
-8.71927e-06
-4.80645e-06
-5.00981e-06
-8.48819e-06
-1.02e-05
-8.22499e-06
-4.00909e-06
-1.51552e-05
-3.8723e-06
-7.80403e-06
-1.13921e-05
-1.20918e-05
-6.27471e-06
-1.91798e-06
-1.82929e-05
-6.26339e-06
-6.02148e-07
-1.93304e-05
3.41376e-07
-5.14549e-06
-1.77215e-05
-3.15753e-07
-7.582e-06
-7.48078e-06
-1.20939e-05
-1.96619e-06
-3.37548e-06
-1.54645e-05
-2.6258e-06
-6.20004e-06
-1.06347e-05
-8.42192e-06
-5.57704e-07
-8.94939e-06
-1.6585e-05
7.6941e-06
-1.43956e-05
-1.06737e-05
1.38162e-06
-1.09222e-05
-9.12766e-06
-5.08887e-06
-4.56307e-06
-8.97372e-06
-8.43696e-06
-9.71621e-06
-3.80024e-06
-1.41746e-05
-6.70432e-06
-4.01194e-06
-1.23351e-05
-1.27508e-05
-4.26277e-06
-3.70903e-06
-1.60709e-05
-8.27003e-06
5.24445e-07
-1.80551e-05
-2.70857e-06
-1.24055e-06
-2.00174e-05
8.48358e-07
-7.3152e-06
-9.4223e-06
-1.02064e-05
-2.44539e-06
-3.65443e-06
-1.55936e-05
-1.71812e-06
-6.99733e-06
-9.87653e-06
-7.44915e-06
-2.52042e-06
-7.92552e-06
-1.59126e-05
6.26373e-06
-1.29595e-05
-1.16969e-05
1.04851e-06
-9.84737e-06
-9.73106e-06
-5.41983e-06
-4.9904e-06
-9.80196e-06
-6.20642e-06
-1.10674e-05
-3.95777e-06
-1.19958e-05
-9.89686e-06
-9.41959e-07
-1.28902e-05
-1.32753e-05
-2.4925e-06
-5.62356e-06
-1.36131e-05
-1.02784e-05
1.02348e-06
-1.61076e-05
-6.10521e-06
2.41881e-06
-2.1761e-05
1.38329e-06
-6.33449e-06
-1.17539e-05
-8.03775e-06
-3.01346e-06
-4.15665e-06
-1.51554e-05
-1.47473e-06
-7.86445e-06
-9.14697e-06
-6.58515e-06
-4.19736e-06
-7.15035e-06
-1.50829e-05
4.3517e-06
-1.1009e-05
-1.26593e-05
3.17027e-07
-8.58325e-06
-1.04881e-05
-5.31416e-06
-5.34293e-06
-1.11036e-05
-4.08107e-06
-1.21178e-05
-4.7988e-06
-9.11275e-06
-1.35105e-05
1.33308e-06
-1.28533e-05
-1.38655e-05
-8.97282e-07
-7.48798e-06
-1.09221e-05
-1.1829e-05
1.02253e-06
-1.36201e-05
-9.36464e-06
5.02815e-06
-2.26272e-05
1.10248e-06
-4.80315e-06
-1.44043e-05
-5.6156e-06
-3.45221e-06
-5.23258e-06
-1.36283e-05
-2.24502e-06
-8.84814e-06
-8.14206e-06
-6.04054e-06
-5.68138e-06
-6.54517e-06
-1.38642e-05
2.01473e-06
-9.04721e-06
-1.31422e-05
-1.02704e-06
-7.07945e-06
-1.12593e-05
-4.94698e-06
-5.53885e-06
-1.27772e-05
-1.92544e-06
-1.29387e-05
-6.30762e-06
-5.58475e-06
-1.66119e-05
2.50544e-06
-1.20045e-05
-1.43575e-05
3.64696e-07
-9.13186e-06
-8.51617e-06
-1.31513e-05
4.5946e-07
-1.06467e-05
-1.33298e-05
6.47294e-06
-2.24146e-05
1.20757e-07
-2.92118e-06
-1.71631e-05
-3.24671e-06
-3.60566e-06
-7.30552e-06
-1.07179e-05
-3.8485e-06
-8.92988e-06
-6.66592e-06
-6.09493e-06
-6.65948e-06
-6.21322e-06
-1.24518e-05
-6.42223e-07
-6.99772e-06
-1.29875e-05
-3.10677e-06