/*--------------------------------*- C++ -*----------------------------------*\
  =========                 |
  \\      /  F ield         | OpenFOAM: The Open Source CFD Toolbox
   \\    /   O peration     | Website:  https://openfoam.org
    \\  /    A nd           | Version:  10
     \\/     M anipulation  |
\*---------------------------------------------------------------------------*/
FoamFile
{
    format      ascii;
    class       surfaceScalarField;
    location    "20";
    object      phi_0;
}
// * * * * * * * * * * * * * * * * * * * * * * * * * * * * * * * * * * * * * //

dimensions      [0 3 -1 0 0 0 0];

internalField   nonuniform List<scalar> 
74080
(
1.06225e-05
1.92205e-08
-5.28714e-08
1.06114e-05
4.53933e-08
-4.17116e-08
1.0623e-05
1.40588e-08
-4.84193e-08
1.06278e-05
1.80772e-08
-3.7954e-08
1.061e-05
4.15638e-08
-4.16303e-08
1.06306e-05
3.4952e-09
-4.62214e-08
1.06153e-05
3.90025e-08
-3.99005e-08
1.06158e-05
1.97589e-08
-3.78258e-08
1.062e-05
1.11765e-08
-3.35389e-08
1.06051e-05
3.40076e-08
-3.23494e-08
1.0617e-05
3.03379e-09
-3.67736e-08
1.05977e-05
3.48775e-08
-2.70766e-08
1.06036e-05
3.77719e-09
-2.81747e-08
1.06038e-05
1.34777e-08
-2.01348e-08
1.05851e-05
3.24266e-08
-2.07718e-08
1.05993e-05
-2.87543e-09
-1.65708e-08
1.05845e-05
2.46728e-08
-1.55234e-08
1.05891e-05
2.43523e-09
-1.05893e-08
1.05883e-05
5.65426e-09
-8.76218e-09
1.05783e-05
2.33888e-08
-6.38305e-09
1.05848e-05
1.06582e-09
-1.04642e-08
1.05808e-05
1.35821e-08
-3.25155e-09
1.05773e-05
6.6075e-09
-7.61597e-09
1.05792e-05
2.53816e-09
-3.32206e-09
1.05836e-05
3.34545e-09
-1.19993e-08
1.05706e-05
2.27564e-08
-6.55904e-09
1.05765e-05
4.95297e-09
-1.61039e-08
1.05843e-05
-2.14323e-10
-1.09926e-08
1.05725e-05
1.81958e-08
-1.64339e-08
1.05791e-05
9.33447e-09
-1.86823e-08
1.05871e-05
9.95904e-09
-2.9392e-08
1.05745e-05
3.44063e-08
-2.31183e-08
1.05895e-05
-7.34153e-10
-3.03011e-08
1.05925e-05
1.40857e-08
-2.43408e-08
1.05893e-05
2.68194e-08
-3.75727e-08
1.05997e-05
2.13211e-08
-4.14115e-08
1.05999e-05
3.02456e-08
-4.03948e-08
1.06067e-05
2.12371e-08
-3.84694e-08
1.06106e-05
1.68781e-08
-4.02704e-08
3.01951e-08
-4.29396e-08
3.59318e-05
9.21481e-08
-1.6197e-07
3.59256e-05
1.53106e-07
-1.35392e-07
3.59507e-05
6.90332e-08
-1.55716e-07
3.5953e-05
9.50419e-08
-1.26685e-07
3.59379e-05
1.3278e-07
-1.43979e-07
3.59666e-05
5.06143e-08
-1.37319e-07
3.594e-05
1.35309e-07
-1.29899e-07
3.59458e-05
7.71212e-08
-1.19252e-07
3.59417e-05
6.68532e-08
-1.1294e-07
3.5921e-05
1.13079e-07
-1.06736e-07
3.59293e-05
3.89674e-08
-1.06921e-07
3.58948e-05
1.18736e-07
-8.66076e-08
3.59007e-05
2.95265e-08
-8.33699e-08
3.58856e-05
7.23452e-08
-6.3654e-08
3.58591e-05
9.22071e-08
-6.06706e-08
3.58707e-05
1.9344e-08
-4.67839e-08
3.58413e-05
8.12391e-08
-4.35293e-08
3.58461e-05
2.23201e-08
-2.79072e-08
3.58329e-05
3.7113e-08
-2.35473e-08
3.58197e-05
7.02269e-08
-1.71495e-08
3.58233e-05
1.53243e-08
-2.25409e-08
3.58123e-05
5.08322e-08
-8.31322e-09
3.58068e-05
2.32797e-08
-2.03129e-08
3.58062e-05
2.14468e-08
-1.10179e-08
3.58068e-05
2.4349e-08
-3.34046e-08
3.57878e-05
6.77303e-08
-1.96343e-08
3.57992e-05
2.37277e-08
-4.98946e-08
3.58016e-05
2.24258e-08
-3.45863e-08
3.57882e-05
6.1393e-08
-6.15321e-08
3.58007e-05
4.39857e-08
-5.96141e-08
3.5809e-05
5.51507e-08
-9.18032e-08
3.57977e-05
1.10195e-07
-7.69129e-08
3.5825e-05
2.19541e-08
-1.0259e-07
3.58284e-05
7.55224e-08
-8.86271e-08
3.58358e-05
9.54308e-08
-1.26305e-07
3.58576e-05
9.50175e-08
-1.25145e-07
3.58667e-05
1.09314e-07
-1.32831e-07
3.58863e-05
9.1758e-08
-1.27723e-07
3.58982e-05
8.04451e-08
-1.38714e-07
1.17777e-07
-1.41843e-07
6.81148e-05
2.16475e-07
-2.8436e-07
6.81263e-05
3.17893e-07
-2.44418e-07
6.81678e-05
1.72612e-07
-2.80884e-07
6.81807e-05
2.30096e-07
-2.36194e-07
6.8179e-05
2.74659e-07
-2.68704e-07
6.82161e-05
1.54094e-07
-2.48786e-07
6.81935e-05
2.84113e-07
-2.4515e-07
6.82047e-05
1.84667e-07
-2.22308e-07
6.81995e-05
1.70666e-07
-2.16937e-07
6.81773e-05
2.46689e-07
-2.06715e-07
6.81809e-05
1.18197e-07
-1.97813e-07
6.81394e-05
2.557e-07
-1.72593e-07
6.81355e-05
9.32482e-08
-1.58634e-07
6.81095e-05
1.82518e-07
-1.30499e-07
6.80728e-05
1.88079e-07
-1.18247e-07
6.80711e-05
8.4935e-08
-9.29835e-08
6.8029e-05
1.73203e-07
-8.5455e-08
6.80222e-05
7.67193e-08
-5.65341e-08
6.79939e-05
9.94851e-08
-4.53489e-08
6.79716e-05
1.48814e-07
-3.22976e-08
6.79642e-05
5.41896e-08
-3.55944e-08
6.79427e-05
1.15416e-07
-1.09322e-08
6.79281e-05
5.8773e-08
-2.77155e-08
6.79186e-05
6.1383e-08
-1.0004e-08
6.79109e-05
6.70092e-08
-4.86948e-08
6.78833e-05
1.31353e-07
-1.68335e-08
6.78912e-05
6.17743e-08
-7.46638e-08
6.78825e-05
6.65417e-08
-4.30703e-08
6.78664e-05
1.2632e-07
-9.90563e-08
6.78758e-05
1.04342e-07
-8.62222e-08
6.78825e-05
1.2785e-07
-1.43734e-07
6.78719e-05
2.20988e-07
-1.23305e-07
6.7902e-05
7.07472e-08
-1.69105e-07
6.79085e-05
1.79302e-07
-1.50795e-07
6.79257e-05
2.01007e-07
-2.12374e-07
6.79596e-05
2.17224e-07
-2.06396e-07
6.7982e-05
2.29367e-07
-2.29378e-07
6.80175e-05
2.12422e-07
-2.2166e-07
6.8043e-05
1.88974e-07
-2.46626e-07
2.61362e-07
-2.49549e-07
0.000108019
3.76952e-07
-4.01821e-07
0.000108062
5.27514e-07
-3.52648e-07
0.000108134
3.17732e-07
-4.12326e-07
0.000108175
4.12658e-07
-3.54266e-07
0.000108204
4.62805e-07
-4.10342e-07
0.000108263
3.13963e-07
-3.82165e-07
0.000108264
4.80739e-07
-3.83407e-07
0.000108292
3.50793e-07
-3.57427e-07
0.0001083
3.19219e-07
-3.42666e-07
0.000108289
4.45571e-07
-3.49288e-07
0.000108296
2.46383e-07
-3.20112e-07
0.000108261
4.53436e-07
-2.99913e-07
0.000108249
2.09088e-07
-2.74971e-07
0.000108218
3.55331e-07
-2.39109e-07
0.000108174
3.38077e-07
-2.18234e-07
0.000108153
2.09332e-07
-1.74013e-07
0.000108097
3.14633e-07
-1.62281e-07
0.000108071
1.82984e-07
-1.17681e-07
0.00010802
2.09696e-07
-9.30961e-08
0.000107978
2.75414e-07
-6.63344e-08
0.00010795
1.37822e-07
-6.51532e-08
0.000107908
2.19869e-07
-1.70172e-08
0.00010787
1.31359e-07
-3.80102e-08
0.00010784
1.27923e-07
8.15031e-09
0.000107815
1.43591e-07
-5.82332e-08
0.000107765
2.17128e-07
1.51803e-08
0.000107759
1.22357e-07
-7.77525e-08
0.000107725
1.32496e-07
-1.69514e-08
0.000107695
2.03775e-07
-1.01926e-07
0.000107689
1.85582e-07
-7.69265e-08
0.000107684
2.09018e-07
-1.50682e-07
0.000107667
3.55496e-07
-1.34777e-07
0.000107687
1.30965e-07
-1.96868e-07
0.000107691
3.08075e-07
-1.78442e-07
0.000107711
3.28526e-07
-2.6771e-07
0.000107756
3.69987e-07
-2.58091e-07
0.00010779
3.70591e-07
-2.97659e-07
0.000107845
3.66438e-07
-2.94271e-07
0.000107888
3.262e-07
-3.3687e-07
4.4417e-07
-3.43545e-07
0.000156248
5.44092e-07
-4.72807e-07
0.000156339
7.49335e-07
-4.21638e-07
0.000156448
4.86096e-07
-5.19742e-07
0.000156539
6.12947e-07
-4.44367e-07
0.000156625
6.66922e-07
-5.34267e-07
0.000156726
5.20217e-07
-5.21447e-07
0.000156779
6.97274e-07
-5.14158e-07
0.000156848
5.78006e-07
-5.27054e-07
0.000156889
4.94275e-07
-4.66827e-07
0.000156921
6.99335e-07
-5.27244e-07
0.000156944
4.26333e-07
-4.76516e-07
0.000156948
7.01973e-07
-4.62273e-07
0.000156945
3.87428e-07
-4.45197e-07
0.000156927
5.90575e-07
-3.95986e-07
0.000156899
5.56269e-07
-3.83329e-07
0.000156861
4.02166e-07
-3.08398e-07
0.000156803
5.17806e-07
-2.96587e-07
0.000156758
3.55302e-07
-2.3573e-07
0.000156688
3.87827e-07
-1.97415e-07
0.000156621
4.67879e-07
-1.4444e-07
0.000156564
2.96998e-07
-1.46457e-07
0.000156492
3.8086e-07
-4.66441e-08
0.000156419
2.71818e-07
-8.79301e-08
0.000156347
2.37603e-07
3.13366e-08
0.000156294
2.76023e-07
-8.03941e-08
0.000156198
3.49176e-07
5.98092e-08
0.000156163
2.14461e-07
-6.19411e-08
0.00015608
2.37699e-07
3.95342e-08
0.000156014
2.88297e-07
-5.11762e-08
0.000155971
3.02855e-07
-3.11298e-08
0.000155925
2.85045e-07
-8.44998e-08
0.000155886
5.00126e-07
-8.48252e-08
0.000155868
1.95818e-07
-1.58652e-07
0.000155856
4.36495e-07
-1.30851e-07
0.000155859
4.56678e-07
-2.58013e-07
0.000155898
5.33908e-07
-2.49704e-07
0.000155933
5.0657e-07
-2.96039e-07
0.000155996
5.22842e-07
-3.04336e-07
0.000156056
4.60067e-07
-3.6487e-07
6.33586e-07
-3.82855e-07
0.000213056
6.9092e-07
-4.45066e-07
0.000213201
9.37218e-07
-3.90837e-07
0.000213339
6.54588e-07
-5.57754e-07
0.000213473
8.13924e-07
-4.67376e-07
0.000213638
8.14481e-07
-5.54802e-07
0.000213797
7.46696e-07
-6.25034e-07
0.000213928
8.79687e-07
-5.64807e-07
0.000214079
8.4081e-07
-6.98354e-07
0.000214169
6.86971e-07
-5.6514e-07
0.000214288
9.49757e-07
-6.73207e-07
0.000214351
6.43586e-07
-6.46635e-07
0.000214427
9.62892e-07
-6.1626e-07
0.000214483
6.2285e-07
-6.53025e-07
0.000214501
8.67419e-07
-5.7836e-07
0.000214545
8.33537e-07
-6.07426e-07
0.000214519
6.52716e-07
-4.9315e-07
0.000214493
7.76343e-07
-4.94461e-07
0.00021445
5.95529e-07
-4.22517e-07
0.00021439
6.42876e-07
-3.85562e-07
0.000214322
7.24433e-07
-2.79189e-07
0.00021425
5.51412e-07
-3.24008e-07
0.000214157
6.03783e-07
-1.25069e-07
0.000214064
4.99027e-07
-2.25611e-07
0.000213934
4.29359e-07
-1.24199e-09
0.000213852
4.83641e-07
-1.51112e-07
0.000213697
5.66296e-07
6.39386e-08
0.000213616
3.51443e-07
-4.98946e-08
0.000213469
4.3306e-07
6.01374e-08
0.000213333
3.99225e-07
3.71685e-08
0.000213237
4.84997e-07
1.47216e-08
0.000213099
3.95567e-07
2.15994e-08
0.000213012
6.55422e-07
3.10313e-08
0.000212903
2.96267e-07
-6.90076e-08
0.000212834
5.66022e-07
-9.67333e-10
0.000212787
5.57748e-07
-1.4443e-07
0.000212779
7.03619e-07
-1.66952e-07
0.000212781
6.38026e-07
-2.03322e-07
0.000212811
6.71081e-07
-2.24755e-07
0.000212859
5.63159e-07
-2.8365e-07
7.85842e-07
-3.11661e-07
0.00027838
7.98045e-07
-2.72665e-07
0.000278536
1.06772e-06
-2.03882e-07
0.000278673
7.90163e-07
-4.60464e-07
0.000278786
1.08672e-06
-4.50482e-07
0.000278991
8.81113e-07
-4.08226e-07
0.000279197
9.32553e-07
-6.1167e-07
0.000279386
9.85364e-07
-4.50044e-07
0.000279656
1.05407e-06
-7.52986e-07
0.000279806
9.35005e-07
-6.45769e-07
0.000280024
1.15581e-06
-7.07117e-07
0.000280167
8.45072e-07
-7.5492e-07
0.00028032
1.15272e-06
-6.66896e-07
0.000280499
8.79812e-07
-8.34343e-07
0.000280578
1.16565e-06
-7.35335e-07
0.000280755
1.14217e-06
-8.45115e-07
0.000280786
9.32907e-07
-6.82215e-07
0.000280857
1.03456e-06
-7.02485e-07
0.000280863
8.74805e-07
-6.42622e-07
0.00028086
9.82537e-07
-6.73858e-07
0.000280849
1.02974e-06
-4.56886e-07
0.000280824
8.59204e-07
-5.90008e-07
0.000280746
8.82013e-07
-2.70571e-07
0.000280702
7.76936e-07
-4.45068e-07
0.000280555
7.30186e-07
-1.5513e-07
0.000280473
7.62417e-07
-2.98352e-07
0.0002803
8.92006e-07
-5.82604e-08
0.00028017
5.35938e-07
-7.23211e-08
0.000279995
7.48881e-07
-4.8808e-08
0.000279773
5.97256e-07
7.51486e-08
0.000279649
7.16173e-07
2.65708e-08
0.000279391
6.3392e-07
5.20965e-08
0.000279233
8.57922e-07
1.56775e-07
0.000278996
4.8279e-07
-5.27542e-10
0.000278787
7.69019e-07
1.46703e-07
0.000278645
6.3743e-07
7.16681e-08
0.000278532
8.63223e-07
4.33865e-09
0.000278449
7.89801e-07
-3.31437e-08
0.000278373
8.69222e-07
-9.51596e-08
0.000278324
7.0426e-07
-1.33641e-07
8.83813e-07
-1.01936e-07
0.00035196
9.09835e-07
-1.05078e-08
0.000351992
1.13479e-06
1.49772e-07
0.000352076
7.93998e-07
-9.83641e-08
0.000352091
1.48967e-06
-4.17178e-07
0.000352202
1.09988e-06
-2.49593e-07
0.000352344
1.12221e-06
-4.85699e-07
0.000352493
1.02007e-06
-1.48365e-07
0.000352814
1.07747e-06
-4.82317e-07
0.00035305
1.24192e-06
-6.60446e-07
0.000353296
1.44037e-06
-6.73534e-07
0.000353519
1.10227e-06
-7.95455e-07
0.000353699
1.18082e-06
-4.88851e-07
0.000354027
1.00349e-06
-8.16581e-07
0.000354183
1.47222e-06
-7.83845e-07
0.000354533
1.49192e-06
-1.04791e-06
0.000354639
1.27892e-06
-8.49807e-07
0.000354839
1.22093e-06
-8.13696e-07
0.000354959
1.08012e-06
-7.41921e-07
0.000355065
1.36554e-06
-9.97016e-07
0.000355161
1.46427e-06
-7.14781e-07
0.000355257
1.19522e-06
-8.81993e-07
0.000355248
1.15815e-06
-4.58739e-07
0.000355311
1.00431e-06
-6.37232e-07
0.000355264
1.10734e-06
-4.48457e-07
0.00035524
1.12901e-06
-5.22731e-07
0.000355181
1.29982e-06
-3.59796e-07
0.000355051
7.44666e-07
-1.23667e-07
0.000354951
1.06563e-06
-2.42324e-07
0.000354686
9.78922e-07
-1.01136e-07
0.000354606
1.03803e-06
-7.06816e-08
0.000354328
9.38364e-07
-3.98822e-08
0.00035414
1.11466e-06
2.15501e-07
0.000353853
7.13282e-07
1.805e-08
0.000353479
1.19828e-06
5.76558e-08
0.000353181
9.14674e-07
1.52266e-07
0.000352919
1.0717e-06
1.60316e-07
0.000352713
9.02836e-07
2.32982e-07
0.000352525
1.08501e-06
8.57408e-08
0.000352269
1.04003e-06
-7.35117e-08
1.13156e-06
5.16997e-08
0.00043324
1.46683e-06
-1.26398e-07
0.00043295
1.38829e-06
3.45056e-07
0.000432873
5.24112e-07
6.08191e-07
0.000432762
1.6212e-06
-5.06886e-08
0.000432746
1.61997e-06
-2.19472e-07
0.00043263
1.76059e-06
-5.81369e-07
0.000432565
1.30017e-06
1.69803e-08
0.000432685
8.37671e-07
1.90067e-07
0.000432958
1.3159e-06
-3.06996e-07
0.00043317
1.86454e-06
-5.60836e-07
0.000433386
1.80513e-06
-1.02502e-06
0.000433431
1.41211e-06
-3.01744e-07
0.000433804
7.92649e-07
-3.85406e-07
0.000433992
1.53737e-06
-4.64105e-07
0.000434501
1.86611e-06
-1.09565e-06
0.000434698
1.93286e-06
-1.10696e-06
0.000434948
1.48834e-06
-8.83712e-07
0.000435184
1.06141e-06
-5.27083e-07
0.000435418
1.50518e-06
-1.00429e-06
0.00043566
2.06636e-06
-1.04744e-06
0.000435879
1.84004e-06
-1.28507e-06
0.000435998
1.51618e-06
-7.13489e-07
0.000436126
1.03386e-06
-5.91852e-07
0.000436276
1.30723e-06
-6.59649e-07
0.000436327
1.65808e-06
-8.19332e-07
0.000436485
1.96719e-06
-9.1136e-07
0.000436437
1.05478e-06
-2.64958e-07
0.000436526
1.10163e-06
-2.09882e-07
0.000436372
1.23895e-06
-3.16504e-07
0.00043638
1.6441e-06
-4.40652e-07
0.000436213
1.54222e-06
-4.7184e-07
0.00043611
1.43899e-06
1.26883e-07
0.000435965
6.89755e-07
2.205e-07
0.000435671
1.53561e-06
-7.14233e-08
0.000435304
1.55716e-06
-1.87991e-07
0.000434918
1.73868e-06
-1.22009e-07
0.000434542
1.122e-06
3.75374e-07
0.000434332
1.01451e-06
5.2004e-07
0.000433961
1.27632e-06
6.48434e-08
1.73999e-06
-1.0856e-07
0.000520621
2.55784e-06
-7.67323e-07
0.000520013
2.64623e-06
-4.03686e-07
0.000519652
6.40285e-07
9.40126e-07
0.000519299
1.003e-06
9.73486e-07
0.000519333
1.51639e-06
2.74598e-07
0.000519058
2.82632e-06
-9.3117e-07
0.000518739
2.6382e-06
-6.54825e-07
0.000518383
9.92089e-07
6.28303e-07
0.00051843
7.73279e-07
6.38757e-07
0.000518546
1.7292e-06
1.30312e-07
0.000518763
2.8698e-06
-1.36638e-06
0.000518565
2.76791e-06
-8.34429e-07
0.000518681
9.33056e-07
-2.37947e-09
0.000518743
1.0168e-06
4.96403e-07
0.000519248
1.62111e-06
-4.65271e-07
0.000519551
2.91401e-06
-1.41195e-06
0.000519721
2.58108e-06
-1.33932e-06
0.000519948
1.26654e-06
-2.95921e-07
0.000520203
9.77543e-07
-2.20289e-07
0.000520651
2.07778e-06
-8.54289e-07
0.000520949
2.92995e-06
-1.83368e-06
0.000521178
2.68827e-06
-1.47211e-06
0.000521247
1.32017e-06
-4.77546e-07
0.00052156
8.56884e-07
-2.49287e-07
0.000521742
1.67152e-06
-6.85823e-07
0.000522094
3.02797e-06
-1.70697e-06
0.000522107
2.25165e-06
-1.10336e-06
0.000522263
1.33788e-06
-8.60651e-08
0.000522308
7.20736e-07
1.6449e-07
0.000522549
1.74722e-06
-4.60818e-07
0.00052258
2.62946e-06
-1.32908e-06
0.000522573
2.66723e-06
-7.48975e-07
0.000522511
7.8466e-07
4.11162e-07
0.00052253
1.0552e-06
5.04894e-07
0.000522469
1.64519e-06
-2.4098e-07
0.000522292
2.94785e-06
-1.07441e-06
0.000521831
2.36495e-06
-4.92408e-07
0.000521528
1.13467e-06
7.33858e-07
0.000521213
7.51871e-07
8.31306e-07
1.85684e-06
1.47355e-08
0.000610896
2.59433e-06
-8.15352e-07
0.000610466
4.55102e-06
-1.9482e-06
0.00061002
2.44324e-06
-2.29355e-07
0.00060924
9.00197e-07
1.77637e-06
0.000609216
1.04048e-07
1.81165e-06
0.000609147
2.69759e-06
-5.82414e-07
0.000608995
4.54351e-06
-2.00638e-06
0.000608338
2.8166e-06
-2.73354e-07
0.000607888
7.00051e-07
1.44085e-06
0.00060773
4.26789e-07
1.74767e-06
0.000608
2.72612e-06
-9.18394e-07
0.000607851
4.83344e-06
-2.0897e-06
0.00060755
2.83767e-06
-7.76875e-07
0.000607211
1.0599e-06
1.39929e-06
0.000607435
1.92756e-07
1.34773e-06
0.000607885
2.78125e-06
-9.81494e-07
0.000607992
4.3341e-06
-2.28907e-06
0.000608009
2.9794e-06
-9.93897e-07
0.000607888
9.0079e-07
8.2992e-07
0.000608385
7.40353e-07
7.0715e-07
0.000608922
2.92324e-06
-1.59743e-06
0.000609367
4.47942e-06
-2.80837e-06
0.000609281
3.15352e-06
-1.31598e-06
0.00060935
8.76073e-07
4.54792e-07
0.000609524
4.41203e-07
7.2891e-07
0.000610192
2.98513e-06
-1.64114e-06
0.000610473
4.06415e-06
-2.72072e-06
0.000610557
3.22506e-06
-1.10642e-06
0.000610367
5.85367e-07
9.48616e-07
0.000610652
5.18059e-07
9.44072e-07
0.000611053
2.62088e-06
-1.37974e-06
0.000611385
4.61688e-06
-2.44852e-06
0.00061125
2.54084e-06
-6.37205e-07
0.000611151
8.65486e-07
1.32545e-06
0.000611324
3.07803e-07
1.18449e-06
0.0006117
2.98038e-06
-1.22858e-06
0.000611743
4.30448e-06
-2.25575e-06
0.000611389
2.85034e-06
-4.59358e-07
0.000611012
5.28357e-07
1.56321e-06
6.50538e-07
1.28682e-06
0.000701045
1.03942e-06
8.88628e-07
0.000701245
4.88011e-06
-2.81678e-06
0.000701377
4.60984e-06
-2.62815e-06
0.000700433
2.66086e-06
1.02891e-06
0.000699783
-5.71498e-07
3.74545e-06
0.00069969
1.05517e-06
1.4187e-06
0.000700169
4.73851e-06
-2.68346e-06
0.000700047
5.0379e-06
-2.45557e-06
0.000699314
2.36453e-06
8.92102e-07
0.000698553
-2.15148e-07
3.66107e-06
0.000698557
1.04896e-06
1.15339e-06
0.000698961
5.15246e-06
-2.78803e-06
0.000698888
5.20167e-06
-2.87136e-06
0.000698183
2.96801e-06
8.56228e-07
0.000697611
-4.27144e-07
3.58005e-06
0.000697891
1.18365e-06
1.12826e-06
0.00069829
4.56861e-06
-2.6755e-06
0.00069851
5.09474e-06
-2.834e-06
0.000697906
2.61983e-06
6.25591e-07
0.000697661
6.38468e-08
2.9783e-06
0.000698062
1.41006e-06
5.41912e-07
0.000698976
4.71791e-06
-3.40444e-06
0.000699299
5.32753e-06
-3.31786e-06
0.000699105
2.6352e-06
-3.36653e-08
0.000698585
-1.05784e-07
2.77457e-06
0.00069904
1.52658e-06
4.92666e-07
0.000699823
4.27487e-06
-3.49201e-06
0.000700431
5.55688e-06
-3.46148e-06
0.000700062
2.2412e-06
4.08994e-07
0.000699685
-8.91777e-08
2.98529e-06
0.000699915
1.06263e-06
6.80184e-07
0.000700786
5.00954e-06
-3.34836e-06
0.00070114
4.91162e-06
-3.03062e-06
0.00070073
2.5356e-06
7.87827e-07
0.000700396
-3.89735e-07
3.29536e-06
0.000700729
1.37428e-06
7.53108e-07
0.000701627
4.69505e-06
-3.19647e-06
0.00070183
5.08634e-06
-2.8965e-06
0.000701452
2.04253e-06
9.45347e-07
-4.30965e-08
3.12106e-06
0.000790785
1.6662e-07
3.57104e-06
0.000791025
3.91984e-06
-1.4937e-06
0.000791932
4.86473e-06
-4.22829e-06
0.000791791
4.11628e-06
-1.3582e-06
0.000790816
2.47742e-07
4.18563e-06
0.000789977
3.72584e-07
4.15105e-06
0.000790373
3.78449e-06
-1.24794e-06
0.000791142
5.33118e-06
-3.94536e-06
0.00079108
3.705e-06
-1.17186e-06
0.000790145
4.96432e-07
4.14642e-06
0.000789317
1.96899e-07
4.02396e-06
0.000789699
4.12998e-06
-1.35557e-06
0.000790372
5.50045e-06
-4.36176e-06
0.000790247
4.53789e-06
-1.4014e-06
0.000789252
4.38145e-07
4.16845e-06
0.000788728
4.08222e-07
4.04656e-06
0.000788958
3.62079e-06
-1.09976e-06
0.000789729
5.36097e-06
-4.14467e-06
0.000789579
4.04745e-06
-1.2377e-06
0.000788757
8.78932e-07
3.81456e-06
0.000788246
6.90019e-07
3.61316e-06
0.000788915
3.74261e-06
-1.77111e-06
0.000789825
5.63213e-06
-4.59975e-06
0.000790197
4.0263e-06
-1.92855e-06
0.000789351
6.77663e-07
3.37452e-06
0.000788872
8.97118e-07
3.54485e-06
0.000789314
3.29334e-06
-1.78099e-06
0.000790501
6.02391e-06
-5.0365e-06
0.000790837
3.67033e-06
-1.71272e-06
0.000790144
7.104e-07
3.59206e-06
0.000789535
3.013e-07
3.62138e-06
0.000790125
4.08333e-06
-1.82424e-06
0.000791174
5.47278e-06
-4.64786e-06
0.000791229
4.14164e-06
-1.43754e-06
0.000790511
4.57525e-07
3.96162e-06
0.000789949
5.28561e-07
3.72293e-06
0.000790794
3.7581e-06
-1.67424e-06
0.00079175
5.49019e-06
-4.46615e-06
0.000792001
3.36588e-06
-1.12457e-06
7.0289e-07
3.69942e-06
0.000882058
3.28069e-07
4.84515e-06
0.000881795
3.33254e-06
9.34081e-07
0.000882565
3.93058e-06
-3.41652e-06
0.000883153
3.73537e-06
-2.8708e-06
0.000882783
6.31933e-07
2.75806e-06
0.000881761
7.03292e-07
5.28591e-06
0.000881475
3.32701e-06
1.17303e-06
0.000882194
4.43601e-06
-3.14968e-06
0.000882762
3.33515e-06
-2.59517e-06
0.000882478
7.39447e-07
2.86947e-06
0.000881473
3.90432e-07
5.20576e-06
0.000881259
3.56867e-06
1.10334e-06
0.000881912
4.52648e-06
-3.50485e-06
0.000882438
4.21317e-06
-2.91255e-06
0.000881974
8.68763e-07
2.78949e-06
0.000881198
6.34069e-07
5.27114e-06
0.000880858
3.14127e-06
1.36439e-06
0.000881482
4.4575e-06
-3.29112e-06
0.00088193
3.68948e-06
-2.56099e-06
0.000881511
1.28212e-06
2.6973e-06
0.000880626
1.02622e-06
5.05043e-06
0.000880557
3.19954e-06
8.31937e-07
0.000881227
4.74483e-06
-3.5937e-06
0.000882034
3.69151e-06
-3.11113e-06
0.000881737
9.92306e-07
2.21161e-06
0.000880985
1.19749e-06
4.8655e-06
0.000880674
2.77529e-06
9.85761e-07
0.000881479
5.23547e-06
-4.06072e-06
0.000882323
3.37085e-06
-3.09848e-06
0.000882152
1.10463e-06
2.41787e-06
0.000881326
5.74002e-07
4.96595e-06
0.000881169
3.47548e-06
8.2299e-07
0.000882025
4.71532e-06
-3.76865e-06
0.000882581
3.99452e-06
-2.91427e-06
0.000882276
1.04935e-06
2.73725e-06
0.000881359
7.86185e-07
5.0751e-06
0.00088146
3.17013e-06
9.51599e-07
0.000882279
4.66761e-06
-3.64144e-06
0.00088302
3.00959e-06
-2.48323e-06
1.12573e-06
2.6049e-06
0.000976668
4.56764e-07
4.15326e-06
0.000976301
3.0248e-06
2.20244e-06
0.000976483
2.91026e-06
-1.52058e-06
0.000976925
2.51206e-06
-2.4636e-06
0.000977069
1.74503e-07
1.29206e-06
0.000976658
8.47782e-07
4.37702e-06
0.000976208
3.13558e-06
2.34568e-06
0.00097637
3.4108e-06
-1.29172e-06
0.000976759
2.23147e-06
-2.31291e-06
0.000976956
2.32493e-07
1.41336e-06
0.000976542
4.48787e-07
4.36552e-06
0.000976189
3.26097e-06
2.3593e-06
0.00097634
3.42876e-06
-1.52619e-06
0.000976745
3.01799e-06
-2.52418e-06
0.000976783
4.68163e-07
1.2917e-06
0.000976487
7.43352e-07
4.3536e-06
0.000976054
2.91914e-06
2.55218e-06
0.000976167
3.42022e-06
-1.42732e-06
0.000976507
2.5292e-06
-2.19218e-06
0.000976589
8.49567e-07
1.31881e-06
0.000976149
1.23485e-06
4.34512e-06
0.000975856
2.91007e-06
2.17974e-06
0.000975955
3.68899e-06
-1.56383e-06
0.00097643
2.5558e-06
-2.50938e-06
0.000976573
5.48893e-07
9.75073e-07
0.000976309
1.34341e-06
4.09165e-06
0.000975879
2.51911e-06
2.39505e-06
0.000975999
4.21005e-06
-1.8824e-06
0.000976508
2.26324e-06
-2.63074e-06
0.000976737
6.99132e-07
1.07812e-06
0.00097642
7.65049e-07
4.20714e-06
0.000976081
3.08684e-06
2.22071e-06
0.000976305
3.69059e-06
-1.68352e-06
0.000976674
2.88488e-06
-2.50429e-06
0.000976776
8.099e-07
1.33577e-06
0.000976316
9.67576e-07
4.28409e-06
0.000976131
2.8629e-06
2.30751e-06
0.000976339
3.62928e-06
-1.67646e-06
0.000976822
1.86028e-06
-2.12556e-06
7.88045e-07
1.31605e-06
0.00107677
3.65379e-07
2.6833e-06
0.00107666
2.49803e-06
1.99804e-06
0.00107654
1.95356e-06
-2.35953e-07
0.00107656
1.49171e-06
-1.3022e-06
0.0010767
-2.63977e-07
5.98469e-07
0.00107683
6.76673e-07
2.78323e-06
0.00107667
2.63686e-06
2.03461e-06
0.00107655
2.39988e-06
-6.21842e-08
0.00107652
1.29649e-06
-1.29662e-06
0.00107668
-2.38836e-07
6.64195e-07
0.00107678
2.81494e-07
2.73933e-06
0.00107669
2.67766e-06
2.07193e-06
0.00107657
2.33613e-06
-1.39259e-07
0.00107659
1.94073e-06
-1.33316e-06
0.00107667
2.28862e-08
5.93927e-07
0.00107681
5.87661e-07
2.70278e-06
0.00107665
2.43249e-06
2.22215e-06
0.00107652
2.37506e-06
-1.85598e-07
0.00107649
1.53279e-06
-1.06658e-06
0.00107666
3.27869e-07
6.29773e-07
0.00107669
1.11883e-06
2.81997e-06
0.0010766
2.34866e-06
1.96652e-06
0.00107645
2.63875e-06
-1.95751e-07
0.00107644
1.52465e-06
-1.21131e-06
0.00107657
1.12725e-07
4.79254e-07
0.00107673
1.18904e-06
2.58153e-06
0.00107661
2.00004e-06
2.15686e-06
0.00107645
3.11078e-06
-3.54926e-07
0.00107644
1.26134e-06
-1.35191e-06
0.00107663
2.37994e-07
4.66814e-07
0.00107674
6.70491e-07
2.69028e-06
0.00107665
2.46751e-06
2.01015e-06
0.00107655
2.61766e-06
-2.16182e-07
0.00107652
1.82917e-06
-1.32336e-06
0.00107664
4.27309e-07
6.59077e-07
0.00107666
8.41569e-07
2.70463e-06
0.00107664
2.32556e-06
2.0833e-06
0.00107651
2.59387e-06
-3.09929e-07
0.00107654
8.9063e-07
-1.04201e-06
3.60634e-07
7.20767e-07
0.00118494
2.63138e-07
1.45589e-06
0.00118501
1.86691e-06
1.23313e-06
0.0011849
1.07421e-06
1.85092e-07
0.00118474
8.30652e-07
-4.13675e-07
0.00118471
-3.64499e-07
3.99093e-07
0.00118498
4.78786e-07
1.50492e-06
0.00118504
1.98254e-06
1.16822e-06
0.00118494
1.41797e-06
3.17898e-07
0.00118474
6.79172e-07
-5.41105e-07
0.00118474
-3.77082e-07
3.86827e-07
0.00118494
1.49525e-07
1.43691e-06
0.00118504
1.96706e-06
1.22173e-06
0.00118493
1.32653e-06
3.00575e-07
0.00118479
1.19723e-06
-4.53893e-07
0.00118476
-1.5707e-07
4.00213e-07
0.00118499
4.28708e-07
1.38579e-06
0.00118502
1.80689e-06
1.3455e-06
0.00118493
1.37878e-06
2.01562e-07
0.00118472
8.89806e-07
-2.28493e-07
0.0011848
6.38303e-08
4.1337e-07
0.00118497
9.43222e-07
1.54265e-06
0.00118505
1.63043e-06
1.15804e-06
0.00118491
1.66804e-06
2.38551e-07
0.00118473
8.08118e-07
-2.95416e-07
0.00118473
-4.85184e-08
3.96392e-07
0.00118497
1.00844e-06
1.37503e-06
0.00118505
1.34833e-06
1.31138e-06
0.00118494
2.05139e-06
1.71905e-07
0.00118472
5.67496e-07
-4.12609e-07
0.00118475
4.24097e-08
3.05826e-07
0.00118496
5.49491e-07
1.45596e-06
0.00118504
1.7288e-06
1.17955e-06
0.00118493
1.59946e-06
2.79201e-07
0.00118474
1.07201e-06
-4.52578e-07
0.00118477
2.36981e-07
4.50187e-07
0.00118492
6.70722e-07
1.41234e-06
0.00118505
1.65404e-06
1.26873e-06
0.00118491
1.61145e-06
1.60243e-07
0.00118474
2.9761e-07
-2.59208e-07
1.67605e-07
5.36432e-07
0.00130339
1.75383e-07
7.39691e-07
0.00130349
1.33123e-06
6.41277e-07
0.00130345
4.19638e-07
1.78032e-07
0.0013033
4.33499e-07
-3.95187e-08
0.00130318
-3.00184e-07
2.96991e-07
0.00130341
3.37193e-07
7.74419e-07
0.00130351
1.41983e-06
5.04952e-07
0.00130349
6.56082e-07
2.82368e-07
0.00130331
3.00134e-07
-2.24313e-07
0.00130323
-3.46126e-07
2.58344e-07
0.00130337
7.73731e-08
6.96201e-07
0.00130349
1.37261e-06
5.72127e-07
0.00130345
5.55026e-07
2.89298e-07
0.00130333
7.16531e-07
-9.50113e-08
0.00130323
-1.99069e-07
3.07099e-07
0.00130341
3.10809e-07
6.47467e-07
0.00130348
1.26376e-06
6.85427e-07
0.00130346
6.01442e-07
1.8359e-07
0.00130326
5.00378e-07
1.23267e-07
0.00130326
-5.76565e-08
3.10072e-07
0.00130341
7.80189e-07
8.02656e-07
0.00130352
1.02119e-06
5.36209e-07
0.00130345
9.35198e-07
2.40667e-07
0.00130328
3.51374e-07
7.10827e-08
0.00130323
-8.84902e-08
3.45902e-07
0.00130341
8.60706e-07
7.0307e-07
0.00130351
7.94639e-07
6.52786e-07
0.00130349
1.22858e-06
2.10431e-07
0.00130328
1.39896e-07
-2.68593e-08
0.00130324
-2.14142e-08
2.31381e-07
0.00130339
4.55621e-07
7.59847e-07
0.00130349
1.1273e-06
5.32472e-07
0.00130345
8.22965e-07
2.98035e-07
0.00130327
5.78827e-07
-1.05068e-07
0.00130326
1.54248e-07
3.51296e-07
0.00130338
5.32404e-07
6.64518e-07
0.00130353
1.08538e-06
6.33787e-07
0.00130346
8.65161e-07
1.67146e-07
0.00130329
-3.72733e-08
6.65353e-08
1.05882e-07
4.24196e-07
0.00143366
8.44068e-08
3.77636e-07
0.00143374
9.60628e-07
3.36497e-07
0.00143373
1.65996e-08
1.00107e-07
0.00143364
1.9088e-07
5.37859e-08
0.0014335
-2.17599e-07
1.8234e-07
0.00143367
2.03189e-07
4.2261e-07
0.00143376
1.03261e-06
1.7017e-07
0.00143378
1.62411e-07
1.93052e-07
0.00143364
8.46452e-08
-1.46776e-07
0.00143355
-2.89097e-07
1.55916e-07
0.00143363
1.86286e-08
3.45481e-07
0.00143374
9.66814e-07
2.49516e-07
0.00143372
5.68927e-08
1.96928e-07
0.00143365
4.16293e-07
-1.60892e-08
0.00143353
-2.10371e-07
2.07585e-07
0.00143367
1.99528e-07
3.027e-07
0.00143372
8.92455e-07
3.49389e-07
0.00143374
9.60014e-08
1.01022e-07
0.00143357
2.7908e-07
1.74532e-07
0.00143355
-1.40519e-07
2.05612e-07
0.00143366
6.22559e-07
4.36686e-07
0.00143375
6.02788e-07
2.27797e-07
0.00143372
4.66073e-07
1.53972e-07
0.0014336
8.21218e-08
1.40241e-07
0.00143353
-1.15768e-07
2.41443e-07
0.00143367
7.12391e-07
3.93219e-07
0.00143375
4.2341e-07
3.10616e-07
0.00143377
6.84154e-07
1.56732e-07
0.0014336
-9.66011e-08
5.72169e-08
0.00143355
-6.33397e-08
1.40965e-07
0.00143365
3.62861e-07
4.28404e-07
0.00143373
7.22052e-07
2.03654e-07
0.00143372
3.32015e-07
2.27082e-07
0.00143359
2.71931e-07
-4.23563e-08
0.00143358
8.83099e-08
2.5457e-07
0.00143365
4.09415e-07
3.0033e-07
0.00143378
6.99147e-07
3.18057e-07
0.00143374
3.92069e-07
9.83601e-08
0.00143362
-2.08122e-07
1.09108e-07
7.32225e-08
3.01144e-07
0.00157701
-6.91546e-09
1.88969e-07
0.00157707
7.16738e-07
1.96728e-07
0.00157706
-1.97721e-07
3.20735e-08
0.001577
5.87008e-08
4.11214e-08
0.00157687
-1.41592e-07
7.74756e-08
0.00157702
7.53057e-08
2.50455e-07
0.00157709
7.74138e-07
2.0877e-08
0.0015771
-1.17424e-07
1.23336e-07
0.00157699
-1.52906e-08
-1.45523e-07
0.00157692
-2.38396e-07
7.70698e-08
0.00157698
-4.41176e-08
1.80795e-07
0.00157707
7.03796e-07
1.02389e-07
0.00157704
-2.21646e-07
1.1957e-07
0.00157701
2.3888e-07
-2.60569e-08
0.00157689
-2.01115e-07
1.17962e-07
0.00157701
8.81416e-08
1.43864e-07
0.00157705
6.60583e-07
1.93016e-07
0.00157706
-1.94382e-07
3.74084e-08
0.00157694
1.72932e-07
1.32951e-07
0.00157691
-1.94228e-07
1.10912e-07
0.00157701
4.7498e-07
2.50545e-07
0.00157707
3.40019e-07
9.43173e-08
0.00157705
1.9618e-07
7.70371e-08
0.00157696
-5.06659e-08
1.11772e-07
0.00157689
-1.35145e-07
1.27058e-07
0.00157702
5.67529e-07
2.53931e-07
0.00157706
1.9964e-07
1.39714e-07
0.0015771
3.56611e-07
1.07304e-07
0.00157695
-1.85091e-07
2.9403e-08
0.00157692
-9.6317e-08
5.98558e-08
0.001577
2.72221e-07
2.67968e-07
0.00157705
4.58422e-07
4.99181e-08
0.00157705
5.42956e-08
1.68797e-07
0.00157694
1.06461e-07
-7.25044e-08
0.00157694
3.25929e-08
1.77614e-07
0.00157699
3.00627e-07
1.22521e-07
0.00157711
4.50394e-07
1.82607e-07
0.00157706
1.27075e-07
3.65899e-08
0.00157698
-2.71915e-07
6.5596e-08
5.92193e-08
1.92702e-07
0.0017347
-9.15651e-08
7.60956e-08
0.00173475
5.59873e-07
1.2797e-07
0.00173473
-2.85856e-07
-2.6389e-08
0.0017347
-1.86115e-09
1.93422e-08
0.00173459
-6.50176e-08
-3.5736e-09
0.00173471
-3.69134e-08
1.56231e-07
0.00173477
6.09849e-07
-6.02542e-08
0.00173478
-2.56601e-07
7.3752e-08
0.00173469
-3.95239e-08
-1.49684e-07
0.00173463
-1.92912e-07
2.20661e-08
0.00173468
-9.92691e-08
9.52565e-08
0.00173477
5.29163e-07
2.87053e-08
0.00173471
-3.45834e-07
6.17984e-08
0.00173471
1.36858e-07
-4.32726e-08
0.00173459
-1.66321e-07
5.30646e-08
0.00173471
-1.5742e-08
6.24858e-08
0.00173473
5.19408e-07
1.09343e-07
0.00173474
-3.37924e-07
-5.16881e-09
0.00173464
1.35686e-07
8.48591e-08