/*--------------------------------*- C++ -*----------------------------------*\
  =========                 |
  \\      /  F ield         | OpenFOAM: The Open Source CFD Toolbox
   \\    /   O peration     | Website:  https://openfoam.org
    \\  /    A nd           | Version:  10
     \\/     M anipulation  |
\*---------------------------------------------------------------------------*/
FoamFile
{
    format      ascii;
    class       volVectorField;
    location    "20";
    object      UMean;
}
// * * * * * * * * * * * * * * * * * * * * * * * * * * * * * * * * * * * * * //

dimensions      [0 1 -1 0 0 0 0];

internalField   nonuniform List<vector> 
25600
(
(0.0869212 2.58836e-06 -0.00035998)
(0.0860126 4.29178e-06 -0.000230279)
(0.0867303 2.5871e-06 -0.000178391)
(0.0858421 2.82749e-06 -0.000200397)
(0.0867155 9.34599e-07 -0.000418087)
(0.0859216 7.38965e-07 -0.000358635)
(0.0867321 4.22388e-06 -0.000317822)
(0.0858606 4.22496e-06 -0.000140515)
(0.0866025 3.93588e-06 -0.000270465)
(0.0858156 1.81383e-06 -0.000329864)
(0.0866314 2.33805e-06 -0.000431557)
(0.0858521 3.59618e-06 -0.000199114)
(0.0866247 5.65573e-06 -0.000178614)
(0.0857723 1.80859e-06 -0.000142276)
(0.0866845 9.94905e-07 -0.000411256)
(0.0858312 2.75369e-06 -0.000329196)
(0.0866878 3.42311e-06 -0.000346089)
(0.0857921 3.06422e-06 -7.8901e-05)
(0.0867133 1.49898e-06 -0.000301351)
(0.085886 7.48456e-07 -0.000310114)
(0.0868325 2.66487e-06 -0.000463809)
(0.0859384 4.97177e-06 -0.00023197)
(0.0868549 4.2585e-06 -0.000195816)
(0.085947 2.08665e-06 -0.000165752)
(0.0869049 -3.66486e-06 -0.000359722)
(0.0862037 7.58286e-07 -0.000313622)
(0.0870683 1.52308e-06 -0.00022333)
(0.086155 1.80958e-06 -9.96298e-05)
(0.0870768 1.72938e-07 -0.000194674)
(0.0860969 2.01468e-07 -0.000252857)
(0.0871885 -3.90148e-06 -0.000384631)
(0.0861772 3.48302e-06 -0.000147197)
(0.0872 5.91764e-06 -0.000125624)
(0.086052 4.07444e-06 -0.000139929)
(0.0871392 6.96356e-07 -0.000329813)
(0.086085 4.20263e-06 -0.000333697)
(0.0871133 2.07527e-06 -0.000244996)
(0.0859886 3.22755e-06 -0.000108055)
(0.0869486 2.16629e-07 -0.000210497)
(0.0860144 -9.04133e-07 -0.000333146)
(0.243661 5.10304e-05 -0.00106706)
(0.24094 7.35666e-05 -0.000883683)
(0.24328 7.45875e-05 -0.000855212)
(0.240599 6.93038e-05 -0.00084362)
(0.243195 5.62792e-05 -0.00129441)
(0.240624 5.35024e-05 -0.00104422)
(0.243213 5.83251e-05 -0.00107822)
(0.240567 7.64528e-05 -0.000658156)
(0.242994 6.89947e-05 -0.00102592)
(0.240426 6.50397e-05 -0.000987211)
(0.242909 5.53592e-05 -0.001283)
(0.240471 6.28756e-05 -0.00075586)
(0.242933 5.92188e-05 -0.00085441)
(0.240372 6.5722e-05 -0.000697372)
(0.242999 6.07348e-05 -0.00124737)
(0.240369 6.31682e-05 -0.000934786)
(0.243067 5.32092e-05 -0.0011089)
(0.240366 6.02927e-05 -0.000539475)
(0.243139 4.93696e-05 -0.00107657)
(0.240503 5.16014e-05 -0.000897451)
(0.243338 3.94149e-05 -0.00135571)
(0.240675 5.17559e-05 -0.000743593)
(0.243547 5.05729e-05 -0.000927445)
(0.240785 5.54114e-05 -0.000663326)
(0.243614 2.87547e-05 -0.00110327)
(0.241171 3.14276e-05 -0.000909886)
(0.244062 4.36492e-05 -0.00093037)
(0.241292 4.69273e-05 -0.000614539)
(0.2442 5.00086e-05 -0.000838592)
(0.241213 4.39038e-05 -0.000868441)
(0.244425 3.5627e-05 -0.00116712)
(0.241316 5.10748e-05 -0.000744948)
(0.244484 4.62284e-05 -0.000827182)
(0.241145 6.65224e-05 -0.000697962)
(0.244365 4.42331e-05 -0.00112206)
(0.24113 6.18565e-05 -0.00101673)
(0.2443 5.03865e-05 -0.000906589)
(0.241053 7.88808e-05 -0.000659355)
(0.243913 5.57125e-05 -0.000843149)
(0.240931 7.36798e-05 -0.00101534)
(0.386585 0.000186265 -0.00239574)
(0.381918 0.000252245 -0.00175843)
(0.38627 0.000218612 -0.00186209)
(0.381662 0.000238868 -0.00168492)
(0.386045 0.000203545 -0.00236472)
(0.381578 0.00022107 -0.00195797)
(0.38587 0.000201527 -0.00209536)
(0.381421 0.000245593 -0.00144143)
(0.385756 0.000217669 -0.00204038)
(0.381341 0.000239027 -0.00203928)
(0.385661 0.000205857 -0.00244064)
(0.381363 0.000226779 -0.00158433)
(0.385584 0.000213663 -0.00185285)
(0.38125 0.000225778 -0.00153066)
(0.385554 0.000207095 -0.00241395)
(0.381191 0.000218604 -0.00187357)
(0.385638 0.000189977 -0.00210942)
(0.381125 0.000204127 -0.00131678)
(0.385815 0.000182108 -0.00210371)
(0.38121 0.000195184 -0.00196361)
(0.386094 0.00018187 -0.00246142)
(0.381291 0.000188127 -0.00159294)
(0.386316 0.000184781 -0.0019641)
(0.381536 0.000193611 -0.00146625)
(0.386545 0.000147527 -0.00231417)
(0.381816 0.000164818 -0.0019342)
(0.387018 0.000162497 -0.0019836)
(0.382097 0.000185095 -0.00129151)
(0.387103 0.000174285 -0.00203806)
(0.382376 0.000186013 -0.00195483)
(0.387347 0.000157441 -0.00248009)
(0.382522 0.000196955 -0.0016482)
(0.387407 0.000187138 -0.00190503)
(0.382371 0.000219307 -0.00159732)
(0.387317 0.000180873 -0.002419)
(0.382347 0.000221571 -0.00193865)
(0.387352 0.00018767 -0.00207356)
(0.382152 0.000255972 -0.0014617)
(0.387007 0.000191065 -0.00211619)
(0.382112 0.00024773 -0.00211149)
(0.512909 0.000458731 -0.00367382)
(0.506558 0.000574106 -0.00287888)
(0.512585 0.000491003 -0.00297045)
(0.506328 0.000573055 -0.00271534)
(0.512424 0.000475043 -0.00351641)
(0.506272 0.000546394 -0.00309483)
(0.512246 0.000482075 -0.00311402)
(0.506055 0.000555028 -0.00227455)
(0.512139 0.000486562 -0.00310322)
(0.506023 0.000545496 -0.00316194)
(0.512052 0.000473026 -0.00361192)
(0.505959 0.00054348 -0.00259491)
(0.511825 0.000498035 -0.00296683)
(0.50583 0.000542999 -0.00255308)
(0.511745 0.000491147 -0.00367035)
(0.505799 0.000520345 -0.00299379)
(0.511746 0.000466222 -0.00331827)
(0.505602 0.000507271 -0.00229248)
(0.511803 0.000448994 -0.00327611)
(0.5056 0.000476639 -0.00298885)
(0.511874 0.000434325 -0.00368372)
(0.50564 0.000470441 -0.00251096)
(0.512009 0.000438498 -0.00293544)
(0.505914 0.000479768 -0.00242495)
(0.51229 0.000417322 -0.00363881)
(0.506204 0.000446167 -0.00287759)
(0.512614 0.000422101 -0.00332278)
(0.506353 0.000457701 -0.00225334)
(0.512931 0.000433861 -0.00340231)
(0.506827 0.000486488 -0.00313165)
(0.513091 0.00043358 -0.0039131)
(0.506853 0.000494628 -0.00279694)
(0.513167 0.000462403 -0.00311031)
(0.506886 0.000515455 -0.00279757)
(0.513275 0.000452759 -0.00390554)
(0.506998 0.000523012 -0.00330805)
(0.513364 0.000454233 -0.00330095)
(0.506862 0.000559122 -0.00260897)
(0.513194 0.000465269 -0.00326099)
(0.506746 0.000571726 -0.00338284)
(0.621984 0.00085939 -0.00402526)
(0.614833 0.00100178 -0.00313595)
(0.621786 0.000873792 -0.00308474)
(0.61467 0.000998916 -0.00301191)
(0.621881 0.000861991 -0.0038238)
(0.614643 0.000974301 -0.00345417)
(0.621719 0.000877825 -0.00325945)
(0.614518 0.00100426 -0.00253013)
(0.621639 0.000879815 -0.00318027)
(0.614463 0.000984049 -0.00339222)
(0.621659 0.000861651 -0.0038978)
(0.614196 0.000977245 -0.00296003)
(0.621414 0.000884043 -0.0032896)
(0.613954 0.000979958 -0.00290063)
(0.62139 0.000882664 -0.00393258)
(0.614028 0.000953396 -0.00358415)
(0.621346 0.000856135 -0.00337367)
(0.613979 0.000927187 -0.00250668)
(0.621208 0.000830704 -0.00339822)
(0.613842 0.000896256 -0.00327077)
(0.621231 0.000824501 -0.00394971)
(0.613692 0.000887908 -0.00276287)
(0.621284 0.000845272 -0.00320909)
(0.613899 0.00088924 -0.00261779)
(0.621405 0.000819723 -0.00383956)
(0.614117 0.00088332 -0.00328203)
(0.621457 0.000831972 -0.00356381)
(0.614183 0.000884192 -0.00254181)
(0.621625 0.00083049 -0.00356862)
(0.614503 0.000931735 -0.00346758)
(0.622001 0.000844922 -0.00416249)
(0.614716 0.000952437 -0.00299677)
(0.621951 0.000858623 -0.00356019)
(0.614753 0.000966705 -0.00290901)
(0.621956 0.00083898 -0.00421863)
(0.614993 0.000973648 -0.00359356)
(0.622095 0.000837158 -0.00374152)
(0.614853 0.000987237 -0.00290386)
(0.622109 0.000850747 -0.00361468)
(0.614896 0.00101343 -0.00371846)
(0.715726 0.00125277 -0.00279312)
(0.708432 0.00139211 -0.0016203)
(0.715871 0.00125226 -0.00169995)
(0.70848 0.00138506 -0.0014866)
(0.715808 0.00122098 -0.00236561)
(0.708429 0.0013766 -0.00195436)
(0.715829 0.0012346 -0.00197409)
(0.708305 0.00139192 -0.00121284)
(0.716087 0.00123239 -0.00197575)
(0.708446 0.00140421 -0.00229428)
(0.716089 0.00123136 -0.00255087)
(0.708262 0.00138701 -0.00179828)
(0.715666 0.00125388 -0.00198144)
(0.707929 0.0013927 -0.00176935)
(0.715613 0.00124736 -0.00279232)
(0.707942 0.00136278 -0.00243164)
(0.715418 0.00123155 -0.00222605)
(0.707637 0.00131264 -0.00169535)
(0.715239 0.00121262 -0.00199608)
(0.707315 0.00128906 -0.00218138)
(0.715229 0.00121117 -0.00246582)
(0.707557 0.0012995 -0.00167107)
(0.715169 0.00122724 -0.00181238)
(0.707693 0.00129753 -0.00176478)
(0.715289 0.00122059 -0.00266563)
(0.707748 0.00131052 -0.00228241)
(0.715201 0.00123736 -0.00232022)
(0.707894 0.0013044 -0.00135194)
(0.715186 0.00124526 -0.00230493)
(0.708205 0.00133294 -0.00215015)
(0.715448 0.00126494 -0.00301919)
(0.708165 0.00136096 -0.00159051)
(0.715673 0.00124498 -0.0020309)
(0.70825 0.00137485 -0.00154477)
(0.715665 0.00121585 -0.00285988)
(0.708497 0.00136736 -0.00217488)
(0.715875 0.00123312 -0.00239398)
(0.708307 0.00141237 -0.00142086)
(0.715837 0.00123012 -0.00237895)
(0.708482 0.00140168 -0.00225668)
(0.796533 0.00140573 0.000132347)
(0.78949 0.00156448 0.00072746)
(0.79638 0.00139056 0.000735083)
(0.789505 0.00156131 0.000777929)
(0.796597 0.00136846 -8.39996e-05)
(0.789629 0.00156547 0.000255179)
(0.796671 0.00137835 0.000433007)
(0.789656 0.00152911 0.00115449)
(0.796746 0.00134942 0.000494945)
(0.78974 0.00154816 0.000404256)
(0.796735 0.00136902 2.81257e-05)
(0.789552 0.00153202 0.000805141)
(0.79658 0.00137975 0.000735756)
(0.789612 0.00152632 0.000814676)
(0.796564 0.00140993 6.73167e-05)
(0.789424 0.00151221 0.000410937)
(0.796625 0.00141046 0.000445271)
(0.789071 0.00147435 0.000960333)
(0.796321 0.00141149 0.000539662)
(0.788987 0.00145034 0.00027713)
(0.796325 0.00138836 -2.22159e-05)
(0.789019 0.00147347 0.000749762)
(0.796393 0.00138461 0.000662883)
(0.788954 0.0014725 0.000717772)
(0.796423 0.00142321 -0.000101221)
(0.789047 0.00148626 0.000145421)
(0.796344 0.00142804 0.000315847)
(0.789024 0.00148049 0.00107471)
(0.796345 0.00143614 0.000433225)
(0.789188 0.00149509 0.000192889)
(0.796437 0.00145388 5.96877e-05)
(0.789021 0.00150453 0.0005459)
(0.796277 0.00141178 0.000781518)
(0.78896 0.00150672 0.000600245)
(0.796533 0.00139716 8.412e-05)
(0.78901 0.00151171 0.000105109)
(0.796404 0.00140374 0.000467012)
(0.789191 0.00156641 0.00108163)
(0.796439 0.00140568 0.00054215)
(0.789378 0.00157025 0.000277726)
(0.865577 0.0012312 0.00304739)
(0.859794 0.00141066 0.00342926)
(0.865505 0.00121906 0.00347873)
(0.859784 0.00139494 0.00339907)
(0.865739 0.0012213 0.00270971)
(0.859928 0.00142173 0.00299345)
(0.865831 0.00124151 0.00300087)
(0.859863 0.0013915 0.00350898)
(0.865834 0.00121603 0.00311268)
(0.859831 0.00137009 0.00310997)
(0.866006 0.00124716 0.0027291)
(0.85986 0.00136012 0.00354553)
(0.865957 0.0012514 0.00317052)
(0.859736 0.00134613 0.00366881)
(0.865985 0.00125618 0.00264737)
(0.85994 0.00133339 0.00320431)
(0.866169 0.00127452 0.00303761)
(0.859633 0.00132988 0.0036527)
(0.866016 0.00125748 0.00312232)
(0.859808 0.00130839 0.00289332)
(0.865925 0.00126083 0.0027984)
(0.859613 0.00131385 0.00312684)
(0.865822 0.00124144 0.00339297)
(0.859463 0.00131531 0.00312999)
(0.865889 0.00128457 0.00273853)
(0.859377 0.00136094 0.00288755)
(0.865866 0.00128433 0.0031094)
(0.859309 0.00137793 0.00357117)
(0.865569 0.00128531 0.00323161)
(0.859329 0.00137057 0.00319212)
(0.865396 0.00131836 0.00305331)
(0.859265 0.00138487 0.00343805)
(0.865328 0.00129195 0.00358956)
(0.859399 0.00138102 0.00352471)
(0.865383 0.00127397 0.00310243)
(0.859386 0.00140682 0.0033441)
(0.865545 0.00125316 0.00340144)
(0.859403 0.00140582 0.00381598)
(0.865532 0.00123706 0.00340292)
(0.859658 0.00141557 0.00314393)
(0.923249 0.000870231 0.00442729)
(0.918681 0.0010244 0.00459359)
(0.923172 0.00085433 0.00459085)
(0.918595 0.00100575 0.00455236)
(0.923311 0.00085779 0.00416505)
(0.918683 0.00103403 0.00428578)
(0.923437 0.000895906 0.00433641)
(0.918682 0.00100517 0.00466203)
(0.923571 0.000865588 0.00434793)
(0.918744 0.000960199 0.00423098)
(0.923703 0.000893815 0.00409084)
(0.918758 0.000973205 0.00443147)
(0.92381 0.000903332 0.0045813)
(0.918789 0.000962052 0.00441251)
(0.923904 0.000896358 0.00418906)
(0.91884 0.000956764 0.00411498)
(0.923815 0.000919586 0.00441132)
(0.918822 0.000972021 0.00457828)
(0.923745 0.000888494 0.00452617)
(0.918871 0.000962402 0.0042402)
(0.923642 0.00088958 0.00434909)
(0.91881 0.000958479 0.0043817)
(0.923425 0.000872061 0.00461111)
(0.918678 0.000961158 0.00437558)
(0.923422 0.000926499 0.0041629)
(0.918623 0.00101707 0.00421446)
(0.923329 0.000932091 0.00435081)
(0.918562 0.00104126 0.00456941)
(0.923254 0.000946955 0.00443606)
(0.918574 0.00103483 0.00425538)
(0.923206 0.000987096 0.00427049)
(0.918557 0.00106481 0.00448332)
(0.923144 0.00094319 0.00469247)
(0.918623 0.00104781 0.00453907)
(0.923199 0.00091586 0.00432456)
(0.918669 0.00105298 0.0043333)
(0.923219 0.000883512 0.00459701)
(0.918644 0.00104265 0.0047011)
(0.923208 0.000864553 0.00467221)
(0.918634 0.00102781 0.00443476)
(0.967151 0.000514542 0.00366914)
(0.963866 0.000658911 0.00367445)
(0.967162 0.000490689 0.00386031)
(0.963802 0.000636251 0.00366335)
(0.967241 0.000503197 0.00365918)
(0.963858 0.000643533 0.00349675)
(0.967272 0.000538469 0.00375535)
(0.963861 0.000611684 0.00370286)
(0.967335 0.00050398 0.00376635)
(0.963859 0.000569772 0.00352826)
(0.967442 0.000517905 0.00357741)
(0.963905 0.00058125 0.00356956)
(0.967454 0.000522948 0.00372781)
(0.963929 0.000576178 0.0035801)
(0.967484 0.000530808 0.00355733)
(0.964016 0.000596625 0.00346362)
(0.967498 0.000547535 0.00368214)
(0.964084 0.000609767 0.00373939)
(0.967475 0.000530723 0.00373047)
(0.964151 0.000603226 0.00354954)
(0.967465 0.000532734 0.00360861)
(0.964148 0.000615398 0.00367109)
(0.967303 0.000539211 0.00367404)
(0.964093 0.000626348 0.00369738)
(0.967237 0.000581116 0.0034995)
(0.964116 0.000667266 0.00354357)
(0.967218 0.000582578 0.0035859)
(0.964003 0.000683089 0.00367507)
(0.967194 0.000591524 0.00361496)
(0.963997 0.000695806 0.00347828)
(0.967142 0.000616139 0.00352529)
(0.963953 0.000721162 0.00357874)
(0.967093 0.000591304 0.00371859)
(0.963926 0.000704831 0.00361106)
(0.967075 0.000572981 0.00358233)
(0.963958 0.00071066 0.00347949)
(0.967097 0.00054156 0.00371801)
(0.963937 0.000687733 0.00372766)
(0.967144 0.000519969 0.00377071)
(0.963901 0.000670523 0.0035754)
(0.996146 0.00030452 0.00227824)
(0.9941 0.000428967 0.00217809)
(0.996117 0.00029276 0.00236683)
(0.994052 0.000414336 0.00219663)
(0.996124 0.000285646 0.00229531)
(0.994071 0.000412705 0.00214479)
(0.996142 0.000310393 0.00236256)
(0.994053 0.000392927 0.00221884)
(0.996135 0.000281512 0.00237054)
(0.99406 0.000360201 0.00215771)
(0.996156 0.000277022 0.00227756)
(0.994103 0.000369561 0.00218554)
(0.996136 0.000281852 0.0023331)
(0.99414 0.000372913 0.0021798)
(0.996151 0.00028401 0.00224128)
(0.994218 0.000388691 0.00212843)
(0.996183 0.000290379 0.00229392)
(0.994271 0.000402366 0.00222222)
(0.99619 0.000283908 0.00231712)
(0.994316 0.00038717 0.00215516)
(0.996196 0.00029378 0.00225875)
(0.994327 0.000398547 0.00218159)
(0.996158 0.000311783 0.00233298)
(0.994314 0.000408394 0.00219062)
(0.996168 0.000341822 0.00224662)
(0.994339 0.000441735 0.0021312)
(0.996174 0.000346874 0.00230386)
(0.994332 0.000446068 0.00222755)
(0.996131 0.000349513 0.0023146)
(0.994306 0.000454583 0.00214554)
(0.996136 0.000361747 0.00224243)
(0.994267 0.000478626 0.00216484)
(0.996115 0.000346951 0.00234214)
(0.994236 0.000465872 0.00216671)
(0.996114 0.000340846 0.00226194)
(0.994206 0.00047642 0.00211773)
(0.996132 0.000328529 0.00232619)
(0.994166 0.000455232 0.0022099)
(0.996122 0.00031062 0.00234587)
(0.994136 0.00044265 0.00212634)
(1.01251 0.000197465 0.00128004)
(1.01139 0.000309624 0.00115285)
(1.01249 0.000188782 0.00132348)
(1.01136 0.000288507 0.00117277)
(1.01247 0.000181304 0.00129997)
(1.01136 0.000292257 0.00115124)
(1.01246 0.000202309 0.00132052)
(1.01135 0.00028248 0.00119884)
(1.01243 0.000178019 0.00133586)
(1.01136 0.000255484 0.00116308)
(1.01241 0.000174267 0.00129085)
(1.01139 0.000263925 0.00117388)
(1.0124 0.000170982 0.00132425)
(1.01139 0.000258486 0.00118401)
(1.0124 0.00017517 0.00128264)
(1.01144 0.000275597 0.00114114)
(1.01242 0.00018718 0.00128457)
(1.01147 0.000287234 0.00116985)
(1.01243 0.00018261 0.00129437)
(1.01149 0.000281598 0.00113448)
(1.01245 0.000192724 0.00124866)
(1.01152 0.000295835 0.00113937)
(1.01246 0.000206131 0.00129345)
(1.01152 0.000299119 0.00116615)
(1.01247 0.000224483 0.00127725)
(1.01155 0.0003308 0.00114171)
(1.01251 0.000234256 0.00129881)
(1.01156 0.000325584 0.00119235)
(1.01251 0.000227006 0.00131943)
(1.01154 0.00032735 0.00116059)
(1.01252 0.000236441 0.00128139)
(1.01153 0.000348316 0.00117176)
(1.01253 0.000229888 0.00132811)
(1.0115 0.00033614 0.00118925)
(1.01252 0.000221961 0.00130239)
(1.01148 0.000342459 0.00114473)
(1.01254 0.00021289 0.00131304)
(1.01146 0.000322916 0.00117981)
(1.01252 0.000196521 0.00132207)
(1.01142 0.000313361 0.00114782)
(1.0204 0.000147408 0.000687173)
(1.01988 0.00024513 0.000552176)
(1.02039 0.000142587 0.000700943)
(1.01986 0.000230647 0.000577819)
(1.02037 0.000134525 0.000704126)
(1.01985 0.000232346 0.000554298)
(1.02036 0.000151372 0.000691898)
(1.01987 0.000231658 0.000577977)
(1.02034 0.000133613 0.000718348)
(1.01986 0.000209543 0.000578948)
(1.02031 0.000127445 0.000686168)
(1.01987 0.000218043 0.000561955)
(1.02031 0.000129896 0.000702632)
(1.01987 0.000216021 0.000587292)
(1.0203 0.00012708 0.000698725)
(1.01988 0.000226532 0.000550781)
(1.02032 0.000139243 0.000672635)
(1.0199 0.000232379 0.000558493)
(1.02033 0.000135065 0.000691029)
(1.0199 0.000220816 0.000551219)
(1.02033 0.000138315 0.000657858)
(1.01992 0.000232403 0.000530261)
(1.02034 0.000150125 0.000676087)
(1.01993 0.000235949 0.000565129)
(1.02035 0.00016084 0.00069016)
(1.01994 0.000259523 0.000547984)
(1.02038 0.000172246 0.00067866)
(1.01996 0.000256434 0.000572216)
(1.0204 0.000162011 0.000712818)
(1.01994 0.000256347 0.000576661)
(1.0204 0.0001696 0.000689025)
(1.01994 0.00027625 0.000564992)
(1.02042 0.000169222 0.000715401)
(1.01993 0.000264372 0.000597629)
(1.02041 0.000158597 0.000717531)
(1.01991 0.000266649 0.000565931)
(1.02043 0.000158438 0.000698188)
(1.01991 0.00025557 0.000577526)
(1.02042 0.000145799 0.000719594)
(1.01988 0.000244155 0.000572441)
(1.02356 9.58434e-05 0.000337865)
(1.02336 0.000176283 0.00021045)
(1.02356 9.28755e-05 0.000332413)
(1.02336 0.000166199 0.000231894)
(1.02354 8.53077e-05 0.000351607)
(1.02334 0.000165932 0.000221558)
(1.02353 9.64882e-05 0.000327469)
(1.02336 0.000169805 0.000223267)
(1.02353 8.76094e-05 0.00034962)
(1.02336 0.000153943 0.000241246)
(1.02351 8.04345e-05 0.000333773)
(1.02335 0.0001598 0.000215097)
(1.02351 8.45901e-05 0.000330753)
(1.02336 0.000158315 0.000238036)
(1.02351 8.05265e-05 0.000347224)
(1.02335 0.00016435 0.000219383)
(1.02351 8.92725e-05 0.000313498)
(1.02336 0.000168997 0.000208493)
(1.02352 8.85234e-05 0.000329497)
(1.02336 0.000162017 0.000220205)
(1.02351 8.90765e-05 0.000311779)
(1.02337 0.000170354 0.000190926)
(1.02353 9.92234e-05 0.000310206)
(1.02338 0.000177137 0.000219344)
(1.02353 0.000106215 0.000337179)
(1.02337 0.000192255 0.00021521)
(1.02354 0.000114997 0.000315161)
(1.02339 0.00019172 0.000215862)
(1.02356 0.000106143 0.000344164)
(1.02338 0.000190363 0.000237767)
(1.02356 0.000110702 0.000334961)
(1.02338 0.000202304 0.000215386)
(1.02357 0.000112802 0.000339589)
(1.02338 0.000194303 0.000245051)
(1.02357 0.000103637 0.000361891)
(1.02336 0.000193334 0.000231018)
(1.02357 0.000105779 0.00033402)
(1.02337 0.000185497 0.000225373)
(1.02358 9.56681e-05 0.000354599)
(1.02336 0.000175768 0.000239727)
(1.02447 4.84417e-05 0.000138015)
(1.02441 0.000112171 3.45446e-05)
(1.02447 4.52431e-05 0.000126528)
(1.02441 0.000105795 4.65152e-05)
(1.02447 4.03201e-05 0.000145982)
(1.02441 0.000107032 4.69607e-05)
(1.02446 4.73195e-05 0.000127125)
(1.02441 0.000109821 4.0308e-05)
(1.02446 4.27189e-05 0.000139327)
(1.02441 0.000100153 5.89098e-05)
(1.02445 3.78118e-05 0.000135439)
(1.02441 0.000102345 3.79172e-05)
(1.02445 3.98215e-05 0.00012503)
(1.02441 0.000103132 4.98975e-05)
(1.02445 3.85979e-05 0.000142473)
(1.02441 0.000107307 4.43133e-05)
(1.02445 4.51061e-05 0.000116755)
(1.02441 0.000109998 2.79836e-05)
(1.02445 4.56225e-05 0.000123995)
(1.02441 0.000107335 4.19148e-05)
(1.02445 4.60864e-05 0.000118659)
(1.02441 0.000111872 1.89304e-05)
(1.02445 5.21844e-05 0.000108997)
(1.02441 0.000117694 3.44093e-05)
(1.02446 5.80427e-05 0.000132987)
(1.02441 0.000127562 3.90643e-05)
(1.02446 6.41301e-05 0.000116663)
(1.02442 0.000127353 3.08002e-05)
(1.02447 5.66384e-05 0.000133564)
(1.02442 0.000125095 5.27015e-05)
(1.02447 5.94317e-05 0.000134613)
(1.02441 0.000131335 3.48974e-05)
(1.02448 6.07558e-05 0.000129268)
(1.02442 0.000126395 5.25154e-05)
(1.02448 5.55015e-05 0.000151854)
(1.02441 0.000124906 5.08997e-05)
(1.02448 5.6525e-05 0.000130914)
(1.02442 0.000118968 3.94881e-05)
(1.02448 4.92022e-05 0.000142312)
(1.02442 0.00011259 5.59245e-05)
(1.02456 2.00335e-05 4.81229e-05)
(1.02454 6.82583e-05 -2.76912e-05)
(1.02455 1.63707e-05 3.94284e-05)
(1.02454 6.41019e-05 -2.18092e-05)
(1.02456 1.35463e-05 5.17422e-05)
(1.02454 6.6138e-05 -1.93322e-05)
(1.02455 1.73808e-05 4.07369e-05)
(1.02454 6.61914e-05 -2.43309e-05)
(1.02455 1.4624e-05 4.69782e-05)
(1.02454 6.117e-05 -1.18249e-05)
(1.02455 1.23126e-05 4.67358e-05)
(1.02454 6.20557e-05 -2.44878e-05)
(1.02455 1.24394e-05 3.84614e-05)
(1.02454 6.37002e-05 -1.94152e-05)
(1.02455 1.2882e-05 4.94541e-05)
(1.02454 6.77048e-05 -2.08458e-05)
(1.02455 1.7601e-05 3.42336e-05)
(1.02454 6.85956e-05 -3.28574e-05)
(1.02455 1.7949e-05 3.65263e-05)
(1.02454 6.8004e-05 -2.45595e-05)
(1.02455 1.93205e-05 3.48112e-05)
(1.02454 7.02992e-05 -3.84956e-05)
(1.02455 2.26995e-05 2.72108e-05)
(1.02454 7.44814e-05 -3.10117e-05)
(1.02455 2.86843e-05 4.21447e-05)
(1.02454 8.24336e-05 -2.6121e-05)
(1.02455 3.26859e-05 3.36638e-05)
(1.02454 8.11343e-05 -3.22168e-05)
(1.02455 2.63978e-05 4.25463e-05)
(1.02454 7.87187e-05 -1.77845e-05)
(1.02455 2.89224e-05 4.57436e-05)
(1.02454 8.23594e-05 -2.79375e-05)
(1.02455 2.95947e-05 4.1055e-05)
(1.02454 7.91792e-05 -1.88352e-05)
(1.02456 2.67545e-05 5.58189e-05)
(1.02454 7.79128e-05 -1.72961e-05)
(1.02456 2.66634e-05 4.38588e-05)
(1.02454 7.28463e-05 -2.58509e-05)
(1.02456 2.0907e-05 4.9006e-05)
(1.02454 6.87043e-05 -1.53678e-05)
(1.02448 4.94902e-06 3.01111e-05)
(1.02448 4.06351e-05 -2.09794e-05)
(1.02448 1.23904e-06 2.57182e-05)
(1.02448 3.79377e-05 -1.75934e-05)
(1.02448 -6.44946e-07 3.17242e-05)
(1.02448 3.9802e-05 -1.64881e-05)
(1.02448 1.42899e-06 2.59629e-05)
(1.02448 3.86461e-05 -1.81089e-05)
(1.02448 2.66657e-07 2.95735e-05)
(1.02448 3.65789e-05 -1.11185e-05)
(1.02448 -2.07439e-07 2.93055e-05)
(1.02448 3.69214e-05 -1.81389e-05)
(1.02448 -1.04967e-06 2.49734e-05)
(1.02448 3.83737e-05 -1.59579e-05)
(1.02448 5.39043e-08 3.01589e-05)
(1.02448 4.19535e-05 -1.7282e-05)
(1.02448 3.30631e-06 2.19247e-05)
(1.02448 4.184e-05 -2.37341e-05)
(1.02448 3.71903e-06 2.26291e-05)
(1.02448 4.2283e-05 -2.06548e-05)
(1.02448 5.67275e-06 2.08189e-05)
(1.02448 4.35369e-05 -2.84235e-05)
(1.02448 7.70334e-06 1.72791e-05)
(1.02447 4.65076e-05 -2.44394e-05)
(1.02448 1.32664e-05 2.46686e-05)
(1.02448 5.27195e-05 -2.20679e-05)
(1.02448 1.51889e-05 2.09877e-05)
(1.02448 5.0832e-05 -2.40002e-05)
(1.02448 1.02738e-05 2.64929e-05)
(1.02448 4.88197e-05 -1.60201e-05)
(1.02448 1.20792e-05 2.84628e-05)
(1.02448 5.0445e-05 -2.09991e-05)
(1.02448 1.22534e-05 2.68693e-05)
(1.02448 4.8812e-05 -1.59321e-05)
(1.02448 1.06962e-05 3.4784e-05)
(1.02448 4.77755e-05 -1.51737e-05)
(1.02448 9.78328e-06 2.8803e-05)
(1.02448 4.36059e-05 -1.92473e-05)
(1.02448 5.54333e-06 3.14485e-05)
(1.02448 4.12888e-05 -1.44538e-05)
(1.02444 -4.70062e-06 3.46371e-05)
(1.02444 2.13986e-05 2.2908e-06)
(1.02444 -7.8965e-06 3.27064e-05)
(1.02444 1.97795e-05 4.26655e-06)
(1.02444 -9.37751e-06 3.52288e-05)
(1.02444 2.08279e-05 4.37802e-06)
(1.02444 -8.3147e-06 3.22587e-05)
(1.02444 1.94097e-05 4.54592e-06)
(1.02444 -8.42069e-06 3.43916e-05)
(1.02444 1.90364e-05 8.20519e-06)
(1.02444 -7.86024e-06 3.37986e-05)
(1.02444 1.91334e-05 4.39123e-06)
(1.02444 -9.25057e-06 3.18221e-05)
(1.02444 2.03712e-05 5.15462e-06)
(1.02444 -8.02706e-06 3.36854e-05)
(1.02444 2.34614e-05 3.77453e-06)
(1.02444 -5.61665e-06 2.93401e-05)
(1.02444 2.30303e-05 7.26358e-07)
(1.02444 -4.71882e-06 2.95717e-05)
(1.02444 2.37566e-05 1.22459e-06)
(1.02444 -2.65389e-06 2.7796e-05)
(1.02444 2.43109e-05 -2.93793e-06)
(1.02444 -1.36101e-06 2.65492e-05)
(1.02444 2.64427e-05 -7.92792e-07)
(1.02444 2.89684e-06 2.96994e-05)
(1.02444 3.06728e-05 1.85787e-08)
(1.02444 3.5045e-06 2.83437e-05)
(1.02444 2.91513e-05 3.02336e-07)
(1.02444 1.42788e-07 3.19983e-05)
(1.02444 2.76699e-05 4.54318e-06)
(1.02444 8.71701e-07 3.30414e-05)
(1.02444 2.7827e-05 2.35295e-06)
(1.02444 5.27682e-07 3.32782e-05)
(1.02444 2.72088e-05 5.26458e-06)
(1.02444 5.74265e-08 3.7366e-05)
(1.02444 2.66918e-05 5.31325e-06)
(1.02444 -1.19138e-06 3.46807e-05)
(1.02444 2.34442e-05 3.92669e-06)
(1.02444 -4.00687e-06 3.61848e-05)
(1.02444 2.2267e-05 5.67271e-06)
(1.02444 -9.56311e-06 3.45693e-05)
(1.02444 8.71135e-06 1.50389e-05)
(1.02444 -1.24183e-05 3.36429e-05)
(1.02444 7.83223e-06 1.61417e-05)
(1.02444 -1.35043e-05 3.47776e-05)
(1.02444 8.23987e-06 1.62218e-05)
(1.02444 -1.29937e-05 3.32946e-05)
(1.02444 6.74724e-06 1.68549e-05)
(1.02444 -1.24309e-05 3.43754e-05)
(1.02444 7.0474e-06 1.88468e-05)
(1.02444 -1.15694e-05 3.38869e-05)
(1.02444 7.13837e-06 1.67445e-05)
(1.02444 -1.31408e-05 3.28706e-05)
(1.02444 8.27136e-06 1.6686e-05)
(1.02444 -1.20265e-05 3.33151e-05)
(1.02444 1.08442e-05 1.56412e-05)
(1.02444 -1.01956e-05 3.09746e-05)
(1.02444 1.04525e-05 1.40723e-05)
(1.02444 -8.87152e-06 3.08753e-05)
(1.02444 1.11297e-05 1.36657e-05)
(1.02444 -6.96943e-06 2.95694e-05)
(1.02444 1.13281e-05 1.1369e-05)
(1.02444 -6.06317e-06 2.90577e-05)
(1.02444 1.27914e-05 1.23983e-05)
(1.02444 -3.13274e-06 3.02418e-05)
(1.02444 1.55365e-05 1.27027e-05)
(1.02444 -3.18439e-06 2.97158e-05)
(1.02444 1.45981e-05 1.35905e-05)
(1.02444 -5.30294e-06 3.20201e-05)
(1.02444 1.36248e-05 1.60175e-05)
(1.02444 -5.40677e-06 3.2866e-05)
(1.02444 1.30033e-05 1.51707e-05)
(1.02444 -6.0634e-06 3.36791e-05)
(1.02444 1.30608e-05 1.67143e-05)
(1.02444 -5.82087e-06 3.59526e-05)
(1.02444 1.29272e-05 1.66949e-05)
(1.02444 -7.00445e-06 3.49727e-05)
(1.02444 1.03327e-05 1.63085e-05)
(1.02444 -8.82049e-06 3.58114e-05)
(1.02444 9.6705e-06 1.68545e-05)
(1.02444 -1.09834e-05 2.81333e-05)
(1.02445 1.12992e-06 1.67025e-05)
(1.02444 -1.344e-05 2.76245e-05)
(1.02444 6.82948e-07 1.73111e-05)
(1.02444 -1.42581e-05 2.81808e-05)
(1.02444 6.90176e-07 1.75176e-05)
(1.02445 -1.39834e-05 2.73919e-05)
(1.02444 -7.93226e-07 1.80947e-05)
(1.02444 -1.3345e-05 2.78122e-05)
(1.02444 -5.1229e-07 1.92209e-05)
(1.02444 -1.26815e-05 2.75242e-05)
(1.02444 -3.08114e-07 1.80162e-05)
(1.02444 -1.40413e-05 2.68931e-05)
(1.02444 8.87404e-07 1.76024e-05)
(1.02444 -1.32528e-05 2.67727e-05)
(1.02444 2.87236e-06 1.68923e-05)
(1.02444 -1.17436e-05 2.54671e-05)
(1.02444 2.532e-06 1.59448e-05)
(1.02444 -1.01368e-05 2.51923e-05)
(1.02444 3.10548e-06 1.52944e-05)
(1.02444 -8.50215e-06 2.4291e-05)
(1.02444 3.17014e-06 1.39521e-05)
(1.02444 -7.78924e-06 2.39619e-05)
(1.02444 4.16289e-06 1.43545e-05)
(1.02444 -5.89324e-06 2.4228e-05)
(1.02444 6.02653e-06 1.45835e-05)
(1.02444 -6.20687e-06 2.39535e-05)
(1.02444 5.54087e-06 1.54797e-05)
(1.02444 -7.56866e-06 2.53692e-05)
(1.02444 4.84384e-06 1.70549e-05)
(1.02444 -7.9914e-06 2.62011e-05)
(1.02444 3.88472e-06 1.68319e-05)
(1.02444 -8.68921e-06 2.7114e-05)
(1.02444 4.2532e-06 1.75726e-05)
(1.02444 -8.24736e-06 2.85822e-05)
(1.02444 4.24441e-06 1.7603e-05)
(1.02444 -9.07615e-06 2.84691e-05)
(1.02444 2.33774e-06 1.75689e-05)
(1.02444 -1.02455e-05 2.89851e-05)
(1.02444 1.97012e-06 1.76649e-05)
(1.02445 -1.03169e-05 2.00506e-05)
(1.02445 -2.631e-06 1.34611e-05)
(1.02445 -1.23579e-05 1.97056e-05)
(1.02445 -2.73867e-06 1.38268e-05)
(1.02445 -1.29625e-05 1.99661e-05)
(1.02445 -2.98452e-06 1.40891e-05)
(1.02445 -1.28149e-05 1.95396e-05)
(1.02445 -4.48698e-06 1.45572e-05)
(1.02445 -1.23077e-05 1.96225e-05)
(1.02445 -4.36183e-06 1.5222e-05)
(1.02445 -1.1863e-05 1.94805e-05)
(1.02445 -3.99458e-06 1.45068e-05)
(1.02445 -1.29749e-05 1.90884e-05)
(1.02445 -2.76913e-06 1.40649e-05)
(1.02445 -1.2525e-05 1.88152e-05)
(1.02445 -1.33481e-06 1.35759e-05)
(1.02445 -1.11717e-05 1.7974e-05)
(1.02445 -1.63131e-06 1.28258e-05)
(1.02445 -9.50243e-06 1.76354e-05)
(1.02445 -1.18864e-06 1.2183e-05)
(1.02445 -8.14795e-06 1.70337e-05)
(1.02445 -1.16434e-06 1.13581e-05)
(1.02445 -7.55215e-06 1.67453e-05)
(1.02445 -4.473e-07 1.14702e-05)
(1.02445 -6.30139e-06 1.66003e-05)
(1.02445 8.20615e-07 1.16994e-05)
(1.02445 -6.68293e-06 1.63004e-05)
(1.02445 5.53967e-07 1.24111e-05)
(1.02445 -7.58897e-06 1.70525e-05)
(1.02445 -3.80233e-08 1.3471e-05)
(1.02445 -8.02222e-06 1.78364e-05)
(1.02445 -9.80249e-07 1.35271e-05)
(1.02445 -8.68728e-06 1.87811e-05)
(1.02445 -6.59458e-07 1.3853e-05)
(1.02445 -8.34607e-06 1.98649e-05)
(1.02445 -5.18119e-07 1.38717e-05)
(1.02445 -8.77519e-06 2.01811e-05)
(1.02445 -1.70477e-06 1.39145e-05)
(1.02445 -9.45252e-06 2.05523e-05)
(1.02445 -1.98643e-06 1.39295e-05)
(1.02445 -8.54729e-06 1.3523e-05)
(1.02445 -3.77836e-06 9.63138e-06)
(1.02445 -1.02403e-05 1.32946e-05)
(1.02445 -3.59673e-06 9.94588e-06)
(1.02445 -1.06021e-05 1.34113e-05)
(1.02445 -4.0019e-06 1.02288e-05)
(1.02445 -1.05033e-05 1.31627e-05)
(1.02445 -5.46457e-06 1.06085e-05)
(1.02445 -1.00849e-05 1.31671e-05)
(1.02445 -5.48337e-06 1.10195e-05)
(1.02445 -9.83737e-06 1.30834e-05)
(1.02445 -5.08557e-06 1.05366e-05)
(1.02445 -1.08042e-05 1.28086e-05)
(1.02445 -3.97156e-06 1.01701e-05)
(1.02445 -1.05287e-05 1.24631e-05)
(1.02445 -3.0045e-06 9.78996e-06)
(1.02445 -9.323e-06 1.18765e-05)
(1.02445 -3.30247e-06 9.1524e-06)