/*--------------------------------*- C++ -*----------------------------------*\
  =========                 |
  \\      /  F ield         | OpenFOAM: The Open Source CFD Toolbox
   \\    /   O peration     | Website:  https://openfoam.org
    \\  /    A nd           | Version:  10
     \\/     M anipulation  |
\*---------------------------------------------------------------------------*/
FoamFile
{
    format      ascii;
    class       surfaceScalarField;
    location    "5";
    object      phi;
}
// * * * * * * * * * * * * * * * * * * * * * * * * * * * * * * * * * * * * * //

dimensions      [0 3 -1 0 0 0 0];

internalField   nonuniform List<scalar> 
74080
(
6.16247e-05
-1.70326e-07
6.63009e-06
6.85503e-05
-1.68902e-05
-1.74933e-06
7.62894e-05
-4.1422e-05
2.40724e-05
6.59877e-05
-1.23525e-05
6.13628e-05
5.55136e-05
2.84276e-05
6.00436e-05
6.2061e-05
2.61583e-05
6.92255e-06
6.29682e-05
3.08301e-06
-5.1484e-06
4.95755e-05
-1.30008e-07
3.17535e-05
4.93723e-05
-2.58263e-06
4.3489e-05
5.1155e-05
4.55205e-07
5.74011e-05
3.55137e-05
2.28745e-05
7.47979e-05
2.95446e-05
2.79214e-05
4.30207e-05
3.95494e-05
1.54666e-05
1.78875e-05
5.23966e-05
1.68967e-06
1.83147e-05
5.93117e-05
-1.28246e-05
1.74454e-05
5.52567e-05
-3.14972e-05
3.97078e-05
4.53356e-05
-1.17615e-05
4.67698e-05
4.87718e-05
3.11934e-05
1.57982e-05
6.73884e-05
-3.71639e-06
3.12608e-06
8.02801e-05
-3.1286e-05
3.78597e-05
7.14085e-05
1.05471e-05
6.3839e-05
6.27033e-05
1.12254e-05
5.99352e-05
5.7459e-05
-1.12275e-05
6.39837e-05
4.65321e-05
2.37325e-05
4.25803e-05
3.80412e-05
5.4435e-05
-1.42248e-06
3.57474e-05
2.33724e-05
-8.09878e-06
3.48268e-05
1.61783e-06
3.28189e-05
3.13017e-05
7.12165e-06
3.47405e-05
2.75966e-05
1.09723e-05
2.29274e-05
2.50786e-05
2.98246e-05
1.95045e-05
4.02181e-05
2.33214e-05
2.33549e-06
5.31326e-05
-5.45906e-06
1.44224e-05
4.94141e-05
1.6621e-06
2.76539e-05
4.48196e-05
-3.58324e-07
1.22717e-05
3.94966e-05
-3.03114e-05
4.21287e-05
3.67405e-05
3.45748e-05
2.73737e-05
4.87558e-05
6.71866e-05
-2.33526e-05
5.87836e-05
1.08908e-05
3.93467e-07
5.00523e-05
1.22599e-05
2.37592e-05
2.1792e-05
1.34997e-05
0.000156735
-4.61157e-05
-5.14098e-05
0.000174906
-8.01239e-05
-7.48209e-05
0.000165073
-0.00010613
-4.58358e-05
0.000134349
-5.51855e-05
3.01095e-05
0.000106959
7.01903e-05
5.79591e-05
0.000120572
5.0765e-05
-2.82714e-05
0.000139745
-1.89368e-05
-7.63141e-05
0.000113087
1.14237e-05
-2.58148e-05
9.42701e-05
-2.98152e-06
-3.7241e-06
8.46017e-05
8.65122e-06
3.82982e-05
5.73136e-05
7.82118e-05
6.15616e-05
5.71695e-05
8.08111e-05
-2.87342e-06
9.00024e-05
3.56377e-05
-4.48304e-05
0.000131894
-1.20546e-05
-6.33489e-05
0.00016329
-6.51778e-05
-5.83314e-05
0.000147175
-0.000112956
2.40201e-05
9.77618e-05
-2.93859e-05
3.20173e-05
9.17395e-05
8.96238e-05
-4.04472e-05
0.000141203
-3.95204e-05
-6.51137e-05
0.000177417
-0.000126496
-1.27186e-05
0.000148011
2.89694e-05
4.06466e-05
0.000115565
7.11092e-05
3.30502e-05
9.97104e-05
-1.08103e-05
3.83569e-05
7.93838e-05
6.67179e-05
1.5348e-05
8.68671e-05
0.000119432
-7.23256e-05
9.45571e-05
4.74949e-05
-9.58056e-05
8.19413e-05
4.12315e-05
-3.2987e-05
6.64075e-05
3.59356e-05
-1.0519e-05
5.50572e-05
1.31189e-05
-1.80291e-05
5.60242e-05
5.69247e-05
-2.36373e-05
9.68014e-05
5.32536e-05
-7.22846e-05
0.000120398
-2.62787e-05
-5.39657e-05
0.000115073
3.43229e-06
-2.7378e-05
0.000109706
7.84389e-07
-5.35817e-05
8.04461e-05
-0.000105789
1.69937e-05
8.38228e-05
1.08715e-05
1.77458e-05
0.000136912
0.00011297
-0.000105681
0.000156672
2.95811e-05
-0.000102091
0.000115143
3.76739e-05
-2.8566e-05
4.55106e-05
-3.61068e-05
0.000239792
-0.000123172
-3.94735e-05
0.000254196
-0.000176072
-7.1702e-05
0.000222695
-0.000128256
-8.1552e-05
0.000173985
-4.5943e-05
-3.15353e-05
0.000139602
0.000116311
3.95317e-05
0.000167874
2.79279e-05
6.87634e-06
0.000200763
-5.57661e-05
-5.48379e-05
0.000177689
2.94633e-05
-3.87467e-05
0.000139039
1.06269e-05
-4.02903e-05
0.000104025
3.62201e-05
1.23735e-05
7.58225e-05
0.000138095
4.16725e-05
9.36376e-05
0.000117498
-8.70175e-06
0.000150226
4.82097e-05
-5.20826e-05
0.000199799
-1.70544e-05
-8.45663e-05
0.000246916
-0.000107397
-0.000100709
0.000249113
-0.00019642
4.57795e-06
0.000179246
-6.9853e-05
3.83277e-05
0.000145264
0.000178418
-8.80149e-05
0.00017842
-5.27757e-05
-8.78905e-05
0.00021435
-0.000242864
-4.4024e-05
0.000187841
1.77431e-05
1.09097e-05
0.000136707
0.000158131
1.01403e-05
0.000111395
2.05029e-06
1.12768e-05
9.93004e-05
8.92019e-05
4.24536e-06
0.000131522
0.000156656
-7.2257e-05
0.000162903
1.59386e-05
-0.00010096
0.000153656
5.17624e-05
-6.53719e-05
0.0001434
3.75044e-05
-2.46373e-05
0.000127797
-1.43262e-05
-3.64173e-05
0.000119249
6.06376e-05
-4.35944e-05
0.000160953
9.96975e-05
-0.000116223
0.00016778
-2.31748e-05
-0.000101155
0.000166267
1.28378e-06
-6.35858e-05
0.000192411
-9.29982e-06
-0.000104949
0.000133153
-0.000157928
-1.90965e-05
9.91999e-05
-4.02762e-05
2.14661e-05
0.00018859
4.06173e-05
-2.65046e-05
0.000247601
-3.47949e-05
-7.25259e-05
0.000199503
4.38849e-05
-4.71283e-05
2.41214e-05
-3.00174e-05
0.000317549
-0.000198074
-2.64234e-05
0.000301567
-0.000239026
-4.91648e-05
0.000250025
-0.000120539
-8.86187e-05
0.000197859
9.37653e-06
-7.22286e-05
0.000177489
0.000163009
1.25476e-05
0.000210451
-1.05823e-05
2.62745e-05
0.000230453
-1.61921e-05
-5.79784e-05
0.000210351
7.52571e-05
-3.69419e-05
0.000174779
1.42859e-05
-4.90749e-05
0.00013232
4.79539e-05
3.42384e-06
0.0001019
0.000187476
2.66477e-05
0.000127239
0.000144692
2.99999e-06
0.000183065
7.24238e-05
-3.40219e-05
0.000214624
3.91603e-05
-7.87993e-05
0.000258278
-8.46497e-05
-9.08631e-05
0.000282486
-0.000233131
-1.02264e-05
0.000224749
-0.000112392
2.4655e-05
0.00019203
0.000268834
-0.000126609
0.000210796
-2.28087e-05
-0.000143149
0.000236649
-0.00036442
-5.11566e-05
0.000227005
-3.56098e-05
4.94786e-06
0.000188644
0.000192288
7.62597e-06
0.000146355
7.50405e-06
2.61388e-05
0.000130196
5.57176e-05
4.91246e-05
0.000168458
0.000220092
-6.25604e-05
0.000197772
1.05149e-05
-6.79467e-05
0.000198235
3.87014e-05
-4.91357e-05
0.000208818
-1.93749e-06
-2.01935e-05
0.000187119
-6.45264e-05
-6.31205e-05
0.000152357
5.41636e-05
-6.5556e-05
0.000179293
0.000161764
-0.00011683
0.00019009
2.92932e-05
-0.000126075
0.00019444
2.71598e-05
-9.87008e-05
0.00024689
-1.7612e-05
-0.000114997
0.000196731
-0.000219362
-2.8058e-05
0.000123508
-6.4026e-05
9.35639e-06
0.00019685
-1.73425e-05
-1.46458e-06
0.000277449
-8.29024e-05
-4.36092e-05
0.000254119
5.35705e-05
-6.86581e-05
-4.56916e-05
-2.74044e-05
0.000382628
-0.000266101
-1.01151e-05
0.000392498
-0.000308011
-2.34616e-05
0.000318463
-0.000129059
-6.50433e-05
0.000241143
0.000103056
-0.000101168
0.000216843
0.000238872
-1.95331e-05
0.000216871
-1.94923e-05
1.80672e-05
0.000216992
5.40854e-05
-6.19625e-05
0.000233203
9.61783e-05
7.44607e-06
0.000221265
-4.32298e-05
-1.09341e-05
0.000165609
4.03308e-05
5.45679e-06
0.000146293
0.000233333
9.4995e-06
0.000176269
0.000189194
-2.46867e-05
0.000209912
0.000149328
-3.88632e-05
0.000238482
9.95867e-05
-0.000102331
0.000294442
-5.97629e-05
-6.49673e-05
0.000319594
-0.000224568
3.92841e-06
0.000266032
-0.000114956
2.58916e-05
0.000243128
0.00034067
-0.000125903
0.000263505
1.64032e-05
-0.00022918
0.000275756
-0.000434206
-9.23944e-05
0.000264887
-8.81097e-05
-9.21228e-06
0.0002393
0.000206742
-2.98054e-07
0.000195138
-1.64318e-05
1.87232e-05
0.000155394
1.57004e-05
4.35819e-05
0.00015756
0.000303267
-3.32183e-05
0.000197117
2.20087e-05
1.20616e-05
0.000254053
-1.94158e-05
-2.38733e-05
0.000278135
-6.9539e-05
-6.1528e-06
0.00023291
-7.78512e-05
-5.6336e-05
0.0001816
7.75765e-05
-9.71667e-05
0.000210715
0.000162129
-7.78326e-05
0.000243171
4.17204e-05
-0.000107117
0.000236781
7.32895e-05
-0.000147861
0.000290273
-2.69303e-05
-0.00012589
0.000293193
-0.000297513
-6.13925e-05
0.000199516
-0.000118978
5.68161e-06
0.000186178
-3.12694e-05
-1.87139e-05
0.000260649
-0.000108374
-4.62638e-05
0.000308516
2.98939e-05
-4.21006e-05
-7.96995e-05
-3.11117e-05
0.000381138
-0.000274528
-1.61148e-05
0.000403883
-0.000356919
-2.51238e-05
0.000347799
-0.000144765
-3.28875e-05
0.000276715
0.000232434
-0.000137156
0.000257951
0.000326898
-3.3488e-05
0.00022828
6.28336e-06
3.16232e-06
0.000237991
8.56342e-05
-4.30877e-05
0.000270198
7.04163e-05
0.000109508
0.000246915
-0.000105238
6.29851e-05
0.00019962
3.27564e-05
-9.77743e-06
0.000209783
0.000229989
5.00568e-05
0.000239126
0.000226342
-3.63962e-06
0.000258114
0.000218804
-2.36636e-05
0.000271027
0.000184153
-0.000106707
0.00031768
-5.07981e-06
-3.15057e-05
0.00036729
-0.000218875
3.0438e-06
0.000314946
-6.87886e-05
-5.7405e-06
0.000285903
0.000399981
-8.46518e-05
0.000309996
3.38508e-05
-0.00024242
0.000299608
-0.000456104
-0.000116273
0.000272053
-0.000104909
-3.37823e-05
0.000271786
0.000229275
-1.27239e-05
0.00025819
-6.3613e-05
-1.59623e-05
0.000194523
-6.53499e-06
-4.93213e-06
0.000155165
0.000362679
2.66227e-05
0.000223392
8.92676e-06
3.71261e-05
0.000314784
-9.7126e-05
-2.32418e-05
0.000313346
-5.34505e-05
6.77427e-06
0.000233066
-2.49983e-05
-1.14753e-05
0.000180899
0.000142116
-0.000122706
0.000225385
9.59658e-05
-4.7321e-05
0.000278725
3.02441e-05
-8.27529e-05
0.000262417
0.000115989
-0.000154794
0.000311194
-4.95092e-05
-0.000124833
0.000357892
-0.000359436
-0.000127792
0.000270432
-0.000158055
-3.87945e-05
0.000228336
-7.3581e-06
-4.04992e-05
0.000261291
-9.32484e-05
-5.28667e-05
0.000314837
2.06456e-06
2.22873e-05
-9.44754e-05
7.08559e-07
0.000375295
-0.000243615
-7.48891e-05
0.000424788
-0.000390853
-4.6502e-05
0.00040165
-0.000203994
-5.1463e-05
0.000328242
0.000311177
-0.000121416
0.000306729
0.000424575
-5.41539e-05
0.000267286
5.61908e-05
-1.0251e-05
0.000283287
0.000118467
-4.88373e-05
0.000332214
3.63204e-05
7.96621e-05
0.000303415
-0.000148694
6.72446e-05
0.000247736
5.69525e-05
-2.29506e-05
0.000262381
0.000230185
9.50789e-05
0.000310068
0.000172426
0.000111794
0.00033337
0.000196768
4.17114e-06
0.000337733
0.000262987
-7.33788e-05
0.000392635
5.59045e-05
-9.28024e-05
0.000443436
-0.000231551
-3.26025e-05
0.000386436
-2.10207e-05
3.54425e-06
0.000345258
0.000472321
-0.000119771
0.000370188
1.95431e-05
-0.000215896
0.00033992
-0.000502262
-9.47742e-05
0.000305482
-0.000142771
-3.14977e-05
0.000329541
0.000240854
-2.41458e-05
0.000331423
-2.87987e-06
-7.9271e-05
0.000255418
1.96521e-05
-6.9681e-05
0.000224445
0.00038026
1.97564e-05
0.000280354
5.90725e-05
-2.39063e-05
0.000340719
-0.000144726
2.1698e-05
0.000328108
1.82696e-06
3.63915e-05
0.000224841
7.9953e-05
3.02113e-06
0.000176052
0.000187831
-7.58603e-05
0.00023723
3.43635e-05
-5.47866e-05
0.000293912
-2.80806e-05
-7.56235e-05
0.000291904
0.000158974
-0.00013547
0.000360405
-7.09799e-05
-9.69395e-05
0.000408408
-0.000363442
-0.000130108
0.000342612
-0.000165779
-7.28066e-05
0.000319433
2.1266e-05
-7.37571e-05
0.000313461
2.22661e-06
-7.56701e-05
0.000329214
-3.73589e-06
2.17944e-05
-0.000124752
-3.07348e-06
0.000433886
-0.000216168
-7.44717e-05
0.000503431
-0.000441795
7.55764e-06
0.000496498
-0.00030337
-5.41399e-05
0.000409339
0.000312639
-0.000109236
0.000371138
0.000446661
-4.3734e-05
0.000318798
0.000173232
-3.19694e-05
0.000312447
0.000169865
-5.69967e-05
0.000400454
4.58623e-06
-1.39246e-05
0.000400388
-0.000173213
4.95353e-05
0.000316646
6.93997e-05
7.5628e-06
0.000303933
0.000212747
9.6058e-05
0.000354133
6.94551e-05
0.000173833
0.000390308
0.000153447
4.82939e-05
0.000393609
0.000328971
-3.4464e-05
0.000459792
6.47605e-05
-0.000124162
0.000512551
-0.000258635
-4.8962e-05
0.000453698
6.95983e-07
9.82489e-05
0.000407374
0.000493988
-7.03109e-05
0.000418187
2.77573e-05
-0.000186741
0.000384133
-0.000525484
-0.000136585
0.00035401
-0.000200176
-9.45601e-05
0.000387161
0.000209618
-3.93577e-07
0.000384884
6.46982e-05
-2.75221e-05
0.000301856
7.06379e-05
-6.60538e-05
0.000296159
0.000359123
-2.58388e-05
0.000336672
0.000106519
8.81626e-06
0.000362373
-0.000214068
0.000119688
0.000369566
-3.14747e-05
6.85708e-06
0.000295131
0.000233506
-5.93892e-05
0.000246559
0.000245242
-4.17265e-05
0.000269857
1.93444e-06
-2.76676e-05
0.000280758
-4.07308e-05
-6.19876e-05
0.000287115
0.000221803
-0.000150208
0.000392748
-8.78693e-05
-0.000106865
0.000474406
-0.000451179
-5.96383e-05
0.000453203
-0.000234863
-4.67385e-05
0.000411607
6.05098e-05
-7.61025e-05
0.000367048
0.000160244
-9.01962e-05
0.000373506
4.23374e-05
-4.63523e-07
-0.000174541
-7.33901e-06
0.000501809
-0.000167781
-2.2589e-05
0.000546284
-0.000539261
3.15575e-05
0.000550806
-0.000419987
-8.32953e-05
0.000468581
0.000328667
-0.000125792
0.000394023
0.000433417
3.31731e-05
0.000359884
0.000252515
-1.86189e-05
0.000393525
0.000125982
-9.54754e-05
0.00047778
2.49893e-05
-0.000155963
0.000474668
-0.000115408
-2.50224e-05
0.000405402
4.90282e-05
1.16009e-05
0.000374504
0.000181264
6.34046e-05
0.000371522
7.13727e-05
0.000142014
0.000400086
0.000174275
5.86654e-05
0.000440844
0.00028756
-2.92808e-05
0.000514514
-5.44661e-06
-8.96739e-05
0.000558949
-0.000205972
-4.32549e-05
0.000498666
4.30068e-05
0.00010641
0.000452134
0.000431709
1.73312e-05
0.000483132
5.39094e-05
-0.000194206
0.000451955
-0.000449176
-0.000211635
0.000401827
-0.000205443
-0.000145281
0.00044542
0.000113788
8.66259e-06
0.000464504
-1.75312e-05
8.23583e-05
0.000369411
0.00012853
-1.79476e-05
0.000357546
0.00040656
-7.43144e-05
0.000421682
3.35832e-05
5.32643e-06
0.000428273
-0.000292577
0.000144281
0.000414253
-5.49377e-05
-8.77147e-06
0.000356767
0.000383208
-0.000109914
0.000328242
0.000318452
-0.000108832
0.000337512
-1.85748e-05
-0.000123396
0.000310065
3.17373e-05
-7.89472e-05
0.000306423
0.000262592
-0.000126474
0.000445353
-0.000112419
-6.80393e-05
0.000555437
-0.000585897
-2.11947e-05
0.000470699
-0.000218278
-4.40322e-05
0.000385227
0.000105828
-6.02229e-05
0.000379705
0.000238628
-7.95081e-05
0.000443311
6.01615e-05
-6.04093e-05
-0.000196317
-6.2581e-05
0.000591521
-0.000164796
-5.17887e-05
0.000607035
-0.00058074
-1.05911e-05
0.000517597
-0.000402409
-0.000148253
0.000412044
0.000405656
-0.000115914
0.000389196
0.00040037
8.67507e-05
0.000413446
0.000238813
9.96823e-05
0.000492017
4.34959e-06
-6.45718e-05
0.000574316
1.37288e-05
-0.000210465
0.000557161
3.0117e-05
-4.87617e-05
0.00047251
8.1969e-05
-2.62757e-06
0.000405314
0.000226955
3.27281e-05
0.00035939
0.000133572
0.000164503
0.00039653
0.000171198
7.42986e-05
0.00049112
0.000174935
-3.90982e-05
0.000556995
-6.58287e-05
-3.00694e-05
0.000592463
-0.000135949
-2.08864e-05
0.000555623
8.02593e-05
4.13329e-05
0.000523598
0.000307814
6.45116e-05
0.000566566
6.58138e-05
-0.000130068
0.000530702
-0.00037418
-0.000198357
0.000458293
-0.000206517
-0.0001194
0.000514644
2.48778e-06
-1.78699e-05
0.000555473
-0.000188506
8.03385e-05
0.000458138
0.000185002
-1.97652e-05
0.000432781
0.000491582
-6.77634e-05
0.000497087
-6.94022e-05
5.61239e-07
0.000530071
-0.000382071
9.13194e-05
0.000503537
-4.21862e-05
5.74259e-05
0.000429547
0.000454907
-5.22967e-05
0.000419409
0.000294932
-6.87999e-05
0.000422056
-0.000104058
-0.00011733
0.000385267
4.46524e-05
-9.68907e-05
0.000398427
0.00030631
-6.18403e-05
0.000520908
-9.43723e-05
-9.48698e-05
0.000542824
-0.000488868
-0.000102357
0.000390262
-0.000100635
-5.71791e-05
0.000341212
6.96353e-05
-3.22989e-05
0.000393615
0.000198495
4.01321e-06
0.000473094
7.89669e-05
-5.85012e-05
-0.000181015
-0.000138995
0.000687653
-0.000224004
-5.88462e-05
0.000677785
-0.000527331
-5.06431e-05
0.000482313
-0.000290403
-5.00745e-05
0.000359521
0.000384157
-6.56501e-05
0.000407757
0.000427614
-7.42957e-05
0.000484965
0.000194035
0.000117954
0.000550363
-7.65025e-05
1.55912e-05
0.000628951
-3.15111e-05
-0.000181108
0.000651851
8.37515e-05
-5.31974e-05
0.000560361
0.000107174
2.73207e-05
0.000437758
0.000276196
7.42359e-05
0.000394497
0.000171261
0.000162187
0.000499452
0.000127733
7.04033e-05
0.000584584
8.62318e-05
4.51347e-05
0.00058249
-2.88485e-05
2.69558e-05
0.000632041
-0.000154573
1.01227e-05
0.000636426
-1.38749e-05
4.43e-05
0.000575661
0.00018921
8.80228e-05
0.000592703
5.04183e-06
-2.44696e-05
0.000579687
-0.000355499
-0.000158068
0.000528832
-0.000245112
-0.000127408
0.000597745
-0.000154856
-4.95986e-05
0.000633382
-0.000329918
5.80908e-05
0.000537885
0.000281163
2.02837e-05
0.000536179
0.000557938
-2.76981e-05
0.000600489
-0.00011659
-2.35544e-05
0.00059249
-0.000429454
-2.50708e-05
0.000521174
-2.79087e-05
8.17457e-06
0.000480774
0.000418417
-3.43372e-05
0.00053332
0.000168163
-1.47467e-05
0.000528672
-0.000226725
4.27576e-05
0.000454696
-1.07037e-05
1.01034e-05
0.000475095
0.000230415
-4.88786e-05
0.000582549
-0.000129279
-0.000152711
0.000557925
-0.000313582
-0.000141743
0.000462386
-5.14538e-05
-6.22246e-05
0.000426009
-2.08795e-05
-1.97303e-05
0.000413361
0.000176043
-5.53476e-06
0.000472897
8.17904e-05
-3.97027e-05
-0.000218686
-4.48276e-05
0.000759701
-0.000291608
-8.60648e-05
0.000727033
-0.00044729
-7.42791e-05
0.000537697
-0.000208876
4.07733e-05
0.000412388
0.000264957
-5.44074e-05
0.000443812
0.000432046
-0.000170242
0.00051807
0.000256915
5.71934e-05
0.000568907
-6.14938e-05
4.05815e-05
0.000665258
-6.4262e-05
-5.7972e-05
0.000757833
-9.52392e-06
-1.7636e-06
0.000655338
0.000122061
3.719e-06
0.000524504
0.000318456
5.89853e-05
0.000505148
0.000172634
0.000138607
0.000592256
3.13215e-05
0.000102907
0.000640172
-2.44077e-05
0.000108688
0.00061817
5.44128e-05
-1.8006e-06
0.000689959
-0.000155547
-4.73367e-05
0.000742709
-0.000182638
4.67211e-05
0.000669249
0.000107056
7.16668e-05
0.000658289
-8.00189e-05
-7.82256e-06
0.000676425
-0.00038726
-0.00011825
0.000653985
-0.000234987
-0.000173377
0.0006863
-0.00025166
-0.000112834
0.000692507
-0.000416783
3.59949e-05
0.000596551
0.000322783
8.04133e-05
0.000617467
0.000545708
-1.51007e-05
0.000721383
-0.000148123
-9.53285e-05
0.000679794
-0.000417779
-4.48313e-05
0.00054587
1.28491e-05
-2.57526e-05
0.000500004
0.000390939
-4.02799e-05
0.000592642
2.19517e-05
-3.41111e-05
0.000614784
-0.00031138
4.59362e-05
0.000553008
-7.09221e-05
6.57648e-05
0.000575356
9.57304e-05
-2.48469e-05
0.000624151
-0.000161754
-0.000104075
0.000602222
-0.000204038
-5.08167e-05
0.000580998
-4.14823e-05
-9.73101e-05
0.0005234
-0.000103784
-3.64578e-05
0.000476953
0.00015911
-3.99708e-05
0.000537666
7.0849e-05
-9.23657e-05
-0.000289774
-3.18598e-05
0.000840722
-0.000402654
-5.25658e-05
0.000811476
-0.000398151
-7.31564e-05
0.000630148
-9.88504e-05
1.62455e-05
0.00049716
0.00018505
-6.21446e-05
0.000468908
0.000336316
-8.85918e-05
0.000518589
0.000271782
4.14408e-05
0.000576374
-2.38422e-05
-5.15909e-05
0.000640718
-4.84671e-05
-0.000126927
0.000717206
3.34292e-05
-7.41118e-05
0.000709154
0.000147961
-4.56072e-05
0.000691326
0.000284652
3.2517e-05
0.000684726
0.00018482
0.000161292
0.000678598
4.38027e-05
0.000115139
0.000658894
-6.424e-06
4.68369e-05
0.000643531
0.00010421
-9.52416e-06
0.000744439
-0.000131142
-7.74408e-05
0.000820878
-0.000246394
1.36853e-05
0.000760284
6.15949e-05
3.11491e-05
0.000746605
-0.000114356
-4.0972e-05
0.00076373
-0.000394233
-9.21658e-05
0.000763573
-0.000208586
-0.0001883
0.000766965
-0.000242457
-0.000154002
0.000719547
-0.000376627
-1.54722e-05
0.000665935
0.000306918
0.000104348
0.000745711
0.000400198
6.56446e-05
0.000842282
-0.000192563
-5.45641e-05
0.000765453
-0.000310204
-6.40183e-05
0.000631252
7.34659e-05
-5.92346e-06
0.000618437
0.000302909
-2.8015e-05
0.000670876
1.4544e-05
-8.12471e-05
0.000661565
-0.000245498
1.89572e-05
0.00064097
-9.20187e-05
9.35144e-05
0.000663529
2.03514e-05
2.91662e-05
0.000659997
-0.000122946
-7.62118e-05
0.000647655
-0.000125938
-2.83564e-05
0.000662929
-6.57733e-05
-5.63306e-05
0.000634768
-0.000161204
-6.58065e-05
0.000598888
0.000117759
-5.67144e-05
0.000616319
0.000132124
-0.000101303
-0.000275822
-4.66683e-05
0.000901064
-0.000483664
2.22117e-05
0.000895858
-0.000362421
-8.83518e-05
0.000768509
8.69382e-07
-9.92082e-05
0.00063471
0.000160846
-8.38905e-05
0.000566433
0.000234984
-1.38582e-06
0.000607078
0.000178891
8.02237e-05
0.000643853
-2.93469e-06
-3.7945e-05
0.000655417
-2.05753e-05
-0.000175911
0.000739975
6.25041e-05
-0.000231588
0.000835402
0.000151246
-0.000196023
0.00084243
0.000275712
-3.0737e-05
0.000786906
0.000223967
0.000164083
0.000737661
0.000109736
0.000160212
0.000712474
2.05965e-05
7.19903e-05
0.000754806
4.65664e-05
-3.37323e-05
0.00084511
-0.000130483
-0.000118303
0.000866907
-0.000200837
-3.08073e-05
0.000823811
-2.97883e-06
2.74934e-05
0.000828011
-0.000145588
-7.26691e-05
0.000860918
-0.000359802
-0.000150698
0.000879673
-0.000234522
-0.000215656
0.000867109
-0.000234931
-0.00014948
0.000780846
-0.000253925
-1.58001e-05
0.000742102
0.000243164
8.76335e-05
0.000862115
0.000155675
9.18698e-05
0.000968189
-0.000256311
1.4291e-05
0.000878819
-0.000205287
-5.4962e-05
0.000740834
0.000107475
-1.28439e-05
0.000759028
0.000207108
-1.48558e-05
0.000794476
6.65475e-05
-4.80602e-05
0.000739328
-0.000124495
5.92272e-05
0.000700535
-7.75971e-05
0.000176069
0.000728478
-8.14274e-05
7.51808e-05
0.000741658
-0.000229433
-0.000141098
0.000738446
-0.000144563
-0.000103015
0.000777192
-0.000140757
-1.03048e-05
0.000771229
-0.000222407
-0.00010502
0.000709088
7.68588e-05
-0.000104295
0.000704943
0.000204132
-7.90031e-05
-0.000193748
-3.01401e-05
0.000977705
-0.000450296
-6.44283e-05
0.00100203
-0.0003447
-0.000111236
0.000895635
6.48304e-05
-7.8953e-05
0.000759741
0.000212373
-3.02994e-05
0.000701534
0.000215316
-5.46992e-05
0.000749417
0.000135645
-0.000105988
0.000804276
7.83979e-05
-0.000166742
0.000817028
0.000142825
-0.00022889
0.000849504
0.00011853
-0.000190864
0.000938639
0.000108571
-0.000159094
0.000980243
0.000229159
-1.10897e-05
0.000912049
0.000257116
0.000140012
0.000824441
0.000194508
0.00010876
0.000800907
9.6125e-05
3.49574e-06
0.000885815
-2.32934e-05
-6.13955e-05
0.00098836
-0.000220833
-0.000108004
0.000989097
-0.000167293
-4.0929e-05
0.00092852
-2.20581e-05
4.75459e-05
0.0009413
-0.00014588
-7.97427e-05
0.00100119
-0.00036659
-0.000179298
0.0010018
-0.000310568
-0.000170955
0.000960075
-0.000268404
-0.000107237
0.000899344
-0.000164824
-2.42758e-05
0.000838647
0.000134864
5.70371e-05
0.000881899
-3.04237e-05
0.000114776
0.00100522
-0.000341371
0.000106285
0.00100747
-0.000234934
6.94778e-05
0.000898647
0.000101163
3.38599e-05
0.000870127
0.000184496
-2.53717e-05
0.000880704
2.44989e-05
-2.58818e-05
0.000833178
-6.09483e-05
7.18699e-05
0.000783577
2.48393e-05
0.000124004
0.000829649
-0.00011934
7.59717e-05
0.000878816
-0.000352988
-6.35001e-05
0.000871888
-0.000206747
-0.000124489
0.000895671
-0.000171242
-0.000106245
0.000893521
-0.000270716
-0.000148784
0.00082505
4.00408e-05
-0.000131817
0.000808366
0.000162434
-3.85254e-05
-0.00015628
-2.25389e-05
0.00101166
-0.000329185
-2.81816e-05
0.00106468
-0.000273904
-7.73807e-05
0.00099763
6.07445e-05
-2.34016e-05
0.000896192
0.000185065
1.23852e-05
0.00086264
0.000157724
-6.95833e-05
0.000888836
0.000126199
-0.000156569
0.000903444
0.000126724
-7.2888e-05
0.000884594
0.000185051
-5.15258e-05
0.000905297
0.000169293
-0.000137833
0.00103043
8.52278e-05
-0.000158165
0.00107533
0.000191812
-1.17971e-05
0.000967742
0.000352645
0.000129147
0.000883842
0.000301586
0.000141318
0.000895071
0.000142483
5.11064e-05
0.000986312
-4.41606e-05
-2.20286e-05
0.00105961
-0.000209819
-4.76488e-05
0.00104119
-0.000167859
-1.83087e-05
0.00100475
-5.76674e-05
4.4288e-05
0.00107437
-0.000175654
-7.18425e-05
0.00114221
-0.000397273
-0.000165535
0.00110602
-0.000358924
-0.000122906
0.00106922
-0.000266073
-7.88614e-05
0.00106241
-0.000140059
-3.65164e-05
0.00100944
6.30234e-05
1.8034e-05
0.00095145
-5.61252e-05
9.49033e-05
0.00102083
-0.000388967
0.000135999
0.00109765
-0.000359764
0.000159857
0.00103242
5.38444e-05
0.000119109
0.000981381
0.000184516
1.10682e-05
0.000988969
1.6955e-05
-3.60638e-05
0.000953796
1.39069e-06
4.46243e-05
0.000867352
0.000123448
0.000179104
0.000865955
-0.000128322
0.000150503
0.000953446
-0.000469014
-1.0522e-06
0.00100008
-0.000356369
-3.05294e-05
0.000983559
-0.000212667
-9.47008e-05
0.000947555
-0.000209284
-0.00023453
0.00089955
2.8714e-05
-0.000130549
0.000866111
4.32787e-05
7.43159e-05
-0.000200921
0.000112245
0.00105584
-0.000145028
-6.99716e-05
0.00110245
-9.21969e-05
-8.9918e-05
0.00109164
7.6131e-05
-8.19247e-05
0.00102714
8.64569e-05
-5.2275e-05
0.000997843
5.14299e-05
-6.99302e-05
0.00102031
0.000112036
-0.000110111
0.00103324
0.000121921
-6.01275e-05
0.00100692
0.000149614
-5.49269e-05
0.00101
0.000150114
-0.000129438
0.00112242
3.20422e-06
-0.000192384
0.00118449
0.000101996
-6.78243e-05
0.00110537
0.000380013
0.000159987
0.00103951
0.000368983
0.000233502
0.0010472
0.000199048
0.000138744
0.00106168
7.47959e-05
-2.72894e-05
0.00106616
-1.08958e-05
-0.000182823
0.00109895
-0.000103949
-0.000191545
0.00113718
-0.000110863
-7.13971e-05
0.00121876
-0.000260795
-3.70201e-05
0.00127672
-0.000434714
-0.000139791
0.00123885
-0.000305337
-0.000204133
0.00119791
-0.000178806
-0.000135449
0.00121315
-0.000134135
-2.3802e-05
0.00120165
-3.81088e-05
5.69618e-06
0.00116611
-8.87638e-05
5.29533e-05
0.00117908
-0.00033732
7.56226e-05
0.0011711
-0.000342544
5.7066e-05
0.00111561
6.90266e-06
8.42247e-05
0.00111817
0.000112661
-1.59524e-05
0.00112007
2.88792e-05
-0.000100093
0.00106041
0.000167661
-1.62259e-05
0.000990319
0.000219255
0.000148281
0.00097276
-0.000165409
0.000119302
0.00103086
-0.000521458
-7.35057e-05
0.00107693
-0.000407322
-5.52985e-05
0.00103955
-0.000201055
-4.53582e-05
0.0010057
-0.000168285
-0.000213493
0.000997003
1.82974e-05
-0.000158747
0.000965394
7.25116e-05
1.0725e-06
-0.000101991
-1.39154e-05
0.00111107
-8.07486e-05
-5.77965e-05
0.00116823
-6.77753e-05
-8.09191e-05
0.00125418
-6.24238e-05
-5.39538e-05
0.00124554
-3.51206e-05
-4.64984e-05
0.0011874
7.35006e-05
-0.000102336
0.00116535
0.000195172
-9.24633e-05
0.00117754
0.000160906
-6.5581e-05
0.0012028
0.00011782
-7.8402e-05
0.00121801
0.000104503
-0.000112451
0.00125644
-5.85603e-05
-0.000147216
0.0012797
2.20812e-05
-9.53954e-05
0.00122497
0.000311682
9.60056e-05
0.00115186
0.000380466
0.000216054
0.0011184
0.000245858
0.000157859
0.00113385
0.000116406
-1.39817e-05
0.00116828
6.48386e-05
-0.00017012
0.00122709
-4.24306e-05
-0.000198601
0.00128361
-0.000172633
-3.79611e-05
0.00132919
-0.000353095
5.80337e-05
0.00135978
-0.000434018
-1.31869e-05
0.00133475
-0.000207423
-0.000146626
0.00129775
-0.000110706
-0.000174366
0.0013506
-0.000213796
-9.30814e-05
0.00138834
-0.000165464
-2.03902e-05
0.00134361
-0.000131589
7.73468e-05
0.00129884
-0.000276077
0.000145267
0.0012643
-0.000293537
5.67892e-05
0.00125036
-7.78365e-05
-3.48573e-06
0.00128942
3.42766e-05
-5.63578e-05
0.00128135
0.000103299
-0.000101609
0.00122992
0.000320269
-6.31662e-05
0.00119076
0.000326162
3.12669e-05
0.0011519
-0.000109256
9.93949e-05
0.00118516
-0.000493831
-1.66134e-06
0.00123422
-0.000363163
-5.65749e-05
0.00117304
-4.61028e-05
-8.90685e-05
0.00107924
-5.58501e-05
-0.00020434
0.00105596
-3.13918e-05
-0.000173913
0.00106164
4.38341e-05
-8.03892e-05
-6.13288e-05
-5.70957e-05
0.00122787
-3.68165e-05
6.67486e-06
0.00125781
-7.66698e-05
-1.3232e-05
0.00133527
-0.000143
9.62105e-06
0.00136315
-0.000116822
-2.84549e-05
0.00133139
0.000106235
-0.000112499
0.00132942
0.00029666
-0.000123016
0.00136271
0.000228339
-0.000116378
0.00135869
0.000100131
-9.18876e-05
0.00130817
7.07122e-05
-0.000108547
0.00130187
-5.82607e-05
-0.000168852
0.00135859
-6.47025e-05
-7.79135e-05
0.00137835
0.000219179
7.73648e-05
0.00135668
0.000368293
0.000164479
0.00130067
0.00024853
0.000184525
0.00128274
6.60336e-05
0.00014659
0.00133218
4.18885e-05
4.22524e-05
0.00138645
2.01449e-05
-3.59482e-05
0.00142697
-0.000153916
2.05119e-05
0.0014755
-0.000386007
0.00012111
0.00150133
-0.000432979
8.45089e-05
0.00147848
-0.000184986
-6.11887e-05
0.00147039
-7.94223e-05
-0.000168408
0.00152471
-0.000217629
-0.000111792
0.00155441
-0.000215671
3.32681e-05
0.00148435
-0.000149272
6.16007e-05
0.00141547
-0.000242909
6.55783e-06
0.00142648
-0.000304912
6.48938e-05
0.00146859
-0.000146086
0.000118031
0.00149921
6.575e-07
4.02147e-05
0.00146692
0.000136557
-5.52966e-05
0.00144916
0.000331674
-1.79608e-05
0.00146345
0.000319906
0.000164805
0.00139735
-2.29186e-05
0.000215245
0.00133308
-0.000328791
-2.03728e-05
0.00132396
-0.000248402
-0.000124416
0.00130733
1.07243e-05
-0.000136555
0.00124303
2.41023e-05
-0.00025349
0.00120133
-4.58521e-05
-0.000220137
0.00121318
-2.69785e-05
-2.62488e-05
-4.08533e-05
5.71345e-05
0.00135092
0.000117529
-3.19829e-05
0.00131282
3.58364e-05
-4.44726e-05
0.00134796
-0.000102316
-4.39923e-05
0.00143611
-0.000169529
-5.46759e-05
0.00151908
-5.43609e-05
-4.12682e-05
0.00155505
0.000141342
-5.97338e-05
0.00152613
0.000234545
-0.000138856
0.00146307
0.00018159
-0.000126295
0.00141997
5.05664e-05
-0.000115153
0.00141899
-9.78403e-05
-0.000231164
0.0014555
-0.000113354
-0.000207294
0.00150902
7.3788e-05
3.43741e-05
0.00155576
0.000198662
0.000255223
0.0015334
0.000211762
0.000288771
0.00147056
0.000152109
0.000188948
0.00148395
5.16451e-05
7.94592e-05
0.00157629
-2.4922e-05
-3.05276e-05
0.0016572
-9.42438e-05
-9.03775e-05
0.00167748
-0.000244157
-6.00567e-06
0.00168065
-0.000361136
6.49244e-05
0.00170524
-0.000227423
-1.78936e-05
0.00172025
-8.47003e-05
-0.00013062
0.0016915
-0.000102476
-0.000109861
0.00165179
-0.0001333
1.33858e-05
0.00162508
-0.00012516
3.19406e-05
0.00159648
-0.000146036
-9.27407e-05
0.00158898
-0.000248496
-5.42117e-05
0.00164403
-0.00023167
8.84125e-05
0.00172132
-6.70073e-05
3.94395e-05
0.00173611
0.000154922
-9.71233e-05
0.00173082
0.000305299
-1.78776e-05
0.00170205
0.000282094
0.000239164
0.00158056
2.90895e-05
0.000272794
0.00144128
-0.000213983
6.7005e-06
0.00136298
-0.000188646
-0.00011192
0.00137559
-6.48273e-05
-3.68708e-05
0.00143167
-2.63399e-05
-0.000140821
0.00145434
1.4992e-05
-0.000252009
0.0014421
7.31641e-05
-0.000136882
9.66654e-05
-2.65814e-05
0.00155661
0.000167881
-3.0588e-05
0.00155305
8.58757e-05
8.00022e-05
0.00157866
-7.57418e-05
0.000101361
0.0016179
-0.00017277
4.85477e-05
0.00169005
-0.000169171
3.74249e-06
0.00175588
-7.3191e-05
1.04497e-07
0.00174961
9.12495e-05
-2.52128e-05
0.00169287
0.000162667