/*--------------------------------*- C++ -*----------------------------------*\
  =========                 |
  \\      /  F ield         | OpenFOAM: The Open Source CFD Toolbox
   \\    /   O peration     | Website:  https://openfoam.org
    \\  /    A nd           | Version:  10
     \\/     M anipulation  |
\*---------------------------------------------------------------------------*/
FoamFile
{
    format      ascii;
    class       volScalarField;
    location    "5";
    object      pPrime2Mean;
}
// * * * * * * * * * * * * * * * * * * * * * * * * * * * * * * * * * * * * * //

dimensions      [0 4 -4 0 0 0 0];

internalField   nonuniform List<scalar> 
25600
(
3.23872e-05
3.17831e-05
3.00819e-05
2.97166e-05
2.88604e-05
3.02965e-05
2.94064e-05
2.90156e-05
3.02329e-05
3.19124e-05
3.28393e-05
3.29331e-05
3.0906e-05
3.09586e-05
3.19073e-05
3.18351e-05
3.17852e-05
2.98129e-05
3.09153e-05
3.11748e-05
3.38579e-05
3.4806e-05
3.30172e-05
3.32516e-05
3.22677e-05
3.28207e-05
3.26894e-05
3.15317e-05
3.12378e-05
3.11423e-05
3.21015e-05
3.21066e-05
3.18452e-05
3.31008e-05
3.43903e-05
3.63625e-05
3.70178e-05
3.3792e-05
3.26689e-05
3.21616e-05
3.17355e-05
3.12207e-05
2.96276e-05
2.91622e-05
2.81666e-05
2.96282e-05
2.88484e-05
2.85205e-05
2.96454e-05
3.10657e-05
3.21013e-05
3.22405e-05
3.03615e-05
3.03382e-05
3.11939e-05
3.1136e-05
3.11704e-05
2.93913e-05
3.04189e-05
3.06261e-05
3.31062e-05
3.4168e-05
3.24427e-05
3.263e-05
3.15882e-05
3.22098e-05
3.21406e-05
3.11132e-05
3.06326e-05
3.04625e-05
3.13769e-05
3.14639e-05
3.13137e-05
3.25188e-05
3.36593e-05
3.56363e-05
3.6384e-05
3.32813e-05
3.20806e-05
3.1519e-05
3.11564e-05
3.06987e-05
2.9079e-05
2.82914e-05
2.71918e-05
2.88736e-05
2.8325e-05
2.78805e-05
2.87472e-05
2.98545e-05
3.12967e-05
3.15208e-05
2.96332e-05
2.94239e-05
3.02142e-05
3.05747e-05
3.066e-05
2.89348e-05
2.97793e-05
3.00578e-05
3.24288e-05
3.35713e-05
3.16513e-05
3.16195e-05
3.0697e-05
3.1728e-05
3.18393e-05
3.07233e-05
2.97928e-05
2.95754e-05
3.07177e-05
3.09097e-05
3.07146e-05
3.16433e-05
3.26814e-05
3.48647e-05
3.57818e-05
3.26371e-05
3.11875e-05
3.0649e-05
3.20863e-05
3.1491e-05
2.97606e-05
2.89394e-05
2.77651e-05
2.94422e-05
2.90085e-05
2.84716e-05
2.93505e-05
3.03132e-05
3.19161e-05
3.19636e-05
3.01174e-05
2.99814e-05
3.08678e-05
3.15656e-05
3.15666e-05
2.97669e-05
3.07192e-05
3.13211e-05
3.34125e-05
3.44038e-05
3.20836e-05
3.21452e-05
3.14035e-05
3.26379e-05
3.28122e-05
3.15503e-05
3.04909e-05
3.03401e-05
3.15856e-05
3.15963e-05
3.1321e-05
3.22673e-05
3.34477e-05
3.56584e-05
3.66e-05
3.33226e-05
3.19012e-05
3.14542e-05
3.441e-05
3.32746e-05
3.14717e-05
3.08791e-05
2.98868e-05
3.12515e-05
3.06913e-05
3.00678e-05
3.13325e-05
3.25781e-05
3.39242e-05
3.33255e-05
3.15697e-05
3.17442e-05
3.30729e-05
3.40242e-05
3.35125e-05
3.16874e-05
3.29609e-05
3.42463e-05
3.59538e-05
3.62571e-05
3.35942e-05
3.39803e-05
3.36986e-05
3.49205e-05
3.47878e-05
3.33195e-05
3.2579e-05
3.26863e-05
3.3845e-05
3.32982e-05
3.29031e-05
3.41815e-05
3.59452e-05
3.80295e-05
3.86375e-05
3.51338e-05
3.40565e-05
3.38695e-05
3.77986e-05
3.61006e-05
3.39801e-05
3.32242e-05
3.26973e-05
3.40448e-05
3.32538e-05
3.23189e-05
3.3823e-05
3.5583e-05
3.69083e-05
3.55535e-05
3.36526e-05
3.3953e-05
3.60391e-05
3.73962e-05
3.64589e-05
3.43998e-05
3.56381e-05
3.78005e-05
3.93037e-05
3.89133e-05
3.57065e-05
3.62518e-05
3.66466e-05
3.81292e-05
3.77082e-05
3.57833e-05
3.51745e-05
3.58301e-05
3.70371e-05
3.59115e-05
3.52989e-05
3.67445e-05
3.94303e-05
4.15642e-05
4.18185e-05
3.7695e-05
3.67205e-05
3.70336e-05
4.1677e-05
3.95474e-05
3.66031e-05
3.52335e-05
3.55098e-05
3.7374e-05
3.63228e-05
3.46073e-05
3.59774e-05
3.84123e-05
4.03529e-05
3.83015e-05
3.58331e-05
3.60169e-05
3.90901e-05
4.12189e-05
3.99881e-05
3.71955e-05
3.79962e-05
4.12903e-05
4.29141e-05
4.19431e-05
3.77334e-05
3.79942e-05
3.96367e-05
4.19857e-05
4.13014e-05
3.84461e-05
3.75619e-05
3.91062e-05
4.09209e-05
3.94311e-05
3.80901e-05
3.93495e-05
4.31756e-05
4.58044e-05
4.54066e-05
4.03512e-05
3.91787e-05
4.01944e-05
4.55727e-05
4.35751e-05
3.94496e-05
3.71977e-05
3.80327e-05
4.07312e-05
3.98778e-05
3.71134e-05
3.77516e-05
4.08411e-05
4.38533e-05
4.17027e-05
3.84152e-05
3.81973e-05
4.19018e-05
4.50589e-05
4.39178e-05
4.0123e-05
3.99967e-05
4.41061e-05
4.63957e-05
4.54361e-05
3.98683e-05
3.96234e-05
4.22651e-05
4.6002e-05
4.53983e-05
4.13297e-05
3.97546e-05
4.21535e-05
4.50448e-05
4.35672e-05
4.12367e-05
4.18674e-05
4.65209e-05
5.00921e-05
4.97277e-05
4.34049e-05
4.15509e-05
4.30517e-05
4.88265e-05
4.72256e-05
4.21675e-05
3.91756e-05
4.02339e-05
4.35461e-05
4.3139e-05
3.97165e-05
3.94881e-05
4.29583e-05
4.66395e-05
4.46083e-05
4.09583e-05
4.02815e-05
4.44846e-05
4.80928e-05
4.70734e-05
4.26628e-05
4.16187e-05
4.60698e-05
4.91683e-05
4.83978e-05
4.19485e-05
4.11251e-05
4.41337e-05
4.88917e-05
4.83312e-05
4.36608e-05
4.15264e-05
4.44473e-05
4.81541e-05
4.70048e-05
4.39132e-05
4.38562e-05
4.89407e-05
5.34207e-05
5.32996e-05
4.63961e-05
4.38128e-05
4.55434e-05
5.05179e-05
4.93038e-05
4.38873e-05
4.02093e-05
4.13228e-05
4.47542e-05
4.48472e-05
4.12418e-05
4.05194e-05
4.3966e-05
4.79136e-05
4.59518e-05
4.22068e-05
4.11405e-05
4.54524e-05
4.9454e-05
4.83711e-05
4.38851e-05
4.20227e-05
4.64168e-05
4.99908e-05
4.95738e-05
4.28842e-05
4.1578e-05
4.42204e-05
4.92829e-05
4.85887e-05
4.40984e-05
4.1915e-05
4.52608e-05
4.9272e-05
4.81877e-05
4.45991e-05
4.41895e-05
4.93989e-05
5.48371e-05
5.48215e-05
4.81309e-05
4.49549e-05
4.6807e-05
4.76089e-05
4.71553e-05
4.24233e-05
3.81292e-05
3.85918e-05
4.14051e-05
4.23298e-05
3.93512e-05
3.82752e-05
4.10006e-05
4.47804e-05
4.31153e-05
3.99167e-05
3.83483e-05
4.19612e-05
4.59791e-05
4.53556e-05
4.1712e-05
3.92765e-05
4.26781e-05
4.62055e-05
4.64428e-05
4.06622e-05
3.87422e-05
4.02352e-05
4.4703e-05
4.42969e-05
4.11271e-05
3.91935e-05
4.22748e-05
4.60458e-05
4.52094e-05
4.18218e-05
4.11926e-05
4.56641e-05
5.14301e-05
5.17601e-05
4.61458e-05
4.25027e-05
4.3838e-05
3.83183e-05
3.85198e-05
3.52136e-05
3.10398e-05
3.06423e-05
3.24315e-05
3.37136e-05
3.19947e-05
3.09638e-05
3.27562e-05
3.57877e-05
3.46328e-05
3.23952e-05
3.06756e-05
3.31037e-05
3.63195e-05
3.6191e-05
3.39435e-05
3.16222e-05
3.37268e-05
3.66999e-05
3.73446e-05
3.33556e-05
3.1187e-05
3.16974e-05
3.48303e-05
3.47635e-05
3.32316e-05
3.17157e-05
3.38936e-05
3.69072e-05
3.63762e-05
3.39466e-05
3.33169e-05
3.65869e-05
4.15892e-05
4.21439e-05
3.8107e-05
3.46178e-05
3.50722e-05
2.74765e-05
2.83926e-05
2.63431e-05
2.28497e-05
2.16319e-05
2.28418e-05
2.41347e-05
2.35669e-05
2.28894e-05
2.35425e-05
2.56984e-05
2.53348e-05
2.40512e-05
2.25357e-05
2.34682e-05
2.56408e-05
2.60422e-05
2.48788e-05
2.31161e-05
2.3795e-05
2.62249e-05
2.73463e-05
2.51154e-05
2.31885e-05
2.27332e-05
2.46812e-05
2.50676e-05
2.45563e-05
2.33927e-05
2.39835e-05
2.61292e-05
2.61184e-05
2.4912e-05
2.45021e-05
2.63352e-05
2.9931e-05
3.0936e-05
2.83666e-05
2.55175e-05
2.50187e-05
1.90111e-05
1.98797e-05
1.88014e-05
1.62073e-05
1.49634e-05
1.55539e-05
1.64707e-05
1.67585e-05
1.65094e-05
1.65874e-05
1.79379e-05
1.78917e-05
1.73293e-05
1.62904e-05
1.64048e-05
1.75036e-05
1.79892e-05
1.76039e-05
1.64244e-05
1.65054e-05
1.81209e-05
1.92394e-05
1.83724e-05
1.69199e-05
1.61089e-05
1.69126e-05
1.72536e-05
1.74834e-05
1.67468e-05
1.64756e-05
1.75479e-05
1.77138e-05
1.74691e-05
1.74172e-05
1.84825e-05
2.05846e-05
2.1471e-05
2.0055e-05
1.80036e-05
1.74184e-05
1.35588e-05
1.43935e-05
1.37482e-05
1.22478e-05
1.09921e-05
1.09739e-05
1.1703e-05
1.22591e-05
1.25568e-05
1.22471e-05
1.2665e-05
1.29879e-05
1.27785e-05
1.24309e-05
1.19799e-05
1.21259e-05
1.28479e-05
1.2823e-05
1.24986e-05
1.20895e-05
1.26912e-05
1.39451e-05
1.36873e-05
1.31155e-05
1.21626e-05
1.20447e-05
1.23929e-05
1.2746e-05
1.2717e-05
1.19472e-05
1.20212e-05
1.24731e-05
1.2596e-05
1.31463e-05
1.36101e-05
1.44541e-05
1.5306e-05
1.46675e-05
1.36344e-05
1.29796e-05
9.63396e-06
1.02914e-05
9.83485e-06
9.40697e-06
8.26593e-06
7.76083e-06
8.25319e-06
8.77225e-06
9.64548e-06
9.01821e-06
8.88324e-06
9.27421e-06
9.23943e-06
9.59358e-06
8.77981e-06
8.38509e-06
9.05873e-06
9.19641e-06
9.58581e-06
8.84767e-06
8.82921e-06
9.94108e-06
9.99779e-06
1.03103e-05
9.29755e-06
8.63407e-06
8.88322e-06
9.12822e-06
9.68978e-06
8.78761e-06
8.30925e-06
8.75369e-06
8.965e-06
1.00652e-05
1.00579e-05
1.0056e-05
1.07202e-05
1.05387e-05
1.05159e-05
9.78329e-06
6.5703e-06
7.08501e-06
6.91219e-06
6.82687e-06
5.97055e-06
5.28233e-06
5.71465e-06
6.19651e-06
6.99525e-06
6.26907e-06
5.88966e-06
6.4687e-06
6.57674e-06
6.99747e-06
6.22523e-06
5.60876e-06
6.23944e-06
6.62856e-06
6.98174e-06
6.24715e-06
5.93244e-06
6.88135e-06
7.11888e-06
7.59014e-06
6.75471e-06
5.89196e-06
6.17013e-06
6.51989e-06
7.05696e-06
6.25149e-06
5.5476e-06
5.95601e-06
6.23283e-06
7.14981e-06
6.96932e-06
6.54486e-06
7.17751e-06
7.41525e-06
7.67017e-06
7.09207e-06
3.8854e-06
4.27383e-06
4.68599e-06
4.88919e-06
3.9443e-06
3.13824e-06
3.44708e-06
4.2547e-06
4.97372e-06
4.03582e-06
3.447e-06
3.91563e-06
4.49895e-06
4.97835e-06
4.03509e-06
3.26925e-06
3.76534e-06
4.57487e-06
5.03087e-06
4.05413e-06
3.52874e-06
4.18486e-06
4.85061e-06
5.3512e-06
4.44292e-06
3.47733e-06
3.70737e-06
4.45692e-06
5.05541e-06
4.12144e-06
3.33004e-06
3.60903e-06
4.27926e-06
4.9853e-06
4.39957e-06
3.70939e-06
4.1495e-06
4.95291e-06
5.55294e-06
4.69737e-06
2.72331e-06
3.09427e-06
3.74499e-06
4.00359e-06
2.96545e-06
2.20916e-06
2.4464e-06
3.40675e-06
3.93833e-06
2.98886e-06
2.4072e-06
2.78421e-06
3.55901e-06
3.92499e-06
2.93659e-06
2.29107e-06
2.72506e-06
3.64526e-06
4.011e-06
3.01736e-06
2.54706e-06
3.05601e-06
3.86541e-06
4.25087e-06
3.23328e-06
2.4173e-06
2.6826e-06
3.67192e-06
4.09375e-06
3.0771e-06
2.39336e-06
2.60501e-06
3.4874e-06
4.02782e-06
3.1891e-06
2.51456e-06
2.87354e-06
3.95375e-06
4.49018e-06
3.44295e-06
2.21977e-06
2.72397e-06
3.38068e-06
3.54185e-06
2.5213e-06
1.83165e-06
2.18935e-06
3.06038e-06
3.40073e-06
2.53441e-06
2.00407e-06
2.50285e-06
3.15466e-06
3.32914e-06
2.44226e-06
1.86326e-06
2.4331e-06
3.27169e-06
3.45426e-06
2.55294e-06
2.14128e-06
2.74172e-06
3.45969e-06
3.61098e-06
2.6381e-06
1.9381e-06
2.41076e-06
3.38216e-06
3.60417e-06
2.61675e-06
1.98263e-06
2.3591e-06
3.21299e-06
3.5131e-06
2.67924e-06
2.06095e-06
2.54844e-06
3.58144e-06
3.87242e-06
2.83984e-06
1.713e-06
2.00066e-06
2.55763e-06
2.79646e-06
2.09944e-06
1.44256e-06
1.60377e-06
2.27188e-06
2.64121e-06
2.14779e-06
1.6121e-06
1.85885e-06
2.3485e-06
2.5734e-06
2.05286e-06
1.46603e-06
1.78361e-06
2.46218e-06
2.66432e-06
2.09963e-06
1.6497e-06
1.98594e-06
2.56121e-06
2.78984e-06
2.17279e-06
1.52833e-06
1.79745e-06
2.55574e-06
2.82548e-06
2.21804e-06
1.59749e-06
1.78508e-06
2.49564e-06
2.77046e-06
2.24105e-06
1.66932e-06
1.88136e-06
2.67626e-06
3.00086e-06
2.33172e-06
1.12997e-06
1.04574e-06
1.44724e-06
1.83072e-06
1.59393e-06
9.73257e-07
8.19433e-07
1.26009e-06
1.71884e-06
1.64672e-06
1.07456e-06
9.79262e-07
1.35501e-06
1.70748e-06
1.58101e-06
9.85923e-07
9.05483e-07
1.40919e-06
1.76915e-06
1.54969e-06
1.045e-06
1.02659e-06
1.45607e-06
1.84733e-06
1.66521e-06
1.03134e-06
9.12346e-07
1.43281e-06
1.87354e-06
1.69983e-06
1.07642e-06
9.29496e-07
1.43365e-06
1.81063e-06
1.67469e-06
1.15656e-06
9.76624e-07
1.50429e-06
1.9972e-06
1.7577e-06
7.16478e-07
5.18193e-07
8.23517e-07
1.24683e-06
1.18773e-06
6.60658e-07
4.06582e-07
7.41425e-07
1.20802e-06
1.2059e-06
7.04692e-07
4.80758e-07
8.00803e-07
1.2102e-06
1.16265e-06
6.49194e-07
4.30247e-07
8.33312e-07
1.24299e-06
1.08872e-06
6.53761e-07
5.24899e-07
8.47791e-07
1.28652e-06
1.25052e-06
6.97856e-07
4.38966e-07
8.39745e-07
1.32165e-06
1.22748e-06
7.09379e-07
4.53649e-07
8.1428e-07
1.25849e-06
1.22028e-06
7.63769e-07
4.6937e-07
8.57183e-07
1.41715e-06
1.28493e-06
3.45799e-07
1.37564e-07
4.93917e-07
9.58903e-07
9.27039e-07
3.63676e-07
9.77026e-08
4.78577e-07
9.75479e-07
9.25142e-07
3.62597e-07
1.28632e-07
5.11398e-07
9.78944e-07
9.07642e-07
3.46855e-07
1.04902e-07
5.29931e-07
1.00046e-06
8.18513e-07
2.95886e-07
1.5127e-07
5.18801e-07
9.87197e-07
9.62566e-07
3.91508e-07
1.17621e-07
5.50797e-07
1.05951e-06
9.35717e-07
3.59071e-07
1.06784e-07
5.05879e-07
9.81041e-07
9.15656e-07
4.14609e-07
1.1253e-07
5.07186e-07
1.10605e-06
9.65282e-07
3.33951e-07
7.77342e-08
4.03091e-07
8.94234e-07
9.29722e-07
3.67384e-07
6.44145e-08
4.23982e-07
9.44359e-07
9.26793e-07
3.56761e-07
6.35008e-08
4.20761e-07
9.35638e-07
9.07952e-07
3.56415e-07
5.9296e-08
4.4611e-07
9.67894e-07
8.27393e-07
2.75035e-07
8.93698e-08
4.1497e-07
8.78097e-07
9.25391e-07
3.72549e-07
6.42813e-08
4.66721e-07
9.98619e-07
9.20692e-07
3.48169e-07
5.78039e-08
4.12308e-07
9.07177e-07
8.99062e-07
4.18359e-07
6.19276e-08
4.01276e-07
1.02272e-06
9.60577e-07
2.39247e-07
8.71678e-09
2.79747e-07
7.15392e-07
7.40545e-07
2.66147e-07
5.04687e-09
3.1611e-07
7.7591e-07
7.2988e-07
2.52498e-07
5.95606e-09
2.92114e-07
7.64945e-07
7.36927e-07
2.60485e-07
4.92675e-09
3.23807e-07
7.93714e-07
6.64354e-07
1.87194e-07
2.03796e-08
2.83218e-07
6.97304e-07
7.44473e-07
2.7114e-07
5.46433e-09
3.37046e-07
8.11335e-07
7.35991e-07
2.44082e-07
7.67394e-09
2.91736e-07
7.31487e-07
7.243e-07
3.00344e-07
6.33796e-09
2.80609e-07
8.20658e-07
7.79889e-07
3.54958e-07
7.1732e-08
2.36716e-07
6.11192e-07
7.25707e-07
3.80694e-07
7.17006e-08
2.49974e-07
6.58045e-07
7.19597e-07
3.69751e-07
6.67727e-08
2.26683e-07
6.44696e-07
7.39384e-07
3.81828e-07
6.67955e-08
2.53519e-07
6.70427e-07
6.93416e-07
3.08069e-07
6.83314e-08
2.4928e-07
6.13576e-07
7.24899e-07
3.75067e-07
6.34004e-08
2.64554e-07
6.95811e-07
7.37425e-07
3.56634e-07
6.66558e-08
2.39847e-07
6.23796e-07
6.99776e-07
3.99737e-07
8.15031e-08
2.22411e-07
6.76728e-07
7.68484e-07
4.76602e-07
1.50565e-07
2.91657e-07
6.72137e-07
8.62507e-07
5.12615e-07
1.5424e-07
3.0869e-07
7.1286e-07
8.43611e-07
5.06675e-07
1.56406e-07
2.77451e-07
7.13994e-07
8.75388e-07
4.94596e-07
1.51493e-07
3.11479e-07
7.55094e-07
8.86224e-07
4.31946e-07
1.3288e-07
3.05247e-07
6.59787e-07
8.26742e-07
4.90177e-07
1.45163e-07
3.21578e-07
7.51476e-07
8.68287e-07
4.76195e-07
1.55555e-07
2.91934e-07
6.56285e-07
7.8676e-07
5.12438e-07
1.72501e-07
2.77608e-07
7.2433e-07
8.84155e-07
8.12625e-07
6.76944e-07
6.68905e-07
8.00138e-07
9.21398e-07
8.22875e-07
6.62629e-07
6.60866e-07
8.11981e-07
9.18614e-07
8.21089e-07
6.82327e-07
6.51193e-07
7.92388e-07
9.19721e-07
8.09096e-07
6.66153e-07
6.58425e-07
8.27597e-07
9.2642e-07
7.77202e-07
6.51962e-07
6.67602e-07
7.87415e-07
9.00061e-07
8.13677e-07
6.60732e-07
6.64609e-07
8.206e-07
9.26087e-07
8.19033e-07
6.88597e-07
6.69104e-07
7.92332e-07
9.03943e-07
8.342e-07
6.90993e-07
6.57473e-07
8.16358e-07
9.3028e-07
3.91355e-06
3.84895e-06
3.70282e-06
3.6723e-06
3.79574e-06
3.91302e-06
3.85179e-06
3.70854e-06
3.6565e-06
3.78087e-06
3.87459e-06
3.81746e-06
3.68563e-06
3.62132e-06
3.7803e-06
3.9011e-06
3.8037e-06
3.67591e-06
3.67577e-06
3.79635e-06
3.90851e-06
3.83196e-06
3.67903e-06
3.64868e-06
3.76655e-06
3.89454e-06
3.83608e-06
3.684e-06
3.65808e-06
3.81065e-06
3.92243e-06
3.8627e-06
3.7178e-06
3.6877e-06
3.82654e-06
3.90118e-06
3.85001e-06
3.71502e-06
3.67031e-06
3.78904e-06
3.44977e-06
3.2285e-06
3.04973e-06
3.12638e-06
3.35477e-06
3.45806e-06
3.23646e-06
3.05698e-06
3.12612e-06
3.35074e-06
3.4381e-06
3.24207e-06
3.04732e-06
3.09994e-06
3.38078e-06
3.44862e-06
3.21626e-06
3.05107e-06
3.1366e-06
3.38402e-06
3.45477e-06
3.20968e-06
3.03069e-06
3.13127e-06
3.34028e-06
3.4485e-06
3.25159e-06
3.05616e-06
3.14845e-06
3.38956e-06
3.47284e-06
3.24299e-06
3.06819e-06
3.13343e-06
3.34538e-06
3.42625e-06
3.25747e-06
3.06632e-06
3.13425e-06
3.37598e-06
5.62583e-05
5.62855e-05
5.6392e-05
5.63857e-05
5.63501e-05
5.62884e-05
5.62671e-05
5.62791e-05
5.63468e-05
5.62984e-05
5.62499e-05
5.63115e-05
5.64557e-05
5.65719e-05
5.63946e-05
5.63305e-05
5.63645e-05
5.63849e-05
5.64037e-05
5.62895e-05
5.62245e-05
5.62761e-05
5.64469e-05
5.64078e-05
5.63997e-05
5.62796e-05
5.61815e-05
5.63083e-05
5.63221e-05
5.62992e-05
5.61945e-05
5.62696e-05
5.6313e-05
5.63216e-05
5.62078e-05
5.61543e-05
5.62932e-05
5.63263e-05
5.63511e-05
5.63686e-05
2.44857e-05
3.32594e-05
3.79998e-05
2.94807e-05
1.96481e-05
2.28388e-05
3.20207e-05
3.64509e-05
2.79189e-05
2.07975e-05
2.4963e-05
3.42704e-05
3.78405e-05
2.68693e-05
2.05666e-05
2.53438e-05
3.52805e-05
3.92002e-05
3.09029e-05
2.50862e-05
3.02808e-05
4.11215e-05
4.4571e-05
3.15871e-05
2.00961e-05
2.37961e-05
3.65213e-05
4.28513e-05
3.23454e-05
2.21325e-05
2.44982e-05
3.32313e-05
3.74584e-05
2.92641e-05
2.48282e-05
2.95686e-05
4.04283e-05
4.25301e-05
3.08817e-05
2.1393e-05
2.45905e-05
3.33062e-05
3.81162e-05
2.97104e-05
1.98264e-05
2.29358e-05
3.20389e-05
3.65724e-05
2.81376e-05
2.10004e-05
2.50675e-05
3.42939e-05
3.79844e-05
2.70592e-05
2.07441e-05
2.54335e-05
3.53334e-05
3.9344e-05
3.11094e-05
2.53217e-05
3.04883e-05
4.11725e-05
4.47738e-05
3.18582e-05
2.02968e-05
2.38861e-05
3.65019e-05
4.30202e-05
3.25902e-05
2.23194e-05
2.45909e-05
3.32369e-05
3.75273e-05
2.94216e-05
2.50207e-05
2.96857e-05
4.04521e-05
4.27035e-05
3.11048e-05
2.15838e-05
2.61005e-05
3.49403e-05
3.96897e-05
3.10489e-05
2.12126e-05
2.4483e-05
3.37761e-05
3.82249e-05
2.94493e-05
2.233e-05
2.65429e-05
3.59817e-05
3.94879e-05
2.82482e-05
2.19977e-05
2.7002e-05
3.69692e-05
4.09753e-05
3.25086e-05
2.69392e-05
3.23638e-05
4.31172e-05
4.65812e-05
3.32168e-05
2.15342e-05
2.52801e-05
3.81988e-05
4.4712e-05
3.40711e-05
2.37235e-05
2.62471e-05
3.48811e-05
3.91996e-05
3.07435e-05
2.64347e-05
3.13433e-05
4.24664e-05
4.44702e-05
3.25012e-05
2.2852e-05
3.009e-05
3.86827e-05
4.2855e-05
3.41795e-05
2.46728e-05
2.83782e-05
3.73735e-05
4.14387e-05
3.24489e-05
2.58197e-05
3.0314e-05
3.94653e-05
4.24465e-05
3.0982e-05
2.52692e-05
3.08975e-05
4.07806e-05
4.42989e-05
3.57076e-05
3.08513e-05
3.69811e-05
4.71653e-05
4.99568e-05
3.62905e-05
2.47946e-05
2.89823e-05
4.18278e-05
4.80711e-05
3.73351e-05
2.72424e-05
3.03216e-05
3.85126e-05
4.24002e-05
3.3828e-05
3.01856e-05
3.56401e-05
4.66714e-05
4.79881e-05
3.55823e-05
2.62186e-05
3.4671e-05
4.24409e-05
4.67124e-05
3.85491e-05
2.93124e-05
3.28213e-05
4.0993e-05
4.53855e-05
3.65975e-05
3.04246e-05
3.45748e-05
4.28649e-05
4.60903e-05
3.48572e-05
2.97575e-05
3.53945e-05
4.45156e-05
4.83275e-05
4.02755e-05
3.61199e-05
4.24129e-05
5.14505e-05
5.42043e-05
4.07361e-05
2.93562e-05
3.33631e-05
4.52659e-05
5.20741e-05
4.17569e-05
3.20418e-05
3.49293e-05
4.21481e-05
4.63767e-05
3.80883e-05
3.5261e-05
4.07516e-05
5.09465e-05
5.22244e-05
4.00761e-05
3.0919e-05
4.07571e-05
4.76437e-05
5.15067e-05
4.39765e-05
3.51518e-05
3.8584e-05
4.61375e-05
5.0322e-05
4.20258e-05
3.62788e-05
4.00959e-05
4.76818e-05
5.06638e-05
3.98259e-05
3.53711e-05
4.11676e-05
4.97669e-05
5.34082e-05
4.59812e-05
4.26019e-05
4.91601e-05
5.71304e-05
5.9341e-05
4.6151e-05
3.50926e-05
3.89703e-05
5.02797e-05
5.70491e-05
4.72198e-05
3.80826e-05
4.10191e-05
4.72845e-05
5.13587e-05
4.36653e-05
4.17343e-05
4.72836e-05
5.68403e-05
5.75278e-05
4.57085e-05
3.69124e-05
4.72743e-05
5.30379e-05
5.62186e-05
4.95411e-05
4.15366e-05
4.49547e-05
5.12908e-05
5.51318e-05
4.75149e-05
4.24215e-05
4.60579e-05
5.21699e-05
5.4945e-05
4.49667e-05
4.13498e-05
4.73553e-05
5.4919e-05
5.8113e-05
5.18336e-05
4.94551e-05
5.61978e-05
6.26192e-05
6.39709e-05
5.13667e-05
4.12377e-05
4.52813e-05
5.51842e-05
6.16165e-05
5.25701e-05
4.44403e-05
4.73373e-05
5.25508e-05
5.62964e-05
4.96869e-05
4.88825e-05
5.45788e-05
6.25856e-05
6.24995e-05
5.14235e-05
4.33632e-05
5.27179e-05
5.75068e-05
5.99947e-05
5.37034e-05
4.64787e-05
4.97877e-05
5.5287e-05
5.86915e-05
5.16537e-05
4.71526e-05
5.04686e-05
5.53451e-05
5.78766e-05
4.88344e-05
4.6129e-05
5.21725e-05
5.87946e-05
6.16937e-05
5.62459e-05
5.46466e-05
6.13043e-05
6.64694e-05
6.6842e-05
5.4902e-05
4.61852e-05
5.06194e-05
5.93039e-05
6.51129e-05
5.66066e-05
4.94772e-05
5.24151e-05
5.69305e-05
6.03571e-05
5.47974e-05
5.49811e-05
6.05279e-05
6.71279e-05
6.62547e-05
5.57722e-05
4.86467e-05
5.43954e-05
5.8271e-05
5.97546e-05
5.39036e-05
4.77104e-05
5.09748e-05
5.56285e-05
5.79982e-05
5.17781e-05
4.8004e-05
5.11585e-05
5.4958e-05
5.68644e-05
4.89217e-05
4.70621e-05
5.31135e-05
5.85369e-05
6.07356e-05
5.58796e-05
5.53698e-05
6.17024e-05
6.56307e-05
6.49738e-05
5.43513e-05
4.72655e-05
5.21776e-05
5.98268e-05
6.45687e-05
5.67137e-05
5.08339e-05
5.37101e-05
5.76939e-05
6.04424e-05
5.58244e-05
5.69385e-05
6.23104e-05
6.73183e-05
6.57008e-05
5.60573e-05
5.01275e-05
5.07475e-05
5.42664e-05
5.50487e-05
4.93817e-05
4.42898e-05
4.73703e-05
5.16024e-05
5.32069e-05
4.74572e-05
4.43136e-05
4.72684e-05
5.0542e-05
5.20711e-05
4.49691e-05
4.34702e-05
4.91602e-05
5.38399e-05
5.5499e-05
5.05716e-05
5.05242e-05
5.62309e-05
5.98681e-05
5.84434e-05
4.94394e-05
4.36453e-05
4.86139e-05
5.52359e-05
5.91378e-05
5.19708e-05
4.73558e-05
5.01696e-05
5.37771e-05
5.57635e-05
5.17258e-05
5.29868e-05
5.81338e-05
6.23654e-05
6.05975e-05
5.17496e-05
4.66575e-05
4.31638e-05
4.66477e-05
4.82642e-05
4.26919e-05
3.79876e-05
4.01897e-05
4.43189e-05
4.6354e-05
4.11754e-05
3.7939e-05
4.00629e-05
4.32095e-05
4.52056e-05
3.92572e-05
3.72302e-05
4.1674e-05
4.59888e-05
4.82289e-05
4.35189e-05
4.28484e-05
4.71332e-05
5.07658e-05
5.06503e-05
4.276e-05
3.74224e-05
4.11484e-05
4.68701e-05
5.11694e-05
4.48321e-05
4.08452e-05
4.28883e-05
4.63339e-05
4.86221e-05
4.49614e-05
4.53583e-05
4.95683e-05
5.36707e-05
5.34702e-05
4.53354e-05
4.02523e-05
3.42371e-05
3.71191e-05
3.92098e-05
3.50117e-05
3.06774e-05
3.15132e-05
3.49328e-05
3.73994e-05
3.39992e-05
3.07628e-05
3.14627e-05
3.38436e-05
3.6229e-05
3.24657e-05
3.01678e-05
3.28179e-05
3.62301e-05
3.8806e-05
3.56863e-05
3.44526e-05
3.69663e-05
3.96662e-05
4.04456e-05
3.52227e-05
3.0398e-05
3.21566e-05
3.63172e-05
4.0828e-05
3.67682e-05
3.31243e-05
3.38861e-05
3.6558e-05
3.91278e-05
3.69261e-05
3.66314e-05
3.92139e-05
4.24901e-05
4.35712e-05
3.75796e-05
3.29531e-05
2.62729e-05
2.79128e-05
3.02562e-05
2.80052e-05
2.42452e-05
2.38546e-05
2.61723e-05
2.90352e-05
2.7581e-05
2.4591e-05
2.38288e-05
2.51275e-05
2.79737e-05
2.63086e-05
2.40705e-05
2.48535e-05
2.69219e-05
2.97841e-05
2.86058e-05
2.72538e-05
2.80152e-05
2.92415e-05
3.10807e-05
2.83882e-05
2.45271e-05
2.45102e-05
2.69205e-05
3.12521e-05
2.94575e-05
2.61038e-05
2.54595e-05
2.69169e-05
2.99166e-05
2.94388e-05
2.89188e-05
2.96487e-05
3.14155e-05
3.34367e-05
3.00395e-05
2.64073e-05
2.04831e-05
2.12769e-05
2.33248e-05
2.24235e-05
1.954e-05
1.8488e-05
1.98296e-05
2.2488e-05
2.23865e-05
1.99768e-05
1.84873e-05
1.88537e-05
2.15246e-05
2.13042e-05
1.9493e-05
1.91339e-05
2.01254e-05
2.28305e-05
2.28384e-05
2.19948e-05
2.17661e-05
2.20255e-05
2.37872e-05
2.283e-05
2.01456e-05
1.92068e-05
2.03e-05
2.38438e-05
2.34118e-05
2.07711e-05
1.93947e-05
1.98817e-05
2.28435e-05
2.34004e-05
2.30414e-05
2.26711e-05
2.33112e-05
2.53802e-05
2.38702e-05
2.12549e-05
1.61387e-05
1.6238e-05
1.77868e-05
1.78724e-05
1.58279e-05
1.44121e-05
1.49703e-05
1.70563e-05
1.78344e-05
1.60738e-05
1.43533e-05
1.41501e-05
1.62976e-05
1.6933e-05
1.56803e-05
1.46814e-05
1.49333e-05
1.71889e-05
1.79584e-05
1.76736e-05
1.68012e-05
1.66296e-05
1.79254e-05
1.81407e-05
1.64588e-05
1.50662e-05
1.5263e-05
1.7853e-05
1.82458e-05
1.64641e-05
1.47904e-05
1.47194e-05
1.72382e-05
1.84512e-05
1.83376e-05
1.73413e-05
1.72904e-05
1.90231e-05
1.88602e-05
1.71965e-05
1.18807e-05
1.17237e-05
1.31109e-05
1.36552e-05
1.20876e-05
1.05324e-05
1.06902e-05
1.24273e-05
1.35543e-05
1.22032e-05
1.0524e-05
1.01554e-05
1.1933e-05
1.27854e-05
1.18576e-05
1.05426e-05
1.05357e-05
1.24585e-05
1.33732e-05
1.31822e-05
1.19644e-05
1.18749e-05
1.30371e-05
1.37423e-05
1.25589e-05
1.10091e-05
1.08168e-05
1.28916e-05
1.36738e-05
1.24168e-05
1.07168e-05
1.04674e-05
1.26407e-05
1.40362e-05
1.37815e-05
1.24329e-05
1.22367e-05
1.39009e-05
1.43751e-05
1.31185e-05
7.92152e-06
7.82759e-06
8.95204e-06
9.46962e-06
8.29591e-06
6.99103e-06
7.0528e-06
8.43995e-06
9.51524e-06
8.46792e-06
7.14238e-06
6.81718e-06
8.15583e-06
8.8771e-06
8.16598e-06
6.99735e-06
6.91692e-06
8.42727e-06
9.10986e-06
8.91431e-06
7.83458e-06
7.87019e-06
8.84027e-06
9.49457e-06
8.59725e-06
7.35516e-06
7.1243e-06
8.72974e-06
9.45947e-06
8.53385e-06
7.18687e-06
6.95003e-06
8.62692e-06
9.75082e-06
9.33725e-06
8.17447e-06
8.08632e-06
9.50288e-06
1.00054e-05
8.99166e-06
4.76956e-06
4.68594e-06
5.52902e-06
6.00906e-06
5.19986e-06
4.19147e-06
4.18855e-06
5.21339e-06
6.14001e-06
5.39573e-06
4.42071e-06
4.11693e-06
5.07506e-06
5.66327e-06
5.16418e-06
4.23295e-06
4.10906e-06
5.2092e-06
5.75718e-06
5.55761e-06
4.70512e-06
4.69638e-06
5.47076e-06
6.03476e-06
5.37056e-06
4.42687e-06
4.22794e-06
5.35283e-06
6.02714e-06
5.35074e-06
4.38275e-06
4.13299e-06
5.31807e-06
6.14581e-06
5.75966e-06
4.87706e-06
4.80776e-06
5.91788e-06
6.40623e-06
5.6222e-06
2.62874e-06
2.56982e-06
3.25663e-06
3.69889e-06
3.13608e-06
2.31503e-06
2.30034e-06
3.06437e-06
3.81917e-06
3.26659e-06
2.49314e-06
2.29871e-06
3.01585e-06
3.50004e-06
3.0892e-06
2.35187e-06
2.25956e-06
3.09643e-06
3.56062e-06
3.30493e-06
2.62052e-06
2.57223e-06
3.2491e-06
3.73402e-06
3.22224e-06
2.4407e-06
2.30958e-06
3.13709e-06
3.72705e-06
3.20526e-06
2.45311e-06
2.24096e-06
3.09573e-06
3.73718e-06
3.37798e-06
2.65589e-06
2.61385e-06
3.52237e-06
3.99688e-06
3.3524e-06
1.4095e-06
1.45856e-06
2.06325e-06
2.36726e-06
1.89178e-06
1.24624e-06
1.3214e-06
1.95148e-06
2.4352e-06
1.9504e-06
1.34249e-06
1.32705e-06
1.93413e-06
2.23039e-06
1.80825e-06
1.2606e-06
1.29634e-06
1.99765e-06
2.28453e-06
1.93485e-06
1.42231e-06
1.44655e-06
2.07655e-06
2.39294e-06
1.93051e-06
1.30655e-06
1.31842e-06
2.00407e-06
2.39393e-06
1.91876e-06
1.32485e-06
1.25653e-06
1.94548e-06
2.37532e-06
1.97318e-06
1.39739e-06
1.456e-06
2.25287e-06
2.58238e-06
1.98622e-06
8.26369e-07
9.99442e-07
1.5176e-06
1.64188e-06
1.18587e-06
7.43144e-07
9.36223e-07
1.46216e-06
1.66352e-06
1.20759e-06
7.85491e-07
9.42677e-07
1.44711e-06
1.52814e-06
1.10007e-06
7.35529e-07
9.13619e-07
1.49283e-06
1.5796e-06
1.18288e-06
8.44744e-07
9.84165e-07
1.53061e-06
1.64834e-06
1.1968e-06
7.61123e-07
9.34422e-07
1.50981e-06
1.66394e-06
1.20556e-06
7.84364e-07
8.7863e-07
1.44788e-06
1.64236e-06
1.20149e-06
8.0954e-07
9.88215e-07
1.66823e-06
1.79586e-06
1.2277e-06
5.96386e-07
7.87387e-07
1.13829e-06
1.13978e-06
7.93503e-07
5.53991e-07
7.69177e-07
1.11537e-06
1.12054e-06
8.08813e-07
5.66735e-07
7.72376e-07
1.11057e-06
1.047e-06
7.29018e-07
5.33589e-07
7.32697e-07
1.12828e-06
1.09567e-06
7.90727e-07
6.11382e-07
7.698e-07
1.15172e-06
1.14384e-06
7.89005e-07
5.43606e-07
7.69797e-07
1.1523e-06
1.14965e-06
8.21366e-07
5.72927e-07
7.22208e-07
1.11561e-06
1.13557e-06
7.82965e-07
5.81918e-07
7.81988e-07
1.25594e-06
1.25103e-06
8.19069e-07
5.49419e-07
6.28552e-07
7.7213e-07
7.56458e-07
6.10342e-07
5.29341e-07
6.36653e-07
7.60808e-07
7.10331e-07
6.30702e-07
5.28732e-07
6.27254e-07
7.75059e-07
6.96363e-07
5.66515e-07
5.06078e-07
5.95258e-07
7.67996e-07
7.39365e-07
6.14285e-07
5.51502e-07
6.12916e-07
7.84492e-07
7.67269e-07
6.04015e-07
5.14839e-07
6.35163e-07
7.7567e-07
7.58373e-07
6.44086e-07
5.38867e-07
6.01678e-07
7.72149e-07
7.43847e-07
5.88027e-07
5.43694e-07
6.33256e-07
8.37162e-07
8.38472e-07
6.40866e-07
5.71423e-07
4.91185e-07
5.09607e-07
5.65956e-07
6.02006e-07
5.67406e-07
5.21251e-07
4.99836e-07
5.27399e-07
6.29102e-07
5.71918e-07
5.11817e-07
5.44644e-07
5.57872e-07
5.87238e-07
5.62368e-07
4.95196e-07
5.22887e-07
5.90172e-07
6.14763e-07
5.68018e-07
4.92633e-07
5.35259e-07
5.98232e-07
6.08625e-07
5.7343e-07
5.22328e-07
5.14338e-07
5.86671e-07
6.44128e-07
5.79351e-07
4.92701e-07
5.19732e-07
5.52652e-07
5.77193e-07
5.87007e-07
5.12771e-07
5.42028e-07
6.44138e-07
6.36645e-07
6.36678e-07
4.72723e-07
5.00772e-07
6.43454e-07
7.4703e-07
6.46258e-07
5.09414e-07
4.84035e-07
6.28723e-07
7.73307e-07
6.52252e-07
5.02006e-07
5.40976e-07
6.7059e-07
7.4431e-07
6.6041e-07
5.0063e-07
5.2156e-07
6.97473e-07
7.50265e-07
6.29658e-07
4.82817e-07
5.2547e-07
6.77809e-07
7.48848e-07
6.63409e-07
5.09784e-07
5.0599e-07
6.83956e-07
7.75536e-07
6.49267e-07
4.81376e-07
5.05146e-07
6.4051e-07
7.16634e-07
6.68905e-07
5.00577e-07
5.11303e-07
7.26417e-07
7.75858e-07
1.03705e-06
8.19399e-07
8.85159e-07
1.1236e-06
1.23817e-06
1.04826e-06
8.51948e-07
8.72512e-07
1.13765e-06
1.26911e-06
1.06047e-06
8.50258e-07
9.3224e-07
1.16846e-06
1.24629e-06
1.08278e-06
8.48513e-07
9.11562e-07
1.19038e-06
1.22297e-06
1.03172e-06
8.3569e-07
9.09789e-07
1.14378e-06
1.23007e-06
1.06549e-06
8.45826e-07
8.92126e-07
1.17061e-06
1.25909e-06
1.04819e-06
8.26171e-07
8.77015e-07
1.12221e-06
1.21888e-06
1.07341e-06
8.36965e-07
8.86381e-07
1.19136e-06
1.26163e-06
1.87926e-06
1.72617e-06
1.89588e-06
2.13586e-06
2.17078e-06
1.90495e-06
1.74573e-06
1.90796e-06
2.1909e-06
2.18048e-06
1.94061e-06
1.764e-06
1.92912e-06
2.20934e-06
2.19819e-06
1.96091e-06
1.75774e-06
1.92912e-06
2.20322e-06
2.15146e-06
1.91781e-06
1.7515e-06
1.92983e-06
2.18005e-06
2.15248e-06
1.91142e-06
1.74852e-06
1.91116e-06
2.17887e-06
2.15904e-06
1.90685e-06
1.72733e-06
1.8765e-06
2.16428e-06
2.15765e-06
1.91248e-06
1.73472e-06
1.90833e-06
2.20827e-06
2.18294e-06
1.33502e-06
1.24833e-06
1.31256e-06
1.4219e-06
1.46796e-06
1.34897e-06
1.24516e-06
1.31517e-06
1.44533e-06
1.45911e-06
1.37204e-06
1.27867e-06
1.32286e-06
1.46544e-06
1.49791e-06
1.36748e-06
1.25991e-06
1.33387e-06
1.44001e-06
1.46199e-06
1.35746e-06
1.24415e-06
1.33109e-06
1.45034e-06
1.46131e-06
1.35588e-06
1.25937e-06
1.32198e-06
1.4398e-06
1.45552e-06
1.35017e-06
1.24669e-06
1.30017e-06
1.43414e-06
1.44319e-06
1.33731e-06
1.25839e-06
1.31114e-06
1.44301e-06
1.47877e-06
3.99428e-06
4.00453e-06
4.06118e-06
4.09427e-06
4.03944e-06
4.01525e-06
4.0401e-06
4.05041e-06
4.09906e-06
4.08611e-06
4.01022e-06
4.0441e-06
4.12236e-06
4.10955e-06
4.07611e-06
4.03664e-06
4.04525e-06
4.08442e-06
4.11682e-06
4.06142e-06
3.99151e-06
4.06438e-06
4.08871e-06
4.07303e-06
4.07714e-06
4.04174e-06
4.03339e-06
4.07664e-06
4.12113e-06
4.06328e-06
3.99185e-06
4.02717e-06
4.08111e-06
4.07638e-06
4.05305e-06
4.01872e-06
4.00118e-06
4.04194e-06
4.0811e-06
4.04855e-06
1.58756e-05
1.59056e-05
1.58039e-05
1.56825e-05
1.58347e-05
1.58944e-05
1.57396e-05
1.5785e-05
1.57746e-05
1.58304e-05
1.59318e-05
1.58008e-05
1.56514e-05
1.55849e-05
1.57378e-05
1.59288e-05
1.57583e-05
1.5592e-05
1.57462e-05
1.58266e-05
1.58745e-05
1.58785e-05
1.5732e-05
1.57375e-05
1.57745e-05