/*--------------------------------*- C++ -*----------------------------------*\
  =========                 |
  \\      /  F ield         | OpenFOAM: The Open Source CFD Toolbox
   \\    /   O peration     | Website:  https://openfoam.org
    \\  /    A nd           | Version:  10
     \\/     M anipulation  |
\*---------------------------------------------------------------------------*/
FoamFile
{
    format      ascii;
    class       volScalarField;
    location    "5";
    object      pPrime2Mean;
}
// * * * * * * * * * * * * * * * * * * * * * * * * * * * * * * * * * * * * * //

dimensions      [0 4 -4 0 0 0 0];

internalField   nonuniform List<scalar> 
25600
(
2.20994e-06
5.60032e-06
2.94369e-05
2.00383e-05
2.1525e-05
8.58154e-06
5.39748e-06
8.17922e-06
4.12513e-05
2.33105e-05
2.49358e-06
9.04814e-06
4.15535e-06
1.06321e-05
4.58717e-06
6.39576e-06
4.78242e-06
4.75952e-06
7.80745e-06
2.43906e-05
2.91518e-06
4.58651e-06
4.91519e-06
3.41119e-06
2.50125e-05
1.33539e-05
2.2974e-05
2.37405e-05
3.48277e-06
2.8744e-06
2.94069e-06
4.72256e-06
3.95568e-06
2.01323e-05
2.1294e-05
2.51394e-06
5.61898e-05
2.98031e-05
2.54993e-05
2.39181e-05
5.2293e-06
1.24094e-05
4.68542e-05
1.08537e-05
1.17398e-05
1.71267e-05
2.8351e-06
3.88832e-06
5.94003e-05
3.8264e-05
5.87468e-06
4.06176e-06
2.98403e-06
1.95981e-05
1.02426e-05
4.41388e-06
6.69355e-06
6.43972e-06
1.49585e-05
3.81075e-05
6.88926e-06
1.02694e-05
1.07825e-05
3.08901e-06
3.93129e-05
2.34579e-05
1.33318e-05
1.34605e-05
2.58212e-06
3.65147e-06
3.886e-06
2.55295e-06
9.99936e-06
3.5313e-05
1.13951e-05
4.97966e-06
8.21788e-05
1.58557e-05
1.34834e-05
4.04102e-05
2.07449e-06
4.7509e-06
2.80752e-05
1.96437e-05
2.22881e-05
7.55322e-06
6.12435e-06
8.97032e-06
3.87733e-05
2.16936e-05
2.66537e-06
9.97324e-06
5.47183e-06
9.16497e-06
4.67481e-06
6.88748e-06
4.69882e-06
4.80928e-06
7.20059e-06
2.27923e-05
2.49282e-06
3.64213e-06
4.36879e-06
4.03502e-06
2.20394e-05
1.12887e-05
2.62779e-05
2.67843e-05
3.99138e-06
3.11535e-06
3.33164e-06
6.02303e-06
3.65399e-06
1.86298e-05
2.37957e-05
2.56222e-06
5.39387e-05
3.22549e-05
3.02731e-05
2.19742e-05
2.75427e-06
8.41636e-06
3.89028e-05
1.28602e-05
1.41584e-05
1.43854e-05
3.68369e-06
5.78517e-06
4.91421e-05
2.89706e-05
4.19894e-06
5.6431e-06
3.57899e-06
1.37443e-05
7.31101e-06
4.57477e-06
5.32389e-06
5.40404e-06
1.07208e-05
3.30248e-05
4.8037e-06
7.3519e-06
8.41904e-06
2.5292e-06
3.40435e-05
1.82804e-05
1.87185e-05
1.90922e-05
3.02243e-06
3.75256e-06
3.29222e-06
3.68987e-06
6.56425e-06
2.80584e-05
1.43933e-05
3.58736e-06
7.24996e-05
2.00721e-05
2.24786e-05
3.0143e-05
2.29156e-06
5.19274e-06
3.04682e-05
1.78588e-05
1.8992e-05
1.10875e-05
4.82653e-06
8.81858e-06
4.12605e-05
2.17282e-05
2.51717e-06
6.63619e-06
3.77312e-06
9.93995e-06
4.63393e-06
5.98546e-06
5.68743e-06
5.77521e-06
1.02987e-05
2.76926e-05
3.55208e-06
4.90943e-06
5.01373e-06
3.89721e-06
3.11405e-05
1.57481e-05
2.54164e-05
2.91898e-05
4.64187e-06
2.91743e-06
2.53423e-06
4.58889e-06
3.545e-06
2.07355e-05
1.56445e-05
3.09213e-06
5.79548e-05
2.65313e-05
2.78657e-05
2.4542e-05
2.01446e-06
6.39704e-06
3.27661e-05
1.64535e-05
1.79358e-05
1.12064e-05
3.02286e-06
5.42148e-06
4.70903e-05
2.72319e-05
3.55971e-06
4.98737e-06
2.77618e-06
1.1818e-05
4.57549e-06
5.68603e-06
6.71325e-06
7.07177e-06
1.65691e-05
2.62801e-05
4.71565e-06
7.74525e-06
7.09499e-06
3.31189e-06
3.43959e-05
2.03707e-05
2.02675e-05
3.04809e-05
4.6698e-06
3.0243e-06
4.71589e-06
2.83966e-06
4.5621e-06
2.1706e-05
1.18128e-05
2.50159e-06
6.4176e-05
2.40389e-05
2.44844e-05
2.91377e-05
2.11064e-06
5.46363e-06
3.12977e-05
1.64074e-05
1.97409e-05
7.10362e-06
3.03907e-06
4.34093e-06
4.17085e-05
2.35213e-05
3.4101e-06
5.46721e-06
3.23813e-06
1.0591e-05
4.16187e-06
7.34618e-06
6.71475e-06
7.18086e-06
1.7377e-05
1.94252e-05
2.50436e-06
8.38629e-06
8.70577e-06
3.1588e-06
2.50857e-05
1.70513e-05
1.75737e-05
3.35957e-05
7.46488e-06
2.55092e-06
4.8549e-06
3.59756e-06
5.13474e-06
1.73495e-05
1.2269e-05
2.10039e-06
5.72975e-05
2.14797e-05
2.04953e-05
2.83921e-05
2.07358e-06
6.47572e-06
3.23727e-05
1.2509e-05
1.37683e-05
6.77223e-06
2.66509e-06
2.61941e-06
4.60153e-05
2.18651e-05
4.41329e-06
3.78095e-06
3.20365e-06
1.04326e-05
3.36971e-06
7.29576e-06
6.38723e-06
6.60873e-06
1.85067e-05
2.28423e-05
2.83806e-06
1.146e-05
1.3555e-05
2.53543e-06
2.02405e-05
1.5569e-05
1.31044e-05
2.71022e-05
7.87359e-06
2.71828e-06
6.61718e-06
2.83897e-06
6.36547e-06
1.56288e-05
8.45274e-06
3.28286e-06
5.56215e-05
2.02184e-05
1.66902e-05
2.37258e-05
2.88994e-06
5.14802e-06
2.82116e-05
1.42091e-05
1.15765e-05
5.60142e-06
2.48954e-06
1.90472e-06
5.40055e-05
2.19526e-05
4.84809e-06
2.81724e-06
2.57627e-06
1.10956e-05
3.33046e-06
9.26401e-06
4.78051e-06
4.83155e-06
1.62122e-05
2.4985e-05
3.46685e-06
1.15544e-05
1.31712e-05
3.05353e-06
1.78819e-05
7.50743e-06
1.36598e-05
2.57999e-05
7.00355e-06
2.59473e-06
5.78617e-06
2.13779e-06
5.92516e-06
1.36592e-05
1.17798e-05
3.23046e-06
4.53318e-05
2.96857e-05
1.45686e-05
1.99692e-05
4.11431e-06
4.97465e-06
3.1201e-05
1.39495e-05
8.82154e-06
5.52043e-06
2.49724e-06
2.62961e-06
6.48464e-05
2.19171e-05
5.47582e-06
1.70948e-06
2.11167e-06
1.84081e-05
5.67579e-06
9.69759e-06
3.64838e-06
4.58044e-06
1.55831e-05
2.24902e-05
3.03274e-06
1.22952e-05
1.26445e-05
2.95425e-06
1.9397e-05
4.16149e-06
1.33792e-05
2.28074e-05
4.18054e-06
2.56886e-06
4.8574e-06
2.2029e-06
5.58593e-06
1.18262e-05
1.39376e-05
2.0596e-06
3.45441e-05
4.14035e-05
1.08987e-05
2.70586e-05
5.26369e-06
2.62379e-06
3.27016e-05
1.12547e-05
6.53683e-06
5.33192e-06
2.18066e-06
2.40074e-06
7.23631e-05
1.93694e-05
3.41628e-06
2.25571e-06
2.5472e-06
2.52438e-05
7.84981e-06
1.04922e-05
5.11822e-06
8.25363e-06
1.19798e-05
1.66242e-05
2.23722e-06
1.13817e-05
1.19833e-05
2.03454e-06
1.87224e-05
3.56071e-06
1.28136e-05
2.02485e-05
4.32157e-06
2.62994e-06
5.05188e-06
2.06132e-06
4.8974e-06
8.7355e-06
1.33919e-05
1.81608e-06
4.01091e-05
2.94044e-05
5.22592e-06
3.07428e-05
4.93989e-06
2.03153e-06
3.08832e-05
9.08648e-06
4.83807e-06
6.87297e-06
1.58853e-06
3.75901e-06
6.85077e-05
1.86779e-05
2.57288e-06
2.96832e-06
3.76852e-06
2.93361e-05
1.07528e-05
1.07541e-05
9.30438e-06
8.76993e-06
7.51809e-06
1.67266e-05
1.9148e-06
7.66565e-06
1.15408e-05
1.51474e-06
1.82315e-05
4.63435e-06
1.12699e-05
1.7491e-05
4.49109e-06
3.20374e-06
5.89736e-06
1.97701e-06
3.79421e-06
6.3291e-06
1.18237e-05
1.44766e-06
3.81014e-05
1.87078e-05
1.25029e-06
3.48721e-05
4.93536e-06
2.19972e-06
2.28895e-05
7.83129e-06
2.80187e-06
9.94019e-06
1.59448e-06
4.80486e-06
6.52433e-05
1.4702e-05
2.50007e-06
2.34576e-06
2.27899e-06
2.64401e-05
1.72798e-05
6.1868e-06
1.10297e-05
8.24456e-06
4.88832e-06
1.55291e-05
2.58319e-06
4.16408e-06
1.1074e-05
1.53955e-06
1.61398e-05
7.05169e-06
1.14933e-05
1.842e-05
4.12404e-06
5.08218e-06
4.80138e-06
1.43172e-06
2.57933e-06
4.43224e-06
8.34354e-06
1.10438e-06
2.4738e-05
1.66379e-05
1.01339e-06
2.63668e-05
4.5445e-06
2.62311e-06
1.34173e-05
8.10399e-06
1.63641e-06
1.33839e-05
1.3814e-06
4.21152e-06
6.8619e-05
1.57576e-05
2.41963e-06
1.88598e-06
1.61726e-06
2.3513e-05
2.22308e-05
2.49505e-06
6.66272e-06
9.32472e-06
4.35273e-06
1.25904e-05
4.9419e-06
2.03531e-06
9.41035e-06
1.57615e-06
1.36692e-05
8.21132e-06
1.02893e-05
1.86472e-05
3.64251e-06
7.89699e-06
3.81161e-06
1.46006e-06
1.87452e-06
2.64129e-06
3.9584e-06
6.28566e-07
1.28063e-05
1.80976e-05
1.98593e-06
1.39633e-05
5.04715e-06
3.14594e-06
7.24878e-06
1.0111e-05
1.34397e-06
1.76254e-05
1.28037e-06
3.50743e-06
5.86928e-05
1.63038e-05
2.45607e-06
1.45433e-06
1.2766e-06
2.15876e-05
2.82168e-05
2.19488e-06
4.4705e-06
8.03433e-06
4.2283e-06
1.30365e-05
5.77777e-06
2.18821e-06
6.33994e-06
2.29092e-06
1.21976e-05
9.86767e-06
6.1839e-06
1.57401e-05
2.75791e-06
1.05629e-05
4.89297e-06
1.64462e-06
1.33488e-06
2.4751e-06
2.38143e-06
1.28334e-06
9.7845e-06
1.64636e-05
3.82615e-06
5.99193e-06
2.43381e-06
4.59552e-06
4.51184e-06
1.17649e-05
1.72071e-06
2.41997e-05
1.16987e-06
1.73243e-06
5.16297e-05
9.44386e-06
5.49643e-06
1.54669e-06
2.39871e-06
2.27286e-05
2.6254e-05
1.96879e-06
3.58623e-06
5.18398e-06
3.23202e-06
1.24285e-05
4.08552e-06
2.40232e-06
5.35679e-06
4.0889e-06
1.23255e-05
1.18535e-05
2.75975e-06
9.07523e-06
1.95203e-06
1.10051e-05
5.91856e-06
1.64274e-06
8.91816e-07
3.09493e-06
8.23519e-07
2.57047e-06
1.13465e-05
9.40865e-06
2.12137e-06
4.82708e-06
1.43176e-06
3.00895e-06
1.41141e-06
2.32567e-05
1.68791e-06
2.47365e-05
1.4555e-06
1.22078e-06
4.20875e-05
7.49207e-06
9.17854e-06
1.53151e-06
4.62781e-06
1.95732e-05
2.10652e-05
1.81279e-06
3.57223e-06
3.58766e-06
2.54783e-06
1.01392e-05
2.91357e-06
2.48056e-06
4.72397e-06
7.6867e-06
1.61654e-05
1.13763e-05
1.91446e-06
5.0755e-06
2.12328e-06
8.47595e-06
4.93686e-06
1.69007e-06
8.17073e-07
2.88636e-06
5.826e-07
4.55149e-06
9.5363e-06
6.04191e-06
1.12853e-06
4.60288e-06
2.65676e-06
9.8968e-07
1.72121e-06
3.62752e-05
4.03584e-06
2.31278e-05
2.17013e-06
2.00654e-06
3.10546e-05
9.13177e-06
1.09277e-05
1.40355e-06
2.10999e-06
9.06869e-06
1.35837e-05
1.39862e-06
1.80669e-06
2.08653e-06
2.30316e-06
1.07292e-05
1.26019e-06
2.08496e-06
2.01764e-06
4.50737e-06
1.41874e-05
1.06365e-05
1.80039e-06
3.18898e-06
2.80671e-06
1.01319e-05
8.40592e-06
1.09313e-06
8.77679e-07
3.56876e-06
6.49727e-07
4.06915e-06
6.61756e-06
2.74771e-06
7.71438e-07
1.97891e-06
5.06583e-06
7.05559e-07
3.20824e-06
5.16574e-05
1.22105e-05
1.69655e-05
3.69357e-06
2.35212e-06
1.82971e-05
7.83641e-06
1.22686e-05
2.18291e-06
1.51914e-06
3.51863e-06
8.66379e-06
1.30266e-06
9.76989e-07
1.13775e-06
1.67104e-06
8.22659e-06
1.85105e-06
6.62311e-07
1.05469e-06
8.98032e-07
5.24813e-06
7.41283e-06
1.57337e-06
1.67696e-06
3.69049e-06
1.05315e-05
1.12733e-05
8.75652e-07
5.77526e-07
2.20131e-06
6.49049e-07
3.03242e-06
3.48372e-06
7.47284e-07
6.38391e-07
6.37124e-07
7.51794e-06
8.80791e-07
6.03088e-06
6.60512e-05
2.43421e-05
9.938e-06
6.09409e-06
2.49777e-06
7.5351e-06
4.59316e-06
1.27107e-05
1.95711e-06
3.73956e-06
3.26062e-06
5.16511e-06
1.05708e-06
8.93698e-07
2.36356e-06
1.39472e-06
2.65646e-06
1.88497e-06
1.02626e-06
1.75502e-06
5.1579e-07
4.23755e-07
9.27222e-07
1.71533e-06
1.62399e-06
2.73193e-06
4.99056e-06
4.99751e-06
4.32409e-07
2.78688e-07
8.37207e-07
4.65279e-07
3.08248e-06
1.39737e-06
1.21922e-06
1.01377e-06
3.71665e-07
4.92944e-06
3.99424e-07
4.41686e-06
7.23009e-05
4.31118e-05
4.31607e-06
1.06911e-05
1.5331e-06
3.6593e-06
4.25167e-06
7.16135e-06
1.2652e-06
5.94734e-06
4.99634e-06
4.84643e-06
6.19592e-07
5.97117e-07
5.62701e-06
1.55326e-06
7.45988e-07
9.14023e-07
1.04145e-06
3.08532e-06
7.50611e-07
1.89199e-06
7.62845e-07
9.90673e-07
1.38761e-06
2.42172e-06
4.22358e-06
3.77427e-06
5.83701e-07
4.51314e-07
1.04067e-06
3.58339e-07
6.17018e-06
7.42399e-06
2.73433e-07
3.00498e-06
1.31536e-06
4.25252e-06
1.33412e-06
1.68475e-06
4.95502e-05
4.04376e-05
1.95708e-06
1.23521e-05
1.17459e-06
3.52348e-06
7.27805e-06
1.68937e-06
8.414e-07
4.35374e-06
2.0203e-06
1.75627e-06
5.08819e-07
1.23541e-06
3.89211e-06
1.8334e-06
2.97778e-06
9.8807e-07
6.40442e-07
1.9952e-06
8.71512e-07
1.25444e-06
7.09268e-07
3.43096e-06
1.78556e-06
4.26327e-06
7.73947e-06
6.16596e-06
8.53481e-07
1.1008e-06
1.73808e-06
6.80736e-07
7.01836e-06
1.23598e-05
5.87813e-07
6.24592e-06
5.24268e-06
2.65373e-06
1.04029e-06
3.79312e-07
3.4941e-05
3.77802e-05
9.41147e-07
1.01928e-05
1.44226e-06
1.88534e-06
7.31026e-06
7.80721e-07
1.23559e-06
1.97605e-06
1.68328e-06
2.18101e-06
5.33596e-07
1.81422e-06
3.57164e-06
6.29287e-06
1.03369e-06
9.58172e-07
4.4146e-07
6.16023e-07
1.34556e-06
3.75409e-07
1.57499e-06
4.50716e-06
1.38203e-06
1.46458e-06
4.44601e-06
5.47271e-06
9.89224e-07
8.98994e-07
6.63525e-07
1.86796e-06
4.24403e-06
7.0094e-06
2.99916e-07
8.57999e-06
9.453e-06
1.70798e-06
1.33914e-06
3.07343e-07
2.72709e-05
4.02694e-05
1.56275e-06
6.12761e-06
3.65487e-06
3.03159e-06
5.65481e-06
9.52789e-07
2.19392e-06
1.13871e-06
2.20832e-06
3.20949e-06
1.1155e-06
1.84662e-06
4.46906e-06
1.1831e-05
6.18379e-07
1.23507e-06
5.13236e-07
1.5188e-06
4.27659e-06
1.13498e-06
2.25556e-06
6.25786e-06
9.15792e-07
5.63686e-07
3.44518e-06
7.15707e-06
1.96249e-06
1.64359e-06
1.09528e-06
2.85268e-06
1.18807e-06
5.36861e-06
9.66009e-07
1.64064e-05
1.6509e-05
5.2848e-06
7.74735e-06
3.02658e-07
1.09936e-05
1.43805e-05
9.46074e-07
4.77093e-06
2.85003e-06
2.21892e-06
6.64308e-06
4.74534e-06
4.34375e-07
9.14107e-07
2.20711e-06
4.11587e-06
2.74805e-06
5.54792e-07
5.72508e-06
2.04352e-05
5.67347e-07
9.41208e-07
6.84337e-07
3.42016e-07
1.03342e-06
3.4772e-07
5.67406e-07
4.95482e-06
1.13346e-06
3.76635e-07
2.06447e-06
4.11474e-06
1.05396e-06
2.7164e-06
4.41222e-06
7.53848e-07
2.00843e-06
1.14275e-05
1.87016e-06
8.22898e-06
8.62416e-06
1.574e-06
2.48196e-06
2.12971e-06
2.00382e-06
6.317e-06
1.11961e-06
2.77457e-06
3.05112e-06
1.0171e-06
6.27569e-07
5.0116e-07
7.37731e-07
2.11752e-07
6.18137e-07
1.28204e-06
1.49504e-06
4.37295e-07
4.06587e-06
1.6902e-05
6.44248e-07
4.18438e-07
2.94939e-07
2.54021e-07
2.16371e-06
1.6864e-06
7.23089e-07
2.33325e-06
4.74788e-07
4.28611e-06
2.04291e-07
2.97457e-06
8.7673e-07
2.51495e-06
8.25931e-06
1.62918e-07
1.18624e-06
1.10102e-05
1.35995e-06
2.61674e-06
5.68221e-06
2.84613e-06
3.82811e-06
1.41217e-06
9.62769e-07
4.22526e-06
1.09071e-06
1.34725e-06
4.17492e-06
3.99577e-06
1.62224e-06
2.30644e-06
7.42844e-07
4.88865e-07
1.60455e-07
2.45291e-07
2.39567e-07
2.78014e-06
2.72546e-07
6.96757e-06
6.97922e-07
2.06876e-07
2.79673e-07
4.2781e-07
1.22297e-06
1.4295e-06
8.46855e-07
5.61493e-06
3.14476e-06
3.00963e-07
3.21637e-07
1.08226e-06
2.08864e-07
3.58626e-07
1.8341e-06
2.33631e-07
8.24089e-07
1.10251e-05
1.00602e-06
1.11041e-07
1.05065e-06
3.36609e-06
3.07705e-07
3.88933e-06
2.79666e-07
1.86985e-06
5.77681e-07
4.11172e-07
1.39824e-06
3.80541e-06
9.44644e-07
9.73871e-07
1.22261e-06
2.99815e-06
1.88962e-06
2.4533e-06
2.92989e-06
1.73547e-07
2.2283e-06
8.15854e-06
1.67655e-06
2.05545e-06
1.19488e-06
2.33607e-07
1.80274e-06
6.31562e-07
3.31446e-07
6.79202e-07
3.21423e-07
5.50393e-06
3.23439e-06
1.25722e-06
1.32894e-06
1.30355e-06
1.16158e-06
1.30567e-06
1.52554e-07
6.11619e-06
3.52763e-06
2.29189e-07
6.87858e-06
2.19547e-06
2.53646e-07
2.69642e-06
3.01669e-07
9.97219e-07
2.83975e-07
1.88048e-06
3.33314e-07
1.73538e-06
5.91652e-07
7.48163e-07
8.52895e-07
1.15498e-06
3.09327e-07
1.72098e-06
2.77373e-06
4.73153e-07
2.36179e-07
3.53147e-06
1.26103e-06
3.45971e-06
1.94744e-06
3.42046e-07
1.50523e-06
1.48073e-06
1.27672e-07
5.38716e-06
4.15574e-06
1.92926e-07
2.53624e-07
7.29674e-07
1.45398e-07
1.72084e-07
9.18933e-07
3.00899e-06
6.02651e-07
1.44948e-06
3.73572e-06
2.12298e-07
2.12442e-06
1.42552e-06
1.55886e-06
4.20872e-06
3.48779e-06
1.75876e-06
3.739e-06
2.17197e-06
5.02893e-06
7.57514e-06
5.18521e-07
6.06038e-07
7.47041e-07
2.96756e-07
8.40914e-07
1.47367e-07
2.02965e-06
3.65085e-07
6.39201e-07
3.46448e-07
2.22636e-07
2.18708e-06
2.98989e-06
3.94906e-07
8.22375e-07
2.47464e-06
7.20286e-07
9.70598e-07
3.22116e-06
1.52639e-07
3.78577e-07
2.22972e-07
1.2053e-07
4.44435e-07
1.36414e-07
6.41926e-06
2.49903e-07
1.82995e-07
1.28886e-06
2.57366e-07
5.68056e-07
4.54516e-07
6.10419e-07
3.99136e-07
2.81135e-06
1.17102e-06
4.55112e-07
9.14107e-07
3.49709e-07
4.23841e-06
3.61395e-06
1.05295e-06
2.89224e-07
2.84023e-07
3.11222e-07
3.15423e-07
9.68645e-07
7.42994e-07
1.57524e-07
3.48839e-07
2.16713e-07
2.01186e-07
5.75318e-07
2.63205e-07
3.2185e-07
4.64186e-06
3.72558e-07
7.26828e-07
4.80438e-06
2.53952e-07
1.31675e-07
2.72101e-07
2.45017e-06
1.07724e-06
2.33555e-07
7.9184e-06
2.58486e-06
4.39595e-07
1.99098e-06
1.48182e-07
5.48809e-07
1.72654e-06
1.60357e-06
3.42921e-07
4.31959e-06
1.3138e-06
1.54015e-06
2.07805e-07
3.77755e-07
8.93025e-07
9.19983e-07
8.86397e-07
2.68775e-06
2.17226e-07
1.29823e-06
4.88372e-07
2.4472e-07
1.63606e-06
1.53414e-07
1.02433e-06
3.05158e-06
1.08986e-06
2.58988e-06
1.95515e-06
1.65261e-07
1.25935e-06
4.78423e-07
4.05995e-07
1.88641e-06
9.74598e-07
2.89623e-07
2.27156e-06
6.27541e-06
1.26213e-06
9.6891e-07
6.08495e-06
2.84328e-06
1.25416e-07
6.53489e-07
4.22294e-07
5.77204e-07
8.80654e-06
2.52116e-05
3.96573e-06
0.000119997
2.03523e-05
2.38136e-05
4.6892e-06
5.81724e-06
3.57679e-05
8.74978e-06
3.48566e-05
8.04118e-05
2.92731e-06
5.28763e-05
6.8569e-06
4.48675e-06
2.76972e-06
2.83081e-05
2.32962e-06
1.93803e-05
3.12745e-06
2.87274e-06
9.89692e-06
1.84968e-05
6.60144e-06
1.16777e-05
4.64723e-06
2.33537e-05
5.5642e-05
1.91009e-05
7.47683e-06
3.09458e-06
4.66134e-06
1.76948e-05
3.25009e-05
7.98552e-06
3.98277e-05
7.25728e-05
5.41578e-06
1.38545e-05
1.74257e-05
4.15138e-05
3.22606e-06
9.19989e-05
1.05265e-05
3.9067e-05
1.08872e-05
1.34264e-05
5.42002e-05
1.60771e-05
2.21225e-05
5.96991e-05
6.13039e-06
7.39717e-05
1.48e-05
3.27842e-06
4.67833e-06
1.64393e-05
6.24004e-06
3.3197e-05
8.86529e-06
8.25006e-06
4.02438e-06
9.56228e-06
1.27048e-05
2.03101e-05
7.24996e-06
3.86113e-05
7.97657e-05
3.38317e-05
1.64689e-05
5.99532e-06
1.00392e-05
3.07452e-05
5.14257e-05
1.84263e-05
2.40746e-05
5.22157e-05
5.62683e-06
2.48831e-05
9.07464e-06
2.5319e-05
4.58575e-06
0.000127016
1.97082e-05
2.29052e-05
4.08181e-06
6.00841e-06
3.60946e-05
8.15172e-06
3.69486e-05
8.41965e-05
3.06625e-06
5.2475e-05
6.82667e-06
4.03125e-06
2.72972e-06
3.0031e-05
2.50968e-06
1.83353e-05
3.15593e-06
3.23279e-06
1.1081e-05
2.04473e-05
6.22006e-06
1.08711e-05
4.25222e-06
2.34187e-05
5.65147e-05
1.96562e-05
8.24216e-06
3.1675e-06
4.88378e-06
1.68631e-05
3.27338e-05
9.24775e-06
3.89553e-05
7.71604e-05
5.36975e-06
1.51975e-05
1.57081e-05
3.38989e-05
3.58184e-06
0.000112541
1.17396e-05
3.43839e-05
7.58174e-06
1.15697e-05
5.17137e-05
1.26898e-05
2.47503e-05
6.77268e-05
5.29271e-06
6.81456e-05
1.09646e-05
3.10121e-06
4.65721e-06
1.79537e-05
5.51278e-06
2.95432e-05
4.95985e-06
4.80949e-06
6.44101e-06
1.44049e-05
9.54612e-06
1.67017e-05
5.91349e-06
3.27423e-05
7.0321e-05
2.59922e-05
1.289e-05
4.1999e-06
7.65257e-06
2.32479e-05
4.20032e-05
1.44285e-05
3.1984e-05
7.0186e-05
4.94674e-06
2.03493e-05
1.44413e-05
2.88873e-05
5.00707e-06
0.000130343
1.24663e-05
3.51507e-05
5.2555e-06
9.6459e-06
4.80681e-05
1.09404e-05
2.85007e-05
7.46227e-05
4.84175e-06
6.38312e-05
8.40851e-06
3.23773e-06
4.06246e-06
1.77081e-05
4.36718e-06
2.82758e-05
4.09158e-06
2.90512e-06
8.27323e-06
1.43701e-05
7.692e-06
1.48567e-05
5.26533e-06
2.68639e-05
6.4096e-05
2.44097e-05
1.25728e-05
3.05897e-06
7.05937e-06
2.20459e-05
3.72538e-05
1.19101e-05
4.04828e-05
8.97099e-05
5.73977e-06
1.4302e-05
1.71904e-05
3.34401e-05
4.36488e-06
0.000133214
1.10819e-05
4.66895e-05
8.20157e-06
1.15049e-05
5.59159e-05
1.19818e-05
2.88548e-05
6.70952e-05
5.05427e-06
7.34413e-05
1.07665e-05
3.18111e-06
5.09307e-06
1.41618e-05
4.44864e-06
2.80738e-05
5.93256e-06
2.99896e-06
5.34366e-06
6.13576e-06
1.04722e-05
1.77225e-05
6.48633e-06
3.23127e-05
7.16953e-05
2.97568e-05
1.83331e-05
3.94014e-06
7.29098e-06
2.94573e-05
4.4581e-05
1.61548e-05
3.53483e-05
8.92259e-05
5.54727e-06
1.54462e-05
1.59895e-05
3.32438e-05
4.57616e-06
0.000139153
1.37833e-05
4.78549e-05
7.89041e-06
9.80003e-06
5.46437e-05
1.17669e-05
3.68114e-05
7.01883e-05
4.45778e-06
7.02921e-05
9.29547e-06
3.06433e-06
5.27968e-06
1.73633e-05
4.37576e-06
2.21662e-05
2.28398e-06
1.95892e-06
4.71842e-06
3.18301e-06
1.36994e-05
1.55095e-05
5.3899e-06
3.00951e-05
6.51095e-05
2.73597e-05
1.67318e-05
4.53034e-06
6.69148e-06
2.81495e-05
4.20646e-05
1.77397e-05
3.80483e-05
8.46825e-05
5.4069e-06
1.69904e-05
1.4846e-05
3.52978e-05
3.1901e-06
0.000115246
1.25518e-05
5.1829e-05
6.02671e-06
9.76425e-06
5.38829e-05
1.23063e-05
3.9641e-05
7.32233e-05
3.97961e-06
6.88014e-05
7.89899e-06
2.95786e-06
5.97803e-06
1.65258e-05
6.63661e-06
2.44089e-05
1.2077e-06
1.01023e-06
3.24956e-06
2.55197e-06
1.79793e-05
1.49028e-05
4.7025e-06
2.46244e-05
5.89204e-05
2.76256e-05
1.61368e-05
4.24948e-06
7.43527e-06
2.95689e-05
4.67813e-05
1.72688e-05
4.18174e-05
7.69203e-05
3.97343e-06
1.87928e-05
1.06972e-05
2.98464e-05
3.01175e-06
8.40647e-05
9.54533e-06
4.97266e-05
5.6134e-06
7.44877e-06
4.99627e-05
1.023e-05
3.97923e-05
7.91073e-05
2.35532e-06
6.1691e-05
5.81698e-06
3.31489e-06
5.53653e-06
1.5907e-05
6.90947e-06
3.03199e-05
1.52512e-06
2.27275e-06
2.77113e-06
3.35279e-06
1.90478e-05
1.31231e-05
3.52817e-06
1.53143e-05
5.51449e-05
2.20209e-05
1.52165e-05
3.53097e-06
4.52981e-06
2.5074e-05
3.98989e-05
1.19537e-05
6.65945e-05
9.83235e-05
4.41197e-06
1.75714e-05
8.19351e-06
2.47061e-05
3.45663e-06
5.87928e-05
5.92784e-06
4.83485e-05
1.10553e-05
4.84217e-06
4.65639e-05
8.16207e-06
3.11484e-05
7.0808e-05
2.06269e-06
6.60435e-05
6.11718e-06
3.80901e-06
4.82644e-06
1.49403e-05
5.67864e-06
4.18509e-05
1.56261e-06
2.37911e-06
2.33228e-06
6.45497e-06
2.21651e-05
9.93635e-06
3.22958e-06
8.55109e-06
5.15333e-05
1.89829e-05
1.57558e-05
4.35325e-06
3.38715e-06
2.37852e-05
2.66629e-05
9.79782e-06
9.28778e-05
0.000103196
5.63455e-06
2.24277e-05
5.49259e-06
1.96826e-05
3.73677e-06
5.11965e-05
5.57334e-06
4.74233e-05
1.42133e-05
4.38026e-06
3.79486e-05
5.93139e-06
2.99224e-05
5.90278e-05
1.7225e-06
6.27703e-05
4.90293e-06
3.99729e-06
4.05689e-06
1.51337e-05
4.4877e-06
4.63221e-05
1.59127e-06
2.06324e-06
2.36125e-06
7.99058e-06
2.74153e-05
6.96308e-06
3.22851e-06
3.52878e-06
3.18329e-05
1.94733e-05
1.32106e-05
3.74441e-06
4.90755e-06
2.92953e-05
2.27431e-05
1.44687e-05
6.25207e-05
7.31153e-05
6.17278e-06
2.2946e-05
4.95259e-06
1.66588e-05
3.20458e-06
4.45536e-05
5.83745e-06
4.79223e-05
1.44408e-05
6.16348e-06
3.73454e-05
5.44148e-06
3.60592e-05
5.13714e-05
1.99748e-06
5.27578e-05
3.27363e-06
5.13442e-06
3.98181e-06
1.09777e-05
3.72184e-06
4.3941e-05
1.09439e-06
2.50506e-06
2.11373e-06
6.37004e-06
2.90302e-05
6.81899e-06
3.91569e-06
2.64078e-06
1.68274e-05
1.88132e-05
9.92317e-06
2.59575e-06
5.80779e-06
3.70931e-05
3.64206e-05
1.10229e-05
5.55791e-05
5.73944e-05
6.05175e-06
2.06144e-05
3.55114e-06
1.26952e-05
1.86811e-06
3.3387e-05
5.04873e-06
4.05282e-05
1.41467e-05
6.34329e-06
3.85793e-05
6.06918e-06
3.43351e-05
3.81407e-05
2.18271e-06
4.61538e-05
3.08163e-06
5.66597e-06
3.36352e-06
8.89285e-06
2.05739e-06
3.72037e-05
9.11906e-07
3.63393e-06
2.2017e-06
4.30051e-06
2.50064e-05
7.96601e-06
4.2283e-06
3.31671e-06
1.22918e-05
1.12643e-05
7.14897e-06
1.47318e-06
4.23529e-06
3.87583e-05
3.02668e-05
2.50329e-06
4.75256e-05
4.43765e-05
5.16362e-06
1.52409e-05
1.98676e-06
9.48702e-06
1.68735e-06
2.63619e-05
3.54859e-06
3.25374e-05
1.04688e-05
7.53422e-06
3.79865e-05
4.18181e-06
2.66639e-05
1.6103e-05
2.3486e-06
4.13525e-05
3.11773e-06
4.37142e-06
3.58555e-06
7.50094e-06
1.67371e-06
2.77534e-05
1.23467e-06
3.81853e-06
1.89676e-06
2.77423e-06
1.92832e-05
8.8822e-06
3.61987e-06
6.43301e-06
1.11285e-05
7.30297e-06
6.27784e-06
1.1291e-06
2.89599e-06
3.2347e-05
2.17015e-05
1.24633e-06
3.96686e-05
2.86298e-05
6.76768e-06
1.19997e-05
2.05542e-06
9.43004e-06
2.08263e-06
2.46521e-05
2.62678e-06
3.20566e-05
1.00304e-05
7.1998e-06
3.49318e-05
2.0074e-06
2.51413e-05
6.07565e-06
1.32348e-06
2.79682e-05
3.77795e-06
2.88636e-06
4.18047e-06
5.67415e-06
1.76123e-06
1.81279e-05
1.25635e-06
3.48097e-06
1.87513e-06
1.64228e-06
1.11609e-05
6.65424e-06
3.27217e-06
8.6311e-06
1.06933e-05
8.3432e-06
6.34149e-06
1.53984e-06
1.71635e-06
2.60544e-05
2.3141e-05
1.07358e-06
2.35013e-05
2.06875e-05
7.59072e-06
1.34335e-05
1.76886e-06
8.19084e-06
2.39585e-06
1.8005e-05
2.35212e-06
2.63623e-05
9.4936e-06
3.35354e-06
2.28181e-05
1.77144e-06
2.31128e-05
3.77664e-06
1.47882e-06
1.3681e-05
3.84605e-06
3.24495e-06
3.35043e-06
2.75649e-06
1.40436e-06
1.42084e-05
9.30529e-07
1.54746e-06
1.72638e-06
1.52609e-06
4.70226e-06
4.13636e-06
2.38214e-06
8.41876e-06
1.53247e-05
1.03249e-05
7.40368e-06
1.64379e-06
1.40018e-06
2.47965e-05
3.00172e-05
3.61818e-06
7.78317e-06
1.27029e-05
7.70902e-06
1.35699e-05
1.73012e-06
4.05015e-06
1.23893e-06
2.48094e-05
4.40311e-06
1.8508e-05
7.18914e-06
2.26912e-06
1.80976e-05
2.0222e-06
1.43775e-05
1.81754e-06
1.24533e-06
7.57763e-06
5.44265e-06
2.20679e-06
2.61009e-06
1.0262e-06
9.51328e-07
1.13583e-05
5.3864e-07
4.79532e-07
5.75801e-07
1.92222e-06
1.25465e-06
2.37744e-06
2.01831e-06
5.90772e-06
1.6116e-05
9.81365e-06
5.52673e-06
2.11047e-06
1.22746e-06
1.93322e-05
2.5841e-05
8.5949e-06
2.4015e-06
7.24398e-06
7.17793e-06
9.13327e-06
1.71751e-06
1.36959e-06
2.58689e-06
3.29428e-05
6.04705e-06
1.3749e-05
5.92653e-06
1.67598e-06
1.85744e-05
4.55628e-06
8.17012e-06
1.31554e-06
1.33448e-06
5.91372e-06
8.42192e-06
9.2442e-07
2.07893e-06
1.35777e-06
1.49163e-06
1.00429e-05
5.03915e-07
4.24113e-07
4.85501e-07
2.49082e-06
1.20778e-06
1.17408e-06
1.55296e-06
3.72325e-06
1.28593e-05
1.04328e-05
3.46661e-06
2.75159e-06
9.75348e-07
1.60032e-05
1.76146e-05
8.23614e-06
1.10468e-06
5.32855e-06
6.65606e-06
6.64419e-06
6.83353e-07
3.22093e-06
7.39596e-07
2.40875e-05
6.69793e-06
8.20893e-06
4.48696e-06
1.39532e-06
1.04297e-05
8.32982e-06
6.09477e-06
1.38033e-06
2.05773e-06
5.64812e-06
1.19225e-05
1.06186e-06
1.42946e-06
3.14561e-06
1.97885e-06
5.22497e-06
1.02491e-06
1.6341e-06
1.23262e-06
3.32659e-06
5.66061e-06
1.89451e-06
1.51032e-06
1.60942e-06
8.13652e-06
1.17366e-05
7.73051e-06
9.65574e-07
1.13275e-06
8.20381e-06
1.12169e-05
1.07011e-05
1.07864e-06
2.81369e-06
7.32878e-06
8.07282e-06
9.62861e-07
5.99222e-06
1.18958e-06
1.35594e-05
5.39668e-06
7.69944e-06
5.72037e-06
2.39479e-06
4.77777e-06
8.83073e-06
5.05718e-06
1.33301e-06
2.07555e-06
2.35955e-06
8.99756e-06
1.31267e-06
7.69013e-07
2.32731e-06
1.602e-06
2.10179e-06
5.63605e-07
1.09323e-06
6.16173e-06
3.89991e-07
9.65409e-06
5.25048e-06
1.79035e-06
1.23669e-06
6.15494e-06
7.12148e-06
7.66543e-06
6.40581e-07
5.90927e-07
5.31457e-06
5.71031e-06
8.69495e-06
1.7357e-06
7.25965e-07
9.66523e-06
1.09957e-05
3.66683e-06
1.2026e-05
3.25468e-06
1.28949e-05
9.44779e-06
4.17673e-06
5.68022e-06
3.45859e-06
1.14169e-06
7.06081e-06
1.52265e-06
8.6462e-07
2.31467e-06
1.89553e-06
8.027e-06
1.32984e-06
9.80266e-07
1.10124e-06
1.01344e-06
1.26456e-06
1.66654e-06
1.05286e-06
3.0045e-06
5.50962e-07
5.45806e-06
1.93902e-06
9.74425e-07
1.01857e-06
2.35469e-06
1.75889e-06
2.57353e-06
5.97322e-07
5.79837e-07
2.62635e-06
2.39466e-06
8.6079e-06
2.05827e-06
1.19532e-06
9.66477e-06
1.54298e-05
4.48216e-07
2.18164e-06
1.32598e-06
1.36344e-05
1.49973e-05
1.43439e-06
5.92459e-06
1.19458e-06
1.70747e-06
7.45108e-06
1.15662e-06
9.21933e-07
1.36322e-06
7.50269e-07
4.57583e-06
9.8718e-07
2.98832e-06
5.3479e-07
8.8699e-07
5.13284e-07
1.87694e-06
1.17151e-06
1.32498e-06
6.9471e-07
2.14306e-06
5.66918e-07
4.60504e-06
2.29499e-06
1.85438e-06
2.12133e-06
2.80556e-06
7.95283e-07
1.03586e-06
4.47582e-06
2.21394e-06
8.68418e-06
1.03921e-06
6.62399e-06
1.91546e-06
7.50769e-06
1.4181e-06
4.06917e-07
1.85521e-06
5.77945e-06
6.19198e-06
2.90854e-06
1.08789e-05
2.17134e-06
2.70699e-06
9.74045e-06
2.76048e-06
1.17483e-06
1.69944e-06
9.71152e-07
5.64951e-06
2.76649e-06
4.25406e-06
1.5847e-06
6.64574e-07
8.0229e-07
1.6854e-06
7.81751e-07
5.60361e-07
1.38781e-06
4.87888e-07
7.31162e-07
5.64253e-06
2.78749e-06
9.12719e-07
1.34435e-06
2.93691e-06
1.61136e-06
2.48942e-06
4.93499e-06
1.42933e-06
1.17059e-05
9.24608e-06
5.72005e-07
2.46678e-06
3.83231e-06
3.25305e-07
1.23756e-06
1.70883e-06
1.1737e-05
1.69634e-05
7.07823e-07
7.4115e-06
5.68455e-06
3.52242e-06
6.17866e-06
2.00696e-06
6.24157e-07
5.09218e-07
7.61923e-07
1.1923e-06
8.7882e-07
6.21986e-06
6.35365e-07
1.50176e-06
1.0975e-06
9.9477e-07
1.23725e-06
8.71095e-07
1.89888e-06
5.57915e-07
7.09631e-07
5.00944e-06
1.25154e-06
9.82129e-07
4.79627e-07
7.26712e-07
2.95048e-07
7.07951e-07
2.27966e-06
2.54458e-07
5.33046e-06
7.3073e-06
4.47991e-07
1.00658e-05
1.05182e-05
1.76077e-06
5.81489e-07
1.40908e-06
3.91299e-06
3.1648e-06
5.29664e-06
1.25304e-05
1.00144e-05
5.8877e-06
6.87085e-06
5.6068e-06
2.23763e-06
1.89779e-06
3.10546e-07
1.72833e-06
1.56139e-06
5.9667e-06
1.00363e-06
1.75501e-06
1.43705e-06
3.41072e-07
7.22062e-07
4.86143e-07
4.06342e-07
5.86727e-07
4.97742e-07
7.78457e-06
2.83229e-06
4.50741e-07
2.64909e-07
4.75074e-07
2.6214e-07
2.13277e-06
5.79856e-06
3.10206e-07
3.33044e-06
7.88434e-06
9.00574e-07
8.7089e-06
6.71371e-06
1.91406e-06
7.37081e-07
2.10958e-06
3.50373e-06
6.78004e-06
1.2847e-06
4.55125e-06
9.0428e-06
6.87993e-06
3.28316e-06
2.22835e-06
4.75937e-07
2.4597e-07
6.20072e-07
2.3402e-07
2.67917e-07
8.46223e-06
1.31703e-06
3.23905e-06
3.66451e-07
3.39179e-07
1.22248e-06
4.40567e-07
2.23082e-06
8.68189e-07
5.19289e-07
2.92675e-06
3.67648e-07
4.93521e-06
9.05841e-07
2.04133e-06
1.81436e-06
1.95529e-06
4.8322e-06
3.00378e-07
1.58766e-07
4.05547e-06
2.62e-07
2.06961e-06
3.54347e-06
5.38154e-07
5.38661e-07
2.90766e-06
8.43356e-07
3.65997e-06
9.16252e-07
1.40121e-06
5.65674e-06
5.87569e-06
1.60585e-06
2.35373e-06
2.49931e-06
9.65517e-07
9.33568e-07
7.34093e-07
2.50438e-07
5.98398e-06
1.43941e-06
3.94472e-06
3.48019e-07
4.54997e-07
1.39231e-06
5.9607e-07
3.38462e-06
2.95764e-06
1.71092e-06
7.94413e-06
5.11852e-06
3.0488e-07
4.96348e-07
2.13294e-07
1.7794e-07
2.49227e-07
2.18455e-06
2.2661e-07
2.08742e-07
5.03056e-06
4.75083e-07
7.95802e-07
3.93782e-06
1.61581e-06
5.51873e-07
4.12612e-06
3.95228e-07
9.09884e-07
1.75957e-06
7.937e-07
2.8168e-06
5.57647e-06
1.79182e-06
1.33145e-06
7.00723e-07
4.58249e-07
2.24946e-07
2.65218e-07
1.73505e-06
5.19002e-07
2.33928e-07
2.74488e-06
2.95521e-07
6.65468e-07
1.23622e-06
3.73291e-07
3.33882e-06
2.88938e-06
5.50045e-07
1.37625e-06
4.18884e-07
4.40687e-06
1.84753e-06
3.71928e-07
2.00868e-06
1.43202e-06
5.11988e-06
9.97577e-07
1.45224e-06
2.62783e-06
1.8408e-06
7.01721e-07
7.295e-06
5.2832e-07
3.91352e-07
4.36777e-07
9.30951e-07
2.1109e-06
4.09486e-07
3.24361e-07
1.36548e-06
2.78571e-06
3.17689e-07
8.54219e-07
2.85939e-06
4.19715e-06
7.33305e-07
3.44206e-07
7.03417e-07
8.27348e-07
2.20151e-07
1.86425e-06
3.40369e-07
1.41196e-06
1.68296e-06
2.57287e-07
1.11693e-06
1.2452e-06
1.77535e-07
3.484e-06
1.17395e-06
1.11383e-06
1.1479e-06
1.37159e-06
2.12259e-07
2.65744e-07
1.89764e-06
3.90776e-06
3.59126e-07
2.70762e-06
2.78573e-06
7.43957e-07
6.81428e-07
1.58768e-06
9.21203e-07
1.38843e-06
1.6742e-06
1.35043e-06
2.66977e-06
2.10516e-06
4.6856e-06
6.10207e-06
2.88835e-07
5.75632e-07
2.37428e-07
2.79982e-07
1.37247e-07
1.48412e-07
1.33455e-06
1.78785e-07
4.66315e-07
2.11418e-07
2.21816e-07
1.28693e-06
2.42213e-06
2.77959e-07
1.22286e-06
3.684e-06