/*--------------------------------*- C++ -*----------------------------------*\
  =========                 |
  \\      /  F ield         | OpenFOAM: The Open Source CFD Toolbox
   \\    /   O peration     | Website:  https://openfoam.org
    \\  /    A nd           | Version:  10
     \\/     M anipulation  |
\*---------------------------------------------------------------------------*/
FoamFile
{
    format      ascii;
    class       volTensorField;
    location    "5";
    object      TauNN;
}
// * * * * * * * * * * * * * * * * * * * * * * * * * * * * * * * * * * * * * //

dimensions      [0 2 -2 0 0 0 0];

internalField   nonuniform List<tensor> 
25600
(
(-0.0016995 -0.00279701 0.0059173 -0.00279701 0.00987635 -0.00182984 0.0059173 -0.00182984 0.00833842)
(0.000277727 -0.00299369 0.006185 -0.00299369 0.00998188 -0.00204124 0.006185 -0.00204124 0.00851425)
(0.000563398 -0.00359782 0.00578958 -0.00359782 0.00973431 -0.00195456 0.00578958 -0.00195456 0.00926846)
(0.000988244 -0.0025073 0.00453303 -0.0025073 0.00839389 -0.00283558 0.00453303 -0.00283558 0.00630136)
(0.0024977 -0.00242191 0.00399787 -0.00242191 0.00740678 -0.00294779 0.00399787 -0.00294779 0.00549529)
(-0.00101094 -0.00273395 0.00521216 -0.00273395 0.00910586 -0.0019051 0.00521216 -0.0019051 0.0083256)
(-0.000812142 -0.00345329 0.00592978 -0.00345329 0.00977966 -0.00176778 0.00592978 -0.00176778 0.00903637)
(0.000119944 -0.00317439 0.00543481 -0.00317439 0.00929584 -0.00208209 0.00543481 -0.00208209 0.00869324)
(-0.00059675 -0.00260519 0.00501718 -0.00260519 0.00875449 -0.00241892 0.00501718 -0.00241892 0.00742593)
(0.00129598 -0.00232145 0.00424624 -0.00232145 0.00791087 -0.00282796 0.00424624 -0.00282796 0.00589113)
(0.00502221 -0.00271891 0.00336134 -0.00271891 0.00635163 -0.00314073 0.00336134 -0.00314073 0.00522792)
(0.00329796 -0.00192528 0.00323075 -0.00192528 0.0070773 -0.00262294 0.00323075 -0.00262294 0.00535478)
(-0.00153994 -0.00252836 0.00510142 -0.00252836 0.00897794 -0.00142644 0.00510142 -0.00142644 0.0084261)
(-0.00145948 -0.00230059 0.00533412 -0.00230059 0.00973042 -0.00152215 0.00533412 -0.00152215 0.00785831)
(-0.00125372 -0.00267023 0.00589455 -0.00267023 0.00998772 -0.00191565 0.00589455 -0.00191565 0.00837364)
(0.000276775 -0.00301458 0.00533811 -0.00301458 0.00925029 -0.00203375 0.00533811 -0.00203375 0.00874301)
(-4.92266e-05 -0.00224878 0.00497248 -0.00224878 0.00856185 -0.00236832 0.00497248 -0.00236832 0.00709236)
(-0.00118089 -0.00231791 0.00504186 -0.00231791 0.00877631 -0.00187998 0.00504186 -0.00187998 0.00787615)
(-0.0018609 -0.0027972 0.00605516 -0.0027972 0.00984843 -0.00193622 0.00605516 -0.00193622 0.008147)
(0.00113301 -0.00311043 0.0053742 -0.00311043 0.00944239 -0.00229664 0.0053742 -0.00229664 0.00863743)
(0.00131671 -0.00246118 0.00443727 -0.00246118 0.00824098 -0.00285243 0.00443727 -0.00285243 0.00607554)
(0.00149175 -0.00245052 0.00423232 -0.00245052 0.00792781 -0.00289523 0.00423232 -0.00289523 0.00586053)
(0.00156925 -0.00235037 0.00417958 -0.00235037 0.00781405 -0.00287513 0.00417958 -0.00287513 0.00573328)
(0.002075 -0.00236423 0.00412993 -0.00236423 0.00752596 -0.00287648 0.00412993 -0.00287648 0.00569514)
(-0.000967794 -0.0029018 0.00537787 -0.0029018 0.0090597 -0.00190213 0.00537787 -0.00190213 0.00822102)
(-0.00160785 -0.00259309 0.00573106 -0.00259309 0.00970139 -0.00167384 0.00573106 -0.00167384 0.00799458)
(-0.00130058 -0.0029691 0.00536183 -0.0029691 0.00907189 -0.00183854 0.00536183 -0.00183854 0.00837142)
(-0.00121954 -0.00226955 0.00504267 -0.00226955 0.00868574 -0.00187528 0.00504267 -0.00187528 0.0077561)
(-0.000986984 -0.00244944 0.00505915 -0.00244944 0.00872561 -0.00175445 0.00505915 -0.00175445 0.00797296)
(-0.000482589 -0.0024615 0.00484823 -0.0024615 0.00857206 -0.00206036 0.00484823 -0.00206036 0.00761598)
(-0.00144056 -0.00232475 0.00533399 -0.00232475 0.0092255 -0.00150082 0.00533399 -0.00150082 0.00758052)
(-0.00126039 -0.00335141 0.00586005 -0.00335141 0.00972823 -0.00171652 0.00586005 -0.00171652 0.00888035)
(-0.00057816 -0.00279976 0.00521094 -0.00279976 0.00902578 -0.00225368 0.00521094 -0.00225368 0.00797993)
(-0.000907513 -0.00333403 0.0054962 -0.00333403 0.00938425 -0.00156858 0.0054962 -0.00156858 0.0090623)
(-0.000365924 -0.00250619 0.00502818 -0.00250619 0.0087081 -0.00238404 0.00502818 -0.00238404 0.00738084)
(0.00107159 -0.00222239 0.00401901 -0.00222239 0.00764586 -0.00270659 0.00401901 -0.00270659 0.00593224)
(-0.00175667 -0.00261861 0.00560832 -0.00261861 0.00961457 -0.00150899 0.00560832 -0.00150899 0.00809451)
(-0.00138424 -0.00282664 0.00605257 -0.00282664 0.00998712 -0.00194592 0.00605257 -0.00194592 0.00850396)
(-0.000227873 -0.00313322 0.00539278 -0.00313322 0.0092843 -0.00187828 0.00539278 -0.00187828 0.00887128)
(-0.00128912 -0.00271975 0.00520324 -0.00271975 0.00905972 -0.00168182 0.00520324 -0.00168182 0.00848981)
(0.0014985 -0.00153334 0.00452318 -0.00153334 0.00958186 -0.00126681 0.00452318 -0.00126681 0.00735167)
(0.00170807 -0.0018724 0.00418294 -0.0018724 0.0099036 -0.00126141 0.00418294 -0.00126141 0.00773111)
(0.00292294 -0.00209452 0.00489658 -0.00209452 0.00975963 -0.00177376 0.00489658 -0.00177376 0.00719835)
(0.00161892 -0.00224565 0.00406533 -0.00224565 0.00926596 -0.00314204 0.00406533 -0.00314204 0.0065012)
(0.0026545 -0.00346799 0.00362474 -0.00346799 0.00881708 -0.00333338 0.00362474 -0.00333338 0.00696506)
(0.000605259 -0.00278517 0.00452425 -0.00278517 0.00918172 -0.00261392 0.00452425 -0.00261392 0.00863612)
(0.00237165 -0.00177758 0.00442834 -0.00177758 0.0088166 -0.000952199 0.00442834 -0.000952199 0.00844106)
(0.000400063 -0.00246179 0.00553641 -0.00246179 0.00945822 -0.00197352 0.00553641 -0.00197352 0.00824613)
(0.000982208 -0.000244389 0.00534959 -0.000244389 0.00819023 -0.00205773 0.00534959 -0.00205773 0.0058919)
(0.00280607 -0.00234402 0.0045984 -0.00234402 0.00832369 -0.00306082 0.0045984 -0.00306082 0.00676997)
(0.0111475 -0.00391778 0.00157321 -0.00391778 0.00904802 -0.00284542 0.00157321 -0.00284542 0.00738715)
(0.00465193 -0.000499338 0.00662175 -0.000499338 0.00786075 -0.0024981 0.00662175 -0.0024981 0.00897349)
(0.000944676 -0.00138883 0.00412147 -0.00138883 0.00927253 -0.00174512 0.00412147 -0.00174512 0.00800023)
(0.00443838 -0.000412013 0.00325896 -0.000412013 0.00937059 -0.000989393 0.00325896 -0.000989393 0.00576682)
(0.0056286 -0.00102431 0.00248638 -0.00102431 0.00934976 -0.000193694 0.00248638 -0.000193694 0.00643207)
(0.00117859 -0.00276273 0.00534261 -0.00276273 0.0089978 -0.00110524 0.00534261 -0.00110524 0.00971933)
(0.0041018 -0.00377988 0.00581664 -0.00377988 0.00908859 -0.00200259 0.00581664 -0.00200259 0.00984047)
(-0.000360761 -0.000641338 0.006259 -0.000641338 0.00879421 -0.00251041 0.006259 -0.00251041 0.00852522)
(0.00386746 -0.000877202 0.00475479 -0.000877202 0.00937769 -0.00161909 0.00475479 -0.00161909 0.00645626)
(0.00258935 -0.00170013 0.00533535 -0.00170013 0.00939225 -0.00231927 0.00533535 -0.00231927 0.00634202)
(-0.000232571 -0.00262782 0.00453389 -0.00262782 0.00936729 -0.00301099 0.00453389 -0.00301099 0.00748614)
(0.00211972 -0.00308687 0.00408008 -0.00308687 0.0087227 -0.00330759 0.00408008 -0.00330759 0.00700818)
(0.00479988 -0.0034374 0.00300794 -0.0034374 0.00805872 -0.00319567 0.00300794 -0.00319567 0.00600611)
(0.00873133 -0.00383582 0.00225385 -0.00383582 0.00855953 -0.00290149 0.00225385 -0.00290149 0.00694053)
(0.00653534 0.000109414 0.00709729 0.000109414 0.00712289 -0.00221124 0.00709729 -0.00221124 0.00854094)
(0.000598431 -0.00100062 0.00449024 -0.00100062 0.00925923 -0.00148661 0.00449024 -0.00148661 0.00683888)
(-0.000642498 -0.000683798 0.00510406 -0.000683798 0.00869624 -0.00173252 0.00510406 -0.00173252 0.006482)
(-0.00140205 -0.000735118 0.00521806 -0.000735118 0.00889838 -0.00196423 0.00521806 -0.00196423 0.00734558)
(-0.00131279 -0.00102404 0.0051728 -0.00102404 0.0089687 -0.00197333 0.0051728 -0.00197333 0.00728136)
(0.00195523 0.000775849 0.0063725 0.000775849 0.00796799 -0.00210232 0.0063725 -0.00210232 0.00696966)
(0.00697792 0.00184505 0.00377704 0.00184505 0.00826274 -0.000743537 0.00377704 -0.000743537 0.00468516)
(0.00342829 -0.000901453 0.00382823 -0.000901453 0.00959868 -0.00126447 0.00382823 -0.00126447 0.00608629)
(0.00139152 -0.000503761 0.00612521 -0.000503761 0.00856257 -0.00229051 0.00612521 -0.00229051 0.0072301)
(0.000243818 -0.00152608 0.00463926 -0.00152608 0.00945961 -0.00149978 0.00463926 -0.00149978 0.00747978)
(0.00197183 -0.00362346 0.00599119 -0.00362346 0.00967636 -0.00218072 0.00599119 -0.00218072 0.00913521)
(0.0104546 0.00218639 0.00511251 0.00218639 0.00514241 -0.0024916 0.00511251 -0.0024916 0.0064666)
(0.013302 0.0014433 0.00581109 0.0014433 0.0081948 -0.00104657 0.00581109 -0.00104657 0.006744)
(0.00171381 -0.00127931 0.0040978 -0.00127931 0.00943218 -0.00109992 0.0040978 -0.00109992 0.00739349)
(0.00101403 -0.00264464 0.00592487 -0.00264464 0.00953568 -0.00195248 0.00592487 -0.00195248 0.00838186)
(-0.00139117 -0.00144381 0.00536329 -0.00144381 0.00911626 -0.00210739 0.00536329 -0.00210739 0.00793126)
(0.00856364 0.000721515 0.00453928 0.000721515 0.00801525 -0.00048592 0.00453928 -0.00048592 0.00678695)
(0.0122986 -0.000580182 0.00425669 -0.000580182 0.00790073 -1.80006e-05 0.00425669 -1.80006e-05 0.00867409)
(0.014425 -0.00580835 0.00336659 -0.00580835 0.00994944 -0.000290503 0.00336659 -0.000290503 0.0100421)
(0.0167093 -0.00192428 0.00395766 -0.00192428 0.00891363 -0.00408699 0.00395766 -0.00408699 0.00632053)
(0.00926845 -0.0032372 -0.000339233 -0.0032372 0.00832055 -0.00376226 -0.000339233 -0.00376226 0.00659223)
(0.0058334 -0.00168143 0.0048501 -0.00168143 0.00894554 -0.00128775 0.0048501 -0.00128775 0.00673668)
(0.00892999 0.00166195 0.0041191 0.00166195 0.00695856 -0.000497701 0.0041191 -0.000497701 0.00668667)
(0.0110798 -0.00462789 0.00496448 -0.00462789 0.0100837 -0.00228215 0.00496448 -0.00228215 0.0082098)
(0.0125406 -0.00298634 0.00429165 -0.00298634 0.0100285 -0.00162356 0.00429165 -0.00162356 0.00557241)
(0.010294 -0.00105537 0.00321766 -0.00105537 0.00869596 -0.00351588 0.00321766 -0.00351588 0.00509538)
(0.00493903 -0.00427457 0.000933411 -0.00427457 0.00823281 -0.00356346 0.000933411 -0.00356346 0.00513488)
(0.00705821 -0.000625405 0.00443733 -0.000625405 0.00818379 -0.000624661 0.00443733 -0.000624661 0.00539557)
(0.0107281 0.000333318 0.00460219 0.000333318 0.00808796 0.000284466 0.00460219 0.000284466 0.00587607)
(0.0111792 0.00115893 0.00463929 0.00115893 0.00751765 0.000188109 0.00463929 0.000188109 0.00717749)
(0.0140227 0.00114307 0.00328268 0.00114307 0.00605343 0.00285202 0.00328268 0.00285202 0.0085423)
(0.00959671 -0.00319239 0.0051842 -0.00319239 0.0087645 -0.000911363 0.0051842 -0.000911363 0.00906494)
(0.0206792 -0.00551504 0.0054026 -0.00551504 0.010725 -0.00241421 0.0054026 -0.00241421 0.0106792)
(0.00690973 -0.00299184 0.00477951 -0.00299184 0.010276 -0.00108552 0.00477951 -0.00108552 0.00738737)
(0.00792314 -0.00241201 0.00525903 -0.00241201 0.0095523 -0.000969693 0.00525903 -0.000969693 0.00738744)
(0.004223 -0.00595456 0.00169364 -0.00595456 0.0106519 -0.00350337 0.00169364 -0.00350337 0.00718739)
(0.0140125 -0.00374701 -9.12361e-05 -0.00374701 0.00909766 -0.0043526 -9.12361e-05 -0.0043526 0.00641946)
(0.00254425 -0.0033355 0.00289855 -0.0033355 0.00838557 -0.00401504 0.00289855 -0.00401504 0.00537719)
(0.00995073 -0.00189506 0.00106935 -0.00189506 0.00789666 -0.00427053 0.00106935 -0.00427053 0.00605896)
(0.00892913 -0.00552758 0.000540117 -0.00552758 0.00854735 -0.00288581 0.000540117 -0.00288581 0.00561826)
(0.00587704 -0.00167106 0.00480774 -0.00167106 0.00841326 -0.00119071 0.00480774 -0.00119071 0.00538719)
(0.00865929 -0.000570167 0.00375416 -0.000570167 0.00832613 -0.00146069 0.00375416 -0.00146069 0.00630661)
(0.00886826 -0.00352307 0.00537969 -0.00352307 0.0101358 -0.000927303 0.00537969 -0.000927303 0.00886569)
(0.0069283 -0.00334965 0.00447622 -0.00334965 0.0100878 -0.000278296 0.00447622 -0.000278296 0.00900302)
(0.00177797 -0.00301368 0.00499948 -0.00301368 0.0100963 -0.00108084 0.00499948 -0.00108084 0.00877224)
(0.00832103 -0.0027152 0.00369453 -0.0027152 0.0102974 -0.000773595 0.00369453 -0.000773595 0.00704271)
(0.0180641 -0.00236662 0.00195722 -0.00236662 0.00967943 0.000953141 0.00195722 0.000953141 0.00499026)
(0.0173882 -0.00389234 0.00242469 -0.00389234 0.00958214 0.000784163 0.00242469 0.000784163 0.00788247)
(0.0157132 -0.00188735 0.00321144 -0.00188735 0.00982468 -0.00143479 0.00321144 -0.00143479 0.00377993)
(0.00885908 -0.00326116 0.00510211 -0.00326116 0.0102822 -0.00127104 0.00510211 -0.00127104 0.00786103)
(0.0156309 -0.00526773 0.00626705 -0.00526773 0.0109371 -0.00219725 0.00626705 -0.00219725 0.0109038)
(0.018968 -0.00466107 0.00274717 -0.00466107 0.0100281 0.000531739 0.00274717 0.000531739 0.00990021)
(0.0234304 -0.00535045 0.00370965 -0.00535045 0.0101704 0.00103878 0.00370965 0.00103878 0.0108993)
(0.00874005 0.00170995 0.00450052 0.00170995 0.00628194 0.000217946 0.00450052 0.000217946 0.00683054)
(0.0138411 -0.00540484 0.00588807 -0.00540484 0.0107533 -0.00235192 0.00588807 -0.00235192 0.0101026)
(0.00587023 -0.00320545 0.00527737 -0.00320545 0.00998985 -0.000888765 0.00527737 -0.000888765 0.009148)
(0.0126639 0.00195203 0.00315002 0.00195203 0.00671713 0.000106361 0.00315002 0.000106361 0.0073963)
(0.0184047 0.00109623 0.00116554 0.00109623 0.00665327 0.000687885 0.00116554 0.000687885 0.00765127)
(0.0221753 -0.00471566 0.00101838 -0.00471566 0.00948179 -0.00133477 0.00101838 -0.00133477 0.00963535)
(0.0204249 -0.0021014 0.00160701 -0.0021014 0.00723722 -0.00194289 0.00160701 -0.00194289 0.00935597)
(0.0186921 -0.00425639 -0.000530315 -0.00425639 0.0093451 -0.00250755 -0.000530315 -0.00250755 0.00792706)
(0.0103149 -0.00327197 0.0030054 -0.00327197 0.00990646 -0.00199379 0.0030054 -0.00199379 0.00824865)
(0.0100849 -0.000648029 0.00126729 -0.000648029 0.0100524 -0.00266406 0.00126729 -0.00266406 0.00784572)
(0.0099096 -0.00120758 -0.0012497 -0.00120758 0.00804712 -0.000986694 -0.0012497 -0.000986694 0.00652197)
(0.0279115 -0.00274742 -7.51084e-05 -0.00274742 0.00820612 0.00188019 -7.51084e-05 0.00188019 0.00808907)
(0.019953 0.000411238 0.00567426 0.000411238 0.00816857 -0.00258951 0.00567426 -0.00258951 0.00758997)
(0.0159098 -0.00177428 0.000511689 -0.00177428 0.00692356 -0.00211831 0.000511689 -0.00211831 0.0100963)
(0.0022698 -0.00261299 0.00303877 -0.00261299 0.00898478 -0.00228083 0.00303877 -0.00228083 0.00813676)
(0.0161176 0.000795133 0.00251567 0.000795133 0.00826189 -0.000934395 0.00251567 -0.000934395 0.00848124)
(0.0208625 -0.00319196 0.000551347 -0.00319196 0.00548819 0.00100818 0.000551347 0.00100818 0.00973183)
(0.0110111 -0.00195179 -0.00385093 -0.00195179 0.0075234 -0.00216728 -0.00385093 -0.00216728 0.00515256)
(0.00307204 0.000584896 0.000712439 0.000584896 0.00232716 0.000629834 0.000712439 0.000629834 0.00240088)
(0.0183952 -0.00583557 0.000915146 -0.00583557 0.00914718 -0.00336764 0.000915146 -0.00336764 0.00508418)
(0.0152721 -0.00115923 0.00681104 -0.00115923 0.00872056 -0.00196745 0.00681104 -0.00196745 0.00945668)
(0.0164075 0.000200332 0.00643463 0.000200332 0.00844345 -0.00144842 0.00643463 -0.00144842 0.00726197)
(0.00862789 -0.00322116 0.00103564 -0.00322116 0.00720191 -0.00341083 0.00103564 -0.00341083 0.00446585)
(0.0114126 -0.00332035 0.00160987 -0.00332035 0.00663145 -0.000382722 0.00160987 -0.000382722 0.0123624)
(0.0072273 -0.00310865 0.00303409 -0.00310865 0.00853497 -0.00306082 0.00303409 -0.00306082 0.00618259)
(0.00692457 -0.00196113 0.00287662 -0.00196113 0.0084756 -0.00355195 0.00287662 -0.00355195 0.00549967)
(0.0142613 -0.00456804 8.06516e-05 -0.00456804 0.00909679 -0.00261263 8.06516e-05 -0.00261263 0.00636962)
(0.0144273 -0.00204728 -0.00212167 -0.00204728 0.0065978 -0.00471601 -0.00212167 -0.00471601 0.0068398)
(0.00984768 -0.00383914 0.00071227 -0.00383914 0.00973836 -0.0021744 0.00071227 -0.0021744 0.0106509)
(0.0122655 -0.000716325 -0.0024538 -0.000716325 0.0083619 -0.00349531 -0.0024538 -0.00349531 0.00535507)
(0.01047 -0.00228258 0.00427098 -0.00228258 0.00943327 -0.00123192 0.00427098 -0.00123192 0.0083634)
(0.0168894 -0.0039101 0.00384826 -0.0039101 0.0100163 -0.00164824 0.00384826 -0.00164824 0.00953996)
(0.0220096 -0.00421469 0.00186243 -0.00421469 0.00967077 -0.00120665 0.00186243 -0.00120665 0.00964248)
(0.0238493 -0.00217772 -0.00284 -0.00217772 0.00788754 0.0031526 -0.00284 0.0031526 0.0107231)
(0.0180432 -0.00173661 -0.000517628 -0.00173661 0.00554451 0.00160567 -0.000517628 0.00160567 0.0096697)
(0.0125626 -0.000364309 0.00556395 -0.000364309 0.00879279 -0.00171299 0.00556395 -0.00171299 0.00646541)
(0.00673966 0.00198118 0.00173325 0.00198118 0.00478584 0.00245896 0.00173325 0.00245896 0.00426892)
(0.0221169 -0.00639801 0.00426646 -0.00639801 0.010261 -0.00293792 0.00426646 -0.00293792 0.00942939)
(0.00721969 -0.0034319 0.00497096 -0.0034319 0.00987411 -0.00167146 0.00497096 -0.00167146 0.00973468)
(0.0140241 -0.000688836 0.00145574 -0.000688836 0.00398929 0.000212627 0.00145574 0.000212627 0.0116716)
(0.0106679 -0.00433925 -0.00463907 -0.00433925 0.0111668 -0.00382124 -0.00463907 -0.00382124 0.00841498)
(0.0105978 -0.00129701 -0.0017585 -0.00129701 0.00757332 -0.00197475 -0.0017585 -0.00197475 0.00305997)
(0.0137743 -0.00165628 0.00389233 -0.00165628 0.00893112 -0.00145451 0.00389233 -0.00145451 0.00808887)
(0.0171457 -0.00436057 0.00014627 -0.00436057 0.00763969 0.00196543 0.00014627 0.00196543 0.00676383)
(0.016846 -0.00397283 -7.18879e-05 -0.00397283 0.00658055 0.00267137 -7.18879e-05 0.00267137 0.00780137)
(0.0186354 -0.000730354 0.00165871 -0.000730354 0.0074288 0.0012083 0.00165871 0.0012083 0.00892129)
(0.00667515 -0.00377022 0.00112301 -0.00377022 0.00805422 -0.00252962 0.00112301 -0.00252962 0.00390959)
(0.0116064 -0.00498525 -0.00138414 -0.00498525 0.00895342 -0.00315614 -0.00138414 -0.00315614 0.0051572)
(0.00995292 -0.0035919 0.0024597 -0.0035919 0.00914259 -0.00150654 0.0024597 -0.00150654 0.00443034)
(0.0183686 0.00122835 0.00149678 0.00122835 0.0100845 -0.000618131 0.00149678 -0.000618131 0.00746166)
(0.0156893 -0.00535452 3.7536e-05 -0.00535452 0.00940487 -0.00342398 3.7536e-05 -0.00342398 0.00995247)
(0.0164747 0.00105304 0.000830242 0.00105304 0.00498064 0.0038943 0.000830242 0.0038943 0.0101108)
(0.0233991 -0.00104009 0.00397898 -0.00104009 0.00912151 -0.001111 0.00397898 -0.001111 0.00559268)
(0.00919533 -0.00540243 -0.000961651 -0.00540243 0.00922092 -0.00310627 -0.000961651 -0.00310627 0.00480413)
(0.00246122 -0.00198282 0.00486895 -0.00198282 0.0089733 -0.00150426 0.00486895 -0.00150426 0.00735619)
(0.0152294 0.000107591 0.00315798 0.000107591 0.00809301 0.000792925 0.00315798 0.000792925 0.0049917)
(0.0186875 -0.00336306 -0.00215562 -0.00336306 0.00866852 0.00289977 -0.00215562 0.00289977 0.00659926)
(0.017383 -0.0026872 0.00261197 -0.0026872 0.00831658 -0.000640306 0.00261197 -0.000640306 0.0112053)
(0.00845875 0.00247945 0.00284301 0.00247945 0.00528538 0.00246427 0.00284301 0.00246427 0.00545343)
(0.0121168 -0.00655578 0.00195978 -0.00655578 0.0104154 -0.0036975 0.00195978 -0.0036975 0.00579875)
(0.015359 -0.002838 0.00243926 -0.002838 0.00873753 0.000177217 0.00243926 0.000177217 0.00652871)
(0.0160374 -0.00205525 0.00355304 -0.00205525 0.00949644 -0.00163123 0.00355304 -0.00163123 0.0037086)
(0.0105952 -0.00513713 0.00111622 -0.00513713 0.00999073 -0.00428035 0.00111622 -0.00428035 0.0051249)
(0.0114944 -0.00379648 0.00160253 -0.00379648 0.00704543 0.000322874 0.00160253 0.000322874 0.0090526)
(0.00958979 -0.00458461 -0.00101903 -0.00458461 0.00602235 -0.00236643 -0.00101903 -0.00236643 0.0104117)
(0.0100901 -0.00535062 0.00170076 -0.00535062 0.0101831 -0.00446023 0.00170076 -0.00446023 0.0047408)
(0.00598976 -0.00238161 0.00294378 -0.00238161 0.0092763 -0.00425803 0.00294378 -0.00425803 0.00549823)
(0.0116188 -0.00353774 -4.2079e-05 -0.00353774 0.0112508 -0.000194307 -4.2079e-05 -0.000194307 0.0082022)
(0.0144124 -0.00522934 -0.00252507 -0.00522934 0.0123486 7.49733e-05 -0.00252507 7.49733e-05 0.00888421)
(0.0096941 0.00234078 0.000559244 0.00234078 0.00714346 -0.00131391 0.000559244 -0.00131391 0.00499123)
(0.0113545 -0.00113848 0.00467288 -0.00113848 0.00857989 -0.000812077 0.00467288 -0.000812077 0.00816644)
(0.0116546 -0.00134923 -0.00167838 -0.00134923 0.0066579 0.00203345 -0.00167838 0.00203345 0.00572594)
(0.0144528 -0.00251196 0.000573374 -0.00251196 0.00779138 0.00236041 0.000573374 0.00236041 0.00694056)
(0.0157677 0.000702155 0.0016698 0.000702155 0.00715374 0.00141283 0.0016698 0.00141283 0.0125427)
(0.0126111 0.00104016 0.00203013 0.00104016 0.00590399 0.00161396 0.00203013 0.00161396 0.0115483)
(0.0150892 -0.00349394 0.00413241 -0.00349394 0.0102542 -0.0013995 0.00413241 -0.0013995 0.00694402)
(0.0131397 -0.00139523 0.000202509 -0.00139523 0.0107421 -0.00113503 0.000202509 -0.00113503 0.00830721)
(0.0140619 -0.00623298 0.00397779 -0.00623298 0.0105698 -0.00349467 0.00397779 -0.00349467 0.00791902)
(0.0203712 -0.00588724 0.00520711 -0.00588724 0.0101627 -0.00210208 0.00520711 -0.00210208 0.0102933)
(0.0223977 -0.00333909 -0.000875032 -0.00333909 0.00902789 0.0023732 -0.000875032 0.0023732 0.00704702)
(0.0139362 -0.00209901 -0.0026691 -0.00209901 0.0113195 -0.0011846 -0.0026691 -0.0011846 0.00816495)
(0.00610486 -0.00395547 -0.00280666 -0.00395547 0.0106641 0.000227028 -0.00280666 0.000227028 0.0103092)
(0.00907825 0.00230708 0.00367373 0.00230708 0.00611369 -0.000314281 0.00367373 -0.000314281 0.00614145)
(0.013701 0.00120563 0.00226378 0.00120563 0.0102039 -0.00201091 0.00226378 -0.00201091 0.00599761)
(0.0169591 0.000162513 -0.00137214 0.000162513 0.0103487 -0.00279324 -0.00137214 -0.00279324 0.00848121)
(0.0136297 -0.0021551 -0.00356153 -0.0021551 0.00516109 0.00358045 -0.00356153 0.00358045 0.01097)
(0.0158195 -0.00109383 0.00185346 -0.00109383 0.00646818 -0.000450604 0.00185346 -0.000450604 0.0084227)
(0.0144138 -0.00445568 -0.000859167 -0.00445568 0.00971385 -0.00274552 -0.000859167 -0.00274552 0.00733588)
(0.00812757 -0.00294904 0.000942502 -0.00294904 0.00799682 -0.00204989 0.000942502 -0.00204989 0.00526833)
(0.0101601 0.00129007 0.00113849 0.00129007 0.00892229 -0.000889664 0.00113849 -0.000889664 0.00396323)
(0.0141744 -0.00194998 -0.00101996 -0.00194998 0.00605363 -0.00404465 -0.00101996 -0.00404465 0.00584898)
(0.0141538 -0.00372678 -0.00213028 -0.00372678 0.00674387 0.00102481 -0.00213028 0.00102481 0.00640678)
(0.0182911 -0.00126945 -0.00237635 -0.00126945 0.00675142 0.00392326 -0.00237635 0.00392326 0.00721323)
(0.0110653 -0.00339122 -0.000991262 -0.00339122 0.0077343 -0.00341958 -0.000991262 -0.00341958 0.00532819)
(0.00816996 -0.00258391 0.000305444 -0.00258391 0.00768059 -0.00297887 0.000305444 -0.00297887 0.00534194)
(0.00777108 -0.00340992 0.00294673 -0.00340992 0.00973928 -0.00225201 0.00294673 -0.00225201 0.00860616)
(0.0207952 -0.00283571 -0.000627859 -0.00283571 0.00884764 0.001026 -0.000627859 0.001026 0.00840181)
(0.014922 -0.0023611 -0.00425643 -0.0023611 0.00721544 0.00383397 -0.00425643 0.00383397 0.00975115)
(0.0142954 0.000160126 0.000367478 0.000160126 0.00694322 0.00155577 0.000367478 0.00155577 0.0038707)
(0.0159821 -0.00450448 0.00356979 -0.00450448 0.00895962 -0.00303196 0.00356979 -0.00303196 0.00714976)
(0.0204976 -0.0030887 -0.000859699 -0.0030887 0.00850653 0.00105388 -0.000859699 0.00105388 0.00854998)
(0.0106151 -0.00187907 0.00193948 -0.00187907 0.00839525 -0.00144374 0.00193948 -0.00144374 0.00826166)
(0.00851727 -0.00478681 -0.000523165 -0.00478681 0.00859467 -0.00327711 -0.000523165 -0.00327711 0.00515466)
(0.0137979 -0.00113812 0.00234882 -0.00113812 0.00801588 0.00188611 0.00234882 0.00188611 0.0077313)
(0.00111199 7.0191e-05 -0.00101911 7.0191e-05 0.00524851 -0.000433723 -0.00101911 -0.000433723 0.00963809)
(0.0121094 -0.00555888 0.00243697 -0.00555888 0.00992855 -0.00302884 0.00243697 -0.00302884 0.00683675)
(0.0184818 -0.00467522 0.00289041 -0.00467522 0.00964584 -0.00375354 0.00289041 -0.00375354 0.00527842)
(0.0144492 -0.00120823 -0.00197334 -0.00120823 0.00781556 -0.00443122 -0.00197334 -0.00443122 0.00672775)
(0.00993341 -0.00278511 -0.000702104 -0.00278511 0.00765449 -0.00230494 -0.000702104 -0.00230494 0.00796453)
(0.0107621 0.000542782 -0.000278615 0.000542782 0.00724851 -0.00244776 -0.000278615 -0.00244776 0.00503558)
(0.010099 0.000273731 0.000473836 0.000273731 0.00622153 0.00127456 0.000473836 0.00127456 0.00648641)
(0.017355 -0.00408796 -0.00531727 -0.00408796 0.0105412 -0.0018707 -0.00531727 -0.0018707 0.0102121)
(0.0193555 -0.00380128 -0.00408282 -0.00380128 0.011081 -0.0020266 -0.00408282 -0.0020266 0.0102739)
(0.0105959 -0.00167392 0.000657449 -0.00167392 0.00950971 -0.00322855 0.000657449 -0.00322855 0.00703642)
(0.0169978 -0.000270477 0.00377163 -0.000270477 0.00956142 -0.00226003 0.00377163 -0.00226003 0.0114883)
(0.0157475 -0.00142977 -0.00216619 -0.00142977 0.00551916 0.00293151 -0.00216619 0.00293151 0.0116753)
(0.0143032 -0.000644485 0.00428633 -0.000644485 0.00747115 -0.0023067 0.00428633 -0.0023067 0.0110269)
(0.00461809 0.000438638 0.00135781 0.000438638 0.00660232 -0.00144677 0.00135781 -0.00144677 0.00404389)
(0.0266687 -0.00429478 -0.000543445 -0.00429478 0.0088502 0.000766594 -0.000543445 0.000766594 0.0105694)
(0.0263745 -0.00338857 -0.00188874 -0.00338857 0.00873866 0.00243385 -0.00188874 0.00243385 0.0103174)
(0.0220799 -0.00263805 -0.00143256 -0.00263805 0.00849748 0.00249812 -0.00143256 0.00249812 0.006713)
(0.00961733 -0.00464113 -0.00399969 -0.00464113 0.0117538 -0.00270729 -0.00399969 -0.00270729 0.00879652)
(0.00627337 -0.000255697 0.0031241 -0.000255697 0.0044846 -0.00230398 0.0031241 -0.00230398 0.00805351)
(0.00580354 -0.00213216 4.79352e-06 -0.00213216 0.0102385 6.57942e-05 4.79352e-06 6.57942e-05 0.00597636)
(0.00717317 -0.00246213 0.00225749 -0.00246213 0.00940398 -0.00252602 0.00225749 -0.00252602 0.0122913)
(0.0166368 -0.00338068 -0.000181608 -0.00338068 0.00795089 0.00203655 -0.000181608 0.00203655 0.00849289)
(0.0161781 -0.00342448 0.00386967 -0.00342448 0.00903392 -0.00311819 0.00386967 -0.00311819 0.00624633)
(0.0101725 -0.00268288 0.000732575 -0.00268288 0.00841981 -0.00300392 0.000732575 -0.00300392 0.00638803)
(0.00906975 -0.0027375 5.59613e-05 -0.0027375 0.00820837 -0.00224355 5.59613e-05 -0.00224355 0.00534599)
(0.0152673 0.000109641 0.00197339 0.000109641 0.00743695 0.0020449 0.00197339 0.0020449 0.0061507)
(0.00997136 -5.71394e-05 0.000613397 -5.71394e-05 0.00681073 -0.00199356 0.000613397 -0.00199356 0.00611045)
(0.0133881 0.00100667 0.00350025 0.00100667 0.00679876 -0.000125428 0.00350025 -0.000125428 0.00755057)
(0.0169802 -9.59691e-05 0.00032171 -9.59691e-05 0.00613198 0.00312417 0.00032171 0.00312417 0.00895163)
(0.00864092 -0.00446863 0.000625113 -0.00446863 0.0098271 -0.00286 0.000625113 -0.00286 0.00569267)
(0.00965705 -0.00189857 -0.00155828 -0.00189857 0.00916616 -0.00367627 -0.00155828 -0.00367627 0.00876776)
(0.0112988 -0.000488433 0.00317334 -0.000488433 0.00830418 -0.00153755 0.00317334 -0.00153755 0.00675345)
(0.0146783 -7.66972e-05 -0.000935941 -7.66972e-05 0.00597085 0.00340855 -0.000935941 0.00340855 0.00982495)
(0.0212881 -0.00155893 0.000850184 -0.00155893 0.00893788 0.00112443 0.000850184 0.00112443 0.00348282)
(0.0137881 -9.35383e-05 0.00263973 -9.35383e-05 0.00815465 -0.000369848 0.00263973 -0.000369848 0.00308413)
(0.0117658 -0.00447319 0.0025725 -0.00447319 0.00890025 -0.00240168 0.0025725 -0.00240168 0.00717041)
(0.0223185 -0.00429537 -0.00278555 -0.00429537 0.00838058 0.00269552 -0.00278555 0.00269552 0.00753368)
(0.0104946 0.0019968 0.00323217 0.0019968 0.00582417 0.0011847 0.00323217 0.0011847 0.00626899)
(0.00615153 -0.00465519 0.00238305 -0.00465519 0.00837164 -0.0035533 0.00238305 -0.0035533 0.00640815)
(0.00243025 -0.00122821 0.0023856 -0.00122821 0.00501544 -0.00236428 0.0023856 -0.00236428 0.00447527)
(0.00715288 0.000645583 -0.000917559 0.000645583 0.00738156 -0.00275899 -0.000917559 -0.00275899 0.00482674)
(0.00850411 -0.00263576 0.0028471 -0.00263576 0.00860173 -0.00217623 0.0028471 -0.00217623 0.00678569)
(0.0143072 -0.0065483 0.000576563 -0.0065483 0.00973476 -0.00372216 0.000576563 -0.00372216 0.00501805)
(0.00787867 -0.00351745 0.000897089 -0.00351745 0.00916021 -0.00336094 0.000897089 -0.00336094 0.00502606)
(0.00165758 -0.00300254 0.00519651 -0.00300254 0.0093895 -0.00242434 0.00519651 -0.00242434 0.0064283)
(0.00476265 -0.00487358 -0.00121854 -0.00487358 0.00999488 0.000748998 -0.00121854 0.000748998 0.00529469)
(0.00487084 -0.000773707 0.00102043 -0.000773707 0.00317968 -0.00191051 0.00102043 -0.00191051 0.00621361)
(0.0110324 8.72351e-05 -0.0021697 8.72351e-05 0.00412994 4.60856e-05 -0.0021697 4.60856e-05 0.0063988)
(0.0146954 -0.00100034 -0.00147847 -0.00100034 0.00776904 0.000412497 -0.00147847 0.000412497 0.0045994)
(0.0137941 -0.00225608 -0.000308678 -0.00225608 0.0079626 0.000181739 -0.000308678 0.000181739 0.00461587)
(0.0142433 -0.00117691 0.00358374 -0.00117691 0.00909388 -0.00235675 0.00358374 -0.00235675 0.0125519)
(0.0121976 -0.00269302 -0.00302231 -0.00269302 0.011157 -0.00231866 -0.00302231 -0.00231866 0.00929586)
(0.013558 0.00167819 0.00327956 0.00167819 0.00520773 0.00292112 0.00327956 0.00292112 0.00798742)
(0.00529238 -0.000857074 0.00186269 -0.000857074 0.00691774 -0.00104041 0.00186269 -0.00104041 0.00525275)
(0.0153436 -5.08577e-05 0.00277415 -5.08577e-05 0.007142 8.20272e-05 0.00277415 8.20272e-05 0.00778168)
(0.0180875 -0.00186852 0.00242985 -0.00186852 0.00863345 0.000927167 0.00242985 0.000927167 0.0092969)
(0.0164366 -0.00275089 0.00205643 -0.00275089 0.00888386 0.000276457 0.00205643 0.000276457 0.00796002)
(0.00534092 -0.00102274 0.00041035 -0.00102274 0.00571316 -0.00163362 0.00041035 -0.00163362 0.00454057)
(0.00460279 -0.00192083 0.00117899 -0.00192083 0.00805247 -0.00106908 0.00117899 -0.00106908 0.00655895)
(0.011367 0.00112451 0.00167863 0.00112451 0.00577502 0.00245192 0.00167863 0.00245192 0.00748675)