/*--------------------------------*- C++ -*----------------------------------*\
  =========                 |
  \\      /  F ield         | OpenFOAM: The Open Source CFD Toolbox
   \\    /   O peration     | Website:  https://openfoam.org
    \\  /    A nd           | Version:  10
     \\/     M anipulation  |
\*---------------------------------------------------------------------------*/
FoamFile
{
    format      ascii;
    class       surfaceScalarField;
    location    "8";
    object      phi;
}
// * * * * * * * * * * * * * * * * * * * * * * * * * * * * * * * * * * * * * //

dimensions      [0 3 -1 0 0 0 0];

internalField   nonuniform List<scalar> 
74080
(
1.39683e-06
9.89918e-08
-3.79157e-08
1.40678e-06
-2.6248e-07
4.27299e-07
1.36026e-06
-3.05097e-07
4.16104e-07
1.32753e-06
1.55409e-07
-2.68816e-07
1.36843e-06
3.78351e-07
-5.97909e-07
1.40441e-06
9.68247e-08
-1.33988e-07
1.43405e-06
-2.76055e-07
3.95241e-07
1.37023e-06
-2.81893e-07
4.09456e-07
1.30889e-06
1.59429e-07
-3.05209e-07
1.34465e-06
3.55435e-07
-4.99161e-07
1.37184e-06
8.48846e-08
-9.44275e-08
1.40539e-06
-2.59756e-07
3.31318e-07
1.36622e-06
-2.66597e-07
3.19557e-07
1.33177e-06
1.35703e-07
-2.86473e-07
1.38236e-06
2.68067e-07
-4.78658e-07
1.39429e-06
3.37811e-08
3.16389e-09
1.40133e-06
-2.66797e-07
3.99716e-07
1.34665e-06
-3.0101e-07
4.70884e-07
1.30515e-06
1.9986e-07
-2.25999e-07
1.34946e-06
4.27473e-07
-5.83687e-07
1.38409e-06
1.03162e-07
-9.21615e-08
1.40696e-06
-2.54025e-07
3.72061e-07
1.34503e-06
-2.97237e-07
3.667e-07
1.29623e-06
1.56532e-07
-1.97221e-07
1.34511e-06
4.30577e-07
-5.6135e-07
1.37648e-06
8.60354e-08
-1.27564e-07
1.40279e-06
-2.61201e-07
3.78387e-07
1.3577e-06
-2.75341e-07
4.32172e-07
1.29742e-06
2.59421e-07
-2.86766e-07
1.32263e-06
5.21414e-07
-6.42128e-07
1.35946e-06
1.59309e-07
-1.79911e-07
1.39649e-06
-2.63527e-07
3.61365e-07
1.35279e-06
-2.69009e-07
3.32145e-07
1.30127e-06
1.70105e-07
-2.99811e-07
1.34218e-06
3.7809e-07
-5.44504e-07
1.37185e-06
7.09976e-08
-1.0467e-07
1.40578e-06
-2.79506e-07
3.59256e-07
1.36772e-06
-2.66784e-07
3.37809e-07
1.32342e-06
1.5495e-07
-2.42491e-07
3.86297e-07
-5.67987e-07
4.73301e-06
3.31045e-07
-2.87403e-07
4.75577e-06
-9.09244e-07
1.29057e-06
4.54447e-06
-1.06122e-06
1.41494e-06
4.42958e-06
6.88732e-07
-8.69352e-07
4.61977e-06
1.40282e-06
-2.02991e-06
4.76107e-06
3.82187e-07
-5.94172e-07
4.83406e-06
-9.39183e-07
1.206e-06
4.57782e-06
-9.8056e-07
1.40078e-06
4.38304e-06
6.74082e-07
-9.67019e-07
4.53611e-06
1.36007e-06
-1.73458e-06
4.64698e-06
3.38025e-07
-4.81224e-07
4.73922e-06
-8.59433e-07
9.95737e-07
4.56178e-06
-9.28082e-07
1.12486e-06
4.45157e-06
6.13343e-07
-9.03952e-07
4.66061e-06
1.00403e-06
-1.66033e-06
4.72564e-06
8.13748e-08
-1.52739e-07
4.72855e-06
-9.11502e-07
1.21799e-06
4.49154e-06
-1.01689e-06
1.58596e-06
4.35383e-06
8.66e-07
-7.48485e-07
4.55749e-06
1.5998e-06
-1.99312e-06
4.68853e-06
3.80664e-07
-4.60416e-07
4.74778e-06
-8.56331e-07
1.13194e-06
4.49114e-06
-1.0549e-06
1.26595e-06
4.31831e-06
7.09125e-07
-6.55222e-07
4.54605e-06
1.61709e-06
-1.94281e-06
4.67184e-06
3.46827e-07
-5.82316e-07
4.73045e-06
-8.58955e-07
1.1689e-06
4.51748e-06
-9.44331e-07
1.48231e-06
4.319e-06
1.06266e-06
-9.37278e-07
4.47379e-06
1.9376e-06
-2.16525e-06
4.62354e-06
6.04195e-07
-7.1946e-07
4.7166e-06
-8.96657e-07
1.12016e-06
4.51681e-06
-9.31337e-07
1.1502e-06
4.34248e-06
7.20786e-07
-9.41541e-07
4.5265e-06
1.42293e-06
-1.87505e-06
4.65555e-06
2.76634e-07
-5.19362e-07
4.74178e-06
-9.34674e-07
1.09146e-06
4.56513e-06
-9.22331e-07
1.18172e-06
4.41176e-06
6.84208e-07
-7.76511e-07
1.46076e-06
-1.94953e-06
8.94618e-06
7.72493e-07
-1.02138e-06
8.9807e-06
-1.70305e-06
2.02195e-06
8.53431e-06
-2.13478e-06
2.76149e-06
8.29436e-06
1.60623e-06
-1.30404e-06
8.70456e-06
2.98928e-06
-3.79018e-06
8.99689e-06
9.36918e-07
-1.55995e-06
9.10936e-06
-1.72964e-06
1.87974e-06
8.59969e-06
-1.96629e-06
2.75167e-06
8.22641e-06
1.52982e-06
-1.46814e-06
8.54729e-06
2.9608e-06
-3.29481e-06
8.77898e-06
8.64077e-07
-1.34358e-06
8.92843e-06
-1.5192e-06
1.52602e-06
8.55959e-06
-1.83965e-06
2.25578e-06
8.33894e-06
1.4704e-06
-1.37654e-06
8.77523e-06
2.17364e-06
-3.17575e-06
8.93555e-06
2.23119e-07
-7.56967e-07
8.92084e-06
-1.70212e-06
1.9218e-06
8.42615e-06
-2.00842e-06
3.07444e-06
8.14711e-06
2.00419e-06
-1.09611e-06
8.58555e-06
3.43183e-06
-3.73766e-06
8.85727e-06
9.32573e-07
-1.31348e-06
8.95391e-06
-1.5511e-06
1.77737e-06
8.43324e-06
-2.13978e-06
2.49462e-06
8.07957e-06
1.67008e-06
-9.57533e-07
8.57067e-06
3.47342e-06
-3.66892e-06
8.83665e-06
8.81277e-07
-1.54642e-06
8.91379e-06
-1.50978e-06
1.83812e-06
8.46284e-06
-1.88789e-06
2.90926e-06
8.0807e-06
2.35707e-06
-1.42993e-06
8.44138e-06
4.11707e-06
-4.02545e-06
8.75563e-06
1.42104e-06
-1.75875e-06
8.89839e-06
-1.64079e-06
1.76459e-06
8.48063e-06
-1.85698e-06
2.29659e-06
8.13395e-06
1.64009e-06
-1.42376e-06
8.52627e-06
3.06255e-06
-3.54506e-06
8.80366e-06
6.99868e-07
-1.4437e-06
8.93534e-06
-1.69049e-06
1.69642e-06
8.56426e-06
-1.83332e-06
2.3575e-06
8.25274e-06
1.60074e-06
-1.14284e-06
3.16651e-06
-3.68165e-06
1.41579e-05
1.55998e-06
-2.60452e-06
1.42102e-05
-2.25878e-06
2.24482e-06
1.34634e-05
-3.31353e-06
4.50128e-06
1.30341e-05
2.83942e-06
-1.15573e-06
1.3734e-05
4.97858e-06
-5.73674e-06
1.42323e-05
1.88598e-06
-3.36908e-06
1.43838e-05
-2.23519e-06
2.02892e-06
1.35701e-05
-3.02544e-06
4.52307e-06
1.29538e-05
2.6382e-06
-1.3995e-06
1.34933e-05
5.02152e-06
-5.06276e-06
1.38871e-05
1.81997e-06
-2.99853e-06
1.40879e-05
-1.79828e-06
1.57064e-06
1.34845e-05
-2.76969e-06
3.76224e-06
1.30988e-05
2.70415e-06
-1.32717e-06
1.38325e-05
3.71494e-06
-4.93978e-06
1.41478e-05
5.92913e-07
-2.1593e-06
1.41085e-05
-2.27428e-06
2.14324e-06
1.3282e-05
-3.08008e-06
4.99295e-06
1.27904e-05
3.53155e-06
-8.34379e-07
1.35397e-05
5.75373e-06
-5.67805e-06
1.4009e-05
1.88918e-06
-2.99451e-06
1.41484e-05
-1.92873e-06
1.95642e-06
1.3305e-05
-3.33478e-06
4.09669e-06
1.26916e-05
2.96197e-06
-7.10964e-07
1.35284e-05
5.82663e-06
-5.60098e-06
1.39942e-05
1.83675e-06
-3.36411e-06
1.40754e-05
-1.77131e-06
2.0004e-06
1.33245e-05
-2.91033e-06
4.77605e-06
1.26974e-05
3.96812e-06
-1.32479e-06
1.33397e-05
6.80751e-06
-6.08168e-06
1.38793e-05
2.72608e-06
-3.63958e-06
1.40658e-05
-2.08105e-06
1.92474e-06
1.33772e-05
-2.83909e-06
3.83519e-06
1.27891e-05
2.84163e-06
-1.35349e-06
1.34517e-05
5.1441e-06
-5.43231e-06
1.39346e-05
1.48148e-06
-3.22438e-06
1.41042e-05
-2.12017e-06
1.80744e-06
1.34915e-05
-2.78622e-06
3.91374e-06
1.29527e-05
2.84734e-06
-9.39723e-07
5.3767e-06
-5.6472e-06
2.04667e-05
2.81044e-06
-5.31148e-06
2.05616e-05
-2.09031e-06
1.38014e-06
1.94527e-05
-4.22576e-06
6.46066e-06
1.87523e-05
4.33593e-06
5.05366e-08
1.98059e-05
7.08854e-06
-7.44543e-06
2.057e-05
3.30245e-06
-6.243e-06
2.07664e-05
-1.94029e-06
1.07255e-06
1.96065e-05
-3.78633e-06
6.57075e-06
1.86727e-05
3.88658e-06
-2.65195e-07
1.94791e-05
7.27489e-06
-6.65571e-06
2.00771e-05
3.33048e-06
-5.66937e-06
2.03185e-05
-1.13186e-06
5.81195e-07
1.94445e-05
-3.33419e-06
5.50208e-06
1.88263e-05
4.32348e-06
-2.88649e-07
1.99184e-05
5.50892e-06
-6.60629e-06
2.04652e-05
1.34148e-06
-4.63003e-06
2.04138e-05
-2.16423e-06
1.30772e-06
1.91801e-05
-3.89958e-06
7.17576e-06
1.83812e-05
5.38713e-06
5.52701e-07
1.95137e-05
8.25417e-06
-7.3885e-06
2.02439e-05
3.34126e-06
-5.75023e-06
2.0441e-05
-1.46645e-06
1.11865e-06
1.92301e-05
-4.25829e-06
5.91888e-06
1.82608e-05
4.50076e-06
5.53825e-07
1.95167e-05
8.36192e-06
-7.32303e-06
2.02525e-05
3.30339e-06
-6.27251e-06
2.03301e-05
-1.09141e-06
1.07219e-06
1.92206e-05
-3.64921e-06
6.94031e-06
1.82752e-05
5.70053e-06
-9.04964e-08
1.92738e-05
9.56721e-06
-7.91126e-06
2.01039e-05
4.55303e-06
-6.59511e-06
2.03311e-05
-1.70146e-06
1.03862e-06
1.9327e-05
-3.51804e-06
5.63199e-06
1.84164e-05
4.21666e-06
-2.54904e-07
1.94011e-05
7.38728e-06
-7.1403e-06
2.01507e-05
2.72762e-06
-6.11158e-06
2.03528e-05
-1.68667e-06
8.54751e-07
1.94578e-05
-3.41373e-06
5.69902e-06
1.86098e-05
4.37918e-06
3.05883e-07
7.84777e-06
-7.4521e-06
2.79338e-05
4.50832e-06
-9.05965e-06
2.8127e-05
-7.50666e-07
-1.24186e-06
2.66066e-05
-4.31089e-06
8.09116e-06
2.55369e-05
6.04302e-06
2.81802e-06
2.69943e-05
8.90312e-06
-8.10715e-06
2.80823e-05
5.06506e-06
-1.0015e-05
2.83437e-05
-3.81287e-07
-1.63618e-06
2.68036e-05
-3.69539e-06
8.38782e-06
2.54742e-05
5.32769e-06
2.36485e-06
2.65926e-05
9.30111e-06
-7.31955e-06
2.74314e-05
5.3467e-06
-9.2249e-06
2.7702e-05
9.68187e-07
-2.02056e-06
2.65259e-05
-2.98629e-06
6.99291e-06
2.5602e-05
6.39904e-06
2.1603e-06
2.70924e-05
7.36117e-06
-7.4454e-06
2.79533e-05
2.53721e-06
-8.10643e-06
2.79393e-05
-9.16302e-07
-1.24637e-06
2.62279e-05
-3.95796e-06
9.0679e-06
2.50036e-05
7.46495e-06
3.58469e-06
2.65812e-05
1.04566e-05
-8.04635e-06
2.76337e-05
5.19204e-06
-9.45942e-06
2.7919e-05
3.12912e-07
-1.3689e-06
2.6318e-05
-4.33455e-06
7.46628e-06
2.48851e-05
6.22106e-06
3.28744e-06
2.66105e-05
1.05991e-05
-8.03183e-06
2.76909e-05
5.15437e-06
-1.01278e-05
2.77771e-05
1.0118e-06
-1.59449e-06
2.62531e-05
-3.53346e-06
8.89386e-06
2.49008e-05
7.46256e-06
2.75186e-06
2.63254e-05
1.17472e-05
-8.70408e-06
2.75112e-05
6.68225e-06
-1.04805e-05
2.77868e-05
-5.7375e-08
-1.53492e-06
2.64327e-05
-3.35533e-06
7.20228e-06
2.51147e-05
5.81034e-06
2.26578e-06
2.64541e-05
9.37432e-06
-7.89313e-06
2.75255e-05
4.3702e-06
-9.98702e-06
2.77659e-05
7.84357e-08
-1.78516e-06
2.65536e-05
-3.17039e-06
7.21061e-06
2.5309e-05
6.16617e-06
3.07209e-06
1.01996e-05
-8.3099e-06
3.65582e-05
6.36335e-06
-1.30779e-05
3.69435e-05
1.75228e-06
-5.93821e-06
3.50101e-05
-2.97759e-06
8.43957e-06
3.3451e-05
8.14898e-06
7.00362e-06
3.53208e-05
9.98227e-06
-6.64252e-06
3.67841e-05
6.71951e-06
-1.38165e-05
3.71573e-05
2.37709e-06
-6.39642e-06
3.52316e-05
-2.17311e-06
9.05584e-06
3.34205e-05
7.14469e-06
6.50966e-06
3.48794e-05
1.06251e-05
-6.03069e-06
3.59839e-05
7.49398e-06
-1.28613e-05
3.6285e-05
4.50654e-06
-6.55858e-06
3.47948e-05
-1.18231e-06
7.36376e-06
3.34838e-05
9.095e-06
6.03662e-06
3.53715e-05
9.04128e-06
-6.40551e-06
3.6616e-05
4.04085e-06
-1.18628e-05
3.67373e-05
1.40295e-06
-5.82792e-06
3.45202e-05
-2.69388e-06
9.67036e-06
3.27245e-05
9.88399e-06
8.15971e-06
3.47723e-05
1.18192e-05
-6.53573e-06
3.61984e-05
7.00029e-06
-1.33056e-05
3.66239e-05
3.41951e-06
-5.81304e-06
3.46644e-05
-2.95018e-06
7.8672e-06
3.26467e-05
8.29768e-06
7.38368e-06
3.48347e-05
1.19908e-05
-6.63667e-06
3.633e-05
6.88788e-06
-1.40799e-05
3.64746e-05
4.44092e-06
-6.30304e-06
3.45112e-05
-1.9327e-06
9.71613e-06
3.26295e-05
9.36744e-06
7.21896e-06
3.45152e-05
1.26437e-05
-7.35894e-06
3.61225e-05
8.48739e-06
-1.44605e-05
3.64819e-05
2.73662e-06
-6.10084e-06
3.47778e-05
-1.78788e-06
7.66359e-06
3.29626e-05
7.78174e-06
6.20676e-06
3.46493e-05
1.06653e-05
-6.64214e-06
3.60777e-05
6.02423e-06
-1.40349e-05
3.6387e-05
3.09252e-06
-6.4291e-06
3.48501e-05
-1.48808e-06
7.55126e-06
3.31151e-05
8.36812e-06
7.28561e-06
1.20017e-05
-7.12764e-06
4.62451e-05
7.75324e-06
-1.57254e-05
4.69432e-05
4.95557e-06
-1.23097e-05
4.47311e-05
-6.31346e-08
6.45719e-06
4.25523e-05
1.09387e-05
1.177e-05
4.47177e-05
1.00707e-05
-2.26012e-06
4.65863e-05
7.48e-06
-1.59489e-05
4.71579e-05
5.7389e-06
-1.2726e-05
4.49449e-05
9.38081e-07
7.50426e-06
4.25646e-05
9.6557e-06
1.14425e-05
4.43092e-05
1.09306e-05
-2.01597e-06
4.56809e-05
9.01496e-06
-1.49456e-05
4.60379e-05
8.91643e-06
-1.25743e-05
4.43072e-05
2.17018e-06
5.60624e-06
4.25222e-05
1.25553e-05
1.06063e-05
4.47128e-05
1.03762e-05
-2.59646e-06
4.63669e-05
5.42199e-06
-1.43122e-05
4.67578e-05
4.42877e-06
-1.20771e-05
4.41451e-05
9.35466e-08
7.83672e-06
4.16159e-05
1.28501e-05
1.34308e-05
4.40405e-05
1.19524e-05
-1.99324e-06
4.58712e-05
7.94284e-06
-1.56204e-05
4.65103e-05
7.29593e-06
-1.18531e-05
4.43558e-05
8.72972e-08
6.13893e-06
4.16296e-05
1.10406e-05
1.20468e-05
4.41285e-05
1.21394e-05
-2.30517e-06
4.60839e-05
7.6102e-06
-1.64177e-05
4.63848e-05
8.44566e-06
-1.26274e-05
4.40875e-05
1.3557e-06
8.3421e-06
4.15126e-05
1.17757e-05
1.25443e-05
4.37475e-05
1.18919e-05
-3.00125e-06
4.58381e-05
8.96219e-06
-1.68692e-05
4.63714e-05
5.93759e-06
-1.22266e-05
4.44305e-05
1.31321e-06
6.00074e-06
4.20345e-05
1.04043e-05
1.0825e-05
4.3951e-05
1.10451e-05
-2.59341e-06
4.5731e-05
6.96357e-06
-1.65803e-05
4.61739e-05
6.7473e-06
-1.26383e-05
4.44094e-05
1.76586e-06
5.70366e-06
4.20883e-05
1.12003e-05
1.21914e-05
1.29432e-05
-3.01818e-06
5.67481e-05
8.04912e-06
-1.49367e-05
5.78736e-05
7.8632e-06
-1.85636e-05
5.57768e-05
3.64416e-06
1.7603e-06
5.29673e-05
1.43397e-05
1.54988e-05
5.50608e-05
9.86338e-06
4.66947e-06
5.72155e-05
6.69945e-06
-1.4436e-05
5.81172e-05
8.4812e-06
-1.87933e-05
5.5956e-05
4.81994e-06
3.23597e-06
5.3023e-05
1.28347e-05
1.56745e-05
5.47892e-05
1.06834e-05
4.53001e-06
5.63084e-05
9.12247e-06
-1.35267e-05
5.67831e-05
1.29567e-05
-1.82725e-05
5.50841e-05
6.22185e-06
1.28436e-06
5.28262e-05
1.6434e-05
1.43495e-05
5.5045e-05
1.16546e-05
3.86434e-06
5.69853e-05
6.14669e-06
-1.34233e-05
5.77665e-05
7.26852e-06
-1.82457e-05
5.51477e-05
3.74987e-06
3.05378e-06
5.18408e-05
1.6263e-05
1.76531e-05
5.42936e-05
1.14575e-05
5.3074e-06
5.64253e-05
7.25196e-06
-1.43861e-05
5.73726e-05
1.07625e-05
-1.77817e-05
5.54318e-05
3.99861e-06
1.86902e-06
5.1997e-05
1.44369e-05
1.57358e-05
5.4377e-05
1.17018e-05
4.68121e-06
5.6669e-05
6.53205e-06
-1.50853e-05
5.7283e-05
1.15962e-05
-1.8796e-05
5.50412e-05
5.46929e-06
4.26141e-06
5.17067e-05
1.4867e-05
1.71448e-05
5.38344e-05
1.01821e-05
4.11136e-06
5.63282e-05
7.32425e-06
-1.56828e-05
5.72218e-05
8.13534e-06
-1.81557e-05
5.54072e-05
5.08694e-06
1.7716e-06
5.24681e-05
1.35774e-05
1.46642e-05
5.42655e-05
1.10788e-05
3.99595e-06
5.62387e-05
6.54286e-06
-1.55877e-05
5.69212e-05
9.77781e-06
-1.86171e-05
5.52543e-05
5.75944e-06
1.24362e-06
5.23573e-05
1.45045e-05
1.62323e-05
1.34999e-05
3.84187e-06
6.77045e-05
7.49306e-06
-9.84497e-06
6.92573e-05
9.2875e-06
-2.16918e-05
6.79735e-05
6.3293e-06
-4.4385e-06
6.49323e-05
1.71162e-05
1.65163e-05
6.63861e-05
9.9658e-06
1.21057e-05
6.82705e-05
4.87115e-06
-8.74792e-06
6.95617e-05
9.24611e-06
-2.16392e-05
6.81423e-05
7.66964e-06
-2.72979e-06
6.50216e-05
1.55847e-05
1.7422e-05
6.63203e-05
1.03708e-05
1.17728e-05
6.75277e-05
7.95155e-06
-8.01979e-06
6.81324e-05
1.50875e-05
-2.07462e-05
6.70324e-05
9.10356e-06
-4.49125e-06
6.46218e-05
1.92475e-05
1.55022e-05
6.6436e-05
1.27374e-05
1.12076e-05
6.8165e-05
6.20772e-06
-8.34928e-06
6.93025e-05
8.80858e-06
-2.13945e-05
6.74128e-05
6.65254e-06
-3.5589e-06
6.37196e-05
1.89714e-05
1.8859e-05
6.55983e-05
1.08786e-05
1.32979e-05
6.75085e-05
5.24972e-06
-8.88016e-06
6.87937e-05
1.23697e-05
-2.07566e-05
6.77617e-05
6.94953e-06
-3.89105e-06
6.40521e-05
1.73063e-05
1.68388e-05
6.56293e-05
1.12827e-05
1.23366e-05
6.76442e-05
4.11377e-06
-9.40189e-06
6.86884e-05
1.22947e-05
-2.19019e-05
6.72659e-05
8.5067e-06
-1.62964e-06
6.35655e-05
1.78042e-05
1.91802e-05
6.47912e-05
8.92656e-06
1.19973e-05
6.70764e-05
4.32588e-06
-1.01473e-05
6.8526e-05
7.8347e-06
-2.09952e-05
6.75647e-05
7.53616e-06
-3.93148e-06
6.45052e-05
1.60837e-05
1.60878e-05
6.56149e-05
1.13747e-05
1.13111e-05
6.72217e-05
5.18483e-06
-1.03314e-05
6.82031e-05
1.07485e-05
-2.14742e-05
6.72732e-05
8.56553e-06
-4.71202e-06
6.4185e-05
1.70293e-05
1.76284e-05
1.39759e-05
1.16287e-05
7.91897e-05
7.3813e-06
-2.50692e-06
8.06624e-05
9.04991e-06
-1.93687e-05
8.08872e-05
5.90925e-06
-9.23227e-06
7.85785e-05
1.70897e-05
1.43891e-05
7.91328e-05
1.03593e-05
1.69366e-05
7.98332e-05
3.72676e-06
-1.34692e-06
8.10592e-05
7.97682e-06
-1.91416e-05
8.11492e-05
7.08187e-06
-7.65927e-06
7.87096e-05
1.58934e-05
1.57814e-05
7.9195e-05
1.01267e-05
1.66759e-05
7.93469e-05
6.90716e-06
-7.11917e-07
7.97176e-05
1.48494e-05
-1.80164e-05
7.98598e-05
8.6741e-06
-8.98549e-06
7.8127e-05
1.88666e-05
1.33921e-05
7.92764e-05
1.29335e-05
1.62281e-05
7.99514e-05
6.3592e-06
-1.15842e-06
8.09055e-05
8.69815e-06
-1.92041e-05
8.05466e-05
6.55943e-06
-9.01237e-06
7.7526e-05
1.89231e-05
1.63572e-05
7.84424e-05
1.03882e-05
1.8591e-05
7.91927e-05
3.61307e-06
-1.30146e-06
8.03782e-05
1.17199e-05
-1.85628e-05
8.09423e-05
6.55689e-06
-8.43517e-06
7.80081e-05
1.74632e-05
1.48411e-05
7.84044e-05
1.10757e-05
1.74971e-05
7.90654e-05
2.33541e-06
-1.70573e-06
8.01624e-05
1.03564e-05
-1.97197e-05
8.03705e-05
7.79922e-06
-6.75014e-06
7.73543e-05
1.85939e-05
1.77397e-05
7.72597e-05
8.92367e-06
1.74839e-05
7.82175e-05
2.3978e-06
-2.48711e-06
7.9832e-05
5.20557e-06
-1.85852e-05
8.05089e-05
6.31131e-06
-8.38669e-06
7.82794e-05
1.58177e-05
1.44183e-05
7.8385e-05
1.19595e-05
1.63542e-05
7.87453e-05
4.53827e-06
-2.96726e-06
7.96511e-05
9.51009e-06
-1.9166e-05
8.01373e-05
7.95138e-06
-9.43105e-06
7.77955e-05
1.67263e-05
1.56197e-05
1.42137e-05
1.70928e-05
9.212e-05
8.46668e-06
3.47668e-06
9.24864e-05
8.7405e-06
-1.31107e-05
9.39481e-05
2.71844e-06
-1.02987e-05
9.34162e-05
1.3235e-05
1.04919e-05
9.34837e-05
9.91973e-06
1.71922e-05
9.27691e-05
4.17889e-06
4.28907e-06
9.29741e-05
6.5555e-06
-1.29084e-05
9.44227e-05
3.29741e-06
-9.18899e-06
9.36217e-05
1.27182e-05
1.18383e-05
9.3493e-05
9.28506e-06
1.69689e-05
9.24364e-05
6.877e-06
5.03431e-06
9.18326e-05
1.37541e-05
-1.17502e-05
9.30633e-05
5.13272e-06
-9.89803e-06
9.30081e-05
1.45084e-05
9.35483e-06
9.37322e-05
1.12619e-05
1.65099e-05
9.30305e-05
7.19498e-06
4.4985e-06
9.27768e-05
8.26171e-06
-1.30872e-05
9.38866e-05
3.4809e-06
-1.0865e-05
9.28522e-05
1.49286e-05
1.16763e-05
9.31176e-05
9.14838e-06
1.88778e-05
9.23524e-05
3.57222e-06
4.67191e-06
9.24621e-05
1.04383e-05
-1.25337e-05
9.43395e-05
2.999e-06
-9.58114e-06
9.3346e-05
1.37859e-05
1.08825e-05
9.30206e-05
1.02193e-05
1.79812e-05
9.19269e-05
2.54174e-06
4.34174e-06
9.20881e-05
7.8829e-06
-1.35453e-05
9.37892e-05
3.6121e-06
-8.8293e-06
9.25766e-05
1.58151e-05
1.3719e-05
9.17257e-05
9.26264e-06
1.84085e-05
9.09934e-05
2.81843e-06
3.93493e-06
9.1657e-05
2.72024e-06
-1.23894e-05
9.36988e-05
1.8803e-06
-9.41397e-06
9.3267e-05
1.18169e-05
1.07771e-05
9.27842e-05
1.17328e-05
1.70087e-05
9.16747e-05
5.48739e-06
3.05863e-06
9.16581e-05
7.89281e-06
-1.30965e-05
9.33547e-05
4.19793e-06
-1.06188e-05
9.2805e-05
1.27516e-05
1.13427e-05
1.32762e-05
1.78295e-05
0.000106526
9.03075e-06
5.87718e-06
0.000105446
9.03423e-06
-6.22863e-06
0.000106612
-1.78418e-07
-7.89464e-06
0.000107765
7.36973e-06
6.81013e-06
0.000108002
7.73774e-06
1.36868e-05
0.000106919
4.6916e-06
6.05716e-06
0.000105843
6.09786e-06
-6.29955e-06
0.000107237
-4.57239e-07
-7.4288e-06
0.000108012
7.54152e-06
7.78541e-06
0.000107788
7.16513e-06
1.32168e-05
0.000106588
6.63698e-06
6.89915e-06
0.000105035
1.27074e-05
-5.23032e-06
0.000106032
1.49485e-06
-7.45187e-06
0.000107533
8.09574e-06
5.67656e-06
0.000108306
7.71181e-06
1.26831e-05
0.000107185
7.21886e-06
6.22487e-06
0.000105458
8.36953e-06
-6.4876e-06
0.000106619
2.84772e-07
-9.0458e-06
0.000107825
8.46519e-06
7.12873e-06
0.000108171
6.43336e-06
1.48296e-05
0.000106921
3.79643e-06
6.74873e-06
0.000105639
9.72437e-06
-5.92294e-06
0.000107164
-4.36158e-07
-7.48929e-06
0.000108135
7.96675e-06
6.87192e-06
0.000107988
7.78436e-06
1.43455e-05
0.000106305
3.3504e-06
6.5026e-06
0.000105088
6.49142e-06
-6.62348e-06
0.00010676
-6.39732e-07
-7.61295e-06
0.000107464
1.05721e-05
9.10818e-06
0.000106888
8.28992e-06
1.51105e-05
0.000105593
3.9709e-06
6.69463e-06
0.00010479
1.9086e-06
-5.67187e-06
0.000106525
-2.19377e-06
-7.25142e-06
0.000107707
5.91953e-06
7.14517e-06
0.000107478
9.62893e-06
1.3727e-05
0.000106007
6.37744e-06
5.69403e-06
0.000104853
7.07892e-06
-6.37505e-06
0.000106278
4.88993e-07
-8.29699e-06
0.000107467
6.91677e-06
6.9386e-06
1.05047e-05
1.4325e-05
0.000120076
7.48138e-06
4.7549e-06
0.000118733
8.76651e-06
-1.48127e-06
0.000118781
-7.83419e-07
-4.24723e-06
0.000120041
3.00228e-06
4.27901e-06
0.0001204
4.70022e-06
8.86906e-06
0.000119958
3.66754e-06
4.54003e-06
0.00011877
5.72797e-06
-1.91643e-06
0.000119227
-1.66945e-06
-4.38754e-06
0.000120198
3.57529e-06
4.82253e-06
0.000119987
4.33972e-06
8.12118e-06
0.000119614
4.90843e-06
5.2777e-06
0.00011845
1.10212e-05
-1.0619e-06
0.000118532
1.56783e-07
-3.93805e-06
0.000119918
3.365e-06
3.40849e-06
0.000120527
3.92003e-06
7.58849e-06
0.000120091
5.35285e-06
4.50485e-06
0.000118371
7.91603e-06
-1.87306e-06
0.000118609
-6.69556e-07
-5.57467e-06
0.000120375
3.28924e-06
3.92727e-06
0.00012086
3.18665e-06
9.14264e-06
0.000120336
2.64272e-06
5.05077e-06
0.000118949
8.8329e-06
-1.45285e-06
0.000119177
-1.19054e-06
-4.26631e-06
0.000120489
3.56183e-06
3.85988e-06
0.000120671
4.48407e-06
9.06455e-06
0.000119836
2.78702e-06
4.99888e-06
0.000118341
5.67407e-06
-1.83291e-06
0.000118837
-2.15184e-06
-4.79213e-06
0.000120134
6.04249e-06
5.35674e-06
0.000120248
5.85938e-06
9.86204e-06
0.000119589
3.61732e-06
5.65853e-06
0.000118314
1.88478e-06
-1.26026e-06
0.000118702
-3.27715e-06
-3.96532e-06
0.000119948
1.73372e-06
4.56462e-06
0.000120181
6.36995e-06
8.82185e-06
0.000119555
5.42703e-06
4.82964e-06
0.000118362
6.35222e-06
-1.63109e-06
0.000118566
-6.94401e-07
-4.59688e-06
0.000119929
2.69304e-06
3.74267e-06
6.83669e-06
9.10423e-06
0.000131759
4.84369e-06
2.52569e-06
0.000131161
7.56434e-06
5.65001e-07
0.00013092
-2.42306e-07
-1.5483e-06
0.000131378
1.11236e-06
2.74079e-06
0.000131381
2.19095e-06
4.95691e-06
0.000131408
1.883e-06
2.28208e-06
0.000130945
4.90229e-06
-3.78066e-09
0.000131069
-1.16865e-06
-2.08689e-06
0.000131423
1.81393e-06
2.97555e-06
0.000131018
1.90003e-06
4.13475e-06
0.000131119
2.64341e-06
2.85938e-06
0.000130949
8.79862e-06
4.79365e-07
0.000130876
3.1962e-07
-1.39855e-06
0.000131308
1.38938e-06
2.15897e-06
0.000131348
1.32048e-06
3.63421e-06
0.00013142
2.86979e-06
2.02928e-06
0.000130766
6.54965e-06
3.17381e-07
0.000130698
-1.90889e-07
-2.75768e-06
0.000131622
9.05313e-07
2.02139e-06
0.00013168
8.11093e-07
4.53928e-06
0.000131729
8.3136e-07
2.33838e-06
0.000131216
7.42236e-06
3.77326e-07
0.000131108
-3.99016e-07
-1.90772e-06
0.000131691
1.63662e-06
1.8902e-06
0.00013161
1.76543e-06
4.73749e-06
0.000131558
1.33546e-06
2.55362e-06
0.000130796
4.75738e-06
2.59178e-07
0.000130756
-1.74836e-06
-2.49259e-06
0.000131544
3.58862e-06
2.85779e-06
0.000131751
3.2788e-06
5.40579e-06
0.000131637
2.15652e-06
3.30206e-06
0.000130858
1.71006e-06
4.60687e-07
0.00013072
-2.44011e-06
-1.54677e-06
0.000131221
2.04698e-07
2.98526e-06
0.000131362
3.48767e-06
4.71822e-06
0.0001314
3.4942e-06
2.78722e-06
0.000130959
5.30354e-06
4.54166e-07
0.000130716
-2.69511e-07
-1.82841e-06
0.000131295
9.94168e-07
1.85911e-06
3.77674e-06
4.77547e-06
0.0001437
2.65934e-06
1.10206e-06
0.000143774
6.02954e-06
1.04681e-06
0.000143856
1.17453e-07
-3.26571e-07
0.000143746
4.92242e-07
1.85922e-06
0.000143354
5.82391e-07
2.749e-06
0.000143438
4.93697e-07
9.23667e-07
0.000143556
3.95811e-06
4.73845e-07
0.000143853
-4.76095e-07
-1.00785e-06
0.000143763
1.1416e-06
1.95142e-06
0.000143163
2.36891e-07
1.972e-06
0.00014322
1.00513e-06
1.36497e-06
0.000143629
6.7026e-06
7.07242e-07
0.000143882
6.02003e-07
-2.84511e-07
0.000143737
7.91412e-07
1.43702e-06
0.000143331
-9.3692e-08
1.54251e-06
0.000143394
1.11258e-06
5.35129e-07
0.000143547
4.96468e-06
9.09815e-07
0.000143736
3.34547e-07
-1.36333e-06
0.000143873
1.48584e-07
1.02163e-06
0.000143426
-4.52273e-07
2.02977e-06
0.000143515
-4.49703e-07
6.86688e-07
0.000143695
5.93708e-06
7.63216e-07
0.000143953
2.63403e-07
-7.963e-07
0.000143963
9.92054e-07
8.20381e-07
0.000143465
9.43173e-08
2.33394e-06
0.000143579
1.52732e-07
1.0506e-06
0.000143502
3.78189e-06
7.49959e-07
0.000143642
-1.09961e-06
-1.35295e-06
0.000143849
2.43966e-06
1.50011e-06
0.000143757
1.39057e-06
2.86099e-06
0.000143745
7.92974e-07
1.75374e-06
0.000143523
1.37679e-06
8.26436e-07
0.000143588
-1.46983e-06
-4.17658e-07
0.000143566
-5.33299e-08
2.07669e-06
0.000143379
1.56523e-06
2.39901e-06
0.000143516
1.89065e-06
1.44076e-06
0.000143671
4.18221e-06
9.56302e-07
0.000143688
2.33706e-07
-5.37012e-07
0.000143685
5.21085e-07
8.94641e-07
1.79321e-06
2.38957e-06
0.000157379
1.21132e-06
5.37062e-07
0.00015773
4.60945e-06
9.98677e-07
0.00015803
1.19046e-07
1.1088e-08
0.00015778
2.14465e-07
1.32953e-06
0.000157207
-3.23432e-07
1.73176e-06
0.000157228
-3.12957e-07
4.13654e-07
0.000157573
3.0983e-06
5.00712e-07
0.000157998
-8.33435e-08
-6.47272e-07
0.000157811
7.17365e-07
1.36804e-06
0.00015713
-7.64993e-07
1.02042e-06
0.000157068
1.03996e-07
7.37483e-07
0.000157635
4.99479e-06
5.65762e-07
0.000158074
6.14632e-07
1.33764e-08
0.000157802
5.18433e-07
9.59774e-07
0.000157233
-8.2217e-07
6.86152e-07
0.000157176
1.7e-07
-1.83203e-08
0.000157618
3.58797e-06
8.8676e-07
0.000157991
5.37927e-07
-8.60789e-07
0.000157862
-1.14541e-07
5.32026e-07
0.000157181
-9.79698e-07
1.01881e-06
0.000157165
-1.05224e-06
9.25789e-08
0.000157606
4.64071e-06
7.12634e-07
0.000158108
4.6482e-07
-4.31691e-07
0.000157955
6.89466e-07
3.182e-07
0.000157256
-7.69309e-07
1.31072e-06
0.000157314
-4.72315e-07
4.4414e-07
0.000157538
2.90935e-06
6.94062e-07
0.000157866
-7.23363e-07
-9.36327e-07
0.000157834
1.78016e-06
8.56424e-07
0.000157517
2.35502e-07
1.71335e-06
0.000157471
-8.71394e-08
1.06833e-06
0.000157517
1.05241e-06
7.74097e-07
0.00015778
-8.74901e-07
-8.4291e-08
0.000157606
-6.21585e-08
1.52041e-06
0.000157216
3.95864e-07
1.37227e-06
0.000157288
9.00177e-07
8.8126e-07
0.00015767
3.23553e-06
9.14578e-07
0.000157917
3.83209e-07
-1.12986e-07
0.00015775
3.39581e-07
4.31233e-07
5.80396e-07
1.3627e-06
0.000172888
3.2499e-07
3.22908e-07
0.000173295
3.47655e-06
7.85921e-07
0.000173603
9.08028e-09
1.6583e-08
0.000173409
7.58094e-09
9.70544e-07
0.000172812
-7.56692e-07
1.1974e-06
0.000172775
-7.12287e-07
2.39693e-07
0.000173176
2.41939e-06
3.94477e-07
0.000173585
9.17331e-08
-5.29999e-07
0.000173449
3.58125e-07
9.80879e-07
0.000172779
-1.25002e-06
5.66721e-07
0.00017266
-3.33858e-07
4.85953e-07
0.00017322
3.68701e-06
3.45128e-07
0.000173653
5.13746e-07
2.51077e-08
0.000173431
3.02712e-07
6.23028e-07
0.000172861
-1.1388e-06
3.25319e-07
0.000172738
-2.866e-07
-1.46914e-07
0.000173221
2.56152e-06
6.71635e-07
0.000173593
5.64432e-07
-6.7239e-07
0.000173469
-2.6706e-07
2.6981e-07
0.000172776
-1.11037e-06
6.0133e-07
0.000172687
-1.24384e-06
-4.82905e-08
0.000173174
3.60197e-06
5.36808e-07
0.000173677
4.58731e-07
-3.33463e-07
0.000173559
4.53262e-07
7.79316e-08
0.000172849
-1.12216e-06
8.46356e-07
0.000172843
-7.30535e-07
2.04775e-07
0.000173145
2.24247e-06
4.82106e-07
0.000173496
-5.24837e-07
-7.62633e-07
0.000173452
1.29319e-06
5.37261e-07
0.000173058
-3.7428e-07
1.13119e-06
0.000172976
-5.49898e-07
7.19639e-07
0.000173108
8.17426e-07
5.91653e-07
0.000173403
-5.32367e-07
-4.14368e-08
0.000173252
-8.22008e-08
1.13152e-06
0.000172809
-2.54618e-07
8.83992e-07
0.000172833
3.30025e-07
6.38175e-07
0.000173248
2.49887e-06
7.05099e-07
0.000173536
3.5891e-07
3.69895e-09
0.000173402
1.93598e-07
1.98237e-07
-9.90565e-08
8.79866e-07
0.000190081
-1.89766e-07
2.06059e-07
0.000190489
2.60427e-06
5.5782e-07
0.000190711
-8.07279e-08
-4.00199e-08
0.000190605
-1.6244e-07
7.04968e-07
0.000190056
-8.82824e-07
8.4134e-07
0.000189974
-8.62194e-07
1.59081e-07
0.000190386
1.87646e-06
2.76591e-07
0.000190723
1.65293e-07
-4.61359e-07
0.000190647
8.08871e-08
6.97139e-07
0.000190039
-1.37269e-06
2.95823e-07
0.000189897
-5.05648e-07
3.49701e-07
0.000190416
2.6996e-06
1.52383e-07
0.000190771
3.81602e-07
-1.10275e-10
0.000190624
1.31572e-07
3.84709e-07
0.000190109
-1.18986e-06
1.34711e-07
0.000189957
-4.70458e-07
-1.72299e-07
0.000190418
1.82183e-06
4.45506e-07
0.000190726
5.31677e-07
-5.57377e-07
0.000190648
-3.78679e-07
1.12136e-07
0.000190032
-1.02522e-06
3.69839e-07
0.000189901
-1.22075e-06
-7.68359e-08
0.000190382
2.78631e-06
3.53842e-07
0.000190785
3.96848e-07
-2.90576e-07
0.000190735
2.6003e-07
-4.62241e-08
0.000190093
-1.16506e-06
5.69727e-07
0.000190046
-7.87294e-07
8.42347e-08
0.00019036
1.74649e-06
2.79818e-07
0.000190649
-3.99157e-07
-6.37212e-07
0.000190653
9.00247e-07
3.44973e-07
0.000190264
-6.24543e-07
7.59248e-07
0.000190156
-7.46373e-07
4.86815e-07
0.00019032
6.55881e-07
4.12052e-07
0.000190568
-3.24637e-07
-5.57909e-08
0.000190475
-1.15617e-07
8.36812e-07
0.000190048
-5.47699e-07
5.88924e-07
0.000190045
1.27816e-08
4.81631e-07
0.000190443
1.93785e-06
4.84811e-07
0.000190684
2.99121e-07
2.27506e-08
0.000190619
6.69117e-08
6.99344e-08
-4.10778e-07
5.82056e-07
0.000209001
-4.45468e-07
1.26072e-07
0.000209394
1.92668e-06
3.72946e-07
0.000209535
-1.30077e-07
-8.83112e-08
0.000209485
-2.83453e-07
5.06907e-07
0.000209014
-8.30606e-07
5.82303e-07
0.000208896
-8.57251e-07
1.05006e-07
0.0002093
1.43042e-06
1.85871e-07
0.000209569
1.92769e-07
-3.95375e-07
0.000209523
-1.05652e-07
4.89988e-07
0.000209002
-1.27753e-06
1.22566e-07
0.000208853
-5.30267e-07
2.56144e-07
0.000209322
1.95114e-06
2.19744e-08
0.000209596
2.66813e-07
-3.05222e-08
0.000209502
1.16914e-08
2.23131e-07
0.000209061
-1.07937e-06
1.77762e-08
0.000208897
-5.09736e-07
-1.69803e-07
0.000209321
1.28858e-06
2.67126e-07
0.000209563
4.7489e-07
-4.58461e-07
0.000209511
-4.37609e-07
1.41596e-08
0.000209002
-8.39631e-07
2.1817e-07
0.000208845
-1.08668e-06
-8.29173e-08
0.000209304
2.1355e-06
2.09011e-07
0.000209609
3.27696e-07
-2.48797e-07
0.000209597
1.12275e-07
-1.04099e-07
0.00020905
-1.03543e-06
3.78569e-07
0.000208974
-7.31512e-07
1.05955e-08
0.000209284
1.36671e-06
1.36505e-07
0.000209495
-3.00232e-07
-5.17689e-07
0.000209542
5.84523e-07
2.19588e-07
0.000209189
-6.5431e-07
4.99598e-07
0.000209064
-7.74937e-07
3.17056e-07
0.000209243
5.33738e-07
2.7921e-07
0.000209435
-1.96509e-07
-6.31076e-08
0.000209384
-1.43348e-07
6.13309e-07
0.000209
-6.13313e-07
3.90087e-07
0.000208977
-1.48444e-07
3.59482e-07
0.00020935
1.50375e-06
3.11005e-07
0.000209533
2.41514e-07
2.97494e-08
0.000209517
-2.83431e-08
1.913e-09
-4.9219e-07
3.75326e-07
0.000229796
-5.28504e-07
7.21341e-08
0.000230161
1.39484e-06
2.41387e-07
0.000230243
-1.35156e-07
-1.11568e-07
0.000230215
-3.51239e-07
3.59795e-07
0.000229837
-6.9873e-07
3.959e-07
0.000229696
-7.62273e-07
6.78189e-08
0.000230074
1.05978e-06
1.26179e-07
0.000230287
1.94723e-07
-3.27255e-07
0.00023025
-2.07589e-07
3.39531e-07
0.000229826
-1.07582e-06
1.60672e-08
0.00022968
-4.75607e-07
1.8573e-07
0.000230094
1.39025e-06
-6.09376e-08
0.000230299
1.7549e-07
-4.21707e-08
0.000230237