/*--------------------------------*- C++ -*----------------------------------*\
  =========                 |
  \\      /  F ield         | OpenFOAM: The Open Source CFD Toolbox
   \\    /   O peration     | Website:  https://openfoam.org
    \\  /    A nd           | Version:  10
     \\/     M anipulation  |
\*---------------------------------------------------------------------------*/
FoamFile
{
    format      ascii;
    class       volScalarField;
    location    "8";
    object      pMean;
}
// * * * * * * * * * * * * * * * * * * * * * * * * * * * * * * * * * * * * * //

dimensions      [0 2 -2 0 0 0 0];

internalField   nonuniform List<scalar> 
25600
(
-0.000291563
-3.26196e-05
6.59074e-05
9.5127e-05
-5.36212e-05
-0.000364799
-0.000625591
-0.000485401
-9.70662e-05
0.000250789
0.000271182
0.000337787
0.000379284
0.000560523
0.000510378
0.000265848
0.000213362
0.000137056
-0.000111172
-0.000181475
-5.20216e-05
0.000120139
0.000155152
0.000286832
0.000343217
-7.57734e-05
-0.000280752
-0.000172187
-9.7224e-05
-7.86898e-05
0.000189224
0.000466685
0.000473623
0.000522094
0.000268787
-0.000221137
-3.52303e-05
9.66771e-05
-0.000123518
-0.00028506
-0.000296421
-3.21256e-05
6.76491e-05
9.48159e-05
-5.47263e-05
-0.000368804
-0.00062705
-0.000483202
-9.5212e-05
0.00024951
0.000269232
0.000338449
0.000384803
0.000565313
0.000513323
0.000266394
0.000215751
0.0001446
-0.000105558
-0.000179893
-5.46127e-05
0.000120515
0.000159487
0.000290384
0.00034152
-7.90428e-05
-0.000280915
-0.000171538
-9.31203e-05
-7.92084e-05
0.000190018
0.000467002
0.000475398
0.000524955
0.000267367
-0.000222229
-3.70838e-05
0.00010083
-0.000119898
-0.000289488
-0.000306359
-4.21292e-05
7.1466e-05
9.86757e-05
-6.21993e-05
-0.000386249
-0.000646383
-0.000488345
-9.36537e-05
0.000244443
0.000260647
0.000333667
0.000389107
0.000572231
0.00051237
0.000263047
0.000206958
0.000143349
-0.000102972
-0.000186246
-6.11058e-05
0.000115534
0.000158865
0.000295182
0.000337505
-9.75252e-05
-0.000295774
-0.000175065
-9.71798e-05
-8.89382e-05
0.000170576
0.000457168
0.000479657
0.000532759
0.000268234
-0.000231398
-4.34602e-05
9.69243e-05
-0.000122711
-0.0002898
-0.000322298
-5.43825e-05
6.15173e-05
8.68208e-05
-8.63202e-05
-0.000421207
-0.000680768
-0.000505587
-0.000100415
0.000227666
0.000227138
0.000302509
0.000372759
0.000566065
0.000496289
0.000237197
0.000185459
0.000121438
-0.000119884
-0.000205178
-8.61524e-05
0.000103997
0.000147633
0.000283207
0.000313437
-0.000142538
-0.000338728
-0.000215601
-0.000117975
-0.000115684
0.000147565
0.00042995
0.00046355
0.000528995
0.000259942
-0.000251673
-6.8557e-05
8.68504e-05
-0.000136533
-0.000301864
-0.000365251
-9.79868e-05
2.83095e-05
4.47461e-05
-0.000135607
-0.000478033
-0.000735629
-0.000518728
-0.000114575
0.000187223
0.000148025
0.000205744
0.000284684
0.000486278
0.000425092
0.000167972
9.82029e-05
5.98695e-05
-0.000180619
-0.000264169
-0.000122229
6.81596e-05
0.000120241
0.000238038
0.000252746
-0.000223604
-0.000409766
-0.000277897
-0.000185505
-0.000186313
8.63707e-05
0.000396119
0.00044848
0.000513593
0.000220489
-0.000288836
-0.000107515
5.58291e-05
-0.000183786
-0.000338333
-0.000438003
-0.00020771
-9.56053e-05
-4.93058e-05
-0.000244388
-0.000586437
-0.000830373
-0.00057927
-0.000169502
8.95181e-05
-6.67049e-06
4.35785e-05
0.000106281
0.000306068
0.000241576
1.791e-05
-4.05257e-05
-7.60834e-05
-0.000307194
-0.000381054
-0.000208472
9.77323e-06
4.11045e-05
0.000120346
0.000121055
-0.000347987
-0.000504133
-0.000382197
-0.000288249
-0.000285088
-2.61698e-05
0.000262664
0.000344673
0.000420246
9.92192e-05
-0.000427703
-0.000216098
-3.51864e-05
-0.000289812
-0.000435487
-0.000579381
-0.000364821
-0.000279033
-0.000214041
-0.000401228
-0.000747974
-0.000962121
-0.000684477
-0.000305599
-9.36346e-05
-0.00021944
-0.000187498
-0.000134171
7.09291e-05
4.91678e-05
-0.000146015
-0.000191198
-0.000209165
-0.000431418
-0.000477835
-0.000277954
-7.87148e-05
-8.18002e-05
-9.68893e-05
-0.000120778
-0.000540947
-0.000645683
-0.000540336
-0.000428764
-0.000424608
-0.000185093
9.78862e-05
0.000180523
0.00025871
-7.97966e-05
-0.000637564
-0.000423887
-0.00020214
-0.000472599
-0.000640454
-0.000703606
-0.000508172
-0.000471358
-0.00041609
-0.000563456
-0.000914373
-0.00109332
-0.000817823
-0.00046285
-0.000315508
-0.000433195
-0.000356646
-0.000318397
-0.000177375
-0.000159342
-0.000278943
-0.000300586
-0.000313417
-0.000532704
-0.000541807
-0.000295796
-0.000105124
-0.000193907
-0.0003047
-0.000374456
-0.000745481
-0.000825524
-0.000720007
-0.000579247
-0.000596593
-0.000368107
-9.67095e-05
-4.43245e-06
9.21631e-05
-0.000296983
-0.000876765
-0.000615623
-0.000377035
-0.000685738
-0.000829878
-0.000724145
-0.000542251
-0.000581678
-0.000554574
-0.000670585
-0.000990184
-0.00112657
-0.000884975
-0.000564217
-0.000455538
-0.000579971
-0.000477916
-0.000462083
-0.000361673
-0.000291727
-0.000407186
-0.000419572
-0.000400673
-0.000623403
-0.000650608
-0.000339652
-0.000119441
-0.000240395
-0.000416733
-0.000543959
-0.000925851
-0.00105899
-0.000933284
-0.000767563
-0.000821789
-0.000535787
-0.000196874
-0.000134604
-9.25248e-05
-0.000459771
-0.00102616
-0.000776823
-0.000480542
-0.000818498
-0.000945026
-0.000704649
-0.000505123
-0.000593828
-0.000602806
-0.00065468
-0.000910842
-0.00102315
-0.000863812
-0.000672705
-0.000644047
-0.000740289
-0.000560304
-0.000551799
-0.000525819
-0.000461344
-0.000571861
-0.00055329
-0.000535276
-0.000731966
-0.00073105
-0.000400094
-0.000160875
-0.00027705
-0.00045922
-0.000620735
-0.00101764
-0.00124302
-0.00113596
-0.00103884
-0.00118073
-0.00085058
-0.000355516
-0.000304241
-0.000280211
-0.000584154
-0.00107855
-0.000892732
-0.000577988
-0.000902233
-0.000991055
-0.00102493
-0.000726809
-0.000709188
-0.000657252
-0.000623913
-0.000830335
-0.000969455
-0.000934911
-0.000853994
-0.000863099
-0.000935895
-0.000714695
-0.000662539
-0.000700995
-0.000672712
-0.000787291
-0.000783149
-0.000779633
-0.000900006
-0.000860464
-0.000540799
-0.000314545
-0.000433057
-0.000593977
-0.00072681
-0.00109434
-0.00136433
-0.00130026
-0.00129448
-0.00150303
-0.00117372
-0.00059965
-0.000551685
-0.000537261
-0.000696722
-0.00112418
-0.00109728
-0.000884746
-0.00118099
-0.00131153
-0.0013453
-0.00104324
-0.000903793
-0.000762891
-0.000680137
-0.000886333
-0.00107316
-0.0011121
-0.00105808
-0.00105096
-0.001091
-0.00084485
-0.000725987
-0.000790981
-0.000798053
-0.000905342
-0.000901115
-0.000877047
-0.000990422
-0.000970401
-0.000685279
-0.000499802
-0.000615109
-0.000794369
-0.000977384
-0.00126642
-0.00151082
-0.00143979
-0.00138683
-0.00153106
-0.00125205
-0.000696133
-0.000605169
-0.000566625
-0.000630136
-0.0009906
-0.00114011
-0.00107401
-0.00130933
-0.00150704
-0.00125569
-0.00106145
-0.00095778
-0.000821343
-0.000738252
-0.000961693
-0.00118445
-0.00125083
-0.00120133
-0.00115074
-0.00113964
-0.000881555
-0.000695271
-0.00072792
-0.000753396
-0.000825723
-0.000810361
-0.000725616
-0.000866358
-0.000948124
-0.00075768
-0.000615319
-0.000704095
-0.000871477
-0.00110847
-0.00131558
-0.00149452
-0.00143834
-0.00133949
-0.00149342
-0.00127146
-0.000729812
-0.000576622
-0.000506267
-0.000504233
-0.000771355
-0.000952283
-0.000937969
-0.00112941
-0.0013366
-0.00100889
-0.000901838
-0.000842931
-0.00074176
-0.000657812
-0.000875893
-0.00109738
-0.0011475
-0.00107287
-0.000961801
-0.000922699
-0.000714795
-0.000527447
-0.00054759
-0.000592795
-0.000669162
-0.000647239
-0.000519503
-0.000648879
-0.00082242
-0.000760417
-0.000675028
-0.000693548
-0.000775167
-0.00096912
-0.00109628
-0.00122694
-0.00120276
-0.00111712
-0.00133709
-0.00118167
-0.000662336
-0.000509894
-0.000483469
-0.000476765
-0.000633824
-0.000765975
-0.000775335
-0.000935834
-0.00106113
-0.000734543
-0.000668601
-0.000626875
-0.000553601
-0.000461973
-0.000630066
-0.000815307
-0.000816325
-0.000737581
-0.000645715
-0.00064146
-0.000515847
-0.000381785
-0.000399062
-0.000441733
-0.000507306
-0.000472236
-0.000320269
-0.000405365
-0.000592341
-0.000613072
-0.000586317
-0.000584216
-0.000572499
-0.000653713
-0.000718834
-0.000810025
-0.00080123
-0.000731479
-0.000971101
-0.000900407
-0.000493049
-0.000387646
-0.000411431
-0.000406611
-0.000500629
-0.000581735
-0.000611856
-0.000735779
-0.000796094
-0.000486975
-0.00044442
-0.000417972
-0.000368121
-0.000279259
-0.000392028
-0.000531341
-0.000510416
-0.000455776
-0.000403178
-0.000410756
-0.00033149
-0.000219507
-0.000213552
-0.00022415
-0.000272863
-0.00024468
-0.000121275
-0.000177738
-0.000338176
-0.000391001
-0.000403481
-0.000406203
-0.0003373
-0.000323412
-0.000349064
-0.000415982
-0.000438534
-0.000402006
-0.000610561
-0.000623666
-0.000322781
-0.000237108
-0.000263412
-0.000270751
-0.000344333
-0.000384515
-0.000416989
-0.000522808
-0.000551031
-0.000299227
-0.000274829
-0.00026888
-0.000236709
-0.000161724
-0.000234594
-0.000339801
-0.00030574
-0.000264129
-0.000232799
-0.000234675
-0.000171568
-7.87615e-05
-5.58205e-05
-5.06717e-05
-9.90646e-05
-9.2439e-05
-9.70227e-06
-4.49978e-05
-0.00015764
-0.000202972
-0.000232714
-0.00023937
-0.000155825
-0.000115425
-0.000130959
-0.000176936
-0.000215039
-0.000193057
-0.000339831
-0.000384713
-0.000170228
-9.17378e-05
-0.000112059
-0.000133131
-0.000198657
-0.000211451
-0.000232838
-0.000332856
-0.000359553
-0.000185022
-0.000169827
-0.00017621
-0.000156898
-9.90235e-05
-0.000142768
-0.000221018
-0.000182337
-0.000142744
-0.000122049
-0.000120015
-7.03529e-05
-9.36768e-07
2.2978e-05
4.08575e-05
-1.63383e-06
-1.13831e-05
5.49564e-05
3.74723e-05
-3.47137e-05
-6.76346e-05
-0.000108069
-0.000122625
-5.81869e-05
-1.18831e-05
-1.50359e-05
-4.29527e-05
-7.3165e-05
-5.82713e-05
-0.00015353
-0.00020461
-5.59083e-05
8.2201e-06
-9.71197e-06
-4.00066e-05
-0.000104818
-0.000104394
-0.000113981
-0.000205067
-0.000234744
-0.00011931
-0.00011028
-0.000116955
-0.000104943
-6.20258e-05
-8.99025e-05
-0.000150146
-0.000111479
-7.53463e-05
-5.75335e-05
-5.54906e-05
-1.66813e-05
3.77139e-05
5.61949e-05
8.79123e-05
5.59029e-05
3.81244e-05
8.86303e-05
8.14808e-05
3.69153e-05
1.23064e-05
-3.60958e-05
-5.75921e-05
-1.10965e-05
3.599e-05
4.29208e-05
2.72191e-05
4.69338e-06
9.16364e-06
-5.12095e-05
-9.3011e-05
1.15731e-05
5.67122e-05
3.80277e-05
8.87151e-06
-5.15258e-05
-4.96674e-05
-5.07805e-05
-0.000129372
-0.000157528
-8.21394e-05
-7.86359e-05
-8.02473e-05
-7.17576e-05
-4.08754e-05
-6.18815e-05
-0.000109372
-7.27978e-05
-3.75486e-05
-1.74116e-05
-1.40858e-05
1.55785e-05
5.86363e-05
7.01354e-05
0.00010961
8.7701e-05
6.16089e-05
0.000101753
9.9453e-05
7.37675e-05
5.82804e-05
6.80949e-06
-1.80039e-05
1.38516e-05
5.47847e-05
6.78243e-05
6.41168e-05
4.99233e-05
4.37398e-05
3.8954e-06
-2.32849e-05
5.42311e-05
8.45567e-05
6.38345e-05
3.93103e-05
-1.84676e-05
-2.04834e-05
-1.66527e-05
-8.25994e-05
-0.00010768
-5.78692e-05
-6.29616e-05
-6.04365e-05
-4.97501e-05
-2.8322e-05
-4.58683e-05
-8.38226e-05
-5.0079e-05
-1.6217e-05
6.97278e-06
1.2571e-05
3.47777e-05
7.09119e-05
7.50657e-05
0.000115492
0.000103443
7.44884e-05
0.000103939
0.000103353
8.92203e-05
8.50176e-05
3.75747e-05
1.08176e-05
3.21375e-05
6.27021e-05
7.67261e-05
8.14135e-05
7.65716e-05
6.28673e-05
3.33816e-05
1.70149e-05
7.82229e-05
9.77751e-05
7.35471e-05
5.4906e-05
5.22622e-07
-8.02441e-06
2.57476e-07
-5.32108e-05
-7.57586e-05
-3.99171e-05
-5.15593e-05
-4.85631e-05
-3.46013e-05
-1.98025e-05
-3.21596e-05
-6.40094e-05
-3.54999e-05
-4.6858e-06
2.15634e-05
3.12898e-05
4.6278e-05
7.80393e-05
7.77457e-05
0.000115189
0.000111424
8.12226e-05
0.000101322
0.00010157
9.437e-05
9.74777e-05
5.70073e-05
2.97655e-05
4.36143e-05
6.3409e-05
7.37891e-05
8.25736e-05
8.82129e-05
7.31884e-05
4.89915e-05
3.83304e-05
8.7419e-05
0.000103216
7.62756e-05
6.17951e-05
1.35041e-05
-3.84335e-07
9.5226e-06
-3.26001e-05
-5.45955e-05
-2.7424e-05
-4.03241e-05
-4.05954e-05
-2.54207e-05
-1.4415e-05
-2.00356e-05
-4.81836e-05
-2.67867e-05
1.02493e-06
2.76962e-05
4.31726e-05
5.2508e-05
8.0184e-05
7.83261e-05
0.000111304
0.000113787
8.50847e-05
9.71197e-05
9.76541e-05
9.27319e-05
9.8941e-05
6.91668e-05
4.21084e-05
5.11285e-05
6.44618e-05
6.85487e-05
7.7038e-05
9.11464e-05
7.96768e-05
5.84675e-05
5.00408e-05
8.87028e-05
0.000104479
7.58595e-05
6.37968e-05
2.39473e-05
5.59487e-06
1.4346e-05
-1.76226e-05
-3.98762e-05
-2.03558e-05
-2.94254e-05
-3.35408e-05
-1.95032e-05
-1.25017e-05
-1.00168e-05
-3.27177e-05
-2.02724e-05
4.76003e-06
2.89642e-05
5.1028e-05
5.62054e-05
7.88891e-05
7.79833e-05
0.000105833
0.000113369
8.74501e-05
9.40214e-05
9.32155e-05
9.01916e-05
9.51247e-05
7.58275e-05
5.13261e-05
5.52603e-05
6.54044e-05
6.3274e-05
6.88119e-05
8.64225e-05
8.15698e-05
6.43612e-05
5.61132e-05
8.40921e-05
0.000100639
7.3293e-05
6.18508e-05
3.20147e-05
1.11004e-05
1.686e-05
-6.08483e-06
-2.89308e-05
-1.61282e-05
-1.9159e-05
-2.47607e-05
-1.42247e-05
-1.19124e-05
-1.96136e-06
-1.72027e-05
-1.48734e-05
7.78692e-06
2.8011e-05
5.39816e-05
5.78397e-05
7.56611e-05
7.63708e-05
9.92418e-05
0.000110846
8.71753e-05
9.09592e-05
8.87834e-05
8.76392e-05
8.98171e-05
7.83059e-05
5.8206e-05
5.73352e-05
6.73582e-05
6.03825e-05
6.13976e-05
7.82154e-05
7.95701e-05
6.83346e-05
5.8698e-05
7.69838e-05
9.39039e-05
6.96792e-05
5.89701e-05
3.87908e-05
1.63858e-05
1.87321e-05
3.96879e-06
-1.85995e-05
-1.29616e-05
-1.11865e-05
-1.58931e-05
-9.25633e-06
-1.09688e-05
2.07837e-06
-2.55353e-06
-9.27044e-06
9.71615e-06
2.66796e-05
5.23158e-05
5.76238e-05
7.16829e-05
7.3282e-05
9.09598e-05
0.000107852
8.52909e-05
8.82197e-05
8.5441e-05
8.43591e-05
8.56603e-05
7.77717e-05
6.34888e-05
5.89998e-05
6.97014e-05
6.08272e-05
5.69248e-05
7.05286e-05
7.42946e-05
7.0687e-05
5.97936e-05
6.88709e-05
8.6252e-05
6.57112e-05
5.54622e-05
4.3409e-05
2.07173e-05
1.95426e-05
1.20454e-05
-7.95136e-06
-8.21825e-06
-5.30871e-06
-7.29355e-06
-4.26577e-06
-8.03684e-06
2.69583e-06
9.56382e-06
-2.15733e-06
1.10855e-05
2.64142e-05
4.7997e-05
5.58057e-05
6.82195e-05
6.94195e-05
8.09864e-05
0.000104229
8.24557e-05
8.42889e-05
8.44206e-05
8.04646e-05
8.45867e-05
7.67301e-05
6.62703e-05
6.0251e-05
7.09164e-05
6.38445e-05
5.52524e-05
6.51154e-05
6.67502e-05
7.04554e-05
6.10216e-05
6.06492e-05
7.86331e-05
6.19891e-05
5.17484e-05
4.67793e-05
2.46754e-05
1.96972e-05
1.77947e-05
3.03191e-06
-6.20028e-07
-1.30385e-06
-4.58712e-07
7.83616e-07
-3.14865e-06
3.04821e-06
1.76652e-05
5.59032e-06
1.21142e-05
2.80953e-05
4.1807e-05
5.22813e-05
6.61819e-05
6.54835e-05
7.00985e-05
9.84525e-05
8.03885e-05
7.92044e-05
8.46277e-05
7.55274e-05
8.47768e-05
7.6961e-05
6.56303e-05
6.24431e-05
7.00277e-05
6.7071e-05
5.59549e-05
6.18426e-05
6.05354e-05
6.75696e-05
6.32903e-05
5.44448e-05
7.08501e-05
5.89935e-05
4.8145e-05
4.91659e-05
2.82364e-05
2.03133e-05
2.14021e-05
1.24317e-05
7.92507e-06
3.44409e-06
3.93736e-06
6.28929e-06
2.7867e-06
4.37106e-06
2.16908e-05
1.25484e-05
1.34472e-05
3.14193e-05
3.57076e-05
4.65429e-05
6.43583e-05
6.1863e-05
6.15302e-05
9.00904e-05
7.86197e-05
7.40293e-05
8.32882e-05
7.01169e-05
8.40015e-05
7.87613e-05
6.39766e-05
6.6198e-05
6.71752e-05
6.77445e-05
6.00835e-05
6.05234e-05
5.75323e-05
6.2892e-05
6.54903e-05
5.24075e-05
6.27574e-05
5.6144e-05
4.43671e-05
5.01337e-05
3.14169e-05
2.10782e-05
2.40442e-05
1.7695e-05
1.56471e-05
1.05915e-05
6.51399e-06
1.15229e-05
8.97818e-06
6.92948e-06
2.36065e-05
1.72738e-05
1.5199e-05
3.46882e-05
3.17277e-05
4.09587e-05
6.16967e-05
5.69674e-05
5.65044e-05
8.0163e-05
7.50478e-05
7.19922e-05
8.05315e-05
6.64091e-05
8.13615e-05
7.91953e-05
6.29923e-05
7.11631e-05
6.46766e-05
6.49939e-05
6.57752e-05
6.05195e-05
5.73334e-05
5.84251e-05
6.52554e-05
5.44507e-05
5.5585e-05
5.37679e-05
4.161e-05
4.86276e-05
3.47411e-05
2.18894e-05
2.65698e-05
2.04892e-05
2.09098e-05
1.74216e-05
9.58343e-06
1.66228e-05
1.4533e-05
1.05787e-05
2.49647e-05
1.95378e-05
1.78525e-05
3.67488e-05
2.97835e-05
3.68945e-05
5.75125e-05
5.09754e-05
5.43949e-05
7.0665e-05
6.83552e-05
7.29218e-05
7.75406e-05
6.52452e-05
7.82437e-05
7.63895e-05
6.3416e-05
7.54219e-05
6.47216e-05
6.18431e-05
6.91594e-05
6.20524e-05
5.9309e-05
5.5466e-05
6.11969e-05
5.78007e-05
5.04193e-05
5.13177e-05
4.17587e-05
4.42147e-05
3.76987e-05
2.4312e-05
2.74451e-05
2.24575e-05
2.4909e-05
2.13919e-05
1.34514e-05
2.1274e-05
1.8893e-05
1.48539e-05
2.53273e-05
2.0959e-05
2.14996e-05
3.55161e-05
2.85206e-05
3.50229e-05
5.09784e-05
4.54933e-05
5.24399e-05
6.26001e-05
6.25749e-05
7.20416e-05
7.41831e-05
6.73486e-05
7.43383e-05
7.28012e-05
6.78915e-05
7.56803e-05
6.72387e-05
6.32028e-05
6.74921e-05
6.36517e-05
6.29511e-05
5.37832e-05
5.5764e-05
5.992e-05
4.79036e-05
4.8848e-05
4.53992e-05
3.9564e-05
3.81988e-05
2.99466e-05
2.6429e-05
2.27865e-05
-0.000659679
-0.000650157
-0.000456638
1.9888e-06
0.000143896
-0.000357975
-0.000690395
-0.000458662
4.05538e-05
0.000199758
-3.26469e-05
-4.95575e-05
0.000258306
0.000725793
0.000682487
0.000248749
4.09569e-05
0.000243419
0.000362268
0.000596249
0.00050331
7.41472e-05
-0.000135834
6.11208e-05
8.55001e-05
-0.000211056
-0.000349056
1.70911e-05
0.000374946
0.000425403
0.000383834
0.000328199
0.000131528
8.83346e-05
0.000117737
-0.000364865
-0.000434343
-0.000141905
-0.000212022
-0.000615846
-0.000673343
-0.000661444
-0.000465995
-5.45226e-06
0.000136595
-0.000369516
-0.000699919
-0.000463497
3.40504e-05
0.000190182
-4.18475e-05
-5.55759e-05
0.000252664
0.000717289
0.000672933
0.000237786
2.90835e-05
0.000234874
0.000352235
0.000582711
0.000488971
6.05098e-05
-0.000144784
5.10187e-05
7.00735e-05
-0.000227231
-0.000360924
6.88357e-06
0.000360404
0.000406998
0.000368128
0.000316312
0.000121067
7.83889e-05
0.000106297
-0.000377811
-0.000444297
-0.000147313
-0.000221794
-0.000627694
-0.0006997
-0.000682236
-0.000482608
-1.84995e-05
0.000121758
-0.000387683
-0.000731655
-0.000487201
2.04168e-05
0.000175849
-6.20895e-05
-7.00402e-05
0.000245206
0.000710617
0.000653218
0.000213038
1.38188e-05
0.000221311
0.000338337
0.000562178
0.000462381
2.63964e-05
-0.000172537
3.511e-05
4.89114e-05
-0.000261696
-0.000391596
-1.36239e-05
0.000343808
0.00037779
0.000336047
0.00029292
0.000101493
6.05479e-05
8.84955e-05
-0.000402548
-0.000466435
-0.000160006
-0.000241899
-0.000653077
-0.000744538
-0.000719097
-0.000511814
-4.37934e-05
9.90898e-05
-0.000421369
-0.00077648
-0.000539349
-1.92749e-05
0.000135553
-9.70783e-05
-9.95067e-05
0.000217574
0.000681048
0.000609546
0.000151589
-4.93285e-05
0.000176545
0.000307387
0.000523185
0.000406089
-3.55217e-05
-0.000226472
-1.31672e-06
1.24521e-05
-0.000306554
-0.00044273
-4.8973e-05
0.00030921
0.000328471
0.00028338
0.000252244
6.93366e-05
2.39866e-05
5.2348e-05
-0.000450675
-0.000536604
-0.000198749
-0.000263776
-0.000683302
-0.00075383
-0.000749863
-0.000546429
-8.55639e-05
3.75884e-05
-0.000488507
-0.000869966
-0.000652313
-0.000122309
7.98216e-05
-0.000164933
-0.000170357
0.000146009
0.000593492
0.000490881
3.43948e-05
-0.000162346
6.46401e-05
0.000208627
0.000422117
0.000309282
-0.000137072
-0.000325991
-7.64963e-05
-3.79497e-05
-0.000368561
-0.000490259
-0.000108139
0.00024702
0.000243358
0.000200278
0.000187985
-3.63744e-06
-5.66318e-05
-4.97168e-05
-0.000551492
-0.000630775
-0.000277508
-0.00032646
-0.000706228
-0.000844539
-0.000831488
-0.000640291
-0.000185722
-6.54429e-05
-0.000602271
-0.000995561
-0.000808234
-0.000301565
-6.39028e-05
-0.000277434
-0.000295452
1.12337e-05
0.000445595
0.000304016
-0.000170265
-0.000362228
-0.000130715
2.26331e-05
0.000225792
0.000144798
-0.00027847
-0.000444175
-0.000169359
-0.00013093
-0.000452358
-0.000566799
-0.000151684
0.000163607
0.000129468
5.4773e-05
4.21044e-05
-0.000140715
-0.000225852
-0.000237553
-0.000752353
-0.000853718
-0.000413179
-0.000422307
-0.000787408
-0.00100066
-0.0010433
-0.000849097
-0.000396133
-0.00028441
-0.0007594
-0.00114886
-0.000980765
-0.000504339
-0.000216628
-0.000416575
-0.000440055
-0.00016173
0.000243433
0.0001114
-0.000350748
-0.000564188
-0.000350373
-0.000216873
-4.22005e-05
-8.31891e-05
-0.00048079
-0.00063112
-0.00034158
-0.000285968
-0.000614219
-0.000697201
-0.000289507
3.33111e-05
-1.02321e-05
-0.000110209
-0.000157066
-0.000332044
-0.000443237
-0.000476093
-0.00100329
-0.00111592
-0.00064249
-0.000621979
-0.000970603
-0.00121168
-0.00125038
-0.00110576
-0.000619961
-0.000428846
-0.000871758
-0.00126293
-0.00115126
-0.000692144
-0.000357609
-0.000524704
-0.00056599
-0.000348494
1.87617e-05
-8.21438e-05
-0.000504448
-0.000692384
-0.000522016
-0.000422277
-0.000269414
-0.000306631
-0.00069737
-0.000842416
-0.000551075
-0.000510724
-0.00079572
-0.000854323
-0.000431831
-9.49092e-05
-0.000145649
-0.000263973
-0.000340698
-0.000514778
-0.000630603
-0.000693019
-0.00118245
-0.00130254
-0.000829936
-0.000781282
-0.00113463
-0.00119495
-0.00129023
-0.00123944
-0.000781675
-0.000535105
-0.00089665
-0.00128822
-0.00125543
-0.000843261
-0.00044888
-0.000539159
-0.000603835
-0.000479303
-0.000176139
-0.000254062
-0.000640762
-0.000779918
-0.000612172
-0.000512015
-0.000426186
-0.000453507
-0.000826952
-0.000984763
-0.000737728
-0.000657673
-0.000897103
-0.000969248
-0.000555848
-0.000180592
-0.000192481
-0.000310497
-0.000416123
-0.000590063
-0.000718814
-0.000786892
-0.00122726
-0.00132986
-0.00085819
-0.000791138
-0.00111616
-0.00105692
-0.00118484
-0.00123349
-0.000850661
-0.000535024
-0.000829779
-0.00119981
-0.00124152
-0.000932562
-0.000500741
-0.000511414
-0.000580094
-0.000525102
-0.0003256
-0.000390535
-0.000752741
-0.000841756
-0.000697766
-0.000602547
-0.000492149
-0.000514848
-0.000879948
-0.00104589
-0.000855686
-0.000748834
-0.000881864
-0.000950194
-0.000563585
-0.000177014
-0.000155226
-0.000275643
-0.000373613
-0.000555287
-0.000688901
-0.000770194
-0.00113555
-0.00122082
-0.000787154
-0.000697874
-0.000964841
-0.000927539
-0.00101843
-0.00111328
-0.000846118
-0.000536765
-0.000760328
-0.00106764
-0.0011087
-0.000903902
-0.000552915
-0.000497481
-0.000573692
-0.000562326
-0.000419195
-0.000452837
-0.000765612
-0.000829891
-0.00070681
-0.000618443
-0.00051244
-0.000479015
-0.00079748
-0.000978773
-0.000844186
-0.000713719
-0.000744033
-0.000801415
-0.000461072
-0.00010529
-9.20484e-05
-0.000201134
-0.000259643
-0.00044297
-0.000593273
-0.00067914
-0.000983127
-0.00109064
-0.000740203
-0.00062943
-0.000863362
-0.000775127
-0.000827541
-0.00091135
-0.000728029
-0.000452744
-0.00066615
-0.000928236
-0.000952109
-0.000848787
-0.000596003
-0.00050612
-0.00053623
-0.000529263
-0.000415726
-0.000397578
-0.000630205
-0.000676091
-0.000570065
-0.000548451
-0.000455335
-0.000377528
-0.000634754
-0.000818249
-0.000706517
-0.000591644
-0.000607119
-0.000716393
-0.000478034
-0.000144741
-9.65418e-05
-0.000157235
-0.000162653
-0.000314509
-0.000445047
-0.000523862
-0.000767193
-0.000898176
-0.000669281
-0.000556293
-0.000734525
-0.000633204
-0.000671687
-0.000772581
-0.000657378
-0.000406737
-0.000619884
-0.000858702
-0.000854513
-0.000778132
-0.000602323
-0.000487205
-0.000459575
-0.00044381
-0.000345151
-0.000287431
-0.000442812
-0.000491029
-0.000420221
-0.000471375
-0.000442897
-0.000333001
-0.000504802
-0.00067417
-0.000581239
-0.000517064
-0.000573214
-0.000721047
-0.000552472
-0.000222091
-0.000130258
-0.000130107
-9.11104e-05
-0.000208229
-0.000320121
-0.000392847
-0.000577393
-0.000731923
-0.000608361
-0.000531282
-0.000642573
-0.000550937
-0.000571906
-0.000689841
-0.00061913
-0.000386979
-0.000567877
-0.000760915
-0.000702802
-0.000616514
-0.000465932
-0.00035184
-0.000312961
-0.00032012
-0.000262178
-0.000214994
-0.000328894
-0.000381384
-0.000347498
-0.000409561
-0.000390001
-0.000259138
-0.000379227
-0.000540014
-0.000473145
-0.000417814
-0.000467778
-0.000601103
-0.000491933
-0.000204367
-0.000114357
-7.80102e-05
-2.86846e-05
-0.00014
-0.000255042
-0.00032829
-0.000478459
-0.000646124
-0.000598908
-0.000554433
-0.000595295
-0.000424292
-0.000427628
-0.000534677
-0.000496245
-0.000297968
-0.000433786
-0.000591462
-0.000512414
-0.00041489
-0.0002987
-0.000201969
-0.000157237
-0.000184883
-0.000185292
-0.000148242
-0.000242085
-0.000296231
-0.000252281
-0.000288969
-0.000269481
-0.000151067
-0.000231693
-0.000376875
-0.000328429
-0.000274824
-0.000319078
-0.000444994
-0.00039663
-0.000164705
-6.18239e-05
-2.17922e-06
7.26915e-05
-1.70432e-05
-0.000144585
-0.00023744
-0.000376333
-0.000519121
-0.000516027
-0.000485312
-0.000485497
-0.00034017
-0.000332109
-0.000411737
-0.000403507
-0.000250624
-0.000340033
-0.000474386
-0.000390001
-0.00028533
-0.000181507
-9.16106e-05
-3.87979e-05
-6.29396e-05
-8.05818e-05
-4.57066e-05
-0.00013023
-0.000177318
-0.000143094
-0.000170541
-0.000157972
-6.18279e-05
-0.00011026
-0.000240915
-0.000225031
-0.000179776
-0.000198641
-0.000299208
-0.000287343
-0.000104643
3.03365e-06
6.47756e-05
0.000153574
8.29825e-05
-4.00224e-05
-0.00014546
-0.000264799
-0.000375276
-0.000408384
-0.00040768
-0.000398922
-0.000259727
-0.000241441
-0.000305362
-0.000317207
-0.000196254
-0.000251414
-0.000366016
-0.000293719
-0.00019669
-0.000107641
-3.64497e-05
2.71638e-05
2.46304e-05
9.88658e-06
3.81812e-05
-3.0835e-05
-7.34474e-05
-5.60822e-05
-7.84981e-05
-7.37104e-05
-2.19709e-06
-3.41717e-05
-0.000147242
-0.000151069
-0.000113693
-0.000110394
-0.000167279
-0.000169938
-4.64328e-05
4.39716e-05
0.000106018
0.000194127
0.000141569
3.28437e-05
-7.16395e-05
-0.000173165
-0.000251655
-0.000296363
-0.000314704
-0.000310583
-0.000203113
-0.000185812
-0.000231712
-0.000249198
-0.000157879
-0.000189977
-0.000285767
-0.000229534
-0.000148321
-7.45331e-05
-1.61738e-05
5.28216e-05
6.82205e-05
5.6693e-05
8.28238e-05
2.79638e-05
-1.22367e-05
-5.23957e-06
-2.62176e-05
-2.2835e-05
3.02039e-05
5.96491e-06
-8.71639e-05
-9.88024e-05
-7.73849e-05
-6.33524e-05
-9.01006e-05
-0.000103003
-2.04163e-05
4.60594e-05
0.000112552
0.000204604
0.000165972
7.57659e-05
-2.3564e-05
-0.000112997
-0.000166288
-0.000209342
-0.000243643
-0.000247497
-0.000160119
-0.000146303
-0.000172516
-0.000190412
-0.00012304
-0.000138531
-0.00021925
-0.000174151
-0.000107798
-4.23472e-05
4.51915e-06
6.93656e-05
9.33744e-05
8.43909e-05
0.000113287
6.88653e-05
3.02486e-05
3.30212e-05
1.18893e-05
1.37488e-05
5.33028e-05
3.1615e-05
-3.636e-05
-4.68105e-05
-4.20715e-05
-3.23207e-05
-4.12491e-05
-5.46322e-05
-3.25237e-08
4.52023e-05
0.000111592
0.000205374
0.000175359
0.000103713
1.78295e-05
-6.82654e-05
-0.000105004
-0.000140697
-0.000182646
-0.000192283
-0.000128175
-0.000121097
-0.000129369
-0.000145612
-9.94381e-05
-0.000101499
-0.000169684
-0.000133416
-8.00422e-05
-2.17959e-05
1.64787e-05
7.34976e-05
0.000102967
9.66507e-05
0.00013006
9.62389e-05
5.91707e-05
5.9412e-05
3.68762e-05
3.67911e-05
6.40223e-05
4.5062e-05
-4.16326e-06
-1.07099e-05
-1.68543e-05
-1.59091e-05
-1.17113e-05
-2.20301e-05
1.45774e-05
4.34286e-05
0.000100406
0.000191529
0.000169214
0.000114583
4.56421e-05
-3.74134e-05
-6.45016e-05
-9.18242e-05
-0.000135846
-0.000150808
-9.81088e-05
-9.89961e-05
-9.68761e-05
-0.000107984
-7.79738e-05
-7.06795e-05
-0.000127124
-0.000100236
-5.88249e-05
-8.74604e-06
2.41834e-05
7.12815e-05
0.000106086
0.000100876
0.000136036
0.000112987
7.83636e-05
7.78683e-05
5.59888e-05
5.50185e-05
7.08903e-05
5.34992e-05
1.64608e-05
1.67417e-05
7.55269e-06
-6.45409e-07
9.69049e-06
3.36763e-06
2.76107e-05
4.58636e-05
8.83292e-05
0.000174138
0.000158461
0.000114616
6.72446e-05
-1.17732e-05
-3.65258e-05
-5.36469e-05
-9.70299e-05
-0.000115532
-7.44369e-05
-8.00137e-05
-7.46716e-05
-8.07495e-05
-6.42713e-05
-4.85658e-05
-9.52081e-05
-7.69029e-05
-4.43578e-05
-2.8307e-06
2.93025e-05
6.49458e-05
0.000103875
9.85214e-05
0.00013324
0.000121176
8.87719e-05
8.84445e-05
6.80461e-05
6.77756e-05
7.591e-05
5.81098e-05
2.91614e-05
3.32866e-05
2.67537e-05
9.91652e-06
2.22092e-05
2.10165e-05
3.5424e-05
4.78855e-05
7.44799e-05
0.000151359
0.000144432
0.000106172
7.71237e-05
7.16691e-06
-1.85792e-05
-2.82508e-05
-6.8887e-05
-8.80087e-05
-5.38535e-05
-6.0976e-05
-5.71576e-05
-5.9667e-05
-5.21011e-05
-3.11323e-05
-6.81241e-05
-5.75054e-05
-2.95171e-05
1.70958e-06
3.43979e-05
5.84475e-05
9.72972e-05
9.36093e-05
0.000124065
0.000122939
9.30268e-05
9.35638e-05
7.50585e-05
7.63408e-05
8.02947e-05
6.31142e-05
3.86453e-05
4.21228e-05
4.15057e-05
2.05672e-05
3.12853e-05
3.46785e-05
4.09656e-05
5.0471e-05
6.41712e-05
0.000128737
0.000132051
9.62817e-05
7.95405e-05
2.26767e-05
-5.64602e-06
-1.0124e-05
-4.50241e-05
-6.39444e-05
-3.86291e-05
-4.50495e-05
-4.36502e-05
-4.41007e-05
-4.34766e-05
-1.85184e-05
-4.51759e-05
-4.23811e-05
-1.75801e-05
3.71133e-06
3.70225e-05
5.28832e-05
8.72252e-05
8.78289e-05
0.00011186
0.000119508
9.24059e-05
9.45666e-05
7.89665e-05
8.05459e-05
8.32093e-05
6.80326e-05
4.7541e-05
4.63327e-05
5.16682e-05
2.99934e-05
3.6291e-05
4.45109e-05
4.51157e-05
5.26011e-05
5.74919e-05
0.000107097
0.000119502
8.70913e-05
7.61298e-05
3.4083e-05
4.32588e-06
1.87417e-06
-2.63616e-05
-4.54288e-05
-2.6156e-05
-3.08143e-05
-3.07913e-05
-3.06312e-05
-3.60822e-05
-9.72868e-06
-2.46938e-05
-2.96278e-05
-7.51831e-06
6.73847e-06
3.82851e-05
5.00152e-05
7.68756e-05
8.21408e-05
9.95993e-05
0.000113936
8.98169e-05
9.29514e-05
8.18682e-05
8.14565e-05
8.35101e-05
7.12088e-05
5.55419e-05
4.84044e-05
5.75756e-05
3.80576e-05
3.90282e-05
5.16035e-05
4.97156e-05
5.57965e-05
5.49693e-05
8.85026e-05
0.000107061
7.96491e-05
7.04441e-05
4.15833e-05
1.21029e-05
9.426e-06
-1.06701e-05
-2.93895e-05
-1.69426e-05
-1.93732e-05
-1.95019e-05
-1.90964e-05
-2.89092e-05
-5.28493e-06
-7.19709e-06
-1.83889e-05
2.21564e-07
1.07571e-05
3.7405e-05
4.86166e-05
6.79067e-05
7.55851e-05
8.80229e-05
0.000107486
8.5405e-05
8.8897e-05
8.41339e-05
8.06811e-05
8.34013e-05
7.20918e-05
6.05592e-05
4.98166e-05
6.10672e-05
4.55437e-05
4.06906e-05
5.53791e-05
5.30146e-05
5.92029e-05
5.45823e-05
7.33193e-05
9.50368e-05
7.27819e-05
6.36378e-05
4.62351e-05
1.91968e-05
1.43869e-05
1.97574e-06
-1.50215e-05
-9.1873e-06
-1.05059e-05
-9.36734e-06
-8.97018e-06
-1.90536e-05
-3.2414e-06
6.0001e-06
-7.74572e-06
5.57817e-06
1.63617e-05
3.62894e-05
4.82535e-05
6.19423e-05
6.89354e-05
7.70374e-05
0.000101962
8.18338e-05
8.27798e-05
8.49212e-05
7.71835e-05
8.30191e-05
7.22846e-05
6.2382e-05
5.234e-05
6.28231e-05
5.2424e-05
4.24497e-05
5.67173e-05
5.41384e-05
6.21487e-05
5.74095e-05
6.24809e-05
8.42284e-05
6.6887e-05
5.72962e-05
4.88606e-05
2.50599e-05