/*--------------------------------*- C++ -*----------------------------------*\
  =========                 |
  \\      /  F ield         | OpenFOAM: The Open Source CFD Toolbox
   \\    /   O peration     | Website:  https://openfoam.org
    \\  /    A nd           | Version:  10
     \\/     M anipulation  |
\*---------------------------------------------------------------------------*/
FoamFile
{
    format      ascii;
    class       volVectorField;
    location    "8";
    object      UMean;
}
// * * * * * * * * * * * * * * * * * * * * * * * * * * * * * * * * * * * * * //

dimensions      [0 1 -1 0 0 0 0];

internalField   nonuniform List<vector> 
25600
(
(0.0086208 9.3874e-06 -0.000329531)
(0.00917302 1.19478e-06 0.000912794)
(0.00912433 -4.795e-06 0.00113742)
(0.00939234 -1.04882e-05 -7.29796e-05)
(0.00927422 -6.5239e-06 -0.000666646)
(0.00864787 1.0038e-05 -0.000423054)
(0.00921696 3.67664e-06 0.000818734)
(0.00898345 -2.26626e-06 0.00111064)
(0.0096133 -1.15707e-05 -7.70548e-05)
(0.00893015 -4.8305e-06 -0.00108328)
(0.00892581 8.34454e-06 -0.000521429)
(0.0090614 1.40421e-06 0.000930967)
(0.00926431 -7.57478e-06 0.00104846)
(0.00940674 -1.23485e-05 3.19208e-05)
(0.00911805 -6.42036e-06 -0.000807906)
(0.00860685 8.80782e-06 -0.00047453)
(0.00918062 2.36215e-06 0.000946172)
(0.00908697 -2.94135e-06 0.00113387)
(0.00960301 -1.32804e-05 -4.77827e-05)
(0.00913244 -6.57645e-06 -0.000742569)
(0.0086717 1.01204e-05 -0.000441782)
(0.00886135 4.45994e-06 0.00107073)
(0.00910989 -5.52433e-06 0.00113139)
(0.00929555 -1.47626e-05 9.94362e-05)
(0.0091844 -7.09395e-06 -0.00084516)
(0.00848528 1.16517e-05 -0.000358287)
(0.00906973 2.77919e-06 0.000789668)
(0.00891278 -3.8185e-06 0.00112546)
(0.00919892 -8.65289e-06 -0.000144484)
(0.00897714 -4.46168e-06 -0.000935854)
(0.00844914 1.31363e-05 -0.000509822)
(0.00908549 4.00736e-06 0.000877219)
(0.00896599 -2.55094e-06 0.000951455)
(0.00937457 -1.1885e-05 8.54525e-05)
(0.00898843 -4.64423e-06 -0.00101261)
(0.00883456 7.64416e-06 -0.000388313)
(0.00919688 -6.5014e-07 0.00078201)
(0.00902796 -3.06326e-06 0.00112148)
(0.00940781 -1.0439e-05 -0.000138004)
(0.00892989 -3.68813e-06 -0.000747448)
(0.0262676 1.96734e-05 -0.00149465)
(0.028116 -1.77916e-05 0.0022673)
(0.027966 -4.4263e-05 0.00339154)
(0.0287238 -6.56273e-05 -2.00143e-05)
(0.0282406 -3.53182e-05 -0.00216213)
(0.0263158 5.65988e-05 -0.00170346)
(0.0282384 8.26471e-06 0.00207654)
(0.0275201 -2.75504e-05 0.003339)
(0.0293925 -7.73682e-05 -7.27246e-06)
(0.0271871 -1.97133e-05 -0.00339896)
(0.0272127 4.1848e-07 -0.0019468)
(0.0277758 -8.30924e-06 0.00239683)
(0.0283743 -6.72387e-05 0.00309803)
(0.0287342 -5.61807e-05 0.000277509)
(0.0277529 -3.95544e-05 -0.00262423)
(0.0262149 3.01321e-05 -0.00189724)
(0.0280986 -2.15181e-05 0.00237199)
(0.0278276 -2.33386e-05 0.00334063)
(0.0293655 -7.9343e-05 4.44551e-06)
(0.0277879 -1.94914e-05 -0.00243138)
(0.0263993 4.51394e-05 -0.00177901)
(0.0271709 1.44039e-05 0.00275071)
(0.027934 -4.40983e-05 0.00335942)
(0.0284378 -8.5281e-05 0.000492236)
(0.0279145 -1.83586e-05 -0.0027301)
(0.0258161 7.42301e-05 -0.00158371)
(0.0277585 1.94754e-06 0.00193734)
(0.0273294 -1.88162e-05 0.00337554)
(0.0281334 -2.70886e-05 -0.00026858)
(0.0272999 -1.24148e-05 -0.00300657)
(0.0257088 6.23552e-05 -0.00203974)
(0.0278483 -5.4241e-06 0.0022129)
(0.0275055 -2.40581e-05 0.00280435)
(0.0286779 -7.60055e-05 0.000447112)
(0.027361 -3.11453e-05 -0.00318829)
(0.0269176 3.34938e-06 -0.00156632)
(0.0281604 -8.59438e-06 0.00192447)
(0.0276435 -3.3133e-05 0.00339132)
(0.0287547 -5.21359e-05 -0.000263734)
(0.0271991 -1.30204e-05 -0.00250429)
(0.044187 1.97688e-05 -0.00316645)
(0.0475965 -8.22737e-05 0.00314713)
(0.0473095 -8.67367e-05 0.00557785)
(0.0484443 -8.62372e-05 0.000253279)
(0.047509 -3.15062e-05 -0.00383263)
(0.0442411 0.000137432 -0.00343274)
(0.0477694 -7.11061e-06 0.00290419)
(0.046514 -4.452e-05 0.00553061)
(0.049606 -0.000125443 0.000240042)
(0.0457242 1.04826e-05 -0.00589272)
(0.0458533 -4.56134e-05 -0.00374447)
(0.0469931 -3.96992e-05 0.00336792)
(0.0479843 -0.000146451 0.00502608)
(0.0484506 -5.8654e-05 0.000684395)
(0.0466765 -5.00851e-05 -0.00467031)
(0.0441107 5.70722e-05 -0.00377221)
(0.0475107 -9.90171e-05 0.00329059)
(0.047048 -3.36584e-05 0.00543988)
(0.0495452 -0.000131965 0.000186201)
(0.0467372 2.3553e-05 -0.00435965)
(0.0444333 9.64551e-05 -0.00355021)
(0.0459469 9.3917e-06 0.00385263)
(0.0472956 -8.57291e-05 0.0054916)
(0.0479322 -0.000132459 0.00105181)
(0.0469223 4.05972e-05 -0.00484632)
(0.0433495 0.000179633 -0.00333862)
(0.046971 -2.72469e-05 0.00263922)
(0.046109 -1.27465e-05 0.00559246)
(0.0474737 2.17339e-05 -0.000326721)
(0.0458818 3.51135e-05 -0.00530568)
(0.043226 0.000127208 -0.00410267)
(0.0471165 -5.09372e-05 0.00307113)
(0.046476 -3.70112e-05 0.00454119)
(0.0483727 -0.000129463 0.000971303)
(0.0459705 -1.84589e-05 -0.00551194)
(0.0453263 -2.53069e-05 -0.00312689)
(0.0475733 -3.51444e-05 0.00254464)
(0.0466729 -6.11146e-05 0.00563587)
(0.0485442 -5.96449e-05 -0.000313471)
(0.0457524 2.80601e-05 -0.00454015)
(0.0614603 -1.16472e-05 -0.0051624)
(0.0664811 -0.000205804 0.00315188)
(0.0660297 -8.90865e-05 0.00739349)
(0.0674779 -1.75121e-06 0.00079592)
(0.0660243 6.02002e-05 -0.00547163)
(0.0613866 0.000251245 -0.00554074)
(0.0668854 -6.68897e-05 0.00313259)
(0.0648831 -2.34553e-05 0.00738121)
(0.0691766 -8.68268e-05 0.000744216)
(0.0634674 0.00013643 -0.00815554)
(0.0637434 -0.000155792 -0.00586186)
(0.0656139 -9.34137e-05 0.00341271)
(0.0669177 -0.000205292 0.00649759)
(0.0674163 9.21256e-05 0.00135585)
(0.0647947 1.71099e-05 -0.00666211)
(0.0612854 6.98332e-05 -0.00598808)
(0.0662316 -0.000224001 0.00331568)
(0.0655591 -7.45668e-06 0.00710104)
(0.0689142 -0.000109398 0.000680265)
(0.0648054 0.00017101 -0.00613212)
(0.0614881 0.000138155 -0.00579142)
(0.0642602 -1.00967e-05 0.0041355)
(0.065901 -9.55194e-05 0.00724492)
(0.0667881 -3.71461e-05 0.00163074)
(0.0649736 0.000238295 -0.0067618)
(0.0601668 0.000293041 -0.00545462)
(0.0653529 -0.000102426 0.00231611)
(0.0645881 4.02626e-05 0.00742602)
(0.066224 0.000228982 -0.000128498)
(0.0636463 0.00021922 -0.00744245)
(0.0597811 0.000173005 -0.00663614)
(0.0657527 -0.000182521 0.00307679)
(0.0650263 -1.39351e-05 0.00585591)
(0.0674338 -9.40397e-05 0.00162507)
(0.0639658 8.7088e-05 -0.00771566)
(0.0629158 -0.00011022 -0.00512376)
(0.0664614 -8.48945e-05 0.00250358)
(0.0652306 -4.72926e-05 0.0075161)
(0.0675644 6.47488e-05 7.89125e-05)
(0.0635998 0.000176931 -0.00658803)
(0.0773573 -8.75005e-05 -0.00716323)
(0.0841024 -0.000409305 0.00252026)
(0.0832968 -7.96833e-06 0.00853975)
(0.0851735 0.000250762 0.001276)
(0.082996 0.000326559 -0.00690089)
(0.0771765 0.00036576 -0.00757582)
(0.0846832 -0.000127751 0.00262944)
(0.0819849 9.74279e-05 0.00840445)
(0.0871108 0.000152156 0.00165091)
(0.0798861 0.000461102 -0.00967743)
(0.0797036 -0.000346865 -0.00813057)
(0.0826049 -0.000180478 0.0024028)
(0.0842618 -0.000190035 0.00714122)
(0.0848198 0.000495639 0.00216879)
(0.081498 0.000244837 -0.00836037)
(0.0768936 7.88935e-05 -0.00819625)
(0.0839222 -0.000425173 0.00300644)
(0.0826765 0.000110359 0.00800539)
(0.0864008 0.000117182 0.00148361)
(0.0814701 0.000544431 -0.00765942)
(0.0771108 0.000184906 -0.00784316)
(0.0812787 -4.46687e-05 0.00335614)
(0.083212 -1.41044e-05 0.00815474)
(0.0838723 0.000284788 0.00242865)
(0.0816304 0.000715065 -0.00818258)
(0.0751467 0.000440681 -0.00793019)
(0.0824336 -0.000216733 0.00153444)
(0.0814268 0.000182827 0.00853429)
(0.083409 0.000646102 0.000512857)
(0.0800851 0.000605001 -0.00917773)
(0.0754772 0.000247554 -0.00872413)
(0.0828113 -0.000371458 0.00218478)
(0.082336 8.1715e-05 0.00636999)
(0.0847028 0.000123854 0.00282164)
(0.080676 0.0003472 -0.00908762)
(0.0786642 -0.000191318 -0.00728775)
(0.0836147 -0.000173717 0.00152455)
(0.0823384 5.53995e-05 0.00863631)
(0.0851715 0.000370691 0.000540564)
(0.0802135 0.000509761 -0.00814077)
(0.0908102 -0.000134964 -0.00855481)
(0.098981 -0.000663881 0.0016931)
(0.0986637 0.000204315 0.00860744)
(0.100524 0.000666716 0.00198441)
(0.097338 0.000871434 -0.00732056)
(0.0913453 0.000456818 -0.00833707)
(0.100068 -0.000268285 0.00136288)
(0.0971674 0.000271006 0.00837764)
(0.103207 0.000635815 0.00184593)
(0.0947462 0.00108884 -0.00976295)
(0.0936832 -0.000608647 -0.00894133)
(0.0974439 -0.000267784 0.00123686)
(0.0990769 -5.57789e-05 0.0069644)
(0.100396 0.00113911 0.00235827)
(0.0956349 0.000690356 -0.00891505)
(0.0911483 0.000131625 -0.0086292)
(0.0978848 -0.000655405 0.00115844)
(0.0971379 0.000342647 0.00750821)
(0.100999 0.000622689 0.00225141)
(0.0958625 0.00113152 -0.00816956)
(0.09104 0.000280947 -0.00843465)
(0.0966562 -0.000145188 0.00208279)
(0.0978131 0.000158678 0.00814417)
(0.0989883 0.000938458 0.00205881)
(0.0962738 0.00151186 -0.00856051)
(0.0882932 0.000536474 -0.00945667)
(0.0971007 -0.000353196 0.000811243)
(0.0962551 0.000480275 0.00873194)
(0.0984076 0.00123277 0.000858687)
(0.0951925 0.00115902 -0.00956141)
(0.0884096 0.000315134 -0.0104996)
(0.0976889 -0.000736902 0.00157326)
(0.0974389 0.000273938 0.0063604)
(0.100323 0.000516586 0.00308032)
(0.0958756 0.00080683 -0.00903793)
(0.0922492 -0.000315645 -0.00848904)
(0.0985949 -0.000120375 0.000818064)
(0.0972084 0.000268372 0.0088456)
(0.100595 0.000841482 0.000584485)
(0.0955184 0.00101036 -0.00852232)
(0.104098 -9.15394e-05 -0.0070879)
(0.109586 -0.000893998 -0.000117057)
(0.109926 0.00041103 0.00728864)
(0.112788 0.00127427 0.000911704)
(0.111302 0.00163208 -0.00752961)
(0.103679 0.000646264 -0.00805039)
(0.112136 -0.000554604 0.00102588)
(0.108858 0.00045091 0.00709617)
(0.115749 0.001104 0.00199821)
(0.108826 0.00194441 -0.00779018)
(0.104421 -0.000671088 -0.00827564)
(0.108949 -0.000396494 0.00129565)
(0.111162 0.00010788 0.00613189)
(0.113905 0.00189703 0.00256211)
(0.10873 0.00146353 -0.00741744)
(0.103682 0.000226834 -0.00684107)
(0.109002 -0.000700592 0.000220061)
(0.10816 0.000616497 0.00665752)
(0.113131 0.00129018 0.00105615)
(0.109889 0.00185663 -0.00804521)
(0.102337 0.000419052 -0.00797085)
(0.109183 -0.000388355 0.00134088)
(0.109313 0.000321868 0.0071077)
(0.111448 0.00175944 0.00180107)
(0.109948 0.00259526 -0.0083283)
(0.100451 0.000614049 -0.00859442)
(0.108082 -0.000435149 0.000393912)
(0.107446 0.000777236 0.00773706)
(0.111451 0.00183294 0.000407217)
(0.108309 0.0019523 -0.00837698)
(0.100552 0.000392896 -0.00909752)
(0.107319 -0.00117747 0.000275788)
(0.108339 0.000416174 0.00552098)
(0.113214 0.000909158 0.00190956)
(0.109607 0.0016714 -0.00747913)
(0.102421 -0.000420432 -0.00811098)
(0.110752 -0.000100968 0.00109871)
(0.10936 0.000476679 0.00786745)
(0.113379 0.00147524 0.000690906)
(0.109474 0.0016334 -0.00830434)
(0.115487 0.000253667 -0.00523586)
(0.117593 -0.000837959 0.000527193)
(0.1178 0.000429442 0.00616981)
(0.122113 0.00175395 -0.00012493)
(0.123187 0.00240875 -0.00635855)
(0.115008 0.00111462 -0.00633907)
(0.119953 -0.000555478 0.00161174)
(0.11723 0.000680674 0.00571587)
(0.124375 0.00127796 0.00145991)
(0.121642 0.00273504 -0.00601401)
(0.115362 -0.000140284 -0.0063459)
(0.118196 -0.000329908 0.00228319)
(0.118786 0.000281685 0.00522009)
(0.123567 0.00232255 0.00267922)
(0.122102 0.00229107 -0.00633806)
(0.11534 0.000648049 -0.00503956)
(0.117724 -0.000409018 0.000837362)
(0.116567 0.000782912 0.006299)
(0.122706 0.00174414 -0.000435647)
(0.122279 0.00275606 -0.00689064)
(0.112922 0.000753868 -0.00634501)
(0.117759 -0.000549674 0.00136587)
(0.116609 0.00043167 0.00605633)
(0.121031 0.00226583 0.000438814)
(0.121657 0.00367578 -0.00693606)
(0.111903 0.00114707 -0.00628033)
(0.116153 -0.000202302 0.00142188)
(0.114866 0.00092664 0.00617837)
(0.120622 0.00209898 3.50851e-05)
(0.119808 0.00282592 -0.00661193)
(0.111753 0.000888621 -0.00703042)
(0.11535 -0.00114377 0.00136988)
(0.116233 0.000463056 0.00495674)
(0.122217 0.00110272 0.00108965)
(0.120931 0.00266251 -0.00573587)
(0.114043 -1.45644e-05 -0.00541363)
(0.118868 -0.000173693 0.00177868)
(0.117813 0.000486183 0.00625158)
(0.123312 0.00189183 0.000560396)
(0.12169 0.00232101 -0.00711722)
(0.125903 0.00098786 -0.00377466)
(0.124737 -0.000345238 0.001325)
(0.124252 0.00044123 0.00600031)
(0.127257 0.00171592 -4.70789e-05)
(0.132329 0.00281541 -0.00450803)
(0.125177 0.00178363 -0.00476587)
(0.126503 -0.000210948 0.0028431)
(0.124741 0.000833346 0.00605369)
(0.129123 0.00105845 0.000456547)
(0.131732 0.00318013 -0.00420123)
(0.125142 0.000725382 -0.00504568)
(0.126251 5.70646e-05 0.00329676)
(0.125607 0.000495723 0.00580134)
(0.129752 0.00223602 0.00189772)
(0.132479 0.00291826 -0.00398079)
(0.124587 0.00133672 -0.00418109)
(0.125514 0.000203986 0.00264304)
(0.123913 0.00092029 0.00665823)
(0.127785 0.00173867 0.000299766)
(0.131598 0.0033491 -0.00504551)
(0.123583 0.00135102 -0.00413915)
(0.124721 -0.000186187 0.00192608)
(0.12278 0.000572253 0.00599593)
(0.126404 0.00221103 3.21323e-05)
(0.130898 0.00428783 -0.00512288)
(0.122731 0.00193103 -0.00437991)
(0.123072 0.000379322 0.00240482)
(0.121972 0.00100649 0.00597842)
(0.126434 0.00188168 -0.000427724)
(0.129684 0.00334251 -0.00551471)
(0.122943 0.00165767 -0.00538273)
(0.123068 -0.000715743 0.00214929)
(0.123137 0.000584912 0.00538152)
(0.127162 0.000947519 0.000260915)
(0.130698 0.00323305 -0.00459591)
(0.12432 0.000653377 -0.00446266)
(0.125526 0.000241866 0.00282616)
(0.124663 0.0005096 0.00567776)
(0.128929 0.00174573 0.0011205)
(0.131287 0.00277349 -0.0053209)
(0.133823 0.00158416 -0.00275097)
(0.131598 0.000314802 0.00160441)
(0.130624 0.000554783 0.00590033)
(0.130556 0.00141848 0.0010309)
(0.137318 0.00252549 -0.00244924)
(0.133226 0.00228518 -0.00325524)
(0.132329 0.000240421 0.00270001)
(0.131219 0.000980833 0.006059)
(0.131056 0.000709972 0.00140999)
(0.137141 0.00297643 -0.00216268)
(0.133213 0.00144747 -0.00327477)
(0.132451 0.000518583 0.00232681)
(0.131541 0.000749873 0.0058085)
(0.132253 0.00175325 0.00214633)
(0.138408 0.00306155 -0.00145924)
(0.132795 0.00192585 -0.00264238)
(0.132172 0.000797921 0.00293994)
(0.130417 0.00116593 0.00661592)
(0.130769 0.0013932 0.00180975)
(0.13719 0.00325104 -0.00299111)
(0.132572 0.00193573 -0.00235403)
(0.130962 0.000486625 0.00170924)
(0.129211 0.000828782 0.00570736)
(0.129102 0.00177651 0.00114546)
(0.136474 0.00414037 -0.00310666)
(0.131734 0.00259447 -0.00275893)
(0.129738 0.00100305 0.00222112)
(0.128507 0.00102961 0.00592038)
(0.129521 0.00136621 0.000386003)
(0.135256 0.00311136 -0.00354032)
(0.13163 0.00220791 -0.00362593)
(0.129969 -2.5408e-05 0.0016767)
(0.129556 0.000820077 0.00531257)
(0.12965 0.000618846 0.000929459)
(0.136128 0.00323192 -0.00271984)
(0.132373 0.00130827 -0.00352043)
(0.131506 0.000829596 0.00264953)
(0.130769 0.00066636 0.00549302)
(0.131754 0.00134889 0.00175473)
(0.136759 0.00262825 -0.003111)
(0.138287 0.00161879 -0.001542)
(0.136637 0.000828934 0.00102154)
(0.135956 0.00083133 0.00474395)
(0.133802 0.00100412 0.002097)
(0.138121 0.0017282 -0.000507078)
(0.138043 0.00223941 -0.00133857)
(0.136654 0.000624275 0.00157454)
(0.136408 0.00120144 0.00496753)
(0.133422 0.000470219 0.00231243)
(0.138154 0.00212748 -0.000507778)
(0.137852 0.00162766 -0.00145224)
(0.136807 0.000849106 0.000930108)
(0.136681 0.00102432 0.00471756)
(0.134497 0.00125851 0.00216982)
(0.1398 0.00243119 0.000313534)
(0.138202 0.00209729 -0.00113903)
(0.136965 0.0012228 0.00221743)
(0.136206 0.00145852 0.00531442)
(0.133466 0.000937176 0.00308305)
(0.138866 0.00249754 -0.000647716)
(0.137649 0.00197542 -0.0010912)
(0.136124 0.00101449 0.00127553)
(0.135208 0.00113974 0.00488768)
(0.132285 0.00139382 0.00194964)
(0.138188 0.00320293 -0.000989793)
(0.136972 0.00271617 -0.00145061)
(0.1355 0.00137821 0.00178552)
(0.134283 0.00119792 0.00506901)
(0.13216 0.0007977 0.00193406)
(0.136889 0.00222694 -0.00144363)
(0.136819 0.00219759 -0.00178052)
(0.135361 0.000462634 0.00101116)
(0.13527 0.00110961 0.00455861)
(0.132679 0.000393261 0.00160071)
(0.137625 0.0026003 -0.00079808)
(0.137264 0.00152115 -0.00205285)
(0.136183 0.00131728 0.00155907)
(0.135793 0.000925724 0.00446632)
(0.13406 0.00102838 0.00234047)
(0.138225 0.0019418 -0.00111781)
(0.13912 0.00120814 -0.000542407)
(0.138696 0.000780135 0.000539801)
(0.139108 0.0008829 0.00309637)
(0.137044 0.000810273 0.00218639)
(0.1379 0.00097994 0.00065724)
(0.139186 0.00163173 -0.000101399)
(0.138433 0.000595607 0.000654627)
(0.139305 0.0012001 0.00335064)
(0.136608 0.000414266 0.00214071)
(0.137874 0.00128842 0.000336561)
(0.139069 0.00126234 -0.000244237)
(0.138228 0.000667223 -0.000164372)
(0.139466 0.00100319 0.00294167)
(0.13708 0.00100846 0.00152323)
(0.139274 0.0016534 0.000926758)
(0.139925 0.00169136 -0.000339808)
(0.138938 0.00115496 0.00120924)
(0.139853 0.00153077 0.00343512)
(0.136706 0.000770482 0.00297114)
(0.138836 0.00164077 0.000665839)
(0.139486 0.00152831 -8.40367e-05)
(0.138491 0.000987918 0.000690822)
(0.139232 0.00122696 0.00344659)
(0.135892 0.00116056 0.00213563)
(0.13826 0.00215691 0.000459604)
(0.138968 0.00221192 -0.000329931)
(0.138328 0.00127302 0.00105939)
(0.13847 0.00132375 0.00351853)
(0.135658 0.000534308 0.00250518)
(0.137055 0.00130661 -5.799e-06)
(0.138744 0.00160758 -0.00021525)
(0.137819 0.000435561 0.000467493)
(0.138841 0.00121642 0.00323042)
(0.135934 0.000337697 0.00181821)
(0.137848 0.00184322 0.000379478)
(0.138835 0.00115875 -0.000850208)
(0.138296 0.0012972 0.000513985)
(0.139088 0.00106039 0.0029065)
(0.136759 0.000880366 0.0021111)
(0.138133 0.001255 0.000325323)
(0.138607 0.000782246 -2.64668e-05)
(0.138499 0.000465447 0.000307349)
(0.139078 0.00063294 0.00161705)
(0.138703 0.000653676 0.00155969)
(0.137877 0.00053743 0.000671742)
(0.138714 0.00105396 0.000314386)
(0.13823 0.000297293 0.000266021)
(0.139145 0.000886428 0.00177454)
(0.138436 0.000357912 0.00148561)
(0.137709 0.000738303 0.000338078)
(0.138661 0.000821803 0.000260285)
(0.137897 0.00032591 -0.000511164)
(0.13903 0.000703935 0.00139586)
(0.138465 0.00073129 0.000618079)
(0.138474 0.00104753 0.000559788)
(0.139368 0.00117131 -0.000161732)
(0.138581 0.000756859 0.000476665)
(0.139931 0.0012095 0.00173717)
(0.138805 0.000612864 0.00198034)
(0.138526 0.00104381 0.000799145)
(0.139231 0.001014 0.000374292)
(0.13843 0.000643573 0.00025782)
(0.139523 0.000918598 0.00195921)
(0.138221 0.000977923 0.00151342)
(0.13819 0.0013882 0.000828567)
(0.138862 0.0015712 0.000189253)
(0.138552 0.000827306 0.000617442)
(0.13923 0.00107685 0.0019177)
(0.138191 0.000450385 0.00212523)
(0.13739 0.000745359 0.000467419)
(0.138699 0.000981916 0.000493202)
(0.137964 0.000127387 0.000236385)
(0.139134 0.00095863 0.00195605)
(0.138023 0.000316498 0.00135827)
(0.137899 0.00131958 0.00060508)
(0.138643 0.000754862 -0.000146784)
(0.138238 0.000927196 -5.21397e-06)
(0.139313 0.000857892 0.00151099)
(0.138483 0.000765319 0.00128865)
(0.138132 0.00085147 0.000601704)
(0.137706 0.000535621 8.02269e-05)
(0.137639 0.000255968 0.000264722)
(0.137724 0.000328598 0.000761132)
(0.138238 0.000443248 0.000853953)
(0.137447 0.000289342 0.000313609)
(0.13769 0.000708551 0.000311169)
(0.137472 0.000116908 0.00019967)
(0.137735 0.000544401 0.000852235)
(0.138128 0.00023564 0.000804613)
(0.137277 0.00041645 6.55512e-05)
(0.137725 0.000533007 0.000354365)
(0.137307 0.000110159 -0.00037607)
(0.137541 0.000334677 0.00062487)
(0.138021 0.000476913 4.9084e-05)
(0.137524 0.000652292 6.73162e-05)
(0.138011 0.000804513 -0.000211763)
(0.137564 0.000470573 0.000130348)
(0.13822 0.000776789 0.000665766)
(0.138519 0.000438367 0.000990777)
(0.137847 0.000683581 0.000352839)
(0.138096 0.000687334 0.00036272)
(0.137688 0.000409799 9.36921e-05)
(0.137987 0.00052305 0.00102647)
(0.138156 0.000724172 0.000745174)
(0.137668 0.000875531 0.000601122)
(0.137919 0.00110322 0.000316126)
(0.137792 0.000473481 0.000506909)
(0.137994 0.000712885 0.000927126)
(0.138335 0.000309817 0.00138425)
(0.137343 0.000432266 0.00037693)
(0.137889 0.00060943 0.000634917)
(0.137366 -4.41242e-05 0.000241525)
(0.137848 0.000609529 0.00113327)
(0.137932 0.000214215 0.000794051)
(0.137498 0.000952982 0.000366319)
(0.137792 0.000510812 0.000130452)
(0.137503 0.00062457 -6.21152e-05)
(0.137972 0.000554779 0.000696548)
(0.1382 0.000571514 0.000567661)
(0.137748 0.000591396 0.000358772)
(0.136952 0.000378381 0.000128698)
(0.136967 0.00017295 0.000333797)
(0.136822 0.000159653 0.000428723)
(0.137221 0.000262045 0.000479059)
(0.136856 0.000126356 0.000102901)
(0.136855 0.000505829 0.000286866)
(0.136872 6.04441e-05 0.000239627)
(0.136826 0.000341312 0.00049756)
(0.137194 0.000119901 0.000426476)
(0.136759 0.000220089 -5.08168e-05)
(0.136917 0.000363467 0.000352066)
(0.136863 4.65686e-05 -0.000130993)
(0.136693 0.000153693 0.000405354)
(0.137082 0.000268878 -0.000111079)
(0.136806 0.000396615 -8.09099e-05)
(0.136963 0.00056025 -0.000137677)
(0.13684 0.000325816 0.000133933)
(0.137005 0.000493819 0.000244792)
(0.13738 0.000257796 0.000457977)
(0.137063 0.000444218 4.6448e-05)
(0.137063 0.000479537 0.000308133)
(0.137025 0.000309452 9.72628e-05)
(0.136905 0.000277952 0.000605673)
(0.137216 0.000485734 0.000318384)
(0.136975 0.000528116 0.000369181)
(0.137024 0.000795248 0.000344368)
(0.137052 0.000284623 0.000524124)
(0.136959 0.000464126 0.000533943)
(0.137417 0.000158038 0.000877942)
(0.13688 0.000245327 0.000251932)
(0.137043 0.000411091 0.000627765)
(0.136799 -7.51546e-05 0.000340691)
(0.136878 0.000383885 0.000765111)
(0.137084 0.00010905 0.000464325)
(0.136897 0.000674686 0.000196166)
(0.136998 0.000369793 0.000249841)
(0.136885 0.000447161 8.06811e-05)
(0.136967 0.000360637 0.000409764)
(0.137243 0.000377268 0.00022955)
(0.137086 0.000388979 0.000185046)
(0.136549 0.000256084 0.000162522)
(0.136635 0.000128639 0.000361177)
(0.136517 6.67758e-05 0.000312509)
(0.136654 0.000151872 0.000358258)
(0.136497 1.11466e-05 6.16801e-05)
(0.136459 0.000356399 0.000271197)
(0.136577 4.65893e-05 0.000250029)
(0.136525 0.000224307 0.000370562)
(0.136666 5.76185e-05 0.000300679)
(0.136463 9.19019e-05 -2.82902e-05)
(0.136525 0.000249185 0.000329452)
(0.136612 3.06894e-05 8.3351e-06)
(0.136451 6.64241e-05 0.000343868)
(0.136567 0.000151688 -6.42634e-05)
(0.136463 0.000228869 -2.92708e-05)
(0.136501 0.000382538 -2.52154e-05)
(0.136531 0.000249528 0.000207957)
(0.13658 0.000324077 0.000154256)
(0.136686 0.000155957 0.000302545)
(0.136595 0.000277747 -1.37485e-05)
(0.136547 0.000321938 0.000282529)
(0.136674 0.000257427 0.000130306)
(0.136536 0.000136409 0.000419405)
(0.136638 0.000336547 0.000194591)
(0.136561 0.000281293 0.000267125)
(0.136569 0.000567398 0.00031958)
(0.136675 0.00017203 0.000495595)
(0.136556 0.000309283 0.000390728)
(0.136783 6.98323e-05 0.000647472)
(0.136517 0.000114308 0.000220266)
(0.136578 0.000274606 0.000571703)
(0.136508 -5.23458e-05 0.000378684)
(0.136512 0.000256253 0.000600811)
(0.136571 5.83998e-05 0.000354652)
(0.136519 0.000456542 0.000166085)
(0.136584 0.000266589 0.000291487)
(0.136584 0.000332528 0.000179292)
(0.136587 0.000242111 0.000333129)
(0.136676 0.000243203 0.000167082)
(0.136635 0.000226587 0.000162031)
(0.13638 0.000156302 0.000155332)
(0.136485 8.5839e-05 0.000315661)
(0.136421 1.18889e-05 0.00022749)
(0.136447 8.1898e-05 0.000297629)
(0.136354 -6.08932e-05 6.44972e-05)
(0.136315 0.000238631 0.000231834)
(0.136444 2.88729e-05 0.000205169)
(0.136428 0.000143983 0.00027718)
(0.136469 1.67436e-05 0.000237282)
(0.136346 1.2973e-05 1.16924e-05)
(0.136377 0.000160542 0.000270962)
(0.13648 1.51041e-05 4.55719e-05)
(0.136381 2.3015e-05 0.000271586)
(0.13639 8.27292e-05 -8.29519e-06)
(0.136336 0.000116901 3.8043e-05)
(0.136343 0.000250705 3.05595e-05)
(0.136407 0.00018102 0.000215824)
(0.136457 0.000221165 0.000121114)
(0.136436 9.02736e-05 0.000255968)
(0.136409 0.000161343 1.18606e-05)
(0.136358 0.000198353 0.000241454)
(0.136513 0.000206028 0.000119516)
(0.136431 4.87486e-05 0.000290451)
(0.13643 0.000235573 0.000148627)
(0.136396 0.000115055 0.000212743)
(0.136393 0.00039196 0.000248316)
(0.136513 8.8756e-05 0.000398444)
(0.136429 0.000207611 0.000288121)
(0.136526 1.31399e-05 0.000500899)
(0.136356 2.58324e-05 0.000204013)
(0.136389 0.000173024 0.000467775)
(0.136385 -3.52363e-05 0.000330166)
(0.1364 0.000172718 0.00046364)
(0.13639 2.64813e-05 0.000294798)
(0.136364 0.00029402 0.000166551)
(0.136416 0.0001833 0.000268959)
(0.136456 0.000236397 0.000184887)
(0.136464 0.000159451 0.000272466)
(0.136468 0.000149657 0.000156831)
(0.13644 0.000110401 0.000172568)
(0.136293 8.5847e-05 0.000120314)
(0.136387 5.10354e-05 0.000241217)
(0.136349 -2.57528e-05 0.00015135)
(0.136347 3.84238e-05 0.000231516)
(0.136283 -9.50414e-05 5.56644e-05)
(0.136244 0.000150867 0.000175971)
(0.136355 1.33946e-05 0.000143847)
(0.136355 8.2304e-05 0.000192781)
(0.136367 -6.74926e-06 0.000175218)
(0.136279 -2.82443e-05 2.6438e-05)
(0.136299 9.82551e-05 0.000198264)
(0.136386 1.30319e-06 3.88799e-05)
(0.136318 -5.87082e-06 0.000195235)
(0.136308 3.79259e-05 9.65032e-06)
(0.136268 4.9125e-05 6.63611e-05)
(0.136267 0.000158937 3.8727e-05)
(0.136327 0.000127408 0.000180165)
(0.136375 0.000144992 8.48491e-05)
(0.13633 5.00026e-05 0.000207404)
(0.136323 9.24271e-05 2.72143e-05)
(0.136274 0.000113691 0.000184827)
(0.136411 0.000163637 8.38883e-05)
(0.136359 -9.72092e-06 0.000188138)
(0.136339 0.000168051 0.000101868)
(0.136317 1.59141e-05 0.000159977)
(0.136305 0.000265933 0.000167285)
(0.136413 3.19866e-05 0.000288138)
(0.136348 0.000132086 0.000198038)
(0.136406 -1.93036e-05 0.000369654)
(0.136281 -2.2486e-05 0.000169789)
(0.136297 0.0001004 0.000351802)
(0.136308 -2.43177e-05 0.000252948)
(0.136331 0.000111413 0.000337375)
(0.13631 8.7332e-06 0.000230419)
(0.136289 0.000183107 0.00014611)
(0.136327 0.000122042 0.000213666)
(0.136373 0.000161988 0.00014827)
(0.136382 9.67143e-05 0.000203758)
(0.136369 8.64711e-05 0.000129771)
(0.136346 3.58433e-05 0.000157181)
(0.136217 3.85995e-05 8.20507e-05)
(0.136295 2.57722e-05 0.000171764)
(0.136267 -4.70545e-05 9.29398e-05)
(0.136258 1.05547e-05 0.000168727)
(0.136215 -0.000104157 3.95202e-05)
(0.136179 8.87233e-05 0.000123627)
(0.136269 2.47428e-06 9.10585e-05)
(0.136273 3.97179e-05 0.000125574)
(0.136275 -2.05344e-05 0.000118902)
(0.136211 -4.49973e-05 2.42988e-05)
(0.136225 5.59378e-05 0.000132949)
(0.136294 -7.92635e-06 2.27831e-05)
(0.136243 -2.25898e-05 0.000131825)
(0.136231 1.17576e-05 8.82854e-06)
(0.136201 1.00734e-05 6.73216e-05)
(0.136198 9.88017e-05 2.97132e-05)
(0.136246 8.60613e-05 0.000136833)
(0.136287 9.18002e-05 5.29817e-05)
(0.136243 2.40782e-05 0.000156338)
(0.136248 5.29948e-05 2.59364e-05)
(0.136204 5.76939e-05 0.000129995)
(0.136316 0.000127998 4.82575e-05)
(0.136279 -4.19355e-05 0.000113284)
(0.136258 0.000119556 5.95457e-05)
(0.136245 -3.67822e-05 0.000110651)
(0.136229 0.000177999 0.000101759)
(0.136318 -3.24196e-06 0.000195771)
(0.136264 7.92331e-05 0.000129898)
(0.136306 -3.36076e-05 0.00026092)
(0.136213 -4.41205e-05 0.00013066)
(0.13622 5.30581e-05 0.000252342)
(0.136232 -1.62729e-05 0.000182745)
(0.136255 6.9689e-05 0.000235898)
(0.136238 -7.32405e-07 0.000169538)
(0.136221 0.000109833 0.000114785)
(0.136248 7.98051e-05 0.000156869)
(0.13629 0.00010775 0.000106367)
(0.136296 5.22742e-05 0.000144342)
(0.13628 4.43687e-05 9.5387e-05)
(0.136264 -6.46275e-06 0.000127928)
(0.136135 9.54078e-06 5.25014e-05)
(0.136197 9.6489e-06 0.000117437)
(0.136177 -5.54246e-05 5.44601e-05)
(0.136164 -6.14381e-06 0.000118004)
(0.136136 -9.68686e-05 2.55515e-05)
(0.136107 4.72981e-05 8.3141e-05)
(0.136176 -3.56945e-06 5.41071e-05)
(0.136182 1.28711e-05 7.84322e-05)
(0.136178 -2.69014e-05 7.62084e-05)
(0.136132 -4.64609e-05 1.78769e-05)
(0.136144 2.85581e-05 8.40904e-05)
(0.136197 -1.31951e-05 9.94576e-06)
(0.136158 -2.99056e-05 8.6127e-05)
(0.136146 -3.07349e-06 3.53449e-06)
(0.136124 -9.04418e-06 5.77057e-05)
(0.13612 5.9279e-05 1.93358e-05)
(0.136158 5.71082e-05 9.9524e-05)
(0.13619 5.64429e-05 3.0463e-05)
(0.136152 8.59027e-06 0.000112819)
(0.136163 3.36743e-05 1.96696e-05)
(0.136128 2.39527e-05 8.6988e-05)
(0.136216 0.000100765 2.26115e-05)
(0.136189 -5.47697e-05 6.38231e-05)
(0.136169 8.52461e-05 2.83603e-05)
(0.136164 -5.73797e-05 7.17039e-05)
(0.136146 0.00011877 5.65337e-05)
(0.136219 -2.09714e-05 0.000127795)
(0.136173 4.48693e-05 8.28215e-05)
(0.136204 -3.69563e-05 0.000178706)
(0.136137 -4.71043e-05 9.70332e-05)
(0.136139 2.43856e-05 0.000176915)
(0.136149 -9.23395e-06 0.000129382)
(0.136169 4.28645e-05 0.000162005)
(0.136156 -4.02572e-06 0.000121204)
(0.136144 6.47567e-05 8.58394e-05)
(0.136163 5.12221e-05 0.000110524)
(0.136199 7.02546e-05 7.29958e-05)
(0.136201 2.23732e-05 9.96072e-05)
(0.136185 1.87203e-05 6.59537e-05)
(0.136176 -2.65914e-05 9.7578e-05)
(0.136047 -6.88003e-06 3.30512e-05)
(0.136093 -4.65916e-07 7.85054e-05)
(0.136079 -5.57998e-05 3.12241e-05)
(0.136064 -1.48983e-05 8.04989e-05)
(0.136049 -8.20337e-05 1.58501e-05)
(0.136026 2.04989e-05 5.47768e-05)
(0.136077 -7.31667e-06 3.10869e-05)
(0.136083 -2.98207e-06 4.78497e-05)
(0.136076 -2.8575e-05 4.69487e-05)
(0.136045 -4.10007e-05 1.18781e-05)
(0.136055 1.13242e-05 5.09013e-05)
(0.136093 -1.54533e-05 2.38064e-06)
(0.136064 -3.17939e-05 5.52554e-05)
(0.136054 -1.00357e-05 -5.36889e-07)
(0.136037 -1.64747e-05 4.55247e-05)
(0.136035 3.4688e-05 1.20031e-05)
(0.136063 3.70821e-05 7.09121e-05)
(0.136088 3.38283e-05 1.69328e-05)
(0.136055 5.61154e-07 7.91624e-05)
(0.13607 2.49808e-05 1.35845e-05)
(0.136043 5.31326e-06 5.61203e-05)
(0.13611 7.8306e-05 6.92754e-06)
(0.136091 -5.59714e-05 3.3137e-05)
(0.136073 6.10522e-05 8.68504e-06)
(0.136073 -5.91255e-05 4.36528e-05)
(0.136057 7.90371e-05 2.83368e-05)
(0.136114 -2.68995e-05 8.06677e-05)
(0.136076 2.28734e-05 5.21798e-05)
(0.136097 -3.32619e-05 0.000119984)
(0.136051 -4.10583e-05 7.07437e-05)
(0.136052 8.92714e-06 0.000122621)
(0.136059 -4.32508e-06 9.10642e-05)
(0.136075 2.62548e-05 0.000110652)
(0.136065 -3.69172e-06 8.6142e-05)
(0.136057 3.81205e-05 6.30873e-05)
(0.136071 3.27181e-05 7.70658e-05)
(0.1361 4.50266e-05 4.93137e-05)
(0.136099 3.7551e-06 6.83423e-05)
(0.136084 3.74457e-06 4.41738e-05)
(0.13608 -3.28641e-05 7.19981e-05)
(0.135951 -1.50746e-05 2.12428e-05)