/*--------------------------------*- C++ -*----------------------------------*\
  =========                 |
  \\      /  F ield         | OpenFOAM: The Open Source CFD Toolbox
   \\    /   O peration     | Website:  https://openfoam.org
    \\  /    A nd           | Version:  10
     \\/     M anipulation  |
\*---------------------------------------------------------------------------*/
FoamFile
{
    format      ascii;
    class       volVectorField;
    location    "6";
    object      U_0;
}
// * * * * * * * * * * * * * * * * * * * * * * * * * * * * * * * * * * * * * //

dimensions      [0 1 -1 0 0 0 0];

internalField   nonuniform List<vector> 
25600
(
(0.134258 2.99537e-06 3.13564e-08)
(0.134256 4.22918e-06 -5.09379e-07)
(0.134258 4.60409e-06 -1.57331e-07)
(0.134259 7.23073e-06 2.37309e-07)
(0.134259 6.85841e-06 -4.03528e-08)
(0.134263 7.98138e-06 -3.14918e-07)
(0.134266 1.01098e-05 -3.23338e-07)
(0.134265 1.12389e-05 -3.60314e-07)
(0.134263 1.30261e-05 1.22819e-07)
(0.134261 1.2227e-05 -7.49494e-08)
(0.13426 1.23068e-05 -9.79222e-08)
(0.134259 1.24723e-05 -7.66884e-07)
(0.134258 1.17422e-05 -1.29492e-06)
(0.134256 1.09955e-05 -1.45456e-06)
(0.134255 7.92481e-06 -1.64628e-06)
(0.134256 5.58838e-06 -1.39605e-06)
(0.134258 3.13723e-06 -1.37376e-06)
(0.134259 4.27224e-07 -1.04652e-06)
(0.134259 -1.5635e-06 -8.84901e-07)
(0.13426 -4.62623e-06 -6.38861e-07)
(0.134263 -5.88951e-06 -3.31096e-07)
(0.134264 -6.35668e-06 1.78737e-08)
(0.134265 -6.57374e-06 4.82694e-07)
(0.134264 -7.9482e-06 5.95711e-07)
(0.134266 -8.68748e-06 8.93222e-07)
(0.134265 -9.08818e-06 1.11011e-06)
(0.13427 -8.08769e-06 1.20855e-06)
(0.134266 -5.98061e-06 1.04083e-06)
(0.134268 -6.47002e-06 1.17996e-06)
(0.134267 -4.65758e-06 9.2354e-07)
(0.134267 -4.33852e-06 7.14115e-07)
(0.134273 -2.07906e-06 5.22959e-07)
(0.134262 -5.88315e-07 4.4645e-08)
(0.134276 1.22629e-06 4.53422e-07)
(0.134255 7.58376e-07 -8.93251e-07)
(0.134274 1.55371e-06 -8.72157e-07)
(0.134263 4.07037e-06 3.05174e-07)
(0.134259 2.02271e-06 -1.26407e-06)
(0.134266 3.262e-06 -5.06723e-07)
(0.134257 4.76935e-06 5.02634e-07)
(0.13562 4.45383e-06 -2.10303e-08)
(0.135622 6.88615e-06 -1.95052e-06)
(0.135627 5.1098e-06 -4.42254e-07)
(0.135626 7.08082e-06 1.41045e-06)
(0.135621 4.13882e-06 1.34922e-06)
(0.135624 5.96385e-06 5.66296e-07)
(0.135626 1.03694e-05 -2.09744e-07)
(0.135626 1.26669e-05 -3.1085e-07)
(0.135625 1.49174e-05 5.55148e-07)
(0.135623 1.19887e-05 4.91105e-07)
(0.135625 1.24118e-05 7.85354e-07)
(0.135624 1.32166e-05 -1.00842e-07)
(0.135622 1.33958e-05 -7.60034e-07)
(0.135619 1.25718e-05 -1.13139e-06)
(0.135618 7.14419e-06 -1.89589e-06)
(0.13562 4.03021e-06 -1.54666e-06)
(0.135622 1.92719e-06 -1.90283e-06)
(0.135622 2.34185e-07 -1.55407e-06)
(0.135622 -2.34326e-06 -1.65041e-06)
(0.135623 -7.06913e-06 -1.48511e-06)
(0.135628 -8.39575e-06 -1.16541e-06)
(0.13563 -7.15901e-06 -7.78285e-07)
(0.13563 -6.08531e-06 -1.2232e-07)
(0.135628 -8.18521e-06 -1.70697e-07)
(0.13563 -9.75011e-06 4.96846e-07)
(0.13563 -1.08953e-05 7.77514e-07)
(0.135637 -8.432e-06 1.20641e-06)
(0.135632 -4.09158e-06 8.15902e-07)
(0.135635 -6.62129e-06 1.57033e-06)
(0.135632 -3.95651e-06 8.9865e-07)
(0.135636 -5.43193e-06 1.39548e-06)
(0.135637 5.83067e-08 4.51331e-07)
(0.135634 2.52692e-06 4.95626e-07)
(0.135636 4.27481e-06 1.48847e-06)
(0.135624 3.51125e-06 -1.72194e-06)
(0.13564 2.56651e-06 1.22252e-09)
(0.135627 8.18128e-06 1.31857e-06)
(0.135625 7.3067e-06 -2.28997e-06)
(0.135633 6.71884e-06 -2.58411e-07)
(0.135619 6.58209e-06 1.83522e-06)
(0.135844 3.92073e-06 2.37592e-07)
(0.135847 9.39827e-06 -2.06157e-06)
(0.135851 6.87282e-06 -2.05203e-07)
(0.135848 9.74963e-06 1.69333e-06)
(0.135843 1.66739e-06 1.53946e-06)
(0.13585 4.02581e-06 9.34694e-07)
(0.135852 1.08967e-05 -1.19203e-08)
(0.135852 1.46678e-05 1.43739e-08)
(0.135847 1.73197e-05 1.47289e-06)
(0.135846 1.04675e-05 1.27419e-06)
(0.135849 1.20245e-05 1.96106e-06)
(0.135849 1.43275e-05 3.30283e-07)
(0.135846 1.64297e-05 -3.82685e-07)
(0.13584 1.54238e-05 -9.68885e-07)
(0.135837 6.09549e-06 -2.61843e-06)
(0.135841 2.22325e-06 -1.82554e-06)
(0.135844 9.22396e-07 -2.62615e-06)
(0.135844 1.13909e-06 -1.86885e-06)
(0.135842 -2.7503e-06 -2.46698e-06)
(0.135843 -1.08172e-05 -2.32839e-06)
(0.135851 -1.16424e-05 -2.02286e-06)
(0.135855 -7.38781e-06 -1.36749e-06)
(0.135853 -4.26262e-06 -4.29344e-07)
(0.135849 -8.27274e-06 -8.77874e-07)
(0.135852 -1.15191e-05 4.03003e-07)
(0.135854 -1.41919e-05 7.5174e-07)
(0.135864 -8.90998e-06 1.49513e-06)
(0.135856 -8.76246e-07 8.41844e-07)
(0.135857 -7.326e-06 2.2784e-06)
(0.135855 -3.62601e-06 1.53308e-06)
(0.135861 -7.28589e-06 2.09876e-06)
(0.135865 2.06606e-06 8.34914e-07)
(0.13586 8.33291e-06 1.36561e-06)
(0.135858 8.07539e-06 2.12254e-06)
(0.135847 5.10814e-06 -1.54346e-06)
(0.135866 5.27755e-06 2.3937e-07)
(0.135852 1.22493e-05 1.96569e-06)
(0.135849 1.34164e-05 -2.05834e-06)
(0.135856 1.26937e-05 5.86865e-08)
(0.13584 8.94097e-06 1.95002e-06)
(0.136006 2.95503e-06 7.64744e-07)
(0.13601 1.38033e-05 -2.29342e-06)
(0.136012 9.59987e-06 3.23939e-07)
(0.136006 1.28334e-05 2.34709e-06)
(0.136001 -3.98487e-06 1.98506e-06)
(0.136015 6.08565e-07 1.55405e-06)
(0.136019 1.24435e-05 1.32061e-07)
(0.136016 1.96794e-05 1.15529e-07)
(0.136006 2.17706e-05 2.51598e-06)
(0.136004 7.80874e-06 2.04065e-06)
(0.136013 1.13156e-05 3.46816e-06)
(0.136013 1.62791e-05 4.64184e-07)
(0.136008 2.23432e-05 -1.10164e-07)
(0.135996 2.02363e-05 -1.06115e-06)
(0.135993 4.33172e-06 -4.07145e-06)
(0.136001 -5.21262e-07 -2.25937e-06)
(0.136006 1.01479e-07 -3.63508e-06)
(0.136004 4.0938e-06 -1.86418e-06)
(0.135997 -3.14974e-06 -3.46059e-06)
(0.136001 -1.69649e-05 -3.35864e-06)
(0.136015 -1.63471e-05 -3.05344e-06)
(0.136021 -6.95706e-06 -1.72841e-06)
(0.136014 -1.85302e-07 -4.33349e-07)
(0.136007 -7.94532e-06 -1.66626e-06)
(0.13601 -1.43871e-05 6.73728e-07)
(0.136017 -1.99591e-05 9.5175e-07)
(0.136032 -9.28592e-06 2.09536e-06)
(0.136017 4.94228e-06 9.72129e-07)
(0.136017 -9.22948e-06 3.65982e-06)
(0.136016 -3.31118e-06 2.54885e-06)
(0.136025 -1.20686e-05 3.31127e-06)
(0.136033 5.59627e-06 1.38516e-06)
(0.136023 1.67012e-05 3.11152e-06)
(0.136018 1.27881e-05 3.17937e-06)
(0.136007 6.34033e-06 -1.23255e-06)
(0.136031 6.14459e-06 9.87282e-07)
(0.136018 1.87056e-05 2.86572e-06)
(0.13601 2.26474e-05 -1.79109e-06)
(0.136015 1.92092e-05 7.75644e-07)
(0.135998 1.07558e-05 2.2719e-06)
(0.136158 -2.18241e-08 1.81673e-06)
(0.136164 2.00652e-05 -2.43556e-06)
(0.136162 1.47745e-05 1.34328e-06)
(0.136151 1.79106e-05 3.39847e-06)
(0.136146 -1.32372e-05 2.58562e-06)
(0.136173 -4.50037e-06 2.36801e-06)
(0.136178 1.52115e-05 1.68052e-07)
(0.13617 2.86151e-05 -4.69236e-08)
(0.136151 2.77641e-05 3.82191e-06)
(0.13615 2.28557e-06 2.78575e-06)
(0.136167 9.17339e-06 5.56144e-06)
(0.136169 1.90109e-05 2.3671e-07)
(0.136161 3.24151e-05 3.0007e-07)
(0.136139 2.7305e-05 -1.25493e-06)
(0.136135 1.1502e-06 -6.52003e-06)
(0.13615 -5.05296e-06 -2.79581e-06)
(0.13616 -3.26569e-07 -4.86446e-06)
(0.136154 1.03841e-05 -1.08673e-06)
(0.136139 -3.99952e-06 -4.59741e-06)
(0.136146 -2.65346e-05 -4.58166e-06)
(0.136171 -2.30034e-05 -4.376e-06)
(0.136179 -5.05288e-06 -1.62655e-06)
(0.136164 7.53583e-06 -6.52501e-08)
(0.136152 -7.09215e-06 -2.69973e-06)
(0.136156 -1.89535e-05 1.409e-06)
(0.13617 -2.95463e-05 1.40816e-06)
(0.136194 -8.80511e-06 3.02958e-06)
(0.136168 1.47352e-05 1.15665e-06)
(0.136164 -1.3067e-05 6.08934e-06)
(0.136165 -3.4407e-06 4.1093e-06)
(0.136179 -2.09159e-05 5.04207e-06)
(0.136197 1.11407e-05 2.19691e-06)
(0.136177 3.00435e-05 6.2443e-06)
(0.136163 1.82698e-05 4.66151e-06)
(0.136154 5.95129e-06 -5.86311e-07)
(0.136187 5.98145e-06 2.192e-06)
(0.136176 2.77173e-05 4.16398e-06)
(0.136161 3.59542e-05 -1.20184e-06)
(0.13616 2.72844e-05 2.15684e-06)
(0.136141 1.17508e-05 2.83749e-06)
(0.136303 -5.54683e-06 3.55721e-06)
(0.136312 2.90645e-05 -2.60369e-06)
(0.136303 2.4024e-05 3.30029e-06)
(0.136281 2.49652e-05 5.31275e-06)
(0.136279 -2.81981e-05 3.52906e-06)
(0.136326 -1.22145e-05 3.68412e-06)
(0.136332 1.97988e-05 2.06545e-07)
(0.136317 4.35858e-05 -6.75365e-07)
(0.136282 3.54673e-05 5.23992e-06)
(0.136285 -7.32491e-06 3.38528e-06)
(0.136316 4.78837e-06 8.45449e-06)
(0.13632 2.29408e-05 -5.34507e-07)
(0.136306 4.87991e-05 1.03798e-06)
(0.136269 3.68991e-05 -1.54716e-06)
(0.136265 -4.09022e-06 -1.02965e-05)
(0.136293 -1.24119e-05 -3.30896e-06)
(0.136309 2.58884e-07 -6.15759e-06)
(0.136294 2.2251e-05 1.03088e-06)
(0.136266 -5.95202e-06 -5.92378e-06)
(0.136281 -4.09162e-05 -6.09666e-06)
(0.136322 -3.22769e-05 -6.01557e-06)
(0.136333 -1.02379e-06 -5.84874e-07)
(0.136306 2.0733e-05 6.03035e-07)
(0.136283 -5.49033e-06 -4.02614e-06)
(0.136289 -2.61825e-05 2.70809e-06)
(0.136317 -4.47679e-05 2.24655e-06)
(0.136353 -6.55109e-06 4.38548e-06)
(0.136307 3.01443e-05 1.42878e-06)
(0.136298 -1.99996e-05 1.02699e-05)
(0.136303 -4.42127e-06 6.29809e-06)
(0.136327 -3.61024e-05 7.38182e-06)
(0.136358 2.01254e-05 3.39217e-06)
(0.136321 5.04043e-05 1.14105e-05)
(0.136295 2.40411e-05 6.52914e-06)
(0.136291 3.01437e-06 3.68158e-07)
(0.136338 3.43518e-06 4.31166e-06)
(0.13633 4.0447e-05 6.14843e-06)
(0.136302 5.53087e-05 -4.44956e-07)
(0.136292 3.61963e-05 4.43012e-06)
(0.136273 1.11746e-05 4.03586e-06)
(0.136443 -1.48637e-05 6.29911e-06)
(0.136457 4.15779e-05 -2.5411e-06)
(0.136436 3.98421e-05 6.62245e-06)
(0.136395 3.40605e-05 8.5428e-06)
(0.136399 -5.05824e-05 4.83555e-06)
(0.136476 -2.35575e-05 5.98582e-06)
(0.136486 2.69855e-05 3.33828e-07)
(0.136455 6.71711e-05 -2.05091e-06)
(0.136396 4.4292e-05 6.61342e-06)
(0.136408 -2.26e-05 3.71369e-06)
(0.13646 -3.19122e-06 1.25957e-05)
(0.13647 2.85768e-05 -1.94595e-06)
(0.136445 7.40907e-05 2.36831e-06)
(0.136384 4.91046e-05 -2.16537e-06)
(0.136382 -1.2313e-05 -1.60847e-05)
(0.136429 -2.39438e-05 -3.66565e-06)
(0.136456 2.77094e-06 -7.11651e-06)
(0.136425 4.26641e-05 4.89026e-06)
(0.136377 -1.00488e-05 -7.43983e-06)
(0.136406 -6.13504e-05 -7.95992e-06)
(0.13647 -4.48761e-05 -7.95671e-06)
(0.136486 5.92995e-06 2.13621e-06)
(0.136438 4.17076e-05 1.43822e-06)
(0.136401 -2.75153e-06 -5.79273e-06)
(0.136409 -3.71692e-05 4.50906e-06)
(0.136458 -6.77497e-05 3.50446e-06)
(0.136514 -1.25234e-06 6.27293e-06)
(0.136436 5.28969e-05 1.67333e-06)
(0.136418 -3.1664e-05 1.68519e-05)
(0.13643 -6.80914e-06 9.19792e-06)
(0.136469 -6.02014e-05 1.06698e-05)
(0.136522 3.40684e-05 5.34253e-06)
(0.136455 8.04185e-05 1.9344e-05)
(0.136411 2.87662e-05 8.66121e-06)
(0.136417 -3.17994e-06 1.74585e-06)
(0.136486 -2.05035e-06 8.09945e-06)
(0.136482 5.79358e-05 9.31979e-06)
(0.136434 8.25872e-05 6.00883e-07)
(0.13641 4.49436e-05 8.08055e-06)
(0.136392 8.23932e-06 6.15371e-06)
(0.13658 -2.89577e-05 1.0892e-05)
(0.136601 5.86532e-05 -1.67181e-06)
(0.136559 6.47905e-05 1.18654e-05)
(0.136492 4.43299e-05 1.3877e-05)
(0.136507 -8.24517e-05 6.62135e-06)
(0.136626 -4.01553e-05 1.0302e-05)
(0.13664 3.79389e-05 1.13244e-06)
(0.136586 0.000101916 -4.59651e-06)
(0.136493 5.29473e-05 7.47933e-06)
(0.136519 -4.5132e-05 3.7111e-06)
(0.136602 -1.6803e-05 1.87356e-05)
(0.136622 3.70115e-05 -3.68874e-06)
(0.136576 0.000111087 4.4926e-06)
(0.136482 6.3599e-05 -3.27127e-06)
(0.136486 -2.45608e-05 -2.47682e-05)
(0.136561 -4.1272e-05 -3.35874e-06)
(0.136605 8.8995e-06 -6.8824e-06)
(0.136546 7.40573e-05 1.14125e-05)
(0.13647 -1.83282e-05 -8.92128e-06)
(0.136521 -8.91442e-05 -1.00365e-05)
(0.136618 -6.16915e-05 -9.71809e-06)
(0.13664 1.68453e-05 7.824e-06)
(0.136561 7.31683e-05 2.27056e-06)
(0.136502 1.11166e-06 -7.80062e-06)
(0.136514 -5.33812e-05 6.75737e-06)
(0.136596 -0.000100888 5.89662e-06)
(0.136678 8.66876e-06 9.2514e-06)
(0.136551 8.45396e-05 1.71506e-06)
(0.136524 -5.03757e-05 2.68757e-05)
(0.136546 -1.18125e-05 1.3085e-05)
(0.136608 -9.64322e-05 1.53975e-05)
(0.136692 5.49916e-05 8.82932e-06)
(0.136578 0.000122234 3.07003e-05)
(0.13651 3.0294e-05 1.08871e-05)
(0.136533 -1.39677e-05 3.49826e-06)
(0.136632 -1.18418e-05 1.51789e-05)
(0.136634 8.17145e-05 1.45166e-05)
(0.136554 0.000119483 1.82003e-06)
(0.136513 5.0922e-05 1.37615e-05)
(0.1365 2.16729e-06 9.87527e-06)
(0.136713 -4.88192e-05 1.91089e-05)
(0.136747 8.14846e-05 1.41278e-06)
(0.136673 0.0001009 1.93905e-05)
(0.136568 5.37512e-05 2.24761e-05)
(0.136601 -0.000125484 8.5947e-06)
(0.136777 -6.3981e-05 1.8795e-05)
(0.136799 5.40989e-05 3.77819e-06)
(0.136707 0.000151026 -9.33118e-06)
(0.13657 5.92409e-05 7.39731e-06)
(0.136619 -7.66431e-05 3.43088e-06)
(0.136744 -3.864e-05 2.83709e-05)
(0.136778 5.00722e-05 -4.44695e-06)
(0.136702 0.000162578 7.57562e-06)
(0.136562 7.92674e-05 -5.21328e-06)
(0.136576 -4.1956e-05 -3.76808e-05)
(0.13669 -6.64211e-05 -1.54552e-06)
(0.136757 2.07811e-05 -3.61111e-06)
(0.136655 0.000117735 2.1115e-05)
(0.136542 -3.43348e-05 -9.92637e-06)
(0.136629 -0.000125439 -1.25986e-05)
(0.136767 -8.3278e-05 -1.02476e-05)
(0.136796 3.3667e-05 1.90825e-05)
(0.136675 0.000117762 2.97823e-06)
(0.136585 5.36386e-06 -9.74876e-06)
(0.136604 -7.62891e-05 8.80084e-06)
(0.136733 -0.000146083 1.07702e-05)
(0.136848 2.55093e-05 1.51906e-05)
(0.136652 0.000126018 1.57104e-06)
(0.136614 -7.9507e-05 4.16197e-05)
(0.13665 -2.06928e-05 1.8384e-05)
(0.136746 -0.000148502 2.30775e-05)
(0.136872 8.53439e-05 1.54114e-05)
(0.136687 0.000176579 4.55982e-05)
(0.136589 2.4794e-05 1.27739e-05)
(0.13664 -3.10552e-05 5.99893e-06)
(0.136778 -2.76195e-05 2.8048e-05)
(0.136789 0.000113542 2.34173e-05)
(0.136662 0.000167132 3.46302e-06)
(0.136598 4.97272e-05 2.21553e-05)
(0.136597 -7.7786e-06 1.61155e-05)
(0.136847 -7.52209e-05 3.39083e-05)
(0.136897 0.000111995 9.28374e-06)
(0.136776 0.000148746 2.9899e-05)
(0.13662 5.80053e-05 3.58984e-05)
(0.136683 -0.000181418 1.03475e-05)
(0.136933 -9.65787e-05 3.52392e-05)
(0.136965 7.76859e-05 1.10368e-05)
(0.136819 0.000216305 -1.77897e-05)
(0.136623 5.9391e-05 6.06438e-06)
(0.136706 -0.000119118 2.98454e-06)
(0.136887 -7.19495e-05 4.44156e-05)
(0.136941 7.08905e-05 -1.84918e-06)
(0.136819 0.000230168 1.13298e-05)
(0.136621 9.31348e-05 -8.00774e-06)
(0.136653 -6.60136e-05 -5.66873e-05)
(0.136819 -0.000100923 3.70271e-06)
(0.136917 4.07053e-05 5.5098e-06)
(0.13675 0.000173425 3.42347e-05)
(0.136591 -6.3364e-05 -9.79518e-06)
(0.136729 -0.000171357 -1.56644e-05)
(0.13692 -0.000110584 -6.86185e-06)
(0.136959 5.87027e-05 3.96975e-05)
(0.136779 0.000177953 3.03239e-06)
(0.136648 7.34256e-06 -1.10369e-05)
(0.136678 -0.000107795 9.4708e-06)
(0.136871 -0.000204394 2.18693e-05)
(0.137028 5.20917e-05 2.73111e-05)
(0.136735 0.000177406 9.59343e-07)
(0.136687 -0.000124855 6.26651e-05)
(0.136743 -3.59771e-05 2.59321e-05)
(0.136885 -0.000219864 3.70105e-05)
(0.137065 0.000127998 2.83352e-05)
(0.136781 0.000242948 6.37462e-05)
(0.136647 7.52576e-06 1.40832e-05)
(0.136738 -5.621e-05 9.90795e-06)
(0.136927 -5.15157e-05 5.18372e-05)
(0.136948 0.000155678 3.856e-05)
(0.136755 0.000224631 5.03884e-06)
(0.136665 3.40305e-05 3.47193e-05)
(0.136684 -2.29252e-05 2.63886e-05)
(0.136981 -0.000108119 6.13036e-05)
(0.137053 0.000153124 2.70493e-05)
(0.136867 0.000207542 4.34036e-05)
(0.136649 5.04278e-05 5.6057e-05)
(0.136753 -0.000251815 1.06084e-05)
(0.137094 -0.000139482 6.66883e-05)
(0.13714 0.00011161 2.84173e-05)
(0.136918 0.000296888 -3.25727e-05)
(0.136651 4.59884e-05 2.58076e-06)
(0.136783 -0.000175186 2.78938e-06)
(0.137036 -0.000119465 7.21203e-05)
(0.137116 0.000104203 8.57655e-06)
(0.136926 0.000313684 1.5908e-05)
(0.136658 9.81725e-05 -1.21616e-05)
(0.136716 -9.90245e-05 -8.46237e-05)
(0.13695 -0.000145043 1.71004e-05)
(0.137085 7.16686e-05 2.5518e-05)
(0.136827 0.000239791 4.95465e-05)
(0.136617 -0.000113269 -8.27648e-06)
(0.136825 -0.000228354 -1.98415e-05)
(0.137077 -0.000143366 5.35893e-06)
(0.137128 9.45069e-05 7.57219e-05)
(0.136871 0.000254704 1.84633e-06)
(0.136688 1.40767e-06 -1.14659e-05)
(0.136736 -0.000150184 6.42977e-06)
(0.137014 -0.000275259 4.54144e-05)
(0.137218 9.16796e-05 5.13167e-05)
(0.136796 0.000236553 -1.28422e-06)
(0.136741 -0.000195132 9.16438e-05)
(0.136825 -6.02654e-05 3.64966e-05)
(0.137028 -0.000313543 6.3573e-05)
(0.137272 0.000186914 5.26389e-05)
(0.136855 0.000318876 8.31974e-05)
(0.136684 -2.94154e-05 1.44764e-05)
(0.136831 -9.26803e-05 1.60633e-05)
(0.137081 -8.5269e-05 9.49133e-05)
(0.137114 0.000211407 6.49956e-05)
(0.136828 0.000289138 5.75511e-06)
(0.136714 -6.36777e-06 5.37864e-05)
(0.136766 -4.45223e-05 4.23298e-05)
(0.137117 -0.00014518 0.000110228)
(0.137215 0.000209945 6.2942e-05)
(0.13694 0.000273383 5.90891e-05)
(0.136652 2.05639e-05 8.46584e-05)
(0.136813 -0.000338575 6.70015e-06)
(0.137264 -0.000191375 0.000123698)
(0.137325 0.000159959 6.51264e-05)
(0.137 0.000389687 -5.7158e-05)
(0.136653 8.48025e-06 -3.71488e-06)
(0.136849 -0.000248816 2.86848e-06)
(0.137191 -0.00018339 0.000120656)
(0.137304 0.000157291 3.4706e-05)
(0.137019 0.000412273 1.93363e-05)
(0.136671 8.40352e-05 -1.87367e-05)
(0.136769 -0.00014387 -0.000125949)
(0.137086 -0.000197198 4.68698e-05)
(0.137262 0.000117996 6.39079e-05)
(0.136882 0.000312568 6.39519e-05)
(0.13662 -0.000197738 -4.87158e-06)
(0.136919 -0.000298629 -2.61864e-05)
(0.137242 -0.00018026 3.44702e-05)
(0.137306 0.000145209 0.000136441)
(0.136949 0.000345808 -1.83929e-06)
(0.136704 -2.2199e-05 -1.14049e-05)
(0.136781 -0.000206163 -4.34978e-06)
(0.137162 -0.000356008 9.25719e-05)
(0.137417 0.000148621 9.74096e-05)
(0.136832 0.00029737 -7.96877e-06)
(0.136776 -0.000304573 0.000129653)
(0.136898 -9.84435e-05 5.16855e-05)
(0.137177 -0.000430328 0.000112912)
(0.137496 0.000266672 9.65519e-05)
(0.136904 0.000399559 0.000100179)
(0.136698 -9.98737e-05 1.44951e-05)
(0.136919 -0.000144913 2.57836e-05)
(0.137242 -0.000129186 0.000170804)
(0.137285 0.000285144 0.000109698)
(0.136876 0.000355904 5.1865e-06)
(0.136745 -8.62759e-05 8.15659e-05)
(0.136846 -7.58455e-05 6.63821e-05)
(0.13726 -0.000180985 0.00019612)
(0.137381 0.000289721 0.000129771)
(0.13699 0.00034019 7.48266e-05)
(0.136628 -4.6327e-05 0.000122441)
(0.136868 -0.000444977 -6.29988e-06)
(0.137443 -0.000249422 0.000222998)
(0.137519 0.000228525 0.00013573)
(0.137058 0.000487731 -9.81772e-05)
(0.136627 -7.30527e-05 -1.68019e-05)
(0.136909 -0.00034674 2.69157e-06)
(0.137358 -0.000263406 0.000202855)
(0.137504 0.000240365 8.94716e-05)
(0.13709 0.000523 1.93606e-05)
(0.136659 3.40251e-05 -2.88741e-05)
(0.136815 -0.0002046 -0.000187071)
(0.137228 -0.000253641 0.000106121)
(0.137445 0.000185456 0.000132763)
(0.136908 0.000383074 7.21559e-05)
(0.136599 -0.000335895 -1.23075e-06)
(0.137018 -0.000384416 -3.82811e-05)
(0.137415 -0.00021638 9.30699e-05)
(0.13749 0.000216438 0.000234829)
(0.137005 0.000445702 -1.07571e-05)
(0.136694 -8.19016e-05 -1.43519e-05)
(0.136816 -0.000277801 -3.10227e-05)
(0.13732 -0.000439838 0.000179027)
(0.137623 0.000228235 0.000179691)
(0.136832 0.000350393 -2.51372e-05)
(0.136792 -0.000473435 0.000176467)
(0.136967 -0.000154549 7.19818e-05)
(0.137337 -0.000568954 0.000201089)
(0.137734 0.000372328 0.000171263)
(0.136922 0.000475225 0.000107919)
(0.136689 -0.000222456 1.17271e-05)
(0.137008 -0.000219473 4.01781e-05)
(0.137413 -0.000182514 0.000298528)
(0.137461 0.000383567 0.000184337)
(0.136891 0.000413188 1.15798e-06)
(0.136757 -0.000230145 0.000122432)
(0.13693 -0.00012068 9.96281e-05)
(0.137409 -0.000206255 0.0003396)
(0.137546 0.000402634 0.000246431)
(0.137008 0.000396782 8.51765e-05)
(0.136579 -0.000175829 0.000166576)
(0.136922 -0.000573492 -3.88723e-05)
(0.137632 -0.000305178 0.000386703)
(0.137717 0.000326044 0.000258291)
(0.137083 0.000577966 -0.000166063)
(0.136571 -0.000228827 -4.35258e-05)
(0.136966 -0.000478091 -3.94417e-06)
(0.137539 -0.000357145 0.000335127)
(0.137715 0.000367924 0.000190168)
(0.137129 0.00064019 1.11648e-05)
(0.13662 -7.82166e-05 -5.06684e-05)
(0.13686 -0.0002851 -0.00027997)
(0.13738 -0.000305943 0.000213283)
(0.137629 0.000281339 0.0002472)
(0.136893 0.000439917 6.30685e-05)
(0.136556 -0.000555151 -4.00653e-06)
(0.137127 -0.000489008 -6.26902e-05)
(0.137596 -0.000245935 0.000198174)
(0.137675 0.00031579 0.000387936)
(0.137031 0.000546526 -3.05358e-05)
(0.136658 -0.000207099 -2.64739e-05)
(0.136849 -0.000368153 -8.58458e-05)
(0.137488 -0.000516862 0.000327262)
(0.137828 0.000337612 0.000319171)
(0.136788 0.000382612 -6.36773e-05)
(0.136788 -0.000731353 0.00022696)
(0.137036 -0.000235905 9.6088e-05)
(0.137509 -0.000725642 0.000350118)
(0.137983 0.00051112 0.000294609)
(0.136897 0.000532273 9.48598e-05)
(0.136657 -0.00042253 1.14711e-07)
(0.137104 -0.000322638 5.77899e-05)
(0.137598 -0.000239886 0.000503912)
(0.137637 0.00051598 0.000305349)
(0.13686 0.000446832 -1.08992e-05)
(0.136752 -0.000471817 0.000174982)
(0.137026 -0.000184315 0.000141081)
(0.137569 -0.00020687 0.000561161)
(0.1377 0.000563214 0.000435731)
(0.13698 0.000429781 7.88349e-05)
(0.136511 -0.000402779 0.000203212)
(0.136985 -0.000730942 -0.000114884)
(0.137835 -0.000346146 0.000636605)
(0.137911 0.000460578 0.000455664)
(0.137059 0.000641742 -0.00027875)
(0.136491 -0.000492007 -0.000104209)
(0.13703 -0.000653261 -3.42504e-05)
(0.13774 -0.000455456 0.000534053)
(0.137931 0.000558481 0.000358975)
(0.13712 0.000756534 -1.41725e-05)
(0.136557 -0.000289928 -0.000100257)
(0.136914 -0.000391301 -0.000427241)
(0.137543 -0.000340472 0.000385973)
(0.137806 0.000409677 0.000425346)
(0.136824 0.000464965 2.1603e-05)
(0.136499 -0.00089116 -3.18111e-05)
(0.137259 -0.000622961 -0.000120766)
(0.137789 -0.000257382 0.000364433)
(0.137856 0.000450209 0.000613895)
(0.137014 0.000635429 -7.08901e-05)
(0.136599 -0.000437108 -6.81477e-05)
(0.13689 -0.000481179 -0.000196098)
(0.137669 -0.000570779 0.000559405)
(0.138023 0.000484623 0.000540665)
(0.136681 0.000372952 -0.000142954)
(0.136771 -0.00112192 0.000256858)
(0.137114 -0.000351716 0.00010747)
(0.1377 -0.000892634 0.000581377)
(0.138233 0.000685938 0.00048617)
(0.136817 0.000550135 4.2022e-05)
(0.136609 -0.00073654 -3.82021e-05)
(0.137216 -0.000470374 6.64341e-05)
(0.137802 -0.000293149 0.000813289)
(0.137803 0.000688608 0.000493998)
(0.136769 0.000436033 -4.26007e-05)
(0.136739 -0.000851272 0.00022291)
(0.137149 -0.000280094 0.000174813)
(0.137762 -0.000163532 0.00086076)
(0.13782 0.000791412 0.000727878)
(0.136915 0.000417367 4.04238e-05)
(0.136499 -0.000760141 0.000182922)
(0.137113 -0.000921206 -0.000298743)
(0.138076 -0.000352153 0.000972036)
(0.138088 0.000646314 0.000751621)
(0.136979 0.000650052 -0.000453951)
(0.136442 -0.000916211 -0.000251967)
(0.137146 -0.000888861 -0.000147184)
(0.137981 -0.000543742 0.000799236)
(0.138135 0.000839438 0.000620731)
(0.137057 0.000852402 -6.74645e-05)
(0.13653 -0.000643019 -0.000225954)
(0.137021 -0.00053559 -0.000688588)
(0.137732 -0.000333469 0.000626769)
(0.13796 0.000582367 0.000684692)
(0.136699 0.000432112 -7.15557e-05)
(0.136499 -0.00138497 -0.000133777)
(0.137462 -0.000793607 -0.000267003)
(0.138005 -0.000235507 0.000590366)
(0.13802 0.000638514 0.000929474)
(0.13695 0.000689318 -0.000142398)
(0.136581 -0.000813434 -0.000182881)
(0.136985 -0.000625644 -0.000419963)
(0.137887 -0.000577026 0.000881838)
(0.138189 0.000686901 0.000879562)
(0.136502 0.000295739 -0.000284156)
(0.136817 -0.00168923 0.000190866)
(0.137239 -0.000514872 4.43209e-05)
(0.137942 -0.00105561 0.000890628)
(0.138472 0.000909382 0.000768183)
(0.136677 0.00050269 -7.02098e-05)
(0.136614 -0.00121024 -0.000160755)
(0.13739 -0.000675811 8.76131e-06)
(0.138048 -0.000325852 0.0012351)
(0.137941 0.000920542 0.000776109)
(0.136619 0.000352752 -0.000109143)
(0.1368 -0.00141286 0.000208904)
(0.137351 -0.000419734 0.000138788)
(0.138064 -3.1858e-05 0.00115255)
(0.137852 0.00111458 0.00116379)
(0.136969 0.000328649 2.54424e-05)
(0.136925 -0.00130482 5.80822e-05)
(0.137525 -0.00115148 -0.000717692)
(0.13846 -0.000272072 0.00131469)
(0.138232 0.000906276 0.0011619)
(0.136924 0.000568231 -0.000637022)
(0.136752 -0.00156231 -0.000552127)
(0.137501 -0.00120274 -0.000482368)
(0.138345 -0.000583495 0.0010637)
(0.138274 0.00123757 0.000990909)
(0.137034 0.000900255 -0.000108902)
(0.136871 -0.00120348 -0.000483224)
(0.137362 -0.000731 -0.00118077)
(0.138022 -0.000242393 0.000867027)
(0.138072 0.000820449 0.00104572)
(0.136615 0.000309972 -0.000151094)
(0.13691 -0.00210142 -0.000353388)
(0.137921 -0.00100425 -0.000620605)
(0.138305 -0.000139693 0.000804962)
(0.138152 0.000902121 0.00134511)
(0.136932 0.000673063 -0.000187472)
(0.13694 -0.00140478 -0.000417674)
(0.137328 -0.00080989 -0.000873801)
(0.138255 -0.000497454 0.0012255)
(0.138291 0.000971938 0.00137866)
(0.136327 0.000120142 -0.000432146)
(0.137297 -0.00249915 -0.000104308)
(0.137555 -0.000726761 -0.000272029)
(0.138368 -0.0011871 0.00116418)
(0.138676 0.00118972 0.00114584)
(0.136567 0.000351382 -0.0001908)
(0.137005 -0.0019071 -0.000456884)
(0.137813 -0.000956753 -0.000272583)
(0.138436 -0.000295961 0.00168877)
(0.137996 0.0012315 0.00118145)
(0.136517 0.000157315 -0.000172225)
(0.137317 -0.00222129 2.78383e-05)
(0.137829 -0.000617564 -0.00013841)
(0.138562 0.000264102 0.0011264)
(0.137762 0.00156088 0.00179661)
(0.137728 3.07553e-05 0.000516487)
(0.13864 -0.00209416 0.000123448)
(0.138614 -0.00139483 -0.00147728)
(0.139152 -4.35688e-05 0.00138115)
(0.138377 0.00128042 0.001658)
(0.137415 0.000261561 -0.000366821)
(0.138252 -0.00251893 -0.00073658)
(0.138452 -0.00157877 -0.00120294)
(0.138956 -0.000508161 0.00108129)
(0.138269 0.00178316 0.0014223)
(0.137552 0.000772253 0.00025669)
(0.138417 -0.00206064 -0.000622003)
(0.138301 -0.000958021 -0.00199158)
(0.138513 -1.71842e-05 0.000844412)
(0.138208 0.0011562 0.00151907)
(0.137099 -2.35686e-05 0.000247792)
(0.138562 -0.00311159 -0.000410637)
(0.138953 -0.00122326 -0.00130782)
(0.138756 8.07264e-05 0.000741271)
(0.138285 0.00126452 0.00185408)
(0.137439 0.00047132 0.000208448)
(0.138542 -0.00229835 -0.000504107)
(0.138349 -0.00103373 -0.00164417)
(0.138967 -0.000272632 0.00132402)
(0.138344 0.00138435 0.00204904)
(0.136682 -0.000282249 -0.000109878)
(0.138999 -0.00361814 -0.000452369)
(0.138281 -0.000979539 -0.00111806)
(0.139155 -0.00125938 0.00104363)
(0.138887 0.00155141 0.00156824)
(0.136975 -2.04357e-05 0.000133999)
(0.138525 -0.00289359 -0.000739522)
(0.13879 -0.001308 -0.00100473)
(0.139106 -0.000134908 0.0018562)
(0.137959 0.00165893 0.00170128)
(0.136941 -0.000272149 0.000202769)
(0.139022 -0.00334175 -0.000108737)
(0.138871 -0.000839904 -0.000884567)
(0.138853 0.000768706 0.000150607)
(0.137829 0.00197594 0.00269034)
(0.139922 -0.000713566 0.00280853)
(0.141697 -0.00318895 0.00140667)
(0.139914 -0.00157065 -0.00248986)
(0.139739 0.000299228 0.000603218)
(0.138781 0.00162813 0.00212373)
(0.13956 -0.000494177 0.0016396)
(0.141215 -0.0038503 0.000238015)
(0.139549 -0.00194465 -0.00233604)
(0.13944 -0.000296813 0.000277132)
(0.138253 0.00231165 0.00178935)
(0.139545 0.000181379 0.00224762)
(0.141402 -0.00327862 0.000378781)
(0.139561 -0.00110822 -0.00297721)
(0.138859 0.000359825 1.28281e-05)
(0.138726 0.00144995 0.00212093)
(0.139166 -0.000792948 0.00235625)
(0.141585 -0.0044592 0.000666314)
(0.14001 -0.00133722 -0.00238599)
(0.138994 0.000418944 -0.00016809)
(0.138599 0.0015668 0.00244788)
(0.139264 -0.000165096 0.00215075)
(0.141675 -0.00353889 0.000572724)
(0.139921 -0.00123034 -0.00260336)
(0.139719 5.97137e-05 0.00064654)
(0.138596 0.00178307 0.00278601)
(0.138786 -0.00111721 0.00202018)
(0.14181 -0.00507742 0.000250706)
(0.138798 -0.00125145 -0.00261437)
(0.139684 -0.00130896 -0.00012708)
(0.139379 0.00186771 0.00191446)
(0.138867 -0.00081806 0.00216523)
(0.141202 -0.00422822 -2.25607e-05)
(0.139727 -0.00168671 -0.00226502)
(0.139615 0.000111006 0.00105241)
(0.138171 0.00207469 0.00226477)
(0.138716 -0.00116154 0.00230126)
(0.141603 -0.00482519 0.000819984)
(0.139811 -0.000957618 -0.00218838)
(0.137401 0.00111319 -0.00246999)
(0.138053 0.00188694 0.00388813)
(0.142583 -0.00194798 0.00771422)
(0.142691 -0.00420981 0.00412396)
(0.138376 -0.00151825 -0.00407301)
(0.138254 0.000404861 -0.00175254)
(0.139281 0.00146879 0.00255191)
(0.143033 -0.00174909 0.00634544)
(0.142487 -0.0050759 0.00281035)
(0.137742 -0.00210337 -0.00419836)
(0.138058 -0.000267283 -0.00215448)
(0.138188 0.00232177 0.00225548)
(0.142509 -0.000970923 0.00691987)
(0.142723 -0.00443965 0.00296416)
(0.138545 -0.000965282 -0.00426143)
(0.137529 0.000578099 -0.00226002)
(0.139538 0.00123329 0.00295206)
(0.142415 -0.00202063 0.00703896)
(0.14272 -0.00564274 0.00314429)
(0.138036 -0.00117772 -0.00433042)
(0.137603 0.000534246 -0.00254322)
(0.138657 0.00132766 0.00327026)
(0.141679 -0.00134399 0.0064605)
(0.143272 -0.00478339 0.00328652)
(0.139397 -0.00123261 -0.00388125)
(0.138703 0.000183493 -0.0014086)
(0.138922 0.00166997 0.00356242)
(0.142679 -0.00232076 0.00690422)
(0.142154 -0.00627634 0.00258365)
(0.136444 -0.0014368 -0.00494032)
(0.137513 -0.00172671 -0.00301981)
(0.139864 0.00164807 0.00229487)
(0.141815 -0.00201142 0.00685599)
(0.141956 -0.00543409 0.00220537)
(0.137464 -0.00190976 -0.00432185)
(0.137931 0.000125886 -0.00159888)
(0.138772 0.00207255 0.00297283)
(0.141376 -0.0024703 0.00705529)
(0.14144 -0.00608547 0.00314031)
(0.137626 -0.000773654 -0.00443013)
(0.133298 0.000780152 -0.00661688)
(0.136749 0.000820788 0.00590196)
(0.141555 -0.0032365 0.0138336)
(0.136719 -0.00438437 0.00535774)
(0.131783 -0.00112972 -0.00780596)
(0.133347 -0.000235335 -0.00578121)
(0.137847 0.000286338 0.00388902)
(0.14307 -0.0031149 0.0126939)
(0.136816 -0.00528936 0.00425734)
(0.130927 -0.00186253 -0.00818091)
(0.133641 -0.000861352 -0.00620287)
(0.136374 0.00129175 0.00391094)
(0.14214 -0.00231911 0.0133288)
(0.137315 -0.00465253 0.00452582)
(0.132674 -0.000428022 -0.00726187)
(0.133419 0.000137469 -0.00594867)
(0.138569 2.23429e-05 0.00473181)
(0.142382 -0.0033353 0.0131781)
(0.136941 -0.0057799 0.0043495)
(0.131032 -0.000686959 -0.00857359)
(0.133758 -6.10459e-05 -0.00611789)
(0.136201 0.000197173 0.00506908)
(0.140716 -0.00273739 0.012187)
(0.13782 -0.0051538 0.00513156)
(0.133557 -0.000905487 -0.00697788)
(0.134233 -0.000322576 -0.00493158)
(0.137515 0.000531843 0.00510689)
(0.143849 -0.00348893 0.0133382)
(0.135596 -0.00634797 0.00382427)
(0.130148 -0.00137914 -0.00930067)
(0.131614 -0.00269403 -0.00723166)
(0.138017 0.000418555 0.00395126)
(0.141296 -0.0031981 0.0131375)