# y+ ()       
# Time        	patch         	min           	max           	average       
32            	bottomWall	2.519500e+00	4.872928e+00	3.475654e+00
32            	topWall	2.242543e+00	4.650683e+00	3.537546e+00
