# y+ ()       
# Time        	patch         	min           	max           	average       
0             	bottomWall	1.181975e+00	3.434434e+00	2.122923e+00
0             	topWall	1.344405e+00	3.501431e+00	2.037434e+00
