/*--------------------------------*- C++ -*----------------------------------*\
  =========                 |
  \\      /  F ield         | OpenFOAM: The Open Source CFD Toolbox
   \\    /   O peration     | Website:  https://openfoam.org
    \\  /    A nd           | Version:  10
     \\/     M anipulation  |
\*---------------------------------------------------------------------------*/
FoamFile
{
    format      ascii;
    class       volScalarField;
    location    "65";
    object      p;
}
// * * * * * * * * * * * * * * * * * * * * * * * * * * * * * * * * * * * * * //

dimensions      [0 2 -2 0 0 0 0];

internalField   nonuniform List<scalar> 
102400
(
0.00473283
-0.00161313
0.00048948
0.0137332
0.000345828
-0.0104505
-0.00392499
0.000181655
-0.000252614
0.0039329
0.00768984
0.00395223
0.000868281
0.00142536
0.00260725
0.00353766
0.00451338
0.00418441
-0.000392837
-0.0018093
0.000217529
0.0015553
0.00190109
0.000594984
4.61917e-05
0.00384097
0.00728709
0.00514827
-0.00249851
-0.00540444
-0.00350777
-0.00354617
-0.00205824
0.00395561
0.0016827
0.000222888
0.00137544
3.5205e-05
0.000739983
0.00196153
0.00471427
-0.00161203
0.000444571
0.013978
0.000430909
-0.0105401
-0.00396968
0.000151217
-0.000259581
0.00395215
0.00773659
0.0039522
0.000828868
0.00139865
0.00261746
0.00353569
0.00452782
0.00422971
-0.000371037
-0.00179722
0.000229022
0.00156857
0.00190611
0.00057777
1.28763e-05
0.00383505
0.00730546
0.00515148
-0.00248922
-0.00538513
-0.003483
-0.00356821
-0.00212144
0.00398138
0.00174694
0.000201149
0.00134377
2.04801e-05
0.0007733
0.00191883
0.00425635
-0.00196765
0.000343327
0.0140713
7.10643e-05
-0.0110073
-0.0040445
0.000111892
-0.000282497
0.00400139
0.0077525
0.00396553
0.0008061
0.00136323
0.00265031
0.00352344
0.00456285
0.00431896
-0.000332621
-0.00182652
0.000164578
0.00151252
0.00187643
0.000570868
-5.52207e-05
0.00382973
0.00736152
0.00515712
-0.00250962
-0.00540156
-0.00347832
-0.00358355
-0.0022392
0.00394454
0.00178776
0.000257725
0.00132764
-1.07652e-05
0.000897996
0.00193727
0.00391543
-0.00317805
-0.000666803
0.0138541
-0.000575858
-0.0119655
-0.00411426
0.000118258
-0.000317985
0.00390396
0.00766838
0.00398574
0.000910481
0.00112932
0.00245429
0.0034413
0.00461925
0.00446043
-0.000278004
-0.0018965
3.35216e-05
0.00144649
0.00176256
0.000607684
-8.83893e-05
0.00384048
0.00745797
0.00518272
-0.00268876
-0.00549554
-0.00351921
-0.00361499
-0.00238629
0.00383632
0.00167954
0.000286602
0.00144036
-5.55522e-05
0.00108146
0.00191584
0.00379349
-0.00520305
-0.00289906
0.012915
-0.000717185
-0.0128783
-0.00409843
0.000268233
-0.00031587
0.0036844
0.00747003
0.00393915
0.00107815
0.000671896
0.00176337
0.00282066
0.0045425
0.00464051
-0.000188395
-0.00199884
-0.000173132
0.00146227
0.00176038
0.000510286
-6.55176e-05
0.00391722
0.00758173
0.00529834
-0.0028221
-0.00572513
-0.00361386
-0.00366683
-0.00260347
0.00367079
0.00151671
0.000246756
0.00168573
-0.000217949
0.00122951
0.00177706
0.00380324
-0.00738792
-0.00599279
0.0115941
-5.63425e-05
-0.0132088
-0.00399482
0.000518459
-0.000213849
0.00345697
0.00713305
0.00393294
0.00118471
0.000289597
0.000664441
0.00153109
0.0038917
0.00472156
-7.93808e-05
-0.00213349
-0.000453898
0.00146855
0.00189181
0.000363932
-2.55109e-05
0.00402644
0.00769242
0.00552734
-0.00285899
-0.00606549
-0.00374753
-0.00377031
-0.00292919
0.00348281
0.00138995
7.95498e-05
0.00201311
-0.000553423
0.00113258
0.00153937
0.00359922
-0.00868117
-0.00858232
0.0100813
0.00147537
-0.0122045
-0.00392515
0.000749847
-9.49467e-05
0.00322812
0.00674045
0.00398182
0.00106582
0.000312482
-0.000614489
-0.000275654
0.00245029
0.00456137
3.61728e-05
-0.00237078
-0.000837356
0.00135512
0.00197176
0.00015604
3.54446e-05
0.00420385
0.00761763
0.00563948
-0.00277736
-0.00624783
-0.00389944
-0.00391205
-0.00335867
0.00306058
0.00125487
-0.000191147
0.00218122
-0.00106938
0.000785554
0.00119932
0.00372288
-0.0083282
-0.0107818
0.00857542
0.00303254
-0.011067
-0.00392088
0.00091525
-0.000191411
0.0028195
0.00627021
0.00402849
0.000826868
0.000122602
-0.00220056
-0.00218966
0.000335387
0.00410265
0.000203181
-0.00269742
-0.00125775
0.00104856
0.00180538
-0.000320309
2.59795e-05
0.00459127
0.00761083
0.00566286
-0.00254841
-0.00625265
-0.00406936
-0.00405382
-0.00392277
0.00219677
0.000913583
-0.000561787
0.00204801
-0.00158265
6.11922e-05
0.00101668
0.00343965
-0.00653323
-0.0121065
0.00686456
0.00411402
-0.0100616
-0.00390569
0.000972398
-0.00036211
0.00225692
0.00550922
0.00394714
0.000494602
-0.000820807
-0.00363844
-0.00443455
-0.00222267
0.00336651
0.000406026
-0.00287047
-0.00144852
0.00069063
0.00139075
-0.00119592
-0.000280739
0.00510817
0.00777393
0.00572376
-0.00223325
-0.00601768
-0.00393435
-0.00431237
-0.00465508
0.000775966
0.000318424
-0.00159692
0.00175979
-0.0017143
-0.000959115
0.000855194
0.00289545
-0.00422199
-0.0117595
0.00508324
0.00461412
-0.00877883
-0.00363352
0.00113108
-0.000443665
0.00158013
0.0046524
0.00365206
9.9588e-05
-0.00227361
-0.004575
-0.00656436
-0.0042203
0.00222487
-0.000414726
-0.00302284
-0.00134507
0.000462682
0.00103427
-0.00262041
-0.00106069
0.00543685
0.00792608
0.00583024
-0.00182985
-0.00564236
-0.00402853
-0.00460362
-0.00531797
-0.00102978
-0.000477578
-0.00148061
0.00175919
-0.0013581
-0.00176884
0.000786348
0.0021518
-0.00224247
-0.00948163
0.00398588
0.00469413
-0.0070442
-0.00295337
0.00141823
-0.00039362
0.000872007
0.0038144
0.00355982
0.000126924
-0.00301114
-0.00420797
-0.00711307
-0.00432334
0.000619963
-0.0025136
-0.00362158
-0.00172882
5.97689e-05
0.000627235
-0.00304581
-0.00176523
0.00538523
0.00791812
0.00587135
-0.00141691
-0.00537048
-0.00455162
-0.00495062
-0.00624458
-0.00276915
-0.001555
-0.000967782
0.00183345
-0.000864583
-0.00183989
0.00096408
0.00136335
-0.00136894
-0.00664659
0.00331578
0.00461355
-0.00551122
-0.00195383
0.00159746
-0.000419995
0.00018415
0.00278883
0.00342048
0.00041834
-0.00363557
-0.00289018
-0.00482773
-0.00274823
-0.000885955
-0.00381609
-0.0028949
-0.00184356
-0.000492878
0.000210632
-0.00206336
-0.00161174
0.00499774
0.00755316
0.00564668
-0.00107054
-0.00531784
-0.00480509
-0.00485093
-0.00633218
-0.00430573
-0.00358606
-0.000362993
0.00179253
-0.00105603
-0.0016919
0.00127973
0.000629431
-0.00129282
-0.00468283
0.00336275
0.00453749
-0.00441189
-0.00141777
0.00128813
-0.000603714
-0.000576049
0.00169102
0.00323475
0.000712814
-0.00438512
-0.00219898
-0.00106355
-0.000866124
-0.00155532
-0.00321356
-0.00115292
-0.001278
-0.00107344
-6.38889e-05
-0.00145432
-0.000759059
0.00463347
0.00679839
0.00515736
-0.000651046
-0.00529325
-0.00528503
-0.00399575
-0.00564648
-0.00624021
-0.00593345
0.000387519
0.00205416
-0.00132666
-0.00202805
0.000920652
-0.000225013
-0.00391973
-0.003829
0.00330777
0.00434524
-0.00361544
-0.00160371
0.000248715
-0.000598186
-0.00142843
0.000822679
0.0030203
0.00108704
-0.0046543
-0.0019315
0.00258434
0.000908832
-0.00209212
-0.00268586
-0.000134316
-0.000484659
-0.00161814
-0.000286364
-0.00151388
3.68882e-05
0.00485871
0.00610257
0.00469347
-0.000660596
-0.00542691
-0.00594314
-0.00286002
-0.00493192
-0.00796765
-0.00665245
0.00135254
0.00265632
-0.00108164
-0.0028496
-0.000265022
-0.00123369
-0.00401499
-0.0033632
0.00320197
0.00382624
-0.00233421
-0.00376555
-0.00118504
-0.00117426
-0.00190434
-2.3964e-05
0.00274048
0.00165834
-0.00449742
-0.0018544
0.0051768
0.00187848
-0.00332445
-0.00270508
0.000727868
0.000420119
-0.00154392
-0.000429303
-0.00167457
-0.000885169
0.00394088
0.00522004
0.00411032
-0.000873209
-0.00546472
-0.00626393
-0.0020537
-0.00462563
-0.00823084
-0.00572179
0.00173909
0.00311223
-0.000389856
-0.0034683
-0.00200883
-0.00171715
-0.00323151
-0.00297582
0.00287612
0.00337996
-0.0013814
-0.00349581
-0.00253326
-0.00205562
-0.00103472
-0.000765129
0.00197252
0.00214912
-0.00356254
-0.00146265
0.00640324
0.00213002
-0.00517528
-0.00381104
0.0015883
0.00130248
-0.00089772
-0.000356125
-0.00166393
-0.000870691
0.00259727
0.00387623
0.00334861
-0.00113924
-0.00521675
-0.0063178
-0.00141778
-0.00439315
-0.00766987
-0.0046648
0.00165022
0.0031583
0.000167541
-0.00358072
-0.00345794
-0.00191867
-0.0022296
-0.00264935
0.00224282
0.0034085
-0.00059066
-0.00257044
-0.00293388
-0.00239789
0.000253039
-0.000193597
0.00125165
0.00252116
-0.0019289
-0.000930982
0.00746245
0.00212255
-0.0061155
-0.00455315
0.00273013
0.00227008
0.000191005
7.9884e-05
-0.00126072
-0.00150698
0.00120525
0.00292874
0.00368126
-0.00110593
-0.00473564
-0.00514554
-0.00112921
-0.00335902
-0.00650215
-0.00326927
0.00138246
0.00283281
0.000222003
-0.0031486
-0.00394566
-0.00220568
-0.00164957
-0.00250946
0.00116028
0.00327112
-0.000119145
-0.00184284
-0.00183541
-0.00166813
0.00176892
0.00109238
0.00102392
0.0026664
-0.000439039
-0.00045235
0.00629921
0.00215314
-0.00571569
-0.00471121
0.00293982
0.00292595
0.0010796
0.00207951
-0.000421528
-0.00181203
0.000182414
0.00176206
0.0032678
-0.000772375
-0.00352799
-0.00397627
-0.0011649
-0.00237391
-0.00485817
-0.00186493
0.00104514
0.00221906
0.000110303
-0.00283138
-0.00443575
-0.0023983
-0.00119026
-0.00201504
-0.00017789
0.00258488
-0.000189867
-0.00199871
-0.00108996
-0.000696356
0.0027282
0.00207479
0.000737606
0.0024661
-0.000100939
-0.000396617
0.00496053
0.00205756
-0.00525721
-0.00537041
0.00151223
0.00326682
0.001342
0.00255989
0.0010357
-0.00089313
-0.000495409
7.04272e-05
0.00144208
-0.000323221
-0.00177937
-0.00269686
-0.00101775
-0.00187512
-0.00369596
-0.00143239
0.000755504
0.00142489
0.00025516
-0.00231632
-0.00467061
-0.00279072
-0.00132708
-0.00195251
-0.000949961
0.00229687
-0.000371673
-0.0028857
-0.001095
-0.000142251
0.00254908
0.0027806
0.000266811
0.00185342
0.000743211
-7.37844e-05
0.00263902
0.00126635
-0.00426822
-0.00595085
-0.00117
0.00227179
0.00118316
0.00233357
0.00230511
0.000961639
-0.000641919
-0.0014931
-0.000794721
-0.000515782
-0.00157402
-0.00252123
-0.00120939
-0.00207869
-0.00363108
-0.00165035
0.00078345
0.00043743
-0.000477713
-0.0023211
-0.00494513
-0.0032728
-0.00114564
-0.00197484
-0.00190221
0.00134441
0.000743367
-0.00193478
-0.00256296
-0.000941415
0.00224098
0.00359453
0.0011053
0.00156139
0.00131764
0.000386347
0.00185297
0.00144245
-0.00299295
-0.00491795
-0.00295719
0.000307048
0.000774979
0.00224492
0.00268816
0.00154948
-0.000963065
-0.00240811
-0.00147424
-0.000735369
-0.00157383
-0.00323409
-0.00218052
-0.00223978
-0.00372103
-0.00287175
0.000229471
0.000625806
-0.00138354
-0.00360357
-0.00495805
-0.00425271
-0.00104231
-0.00105775
-0.00171843
-9.82601e-05
0.000748986
-0.00108589
0.000527138
-0.000921571
0.00183975
0.00433929
0.0030036
0.00224318
0.00125038
-0.000390428
0.00134781
0.000634491
-0.00175569
-0.00309029
-0.00292292
-0.000974819
0.000160164
0.00180074
0.00207885
0.000899521
-0.00119949
-0.00236079
-0.00161892
-0.000710583
-0.000893187
-0.00276397
-0.0027736
-0.00223758
-0.00348701
-0.00388831
7.35164e-06
0.00153713
-0.00106141
-0.00451704
-0.00602154
-0.00423734
-0.00135937
-0.00109333
-0.00111165
-0.000179018
0.000502473
0.000511184
-0.000415298
-0.00111546
0.00107367
0.00370714
0.00338316
0.0025417
0.00153037
-0.000160526
0.000535809
0.000326938
-0.00104705
-0.00154138
-0.00176679
-0.00205498
-0.00107937
0.000914567
0.000906682
-0.000384068
-0.00116505
-0.0013848
-0.00127125
-0.000547314
-0.000388061
-0.00224666
-0.00303196
-0.00218901
-0.00327007
-0.00510769
-0.00237397
0.0016961
0.000341631
-0.00362029
-0.00550805
-0.00340529
-0.00117795
-0.00111428
-0.00107537
0.000123534
0.000124182
0.000639204
0.00081523
-0.000465984
0.000287167
0.00301615
0.00331286
0.00234485
0.00127435
-0.000157585
-0.000226243
-9.45797e-05
-0.00117587
-0.00113552
-0.000608163
-0.00163603
-0.0016742
-0.000333779
-0.00036451
-0.00196885
-0.00128634
-0.00100514
-0.00105663
-0.000692854
-0.000369042
-0.0022121
-0.00346078
-0.00251831
-0.00249276
-0.00463081
-0.00340136
0.000681858
0.0009005
-0.00208277
-0.0038791
-0.00212339
-0.00107433
-0.000851122
-0.00109779
0.000101208
0.000213953
0.000267276
0.00102978
0.000504232
0.000454461
0.00255927
0.00287773
0.00104779
0.00048968
-0.000639993
-0.00112581
-0.000326271
-0.00078191
-0.000925539
7.4563e-06
-0.000914233
-0.00162971
-0.000326021
0.000945387
-0.000645536
-0.00133231
-0.000931517
-0.00121229
-0.00167218
-0.00140697
-0.00255795
-0.00368728
-0.00280601
-0.00191113
-0.00295721
-0.00272314
0.000262736
0.000828538
-0.00112701
-0.00205688
-0.000263047
-9.17208e-07
-0.000416544
-0.00125918
-0.000284362
0.000134481
9.34242e-05
0.0011351
0.00115681
0.000671312
0.00212899
0.00239212
0.000906196
0.000592843
-0.000330443
-0.00122619
-0.000355148
-0.000146424
-0.00055409
0.000640512
0.000348199
-0.00101473
-0.000982821
0.000789252
0.000987727
-0.000256173
-0.000438048
-0.000650644
-0.00138194
-0.00161101
-0.00252356
-0.00353306
-0.00292077
-0.00174677
-0.00163465
-0.0017475
5.38338e-05
0.000437894
-0.00113035
-0.000936884
-3.81142e-05
0.000440914
0.000355802
-0.000750852
-0.000156109
0.000601925
0.000501523
0.00108928
0.00110091
0.000806208
0.00223911
0.00289642
0.00120506
0.000798708
0.000222529
-0.000902435
-0.000626208
0.000312224
0.000286853
0.000386579
0.000519665
-6.24124e-05
-0.000509841
0.000275646
-3.45043e-05
-0.000752309
-0.000467032
-0.000554486
-0.000529525
-0.000852121
-0.00217059
-0.00319224
-0.00253087
-0.00138047
-0.000869634
-0.00127251
-0.00043001
0.000878882
0.000129729
-0.000401049
0.000468714
0.000809159
0.00119509
0.000231499
0.000105925
0.000530457
0.000583375
0.00106217
0.00109518
0.000622989
0.00176342
0.00303833
0.00255623
0.00137214
0.000213614
-0.000906141
-0.000590294
-1.28016e-05
-0.000243372
-0.000424859
-0.000128167
-0.000579382
-0.000365623
0.0010838
0.000833124
-0.000442523
-0.000174667
-0.00054083
-0.00142028
-0.00164767
-0.00269566
-0.00329424
-0.00233117
-0.00132467
-0.000425588
-0.000395273
-0.000455769
0.000321596
0.00048105
0.000510942
0.000313146
0.000543721
0.00158614
0.00132156
0.000814765
0.000642776
0.000796445
0.00105322
0.0010155
0.000873794
0.00148511
0.00208383
0.00167224
0.00156684
0.000915102
-0.000280057
-0.000838828
-0.000579613
-0.000797924
-0.00141655
-0.000651488
-0.000114695
-0.000140756
0.000931546
0.000938915
-0.000616702
-0.000354006
-0.000498926
-0.00155517
-0.00151833
-0.00216966
-0.00256866
-0.00180577
-0.00140753
-0.000735065
0.000137967
0.000180141
0.000432794
0.000834112
0.000861616
0.000816004
0.000607085
0.00130159
0.00159515
0.00115485
0.000412891
0.000635616
0.00109307
0.000713505
0.000710633
0.0011728
0.00163674
0.00148619
0.00111516
0.000742846
0.000374016
-0.000603911
-0.00110849
-0.000994465
-0.00151012
-0.000936663
-0.000287197
-0.000289178
0.000775861
0.000963659
-0.000584417
-0.000536112
-7.92758e-05
-0.00128156
-0.00159549
-0.00179203
-0.00228831
-0.00163874
-0.00129773
-0.00112996
0.000108564
0.000548571
0.00043223
0.00111817
0.00150752
0.000923524
0.000799765
0.00111284
0.00151922
0.00141075
0.000294057
0.000580854
0.00109572
0.000543152
0.000718698
0.000970413
0.00112331
0.0016618
0.00101059
0.000361173
0.000842581
-1.98101e-06
-0.00109166
-0.000772825
-0.000842962
-0.000751646
-0.000426484
-0.000181986
0.000606566
0.000943743
0.000214268
-0.000637106
0.000198889
-0.000689375
-0.00155265
-0.00106775
-0.00155146
-0.00136679
-0.00071143
-0.000893864
2.36073e-06
0.000787773
0.000425104
0.00111563
0.00164452
0.000968574
0.000986249
0.00100332
0.00108419
0.00119319
0.000201389
0.000290315
0.000877921
0.000482923
0.000647566
0.000771364
0.000724947
0.00146625
0.00097795
0.000209834
0.00109888
0.000503403
-0.000696585
-0.000297564
-8.91414e-05
-0.000351578
-0.000665258
-0.000243292
0.000355154
0.000453255
1.50102e-05
-0.000672723
0.000292937
0.00012762
-0.00116229
-0.000399554
-0.000551203
-0.00105553
-0.000204101
-0.000236526
0.000210514
0.00111562
0.000775336
0.00115016
0.00160599
0.00430326
-0.00762337
-0.00891922
-0.0100725
-0.00473693
0.00785743
0.00640151
-0.00015189
-0.00384904
-0.00153587
0.00475963
0.00713294
0.00501557
-0.000636179
-0.00380098
-0.00304726
-0.00323387
-0.00432353
-0.00496819
-0.00299817
0.0046451
0.0103746
0.00834316
0.00142339
0.000104965
0.00274557
0.00269625
-0.00219772
-0.00282817
-0.00332318
-0.00270396
-0.00208266
-3.08159e-06
0.00280092
0.000589515
0.00166795
0.00333533
-0.00114239
-0.00320859
0.00312451
0.00438243
-0.00767565
-0.00895234
-0.0102222
-0.00487287
0.00779461
0.0064443
-0.000123123
-0.00387297
-0.0015318
0.00481496
0.00718375
0.005071
-0.000609452
-0.00382819
-0.00307056
-0.00322012
-0.00430384
-0.00497814
-0.00302986
0.00462372
0.0103948
0.00836723
0.00140437
0.000104731
0.00275757
0.00271273
-0.00220226
-0.00284333
-0.00331665
-0.00268733
-0.0020866
-1.46518e-05
0.00283949
0.000602507
0.00165406
0.00333907
-0.00113738
-0.00323357
0.00321848
0.00422538
-0.0083209
-0.00925938
-0.0105005
-0.0051631
0.00782851
0.00655702
-0.000138396
-0.00401351
-0.00161356
0.0048549
0.00716146
0.00503157
-0.000673394
-0.0040104
-0.00319394
-0.00323341
-0.00429791
-0.00502553
-0.00310165
0.00459138
0.0104435
0.00840989
0.00137824
0.000119595
0.00278938
0.00274353
-0.00224995
-0.00289358
-0.00330376
-0.00267265
-0.00213544
-6.04715e-05
0.00288947
0.000584485
0.00161705
0.00335853
-0.00115501
-0.0032866
0.00328571
0.00430632
-0.00960939
-0.00999399
-0.0110058
-0.0060969
0.00781537
0.00708255
-0.000120028
-0.00428019
-0.00170748
0.00513752
0.00714803
0.00485366
-0.00087144
-0.0043915
-0.00347415
-0.00329776
-0.00431474
-0.00512793
-0.00321967
0.00454091
0.0105136
0.0084921
0.00135454
0.000157429
0.00283348
0.00281429
-0.00234935
-0.00299716
-0.00330313
-0.0026924
-0.00227633
-0.000190487
0.00294972
0.000486283
0.00154283
0.00338699
-0.00123199
-0.00339309
0.0036188
0.00496565
-0.0107999
-0.0111093
-0.0110163
-0.00700019
0.00772496
0.00778403
-5.85825e-05
-0.00469364
-0.00186746
0.00559784
0.00745554
0.00461464
-0.00117496
-0.00495425
-0.00395079
-0.00345923
-0.00435602
-0.0052917
-0.00338926
0.00446462
0.0106115
0.00861373
0.00140978
0.000240467
0.00286589
0.00285312
-0.00248435
-0.00314599
-0.00334764
-0.00279732
-0.00254535
-0.00045865
0.00288918
0.000282599
0.00149617
0.00338883
-0.00142853
-0.00399011
0.00345205
0.00526401
-0.0113935
-0.0121906
-0.0101142
-0.00592538
0.00791061
0.00815933
-4.7007e-05
-0.00531601
-0.00226095
0.0060045
0.00811192
0.00457533
-0.00132102
-0.00550805
-0.0046325
-0.00380074
-0.00446189
-0.0054864
-0.0036203
0.00435019
0.0107784
0.00883426
0.00150063
0.000377105
0.00286364
0.00276706
-0.00272481
-0.00324803
-0.00340372
-0.00301516
-0.00296639
-0.000652447
0.00271504
-0.000123982
0.00151488
0.00357548
-0.00173515
-0.00426553
0.00259104
0.0051353
-0.0112707
-0.0131901
-0.00878717
-0.00327513
0.0077141
0.0082639
-0.000165416
-0.00621957
-0.00285559
0.00633228
0.00890025
0.004789
-0.00112866
-0.00578748
-0.00533963
-0.00421104
-0.00460229
-0.00563743
-0.00385612
0.00422423
0.0109819
0.00917454
0.00156355
0.000514289
0.00281005
0.00258646
-0.0031319
-0.00311419
-0.00342899
-0.00333762
-0.00348502
-0.000954154
0.00260545
-0.000718777
0.00139792
0.00383181
-0.00188481
-0.00447719
0.00175012
0.00511911
-0.0104304
-0.0139024
-0.00785749
-0.00262805
0.00708827
0.00811563
-0.00040494
-0.00732528
-0.00361861
0.00653675
0.00978459
0.00518722
-0.000817897
-0.00562925
-0.00595042
-0.00437183
-0.00426834
-0.00543603
-0.00356797
0.00423223
0.0112191
0.00961116
0.00158396
0.000490904
0.00268823
0.00245171
-0.0035541
-0.00296359
-0.00339741
-0.00370942
-0.00396154
-0.0013231
0.00235794
-0.00130029
0.000743126
0.00370394
-0.00168294
-0.00456273
0.0015578
0.00521981
-0.00883051
-0.013576
-0.00727167
-0.00170463
0.00708227
0.00791657
-0.00064796
-0.00817195
-0.00434943
0.00653694
0.0107219
0.00574139
-0.000561578
-0.00522467
-0.00661962
-0.0040614
-0.00297738
-0.00452716
-0.00340265
0.0039747
0.0113519
0.0100363
0.00169585
0.000239459
0.00237197
0.00251012
-0.00361551
-0.00272567
-0.00335148
-0.00395433
-0.00419995
-0.00170031
0.00174633
-0.00173248
3.57996e-05
0.00334486
-0.00128112
-0.00424616
0.00174526
0.00535948
-0.00678628
-0.012655
-0.00691366
-0.000777418
0.00715016
0.00767156
-0.000769214
-0.00813913
-0.00456545
0.00619523
0.0115024
0.00644168
-0.000469674
-0.00487352
-0.00733238
-0.00368654
-0.00274527
-0.00521313
-0.0043569
0.00261291
0.0107142
0.0101262
0.00201815
-0.00012997
0.00178245
0.00263912
-0.00321678
-0.00219108
-0.00326769
-0.00400919
-0.00410178
-0.00206317
0.00072146
-0.00193429
0.00029791
0.00295556
-0.000879888
-0.00326802
0.00229936
0.00552052
-0.00497302
-0.0111648
-0.00640911
0.000259821
0.00734455
0.00749877
-0.00072289
-0.00725332
-0.00459014
0.00552828
0.0117718
0.00685608
-0.000581218
-0.00404503
-0.0075111
-0.00360469
-0.00420511
-0.00723606
-0.00622485
0.000461226
0.00919604
0.00968084
0.00239343
-0.00020901
0.00125018
0.00244581
-0.00270886
-0.001801
-0.0036271
-0.00411702
-0.00380831
-0.00231088
-0.000529671
-0.00205713
0.00155277
0.00252458
-0.00162592
-0.00232072
0.0036248
0.00499158
-0.00468306
-0.0101536
-0.0057529
0.000882093
0.00744686
0.00746982
-0.000568206
-0.00611168
-0.00466521
0.00439989
0.0116059
0.00717284
-0.000932833
-0.00311378
-0.0065652
-0.00409549
-0.00570355
-0.0072234
-0.00620246
-0.00112257
0.00754052
0.00888806
0.00255623
-8.72745e-05
0.000899728
0.0021
-0.00237639
-0.00172841
-0.00416789
-0.00414802
-0.00338809
-0.00224536
-0.00168722
-0.00282127
0.00265004
0.00210042
-0.00299972
-0.00207832
0.00574498
0.00425889
-0.00499413
-0.00974516
-0.005229
0.00104183
0.0070281
0.00689173
-0.000798267
-0.00487761
-0.00417988
0.00308131
0.0108542
0.00749151
-0.00131632
-0.00313842
-0.00529264
-0.00495173
-0.00617089
-0.00520575
-0.00395032
-0.00147633
0.0058082
0.00792527
0.00240956
0.000177168
0.000790102
0.00170292
-0.00197243
-0.00177626
-0.00473287
-0.00379849
-0.0028715
-0.0018794
-0.00260406
-0.00341489
0.00298765
0.00260674
-0.00338877
-0.00252828
0.00691979
0.00490739
-0.00407213
-0.00888395
-0.00492973
0.00106433
0.00596952
0.00568562
-0.000762405
-0.00351333
-0.00279888
0.00212506
0.0107472
0.00825061
-0.00164408
-0.0033479
-0.00327842
-0.00535818
-0.00685551
-0.00399472
-0.00162652
-0.00105797
0.00417184
0.00703727
0.00253523
0.000580685
0.000880383
0.00134785
-0.00169272
-0.001993
-0.00526294
-0.002984
-0.00266349
-0.00156322
-0.0030765
-0.00332843
0.00207822
0.00228141
-0.00327917
-0.00311264
0.00637914
0.00521131
-0.00242584
-0.0074835
-0.00489623
0.000818524
0.00427722
0.00449261
-0.000835083
-0.00283852
-0.00143816
0.00146947
0.0099857
0.00875116
-0.00195074
-0.00307531
-0.000837449
-0.00549263
-0.00733599
-0.00311296
0.00017797
-0.000365816
0.00233477
0.00591833
0.00293974
0.000919553
0.000816686
0.00115639
-0.00142239
-0.00216619
-0.00544376
-0.00299303
-0.00297509
-0.00167355
-0.00350486
-0.0031523
0.00111379
0.00166705
-0.0033522
-0.00372474
0.00449758
0.00410403
-0.00108284
-0.00617268
-0.00509203
0.000299535
0.00375601
0.00355034
-0.00103514
-0.00223097
-0.00101682
0.000144612
0.00802899
0.00858962
-0.00161794
-0.00491717
-0.000266401
-0.00575927
-0.00803322
-0.00305988
0.000949773
0.000121121
0.00141244
0.00486719
0.0028744
0.000220879
-6.1143e-05
0.000716016
-0.000966787
-0.00230955
-0.00526151
-0.00419517
-0.00405945
-0.00248162
-0.00444138
-0.00340848
0.000493822
0.00136975
-0.00277727
-0.0039162
0.00188888
0.00267596
-3.03558e-05
-0.00459094
-0.00447623
0.000152585
0.00362284
0.00370597
-0.000448556
-0.00150425
0.000603892
-0.000400843
0.00456686
0.00705877
-0.000410108
-0.00235782
9.25682e-05
-0.00429649
-0.00775086
-0.00397462
0.000565811
-0.000205848
0.000774293
0.00425761
0.00258152
-0.000334497
-0.000752855
0.000366665
-0.000367563
-0.00250167
-0.00512611
-0.00689158
-0.00487853
-0.00281038
-0.00499925
-0.00385224
1.7225e-05
0.00156915
-0.00208483
-0.0039426
1.42517e-05
0.00150115
0.000669293
-0.00273113
-0.00310624
0.00116121
0.00401732
0.0039695
0.000219912
-0.00110495
0.00230999
0.000507031
0.00208812
0.00565833
0.000640916
-0.00185992
7.70152e-05
-0.00289971
-0.00678685
-0.00395523
5.42823e-05
-0.000560757
9.13812e-05
0.00296555
0.0030629
3.72495e-05
-0.00056096
2.38533e-05
-8.15302e-05
-0.00205327
-0.00483435
-0.00721892
-0.00430271
-0.00215501
-0.00455349
-0.00330928
-0.000162499
0.00163018
-0.00149228
-0.0039026
-0.00135955
0.000190907
0.00068351
-0.00132672
-0.00186683
0.0014605
0.00350151
0.00322827
9.44571e-06
-0.00146713
0.00205876
0.00138192
0.00112425
0.00387375
0.000845362
-0.00127833
2.14621e-05
-0.00192303
-0.00542514
-0.00401226
0.000516991
-0.000436706
-0.00024415
0.00278349
0.00305397
-0.000183684
-0.000967633
-0.000803881
-0.000883804
-0.00165322
-0.00356673
-0.00542865
-0.00337263
-0.00147027
-0.00392274
-0.00249551
-3.0577e-05
0.000900865
-0.00129142
-0.00374237
-0.00261777
-0.00101729
0.000396086
-0.00108363
-0.00170162
0.00135604
0.00339102
0.00355323
-0.000128859
-0.00174997
0.00124928
0.00131575
0.00107568
0.00256848
0.00074785
-0.000797374
-0.000153405
-0.0020125
-0.00387014
-0.00361063
-7.0786e-05
-0.000339224
0.000413333
0.00297973
0.00301973
-0.000111748
-0.000870775
-0.000572301
-0.000873115
-0.00182747
-0.00293881
-0.00377912
-0.0025971
-0.00196687
-0.00376243
-0.00218897
0.000697309
0.000342124
-0.0021168
-0.00463459
-0.00403578
-0.00203189
0.000478708
-0.000769578
-0.00200772
0.000314645
0.00457747
0.00387158
0.00039077
-0.00186198
0.00069701
0.00158518
0.00154671
0.00205646
0.00157987
-0.00059605
-0.000238691
-0.00177303
-0.00305306
-0.00300306
-0.000403291
-0.000172683
-0.000927736
0.00219681
0.00321137
0.000798841
-0.000968706
-0.00071899
-0.000468208
-0.00103756
-0.00237109
-0.00329297
-0.00260023
-0.00192018
-0.00377229
-0.00339942
0.000354887
0.000471037
-0.00294435
-0.00588497
-0.00541865
-0.00328156
2.66217e-05
-0.000574645
-0.0018173
-0.000520146
0.00238415
0.00294084
0.00106696
-0.00134512
0.00057366
0.00196584
0.00220669
0.00240811
0.000597545
-0.00101621
-0.000665779
-0.00119507
-0.00216574
-0.00207103
-0.00115223
-0.000815064
-0.000780418
0.00175309
0.00281816
0.000778606
-0.00103629
-0.000866306
-0.000382245
-0.000849785
-0.00191274
-0.00327371
-0.00288545
-0.00170291
-0.00334128
-0.00485484
-0.0011289
0.00126574
-0.00219188
-0.00624749
-0.00665714
-0.00350941
-0.000708471
-0.000582455
-0.00116068
-0.000398562
0.000607554
0.00189011
0.00139312
-0.000639096
0.000629316
0.00263566
0.00264961
0.00241361
0.00125073
-0.000889437
-0.000788985
-0.000563692
-0.00150314
-0.00131849
-0.00111199
-0.00143578
-0.00125896
0.00101782
0.00234866
0.00078061
-0.00092566
-0.000979088
-0.0010019
-0.000721688
-0.00114402
-0.00308821
-0.00355151
-0.0019495
-0.00238816
-0.00467275
-0.00256869
0.00131172
-0.000760439
-0.00489834
-0.00594695
-0.00290405
-0.00146111
-0.00138336
-0.00116649
0.000238139
0.000567972
0.00140131
0.00167959
-0.000145607
5.8284e-05
0.0025096
0.00300065
0.00238199
0.000983196
-0.00118685
-0.00128563
-0.000351046
-0.000981442
-0.000910608
-0.000410619
-0.000949561
-0.00124296
0.000406253
0.00171885
0.000185512
-0.00116387
-0.00052054
-0.00100916
-0.00165055
-0.00205766
-0.00367342
-0.00396005
-0.00181841
-0.00121876
-0.00338277
-0.00342612
-0.000260925
-0.000619369
-0.00336558
-0.00404822
-0.00163183
-0.00105154
-0.00165928
-0.00128157
0.000477236
0.000740725
0.00075541
0.0018255
0.000844155
0.000561019
0.00246207
0.00296546
0.0017188
0.000465556
-0.00156205
-0.00214077
-0.000412996
-0.000224803
-0.000810729
-3.46746e-05
-0.000370396
-0.00096048
-9.87996e-06
0.00119314
0.000206513
-0.00116011
-0.00107803
-0.00136953
-0.00217509
-0.00256594
-0.00378803
-0.00425297
-0.0024592
-0.00106812
-0.00213415
-0.00296346
-0.00129027
-0.00128786
-0.00291691
-0.00256077
-0.000982825
-0.000401788
-0.0011334
-0.00157128
0.000211138
0.000878021
0.000588921
0.001279
0.00106414
0.000724662
0.00235614
0.00312356
0.00182044
0.000676657
-0.0012723
-0.00166532
-3.89044e-05
0.000648828
7.93232e-05
3.61482e-05
0.000108317
-0.000250258
-0.000484126
0.000345704
0.000111652
-0.000890707
-0.000980541
-0.00140262
-0.00220228
-0.00268618
-0.00369835
-0.00423478
-0.00304068
-0.00154188
-0.00127818
-0.00150205
-0.00106286
-0.00131833
-0.0030753
-0.0023629
-0.000552436
0.000540065
0.000430597
-0.000923864
3.7703e-05
0.000991341
0.000801426
0.0014098
0.00159244
0.000903267
0.00218153
0.00281301
0.00174595
0.00202719
0.000303023
-0.00133112
-0.000907838
0.000115519
0.000146917
1.44096e-05
-0.000117123
-5.54313e-05
0.00025007
0.000353421
-0.000420418
-0.00115946
-0.000981521
-0.00122991
-0.00257319
-0.00255276
-0.00351735
-0.0040349
-0.00291005
-0.00149332
-0.000929256
-0.00116745
-0.000753022
0.000185389
-0.000803733
-0.0012058
0.000321861
0.000780249
0.00150484
0.000539961
0.000411515
0.000858656
0.000768675
0.00115757
0.00111051
0.000678535
0.00153979
0.00246778
0.00176364
0.000885589
0.000471182
-0.00092915
-0.000839124
-0.000355699
-0.0005971
-0.000580123
-0.000200749
-0.0003908
3.51617e-06
0.00127133
0.000942942
-0.000450208
-0.000422044
-0.000957892
-0.00245789
-0.0030148
-0.00382168
-0.00384992
-0.00231446
-0.00109697
-0.000254726
-0.000216156
-0.000590097
-0.000203526
1.06424e-05
0.000346459
0.000343337
0.000552988
0.00151933
0.00143506
0.00109445
0.0008385
0.000666762
0.00120042
0.00110611
0.000935286
0.00152
0.00184458
0.00127581
0.00124168
0.000941022
-0.000194271
-0.000881192
-0.000866804
-0.000998978
-0.00107735
-0.000267406
0.000189836
0.000190412
0.00113441
0.00112759
-0.000546911
-0.000651772
-0.000850715
-0.00198514
-0.00222614
-0.00273011
-0.00278783
-0.00166377
-0.00116669
-0.000742723
0.000116508
7.30332e-05
0.000174506
0.000490149
0.000643823
0.000835873
0.000655534
0.0012067
0.00164746
0.00135725
0.000572908
0.000774095
0.00123195
0.000793885
0.000783357
0.00132997
0.00166847
0.00140072
0.000987826
0.000784243
0.000488087
-0.000432931
-0.00106106
-0.00100588
-0.00137976
-0.000578065
-1.80379e-05
-5.79222e-05
0.00110195
0.00141746
-0.000308378
-0.000772516
-0.000550726
-0.00155949
-0.00189724
-0.00219785
-0.00245179
-0.00159358
-0.00105413
-0.000913414
0.000290425
0.000637575
0.000373077
0.000925304
0.00124937
0.000900422
0.000795082
0.000944539
0.00150277
0.00154467
0.000460342
0.000741806
0.00125435
0.000679552
0.000763618
0.00105465
0.00115997
0.0014878
0.00106291
0.000466013
0.000882498
3.92176e-05
-0.00105267
-0.00079047
-0.000772397
-0.000466395