/*--------------------------------*- C++ -*----------------------------------*\
  =========                 |
  \\      /  F ield         | OpenFOAM: The Open Source CFD Toolbox
   \\    /   O peration     | Website:  https://openfoam.org
    \\  /    A nd           | Version:  10
     \\/     M anipulation  |
\*---------------------------------------------------------------------------*/
FoamFile
{
    format      ascii;
    class       volScalarField;
    location    "27.5";
    object      pMean;
}
// * * * * * * * * * * * * * * * * * * * * * * * * * * * * * * * * * * * * * //

dimensions      [0 2 -2 0 0 0 0];

internalField   nonuniform List<scalar> 
25600
(
-3.26882e-07
-3.07404e-07
-2.8666e-07
-2.52272e-07
-2.46895e-07
-2.11208e-07
-2.21503e-07
-2.12734e-07
-2.05149e-07
-1.93826e-07
-2.0324e-07
-2.03143e-07
-1.48631e-07
-2.16109e-07
-1.61671e-07
-1.68779e-07
-1.27611e-07
-1.80589e-07
-1.2521e-07
-1.14483e-07
-2.09239e-07
-1.01761e-07
-1.31382e-07
-2.13872e-07
-9.95396e-08
-1.60732e-07
-2.01982e-07
-1.6998e-07
-2.23099e-07
-2.56715e-07
-2.50996e-07
-2.84319e-07
-2.70076e-07
-2.84476e-07
-3.48529e-07
-2.62676e-07
-3.31033e-07
-3.32711e-07
-3.33621e-07
-3.25425e-07
-3.52024e-07
-3.40982e-07
-2.82247e-07
-3.05859e-07
-2.47467e-07
-2.91451e-07
-2.17547e-07
-2.85251e-07
-2.30734e-07
-1.9856e-07
-2.77556e-07
-1.71098e-07
-1.91914e-07
-2.05586e-07
-1.51243e-07
-1.72487e-07
-1.01575e-07
-1.81341e-07
-6.44612e-08
-1.27238e-07
-1.51507e-07
-7.84293e-08
-1.37106e-07
-1.23788e-07
-1.22753e-07
-1.18932e-07
-1.78885e-07
-1.38394e-07
-2.14656e-07
-2.35903e-07
-2.31867e-07
-3.22801e-07
-2.20266e-07
-3.28955e-07
-3.67328e-07
-2.66586e-07
-3.85251e-07
-3.20478e-07
-4.08517e-07
-3.16643e-07
-3.69427e-07
-3.60418e-07
-2.87924e-07
-3.3842e-07
-2.67738e-07
-3.37798e-07
-2.26972e-07
-3.43064e-07
-2.54314e-07
-2.28355e-07
-3.41808e-07
-1.58768e-07
-2.39615e-07
-1.90821e-07
-1.39594e-07
-1.70623e-07
-8.00269e-08
-1.57524e-07
-3.20268e-08
-1.25822e-07
-9.1127e-08
-6.30756e-08
-1.14341e-07
-4.6581e-08
-1.26607e-07
-8.40984e-08
-1.45447e-07
-1.09164e-07
-2.02234e-07
-2.08913e-07
-2.30816e-07
-3.44726e-07
-2.0384e-07
-3.85539e-07
-3.68393e-07
-3.19211e-07
-4.15157e-07
-3.22886e-07
-4.66094e-07
-3.04412e-07
-3.75469e-07
-3.66198e-07
-2.9802e-07
-3.46603e-07
-3.06272e-07
-3.6205e-07
-2.6543e-07
-3.98702e-07
-2.8617e-07
-2.81482e-07
-3.86228e-07
-1.64866e-07
-2.78017e-07
-1.79251e-07
-1.33944e-07
-1.70365e-07
-6.70969e-08
-1.18826e-07
-1.29315e-08
-1.00832e-07
-2.99719e-08
-4.98465e-08
-7.47898e-08
5.50452e-09
-1.08158e-07
-5.75503e-08
-1.05793e-07
-8.42803e-08
-1.86478e-07
-1.87334e-07
-2.47509e-07
-3.41433e-07
-2.30713e-07
-4.16718e-07
-3.73547e-07
-3.94703e-07
-4.26277e-07
-3.58088e-07
-4.9989e-07
-3.13618e-07
-3.9089e-07
-3.80839e-07
-3.22666e-07
-3.55324e-07
-3.64261e-07
-3.81979e-07
-3.3169e-07
-4.47664e-07
-3.22564e-07
-3.40561e-07
-4.11871e-07
-1.86809e-07
-3.03154e-07
-1.71502e-07
-1.34868e-07
-1.6655e-07
-5.61286e-08
-6.81486e-08
1.15903e-08
-5.19032e-08
3.51892e-08
-2.52416e-08
-2.34468e-08
4.40469e-08
-7.66541e-08
-3.60125e-08
-6.40554e-08
-6.33885e-08
-1.57988e-07
-1.74359e-07
-2.54065e-07
-3.2521e-07
-2.72242e-07
-4.17365e-07
-3.83645e-07
-4.6234e-07
-4.31454e-07
-4.15137e-07
-5.25389e-07
-3.5183e-07
-3.94694e-07
-4.00827e-07
-3.4958e-07
-3.78281e-07
-4.30056e-07
-4.12415e-07
-4.11793e-07
-4.90109e-07
-3.61018e-07
-3.93327e-07
-4.25548e-07
-2.21931e-07
-3.1767e-07
-1.70659e-07
-1.291e-07
-1.51725e-07
-4.35388e-08
-1.56518e-08
1.94947e-08
-1.2124e-08
7.34658e-08
-2.62572e-09
2.19077e-08
8.28178e-08
-3.14285e-08
7.87436e-09
-7.81034e-09
-1.7879e-08
-1.11701e-07
-1.56704e-07
-2.48917e-07
-3.13012e-07
-3.30395e-07
-4.26829e-07
-4.17422e-07
-5.38703e-07
-4.46902e-07
-4.83851e-07
-5.33247e-07
-3.9347e-07
-3.92892e-07
-4.13294e-07
-3.64102e-07
-4.00455e-07
-4.81272e-07
-4.44088e-07
-4.81229e-07
-5.23681e-07
-3.99753e-07
-4.42153e-07
-4.28199e-07
-2.58522e-07
-3.11697e-07
-1.74046e-07
-1.14385e-07
-1.41117e-07
-2.90511e-08
2.21337e-08
2.32301e-08
1.70151e-08
9.58384e-08
1.762e-08
6.0094e-08
1.18511e-07
1.98473e-08
6.79896e-08
5.32209e-08
4.68666e-08
-5.84705e-08
-1.32497e-07
-2.42358e-07
-3.01538e-07
-3.93518e-07
-4.3332e-07
-4.7679e-07
-6.22059e-07
-4.91999e-07
-5.69321e-07
-5.49457e-07
-4.44677e-07
-4.02552e-07
-4.31656e-07
-3.89154e-07
-4.36836e-07
-5.38097e-07
-4.88028e-07
-5.52192e-07
-5.50221e-07
-4.33909e-07
-4.71147e-07
-4.23082e-07
-2.81851e-07
-2.85865e-07
-1.76905e-07
-1.11399e-07
-1.57139e-07
-3.71291e-08
3.64673e-08
3.82612e-08
5.47054e-08
1.33453e-07
5.16969e-08
1.15426e-07
1.60802e-07
9.06116e-08
1.39137e-07
1.28549e-07
1.1939e-07
6.64814e-09
-1.08807e-07
-2.31591e-07
-3.03413e-07
-4.64208e-07
-4.57232e-07
-5.62021e-07
-6.9949e-07
-5.5457e-07
-6.4916e-07
-5.73589e-07
-4.96563e-07
-4.11505e-07
-4.53811e-07
-4.15997e-07
-4.75099e-07
-5.82084e-07
-5.33473e-07
-6.18257e-07
-5.78426e-07
-4.7705e-07
-4.91138e-07
-4.16354e-07
-2.97154e-07
-2.63791e-07
-1.93052e-07
-1.25426e-07
-1.81874e-07
-5.08614e-08
4.44119e-08
5.13217e-08
8.84933e-08
1.67435e-07
9.36382e-08
1.80593e-07
2.12787e-07
1.82824e-07
2.24416e-07
2.2471e-07
2.0194e-07
7.96895e-08
-8.8043e-08
-2.06203e-07
-3.12346e-07
-5.22478e-07
-4.99595e-07
-6.54015e-07
-7.80403e-07
-6.30056e-07
-7.28026e-07
-5.96866e-07
-5.39271e-07
-4.12435e-07
-4.67772e-07
-4.24464e-07
-5.13671e-07
-6.20381e-07
-5.90827e-07
-6.84432e-07
-6.17828e-07
-5.24205e-07
-5.11395e-07
-4.18359e-07
-3.24417e-07
-2.56304e-07
-2.18626e-07
-1.33553e-07
-1.9143e-07
-4.80335e-08
5.46122e-08
6.25299e-08
1.16368e-07
2.00667e-07
1.55843e-07
2.56913e-07
2.75039e-07
2.90544e-07
3.19098e-07
3.26488e-07
2.82842e-07
1.4897e-07
-6.2883e-08
-1.70238e-07
-3.17118e-07
-5.60527e-07
-5.50212e-07
-7.54204e-07
-8.69844e-07
-7.19842e-07
-8.18223e-07
-6.31413e-07
-5.84453e-07
-4.08384e-07
-4.76078e-07
-4.25811e-07
-5.50076e-07
-6.38556e-07
-6.30124e-07
-7.16656e-07
-6.50649e-07
-5.61214e-07
-5.27855e-07
-4.29046e-07
-3.81224e-07
-2.817e-07
-2.71314e-07
-1.50006e-07
-2.09505e-07
-4.34263e-08
5.51224e-08
7.5171e-08
1.4185e-07
2.41344e-07
2.34269e-07
3.51648e-07
3.5327e-07
4.17652e-07
4.25717e-07
4.36862e-07
3.6872e-07
2.24451e-07
-3.26546e-08
-1.19572e-07
-3.15061e-07
-5.83779e-07
-5.9774e-07
-8.34086e-07
-9.34702e-07
-8.04907e-07
-9.10251e-07
-6.77318e-07
-6.25511e-07
-3.96599e-07
-4.78102e-07
-4.08071e-07
-5.5808e-07
-6.36045e-07
-6.70482e-07
-7.3315e-07
-6.7747e-07
-5.85678e-07
-5.52367e-07
-4.58465e-07
-4.53964e-07
-3.26458e-07
-3.40222e-07
-1.67835e-07
-2.18748e-07
-1.64902e-08
6.22482e-08
9.32072e-08
1.54115e-07
2.77754e-07
3.18042e-07
4.38334e-07
4.01165e-07
5.2586e-07
5.29019e-07
5.78857e-07
4.86716e-07
3.29355e-07
7.64455e-09
-6.78347e-08
-3.17929e-07
-5.7917e-07
-6.24119e-07
-8.86513e-07
-9.88492e-07
-8.81447e-07
-1.00041e-06
-7.2195e-07
-6.58003e-07
-3.61852e-07
-4.67538e-07
-3.84839e-07
-5.56271e-07
-5.96913e-07
-6.74524e-07
-7.23551e-07
-7.08864e-07
-6.16774e-07
-5.9797e-07
-5.02706e-07
-5.48516e-07
-3.9882e-07
-4.39841e-07
-2.06506e-07
-2.35428e-07
2.47734e-08
6.65046e-08
1.16953e-07
1.68748e-07
3.18822e-07
4.07858e-07
5.39607e-07
4.5498e-07
6.40476e-07
6.41928e-07
7.48985e-07
6.23311e-07
4.60731e-07
6.81223e-08
1.28173e-08
-2.96596e-07
-5.44764e-07
-6.5021e-07
-9.16508e-07
-1.02147e-06
-9.44615e-07
-1.08138e-06
-7.46436e-07
-6.65672e-07
-2.88441e-07
-4.3191e-07
-3.48208e-07
-5.64721e-07
-5.43781e-07
-6.59507e-07
-6.87894e-07
-7.55354e-07
-6.68568e-07
-6.70043e-07
-5.69218e-07
-6.8866e-07
-5.01949e-07
-5.4137e-07
-2.38506e-07
-2.54008e-07
7.32497e-08
6.52092e-08
1.37833e-07
1.6858e-07
3.5576e-07
4.85941e-07
6.04787e-07
4.63839e-07
7.38436e-07
7.68597e-07
9.68067e-07
7.84465e-07
5.86356e-07
1.20007e-07
1.20618e-07
-2.36771e-07
-4.70207e-07
-6.74422e-07
-9.34026e-07
-1.05471e-06
-9.99794e-07
-1.16648e-06
-7.70671e-07
-6.5936e-07
-1.65375e-07
-3.82942e-07
-3.33842e-07
-5.96977e-07
-4.60822e-07
-6.18526e-07
-6.58515e-07
-8.36953e-07
-7.54807e-07
-8.10557e-07
-7.20721e-07
-9.14382e-07
-6.66184e-07
-6.65579e-07
-2.66545e-07
-2.79909e-07
1.09784e-07
1.90422e-08
9.84325e-08
1.33739e-07
3.7563e-07
5.36068e-07
6.0825e-07
3.86164e-07
7.79958e-07
8.99103e-07
1.22696e-06
9.3585e-07
6.74599e-07
1.47157e-07
2.22054e-07
-1.59725e-07
-3.74022e-07
-6.96643e-07
-9.3541e-07
-1.08135e-06
-1.07264e-06
-1.28912e-06
-8.23079e-07
-6.25085e-07
-9.83825e-08
-4.47739e-07
-4.31952e-07
-7.00362e-07
-3.80096e-07
-6.05991e-07
-7.13164e-07
-1.08367e-06
-1.00806e-06
-1.08149e-06
-1.01927e-06
-1.32822e-06
-9.82487e-07
-8.72774e-07
-2.83237e-07
-3.42468e-07
7.45094e-08
-1.77655e-07
-9.64113e-08
-2.02821e-08
2.96951e-07
4.50119e-07
4.55783e-07
1.50447e-07
7.18923e-07
9.6482e-07
1.44081e-06
9.80383e-07
6.41651e-07
1.094e-07
2.93224e-07
-1.11952e-07
-3.55433e-07
-8.23584e-07
-9.69655e-07
-1.09505e-06
-1.22316e-06
-1.54276e-06
-9.78909e-07
-6.56012e-07
-2.89506e-07
-8.59326e-07
-8.8434e-07
-1.05019e-06
-4.09405e-07
-8.3565e-07
-1.13649e-06
-1.65867e-06
-1.52458e-06
-1.60434e-06
-1.64137e-06
-2.11513e-06
-1.61053e-06
-1.30458e-06
-4.27266e-07
-5.65894e-07
-2.06824e-07
-6.59587e-07
-5.6296e-07
-4.22165e-07
-2.1971e-08
6.55517e-08
-8.87768e-08
-4.02923e-07
4.94138e-07
8.92151e-07
1.44173e-06
6.82176e-07
3.0415e-07
-1.37348e-07
2.10489e-07
-2.75061e-07
-5.87911e-07
-1.17475e-06
-1.18738e-06
-1.24501e-06
-1.61579e-06
-2.06809e-06
-1.36985e-06
-8.43454e-07
-1.0127e-06
-1.92596e-06
-1.96812e-06
-1.87689e-06
-8.99196e-07
-1.59478e-06
-2.27974e-06
-2.93478e-06
-2.66624e-06
-2.7574e-06
-2.95639e-06
-3.61585e-06
-2.90513e-06
-2.25852e-06
-1.01071e-06
-1.3848e-06
-1.04712e-06
-1.73641e-06
-1.60952e-06
-1.36981e-06
-1.03053e-06
-1.14209e-06
-1.45357e-06
-1.65439e-06
-2.17991e-07
2.88901e-07
8.84703e-07
-2.79274e-07
-5.49649e-07
-7.83898e-07
-2.9774e-07
-9.83813e-07
-1.42694e-06
-2.06547e-06
-1.8943e-06
-1.87412e-06
-2.60842e-06
-3.16224e-06
-2.24309e-06
-1.47092e-06
-2.74979e-06
-3.98829e-06
-4.05888e-06
-3.50598e-06
-2.16099e-06
-3.49556e-06
-4.51291e-06
-5.16637e-06
-4.73174e-06
-4.78876e-06
-5.3571e-06
-6.13848e-06
-5.04987e-06
-3.9357e-06
-2.29494e-06
-3.08867e-06
-2.81374e-06
-3.80184e-06
-3.48236e-06
-3.06695e-06
-2.96806e-06
-3.50782e-06
-3.95196e-06
-3.8916e-06
-1.783e-06
-1.14673e-06
-7.20841e-07
-2.4192e-06
-2.24502e-06
-2.13835e-06
-1.65791e-06
-2.73209e-06
-3.20555e-06
-3.81767e-06
-3.3519e-06
-3.44779e-06
-4.638e-06
-5.1548e-06
-3.95713e-06
-2.84377e-06
-5.37062e-06
-7.19865e-06
-7.19376e-06
-5.7648e-06
-4.07238e-06
-6.50146e-06
-7.74284e-06
-8.41163e-06
-7.82312e-06
-7.85304e-06
-9.07953e-06
-9.83032e-06
-8.14775e-06
-6.32715e-06
-4.17845e-06
-5.66208e-06
-5.55187e-06
-6.81766e-06
-6.21585e-06
-5.61601e-06
-5.88388e-06
-6.93843e-06
-7.64217e-06
-6.91612e-06
-4.07811e-06
-3.42349e-06
-3.0681e-06
-5.32985e-06
-4.46743e-06
-4.04328e-06
-3.77743e-06
-5.50439e-06
-5.94758e-06
-6.21736e-06
-5.2227e-06
-5.81851e-06
-7.7012e-06
-7.95843e-06
-6.41704e-06
-4.81238e-06
-8.761e-06
-1.07044e-05
-1.07525e-05
-8.37315e-06
-6.4143e-06
-9.91112e-06
-1.14596e-05
-1.21941e-05
-1.12134e-05
-1.14382e-05
-1.36097e-05
-1.42525e-05
-1.19886e-05
-9.1037e-06
-6.32846e-06
-8.5426e-06
-8.83946e-06
-1.05678e-05
-9.08908e-06
-8.52692e-06
-9.4805e-06
-1.09926e-05
-1.17431e-05
-1.02583e-05
-6.67125e-06
-6.24251e-06
-6.3963e-06
-8.87945e-06
-6.76138e-06
-6.23139e-06
-6.22167e-06
-9.02069e-06
-9.30567e-06
-9.01726e-06
-6.96795e-06
-8.39842e-06
-1.11723e-05
-1.10618e-05
-9.09984e-06
-7.16419e-06
-1.28742e-05
-1.54821e-05
-1.50157e-05
-1.1104e-05
-9.80206e-06
-1.4008e-05
-1.59229e-05
-1.66401e-05
-1.481e-05
-1.54207e-05
-1.90894e-05
-1.9243e-05
-1.62438e-05
-1.24305e-05
-9.18451e-06
-1.21859e-05
-1.27913e-05
-1.51081e-05
-1.23533e-05
-1.15377e-05
-1.33115e-05
-1.52069e-05
-1.61142e-05
-1.32636e-05
-9.51072e-06
-8.96118e-06
-1.00277e-05
-1.26266e-05
-9.03878e-06
-8.54833e-06
-8.91221e-06
-1.30708e-05
-1.32967e-05
-1.20563e-05
-9.19517e-06
-1.1327e-05
-1.45262e-05
-1.44177e-05
-1.20017e-05
-9.79792e-06
-1.81616e-05
-2.03255e-05
-1.99822e-05
-1.40085e-05
-1.33025e-05
-1.92745e-05
-2.11714e-05
-2.19483e-05
-1.87334e-05
-1.98015e-05
-2.52962e-05
-2.53099e-05
-2.23981e-05
-1.61934e-05
-1.2564e-05
-1.65187e-05
-1.76648e-05
-2.00693e-05
-1.60901e-05
-1.6315e-05
-1.82929e-05
-2.05706e-05
-2.09308e-05
-1.66356e-05
-1.26751e-05
-1.3857e-05
-1.55537e-05
-1.71714e-05
-1.18338e-05
-1.19345e-05
-1.29483e-05
-1.81841e-05
-1.8049e-05
-1.63349e-05
-1.20833e-05
-1.54871e-05
-1.8863e-05
-1.78121e-05
-1.50575e-05
-1.32791e-05
-2.25223e-05
-2.52195e-05
-2.35688e-05
-1.64599e-05
-1.66804e-05
-2.23146e-05
-2.54081e-05
-2.57534e-05
-2.1524e-05
-2.34291e-05
-2.93262e-05
-2.95518e-05
-2.63067e-05
-2.02532e-05
-1.59811e-05
-2.05882e-05
-2.05906e-05
-2.34381e-05
-1.83213e-05
-1.91325e-05
-2.25237e-05
-2.55319e-05
-2.47145e-05
-1.84542e-05
-1.44494e-05
-1.52272e-05
-2.04427e-05
-2.17283e-05
-1.42743e-05
-1.39535e-05
-1.54589e-05
-2.26948e-05
-2.18183e-05
-1.86981e-05
-1.48603e-05
-1.88152e-05
-2.25873e-05
-2.14124e-05
-1.62677e-05
-1.56941e-05
-2.06741e-05
-2.3313e-05
-2.15336e-05
-1.20031e-05
-1.32591e-05
-2.06087e-05
-2.30499e-05
-2.34832e-05
-1.79052e-05
-2.08289e-05
-2.79555e-05
-2.80293e-05
-2.51886e-05
-1.57995e-05
-1.30643e-05
-1.91841e-05
-1.97058e-05
-2.16292e-05
-1.4868e-05
-1.72399e-05
-2.106e-05
-2.59725e-05
-2.31189e-05
-1.48579e-05
-1.07458e-05
-1.44686e-05
-1.88634e-05
-1.91206e-05
-1.09103e-05
-1.18863e-05
-1.39112e-05
-2.27576e-05
-2.00577e-05
-1.71597e-05
-1.1872e-05
-1.86238e-05
-2.14042e-05
-1.91345e-05
-1.37317e-05
-1.15035e-05
-1.45619e-05
-1.74042e-05
-1.49394e-05
-4.00199e-06
-6.21605e-06
-1.37896e-05
-1.70335e-05
-1.58929e-05
-9.91955e-06
-1.36262e-05
-2.235e-05
-2.16201e-05
-1.87712e-05
-8.19168e-06
-7.12237e-06
-1.41202e-05
-1.2846e-05
-1.51762e-05
-7.81926e-06
-1.01491e-05
-1.4673e-05
-2.20453e-05
-1.78953e-05
-8.11677e-06
-2.63486e-06
-6.37217e-06
-1.4498e-05
-1.39976e-05
-3.62007e-06
-5.15719e-06
-7.34007e-06
-1.57998e-05
-1.29416e-05
-9.29677e-06
-4.98938e-06
-1.39913e-05
-1.64432e-05
-1.32877e-05
-7.17115e-06
-5.55743e-06
-6.82311e-06
-7.14553e-06
-6.42464e-06
5.16031e-06
1.64966e-06
-5.62849e-06
-9.23404e-06
-7.6345e-06
-2.24416e-07
-4.90218e-06
-1.29419e-05
-1.36613e-05
-1.02379e-05
-5.53998e-07
3.80254e-07
-6.66684e-06
-7.5197e-06
-7.99308e-06
1.54371e-06
-1.3414e-06
-6.49845e-06
-1.44631e-05
-9.67045e-06
-1.36736e-06
4.48603e-06
-6.91389e-07
-7.85864e-06
-6.18481e-06
3.68852e-06
2.52255e-06
-2.39332e-07
-1.02783e-05
-5.20201e-06
-1.18493e-06
2.16915e-06
-7.21077e-06
-9.39315e-06
-6.02272e-06
2.02842e-06
4.20854e-06
-1.53336e-06
-2.9725e-06
-1.35515e-06
1.09295e-05
7.14673e-06
1.32112e-07
-3.56877e-06
-6.67613e-07
6.007e-06
2.07062e-06
-7.18781e-06
-7.32581e-06
-5.27721e-06
6.29276e-06
5.56192e-06
-1.23177e-06
-1.03444e-06
-2.18213e-06
7.50856e-06
5.04403e-06
-3.66652e-07
-8.55625e-06
-4.04828e-06
5.45172e-06
1.03195e-05
5.60094e-06
-1.80911e-06
-4.62514e-07
1.02481e-05
7.87239e-06
4.74744e-06
-4.10327e-06
5.4961e-07
4.11954e-06
6.91925e-06
-1.94531e-06
-4.60907e-06
-7.40351e-07
7.33491e-06
9.3692e-06
5.61804e-07
-2.06682e-07
1.45744e-06
1.29546e-05
8.84698e-06
1.99815e-06
-1.85057e-06
1.72411e-06
8.29806e-06
4.82787e-06
-5.12406e-06
-4.71052e-06
-2.37207e-06
7.27994e-06
7.48427e-06
6.14661e-07
6.74268e-07
-1.44806e-07
9.09281e-06
7.25328e-06
2.18946e-06
-6.08521e-06
-1.13814e-06
7.01965e-06
1.21125e-05
7.38271e-06
1.48603e-06
2.26151e-06
1.19626e-05
9.53554e-06
6.90979e-06
-2.25896e-06
2.80271e-06
5.11543e-06
9.18629e-06
4.41011e-08
-2.55883e-06
1.43628e-06
8.43152e-06
1.07771e-05
4.99578e-07
-4.41754e-07
1.09532e-06
1.21335e-05
8.50621e-06
2.01451e-06
-1.85522e-06
1.88892e-06
7.47254e-06
4.66457e-06
-5.00765e-06
-5.35902e-06
-3.17346e-06
6.64242e-06
7.17069e-06
7.24661e-08
6.90008e-07
-4.88867e-07
9.23777e-06
6.36364e-06
2.48481e-06
-6.16932e-06
-1.63353e-06
6.40684e-06
1.15969e-05
7.09705e-06
1.71134e-06
1.80833e-06
1.13143e-05
8.92465e-06
6.6958e-06
-2.76978e-06
2.42781e-06
4.36281e-06
8.14439e-06
-5.96901e-07
-2.88373e-06
9.49053e-07
7.49652e-06
1.02347e-05
2.08958e-07
-7.68469e-07
7.52832e-07
1.10789e-05
7.05879e-06
1.55798e-06
-1.76236e-06
1.41279e-06
6.31406e-06
4.1258e-06
-5.28286e-06
-5.66853e-06
-3.75363e-06
5.73695e-06
6.36516e-06
4.69158e-08
2.25224e-07
-1.04398e-06
8.26877e-06
5.78952e-06
2.28606e-06
-6.35137e-06
-2.27109e-06
5.44191e-06
1.0434e-05
6.39723e-06
1.46619e-06
1.34863e-06
1.01266e-05
7.63845e-06
6.10754e-06
-3.14223e-06
1.98296e-06
3.60579e-06
7.57838e-06
-8.67971e-07
-3.20996e-06
5.04883e-07
6.60848e-06
9.34039e-06
3.55677e-08
-9.15158e-07
2.96738e-07
1.04671e-05
6.87893e-06
1.41772e-06
-2.01964e-06
9.94043e-07
5.63424e-06
3.7965e-06
-5.60044e-06
-5.95284e-06
-4.35338e-06
5.15e-06
5.92282e-06
-3.32479e-07
-1.05125e-07
-1.43334e-06
7.66943e-06
5.25635e-06
2.00022e-06
-6.55577e-06
-2.71799e-06
4.75493e-06
9.95085e-06
6.07193e-06
1.329e-06
8.95139e-07
9.57871e-06
7.31654e-06
5.90669e-06
-3.5177e-06
1.6264e-06
2.96661e-06
7.11057e-06
-1.28999e-06
-3.41186e-06
9.5971e-08
5.94523e-06
8.93078e-06
-3.08368e-07
-3.08483e-07
-2.89551e-07
-2.48438e-07
-2.47591e-07
-2.08975e-07
-2.12178e-07
-2.05649e-07
-1.96148e-07
-1.88757e-07
-1.90869e-07
-1.95671e-07
-1.43419e-07
-1.99617e-07
-1.55168e-07
-1.58542e-07
-1.16928e-07
-1.80788e-07
-1.14823e-07
-1.04661e-07
-1.97512e-07
-9.98703e-08
-1.15432e-07
-2.16957e-07
-7.90559e-08
-1.57621e-07
-1.89918e-07
-1.55874e-07
-2.13223e-07
-2.33693e-07
-2.46063e-07
-2.62108e-07
-2.74445e-07
-2.54625e-07
-3.38508e-07
-2.39064e-07
-3.11172e-07
-3.05152e-07
-3.10566e-07
-3.23526e-07
-3.37475e-07
-3.51827e-07
-2.89466e-07
-3.04047e-07
-2.51798e-07
-2.84075e-07
-2.08107e-07
-2.76961e-07
-2.25302e-07
-1.94677e-07
-2.73734e-07
-1.71732e-07
-1.89333e-07
-1.94026e-07
-1.39921e-07
-1.57052e-07
-7.8212e-08
-1.71895e-07
-4.73693e-08
-1.07669e-07
-1.39736e-07
-6.68263e-08
-1.22262e-07
-1.20358e-07
-9.82341e-08
-1.1664e-07
-1.57276e-07
-1.27947e-07
-2.03129e-07
-2.15595e-07
-2.29896e-07
-3.04154e-07
-2.24498e-07
-3.02672e-07
-3.59187e-07
-2.45803e-07
-3.66972e-07
-2.96925e-07
-3.91099e-07
-3.19472e-07
-3.6439e-07
-3.86047e-07
-2.9843e-07
-3.41596e-07
-2.77254e-07
-3.31542e-07
-2.24378e-07
-3.33979e-07
-2.52372e-07
-2.16507e-07
-3.39627e-07
-1.47236e-07
-2.25274e-07
-1.67471e-07
-1.11167e-07
-1.44991e-07
-4.18167e-08
-1.34463e-07
-8.64794e-10
-9.50389e-08
-7.57935e-08
-4.49089e-08
-1.05147e-07
-4.03383e-08
-1.03222e-07
-8.45977e-08
-1.21215e-07
-1.05946e-07
-1.8942e-07
-1.95084e-07
-2.26843e-07
-3.29149e-07
-2.02976e-07
-3.63678e-07
-3.65999e-07
-3.02483e-07
-4.07139e-07
-3.1047e-07
-4.62554e-07
-3.21087e-07
-3.79715e-07
-3.99625e-07
-3.00317e-07
-3.43445e-07
-3.03906e-07
-3.49253e-07
-2.55816e-07
-3.83693e-07
-2.76442e-07
-2.56046e-07
-3.78032e-07
-1.35411e-07
-2.50835e-07
-1.3815e-07
-8.77221e-08
-1.33055e-07
-2.06204e-08
-9.33566e-08
1.89632e-08
-7.38182e-08
-1.71493e-08
-2.86939e-08
-6.95195e-08
1.67241e-08
-8.8842e-08
-6.45854e-08
-9.01612e-08
-9.78866e-08
-1.83073e-07
-1.87029e-07
-2.47796e-07
-3.35508e-07
-2.36135e-07
-4.11902e-07
-3.82309e-07
-3.84237e-07
-4.29588e-07
-3.52642e-07
-5.09247e-07
-3.38867e-07
-3.91239e-07
-4.11344e-07
-3.1732e-07
-3.44884e-07
-3.46942e-07
-3.50703e-07
-2.97379e-07
-4.06211e-07
-2.86172e-07
-2.89995e-07
-3.90161e-07
-1.46793e-07
-2.71743e-07
-1.23619e-07
-8.28849e-08
-1.33026e-07
-2.0082e-08
-6.04089e-08
2.52023e-08
-4.56027e-08
4.43075e-08
-1.29766e-09
-1.54575e-08
6.33828e-08
-6.3969e-08
-5.23849e-08
-6.82024e-08
-9.90883e-08
-1.74832e-07
-1.94545e-07
-2.67122e-07
-3.31641e-07
-2.91976e-07
-4.37686e-07
-4.10864e-07
-4.65027e-07
-4.38942e-07
-4.03376e-07
-5.29105e-07
-3.65467e-07
-3.85472e-07
-4.11135e-07
-3.25543e-07
-3.46334e-07
-3.93918e-07
-3.61176e-07
-3.60293e-07
-4.33926e-07
-3.19835e-07
-3.45477e-07
-4.1325e-07
-1.8376e-07
-2.90558e-07
-1.2543e-07
-9.10882e-08
-1.35529e-07
-2.71708e-08
-2.15127e-08
3.23057e-08
-6.57016e-09
1.00335e-07
3.39255e-08
4.24241e-08
1.08716e-07
-3.11512e-08
-2.87264e-08
-4.37111e-08
-8.9078e-08
-1.57314e-07
-2.08385e-07
-2.82751e-07
-3.36062e-07
-3.66016e-07
-4.63832e-07
-4.52692e-07
-5.48092e-07
-4.4878e-07
-4.67965e-07
-5.331e-07
-3.96597e-07
-3.76574e-07
-4.11315e-07
-3.3122e-07
-3.55536e-07
-4.33871e-07
-3.79504e-07
-4.25662e-07
-4.67784e-07
-3.6316e-07
-4.01421e-07
-4.23146e-07
-2.26288e-07
-3.00872e-07
-1.43705e-07
-1.08185e-07
-1.52257e-07
-4.12502e-08
9.47325e-09
4.1958e-08
3.36561e-08
1.45039e-07
6.38196e-08
8.25281e-08
1.33668e-07
-1.09899e-08
-6.56617e-09
-3.03614e-08
-7.30923e-08
-1.39114e-07
-2.16499e-07
-2.91616e-07
-3.37782e-07
-4.41994e-07
-4.84672e-07
-5.08689e-07
-6.22118e-07
-4.64967e-07
-5.28872e-07
-5.23474e-07
-4.27798e-07
-3.72995e-07
-4.07638e-07
-3.30798e-07
-3.6314e-07
-4.74002e-07
-4.14882e-07
-5.11852e-07
-5.29052e-07
-4.39902e-07
-4.72366e-07
-4.474e-07
-2.85025e-07
-3.1574e-07
-1.74153e-07
-1.22411e-07
-1.6228e-07
-3.87057e-08
3.46167e-08
5.06991e-08
5.67717e-08
1.6982e-07
8.10531e-08
1.10227e-07
1.4064e-07
5.28155e-09
1.29608e-08
-1.3001e-08
-4.82916e-08
-1.12841e-07
-2.18175e-07
-2.9443e-07
-3.47929e-07
-5.20793e-07
-5.06243e-07
-5.76114e-07
-6.82484e-07
-4.94417e-07
-5.88075e-07
-5.31365e-07
-4.65736e-07
-3.76771e-07
-4.06958e-07
-3.3187e-07
-3.85633e-07
-5.23297e-07
-4.7053e-07
-6.06333e-07
-5.98417e-07
-5.25874e-07
-5.40888e-07
-4.82059e-07
-3.49987e-07
-3.36108e-07
-2.12403e-07
-1.45867e-07
-1.76757e-07
-4.54848e-08
3.94842e-08
4.36083e-08
6.51696e-08
1.81894e-07
1.02916e-07
1.35866e-07
1.3942e-07
2.0906e-08
3.33083e-08
1.91884e-08
-1.23214e-08
-7.95531e-08
-2.27951e-07
-3.06656e-07
-3.91874e-07
-6.08511e-07
-5.47143e-07
-6.49129e-07
-7.43571e-07
-5.45206e-07
-6.59033e-07
-5.58357e-07
-5.13834e-07
-3.98268e-07
-4.3785e-07
-3.57282e-07
-4.37949e-07
-5.76655e-07
-5.42529e-07
-7.04085e-07
-6.79559e-07
-6.2525e-07
-6.28392e-07
-5.42204e-07
-4.32616e-07
-3.72769e-07
-2.70226e-07
-1.88509e-07
-2.14082e-07
-7.71272e-08
1.04392e-08
1.70789e-08
6.61053e-08
1.85785e-07
1.26553e-07
1.51313e-07
1.23316e-07
2.45436e-08
4.52719e-08
4.8858e-08
2.10721e-08
-5.06665e-08
-2.4946e-07
-3.44539e-07
-4.71288e-07
-7.14022e-07
-6.16846e-07
-7.32038e-07
-8.06444e-07
-6.05431e-07
-7.36381e-07
-5.97747e-07
-5.6993e-07
-4.44311e-07
-4.89864e-07
-4.01331e-07
-5.16147e-07
-6.42555e-07
-6.37628e-07
-8.11158e-07
-7.82158e-07
-7.38542e-07
-7.36428e-07
-6.20178e-07
-5.3428e-07
-4.29936e-07
-3.55853e-07
-2.61323e-07
-2.8948e-07
-1.364e-07
-5.13516e-08
-2.43168e-08
4.59931e-08
1.6602e-07
1.22157e-07
1.3185e-07
7.54716e-08
1.46355e-08
4.28973e-08
7.38156e-08
3.49628e-08
-4.22881e-08
-2.96608e-07
-4.19427e-07
-5.95184e-07
-8.49001e-07
-7.13495e-07
-8.16083e-07
-8.6697e-07
-6.84756e-07
-8.35065e-07
-6.68682e-07
-6.46835e-07
-5.50495e-07
-6.10196e-07
-5.11058e-07
-6.50083e-07
-7.5101e-07
-7.75344e-07
-9.33604e-07
-8.94479e-07
-8.59154e-07
-8.73994e-07
-7.48341e-07
-6.8949e-07
-5.21345e-07
-4.6894e-07
-3.67004e-07
-4.12674e-07
-2.3792e-07
-1.57259e-07
-9.55516e-08
-2.32582e-08
9.68274e-08
7.1069e-08
8.65075e-08
-1.7486e-09
-1.30357e-08
1.62976e-08
8.29591e-08
1.95216e-08
-7.13428e-08
-3.9999e-07
-5.66806e-07
-7.90901e-07
-1.02467e-06
-8.57537e-07
-9.20798e-07
-9.44996e-07
-7.96041e-07
-9.60553e-07
-7.68236e-07
-7.61349e-07
-7.22296e-07
-7.90138e-07
-6.79108e-07
-8.57655e-07
-9.22921e-07
-9.65476e-07
-1.0923e-06
-1.0522e-06
-1.01072e-06
-1.05024e-06
-9.22249e-07
-8.95993e-07
-6.62105e-07
-6.4402e-07
-5.24765e-07
-5.95044e-07
-3.90855e-07
-3.18707e-07
-2.2786e-07
-1.89571e-07
-6.09721e-08
-3.44532e-08
-3.86504e-09
-1.32733e-07
-7.64512e-08
-4.09441e-08
7.67064e-08
-5.11034e-08
-1.89016e-07
-6.21945e-07
-8.10713e-07
-1.07135e-06
-1.23887e-06
-1.04244e-06
-1.04649e-06
-1.04943e-06
-9.46985e-07
-1.14667e-06
-9.39766e-07
-9.53982e-07
-9.85741e-07
-1.06773e-06
-9.41151e-07
-1.15817e-06
-1.16508e-06
-1.21698e-06
-1.30255e-06
-1.29675e-06
-1.2601e-06
-1.33307e-06
-1.1836e-06
-1.18391e-06
-8.96726e-07
-9.36971e-07
-7.92012e-07
-8.8222e-07
-6.15065e-07
-5.64578e-07
-4.73734e-07
-4.88203e-07
-3.24153e-07
-2.23175e-07
-1.66479e-07
-3.4823e-07
-2.10222e-07
-1.497e-07
2.44959e-08
-2.28495e-07
-4.53125e-07
-1.00751e-06
-1.17542e-06
-1.45925e-06
-1.53876e-06
-1.32591e-06
-1.24355e-06
-1.21512e-06
-1.16906e-06
-1.44207e-06
-1.23763e-06
-1.26544e-06
-1.37647e-06
-1.5056e-06
-1.37595e-06
-1.62566e-06
-1.51784e-06
-1.54514e-06
-1.60959e-06
-1.67992e-06
-1.64613e-06
-1.74399e-06
-1.57663e-06
-1.60755e-06
-1.25413e-06
-1.38949e-06
-1.20829e-06
-1.32033e-06
-9.4085e-07
-9.57389e-07
-8.80331e-07
-9.78965e-07
-7.43303e-07
-5.42673e-07
-4.68627e-07
-7.16343e-07
-4.44049e-07
-3.47641e-07
-1.24037e-07
-5.80032e-07
-9.31082e-07
-1.58951e-06
-1.68748e-06
-1.99632e-06
-1.98734e-06
-1.77385e-06
-1.55364e-06
-1.49715e-06
-1.52801e-06
-1.92395e-06
-1.68007e-06
-1.72456e-06
-1.98836e-06
-2.21314e-06
-2.09739e-06
-2.35027e-06
-2.03475e-06
-2.02503e-06
-2.09959e-06
-2.30562e-06
-2.24067e-06
-2.32782e-06
-2.17386e-06
-2.25871e-06
-1.85874e-06
-2.13419e-06
-1.86089e-06
-1.9967e-06
-1.49036e-06
-1.6641e-06
-1.61336e-06
-1.7764e-06
-1.39808e-06
-1.10709e-06
-1.0149e-06
-1.33293e-06
-8.66459e-07
-7.31873e-07
-4.94256e-07
-1.22196e-06
-1.73081e-06
-2.42524e-06
-2.38389e-06
-2.80074e-06
-2.70142e-06
-2.49413e-06
-2.05321e-06
-1.96443e-06
-2.10296e-06
-2.71547e-06
-2.43435e-06
-2.43976e-06
-2.95076e-06
-3.39159e-06
-3.29111e-06
-3.48037e-06
-2.83502e-06
-2.82822e-06
-3.00043e-06
-3.38191e-06
-3.21162e-06
-3.25052e-06
-3.12619e-06
-3.26505e-06
-2.88394e-06
-3.28087e-06
-2.8492e-06
-3.03047e-06
-2.39497e-06
-2.85176e-06
-2.80021e-06
-2.97514e-06
-2.41006e-06
-2.08405e-06
-1.99957e-06
-2.36687e-06
-1.55475e-06
-1.43318e-06
-1.30427e-06
-2.41826e-06
-2.98737e-06
-3.62951e-06
-3.42086e-06
-3.99305e-06
-3.83966e-06
-3.64051e-06
-2.87737e-06
-2.80279e-06
-3.11076e-06
-3.97179e-06
-3.54587e-06
-3.49049e-06
-4.50441e-06
-5.27128e-06
-5.09483e-06
-5.18497e-06
-4.07142e-06
-4.18728e-06
-4.641e-06
-5.29067e-06
-4.80352e-06
-4.64554e-06
-4.70984e-06
-4.89646e-06
-4.6041e-06
-5.06552e-06
-4.34895e-06
-4.62753e-06
-4.00141e-06
-4.86712e-06
-4.69696e-06
-4.79145e-06
-4.07665e-06
-3.76809e-06
-3.63803e-06
-3.964e-06
-2.72627e-06
-2.73494e-06
-2.82705e-06
-4.5156e-06
-4.98086e-06
-5.38385e-06
-5.01725e-06
-5.88695e-06
-5.65998e-06
-5.37742e-06
-4.21441e-06
-4.24817e-06
-4.84411e-06
-6.09669e-06
-5.30627e-06
-5.10899e-06
-6.93674e-06
-8.14232e-06
-7.71563e-06
-7.52822e-06
-5.84816e-06
-6.41097e-06
-7.18512e-06
-8.09946e-06
-7.1198e-06
-6.68514e-06
-7.09212e-06
-7.32875e-06
-7.26398e-06
-7.61267e-06
-6.4431e-06
-6.94931e-06
-6.40023e-06
-7.9126e-06
-7.48481e-06
-7.3879e-06
-6.54455e-06
-6.36116e-06
-6.13802e-06
-6.21778e-06
-4.41453e-06
-4.80684e-06
-5.32112e-06
-7.63073e-06
-7.80295e-06
-7.8119e-06
-7.44111e-06
-8.78844e-06
-8.39255e-06
-7.89048e-06
-6.14828e-06
-6.41286e-06
-7.53792e-06
-9.23585e-06
-7.84668e-06
-7.5116e-06
-1.02888e-05
-1.2216e-05
-1.13743e-05
-1.0588e-05
-8.13549e-06
-9.65933e-06
-1.08717e-05
-1.20518e-05
-9.95183e-06
-9.4764e-06
-1.03795e-05
-1.0571e-05
-1.07478e-05
-1.06934e-05
-9.21501e-06
-1.0048e-05
-9.81543e-06
-1.19513e-05
-1.12012e-05
-1.09143e-05
-1.00526e-05
-1.00068e-05
-9.37788e-06
-9.05163e-06
-6.67471e-06
-7.66062e-06
-8.86356e-06
-1.16968e-05
-1.13419e-05
-1.09684e-05
-1.0814e-05
-1.27454e-05
-1.21083e-05
-1.11876e-05
-8.93182e-06
-9.48558e-06
-1.13553e-05
-1.34459e-05
-1.09996e-05
-1.05925e-05
-1.42936e-05
-1.71125e-05
-1.56007e-05
-1.40832e-05
-1.09594e-05
-1.36663e-05
-1.5444e-05
-1.66335e-05
-1.31219e-05
-1.28309e-05
-1.4237e-05
-1.45126e-05
-1.51781e-05
-1.39362e-05
-1.2021e-05
-1.36194e-05
-1.40109e-05
-1.70148e-05
-1.50837e-05
-1.47682e-05
-1.42552e-05
-1.45165e-05
-1.32141e-05
-1.20266e-05
-9.1037e-06
-1.10308e-05
-1.32151e-05
-1.65347e-05
-1.51597e-05
-1.45641e-05
-1.48265e-05
-1.75007e-05
-1.604e-05
-1.46205e-05
-1.20549e-05
-1.32306e-05
-1.60191e-05
-1.83532e-05
-1.45783e-05
-1.41695e-05
-1.84737e-05
-2.22249e-05
-1.99598e-05
-1.75044e-05
-1.36683e-05
-1.78574e-05
-1.93507e-05
-2.05287e-05
-1.57342e-05
-1.60723e-05
-1.7853e-05
-1.8871e-05
-1.96213e-05
-1.73419e-05
-1.49366e-05
-1.69308e-05
-1.85427e-05
-2.16733e-05
-1.93598e-05
-1.85641e-05
-1.8317e-05
-1.88772e-05
-1.69352e-05
-1.44233e-05
-1.09341e-05
-1.41613e-05
-1.74767e-05
-2.13034e-05
-1.83998e-05
-1.75894e-05
-1.87656e-05
-2.24897e-05
-2.06711e-05
-1.78292e-05
-1.46451e-05
-1.62188e-05
-2.05161e-05
-2.27662e-05
-1.74761e-05
-1.74806e-05
-2.12642e-05
-2.55672e-05
-2.27421e-05
-1.87453e-05
-1.42608e-05
-1.98452e-05
-2.16856e-05
-2.2549e-05
-1.58465e-05
-1.74773e-05
-1.94854e-05
-2.15083e-05
-2.29142e-05
-1.8061e-05
-1.5712e-05
-1.84228e-05
-2.08452e-05
-2.48285e-05
-1.93183e-05
-1.96559e-05
-2.03786e-05
-2.16276e-05
-1.86357e-05
-1.5435e-05
-1.07568e-05
-1.55904e-05
-1.9662e-05
-2.33651e-05
-1.93106e-05
-1.85312e-05
-2.03163e-05
-2.52801e-05
-2.18741e-05
-1.97222e-05
-1.53715e-05
-1.82841e-05
-2.38405e-05
-2.48245e-05
-1.80958e-05
-1.88667e-05
-2.01146e-05
-2.52921e-05
-2.10743e-05
-1.66638e-05
-1.15363e-05
-1.86583e-05
-1.96235e-05
-2.00989e-05
-1.17958e-05
-1.50021e-05
-1.74664e-05
-2.12381e-05
-2.18205e-05
-1.72311e-05
-1.42306e-05
-1.70176e-05
-2.03566e-05
-2.29926e-05
-1.74247e-05
-1.67195e-05
-1.87493e-05
-2.10777e-05
-1.69538e-05
-1.25477e-05
-8.41993e-06
-1.45986e-05
-1.86895e-05
-2.19086e-05
-1.6231e-05
-1.60281e-05
-2.04991e-05
-2.56058e-05
-2.14248e-05
-1.61687e-05
-1.21401e-05
-1.59159e-05
-2.19798e-05
-2.24156e-05
-1.42385e-05
-1.60452e-05
-1.66724e-05
-2.24883e-05
-1.77416e-05
-1.10109e-05
-6.07702e-06
-1.39565e-05
-1.51026e-05
-1.5484e-05
-6.35261e-06
-1.11249e-05
-1.39982e-05
-1.92922e-05
-1.97504e-05
-1.19495e-05
-1.05228e-05
-1.34635e-05
-1.81677e-05
-2.02285e-05
-1.17736e-05
-1.30676e-05
-1.59126e-05
-1.82722e-05
-1.46806e-05
-8.87356e-06
-3.09386e-06
-1.20373e-05
-1.56043e-05
-1.81269e-05
-1.01015e-05
-1.12416e-05
-1.6033e-05
-2.40124e-05
-1.77331e-05
-1.37669e-05
-7.42697e-06
-1.30796e-05
-2.00558e-05
-1.8066e-05
-8.72071e-06
-1.03447e-05
-1.3721e-05
-1.94492e-05
-1.39728e-05
-7.8819e-06
-3.2414e-06
-1.16644e-05
-1.29486e-05
-1.31311e-05
-3.06731e-06
-6.95251e-06
-1.16255e-05
-1.68039e-05
-1.68048e-05
-1.09828e-05
-8.03508e-06
-1.1954e-05
-1.75087e-05
-1.76878e-05
-9.18763e-06
-8.85893e-06
-1.42984e-05
-1.58183e-05
-1.14314e-05