/*--------------------------------*- C++ -*----------------------------------*\
  =========                 |
  \\      /  F ield         | OpenFOAM: The Open Source CFD Toolbox
   \\    /   O peration     | Website:  https://openfoam.org
    \\  /    A nd           | Version:  10
     \\/     M anipulation  |
\*---------------------------------------------------------------------------*/
FoamFile
{
    format      ascii;
    class       volSymmTensorField;
    location    "27.5";
    object      UPrime2Mean;
}
// * * * * * * * * * * * * * * * * * * * * * * * * * * * * * * * * * * * * * //

dimensions      [0 2 -2 0 0 0 0];

internalField   nonuniform List<symmTensor> 
25600
(
(0.000112085 -8.49496e-09 7.33679e-09 1.07448e-09 2.34815e-10 2.4106e-10)
(0.000112086 9.76718e-09 5.31169e-09 1.04424e-09 2.30043e-10 2.39734e-10)
(0.000112083 -9.57464e-09 9.40351e-09 1.03442e-09 2.10204e-10 2.31266e-10)
(0.000112086 5.52438e-09 5.23212e-09 1.02517e-09 1.99427e-10 2.21133e-10)
(0.000112085 -7.44135e-09 8.1149e-09 1.01587e-09 1.8725e-10 2.22476e-10)
(0.000112084 -1.98412e-09 6.64631e-09 1.00661e-09 1.82167e-10 2.23406e-10)
(0.000112086 -2.71372e-09 6.6084e-09 9.82663e-10 1.66382e-10 2.11618e-10)
(0.000112083 -1.0179e-08 7.5561e-09 9.97907e-10 1.57035e-10 2.07933e-10)
(0.000112087 3.29463e-10 5.56334e-09 9.67674e-10 1.56278e-10 2.09739e-10)
(0.000112083 -1.16849e-08 8.07554e-09 9.81302e-10 1.58116e-10 2.1208e-10)
(0.000112086 -4.61252e-09 5.6009e-09 9.99612e-10 1.52023e-10 2.15042e-10)
(0.000112087 -4.36399e-09 8.39433e-09 1.02431e-09 1.40202e-10 2.15301e-10)
(0.000112081 -1.19613e-08 5.08121e-09 1.04596e-09 1.36318e-10 2.26969e-10)
(0.000112093 1.83588e-09 1.0013e-08 1.06323e-09 1.35742e-10 2.35402e-10)
(0.000112081 -1.30087e-08 3.33822e-09 1.0816e-09 1.49914e-10 2.32356e-10)
(0.000112092 2.27197e-09 1.05733e-08 1.07601e-09 1.56649e-10 2.39792e-10)
(0.000112081 -7.62955e-09 3.40155e-09 1.09205e-09 1.49701e-10 2.46509e-10)
(0.000112091 -1.41598e-09 8.84323e-09 1.10014e-09 1.35549e-10 2.51444e-10)
(0.000112085 1.82728e-09 4.88016e-09 1.15004e-09 1.21136e-10 2.37913e-10)
(0.000112081 -8.33218e-09 7.3523e-09 1.19878e-09 1.24575e-10 2.2312e-10)
(0.000112094 1.19077e-08 4.90436e-09 1.24933e-09 1.46621e-10 2.25659e-10)
(0.000112078 -1.1859e-08 6.42129e-09 1.25225e-09 1.60507e-10 2.28605e-10)
(0.000112085 1.47838e-08 6.13928e-09 1.28414e-09 1.62057e-10 2.29201e-10)
(0.000112087 -6.65539e-09 3.80001e-09 1.31801e-09 1.65375e-10 2.27912e-10)
(0.000112079 9.35582e-09 9.31336e-09 1.36073e-09 1.81564e-10 2.2743e-10)
(0.000112081 1.28793e-09 -7.93438e-11 1.42426e-09 2.00612e-10 2.30867e-10)
(0.000112083 5.67635e-09 1.19918e-08 1.45037e-09 2.12723e-10 2.3165e-10)
(0.00011208 5.30949e-09 -1.54962e-09 1.48321e-09 2.30497e-10 2.36029e-10)
(0.000112077 3.14572e-09 1.24145e-08 1.49132e-09 2.42307e-10 2.45721e-10)
(0.000112086 7.72506e-09 -5.09062e-10 1.49499e-09 2.4351e-10 2.39015e-10)
(0.000112072 2.4007e-09 1.02807e-08 1.44971e-09 2.50867e-10 2.34559e-10)
(0.000112085 5.73797e-09 2.73092e-09 1.42852e-09 2.6241e-10 2.36587e-10)
(0.000112076 6.24096e-09 6.93439e-09 1.39237e-09 2.80379e-10 2.5222e-10)
(0.000112078 5.29461e-10 7.78281e-09 1.32448e-09 2.80429e-10 2.60992e-10)
(0.000112086 7.5384e-09 3.30718e-09 1.28324e-09 2.75154e-10 2.55923e-10)
(0.000112071 1.19312e-09 1.11111e-08 1.24982e-09 2.7495e-10 2.4905e-10)
(0.000112088 3.17393e-09 2.33972e-09 1.22782e-09 2.70355e-10 2.43707e-10)
(0.000112075 4.58468e-09 1.18257e-08 1.19069e-09 2.57329e-10 2.42147e-10)
(0.000112087 -2.99089e-09 3.27409e-09 1.163e-09 2.43912e-10 2.32293e-10)
(0.00011208 9.0147e-09 9.19997e-09 1.09995e-09 2.3193e-10 2.32407e-10)
(0.000112086 -3.94711e-09 8.0217e-09 1.04588e-09 1.8993e-10 1.95648e-10)
(0.000112086 3.39641e-09 6.17608e-09 1.03322e-09 1.97265e-10 1.85647e-10)
(0.000112079 -4.33447e-09 1.07766e-08 1.05942e-09 1.9056e-10 1.7999e-10)
(0.000112088 -6.29012e-10 4.78982e-09 1.03523e-09 1.93159e-10 1.76469e-10)
(0.000112079 -3.1901e-09 9.74309e-09 1.02751e-09 1.83574e-10 1.8519e-10)
(0.000112088 -5.99442e-09 5.79538e-09 1.00398e-09 1.86162e-10 1.85941e-10)
(0.000112079 -8.60934e-10 8.32749e-09 9.88858e-10 1.83446e-10 1.76769e-10)
(0.000112086 -1.21761e-08 6.39834e-09 1.00342e-09 1.74904e-10 1.84268e-10)
(0.000112086 6.46419e-10 7.31164e-09 9.89423e-10 1.89044e-10 1.9525e-10)
(0.000112078 -1.36223e-08 7.17527e-09 1.02181e-09 2.01002e-10 2.04273e-10)
(0.000112094 -4.02248e-09 6.35062e-09 1.00939e-09 1.98387e-10 2.17233e-10)
(0.00011208 -6.56491e-09 8.36289e-09 1.03604e-09 1.83905e-10 2.27767e-10)
(0.000112088 -1.2106e-08 5.46375e-09 1.05287e-09 1.76204e-10 2.53684e-10)
(0.000112091 1.02106e-09 9.98879e-09 1.08114e-09 1.84563e-10 2.69739e-10)
(0.000112082 -1.50071e-08 4.43306e-09 1.05626e-09 1.95819e-10 2.71318e-10)
(0.000112096 2.53218e-09 1.02736e-08 1.02899e-09 1.96381e-10 2.79995e-10)
(0.000112078 -1.10263e-08 5.23616e-09 1.02758e-09 1.87287e-10 2.71814e-10)
(0.000112099 4.21411e-10 8.42967e-09 1.02576e-09 1.74186e-10 2.58392e-10)
(0.000112079 -3.92963e-09 6.86299e-09 1.04342e-09 1.62546e-10 2.3449e-10)
(0.000112091 -4.6905e-09 7.65158e-09 1.0599e-09 1.64779e-10 2.18285e-10)
(0.00011209 5.46968e-09 6.33065e-09 1.09831e-09 1.81487e-10 2.26754e-10)
(0.000112081 -8.78439e-09 8.13232e-09 1.09897e-09 1.89514e-10 2.32069e-10)
(0.00011209 9.43819e-09 6.46099e-09 1.13303e-09 1.83093e-10 2.35693e-10)
(0.000112081 -4.06437e-09 7.05794e-09 1.11856e-09 1.81711e-10 2.38892e-10)
(0.000112087 4.11688e-09 9.02493e-09 1.14897e-09 1.93833e-10 2.38076e-10)
(0.000112078 3.85451e-09 3.48359e-09 1.1667e-09 2.07079e-10 2.47978e-10)
(0.000112086 1.13823e-09 1.24306e-08 1.1693e-09 2.09795e-10 2.59188e-10)
(0.000112079 6.72344e-09 1.18344e-09 1.17802e-09 2.2177e-10 2.66513e-10)
(0.000112078 -8.08895e-11 1.34565e-08 1.1673e-09 2.3047e-10 2.73791e-10)
(0.000112086 8.23057e-09 2.42502e-09 1.17931e-09 2.27275e-10 2.64795e-10)
(0.00011207 -6.07646e-10 1.09561e-08 1.12697e-09 2.29125e-10 2.63731e-10)
(0.00011209 6.18971e-09 6.07374e-09 1.1455e-09 2.34893e-10 2.73494e-10)
(0.00011207 2.7544e-09 7.5737e-09 1.13187e-09 2.44653e-10 2.89149e-10)
(0.000112081 2.86639e-10 1.0552e-08 1.09605e-09 2.43136e-10 2.92614e-10)
(0.000112086 6.1002e-09 4.31597e-09 1.07311e-09 2.30368e-10 2.75372e-10)
(0.000112068 -2.60733e-09 1.32165e-08 1.07104e-09 2.2672e-10 2.48969e-10)
(0.000112092 5.50437e-09 3.43581e-09 1.07148e-09 2.31041e-10 2.27005e-10)
(0.000112069 -1.28506e-09 1.34869e-08 1.078e-09 2.27207e-10 2.15891e-10)
(0.000112093 6.72573e-10 4.12292e-09 1.05324e-09 2.13313e-10 1.98819e-10)
(0.000112076 3.13143e-09 1.09596e-08 1.01671e-09 1.86469e-10 1.95753e-10)
(0.000112086 2.13399e-09 9.49902e-09 8.48544e-10 1.45814e-10 1.88327e-10)
(0.000112086 -3.99763e-09 7.44286e-09 8.08354e-10 1.60836e-10 1.93876e-10)
(0.000112077 1.55023e-09 1.3154e-08 8.7352e-10 1.59876e-10 2.09677e-10)
(0.000112089 -6.53785e-09 4.48676e-09 8.13153e-10 1.65416e-10 2.13634e-10)
(0.000112076 -1.5309e-10 1.26864e-08 8.22472e-10 1.49296e-10 2.21294e-10)
(0.000112088 -8.49413e-09 4.83907e-09 8.10758e-10 1.52675e-10 2.17055e-10)
(0.000112075 -1.93719e-09 1.11325e-08 8.39635e-10 1.55748e-10 2.14912e-10)
(0.000112086 -1.18278e-08 5.41777e-09 8.48582e-10 1.41913e-10 2.36183e-10)
(0.000112084 -2.50825e-09 9.74661e-09 8.39292e-10 1.69776e-10 2.48316e-10)
(0.000112075 -1.40243e-08 6.91007e-09 8.65528e-10 1.69371e-10 2.59444e-10)
(0.000112099 -5.26698e-09 7.43096e-09 8.03227e-10 1.59925e-10 2.74506e-10)
(0.000112074 -9.77539e-09 9.55787e-09 8.4628e-10 1.44635e-10 2.81259e-10)
(0.000112094 -1.14169e-08 5.69803e-09 8.2574e-10 1.30974e-10 3.1489e-10)
(0.000112088 -3.06196e-09 1.14681e-08 8.70501e-10 1.56713e-10 3.27177e-10)
(0.000112084 -1.46743e-08 5.41342e-09 8.08436e-10 1.55251e-10 3.309e-10)
(0.000112099 -8.66149e-10 1.11834e-08 7.8316e-10 1.49488e-10 3.37553e-10)
(0.000112077 -1.2281e-08 7.21606e-09 7.56333e-10 1.42271e-10 3.07238e-10)
(0.000112104 -6.77832e-10 9.06606e-09 7.51204e-10 1.37242e-10 2.83775e-10)
(0.000112076 -8.8582e-09 9.24349e-09 7.52006e-10 1.29955e-10 2.6103e-10)
(0.000112098 -2.16661e-09 8.67322e-09 7.25991e-10 1.33722e-10 2.49973e-10)
(0.000112087 -1.97496e-09 8.64048e-09 7.51869e-10 1.39489e-10 2.61747e-10)
(0.000112086 -5.40602e-09 1.01689e-08 7.24379e-10 1.37615e-10 2.63396e-10)
(0.000112094 3.03747e-09 7.63521e-09 7.6052e-10 1.37213e-10 2.62833e-10)
(0.000112078 -2.65819e-09 1.08359e-08 6.91477e-10 1.361e-10 2.64139e-10)
(0.000112094 3.95673e-10 9.06093e-09 7.22996e-10 1.47404e-10 2.61813e-10)
(0.000112077 3.35942e-09 8.00798e-09 7.04138e-10 1.5341e-10 2.79239e-10)
(0.000112088 -6.98479e-10 1.27144e-08 7.31521e-10 1.5568e-10 2.94806e-10)
(0.000112078 5.42038e-09 5.00136e-09 7.39714e-10 1.57321e-10 2.99292e-10)
(0.00011208 -9.8185e-10 1.45241e-08 7.19371e-10 1.61456e-10 3.03746e-10)
(0.000112086 6.8889e-09 5.73375e-09 7.59973e-10 1.54821e-10 2.92408e-10)
(0.000112069 -2.39439e-09 1.24459e-08 7.25188e-10 1.53027e-10 2.96072e-10)
(0.000112092 6.71511e-09 9.09157e-09 7.95516e-10 1.63306e-10 3.058e-10)
(0.000112066 -2.52033e-09 9.48824e-09 7.68203e-10 1.7247e-10 3.15406e-10)
(0.000112084 3.63007e-09 1.27161e-08 7.80136e-10 1.79006e-10 3.12582e-10)
(0.000112082 7.5896e-11 6.86174e-09 7.73118e-10 1.65952e-10 2.91977e-10)
(0.00011207 -1.56373e-09 1.50493e-08 7.86588e-10 1.64191e-10 2.59938e-10)
(0.000112091 4.00995e-09 5.6791e-09 7.96025e-10 1.65468e-10 2.40366e-10)
(0.000112067 -4.73972e-09 1.54023e-08 8.34734e-10 1.64987e-10 2.25873e-10)
(0.000112096 3.79485e-09 5.8369e-09 8.09621e-10 1.54288e-10 1.97498e-10)
(0.000112073 -3.34356e-09 1.31427e-08 8.04935e-10 1.28177e-10 1.91153e-10)
(0.000112085 5.76116e-09 1.11923e-08 7.83863e-10 1.48576e-10 2.33532e-10)
(0.000112085 -1.01083e-08 9.6903e-09 7.14897e-10 1.50992e-10 2.64322e-10)
(0.000112076 5.07343e-09 1.52272e-08 8.25425e-10 1.51273e-10 2.89298e-10)
(0.000112086 -1.13019e-08 5.35993e-09 7.18959e-10 1.57138e-10 2.94389e-10)
(0.000112076 6.42008e-10 1.53282e-08 7.67047e-10 1.35294e-10 2.99053e-10)
(0.000112085 -1.03495e-08 4.86932e-09 7.55402e-10 1.37015e-10 2.95708e-10)
(0.000112074 -5.33326e-09 1.40428e-08 8.33125e-10 1.37967e-10 3.10229e-10)
(0.000112085 -1.0923e-08 5.22444e-09 8.03264e-10 1.22687e-10 3.34921e-10)
(0.000112083 -8.25289e-09 1.24527e-08 8.1027e-10 1.57543e-10 3.33615e-10)
(0.000112075 -1.35602e-08 7.28732e-09 8.10718e-10 1.21915e-10 3.46888e-10)
(0.000112101 -8.81001e-09 9.06649e-09 7.20288e-10 1.15237e-10 3.46015e-10)
(0.00011207 -1.30058e-08 1.13152e-08 7.97441e-10 9.80356e-11 3.41065e-10)
(0.000112099 -1.1586e-08 6.50113e-09 7.34392e-10 8.75984e-11 3.78788e-10)
(0.000112086 -8.89419e-09 1.37736e-08 8.18708e-10 1.30031e-10 3.78408e-10)
(0.000112086 -1.3974e-08 6.69026e-09 7.22754e-10 1.11085e-10 3.9058e-10)
(0.000112101 -6.60776e-09 1.32635e-08 7.41596e-10 1.01835e-10 3.85882e-10)
(0.000112079 -1.28854e-08 9.34864e-09 6.99837e-10 9.60682e-11 3.39001e-10)
(0.000112105 -4.45901e-09 1.09154e-08 7.33083e-10 1.06774e-10 3.21893e-10)
(0.000112077 -1.25215e-08 1.19953e-08 7.30017e-10 8.93629e-11 3.12845e-10)
(0.000112102 -2.33566e-09 1.04668e-08 6.6977e-10 1.05551e-10 3.09951e-10)
(0.000112085 -8.37175e-09 1.20655e-08 7.08858e-10 9.87718e-11 3.20486e-10)
(0.00011209 -3.9065e-09 1.2215e-08 6.3443e-10 9.52621e-11 3.19968e-10)
(0.000112095 -3.41968e-09 1.05705e-08 6.71856e-10 1.0732e-10 3.14411e-10)
(0.000112077 -2.80593e-09 1.43291e-08 5.65548e-10 9.66705e-11 3.18899e-10)
(0.000112097 -3.04926e-09 1.07418e-08 6.24131e-10 1.12192e-10 3.17136e-10)
(0.000112077 1.14005e-09 1.25692e-08 5.75697e-10 1.08872e-10 3.38547e-10)
(0.00011209 -1.79522e-09 1.41032e-08 6.4268e-10 1.22946e-10 3.46561e-10)
(0.000112078 2.64088e-09 9.39194e-09 6.39177e-10 1.15925e-10 3.41546e-10)
(0.000112081 -9.07696e-10 1.64231e-08 6.3144e-10 1.25154e-10 3.40699e-10)
(0.000112084 3.78609e-09 9.49698e-09 6.99195e-10 1.14377e-10 3.31298e-10)
(0.00011207 -2.3624e-09 1.50163e-08 6.75158e-10 1.08866e-10 3.36442e-10)
(0.00011209 5.05467e-09 1.25182e-08 7.65469e-10 1.21129e-10 3.39881e-10)
(0.000112065 -6.03878e-09 1.23229e-08 6.82128e-10 1.3502e-10 3.3681e-10)
(0.000112085 6.01223e-09 1.52905e-08 7.63475e-10 1.52208e-10 3.2856e-10)
(0.000112078 -6.455e-09 1.01359e-08 7.40872e-10 1.41458e-10 3.13289e-10)
(0.000112074 1.2677e-09 1.7199e-08 7.38621e-10 1.52733e-10 2.84508e-10)
(0.000112087 -4.11881e-10 8.57127e-09 7.72846e-10 1.40407e-10 2.80455e-10)
(0.000112069 -5.3855e-09 1.78524e-08 8.16477e-10 1.47471e-10 2.60949e-10)
(0.000112095 3.8562e-09 8.0813e-09 7.65298e-10 1.3436e-10 2.28583e-10)
(0.000112073 -7.98176e-09 1.59771e-08 7.89794e-10 1.20154e-10 2.27628e-10)
(0.000112083 6.69151e-09 1.39342e-08 8.91819e-10 1.54675e-10 3.1986e-10)
(0.000112085 -1.4049e-08 1.25868e-08 8.32722e-10 1.42255e-10 3.62672e-10)
(0.000112075 6.13243e-09 1.76149e-08 9.71864e-10 1.58623e-10 3.72004e-10)
(0.000112083 -1.50772e-08 7.353e-09 8.1464e-10 1.60391e-10 3.86479e-10)
(0.000112078 -2.56114e-11 1.76616e-08 9.04108e-10 1.42247e-10 3.91255e-10)
(0.00011208 -1.283e-08 6.32812e-09 8.62247e-10 1.45917e-10 3.91917e-10)
(0.000112075 -9.04649e-09 1.65196e-08 9.7662e-10 1.39895e-10 4.26365e-10)
(0.000112083 -1.13574e-08 6.73915e-09 8.88834e-10 1.32043e-10 4.38313e-10)
(0.000112081 -1.40641e-08 1.50499e-08 9.37054e-10 1.68047e-10 4.25197e-10)
(0.000112075 -1.34881e-08 9.2355e-09 8.80603e-10 8.82727e-11 4.40852e-10)
(0.000112101 -1.31534e-08 1.12223e-08 7.92498e-10 1.05033e-10 4.10825e-10)
(0.00011207 -1.61566e-08 1.40136e-08 8.96782e-10 6.90431e-11 4.10013e-10)
(0.000112101 -1.29127e-08 8.02097e-09 8.24301e-10 6.9496e-11 4.50368e-10)
(0.000112085 -1.56258e-08 1.69346e-08 9.5102e-10 1.07076e-10 4.41089e-10)
(0.000112088 -1.37773e-08 8.64657e-09 8.03916e-10 7.52915e-11 4.65857e-10)
(0.000112101 -1.36581e-08 1.65849e-08 9.13483e-10 5.97872e-11 4.36168e-10)
(0.000112081 -1.35797e-08 1.21565e-08 8.41944e-10 6.59702e-11 3.89948e-10)
(0.000112105 -9.91849e-09 1.42078e-08 9.47515e-10 1.00875e-10 3.79401e-10)
(0.00011208 -1.56164e-08 1.56646e-08 9.04175e-10 5.87106e-11 3.86774e-10)
(0.000112104 -5.01477e-09 1.32768e-08 8.65163e-10 1.06092e-10 3.80677e-10)
(0.000112085 -1.41374e-08 1.69963e-08 9.36676e-10 7.42716e-11 3.8591e-10)
(0.000112093 -4.56577e-09 1.4605e-08 8.03742e-10 8.67644e-11 3.79768e-10)
(0.000112096 -9.99566e-09 1.55609e-08 8.77695e-10 9.27701e-11 3.69821e-10)
(0.000112079 -3.74817e-09 1.76734e-08 7.32836e-10 8.20311e-11 3.84712e-10)
(0.000112099 -7.2586e-09 1.45198e-08 8.43407e-10 1.03763e-10 3.83446e-10)
(0.000112078 -7.24623e-10 1.70542e-08 7.61093e-10 8.50038e-11 4.12507e-10)
(0.000112091 -4.08603e-09 1.70955e-08 8.53778e-10 1.17724e-10 4.10692e-10)
(0.000112079 9.46052e-10 1.39653e-08 8.11991e-10 9.66179e-11 4.00762e-10)
(0.000112081 -2.10182e-09 1.95378e-08 8.42824e-10 1.23886e-10 3.98448e-10)
(0.000112084 1.80208e-09 1.35387e-08 8.88397e-10 1.00783e-10 3.94485e-10)
(0.000112071 -2.72677e-09 1.88934e-08 8.65357e-10 1.02164e-10 3.99185e-10)
(0.000112087 3.21659e-09 1.65787e-08 9.60823e-10 1.06821e-10 3.93876e-10)
(0.000112067 -8.43538e-09 1.63869e-08 8.15667e-10 1.36156e-10 3.78403e-10)
(0.000112084 6.67178e-09 1.89732e-08 1.01325e-09 1.45272e-10 3.68464e-10)
(0.000112075 -1.17901e-08 1.4593e-08 9.15106e-10 1.39718e-10 3.62632e-10)
(0.000112078 3.29529e-09 2.02662e-08 9.26103e-10 1.64906e-10 3.39539e-10)
(0.000112082 -5.68013e-09 1.284e-08 1.01052e-09 1.32664e-10 3.50698e-10)
(0.000112073 -5.03921e-09 2.06791e-08 1.00314e-09 1.66663e-10 3.21005e-10)
(0.000112092 1.65943e-09 1.17523e-08 9.12232e-10 1.2905e-10 3.00283e-10)
(0.000112076 -1.054e-08 1.91162e-08 9.64263e-10 1.38548e-10 3.02658e-10)
(0.000112081 3.33554e-09 1.80354e-08 1.18666e-09 1.44686e-10 4.38567e-10)
(0.000112085 -1.54985e-08 1.57003e-08 1.14761e-09 1.46556e-10 4.73261e-10)
(0.000112075 3.1384e-09 2.10435e-08 1.30766e-09 1.76612e-10 4.49662e-10)
(0.000112079 -1.74043e-08 1.01902e-08 1.11208e-09 1.71649e-10 4.933e-10)
(0.000112079 -3.54813e-09 2.07303e-08 1.23051e-09 1.60929e-10 4.82356e-10)
(0.000112074 -1.56227e-08 8.89572e-09 1.17621e-09 1.75473e-10 4.86184e-10)
(0.000112077 -1.39237e-08 1.9329e-08 1.315e-09 1.62712e-10 5.411e-10)
(0.000112079 -1.33805e-08 9.63197e-09 1.17971e-09 1.79529e-10 5.32372e-10)
(0.000112081 -2.03681e-08 1.80976e-08 1.26751e-09 2.08898e-10 5.21335e-10)
(0.000112076 -1.46612e-08 1.27153e-08 1.12093e-09 9.30494e-11 5.27488e-10)
(0.000112098 -1.86756e-08 1.4112e-08 1.02907e-09 1.39828e-10 4.6845e-10)
(0.000112071 -1.95594e-08 1.79343e-08 1.12867e-09 6.65662e-11 4.98786e-10)
(0.0001121 -1.57606e-08 1.0644e-08 1.07095e-09 8.1387e-11 5.26668e-10)
(0.000112085 -2.24481e-08 2.14514e-08 1.19547e-09 8.6142e-11 5.24451e-10)
(0.000112089 -1.46339e-08 1.14499e-08 1.02532e-09 6.39723e-11 5.54552e-10)
(0.000112101 -2.16913e-08 2.16582e-08 1.23225e-09 2.97247e-11 5.03036e-10)
(0.000112084 -1.49013e-08 1.56269e-08 1.11406e-09 6.61377e-11 4.73066e-10)
(0.000112103 -1.77741e-08 1.96618e-08 1.28986e-09 1.11999e-10 4.60904e-10)
(0.000112084 -1.89579e-08 2.02156e-08 1.1606e-09 5.06072e-11 4.83652e-10)
(0.000112105 -1.15612e-08 1.8297e-08 1.23345e-09 1.40234e-10 4.64344e-10)
(0.000112086 -2.01349e-08 2.30936e-08 1.27456e-09 6.85037e-11 4.63758e-10)
(0.000112095 -9.02288e-09 1.88089e-08 1.11169e-09 1.19376e-10 4.42525e-10)
(0.000112097 -1.70664e-08 2.21607e-08 1.2625e-09 8.87069e-11 4.34303e-10)
(0.000112081 -7.35831e-09 2.23015e-08 1.04526e-09 1.11033e-10 4.58139e-10)
(0.000112101 -1.20952e-08 2.01513e-08 1.24174e-09 1.19474e-10 4.59451e-10)
(0.000112081 -3.6332e-09 2.25144e-08 1.11585e-09 9.50704e-11 4.93318e-10)
(0.000112092 -6.93305e-09 2.15791e-08 1.20254e-09 1.38245e-10 4.8599e-10)
(0.000112081 -6.08333e-10 1.96114e-08 1.09954e-09 1.07875e-10 4.78647e-10)
(0.000112082 -3.87725e-09 2.40255e-08 1.18309e-09 1.57796e-10 4.72391e-10)
(0.000112084 6.15893e-10 1.87898e-08 1.14327e-09 1.12943e-10 4.84038e-10)
(0.000112072 -4.07747e-09 2.40569e-08 1.17267e-09 1.45349e-10 4.81808e-10)
(0.000112083 1.52357e-09 2.17042e-08 1.2606e-09 1.23875e-10 4.7168e-10)
(0.00011207 -1.16459e-08 2.14077e-08 1.08594e-09 1.86121e-10 4.45465e-10)
(0.000112081 6.12385e-09 2.38675e-08 1.41175e-09 1.5504e-10 4.4489e-10)
(0.000112073 -1.78433e-08 1.99134e-08 1.16495e-09 1.72292e-10 4.46241e-10)
(0.000112082 4.3247e-09 2.42538e-08 1.30257e-09 1.82482e-10 4.26807e-10)
(0.000112076 -1.30771e-08 1.82659e-08 1.38433e-09 1.45965e-10 4.55492e-10)
(0.000112078 -4.08025e-09 2.3863e-08 1.3155e-09 2.17763e-10 4.11256e-10)
(0.000112088 -4.15876e-09 1.68932e-08 1.22344e-09 1.19853e-10 4.15764e-10)
(0.00011208 -1.10973e-08 2.21773e-08 1.28749e-09 1.72034e-10 4.07278e-10)
(0.000112078 -3.57411e-09 2.46096e-08 1.79526e-09 1.24805e-10 5.85544e-10)
(0.000112085 -1.65258e-08 1.98891e-08 1.7545e-09 1.73876e-10 5.91979e-10)
(0.000112073 -3.67001e-09 2.66505e-08 1.9822e-09 2.02322e-10 5.45323e-10)
(0.000112075 -1.91413e-08 1.42039e-08 1.73281e-09 1.9444e-10 6.24847e-10)
(0.00011208 -1.02317e-08 2.58055e-08 1.90392e-09 1.84165e-10 5.84133e-10)
(0.000112068 -1.83503e-08 1.29049e-08 1.86711e-09 2.20779e-10 5.91686e-10)
(0.000112078 -2.07847e-08 2.43062e-08 2.03271e-09 1.90572e-10 6.5774e-10)
(0.000112076 -1.6172e-08 1.41722e-08 1.86032e-09 2.49754e-10 6.36338e-10)
(0.00011208 -2.80092e-08 2.34123e-08 1.98729e-09 2.73632e-10 6.2652e-10)
(0.000112078 -1.64094e-08 1.79413e-08 1.73622e-09 1.30087e-10 6.06804e-10)
(0.000112095 -2.65693e-08 1.98892e-08 1.60054e-09 2.0481e-10 5.43611e-10)
(0.000112074 -2.31383e-08 2.36475e-08 1.71088e-09 1.01139e-10 6.04963e-10)
(0.000112098 -2.20026e-08 1.65572e-08 1.63828e-09 1.1927e-10 6.04146e-10)
(0.000112087 -2.89321e-08 2.78099e-08 1.74136e-09 8.60615e-11 6.3123e-10)
(0.000112089 -1.93069e-08 1.72779e-08 1.60353e-09 8.92939e-11 6.54906e-10)
(0.000112101 -3.02575e-08 2.8901e-08 1.86738e-09 1.23985e-11 5.97047e-10)
(0.000112086 -2.04518e-08 2.16997e-08 1.72497e-09 9.08327e-11 5.78953e-10)
(0.000112101 -2.7995e-08 2.76223e-08 1.91004e-09 1.25224e-10 5.56824e-10)
(0.000112088 -2.54119e-08 2.7103e-08 1.6897e-09 7.44497e-11 5.96396e-10)
(0.000112103 -2.11558e-08 2.60436e-08 1.89508e-09 1.92237e-10 5.59501e-10)
(0.000112088 -2.77122e-08 3.11609e-08 1.81865e-09 9.62979e-11 5.48877e-10)
(0.000112097 -1.67731e-08 2.56052e-08 1.72068e-09 1.82227e-10 5.13177e-10)
(0.000112098 -2.53544e-08 3.08224e-08 1.95956e-09 1.02546e-10 5.18758e-10)
(0.000112085 -1.39581e-08 2.93425e-08 1.64431e-09 1.8552e-10 5.36844e-10)
(0.000112104 -1.76626e-08 2.81038e-08 1.95834e-09 1.46593e-10 5.44702e-10)
(0.000112085 -9.05726e-09 3.02545e-08 1.77375e-09 1.56087e-10 5.74746e-10)
(0.000112094 -9.95231e-09 2.83447e-08 1.78726e-09 1.82295e-10 5.77785e-10)
(0.000112083 -4.70329e-09 2.74734e-08 1.63737e-09 1.66515e-10 5.76291e-10)
(0.000112083 -5.46604e-09 3.05897e-08 1.76671e-09 2.18777e-10 5.70922e-10)
(0.000112084 -3.04886e-09 2.63737e-08 1.62596e-09 1.54534e-10 5.99306e-10)
(0.000112072 -5.07053e-09 3.14821e-08 1.76012e-09 2.26077e-10 5.79323e-10)
(0.000112078 -3.18577e-09 2.92927e-08 1.80332e-09 1.7174e-10 5.75791e-10)
(0.000112073 -1.401e-08 2.88578e-08 1.66153e-09 2.73357e-10 5.34382e-10)
(0.000112076 1.5824e-09 3.13018e-08 2.04072e-09 1.81712e-10 5.66692e-10)
(0.000112073 -2.29662e-08 2.7362e-08 1.67627e-09 2.45114e-10 5.5567e-10)
(0.000112084 1.63699e-09 3.05387e-08 2.01695e-09 1.87134e-10 5.35672e-10)
(0.000112072 -2.07842e-08 2.60811e-08 1.98525e-09 2.00555e-10 5.82743e-10)
(0.000112084 -5.09791e-09 2.90259e-08 1.9401e-09 2.81674e-10 5.25705e-10)
(0.000112084 -1.20137e-08 2.46361e-08 1.82689e-09 1.02849e-10 5.57545e-10)
(0.000112085 -1.193e-08 2.65885e-08 1.88888e-09 2.15632e-10 5.21088e-10)
(0.000112076 -1.25855e-08 3.39697e-08 3.05778e-09 1.10255e-10 7.64125e-10)
(0.000112085 -1.99488e-08 2.70012e-08 2.9928e-09 2.25025e-10 7.22948e-10)
(0.000112072 -1.29323e-08 3.53263e-08 3.36945e-09 2.46071e-10 6.76641e-10)
(0.000112072 -2.34044e-08 2.16328e-08 3.02332e-09 2.36889e-10 7.86585e-10)
(0.000112081 -1.92417e-08 3.42337e-08 3.29063e-09 2.19618e-10 7.11979e-10)
(0.000112063 -2.36392e-08 2.05117e-08 3.32853e-09 2.74003e-10 7.26882e-10)
(0.00011208 -2.944e-08 3.28414e-08 3.53092e-09 1.90555e-10 7.98329e-10)
(0.000112072 -2.18803e-08 2.23767e-08 3.31989e-09 3.19632e-10 7.83274e-10)
(0.000112081 -3.73283e-08 3.23196e-08 3.5467e-09 3.25848e-10 7.58623e-10)
(0.000112079 -2.09625e-08 2.63087e-08 3.14274e-09 1.53906e-10 7.13517e-10)
(0.000112092 -3.70441e-08 2.96648e-08 2.92898e-09 2.97283e-10 6.68633e-10)
(0.000112076 -2.87063e-08 3.23118e-08 3.0991e-09 1.68558e-10 7.42674e-10)
(0.000112095 -3.25304e-08 2.725e-08 2.89817e-09 1.75421e-10 7.13434e-10)
(0.000112089 -3.70961e-08 3.73732e-08 3.06221e-09 1.29023e-10 7.77576e-10)
(0.000112088 -2.98522e-08 2.81654e-08 2.97251e-09 1.50271e-10 7.8973e-10)
(0.000112101 -4.05762e-08 3.96481e-08 3.29762e-09 2.4938e-12 7.29563e-10)
(0.000112087 -3.26874e-08 3.29439e-08 3.14653e-09 1.21219e-10 7.23066e-10)
(0.000112098 -4.01922e-08 3.96695e-08 3.27529e-09 1.36339e-10 6.79809e-10)
(0.000112092 -3.82259e-08 3.91968e-08 2.97686e-09 1.13306e-10 7.37769e-10)
(0.000112103 -3.2973e-08 3.82367e-08 3.25188e-09 2.34369e-10 6.83669e-10)
(0.000112092 -4.09053e-08 4.39556e-08 3.06948e-09 1.42263e-10 6.46181e-10)
(0.000112099 -2.67629e-08 3.70542e-08 3.09466e-09 2.49066e-10 6.21462e-10)
(0.0001121 -3.93154e-08 4.42032e-08 3.45826e-09 1.40772e-10 6.38699e-10)
(0.00011209 -2.24516e-08 4.08925e-08 3.0094e-09 2.75729e-10 6.4844e-10)
(0.000112107 -2.85739e-08 4.07559e-08 3.50126e-09 1.74137e-10 6.56047e-10)
(0.00011209 -1.59397e-08 4.22409e-08 3.18566e-09 2.5652e-10 6.74875e-10)
(0.000112097 -1.77798e-08 3.97501e-08 3.06601e-09 2.34762e-10 7.14633e-10)
(0.000112086 -1.06449e-08 3.95465e-08 2.93461e-09 2.50143e-10 7.00414e-10)
(0.000112084 -1.14819e-08 4.14549e-08 3.05892e-09 2.83414e-10 7.09549e-10)
(0.000112085 -9.33944e-09 3.80119e-08 2.87391e-09 2.10742e-10 7.4284e-10)
(0.000112072 -1.02661e-08 4.27347e-08 3.12395e-09 3.44162e-10 7.06246e-10)
(0.000112074 -1.13039e-08 4.06951e-08 3.14948e-09 2.62997e-10 7.14386e-10)
(0.000112075 -1.94158e-08 3.98126e-08 3.06184e-09 4.02056e-10 6.60419e-10)
(0.000112072 -8.11164e-09 4.24046e-08 3.43599e-09 2.69643e-10 7.43688e-10)
(0.000112074 -2.98322e-08 3.79517e-08 3.02373e-09 3.58487e-10 6.87579e-10)
(0.000112085 -6.59033e-09 4.05547e-08 3.50211e-09 2.09238e-10 6.74743e-10)
(0.00011207 -2.96613e-08 3.70461e-08 3.31058e-09 3.08659e-10 7.39861e-10)
(0.000112089 -1.08766e-08 3.77555e-08 3.32426e-09 3.38689e-10 6.68303e-10)
(0.000112082 -2.14338e-08 3.54458e-08 3.08633e-09 9.3013e-11 7.20384e-10)
(0.00011209 -1.57906e-08 3.40155e-08 3.1739e-09 2.75559e-10 6.51003e-10)
(0.000112075 -2.89781e-08 4.99588e-08 5.70227e-09 1.09962e-10 9.93786e-10)
(0.000112085 -2.83334e-08 4.05257e-08 5.56445e-09 3.11401e-10 9.02813e-10)
(0.000112071 -2.90674e-08 5.03873e-08 6.26075e-09 3.38149e-10 8.63506e-10)
(0.00011207 -3.2579e-08 3.5464e-08 5.75488e-09 3.02531e-10 1.00519e-09)
(0.000112081 -3.48513e-08 4.90228e-08 6.21892e-09 2.9973e-10 9.14797e-10)
(0.000112059 -3.45478e-08 3.48905e-08 6.43131e-09 3.56072e-10 9.21738e-10)
(0.000112081 -4.41961e-08 4.81872e-08 6.61445e-09 1.88313e-10 1.02607e-09)
(0.000112069 -3.42253e-08 3.79242e-08 6.3594e-09 4.22962e-10 1.02004e-09)
(0.000112082 -5.27036e-08 4.87447e-08 6.7162e-09 3.37786e-10 9.41353e-10)
(0.000112079 -3.2956e-08 4.25388e-08 6.00743e-09 1.46529e-10 8.99052e-10)
(0.000112088 -5.36608e-08 4.7815e-08 5.73832e-09 4.38819e-10 8.68686e-10)
(0.000112079 -4.13347e-08 4.90214e-08 5.97105e-09 2.30199e-10 9.44073e-10)
(0.000112091 -5.04536e-08 4.70507e-08 5.51903e-09 2.49271e-10 8.939e-10)
(0.00011209 -5.26165e-08 5.51067e-08 5.92881e-09 2.07242e-10 1.00703e-09)
(0.000112087 -4.93094e-08 4.82114e-08 5.92812e-09 2.14219e-10 9.97705e-10)
(0.0001121 -5.77681e-08 5.84106e-08 6.37432e-09 -1.16023e-12 9.28271e-10)
(0.000112088 -5.34159e-08 5.34484e-08 6.18478e-09 1.44948e-10 9.46964e-10)
(0.000112096 -5.84574e-08 5.97982e-08 6.22273e-09 1.69372e-10 8.38837e-10)
(0.000112095 -5.95178e-08 6.04049e-08 5.75981e-09 1.67584e-10 9.47667e-10)
(0.000112102 -5.14136e-08 5.85641e-08 6.06802e-09 3.05925e-10 8.67617e-10)
(0.000112096 -6.35131e-08 6.56997e-08 5.83584e-09 2.39951e-10 7.86305e-10)
(0.0001121 -4.30929e-08 5.68522e-08 6.00827e-09 3.47193e-10 8.19228e-10)
(0.000112104 -6.25543e-08 6.64544e-08 6.61096e-09 2.48267e-10 8.23143e-10)
(0.000112096 -3.64922e-08 6.05686e-08 6.01294e-09 3.90953e-10 8.41868e-10)
(0.000112112 -4.90814e-08 6.24569e-08 6.7917e-09 2.1368e-10 8.24861e-10)
(0.000112097 -2.70519e-08 6.19447e-08 6.13065e-09 3.81553e-10 8.3958e-10)
(0.000112101 -3.51316e-08 6.0274e-08 5.90751e-09 2.61574e-10 9.24943e-10)
(0.00011209 -2.02948e-08 5.93719e-08 5.77856e-09 3.15435e-10 8.89405e-10)
(0.000112085 -2.71479e-08 6.13445e-08 5.84749e-09 3.18058e-10 9.21799e-10)
(0.000112086 -1.9391e-08 5.70651e-08 5.72211e-09 2.4944e-10 9.36101e-10)
(0.000112072 -2.53271e-08 6.24903e-08 6.11587e-09 4.94179e-10 9.14635e-10)
(0.00011207 -2.31362e-08 5.90317e-08 6.23602e-09 3.93586e-10 9.22548e-10)
(0.000112077 -3.40691e-08 5.85771e-08 6.15003e-09 5.74442e-10 8.66407e-10)
(0.000112068 -2.19233e-08 6.00316e-08 6.60628e-09 4.21634e-10 1.00212e-09)
(0.000112076 -4.44647e-08 5.58432e-08 6.10704e-09 5.09498e-10 8.81694e-10)
(0.000112086 -2.01826e-08 5.70905e-08 6.64008e-09 2.8121e-10 8.83429e-10)
(0.000112069 -4.60967e-08 5.51137e-08 6.27074e-09 4.62363e-10 9.61124e-10)
(0.000112093 -2.267e-08 5.33864e-08 6.20215e-09 4.08361e-10 8.69171e-10)
(0.000112081 -3.85688e-08 5.3329e-08 5.74654e-09 8.79862e-11 9.29582e-10)
(0.000112094 -2.53443e-08 4.826e-08 5.88722e-09 3.67832e-10 8.27525e-10)
(0.000112075 -5.82068e-08 7.89522e-08 1.11337e-08 1.11657e-10 1.36086e-09)
(0.000112086 -4.62777e-08 6.64188e-08 1.08437e-08 5.19613e-10 1.22417e-09)
(0.00011207 -5.78657e-08 7.80136e-08 1.21332e-08 5.39394e-10 1.19448e-09)
(0.000112068 -5.12373e-08 6.14281e-08 1.1347e-08 4.92737e-10 1.39981e-09)
(0.00011208 -6.31239e-08 7.65241e-08 1.23006e-08 5.4947e-10 1.30475e-09)
(0.000112057 -5.46975e-08 6.20511e-08 1.27787e-08 5.35031e-10 1.27588e-09)
(0.000112082 -7.05507e-08 7.7178e-08 1.28617e-08 2.55485e-10 1.4738e-09)
(0.000112066 -5.55909e-08 6.68508e-08 1.26221e-08 5.81291e-10 1.43207e-09)
(0.000112084 -7.8865e-08 7.93383e-08 1.30778e-08 2.72082e-10 1.27634e-09)
(0.000112079 -5.4559e-08 7.23706e-08 1.18398e-08 1.29486e-10 1.28096e-09)
(0.000112085 -8.12255e-08 8.05689e-08 1.15376e-08 6.64323e-10 1.22844e-09)
(0.00011208 -6.45722e-08 7.9907e-08 1.17252e-08 3.06044e-10 1.30166e-09)
(0.000112086 -8.14961e-08 8.23289e-08 1.0802e-08 4.09697e-10 1.24639e-09)
(0.000112091 -8.0706e-08 8.74944e-08 1.17593e-08 3.40731e-10 1.41818e-09)
(0.000112085 -8.31376e-08 8.37775e-08 1.19504e-08 3.34734e-10 1.36202e-09)
(0.000112099 -8.8012e-08 9.20603e-08 1.25483e-08 4.48469e-11 1.29219e-09)
(0.000112088 -8.84312e-08 8.96327e-08 1.23451e-08 1.93041e-10 1.3251e-09)
(0.000112095 -9.00232e-08 9.45752e-08 1.22489e-08 2.63782e-10 1.0864e-09)
(0.000112099 -9.50494e-08 9.66767e-08 1.14247e-08 2.54276e-10 1.32195e-09)
(0.000112101 -8.35339e-08 9.33132e-08 1.18021e-08 4.89419e-10 1.18037e-09)
(0.000112101 -1.00296e-07 1.02381e-07 1.15565e-08 4.55299e-10 1.08376e-09)
(0.000112101 -7.34093e-08 9.13637e-08 1.19957e-08 5.87032e-10 1.20818e-09)
(0.000112108 -9.99733e-08 1.03503e-07 1.29933e-08 5.41185e-10 1.17483e-09)
(0.000112104 -6.39989e-08 9.46481e-08 1.22866e-08 6.37582e-10 1.23654e-09)
(0.000112118 -8.34083e-08 9.88197e-08 1.33995e-08 3.7444e-10 1.15273e-09)
(0.000112104 -5.05385e-08 9.56708e-08 1.20701e-08 5.8685e-10 1.18525e-09)
(0.000112105 -6.59458e-08 9.54684e-08 1.18438e-08 2.86236e-10 1.31939e-09)
(0.000112094 -4.18353e-08 9.28273e-08 1.15375e-08 3.57108e-10 1.23743e-09)
(0.000112086 -5.65566e-08 9.58715e-08 1.15471e-08 2.99289e-10 1.27675e-09)
(0.000112088 -4.07288e-08 8.92973e-08 1.16049e-08 2.53396e-10 1.27631e-09)
(0.000112071 -5.43066e-08 9.627e-08 1.23075e-08 7.06314e-10 1.29117e-09)
(0.000112068 -4.5369e-08 8.99576e-08 1.26296e-08 6.05214e-10 1.28772e-09)
(0.000112079 -6.24905e-08 9.12615e-08 1.25553e-08 8.57561e-10 1.25967e-09)
(0.000112065 -4.56377e-08 9.00024e-08 1.33134e-08 6.93636e-10 1.4274e-09)
(0.000112078 -7.21202e-08 8.71973e-08 1.26051e-08 7.60707e-10 1.25887e-09)