/*--------------------------------*- C++ -*----------------------------------*\
  =========                 |
  \\      /  F ield         | OpenFOAM: The Open Source CFD Toolbox
   \\    /   O peration     | Website:  https://openfoam.org
    \\  /    A nd           | Version:  10
     \\/     M anipulation  |
\*---------------------------------------------------------------------------*/
FoamFile
{
    format      ascii;
    class       surfaceScalarField;
    location    "22.5";
    object      phi;
}
// * * * * * * * * * * * * * * * * * * * * * * * * * * * * * * * * * * * * * //

dimensions      [0 3 -1 0 0 0 0];

internalField   nonuniform List<scalar> 
74080
(
0.00628401
-1.5476e-06
0.00222135
0.00585941
-0.000163746
0.00355408
0.00521436
0.000745968
0.00134104
0.00502364
0.000378695
0.00140945
0.0052619
-0.000262391
0.00206176
0.00505784
-0.000130188
0.00157371
0.00597445
-0.000318444
0.00195406
0.00606
-0.00030747
0.00269944
0.00541396
0.000104446
0.00317293
0.00537608
0.000971945
0.00148467
0.00521276
0.000735772
0.00258082
0.00511738
-0.000566362
0.00260319
0.00581215
-0.000505487
0.00256783
0.0060564
0.000526783
0.0026345
0.00569105
0.00149659
0.000921366
0.00518046
0.000745106
0.000887815
0.0054775
3.73154e-05
0.00109051
0.00559994
0.000465922
0.00213915
0.00491805
0.00057309
0.00237866
0.00562543
0.000436253
0.000199741
0.00609135
0.00070844
0.00138441
0.00573787
0.00105187
0.00324445
0.00640181
0.000590556
0.000438349
0.00715008
0.000137512
-0.000144085
0.00622983
0.000447284
0.00254523
0.00546674
0.000210553
0.00201083
0.00612813
-6.40836e-05
0.00189515
0.00601988
0.000857535
0.00327889
0.00476308
0.000368122
0.00278556
0.00515024
0.000654993
0.000352278
0.00583289
0.00119487
1.58774e-05
0.00483196
-0.000544522
0.0023078
0.0045179
-0.000107681
0.00245325
0.00507411
0.00106468
0.000764498
0.00573052
0.000832164
-2.56711e-05
0.00571484
0.00107924
0.00147976
0.00607941
0.000295634
0.00192943
0.00572806
-0.000366303
0.0023322
0.00472988
0.000748782
0.00248171
0.00100276
0.000889441
0.00427239
0.000572947
0.000890438
0.00452318
0.000503778
-0.00100514
0.00487473
0.00103956
-0.0012372
0.00465348
0.000993604
0.000262623
0.00455115
5.54035e-05
0.000815562
0.00450717
-0.000102912
0.00055097
0.00472314
9.36714e-05
-0.000293972
0.00599028
-0.000249947
-0.00120648
0.0067422
-0.000575931
0.000154652
0.00575641
0.000752349
0.000850474
0.00505086
0.00110355
-0.00030685
0.00483964
-3.44157e-05
-0.000349802
0.0052278
-0.000619455
-0.00039178
0.00574552
-8.4009e-05
-0.00102593
0.00560353
0.00120377
-0.000893984
0.00552161
0.00090626
0.00022838
0.00597725
6.00097e-05
1.34664e-05
0.00652875
-0.000332931
-2.38578e-05
0.0061677
0.000309092
0.00123518
0.00569844
0.000484103
0.000482154
0.00582472
0.000319429
-0.0004133
0.00594007
0.000833532
-0.000318066
0.00624054
0.00118854
-0.00122761
0.00652728
0.000777499
-0.00188687
0.00576157
0.000988312
-0.000365304
0.00515045
0.00115005
0.00041894
0.00523057
0.000367199
-0.00033439
0.00514967
0.000295586
-3.65117e-05
0.00541856
0.000176884
0.000406167
0.00561164
0.000481177
0.00059649
0.00478864
0.00115757
0.00131717
0.00504361
0.000151819
-0.000481903
0.0063344
0.000140676
-0.00200608
0.00494894
0.00110613
0.00027444
0.00362265
0.00033209
0.00114212
0.00408342
0.000417602
0.000955764
0.00472138
0.000804157
-0.000601303
0.0057528
0.000111407
-0.00174826
0.00584913
0.000250997
-0.000167234
0.00086234
0.00128372
0.00505345
0.00072848
0.000553472
0.00416476
0.00157253
-0.000332693
0.00389579
0.000916515
-0.000317455
0.00462707
0.000696413
-0.000433495
0.00504589
0.000507815
-0.000345161
0.00445567
0.000566777
0.00054422
0.00436463
-0.000100674
0.000815835
0.00463492
-0.000952526
0.000859739
0.00456268
-0.000866497
0.00123274
0.00494857
1.76259e-05
0.000362665
0.00566842
0.000413043
-0.000461316
0.00527605
0.00110646
0.000561166
0.00501935
-9.08669e-05
0.00150447
0.00513397
-0.00052142
0.00109446
0.0044767
0.000732476
0.00156027
0.00427306
0.000221326
0.00150026
0.0043442
-0.000677638
0.000845457
0.00497369
-0.000760373
-0.000316685
0.00609554
0.000374005
-0.00156864
0.00586241
0.00083621
-0.000221399
0.00497306
6.6429e-05
0.0015011
0.00515291
-0.000828964
0.00198574
0.00490129
0.0012285
0.000937982
0.00497232
0.00160358
-0.000520066
0.00561922
-0.000259582
0.000698253
0.00525329
0.00148304
0.000367001
0.00520433
0.000725073
0.000107669
0.00488831
-0.000244207
0.000999282
0.0044139
0.000921897
0.000384959
0.00430434
0.000806251
0.000392202
0.00410919
0.00153293
-0.000312564
0.00417835
0.00107556
-0.00104515
0.00373316
0.000968715
-0.000441923
0.00406159
0.000977556
0.000533586
0.00466393
0.000161047
0.000618162
0.00449914
0.000626333
0.000346749
0.00463046
0.000865727
-7.24174e-07
0.00390834
-0.000286393
0.000951979
0.00416488
-0.000820003
0.000632994
-0.000738411
0.000291167
0.0041391
0.000127551
0.000954781
0.00393546
0.00151924
0.000353254
0.00410448
0.00133479
-0.000456013
0.00493879
0.000220025
-5.24719e-05
0.00519674
-0.000342724
1.17666e-05
0.00419746
0.000780017
9.68642e-05
0.00360406
0.000614665
3.46128e-05
0.00356082
-0.000222071
-7.78737e-05
0.00371527
-0.000200811
0.000244086
0.00400631
-0.000395771
0.000485921
0.00404495
0.000324853
0.000131698
0.00476318
0.000686436
-0.00015806
0.00403467
0.000196977
0.000586278
0.00311282
0.000190737
0.000880655
0.00416491
0.000200807
9.92489e-05
0.00438544
0.00036269
-0.000292264
0.00406578
-0.000300152
7.42633e-05
0.00427516
-0.000302681
-0.000505234
0.0043882
0.000636832
-0.000137612
0.00363024
0.00104976
0.000805797
0.00253553
0.00124522
0.000543994
0.00275113
8.26564e-05
-0.000326903
0.00430326
0.000202795
-0.000270827
0.00493126
0.000663885
-0.000389169
0.00535489
-0.000801599
-0.00026529
0.0052591
0.00098982
0.000656867
0.00510314
0.000883683
-1.87104e-05
0.00517135
-0.000139483
-0.000267117
0.00415235
0.000528557
0.00040212
0.00280905
0.00113811
0.00036331
0.00265938
0.00181242
0.000132473
0.0043148
5.85858e-06
-0.000534973
0.00542683
0.000497781
-0.000993603
0.00525896
0.00124274
-0.000180428
0.00479336
0.000147524
0.000917275
0.00395227
0.000652228
0.000493204
0.00356313
0.000824678
-0.000466016
0.00332819
0.000486822
-0.00044968
0.00334256
-0.000433584
-5.61357e-05
-0.00134508
0.00048207
0.00345526
8.18591e-05
-0.000802188
0.00502784
0.000822992
-0.00050589
0.00455417
0.00178176
-1.35224e-05
0.00338497
0.00108049
0.000481429
0.00338808
-0.000118488
-3.39149e-05
0.00451445
0.000390651
-0.00112315
0.00515567
0.000612533
-0.000729795
0.00445155
0.000295737
0.00038061
0.00376499
0.000446833
0.000515728
0.0042199
-0.000233555
-7.41369e-05
0.00458424
0.000481178
-0.000215192
0.00462571
0.000668497
0.000274244
0.00437868
-8.16119e-05
0.000486317
0.0041041
0.000426344
-0.000510841
0.0046013
-1.25506e-06
-0.000643129
0.00404668
0.000271741
0.000130885
0.00246027
0.00121465
-0.000403958
0.00276589
0.000449587
-0.00115269
0.00297177
0.0006929
-0.00052569
0.00314183
0.00146205
-0.000294833
0.00438175
0.000941026
-0.000489886
0.00385033
0.000663355
1.34232e-06
0.00341518
0.00015611
0.000603849
0.00364203
0.000147002
0.000965724
0.00370264
-0.00031259
0.000433339
0.00417329
0.000849166
-0.0010474
0.00399277
0.00102331
-0.000528774
0.00373798
-0.000219606
0.000594959
0.00388599
0.000151795
4.06131e-05
0.00401279
0.000770497
0.00033337
0.00458911
0.000601502
0.000582697
0.00492221
-0.000711034
0.000514338
0.00557353
-0.000181364
8.11783e-05
0.0053194
0.000547622
-0.000124157
0.0040526
0.000215099
0.000664351
0.00415089
0.000438498
-0.00011355
0.00466915
0.000588026
-0.00092904
0.00447714
0.000616799
-0.000156744
0.00337899
0.000123853
0.000421365
-0.000114138
0.000229629
0.00319331
0.00040543
-0.000930732
0.00348749
0.000472636
-0.000261025
0.0042269
0.00064072
0.000301152
0.00485648
0.000564927
-0.000402938
0.00399122
0.000771855
-1.60118e-05
0.0034877
0.000789953
0.000396034
0.00416645
-5.91034e-05
-0.00011805
0.00475361
-9.83629e-05
-0.000463735
0.00474579
0.000707618
-0.000552618
0.00429838
5.97073e-05
0.000409136
0.00353232
0.00112873
0.000620227
0.0026196
0.00173467
0.000119425
0.00303731
-0.000130954
3.75518e-05
0.00369927
-0.00014358
0.000299593
0.00259583
0.000911926
0.000257864
0.0029509
-0.000205872
0.000312685
0.00379037
0.000309818
0.000167426
0.00346238
0.000761524
-0.000367062
0.00390484
0.00022125
-0.000281088
0.00401577
0.000870701
0.000325309
0.00333133
0.0011501
8.50274e-05
0.00276471
0.000987965
-0.000116851
0.00307357
0.000435646
-0.000861294
0.00339075
6.47708e-05
-0.000412852
0.00365796
-0.000667982
0.000419312
0.00390127
0.000526517
0.000158051
0.00318014
0.00150301
0.000763583
0.00300188
0.000158886
-8.54519e-05
0.00312803
0.00011791
-0.000696707
0.00348565
0.000419857
0.000169963
0.00417159
-0.000131721
-2.46951e-05
0.00401222
-0.000107358
-0.000331694
0.00415653
0.000426905
-0.000443237
0.00382935
0.000694689
-4.60031e-05
0.00320485
0.000681467
0.000257553
0.00426756
0.00010786
-0.000124902
0.00454451
0.000105821
0.000292253
0.00380552
3.92884e-05
0.000976023
0.00340838
0.000128928
0.000461151
0.00100151
-0.000402166
0.00249142
0.000960109
0.000854152
0.00221545
0.000939817
0.000454025
0.00347958
-3.42215e-06
-0.000312842
0.00380943
0.000208463
-0.00041382
0.00287943
0.00125307
-0.00015104
0.00258382
0.000430721
0.000590838
0.00271145
-0.000586852
0.000728404
0.00289254
-4.37806e-05
-0.000101734
0.0030169
0.000752044
-0.00013756
0.00267691
0.000471314
-0.000390443
0.00317097
0.00106342
-0.000681393
0.00390311
0.000956968
4.26731e-05
0.00377925
-0.000418701
0.000574187
0.00397736
-0.00026151
0.000332785
0.00362966
0.00122758
-0.000185224
0.00283896
0.000593796
0.000175583
0.00328682
-0.000171598
0.00108898
0.00307943
0.000166592
0.000567815
0.00277255
-1.9662e-05
-5.63959e-05
0.00410106
-9.90646e-05
-3.55009e-05
0.00508104
0.00043472
1.08196e-05
0.00477472
0.000862898
0.000235421
0.00381808
0.00100355
-0.000133989
0.00252725
0.00100189
-1.93644e-05
0.00150477
-9.2477e-05
0.000469686
0.00226904
-0.000107113
0.000607431
0.00292483
0.000838769
0.000241382
0.00274337
0.000386515
-9.57728e-05
0.00334189
-0.00023683
0.000550883
0.00345981
0.000237086
0.000447155
0.00262699
0.000334749
0.000499745
0.0027993
-0.00019839
0.000416974
0.00428382
-0.000556937
-0.000301609
0.00432589
0.000584725
3.28797e-05
0.00359029
0.00111587
0.000220261
0.00380922
-0.000133975
0.000252689
0.00388817
0.000248705
0.000308501
0.00354996
0.000786973
-0.000351034
0.00385382
0.000476395
-0.000533585
0.00102084
0.000148548
0.00348523
0.000608552
7.29003e-05
0.00355356
0.000817359
0.00035043
0.00328012
0.000474812
0.000284144
0.00377937
-5.06003e-05
-0.000254269
0.0040434
0.000558626
0.000119001
0.00302662
0.00101296
0.000359312
0.00257748
-9.02871e-06
0.000168237
0.00282378
-0.000202426
0.000153082
0.00295405
0.000836604
-0.000188096
0.00336274
0.000159684
-0.000386117
0.00334859
0.000354306
0.000180548
0.0026204
0.000878442
0.00041888
0.00224419
0.000172728
-0.000389565
0.00239909
0.000153818
-0.000600342
0.00342764
0.000306979
-0.000300314
0.00358765
0.000294403
-0.00013705
0.00306886
0.000327037
7.8061e-05
0.00296549
0.000368309
3.56972e-06
0.00271589
0.000343584
0.000187809
0.00315609
-9.70439e-05
-0.000223398
0.00375832
-5.83761e-05
8.73705e-05
0.00370541
0.000634577
0.000325827
0.00382208
0.000855345
-0.000208521
0.00375964
0.000627681
6.93214e-05
0.00277348
0.000430088
2.28932e-05
0.00255446
0.000162118
5.49022e-05
0.00280734
0.000420615
0.000236296
0.00270436
0.000669277
-0.000353458
0.00243198
0.000300683
-2.42893e-05
0.00176919
0.000681115
0.00043691
0.00152594
0.000519257
0.000285901
0.00245015
-0.000572746
3.65297e-06
0.00345579
-0.00074287
-0.000164261
0.00344599
0.000713682
0.000324113
0.00328595
0.00075814
0.000521121
0.00300792
-3.78044e-05
-0.000157726
0.00285609
0.000806709
-0.000425009
0.00281974
0.00114689
-9.89531e-05
0.00261643
0.00094107
-9.5894e-05
0.00092348
-0.000137886
0.00318208
-9.85899e-05
-6.06588e-05
0.00367803
-9.85461e-05
0.000336246
0.00357618
0.000230277
0.000630729
0.00347911
-0.000103526
0.000268111
0.00367201
0.000212933
-0.000322109
0.00317498
0.00146964
-0.000440595
0.00228091
0.00102448
0.000122367
0.0019132
0.000529098
8.29352e-05
0.00220027
0.000887988
-8.83577e-05
0.00275622
-0.000206613
-9.31317e-05
0.00342574
-0.000312341
-0.000205371
0.00330879
0.00100696
5.5059e-05
0.00261653
0.00106097
0.000224893
0.00287316
0.000290013
-0.000119729
0.00299034
0.000202236
0.000104297
0.00229944
0.000927844
0.000349349
0.00280204
7.66554e-05
-0.000362731
0.00287671
0.000433629
-0.000369654
0.00246526
0.000736408
6.48301e-05
0.00290542
-0.000466837
-0.000303012
0.00298034
3.76146e-05
0.000164756
0.00307142
0.000519963
0.000240353
0.00340978
0.000230359
-7.15111e-05
0.00316559
0.000600958
0.000246928
0.00243281
0.00129879
-0.000106973
0.00260873
0.000398993
-0.000542752
0.00282856
0.000533077
-0.000195173
0.00277525
0.000743723
-0.000126639
0.00304052
-0.000109916
-0.000396571
0.00304713
0.000439921
-0.000128348
0.00275149
0.000765266
0.000115466
0.00268544
-0.000498018
0.000333965
0.00240644
-9.96429e-06
-0.000185167
0.00255904
0.000789115
-0.000300148
0.00323605
2.87069e-06
-5.82579e-05
0.00253298
0.00067849
-0.000206009
0.00163014
0.00168927
-0.000293192
0.0015171
0.0015836
-7.39624e-06
0.00168904
0.00104449
0.000281709
0.000479049
0.000165906
0.00197728
0.000315009
-0.000194354
0.00180419
0.000289286
-0.000332021
0.00223666
-0.000139375
0.000140275
0.00224396
-0.000132306
0.000355873
0.00221493
0.000370566
0.000107369
0.00277358
0.000937517
-0.00014177
0.00263182
0.00104354
-2.21451e-05
0.00213949
0.0010888
0.000130281
0.00248545
0.000659051
5.93541e-05
0.0024305
7.51131e-05
-6.04937e-05
0.00259037
1.19623e-05
-0.000224715
0.00316389
0.000703338
-5.95505e-05
0.0031645
0.00117028
-5.90731e-05
0.00317591
0.000510642
-0.000238657
0.00293901
0.000627532
-0.00014986
0.00266398
0.0011942
0.000244047
0.00271142
0.000189697
0.000161721
0.00268963
0.00070329
-0.000119986
0.00239827
0.00111419
6.36428e-05
0.00208043
0.000129123
-0.000162829
0.00252125
-6.17697e-05
-0.000236148
0.00269352
0.0004839
-0.000328549
0.00253855
0.000598722
-0.000348745
0.00261311
0.00098298
-0.000408073
0.00227126
0.00154929
-0.000122898
0.00207971
0.000508266
6.34393e-05
0.00221076
0.000426244
-0.00014226
0.0021869
0.000483743
-2.04833e-05
0.00261578
-0.000317558
-0.000274259
0.00301387
0.000297452
-0.000143737
0.00267675
0.000918499
-1.98488e-05
0.00227834
-0.000185877
-0.000304442
0.00207286
5.03293e-05
0.000143483
0.002202
0.000504301
0.000106994
0.00229911
-0.000106168
-0.000131607
0.00169765
0.00102521
0.000232776
0.00174158
0.00131294
5.93793e-05
0.00200395
0.00121421
-7.29162e-05
0.00223476
0.000829765
0.000315219
4.03049e-06
0.000222215
0.00234964
0.000419875
-0.000124584
0.00206314
0.000563841
-0.00023637
0.00201404
5.48166e-05
-0.000320029
0.00206052
7.85934e-05
-0.000200152
0.00218474
0.000416731
-0.000165768
0.00236572
0.000823788
-0.000206983
0.00241264
0.000832756
1.11769e-05
0.0025271
0.000916398
0.000141299
0.00262082
0.000488496
0.000112727
0.00221591
0.000318275
0.000254833
0.00216689
0.000210741
0.000146894
0.00248161
0.000442381
5.1711e-06
0.0023308
0.00126575
-0.000216934
0.00200481
0.000980688
-0.00024238
0.00204331
0.000659586
-9.04589e-05
0.00217233
0.000862926
4.70989e-05
0.00199158
0.000437442
-0.000116859
0.00236304
0.000554778
-0.000286377
0.00280309
0.000572206
4.4534e-05
0.00242549
0.000358559
7.73901e-05
0.00240546
2.1565e-06
-0.000145937
0.00239217
0.000367558
4.05803e-05
0.00186305
0.00105487
4.35249e-05
0.00194385
0.0010014
-0.000144291
0.00259256
0.000636659
-6.46939e-05
0.00237929
0.00059148
9.29684e-05
0.00238461
0.000575251
1.95475e-05
0.00263324
0.000350877
7.96077e-05
0.00225955
0.000197523
-6.53616e-05
0.00216564
0.000362327
6.52015e-05
0.00237704
0.000706162
-3.18648e-05
0.0024779
-3.2636e-05
-0.000400094
0.0025318
-0.000115912
5.6127e-05
0.00218759
0.000469741
-1.80771e-06
0.00139566
0.000385891
-0.000284153
0.00118514
0.00111175
6.00547e-05
0.00203402
0.000582406
-0.000428605
0.0026913
0.000619732
-0.000311621
0.00255007
0.000948572
0.000330635
0.000101926
3.1033e-05
0.00207103
0.000566551
-0.000219313
0.00174129
0.000910109
-0.000166744
0.00181845
2.89535e-05
-0.000183634
0.00170775
0.000160024
-0.000184451
0.00144439
0.000730491
-0.000400747
0.00203149
0.000407063
-0.000423694
0.00225537
0.000593066
-0.000103933
0.00196274
0.00121595
-1.72249e-05
0.00204265
0.000465157
-0.000161649
0.00209712
0.000259362
-6.17435e-05
0.0021024
0.000215422
0.000186998
0.00206533
0.00040703
8.97692e-05
0.00193462
0.00135674
-0.000199853
0.00150429
0.0014207
-0.00011935
0.00135082
0.000945246
-6.35438e-05
0.00182302
0.000569043
-0.000251285
0.00225713
0.000101969
-0.000233223
0.00272024
6.01077e-05
-4.65884e-05
0.00279077
0.000314652
0.000103371
0.00191664
0.000940454
0.000369102
0.0015068
0.00041676
0.000243267
0.00197138
-2.27506e-05
-2.12441e-05
0.00162846
0.00135894
7.22065e-05
0.00134382
0.00116869
0.000136436
0.00230462
-0.00044813
-0.000139022
0.00234307
0.000510637
-2.67355e-05
0.00189287
0.00111177
-0.000140386
0.00239014
0.000166746
-0.000342626
0.00245424
0.000296497
-7.10965e-05
0.00233576
0.000322808
2.85392e-06
0.00255326
0.000457419
-0.000195619
0.00225356
0.000311812
-0.000193998
0.0020875
2.24195e-05
-9.07919e-05
0.00229381
0.000117662
-0.000221
0.00206927
0.000346528
-0.000266095
0.00209471
0.00108279
5.24409e-05
0.0024131
0.000391409
-0.000146068
0.0023338
0.000600587
-2.06496e-05
0.00220104
0.00105839
1.65029e-05
0.000119888
-0.000259714
0.00190776
0.000767261
-0.000113481
0.00161253
0.00126071
-0.000162263
0.0017309
9.12028e-05
-0.000231236
0.00184391
0.000201741
-0.000210382
0.00164639
0.000914738
-0.000155965
0.00186984
6.22171e-05
-0.000136434
0.00199146
0.000442656
-9.84529e-05
0.00194693
0.00124596
-0.000160133
0.00192742
0.000489098
-0.000242027
0.00198701
0.000295413
-0.0003029
0.0021167
0.000147928
-0.000150852
0.00208214
0.000414954
-0.000146926
0.00199942
0.00151433
-0.000186673
0.00171028
0.00183148
-9.03776e-05
0.00168988
0.000952517
2.26612e-05
0.00194539
0.000176467
-0.000156102
0.00197835
0.000118186
-0.000379037
0.00229383
-6.06992e-05
-0.000358403
0.00258256
-4.14443e-05
-5.68383e-05
0.00220362
0.00129626
-6.49096e-05
0.00185081
0.000632722
0.000119618
0.00187325
-0.000237908
0.000171609
0.00160359
0.0016355
6.43055e-05
0.00166508
0.00102279
0.000107178
0.00206307
-0.00079098
-0.000182335
0.0022233
0.000587373
-0.000297929
0.00208577
0.00122957
2.43101e-05
0.00213012
0.000202283
-0.00010835
0.00229209
0.000385361
-0.000259372
0.00240935
9.4192e-05
-5.41549e-05
0.00244836
0.000208048
-0.000176135
0.002317
0.000479651
-1.48867e-05
0.0021825
0.000176973
-1.77638e-05
0.00186381
0.000320466
-0.000245153
0.00157772
0.000334949
-0.000224722
0.00176462
0.000741418
-9.46425e-05
0.00231678
6.75306e-05
-0.00029643
0.00234618
0.000509663
-0.000115148
0.00221099
0.00107419
-6.63711e-06
0.00013806
-0.0001061
0.00172781
0.000695912
-0.000243602
0.0015544
0.00142461
-0.000158414
0.00162729
0.000191505
-0.000162065
0.00164649
0.000164342
-8.63037e-05
0.00160919
0.000937067
-0.000125679
0.00188298
-9.16816e-05
-6.12333e-05
0.00173382
0.000610801
-7.0326e-05
0.00166732
0.00135722
-0.000236599
0.00225315
6.92252e-05
-0.000185242
0.00220926
0.000395077
-0.000109164
0.00182383
0.000454574
-6.50897e-05
0.00167252
0.000558706
-0.000164485
0.00186526
0.00143088
-0.000151665
0.00212078
0.00162045
-0.000106992
0.0018634
0.00121493
-0.000186865
0.00176521
0.000302523
-0.000197995
0.00183542
6.12945e-05
-0.000222105
0.00189956
-6.20705e-05
-0.000174287
0.00188255
7.59818e-06
-5.81009e-05
0.00186472
0.00141139
-0.000169004
0.0015769
0.000798395
5.39595e-05
0.00142649
-0.000411637
6.7378e-06
0.00180457
0.00116319
-5.44472e-05
0.00208173
0.000641848
8.30354e-05
0.00194056
-0.000644379
-0.000229778
0.00194999
0.000740594
-0.000343871
0.00189444
0.00126541
-9.02982e-05
0.00172234
0.000353589
-8.53581e-05
0.00189125
0.00039127
-0.000210352
0.00207456
-3.86832e-05
-4.76655e-05
0.00220059
5.53914e-05
-7.30526e-05
0.00210197
0.000586488
1.68899e-05
0.00202281
0.000116902
0.000149515
0.00200398
0.000199003
-5.86281e-07
0.00191917
0.000167928
-5.02546e-05
0.00160619
0.000875057
-0.000125501
0.00160245
0.000318356
-0.000368099
0.00199259
0.000101583
-0.000152614
0.00183816
0.000978166
-3.4848e-05
0.000317086
-0.000232028
0.00147485
0.0005135
-0.000223886
0.00144806
0.0013232
-0.000165627
0.00144222
0.00028297
-0.000146139
0.00145816
0.000162203
-0.000144034
0.00163008
0.00069615
-9.52904e-05
0.00168163
-7.27009e-05
-4.08942e-05
0.00139525
0.000976726
-0.000114817
0.00142908
0.00133894
-9.35731e-05
0.00178818
-0.000189442
-0.000175569
0.00187863
0.000511744
-0.000327552
0.00174324
0.000646089
-0.000113605
0.00134472
0.000931901
-4.73695e-05
0.00152788
0.00124639
-7.92493e-05
0.00202862
0.0009035
4.50404e-05
0.0017724
0.001328
1.37208e-05
0.00145512
0.000624174
-9.90372e-05
0.00162293
-0.00014443
-0.000107403
0.00174202
-0.000212887
-0.000143784
0.00168449
6.44087e-05
-0.000203557
0.00172042
0.00134585
-0.000124009
0.00135421
0.000942455
1.12799e-05
0.00127556
-0.000429217
-0.000399531
0.00188926
0.000534641
-0.000141139
0.00185261
0.000503274
0.000104352
0.00164689
-0.000381894
-0.000303736
0.00182223
0.000660128
-0.000273969
0.00178805
0.00115066
-4.31676e-06
0.00183078
0.000294474
-4.49555e-05
0.00195129
0.000402674
-0.000168323
0.00184674
7.06519e-06
-1.39677e-05
0.00168237
0.000141879
6.14145e-05
0.0014873
0.000748802
-1.08124e-05
0.00150341
-3.82578e-05
3.57107e-05
0.00162199
-0.000113309
4.71875e-05
0.00166685
3.54568e-05
-2.40322e-05
0.00181094
0.000777835
-6.04018e-05
0.00186858
0.000445214
-0.000113611
0.0017395
0.000119671
9.2971e-06
0.00147302
0.000854216
6.31146e-05
0.000145355
-2.20077e-05
0.00163946
0.000386208
-0.000224191
0.00188542
0.00103535
-6.81582e-05
0.0016617
0.00044668
3.29457e-05
0.00139363
0.000397573
-7.32481e-05
0.00150271
0.000621456
-9.15204e-05
0.00148128
-2.50401e-05
-2.22325e-05
0.0012738
0.00114956
-4.43426e-05
0.00145164
0.00113452
-2.1574e-05
0.0016068
-0.000357576
-9.00788e-05
0.0016324
0.000557309
-0.000201483
0.00163638
0.000770307
-0.000133526
0.00123736
0.00127477
1.10681e-05
0.00126995
0.00112348
-3.04211e-06
0.00171219
0.000239428
9.55895e-05
0.00183942
0.00103365
3.95569e-05
0.00172539
0.000577299
-7.08692e-06
0.00158218
-0.00017042
7.73693e-05
0.00152217
-0.000160271
-0.000126886
0.00177759
-0.000174139
-0.000321193
0.00180509
0.00121791
1.47148e-05
0.00145255
0.00121138
7.83455e-07
0.00112727
-3.46765e-05
-0.00037033
0.00134357
0.00021501
-0.00015848
0.00155632
0.000121184
6.35221e-05
0.0013873
-0.000174978
-0.000188644
0.00144761
0.000737817
-0.000302497
0.00122009
0.00129299
-4.73892e-05
0.0010626
0.000357396
-0.000148065
0.00150913
4.19341e-05
-0.00022151
0.00178184
-0.000149976
-0.000113224
0.00177041
3.14472e-05
2.893e-05
0.00161074
0.000579598
2.61538e-05
0.0014515
-0.00034336
0.000111217
0.00141317
-0.000405112
0.000141488
0.00149853
-0.000114512
1.8254e-05
0.00158998
0.000682493
-6.69118e-05
0.00144012
0.000625292
-0.000140398
0.00127704
7.82722e-05
-8.31212e-05
0.00135276
0.00056034
5.32585e-05
0.000102274
8.58931e-07
0.0014212
0.000243678
-0.000213992
0.00152685
0.000940135
-0.000153592
0.00138719
0.000576694
-2.62124e-05
0.00150705
0.000212336
3.92702e-05
0.00142971
0.000596676
3.87993e-05
0.00128758
6.1386e-05
-5.34412e-05
0.00123249
0.00117792
-1.91211e-05
0.00138518
0.000903403
3.30272e-05
0.00143039
-0.000341888
-0.000173201
0.0013858
0.000642603
-0.000101608
0.00154011
0.000730833
-0.000146176
0.00141338
0.00134354
-1.61534e-05
0.00128947
0.00113037
3.11631e-05
0.00156671
-0.000109776
-4.12217e-05
0.00169428
0.000790314
-2.94587e-05
0.00160537
0.00044376
3.05236e-05
0.00142852
-0.000108026
-9.7141e-06
0.0013149
-3.80538e-06
-0.000117509
0.00156284
-0.000302204
-0.000292376
0.00162307
0.00113945
-9.81171e-05
0.00139783
0.00130365
4.11613e-05
0.00110365
0.00041773
-0.000208071
0.00145165
-0.000100989
-0.000204835
0.00155626
-0.000100741
4.4343e-05
0.00124113
0.000117766
-8.13118e-05
0.00154509
0.000435122
-0.00028814
0.00124298
0.00142869
-4.83034e-05
0.00103265
0.000526102
-0.000116418
0.00161275
-0.0005727
-0.00013658
0.00150623
-2.6822e-06
-2.24204e-05
0.00109198
0.000363509
-8.65697e-05
0.000817909
0.000715526
-0.000101725
0.000718944
-0.000459317
-2.46067e-05
0.00101035
-0.00100172
8.22255e-05
0.00143604
-0.000649176
-7.00312e-05
0.00153677
0.000569174
-0.000196697
0.00126417
0.000889792
-9.29053e-05
0.00117698
2.54345e-05
-9.06563e-05
0.00125904
0.000432041
-0.00015861
0.000310558
-0.000249608
0.00123875
0.000170874
-9.5346e-05
0.00124904
0.00089749
-0.000116933
0.00114637
0.000641067
-2.89257e-05
0.00131618
-8.44076e-06
2.28331e-05
0.001279
0.000608777
-2.05451e-05
0.00126111
0.000110835
-0.000136143
0.00145061
0.000900422
-7.69207e-06
0.00149178
0.000714213
1.10098e-05
0.00123144
-9.97889e-05
-0.000173843
0.00105078
0.000836434
-8.79618e-05
0.0013015
0.000444435
-0.000105274
0.00146782
0.00109896
-1.64925e-05
0.00121435
0.00130737
2.11825e-08
0.00117678
-2.77937e-05
-0.000240043
0.0013847
0.000460488
-7.35378e-05
0.00136649
0.000225189
5.35703e-05
0.00131472
-5.51295e-05
-0.000131723
0.00129295
0.000101069
-0.000145507
0.00134833
-0.000225044
-0.000249988
0.00147893
0.000993188
-0.000158056
0.00128813
0.0013798
2.3171e-05
0.00102611
0.000813481
-0.000228027
0.00139981
-0.000377998
-0.000166919
0.00138976
-0.000147082
4.4039e-06
0.00117114
0.000376962
-0.000108326
0.0014188
0.000103653
-0.000107254
0.00137713
0.00131105
-9.4733e-05
0.00101092
0.000831706
-3.59741e-05
0.00112782
-0.0007225
-0.000219292
0.00140063
-0.000141813
-0.000203526
0.00111887
0.000708506
-0.000151478
0.000931878
0.000859721
-0.00010953
0.000892951
-0.000375179
-9.4817e-06
0.000979656
-0.00123209
-0.000127314
0.00120409
-0.000786374
-0.000353855
0.00132206
0.000569002
-0.000305882
0.0011598
0.000965203
-5.04071e-05
0.00113949
-9.64078e-05
-7.48453e-06
0.00128129
0.000245412
-0.00011521
0.000553505
-0.000191996
0.000881368
0.000316308
-9.79369e-05
0.000898233
0.000807883
-5.8756e-05
0.000971503
0.0004178
-6.18493e-05
0.00115311
-0.000296443
-2.03312e-05
0.00119379
0.000618288
-0.000127186
0.00111547
0.000200311
-0.000107093
0.00131702
0.000535967
2.26996e-05
0.00144856
0.000511112
-6.02029e-05
0.00122074
0.00014861
-0.000174992
0.00115021
0.000878944
-6.17908e-05
0.00132562
0.00018053
-5.29526e-05
0.00132357
0.00097922
-2.91733e-05
0.00107238
0.00146716
-2.99473e-05
0.000977218
0.000115991
-0.000260057
0.00117448
0.000166229
-8.43538e-05
0.00111792
0.00013833
-4.67128e-06
0.00106499
4.64002e-05
-0.000172049
0.00119796
1.34553e-06
-6.06665e-05
0.00114168
-5.14403e-05
-0.000231807
0.00124831
0.00076955
-0.000125478
0.00121253
0.00123908
0.000149594
0.000962911
0.00117466
-0.00023906
0.00119377
-0.000589173
-0.000148857
0.00121837
-0.000227966
-7.47926e-06
0.00091739
0.000774045
-0.000109831
0.00095408
6.98842e-05
-0.000150371
0.00115369
0.00100959
-0.000111219
0.000935663
0.000957521
-2.96782e-05
0.0008868
-0.000725465
-0.000197034
0.00118758
-0.000288825
-0.000163079
0.00109293
0.000806854
-7.34871e-05
0.000947194
0.000970766
-8.80321e-05
0.00088029
-0.000193736
3.97885e-05
0.000863272
-0.00114241
-0.000225495
0.00104919
-0.000836573
-0.000353556
0.00114119
0.000670716
-0.000307212
0.000876435
0.00124072
-0.000160267
0.000925965
-0.000297263
-4.89834e-05
0.00109973
3.85692e-05
-0.000204824
0.000792531
-0.000177635
0.000859924
0.000365318
-1.98473e-05
0.000966876
0.000690516
-1.19512e-06
0.000862752
0.000406021
-2.56758e-05
0.000944503
-0.000396091
-0.000165249
0.00106552
0.000654122
-0.000214856
0.000899991
0.000331212
-7.15866e-05
0.00103933
0.000263181
4.32448e-05
0.00124309
0.000286229
-6.63341e-05
0.00116531
0.000251245
-0.000135317
0.00127964
0.000675494
1.85973e-06
0.0013305
6.98646e-05
-1.72467e-05
0.00117937
0.00110765
-0.000120943
0.00107378
0.00157728
-0.000110592
0.000961264
0.000271099
-0.00019405
0.00105836
-2.42165e-05
-2.58137e-05
0.00100595
0.000115087
1.07609e-05
0.000970359
0.00016939
-0.000174544
0.00116453
-0.000165284
-2.58024e-05
0.00102246
0.000158368
-0.000140466
0.00101836
0.000651496
-9.65532e-05
0.00109854
0.000940166
8.00837e-05
0.000930903
0.00135681
-0.000114078
0.00106799
-0.000701941
-0.000156994
0.00102483
-0.000249567
-3.14616e-05
0.000732227
0.00107323
-4.48351e-05
0.000863613
-3.23445e-05
-0.00019021
0.00103443
0.00077856
-6.15528e-05
0.00072994
0.00114078
-2.69112e-05
0.000634021
-0.00060566
-0.000207194
0.000965068
-0.000482467
-0.000127116
0.000993243
0.000756947
-0.000113954
0.000759857
0.0011701
-0.000143904
0.000731088
-0.000124431
9.10425e-06
0.000779021
-0.00113936
-0.000138757
0.000927283
-0.00086437
-0.000227775
0.00091
0.000882932
-0.00024846
0.000704712
0.00141022
-6.78413e-05
0.000778894
-0.000428607
-0.00014732
0.00092222
-0.000100222
-0.000261394
0.000817745
-0.000116152
0.000827795
0.000255751
-4.63865e-05
0.000826564
0.000641998
9.2382e-06
0.000648687
0.00048196
-3.76475e-05
0.000825433
-0.000499767
-0.000279835
0.000895766
0.000712916
-0.000219463
0.000713243
0.000373467
-4.99181e-05
0.00081783
3.9531e-06
2.30349e-05
0.000990139
9.99779e-05
-0.000101635
0.00105574
0.000238524
-0.000142142
0.00127708
0.00035525
2.98203e-05
0.00125248
-8.2494e-06
4.79373e-05
0.00107531
0.00125519
-0.000102714
0.00102684
0.00167196
-0.000166094
0.000858775
0.000441282
-0.000148091
0.000960315
-0.000199706
-6.51096e-05
0.000933947
0.00016025
-1.85759e-05
0.000861986
0.000300984
-0.000117413
0.000988176
-0.0002443
-2.30262e-05
0.000961476
0.000237851
-9.83251e-05
0.000983009
0.000488295
-4.41137e-05
0.000990802
0.000759616
-8.52051e-06
0.000882065
0.00145516
-5.69625e-05
0.000906452
-0.000674966
-0.0001219
0.000882513
-0.00017937
-8.68042e-05
0.000835075
0.00120733
-0.000111461
0.000880583
-9.80575e-05
-7.44227e-05
0.000780272
0.00080958
-5.75777e-05
0.00058942
0.00120047
-0.000100537
0.00061144
-0.000496418
-0.000260202
0.000835173
-0.000499198
-0.000112279
0.000814173
0.000730426
-0.000154639
0.000649413
0.00124352
-0.000159375
0.000644351
-3.30963e-05
-8.17966e-05
0.000555527
-0.00111744
-0.000124183
0.00068106
-0.000900261
-0.000231253
0.000753187