/*--------------------------------*- C++ -*----------------------------------*\
  =========                 |
  \\      /  F ield         | OpenFOAM: The Open Source CFD Toolbox
   \\    /   O peration     | Website:  https://openfoam.org
    \\  /    A nd           | Version:  10
     \\/     M anipulation  |
\*---------------------------------------------------------------------------*/
FoamFile
{
    format      ascii;
    class       volScalarField;
    location    "4";
    object      nut;
}
// * * * * * * * * * * * * * * * * * * * * * * * * * * * * * * * * * * * * * //

dimensions      [0 2 -1 0 0 0 0];

internalField   nonuniform List<scalar> 
25600
(
1.10938e-12
9.20929e-11
2.52052e-10
2.48208e-10
2.17759e-10
9.20474e-11
1.94851e-11
1.31852e-10
9.99066e-11
9.82449e-11
1.17765e-10
4.79616e-14
1.16174e-13
3.24338e-13
2.03949e-13
1.19161e-13
7.3318e-14
6.35963e-14
1.18642e-13
6.56975e-11
4.84188e-11
2.13956e-11
8.0297e-14
1.81628e-14
6.83568e-14
2.9185e-11
6.56414e-14
3.23197e-11
7.57284e-11
1.53754e-13
1.72236e-12
6.58219e-11
5.40027e-12
5.96714e-11
1.34557e-10
1.12201e-10
2.66736e-10
1.93914e-10
1.98478e-13
4.21528e-13
2.77952e-13
9.43418e-14
1.22598e-14
3.22173e-14
1.96719e-13
5.27123e-12
9.98706e-11
1.91353e-10
1.05173e-10
1.73733e-12
5.96052e-13
4.55453e-14
7.3258e-14
2.88487e-11
3.31755e-11
6.53335e-11
1.14094e-10
6.82667e-11
8.43991e-13
1.53772e-13
2.19899e-13
3.64018e-11
2.92912e-11
4.58143e-13
1.69924e-11
6.47334e-12
3.07308e-13
4.81893e-11
1.18769e-10
1.66013e-10
1.5415e-10
7.68418e-11
1.19351e-11
3.16578e-12
5.10593e-11
2.6568e-12
5.05203e-11
1.08599e-13
1.21344e-13
5.06524e-13
7.49932e-11
1.58541e-10
1.52113e-10
2.23072e-10
2.62684e-10
2.57269e-10
2.906e-10
2.80765e-10
1.86234e-10
1.1278e-10
4.8128e-11
2.51476e-11
3.33449e-11
1.16278e-10
1.50399e-10
1.08404e-10
9.94125e-12
3.01627e-13
1.66191e-13
1.81979e-13
2.81283e-13
4.46324e-13
7.10203e-13
5.82307e-11
2.24285e-10
2.26205e-10
1.82411e-10
1.58726e-10
9.7631e-11
1.26779e-10
7.38397e-11
2.66235e-12
3.3349e-11
2.19842e-11
5.75368e-11
1.16986e-10
1.51921e-10
1.10156e-10
1.33121e-10
1.60329e-10
1.76118e-11
1.31524e-10
1.24358e-10
1.89023e-11
8.70948e-14
3.60417e-14
7.86361e-14
1.70394e-13
8.40432e-12
1.02802e-10
1.46212e-10
8.56529e-11
1.15497e-13
1.75791e-13
1.84973e-11
4.90235e-11
8.82009e-12
5.18919e-13
4.54465e-13
2.12264e-13
1.404e-12
5.6485e-13
3.15993e-13
2.01871e-11
4.67282e-11
6.20318e-12
1.90782e-11
4.0172e-11
9.57962e-11
2.75037e-10
1.03119e-10
3.19782e-13
5.02088e-13
2.96701e-13
3.77115e-13
7.89035e-11
1.02742e-10
1.21698e-10
2.46381e-10
1.08019e-10
2.63775e-13
1.20576e-12
4.44785e-13
1.91567e-13
2.67158e-11
8.89558e-11
1.44964e-10
1.65793e-10
1.21657e-10
1.90742e-11
9.16978e-13
2.70403e-13
8.6847e-14
1.3074e-13
7.19451e-11
1.15274e-10
1.41721e-10
4.95114e-11
2.28244e-11
1.32796e-12
3.69489e-13
7.08286e-14
5.66639e-14
1.37717e-13
3.7206e-13
5.80676e-11
1.6178e-10
1.97882e-10
1.75301e-10
1.98418e-10
5.30029e-12
1.07878e-13
2.62079e-13
1.32707e-13
1.34482e-13
1.75875e-10
1.11583e-10
1.99165e-11
4.73872e-11
4.72717e-13
1.43356e-13
4.37075e-13
3.76624e-13
5.47374e-12
3.22783e-11
1.28162e-13
8.19811e-14
8.8028e-11
1.00481e-10
1.43535e-10
2.04823e-10
1.90246e-10
2.26721e-10
1.17903e-10
1.67881e-11
5.66195e-12
1.10185e-11
1.72094e-12
1.12733e-11
9.55886e-11
1.41232e-10
3.74826e-13
1.83096e-13
3.57968e-13
7.32936e-11
4.3771e-11
2.46199e-12
7.38604e-13
6.87318e-13
1.04078e-10
2.01704e-10
2.2471e-10
2.69927e-10
1.19995e-10
2.48572e-11
4.03115e-11
9.77158e-14
7.82852e-13
4.4199e-13
1.61982e-13
8.89814e-13
1.6122e-10
1.57135e-10
1.52929e-10
4.38396e-11
9.7824e-14
2.33856e-13
2.78477e-13
5.11171e-13
1.36073e-10
2.13932e-11
1.25081e-13
2.78634e-13
1.41397e-13
6.78387e-14
1.44589e-13
2.79105e-14
1.43541e-13
2.27723e-13
2.12772e-13
1.82577e-10
2.21036e-10
3.90202e-10
5.54644e-10
1.97964e-10
1.00991e-10
1.5993e-10
8.84288e-12
4.73164e-14
9.22331e-14
1.6765e-13
1.51429e-13
2.81285e-13
9.67431e-13
1.71789e-11
1.0936e-10
2.85835e-13
2.28673e-13
5.35987e-13
2.46893e-13
3.3391e-11
2.34449e-10
1.65527e-10
1.80217e-10
1.47541e-10
1.46368e-10
3.17613e-10
3.36986e-10
2.10328e-10
1.02516e-10
1.17665e-13
1.42122e-13
1.75582e-13
4.07747e-13
3.17936e-11
1.70489e-10
2.4212e-10
2.67103e-10
1.63692e-10
8.16375e-11
1.71183e-10
3.20604e-14
7.61121e-14
1.28777e-13
1.38049e-13
8.05068e-11
2.20046e-10
5.65696e-13
6.96112e-11
1.94583e-10
6.27858e-11
1.063e-10
1.28532e-12
4.84281e-14
2.1713e-13
2.92693e-13
2.53697e-13
5.69619e-12
1.17112e-10
1.394e-12
2.14971e-10
2.1469e-10
1.04155e-13
1.78208e-13
2.1675e-13
1.38752e-13
1.4597e-13
8.05051e-13
4.92432e-12
3.63013e-13
1.13591e-12
3.3368e-10
4.0989e-10
1.65606e-10
1.12504e-10
3.70419e-10
2.40481e-10
2.76235e-13
9.21284e-14
5.2418e-13
4.49958e-10
3.74968e-11
2.26062e-13
3.61059e-13
2.24206e-11
9.25771e-11
1.17891e-13
1.57719e-13
1.40976e-10
3.80882e-10
2.33732e-10
1.03716e-10
7.81752e-11
1.89918e-10
3.67932e-10
3.50466e-10
2.69362e-10
1.1005e-10
1.01374e-13
2.39614e-13
7.23429e-11
2.10821e-10
4.35965e-10
5.80294e-10
8.90932e-11
3.79023e-14
2.5782e-13
3.55345e-10
9.73983e-11
1.84731e-10
2.4421e-10
1.24897e-10
5.24759e-10
5.87221e-10
4.97618e-10
2.2076e-13
1.48213e-13
3.44468e-13
2.12361e-12
2.76439e-10
2.52347e-10
1.56507e-10
4.06013e-10
3.31834e-10
7.42709e-11
5.10499e-10
5.01694e-10
1.0471e-10
2.67623e-13
1.73016e-13
2.05602e-13
7.81774e-11
4.51994e-11
8.99828e-14
3.41901e-14
1.5736e-14
6.71839e-14
2.112e-13
2.87157e-13
1.83627e-13
1.92799e-10
5.38742e-10
2.05701e-11
7.0138e-14
5.01806e-14
3.6166e-14
5.10014e-14
5.98539e-12
1.34447e-10
2.51269e-11
2.65448e-13
1.8568e-13
1.28608e-13
6.80376e-14
3.28354e-13
2.05814e-10
2.1507e-10
5.03157e-10
3.25751e-12
1.83842e-13
2.66118e-13
1.56902e-13
2.2917e-11
9.69227e-14
3.42611e-13
3.37268e-10
1.25339e-10
1.03649e-13
1.98063e-10
2.15763e-10
4.65704e-13
3.18117e-13
6.93643e-11
1.13522e-10
9.63685e-11
4.76334e-11
2.41417e-13
9.6597e-11
1.94802e-10
1.32861e-13
5.93733e-14
3.29637e-14
6.46849e-14
1.71085e-13
2.67694e-13
3.85261e-10
3.65097e-10
1.46335e-13
6.1361e-14
2.15568e-13
4.16996e-10
3.21031e-10
2.50953e-13
1.02758e-10
4.84544e-10
6.41669e-10
3.89279e-10
1.08737e-10
6.32286e-14
3.00462e-10
4.99508e-10
2.23341e-10
1.92406e-11
1.00273e-13
7.34788e-13
4.81546e-10
1.09747e-11
4.96756e-14
8.0809e-14
4.44922e-14
1.93228e-13
2.49191e-10
2.84778e-13
8.26797e-14
1.41799e-14
2.48041e-10
3.82711e-10
4.82e-14
3.59016e-14
4.4447e-14
2.5624e-13
4.09839e-10
3.55011e-10
4.3928e-10
3.48737e-10
1.3265e-13
5.18163e-13
7.2117e-10
9.99222e-10
9.17778e-10
1.31649e-12
1.12331e-10
1.21753e-10
2.97768e-13
4.85836e-13
8.00224e-14
2.55416e-13
2.75685e-10
4.18414e-11
2.12676e-13
1.40229e-13
6.00389e-14
6.1952e-10
4.2512e-10
4.01343e-10
6.09575e-10
4.0511e-10
3.69796e-10
3.22814e-10
8.14717e-11
3.67156e-10
1.00129e-10
1.25442e-13
6.6383e-11
4.50275e-14
1.88274e-15
4.93768e-13
3.45618e-10
1.37958e-12
3.47127e-14
8.46388e-11
9.73539e-11
4.45888e-14
1.5702e-10
2.2311e-10
6.16029e-13
3.26003e-13
1.29115e-13
2.73164e-10
6.22855e-10
6.86796e-10
2.1393e-10
1.4385e-12
1.62834e-13
1.87827e-10
3.8742e-10
1.28288e-10
1.46057e-13
5.67778e-14
1.86451e-13
5.39537e-10
4.00867e-11
4.49711e-14
1.33558e-13
2.0659e-10
1.34186e-11
9.53545e-13
2.46364e-12
2.43027e-10
3.71108e-14
1.08107e-13
2.62095e-10
4.05655e-10
2.24965e-13
5.22487e-12
7.28231e-13
7.01429e-11
1.71465e-10
3.4848e-14
2.65746e-13
5.07351e-10
3.15855e-10
1.98957e-10
1.6906e-10
4.81584e-11
1.6045e-13
5.58599e-10
1.15046e-09
1.0257e-10
4.3431e-13
4.61879e-13
9.30302e-13
1.96776e-13
4.83229e-14
3.27685e-11
2.75737e-10
9.25661e-12
3.00358e-13
1.42181e-12
1.13326e-10
2.48244e-13
8.81122e-11
3.31995e-11
1.59911e-13
8.06574e-11
1.0461e-10
2.48554e-13
2.72012e-13
2.15988e-13
1.87855e-13
2.8598e-14
1.70346e-13
6.22659e-13
2.18881e-12
3.76838e-14
1.06378e-10
4.71995e-11
5.83528e-14
1.1147e-13
6.94981e-14
4.16871e-11
1.80643e-10
2.30965e-10
8.52743e-14
4.30471e-13
1.34959e-10
9.38861e-14
1.12818e-10
4.46849e-10
3.38296e-10
5.64231e-12
2.39581e-13
2.8124e-13
9.09467e-14
3.37211e-14
2.02495e-10
8.40311e-14
4.22705e-11
3.60326e-10
9.78311e-10
2.30304e-10
1.09595e-13
3.76933e-10
7.3728e-10
1.00099e-09
1.02984e-09
2.0405e-10
1.37175e-10
3.92055e-13
2.87635e-12
1.00682e-09
7.8368e-10
8.73224e-13
1.33532e-13
3.20403e-10
5.1727e-10
5.11704e-10
6.13444e-10
3.74542e-10
4.83694e-10
2.15616e-10
7.08603e-13
1.82623e-13
1.15188e-10
4.00011e-10
3.39879e-10
5.61354e-10
4.36926e-10
1.32039e-10
7.90323e-10
1.20808e-09
3.55075e-10
1.88989e-10
8.25228e-10
8.86752e-10
6.97356e-10
5.87998e-10
2.77639e-10
1.91179e-12
1.13375e-13
5.58488e-11
1.8468e-10
2.25707e-13
2.51785e-13
3.14661e-13
8.82969e-13
1.54057e-13
2.8372e-10
2.36874e-10
1.92601e-13
1.25282e-13
2.298e-13
2.11448e-10
2.0372e-11
6.67946e-13
3.05596e-10
4.12772e-10
7.11433e-10
1.15146e-12
1.23385e-11
4.38663e-10
4.85379e-11
5.46487e-10
2.55722e-13
9.77569e-13
1.54151e-10
6.88394e-11
9.41172e-12
1.95253e-10
3.25053e-11
4.87392e-13
5.41364e-10
2.48216e-13
2.44401e-13
3.97825e-10
2.89017e-10
1.03775e-13
2.01166e-13
1.70891e-13
1.08685e-10
3.10715e-11
7.35828e-10
8.3364e-14
9.14211e-13
7.29281e-10
5.05352e-10
4.34955e-10
3.47914e-13
1.77645e-10
2.97224e-10
2.05884e-10
2.0606e-11
6.33423e-13
2.0513e-12
3.46857e-10
1.55454e-11
6.77952e-13
2.47107e-13
5.90038e-13
9.70456e-13
8.99055e-11
4.23943e-13
3.06721e-13
1.44459e-13
1.94991e-13
1.1297e-13
1.19399e-11
4.90765e-10
1.63128e-10
9.04631e-13
1.05671e-11
2.53064e-13
2.79782e-13
1.73705e-13
5.23138e-13
8.90241e-10
1.48336e-10
5.28455e-10
1.82928e-10
2.16899e-10
1.15284e-09
6.02853e-10
2.52304e-13
4.8855e-13
5.8845e-10
4.19117e-10
8.58485e-14
3.19322e-14
4.96977e-14
1.88271e-13
8.40714e-10
5.35884e-10
9.17288e-14
4.41336e-13
1.6628e-13
3.79649e-10
2.6015e-10
4.42372e-13
6.96203e-13
4.79443e-13
7.89884e-10
5.47822e-10
1.66733e-13
2.62314e-10
5.90688e-10
2.07155e-10
6.76915e-10
4.67471e-10
5.91917e-14
4.5961e-13
3.37103e-10
2.33019e-10
4.54158e-13
4.86857e-13
7.52166e-10
3.9178e-10
1.33524e-10
2.65023e-12
9.76834e-14
3.9633e-10
7.70879e-12
6.37306e-13
8.02723e-13
4.60824e-10
4.80098e-13
2.39991e-10
1.64436e-13
6.75612e-10
2.31873e-13
2.26917e-13
2.32865e-13
3.74245e-14
1.26411e-10
1.3667e-13
4.12485e-13
7.27597e-10
9.27783e-10
1.25638e-09
3.73826e-10
9.70772e-10
2.75379e-10
2.42123e-10
9.90604e-14
1.89565e-13
5.19947e-13
8.72887e-14
6.00969e-13
6.54692e-14
3.66318e-10
4.51045e-10
1.19604e-10
4.54714e-13
3.22831e-12
1.13172e-12
9.36706e-13
9.64232e-13
6.82512e-13
2.88499e-13
5.4794e-13
1.01095e-09
7.6067e-13
1.29693e-12
6.02311e-14
2.74244e-13
8.80102e-11
5.91221e-10
2.83188e-10
1.43806e-13
1.10181e-10
5.58276e-10
8.94059e-10
7.66359e-10
5.07092e-10
4.71676e-13
2.83611e-13
2.19008e-13
6.0523e-13
3.44946e-13
4.60579e-10
2.0404e-10
6.33169e-13
4.57494e-13
1.83522e-12
1.43311e-10
2.98179e-13
1.71738e-13
4.60166e-13
6.51286e-10
1.29001e-09
2.9034e-13
5.33859e-10
9.21047e-10
3.45652e-13
4.93325e-11
7.75538e-10
2.17451e-10
4.42261e-10
2.97537e-12
6.52908e-10
6.48413e-12
1.06012e-09
3.67118e-10
2.21552e-12
9.04617e-10
1.66219e-09
1.13727e-12
1.93646e-13
2.92353e-12
3.34817e-11
1.00989e-12
3.84596e-10
6.83742e-10
6.4608e-10
2.7585e-10
6.70085e-11
9.07873e-10
1.00375e-09
4.70224e-13
3.67014e-13
6.26851e-13
4.80218e-11
1.58343e-13
3.11856e-11
3.55205e-10
2.87748e-13
2.80057e-12
1.41378e-10
8.42437e-14
4.72565e-14
6.48969e-14
9.16956e-14
1.10274e-13
1.88626e-13
5.29032e-13
1.70288e-10
4.04214e-11
1.09744e-10
7.40322e-11
2.36629e-13
7.65986e-13
7.16648e-13
2.92038e-13
1.26668e-12
1.65531e-12
2.41687e-13
1.51166e-12
1.73167e-10
1.14809e-09
1.68001e-10
1.60669e-13
2.89651e-13
2.0469e-13
2.26398e-13
5.26137e-10
1.53255e-13
5.41934e-13
1.14984e-12
4.05468e-13
1.97489e-13
7.06699e-11
7.62136e-10
1.39264e-09
3.32689e-10
2.57782e-13
5.77087e-10
1.45649e-09
7.39988e-10
5.06848e-10
8.41714e-10
9.94469e-10
3.45202e-10
4.66699e-10
7.49983e-11
2.12066e-13
7.59816e-10
7.09058e-10
2.79005e-13
2.68095e-10
2.71046e-11
5.6748e-10
7.37936e-10
2.25242e-10
3.90861e-13
4.38996e-12
1.33114e-09
2.36987e-10
6.04684e-10
2.72172e-12
4.7313e-13
1.06063e-09
1.30808e-09
1.07946e-09
5.08395e-10
5.6997e-13
1.43459e-12
2.41723e-10
1.0635e-12
2.1144e-13
7.2065e-10
9.15465e-10
1.01156e-13
1.58821e-13
5.06112e-13
7.02915e-11
5.31889e-14
4.62301e-14
1.17132e-13
8.10237e-11
1.88963e-10
1.22549e-13
2.58621e-13
1.32538e-10
9.34833e-14
2.31577e-13
1.8548e-13
6.21374e-13
6.12089e-13
3.74612e-13
1.68559e-12
2.73383e-12
5.46682e-11
5.39329e-10
3.91344e-13
1.30002e-12
2.50696e-11
4.11037e-13
1.31386e-13
2.29043e-10
2.66756e-13
2.27146e-13
1.61171e-12
4.34687e-13
2.49064e-10
1.0806e-13
3.79727e-13
4.01653e-10
5.70737e-10
3.91583e-10
1.51129e-13
5.47576e-14
1.07138e-09
2.58377e-12
2.57074e-10
1.04705e-09
6.88037e-10
8.2534e-10
8.15768e-10
2.37399e-12
2.97089e-13
5.4255e-10
4.7679e-10
4.15369e-10
4.25262e-10
5.83025e-10
1.30534e-09
2.39101e-09
1.32063e-09
5.72694e-10
6.007e-10
1.10676e-09
7.11905e-10
1.46051e-12
3.76988e-10
9.69029e-10
9.51351e-10
3.49118e-10
3.02684e-13
2.7519e-10
3.74089e-10
8.15588e-10
6.27043e-10
6.85822e-10
6.75672e-10
1.11792e-09
4.81397e-10
2.60732e-10
8.55921e-10
7.18204e-10
6.84567e-10
7.54971e-10
1.41178e-13
1.03161e-10
5.19242e-13
9.09336e-14
2.00804e-14
4.84271e-14
1.87985e-13
2.93348e-13
1.73955e-13
1.48886e-13
9.60506e-14
1.51089e-13
4.43647e-14
1.50244e-14
1.51471e-13
2.28203e-13
5.53879e-14
1.10373e-13
1.08814e-13
7.31134e-14
5.02392e-13
5.16206e-13
2.55898e-13
1.50424e-13
1.89891e-12
1.30773e-13
1.03923e-13
2.35802e-13
4.61662e-13
1.73597e-13
6.38588e-10
2.73265e-12
1.40303e-13
6.11696e-14
2.93472e-14
9.74051e-14
7.86095e-14
5.95799e-14
2.04125e-13
8.76788e-13
1.41224e-09
1.1904e-09
9.75093e-10
1.14566e-09
1.32676e-09
1.02324e-09
1.024e-09
1.66601e-09
1.38562e-09
8.51288e-10
1.0815e-09
1.45998e-09
1.06383e-09
9.80515e-10
1.23093e-09
1.74925e-09
2.12787e-09
1.28302e-09
1.62766e-09
1.20256e-09
1.21542e-09
1.423e-09
4.84894e-10
1.22517e-09
1.71962e-09
1.65827e-09
1.66337e-09
2.38778e-09
1.45943e-09
8.56483e-10
1.04843e-09
8.02577e-10
1.83523e-09
9.41299e-10
1.18056e-09
1.88054e-09
1.73282e-09
1.51021e-09
1.48588e-09
8.35696e-10
1.47674e-14
3.64172e-14
1.72563e-13
8.60178e-14
6.14214e-14
1.656e-13
2.02561e-13
1.05435e-13
5.21334e-14
1.62602e-13
3.39864e-13
6.06689e-14
4.52635e-14
2.50291e-13
4.22057e-13
1.09395e-13
5.5509e-14
4.50078e-14
3.53064e-14
2.78519e-14
8.2579e-14
3.19317e-14
1.41836e-13
1.6425e-13
1.0612e-13
4.889e-14
7.50686e-14
1.43513e-13
1.49471e-13
5.38004e-13
3.9596e-13
2.43368e-13
6.44804e-14
8.90197e-14
1.01654e-13
1.51723e-13
7.20458e-14
8.12027e-14
7.07831e-14
2.89892e-14
1.93087e-09
1.91484e-09
1.89957e-09
2.02375e-09
1.85262e-09
1.91505e-09
2.48364e-09
2.35058e-09
1.89199e-09
1.84407e-09
2.02919e-09
1.94621e-09
1.85009e-09
2.08625e-09
1.96975e-09
1.96876e-09
1.77688e-09
1.7543e-09
1.55853e-09
2.10015e-09
2.26763e-09
2.0171e-09
2.06257e-09
1.99622e-09
2.57918e-09
2.15768e-09
2.74785e-09
2.31778e-09
2.16822e-09
1.90542e-09
2.8822e-09
2.7872e-09
2.48261e-09
2.00442e-09
1.79506e-09
1.95619e-09
2.40833e-09
2.18476e-09
2.12593e-09
2.32815e-09
1.34034e-13
1.3798e-13
2.43038e-13
3.25612e-13
6.48884e-13
7.92086e-13
1.4204e-13
3.57364e-13
1.07348e-12
7.64611e-13
6.00613e-13
1.13325e-12
1.29618e-12
6.41019e-13
6.21305e-13
3.53021e-13
1.91431e-13
1.41451e-13
2.68414e-13
6.66383e-13
2.80838e-13
1.03096e-13
2.9876e-13
1.17677e-12
6.03084e-13
2.06515e-13
1.87166e-13
4.86704e-14
6.731e-14
2.54081e-13
5.86123e-13
5.08227e-13
5.35256e-13
2.95019e-13
1.52548e-13
2.93606e-13
2.29814e-13
7.40978e-14
5.66596e-14
9.50423e-14
1.33588e-09
1.11223e-09
1.10403e-09
1.26918e-09
1.19664e-09
1.15704e-09
1.15276e-09
1.16528e-09
1.31493e-09
1.06952e-09
1.1423e-09
1.18015e-09
9.67374e-10
1.10089e-09
1.23048e-09
1.30876e-09
1.23044e-09
1.11137e-09
1.12742e-09
1.27095e-09
1.20594e-09
1.28461e-09
9.4908e-10
1.08633e-09
1.31503e-09
1.05249e-09
1.07097e-09
1.06354e-09
9.17078e-10
1.14979e-09
1.1434e-09
1.08396e-09
1.12803e-09
1.02989e-09
1.06345e-09
1.20278e-09
1.28703e-09
1.14322e-09
1.30718e-09
1.33451e-09
9.74218e-11
5.00686e-11
3.68153e-11
5.17813e-13
2.41458e-12
1.32264e-13
8.28611e-14
1.63583e-13
7.78024e-14
8.74639e-14
1.477e-12
1.73413e-13
6.02447e-13
6.36547e-11
4.55855e-11
4.45035e-11
4.47147e-11
1.72583e-12
1.48691e-13
4.82814e-14
4.62204e-14
1.57178e-13
8.56322e-11
7.3419e-11
9.3202e-11
6.16863e-11
7.25063e-14
1.26052e-13
3.31941e-12
6.58242e-14
7.66537e-14
1.61219e-13
6.76483e-14
5.76804e-14
9.52987e-14
8.25418e-14
2.71685e-13
3.23683e-13
1.00638e-13
9.07915e-11
3.48856e-11
4.124e-11
2.90241e-12
3.49349e-14
1.07505e-13
1.08051e-13
6.44398e-14
2.31475e-13
2.24713e-13
1.29274e-13
5.33561e-11
3.42101e-11
8.2656e-12
5.40406e-13
6.02589e-14
5.8117e-14
1.43545e-13
1.92734e-12
4.96765e-11
9.88784e-11
1.21647e-10
9.37333e-11
7.84963e-13
1.57938e-13
1.55846e-13
1.01113e-13
3.20776e-14
6.99723e-14
1.43006e-13
1.60691e-13
3.57782e-13
1.2416e-13
8.84407e-14
6.80592e-14
2.27095e-14
2.15662e-14
8.50503e-14
1.58438e-13
1.46801e-13
1.69913e-11
1.81054e-13
1.75045e-11
5.89161e-12
1.77863e-13
6.03092e-13
1.47743e-13
1.21021e-13
1.56501e-13
8.11076e-14
5.74568e-14
2.02167e-13
4.57524e-13
2.2241e-11
5.29133e-11
4.62764e-13
3.01822e-14
4.14263e-14
4.24344e-14
7.35297e-14
1.5745e-13
2.78317e-13
3.76268e-13
2.84873e-13
2.26908e-13
3.40484e-13
1.06781e-12
1.39398e-11
1.03966e-11
2.01843e-13
5.48701e-13
4.36981e-13
2.16936e-12
1.68554e-10
1.68628e-10
7.90034e-11
6.45286e-11
1.08691e-10
1.61098e-11
8.93473e-14
1.73243e-13
2.87458e-13
7.53078e-11
2.88114e-11
2.62745e-13
4.96572e-14
2.3456e-14
5.45294e-14
1.18259e-13
1.14131e-13
1.45736e-13
5.39645e-13
6.85785e-11
7.31889e-11
4.36886e-11
1.45743e-13
4.7794e-14
5.42085e-14
1.11077e-13
3.80052e-13
2.21627e-12
1.25092e-10
1.97828e-10
1.16435e-10
3.71632e-11
3.94374e-14
4.38218e-14
6.8615e-14
8.86461e-14
8.27536e-14
1.21706e-13
1.4098e-13
1.79778e-13
3.17004e-13
8.44911e-14
9.76512e-14
4.20341e-13
1.36162e-13
2.69002e-14
3.33288e-14
7.82786e-14
1.56234e-11
4.08524e-11
2.72622e-13
1.14619e-13
8.77496e-14
4.39409e-11
1.18615e-10
2.03251e-11
4.61781e-14
2.02611e-14
2.44313e-14
6.21643e-14
6.68608e-12
1.8338e-10
8.37113e-11
1.27166e-13
1.54333e-13
7.36606e-13
1.49153e-10
1.80646e-10
1.53682e-10
2.39477e-11
3.3889e-13
1.20956e-10
1.53581e-10
8.30368e-11
2.05135e-11
7.22326e-13
1.74302e-13
1.35796e-13
9.5321e-14
1.28083e-13
3.88293e-13
1.29853e-12
4.71088e-11
8.38229e-11
2.02245e-13
5.1849e-13
1.9611e-10
9.85538e-11
7.86508e-11
3.42942e-10
1.46105e-10
1.10546e-13
1.8816e-13
9.85175e-14
5.6665e-14
3.69776e-14
2.9779e-14
3.64435e-14
1.23232e-11
1.18721e-13
1.64603e-13
1.54357e-13
5.64573e-14
1.1446e-13
6.63952e-13
4.88079e-13
2.74905e-13
3.20765e-13
2.09513e-12
2.07483e-13
5.20461e-13
1.92852e-10
4.38473e-11
2.42426e-13
2.11885e-13
3.83674e-14
1.1577e-13
1.95727e-13
1.18081e-13
1.00204e-12
1.1271e-10
5.22539e-13
1.30147e-13
1.19245e-11
2.41219e-11
2.83326e-13
2.33854e-12
4.04392e-12
1.86943e-10
9.89422e-12
6.08901e-14
1.75453e-13
5.82924e-13
1.36983e-13
8.83956e-14
5.10619e-14
6.99045e-14
8.93404e-14
2.75667e-11
6.83879e-11
1.02686e-11
8.39268e-12
8.94754e-11
2.61326e-10
1.72487e-10
1.67755e-10
1.64996e-10
1.57324e-11
1.20795e-13
4.70159e-14
1.81442e-13
3.028e-14
1.15654e-13
1.58749e-13
4.05801e-14
3.33721e-12
1.98518e-10
4.14669e-10
3.51635e-10
8.21496e-12
7.7052e-13
1.59848e-10
3.3692e-10
1.99288e-10
2.37892e-14
1.7061e-13
1.96346e-10
2.50142e-10
8.53037e-14
5.54619e-11
1.11488e-11
1.14486e-13
7.32227e-14
2.55364e-13
2.22646e-10
1.43115e-10
6.01079e-14
3.31584e-14
9.2481e-14
7.60591e-11
4.43585e-10
2.97114e-10
3.23601e-13
1.45273e-13
5.51755e-13
1.91098e-10
2.75405e-10
1.30192e-10
3.89342e-13
5.79991e-14
1.38001e-13
7.87771e-11
1.87962e-10
4.45408e-13
1.52572e-13
1.12279e-13
3.68284e-14
4.34048e-13
1.54536e-11
9.01398e-11
3.10484e-10
1.36129e-10
9.60202e-13
8.56832e-13
4.26318e-11
1.19691e-10
2.05218e-13
6.71161e-14
2.18713e-13
2.14797e-13
2.53423e-13
7.48332e-13
7.64889e-13
2.24599e-13
1.2103e-13
8.19366e-14
4.50354e-14
8.05107e-12
3.2714e-11
3.69617e-14
7.06122e-14
5.60233e-14
1.31346e-13
2.09428e-10
3.01165e-13
1.28301e-13
9.05597e-14
3.53216e-13
5.51146e-11
9.34558e-14
1.49315e-11
5.40168e-10
1.19738e-10
1.89472e-12
1.01252e-10
3.76357e-11
3.30954e-13
2.84867e-13
3.45352e-13
3.07261e-13
2.09319e-13
2.03909e-13
3.36446e-13
1.87611e-13
1.29016e-13
2.01037e-13
7.77593e-13
3.79174e-13
1.52219e-13
1.18595e-12
3.98436e-12
3.74134e-10
3.20333e-10
2.61004e-10
4.91002e-10
7.61801e-13
3.07421e-14
1.53252e-13
3.52323e-14
4.96003e-14
2.38615e-13
2.79207e-13
7.40215e-14
5.55668e-14
1.51093e-13
8.68444e-11
4.1837e-10
2.27529e-10
1.16846e-13
6.64917e-14
1.59258e-13
4.08741e-14
7.99512e-14
3.1514e-14
1.3029e-14
4.41635e-13
1.115e-12
4.88383e-12
7.16037e-11
2.56478e-13
4.27637e-13
7.23559e-13
1.08744e-13
9.30085e-13
1.52023e-10
6.36694e-12
2.43758e-11
2.16263e-14
7.79402e-14
6.73825e-14
2.57864e-14
6.63313e-15
2.37861e-14
1.64289e-10
4.52442e-10
2.45465e-10
1.21886e-10
8.2104e-13
2.99424e-11
6.00983e-11
1.41665e-10
5.79421e-13
7.81648e-13
1.05161e-12
3.35643e-12
8.33154e-11
1.80821e-12
1.83257e-10
1.98544e-12
1.49457e-13
7.03754e-13
3.03511e-10
2.83158e-10
5.63548e-12
9.1207e-13
8.91241e-14
1.39971e-13
1.89167e-10
2.45024e-13
9.80355e-13
3.46679e-10
4.54832e-10
2.52766e-10
6.82767e-11
7.90467e-13
8.65758e-11
1.94817e-10
2.0937e-13
2.16419e-10
2.59181e-13
8.01799e-14
7.10849e-14
5.43171e-14
5.20817e-14
6.35521e-14
3.24594e-14
4.2444e-14
1.19282e-13
2.0296e-13
1.00931e-10
8.79319e-12
1.65477e-13
1.51042e-10
3.28367e-11
8.65252e-14
1.41799e-13
8.8425e-12
1.73922e-13
1.37386e-13
6.52969e-14
2.3598e-13
1.18204e-10
1.53155e-13
7.33081e-13
1.83743e-10
5.29991e-12
7.23535e-13
1.71651e-13
2.55822e-10
3.26053e-10
1.51463e-10
8.56487e-11
1.39145e-10
1.31642e-10
1.94288e-13
1.4908e-13
2.07499e-10
3.25936e-10
3.47313e-10
1.80778e-13
7.26447e-13
3.28563e-10
2.37112e-13
4.53319e-13
1.87159e-10
7.38881e-14
4.01908e-14
6.46431e-14
1.14727e-13
2.2321e-13
5.3823e-13
3.40205e-10
1.43198e-12
8.51779e-14
1.44458e-13
1.44709e-13
1.36274e-13
2.38882e-13
8.92053e-13
1.25382e-13
3.13925e-10
2.73551e-11
1.03854e-13
1.02355e-13
7.26598e-14
1.55723e-13
1.11974e-10
1.80983e-13
7.39256e-14
1.23112e-13
4.15618e-11
1.98208e-10
4.24822e-13
5.07731e-13
1.97102e-13
1.8205e-12
2.06781e-10
1.49994e-10
2.72457e-11
5.07989e-10
9.88468e-10
3.75609e-10
2.73184e-13
2.98568e-10
8.49962e-10
1.54377e-13
1.67789e-14
3.69243e-13
1.26584e-10
2.40814e-10
8.79917e-14
1.12164e-13
2.16706e-12
4.34775e-13
2.14225e-14
1.77344e-13
3.47148e-10
5.18006e-10
1.23718e-10
5.49918e-13
1.13437e-13
4.1406e-10
5.78041e-10
3.44286e-11
2.13868e-13
6.99488e-13
1.46791e-13
1.05571e-13
1.06751e-13
3.60329e-10
1.94775e-10
1.737e-13
1.52674e-13
1.9597e-14
5.58564e-14
1.33817e-10
7.7989e-10
5.31176e-10
6.35965e-14
6.46415e-14
2.17172e-14
6.1905e-14
1.99235e-13
2.11993e-11
1.3423e-13
2.44586e-14
3.48986e-14
1.50317e-10
2.62069e-13
2.05509e-10
3.97036e-10
9.99613e-13
3.70072e-13
4.9971e-14
9.12494e-13
1.10006e-14
2.50672e-13
8.0619e-11
5.47496e-14
1.05616e-13
4.26842e-10
6.59852e-14
8.9479e-14
5.73805e-13
3.18547e-10
2.3535e-10
3.42442e-10
2.87038e-11
2.3917e-10
8.09196e-11
1.72769e-10
3.63552e-13
6.16192e-10
6.34398e-10
2.4583e-13
1.55827e-13
4.20516e-13
2.76983e-12
7.38334e-10
6.31415e-10
2.48501e-10
3.35613e-10
8.301e-14
2.32394e-13
2.12458e-13
1.30044e-13
2.57409e-13
5.0361e-13
7.64125e-13
4.5349e-10
5.94632e-10
5.98163e-10
2.25334e-10
1.83722e-13
3.55841e-10
4.58682e-10
1.34174e-13
3.01946e-13
8.07992e-11
2.43037e-10
8.89703e-10
4.06896e-10
2.6141e-11
2.37088e-12
2.33246e-13
1.61765e-10
7.18165e-10
2.53737e-10
4.71751e-14
1.89037e-13
4.2435e-10
8.54998e-10
6.45234e-13
2.62653e-13
3.26918e-13
4.04461e-13
1.65174e-13
5.79443e-13
2.31696e-13
1.73123e-13
5.4973e-10
1.84935e-10
4.27064e-13
4.69613e-11
4.70084e-10
2.7607e-11
2.23985e-13
5.7989e-13
2.95006e-13
1.78056e-13
7.83073e-11
3.19582e-13
2.92603e-13
1.49837e-13
1.00393e-13
1.68209e-13
4.43593e-10
3.84288e-10
5.83248e-14
9.66666e-14
9.59253e-14
2.36583e-10
6.04925e-14
1.97585e-14
2.01192e-12
2.44397e-11
3.6999e-13
2.1511e-12
6.76739e-10
6.2189e-10
7.20262e-11
8.86924e-14
2.02778e-14
1.09658e-13
9.53569e-14
2.67584e-13
1.19305e-12
1.33958e-13
1.63397e-12
3.34548e-14
8.64431e-13
2.19294e-14
1.19589e-10
7.08079e-10
2.05046e-10
3.4364e-14
2.35895e-13
6.90243e-13
1.66884e-10
7.87245e-10
2.27173e-10
4.44608e-10
4.30485e-11
1.35805e-13
9.84894e-13
2.3056e-11
2.10465e-13
1.31211e-10
5.89956e-14
7.27776e-14
8.36247e-10
4.65475e-10
2.36695e-13
5.38032e-10
4.96053e-10
7.1323e-10
2.80003e-11
1.14618e-13
2.71121e-13
1.09196e-09
1.01622e-09
2.20722e-12
2.07833e-10
4.45062e-13
9.64993e-13
1.90725e-10
5.23064e-10
7.04535e-10
4.23456e-10
4.96915e-10
2.28441e-10
1.50827e-10
3.10965e-13
6.24001e-14
1.44215e-13
4.1933e-12
6.77637e-10
4.56852e-10
1.01297e-13
1.98922e-13
1.38861e-13
2.31131e-10
4.3491e-13
1.54631e-10
2.34577e-13
9.39044e-14
3.54469e-13
1.80195e-10
1.68356e-13
2.3856e-13
6.36244e-10
2.2426e-11
2.40462e-13
8.79403e-14
1.45693e-10
1.56727e-10
1.57174e-09
5.11852e-10
2.38974e-14
7.55291e-14
2.90151e-13
2.67372e-10
3.14288e-10
4.33986e-11
2.88584e-10
8.0409e-11
3.09582e-13
1.13267e-11
9.79986e-14
2.61684e-13
8.16424e-12
5.39735e-10
3.33755e-10
8.09791e-10
3.63244e-10
1.44449e-13
1.97373e-13
1.71817e-13
6.88423e-10
1.12668e-10
5.98442e-10
5.03904e-12
2.4484e-13
1.39262e-13
9.06408e-10
1.81835e-10
9.01194e-11
1.49335e-13
3.13329e-10
2.16727e-10
5.64423e-13
4.25045e-10
7.95027e-11
1.04146e-13
3.20232e-13
2.25873e-13
1.26435e-13
3.77637e-10
2.2757e-10
5.66822e-10
3.44644e-10
3.19545e-10
7.36748e-10
4.21124e-11
2.40181e-13
2.34951e-13
2.76287e-10
1.76741e-10
1.85125e-13
5.22461e-13
3.30178e-10
3.73593e-13
8.60591e-14
2.11503e-13
6.20505e-13
2.04169e-13
2.57239e-13
2.68586e-14
2.92091e-13
8.50005e-11
2.86093e-13
4.03637e-13
5.43552e-14
6.69708e-11
1.83202e-12
2.79737e-11
2.92674e-13
2.64323e-13
5.83198e-14
1.77439e-13
4.67267e-10
2.81015e-10
1.94707e-14
2.20581e-13
6.20587e-10
7.66265e-10
1.77753e-13
1.03544e-13
1.36659e-13
2.84147e-13
3.53537e-14
3.99202e-14
9.4644e-14
6.64611e-14
1.20098e-13
4.28073e-13
7.02688e-13
1.42031e-10
9.24876e-10
7.15109e-10
1.10031e-09
1.21619e-10
3.09227e-10
2.50444e-10
5.11384e-13
1.53021e-13
2.29398e-10
6.73341e-12
1.93372e-12
1.7638e-12
1.46685e-13
6.79464e-10
5.61315e-10
4.52923e-10
3.99081e-13
6.39727e-14
1.01183e-10
4.86252e-10
3.03415e-10
2.36415e-13
1.05978e-09
4.11421e-10
4.66551e-10
1.60256e-10
9.73716e-10
3.32376e-13
1.4408e-10
2.4586e-14
1.95296e-13
2.42668e-13
3.33694e-13
9.06035e-14
9.49278e-14
2.19785e-10
7.50143e-10
4.98619e-10
1.45866e-10
6.31691e-10
1.37064e-13
9.5203e-12
7.87667e-13
1.27294e-13
2.07515e-13
4.97998e-10
1.93962e-10
1.93136e-14
4.65179e-14
5.06861e-14
3.72144e-13
8.13402e-14
7.70825e-10
2.51999e-11
5.25013e-14
7.31454e-14
6.39093e-11
2.89384e-12
2.87032e-12
1.18154e-13
2.8221e-13
5.82429e-10
1.39146e-13
1.614e-13
1.88751e-13
7.8074e-13
3.39644e-13
7.69333e-13
7.70641e-13
8.69637e-10
4.38888e-10
3.58417e-12
6.43339e-10
3.37434e-11
4.08033e-10
2.19097e-13
1.55e-13
2.35129e-13
2.51605e-13
7.84736e-13
2.09937e-11
4.14413e-10
3.21414e-13
7.10871e-10
5.15866e-14
1.00427e-13
7.30918e-11
4.71454e-14
5.37782e-10
6.66035e-10
1.69715e-11
5.55543e-13
2.58674e-10
3.93196e-14
4.51738e-13
2.47386e-12
4.12778e-10
3.02631e-10
3.19742e-10
3.28991e-10
3.93199e-13
7.66913e-11
3.17232e-10
8.91188e-10
1.60533e-13
9.05084e-10
2.17796e-10
4.39426e-10
4.15077e-10
5.30564e-11
4.58993e-13
7.40034e-10
1.97744e-10
2.74276e-10
6.82518e-10
7.29054e-10
4.64331e-13
2.97867e-10
6.42602e-10
4.70599e-10
1.78452e-10
8.08112e-14
8.76195e-12
5.38054e-14
2.48432e-10
2.61755e-10
2.12363e-13
1.19112e-13
1.57453e-13
1.44807e-13
1.49188e-12
6.69469e-10
3.38539e-10
1.83775e-13
2.99295e-10
6.20195e-14
1.66601e-10
6.63362e-13
3.08203e-13
1.45485e-13
1.07069e-09
4.0279e-14
2.45e-10
1.01423e-09
3.08017e-10
6.44209e-14
5.55947e-10
4.86534e-13
2.94829e-13
2.413e-13
2.29301e-13
1.05806e-13
1.71331e-14
1.048e-13
9.81748e-14
3.00741e-13
9.7917e-13
2.48077e-13
2.73251e-13
4.41013e-11
2.2309e-10
8.48761e-10
1.38508e-09
1.8236e-10
2.88615e-10
1.0296e-09
5.60811e-10
3.20298e-10
2.34969e-10
1.06966e-09
2.55279e-10
1.04876e-10
3.10757e-10
7.92984e-10
1.88635e-10
6.65698e-10
5.44494e-13
1.15573e-09
7.07476e-10
1.89342e-10
1.33269e-10
9.65578e-10
3.47606e-10
1.03052e-13
4.73964e-13
7.55765e-10
1.19384e-09
1.39725e-10
2.7445e-14
3.00624e-13
3.57219e-10
1.69133e-10
6.91715e-10
5.19867e-10
8.63597e-10
5.40258e-10
3.95511e-10
1.10407e-10
1.00782e-09
3.91871e-10
1.05292e-13
4.65127e-14
7.98232e-14
2.18396e-13
1.4778e-13
9.17855e-14
1.21961e-13
9.00492e-14
6.57553e-14
2.13781e-13
1.24825e-13
4.33925e-13
5.21518e-14
3.77204e-14
2.36596e-13
2.4705e-13
1.01916e-13
1.55456e-13
2.7497e-14
3.58233e-14
6.34392e-14
7.27475e-14
2.6251e-13
1.74468e-13
1.21646e-13
2.51254e-13
2.07339e-13
9.43493e-14
3.03481e-13
1.18826e-13
3.91735e-13
7.37739e-14
1.93985e-13
2.0651e-13
2.25077e-13
1.35029e-13
7.02716e-14
5.61751e-14
1.01574e-13
5.16578e-13
1.13414e-09
8.14027e-10
1.26646e-09
7.36257e-10
1.0039e-09
1.26266e-09
1.01668e-09
7.32771e-10
6.7336e-10
8.01187e-10
8.81253e-10
1.04296e-09
1.98653e-09
7.86189e-10
1.17886e-09
1.03229e-09
1.56774e-09
8.58379e-10
1.33775e-09
7.98407e-10
1.32917e-09
1.54395e-09
1.58677e-09
1.37949e-09
1.04002e-09
9.99484e-10
2.10964e-09
1.91826e-09
2.42867e-09
1.69935e-09
5.61773e-10
1.39178e-09
7.71822e-10
1.05139e-09
1.60562e-09
9.97078e-10
1.30387e-09
5.57185e-10
8.29931e-10
1.37432e-09
1.29069e-13
9.86886e-14
4.02525e-14
5.57972e-14
1.45114e-13
3.90201e-13
1.02789e-13
5.07498e-14
4.45067e-13
7.65741e-13
3.33789e-13
6.09403e-14
5.9189e-14
4.23021e-13
4.46467e-13
3.07548e-13
6.73152e-14
1.59839e-13
1.39649e-13
1.95981e-13
2.84428e-13
3.11477e-14
1.53575e-13
4.53152e-14
1.12174e-13
4.57118e-14
1.47388e-13
9.19785e-14
6.55858e-14
8.00436e-14
6.18491e-14
6.87403e-14
2.20564e-13
3.25122e-13
2.28931e-13
1.8983e-13
3.0025e-14
9.70265e-14
3.0056e-13
2.04019e-13
1.77161e-09
1.92892e-09
1.66347e-09
1.71004e-09
1.8655e-09
1.94892e-09
1.97846e-09
1.63712e-09
1.93851e-09
2.1271e-09
1.81844e-09
1.98474e-09
2.83553e-09
2.01197e-09
1.721e-09
1.69692e-09
1.47224e-09
2.11319e-09
2.19618e-09
1.57898e-09
1.92275e-09
2.06639e-09
2.6061e-09
2.72012e-09
1.61634e-09
1.91001e-09
2.20326e-09