/*--------------------------------*- C++ -*----------------------------------*\
  =========                 |
  \\      /  F ield         | OpenFOAM: The Open Source CFD Toolbox
   \\    /   O peration     | Website:  https://openfoam.org
    \\  /    A nd           | Version:  10
     \\/     M anipulation  |
\*---------------------------------------------------------------------------*/
FoamFile
{
    format      ascii;
    class       volSymmTensorField;
    location    "4";
    object      UPrime2Mean;
}
// * * * * * * * * * * * * * * * * * * * * * * * * * * * * * * * * * * * * * //

dimensions      [0 2 -2 0 0 0 0];

internalField   nonuniform List<symmTensor> 
25600
(
(0.000127104 -2.33516e-05 -9.44474e-06 1.26271e-05 8.64692e-06 1.85933e-05)
(9.4041e-05 -2.22981e-05 -5.39371e-06 1.4282e-05 8.04285e-06 1.83107e-05)
(4.14232e-05 -1.85528e-05 -6.2057e-06 2.34764e-05 1.05085e-05 1.92392e-05)
(2.20422e-05 -4.46073e-06 -3.59732e-06 3.83517e-05 1.76233e-05 2.1229e-05)
(2.1983e-05 1.16776e-06 -1.0973e-06 4.02325e-05 2.31466e-05 2.48571e-05)
(2.36043e-05 -4.11002e-06 -4.48232e-06 2.10026e-05 1.6214e-05 2.41214e-05)
(3.457e-05 -1.99366e-06 -8.10874e-06 1.07483e-05 7.20267e-06 1.82025e-05)
(4.58698e-05 7.03371e-06 -1.33732e-06 1.40563e-05 7.7643e-06 1.61962e-05)
(4.57694e-05 6.40823e-06 7.24907e-06 1.39364e-05 1.05412e-05 2.05856e-05)
(4.21341e-05 -9.6434e-07 1.1178e-05 1.12375e-05 7.09071e-06 2.60473e-05)
(4.55026e-05 -7.05679e-06 1.41604e-05 1.27325e-05 2.71371e-06 2.85174e-05)
(5.92593e-05 -1.18519e-05 2.039e-05 1.46048e-05 2.71886e-07 3.00911e-05)
(6.26685e-05 -1.06811e-05 2.4283e-05 1.38356e-05 6.71119e-07 3.31336e-05)
(3.87197e-05 -2.77484e-06 1.76168e-05 1.21589e-05 5.3407e-06 3.97215e-05)
(2.47547e-05 -2.95246e-06 -5.79792e-06 1.31734e-05 1.06834e-05 3.97551e-05)
(8.10433e-05 -1.58894e-05 -3.19542e-05 1.57888e-05 1.37656e-05 3.34128e-05)
(0.000148641 -2.61027e-05 -3.51489e-05 1.7114e-05 1.28603e-05 2.66028e-05)
(0.000126561 -2.34715e-05 -2.23836e-05 1.67099e-05 1.04445e-05 2.17257e-05)
(5.2794e-05 -1.07095e-05 -1.0774e-05 1.5107e-05 9.01967e-06 2.06646e-05)
(2.86126e-05 5.07445e-07 7.04542e-07 1.33385e-05 7.29745e-06 1.90723e-05)
(4.93313e-05 7.73473e-06 7.72687e-06 1.39412e-05 7.29522e-06 1.7824e-05)
(4.84444e-05 1.11406e-05 6.27839e-06 1.69562e-05 7.38411e-06 1.62921e-05)
(2.7267e-05 5.82775e-06 1.55124e-06 2.04797e-05 5.23964e-06 1.56269e-05)
(2.62693e-05 -5.86938e-06 2.12221e-06 2.27706e-05 3.64174e-06 1.58994e-05)
(3.69632e-05 -1.31506e-05 3.49186e-06 2.2639e-05 4.08722e-06 1.57617e-05)
(2.63497e-05 -7.05006e-06 1.07977e-08 1.74111e-05 7.96306e-06 1.55746e-05)
(2.35856e-05 3.61189e-06 4.04233e-06 1.39557e-05 1.17928e-05 1.94473e-05)
(4.54593e-05 9.8973e-06 1.39434e-05 1.06669e-05 1.1517e-05 2.17912e-05)
(7.021e-05 6.2562e-06 1.15189e-05 7.24187e-06 7.4969e-06 1.70879e-05)
(6.15032e-05 3.26674e-07 -1.19268e-05 6.31334e-06 6.33237e-06 1.99665e-05)
(3.88109e-05 -4.5504e-06 -2.46293e-05 7.19054e-06 1.27176e-05 5.20897e-05)
(2.46694e-05 -3.47022e-06 -1.66589e-05 8.91031e-06 2.0657e-05 8.44931e-05)
(1.95594e-05 1.85371e-06 7.27925e-06 1.21666e-05 2.75744e-05 8.61606e-05)
(3.34285e-05 1.43265e-05 2.35063e-05 1.94264e-05 2.80634e-05 5.16823e-05)
(5.7321e-05 2.6667e-05 1.8609e-05 2.37271e-05 1.91753e-05 2.71038e-05)
(7.29199e-05 3.63404e-05 6.0791e-06 2.93742e-05 1.1445e-05 2.00057e-05)
(4.26728e-05 2.54215e-05 -2.37454e-06 3.00246e-05 5.61729e-06 1.90493e-05)
(1.59068e-05 2.68918e-07 -1.72022e-06 2.53722e-05 6.66269e-06 1.82068e-05)
(5.11678e-05 -2.03273e-05 -3.20295e-06 2.00827e-05 7.80788e-06 1.86894e-05)
(0.000123822 -2.79246e-05 -6.95862e-06 1.47748e-05 8.23675e-06 1.89969e-05)
(5.66532e-05 -1.0019e-06 -2.02555e-05 1.86386e-05 1.25271e-05 2.36731e-05)
(3.08114e-05 -1.15332e-06 -1.03092e-05 2.57528e-05 1.5864e-05 2.17765e-05)
(2.84977e-05 4.90009e-06 -6.43398e-06 2.07139e-05 9.93111e-06 1.72921e-05)
(3.01971e-05 5.64741e-06 -7.39984e-06 1.73132e-05 8.12799e-06 1.67007e-05)
(2.94543e-05 5.15612e-06 -7.39951e-06 1.87743e-05 7.23202e-06 1.69953e-05)
(2.90503e-05 5.60734e-06 -8.14822e-06 1.68549e-05 6.40663e-06 1.94858e-05)
(2.88693e-05 6.88673e-06 -6.16803e-06 1.74847e-05 9.69064e-06 2.57852e-05)
(2.80379e-05 1.01639e-05 -1.1311e-06 1.97062e-05 1.14904e-05 2.74806e-05)
(3.01878e-05 1.32329e-05 3.36567e-06 1.73383e-05 7.0974e-06 2.04621e-05)
(3.44871e-05 7.19858e-06 2.04396e-06 1.55557e-05 9.12412e-07 1.2705e-05)
(3.34846e-05 -2.76799e-06 -6.8603e-06 3.2201e-05 8.58651e-06 1.38512e-05)
(3.31394e-05 -9.84471e-06 -1.81215e-05 5.8942e-05 3.58141e-05 3.85626e-05)
(2.87581e-05 -6.90561e-06 -2.14238e-05 6.94738e-05 6.26126e-05 8.18271e-05)
(2.40118e-05 7.84528e-06 -6.1479e-06 3.4602e-05 4.37118e-05 0.000106999)
(2.86563e-05 1.06121e-05 1.42837e-05 1.72659e-05 8.9974e-06 7.11012e-05)
(6.1519e-05 2.412e-06 1.30395e-05 1.78725e-05 7.92241e-07 2.47968e-05)
(8.02844e-05 3.17274e-06 -1.46717e-05 1.75288e-05 3.4223e-06 1.9147e-05)
(6.66601e-05 1.61295e-05 -2.68916e-05 1.88016e-05 -2.21858e-06 2.81217e-05)
(4.34656e-05 1.79673e-05 -1.82657e-05 2.3201e-05 -4.6139e-06 2.50924e-05)
(2.83526e-05 1.09029e-05 -7.66463e-06 2.19773e-05 6.27919e-07 1.75298e-05)
(2.59482e-05 7.15569e-06 -4.35051e-06 1.88984e-05 2.79991e-06 1.58882e-05)
(2.6461e-05 3.76891e-07 -6.78652e-07 2.45451e-05 1.14413e-08 1.65047e-05)
(2.4145e-05 -7.48433e-06 7.69022e-07 3.73471e-05 -2.39289e-06 1.6323e-05)
(1.47592e-05 -2.52277e-06 -2.00972e-06 4.59857e-05 -8.67695e-07 1.50819e-05)
(2.01665e-05 1.88903e-05 -5.12654e-06 5.22011e-05 6.03543e-07 1.42069e-05)
(6.07784e-05 4.12683e-05 1.7741e-06 4.86661e-05 9.58037e-06 1.39399e-05)
(0.000109125 5.13406e-05 2.32455e-05 4.1107e-05 2.00086e-05 2.08827e-05)
(0.000105782 4.25265e-05 4.31466e-05 3.4065e-05 2.71352e-05 3.72188e-05)
(6.51697e-05 2.30756e-05 4.2125e-05 2.50587e-05 2.50982e-05 5.50854e-05)
(2.49192e-05 9.25967e-06 1.13965e-05 2.02736e-05 1.74155e-05 4.36751e-05)
(2.4071e-05 3.60512e-06 -7.75682e-06 1.80886e-05 1.14953e-05 2.39851e-05)
(3.29949e-05 4.7497e-06 -2.42846e-06 1.75592e-05 9.51453e-06 1.61843e-05)
(2.70388e-05 6.21515e-06 5.13354e-06 1.77423e-05 1.03617e-05 2.46102e-05)
(2.22599e-05 5.14335e-06 -4.08273e-06 1.74508e-05 1.03394e-05 3.50656e-05)
(3.28215e-05 6.67725e-06 -1.92375e-05 1.70929e-05 7.1085e-06 4.03086e-05)
(3.87354e-05 4.62245e-06 -2.16443e-05 1.6359e-05 9.98993e-06 3.80172e-05)
(3.21826e-05 -2.20441e-06 -1.34474e-05 2.30404e-05 1.82917e-05 2.82974e-05)
(2.42182e-05 6.744e-06 -2.86977e-06 4.09913e-05 2.11163e-05 2.11978e-05)
(4.22027e-05 2.88186e-05 -3.61638e-06 4.7356e-05 9.92235e-06 1.65993e-05)
(6.53513e-05 2.42161e-05 -1.76216e-05 2.71194e-05 3.392e-06 2.06816e-05)
(0.000174154 1.98301e-05 -7.85479e-05 1.16092e-05 -6.00408e-06 5.389e-05)
(6.163e-05 1.06612e-05 -3.26437e-05 1.14845e-05 -1.38851e-06 3.73135e-05)
(5.86034e-05 1.44902e-05 -1.93069e-05 1.25072e-05 -2.89304e-07 3.54851e-05)
(6.63455e-05 1.80511e-05 -7.90661e-06 1.39021e-05 4.61718e-06 5.21261e-05)
(5.09594e-05 1.30123e-05 -1.51267e-05 1.27383e-05 4.0475e-06 8.27063e-05)
(4.90719e-05 1.23873e-05 -3.54124e-05 1.2046e-05 -2.07687e-06 8.73557e-05)
(4.66751e-05 1.47729e-05 -3.14529e-05 1.28843e-05 -7.8698e-06 6.4348e-05)
(3.96732e-05 9.60481e-06 -1.02171e-05 1.82164e-05 -1.12312e-05 3.9112e-05)
(7.9587e-05 -5.34267e-06 -5.25552e-06 2.02947e-05 -5.87519e-06 2.54843e-05)
(0.000151932 -5.89415e-06 -3.10246e-05 1.61043e-05 3.80154e-07 2.65309e-05)
(0.000147409 1.68288e-05 -6.97243e-05 1.39712e-05 -5.3755e-06 5.43113e-05)
(8.62108e-05 3.05627e-05 -7.96025e-05 2.10315e-05 -2.89204e-05 0.000118772)
(4.3607e-05 2.0281e-05 -3.96847e-05 3.07072e-05 -5.61681e-05 0.000197338)
(4.00634e-05 5.35646e-06 2.38562e-06 4.20061e-05 -7.08941e-05 0.000196197)
(3.95176e-05 7.10575e-06 -3.68638e-06 3.35248e-05 -4.24419e-05 0.000109375)
(3.81935e-05 1.34482e-05 -1.67978e-05 2.01307e-05 -1.39512e-05 4.87841e-05)
(4.75922e-05 1.33544e-05 -1.51081e-05 1.60767e-05 -6.42209e-06 3.64857e-05)
(5.16374e-05 9.37704e-06 -1.58312e-05 1.56765e-05 -4.94118e-06 3.48811e-05)
(4.01556e-05 1.01796e-05 -1.80144e-05 1.49868e-05 -3.69009e-06 4.07565e-05)
(3.6685e-05 1.07938e-05 -1.21745e-05 1.47832e-05 -4.59368e-06 5.13231e-05)
(3.70133e-05 9.11266e-06 -5.63069e-06 1.58414e-05 -7.61729e-06 5.19868e-05)
(3.62522e-05 7.65411e-06 -7.99905e-06 2.03063e-05 -1.07749e-05 4.25623e-05)
(3.46467e-05 1.08161e-05 -1.14441e-05 2.33383e-05 -6.77328e-06 3.30065e-05)
(4.52606e-05 1.96951e-05 -1.06177e-05 2.30596e-05 -1.32525e-06 3.10664e-05)
(8.38024e-05 2.92632e-05 -7.61693e-06 2.23225e-05 -4.27072e-07 3.00723e-05)
(0.000145333 3.82142e-05 -1.33792e-05 2.0957e-05 -1.67784e-06 2.89909e-05)
(0.000215424 4.86621e-05 -2.94079e-05 2.03457e-05 -3.7124e-06 3.00056e-05)
(0.000228481 5.08448e-05 -2.00376e-05 1.94471e-05 -1.34144e-06 2.80768e-05)
(0.000199759 4.10205e-05 1.89899e-05 1.60359e-05 6.56103e-06 3.36868e-05)
(0.000146451 2.06096e-05 4.14281e-05 1.00079e-05 6.3331e-06 5.62876e-05)
(7.89136e-05 3.07897e-06 2.28393e-05 7.9348e-06 -5.4884e-06 6.63249e-05)
(4.70133e-05 6.08376e-07 -8.25084e-06 1.58774e-05 -1.24321e-05 3.95681e-05)
(4.72732e-05 1.4705e-05 -1.29927e-05 3.25819e-05 4.37121e-06 2.76355e-05)
(4.64845e-05 2.03515e-05 -4.80276e-06 4.61545e-05 2.65764e-05 4.58508e-05)
(4.16962e-05 1.18324e-05 -1.05268e-05 5.14096e-05 3.45001e-05 5.47208e-05)
(4.10243e-05 1.46477e-05 -9.62681e-06 5.05628e-05 2.56677e-05 4.20918e-05)
(6.35889e-05 3.7353e-05 -9.75505e-06 4.52371e-05 5.4364e-06 2.5918e-05)
(0.000170894 6.67972e-05 -4.71078e-05 3.62893e-05 -1.42859e-05 3.32045e-05)
(0.000335272 7.71979e-05 -0.000122401 2.65104e-05 -2.51728e-05 6.42691e-05)
(0.000372625 5.63806e-05 -0.000145188 1.71894e-05 -1.94452e-05 7.54347e-05)
(5.93858e-05 2.21807e-05 -2.44829e-05 2.93998e-05 -3.48071e-06 5.35558e-05)
(7.96161e-05 2.27262e-05 -2.40159e-05 2.64302e-05 -5.26047e-06 5.16295e-05)
(9.46622e-05 2.8834e-05 9.57719e-06 2.73666e-05 -1.80752e-06 8.64766e-05)
(7.52261e-05 2.48629e-05 2.62124e-05 2.73217e-05 -1.05135e-05 0.000199365)
(5.77299e-05 2.78201e-05 -2.55703e-05 3.62453e-05 -4.95581e-05 0.000278477)
(8.2789e-05 5.42604e-05 -8.23254e-05 5.7875e-05 -7.87098e-05 0.000226495)
(0.00010852 8.33473e-05 -7.17849e-05 8.95547e-05 -7.15716e-05 0.000114777)
(9.51599e-05 8.25028e-05 -2.06768e-05 0.000111901 -2.08346e-05 4.62908e-05)
(6.97907e-05 4.80693e-05 9.77846e-07 7.78353e-05 2.45546e-05 6.47734e-05)
(6.88426e-05 2.99409e-05 -2.98809e-05 3.48394e-05 -4.78269e-07 0.000114386)
(0.000103247 6.89501e-05 -6.45529e-05 7.29313e-05 -6.04039e-05 0.000124398)
(0.000123914 9.97384e-05 -5.98245e-05 0.000118629 -6.52473e-05 8.83487e-05)
(0.000108225 7.27116e-05 -2.94715e-05 7.95611e-05 -2.41679e-05 5.2766e-05)
(8.66317e-05 4.00547e-05 -9.39168e-06 4.13775e-05 -5.88154e-06 4.96921e-05)
(8.3125e-05 3.75413e-05 -1.35097e-05 6.23739e-05 -3.53675e-05 8.11733e-05)
(8.51272e-05 4.02651e-05 -1.78435e-05 7.76784e-05 -4.3507e-05 7.93529e-05)
(8.8168e-05 3.57944e-05 -1.53184e-05 5.79576e-05 -1.37443e-05 4.67876e-05)
(9.29058e-05 3.68956e-05 -2.00385e-05 4.08729e-05 -1.21605e-06 5.50795e-05)
(9.40026e-05 3.8929e-05 -2.18157e-05 4.20558e-05 -1.76078e-05 8.12845e-05)
(9.90081e-05 3.84239e-05 -2.0662e-05 5.09687e-05 -2.58647e-05 7.37497e-05)
(0.00010184 4.00799e-05 -2.14934e-05 5.91619e-05 -1.77902e-05 5.01519e-05)
(0.00010835 4.7963e-05 -2.1001e-05 6.93705e-05 -3.72412e-06 4.20483e-05)
(0.000114458 5.19724e-05 -1.52521e-05 6.79802e-05 7.76304e-06 4.65792e-05)
(0.000119084 5.25293e-05 -1.32963e-05 5.71456e-05 9.28466e-06 4.90877e-05)
(0.000120321 4.92143e-05 -1.67024e-05 4.72005e-05 3.68798e-06 4.40204e-05)
(0.000124139 4.62819e-05 -2.16554e-05 3.89068e-05 -3.86339e-06 3.96258e-05)
(0.000137071 4.99037e-05 -3.34703e-05 3.85898e-05 -1.43028e-05 4.19993e-05)
(0.000138871 5.21702e-05 -4.58099e-05 4.54437e-05 -2.77408e-05 5.21718e-05)
(0.000124567 4.72684e-05 -4.94156e-05 5.48269e-05 -4.14996e-05 6.62421e-05)
(0.000101028 2.65338e-05 -3.57324e-05 4.80051e-05 -4.95019e-05 9.10585e-05)
(9.29169e-05 1.0735e-05 -5.50399e-06 2.32625e-05 -3.54765e-05 0.000130357)
(8.54873e-05 2.08384e-05 1.36286e-05 2.14014e-05 2.2594e-05 0.000200407)
(7.98002e-05 3.49179e-05 2.26704e-05 7.28384e-05 0.000103082 0.00026044)
(7.07687e-05 3.5794e-05 1.53183e-05 9.42732e-05 0.000106658 0.000214222)
(7.32486e-05 4.11167e-05 1.49602e-05 6.23982e-05 4.7088e-05 0.000112588)
(0.000114971 4.10464e-05 1.02679e-07 3.09577e-05 2.44918e-06 5.70226e-05)
(0.000180101 3.10588e-05 -5.00039e-05 2.3609e-05 -7.31744e-06 6.63877e-05)
(0.000223585 4.4979e-05 -8.77584e-05 2.69276e-05 -1.53334e-05 8.85213e-05)
(0.000182825 6.2003e-05 -7.2378e-05 3.80282e-05 -2.28305e-05 7.98175e-05)
(9.64051e-05 4.53414e-05 -3.15983e-05 4.02305e-05 -1.14722e-05 5.75015e-05)
(9.42891e-05 6.66012e-05 -1.3165e-05 7.05233e-05 1.57998e-05 4.59125e-05)
(8.33373e-05 5.167e-05 -3.03766e-05 4.85457e-05 -1.26762e-05 4.13323e-05)
(8.58424e-05 4.61269e-05 -4.27598e-05 3.48725e-05 1.1702e-06 0.000150164)
(0.000101017 3.4034e-05 -8.45273e-05 4.80345e-05 5.33297e-05 0.000273613)
(0.000142054 2.19701e-05 -0.000129995 4.89123e-05 5.19237e-05 0.000246255)
(0.000184872 4.60174e-05 -0.000115872 3.64639e-05 3.44288e-06 0.000126834)
(0.000191897 0.000104169 -4.31492e-05 6.92221e-05 -7.89421e-06 4.06786e-05)
(0.000184664 0.000150226 3.83683e-05 0.00015688 7.74005e-05 8.19783e-05)
(0.000168298 0.000140024 8.05982e-05 0.000162753 0.000146801 0.000197775)
(0.000141255 7.63159e-05 6.187e-05 5.97309e-05 6.82677e-05 0.000224245)
(0.00012479 3.37757e-05 1.20269e-05 5.64468e-05 -2.41375e-05 0.000108695)
(0.000115446 4.00405e-05 -2.06649e-05 9.60185e-05 1.54108e-05 4.52413e-05)
(0.000113922 5.45024e-05 -9.92349e-06 6.24268e-05 4.21278e-05 0.000103998)
(0.000110659 4.78484e-05 -5.97106e-06 4.30033e-05 -2.20649e-06 0.000149308)
(0.000117686 5.90275e-05 -3.28503e-05 6.28734e-05 -3.20519e-05 0.000107548)
(0.000164346 8.85296e-05 -2.79181e-05 7.21477e-05 -8.02484e-06 4.81769e-05)
(0.000203709 8.63176e-05 1.83005e-05 5.44982e-05 1.87201e-05 5.13939e-05)
(0.000181235 5.60923e-05 3.19786e-05 3.84213e-05 8.73171e-06 7.38092e-05)
(0.000141765 4.38661e-05 2.38234e-06 4.63656e-05 -9.31845e-06 5.69483e-05)
(0.00013832 5.99515e-05 -1.08526e-05 6.24622e-05 9.20325e-07 3.55843e-05)
(0.000149053 7.42845e-05 -3.65519e-07 7.68062e-05 2.10384e-05 4.21802e-05)
(0.000153223 8.09358e-05 4.75312e-06 9.58832e-05 3.29459e-05 4.73882e-05)
(0.00015044 7.54453e-05 3.00091e-07 9.63688e-05 2.59296e-05 3.9443e-05)
(0.000151917 7.13166e-05 -3.16634e-06 7.25334e-05 1.13441e-05 3.06831e-05)
(0.000152609 6.61784e-05 -4.57041e-06 4.80453e-05 5.17245e-06 2.7204e-05)
(0.000150505 6.34431e-05 -5.25043e-06 4.02003e-05 2.05605e-06 2.53372e-05)
(0.000144264 6.13775e-05 -3.86155e-06 3.88306e-05 -1.96238e-06 3.04352e-05)
(0.000132528 6.3573e-05 -1.41589e-05 4.97106e-05 -2.19159e-05 5.38075e-05)
(0.000137256 8.86543e-05 -5.39595e-05 7.96812e-05 -6.29263e-05 0.000107669)
(0.000135973 9.35483e-05 -9.05587e-05 7.91667e-05 -8.61763e-05 0.000186212)
(0.000113992 6.5449e-05 -9.75336e-05 4.72562e-05 -6.1897e-05 0.000252951)
(9.18609e-05 3.72873e-05 -8.71242e-05 2.93076e-05 -9.6068e-06 0.000280828)
(7.2329e-05 2.81048e-05 -4.59572e-05 3.21735e-05 2.28902e-05 0.000221825)
(6.77264e-05 3.06796e-05 -1.99329e-05 3.25359e-05 1.47804e-05 0.00011979)
(6.98384e-05 3.54345e-05 -1.00587e-05 3.19169e-05 2.82969e-06 5.65532e-05)
(8.00496e-05 3.99322e-05 -1.69813e-05 3.1622e-05 -6.10431e-06 4.25596e-05)
(9.9234e-05 4.77551e-05 -3.58431e-05 3.44672e-05 -1.57863e-05 5.94506e-05)
(0.000135086 7.04334e-05 -5.05716e-05 4.84911e-05 -2.62945e-05 6.27972e-05)
(0.000148704 9.0555e-05 -3.21665e-05 7.01919e-05 -1.48941e-05 4.1962e-05)
(0.000124941 8.65218e-05 -5.94019e-06 7.94879e-05 1.38627e-05 4.42344e-05)
(0.000257773 0.000155696 6.05489e-05 0.00012436 4.366e-05 4.89126e-05)
(0.00026631 0.000136899 -4.1254e-05 9.49949e-05 -3.09692e-05 5.18335e-05)
(0.000293893 0.000105282 -0.00014752 6.09288e-05 -4.46943e-05 0.000211921)
(0.000285924 7.35479e-05 -0.00016038 4.89206e-05 -7.74336e-06 0.000255456)
(0.000264242 6.72953e-05 -9.88721e-05 4.80719e-05 2.46082e-06 0.000137939)
(0.000241508 8.68026e-05 -2.43729e-05 5.55272e-05 -3.02709e-06 4.19129e-05)
(0.000227239 0.000113736 3.96306e-05 9.88796e-05 4.41007e-05 6.13023e-05)
(0.000231388 0.000142001 0.000100525 0.000164557 0.000145759 0.000196073)
(0.000231853 0.000143012 0.000125935 0.000172269 0.000187264 0.000284795)
(0.000206428 9.58303e-05 8.26288e-05 9.24647e-05 0.000102456 0.000211637)
(0.000180693 6.02732e-05 2.15533e-05 4.78515e-05 2.3777e-05 8.03588e-05)
(0.000173294 5.70011e-05 8.17406e-06 4.78167e-05 1.72232e-05 4.75996e-05)
(0.000162013 5.72293e-05 6.968e-06 4.60199e-05 1.7903e-05 5.02172e-05)
(0.000156822 5.49084e-05 1.03191e-05 4.27421e-05 1.75295e-05 5.66259e-05)
(0.000155246 5.45926e-05 1.36455e-05 3.81026e-05 2.04688e-05 6.23409e-05)
(0.000148136 5.4571e-05 6.36145e-06 3.50755e-05 1.73965e-05 5.54465e-05)
(0.000162235 6.51594e-05 1.20502e-05 4.03957e-05 2.00345e-05 5.16543e-05)
(0.000159806 6.63404e-05 2.67657e-05 4.22293e-05 2.8026e-05 6.98256e-05)
(0.000132067 5.49681e-05 7.53909e-07 3.70727e-05 1.3468e-05 7.13352e-05)
(0.000170608 8.0043e-05 -9.84141e-06 5.12887e-05 7.23461e-06 5.1576e-05)
(0.00022478 0.000120652 1.07258e-05 7.97559e-05 2.0262e-05 4.78845e-05)
(0.00021873 0.000141195 1.35403e-05 0.000112451 2.45964e-05 4.42735e-05)
(0.000164072 0.000114487 -4.54235e-06 0.000109263 7.0863e-06 3.77858e-05)
(0.000109526 6.59356e-05 -1.08057e-05 6.73672e-05 -2.92481e-06 3.91841e-05)
(8.85516e-05 4.23992e-05 9.25743e-08 3.96912e-05 6.68635e-06 4.06387e-05)
(0.000111656 5.91012e-05 2.63798e-05 4.74808e-05 2.30905e-05 5.52118e-05)
(8.23093e-05 5.74713e-05 2.9355e-05 5.62649e-05 3.96747e-05 9.13017e-05)
(9.39782e-05 3.22162e-05 -5.09409e-05 4.1351e-05 2.16299e-05 0.000114888)
(0.000299772 0.000109332 -0.00013036 5.91817e-05 -2.98946e-05 0.000102485)
(0.000431427 0.000220339 -0.000118495 0.000129072 -4.80917e-05 7.13945e-05)
(0.000364903 0.000205101 -9.34345e-05 0.000131271 -4.32423e-05 6.06207e-05)
(0.000220237 0.000103529 -8.07741e-05 6.30754e-05 -3.06573e-05 6.9707e-05)
(0.000125365 4.29068e-05 -4.74239e-05 3.37058e-05 5.01243e-07 7.37342e-05)
(0.000109998 3.63887e-05 -2.62667e-05 4.11258e-05 1.58806e-05 6.18051e-05)
(0.000115611 3.86851e-05 -1.2182e-05 4.41997e-05 9.61323e-06 3.36195e-05)
(0.000119442 4.2929e-05 6.4544e-06 4.23833e-05 -3.55931e-06 2.9822e-05)
(0.000114164 4.76459e-05 5.87961e-06 4.35684e-05 -1.51571e-05 7.24743e-05)
(0.000142839 6.81208e-05 -2.72377e-05 5.33293e-05 -2.35447e-05 6.4436e-05)
(0.000224284 0.000113734 7.09948e-06 7.87133e-05 1.63751e-06 2.55347e-05)
(0.000258196 0.000150265 8.05007e-05 0.000113704 5.62812e-05 7.04945e-05)
(0.000312864 0.000193456 7.56032e-05 0.00019178 5.9423e-05 6.94811e-05)
(0.000540948 0.00019788 -5.30101e-05 0.000104571 -1.62845e-05 7.20591e-05)
(0.000757349 0.000130791 -0.000202394 5.64984e-05 -1.61411e-05 0.000135027)
(0.000580088 5.84943e-05 -0.000172106 4.54222e-05 9.1659e-06 0.000133116)
(0.000304043 3.80922e-05 -2.96047e-05 4.63075e-05 1.61555e-05 5.83599e-05)
(0.000197466 4.92811e-05 2.99612e-05 4.49809e-05 5.50316e-06 8.15474e-05)
(0.000181492 5.6261e-05 4.48778e-05 5.08346e-05 5.34879e-05 0.00027822)
(0.000207756 0.00010359 0.000118347 0.000127864 0.000180702 0.000385985)
(0.000242293 0.000163561 0.000145537 0.00022033 0.000222548 0.000303568)
(0.000190784 0.000102843 5.57192e-05 0.00014008 9.44203e-05 0.000126921)
(0.000153515 4.21686e-05 1.41169e-05 5.00926e-05 9.22862e-06 7.66102e-05)
(0.000143276 4.35775e-05 2.58243e-05 4.26134e-05 2.4062e-05 0.000142863)
(0.000132709 3.8094e-05 -1.08473e-05 4.11791e-05 1.52889e-05 0.000147158)
(0.000144367 3.9493e-05 -3.76857e-05 3.94154e-05 9.38716e-06 0.000154264)
(0.000119411 2.87905e-05 -2.03772e-05 3.25577e-05 2.53293e-05 0.000150267)
(0.000109748 3.18271e-05 7.43052e-06 3.17568e-05 3.0098e-05 9.81251e-05)
(0.000122476 3.10375e-05 -1.15181e-05 3.04312e-05 2.34145e-05 7.78211e-05)
(0.00017728 3.57829e-05 -5.47968e-05 3.13957e-05 1.93372e-05 0.000108064)
(0.000251144 6.52358e-05 -3.80635e-05 4.09329e-05 1.63097e-05 8.22351e-05)
(0.000306682 9.05792e-05 4.91031e-05 5.1252e-05 4.07355e-05 9.13686e-05)
(0.000364359 0.000125755 9.3373e-05 6.79762e-05 5.94836e-05 0.000113352)
(0.000361453 0.00017382 3.84979e-05 0.000112512 4.70686e-05 8.58049e-05)
(0.000262601 0.000165596 -2.70059e-05 0.000142317 8.67301e-06 7.68558e-05)
(0.000134786 9.05301e-05 -3.63134e-05 0.000104877 -7.72436e-06 7.79986e-05)
(7.75678e-05 3.19076e-05 -1.92003e-05 4.34861e-05 6.02946e-06 9.61166e-05)
(7.37584e-05 3.00215e-05 -1.10313e-05 6.58222e-05 7.13957e-05 0.000175532)
(0.000122339 -2.47959e-05 -9.43188e-05 0.0001065 0.000119001 0.000217507)
(0.000297737 -4.17165e-05 -0.000128299 6.69232e-05 6.18485e-05 0.000132162)
(0.000483147 9.7743e-05 -3.30507e-05 5.59089e-05 2.13143e-05 6.89564e-05)
(0.000558111 0.000267589 5.63365e-05 0.000161177 5.66445e-05 7.6765e-05)
(0.000510757 0.000301274 2.67416e-05 0.000211138 4.01811e-05 6.77564e-05)
(0.000395473 0.000194441 -3.72943e-05 0.000122689 -1.66677e-06 6.71852e-05)
(0.000314294 8.30285e-05 -5.28085e-05 5.08477e-05 1.02772e-05 7.98351e-05)
(0.000272713 3.72365e-05 -4.06929e-05 4.78327e-05 2.80004e-05 8.26899e-05)
(0.000200543 3.69818e-05 -1.14828e-05 5.0232e-05 3.02042e-05 7.95726e-05)
(0.000161419 4.78604e-05 1.24926e-05 4.49237e-05 2.46e-05 7.44625e-05)
(0.000163131 5.27656e-05 2.55341e-05 4.3501e-05 2.20178e-05 7.06587e-05)
(0.000175491 5.99588e-05 3.43764e-05 6.072e-05 3.21198e-05 7.40696e-05)
(0.000181153 7.5685e-05 4.82666e-05 0.000125903 7.33123e-05 9.83301e-05)
(0.000210202 0.000127997 8.20512e-05 0.000212293 0.000119848 0.000121594)
(0.00070305 0.000120407 2.34658e-05 6.20965e-05 2.87342e-05 7.13963e-05)
(0.000977286 8.92161e-05 -0.00016562 5.52088e-05 1.70296e-05 0.000106855)
(0.000766013 8.14279e-05 -0.000167179 5.72597e-05 1.08966e-05 0.000112119)
(0.000333393 7.11895e-05 -5.56725e-05 6.34331e-05 5.72039e-06 8.36959e-05)
(0.000185483 4.70982e-05 1.6113e-05 7.87157e-05 1.90086e-05 4.70528e-05)
(0.000181085 1.40432e-05 -1.96678e-06 0.00011419 8.17471e-05 9.82862e-05)
(0.000163117 1.68414e-05 -7.51055e-06 0.000199151 0.00019673 0.000245004)
(0.00020191 0.000120689 9.5107e-05 0.000308193 0.000263376 0.00025863)
(0.000294097 0.000165518 0.000140294 0.000245707 0.000198551 0.000189826)
(0.000223641 5.67209e-05 4.39387e-05 0.000101268 6.70783e-05 6.946e-05)
(0.000157931 8.20812e-06 1.05572e-05 7.06683e-05 3.72785e-05 7.81277e-05)
(0.000156953 -2.80339e-06 2.44146e-05 6.65563e-05 2.2326e-05 0.000171089)
(0.000188132 2.38904e-05 -8.54358e-05 8.46445e-05 -3.43247e-05 0.000252514)
(0.000306844 7.78788e-05 -0.000213334 0.000102692 -7.6443e-05 0.000336022)
(0.000221223 2.7741e-05 -0.000131957 7.38313e-05 -3.0152e-05 0.000271153)
(0.000157493 -1.14833e-05 -7.2322e-06 5.44531e-05 2.53143e-05 9.9656e-05)
(0.000187018 -3.59294e-06 -3.73188e-05 5.5614e-05 2.07505e-05 8.94833e-05)
(0.000196428 2.12391e-06 -4.10433e-05 5.72866e-05 1.22229e-05 9.93284e-05)
(0.000183551 4.27532e-06 -6.923e-06 5.98503e-05 2.53283e-05 7.76248e-05)
(0.000189393 1.12843e-05 2.77204e-05 5.74183e-05 4.04063e-05 0.000110491)
(0.000241894 4.64511e-05 5.71379e-05 7.23193e-05 5.06124e-05 0.000116265)
(0.00025702 9.6338e-05 3.01816e-05 0.000122489 4.38849e-05 9.06053e-05)
(0.000233059 0.0001029 -2.64629e-06 0.00014063 2.12233e-05 7.92897e-05)
(0.000198839 6.87459e-05 -3.07221e-05 9.41651e-05 -1.03322e-06 8.33659e-05)
(0.000165857 6.01894e-06 -6.22144e-05 3.44329e-05 3.90357e-06 0.000135906)
(0.000148325 -3.48303e-05 -6.68506e-05 5.00054e-05 6.82995e-05 0.000211716)
(0.000148787 -5.42121e-05 -4.48053e-05 9.11899e-05 8.12304e-05 0.000157437)
(0.000166596 -5.31394e-05 -1.21378e-05 6.11599e-05 2.75089e-05 9.40773e-05)
(0.000260735 2.36536e-05 3.75168e-05 3.01278e-05 2.15479e-05 9.9116e-05)
(0.000381549 0.000155474 7.43152e-05 0.000120996 4.98007e-05 0.00011167)
(0.000469477 0.000213764 2.10234e-05 0.000150432 2.14188e-05 8.93991e-05)
(0.000479437 0.000169988 -4.44198e-05 9.10031e-05 -3.63421e-06 8.41828e-05)
(0.000483085 0.000100826 -2.67087e-05 4.28638e-05 7.57096e-06 8.18245e-05)
(0.000407439 5.82319e-05 7.99664e-06 3.03848e-05 1.34538e-05 7.81138e-05)
(0.000229874 2.30443e-05 3.1908e-06 2.65536e-05 1.49591e-05 8.20438e-05)
(0.000167145 1.07042e-05 1.18702e-05 3.86002e-05 3.29567e-05 0.000100003)
(0.000159393 2.01655e-06 1.63774e-05 9.08114e-05 7.00354e-05 0.000117925)
(0.000164129 2.46748e-06 2.42794e-05 0.000154835 0.000111319 0.000143075)
(0.000169376 6.47849e-05 8.34671e-05 0.000142863 0.000125986 0.000177646)
(0.000332181 0.000126596 0.000151166 9.2428e-05 8.01449e-05 0.000133196)
(0.000153916 5.2381e-05 -4.00809e-05 0.000182905 -9.69973e-05 0.000156291)
(0.00017843 5.33923e-05 -5.03041e-05 0.000135046 -7.49634e-05 0.000135164)
(0.000145244 -5.23711e-07 1.51095e-05 7.0603e-05 -7.16083e-06 5.52403e-05)
(0.000127579 5.6589e-07 1.70002e-05 8.44099e-05 -2.151e-05 7.63701e-05)
(0.000130091 -1.93462e-06 8.32618e-06 7.47117e-05 -6.28918e-06 0.00010978)
(0.000136397 4.6245e-06 2.309e-05 9.15e-05 5.73013e-05 0.000210572)
(0.000179678 7.06334e-05 0.000134123 0.000161765 0.000161544 0.000319865)
(0.000344665 0.000170136 0.000221356 0.000216573 0.000175848 0.000246175)
(0.000382646 0.000113837 0.000151436 0.000138218 7.75371e-05 0.00012286)
(0.000189111 -5.98614e-06 4.09503e-05 7.94585e-05 9.48591e-06 5.79206e-05)
(0.000141057 6.71847e-06 3.43061e-05 0.00012086 3.71823e-05 7.57208e-05)
(0.000196969 -3.38174e-05 -4.20004e-05 8.99339e-05 3.72428e-05 0.000152394)
(0.000418849 6.17237e-05 -0.000268475 9.22847e-05 -6.92157e-05 0.000344655)
(0.000377808 0.000169471 -0.000342462 0.000186075 -0.00022876 0.000529858)
(0.00019974 7.90712e-05 -0.000125056 0.000163893 -0.000147156 0.000290243)
(0.000166099 -1.07757e-06 -1.43911e-05 6.42365e-05 -5.2862e-06 7.27932e-05)
(0.000231871 3.24884e-05 -5.442e-05 6.03986e-05 -9.19138e-06 8.63949e-05)
(0.00023243 4.05236e-05 -1.31645e-05 6.08775e-05 5.10657e-06 6.61998e-05)
(0.000201595 2.75948e-05 1.28344e-05 5.52382e-05 2.91145e-05 9.00396e-05)
(0.000184624 1.40301e-05 6.14473e-06 4.11055e-05 3.19673e-05 0.000117592)
(0.000161645 9.48934e-06 -8.42387e-07 4.63428e-05 2.38609e-05 8.26552e-05)
(0.000144456 -3.21543e-07 -1.005e-05 6.16412e-05 -7.83769e-06 7.03375e-05)
(0.000145534 4.88175e-06 -1.28396e-05 5.25447e-05 -1.76121e-05 9.46867e-05)
(0.00016791 1.75157e-05 -2.79361e-05 4.77816e-05 -1.31083e-05 9.49824e-05)
(0.000188934 1.48222e-05 -3.76308e-05 3.70014e-05 -9.28933e-06 0.000103982)
(0.000182138 -1.33752e-05 -3.12544e-05 3.38667e-05 2.30865e-05 0.000108251)
(0.000179891 -4.73912e-05 -2.9028e-05 0.000105288 6.78986e-05 0.000111257)
(0.000226197 -8.01156e-05 -6.026e-05 0.000105423 7.55131e-05 0.000124395)
(0.000320512 7.19427e-06 -4.32974e-05 3.17501e-05 1.33423e-05 8.71279e-05)
(0.000346393 0.000154375 4.62e-05 0.000138565 4.76467e-05 8.67087e-05)
(0.000316307 0.000212754 7.81995e-05 0.00025446 9.98224e-05 0.000111639)
(0.000269369 0.000157906 7.56694e-05 0.000188709 9.18856e-05 0.000117259)
(0.000298272 7.48585e-05 0.000107874 6.18679e-05 5.50519e-05 0.000130226)
(0.000308742 -1.04313e-05 9.26228e-05 4.65641e-05 1.2142e-05 0.000107687)
(0.000254607 -3.62584e-05 3.63229e-06 6.33815e-05 2.95639e-05 7.85146e-05)
(0.000267089 -3.34696e-05 -5.45953e-05 5.8419e-05 4.36694e-05 0.000115756)
(0.000168174 -1.45695e-05 -3.76078e-05 5.94374e-05 3.98386e-05 0.000124396)
(0.000124911 1.52584e-05 3.85289e-05 6.07736e-05 3.92167e-05 0.000134109)
(0.000242492 5.2599e-05 6.47254e-05 7.43892e-05 3.80949e-05 0.000102289)
(0.000191701 7.05254e-05 -1.12979e-05 0.000135186 -1.02537e-05 8.0202e-05)
(0.000136183 -3.27909e-05 3.41301e-05 7.10981e-05 -2.48947e-05 0.000114919)
(0.000150179 -4.20131e-05 2.50996e-05 7.14091e-05 -6.22979e-07 5.67107e-05)
(0.000160305 -9.15897e-06 3.70952e-05 9.19149e-05 -1.98941e-05 5.58281e-05)
(0.000256455 -4.59077e-05 5.32574e-05 6.97268e-05 -2.08776e-05 6.11338e-05)
(0.00016596 -8.1076e-05 4.62595e-05 0.000115358 -2.97547e-06 6.16037e-05)
(0.000137658 4.57104e-06 9.45466e-05 0.000139639 6.27971e-05 0.000128262)
(0.000343349 0.000147777 0.00021052 0.000188576 9.84351e-05 0.000152394)
(0.000562644 0.000272557 0.000110097 0.000251984 1.86699e-05 6.26543e-05)
(0.000428288 0.00017107 -2.84104e-05 0.000167649 -6.70626e-05 8.72883e-05)
(0.00017109 6.11885e-06 1.0005e-05 5.85001e-05 -1.98314e-05 0.000139021)
(0.00013271 1.34997e-05 8.86459e-05 8.24282e-05 4.05775e-05 0.000180091)
(0.000124703 1.03826e-06 7.47734e-05 5.538e-05 -5.43892e-06 0.000173812)
(0.000118441 -3.26663e-06 7.4224e-05 9.00875e-05 -8.81539e-05 0.000216614)
(0.000130363 -2.37314e-05 0.000110257 0.000130116 -0.000145932 0.000289845)
(0.000130721 -2.03404e-06 7.85354e-05 6.8133e-05 -5.12395e-05 0.000142095)
(0.000138518 1.47766e-05 5.64284e-05 4.90737e-05 -2.08593e-05 8.22437e-05)
(0.000142935 1.93073e-05 5.24598e-05 4.24541e-05 -2.14662e-05 0.00010334)
(0.000149177 1.60936e-05 6.82868e-05 4.71277e-05 -1.91068e-05 9.31197e-05)
(0.000169272 -4.0379e-06 7.14865e-05 7.07894e-05 -3.19163e-06 7.99955e-05)
(0.000180572 -5.37029e-06 6.65313e-05 6.17633e-05 9.67668e-06 8.09336e-05)
(0.000201956 -2.21543e-05 0.000100845 6.87017e-05 -2.59471e-05 9.46598e-05)
(0.000202656 -2.72773e-05 0.000139104 5.30742e-05 -4.65166e-05 0.000160252)
(0.000164861 4.80511e-06 0.000109987 2.37456e-05 4.65983e-08 0.000144113)
(0.000155434 5.64354e-06 9.28568e-05 2.17402e-05 -5.14418e-07 0.000126252)
(0.000149823 7.15387e-06 7.74133e-05 3.27005e-05 -9.71206e-06 0.000108165)
(0.000150123 9.61672e-07 6.87939e-05 2.46983e-05 1.21843e-05 9.86239e-05)
(0.000155545 -1.7022e-05 6.53574e-05 0.000125484 7.65744e-05 0.000137832)
(0.000152058 -2.20629e-05 4.51367e-05 0.000120497 0.000118579 0.000223219)
(0.000143923 1.09012e-05 4.46468e-05 4.26503e-05 -5.0048e-06 0.000178595)
(0.000231602 0.000136738 6.10048e-05 0.000225852 1.62243e-06 0.000101055)
(0.000395289 0.000308756 0.000140727 0.000376703 9.92227e-05 0.000116589)
(0.000349731 0.00027465 0.000160535 0.000346242 0.000131784 0.000132993)
(0.000240409 0.000133191 0.000144525 0.000170364 0.000102116 0.00014275)
(0.00014153 4.10118e-05 8.19299e-05 7.43528e-05 4.52496e-05 0.000114758)