/*--------------------------------*- C++ -*----------------------------------*\
  =========                 |
  \\      /  F ield         | OpenFOAM: The Open Source CFD Toolbox
   \\    /   O peration     | Website:  https://openfoam.org
    \\  /    A nd           | Version:  10
     \\/     M anipulation  |
\*---------------------------------------------------------------------------*/
FoamFile
{
    format      ascii;
    class       surfaceScalarField;
    location    "22.5";
    object      phi_0;
}
// * * * * * * * * * * * * * * * * * * * * * * * * * * * * * * * * * * * * * //

dimensions      [0 3 -1 0 0 0 0];

internalField   nonuniform List<scalar> 
300480
(
0.000158671
-4.11192e-05
0.000164638
0.000164232
-3.44313e-05
0.000179025
0.00015301
1.31838e-05
0.000176481
0.000161593
-2.81162e-07
0.000161324
0.000167801
5.17976e-06
0.000168161
0.000163095
1.35569e-05
0.000164235
0.000168572
-2.69375e-06
0.000169852
0.000165134
1.52522e-05
0.000176916
0.000163236
2.24049e-05
0.000158072
0.000164324
1.50802e-05
0.000153476
0.000158601
7.15657e-06
0.00018572
0.000152578
1.81826e-05
0.000176335
0.00015161
1.45677e-05
0.00015427
0.00015268
4.64401e-05
0.00015521
0.000153
1.3224e-05
0.00016072
0.000166417
-2.6236e-05
0.000183826
0.000166418
2.10331e-05
0.000171083
0.0001553
3.0985e-05
0.000143483
0.000162472
-1.25747e-05
0.000157851
0.000162602
-8.26028e-06
0.00017801
0.000161198
1.94269e-05
0.000172097
0.000146705
7.7074e-05
0.000157374
0.000119567
1.22186e-05
0.000173744
0.000132264
-6.45658e-05
0.000192996
0.00016356
-5.80721e-05
0.000175444
0.000173907
-2.48952e-05
0.000177451
0.000170344
3.86283e-06
0.000179632
0.00016406
1.27689e-05
0.000179203
0.000153589
1.98926e-05
0.000185943
0.000157065
4.90467e-06
0.000158625
0.000165816
-8.32913e-06
0.000162994
0.000157856
1.64827e-05
0.000177448
0.000141911
2.68656e-05
0.00016599
0.000140488
5.76935e-07
0.000171588
0.000159013
-4.44971e-05
0.000160429
0.000158514
1.02733e-05
0.0001654
0.000150663
2.10327e-05
0.000186121
0.000166459
-5.60582e-05
0.000184698
0.000166291
6.81683e-06
0.000171441
5.04762e-05
0.000161874
0.000182856
-0.000194944
0.000143785
0.000178353
-0.00012482
0.000159116
0.000146438
4.54494e-05
0.000152581
0.000174461
-3.06866e-05
0.000122006
0.000198926
-4.17148e-05
0.000141763
0.000193042
-3.51492e-05
0.000139669
0.00019864
-1.3644e-05
0.000125116
0.00018847
5.30861e-05
0.000151447
0.000179502
7.14078e-05
0.000107562
0.00018303
4.88469e-05
9.23319e-05
0.00017323
2.88716e-05
0.000174522
0.000153154
4.38156e-05
0.00014785
0.000146366
-1.18891e-05
0.000115581
0.000160189
0.000118601
0.000106225
0.000166139
-8.02038e-06
0.000128515
0.000190862
-0.000137287
0.000184425
0.000190695
4.41312e-05
0.000139499
0.000170298
-4.90868e-06
0.000122539
0.000185202
-9.04926e-05
0.000134915
0.000177284
-1.34566e-05
0.000158777
0.000165753
6.54868e-05
0.000138298
0.00013918
0.000187708
9.17465e-05
8.14492e-05
-6.22184e-05
0.000176915
0.000116427
-0.000230442
0.000205847
0.000194843
-0.000205968
0.000132633
0.000208819
-8.95771e-05
0.000140713
0.000202868
2.29999e-06
0.00014544
0.000188824
3.78079e-05
0.000158371
0.000161861
5.79427e-05
0.000171957
0.000165504
-1.90707e-05
0.000110153
0.000183464
-6.69198e-05
0.00012781
0.000164504
2.66146e-05
0.000152099
0.000120582
4.19447e-05
0.000138301
0.000125863
-3.77379e-05
0.000142286
0.0001683
-0.000178367
0.000131694
0.000168019
-2.99609e-06
0.000136044
0.00016806
2.44567e-05
0.000163517
0.000202841
-0.000238256
0.000205181
0.000183194
-1.16492e-05
0.000157159
0.000105373
0.000118875
0.000201525
-0.000336077
0.000117105
0.000192506
-0.00022898
0.000140319
0.000143062
9.87173e-05
0.00014156
0.000172291
-4.90631e-05
0.000109788
0.000216073
-0.00010392
0.000129667
0.000230857
-0.000121972
0.000139187
0.000233798
-3.99481e-05
0.000100388
0.000211606
0.000100316
0.000128958
0.000198372
0.000147726
5.78581e-05
0.00020295
0.000103963
4.70383e-05
0.000198243
5.63417e-05
0.000155585
0.000179277
7.41642e-05
0.000121992
0.000159061
-5.3671e-05
0.000116769
0.000171991
0.000198583
7.38604e-05
0.000184776
-4.7637e-06
8.91288e-05
0.000226051
-0.000272252
0.000191892
0.00023433
6.73574e-05
0.000116449
0.000195927
-8.36001e-05
0.000138348
0.000202814
-0.000219624
0.000157174
0.000186868
-2.29692e-05
0.00015985
0.000173962
0.000115026
9.92646e-05
0.000171327
0.000279694
5.83647e-05
0.000101469
-8.27878e-05
0.000151392
0.000135768
-0.000347702
0.000183077
0.000240303
-0.000353479
9.20104e-05
0.000249967
-0.000165129
0.000122095
0.000242947
-1.38549e-05
0.000128678
0.000212366
7.7537e-05
0.000140414
0.000179122
0.000100518
0.000146536
0.000175716
-4.12966e-05
8.29509e-05
0.000187615
-0.000116188
0.00010419
0.00018706
2.07748e-05
0.000129964
0.000134235
4.34471e-05
0.000130206
0.000148385
-8.78421e-05
0.000128196
0.000182042
-0.000283485
0.000124832
0.000176894
-2.58384e-05
0.000115657
0.000217004
-2.97323e-05
0.000135266
0.000258092
-0.000444375
0.000214203
0.000206112
-2.89449e-05
0.000163411
0.000183709
9.06673e-05
0.000217491
-0.000407683
8.57186e-05
0.000198661
-0.000287153
0.000126794
0.000147036
0.000144613
0.000124639
0.00016805
-5.72249e-05
0.000116943
0.000205419
-0.000123513
0.0001317
0.000258533
-0.000189323
0.0001273
0.000270128
-8.89635e-05
9.18737e-05
0.000232723
0.000130557
0.000122861
0.000219046
0.000242074
2.21686e-05
0.000217867
0.000191636
1.3308e-05
0.000223186
8.00271e-05
0.000131679
0.000223003
0.00012236
9.4806e-05
0.000195662
-5.61941e-05
0.000119664
0.000192718
0.000266216
5.57256e-05
0.000193542
5.56467e-05
4.50552e-05
0.000256551
-0.000381557
0.000171345
0.000279573
7.83576e-05
0.000108031
0.000208748
-0.00012371
0.000129936
0.000211125
-0.000335943
0.000167025
0.000199122
-3.9184e-05
0.000156801
0.000190265
0.000159388
5.91228e-05
0.000212239
0.000358876
3.42169e-05
0.000152369
-8.12041e-05
0.00015394
0.000188417
-0.000460865
0.000164268
0.000286601
-0.000459661
7.18992e-05
0.000281425
-0.000235135
0.000124244
0.000272999
-5.3333e-05
0.000142151
0.000232383
0.000109213
0.000133121
0.000199696
0.000142521
0.000124077
0.000184962
-1.72552e-05
7.54523e-05
0.000190008
-0.000132124
8.73849e-05
0.000222963
1.36107e-05
0.000108347
0.000189518
2.30127e-05
0.000127666
0.000213565
-0.000154561
0.000126803
0.000189707
-0.000284223
0.000122855
0.000181765
-4.27988e-05
0.000106532
0.00027079
-0.000150797
9.86829e-05
0.000299557
-0.00061032
0.000194195
0.000231631
-5.57427e-05
0.000177471
0.000290207
8.16252e-05
0.000253821
-0.000425682
6.84405e-05
0.000222162
-0.000331481
0.00013652
0.000186026
0.000163355
0.000103049
0.00018748
-4.18264e-05
0.000108406
0.000193369
-7.52905e-05
0.000149405
0.000278478
-0.000222818
0.00011289
0.000311366
-0.000174793
9.17761e-05
0.000255785
0.000115793
0.000147644
0.000244925
0.000321859
2.25786e-05
0.000230052
0.000310479
3.60852e-06
0.000239543
0.000101326
9.82607e-05
0.00026192
0.000189558
7.06481e-05
0.000243799
-3.33213e-06
0.000118054
0.000242414
0.000309793
4.7507e-05
0.000221091
0.000144968
1.20523e-05
0.000293763
-0.000473255
0.000136765
0.000318756
8.67754e-05
0.000101797
0.000223593
-0.000107963
0.000122357
0.000240768
-0.000436285
0.000190367
0.000226665
-4.49181e-05
0.000153543
0.000221205
0.000219399
2.31291e-05
0.000238418
0.000453009
1.37565e-05
0.000193012
-8.46785e-05
0.00016402
0.000267201
-0.000600831
0.000126185
0.000341476
-0.000534349
4.99065e-05
0.000300742
-0.000281322
0.000124624
0.000282035
-0.00010471
0.000171424
0.000252699
0.000100245
0.000130615
0.000237234
0.000165385
0.000109926
0.000219053
4.12698e-05
9.13969e-05
0.000217176
-0.000126991
8.64071e-05
0.000248469
3.30887e-05
9.22618e-05
0.000246885
-3.29895e-05
0.000129613
0.000291932
-0.000257839
0.00013758
0.000231968
-0.000250049
0.000126239
0.000219668
-4.53473e-05
0.000107404
0.000302226
-0.000259813
5.58981e-05
0.000293893
-0.000698406
0.000179293
0.000237026
-8.92891e-05
0.000185537
0.000356397
7.64076e-05
0.000304476
-0.000388163
5.71472e-05
0.000278122
-0.000398846
0.00014731
0.000254593
0.000171695
0.00010291
0.000214915
3.88579e-05
0.000100022
0.000184842
1.05001e-05
0.000168222
0.000302221
-0.000266045
9.70834e-05
0.000356734
-0.000281036
7.17873e-05
0.000275677
9.12041e-05
0.000161655
0.000270368
0.00037092
4.43316e-05
0.00024662
0.000429016
1.76473e-05
0.000256885
0.000134129
7.43205e-05
0.000296891
0.000263584
6.71646e-05
0.000287232
5.52391e-05
0.000126514
0.000298989
0.000336052
4.54646e-05
0.000274241
0.00024994
-2.24251e-05
0.000340953
-0.000539425
0.000110242
0.000368445
8.66973e-05
9.83571e-05
0.000275855
-7.47144e-05
0.000120314
0.000290867
-0.000538052
0.000228689
0.000263352
-5.801e-05
0.000166386
0.000251267
0.000320069
-6.30785e-06
0.000259763
0.000537949
-2.01698e-06
0.000232336
-8.51019e-05
0.000182861
0.000347863
-0.000700703
4.93161e-05
0.000402307
-0.000599134
9.82225e-06
0.000319206
-0.000297724
0.000116927
0.000288173
-0.000146792
0.000185603
0.00028051
5.05192e-05
0.000122839
0.000291042
0.00016201
0.00010809
0.00026259
0.000112843
0.000101219
0.000227021
-9.24937e-05
9.4594e-05
0.000243988
5.06461e-05
8.84796e-05
0.000283171
-0.000118757
0.000137905
0.000354084
-0.000350855
0.000153502
0.000326223
-0.00022727
0.000132396
0.000309563
-3.15518e-05
0.0001081
0.000324593
-0.000280764
2.90426e-05
0.000261017
-0.000698394
0.000184128
0.000225903
-0.000109856
0.000185583
0.000352521
7.13446e-05
0.000373155
-0.000368044
5.86397e-05
0.000341211
-0.000431294
0.000150569
0.00033366
0.00016379
0.000110761
0.000273196
0.00013054
0.000108676
0.000212856
8.60711e-05
0.000174014
0.000347813
-0.000350842
7.88164e-05
0.000415565
-0.000387761
4.63317e-05
0.000318876
9.92131e-05
0.000140906
0.000294914
0.000434982
5.85174e-05
0.000260062
0.000538417
4.24006e-05
0.000283568
0.000198114
5.50292e-05
0.000351593
0.000281027
5.39266e-05
0.000350692
7.95544e-05
0.000137207
0.000357524
0.000354582
4.50398e-05
0.000331478
0.00035993
-5.9772e-05
0.000360728
-0.000531332
8.88664e-05
0.000388141
8.65217e-05
9.44348e-05
0.000320368
-3.13864e-05
9.77442e-05
0.000312688
-0.000635458
0.000250333
0.000302238
-0.000139743
0.000211178
0.000295411
0.000406847
-3.691e-05
0.000291185
0.000596932
-2.63545e-05
0.000270573
-6.3054e-05
0.00019
0.000394704
-0.000716737
-5.56498e-05
0.000465047
-0.000637958
-4.56404e-05
0.000344818
-0.000263162
0.000108922
0.000300582
-0.000147284
0.00015545
0.000330204
-1.37451e-05
9.06726e-05
0.000345899
0.000163215
9.42078e-05
0.00029752
0.000186934
9.1591e-05
0.000223413
-1.75888e-05
9.31229e-05
0.000261241
2.96096e-05
8.68779e-05
0.000320356
-0.000188274
0.00015393
0.000390391
-0.000373923
0.000155352
0.000408694
-0.000209322
0.000137864
0.000400177
-1.01875e-05
0.000106333
0.000351251
-0.000231457
3.02097e-05
0.000246492
-0.000644577
0.000199334
0.000237693
-0.000100173
0.000184868
0.00032887
8.1447e-05
0.000472623
-0.000401404
5.70455e-05
0.000420259
-0.000439838
0.000139551
0.000394774
0.000170769
0.000126296
0.000326034
0.000218917
0.00012769
0.000279226
0.000142209
0.000186651
0.000416237
-0.00045117
7.70652e-05
0.000476945
-0.000461588
2.45933e-05
0.000385544
0.000113614
0.000125154
0.000317909
0.000531459
7.49184e-05
0.00025181
0.000649744
7.38013e-05
0.000306894
0.000228902
3.96489e-05
0.000421304
0.000198502
4.25377e-05
0.00043431
8.8811e-05
0.000143443
0.000439817
0.000373567
6.22879e-05
0.000400973
0.000463703
-6.73034e-05
0.000371017
-0.000440369
6.95392e-05
0.000379991
8.65144e-05
0.000108101
0.000332566
5.62885e-05
6.30142e-05
0.000323185
-0.000699354
0.000229514
0.000358159
-0.00029658
0.000254592
0.000376402
0.000412411
-3.84615e-05
0.000360173
0.000602213
-1.54324e-05
0.000334769
-3.19189e-05
0.00017721
0.000426168
-0.000627985
-0.000150258
0.000518779
-0.000630012
-0.000104634
0.000380425
-0.000165542
7.23214e-05
0.000299476
-7.62317e-05
0.000117129
0.000367727
-7.95603e-05
6.28435e-05
0.000399729
0.000147003
5.95728e-05
0.000396578
0.000220341
6.04948e-05
0.000337884
5.9131e-05
6.29595e-05
0.000364617
3.23029e-05
9.15032e-05
0.000390016
-0.000207216
0.000154643
0.000425058
-0.000326632
0.000118768
0.0004589
-0.00020325
0.000115581
0.000464469
-2.07357e-05
9.26331e-05
0.00037038
-0.000133426
5.09912e-05
0.000240034
-0.000570309
0.000204924
0.000269181
-8.5649e-05
0.000198362
0.000282207
0.000112508
0.000552597
-0.000414323
5.69367e-05
0.000486993
-0.000417602
0.000121376
0.000433089
0.000166128
0.000162173
0.000360567
0.000293487
0.000144364
0.000342624
0.000164857
0.000186363
0.000489882
-0.000544182
7.5209e-05
0.000532321
-0.00048902
9.44392e-06
0.000432827
0.000143648
0.000108076
0.000327707
0.000667924
7.95865e-05
0.000242611
0.000731664
0.000103682
0.000335819
0.000210052
5.97542e-05
0.000471309
0.000105404
5.28964e-05
0.000489264
0.000115719
0.000158575
0.000496419
0.000393039
9.40542e-05
0.000470836
0.000535947
-5.10347e-05
0.000415985
-0.000301878
4.40636e-05
0.000406151
7.39027e-05
0.000136436
0.000359385
0.000196115
4.13626e-05
0.000337295
-0.000691981
0.000169066
0.000398051
-0.000455219
0.000262327
0.000437125
0.000385558
-5.10654e-05
0.000442128
0.000572181
1.56908e-05
0.000429862
-2.83889e-05
0.000135209
0.000466729
-0.000457013
-0.000161437
0.000550459
-0.000562181
-0.000127984
0.000479361
-9.36697e-05
5.02461e-06
0.00035368
4.37018e-05
0.000117568
0.000399486
-0.000158496
0.000133909
0.000460147
5.61073e-05
9.76864e-05
0.000484688
0.000216666
6.35283e-05
0.0004588
0.000105144
9.29366e-06
0.000467573
7.14672e-05
6.78042e-05
0.00046463
-0.000180338
0.000156137
0.000476927
-0.000247641
0.000105275
0.000511539
-0.000159665
9.04411e-05
0.000510345
-3.5018e-05
6.86794e-05
0.000387917
-7.47863e-07
8.16798e-05
0.000247949
-0.000494181
0.000198032
0.000311446
-0.000127696
0.000217794
0.000216069
0.000152012
0.000607976
-0.000404973
4.56239e-05
0.000527659
-0.000342968
0.000103571
0.000459017
0.000155321
0.000164627
0.000417988
0.000335113
0.000126725
0.000441861
0.000120211
0.000177219
0.000575468
-0.000603063
4.28685e-05
0.000601922
-0.000503086
8.35116e-06
0.000503863
0.000176004
9.29777e-05
0.000401217
0.000842842
3.95124e-05
0.000313089
0.000799383
0.00011124
0.000403504
0.000190512
8.78354e-05
0.000521973
5.22012e-05
5.41696e-05
0.00054129
0.000149322
0.000174622
0.000568069
0.000388596
0.000117603
0.000550017
0.00057039
-3.36425e-05
0.000497664
-0.000196541
2.09294e-05
0.000490035
8.83666e-06
0.000160138
0.000415279
0.000348229
3.68441e-05
0.000370308
-0.000634931
0.000129053
0.000454415
-0.000556922
0.000230975
0.000476462
0.000390402
-7.93543e-05
0.000487236
0.000556368
5.39745e-05
0.000492445
-3.70401e-05
8.9271e-05
0.000514843
-0.000294706
-9.80805e-05
0.000569584
-0.000471497
-0.000120541
0.000593527
-9.04943e-05
-2.53767e-05
0.000514466
0.000143852
7.09374e-05
0.000472025
-0.000184811
0.000155261
0.000510396
-6.80223e-05
0.000186647
0.000558824
0.000152995
0.000109789
0.000552702
0.000154454
-2.00368e-05
0.000533203
0.000111493
5.54636e-05
0.000513074
-0.000136111
0.000155512
0.000538347
-0.000182605
9.50078e-05
0.000566353
-7.89953e-05
7.55397e-05
0.000536602
-1.35609e-05
6.18132e-05
0.000423768
0.000110882
0.000113928
0.000282875
-0.00039733
0.000174517
0.000360051
-0.000179063
0.000196295
0.000135255
0.000141815
0.000625248
-0.000342303
1.81014e-05
0.00054494
-0.000219925
4.10336e-05
0.000483688
0.000160175
0.000121404
0.000478092
0.000353223
0.000114965
0.000551924
2.3138e-05
0.000193729
0.00067162
-0.000634947
3.00584e-05
0.000698002
-0.000515626
-1.97674e-05
0.000573913
0.000219112
9.87254e-05
0.000482066
0.00100075
5.67701e-05
0.000448474
0.000843088
0.000111759
0.000506204
0.00018688
8.18951e-05
0.000569582
8.34659e-05
7.18203e-05
0.000562641
0.00020613
0.000213198
0.000632856
0.000348288
0.00013098
0.000643284
0.000572176
-2.60488e-05
0.000566224
-0.000129017
4.7969e-06
0.000567569
-7.6545e-05
0.000176861
0.000548114
0.000420753
5.4299e-05
0.000477197
-0.000542002
0.000127848
0.000534615
-0.000637152
0.000179598
0.000586695
0.000337826
-3.46365e-05
0.000598084
0.000524542
5.73424e-05
0.000587572
-3.11037e-05
5.9799e-05
0.000606648
-0.000157764
-5.09095e-05
0.000607415
-0.000347687
-0.000128764
0.000665392
-8.37442e-05
3.46013e-06
0.000697662
0.000154691
2.54898e-05
0.000570083
-9.58796e-05
7.15995e-05
0.000507275
-0.000137148
0.000217989
0.000595124
3.04475e-06
0.000151766
0.000646609
0.000173361
-4.046e-05
0.000613835
0.000155037
5.30882e-05
0.000560155
-6.28959e-05
0.000132287
0.000590749
-0.000121479
7.01767e-05
0.000655128
-4.44946e-05
9.14535e-05
0.000613799
2.08183e-07
7.42965e-05
0.000500519
0.000193888
0.000138663
0.000375806
-0.000305524
0.000126637
0.000443182
-0.000198938
0.000126976
7.49845e-05
6.55351e-05
0.000640016
-0.000194191
-5.50356e-05
0.000588081
-3.40069e-05
-8.5441e-05
0.000487982
0.000217748
8.91527e-05
0.000487208
0.000327945
0.000171891
0.000617115
-0.000108668
0.000199854
0.00073031
-0.000658259
2.938e-05
0.000774977
-0.000535353
-4.2162e-05
0.000638868
0.00030468
0.000106756
0.000554176
0.00109402
9.13421e-05
0.000536625
0.000860769
5.98229e-05
0.000559393
0.00024
6.36453e-05
0.000648565
6.84432e-05
0.000133159
0.000643665
0.000256709
0.000255066
0.000693273
0.000318887
0.00013576
0.000724391
0.000526785
1.76153e-05
0.000636394
-4.9708e-05
2.54014e-05
0.000642181
-0.000128362
0.000165375
0.000677006
0.000466891
4.23292e-05
0.000575308
-0.000378413
0.00013569
0.00057146
-0.000676054
0.000121244
0.00067241
0.000238058
2.51269e-05
0.000725636
0.000410043
5.63277e-05
0.000658937
3.55622e-05
1.67899e-05
0.000654318
-8.34556e-06
-4.74231e-05
0.000686908
-0.000251053
-0.000116801
0.000760874
-0.000116462
3.07783e-05
0.00079859
0.000173859
3.54517e-05
0.000633778
7.71668e-05
9.42884e-05
0.000505532
-0.000185563
0.000275091
0.000608112
-0.000139364
0.000185618
0.000731168
0.000144939
-3.9251e-05
0.000692558
0.000204032
2.80857e-05
0.000590565
4.04043e-05
0.000104991
0.000624885
-6.04222e-05
8.15926e-05
0.00075456
-8.69515e-05
0.000128591
0.000733988
-3.15697e-06
5.57181e-05
0.000565318
0.000301361
0.000141405
0.000478583
-0.000205341
8.35241e-05
0.000560257
-0.000269596
7.3079e-05
7.4007e-05
-1.20567e-05
0.000709777
-3.60286e-05
-0.000104534
0.000716735
0.00011061
-0.000142479
0.000524615
0.000311618
9.5514e-05
0.000531814
0.000239497
0.000234498
0.000701173
-0.000282421
0.000161626
0.000757819
-0.000617392
2.24431e-05
0.000743978
-0.000501786
-5.93233e-05
0.000659774
0.000296276
0.000105587
0.000701719
0.00103198
8.77893e-05
0.000681611
0.000864801
-2.74528e-05
0.00065553
0.000336334
3.48121e-05
0.000695076
5.62856e-05
0.000211561
0.000751721
0.000219853
0.000308181
0.000829736
0.000271707
7.66979e-05
0.000823231
0.00049167
3.69275e-05
0.000776723
-7.00643e-06
8.25452e-05
0.000770485
-0.000169879
0.000141787
0.000760193
0.000540588
1.28921e-05
0.000647873
-0.000112069
4.56703e-05
0.000605433
-0.000622769
6.69867e-05
0.000763573
0.000100273
4.32527e-05
0.000948084
0.000176212
2.90841e-05
0.000836175
0.000157136
-5.10028e-05
0.000695244
0.000252342
-5.55196e-05
0.00073577
-0.00017807
-8.2823e-05
0.000809396
-0.000186034
3.03586e-05
0.000895412
0.000227131
1.11463e-05
0.000867094
0.000163256
7.11299e-05
0.000696461
-0.000244979
0.000304163
0.00068006
-0.000147461
0.00019192
0.000763156
0.000214568
-9.7004e-05
0.000730085
0.000334902
2.57301e-07
0.000649801
0.000149863
8.09544e-05
0.000677978
7.96447e-05
1.91352e-05
0.000795961
-6.76861e-05
9.19037e-05
0.000805546
-6.2736e-06
4.21075e-05
0.000635938
0.000502655
3.19382e-05
0.000551393
-5.92506e-06
-1.86502e-05
0.000640636
-0.000325898
2.08796e-05
0.000131612
-5.45216e-05
0.00076375
0.000139023
-6.5094e-05
0.000784872
0.000217009
-8.00292e-05
0.000542676
0.000404655
0.000210494
0.00054983
0.000130428
0.000266984
0.000800358
-0.000505899
6.81335e-05
0.000797282
-0.000467502
-6.83194e-05
0.000688676
-0.00032887
1.18538e-05
0.000681386
9.71314e-05
0.000232961
0.000798204
0.000837994
9.5541e-05
0.000824152
0.000832177
-5.4203e-05
0.000778768
0.000353494
8.1618e-05
0.000631571
0.000236494
0.000247815
0.000703614
0.000151183
0.000232011
0.000942644
2.45159e-05
6.14163e-06
0.000950516
0.000421813
-1.78219e-05
0.000924162
-5.51881e-05
0.000121778
0.000952329
-0.000231164
7.34265e-05
0.000909524
0.000686119
-8.071e-05
0.000760404
0.000216698
-4.32632e-05
0.000718194
-0.000565919
4.30959e-05
0.00086529
-3.2679e-05
6.69857e-05
0.00101901
5.96955e-06
2.1441e-05
0.000933773
0.000218962
-6.17035e-05
0.000764798
0.000513345
-6.3479e-05
0.000717586
-3.08478e-05
1.06631e-05
0.000773812
-0.000202326
3.56651e-05
0.00100064
0.000208428
-7.59641e-05
0.00115478
0.00011392
-2.06937e-05
0.000972724
-0.000250137
0.000238387
0.000845184
-5.48382e-05
0.00025964
0.000866629
0.000376283
-8.55081e-05
0.000827313
0.000508737
-7.88518e-05
0.000724912
0.000301716
-4.05359e-05
0.000692979
0.000269279
2.12466e-05
0.000812002
-1.83971e-05
8.72576e-05
0.000854309
-2.4874e-05
3.35592e-05
0.000710687
0.000745869
-6.59331e-05
0.000642143
0.000227336
-0.000111245
0.000773464
-0.000369175
-6.45673e-05
0.000172537
-3.49279e-05
0.00098104
0.000229428
-4.97988e-05
0.00104116
0.000297354
-0.000151464
0.000844355
0.000497526
0.000175623
0.000714233
0.0001377
0.000210819
0.000777332
-0.000414072
-4.52031e-05
0.000855992
-0.000294712
-0.000183025
0.000778153
-0.000141074
-2.59049e-05
0.000692998
8.87261e-05
0.000232531
0.000868404
0.000612659
0.000152814
0.00100864
0.000654756
-6.48209e-05
0.000958377
0.000362172
5.84291e-05
0.000755272
0.000528042
0.00015056
0.000787229
0.00016589
0.000111124
0.00103951
-0.000282272
6.99867e-05
0.00101707
0.000413308
-6.52589e-05
0.00084645
7.30163e-05
0.000127248
0.000851743
-0.000192232
7.26512e-05
0.001008
0.000651099
-5.65596e-05
0.000942197
0.000396251
-6.58388e-05
0.000799301
-0.000378257
4.48833e-05
0.000971936
-0.00020134
0.000104772
0.0011775
-0.0002281
1.23244e-05
0.00110871
0.000323794
-0.000117748
0.000889657
0.000860537
-4.76815e-05
0.00078363
0.000221786
5.0806e-05
0.000948313
-0.000170907
-5.81299e-05
0.00118143
0.000148096
-0.000135304
0.00119736
0.000117025
1.14277e-05
0.00100575
-0.000186277
0.000228117
0.000909507
5.778e-05
0.000256876
0.00093335
0.000425227
5.83205e-05
0.000941259
0.000598802
-5.86783e-08
0.000901533
0.000493676
-0.000128938
0.000811903
0.000435721
5.44809e-05
0.000719102
0.000141571
0.000229486
0.000796674
-0.000134531
0.000242243
0.000960739
0.000549294
5.93994e-05
0.000961423
0.000310943
-0.000114531
0.00101146
-0.000351996
-7.11471e-05
0.000177178
3.28301e-05
0.00111643
9.586e-05
-1.88207e-05
0.00102187
0.00037316
-1.65485e-05
0.000776227
0.000511226
0.000317359
0.000784714
4.10553e-05
0.000213161
0.000817114
-0.000218315
-6.96857e-05
0.000840467
-0.000128208
-0.00013559
0.000794007
-5.38631e-06
6.25294e-05
0.000776391
0.000117349
0.000220425
0.000860085
0.000491595
0.000144758
0.000874229
0.000620818
-8.45275e-05
0.000897746
0.000322378
7.46654e-05
0.000879267
0.000656499
0.000145785
0.00083699
0.000301438
4.84437e-05
0.0009501
-0.000460115
0.000184482
0.00117407
0.000229494
-5.09895e-05
0.00104195
0.00028581
1.44553e-05
0.000803687
8.28647e-05
6.46063e-05
0.00106318
0.000491076
-3.02981e-05
0.00126382
0.000336836
-0.000135357
0.000982774
-0.000137635
8.86263e-05
0.000946484
-0.000258366
0.000194061
0.00108838
-0.000395315
6.20699e-05
0.00104889
0.000364717
-4.86975e-05
0.00102589
0.00104979
-5.10196e-05
0.000956804
0.000454672
4.57459e-05
0.000930339
1.33764e-05
8.03663e-06
0.00120227
9.72349e-05
-8.97258e-05
0.00139939
-3.41967e-05
-5.35059e-05
0.00120718
-0.0001042
0.000169221
0.00104473
0.000160415
0.000336838
0.00106925
0.000322775
0.000227974
0.000978192
0.00069197
1.52667e-05
0.000929459
0.00066708
-0.000170145
0.000919191
0.000461295
2.35024e-05
0.000824274
0.000241266
0.000285888
0.000996915
-0.000311442
0.000328224
0.0011373
0.000327645
7.50377e-05
0.000953591
0.00045043
3.18152e-05
0.000933363
-0.000243569
6.48088e-05
0.000142751
7.52933e-05
0.00125196
-2.36208e-06
1.6884e-05
0.00118959
0.000513726
-8.94958e-05
0.000995917
0.00061685
0.000180449
0.000836483
6.57256e-05
0.000290489
0.000810077
3.04767e-05
3.1743e-06
0.000911931
3.34966e-05
-0.000136915
0.00108643
2.03941e-05
-4.82025e-05
0.00118506
9.81516e-05
2.86161e-05
0.00117059
0.0004018
0.000168817
0.00112321
0.000680402
-0.000107671
0.00104783
0.000451946
-1.83407e-05
0.00102895
0.000776274
0.000119183
0.000918219
0.000455973
7.53761e-05
0.00103042
-0.000618349
0.000235125
0.00122793
7.35745e-05
-2.00788e-05
0.000990046
0.00059892
3.26758e-05
0.00108832
2.94109e-05
8.33603e-05
0.00140788
0.000264272
-9.48296e-05
0.00116127
0.000736889
-5.87175e-05
0.000840461
8.65452e-05
0.000217178
0.000909234
-0.000313473
0.00027863
0.000985108
-0.000434543
6.32853e-05
0.0010109
0.000246288
4.83707e-05
0.0011382
0.0010302
2.88979e-05
0.00118876
0.00060607
4.66853e-05
0.00118918
0.000183067
-7.74636e-05
0.00129261
0.000195318
-7.94316e-05
0.00124113
1.77204e-05
7.4629e-05
0.00109371
-0.000138136
0.000255053
0.00103646
4.29054e-05
0.000452889
0.00104846
0.000183931
0.000382059
0.00115637
0.000531291
3.14154e-05
0.00121493
0.00064373
-0.000240084
0.00107355
0.000561416
-2.83326e-06
0.000887146
0.000466592
0.000263433
0.000998754
-0.000257659
0.000215274
0.00114015
0.00027949
3.08963e-05
0.00101031
0.000581033
9.27763e-06
0.00114545
-0.000300966
3.96116e-05
1.04721e-05
4.05261e-05
0.00121756
-6.38124e-05
4.69912e-05
0.00133441
0.000455204
-7.05292e-05
0.00129957
0.000535809
0.000158949
0.00115926
6.48341e-05
0.000293238
0.001093
0.000161434
8.28826e-05
0.0011079
0.000180326
2.25406e-05
0.00109814
0.000100837
9.51546e-05
0.00102633
6.70594e-05
0.000232185
0.00115678
0.000271444
0.000184083
0.00120702
0.000744407
-0.000210117
0.00105234
0.000584735
1.65502e-05
0.00110206
0.000770759
0.000140868
0.00109566
0.000539177
7.07837e-05
0.0011644
-0.000731553
0.000217761
0.00136207
-0.000187571
0.000150459
0.00128817
0.000778795
4.27501e-05
0.00117066
0.000212593
6.39174e-05
0.00129285
0.0002972
-4.64048e-05
0.00149718
0.000799112
-0.000117791
0.00137897
0.000216606
9.38062e-06
0.00116453
-0.000101945
0.000350402
0.00116666
-0.000366971
8.28866e-05
0.00101412
0.000267233
2.68523e-05
0.00107052
0.000962451
0.000212652
0.00137243
0.000499671
6.92978e-05
0.00136865
0.000322978
-9.69407e-05
0.00140472
0.000240102
-6.09933e-05
0.00146493
-1.18211e-05
4.26734e-06
0.00134242
-3.56385e-06
-9.8947e-07
0.00111762
0.000104948
0.000255818
0.00109661
-5.06184e-05
0.000396835
0.00132572
0.000211624
0.000117996
0.00122232
0.000794349
-0.000130301
0.00113256
0.000625488
0.000163675
0.00110577
0.000515036
0.000336185
0.00111576
-7.25746e-05
0.00017209
0.00141882
0.000217434
-0.000118324
0.00124035
0.000699511
-3.86918e-05
0.00114266
-0.000188002
0.000184954
-0.000151496
0.000118349
0.00142285
-0.000144087
4.34294e-05
0.00160056
0.000394567
-9.61354e-05
0.00170201
0.000333423
0.000134386
0.00147272
0.000218281
0.000218299
0.00131825
0.000381993
6.55253e-05
0.00121358
0.000373812
4.90666e-05
0.000888219
0.000460293
8.8868e-05
0.000792984
8.6547e-05
0.000246431
0.00104587
-5.58102e-05
0.000263628
0.00118393
0.000547089
-0.000140049
0.00114123
0.000567062
-0.000102758
0.00127555
0.000679859
-7.12562e-06
0.00151594
0.000385167
-3.321e-06
0.00138845
-0.000662071
0.000273725
0.00142106
-0.000209758
0.00015146
0.00157991
0.000727195
-6.20643e-05
0.00135417
0.000388441
0.000169991
0.00148817
0.000303745
5.2882e-05
0.00178679
0.000645023
-0.00021195
0.00152531
0.00038622
-6.36372e-05
0.00127981
7.59611e-05
0.000263032
0.00116952
-0.000267625
0.00031885
0.00104634
0.000362229
0.000133696
0.00145678
0.000599735
0.000177312
0.00173705
0.000236804
0.000215746
0.00153237
0.000469996
8.51421e-05
0.0015454
0.000287426
-8.1886e-05
0.00178147
-0.000177616
-8.9378e-05
0.0016787
1.70576e-05
-3.71887e-05
0.00125204
0.000183449
0.000308967
0.00108206
-0.000308769
0.000505167
0.00128332
-8.28755e-05
0.00034449
0.00153596
0.00063447
4.01541e-05
0.00146253
0.00061405
8.06356e-05
0.00133566
0.000400711
0.000535351
0.00127226
-1.99618e-05
0.000337951
0.0013187
0.000316114
-4.36545e-05
0.00119146
0.000845447
1.16971e-05
0.00111795
4.67647e-05
5.23665e-05
-0.00032169
0.00010561
0.00148293
3.7443e-05
-0.000160188
0.00163459
0.000410003
-9.48372e-05
0.00161336
0.000350386
0.000164903
0.0013628
0.000564725
0.000135978
0.00156244
0.00045735
-0.00014132
0.00193489
6.07315e-05
1.68478e-05
0.00183183
0.000554147
1.28227e-05
0.00142026
0.000464599
6.53856e-05
0.0013876
-0.000219546
0.000400708
0.00158246
0.000182074
-0.000102859
0.00150717
0.000482463
-0.000192175
0.00147961
0.000688397
-2.73857e-05
0.00146075
0.000720749
-0.000162853
0.00139091
-0.000457475
0.000227092
0.00165631
-0.000224458
7.76732e-05
0.00164448
0.000963968
-9.40216e-05
0.00126316
0.000645088
0.000254851
0.00149692
0.000211726
-2.92849e-06
0.00194245
0.000458071
-0.000246134
0.00168391
0.000436521
3.69095e-05
0.00128676
0.000354619
0.00030123
0.000969941
0.000117602
0.000316783
0.000959947
0.000219828
0.000318369
0.0014223
0.000185044
0.000371647
0.00164988
0.000219573
0.000337205
0.00205071
0.000198763
0.000195179
0.00232108
-4.16252e-06
8.42558e-05
0.00170725
0.000227215
0.000209081
0.0010559
0.000642258
0.000121979
0.000893937
0.000339584
0.000306278
0.000989605
-0.000430112
0.000476762
0.0012326
-0.000302314
0.000499287
0.00149736
0.000353074
0.000269972
0.00138561
0.000689289
5.83915e-05
0.00117916
0.000543695
0.000432328
0.00115724
0.000126563
0.000194841
0.00132176
0.000358577
-0.000150131
0.00136271
0.000878354
-4.15351e-06
0.00136168
0.000118043
0.00018284
-0.000298996
9.15719e-05
0.00148701
0.000335777
-4.21073e-05
0.00180331
0.00044659
-0.000326318
0.00163067
0.000583355
-3.81067e-05
0.00145303
0.000670116
0.000288648
0.00170712
0.000251993
0.000187924
0.00170918
6.55688e-05
0.000218988
0.00187118
0.000538182
2.72841e-05
0.00181416
0.00051853
7.98661e-05
0.00169852
-0.000221399
0.000409523
0.00186707
0.000153438
4.7734e-05
0.00171776
0.000682656
-0.000225568
0.00191055
0.000637975
-0.000187997
0.00193339
0.00086379
7.65676e-06
0.00120744
0.00022974
0.000290408
0.00133694
-0.000225395
0.000116543
0.00194364
0.000746308
-0.00031089
0.00182381
0.000725953
0.000101887
0.00172317
0.000300115
0.0001256
0.00178404
0.000734228
-0.000378687
0.00137929
0.000614658
2.83255e-05
0.00119947
0.00039686