/*--------------------------------*- C++ -*----------------------------------*\
  =========                 |
  \\      /  F ield         | OpenFOAM: The Open Source CFD Toolbox
   \\    /   O peration     | Website:  https://openfoam.org
    \\  /    A nd           | Version:  10
     \\/     M anipulation  |
\*---------------------------------------------------------------------------*/
FoamFile
{
    format      ascii;
    class       volVectorField;
    location    "22.5";
    object      U;
}
// * * * * * * * * * * * * * * * * * * * * * * * * * * * * * * * * * * * * * //

dimensions      [0 1 -1 0 0 0 0];

internalField   nonuniform List<vector> 
102400
(
(0.592083 0.00453835 0.341465)
(0.684074 0.000369962 0.359307)
(0.626121 0.000700221 0.393227)
(0.613533 0.00194725 0.344869)
(0.669659 0.00291474 0.362397)
(0.669629 0.0033341 0.382838)
(0.665309 -0.000214213 0.360438)
(0.678267 0.000616148 0.392699)
(0.657698 0.00177757 0.380221)
(0.657241 0.00113131 0.34488)
(0.657915 0.000243623 0.372151)
(0.627927 0.00153912 0.37376)
(0.594036 0.002737 0.359698)
(0.624414 0.00384601 0.393859)
(0.607626 0.00327994 0.369934)
(0.631576 0.00121363 0.40648)
(0.687924 0.00260827 0.391943)
(0.640165 0.00505541 0.357319)
(0.636471 0.00174415 0.324449)
(0.668148 -0.000778105 0.332414)
(0.632913 0.00106703 0.381932)
(0.659348 0.00282044 0.412436)
(0.511756 0.0114204 0.37152)
(0.469033 0.00425642 0.390161)
(0.60328 0.00121655 0.355693)
(0.689366 -7.47355e-05 0.361473)
(0.693599 0.000405208 0.368596)
(0.684861 0.000895142 0.369375)
(0.6459 0.00122397 0.386711)
(0.596672 0.00189178 0.346071)
(0.649913 0.00209559 0.360583)
(0.679417 0.00184235 0.397072)
(0.601167 0.00314693 0.376646)
(0.550469 0.00257485 0.355887)
(0.584685 0.00248753 0.332559)
(0.669768 0.00271545 0.366164)
(0.612757 0.00217036 0.400118)
(0.613081 0.00275375 0.399273)
(0.719164 0.00233038 0.403977)
(0.604736 0.00407092 0.396895)
(0.578492 -0.0183891 0.284479)
(0.752347 -0.0137924 0.304852)
(0.545603 0.0057633 0.375844)
(0.539541 -0.00104251 0.267028)
(0.703111 -2.33343e-05 0.272683)
(0.733974 0.00252841 0.320446)
(0.705712 -0.000350652 0.258318)
(0.730926 0.00680719 0.362644)
(0.663126 0.00952022 0.340495)
(0.655669 0.00742003 0.255162)
(0.674014 0.00403898 0.333871)
(0.606979 0.00700244 0.293947)
(0.505711 0.00312129 0.272422)
(0.563495 0.0180737 0.340338)
(0.60806 0.00398835 0.303794)
(0.614285 -0.0114069 0.381834)
(0.753558 0.00658966 0.318544)
(0.628681 0.00890923 0.324102)
(0.64979 -0.00431402 0.244389)
(0.700791 -0.000841051 0.253109)
(0.586843 0.00801274 0.339201)
(0.624465 0.0279174 0.298957)
(0.386428 -0.0047523 0.325488)
(0.227457 -0.0309931 0.39964)
(0.623257 -0.0242725 0.257046)
(0.767407 -0.00957338 0.263221)
(0.743241 0.00149448 0.270866)
(0.753112 0.00573094 0.306233)
(0.642959 0.00824629 0.331936)
(0.553524 0.00141477 0.246715)
(0.630577 -0.00537144 0.290664)
(0.705486 0.00530369 0.345179)
(0.514025 0.00948868 0.31172)
(0.38041 -0.00093557 0.27332)
(0.544093 -0.0218912 0.274854)
(0.654556 0.00200598 0.300491)
(0.582892 0.00681225 0.324937)
(0.664486 -0.0234493 0.427102)
(0.819676 -0.000269402 0.385018)
(0.514677 0.0173947 0.325344)
(0.551152 -0.0612192 0.220799)
(0.781444 -0.0415202 0.259115)
(0.49159 0.0113023 0.365147)
(0.476421 -0.00825963 0.27059)
(0.633732 -0.017172 0.233144)
(0.774931 -0.0168681 0.322359)
(0.782856 -0.00619336 0.198225)
(0.756652 0.0122997 0.317391)
(0.670835 0.0206138 0.284894)
(0.654771 0.0146871 0.201452)
(0.685461 0.00880873 0.294983)
(0.643927 0.0108201 0.232105)
(0.537179 -0.00931337 0.246023)
(0.518964 0.0306163 0.273061)
(0.622789 -0.00168151 0.225908)
(0.606754 -0.0434737 0.385602)
(0.856004 0.00945174 0.265284)
(0.687744 -0.010517 0.337289)
(0.652734 -0.0342669 0.249952)
(0.695507 -0.00439938 0.234617)
(0.538138 0.0171846 0.27687)
(0.61184 0.0481514 0.226726)
(0.508378 -0.0168307 0.221314)
(0.187305 -0.0641287 0.352281)
(0.721234 -0.0631549 0.179295)
(0.84338 -0.0285094 0.220794)
(0.803932 -0.00129614 0.217557)
(0.82768 0.00997855 0.248944)
(0.605677 0.0160792 0.262976)
(0.60182 -0.00783769 0.198049)
(0.541737 -0.0217862 0.263093)
(0.700044 0.00330998 0.313821)
(0.552104 0.0076828 0.281164)
(0.348052 -0.0117023 0.233528)
(0.650066 -0.0543357 0.253623)
(0.536884 -0.00616156 0.250959)
(0.643749 0.00500516 0.241208)
(0.808309 -0.0760353 0.374573)
(0.915588 -0.00775642 0.373864)
(0.458842 0.0300692 0.280701)
(0.554346 -0.0780818 0.172503)
(0.762559 -0.0570116 0.222956)
(0.422072 0.0213944 0.311204)
(0.474388 -0.00852685 0.302571)
(0.513133 -0.0230707 0.244511)
(0.695221 -0.0338512 0.309398)
(0.879624 -0.0140533 0.154226)
(0.739063 0.021469 0.268574)
(0.691139 0.0396804 0.227682)
(0.64074 0.0312723 0.165971)
(0.66999 0.0160451 0.249199)
(0.686774 0.0213317 0.200313)
(0.644124 -0.0139162 0.246758)
(0.533674 0.0452633 0.209963)
(0.631819 0.0070814 0.144187)
(0.536146 -0.0714984 0.355635)
(0.963075 0.0152247 0.26298)
(0.71115 -0.0220104 0.274423)
(0.596605 -0.0560703 0.229234)
(0.682407 -0.00695309 0.217398)
(0.507475 0.0259242 0.216539)
(0.628907 0.0650509 0.161839)
(0.619976 -0.00506118 0.198957)
(0.32965 -0.077825 0.304721)
(0.834668 -0.086118 0.125999)
(0.873761 -0.0449904 0.208939)
(0.81835 -0.00715821 0.226977)
(0.853568 0.0185257 0.199848)
(0.574738 0.0249695 0.2001)
(0.647569 -0.00625069 0.164409)
(0.454128 -0.0264851 0.230089)
(0.695135 0.00146062 0.284461)
(0.650921 0.0096452 0.252138)
(0.498764 -0.0182099 0.215785)
(0.81183 -0.053878 0.228515)
(0.323202 -0.00612613 0.217604)
(0.78398 -0.0136721 0.141994)
(0.846706 -0.117966 0.257514)
(0.960811 -0.0134518 0.345709)
(0.440681 0.0464415 0.258918)
(0.689196 -0.0798816 0.160769)
(0.721616 -0.0636151 0.232335)
(0.474529 0.0313063 0.2386)
(0.541703 -0.00912613 0.286289)
(0.467455 -0.0182115 0.287372)
(0.564389 -0.0421671 0.28852)
(0.971192 -0.0260857 0.0941403)
(0.725159 0.0201896 0.208596)
(0.705658 0.0519961 0.174958)
(0.65017 0.0506061 0.149926)
(0.611871 0.0189153 0.186938)
(0.709716 0.032446 0.175112)
(0.70714 -0.00751287 0.265405)
(0.621279 0.0582308 0.178757)
(0.711362 0.0267414 0.0914342)
(0.50514 -0.0911815 0.307416)
(1.06176 0.0141162 0.262947)
(0.675972 -0.0217645 0.22482)
(0.606991 -0.0749205 0.253851)
(0.7267 -0.00954407 0.20444)
(0.500522 0.037258 0.169433)
(0.703424 0.0864793 0.106242)
(0.576274 -0.0133212 0.186286)
(0.516918 -0.112805 0.21381)
(0.986896 -0.103813 0.0737292)
(0.879419 -0.0570162 0.176789)
(0.776601 -0.0181681 0.266723)
(0.799524 0.0229873 0.150276)
(0.605843 0.0324378 0.138067)
(0.704643 0.00423751 0.162754)
(0.487289 -0.0275886 0.202852)
(0.714498 0.000895521 0.244099)
(0.643649 0.00145258 0.214895)
(0.71219 -0.0426584 0.219478)
(0.911852 -0.0540167 0.221569)
(0.353328 -0.010297 0.20019)
(0.871884 -0.0451787 0.0485016)
(0.785019 -0.137437 0.211277)
(0.815781 -0.0219261 0.329926)
(0.466106 0.0666662 0.234882)
(0.813421 -0.0711465 0.133746)
(0.730902 -0.0773102 0.226716)
(0.636524 0.031366 0.198609)
(0.630903 0.00331888 0.247881)
(0.430199 -0.00188774 0.311382)
(0.469663 -0.0465586 0.246281)
(1.0451 -0.0487664 0.0379694)
(0.7237 0.0174092 0.139953)
(0.680626 0.0680085 0.129911)
(0.680815 0.0775772 0.134774)
(0.551782 0.0259201 0.147485)
(0.731645 0.042999 0.163227)
(0.726372 0.00413103 0.271796)
(0.694047 0.0653739 0.166234)
(0.798704 0.0478551 0.0542385)
(0.575306 -0.106959 0.255705)
(1.09239 0.0117732 0.237728)
(0.736983 -0.0176773 0.196921)
(0.695878 -0.100348 0.28913)
(0.775232 -0.0110437 0.184519)
(0.520564 0.0474048 0.140725)
(0.730097 0.0963949 0.0795469)
(0.549692 -0.00985897 0.204896)
(0.633879 -0.138505 0.0972077)
(1.12573 -0.115508 0.019817)
(0.882379 -0.0609901 0.127495)
(0.728476 -0.0267445 0.284581)
(0.734661 0.0173203 0.115687)
(0.674405 0.0359703 0.0955353)
(0.778235 0.0190228 0.150738)
(0.524251 -0.0233425 0.180956)
(0.625438 0.00982941 0.200038)
(0.583906 -0.0119259 0.169713)
(0.816876 -0.062617 0.227421)
(0.958251 -0.0490013 0.227656)
(0.652539 -0.00822572 0.185352)
(0.921066 -0.0518025 0.0130899)
(0.710338 -0.136074 0.216841)
(0.577118 -0.0269217 0.33053)
(0.514152 0.0788882 0.212771)
(0.918873 -0.0678391 0.121081)
(0.809765 -0.0906065 0.19952)
(0.726846 0.0304106 0.188386)
(0.791277 0.0188222 0.222616)
(0.437637 0.0132456 0.314997)
(0.515486 -0.0599352 0.180209)
(1.07491 -0.0721912 0.0272304)
(0.79656 0.01119 0.096879)
(0.678548 0.074682 0.0981411)
(0.67537 0.0971117 0.126798)
(0.511784 0.0367703 0.128544)
(0.765401 0.0595447 0.102833)
(0.799616 0.0148731 0.244099)
(0.774917 0.0701359 0.147826)
(0.847907 0.0690985 0.013612)
(0.665566 -0.107248 0.204038)
(0.950154 0.0128732 0.207336)
(0.797404 -0.00708875 0.159569)
(0.69894 -0.118359 0.289799)
(0.73717 -0.0193746 0.165279)
(0.605241 0.0672534 0.0830226)
(0.731268 0.115046 0.065655)
(0.582288 -0.00668187 0.222349)
(0.671611 -0.145336 -0.0077638)
(1.12694 -0.127693 -0.0337044)
(0.971531 -0.0615507 0.0746619)
(0.61643 -0.0327071 0.252226)
(0.767741 0.00257525 0.0945137)
(0.733714 0.0311256 0.0653685)
(0.830878 0.0305778 0.128113)
(0.514856 -0.0103958 0.148761)
(0.521877 0.00938898 0.154926)
(0.656981 -0.032361 0.142646)
(0.786118 -0.0730595 0.211885)
(0.980258 -0.045428 0.23384)
(0.844848 -0.00199141 0.170269)
(1.00374 -0.0464561 0.0148042)
(0.609667 -0.132446 0.212744)
(0.497985 -0.0294808 0.324891)
(0.542099 0.0678395 0.218511)
(1.02932 -0.0689455 0.104723)
(0.955767 -0.0913718 0.16678)
(0.774021 0.0269009 0.188178)
(0.867055 0.036318 0.200509)
(0.465503 0.0309338 0.326986)
(0.674532 -0.0793194 0.144599)
(1.06219 -0.0909398 0.0246218)
(0.888655 0.0100322 0.0679093)
(0.730086 0.0861249 0.0570754)
(0.607221 0.117305 0.1272)
(0.443458 0.0476466 0.102842)
(0.804966 0.0572186 0.0312398)
(0.894566 0.0181155 0.20555)
(0.874004 0.0688872 0.140927)
(0.944404 0.0888123 -0.00658725)
(0.733865 -0.091614 0.151952)
(0.788373 0.0151899 0.196955)
(0.761929 0.00541385 0.12545)
(0.638669 -0.130394 0.276937)
(0.704117 -0.0469364 0.175796)
(0.725928 0.0795159 0.0389096)
(0.816471 0.122862 0.0780531)
(0.664445 -0.00160901 0.212086)
(0.756051 -0.125661 -0.0606889)
(1.00998 -0.129851 -0.0641054)
(1.1001 -0.0478859 0.012077)
(0.491424 -0.0264629 0.222912)
(0.77533 -0.00709032 0.0943449)
(0.73846 0.0333655 0.0148578)
(0.894193 0.0453639 0.0873182)
(0.727012 0.00340982 0.0895503)
(0.688671 0.00336454 0.123539)
(0.807317 -0.0415956 0.113371)
(0.804322 -0.0735993 0.14782)
(0.945407 -0.0455821 0.190582)
(0.914004 -0.00200276 0.122487)
(1.0344 -0.0295081 0.0238393)
(0.515899 -0.121382 0.194063)
(0.47444 -0.0238078 0.321845)
(0.59313 0.0638136 0.255809)
(1.07514 -0.080241 0.0985903)
(1.0209 -0.0933066 0.131859)
(0.80283 0.0287333 0.178734)
(0.838968 0.0558753 0.180355)
(0.499765 0.0382893 0.308579)
(0.764112 -0.104124 0.133919)
(1.09439 -0.100072 0.00672091)
(0.888817 0.0219758 0.0541301)
(0.762276 0.116502 0.0520433)
(0.483635 0.142523 0.129909)
(0.428455 0.0507255 0.112057)
(0.809191 0.0311569 0.0251199)
(0.916718 0.0168465 0.208395)
(0.894805 0.0752214 0.143692)
(0.974761 0.111135 -0.0200738)
(0.82075 -0.0687194 0.0940284)
(0.739768 0.0136521 0.193522)
(0.767238 0.0267857 0.105239)
(0.601655 -0.142989 0.231783)
(0.683184 -0.0797843 0.231518)
(0.758133 0.068547 0.000624351)
(0.87702 0.126832 0.112611)
(0.779363 0.00775658 0.183504)
(0.870362 -0.0966813 -0.0400996)
(0.89517 -0.121252 -0.0431436)
(1.13591 -0.0255014 -0.0404826)
(0.665339 -0.00415581 0.196184)
(0.706533 -0.0241638 0.182398)
(0.793967 0.0212725 0.0474752)
(0.908173 0.047571 0.0720965)
(0.887891 0.0214984 0.019731)
(0.853102 0.0118771 0.074375)
(0.888348 -0.0350879 0.10978)
(0.857995 -0.0543098 0.116058)
(0.929071 -0.0366426 0.15825)
(0.964828 -0.00779981 0.0672537)
(0.989107 -0.00760115 0.0387527)
(0.489256 -0.110612 0.162663)
(0.452756 -0.0288914 0.320564)
(0.670581 0.0518166 0.291957)
(1.08394 -0.0746587 0.0713424)
(1.00591 -0.0849522 0.0930065)
(0.791709 0.0247822 0.155485)
(0.785653 0.06395 0.152942)
(0.623406 0.0363014 0.27309)
(0.858831 -0.108405 0.108286)
(1.12001 -0.107085 -0.00863391)
(0.923406 0.0183117 0.0437815)
(0.819767 0.141646 0.0243748)
(0.551366 0.151811 0.10067)
(0.502959 0.0405455 0.132295)
(0.85563 0.0116072 0.0268671)
(0.880824 0.0212697 0.220462)
(0.940876 0.075358 0.163645)
(1.00045 0.111242 -0.0113007)
(0.895644 -0.0519138 0.0355873)
(0.808574 0.00660595 0.184294)
(0.848445 0.0578427 0.105687)
(0.589626 -0.137121 0.194789)
(0.712372 -0.104179 0.265744)
(0.776217 0.0805013 -0.0389938)
(0.840038 0.118892 0.124973)
(0.818387 -0.00323447 0.150903)
(0.887951 -0.0757801 -0.00409795)
(0.892795 -0.106992 -0.0380051)
(1.01943 -0.0226325 -0.0175497)
(0.972763 0.0239275 0.0927389)
(0.82504 -0.0412458 0.14865)
(0.810926 -0.00177395 0.125853)
(0.906636 0.0388009 0.106359)
(0.971746 0.0248761 0.0129585)
(0.93527 0.0224235 0.0336214)
(0.880131 -0.0284189 0.118411)
(0.869466 -0.0402101 0.0998233)
(0.958911 -0.0251731 0.139375)
(0.96129 -0.0049871 0.04431)
(0.915783 0.0185906 0.0543799)
(0.549644 -0.0831657 0.129586)
(0.435814 -0.040696 0.297433)
(0.752876 0.0355133 0.266556)
(1.04217 -0.0774305 0.0249538)
(0.91642 -0.0580082 0.0604871)
(0.772277 0.0333381 0.127983)
(0.728581 0.0775197 0.128132)
(0.742161 0.0268843 0.249964)
(0.939519 -0.118013 0.11829)
(1.14318 -0.101649 -0.0342942)
(1.02324 0.0321752 0.0267679)
(0.780686 0.174537 0.0330614)
(0.716313 0.184594 0.0694735)
(0.655282 0.0527529 0.124318)
(0.91144 0.0158019 0.0600457)
(0.816534 0.0266172 0.233553)
(0.909586 0.0742223 0.17737)
(1.04485 0.133925 0.00822991)
(0.96184 -0.0172206 -0.0102475)
(0.809363 -0.013011 0.187488)
(0.927424 0.0797823 0.132409)
(0.789284 -0.107066 0.205415)
(0.738959 -0.133325 0.24553)
(0.85974 0.0566942 -0.0178416)
(0.933265 0.104592 0.0755555)
(0.919813 -0.00456615 0.119329)
(0.924658 -0.0408555 0.0132079)
(0.985125 -0.0796892 -0.079574)
(0.876776 -0.0227663 0.0558971)
(1.12587 0.0390705 0.0756999)
(1.06864 -0.0216927 0.0674244)
(0.753116 -0.0236378 0.131846)
(0.807462 0.0172335 0.141061)
(0.993208 0.0358012 0.00791356)
(1.02747 0.0229876 0.00146852)
(0.884635 -0.0267107 0.112595)
(0.850853 -0.0290808 0.107193)
(0.962469 -0.00583491 0.131255)
(1.05648 -0.00460634 0.0190395)
(0.898708 0.0305888 0.0503615)
(0.66698 -0.0681599 0.0919543)
(0.518875 -0.0452627 0.199867)
(0.830714 0.0179956 0.151302)
(0.95943 -0.046051 -0.0175617)
(0.863368 -0.0320515 0.0187653)
(0.798957 0.0175057 0.0965968)
(0.576552 0.0639628 0.158993)
(0.79355 -0.00506672 0.215728)
(0.916195 -0.125847 0.0927808)
(1.12291 -0.129111 -0.0392407)
(1.07374 0.022472 0.0396246)
(0.74152 0.219906 0.0327901)
(0.812667 0.167668 -0.00614347)
(0.688881 0.0342968 0.0978256)
(0.886681 0.0175232 0.10686)
(0.906406 0.0535394 0.223778)
(0.905461 0.061853 0.158617)
(1.03567 0.0947907 0.0343196)
(1.01259 -0.0191732 0.00105227)
(0.794432 -0.0282985 0.172578)
(0.992893 0.101135 0.136104)
(0.918348 -0.0757563 0.204997)
(0.751285 -0.136411 0.202372)
(0.826015 0.0642239 0.0256001)
(1.02911 0.113995 0.0218605)
(1.02245 0.00583485 0.0685661)
(0.86502 -0.0125608 0.00830036)
(0.999584 -0.0485236 -0.0847752)
(0.91133 -0.0220482 0.0426307)
(1.16691 0.0238654 0.0898065)
(1.11015 0.00416231 0.10282)
(0.743863 -0.0245813 0.152851)
(0.678911 -0.0213268 0.169886)
(0.977404 0.0327124 -0.0178589)
(1.09804 0.0519492 -0.0384107)
(0.867841 0.0139945 0.0941454)
(0.803505 -0.0210547 0.140557)
(0.929079 -0.0154115 0.127239)
(1.18762 0.00252946 -0.011519)
(0.930575 0.0612971 0.036016)
(0.676899 -0.0413436 0.0790474)
(0.681153 -0.0486567 0.0764509)
(0.89215 0.0100835 0.0400951)
(0.885066 -0.0235618 -0.0118356)
(0.938993 0.011543 -0.0274514)
(0.90524 0.0685833 0.0321984)
(0.443529 0.0856113 0.180225)
(0.908888 -0.0268889 0.154116)
(0.872626 -0.140397 0.0341483)
(1.06662 -0.0976048 -0.0402924)
(0.862724 0.0638921 0.0424224)
(0.822088 0.20755 0.00623051)
(0.945992 0.182631 -0.0959376)
(0.804585 0.0712542 0.0175934)
(0.883392 0.0139909 0.12943)
(0.85998 0.0337285 0.244879)
(1.06775 0.0645978 0.129637)
(1.05018 0.126978 0.0437435)
(1.05535 0.0117882 0.0297105)
(0.941947 -0.0373764 0.111437)
(1.03608 0.0915873 0.0834159)
(0.911612 -0.0419023 0.131284)
(0.786276 -0.124922 0.159147)
(0.751798 0.0240938 0.0105127)
(1.132 0.0589037 -0.0307942)
(1.29597 0.0136974 0.00433823)
(0.896855 0.00859876 -0.025699)
(0.923941 -0.0470852 -0.0767265)
(0.940508 -0.0329572 0.00694333)
(1.06188 0.03778 0.0857347)
(1.22905 0.0377817 0.0875496)
(1.06025 -0.0422645 0.123008)
(0.750724 -0.0369041 0.141246)
(0.954969 0.0197828 -0.0430308)
(1.02001 0.0236342 -0.00161813)
(0.860591 -4.75274e-05 0.0766669)
(0.814045 0.00375695 0.133463)
(0.891101 -0.0138346 0.131986)
(1.14235 -0.0136417 -0.0028459)
(0.958686 0.0614321 0.0140924)
(0.683265 -0.0200922 0.069142)
(0.742938 -0.0628856 0.0319386)
(0.897844 0.0199976 0.000869251)
(0.878397 0.00788865 0.0283856)
(0.91686 0.0332922 0.00187212)
(0.908308 0.05621 0.0816998)
(0.35158 0.0118644 0.19887)
(0.9093 -0.0867076 0.117276)
(0.93509 -0.0950019 -0.0366438)
(0.939994 -0.110123 0.0203852)
(0.689059 0.0305789 0.179823)
(0.881191 0.211638 0.0281865)
(0.949884 0.187988 -0.0801206)
(0.976014 0.0722599 0.0167994)
(0.870391 0.0148397 0.171323)
(0.5745 0.0479211 0.171549)
(1.05893 0.0361026 0.0514833)
(1.13177 0.0798417 -0.0480373)
(1.07108 -0.0050066 0.0107285)
(1.07121 -0.0359135 0.0611577)
(1.17038 0.1124 0.000719582)
(0.954946 0.0118193 0.0756838)
(0.842176 -0.133933 0.114798)
(0.850528 0.0126044 -0.0144459)
(1.09383 0.0234897 -0.0279611)
(1.28203 0.0470572 -0.0186374)
(0.941372 0.0998078 -0.0503547)
(0.879773 -0.00735576 -0.0255174)
(0.790835 -0.0432273 0.0422777)
(0.929879 0.0394268 0.0729897)
(1.35852 0.039584 0.0309835)
(1.37672 -0.0366666 0.0622427)
(0.925332 -0.0232865 0.154207)
(1.02757 0.0562594 -0.0210457)
(1.02273 0.122982 -0.0383664)
(0.917763 0.0752522 -0.0316967)
(0.776764 0.0363416 0.119766)
(0.810055 -0.0120919 0.162287)
(1.07697 0.00292949 0.010006)
(0.935116 0.135943 -0.0284315)
(0.723075 0.0311549 0.0180041)
(0.787477 -0.0809069 -0.0128858)
(1.0055 0.0209441 -0.0154426)
(0.97679 0.0456784 0.0171172)
(1.1107 0.0364576 -0.0683984)
(1.08769 0.0993397 0.0511949)
(0.718654 0.0626246 0.121504)
(0.802973 -0.0925842 0.0744202)
(0.811678 -0.0895556 -0.0427711)
(1.01025 -0.0306062 -0.0292847)
(0.671543 0.00104135 0.194091)
(0.761197 0.130831 0.0946374)
(1.0443 0.149521 -0.0901027)
(1.10712 0.0788172 -0.0112411)
(0.962423 0.0868832 0.129962)
(0.619038 0.0207341 0.11408)
(1.03734 -0.0322755 0.0609421)
(1.16969 0.102452 -0.0988128)
(0.980739 -0.00815168 0.0369238)
(0.828914 -0.0750234 0.105618)
(0.994703 0.137381 0.00840587)
(1.12718 0.0955298 0.0516689)
(0.881694 -0.0919655 0.085556)
(0.845097 -0.0370311 -0.00538359)
(1.14128 -0.0292754 -0.0348634)
(1.35071 0.0315233 -0.0639666)
(1.04713 0.115664 -0.019454)
(0.875955 0.0129658 0.0276491)
(0.78784 -0.0377553 0.044001)
(1.13336 0.0469439 0.00632873)
(1.34758 0.0227132 0.0110411)
(1.24747 -0.0622758 0.0885692)
(0.903032 -0.00860068 0.15816)
(1.00597 0.0733824 0.00548306)
(0.999604 0.0707195 0.00541761)
(0.997973 0.0424553 -0.0105665)
(0.908743 0.0705808 0.131775)
(0.811773 0.00818685 0.196499)
(0.730818 -0.0271289 0.120921)
(0.925804 0.142634 0.00952937)
(1.08249 0.080435 -0.0564395)
(0.948949 -0.0589348 -0.0447195)
(1.18341 0.0380573 0.00541707)
(0.9835 0.0441329 -0.00460388)
(1.17275 0.0923417 -0.078575)
(0.811408 0.109682 0.0763644)
(0.701859 0.00140978 0.118402)
(0.808231 -0.0597108 0.0615575)
(0.743003 -0.030111 0.00505171)
(0.896134 -0.0316094 0.0462917)
(0.642245 0.00605938 0.147202)
(0.816095 0.108826 0.104416)
(0.825851 0.124273 -0.0282617)
(0.87885 0.075033 0.0373635)
(0.846832 0.118574 0.128049)
(0.831358 0.0532771 0.0751295)
(0.782239 -0.0819204 0.130113)
(1.02055 0.0407034 -0.0356313)
(1.20526 0.0473809 -0.011546)
(0.828622 0.00175187 0.0714917)
(0.741481 0.11488 0.045261)
(1.26702 0.0814061 0.0377507)
(1.14337 -0.0102369 0.0402497)
(0.799637 -0.0249483 0.0262815)
(0.999091 -0.0614529 0.0443358)
(1.11127 0.0622396 0.0184033)
(0.931828 0.20163 0.0124277)
(1.05503 0.0956165 0.0130246)
(0.809509 -0.036269 0.0533292)
(0.926795 -0.000126331 0.0512669)
(1.3468 0.0290469 -0.0134677)
(1.38376 0.00285695 0.0435684)
(0.955771 0.0273439 0.146217)
(1.05253 0.0810283 0.0752264)
(1.04748 0.16146 -0.0187677)
(0.848971 0.150503 -0.0660243)
(0.929357 0.0996208 0.0690153)
(0.838116 0.0657276 0.199851)
(0.737753 -0.0410442 0.205698)
(1.15523 0.089246 -0.000856836)
(1.05292 0.0773132 -0.0283933)
(0.792467 -0.0824933 0.0842502)
(0.992528 0.0155014 0.0996087)
(1.06285 -0.00325551 -0.0302549)
(1.12565 0.0357183 -0.0569193)
(0.966701 0.0900224 0.0563993)
(0.79731 0.0315501 0.128559)
(0.670883 -0.0203338 0.0900346)
(0.734509 -0.0242461 0.0125292)
(0.864029 0.0284483 0.0126617)
(1.01657 0.0312029 -0.0145788)
(1.03435 0.0723527 0.116437)
(1.01854 0.138658 0.024192)
(0.961795 0.0477857 0.0253395)
(0.868041 0.13717 0.0705367)
(0.946862 0.0888757 0.0533408)
(0.655929 -0.106396 0.16671)
(1.12881 0.0338041 -0.021836)
(1.01138 0.0786596 0.0204831)
(0.70603 0.0238811 0.0831069)
(1.20346 0.0917634 0.0107538)
(1.23747 0.0843661 0.0229219)
(0.814866 -0.0346188 0.0362777)
(0.706049 -0.0830474 0.119071)
(0.866666 -0.107612 0.0886024)
(0.87263 0.060895 0.0478762)
(0.891044 0.217468 0.0414745)
(1.1011 0.119251 0.0553786)
(0.995071 0.0600633 0.00256577)
(1.03944 0.0472471 0.0300417)
(1.22219 -0.047702 0.0485486)
(1.00354 -0.0577573 0.0796045)
(0.905573 0.0275452 0.157838)
(0.902723 0.0541279 0.165692)
(0.946326 0.112258 -0.0106177)
(1.06882 0.125528 -0.128926)
(1.05094 0.109148 -0.00358277)
(0.843887 0.0472275 0.173638)
(0.716328 -0.0768238 0.184705)
(1.02617 0.0253436 0.0588855)
(0.968711 0.0882789 0.00484279)
(0.794864 -0.0219519 0.0505247)
(1.17036 0.036953 0.0296433)
(0.900459 -0.00999763 0.00286177)
(1.0112 0.153857 -0.0284046)
(1.10854 0.169264 -0.0182181)
(0.979063 0.0032646 0.102228)
(0.863047 0.030686 0.110293)
(0.879884 0.0408019 0.0440325)
(0.88367 -0.025728 0.029419)
(0.878646 0.0062465 0.0423427)
(0.749267 0.0788321 0.129053)
(1.08851 0.115287 -0.0212853)
(0.848014 0.121763 0.0303994)
(0.830979 0.177819 0.0550723)
(0.935943 0.110705 0.0324492)
(0.793466 -0.158913 0.122329)
(1.07357 -0.0271194 0.0483619)
(1.0606 0.142136 0.056668)
(0.977249 -0.00898486 0.0648488)
(0.937683 -0.0113793 0.0459199)
(1.05657 0.170965 0.039617)
(1.31035 0.0940586 -0.0658935)
(0.935848 -0.0191896 0.156208)
(0.930861 -0.0764121 0.119113)
(0.965052 0.0292033 -0.023337)
(0.637238 0.194141 0.105321)
(1.05374 0.131619 0.0874023)
(1.1221 0.00834651 -0.0344933)
(1.0274 0.0268472 -0.0202987)
(1.20972 0.0698872 0.0374621)
(1.14522 0.0152392 0.0308013)
(1.00271 -0.0216656 0.081204)
(0.784311 -0.00411067 0.143878)
(0.963972 0.100186 0.0155056)
(1.14914 0.145608 -0.0614991)
(0.794831 0.103266 0.0797421)
(0.99165 0.137569 0.136155)
(0.762456 -0.0287485 0.132804)
(1.00052 0.0730969 0.016818)
(1.25649 0.176367 -0.0515017)
(0.723069 -0.078557 0.114908)
(1.09721 -0.0386738 0.041599)
(0.979164 -0.0240229 0.0212588)
(1.03182 0.0256898 -0.0317152)
(1.27718 0.0624826 -0.0409797)
(1.2011 0.036085 0.0662533)
(0.931605 0.0390724 0.124104)
(1.01523 0.0378289 0.0642512)
(0.75253 0.0770785 0.051047)
(0.538376 0.0111142 0.1122)
(0.610486 0.0130112 0.154221)
(0.890211 0.171698 -0.015911)
(0.816556 0.109897 -0.0077901)
(0.82739 0.11763 -0.00906931)
(1.0101 0.131617 -0.00366007)
(1.14364 -0.0909096 0.0869326)
(0.897658 -0.0693317 0.109013)
(1.12175 0.166361 0.0155663)
(1.14417 0.11541 0.0483024)
(0.866101 0.12132 0.102914)
(1.23253 0.179776 -0.0208041)
(1.32926 0.0346501 -0.121405)
(0.931296 -0.00896203 0.115733)
(0.959201 -0.0838183 0.227123)
(0.763599 0.0452608 0.0329852)
(0.693643 0.182951 0.0398845)
(1.36537 0.0808713 0.0630281)
(1.16129 0.148925 -0.0254257)
(1.05158 0.091972 -0.0314465)
(1.16595 -0.0809376 -0.00372509)
(1.43175 -0.0245932 -0.0787427)
(1.02977 0.0796512 -0.0124755)
(0.82069 -0.0107581 0.118648)
(0.762161 -0.0194823 0.1068)
(1.08303 0.144811 -0.000601025)
(1.11522 0.158735 -0.0220139)
(0.992901 0.0959204 0.0886159)
(0.946015 0.0161569 0.0963606)
(0.909792 -0.0133855 -0.00814644)
(1.0239 0.0896948 0.00401027)
(0.706661 0.0172861 0.0894711)
(0.916846 -0.0190585 0.0468825)
(0.958996 -0.056074 -0.0171768)
(0.974433 0.122039 -0.0127498)
(1.18277 0.0693788 0.0436355)
(0.955151 0.0404413 0.084289)
(0.816916 0.101034 0.0316783)
(1.22388 0.101073 0.0355388)
(1.30107 0.122661 -0.0202993)
(1.11311 0.0360153 0.00281077)
(0.803832 -0.0481252 0.193258)
(1.00636 0.0478687 -0.00567574)
(1.05116 0.128573 -0.0994966)
(0.945684 0.181403 -0.049304)
(1.00989 0.0623868 -0.00605452)
(0.86413 -0.182685 0.13112)
(0.97491 -0.047693 0.122532)
(1.18612 0.128814 0.0620054)
(0.953116 0.0445109 0.101415)
(0.757818 0.000361706 0.0399265)
(1.15347 0.0705932 -0.00205142)
(1.35468 0.111078 -0.0669102)
(0.951473 0.0546657 0.0898671)
(0.788942 -0.00632204 0.19435)
(0.496078 0.0830347 0.0944482)
(0.722381 0.077419 0.172011)
(1.09653 0.031692 0.155484)
(1.06952 0.0188044 0.0728993)
(1.55345 0.0194092 -0.00523246)
(1.50241 0.0428776 -0.0604878)
(0.865401 0.030839 0.0107657)
(0.545856 -0.0175943 0.126625)
(0.639572 -0.143347 0.210788)
(0.664813 -0.0356703 0.207333)
(0.949611 0.114562 0.0521049)
(0.999123 0.101906 -0.000712312)
(0.838625 0.0623709 0.166978)
(0.729795 -0.0312171 0.10329)
(0.797644 0.141262 -0.0156642)
(0.940563 0.258243 0.0334826)
(0.823097 0.0196436 0.101809)
(0.97301 -0.130155 0.0465801)
(0.813093 0.0749341 0.0446374)
(0.952236 0.0251553 -0.0238734)
(1.1985 0.0693399 -0.00520877)
(0.757796 0.180001 0.0837331)
(0.968913 0.0929515 0.108566)
(1.07669 -0.079802 0.141255)
(0.96758 0.0902625 0.02659)
(1.26392 0.180999 -0.00248368)
(0.921743 -0.0478195 0.157668)
(1.0886 0.0191175 0.0914658)
(1.15357 0.0587444 -0.0124083)
(0.907048 0.0739579 -8.81863e-06)
(1.37266 0.224646 -0.00443592)
(0.939557 0.0233376 0.114545)
(0.562497 -0.0600071 0.126894)
(0.994999 0.211424 0.0079915)
(1.26185 0.211863 0.0709772)
(0.96374 0.0770872 0.0346406)
(1.09634 0.109835 -0.0705081)
(1.01845 0.0901348 -0.0500134)
(0.677155 0.0850241 0.122631)
(0.771468 0.0472086 0.0975802)
(0.72547 -0.0115487 0.0648031)
(0.765659 -0.0155042 0.168519)
(1.10148 0.0524963 0.0990504)
(1.23792 0.0758007 0.0891445)
(1.02314 -0.0206803 0.125299)
(1.09757 0.0152699 0.0818082)
(1.03012 0.195125 -0.0097615)
(1.08027 0.175384 -0.0409332)
(0.87243 0.0203618 0.0833426)
(0.732872 -0.0824764 0.17725)
(0.962182 -0.000983209 0.112866)
(0.98363 0.155459 0.031281)
(0.889075 0.17045 0.0875645)
(0.811818 0.103833 0.0524734)
(0.728941 -0.00778379 -0.142442)
(1.04158 0.075146 -0.0607939)
(1.00782 0.0550499 0.0589942)
(1.05892 0.0466665 0.0304464)
(0.827124 0.0318018 0.129579)
(1.18526 0.170631 -0.0152306)
(0.981011 0.184627 -0.0461574)
(0.821014 0.0945459 -0.0172547)
(1.05539 0.0281701 -0.024441)
(1.15987 0.108947 0.0862142)
(0.797715 0.109396 0.08994)
(1.00204 0.0259227 -0.053456)
(0.972699 -0.0378421 -0.0529738)
(1.02584 0.0104648 -0.0573009)
(1.23929 0.18431 -0.115871)
(0.930609 0.169763 -0.029154)
(0.942646 0.134522 0.11153)
(1.13317 0.0947208 0.0651892)
(0.78036 -0.040799 -0.0183168)
(0.971901 0.087847 -0.0848291)
(1.34809 0.109546 0.0171325)
(1.01633 0.0660898 0.0924933)
(1.16686 0.171962 -0.0699565)
(1.25641 0.137793 -0.039226)
(0.938074 0.0765973 0.0625152)
(0.917688 0.108624 0.020891)
(0.916211 0.0456915 0.0165643)
(0.702324 -0.0284816 0.150992)
(0.775002 0.0369542 -0.0011055)
(1.01665 0.0550494 -0.0554624)
(1.17998 0.0645191 -0.00906646)
(1.05082 0.079127 0.0686017)
(0.976018 0.11887 -0.0207029)
(0.993815 0.0890707 -0.0781097)
(0.891498 -0.0261009 0.0432764)
(1.07804 -0.0657758 0.0865037)
(0.927966 0.00557516 0.0778618)
(0.668666 0.133791 0.102691)
(0.841084 0.14453 0.136152)
(0.984371 -0.00428148 0.0307189)
(1.18765 0.147664 -0.198158)
(0.9876 0.304942 -0.0551161)
(0.840861 -0.0264805 0.114573)
(0.772579 -0.131246 0.116434)
(1.01652 -0.0190839 0.115205)
(1.0448 -0.0512739 0.0945638)
(1.17766 0.12656 -0.0333219)
(1.17276 0.233644 -0.0751099)
(0.962424 0.0560756 0.0278672)
(0.848901 -0.0269768 0.0750894)
(0.847364 0.158115 0.0190686)
(1.15973 0.19325 -0.00092368)
(0.97468 0.0474036 0.0709495)
(0.952042 0.0413234 0.0523551)
(1.13351 0.15609 -0.0299756)
(1.2216 0.207461 -0.0794906)
(1.02529 0.0749475 0.0512831)
(1.30003 0.171362 0.120194)
(1.24769 0.0727139 -0.0099538)
(1.16207 0.0619503 -0.025302)
(1.40304 0.170764 0.0301588)
(0.643817 0.00489316 0.100179)
(1.06172 0.0884605 0.0760591)
(1.76404 0.226841 -0.0407335)
(1.0485 0.0837328 0.0270323)
(0.621408 -0.0469503 0.0882894)
(0.87206 -0.101068 0.0322628)
(0.782623 0.0368566 0.0463586)
(0.802561 0.166442 -0.0209711)
(0.968339 0.0432654 -0.0162998)
(0.942525 -0.0641518 0.0101839)
(0.993932 0.0641964 0.0425154)
(0.979811 0.202252 -0.0542025)
(0.871049 0.249933 -0.0915419)
(1.14477 0.23505 -0.0481916)
(1.4031 -0.00439563 -0.0147783)
(1.21009 0.0665384 -0.000408248)
(0.978047 0.204517 -0.0324927)
(0.965451 0.0774923 0.00074897)
(0.885932 0.063352 0.0620746)
(0.781175 0.0851037 -0.0270004)
(0.983723 0.102142 -0.0945135)
(1.27858 0.145588 -0.0605597)
(1.18102 0.105776 0.0314128)
(1.08606 0.0529746 -0.0163594)
(0.829729 0.205622 0.0468129)
(0.871659 0.276371 0.020928)
(1.12541 0.299924 0.0225375)
(1.24787 0.213593 0.00725252)
(1.25982 0.107433 0.0227929)
(0.963681 -0.0268359 -0.00810657)
(1.31049 -0.0163664 -0.0750732)
(1.0372 0.110143 0.0107973)
(0.720807 -0.0067061 -0.012567)
(1.03639 0.175289 -0.108182)
(1.29378 0.203641 -0.0370335)
(1.408 -0.0286499 -0.0468077)
(1.40568 -0.00951906 -0.0331925)
(1.11464 -0.0219349 -0.0506466)
(1.09296 0.06791 -0.0612939)
(1.21321 0.335528 -0.00303118)
(1.2998 0.156797 0.0446708)
(1.15971 -0.137633 0.0601755)
(1.21463 0.0608239 0.0457455)
(1.34235 0.259407 0.120789)
(1.3511 0.239962 0.0442426)
(1.11975 0.0649218 0.0174503)
(0.867775 0.067302 0.0122912)
(0.991952 0.0676702 -0.037169)
(1.0599 0.0946122 0.00702963)
(1.03807 0.103316 -0.0799032)
(1.27312 -0.113905 -0.025996)
(1.14557 0.0580475 0.0369586)
(1.06255 0.219997 -0.0935719)
(0.892981 0.137632 -0.0878808)
(1.30361 -0.0417372 -0.0532607)
(1.28392 -0.0546943 0.0345051)
(1.0153 0.169052 -0.020591)
(1.34246 0.116247 -0.110936)
(1.1103 -0.115098 0.037423)
(1.16242 -0.0588375 0.0147988)
(1.5068 0.260931 -0.101121)
(1.20282 0.0597825 0.0187252)
(1.07234 -0.124703 0.0142008)