/*--------------------------------*- C++ -*----------------------------------*\
  =========                 |
  \\      /  F ield         | OpenFOAM: The Open Source CFD Toolbox
   \\    /   O peration     | Website:  https://openfoam.org
    \\  /    A nd           | Version:  10
     \\/     M anipulation  |
\*---------------------------------------------------------------------------*/
FoamFile
{
    format      ascii;
    class       volScalarField;
    location    "70";
    object      pPrime2Mean;
}
// * * * * * * * * * * * * * * * * * * * * * * * * * * * * * * * * * * * * * //

dimensions      [0 4 -4 0 0 0 0];

internalField   nonuniform List<scalar> 
25600
(
1.20914e-06
1.17315e-06
1.32859e-06
1.40929e-06
1.41546e-06
1.62361e-06
1.74758e-06
1.62404e-06
1.61354e-06
1.63357e-06
1.55093e-06
1.48692e-06
1.38931e-06
1.41845e-06
1.47779e-06
1.43021e-06
1.44295e-06
1.45219e-06
1.42695e-06
1.43938e-06
1.38752e-06
1.24556e-06
1.31817e-06
1.34731e-06
1.14819e-06
1.13536e-06
1.16494e-06
1.1171e-06
1.04006e-06
1.04853e-06
1.16753e-06
1.2224e-06
1.3218e-06
1.34934e-06
1.41166e-06
1.52559e-06
1.3781e-06
1.2949e-06
1.35137e-06
1.31208e-06
1.35708e-06
1.35896e-06
1.47164e-06
1.54888e-06
1.67227e-06
1.83166e-06
1.90728e-06
1.85919e-06
1.78239e-06
1.74488e-06
1.67723e-06
1.58185e-06
1.49513e-06
1.53132e-06
1.49313e-06
1.44494e-06
1.54689e-06
1.48907e-06
1.47131e-06
1.5159e-06
1.43671e-06
1.38485e-06
1.42574e-06
1.44362e-06
1.3017e-06
1.20841e-06
1.26626e-06
1.21858e-06
1.0786e-06
1.16001e-06
1.28142e-06
1.33933e-06
1.49344e-06
1.49981e-06
1.64507e-06
1.81726e-06
1.56224e-06
1.50467e-06
1.62254e-06
1.50237e-06
1.45837e-06
1.47605e-06
1.54333e-06
1.6162e-06
1.86607e-06
1.9335e-06
1.93466e-06
2.00986e-06
1.899e-06
1.81614e-06
1.76558e-06
1.65684e-06
1.62051e-06
1.65562e-06
1.54739e-06
1.52516e-06
1.66533e-06
1.60164e-06
1.63098e-06
1.67385e-06
1.62523e-06
1.6536e-06
1.59358e-06
1.60507e-06
1.54449e-06
1.39232e-06
1.45237e-06
1.3669e-06
1.20193e-06
1.29547e-06
1.36425e-06
1.50382e-06
1.71325e-06
1.76532e-06
2.0181e-06
2.11114e-06
1.81087e-06
1.78922e-06
1.83707e-06
1.63857e-06
1.53907e-06
1.54195e-06
1.60524e-06
1.7261e-06
2.035e-06
2.04302e-06
2.07623e-06
2.2503e-06
2.10169e-06
1.99986e-06
1.96079e-06
1.84203e-06
1.84438e-06
1.84132e-06
1.69851e-06
1.70106e-06
1.8619e-06
1.83806e-06
1.79984e-06
1.77801e-06
1.79466e-06
1.78435e-06
1.64055e-06
1.7002e-06
1.66392e-06
1.50983e-06
1.55574e-06
1.40874e-06
1.32043e-06
1.41409e-06
1.45523e-06
1.68817e-06
1.89996e-06
2.04591e-06
2.34181e-06
2.33628e-06
2.13195e-06
2.09892e-06
1.99951e-06
1.76153e-06
1.72466e-06
1.70272e-06
1.82191e-06
2.05061e-06
2.33013e-06
2.31035e-06
2.45569e-06
2.64162e-06
2.44297e-06
2.35228e-06
2.28339e-06
2.14514e-06
2.13899e-06
2.10518e-06
1.98846e-06
1.99607e-06
2.11951e-06
2.02403e-06
1.84835e-06
1.86248e-06
1.96822e-06
1.9303e-06
1.86844e-06
2.00386e-06
1.94792e-06
1.83059e-06
1.78361e-06
1.57807e-06
1.58915e-06
1.62585e-06
1.65089e-06
1.96161e-06
2.18613e-06
2.45311e-06
2.7467e-06
2.72434e-06
2.61521e-06
2.44511e-06
2.21135e-06
1.98381e-06
1.98916e-06
1.95493e-06
2.13354e-06
2.40026e-06
2.62571e-06
2.72269e-06
2.9856e-06
3.04121e-06
2.78217e-06
2.64667e-06
2.50589e-06
2.39794e-06
2.40163e-06
2.37361e-06
2.32887e-06
2.38701e-06
2.43318e-06
2.15404e-06
1.89962e-06
1.98444e-06
2.06956e-06
2.04907e-06
2.17181e-06
2.35935e-06
2.32957e-06
2.23831e-06
2.03015e-06
1.78092e-06
1.85434e-06
1.82236e-06
1.88111e-06
2.26136e-06
2.49854e-06
2.8148e-06
3.05665e-06
3.09788e-06
3.06609e-06
2.78113e-06
2.53063e-06
2.30554e-06
2.63678e-06
2.7225e-06
3.0248e-06
3.27037e-06
3.3534e-06
3.5259e-06
3.90856e-06
3.9857e-06
3.749e-06
3.42498e-06
3.08347e-06
2.886e-06
2.75599e-06
2.57388e-06
2.47749e-06
2.62242e-06
2.68e-06
2.33028e-06
2.11542e-06
2.26205e-06
2.34437e-06
2.4493e-06
2.67266e-06
2.76734e-06
2.71093e-06
2.58565e-06
2.27906e-06
2.11554e-06
2.23522e-06
2.18032e-06
2.35035e-06
2.77831e-06
3.04387e-06
3.46932e-06
3.7635e-06
3.87023e-06
3.81224e-06
3.47098e-06
3.25828e-06
2.9731e-06
3.11862e-06
3.21552e-06
3.46903e-06
3.66762e-06
3.76994e-06
4.11055e-06
4.5371e-06
4.56511e-06
4.18076e-06
3.67056e-06
3.21186e-06
3.08689e-06
3.00175e-06
2.76682e-06
2.70175e-06
2.93773e-06
2.90864e-06
2.50525e-06
2.43024e-06
2.64968e-06
2.71691e-06
2.9157e-06
3.2509e-06
3.30756e-06
3.26695e-06
3.21415e-06
2.98741e-06
2.88502e-06
2.92116e-06
2.89432e-06
3.2488e-06
3.74509e-06
4.00578e-06
4.33094e-06
4.47976e-06
4.48283e-06
4.28719e-06
3.91858e-06
3.75092e-06
3.43293e-06
3.33174e-06
3.56084e-06
3.87386e-06
4.08105e-06
4.18017e-06
4.54773e-06
4.99032e-06
5.12207e-06
4.99165e-06
4.42759e-06
3.92975e-06
3.80838e-06
3.71089e-06
3.58393e-06
3.68308e-06
3.93498e-06
3.64752e-06
3.16156e-06
3.22491e-06
3.38083e-06
3.33146e-06
3.6239e-06
4.05065e-06
4.07938e-06
4.05199e-06
4.09453e-06
3.9896e-06
3.86928e-06
3.70063e-06
3.57838e-06
4.03541e-06
4.52917e-06
4.666e-06
4.87993e-06
5.04192e-06
4.97782e-06
4.60198e-06
4.19484e-06
3.99004e-06
3.59235e-06
4.01486e-06
4.32083e-06
4.54157e-06
4.64809e-06
4.65026e-06
4.98013e-06
5.48419e-06
5.76664e-06
5.71401e-06
5.24367e-06
4.81304e-06
4.70548e-06
4.67987e-06
4.60141e-06
4.64531e-06
4.74099e-06
4.35131e-06
3.91078e-06
3.92221e-06
3.82886e-06
3.68072e-06
3.99792e-06
4.32148e-06
4.32604e-06
4.49493e-06
4.7984e-06
4.85335e-06
4.63828e-06
4.30655e-06
4.16331e-06
4.60128e-06
5.01127e-06
5.04777e-06
5.24402e-06
5.48788e-06
5.46521e-06
5.02716e-06
4.57374e-06
4.36242e-06
4.05792e-06
5.37912e-06
5.46814e-06
5.39977e-06
5.33582e-06
5.30203e-06
5.63456e-06
6.2451e-06
6.74202e-06
6.75203e-06
6.34674e-06
5.89387e-06
5.63237e-06
5.57054e-06
5.50409e-06
5.41836e-06
5.35032e-06
4.97205e-06
4.73024e-06
4.81354e-06
4.6118e-06
4.41103e-06
4.73879e-06
5.02984e-06
5.08184e-06
5.34658e-06
5.76435e-06
5.82561e-06
5.60582e-06
5.38126e-06
5.41016e-06
5.87328e-06
6.15074e-06
6.00628e-06
6.06528e-06
6.36114e-06
6.38141e-06
5.9046e-06
5.53486e-06
5.45892e-06
5.27736e-06
6.69212e-06
6.69254e-06
6.611e-06
6.68701e-06
6.76345e-06
7.02076e-06
7.54132e-06
7.97016e-06
8.02125e-06
7.68867e-06
7.11305e-06
6.61903e-06
6.61823e-06
6.63615e-06
6.37645e-06
6.24798e-06
6.00651e-06
5.89141e-06
5.94708e-06
5.57697e-06
5.29608e-06
5.72603e-06
6.12125e-06
6.22046e-06
6.47619e-06
6.79881e-06
6.8272e-06
6.65212e-06
6.50684e-06
6.53803e-06
6.77916e-06
6.56907e-06
6.23893e-06
6.454e-06
6.95743e-06
7.02397e-06
6.51065e-06
6.31036e-06
6.51045e-06
6.53051e-06
8.2951e-06
8.15057e-06
8.17923e-06
8.47958e-06
8.61193e-06
8.66965e-06
8.99069e-06
9.09934e-06
9.02219e-06
8.78942e-06
8.10669e-06
7.42026e-06
7.40438e-06
7.34941e-06
6.97825e-06
7.05884e-06
7.11821e-06
7.02649e-06
6.94869e-06
6.37274e-06
6.19785e-06
6.86195e-06
7.32903e-06
7.21976e-06
7.12769e-06
7.42297e-06
7.78326e-06
7.8208e-06
7.49611e-06
7.27723e-06
7.31959e-06
7.14977e-06
7.13437e-06
7.66873e-06
8.17168e-06
7.94187e-06
7.24436e-06
7.24262e-06
7.75468e-06
8.08952e-06
1.01277e-05
9.701e-06
9.59348e-06
9.98054e-06
1.00483e-05
9.98128e-06
1.023e-05
1.0196e-05
1.01758e-05
9.97067e-06
8.99004e-06
8.03925e-06
7.95003e-06
7.71809e-06
7.31522e-06
7.73478e-06
8.00426e-06
7.77391e-06
7.4594e-06
6.77164e-06
6.80106e-06
7.71507e-06
8.16433e-06
8.01166e-06
7.90968e-06
8.25266e-06
8.59431e-06
8.36342e-06
7.85099e-06
7.81435e-06
8.21035e-06
8.43568e-06
8.59598e-06
8.99484e-06
9.2239e-06
8.84627e-06
8.40138e-06
8.85392e-06
9.69417e-06
1.01255e-05
1.21979e-05
1.15342e-05
1.12644e-05
1.13934e-05
1.11683e-05
1.0901e-05
1.09177e-05
1.0826e-05
1.09592e-05
1.05808e-05
9.30009e-06
8.30277e-06
8.31531e-06
8.17113e-06
7.97674e-06
8.58634e-06
8.89078e-06
8.53262e-06
7.93767e-06
7.19611e-06
7.42923e-06
8.5416e-06
9.08337e-06
8.96918e-06
8.85012e-06
9.21062e-06
9.53549e-06
9.07076e-06
8.51136e-06
8.62072e-06
9.23829e-06
9.60246e-06
9.93804e-06
1.05558e-05
1.0917e-05
1.06559e-05
1.0514e-05
1.12622e-05
1.21251e-05
1.24467e-05
1.33884e-05
1.27624e-05
1.2358e-05
1.22291e-05
1.19305e-05
1.17969e-05
1.19146e-05
1.1877e-05
1.20019e-05
1.15185e-05
1.012e-05
9.19943e-06
9.20269e-06
8.9551e-06
8.92292e-06
9.73401e-06
9.97619e-06
9.64075e-06
9.17195e-06
8.36974e-06
8.31984e-06
9.14795e-06
9.53669e-06
9.32786e-06
9.25216e-06
9.8587e-06
1.01678e-05
9.51623e-06
9.1328e-06
9.31507e-06
9.77295e-06
1.021e-05
1.10695e-05
1.23104e-05
1.29499e-05
1.27077e-05
1.26615e-05
1.33846e-05
1.39428e-05
1.38423e-05
1.46421e-05
1.39505e-05
1.33317e-05
1.31454e-05
1.28082e-05
1.28154e-05
1.32899e-05
1.35397e-05
1.37161e-05
1.30576e-05
1.16614e-05
1.10072e-05
1.10381e-05
1.06219e-05
1.07383e-05
1.16218e-05
1.1579e-05
1.10531e-05
1.05051e-05
9.41171e-06
8.97824e-06
9.55849e-06
1.0007e-05
1.00297e-05
1.02679e-05
1.12456e-05
1.14889e-05
1.05946e-05
1.01004e-05
1.00797e-05
1.02595e-05
1.08739e-05
1.23233e-05
1.40506e-05
1.49262e-05
1.47132e-05
1.46852e-05
1.51706e-05
1.52553e-05
1.49537e-05
1.61244e-05
1.53597e-05
1.46641e-05
1.44598e-05
1.41253e-05
1.43162e-05
1.4819e-05
1.49094e-05
1.49799e-05
1.45255e-05
1.36278e-05
1.33478e-05
1.33587e-05
1.28411e-05
1.29162e-05
1.34977e-05
1.32082e-05
1.26978e-05
1.20316e-05
1.0595e-05
9.83747e-06
1.03165e-05
1.09049e-05
1.12506e-05
1.18718e-05
1.28718e-05
1.29259e-05
1.17565e-05
1.10498e-05
1.09811e-05
1.14401e-05
1.25775e-05
1.45993e-05
1.66657e-05
1.74788e-05
1.70883e-05
1.68933e-05
1.69478e-05
1.6586e-05
1.62586e-05
1.81702e-05
1.70117e-05
1.63195e-05
1.61325e-05
1.58246e-05
1.59444e-05
1.6094e-05
1.59353e-05
1.61065e-05
1.59451e-05
1.54489e-05
1.54861e-05
1.54166e-05
1.47576e-05
1.46976e-05
1.50987e-05
1.49311e-05
1.47253e-05
1.39607e-05
1.22526e-05
1.14581e-05
1.19862e-05
1.27831e-05
1.32996e-05
1.38747e-05
1.47088e-05
1.47392e-05
1.34639e-05
1.25609e-05
1.25283e-05
1.3323e-05
1.49942e-05
1.74634e-05
1.94906e-05
1.98487e-05
1.93526e-05
1.9132e-05
1.90098e-05
1.86825e-05
1.85428e-05
2.08546e-05
1.94506e-05
1.89273e-05
1.87858e-05
1.84239e-05
1.82228e-05
1.76869e-05
1.73343e-05
1.77101e-05
1.76354e-05
1.7164e-05
1.71707e-05
1.68929e-05
1.63123e-05
1.64336e-05
1.70722e-05
1.7127e-05
1.71686e-05
1.63718e-05
1.45466e-05
1.37409e-05
1.42636e-05
1.5132e-05
1.55799e-05
1.60393e-05
1.67953e-05
1.68886e-05
1.54579e-05
1.44274e-05
1.42025e-05
1.4794e-05
1.65868e-05
1.95482e-05
2.15958e-05
2.19262e-05
2.16423e-05
2.1577e-05
2.14105e-05
2.13925e-05
2.14901e-05
2.39801e-05
2.22696e-05
2.16944e-05
2.13823e-05
2.08998e-05
2.05347e-05
1.96797e-05
1.92177e-05
1.95836e-05
1.96096e-05
1.91506e-05
1.91403e-05
1.86589e-05
1.82237e-05
1.84898e-05
1.92575e-05
1.92825e-05
1.93103e-05
1.8469e-05
1.66367e-05
1.5992e-05
1.67776e-05
1.77055e-05
1.78946e-05
1.81109e-05
1.86018e-05
1.86249e-05
1.72928e-05
1.64587e-05
1.61743e-05
1.63835e-05
1.80703e-05
2.13599e-05
2.35643e-05
2.41433e-05
2.41781e-05
2.44299e-05
2.439e-05
2.46898e-05
2.49012e-05
2.6994e-05
2.50009e-05
2.38955e-05
2.31328e-05
2.25798e-05
2.22491e-05
2.15663e-05
2.11663e-05
2.14719e-05
2.15104e-05
2.10751e-05
2.08242e-05
1.99725e-05
1.97898e-05
2.03686e-05
2.14185e-05
2.11984e-05
2.10064e-05
2.00521e-05
1.84478e-05
1.81517e-05
1.91695e-05
1.96898e-05
1.95619e-05
1.9844e-05
2.02669e-05
2.05133e-05
1.96576e-05
1.92156e-05
1.8918e-05
1.88834e-05
2.03287e-05
2.35184e-05
2.55637e-05
2.62957e-05
2.6798e-05
2.77554e-05
2.7926e-05
2.82507e-05
2.82255e-05
2.91342e-05
2.71178e-05
2.56277e-05
2.44468e-05
2.38307e-05
2.35071e-05
2.29315e-05
2.26915e-05
2.3229e-05
2.3224e-05
2.28614e-05
2.27279e-05
2.15929e-05
2.13515e-05
2.2097e-05
2.31286e-05
2.25439e-05
2.2062e-05
2.10242e-05
1.9902e-05
2.01121e-05
2.10967e-05
2.09856e-05
2.06077e-05
2.11416e-05
2.18976e-05
2.2637e-05
2.19667e-05
2.15442e-05
2.13793e-05
2.16149e-05
2.30587e-05
2.57603e-05
2.76677e-05
2.85977e-05
2.95203e-05
3.08613e-05
3.10352e-05
3.10066e-05
3.05431e-05
3.06743e-05
2.86127e-05
2.71067e-05
2.58688e-05
2.49399e-05
2.44092e-05
2.37111e-05
2.36831e-05
2.45152e-05
2.43457e-05
2.4083e-05
2.4681e-05
2.35937e-05
2.31717e-05
2.36099e-05
2.43343e-05
2.3452e-05
2.2701e-05
2.16884e-05
2.11084e-05
2.16937e-05
2.26222e-05
2.20518e-05
2.1479e-05
2.21055e-05
2.31178e-05
2.42836e-05
2.36183e-05
2.30847e-05
2.34266e-05
2.45108e-05
2.62296e-05
2.85398e-05
3.03047e-05
3.12486e-05
3.22479e-05
3.31851e-05
3.30638e-05
3.28303e-05
3.21932e-05
3.19236e-05
2.95598e-05
2.81498e-05
2.72142e-05
2.59601e-05
2.51381e-05
2.42658e-05
2.43402e-05
2.52467e-05
2.49352e-05
2.46724e-05
2.57892e-05
2.4781e-05
2.43955e-05
2.473e-05
2.53183e-05
2.41731e-05
2.30791e-05
2.21985e-05
2.18134e-05
2.25612e-05
2.36567e-05
2.29333e-05
2.23515e-05
2.28854e-05
2.38466e-05
2.5238e-05
2.48299e-05
2.45134e-05
2.54901e-05
2.72335e-05
2.94179e-05
3.14562e-05
3.27971e-05
3.34943e-05
3.4465e-05
3.50429e-05
3.44003e-05
3.41049e-05
3.35584e-05
3.29675e-05
3.03926e-05
2.88564e-05
2.81736e-05
2.69903e-05
2.58305e-05
2.48815e-05
2.47336e-05
2.54171e-05
2.51562e-05
2.49819e-05
2.6224e-05
2.50738e-05
2.47055e-05
2.52161e-05
2.59886e-05
2.47713e-05
2.35409e-05
2.26575e-05
2.2235e-05
2.30731e-05
2.44763e-05
2.35764e-05
2.30734e-05
2.35565e-05
2.41598e-05
2.55527e-05
2.5548e-05
2.5633e-05
2.72122e-05
2.91526e-05
3.16717e-05
3.34448e-05
3.43983e-05
3.48507e-05
3.59411e-05
3.6358e-05
3.52068e-05
3.49882e-05
3.46487e-05
3.37344e-05
3.10866e-05
2.93428e-05
2.85471e-05
2.76037e-05
2.64723e-05
2.54e-05
2.49827e-05
2.52654e-05
2.49635e-05
2.51272e-05
2.63208e-05
2.51169e-05
2.47495e-05
2.53009e-05
2.63437e-05
2.51735e-05
2.38715e-05
2.28929e-05
2.24152e-05
2.32612e-05
2.48981e-05
2.39218e-05
2.3466e-05
2.3812e-05
2.41684e-05
2.54564e-05
2.57894e-05
2.62421e-05
2.82494e-05
3.02068e-05
3.29183e-05
3.45225e-05
3.52224e-05
3.55337e-05
3.66748e-05
3.69523e-05
3.5592e-05
3.55951e-05
3.54434e-05
3.39932e-05
3.13663e-05
2.94965e-05
2.84867e-05
2.76417e-05
2.6783e-05
2.57564e-05
2.51395e-05
2.50295e-05
2.46335e-05
2.50744e-05
2.61568e-05
2.50663e-05
2.47093e-05
2.51533e-05
2.62222e-05
2.51728e-05
2.38804e-05
2.2815e-05
2.22508e-05
2.31888e-05
2.49136e-05
2.39935e-05
2.3483e-05
2.36984e-05
2.38338e-05
2.50102e-05
2.56859e-05
2.63444e-05
2.87056e-05
3.06652e-05
3.35039e-05
3.51157e-05
3.57465e-05
3.5774e-05
3.68689e-05
3.70734e-05
3.55801e-05
3.58172e-05
3.57585e-05
3.37473e-05
3.12114e-05
2.93507e-05
2.82752e-05
2.74229e-05
2.6715e-05
2.58469e-05
2.51336e-05
2.47781e-05
2.42804e-05
2.47308e-05
2.56464e-05
2.4786e-05
2.44725e-05
2.4892e-05
2.59643e-05
2.49661e-05
2.3708e-05
2.2582e-05
2.19568e-05
2.27952e-05
2.47105e-05
2.38352e-05
2.32621e-05
2.34196e-05
2.34309e-05
2.45204e-05
2.53916e-05
2.59006e-05
2.84251e-05
3.04866e-05
3.34289e-05
3.51061e-05
3.57716e-05
3.55955e-05
3.65549e-05
3.66656e-05
3.52399e-05
3.55752e-05
3.55047e-05
3.32523e-05
3.08507e-05
2.90042e-05
2.79265e-05
2.70339e-05
2.63957e-05
2.56528e-05
2.49605e-05
2.45312e-05
2.39854e-05
2.43399e-05
2.51685e-05
2.44208e-05
2.41296e-05
2.45615e-05
2.56241e-05
2.46973e-05
2.34083e-05
2.2274e-05
2.15871e-05
2.24149e-05
2.43236e-05
2.35162e-05
2.29394e-05
2.3112e-05
2.30858e-05
2.40853e-05
2.49836e-05
2.53535e-05
2.77808e-05
2.99555e-05
3.29352e-05
3.46671e-05
3.53249e-05
3.50763e-05
3.59944e-05
3.60531e-05
3.46425e-05
3.50096e-05
3.49144e-05
3.28618e-05
3.05153e-05
2.86776e-05
2.76163e-05
2.67292e-05
2.61113e-05
2.54145e-05
2.47471e-05
2.42876e-05
2.36845e-05
2.39664e-05
2.47801e-05
2.40639e-05
2.37943e-05
2.42697e-05
2.53393e-05
2.44293e-05
2.31361e-05
2.20171e-05
2.13188e-05
2.21132e-05
2.40059e-05
2.32264e-05
2.26798e-05
2.28787e-05
2.28366e-05
2.37785e-05
2.46295e-05
2.49706e-05
2.73063e-05
2.94906e-05
3.24538e-05
3.42067e-05
3.48376e-05
3.45512e-05
3.5432e-05
3.55523e-05
3.41766e-05
3.45335e-05
3.4456e-05
3.26872e-05
3.03498e-05
2.85135e-05
2.74508e-05
2.65749e-05
2.59726e-05
2.52921e-05
2.46087e-05
2.41101e-05
2.34984e-05
2.37751e-05
2.45867e-05
2.38901e-05
2.36352e-05
2.41192e-05
2.51633e-05
2.42447e-05
2.2953e-05
2.1843e-05
2.11474e-05
2.19561e-05
2.38421e-05
2.3074e-05
2.25388e-05
2.27478e-05
2.26897e-05
2.36198e-05
2.44644e-05
2.48265e-05
2.71276e-05
2.93089e-05
3.22579e-05
3.4007e-05
3.4629e-05
3.43394e-05
3.52049e-05
3.53288e-05
3.39566e-05
3.43201e-05
3.4271e-05
1.19894e-06
1.15135e-06
1.30517e-06
1.38314e-06
1.37979e-06
1.58303e-06
1.69876e-06
1.57666e-06
1.57896e-06
1.60256e-06
1.52275e-06
1.46628e-06
1.36375e-06
1.37862e-06
1.44458e-06
1.40333e-06
1.40006e-06
1.41029e-06
1.39746e-06
1.40751e-06
1.35354e-06
1.21145e-06
1.28499e-06
1.32369e-06
1.13669e-06
1.12155e-06
1.1603e-06
1.12511e-06
1.03806e-06
1.03897e-06
1.16585e-06
1.21941e-06
1.30336e-06
1.33862e-06
1.41056e-06
1.501e-06
1.35477e-06
1.28779e-06
1.33062e-06
1.29431e-06
1.33162e-06
1.32019e-06
1.45757e-06
1.52699e-06
1.63668e-06
1.80386e-06
1.86662e-06
1.80967e-06
1.75621e-06
1.73903e-06
1.66167e-06
1.56423e-06
1.48206e-06
1.51433e-06
1.49135e-06
1.43896e-06
1.51593e-06
1.46106e-06
1.4332e-06
1.47115e-06
1.38798e-06
1.31832e-06
1.38212e-06
1.41648e-06
1.26661e-06
1.19225e-06
1.26765e-06
1.22531e-06
1.08152e-06
1.14865e-06
1.27222e-06
1.33272e-06
1.48135e-06
1.48746e-06
1.62041e-06
1.77817e-06
1.53753e-06
1.48738e-06
1.58614e-06
1.48043e-06
1.44217e-06
1.45703e-06
1.55424e-06
1.6016e-06
1.83726e-06
1.92255e-06
1.90651e-06
1.96547e-06
1.87636e-06
1.80301e-06
1.7242e-06
1.61779e-06
1.59268e-06
1.62447e-06
1.52335e-06
1.47844e-06
1.59775e-06
1.52933e-06
1.53838e-06
1.59621e-06
1.53886e-06
1.54808e-06
1.54375e-06
1.57395e-06
1.49721e-06
1.38074e-06
1.45612e-06
1.36932e-06
1.21419e-06
1.30166e-06
1.37541e-06
1.52489e-06
1.73039e-06
1.75617e-06
1.98649e-06
2.0941e-06
1.80517e-06
1.77315e-06
1.82013e-06
1.64366e-06
1.5489e-06
1.56037e-06
1.64009e-06
1.71175e-06
2.0038e-06
2.02492e-06
2.0326e-06
2.18422e-06
2.06389e-06
1.97547e-06
1.89518e-06
1.77799e-06
1.80203e-06
1.80568e-06
1.64692e-06
1.61753e-06
1.77918e-06
1.75197e-06
1.71106e-06
1.71118e-06
1.70809e-06
1.70244e-06
1.61624e-06
1.68304e-06
1.62625e-06
1.49037e-06
1.54521e-06
1.40988e-06
1.34292e-06
1.44102e-06
1.47163e-06
1.71167e-06
1.92709e-06
2.02471e-06
2.30073e-06
2.32459e-06
2.13084e-06
2.0992e-06
2.02594e-06
1.79985e-06
1.68915e-06
1.66475e-06
1.74966e-06
1.89844e-06
2.17387e-06
2.17239e-06
2.29673e-06
2.51058e-06
2.39925e-06
2.33163e-06
2.19538e-06
2.03732e-06
2.07689e-06
2.0833e-06
1.93594e-06
1.93399e-06
2.0993e-06
1.99776e-06
1.84011e-06
1.86223e-06
1.92961e-06
1.89221e-06
1.86285e-06
2.0003e-06
1.93512e-06
1.846e-06
1.82443e-06
1.6037e-06
1.59982e-06
1.65097e-06
1.68573e-06
2.00148e-06
2.19009e-06
2.34511e-06
2.57592e-06
2.57786e-06
2.48904e-06
2.35998e-06
2.17262e-06
1.96445e-06
1.91304e-06
1.92973e-06
2.07796e-06
2.28408e-06
2.50863e-06
2.60434e-06
2.85425e-06
2.94505e-06
2.7521e-06
2.62265e-06
2.44219e-06
2.3237e-06
2.35413e-06
2.31944e-06
2.24259e-06
2.33076e-06
2.41788e-06
2.13468e-06
1.85605e-06
1.88917e-06
1.94582e-06
1.9553e-06
2.13231e-06
2.35352e-06
2.32697e-06
2.28169e-06
2.11122e-06
1.81134e-06
1.86564e-06
1.88027e-06
1.96173e-06
2.33145e-06
2.50044e-06
2.68258e-06
2.84921e-06
2.87892e-06
2.91207e-06
2.69831e-06
2.43693e-06
2.18806e-06
2.42685e-06
2.5243e-06
2.74337e-06
2.9057e-06
3.0029e-06
3.20453e-06
3.54956e-06
3.61859e-06
3.4716e-06
3.21278e-06
2.8476e-06
2.65502e-06
2.61106e-06
2.47844e-06
2.41178e-06
2.61935e-06
2.63196e-06
2.18272e-06
1.93828e-06
2.10903e-06
2.25292e-06
2.41127e-06
2.68299e-06
2.80517e-06
2.73993e-06
2.69597e-06
2.41614e-06
2.12033e-06
2.19353e-06
2.15496e-06
2.27762e-06
2.63256e-06
2.77707e-06
3.08747e-06
3.34484e-06
3.44699e-06
3.50289e-06
3.22899e-06
2.96561e-06
2.6839e-06
2.88315e-06
2.96249e-06
3.13402e-06
3.25913e-06
3.33663e-06
3.61362e-06
3.93825e-06
3.98213e-06
3.8116e-06
3.46316e-06
3.12357e-06
3.08625e-06
3.06984e-06
2.82444e-06
2.77611e-06
3.07162e-06
2.99532e-06
2.53138e-06
2.4088e-06
2.60651e-06
2.69529e-06
2.91811e-06
3.2959e-06
3.42922e-06
3.43968e-06
3.44433e-06
3.13212e-06
2.82984e-06
2.79921e-06
2.66423e-06
2.80307e-06
3.13668e-06
3.33179e-06
3.73089e-06
3.96755e-06
4.02929e-06
4.01195e-06
3.65992e-06
3.38573e-06
3.10791e-06
3.32509e-06
3.44294e-06
3.65387e-06
3.76072e-06
3.79429e-06
4.08453e-06
4.39624e-06
4.41473e-06
4.30326e-06
3.96286e-06
3.68202e-06
3.67142e-06
3.59097e-06
3.37214e-06
3.4718e-06
3.78567e-06
3.49844e-06
3.01299e-06
3.08446e-06
3.24501e-06
3.16788e-06
3.42826e-06
3.89197e-06
4.03334e-06
4.04496e-06
4.04706e-06
3.81071e-06
3.64546e-06
3.55896e-06
3.32611e-06
3.48817e-06
3.80527e-06
3.98942e-06
4.37148e-06
4.60193e-06
4.62362e-06
4.44441e-06
4.05295e-06
3.84553e-06
3.55165e-06
4.20813e-06
4.28814e-06
4.42537e-06
4.39588e-06
4.31828e-06
4.69476e-06
5.18099e-06
5.3656e-06
5.39616e-06
5.18009e-06
5.0222e-06
4.94676e-06
4.69318e-06
4.41736e-06
4.57408e-06
4.86096e-06
4.50253e-06
4.13414e-06
4.21988e-06
4.06168e-06
3.87405e-06
4.29316e-06
4.75519e-06
4.78511e-06
4.7886e-06
4.87664e-06
4.76063e-06
4.59607e-06
4.3851e-06
4.10527e-06
4.28472e-06
4.51231e-06
4.6256e-06
5.09728e-06
5.49209e-06
5.54607e-06
5.24321e-06
4.83055e-06
4.62994e-06
4.37638e-06
5.33675e-06
5.35935e-06
5.41056e-06
5.32395e-06
5.25478e-06
5.65848e-06
6.20583e-06
6.49247e-06
6.58609e-06
6.49022e-06
6.40826e-06
6.14333e-06
5.72017e-06
5.47926e-06
5.79269e-06
6.13098e-06
5.76711e-06
5.40905e-06
5.33538e-06
4.93924e-06
4.73143e-06
5.18226e-06
5.59822e-06
5.58576e-06
5.61066e-06
5.81187e-06
5.81813e-06
5.71981e-06
5.47076e-06
5.23038e-06
5.46012e-06
5.58213e-06
5.54367e-06
5.96552e-06
6.31579e-06
6.27621e-06
5.95282e-06
5.66645e-06
5.62008e-06
5.45075e-06
6.06738e-06
6.21158e-06
6.40726e-06
6.44354e-06
6.41346e-06
6.93005e-06
7.63941e-06
8.0835e-06
8.21743e-06
8.19309e-06
8.05808e-06
7.57503e-06
7.0231e-06
6.75232e-06
7.05169e-06
7.30224e-06
6.78828e-06
6.1954e-06
5.97669e-06
5.63303e-06
5.62999e-06
6.06665e-06
6.33446e-06
6.16554e-06
6.0811e-06
6.3283e-06
6.5992e-06
6.75628e-06
6.49926e-06
6.17079e-06
6.3187e-06
6.22648e-06
6.0956e-06
6.55215e-06
6.94346e-06
7.00151e-06
6.65049e-06
6.33266e-06
6.2873e-06
6.12227e-06
7.07126e-06
7.18022e-06
7.39753e-06
7.63699e-06
7.82233e-06
8.29376e-06
8.85735e-06
9.14801e-06
9.19829e-06
9.15415e-06
8.93494e-06
8.26862e-06
7.63425e-06
7.39767e-06
7.67038e-06
7.89154e-06
7.36032e-06
6.80458e-06
6.64011e-06
6.45294e-06
6.60237e-06
6.94987e-06
6.96231e-06
6.62104e-06
6.64135e-06
7.39025e-06
8.29699e-06
8.65954e-06
8.15713e-06
7.57802e-06
7.5303e-06
7.27913e-06
7.18325e-06
7.66153e-06
7.91715e-06
7.80086e-06
7.37448e-06
6.97633e-06
6.91597e-06
6.96877e-06
8.17134e-06
8.10318e-06
8.23146e-06
8.58606e-06
8.98361e-06
9.60142e-06
1.01501e-05
1.03589e-05
1.0369e-05
1.01346e-05
9.609e-06
8.7749e-06
8.17348e-06
7.86614e-06
7.95465e-06
8.2564e-06
7.99184e-06
7.6044e-06
7.52148e-06
7.3314e-06
7.35604e-06
7.71977e-06
7.80748e-06
7.44915e-06
7.47641e-06
8.51547e-06
9.66315e-06
9.86425e-06
9.18809e-06
8.69472e-06
8.77162e-06
8.53535e-06
8.33491e-06
8.60105e-06
8.65487e-06
8.4564e-06
7.9807e-06
7.49081e-06
7.59906e-06
7.98547e-06
9.30562e-06
9.15879e-06
9.31094e-06
9.78971e-06
1.03091e-05
1.08521e-05
1.10449e-05
1.09994e-05
1.11247e-05
1.09599e-05
1.02934e-05
9.31129e-06
8.71754e-06
8.32006e-06
8.36679e-06
8.80725e-06
8.69703e-06
8.41782e-06
8.37816e-06
8.10958e-06
8.16445e-06
8.73078e-06
8.88922e-06
8.43554e-06
8.27092e-06
9.15159e-06
1.0261e-05
1.048e-05
9.89436e-06
9.48005e-06
9.56937e-06
9.40864e-06
9.34495e-06
9.67318e-06
9.79213e-06
9.82336e-06
9.44687e-06
8.88075e-06
8.88049e-06
9.22869e-06
1.04475e-05
1.04903e-05
1.07817e-05
1.14226e-05
1.20514e-05
1.25015e-05
1.24429e-05
1.2141e-05
1.22363e-05
1.20244e-05
1.10181e-05
9.84173e-06
9.24545e-06
8.77393e-06
8.86723e-06
9.48519e-06
9.62376e-06
9.51154e-06
9.42118e-06
8.87427e-06
8.63269e-06
9.18567e-06
9.47283e-06
8.99612e-06
8.75489e-06
9.85965e-06
1.13628e-05
1.18366e-05
1.13179e-05
1.07866e-05
1.06581e-05
1.05438e-05
1.06481e-05
1.11308e-05
1.14625e-05
1.17168e-05
1.13877e-05
1.05538e-05
1.01492e-05
1.02696e-05
1.18855e-05
1.19474e-05
1.22645e-05
1.30599e-05
1.36336e-05
1.3843e-05
1.35457e-05
1.30008e-05
1.29963e-05
1.28352e-05
1.17192e-05
1.05006e-05
9.86641e-06
9.379e-06
9.81872e-06
1.07432e-05
1.09546e-05
1.08381e-05
1.0714e-05
9.90453e-06
9.40343e-06
1.01133e-05
1.05605e-05
1.00011e-05
9.62802e-06
1.07915e-05
1.24861e-05
1.28069e-05
1.21029e-05
1.14787e-05
1.13045e-05
1.13697e-05
1.159e-05
1.22851e-05
1.29558e-05
1.34464e-05
1.30175e-05
1.1864e-05
1.12878e-05
1.14536e-05
1.33169e-05
1.34095e-05
1.36917e-05
1.44617e-05
1.50652e-05
1.51687e-05
1.44215e-05
1.34197e-05
1.34152e-05
1.35205e-05
1.25372e-05
1.15457e-05
1.09424e-05
1.05804e-05
1.13541e-05
1.24224e-05
1.25635e-05
1.22736e-05
1.21012e-05
1.10127e-05
1.04955e-05
1.14781e-05
1.2001e-05
1.12335e-05
1.0609e-05
1.16216e-05
1.3283e-05
1.35596e-05
1.2881e-05
1.23163e-05
1.20493e-05
1.22425e-05
1.26215e-05
1.37759e-05
1.4992e-05
1.5641e-05
1.50344e-05
1.36639e-05
1.28085e-05
1.28167e-05
1.47765e-05
1.48903e-05
1.5177e-05
1.58617e-05
1.63364e-05
1.61707e-05
1.49848e-05
1.38252e-05
1.41692e-05
1.47122e-05
1.40017e-05
1.3101e-05
1.2172e-05
1.17e-05
1.27618e-05
1.42297e-05
1.43517e-05
1.38251e-05
1.33832e-05
1.20218e-05
1.17083e-05
1.3006e-05
1.34894e-05
1.25918e-05
1.18175e-05
1.26258e-05
1.4355e-05
1.44965e-05
1.39681e-05
1.36709e-05
1.34769e-05
1.38054e-05
1.43416e-05
1.59324e-05
1.73524e-05
1.77689e-05
1.68266e-05
1.52047e-05
1.41952e-05
1.41894e-05
1.65185e-05
1.66416e-05
1.69667e-05
1.74181e-05
1.76783e-05
1.74356e-05
1.60829e-05
1.49836e-05
1.56082e-05
1.63338e-05
1.56107e-05
1.44655e-05
1.31352e-05
1.26236e-05
1.41747e-05
1.60934e-05
1.60295e-05
1.52724e-05
1.46776e-05
1.32976e-05
1.3292e-05
1.47615e-05
1.49618e-05
1.38077e-05
1.29479e-05
1.3731e-05
1.55103e-05
1.55609e-05
1.52318e-05
1.50808e-05
1.49291e-05
1.52645e-05
1.60395e-05
1.80846e-05
1.95252e-05
1.95242e-05
1.81775e-05
1.63763e-05
1.55744e-05
1.58666e-05
1.85496e-05
1.86168e-05
1.89034e-05
1.91844e-05
1.9227e-05
1.87559e-05
1.74433e-05
1.66508e-05
1.73392e-05
1.78353e-05
1.68813e-05
1.55303e-05
1.38857e-05
1.34552e-05
1.56124e-05
1.79368e-05
1.7682e-05
1.68753e-05
1.63433e-05
1.5222e-05
1.55872e-05
1.71978e-05
1.68881e-05
1.53925e-05
1.4406e-05
1.52444e-05
1.69868e-05
1.68635e-05
1.65901e-05
1.6417e-05
1.63714e-05
1.68836e-05
1.78947e-05
2.04041e-05
2.19015e-05
2.15038e-05
1.97398e-05
1.78075e-05
1.73455e-05
1.79408e-05
2.08053e-05
2.06118e-05
2.07399e-05
2.09661e-05
2.05698e-05
1.98511e-05
1.87958e-05
1.8572e-05
1.94421e-05
1.94204e-05
1.79479e-05
1.6431e-05
1.45959e-05
1.42884e-05
1.70071e-05
1.9641e-05
1.93486e-05
1.857e-05
1.8172e-05
1.74035e-05
1.80853e-05
1.9645e-05
1.89975e-05
1.74565e-05
1.6361e-05
1.71972e-05
1.87667e-05
1.85617e-05
1.82718e-05
1.81279e-05
1.83231e-05
1.89949e-05
2.02765e-05
2.32773e-05
2.48997e-05
2.41513e-05
2.20104e-05
1.99362e-05
1.95919e-05
2.03367e-05
2.31224e-05
2.25398e-05
2.25594e-05
2.29558e-05
2.20451e-05
2.11439e-05
2.03115e-05
2.0676e-05
2.19528e-05
2.15678e-05
1.93387e-05
1.74469e-05
1.54995e-05
1.51875e-05
1.82306e-05
2.10445e-05
2.09156e-05
2.03029e-05
2.01346e-05
1.95042e-05
2.00785e-05
2.14265e-05
2.08568e-05
1.94939e-05
1.82748e-05
1.9043e-05
2.05793e-05
2.052e-05
2.03252e-05
2.02776e-05
2.06227e-05
2.14585e-05
2.30797e-05
2.65556e-05
2.82859e-05
2.71694e-05
2.47192e-05
2.24006e-05
2.21207e-05
2.29197e-05
2.47429e-05
2.39558e-05
2.40365e-05
2.47429e-05
2.34821e-05
2.25604e-05
2.19196e-05
2.25695e-05
2.40942e-05
2.3809e-05
2.11246e-05
1.86396e-05
1.65278e-05
1.60555e-05
1.90404e-05
2.19816e-05
2.21973e-05
2.19874e-05
2.19851e-05
2.10596e-05
2.15559e-05
2.28671e-05
2.25009e-05
2.12698e-05
1.98353e-05
2.05119e-05
2.21185e-05
2.2292e-05
2.22866e-05
2.23601e-05
2.28059e-05
2.37494e-05
2.56781e-05
2.95389e-05
3.13289e-05
2.98354e-05
2.70114e-05
2.44482e-05
2.43081e-05
2.50202e-05
2.562e-05
2.47388e-05
2.48158e-05
2.57646e-05
2.43861e-05
2.35165e-05
2.31236e-05
2.38807e-05
2.53831e-05
2.51953e-05
2.2512e-05
1.98634e-05
1.76642e-05
1.69794e-05
1.9659e-05
2.25137e-05
2.30376e-05
2.31418e-05
2.33572e-05
2.2081e-05
2.25976e-05
2.42335e-05
2.38198e-05
2.27926e-05
2.0975e-05
2.15967e-05
2.32985e-05
2.36197e-05
2.3755e-05
2.40354e-05
2.46497e-05
2.57097e-05
2.78874e-05
3.18961e-05
3.34364e-05
3.1573e-05
2.84523e-05
2.56131e-05
2.54602e-05
2.616e-05
2.62414e-05
2.52678e-05
2.50905e-05
2.60297e-05
2.47225e-05
2.39805e-05
2.38725e-05
2.47392e-05
2.60848e-05
2.57784e-05
2.32281e-05
2.0702e-05
1.87876e-05
1.80212e-05
2.03651e-05
2.28482e-05
2.3311e-05
2.34521e-05
2.39936e-05
2.27064e-05
2.33835e-05
2.52807e-05
2.48213e-05
2.39004e-05
2.18528e-05
2.24839e-05
2.41526e-05
2.45083e-05
2.46913e-05
2.50272e-05
2.58234e-05
2.70038e-05
2.93395e-05
3.35125e-05
3.47395e-05
3.26059e-05
2.91853e-05
2.60419e-05
2.58512e-05
2.678e-05
2.65625e-05
2.5577e-05
2.53135e-05
2.62562e-05
2.50997e-05
2.44552e-05
2.44008e-05
2.51884e-05
2.62795e-05
2.58306e-05
2.33738e-05
2.09679e-05
1.92456e-05
1.8665e-05
2.08908e-05
2.30242e-05
2.32113e-05
2.33295e-05
2.40625e-05
2.29329e-05
2.37916e-05
2.5839e-05
2.54247e-05
2.44011e-05
2.24685e-05
2.30586e-05
2.47317e-05
2.51202e-05
2.52264e-05
2.5634e-05
2.6479e-05
2.77493e-05
3.01403e-05
3.44769e-05
3.54538e-05
3.32813e-05
2.95038e-05
2.59643e-05
2.56578e-05
2.68666e-05
2.65479e-05
2.56915e-05
2.54528e-05
2.65513e-05
2.5452e-05
2.49306e-05
2.48768e-05
2.54063e-05
2.62407e-05
2.57463e-05
2.34554e-05
2.1085e-05
1.93712e-05
1.87307e-05
2.09565e-05
2.2933e-05
2.28958e-05
2.31479e-05
2.38986e-05
2.2853e-05
2.38774e-05
2.60633e-05
2.57137e-05
2.46679e-05
2.28515e-05
2.32459e-05
2.50264e-05
2.53361e-05
2.53549e-05
2.58945e-05
2.66778e-05
2.79524e-05
3.03701e-05
3.47932e-05
3.56949e-05
3.3528e-05
2.95632e-05
2.56354e-05
2.52201e-05
2.66322e-05
2.6305e-05
2.56357e-05
2.54501e-05
2.67306e-05
2.57742e-05
2.53675e-05
2.51805e-05
2.55081e-05
2.61241e-05
2.56567e-05
2.34266e-05
2.10546e-05
1.92677e-05
1.85969e-05
2.07651e-05
2.26364e-05
2.24781e-05
2.28071e-05
2.3529e-05
2.26791e-05
2.37787e-05
2.61212e-05
2.57834e-05
2.47422e-05
2.29104e-05
2.3094e-05
2.48832e-05
2.52082e-05
2.51599e-05
2.57759e-05
2.65006e-05
2.76383e-05
2.99743e-05
3.4388e-05
3.53351e-05
3.33462e-05
2.93565e-05
2.52204e-05
2.47844e-05
2.6265e-05
2.58643e-05
2.5323e-05
2.52212e-05
2.6599e-05
2.57834e-05
2.54285e-05
2.51808e-05
2.5422e-05
2.59462e-05
2.54564e-05
2.32404e-05
2.08804e-05
1.90826e-05
1.84422e-05
2.05767e-05
2.23442e-05
2.20644e-05
2.23506e-05
2.31168e-05
2.24198e-05
2.3542e-05
2.59339e-05
2.55927e-05
2.45405e-05
2.26965e-05
2.27894e-05
2.4562e-05