/*--------------------------------*- C++ -*----------------------------------*\
  =========                 |
  \\      /  F ield         | OpenFOAM: The Open Source CFD Toolbox
   \\    /   O peration     | Website:  https://openfoam.org
    \\  /    A nd           | Version:  10
     \\/     M anipulation  |
\*---------------------------------------------------------------------------*/
FoamFile
{
    format      ascii;
    class       volScalarField;
    location    "19";
    object      nut;
}
// * * * * * * * * * * * * * * * * * * * * * * * * * * * * * * * * * * * * * //

dimensions      [0 2 -1 0 0 0 0];

internalField   nonuniform List<scalar> 
25600
(
2.09249e-05
2.23121e-05
2.54278e-05
3.29064e-05
3.70031e-05
4.13447e-05
4.66563e-05
4.90285e-05
4.9944e-05
4.77766e-05
3.91902e-05
3.4398e-05
3.46206e-05
3.64282e-05
3.87074e-05
4.04734e-05
3.4733e-05
2.51078e-05
1.76308e-05
1.62603e-05
1.47029e-05
1.22091e-05
1.58711e-05
1.788e-05
1.52617e-05
1.44108e-05
1.49087e-05
1.42531e-05
1.30971e-05
1.36572e-05
1.56915e-05
2.10391e-05
2.39015e-05
2.34352e-05
1.96388e-05
1.65669e-05
1.49289e-05
1.50385e-05
1.6452e-05
1.78246e-05
1.8106e-05
1.8883e-05
2.14778e-05
2.94378e-05
2.98261e-05
2.74726e-05
3.56481e-05
4.53709e-05
4.88047e-05
4.90787e-05
4.16475e-05
3.35781e-05
3.17823e-05
3.60423e-05
3.71194e-05
3.7873e-05
3.8509e-05
3.35956e-05
2.21621e-05
1.45021e-05
1.03137e-05
1.13746e-05
1.88363e-05
2.22454e-05
1.65974e-05
1.44296e-05
1.55062e-05
1.41699e-05
1.29046e-05
1.25622e-05
1.29905e-05
1.67507e-05
2.09492e-05
2.52343e-05
2.3763e-05
1.77073e-05
1.53801e-05
1.5643e-05
1.66315e-05
1.64187e-05
1.60768e-05
1.45421e-05
1.33936e-05
2.02942e-05
1.97195e-05
9.08936e-06
1.1972e-05
3.13367e-05
3.58849e-05
3.82306e-05
4.0217e-05
3.26606e-05
2.542e-05
3.20354e-05
3.12937e-05
2.4507e-05
3.23305e-05
3.92367e-05
2.94628e-05
1.47681e-05
9.18699e-06
9.46509e-06
1.87749e-05
2.59014e-05
1.93062e-05
1.48198e-05
1.57011e-05
1.37048e-05
1.22671e-05
1.20632e-05
1.0925e-05
9.47939e-06
1.00016e-05
1.83889e-05
2.59534e-05
2.1214e-05
1.76759e-05
1.54521e-05
1.48138e-05
1.45851e-05
1.36514e-05
1.18742e-05
7.40683e-06
8.68483e-06
1.26365e-05
7.45708e-06
1.0517e-05
1.40721e-05
2.00756e-05
1.60428e-05
2.53261e-05
2.68717e-05
1.58777e-05
2.30994e-05
2.65721e-05
8.61056e-06
9.64226e-06
2.83116e-05
3.22198e-05
1.61523e-05
8.67957e-06
7.1769e-06
1.32783e-05
2.46785e-05
2.17688e-05
1.57204e-05
1.62556e-05
1.33834e-05
1.10157e-05
1.13232e-05
1.10029e-05
7.3976e-06
5.56912e-06
5.33592e-06
1.88213e-05
2.24959e-05
2.17774e-05
1.85471e-05
1.36542e-05
1.19781e-05
9.91837e-06
1.21096e-05
5.93123e-06
5.44111e-06
4.96206e-06
1.41374e-05
6.31272e-06
5.08392e-06
1.30124e-05
3.52333e-06
4.41831e-06
1.22648e-05
7.26884e-06
1.05905e-05
1.98577e-05
7.47462e-06
1.66309e-05
6.67841e-06
2.40042e-05
1.68565e-05
6.85552e-06
5.89231e-06
5.86731e-06
1.65936e-05
2.07313e-05
1.63669e-05
1.73803e-05
1.44056e-05
1.0135e-05
9.83506e-06
1.12042e-05
9.64782e-06
6.54209e-06
4.94027e-06
6.52825e-06
1.52136e-05
2.17945e-05
2.51442e-05
1.66036e-05
1.0238e-05
7.90565e-06
1.2829e-05
1.10188e-05
4.25676e-06
5.71857e-06
1.11334e-05
1.09269e-05
4.95173e-06
8.02181e-06
5.31876e-06
1.05079e-05
5.26597e-06
3.78153e-06
4.91683e-06
7.88703e-06
1.59538e-05
1.18533e-05
1.52736e-05
1.24241e-05
1.87911e-05
7.17054e-06
5.04873e-06
5.21698e-06
7.73059e-06
1.37681e-05
1.50734e-05
1.7944e-05
1.66471e-05
1.16108e-05
8.0405e-06
9.04579e-06
1.00758e-05
9.72766e-06
6.06194e-06
3.75633e-06
5.02612e-06
1.0328e-05
2.44939e-05
2.20459e-05
1.20073e-05
9.00888e-06
1.24982e-05
1.30762e-05
6.61421e-06
7.89539e-06
6.22004e-06
8.47016e-06
6.81052e-06
5.72534e-06
6.1311e-06
1.0987e-05
1.21799e-05
5.35487e-06
6.70789e-06
3.55663e-06
1.37003e-05
8.06618e-06
1.74779e-05
6.93113e-06
1.94752e-05
1.16362e-05
5.84178e-06
4.83462e-06
5.81222e-06
3.92316e-06
9.82936e-06
1.65071e-05
1.84778e-05
1.47714e-05
8.37202e-06
5.43143e-06
8.74605e-06
7.1953e-06
7.88887e-06
5.93689e-06
3.99922e-06
2.99271e-06
9.55585e-06
2.10432e-05
1.58135e-05
1.02454e-05
8.31667e-06
8.26243e-06
6.9112e-06
1.05139e-05
7.61624e-06
6.97232e-06
8.19003e-06
4.98383e-06
7.47018e-06
7.35452e-06
6.34887e-06
7.04439e-06
9.19733e-06
3.79762e-06
6.08217e-06
1.30318e-05
1.09626e-05
7.85934e-06
1.71578e-05
1.33092e-05
4.36543e-06
7.28874e-06
3.00349e-06
3.7986e-06
3.53249e-06
1.26836e-05
1.85938e-05
1.82078e-05
1.30121e-05
3.31288e-06
7.93332e-06
6.59609e-06
4.66406e-06
5.48544e-06
4.87991e-06
5.11524e-06
3.21374e-06
1.16735e-05
1.6242e-05
7.65035e-06
5.57109e-06
5.66034e-06
6.3171e-06
9.30105e-06
1.00285e-05
6.69479e-06
5.30065e-06
4.64439e-06
6.52455e-06
6.00215e-06
8.15244e-06
3.69674e-06
2.97382e-06
5.3117e-06
1.18885e-05
1.52238e-05
3.97956e-06
8.03074e-06
1.59917e-05
1.99435e-05
9.51398e-06
8.46033e-06
6.85157e-06
5.45001e-06
2.93459e-06
7.78203e-06
1.26651e-05
1.87965e-05
2.03089e-05
8.73761e-06
2.47416e-06
5.67666e-06
5.45342e-06
5.98739e-06
6.82484e-06
4.8445e-06
8.21451e-06
7.39039e-06
1.33067e-05
8.7995e-06
6.19416e-06
8.10894e-06
7.40625e-06
6.66946e-06
7.28062e-06
5.89943e-06
1.66667e-06
3.76753e-06
6.05139e-06
4.73e-06
1.08875e-05
7.02457e-06
5.20735e-06
6.92553e-06
1.06484e-05
1.27586e-05
1.3651e-05
1.30261e-05
3.63049e-06
2.63196e-05
2.42066e-05
1.337e-05
7.12941e-06
8.29629e-06
3.4184e-06
5.25867e-06
5.63534e-06
9.62758e-06
2.41564e-05
2.02284e-05
4.64293e-06
4.79903e-06
7.32314e-06
7.76561e-06
9.30422e-06
5.05968e-06
5.4387e-06
6.0024e-06
1.12918e-05
9.17713e-06
6.43278e-06
9.01212e-06
9.881e-06
5.55217e-06
3.8777e-06
5.53853e-06
2.55629e-06
2.60207e-06
6.04016e-06
5.58958e-06
6.42147e-06
5.36415e-06
6.55537e-06
5.23676e-06
7.64608e-06
8.4787e-06
1.39867e-05
6.6317e-06
1.54485e-05
1.2354e-05
2.82083e-05
1.64932e-05
1.05537e-05
1.03413e-05
5.57462e-06
4.78215e-06
6.66473e-06
2.43447e-06
1.37121e-05
2.54443e-05
1.02662e-05
5.25232e-06
8.59982e-06
6.55707e-06
8.89556e-06
7.96171e-06
5.16132e-06
5.2991e-06
8.56643e-06
6.24372e-06
4.678e-06
5.81084e-06
9.20957e-06
6.32959e-06
2.50567e-06
4.37139e-06
6.24043e-06
3.86606e-06
8.999e-06
4.89084e-06
1.68456e-06
2.40502e-06
5.68021e-06
4.95006e-06
6.47814e-06
7.26865e-06
8.70696e-06
5.79726e-06
1.13725e-05
6.74007e-06
9.4803e-06
1.22383e-05
7.17031e-06
1.15842e-05
1.23175e-05
4.00074e-06
4.85173e-06
4.90807e-06
5.04853e-06
1.33691e-05
1.48794e-05
7.5199e-06
9.90365e-06
5.31415e-06
7.34252e-06
8.1087e-06
4.22166e-06
7.11033e-06
6.97377e-06
5.69759e-06
4.57193e-06
3.91807e-06
7.44024e-06
8.02475e-06
2.56591e-06
3.02408e-06
4.94985e-06
2.46743e-06
9.40165e-06
3.8679e-06
7.99444e-06
2.60257e-06
2.64933e-06
3.01917e-06
9.08303e-06
4.48061e-06
5.48922e-06
6.80964e-06
8.13445e-06
6.32181e-06
5.1457e-06
5.84418e-06
4.9001e-06
6.40003e-06
1.39029e-05
7.59397e-06
3.14555e-06
7.71796e-06
2.23725e-06
6.54081e-06
1.30276e-05
1.33038e-05
1.14869e-05
9.16121e-06
9.01389e-06
8.41289e-06
3.18315e-06
3.71556e-06
5.96497e-06
4.8283e-06
3.08769e-06
3.03603e-06
4.31816e-06
8.43889e-06
2.58252e-06
3.46223e-06
4.28764e-06
1.06941e-06
7.81483e-06
4.24195e-06
7.35509e-06
2.42451e-06
1.40177e-06
3.7039e-06
1.10953e-05
6.97219e-06
4.2059e-06
4.93429e-06
7.57134e-06
5.15214e-06
4.12492e-06
3.63086e-06
7.30789e-06
3.70535e-06
6.5658e-06
1.00471e-05
2.24294e-06
4.3924e-06
4.51766e-06
3.09323e-06
9.44187e-06
1.22916e-05
9.79144e-06
8.49665e-06
1.01489e-05
8.40106e-06
5.12774e-06
2.67365e-06
4.78364e-06
3.49648e-06
4.08615e-06
2.31812e-06
4.08939e-07
7.97625e-06
7.21956e-06
3.30534e-06
2.93185e-06
1.65794e-06
7.55268e-06
3.70887e-06
1.13782e-06
1.56397e-06
1.04401e-06
3.31629e-06
9.09482e-06
8.58034e-06
4.22922e-06
4.24587e-06
7.07821e-06
5.06464e-06
2.60564e-06
2.36506e-06
5.19685e-06
3.08502e-06
2.94034e-06
5.32296e-06
4.04148e-06
2.29584e-06
5.63452e-06
2.95802e-06
5.53031e-06
7.32313e-06
6.2179e-06
3.3693e-06
4.74354e-06
5.15141e-06
4.43443e-06
3.11944e-06
4.01613e-06
5.23989e-06
4.0124e-06
1.52952e-06
7.24583e-07
4.7134e-06
9.17452e-06
4.1953e-06
3.60447e-06
2.83317e-06
7.99646e-06
7.63677e-06
3.04315e-06
1.47242e-06
1.77041e-06
2.98069e-06
4.42146e-06
5.28494e-06
4.97281e-06
5.061e-06
5.54591e-06
3.47064e-06
3.48565e-06
2.1851e-06
2.79144e-06
2.05283e-06
2.87072e-06
1.13105e-06
3.65918e-06
2.64144e-06
3.74363e-06
3.13217e-06
2.56126e-06
2.92366e-06
2.75435e-06
1.55269e-06
1.77475e-06
4.25035e-06
4.48879e-06
2.85782e-06
3.14186e-06
5.08437e-06
2.9999e-06
6.01669e-07
1.36052e-06
1.68527e-06
5.02665e-06
3.07246e-06
3.43335e-06
3.58281e-06
6.81721e-06
7.66867e-06
5.0835e-06
2.84094e-06
2.11976e-06
2.0386e-06
1.92442e-06
4.23744e-06
5.76843e-06
5.94538e-06
4.83774e-06
2.16434e-06
1.81071e-06
7.84053e-07
2.04125e-06
1.53107e-06
2.09852e-06
1.15608e-06
2.30195e-06
2.35098e-06
2.06126e-06
1.9854e-06
1.3861e-06
9.41625e-07
2.02889e-06
1.35323e-06
1.96362e-06
3.14893e-06
3.58422e-06
3.39568e-06
2.79558e-06
2.95535e-06
1.91307e-06
6.62751e-07
1.18574e-06
1.44454e-06
4.25943e-06
3.8108e-06
1.77217e-06
2.41958e-06
3.73663e-06
4.45192e-06
4.36936e-06
3.19512e-06
1.16136e-06
1.35945e-06
2.23327e-06
4.13138e-06
5.14534e-06
4.42986e-06
3.34503e-06
2.05378e-06
8.9551e-07
1.49326e-07
1.43575e-06
1.6394e-06
1.42409e-06
9.89174e-07
1.57466e-06
1.48024e-06
1.93779e-06
1.39814e-06
6.26443e-07
7.73299e-07
1.75185e-06
6.73295e-07
2.30128e-06
2.59117e-06
2.69772e-06
2.79917e-06
2.62243e-06
1.81619e-06
1.33118e-06
8.25671e-07
1.20375e-06
1.4988e-06
2.53983e-06
2.16098e-06
9.43725e-07
1.77295e-06
2.47016e-06
2.71946e-06
2.68971e-06
2.23957e-06
1.85977e-07
7.53104e-07
1.41065e-06
2.19741e-06
2.70648e-06
1.93047e-06
1.45785e-06
1.63286e-06
1.40779e-06
4.81567e-07
1.0008e-06
1.38178e-06
1.50065e-06
1.11767e-06
1.30799e-06
9.03651e-07
1.43105e-06
8.65958e-07
5.16571e-07
1.19335e-06
1.3823e-06
7.01638e-07
2.18974e-06
2.08891e-06
1.47936e-06
1.23354e-06
1.76822e-06
1.20502e-06
1.06143e-06
8.16449e-07
8.50455e-07
9.81105e-07
1.55438e-06
1.44027e-06
5.99902e-07
1.12567e-06
1.70881e-06
2.13005e-06
1.76813e-06
1.34873e-06
2.87962e-07
6.36066e-07
7.93017e-07
1.53296e-06
2.14988e-06
1.25099e-06
6.6859e-07
9.75656e-07
1.20256e-06
4.906e-07
6.25282e-07
7.70526e-07
8.70523e-07
1.08124e-06
1.09365e-06
6.11104e-07
8.43774e-07
6.64861e-07
4.0493e-07
1.05588e-06
1.122e-06
6.77313e-07
1.44226e-06
1.32753e-06
9.07893e-07
5.023e-07
9.21247e-07
9.40016e-07
6.26074e-07
5.7311e-07
6.156e-07
6.28456e-07
1.30813e-06
7.7845e-07
3.63298e-07
7.96059e-07
1.29803e-06
1.24701e-06
9.48507e-07
9.68274e-07
3.88419e-07
5.85423e-07
5.04527e-07
1.00869e-06
1.5311e-06
8.60242e-07
3.36716e-07
6.21585e-07
9.47132e-07
5.11403e-07
4.53207e-07
4.74948e-07
5.39921e-07
8.46163e-07
7.55459e-07
3.62905e-07
5.87742e-07
6.0975e-07
3.0326e-07
7.23509e-07
9.70078e-07
4.40217e-07
8.4102e-07
9.55959e-07
6.26862e-07
3.16309e-07
5.79904e-07
7.25475e-07
3.81474e-07
5.50267e-07
5.03214e-07
3.30585e-07
7.86994e-07
6.8005e-07
1.97709e-07
4.18032e-07
1.07663e-06
7.4771e-07
5.95957e-07
8.89415e-07
2.75735e-07
3.70473e-07
2.93896e-07
7.69451e-07
1.12759e-06
7.31928e-07
4.57279e-07
4.87946e-07
7.54976e-07
4.25086e-07
2.96151e-07
3.96701e-07
4.05967e-07
5.80165e-07
5.44511e-07
2.2431e-07
3.94984e-07
6.11765e-07
2.20594e-07
4.54756e-07
8.96087e-07
2.66438e-07
4.51363e-07
6.63519e-07
4.70699e-07
2.01096e-07
3.69562e-07
6.61322e-07
2.37919e-07
3.96391e-07
4.21633e-07
1.99857e-07
5.74056e-07
6.42613e-07
9.72804e-08
2.06196e-07
1.01936e-06
5.08783e-07
3.04706e-07
8.52282e-07
2.56956e-07
2.20526e-07
1.34137e-07
5.76605e-07
8.41045e-07
4.94247e-07
5.07343e-07
2.80479e-07
4.8682e-07
3.444e-07
2.13278e-07
3.38636e-07
3.4037e-07
3.78187e-07
4.09127e-07
1.3387e-07
2.15687e-07
5.63336e-07
2.02303e-07
3.52065e-07
7.45603e-07
1.97068e-07
2.02945e-07
4.43856e-07
3.9357e-07
1.19178e-07
2.61409e-07
5.49724e-07
1.26154e-07
2.92594e-07
3.96921e-07
1.38224e-07
2.44248e-07
6.60451e-07
6.635e-08
8.45106e-08
8.39026e-07
4.59859e-07
1.74475e-07
7.01356e-07
2.61114e-07
1.28032e-07
4.15182e-08
3.83491e-07
7.65937e-07
2.57765e-07
4.8137e-07
2.55227e-07
2.97596e-07
3.20117e-07
1.50847e-07
2.28336e-07
3.44455e-07
2.32503e-07
3.17478e-07
1.01638e-07
1.02461e-07
5.4771e-07
1.6271e-07
2.61122e-07
5.2925e-07
1.82554e-07
7.88813e-08
2.06123e-07
4.61109e-07
6.15479e-08
1.70908e-07
4.89259e-07
7.58104e-08
1.88902e-07
3.20122e-07
1.43585e-07
9.30464e-08
6.18068e-07
7.28688e-08
3.6858e-08
7.1216e-07
4.59666e-07
1.14382e-07
4.80897e-07
2.64766e-07
1.11079e-07
2.46958e-08
1.64982e-07
8.86456e-07
1.22425e-07
3.1368e-07
4.73788e-07
1.71827e-07
2.67216e-07
1.19938e-07
1.34065e-07
4.31531e-07
1.54877e-07
2.17021e-07
9.27792e-08
4.92223e-08
4.8703e-07
1.04461e-07
2.47662e-07
3.67127e-07
1.91208e-07
3.3621e-08
3.74486e-08
5.0918e-07
2.95841e-08
1.14132e-07
3.34178e-07
5.75618e-08
1.33509e-07
1.60673e-07
3.32806e-07
5.43622e-08
3.934e-07
2.13548e-07
2.11419e-08
5.38479e-07
3.74697e-07
1.04452e-07
3.4474e-07
1.53179e-07
2.10155e-07
3.35549e-08
3.8918e-08
1.00929e-06
9.50425e-08
1.00258e-07
7.40807e-07
1.22868e-07
1.45654e-07
1.58886e-07
7.29392e-08
3.89061e-07
1.61001e-07
1.06578e-07
7.26759e-08
5.18825e-08
4.88776e-07
5.63344e-08
2.54728e-07
2.69749e-07
1.86673e-07
3.15018e-08
1.92437e-09
5.59846e-07
1.5544e-08
8.01183e-08
1.93307e-07
5.3337e-08
1.35339e-07
4.25223e-08
6.35615e-07
4.22271e-08
4.8441e-08
4.65717e-07
1.37577e-08
3.12449e-07
2.66187e-07
1.19886e-07
2.91684e-07
5.1285e-08
3.36414e-07
1.245e-07
1.16896e-08
9.4289e-07
2.88156e-07
2.24882e-08
8.29136e-07
1.69214e-07
4.68087e-08
2.33211e-07
7.03964e-08
1.52027e-07
2.28097e-07
1.09369e-07
3.35275e-08
5.8086e-08
5.8483e-07
2.91682e-08
1.84311e-07
2.89198e-07
1.96729e-07
2.57336e-08
2.89911e-09
5.87991e-07
1.20921e-08
9.78731e-08
1.11008e-07
3.95455e-08
2.06258e-07
1.06283e-08
7.60588e-07
4.04317e-08
9.73446e-09
5.31347e-07
1.06021e-08
1.08694e-07
1.32467e-07
1.77066e-07
3.33541e-07
2.753e-08
2.21858e-07
5.45371e-07
7.57439e-09
6.25564e-07
6.21289e-07
5.0959e-09
6.89662e-07
3.2564e-07
2.45583e-08
1.31179e-07
2.24329e-07
3.13532e-08
1.54104e-07
4.34706e-07
1.48946e-08
1.52124e-08
7.33699e-07
1.69429e-08
6.98705e-08
3.41773e-07
3.23474e-07
1.06862e-08
1.52556e-08
6.55442e-07
1.38331e-08
1.68914e-07
9.19191e-08
3.22833e-08
2.70523e-07
5.52721e-09
6.6039e-07
1.96088e-07
8.8896e-09
3.1326e-07
1.90679e-07
4.05672e-08
3.55525e-08
3.07304e-07
2.77178e-07
2.77822e-08
7.86014e-08
7.02326e-07
3.4722e-09
2.46814e-07
6.6422e-07
2.10373e-09
4.38382e-07
3.6732e-07
2.10435e-08
1.03974e-08
4.62747e-07
1.37529e-08
2.59641e-08
7.4383e-07
1.3231e-08
1.98919e-08
7.027e-07
1.07847e-08
3.72437e-08
2.50591e-07
6.10474e-07
8.66849e-09
3.71394e-08
7.4208e-07
1.7057e-08
2.06318e-07
1.32677e-07
8.16591e-08
1.16569e-07
7.83543e-09
4.76707e-07
3.343e-07
7.22723e-09
3.99189e-08
4.50469e-07
1.30128e-08
9.35482e-09
4.67073e-07
9.13827e-08
4.58206e-08
9.34713e-08
2.67572e-07
2.34962e-08
1.67999e-07
2.66312e-07
5.76969e-09
2.58929e-07
1.80178e-07
3.36251e-08
6.7646e-09
4.55131e-07
1.89453e-08
1.70713e-08
6.47102e-07
4.41776e-08
4.58293e-08
2.52076e-07
3.95707e-07
2.83867e-08
3.08643e-08
8.72162e-07
1.10225e-08
7.30279e-08
6.3417e-07
1.99206e-08
1.21672e-07
1.62136e-07
2.45168e-07
1.32245e-08
2.06333e-08
2.81095e-07
2.4793e-07
7.32447e-09
2.84059e-08
3.38558e-07
4.59006e-08
7.79774e-09
4.89527e-07
2.87334e-08
4.67094e-08
3.16822e-07
6.6924e-09
4.73776e-07
2.56635e-07
1.78118e-08
2.11583e-07
1.96871e-07
2.48239e-08
5.9199e-08
1.73101e-08
2.51449e-07
4.59817e-08
9.64136e-08
2.2488e-07
9.13771e-08
2.29753e-07
2.63046e-09
6.03373e-07
2.4097e-08
6.72695e-09
7.88501e-07
2.50975e-08
1.30079e-07
2.27015e-07
6.47156e-08
5.40067e-08
1.1886e-07
4.37555e-07
1.17686e-08
2.68078e-07
8.77793e-08
1.0399e-07
8.00751e-08
4.6906e-08
1.75197e-09
2.33794e-07
1.19697e-08
2.62582e-07
8.36956e-08
1.67423e-08
6.88417e-07
1.17912e-08
5.93496e-07
5.04221e-07
9.73718e-09
5.19775e-07
1.49253e-07
1.38198e-08
3.74768e-08
2.37378e-07
8.22741e-08
3.49285e-08
6.8853e-07
1.60623e-08
8.39827e-08
7.52849e-07
4.08919e-09
4.37332e-07
2.09493e-07
8.08537e-09
2.75098e-07
1.84369e-07
1.59308e-07
2.18482e-08
5.5922e-07
3.07883e-08
1.83675e-05
1.49177e-05
1.62912e-05
1.95623e-05
2.37403e-05
2.91407e-05
2.98373e-05
2.47127e-05
2.18943e-05
2.14857e-05
2.20234e-05
2.1774e-05
2.01296e-05
1.91739e-05
1.89667e-05
1.70169e-05
1.53695e-05
1.58739e-05
1.87117e-05
2.13799e-05
1.96684e-05
1.42111e-05
1.0827e-05
1.10757e-05
1.05336e-05
1.43328e-05
1.81519e-05
1.81601e-05
1.86183e-05
1.84766e-05
1.54929e-05
1.22506e-05
1.14533e-05
1.38448e-05
1.6242e-05
1.69847e-05
1.77726e-05
1.93736e-05
2.26403e-05
2.30665e-05
2.06743e-05
1.55784e-05
1.47564e-05
1.74987e-05
2.11348e-05
2.87801e-05
3.30307e-05
2.7078e-05
2.14903e-05
2.19098e-05
2.3669e-05
2.29469e-05
2.05559e-05
1.89854e-05
1.73123e-05
1.68116e-05
1.7944e-05
1.80113e-05
2.00002e-05
2.53499e-05
2.1853e-05
1.37137e-05
1.12052e-05
1.04105e-05
9.74921e-06
1.34861e-05
1.73699e-05
1.73879e-05
1.98093e-05
2.1267e-05
1.59291e-05
1.18448e-05
1.32028e-05
1.53415e-05
1.46671e-05
1.45524e-05
1.68392e-05
1.84304e-05
2.12746e-05
2.39787e-05
2.38464e-05
1.74895e-05
1.24334e-05
1.40084e-05
1.46475e-05
2.26971e-05
3.29787e-05
3.00146e-05
1.97548e-05
1.92201e-05
2.26297e-05
2.26322e-05
2.05679e-05
1.82431e-05
1.45394e-05
1.47462e-05
1.87231e-05
2.01717e-05
2.19574e-05
2.94105e-05
2.56961e-05
1.58073e-05
1.18717e-05
1.04063e-05
8.85596e-06
1.08251e-05
1.57204e-05
1.6257e-05
1.77396e-05
2.14019e-05
1.82058e-05
1.25527e-05
1.30243e-05
1.51216e-05
1.35299e-05
1.24352e-05
1.45249e-05
1.47811e-05
1.6283e-05
2.24453e-05
2.29245e-05
2.0998e-05
1.16141e-05
9.86483e-06
7.33794e-06
1.43605e-05
2.65249e-05
3.12427e-05
2.01112e-05
1.39994e-05
1.71255e-05
1.88027e-05
1.8915e-05
1.78436e-05
1.21064e-05
9.27177e-06
1.38506e-05
1.83672e-05
2.18931e-05
3.11096e-05
2.93911e-05
1.92541e-05
1.32964e-05
1.04863e-05
8.45699e-06
8.02354e-06
1.29327e-05
1.61467e-05
1.42513e-05
1.59983e-05
1.83639e-05
1.52168e-05
1.51448e-05
1.59186e-05
1.29281e-05
1.09337e-05
1.2511e-05
1.20644e-05
1.03082e-05
1.51006e-05
1.39947e-05
2.13392e-05
1.30255e-05
6.7148e-06
8.09556e-06
1.73576e-05
2.04259e-05
2.65996e-05
2.13663e-05
1.02579e-05
1.00527e-05
1.13363e-05
1.37557e-05
1.6985e-05
1.24256e-05
7.28865e-06
8.08078e-06
9.58277e-06
1.5557e-05
2.37244e-05
2.95656e-05
2.2785e-05
1.69925e-05
1.13992e-05
8.19953e-06
6.75999e-06
8.67701e-06
1.64209e-05
1.57793e-05
9.92039e-06
1.28399e-05
1.5557e-05
1.76273e-05
1.88025e-05
1.37105e-05
9.8227e-06
1.18925e-05
1.28846e-05
8.54675e-06
5.8547e-06
4.5296e-06
1.43657e-05
1.60622e-05
6.91304e-06
1.05651e-05
1.29704e-05
1.58636e-05
1.715e-05
1.44237e-05
7.17247e-06
8.4569e-06
8.66734e-06
7.89516e-06
1.35042e-05
1.42075e-05
1.20662e-05
1.10596e-05
4.8447e-06
1.7349e-05
1.80524e-05
1.83802e-05
2.25132e-05
2.32706e-05
1.71293e-05
1.07143e-05
9.93818e-06
6.65316e-06
1.21475e-05
2.08205e-05
1.16362e-05
8.33377e-06
1.10939e-05
1.23847e-05
1.62329e-05
1.44282e-05
9.18441e-06
1.34104e-05
1.72356e-05
1.22142e-05
2.24127e-06
4.99417e-06
7.72908e-06
1.59723e-05
9.21343e-06
1.28082e-05
1.36291e-05
1.12304e-05
6.27449e-06
8.55755e-06
7.56677e-06
1.02597e-05
1.06971e-05
9.60874e-06
1.12132e-05
1.41252e-05
1.00952e-05
8.59925e-06
3.24696e-06
1.29713e-05
2.16445e-05
7.55344e-06
1.39492e-05
2.40635e-05
2.60316e-05
2.039e-05
1.9237e-05
1.06132e-05
5.06922e-06
1.72039e-05
1.81761e-05
9.29482e-06
7.77576e-06
7.0501e-06
8.76591e-06
9.93858e-06
8.29009e-06
1.43539e-05
2.14851e-05
1.84844e-05
4.67775e-06
8.77865e-07
6.84505e-06
1.07085e-05
5.31666e-06
2.01286e-05
1.47362e-05
8.7092e-06
1.28175e-05
8.15137e-06
3.0222e-06
4.21976e-06
1.44159e-05
1.46555e-05
1.24842e-05
9.62638e-06
7.30988e-06
6.62737e-06
6.09508e-06
8.14453e-06
5.03496e-06
1.26166e-05
4.73116e-06
1.52693e-05
2.3684e-05
2.31406e-05
2.17423e-05
1.71481e-05
3.27952e-06
4.87488e-06
1.77251e-05
1.2235e-05
8.28194e-06
8.06099e-06
9.41647e-06
5.90879e-06
5.53864e-06
9.57914e-06
1.80217e-05
2.13446e-05
1.08299e-05
5.24546e-06
6.34397e-06
4.9579e-06
2.70454e-06
1.39821e-05
7.49375e-06
7.77847e-06
1.32726e-05
6.58997e-06
4.59876e-06
6.29181e-06
1.00641e-05
1.97994e-05
1.24763e-05
7.5602e-06
7.08255e-06
5.47759e-06
7.43183e-06
9.92709e-06
6.99203e-06
7.15133e-06
5.54508e-06
8.40265e-06
1.25806e-05
1.3125e-05
6.50146e-06
1.07374e-05
3.97717e-06
1.00864e-05
1.03129e-05
1.24932e-05
1.02271e-05
1.97996e-05
1.88237e-05
8.57859e-06
5.21232e-06
3.61237e-06
8.7528e-06
1.14762e-05
1.31403e-05
1.56333e-05
1.51423e-05
7.98183e-06
9.47206e-06
8.08272e-06
6.185e-06
1.38136e-06
8.56938e-06
5.98856e-06
5.75203e-06
4.76775e-06
6.8695e-06
1.64215e-05
1.23027e-05
7.02688e-06
7.08353e-06
1.00186e-05
1.05601e-05
5.25201e-06
5.12316e-06
7.2381e-06
6.02348e-06
8.30584e-06
6.87291e-06
9.13151e-06
4.18238e-06
3.81724e-06
7.53718e-06
4.05674e-06
8.36044e-06
1.07198e-05
8.17778e-06
1.89761e-05
3.02865e-05
1.49112e-05
6.74898e-06
5.30089e-06
7.57596e-06
7.15511e-06
6.72523e-06
8.43467e-06
1.77946e-05
2.1188e-05
1.55753e-05
6.21859e-06
4.27768e-06
5.98523e-06
5.17805e-06
3.93905e-06
9.35872e-06
6.50857e-06
4.70723e-06
7.10323e-06
1.00427e-05
8.60248e-06
1.16528e-05
1.25549e-05
1.12614e-05
4.33746e-06
2.52354e-06
4.62475e-06
5.23147e-06
5.6943e-06
5.08881e-06
8.56309e-06
6.33203e-06
5.77481e-06
4.27667e-06
4.61824e-06
7.24985e-06
1.07748e-05
5.68904e-06
5.02235e-06
2.06966e-05
1.75475e-05
7.63328e-06
8.38722e-06
1.35067e-06
6.40936e-06
3.03465e-06
5.68185e-06
3.40431e-06
1.95441e-05
1.16236e-05
4.39558e-06
4.57037e-06
1.00783e-05
9.09639e-06
5.66796e-06
7.97729e-06
8.66444e-06
4.01529e-06
6.87241e-06
7.87501e-06
8.5755e-06
8.64723e-06
4.00474e-06
5.02922e-06
3.62039e-06
3.30778e-06
3.05231e-06
4.94346e-06
4.08372e-06
5.51934e-06
5.28092e-06
1.29042e-05
2.74197e-06
5.15334e-06
4.89305e-06
5.71004e-06
1.08381e-05
4.43983e-06
9.13525e-06
5.79257e-06
1.15477e-05
8.40958e-06
9.29501e-06
1.75241e-06
4.27172e-06
4.26594e-06
4.84076e-06
4.34659e-06
8.40703e-06
5.63276e-06
4.50721e-06
5.20538e-06
7.90894e-06
1.34054e-05
1.00828e-05
3.37432e-06
2.94118e-06
4.8988e-06
5.61522e-06
7.13481e-06
5.7304e-06
9.82798e-07
3.35739e-06
3.07334e-06
3.45947e-06
4.66918e-06
3.74477e-06
5.74879e-06
3.55753e-06
4.01789e-06
5.35603e-06
1.20077e-05
1.04947e-05
2.52509e-06
7.05249e-06
6.9975e-06
5.67081e-06
5.94317e-06
7.247e-06
7.49581e-06
7.68425e-06
4.25879e-06
5.3044e-06
2.87119e-06
2.57819e-06
2.92113e-06
1.57844e-06
5.23878e-06
7.17938e-06
9.34139e-06
4.48115e-07
7.15014e-06
8.46614e-06
1.16219e-05
8.98171e-06
3.66206e-06
1.97931e-06
2.34025e-06
3.83821e-06
7.34164e-06
9.30399e-06
6.35922e-06
1.20339e-06
2.9471e-06
4.32697e-06
5.90766e-06
4.367e-06
4.94946e-06
5.57935e-06
4.45256e-06
3.8907e-06
9.57958e-06
1.02496e-05
3.83507e-06
4.63363e-06
1.01555e-05
4.73677e-06
6.80754e-06
5.00607e-06
8.64793e-06
7.83935e-06
4.95612e-06
1.65761e-06
5.72214e-06
2.37628e-06
1.96484e-06
2.70555e-06
4.48357e-06
2.88591e-06
1.18358e-05
4.68406e-06
5.32458e-06
6.31212e-06
6.77459e-06
5.13435e-06
5.1176e-06
1.68704e-06
2.34071e-06
3.36775e-06
6.18236e-06
8.69071e-06
5.96702e-06
3.35151e-06
4.30651e-06
2.40034e-06
6.3351e-06
6.48412e-06
3.4382e-06
4.41835e-06
4.65248e-06
2.8248e-06
7.69903e-06
8.80751e-06
4.64228e-06
3.45722e-06
7.17256e-06
6.31328e-06
5.57197e-06
3.92602e-06
7.21195e-06
8.31862e-06
8.16852e-06
1.93615e-06
6.38649e-06
3.12899e-06
2.90432e-06
2.98725e-06
4.85108e-06
3.32175e-06
6.12917e-06
5.36545e-06
2.53956e-06
2.81135e-06
6.19593e-06
6.0202e-06
6.89752e-06
4.94297e-06
4.86493e-06
3.60958e-06
5.06335e-06
6.84547e-06
7.48309e-06
4.93898e-06
4.78413e-06
1.97964e-06
3.77613e-06
8.3366e-06
7.89438e-06
7.16502e-06
6.72604e-06
5.09119e-06
6.14947e-06
1.02316e-05
6.8519e-06
3.60551e-06
6.01829e-06
3.84275e-06
2.58481e-06
4.82938e-06
4.9448e-06
4.04658e-06
5.73933e-06
3.85784e-06
3.15448e-06
3.45542e-06
2.5436e-06
3.28655e-06
4.03725e-06
3.02825e-06
3.18428e-06
5.0812e-06
5.32531e-06
3.00867e-06
7.94395e-06
8.75376e-06
7.26205e-06
5.94534e-06
5.5036e-06
4.91692e-06
6.37992e-06
5.22312e-06
4.34188e-06
2.82056e-06
3.71395e-06
4.01945e-06
4.47075e-06
6.60089e-06
9.23643e-06
9.83314e-06
7.88401e-06
5.82368e-06
5.87027e-06
7.23094e-06
6.80148e-06
3.79592e-06
5.10209e-06
3.4821e-06
1.44303e-06
3.56773e-06
3.26575e-06
3.29156e-06
2.61327e-06
3.99466e-06
4.85388e-06
6.18116e-06
2.4477e-06
3.94599e-06
2.64739e-06
2.09297e-06
1.63215e-06
3.98086e-06
5.1053e-06
3.15451e-06
4.92168e-06
6.86955e-06
4.72528e-06
4.47443e-06
3.19662e-06
3.47306e-06
7.40657e-06
4.01448e-06
2.38206e-06
1.7274e-06
2.24701e-06
3.70182e-06
4.86467e-06
6.45606e-06
6.66196e-06
6.32886e-06
5.39153e-06
3.37911e-06
5.02912e-06
4.65322e-06
3.40339e-06
3.18991e-06
3.69446e-06
2.3543e-06
8.26763e-07
1.71861e-06
3.22855e-06
2.86788e-06
1.84792e-06
2.93597e-06
4.78872e-06
7.56352e-06
5.40868e-06
2.67964e-06
1.52296e-06
2.15045e-06
2.33465e-06
2.41748e-06
2.04796e-06
2.36078e-06
3.40037e-06
4.85014e-06
2.37568e-06
2.52459e-06
1.18145e-06
1.945e-06
4.5717e-06
2.69715e-06
2.08541e-06
1.63765e-06
9.76744e-07
9.23038e-07
3.25556e-06
5.6093e-06
6.13153e-06
5.84534e-06
5.21227e-06
3.27763e-06
2.17486e-06
3.00996e-06
2.32871e-06
2.38266e-06
2.42653e-06
1.31174e-06
4.6958e-07
7.84224e-07
3.06429e-06
1.66149e-06
2.3457e-06
2.26132e-06
3.16848e-06
5.76177e-06
5.5389e-06
1.16889e-06
1.32811e-06
2.03468e-06
2.04473e-06
1.90257e-06
8.57726e-07
1.5524e-06
1.98737e-06
3.06241e-06
1.48514e-06
1.72676e-06
6.02568e-07
1.52155e-06
2.65918e-06
1.92476e-06
1.29151e-06
1.46056e-06
5.41451e-07
4.80032e-07
1.68151e-06
2.98049e-06
4.00979e-06
4.10932e-06
4.02003e-06
2.62714e-06
1.92075e-06
1.71096e-06
1.42523e-06
1.07337e-06
1.33058e-06
8.78325e-07
3.16937e-07
1.07468e-06
2.26472e-06
1.71991e-06
2.23979e-06
1.38887e-06
1.60963e-06
2.88161e-06
2.963e-06
7.00086e-07
8.88804e-07
1.50089e-06
1.67228e-06
1.6e-06
7.20043e-07
8.84882e-07
1.25416e-06
2.29891e-06
1.2501e-06
1.05444e-06
4.98065e-07
1.11907e-06
1.93097e-06
1.47893e-06
8.5961e-07
1.28037e-06
4.28637e-07
5.90614e-07
1.22193e-06
1.1628e-06
1.71189e-06
1.83045e-06
1.98188e-06
1.45821e-06
1.18414e-06
1.48125e-06
1.14553e-06
6.92091e-07
8.06466e-07
6.92846e-07
2.74434e-07
9.28857e-07
1.56395e-06
1.51556e-06
1.50182e-06
6.82831e-07
7.9773e-07
1.45151e-06
1.44275e-06
5.55469e-07
6.53715e-07
1.20602e-06
1.29247e-06
9.85986e-07
7.36957e-07
6.34691e-07
6.82919e-07
1.42693e-06
8.19202e-07
6.22239e-07
3.04029e-07
7.26376e-07
1.27695e-06
1.18938e-06
5.65098e-07
9.28259e-07
4.40639e-07
4.24205e-07
1.02439e-06
5.84199e-07
7.0979e-07
9.97111e-07
1.22316e-06
9.45407e-07
7.35952e-07
1.0878e-06
8.40078e-07
4.31195e-07
5.24436e-07
5.86444e-07
2.23696e-07
6.66252e-07
1.27733e-06
1.04186e-06
8.79362e-07
6.10682e-07
6.71817e-07
7.78583e-07
7.99206e-07
4.4529e-07
3.80202e-07
8.41179e-07
9.42187e-07
6.44308e-07
5.554e-07
4.65045e-07
2.9434e-07
7.64962e-07
8.05793e-07
3.22226e-07
1.473e-07
4.80465e-07
7.5271e-07
8.34843e-07
2.69423e-07
6.45365e-07
3.84967e-07
1.92027e-07
7.88309e-07
3.71747e-07
3.73561e-07
6.12568e-07
6.97613e-07
6.90345e-07
5.18728e-07
6.93096e-07
6.32062e-07
2.77698e-07
2.93127e-07
5.60205e-07
2.03303e-07
4.46714e-07
9.41975e-07
7.23557e-07
5.66893e-07
4.46196e-07
4.71941e-07
4.43367e-07
6.98918e-07
2.9001e-07
2.0708e-07
6.48537e-07
6.9608e-07
4.50724e-07
3.64238e-07
4.14664e-07
1.34682e-07
3.05364e-07
8.8711e-07
1.24417e-07
6.29968e-08
3.57586e-07
3.47938e-07
6.4058e-07
1.25675e-07
3.9326e-07
3.9205e-07
6.10405e-08
5.58625e-07
2.65605e-07
1.59717e-07
4.15218e-07
3.94885e-07
4.58654e-07
4.41276e-07
3.96589e-07
4.51723e-07
1.77129e-07
1.61497e-07
5.47083e-07
1.4266e-07
3.01907e-07
6.65272e-07
5.28262e-07
3.3366e-07
2.49548e-07
4.51982e-07
1.97249e-07
6.09508e-07
2.75158e-07
1.06975e-07
5.01959e-07
4.5522e-07
3.36719e-07
2.17792e-07
4.30065e-07
8.27075e-08
6.14866e-08
9.76303e-07
2.86722e-08
3.37248e-08
2.95285e-07
1.0624e-07
7.03042e-07
7.10358e-08
1.59206e-07
6.78542e-07
2.41629e-08
2.12976e-07
3.79517e-07
5.33544e-08
2.40458e-07
2.20376e-07
2.29268e-07
4.33686e-07
2.29435e-07
2.81856e-07
1.18673e-07
9.85779e-08
5.18366e-07
8.85298e-08
2.27036e-07
4.3495e-07
3.58297e-07
2.06329e-07
1.23608e-07
4.57217e-07
5.61836e-08
5.39977e-07
3.25821e-07
5.11029e-08
3.93453e-07
2.48318e-07
3.98433e-07
1.26752e-07
3.49673e-07
1.76129e-07
1.82632e-08
9.67483e-07
1.51144e-08
2.31202e-08
2.98845e-07
2.8631e-08
7.70864e-07
1.05312e-07
4.63224e-08
9.58464e-07
1.6947e-08
2.84644e-08
7.11197e-07
2.1764e-08
8.18337e-08
2.07518e-07
9.85213e-08
3.46994e-07
1.84492e-07
1.72133e-07
6.42346e-08
6.35329e-08
5.75207e-07
5.12979e-08
1.68172e-07
3.10035e-07
2.22475e-07
1.18171e-07
4.3319e-08
5.56133e-07
1.22928e-08
4.78683e-07
3.64885e-07
2.80864e-08
3.33493e-07
8.46635e-08
5.92197e-07
8.54031e-08
7.92704e-08
4.79706e-07
1.29972e-08
7.16148e-07
8.96339e-08
1.34747e-08
3.65858e-07
1.59059e-08
6.36004e-07
4.46578e-07
1.69384e-08
9.97252e-07
2.20399e-08
4.40253e-09
8.59248e-07
1.52381e-08
2.30901e-08
2.28722e-07
8.12769e-08
1.19479e-07
1.70084e-07
2.21796e-07
2.49901e-08
3.08163e-08
7.09202e-07
3.17236e-08
9.59906e-08
2.84447e-07
1.88065e-07
3.25634e-08
3.20331e-08
6.87782e-07
5.97018e-09
4.02767e-07
3.26865e-07
2.48224e-08
3.23878e-07
2.3013e-08
7.24977e-07
7.57601e-08
6.0366e-09
6.15831e-07
1.08402e-08
2.68662e-07
1.42237e-07
1.33915e-08
4.02965e-07
1.43779e-08
3.38495e-07
8.41172e-07
9.75826e-09
7.30321e-07
3.57304e-07
2.87335e-09
7.0409e-07
1.05497e-07
1.29191e-08
6.24715e-08
2.41528e-07
2.78374e-08
6.61076e-08
5.16727e-07
1.0715e-08
8.84318e-09
8.11884e-07
1.94866e-08
5.04387e-08
2.62693e-07
3.72956e-07
8.63259e-09
2.977e-08
8.40846e-07
8.55688e-09
3.46696e-07
3.30764e-07
4.42437e-08
2.67344e-07
1.08525e-08
6.77231e-07
1.88948e-07
7.42447e-09
4.53476e-07
1.30906e-07
4.08708e-08
6.72537e-08
1.76594e-07
3.23078e-07
2.00847e-08
9.08671e-08
9.10915e-07
4.82996e-09
3.30804e-07
5.53465e-07
2.65392e-09
4.24475e-07
2.65177e-07
1.28708e-08
4.76426e-09
4.62238e-07
6.13088e-09
1.46618e-08
7.56238e-07
1.18154e-08
1.66054e-08
7.08955e-07
2.65282e-08
3.64843e-08
1.15773e-07
6.99544e-07
8.28326e-09
2.30678e-08
9.46656e-07
1.37631e-08
2.16338e-07
3.49602e-07
1.69803e-07
5.05985e-08
1.39715e-08
5.42837e-07
3.00508e-07
7.07146e-09
1.15149e-07
4.85486e-07
1.08585e-08
1.35974e-08
4.4559e-07
1.17293e-07
4.14433e-08
9.3751e-08
4.18122e-07
2.61235e-08
2.00947e-07
2.7817e-07
2.10112e-09
2.34714e-07
1.65065e-07
2.85988e-08
2.72507e-09
4.50593e-07
1.5745e-08
1.16977e-08
6.31315e-07