/*--------------------------------*- C++ -*----------------------------------*\
  =========                 |
  \\      /  F ield         | OpenFOAM: The Open Source CFD Toolbox
   \\    /   O peration     | Website:  https://openfoam.org
    \\  /    A nd           | Version:  10
     \\/     M anipulation  |
\*---------------------------------------------------------------------------*/
FoamFile
{
    format      ascii;
    class       surfaceScalarField;
    location    "19";
    object      phi;
}
// * * * * * * * * * * * * * * * * * * * * * * * * * * * * * * * * * * * * * //

dimensions      [0 3 -1 0 0 0 0];

internalField   nonuniform List<scalar> 
74080
(
0.00501556
9.50474e-07
3.27341e-08
0.00501835
3.61281e-06
-2.19342e-06
0.00502059
-3.22706e-06
-1.50541e-06
0.00501413
4.07475e-06
-7.30435e-07
0.0050219
-1.77848e-06
-3.86698e-06
0.00501994
-3.02136e-06
1.08286e-06
0.00501868
1.44152e-06
-4.96421e-06
0.00502439
-5.24969e-06
2.36292e-06
0.00502302
-4.46504e-06
-1.16326e-06
0.00502425
9.2226e-07
-4.17765e-06
0.00502561
-4.60708e-06
6.30853e-06
0.00502818
7.83596e-08
-3.89013e-06
0.0050274
-1.28857e-06
1.40995e-06
0.0050266
1.25904e-06
3.048e-06
0.00503129
-1.78286e-06
-2.28455e-06
0.0050284
-1.4665e-07
2.7984e-06
0.00502847
7.11014e-06
-5.49565e-07
0.00502878
-6.7289e-06
2.3316e-06
0.00502755
5.34225e-06
-3.31694e-06
0.00502643
5.82019e-06
4.99667e-07
0.0050254
-5.07427e-06
4.77479e-06
0.00502692
2.69517e-06
-8.61692e-06
0.00502469
7.08804e-07
4.52931e-06
0.005027
-3.83949e-06
2.67263e-07
0.00502812
-2.36923e-06
-5.69765e-06
0.00502706
-2.90865e-06
3.90455e-06
0.00502964
6.47845e-08
-2.96866e-06
0.00502912
-1.64722e-06
-1.13898e-06
0.00502653
-2.05277e-06
-1.08865e-06
0.00502958
1.67671e-06
4.57099e-06
0.00502665
-5.49184e-07
-1.08008e-06
0.00502537
-2.2672e-07
-3.2987e-06
0.00502587
-2.77151e-06
1.01961e-05
0.00502172
7.06993e-06
-2.15484e-06
0.00502573
-2.57328e-06
-5.17827e-07
0.00501924
-1.9528e-06
8.00291e-06
0.00501958
8.35193e-06
-2.17831e-06
0.00502076
-3.52373e-06
3.37742e-07
0.00501474
5.28428e-06
4.04526e-06
-1.85351e-06
-3.06487e-06
0.00456006
2.76033e-06
-3.73847e-06
0.00456205
2.05343e-06
9.51826e-08
0.0045624
-2.18664e-06
-2.06334e-06
0.00455883
6.19547e-06
-2.87674e-06
0.00456365
-5.51085e-06
-2.04733e-06
0.00456258
-3.13824e-06
4.26433e-08
0.00456127
1.72026e-06
-4.13634e-06
0.00456826
-1.23779e-05
1.90355e-06
0.00456595
-3.47584e-06
-7.97482e-07
0.00456721
-8.93162e-07
-3.28689e-06
0.00456977
-7.08403e-06
5.06549e-06
0.00457111
-1.25632e-06
-2.73879e-06
0.00456987
-1.23762e-06
3.04066e-06
0.00457051
8.07657e-07
5.89788e-07
0.0045735
-4.40634e-06
-7.70062e-07
0.00457052
2.5451e-06
4.39607e-06
0.00457322
5.17099e-06
-2.70797e-06
0.00457028
-3.98348e-06
3.42054e-06
0.00457017
5.8478e-06
-3.09766e-06
0.00456964
7.13067e-06
8.70824e-07
0.00456754
-3.51667e-06
2.75724e-06
0.00456824
2.43615e-06
-6.63216e-06
0.0045672
3.94878e-07
4.76619e-06
0.00457007
-7.25356e-06
-2.05311e-06
0.00457016
-1.84806e-06
-1.93878e-06
0.00457057
-5.62295e-06
7.0544e-07
0.00457269
-1.08885e-06
-2.71614e-06
0.00457147
-3.39505e-07
-1.93133e-07
0.0045696
-2.92021e-06
-2.26129e-06
0.00457248
8.91667e-07
6.36913e-06
0.00456938
1.93158e-06
-4.34363e-06
0.00456886
-1.26335e-06
1.68686e-07
0.00456742
1.18526e-07
9.64906e-06
0.00456708
7.71207e-06
-4.08746e-06
0.0045685
-3.51085e-06
3.27958e-06
0.00456098
4.44063e-06
5.45602e-06
0.00456524
5.92463e-06
7.02928e-07
0.00456264
8.22559e-08
-1.27868e-07
0.00455865
7.74674e-06
2.8871e-06
-3.92296e-06
-5.33531e-07
0.00414614
2.52056e-06
-5.51164e-06
0.00414726
9.2372e-07
-6.06498e-07
0.00414597
4.11289e-07
-8.90686e-07
0.00414484
6.72369e-06
-5.23014e-06
0.00414703
-7.36655e-06
-8.78846e-07
0.00414504
-2.59588e-06
1.07867e-08
0.00414719
-1.18358e-06
-5.33467e-06
0.004153
-1.94123e-05
2.51549e-06
0.00414944
-1.78467e-06
-5.3215e-07
0.00415352
-4.8147e-06
-3.31633e-06
0.00415561
-9.65201e-06
4.73678e-06
0.00415375
-2.02015e-07
-2.00518e-06
0.00415463
-2.74839e-06
4.51711e-06
0.00415734
-1.88867e-06
-1.06082e-06
0.0041561
-3.11749e-06
3.81968e-07
0.00415535
3.46888e-06
5.84417e-06
0.00415895
2.7001e-06
-4.8067e-06
0.00415435
8.09311e-07
4.74644e-06
0.00415381
6.89667e-06
-2.13024e-06
0.00415426
7.91527e-06
-2.49466e-07
0.00415131
-7.46e-07
1.72928e-06
0.00415011
3.67236e-06
-4.02142e-06
0.0041517
-2.75822e-06
3.06188e-06
0.00415377
-9.49566e-06
-2.66207e-06
0.00415463
-2.81003e-06
8.54415e-07
0.00415584
-8.81684e-06
-3.16831e-06
0.00415707
-1.16598e-06
-2.12084e-06
0.00415583
3.88343e-08
1.24614e-09
0.00415489
-4.38473e-06
-1.52333e-06
0.00415662
6.97764e-07
5.70753e-06
0.00415412
3.63394e-06
-6.36745e-06
0.00415383
-2.55536e-06
5.06692e-06
0.00415179
3.4741e-06
7.11852e-06
0.00415337
6.70168e-06
-4.1252e-06
0.00415097
-1.34832e-06
7.81937e-06
0.00414729
7.59606e-06
2.66132e-06
0.00415112
4.00996e-06
3.21332e-06
0.00414536
7.1115e-06
1.11688e-06
0.00414461
7.09176e-06
3.56465e-07
-4.06238e-06
1.83761e-06
0.00377005
2.6797e-07
-6.56149e-06
0.00377023
5.00243e-07
-2.57771e-06
0.00376777
4.10816e-06
9.48555e-07
0.00376827
6.61236e-06
-7.68438e-06
0.00376754
-7.56463e-06
1.15218e-06
0.00376483
-1.66948e-06
-6.37078e-07
0.00377234
-9.41752e-06
-7.12095e-06
0.00377375
-2.35852e-05
4.52088e-06
0.00377147
-1.24152e-06
-1.88e-06
0.00377938
-1.19543e-05
-3.40091e-06
0.00377741
-9.15162e-06
5.20418e-06
0.00377396
2.30836e-06
-2.27298e-06
0.00377914
-8.02168e-06
5.69049e-06
0.00378013
-3.39777e-06
-1.28665e-06
0.00377692
6.22736e-07
1.74755e-06
0.00377939
1.74588e-06
6.02764e-06
0.00378117
2.04837e-06
-5.1304e-06
0.00377693
5.9899e-06
6.83644e-06
0.00377541
8.94658e-06
-2.45677e-06
0.00377663
8.1515e-06
-1.58693e-06
0.00377197
4.004e-06
2.81877e-06
0.00376963
5.69503e-06
-2.92045e-06
0.0037741
-8.70454e-06
9.69931e-07
0.00377448
-1.00092e-05
-7.99589e-07
0.00377771
-6.85981e-06
9.01117e-07
0.00377936
-1.21103e-05
-6.1529e-06
0.00377862
6.87907e-07
-1.37991e-06
0.00377851
-1.81154e-06
-2.30921e-07
0.0037781
-5.76215e-06
-3.09083e-07
0.0037779
1.77997e-06
3.46003e-06
0.00377718
3.71822e-06
-6.30988e-06
0.00377632
-3.29592e-06
9.07954e-06
0.00377527
5.53453e-06
3.9508e-06
0.00377565
7.05229e-06
-2.10591e-06
0.00377197
1.81289e-06
1.12429e-05
0.00377318
6.56548e-06
2.74206e-07
0.00377236
6.83966e-06
5.49734e-06
0.0037669
1.41283e-05
2.89169e-06
0.00376741
5.31877e-06
-2.37209e-06
-3.75249e-06
4.35565e-06
0.00342852
-3.55108e-06
-8.14165e-06
0.00342727
1.22926e-06
-3.94207e-06
0.00342508
7.96295e-06
2.16874e-06
0.00342509
7.71617e-06
-8.64655e-06
0.00342102
-5.58017e-06
2.95204e-06
0.00342066
-3.0798e-06
-2.31311e-06
0.00343032
-2.06609e-05
-8.11019e-06
0.00342813
-2.55398e-05
6.07034e-06
0.00343087
-4.68551e-06
-4.4984e-06
0.00343876
-1.92277e-05
-2.90973e-06
0.00343165
-4.41551e-06
5.7585e-06
0.00343111
2.03477e-06
-3.42517e-06
0.00343801
-1.503e-05
7.06558e-06
0.0034352
-1.41822e-06
-4.9865e-07
0.00343418
3.12214e-06
1.94479e-06
0.0034379
-8.87121e-07
4.82456e-06
0.00343684
4.29139e-06
-2.90441e-06
0.00343421
9.94083e-06
8.45802e-06
0.00343207
1.16835e-05
-4.59574e-06
0.00343301
8.96893e-06
-9.1672e-07
0.00342562
1.15019e-05
4.23453e-06
0.00342446
6.6288e-06
-4.14372e-06
0.00343022
-1.60406e-05
8.40651e-07
0.00342891
-8.88532e-06
1.65221e-06
0.00343651
-1.59799e-05
-1.31213e-06
0.0034371
-1.41411e-05
-7.74437e-06
0.0034337
5.23102e-06
-1.15515e-06
0.00343652
-7.55019e-06
-4.85984e-07
0.00343513
-5.857e-06
3.92847e-07
0.0034336
3.97029e-06
1.10804e-06
0.00343482
2.24381e-06
-4.1782e-06
0.00343319
-3.66345e-06
1.09502e-05
0.00343359
5.89331e-06
1.71999e-06
0.0034309
1.02469e-05
1.78257e-06
0.00342906
2.89897e-06
1.29137e-05
0.00343293
3.59886e-06
-5.7942e-07
0.00342751
1.41704e-05
7.78408e-06
0.00342362
1.99863e-05
3.9286e-06
0.00342268
4.74409e-06
-3.55277e-06
-5.63318e-06
6.18811e-06
0.00311804
-8.49164e-06
-9.45535e-06
0.00311611
2.43827e-06
-4.53542e-06
0.00311473
1.23893e-05
2.25216e-06
0.00311108
1.26211e-05
-7.29879e-06
0.00310539
-2.63137e-06
3.75305e-06
0.00310892
-8.22465e-06
-4.43836e-06
0.00311725
-3.24334e-05
-8.82863e-06
0.00311493
-2.82077e-05
6.40371e-06
0.00312333
-1.35101e-05
-7.22926e-06
0.00312739
-2.37576e-05
-2.0328e-06
0.00311743
2.80622e-06
5.68329e-06
0.00312123
-2.58931e-06
-4.96522e-06
0.00312613
-2.01882e-05
8.86491e-06
0.00312169
2.01522e-06
8.56881e-07
0.00312447
2.59304e-06
1.35279e-06
0.00312634
-1.51068e-06
4.06301e-06
0.00312379
8.30733e-06
1.34365e-06
0.00312319
1.22555e-05
8.48635e-06
0.00312071
1.51784e-05
-7.23023e-06
0.00312004
1.13937e-05
1.80401e-06
0.00310971
2.18654e-05
4.24289e-06
0.00311138
5.13249e-06
-5.996e-06
0.00311594
-2.2481e-05
2.98201e-06
0.00311518
-8.25625e-06
2.64009e-06
0.00312797
-3.05205e-05
-4.47143e-06
0.00312486
-1.25172e-05
-8.44206e-06
0.00312059
1.10011e-05
-1.53742e-06
0.0031261
-1.69244e-05
-8.1131e-07
0.00312231
-3.42888e-06
-3.20993e-08
0.00312116
6.24066e-06
-1.49397e-07
0.00312337
-3.81953e-07
-8.44852e-07
0.00312135
-4.21114e-06
1.05004e-05
0.0031228
5.00112e-06
1.59305e-06
0.00311691
1.58209e-05
6.94789e-06
0.00311839
7.79267e-07
1.29174e-05
0.00312287
4.17884e-07
5.69093e-07
0.00311497
2.4677e-05
9.16244e-06
0.00311084
2.67057e-05
4.17429e-06
0.00310764
5.77536e-06
-2.29328e-06
-1.17144e-05
6.21915e-06
0.00283558
-1.43027e-05
-1.01451e-05
0.00283514
2.61338e-06
-5.88096e-06
0.00283275
1.91354e-05
2.78446e-06
0.00282378
2.30285e-05
-3.92804e-06
0.00281854
1.74207e-07
3.48615e-06
0.00282468
-1.59282e-05
-6.97471e-06
0.00283111
-4.43324e-05
-1.04609e-05
0.00283258
-3.5242e-05
5.31064e-06
0.00284396
-2.52715e-05
-9.94511e-06
0.00284231
-2.36744e-05
-1.01436e-06
0.00283353
9.12656e-06
4.25889e-06
0.00283918
-9.55024e-06
-6.82452e-06
0.00284104
-2.2031e-05
1.11776e-05
0.00283849
4.03014e-06
1.903e-06
0.00284322
1.74289e-07
3.50266e-07
0.00284146
1.87021e-06
4.19268e-06
0.00284029
1.18163e-05
5.96613e-06
0.0028409
1.34159e-05
7.09916e-06
0.00283784
1.94141e-05
-8.58099e-06
0.00283463
1.55973e-05
5.5548e-06
0.00282258
3.45182e-05
2.28686e-06
0.00282637
2.08317e-06
-6.83501e-06
0.00282851
-2.72325e-05
6.30916e-06
0.00283175
-1.10255e-05
2.18191e-06
0.0028477
-4.83861e-05
-7.83649e-06
0.00284031
-6.65769e-06
-9.70324e-06
0.00283715
1.63684e-05
-2.42371e-06
0.00284297
-2.76518e-05
-1.22727e-06
0.00283755
8.31697e-07
-1.13399e-06
0.0028382
7.79393e-06
8.28885e-08
0.00283933
-1.89694e-06
2.15544e-06
0.00283814
-6.08099e-06
8.61453e-06
0.00284014
2.81989e-06
3.90976e-06
0.00283135
2.3196e-05
1.26658e-05
0.00283641
-4.88522e-06
1.22719e-05
0.00284093
-2.01649e-06
2.46388e-06
0.00283197
3.78569e-05
9.04046e-06
0.0028247
3.69373e-05
4.85845e-06
0.00282044
7.49533e-06
2.40559e-08
-2.24698e-05
4.19186e-06
0.00257992
-2.23233e-05
-1.10365e-05
0.00258133
1.74904e-06
-8.40865e-06
0.00257588
2.96055e-05
4.84009e-06
0.00256166
3.92779e-05
1.09376e-06
0.00255723
3.43803e-06
2.60067e-06
0.0025647
-2.5036e-05
-1.0588e-05
0.00257087
-5.73521e-05
-1.41318e-05
0.00257762
-4.79999e-05
2.99662e-06
0.00258938
-3.81342e-05
-1.24052e-05
0.0025829
-1.98086e-05
-3.24889e-07
0.00257683
1.33359e-05
1.14178e-06
0.00258117
-1.58924e-05
-8.63848e-06
0.00258169
-2.18417e-05
1.39677e-05
0.00258245
3.2768e-06
2.73133e-06
0.00258665
-2.01238e-06
-9.02185e-07
0.00258236
8.69757e-06
5.08698e-06
0.00258347
1.39136e-05
1.0234e-05
0.00258381
1.49689e-05
5.83485e-06
0.0025807
2.33444e-05
-8.53955e-06
0.00257536
2.09564e-05
8.68381e-06
0.00256164
4.94483e-05
1.32325e-07
0.00256576
-4.06769e-07
-6.61097e-06
0.00256656
-3.12825e-05
9.81994e-06
0.00257574
-1.83599e-05
8.34553e-07
0.00259235
-6.71201e-05
-1.14069e-05
0.0025819
2.73576e-06
-1.15597e-05
0.00257987
2.19057e-05
-3.29626e-06
0.00258403
-3.77499e-05
-2.06967e-06
0.0025795
5.13214e-06
-2.48352e-06
0.00258131
1.02334e-05
1.56535e-06
0.00257963
-1.79636e-07
4.06669e-06
0.00258151
-1.10135e-05
6.0444e-06
0.0025827
-4.19905e-07
9.09586e-06
0.00257173
3.11944e-05
1.87588e-05
0.00258021
-1.40406e-05
1.18125e-05
0.00258532
-3.96559e-06
4.19227e-06
0.0025753
5.43865e-05
7.92981e-06
0.00256277
5.22667e-05
7.24014e-06
0.00255856
7.8207e-06
3.92055e-06
-3.78317e-05
1.22272e-06
0.00234884
-3.4207e-05
-1.32883e-05
0.0023517
1.3508e-07
-1.20498e-05
0.00234227
4.30961e-05
9.96564e-06
0.00232289
6.02732e-05
9.20997e-06
0.00231788
9.19346e-06
1.41905e-06
0.00232644
-3.52797e-05
-1.67067e-05
0.00233391
-7.28862e-05
-1.9741e-05
0.00234591
-6.79292e-05
4.49252e-07
0.00235675
-5.20078e-05
-1.41189e-05
0.00234754
-1.47054e-05
3.48216e-07
0.00234343
1.42023e-05
-3.30286e-06
0.00234502
-2.05269e-05
-1.02131e-05
0.00234639
-2.12831e-05
1.71924e-05
0.00235028
-1.08922e-07
3.44809e-06
0.00235203
-2.23851e-06
-2.19355e-06
0.00234714
1.71173e-05
5.89981e-06
0.00234996
1.47855e-05
1.4339e-05
0.0023493
1.6446e-05
6.13823e-06
0.00234765
2.53931e-05
-7.8913e-06
0.00233978
2.81265e-05
1.09051e-05
0.00232396
6.726e-05
-1.572e-06
0.00232751
-9.59578e-07
-5.86635e-06
0.00232849
-3.55334e-05
1.37746e-05
0.00234342
-3.00427e-05
-2.86285e-07
0.00235951
-8.5067e-05
-1.68836e-05
0.00234801
1.35089e-05
-1.36224e-05
0.00234555
2.93795e-05
-3.85448e-06
0.00234751
-4.60763e-05
-3.52402e-06
0.00234633
7.46181e-06
-3.53179e-06
0.00234722
1.6371e-05
4.0571e-06
0.00234258
5.84476e-06
5.06798e-06
0.00234866
-1.9986e-05
4.0246e-06
0.00234821
-5.4484e-06
1.72995e-05
0.00233577
3.78982e-05
2.60946e-05
0.00234717
-2.60248e-05
1.22219e-05
0.00235392
-5.4424e-06
3.97487e-06
0.00234217
7.51334e-05
6.1536e-06
0.00232296
7.33779e-05
1.17763e-05
0.00231948
4.95676e-06
7.99293e-06
-6.00658e-05
-5.31386e-07
0.00213903
-5.02558e-05
-1.76734e-05
0.00214329
-2.78631e-06
-1.61964e-05
0.00213057
5.79266e-05
1.82909e-05
0.00210576
8.73437e-05
1.96792e-05
0.00209734
2.03875e-05
6.54916e-07
0.00210483
-4.43848e-05
-2.62933e-05
0.00211317
-9.09222e-05
-2.75279e-05
0.00213053
-9.80296e-05
-1.0401e-06
0.00214145
-7.1481e-05
-1.28231e-05
0.00213294
-1.34929e-05
1.58953e-06
0.00212938
1.09065e-05
-7.25771e-06
0.00212879
-2.44721e-05
-1.01097e-05
0.00213255
-2.23767e-05
2.09624e-05
0.00213862
-6.35626e-06
5.17756e-06
0.00213779
-3.9734e-07
-2.24636e-06
0.00213309
2.72379e-05
5.96179e-06
0.00213609
1.59966e-05
1.80002e-05
0.00213559
1.63152e-05
7.94388e-06
0.00213623
2.39174e-05
-7.90105e-06
0.00212552
3.59622e-05
1.34106e-05
0.00210764
8.76312e-05
-1.16364e-06
0.00210942
2.34859e-06
-4.88823e-06
0.00211236
-4.06818e-05
1.79133e-05
0.00213218
-4.40149e-05
-2.86782e-06
0.00214802
-0.000102293
-2.36885e-05
0.00213598
2.52089e-05
-1.50265e-05
0.00213107
4.21624e-05
-4.8256e-06
0.00213241
-5.3254e-05
-5.35851e-06
0.00213519
7.33042e-06
-3.3585e-06
0.00213352
2.89001e-05
6.82175e-06
0.00212646
1.77363e-05
4.02406e-06
0.00213665
-3.27623e-05
2.98298e-06
0.00213422
-1.38326e-05
2.84677e-05
0.00212103
4.08916e-05
3.58586e-05
0.00213535
-4.06835e-05
1.30852e-05
0.00214434
-6.20521e-06
1.72474e-06
0.00213006
0.000100939
4.9375e-06
0.00210327
0.000100598
1.80518e-05
0.00210023
-2.58403e-06
1.31665e-05
-9.03518e-05
-3.99585e-07
0.00194351
-7.03835e-05
-2.42669e-05
0.00195245
-1.15682e-05
-2.02924e-05
0.00194176
6.7742e-05
3.0453e-05
0.00191129
0.000119945
3.49048e-05
0.00189276
4.26354e-05
9.49021e-07
0.00188993
-4.38859e-05
-3.96848e-05
0.00189419
-0.000105852
-3.77571e-05
0.00191629
-0.000137235
-3.10277e-06
0.00193193
-0.000101651
-1.06701e-05
0.00193059
-2.42258e-05
3.10295e-06
0.00192942
-1.09584e-06
-9.90237e-06
0.00192915
-2.98214e-05
-9.19267e-06
0.00193624
-2.59469e-05
2.56298e-05
0.00194328
-1.65429e-05
9.99366e-06
0.0019408
-6.06712e-07
5.6762e-07
0.00193703
3.79304e-05
6.05155e-06
0.00193914
1.67413e-05
2.40736e-05
0.00194054
1.06152e-05
1.22464e-05
0.00194352
1.87159e-05
-9.80027e-06
0.0019301
4.42604e-05
1.59189e-05
0.00191073
0.000109617
6.88675e-07
0.00190953
1.04823e-05
-4.3196e-06
0.00191494
-4.71508e-05
2.33511e-05
0.00193933
-5.9635e-05
-8.21581e-06
0.00195596
-0.000119493
-3.4509e-05
0.00194333
3.7194e-05
-1.59252e-05
0.00193467
6.24498e-05
-4.85037e-06
0.0019366
-5.83372e-05
-7.08135e-06
0.0019438
3.7095e-06
-1.51156e-06
0.00193927
4.75505e-05
1.10746e-05
0.00193021
3.66954e-05
2.25708e-06
0.00194229
-4.68096e-05
2.78007e-06
0.00193854
-2.91614e-05
4.37936e-05
0.00192574
3.65802e-05
5.04901e-05
0.00194124
-5.47418e-05
1.36034e-05
0.00195235
-4.028e-06
-4.02819e-06
0.00193707
0.000129457
5.09843e-06
0.00190359
0.0001316
2.74337e-05
0.00189748
-1.34979e-05
2.10117e-05
-0.000126644
1.36797e-06
0.00175106
-9.2466e-05
-3.83942e-05
0.0017728
-2.92757e-05
-2.92957e-05
0.00177418
6.64275e-05
4.55115e-05
0.00174129
0.000152476
5.63106e-05
0.00170567
7.90746e-05
2.24823e-06
0.00168102
-2.08502e-05
-5.66067e-05
0.00167058
-9.95395e-05
-4.98348e-05
0.00169246
-0.000172278
-6.31598e-06
0.00171695
-0.000140619
-9.85465e-06
0.0017289
-4.92386e-05
3.87157e-06
0.00173515
-2.33032e-05
-1.10781e-05
0.00173939
-3.82616e-05
-6.71235e-06
0.0017508
-3.41503e-05
3.0674e-05
0.00175924
-3.37868e-05
1.71839e-05
0.0017574
-5.61261e-06
5.82848e-06
0.00175419
5.13658e-05
8.41896e-06
0.00175468
1.65676e-05
3.50714e-05
0.00176036
-7.02706e-06
2.03558e-05
0.00176652
4.32465e-06
-9.78333e-06
0.00175202
4.65027e-05
2.35114e-05
0.00173218
0.000130011
6.76422e-06
0.0017254
2.6799e-05
-3.0618e-06
0.00173179
-5.06933e-05
2.69095e-05
0.00176277
-7.59912e-05
-1.88402e-05
0.00177999
-0.00013815
-4.81209e-05
0.00176599
5.13282e-05
-1.74185e-05
0.00175533
9.27458e-05
-5.554e-06
0.00175764
-5.82628e-05
-8.46405e-06
0.00176789
-2.3053e-06
1.39079e-06
0.00176434
6.90345e-05
1.55224e-05
0.00175569
6.07166e-05
-2.16809e-08
0.00176413
-5.85245e-05
4.75868e-06
0.00175758
-5.09191e-05
6.23769e-05
0.00174569
2.29679e-05
6.91868e-05
0.00175928
-6.65993e-05
1.66985e-05
0.0017732
2.81376e-06
-1.39126e-05
0.00176238
0.00015903
2.68605e-06
0.00172284
0.000168758
3.76156e-05
0.00170466
-2.08215e-05
3.2525e-05
-0.000163239
3.5796e-06
0.00155644
-0.00011464
-6.48378e-05
0.00159779
-5.74651e-05
-3.96667e-05
0.00161886
5.05067e-05
6.68711e-05
0.00159094
0.000178303
7.69294e-05
0.00154451
0.000123498
7.66027e-08
0.00150389
1.68728e-05
-6.02146e-05
0.00147928
-7.68374e-05
-3.45364e-05
0.00149287
-0.000190014
6.6452e-06
0.00151684
-0.000174256
-1.00853e-06
0.00153279
-8.06958e-05
1.81751e-05
0.00154565
-5.27315e-05
-1.94071e-06
0.00155755
-4.85044e-05
-4.14496e-06
0.00157381
-4.92283e-05
3.35804e-05
0.00158216
-6.04511e-05
2.2127e-05
0.0015831
-1.07512e-05
4.89998e-06
0.00158317
7.24084e-05
1.11667e-05
0.00158033
1.63636e-05
5.46542e-05
0.00159004
-3.50572e-05
2.70516e-05
0.00160142
-1.59831e-05
-1.11068e-05
0.00158935
3.86105e-05
3.84898e-05
0.0015693
0.0001453
1.89665e-05
0.00155322
5.27967e-05
6.76827e-07
0.00155828
-5.06307e-05
2.68887e-05
0.00159727
-9.10581e-05
-3.93193e-05
0.00161219
-0.00015505
-6.83722e-05
0.00159823
6.52017e-05
-2.15504e-05
0.00159139
0.000129238
-4.69021e-06
0.00159195
-4.83121e-05
-7.68514e-06
0.00160077
-8.0613e-06
7.6025e-06
0.00160701
8.14992e-05
2.45003e-05
0.0016082
7.97788e-05
-2.54163e-06
0.00160758
-6.77551e-05
1.19402e-05
0.00158917
-7.9835e-05
9.29951e-05
0.00156942
3.68895e-06
9.21557e-05
0.00157958
-7.30437e-05
1.16757e-05
0.00160605
7.84697e-06
-3.23095e-05
0.0016075
0.000188013
1.57386e-06
0.00155617
0.000225144
5.16024e-05
0.001515
-8.81465e-06
4.08241e-05
-0.000192547
-2.3665e-06
0.00137693
-0.000128216
-9.14935e-05
0.0014254
-8.7272e-05
-2.62035e-05
0.00146054
1.8785e-05
0.000101879
0.00145098
0.000197919
7.28282e-05
0.00141598
0.00017223
-2.21574e-05
0.00137925
5.08041e-05
-4.67512e-05
0.00135641
-5.88846e-05
5.58137e-06
0.001364
-0.00018486
2.3572e-05
0.00136786
-0.000181061
1.42155e-05
0.00136243
-0.000110626
6.05648e-05
0.00137202
-8.71824e-05
2.58462e-05
0.00139208
-6.02375e-05
-4.90453e-06
0.00141316
-6.73397e-05
2.80502e-05
0.00141663
-7.88707e-05
8.02818e-06
0.00142101
8.11781e-06
-2.06259e-05
0.00143117
0.00010814
7.81367e-06
0.00142063
2.1207e-05
6.61542e-05
0.00142693
-5.68141e-05
1.38635e-05
0.00144775
-3.60155e-05
-1.29351e-05
0.00144095
1.44335e-05
6.84942e-05
0.00141908
0.000154271
3.8921e-05
0.0013945
9.02745e-05
1.05318e-05
0.00139794
-4.50329e-05
2.40962e-05
0.00143485
-9.39204e-05
-6.62974e-05
0.00144233
-0.000157035
-0.000100723
0.00143644
8.30049e-05
-4.20402e-05
0.0014402
0.000173962
-1.06035e-05
0.00142805
-1.93175e-05
-2.35909e-06
0.00142932
-1.504e-05
2.37606e-05
0.00146282
6.85063e-05
2.58736e-05
0.00149552
8.0256e-05
-1.7645e-05
0.0014808
-7.4457e-05
2.77469e-05
0.00142209
-9.88125e-05
0.000127796
0.0013782
-9.72806e-06
0.000100031
0.00140256
-8.75504e-05
-1.58095e-05
0.00146226
-1.34465e-06
-5.9008e-05
0.00146668
0.00023814
2.41854e-06
0.00139325
0.000317689
6.10715e-05
0.00133836
1.85606e-05
3.38497e-05
-0.000218719
-2.69643e-05
0.0012269
-0.000119688
-8.47736e-05
0.00125052
-9.52167e-05
2.44392e-05
0.00128637
-1.01802e-05
0.000125837
0.00130621
0.000221358
3.37106e-05
0.00129476
0.000213913
-5.71862e-05
0.0012714
6.10627e-05
-3.99515e-05
0.0012663
-5.27571e-05
1.48852e-05
0.00127206
-0.000163011
9.85523e-06
0.00124955
-0.000158364
7.49596e-06
0.00121703
-0.000113778
7.23795e-05
0.00121871
-9.08866e-05
4.40378e-06
0.00125027
-6.61069e-05
-2.1592e-05
0.00127294
-8.33744e-05
2.77286e-05
0.00126421
-6.59625e-05
-2.27245e-05
0.00128101
5.75221e-05
-5.50247e-05
0.00130447
0.00014149
1.81227e-05
0.0012771
2.24715e-05
7.36588e-05
0.00128217
-6.50281e-05
-1.48372e-05
0.001316
-6.28818e-05
3.42982e-06
0.00129941
-1.89925e-05
0.000102205
0.00127297
0.000184174
2.43458e-05
0.00126436
0.000129469
1.19765e-05
0.00126838
-4.53269e-05
2.77082e-05
0.00127927
-7.21447e-05
-9.07552e-05
0.00127661
-0.000110117
-0.000174349
0.00129061
0.000108664
-9.38067e-05
0.00129543
0.00021647
-4.45667e-06
0.00125764
4.2757e-05
2.70808e-06
0.00125698
1.58393e-06
1.17441e-05
0.00133383
6.74499e-05
-2.88694e-05
0.00140536
9.44423e-05
-6.38988e-05
0.0013585
-5.40791e-05
4.20557e-05
0.00123597
-9.65534e-05
0.000151294
0.00118333
-3.85857e-05
9.38702e-05
0.00124969
-0.000122104
-5.78891e-05
0.00133143
-8.37827e-06
-8.53237e-05
0.00131141
0.000320283
8.7751e-06
0.00123316
0.000410024
5.86505e-05
0.00119951
2.12648e-05
1.29501e-06
-0.000236437
-6.38494e-05
0.00108704
-0.000113587
5.18712e-06
0.0010833
-9.22169e-05
8.35432e-05
0.00112738
-9.11839e-06
7.97078e-05
0.00117757
0.00023103
-5.81211e-06
0.00117011
0.000219913
-4.81592e-05
0.00114923
4.86294e-05
-3.01465e-05
0.00116888
-5.31853e-05
-5.70955e-06
0.00117522
-0.00013571
-2.79947e-05
0.00112601
-9.57139e-05
-2.51029e-05
0.00106792
-6.78756e-05
4.23893e-05
0.00106859
-0.000105802
-8.79049e-06
0.00111601
-0.000113844
3.99498e-06
0.00112989
-9.60039e-05
3.11746e-05
0.00112202
-2.32274e-05
-4.8287e-05
0.00116339
8.61106e-05
-6.84567e-06
0.00117905
0.000138331
6.58333e-05
0.00114391
2.00395e-05
5.0068e-05
0.00117316
-9.43392e-05
4.28261e-06
0.0012048
-0.000125895
5.59757e-05
0.00115813
-3.53362e-05
7.89774e-05
0.00114422
0.000196401
4.76376e-05
0.00116784
0.000111212
8.246e-05
0.00115844
-3.67649e-05
1.43301e-05
0.00113587
-9.08286e-06
-0.00013065
0.00112544
-5.42213e-05
-0.000195027
0.00114972
0.000140623
-0.000114346
0.00115086
0.000277535
-1.60801e-05
0.00110997
0.000128241
-2.67817e-05
0.00112397
7.7781e-05
-6.5381e-05
0.00121746
0.000141913
-0.000105476
0.00128045
0.000141348
-7.17853e-05
0.00119193
-3.47007e-05
6.88672e-05
0.00104809
-0.000111546
0.000171066
0.00101435
-7.54255e-05
8.05452e-05
0.0011062
-0.000132517
-0.000119643
0.00118938
-6.40658e-06
-9.29919e-05
0.00116134
0.000381123
4.29719e-05
0.00111298
0.000460559
4.30229e-05
0.00109824
3.27879e-06
-4.34378e-05
-0.00023865
-6.71475e-05
0.000963138
-9.60714e-05
2.25647e-05
0.000952256
-4.12137e-05
1.65703e-05
0.00100895
1.88489e-05
7.12192e-06
0.00107188
0.000202978
4.50639e-07
0.00104998
0.000186907
1.43242e-06
0.00103243
2.35235e-05
-7.20213e-06
0.00106768
-4.09696e-05
-4.32906e-05
0.00106218
-8.76424e-05
-7.123e-05
0.000989967
-4.02945e-05
-2.89275e-06
0.000929523
-6.65143e-05
8.26953e-05
0.000940166
-0.000165832
6.5144e-06
0.000978259
-0.000156588
-3.66889e-06
0.000982482
-8.56721e-05
4.4262e-06
0.00100768
-6.21745e-06
-3.5368e-06
0.00106162
9.08203e-05
5.7738e-05
0.00105775
0.000135697
4.26174e-05
0.00103296
-9.66855e-06
5.04234e-05
0.00106258
-0.000153568
6.87326e-05
0.00106219
-0.000148706
1.272e-05
0.00102524
-4.59662e-05
3.50456e-05
0.00105342
0.000163782
0.000109058
0.00106555
0.000111186
8.09798e-05
0.00104175
-1.91493e-05
-4.73705e-07
0.00103149
2.21921e-05
-8.34748e-05
0.00100987
-1.88803e-05
-0.000149173
0.00102109
0.000187313
-0.000118443
0.0010237
0.000333689
-1.41843e-05
0.000993994
0.00014263
1.79429e-05
0.00102643
9.91756e-05
-2.90969e-05
0.00111731
0.000171859
-3.30786e-05
0.00112856
0.000121523
2.64998e-05
0.000996562
-5.59213e-05
9.51136e-05
0.000883666
-0.0001381
0.000144094
0.000887317
-7.73656e-05
1.89301e-06
0.000971753
-0.000112724
-0.000151888
0.00104579
-5.61258e-06
-5.86279e-05
0.00104029
0.000432043
2.20195e-05
0.00102221
0.000483632
-4.83757e-07
0.000994094
-2.73973e-05
-4.3535e-05
-0.000240613
-2.93248e-05
0.000867008
-6.2519e-05
-1.3634e-05
0.00085744
2.95206e-07
-2.41449e-06
0.000904293
1.16967e-05
3.54031e-05
0.000953961
0.000141284
3.26052e-05
0.000942143
0.000139662
-9.20269e-07
0.000930583
2.04944e-05
-3.98184e-05
0.000950042
2.13232e-05
-9.24495e-05
0.000939022
-1.84337e-05
-7.79358e-05
0.000890204
-5.5473e-05
6.11189e-05
0.000855527
-0.000137325
0.000134054
0.000846099
-0.000203987
1.61157e-05
0.000858828
-0.00013866
-3.72297e-05
0.0008936
-9.64402e-05
-2.53497e-07
0.000933484
-2.50113e-05
6.68388e-05
0.000946599
0.000156457
4.24816e-05
0.000952762
0.000135302
4.70551e-06
0.000955468
-9.64878e-05
0.000110207
0.00093986
-0.000132576
3.9932e-05
0.000903474
-9.77714e-05
-6.41743e-05
0.000901795
-8.94943e-05
6.24812e-05
0.00094635
0.000140825
0.000129315
0.000935835
0.000136083
5.10814e-05
0.000935579
-6.15659e-05
2.53109e-05
0.000938001
1.01556e-05
-1.70689e-05
0.000888774
3.46762e-05
-0.000136062
0.000893694
0.000208838
-0.000109564
0.00089741
0.000313785
5.387e-05
0.000878594
0.000125317
3.60773e-05
0.000941907
8.72282e-05
-2.49789e-05
0.00102087
0.000129541
3.99573e-05
0.000957583
9.45015e-05
5.08618e-05
0.000815192
-6.44471e-05
3.94904e-05
0.000766748
-0.0001489
9.14141e-05
0.000790249
-3.51941e-05
-4.07974e-05
0.000856646
-6.02969e-05
-0.000160671
0.000924002
2.28546e-05
-6.18369e-05
0.000938579
0.000461968
1.85889e-05
0.000929812
0.000432294
5.72487e-05
0.000888896
-5.69562e-05
-1.71381e-05
-0.00021765
-3.98643e-05
0.000824003
-8.53017e-05
5.1012e-05
0.000800746
1.69269e-05
2.98992e-05
0.000811885
-9.68158e-06
7.13241e-05
0.000838458
9.6789e-05
1.74919e-05
0.00085046
9.7298e-05
-4.94399e-05
0.000844819
5.11844e-05
-7.90411e-05
0.000837538
9.54924e-05
-5.59991e-05
0.00082976
3.23947e-05
-3.65948e-05
0.000818727
-8.56871e-05
6.95148e-05
0.000794107
-0.000196728
0.000151117
0.000749101
-0.00019638
3.41914e-05
0.00075879
-0.000100486
-5.51884e-05
0.000818177
-0.000114418
-5.20484e-06
0.000830329
5.22362e-06
6.18071e-05
0.000835916
0.000241685
1.20976e-05
0.000882247
7.17085e-05
2.63858e-05
0.000883942
-0.000163188
0.000108623
0.000832544
-4.62538e-05
-1.11655e-06
0.000777092
-6.89837e-05
-4.94429e-05
0.000792333
-0.000177633
0.00011314
0.0008459
9.30732e-05
0.000170693
0.000825324
0.000143113
2.59772e-05
0.000839233
-0.00011415
5.58427e-06
0.0008414
3.58265e-07
1.80432e-05
0.000785271
9.35946e-05
-0.000131596
0.000796673
0.000149315
-2.8858e-05
0.000790265
0.000238651
0.000153439
0.000770346
0.000137405
2.39392e-05
0.000844629
6.40234e-05
-2.00765e-05
0.000871414
0.000116085
6.08278e-05
0.00074726
0.000176226
-2.49824e-05
0.000666569
-9.4495e-05
-8.92615e-06
0.000690465
-0.000238873
0.000119983
0.000701487
2.93727e-05
-4.55591e-05
0.000756534
4.69379e-05
-0.000198542
0.000843249
4.05133e-05
-6.84968e-05
0.000872183
0.000365252
8.48378e-05
0.000851139
0.000328611
9.73019e-05
0.000818312
-6.23386e-05
-3.3995e-05
-0.000255161
1.52499e-05
0.000766044
-6.83354e-05
5.36486e-05
0.000718174
6.48708e-05
4.91406e-05
0.000714756
-3.01262e-05
0.000111099
0.0007602
3.68496e-05
3.42814e-05
0.000801381
4.73732e-05
-4.60105e-05
0.000798217
7.65636e-05
-3.59325e-05
0.000783106
0.00011359
3.75128e-05
0.000774114
4.38085e-05
1.11238e-05
0.000761915
-6.95293e-05
3.19447e-05
0.000725979
-0.000195443
0.00011874
0.000665556
-0.000150782
1.34175e-05
0.000660873
-2.99054e-05
-7.15409e-05
0.000707386
-5.57614e-05
-4.29227e-05
0.000744475
3.77986e-05
2.44502e-05
0.000798476
0.000217762
2.88309e-05
0.00082443
1.41638e-05
4.06405e-05
0.000794245
-0.000141369
5.64499e-05
0.000732815
3.7966e-05
-9.02713e-06
0.000664665
-6.06383e-05
-4.05321e-05
0.000714439
-0.00025834
7.31597e-05
0.000782367
6.51703e-05
9.96861e-05
0.000736354
0.000167452
-4.33369e-05
0.000734443
-0.000124816
-2.5358e-05
0.000734884
5.89083e-05
-5.68856e-05
0.000695524
0.000170834
-0.000187736
0.000703112
7.12414e-05
3.43339e-05
0.000696167
0.000165357
0.00018334
0.00069305
0.000140887
1.56192e-05
0.000741779
1.36089e-05
4.17927e-05
0.000705022
0.000154573
8.21442e-05
0.000589152
0.000284516
-6.92014e-05
0.00058875
-0.000180732
-5.1866e-05
0.000656289
-0.000396866
0.000110474
0.000666823
4.47661e-05
-1.63981e-05
0.000688834
0.000169811
-0.000148458
0.000742847
6.67985e-05
-4.72238e-05
0.00077481
0.000205369
9.99638e-05
0.000772471
0.000234493
6.83333e-05
0.000764921
-7.49735e-05
-2.72913e-05
-0.000305324
5.30008e-05
0.000673095
4.72156e-06
3.25141e-05
0.00061854
0.000129827
7.17561e-05
0.000598389
-1.60616e-05
0.000121374
0.000653313
-3.38369e-06
1.80256e-05
0.000707404
3.90443e-05
-7.55677e-05
0.000715795
0.000124432
-3.82332e-05
0.000715005
0.000130022
6.53636e-05
0.000703504
7.48235e-05
1.37121e-05
0.000686802
-5.83457e-06
-2.27911e-05
0.000653999
-0.000156375
5.56301e-05
0.000607355
-0.000110523
-6.72876e-06
0.000594599
5.36644e-05
-5.01153e-05
0.000611119
5.20643e-05
-3.46919e-05
0.000673649
4.08564e-05
8.49731e-07
0.00074466
0.000155394
1.28075e-05
0.000728408
2.12296e-05
2.78149e-05
0.000705166
-7.42259e-05
3.43075e-07
0.000665128
9.43192e-05
-4.75507e-05
0.00058612
-2.19118e-05
-7.50109e-05
0.000655301
-0.000306013
8.98661e-06
0.000711275
4.93999e-05
1.67739e-05
0.000618774
0.00023745
-0.000100934
0.000607816
-0.000103644
-5.33261e-05
0.000635355
0.000116925
-0.000128652
0.000617877
0.000203281
-0.000166244
0.000624343