/*--------------------------------*- C++ -*----------------------------------*\
  =========                 |
  \\      /  F ield         | OpenFOAM: The Open Source CFD Toolbox
   \\    /   O peration     | Website:  https://openfoam.org
    \\  /    A nd           | Version:  10
     \\/     M anipulation  |
\*---------------------------------------------------------------------------*/
FoamFile
{
    format      ascii;
    class       volSymmTensorField;
    location    "19";
    object      UPrime2Mean;
}
// * * * * * * * * * * * * * * * * * * * * * * * * * * * * * * * * * * * * * //

dimensions      [0 2 -2 0 0 0 0];

internalField   nonuniform List<symmTensor> 
25600
(
(3.73549e-06 -6.95952e-09 -1.04254e-09 3.53503e-10 2.00567e-11 1.40926e-12)
(3.72147e-06 -6.09934e-09 -4.52931e-10 2.20721e-10 1.15094e-11 6.51921e-13)
(3.7288e-06 -9.02378e-09 -9.8692e-10 1.92616e-10 1.36823e-11 1.19753e-12)
(3.73396e-06 -7.17867e-09 -9.21561e-10 1.53927e-10 1.16282e-11 1.11536e-12)
(3.73016e-06 -9.09027e-09 -1.2089e-09 1.35622e-10 1.10886e-11 1.26307e-12)
(3.73872e-06 -9.43238e-09 -1.32968e-09 1.22258e-10 1.01516e-11 1.44252e-12)
(3.74109e-06 -8.65515e-09 -1.56611e-09 1.06297e-10 9.40352e-12 1.45924e-12)
(3.74449e-06 -7.08725e-09 -1.75111e-09 8.21189e-11 8.00393e-12 1.69074e-12)
(3.747e-06 -5.5734e-09 -1.97141e-09 6.93368e-11 7.06339e-12 1.74422e-12)
(3.74683e-06 -4.63573e-09 -2.1928e-09 6.30353e-11 5.59882e-12 1.83704e-12)
(3.74991e-06 -4.32875e-09 -2.30699e-09 5.91008e-11 4.60759e-12 1.87746e-12)
(3.75288e-06 -1.77098e-09 -2.47414e-09 4.9351e-11 2.72932e-12 1.85548e-12)
(3.75229e-06 1.91343e-10 -2.37604e-09 3.91295e-11 1.75834e-12 1.86355e-12)
(3.75557e-06 3.49242e-09 -2.36441e-09 3.50666e-11 1.19972e-14 1.77967e-12)
(3.74765e-06 3.75642e-09 -2.36975e-09 3.07024e-11 -7.71339e-13 1.7443e-12)
(3.75359e-06 5.35489e-09 -2.20184e-09 3.04935e-11 -9.75905e-13 1.6302e-12)
(3.74098e-06 3.47628e-09 -2.32603e-09 2.92685e-11 -2.2618e-13 1.67054e-12)
(3.75819e-06 4.93186e-09 -1.89404e-09 2.25653e-11 -1.98575e-12 1.11037e-12)
(3.73807e-06 4.26122e-09 -1.86946e-09 1.6851e-11 -9.78401e-13 1.25338e-12)
(3.76218e-06 5.27906e-09 -1.40015e-09 3.06319e-11 -3.41523e-13 8.85985e-13)
(3.73549e-06 6.59932e-09 -9.56206e-10 1.5343e-11 -2.33601e-12 4.91339e-13)
(3.75577e-06 4.46078e-09 -6.45889e-10 1.57673e-11 -2.09923e-13 5.23662e-13)
(3.73337e-06 6.54417e-09 -2.22e-10 3.39552e-11 -1.25099e-12 1.9879e-13)
(3.74391e-06 3.21744e-09 -1.09533e-10 1.65195e-11 -4.80215e-13 2.30108e-13)
(3.73005e-06 2.87056e-09 -3.54212e-11 2.68235e-11 2.48052e-13 1.24588e-13)
(3.73729e-06 1.03466e-09 -2.09255e-10 2.80411e-11 4.5583e-13 1.01379e-13)
(3.72848e-06 8.27224e-10 -5.32072e-10 3.28747e-11 1.33313e-12 2.3719e-13)
(3.73578e-06 -3.11877e-09 -9.85983e-10 2.94196e-11 2.46454e-12 4.05976e-13)
(3.73515e-06 4.84176e-10 -1.34864e-09 3.87478e-11 2.52227e-12 7.65759e-13)
(3.73501e-06 -3.51463e-09 -2.04382e-09 4.50234e-11 4.35372e-12 1.38624e-12)
(3.74097e-06 -1.48747e-09 -2.2985e-09 4.65595e-11 3.17919e-12 1.72202e-12)
(3.73877e-06 -2.66568e-09 -2.70471e-09 6.12227e-11 6.73433e-12 2.58308e-12)
(3.74639e-06 5.88943e-10 -2.79438e-09 5.99067e-11 2.91905e-12 2.43669e-12)
(3.73631e-06 -3.93546e-09 -3.1157e-09 7.26693e-11 7.89413e-12 3.15886e-12)
(3.75605e-06 1.29495e-09 -2.49058e-09 9.85644e-11 5.84859e-12 2.43545e-12)
(3.73024e-06 -2.99051e-09 -2.98605e-09 1.2756e-10 9.2687e-12 3.05938e-12)
(3.76429e-06 1.84959e-09 -1.88399e-09 1.5371e-10 9.37842e-12 2.00081e-12)
(3.72108e-06 -4.26763e-09 -2.05812e-09 2.17236e-10 1.38002e-11 2.23597e-12)
(3.77173e-06 1.86243e-09 -7.49901e-10 3.28789e-10 2.49288e-11 2.78495e-12)
(3.71106e-06 1.73278e-08 3.34384e-10 4.18825e-10 2.3821e-11 1.78982e-12)
(3.12839e-06 -5.4094e-09 -2.87766e-10 1.79173e-11 -2.35258e-12 2.04089e-12)
(3.11298e-06 -4.1568e-09 6.76271e-10 1.10557e-11 -3.00979e-12 1.46375e-12)
(3.11386e-06 -7.26447e-09 1.1192e-10 2.09377e-11 -1.40095e-12 8.42021e-13)
(3.11764e-06 -5.29563e-09 1.06634e-10 1.42154e-11 -8.96723e-13 6.00433e-13)
(3.11194e-06 -7.80171e-09 -2.86644e-10 2.5588e-11 -5.55016e-13 6.58023e-13)
(3.11824e-06 -7.47318e-09 -2.93543e-10 2.55436e-11 -3.77864e-13 9.9756e-13)
(3.11611e-06 -6.94226e-09 -6.8921e-10 2.3023e-11 1.00302e-12 9.52757e-13)
(3.11753e-06 -6.76744e-09 -1.02583e-09 2.23859e-11 2.06898e-13 1.39254e-12)
(3.12083e-06 -4.59141e-09 -1.55192e-09 1.29997e-11 1.68077e-12 1.6231e-12)
(3.11987e-06 -3.62284e-09 -1.88813e-09 1.584e-11 2.63469e-13 1.85707e-12)
(3.12161e-06 -2.36857e-09 -2.07696e-09 1.51882e-11 -3.06387e-13 2.31228e-12)
(3.1197e-06 2.61033e-10 -2.45556e-09 1.2491e-11 -1.11684e-12 2.37039e-12)
(3.11811e-06 1.63376e-09 -2.43737e-09 1.06163e-11 -2.17157e-12 2.58501e-12)
(3.11741e-06 3.99732e-09 -2.7686e-09 1.58415e-11 -3.04176e-12 2.79155e-12)
(3.11585e-06 5.68632e-09 -2.75234e-09 1.78306e-11 -4.63536e-12 2.78973e-12)
(3.11231e-06 5.3083e-09 -2.83338e-09 1.58185e-11 -3.80436e-12 3.01735e-12)
(3.11169e-06 6.95132e-09 -2.70669e-09 2.00024e-11 -5.54795e-12 2.59593e-12)
(3.10674e-06 5.73672e-09 -2.43388e-09 1.54869e-11 -4.23716e-12 2.34965e-12)
(3.10482e-06 6.70174e-09 -2.35392e-09 1.96405e-11 -4.68609e-12 2.24434e-12)
(3.10256e-06 6.48838e-09 -1.85208e-09 1.56023e-11 -4.24643e-12 1.55511e-12)
(3.09596e-06 5.54583e-09 -1.47245e-09 1.37898e-11 -2.74478e-12 1.34352e-12)
(3.10094e-06 5.21967e-09 -1.07611e-09 1.4598e-11 -2.99002e-12 1.06183e-12)
(3.09202e-06 4.12973e-09 -6.23112e-10 1.18838e-11 -2.28582e-12 7.8204e-13)
(3.09818e-06 2.54479e-09 -2.55353e-10 1.02263e-11 -1.31966e-12 5.13172e-13)
(3.09386e-06 1.74899e-09 -5.41984e-11 1.26151e-11 -1.64323e-12 3.654e-13)
(3.09595e-06 -6.43211e-10 -1.34412e-11 8.742e-12 -6.57476e-13 2.14094e-13)
(3.09731e-06 -4.47223e-10 -2.63021e-10 1.31272e-11 -7.51895e-13 2.99213e-13)
(3.1004e-06 -3.60345e-09 -4.10822e-10 9.72719e-12 8.97663e-13 2.44291e-13)
(3.10197e-06 -1.17998e-09 -9.36946e-10 1.3282e-11 9.65481e-13 4.97244e-13)
(3.10576e-06 -3.67733e-09 -1.47443e-09 1.30285e-11 1.36793e-12 1.01573e-12)
(3.10668e-06 -2.57996e-09 -1.8475e-09 8.29279e-12 1.42161e-12 1.65742e-12)
(3.11104e-06 -1.87442e-09 -2.08055e-09 9.00084e-12 1.90441e-12 2.04995e-12)
(3.10909e-06 -1.74326e-09 -2.69702e-09 4.37142e-12 1.26131e-12 2.86513e-12)
(3.1146e-06 -1.33518e-09 -2.5888e-09 3.78317e-12 1.89965e-12 2.96985e-12)
(3.11039e-06 -9.60525e-10 -2.48425e-09 7.05583e-12 1.31758e-12 3.10787e-12)
(3.11228e-06 -1.44849e-09 -2.59264e-09 8.89286e-12 8.69194e-13 3.3371e-12)
(3.1138e-06 -1.08606e-09 -1.96811e-09 1.02007e-11 3.26379e-13 2.5061e-12)
(3.11053e-06 -2.63885e-09 -1.36776e-09 1.42364e-11 -1.24097e-12 2.65679e-12)
(3.11088e-06 -1.46466e-09 -4.9122e-10 1.08681e-11 -1.51513e-12 2.2724e-12)
(3.10796e-06 -5.17997e-10 -1.1691e-09 9.05576e-12 -1.72065e-12 2.3916e-12)
(3.17252e-06 -5.76362e-09 4.07766e-10 2.02132e-11 -4.98108e-12 3.3756e-12)
(3.1593e-06 -4.60754e-09 1.45599e-09 1.40271e-11 -5.11081e-12 2.94353e-12)
(3.16136e-06 -8.65859e-09 9.57369e-10 2.90571e-11 -3.96925e-12 1.76012e-12)
(3.16564e-06 -5.13348e-09 9.50268e-10 1.72718e-11 -2.52208e-12 1.24056e-12)
(3.15856e-06 -1.0045e-08 5.03006e-10 4.22217e-11 -3.75389e-12 1.22389e-12)
(3.16786e-06 -7.99538e-09 5.29366e-10 3.33443e-11 -2.67777e-12 2.02665e-12)
(3.16504e-06 -8.34303e-09 -1.67936e-10 3.62009e-11 2.84035e-14 1.37437e-12)
(3.16828e-06 -8.31934e-09 -6.25719e-10 4.10767e-11 -2.72285e-12 2.44635e-12)
(3.17254e-06 -4.73522e-09 -1.54783e-09 1.82194e-11 2.83324e-12 2.48598e-12)
(3.17043e-06 -4.45757e-09 -1.97499e-09 2.80815e-11 -1.69316e-12 2.94166e-12)
(3.17408e-06 -2.1886e-09 -2.43476e-09 2.43088e-11 -1.23021e-12 4.20915e-12)
(3.17158e-06 1.09361e-09 -3.09509e-09 2.27073e-11 -1.96724e-12 3.99551e-12)
(3.17e-06 2.16347e-09 -3.11155e-09 1.7893e-11 -3.91479e-12 4.88101e-12)
(3.16964e-06 5.54599e-09 -3.72588e-09 2.98654e-11 -4.61639e-12 5.04929e-12)
(3.16555e-06 7.1692e-09 -3.66227e-09 2.98711e-11 -7.52582e-12 5.14727e-12)
(3.16212e-06 5.68162e-09 -3.94552e-09 2.3253e-11 -4.79059e-12 6.10992e-12)
(3.16114e-06 9.33168e-09 -3.6935e-09 3.54786e-11 -1.00754e-11 4.76084e-12)
(3.15457e-06 5.51162e-09 -3.55679e-09 2.20026e-11 -5.46931e-12 5.20528e-12)
(3.15503e-06 9.07091e-09 -3.41422e-09 3.49852e-11 -9.63838e-12 4.63784e-12)
(3.14874e-06 6.80722e-09 -2.77126e-09 2.15474e-11 -6.36923e-12 3.46034e-12)
(3.14451e-06 5.9422e-09 -2.19069e-09 2.49442e-11 -3.1878e-12 2.90401e-12)
(3.14737e-06 6.12784e-09 -1.71369e-09 2.45896e-11 -6.42866e-12 2.45903e-12)
(3.13897e-06 3.31747e-09 -9.45421e-10 1.18146e-11 -1.75121e-12 1.97605e-12)
(3.14481e-06 2.96115e-09 -2.86987e-10 1.96018e-11 -2.32064e-12 8.49654e-13)
(3.1399e-06 1.09669e-09 1.10263e-11 1.65293e-11 -3.50956e-12 1.10543e-12)
(3.14285e-06 -1.82737e-09 2.39787e-10 1.45075e-11 -8.77037e-13 4.93183e-13)
(3.14383e-06 -9.19461e-10 5.427e-11 2.22363e-11 -2.239e-12 4.89765e-13)
(3.14856e-06 -5.62608e-09 -7.87363e-11 1.92704e-11 7.28279e-13 2.65196e-13)
(3.15093e-06 -1.31953e-09 -7.82191e-10 2.84577e-11 9.31947e-13 3.91948e-13)
(3.15334e-06 -5.7605e-09 -1.35395e-09 2.61364e-11 1.09912e-12 1.03963e-12)
(3.15733e-06 -2.95287e-09 -1.90977e-09 1.73682e-11 1.60863e-12 2.10757e-12)
(3.16047e-06 -2.37651e-09 -2.1716e-09 2.06586e-11 2.72481e-12 2.45119e-12)
(3.1585e-06 -2.51309e-09 -3.20047e-09 1.4518e-11 2.8081e-12 4.27707e-12)
(3.16434e-06 -5.13663e-10 -2.84962e-09 8.15197e-12 3.05035e-12 3.99255e-12)
(3.15843e-06 -1.63707e-09 -3.05032e-09 1.27338e-11 2.70403e-12 4.94173e-12)
(3.16136e-06 -1.25658e-09 -2.94609e-09 1.37548e-11 1.29637e-12 5.04796e-12)
(3.16157e-06 -1.44114e-09 -2.09955e-09 1.93026e-11 5.35201e-13 3.36406e-12)
(3.15898e-06 -2.76343e-09 -1.2883e-09 2.14577e-11 -4.14127e-12 4.2392e-12)
(3.16251e-06 -1.82012e-09 -2.78286e-10 1.33501e-11 -3.92177e-12 3.21412e-12)
(3.15417e-06 -1.24979e-09 -8.35468e-10 1.12593e-11 -3.36626e-12 2.87444e-12)
(3.12573e-06 -6.44387e-09 1.28021e-09 3.15209e-11 -7.44291e-12 6.5076e-12)
(3.11105e-06 -5.41705e-09 2.4745e-09 2.96036e-11 -5.31181e-12 5.62056e-12)
(3.11559e-06 -9.9338e-09 2.13199e-09 5.664e-11 -6.80824e-12 4.04473e-12)
(3.11826e-06 -3.90681e-09 1.95924e-09 3.13575e-11 -3.07504e-12 2.92272e-12)
(3.11038e-06 -1.2914e-08 1.49705e-09 8.61017e-11 -9.07686e-12 2.97555e-12)
(3.12328e-06 -6.92641e-09 1.47401e-09 4.03764e-11 -3.92641e-12 4.9958e-12)
(3.11808e-06 -1.04067e-08 4.07339e-10 6.5628e-11 -1.94801e-12 2.51441e-12)
(3.12538e-06 -9.10644e-09 -2.30665e-10 8.72162e-11 -8.80149e-12 5.26184e-12)
(3.12954e-06 -4.29247e-09 -1.71114e-09 3.60489e-11 7.24998e-12 4.30609e-12)
(3.1265e-06 -5.36126e-09 -2.21542e-09 6.10115e-11 -7.2283e-12 5.48592e-12)
(3.13284e-06 -8.84822e-10 -3.11707e-09 4.39558e-11 -1.21733e-12 8.20742e-12)
(3.1288e-06 2.00308e-09 -4.004e-09 5.45719e-11 -2.66751e-12 6.97295e-12)
(3.12759e-06 3.49401e-09 -3.98203e-09 4.36371e-11 -8.81594e-12 9.62488e-12)
(3.12778e-06 7.70223e-09 -4.99318e-09 5.99274e-11 -7.44636e-12 9.3903e-12)
(3.11944e-06 8.80057e-09 -4.78577e-09 4.88632e-11 -1.27427e-11 9.53062e-12)
(3.11855e-06 6.26385e-09 -5.35125e-09 4.04752e-11 -6.41184e-12 1.23433e-11)
(3.11519e-06 1.22632e-08 -4.9107e-09 6.89909e-11 -1.80036e-11 8.48385e-12)
(3.10869e-06 4.66905e-09 -4.94916e-09 3.66802e-11 -6.72058e-12 1.07014e-11)
(3.11055e-06 1.24113e-08 -4.69788e-09 7.15059e-11 -2.02773e-11 8.98439e-12)
(3.09958e-06 5.79125e-09 -3.8064e-09 3.91603e-11 -7.06733e-12 6.6461e-12)
(3.09862e-06 6.35511e-09 -3.01489e-09 5.43202e-11 -2.7789e-12 5.71297e-12)
(3.09911e-06 6.284e-09 -2.43798e-09 5.2614e-11 -1.15967e-11 4.97881e-12)
(3.09083e-06 1.46479e-09 -1.21685e-09 2.59912e-11 2.79006e-12 3.83167e-12)
(3.09767e-06 3.51317e-09 -3.16998e-10 4.82149e-11 -4.33811e-12 1.6269e-12)
(3.09013e-06 -8.90567e-10 1.30556e-10 2.94861e-11 -5.47241e-12 2.83662e-12)
(3.09576e-06 -3.02831e-09 5.16204e-10 4.20685e-11 -5.18301e-13 1.02914e-12)
(3.09515e-06 -1.94791e-09 3.47777e-10 4.75341e-11 -4.6371e-12 1.14273e-12)
(3.10257e-06 -8.1117e-09 1.68371e-10 4.82174e-11 8.22738e-13 4.86229e-13)
(3.10494e-06 -1.59687e-09 -8.30518e-10 7.52456e-11 1.64684e-12 5.79389e-13)
(3.10636e-06 -8.75048e-09 -1.42459e-09 6.33691e-11 1.01666e-12 1.56799e-12)
(3.11463e-06 -3.06183e-09 -2.3274e-09 4.50729e-11 3.78274e-12 3.86055e-12)
(3.11461e-06 -3.36525e-09 -2.62417e-09 5.37498e-11 5.37173e-12 3.97292e-12)
(3.11479e-06 -3.31852e-09 -4.22818e-09 5.14936e-11 7.95617e-12 8.45178e-12)
(3.11905e-06 8.24644e-10 -3.40133e-09 4.09659e-11 7.9213e-12 6.60523e-12)
(3.11163e-06 -3.29155e-09 -4.08453e-09 3.87373e-11 6.59249e-12 9.42401e-12)
(3.11592e-06 -3.73698e-10 -3.46651e-09 2.77906e-11 3.63798e-12 9.18749e-12)
(3.11385e-06 -2.76969e-09 -2.27796e-09 4.40546e-11 4.08387e-12 5.42548e-12)
(3.1131e-06 -3.2273e-09 -1.33887e-09 4.12649e-11 -8.7685e-12 8.2866e-12)
(3.11569e-06 -2.18187e-09 2.03696e-10 2.58538e-11 -7.3626e-12 4.88294e-12)
(3.10484e-06 -4.85214e-09 -2.63023e-10 2.77866e-11 -4.9992e-12 4.17012e-12)
(3.07544e-06 -6.2632e-09 2.46306e-09 7.43794e-11 -1.91549e-11 1.35154e-11)
(3.05787e-06 -6.62368e-09 3.75359e-09 7.82169e-11 -7.28236e-12 9.9876e-12)
(3.06702e-06 -1.06395e-08 3.61014e-09 1.26871e-10 -1.24481e-11 9.24276e-12)
(3.06486e-06 -2.25108e-09 3.15332e-09 9.38625e-11 -4.01811e-12 6.72564e-12)
(3.05798e-06 -1.71056e-08 2.76557e-09 1.92878e-10 -1.8709e-11 6.83818e-12)
(3.07454e-06 -4.60656e-09 2.51869e-09 7.6952e-11 2.24886e-13 1.18496e-11)
(3.06563e-06 -1.46915e-08 9.97017e-10 1.62718e-10 -5.81694e-12 4.87527e-12)
(3.08012e-06 -8.7255e-09 6.99685e-11 1.95806e-10 -1.60155e-11 1.18316e-11)
(3.08149e-06 -4.58414e-09 -2.17985e-09 1.14556e-10 2.07225e-11 8.01629e-12)
(3.07882e-06 -6.65333e-09 -2.67927e-09 1.6194e-10 -1.99709e-11 1.11456e-11)
(3.08823e-06 9.20989e-10 -4.29035e-09 1.22927e-10 2.83839e-12 1.65268e-11)
(3.08161e-06 2.1806e-09 -5.27871e-09 1.50029e-10 -2.87957e-12 1.25007e-11)
(3.08206e-06 5.83555e-09 -5.20806e-09 1.18837e-10 -1.78893e-11 1.98073e-11)
(3.08126e-06 1.00673e-08 -6.69114e-09 1.50559e-10 -9.45006e-12 1.80129e-11)
(3.0679e-06 1.01569e-08 -6.15829e-09 9.69633e-11 -2.09491e-11 1.75909e-11)
(3.07145e-06 7.04305e-09 -7.15423e-09 8.5301e-11 -7.73978e-12 2.50359e-11)
(3.06356e-06 1.46764e-08 -6.42228e-09 1.4233e-10 -2.77241e-11 1.46767e-11)
(3.05966e-06 2.97789e-09 -6.76006e-09 9.36662e-11 -7.74509e-12 2.17043e-11)
(3.0615e-06 1.63026e-08 -6.31514e-09 1.5361e-10 -3.93672e-11 1.71093e-11)
(3.0453e-06 2.50892e-09 -5.05785e-09 8.00504e-11 -2.05438e-12 1.2184e-11)
(3.05008e-06 7.85083e-09 -4.09378e-09 1.26463e-10 -2.70141e-12 1.1437e-11)
(3.04544e-06 4.85838e-09 -3.27838e-09 1.14188e-10 -1.44849e-11 9.54557e-12)
(3.04001e-06 -1.10837e-10 -1.52823e-09 8.19487e-11 1.33343e-11 6.89344e-12)
(3.04604e-06 4.42241e-09 -3.80184e-10 1.16973e-10 -8.0335e-12 3.76837e-12)
(3.03547e-06 -4.088e-09 3.78956e-10 6.70329e-11 -5.67631e-12 6.6372e-12)
(3.04555e-06 -3.24489e-09 8.21135e-10 1.14838e-10 -4.65644e-13 2.37153e-12)
(3.04109e-06 -3.66932e-09 7.05303e-10 1.07899e-10 -8.33127e-12 3.0216e-12)
(3.05318e-06 -1.07577e-08 2.83192e-10 1.29072e-10 1.34873e-12 9.80947e-13)
(3.0541e-06 -1.82168e-09 -1.09483e-09 2.00497e-10 3.41337e-12 1.39149e-12)
(3.05545e-06 -1.29016e-08 -1.75305e-09 1.65388e-10 2.31326e-12 2.99855e-12)
(3.06897e-06 -2.40312e-09 -3.21151e-09 1.35318e-10 9.38692e-12 8.33026e-12)
(3.06423e-06 -5.46801e-09 -3.55065e-09 1.57673e-10 1.22444e-11 7.76035e-12)
(3.06854e-06 -3.09484e-09 -5.88045e-09 1.46222e-10 1.87239e-11 1.89066e-11)
(3.06872e-06 1.79622e-09 -4.31928e-09 1.37282e-10 2.01413e-11 1.23242e-11)
(3.06098e-06 -5.22829e-09 -5.74146e-09 1.21299e-10 1.33136e-11 1.97724e-11)
(3.06658e-06 1.10244e-09 -4.02862e-09 9.27952e-11 8.44488e-12 1.82647e-11)
(3.06141e-06 -4.94754e-09 -2.62826e-09 1.45969e-10 1.31834e-11 1.06495e-11)
(3.06431e-06 -2.88195e-09 -1.42544e-09 1.27907e-10 -2.35455e-11 1.79049e-11)
(3.06398e-06 -2.46447e-09 8.94209e-10 9.23311e-11 -1.41501e-11 7.59076e-12)
(3.05204e-06 -6.76637e-09 5.87137e-10 8.4087e-11 -1.20304e-11 8.32621e-12)
(3.02909e-06 -6.31787e-09 4.17462e-09 1.99833e-10 -4.8739e-11 3.01478e-11)
(3.00823e-06 -8.80325e-09 5.28301e-09 2.1974e-10 -6.77159e-12 1.71404e-11)
(3.02392e-06 -1.02459e-08 5.58551e-09 3.03503e-10 -2.23813e-11 2.16632e-11)
(3.01262e-06 -8.72858e-10 4.59579e-09 2.6344e-10 -5.65529e-12 1.55506e-11)
(3.0103e-06 -2.18995e-08 4.37422e-09 4.25093e-10 -3.17381e-11 1.47421e-11)
(3.02866e-06 -7.10157e-10 3.60827e-09 1.98269e-10 1.80174e-11 2.71176e-11)
(3.01588e-06 -2.14272e-08 1.57045e-09 4.10185e-10 -1.20352e-11 9.99328e-12)
(3.04069e-06 -5.71152e-09 1.4191e-10 4.3337e-10 -1.85577e-11 2.65069e-11)
(3.03524e-06 -6.61536e-09 -3.09775e-09 3.26574e-10 5.10511e-11 1.63252e-11)
(3.03638e-06 -6.92008e-09 -3.50758e-09 3.99004e-10 -4.77975e-11 2.38023e-11)
(3.04739e-06 3.29973e-09 -6.15969e-09 3.44932e-10 1.64108e-11 3.4043e-11)
(3.03837e-06 1.92674e-09 -6.96544e-09 4.08345e-10 -7.94799e-13 2.25986e-11)
(3.04118e-06 1.06411e-08 -7.01394e-09 3.29512e-10 -3.68091e-11 4.12053e-11)
(3.03688e-06 1.19466e-08 -8.88624e-09 3.69487e-10 -6.12308e-12 3.55536e-11)
(3.01934e-06 1.24899e-08 -7.8323e-09 2.22171e-10 -3.78237e-11 3.28899e-11)
(3.0282e-06 7.98045e-09 -9.4589e-09 2.14461e-10 -7.8172e-12 5.1274e-11)
(3.0141e-06 1.70707e-08 -8.24482e-09 3.20101e-10 -3.8034e-11 2.47514e-11)
(3.01528e-06 1.24295e-09 -9.11024e-09 2.53711e-10 -1.23804e-11 4.36795e-11)
(3.01441e-06 2.06259e-08 -8.22455e-09 3.42281e-10 -7.05469e-11 3.19489e-11)
(2.99363e-06 -2.80843e-09 -6.60616e-09 2.01394e-10 1.23831e-11 2.19864e-11)
(3.00598e-06 1.04696e-08 -5.46958e-09 2.8704e-10 -2.52709e-12 2.38736e-11)
(2.99353e-06 9.2431e-10 -4.30243e-09 2.59603e-10 -6.16342e-12 1.81337e-11)
(2.99463e-06 -8.98773e-10 -1.99017e-09 2.26073e-10 3.33856e-11 1.23313e-11)
(2.99655e-06 4.56107e-09 -4.86517e-10 2.72447e-10 -1.29723e-11 1.01929e-11)
(2.98449e-06 -8.59953e-09 8.35315e-10 1.77016e-10 -1.63923e-12 1.51168e-11)
(2.99975e-06 -2.32956e-09 1.12823e-09 2.91925e-10 -3.49875e-13 6.2955e-12)
(2.98933e-06 -6.99898e-09 1.1234e-09 2.45934e-10 -1.1318e-11 8.6425e-12)
(3.00838e-06 -1.278e-08 1.79601e-10 3.26236e-10 1.88428e-12 2.12353e-12)
(3.0056e-06 -3.20546e-09 -1.61297e-09 4.82403e-10 8.2189e-12 3.8416e-12)
(3.00921e-06 -1.74749e-08 -2.3933e-09 3.91293e-10 8.22518e-12 6.34733e-12)
(3.02768e-06 -1.62089e-09 -4.70127e-09 3.79463e-10 2.47277e-11 1.9065e-11)
(3.01739e-06 -8.64689e-09 -5.10665e-09 4.2074e-10 2.61133e-11 1.6736e-11)
(3.02769e-06 -1.53666e-09 -8.40645e-09 3.60619e-10 3.96043e-11 4.3608e-11)
(3.02027e-06 1.88071e-09 -5.70528e-09 3.82945e-10 4.98564e-11 2.47954e-11)
(3.01459e-06 -7.15748e-09 -8.18508e-09 3.17654e-10 2.34901e-11 4.28952e-11)
(3.02037e-06 2.8033e-09 -4.51288e-09 2.83452e-10 2.49774e-11 3.80792e-11)
(3.01208e-06 -8.54973e-09 -3.28622e-09 4.30492e-10 3.59607e-11 2.41536e-11)
(3.02042e-06 -1.45002e-09 -1.50367e-09 3.53388e-10 -5.99151e-11 3.94555e-11)
(3.01374e-06 -3.98964e-09 1.84487e-09 2.83485e-10 -1.89431e-11 1.31419e-11)
(3.00325e-06 -9.11521e-09 1.45072e-09 2.429e-10 -2.53756e-11 2.18871e-11)
(2.98621e-06 -6.80336e-09 6.51487e-09 5.2317e-10 -1.19361e-10 6.61322e-11)
(2.96318e-06 -1.11432e-08 6.96984e-09 5.89122e-10 -6.4886e-13 2.79132e-11)
(2.98593e-06 -8.13235e-09 8.11383e-09 7.26621e-10 -4.5551e-11 4.93548e-11)
(2.96103e-06 -2.57541e-10 6.15272e-09 6.59801e-10 -1.22299e-11 3.47865e-11)
(2.96819e-06 -2.62831e-08 6.2703e-09 8.76274e-10 -4.09059e-11 2.93208e-11)
(2.98432e-06 3.96501e-09 4.58638e-09 5.53588e-10 5.98952e-11 6.0416e-11)
(2.97016e-06 -3.04498e-08 1.97166e-09 1.01602e-09 -1.06934e-11 2.14479e-11)
(3.00673e-06 5.07208e-10 -2.80555e-10 9.53057e-10 3.24532e-12 5.87895e-11)
(2.9904e-06 -1.20433e-08 -4.63569e-09 8.13846e-10 1.13725e-10 3.68333e-11)
(3.00029e-06 -4.59251e-09 -4.87897e-09 8.68688e-10 -9.66961e-11 5.20439e-11)
(3.00917e-06 4.57032e-09 -8.84558e-09 8.81413e-10 5.06599e-11 7.11889e-11)
(3.0007e-06 1.93749e-09 -9.14189e-09 1.04482e-09 6.80258e-12 4.10987e-11)
(3.00453e-06 1.81415e-08 -9.54132e-09 8.62304e-10 -6.77838e-11 8.42003e-11)
(2.99424e-06 1.23788e-08 -1.15026e-08 8.65681e-10 2.05161e-11 6.99951e-11)
(2.97434e-06 1.69662e-08 -9.9114e-09 5.21633e-10 -7.05409e-11 6.27351e-11)
(2.98793e-06 7.85641e-09 -1.23134e-08 5.62095e-10 7.39528e-12 1.04708e-10)
(2.96724e-06 1.97043e-08 -1.04738e-08 7.77537e-10 -4.3913e-11 4.18548e-11)
(2.97571e-06 -7.24832e-10 -1.21574e-08 6.66055e-10 -2.36015e-11 8.80587e-11)
(2.9687e-06 2.4583e-08 -1.04761e-08 7.47668e-10 -1.12104e-10 6.03777e-11)
(2.94584e-06 -9.97519e-09 -8.53758e-09 5.23316e-10 4.17553e-11 4.04944e-11)
(2.9661e-06 1.39917e-08 -7.29065e-09 6.56742e-10 -6.20815e-13 5.16229e-11)
(2.94424e-06 -6.07142e-09 -5.51491e-09 6.13513e-10 3.00266e-11 3.6224e-11)
(2.95574e-06 1.92424e-10 -2.79467e-09 5.4276e-10 6.70681e-11 2.38937e-11)
(2.94827e-06 2.68899e-09 -5.54742e-10 6.01754e-10 -1.97574e-11 2.87991e-11)
(2.93886e-06 -1.33984e-08 1.63365e-09 4.49256e-10 5.58371e-12 3.56219e-11)
(2.95795e-06 -3.50563e-10 1.49915e-09 6.86324e-10 -4.5562e-13 1.89813e-11)
(2.94009e-06 -1.20012e-08 1.54278e-09 5.70341e-10 -1.17872e-11 2.53977e-11)
(2.96819e-06 -1.34e-08 -3.20693e-10 7.88694e-10 -1.57678e-12 5.98097e-12)
(2.9593e-06 -6.71569e-09 -2.40496e-09 1.0539e-09 2.07532e-11 1.0125e-11)
(2.96821e-06 -2.14378e-08 -3.48602e-09 8.30055e-10 2.6414e-11 1.41421e-11)
(2.99015e-06 -1.69582e-09 -7.01363e-09 9.66746e-10 6.19679e-11 4.42219e-11)
(2.97542e-06 -1.20396e-08 -7.47184e-09 1.04533e-09 4.89267e-11 3.68035e-11)
(2.99173e-06 1.53371e-09 -1.20112e-08 8.31991e-10 7.41737e-11 9.74994e-11)
(2.97358e-06 4.44797e-10 -7.71038e-09 9.03751e-10 1.09578e-10 5.1329e-11)
(2.97328e-06 -8.1423e-09 -1.15153e-08 6.89655e-10 3.2052e-11 9.12948e-11)
(2.9765e-06 3.65546e-09 -4.78401e-09 7.61267e-10 8.0262e-11 8.01701e-11)
(2.96709e-06 -1.30698e-08 -4.42699e-09 1.13478e-09 8.05218e-11 5.62013e-11)
(2.98124e-06 1.2931e-09 -1.50705e-09 9.13663e-10 -1.42323e-10 8.32725e-11)
(2.96504e-06 -7.56372e-09 2.89662e-09 7.81422e-10 -7.46405e-12 2.62886e-11)
(2.95972e-06 -1.05234e-08 2.38252e-09 6.309e-10 -5.36438e-11 5.92403e-11)
(2.94599e-06 -9.17061e-09 9.74157e-09 1.26437e-09 -2.70598e-10 1.41659e-10)
(2.92373e-06 -1.29542e-08 8.47146e-09 1.46945e-09 1.70708e-11 4.1302e-11)
(2.95203e-06 -4.75684e-09 1.11642e-08 1.70264e-09 -1.0614e-10 1.0832e-10)
(2.91031e-06 -5.80535e-10 7.48375e-09 1.51232e-09 -2.86689e-11 7.52142e-11)
(2.9318e-06 -2.93954e-08 8.35855e-09 1.73043e-09 -2.42499e-11 5.55089e-11)
(2.94033e-06 8.20494e-09 5.17809e-09 1.38718e-09 1.34157e-10 1.32954e-10)
(2.92996e-06 -4.04791e-08 1.88323e-09 2.34754e-09 3.5289e-11 4.86442e-11)
(2.97667e-06 9.51972e-09 -1.57767e-09 2.12102e-09 8.20723e-11 1.28957e-10)
(2.9475e-06 -2.15559e-08 -7.06647e-09 1.84324e-09 2.35206e-10 9.02594e-11)
(2.97095e-06 2.12923e-09 -6.96838e-09 1.6993e-09 -1.64869e-10 1.14234e-10)
(2.97236e-06 2.67431e-09 -1.25221e-08 1.95542e-09 1.2304e-10 1.52727e-10)
(2.97058e-06 4.42155e-09 -1.20387e-08 2.45552e-09 1.54144e-11 7.77725e-11)
(2.97048e-06 2.77309e-08 -1.3219e-08 2.10021e-09 -1.20842e-10 1.6849e-10)
(2.95374e-06 1.14534e-08 -1.44169e-08 1.89182e-09 1.07171e-10 1.36109e-10)
(2.93283e-06 2.50482e-08 -1.25243e-08 1.18465e-09 -1.28198e-10 1.21768e-10)
(2.94948e-06 5.30272e-09 -1.5629e-08 1.39151e-09 7.84208e-11 2.094e-10)
(2.92396e-06 2.40961e-08 -1.32824e-08 1.88222e-09 -3.7417e-11 7.39622e-11)
(2.93981e-06 -3.39275e-09 -1.61526e-08 1.65011e-09 -4.18024e-11 1.79272e-10)
(2.92407e-06 2.81828e-08 -1.3095e-08 1.60681e-09 -1.51852e-10 1.1602e-10)
(2.90232e-06 -1.84364e-08 -1.0965e-08 1.2683e-09 9.76892e-11 7.75178e-11)
(2.92927e-06 1.74615e-08 -9.464e-09 1.47272e-09 1.42044e-11 1.11202e-10)
(2.89847e-06 -1.5712e-08 -7.22038e-09 1.47237e-09 1.18162e-10 7.70379e-11)
(2.92262e-06 3.15923e-09 -4.12375e-09 1.22163e-09 1.20724e-10 5.18762e-11)
(2.90054e-06 -2.52414e-09 -4.28947e-10 1.29175e-09 -3.29026e-11 8.10289e-11)
(2.89986e-06 -1.72131e-08 2.99328e-09 1.02754e-09 6.13723e-12 8.99197e-11)
(2.91889e-06 1.80009e-09 2.008e-09 1.48387e-09 -3.0838e-12 5.94839e-11)
(2.89412e-06 -1.79743e-08 1.77164e-09 1.33528e-09 -1.19394e-11 7.68063e-11)
(2.93177e-06 -1.22743e-08 -1.39466e-09 1.84734e-09 -2.39009e-11 2.11136e-11)
(2.91513e-06 -1.33011e-08 -3.49166e-09 2.13187e-09 5.0217e-11 2.61657e-11)
(2.93271e-06 -2.36645e-08 -5.16715e-09 1.60276e-09 7.00955e-11 3.47192e-11)
(2.95597e-06 -4.27824e-09 -1.02472e-08 2.18681e-09 1.48414e-10 1.03591e-10)
(2.93945e-06 -1.38685e-08 -1.09778e-08 2.3588e-09 7.31573e-11 8.13364e-11)
(2.95924e-06 5.22919e-09 -1.70428e-08 1.84285e-09 1.22196e-10 2.06751e-10)
(2.92898e-06 -2.15865e-09 -1.04062e-08 1.89815e-09 2.07384e-10 1.06434e-10)
(2.93659e-06 -7.57367e-09 -1.58353e-08 1.31281e-09 2.49068e-11 1.86528e-10)
(2.93417e-06 2.22099e-09 -4.83616e-09 1.7688e-09 2.33063e-10 1.65476e-10)
(2.92757e-06 -1.72193e-08 -6.25664e-09 2.60112e-09 1.50126e-10 1.25874e-10)
(2.94548e-06 4.18925e-09 -1.45027e-09 2.15028e-09 -2.98852e-10 1.66417e-10)
(2.91824e-06 -1.34229e-08 3.96025e-09 1.92083e-09 6.29949e-11 6.1214e-11)
(2.92157e-06 -1.08159e-08 3.45654e-09 1.4807e-09 -1.14245e-10 1.52888e-10)
(2.90858e-06 -1.38968e-08 1.36987e-08 2.79207e-09 -5.63354e-10 2.98286e-10)
(2.89106e-06 -1.32502e-08 9.34359e-09 3.3236e-09 4.55129e-11 6.04297e-11)
(2.9212e-06 -1.05115e-09 1.4517e-08 3.77946e-09 -2.51542e-10 2.27253e-10)
(2.86142e-06 -1.36353e-09 8.25944e-09 3.31766e-09 -5.16741e-11 1.59286e-10)
(2.90051e-06 -3.10829e-08 1.05613e-08 3.39558e-09 6.67401e-11 1.04451e-10)
(2.89637e-06 1.11029e-08 5.05486e-09 3.12915e-09 2.53588e-10 2.90735e-10)
(2.89649e-06 -5.01466e-08 8.58214e-10 5.00239e-09 2.2575e-10 1.16556e-10)
(2.94867e-06 1.96034e-08 -4.22179e-09 4.65803e-09 2.76374e-10 2.79684e-10)
(2.90832e-06 -3.47524e-08 -1.0601e-08 4.0016e-09 4.70577e-10 2.29105e-10)
(2.94751e-06 1.37481e-08 -9.68746e-09 3.16968e-09 -2.19424e-10 2.51894e-10)
(2.93666e-06 -4.39009e-09 -1.7216e-08 3.85326e-09 2.63925e-10 3.39731e-10)
(2.94979e-06 1.16485e-08 -1.5898e-08 5.22421e-09 1.11801e-11 1.63779e-10)
(2.93701e-06 3.72613e-08 -1.85342e-08 4.70205e-09 -2.07285e-10 3.35057e-10)
(2.91695e-06 1.03636e-08 -1.75435e-08 3.93327e-09 3.15451e-10 2.63219e-10)
(2.89362e-06 3.66778e-08 -1.57524e-08 2.55674e-09 -2.02183e-10 2.37763e-10)
(2.91235e-06 -9.46704e-10 -1.92388e-08 3.14593e-09 3.11327e-10 4.07431e-10)
(2.88517e-06 3.18074e-08 -1.69885e-08 4.28777e-09 1.48654e-12 1.46503e-10)
(2.90642e-06 -8.47521e-09 -2.12922e-08 3.83377e-09 -3.88037e-11 3.67829e-10)
(2.88119e-06 3.2199e-08 -1.60347e-08 3.39724e-09 -1.53179e-10 2.24858e-10)
(2.8628e-06 -2.85577e-08 -1.3737e-08 2.84575e-09 2.08026e-10 1.53394e-10)
(2.89528e-06 2.02518e-08 -1.19446e-08 3.15152e-09 6.62974e-11 2.3503e-10)
(2.85744e-06 -2.72432e-08 -9.6823e-09 3.3857e-09 2.91e-10 1.72802e-10)
(2.89421e-06 7.08237e-09 -6.1863e-09 2.72278e-09 2.13595e-10 1.2768e-10)
(2.85398e-06 -1.15493e-08 2.0899e-10 2.83098e-09 -5.89718e-11 2.22875e-10)
(2.86852e-06 -1.90648e-08 5.38463e-09 2.16555e-09 -9.47045e-12 2.37818e-10)
(2.88179e-06 3.22849e-09 2.89671e-09 2.95013e-09 -9.56015e-12 1.86147e-10)
(2.85252e-06 -2.34877e-08 1.4963e-09 3.0476e-09 -2.52619e-11 2.34133e-10)
(2.89771e-06 -9.9552e-09 -3.25112e-09 4.20272e-09 -1.00072e-10 8.01232e-11)
(2.87379e-06 -2.32455e-08 -4.90003e-09 4.16733e-09 1.0889e-10 6.98416e-11)
(2.90218e-06 -2.33959e-08 -7.43562e-09 2.93623e-09 1.65694e-10 9.50709e-11)
(2.92532e-06 -1.08621e-08 -1.44332e-08 4.43846e-09 3.37446e-10 2.50468e-10)
(2.91066e-06 -1.18612e-08 -1.59993e-08 4.8358e-09 6.24274e-11 1.86014e-10)
(2.92864e-06 7.73128e-09 -2.39359e-08 3.88135e-09 1.67166e-10 4.19833e-10)
(2.88769e-06 -4.45834e-09 -1.39684e-08 3.63683e-09 3.16824e-10 2.24155e-10)
(2.90322e-06 -5.938e-09 -2.10443e-08 2.33692e-09 -1.69891e-11 3.6167e-10)
(2.8936e-06 -2.12849e-09 -4.62605e-09 3.6343e-09 5.79972e-10 3.28117e-10)
(2.89423e-06 -1.95592e-08 -8.88816e-09 5.24378e-09 2.22683e-10 2.72587e-10)
(2.91175e-06 5.39349e-09 -1.65335e-09 4.62633e-09 -5.47136e-10 3.24525e-10)
(2.87463e-06 -2.04876e-08 4.75029e-09 4.30882e-09 2.88183e-10 1.51894e-10)
(2.88825e-06 -1.04003e-08 4.88156e-09 3.20221e-09 -2.30928e-10 3.72606e-10)
(2.87488e-06 -2.03008e-08 1.80736e-08 5.67026e-09 -1.05764e-09 6.5066e-10)
(2.86533e-06 -1.23175e-08 9.07273e-09 6.82767e-09 5.81662e-11 1.25031e-10)
(2.8928e-06 1.87289e-09 1.74288e-08 7.77969e-09 -5.40974e-10 4.71758e-10)
(2.81584e-06 -1.69417e-09 7.87682e-09 7.09003e-09 -2.9686e-11 3.41442e-10)
(2.87368e-06 -3.20692e-08 1.26442e-08 6.74729e-09 3.49677e-10 2.08999e-10)
(2.85329e-06 1.29492e-08 3.46227e-09 6.49462e-09 4.67738e-10 6.44278e-10)
(2.87012e-06 -5.92122e-08 -1.77202e-09 9.90061e-09 7.76964e-10 3.06586e-10)
(2.92172e-06 2.86425e-08 -9.10422e-09 9.83144e-09 6.86171e-10 6.11838e-10)
(2.87532e-06 -4.98389e-08 -1.52315e-08 8.52077e-09 9.45153e-10 5.86682e-10)
(2.92859e-06 2.94999e-08 -1.26655e-08 5.99718e-09 -1.45897e-10 5.68293e-10)
(2.90318e-06 -1.67362e-08 -2.27794e-08 7.06126e-09 5.19745e-10 7.95146e-10)
(2.93924e-06 2.49579e-08 -2.11048e-08 1.01977e-08 -3.84737e-11 4.17234e-10)
(2.90296e-06 4.4367e-08 -2.6004e-08 9.7258e-09 -3.35062e-10 6.89573e-10)
(2.88605e-06 1.16255e-08 -2.0717e-08 7.89149e-09 7.3839e-10 5.24857e-10)
(2.85501e-06 5.03075e-08 -1.94803e-08 5.28421e-09 -2.22235e-10 4.69929e-10)
(2.87753e-06 -1.02561e-08 -2.27561e-08 6.5294e-09 9.24135e-10 7.84657e-10)
(2.85128e-06 4.32116e-08 -2.20465e-08 8.97144e-09 1.23303e-10 3.52862e-10)
(2.87478e-06 -1.74502e-08 -2.80934e-08 8.33532e-09 8.56858e-11 7.80493e-10)
(2.84145e-06 3.82373e-08 -1.92931e-08 7.06596e-09 -3.21338e-11 4.45378e-10)
(2.82674e-06 -4.14885e-08 -1.63459e-08 5.9963e-09 4.38499e-10 3.18316e-10)
(2.86476e-06 2.28128e-08 -1.44623e-08 6.37449e-09 2.09707e-10 4.93229e-10)
(2.82161e-06 -4.05297e-08 -1.33453e-08 7.2537e-09 6.1255e-10 4.13316e-10)
(2.86943e-06 1.04099e-08 -8.97346e-09 5.99862e-09 4.20917e-10 3.48127e-10)
(2.8101e-06 -2.38742e-08 1.7921e-09 6.38732e-09 -7.69691e-11 6.0446e-10)
(2.84534e-06 -1.87897e-08 9.7357e-09 4.46944e-09 2.01514e-12 6.49865e-10)
(2.84662e-06 3.74641e-09 4.62262e-09 5.48956e-09 2.1618e-11 5.80893e-10)
(2.81622e-06 -2.73806e-08 2.93499e-10 6.56608e-09 -5.59343e-11 7.20433e-10)
(2.86478e-06 -8.06025e-09 -6.09881e-09 9.15671e-09 -2.73408e-10 3.02523e-10)
(2.8368e-06 -3.60198e-08 -6.70161e-09 8.11603e-09 2.26425e-10 2.03565e-10)
(2.8761e-06 -2.12154e-08 -9.92434e-09 5.35751e-09 3.78041e-10 2.74733e-10)