/*--------------------------------*- C++ -*----------------------------------*\
  =========                 |
  \\      /  F ield         | OpenFOAM: The Open Source CFD Toolbox
   \\    /   O peration     | Website:  https://openfoam.org
    \\  /    A nd           | Version:  10
     \\/     M anipulation  |
\*---------------------------------------------------------------------------*/
FoamFile
{
    format      ascii;
    class       volScalarField;
    location    "7";
    object      p;
}
// * * * * * * * * * * * * * * * * * * * * * * * * * * * * * * * * * * * * * //

dimensions      [0 2 -2 0 0 0 0];

internalField   nonuniform List<scalar> 
25600
(
0.000439706
0.000549825
-0.000405684
0.000506445
0.00185043
0.000539769
-0.000353884
-0.000462366
-0.00261669
-0.00208662
-0.000339473
0.000868853
0.000850809
-0.000191683
-0.000539252
0.00130506
0.00100747
-0.000400364
0.00095954
0.000768508
0.000310854
0.0019766
0.00202186
0.00147447
0.00158732
0.00136071
0.00111814
0.00141349
0.000820821
-0.000346789
-0.000326326
0.000218261
-9.16161e-05
-0.000372586
0.000118751
0.00016716
-0.000101259
-8.2939e-05
-0.000161058
1.19354e-05
0.000316168
-0.000100213
-0.000434962
0.00147143
0.00236344
0.000924143
0.000304715
-8.45452e-06
-0.00144182
-0.00129675
-0.00047459
-0.000332586
-0.00136389
-0.00210475
-0.00100397
0.000779528
0.000266493
-0.000434375
0.000176086
0.000155558
0.0002922
0.00148229
0.00186771
0.00221782
0.00159293
0.000998831
0.00121957
0.000807126
0.000409136
-0.000105771
0.000345047
0.000355123
-0.000302164
0.000457727
0.000559774
0.000443877
0.000431769
-6.99531e-05
-0.000163377
0.000284092
-0.000162298
-0.000163036
-2.68186e-05
0.00194844
0.00268027
0.00318588
0.00327718
0.00134026
-0.0018806
-0.00318333
-0.00191408
-0.00131021
-0.00115234
5.30294e-05
0.00172429
0.00205754
0.000188211
0.00133124
0.000140412
0.000550923
0.00222794
0.00328135
0.00231732
0.00283945
0.000634549
0.000908166
0.000719051
3.94527e-05
3.00893e-05
-0.000759153
2.70844e-05
0.000353468
-0.00122358
-0.0014227
-0.00020556
-3.14691e-05
-7.46225e-05
-0.000508017
-0.00070175
-0.000882622
0.00171826
0.000800877
0.000471214
0.00256288
0.00227332
-8.27938e-05
0.00055958
-0.000756797
-0.00438516
-0.00435821
-0.00163678
-0.00076495
-0.00051155
-0.00040239
0.000372168
-0.000204917
-0.000226147
0.00161731
0.0008731
0.000982087
0.0017374
4.02552e-05
0.00160544
0.00279678
0.0010436
0.00167088
0.000422168
-0.000650876
0.000185982
0.000104236
0.000981468
0.00109173
-0.00134153
-0.00153358
-0.000833961
-0.000762619
-0.000196631
-0.000202006
-0.000751997
0.000129723
0.00280148
0.00126643
0.000138316
0.000917451
0.00250002
0.00191413
0.00148383
-0.00317035
-0.00801293
-0.00570983
-0.00136102
-0.000802043
-0.00116807
-0.00082039
0.00011566
-0.00218447
-0.00305881
-0.000320693
-0.00023614
0.00102054
0.00114901
-0.000945848
0.00138773
0.00304507
0.000938118
0.00213907
0.00106625
0.000668352
0.00167084
0.000790142
0.00244815
0.00143215
-0.00194907
-0.00154974
-0.000271007
-0.0011831
-0.000868209
-0.00070547
-0.00147376
4.04786e-05
0.00314848
0.00151181
0.00120347
0.000995287
-0.00163117
-0.00296572
-0.000422941
-0.00253032
-0.00559762
-0.00299936
-0.000259557
-0.000909346
-0.00222659
-0.00111093
0.000795963
-0.00251026
-0.00385703
-0.00124794
2.95646e-05
0.00176088
-0.00068808
-0.00236452
0.00305948
0.00305891
0.000772356
0.00165795
0.000545743
0.00139964
0.00212641
4.90035e-05
0.00113816
0.00021317
-0.00280125
-0.000671799
0.000776987
-0.00177473
-0.00209959
-0.00157719
-0.00226448
3.14481e-05
0.0023001
0.00306398
0.00301487
0.00126219
-0.00593844
-0.00383306
-0.000659508
-0.00457362
-0.00761022
-0.00413349
-0.00262782
-0.00331541
-0.00418697
-0.0018648
0.000778647
-0.000274819
0.00104101
0.000358361
-0.000775305
0.00146521
0.00167807
0.00102644
0.00405896
0.000929847
-0.00051467
0.00165609
0.000632552
0.00111599
0.00121628
0.000717623
0.00297933
0.000601901
-0.00285311
-0.000407995
0.000204203
-0.00255258
-0.00187413
-0.00224849
-0.00506366
-0.00211065
0.000263515
0.00270897
0.0039345
0.00311553
-0.00210535
-0.00164907
-0.00124026
-0.00641418
-0.00747489
-0.0032185
-0.00104616
0.000673553
-0.000586972
-0.00033761
0.000776908
-0.000288958
0.00227075
0.00171804
8.22166e-05
-0.000320808
-0.00314611
-0.00112947
0.00256853
0.000406503
0.00162269
0.00245069
3.17174e-05
0.00145535
0.00161733
0.00134127
0.00177681
-0.00285764
-0.00536366
-0.00180514
-0.00161399
-0.00318823
-4.39128e-05
-0.00215006
-0.0124314
-0.00668159
-0.00264635
-0.00112674
0.00539053
0.00503446
-0.00289175
-0.00264628
0.000288211
-0.00388195
-0.00563619
-0.00408662
-0.00299987
-0.000489072
-0.000561677
0.000917808
0.00124286
-0.000688236
0.000102206
0.000414505
0.000114712
-0.000933389
-0.00509506
-0.0034661
0.000532785
-0.00162968
0.000484372
0.001975
-0.000170775
0.00180599
0.000607252
-0.000361325
0.00160448
-0.00222053
-0.0030852
-0.000751672
-0.00204862
-0.00374626
0.000229234
0.000240712
-0.00209679
-0.00325496
-0.00692648
-0.00518889
0.00296002
0.0052073
-0.00305506
-0.00261453
0.000258024
-0.00334628
-0.00397915
-0.00256648
0.000204393
0.00113431
0.000901199
0.00106247
-0.00079217
-0.00316516
-0.00243165
-0.00228638
-0.000105946
0.00107388
7.46539e-05
0.00196152
0.00229426
-0.000692701
-0.000433761
-0.00285385
-0.00328689
0.00209292
0.00274965
0.00318958
0.00308008
-0.00269923
-0.00622983
-0.00474328
-0.00494229
-0.00408157
0.00180833
-0.000535891
-0.00805112
-0.00846597
-0.00222571
-0.000435675
0.00275073
0.00448154
-0.00119906
-0.00252504
-0.000541965
-0.0026497
-0.00430338
-0.00394142
-0.0041888
-0.00488805
-0.00328798
-0.00323033
-0.00223287
-0.000616187
-0.00053507
-0.00299558
-0.00243055
-0.00164416
-0.000796318
0.00212161
0.000101462
-0.00139058
0.0021033
-0.00243904
-0.00422309
0.00109461
0.000967583
0.00168161
0.00117448
-0.00599672
-0.00942775
-0.00713074
-0.00586669
-0.00400292
-0.0013244
-0.00264062
-0.00927071
-0.00802635
-0.000755017
-0.000886566
0.00264441
0.00449964
-0.00366324
-0.00477586
-0.00133882
-0.00269086
-0.00101851
-0.00137874
-0.00229547
-0.00292935
-0.00517034
-0.00856931
-0.00854516
-0.00519126
-0.00376351
-0.00530158
-0.00339492
-0.0015449
0.00267866
0.00285716
-0.00319501
-0.00211899
0.00244458
-0.0020901
-0.000924883
0.00329081
0.00228677
0.00196013
-0.000866709
-0.00887421
-0.0102679
-0.00403536
-0.00411804
-0.00549278
2.39338e-05
0.00233754
-0.00546249
-0.00626394
-0.00121018
-0.00263958
0.00128739
0.00517103
-0.00427948
-0.0055078
-0.000594442
-0.0043612
-0.00467542
-0.00268072
0.000246668
0.00201755
-0.00277963
-0.00583971
-0.0111044
-0.00856172
-0.00136008
-0.00484075
-0.00375715
-0.000756755
0.000187869
0.00317892
-0.00350941
-0.00627988
-0.000377125
-0.000591338
-0.00346511
0.00221328
0.000935498
0.00279984
0.00318791
-0.00573529
-0.00905744
-0.00528816
-0.00510572
-0.00711819
-0.00115585
0.000890179
-0.00564711
-0.00697261
-0.00369697
-0.00126384
0.00162283
0.00478351
-0.00218713
-0.00289856
-0.000193108
-0.00420124
-0.00771832
-0.00555987
-0.000389859
-0.000727534
-0.00512108
-0.00227543
-0.00604884
-0.0118521
-0.00562683
-0.00485966
-0.00418621
-0.000174298
0.00149992
0.00160307
-0.00276688
-0.00848738
0.000413844
-0.00280738
-0.00764429
0.000833899
-0.000531928
0.00129716
-0.0012264
-0.0126625
-0.0165047
-0.0151119
-0.0186718
-0.0127312
-0.00602429
-0.00162561
-0.00723873
-0.0118066
-0.00322188
-0.0021424
0.00425044
0.00140325
-0.00500858
-0.00426543
-0.000863139
-0.007278
-0.00980495
-0.00752542
0.000379282
0.00285017
-0.00759144
-0.006201
-0.00653765
-0.0101411
-0.00231399
-0.00403101
-0.00801049
-0.00300083
0.00360779
-0.000436825
-0.00709955
-0.012706
-0.008738
-0.0122245
-0.0105651
-0.00716523
-0.00422778
-0.00686419
0.00128225
-0.00779666
-0.017505
-0.0181377
-0.0174971
-0.0171578
-0.00557775
0.00162912
-0.0109897
-0.0183384
0.00106268
-0.00152556
0.000584491
-0.00094359
-0.00869333
-0.00375111
0.00114673
-0.0120944
-0.0115555
-0.00918536
0.000138613
0.00664508
-0.00748966
-0.0129384
-0.00897131
-0.00474829
-0.00224916
-0.00659531
-0.0114808
-0.0022635
0.00487066
-0.00166575
-0.0138092
-0.0128515
-0.0097082
-0.014795
-0.00840052
-0.001819
0.00114611
0.00181901
0.00226474
-0.00760553
-0.0155555
-0.0156079
-0.0251919
-0.0218686
-0.0037827
-0.00106957
-0.0205413
-0.0254038
-0.00381451
-0.00681926
-0.00122261
0.00335817
-0.0148991
-0.00385632
0.00173124
-0.0111937
-0.0146729
-0.0135268
-0.00114176
0.00260652
-0.00549253
-0.0177934
-0.014485
-0.00996362
-0.00239387
-0.0103432
-0.0160686
-0.00667599
0.00363541
-0.0020267
-0.0195122
-0.0278048
-0.0127865
-0.0161303
-0.0106914
-0.00390495
-0.000920768
0.0051539
0.00213652
-0.0097774
-0.0167357
-0.0159302
-0.0254323
-0.0217034
-0.00268522
-0.000505271
-0.0243602
-0.0280116
-0.00725782
-0.0142754
-0.0014107
0.00470494
-0.0148436
-0.00698329
0.00161685
-0.0093213
-0.0127445
-0.00952392
0.0050992
0.000203678
-0.00412483
-0.0176874
-0.0189902
-0.0115466
0.00200654
-0.00868057
-0.0195204
-0.00590884
-0.000835756
-0.00248485
-0.0193506
-0.0216799
-0.013272
-0.0182626
-0.0136362
-0.00488429
-0.00060456
0.0115879
0.00494815
-0.00847637
-0.0162151
-0.0173866
-0.0218734
-0.0196697
-0.00082042
-0.00329459
-0.0303743
-0.0263718
-0.00672958
-0.0132427
3.96068e-05
0.00315095
-0.0115629
-0.0107022
0.00114674
-0.00984656
-0.0109372
-0.00545372
0.00683287
0.00254607
-0.00623579
-0.0167174
-0.0221589
-0.0110954
0.00293534
-0.00640197
-0.0234947
-0.00308025
-0.0021712
-0.00106902
-0.0184284
-0.0199347
-0.0157616
-0.0200552
-0.0148743
0.00332574
0.000320362
0.00780291
0.00379013
-0.00986745
-0.0163368
-0.0174029
-0.0209545
-0.0211132
-0.000794566
-0.00715062
-0.0368678
-0.0293935
0.000303394
-0.00733043
0.00434816
0.00635093
-0.00970904
-0.0106761
-0.00331282
-0.0132496
-0.0131551
-0.00282287
0.00704282
-0.000779978
-0.0112821
-0.0140264
-0.0231246
-0.0176252
-0.00194489
-0.00593287
-0.0250652
-0.00991141
-0.0038504
0.00517199
-0.0147559
-0.0194385
-0.0199485
-0.022593
-0.0165978
-0.00364168
0.00138486
0.00249335
0.00285965
-0.00930238
-0.014794
-0.0176421
-0.0204228
-0.0222131
-0.00140424
-0.00661275
-0.0378908
-0.0335001
0.00686923
-0.00503255
0.00808079
0.00412815
-0.0157238
-0.0106041
-0.00694677
-0.0201587
-0.0172441
-0.00282965
0.00897872
-0.00205492
-0.0123682
-0.00558085
-0.0239054
-0.0212344
-0.00419605
-0.00630818
-0.0227829
-0.0193636
-0.00389212
0.0124026
-0.0110976
-0.0196915
-0.0218923
-0.0338042
-0.0236028
-0.00568028
0.00706138
0.0027638
-0.000343925
-0.00703532
-0.00916661
-0.0153166
-0.0238942
-0.0169092
-0.00371344
-0.00681384
-0.0379163
-0.020862
0.0116101
-0.00627115
0.00800271
0.00854222
-0.0132307
-0.00561387
-0.00716507
-0.0224948
-0.0158468
-0.00217985
0.00370442
-0.00442746
-0.00973546
-0.00063156
-0.0248527
-0.0193569
-0.00712207
-0.00569371
-0.0133053
-0.0186184
0.00114158
0.0154167
-0.0131902
-0.0209779
-0.0219625
-0.0307467
-0.0150341
-1.60596e-05
0.00916552
0.00957912
0.000549412
-0.0131325
-0.0103899
-0.0132485
-0.0270496
-0.0152193
-0.00854612
-0.00828455
-0.0381904
-0.0108616
0.0140027
-0.00966829
0.00579147
0.00439879
-0.0116535
-0.00406758
-0.0120433
-0.0176489
-0.0141502
-0.00410035
0.00555259
-0.0057031
-0.00901674
-0.00310827
-0.0261951
-0.0200702
-0.00793406
-0.00671236
-0.00643375
-0.0144915
0.00562292
0.0154518
-0.0173203
-0.0233154
-0.0186881
-0.02342
-0.0112735
-0.00112575
0.00818119
0.0128865
0.00243469
-0.013402
-0.0150141
-0.0213908
-0.0304619
-0.0135635
-0.00850029
-0.00899605
-0.0387171
-0.00545344
0.0121046
-0.0076502
0.00648109
0.00451686
-0.0120085
-0.00565436
-0.0163521
-0.0241788
-0.0168637
-0.00511682
0.0100613
-0.00739124
-0.00941899
-0.00647078
-0.0268955
-0.023118
-0.00610517
-0.00679894
-0.00473332
-0.0115279
0.00826349
0.0168084
-0.0176271
-0.029566
-0.0181434
-0.020652
-0.0106316
-0.00424053
0.00786192
0.0154147
0.00280275
-0.0119876
-0.0139577
-0.0235172
-0.0318967
-0.0140061
-0.00709599
-0.00996383
-0.0376938
-0.00205931
0.0116776
-0.00106238
0.00846409
0.00609309
-0.0122498
-0.00353908
-0.0166523
-0.0349445
-0.018779
-0.00409667
0.00878344
-0.00623154
-0.0096484
-0.0107353
-0.0268825
-0.0259063
-0.00720647
-0.00717012
-0.00444014
-0.0138483
0.00929952
0.0190888
-0.0159208
-0.0341164
-0.0241912
-0.0258419
-0.0123858
-0.0045575
0.00935899
0.0224622
0.00413081
-0.00981257
-0.0110954
-0.0235231
-0.0334375
-0.0139631
-0.00618543
-0.0126007
-0.0364098
-0.000467781
0.0120306
-0.00330857
0.0118379
0.00991265
-0.0120704
-0.00148211
-0.0165658
-0.0291455
-0.0199014
-0.00213245
0.00991231
0.00235297
-0.00568365
-0.0020823
-0.0253564
-0.0236529
-0.00822625
-0.00544534
-0.00561168
-0.016776
0.0130128
0.0225046
-0.0132497
-0.0326093
-0.0266228
-0.0208808
-0.0110701
-0.00186885
0.0115743
0.0232791
0.00529741
-0.00683924
-0.00635693
-0.0263096
-0.0344581
-0.0109271
-0.00463725
-0.0117075
-0.0336176
0.000787435
0.00100114
-0.00768451
0.0165306
0.0102911
-0.013681
-0.00223713
-0.0167151
-0.0416228
-0.02393
-0.00279172
0.00552549
-0.0066707
-0.00970323
-0.00636819
-0.0234985
-0.0217833
-0.0100643
-0.0129488
-0.00732375
-0.0154052
0.016857
0.0289107
-0.0106094
-0.0309369
-0.0258008
-0.0191394
-0.00992681
-0.000273595
0.0146199
0.0188689
0.00584953
-0.00926228
-0.00787357
-0.0303111
-0.0355803
-0.0104385
-0.00239383
-0.00931695
-0.0293015
-0.00125957
0.00169395
-0.00699996
0.0216947
0.0136987
-0.00749815
-0.00390229
-0.0156326
-0.0363795
-0.0251077
0.000403132
0.00870196
-0.00445815
-0.00891552
-0.00952726
-0.0208956
-0.0154401
-0.00281053
-0.00912147
-0.00717521
-0.0116276
0.0182031
0.0366429
-0.00945003
-0.029799
-0.0222671
-0.018659
-0.00999663
0.000304051
0.0180529
0.0241097
0.0100884
-0.0113693
-0.00876879
-0.0271734
-0.0348951
-0.00767872
-0.00186975
-0.00893799
-0.0251354
0.000711406
0.00260747
-0.00442917
0.0214287
0.0118168
-0.0154434
-0.00681775
-0.0139836
-0.0430014
-0.026101
-0.00409695
0.00485988
-0.00898823
-0.0114214
-0.0177426
-0.0309816
-0.0243395
-0.0085393
-0.0152605
-0.00622302
-0.00657794
0.0201662
0.0317978
-0.0112829
-0.0343824
-0.0268514
-0.020472
-0.0111467
-0.00112137
0.0157099
0.0220992
0.00500021
-0.0154376
-0.0142185
-0.0316738
-0.0346023
-0.0146194
-0.00676663
-0.0137612
-0.0266653
-0.00371312
0.00596379
-0.000192381
0.0283032
0.019065
-0.00774692
0.00131536
-0.00561616
-0.034992
-0.0226715
0.00476947
0.0115702
-0.00132939
-0.00520653
-0.0084556
-0.0226984
-0.0172469
-0.00439349
-0.010734
-0.00167908
-0.00233654
0.0269931
0.0368064
-0.00217707
-0.0274901
-0.0200219
-0.0174775
-0.0072385
0.00229294
0.0178107
0.0308097
0.0125925
-0.00758838
-0.00581247
-0.0247205
-0.0295014
-0.00668995
0.000345018
-0.00738128
-0.0187683
0.00381792
-0.00318375
-0.00871654
0.0199177
0.0103036
-0.0162353
-0.00815077
-0.0119494
-0.0447243
-0.0273338
-0.00592998
0.0028024
-0.0115217
-0.0143248
-0.0199297
-0.0334063
-0.0246393
-0.0139529
-0.0160505
-0.00308288
-0.00599328
0.0181684
0.0296842
-0.0125063
-0.0364813
-0.0256448
-0.0250443
-0.0148997
-0.00213075
0.0141275
0.0204356
0.0033064
-0.0167871
-0.017169
-0.0334718
-0.0356698
-0.0144266
-0.00719589
-0.0161238
-0.0264876
-0.00464187
0.0100248
0.00504552
0.0323816
0.0236247
-0.00222075
0.00503151
-0.000237905
-0.0304979
-0.0153505
0.00774213
0.0166033
0.00281399
-0.000626305
-0.00564428
-0.0187889
-0.011357
-0.000312108
-0.00502902
0.00587537
0.00565863
0.0300207
0.0404959
0.00145523
-0.0226564
-0.0142908
-0.0110982
-0.00232558
0.00927989
0.0254396
0.0332828
0.0164258
-0.00283591
-0.00230096
-0.0199535
-0.0232003
-0.00159824
0.00602794
-0.00272045
-0.0136093
0.00869654
-0.000128403
5.06166e-06
-0.000938491
-0.000715031
0.00164099
0.000194992
-0.00100362
-0.000732713
-0.00189275
-0.0017386
-0.000244801
0.000752988
0.000708675
-0.000366878
-0.000742655
0.00110683
0.000497077
-0.000810222
0.000765033
0.000340037
-9.95e-05
0.000874486
0.00171371
0.00155447
0.00135523
0.00087842
0.000808718
0.00121623
0.000791319
3.61419e-05
-0.000211855
0.000175241
-0.000139482
-0.000600436
8.8177e-05
0.000474911
0.000210378
8.73971e-05
-0.000285032
-0.000391949
-0.000843425
-0.000565559
-0.000446732
0.000845045
0.00119876
-0.000493339
-0.000377128
-1.9912e-05
-0.00118912
-0.00151672
-0.000704359
-0.000460816
-0.00100736
-0.00137472
-0.000716691
0.00102245
0.000344407
-0.00108252
-0.00028376
-0.000129919
3.24024e-05
0.000853507
0.00129409
0.00149371
0.000795664
0.000406862
0.000306922
0.000705734
0.000417911
6.02697e-05
0.000276983
9.52641e-05
-0.000493151
-0.00029357
-4.21225e-05
7.76072e-05
9.71824e-05
-0.000502855
-0.000975929
-0.00105618
-0.00128602
-0.000896417
-0.000122719
0.00225148
0.00239738
0.00315887
0.0029933
0.00187439
-0.00105782
-0.00223646
-0.00126067
-0.000820614
-0.000704245
0.000560414
0.000946163
0.00122001
-0.000821506
-0.00359631
-0.00215776
-0.000899318
0.000937408
-0.000489467
0.00155183
0.00232065
0.0016287
0.00129973
0.000595979
-0.000581536
-0.000373671
-0.000701316
0.00035516
0.000288662
-0.00128477
-0.00107734
-2.88109e-05
0.000105477
-0.000621213
-0.000940692
-0.00127059
-0.00266031
0.000578836
0.000178204
0.000405326
0.0021897
0.000743673
-0.00178424
0.00155115
0.00106836
-0.00199733
-0.00205822
-0.000497501
-0.000511672
-0.00129124
-0.00141651
-0.000356822
-0.000417676
-0.000799521
0.000216598
0.000663798
0.000823394
0.00108244
-0.000737258
0.00124551
0.00228719
0.00100504
0.00146943
-0.000160731
-0.00186171
-0.00156589
-0.00298728
-0.000800992
4.64954e-05
-0.00178454
-0.00170773
-0.000360029
-0.000135201
-0.000191811
6.11537e-05
-0.00151488
-0.00104403
0.00124514
0.000635044
-0.000159992
-0.000131036
0.000281231
0.00193997
0.00242352
-0.0013787
-0.00530039
-0.00449347
-0.00292643
-0.00374603
-0.00314942
-0.00207268
-0.00130664
-0.00415124
-0.00510198
-0.00263812
-0.00171067
-0.000667127
-0.000402996
-0.00185774
0.00103436
0.00123764
0.000735134
0.00164537
0.000246718
0.000130363
-0.000344452
-0.00281847
-0.00252049
-0.00200986
-0.00342435
-0.00214244
2.27151e-05
-0.00138421
-0.00224112
-0.00288801
-0.00276636
-0.00180149
0.00208754
0.000397405
0.000385903
0.000559953
-0.0016
-0.00190604
-0.0001784
-0.00275689
-0.00488683
-0.00418997
-0.003041
-0.00275413
-0.00157537
-0.00103475
-0.00107525
-0.00454347
-0.00385833
-0.000659484
2.6824e-05
0.000582055
-0.00206989
-0.00326768
0.00127925
0.00125204
0.000518051
0.00117289
-5.35755e-05
0.000202571
-0.000724678
-0.00225382
0.000381349
0.000108995
-0.00344738
-0.00231718
-0.000390485
-0.00155615
-0.00231555
-0.00133838
-0.00373144
-0.00296941
0.000166039
-0.00275985
-9.46986e-05
-0.000266358
-0.0039009
-0.00188755
-0.000267998
-0.00429189
-0.00581457
-0.00334826
-0.00351904
-0.00276852
-0.000139978
-0.000198879
0.000121857
0.000412155
0.000653628
0.000740651
-0.00106684
0.000553105
-0.000557864
0.000312944
0.00344676
0.000427589
-0.000841799
0.000145848
-0.000431001
0.000520607
0.00103309
0.000523377
0.00238788
-0.000477055
-0.00371242
-0.00180156
-1.46394e-05
-0.00154672
-0.000746427
-0.00225968
-0.00983288
-0.00524906
0.00161775
0.000734372
0.00297379
0.00368516
0.000290188
-0.00138481
-0.000683441
-0.00452314
-0.00608679
-0.00377791
-0.00219811
0.00123786
0.000117573
-0.00254724
-0.00307285
-0.00383393
-0.000720614
4.69665e-05
-0.00210593
-0.00289459
-0.00460237
-0.00166356
0.00155586
-0.00192661
-0.00157098
-0.000794842
-0.00155781
-7.96987e-05
0.000685734
0.000940947
0.000994674
-0.00277695
-0.00424707
2.75623e-05
-0.00103782
-0.00500879
-0.00159905
-0.00121051
-0.00723135
-0.00259251
-0.00524133
-0.00520808
0.00132218
0.00179491
-0.0042311
-0.00347652
-0.000472966
-0.00325924
-0.005351
-0.00588121
-0.00462542
-0.00155864
-0.0023237
-0.00442194
-0.0039007
-0.00405088
-0.00177108
-0.00134588
-0.00216321
-0.00297889
-0.00444797
0.00020607
0.00219437
-0.0025478
-0.00182305
-0.00225707
-0.00207131
0.000116179
0.00120439
0.0016975
0.000668178
-0.00400121
-0.00528109
-0.00338885
-0.00745098
-0.00921585
-0.00655059
-0.0102331
-0.0148907
-0.00692792
-0.0105083
-0.00886133
3.40175e-05
0.000607085
-0.00331967
-0.00397175
-0.000540649
-0.0031429
-0.00477755
-0.00554032
-0.00373267
-0.00132182
-0.00179289
-0.00493603
-0.00533045
-0.00340079
-2.21112e-05
0.000156469
-0.00149828
-0.00301638
-0.00266002
0.00165298
0.000222609
-0.00322104
-0.000876031
-0.000888419
-0.0019309
0.00233064
0.00335513
0.00325108
-0.000125421
-0.00621051
-0.00646324
-0.00397586
-0.00744935
-0.00798023
-0.000698299
-0.00457577
-0.0156425
-0.0127959
-0.00101692
-0.000909285
0.00260983
0.00390224
-0.00424893
-0.0068705
-0.000775973
-0.00135736
-0.00431589
-0.00486663
-0.00383454
-0.00035793
-0.00118661
-0.00636688
-0.00611368
-0.00198139
-0.000639553
-0.00319038
-0.00296158
-0.0024835
-0.00280503
0.000392952
-0.00111462
-0.00497766
-0.00438216
-0.00540333
-0.00288173
0.00447062
0.00555906
0.00421641
-0.000778011
-0.00910306
-0.00837873
-0.00183539
-0.00429585
-0.0056081
-0.00137379
-0.00131699
-0.00321173
-0.00102335
-0.00118973
-0.00463825
0.000719447
0.00147639
-0.00601001
-0.00790154
0.000226803
-0.00101958
-0.00590248
-0.00506004
0.00107477
0.00414885
-0.00226003
-0.00281829
-0.00679453
-0.00723768
-0.0036719
-0.00676675
-0.00739202
-0.00507577
0.00163283
0.00302858
-0.00182557
-0.00983865
-0.0069503
-0.00554201
-0.00329078
0.00380818
0.00383704
0.00181609
-0.000286513
-0.00668592
-0.00578482
0.000244307
-0.00627979
-0.0108438
-0.00579371
-0.00076944
-0.00445491
-0.00275753
-0.000683726
-0.00186755
0.0032131
0.00201891
-0.00785124
-0.0102221
-0.00339981
-0.0031028
-0.00563296
-0.00292694
-0.000290278
0.00213377
-0.00696144
-0.0157875
-0.00880905
-0.00730234
-0.00621537
-0.00889248
-0.0117605
-0.0127739
-0.00525571
0.00098624
-0.00536201
-0.0123374
-0.00829916
-0.00489641
-0.0023021
0.00516686
0.00385573
-0.00100112
-0.00745784
-0.0180614
-0.011621
-0.00310059
-0.00879901
-0.0122555
-0.00340636
0.00200541
-0.00283834
-0.0030469
-0.00179122
-0.00376044
-0.00091866
0.00121417
-0.00908773
-0.00929848
-0.00037815
-0.00534585
-0.0124365
-0.00616
0.00150797
0.00212915
-0.00750864
-0.0163042
-0.00651247
-0.00371588
-0.0066806
-0.0101528
-0.0136939
-0.0141927
-0.00471471
-0.00328708
-0.0147939
-0.0147242
-0.00848506
-0.0102864
-0.00366687
0.00476394
0.00440116
0.000793653
-0.00626749
-0.0237997
-0.0222462
-0.00936788
-0.0121759
-0.0173881
-0.00570944
0.000690046
-0.00628201
-0.00593123
-0.00671241
-0.0076244
-0.00192146
8.42159e-05
-0.0112507
-0.00897334
-0.000508113
-0.00537534
-0.0168434
-0.0179881
0.0025072
0.00143087
-0.0171167
-0.017493
-0.00728415
-0.00061811
0.000216509
-0.00906042
-0.0146685
-0.0123206
-0.00216663
-0.00389884
-0.0170626
-0.0214421
-0.0103658
-0.00765025
-0.00684322
0.00104055
-0.00229737
0.000737278
0.00185685
-0.011992
-0.0169929
-0.009091
-0.0152892
-0.0256099
-0.0101548
-0.000440353
-0.00846372
-0.0129055
-0.0130057
-0.00643555
0.00013688
0.000887294
-0.0138923
-0.00887345
-0.00258619
-0.00878063
-0.0145635
-0.0137106
0.000532463
-0.00257977
-0.0246244
-0.0326116
-0.0121288
-0.00117488
-0.00184841
-0.00960704
-0.0112497
-0.00198622
-0.001389
-0.00170138
-0.0184824
-0.0268178
-0.0127372
-0.0111503
-0.00967787
0.000265337
-0.00295427
-0.000239073
-0.00162503
-0.0164136
-0.0160243
-0.00685075
-0.0188065
-0.0295243
-0.0141562
-0.000731932
-0.00779212
-0.0240625
-0.016029
-0.00869967
0.00147336
0.00147717
-0.0182519
-0.0121096
-0.0041365
-0.00875355
-0.00815832
-0.00562246
0.00363406
-0.0047948
-0.0285791
-0.0367823
-0.0143137
-0.00521746
-0.00922456
-0.0105561
-0.00942852
-0.00926863
-0.0024904
-0.000923188
-0.0158315
-0.0251884
-0.0138668
-0.0196867
-0.0113158
-0.00132218
-0.00878777
-0.00384492
-0.00159855
-0.0194142
-0.0173772
-0.00317357
-0.0169572
-0.0309687
-0.0113836
-0.00271853
-0.00994431
-0.0241618
-0.0146521
-0.0114489
0.00400441
0.000657841
-0.0222203
-0.0140684
-0.00144082
-0.00599373
-0.00928053
-0.00298397
0.00482883
-0.00342259
-0.0294475
-0.0340604
-0.01353
-0.00539503
-0.00922762
-0.0140892
-0.017352
-0.00148989
0.000391906
-0.00505588
-0.0192381
-0.0209194
-0.0132645
-0.0224136
-0.0110714
-0.00351298
-0.0109263
-0.00340914
-0.00358069
-0.02191
-0.0174757
-0.00626047
-0.0175707
-0.0324097
-0.011404
-0.00607313
-0.0161847
-0.0193541
-0.0170449
-0.0202899
0.00228335
-0.00316245
-0.0237586
-0.0146612
-0.0017183
-0.0144239
-0.0172797
-0.00508541
0.00545056
-0.00234861
-0.0339082
-0.0284794
-0.0105656
-0.00217235
-0.00373842
-0.0167142
-0.0212281
-0.00340603
-0.00358908
-0.00668895
-0.0204421
-0.0198469
-0.0218734
-0.025384
-0.011597
-0.00415589
-0.00666864
-0.00122222
-0.00348718
-0.0230862
-0.0201031
-0.0141872
-0.0199066
-0.0377032
-0.00984141
-0.0069219
-0.0210205
-0.0169718
-0.0183615
-0.0273032
-0.00126787
-0.00547869
-0.0225351
-0.0145344
-0.00515496
-0.0146523
-0.0140366
-0.00632828
0.00860143
-0.00358591
-0.0377222
-0.0323167
-0.00767502
-0.00209884
-0.00698139
-0.0187309
-0.020187
-0.00667861
-0.00395953
0.000103283
-0.014457
-0.0192689
-0.0207752
-0.0271097
-0.0104571
-0.00302922
-0.00276679
0.00302952
-0.00147006
-0.0234598
-0.0256542
-0.0130908
-0.0234285
-0.0440151
-0.0136308
-0.00265931
-0.0243237
-0.0159301
-0.0158733
-0.0214115
-0.00240301
-0.00390546
-0.0219725
-0.0158588
-0.00647822
-0.0124551
-0.0141095
-0.00600886
0.00574647
-0.00930209
-0.0359874
-0.035733
-0.00808872
-0.0026837
-0.0108041
-0.0186837
-0.0157215
-0.00593693
0.00127996
0.00166663
-0.00894117
-0.0198531
-0.0148157
-0.0274312
-0.0132183
-0.00303818
-0.00235017
0.00730013
-0.000765198
-0.0216656
-0.0258347
-0.0129665
-0.033227
-0.0469535
-0.017791
-0.000778595
-0.0241038
-0.0146993
-0.0102135
-0.0181958
-0.00213333
-0.004034
-0.0196956
-0.0162305
-0.0038409
-0.0130112
-0.0121987
-0.00184121
0.00469026
-0.012243
-0.0346978
-0.0294797
-0.0119385
-0.0027006
-0.0121993
-0.0175786
-0.0131206
-0.00149356
0.0058111
0.00387385
-0.00747405
-0.018367
-0.017347
-0.0266159
-0.0147461
-0.00208763
0.000136348
0.0101511
0.00125838
-0.0229656
-0.0194772
-0.00956473
-0.0447833
-0.0494965
-0.0216227
-0.00154169
-0.0245837
-0.0112327
-0.0084518
-0.0189213
-0.00337151
-0.00483293
-0.0238074
-0.0159921
-0.0001699
-0.0181293
-0.0125093
0.000945787
0.00863415
-0.0130785
-0.0353848
-0.0341824
-0.0203352
-0.00509296
-0.0125288
-0.0218459
-0.0117003
0.0024844
0.00691468
0.00759031
-0.00941142
-0.018049
-0.0218753
-0.0213552
-0.0109042
-0.000556234
0.00441062
0.00846965
0.0022019
-0.0265083
-0.0169009
-0.00450643
-0.0473581
-0.054336
-0.022148
0.00200929
-0.0262904
-0.00972477
-0.0108077
-0.0228781
0.000230595
-0.00500652
-0.0284829
-0.0134699
0.00216068
-0.0198476
-0.0174313
0.00593218
0.00257513
-0.0156741
-0.0323633
-0.0389379
-0.0253322
-0.00911765
-0.0147808
-0.0267816
-0.0110993
0.00262175
0.00693878
0.00861905
-0.0101954
-0.0221367
-0.0217976
-0.0244993
-0.0081304
-0.00252057
0.000636598
0.00955611
0.00224228
-0.0260268
-0.0178303
-0.00438883
-0.0429274
-0.0565027
-0.0216181
0.00221974
-0.0262118
-0.00804019
-0.0105509
-0.022844
0.00466107
-0.0040658
-0.0296445
-0.0101802
0.00298828
-0.0220554
-0.0235823
0.0101368
0.00105189
-0.0172187
-0.0274747
-0.0395993
-0.0256305
-0.0105138
-0.016983
-0.0306148
-0.0155928
0.00312711
0.00820759
0.00882113
-0.00942989
-0.0235435
-0.0214474
-0.0248537
-0.00988697
-0.00545926
-0.00383057
0.0140437
0.00120115
-0.0237518
-0.0164941
-0.0148847
-0.0466397
-0.0617188
-0.0249346
-0.000569075
-0.0241478
-0.00720978
-0.00864037
-0.0199002
0.00616232
-0.00160167
-0.0304586
-0.00877548
0.00194813
-0.0218099
-0.0257553
0.00923542
0.00104259
-0.016198
-0.0259414
-0.039142
-0.0262455
-0.0088455
-0.0160752
-0.0322215
-0.0207892
0.00466111
0.0122814
0.0110558
-0.00878815
-0.0191717
-0.0192665
-0.0203561
-0.00921611
-0.00525559
-0.00471261
0.0181245
0.00398048
-0.0242769
-0.009614
-0.0151306
-0.0498404
-0.0609462
-0.0255378
-0.00499129
-0.0225756
-0.00621992
-0.0100163
-0.0229579
0.00450118
-0.000513423
-0.0313586
-0.0107133
-0.00157463
-0.0275934
-0.0260583
0.00706843
0.00188837
-0.0143575
-0.0308398
-0.0393704
-0.0257381
-0.00784995
-0.0178442
-0.0311977
-0.0198309
0.00591133
0.0153581
0.0128514
-0.00859503
-0.0269661
-0.0233962
-0.0243889
-0.0121414
-0.00785925
-0.00953145
0.0134767
0.00109929
-0.0259272
-0.0152207
-0.0136218
-0.0502076
-0.0566864
-0.0277204
-0.0121193
-0.0211108
-0.00564107
-0.00759716
-0.0230145
0.0060058
0.00092165
-0.0303351
-0.00799314
0.00116008
-0.021931
-0.0254877
0.00742441
0.00490366
-0.0103061
-0.0279457
-0.0337693
-0.0218895
-0.00679613
-0.0130294
-0.0268226
-0.0144357
0.00772592
0.017484
0.0166869
-0.00530474
-0.0215213
-0.0194262
-0.018315
-0.00735759
-0.0089312
-0.00880543
0.0145426
0.00767386
-0.0235156
-0.0101567
-0.012277
-0.0489482
-0.0536225
-0.0269008
-0.00584263
-0.0173349
-0.00303307
-0.0118138
-0.0249108
0.00224767
-0.00388972
-0.0321912
-0.0149926
-0.00354189
-0.0281156
-0.0252443
0.00784089
0.000290704
-0.0131608
-0.0253315
-0.0353991
-0.0236143
-0.0092203
-0.0188472
-0.0293077
-0.0141199
0.00480189
0.0164843
0.0131412
-0.00995665
-0.0283353
-0.0260785
-0.0231399
-0.0122257
-0.0140575
-0.00783948
0.01399
0.00497257
-0.0275611
-0.015398
-0.0161192
-0.047455
-0.0571144
-0.034222
-0.00950893
-0.0187499
-0.0066935
-0.00475768
-0.0186653
0.00924182
0.00338656
-0.0255941
-0.00865515
0.00204101
-0.0200373
-0.0209266
0.0109835
0.00746827
-0.007926
-0.0215696
-0.0285597
-0.0188385
-0.00487786
-0.0123972
-0.0289679
-0.010827
0.0112035
0.020966
0.0195107
-0.00299893
-0.0194613
-0.0181471
-0.0150233
-0.0043746
-0.00997679
-0.00845536
0.0139232
0.0093144
-0.0198419
-0.00734028
-0.00951253
-0.0413023
-0.0493481
-0.0260781
-0.0035569
-0.0131739
-0.00062322
-0.0141605
-0.0265821
-0.000588633
-0.00749012
-0.0331066
-0.0185735
-0.00722255
-0.029255
-0.0223224
0.00622569
-0.00397684
-0.0139299
-0.029318
-0.0383928
-0.0268845
-0.0139608
-0.0221774
-0.0333039
-0.0166052
0.00365983
0.0127468
0.00985437
-0.0118796
-0.0305407
-0.0292257
-0.0246506
-0.0140116
-0.0175062
-0.0151905
0.00904718
-0.000671462
-0.0301541
-0.0183452
-0.0157959
-0.0459319
-0.0567612
-0.0365271
-0.014152
-0.0215253
-0.00873603
0.000213636
-0.0133654
0.0129638
0.00674611
-0.0196929
-0.00440306
0.00724598
-0.0176506
-0.0109893
0.0171687
0.0105633
-0.00226257
-0.0166796
-0.0239275
-0.0140482
-0.000807789
-0.00801869
-0.0202498
-0.00343632
0.0166676
0.0259676
0.0223051
0.00135887
-0.0155057
-0.0145165
-0.0108204
0.00017181
-0.00349177
-0.00163335
0.0201163
0.0121784
-0.0156678
-0.00369169