/*--------------------------------*- C++ -*----------------------------------*\
  =========                 |
  \\      /  F ield         | OpenFOAM: The Open Source CFD Toolbox
   \\    /   O peration     | Website:  https://openfoam.org
    \\  /    A nd           | Version:  10
     \\/     M anipulation  |
\*---------------------------------------------------------------------------*/
FoamFile
{
    format      ascii;
    class       surfaceScalarField;
    location    "7";
    object      phi;
}
// * * * * * * * * * * * * * * * * * * * * * * * * * * * * * * * * * * * * * //

dimensions      [0 3 -1 0 0 0 0];

internalField   nonuniform List<scalar> 
74080
(
0.00545394
0.000129322
-7.04455e-05
0.00548233
0.000143395
-8.9622e-05
0.00543069
0.000106804
-8.27757e-05
0.00533032
4.52893e-06
-2.57021e-06
0.00520968
-0.000108425
0.000130622
0.00512103
-0.000193688
0.000228468
0.00510793
-0.000233458
0.000259491
0.00514271
-0.000182328
0.000211475
0.00518448
-8.23098e-05
9.10731e-05
0.00520859
-1.6427e-06
-3.42413e-05
0.00521345
6.26123e-06
-0.000130745
0.00521497
-4.54989e-05
-0.000186156
0.00523178
-9.57463e-05
-0.000201894
0.00525791
-0.000105668
-0.000218923
0.0052974
-7.06191e-05
-0.000195388
0.00535328
1.93577e-05
-0.00011823
0.00539556
0.000127779
1.99891e-05
0.00543022
0.000179179
0.000197921
0.0054246
0.000154812
0.000306519
0.00534552
8.77224e-05
0.000304211
0.00523847
-1.30835e-05
0.000192326
0.00513808
-8.84061e-05
2.30374e-05
0.00506822
-6.37547e-05
-0.000124974
0.00504553
1.93377e-05
-0.000221811
0.00506367
0.000121722
-0.000269624
0.00511576
0.000172164
-0.000244151
0.00519534
0.000150705
-0.000167851
0.0052645
0.000118178
-8.14802e-05
0.00530127
8.51806e-05
-6.9464e-06
0.00530442
8.55621e-05
-1.68191e-05
0.00529905
7.22372e-05
-7.292e-05
0.00531491
2.17465e-06
-8.14529e-05
0.00533327
-2.8167e-05
-4.22096e-05
0.00533011
-1.0594e-05
1.35735e-05
0.00528886
2.37609e-05
1.6914e-05
0.00523192
5.01938e-05
-5.84488e-05
0.00520366
2.38921e-05
-0.000133046
0.00521968
7.72413e-06
-0.00014542
0.00528844
3.63961e-05
-0.000115014
8.58585e-05
-7.91857e-05
0.00508437
-1.96072e-05
8.52202e-05
0.00512009
-1.0127e-05
0.000157151
0.00508465
4.20518e-06
0.000283428
0.00495523
-1.32362e-05
0.000369807
0.00475507
-3.61651e-05
0.000314058
0.00456841
-7.99933e-05
0.00011916
0.00447024
-0.000145091
-9.77607e-05
0.00447943
-0.000166274
-0.000232044
0.00455595
-0.000136117
-0.000264132
0.00463746
-0.00010089
-0.000210981
0.00467236
-0.000102899
-0.000120621
0.00463492
-0.000123342
-5.25645e-05
0.00456734
-0.00015536
-1.87152e-05
0.00451582
-0.000151209
-3.21448e-05
0.00452122
-8.76069e-05
-6.85447e-05
0.00460501
3.097e-05
-8.06961e-05
0.00473964
0.000192517
-6.03323e-05
0.00490493
0.000258327
1.8084e-05
0.00500934
0.000243588
0.000123036
0.00498759
0.000202625
0.000190059
0.0048859
0.000105227
0.00017763
0.00476779
3.78492e-05
4.27747e-05
0.00469724
2.68951e-05
-0.000150573
0.00469713
2.90961e-05
-0.000269637
0.00473432
4.89341e-05
-0.000271506
0.00479027
2.07182e-05
-0.000156272
0.00482496
-5.49639e-06
-3.79308e-06
0.00481245
3.75089e-05
7.12625e-05
0.00478869
7.1426e-05
5.55233e-05
0.00479899
9.09339e-05
-2.93423e-05
0.00485482
5.3148e-05
-7.51675e-05
0.00491313
-4.3328e-05
-1.92562e-05
0.0049214
-6.16245e-05
7.06534e-05
0.0048697
-6.94233e-06
0.000127128
0.00480418
5.12564e-05
0.00012165
0.00478848
6.10373e-05
6.49021e-05
0.00482563
1.39573e-05
8.94387e-06
0.00489049
-2.94745e-05
-2.86398e-06
0.00496431
-4.45922e-05
1.63649e-05
-3.09246e-05
4.66186e-05
0.00458536
-0.000144014
0.000282066
0.00462005
-0.000172742
0.00047789
0.00467071
-0.000105342
0.000526506
0.00465412
1.07292e-06
0.000409352
0.00450414
7.67054e-05
0.000202584
0.0042627
6.97694e-05
-2.53649e-05
0.00402551
-3.92682e-06
-0.000230997
0.00387429
-5.32549e-05
-0.000381039
0.00382397
-6.76942e-05
-0.00043457
0.00386064
-0.000111842
-0.000359997
0.00393583
-0.000172424
-0.000192078
0.00397996
-0.000193642
-2.13567e-05
0.00397348
-0.000195823
7.47386e-05
0.00396531
-0.000156245
2.60987e-05
0.00404233
-8.92137e-05
-0.000118908
0.00423294
2.18093e-05
-0.000223377
0.00448606
0.000157729
-0.000197461
0.00468422
0.000197754
-1.94278e-05
0.00471019
0.000208964
0.000193882
0.00460715
0.000215387
0.000270525
0.00447083
0.000152489
0.000203873
0.00435918
8.09086e-05
1.43051e-05
0.0043146
-1.51642e-05
-0.000146564
0.00430112
-8.72039e-05
-0.000139208
0.00430131
-9.69636e-05
-1.47798e-05
0.00432061
-0.000134118
0.00011258
0.00432192
-0.000125137
0.000173631
0.00429668
-4.30585e-05
0.000143426
0.00426026
1.97631e-05
0.000104362
0.0042543
8.26282e-05
9.31041e-05
0.00430862
6.67549e-05
8.53926e-05
0.00441216
-4.59285e-05
7.00757e-05
0.00451944
-7.66551e-05
6.77123e-05
0.00453195
1.23971e-05
0.000146155
0.00443775
0.000119575
0.000234672
0.00434187
0.000148768
0.000197957
0.00431849
9.21089e-05
4.3806e-05
0.00439987
-1.15392e-05
-9.7552e-05
0.00451584
-7.59424e-05
-9.37002e-05
-9.37332e-05
6.14106e-05
0.0039923
-0.000144261
0.000308038
0.00396456
-0.000179036
0.000294435
0.00399999
-0.000174252
0.000319118
0.00401719
-0.000124302
0.000397525
0.00394812
-4.70175e-05
0.000365781
0.0038021
9.573e-06
0.000120853
0.00364092
2.32363e-05
-0.000243316
0.00352274
3.05675e-05
-0.000465304
0.00346285
2.45646e-05
-0.000450995
0.00346492
-5.65773e-05
-0.000310868
0.00351676
-0.000154989
-0.000171216
0.00360674
-0.000217546
-7.96393e-05
0.00371633
-0.00026231
2.87477e-05
0.00384932
-0.000255373
0.000135417
0.00401315
-0.000210803
0.000181988
0.00414473
-6.21048e-05
0.000176733
0.00417931
0.000152435
0.000137709
0.0041154
0.000246199
0.000117607
0.00402336
0.000267275
4.93473e-05
0.00398423
0.000225118
-5.86827e-05
0.00395095
0.000138755
-8.95278e-05
0.0038824
5.7845e-05
-5.32158e-05
0.00381005
-6.66589e-05
2.41557e-05
0.00373839
-0.000125557
0.000109345
0.00370115
-0.000114801
9.37807e-05
0.00370091
-0.00014685
4.3809e-05
0.0036947
-0.000139887
7.91739e-05
0.00370361
-9.87282e-05
0.000115329
0.00374134
-4.81949e-05
8.01451e-05
0.00379447
4.55099e-05
-4.06612e-05
0.0038595
5.63013e-05
-0.000211802
0.00391234
-2.70296e-05
-0.000264126
0.00394934
-5.49131e-05
-0.000119098
0.00396179
4.03331e-05
9.60936e-05
0.0039505
0.000164387
0.000209313
0.00394149
0.000193004
0.000153642
0.0039832
9.62436e-05
2.37202e-05
0.00408097
-7.35615e-05
-2.28508e-05
0.00412283
-0.000153751
9.94241e-05
-0.000131315
0.000250471
0.00347471
-0.00018218
0.000247026
0.00342933
-0.000185719
0.00025695
0.0035058
-0.000161634
0.000255237
0.00358369
-0.000105431
0.000218282
0.00356571
-4.41956e-05
5.43001e-05
0.00350103
-3.50296e-06
-0.000258213
0.00347687
6.33599e-07
-0.000523756
0.003476
-1.70542e-05
-0.000496555
0.00342228
-8.06187e-06
-0.000209211
0.00330918
-4.84615e-05
0.000109537
0.00319221
-9.50888e-05
0.000211253
0.00316817
-0.000160432
5.4092e-05
0.00322509
-0.000236112
-0.000151193
0.00334076
-0.000249966
-0.000283502
0.00349795
-0.000225229
-0.000284057
0.00362484
-7.73727e-05
-0.000215217
0.00369269
0.000118963
-8.90019e-05
0.0036808
0.000197232
0.000127148
0.00364622
0.000239762
0.000228977
0.00367483
0.000209448
0.000187644
0.00370509
0.000155075
0.000131943
0.00367057
0.000108542
9.93516e-05
0.00357114
7.26279e-06
7.62924e-05
0.00345322
-4.04775e-05
3.82702e-06
0.0034122
-4.41536e-05
-0.000191227
0.00341741
-8.27639e-05
-0.000332295
0.0033891
-7.97461e-05
-0.00028888
0.00332836
-5.80809e-05
-0.000154054
0.0032586
-1.32517e-05
-5.70526e-07
0.0032495
4.2577e-05
6.53398e-05
0.00333501
1.51265e-05
3.36203e-05
0.00342787
-3.89875e-05
6.41904e-05
0.00347797
-4.77962e-05
0.000162396
0.00348227
2.52183e-05
0.000206502
0.00344586
0.000133313
0.000138915
0.00340762
0.000170342
1.91281e-05
0.00345926
7.13493e-05
-6.31283e-05
0.00358665
-0.000104009
-6.57684e-05
0.00365154
-0.000184023
4.39692e-05
-0.000173202
0.000178956
0.00317873
-0.000212424
0.000161834
0.00308977
-0.000171752
0.000204171
0.00300938
-4.8817e-05
0.000103628
0.00292935
4.98128e-05
-6.07278e-05
0.00291533
2.33965e-05
-0.000264085
0.00299053
-9.29523e-05
-0.000432217
0.00308387
-0.000193771
-0.000438442
0.00309231
-0.000151396
-0.000298761
0.00303407
-2.46935e-05
-8.8054e-05
0.00298221
-6.66706e-06
0.000123252
0.00297459
-3.02257e-05
0.000197479
0.00300796
-0.000111633
9.73483e-05
0.00302063
-0.000210287
-8.51484e-05
0.00302392
-0.000269175
-0.000266266
0.00304979
-0.000302312
-0.000392569
0.00307874
-0.00019006
-0.000386376
0.00310554
-4.05383e-05
-0.000158365
0.00311293
3.44551e-05
0.000102819
0.00318524
9.98077e-05
0.00014785
0.00335283
0.000105995
8.13758e-05
0.00346114
0.00011238
0.000131387
0.00343306
0.000116189
0.000271794
0.00331797
4.48841e-05
0.000295438
0.003229
7.95454e-06
7.63797e-05
0.00322899
-4.99419e-06
-0.00025448
0.00321605
1.3315e-06
-0.000395132
0.00313084
4.96482e-05
-0.000310499
0.00304415
2.89388e-05
-0.000179062
0.00301445
9.37417e-06
-7.54123e-05
0.00307803
-4.31499e-06
-4.45488e-05
0.00318824
-4.53395e-05
-3.05624e-05
0.00324153
-2.1558e-05
5.13382e-05
0.00322864
2.22562e-05
0.000131367
0.0032078
4.63398e-05
0.000129749
0.0032019
5.91959e-05
6.19194e-05
0.00319041
8.16238e-05
2.88903e-06
0.00319613
6.8855e-05
-5.68373e-05
0.00323232
-5.35698e-06
-0.000128558
0.00326404
-7.34413e-05
-0.00011639
-0.000148675
1.2488e-05
0.00263624
-0.000191279
-0.000178423
0.00258856
-0.00011148
-2.07124e-06
0.00260978
-6.67213e-05
0.000182961
0.00266708
-8.20541e-05
0.000197599
0.00273916
-0.000121988
-6.28167e-05
0.00280482
-0.000186041
-0.000391477
0.00283816
-0.000242455
-0.000495401
0.00280819
-0.000124582
-0.000368572
0.00275225
1.99797e-05
-7.46814e-05
0.0027613
-3.95246e-05
0.000247118
0.00286454
-0.000134655
0.000356994
0.00299172
-0.000199049
0.000209521
0.0029989
-0.00019253
-8.09321e-06
0.00287712
-0.000206269
-0.000110021
0.0026948
-0.000280846
-0.000105801
0.00255417
-0.000243158
-3.68334e-05
0.00255199
-0.000148682
9.81315e-05
0.00269534
-0.000117308
0.000152948
0.00294579
-9.86641e-05
6.80197e-05
0.00312992
-9.66013e-05
-1.41981e-05
0.00310542
-2.28083e-05
8.54916e-06
0.00297818
5.43166e-05
7.92373e-05
0.00289543
3.01657e-05
9.842e-05
0.0029061
4.95525e-05
-1.58213e-05
0.00297308
4.0197e-05
-0.000184104
0.0029646
4.32987e-05
-0.000244451
0.00286405
8.92331e-05
-0.000263739
0.00276842
5.49975e-05
-0.000264348
0.00273685
2.47247e-05
-0.000175843
0.00278877
-3.69736e-05
-8.34728e-05
0.00286152
-0.000109691
-2.3022e-05
0.00285377
-0.000103707
6.93605e-05
0.00279665
-6.50938e-05
0.000112021
0.00283532
-7.22847e-05
8.58357e-05
0.00300973
-0.000100711
6.47008e-05
0.00318066
-5.74584e-05
0.000112193
0.00318761
8.3031e-06
0.000182079
0.00302612
1.56523e-05
8.21021e-05
0.00283898
-2.62803e-05
-0.000131921
-0.00013725
-0.000252017
0.00290719
-0.000192299
-0.000130281
0.00272509
-3.68876e-05
3.70827e-05
0.00261402
-1.8917e-05
0.000172361
0.00257292
-8.29406e-05
0.00010877
0.00256236
-8.57151e-05
-0.000175363
0.00255602
-0.000114752
-0.000394068
0.00256361
-0.000192487
-0.000394403
0.00259802
-0.000134831
-0.000212249
0.00263066
-3.44312e-05
7.74683e-05
0.00262676
-6.54262e-05
0.00023635
0.00261463
-8.22101e-05
0.000134445
0.00260833
-8.04916e-05
-4.619e-05
0.00261496
-7.36644e-05
-0.000162356
0.00263911
-0.000132939
-0.0001737
0.00261769
-0.000193594
-0.000120725
0.00254866
-0.000139806
-3.27061e-05
0.00247947
-0.000112737
7.94363e-05
0.00247549
-0.000151368
9.4451e-05
0.00256908
-0.000169185
8.30405e-05
0.00269389
-0.000185985
0.000122082
0.00276572
-9.45041e-05
0.000100105
0.00274938
3.26003e-05
1.12157e-05
0.0026747
5.53944e-05
-2.09809e-05
0.00266692
5.6605e-05
-1.15791e-05
0.00277843
-6.58396e-05
1.86691e-05
0.00285218
-8.00128e-05
4.72395e-05
0.00276723
7.00751e-05
-2.07417e-05
0.00259022
0.000147549
-0.000140568
0.00246967
0.00012885
-0.000178803
0.00246272
-4.94597e-06
-0.000125312
0.00248101
-0.00010828
-3.6537e-05
0.00246338
-0.000126957
4.85069e-05
0.00245553
-0.000129366
4.39842e-05
0.00251484
-0.000148925
-2.47312e-05
0.0025931
-0.000170482
-3.50923e-05
0.00262033
-9.99134e-05
1.24779e-05
0.00263814
-1.24831e-05
6.70288e-05
0.0027423
-5.11505e-05
6.96511e-05
0.00291955
-0.000170505
-2.0735e-05
-0.000255172
-0.000139652
0.00272473
-0.000151377
-3.59046e-05
0.00260657
-1.8655e-05
7.81638e-05
0.00247506
-3.2935e-05
0.000163801
0.00236453
-0.000134743
0.000140441
0.00227798
-7.56118e-05
-2.21555e-06
0.00220245
-2.01137e-05
-0.000119522
0.00217929
-0.000146305
-0.000137487
0.00220197
-0.000184413
-7.83501e-05
0.00220252
-9.95152e-05
5.04275e-05
0.00216281
-4.701e-05
0.000106445
0.00213774
1.75809e-05
5.28699e-05
0.00216115
2.09629e-05
-6.57767e-06
0.00222235
2.89708e-05
-0.00010908
0.00228829
-3.22749e-05
-0.000211266
0.00231678
-0.000109195
-0.00023462
0.00231453
-9.59018e-05
-0.000173963
0.00227503
-0.000103994
-5.39836e-05
0.0022233
-0.000173542
0.000104821
0.00221269
-0.000187314
0.000222767
0.0022306
-0.000169646
0.000249513
0.00226808
-6.30367e-05
0.000188176
0.00231292
3.54999e-05
8.3943e-05
0.00232896
6.35875e-05
1.09656e-05
0.00237894
3.83421e-05
-4.48991e-05
0.00244676
-0.000106681
-5.86874e-05
0.00243636
-8.14272e-05
-7.38002e-06
0.00235977
8.45555e-05
6.23754e-05
0.00229833
0.000136439
0.000115857
0.00229438
9.77679e-05
0.000110081
0.00232487
-4.5165e-06
2.9573e-05
0.0022879
-5.85478e-06
-7.21497e-05
0.00218919
2.97753e-05
-0.000134633
0.00213473
-9.79786e-06
-0.000143596
0.00214209
-0.000104043
-0.000150336
0.00220294
-0.000196829
-0.000166934
0.00234478
-0.00015848
-0.000164789
0.0025321
-4.72875e-05
-0.000122379
0.00271593
-7.74949e-05
-8.87863e-05
0.00282171
-0.000175802
-8.54745e-05
-0.000203799
-9.63744e-05
0.00207211
-7.74591e-05
3.55567e-05
0.0020483
-3.65252e-05
0.000108341
0.00201641
-8.60649e-05
0.000101165
0.00195759
-0.000172468
7.38073e-06
0.00192353
-6.78144e-05
-0.000147103
0.00197035
-2.27943e-05
-0.000219192
0.0020694
-0.000191701
-0.000153365
0.00208674
-0.000131718
-2.5766e-05
0.00198078
4.17345e-05
0.000101775
0.00186821
1.37055e-05
0.000120969
0.00185695
-3.21312e-05
1.37534e-05
0.00192536
-0.00011686
-4.081e-05
0.0019945
-0.000105149
-5.46266e-05
0.00202463
-0.000108279
-9.06694e-05
0.00203126
-9.84852e-05
-0.000112784
0.00204399
-3.93471e-05
-0.000101373
0.00202065
-7.61214e-05
-5.93135e-05
0.00198453
-0.000191569
6.70179e-06
0.00196081
-0.00020131
5.62663e-05
0.00194225
-0.000144085
5.87491e-05
0.00198742
-2.24316e-05
5.37125e-05
0.00207822
6.91657e-05
1.58276e-05
0.00215248
7.15839e-05
9.51903e-06
0.00220579
5.8986e-05
1.02117e-05
0.00221188
-2.01567e-05
-2.13137e-05
0.00217423
2.75358e-05
-6.61452e-06
0.00215943
0.000119007
6.83584e-05
0.00215145
0.000123779
0.000126246
0.00213845
0.00011208
9.49263e-05
0.0021359
3.40316e-05
3.96343e-05
0.00210074
4.49468e-05
9.71631e-06
0.00204737
1.89239e-05
8.3431e-06
0.00204351
-9.24798e-05
3.70978e-05
0.00205382
-0.000147152
2.54351e-05
0.00207875
-0.000128657
-3.99813e-05
0.00219839
-4.6199e-05
-9.0903e-05
0.00235889
5.5548e-05
-0.000135464
0.00242988
7.95863e-06
-0.000147323
0.00232771
-2.95339e-05
-0.00012812
-2.48859e-05
-7.36277e-05
0.00176451
-0.000241887
0.000108503
0.00189961
-0.000174017
5.05589e-05
0.00189915
-2.33015e-05
-3.70281e-05
0.00178089
-5.04502e-05
-6.68896e-05
0.00170073
-4.2898e-05
-0.000112544
0.00172463
-9.43166e-05
-0.000132496
0.00180549
-0.000287645
-0.000136557
0.00185227
-0.000165652
-6.69908e-05
0.00183766
2.41193e-05
0.000141016
0.00177047
-2.27077e-05
0.000256012
0.00171744
-2.15249e-05
0.000132084
0.0017127
-0.000146009
2.65286e-05
0.00181656
-0.000323393
4.31115e-06
0.00197673
-0.00041509
-2.0878e-05
0.00199012
-0.000249506
1.30022e-05
0.00187829
1.55924e-05
5.0294e-05
0.00178844
3.56588e-05
5.24289e-05
0.00176444
-0.000140756
4.93013e-05
0.0017354
-0.000197677
-2.50313e-05
0.00171633
-0.000162372
-4.01405e-05
0.00179544
-4.6875e-05
5.50885e-05
0.00188155
8.82216e-05
7.89096e-05
0.00185243
0.000131016
7.91867e-05
0.00179464
7.26123e-05
8.15995e-05
0.00174956
-6.12708e-05
3.52035e-05
0.00172687
-2.14976e-05
-1.12943e-06
0.00175354
6.57571e-05
2.24602e-05
0.00176754
0.00014102
3.18337e-05
0.0017818
0.000167204
1.50609e-05
0.00184664
2.5819e-05
6.10126e-05
0.00191762
-2.35183e-05
9.48166e-05
0.00195566
-9.66111e-05
0.000159847
0.00199934
-0.000256737
0.000201508
0.00202965
-0.000263017
7.79589e-05
0.00202587
-0.000122689
-0.000110971
0.00199731
6.57269e-05
-0.0002502
0.00193646
0.000199165
-0.000294895
0.00185656
0.000136459
-0.000289688
0.00174113
0.000144901
-0.000218426
4.33521e-05
-4.17652e-05
0.00167846
-0.000391442
0.000163071
0.00179253
-0.000267916
9.04689e-05
0.00179134
3.97342e-05
4.42305e-06
0.00169016
1.65451e-05
3.66598e-05
0.00158582
-5.41956e-05
5.25379e-05
0.00153308
-0.000137513
5.65207e-05
0.00156381
-0.000290096
-2.04866e-05
0.00166779
-0.000178143
-0.00012089
0.00178314
-7.70015e-05
-6.98783e-06
0.00180986
-0.00016083
0.000183315
0.00178073
-4.68197e-05
0.0001326
0.00171971
-3.24679e-05
6.93308e-05
0.00167979
-0.000251699
5.82107e-05
0.00173361
-0.000518923
-8.46072e-06
0.00179253
-0.000410492
1.67023e-05
0.00178185
-3.38518e-05
7.13427e-05
0.00177819
4.79518e-05
8.6273e-05
0.0018062
-0.000161379
0.000109903
0.00177953
-0.00016684
9.49295e-05
0.0017247
-9.58555e-05
0.000125446
0.00175539
-8.47789e-06
0.00013549
0.00183714
7.95494e-05
2.24867e-05
0.00184283
6.75187e-05
2.05887e-06
0.00176132
-2.5032e-05
6.76934e-05
0.00161888
-0.000103522
8.62771e-05
0.00152616
-5.48139e-06
0.000116799
0.00156847
4.48806e-05
0.00011923
0.00162423
0.000157669
-2.27006e-05
0.00166158
0.000247387
-2.69301e-05
0.00172119
3.73097e-05
0.000165014
0.00175323
-5.20217e-05
0.000267395
0.0017689
-0.000115801
0.000295343
0.00182728
-0.000255806
0.000164225
0.00191632
-0.000275573
-9.30461e-05
0.00193017
-0.000160986
-0.000148985
0.00179767
0.000112355
-8.9265e-05
0.00164766
0.000283643
-0.000133055
0.00165107
8.21085e-05
-0.000166078
0.00165635
0.000105122
-0.000136835
1.98699e-05
7.22709e-06
0.001465
-0.000435194
0.000106115
0.00152245
-0.000318017
0.000126415
0.00157315
6.84167e-05
0.000113871
0.00158435
-2.49821e-05
8.85576e-05
0.00150769
-9.99399e-05
1.1222e-05
0.00141928
-0.000144626
6.90421e-05
0.00142368
-0.000309279
0.000127274
0.00147215
-0.000219989
6.08742e-05
0.00150616
-0.000158046
0.000106461
0.00153345
-0.00026215
0.000159723
0.00159142
-0.000101013
7.42728e-05
0.0016304
-7.78263e-05
1.61448e-05
0.00157062
-0.000180677
1.75989e-05
0.00150386
-0.000358385
1.12181e-05
0.00155531
-0.00036575
8.94176e-06
0.00160945
-9.30827e-05
9.08903e-05
0.00160792
3.78289e-06
0.000129653
0.00167058
-0.000206592
2.68857e-05
0.00171231
-0.000176178
7.77125e-05
0.00168336
-0.000124643
0.000230505
0.00170998
-7.2491e-05
0.000215199
0.00178608
-3.95058e-05
0.000101677
0.001736
-7.30988e-05
0.000147873
0.00159426
-0.000187355
0.000258918
0.00146205
-0.000162514
0.000120431
0.00139056
3.31748e-05
1.27455e-05
0.00142785
2.66175e-05
8.39644e-05
0.00150932
0.000150637
0.000100191
0.00156038
0.000322272
0.000216809
0.00164783
3.04772e-05
0.000366688
0.00174047
-0.000123861
0.00033127
0.00176385
-0.000206244
0.000362661
0.00178005
-0.000291689
0.000354829
0.00182048
-0.000171518
6.78258e-05
0.00179496
-1.71772e-05
-0.000114714
0.00164234
0.000286583
-0.000134509
0.00152022
0.000403137
-7.99402e-05
0.00155183
4.41309e-06
-0.000108913
0.00155915
0.000116759
-0.000218049
0.000143583
-0.000107777
0.00130164
-0.000419044
9.10308e-05
0.00130354
-0.000358057
9.1698e-05
0.00139734
1.16285e-05
9.11276e-05
0.00144133
-3.19075e-05
3.75942e-05
0.00136983
-3.85927e-05
-8.06838e-05
0.00132698
-0.000133526
-4.18676e-05
0.0013819
-0.000314204
0.000112351
0.0014229
-0.000158141
9.99771e-05
0.00141624
-0.000123227
0.00015822
0.00140957
-0.000252908
0.000147604
0.0014404
-5.51227e-05
-1.88316e-05
0.00151619
-0.000132363
-2.37313e-05
0.00152189
-0.000248002
3.70931e-05
0.00137093
-0.000156764
-4.09256e-05
0.00132555
-0.000163008
-0.000151109
0.00144413
-0.000101054
-7.93044e-05
0.00153222
-7.41641e-05
0.00010438
0.0015484
-0.000211747
0.000209196
0.00152713
-0.000146814
0.00021949
0.00145763
-0.000112673
0.000237269
0.00148582
-0.000162082
0.000106869
0.00165068
-0.000272901
-0.000106681
0.00168462
-0.000151605
-1.81484e-05
0.00148334
-9.49922e-05
0.000158616
0.001329
-0.000101188
5.49511e-07
0.00134083
-0.000141845
6.23521e-06
0.00137618
-8.73953e-05
0.000154694
0.0013893
0.000397657
8.62325e-05
0.00141519
0.000550524
8.16697e-05
0.00144648
5.11138e-05
0.000174856
0.00150106
-0.00019557
0.000111472
0.00151361
-0.000309858
0.000174229
0.00149727
-0.000287463
0.00023765
0.00151328
-5.23465e-05
3.21759e-05
0.0015067
0.000110801
-0.000208208
0.00145999
0.000413787
-0.000254719
0.00147059
0.000359484
-0.000103035
0.00150947
-0.000146062
-8.57049e-05
0.00146273
0.000177232
-0.000242856
0.000297688
-0.000141806
0.00125964
-0.000407094
0.000113127
0.00123504
-0.000296426
6.42288e-05
0.00129501
5.64372e-05
-1.2358e-05
0.0012947
9.49449e-05
-2.49585e-05
0.00121566
0.000120735
-6.39909e-05
0.00118054
-8.00482e-05
5.62427e-05
0.00125195
-0.000303199
8.48098e-05
0.00139185
-0.000124996
0.000101059
0.0013924
-0.000117437
0.000237121
0.00126089
-0.000173433
0.000103926
0.00120293
-5.27874e-07
-0.000106717
0.00119732
-0.000130249
2.00236e-05
0.00128379
-0.00034999
0.000108811
0.00126909
-0.000169668
5.17501e-05
0.00114727
-1.77667e-05
3.04521e-05
0.00117832
-5.91806e-06
1.26536e-05
0.00129594
-0.000114827
6.54394e-05
0.0013672
-0.000257593
0.000131737
0.00138478
-0.000158221
0.000102576
0.00132798
-9.27071e-05
0.000162761
0.0012977
-0.000114366
0.000121042
0.00142311
-0.000335283
-1.38075e-05
0.00152066
-0.000234421
8.26186e-05
0.0013626
-2.18569e-05
0.00012639
0.00112619
1.294e-05
-5.5891e-05
0.00103835
-0.000236702
0.000103513
0.00108175
-0.000205836
0.000297698
0.00127528
0.000395346
0.000165587
0.00144269
0.000417441
0.000127117
0.00134652
4.43232e-05
0.000161235
0.00118366
-6.05332e-05
2.77351e-05
0.0011062
-0.000208954
7.10703e-05
0.0010981
-0.000199587
0.000133369
0.00115939
4.42857e-05
-0.000102928
0.00125788
0.000239442
-0.000262505
0.00135699
0.000437844
-0.000219111
0.00145915
0.000171758
-8.23843e-05
0.00146013
-0.000277528
3.98686e-06
0.00139726
0.000181893
-0.000134926
0.000330594
-0.000130154
0.00120149
-0.000466748
0.000114336
0.00114035
-0.000173163
-2.57038e-05
0.00111397
0.000247585
-1.13005e-05
0.00116159
6.12846e-05
7.3656e-05
0.00118124
2.81243e-05
5.2209e-05
0.00104522
5.11601e-05
0.000191516
0.000986833
-0.000185347
1.25981e-05
0.00124397
-0.000246065
-7.10668e-05
0.0013347
-0.000214965
0.000193604
0.00115121
-0.000102558
0.000145375
0.0010925
-3.16527e-06
-3.61843e-05
0.00103747
-0.000150886
9.14959e-05
0.00109109
-0.000467737
0.000125319
0.00115965
-0.000281948
7.60962e-05
0.00103251
0.000143666
-1.8736e-05
0.0010034
0.000132487
-4.23092e-05
0.00110017
-0.00025259
7.24921e-05
0.00119757
-0.000439637
8.2873e-05
0.001242
-0.000168237
8.09797e-05
0.00119315
-7.61254e-06
0.000156967
0.00114737
-3.69277e-05
0.000152845
0.00124872
-0.000338755
1.74313e-06
0.00140564
-0.000284189
1.86182e-05
0.00139695
3.66904e-06
9.34449e-05
0.00114667
0.000206117
3.24579e-05
0.000939125
-8.93949e-05
0.000125359
0.00106242
-0.000319663
0.000169759
0.00131298
0.000268308
6.37236e-05
0.00126753
0.000438229
0.000160829
0.00104709
9.36707e-05
0.000145258
0.00090313
-0.000135004
-1.10967e-05
0.00091119
-0.000369706
8.20464e-05
0.00103286
-0.000305291
1.76694e-05
0.0011509
1.12426e-05
-0.000181001
0.00126387
0.000172404
-0.000145049
0.00132606
0.000314657
-0.000135201
0.00129473
0.000131206
-4.43193e-05
0.00123719
-0.000254295
6.77609e-05
0.00123489
0.000259932
-0.000140985
0.000312153
-5.90702e-05
0.00107208
-0.000614741
0.000252661
0.00104917
-0.000179489
3.53847e-05
0.000961735
0.000370428
2.04027e-05
0.000970295
-8.56508e-05
8.71259e-05
0.0010828
-0.000184497
9.18172e-05
0.00104105
6.829e-05
0.000216078
0.000846616
-6.34509e-06
7.47269e-05
0.000934262
-0.000256079
-7.37954e-05
0.00106902
-0.000271326
7.04417e-05
0.000957391
1.13095e-05
1.41245e-05
0.000897009
9.9304e-06
-6.05712e-05
0.000850561
-0.000118156
2.17871e-05
0.00088384
-0.000414411
-5.45607e-06
0.000996081
-0.000394666
2.47267e-05
0.00097873
0.000147606
-4.05839e-05
0.00102058
0.000196119
-5.99784e-06
0.00108217
-0.000288988
6.74531e-05
0.00103171
-0.000450246
2.844e-05
0.00109101
-0.000262294
2.18316e-05
0.0011167
6.92285e-05
9.26509e-05
0.000935074
0.000238104
8.25565e-05
0.000909372
-0.000367489
-4.27555e-05
0.00106582
-0.000417166
-0.000149826
0.00114114
-3.4798e-05
-2.36997e-05
0.00106672
0.00029514
0.000103552
0.000935388
2.06734e-05
0.000238746
0.00105283
-0.000404692
0.000178245
0.00121858
0.000139677
6.28378e-05
0.00112304
0.000479372
0.000182003
0.00104984
0.000120119
0.0001378
0.000997157
-0.000193878
-5.24582e-05
0.000947828
-0.000461724
-4.48882e-05
0.00105336
-0.000333419
-0.000114318
0.0010694
0.000102855
-0.000273414
0.000980567
0.000191229
-0.000213572
0.000983875
0.000160071
-0.000105306
0.000966974
-3.73425e-05
0.000176993
0.000972468
-0.000305482
0.000116246
0.00110862
0.000255547
-0.000143045
0.000254667
6.8284e-05
0.000861247
-0.00075586
0.000253992
0.000884995
-0.000177111
-3.13978e-05
0.00091735
0.000379774
-5.8957e-05
0.000907142
-9.55718e-05
-1.10656e-06
0.000898985
-0.000200647
0.000171377
0.000945434
-2.83456e-05
0.000270755
0.000882958
2.63295e-05
5.87966e-05
0.000871081
-0.000165063
3.35877e-05
0.000837835
-0.000142998
0.000176044
0.000763895
0.000119718
1.11341e-05
0.000693015
4.30055e-05
3.58088e-05
0.000603119
4.75478e-06
5.70114e-05
0.000670833
-0.000367755
-0.000115567
0.000823008
-0.000443596
-0.000175933
0.000869955
9.23653e-05
-2.54055e-05
0.00099354
0.000145266
5.24656e-05
0.000962169
-9.40409e-05
7.21717e-06
0.000831953
-0.000276495
3.45145e-06
0.00100743
-0.000432476
7.1929e-05
0.00113377
5.63519e-05
0.000177727
0.000929451
0.000494802
0.000148781
0.000761412
-0.000301271
-7.15254e-05
0.000800877
-0.000558552
-6.18909e-05
0.000924655
-0.000149575
-2.69948e-05
0.000947619
0.000213179
0.000143177
0.000835443
4.48359e-05
0.000402284
0.000882288
-0.000400746
0.000198419
0.000994921
0.000139609
3.35645e-06
0.000957242
0.000577943
0.00010516
0.00095962
0.000112086
0.000132957
0.000898205
-6.66683e-05
-8.4732e-05
0.000822527
-0.00030988
-0.000149793
0.000895706
-0.000286932
-0.000194555
0.00087127
0.000262289
-0.000362922
0.000805539
0.000301972
-0.000302817
0.000888411
-2.26335e-05
-0.00010229
0.000924872
-0.000208396
0.000140218
0.000928164
-0.000394095
5.20476e-05
0.000932026
0.000282599
-0.000124937
0.000226029
0.000169382
0.000694771
-0.000799238
0.000161264
0.00077254
-0.000149713
-0.000125559
0.000849549
0.000362831
-6.46525e-05
0.000819355
-8.42319e-05
-4.7677e-05
0.000745585
-0.000172813
1.46074e-05
0.00076909
-0.00010334
0.000250476
0.000819118
-0.000101604
0.000120594
0.000819554
-0.000178975
9.15037e-05
0.000766467
-2.80236e-05
0.000120985
0.000737248
0.000113254
6.47352e-06
0.000635523
6.60506e-05
7.60831e-05
0.000525648
0.000129197
4.15711e-05
0.000571945
-0.000359269
-8.70234e-05
0.000621223
-0.000476215
-0.00021374
0.000764655
-3.36e-05
-8.51394e-05
0.000928854
4.22432e-05
1.5822e-05
0.000776306
0.000193068
-4.26413e-06
0.000742323
-0.000172168
-6.51773e-05
0.000978418
-0.000588635
1.33883e-05
0.00100665
7.36648e-05
0.000285205
0.000924203
0.000591826
0.000203631
0.000820865
-0.00032145
-9.78908e-05
0.000709171
-0.000605248
-3.32817e-05
0.000803172
-0.000315467
3.62292e-06
0.000940162
1.82701e-05
4.59224e-05
0.000904925
5.12138e-05
0.000294537
0.000872452
-0.000280603
0.000227648
0.000855495
0.000340607
1.16755e-05
0.000820301
0.000624476
4.48997e-05
0.000867581
-1.89153e-05
7.89074e-05
0.000850258
-3.30465e-05
-3.40426e-05
0.000765475
-0.000149332
-8.15999e-05
0.000774053
-0.000277294
-2.5569e-05
0.000770202
0.000260281
-0.00018219
0.000768762
0.000346032
-0.0003166
0.000836026
-4.69945e-05
-0.000137815
0.000833344
-0.000229148
0.00013803
0.000744596
-0.000358416
2.3378e-05
0.000689905
0.000346787
-0.000160242
0.000173413
0.000234387
0.000612571
-0.000705018
0.000147946
0.000682614
-0.000166841
-0.000100749
0.000756993
0.000333477
5.41859e-05
0.000749406
-2.43291e-05
-5.48409e-05
0.000719156
-0.000149731
-7.64655e-05
0.000694128
-0.000117859
0.000233647
0.000749219
-0.000234034
0.0001061
0.000737953
-0.000185081
0.000124085
0.000682022
9.95088e-05
8.05019e-05
0.000648396
0.000103463
6.41059e-06
0.000578408
-1.13454e-05
7.48222e-05
0.000536714
0.00011881
-1.02319e-05
0.000484285
-0.000237664
-1.36967e-05
0.000472254
-0.000457126
1.91921e-05
0.000680773
-0.000201104
-5.09107e-05
0.000822774
-1.84879e-05
7.89451e-05
0.000730728
0.000319765
8.41403e-05
0.000723119
-6.75311e-05
-0.000162878
0.000882635
-0.000584927
-7.95352e-05
0.000891369
0.000197266
0.000251138
0.000901512
0.000589217
0.00024572
0.00086097
-0.000398249
4.66419e-05
0.000681694
-0.000546075
-5.01769e-05
0.000643665
-0.000313757
6.16466e-06
0.000776184
-0.000193937
6.91522e-05
0.000805891
-6.66246e-05
0.000275336
0.000778228
-0.000100004
0.000273772
0.000802669
0.000470622
5.70652e-05
0.000782049
0.000532675
7.94647e-05
0.000798794
-8.80224e-05
0.000104813
0.000818496
-0.000124269
1.24029e-05
0.000721141
-0.000128336
-4.08198e-05
0.000711654
-0.000263851
9.47835e-06
0.000718646
0.000246715
-0.00013327
0.000649585
0.000379787
-0.00030292
0.000672743
-5.98483e-05
-4.94225e-05
0.000713904
-0.000327056
0.000279717
0.000593016
-0.000169851
5.2454e-06
0.000618512
0.000391415
-0.000150184
5.62793e-05
0.000309035
0.000589566
-0.000597483
0.000135926
0.00065321
-0.00018723
-4.81202e-05
0.000662332
0.000329098
9.45981e-05
0.000637742
-5.71273e-05
-6.30906e-06
0.000594355
-0.000191796
6.20988e-05
0.000584375
-9.49899e-05
0.000245747
0.000682764
-0.000323645
-1.97517e-05
0.000637951
-0.000118417
2.62065e-05
0.000584713
0.00022243
3.3228e-05
0.000620285
5.07172e-05
3.89745e-05
0.000567929
-4.38873e-05
2.31082e-05
0.000567931
3.10541e-05
-2.76075e-05
0.000540196
-0.000151687
-1.25509e-06
0.00047308
-0.000337843
4.99586e-05
0.000554062
-0.000275128
5.42594e-05
0.000631885
-2.81481e-05
0.000167724
0.000645719
0.000328375
0.000105911
0.000656493
-2.06677e-05
-0.0001262
0.00074496
-0.00053246
2.03711e-05
0.000768797
0.000303701
0.000220179
0.000757908
0.000580964
0.000150758
0.000710253
-0.000368993
7.71378e-06
0.000601296
-0.000450856