/*--------------------------------*- C++ -*----------------------------------*\
  =========                 |
  \\      /  F ield         | OpenFOAM: The Open Source CFD Toolbox
   \\    /   O peration     | Website:  https://openfoam.org
    \\  /    A nd           | Version:  10
     \\/     M anipulation  |
\*---------------------------------------------------------------------------*/
FoamFile
{
    format      ascii;
    class       volScalarField;
    location    "5";
    object      p;
}
// * * * * * * * * * * * * * * * * * * * * * * * * * * * * * * * * * * * * * //

dimensions      [0 2 -2 0 0 0 0];

internalField   nonuniform List<scalar> 
102400
(
0.00369334
-0.000511891
-0.0037789
-0.00316748
-0.00018202
0.00340881
0.00431775
-0.001706
-0.00520273
-0.00481846
0.00267563
0.00332803
0.00129641
-0.000123874
-0.00212202
-0.000453683
-0.000617163
-0.00134974
-0.000845078
-0.00181562
0.00142212
0.00283884
-0.00190183
-0.000799574
-0.00244187
-0.00259469
0.00353161
-0.00118672
-0.00459505
-0.000500472
0.0022706
0.00386226
0.00111961
-0.00149744
-0.000226718
-0.00186998
-0.00138778
-0.000921936
-0.00234271
0.000159306
0.00373836
-0.000478832
-0.00378164
-0.00317282
-0.000170639
0.00341002
0.00435498
-0.0017067
-0.00521992
-0.00484443
0.00267754
0.00336378
0.001309
-8.93507e-05
-0.00213629
-0.000481128
-0.00058151
-0.00131759
-0.000827491
-0.0018191
0.00140666
0.00287213
-0.00190426
-0.00079188
-0.00244528
-0.00262058
0.00354281
-0.00114799
-0.00462041
-0.000540176
0.00226861
0.00390716
0.00114704
-0.0014957
-0.000219579
-0.00187149
-0.00140072
-0.000890317
-0.00233611
0.000131275
0.00376853
-0.000481564
-0.00383998
-0.00316327
-0.000154137
0.00339935
0.0043985
-0.00172944
-0.00522481
-0.00487663
0.00270141
0.00339667
0.00132084
-7.76629e-05
-0.00216144
-0.000533138
-0.000571416
-0.00133176
-0.000855129
-0.00184352
0.00138376
0.00294224
-0.00190797
-0.000807255
-0.00250902
-0.00267475
0.00360779
-0.00111996
-0.00467112
-0.000547834
0.00227628
0.00395171
0.0011526
-0.00148573
-0.000224071
-0.00191138
-0.00141206
-0.000862514
-0.00230711
8.86991e-05
0.00387948
-0.000450018
-0.00396329
-0.00325586
-0.000238059
0.00347649
0.0045113
-0.00183555
-0.00526162
-0.00485854
0.00271956
0.00340602
0.00133479
-0.000115838
-0.00223504
-0.000592415
-0.000464
-0.0013334
-0.000975295
-0.00190543
0.00138283
0.00302542
-0.00195754
-0.000853602
-0.00268654
-0.00278617
0.00359184
-0.00116915
-0.00474706
-0.000549771
0.0023228
0.00407701
0.00115641
-0.0014955
-0.000234453
-0.0019773
-0.00143894
-0.000870948
-0.00235069
6.23709e-05
0.00407287
-0.000299455
-0.0040189
-0.00333354
-0.000464483
0.00335733
0.00481896
-0.00189459
-0.00543771
-0.00479734
0.0026919
0.00337733
0.0013473
-0.000221166
-0.00229844
-0.000485372
-0.000242721
-0.00120348
-0.00104586
-0.00207955
0.00138545
0.00312354
-0.00211078
-0.00100523
-0.00296639
-0.0029801
0.00360059
-0.00134401
-0.00487204
-0.000580145
0.00238037
0.00424012
0.00116271
-0.00147377
-0.000238439
-0.00207001
-0.00140337
-0.000843476
-0.00251952
-2.20806e-05
0.00431849
2.79652e-05
-0.0041104
-0.00335958
-0.000685349
0.00309732
0.00512238
-0.00180918
-0.00575162
-0.00487327
0.00257079
0.00329128
0.00135491
-0.000287282
-0.00231153
-0.000249689
9.40135e-05
-0.000944115
-0.0010223
-0.00232454
0.00132868
0.00325646
-0.0021236
-0.00118675
-0.00327985
-0.0032809
0.00361325
-0.00154155
-0.00498204
-0.000571522
0.00245661
0.00427024
0.00110692
-0.00148826
-0.000126492
-0.00214931
-0.00136783
-0.000720625
-0.00275999
-0.000275729
0.00460551
0.000549363
-0.00428033
-0.00342688
-0.000881521
0.00279409
0.00529907
-0.00161496
-0.00617536
-0.00515781
0.00239638
0.00304098
0.00126571
-0.000340178
-0.00227705
-3.86342e-05
0.000500923
-0.000549282
-0.000861423
-0.00256078
0.00111153
0.00332521
-0.00200665
-0.00121914
-0.00338253
-0.00369258
0.00356496
-0.00180379
-0.00496465
-0.000406258
0.00264264
0.00448262
0.000995817
-0.00159765
1.78043e-05
-0.00207272
-0.00133385
-0.000511086
-0.00298852
-0.000703065
0.00480616
0.00106384
-0.00440799
-0.00358447
-0.00108051
0.00249252
0.00542629
-0.00126249
-0.00668716
-0.00563952
0.00189361
0.00278232
0.00107565
-0.00039913
-0.00240356
4.85183e-05
0.000786628
-0.00013196
-0.00058688
-0.00271232
0.000815074
0.00336473
-0.00189174
-0.00125078
-0.00333047
-0.0041764
0.00351692
-0.00218384
-0.00501878
-0.000337864
0.00294372
0.00466418
0.000811339
-0.00176144
0.000107807
-0.00183014
-0.00133986
-0.000242986
-0.00305375
-0.00142767
0.00497781
0.00153444
-0.00425897
-0.00365838
-0.00127076
0.00208388
0.00552777
-0.000656295
-0.00683605
-0.00639972
0.000736896
0.00227043
0.000786272
-0.00038326
-0.00272075
-0.000582253
0.000706711
1.74102e-05
-0.000328248
-0.00273446
0.000558317
0.00355675
-0.00195146
-0.00155181
-0.00329255
-0.00444263
0.00346309
-0.00233698
-0.0058953
-0.000597528
0.00286611
0.00474475
0.000529308
-0.00197484
0.000172919
-0.00147743
-0.00133284
-1.03021e-05
-0.00298374
-0.00162833
0.00481858
0.00177834
-0.00372189
-0.00353935
-0.00137931
0.00149714
0.0052288
9.71396e-06
-0.00592326
-0.00640279
-0.000800851
0.00135866
0.000291586
-0.000574451
-0.00311661
-0.00164004
0.000105107
0.000142771
8.06563e-05
-0.00228713
0.000338287
0.00370683
-0.00198923
-0.00210799
-0.00351096
-0.00441393
0.00353738
-0.00205105
-0.00567522
-0.00111134
0.00216222
0.00454296
0.000233854
-0.00225796
0.000233899
-0.001172
-0.00125211
-6.82774e-05
-0.00298359
-0.00175656
0.00405171
0.00188266
-0.00308126
-0.00324639
-0.0012575
0.00091281
0.0044414
0.000409744
-0.00487459
-0.00566031
-0.00169825
0.000419378
-1.62986e-05
-0.000613233
-0.00334
-0.00266324
-0.000739584
0.000354469
0.000604034
-0.00214272
0.000141427
0.00346033
-0.00170068
-0.00214969
-0.00340965
-0.00431086
0.00302754
-0.00169943
-0.00525693
-0.00160076
0.00114207
0.00407469
0.000186156
-0.0025802
6.21505e-05
-0.00107896
-0.0011881
-0.000101012
-0.00310468
-0.00201066
0.00319878
0.00165692
-0.00265472
-0.00315625
-0.00126681
0.000200954
0.00355905
0.000374739
-0.00375384
-0.00468148
-0.00189322
-0.000150479
-0.000165585
-0.000311084
-0.00330326
-0.00304303
-0.00135126
0.000341951
0.000734776
-0.00228809
-0.000201646
0.00274398
-0.00134571
-0.00171916
-0.00287598
-0.00409619
0.00227866
-0.00128146
-0.0047008
-0.00192623
0.000449948
0.00347816
0.000218817
-0.00277648
-0.000188867
-0.00119526
-0.00123154
-0.00012537
-0.00314382
-0.00224224
0.00266539
0.00132322
-0.00243266
-0.00336584
-0.00173411
-0.000276385
0.00312349
0.000153008
-0.00299528
-0.00383866
-0.00177515
-0.000403523
-0.00018466
-0.000390948
-0.00299051
-0.00290611
-0.00159559
-0.000392423
0.000633853
-0.00250976
-0.000639097
0.00200545
-0.00117691
-0.00156317
-0.00238085
-0.0036563
0.00160858
-0.000879861
-0.00388486
-0.00198277
3.30415e-05
0.00281576
0.000176522
-0.00312701
-0.000482465
-0.00135725
-0.00122542
-0.000185833
-0.00306164
-0.00218498
0.00215662
0.00101593
-0.00199197
-0.00340926
-0.00242065
-0.000620995
0.00253573
-0.000177806
-0.0024379
-0.00307031
-0.00151031
-0.000509682
-0.000214065
-0.000175659
-0.00231054
-0.00282073
-0.00169278
-0.00107384
0.000474541
-0.00262131
-0.00103457
0.00148706
-0.00116306
-0.00151298
-0.00193129
-0.00305565
0.00118946
-0.000767944
-0.00295909
-0.00182069
-0.00050874
0.00213778
0.000108416
-0.00303617
-0.000820221
-0.00161551
-0.00137747
-0.000277049
-0.0028502
-0.00201192
0.00155318
0.000771084
-0.00165211
-0.00304656
-0.00279721
-0.000719831
0.00202973
-0.000373333
-0.00191347
-0.00269396
-0.0012071
-0.000442517
-0.000231469
3.74053e-05
-0.00177932
-0.00279068
-0.00160828
-0.00125282
0.000431308
-0.00290139
-0.00129737
0.00113226
-0.00117276
-0.00139981
-0.00154378
-0.00235532
0.000813069
-0.000803445
-0.00205914
-0.0016536
-0.000729223
0.00167731
0.000141232
-0.00254763
-0.00123012
-0.00180744
-0.00161383
-0.000302655
-0.00256085
-0.00200266
0.00110736
0.000735011
-0.00136191
-0.00230666
-0.00262326
-0.000608999
0.00166887
-0.000167386
-0.0011937
-0.0023818
-0.000863344
-0.000183614
-0.000153313
0.000230297
-0.00145772
-0.00152887
-0.0012954
-0.00102932
0.00055668
-0.00297267
-0.00132864
0.000898176
-0.00104004
-0.0011315
-0.00133487
-0.0018083
0.000758806
-0.000487153
-0.00121082
-0.0015243
-0.00093857
0.00140398
0.000912241
-0.00182806
-0.00133364
-0.00150391
-0.000927391
-0.000184117
-0.00207067
-0.00179658
0.000880168
0.000619229
-0.00111582
-0.00161161
-0.00211094
-0.000403827
0.00157801
0.00017624
-0.000494012
-0.0020585
-0.00067853
-0.000131856
-0.000234286
0.000267913
-0.00128894
-0.00089271
-0.000932927
-0.000837193
0.000673093
-0.00246675
-0.00101906
0.000567215
-0.000935444
-0.000793108
-0.00123863
-0.00132839
0.000764934
-0.000212285
-0.000667108
-0.00150067
-0.00084173
0.00113762
0.000849888
-0.00121753
-0.00124536
-0.0010085
-0.000104842
1.22725e-05
-0.00150549
-0.00145662
0.000660706
0.000518489
-0.000907373
-0.00112018
-0.00183133
-0.000369037
0.00132869
0.000370557
-0.000136838
-0.00157656
-0.000597687
-4.75452e-05
-0.000299663
0.000209375
-0.00115298
-0.000603956
-0.000327483
-0.000727419
0.000671346
-0.00189481
-0.000711512
0.000374562
-0.000843928
-0.000469614
-0.00104894
-0.00101369
0.000641832
-0.000246324
-0.000434982
-0.00123489
-0.000647915
0.000943296
0.000688191
-0.000844812
-0.000914674
-0.000702715
-0.000264129
0.00018144
-0.000985728
-0.0012823
0.000476305
0.000388687
-0.000803588
-0.000852714
-0.00166576
-0.000377754
0.00108023
0.000359826
-2.59807e-05
-0.00131303
-0.000579927
4.15354e-05
-0.00030881
0.000108337
-0.00105601
-0.000385934
-0.000235931
-0.000666223
0.000591933
-0.00142313
-0.000497371
7.44686e-05
-0.000831275
-0.000269649
-0.000966561
-0.00080395
0.000484739
-0.000341973
-0.000366723
-0.00098195
-0.000503738
0.000721865
0.000542383
-0.000635167
-0.00065316
-0.000522395
-0.000428875
0.000265225
-0.000594824
-0.00119008
0.000287098
0.000212035
-0.000747581
-0.00070049
-0.00121825
-0.00032204
0.000716932
0.000247296
1.74057e-05
-0.00107896
-0.000572982
1.61034e-05
-0.000321041
5.07967e-05
-0.000969572
-0.00026808
-0.00028571
-0.000634345
0.000478019
-0.00108051
-0.000333218
-7.98782e-05
-0.000813362
-0.000149696
-0.00096246
-0.000663574
0.000399572
-0.000383844
-0.000336349
-0.000780356
-0.000400718
0.000585652
0.000442672
-0.000515493
-0.000505387
-0.000391227
-0.0005557
0.000248729
-0.000376651
-0.00110598
0.000109282
0.000174215
-0.000681573
-0.00061396
-0.000957841
-0.000288255
0.00041699
0.000108837
5.71099e-05
-0.000881635
-0.000539317
-4.48825e-05
-0.000322799
1.67908e-05
-0.000877782
-0.000201099
-0.000307322
-0.000610492
0.000388963
-0.000855234
-0.000201866
-0.000142466
-0.000814297
-7.94495e-05
-0.000949924
-0.000569648
0.000322351
-0.000399384
-0.000309013
-0.00062754
-0.000358003
0.000439702
0.000317102
-0.000475813
-0.00043738
-0.000262959
-0.000633072
0.000170137
-0.000215672
-0.00102564
-5.8029e-05
0.000114706
-0.000593118
-0.000549103
-0.000788537
-0.000235533
0.000231052
-1.74672e-05
3.37797e-05
-0.000702287
-0.000469568
-0.000108267
-0.000310761
7.12306e-06
-0.000788307
-0.000169062
-0.00028618
-0.000611557
0.000324118
-0.000726836
-0.00013128
-0.000123423
-0.000828473
-3.9986e-05
-0.000859907
-0.000497571
0.000244901
-0.000409891
-0.000270361
-0.000520547
-0.00032854
0.000298149
0.000197747
-0.000449195
-0.000408599
-0.000130093
-0.00067408
5.02816e-05
-8.10074e-05
-0.000926527
-0.000186877
7.70974e-05
-0.000499049
-0.000499191
-0.000665814
-0.000189768
0.000126117
-0.000105705
-2.85744e-05
-0.000556153
-0.000409163
-0.000167511
-0.000303034
3.87208e-06
-0.000699205
-0.000116385
-0.000226594
-0.000631175
0.000279146
-0.000644726
-0.000126898
-4.34755e-05
-0.000849852
-1.66521e-05
-0.000692386
-0.000457439
0.00014325
-0.0004432
-0.000223375
-0.000455711
-0.000308606
0.000183975
8.42618e-05
-0.000437833
-0.000398626
-2.61977e-05
-0.000652412
-9.40481e-05
2.73556e-05
-0.000812865
-0.000281671
4.45887e-05
-0.000406035
-0.000454913
-0.000568728
-0.000167589
5.38729e-05
-0.000155305
-0.00010173
-0.000449791
-0.000351556
-0.000208322
-0.000306817
-4.26752e-06
-0.000616485
-0.000138893
-0.000143946
-0.000661643
0.00022752
-0.000571145
-0.000191739
7.50674e-05
-0.000862845
-2.9434e-05
-0.000574221
-0.000466306
9.35743e-05
-0.000488302
-0.000179242
-0.000384603
-0.000332556
0.000110165
-1.42199e-05
-0.000391006
-0.000360465
1.69662e-05
-0.000571914
-0.000259417
0.000105044
-0.000639399
-0.000380505
2.72965e-05
-0.000340809
-0.000431922
-0.000483624
-0.000168107
1.80233e-06
-0.000165979
-0.000152879
-0.000388165
-0.000300389
-0.000214241
-0.000321204
-1.68804e-05
-0.000535399
-0.00020337
-4.81184e-05
-0.000678285
0.000170189
-0.000464064
-0.000353647
0.00018407
-0.000838284
-0.000101152
-0.000401639
-0.00051544
0.000124431
-0.000515883
-0.000176469
-0.000278384
-0.000410728
8.58766e-05
-7.79495e-05
-0.000368962
-0.000306698
-1.71422e-05
-0.000449497
-0.000404682
0.000140282
-0.000477657
-0.00047467
4.63047e-09
-0.000248013
-0.000436323
-0.000395313
-0.000164451
-5.49622e-05
-0.000165092
-0.000166427
-0.00036142
-0.000269321
-0.000189284
-0.000338653
-3.53384e-05
-0.000440495
-0.000307824
4.00376e-05
-0.000642518
5.19033e-05
-0.00031052
-0.000493444
0.000269725
-0.000734281
-0.000222686
-0.000215021
-0.000587218
0.00016111
-0.000474432
-0.000241112
-0.000134251
-0.000506871
7.05615e-05
-0.000107835
-0.000405623
-0.000250764
-9.11284e-05
-0.000333152
-0.00048484
0.000110411
-0.00030474
-0.000531837
-5.43916e-05
-0.000129556
-0.000442493
-0.000333238
-0.000128056
-0.000123002
-0.000183092
-0.000139749
-0.000327898
-0.00026875
-0.000159704
-0.000353743
-5.90438e-05
-0.000313732
-0.000421084
6.89173e-05
-0.000538096
-0.000116067
-0.00015402
-0.000585894
0.000250226
-0.000544404
-0.000379269
-6.56013e-05
-0.000624991
9.04667e-05
-0.00034737
-0.000369454
1.19517e-05
-0.000547007
-3.73605e-06
-5.44043e-05
-0.00051187
-0.000197958
-6.28808e-05
-0.000278669
-0.000511314
3.61972e-05
-0.000132149
-0.000530705
-0.000150823
-1.4647e-05
-0.000441779
-0.00033945
-6.03734e-05
-0.000146875
-0.000235857
-9.94089e-05
-0.000270024
-0.000306433
-0.000141891
-0.000338822
-0.000120987
-0.000171271
-0.000493634
2.03638e-06
-0.000340937
-0.000275769
-6.72745e-05
-0.000565884
0.000114307
-0.000299058
-0.000500733
1.57792e-05
-0.000559154
-7.04235e-05
-0.000156969
-0.0004565
6.71298e-05
-0.000495297
-0.000196705
9.47224e-05
-0.000545951
-0.000238749
2.53839e-05
-0.000286725
-0.000516452
-4.71329e-05
-2.14002e-05
-0.000475156
-0.000239129
4.08694e-05
-0.000391376
-0.000393458
-1.65484e-05
-0.000147744
-0.000318821
-8.68434e-05
-0.000140956
-0.000349267
-0.000165189
-0.000264175
-0.000210078
-7.7239e-05
-0.00045938
-0.000144611
-0.000174082
-0.000345516
-8.73477e-05
-0.000446497
-6.66199e-05
-0.000139245
-0.000524328
-1.11112e-05
-0.00041741
-0.000248098
-4.78653e-05
-0.000462012
2.43284e-05
-0.000366994
-0.000389565
0.000184141
-0.000451652
-0.000402426
0.000122345
-0.000243822
-0.00053198
-8.91799e-05
2.24383e-05
-0.000388984
-0.000293405
3.00473e-06
-0.000286361
-0.000403709
-5.67776e-05
-9.10471e-05
-0.000360424
-0.000138819
-3.26755e-05
-0.000356138
-0.000238426
-0.000157921
-0.000275477
-7.62739e-05
-0.000313038
-0.000311692
-0.000119185
-0.000294021
-0.000166003
-0.000328806
-0.000212236
-7.51622e-05
-0.000432337
-0.000131488
-0.000268399
-0.000319892
-5.47398e-05
-0.000389478
-6.28317e-05
-0.00022684
-0.000507187
0.000156625
-0.000267673
-0.000545415
0.000100573
-0.000142017
-0.000540593
-0.00014172
8.53803e-06
-0.000260838
-0.00028113
-0.000130019
-0.000176925
-0.000331465
-0.000179922
-6.14022e-05
-0.000316054
-0.000229918
1.87236e-05
-0.000320141
-0.000327583
-8.00674e-05
-0.000282891
-0.000170646
-0.000145191
-0.000334079
-0.00018353
-0.000214511
-0.000190802
-0.000262986
-0.000311741
-8.77337e-05
-0.000270963
-0.000270353
-0.000218058
-0.000276536
-0.000147943
-0.000298718
-0.00010893
-0.000167061
-0.000505944
1.08427e-05
-8.15669e-05
-0.000534361
-6.5037e-05
-6.96145e-05
-0.000443934
-0.000221458
-7.92242e-05
-0.000111057
-0.000233791
-0.000310543
-9.55136e-05
-0.000200431
-0.000316875
-8.43078e-05
-0.000203589
-0.000257029
-2.17963e-05
-0.000281271
-0.000334485
-5.15783e-05
-0.000263658
-0.0002673
-9.2826e-05
-0.000260238
-0.000275848
-0.00021847
-0.000146889
-0.000216566
-0.000381318
-0.000111426
-0.000112164
-0.000367574
-0.000234217
-0.000174342
-0.000242776
-0.000228161
-0.000134468
-0.000199126
-0.000377003
-0.000134039
-7.36028e-05
-0.000359511
-0.000238351
-0.000107915
-0.000224335
-0.000292656
-0.000227958
-0.000872419
-0.000830483
-0.00025166
-0.000548923
-0.000351559
0.00075947
0.000231823
0.000826417
0.00303926
0.003312
8.9542e-05
-0.00253224
-0.00251803
-0.00181225
-0.00359114
-0.00100731
-0.000823061
-7.23416e-05
0.00637806
0.0053001
0.000612412
-0.00611508
-0.00519797
0.00333645
0.00257177
-0.00151036
-0.00177595
-0.000284645
-0.00144292
-0.000869436
0.000390388
0.0026695
0.00486365
0.00314387
-0.000143667
-0.00370651
-0.00559136
-0.000356435
0.00262528
0.00179353
-0.000847038
-0.000821469
-0.000257945
-0.000586981
-0.00038413
0.00077748
0.000249572
0.000816212
0.00304165
0.00330677
7.93128e-05
-0.00252853
-0.00252935
-0.00183957
-0.00364658
-0.00109279
-0.000851574
-5.33909e-05
0.00637767
0.00532553
0.000637451
-0.00613227
-0.00525815
0.0033114
0.00258331
-0.00149037
-0.00178216
-0.000287599
-0.00146368
-0.000964219
0.000351443
0.00270119
0.00488958
0.00313186
-0.0001551
-0.00370338
-0.00563356
-0.000388354
0.00259149
0.00176587
-0.000932636
-0.000882686
-0.000265181
-0.000601638
-0.000406041
0.000750881
0.00021332
0.000808754
0.00304692
0.00333999
4.85041e-05
-0.00253971
-0.00253069
-0.00189329
-0.0036715
-0.00118802
-0.00104906
-0.000266093
0.00639464
0.00534773
0.00069087
-0.00615752
-0.005311
0.00326934
0.00256378
-0.00145598
-0.00179018
-0.000298363
-0.00141717
-0.00101031
0.000242673
0.00253758
0.00485147
0.00322271
-0.000178427
-0.003734
-0.00563993
-0.000453562
0.00256813
0.00173062
-0.0010892
-0.00105534
-0.00030604
-0.000669334
-0.000477599
0.000733982
2.80339e-06
0.000668124
0.00310955
0.00341582
6.65108e-05
-0.00251425
-0.00250859
-0.00195453
-0.00370272
-0.00136116
-0.00128623
-0.000691176
0.0057578
0.00517762
0.000760922
-0.00616187
-0.00533359
0.00315407
0.00244545
-0.00148068
-0.00176952
-0.000308628
-0.00141524
-0.000994363
0.000138
0.0022876
0.00455062
0.00323929
-0.000116564
-0.00378899
-0.00559426
-0.000587318
0.00249239
0.00179453
-0.00116262
-0.00126518
-0.000371326
-0.00071182
-0.000690645
0.000605599
-0.000307938
0.000434239
0.00314722
0.00349667
0.000151653
-0.00241908
-0.0023487
-0.00194838
-0.00378434
-0.00160964
-0.0015665
-0.00103727
0.00508504
0.00476747
0.000802439
-0.00606381
-0.00522266
0.00301361
0.00203968
-0.00169833
-0.00160894
-0.000208689
-0.00145121
-0.00097824
1.1447e-05
0.00205296
0.00404904
0.00318794
1.51761e-05
-0.00385107
-0.00550463
-0.000741152
0.00227505
0.00189045
-0.00125303
-0.00138841
-0.000382441
-0.000705162
-0.000889352
0.000388136
-0.000705439
0.000145786
0.00318752
0.00364348
0.000238338
-0.00230222
-0.00206556
-0.00169701
-0.00372402
-0.00167353
-0.00176851
-0.00114639
0.00455139
0.00429029
0.00080498
-0.00585329
-0.00498841
0.00300336
0.00145407
-0.00219132
-0.00144528
0.000107092
-0.00133917
-0.000915875
-0.000155768
0.00190111
0.00369857
0.00312381
0.000214743
-0.00381023
-0.0054804
-0.000804529
0.0019849
0.00186449
-0.00137783
-0.00146623
-0.000387776
-0.000662885
-0.00100172
0.000266321
-0.00103414
-0.000181082
0.00317756
0.00382511
0.000360131
-0.0021244
-0.00193393
-0.00146651
-0.00336875
-0.00145584
-0.00188671
-0.0011496
0.00428072
0.00385195
0.000758552
-0.00560302
-0.00477444
0.00308571
0.00106262
-0.00274126
-0.00141644
0.000462464
-0.00112439
-0.000705677
-0.000223141
0.00178935
0.00339758
0.00299647
0.000326111
-0.00361535
-0.00541697
-0.000712421
0.00184098
0.00165997
-0.0014262
-0.00152541
-0.000453652
-0.000535597
-0.0010771
0.000123203
-0.00120314
-0.000483819
0.00296845
0.00383829
0.000535667
-0.00184469
-0.00191809
-0.00146696
-0.0030138
-0.00109916
-0.00182978
-0.0012902
0.00396911
0.00338597
0.000657451
-0.00530322
-0.00468764
0.00324767
0.00092835
-0.00318308
-0.00159033
0.000331387
-0.00121727
-0.000564218
-0.000160085
0.00173069
0.00313794
0.00278546
0.000346473
-0.00335592
-0.00520093
-0.000520654
0.00203485
0.00154759
-0.00137721
-0.00149354
-0.000518009
-0.000362921
-0.00118801
-0.00020543
-0.00130115
-0.000633807
0.002411
0.00354327
0.000538988
-0.00160212
-0.00178501
-0.00131723
-0.002765
-0.00085712
-0.00160798
-0.00150593
0.00342716
0.00272421
0.000596832
-0.00483718
-0.00468085
0.00318845
0.00114173
-0.00323691
-0.00195154
-2.69251e-05
-0.00150574
-0.000581327
-0.000125144
0.00168224
0.00289039
0.0023841
0.000390618
-0.0030976
-0.00491167
-0.000443323
0.00232236
0.00150558
-0.00125123
-0.00132802
-0.000496478
-0.000160233
-0.0012302
-0.000567108
-0.00139602
-0.000577481
0.00187274
0.00294601
0.000215632
-0.00135134
-0.00161485
-0.00119044
-0.00251938
-0.00088118
-0.00136969
-0.00175298
0.00297694
0.00225501
0.00049394
-0.0041655
-0.00458648
0.00276062
0.00109662
-0.00307201
-0.00198636
-0.00018603
-0.00169659
-0.000700106
-0.000160693
0.00158303
0.00266073
0.00193425
0.000447442
-0.00275025
-0.00452079
-0.000447887
0.00233407
0.00118664
-0.00135852
-0.00111434
-0.000403595
-5.38486e-05
-0.00121962
-0.000826404
-0.00116057
-0.000429387
0.00144153
0.00224535
-0.000415746
-0.00118684
-0.00140363
-0.00108839
-0.00227869
-0.00120888
-0.00153712
-0.00191432
0.00259202
0.00198012
0.000356672
-0.00349764
-0.00424749
0.00267716
0.00101857
-0.00304001
-0.00176628
-0.000157303
-0.00173612
-0.000895802
-0.000280684
0.00135374
0.00223845
0.00143891
0.000391327
-0.00236691
-0.00401831
-0.000449596
0.00198749
0.000648279
-0.00164167
-0.000946421
-0.000274624
-9.46084e-06
-0.00122066
-0.000937769
-0.000897557
-0.000310577
0.00110278
0.00156113
-0.00103215
-0.00114053
-0.00126277
-0.0010024
-0.00204976
-0.0016619
-0.00160495
-0.00196247
0.00200755
0.00181754
0.000218833
-0.0027369
-0.00366851
0.00270261
0.000970796
-0.00307368
-0.0017896
-0.000219186
-0.00167766
-0.00107936
-0.000552116
0.000693167
0.00183191
0.000836567
0.000171528
-0.00211498
-0.00341737
-0.000367121
0.00155717
3.98292e-05
-0.00192148
-0.000924947
-0.000217378
-0.000118275
-0.00143434
-0.000956029
-0.000753387
-0.000282393
0.000796651
0.00105157
-0.00135201
-0.00133814
-0.00118869
-0.000879673
-0.00180023
-0.00197821
-0.0015872
-0.00179442
0.00148282
0.00154286
0.000115274
-0.00234832
-0.00322632
0.0025665
0.00078643
-0.00309727
-0.00190727
-0.000471335
-0.00152063
-0.00114693
-0.000781426
0.000426848
0.00158614
0.000410199
-9.82328e-05
-0.00206607
-0.00281909
-0.000172955
0.00110908
-0.000400884
-0.00187425
-0.000874483
-0.000430382
-0.000190024
-0.00165203
-0.0012878
-0.000536881
-0.000315294
0.000539678
0.000808683
-0.00140527
-0.00156488
-0.00116458
-0.000680346
-0.00170858
-0.00214075
-0.001722
-0.00160272
0.00127037
0.00136143
-0.000143386
-0.00242646
-0.00299235
0.00194524
0.000590873
-0.00296536
-0.00222861
-0.000841389
-0.00120377
-0.00109068
-0.000977479
0.000364607
0.0014172
0.000216642
-0.00030863
-0.00206553
-0.00225046
0.000107696
0.000944921
-0.000507734
-0.001589
-0.000705267
-0.000267006
-0.00012941
-0.00172487
-0.00127967
-0.000409966
-0.000297358
0.000299235
0.000819353
-0.00119508
-0.00149066
-0.0010439
-0.000514522
-0.0016198
-0.00203247
-0.00174613
-0.00137797
0.00119841
0.00114418
-0.00043572
-0.00207811
-0.00248705
0.00134468
0.000351145
-0.00262429
-0.00236068
-0.00117895
-0.000703428
-0.000894834
-0.00103012
0.000152443
0.0010673
0.000213785
-0.000637664
-0.0018822
-0.00182469
0.000169418
0.000979888
-0.000378458
-0.00123394
-0.00054708
-0.000378631
-0.000149274
-0.00149115
-0.00110353
-0.000393445
-0.00030258
0.000293203
0.00087255
-0.000730434
-0.0011358
-0.00112915
-0.000371072
-0.00119337
-0.00130501
-0.00159587
-0.00134193
0.00112337
0.000805222
-0.00043197
-0.00161266
-0.00192495
0.000866771
0.000227796
-0.00204401
-0.00233283
-0.00115472
-0.000270761
-0.000291154
-0.00088394
-0.00023949
0.0006295
0.00015577
-0.000462514
-0.00137229
-0.00150632
0.000150614
0.000953813
-0.000356597
-0.00105378
-0.000650166
-0.000612743
-5.81384e-05
-0.000817961
-0.000740668
-0.000495354
-0.000361465
0.000479588
0.000841251
-0.000413809
-0.000739435
-0.00108665
-0.000180197
-0.000707032
-0.000669424
-0.00143823
-0.00137282
0.00106633
0.000734246
-0.000191889
-0.00136005
-0.00169197
0.000574686
0.000413777
-0.00148996
-0.00206926
-0.000866217
-0.000193873
-0.000193029
-0.000705861
-0.000436836
0.000515339
5.94897e-05
-0.00015931
-0.000855901
-0.00131328
7.9808e-05
0.00092984
-0.000288098
-0.00083972
-0.000778511
-0.000723181
1.0109e-05
-0.000366132
-0.000479925
-0.000375696
-0.000449088
0.000520734
0.00074812
-0.000284718
-0.000489388
-0.000955401
-0.000116776
-0.000480456
-0.000329645
-0.00143442
-0.00136897
0.00100297
0.000645597
-2.66694e-05
-0.00126712
-0.00156995
0.000359998
0.000367568
-0.00104391
-0.00157347
-0.000633732
-0.000265583
-0.000140374
-0.000539362
-0.000576399
0.000434512
-3.40741e-05
9.24238e-05
-0.000576058
-0.00118899
3.71041e-05
0.000877136
-0.000257991
-0.000638507
-0.000869183
-0.000736951
-2.19516e-05
-7.69434e-05
-0.000299087
-0.000342005
-0.000344789
0.000453503
0.000609274
-0.000254711
-0.000434934
-0.000777923
-8.78018e-05
-0.000402856
-0.000105434
-0.0011867
-0.00129392
0.000875986
0.00044956
7.29686e-05
-0.00105596
-0.00136531
0.000221688
0.000220015
-0.00077758
-0.001163
-0.000557893
-0.000311279
-0.000116816
-0.000438393
-0.0005777
0.000316749
-0.000106229
0.000221892
-0.000434069
-0.00111542
3.00533e-05
0.000588762
-0.000220767
-0.000501804
-0.000701724
-0.000688605
-8.59721e-05
0.000173386
-0.000194976
-0.000262825
-0.000260735
0.000311879
0.000437492
-0.000229106
-0.000374111
-0.000606629
-0.000126388
-0.000388798
5.69319e-06
-0.000981587
-0.00121805
0.00074005
0.000284252
0.000139904
-0.000852498
-0.00120723
0.000138607
6.62957e-05
-0.000589528
-0.000851624
-0.000537907
-0.000334827
-7.64178e-05
-0.000382532
-0.00053806
0.000179792
-0.000168402
0.000221309
-0.000324809
-0.001033
2.1952e-05
0.000558595
-0.00019273
-0.000406801
-0.000563917
-0.000627241
-0.00015415
0.000242853
-0.000150846
-0.00020222
-0.000226186
0.000169971
0.000270293
-0.000205933
-0.000327478
-0.000485059
-8.49296e-05
-0.000388063
3.46114e-05
-0.000792786
-0.00111989
0.000627843
0.000117168
0.000206478
-0.000664053
-0.00110159
0.000104005
-6.20745e-05
-0.000506177
-0.000619471
-0.000515127
-0.000331963
-4.54327e-05
-0.000307391
-0.000489549
0.000124024
-0.000216996
0.000109751
-0.000219445
-0.000966947
-5.46687e-06
0.000506285
-0.000141296
-0.000361515
-0.000461877
-0.000562125
-0.000215274
0.000165166
-0.000146158
-0.000147369
-0.000213706
8.47911e-05
0.000135419
-0.000235246
-0.000284163
-0.000411563
-2.76006e-05
-0.000391668
2.36867e-05
-0.000579248
-0.00103123
0.000526319
-4.4898e-05
0.000105744
-0.000481432
-0.00103488
7.19798e-05
-0.000168807
-0.000461554
-0.000437505
-0.000486297
-0.000302232
-5.11921e-05
-0.000243809
-0.000444412
7.17544e-05
-0.000244826
-3.02157e-06
-0.000101979
-0.000898151
-7.43546e-05
0.000454453
-0.000155247
-0.000353031
-0.000366575
-0.000510814
-0.00026468
6.15737e-05
-0.000159758
-9.85339e-05
-0.000206347
1.21376e-05
4.67302e-05
-0.000252239
-0.000235658
-0.000371226
1.01004e-05
-0.000406995
-1.68373e-05
-0.000375042
-0.000963713
0.000443018
-0.000155497
8.21708e-07
-0.000291598
-0.00101323
6.80004e-05
-0.00025601
-0.000440951
-0.000273887
-0.000477026
-0.000246139
-8.11612e-05
-0.000170529
-0.000380646
-2.97958e-05
-0.000246358
-0.000109206
1.24593e-06
-0.000801115
-0.000176156
0.000427914
-0.000171475
-0.000376998
-0.000272073
-0.000424739
-0.000301367
-1.50625e-05
-0.000171483
-7.28853e-05
-0.000194735
-5.28677e-05
-5.40745e-06
-0.000256176
-0.000197217
-0.000347638
2.32623e-05
-0.000390007
-8.64557e-05
-0.00020139
-0.000902434
0.000347931
-0.000217209
-0.000137741
-8.74991e-05
-0.000951892
3.72021e-05
-0.000292661
-0.000456972
-0.000109755
-0.000486195
-0.000186942
-0.000107462
-0.000217729
-0.000296441
-9.33547e-05
-0.000210401
-0.000221252
6.51334e-05
-0.000663884
-0.000293006
0.00039517
-0.000210186
-0.000426535
-0.000186007
-0.000335969
-0.000339472
-6.95826e-05
-0.000175633
-7.90649e-05
-0.000173542
-0.000105657
-4.90788e-05
-0.000250626
-0.000178191
-0.000331939
1.85946e-05
-0.000349488
-0.000197743
-5.38097e-05
-0.000835354
0.000225843
-0.000207663
-0.000309434
0.000114226
-0.000887182
-3.80604e-05
-0.000221495
-0.00050725
9.75129e-06
-0.000496732
-0.000170339
-0.00010946
-0.000292059
-0.000204221
-0.000129039
-9.79231e-05
-0.000264185
9.78295e-05
-0.000477616
-0.000413519
0.000332704
-0.000181183
-0.000487281
-0.000153999
-0.000242121
-0.000386764
-0.000122654
-0.000160208
-0.000120641
-0.000155905
-0.000125365
-9.60675e-05
-0.00024067
-0.000162014
-0.000323289
-1.82378e-06
-0.000286008
-0.00031752
4.75474e-05
-0.000730216
6.45786e-05
-0.000129696
-0.000478355
0.000233412
-0.000772315
-0.000188772
-9.71375e-05
-0.000576048
8.59977e-05
-0.000439754
-0.000223372
-7.02137e-05
-0.000390803
-0.000134621
-0.000131551
-0.000153966
-0.000244038
5.61777e-05
-0.00033488
-0.000492071
0.000220436
-0.000106115
-0.000524
-0.000179596
-0.000120333
-0.000428019
-0.00018966
-0.000102035
-0.000185497
-0.000169268
-9.85221e-05
-0.000141597
-0.000241374
-0.000146215
-0.000315392
-3.76949e-05
-0.0001974
-0.000428151
7.12316e-05
-0.000562309
-0.000127848
-2.7669e-05
-0.000576357
0.000210191
-0.000556347
-0.000367725
3.31912e-05
-0.000607121
5.6821e-05
-0.000308149
-0.000363273
7.72368e-07
-0.000435042
-0.00014698
-8.24716e-05
-0.000291072
-0.000203473
-4.01945e-06
-0.000253889
-0.000506701
7.72598e-05
-1.08421e-05
-0.000498007
-0.000235059
-9.46135e-06
-0.000429429
-0.000278101
-2.53057e-05
-0.000228632
-0.00023517
-4.53306e-05
-0.000151108
-0.000272479
-0.000132802
-0.000297992
-0.000102395
-9.55181e-05
-0.000479369
-5.16156e-06
-0.000333997
-0.000287551
2.61584e-05
-0.000553841
7.38517e-05
-0.000297951
-0.000491292
8.30797e-05
-0.00054478
-7.54278e-05
-0.000111425
-0.00043155
2.33297e-05
-0.000394803
-0.000212478
3.45622e-05
-0.000363968
-0.000230176
1.8641e-05
-0.000229891
-0.000492623