/*--------------------------------*- C++ -*----------------------------------*\
  =========                 |
  \\      /  F ield         | OpenFOAM: The Open Source CFD Toolbox
   \\    /   O peration     | Website:  https://openfoam.org
    \\  /    A nd           | Version:  10
     \\/     M anipulation  |
\*---------------------------------------------------------------------------*/
FoamFile
{
    format      ascii;
    class       volVectorField;
    location    "5";
    object      U;
}
// * * * * * * * * * * * * * * * * * * * * * * * * * * * * * * * * * * * * * //

dimensions      [0 1 -1 0 0 0 0];

internalField   nonuniform List<vector> 
102400
(
(0.0892021 -5.82969e-06 -0.00155166)
(0.0893289 1.96894e-05 -0.00128131)
(0.0885664 5.05614e-05 -0.000702585)
(0.0889514 5.88931e-05 -0.000825199)
(0.0877629 2.51363e-05 -0.00146933)
(0.0884176 -1.05135e-05 -0.00228171)
(0.0872941 5.97712e-06 -0.00183245)
(0.0879255 5.76933e-05 -0.00122079)
(0.0871369 6.00726e-05 -0.000794178)
(0.0877761 2.72763e-05 -0.00135642)
(0.0878971 -1.63318e-05 -0.00152754)
(0.0882218 2.44014e-05 -0.00103643)
(0.0887982 5.91869e-05 -0.000348067)
(0.0885601 6.86711e-05 -0.000470645)
(0.089179 3.65357e-05 -0.00121763)
(0.0886663 -1.35664e-05 -0.00191399)
(0.0893461 -4.10668e-07 -0.00159769)
(0.0883662 4.69214e-05 -0.00111972)
(0.0890518 5.60437e-05 -0.000590305)
(0.0881424 2.24571e-05 -0.00132307)
(0.0891853 -2.01245e-05 -0.0016699)
(0.0883109 6.78667e-06 -0.00168456)
(0.0893619 5.00894e-05 -0.000851403)
(0.0882315 6.55228e-05 -0.000928857)
(0.0896027 2.32983e-05 -0.00149829)
(0.0884297 -1.96405e-05 -0.0017848)
(0.0902515 -5.60934e-06 -0.00140287)
(0.088595 4.48785e-05 -0.000505515)
(0.0905217 6.91479e-05 -0.00025679)
(0.0887185 3.07257e-05 -0.00108217)
(0.0908079 -2.69806e-05 -0.00123424)
(0.0888969 1.60588e-06 -0.00120082)
(0.0903454 5.28911e-05 -0.000188566)
(0.0883286 5.48249e-05 -0.000382271)
(0.0895047 2.25008e-05 -0.000902342)
(0.0883702 -2.33172e-05 -0.00135156)
(0.0893994 2.84471e-06 -0.000810047)
(0.0889074 5.20214e-05 1.87285e-05)
(0.0893194 7.38209e-05 -5.47862e-05)
(0.0892229 2.78839e-05 -0.000862716)
(0.269519 0.000188424 -0.00298749)
(0.270356 0.000290014 -0.00236667)
(0.267758 0.00039311 -0.00176746)
(0.270036 0.000380774 -0.00246321)
(0.26657 0.000246283 -0.00361686)
(0.268272 0.000175936 -0.00517885)
(0.264181 0.000272956 -0.00400351)
(0.265608 0.000438955 -0.00322219)
(0.263905 0.000387694 -0.00206976)
(0.265135 0.000271999 -0.00316861)
(0.265478 0.000174094 -0.00282166)
(0.265279 0.000349931 -0.00223205)
(0.267706 0.000438449 -0.00115464)
(0.267627 0.000406203 -0.00164665)
(0.2704 0.000250196 -0.00304549)
(0.268594 0.000107098 -0.00408707)
(0.270164 0.000201218 -0.00338609)
(0.267168 0.000362447 -0.00284549)
(0.269824 0.000328604 -0.00176878)
(0.267146 0.000207262 -0.00322297)
(0.269845 9.03261e-05 -0.00335548)
(0.266596 0.000246447 -0.00371195)
(0.269805 0.000363369 -0.00216047)
(0.266806 0.000375145 -0.00261914)
(0.27156 0.000182614 -0.00361341)
(0.26716 0.000100873 -0.00381415)
(0.272302 0.000174519 -0.00293992)
(0.266872 0.000369056 -0.00143278)
(0.273428 0.00036463 -0.000922047)
(0.2686 0.000225287 -0.00241536)
(0.274515 5.01185e-05 -0.00228944)
(0.268585 0.000224927 -0.00238477)
(0.273076 0.000359326 -0.000606483)
(0.268113 0.000331762 -0.00123924)
(0.27106 0.000194157 -0.00187795)
(0.267503 9.53862e-05 -0.00267538)
(0.268883 0.000233958 -0.00145843)
(0.267823 0.000424168 -0.000273409)
(0.26936 0.000440216 -0.000441928)
(0.27032 0.000263678 -0.00181729)
(0.445668 0.000636096 -0.00318358)
(0.449848 0.000846757 -0.00288953)
(0.445123 0.00103322 -0.0023556)
(0.450174 0.000954275 -0.00345584)
(0.444303 0.00065953 -0.00409489)
(0.447248 0.000596466 -0.00664189)
(0.441403 0.000846434 -0.00576107)
(0.44254 0.00116968 -0.00588642)
(0.440272 0.000983249 -0.00349874)
(0.439022 0.000737613 -0.00441416)
(0.440265 0.000599487 -0.00330702)
(0.438568 0.000973507 -0.00322237)
(0.443543 0.00114924 -0.00242722)
(0.443443 0.0010087 -0.00246224)
(0.448616 0.000639768 -0.00375194)
(0.445934 0.000417284 -0.00508036)
(0.449507 0.000641418 -0.00457955)
(0.445158 0.000978787 -0.0050097)
(0.449404 0.000820908 -0.0030753)
(0.444069 0.000586511 -0.00443576)
(0.448093 0.000382436 -0.00382523)
(0.44291 0.000769679 -0.00515159)
(0.448875 0.000967317 -0.003901)
(0.443027 0.000925908 -0.00386384)
(0.450854 0.000509454 -0.00489497)
(0.442591 0.00043394 -0.00517012)
(0.45172 0.000602863 -0.00452667)
(0.442926 0.000996583 -0.00345758)
(0.453211 0.000874551 -0.00192838)
(0.445016 0.000599306 -0.0030392)
(0.45387 0.000318232 -0.00252886)
(0.44613 0.000728056 -0.00339245)
(0.453672 0.000932768 -0.00182701)
(0.447661 0.000845183 -0.00226736)
(0.450186 0.000530918 -0.0021173)
(0.44516 0.000430717 -0.00324546)
(0.444648 0.000741386 -0.00227781)
(0.443913 0.00112599 -0.00140548)
(0.444676 0.00109333 -0.000989226)
(0.447767 0.000715687 -0.0015668)
(0.601201 0.00118566 -0.0014826)
(0.611218 0.00149919 -0.00112611)
(0.607505 0.00199942 -0.00169941)
(0.615846 0.00203099 -0.00544127)
(0.606878 0.00139787 -0.00469026)
(0.608525 0.00107659 -0.00569199)
(0.604943 0.00146567 -0.00405386)
(0.607638 0.00226963 -0.00794715)
(0.607592 0.00212487 -0.00674308)
(0.599348 0.00155277 -0.00684174)
(0.59897 0.00111054 -0.00265167)
(0.595562 0.00159758 -0.00130303)
(0.604293 0.00215242 -0.00342577)
(0.604762 0.00212933 -0.00482725)
(0.609992 0.00138398 -0.00509808)
(0.604458 0.000837918 -0.0046282)
(0.611176 0.00106339 -0.00264391)
(0.609567 0.00189775 -0.00623518)
(0.616731 0.00178418 -0.00587175)
(0.606866 0.0013171 -0.00695682)
(0.609115 0.00073648 -0.00323701)
(0.602424 0.00134036 -0.00341973)
(0.614494 0.00192414 -0.00522567)
(0.606819 0.00200025 -0.00648368)
(0.614525 0.00118187 -0.00665272)
(0.600381 0.00088784 -0.00520954)
(0.612837 0.00110915 -0.00352529)
(0.605202 0.00197965 -0.00540851)
(0.618772 0.0018886 -0.00568763)
(0.606485 0.00131195 -0.00529402)
(0.612914 0.000644912 -0.00154045)
(0.605807 0.0013222 -0.00171513)
(0.617199 0.00181605 -0.0026783)
(0.614444 0.00188809 -0.00567521)
(0.613873 0.00118284 -0.00375994)
(0.607906 0.000867533 -0.00248084)
(0.604235 0.00130763 -0.000868476)
(0.606556 0.00212755 -0.00243988)
(0.604562 0.00228248 -0.0042927)
(0.607854 0.00151455 -0.0024154)
(0.729472 0.00239924 -0.0028124)
(0.737169 0.00197259 0.00508913)
(0.738587 0.00238466 0.00676186)
(0.755924 0.00324464 -0.00534615)
(0.748395 0.00310052 -0.0102454)
(0.740261 0.00237326 -0.0079396)
(0.734987 0.00182128 0.00374169)
(0.741472 0.00260128 -0.000696764)
(0.755506 0.00339608 -0.0078713)
(0.744499 0.00317524 -0.0138687)
(0.734818 0.00243255 -0.00579254)
(0.723813 0.00207253 0.00622959)
(0.73577 0.00238092 0.00411723)
(0.743271 0.00324955 -0.00557896)
(0.750966 0.00294877 -0.0111341)
(0.736572 0.00213496 -0.00807883)
(0.738303 0.00132316 0.00374958)
(0.740986 0.00206569 0.0012576)
(0.760307 0.00275516 -0.00595357)
(0.751199 0.00287063 -0.0137103)
(0.745457 0.00186105 -0.00706439)
(0.72907 0.00165561 0.00316544)
(0.748196 0.00221392 0.0019894)
(0.749489 0.00322042 -0.00762978)
(0.758747 0.00273597 -0.0127625)
(0.734164 0.00210945 -0.00825784)
(0.739877 0.00150187 0.002344)
(0.736329 0.00238526 0.00183212)
(0.759777 0.00309392 -0.00794621)
(0.750662 0.00293424 -0.0139746)
(0.74589 0.00162656 -0.00487786)
(0.73303 0.00180701 0.00455207)
(0.746917 0.00213676 0.00543465)
(0.756401 0.00311505 -0.00762899)
(0.755184 0.00271634 -0.0115045)
(0.74573 0.0019893 -0.00521091)
(0.733837 0.00178171 0.00508757)
(0.741571 0.00246189 0.00501898)
(0.74322 0.0036373 -0.00733046)
(0.74815 0.00324677 -0.0103592)
(0.840536 0.00479275 -0.0165046)
(0.832246 0.00374958 0.00384066)
(0.828029 0.00223251 0.023888)
(0.852887 0.00237937 0.0112186)
(0.862339 0.00400476 -0.0116031)
(0.849415 0.0050377 -0.0217026)
(0.833562 0.00387115 0.00377231)
(0.828044 0.00230424 0.0176267)
(0.857581 0.00251014 0.00873842)
(0.864804 0.00375291 -0.0153402)
(0.85224 0.00480057 -0.0199915)
(0.826808 0.00410968 0.00641909)
(0.829207 0.00209946 0.0225817)
(0.8417 0.00223307 0.0108054)
(0.864786 0.0033515 -0.0117956)
(0.849609 0.00443299 -0.0214412)
(0.837167 0.00325262 0.00136854)
(0.828228 0.00183895 0.0174839)
(0.857666 0.00157398 0.0107622)
(0.866525 0.00334439 -0.0141216)
(0.86211 0.00413479 -0.0210687)
(0.828703 0.00343898 0.00127934)
(0.836574 0.00197533 0.0195495)
(0.848675 0.0023933 0.00804633)
(0.87492 0.00346296 -0.014519)
(0.850525 0.00437233 -0.02074)
(0.838465 0.00339897 0.000278547)
(0.825381 0.00248152 0.0193466)
(0.854403 0.00233419 0.00893331)
(0.867279 0.0037971 -0.0179298)
(0.860109 0.00361947 -0.0197219)
(0.832538 0.0036692 0.00202871)
(0.834205 0.00210315 0.0236108)
(0.854999 0.00241229 0.008701)
(0.866355 0.00355144 -0.0158689)
(0.860256 0.00403939 -0.01876)
(0.834347 0.00370824 0.00329284)
(0.83591 0.00234415 0.02335)
(0.843071 0.00293096 0.00747332)
(0.863278 0.0043171 -0.0169905)
(0.925547 0.00559706 -0.0275349)
(0.908543 0.00671672 -0.0139844)
(0.892944 0.00373565 0.0279041)
(0.90878 0.0001674 0.0372513)
(0.932838 0.00134592 0.00804991)
(0.928759 0.00590307 -0.0307678)
(0.912245 0.00743357 -0.0139817)
(0.889804 0.00405322 0.0233254)
(0.911547 0.000435963 0.0358025)
(0.936537 0.000769453 0.00530869)
(0.938652 0.00514009 -0.0288846)
(0.910241 0.00725479 -0.0108611)
(0.900035 0.00369654 0.0286166)
(0.902198 0.000257784 0.0376955)
(0.934679 0.000175522 0.00881421)
(0.933305 0.00441348 -0.0273915)
(0.917169 0.0063409 -0.0163115)
(0.893364 0.00378061 0.0204416)
(0.911481 -0.000528296 0.0356952)
(0.933431 0.000219461 0.0063642)
(0.945473 0.0044675 -0.0283541)
(0.910953 0.00653596 -0.0170941)
(0.900458 0.00373506 0.0244735)
(0.904134 0.000374678 0.0346246)
(0.941997 0.000754007 0.00386868)
(0.93682 0.00477078 -0.0273427)
(0.917721 0.00637798 -0.0170901)
(0.893 0.0045849 0.0234246)
(0.906164 0.000634829 0.0369435)
(0.933473 0.00128351 0.00108031)
(0.94362 0.0037205 -0.028413)
(0.912975 0.00654757 -0.0165884)
(0.897298 0.00385548 0.0281232)
(0.911133 0.000542239 0.0368958)
(0.931988 0.00121085 0.000993075)
(0.941805 0.00419983 -0.0275376)
(0.913003 0.00659323 -0.0146062)
(0.90365 0.00408335 0.0295502)
(0.901942 0.000942805 0.0361447)
(0.933197 0.00183442 -0.00170378)
(0.970192 0.00341879 -0.020103)
(0.958049 0.00822035 -0.0308323)
(0.943034 0.0060883 0.0112619)
(0.948519 -0.000574257 0.0464592)
(0.969465 -0.00251225 0.033869)
(0.969081 0.00372613 -0.0207156)
(0.961852 0.0092728 -0.0311678)
(0.939916 0.00677369 0.00728166)
(0.948935 -1.43379e-05 0.0450425)
(0.970139 -0.00310276 0.0316479)
(0.981232 0.00256162 -0.0193414)
(0.963196 0.00861386 -0.0280214)
(0.953956 0.00603808 0.0123317)
(0.947909 5.11513e-05 0.0472014)
(0.970732 -0.00354798 0.0339612)
(0.976581 0.00137388 -0.0152756)
(0.967306 0.00753711 -0.0308517)
(0.945684 0.00658646 0.00418265)
(0.95072 -0.000698608 0.0430301)
(0.966372 -0.00361322 0.0312492)
(0.984799 0.00185089 -0.0175896)
(0.963261 0.00811483 -0.0336725)
(0.95058 0.00650781 0.00809893)
(0.945463 6.45318e-05 0.0453352)
(0.972489 -0.00288781 0.0281617)
(0.980281 0.00231213 -0.0170836)
(0.967187 0.00772079 -0.0322161)
(0.946008 0.00746001 0.0069429)
(0.946051 0.000773718 0.0475018)
(0.963321 -0.00204713 0.0272522)
(0.983972 0.000896121 -0.0186341)
(0.964004 0.00783192 -0.0325075)
(0.945876 0.00641908 0.0112239)
(0.951078 7.57443e-05 0.0489355)
(0.963935 -0.00197008 0.025725)
(0.981369 0.00169985 -0.0187514)
(0.962037 0.00771082 -0.0310163)
(0.95402 0.00655594 0.0141214)
(0.94474 0.000565411 0.0501257)
(0.966308 -0.00187717 0.0242661)
(0.988594 0.00128162 -0.00288009)
(0.979589 0.00741431 -0.0325511)
(0.976187 0.00657767 -0.00973448)
(0.984414 -0.000308962 0.0336721)
(0.996653 -0.0038553 0.0441239)
(0.986036 0.00177369 -0.00186609)
(0.982204 0.00848083 -0.0330533)
(0.97364 0.00752008 -0.0130654)
(0.984148 0.000429044 0.0313351)
(0.995878 -0.004297 0.0417132)
(0.997075 0.000465024 -0.00222028)
(0.985553 0.00769788 -0.0309502)
(0.986617 0.00644793 -0.00909681)
(0.987036 0.00078052 0.0340555)
(0.997966 -0.00433541 0.042353)
(0.995003 -0.000928762 0.00187338)
(0.986978 0.00639509 -0.0308668)
(0.979362 0.00723462 -0.0142969)
(0.986539 4.12748e-05 0.0295178)
(0.993573 -0.0047369 0.0404613)
(0.999218 -0.000210148 -9.06347e-05)
(0.98415 0.00760275 -0.0349679)
(0.981801 0.00735921 -0.0129206)
(0.984116 0.00074762 0.0337539)
(0.996334 -0.00400762 0.0385268)
(0.997392 0.000261199 -0.000264295)
(0.987108 0.00706416 -0.032899)
(0.978749 0.00837363 -0.0134598)
(0.984 0.00179742 0.0346781)
(0.988491 -0.00288462 0.03919)
(0.999387 -0.00158337 -0.00137847)
(0.98531 0.00708152 -0.0332826)
(0.977883 0.00720199 -0.0104812)
(0.98751 0.000421538 0.0373743)
(0.989674 -0.00282399 0.037515)
(0.996293 -0.00028416 -0.0018522)
(0.982804 0.00664625 -0.0327939)
(0.98545 0.00700035 -0.00742211)
(0.983987 0.00121074 0.040032)
(0.991762 -0.00319918 0.0382616)
(1.00606 0.00186178 0.0110512)
(0.992346 0.00598458 -0.0211611)
(0.995264 0.00392815 -0.0186313)
(1.01121 -0.00159212 0.0153282)
(1.02103 -0.00304658 0.0376214)
(1.0039 0.00258321 0.0127082)
(0.993959 0.00681661 -0.0215162)
(0.993373 0.00499422 -0.0200905)
(1.01032 -0.00102631 0.012998)
(1.02063 -0.00357975 0.0355635)
(1.01171 0.00127294 0.0106862)
(0.997776 0.00635327 -0.0210528)
(1.00204 0.00405436 -0.0181688)
(1.0128 -0.000112878 0.0159238)
(1.02173 -0.00315686 0.0353691)
(1.01146 0.000129049 0.0129475)
(0.997086 0.00500047 -0.0197015)
(0.997333 0.00461622 -0.0197439)
(1.01162 -0.00118416 0.0127284)
(1.01952 -0.00391069 0.0347401)
(1.01308 0.000774374 0.0123978)
(0.994872 0.00673784 -0.022987)
(0.996917 0.00500307 -0.0210555)
(1.01157 -0.00047772 0.0161424)
(1.02034 -0.00323264 0.0339463)
(1.01194 0.00105224 0.011912)
(0.997113 0.00603998 -0.0214019)
(0.994948 0.00613082 -0.0210712)
(1.01097 0.000984216 0.0156053)
(1.01609 -0.00205784 0.0352765)
(1.01397 -0.00106427 0.0110754)
(0.996328 0.00594814 -0.0218704)
(0.995799 0.00494116 -0.0199259)
(1.01393 -0.000833598 0.01802)
(1.01609 -0.00194496 0.0337997)
(1.01067 0.000506593 0.0112697)
(0.994768 0.00509407 -0.0218347)
(1.00118 0.004363 -0.0181155)
(1.01281 0.000300243 0.0209127)
(1.0186 -0.00248337 0.0358216)
(1.02378 0.00386906 0.0140452)
(1.01027 0.00567187 -0.00946616)
(1.00852 0.000287952 -0.015245)
(1.02203 -0.00468826 0.0052591)
(1.03161 -0.00269716 0.0247491)
(1.0229 0.00458413 0.0159058)
(1.01158 0.00627871 -0.00952593)
(1.00819 0.00141495 -0.0146755)
(1.02098 -0.00437281 0.00390639)
(1.03168 -0.00350188 0.0237943)
(1.02609 0.00327462 0.0134461)
(1.01363 0.00611656 -0.0100434)
(1.01182 0.000977171 -0.0148161)
(1.02194 -0.00288818 0.00591639)
(1.03172 -0.00257563 0.0233539)
(1.02624 0.00269149 0.014196)
(1.01216 0.00495734 -0.00874538)
(1.00998 0.000956916 -0.0140289)
(1.02126 -0.00438861 0.00476622)
(1.03141 -0.00363925 0.0237533)
(1.02656 0.00308624 0.0143668)
(1.01102 0.00691316 -0.0102969)
(1.00791 0.00157054 -0.0161631)
(1.02176 -0.00379044 0.00619137)
(1.03191 -0.00295297 0.0233954)
(1.02569 0.003215 0.0138189)
(1.01156 0.00603904 -0.00971457)
(1.0063 0.00260464 -0.0160692)
(1.02084 -0.00220077 0.0051192)
(1.03159 -0.00213894 0.0246187)
(1.02753 0.00112801 0.012785)
(1.01103 0.00575941 -0.0105427)
(1.00823 0.00148601 -0.0163056)
(1.02308 -0.00396633 0.00626485)
(1.03031 -0.0017511 0.0231711)
(1.02526 0.0026391 0.0138434)
(1.01105 0.00467592 -0.0103057)
(1.0106 0.000769019 -0.0160183)
(1.02363 -0.00271461 0.00833493)
(1.03283 -0.00225759 0.0251085)
(1.02969 0.00471925 0.00777293)
(1.02345 0.00580042 -0.00566531)
(1.01751 -0.00138646 -0.00937299)
(1.02179 -0.00666451 0.00222687)
(1.02823 -0.00308959 0.0128663)
(1.02999 0.00518758 0.00940258)
(1.02447 0.00623465 -0.00549932)
(1.01839 -0.000299623 -0.00809414)
(1.02146 -0.00645368 0.0016512)
(1.02837 -0.00397552 0.0127603)
(1.02985 0.00392986 0.00755483)
(1.02444 0.00624362 -0.00617577)
(1.01891 -0.00035422 -0.00899774)
(1.02179 -0.00476873 0.00238952)
(1.02863 -0.00279086 0.0122144)
(1.03013 0.00383397 0.00793592)
(1.02334 0.00519282 -0.0049472)
(1.01867 -0.000964641 -0.00746214)
(1.02162 -0.00644147 0.00278383)
(1.0287 -0.00397721 0.0129864)
(1.02982 0.00409115 0.00790059)
(1.02356 0.00721325 -0.0054907)
(1.01734 -0.000187708 -0.00897069)
(1.02178 -0.0060094 0.00283156)
(1.02926 -0.00331918 0.01267)
(1.02947 0.00432059 0.00731419)
(1.02285 0.0063253 -0.00554763)
(1.01591 0.000554169 -0.00913511)
(1.02102 -0.00475547 0.00195864)
(1.03064 -0.002979 0.0133728)
(1.03024 0.00234082 0.00637415)
(1.02203 0.00583749 -0.00639499)
(1.0173 -0.000354614 -0.00976194)
(1.02185 -0.00612235 0.00242027)
(1.02921 -0.00240639 0.0122567)
(1.02966 0.00363306 0.00759682)
(1.02284 0.0048427 -0.00613728)
(1.01728 -0.00103769 -0.010159)
(1.02274 -0.00498291 0.00327636)
(1.03081 -0.00284063 0.0135321)
(1.02506 0.00386724 0.000383468)
(1.02503 0.00532885 -0.00563021)
(1.0209 -0.00123841 -0.00493524)
(1.01962 -0.00652079 0.00161206)
(1.02145 -0.00353753 0.0045232)
(1.02578 0.00409206 0.00149735)
(1.02556 0.00556953 -0.00528751)
(1.0218 -0.000294282 -0.00385229)
(1.01991 -0.00636591 0.0013759)
(1.02159 -0.00424784 0.00486443)
(1.02481 0.00301995 0.000497348)
(1.02491 0.0056721 -0.00612593)
(1.02144 -0.000197398 -0.00488301)
(1.02013 -0.00475251 0.00115515)
(1.02219 -0.00311435 0.00426438)
(1.02522 0.00323226 0.000965359)
(1.0244 0.00476449 -0.00472201)
(1.02157 -0.00100035 -0.00314489)
(1.02017 -0.00629716 0.00230008)
(1.02199 -0.00416533 0.00494265)
(1.02465 0.00335099 0.000574082)
(1.02509 0.00660492 -0.00509764)
(1.02143 -0.00024127 -0.00410084)
(1.02018 -0.00601823 0.00184999)
(1.02243 -0.00366784 0.00461415)
(1.0246 0.00367376 -9.21615e-05)
(1.02425 0.00581649 -0.0052404)
(1.02047 0.000244133 -0.00447149)
(1.01978 -0.00512786 0.00116352)
(1.02361 -0.00351461 0.00489771)
(1.02469 0.00205036 -0.000372139)
(1.0234 0.00526583 -0.00566562)
(1.02095 -0.000426132 -0.00496862)
(1.01965 -0.00614668 0.00158701)
(1.02263 -0.00301598 0.00424156)
(1.02492 0.00305764 0.000383982)
(1.02422 0.00452656 -0.0056354)
(1.02011 -0.00105535 -0.00537763)
(1.0201 -0.00519239 0.00149206)
(1.02338 -0.00336765 0.00487518)
(1.01897 0.00250044 -0.00250277)
(1.02131 0.00436924 -0.00470791)
(1.02087 -0.000588772 -0.00221485)
(1.0189 -0.00521452 0.00139827)
(1.01754 -0.00345985 0.00074639)
(1.01952 0.00261446 -0.00182059)
(1.02137 0.00445377 -0.00429543)
(1.02133 0.000239224 -0.00151442)
(1.01936 -0.00511781 0.00128232)
(1.01766 -0.00389925 0.00120223)
(1.01895 0.00174707 -0.00237623)
(1.02088 0.00456876 -0.00535916)
(1.0209 0.000317004 -0.00252335)
(1.01945 -0.00370963 0.000601281)
(1.01822 -0.00298911 0.000718774)
(1.01932 0.00207175 -0.00184003)
(1.02085 0.00389024 -0.0039221)
(1.02112 -0.000347809 -0.000888746)
(1.01957 -0.00497575 0.00179906)
(1.01789 -0.00389968 0.00120303)
(1.01869 0.0020406 -0.00233262)
(1.02117 0.00537755 -0.00425586)
(1.02139 0.000303662 -0.00158782)
(1.0196 -0.00478914 0.00137412)
(1.01808 -0.0035596 0.00092345)
(1.01869 0.0023098 -0.00295134)
(1.02072 0.0047605 -0.00431144)
(1.02088 0.000605516 -0.0019505)
(1.01935 -0.0041903 0.000823032)
(1.01872 -0.00338413 0.00109439)
(1.01884 0.00118901 -0.0026983)
(1.02022 0.00422562 -0.00439555)
(1.0209 9.92584e-05 -0.0022492)
(1.01909 -0.00492436 0.00127145)
(1.01817 -0.00303819 0.000699179)
(1.01907 0.00194089 -0.00239001)
(1.0209 0.00376772 -0.00453172)
(1.02025 -0.000491921 -0.00254393)
(1.01911 -0.00419477 0.000800906)
(1.01855 -0.00333219 0.000950455)
(1.01622 0.00148989 -0.00212636)
(1.0187 0.00334104 -0.0030487)
(1.02016 -9.59105e-05 -0.000968458)
(1.01891 -0.00377109 0.00104908)
(1.01656 -0.00288781 -0.000103707)
(1.01652 0.00157845 -0.00168309)
(1.01854 0.00332974 -0.00268344)
(1.02029 0.000628335 -0.000526798)
(1.01935 -0.00377628 0.000979626)
(1.01663 -0.00313435 0.000243885)
(1.01635 0.00087698 -0.00207019)
(1.0182 0.00344629 -0.00371962)
(1.01992 0.000621318 -0.00134686)
(1.01929 -0.00260455 0.00027514)
(1.01703 -0.00248556 -4.41684e-05)
(1.01663 0.00121739 -0.00159361)
(1.01839 0.00296736 -0.00250333)
(1.0202 0.000138211 -5.39971e-05)
(1.01945 -0.0035711 0.00121428)
(1.01677 -0.00322047 0.000329491)
(1.01607 0.00110449 -0.00197769)
(1.01837 0.00409181 -0.00267429)
(1.02042 0.000663784 -0.000595692)
(1.01952 -0.00343598 0.000935103)
(1.01683 -0.00299289 0.000126916)
(1.01605 0.00128697 -0.0024527)
(1.01821 0.00366058 -0.00271085)
(1.02016 0.000840778 -0.000869684)
(1.01929 -0.0030356 0.000541432)
(1.01716 -0.00278207 0.000256924)
(1.01639 0.000576678 -0.0021121)
(1.01804 0.00320546 -0.00272764)
(1.02007 0.000475883 -0.00102276)
(1.01915 -0.00357672 0.000894672)
(1.01684 -0.00257304 -1.49679e-05)
(1.01646 0.00112324 -0.00200898)
(1.01859 0.0029338 -0.00291978)
(1.01976 -7.96731e-05 -0.00125247)
(1.01899 -0.00299505 0.000435248)
(1.0171 -0.00282319 7.68864e-05)
(1.01589 0.000898432 -0.00125542)
(1.01789 0.00249243 -0.00177826)
(1.01959 0.000134876 -0.000449783)
(1.01888 -0.00263196 0.000730299)
(1.01675 -0.00223661 -0.000130309)
(1.01608 0.000986074 -0.00091567)
(1.01769 0.00241396 -0.00145788)
(1.01962 0.000740903 -0.000154992)
(1.01925 -0.0027099 0.000666194)
(1.01675 -0.0023407 8.85281e-05)
(1.01606 0.000404918 -0.00120677)
(1.01743 0.00253462 -0.00233378)
(1.01931 0.000699678 -0.000739466)
(1.01914 -0.00176912 9.30188e-05)
(1.01704 -0.00191832 -4.14721e-05)
(1.01625 0.000716906 -0.000825927)
(1.01764 0.00221427 -0.00138879)
(1.01959 0.000368951 0.000228644)
(1.01932 -0.00247697 0.000768438)
(1.01687 -0.00249216 0.000263533)
(1.01583 0.000604099 -0.00110477)
(1.01754 0.00302322 -0.00141441)
(1.01972 0.00076408 -0.000206849)
(1.01938 -0.00239951 0.000606372)
(1.0169 -0.00235522 0.000119085)
(1.01579 0.000700732 -0.00143384)
(1.01749 0.0027498 -0.00145973)
(1.01959 0.000852676 -0.00041284)
(1.01917 -0.0021055 0.000350748)
(1.01709 -0.00211709 0.000186442)
(1.01615 0.000281403 -0.00116697)
(1.01745 0.00235679 -0.00151093)
(1.01948 0.000608303 -0.000472943)
(1.01911 -0.00248795 0.000568651)
(1.0169 -0.00197982 7.96363e-06)
(1.01614 0.00066128 -0.00114919)
(1.01789 0.00222266 -0.00170659)
(1.01934 0.00012515 -0.000663126)
(1.01891 -0.00204019 0.000213952)
(1.0171 -0.00221337 2.60438e-05)
(1.01625 0.000527289 -0.000692327)
(1.01777 0.00182801 -0.00102926)
(1.01919 0.000226627 -0.000222454)
(1.01875 -0.00178385 0.000477304)
(1.0171 -0.00166924 -8.22915e-05)
(1.01641 0.000633077 -0.00043232)
(1.01761 0.00170415 -0.000768302)
(1.01918 0.000742491 -2.24391e-05)
(1.01905 -0.00193627 0.000435667)
(1.01705 -0.00168876 2.86963e-05)
(1.01643 0.0001565 -0.000635012)
(1.01739 0.00182879 -0.00146567)
(1.01894 0.00067533 -0.000406437)
(1.01897 -0.00118904 -1.2622e-05)
(1.01728 -0.00141804 5.87688e-06)
(1.01656 0.000418814 -0.000346816)
(1.01756 0.00164745 -0.000749569)
(1.0192 0.000436122 0.000310127)
(1.01912 -0.00169568 0.000457201)
(1.01716 -0.00187248 0.000264052)
(1.01627 0.000323936 -0.000559873)
(1.01749 0.00217809 -0.00070088)
(1.01926 0.000716078 -5.59017e-05)
(1.01917 -0.00165178 0.000378514)
(1.01719 -0.00177715 0.000151791)
(1.01619 0.000368259 -0.000779092)
(1.01745 0.00203345 -0.000737003)
(1.01919 0.000755137 -0.000205849)
(1.01898 -0.00142466 0.000235664)
(1.01731 -0.00155487 0.000167219)
(1.01651 0.00012951 -0.000573468)
(1.01745 0.00171145 -0.000823262)
(1.01909 0.000622338 -0.000208936)
(1.01896 -0.00169582 0.000345936)
(1.01719 -0.00146546 4.55549e-05)
(1.01647 0.000388145 -0.000609952)
(1.0178 0.0016597 -0.00100603)
(1.01901 0.000199764 -0.000357072)
(1.01878 -0.00134688 6.86999e-05)
(1.01737 -0.00166886 3.49782e-05)
(1.01664 0.000291792 -0.000400439)
(1.01779 0.00133653 -0.000614925)
(1.01887 0.000245937 -0.000111358)
(1.01859 -0.00118377 0.000317143)
(1.01737 -0.00123992 -5.78726e-05)
(1.01678 0.000412687 -0.000198223)
(1.01766 0.00117927 -0.000390597)
(1.01886 0.000675737 1.201e-05)
(1.01884 -0.00137907 0.000282687)
(1.01729 -0.00119037 -2.41858e-05)
(1.01681 2.84654e-05 -0.00032727)
(1.01749 0.00129603 -0.000949493)
(1.01868 0.000610681 -0.0002264)
(1.01879 -0.000807892 -6.68413e-05)
(1.01747 -0.00102237 1.13806e-05)
(1.0169 0.000224857 -0.000107385)
(1.01761 0.00122849 -0.000418834)
(1.01891 0.000431885 0.000315791)
(1.01892 -0.00113723 0.000251004)
(1.01739 -0.00139154 0.000234751)
(1.01671 0.000156877 -0.000292782)
(1.01757 0.00154408 -0.000325202)
(1.01893 0.000623666 1.01709e-05)
(1.01895 -0.00112998 0.000221642)
(1.01742 -0.00132492 0.000151144)
(1.01662 0.000163314 -0.000426266)
(1.01755 0.00149485 -0.000344193)
(1.01889 0.000639059 -0.000105888)
(1.01879 -0.000959339 0.000167792)
(1.01749 -0.00112839 0.000119306)
(1.01687 5.09891e-05 -0.000254872)
(1.01754 0.00123447 -0.000443367)
(1.0188 0.00056844 -6.89681e-05)
(1.01878 -0.00113633 0.000198179)
(1.01743 -0.00106792 4.23293e-05)
(1.01682 0.000219111 -0.000318571)
(1.01783 0.00123182 -0.000615252)
(1.01876 0.000223339 -0.000177037)
(1.01862 -0.000876249 -1.70272e-05)
(1.01758 -0.00124961 2.61439e-05)
(1.01695 0.000149675 -0.000231038)
(1.01782 0.000967061 -0.000368348)
(1.01862 0.000219597 -4.7004e-05)
(1.01845 -0.000766342 0.000194836)
(1.01756 -0.0009124 -4.32865e-05)
(1.01707 0.000282838 -9.25657e-05)
(1.01773 0.000793067 -0.000190196)
(1.01861 0.000591557 9.50161e-06)
(1.01865 -0.000974572 0.000185422)
(1.01746 -0.000835039 -6.23118e-05)
(1.0171 -1.52497e-05 -0.000160365)
(1.01759 0.000900259 -0.000627372)
(1.01848 0.000540583 -0.000124056)
(1.01862 -0.000557241 -8.45966e-05)
(1.01759 -0.00071346 -5.28211e-06)
(1.01717 0.000109031 1.05971e-05)
(1.01767 0.000917301 -0.000249017)
(1.01867 0.00039432 0.00028851)
(1.01873 -0.000761254 0.000111507)
(1.01755 -0.00101748 0.000198928)
(1.01706 6.88473e-05 -0.000148785)
(1.01766 0.00108895 -0.000133552)
(1.01866 0.000516711 3.05661e-05)
(1.01875 -0.000774566 0.000113495)
(1.01757 -0.000971815 0.000142345)
(1.01696 5.07751e-05 -0.000236892)
(1.01763 0.00108554 -0.000129092)
(1.01865 0.000519066 -5.80862e-05)
(1.01861 -0.000645242 0.000126438)
(1.01762 -0.000799585 7.93404e-05)
(1.01716 1.77556e-05 -8.62718e-05)
(1.01764 0.000885931 -0.000233573)
(1.01856 0.000490599 -3.15173e-06)
(1.01861 -0.000759967 0.000112092)
(1.0176 -0.000771699 2.31719e-05)
(1.0171 0.000123916 -0.000158854)
(1.01786 0.000903102 -0.000394493)
(1.01855 0.000206481 -6.87084e-05)
(1.01848 -0.000558539 -6.84253e-05)
(1.01772 -0.00091484 1.19675e-05)
(1.01719 6.34437e-05 -0.000134076)
(1.01785 0.000699933 -0.000232529)
(1.01843 0.000179996 -1.29985e-05)
(1.01831 -0.000480532 0.000118957)
(1.01769 -0.000674124 -2.40734e-05)
(1.01729 0.00020394 -4.79776e-05)
(1.01778 0.000521664 -6.92416e-05)
(1.01841 0.000488222 -5.2327e-06)
(1.01848 -0.000679361 0.000122718)
(1.01759 -0.000587426 -8.03593e-05)
(1.01732 -1.23536e-05 -7.59931e-05)
(1.01768 0.000608864 -0.000417237)
(1.01832 0.000467792 -7.48523e-05)
(1.01848 -0.000396204 -7.82178e-05)
(1.01768 -0.000483195 -2.5165e-05)
(1.01738 4.41864e-05 6.90816e-05)
(1.01773 0.000679281 -0.000164149)
(1.01848 0.000339516 0.000248392)
(1.01856 -0.000503206 3.14447e-05)
(1.01765 -0.000722549 0.000161045)
(1.01732 2.11923e-05 -8.00756e-05)
(1.01774 0.000753855 -4.05452e-05)
(1.01845 0.000409777 4.65932e-05)
(1.01857 -0.00053232 3.77679e-05)
(1.01768 -0.000699229 0.000134661)
(1.01722 -2.66801e-06 -0.000132937)
(1.01771 0.000777912 -1.4596e-05)
(1.01846 0.000416488 -3.33779e-05)
(1.01846 -0.000434498 9.99198e-05)
(1.01771 -0.00055892 4.81666e-05)
(1.01737 5.34979e-07 -5.55824e-06)
(1.01771 0.000622747 -0.000111649)
(1.01838 0.000407014 2.78208e-05)
(1.01847 -0.000500252 6.45129e-05)
(1.01771 -0.000547652 2.41926e-06)
(1.01732 6.97263e-05 -6.3573e-05)
(1.01789 0.000651801 -0.000264042)
(1.01839 0.000182049 -3.10936e-06)
(1.01834 -0.000358019 -9.00742e-05)
(1.01781 -0.000665096 6.63438e-06)
(1.01738 1.59399e-05 -6.67896e-05)
(1.01787 0.000498752 -0.000152914)
(1.01828 0.000134218 1.23044e-05)
(1.0182 -0.000289883 6.3791e-05)
(1.01779 -0.000497556 -7.63495e-06)
(1.01745 0.000156849 -3.07865e-05)
(1.01783 0.000334902 -9.50767e-06)
(1.01826 0.00038644 -1.93412e-05)
(1.01834 -0.00046206 8.13441e-05)
(1.01768 -0.000419766 -7.85508e-05)
(1.01748 1.85374e-05 -3.63393e-05)
(1.01775 0.000396301 -0.000271045)
(1.01819 0.000394574 -5.28639e-05)
(1.01835 -0.0002861 -5.61026e-05)
(1.01774 -0.000311161 -4.26599e-05)
(1.01754 2.0169e-05 9.10299e-05)
(1.01778 0.000497135 -0.000118185)
(1.01833 0.000282517 0.000201307)
(1.01842 -0.000334347 -1.02215e-05)
(1.01772 -0.000497958 0.000124579)
(1.01752 -5.26082e-06 -3.62905e-05)
(1.0178 0.000515658 -6.19144e-07)
(1.01829 0.000315193 5.29152e-05)
(1.01843 -0.000361668 -1.11289e-05)
(1.01775 -0.00049415 0.000131238)
(1.01742 -2.11103e-05 -8.18755e-05)
(1.01778 0.00054157 4.01344e-05)
(1.0183 0.000323071 -1.98336e-05)
(1.01833 -0.000296923 7.92036e-05)
(1.01777 -0.000386042 3.57147e-05)
(1.01753 3.53732e-07 2.84939e-05)
(1.01778 0.000433099 -4.16205e-05)
(1.01824 0.000329907 3.12299e-05)
(1.01834 -0.000328954 4.46257e-05)
(1.01779 -0.000389659 -1.28799e-05)
(1.01749 4.27115e-05 -1.14179e-05)
(1.01791 0.000462641 -0.000186976)
(1.01826 0.000139629 3.08845e-05)
(1.01824 -0.000229332 -9.43013e-05)
(1.01786 -0.000469236 -4.61341e-07)
(1.01752 -1.21686e-05 -2.23356e-05)
(1.0179 0.000352398 -0.000113975)
(1.01817 9.15518e-05 2.40501e-05)
(1.01811 -0.000165864 3.01285e-05)
(1.01785 -0.000366362 8.55024e-06)
(1.01758 0.000125212 -2.72221e-05)
(1.01787 0.000214501 2.14966e-05)
(1.01815 0.00028213 -2.38095e-05)
(1.01822 -0.000298624 4.89959e-05)
(1.01775 -0.000302317 -6.32223e-05)
(1.0176 4.47247e-05 -2.43963e-05)
(1.01781 0.000246348 -0.000168552)
(1.0181 0.000324924 -4.8446e-05)
(1.01825 -0.000205271 -3.36654e-05)
(1.01779 -0.000190729 -4.91047e-05)
(1.01766 1.34591e-05 9.05467e-05)
(1.01782 0.000354069 -8.93015e-05)
(1.01821 0.000230771 0.000152223)
(1.01831 -0.000225879 -2.13722e-05)
(1.01777 -0.000323845 9.42673e-05)
(1.01767 -1.70359e-05 -1.63265e-05)
(1.01785 0.000348843 7.47526e-06)
(1.01817 0.000232203 6.26772e-05)
(1.01831 -0.000247437 -4.36895e-05)
(1.0178 -0.000345986 0.000123501)
(1.01757 -2.41931e-05 -5.13026e-05)
(1.01784 0.000367812 5.97119e-05)
(1.01818 0.000241039 -6.40723e-06)
(1.01823 -0.000200134 5.88787e-05)
(1.01782 -0.000264135 3.37503e-05)
(1.01765 2.57362e-06 3.12289e-05)