/*--------------------------------*- C++ -*----------------------------------*\
  =========                 |
  \\      /  F ield         | OpenFOAM: The Open Source CFD Toolbox
   \\    /   O peration     | Website:  https://openfoam.org
    \\  /    A nd           | Version:  10
     \\/     M anipulation  |
\*---------------------------------------------------------------------------*/
FoamFile
{
    format      ascii;
    class       volVectorField;
    location    "5";
    object      UMean;
}
// * * * * * * * * * * * * * * * * * * * * * * * * * * * * * * * * * * * * * //

dimensions      [0 1 -1 0 0 0 0];

internalField   nonuniform List<vector> 
102400
(
(0.20573 5.98782e-05 0.000749949)
(0.201544 0.000138671 0.00198595)
(0.202238 6.48414e-05 0.00139393)
(0.198765 -8.8423e-05 0.000214947)
(0.204298 -0.000113277 3.09731e-05)
(0.20259 1.58534e-05 0.00076094)
(0.204417 4.3988e-05 0.00267743)
(0.200161 -7.37585e-06 0.00422777)
(0.203162 -0.000125531 0.00330477)
(0.200113 -0.000142309 0.00127449)
(0.204502 -2.2213e-05 0.00115507)
(0.198789 9.16324e-05 0.00335739)
(0.199836 6.33816e-05 0.00373445)
(0.197419 -5.54623e-05 0.00225822)
(0.200894 -7.73674e-05 0.000335523)
(0.200631 7.54716e-05 0.000551643)
(0.200314 0.000159284 0.00235556)
(0.199031 3.01409e-05 0.00355443)
(0.200575 -0.000173957 0.00337687)
(0.202266 -0.000231707 0.00141304)
(0.203108 -3.89404e-06 0.00146049)
(0.201136 0.000136659 0.0022828)
(0.195218 7.86833e-05 0.00237372)
(0.197876 -6.14479e-05 0.00235609)
(0.197369 -0.000121556 0.00156001)
(0.200643 3.72737e-06 0.0021057)
(0.199603 0.000176504 0.00303655)
(0.197501 0.000132408 0.00296843)
(0.197941 -4.26366e-05 4.70205e-05)
(0.199593 -2.06318e-05 -0.00207235)
(0.200064 6.70561e-05 -1.85263e-05)
(0.198389 0.00014171 0.00197431)
(0.198549 4.74205e-05 0.00351793)
(0.196652 -7.1886e-05 0.0021156)
(0.201532 -6.06043e-05 -0.000275492)
(0.198273 0.000108178 -0.000161586)
(0.200598 0.000140943 2.60816e-05)
(0.196412 8.76347e-06 0.00117623)
(0.20101 -0.000125286 0.00121814)
(0.202749 -0.00011469 0.000218526)
(0.529824 -2.19402e-05 0.00289548)
(0.521323 0.000475073 0.0037595)
(0.528741 0.000422823 0.00410997)
(0.516765 0.000225003 0.00190694)
(0.530481 -0.000184385 0.00179907)
(0.523583 4.65565e-06 0.00173765)
(0.533102 0.000120729 0.00412098)
(0.521877 0.000103388 0.00691769)
(0.528247 6.00029e-05 0.00675698)
(0.516172 -0.000198502 0.00529522)
(0.526787 4.67912e-05 0.00326003)
(0.514323 0.000464827 0.00568742)
(0.519497 0.000474514 0.0060045)
(0.512308 0.000516644 0.00385519)
(0.518094 0.000235721 0.00170291)
(0.517288 0.000527706 0.000401116)
(0.521145 0.000468112 0.00406389)
(0.51764 0.000388299 0.00558482)
(0.520818 -0.000122713 0.00812295)
(0.519262 -0.000418031 0.0057213)
(0.51913 -0.000143871 0.0039893)
(0.521752 0.000576199 0.00329478)
(0.508136 0.00066369 0.00260571)
(0.515188 0.000347257 0.00278218)
(0.51008 3.93322e-05 0.00286772)
(0.515261 -4.73533e-06 0.00459802)
(0.516412 0.000599644 0.00507775)
(0.514896 0.000889334 0.00387189)
(0.513333 0.00049772 0.00106032)
(0.51626 0.000473115 -0.00297766)
(0.51668 0.000299886 0.000928806)
(0.514328 0.000635987 0.00376222)
(0.51593 0.000606888 0.00740278)
(0.506842 0.000387764 0.00531739)
(0.519619 0.000331048 0.00211975)
(0.508362 0.000359777 0.00222207)
(0.522719 0.00062059 0.00153763)
(0.511613 0.000524964 0.00230786)
(0.523508 -6.67187e-06 0.00252926)
(0.519819 -4.86714e-05 0.0016335)
(0.768441 0.000957066 0.00350782)
(0.755163 0.00131 0.00328837)
(0.770963 0.00128988 0.00597286)
(0.751271 0.00104714 0.00360686)
(0.773243 0.000335278 0.00350832)
(0.756872 0.000685075 0.00167714)
(0.775929 0.000665631 0.00420866)
(0.759143 0.000674821 0.00745837)
(0.772084 0.000696226 0.00740449)
(0.750698 0.00059642 0.00630939)
(0.761014 0.000916142 0.00319718)
(0.74741 0.00166339 0.00475475)
(0.753379 0.00133604 0.00611101)
(0.745266 0.00165985 0.0027972)
(0.750492 0.00111923 0.000943689)
(0.750778 0.00149915 -0.00218905)
(0.759587 0.00144849 0.00148968)
(0.74938 0.00126934 0.00306672)
(0.759671 0.000503534 0.0067642)
(0.75007 0.000302777 0.005551)
(0.749982 0.000397924 0.00472778)
(0.75466 0.00136275 0.00396966)
(0.74597 0.00151951 0.0034984)
(0.752454 0.00103996 0.000618995)
(0.746302 0.00104028 0.00193479)
(0.745667 0.000829624 0.0024635)
(0.745991 0.00144009 0.00613593)
(0.751411 0.00186311 0.00311908)
(0.74431 0.00144819 0.00280132)
(0.750374 0.00154921 -0.0031633)
(0.751169 0.00116964 0.000512452)
(0.74538 0.00175019 0.00247878)
(0.749532 0.00192271 0.00930583)
(0.732794 0.00143852 0.00606929)
(0.754484 0.00153751 0.00326923)
(0.735191 0.00147831 0.00269633)
(0.758215 0.00142234 0.00393042)
(0.749871 0.00148839 0.00280527)
(0.763927 0.000684831 0.00398742)
(0.756189 0.00109527 0.000797127)
(0.917343 0.00302255 0.00489023)
(0.902526 0.00317081 0.00483278)
(0.921892 0.00296034 0.0084239)
(0.89968 0.00297032 0.00670265)
(0.920165 0.00179824 0.0074795)
(0.904227 0.00237143 0.00587666)
(0.923751 0.00217833 0.00913846)
(0.91037 0.00238717 0.0109175)
(0.927403 0.00227131 0.0113893)
(0.903312 0.00254268 0.00907965)
(0.91015 0.00277615 0.00744055)
(0.894169 0.00374472 0.00602544)
(0.905358 0.00315389 0.00835589)
(0.893914 0.00351141 0.00358891)
(0.900582 0.00265418 0.00331402)
(0.891015 0.0031559 -0.00178266)
(0.910321 0.00307826 0.00093277)
(0.895453 0.00312251 0.00107493)
(0.912332 0.00230975 0.00382778)
(0.896062 0.00244609 0.00335304)
(0.902145 0.0022791 0.00572693)
(0.89947 0.00335504 0.0052543)
(0.899854 0.00328476 0.00657246)
(0.899878 0.00288 0.00105963)
(0.898757 0.00297094 0.00319379)
(0.892726 0.00283831 0.00105739)
(0.888006 0.00334506 0.00775235)
(0.893547 0.00372035 0.00439245)
(0.887307 0.00318898 0.00719178)
(0.887052 0.00315966 0.000742716)
(0.895661 0.00293076 0.00317598)
(0.883453 0.00365068 0.00352838)
(0.901151 0.00435481 0.0113415)
(0.878436 0.00359707 0.00896823)
(0.903301 0.0036609 0.00722524)
(0.885533 0.00379701 0.00456861)
(0.90662 0.00309591 0.00823617)
(0.897791 0.00346864 0.00411116)
(0.909757 0.00253912 0.0071236)
(0.899893 0.00305543 0.0021462)
(1.00227 0.00538296 0.0128029)
(0.983118 0.00533777 0.0121236)
(1.00418 0.00490232 0.0161264)
(0.985687 0.00526246 0.0126505)
(1.00346 0.00381012 0.0133339)
(0.986861 0.004746 0.0126277)
(1.00483 0.00422309 0.0171536)
(0.996002 0.00472233 0.0180755)
(1.00925 0.00439249 0.0188154)
(0.99794 0.00508532 0.0143298)
(0.998133 0.00509154 0.015753)
(0.986799 0.00602784 0.0131144)
(0.992077 0.00540751 0.0154998)
(0.98429 0.00607211 0.00943091)
(0.986904 0.0050644 0.00813078)
(0.976141 0.00571879 0.00451852)
(0.989165 0.00557458 0.00633609)
(0.982741 0.00546433 0.00552032)
(0.998764 0.00479924 0.00448668)
(0.986977 0.00569954 0.00349787)
(0.991894 0.00506325 0.00717272)
(0.985154 0.00625374 0.00940379)
(0.994045 0.00569764 0.0127391)
(0.982824 0.00577118 0.00763736)
(0.986484 0.00579709 0.0102693)
(0.968197 0.00569938 0.0065918)
(0.973583 0.00585203 0.0132246)
(0.964014 0.00576229 0.0107593)
(0.973685 0.00535532 0.0137611)
(0.954249 0.00512856 0.00877002)
(0.973171 0.00503219 0.0112833)
(0.952584 0.00542222 0.00976691)
(0.982626 0.00648721 0.015743)
(0.958067 0.00614081 0.0139127)
(0.981833 0.00587684 0.014282)
(0.971249 0.00633653 0.00939018)
(0.985358 0.00522867 0.0162155)
(0.981113 0.00582963 0.0111305)
(0.999456 0.00481318 0.0147097)
(0.982475 0.00524805 0.00986226)
(1.04374 0.00646199 0.0240806)
(1.03066 0.00674828 0.0246388)
(1.04783 0.00560098 0.0265614)
(1.04143 0.00660109 0.0223546)
(1.04127 0.00516908 0.0210657)
(1.03654 0.00605447 0.0203685)
(1.0449 0.00517251 0.0242958)
(1.04335 0.00604498 0.0253393)
(1.04931 0.00547999 0.0277759)
(1.0518 0.00665432 0.0219807)
(1.04566 0.00703673 0.0255473)
(1.04072 0.00785853 0.0238679)
(1.03695 0.00734102 0.0269021)
(1.03477 0.00834691 0.0208155)
(1.03251 0.00764656 0.0177079)
(1.01686 0.00796547 0.016373)
(1.02807 0.00764176 0.0175895)
(1.02371 0.00749315 0.0180773)
(1.02945 0.00714569 0.0149694)
(1.03279 0.00823265 0.0129367)
(1.02936 0.00780817 0.0154729)
(1.02344 0.00823238 0.0174982)
(1.03722 0.00781384 0.0243415)
(1.02303 0.00773633 0.0194735)
(1.03573 0.00827836 0.0220053)
(1.00949 0.00800024 0.0182798)
(1.02227 0.00773198 0.0249597)
(1.00292 0.00715155 0.0243196)
(1.02196 0.00672297 0.0254062)
(0.997367 0.00662373 0.0200243)
(1.01451 0.00637577 0.0236166)
(0.992283 0.00650392 0.0200172)
(1.0175 0.00731151 0.0251564)
(1.00354 0.00743445 0.0206008)
(1.01792 0.00697808 0.0225825)
(1.01196 0.00765073 0.0163182)
(1.0249 0.00631644 0.0245563)
(1.0239 0.00678252 0.0206232)
(1.0398 0.00610817 0.0242061)
(1.02381 0.00644168 0.0214011)
(1.05968 0.00607644 0.0333109)
(1.05618 0.00668754 0.0342487)
(1.07144 0.00505974 0.0366423)
(1.06477 0.00629392 0.0310298)
(1.07507 0.00535978 0.0296919)
(1.062 0.00594784 0.0272501)
(1.07427 0.00509785 0.0314214)
(1.06629 0.00606879 0.0315274)
(1.07603 0.00547634 0.0365388)
(1.06933 0.00653854 0.0312041)
(1.0739 0.00723739 0.0339854)
(1.06102 0.00811557 0.0341391)
(1.0599 0.00798888 0.0365232)
(1.04512 0.00894453 0.0342042)
(1.05524 0.008871 0.0301306)
(1.03155 0.00914628 0.0289528)
(1.04755 0.00819508 0.0309962)
(1.03853 0.00797706 0.0336606)
(1.0511 0.00773884 0.031326)
(1.04457 0.00869327 0.0269816)
(1.05206 0.00892769 0.0299219)
(1.03715 0.00870206 0.0292527)
(1.05848 0.00839928 0.0371971)
(1.04621 0.00805556 0.0333195)
(1.06558 0.00882559 0.0351888)
(1.04595 0.00870038 0.0324587)
(1.05958 0.00819238 0.039201)
(1.04223 0.00742414 0.0416997)
(1.06133 0.0068524 0.0406752)
(1.0337 0.00741935 0.0335981)
(1.05069 0.0072247 0.0347806)
(1.02418 0.00736655 0.0319338)
(1.0471 0.00754513 0.0350011)
(1.0313 0.00803218 0.0307314)
(1.0384 0.00744045 0.0314966)
(1.03369 0.00772112 0.0271452)
(1.04206 0.00585917 0.0317089)
(1.0429 0.00601808 0.0305636)
(1.05505 0.00574398 0.0316868)
(1.04981 0.00642251 0.0303777)
(1.0589 0.00529135 0.0355254)
(1.06581 0.00557118 0.038334)
(1.0707 0.00429026 0.0407204)
(1.07813 0.00492761 0.0387993)
(1.07804 0.00429598 0.0365473)
(1.08077 0.00457133 0.036367)
(1.07999 0.00361281 0.0375663)
(1.08127 0.00458207 0.0382955)
(1.08139 0.00405604 0.0416763)
(1.09202 0.00456628 0.038875)
(1.08174 0.00598661 0.0373604)
(1.08026 0.00683756 0.039157)
(1.07326 0.0069548 0.0390976)
(1.06936 0.00740345 0.0404279)
(1.06941 0.00743707 0.0362351)
(1.06007 0.00778254 0.0354098)
(1.0616 0.00678042 0.036677)
(1.06117 0.00671019 0.0405728)
(1.05915 0.00659884 0.0408738)
(1.05987 0.00750304 0.0370925)
(1.05856 0.0080309 0.0391688)
(1.05101 0.00767487 0.0390883)
(1.06181 0.00733865 0.0447966)
(1.05275 0.00658211 0.0431048)
(1.06947 0.00703152 0.0413901)
(1.06334 0.00700007 0.0397458)
(1.0724 0.00645129 0.0437154)
(1.05845 0.00560545 0.0486808)
(1.07186 0.00505749 0.0474942)
(1.05454 0.00624539 0.0406729)
(1.06265 0.00630684 0.0398316)
(1.04496 0.00668964 0.0371431)
(1.05498 0.0059738 0.0377279)
(1.05331 0.00715728 0.0358229)
(1.05234 0.00670296 0.0353152)
(1.05645 0.00652184 0.035402)
(1.056 0.00473865 0.0365664)
(1.06139 0.00458483 0.0380938)
(1.05909 0.00442149 0.0352984)
(1.06663 0.00526554 0.0352937)
(1.06778 0.00368317 0.034728)
(1.07072 0.00376545 0.0368681)
(1.07724 0.00233636 0.0395773)
(1.08606 0.00262241 0.0387044)
(1.09005 0.00213288 0.03716)
(1.09009 0.00252447 0.0369384)
(1.08597 0.00129948 0.0377715)
(1.08944 0.00200556 0.0388778)
(1.09096 0.00122153 0.0407576)
(1.09977 0.00124267 0.0397339)
(1.09548 0.00383639 0.0373765)
(1.09597 0.00454009 0.0398829)
(1.09359 0.00490751 0.0396419)
(1.09624 0.00521872 0.0415084)
(1.09259 0.00573816 0.039227)
(1.08469 0.0062918 0.0380784)
(1.07607 0.00520842 0.0379341)
(1.07771 0.00510976 0.0396995)
(1.07363 0.00517058 0.0426954)
(1.07256 0.00601994 0.0397997)
(1.07132 0.00675186 0.0413927)
(1.06455 0.00645933 0.0415427)
(1.06997 0.00620285 0.044605)
(1.06805 0.00463857 0.0438548)
(1.07411 0.00434002 0.0399321)
(1.07581 0.00433054 0.0367338)
(1.07667 0.00420654 0.0366659)
(1.07363 0.00339564 0.0421377)
(1.08017 0.00258057 0.0416963)
(1.07325 0.00369041 0.0391282)
(1.07213 0.0036874 0.0380566)
(1.06828 0.00392167 0.0385261)
(1.06651 0.00247914 0.037766)
(1.07438 0.00357439 0.0374696)
(1.06976 0.00337566 0.0364544)
(1.07644 0.00319631 0.0378547)
(1.073 0.00214141 0.0383952)
(1.07743 0.00240874 0.0410426)
(1.07107 0.0025182 0.0372699)
(1.07459 0.00321519 0.0364196)
(1.07747 0.000592455 0.0279187)
(1.07841 0.000498259 0.0301286)
(1.08568 -0.00105919 0.0312385)
(1.09319 -0.000898025 0.0316509)
(1.0936 -0.00133662 0.0291373)
(1.09709 -0.000980739 0.0292094)
(1.09673 -0.00189184 0.0294221)
(1.0978 -0.0017084 0.0307627)
(1.10182 -0.00220321 0.0315182)
(1.10465 -0.00247861 0.0316368)
(1.10485 0.000236992 0.029358)
(1.10539 0.00117417 0.0328755)
(1.1043 0.00164981 0.0335841)
(1.10712 0.00186328 0.0368102)
(1.10698 0.00297456 0.0355562)
(1.10079 0.00432054 0.0354494)
(1.09204 0.0034994 0.0342748)
(1.08866 0.0028125 0.0345053)
(1.09009 0.00289498 0.0354119)
(1.0848 0.0035747 0.0347249)
(1.08283 0.00413703 0.033376)
(1.07911 0.00362754 0.0354544)
(1.0833 0.00302963 0.0353218)
(1.08444 0.00137279 0.0361396)
(1.0871 0.000503891 0.0327385)
(1.08861 0.000586273 0.0316981)
(1.08673 0.000985351 0.0273643)
(1.08392 -0.000115478 0.0306434)
(1.09092 -0.000639219 0.0311279)
(1.08635 0.000716048 0.0319085)
(1.08469 0.000872565 0.031717)
(1.08349 0.00124612 0.034607)
(1.08031 -0.000526954 0.0340313)
(1.08885 -0.000175507 0.035317)
(1.08249 -6.02459e-05 0.0327198)
(1.08687 -0.000418667 0.0340171)
(1.08018 -0.000772312 0.0328086)
(1.08646 -0.00069553 0.0362527)
(1.08198 -0.000164857 0.0322194)
(1.08234 7.27169e-05 0.0308726)
(1.07934 -0.00249547 0.0212192)
(1.07945 -0.00282488 0.0225844)
(1.08521 -0.00423624 0.0239668)
(1.09279 -0.00383237 0.0242634)
(1.09216 -0.0039313 0.0218489)
(1.09361 -0.00390094 0.0215122)
(1.09486 -0.0041285 0.0215095)
(1.09686 -0.00370171 0.0227673)
(1.10013 -0.00361053 0.023103)
(1.10092 -0.00393182 0.0230172)
(1.09755 -0.00162663 0.021012)
(1.09626 -0.00102686 0.0237647)
(1.09595 -0.0008204 0.0249849)
(1.09709 -0.00151972 0.0277203)
(1.09879 -0.000820685 0.0278491)
(1.09428 0.000576436 0.0270292)
(1.09095 0.000152869 0.027498)
(1.0907 -0.0007319 0.0280851)
(1.09128 -0.000669765 0.0273703)
(1.09056 -0.000417288 0.0274219)
(1.08742 0.00015208 0.0249792)
(1.08739 -0.00064878 0.0268187)
(1.09105 -0.00102812 0.0266143)
(1.0935 -0.00211531 0.0274738)
(1.09526 -0.00289625 0.0254944)
(1.09435 -0.00282061 0.0263576)
(1.09186 -0.00163022 0.0231942)
(1.08994 -0.00264232 0.0240871)
(1.09388 -0.00296086 0.024813)
(1.09196 -0.00168742 0.0247501)
(1.08811 -0.00168013 0.0245138)
(1.08711 -0.00139973 0.0266936)
(1.08617 -0.00325019 0.0278131)
(1.0919 -0.00339954 0.0290123)
(1.08834 -0.00294778 0.026725)
(1.08826 -0.00347543 0.0260033)
(1.08382 -0.00372506 0.024232)
(1.08713 -0.00413279 0.0265402)
(1.0866 -0.00320241 0.0244546)
(1.08274 -0.00293222 0.0229413)
(1.07117 -0.00471079 0.0153326)
(1.07218 -0.00495816 0.0162489)
(1.07612 -0.00620112 0.0173304)
(1.08079 -0.00569368 0.0174601)
(1.08108 -0.00522669 0.0157383)
(1.08062 -0.00526194 0.0145595)
(1.08093 -0.00543706 0.0146069)
(1.08264 -0.005135 0.0152353)
(1.08479 -0.00491135 0.0155511)
(1.08473 -0.00527052 0.0146257)
(1.07978 -0.00331527 0.0134105)
(1.07821 -0.00302782 0.0149794)
(1.07804 -0.00282737 0.0162827)
(1.08032 -0.00369417 0.0184239)
(1.08128 -0.0032525 0.0187045)
(1.07846 -0.00189457 0.0179743)
(1.07794 -0.00254797 0.0184751)
(1.08042 -0.00346766 0.0192089)
(1.0809 -0.00323367 0.0184116)
(1.08196 -0.00346833 0.018165)
(1.07852 -0.00288384 0.0166503)
(1.07869 -0.00372626 0.0174807)
(1.08196 -0.00377249 0.0176408)
(1.08566 -0.00430638 0.0186814)
(1.08663 -0.00451723 0.0175844)
(1.08454 -0.0043489 0.0179361)
(1.08267 -0.0030687 0.0168367)
(1.08273 -0.00389976 0.0176066)
(1.08509 -0.00454926 0.0184948)
(1.08307 -0.00347224 0.0177064)
(1.07913 -0.00376629 0.0168154)
(1.0778 -0.00365035 0.0180669)
(1.07931 -0.00539654 0.0197397)
(1.08276 -0.00557707 0.0204794)
(1.08033 -0.00496281 0.0196337)
(1.07797 -0.00561564 0.0178339)
(1.07405 -0.00592287 0.016179)
(1.07597 -0.00650738 0.0172247)
(1.0758 -0.00551258 0.0168809)
(1.07369 -0.00501376 0.0159808)
(1.05979 -0.00633507 0.00714077)
(1.06027 -0.00672238 0.00722283)
(1.06225 -0.0077956 0.00776622)
(1.0646 -0.00719658 0.00815501)
(1.06491 -0.00647866 0.00734248)
(1.06385 -0.00656607 0.00647749)
(1.06442 -0.00682846 0.00694281)
(1.06614 -0.00660192 0.00791504)
(1.06863 -0.00623572 0.00846921)
(1.06792 -0.00643002 0.00784732)
(1.06342 -0.00472918 0.00727257)
(1.06215 -0.00465476 0.00838281)
(1.06244 -0.00443237 0.00931992)
(1.06504 -0.00516058 0.010946)
(1.06535 -0.00472069 0.0107008)
(1.0628 -0.00353745 0.00990772)
(1.06377 -0.00445858 0.00955067)
(1.06708 -0.00515987 0.00973718)
(1.06865 -0.00459004 0.00970591)
(1.07025 -0.00489889 0.00920034)
(1.06688 -0.00456018 0.00762238)
(1.06538 -0.00547688 0.00730869)
(1.06639 -0.00552181 0.00707133)
(1.0685 -0.00586211 0.00793525)
(1.06821 -0.00579745 0.00744245)
(1.06581 -0.00551997 0.00744455)
(1.06441 -0.00440303 0.00745784)
(1.06665 -0.0049999 0.00855488)
(1.06914 -0.00547685 0.00978675)
(1.06824 -0.00425779 0.00950822)
(1.06508 -0.00471334 0.00893431)
(1.06397 -0.00480707 0.0094704)
(1.06654 -0.00637295 0.0104992)
(1.06882 -0.00644625 0.0107712)
(1.06676 -0.00586054 0.0106877)
(1.06372 -0.00661321 0.00915589)
(1.06054 -0.00691454 0.00798694)
(1.06206 -0.00756504 0.00858904)
(1.06259 -0.00661904 0.00889972)
(1.06149 -0.00629228 0.00780711)
(1.04794 -0.00729045 -0.000343535)
(1.04786 -0.00780139 -0.000532611)
(1.04853 -0.0084879 -0.000164173)
(1.04941 -0.0078303 0.000288337)
(1.04977 -0.00695724 -0.000103974)
(1.0482 -0.00696194 -0.000416647)
(1.0493 -0.00727889 0.000191824)
(1.05108 -0.00704209 0.00108356)
(1.05409 -0.00637917 0.00146736)
(1.05302 -0.00636683 0.00115093)
(1.05036 -0.00508347 0.00109132)
(1.04982 -0.00529172 0.00214971)
(1.05041 -0.00542179 0.00285078)
(1.05229 -0.00615223 0.00376556)
(1.05199 -0.00581371 0.0034049)
(1.05009 -0.00508774 0.00262465)
(1.05119 -0.00614598 0.00213887)
(1.05356 -0.00666247 0.00213466)
(1.05585 -0.00591959 0.00243598)
(1.05687 -0.006229 0.001845)
(1.05436 -0.00598801 0.000206546)
(1.05231 -0.00694046 -0.000305922)
(1.05212 -0.00683067 -0.000544998)
(1.05253 -0.00681132 7.75885e-05)
(1.0515 -0.00662608 -0.000336012)
(1.04926 -0.00626001 -0.000551818)
(1.04817 -0.0052986 -0.000355498)
(1.05057 -0.00562234 0.000187127)
(1.05272 -0.00582717 0.000970593)
(1.05248 -0.00460518 0.00110731)
(1.05061 -0.00512434 0.000812656)
(1.05025 -0.00564966 0.000660752)
(1.05321 -0.0070379 0.000619829)
(1.05481 -0.00710092 0.00081723)
(1.05357 -0.00641035 0.000973758)
(1.05075 -0.00716643 0.000453938)
(1.04859 -0.00751685 2.2761e-05)
(1.04964 -0.00816489 0.000647596)
(1.05068 -0.00733738 0.00120083)
(1.04954 -0.00686835 0.000315236)
(1.03329 -0.0069795 -0.0059158)
(1.0333 -0.00740421 -0.00579856)
(1.03315 -0.007588 -0.00539739)
(1.03316 -0.00683497 -0.00517795)
(1.03312 -0.00598651 -0.00557527)
(1.03202 -0.00594145 -0.00534102)
(1.03327 -0.00634659 -0.00476507)
(1.03485 -0.00619609 -0.00438999)
(1.03713 -0.00526262 -0.0045418)
(1.03602 -0.00512054 -0.00463065)
(1.03514 -0.00426964 -0.00452897)
(1.03552 -0.00456729 -0.00350171)
(1.03594 -0.00480326 -0.00295117)
(1.03686 -0.00521416 -0.00265887)
(1.03596 -0.00496296 -0.0026684)
(1.03537 -0.00452788 -0.00304051)
(1.03591 -0.00551277 -0.00292081)
(1.03681 -0.00586038 -0.00286712)
(1.03849 -0.00519467 -0.0028358)
(1.03869 -0.00533184 -0.00335344)
(1.03681 -0.00527342 -0.00433676)
(1.03558 -0.00612725 -0.00418855)
(1.03527 -0.00595437 -0.00435277)
(1.0355 -0.00566864 -0.00401048)
(1.03463 -0.00558882 -0.00488528)
(1.03338 -0.00557064 -0.00522997)
(1.03298 -0.00516738 -0.00517571)
(1.0348 -0.00525149 -0.00522367)
(1.03557 -0.00534558 -0.00487)
(1.0354 -0.00415331 -0.00485389)
(1.03435 -0.00473027 -0.00490392)
(1.03428 -0.00556 -0.00538137)
(1.03596 -0.0066773 -0.00602804)
(1.03616 -0.00664101 -0.00599028)
(1.03547 -0.00590875 -0.00588272)
(1.03396 -0.00663401 -0.00561926)
(1.03341 -0.00706165 -0.00563493)
(1.03437 -0.00756282 -0.00529401)
(1.03518 -0.00688953 -0.00524699)
(1.03437 -0.0063422 -0.00571352)
(1.02019 -0.00521752 -0.00682352)
(1.02043 -0.00553482 -0.00653939)
(1.02015 -0.00549405 -0.00615132)
(1.01983 -0.00482876 -0.0061949)
(1.01997 -0.00414697 -0.0065717)
(1.01978 -0.00416087 -0.00612715)
(1.02085 -0.00444232 -0.00569503)
(1.02147 -0.00431542 -0.00587832)
(1.02246 -0.00332762 -0.00631909)
(1.02179 -0.00309068 -0.00611047)
(1.02148 -0.00247609 -0.006047)
(1.022 -0.00281636 -0.0051766)
(1.02184 -0.00300914 -0.004935)
(1.02191 -0.00326305 -0.00511003)
(1.02105 -0.00309755 -0.00474667)
(1.02106 -0.00281891 -0.00482436)
(1.02141 -0.00364336 -0.00411917)
(1.0211 -0.0039835 -0.00423741)
(1.02189 -0.00346908 -0.00454341)
(1.02185 -0.00348295 -0.00468754)
(1.02113 -0.00345854 -0.00472312)
(1.02107 -0.00413809 -0.0040563)
(1.0209 -0.00407894 -0.0042971)
(1.02132 -0.00372616 -0.00414188)
(1.02087 -0.00371014 -0.0050149)
(1.02046 -0.00383558 -0.00501733)
(1.02055 -0.00369906 -0.00513795)
(1.02155 -0.00361402 -0.00536019)
(1.02164 -0.00368469 -0.00500534)
(1.02139 -0.00272141 -0.00529864)
(1.02117 -0.00336225 -0.0051838)
(1.02065 -0.00422183 -0.00562357)
(1.02076 -0.00497198 -0.00626039)
(1.02008 -0.00487085 -0.00636688)
(1.01968 -0.00431866 -0.00671094)
(1.01962 -0.00499551 -0.00626099)
(1.01962 -0.00546184 -0.00635287)
(1.01994 -0.00581046 -0.00633434)
(1.02009 -0.00526024 -0.00678193)
(1.02005 -0.00468646 -0.00702039)
(1.01366 -0.0031562 -0.00429563)
(1.01392 -0.00340372 -0.00409651)
(1.01366 -0.00335772 -0.00385511)
(1.01335 -0.00282689 -0.00400447)
(1.01347 -0.00229348 -0.00431214)
(1.01356 -0.0022967 -0.00391476)
(1.01413 -0.00240997 -0.00365955)
(1.01415 -0.00236138 -0.00404582)
(1.01439 -0.00157361 -0.00445451)
(1.01414 -0.00130875 -0.00421026)
(1.01394 -0.000783739 -0.00421707)
(1.01435 -0.00106768 -0.00367422)
(1.01415 -0.00125149 -0.00369072)
(1.01411 -0.00154542 -0.0040269)
(1.01357 -0.00151022 -0.00372311)
(1.01361 -0.00123468 -0.00373874)
(1.01406 -0.00190816 -0.00307808)
(1.01345 -0.0022037 -0.00335053)
(1.01359 -0.00180029 -0.00366427)
(1.0136 -0.0016029 -0.00361809)
(1.01351 -0.00156542 -0.0033462)
(1.01388 -0.00213354 -0.00269261)
(1.01367 -0.00228518 -0.00296031)
(1.01385 -0.00191248 -0.00283616)
(1.01368 -0.0018625 -0.00334042)
(1.01345 -0.00200399 -0.00304304)
(1.01369 -0.00199372 -0.00311615)
(1.01414 -0.00195988 -0.00317325)
(1.0141 -0.00211072 -0.0027143)
(1.01396 -0.00138627 -0.00298995)
(1.01423 -0.00182623 -0.00278678)
(1.01381 -0.00258835 -0.00308348)
(1.01357 -0.00312778 -0.00355549)
(1.01305 -0.00311177 -0.00366917)
(1.01276 -0.0027051 -0.00416805)
(1.01316 -0.00328627 -0.00372408)
(1.01312 -0.00370189 -0.00387925)
(1.01308 -0.00394631 -0.00394942)
(1.01301 -0.00344894 -0.00440587)
(1.01313 -0.00283218 -0.00456059)
(1.01172 -0.00168521 -0.00181328)
(1.01184 -0.0018881 -0.00171482)
(1.01159 -0.00186104 -0.00157148)
(1.01142 -0.00143432 -0.00170224)
(1.01152 -0.00102473 -0.00197217)
(1.01158 -0.000988412 -0.00174873)
(1.01181 -0.00101749 -0.00160768)
(1.01168 -0.00103866 -0.00189311)
(1.01166 -0.00047605 -0.00215484)
(1.01159 -0.000274524 -0.00206051)
(1.01146 0.000151039 -0.00213199)
(1.01181 -6.83226e-05 -0.00181145)
(1.01173 -0.000279871 -0.00191804)
(1.01177 -0.000567095 -0.00222656)
(1.01144 -0.000666118 -0.00209738)
(1.01148 -0.000352525 -0.00214701)
(1.01195 -0.000931414 -0.00171982)
(1.01146 -0.00112733 -0.00200422)
(1.01145 -0.000884218 -0.00222539)
(1.0115 -0.000631676 -0.0021619)
(1.01157 -0.000661856 -0.00194998)
(1.01191 -0.00106061 -0.00145032)
(1.01165 -0.00130441 -0.00164556)
(1.01169 -0.000967127 -0.0015316)
(1.01169 -0.000937653 -0.00176724)
(1.01146 -0.000965479 -0.00142854)
(1.01162 -0.00101988 -0.00144721)
(1.01181 -0.0009935 -0.00132528)
(1.01165 -0.00119305 -0.000906519)
(1.01157 -0.000593901 -0.00106593)
(1.01192 -0.000837331 -0.000884362)
(1.01185 -0.00143741 -0.00105523)
(1.01172 -0.00185973 -0.00130674)
(1.01138 -0.00192057 -0.00136106)
(1.01119 -0.00164668 -0.00170871)
(1.01158 -0.00200766 -0.0013633)
(1.01151 -0.00233198 -0.00150058)
(1.01137 -0.00243922 -0.00154385)
(1.01133 -0.00206235 -0.00185807)
(1.01136 -0.00147094 -0.00199569)
(1.0115 -0.000956245 -0.000576351)
(1.01156 -0.00112046 -0.000525157)
(1.01135 -0.00109291 -0.00041967)
(1.01126 -0.000800406 -0.000490029)
(1.01133 -0.000504326 -0.000716934)
(1.01135 -0.00043858 -0.000634324)
(1.01145 -0.000388699 -0.000561123)
(1.01132 -0.000423909 -0.000740294)
(1.01126 -4.41079e-05 -0.00087902)
(1.01127 6.13204e-05 -0.00086877)
(1.01116 0.000423098 -0.00096576)
(1.01143 0.000289667 -0.000768124)
(1.01141 0.000123129 -0.000877125)
(1.01151 -9.64106e-05 -0.00110899)
(1.01131 -0.000262009 -0.00107518)
(1.01131 5.66718e-05 -0.0011234)
(1.01174 -0.000430178 -0.000865833)
(1.01138 -0.000565313 -0.00110442)
(1.01138 -0.000461435 -0.00123878)
(1.01144 -0.000285305 -0.00117728)
(1.01148 -0.000342612 -0.00105792)
(1.01173 -0.000594014 -0.000722284)
(1.01149 -0.000809545 -0.000849225)
(1.0115 -0.00057667 -0.000754436)
(1.01154 -0.000591714 -0.000861858)
(1.01127 -0.000551724 -0.000598651)
(1.01137 -0.000572961 -0.000604151)
(1.01147 -0.000564169 -0.000434552)
(1.01129 -0.000742523 -0.000112351)
(1.01121 -0.00030064 -0.000179363)
(1.01148 -0.000374698 -7.09124e-05)
(1.01157 -0.000776594 -0.000194333)
(1.01155 -0.0010749 -0.000308002)
(1.01136 -0.00122753 -0.000312043)
(1.0112 -0.00100364 -0.000526075)
(1.0115 -0.00120391 -0.000303045)
(1.01144 -0.00141899 -0.000428409)
(1.01131 -0.00147861 -0.000420819)
(1.01133 -0.00129621 -0.000591561)
(1.0113 -0.000856903 -0.000708981)
(1.01163 -0.000644507 -0.000192928)
(1.01169 -0.000749982 -0.000159925)
(1.01153 -0.000733124 -9.53796e-05)
(1.01148 -0.000537875 -0.000102195)
(1.01153 -0.000341921 -0.000272983)
(1.01152 -0.000282753 -0.000240508)
(1.01159 -0.000202786 -0.000215025)
(1.0115 -0.000230334 -0.000330315)
(1.01145 3.00808e-05 -0.000402438)
(1.01149 8.24747e-05 -0.000407946)
(1.01137 0.000372321 -0.00050002)
(1.01158 0.000320649 -0.000367088)
(1.01157 0.000195884 -0.000467782)
(1.01168 7.50516e-05 -0.000620977)
(1.01156 -0.000140174 -0.000618439)
(1.01151 0.000168223 -0.000642058)
(1.01188 -0.000242388 -0.000486137)
(1.0116 -0.000305652 -0.000657936)
(1.01164 -0.000323114 -0.000740978)
(1.01169 -0.000200377 -0.000681805)
(1.01167 -0.000272207 -0.000612856)
(1.01187 -0.000424196 -0.00039573)
(1.01168 -0.00058445 -0.000480849)
(1.01169 -0.000461736 -0.000406491)
(1.01172 -0.000529109 -0.000462916)
(1.01146 -0.000455716 -0.00026465)
(1.01152 -0.000445459 -0.00027982)
(1.0116 -0.000430729 -0.000123298)
(1.01145 -0.00057005 0.000119308)
(1.01138 -0.000255654 9.04907e-05)
(1.01154 -0.000246816 0.000166224)
(1.01164 -0.000500042 5.04654e-05)
(1.01168 -0.000691915 -9.65814e-06)
(1.01158 -0.00085218 -1.08832e-05)
(1.01143 -0.000672381 -0.000150455)
(1.01165 -0.000796349 -1.07678e-05)
(1.0116 -0.000945636 -0.000131846)
(1.0115 -0.000960546 -0.000115962)
(1.01158 -0.000922639 -0.000201869)
(1.01153 -0.000619861 -0.000292572)
(1.01176 -0.000443945 -0.000104681)
(1.01182 -0.000509562 -8.45071e-05)
(1.01171 -0.000500004 -5.86875e-05)
(1.01168 -0.000374211 -3.37933e-05)
(1.01171 -0.000252887 -0.000152962)
(1.01169 -0.000211426 -0.000136914)
(1.01175 -0.000143691 -0.000133802)
(1.01169 -0.000152096 -0.000217621)
(1.01166 2.73447e-05 -0.000259686)
(1.01171 4.2738e-05 -0.000256887)
(1.01158 0.000260195 -0.000321849)
(1.01174 0.000264659 -0.000232084)
(1.01172 0.000166715 -0.000305391)
(1.01182 0.000126258 -0.000408761)
(1.01176 -0.00010157 -0.000398308)
(1.01169 0.000185448 -0.000409772)
(1.01199 -0.000158006 -0.000299643)
(1.01176 -0.000156517 -0.000412203)
(1.01182 -0.000236618 -0.000473093)
(1.01186 -0.000157889 -0.000421456)
(1.01179 -0.000213522 -0.000375339)
(1.01198 -0.000334327 -0.00023563)
(1.01181 -0.000430646 -0.00028992)
(1.01183 -0.000400899 -0.000236942)
(1.01187 -0.000479047 -0.000277941)
(1.01161 -0.000415467 -0.000127597)
(1.01166 -0.000371963 -0.00015048)
(1.01173 -0.000345211 -2.88622e-05)
(1.01162 -0.00045065 0.00014874)
(1.01157 -0.000231406 0.000129643)
(1.01166 -0.000197341 0.000197487)
(1.01172 -0.000328631 8.91133e-05)
(1.01177 -0.000446321 5.22248e-05)
(1.01173 -0.00059746 5.44761e-05)
(1.01159 -0.000463162 -4.75289e-05)
(1.01176 -0.000542791 4.59012e-05)
(1.01172 -0.000637187 -6.52899e-05)
(1.01164 -0.000605238 -5.98149e-05)
(1.01176 -0.000646812 -0.000103518)
(1.01171 -0.000446223 -0.000181988)
(1.01184 -0.000311261 -8.42129e-05)
(1.0119 -0.000357283 -6.97322e-05)
(1.01182 -0.000349541 -7.04747e-05)
(1.01181 -0.000267226 -3.46961e-05)
(1.01183 -0.000192817 -0.000113515)
(1.0118 -0.000167109 -9.85165e-05)
(1.01185 -0.000122172 -0.000107845)
(1.01181 -0.000123258 -0.000169454)
(1.01179 8.98963e-06 -0.000190272)
(1.01184 1.22989e-07 -0.000175656)
(1.01172 0.000150115 -0.000219844)
(1.01183 0.000190013 -0.000158435)
(1.01181 0.00011407 -0.000205157)
(1.01189 0.000135424 -0.000275856)
(1.01187 -8.07344e-05 -0.00024888)
(1.01178 0.000166785 -0.000258244)
(1.01204 -0.000115217 -0.000177962)
(1.01184 -8.31598e-05 -0.000241013)
(1.01191 -0.000170664 -0.000286789)
(1.01195 -0.000157142 -0.000247125)
(1.01185 -0.000164523 -0.000215431)
(1.01203 -0.000306523 -0.000127857)
(1.01189 -0.000328211 -0.000162311)
(1.0119 -0.000360862 -0.000123941)
(1.01195 -0.000427676 -0.000156552)
(1.01172 -0.000386284 -4.457e-05)
(1.01176 -0.000325237 -7.05585e-05)
(1.0118 -0.000291198 7.90918e-06)
(1.01172 -0.000364975 0.000145943)
(1.0117 -0.000220265 0.000119268)
(1.01173 -0.000174488 0.00018371)
(1.01177 -0.000250486 8.9472e-05)
(1.01182 -0.000295094 5.86025e-05)
(1.01181 -0.000430189 6.49272e-05)
(1.0117 -0.000319345 -1.59436e-05)
(1.01182 -0.000368032 5.10289e-05)
(1.01181 -0.000438704 -4.82474e-05)
(1.01172 -0.000365825 -5.28067e-05)
(1.01186 -0.000446949 -7.31331e-05)
(1.01182 -0.000322945 -0.000141254)
(1.01189 -0.000201165 -7.04915e-05)
(1.01194 -0.000242605 -5.91282e-05)
(1.01188 -0.000227108 -7.03113e-05)
(1.01188 -0.000183171 -3.58723e-05)
(1.01189 -0.000139075 -8.44141e-05)
(1.01186 -0.000126944 -7.39361e-05)
(1.01192 -9.60213e-05 -8.39247e-05)