/*--------------------------------*- C++ -*----------------------------------*\
  =========                 |
  \\      /  F ield         | OpenFOAM: The Open Source CFD Toolbox
   \\    /   O peration     | Website:  https://openfoam.org
    \\  /    A nd           | Version:  10
     \\/     M anipulation  |
\*---------------------------------------------------------------------------*/
FoamFile
{
    format      ascii;
    class       volTensorField;
    location    "13";
    object      gradientUWrite;
}
// * * * * * * * * * * * * * * * * * * * * * * * * * * * * * * * * * * * * * //

dimensions      [0 0 -1 0 0 0 0];

internalField   nonuniform List<tensor> 
25600
(
(0.28135 -0.0291167 0.00733612 -0.572295 0.0319605 -0.158621 0.115254 0.603452 -0.276375)
(0.22496 0.0300647 -0.0393337 -0.55969 0.0791671 -0.251402 0.159351 0.436165 -0.27087)
(-0.00481573 0.183209 -0.0596867 -0.507668 0.119435 -0.272843 0.0996439 0.152709 -0.116207)
(-0.260832 0.253599 -0.0462181 -0.418614 0.12118 -0.235165 -0.0153142 -0.115485 0.106294)
(-0.428543 0.151205 -0.0111028 -0.302528 0.141152 -0.123926 -0.121688 -0.203564 0.235623)
(-0.391746 0.0105358 0.0259981 -0.118411 0.12773 -0.044242 -0.211404 -0.0941389 0.219304)
(-0.184711 -0.0986752 0.0490189 0.0145516 0.0803549 -0.0596385 -0.216661 0.0773139 0.0867248)
(0.0315113 -0.113361 0.0506678 0.0481151 -0.040444 -0.105491 -0.109748 0.250656 -0.0647472)
(0.266224 -0.0160042 0.0336021 0.0210577 -0.19182 -0.15929 0.0556412 0.322308 -0.12588)
(0.361636 0.0494375 -0.0129677 -0.12026 -0.357412 -0.166018 0.149221 0.308446 -0.0265838)
(0.203436 0.063116 -0.0549974 -0.26947 -0.476405 -0.0970082 0.0915255 0.318861 0.215262)
(-0.0469288 0.0464572 -0.057611 -0.321074 -0.447323 -0.0461057 -0.105524 0.29057 0.440519)
(-0.22132 -0.00671609 -0.0315534 -0.289637 -0.323758 -0.0427494 -0.336461 0.214014 0.50259)
(-0.209078 -0.0619722 0.0818315 -0.173155 -0.14338 -0.0312735 -0.467506 0.129007 0.378716)
(-0.0765656 -0.14083 0.223895 -0.0566158 -0.0589102 0.0119891 -0.393621 -0.00446778 0.144565)
(0.108241 -0.18605 0.23002 0.0200587 -0.0631338 0.0780842 -0.261478 -0.133527 -0.0705447)
(0.258 -0.176113 0.102521 0.106215 -0.0501045 0.153347 -0.0854339 -0.231447 -0.207616)
(0.236015 -0.105874 -0.0757666 0.148699 0.00121642 0.141964 0.0937073 -0.23671 -0.290007)
(0.0941731 0.050101 -0.203687 0.191283 0.128274 0.0735575 0.174192 -0.0836708 -0.278851)
(-0.0606518 0.188479 -0.184746 0.128075 0.250483 -0.00365485 0.158127 0.166694 -0.206267)
(-0.208629 0.222421 -0.0591987 -0.0328908 0.334644 -0.0726454 0.0699474 0.343966 -0.138255)
(-0.303091 0.129595 0.0260796 -0.188256 0.326105 -0.115464 -0.133733 0.362536 -0.0707941)
(-0.255453 0.00550605 0.0147201 -0.185396 0.240338 -0.172538 -0.31166 0.204935 -0.0464482)
(-0.12357 -0.0698735 -0.0176631 -0.0684604 0.152602 -0.210821 -0.398154 0.0427609 -0.0541146)
(-0.0139194 -0.122314 -0.0427883 0.00143219 0.0325965 -0.197962 -0.371467 -0.0110115 -0.0634753)
(0.0845664 -0.0843019 -0.0376956 0.0220202 -0.0426165 -0.162514 -0.265016 0.055821 -0.0745873)
(0.137794 0.0274442 0.0170261 -0.0163367 -0.0591861 -0.136133 -0.193474 0.221875 -0.0558491)
(0.0715137 0.0803291 0.0573865 -0.103954 -0.101794 -0.122846 -0.186545 0.322388 0.00974751)
(-0.0242072 0.104579 0.0721068 -0.157692 -0.141467 -0.081365 -0.295622 0.308836 0.133308)
(-0.0770211 0.0909106 0.0490886 -0.135659 -0.18278 -0.00569255 -0.411984 0.16539 0.254229)
(-0.0440118 0.00312607 -0.0169031 -0.0229206 -0.285307 0.0700368 -0.389627 -0.0305487 0.275169)
(0.122268 -0.0558685 -0.064498 0.271103 -0.339208 0.160749 -0.219425 -0.0809752 0.192489)
(0.282593 -0.113097 -0.0896156 0.566066 -0.317798 0.173627 0.0550149 -0.0478699 0.0462526)
(0.272971 -0.156107 -0.0887172 0.647965 -0.180506 0.10087 0.254965 -0.0506091 -0.0903046)
(0.0775535 -0.124172 -0.0454209 0.39251 -0.00943921 0.0277083 0.307295 -0.093947 -0.0927207)
(-0.114562 -0.0815904 -0.00310523 -0.0569121 0.0417753 -0.0551576 0.208769 -0.22657 0.00603419)
(-0.167253 -0.00507708 0.0265564 -0.351834 0.0590241 -0.0428423 0.00913058 -0.276791 0.0756738)
(-0.122122 0.056559 0.0578453 -0.532124 0.0287817 0.0210598 -0.107665 -0.0924303 0.074606)
(0.0283052 0.0214085 0.0681718 -0.613332 0.0129002 0.0195329 -0.116707 0.203253 -0.0350924)
(0.19592 -0.0209675 0.049405 -0.592308 0.0474367 -0.0411999 -0.0158977 0.499374 -0.18441)
(0.148738 0.0914765 -0.116627 -0.747865 -0.0427663 -0.13572 0.811733 0.0914584 -0.125601)
(0.0643269 0.109897 -0.106248 -0.881916 -0.0587803 -0.184221 0.529593 0.12788 0.00439247)
(0.013088 0.106315 -0.0575062 -0.919369 -0.120204 -0.167248 0.15568 0.128279 0.12987)
(-0.0104454 0.110216 0.0150498 -0.829176 -0.192951 -0.138681 -0.0362444 0.100377 0.204984)
(-0.0472614 0.0891151 0.056018 -0.619865 -0.167168 -0.10486 -0.0188877 0.0910415 0.225811)
(-0.085136 0.0206966 0.00761512 -0.320749 -0.12938 -0.152838 0.0974267 0.0930837 0.225225)
(-0.104212 -0.102917 -0.0483992 -0.15934 -0.18211 -0.225798 0.239347 0.071295 0.225026)
(-0.101322 -0.19863 -0.0706496 -0.118352 -0.235957 -0.235123 0.242379 -0.00620471 0.233764)
(-0.0541528 -0.201495 -0.0385471 -0.183446 -0.244505 -0.198402 0.0950437 -0.0922941 0.26184)
(0.007125 -0.167137 0.035304 -0.404095 -0.304272 -0.111923 -0.0739084 -0.121264 0.266793)
(0.0761421 -0.0471417 0.0773178 -0.522438 -0.378462 -0.00460243 -0.146587 -0.0814956 0.27297)
(0.135497 0.0763851 0.0887516 -0.431404 -0.459824 0.066839 -0.162321 -0.0800152 0.300223)
(0.172006 0.0975332 0.106465 -0.143284 -0.514855 0.136393 -0.137445 -0.180779 0.324969)
(0.166191 0.00892438 0.178624 0.22637 -0.495901 0.256437 -0.0930977 -0.232199 0.358784)
(0.093331 -0.14919 0.247919 0.41362 -0.437554 0.277703 -0.124802 -0.147619 0.352573)
(0.0944544 -0.180192 0.214586 0.414267 -0.282104 0.145713 -0.128263 0.0819196 0.241569)
(0.125172 -0.0625183 0.0802634 0.23627 -0.0726877 -0.0163228 -0.0681792 0.361373 0.0207971)
(0.0730888 0.123494 -0.0775283 -0.0239937 0.071932 -0.130582 0.120681 0.443563 -0.15914)
(-0.0394812 0.290261 -0.166277 -0.204105 0.160318 -0.122815 0.294332 0.335382 -0.141442)
(-0.183224 0.318587 -0.178383 -0.24114 0.162451 -0.0376357 0.376428 0.198239 0.0453095)
(-0.226751 0.194517 -0.154695 -0.155476 0.0769551 0.00723817 0.365817 0.160098 0.178964)
(-0.0828215 -0.0220794 -0.178032 0.00679142 -0.0265323 -0.00965919 0.267142 0.237648 0.129989)
(0.119305 -0.179093 -0.212838 0.201154 -0.0469785 -0.0996143 0.225783 0.297753 -0.0153903)
(0.148093 -0.227816 -0.142717 0.242958 -0.0436899 -0.191191 0.360492 0.245478 -0.090678)
(0.0174612 -0.17988 -0.0147952 0.0924156 -0.0233839 -0.227416 0.572347 0.156853 -0.039129)
(-0.10981 -0.0429724 0.0923757 -0.0177978 -0.0111025 -0.210128 0.652653 0.189368 0.101766)
(-0.183826 0.0583208 0.148702 -0.111165 -0.0595515 -0.190739 0.477304 0.335161 0.216768)
(-0.208901 0.0807102 0.144934 -0.148842 -0.122467 -0.208806 0.0716019 0.471364 0.284512)
(-0.124405 0.0823472 0.130808 -0.069233 -0.129338 -0.192671 -0.326061 0.47807 0.253929)
(0.0544277 0.0220018 0.118224 0.0526323 -0.119121 -0.104225 -0.544114 0.274226 0.0841123)
(0.309142 -0.054763 0.103156 0.245778 -0.112413 0.0364182 -0.425182 -0.0211597 -0.174524)
(0.512304 -0.0256505 0.0491075 0.431424 -0.0338475 0.181427 -0.111087 -0.183368 -0.415234)
(0.374802 0.0810923 -0.0892579 0.428822 0.080812 0.197941 0.166283 -0.13745 -0.427992)
(-0.119582 0.144137 -0.204237 0.152011 0.196529 0.0976851 0.326051 0.0880416 -0.103737)
(-0.594493 0.020641 -0.220534 -0.283695 0.116058 -0.000501901 0.359818 0.345695 0.354768)
(-0.602867 -0.140213 -0.106741 -0.566173 -0.110955 -0.0546171 0.318786 0.402991 0.607204)
(-0.296872 -0.154654 0.0831444 -0.633173 -0.238158 0.00399952 0.211036 0.294581 0.5311)
(-0.00944428 -0.0875863 0.157315 -0.617998 -0.304694 0.0771411 0.321655 0.170566 0.268712)
(0.222267 0.0200331 0.0856819 -0.566767 -0.201501 0.0602477 0.625875 0.0705636 -0.0368578)
(0.258045 0.0772269 -0.0373497 -0.606277 -0.0411468 -0.0188013 0.842437 0.0507518 -0.187122)
(0.040933 -0.0327555 -0.140982 -0.624431 0.0392317 -0.211248 0.814954 1.01287 0.0111545)
(0.0682651 -0.0268266 -0.0715397 -0.732778 0.0165784 -0.209941 0.530364 0.66029 0.0256501)
(0.0405055 0.0650594 -0.0217608 -0.65897 -0.0908564 -0.160704 0.368654 0.207458 0.0858436)
(0.0100694 0.201648 0.0110402 -0.453077 -0.1726 -0.033263 0.408585 -0.0317252 0.122887)
(0.0273477 0.198224 -0.0167257 -0.181247 -0.164287 0.0867293 0.526103 -0.0437335 0.090911)
(0.0176678 -0.000918661 -0.0758658 0.00920625 -0.0863737 0.11833 0.670616 0.0366288 0.0529215)
(-0.00971207 -0.187355 -0.0280118 -0.0175434 -0.0964214 0.167709 0.756225 0.0792989 0.073776)
(-0.000542395 -0.172809 0.0623286 -0.0561873 -0.123778 0.216271 0.624985 -0.117985 0.130179)
(0.000356731 -0.0894735 0.129105 -0.00927043 -0.15177 0.246896 0.351211 -0.401744 0.187941)
(0.0485488 -0.0812404 0.151977 0.092048 -0.211063 0.235027 0.0326425 -0.521518 0.155953)
(0.169233 -0.0757805 0.105134 0.265305 -0.276026 0.22044 -0.237433 -0.436532 0.0809542)
(0.283777 -0.0638152 0.0725108 0.373289 -0.370852 0.282357 -0.411005 -0.322708 0.0380454)
(0.359394 -0.0271218 0.138075 0.376541 -0.431099 0.362778 -0.483155 -0.316455 0.0463241)
(0.286426 0.00851692 0.207705 0.269192 -0.390929 0.374114 -0.465786 -0.264761 0.104483)
(0.0945525 0.0355308 0.13435 0.122555 -0.204404 0.139294 -0.448863 -0.0171921 0.0873394)
(-0.0399384 0.116757 -0.0149702 0.102952 0.00459879 -0.233731 -0.430364 0.341793 0.0693844)
(-0.117161 0.127522 -0.1284 0.0175577 0.0856943 -0.500685 -0.31234 0.499874 0.0655913)
(-0.143636 0.108024 -0.164151 -0.191843 0.0637976 -0.513053 -0.00269541 0.216768 0.0616728)
(-0.0978803 0.146938 -0.123283 -0.31746 -0.00729965 -0.3032 0.361306 -0.153218 0.113049)
(-0.0315142 0.131252 -0.0764246 -0.269362 -0.109239 -0.100761 0.365479 -0.137685 0.158162)
(-0.0048776 0.0633187 -0.0447082 -0.083332 -0.239464 -0.0342225 0.0428779 0.275232 0.189433)
(0.0123965 0.0131247 -0.0810095 0.165227 -0.259574 -0.0839382 -0.218612 0.626022 0.218607)
(-0.0257107 -0.0255002 -0.15637 0.25026 -0.117396 -0.105506 -0.0350144 0.533672 0.205252)
(-0.188943 -0.0646936 -0.134916 0.209429 -0.00165823 -0.0133783 0.594036 0.116912 0.148716)
(-0.227089 -0.100553 -0.0559303 0.179245 0.0821328 0.0162002 1.14805 -0.241992 0.0856521)
(-0.101772 -0.110506 0.00452111 0.125236 0.0181948 -0.0623031 1.33151 -0.211595 0.0923605)
(-2.6363e-05 -0.0620073 0.0300989 0.0350308 -0.190138 -0.150471 1.22119 0.0624101 0.196116)
(0.0807445 0.0225485 0.0637499 -0.0556213 -0.356338 -0.134851 0.858002 0.287701 0.299695)
(0.133591 0.105328 0.164087 0.134154 -0.35893 0.0787159 0.333307 0.316839 0.25294)
(0.195908 0.0986645 0.245167 0.507845 -0.264484 0.246599 -0.207392 0.137203 0.0285796)
(0.301924 0.0685056 0.230667 0.697402 -0.190706 0.190523 -0.456215 0.0683462 -0.182922)
(0.30939 0.106958 0.07965 0.430424 -0.167557 0.0487005 -0.359454 0.233477 -0.208981)
(0.0595001 0.095423 -0.158959 -0.244122 -0.0794406 -0.0669545 -0.00937978 0.388699 -0.0197375)
(-0.353024 -0.0995955 -0.263626 -0.717557 0.0921575 -0.0881141 0.523209 0.327628 0.240175)
(-0.57856 -0.365735 -0.187525 -0.521915 0.105363 0.0209721 1.11983 0.0301776 0.412364)
(-0.448506 -0.380374 -0.00880325 0.0308589 -0.0529118 0.22776 1.66109 -0.216633 0.516367)
(-0.221978 -0.179186 0.140859 0.399322 -0.281198 0.389194 1.95031 -0.0938435 0.575899)
(-0.0568579 0.0738149 0.113492 0.40041 -0.396579 0.335249 1.93536 0.401212 0.510864)
(0.0556588 0.239619 -0.00971911 0.120485 -0.20514 0.117005 1.60143 0.899278 0.26454)
(0.0515397 0.119469 -0.120836 -0.295054 -0.0187258 -0.10333 1.16684 1.11052 0.0546443)
(-0.190715 0.106763 -0.19913 -0.163111 0.0433386 -0.315044 0.444205 0.877072 -0.0181268)
(0.0386734 -0.000508842 -0.0650258 -0.314079 -0.0208608 -0.0645015 0.384752 0.651148 -0.133355)
(0.226223 -0.0399069 0.0788001 -0.466417 -0.169466 0.127752 0.243019 0.56334 -0.128055)
(0.351191 0.0632329 0.201025 -0.468484 -0.31688 0.31982 -0.0772316 0.603802 -0.0436787)
(0.307667 0.163977 0.163565 -0.334302 -0.240474 0.358923 -0.459336 0.56333 -0.017692)
(0.0474996 0.0698395 0.0610062 -0.121536 -0.00242442 0.284228 -0.630706 0.468751 -0.012524)
(-0.144864 -0.138767 0.0272139 -0.0505166 0.0992832 0.212023 -0.474813 0.341824 0.0104678)
(-0.0859239 -0.237963 0.00108201 -0.0602198 0.0831372 0.216768 -0.0860463 0.0585888 -0.00104126)
(0.0624406 -0.257039 -0.00917214 -0.00643468 -0.086329 0.363228 0.268503 -0.124727 0.0245917)
(0.217674 -0.2529 0.0259933 0.0935738 -0.271558 0.372143 0.37702 -0.176351 0.00124704)
(0.296411 -0.170083 0.115492 0.198528 -0.343584 0.195102 0.112071 -0.23497 -0.0291405)
(0.232756 -0.053153 0.194468 0.238941 -0.209199 0.0975074 -0.3023 -0.335188 -0.0979288)
(0.110657 0.0710739 0.178441 0.108552 0.0329046 0.127355 -0.497638 -0.308697 -0.170895)
(-0.0141464 0.17961 0.012965 -0.286971 0.127637 0.0710055 -0.31954 0.0929638 -0.0907747)
(-0.0317521 0.165483 -0.220175 -0.685837 0.115521 -0.265349 0.0988247 0.625797 -0.0177977)
(0.00315647 0.0652907 -0.288259 -0.80515 0.133956 -0.621193 0.3338 0.846027 -0.0136389)
(-0.11888 -0.000649168 -0.149073 -0.723511 0.214527 -0.704485 0.241538 0.607217 -0.0789214)
(-0.198925 0.0520541 0.0633168 -0.580508 0.270445 -0.395909 -0.0475015 0.193736 -0.126626)
(-0.103172 0.146911 0.148127 -0.438305 0.244502 0.0378655 -0.29048 0.0447779 -0.105041)
(0.00689634 0.126706 0.0334564 -0.450299 0.0809823 0.211801 -0.308095 0.262908 -0.0653613)
(0.120717 0.0693666 -0.13202 -0.565727 -0.0974688 0.129974 -0.0732872 0.564831 -0.0562411)
(0.177065 0.0730513 -0.222889 -0.669001 -0.145973 -0.0809533 0.198111 0.61357 0.0160797)
(0.139402 0.0291133 -0.154563 -0.560402 -0.198728 -0.192818 0.337573 0.380199 0.147804)
(0.0639537 -0.0627139 -0.0503518 -0.0821838 -0.174618 -0.146063 0.198613 0.0869119 0.188221)
(-0.0681899 -0.157713 -0.055382 0.499548 -0.0974331 -0.0717792 -0.135516 -0.0842778 0.245974)
(-0.217685 -0.25416 -0.0411349 0.492752 -0.0653794 0.0149626 -0.332308 0.097162 0.312973)
(-0.303309 -0.234683 0.083278 0.091426 0.0230138 0.0899975 -0.398077 0.481799 0.262635)
(-0.107905 -0.0516967 0.310148 -0.192215 -0.0175302 0.127262 -0.244441 0.80042 0.101928)
(0.323406 0.153613 0.421103 -0.0346399 -0.120932 0.160766 -0.0162894 0.76024 -0.15573)
(0.491475 0.155663 0.213973 0.180832 -0.127833 0.0533809 0.195492 0.376216 -0.292297)
(0.250181 0.0294445 -0.0342809 -0.0773097 -0.0508504 -0.149306 0.41608 0.0579977 -0.0962122)
(-0.215209 0.0702055 -0.142019 -0.708892 0.108234 -0.256346 0.491509 0.0199859 0.192755)
(-0.518416 0.277985 -0.198632 -1.16969 0.307637 -0.251521 0.647522 0.0639952 0.179635)
(-0.350021 0.26114 -0.143423 -0.772983 0.423882 -0.0771524 0.762286 -0.0745901 -0.104359)
(-0.029417 -0.123756 0.0203514 0.229393 0.219163 0.192624 0.535532 -0.342946 -0.198985)
(0.104951 -0.453175 0.179473 0.788545 -0.0888611 0.40505 0.129103 -0.416242 -0.0491752)
(-0.011753 -0.415699 0.169344 0.54904 -0.15087 0.374375 -0.0653965 0.108525 0.12903)
(-0.223747 -0.0156252 -0.0516554 0.0620239 -0.0432523 0.0290425 0.0707336 1.00518 0.178525)
(-0.316637 0.324566 -0.253287 -0.0671096 0.0743644 -0.357561 0.244879 1.45686 0.140189)
(-0.32173 0.265104 -0.292149 -0.0568754 0.0755764 -0.501359 0.38893 1.24188 0.0817861)
(-0.156217 -0.086084 0.152796 -0.580291 -0.213563 0.0570013 1.9429 1.23533 0.28724)
(-0.142066 -0.170116 0.232185 -0.2782 -0.0864882 0.300831 1.27392 0.884641 0.107242)
(-0.0483047 -0.14714 0.250489 -0.299536 -0.0283593 0.369113 0.834531 0.704728 -0.0147113)
(0.131544 0.140446 0.186579 -0.611713 -0.0842441 0.355795 0.625473 0.830771 -0.112251)
(0.290363 0.41038 -0.0246919 -0.850109 -0.280574 0.079659 0.513836 0.823352 -0.102586)
(0.214657 0.238112 -0.163982 -0.649544 -0.4042 -0.133963 0.388401 0.548753 0.11738)
(0.0199703 -0.124361 -0.0691705 -0.310661 -0.372658 -0.0173374 0.220307 0.0587326 0.299171)
(0.0218689 -0.305804 0.160271 0.0137696 -0.334263 0.252908 -0.0121564 -0.605668 0.250466)
(0.111289 -0.347536 0.222894 0.00485103 -0.178383 0.448293 -0.200754 -0.946904 0.0195657)
(0.204248 -0.272969 0.0254201 -0.435948 0.0982392 0.255535 -0.546223 -0.798881 -0.313065)
(0.280318 -0.0416691 -0.0819358 -0.953324 0.344439 -0.160181 -1.27589 -0.335838 -0.493408)
(0.217539 0.194894 0.037226 -1.18085 0.509201 -0.398654 -1.79478 0.00881733 -0.547712)
(-0.0232658 0.212405 0.123604 -0.957537 0.585456 -0.340411 -1.591 -0.0679751 -0.492697)
(-0.284744 0.0806385 -0.07885 -0.687724 0.482658 -0.293093 -0.660127 -0.201331 -0.212613)
(-0.271675 0.0516774 -0.37177 -0.686433 0.141827 -0.405092 0.459378 -0.0106426 0.125534)
(-0.0618096 0.179854 -0.340457 -0.860009 -0.062872 -0.554578 0.774507 0.232776 0.169585)
(0.0364698 0.209302 0.0239463 -0.888331 0.0533438 -0.589897 0.357033 0.204454 -0.147636)
(0.0465835 0.123454 0.364745 -0.41532 0.251189 -0.348885 -0.17081 0.0290996 -0.355395)
(-0.00922265 0.0172316 0.317436 0.0219485 0.197473 -0.23427 -0.357602 -0.0570498 -0.115214)
(-0.115252 -0.103271 -0.00337274 -0.129313 -0.155524 -0.275164 -0.0110025 0.156359 0.297368)
(-0.143173 -0.0915019 -0.253066 -0.618801 -0.222051 -0.179713 0.497722 0.492416 0.401962)
(0.031021 -0.0507448 -0.314895 -1.03901 -0.0703003 -0.000467375 0.796402 0.557076 0.090479)
(0.391037 -0.0401426 -0.200779 -0.786458 -0.0818774 0.24726 0.766106 0.489873 -0.401643)
(0.559691 0.00483164 -0.044362 -0.106878 -0.0245419 0.247617 0.479334 0.398245 -0.631009)
(0.180959 -0.0309689 0.0543557 0.0958183 0.0355061 0.0039843 0.200777 -0.0242421 -0.273052)
(-0.391712 -0.0411166 0.111118 -0.277383 0.201808 -0.0757437 0.150144 -0.391652 0.165689)
(-0.496534 -0.0449577 0.111815 -0.324849 0.321772 0.0972984 0.135132 -0.503661 0.161709)
(-0.0227191 -0.0827484 0.134611 0.136755 0.0713269 0.26386 0.358547 -0.138531 -0.0915571)
(0.40624 0.0342081 0.136889 0.346369 -0.189249 0.0664006 0.376834 0.57597 -0.297793)
(0.193583 0.151826 0.0300576 -0.382786 -0.239461 -0.385387 -0.0421086 0.74181 -0.077585)
(-0.311877 0.226561 -0.00546916 -1.4823 -0.0682641 -0.40078 -0.209682 0.506247 0.370787)
(-0.48616 0.34903 -0.0104891 -1.944 0.210404 -0.117203 0.00385207 0.385029 0.343751)
(-0.0369462 0.328118 -0.0398941 -1.19906 0.371602 0.0659718 0.36488 0.471862 -0.244648)
(0.605044 -0.127349 0.0513643 0.462666 0.244124 0.192545 0.454813 0.607043 -0.665177)
(0.540396 -0.694741 0.161494 1.4675 -0.0193834 0.0267594 0.087178 0.392925 -0.398292)
(-0.179334 -0.640317 0.132748 1.10172 0.047929 -0.297507 -0.384086 0.130949 0.22003)
(-0.700222 -0.169477 -0.113959 0.0262107 0.162837 -0.5167 -0.184251 0.37904 0.582939)
(-0.493848 0.219872 -0.402604 -0.906374 -0.0581099 -0.605339 0.819973 0.899357 0.644169)
(-0.059604 0.328695 -0.394982 -1.14872 -0.356997 -0.534064 1.92703 1.32866 0.561594)
(-0.0481364 0.111477 -0.107313 -0.930292 -0.390338 -0.314108 2.37808 1.43951 0.440238)
(0.21823 0.278311 0.215569 -1.01078 -0.162484 0.107858 1.71266 1.31853 -0.0235148)
(0.19695 0.0993181 0.156241 -0.492274 0.0741426 -0.156167 1.80538 1.33679 -0.197246)
(-0.00629988 -0.0482647 0.128622 -0.205156 0.435308 -0.237002 1.79383 1.11651 -0.396992)
(-0.0114192 -0.0867004 0.0195797 -0.258231 0.52515 -0.516786 1.58044 1.01195 -0.526062)
(0.282551 -0.0127226 -0.158343 -0.308812 0.371212 -0.825892 1.20694 0.995705 -0.690372)
(0.398411 0.0278414 -0.019822 -0.468354 0.196634 -0.484503 0.396421 0.742916 -0.642584)
(0.28292 -0.0939337 0.259201 -0.722293 -0.0528903 0.197421 -0.532446 -0.10246 -0.22622)
(0.120229 -0.123235 0.305331 -1.12526 -0.0444958 0.381528 -1.30067 -0.780041 0.181666)
(-0.212982 0.00388153 0.0135727 -1.77912 0.306556 0.00398118 -1.69631 -0.433673 0.147603)
(-0.379834 0.0706345 -0.352721 -2.05113 0.469799 -0.409909 -1.72336 0.199428 -0.101085)
(-0.168619 0.0973458 -0.309578 -1.83816 0.476841 -0.669004 -1.73979 0.484063 -0.324481)
(0.22875 0.119399 0.068005 -0.98654 0.399049 -0.660787 -1.81771 0.207004 -0.72808)
(0.405356 0.067412 0.239145 -0.286645 0.22009 -0.436553 -1.37365 -0.243176 -0.744047)
(0.12995 -0.10547 -0.0356391 -0.677427 -0.0551298 -0.401804 -0.203245 -0.116905 -0.0754768)
(-0.160792 -0.184361 -0.396691 -1.01726 -0.1746 -0.326472 0.92968 0.538645 0.39217)
(-0.128397 0.0206477 -0.408014 -0.805024 0.111145 -0.286965 1.18158 0.883676 0.109648)
(0.171988 0.213893 -0.00532832 -0.538966 0.11862 -0.162528 0.492562 0.429439 -0.319086)
(0.389888 0.148243 0.312048 -0.592361 -0.0135009 -0.0578748 -0.341524 0.0540573 -0.339232)
(0.0833597 -0.117988 0.209406 -0.919981 0.0280254 -0.46224 -0.314405 0.286128 -0.0227731)
(-0.402963 -0.15529 0.0640578 -1.18844 0.207316 -0.723245 0.382239 0.660209 0.112763)
(-0.469404 0.107769 0.0279165 -1.02911 0.472863 -0.59039 0.891983 0.828794 -0.0662949)
(0.059445 0.149022 0.0344533 -0.52926 0.345332 -0.257883 0.541824 0.725033 -0.404252)
(0.742371 0.0512896 -0.0043804 -0.0830525 0.0957265 0.0989257 0.086509 0.396856 -0.81138)
(0.658102 0.0164799 -0.201201 -0.0675239 0.200564 0.128091 0.734617 0.297482 -0.813666)
(-0.151634 -0.00532322 -0.246632 -0.612359 0.332264 -0.0266104 1.28183 0.347312 -0.329381)
(-0.495303 -0.0566336 0.0307855 -0.727689 0.2748 -0.0168952 0.775022 0.17132 0.111743)
(-0.063162 -0.298625 0.297214 -0.0581089 -0.104407 0.169874 -0.0371487 -0.316168 0.123377)
(0.317553 -0.372537 0.274952 0.373927 -0.285341 0.327054 0.0486876 -0.392698 -0.0222929)
(0.00762344 -0.0506567 -0.00878654 -0.103773 0.247559 0.0739195 0.617755 0.0579144 -0.182806)
(-0.673629 0.230605 -0.0934907 -0.990877 0.735766 -0.219208 0.512424 0.204518 -0.0833356)
(-0.772513 0.327333 0.135235 -1.15023 0.610276 -0.031178 -0.174474 0.0123955 0.168234)
(-0.063594 0.369304 0.160413 -0.755921 0.0141307 0.086502 -0.684961 0.0535806 -0.0566058)
(1.02308 0.30353 0.00856759 -0.259498 -0.512385 0.0769334 -0.405902 0.363943 -0.660482)
(1.3963 -0.017515 -0.150106 -0.00951656 -0.553308 0.361501 0.170361 0.569373 -1.04667)
(0.420107 -0.29779 -0.271776 0.243673 0.242285 0.258315 0.120147 0.282893 -0.981241)
(-0.817845 -0.3568 -0.16298 0.973321 1.15701 -0.645647 -0.359114 0.0149654 -0.475539)
(-1.32404 -0.459291 -0.047995 1.68218 1.04449 -1.09345 -0.397529 0.0650294 0.279152)
(-0.979491 -0.317703 -0.0943849 1.51507 0.170244 -0.293521 0.285927 0.0607118 0.748467)
(-0.308141 0.118192 -0.084939 0.178452 -0.40413 0.553518 1.311 0.170244 0.637354)
(0.0568963 0.34039 0.0924931 -0.959287 -0.358822 0.550116 1.8046 0.744981 0.218794)
(0.142036 0.191994 -0.241042 -0.410369 -0.119773 -0.250586 1.22895 0.847481 -0.0489868)
(0.344518 0.192567 0.0301879 0.0547355 -0.454355 -0.341306 1.6464 0.862393 0.0545816)
(0.0879154 0.116992 0.0353987 0.338063 -0.331059 -0.148834 1.82026 0.950701 0.164564)
(0.0599 0.0835243 -0.161751 0.501253 -0.189332 -0.698929 1.85067 1.09522 0.134938)
(0.170785 0.18605 -0.0185863 0.339627 -0.0424905 -1.1009 1.5693 1.13624 -0.174523)
(-0.00253562 -0.0209327 0.428026 0.0304451 0.298212 -0.497237 0.75489 1.00128 -0.428243)
(-0.327726 -0.258002 0.450618 0.196124 0.311631 0.127052 -0.323498 0.48341 -0.156469)
(-0.567036 -0.0858555 0.0640361 -0.353847 0.36225 -0.0739804 -1.06024 0.0880916 0.128281)
(-0.441977 -0.0246298 -0.243867 -1.07661 0.51584 -0.295172 -0.693834 -0.104505 -0.121589)
(0.117716 -0.145382 -0.389689 -0.392771 0.154375 0.131183 0.393312 -0.451763 -0.327506)
(0.841725 -0.069047 -0.244566 0.333587 -0.529692 0.261219 0.771065 -0.650574 -0.371117)
(1.09626 0.0427815 0.171525 0.550246 -0.776946 -0.0387089 0.0920614 -0.842894 -0.533177)
(0.190591 -0.0577163 0.280622 0.16742 -0.411953 -0.238524 -0.245957 -0.961679 0.0491755)
(-0.660333 -0.159569 -0.0126458 -1.01935 -0.274186 -0.165727 0.349092 -0.524669 0.807501)
(-0.333771 0.124269 -0.309072 -1.52245 -0.545762 0.0945627 1.11715 0.288806 0.826613)
(0.202706 0.331248 -0.253858 -0.899994 -0.384583 0.236922 1.11272 0.444857 0.236954)
(0.169102 0.139207 0.150881 0.0990225 0.146527 0.50519 0.293054 -0.151766 -0.46282)
(-0.13773 0.0744592 0.190403 0.56257 0.521187 0.559941 -0.150595 -0.614149 -0.445794)
(-0.338008 0.129849 -0.0687945 0.204309 0.374108 0.190515 0.400554 -0.799603 -0.0628371)
(-0.203158 0.143645 -0.0697345 -0.492429 0.199306 -0.00927402 1.18641 -0.128427 -0.155949)
(0.200055 0.00470091 0.0357513 -0.00859643 0.238538 0.0724647 1.33939 0.978495 -0.371116)
(0.568797 -0.245921 0.106833 0.688495 -0.0499464 0.0387732 0.801785 1.40293 -0.440139)
(0.684203 -0.113722 0.0354339 0.458238 -0.402129 -0.01596 0.730624 0.825474 -0.403071)
(0.269211 0.139702 -0.129645 -0.458408 -0.18376 0.0729261 1.08783 0.0930077 -0.232709)
(-0.222754 0.0133597 -0.0550431 -1.65414 0.230221 0.12589 0.324468 -0.0933078 -0.0637735)
(-0.0875923 -0.289555 0.214963 -1.70883 0.12165 0.292457 -0.607032 -0.0846807 -0.0880003)
(0.166078 -0.384908 0.323254 -0.991873 -0.135228 0.576693 -0.171787 -0.239518 -0.208321)
(-0.0175989 0.0900005 0.093095 -0.74928 -0.110564 0.616229 1.33034 -0.0954164 -0.0327797)
(-0.402097 0.604135 -0.185386 -0.896884 0.471054 0.142794 2.26032 0.491034 -0.0107939)
(-0.477288 0.364183 -0.0406352 -0.907089 0.795515 -0.149481 1.05968 0.75699 -0.269899)
(-0.220862 -0.172505 0.180272 -0.30716 0.468697 0.230893 -0.622336 0.66952 -0.213928)
(0.0561696 -0.284221 0.0662161 0.205134 0.0764603 0.360244 -0.753745 0.345261 -0.0793635)
(0.481724 0.00487824 0.120083 0.426174 -0.39513 -0.125012 0.283878 0.3116 -0.130495)
(0.961667 0.309563 0.135646 -0.367373 -0.613189 -0.989866 1.49292 0.829209 -0.48365)
(1.08545 0.308906 -0.447668 -1.52671 -0.416246 -1.50737 1.53503 0.543694 -0.737166)
(0.576353 -0.160716 -0.658855 -1.35333 -0.0599657 -1.11043 -0.304721 -0.300749 -0.524305)
(-0.450497 -0.754061 0.0912406 -0.020263 0.646609 -0.123702 -2.02839 -0.607907 -0.25131)
(-1.38869 -0.64852 0.557132 0.504195 1.45787 0.688828 -2.35352 -0.30822 -0.224091)
(-1.48197 0.0102511 0.110472 -0.209312 1.45892 0.641012 -1.37379 0.382307 -0.238934)
(-0.711337 0.269001 -0.34125 -0.662652 0.673271 0.228566 0.181668 0.795127 -0.151665)
(0.580213 -0.309419 -0.119022 -0.165719 -1.26641 0.940724 1.67138 0.0957303 0.747)
(0.595252 -0.000852513 0.197101 -0.00243479 -0.944677 0.709978 1.42817 0.283176 0.417977)
(0.23189 0.103055 -0.0637641 -0.805823 -0.291135 -0.156096 1.27162 0.284746 0.121768)
(-0.00412714 0.0771794 -0.48651 -1.17883 -0.116391 -0.576578 1.55213 0.309136 0.0641426)
(0.0302726 0.256077 -0.0419108 -0.451622 0.219131 -0.280199 1.62158 0.819663 -0.231469)
(0.288144 0.20551 0.652385 0.765556 0.135391 -0.0514693 0.927147 1.38495 -0.244274)
(0.0297519 -0.0759268 0.494272 1.01921 0.331099 -0.203789 -0.464506 1.09132 -0.219706)
(-0.596788 -0.0148209 0.0662547 0.284054 1.22016 -0.083399 -1.27801 0.372728 -0.562152)
(-0.253828 -0.105611 0.0956593 1.23486 1.30827 0.239493 -1.0868 -0.29023 -0.985939)
(0.390615 -0.486676 -0.0699618 2.79042 0.629915 0.328461 -0.868046 -0.549329 -0.848997)
(0.408231 -0.396719 -0.39103 2.11116 0.272913 0.616107 -0.189911 -0.582798 -0.540744)
(0.222212 0.172976 -0.179569 -0.165067 0.739659 0.65181 -0.148707 -0.555702 -0.86379)
(-0.421339 0.314573 0.1776 -1.39791 1.14149 0.573603 -1.03498 -0.341581 -0.561755)
(-0.810948 -0.179202 0.137741 -0.536728 0.701115 0.845857 -1.03925 -0.0964219 0.211582)
(-0.11515 -0.213058 -0.18166 0.423746 0.0412885 0.728437 0.253638 0.507135 0.158742)
(0.735559 0.404909 -0.182828 0.627509 0.0697429 0.365271 1.03602 0.647112 -0.645574)
(0.923844 0.672889 0.174992 0.543257 0.501968 -0.0342 -0.0629753 -0.0181542 -1.36785)
(0.396037 0.258564 0.139162 0.967177 0.64126 -0.399013 -0.613349 -0.385934 -0.985081)
(-0.497499 -0.26097 -0.108617 1.07008 0.642018 -0.220494 -0.13105 -0.603938 -0.176942)
(-0.494273 -0.197814 -0.00881961 0.761856 0.231489 -0.0401768 0.00469276 -0.144376 0.101168)
(0.198779 -0.0297836 0.0533373 0.857848 -0.38741 -0.293026 -0.75148 0.65492 0.12435)
(0.345846 -0.216364 -0.00443482 0.680385 -0.623206 -0.436243 -0.809367 0.978468 0.297766)
(0.147289 -0.0325339 0.0168043 0.0251814 -0.208468 0.316743 0.577824 0.706437 0.178714)
(-0.463558 0.352872 -0.121746 -0.838128 0.386894 0.419143 1.42916 0.694692 0.0845809)
(-0.801127 0.153432 -0.116311 -1.1983 0.0113338 0.0161054 0.218602 0.843559 0.66326)
(-0.117646 -0.265752 0.279363 -1.76089 -0.284593 0.238784 -0.803708 0.0430764 0.414998)
(0.451134 -0.425888 0.466081 -2.52666 0.075187 0.360326 -0.610218 -1.11467 -0.463615)
(0.335914 -0.0186836 0.0352783 -2.779 -0.0250995 0.440685 -0.0816597 -0.840697 -0.20253)
(-0.1108 0.474854 -0.418615 -2.06379 -0.508315 0.204466 0.748787 0.766982 0.608982)
(-0.352506 0.241544 -0.0433783 -1.60689 -0.452483 -0.000213261 0.316093 1.53639 0.590518)
(-0.150375 -0.0879063 0.401456 -1.58273 0.11767 0.430967 -0.653036 0.850555 -0.112582)
(0.324415 -0.134364 -0.0311787 0.217893 0.148524 0.746662 -0.00269016 -0.274748 -0.532946)
(0.67943 -0.0782866 -0.675578 2.27297 -0.270457 0.67259 1.72186 -0.464345 -0.291404)
(0.352501 0.00137901 -0.834985 1.83078 -0.662559 -0.393657 2.39699 0.481588 0.605317)
(-0.0263953 0.0418905 -0.349777 -1.13112 -1.21815 -1.11043 0.612533 1.13565 1.41044)
(0.0836615 0.207606 0.503458 -3.51173 -1.26225 -0.210877 -1.99535 0.783047 1.28429)
(-0.289356 0.294437 0.889934 -3.88359 -0.324907 0.904751 -3.31333 0.101912 0.585791)
(-1.11393 0.0699303 0.358132 -3.71299 0.878401 0.95205 -2.70846 0.0809008 -0.00140888)
(-1.01496 -0.295105 -0.303851 -2.59926 0.836334 0.436183 -0.515319 0.17111 0.0727422)
(-0.116378 -0.47794 -0.405464 -1.19743 -0.353784 0.410513 1.28312 -0.0184362 0.54421)
(0.740516 -0.129841 -0.0899526 -0.83154 -0.584251 0.525205 -0.533043 0.655404 -0.0930956)
(0.0680977 0.630882 -0.467357 -1.76072 -0.489844 0.331756 -0.050795 0.57109 0.473317)
(-0.448917 0.502921 -0.575046 -2.49148 0.156005 -0.0836472 0.718994 0.451663 0.157195)
(0.219654 0.32148 -0.249306 -2.52779 0.327032 0.367286 1.28069 -0.498369 -0.789872)
(1.06694 0.31012 0.224764 -0.585851 0.01906 0.504574 1.07523 -0.582911 -1.34597)
(0.711472 0.0520071 0.484154 1.07559 -0.211977 -0.129157 0.407449 0.671453 -0.779251)
(-0.520295 0.265657 0.439663 -0.451393 0.20197 -0.529591 -0.478573 1.20876 0.106288)
(-0.46893 0.377403 0.271458 -0.30482 0.828906 -0.0324269 -0.579027 0.704168 -0.0973541)
(0.746784 -0.307919 -0.020451 2.38193 0.773931 0.243716 0.577547 0.409111 -1.20205)
(0.552183 -0.660426 -0.18455 2.40619 0.723628 -0.183441 0.535089 0.0789282 -1.02586)