/*--------------------------------*- C++ -*----------------------------------*\
  =========                 |
  \\      /  F ield         | OpenFOAM: The Open Source CFD Toolbox
   \\    /   O peration     | Website:  https://openfoam.org
    \\  /    A nd           | Version:  10
     \\/     M anipulation  |
\*---------------------------------------------------------------------------*/
FoamFile
{
    format      ascii;
    class       surfaceScalarField;
    location    "22.5";
    object      phi;
}
// * * * * * * * * * * * * * * * * * * * * * * * * * * * * * * * * * * * * * //

dimensions      [0 3 -1 0 0 0 0];

internalField   nonuniform List<scalar> 
74080
(
5.05979e-06
4.64964e-11
-3.62583e-10
5.0601e-06
-1.46416e-10
-5.96073e-10
5.05987e-06
3.62759e-10
-7.4586e-10
5.06026e-06
-2.46177e-10
-7.49613e-10
5.06014e-06
2.03726e-10
-1.14949e-09
5.06029e-06
-5.45573e-11
-9.85501e-10
5.06043e-06
-6.41862e-11
-1.22097e-09
5.06028e-06
1.8651e-10
-1.39286e-09
5.06065e-06
-3.4044e-10
-1.14503e-09
5.06033e-06
3.14739e-10
-1.55794e-09
5.06061e-06
-3.02438e-10
-1.26948e-09
5.0606e-06
-1.53988e-11
-1.35631e-09
5.06032e-06
2.01636e-10
-1.41578e-09
5.06078e-06
-5.29562e-10
-1.15163e-09
5.06027e-06
4.17657e-10
-1.26041e-09
5.06048e-06
-3.12497e-10
-1.04306e-09
5.06049e-06
-1.3026e-10
-9.49792e-10
5.06012e-06
2.53644e-10
-8.14718e-10
5.06034e-06
-3.36438e-10
-6.88091e-10
5.06019e-06
1.98746e-11
-4.42794e-10
5.05992e-06
1.74769e-10
-3.81676e-10
5.06008e-06
-2.90439e-10
-1.4941e-10
5.05992e-06
8.4132e-11
8.53253e-11
5.05959e-06
2.30692e-10
2.18314e-11
5.05994e-06
-4.1307e-10
4.77986e-10
5.05947e-06
4.3038e-10
3.70453e-10
5.05952e-06
-8.27751e-11
5.28172e-10
5.05964e-06
-1.04711e-10
7.92284e-10
5.05926e-06
3.79799e-10
5.49746e-10
5.05947e-06
-1.48618e-10
8.53361e-10
5.05938e-06
1.6e-10
7.79075e-10
5.05933e-06
1.25507e-10
5.92314e-10
5.05932e-06
1.51861e-10
8.84875e-10
5.05951e-06
-9.21034e-11
4.28474e-10
5.05929e-06
3.87505e-10
5.85512e-10
5.05947e-06
-3.91102e-11
4.13834e-10
5.05968e-06
-3.95842e-11
1.36363e-10
5.05934e-06
5.22373e-10
2.18251e-10
5.05989e-06
-3.93193e-10
-1.57838e-10
3.94689e-10
-2.13969e-10
1.70262e-05
5.72623e-11
-1.40891e-09
1.70268e-05
-2.30134e-10
-2.06254e-09
1.70265e-05
1.03082e-09
-2.49707e-09
1.70274e-05
-6.93525e-10
-2.71625e-09
1.70273e-05
6.3262e-10
-3.72392e-09
1.70278e-05
-2.3724e-10
-3.34369e-09
1.7028e-05
-1.3582e-10
-4.16419e-09
1.70279e-05
4.0271e-10
-4.38565e-09
1.70287e-05
-9.77269e-10
-3.99112e-09
1.70281e-05
8.19965e-10
-4.9601e-09
1.70287e-05
-1.02103e-09
-4.12398e-09
1.70286e-05
1.18611e-11
-4.51806e-09
1.70282e-05
3.17022e-10
-4.39901e-09
1.7029e-05
-1.50859e-09
-3.81078e-09
1.70279e-05
1.12768e-09
-3.97852e-09
1.70284e-05
-1.1239e-09
-3.27945e-09
1.70282e-05
-2.84238e-10
-3.01941e-09
1.70275e-05
5.64011e-10
-2.51758e-09
1.70278e-05
-1.06844e-09
-2.08262e-09
1.70273e-05
1.48044e-10
-1.35605e-09
1.70268e-05
3.6292e-10
-1.0847e-09
1.70269e-05
-8.58174e-10
-2.96413e-10
1.70264e-05
3.88129e-10
2.63625e-10
1.70258e-05
5.1893e-10
3.64431e-10
1.70262e-05
-1.04756e-09
1.55354e-09
1.70251e-05
1.35515e-09
1.2739e-09
1.70253e-05
-3.06589e-10
1.95114e-09
1.70252e-05
-4.8735e-11
2.42726e-09
1.70245e-05
1.15441e-09
1.97508e-09
1.70249e-05
-3.34531e-10
2.77412e-09
1.70246e-05
6.70712e-10
2.38605e-09
1.70245e-05
4.89285e-10
2.11363e-09
1.70245e-05
5.45815e-10
2.62e-09
1.70248e-05
-5.14244e-11
1.40412e-09
1.70245e-05
1.28102e-09
1.85602e-09
1.7025e-05
-8.65614e-11
1.07496e-09
1.70253e-05
2.03737e-10
4.93315e-10
1.70249e-05
1.50837e-09
4.39249e-10
1.7026e-05
-1.0198e-09
-6.26563e-10
1.34677e-09
-8.00704e-10
3.21282e-05
7.81311e-11
-2.68497e-09
3.2129e-05
-1.60817e-10
-3.76708e-09
3.2129e-05
1.88401e-09
-4.57167e-09
3.21303e-05
-1.22006e-09
-5.14051e-09
3.21303e-05
1.19516e-09
-6.68701e-09
3.21311e-05
-5.21668e-10
-6.24444e-09
3.21316e-05
-2.19796e-10
-7.68552e-09
3.21317e-05
5.57475e-10
-7.87286e-09
3.21327e-05
-1.8177e-09
-7.54988e-09
3.21321e-05
1.34202e-09
-8.89744e-09
3.2133e-05
-2.06786e-09
-7.61742e-09
3.21328e-05
1.2118e-11
-8.33228e-09
3.21324e-05
2.27121e-10
-7.89765e-09
3.21333e-05
-2.78329e-09
-7.10558e-09
3.21319e-05
1.89056e-09
-7.18725e-09
3.21325e-05
-2.33736e-09
-6.00409e-09
3.2132e-05
-4.7799e-10
-5.53306e-09
3.21311e-05
7.87198e-10
-4.57734e-09
3.21313e-05
-2.08584e-09
-3.78314e-09
3.21304e-05
3.36022e-10
-2.52255e-09
3.21297e-05
4.74933e-10
-1.93505e-09
3.21296e-05
-1.58179e-09
-5.21117e-10
3.21287e-05
8.60101e-10
3.67978e-10
3.21278e-05
7.98333e-10
8.44021e-10
3.21281e-05
-1.70378e-09
2.67798e-09
3.21266e-05
2.61548e-09
2.36973e-09
3.21266e-05
-5.6537e-10
3.65391e-09
3.21264e-05
2.56968e-10
4.24096e-09
3.21253e-05
2.23859e-09
3.78632e-09
3.21257e-05
-4.10495e-10
4.97448e-09
3.21252e-05
1.5412e-09
4.27859e-09
3.21251e-05
1.13106e-09
4.03589e-09
3.21252e-05
1.21772e-09
4.5478e-09
3.21255e-05
2.48829e-10
2.69482e-09
3.21251e-05
2.60812e-09
3.3451e-09
3.21259e-05
-2.63143e-11
1.8266e-09
3.21263e-05
8.22537e-10
1.04238e-09
3.2126e-05
2.82424e-09
6.04074e-10
3.21276e-05
-1.63942e-09
-1.09781e-09
2.73868e-09
-1.50116e-09
5.10159e-05
1.2583e-10
-3.93352e-09
5.10171e-05
1.04382e-10
-5.50236e-09
5.10173e-05
2.94408e-09
-6.78961e-09
5.10191e-05
-1.8208e-09
-7.81126e-09
5.10193e-05
1.92831e-09
-9.9168e-09
5.10206e-05
-9.18748e-10
-9.57466e-09
5.10213e-05
-3.0793e-10
-1.16509e-08
5.10216e-05
6.57245e-10
-1.18701e-08
5.1023e-05
-2.88703e-09
-1.17409e-08
5.10224e-05
1.88814e-09
-1.34133e-08
5.10237e-05
-3.47227e-09
-1.18231e-08
5.10234e-05
-2.82297e-11
-1.28328e-08
5.10231e-05
-8.86426e-11
-1.20912e-08
5.10241e-05
-4.38213e-09
-1.11475e-08
5.10224e-05
2.68784e-09
-1.10765e-08
5.10232e-05
-3.98852e-09
-9.44121e-09
5.10224e-05
-7.20503e-10
-8.69925e-09
5.10212e-05
8.7822e-10
-7.25071e-09
5.10214e-05
-3.39488e-09
-6.05695e-09
5.102e-05
5.63158e-10
-4.2026e-09
5.1019e-05
4.76251e-10
-3.20696e-09
5.10187e-05
-2.44274e-09
-1.11501e-09
5.10173e-05
1.46703e-09
1.82921e-10
5.10161e-05
1.0763e-09
1.17541e-09
5.10162e-05
-2.37733e-09
3.65503e-09
5.10141e-05
4.21208e-09
3.49489e-09
5.1014e-05
-8.50002e-10
5.42129e-09
5.10134e-05
8.42395e-10
6.19225e-09
5.1012e-05
3.64519e-09
5.86997e-09
5.10124e-05
-3.5182e-10
7.4209e-09
5.10116e-05
2.82052e-09
6.52645e-09
5.10114e-05
2.06268e-09
6.34603e-09
5.10114e-05
2.22555e-09
6.82761e-09
5.10118e-05
8.47577e-10
4.42152e-09
5.10114e-05
4.39548e-09
5.19369e-09
5.10124e-05
2.0322e-10
2.91717e-09
5.10129e-05
1.85108e-09
1.94552e-09
5.10127e-05
4.50849e-09
9.72175e-10
5.10148e-05
-2.20744e-09
-1.33278e-09
4.61251e-09
-2.10786e-09
7.44154e-05
2.3126e-10
-4.77132e-09
7.4417e-05
6.14249e-10
-6.92209e-09
7.44175e-05
4.26731e-09
-8.79437e-09
7.44199e-05
-2.47588e-09
-1.03887e-08
7.44203e-05
2.90168e-09
-1.31454e-08
7.44222e-05
-1.41326e-09
-1.30582e-08
7.44232e-05
-3.59949e-10
-1.58345e-08
7.44239e-05
7.39848e-10
-1.62504e-08
7.44257e-05
-4.18478e-09
-1.63863e-08
7.44253e-05
2.50545e-09
-1.84892e-08
7.44269e-05
-5.25084e-09
-1.67109e-08
7.44267e-05
-8.66779e-11
-1.8039e-08
7.44266e-05
-6.25933e-10
-1.71193e-08
7.44277e-05
-6.33101e-09
-1.60328e-08
7.44258e-05
3.53862e-09
-1.58679e-08
7.44267e-05
-6.11444e-09
-1.38289e-08
7.44256e-05
-1.01781e-09
-1.27915e-08
7.44243e-05
8.13845e-10
-1.08635e-08
7.44243e-05
-5.02119e-09
-9.25099e-09
7.44225e-05
8.03891e-10
-6.76616e-09
7.44211e-05
3.39569e-10
-5.29751e-09
7.44206e-05
-3.46614e-09
-2.46691e-09
7.44187e-05
2.16921e-09
-6.63674e-10
7.4417e-05
1.3473e-09
9.41475e-10
7.44168e-05
-3.11206e-09
4.16742e-09
7.4414e-05
6.14149e-09
4.31792e-09
7.44138e-05
-1.19342e-09
6.94403e-09
7.44127e-05
1.70166e-09
8.10739e-09
7.44109e-05
5.36772e-09
8.00148e-09
7.44111e-05
-1.71983e-10
1.00304e-08
7.44099e-05
4.5274e-09
9.09907e-09
7.44096e-05
3.27273e-09
9.01539e-09
7.44095e-05
3.60639e-09
9.60979e-09
7.44098e-05
1.74915e-09
6.68549e-09
7.44093e-05
6.67181e-09
7.62148e-09
7.44105e-05
6.43109e-10
4.62035e-09
7.44112e-05
3.30533e-09
3.4575e-09
7.44111e-05
6.62313e-09
1.91614e-09
7.44137e-05
-2.70289e-09
-1.00297e-09
7.03337e-09
-2.25142e-09
0.000103171
4.23899e-10
-4.6902e-09
0.000103172
1.42527e-09
-7.52044e-09
0.000103173
5.94424e-09
-1.0034e-08
0.000103177
-3.15325e-09
-1.23678e-08
0.000103177
4.22356e-09
-1.5908e-08
0.00010318
-1.95492e-09
-1.62187e-08
0.000103181
-2.97673e-10
-1.98493e-08
0.000103182
8.85901e-10
-2.06837e-08
0.000103185
-5.6687e-09
-2.116e-08
0.000103185
3.29082e-09
-2.39555e-08
0.000103187
-7.38958e-09
-2.21048e-08
0.000103187
-8.69459e-11
-2.38758e-08
0.000103187
-1.34627e-09
-2.30167e-08
0.000103188
-8.62884e-09
-2.17984e-08
0.000103186
4.51078e-09
-2.17371e-08
0.000103187
-8.74302e-09
-1.93806e-08
0.000103186
-1.34916e-09
-1.81039e-08
0.000103184
5.95767e-10
-1.57672e-08
0.000103184
-6.99853e-09
-1.37671e-08
0.000103182
1.04476e-09
-1.06708e-08
0.000103181
3.88595e-11
-8.71233e-09
0.00010318
-4.70679e-09
-5.08497e-09
0.000103177
2.93067e-09
-2.7075e-09
0.000103175
1.55744e-09
-4.18472e-10
0.000103174
-3.99344e-09
3.7219e-09
0.000103171
8.38981e-09
4.3175e-09
0.00010317
-1.68741e-09
7.74946e-09
0.000103169
2.79211e-09
9.60761e-09
0.000103166
7.36362e-09
9.79874e-09
0.000103166
5.95498e-11
1.25639e-08
0.000103165
6.6411e-09
1.18095e-08
0.000103164
4.70768e-09
1.19151e-08
0.000103164
5.35348e-09
1.29459e-08
0.000103164
2.91681e-09
9.51766e-09
0.000103163
9.44455e-09
1.08428e-08
0.000103164
1.29432e-09
7.18756e-09
0.000103165
5.18097e-09
5.88542e-09
0.000103165
9.22808e-09
3.87325e-09
0.000103168
-3.1466e-09
3.09473e-10
1.00851e-08
-1.41377e-09
0.000138247
7.06133e-10
-3.08578e-09
0.000138249
2.58546e-09
-6.66968e-09
0.00013825
8.08388e-09
-9.76658e-09
0.000138254
-3.81668e-09
-1.30502e-08
0.000138255
6.02665e-09
-1.75145e-08
0.000138259
-2.45429e-09
-1.83276e-08
0.000138261
-8.58278e-12
-2.30649e-08
0.000138262
1.22099e-09
-2.4562e-08
0.000138266
-7.24188e-09
-2.54905e-08
0.000138266
4.3953e-09
-2.93687e-08
0.000138269
-9.8245e-09
-2.75953e-08
0.000138269
1.15433e-10
-3.00282e-08
0.000138269
-2.1634e-09
-2.96006e-08
0.000138271
-1.12177e-08
-2.83096e-08
0.000138269
5.73198e-09
-2.86725e-08
0.000138271
-1.18663e-08
-2.61793e-08
0.000138269
-1.64101e-09
-2.48313e-08
0.000138268
2.64072e-10
-2.22378e-08
0.000138268
-9.33939e-09
-1.99684e-08
0.000138265
1.30392e-09
-1.63698e-08
0.000138263
-4.36146e-10
-1.40027e-08
0.000138262
-6.22725e-09
-9.54129e-09
0.000138259
3.7312e-09
-6.60072e-09
0.000138256
1.65037e-09
-3.6222e-09
0.000138255
-5.13268e-09
1.63217e-09
0.000138251
1.09323e-08
2.77741e-09
0.00013825
-2.48142e-09
7.13983e-09
0.000138247
4.03517e-09
1.00405e-08
0.000138244
9.54424e-09
1.06499e-08
0.000138244
2.07502e-10
1.44968e-08
0.000138241
9.0903e-09
1.4225e-08
0.00013824
6.25543e-09
1.46703e-08
0.00013824
7.39174e-09
1.66577e-08
0.00013824
4.26268e-09
1.27562e-08
0.000138239
1.26665e-08
1.49113e-08
0.00013824
2.09703e-09
1.07435e-08
0.00013824
7.43791e-09
9.46216e-09
0.00013824
1.23429e-08
7.24434e-09
0.000138244
-3.57641e-09
2.98729e-09
1.38449e-08
9.93044e-10
0.000180738
1.04959e-09
6.38923e-10
0.00018074
4.09109e-09
-3.76904e-09
0.000180742
1.07773e-08
-7.15698e-09
0.000180747
-4.44525e-09
-1.15818e-08
0.000180748
8.41972e-09
-1.71032e-08
0.000180752
-2.79228e-09
-1.83931e-08
0.000180755
6.29705e-10
-2.45718e-08
0.000180757
1.89604e-09
-2.69494e-08
0.000180761
-8.75301e-09
-2.8472e-08
0.000180762
6.01111e-09
-3.38904e-08
0.000180766
-1.24316e-08
-3.243e-08
0.000180766
7.37881e-10
-3.57745e-08
0.000180767
-2.93498e-09
-3.63059e-08
0.00018077
-1.3955e-08
-3.51024e-08
0.000180768
7.397e-09
-3.62793e-08
0.00018077
-1.54054e-08
-3.39926e-08
0.000180769
-1.74068e-09
-3.28734e-08
0.000180767
-8.11674e-11
-3.02929e-08
0.000180768
-1.19908e-08
-2.79991e-08
0.000180765
1.6574e-09
-2.41216e-08
0.000180763
-1.04637e-09
-2.1612e-08
0.000180761
-8.0569e-09
-1.63294e-08
0.000180758
4.5931e-09
-1.29759e-08
0.000180754
1.56971e-09
-9.39527e-09
0.000180753
-6.64027e-09
-2.91143e-09
0.000180748
1.37437e-08
-1.15632e-09
0.000180747
-3.75118e-09
4.21478e-09
0.000180743
5.32661e-09
8.44847e-09
0.000180739
1.17863e-08
9.67154e-09
0.000180738
8.05935e-11
1.49172e-08
0.000180735
1.17465e-08
1.55652e-08
0.000180734
7.7464e-09
1.65009e-08
0.000180732
9.55798e-09
2.01707e-08
0.000180731
5.64062e-09
1.58655e-08
0.00018073
1.6204e-08
1.94968e-08
0.000180731
2.90732e-09
1.51015e-08
0.000180731
9.97735e-09
1.41175e-08
0.000180731
1.58995e-08
1.22091e-08
0.000180735
-4.10549e-09
7.25687e-09
1.83279e-08
5.43905e-09
0.000231866
1.34588e-09
6.81588e-09
0.000231869
5.81295e-09
1.46892e-09
0.00023187
1.40312e-08
-1.56068e-09
0.000231876
-5.06405e-09
-7.12477e-09
0.000231877
1.13982e-08
-1.38529e-08
0.000231882
-2.85612e-09
-1.52808e-08
0.000231885
1.69524e-09
-2.32745e-08
0.000231888
3.02965e-09
-2.66244e-08
0.000231894
-1.00236e-08
-2.88741e-08
0.000231894
8.32545e-09
-3.62294e-08
0.0002319
-1.50491e-08
-3.54347e-08
0.000231901
2.05575e-09
-3.98863e-08
0.000231903
-3.48239e-09
-4.19814e-08
0.000231907
-1.6604e-08
-4.12265e-08
0.000231904
9.76334e-09
-4.35687e-08
0.000231908
-1.919e-08
-4.20174e-08
0.000231907
-1.39571e-09
-4.15839e-08
0.000231906
-2.57121e-10
-3.94171e-08
0.000231907
-1.47901e-08
-3.75224e-08
0.000231904
2.27191e-09
-3.36846e-08
0.000231902
-1.65648e-09
-3.15925e-08
0.0002319
-1.0136e-08
-2.55888e-08
0.000231896
5.62041e-09
-2.21797e-08
0.000231893
1.33684e-09
-1.82455e-08
0.000231891
-8.5505e-09
-1.06156e-08
0.000231885
1.68583e-08
-8.34973e-09
0.000231884
-5.64422e-09
-1.89336e-09
0.000231879
6.56636e-09
3.64862e-09
0.000231874
1.39765e-08
5.78828e-09
0.000231873
-5.19533e-10
1.25518e-08
0.000231868
1.44335e-08
1.46509e-08
0.000231866
8.9946e-09
1.61509e-08
0.000231864
1.16014e-08
2.23588e-08
0.000231863
6.8576e-09
1.77678e-08
0.00023186
1.98308e-08
2.36419e-08
0.000231861
3.47931e-09
1.95122e-08
0.000231861
1.26289e-08
1.91718e-08
0.000231859
1.96994e-08
1.84387e-08
0.000231863
-4.93264e-09
1.28387e-08
2.34198e-08
1.19042e-08
0.000292973
1.40889e-09
1.50917e-08
0.000292976
7.46058e-09
8.59776e-09
0.000292976
1.7684e-08
6.9303e-09
0.000292983
-5.76972e-09
7.6008e-10
0.000292984
1.47297e-08
-7.42334e-09
0.000292989
-2.60822e-09
-8.08302e-09
0.000292993
3.14083e-09
-1.82426e-08
0.000292997
4.60381e-09
-2.23293e-08
0.000293003
-1.09171e-08
-2.53895e-08
0.000293004
1.14323e-08
-3.48043e-08
0.000293011
-1.7562e-08
-3.50447e-08
0.000293013
4.35157e-09
-4.07761e-08
0.000293015
-3.66364e-09
-4.47617e-08
0.000293021
-1.88773e-08
-4.51728e-08
0.000293019
1.31167e-08
-4.88654e-08
0.000293024
-2.29886e-08
-4.86304e-08
0.000293023
-2.6188e-10
-4.95581e-08
0.000293023
-1.62939e-12
-4.82393e-08
0.000293025
-1.74573e-08
-4.74243e-08
0.000293022
3.4327e-09
-4.39532e-08
0.00029302
-2.00846e-09
-4.3202e-08
0.00029302
-1.22554e-08
-3.66926e-08
0.000293016
7.0398e-09
-3.38723e-08
0.000293012
1.10818e-09
-3.00112e-08
0.000293011
-1.07527e-08
-2.15568e-08
0.000293003
2.03766e-08
-1.93452e-08
0.000293002
-8.08276e-09
-1.16154e-08
0.000292997
7.73259e-09
-5.43606e-09
0.000292991
1.60768e-08
-1.97321e-09
0.00029299
-1.68843e-09
6.1058e-09
0.000292984
1.69663e-08
1.00178e-08
0.000292981
9.89576e-09
1.20887e-08
0.000292977
1.3232e-08
2.15499e-08
0.000292975
7.72443e-09
1.68211e-08
0.000292972
2.32801e-08
2.56684e-08
0.000292971
3.47918e-09
2.2457e-08
0.00029297
1.51807e-08
2.30727e-08
0.000292968
2.33971e-08
2.4762e-08
0.000292972
-6.3175e-09
1.8634e-08
2.88126e-08
1.93857e-08
0.000365496
1.0078e-09
2.38769e-08
0.000365499
8.58694e-09
1.6161e-08
0.000365498
2.13295e-08
1.67964e-08
0.000365504
-6.72872e-09
1.15069e-08
0.000365505
1.78304e-08
1.4106e-09
0.00036551
-2.17638e-09
3.2566e-09
0.000365514
4.71804e-09
-9.42934e-09
0.000365518
6.33742e-09
-1.3347e-08
0.000365524
-1.14516e-08
-1.72014e-08
0.000365526
1.52247e-08
-2.84141e-08
0.000365534
-2.00583e-08
-2.95208e-08
0.000365536
7.80497e-09
-3.71147e-08
0.00036554
-3.48949e-09
-4.23069e-08
0.000365547
-2.05799e-08
-4.49779e-08
0.000365545
1.76849e-08
-5.01119e-08
0.000365552
-2.66211e-08
-5.13164e-08
0.000365552
2.00489e-09
-5.4667e-08
0.000365552
9.76503e-10
-5.43739e-08
0.000365555
-1.96744e-08
-5.56042e-08
0.000365554
5.5253e-09
-5.27252e-08
0.000365553
-1.76568e-09
-5.45402e-08
0.000365553
-1.40504e-08
-4.77825e-08
0.00036555
9.22596e-09
-4.65606e-08
0.000365546
1.1754e-09
-4.34665e-08
0.000365546
-1.2864e-08
-3.4344e-08
0.000365538
2.44993e-08
-3.4023e-08
0.000365537
-1.07507e-08
-2.40055e-08
0.000365532
8.95904e-09
-1.89964e-08
0.000365526
1.82273e-08
-1.40847e-08
0.000365524
-3.25568e-09
-4.86381e-09
0.000365517
1.92167e-08
3.31246e-10
0.000365513
1.0574e-08
3.14354e-09
0.000365509
1.42404e-08
1.60026e-08
0.000365505
8.16319e-09
1.10892e-08
0.000365501
2.63778e-08
2.35536e-08
0.0003655
2.56823e-09
2.17342e-08
0.000365497
1.74921e-08
2.34504e-08
0.000365494
2.65458e-08
2.89948e-08
0.000365497
-8.4844e-09
2.26167e-08
3.4009e-08
2.55654e-08
0.000450919
-2.03961e-11
3.00412e-08
0.000450921
8.75739e-09
2.16147e-08
0.000450919
2.43715e-08
2.47657e-08
0.000450924
-8.04068e-09
2.29822e-08
0.000450925
1.98986e-08
9.95447e-09
0.000450928
-1.75544e-09
1.724e-08
0.000450932
5.96249e-09
1.40748e-09
0.000450935
7.59943e-09
-4.55186e-10
0.000450941
-1.18945e-08
-4.61288e-09
0.000450943
1.93217e-08
-1.77163e-08
0.000450951
-2.29618e-08
-1.74334e-08
0.000450954
1.23028e-08
-2.88667e-08
0.000450958
-3.22834e-09
-3.294e-08
0.000450966
-2.18346e-08
-3.85434e-08
0.000450965
2.34669e-08
-4.59077e-08
0.000450973
-3.0103e-08
-4.71122e-08
0.000450974
5.50438e-09
-5.45344e-08
0.000450975
2.88633e-09
-5.49e-08
0.00045098
-2.13029e-08
-5.90773e-08
0.000450979
8.91581e-09
-5.68857e-08
0.00045098
-6.55926e-10
-6.2635e-08
0.000450981
-1.51343e-08
-5.56246e-08
0.000450979
1.26733e-08
-5.71184e-08
0.000450977
1.79709e-09
-5.6468e-08
0.000450977
-1.41938e-08
-4.513e-08
0.00045097
2.94296e-08
-5.11106e-08
0.00045097
-1.30128e-08
-3.65394e-08
0.000450966
1.06465e-08
-3.50167e-08
0.000450959
2.07328e-08
-3.01291e-08
0.000450958
-4.58415e-09
-1.85841e-08
0.000450951
2.12326e-08
-1.47386e-08
0.000450946
1.15124e-08
-1.06139e-08
0.000450943
1.46328e-08
5.28326e-09
0.000450937
8.36428e-09
-1.04029e-09
0.000450933
2.92426e-08
1.605e-08
0.00045093
5.49708e-10
1.52337e-08
0.000450926
1.9718e-08
1.77997e-08
0.000450922
2.87259e-08
2.8475e-08
0.000450923
-1.14166e-08
2.21092e-08
3.84719e-08
2.72771e-08
0.000550693
-1.5022e-09
2.99583e-08
0.000550695
7.84528e-09
2.19098e-08
0.000550691
2.6199e-08
2.66539e-08
0.000550693
-9.44618e-09
3.19623e-08
0.000550694
1.99265e-08
1.35907e-08
0.000550695
-1.51507e-09
3.09361e-08
0.000550698
6.30601e-09
1.04206e-08
0.0005507
7.73196e-09
1.2442e-08
0.000550705
-1.26909e-08
1.11764e-08
0.000550706
2.30345e-08
-7.11718e-09
0.000550713
-2.69309e-08
1.30486e-09
0.000550715
1.72464e-08
-1.78065e-08
0.000550719
-3.40155e-09
-1.81403e-08
0.000550727
-2.31845e-08
-2.41192e-08
0.000550726
2.99338e-08
-3.71507e-08
0.000550735
-3.36832e-08
-3.41532e-08
0.000550737
9.7284e-09
-4.73267e-08
0.000550739
5.68904e-09
-4.79844e-08
0.000550745
-2.26447e-08
-5.4915e-08
0.000550745
1.36419e-08
-5.31858e-08
0.000550747
1.34402e-09
-6.43713e-08
0.00055075
-1.55116e-08
-5.66701e-08
0.000550749
1.78779e-08
-6.03651e-08
0.000550748
2.82954e-09
-6.71767e-08
0.00055075
-1.38613e-08
-4.76486e-08
0.000550745
3.51353e-08
-6.73687e-08
0.000550745
-1.41133e-08
-4.61355e-08
0.000550743
1.33842e-08
-4.74723e-08
0.000550737
2.38011e-08
-4.89722e-08
0.000550736
-4.61722e-09
-3.01756e-08
0.000550731
2.31387e-08
-3.29041e-08
0.000550725
1.37168e-08
-2.79076e-08
0.000550724
1.47858e-08
-7.39966e-09
0.000550717
8.79252e-09
-1.99406e-08
0.000550713
3.24955e-08
4.10542e-09
0.00055071
-2.52773e-09
2.89653e-09
0.000550705
2.25216e-08
4.62669e-09
0.000550701
2.97773e-08
2.19812e-08
0.0005507
-1.46279e-08
1.4669e-08
4.18878e-08
2.21163e-08
0.000666103
-2.61165e-09
2.27231e-08
0.000666103
6.39148e-09
1.53271e-08
0.0006661
2.63467e-08
1.89099e-08
0.000666097
-9.74048e-09
3.68061e-08
0.000666099
1.70428e-08
6.85205e-09
0.000666097
-1.0622e-09
4.04775e-08
0.000666098
5.57551e-09
1.46656e-08
0.0006661
6.10376e-09
1.71238e-08
0.000666101
-1.3934e-08
2.97985e-08
0.000666102
2.53934e-08
-4.49151e-09
0.000666107
-3.21792e-08
2.28301e-08
0.000666107
2.16885e-08
-5.53629e-09
0.000666111
-4.74286e-09
-5.38558e-09
0.000666116
-2.51695e-08
-1.28956e-09
0.000666116
3.578e-08
-2.75014e-08
0.000666123
-3.75967e-08
-1.4872e-08
0.000666125
1.34067e-08
-3.23945e-08
0.000666128
8.92706e-09
-3.49784e-08
0.000666133
-2.44726e-08
-4.26742e-08
0.000666134
1.89957e-08
-3.97716e-08
0.000666137
3.94145e-09
-5.77195e-08
0.000666141
-1.6042e-08
-5.04898e-08
0.000666141
2.51387e-08
-4.93564e-08
0.000666143
3.22533e-09
-7.55341e-08
0.000666144
-1.11333e-08
-3.65731e-08
0.000666143
4.09706e-08
-7.58712e-08
0.000666144
-1.3725e-08
-5.27784e-08
0.000666144
1.77876e-08
-4.60203e-08
0.00066614
2.70106e-08
-6.86634e-08
0.000666139
-1.98532e-09
-3.41661e-08
0.000666139
2.46975e-08
-4.62083e-08
0.000666131
1.82204e-08
-4.77378e-08
0.000666134
1.53019e-08
-1.39624e-08
0.000666126
9.96515e-09
-4.27977e-08
0.000666124
3.7229e-08
-9.47008e-09
0.000666123
-6.29083e-09
-1.02156e-08
0.000666115
2.69146e-08
-1.58334e-08
0.000666114
2.99537e-08
1.23804e-08
0.00066611
-1.70337e-08
4.43768e-10
4.42273e-08
9.93223e-09
0.000798065
-2.27526e-09
1.24365e-08
0.000798062
6.12931e-09
6.00339e-09
0.000798063
2.39432e-08
-4.60594e-10
0.000798056
-6.37369e-09
4.09135e-08
0.000798059
1.07039e-08
-1.0932e-08
0.000798056
4.99662e-10
4.00267e-08
0.000798053
4.77413e-09
1.92133e-08
0.000798056
2.07384e-09
2.09435e-09
0.000798053
-1.42751e-08
5.18239e-08
0.000798052
2.56578e-08
-1.39361e-08
0.000798055
-3.82271e-08
3.56946e-08
0.000798053
2.52741e-08
1.10293e-08
0.000798056
-8.23772e-09
-6.66854e-09
0.000798057
-2.73443e-08
2.58473e-08
0.000798056
3.91221e-08
-1.93326e-08
0.000798061
-4.16137e-08
1.16591e-09
0.000798061
1.50503e-08
-1.13471e-08
0.000798063
1.16849e-08
-1.99434e-08
0.000798067
-2.74473e-08
-2.7275e-08
0.000798066
2.33156e-08
-1.91032e-08
0.00079807
6.85015e-09
-4.12444e-08
0.000798073
-1.87146e-08
-4.41354e-08
0.000798072
3.4555e-08
-1.89359e-08
0.000798077
7.891e-10
-8.14316e-08
0.000798077
-5.81923e-09
-1.61224e-08
0.000798078
4.56408e-08
-6.43282e-08
0.00079808
-1.28706e-08
-6.28035e-08
0.000798081
2.44671e-08
-2.19553e-08
0.000798082
2.84257e-08
-8.26375e-08
0.000798079
4.46316e-09
-3.28006e-08
0.000798085
2.50101e-08
-3.97897e-08
0.000798076
2.52419e-08
-7.06572e-08
0.000798084
1.66786e-08
-6.57082e-09
0.000798078
1.16908e-08
-5.94659e-08
0.000798075
4.43434e-08
-2.44551e-08
0.000798081
-1.03014e-08
-1.20269e-08
0.000798069
3.40006e-08
-4.08687e-08
0.000798076
2.94249e-08
5.17009e-09
0.000798068
-1.6616e-08
-1.39833e-08
4.54634e-08
-7.36551e-09
0.000946826
-9.9557e-10
1.71523e-09
0.00094682
1.03247e-08
8.08087e-09
0.000946827
1.70079e-08
-2.95453e-08
0.000946818
3.3889e-09
4.7581e-08
0.000946822
1.80084e-09
-2.47297e-08
0.000946821
2.84919e-09
1.87399e-08
0.000946815
6.86031e-09
3.93271e-08
0.00094682
-5.22663e-09
-3.49667e-08
0.000946814
-1.14767e-08
7.08343e-08
0.000946814
2.41742e-08
-2.11054e-08
0.000946815
-4.42893e-08
2.23935e-08
0.000946808
2.96171e-08
3.76078e-08
0.000946813
-1.46776e-08
-2.43599e-08
0.000946808
-2.75015e-08
4.35894e-08
0.000946807
3.84883e-08
-7.82066e-09
0.000946809
-4.45942e-08
2.762e-09
0.000946805
1.42514e-08
8.65582e-09
0.000946805
1.28401e-08
-5.0735e-09
0.000946808
-3.08554e-08
-1.60965e-08
0.000946803
2.42659e-08
-2.25571e-09
0.000946806
1.0695e-08
-1.19133e-08
0.000946808
-2.60543e-08
-4.9267e-08
0.000946802
4.6379e-08
2.35543e-08
0.000946811
-6.81458e-09
-7.62425e-08
0.000946805
1.11453e-09
-7.29513e-09
0.000946809
4.85195e-08
-2.13977e-08
0.000946811
-1.47195e-08
-8.07367e-08
0.000946808
3.41927e-08
1.48265e-08
0.000946816
2.4773e-08
-7.31993e-08
0.000946808
1.43847e-08
-4.11905e-08
0.000946822
2.2909e-08
-2.74905e-09
0.00094681
3.29919e-08
-9.03512e-08
0.000946822
1.90912e-08
7.52345e-09
0.00094682
1.31106e-08
-5.05635e-08
0.000946815
5.31967e-08
-4.53389e-08
0.000946831
-1.48531e-08
6.77572e-09
0.000946814
4.43492e-08
-5.89334e-08
0.00094683
2.6646e-08
2.26385e-10
0.000946822
-1.14424e-08
-1.47657e-08
4.52989e-08
-2.31473e-08
0.00111154
-3.0418e-09
-1.50656e-08
0.00111153
2.18527e-08
3.12852e-08
0.00111155
3.92778e-09
-4.93668e-08
0.00111154
1.83162e-08
4.28939e-08
0.00111155
-6.40981e-09
-3.14642e-09
0.00111155
2.36082e-09
-2.77716e-08
0.00111154
1.50482e-08
7.67772e-08
0.00111155
-1.62286e-08
-6.47704e-08
0.00111154
-4.91646e-09
6.49436e-08
0.00111154
2.2855e-08
9.66532e-10
0.00111155
-5.10391e-08
-1.70367e-08
0.00111154
3.74336e-08
6.49711e-08
0.00111154
-2.4792e-08
-3.52189e-08
0.00111154
-2.28131e-08
3.66418e-08
0.00111153
3.40495e-08
1.12873e-08
0.00111153
-4.56212e-08
-4.49041e-09
0.00111153
1.31202e-08
1.56517e-08
0.00111152
1.12404e-08
8.18897e-09
0.00111153
-3.16648e-08
-5.23835e-09
0.00111152
1.9902e-08
-6.10992e-09
0.00111152
1.73301e-08
2.85131e-08
0.00111152
-3.90912e-08
-6.14857e-08
0.0011115
6.0295e-08
4.77812e-08
0.00111152
-1.88691e-08
-4.15155e-08
0.0011115
6.69503e-09
-2.91616e-08
0.00111151
5.13863e-08
3.80298e-08
0.00111151
-2.27983e-08
-8.77101e-08
0.0011115
4.72406e-08
2.81288e-08
0.00111151
1.43945e-08
-2.5138e-08
0.0011115
2.55384e-08
-6.50246e-08
0.00111151
1.80365e-08
4.38976e-08
0.0011115
3.88709e-08
-8.30518e-08
0.00111151
2.09072e-08
3.68334e-09
0.00111152
1.24689e-08
-6.19203e-09
0.00111151
6.23315e-08
-6.56497e-08
0.00111153
-2.24431e-08
3.16828e-08
0.00111151
5.81636e-08
-5.07562e-08
0.00111153
1.91445e-08
-7.12847e-09
0.00111153
-2.86846e-09
-1.53669e-10
4.51515e-08
-1.96372e-08
0.00128969
-1.23573e-08
-2.73322e-08
0.00128969
3.81182e-08
4.73531e-08
0.0012897
-1.32127e-08
-2.45753e-08
0.0012897
3.16307e-08
8.84888e-09
0.00128971
-1.00776e-08
5.46182e-08
0.00128972
-3.99292e-09
-6.44023e-08
0.00128971
2.85404e-08
9.39704e-08
0.00128973
-2.94981e-08
-4.49667e-08
0.00128972
1.9952e-09
2.86234e-08
0.00128972
2.39249e-08
4.55244e-08
0.00128973
-6.02055e-08
-4.25966e-08
0.00128972
4.9936e-08
6.81513e-08
0.00128973
-3.85123e-08
-1.89797e-08
0.00128972
-1.32735e-08
1.83516e-08
0.00128972
2.73447e-08
2.62553e-08
0.00128972
-4.53503e-08
-2.10645e-09
0.00128972
1.44714e-08
1.45267e-08
0.00128971
5.7123e-09
9.02382e-09
0.00128971
-2.67176e-08
1.81439e-08
0.0012897
1.01594e-08
-2.39892e-08
0.00128969
2.79883e-08
5.542e-08
0.0012897
-5.45356e-08
-5.04174e-08
0.00128968
7.31791e-08
2.9449e-08
0.00128969
-2.96084e-08
1.42573e-08
0.00128968
7.49616e-09
-5.3835e-08
0.00128967
5.69093e-08
6.59075e-08
0.00128968
-3.68257e-08
-5.72409e-08
0.00128966
6.19806e-08
4.56684e-09
0.00128967
-1.10102e-09
3.19708e-08
0.00128965
3.57562e-08
-7.06949e-08
0.00128967
1.08664e-08
5.51186e-08
0.00128966
4.10009e-08
-3.77626e-08
0.00128965
2.1977e-08
-1.85996e-08
0.00128967
6.79191e-09
4.07099e-08
0.00128965
7.17116e-08
-5.97559e-08
0.00128968
-3.50579e-08
3.83548e-08
0.00128966
7.22573e-08
-2.10081e-08
0.00128968
8.12814e-09
-4.0895e-09
0.00128968
3.00945e-09
6.45219e-09
4.72971e-08
1.26251e-08
0.00147645
-2.60995e-08
-2.21991e-09
0.00147644
5.16125e-08
2.94628e-08
0.00147646
-2.87401e-08
3.00541e-08
0.00147646
3.64267e-08
-2.27887e-08
0.00147646
-8.43551e-09
9.01973e-08
0.00147648
-1.68384e-08
-4.68614e-08
0.00147647
4.16481e-08
7.49029e-08
0.00147649
-4.16628e-08
3.69043e-09
0.00147649
3.22374e-09
2.30326e-09
0.00147649
2.82755e-08
7.03923e-08
0.0014765
-7.23874e-08
-2.76519e-08
0.00147649
6.24469e-08
5.84688e-08
0.00147651
-5.27299e-08
3.0948e-09
0.0014765
-3.59235e-09
1.42533e-08
0.00147651
1.96263e-08
3.33271e-08
0.0014765
-4.49956e-08
7.14099e-09
0.0014765
1.76241e-08
2.48127e-08
0.0014765
-4.23765e-09
9.51406e-10
0.0014765
-1.66301e-08
3.71314e-08
0.0014765
-3.44467e-09
-2.19016e-08
0.00147649
3.89581e-08
5.32466e-08
0.00147649
-6.63695e-08
-1.55438e-08
0.00147648
7.93261e-08
3.12752e-09
0.00147648
-3.40293e-08
4.35838e-08
0.00147647
2.29124e-09
-4.45488e-08
0.00147646
6.47162e-08
5.76947e-08
0.00147647
-5.25141e-08
-1.6353e-08
0.00147644
7.56412e-08
-1.05196e-08
0.00147646
-1.72978e-08
4.77366e-08
0.00147644
4.29609e-08
-4.15794e-08
0.00147644
5.00653e-09
3.98399e-08
0.00147644
3.67417e-08
5.90393e-09
0.00147642
2.54086e-08
-2.49307e-08
0.00147644
-4.16865e-09
5.40035e-08
0.00147642
7.91119e-08
-3.3191e-08
0.00147644
-4.78108e-08
4.15762e-08
0.00147643
7.97022e-08
-1.46805e-09
0.00147643
-9.32241e-10
1.45488e-08
0.00147644
2.21481e-09
6.01822e-09
5.02294e-08
3.42026e-08
0.00166391
-3.63472e-08
3.02638e-08
0.00166391
5.7522e-08
1.31453e-08
0.00166391
-3.70707e-08
6.03692e-08
0.00166392
3.28785e-08
-2.20473e-08
0.00166391
-2.42066e-09
8.4103e-08
0.00166393
-3.00971e-08
-1.30605e-08
0.00166393
4.91571e-08
5.65757e-08
0.00166393
-4.63976e-08
3.41184e-08
0.00166394
-1.79652e-09
1.05765e-09
0.00166394
3.40536e-08
7.07778e-08
0.00166395
-8.15843e-08
-7.07407e-09
0.00166394
6.85658e-08
5.72886e-08
0.00166396
-6.20482e-08
1.74497e-08
0.00166395
3.39074e-09
1.9913e-08
0.00166396
1.11809e-08
3.6539e-08
0.00166396
-4.38543e-08
1.33995e-08
0.00166395
2.04933e-08
3.6757e-08
0.00166396
-1.68553e-08
4.88418e-09
0.00166395
-4.75423e-09
4.03058e-08
0.00166396
-1.792e-08
-1.00775e-08
0.00166395
4.45005e-08
4.49467e-08
0.00166396
-7.06346e-08
8.21063e-09
0.00166395
7.41203e-08
2.58058e-10
0.00166395
-3.09423e-08
4.7538e-08
0.00166395
-7.82934e-09
-3.18472e-08
0.00166394
7.04587e-08
5.15008e-08
0.00166395
-6.5151e-08
-3.95536e-10
0.00166393
8.26311e-08
-4.07204e-10
0.00166394
-2.89518e-08
3.98345e-08
0.00166393
4.34541e-08
-1.9749e-08
0.00166392
3.59713e-09
3.18955e-08
0.00166393
2.66621e-08
2.14925e-08
0.00166391
3.01637e-08
-1.32643e-08
0.00166392
-1.49548e-08
5.05504e-08
0.00166391
7.94745e-08
-1.79602e-08
0.00166391
-5.31086e-08
4.37796e-08
0.00166391
7.64031e-08
1.11963e-08
0.0016639
-4.56548e-09
2.29937e-08
0.00166391
-2.40428e-09
1.90976e-08
5.08746e-08
2.53182e-08
0.00184668
-4.05551e-08
3.7672e-08
0.00184668
5.69504e-08
4.84953e-09
0.00184667
-3.77127e-08
6.45866e-08
0.00184669
2.56082e-08
-1.61431e-08
0.00184667
5.91941e-09
7.28768e-08
0.00184668
-3.91881e-08
1.79771e-10
0.00184668
5.14299e-08
4.36166e-08
0.00184668
-4.35308e-08
4.18957e-08
0.00184669
-8.26906e-09
4.06344e-09
0.00184668
3.88584e-08
6.50971e-08
0.00184669
-8.25197e-08
-7.64276e-10
0.00184669
6.75935e-08
5.34756e-08