/*--------------------------------*- C++ -*----------------------------------*\
  =========                 |
  \\      /  F ield         | OpenFOAM: The Open Source CFD Toolbox
   \\    /   O peration     | Website:  https://openfoam.org
    \\  /    A nd           | Version:  10
     \\/     M anipulation  |
\*---------------------------------------------------------------------------*/
FoamFile
{
    format      ascii;
    class       volScalarField;
    location    "35";
    object      pMean;
}
// * * * * * * * * * * * * * * * * * * * * * * * * * * * * * * * * * * * * * //

dimensions      [0 2 -2 0 0 0 0];

internalField   nonuniform List<scalar> 
25600
(
4.21174e-05
4.2515e-05
4.58249e-05
4.57673e-05
4.32346e-05
4.26658e-05
4.423e-05
4.38235e-05
3.98848e-05
3.88761e-05
3.91092e-05
3.60974e-05
3.16954e-05
3.26811e-05
3.40162e-05
3.04647e-05
3.27622e-05
3.4563e-05
3.23723e-05
3.35557e-05
3.73184e-05
3.59197e-05
3.30627e-05
3.80596e-05
3.62803e-05
3.28486e-05
3.49569e-05
3.21138e-05
2.86793e-05
2.7283e-05
2.81873e-05
2.8661e-05
2.86048e-05
2.81484e-05
2.87745e-05
3.64735e-05
3.79257e-05
3.41796e-05
3.9928e-05
4.42617e-05
4.57443e-05
4.86036e-05
5.27506e-05
5.14586e-05
4.89962e-05
4.98291e-05
5.07935e-05
5.00264e-05
4.48483e-05
4.25353e-05
4.14761e-05
3.62574e-05
3.28586e-05
3.34456e-05
3.40016e-05
2.92592e-05
3.00688e-05
3.21519e-05
2.98394e-05
3.2151e-05
3.3402e-05
3.40112e-05
3.29353e-05
3.2679e-05
3.50128e-05
3.04097e-05
2.79836e-05
3.03161e-05
2.56172e-05
2.10232e-05
2.40011e-05
2.70018e-05
2.64071e-05
2.41144e-05
2.73845e-05
3.72508e-05
3.69392e-05
3.45923e-05
4.38731e-05
4.76275e-05
5.02915e-05
5.54772e-05
5.94755e-05
5.61874e-05
5.47434e-05
5.74369e-05
5.68973e-05
5.50363e-05
5.02905e-05
4.61292e-05
4.30037e-05
3.64323e-05
3.36344e-05
3.41645e-05
3.25763e-05
2.75649e-05
2.78845e-05
2.98457e-05
2.82259e-05
3.09431e-05
3.07639e-05
3.2532e-05
3.19583e-05
2.86887e-05
3.32085e-05
2.77431e-05
2.25101e-05
2.63495e-05
2.14338e-05
1.60647e-05
1.99343e-05
2.44344e-05
2.29234e-05
2.02448e-05
2.70012e-05
3.71783e-05
3.55521e-05
3.65259e-05
4.78546e-05
5.10869e-05
5.57813e-05
6.25519e-05
6.56174e-05
6.1474e-05
6.20549e-05
6.57837e-05
6.22907e-05
5.88972e-05
5.56914e-05
4.90835e-05
4.33162e-05
3.5832e-05
3.36153e-05
3.36073e-05
2.91362e-05
2.48407e-05
2.51429e-05
2.73131e-05
2.66689e-05
2.89157e-05
2.96051e-05
3.09491e-05
2.99651e-05
2.61389e-05
2.97799e-05
2.45049e-05
1.87422e-05
2.11119e-05
1.70307e-05
1.297e-05
1.59086e-05
1.99283e-05
1.83471e-05
1.77584e-05
2.76929e-05
3.67206e-05
3.52714e-05
3.97908e-05
5.12045e-05
5.44428e-05
6.15502e-05
6.82959e-05
7.06404e-05
6.74751e-05
6.95919e-05
7.30059e-05
6.68341e-05
6.27254e-05
6.07466e-05
5.11663e-05
4.19387e-05
3.39397e-05
3.23292e-05
3.08894e-05
2.41285e-05
2.07872e-05
2.13686e-05
2.46126e-05
2.43064e-05
2.6369e-05
2.91615e-05
2.87986e-05
2.7899e-05
2.42095e-05
2.53592e-05
2.14725e-05
1.57534e-05
1.48568e-05
1.22887e-05
1.05611e-05
1.08666e-05
1.35206e-05
1.35778e-05
1.62087e-05
2.77308e-05
3.57362e-05
3.69807e-05
4.44079e-05
5.4442e-05
5.8367e-05
6.661e-05
7.33196e-05
7.60495e-05
7.38952e-05
7.55968e-05
7.76261e-05
6.99162e-05
6.54054e-05
6.38998e-05
5.15056e-05
3.84402e-05
3.00231e-05
2.92553e-05
2.58169e-05
1.7062e-05
1.48899e-05
1.70681e-05
2.20163e-05
2.14679e-05
2.44781e-05
2.8348e-05
2.63036e-05
2.59152e-05
2.1942e-05
2.11896e-05
1.87597e-05
1.26466e-05
8.90483e-06
8.47067e-06
7.79135e-06
3.99772e-06
5.62629e-06
8.70694e-06
1.45687e-05
2.69946e-05
3.49342e-05
4.01559e-05
4.89632e-05
5.77028e-05
6.23872e-05
6.8071e-05
7.59685e-05
8.03021e-05
7.8994e-05
7.9105e-05
7.98705e-05
7.16785e-05
6.63229e-05
6.37518e-05
4.84087e-05
3.20551e-05
2.33312e-05
2.2768e-05
1.76711e-05
8.09258e-06
7.7854e-06
1.26114e-05
1.83379e-05
1.77248e-05
2.20072e-05
2.5422e-05
2.25006e-05
2.19342e-05
1.7441e-05
1.64956e-05
1.54748e-05
8.66869e-06
3.05317e-06
4.37307e-06
2.2733e-06
-5.64707e-06
-3.39991e-06
2.71369e-06
1.12035e-05
2.42047e-05
3.43357e-05
4.38045e-05
5.27585e-05
6.04985e-05
6.43816e-05
6.78049e-05
7.93706e-05
8.47708e-05
8.07589e-05
7.81339e-05
7.7558e-05
6.88113e-05
6.33112e-05
5.90805e-05
4.06162e-05
2.18066e-05
1.3456e-05
1.32406e-05
6.68857e-06
-2.63262e-06
5.99395e-07
8.4998e-06
1.32346e-05
1.24384e-05
1.74571e-05
1.96715e-05
1.57139e-05
1.36328e-05
9.75584e-06
1.02422e-05
9.45106e-06
2.08362e-06
-3.61159e-06
-1.8595e-06
-7.68257e-06
-1.81929e-05
-1.48061e-05
-7.22875e-06
3.22621e-06
1.82798e-05
3.31317e-05
4.51627e-05
5.36249e-05
6.11696e-05
6.34156e-05
6.03681e-05
7.79723e-05
8.31973e-05
7.50937e-05
6.96059e-05
6.76375e-05
5.89878e-05
5.41533e-05
4.71372e-05
2.56575e-05
5.92977e-06
-1.678e-06
-1.37314e-06
-9.09202e-06
-1.70931e-05
-9.52392e-06
5.51548e-07
2.73314e-06
1.2035e-06
5.5823e-06
5.66998e-06
9.92192e-07
-3.25659e-06
-5.22379e-06
-2.48761e-06
-4.09878e-06
-1.09882e-05
-1.48195e-05
-1.50363e-05
-2.62236e-05
-3.75941e-05
-3.31467e-05
-2.44291e-05
-1.1613e-05
7.0601e-06
2.82222e-05
4.13923e-05
4.91323e-05
5.54505e-05
5.38547e-05
4.98077e-05
7.38404e-05
7.51342e-05
5.82883e-05
4.73169e-05
4.47864e-05
3.98657e-05
3.88366e-05
2.9274e-05
5.69569e-06
-1.47963e-05
-2.15978e-05
-2.31932e-05
-3.21102e-05
-3.73739e-05
-2.5298e-05
-1.36512e-05
-1.4495e-05
-1.78614e-05
-1.57972e-05
-1.81904e-05
-2.56161e-05
-3.20639e-05
-3.16648e-05
-2.61707e-05
-2.72329e-05
-3.19712e-05
-3.47833e-05
-3.95035e-05
-5.553e-05
-6.63144e-05
-6.15067e-05
-5.18185e-05
-3.55776e-05
-9.91901e-06
1.86665e-05
3.15901e-05
3.96121e-05
4.49975e-05
3.89452e-05
3.64002e-05
6.56878e-05
6.17677e-05
3.30991e-05
1.1249e-05
9.27965e-06
1.2271e-05
1.56497e-05
4.70449e-06
-1.85944e-05
-3.94821e-05
-4.95932e-05
-5.5142e-05
-6.68777e-05
-6.9463e-05
-5.46184e-05
-4.30635e-05
-4.62556e-05
-5.20054e-05
-5.19315e-05
-5.67576e-05
-6.77823e-05
-7.91328e-05
-7.88863e-05
-7.24453e-05
-7.3137e-05
-7.39555e-05
-7.47584e-05
-8.26596e-05
-0.000101322
-0.000110396
-0.00010247
-9.13439e-05
-7.23123e-05
-3.67677e-05
2.31239e-07
1.32288e-05
2.28159e-05
2.70209e-05
1.79865e-05
2.12515e-05
5.37084e-05
4.45638e-05
-1.20768e-06
-3.32324e-05
-2.89308e-05
-2.27529e-05
-2.1013e-05
-3.55924e-05
-5.95546e-05
-7.87957e-05
-8.77956e-05
-9.72681e-05
-0.000113225
-0.000116446
-0.000100667
-9.00875e-05
-9.69638e-05
-0.000101913
-0.00010174
-0.000112649
-0.000132142
-0.000153141
-0.000155613
-0.000148628
-0.000145262
-0.000140423
-0.000140594
-0.000147764
-0.000164411
-0.000169262
-0.000158284
-0.000146112
-0.00012211
-7.50156e-05
-3.04235e-05
-1.58921e-05
7.21383e-07
4.79524e-06
-5.69446e-06
-3.59345e-05
-2.57298e-06
-1.7603e-05
-7.56497e-05
-0.000105965
-9.2451e-05
-8.67019e-05
-9.06802e-05
-0.000111445
-0.000138556
-0.000154827
-0.000156595
-0.000169498
-0.000194378
-0.000197218
-0.000180976
-0.000170854
-0.000169141
-0.000157747
-0.000153462
-0.000168185
-0.000197366
-0.000230303
-0.000237173
-0.000230247
-0.000224258
-0.000217105
-0.000216434
-0.000227084
-0.00024853
-0.000252578
-0.000240538
-0.000232815
-0.00020451
-0.000144503
-9.67554e-05
-7.97179e-05
-5.6596e-05
-5.59048e-05
-6.642e-05
-0.000150784
-0.000109653
-0.000119395
-0.000173283
-0.000186143
-0.000158954
-0.000149051
-0.000151999
-0.000178332
-0.000209185
-0.00021853
-0.000224156
-0.000253076
-0.000283287
-0.000283131
-0.000261227
-0.000236276
-0.000217471
-0.000203898
-0.000199727
-0.000215441
-0.000252969
-0.000293315
-0.000296357
-0.000283539
-0.000274296
-0.000268743
-0.000274157
-0.000300103
-0.000341779
-0.000357675
-0.000350105
-0.00034465
-0.000312269
-0.000238244
-0.000185838
-0.000165538
-0.000148462
-0.000166641
-0.00018454
-0.00028452
-0.000231703
-0.000233809
-0.00028166
-0.000291902
-0.000283927
-0.000279344
-0.000272182
-0.000293818
-0.000323287
-0.000324346
-0.000332321
-0.000365357
-0.000390653
-0.000382914
-0.000352793
-0.000313917
-0.000301213
-0.000301465
-0.000305345
-0.000333574
-0.000389205
-0.000426933
-0.000402529
-0.000359719
-0.000337825
-0.000337829
-0.000354768
-0.000404823
-0.000468538
-0.000490848
-0.000479595
-0.000470134
-0.000421027
-0.000328694
-0.000278394
-0.000267581
-0.000264873
-0.000298063
-0.000319416
-0.000410241
-0.00033785
-0.000322009
-0.000371481
-0.000409422
-0.000437066
-0.000449525
-0.000449817
-0.000467232
-0.000470497
-0.000450346
-0.000464283
-0.000514013
-0.000555263
-0.000566804
-0.000536193
-0.000503853
-0.000518003
-0.000522002
-0.00051083
-0.000528692
-0.000573119
-0.000580895
-0.00052446
-0.000469764
-0.000448717
-0.000455424
-0.000484199
-0.000554297
-0.000619657
-0.00062231
-0.00059543
-0.000562464
-0.000482718
-0.000381591
-0.000347662
-0.000353222
-0.00036777
-0.000418343
-0.000450194
-0.000539125
-0.000443884
-0.000404578
-0.000441698
-0.000494615
-0.000529429
-0.000538871
-0.000532231
-0.000551184
-0.000572373
-0.000580426
-0.000634295
-0.00071457
-0.000781622
-0.00080667
-0.000762304
-0.000725557
-0.000722077
-0.000685459
-0.000652538
-0.000677058
-0.00072766
-0.000738456
-0.000691963
-0.000646327
-0.000623707
-0.000626654
-0.000650296
-0.000711079
-0.000751884
-0.000728096
-0.000682426
-0.000626783
-0.000532865
-0.000444895
-0.000431274
-0.000446807
-0.000469635
-0.000533514
-0.000579955
-0.000735044
-0.000631423
-0.00056077
-0.000573242
-0.000621277
-0.00063953
-0.000622129
-0.000605309
-0.000645079
-0.000699303
-0.000734188
-0.000801187
-0.000867019
-0.000917448
-0.000927947
-0.000864233
-0.000836148
-0.000820114
-0.000776561
-0.000786842
-0.000870224
-0.000954681
-0.000975606
-0.000929925
-0.000875114
-0.000837245
-0.000824803
-0.000827944
-0.000859613
-0.000878758
-0.000847092
-0.00079733
-0.000737686
-0.000662821
-0.000603365
-0.000587354
-0.000567001
-0.000572074
-0.00065768
-0.000745108
-0.000858551
-0.000733257
-0.000646661
-0.000672751
-0.000743701
-0.000742655
-0.000689856
-0.000654473
-0.000711423
-0.000790888
-0.000836837
-0.000894174
-0.000934514
-0.000972598
-0.000986274
-0.000947976
-0.000954922
-0.000970119
-0.000983821
-0.00106817
-0.00119419
-0.00124667
-0.00120305
-0.00110311
-0.00102016
-0.0009766
-0.000954609
-0.000947701
-0.000966627
-0.000971951
-0.00094122
-0.000891625
-0.000832509
-0.000767594
-0.000705568
-0.000657268
-0.000612045
-0.000626816
-0.000744349
-0.000863347
-0.000869091
-0.000722391
-0.000636057
-0.000706787
-0.000817004
-0.000809687
-0.000723942
-0.000672807
-0.000748432
-0.000845578
-0.000897173
-0.000950208
-0.000982448
-0.00103248
-0.00107566
-0.00109416
-0.0011381
-0.00118099
-0.00123906
-0.00132843
-0.0014039
-0.00137395
-0.00126924
-0.00114584
-0.00107493
-0.00103799
-0.00102607
-0.000999273
-0.000979748
-0.000956986
-0.000930246
-0.000894454
-0.000837247
-0.000768564
-0.000702973
-0.000657538
-0.000634192
-0.000680241
-0.000808553
-0.000906336
-0.000786852
-0.000620071
-0.00054173
-0.000660208
-0.0007999
-0.00079424
-0.000704257
-0.000652045
-0.000743718
-0.000845109
-0.000901939
-0.000957564
-0.000983271
-0.00103006
-0.00108457
-0.00115294
-0.00123428
-0.0013025
-0.00135464
-0.00139167
-0.0014081
-0.00133768
-0.0012268
-0.00111819
-0.00106619
-0.00105051
-0.00104806
-0.000997348
-0.0009359
-0.000890178
-0.000884466
-0.000877079
-0.000813575
-0.000725509
-0.000661383
-0.000644933
-0.000649812
-0.000705166
-0.000802115
-0.000849508
-0.000611691
-0.00043517
-0.00036228
-0.000529767
-0.00069547
-0.000710281
-0.000632525
-0.000570838
-0.000653428
-0.000744586
-0.000805957
-0.000855458
-0.000866109
-0.000897783
-0.000954483
-0.00105022
-0.00114152
-0.00121886
-0.00126499
-0.00129556
-0.00130772
-0.00122364
-0.00111045
-0.0010189
-0.000976467
-0.000979075
-0.000996535
-0.000945887
-0.000878949
-0.000832444
-0.000843513
-0.000829784
-0.000742917
-0.000635075
-0.0005681
-0.000563614
-0.000588869
-0.000631083
-0.000670803
-0.000675758
-0.000426262
-0.000248398
-0.000174638
-0.000356326
-0.000540928
-0.000585738
-0.00052017
-0.000441081
-0.000501486
-0.000591964
-0.000655855
-0.000678498
-0.000651749
-0.000671349
-0.00074575
-0.000846234
-0.00092314
-0.00101292
-0.00107012
-0.00111943
-0.00114724
-0.00106129
-0.000957798
-0.000870073
-0.000823872
-0.000827265
-0.000840705
-0.000786995
-0.000717932
-0.000692607
-0.000719245
-0.000683877
-0.000587902
-0.000480301
-0.000419452
-0.00043222
-0.000462362
-0.000479658
-0.000480509
-0.000476068
-0.000272849
-9.62237e-05
-1.90169e-05
-0.000190982
-0.000376195
-0.000454719
-0.000400842
-0.000307684
-0.000338844
-0.000428226
-0.000510173
-0.000515244
-0.000459971
-0.000478493
-0.00057057
-0.0006645
-0.000699865
-0.000775619
-0.000831807
-0.000881015
-0.000922312
-0.000854864
-0.000754717
-0.00064938
-0.00057902
-0.000583433
-0.000591337
-0.000533089
-0.000473033
-0.000474656
-0.000517582
-0.000471299
-0.000388178
-0.000297082
-0.00026522
-0.000307605
-0.000339815
-0.000329523
-0.0003028
-0.000304292
-0.000129065
4.11098e-05
0.000117534
-2.72579e-05
-0.00020175
-0.000304712
-0.000261934
-0.000161426
-0.000183923
-0.000283491
-0.000376519
-0.000370564
-0.000307531
-0.000325863
-0.000413869
-0.000480714
-0.00048236
-0.000533873
-0.000568721
-0.000620003
-0.000683866
-0.00063652
-0.000542902
-0.000409299
-0.000307323
-0.000309768
-0.000322607
-0.000280004
-0.000247053
-0.000274386
-0.000329184
-0.000285353
-0.000217361
-0.000151227
-0.000157779
-0.000232235
-0.000258553
-0.000208858
-0.000150125
-0.000149016
2.89931e-05
0.000185726
0.000257743
0.000136422
-2.36942e-05
-0.000135689
-0.000120897
-4.10132e-05
-6.53192e-05
-0.000164158
-0.000254979
-0.000248855
-0.000189376
-0.000193443
-0.000255279
-0.000296795
-0.000286996
-0.000312612
-0.000325253
-0.000381798
-0.00046685
-0.000441108
-0.000351954
-0.000202603
-8.08639e-05
-7.76045e-05
-0.000108816
-9.191e-05
-8.51022e-05
-0.000129674
-0.000189095
-0.000141256
-7.41589e-05
-3.13111e-05
-7.80119e-05
-0.000168573
-0.000184871
-0.000101261
-5.69126e-06
4.124e-06
0.000192833
0.000332044
0.000392326
0.00027868
0.000124476
3.1141e-06
-1.60766e-06
6.24197e-05
3.7148e-05
-5.85829e-05
-0.000149634
-0.000149124
-9.25133e-05
-7.80424e-05
-0.000118731
-0.000145599
-0.000133192
-0.000152773
-0.00014211
-0.000189633
-0.00027602
-0.000269006
-0.000189026
-3.68789e-05
7.99941e-05
7.61979e-05
3.5224e-05
4.08779e-05
2.96796e-05
-2.91676e-05
-9.46399e-05
-3.72444e-05
3.94446e-05
7.19394e-05
1.40709e-05
-7.90015e-05
-8.79173e-05
2.00599e-05
0.000138252
0.000168148
0.000326942
0.000448937
0.0004996
0.000383154
0.000229359
0.000109945
0.000104523
0.000162901
0.00012961
2.95253e-05
-6.13513e-05
-6.24586e-05
-2.36728e-06
2.47329e-05
-4.06462e-06
-2.39195e-05
-2.09601e-05
-3.83473e-05
-1.22538e-05
-5.33844e-05
-0.000142774
-0.000139414
-7.55236e-05
6.3065e-05
0.000165613
0.00016443
0.000133253
0.000141347
0.000131878
6.94928e-05
-9.46623e-06
5.51894e-05
0.000144362
0.000178396
0.000126272
3.82501e-05
2.05642e-05
0.000137746
0.000270976
0.00030762
0.000414861
0.000517442
0.000566405
0.000450135
0.000303222
0.000198149
0.000197072
0.000246101
0.00020241
0.000101946
1.39752e-05
8.21797e-06
6.39449e-05
9.56893e-05
7.25182e-05
5.60131e-05
5.86039e-05
3.88714e-05
6.7959e-05
3.25369e-05
-4.66399e-05
-5.28704e-05
-3.83952e-06
0.000121002
0.000210287
0.00021453
0.000191769
0.000204868
0.000205093
0.000148465
7.18748e-05
0.000135723
0.000226581
0.000268302
0.000229435
0.000145469
0.000121367
0.000233029
0.000359832
0.000398505
0.000454561
0.000551027
0.000595828
0.000485993
0.000350935
0.000258203
0.000261262
0.000300204
0.000247094
0.000147162
6.54068e-05
5.72029e-05
0.0001036
0.000130817
0.000116389
0.000108981
0.000107375
8.73582e-05
0.000116611
8.00541e-05
2.77158e-06
-5.77267e-06
3.5118e-05
0.000151082
0.000233748
0.000240466
0.000219046
0.000235514
0.000244335
0.000194442
0.000123211
0.0001851
0.000270805
0.000315966
0.000286832
0.000205736
0.000176973
0.00028105
0.000397756
0.000434252
0.000464627
0.000559978
0.000606987
0.000501453
0.000373334
0.000286335
0.000287026
0.00032169
0.000267097
0.000166732
8.70444e-05
7.80795e-05
0.000118111
0.000143434
0.000132712
0.000129387
0.000126738
0.00010627
0.000131274
9.47105e-05
2.08891e-05
8.80898e-06
4.65567e-05
0.000160279
0.000242109
0.000250788
0.000230241
0.000246467
0.000257526
0.000212213
0.000143629
0.000201845
0.000284133
0.000329358
0.000305157
0.000229084
0.000198282
0.000296
0.000407111
0.000443827
0.000469071
0.000564588
0.000610089
0.000504122
0.0003783
0.000293683
0.000294641
0.000326943
0.000269636
0.000169744
9.11469e-05
8.06497e-05
0.000118905
0.000144435
0.000136804
0.000134021
0.000130266
0.000106995
0.000129973
9.43544e-05
2.1678e-05
8.51532e-06
4.52251e-05
0.000158006
0.000241578
0.00025258
0.000232492
0.000248209
0.000258015
0.000213526
0.000145535
0.000204471
0.000285605
0.000330418
0.000308819
0.000234853
0.000203009
0.000298041
0.000408402
0.000446553
4.07503e-05
4.08818e-05
4.40756e-05
4.49366e-05
4.23602e-05
4.15964e-05
4.33343e-05
4.29261e-05
3.92621e-05
3.80547e-05
3.79686e-05
3.55627e-05
3.10468e-05
3.1403e-05
3.34449e-05
3.03774e-05
3.20966e-05
3.38643e-05
3.21339e-05
3.30422e-05
3.66376e-05
3.54698e-05
3.25743e-05
3.72936e-05
3.53072e-05
3.1721e-05
3.38632e-05
3.09994e-05
2.70938e-05
2.57058e-05
2.66105e-05
2.69086e-05
2.67957e-05
2.6149e-05
2.70852e-05
3.48682e-05
3.67851e-05
3.33219e-05
3.81174e-05
4.23685e-05
4.4043e-05
4.64797e-05
5.06503e-05
5.02761e-05
4.77591e-05
4.83871e-05
4.97147e-05
4.91165e-05
4.37762e-05
4.13902e-05
4.06898e-05
3.53251e-05
3.17399e-05
3.24897e-05
3.32546e-05
2.88613e-05
3.00519e-05
3.2286e-05
2.94786e-05
3.15924e-05
3.3143e-05
3.30936e-05
3.21484e-05
3.24706e-05
3.37044e-05
2.89224e-05
2.72414e-05
2.89857e-05
2.39494e-05
1.96608e-05
2.20777e-05
2.51035e-05
2.48989e-05
2.21762e-05
2.54343e-05
3.56474e-05
3.58708e-05
3.33664e-05
4.16293e-05
4.55292e-05
4.74833e-05
5.25728e-05
5.71211e-05
5.44922e-05
5.27697e-05
5.54016e-05
5.52722e-05
5.35622e-05
4.84666e-05
4.47539e-05
4.24472e-05
3.53682e-05
3.24699e-05
3.35161e-05
3.20539e-05
2.71785e-05
2.8318e-05
3.05616e-05
2.77806e-05
3.05363e-05
3.08646e-05
3.15961e-05
3.15709e-05
2.89111e-05
3.16138e-05
2.63432e-05
2.21776e-05
2.52255e-05
2.01288e-05
1.46504e-05
1.75352e-05
2.24849e-05
2.14905e-05
1.81661e-05
2.47576e-05
3.55975e-05
3.41402e-05
3.40931e-05
4.46159e-05
4.81394e-05
5.114e-05
5.80098e-05
6.19939e-05
5.83568e-05
5.86506e-05
6.29376e-05
6.03138e-05
5.70657e-05
5.36722e-05
4.80456e-05
4.30724e-05
3.5101e-05
3.27931e-05
3.35739e-05
2.9415e-05
2.52951e-05
2.67941e-05
2.93751e-05
2.73439e-05
2.95111e-05
3.02954e-05
3.07979e-05
3.04714e-05
2.65948e-05
2.85129e-05
2.36431e-05
1.90784e-05
2.0563e-05
1.60195e-05
1.13339e-05
1.32091e-05
1.76836e-05
1.65237e-05
1.52478e-05
2.48517e-05
3.45057e-05
3.25279e-05
3.53982e-05
4.61159e-05
4.98725e-05
5.41616e-05
6.12321e-05
6.4902e-05
6.25404e-05
6.49825e-05
6.9874e-05
6.47663e-05
6.09543e-05
5.9453e-05
5.14538e-05
4.29871e-05
3.42894e-05
3.24807e-05
3.18112e-05
2.54032e-05
2.28463e-05
2.5108e-05
2.88853e-05
2.72364e-05
2.89385e-05
3.09239e-05
2.98434e-05
2.92154e-05
2.52319e-05
2.53543e-05
2.1721e-05
1.70394e-05
1.53039e-05
1.18088e-05
9.12021e-06
7.97911e-06
1.05183e-05
1.0823e-05
1.23886e-05
2.35805e-05
3.16406e-05
3.15759e-05
3.73709e-05
4.70227e-05
5.13159e-05
5.60413e-05
6.33512e-05
6.79454e-05
6.72107e-05
7.05162e-05
7.49231e-05
6.82178e-05
6.4754e-05
6.46316e-05
5.44734e-05
4.23572e-05
3.28877e-05
3.13705e-05
2.82924e-05
2.03816e-05
1.99942e-05
2.39384e-05
2.85827e-05
2.65531e-05
2.85484e-05
3.11959e-05
2.90395e-05
2.81155e-05
2.37932e-05
2.25928e-05
2.00596e-05
1.44928e-05
9.55254e-06
7.6458e-06
5.70102e-06
2.49111e-07
1.33044e-06
4.48587e-06
8.74777e-06
2.02817e-05
2.75752e-05
3.10369e-05
3.86763e-05
4.7442e-05
5.24811e-05
5.53277e-05
6.41815e-05
7.02134e-05
7.05786e-05
7.40795e-05
7.80357e-05
7.15581e-05
6.88764e-05
6.91286e-05
5.61467e-05
3.9434e-05
2.83675e-05
2.6263e-05
2.09346e-05
1.28126e-05
1.51177e-05
2.17281e-05
2.61143e-05
2.40273e-05
2.70855e-05
2.92722e-05
2.65992e-05
2.52802e-05
2.14647e-05
2.0697e-05
1.8515e-05
1.12627e-05
4.03415e-06
2.94062e-06
-1.09582e-06
-1.0926e-05
-9.26225e-06
-4.00431e-06
1.78033e-06
1.35686e-05
2.27195e-05
3.02507e-05
3.88081e-05
4.73046e-05
5.1928e-05
4.97675e-05
6.23216e-05
6.95766e-05
6.95811e-05
7.31507e-05
7.72203e-05
7.18339e-05
7.09376e-05
7.08219e-05
5.39414e-05
3.25141e-05
1.90762e-05
1.53007e-05
8.29222e-06
1.51786e-06
7.09354e-06
1.55497e-05
1.91169e-05
1.87393e-05
2.32524e-05
2.3984e-05
2.03736e-05
1.793e-05
1.59947e-05
1.75857e-05
1.53676e-05
7.07653e-06
-3.93571e-07
-2.54533e-06
-1.23952e-05
-2.56298e-05
-2.18995e-05
-1.56392e-05
-9.4684e-06
3.17574e-06
1.64639e-05
2.7674e-05
3.60561e-05
4.33313e-05
4.56077e-05
3.67577e-05
5.31766e-05
6.13377e-05
6.25805e-05
6.67713e-05
7.03928e-05
6.5895e-05
6.70903e-05
6.49121e-05
4.34106e-05
1.77996e-05
1.41881e-06
-4.8078e-06
-1.33615e-05
-1.77106e-05
-7.52509e-06
2.94284e-06
6.03538e-06
8.19839e-06
1.36424e-05
1.27e-05
8.08661e-06
5.21641e-06
7.4322e-06
1.10139e-05
6.595e-06
-2.78557e-06
-1.02929e-05
-1.59078e-05
-3.2088e-05
-4.53313e-05
-3.94798e-05
-3.40042e-05
-2.81471e-05
-1.18534e-05
8.23137e-06
2.32708e-05
3.10356e-05
3.51525e-05
3.23108e-05
1.58393e-05
3.6525e-05
4.50365e-05
4.84165e-05
5.25871e-05
5.75545e-05
5.68059e-05
6.08104e-05
5.43145e-05
2.75789e-05
-1.71397e-06
-2.04143e-05
-2.99192e-05
-4.11051e-05
-4.24784e-05
-2.67223e-05
-1.31564e-05
-9.21533e-06
-4.21588e-06
6.80384e-07
-2.96298e-06
-9.81873e-06
-1.28368e-05
-5.62165e-06
-9.21448e-08
-5.90981e-06
-1.67504e-05
-2.63121e-05
-3.84227e-05
-6.18225e-05
-7.34126e-05
-6.56323e-05
-6.22469e-05
-5.60465e-05
-3.32646e-05
-5.45945e-06
1.19076e-05
1.89333e-05
1.90922e-05
1.01654e-05
-1.80717e-05
9.02828e-06
2.26791e-05
2.79147e-05
3.01587e-05
3.77332e-05
4.3568e-05
5.17151e-05
4.09116e-05
1.08576e-05
-1.98854e-05
-4.18847e-05
-5.71875e-05
-7.36286e-05
-7.33383e-05
-5.20012e-05
-3.40861e-05
-2.7189e-05
-2.08087e-05
-1.86742e-05
-2.48858e-05
-3.28685e-05
-3.70239e-05
-2.9288e-05
-2.65982e-05
-3.40619e-05
-4.39449e-05
-5.52278e-05
-7.44938e-05
-0.000102497
-0.000112532
-0.000103962
-0.000100808
-9.17009e-05
-6.13992e-05
-2.61322e-05
-8.78086e-06
-3.75003e-06
-9.95824e-06
-2.65755e-05
-5.57412e-05
-1.79408e-05
9.42909e-06
1.65548e-05
1.62206e-05
2.1496e-05
3.06251e-05
3.96183e-05
2.36135e-05
-9.74678e-06
-3.66887e-05
-5.89224e-05
-8.15568e-05
-0.000103366
-0.000103096
-7.79421e-05
-5.69057e-05
-4.93636e-05
-4.24959e-05
-4.03066e-05
-4.60179e-05
-5.36018e-05
-6.03891e-05
-5.38723e-05
-5.31216e-05
-6.41828e-05
-7.67337e-05
-9.27379e-05
-0.000118314
-0.000149053
-0.000158486
-0.000150341
-0.000148185
-0.000132427
-9.02289e-05
-5.02497e-05
-3.80235e-05
-3.57281e-05
-4.93192e-05
-7.02317e-05
-0.000101231
-4.01179e-05
5.0226e-06
1.49871e-05
1.41618e-05
1.77989e-05
2.6781e-05
3.02528e-05
2.10994e-06
-3.97764e-05
-6.96827e-05
-0.000102216
-0.000138174
-0.000166484
-0.000160899
-0.000130317
-0.000108097
-9.84491e-05
-9.02754e-05
-9.33593e-05
-0.000103067
-0.000116512
-0.000127326
-0.000116376
-0.0001034
-0.000108616
-0.000118675
-0.000132524
-0.000155362
-0.00018371
-0.000193957
-0.000190557
-0.000189839
-0.000163932
-0.000111296
-7.78678e-05
-7.7475e-05
-8.36727e-05
-0.000108696
-0.000130602
-0.000170474
-8.17721e-05
-2.60744e-05
-2.29408e-05
-2.3095e-05
-1.01877e-05
-1.56944e-06
-1.14947e-05
-5.62031e-05
-0.000109663
-0.000153113
-0.000209729
-0.000259712
-0.000279174
-0.000252773
-0.000206128
-0.000174027
-0.000166398
-0.000175354
-0.000194208
-0.000220454
-0.000253744
-0.000266396
-0.000233745
-0.000200593
-0.000193597
-0.000192491
-0.000197385
-0.000216152
-0.000246437
-0.000252866
-0.000238658
-0.000225317
-0.000189271
-0.000135764
-0.00012441
-0.000151493
-0.000179425
-0.000212229
-0.000222943
-0.000248826
-0.000152025
-0.000110455
-0.000123132
-0.000119516
-9.75029e-05
-8.83016e-05
-0.000107321
-0.000158439
-0.00020908
-0.000258592
-0.000336945
-0.000402673
-0.000404945
-0.000348844
-0.000288257
-0.000258018
-0.00026416
-0.0002843
-0.000310784
-0.000353509
-0.000405382
-0.000416312
-0.000377729
-0.000342225
-0.000325908
-0.000305818
-0.000292418
-0.00030573
-0.00033925
-0.000345116
-0.000330905
-0.000322073
-0.000288843
-0.000238879
-0.00024191
-0.000275877
-0.000302203
-0.000325639
-0.000317667
-0.000294706
-0.000212533
-0.000191459
-0.000210262
-0.000204178
-0.000186994
-0.000195747
-0.00024007
-0.000303382
-0.000343596
-0.000378695
-0.000460769
-0.000530116
-0.000520376
-0.000455437
-0.000401576
-0.000388701
-0.000405688
-0.000414535
-0.000434377
-0.000489029
-0.000553429
-0.000579003
-0.000556361
-0.000526192
-0.000485983
-0.000435223
-0.000401286
-0.000406645
-0.000439271
-0.000445327
-0.000446649
-0.000450005
-0.000410059
-0.000344386
-0.000333307
-0.000356989
-0.000379598
-0.000395229
-0.000371152
-0.000378765
-0.000292592
-0.000262097
-0.000259846
-0.000249558
-0.000237451
-0.000259212
-0.000329765
-0.000412367
-0.000458859
-0.000495876
-0.000573436
-0.000623205
-0.000590997
-0.000528442
-0.000487482
-0.000487033
-0.000498094
-0.000490645
-0.00050659
-0.000577506
-0.000672974
-0.000723847
-0.000714391
-0.000670672
-0.000601443
-0.000530184
-0.000487058
-0.000481446
-0.000501462
-0.00051831
-0.000544017
-0.000559776
-0.000509094
-0.000432036
-0.00041903
-0.000444919
-0.000473472
-0.000491052
-0.000465717
-0.000518129
-0.000422428
-0.000360963
-0.000331596
-0.000328858
-0.000330925
-0.000378048
-0.000475356
-0.000577599
-0.000641023
-0.000691534
-0.000754084
-0.00075052
-0.000669794
-0.00059671
-0.000570711
-0.000579413
-0.000575919
-0.000565957
-0.000599234
-0.000694628
-0.000806171
-0.000856505
-0.000835957
-0.000760268
-0.000666121
-0.000591504
-0.000552184
-0.000543417
-0.000561192
-0.000606096
-0.000655433
-0.000673915
-0.000625515
-0.00055169
-0.000549427
-0.000580618
-0.000601731
-0.000610166
-0.000593969
-0.000616961
-0.000503793
-0.000399909
-0.000354173
-0.000375197
-0.000397275
-0.00047368
-0.000578571
-0.00066569
-0.000720048
-0.000785949
-0.000847632
-0.000817701
-0.000708835
-0.000635377
-0.000645667
-0.000673411
-0.00067757
-0.000691835
-0.000738984
-0.000827119
-0.000914436
-0.000938522
-0.000899305
-0.000802216
-0.00070168
-0.000648575
-0.000629466
-0.00061933
-0.00064383
-0.000728637
-0.000797602
-0.000811424
-0.000749577
-0.0006584
-0.000646363
-0.000658961
-0.000660583
-0.0006713
-0.000680312
-0.000600312
-0.000462733
-0.000327921
-0.000297806
-0.000362823
-0.000410385
-0.000501706
-0.000592334
-0.000653171
-0.000697739
-0.000784274
-0.000854759
-0.000821716
-0.000709431
-0.000646578
-0.000680137
-0.000727869
-0.000748123
-0.000771647
-0.000804016
-0.000863472
-0.000911334
-0.000897347
-0.000839526
-0.000745936
-0.000676729
-0.000665605
-0.00066355
-0.000646817
-0.000684823
-0.000815103
-0.000904696
-0.000914533
-0.000834596
-0.000715877
-0.000674211
-0.000659815
-0.000641919
-0.000649559
-0.00066815
-0.000581085
-0.000427571
-0.000272701
-0.00026468
-0.00035657
-0.000416354
-0.00050642
-0.000571612
-0.000610618
-0.00065336
-0.000752903
-0.000825711
-0.000794259
-0.000683533
-0.000629259
-0.000671747
-0.000723471
-0.000753997
-0.00075997
-0.00075857
-0.000793263
-0.00081162
-0.000779167
-0.000722529
-0.00064849
-0.000627857
-0.000667322
-0.000685291
-0.000659765
-0.000703422
-0.000856219
-0.000950703
-0.000956629
-0.000863345
-0.000729122
-0.000667592
-0.000626722
-0.000593513
-0.000600593
-0.000636153
-0.00057752
-0.000410082
-0.000231877
-0.000220534
-0.000316114
-0.000389654
-0.000472123
-0.000517234
-0.000539427
-0.000585012
-0.000699967
-0.000779873
-0.000754653
-0.000655059
-0.000624533
-0.000684031
-0.000727054
-0.000736665
-0.000691667
-0.000657596
-0.000675476
-0.000683193
-0.000660527
-0.000617905
-0.000566472
-0.00059463
-0.000677741
-0.000714033
-0.000680921
-0.000728801
-0.000877578
-0.00094951
-0.000944612
-0.00083661
-0.000698008
-0.000644619
-0.000600869
-0.00055875
-0.00056639
-0.000624312
-0.000568418
-0.000396487
-0.000196539
-0.00016673
-0.000261144
-0.000345917
-0.000423896
-0.000466811
-0.00047834
-0.000525238
-0.000651496
-0.000730737
-0.000711306
-0.000632747
-0.000645352
-0.000716984
-0.000748941
-0.000735327
-0.000641156
-0.000575905
-0.000574408
-0.000580374
-0.000574297
-0.00053788
-0.000505963
-0.000574128
-0.000694569
-0.000746923
-0.000700562
-0.000744455
-0.00087797
-0.000929571
-0.000914291
-0.000782872
-0.000639839
-0.000607807
-0.000582099
-0.000535962
-0.000536777
-0.000610064
-0.000511973
-0.000336805
-0.000122308
-6.8843e-05
-0.000158589
-0.000258579
-0.000350958
-0.000409313
-0.000405891
-0.000442692
-0.000564486
-0.000631905
-0.000619081
-0.000570156
-0.000618839
-0.000695813
-0.000725296
-0.000713534
-0.000599432
-0.000504711
-0.00048126
-0.000477248
-0.000471425
-0.000423876
-0.000401998
-0.000513109
-0.000668899
-0.000729295
-0.000670096
-0.000704913
-0.000834371
-0.000886603
-0.000865366
-0.000702813
-0.000545847
-0.000530394
-0.000529907
-0.000481914
-0.000473752
-0.000550386
-0.000403224
-0.000242
-1.98644e-05
6.3533e-05
-2.54764e-05
-0.000141778
-0.000253737
-0.000316173
-0.000292694
-0.000315327
-0.000427864
-0.000483432
-0.000476286
-0.000453568
-0.000525825
-0.000608469
-0.00064123
-0.000640062
-0.000520896
-0.000411183
-0.000374766
-0.000362932
-0.000340812
-0.000269586
-0.000252215
-0.000402319
-0.000584035
-0.000644859
-0.00056996
-0.000602314
-0.000745685
-0.000805827
-0.00078775
-0.00060372
-0.000429831
-0.000428762
-0.000455748
-0.000398171
-0.00037627
-0.000443736
-0.000291984
-0.000143685
7.52228e-05
0.000169019
8.84176e-05
-2.52806e-05
-0.000143278
-0.000200921
-0.000162056
-0.00017571
-0.000279204
-0.000329135
-0.000314485
-0.000301156
-0.000396641
-0.000493602
-0.000532657
-0.000531447
-0.00040799
-0.000291664
-0.00025092
-0.000235029
-0.000205519
-0.000115886
-8.84569e-05
-0.000257266
-0.000444342
-0.000496274
-0.000414073
-0.000457971
-0.000617947
-0.000686616
-0.000681038
-0.000497024
-0.000312643
-0.000324603
-0.000374577
-0.000305027
-0.000270432
-0.000329927
-0.000190588
-5.3636e-05
0.000167661
0.000274666
0.000189864
8.15695e-05
-2.80101e-05
-7.6258e-05
-2.61843e-05
-3.57754e-05
-0.000136533
-0.000177922
-0.000156937
-0.000145266
-0.000255127
-0.000368189
-0.000423028
-0.000426515
-0.000293715
-0.000172785
-0.000136798
-0.000123117
-9.48662e-05
-2.10107e-06
3.74362e-05
-0.000126775
-0.000300321
-0.000337432
-0.000253478
-0.00031623
-0.000489725
-0.000561151
-0.000569417
-0.00039067