/*--------------------------------*- C++ -*----------------------------------*\
  =========                 |
  \\      /  F ield         | OpenFOAM: The Open Source CFD Toolbox
   \\    /   O peration     | Website:  https://openfoam.org
    \\  /    A nd           | Version:  10
     \\/     M anipulation  |
\*---------------------------------------------------------------------------*/
FoamFile
{
    format      ascii;
    class       volScalarField;
    location    "35";
    object      pPrime2Mean;
}
// * * * * * * * * * * * * * * * * * * * * * * * * * * * * * * * * * * * * * //

dimensions      [0 4 -4 0 0 0 0];

internalField   nonuniform List<scalar> 
25600
(
2.28348e-07
2.68679e-07
3.10605e-07
2.88424e-07
2.26478e-07
2.54294e-07
3.43978e-07
2.82481e-07
2.2223e-07
3.0179e-07
3.07085e-07
2.81756e-07
2.79926e-07
3.17186e-07
3.39945e-07
2.84994e-07
2.97114e-07
3.21812e-07
3.08429e-07
3.11392e-07
3.12909e-07
3.07463e-07
3.47547e-07
3.78073e-07
3.26926e-07
3.32902e-07
3.70468e-07
3.38144e-07
2.84358e-07
2.71841e-07
2.97643e-07
2.88783e-07
2.67251e-07
2.56696e-07
2.95131e-07
3.18136e-07
2.3721e-07
2.52915e-07
3.20181e-07
2.66937e-07
2.32465e-07
3.1734e-07
3.24462e-07
2.92882e-07
2.63358e-07
2.62946e-07
3.20877e-07
2.95886e-07
2.32117e-07
2.95204e-07
3.1095e-07
2.75406e-07
3.04465e-07
3.37052e-07
3.20536e-07
2.91509e-07
3.12345e-07
2.97803e-07
2.93131e-07
3.28022e-07
2.97789e-07
3.06068e-07
3.42578e-07
3.57733e-07
3.61132e-07
3.1365e-07
3.59113e-07
3.92331e-07
3.09344e-07
2.709e-07
3.05947e-07
3.39086e-07
2.85092e-07
2.46123e-07
3.24036e-07
3.40718e-07
2.26009e-07
2.46008e-07
3.49025e-07
2.65081e-07
2.34706e-07
3.5081e-07
3.22187e-07
2.93939e-07
3.02353e-07
2.86556e-07
3.02286e-07
2.97871e-07
2.6437e-07
3.00017e-07
2.98899e-07
2.7148e-07
3.41117e-07
3.67837e-07
3.07794e-07
3.12234e-07
3.50084e-07
3.01093e-07
2.99098e-07
3.41642e-07
3.01797e-07
3.16984e-07
3.33592e-07
3.61688e-07
3.95353e-07
3.12274e-07
3.6613e-07
4.21105e-07
3.32313e-07
2.68835e-07
3.21415e-07
4.02026e-07
2.88213e-07
2.4774e-07
3.79995e-07
3.51446e-07
2.08057e-07
2.51283e-07
3.50878e-07
2.37768e-07
2.55503e-07
3.68332e-07
3.1585e-07
3.09155e-07
3.44278e-07
3.19876e-07
2.87081e-07
2.95297e-07
3.06625e-07
3.03414e-07
2.75061e-07
2.74566e-07
3.85398e-07
3.87721e-07
2.94522e-07
3.43656e-07
3.87412e-07
3.18549e-07
3.09257e-07
3.49707e-07
3.30519e-07
3.25331e-07
3.36682e-07
3.97218e-07
4.09416e-07
3.21816e-07
3.73793e-07
4.13864e-07
3.35683e-07
2.58734e-07
3.46129e-07
4.38293e-07
2.61262e-07
2.83269e-07
4.48214e-07
3.39085e-07
2.02099e-07
2.68586e-07
3.17977e-07
2.04517e-07
2.96515e-07
3.7725e-07
3.37214e-07
3.50104e-07
3.87872e-07
3.64206e-07
2.88003e-07
3.00586e-07
3.51505e-07
3.15781e-07
2.61757e-07
2.96319e-07
4.35054e-07
3.97172e-07
2.94789e-07
3.82576e-07
4.13722e-07
3.35588e-07
3.16878e-07
3.69335e-07
3.71144e-07
3.32068e-07
3.71508e-07
4.43164e-07
4.09919e-07
3.48378e-07
3.82296e-07
3.93306e-07
3.31594e-07
2.66181e-07
3.84055e-07
4.26129e-07
2.30303e-07
3.6515e-07
5.1335e-07
3.16914e-07
2.22405e-07
2.85136e-07
2.69329e-07
2.04309e-07
3.51804e-07
3.99976e-07
3.91749e-07
4.07322e-07
4.38716e-07
4.19164e-07
3.05781e-07
3.16645e-07
3.98709e-07
3.38705e-07
2.70958e-07
3.47794e-07
4.87978e-07
4.08043e-07
3.27954e-07
4.37834e-07
4.33895e-07
3.50816e-07
3.40505e-07
4.10469e-07
4.04578e-07
3.48097e-07
4.35924e-07
4.94039e-07
4.27532e-07
4.01328e-07
4.12929e-07
3.92913e-07
3.46657e-07
3.1163e-07
4.18915e-07
3.79275e-07
2.36705e-07
4.97686e-07
5.77579e-07
3.13076e-07
2.72353e-07
2.97665e-07
2.35152e-07
2.45687e-07
4.1697e-07
4.59656e-07
4.87234e-07
4.87747e-07
5.05865e-07
4.89896e-07
3.4185e-07
3.48133e-07
4.5383e-07
3.80172e-07
3.14586e-07
4.22165e-07
5.45224e-07
4.45977e-07
4.01121e-07
5.08115e-07
4.57868e-07
3.83413e-07
4.05431e-07
4.74054e-07
4.36614e-07
3.93683e-07
5.20696e-07
5.57526e-07
4.80001e-07
4.83504e-07
4.70569e-07
4.26012e-07
4.04725e-07
3.9706e-07
4.47643e-07
3.40754e-07
3.14084e-07
6.77242e-07
6.59682e-07
3.51165e-07
3.41094e-07
3.17096e-07
2.44925e-07
3.17099e-07
5.37215e-07
5.88332e-07
6.26257e-07
6.12662e-07
6.21283e-07
5.83671e-07
3.95453e-07
4.06456e-07
5.24628e-07
4.4902e-07
4.02744e-07
5.24703e-07
6.25678e-07
5.32494e-07
5.22944e-07
6.05935e-07
5.11561e-07
4.66236e-07
5.29451e-07
5.61582e-07
4.85033e-07
4.8347e-07
6.42823e-07
6.59721e-07
5.8e-07
5.95893e-07
5.70589e-07
5.23664e-07
5.24207e-07
5.14657e-07
4.90501e-07
3.52784e-07
4.84787e-07
9.14072e-07
7.83762e-07
4.51882e-07
4.43945e-07
3.65685e-07
3.00677e-07
4.19631e-07
7.44141e-07
8.18585e-07
8.51372e-07
8.14078e-07
7.9898e-07
7.09531e-07
4.781e-07
5.01438e-07
6.30862e-07
5.69104e-07
5.49654e-07
6.77055e-07
7.68119e-07
6.87965e-07
6.92806e-07
7.48475e-07
6.43379e-07
6.4363e-07
7.25033e-07
6.86645e-07
5.76876e-07
6.286e-07
8.09609e-07
8.19287e-07
7.37651e-07
7.4881e-07
7.28551e-07
7.01558e-07
7.11194e-07
6.72435e-07
5.77121e-07
4.48396e-07
7.56837e-07
1.22158e-06
9.89846e-07
6.47272e-07
6.02248e-07
4.72395e-07
4.23345e-07
5.73262e-07
1.11145e-06
1.19532e-06
1.20562e-06
1.13359e-06
1.07533e-06
8.86313e-07
6.22207e-07
6.70028e-07
7.9644e-07
7.51781e-07
7.76076e-07
9.0909e-07
1.01614e-06
9.47279e-07
9.45992e-07
9.8706e-07
9.05213e-07
9.53485e-07
1.02738e-06
8.97272e-07
7.56474e-07
8.72137e-07
1.08146e-06
1.09346e-06
9.87765e-07
9.94601e-07
1.00796e-06
9.85506e-07
9.70226e-07
9.03364e-07
7.61057e-07
6.78949e-07
1.15468e-06
1.62994e-06
1.32387e-06
9.63325e-07
8.42634e-07
6.66371e-07
6.43517e-07
8.39867e-07
1.67594e-06
1.80311e-06
1.7867e-06
1.60451e-06
1.47641e-06
1.16498e-06
8.59176e-07
9.55776e-07
1.10075e-06
1.06225e-06
1.10918e-06
1.2636e-06
1.41258e-06
1.35006e-06
1.3284e-06
1.37192e-06
1.34636e-06
1.42471e-06
1.44163e-06
1.21482e-06
1.05247e-06
1.22312e-06
1.48508e-06
1.51068e-06
1.3477e-06
1.34476e-06
1.39913e-06
1.36901e-06
1.30087e-06
1.21708e-06
1.06536e-06
1.04518e-06
1.65031e-06
2.15945e-06
1.83535e-06
1.4251e-06
1.19917e-06
1.007e-06
1.01863e-06
1.27318e-06
2.47537e-06
2.64937e-06
2.63123e-06
2.32401e-06
2.09544e-06
1.57679e-06
1.22487e-06
1.35043e-06
1.50895e-06
1.50912e-06
1.62749e-06
1.81495e-06
1.98177e-06
1.92473e-06
1.92553e-06
2.00068e-06
2.005e-06
2.08103e-06
2.0392e-06
1.69971e-06
1.5177e-06
1.76833e-06
2.13368e-06
2.1742e-06
1.9559e-06
1.92644e-06
1.98166e-06
1.89928e-06
1.77929e-06
1.70662e-06
1.53049e-06
1.55234e-06
2.26691e-06
2.83431e-06
2.48834e-06
1.98246e-06
1.6776e-06
1.52425e-06
1.56918e-06
1.92823e-06
3.40107e-06
3.61678e-06
3.66738e-06
3.40163e-06
3.06107e-06
2.2823e-06
1.89205e-06
2.08675e-06
2.29354e-06
2.28077e-06
2.40386e-06
2.56048e-06
2.70046e-06
2.63948e-06
2.62251e-06
2.6843e-06
2.73052e-06
2.88279e-06
2.7796e-06
2.3167e-06
2.13411e-06
2.41617e-06
2.81264e-06
2.88264e-06
2.62065e-06
2.57556e-06
2.66897e-06
2.56949e-06
2.38289e-06
2.3001e-06
2.1241e-06
2.1621e-06
2.95829e-06
3.62141e-06
3.25543e-06
2.74377e-06
2.46281e-06
2.38422e-06
2.43365e-06
2.85288e-06
4.71672e-06
4.8828e-06
5.01416e-06
4.88175e-06
4.27469e-06
3.19799e-06
2.75241e-06
2.93579e-06
3.10657e-06
3.10175e-06
3.12125e-06
3.17197e-06
3.30322e-06
3.28455e-06
3.345e-06
3.53285e-06
3.6666e-06
3.78931e-06
3.56008e-06
2.96113e-06
2.77358e-06
3.12751e-06
3.64126e-06
3.78462e-06
3.42313e-06
3.30237e-06
3.41383e-06
3.33338e-06
3.19132e-06
3.19086e-06
2.99525e-06
3.06968e-06
3.97869e-06
4.75401e-06
4.46576e-06
4.10779e-06
3.94114e-06
3.87098e-06
3.88173e-06
4.28227e-06
6.79599e-06
6.75698e-06
6.76969e-06
6.42261e-06
5.36683e-06
4.06447e-06
3.55507e-06
3.77825e-06
3.88893e-06
3.71996e-06
3.51933e-06
3.59543e-06
3.85197e-06
3.99993e-06
4.28409e-06
4.7506e-06
4.9662e-06
5.02288e-06
4.62762e-06
3.9458e-06
3.82104e-06
4.30745e-06
4.98677e-06
5.11361e-06
4.52217e-06
4.29973e-06
4.37265e-06
4.13164e-06
3.92889e-06
3.88083e-06
3.62624e-06
3.87813e-06
5.18724e-06
6.31033e-06
6.22097e-06
6.03797e-06
6.09932e-06
6.12156e-06
6.18632e-06
6.51449e-06
8.97742e-06
8.61824e-06
8.35319e-06
7.75063e-06
6.52958e-06
5.29824e-06
4.91449e-06
5.09067e-06
4.96863e-06
4.54968e-06
4.08056e-06
4.20736e-06
4.63048e-06
5.13872e-06
5.99973e-06
6.66789e-06
6.77321e-06
6.79339e-06
6.2825e-06
5.31058e-06
4.8345e-06
4.93823e-06
5.44814e-06
5.61008e-06
5.11375e-06
5.07701e-06
5.35718e-06
5.05928e-06
4.62787e-06
4.26359e-06
3.87109e-06
4.58805e-06
6.5843e-06
8.07727e-06
8.25079e-06
8.31315e-06
8.55969e-06
8.66064e-06
8.70884e-06
8.91232e-06
1.12798e-05
1.07234e-05
1.02964e-05
9.61352e-06
8.27096e-06
7.00267e-06
6.52332e-06
6.50224e-06
6.16138e-06
5.38813e-06
4.8022e-06
5.29967e-06
6.19929e-06
7.28661e-06
8.78454e-06
9.45046e-06
9.40224e-06
9.17427e-06
8.18322e-06
6.56965e-06
5.55824e-06
5.39355e-06
5.87868e-06
6.30284e-06
6.09513e-06
6.42828e-06
6.82885e-06
6.27204e-06
5.46291e-06
4.82397e-06
4.56351e-06
5.96134e-06
8.57376e-06
1.01638e-05
1.03049e-05
1.02761e-05
1.06233e-05
1.0768e-05
1.08817e-05
1.11841e-05
1.37435e-05
1.31159e-05
1.27106e-05
1.20685e-05
1.04878e-05
8.88861e-06
7.97028e-06
7.6903e-06
7.4303e-06
6.81364e-06
6.62259e-06
7.5462e-06
8.55217e-06
9.75025e-06
1.15173e-05
1.20734e-05
1.19553e-05
1.14413e-05
1.00397e-05
8.0647e-06
6.72228e-06
6.39355e-06
7.05041e-06
7.8383e-06
7.83667e-06
8.17587e-06
8.45552e-06
7.44201e-06
6.25066e-06
5.72781e-06
6.16624e-06
8.28392e-06
1.11773e-05
1.26567e-05
1.24729e-05
1.24506e-05
1.28878e-05
1.2875e-05
1.30087e-05
1.34795e-05
1.68206e-05
1.57608e-05
1.54688e-05
1.49836e-05
1.30911e-05
1.10267e-05
9.6789e-06
9.26763e-06
9.124e-06
8.83123e-06
9.09512e-06
1.01723e-05
1.09896e-05
1.21696e-05
1.40111e-05
1.46593e-05
1.45137e-05
1.37617e-05
1.22425e-05
1.01147e-05
8.72092e-06
8.36257e-06
9.1225e-06
1.00066e-05
1.00369e-05
1.03503e-05
1.05148e-05
9.03677e-06
7.59844e-06
7.60842e-06
8.88758e-06
1.1409e-05
1.4174e-05
1.52484e-05
1.46228e-05
1.47722e-05
1.54962e-05
1.56111e-05
1.59596e-05
1.67284e-05
2.0427e-05
1.89863e-05
1.87699e-05
1.82266e-05
1.59903e-05
1.35684e-05
1.18873e-05
1.14835e-05
1.13903e-05
1.11677e-05
1.16177e-05
1.27847e-05
1.36132e-05
1.49581e-05
1.68754e-05
1.78387e-05
1.76128e-05
1.66844e-05
1.51488e-05
1.30766e-05
1.1638e-05
1.09366e-05
1.14961e-05
1.23377e-05
1.25083e-05
1.28219e-05
1.30023e-05
1.11308e-05
9.4438e-06
9.43595e-06
1.0871e-05
1.33214e-05
1.59631e-05
1.697e-05
1.64484e-05
1.71096e-05
1.85615e-05
1.89919e-05
1.96035e-05
2.05044e-05
2.43462e-05
2.24616e-05
2.21672e-05
2.13781e-05
1.87363e-05
1.59698e-05
1.4265e-05
1.38823e-05
1.35787e-05
1.3259e-05
1.39437e-05
1.54832e-05
1.62602e-05
1.76691e-05
1.942e-05
2.06028e-05
2.03921e-05
1.95378e-05
1.8053e-05
1.57531e-05
1.40119e-05
1.31302e-05
1.36684e-05
1.44847e-05
1.46466e-05
1.47851e-05
1.51743e-05
1.31748e-05
1.1132e-05
1.09621e-05
1.23532e-05
1.47267e-05
1.74272e-05
1.86547e-05
1.87237e-05
2.01809e-05
2.25396e-05
2.33382e-05
2.3951e-05
2.45955e-05
2.76103e-05
2.54468e-05
2.47978e-05
2.36615e-05
2.06864e-05
1.76452e-05
1.59892e-05
1.5449e-05
1.48981e-05
1.46243e-05
1.5734e-05
1.77565e-05
1.83678e-05
1.97234e-05
2.12625e-05
2.26849e-05
2.24882e-05
2.18365e-05
2.01034e-05
1.74042e-05
1.55232e-05
1.47466e-05
1.51328e-05
1.59942e-05
1.62346e-05
1.64537e-05
1.75286e-05
1.56874e-05
1.34371e-05
1.32146e-05
1.45268e-05
1.67367e-05
1.94254e-05
2.06562e-05
2.10994e-05
2.32933e-05
2.67535e-05
2.75775e-05
2.77832e-05
2.79938e-05
2.98699e-05
2.76196e-05
2.66088e-05
2.50742e-05
2.18087e-05
1.85334e-05
1.67511e-05
1.60843e-05
1.56562e-05
1.56353e-05
1.7219e-05
1.9791e-05
2.02745e-05
2.14028e-05
2.26765e-05
2.39896e-05
2.37119e-05
2.33742e-05
2.12141e-05
1.81873e-05
1.64783e-05
1.59173e-05
1.59191e-05
1.67005e-05
1.72321e-05
1.79448e-05
1.99611e-05
1.80595e-05
1.57386e-05
1.57057e-05
1.6887e-05
1.87618e-05
2.1337e-05
2.26018e-05
2.30477e-05
2.5599e-05
2.95092e-05
3.0241e-05
3.00507e-05
3.01074e-05
3.17688e-05
2.963e-05
2.84068e-05
2.63915e-05
2.25381e-05
1.89276e-05
1.69978e-05
1.64384e-05
1.62646e-05
1.63912e-05
1.81047e-05
2.1203e-05
2.15234e-05
2.26463e-05
2.36044e-05
2.47041e-05
2.43235e-05
2.41887e-05
2.19389e-05
1.89971e-05
1.75199e-05
1.71196e-05
1.65596e-05
1.71622e-05
1.77729e-05
1.88728e-05
2.14967e-05
1.9571e-05
1.75202e-05
1.80974e-05
1.93912e-05
2.11812e-05
2.37438e-05
2.49441e-05
2.50933e-05
2.75022e-05
3.08499e-05
3.14616e-05
3.14621e-05
3.1827e-05
3.38028e-05
3.1779e-05
3.05499e-05
2.79895e-05
2.33795e-05
1.93952e-05
1.72803e-05
1.68906e-05
1.68366e-05
1.6995e-05
1.85005e-05
2.20481e-05
2.20023e-05
2.30552e-05
2.37599e-05
2.48175e-05
2.44363e-05
2.42036e-05
2.22356e-05
1.94818e-05
1.8348e-05
1.82331e-05
1.72259e-05
1.77333e-05
1.81799e-05
1.93014e-05
2.22312e-05
2.06746e-05
1.91152e-05
2.0671e-05
2.21513e-05
2.40623e-05
2.6608e-05
2.75627e-05
2.71019e-05
2.89911e-05
3.16638e-05
3.22115e-05
3.27739e-05
3.3681e-05
3.55804e-05
3.36198e-05
3.24496e-05
2.95734e-05
2.43419e-05
1.99646e-05
1.78826e-05
1.75008e-05
1.74444e-05
1.7423e-05
1.87392e-05
2.24124e-05
2.21191e-05
2.30762e-05
2.36018e-05
2.47668e-05
2.44581e-05
2.42385e-05
2.23731e-05
1.97461e-05
1.90054e-05
1.93734e-05
1.7738e-05
1.82526e-05
1.8848e-05
1.97064e-05
2.27789e-05
2.16541e-05
2.02397e-05
2.29313e-05
2.43914e-05
2.63707e-05
2.86865e-05
2.93981e-05
2.84759e-05
3.00849e-05
3.23051e-05
3.25841e-05
3.38541e-05
3.53345e-05
3.68485e-05
3.49383e-05
3.36383e-05
3.0519e-05
2.49182e-05
2.05459e-05
1.85327e-05
1.81174e-05
1.79924e-05
1.7693e-05
1.89775e-05
2.22727e-05
2.19392e-05
2.29843e-05
2.34991e-05
2.47343e-05
2.444e-05
2.43189e-05
2.25268e-05
2.00691e-05
1.94092e-05
1.99698e-05
1.79676e-05
1.85625e-05
1.92821e-05
2.01949e-05
2.32015e-05
2.22622e-05
2.08626e-05
2.42227e-05
2.56793e-05
2.76934e-05
2.97019e-05
3.02021e-05
2.90706e-05
3.07907e-05
3.28227e-05
3.27804e-05
3.45084e-05
3.64899e-05
3.74308e-05
3.56296e-05
3.4176e-05
3.08993e-05
2.51594e-05
2.09829e-05
1.90232e-05
1.85808e-05
1.83882e-05
1.79261e-05
1.92384e-05
2.2049e-05
2.17853e-05
2.27179e-05
2.32056e-05
2.43527e-05
2.41872e-05
2.42493e-05
2.25931e-05
2.02103e-05
1.96859e-05
2.00729e-05
1.80177e-05
1.85802e-05
1.93472e-05
2.02203e-05
2.30432e-05
2.23781e-05
2.0937e-05
2.47958e-05
2.63041e-05
2.84331e-05
3.01381e-05
3.04295e-05
2.90004e-05
3.10135e-05
3.32466e-05
3.2826e-05
3.48165e-05
3.70707e-05
3.7335e-05
3.56953e-05
3.41874e-05
3.08759e-05
2.51374e-05
2.10672e-05
1.92535e-05
1.88057e-05
1.85062e-05
1.7953e-05
1.91856e-05
2.15771e-05
2.15908e-05
2.24439e-05
2.28832e-05
2.39945e-05
2.39018e-05
2.41313e-05
2.24986e-05
2.01552e-05
1.945e-05
1.99359e-05
1.78563e-05
1.83722e-05
1.90933e-05
1.9905e-05
2.26257e-05
2.23187e-05
2.05676e-05
2.46752e-05
2.64196e-05
2.85815e-05
3.00862e-05
3.02037e-05
2.85707e-05
3.07781e-05
3.31372e-05
3.27285e-05
3.47177e-05
3.69292e-05
3.68517e-05
3.53981e-05
3.38549e-05
3.05179e-05
2.48328e-05
2.09195e-05
1.92111e-05
1.87826e-05
1.84114e-05
1.78856e-05
1.90285e-05
2.12374e-05
2.1309e-05
2.21252e-05
2.25564e-05
2.36191e-05
2.36572e-05
2.38903e-05
2.22922e-05
1.98875e-05
1.91491e-05
1.9572e-05
1.75885e-05
1.80708e-05
1.87667e-05
1.95559e-05
2.21513e-05
2.20129e-05
2.01571e-05
2.41184e-05
2.61284e-05
2.82696e-05
2.97015e-05
2.97447e-05
2.80944e-05
3.0358e-05
3.26617e-05
3.2191e-05
3.41452e-05
3.63164e-05
3.64659e-05
3.5074e-05
3.35165e-05
3.02034e-05
2.45794e-05
2.07614e-05
1.91137e-05
1.86605e-05
1.82935e-05
1.77617e-05
1.88281e-05
2.09679e-05
2.10203e-05
2.18437e-05
2.23223e-05
2.33894e-05
2.34668e-05
2.36429e-05
2.20451e-05
1.96335e-05
1.88325e-05
1.9244e-05
1.73697e-05
1.78455e-05
1.85203e-05
1.93054e-05
2.18266e-05
2.16766e-05
1.98711e-05
2.36951e-05
2.57562e-05
2.78522e-05
2.92879e-05
2.93072e-05
2.76981e-05
2.99023e-05
3.22042e-05
3.16904e-05
3.36362e-05
3.58666e-05
3.62782e-05
3.48831e-05
3.3327e-05
3.0016e-05
2.44385e-05
2.06644e-05
1.90377e-05
1.85663e-05
1.81808e-05
1.76613e-05
1.87129e-05
2.08388e-05
2.09012e-05
2.17251e-05
2.22088e-05
2.32453e-05
2.32987e-05
2.3447e-05
2.18586e-05
1.9457e-05
1.8677e-05
1.90858e-05
1.7243e-05
1.77159e-05
1.83921e-05
1.91753e-05
2.16716e-05
2.1512e-05
1.97543e-05
2.352e-05
2.55982e-05
2.76779e-05
2.91075e-05
2.91119e-05
2.75214e-05
2.97142e-05
3.20193e-05
3.1501e-05
3.34371e-05
3.56938e-05
2.40155e-07
2.59005e-07
3.07993e-07
2.98793e-07
2.25798e-07
2.53149e-07
3.44972e-07
2.87448e-07
2.22226e-07
2.97599e-07
3.19119e-07
2.79015e-07
2.68356e-07
3.22587e-07
3.34126e-07
2.77169e-07
2.96919e-07
3.16491e-07
3.03297e-07
3.06134e-07
3.04621e-07
3.07774e-07
3.4979e-07
3.70054e-07
3.28466e-07
3.41425e-07
3.66216e-07
3.34613e-07
2.89853e-07
2.73161e-07
2.97038e-07
2.90405e-07
2.72167e-07
2.62913e-07
2.91279e-07
3.14664e-07
2.47121e-07
2.58085e-07
3.09327e-07
2.69974e-07
2.33401e-07
2.98303e-07
3.27455e-07
3.01103e-07
2.53312e-07
2.67452e-07
3.29729e-07
2.92689e-07
2.30068e-07
3.0197e-07
3.16661e-07
2.63344e-07
3.06073e-07
3.51879e-07
3.12925e-07
2.9211e-07
3.27432e-07
2.98444e-07
2.90451e-07
3.3433e-07
2.96144e-07
3.01995e-07
3.49222e-07
3.60229e-07
3.60396e-07
3.21929e-07
3.60347e-07
3.88635e-07
3.15995e-07
2.75574e-07
3.09044e-07
3.41808e-07
2.9038e-07
2.54301e-07
3.17107e-07
3.38679e-07
2.38577e-07
2.44218e-07
3.35222e-07
2.70002e-07
2.20004e-07
3.29495e-07
3.32169e-07
2.96826e-07
2.88289e-07
3.00847e-07
3.20183e-07
2.89476e-07
2.66842e-07
3.18447e-07
2.93804e-07
2.59104e-07
3.56522e-07
3.83628e-07
3.02834e-07
3.20217e-07
3.71468e-07
3.08083e-07
2.98815e-07
3.52341e-07
3.02233e-07
3.08427e-07
3.40252e-07
3.6324e-07
3.88662e-07
3.16958e-07
3.63914e-07
4.17312e-07
3.38369e-07
2.71439e-07
3.27816e-07
4.05713e-07
2.92696e-07
2.55574e-07
3.68758e-07
3.53633e-07
2.23198e-07
2.41323e-07
3.41978e-07
2.45504e-07
2.29039e-07
3.51674e-07
3.29199e-07
3.04578e-07
3.31706e-07
3.44314e-07
3.08424e-07
2.84555e-07
3.17161e-07
3.25758e-07
2.60626e-07
2.70191e-07
4.08055e-07
3.99497e-07
2.93102e-07
3.54431e-07
4.11876e-07
3.29835e-07
3.09102e-07
3.58327e-07
3.29625e-07
3.17472e-07
3.42339e-07
3.94783e-07
4.0269e-07
3.27457e-07
3.74742e-07
4.18141e-07
3.41077e-07
2.60863e-07
3.58851e-07
4.45202e-07
2.67818e-07
2.85926e-07
4.31708e-07
3.49066e-07
2.18706e-07
2.53724e-07
3.18384e-07
2.10856e-07
2.67189e-07
3.70058e-07
3.52207e-07
3.42513e-07
3.85995e-07
3.978e-07
3.09997e-07
2.94514e-07
3.69872e-07
3.3358e-07
2.43886e-07
3.05085e-07
4.58283e-07
4.01584e-07
2.95625e-07
4.01263e-07
4.4707e-07
3.5071e-07
3.15996e-07
3.72225e-07
3.71666e-07
3.32531e-07
3.74594e-07
4.38869e-07
4.08818e-07
3.6124e-07
4.02263e-07
4.13885e-07
3.37927e-07
2.74587e-07
4.01385e-07
4.36657e-07
2.39302e-07
3.56066e-07
4.92074e-07
3.34616e-07
2.36048e-07
2.69525e-07
2.75336e-07
2.03196e-07
3.24717e-07
4.02847e-07
4.11486e-07
4.08442e-07
4.56174e-07
4.68712e-07
3.37244e-07
3.2525e-07
4.22138e-07
3.49881e-07
2.63732e-07
3.76125e-07
5.11549e-07
4.0599e-07
3.34565e-07
4.73256e-07
4.81638e-07
3.71738e-07
3.42281e-07
4.10207e-07
4.15134e-07
3.62404e-07
4.32909e-07
4.87342e-07
4.31829e-07
4.25798e-07
4.61311e-07
4.3041e-07
3.56515e-07
3.29125e-07
4.38854e-07
3.96146e-07
2.46659e-07
4.70333e-07
5.53081e-07
3.35665e-07
2.80882e-07
2.8451e-07
2.4214e-07
2.34532e-07
3.95159e-07
4.75997e-07
5.2385e-07
5.16266e-07
5.55542e-07
5.69884e-07
4.01186e-07
3.84347e-07
4.86164e-07
3.92468e-07
3.37294e-07
4.78643e-07
5.69871e-07
4.38536e-07
4.19623e-07
5.70392e-07
5.25607e-07
4.13262e-07
4.10571e-07
4.75495e-07
4.6247e-07
4.17005e-07
5.05587e-07
5.47831e-07
4.91824e-07
5.25352e-07
5.50581e-07
4.79691e-07
4.23282e-07
4.22662e-07
4.68389e-07
3.65521e-07
3.23209e-07
6.30502e-07
6.35632e-07
3.79318e-07
3.50164e-07
3.11643e-07
2.51285e-07
2.94062e-07
5.17324e-07
6.26848e-07
7.09965e-07
6.95972e-07
7.24153e-07
7.25975e-07
5.2094e-07
5.03323e-07
5.87567e-07
4.83934e-07
4.84603e-07
6.24478e-07
6.55414e-07
5.23196e-07
5.56521e-07
6.94301e-07
5.98774e-07
5.09657e-07
5.42527e-07
5.71845e-07
5.21633e-07
4.99866e-07
6.1595e-07
6.50991e-07
5.93265e-07
6.57255e-07
6.85772e-07
5.94831e-07
5.54132e-07
5.47013e-07
5.20665e-07
4.04062e-07
5.00214e-07
8.52768e-07
7.61582e-07
4.8214e-07
4.57923e-07
3.81676e-07
3.12947e-07
3.87014e-07
7.29612e-07
8.88435e-07
1.01152e-06
1.00252e-06
1.01305e-06
9.65274e-07
7.19926e-07
7.05934e-07
7.54885e-07
6.59098e-07
7.2265e-07
8.3169e-07
8.05295e-07
6.81469e-07
7.38298e-07
8.51569e-07
7.42409e-07
6.99018e-07
7.50601e-07
7.0899e-07
6.20055e-07
6.2646e-07
7.66873e-07
8.0542e-07
7.45915e-07
8.3389e-07
8.8587e-07
8.02887e-07
7.57182e-07
7.19993e-07
6.47435e-07
5.70413e-07
8.15402e-07
1.17574e-06
9.87214e-07
6.87449e-07
6.45204e-07
5.3657e-07
4.49567e-07
5.40227e-07
1.06335e-06
1.29504e-06
1.49417e-06
1.50803e-06
1.48033e-06
1.33328e-06
1.05264e-06
1.03673e-06
1.01531e-06
9.29081e-07
1.05448e-06
1.1121e-06
1.04312e-06
9.15085e-07
9.64283e-07
1.06023e-06
9.80038e-07
9.99085e-07
1.04761e-06
9.19922e-07
8.0329e-07
8.62284e-07
1.0463e-06
1.07741e-06
1.0026e-06
1.12747e-06
1.24967e-06
1.16184e-06
1.0619e-06
9.88277e-07
9.16348e-07
9.33391e-07
1.29836e-06
1.61018e-06
1.32424e-06
1.011e-06
9.43959e-07
8.04096e-07
6.77147e-07
7.7979e-07
1.53304e-06
1.86974e-06
2.16661e-06
2.21503e-06
2.10975e-06
1.81551e-06
1.47845e-06
1.44768e-06
1.35714e-06
1.28413e-06
1.43997e-06
1.44654e-06
1.36518e-06
1.22989e-06
1.2345e-06
1.33404e-06
1.34209e-06
1.42543e-06
1.4438e-06
1.24901e-06
1.12317e-06
1.22774e-06
1.45326e-06
1.45706e-06
1.36586e-06
1.57904e-06
1.81503e-06
1.69992e-06
1.51734e-06
1.42869e-06
1.40126e-06
1.52689e-06
1.96865e-06
2.20112e-06
1.81601e-06
1.45526e-06
1.3515e-06
1.16648e-06
9.95996e-07
1.12901e-06
2.10825e-06
2.5562e-06
2.97797e-06
3.08763e-06
2.87694e-06
2.41724e-06
1.99511e-06
1.9152e-06
1.75835e-06
1.70406e-06
1.8725e-06
1.8199e-06
1.69075e-06
1.55664e-06
1.56699e-06
1.72038e-06
1.83648e-06
1.99475e-06
2.01233e-06
1.7377e-06
1.59805e-06
1.73088e-06
1.95941e-06
1.89544e-06
1.77363e-06
2.13464e-06
2.50637e-06
2.35015e-06
2.11088e-06
2.06605e-06
2.1294e-06
2.35286e-06
2.79206e-06
2.90289e-06
2.35281e-06
1.97651e-06
1.90882e-06
1.68335e-06
1.42977e-06
1.57997e-06
2.71779e-06
3.26635e-06
3.86041e-06
4.0675e-06
3.73603e-06
3.08611e-06
2.58893e-06
2.44322e-06
2.24876e-06
2.20629e-06
2.35635e-06
2.26415e-06
2.11032e-06
1.93153e-06
1.8882e-06
2.14441e-06
2.48589e-06
2.81142e-06
2.82295e-06
2.47598e-06
2.27016e-06
2.35519e-06
2.49515e-06
2.33578e-06
2.26105e-06
2.82123e-06
3.29801e-06
3.09766e-06
2.82949e-06
2.82154e-06
2.92176e-06
3.17029e-06
3.56797e-06
3.50499e-06
2.81002e-06
2.49156e-06
2.4705e-06
2.20657e-06
1.86066e-06
2.06458e-06
3.47077e-06
4.10205e-06
4.80974e-06
4.97604e-06
4.4922e-06
3.76302e-06
3.25635e-06
3.14537e-06
2.89321e-06
2.72686e-06
2.76834e-06
2.66671e-06
2.55215e-06
2.39701e-06
2.39725e-06
2.83479e-06
3.3062e-06
3.51716e-06
3.47099e-06
3.14415e-06
2.92791e-06
3.03987e-06
3.23032e-06
3.04135e-06
2.96948e-06
3.64171e-06
4.22727e-06
3.94159e-06
3.61115e-06
3.59523e-06
3.65656e-06
3.87537e-06
4.19132e-06
4.0275e-06
3.3156e-06
3.09149e-06
3.12796e-06
2.8384e-06
2.45405e-06
2.71937e-06
4.57677e-06
5.20998e-06
5.94684e-06
5.98387e-06
5.36732e-06
4.62844e-06
4.13562e-06
4.02898e-06
3.72011e-06
3.47244e-06
3.5271e-06
3.5059e-06
3.38441e-06
3.13524e-06
3.14982e-06
3.65975e-06
4.06644e-06
4.1481e-06
4.18438e-06
4.08971e-06
3.97942e-06
4.10089e-06
4.11289e-06
3.73324e-06
3.5969e-06
4.35692e-06
5.00759e-06
4.63963e-06
4.27842e-06
4.29384e-06
4.38326e-06
4.68985e-06
5.10663e-06
4.94159e-06
4.20908e-06
3.98145e-06
4.07688e-06
3.77339e-06
3.44755e-06
3.78485e-06
5.61776e-06
6.2801e-06
7.1286e-06
7.23909e-06
6.74423e-06
6.08026e-06
5.4283e-06
5.11026e-06
4.7476e-06
4.46268e-06
4.4413e-06
4.38742e-06
4.17394e-06
3.85767e-06
3.96544e-06
4.54049e-06
4.96285e-06
5.10491e-06
5.27544e-06
5.2004e-06
5.05184e-06
5.04834e-06
4.85982e-06
4.39671e-06
4.23842e-06
5.09606e-06
5.87049e-06
5.54352e-06
5.21313e-06
5.24341e-06
5.35542e-06
5.78101e-06
6.25704e-06
6.03236e-06
5.27218e-06
5.15235e-06
5.38092e-06
5.01997e-06
4.62993e-06
4.91087e-06
6.79787e-06
7.40778e-06
8.37814e-06
8.5626e-06
8.15708e-06
7.44425e-06
6.63365e-06
6.16696e-06
5.69372e-06
5.40624e-06
5.42977e-06
5.42198e-06
5.11034e-06
4.79433e-06
5.07869e-06
5.73141e-06
6.18638e-06
6.3815e-06
6.56054e-06
6.42302e-06
6.12258e-06
6.01062e-06
5.85175e-06
5.56524e-06
5.38416e-06
6.25818e-06
7.1738e-06
6.81261e-06
6.4535e-06
6.40861e-06
6.51889e-06
7.02556e-06
7.44819e-06
7.13993e-06
6.43379e-06
6.46846e-06
6.82412e-06
6.41834e-06
5.99088e-06
6.17815e-06
8.33439e-06
8.88636e-06
9.94393e-06
1.01966e-05
9.90377e-06
9.08671e-06
8.24781e-06
7.68756e-06
6.97477e-06
6.48651e-06
6.48941e-06
6.54984e-06
6.17714e-06
5.94536e-06
6.36629e-06
7.11297e-06
7.6874e-06
7.91943e-06
8.11826e-06
7.90413e-06
7.52808e-06
7.36639e-06
7.30975e-06
7.22798e-06
6.94426e-06
7.68753e-06
8.71335e-06
8.25382e-06
7.87264e-06
7.83388e-06
7.99992e-06
8.59527e-06
8.87315e-06
8.65772e-06
7.99317e-06
7.9455e-06
8.33515e-06
8.00486e-06
7.64906e-06
7.77259e-06
1.0293e-05
1.06867e-05
1.17367e-05
1.20282e-05
1.17434e-05
1.06959e-05
9.95301e-06
9.41895e-06
8.44198e-06
7.72233e-06
7.59774e-06
7.61419e-06
7.17109e-06
7.16013e-06
7.81423e-06
8.67082e-06
9.2416e-06
9.4083e-06
9.46886e-06
9.20252e-06
8.88209e-06
8.84285e-06
8.98478e-06
9.07197e-06
8.67883e-06
9.27457e-06
1.04017e-05
9.60751e-06
9.24036e-06
9.41936e-06
9.87372e-06
1.05952e-05
1.08079e-05
1.07303e-05
9.9357e-06
9.72316e-06
1.01028e-05
9.71531e-06
9.43433e-06
9.68436e-06
1.23238e-05
1.24589e-05
1.34611e-05
1.37308e-05
1.35702e-05
1.22964e-05
1.16446e-05
1.09393e-05
9.61978e-06
8.67314e-06
8.42399e-06
8.48621e-06
8.14451e-06
8.44917e-06
9.38457e-06
1.0198e-05
1.05142e-05
1.06074e-05
1.07431e-05
1.05858e-05
1.03826e-05
1.04099e-05
1.0425e-05
1.05277e-05
1.01541e-05
1.07826e-05
1.21024e-05
1.10751e-05
1.0686e-05
1.09176e-05
1.15461e-05
1.23648e-05
1.26229e-05
1.26941e-05
1.17606e-05
1.14389e-05
1.18167e-05
1.13885e-05
1.13017e-05
1.17723e-05
1.44261e-05
1.42469e-05
1.5142e-05
1.55929e-05
1.56523e-05
1.42273e-05
1.37343e-05
1.27597e-05
1.11265e-05
9.84559e-06
9.33887e-06
9.36986e-06
8.97708e-06
9.37004e-06
1.05954e-05
1.14888e-05
1.16687e-05
1.18552e-05
1.22591e-05
1.23546e-05
1.22892e-05
1.23732e-05
1.22158e-05
1.23464e-05
1.1948e-05
1.26943e-05
1.435e-05
1.30519e-05
1.23998e-05
1.25577e-05
1.34262e-05
1.44615e-05
1.48806e-05
1.50425e-05
1.39271e-05
1.34331e-05
1.37186e-05
1.3398e-05
1.34784e-05
1.40537e-05
1.6485e-05
1.58746e-05
1.67029e-05
1.75327e-05
1.74405e-05
1.61587e-05
1.5892e-05
1.4757e-05
1.28601e-05
1.11824e-05
1.05007e-05
1.03422e-05
9.69e-06
9.98929e-06
1.14811e-05
1.25686e-05
1.28225e-05
1.31839e-05
1.38034e-05
1.41179e-05
1.43083e-05
1.46042e-05
1.44913e-05
1.47684e-05
1.43868e-05
1.54621e-05
1.74662e-05
1.58572e-05
1.47467e-05
1.48251e-05
1.59199e-05
1.71828e-05
1.76629e-05
1.77833e-05
1.64494e-05
1.57311e-05
1.59374e-05
1.5675e-05
1.58263e-05
1.64651e-05
1.84744e-05
1.74407e-05
1.8251e-05
1.9502e-05
1.89798e-05
1.79909e-05
1.79375e-05
1.66994e-05
1.45792e-05
1.26422e-05
1.18744e-05
1.15395e-05
1.07415e-05
1.08701e-05
1.23872e-05
1.36072e-05
1.40515e-05
1.4668e-05
1.55418e-05
1.58736e-05
1.61966e-05
1.66704e-05
1.65501e-05
1.70389e-05
1.67283e-05
1.82911e-05
2.06118e-05
1.8672e-05
1.71778e-05
1.72417e-05
1.84994e-05
1.98845e-05
2.03721e-05
2.04095e-05
1.89517e-05
1.82089e-05
1.86683e-05
1.8259e-05
1.84901e-05
1.90185e-05
2.00732e-05
1.88765e-05
1.96809e-05
2.13375e-05
2.03108e-05
1.96056e-05
1.97934e-05
1.86007e-05
1.63824e-05
1.41581e-05
1.32569e-05
1.28093e-05
1.1891e-05
1.19443e-05
1.33977e-05
1.47581e-05
1.5547e-05
1.6561e-05
1.76517e-05
1.75445e-05
1.79306e-05
1.83341e-05
1.8173e-05
1.88966e-05
1.85527e-05
2.06407e-05
2.30662e-05
2.08783e-05
1.91859e-05
1.92397e-05
2.05259e-05
2.1945e-05
2.25758e-05
2.27488e-05
2.12589e-05
2.0561e-05
2.1325e-05
2.07968e-05
2.10785e-05
2.13601e-05
2.14384e-05
2.00465e-05
2.07213e-05
2.25457e-05
2.12764e-05
2.07955e-05
2.11801e-05
2.00869e-05
1.78323e-05
1.53485e-05
1.43391e-05
1.39204e-05
1.29206e-05
1.29923e-05
1.44702e-05
1.59995e-05
1.70515e-05
1.82194e-05
1.94921e-05
1.88579e-05
1.92862e-05
1.98862e-05
1.92621e-05
2.03255e-05
1.97052e-05
2.23117e-05
2.47395e-05
2.2416e-05
2.04976e-05
2.05165e-05
2.17737e-05
2.32473e-05
2.4153e-05
2.46195e-05
2.2895e-05
2.21462e-05
2.32252e-05
2.27036e-05
2.30194e-05
2.32393e-05
2.26665e-05
2.09966e-05
2.14181e-05
2.31147e-05
2.18081e-05
2.15366e-05
2.21745e-05
2.11724e-05
1.88196e-05
1.61755e-05
1.51375e-05
1.46918e-05
1.39028e-05
1.3945e-05
1.54253e-05
1.69862e-05
1.80698e-05
1.89726e-05
2.04861e-05
1.97186e-05
2.03363e-05
2.09553e-05
1.98747e-05
2.10481e-05
2.02917e-05
2.33445e-05
2.57575e-05
2.34338e-05
2.14041e-05
2.12426e-05
2.23603e-05
2.39221e-05
2.50967e-05
2.60408e-05
2.38873e-05
2.31103e-05
2.43385e-05
2.38513e-05
2.42586e-05
2.47096e-05
2.34091e-05
2.15179e-05
2.1998e-05
2.3608e-05
2.23808e-05
2.21586e-05
2.28549e-05
2.18557e-05
1.93472e-05
1.65838e-05
1.54854e-05
1.49945e-05
1.41729e-05
1.4452e-05
1.59451e-05
1.73874e-05
1.8414e-05
1.92224e-05
2.08796e-05
2.02162e-05
2.1004e-05
2.15662e-05
2.01797e-05
2.09683e-05
2.05579e-05
2.37404e-05
2.63608e-05
2.42374e-05
2.20578e-05
2.185e-05
2.2831e-05
2.45273e-05
2.56936e-05
2.70074e-05
2.43732e-05
2.38487e-05
2.50944e-05
2.44324e-05
2.4805e-05
2.54746e-05
2.3814e-05
2.18583e-05
2.22806e-05
2.40662e-05
2.28063e-05
2.2583e-05
2.34371e-05
2.23344e-05
1.96833e-05
1.68895e-05
1.58265e-05
1.53417e-05
1.45538e-05
1.46053e-05
1.61174e-05
1.74622e-05
1.8329e-05
1.94421e-05
2.11288e-05
2.04321e-05
2.12504e-05
2.18031e-05
2.02941e-05
2.07924e-05
2.06696e-05
2.38518e-05
2.69219e-05
2.47959e-05
2.24244e-05
2.2312e-05
2.32363e-05
2.49952e-05
2.60722e-05
2.73853e-05
2.44047e-05
2.42435e-05
2.56306e-05
2.46374e-05
2.49501e-05
2.58062e-05
2.40057e-05
2.21244e-05
2.2462e-05
2.44611e-05
2.33141e-05
2.31064e-05
2.38261e-05
2.25164e-05
1.96501e-05
1.70055e-05
1.60207e-05
1.56019e-05
1.4754e-05
1.46963e-05
1.60882e-05
1.73175e-05
1.80649e-05
1.93709e-05
2.09513e-05
2.04661e-05
2.12175e-05
2.18776e-05
2.02789e-05
2.06574e-05
2.067e-05
2.37992e-05
2.70561e-05
2.50239e-05
2.24475e-05
2.24539e-05
2.34009e-05
2.51157e-05
2.60937e-05
2.73104e-05
2.40916e-05
2.43271e-05
2.58589e-05
2.46274e-05
2.49731e-05
2.58967e-05
2.3859e-05
2.21278e-05
2.2481e-05
2.45502e-05
2.35165e-05
2.32753e-05
2.39483e-05
2.23885e-05
1.94263e-05
1.69082e-05
1.60271e-05
1.56722e-05
1.4761e-05
1.46856e-05
1.60262e-05
1.71287e-05
1.77263e-05
1.90243e-05
2.06298e-05
2.0296e-05
2.10112e-05
2.17564e-05
2.01462e-05
2.04909e-05
2.0579e-05
2.36326e-05