/*--------------------------------*- C++ -*----------------------------------*\
  =========                 |
  \\      /  F ield         | OpenFOAM: The Open Source CFD Toolbox
   \\    /   O peration     | Website:  https://openfoam.org
    \\  /    A nd           | Version:  10
     \\/     M anipulation  |
\*---------------------------------------------------------------------------*/
FoamFile
{
    format      ascii;
    class       volVectorField;
    location    "35";
    object      UMean;
}
// * * * * * * * * * * * * * * * * * * * * * * * * * * * * * * * * * * * * * //

dimensions      [0 1 -1 0 0 0 0];

internalField   nonuniform List<vector> 
25600
(
(1.03272 -7.07867e-07 4.8678e-07)
(1.03272 -2.35815e-07 4.60517e-07)
(1.03272 -8.94684e-07 3.89298e-07)
(1.03272 4.6941e-08 5.56644e-07)
(1.03272 -7.98242e-07 3.51771e-07)
(1.03272 -4.35317e-08 5.57086e-07)
(1.03272 -4.71094e-07 3.84473e-07)
(1.03272 -2.96376e-07 4.94966e-07)
(1.03272 -2.99574e-07 3.81798e-07)
(1.03272 -3.1622e-07 5.10655e-07)
(1.03272 -4.86848e-07 2.83708e-07)
(1.03272 -3.54868e-09 6.0548e-07)
(1.03272 -8.37605e-07 2.01899e-07)
(1.03272 2.15642e-07 6.87891e-07)
(1.03272 -9.93361e-07 1.44256e-07)
(1.03272 5.26857e-08 7.05162e-07)
(1.03272 -6.07678e-07 1.96907e-07)
(1.03272 -6.76902e-07 5.51387e-07)
(1.03272 8.3815e-08 4.01241e-07)
(1.03272 -1.4541e-06 2.89636e-07)
(1.03272 3.67938e-07 6.10891e-07)
(1.03272 -1.34628e-06 1.32786e-07)
(1.03272 -2.41922e-07 6.20687e-07)
(1.03272 -6.50336e-07 1.99381e-07)
(1.03272 -8.45858e-07 4.36168e-07)
(1.03272 -3.81038e-07 3.88858e-07)
(1.03272 -7.46129e-07 2.35622e-07)
(1.03272 -6.44184e-07 4.98702e-07)
(1.03272 -2.15169e-07 2.0798e-07)
(1.03272 -1.0444e-06 4.48552e-07)
(1.03272 2.92218e-08 2.93034e-07)
(1.03272 -1.06779e-06 3.32898e-07)
(1.03272 -1.36672e-07 4.88263e-07)
(1.03272 -6.89077e-07 1.46182e-07)
(1.03272 -4.90577e-07 6.75512e-07)
(1.03272 -2.72438e-07 6.07377e-08)
(1.03272 -6.81014e-07 7.16356e-07)
(1.03272 -2.90619e-07 1.40265e-07)
(1.03272 -5.94173e-07 6.17771e-07)
(1.03272 -5.07574e-07 3.02874e-07)
(1.03272 -3.7587e-07 9.38829e-07)
(1.03272 -1.08955e-07 6.58957e-07)
(1.03272 -4.77223e-07 8.36148e-07)
(1.03272 -5.6075e-09 7.93237e-07)
(1.03272 -3.42508e-07 6.88687e-07)
(1.03272 -8.28839e-08 9.12487e-07)
(1.03272 -1.87196e-07 5.59188e-07)
(1.03272 -1.17798e-07 9.2659e-07)
(1.03272 -1.91114e-07 5.31455e-07)
(1.03272 -1.1077e-07 9.07327e-07)
(1.03272 -2.55602e-07 4.85418e-07)
(1.03272 -3.83292e-08 9.8759e-07)
(1.03272 -4.66452e-07 3.92554e-07)
(1.03272 1.71101e-07 1.11326e-06)
(1.03272 -7.80436e-07 2.87053e-07)
(1.03272 2.619e-07 1.17461e-06)
(1.03272 -7.52267e-07 3.22431e-07)
(1.03272 -1.99598e-07 1.01956e-06)
(1.03272 -2.26794e-07 5.52708e-07)
(1.03272 -9.13136e-07 7.45034e-07)
(1.03272 1.46083e-07 8.12307e-07)
(1.03272 -1.00575e-06 5.45173e-07)
(1.03272 -2.07963e-07 9.18002e-07)
(1.03272 -5.80054e-07 5.52591e-07)
(1.03272 -6.07207e-07 7.99199e-07)
(1.03272 -4.31505e-07 6.99471e-07)
(1.03272 -5.19186e-07 6.38088e-07)
(1.03272 -6.62743e-07 7.69347e-07)
(1.03272 -1.3518e-07 6.38966e-07)
(1.03272 -9.92477e-07 7.09099e-07)
(1.03272 1.16233e-07 7.34452e-07)
(1.03272 -9.83936e-07 5.80233e-07)
(1.03272 -7.2613e-08 9.43362e-07)
(1.03272 -5.63087e-07 3.90578e-07)
(1.03272 -4.8627e-07 1.13199e-06)
(1.03272 -1.36787e-07 3.1537e-07)
(1.03272 -6.31592e-07 1.1644e-06)
(1.03272 -1.66374e-07 3.76277e-07)
(1.03272 -4.16568e-07 1.05904e-06)
(1.03272 -2.76316e-07 5.16878e-07)
(1.03272 -2.82296e-07 1.49705e-06)
(1.03272 -1.66914e-08 1.11266e-06)
(1.03272 -1.66437e-07 1.42262e-06)
(1.03272 -7.18119e-08 1.21851e-06)
(1.03272 6.16818e-08 1.22446e-06)
(1.03272 -1.11775e-07 1.35643e-06)
(1.03272 6.8353e-08 1.00424e-06)
(1.03272 2.76375e-08 1.4127e-06)
(1.03272 -5.25558e-08 9.59904e-07)
(1.03272 3.4917e-08 1.36056e-06)
(1.03272 7.39701e-08 9.62593e-07)
(1.03272 -1.73957e-07 1.38949e-06)
(1.03272 1.28756e-07 8.80936e-07)
(1.03272 -1.37644e-07 1.50225e-06)
(1.03272 -2.31889e-07 7.56803e-07)
(1.03272 1.34246e-07 1.57875e-06)
(1.03272 -5.83868e-07 7.81384e-07)
(1.03272 9.41172e-08 1.45981e-06)
(1.03272 -4.87826e-07 9.93753e-07)
(1.03272 -3.33084e-07 1.25614e-06)
(1.03272 -2.02409e-07 1.2334e-06)
(1.03272 -5.56343e-07 1.08581e-06)
(1.03272 -2.52373e-07 1.34843e-06)
(1.03272 -4.6678e-07 1.07684e-06)
(1.03272 -3.47662e-07 1.24795e-06)
(1.03272 -4.42093e-07 1.19187e-06)
(1.03272 -2.6679e-07 1.13037e-06)
(1.03272 -5.2946e-07 1.21778e-06)
(1.03272 -8.02044e-08 1.16152e-06)
(1.03272 -6.88549e-07 1.15603e-06)
(1.03272 7.28776e-08 1.25576e-06)
(1.03272 -6.48642e-07 1.0531e-06)
(1.03272 -8.86192e-08 1.4507e-06)
(1.03272 -3.03805e-07 9.02049e-07)
(1.03272 -4.14655e-07 1.6198e-06)
(1.03272 2.76378e-08 8.35985e-07)
(1.03272 -5.34436e-07 1.65445e-06)
(1.03272 1.91676e-08 8.77617e-07)
(1.03272 -3.81687e-07 1.57515e-06)
(1.03272 -4.8111e-08 9.99747e-07)
(1.03272 -1.29205e-07 2.09574e-06)
(1.03272 2.85212e-07 1.73824e-06)
(1.03272 1.04475e-07 2.02982e-06)
(1.03272 1.45332e-07 1.82179e-06)
(1.03272 3.7568e-07 1.82437e-06)
(1.03272 1.33023e-07 1.9617e-06)
(1.03272 2.94319e-07 1.56857e-06)
(1.03272 3.67786e-07 2.02456e-06)
(1.03272 1.24788e-07 1.5126e-06)
(1.03272 3.45437e-07 1.92304e-06)
(1.03272 3.90077e-07 1.54465e-06)
(1.03272 -1.13884e-07 1.89129e-06)
(1.03272 6.76741e-07 1.49842e-06)
(1.03272 -3.09059e-07 1.96884e-06)
(1.03272 3.98678e-07 1.41871e-06)
(1.03272 -3.30602e-09 2.03286e-06)
(1.03272 -1.70742e-07 1.46705e-06)
(1.03272 2.90504e-07 1.95787e-06)
(1.03272 -4.76815e-07 1.6497e-06)
(1.03272 1.83759e-07 1.86292e-06)
(1.03272 -3.72025e-07 1.83556e-06)
(1.03272 -8.46194e-08 1.77414e-06)
(1.03272 -1.84731e-07 1.92595e-06)
(1.03272 -2.74881e-07 1.78862e-06)
(1.03272 1.32191e-08 1.82181e-06)
(1.03272 -3.87668e-07 1.87443e-06)
(1.03272 1.30632e-07 1.73475e-06)
(1.03272 -3.84338e-07 1.84513e-06)
(1.03272 1.52267e-07 1.79582e-06)
(1.03272 -3.59286e-07 1.77333e-06)
(1.03272 1.76549e-07 1.88609e-06)
(1.03272 -2.64319e-07 1.69257e-06)
(1.03272 5.50599e-08 2.03968e-06)
(1.03272 -4.81265e-08 1.59124e-06)
(1.03272 -1.28336e-07 2.16791e-06)
(1.03272 1.37985e-07 1.54172e-06)
(1.03272 -2.19075e-07 2.20638e-06)
(1.03272 1.95613e-07 1.56122e-06)
(1.03272 -1.98554e-07 2.15319e-06)
(1.03272 2.7988e-07 1.6559e-06)
(1.03272 2.37418e-07 2.8853e-06)
(1.03272 5.97264e-07 2.52796e-06)
(1.03272 4.5955e-07 2.79852e-06)
(1.03272 4.76152e-07 2.58346e-06)
(1.03272 7.15061e-07 2.55254e-06)
(1.03272 5.07352e-07 2.69356e-06)
(1.03272 6.0094e-07 2.26549e-06)
(1.03272 7.7999e-07 2.74849e-06)
(1.03272 4.15001e-07 2.19496e-06)
(1.03272 7.49852e-07 2.63352e-06)
(1.03272 7.19535e-07 2.25925e-06)
(1.03272 1.79262e-07 2.56797e-06)
(1.03272 1.14057e-06 2.26198e-06)
(1.03272 -1.93608e-07 2.60313e-06)
(1.03272 9.84874e-07 2.24506e-06)
(1.03272 3.15395e-08 2.63904e-06)
(1.03272 3.36104e-07 2.3295e-06)
(1.03272 4.86209e-07 2.60607e-06)
(1.03272 -2.54133e-07 2.4757e-06)
(1.03272 6.36678e-07 2.60532e-06)
(1.03272 -3.34106e-07 2.57746e-06)
(1.03272 3.99904e-07 2.59219e-06)
(1.03272 -3.9835e-08 2.60361e-06)
(1.03272 4.90997e-08 2.63271e-06)
(1.03272 3.50731e-07 2.48294e-06)
(1.03272 -1.71089e-07 2.70247e-06)
(1.03272 5.23764e-07 2.4327e-06)
(1.03272 -1.38916e-07 2.64359e-06)
(1.03272 4.79544e-07 2.54038e-06)
(1.03272 3.21387e-09 2.56952e-06)
(1.03272 4.39067e-07 2.65201e-06)
(1.03272 1.10635e-07 2.49821e-06)
(1.03272 3.95995e-07 2.77728e-06)
(1.03272 1.69348e-07 2.43367e-06)
(1.03272 3.91507e-07 2.86995e-06)
(1.03272 1.89837e-07 2.39496e-06)
(1.03272 3.70159e-07 2.93054e-06)
(1.03272 2.88355e-07 2.39587e-06)
(1.03272 2.74309e-07 2.92278e-06)
(1.03272 5.27319e-07 2.46742e-06)
(1.03272 9.12037e-07 3.77119e-06)
(1.03272 9.81854e-07 3.42742e-06)
(1.03272 1.06864e-06 3.65513e-06)
(1.03272 9.42389e-07 3.47214e-06)
(1.03272 1.27749e-06 3.36852e-06)
(1.03272 9.95294e-07 3.5551e-06)
(1.03272 1.17664e-06 3.06169e-06)
(1.03272 1.23436e-06 3.59682e-06)
(1.03272 9.96591e-07 2.9738e-06)
(1.03272 1.20992e-06 3.47608e-06)
(1.03272 1.255e-06 3.04598e-06)
(1.03272 6.38023e-07 3.38064e-06)
(1.03272 1.68306e-06 3.09105e-06)
(1.03272 1.40147e-07 3.37139e-06)
(1.03272 1.62534e-06 3.15347e-06)
(1.03272 2.00516e-07 3.38173e-06)
(1.03272 1.00587e-06 3.29546e-06)
(1.03272 6.61086e-07 3.38925e-06)
(1.03272 2.86904e-07 3.4278e-06)
(1.03272 9.7623e-07 3.47953e-06)
(1.03272 5.94931e-08 3.469e-06)
(1.03272 8.31497e-07 3.55009e-06)
(1.03272 3.63728e-07 3.43686e-06)
(1.03272 4.69438e-07 3.63307e-06)
(1.03272 8.14039e-07 3.2929e-06)
(1.03272 2.31113e-07 3.68761e-06)
(1.03272 9.90381e-07 3.25467e-06)
(1.03272 2.97735e-07 3.5956e-06)
(1.03272 9.10147e-07 3.37285e-06)
(1.03272 5.36819e-07 3.50623e-06)
(1.03272 8.54838e-07 3.49277e-06)
(1.03272 6.29053e-07 3.4369e-06)
(1.03272 9.2626e-07 3.59856e-06)
(1.03272 5.17677e-07 3.40038e-06)
(1.03272 1.09785e-06 3.66984e-06)
(1.03272 3.55268e-07 3.36968e-06)
(1.03272 1.16431e-06 3.75926e-06)
(1.03272 4.42899e-07 3.34204e-06)
(1.03272 1.02797e-06 3.79264e-06)
(1.03272 7.9856e-07 3.3803e-06)
(1.03272 1.85469e-06 4.78873e-06)
(1.03272 1.46139e-06 4.44594e-06)
(1.03272 1.90405e-06 4.61766e-06)
(1.03272 1.5278e-06 4.47093e-06)
(1.03272 2.03985e-06 4.25956e-06)
(1.03272 1.57866e-06 4.51904e-06)
(1.03272 1.9663e-06 3.92306e-06)
(1.03272 1.72147e-06 4.55566e-06)
(1.03272 1.81643e-06 3.81896e-06)
(1.03272 1.71366e-06 4.44983e-06)
(1.03272 1.97903e-06 3.89197e-06)
(1.03272 1.20713e-06 4.34805e-06)
(1.03272 2.30808e-06 3.9803e-06)
(1.03272 6.17827e-07 4.31061e-06)
(1.03272 2.30639e-06 4.1047e-06)
(1.03272 4.62664e-07 4.2848e-06)
(1.03272 1.80126e-06 4.28846e-06)
(1.03272 8.10116e-07 4.30593e-06)
(1.03272 1.11794e-06 4.42172e-06)
(1.03272 1.20038e-06 4.45409e-06)
(1.03272 8.45102e-07 4.43316e-06)
(1.03272 1.18083e-06 4.60131e-06)
(1.03272 1.11739e-06 4.37024e-06)
(1.03272 9.07209e-07 4.72595e-06)
(1.03272 1.52196e-06 4.20489e-06)
(1.03272 7.31309e-07 4.75709e-06)
(1.03272 1.6591e-06 4.15691e-06)
(1.03272 8.60873e-07 4.64217e-06)
(1.03272 1.55304e-06 4.28644e-06)
(1.03272 1.18262e-06 4.54957e-06)
(1.03272 1.4983e-06 4.42169e-06)
(1.03272 1.25238e-06 4.478e-06)
(1.03272 1.67852e-06 4.53514e-06)
(1.03272 9.95828e-07 4.47974e-06)
(1.03272 1.98465e-06 4.62013e-06)
(1.03272 6.79202e-07 4.47126e-06)
(1.03272 2.12946e-06 4.75186e-06)
(1.03272 7.38397e-07 4.42077e-06)
(1.03272 2.01507e-06 4.81517e-06)
(1.03272 1.16135e-06 4.41843e-06)
(1.03272 3.06104e-06 5.90919e-06)
(1.03272 1.86713e-06 5.56142e-06)
(1.03272 2.99853e-06 5.70684e-06)
(1.03272 2.04255e-06 5.58457e-06)
(1.03272 3.03845e-06 5.29474e-06)
(1.03272 2.07668e-06 5.60489e-06)
(1.03272 3.00345e-06 4.91587e-06)
(1.03272 2.13073e-06 5.62921e-06)
(1.03272 2.9015e-06 4.77434e-06)
(1.03272 2.14953e-06 5.54759e-06)
(1.03272 2.93961e-06 4.84413e-06)
(1.03272 1.75174e-06 5.46299e-06)
(1.03272 3.09699e-06 4.97557e-06)
(1.03272 1.10654e-06 5.4308e-06)
(1.03272 3.09584e-06 5.15841e-06)
(1.03272 7.18654e-07 5.40411e-06)
(1.03272 2.70747e-06 5.39397e-06)
(1.03272 8.60399e-07 5.44368e-06)
(1.03272 2.14583e-06 5.54864e-06)
(1.03272 1.26135e-06 5.63753e-06)
(1.03272 1.93183e-06 5.56262e-06)
(1.03272 1.36322e-06 5.84997e-06)
(1.03272 2.14816e-06 5.47147e-06)
(1.03272 1.2021e-06 5.98658e-06)
(1.03272 2.44778e-06 5.25663e-06)
(1.03272 1.15294e-06 5.96866e-06)
(1.03272 2.54565e-06 5.18516e-06)
(1.03272 1.38907e-06 5.84156e-06)
(1.03272 2.437e-06 5.32049e-06)
(1.03272 1.78822e-06 5.75955e-06)
(1.03272 2.41545e-06 5.46852e-06)
(1.03272 1.83196e-06 5.6836e-06)
(1.03272 2.70084e-06 5.59172e-06)
(1.03272 1.46166e-06 5.6991e-06)
(1.03272 3.10928e-06 5.69691e-06)
(1.03272 1.03572e-06 5.69097e-06)
(1.03272 3.31267e-06 5.85044e-06)
(1.03272 1.03339e-06 5.59279e-06)
(1.03272 3.2421e-06 5.92911e-06)
(1.03272 1.46266e-06 5.54108e-06)
(1.03272 4.32925e-06 7.158e-06)
(1.03272 1.82534e-06 6.92009e-06)
(1.03272 4.1488e-06 6.91057e-06)
(1.03272 2.09505e-06 6.91959e-06)
(1.03272 4.10012e-06 6.45584e-06)
(1.03272 2.12884e-06 6.92573e-06)
(1.03272 4.13507e-06 6.06208e-06)
(1.03272 2.12415e-06 6.96677e-06)
(1.03272 4.10044e-06 5.90347e-06)
(1.03272 2.15824e-06 6.92857e-06)
(1.03272 3.97753e-06 5.97244e-06)
(1.03272 1.84121e-06 6.86111e-06)
(1.03272 3.90289e-06 6.11467e-06)
(1.03271 1.15682e-06 6.83134e-06)
(1.03272 3.86601e-06 6.34455e-06)
(1.03271 5.66778e-07 6.83586e-06)
(1.03272 3.59521e-06 6.65134e-06)
(1.03271 4.84874e-07 6.90995e-06)
(1.03272 3.18902e-06 6.85684e-06)
(1.03272 8.28317e-07 7.13774e-06)
(1.03272 3.07865e-06 6.89378e-06)
(1.03272 1.02805e-06 7.38289e-06)
(1.03272 3.26138e-06 6.76317e-06)
(1.03272 1.03521e-06 7.48599e-06)
(1.03272 3.48256e-06 6.47616e-06)
(1.03272 1.18937e-06 7.40866e-06)
(1.03272 3.55657e-06 6.36648e-06)
(1.03272 1.57111e-06 7.26762e-06)
(1.03272 3.46304e-06 6.47444e-06)
(1.03272 2.05723e-06 7.18255e-06)
(1.03272 3.49002e-06 6.61833e-06)
(1.03272 2.07816e-06 7.11745e-06)
(1.03272 3.8611e-06 6.77139e-06)
(1.03272 1.60096e-06 7.17325e-06)
(1.03272 4.31473e-06 6.93351e-06)
(1.03272 1.0868e-06 7.18631e-06)
(1.03272 4.54218e-06 7.11662e-06)
(1.03272 9.99872e-07 7.04405e-06)
(1.03272 4.51984e-06 7.19141e-06)
(1.03272 1.369e-06 6.93408e-06)
(1.03272 5.39031e-06 8.74491e-06)
(1.03272 8.30471e-07 8.8071e-06)
(1.03272 5.07627e-06 8.44989e-06)
(1.03272 1.16745e-06 8.77307e-06)
(1.03271 4.95911e-06 7.97052e-06)
(1.03272 1.22417e-06 8.77785e-06)
(1.03271 5.05804e-06 7.58162e-06)
(1.03272 1.1492e-06 8.85494e-06)
(1.03271 5.0861e-06 7.41293e-06)
(1.03272 1.18487e-06 8.85194e-06)
(1.03271 4.79538e-06 7.47585e-06)
(1.03271 9.14863e-07 8.82604e-06)
(1.03271 4.47032e-06 7.64482e-06)
(1.03271 2.18358e-07 8.82996e-06)
(1.03271 4.39131e-06 7.9081e-06)
(1.03271 -5.16286e-07 8.87441e-06)
(1.03271 4.22101e-06 8.2724e-06)
(1.03271 -8.06581e-07 8.99411e-06)
(1.03271 3.97371e-06 8.56009e-06)
(1.03271 -5.62643e-07 9.26751e-06)
(1.03271 3.98898e-06 8.67259e-06)
(1.03271 -2.88758e-07 9.54664e-06)
(1.03272 4.19765e-06 8.51052e-06)
(1.03271 -4.96984e-08 9.58743e-06)
(1.03271 4.41983e-06 8.14348e-06)
(1.03272 3.48068e-07 9.42464e-06)
(1.03271 4.49894e-06 7.96496e-06)
(1.03272 8.83965e-07 9.22277e-06)
(1.03271 4.4122e-06 7.98346e-06)
(1.03272 1.4377e-06 9.09343e-06)
(1.03272 4.45774e-06 8.10372e-06)
(1.03272 1.41348e-06 9.06516e-06)
(1.03272 4.85846e-06 8.31858e-06)
(1.03271 8.33001e-07 9.18341e-06)
(1.03272 5.29459e-06 8.53987e-06)
(1.03271 2.49102e-07 9.22289e-06)
(1.03272 5.53385e-06 8.76047e-06)
(1.03271 1.15584e-07 9.06306e-06)
(1.03272 5.59095e-06 8.82095e-06)
(1.03271 4.00471e-07 8.88715e-06)
(1.03271 5.47965e-06 1.10529e-05)
(1.03271 -2.13023e-06 1.16772e-05)
(1.03271 5.05684e-06 1.07004e-05)
(1.03271 -1.77354e-06 1.15712e-05)
(1.03271 4.84055e-06 1.01865e-05)
(1.03271 -1.73046e-06 1.15925e-05)
(1.03271 4.97838e-06 9.89034e-06)
(1.03271 -1.86942e-06 1.1792e-05)
(1.03271 5.0488e-06 9.76974e-06)
(1.03271 -1.85543e-06 1.18287e-05)
(1.03271 4.64435e-06 9.78339e-06)
(1.03271 -2.04157e-06 1.18101e-05)
(1.03271 4.14259e-06 9.96122e-06)
(1.03271 -2.69991e-06 1.18482e-05)
(1.03271 4.00494e-06 1.02198e-05)
(1.03271 -3.5549e-06 1.19362e-05)
(1.03271 3.87551e-06 1.0645e-05)
(1.03271 -4.05261e-06 1.21311e-05)
(1.03271 3.7664e-06 1.10354e-05)
(1.03271 -3.91437e-06 1.24414e-05)
(1.03271 3.90842e-06 1.12239e-05)
(1.03271 -3.59581e-06 1.27377e-05)
(1.03271 4.16418e-06 1.10435e-05)
(1.03271 -3.12807e-06 1.271e-05)
(1.03271 4.41567e-06 1.05882e-05)
(1.03271 -2.50027e-06 1.24541e-05)
(1.03271 4.51316e-06 1.03394e-05)
(1.03271 -1.82507e-06 1.21818e-05)
(1.03271 4.48189e-06 1.02359e-05)
(1.03271 -1.14056e-06 1.1958e-05)
(1.03271 4.60149e-06 1.03038e-05)
(1.03271 -1.17308e-06 1.19848e-05)
(1.03271 4.98438e-06 1.06014e-05)
(1.03271 -1.88368e-06 1.21769e-05)
(1.03271 5.32616e-06 1.08626e-05)
(1.03271 -2.53215e-06 1.22133e-05)
(1.03271 5.55326e-06 1.11085e-05)
(1.03271 -2.68117e-06 1.20707e-05)
(1.03271 5.70569e-06 1.11802e-05)
(1.03271 -2.49484e-06 1.184e-05)
(1.03271 3.36069e-06 1.43761e-05)
(1.03271 -8.52403e-06 1.59371e-05)
(1.03271 2.88678e-06 1.40238e-05)
(1.03271 -8.15231e-06 1.57726e-05)
(1.03271 2.58697e-06 1.3475e-05)
(1.03271 -8.13553e-06 1.58384e-05)
(1.03271 2.73749e-06 1.33753e-05)
(1.03271 -8.35811e-06 1.62574e-05)
(1.03271 2.79872e-06 1.33301e-05)
(1.03271 -8.42425e-06 1.62663e-05)
(1.03271 2.26365e-06 1.32748e-05)
(1.03271 -8.53788e-06 1.63072e-05)
(1.03271 1.63286e-06 1.35148e-05)
(1.03271 -9.16694e-06 1.63955e-05)
(1.03271 1.43159e-06 1.37325e-05)
(1.03271 -1.00953e-05 1.65223e-05)
(1.03271 1.33968e-06 1.42701e-05)
(1.03271 -1.07299e-05 1.68785e-05)
(1.03271 1.3253e-06 1.48009e-05)
(1.03271 -1.07166e-05 1.71932e-05)
(1.03271 1.61368e-06 1.50316e-05)
(1.03271 -1.03233e-05 1.74848e-05)
(1.03271 1.96994e-06 1.48289e-05)
(1.03271 -9.67176e-06 1.73331e-05)
(1.03271 2.21591e-06 1.41967e-05)
(1.03271 -8.88984e-06 1.692e-05)
(1.03271 2.32976e-06 1.38579e-05)
(1.03271 -8.07583e-06 1.65556e-05)
(1.03271 2.40434e-06 1.35758e-05)
(1.03271 -7.19892e-06 1.6173e-05)
(1.03271 2.68452e-06 1.3548e-05)
(1.03271 -7.14406e-06 1.62936e-05)
(1.03271 3.05491e-06 1.39787e-05)
(1.03271 -8.00686e-06 1.65751e-05)
(1.03271 3.22261e-06 1.42631e-05)
(1.03271 -8.74373e-06 1.66183e-05)
(1.03271 3.41192e-06 1.45529e-05)
(1.03271 -8.91863e-06 1.65066e-05)
(1.03271 3.59539e-06 1.46002e-05)
(1.03271 -8.84702e-06 1.617e-05)
(1.03271 -2.97607e-06 1.89022e-05)
(1.03271 -2.06287e-05 2.18223e-05)
(1.03271 -3.44727e-06 1.86412e-05)
(1.03271 -2.02706e-05 2.1619e-05)
(1.03271 -3.81026e-06 1.80422e-05)
(1.03271 -2.02109e-05 2.17663e-05)
(1.03271 -3.58915e-06 1.83032e-05)
(1.03271 -2.04704e-05 2.25921e-05)
(1.03271 -3.53823e-06 1.83874e-05)
(1.03271 -2.06113e-05 2.24647e-05)
(1.03271 -4.16796e-06 1.81475e-05)
(1.03271 -2.06678e-05 2.25638e-05)
(1.0327 -4.91641e-06 1.85644e-05)
(1.0327 -2.12997e-05 2.27071e-05)
(1.03271 -5.21871e-06 1.8626e-05)
(1.0327 -2.2229e-05 2.28326e-05)
(1.03271 -5.26791e-06 1.93775e-05)
(1.0327 -2.29552e-05 2.35356e-05)
(1.03271 -5.26724e-06 2.01161e-05)
(1.03271 -2.30839e-05 2.3772e-05)
(1.03271 -4.80931e-06 2.02641e-05)
(1.03271 -2.25476e-05 2.40549e-05)
(1.03271 -4.2842e-06 2.0102e-05)
(1.03271 -2.17783e-05 2.3765e-05)
(1.03271 -4.0694e-06 1.91734e-05)
(1.03271 -2.09017e-05 2.30504e-05)
(1.03271 -3.88663e-06 1.87393e-05)
(1.03271 -1.9949e-05 2.26374e-05)
(1.03271 -3.72286e-06 1.82399e-05)
(1.03271 -1.88976e-05 2.19422e-05)
(1.03271 -3.32004e-06 1.80009e-05)
(1.03271 -1.87967e-05 2.21806e-05)
(1.03271 -2.99403e-06 1.86651e-05)
(1.03271 -1.98127e-05 2.25924e-05)
(1.03271 -2.99762e-06 1.88821e-05)
(1.03271 -2.05628e-05 2.25773e-05)
(1.03271 -2.78214e-06 1.92764e-05)
(1.03271 -2.07965e-05 2.26283e-05)
(1.03271 -2.73035e-06 1.93278e-05)
(1.03271 -2.09627e-05 2.21057e-05)
(1.03269 -1.56023e-05 2.44592e-05)
(1.03269 -4.06584e-05 2.93595e-05)
(1.03269 -1.60528e-05 2.45732e-05)
(1.03269 -4.04144e-05 2.91976e-05)
(1.03269 -1.65673e-05 2.37891e-05)
(1.03269 -4.03132e-05 2.93808e-05)
(1.03269 -1.61847e-05 2.4629e-05)
(1.03269 -4.05317e-05 3.09218e-05)
(1.03269 -1.61718e-05 2.48554e-05)
(1.03269 -4.08113e-05 3.03794e-05)
(1.03269 -1.68108e-05 2.42854e-05)
(1.03269 -4.07095e-05 3.06201e-05)
(1.03269 -1.75957e-05 2.50878e-05)
(1.03269 -4.13719e-05 3.08057e-05)
(1.03269 -1.81592e-05 2.47619e-05)
(1.03269 -4.24018e-05 3.07515e-05)
(1.03269 -1.82207e-05 2.58578e-05)
(1.03269 -4.32252e-05 3.20441e-05)
(1.03269 -1.82127e-05 2.68205e-05)
(1.03269 -4.34188e-05 3.19598e-05)
(1.03269 -1.75265e-05 2.66824e-05)
(1.03269 -4.26622e-05 3.23022e-05)
(1.03269 -1.68164e-05 2.67627e-05)
(1.03269 -4.19003e-05 3.18801e-05)
(1.03269 -1.67165e-05 2.52993e-05)
(1.03269 -4.09696e-05 3.06652e-05)
(1.03269 -1.63848e-05 2.48443e-05)
(1.03269 -3.97791e-05 3.03938e-05)
(1.03269 -1.59948e-05 2.40633e-05)
(1.03269 -3.84281e-05 2.90876e-05)
(1.03269 -1.54045e-05 2.33821e-05)
(1.03269 -3.82916e-05 2.95453e-05)
(1.03269 -1.52399e-05 2.45293e-05)
(1.03269 -3.95571e-05 3.01359e-05)
(1.03269 -1.53786e-05 2.44467e-05)
(1.03269 -4.01715e-05 2.9896e-05)
(1.03269 -1.50506e-05 2.50685e-05)
(1.03269 -4.04823e-05 3.04015e-05)
(1.03269 -1.52603e-05 2.5225e-05)
(1.03269 -4.10145e-05 2.95237e-05)
(1.03261 -3.67541e-05 3.14519e-05)
(1.03259 -7.08884e-05 3.90858e-05)
(1.03261 -3.71991e-05 3.23183e-05)
(1.03259 -7.06488e-05 3.89625e-05)
(1.03261 -3.77659e-05 3.11092e-05)
(1.03259 -7.03856e-05 3.92069e-05)
(1.03261 -3.71486e-05 3.2932e-05)
(1.03259 -7.05125e-05 4.17745e-05)
(1.03261 -3.72048e-05 3.3102e-05)
(1.03259 -7.09615e-05 4.04277e-05)
(1.03261 -3.7788e-05 3.20681e-05)
(1.03259 -7.05557e-05 4.10743e-05)
(1.03261 -3.8469e-05 3.35121e-05)
(1.03259 -7.12561e-05 4.1083e-05)
(1.03261 -3.9386e-05 3.23828e-05)
(1.03259 -7.25502e-05 4.06957e-05)
(1.03261 -3.95874e-05 3.41077e-05)
(1.03259 -7.34847e-05 4.28256e-05)
(1.03261 -3.96482e-05 3.51216e-05)
(1.03259 -7.37693e-05 4.2016e-05)
(1.03261 -3.88062e-05 3.45243e-05)
(1.0326 -7.28115e-05 4.26305e-05)
(1.03261 -3.7968e-05 3.50725e-05)
(1.03259 -7.2132e-05 4.20015e-05)
(1.03261 -3.80604e-05 3.27207e-05)
(1.0326 -7.12172e-05 4.01615e-05)
(1.03261 -3.76057e-05 3.25206e-05)
(1.0326 -6.97813e-05 4.02231e-05)
(1.03261 -3.68932e-05 3.13136e-05)
(1.03259 -6.80377e-05 3.7858e-05)
(1.03261 -3.607e-05 3.00028e-05)
(1.03259 -6.78765e-05 3.87997e-05)
(1.03261 -3.613e-05 3.20212e-05)
(1.03259 -6.94351e-05 3.95373e-05)
(1.03261 -3.63304e-05 3.13208e-05)
(1.03259 -6.99048e-05 3.90163e-05)
(1.03261 -3.59216e-05 3.24877e-05)
(1.03259 -7.03541e-05 4.03105e-05)
(1.03261 -3.63543e-05 3.26908e-05)
(1.03259 -7.12156e-05 3.87725e-05)
(1.03227 -6.71516e-05 4.1734e-05)
(1.03222 -0.00011204 5.29242e-05)
(1.03227 -6.77003e-05 4.32094e-05)
(1.03222 -0.000111798 5.25016e-05)
(1.03227 -6.81778e-05 4.16573e-05)
(1.03222 -0.000111181 5.34839e-05)
(1.03227 -6.73196e-05 4.49009e-05)
(1.03222 -0.000111192 5.67628e-05)
(1.03227 -6.74678e-05 4.43247e-05)
(1.03222 -0.00011179 5.44994e-05)
(1.03227 -6.79681e-05 4.3347e-05)
(1.03222 -0.000111141 5.59071e-05)
(1.03227 -6.86494e-05 4.51361e-05)
(1.03222 -0.00011212 5.49829e-05)
(1.03227 -7.00565e-05 4.30083e-05)
(1.03222 -0.000113585 5.45877e-05)
(1.03227 -7.03613e-05 4.56134e-05)
(1.03222 -0.000114679 5.71201e-05)
(1.03227 -7.05932e-05 4.60627e-05)
(1.03222 -0.000115018 5.53855e-05)
(1.03227 -6.96635e-05 4.53805e-05)
(1.03222 -0.000113956 5.66117e-05)
(1.03227 -6.88311e-05 4.61845e-05)
(1.03222 -0.000113396 5.52462e-05)
(1.03227 -6.89604e-05 4.28465e-05)
(1.03222 -0.000112431 5.3276e-05)
(1.03227 -6.83726e-05 4.32261e-05)
(1.03222 -0.000110771 5.33628e-05)
(1.03227 -6.71363e-05 4.10261e-05)
(1.03222 -0.000108393 4.98403e-05)
(1.03227 -6.59848e-05 3.95621e-05)
(1.03222 -0.000108297 5.16933e-05)
(1.03227 -6.63346e-05 4.22771e-05)
(1.03222 -0.000109985 5.21251e-05)
(1.03227 -6.65272e-05 4.10532e-05)
(1.03222 -0.000110418 5.19797e-05)
(1.03227 -6.62949e-05 4.32574e-05)
(1.03222 -0.000111308 5.3925e-05)
(1.03227 -6.68435e-05 4.29843e-05)
(1.03221 -0.000112221 5.15552e-05)
(1.03117 -0.000104151 6.32503e-05)
(1.03101 -0.000160662 7.80175e-05)
(1.03117 -0.000105089 6.40225e-05)
(1.03101 -0.000160701 7.71191e-05)
(1.03117 -0.000105163 6.33764e-05)
(1.03101 -0.000159491 8.00896e-05)
(1.03117 -0.00010399 6.75255e-05)
(1.03101 -0.000159447 8.25756e-05)
(1.03117 -0.000104301 6.56089e-05)
(1.03101 -0.000160017 8.04859e-05)
(1.03117 -0.000104518 6.56866e-05)
(1.03101 -0.00015925 8.22244e-05)
(1.03117 -0.000105298 6.62062e-05)
(1.03101 -0.00016056 7.96263e-05)
(1.03117 -0.000106999 6.39164e-05)
(1.03102 -0.000162126 8.00504e-05)
(1.03117 -0.000107695 6.68101e-05)
(1.03101 -0.000163585 8.14503e-05)
(1.03117 -0.000108259 6.63017e-05)
(1.03102 -0.000164082 7.99154e-05)
(1.03118 -0.000107292 6.6734e-05)
(1.03102 -0.000163045 8.14481e-05)
(1.03117 -0.000106922 6.66695e-05)
(1.03101 -0.000162752 7.91062e-05)
(1.03117 -0.000107137 6.35033e-05)
(1.03101 -0.000161896 7.81068e-05)
(1.03117 -0.00010654 6.40976e-05)
(1.03101 -0.000159993 7.68741e-05)
(1.03117 -0.00010435 6.05128e-05)
(1.03101 -0.000156603 7.32525e-05)
(1.03117 -0.000102759 6.00805e-05)
(1.03101 -0.000156484 7.56498e-05)
(1.03117 -0.000103432 6.212e-05)
(1.03101 -0.00015792 7.52812e-05)
(1.03117 -0.000102831 6.16735e-05)
(1.03101 -0.000157982 7.68206e-05)
(1.03117 -0.000103071 6.47361e-05)
(1.03101 -0.000159814 7.81811e-05)
(1.03116 -0.000103997 6.34229e-05)
(1.03101 -0.000160507 7.58706e-05)
(1.02831 -0.000141551 0.000113414)
(1.02792 -0.00021136 0.000130582)
(1.02831 -0.000142894 0.000112618)
(1.02792 -0.0002112 0.000130962)
(1.02832 -0.000142358 0.000114949)
(1.02792 -0.000209585 0.000136052)
(1.02832 -0.000141367 0.000118058)
(1.02793 -0.000209857 0.000137013)
(1.02832 -0.000141746 0.000116357)
(1.02793 -0.000210143 0.000137158)
(1.02832 -0.000141441 0.000117086)
(1.02793 -0.000209668 0.000137146)
(1.02832 -0.000142707 0.00011484)
(1.02793 -0.00021078 0.000133866)
(1.02832 -0.0001439 0.000113712)
(1.02793 -0.000212246 0.000134523)
(1.02832 -0.000145353 0.000114882)
(1.02793 -0.000214572 0.000133956)
(1.02832 -0.000146195 0.000115217)
(1.02793 -0.000215014 0.00013446)
(1.02832 -0.000145086 0.000116579)
(1.02793 -0.000214421 0.00013449)
(1.02832 -0.000145532 0.000115043)
(1.02792 -0.000214149 0.000132829)
(1.02832 -0.000145658 0.000114059)
(1.02792 -0.000213617 0.000132732)
(1.02832 -0.000145919 0.000113035)
(1.02792 -0.000211397 0.000129212)
(1.02831 -0.000142225 0.000109352)
(1.02792 -0.000206702 0.000126857)
(1.02831 -0.000140663 0.0001094)
(1.02791 -0.000206879 0.000127696)
(1.02831 -0.000141964 0.000109772)
(1.02791 -0.000207258 0.000127833)
(1.02831 -0.000139717 0.00011178)
(1.02791 -0.000206846 0.000130713)
(1.02831 -0.000140909 0.000113861)
(1.02791 -0.000209941 0.000130311)
(1.02831 -0.000141669 0.000112703)
(1.02791 -0.000210546 0.000129825)
(1.02214 -0.000173797 0.000223493)
(1.02132 -0.000255755 0.000242954)
(1.02214 -0.00017443 0.000224028)
(1.02133 -0.000253571 0.000247502)
(1.02214 -0.000171689 0.000229173)
(1.02133 -0.000251813 0.000252512)
(1.02215 -0.000171719 0.000230916)
(1.02133 -0.000252292 0.000254822)
(1.02215 -0.000171647 0.000231798)
(1.02133 -0.000251236 0.000256772)
(1.02215 -0.00017064 0.000230346)
(1.02133 -0.000251895 0.00025412)
(1.02215 -0.000172884 0.000227048)
(1.02133 -0.000252848 0.000252136)
(1.02215 -0.000173552 0.000225356)
(1.02133 -0.000255391 0.000250182)
(1.02215 -0.000176457 0.000223928)
(1.02133 -0.000258837 0.000249991)
(1.02215 -0.000177186 0.000227375)
(1.02133 -0.000258718 0.000252018)
(1.02215 -0.000177482 0.000227356)
(1.02133 -0.000260136 0.000250018)
(1.02215 -0.000178067 0.000227068)
(1.02133 -0.00025821 0.000251162)
(1.02214 -0.00017801 0.000227222)
(1.02132 -0.000258975 0.000248995)
(1.02214 -0.000180274 0.000223369)
(1.02132 -0.000255638 0.000245325)
(1.02214 -0.000173253 0.000221143)
(1.02132 -0.000249311 0.000242839)
(1.02213 -0.000172019 0.000218589)
(1.02131 -0.000250888 0.000240828)
(1.02213 -0.000174083 0.000219184)
(1.02131 -0.000248533 0.000243439)
(1.02213 -0.00017012 0.000222695)
(1.02131 -0.000248323 0.000244448)
(1.02213 -0.00017355 0.0002228)
(1.02131 -0.000252295 0.000244106)
(1.02214 -0.000172927 0.000224358)
(1.02132 -0.000253099 0.000244642)
(1.01056 -0.000187525 0.000443274)
(1.00911 -0.000281837 0.000467858)
(1.01056 -0.000186099 0.000452165)
(1.00912 -0.000276116 0.000476681)
(1.01056 -0.000181536 0.000457583)
(1.00912 -0.000276168 0.000479642)
(1.01056 -0.000183224 0.000460024)
(1.00911 -0.000276448 0.000485492)
(1.01056 -0.000182633 0.000462065)
(1.00912 -0.000274801 0.000485072)
(1.01056 -0.000182141 0.000455699)
(1.00912 -0.000276493 0.000482446)
(1.01057 -0.000183691 0.000454599)
(1.00912 -0.000276214 0.000481396)
(1.01057 -0.00018417 0.0004486)
(1.00911 -0.000278943 0.00047577)
(1.01057 -0.000189034 0.000447042)
(1.00911 -0.000282548 0.000479564)
(1.01057 -0.000187881 0.000453341)
(1.00911 -0.000282219 0.000479762)
(1.01057 -0.000190117 0.000450229)
(1.00911 -0.000286802 0.000479788)
(1.01057 -0.000190265 0.000456205)
(1.00911 -0.000283395 0.000483661)
(1.01056 -0.000190566 0.000453544)
(1.00911 -0.000287426 0.000475529)
(1.01056 -0.000194997 0.000448702)
(1.00911 -0.000281851 0.000474208)
(1.01056 -0.000184511 0.00044696)
(1.00911 -0.000274087 0.000467439)
(1.01056 -0.000183509 0.000438926)
(1.0091 -0.000277403 0.000464589)
(1.01056 -0.000184866 0.000442187)
(1.0091 -0.000271971 0.000468474)
(1.01056 -0.00018063 0.000441998)
(1.0091 -0.000272961 0.000465625)
(1.01056 -0.000186787 0.000442443)
(1.0091 -0.000275668 0.000469897)
(1.01056 -0.000183983 0.000446778)
(1.0091 -0.000277599 0.000467953)
(0.991062 -0.000189896 0.000843793)
(0.988784 -0.000290218 0.00087285)
(0.99106 -0.000186155 0.000866904)
(0.988786 -0.000282344 0.000883761)
(0.991053 -0.000178122 0.000863407)
(0.988784 -0.000280479 0.000873586)
(0.991046 -0.000178638 0.000865684)
(0.988775 -0.000282313 0.000881486)
(0.991042 -0.000179846 0.000866156)
(0.988778 -0.000279893 0.000868787)
(0.991051 -0.0001817 0.000850813)
(0.988788 -0.000284811 0.000874396)
(0.991058 -0.000185046 0.000860268)
(0.988791 -0.000284176 0.000874911)
(0.991064 -0.000185949 0.000843382)
(0.988795 -0.000290983 0.000862902)
(0.991074 -0.000192393 0.000848293)
(0.988798 -0.000294933 0.000879936)
(0.991079 -0.000190503 0.000859184)
(0.988801 -0.000296456 0.000870726)
(0.991078 -0.000194461 0.000849403)
(0.988802 -0.000302018 0.000877282)
(0.991074 -0.000195199 0.000869439)
(0.988796 -0.000297576 0.000885447)
(0.991074 -0.000197053 0.000851784)
(0.9888 -0.000305321 0.0008706)
(0.991078 -0.000202653 0.000853278)
(0.988809 -0.000295593 0.000882178)
(0.99108 -0.000188735 0.000852422)
(0.988812 -0.000287537 0.000861006)
(0.991076 -0.000186897 0.000836004)
(0.988803 -0.000292381 0.00086206)
(0.991069 -0.000186494 0.000852008)
(0.98879 -0.000282721 0.000865858)
(0.991061 -0.00018252 0.000842284)
(0.988779 -0.000284118 0.0008576)
(0.991058 -0.000190024 0.000846198)
(0.988778 -0.000283568 0.000874697)
(0.991056 -0.000184562 0.000854086)
(0.988778 -0.00028437 0.000864655)
(0.960801 -0.00020891 0.00147186)
(0.957607 -0.000319286 0.00150325)
(0.960785 -0.000203695 0.00152076)
(0.95759 -0.000310059 0.00150923)
(0.960775 -0.000199675 0.00147472)
(0.957589 -0.000312103 0.00145954)
(0.960768 -0.000197245 0.00147878)
(0.957577 -0.000315518 0.00149139)
(0.960771 -0.000201846 0.00147628)
(0.957595 -0.000312128 0.00143708)
(0.960792 -0.000204838 0.00145648)