/*--------------------------------*- C++ -*----------------------------------*\
  =========                 |
  \\      /  F ield         | OpenFOAM: The Open Source CFD Toolbox
   \\    /   O peration     | Website:  https://openfoam.org
    \\  /    A nd           | Version:  10
     \\/     M anipulation  |
\*---------------------------------------------------------------------------*/
FoamFile
{
    format      ascii;
    class       volSymmTensorField;
    location    "35";
    object      UPrime2Mean;
}
// * * * * * * * * * * * * * * * * * * * * * * * * * * * * * * * * * * * * * //

dimensions      [0 2 -2 0 0 0 0];

internalField   nonuniform List<symmTensor> 
25600
(
(0.000286237 -8.53141e-07 6.92225e-08 6.41004e-07 3.19242e-08 1.02009e-07)
(0.000285919 -1.13742e-06 2.46253e-08 5.2047e-07 2.18756e-08 1.17994e-07)
(0.000285153 -1.22402e-06 6.73827e-08 6.91045e-07 1.20416e-08 9.78299e-08)
(0.000285181 -1.37603e-06 9.10641e-08 6.35863e-07 5.60751e-08 9.44501e-08)
(0.000285056 -1.3651e-06 -5.71595e-08 5.1989e-07 4.68845e-08 9.21194e-08)
(0.000284856 -1.30942e-06 2.07611e-08 6.45219e-07 -7.75569e-09 7.03414e-08)
(0.000284682 -1.4388e-06 -3.99939e-08 5.93755e-07 5.04826e-08 8.11759e-08)
(0.000284585 -1.1684e-06 1.20117e-08 5.53749e-07 1.01308e-08 7.68021e-08)
(0.000285008 -1.36332e-06 3.43566e-08 6.42e-07 2.35819e-08 7.0063e-08)
(0.000284876 -8.58257e-07 1.7779e-08 5.69228e-07 9.3374e-08 9.0626e-08)
(0.000284835 -8.01027e-07 1.69412e-07 5.45166e-07 -6.72078e-09 7.79336e-08)
(0.000284974 -5.38208e-07 2.74034e-07 6.00958e-07 3.9319e-08 7.49008e-08)
(0.000285458 -4.9975e-08 2.72471e-07 5.06725e-07 5.98e-08 9.08917e-08)
(0.000285297 -1.71851e-07 3.25789e-07 6.17149e-07 -1.07325e-08 9.58489e-08)
(0.000284786 2.58242e-07 4.59482e-07 7.59228e-07 3.53536e-08 7.05198e-08)
(0.000285417 -2.00057e-07 3.54176e-07 5.20615e-07 3.27149e-08 7.0475e-08)
(0.000284946 1.00703e-08 3.6838e-07 6.0144e-07 2.82006e-08 8.21622e-08)
(0.000285184 -8.90245e-08 4.01696e-07 7.38903e-07 6.56355e-08 6.50195e-08)
(0.000285766 -3.57508e-07 3.76108e-07 4.86418e-07 2.34339e-08 8.19276e-08)
(0.000285831 -3.51913e-07 3.10288e-07 6.38402e-07 -1.08047e-08 8.06991e-08)
(0.000285854 -9.42863e-07 3.75772e-07 5.64967e-07 3.30134e-08 7.56469e-08)
(0.00028616 -5.68545e-07 3.89388e-07 4.91778e-07 4.29975e-08 9.98733e-08)
(0.000287104 -1.08415e-06 4.25184e-07 6.82175e-07 4.77984e-08 8.44816e-08)
(0.000286646 -1.14656e-06 4.12553e-07 5.2947e-07 7.41231e-08 8.24193e-08)
(0.000287291 -1.08506e-06 4.00016e-07 5.31841e-07 5.70077e-08 1.07192e-07)
(0.000287909 -1.5655e-06 3.86094e-07 7.58626e-07 3.36574e-08 1.02221e-07)
(0.000287994 -8.7584e-07 3.88756e-07 6.24653e-07 9.6737e-08 1.06251e-07)
(0.000288947 -9.67155e-07 3.27852e-07 5.32334e-07 5.49966e-08 9.4209e-08)
(0.000289214 -8.56534e-07 2.15915e-07 5.88857e-07 4.82808e-08 8.3356e-08)
(0.000289949 -4.45837e-07 2.87718e-07 6.07238e-07 1.04533e-07 1.01861e-07)
(0.000289748 -4.71199e-07 6.41074e-08 4.75882e-07 1.17637e-08 8.42047e-08)
(0.000289685 -2.82446e-07 1.22549e-07 5.55709e-07 4.65371e-08 8.42096e-08)
(0.000289672 -4.70421e-07 6.35768e-08 6.40491e-07 7.29243e-08 8.14041e-08)
(0.000289135 -4.70277e-07 -3.55076e-08 4.78741e-07 2.62169e-08 8.14341e-08)
(0.00028921 -4.21229e-07 8.7267e-08 6.0464e-07 7.27891e-08 8.79672e-08)
(0.000287759 -5.7434e-07 -2.4227e-08 5.43726e-07 5.24835e-08 9.44612e-08)
(0.000287296 -8.96571e-07 8.32965e-08 4.78023e-07 2.8879e-08 1.01117e-07)
(0.000287654 -6.72076e-07 -1.37483e-08 6.85514e-07 3.10894e-08 8.5133e-08)
(0.00028658 -8.26188e-07 1.50036e-09 5.10413e-07 3.87957e-08 1.05785e-07)
(0.000286033 -1.11492e-06 1.09019e-07 5.26825e-07 4.41935e-08 1.05667e-07)
(0.000286354 -9.15852e-07 1.20865e-07 7.65649e-07 4.42113e-08 9.95014e-08)
(0.000285822 -1.19766e-06 8.22428e-08 5.63351e-07 4.92628e-08 1.24112e-07)
(0.000285117 -1.37875e-06 1.58344e-07 7.05803e-07 7.20079e-08 1.11463e-07)
(0.000285185 -1.47408e-06 1.26599e-07 6.84972e-07 1.00433e-07 1.16409e-07)
(0.000285238 -1.45527e-06 -3.52014e-09 5.83145e-07 8.21037e-08 1.08802e-07)
(0.00028477 -1.49238e-06 3.81372e-08 7.5521e-07 6.02715e-08 7.84076e-08)
(0.000284793 -1.6269e-06 -2.0723e-08 6.76269e-07 1.0982e-07 1.02963e-07)
(0.000284705 -1.40944e-06 5.44914e-08 6.30986e-07 4.26605e-08 8.33152e-08)
(0.000285214 -1.57557e-06 3.3648e-09 7.38331e-07 7.17129e-08 8.62182e-08)
(0.000285327 -1.25805e-06 1.25035e-07 6.66701e-07 1.15695e-07 9.99991e-08)
(0.000285181 -1.05675e-06 2.44493e-07 6.47733e-07 2.09299e-08 6.77178e-08)
(0.000285671 -8.17645e-07 2.72185e-07 6.80904e-07 8.5497e-08 9.23507e-08)
(0.000285863 -2.50327e-07 4.18113e-07 6.14784e-07 6.88662e-08 1.16234e-07)
(0.000285699 -4.21683e-07 4.68019e-07 7.46624e-07 1.66366e-08 1.06137e-07)
(0.000284965 -7.50661e-08 5.63791e-07 7.50851e-07 7.71046e-08 8.53848e-08)
(0.000285306 -3.57976e-07 5.13884e-07 6.35379e-07 4.97097e-08 9.38951e-08)
(0.000285003 -2.76873e-07 4.85321e-07 8.35497e-07 3.85605e-08 1.06811e-07)
(0.000284886 -3.34165e-07 4.28551e-07 8.66259e-07 7.63861e-08 9.15782e-08)
(0.000285737 -6.89683e-07 2.97565e-07 5.75819e-07 2.29397e-08 1.08019e-07)
(0.000285461 -7.64043e-07 3.48648e-07 6.61932e-07 1.35251e-09 9.6308e-08)
(0.000285843 -1.25482e-06 3.12373e-07 5.99026e-07 3.28228e-08 8.49568e-08)
(0.000286093 -8.48011e-07 2.91179e-07 6.49165e-07 1.44345e-08 1.19753e-07)
(0.000286495 -1.39038e-06 4.31668e-07 8.18639e-07 2.71483e-08 8.64652e-08)
(0.000286913 -1.53105e-06 4.00042e-07 5.4774e-07 4.97101e-08 7.63031e-08)
(0.00028709 -1.46247e-06 3.27258e-07 6.97271e-07 1.38286e-08 1.04325e-07)
(0.000288049 -2.03838e-06 4.28522e-07 9.81332e-07 1.95737e-08 9.41634e-08)
(0.000288682 -1.42946e-06 3.90611e-07 6.94943e-07 8.41648e-08 1.02851e-07)
(0.000289095 -1.44534e-06 2.91464e-07 6.45674e-07 3.16549e-08 8.99588e-08)
(0.000289789 -1.15987e-06 2.73491e-07 7.31309e-07 3.94599e-08 1.00013e-07)
(0.000290596 -8.41551e-07 2.40742e-07 6.56332e-07 8.77055e-08 1.13318e-07)
(0.000290248 -7.11056e-07 5.8566e-08 6.37109e-07 2.40865e-08 8.44648e-08)
(0.000289838 -3.2154e-07 1.66903e-07 7.2411e-07 7.68259e-08 1.09586e-07)
(0.000289763 -5.17703e-07 1.20143e-07 7.25675e-07 8.39016e-08 1.11312e-07)
(0.000289469 -2.90982e-07 -1.87906e-09 6.34207e-07 4.643e-08 9.88474e-08)
(0.000289144 -2.24528e-07 1.44661e-07 7.54928e-07 1.07735e-07 1.11298e-07)
(0.000287442 -5.29889e-07 4.90889e-09 6.80865e-07 7.61593e-08 1.15698e-07)
(0.000287312 -7.19118e-07 8.69677e-08 6.23407e-07 5.04668e-08 1.13644e-07)
(0.000287617 -6.5607e-07 -5.63653e-09 7.82401e-07 7.85533e-08 8.8554e-08)
(0.000286223 -9.23231e-07 6.89853e-08 5.83999e-07 8.50765e-08 1.04628e-07)
(0.000286121 -1.06437e-06 1.81771e-07 6.17043e-07 7.14478e-08 1.10367e-07)
(0.000286392 -1.15965e-06 8.0078e-08 1.0461e-06 8.72598e-08 1.24184e-07)
(0.000285643 -1.4986e-06 7.37642e-08 7.64176e-07 1.28726e-07 1.65598e-07)
(0.000285118 -1.75122e-06 1.56126e-07 1.02151e-06 1.5436e-07 1.71131e-07)
(0.000285386 -1.72166e-06 6.4711e-08 9.59714e-07 1.47959e-07 1.66944e-07)
(0.000285427 -1.77506e-06 -4.06672e-08 7.69989e-07 1.33364e-07 1.4656e-07)
(0.000284762 -1.88133e-06 -2.86188e-08 9.83776e-07 1.40053e-07 1.32024e-07)
(0.000285026 -2.03072e-06 -9.57572e-08 9.17735e-07 1.57918e-07 1.79535e-07)
(0.000285026 -1.78842e-06 -1.24725e-08 8.28851e-07 8.15054e-08 1.48283e-07)
(0.00028546 -1.92114e-06 -5.42731e-08 8.9238e-07 1.2966e-07 1.59528e-07)
(0.000285887 -1.82843e-06 1.47865e-07 8.71595e-07 1.50059e-07 1.56187e-07)
(0.000285755 -1.44697e-06 2.33499e-07 8.7656e-07 5.48446e-08 1.0937e-07)
(0.000286433 -1.18359e-06 2.42308e-07 8.94052e-07 8.8293e-08 1.6142e-07)
(0.000286474 -5.16709e-07 4.77508e-07 8.47848e-07 6.39501e-08 1.78053e-07)
(0.00028623 -7.06619e-07 5.56916e-07 8.50435e-07 5.3008e-08 1.37142e-07)
(0.000285437 -4.83759e-07 6.71851e-07 7.99955e-07 8.17982e-08 1.18169e-07)
(0.000285368 -4.57583e-07 6.17479e-07 9.20839e-07 3.15038e-08 1.28026e-07)
(0.000285228 -5.59611e-07 5.91374e-07 1.10047e-06 3.75289e-08 1.34987e-07)
(0.000284977 -6.01008e-07 4.24054e-07 1.04869e-06 6.10092e-08 1.32122e-07)
(0.000285788 -1.10334e-06 1.59907e-07 7.41744e-07 5.90604e-09 1.43518e-07)
(0.000285378 -1.22507e-06 3.19026e-07 8.65343e-07 2.08007e-08 1.22476e-07)
(0.000285986 -1.47173e-06 1.92819e-07 9.47194e-07 2.93661e-09 1.18055e-07)
(0.000286173 -1.32096e-06 1.80216e-07 9.3618e-07 -3.13799e-08 1.4958e-07)
(0.000286203 -1.74141e-06 3.74873e-07 1.01525e-06 3.56948e-08 1.06166e-07)
(0.000287048 -1.90383e-06 3.30065e-07 7.90428e-07 4.38253e-08 1.03786e-07)
(0.000287014 -2.00704e-06 2.58443e-07 1.01799e-06 -1.56824e-08 1.23554e-07)
(0.00028835 -2.49274e-06 4.56317e-07 1.18202e-06 3.14786e-08 1.00529e-07)
(0.000289269 -2.18006e-06 3.24449e-07 8.63359e-07 7.66097e-08 1.17274e-07)
(0.000289611 -2.05792e-06 2.42539e-07 9.77837e-07 2.37048e-08 1.08011e-07)
(0.000290658 -1.49734e-06 3.00663e-07 9.52356e-07 3.69317e-08 1.3173e-07)
(0.000291402 -1.33634e-06 1.39546e-07 8.12103e-07 7.46731e-08 1.27592e-07)
(0.000291125 -1.05264e-06 7.27002e-08 1.0175e-06 6.5268e-08 1.01237e-07)
(0.000290375 -5.04702e-07 2.09926e-07 9.95475e-07 1.06772e-07 1.63826e-07)
(0.000290247 -5.75685e-07 1.40148e-07 8.75516e-07 9.05339e-08 1.53019e-07)
(0.000290023 -1.82246e-07 3.2286e-08 9.81151e-07 7.73994e-08 1.17641e-07)
(0.000289124 -1.40917e-07 1.7025e-07 1.09703e-06 1.37754e-07 1.54833e-07)
(0.000287335 -5.96138e-07 7.48255e-09 9.45588e-07 8.58258e-08 1.58189e-07)
(0.000287397 -6.92733e-07 1.82949e-08 9.10037e-07 8.11643e-08 1.45489e-07)
(0.000287461 -9.20121e-07 -4.87906e-08 1.01227e-06 1.58293e-07 1.40357e-07)
(0.000286 -1.2181e-06 8.06131e-08 8.29108e-07 1.40392e-07 1.49805e-07)
(0.000286244 -1.18774e-06 1.47069e-07 9.76006e-07 9.52946e-08 1.41725e-07)
(0.000286464 -1.64404e-06 6.05892e-08 1.40714e-06 1.76166e-07 2.08329e-07)
(0.000285451 -2.051e-06 4.96983e-08 1.24763e-06 2.29582e-07 2.7126e-07)
(0.000285333 -2.18088e-06 1.01508e-07 1.65842e-06 2.54187e-07 2.8935e-07)
(0.000285762 -2.16649e-06 -4.13222e-08 1.46095e-06 2.27434e-07 2.60021e-07)
(0.000285622 -2.31122e-06 -1.08199e-07 1.21375e-06 2.07144e-07 2.15617e-07)
(0.000284903 -2.4276e-06 -1.44305e-07 1.48114e-06 2.36522e-07 2.43528e-07)
(0.00028548 -2.58174e-06 -2.52465e-07 1.50299e-06 2.12729e-07 3.18776e-07)
(0.000285553 -2.35065e-06 -1.78023e-07 1.32835e-06 1.5383e-07 2.77921e-07)
(0.000285766 -2.54246e-06 -9.23172e-08 1.30691e-06 2.22116e-07 2.92238e-07)
(0.000286558 -2.55661e-06 1.1562e-07 1.3821e-06 2.09942e-07 2.71835e-07)
(0.000286567 -2.1063e-06 2.0044e-07 1.46027e-06 1.19587e-07 2.12324e-07)
(0.000287382 -1.7096e-06 2.30187e-07 1.51108e-06 9.51724e-08 2.79029e-07)
(0.000287262 -9.49545e-07 5.02272e-07 1.34922e-06 9.09044e-08 2.95431e-07)
(0.000286832 -1.13249e-06 6.79812e-07 1.11948e-06 1.02157e-07 2.28646e-07)
(0.000286075 -9.2086e-07 8.13992e-07 1.22141e-06 5.82249e-08 1.97666e-07)
(0.000285539 -6.72293e-07 7.28324e-07 1.57928e-06 2.29078e-08 1.89919e-07)
(0.000285553 -8.84189e-07 6.8392e-07 1.60456e-06 5.86054e-08 2.06237e-07)
(0.000285174 -1.04856e-06 3.5101e-07 1.43101e-06 3.74683e-08 2.25764e-07)
(0.000285827 -1.70126e-06 -2.90485e-08 1.18493e-06 1.07497e-08 2.13779e-07)
(0.000285617 -1.7134e-06 1.64933e-07 1.52877e-06 6.81728e-08 1.93707e-07)
(0.000286244 -1.79798e-06 4.04871e-08 1.67033e-06 -3.03987e-08 2.05535e-07)
(0.000286412 -1.92006e-06 4.29246e-08 1.44035e-06 -4.52091e-08 1.96542e-07)
(0.000286176 -2.17622e-06 2.10489e-07 1.56822e-06 9.0668e-08 1.75832e-07)
(0.000287005 -2.38646e-06 1.93473e-07 1.60605e-06 7.67628e-08 2.06158e-07)
(0.000287121 -2.62648e-06 1.69128e-07 1.67342e-06 2.24221e-08 1.8253e-07)
(0.000288668 -3.18178e-06 3.72472e-07 1.56864e-06 1.03347e-07 1.54246e-07)
(0.000289664 -3.19402e-06 1.7046e-07 1.52258e-06 9.05374e-08 1.9757e-07)
(0.00029043 -2.80828e-06 1.39883e-07 1.75296e-06 8.06778e-08 1.8298e-07)
(0.000291623 -2.07946e-06 2.70175e-07 1.42203e-06 8.18707e-08 1.94962e-07)
(0.000292204 -1.92778e-06 8.03915e-09 1.3641e-06 8.34926e-08 1.72912e-07)
(0.000292275 -1.47801e-06 9.67156e-08 1.71968e-06 1.54611e-07 1.63965e-07)
(0.000291279 -8.2603e-07 2.57315e-07 1.38449e-06 1.4064e-07 2.51045e-07)
(0.000290986 -7.14557e-07 1.70077e-07 1.28546e-06 8.87555e-08 2.10811e-07)
(0.000290695 -1.60342e-07 1.17599e-07 1.69245e-06 1.25017e-07 1.62292e-07)
(0.000289193 -1.90387e-07 2.23792e-07 1.6501e-06 1.55693e-07 2.36527e-07)
(0.000287397 -7.62504e-07 1.26519e-08 1.41388e-06 9.60485e-08 2.23892e-07)
(0.000287431 -8.79587e-07 -3.22034e-08 1.43311e-06 1.53352e-07 2.13045e-07)
(0.000287204 -1.51645e-06 -2.16735e-10 1.39772e-06 2.42747e-07 2.76538e-07)
(0.000285983 -1.71028e-06 1.21337e-07 1.38056e-06 1.79743e-07 2.61985e-07)
(0.000286539 -1.52774e-06 1.14584e-07 1.60622e-06 1.48824e-07 2.10973e-07)
(0.000286605 -2.48487e-06 -1.60241e-08 2.01927e-06 2.8866e-07 4.27496e-07)
(0.000285543 -2.80939e-06 -7.43356e-08 2.29673e-06 3.34562e-07 4.9113e-07)
(0.000285998 -2.82906e-06 -7.60515e-08 2.61096e-06 4.29141e-07 5.09307e-07)
(0.000286317 -3.07754e-06 -2.4349e-07 2.24951e-06 4.05604e-07 4.63673e-07)
(0.000285901 -3.12135e-06 -2.72009e-07 2.12043e-06 3.61322e-07 3.8804e-07)
(0.000285338 -3.09835e-06 -3.62986e-07 2.36336e-06 4.03461e-07 4.74343e-07)
(0.00028621 -3.22523e-06 -5.72097e-07 2.50771e-06 3.48649e-07 5.70648e-07)
(0.000286167 -3.0951e-06 -4.65916e-07 2.25523e-06 3.53587e-07 5.10184e-07)
(0.000286183 -3.29764e-06 -1.97672e-07 2.13489e-06 4.10534e-07 5.41044e-07)
(0.000287431 -3.32649e-06 -1.54748e-08 2.38637e-06 3.27154e-07 5.08959e-07)
(0.000287777 -2.92929e-06 5.90785e-08 2.61073e-06 2.82108e-07 4.12533e-07)
(0.000288713 -2.3322e-06 1.43639e-07 2.63521e-06 2.28787e-07 4.92976e-07)
(0.00028833 -1.57782e-06 4.69492e-07 2.20784e-06 2.07259e-07 5.4032e-07)
(0.000287616 -1.65341e-06 7.5701e-07 1.82371e-06 1.92349e-07 4.51558e-07)
(0.000286785 -1.26397e-06 9.34908e-07 2.25669e-06 8.85636e-08 3.79732e-07)
(0.000285887 -8.98907e-07 7.81346e-07 2.77288e-06 8.04465e-08 3.54224e-07)
(0.000286034 -1.22149e-06 6.26305e-07 2.55121e-06 1.25007e-07 4.07564e-07)
(0.000285423 -1.72436e-06 8.35287e-08 2.20327e-06 3.84259e-08 4.43316e-07)
(0.000286078 -2.33051e-06 -3.92113e-07 2.27504e-06 7.03241e-08 3.86328e-07)
(0.000286321 -2.17502e-06 -2.20725e-07 2.82294e-06 1.51833e-07 3.75752e-07)
(0.00028678 -2.28533e-06 -2.74639e-07 2.68675e-06 -2.89893e-08 3.91262e-07)
(0.00028691 -2.49828e-06 -2.0839e-07 2.38891e-06 -4.6869e-09 2.92046e-07)
(0.000286407 -2.6105e-06 -4.17126e-08 2.83426e-06 1.70296e-07 3.3678e-07)
(0.000287086 -2.82283e-06 5.43931e-09 3.10336e-06 1.30487e-07 4.02817e-07)
(0.000287472 -3.34752e-06 -3.97542e-08 2.70447e-06 1.14182e-07 2.92496e-07)
(0.000288969 -4.18507e-06 1.55204e-07 2.41485e-06 2.01126e-07 2.88242e-07)
(0.000290142 -4.33381e-06 -8.65132e-08 2.87954e-06 1.2031e-07 3.7802e-07)
(0.000291701 -3.66861e-06 -5.97225e-08 2.94567e-06 2.09627e-07 3.25971e-07)
(0.000292896 -2.98559e-06 9.71045e-08 2.31563e-06 1.66181e-07 2.95871e-07)
(0.000293317 -2.66504e-06 -2.29476e-07 2.60674e-06 1.37752e-07 2.98892e-07)
(0.000293809 -2.04701e-06 4.07399e-08 2.78239e-06 2.90828e-07 3.16859e-07)
(0.000292449 -1.3687e-06 2.55428e-07 2.10969e-06 1.629e-07 3.83043e-07)
(0.000291919 -9.70947e-07 1.7925e-07 2.42988e-06 9.46515e-08 3.24838e-07)
(0.000291613 -1.43545e-07 2.04039e-07 2.9736e-06 2.00677e-07 2.95282e-07)
(0.000289555 -4.25868e-07 2.43897e-07 2.5775e-06 1.82404e-07 3.86493e-07)
(0.000287648 -1.10138e-06 -5.81558e-08 2.33259e-06 1.49994e-07 3.4079e-07)
(0.000287347 -1.48936e-06 -1.123e-07 2.31341e-06 2.8281e-07 3.71015e-07)
(0.000287001 -2.49218e-06 3.25124e-08 2.18534e-06 3.19997e-07 5.2976e-07)
(0.000286407 -2.50429e-06 6.25136e-08 2.4881e-06 2.45805e-07 4.54159e-07)
(0.000287152 -2.24473e-06 2.88461e-08 2.46229e-06 2.87239e-07 3.63395e-07)
(0.000286953 -3.52558e-06 6.96479e-09 3.43282e-06 4.86653e-07 9.11427e-07)
(0.000285926 -3.55258e-06 -1.60862e-07 4.29394e-06 5.6502e-07 9.15196e-07)
(0.000287006 -3.71817e-06 -2.43009e-07 4.1399e-06 8.2328e-07 9.58765e-07)
(0.000287184 -4.3607e-06 -4.64825e-07 3.78405e-06 8.03293e-07 9.43999e-07)
(0.000286582 -4.10196e-06 -4.52397e-07 3.90334e-06 6.94441e-07 8.16885e-07)
(0.000286277 -3.78864e-06 -6.01481e-07 3.89084e-06 7.36491e-07 9.60685e-07)
(0.000287349 -3.96978e-06 -9.72009e-07 4.1565e-06 6.96953e-07 1.0689e-06)
(0.000287051 -4.01613e-06 -7.89784e-07 3.91201e-06 8.17935e-07 9.94581e-07)
(0.000286875 -4.14188e-06 -3.0663e-07 3.68346e-06 7.95682e-07 1.10791e-06)
(0.000288588 -4.08294e-06 -1.1938e-07 4.14831e-06 6.04337e-07 1.06018e-06)
(0.000289528 -3.83709e-06 -9.19427e-08 4.58863e-06 7.03666e-07 8.73029e-07)
(0.000290563 -3.1388e-06 1.02486e-07 4.49855e-06 6.4994e-07 9.93509e-07)
(0.000289709 -2.40609e-06 4.76988e-07 3.71725e-06 4.93778e-07 1.12711e-06)
(0.000288758 -2.18583e-06 9.25125e-07 3.36851e-06 4.28359e-07 9.9694e-07)
(0.000287912 -1.53591e-06 1.24673e-06 4.17106e-06 3.20426e-07 8.43946e-07)
(0.000286643 -1.26722e-06 9.49645e-07 4.71505e-06 2.95756e-07 8.00743e-07)
(0.000286552 -1.81846e-06 4.71625e-07 4.2716e-06 3.34532e-07 8.70286e-07)
(0.000285747 -2.71262e-06 -3.07266e-07 3.9092e-06 1.86602e-07 8.86731e-07)
(0.000286834 -2.91886e-06 -8.43639e-07 4.58895e-06 2.65813e-07 7.83069e-07)
(0.000287577 -2.76966e-06 -7.18801e-07 4.9579e-06 3.39535e-07 7.81903e-07)
(0.000287774 -2.98476e-06 -6.65901e-07 4.38508e-06 7.30271e-08 7.56132e-07)
(0.000287811 -3.09067e-06 -4.8375e-07 4.53382e-06 1.21017e-07 5.4309e-07)
(0.00028715 -3.04158e-06 -2.43993e-07 5.25152e-06 2.89649e-07 6.87838e-07)
(0.000287545 -3.31981e-06 -2.04133e-07 5.41859e-06 2.27741e-07 7.46813e-07)
(0.0002879 -4.32624e-06 -3.47132e-07 4.47112e-06 2.69329e-07 5.47505e-07)
(0.000289304 -5.43705e-06 -1.223e-07 4.16752e-06 3.29278e-07 6.2724e-07)
(0.000290951 -5.5642e-06 -3.88498e-07 5.07531e-06 2.03327e-07 7.55455e-07)
(0.000293248 -4.78813e-06 -3.31803e-07 4.7623e-06 4.14743e-07 6.06505e-07)
(0.000294254 -4.22083e-06 -1.63481e-07 4.08541e-06 3.25102e-07 5.33853e-07)
(0.000294804 -3.48347e-06 -4.54263e-07 4.75259e-06 2.96197e-07 6.28303e-07)
(0.000295735 -2.73893e-06 5.36926e-09 4.32275e-06 4.73646e-07 6.47656e-07)
(0.00029385 -2.18696e-06 3.39096e-07 3.70027e-06 2.10619e-07 6.40866e-07)
(0.000293312 -1.32979e-06 3.23483e-07 4.76216e-06 1.43004e-07 5.95447e-07)
(0.000293003 -2.55396e-07 4.65078e-07 5.06719e-06 3.42085e-07 6.23803e-07)
(0.000290145 -8.61053e-07 3.9954e-07 4.31718e-06 3.03999e-07 6.9221e-07)
(0.000287859 -1.62113e-06 -1.58706e-08 4.11578e-06 2.84678e-07 6.21722e-07)
(0.000287112 -2.55772e-06 -1.73242e-08 3.91302e-06 4.88707e-07 7.33363e-07)
(0.000287017 -3.74565e-06 1.98954e-07 3.86563e-06 5.00882e-07 9.80912e-07)
(0.000287267 -3.53877e-06 1.20202e-07 4.3541e-06 4.97279e-07 8.29911e-07)
(0.000288107 -3.30958e-06 9.48489e-08 3.75165e-06 5.98838e-07 7.48872e-07)
(0.000287096 -4.78096e-06 -3.17336e-08 6.35302e-06 8.8339e-07 1.91352e-06)
(0.000286269 -4.62331e-06 -3.23216e-07 7.75112e-06 1.0927e-06 1.7876e-06)
(0.000287907 -5.34395e-06 -4.71975e-07 6.91046e-06 1.62552e-06 1.96151e-06)
(0.000287852 -6.29694e-06 -7.02872e-07 6.81288e-06 1.62634e-06 2.06701e-06)
(0.000287066 -5.30196e-06 -6.15928e-07 7.1525e-06 1.39538e-06 1.86596e-06)
(0.000286987 -4.59379e-06 -8.54506e-07 6.5365e-06 1.4114e-06 2.06014e-06)
(0.00028815 -4.79032e-06 -1.47704e-06 6.90454e-06 1.43723e-06 2.1641e-06)
(0.000287543 -4.92452e-06 -1.23046e-06 6.86249e-06 1.70009e-06 2.11713e-06)
(0.000287256 -4.77707e-06 -5.45606e-07 6.53976e-06 1.51282e-06 2.37642e-06)
(0.00028951 -4.58036e-06 -4.08736e-07 7.21034e-06 1.18883e-06 2.26532e-06)
(0.000291123 -4.58623e-06 -3.64852e-07 7.92781e-06 1.53652e-06 1.95222e-06)
(0.000292218 -4.03547e-06 5.1974e-08 7.56261e-06 1.42941e-06 2.14828e-06)
(0.000290904 -3.39706e-06 3.97289e-07 6.57517e-06 1.01201e-06 2.37518e-06)
(0.000289718 -2.64089e-06 1.07354e-06 6.54047e-06 9.73422e-07 2.20168e-06)
(0.000288793 -1.57216e-06 1.63178e-06 7.42696e-06 8.8371e-07 1.9819e-06)
(0.000287302 -1.72275e-06 9.91639e-07 7.91723e-06 7.14696e-07 1.93906e-06)
(0.000286871 -2.8042e-06 5.34785e-08 7.43945e-06 7.86269e-07 2.01439e-06)
(0.000286184 -3.93262e-06 -9.22663e-07 7.47628e-06 6.05872e-07 1.96523e-06)
(0.000288039 -3.49095e-06 -1.49602e-06 8.83841e-06 6.79571e-07 1.78266e-06)
(0.000289126 -3.59231e-06 -1.52175e-06 8.45945e-06 6.66554e-07 1.76201e-06)
(0.000288949 -3.81262e-06 -1.28566e-06 7.81477e-06 2.87788e-07 1.60972e-06)
(0.00028888 -3.64482e-06 -7.29617e-07 8.99808e-06 3.76628e-07 1.23774e-06)
(0.000288214 -3.2535e-06 -2.88862e-07 9.63178e-06 4.45851e-07 1.43662e-06)
(0.000288119 -3.84584e-06 -5.44755e-07 9.5398e-06 3.57567e-07 1.43639e-06)
(0.000288142 -5.47827e-06 -8.78684e-07 8.02162e-06 4.49257e-07 1.19441e-06)
(0.000289421 -6.81599e-06 -6.17688e-07 7.56311e-06 5.04938e-07 1.40776e-06)
(0.000291613 -6.84261e-06 -9.48404e-07 8.59949e-06 3.9601e-07 1.5157e-06)
(0.000294488 -6.22655e-06 -9.36446e-07 7.85968e-06 7.17873e-07 1.18103e-06)
(0.000295468 -5.85171e-06 -8.06993e-07 7.50496e-06 6.88834e-07 1.13727e-06)
(0.000296409 -4.63284e-06 -9.72735e-07 8.48922e-06 6.92783e-07 1.41005e-06)
(0.000297293 -3.84585e-06 -2.53703e-07 7.31891e-06 7.28891e-07 1.34956e-06)
(0.00029481 -3.46834e-06 3.52927e-07 7.33632e-06 2.96419e-07 1.18399e-06)
(0.000294817 -1.82232e-06 4.27251e-07 9.13283e-06 2.08984e-07 1.1568e-06)
(0.000294636 -6.01688e-07 6.37663e-07 8.80938e-06 5.86511e-07 1.26976e-06)
(0.00029078 -1.54734e-06 4.72508e-07 7.71162e-06 5.62026e-07 1.28023e-06)
(0.000287651 -2.74216e-06 1.18762e-08 7.47512e-06 4.69557e-07 1.21492e-06)
(0.000286454 -4.33895e-06 6.95742e-08 7.00088e-06 8.27203e-07 1.47651e-06)
(0.000287053 -5.48965e-06 3.57077e-07 7.00444e-06 9.35389e-07 1.82229e-06)
(0.000288139 -5.21596e-06 2.15565e-07 7.36271e-06 1.01196e-06 1.64713e-06)
(0.000288841 -5.0212e-06 2.21645e-07 6.17261e-06 1.12021e-06 1.67528e-06)
(0.000283374 -5.12894e-06 -1.39208e-08 1.16378e-05 1.6933e-06 3.9613e-06)
(0.000282949 -4.9792e-06 -3.79221e-07 1.36332e-05 2.13156e-06 3.70115e-06)
(0.000285292 -6.58526e-06 -4.80218e-07 1.21918e-05 3.0337e-06 4.27608e-06)
(0.000285222 -7.72876e-06 -7.51056e-07 1.24071e-05 3.09104e-06 4.66161e-06)
(0.000284058 -5.81218e-06 -5.15469e-07 1.24366e-05 2.63301e-06 4.32396e-06)
(0.00028387 -4.63554e-06 -8.56026e-07 1.07088e-05 2.51386e-06 4.5734e-06)
(0.000285417 -4.80346e-06 -1.74073e-06 1.12217e-05 2.72088e-06 4.78427e-06)
(0.00028484 -4.85321e-06 -1.45987e-06 1.16511e-05 3.14848e-06 4.91271e-06)
(0.000284407 -4.31869e-06 -5.82849e-07 1.11491e-05 2.64073e-06 5.41517e-06)
(0.000287089 -3.96968e-06 -4.23127e-07 1.2202e-05 2.17927e-06 5.17004e-06)
(0.000289144 -4.40371e-06 -1.12537e-07 1.34108e-05 2.89018e-06 4.6697e-06)
(0.000289994 -4.25464e-06 4.93878e-07 1.27716e-05 2.64846e-06 4.94739e-06)
(0.000288444 -3.7237e-06 5.84144e-07 1.20573e-05 1.94298e-06 5.24513e-06)
(0.000287688 -2.24762e-06 1.58125e-06 1.24238e-05 2.05196e-06 5.06406e-06)
(0.000287085 -9.55651e-07 2.34928e-06 1.3097e-05 1.86122e-06 4.72305e-06)
(0.00028518 -2.0057e-06 9.70042e-07 1.37584e-05 1.40253e-06 4.54603e-06)
(0.000284488 -3.79488e-06 -5.48716e-07 1.35642e-05 1.61011e-06 4.49287e-06)
(0.000284663 -4.62167e-06 -1.42426e-06 1.44541e-05 1.47009e-06 4.21825e-06)
(0.000287654 -3.66401e-06 -1.95397e-06 1.60934e-05 1.40638e-06 3.88074e-06)
(0.000288691 -4.21425e-06 -2.09106e-06 1.4524e-05 1.08737e-06 3.79661e-06)
(0.000288114 -4.26442e-06 -1.55163e-06 1.45727e-05 4.418e-07 3.43213e-06)
(0.000288379 -3.50723e-06 -3.28371e-07 1.70823e-05 5.30145e-07 2.76811e-06)
(0.000287748 -2.81684e-06 3.14731e-07 1.73084e-05 4.30889e-07 2.96441e-06)
(0.000286448 -3.7689e-06 -4.8485e-07 1.71531e-05 2.56476e-07 2.98911e-06)
(0.000285665 -5.93567e-06 -1.10133e-06 1.51235e-05 2.6151e-07 2.80207e-06)
(0.000286595 -7.40346e-06 -8.90498e-07 1.39505e-05 3.97945e-07 3.19355e-06)
(0.000288927 -7.39638e-06 -1.40084e-06 1.45858e-05 4.93772e-07 3.1368e-06)
(0.000291777 -7.01476e-06 -1.53673e-06 1.36393e-05 1.03247e-06 2.55724e-06)
(0.000292786 -6.6399e-06 -1.48613e-06 1.37193e-05 1.23927e-06 2.67466e-06)
(0.000294448 -4.8449e-06 -1.63752e-06 1.48457e-05 1.28158e-06 3.16635e-06)
(0.000294961 -4.29511e-06 -6.84211e-07 1.32091e-05 1.05027e-06 2.9611e-06)
(0.000292211 -4.05775e-06 2.91616e-07 1.43184e-05 3.7118e-07 2.47541e-06)
(0.000293369 -1.77043e-06 4.30372e-07 1.67657e-05 2.18399e-07 2.42879e-06)
(0.000292999 -5.73818e-07 7.55007e-07 1.56611e-05 9.01706e-07 2.73057e-06)
(0.000287336 -1.75785e-06 4.77572e-07 1.42466e-05 8.28188e-07 2.6358e-06)
(0.000283101 -3.59648e-06 -3.97582e-08 1.37755e-05 5.81107e-07 2.56929e-06)
(0.000281907 -5.77597e-06 1.27342e-07 1.26792e-05 1.36119e-06 3.08208e-06)
(0.000283086 -6.79247e-06 4.58206e-07 1.24795e-05 1.74622e-06 3.61704e-06)
(0.000284688 -6.54802e-06 3.36154e-07 1.27779e-05 1.85398e-06 3.57554e-06)
(0.000285368 -6.14615e-06 4.31498e-07 1.09132e-05 1.95929e-06 3.78791e-06)
(0.000265469 -4.0701e-06 -2.16957e-06 2.20509e-05 3.11016e-06 8.52072e-06)
(0.00026643 -3.89481e-06 -2.21905e-06 2.52515e-05 3.99759e-06 8.25904e-06)
(0.000268636 -6.89141e-06 -1.93631e-06 2.38074e-05 5.50976e-06 9.66254e-06)
(0.000267926 -8.23697e-06 -2.2237e-06 2.39852e-05 5.65504e-06 1.05562e-05)
(0.00026637 -4.8369e-06 -2.0242e-06 2.23627e-05 4.61457e-06 9.99513e-06)
(0.000266864 -3.17044e-06 -2.60376e-06 1.89104e-05 4.0128e-06 1.02087e-05)
(0.000269915 -3.58622e-06 -3.37837e-06 1.97618e-05 4.58431e-06 1.05401e-05)
(0.000270068 -3.58344e-06 -2.9375e-06 2.08271e-05 5.2451e-06 1.08818e-05)
(0.000269745 -2.71836e-06 -2.03259e-06 1.96914e-05 4.10407e-06 1.16077e-05)
(0.000273122 -2.37039e-06 -1.69257e-06 2.13068e-05 3.36849e-06 1.12267e-05)
(0.000275309 -3.72113e-06 -7.15381e-07 2.31579e-05 4.52649e-06 1.05246e-05)
(0.000275757 -4.41472e-06 7.51364e-09 2.26702e-05 4.12441e-06 1.08366e-05)
(0.000274486 -3.66221e-06 -3.38615e-07 2.29861e-05 3.23839e-06 1.12325e-05)
(0.000274233 -1.09621e-06 1.15056e-06 2.34386e-05 3.49693e-06 1.13442e-05)
(0.000274025 5.16044e-07 2.09232e-06 2.3889e-05 2.91697e-06 1.09109e-05)
(0.000271826 -1.27937e-06 -2.08403e-07 2.53784e-05 2.05507e-06 1.04524e-05)
(0.000271534 -3.41777e-06 -1.84601e-06 2.59558e-05 2.47284e-06 1.02196e-05)
(0.000272826 -3.00741e-06 -1.95863e-06 2.84564e-05 2.41714e-06 9.36491e-06)
(0.000276347 -1.90836e-06 -2.26577e-06 2.97799e-05 2.03107e-06 8.70588e-06)
(0.000276568 -3.19332e-06 -2.50336e-06 2.67465e-05 9.2585e-07 8.53064e-06)
(0.000276212 -2.6655e-06 -1.74802e-06 2.84931e-05 -3.15592e-07 7.49318e-06)
(0.000277542 -7.43677e-07 9.64418e-08 3.25468e-05 -3.13672e-07 6.09904e-06)
(0.000276893 1.02697e-07 6.71937e-07 3.24934e-05 -7.0578e-07 6.40664e-06)
(0.000274425 -7.2879e-07 -8.96541e-07 3.28889e-05 -9.72446e-07 6.71723e-06)
(0.000272345 -3.15101e-06 -1.80144e-06 3.00981e-05 -1.11845e-06 6.77394e-06)
(0.000271562 -5.2694e-06 -1.78577e-06 2.71038e-05 -4.3594e-07 7.25775e-06)
(0.000272781 -5.49337e-06 -2.47812e-06 2.65669e-05 4.46179e-07 6.82252e-06)
(0.000274859 -5.36935e-06 -2.48006e-06 2.52685e-05 1.48934e-06 5.96881e-06)
(0.000275628 -4.71237e-06 -2.5171e-06 2.58488e-05 2.17485e-06 6.36583e-06)
(0.000277325 -1.94195e-06 -2.8015e-06 2.75665e-05 2.2956e-06 7.08637e-06)
(0.000276572 -1.73525e-06 -1.81017e-06 2.61979e-05 1.35032e-06 6.554e-06)
(0.00027386 -1.3719e-06 -8.19908e-07 2.85512e-05 9.54741e-08 5.40585e-06)
(0.000276573 1.5603e-06 -1.10395e-06 3.13184e-05 -9.83789e-08 5.28653e-06)
(0.000276424 2.31704e-06 -9.77863e-07 2.90843e-05 1.18194e-06 5.84933e-06)
(0.000269361 2.38295e-07 -1.36077e-06 2.70649e-05 9.87571e-07 5.44242e-06)
(0.000264153 -2.88867e-06 -1.76181e-06 2.55815e-05 7.05349e-07 5.4784e-06)
(0.000262727 -5.77431e-06 -1.4897e-06 2.30363e-05 2.12378e-06 6.61066e-06)
(0.000263831 -6.59062e-06 -1.29768e-06 2.26453e-05 2.71469e-06 7.55341e-06)
(0.000265751 -6.07294e-06 -1.4824e-06 2.3475e-05 2.92351e-06 8.05116e-06)
(0.000266333 -5.76106e-06 -1.48829e-06 2.0587e-05 3.22677e-06 8.61226e-06)
(0.000239371 9.17642e-06 -9.03169e-06 4.30186e-05 6.06898e-06 1.7616e-05)
(0.000244317 1.14561e-05 -8.20766e-06 4.83173e-05 7.52486e-06 1.797e-05)
(0.000245817 6.58882e-06 -8.03047e-06 4.71929e-05 9.83048e-06 2.12611e-05)
(0.000247659 5.09999e-06 -8.67835e-06 4.58976e-05 9.93708e-06 2.32368e-05)
(0.000252791 9.60766e-06 -9.67809e-06 4.06389e-05 7.45021e-06 2.24187e-05)
(0.000254991 9.58345e-06 -9.72121e-06 3.55808e-05 5.7896e-06 2.25088e-05)
(0.00025034 5.84565e-06 -7.19574e-06 3.764e-05 7.42685e-06 2.30939e-05)
(0.000242542 3.0411e-06 -5.77875e-06 3.89366e-05 8.66642e-06 2.37129e-05)
(0.000240068 2.85215e-06 -5.21591e-06 3.68273e-05 6.40122e-06 2.46844e-05)
(0.000245481 3.92737e-06 -4.39237e-06 3.98728e-05 5.33413e-06 2.42074e-05)
(0.000247624 2.47201e-06 -2.38505e-06 4.31029e-05 6.74626e-06 2.31111e-05)
(0.000247129 1.54843e-06 -1.63372e-06 4.35246e-05 6.05312e-06 2.33919e-05)
(0.00024682 4.06117e-06 -2.30129e-06 4.51352e-05 5.75093e-06 2.40834e-05)
(0.000246589 8.56216e-06 -7.68451e-08 4.47956e-05 6.40374e-06 2.48076e-05)
(0.000246524 1.10269e-05 1.92876e-06 4.52841e-05 5.28397e-06 2.42211e-05)
(0.000243333 8.67065e-06 -5.61158e-07 4.80285e-05 4.12554e-06 2.35347e-05)
(0.00024281 7.27856e-06 -5.06741e-07 5.04061e-05 5.14186e-06 2.29804e-05)
(0.000246632 1.0629e-05 2.86895e-06 5.56987e-05 5.74033e-06 2.16231e-05)
(0.000248935 1.04754e-05 3.73876e-06 5.61152e-05 4.20671e-06 2.15848e-05)
(0.000245207 6.22088e-06 2.40656e-06 5.12384e-05 3.05118e-07 2.11179e-05)
(0.00024508 7.19008e-06 5.561e-07 5.5254e-05 -3.43113e-06 1.76072e-05)
(0.00024838 1.11181e-05 3.45514e-07 6.11246e-05 -4.31761e-06 1.46902e-05)
(0.000248083 1.26381e-05 -5.546e-08 6.13428e-05 -5.31107e-06 1.62833e-05)
(0.000246634 1.46586e-05 -2.03755e-06 6.2799e-05 -5.75412e-06 1.80379e-05)
(0.000243696 1.30091e-05 -2.99102e-06 5.82801e-05 -5.61975e-06 1.90973e-05)
(0.000238411 8.91809e-06 -2.82339e-06 5.05238e-05 -2.22156e-06 1.94774e-05)
(0.000237361 7.83097e-06 -2.88457e-06 4.67698e-05 1.34667e-06 1.80867e-05)
(0.000238901 8.29487e-06 -2.27549e-06 4.46961e-05 3.51195e-06 1.68438e-05)
(0.000240485 1.0295e-05 -2.20043e-06 4.57135e-05 5.08705e-06 1.6551e-05)
(0.000244125 1.45432e-05 -2.71741e-06 4.81219e-05 5.62597e-06 1.6975e-05)
(0.000241697 1.34977e-05 -3.44417e-06 4.81278e-05 3.32774e-06 1.5423e-05)
(0.000238563 1.4228e-05 -5.10165e-06 5.21805e-05 1.0495e-06 1.27019e-05)