/*--------------------------------*- C++ -*----------------------------------*\
  =========                 |
  \\      /  F ield         | OpenFOAM: The Open Source CFD Toolbox
   \\    /   O peration     | Website:  https://openfoam.org
    \\  /    A nd           | Version:  10
     \\/     M anipulation  |
\*---------------------------------------------------------------------------*/
FoamFile
{
    format      ascii;
    class       volTensorField;
    location    "45";
    object      gradientUWrite;
}
// * * * * * * * * * * * * * * * * * * * * * * * * * * * * * * * * * * * * * //

dimensions      [0 0 -1 0 0 0 0];

internalField   nonuniform List<tensor> 
25600
(
(-0.151525 0.0138018 0.211949 118.602 1.06605 70.179 0.678447 0.00865288 -0.406275)
(0.205294 0.0112341 0.0580412 116.534 1.46216 80.681 0.477733 0.0544246 -0.084589)
(0.351742 -0.0139737 -0.21638 129.93 0.384384 74 -0.197141 0.100774 0.767514)
(-0.226033 -0.0113489 -0.202919 142.898 0.263597 70.6147 0.338097 0.0103354 0.355162)
(-0.10895 0.0106419 -0.238706 117.375 0.631052 61.4463 0.228735 0.0116449 0.183509)
(0.519381 -0.00923699 0.119269 139.362 0.0692635 51.0319 1.17401 0.0673846 0.562673)
(0.179182 -0.00673766 0.330233 155.405 0.150147 66.9927 0.805018 0.0510834 0.196642)
(-0.41283 0.0181122 -0.0534471 147.077 1.09729 73.1006 0.801105 0.051567 0.150712)
(-0.546754 0.0135616 -0.194232 123.749 1.28338 64.5842 0.46561 0.0557738 0.147993)
(-0.346245 0.0069573 -0.0134996 111.966 0.24246 63.9179 0.207869 0.0508967 0.894514)
(0.220209 -0.00925892 0.00992799 107.448 -0.569716 69.2808 0.363792 0.0287665 1.35703)
(0.755835 -0.00999912 0.1698 123.149 -0.803188 65.5974 0.50934 0.0246319 0.93713)
(0.209189 0.0024472 0.0973008 150.561 0.469759 75.6345 -0.033517 0.0283545 0.311171)
(-0.222598 0.000134476 0.0935338 135.623 1.21447 67.5163 0.341443 0.0269296 -0.248645)
(-0.305012 -0.00253924 0.257134 135.546 1.17644 81.2099 0.785602 0.0650949 0.411985)
(-0.122289 -0.00770612 -0.205339 110.633 1.14626 80.8004 -0.2688 0.112089 0.241423)
(0.332453 -0.0123233 -0.240698 130.683 0.181582 68.8975 0.377379 0.0286537 0.0168729)
(-0.667333 0.0216781 -0.196739 137.076 1.76519 63.8727 0.141793 0.0504417 -0.3433)
(-0.586664 0.0275162 0.203535 74.2176 0.304133 65.0747 1.57928 -0.00315411 1.03714)
(0.0250501 -0.0128038 0.266146 100.965 0.378864 84.2366 1.14252 0.0639322 1.41733)
(0.289661 -0.0204283 -0.182153 83.7272 -0.66505 76.0865 0.118677 0.0708355 1.51748)
(0.917026 -0.00630961 0.0115445 119.4 -1.47269 73.7415 0.35477 0.0731363 1.73192)
(0.189965 0.00256419 -0.0629331 146.484 0.780157 73.6332 0.00051297 0.00349304 -0.0369291)
(-0.698185 0.0107245 -0.0772578 127.506 1.39405 69.3185 0.0199054 0.01489 0.115087)
(-0.241622 0.000329011 -0.130424 90.3829 1.61632 70.1274 -0.851914 0.0465666 -0.250592)
(0.613374 -0.0243955 -0.173046 118.229 -0.441697 60.9787 0.118834 0.0245347 0.262317)
(-0.0842317 0.0154342 0.0751418 138.414 0.0922387 58.8592 0.54478 0.0128066 0.112492)
(-0.82862 0.0259083 0.2654 100.346 2.57923 62.8621 0.629739 0.0475019 -0.497965)
(0.238401 -0.0182212 0.0700783 86.616 -0.721611 76.2567 0.956359 0.0829668 2.12409)
(0.913174 -0.0158212 0.016834 128.415 -1.07172 69.3827 -0.0703827 0.0501015 0.810577)
(-0.49078 0.00851034 -0.0337999 146.714 0.999702 76.87 0.408794 0.0241743 -0.28452)
(-0.508947 0.00833433 -0.313765 94.9157 1.09599 66.0866 0.425998 0.0591846 0.264226)
(0.549731 -0.00230841 0.0523969 118.283 -0.342955 56.4364 0.859013 0.0318665 0.579709)
(0.278074 -0.00160329 0.366674 132.003 0.567113 65.9255 1.06711 0.0643707 0.358671)
(-0.100618 0.00234513 0.132444 134.476 0.77641 76.8654 0.373289 0.101204 0.545316)
(-0.20144 -0.00223082 -0.159072 126.562 0.94312 76.1967 0.326219 0.0733784 0.540471)
(0.185795 -0.00540904 -0.104966 118.858 -0.0173245 67.5222 0.376721 0.0778025 0.956332)
(0.099215 0.00524108 0.177288 134.033 1.06305 69.8944 0.173825 0.0296931 -0.557797)
(-0.130172 -0.00595181 -0.0358496 121.857 0.954292 79.9458 -0.0261632 0.0723407 0.408866)
(-0.0919018 -0.00686891 -0.149447 130.155 0.0299092 68.1484 0.486773 0.0780886 0.655078)
(-0.5445 0.0595979 0.421204 -6.48426 1.26693 -12.5721 2.20558 -0.042476 -0.677284)
(0.36559 -0.0479481 0.135654 -4.7993 1.20722 -6.44401 0.419014 0.176069 -0.264946)
(0.98961 -0.0472076 -0.287563 -10.491 -1.84981 -3.44205 -1.11421 0.113568 2.11659)
(-0.406872 0.0253626 -0.432238 8.21067 -0.0248215 -6.8502 0.838521 -0.0738376 0.616887)
(-0.0648001 -0.0218525 -0.759871 -1.66088 0.401174 -14.0553 0.853237 -0.132747 0.0944045)
(1.41431 -0.0149481 0.158392 12.3732 -2.22787 -17.7232 3.12966 -0.117368 1.47717)
(0.205725 0.0610863 0.788987 20.2267 0.0800902 -12.9299 1.68402 0.00664083 0.0846331)
(-1.19868 0.0392447 -0.0669611 11.4152 1.49433 -8.63152 1.67832 0.0402387 0.386149)
(-1.23177 -0.0595497 -0.26579 -3.3709 0.36134 -12.9136 1.51137 -0.0207661 1.38186)
(-0.470264 -0.104406 0.26007 0.361108 -2.33372 -10.7981 0.726312 -0.0860882 3.11523)
(0.341672 -0.04441 0.0767677 3.81896 -4.08862 -5.3793 0.684679 -0.084996 4.02815)
(1.41956 0.0652714 0.144952 -3.34478 -2.99078 -6.34378 1.63015 -0.0251097 1.98766)
(0.421169 0.102653 -0.00684295 1.04869 -0.628385 -7.81919 -0.142592 0.0709755 0.862155)
(-0.539051 0.0367487 0.188215 -6.14643 0.714847 -10.7261 1.17703 -0.0662844 -0.020695)
(-0.969279 -0.000768295 0.41074 -5.28336 1.12024 -3.63609 1.61493 0.128061 1.07706)
(-0.119408 -0.0434661 -0.416977 -23.1371 0.704731 -6.55953 -0.369686 0.242061 0.652633)
(1.01496 0.0458706 -0.619055 3.20907 -0.397411 -9.30992 1.41212 0.00751908 -0.28699)
(-2.21408 -0.0174472 0.0168197 0.68575 3.34483 -18.1292 0.618753 -0.122352 -0.640888)
(-1.24012 -0.102649 0.839341 -47.9026 -2.27801 -6.67322 5.95087 -0.169429 4.26253)
(0.468955 -0.0365184 0.282183 -14.4676 -1.96014 -2.13264 0.753561 0.314749 3.05242)
(0.643915 -0.0742015 -0.347596 -17.3805 -4.62465 -3.98472 1.24413 0.0932082 4.16214)
(2.26788 0.0823969 -0.140788 -4.19281 -6.11119 -1.74141 2.08915 -0.028925 4.3275)
(0.214293 0.146856 -0.161708 6.20486 0.472182 -9.06984 -0.323722 -0.0277948 -0.0118865)
(-2.16111 0.0318605 -0.098061 -9.2469 1.8102 -7.74024 -0.385194 -0.0305864 0.860257)
(-0.218632 -0.0962088 -0.291968 -33.672 0.483108 -3.3863 -1.58844 -0.0748929 0.396521)
(1.83309 -0.0527397 -0.39798 -2.20499 -2.44408 -9.36762 0.880377 -0.205004 0.5578)
(-0.841039 0.140749 0.015681 -0.661411 0.706137 -14.109 1.30959 -0.155414 0.172142)
(-1.79299 -0.0709912 0.616413 -34.9219 2.58824 -11.2151 1.43479 -0.0628048 0.24587)
(1.20329 -0.170578 0.263366 -24.3188 -4.59703 -5.25221 2.44454 0.11573 4.65766)
(2.13333 0.107275 0.0135002 2.32265 -3.50945 -7.02342 -0.340263 0.0112094 1.51797)
(-1.20918 0.103818 -0.134914 7.98752 1.38966 -5.56383 0.526794 -0.0373034 -0.534323)
(-0.924588 -0.0792697 -0.721725 -4.03459 0.121008 -8.88773 2.201 -0.113806 1.45013)
(1.33167 -0.025074 -0.0660478 6.87552 -2.58266 -15.1982 2.42897 -0.190848 1.50112)
(0.539548 0.0602072 0.663288 4.27655 -0.90079 -18.4993 2.91681 0.0945794 1.3258)
(-0.173388 0.0170522 0.390587 8.11248 0.0843757 -6.32233 -0.0536429 0.154811 1.23637)
(-0.593852 -0.0389881 -0.312848 9.35341 0.213185 -5.50309 0.674583 0.00777965 1.50523)
(0.185714 0.0122117 -0.21359 -3.25396 -1.90758 -8.06027 1.59148 0.0375718 2.69696)
(0.0474673 0.0449643 0.453638 -2.35119 1.17251 -11.9239 0.647851 0.0166812 -1.00498)
(-0.0593131 -0.0473949 -0.0517276 -14.9004 -0.0374526 -4.48815 -1.00511 0.118473 1.37027)
(-0.0688455 0.0133908 -0.345547 4.72607 -0.94057 -6.28508 1.29415 0.0258005 1.50147)
(-0.659293 0.132575 0.181898 -1.38789 0.943224 -10.7844 4.05081 -0.0157596 -0.0575331)
(-0.0408503 -0.161849 0.574637 6.94293 1.37596 -8.93926 0.429996 0.578464 -0.427865)
(1.03515 -0.0814095 -0.23259 -14.6347 -2.03262 2.69476 -1.21997 0.307708 1.91136)
(0.299184 0.114259 -0.789531 0.158417 -0.30656 -5.81302 0.927202 -0.064683 0.116588)
(0.125696 -0.112635 -0.811056 13.5777 0.788446 -8.16345 2.08154 -0.215368 -0.53491)
(1.68694 -0.0271065 0.179994 9.97307 -2.60963 -2.73369 4.49309 -0.259496 1.53348)
(0.121507 0.200254 0.806518 10.7815 -0.0209786 -5.55726 1.94794 0.0250974 0.262955)
(-1.68951 0.0321519 -0.0511611 -1.32626 1.78057 -4.82382 1.65883 0.0822582 0.375665)
(-1.11312 -0.198981 -0.311508 0.95736 0.338097 -7.14293 2.41564 -0.0133295 1.25629)
(0.0790845 -0.237478 0.391856 11.9794 -2.35898 -6.22428 0.757312 -0.083264 2.83425)
(-0.00477409 -0.0434804 0.259066 18.95 -3.39139 -5.69096 -0.753966 -0.167078 3.83239)
(0.530365 0.181203 0.0321568 1.78551 -1.45868 -3.60136 1.85462 0.197758 1.22899)
(0.0270882 0.205249 -0.143971 -15.3879 0.0974957 -8.61064 0.735059 0.360262 0.69738)
(-0.554618 0.096901 0.324311 -19.6062 -0.0902864 -4.51331 4.17447 -0.0511222 1.10193)
(-1.2144 -0.00329727 0.481069 -13.4338 1.11649 -4.05631 2.89628 0.378541 0.904709)
(0.365161 -0.0912926 -0.510037 -16.0587 -0.290047 -1.4783 0.129985 0.482832 0.857331)
(1.63241 0.133484 -0.867334 3.90357 -0.777015 -2.04352 2.26882 0.0625724 -0.501367)
(-3.44812 -0.0824163 -0.0666623 -1.37085 2.95552 -8.38198 2.47032 -0.380202 0.0594749)
(-1.39161 -0.264144 1.05867 -6.7394 -1.19966 -10.3093 6.92397 -0.121929 2.94611)
(1.73361 -0.145205 0.418948 -4.73045 -1.90497 -5.39502 -0.768487 0.786893 1.77301)
(0.844339 -0.253455 -0.14314 21.2533 -4.79968 -9.8724 2.71702 0.150641 4.22114)
(2.13651 0.277542 -0.265273 0.548129 -7.70019 -3.02451 4.62529 0.0895788 5.41308)
(-0.102735 0.443079 -0.397582 -3.0118 -0.159514 -9.06949 -0.656758 0.111246 0.669782)
(-2.84212 0.00923851 0.25124 -4.59032 2.44285 -6.10182 -0.464442 0.0134256 0.713418)
(0.160512 -0.234351 -0.207735 -9.4084 -0.116752 3.07869 -0.666724 -0.1092 0.728482)
(2.38728 -0.0087523 -0.766384 3.08609 -2.79086 0.0545977 1.83608 -0.343682 0.423554)
(-1.88756 0.291921 -0.0250185 -3.6203 1.24258 -6.72418 2.44023 -0.268064 0.454815)
(-2.09089 -0.268975 0.738967 -20.8668 2.24694 -2.25022 1.88472 -0.0996515 0.446345)
(2.28096 -0.353191 0.291489 -4.6464 -4.44649 -3.42048 2.67224 0.345258 2.87144)
(2.64659 0.315699 -0.000729233 3.46462 -2.9775 -4.10902 -1.35135 0.162651 0.774337)
(-0.784057 0.207486 -0.130761 -0.925615 1.53191 -5.65142 -0.153164 -0.102188 -0.838764)
(-0.531251 -0.211045 -0.826293 19.219 -1.29374 -2.13636 4.78832 -0.311219 2.21849)
(0.94887 -0.0587161 -0.48777 19.6707 -2.01712 -8.79562 3.44246 -0.236233 1.23398)
(0.32297 0.14539 0.846775 4.81682 -1.83773 -14.4743 4.79977 0.332956 2.29843)
(0.198234 0.0648525 0.853029 8.04546 -0.147968 -2.58792 -1.80452 0.382485 0.833114)
(-0.815002 -0.112958 -0.243509 17.5054 0.191735 -0.267464 0.547587 -0.120606 1.84992)
(-0.486417 0.0479252 -0.462866 1.93575 -2.26012 0.331601 3.85468 0.106575 3.61526)
(-0.564489 0.108674 0.35481 -4.74335 1.32941 -8.41865 2.59565 0.18177 -0.677657)
(0.269205 -0.123167 0.289587 -18.9654 -0.918243 -4.8828 -1.80159 0.319614 1.73437)
(0.389147 0.0660186 -0.594116 2.19174 -1.7468 0.254227 1.82871 0.00360616 1.69593)
(-0.232866 0.249581 -0.135665 0.273549 0.204903 -7.47047 4.50726 -0.0492493 0.35663)
(-0.430638 -0.224558 0.943305 8.99487 1.96516 -11.1208 1.04057 0.93974 0.155995)
(0.556445 -0.150081 -0.0955601 -2.70874 -1.50795 0.637802 1.61423 0.62833 2.25271)
(1.30485 0.194694 -1.08248 -8.24662 -0.941784 -3.85006 1.68546 -0.143063 -0.34007)
(0.536191 -0.158271 -0.560216 14.2332 1.00631 -3.49409 3.45361 -0.383965 -1.15675)
(1.2104 -0.0648677 0.320878 17.1884 -1.48962 1.59713 5.55355 -0.30294 1.49969)
(-0.499689 0.324521 0.65519 4.97834 0.343358 0.374201 1.77989 0.0369995 0.732628)
(-1.77024 0.0626385 -0.168715 -14.6483 2.14482 -3.72341 1.45365 0.103378 0.321882)
(-0.403049 -0.307123 -0.349693 5.38307 0.96896 -3.7836 2.23103 -0.0460177 -0.0223763)
(0.611489 -0.32671 0.33862 8.48638 -0.843629 -2.53817 0.741389 -0.0232885 1.35573)
(-0.267686 0.0123736 0.224242 10.406 -0.920352 -7.00081 -2.54388 -0.203831 2.50337)
(-0.660816 0.274089 -0.02822 -0.890215 0.726323 -5.67364 0.744995 0.17112 0.890324)
(-0.890846 0.178842 -0.0507434 -10.9476 1.21977 -6.26167 0.848502 0.422238 0.721289)
(-0.414046 0.0951089 0.462326 -16.6332 -0.623013 -1.33343 6.15256 0.0469646 1.38241)
(-0.720655 -0.0131353 0.595444 -12.1741 0.721324 -3.96494 2.68567 0.84921 0.684946)
(0.927425 -0.158306 -0.280514 -0.782819 -0.776537 -1.82569 -0.228628 0.847345 0.864933)
(1.88113 0.242148 -1.03037 3.41358 -1.07364 0.812866 2.54055 0.083684 -0.362376)
(-2.76305 -0.0376512 -0.497024 0.229467 2.43177 -2.7843 3.72436 -0.653683 0.652399)
(-1.43722 -0.393562 1.00611 30.6819 0.586961 -10.5144 4.59747 -0.0988286 1.53534)
(2.11094 -0.253081 0.29611 -3.82173 -1.52094 -7.14201 1.78563 1.27283 1.00958)
(0.957349 -0.42239 -0.218283 26.9726 -1.89388 -9.23862 3.30034 0.102742 2.28988)
(0.748071 0.356026 -0.0776171 0.74032 -4.36601 -8.29892 6.39472 0.293429 4.28138)
(-0.0786281 0.758022 -0.332531 -8.36234 -0.690305 -6.24742 -0.683555 0.271365 1.46711)
(-2.49711 0.036824 0.634472 1.77193 3.09755 -5.8917 -0.563257 0.00580717 -0.218604)
(0.228413 -0.413035 0.0885403 3.79377 0.187146 0.201455 0.724875 -0.126838 0.485052)
(2.14334 0.0287377 -0.980439 3.93671 -2.60786 3.22434 2.82313 -0.52771 0.313402)
(-2.24962 0.443896 -0.125856 -3.24235 1.56372 -2.1077 3.27438 -0.360242 0.48099)
(-1.82803 -0.410601 0.81287 4.74861 2.35895 -1.03243 1.11672 -0.0598028 0.339109)
(2.63267 -0.482372 0.143124 10.2129 -3.07983 0.762772 3.45283 0.57589 1.61516)
(2.31707 0.46412 -0.126016 1.37319 -1.56896 -3.75762 -1.82004 0.418846 -0.213685)
(-0.256403 0.199823 -0.0107062 -2.81202 2.0374 -4.81069 -1.74341 -0.224402 -1.43768)
(0.337254 -0.290303 -0.909904 5.21738 -2.16817 -1.11257 5.49054 -0.651478 2.343)
(0.460091 -0.0560766 -0.803326 12.1346 -0.544721 -6.74521 3.62849 -0.290664 0.595194)
(-0.173222 0.169773 1.03711 1.49625 -1.7215 -7.85644 4.7056 0.59993 2.61685)
(0.591051 0.140484 1.24186 4.0903 0.0255778 -2.10806 -3.81798 0.816619 0.161739)
(-0.957719 -0.165027 -0.135341 8.13851 0.63668 0.0568662 -0.272703 -0.36512 1.60792)
(-1.15264 0.0805134 -0.703614 -0.460444 -0.833616 -0.243296 6.13018 0.215066 2.92546)
(-1.21177 0.123367 0.134101 -1.54138 1.63944 -6.09407 5.16805 0.572441 -0.44803)
(0.345962 -0.234158 0.462052 -9.97541 -0.923119 -6.04896 -1.35632 0.650608 1.65013)
(0.995815 0.125726 -0.693526 -3.11873 -1.65632 -3.54656 1.94471 -0.0217911 1.20506)
(0.139865 0.372539 -0.3127 0.826788 0.0306028 -5.07318 4.13945 -0.0834788 -0.0353257)
(-0.209119 -0.274608 1.10123 1.97372 1.62845 -8.84671 2.32376 1.0692 -0.115464)
(-0.115126 -0.276552 0.258969 9.34769 -1.14768 -5.07125 5.60415 1.00659 2.81195)
(1.37596 0.280937 -1.04737 -14.7314 -0.895696 -0.00536359 3.34363 -0.126254 -0.465224)
(1.85218 -0.146141 -0.457602 -1.18609 -0.146263 -0.89748 4.65978 -0.503079 -1.32932)
(1.09145 -0.0694006 0.434722 20.1165 -1.76574 2.53904 6.02038 -0.172208 1.54627)
(-2.02877 0.440392 0.451915 3.91246 1.27911 2.60927 1.37208 0.255849 1.27152)
(-1.65331 0.0725778 -0.32834 -15.395 2.61646 -4.79816 1.27991 0.189336 -0.257195)
(0.423553 -0.39584 -0.225326 6.85328 0.928033 -3.4697 1.20726 0.0261668 -1.0316)
(0.374902 -0.359848 0.173609 3.17475 0.117224 -1.03486 0.05748 0.0331819 0.0695646)
(-0.630083 0.0600336 0.0446584 4.45638 0.148102 -4.53083 -2.06043 -0.14141 1.08544)
(-0.834427 0.320636 0.0895586 -6.92696 1.07383 -5.66377 1.16783 0.214524 -0.130625)
(-0.975133 0.114122 0.148317 1.96588 1.35027 -3.18743 -1.67657 0.448599 -0.0905277)
(-0.653907 0.0624424 0.470115 5.96681 -0.0866251 -0.700222 3.93879 0.203305 0.948338)
(-0.162303 -0.0129823 0.435424 -7.58564 -0.206646 -2.65796 0.332402 1.56426 1.65272)
(1.39216 -0.209327 -0.200969 6.07502 -0.515577 -4.24707 -0.804826 1.29296 0.0616407)
(1.67788 0.34557 -0.917646 2.04742 -1.14014 -4.69369 2.25067 0.203051 -0.48584)
(-1.6217 0.0285057 -0.810782 5.1254 1.58438 -0.78719 5.24396 -0.924688 0.644171)
(-1.66857 -0.525885 0.761105 31.13 1.7042 -7.32101 2.6605 -0.246782 0.669233)
(1.43811 -0.306817 0.519886 1.01446 -0.951175 -9.29317 5.15384 1.8044 0.654439)
(1.15006 -0.434272 -0.216023 9.22199 -1.09054 -3.56791 3.44668 0.138366 0.734361)
(-0.180146 0.353333 -0.0761724 4.66119 -1.56877 -5.83182 5.3133 0.343484 2.80574)
(-0.0334572 0.930244 -0.236804 -13.5474 -1.36882 -2.43134 -0.38508 0.532455 2.22872)
(-2.03186 0.0674559 0.661065 1.63476 3.13088 -4.4701 -0.298646 0.0339897 -0.965034)
(0.304157 -0.612963 0.39613 7.0267 0.590764 -5.30763 2.41051 -0.0416984 -0.0257656)
(1.92272 0.0831598 -0.905448 7.56625 -2.28044 0.963816 3.48001 -0.558137 0.24965)
(-1.79494 0.621878 -0.310746 -3.13621 1.3014 -0.756331 4.09409 -0.402188 0.304917)
(-1.18214 -0.577502 0.931052 18.41 2.18823 -2.16119 -0.81124 -0.0192017 0.104415)
(2.01122 -0.613231 0.116947 18.6921 -3.20806 3.0741 4.55222 0.822868 2.56252)
(1.77442 0.656463 -0.375512 -1.39191 -1.70062 -1.19733 -0.336751 0.939598 -0.161437)
(-0.569678 0.166611 0.0410435 2.87132 1.69153 -5.25316 -2.07197 -0.387111 -1.65878)
(0.420576 -0.382556 -0.952366 -5.37082 -1.59346 0.153384 5.22187 -1.06922 2.04607)
(0.739156 -0.0279406 -0.924861 1.231 -0.39469 -3.20713 4.26387 -0.325801 -0.234425)
(-0.18643 0.182583 1.14999 -0.480449 -1.39224 -4.01095 2.49293 0.85499 2.13827)
(0.620539 0.221165 1.36406 2.37623 -0.0627247 -2.96937 -5.28611 1.22634 0.297386)
(-1.11697 -0.167458 -0.124739 -3.02332 1.00636 -1.87807 -1.06465 -0.591341 1.09306)
(-1.09247 0.11435 -0.866233 2.66723 0.204917 -2.15336 5.03031 0.443082 1.66067)
(-1.16098 0.100986 -0.0265674 2.27041 1.63625 -4.92372 6.36395 1.1942 -0.34254)
(0.151917 -0.341097 0.449374 4.43754 -0.0598259 -7.5422 -0.842224 1.19341 0.832623)
(1.04071 0.138437 -0.68296 -3.03265 -0.792967 -2.97172 1.61448 0.0317276 0.173105)
(0.112553 0.422381 -0.56705 2.02737 0.422291 -2.23703 4.1882 -0.224557 -0.530939)
(0.198554 -0.309622 0.92766 -2.35571 0.959692 -4.59552 3.33442 1.12326 -0.266797)
(-0.653348 -0.330382 0.544827 8.34706 -0.0263422 -7.90772 6.16574 1.29155 2.09938)
(0.492531 0.26262 -0.766944 -8.64469 0.463601 0.844541 6.12873 0.101969 -1.04437)
(3.06839 -0.225991 -0.375981 -7.86369 -0.360439 0.114807 4.21079 -0.583997 -2.12131)
(1.61203 0.0445418 0.577552 -0.716707 -2.50219 2.81967 4.08913 -0.00922004 1.14375)
(-3.06131 0.647912 0.114656 -0.951317 1.38214 3.38956 0.572597 0.459988 1.36912)
(-1.55714 0.034808 -0.617434 -4.62957 3.0107 -5.73997 1.28926 0.210627 -1.52065)
(0.93378 -0.489295 -0.0744606 2.46809 1.38369 -4.88067 1.19113 0.186033 -1.85778)
(0.451925 -0.383015 0.274006 -0.410252 0.623319 -1.43768 -0.081387 0.103054 -0.453246)
(-1.00363 0.0807313 -0.111637 8.14288 0.283127 -0.833142 -0.550101 -0.154688 0.988761)
(-0.833831 0.36133 0.0626932 -5.47276 1.21293 -4.98012 2.68736 0.507915 -0.42172)
(0.103189 0.096608 0.308769 4.22853 1.57253 -3.7896 -1.39204 0.602208 -0.81585)
(-1.12019 -0.0206363 0.502021 17.0647 0.90885 -2.0467 1.72867 0.359203 0.6067)
(-0.768214 -0.0459399 0.340322 -0.26884 0.107656 -3.63337 -2.85273 2.24384 1.73915)
(1.61731 -0.224561 -0.44408 -1.31813 -0.236191 0.454102 0.377016 1.68599 -0.537539)
(1.82886 0.392329 -0.777165 -4.06427 -1.07659 -5.66062 2.38337 0.319144 -0.720809)
(-0.654088 0.173157 -0.666484 7.2752 0.34863 0.396966 5.97915 -1.22419 0.101593)
(-1.72833 -0.574151 0.380407 23.0335 2.70544 -3.34294 2.85509 -0.705714 -0.859462)
(0.503553 -0.46134 0.560623 11.672 0.738374 -10.0654 4.02683 2.12501 0.149092)
(1.21684 -0.468411 0.0460788 1.61039 -0.531813 -4.40972 4.1209 0.38674 -0.163315)
(-0.899616 0.335023 0.00911877 9.45413 -0.833208 -3.54176 2.25107 0.398836 2.22742)
(-0.314487 1.10004 -0.238013 -13.2837 -1.6806 -1.91448 1.11173 0.733748 2.83683)
(-0.970944 0.183553 0.411948 -1.94079 2.72719 -3.58106 0.414297 0.0850202 -1.49009)
(0.674245 -0.806688 0.473155 15.567 1.41711 -6.96074 2.41032 0.0653265 -1.20501)
(1.38854 0.0776177 -0.640034 12.5813 -0.9604 -2.30136 3.59842 -0.466973 -0.248455)
(-1.46618 0.767687 -0.346246 -3.17328 1.1025 -0.239197 5.251 -0.237312 0.176679)
(-0.224046 -0.738618 1.09385 15.4241 1.77099 -3.9594 -2.11309 0.0759222 -0.387402)
(1.18114 -0.766553 0.21942 19.967 -1.61346 2.17128 2.74018 0.918943 2.40331)
(1.16198 0.819414 -0.73761 2.01611 -2.0864 -0.380895 3.37485 1.71728 0.695903)
(-0.529229 0.211336 0.0873688 2.06603 1.0322 -8.18322 -1.34523 -0.437264 -1.43415)
(0.203536 -0.44055 -0.749258 4.57342 -0.268929 0.681567 5.25539 -1.32152 0.914575)
(0.80601 -0.0435088 -1.1095 3.71355 -0.322529 0.638641 6.04259 -0.099488 -0.345574)
(-0.0843598 0.193868 1.044 0.189542 -0.645701 -3.68785 1.42814 1.47104 1.30155)
(0.393725 0.315767 1.39268 0.670848 -0.494868 -4.22421 -5.75393 1.63579 1.01139)
(-0.919551 -0.144325 -0.0740242 -4.45307 1.17529 -2.56555 -1.72496 -0.778655 0.526439)
(-0.754002 0.125279 -0.920165 5.88639 0.230507 -1.08381 -0.18716 0.59927 1.07456)
(-1.08152 0.105367 -0.261759 3.52237 1.26635 -2.70192 5.96317 1.59532 -0.147226)
(-0.0400039 -0.409156 0.612531 11.1151 1.28617 -8.5301 -0.757497 1.80824 -0.355577)
(0.715319 0.131368 -0.505849 -5.24985 0.233749 0.0966245 2.00074 0.100287 -0.722157)
(0.385946 0.428596 -0.681802 5.38152 0.229863 -0.93608 3.90019 -0.241134 -0.70295)
(0.281501 -0.308829 0.641774 -1.01934 0.487904 -0.953421 3.5804 1.21538 0.145072)
(-0.59011 -0.312883 0.687807 3.49932 0.123596 -6.72595 3.47821 1.47229 1.303)
(0.101226 0.254676 -0.400846 3.75681 0.494063 -0.240123 7.43154 0.426617 -0.688251)
(2.39718 -0.387532 -0.299686 8.8795 0.812623 0.838274 3.21557 -0.4215 -3.30392)
(1.62062 0.0657287 0.695795 -12.9848 -1.33682 1.00698 3.33842 0.332103 0.954792)
(-2.25453 0.883188 -0.234091 -13.3922 1.32726 2.84843 0.740451 0.593934 1.45985)
(-1.37541 0.0764851 -0.994827 1.18022 2.98694 -6.04991 2.33468 0.189105 -1.5709)
(0.727311 -0.587236 0.121342 -0.964149 1.51288 -3.85625 2.93236 0.349889 -2.1896)
(0.844359 -0.450071 0.503903 -2.28555 0.750153 -0.849817 0.723285 0.184623 -1.0453)
(-1.01841 0.107541 -0.237575 7.44086 0.288284 -0.700903 -0.101973 -0.173992 1.48818)
(-1.16362 0.424985 -0.156346 -0.141122 1.01231 -3.66938 4.15601 0.619569 0.199561)
(0.812081 0.0903049 0.378926 1.61153 0.769145 -3.7476 1.21413 0.792166 -0.815451)
(-0.98544 -0.0524226 0.48006 5.82176 0.852939 -1.75095 0.210373 0.74691 0.323772)
(-1.64742 -0.105966 0.655211 4.74699 1.08684 -4.4674 -4.33669 2.48844 0.550102)
(1.05051 -0.30738 -0.347119 -3.88155 -0.607954 2.27674 2.94409 2.03678 0.516044)
(2.38535 0.390069 -0.936498 -6.37159 -1.80334 -3.21188 2.3656 0.43272 -0.48957)
(0.560034 0.33205 -0.630331 4.82087 -0.652451 -0.0689125 5.32046 -1.45913 -0.10335)
(-1.2929 -0.488287 -0.0805438 13.6233 2.33783 -0.737659 3.95962 -1.06805 -1.03335)
(-0.269778 -0.563567 0.426114 14.767 1.64373 -8.78919 1.7958 2.29261 -0.304945)
(0.956897 -0.563003 0.3063 2.80357 1.10095 -3.82271 5.43007 0.769591 -0.995132)
(-1.36056 0.25857 0.125109 7.60499 0.0845508 -2.40731 1.02871 0.636645 1.26001)
(-0.963486 1.21264 -0.239987 -2.05489 -0.941847 -1.69469 2.59366 0.806772 2.38802)
(0.287939 0.316315 0.261665 -5.01342 2.12365 -3.68724 1.4184 0.278078 -1.52037)
(1.48822 -0.903659 0.496031 17.9965 1.62828 -5.36289 0.0663844 0.130376 -2.16027)
(0.400372 0.05726 -0.366813 14.2021 0.840604 -2.45702 3.36343 -0.568947 -1.07021)
(-1.58877 0.836964 -0.446612 -5.14401 1.67144 0.617375 6.0309 0.0321214 -0.0110967)
(0.667778 -0.789761 1.11746 11.2339 0.821843 -4.56154 -1.38658 0.323064 -0.468102)
(0.966828 -0.922246 0.407595 12.4206 0.330844 -0.955462 -0.54057 0.761183 0.944158)
(0.330474 0.862628 -1.20995 9.03596 -1.66221 -1.9916 6.12794 2.21038 1.86848)
(-0.358693 0.31496 0.125747 -6.54511 0.868852 -8.24644 0.17757 -0.574197 -1.24741)
(0.580808 -0.490668 -0.230898 7.80856 0.144564 -1.72597 3.98865 -1.57971 -0.157322)
(0.363857 -0.0580645 -1.2738 3.91631 -0.787216 1.05014 5.82252 0.0448276 0.421385)
(-0.452478 0.166963 0.751697 -2.90348 0.663071 -4.11007 0.573247 2.0707 -0.375854)
(0.252849 0.364821 1.45557 -4.11887 -0.798291 -4.07695 -4.30119 2.14892 1.50661)
(-0.698168 -0.108779 0.134247 0.440284 1.69053 -2.67049 -1.44448 -0.795358 0.00207142)
(-0.455711 0.120914 -0.872307 1.22378 -0.132713 1.28602 -1.45695 0.743882 1.60338)
(-0.729274 0.189311 -0.629164 1.26241 0.0879593 1.02022 4.50472 1.73106 0.627648)
(-0.566496 -0.421117 0.668372 11.6881 2.40551 -7.83936 0.675483 2.06156 -1.05019)
(0.30911 0.0665054 -0.171523 -4.90965 0.971395 -2.14149 6.25866 0.24862 -0.812777)
(0.445038 0.377041 -0.445689 9.24977 -0.118729 -1.53924 3.11514 0.0941663 -0.413773)
(0.0161728 -0.31953 0.420732 0.458024 0.594257 0.8939 3.83504 1.42797 0.281318)
(-0.217917 -0.331562 0.596504 3.2463 0.812686 -5.08378 1.28186 1.75357 0.165401)
(1.02928 0.327144 -0.103922 5.4344 -0.844027 -1.75466 5.63977 0.718269 -0.0317733)
(1.58705 -0.379179 -0.268263 15.1428 1.59453 -1.38723 2.11309 -0.0970232 -3.02441)
(-0.448784 0.090023 0.751652 0.461876 0.618556 -2.0463 3.75491 0.606453 1.41967)
(-1.83183 1.0243 -0.503176 -17.3345 1.64274 0.28646 1.71106 0.727278 1.77542)
(-0.425812 0.0478086 -1.19983 0.672783 1.99083 -4.56564 3.28522 -0.00637783 -0.578155)
(0.63387 -0.686386 0.386926 0.706141 1.55721 -1.5959 3.28526 0.502417 -2.14054)
(1.19008 -0.489574 0.542862 1.62758 1.06354 -1.69874 2.02721 0.318863 -1.46187)
(-0.80381 0.102298 -0.359831 3.37562 0.401061 -2.00672 -1.00959 -0.389573 0.979877)
(-1.34002 0.39944 -0.197199 3.91314 0.641437 -2.22397 5.89657 0.585579 0.464402)
(0.583822 0.082498 0.479193 3.63684 0.352024 -2.91583 3.66903 1.10058 -0.458454)
(-0.843656 0.0119263 0.437641 -6.79502 1.13534 -0.758422 -1.55117 1.1158 -0.0905105)
(-1.57778 -0.175058 0.681364 4.51242 1.87846 -2.89898 -2.85328 2.36148 0.148996)
(0.645612 -0.483598 -0.33765 2.46885 -0.756028 -2.73792 3.69005 2.3234 1.35727)
(2.57812 0.38844 -0.978187 0.0709325 -2.08042 -2.07721 2.49289 0.86409 -0.354605)
(1.07387 0.540292 -0.441254 -0.537545 -1.3836 -3.09549 3.70576 -1.43912 0.156167)
(-0.851934 -0.370359 -0.380054 5.65628 1.75468 0.124713 3.85332 -1.46662 -0.48066)
(-0.419858 -0.565519 0.28873 12.6006 1.48818 -7.14906 2.73363 2.19004 -0.639507)
(0.580403 -0.603164 0.610329 7.63206 2.05469 -2.94856 5.39687 0.971968 -1.99131)
(-1.30289 0.153725 0.194345 3.22222 1.38643 -0.894258 3.22194 0.78155 0.234418)
(-1.41669 1.27739 -0.356198 5.90778 0.0391762 -0.850021 3.75245 1.00842 1.57571)
(0.757769 0.407993 0.0876976 -4.1813 0.935972 -3.51523 3.42632 0.695315 -1.44371)
(2.37013 -0.915663 0.584654 10.7389 1.12822 -3.16551 -2.10832 0.263215 -2.56606)
(-0.652959 0.0836453 -0.114229 11.0881 2.21597 -1.46322 2.30691 -0.809259 -1.73277)
(-1.72846 0.759025 -0.530861 -5.80424 2.09567 0.903289 5.54652 0.487849 -0.0279167)
(1.31136 -0.857498 0.946019 8.40819 0.355436 -2.51442 -0.371152 0.69338 -0.846786)
(0.999276 -0.980739 0.438301 1.31455 0.392023 -4.45751 -1.16423 0.666601 -0.336271)
(-0.509041 0.864854 -1.36473 8.67642 -0.245732 -2.16929 6.95501 2.43711 2.06807)
(-0.659806 0.368085 0.1081 -11.1175 0.958686 -5.75749 1.04041 -0.569465 -1.06956)
(1.13341 -0.588711 0.0587662 5.62591 -0.0383584 -3.6557 1.36844 -1.70376 -0.888057)
(-0.140552 0.00590429 -1.31358 -0.494022 -0.213413 -2.38355 4.35185 0.219389 1.01384)
(-0.790738 0.195534 0.599015 -6.78794 1.94139 -1.21637 -1.35398 1.93712 -1.15214)
(0.717081 0.405893 1.51954 -11.2176 -2.04251 -1.07484 -1.26372 2.49669 1.65671)
(-0.447537 -0.0863186 0.40118 1.7614 1.30598 -1.47617 -1.34381 -0.77631 -0.743067)
(-0.707788 -0.0225089 -0.58359 -0.507664 -0.143335 1.20508 0.0437127 0.969135 1.69442)
(-0.14888 0.331738 -1.06904 -2.31267 -1.31227 2.80054 3.69404 1.84704 1.72121)
(-0.558223 -0.326249 0.314516 6.87614 2.33937 -5.21528 2.47899 1.94417 -1.10196)
(0.172626 -0.0633755 0.0992174 1.35016 1.43479 -3.46194 10.9459 0.589046 -1.14192)
(0.289271 0.348235 -0.262247 7.94334 0.103831 -1.96541 3.43064 0.464244 -0.213743)
(-0.302762 -0.212997 0.303255 -0.358602 0.776653 1.17452 4.40276 1.62636 0.652935)
(-0.12103 -0.457346 0.427472 3.49995 1.39932 -3.34387 1.35876 2.08403 -0.629339)
(1.21878 0.326975 -0.0544481 5.36889 -1.06587 -3.6422 4.25893 1.05002 -0.606228)
(1.97228 -0.239564 -0.3325 2.27083 0.913705 -3.22428 1.7429 -0.110855 -2.31145)
(-1.4767 0.0682046 0.860491 9.25108 1.49234 -3.68032 1.90088 0.685233 0.849407)
(-2.27534 1.00869 -0.463502 -8.02065 0.579634 -1.37884 1.75341 0.933431 2.43434)
(0.365091 0.0706506 -1.16584 2.36081 -0.278664 -2.11833 2.74513 -0.31038 0.348744)
(0.833795 -0.671665 0.386465 -0.864833 1.01931 -0.284075 1.85505 0.462052 -1.72107)
(1.08138 -0.563748 0.45821 6.6118 0.930323 -2.35192 3.84716 0.713951 -1.41583)
(-0.807331 0.0651209 -0.278788 0.70098 0.467422 -1.91887 -1.72139 -0.426975 0.862929)
(-1.11941 0.422551 -0.244754 8.2164 0.402434 -1.34502 5.79536 0.443654 0.810295)
(-0.254545 0.141335 0.518005 4.21428 0.556141 -2.18428 3.38993 1.66553 0.309418)
(-0.910535 0.0964433 0.486016 -10.697 0.820141 0.0027203 -0.68216 1.58458 0.201933)
(-0.711872 -0.291486 0.451201 4.54633 1.13339 -2.3269 -0.0558366 2.58227 0.119087)
(0.639118 -0.692537 -0.264458 6.55938 -0.611779 -5.04536 2.04953 2.63654 1.04853)
(2.0602 0.326383 -0.968708 5.31193 -1.12712 0.639699 3.6836 1.38827 -0.521988)
(1.07691 0.70141 -0.425213 -6.23848 -2.29085 -2.42165 3.04503 -1.71595 0.385145)
(-0.000310882 -0.207904 -0.463006 2.83759 0.716626 -0.0498718 2.6982 -2.1247 -0.194262)
(-0.0537555 -0.532848 0.127176 8.94664 0.873336 -5.12045 4.33988 2.06014 -0.152834)
(0.0403836 -0.56934 0.912264 10.8627 2.19519 -4.13325 3.05988 1.12701 -2.27007)
(-1.54175 0.0639947 0.331691 5.55922 2.10611 -1.65834 4.60573 0.734243 0.229676)
(-1.6714 1.16033 -0.495025 3.77124 1.0876 -0.414695 5.42495 0.937536 1.02613)
(0.732476 0.417948 0.0434816 0.704347 -0.125726 -2.85357 6.64135 1.47879 -0.577409)
(2.95355 -0.772232 0.69594 -2.08172 -0.197283 -1.89863 -2.26127 0.65378 -2.32354)
(-1.1774 0.15305 0.0218911 2.80706 2.17056 -3.05617 0.406689 -1.03589 -1.89378)
(-1.84746 0.655467 -0.545136 1.59161 1.34375 0.543107 0.590768 1.08192 0.0199631)
(1.32769 -0.956317 0.58919 3.14454 0.326169 -0.818134 0.935074 1.09957 -1.08356)
(0.990872 -0.97756 0.439639 -0.46809 1.25193 -7.65663 0.808636 0.863874 -0.721373)
(-0.850425 0.920058 -1.32674 1.57575 -0.884554 2.01004 7.3459 2.63443 1.22658)
(-0.638943 0.330746 -0.0237154 11.3881 -0.325756 -7.05181 2.95439 -0.530097 0.4717)
(1.60639 -0.600114 0.0834031 6.85688 0.67934 -3.43903 -0.0288002 -1.5918 -1.07015)
(-0.848693 0.136959 -1.02164 4.29977 0.265195 -4.45979 3.18255 0.309355 0.819806)