/*--------------------------------*- C++ -*----------------------------------*\
  =========                 |
  \\      /  F ield         | OpenFOAM: The Open Source CFD Toolbox
   \\    /   O peration     | Website:  https://openfoam.org
    \\  /    A nd           | Version:  10
     \\/     M anipulation  |
\*---------------------------------------------------------------------------*/
FoamFile
{
    format      ascii;
    class       volScalarField;
    location    "45";
    object      p;
}
// * * * * * * * * * * * * * * * * * * * * * * * * * * * * * * * * * * * * * //

dimensions      [0 2 -2 0 0 0 0];

internalField   nonuniform List<scalar> 
25600
(
-0.00129701
-0.00737211
-0.020022
-0.00102341
0.00999122
0.00267591
0.00203309
-0.00574214
-0.0108678
-0.0109517
-0.00472406
0.00286727
-0.0036613
-0.00304124
-0.00857085
-0.0114405
0.000106434
0.00210783
-0.00621272
-0.0236352
-0.0175991
0.0120269
-0.000657224
-0.00863181
-0.0101387
0.0110873
0.0207289
-0.017253
-0.029394
-0.000607326
-0.000633705
-0.00405269
-0.00123197
-0.00230857
-0.00404771
-0.0164962
-0.0156243
-0.000922477
-0.00886078
-0.0126906
-0.000806253
-0.00715007
-0.0199483
-0.000506614
0.0105608
0.0029411
0.00245845
-0.00532096
-0.0104208
-0.0107546
-0.00466356
0.00311058
-0.00310094
-0.00269766
-0.00828118
-0.0111877
0.00056263
0.00270759
-0.00616442
-0.0235632
-0.0176957
0.0120549
4.37211e-06
-0.00812668
-0.00986291
0.0115194
0.0214557
-0.0171982
-0.0295111
-0.00058422
0.000117984
-0.00374471
-0.00108677
-0.00190252
-0.00384155
-0.0162865
-0.0153599
-0.000454927
-0.00856266
-0.012358
-0.000443032
-0.00747144
-0.019952
-6.55337e-05
0.0111048
0.00271839
0.00249866
-0.00487462
-0.00975388
-0.0107922
-0.00546489
0.00304034
-0.00306606
-0.00249293
-0.0079456
-0.0104862
0.000759422
0.00305783
-0.00611326
-0.023804
-0.0187645
0.0106664
0.000392937
-0.00780409
-0.00982306
0.011216
0.0221814
-0.0175683
-0.0306675
-0.0011015
0.000925787
-0.00343205
-0.001465
-0.00145761
-0.00344431
-0.0159773
-0.0151495
-0.000135275
-0.0080063
-0.0123089
-0.000234312
-0.00831903
-0.0204098
0.000162976
0.011637
0.00209483
0.00200852
-0.00455005
-0.00890655
-0.010577
-0.00675854
0.00269974
-0.0031836
-0.00221869
-0.00803152
-0.00961306
0.000636397
0.00267084
-0.00599661
-0.0243714
-0.0201055
0.00794588
6.59996e-05
-0.00808938
-0.0100389
0.0101604
0.022775
-0.0187468
-0.0335579
-0.00220311
0.00206681
-0.00399712
-0.00213699
-0.000897274
-0.00374714
-0.0154658
-0.0149559
1.20382e-05
-0.00734753
-0.0126457
-0.000234893
-0.00876329
-0.0206441
0.000244343
0.0124361
0.0012971
0.00137452
-0.00442883
-0.00795844
-0.00991782
-0.00770458
0.00259759
-0.00265072
-0.00197486
-0.0082735
-0.00905832
0.000300883
0.00221174
-0.00568677
-0.0248277
-0.0201244
0.00555349
-0.000975434
-0.00917663
-0.0103888
0.0084651
0.0230269
-0.020495
-0.0378114
-0.0041534
0.00400786
-0.00429043
-0.00252987
0.000158353
-0.0048358
-0.0147891
-0.0145577
0.000186488
-0.00656168
-0.0131305
-0.000676198
-0.00893499
-0.0202781
5.10065e-05
0.0138236
-0.000325462
-4.78971e-05
-0.0046832
-0.00705473
-0.00915015
-0.00860637
0.00245139
-0.0033061
-0.0021639
-0.00769236
-0.00988975
-0.000544814
0.00222781
-0.00479301
-0.0247112
-0.0191515
0.003873
-0.000971027
-0.0110475
-0.0107478
0.00658976
0.0226464
-0.0218005
-0.0418522
-0.00759874
0.0063627
-0.00440263
-0.00278365
0.00126946
-0.00570111
-0.0142103
-0.0140301
0.00065251
-0.0057343
-0.0136448
-0.00168141
-0.00865222
-0.0194516
-0.000394895
0.0153793
-0.00299346
-0.00324309
-0.00623836
-0.00650587
-0.00826
-0.00955268
0.0023326
-0.00425632
-0.0026378
-0.00740456
-0.0124546
-0.00212645
0.00343794
-0.00476228
-0.0230319
-0.0167683
0.00258347
-0.000722136
-0.0133585
-0.0107811
0.00558598
0.0213158
-0.0219108
-0.0440423
-0.0117774
0.00873457
-0.00346668
-0.00306979
0.00116719
-0.00571778
-0.0136432
-0.0136853
0.00122476
-0.00469953
-0.0141453
-0.00298147
-0.00763142
-0.0189176
-0.00048593
0.0149433
-0.00472423
-0.00571644
-0.00882186
-0.00662012
-0.00745879
-0.00999888
0.00299114
-0.00521433
-0.00355273
-0.00875022
-0.0161601
-0.00445231
0.00595321
-0.00462726
-0.0200255
-0.0127958
0.00184027
-0.000896938
-0.0157564
-0.0101831
0.00605147
0.0186458
-0.0211509
-0.0442913
-0.0131561
0.0103582
-0.00122562
-0.00334364
-0.000571924
-0.00330228
-0.0126023
-0.0130441
0.00224931
-0.00343833
-0.0145523
-0.00434923
-0.00578391
-0.019139
-0.000825368
0.0139222
-0.00457669
-0.00624204
-0.00992344
-0.00705579
-0.00632966
-0.00957357
0.00232119
-0.00571487
-0.00497621
-0.00968394
-0.0193924
-0.00700374
0.00826313
-0.00281086
-0.0158734
-0.00841217
0.00201833
-0.00104539
-0.0176584
-0.0093693
0.00799919
0.0145255
-0.0209475
-0.0432907
-0.0111736
0.0114891
0.000787933
-0.00314411
-0.00143577
-0.00191437
-0.011199
-0.0121908
0.00339398
-0.00208907
-0.0149409
-0.00553689
-0.00367823
-0.0205916
-0.00332235
0.0136639
-0.00418326
-0.0069267
-0.00918866
-0.0073049
-0.00400513
-0.0085029
0.00154083
-0.00474623
-0.00659755
-0.00976215
-0.0218982
-0.00894736
0.0093476
0.000121711
-0.00965789
-0.00477777
0.00287183
-0.000766554
-0.0163892
-0.00942442
0.00877316
0.00948301
-0.0213465
-0.0396882
-0.0118806
0.0124195
0.00544898
-0.00267857
-0.0021248
-0.00129475
-0.00903029
-0.0119143
0.00342373
-0.00125274
-0.0165162
-0.00671153
-0.00380482
-0.0206709
-0.00603947
0.0123838
-0.00609588
-0.00875479
-0.0081346
-0.00732807
-0.00386394
-0.00667201
0.000148342
-0.00387014
-0.00829953
-0.00899828
-0.0225584
-0.00979153
0.0105273
0.00153088
-0.00323811
-0.000939191
0.00354397
0.000249581
-0.0104072
-0.0102342
0.00642882
0.00659474
-0.0203919
-0.0343335
-0.0144204
0.0131069
0.0111841
-0.00404538
-0.00364335
-0.000297953
-0.00671298
-0.0128224
0.00181218
-0.00074005
-0.0179237
-0.00691379
-0.00616798
-0.0191866
-0.00768961
0.0100249
-0.0099589
-0.0110756
-0.00704826
-0.006615
-0.00292635
-0.0053798
-0.00299222
-0.00331769
-0.00881179
-0.00726538
-0.0205577
-0.010312
0.0119768
0.000410636
0.000617589
0.00238237
0.00306507
-0.00158057
-0.0040888
-0.00989674
0.0037277
0.00470293
-0.0175852
-0.0279023
-0.0139612
0.0108305
0.0123586
-0.00736743
-0.0064421
-0.00127798
-0.00547428
-0.0160523
-0.000499436
0.00011639
-0.0170655
-0.00729473
-0.00811644
-0.0172434
-0.00794505
0.00723809
-0.0143332
-0.0113892
-0.00378844
-0.00503172
-0.00205582
-0.00504467
-0.00663887
-0.00522762
-0.00773989
-0.00555516
-0.0196679
-0.011091
0.0145724
-0.000855669
0.00246762
0.00415346
0.00140488
-0.00277773
-0.00388366
-0.00979258
0.00356594
0.00131024
-0.0143714
-0.0183657
-0.0101999
0.00614254
0.0133738
-0.0057515
-0.0142349
-0.00872795
-0.00406911
-0.0180755
-0.0020543
0.00152678
-0.016301
-0.00618993
-0.00781473
-0.0147393
-0.0064214
0.00490034
-0.0136439
-0.01086
-0.000690301
-0.00317023
-0.000792958
-0.00554114
-0.0095839
-0.00743022
-0.00560616
-0.00695023
-0.0187482
-0.0096943
0.0151348
-0.00214403
0.000333524
0.00264164
-0.000135794
-0.0031256
-0.00825989
-0.0102331
0.00271725
-0.000909139
-0.00974137
-0.00959633
-0.00696904
0.0059787
0.0119925
0.00165568
-0.0181043
-0.0170195
-0.00205091
-0.00949005
-0.00334845
0.00164465
-0.0130169
-0.00739971
-0.00514883
-0.0101082
-0.00134485
0.00367448
-0.0090789
-0.00676172
-0.000122557
-0.000792591
0.000731653
-0.00688683
-0.0114864
-0.00840648
-0.00340927
-0.00788066
-0.0159015
-0.0114502
0.0143623
-0.00139053
-0.00322737
0.00247776
-0.00332473
-0.00317129
-0.011395
-0.0107704
0.00118629
-0.00344016
-0.00664445
-0.00378031
-0.00563711
0.0083786
0.0107161
0.00442397
-0.0120013
-0.0170714
-0.00148963
-0.00806471
-0.00403162
0.00267044
-0.0109731
-0.00625407
-0.00350202
-0.00975304
0.00182542
0.00367843
-0.00632308
-0.00479739
-0.00281312
-0.000467071
0.00166012
-0.00654519
-0.0133608
-0.00843489
-0.000995336
-0.00805544
-0.0138265
-0.0107313
0.012343
-0.00264667
-0.00606755
0.00131142
-0.00761147
-0.00353656
-0.0130326
-0.0115631
0.000931413
-0.00651395
-0.00524905
-0.0014378
-0.0038481
0.00766161
0.0068349
0.00674249
-0.000492366
-0.0122967
-0.00182264
-0.00692884
-0.00240798
-0.000956084
-0.0105286
-0.00648248
0.000257847
-0.00791368
0.000914574
0.00194974
-0.00860155
-0.00135728
-0.00527689
-0.000332528
0.00362502
-0.00878034
-0.0151969
-0.00447261
-0.0017144
-0.00844822
-0.00745233
-0.00574664
0.00802534
-0.00758319
-0.00763384
-0.000238938
-0.0106576
-0.00789995
-0.0114906
-0.0122231
0.00293868
-0.00860212
-0.00603242
-0.000575444
0.000326679
0.00591528
0.00195643
0.00337253
0.00704433
-0.0111001
-0.00215515
-0.00670681
-0.00323317
-0.000425015
-0.00839481
-0.00897412
0.0030537
-0.00488117
-0.00502826
0.00126034
-0.00762203
-0.00107409
-0.00591646
-0.00088605
0.00857243
-0.00395678
-0.0171361
-0.00344553
0.000416322
-0.00388033
-0.00141503
-0.00248228
0.000717324
-0.0139258
-0.00661029
-0.000450904
-0.00971254
-0.0168139
-0.0107466
-0.00670941
0.00941303
-0.00741799
-0.0044096
-0.00130171
-0.0014829
0.00242105
-0.00180995
-0.00529172
0.00398174
-0.0156326
0.000396503
-0.00729065
-0.00587052
-0.000302459
-0.0100487
-0.0124881
0.00382531
0.00038716
-0.00785954
-0.00896495
-0.0114861
-0.00319703
-0.0101114
-0.00594979
0.00658963
-0.00326617
-0.0158686
0.0016911
0.00449064
0.003434
0.0025026
-0.00381593
-0.00409927
-0.0129298
-0.00953185
-0.000989162
-0.0110315
-0.0167249
-0.0059798
0.0036659
0.0121161
-0.00264528
-0.0058267
-0.00292235
0.00159018
0.00117141
-0.00331683
-0.00687098
-0.00273269
-0.0121377
0.00593559
-0.00617461
-0.00758469
0.00304934
-0.00987279
-0.0114638
0.00729966
0.00183377
-0.00599366
0.000270818
-0.00635153
-0.00613688
-0.0139601
-0.00290381
0.00535617
-0.0044469
-0.00697111
0.00764283
0.00724067
0.00894071
0.0070591
0.00107795
-0.00619209
-0.008375
0.000387441
-0.00162279
-0.012586
-0.0161054
-0.00337532
0.0210092
0.00898157
-0.0017043
-0.0086994
-0.00331922
0.000667028
-0.00186244
-0.00223668
0.00445606
-0.00192829
-0.000572312
0.00870647
-0.000610371
-0.00134791
0.00629729
-0.00951133
-0.0137173
-0.0046897
-0.0059324
-0.0060438
-0.00869124
0.00299172
0.0107301
0.00177528
0.00158548
0.00632134
-0.0002174
-0.00642259
0.00512135
0.00624302
0.0107209
0.00920505
-0.00554411
-0.00493599
0.00584158
0.00544653
-0.00637562
-0.0167679
-0.0111254
-0.00436748
0.0218882
0.0142669
0.00318554
-0.00673982
-0.00557973
-0.00948948
-0.00832928
-0.00320893
-5.90106e-05
-0.00915075
-0.0108899
0.00795321
-0.00401908
0.00011029
0.00676753
-0.00803383
-0.0111156
-0.0055301
-0.00804087
-0.009596
-0.00982885
0.0153883
0.0143258
-0.00362286
-0.0101501
0.00165491
0.0135086
0.000742475
0.000180445
-0.00580073
0.00603613
0.00102309
-0.0128014
-0.0114471
0.0025962
0.0044285
-0.0136777
-0.0173302
-0.00811614
-0.00605753
0.0135164
0.0123286
0.00152787
-0.000586848
-0.00567601
-0.0192605
-0.0142691
-0.00137435
-0.000256883
-0.0101856
-0.000403924
0.00982223
0.00310745
0.00709479
0.00251776
-0.00946242
-0.00797594
0.00258429
0.00254076
0.00152627
0.0100777
0.0127071
0.00990286
0.00544338
-0.00619705
0.00641444
0.00792918
0.00355289
-0.00362208
-0.0129644
0.00791852
-0.00919915
-0.0195549
-0.014497
0.000129582
-0.00172216
-0.0174345
-0.0126173
-0.0117056
0.0156691
0.0309867
0.0127038
-0.00471065
-0.0110385
-0.00836972
-0.0141656
-0.00479187
-0.000366807
0.00242281
-0.0144424
-0.00796316
0.00667939
-0.00202833
0.00366337
-0.00960385
-0.0191189
-0.00833726
0.00627222
0.00342288
-0.00125058
-0.00429349
0.0060727
0.0164373
0.0048867
-0.0143837
-0.000776857
-0.00287633
-0.00703248
-0.00838191
0.00704065
0.00447123
-0.0115554
-0.0190261
-0.0182264
-0.0065145
-0.0148073
-0.0238324
-0.00980128
-0.00380721
0.00306008
0.0234489
0.00531459
-0.00244383
-0.00155839
-0.00626181
-0.00605191
-0.0152111
-0.0112986
0.000119126
-0.00743055
-0.0092206
0.0034505
0.0106486
0.0133923
-0.0113447
-0.0239948
-0.0142844
-0.00723723
0.00450553
0.000201491
-0.00366627
-0.00608452
0.0103608
-0.00872668
-0.018318
-0.00612656
-0.0154881
-0.0151974
-0.0105526
-0.00313089
0.00116862
0.00299057
-0.014947
-0.00146508
0.00621229
-0.0175369
-0.0184036
0.00219017
-0.0139292
-0.0071169
0.00528589
-0.000327998
0.0152165
-0.0077425
-0.0287447
-0.00268439
0.0056217
-0.0049219
0.00104187
-0.0110167
-0.00622587
0.00477249
-0.00293216
-0.00706963
-0.00542528
-0.015666
-0.0100723
-0.00764935
0.00227132
-0.0140377
-0.0349247
-0.00921956
0.0213228
-0.0133466
-0.00991301
-0.0266981
-0.0142729
0.00727993
-0.0113597
-0.00452983
0.0109682
-0.000582852
0.00840187
0.0157483
0.00607756
-0.0171934
0.00716566
0.0219766
-0.0195538
-0.00174033
-0.00540133
-0.00220225
0.00368631
-0.00993992
-0.0064135
0.0118148
0.000851468
-0.0188371
-0.00493703
-0.0188064
-0.034752
-0.0142602
-0.0185213
-0.012348
0.000510333
-0.0108586
-0.00494802
-0.00601594
0.00956289
-0.010105
-0.0313159
0.00449421
0.0221164
-0.0122464
-0.019707
-0.0290053
0.0133316
0.00910882
-0.0260469
0.0134607
0.00539922
-0.00726741
0.00928525
0.00421081
-0.0140361
-0.000339943
0.0213085
-0.0556795
-0.0240578
0.02204
0.0111488
0.00558058
-0.00599633
-0.00390031
-0.00359888
0.0112952
-0.0219362
-0.0206934
0.0186292
-0.00369403
-0.0303674
-0.0169903
0.00942679
-0.00874808
-0.0364767
-0.0163354
0.0115861
0.00590721
0.00687296
-0.0116546
-0.0105614
0.0107353
0.0109337
-0.0176494
-0.0313922
-0.011949
0.0258837
0.0210968
0.00873626
0.00359536
-0.0150778
-0.0180085
-0.0113659
-0.015961
-0.0114812
0.0263295
-0.00808885
-0.0304204
-0.00451736
-0.0068222
-0.00340479
-0.0133393
-0.0128164
0.00117867
-0.00387459
0.00459236
0.00195659
-0.00232965
0.0066149
0.0045376
-0.0109181
-0.0157591
-0.0167623
-0.00412896
-0.00127808
0.00834441
0.00854074
-0.00376991
-0.00282629
-0.0247275
-0.0163395
-0.00792929
-0.00323086
-0.00251
-0.003482
-0.000215475
0.00787995
-0.00528042
-0.000378083
-0.00676995
-0.00123817
0.016457
0.0135976
-0.00549032
-0.00252049
0.00520188
-0.0440405
-0.0264975
0.00808607
0.0108343
0.00264514
-0.015697
-0.0119738
-0.0110869
-0.00722261
0.0344217
0.00442484
-0.00852248
0.00874338
-0.0197532
-0.0118157
0.00866363
0.0192906
-0.000229456
-0.0259914
0.00777789
-0.0090317
-0.00935557
-0.030145
-0.0165632
-0.000348605
-0.00492407
0.00141129
0.0107551
-0.0120438
-0.0389128
-0.0277726
-0.0080979
-0.00522432
0.00451734
0.0187689
0.0210063
-0.0165794
-0.0472637
-0.0242019
-0.00492713
-0.0344748
-0.0160051
0.00409858
0.0191742
-0.0296934
-0.0283033
0.00359418
-0.0319936
-0.0238223
-0.00615324
0.00271413
0.000846862
0.0130577
0.0094991
0.00849841
-0.00176601
-0.0247626
-0.0263634
0.0146332
0.00790708
-0.00362891
-0.0240587
-0.0106382
0.0227029
0.00987572
0.00828001
-0.000825171
0.0101674
-0.0326971
-0.0534702
0.004481
0.0162721
0.0197883
0.0185257
0.00854408
0.0265499
-0.0227309
-0.070146
-0.0308969
0.00673503
-0.0179412
0.0179954
0.0338489
0.0137432
-0.0500086
-0.0276938
0.0172114
-0.0329031
-0.0781133
0.0280241
0.0178101
-0.0345743
0.0143363
0.0109594
-0.0281251
-0.0205093
-0.0157043
0.0132106
0.00484374
-0.00691351
-0.0238513
0.00650935
0.0238718
0.00706083
0.0242585
0.022957
0.00817205
0.000201165
-0.0420917
-0.0435642
-0.0311121
-0.0344712
0.0174055
0.0356189
0.00825189
0.0156412
0.0272946
0.0107944
-0.0144866
-0.0070577
0.0318953
-0.00886298
-0.010107
0.0441213
-0.0125463
-0.0275256
0.0081718
0.0223289
0.0140761
0.0301921
0.019487
-0.011326
-0.0155879
-0.00277905
0.0104077
0.0276963
0.0599589
0.0414075
-0.0157133
-0.0360969
0.00568309
0.017174
0.00545353
0.00440496
0.0129799
0.0134355
0.0016499
0.00285588
0.000567356
-0.00367155
-0.00312022
0.0109396
0.0138639
0.0126171
0.010205
0.00231373
0.00497494
0.0109133
0.0103517
0.0071795
-0.00771114
0.00983102
0.00710119
0.00983485
0.0084663
0.0120748
0.0224342
0.00704629
-0.0108876
0.000235607
0.00948207
0.00438775
0.00925622
0.00936336
0.00479147
-0.00284074
0.000681715
0.00925296
0.00738309
-0.0101704
0.00573461
0.0173075
0.00539124
0.00427693
0.0128779
0.0130914
0.0015153
0.00293623
0.000557191
-0.00379455
-0.00316266
0.0108363
0.0138544
0.0125508
0.0102647
0.00225494
0.00487229
0.0110248
0.010371
0.00736686
-0.00779779
0.00937074
0.00710863
0.00993283
0.00834719
0.0116521
0.0224257
0.00709483
-0.0109977
7.94984e-05
0.00959529
0.00438644
0.00904134
0.00938363
0.00475443
-0.00287891
0.000719507
0.00915277
0.00744166
-0.0102622
0.00592254
0.0175486
0.00520557
0.00404523
0.0129194
0.0124638
0.00145664
0.00298487
0.000482242
-0.00407868
-0.00343623
0.010625
0.0139793
0.0124638
0.0107303
0.00204602
0.00470054
0.0110923
0.0102305
0.00741191
-0.00835214
0.00795484
0.00715378
0.0101377
0.00824156
0.0107734
0.0224344
0.00711266
-0.0116569
-2.90712e-05
0.00977811
0.00432561
0.00876268
0.00939894
0.00471191
-0.00301789
0.000867931
0.00901123
0.00777506
-0.0103964
0.0058882
0.0174855
0.00461061
0.00329519
0.0129187
0.0116706
0.000596953
0.00267848
4.18272e-05
-0.00457187
-0.00403575
0.0102997
0.0143116
0.0123073
0.0110149
0.00135542
0.00428786
0.010699
0.00982946
0.00719063
-0.00933508
0.00557979
0.00710347
0.0102896
0.00827846
0.00939683
0.0222258
0.00665904
-0.0130076
5.5314e-05
0.0101724
0.00388216
0.0084543
0.00928316
0.00459314
-0.00326358
0.00033564
0.00831222
0.00785132
-0.0108474
0.00554575
0.0173299
0.00348029
0.00208083
0.0127126
0.010752
-0.000224016
0.00206499
-0.000671571
-0.0048698
-0.00453049
0.00988964
0.0149519
0.0122853
0.0113954
0.000161969
0.0035391
0.0103535
0.00958678
0.00668308
-0.0099573
0.00314098
0.00713844
0.0104458
0.00859635
0.00774692
0.0217158
0.00577447
-0.0149529
0.000383589
0.0109521
0.00306858
0.00806168
0.00908565
0.00458484
-0.0033135
-0.000907658
0.00644188
0.00720746
-0.0114037
0.00465815
0.0170016
0.00281613
0.00114556
0.0124097
0.00938372
-0.00144038
0.00122894
-0.0015286
-0.00500863
-0.00488927
0.00942431
0.0156356
0.0124529
0.0117197
-0.00132596
0.00237363
0.0101668
0.00953441
0.00617744
-0.0102435
0.000586283
0.00721104
0.0105034
0.00921988
0.00609489
0.0209081
0.00487258
-0.0176682
0.00050612
0.0117352
0.00220994
0.00753988
0.00880309
0.00485595
-0.00291785
-0.0020583
0.00358483
0.0055787
-0.0119505
0.00346356
0.0162781
0.0024042
0.000587557
0.0123482
0.00752443
-0.00363991
0.000355013
-0.00236428
-0.00494702
-0.00525034
0.00885066
0.0162841
0.0127012
0.0118686
-0.00315396
0.00109578
0.0102244
0.00905452
0.00591377
-0.00972788
-0.00187682
0.00711282
0.0104849
0.00866028
0.00467388
0.0198108
0.00416503
-0.0208953
0.000111567
0.0124807
0.00185988
0.00680114
0.00861913
0.00500546
-0.00274043
-0.00256348
0.00104127
0.0034245
-0.0125169
0.00258223
0.015196
0.00206624
4.93929e-05
0.0123723
0.00590209
-0.00623887
-0.000302027
-0.00314733
-0.0048993
-0.00576012
0.00794952
0.0161399
0.0126599
0.0117852
-0.0053315
-0.00033222
0.0104289
0.0072421
0.00580255
-0.00796081
-0.00328086
0.00685723
0.0103584
0.00760322
0.00360064
0.0184443
0.00372347
-0.0233802
-0.00058384
0.0130563
0.00211058
0.0057695
0.0083371
0.00495464
-0.00289238
-0.00283816
8.68905e-05
0.00138062
-0.0129916
0.00210839
0.0138998
0.00113487
-0.000946919
0.0127961
0.00543668
-0.00787232
-0.000564417
-0.00361321
-0.00507939
-0.00638621
0.00666598
0.0156332
0.012097
0.0112809
-0.00724925
-0.0011875
0.0105571
0.00396797
0.00546237
-0.00517524
-0.00334716
0.00688635
0.00977083
0.00603625
0.00277931
0.0167702
0.00366844
-0.0240971
-0.00142986
0.0131739
0.00271242
0.00489923
0.00825855
0.00442694
-0.00299327
-0.00367667
0.000570061
0.000168526
-0.0134781
0.00175433
0.0129952
-0.00074117
-0.00314804
0.0131622
0.00655999
-0.0085569
-0.00195814
-0.00353111
-0.0049665
-0.0066723
0.00499361
0.015619
0.0114916
0.0103181
-0.008525
-0.00165639
0.010726
-0.000382777
0.00459039
-0.00205488
-0.00235699
0.00740978
0.00789958
0.00439311
0.00190061
0.0135427
0.00378264
-0.0226292
-0.00339528
0.01147
0.00342059
0.00492628
0.00758187
0.00325106
-0.00293067
-0.00511726
0.00168273
0.000846588
-0.0142684
5.32556e-05
0.0130116
-0.00312535
-0.00637603
0.0130584
0.00824699
-0.00848651
-0.00408116
-0.00288647
-0.00456215
-0.00630896
0.0034246
0.0156992
0.0106681
0.00906148
-0.0089022
-0.0022684
0.0113378
-0.00502423
0.00288542
0.00132908
-0.000703917
0.00784424
0.00535912
0.0034931
0.00160631
0.0119654
0.00413327
-0.0190655
-0.00561428
0.00849811
0.00427988
0.0041068
0.0052248
0.00314067
-0.00314778
-0.00712865
0.00179391
0.00233684
-0.0148908
-0.00420604
0.0127465
-0.00533322
-0.00844404
0.012071
0.00943723
-0.00739784
-0.00537685
-0.00181964
-0.00333229
-0.00566512
0.00215447
0.0156583
0.00953318
0.00782416
-0.00839267
-0.00231128
0.0125341
-0.00677514
0.00062475
0.00435755
0.0016393
0.00737093
0.00291246
0.00375331
0.00245673
0.0112569
0.00433503
-0.0152543
-0.00681732
0.00681312
0.00678138
0.000847309
0.0024294
0.0048861
-0.00258345
-0.00888966
-0.000185531
0.00308128
-0.0151116
-0.00750596
0.0108909
-0.00527297
-0.00714474
0.0104576
0.00617632
-0.0059163
-0.00469649
-0.00186555
-0.00143947
-0.00471312
0.00120167
0.0153645
0.00792027
0.00723093
-0.0076782
-0.00242141
0.0142718
-0.00569073
-0.002447
0.00662809
0.00445543
0.00619914
0.00204736
0.00436599
0.00385437
0.00796991
0.00246784
-0.0154208
-0.00724027
0.00760879
0.00930386
-0.00323041
0.00153033
0.00417804
-0.00143159
-0.00827266
-0.00294404
0.002415
-0.0146826
-0.00879405
0.00977731
-0.00292659
-0.0052338
0.00831698
0.00592313
-0.00474251
-0.0027881
-0.000827809
0.000879339
-0.00361845
0.000252799
0.014315
0.00586388
0.00682692
-0.00721153
-0.00240427
0.0163065
-0.00419884
-0.00684042
0.00742769
0.00732637
0.0052398
0.00155713
0.00478939
0.00342446
0.0044708
5.11994e-05
-0.0128861
-0.00548154
0.00854598
0.0107501
-0.00550998
-0.00181384
0.00320666
0.00111364
-0.00527538
-0.00322713
0.00216577
-0.0130778
-0.00921465
0.00931006
-0.00132183
-0.00386953
0.00743167
0.00522276
-0.00692762
-0.00204372
-0.000726286
0.00190731
-0.00244659
-0.000445222
0.0112117
0.00308001
0.00628326
-0.00592132
-0.004185
0.0183997
-0.00302037
-0.0108557
0.00590993
0.00800889
0.00534932
0.000102788
0.00549741
0.00151455
6.83742e-05
-0.000683401
-0.010509
-0.00621292
0.00945845
0.011473
-0.003678
-0.00996088
0.00146415
0.00392389
-0.00403107
-0.00357094
0.0031447
-0.0104815
-0.00831312
0.0082813
-0.00134575
-0.000943375
0.00654207
0.00902893
-0.0038572
-0.00125942
-0.000640171
0.00316051
-0.00171121
-0.00113705
0.00685546
0.000360312
0.00519373
-0.00420911
-0.00630491
0.0206275
-0.00234607
-0.012676
0.00451659
0.00603234
0.00482554
-0.00127713
0.0058788
0.00103272
-0.00379571
-0.00132238
-0.00812169
-0.00586951
0.00988194
0.0113435
0.00118754
-0.0117153
0.000896698
0.00498317
-0.003849
-0.00171406
0.0052895
-0.00881179
-0.00875864
0.00714295
-0.00212367
0.000891375
0.00560177
0.00557783
-0.00400927
-0.00113566
-0.00218933
0.00379654
0.00271443
-0.00650523
0.00125181
0.000822832
0.00265935
-0.00424836
-0.00776799
0.0157767
-0.00412343
-0.0115751
0.00254253
0.00421778
0.00418085
-0.000574781
0.00470863
0.00176726
-0.00628887
-0.00195584
-0.00913317
-0.00611286
0.00854901
0.00986534
0.000883174
-0.0073497
0.00479783
0.00481918
-0.00440713
-0.00140047
0.00671072
-0.00662972
-0.0101471
0.00436809
-0.0012053
0.00199606
0.00534308
0.000772504
0.000572004
0.000239071
-0.00390907
0.00406861
0.00449822
-0.0111409
-0.00452629
0.00108556
-0.00015537
-0.00610425
-0.0102679
0.00866292
-0.00567914
-0.00803868
0.00124361
0.00168298
0.0019652
0.00199999
0.00577534
0.00352798
-0.00682164
-0.00177365
-0.00666058
-0.00798877
0.00442725
0.00630097
-0.00518017
-0.00403746
0.00690345
0.00216079
-0.00771262
-0.00251107
0.00329904
-0.00746445
-0.0113294
0.00543244
0.00136117
0.00352933
0.00616783
-0.00203149
0.000811736
0.00372548
0.00391329
0.00618001
0.00330256
-0.0101415
-0.00639205
0.00289198
0.000392398
-0.00428366
-0.0136984
0.00124487
-0.00537379
-0.00503065
0.00057104
0.00114207
-0.000726431
-0.00159937
0.00807632
0.00721097
-0.00532823
-0.00143335
-0.00607465
-0.00983901
0.00175671
0.00865525
-0.0057484
-0.00201175
0.00723976
0.00303522
-0.00765755
-0.00260566
0.00160816
-0.00767923
-0.00942833
-0.000191484
-0.000700153
0.00421561
0.00638557
0.000103524
-8.10148e-05
-0.000801554
0.00124262
0.00573324
-0.00121854
-0.00957143
-0.00506837
0.00626006
0.00191991
0.000313932
-0.0126929
-0.00642637
-0.00790687
-0.000476374
0.0014987
-8.30519e-06
-0.00412093
-0.00224175
0.0148408
0.00857424
-0.00318829
0.000335511
-0.00735675
-0.0176268
-0.0039507
0.0149845
-0.00389592
-0.000293843
0.00534454
0.00323859
-0.0052249
-0.00141569
0.00233037
-0.00534
-0.0107343
0.00129257
0.00621696
0.00448957
0.00497255
0.00511834
0.0026105
-0.00300329
0.00233796
0.00430049
-0.00425422
-0.0067846
-0.00454938
0.00717361
0.00458942
0.00202383
-0.00753233
-0.00730944
-0.00410986
0.00119452
-0.000223105
0.000608406
-0.00219062
0.000435465
0.00963748
0.0042823
-0.00065813
0.00134681
-0.00505561
-0.0106177
-0.00430885
0.00299477
-0.00349995
-0.00135457
0.0065041
0.00540524
-0.00342049
-0.000239761
0.00347531
-0.00632552
-0.00820253
-0.00618434
0.00491252
0.0102087
0.00686723
0.00820954
0.00220343
-0.000599073
5.44172e-05
0.000699198
-0.00526815
-0.00531728
-0.00663392
0.0109397
0.00681653
0.00657727
-0.00264154
-0.00714033
-0.000357666
-0.00107076
-0.00320312
0.000296138
0.00288844
-0.00103527
0.00481538
0.00321098
0.00232494
0.00184682
-0.00255534
-0.000313561
-0.00105971
0.0123636
0.00117964
-0.00618323
0.00301271
0.0110904
0.00450673
-0.000850674
0.00490777
-0.00164879
-0.0039161
-0.00290818
0.00246256
0.00900582
0.00991707
0.00789403
-0.00285624
0.00440254
-0.00725993
-0.0114834
-0.00719527
-0.00424823
-0.00847461
0.00628979
0.00582542
-0.00217603
-0.0123053
-0.0135537
0.00246273
0.00256158
-0.00514799
-0.00138389
0.00497588
0.00580423
0.00797341
0.00468189
0.00328122
0.00383949
-0.00270531
0.000174851
0.00188137
0.00821907
0.00893512
-0.00850712
-0.00380525
0.0122662
-0.00912677
-0.00609801
-0.00327345
-0.00409825
-0.00134123
-0.000516931
-0.000887138
-0.00847559
-0.00263974
5.1551e-07
-0.00487406
-0.0045375
-0.0173534
-0.015508
0.00230857
0.00230632
0.00622139
0.00491532
0.00160702
-0.00889417
-0.0134375
-0.00979555
0.00545752
0.00551811
-0.000394046
0.000816904
-0.000255488
0.00327894
0.00313639
0.000991359
0.00433727
0.00124698
-0.00773898
0.0104259
0.00513171
-0.00347961
0.0039995
-0.00759597
-0.00770655
0.00442958
0.00803397
-0.00223599
-0.00900734
-0.00846852
-0.00638805
0.00276422
0.0101895
-0.00352605
-0.0172528
-0.00808107
0.00356701
-0.000290643
-0.00765433
-0.0109431
-0.00259306
0.00529685
-0.00469667
0.00521099
0.0110243
-0.00370316
-0.0118615
-0.00688627
0.00435953
0.00657795
0.000578884
-0.00420824
-0.00402181
-0.00475139
-0.00475983
-0.00363785
0.00695312
-0.00049798
-0.0096576
0.00140519
0.011908
0.00219638
0.00154841
0.00161362
-0.000655284
0.000435001
-0.00936369
-0.0288974
-0.0122418
-0.0106348
-0.0160407
-0.000826766
0.00358114
-0.0130393
-0.0271421
0.000105428
0.0145203
-0.0139419
-0.0164637
-0.0255367
-0.0102679
0.0157699
0.0126106
0.00839655
0.00718564
-0.00455535
-0.0114181
-0.00385932
0.00915128
0.000361214
-0.00152121
-0.00899416
-0.00462167
-0.000958036
0.00520795
0.0050456
0.0049332
-0.00507693
-0.00395716
0.00317863
-0.00185354
0.00380119
0.00118548
0.00451027
-0.00526864
-0.00389967
-0.0239123
-0.0260714
0.00178719
-0.0204917
-0.0167367
-0.00136368
-0.00893423
-0.00649968
-0.0165321
-0.000640079
-0.00989292
-0.0136399
-0.00946705
-0.0297685
-0.00211504
0.0169644
-0.00806521
0.00575964
0.00296964
-0.00723718
-0.0138531
0.00191229
0.00389702
-0.00708539
-0.00837457
-0.030407
0.0109892
0.0155788
0.00386369
0.00619594
-0.00290432
-0.00293988
-0.00144128
0.00189313
0.00369237
-0.00977963
-0.0152152
-0.0108676
-0.00584823
0.00190396
-0.0129667
-0.0221402
-0.0134989
-0.0216307
0.00589705
0.00942676
0.00932227
0.00826929
-0.00319492
-0.00275757
0.00768398
0.00848417
-0.00823466
-0.00419681
0.00307082
-0.00217544
-0.000588643
0.0132527
-0.00209738
-0.00844678
-0.00727516
0.00375868
-0.00341926
0.0166987
0.00582402
-0.0215472
0.0063365
0.00948999
-0.00461216
-0.00792686
-0.00140646
0.0089247
-0.00206204
-0.000576621
0.00578499
-0.0175294
0.00308361
0.011116
0.00176851
-0.00355175
-0.0265133
-0.0141494
-0.000765155
-0.00712368
-0.00129759
0.00506611
3.6319e-05
0.00149209
-0.0107926
-0.00153357
0.00440149
-0.0100721
-0.00407891
-0.00520416
0.0015418
-0.00125081
0.001228
0.00540467
-0.0159366
0.00213818
0.00688905
-0.00201674
-0.00404752
0.00327862
-0.010356
-0.0241781
-0.00440318
0.00189246
0.000130763
0.00828471
0.016506
0.00361918
-0.00810127
0.000444652
0.00453166
-0.00236755
0.00573738
-0.0169188
-0.0149978
-0.00519227
-0.000648418
0.01605
3.92062e-05
-0.0176554
-0.0051105
-0.00507164
-0.0142431
-0.00174128
-0.0127722
0.00576313
-0.000787178
-0.00571901
-5.8292e-05
-0.0133183
-4.44496e-05
-0.00551548
-0.0125498
0.00396782
0.0163156
0.0236396
-0.00517752
-0.0226004
-0.00016543
0.0113465
0.00570323
-0.0243632
-0.0155064
0.00226704
0.000836326
-0.00297643
0.00849913
-0.0111745
-0.0245504
-0.000497553
0.000984561
-0.0110235
-0.00906227
-0.0208084
-0.015326
0.00690345
-0.0180701
-0.0321218
-0.0185939
-0.0160348
0.000798494
0.00868749
-0.0137422
0.00590577
0.0144608
-0.000440131
-0.0152102
-0.0114635
-0.010923
-0.0106345
0.0146537
-0.00264921
0.00894531
0.0107352
0.0081771
0.035346
-0.00297265
-0.0568639
-0.0341594
0.0326989
0.0329436
-0.0475716
-0.0223868
0.0107738
0.0196252
0.0466729
0.0290801
-0.0345122
-0.0641408
0.0293525
-0.00166295
-0.0200521
0.0103521
-0.00712308
-0.00611296
-0.00901504
-0.0351396
0.00252937
0.0108956
-0.0332879
-0.0182705
-0.00744918
0.00176372
0.0105066
0.0179519
0.0275977
0.0259014
-0.0162094
-0.0476232
-0.0130361
-0.0169731
0.00221094
0.0238423
0.0136231
0.0220557
0.000294284
0.0048173
0.0209734
-0.0202267
-0.00705874
-0.00853991
-0.0566489
0.000965775
0.0532911
-0.0102664
-0.0129652
0.00981938
0.000511053
-0.00947157
0.00856267
-0.0195259
-0.0396639
0.0057997
0.0315357
0.0195653
-0.00741344
-0.0338459
-0.0140397
-0.0608496
-0.0496356
0.000590859
0.00880035
0.00282041
-0.00512689
-0.0118442
-0.0070438
-0.00187308
0.0056023
0.00477471
-0.00717052
-0.00985003
-4.51443e-05
0.00656192
0.000201161
0.00549417
0.00813333
0.00305838
0.000252327
-0.000727294
0.014999
0.00374021
-0.0109463
-0.0111015
-0.00657552
-0.00156638
-0.00896522
0.00567988
0.0120098
-0.0140796
-0.0101984
0.0142849
0.000747755
-0.00232044
0.0115191
0.00463252
-0.0052279
0.00344163
0.0084309
0.010587
0.00166589
0.000476398
0.00872936
0.00269902
-0.00532714
-0.0120735
-0.0073665
-0.00193237
0.00565567
0.00483139