/*--------------------------------*- C++ -*----------------------------------*\
  =========                 |
  \\      /  F ield         | OpenFOAM: The Open Source CFD Toolbox
   \\    /   O peration     | Website:  https://openfoam.org
    \\  /    A nd           | Version:  10
     \\/     M anipulation  |
\*---------------------------------------------------------------------------*/
FoamFile
{
    format      ascii;
    class       volVectorField;
    location    "45";
    object      U;
}
// * * * * * * * * * * * * * * * * * * * * * * * * * * * * * * * * * * * * * //

dimensions      [0 1 -1 0 0 0 0];

internalField   nonuniform List<vector> 
25600
(
(0.614735 0.00157758 0.379592)
(0.609047 0.00346637 0.417315)
(0.654407 0.0038848 0.393431)
(0.679926 0.000776281 0.374325)
(0.612375 0.00154782 0.351985)
(0.653725 0.00275761 0.325892)
(0.711477 -0.000192164 0.372855)
(0.694719 0.0013286 0.390569)
(0.635268 0.00315402 0.364726)
(0.588396 0.00409939 0.352075)
(0.563179 0.0048305 0.360392)
(0.623453 0.00235769 0.352403)
(0.712453 0.00261834 0.392834)
(0.671377 0.00285359 0.37381)
(0.669153 0.00283516 0.41155)
(0.611974 0.00219997 0.426917)
(0.642482 0.00132109 0.37492)
(0.679649 -0.000263786 0.377948)
(0.513166 0.00553738 0.331783)
(0.557974 0.0053548 0.415311)
(0.514425 0.00318554 0.386468)
(0.610274 0.00123589 0.379603)
(0.699399 0.00166688 0.389267)
(0.65943 0.00172394 0.368263)
(0.565497 0.0038653 0.375052)
(0.602831 0.00189075 0.344267)
(0.682975 -0.00111998 0.337576)
(0.59662 0.00481113 0.358093)
(0.514167 0.00430972 0.38962)
(0.632195 0.00146485 0.372911)
(0.701218 0.000788352 0.393004)
(0.5444 0.00293826 0.367005)
(0.594953 0.00281465 0.331832)
(0.644787 0.00242118 0.37299)
(0.654816 0.00231625 0.406744)
(0.631421 0.00300739 0.403287)
(0.611906 0.00198717 0.372699)
(0.664673 0.00185748 0.381899)
(0.635715 0.00292681 0.408162)
(0.640224 0.000734821 0.374303)
(0.560883 0.00909363 0.316488)
(0.546147 0.0117352 0.387514)
(0.630968 0.000290506 0.346817)
(0.743762 0.00200514 0.330248)
(0.555775 0.00506208 0.262549)
(0.718398 -0.00164581 0.176076)
(0.830568 0.00173268 0.284651)
(0.776001 0.00940558 0.333291)
(0.604636 0.0098362 0.276295)
(0.53247 -0.00100082 0.276072)
(0.507496 -0.0102467 0.324254)
(0.583743 -0.0110029 0.292469)
(0.783322 0.00123462 0.353599)
(0.680681 0.00960585 0.293891)
(0.681066 0.00907074 0.390139)
(0.489504 0.00891445 0.380655)
(0.647047 0.000374898 0.315587)
(0.69637 0.0182765 0.257383)
(0.21354 -0.00173293 0.306068)
(0.439225 -0.00174927 0.416344)
(0.304925 -0.00977384 0.36972)
(0.554305 -0.0177646 0.350658)
(0.759539 0.00513632 0.343517)
(0.62647 0.0123977 0.316816)
(0.337447 0.0134363 0.323902)
(0.557658 -0.00568112 0.262494)
(0.697298 0.00116909 0.242324)
(0.41584 0.0222415 0.262104)
(0.325204 -0.0110321 0.363883)
(0.63014 -0.0128043 0.316395)
(0.766386 0.0080817 0.367764)
(0.405631 0.00898574 0.291854)
(0.571304 -0.00550222 0.223234)
(0.656007 0.00252417 0.270266)
(0.688409 0.00516255 0.356743)
(0.634844 0.007076 0.355231)
(0.564906 -0.00230775 0.294472)
(0.665479 0.0086637 0.311298)
(0.58148 0.0065711 0.382591)
(0.653944 -0.00023896 0.302204)
(0.54231 0.0147795 0.242351)
(0.560868 0.0167775 0.346185)
(0.533062 -0.01609 0.359074)
(0.764137 -0.000205243 0.304179)
(0.595076 0.00674471 0.205208)
(0.778468 -0.020657 0.136545)
(0.928662 -6.74339e-05 0.229367)
(0.82684 0.0170045 0.297505)
(0.603813 0.00774343 0.226081)
(0.59867 -0.0201204 0.23107)
(0.624001 -0.0387664 0.299187)
(0.589193 -0.0309604 0.284908)
(0.717544 -0.005567 0.307973)
(0.601234 0.0101654 0.256864)
(0.610208 0.0144768 0.370643)
(0.357682 0.00882759 0.35943)
(0.669307 -0.00380454 0.278691)
(0.691458 0.0364067 0.185031)
(-0.00431607 -0.0179426 0.251096)
(0.404777 -0.0166404 0.39111)
(0.34544 -0.0472534 0.338814)
(0.5591 -0.0701561 0.364803)
(0.768539 0.00402794 0.290983)
(0.570782 0.0214544 0.282547)
(0.201208 0.0107301 0.338982)
(0.572559 -0.0238687 0.248047)
(0.680922 0.00532336 0.186104)
(0.22574 0.0347872 0.234842)
(0.242552 -0.044371 0.33292)
(0.653187 -0.0386513 0.297403)
(0.791026 0.0138706 0.334031)
(0.505233 0.00646309 0.273286)
(0.676562 -0.0239193 0.169996)
(0.692142 -0.00936307 0.166132)
(0.748084 0.00228232 0.334536)
(0.741376 0.00637737 0.343555)
(0.581882 -0.0198542 0.290497)
(0.639124 0.0137689 0.251216)
(0.473258 0.00191958 0.355501)
(0.687308 -0.00965354 0.310134)
(0.541473 0.0197471 0.18909)
(0.631249 0.028285 0.274994)
(0.455895 -0.0238173 0.376613)
(0.733334 -0.00257859 0.264812)
(0.712018 0.0158989 0.16527)
(0.84361 -0.0311099 0.144212)
(0.964581 0.000570018 0.218554)
(0.767943 0.030313 0.276572)
(0.610402 0.0155392 0.192717)
(0.669125 -0.0276329 0.203182)
(0.741993 -0.0489755 0.254738)
(0.62114 -0.027891 0.249743)
(0.605592 0.0024228 0.251377)
(0.438847 0.00847559 0.237837)
(0.51807 0.0216903 0.34192)
(0.292803 0.00477103 0.362565)
(0.690307 -0.00995324 0.294939)
(0.678944 0.0546093 0.156498)
(0.159183 -0.0141855 0.182465)
(0.372443 -0.0253 0.353572)
(0.578778 -0.0645074 0.246355)
(0.568752 -0.11149 0.30779)
(0.725829 0.000257559 0.233084)
(0.573652 0.0423152 0.242862)
(0.220401 0.01453 0.357421)
(0.59335 -0.0382049 0.269285)
(0.658655 0.0151925 0.164173)
(0.165413 0.051185 0.232996)
(0.274627 -0.061289 0.328141)
(0.672035 -0.0492203 0.268193)
(0.756566 0.0248502 0.301252)
(0.619674 -0.0035732 0.26792)
(0.812945 -0.0277659 0.123503)
(0.726143 -0.0211047 0.0953886)
(0.787066 0.00237909 0.32017)
(0.848614 0.0112448 0.350857)
(0.591393 -0.0297619 0.301623)
(0.611898 0.0237574 0.212241)
(0.351345 -0.00486623 0.321327)
(0.671106 -0.0213427 0.305444)
(0.544019 0.0166452 0.145828)
(0.675774 0.0424388 0.196619)
(0.504296 -0.0370453 0.35952)
(0.641381 -0.0136957 0.256871)
(0.761962 0.0201202 0.158045)
(1.01795 -0.039563 0.156321)
(1.01606 0.00282407 0.235359)
(0.641097 0.0446395 0.251897)
(0.665416 0.0215448 0.177478)
(0.703353 -0.0304475 0.203298)
(0.755157 -0.0503862 0.209502)
(0.583197 -0.0219103 0.210483)
(0.58771 0.0108575 0.226625)
(0.385127 0.0023047 0.238352)
(0.451984 0.0224434 0.318842)
(0.346739 -0.00145941 0.331952)
(0.71596 -0.019121 0.286268)
(0.688284 0.0687873 0.148368)
(0.413334 -0.00866831 0.114969)
(0.339712 -0.0379406 0.293613)
(0.683774 -0.0715242 0.223641)
(0.587987 -0.124836 0.250893)
(0.656895 -0.00782502 0.206283)
(0.588465 0.0617881 0.20624)
(0.242493 0.0146997 0.337471)
(0.62895 -0.0584491 0.2919)
(0.639434 0.024844 0.160639)
(0.280296 0.0671655 0.219824)
(0.393858 -0.0844315 0.347606)
(0.668633 -0.0611967 0.251924)
(0.757969 0.039654 0.270433)
(0.557576 -0.0201981 0.260704)
(0.826191 -0.0312857 0.0863895)
(0.719008 -0.0333864 0.0614503)
(0.805282 0.000854285 0.301779)
(0.851463 0.0159502 0.343801)
(0.576344 -0.0311453 0.288492)
(0.622215 0.0343885 0.172887)
(0.345376 -0.0105371 0.275455)
(0.643608 -0.0314242 0.265145)
(0.554768 0.0205094 0.118581)
(0.654401 0.0517345 0.14741)
(0.597363 -0.0403714 0.294174)
(0.517116 -0.0150236 0.262879)
(0.670418 0.0139468 0.150052)
(1.11727 -0.0583711 0.179627)
(1.04488 0.0171367 0.258255)
(0.546395 0.0686943 0.213745)
(0.700396 0.0303869 0.141216)
(0.711853 -0.0250759 0.190775)
(0.810112 -0.0468811 0.195635)
(0.521223 -0.0129122 0.166914)
(0.633092 0.023077 0.204667)
(0.539059 0.0085818 0.226398)
(0.417703 0.0168703 0.303049)
(0.373282 -0.00139539 0.303175)
(0.718239 -0.0268357 0.221782)
(0.741141 0.0766762 0.144108)
(0.609145 0.0133003 0.0825637)
(0.401375 -0.0381729 0.213603)
(0.688746 -0.081862 0.195075)
(0.662423 -0.132429 0.224626)
(0.524183 -0.0227375 0.19541)
(0.591636 0.0872425 0.181019)
(0.318035 0.0249945 0.278538)
(0.714784 -0.0711567 0.278063)
(0.612179 0.0330196 0.154131)
(0.422796 0.084095 0.20159)
(0.569519 -0.106833 0.372092)
(0.647642 -0.0772954 0.254746)
(0.797145 0.0482725 0.224569)
(0.547685 -0.0246921 0.270848)
(0.823987 -0.0340587 0.082575)
(0.718346 -0.0412038 0.0352922)
(0.824289 -0.00116051 0.273214)
(0.807719 0.0265638 0.323994)
(0.640535 -0.0271232 0.272785)
(0.645755 0.0467603 0.143249)
(0.420452 -0.00553638 0.21162)
(0.627628 -0.0319632 0.267089)
(0.577388 0.0237985 0.112271)
(0.637348 0.0578378 0.123058)
(0.640439 -0.0371551 0.231528)
(0.51626 -0.00588817 0.265157)
(0.639943 0.0168928 0.161124)
(0.97573 -0.08134 0.198357)
(1.00465 0.0210372 0.293756)
(0.562669 0.0928358 0.169332)
(0.701183 0.0452541 0.0982563)
(0.687724 -0.0199369 0.179977)
(0.887739 -0.0465592 0.199419)
(0.503632 -0.00355469 0.134151)
(0.63875 0.0367724 0.164289)
(0.660727 0.0174556 0.205263)
(0.462431 0.0243316 0.258191)
(0.315259 -0.0040883 0.341484)
(0.641622 -0.0361923 0.197227)
(0.789444 0.0722582 0.153722)
(0.773636 0.0355125 0.0672116)
(0.552331 -0.0237364 0.132389)
(0.704224 -0.0794108 0.150245)
(0.752883 -0.13663 0.195428)
(0.449794 -0.0363337 0.174788)
(0.549715 0.103999 0.151257)
(0.486068 0.0386365 0.228135)
(0.843597 -0.0729022 0.250873)
(0.591407 0.0417265 0.157934)
(0.516654 0.0960592 0.155383)
(0.72388 -0.105858 0.37764)
(0.714718 -0.0985427 0.247601)
(0.787225 0.0554769 0.13805)
(0.636244 -0.023089 0.267231)
(0.891746 -0.0369852 0.100477)
(0.721329 -0.0415687 0.00441731)
(0.811015 -0.0110815 0.231177)
(0.777557 0.0337712 0.301289)
(0.674274 -0.0282996 0.273397)
(0.678955 0.0538192 0.13231)
(0.524868 0.010524 0.140246)
(0.552002 -0.026819 0.263566)
(0.650158 0.0249156 0.100205)
(0.638397 0.0595443 0.130893)
(0.661099 -0.0374018 0.178789)
(0.58691 -0.0079857 0.253794)
(0.847279 0.0305263 0.165928)
(0.91667 -0.0808732 0.191864)
(0.79513 0.0371402 0.311883)
(0.551042 0.122189 0.111775)
(0.68373 0.0583533 0.0705023)
(0.66161 -0.0113959 0.174969)
(0.936309 -0.042338 0.182402)
(0.526254 0.00425276 0.105653)
(0.653665 0.0362985 0.137228)
(0.64066 0.0228094 0.196468)
(0.502682 0.0378032 0.223918)
(0.306203 -0.0117414 0.335095)
(0.606345 -0.0593295 0.16537)
(0.819276 0.0624784 0.14101)
(0.837079 0.0532792 0.0747474)
(0.667158 -0.00811136 0.0624649)
(0.745418 -0.0608314 0.12722)
(0.784689 -0.127911 0.186081)
(0.499622 -0.0392223 0.168265)
(0.494394 0.124087 0.117658)
(0.623854 0.0544607 0.185274)
(0.972774 -0.0551496 0.233491)
(0.526853 0.0630417 0.165739)
(0.610983 0.0991619 0.12149)
(0.769906 -0.0983825 0.348939)
(0.829733 -0.10916 0.222567)
(0.685112 0.0632396 0.0791253)
(0.682305 -0.0211056 0.235731)
(0.898695 -0.0493783 0.0989304)
(0.669473 -0.0266819 -0.0311888)
(0.736365 -0.0181777 0.20091)
(0.810112 0.0553041 0.27305)
(0.65834 -0.0293792 0.29394)
(0.663392 0.0469702 0.164758)
(0.62243 0.0371849 0.0789542)
(0.537297 -0.0139291 0.222873)
(0.758459 0.0211658 0.0794267)
(0.651209 0.0680477 0.140399)
(0.703396 -0.018086 0.137924)
(0.61571 -0.0233324 0.227599)
(0.927268 0.0476582 0.132501)
(1.03813 -0.0683742 0.153801)
(0.672739 0.0499604 0.299825)
(0.560928 0.132948 0.0784487)
(0.718691 0.0767125 0.0646427)
(0.717904 0.000357892 0.145342)
(0.949003 -0.039612 0.160378)
(0.581275 0.00938354 0.0925403)
(0.716372 0.0431569 0.105689)
(0.531804 0.0386916 0.190139)
(0.538055 0.0630894 0.202985)
(0.373436 -0.0184123 0.283298)
(0.653148 -0.0762806 0.160438)
(0.782221 0.0423329 0.0897962)
(0.875135 0.0675837 0.0718624)
(0.79202 0.00506012 -0.00181574)
(0.867645 -0.0390835 0.0888445)
(0.810108 -0.107446 0.177734)
(0.567487 -0.0348382 0.161596)
(0.456924 0.120376 0.0822516)
(0.686945 0.059622 0.167453)
(1.05933 -0.0307009 0.22109)
(0.487648 0.0834122 0.175307)
(0.676932 0.10434 0.108393)
(0.724949 -0.0992604 0.284774)
(0.886619 -0.10504 0.212159)
(0.564787 0.0757951 0.026464)
(0.747107 -0.0242711 0.196743)
(0.894639 -0.0419903 0.0477804)
(0.599068 -0.00189303 -0.0147565)
(0.577856 -0.0521364 0.210261)
(0.80326 0.0558573 0.273091)
(0.669501 -0.0296378 0.291353)
(0.630485 0.0266584 0.187124)
(0.650565 0.0549402 0.0452155)
(0.575521 0.00167526 0.195543)
(0.821047 0.0268965 0.0548921)
(0.635794 0.0748213 0.156088)
(0.729588 -0.00607216 0.112901)
(0.707088 -0.0287439 0.172197)
(0.889107 0.0475398 0.0956348)
(1.12246 -0.0479242 0.113682)
(0.630314 0.0499974 0.279774)
(0.59177 0.117298 0.0588767)
(0.66172 0.0796724 0.063273)
(0.801207 0.00758451 0.126642)
(0.948869 -0.0330166 0.141375)
(0.700892 0.0132265 0.076584)
(0.756735 0.0468774 0.0906747)
(0.412668 0.0390835 0.196961)
(0.587283 0.0620327 0.175857)
(0.457964 -0.024428 0.227421)
(0.729416 -0.0824574 0.178915)
(0.690168 0.0121964 0.0897522)
(0.888041 0.0672657 0.0768669)
(0.846699 0.00892577 -0.041049)
(0.979484 -0.0143813 0.0349088)
(0.922564 -0.0823207 0.143724)
(0.580966 -0.0145073 0.161963)
(0.504659 0.121098 0.0557)
(0.577627 0.047836 0.14553)
(1.01913 -0.0106842 0.164751)
(0.559783 0.0919272 0.175424)
(0.682826 0.107558 0.1071)
(0.76027 -0.0700663 0.179556)
(0.839242 -0.130105 0.270461)
(0.929784 0.0563167 -0.0671098)
(0.838129 -0.00778199 0.162503)
(1.00179 -0.0451494 0.0061593)
(0.758849 0.0265329 -0.0748827)
(0.580007 -0.0575254 0.107795)
(0.735612 0.066659 0.211618)
(0.707511 -0.0184971 0.241227)
(0.673189 -0.00892937 0.173284)
(0.655144 0.0648862 0.0292604)
(0.654402 0.0137449 0.15352)
(0.868487 0.0257005 0.0250517)
(0.604499 0.0842742 0.164855)
(0.775273 0.0167243 0.072141)
(0.768085 -0.018255 0.116328)
(0.80119 0.0516032 0.066155)
(1.08111 -0.0080621 0.0625812)
(0.785229 0.0496592 0.244014)
(0.684076 0.10706 0.095107)
(0.656469 0.0766877 0.061456)
(0.889243 0.0178564 0.110689)
(0.920901 -0.0208693 0.129997)
(0.761304 0.0214919 0.054656)
(0.789955 0.0645197 0.0699462)
(0.410665 0.0532477 0.147302)
(0.641633 0.0618837 0.136351)
(0.588143 -0.0136183 0.171425)
(0.816997 -0.078979 0.128003)
(0.586096 0.0137276 0.0961592)
(0.857974 0.0558866 0.0663973)
(0.834571 0.00114106 -0.0516004)
(0.892583 -0.00272582 0.0151406)
(1.02737 -0.0548007 0.106179)
(0.54153 0.00552706 0.184157)
(0.664981 0.120735 0.0366574)
(0.476292 0.0449557 0.0880705)
(0.827938 -0.00799282 0.117416)
(0.693037 0.111644 0.148591)
(0.654805 0.0893138 0.104878)
(0.780651 -0.0492435 0.121499)
(0.960008 -0.137026 0.216733)
(1.02579 0.0145912 -0.114686)
(0.889463 0.00672786 0.136406)
(1.00459 -0.0364881 -0.0225308)
(0.844013 0.0835353 -0.132719)
(0.666096 -0.0362485 0.0976243)
(0.722403 0.0593921 0.15765)
(0.792173 -0.013146 0.193578)
(0.705632 -0.0283962 0.155416)
(0.672393 0.0667567 0.0225252)
(0.771673 0.0123459 0.0857139)
(0.914015 0.0448733 0.00458841)
(0.645194 0.0897659 0.148632)
(0.784833 0.0313335 0.0303233)
(0.767719 -0.00942231 0.0584038)
(0.796722 0.0567216 0.035391)
(0.962109 0.0155505 0.0238707)
(0.819739 0.0393952 0.212301)
(0.754067 0.110444 0.181748)
(0.730281 0.0649971 0.113017)
(0.872383 0.0215918 0.124815)
(0.933381 -0.00347239 0.119943)
(0.802384 0.0348003 0.0351097)
(0.780903 0.0889935 0.0797432)
(0.566036 0.0581933 0.0758604)
(0.625306 0.0597588 0.0819165)
(0.687584 -0.00297506 0.15632)
(0.83296 -0.0572976 0.0410024)
(0.588733 0.0217513 0.103271)
(0.755248 0.0356352 0.122183)
(0.867014 0.00915139 -0.0398634)
(0.771341 -0.0113294 0.0527195)
(0.956751 -0.0338259 0.131013)
(0.523233 0.0242848 0.181082)
(0.769768 0.102221 0.00948707)
(0.566239 0.052521 0.047241)
(0.677952 -0.00823707 0.0749745)
(0.734391 0.10867 0.0817332)
(0.938256 0.0824375 0.0580924)
(0.696526 -0.0593598 0.0920586)
(1.19494 -0.145263 0.133775)
(0.869726 0.0185461 -0.0347111)
(0.86132 0.0361358 0.183739)
(1.01621 -0.0131898 0.00964133)
(0.768879 0.0971116 -0.0245732)
(0.589283 -0.0401488 0.186141)
(0.661898 0.0440896 0.13884)
(0.853086 -0.00749708 0.142261)
(0.737114 -0.0418319 0.119068)
(0.735779 0.0367254 0.0382477)
(0.83931 0.016457 0.041353)
(0.967259 0.0235246 -0.0301177)
(0.752552 0.100937 0.120714)
(0.892605 0.0798494 0.0115946)
(0.819032 0.00224118 0.0180189)
(0.787261 0.05623 0.0206207)
(0.994323 0.0535584 -0.0134353)
(0.823173 0.0279495 0.192415)
(0.82279 0.0977673 0.225991)
(0.773543 0.0575938 0.137231)
(0.786796 0.00840434 0.11819)
(0.963473 0.0127573 0.0870403)
(0.858106 0.0555038 -0.00098351)
(0.684354 0.0678379 0.112766)
(0.684251 0.0718059 0.0467261)
(0.61261 0.0745866 0.0471993)
(0.614949 0.00708079 0.149385)
(0.910079 -0.0254112 -0.0382274)
(0.62963 0.0380582 0.119227)
(0.63139 0.0155261 0.158777)
(0.737009 0.0139761 -0.0200083)
(0.684282 0.00319088 0.0937285)
(0.867429 -0.0227904 0.156598)
(0.695191 0.0263423 0.143502)
(0.783511 0.0766533 0.0166923)
(0.714672 0.0402391 0.0969338)
(0.691407 0.0175774 0.0738452)
(0.701388 0.0943543 -0.0114062)
(1.16122 0.0578434 -0.0274002)
(0.899669 -0.0348768 0.0160996)
(1.07874 -0.145177 0.120108)
(0.793959 0.0452967 0.0244849)
(0.860332 0.026418 0.165964)
(0.800556 -0.00763426 0.039148)
(0.51179 0.14186 0.0225567)
(0.583012 -0.00925477 0.137676)
(0.597782 0.024873 0.112192)
(0.909148 -0.00216409 0.0355397)
(0.937549 -0.0432072 0.0472134)
(0.826909 0.0233303 0.04845)
(0.872978 0.00586788 0.00979962)
(0.975986 0.0481228 -0.0387836)
(0.710975 0.0817464 0.0942585)
(0.963926 0.0922037 0.0236179)
(0.948987 0.0187807 0.00618788)
(0.755188 0.0684607 0.0714486)
(0.953229 0.0639775 0.00137085)
(0.950498 -0.0221939 0.155972)
(0.876613 0.0656751 0.247712)
(0.875923 0.0574689 0.141478)
(0.784256 0.0141587 0.0929194)
(0.96805 0.000667271 0.0730611)
(0.908536 0.0961759 -0.0388393)
(0.730167 0.100003 0.0791903)
(0.687209 0.0434597 0.0598336)
(0.704722 0.0812433 0.0237342)
(0.606029 0.0177649 0.108479)
(0.963953 0.00744418 -0.111825)
(0.731539 0.0380902 0.0950735)
(0.611225 0.00182807 0.170106)
(0.63407 0.0333557 -0.0132161)
(0.761495 -0.000770566 0.0622973)
(0.866231 -0.0331051 0.123358)
(0.836215 0.0259407 0.0854762)
(0.924332 0.0970873 -0.00680268)
(0.74011 0.047875 0.13333)
(0.749082 0.0342941 0.0664049)
(0.84776 0.0845592 -0.0827879)
(1.10653 0.0231883 -0.0347819)
(0.998883 -0.015868 -0.0116641)
(0.930816 -0.112866 0.123812)
(0.893995 0.0318607 0.0138518)
(0.790747 0.0201012 0.127211)
(0.709335 0.0203256 0.095101)
(0.473481 0.175932 -0.0692464)
(0.720854 -0.0174577 0.0724418)
(0.766885 0.0169133 0.0700715)
(1.01226 0.00732782 -0.0329832)
(0.985713 -0.0567608 0.0204556)
(0.788598 0.0256474 0.0314769)
(1.00514 0.0485862 -0.014985)
(1.05417 0.0324994 -0.0595925)
(0.830928 0.105553 0.0489117)
(1.02466 0.102878 0.0385699)
(0.960241 0.0250338 0.0291117)
(0.753605 0.088818 0.0860473)
(1.09475 0.0676425 -0.0669037)
(0.956711 -0.0417685 0.103378)
(0.79828 0.0487399 0.229226)
(0.915412 0.0566141 0.149141)
(0.780833 0.00264473 0.100935)
(0.97463 0.0109346 0.113552)
(0.851574 0.107571 -0.00909091)
(0.886867 0.0831067 0.0310662)
(0.781962 0.0542268 0.0536342)
(0.761357 0.122096 -0.00162376)
(0.659128 0.0286903 0.100838)
(0.919382 0.0293384 -0.136269)
(0.896045 0.0746339 0.0115591)
(0.661595 0.0167997 0.225229)
(0.713839 0.056662 0.0216924)
(0.833228 -0.00148285 0.0305365)
(0.810141 -0.051943 0.108717)
(0.899696 0.020585 0.0540846)
(1.07074 0.104428 -0.0579558)
(0.757027 0.0632263 0.126048)
(0.782289 0.0535204 0.0984656)
(0.898818 0.076269 -0.107691)
(1.07871 0.0231736 -0.0283264)
(1.05512 0.0286368 -0.00166385)
(0.795763 -0.118742 0.0960987)
(1.08804 0.0139064 0.00337863)
(0.835971 0.0351097 0.0672277)
(0.671672 -0.0160176 0.148173)
(0.672696 0.147333 -0.106993)
(0.814166 -0.0161016 0.0591953)
(0.817786 0.0155129 0.0610757)
(1.03504 0.0480771 -0.0368348)
(1.11324 0.00347706 0.00428559)
(0.823719 0.0359693 0.0378014)
(0.931056 0.0159634 0.0287117)
(0.977205 0.0523066 -0.0201292)
(0.746116 0.0689894 0.0612386)
(0.995197 0.0844382 0.055215)
(0.892577 0.034145 0.0287845)
(0.762364 0.0953311 0.063449)
(1.01287 0.0846563 -0.0348968)
(0.69261 -0.0576139 0.110407)
(0.678664 0.046125 0.217933)
(0.826795 0.0405396 0.167627)
(0.791535 0.0135055 0.10816)
(0.909249 0.0297543 0.144807)
(0.851758 0.104574 0.0105258)
(1.14977 0.107418 -0.0392375)
(0.812689 0.045613 0.0650251)
(0.813214 0.111531 -0.00741469)
(0.856146 0.0356451 0.0526566)
(1.00354 0.0449958 -0.118193)
(0.890113 0.0678416 0.0281241)
(0.540933 0.0186831 0.272417)
(0.747317 0.0742653 0.0766096)
(0.895444 0.0206082 0.0606262)
(0.768942 -0.0612911 0.138876)
(0.891599 -0.0306357 0.0931777)
(1.0998 0.123603 -0.0687214)
(0.858955 0.0837579 0.0871262)
(0.773506 0.0644555 0.167759)
(0.925778 0.0873273 -0.0588906)
(1.07 0.0042444 -0.0047469)
(1.09914 0.0857728 -0.0196514)
(0.867044 -0.0893276 0.0681945)
(1.05753 -0.0551302 0.0788202)
(1.00711 0.0571731 0.0560207)
(0.632491 -0.0423752 0.118526)
(0.735704 0.0998796 -0.0137348)
(0.836602 -0.0312304 0.141467)
(0.79759 0.029109 0.0900892)
(1.02724 0.0751182 0.0221521)
(1.0537 -0.0141073 0.0673904)
(0.77441 0.0500957 0.0279945)
(1.03129 0.0727469 0.0205079)
(1.05226 0.0516818 -0.0126977)
(0.862398 0.140766 0.0115638)
(0.927371 0.127 0.0339601)
(0.948177 0.0426064 0.0167557)
(0.862569 0.0784897 0.0638075)
(1.13578 0.157217 -0.124442)
(1.01909 0.0100125 -0.0318634)
(0.730074 0.0185787 0.144089)
(0.807152 0.0477388 0.0979267)
(0.667223 -0.0129966 0.0535936)
(0.729013 0.0369087 0.118984)
(1.08341 0.0943968 -0.0283197)
(1.13568 0.070941 -0.0432433)
(0.838628 0.099688 0.0570366)
(0.88275 0.154165 -0.0571051)
(0.886127 0.0750621 0.0187392)
(0.956689 0.0671874 -0.0987123)
(0.907615 0.119059 0.0266086)
(0.551615 0.0310281 0.239775)
(0.732881 0.0386215 0.127355)
(0.995495 0.0505798 0.0563055)
(0.878804 -0.0599895 0.144373)
(0.993936 -0.0673291 0.134798)
(1.12359 0.107516 -0.0851421)
(0.992208 0.0793313 -0.00635186)
(0.783173 0.0642178 0.150711)
(0.91873 0.0809318 0.0229613)
(1.08668 0.00314153 0.0129089)
(1.05585 0.126467 -0.0145475)
(0.936923 -0.0533193 0.0927732)
(1.01919 -0.090351 0.14692)
(0.971942 0.0755494 0.0586497)
(0.758669 -0.0878758 0.112727)
(0.731688 0.00958106 0.110037)
(0.757689 -0.0228235 0.207255)
(0.748024 0.0195588 0.113153)
(0.979789 0.0720155 0.0179259)
(1.08799 0.0689513 0.0561695)
(0.691942 0.0773893 0.00628843)
(0.964223 -0.00780387 0.0154898)
(0.98182 0.0508993 -0.000269293)
(0.735999 0.0649683 0.0337386)
(0.897271 0.0664167 0.0636993)
(0.957276 0.0723347 0.0262853)
(0.939795 0.070966 0.0785621)
(1.07759 0.116486 -0.0639834)
(0.987335 0.0480476 0.00773324)
(0.593341 0.120655 0.10116)
(0.6868 0.0806582 0.180908)
(0.847162 0.0405864 0.0807835)
(0.698302 -0.0115646 0.0837524)
(0.878924 0.00990346 0.0464348)
(1.19639 0.109913 -0.0323863)
(1.04938 0.0903457 0.0361323)
(0.973286 0.098138 -0.0374255)
(0.986793 0.0517123 0.00589084)
(0.954304 0.068212 -0.0888574)
(1.06967 0.103469 -0.0240659)
(0.707192 0.0460884 0.169964)
(0.746691 0.0244498 0.0827336)
(1.07148 0.0568613 -0.0231912)
(0.991474 -0.0131474 0.0925696)
(0.959083 -0.152701 0.161889)
(1.18572 0.0544095 -0.0440152)
(1.10745 0.105205 -0.049814)
(0.872421 0.0495042 0.101296)
(0.823741 0.0872759 0.0612231)
(1.09558 0.00239901 -0.00826034)
(1.04484 0.143195 -0.000349693)
(1.04145 -0.0552932 0.0877083)
(1.00737 -0.105362 0.139438)
(0.954199 0.102269 0.0637553)
(0.894623 -0.0454263 0.108404)
(0.705251 0.0149784 0.116285)
(0.789485 -0.0872872 0.220603)
(0.632817 -0.00447963 0.20499)
(0.926022 0.0784212 0.0785799)
(0.825736 0.0527587 0.0751707)
(0.75334 0.0186976 0.0216609)
(1.03379 -0.0450581 0.0819841)
(0.933935 0.0945424 0.0497417)
(0.949056 0.137047 -0.0181219)
(0.896625 0.0864287 0.07414)
(0.891088 0.03575 0.0748519)
(1.06131 -0.0142901 0.0488413)
(1.1279 0.174264 -0.0135961)
(0.937904 0.143951 0.00472305)
(0.606579 0.0462741 0.0214971)
(0.680812 -0.0362084 0.135926)
(0.937134 -0.0447389 0.126189)
(1.02399 0.0273719 0.0550387)
(0.740838 -0.0155308 0.0451711)
(0.974168 0.000148102 0.0342615)
(1.07439 0.0813534 0.0663327)
(1.08673 0.122068 -0.0202901)
(0.926929 0.117563 0.0513326)
(1.10919 0.0908424 -0.031224)
(1.30587 0.17322 -0.0858601)
(0.908182 0.121458 0.0646793)
(0.924209 -0.0311921 0.0532132)
(1.1249 0.0266875 -0.0352375)
(1.07898 0.00978165 0.0831251)
(0.883915 -0.094433 0.132984)
(0.983181 -0.0108422 -0.0320089)
(1.1487 0.0391512 -0.0915372)
(0.905915 0.0482328 0.0670167)
(0.809028 0.0521509 0.108876)
(1.02335 -0.0259942 0.0190286)
(0.9946 0.203607 -0.0487577)
(1.14827 0.0586484 0.0475725)
(0.824971 -0.0617536 0.118463)
(1.03575 0.116387 0.0543299)
(0.934654 -0.00953486 0.080202)
(0.837087 0.0246631 0.0903404)
(1.00918 -0.106201 0.0983633)
(0.496722 -0.0653094 0.180339)
(0.744532 0.100836 0.129905)
(0.936251 0.158621 0.0431619)
(0.938461 0.0181274 0.0345333)
(0.915153 -0.0669426 0.161468)
(0.749121 0.0592569 0.0394431)
(1.06158 0.0599966 -0.00294798)
(1.05752 0.087257 0.116335)
(1.10106 0.0876547 0.057267)
(0.884231 0.0136157 0.0638513)
(0.856944 0.130644 0.0312812)
(0.893222 0.15611 0.0104003)
(0.977426 0.232377 -0.104142)
(0.99096 0.0874265 -0.0665609)
(0.971627 -0.000860155 0.0293181)
(1.16755 0.0808059 -0.0462173)
(0.886754 0.0178483 0.0313833)
(0.958912 -0.00344672 0.0210048)
(0.877822 -0.00678491 0.0943363)
(0.872039 0.0424283 0.0581022)
(0.860468 0.0541114 0.0615305)
(0.786909 -0.00876677 0.132955)
(1.15608 0.118356 0.0310544)
(1.15652 0.170635 0.0306658)
(1.19576 0.00423644 0.053348)
(1.32904 0.0478374 -0.00702852)
(1.23571 0.0478265 0.0492109)
(0.998291 -0.157043 0.119215)
(1.1224 -0.021522 -0.026027)
(0.983897 0.040464 -0.0816746)
(0.488561 0.0469679 0.124788)
(0.738515 0.0878293 0.20385)
(0.9895 -0.0400145 0.0738525)
(0.934313 0.135913 -0.000418262)
(1.06058 0.0794313 0.0874882)
(0.90252 -0.0145383 0.101666)
(1.21576 0.0918905 0.0449169)
(0.89163 0.00781586 0.0323886)
(0.848423 0.0878398 0.102288)
(1.03694 -0.0429974 0.0642538)
(0.557073 -0.0670004 0.133197)
(0.767091 0.012594 0.117724)
(1.03154 0.0275819 0.0841641)
(0.84597 -0.00409875 0.133557)
(0.638031 -0.0466825 0.146505)
(0.842633 0.00725988 0.021458)
(0.925634 0.00690537 -0.00203898)
(1.0162 0.0912386 0.126106)
(1.25129 0.0995321 0.0845222)
(0.938279 0.0326365 0.125117)
(1.00401 0.194265 0.022972)
(0.802219 0.125099 0.000474097)
(0.720284 0.0292038 7.09705e-05)
(0.840427 0.0214665 -0.0432115)
(0.800467 -0.0240349 0.109935)
(0.966649 0.0828647 -0.0181071)
(0.832376 0.023479 0.0417795)
(1.04939 0.0218541 0.00109851)
(0.965358 0.1013 0.0578567)
(0.877408 0.0503566 0.0916069)
(0.800992 0.111054 0.0986482)
(0.55264 0.0209261 0.21838)
(1.20449 0.062203 0.112829)
(1.07029 0.121874 0.109435)
(1.02549 -0.104059 0.148363)
(1.31122 0.0398471 0.0572172)
(1.25089 0.133361 0.0526417)
(0.961982 -0.0600511 0.0976939)
(0.858025 -0.0268219 0.0229503)
(1.29637 0.0650339 -0.0593011)
(0.716668 0.0191104 0.0385482)
(0.716571 -0.089513 0.204113)
(1.02295 -0.0937401 0.100634)
(0.858066 0.160616 0.0747292)
(0.764913 0.0807013 0.153205)
(0.874308 -0.0295932 0.0119774)
(0.980122 0.13781 0.0184937)
(0.85677 0.103528 0.0585797)
(0.912874 0.0325302 0.0215149)
(1.22355 -0.0382109 -0.0333401)
(0.694513 -0.0556552 0.0959533)
(0.881344 -0.0273045 0.131219)
(0.864552 0.102999 0.108429)
(0.777844 0.102297 0.192958)
(0.724924 -0.0130649 0.230118)
(0.998277 0.132071 -0.0383815)
(0.921636 0.0406159 -0.121475)
(0.885693 -0.00735366 0.0635443)
(1.10918 0.104626 0.0757451)
(1.11916 0.0651974 0.136348)
(0.995103 0.125325 0.0713352)
(1.23266 0.141739 -0.0538563)
(1.01565 0.159982 0.00128247)
(0.99115 0.11238 -0.00600242)
(1.05925 -0.00508893 0.0283515)
(1.0842 0.109089 0.0147352)
(0.875661 0.0720658 0.172119)
(1.07648 0.0268572 0.0506579)
(0.92962 0.0843538 0.132871)
(0.965268 0.0474385 0.098655)
(0.803181 0.0925996 0.0575972)
(0.795321 -0.0834072 0.174825)
(1.01929 -0.0973189 0.157969)
(1.10887 0.163283 0.0474705)
(1.04766 -0.0270297 0.13992)
(0.798361 -0.0232823 0.164327)
(1.31013 0.175797 -0.0205362)
(1.13247 -0.0397595 0.0998744)
(0.911093 -0.0990106 0.0750457)
(1.25747 0.0382055 -0.0156124)
(0.913715 0.135918 0.0282353)
(0.792765 0.083652 0.151435)
(0.82946 0.00909911 0.145494)
(0.831265 0.201317 0.00478341)
(0.889441 0.121742 0.0814514)
(0.933365 -0.0299025 -0.00200046)
(1.00523 0.103257 0.0158543)
(0.805057 0.0819999 0.0656352)
(1.19485 0.143534 -0.0595998)
(1.28348 0.103182 -0.0370156)
(0.844757 0.00213584 0.0791987)
(0.812654 -0.0405032 0.118954)
(0.63561 0.0448601 0.0733219)
(0.749024 0.0157847 0.142084)
(0.637597 -0.0502857 0.226101)
(0.88232 -0.0203513 -0.0541807)
(1.29469 0.0717801 -0.123122)
(1.0115 0.0423605 0.0620905)
(1.13007 0.0863785 -0.0376478)
(1.05517 -0.0428253 0.0268895)
(0.951048 0.0273499 0.0451703)
(1.13932 0.178779 -0.069231)
(0.919124 0.179753 -0.0559528)
(1.25635 0.087161 -0.0738022)
(1.21328 0.0015478 -0.0187854)
(1.12597 0.118626 -0.0028853)
(0.748212 0.072278 0.169499)
(0.936692 0.0919204 0.0540582)
(0.914809 0.20305 -0.0427199)
(1.00632 0.0839143 0.0674797)
(1.10868 0.213247 -0.10471)
(1.07094 0.0598374 -0.0711403)
(0.891215 -0.0140006 0.121541)
(1.05853 0.168368 0.0688982)
(1.15868 0.0708637 0.0524827)
(0.692847 -0.0328667 0.151911)
(1.26366 0.00242178 0.0672471)
(1.33804 0.181507 -0.0180334)
(0.94028 0.0517266 0.020593)
(1.02984 0.0202419 0.00569747)
(0.846372 0.209752 -0.0123764)
(0.793958 0.0252375 0.114723)
(0.852011 -0.121496 0.164891)
(1.07983 0.155563 0.00931878)
(0.950957 0.132602 0.0937276)
(1.10646 0.0382453 0.0433785)
(1.10472 0.186711 -0.106924)
(0.795571 0.0320104 0.0617987)
(0.783638 -0.105003 0.0646077)
(0.943552 0.0603861 -0.0864139)
(1.01069 0.0879493 -0.0728098)
(1.01367 -0.0195644 0.0305545)
(1.13187 0.0895438 0.0389699)
(0.853605 0.149174 0.0364158)
(0.600958 -0.0849983 0.123748)
(0.818653 -0.104338 0.08509)
(1.21079 -0.0440146 -0.0580534)
(0.863673 -0.00289593 0.0423673)
(1.09708 0.075664 0.056937)
(0.985452 0.076981 0.0718044)
(1.03371 0.161566 -0.0244465)
(1.14588 0.209 -0.0485604)
(0.953305 0.110576 -0.0456455)
(1.26138 0.0352341 0.00540093)
(1.17534 0.0612872 0.101106)
(0.99265 0.253589 0.0346839)
(0.688929 0.160346 0.104292)
(0.840562 -0.000881688 0.106515)
(0.987404 0.0786995 0.020909)
(0.848413 -0.0769381 0.0929841)
(1.13226 0.20266 0.0168508)
(1.06084 0.187976 -0.0318364)
(0.778614 -0.208101 0.0310618)
(1.08603 0.0742815 -0.00184319)
(1.24833 0.267326 0.0300288)
(0.884394 0.0118721 0.0834803)
(0.90564 0.0355022 0.0332996)
(1.05255 0.0406945 0.0403594)
(1.13473 -0.0941743 0.0642979)
(1.15742 0.0354407 0.0435107)
(1.1439 0.196445 -0.0107568)
(1.102 0.162543 0.0449138)
(0.73476 0.0109503 0.101548)
(0.925309 0.147098 0.0218637)
(1.03383 0.104869 0.0538795)
(1.07072 -0.0479672 0.1237)
(1.2222 0.0913366 -0.0170053)
(1.21514 0.168033 0.00311229)
(1.15532 0.26288 0.0420296)
(1.0315 0.135946 -0.0241274)
(1.18629 0.100147 -0.034924)
(1.20122 0.0803303 -0.0170591)
(0.797134 0.0235015 0.0351175)
(1.21048 0.204363 0.0169824)
(0.714318 -0.0489928 0.147002)
(0.883901 -0.234692 0.117654)