/*--------------------------------*- C++ -*----------------------------------*\
  =========                 |
  \\      /  F ield         | OpenFOAM: The Open Source CFD Toolbox
   \\    /   O peration     | Website:  https://openfoam.org
    \\  /    A nd           | Version:  10
     \\/     M anipulation  |
\*---------------------------------------------------------------------------*/
FoamFile
{
    format      ascii;
    class       volScalarField;
    location    "12.5";
    object      pPrime2Mean;
}
// * * * * * * * * * * * * * * * * * * * * * * * * * * * * * * * * * * * * * //

dimensions      [0 4 -4 0 0 0 0];

internalField   nonuniform List<scalar> 
25600
(
6.45953e-10
6.86845e-10
6.93539e-10
6.67826e-10
6.29759e-10
5.65193e-10
4.79437e-10
4.24846e-10
3.95798e-10
2.88836e-10
2.27713e-10
2.40794e-10
1.71958e-10
1.34437e-10
1.75411e-10
1.29895e-10
1.27294e-10
1.76636e-10
1.26873e-10
1.79359e-10
2.48052e-10
2.19161e-10
2.96119e-10
3.91278e-10
4.2713e-10
4.65414e-10
5.42311e-10
5.90242e-10
5.9759e-10
6.36683e-10
6.37022e-10
6.66491e-10
6.80322e-10
7.03881e-10
7.67652e-10
7.40534e-10
8.14996e-10
8.90709e-10
9.39828e-10
8.04051e-10
8.27353e-10
8.06487e-10
7.94155e-10
7.53068e-10
7.1066e-10
6.63414e-10
5.52089e-10
4.87278e-10
4.33544e-10
2.94943e-10
2.37248e-10
2.25164e-10
1.51219e-10
1.2806e-10
1.64531e-10
1.18609e-10
1.21491e-10
1.57009e-10
1.00025e-10
1.96661e-10
2.49828e-10
2.20875e-10
3.51797e-10
4.1834e-10
4.65157e-10
5.48321e-10
5.9056e-10
6.28948e-10
6.58117e-10
6.50769e-10
6.36201e-10
6.93654e-10
6.75331e-10
6.93276e-10
7.93076e-10
7.83856e-10
8.52872e-10
9.07741e-10
8.85876e-10
8.77148e-10
9.34245e-10
9.08417e-10
9.07457e-10
8.69096e-10
8.4251e-10
8.01434e-10
6.43881e-10
5.56157e-10
4.49973e-10
2.72299e-10
2.34383e-10
1.80767e-10
1.09071e-10
1.31909e-10
1.33885e-10
9.17795e-11
1.27501e-10
1.31464e-10
9.19809e-11
2.19821e-10
2.33441e-10
2.34507e-10
4.14189e-10
4.44734e-10
5.33847e-10
6.61008e-10
6.52899e-10
7.06856e-10
7.24455e-10
6.46731e-10
6.28017e-10
6.7612e-10
6.38828e-10
6.7567e-10
7.95858e-10
8.07444e-10
8.89993e-10
9.46944e-10
9.30101e-10
9.52079e-10
1.03913e-09
1.02534e-09
1.04501e-09
1.02795e-09
1.0202e-09
9.54109e-10
7.40269e-10
6.24016e-10
4.52323e-10
2.48776e-10
2.35563e-10
1.37231e-10
8.83655e-11
1.51521e-10
1.03769e-10
9.34361e-11
1.51877e-10
1.13477e-10
1.07156e-10
2.29055e-10
2.03715e-10
2.57907e-10
4.57034e-10
4.71328e-10
6.38765e-10
7.88633e-10
7.44039e-10
8.21767e-10
7.78056e-10
6.31307e-10
6.0273e-10
6.20266e-10
5.87842e-10
6.59722e-10
7.95896e-10
8.40783e-10
9.60651e-10
1.02027e-09
1.01185e-09
1.0453e-09
1.1564e-09
1.15768e-09
1.20408e-09
1.22632e-09
1.23634e-09
1.12916e-09
8.65981e-10
7.09597e-10
4.61126e-10
2.44073e-10
2.33601e-10
1.02518e-10
9.095e-11
1.71986e-10
9.47977e-11
1.23328e-10
1.73449e-10
1.08117e-10
1.34664e-10
2.27069e-10
1.83327e-10
2.91215e-10
4.92868e-10
5.27471e-10
7.84769e-10
9.35649e-10
8.81836e-10
9.57596e-10
8.15049e-10
6.11553e-10
5.55847e-10
5.44851e-10
5.32709e-10
6.49855e-10
8.08748e-10
9.0537e-10
1.06548e-09
1.13027e-09
1.1344e-09
1.15705e-09
1.27382e-09
1.28426e-09
1.38032e-09
1.46745e-09
1.50773e-09
1.35794e-09
1.04599e-09
8.20258e-10
4.83027e-10
2.47792e-10
2.15539e-10
7.97623e-11
1.12649e-10
2.01969e-10
1.22591e-10
1.69353e-10
1.91482e-10
1.17996e-10
1.61696e-10
2.25892e-10
1.84835e-10
3.38374e-10
5.49674e-10
6.2841e-10
9.7461e-10
1.12521e-09
1.08423e-09
1.1173e-09
8.50675e-10
5.8655e-10
4.85317e-10
4.54835e-10
4.72496e-10
6.43908e-10
8.37489e-10
1.00063e-09
1.20334e-09
1.29362e-09
1.30195e-09
1.28715e-09
1.36926e-09
1.3908e-09
1.57453e-09
1.76593e-09
1.85754e-09
1.66687e-09
1.29295e-09
9.60133e-10
5.22341e-10
2.52847e-10
1.94522e-10
8.61644e-11
1.74281e-10
2.74115e-10
1.95992e-10
2.26857e-10
2.12472e-10
1.37574e-10
1.861e-10
2.42902e-10
2.08114e-10
4.07278e-10
6.41273e-10
7.82197e-10
1.21844e-09
1.38362e-09
1.37628e-09
1.32307e-09
8.97092e-10
5.50422e-10
3.92114e-10
3.54462e-10
4.10968e-10
6.41299e-10
8.83485e-10
1.13039e-09
1.39911e-09
1.53613e-09
1.51847e-09
1.43183e-09
1.42817e-09
1.47083e-09
1.78642e-09
2.14559e-09
2.31307e-09
2.08056e-09
1.6168e-09
1.13475e-09
5.81501e-10
2.62379e-10
1.89547e-10
1.42872e-10
3.0407e-10
4.09184e-10
3.1389e-10
2.96458e-10
2.41113e-10
1.61608e-10
2.23707e-10
2.90406e-10
2.58934e-10
5.11632e-10
7.81421e-10
1.00388e-09
1.52918e-09
1.73653e-09
1.78998e-09
1.60136e-09
9.59979e-10
4.99401e-10
2.8974e-10
2.60871e-10
3.57528e-10
6.46169e-10
9.53916e-10
1.3112e-09
1.68784e-09
1.88451e-09
1.79773e-09
1.58658e-09
1.43983e-09
1.50713e-09
2.01606e-09
2.63502e-09
2.90713e-09
2.62664e-09
2.03534e-09
1.36004e-09
6.71582e-10
2.86423e-10
2.21728e-10
2.87753e-10
5.39318e-10
6.27882e-10
4.8084e-10
3.86686e-10
2.81339e-10
1.99016e-10
2.94948e-10
3.77785e-10
3.57418e-10
6.74814e-10
1.00094e-09
1.31789e-09
1.91609e-09
2.21167e-09
2.37057e-09
1.99008e-09
1.0454e-09
4.39557e-10
2.1322e-10
2.02458e-10
3.28112e-10
6.66439e-10
1.06306e-09
1.56706e-09
2.11241e-09
2.38195e-09
2.17133e-09
1.7465e-09
1.40984e-09
1.49828e-09
2.27418e-09
3.27954e-09
3.68649e-09
3.33878e-09
2.57266e-09
1.65757e-09
8.09508e-10
3.3843e-10
3.27497e-10
5.86315e-10
9.24471e-10
9.5795e-10
7.15029e-10
5.17796e-10
3.38588e-10
2.70556e-10
4.21688e-10
5.2354e-10
5.37119e-10
9.38818e-10
1.35101e-09
1.75244e-09
2.38918e-09
2.83256e-09
3.18409e-09
2.54651e-09
1.16315e-09
3.98223e-10
2.27946e-10
2.25115e-10
3.45002e-10
7.10107e-10
1.2339e-09
1.93155e-09
2.73057e-09
3.0958e-09
2.68147e-09
1.9166e-09
1.34323e-09
1.44629e-09
2.57747e-09
4.14812e-09
4.71646e-09
4.25326e-09
3.25309e-09
2.05858e-09
1.01454e-09
4.36937e-10
5.63664e-10
1.14198e-09
1.52195e-09
1.43768e-09
1.05048e-09
7.1178e-10
4.27554e-10
4.10159e-10
6.45429e-10
7.64646e-10
8.45899e-10
1.37504e-09
1.89769e-09
2.35096e-09
2.96164e-09
3.62761e-09
4.32973e-09
3.35914e-09
1.33596e-09
4.28345e-10
4.39266e-10
4.09821e-10
4.385e-10
8.04258e-10
1.49635e-09
2.44186e-09
3.62364e-09
4.12151e-09
3.38843e-09
2.10582e-09
1.27365e-09
1.38123e-09
2.96163e-09
5.33349e-09
6.07916e-09
5.41611e-09
4.1074e-09
2.60478e-09
1.32151e-09
6.17099e-10
1.01932e-09
2.11561e-09
2.42027e-09
2.13193e-09
1.53412e-09
1.00146e-09
5.74805e-10
6.76527e-10
1.0386e-09
1.16981e-09
1.35458e-09
2.08265e-09
2.73187e-09
3.18249e-09
3.63577e-09
4.61966e-09
5.9534e-09
4.5508e-09
1.59539e-09
6.17968e-10
1.00972e-09
8.72339e-10
6.40498e-10
9.89482e-10
1.89724e-09
3.14795e-09
4.90585e-09
5.59132e-09
4.39136e-09
2.34064e-09
1.27796e-09
1.37267e-09
3.48069e-09
6.96937e-09
7.87381e-09
6.87426e-09
5.16741e-09
3.3501e-09
1.76975e-09
9.32416e-10
1.82936e-09
3.77546e-09
3.72925e-09
3.11622e-09
2.23159e-09
1.43071e-09
8.25151e-10
1.15978e-09
1.72031e-09
1.83047e-09
2.15499e-09
3.21111e-09
3.97743e-09
4.35513e-09
4.42193e-09
5.8289e-09
8.26279e-09
6.29604e-09
2.00066e-09
1.10779e-09
2.18644e-09
1.77825e-09
1.01055e-09
1.32276e-09
2.49867e-09
4.10157e-09
6.72616e-09
7.67463e-09
5.83052e-09
2.66127e-09
1.48403e-09
1.54041e-09
4.2079e-09
9.22055e-09
1.02134e-08
8.66877e-09
6.4585e-09
4.36376e-09
2.4428e-09
1.46043e-09
3.18371e-09
6.52125e-09
5.59934e-09
4.49327e-09
3.22975e-09
2.07439e-09
1.25517e-09
2.01282e-09
2.86599e-09
2.87217e-09
3.35467e-09
4.95298e-09
5.80823e-09
6.0324e-09
5.33345e-09
7.28039e-09
1.15466e-08
8.84276e-09
2.64398e-09
2.08358e-09
4.31246e-09
3.32941e-09
1.6156e-09
1.8903e-09
3.39009e-09
5.35745e-09
9.28817e-09
1.0609e-08
7.90703e-09
3.13371e-09
2.10108e-09
2.08207e-09
5.24944e-09
1.23088e-08
1.32403e-08
1.08593e-08
7.99311e-09
5.75084e-09
3.48482e-09
2.31578e-09
5.35497e-09
1.0972e-08
8.21543e-09
6.38857e-09
4.64455e-09
3.03731e-09
1.97326e-09
3.44162e-09
4.69965e-09
4.42632e-09
5.074e-09
7.55257e-09
8.44749e-09
8.45426e-09
6.38012e-09
9.00877e-09
1.61925e-08
1.2516e-08
3.65391e-09
3.80126e-09
7.89292e-09
5.80301e-09
2.55136e-09
2.80201e-09
4.68408e-09
6.96713e-09
1.28587e-08
1.46905e-08
1.09186e-08
3.86848e-09
3.38573e-09
3.23835e-09
6.72881e-09
1.64738e-08
1.71129e-08
1.35208e-08
9.77322e-09
7.64673e-09
5.11085e-09
3.58134e-09
8.71729e-09
1.80007e-08
1.1775e-08
8.97363e-09
6.64696e-09
4.49305e-09
3.16791e-09
5.73375e-09
7.53449e-09
6.61461e-09
7.43785e-09
1.12881e-08
1.21794e-08
1.19579e-08
7.62055e-09
1.11109e-08
2.27556e-08
1.77916e-08
5.24359e-09
6.58794e-09
1.3624e-08
9.50356e-09
3.97531e-09
4.2459e-09
6.56055e-09
8.9856e-09
1.78188e-08
2.03238e-08
1.52582e-08
4.99543e-09
5.76185e-09
5.31305e-09
8.84698e-09
2.2049e-08
2.20297e-08
1.67995e-08
1.17709e-08
1.03139e-08
7.72904e-09
5.49853e-09
1.39e-08
2.89453e-08
1.65773e-08
1.24931e-08
9.53922e-09
6.74803e-09
5.09614e-09
9.31168e-09
1.18209e-08
9.58728e-09
1.06051e-08
1.64456e-08
1.73852e-08
1.70226e-08
9.16518e-09
1.36875e-08
3.19585e-08
2.52492e-08
7.71984e-09
1.09169e-08
2.2536e-08
1.47952e-08
6.01601e-09
6.4514e-09
9.23463e-09
1.14404e-08
2.47147e-08
2.80484e-08
2.15544e-08
6.78862e-09
9.88303e-09
8.81603e-09
1.1998e-08
2.94398e-08
2.83621e-08
2.09287e-08
1.4195e-08
1.41334e-08
1.20187e-08
8.40942e-09
2.18146e-08
4.57081e-08
2.30072e-08
1.73467e-08
1.3855e-08
1.03345e-08
8.26387e-09
1.48531e-08
1.82618e-08
1.36134e-08
1.47592e-08
2.3372e-08
2.46483e-08
2.44405e-08
1.13715e-08
1.7212e-08
4.49143e-08
3.578e-08
1.16675e-08
1.74319e-08
3.6246e-08
2.21854e-08
9.1597e-09
9.9067e-09
1.31232e-08
1.45751e-08
3.44153e-08
3.86698e-08
3.06833e-08
9.62765e-09
1.67896e-08
1.45088e-08
1.69316e-08
3.94613e-08
3.67899e-08
2.65375e-08
1.76323e-08
2.01275e-08
1.95851e-08
1.32222e-08
3.42126e-08
7.12567e-08
3.18234e-08
2.44228e-08
2.06857e-08
1.63277e-08
1.36261e-08
2.35545e-08
2.80842e-08
1.92482e-08
2.02683e-08
3.23701e-08
3.4946e-08
3.54842e-08
1.50077e-08
2.24612e-08
6.33149e-08
5.07718e-08
1.80791e-08
2.72884e-08
5.73186e-08
3.23916e-08
1.42621e-08
1.55427e-08
1.90788e-08
1.8962e-08
4.84956e-08
5.34971e-08
4.41457e-08
1.44413e-08
2.83488e-08
2.38306e-08
2.51297e-08
5.31552e-08
4.8345e-08
3.46294e-08
2.33767e-08
2.97601e-08
3.29071e-08
2.12817e-08
5.36907e-08
1.0955e-07
4.41056e-08
3.47504e-08
3.14249e-08
2.63912e-08
2.26906e-08
3.72448e-08
4.33076e-08
2.76401e-08
2.82487e-08
4.41005e-08
4.97842e-08
5.22193e-08
2.16653e-08
3.09478e-08
8.97663e-08
7.22512e-08
2.90532e-08
4.25616e-08
8.9879e-08
4.672e-08
2.30111e-08
2.50796e-08
2.84658e-08
2.58103e-08
6.9318e-08
7.47044e-08
6.42342e-08
2.27173e-08
4.664e-08
3.82254e-08
3.84316e-08
7.23428e-08
6.45286e-08
4.70455e-08
3.3875e-08
4.47935e-08
5.64774e-08
3.4922e-08
8.43666e-08
1.6775e-07
6.16915e-08
5.03062e-08
4.85284e-08
4.27302e-08
3.69585e-08
5.79097e-08
6.59888e-08
4.001e-08
3.98969e-08
5.92357e-08
7.14672e-08
7.68528e-08
3.30342e-08
4.47732e-08
1.2672e-07
1.02548e-07
4.69262e-08
6.61637e-08
1.3991e-07
6.67287e-08
3.75388e-08
4.06863e-08
4.3277e-08
3.70764e-08
1.00735e-07
1.05012e-07
9.23092e-08
3.61714e-08
7.21311e-08
5.86045e-08
5.87736e-08
9.77169e-08
8.80962e-08
6.61403e-08
5.25626e-08
6.6626e-08
9.55207e-08
5.55383e-08
1.30402e-07
2.49256e-07
8.49943e-08
7.1549e-08
7.24698e-08
6.74167e-08
5.9483e-08
8.81254e-08
9.8575e-08
5.78891e-08
5.83847e-08
8.21648e-08
1.01214e-07
1.10439e-07
5.17121e-08
6.666e-08
1.79283e-07
1.42672e-07
7.40487e-08
1.00436e-07
2.14075e-07
9.29474e-08
5.99798e-08
6.40929e-08
6.47131e-08
5.49573e-08
1.47251e-07
1.47676e-07
1.26467e-07
5.65128e-08
1.04114e-07
8.81637e-08
8.62184e-08
1.28463e-07
1.19804e-07
9.5093e-08
8.73211e-08
9.8461e-08
1.56162e-07
8.57987e-08
1.9915e-07
3.5884e-07
1.17743e-07
1.00698e-07
1.0744e-07
1.01558e-07
9.33205e-08
1.29894e-07
1.31707e-07
8.22404e-08
8.58287e-08
1.13784e-07
1.4087e-07
1.53198e-07
8.00499e-08
9.75279e-08
2.52542e-07
2.00913e-07
1.10349e-07
1.5297e-07
3.24165e-07
1.23901e-07
9.36174e-08
9.40441e-08
9.20879e-08
8.14069e-08
2.09679e-07
2.05866e-07
1.68616e-07
8.79596e-08
1.44842e-07
1.30732e-07
1.25002e-07
1.59832e-07
1.55231e-07
1.33267e-07
1.47701e-07
1.38384e-07
2.19431e-07
1.2221e-07
2.80116e-07
4.68084e-07
1.53236e-07
1.37137e-07
1.5172e-07
1.39515e-07
1.428e-07
1.76839e-07
1.63824e-07
1.15821e-07
1.26158e-07
1.56426e-07
1.82022e-07
1.93645e-07
1.19832e-07
1.37085e-07
3.40446e-07
2.7007e-07
1.51272e-07
2.35747e-07
4.64555e-07
1.50237e-07
1.36866e-07
1.29595e-07
1.27467e-07
1.18189e-07
2.90492e-07
2.83248e-07
2.38712e-07
1.26402e-07
1.85249e-07
1.77416e-07
1.65406e-07
1.79757e-07
1.95751e-07
1.74377e-07
2.21889e-07
1.82781e-07
2.96467e-07
1.65136e-07
3.59557e-07
6.02757e-07
1.96346e-07
1.82095e-07
2.0292e-07
1.90484e-07
2.11206e-07
2.41094e-07
1.91316e-07
1.55703e-07
1.73422e-07
2.15328e-07
2.27243e-07
2.53765e-07
1.67872e-07
1.82882e-07
4.35334e-07
3.56041e-07
2.31311e-07
3.54414e-07
6.09712e-07
1.81496e-07
1.85532e-07
1.71886e-07
1.6698e-07
1.60491e-07
3.95917e-07
3.60626e-07
3.26815e-07
1.68319e-07
2.17524e-07
2.17562e-07
2.02475e-07
2.281e-07
2.30162e-07
2.07583e-07
2.47664e-07
2.21948e-07
3.72679e-07
2.06011e-07
4.25414e-07
7.06973e-07
2.33766e-07
2.30537e-07
2.49863e-07
2.35912e-07
2.87084e-07
3.05174e-07
2.25454e-07
2.05638e-07
2.23513e-07
2.98945e-07
2.74615e-07
3.44123e-07
2.1716e-07
2.23591e-07
4.95375e-07
4.44925e-07
3.00303e-07
4.67699e-07
7.03014e-07
2.16584e-07
2.23169e-07
2.09472e-07
2.08638e-07
1.98766e-07
4.26245e-07
3.91835e-07
3.80348e-07
2.05327e-07
2.37796e-07
2.6051e-07
2.27021e-07
2.67851e-07
2.52345e-07
2.39654e-07
2.6269e-07
2.51658e-07
4.19695e-07
2.3993e-07
4.64134e-07
6.8299e-07
2.52748e-07
2.64745e-07
2.83088e-07
2.72679e-07
3.54367e-07
3.67433e-07
2.54324e-07
2.57459e-07
2.58492e-07
3.59083e-07
3.11489e-07
4.00398e-07
2.42534e-07
2.48961e-07
5.07526e-07
4.91144e-07
3.43105e-07
5.13233e-07
7.1719e-07
2.39143e-07
2.44929e-07
2.33404e-07
2.33984e-07
2.19245e-07
3.9327e-07
3.92118e-07
4.14506e-07
2.24166e-07
2.43448e-07
2.74091e-07
2.3351e-07
2.92035e-07
2.70421e-07
2.58323e-07
2.48356e-07
2.54771e-07
4.03701e-07
2.5797e-07
4.64205e-07
6.48628e-07
2.6026e-07
2.77197e-07
2.97724e-07
2.7799e-07
4.21785e-07
3.98112e-07
2.69293e-07
2.81423e-07
2.77432e-07
4.002e-07
3.20088e-07
4.25803e-07
2.38996e-07
2.5249e-07
4.6352e-07
5.09287e-07
3.64433e-07
5.17359e-07
6.74616e-07
2.43701e-07
2.50632e-07
2.45509e-07
2.35994e-07
2.19344e-07
3.68194e-07
3.69802e-07
4.08645e-07
2.26836e-07
2.40683e-07
2.67871e-07
2.26167e-07
3.17055e-07
2.77608e-07
2.59606e-07
2.35742e-07
2.45017e-07
3.66753e-07
2.58938e-07
4.4873e-07
5.88572e-07
2.58893e-07
2.70078e-07
2.99958e-07
2.79021e-07
4.49667e-07
4.13568e-07
2.7736e-07
2.84832e-07
2.80676e-07
4.22789e-07
3.17275e-07
4.72124e-07
2.29905e-07
2.47396e-07
4.16951e-07
5.23917e-07
3.6237e-07
5.04699e-07
6.82818e-07
2.41065e-07
2.52069e-07
2.4671e-07
2.29257e-07
2.15925e-07
3.40403e-07
3.56313e-07
4.07699e-07
2.23129e-07
2.35068e-07
2.61672e-07
2.19986e-07
3.23259e-07
2.78771e-07
2.60227e-07
2.26985e-07
2.37313e-07
3.49036e-07
2.54635e-07
4.40045e-07
5.5708e-07
2.56449e-07
2.62551e-07
2.92212e-07
2.67596e-07
4.56611e-07
4.04563e-07
2.77525e-07
2.75752e-07
2.76897e-07
4.30224e-07
3.10166e-07
4.80157e-07
2.22202e-07
2.40163e-07
3.90099e-07
5.18507e-07
3.46454e-07
4.83555e-07
6.83744e-07
2.39264e-07
2.50565e-07
2.40463e-07
2.22785e-07
2.11574e-07
3.29508e-07
3.43395e-07
4.13958e-07
2.19549e-07
2.29073e-07
2.50788e-07
2.13988e-07
3.23863e-07
2.73747e-07
2.5503e-07
2.18856e-07
2.3107e-07
3.25224e-07
2.49242e-07
4.28151e-07
5.50093e-07
2.51799e-07
2.5676e-07
2.82667e-07
2.62385e-07
4.44208e-07
3.93164e-07
2.77068e-07
2.66555e-07
2.70335e-07
4.14957e-07
3.06943e-07
4.75841e-07
2.16752e-07
2.34332e-07
3.79727e-07
5.05227e-07
3.27901e-07
4.69959e-07
6.72845e-07
2.33115e-07
2.45641e-07
2.32544e-07
2.17326e-07
2.08168e-07
3.27588e-07
3.35356e-07
4.0388e-07
2.15068e-07
2.26506e-07
2.47001e-07
2.1097e-07
3.21143e-07
2.73966e-07
2.53216e-07
2.15986e-07
2.28885e-07
3.17772e-07
2.45952e-07
4.22923e-07
5.4725e-07
2.49134e-07
2.54182e-07
2.77166e-07
2.58949e-07
4.35474e-07
3.87735e-07
2.71956e-07
2.61253e-07
2.66413e-07
4.07676e-07
3.04706e-07
4.71303e-07
2.13912e-07
2.31077e-07
3.77391e-07
4.97582e-07
3.23565e-07
4.63233e-07
6.62247e-07
2.31029e-07
2.41811e-07
2.28505e-07
2.1489e-07
2.06182e-07
3.27402e-07
3.31721e-07
3.98893e-07
2.12307e-07
6.72526e-10
6.85707e-10
7.01974e-10
6.72403e-10
6.32379e-10
5.82977e-10
4.98818e-10
4.32398e-10
4.00307e-10
2.95134e-10
2.34565e-10
2.38067e-10
1.70807e-10
1.39196e-10
1.75799e-10
1.4021e-10
1.31577e-10
1.8083e-10
1.39301e-10
1.78034e-10
2.53145e-10
2.2752e-10
2.96924e-10
3.87825e-10
4.19757e-10
4.68396e-10
5.4755e-10
5.98603e-10
6.11949e-10
6.50676e-10
6.55993e-10
6.84645e-10
7.0125e-10
7.26958e-10
7.84498e-10
7.5744e-10
8.35151e-10
8.96714e-10
9.01557e-10
8.04992e-10
8.11646e-10
7.96801e-10
8.01296e-10
7.61145e-10
7.2304e-10
6.89168e-10
5.73022e-10
4.95851e-10
4.45132e-10
3.11801e-10
2.51259e-10
2.30654e-10
1.57418e-10
1.40495e-10
1.76622e-10
1.35737e-10
1.26404e-10
1.61187e-10
1.11389e-10
1.94746e-10
2.54002e-10
2.24709e-10
3.52097e-10
4.1264e-10
4.54906e-10
5.58965e-10
5.96212e-10
6.35645e-10
6.77051e-10
6.61342e-10
6.53094e-10
7.08867e-10
6.95425e-10
7.17944e-10
8.08617e-10
8.09119e-10
8.72204e-10
9.09229e-10
8.79748e-10
8.64397e-10
9.13196e-10
9.02959e-10
9.15731e-10
8.79026e-10
8.6098e-10
8.26056e-10
6.64317e-10
5.72724e-10
4.7597e-10
2.98043e-10
2.54265e-10
1.95045e-10
1.20299e-10
1.51192e-10
1.48448e-10
1.03863e-10
1.30368e-10
1.33031e-10
9.98803e-11
2.21911e-10
2.39404e-10
2.40201e-10
4.23477e-10
4.44899e-10
5.3224e-10
6.82812e-10
6.64932e-10
7.24311e-10
7.56645e-10
6.69245e-10
6.57556e-10
7.02659e-10
6.7639e-10
7.17055e-10
8.29671e-10
8.54986e-10
9.15416e-10
9.48854e-10
9.26095e-10
9.33209e-10
1.00876e-09
1.01821e-09
1.0452e-09
1.02926e-09
1.03563e-09
9.75027e-10
7.67124e-10
6.56255e-10
4.89904e-10
2.74984e-10
2.5776e-10
1.56672e-10
1.0076e-10
1.72894e-10
1.11971e-10
9.90017e-11
1.5833e-10
1.15125e-10
1.14989e-10
2.39755e-10
2.13784e-10
2.70107e-10
4.72589e-10
4.69435e-10
6.41095e-10
8.10391e-10
7.5896e-10
8.48875e-10
8.18152e-10
6.66482e-10
6.43515e-10
6.62773e-10
6.50336e-10
7.17898e-10
8.49772e-10
9.03032e-10
9.8633e-10
1.02271e-09
1.00569e-09
1.01628e-09
1.10887e-09
1.13946e-09
1.19013e-09
1.21452e-09
1.24705e-09
1.15474e-09
9.10118e-10
7.60219e-10
5.05667e-10
2.6588e-10
2.59728e-10
1.25484e-10
1.02693e-10
1.89313e-10
9.10623e-11
1.26975e-10
1.85625e-10
1.09986e-10
1.43931e-10
2.43061e-10
1.95764e-10
3.06761e-10
5.03583e-10
5.13847e-10
7.82462e-10
9.49789e-10
8.97121e-10
9.90637e-10
8.56756e-10
6.54488e-10
6.05688e-10
6.08124e-10
6.20252e-10
7.20205e-10
8.8121e-10
9.78862e-10
1.09892e-09
1.1376e-09
1.11877e-09
1.1112e-09
1.20172e-09
1.24954e-09
1.34844e-09
1.43911e-09
1.5102e-09
1.39394e-09
1.11219e-09
8.8753e-10
5.31968e-10
2.65304e-10
2.47871e-10
1.02488e-10
1.18818e-10
2.0257e-10
1.00092e-10
1.70055e-10
2.03826e-10
1.20366e-10
1.69765e-10
2.43574e-10
1.98324e-10
3.54195e-10
5.50366e-10
5.96655e-10
9.56773e-10
1.12595e-09
1.0963e-09
1.15076e-09
8.90452e-10
6.3384e-10
5.44665e-10
5.39246e-10
5.78806e-10
7.22412e-10
9.32319e-10
1.0944e-09
1.25879e-09
1.306e-09
1.26633e-09
1.21307e-09
1.27018e-09
1.34029e-09
1.52084e-09
1.71596e-09
1.84729e-09
1.71513e-09
1.38355e-09
1.0441e-09
5.72254e-10
2.66985e-10
2.33373e-10
1.05221e-10
1.66366e-10
2.40928e-10
1.45701e-10
2.23174e-10
2.21144e-10
1.38897e-10
1.89084e-10
2.5606e-10
2.21938e-10
4.23008e-10
6.27534e-10
7.2001e-10
1.16844e-09
1.36277e-09
1.37868e-09
1.35192e-09
9.34158e-10
5.98715e-10
4.59982e-10
4.5508e-10
5.2954e-10
7.31661e-10
1.0127e-09
1.26114e-09
1.48958e-09
1.54756e-09
1.44969e-09
1.31591e-09
1.30132e-09
1.40412e-09
1.70831e-09
2.06271e-09
2.28489e-09
2.1398e-09
1.73501e-09
1.23979e-09
6.2717e-10
2.71514e-10
2.32203e-10
1.54971e-10
2.6723e-10
3.24333e-10
2.2885e-10
2.89367e-10
2.47569e-10
1.63484e-10
2.15313e-10
2.87648e-10
2.72289e-10
5.25811e-10
7.41881e-10
8.91932e-10
1.42779e-09
1.68601e-09
1.77668e-09
1.62172e-09
9.91455e-10
5.44428e-10
3.64033e-10
3.68791e-10
4.85421e-10
7.59538e-10
1.13422e-09
1.50003e-09
1.82614e-09
1.8903e-09
1.68094e-09
1.41664e-09
1.30008e-09
1.43612e-09
1.9185e-09
2.51383e-09
2.8551e-09
2.69533e-09
2.18398e-09
1.48841e-09
7.03976e-10
2.85965e-10
2.65717e-10
2.86367e-10
4.47936e-10
4.68434e-10
3.55168e-10
3.81936e-10
2.90168e-10
2.08815e-10
2.70755e-10
3.54817e-10
3.70418e-10
6.81499e-10
9.14394e-10
1.12903e-09
1.74413e-09
2.12371e-09
2.33152e-09
1.99288e-09
1.06781e-09
4.80278e-10
2.87004e-10
3.11012e-10
4.60716e-10
8.15712e-10
1.31358e-09
1.84711e-09
2.3136e-09
2.37621e-09
1.98354e-09
1.51738e-09
1.27136e-09
1.43694e-09
2.16933e-09
3.12656e-09
3.61152e-09
3.4202e-09
2.75771e-09
1.81152e-09
8.19736e-10
3.26218e-10
3.71783e-10
5.50378e-10
7.44413e-10
6.94791e-10
5.43419e-10
5.10084e-10
3.63067e-10
3.01388e-10
3.86796e-10
4.902e-10
5.48627e-10
9.22889e-10
1.18148e-09
1.45621e-09
2.12837e-09
2.70608e-09
3.10825e-09
2.52203e-09
1.17941e-09
4.33714e-10
2.84557e-10
3.22871e-10
4.71793e-10
9.21046e-10
1.58012e-09
2.34268e-09
3.01896e-09
3.07266e-09
2.39498e-09
1.62624e-09
1.24309e-09
1.42386e-09
2.49572e-09
3.99654e-09
4.63252e-09
4.36251e-09
3.49817e-09
2.24908e-09
1.006e-09
4.2386e-10
6.12492e-10
1.04232e-09
1.21706e-09
1.04738e-09
8.26856e-10
7.04453e-10
4.98541e-10
4.93255e-10
6.18924e-10
7.47627e-10
8.54342e-10
1.30768e-09
1.59953e-09
1.91163e-09
2.59961e-09
3.46926e-09
4.20122e-09
3.2994e-09
1.35637e-09
4.57172e-10
4.52094e-10
4.72469e-10
5.48826e-10
1.11392e-09
1.98875e-09
3.04287e-09
4.0424e-09
4.08007e-09
2.97677e-09
1.76915e-09
1.28389e-09
1.45557e-09
2.95433e-09
5.27718e-09
6.02709e-09
5.57627e-09
4.4572e-09
2.85192e-09
1.30856e-09
6.30664e-10
1.07846e-09
1.91326e-09
1.95011e-09
1.59245e-09
1.25141e-09
1.00446e-09
7.39914e-10
8.59889e-10
1.05857e-09
1.20921e-09
1.36659e-09
1.93008e-09
2.25319e-09
2.57297e-09
3.19362e-09
4.46093e-09
5.75112e-09
4.46473e-09
1.661e-09
6.46038e-10
9.44419e-10
8.72828e-10
7.43176e-10
1.45516e-09
2.61846e-09
4.02193e-09
5.53223e-09
5.54122e-09
3.82075e-09
1.98747e-09
1.52109e-09
1.65722e-09
3.64568e-09
7.2052e-09
7.95042e-09
7.13818e-09
5.71334e-09
3.70538e-09
1.8126e-09
1.03573e-09
1.91827e-09
3.41877e-09
3.08359e-09
2.43272e-09
1.9019e-09
1.48469e-09
1.16767e-09
1.53688e-09
1.85874e-09
1.99315e-09
2.19901e-09
2.93039e-09
3.2685e-09
3.56903e-09
3.96683e-09
5.75301e-09
7.97653e-09
6.22725e-09
2.18608e-09
1.1431e-09
1.98439e-09
1.68512e-09
1.13856e-09
2.0493e-09
3.57968e-09
5.3749e-09
7.70639e-09
7.66395e-09
5.0731e-09
2.3723e-09
2.16469e-09
2.21634e-09
4.71263e-09
1.01333e-08
1.06041e-08
9.12551e-09
7.34371e-09
4.91604e-09
2.6269e-09
1.74874e-09
3.34181e-09
5.95501e-09
4.7796e-09
3.67673e-09
2.8685e-09
2.23583e-09
1.89495e-09
2.71534e-09
3.23388e-09
3.26322e-09
3.49886e-09
4.50061e-09
4.82057e-09
5.12178e-09
5.0229e-09
7.44731e-09
1.11582e-08
8.87948e-09
3.08197e-09
2.17514e-09
3.90724e-09
3.15075e-09
1.86778e-09
3.05428e-09
5.02534e-09
7.2249e-09
1.08666e-08
1.07188e-08
6.94056e-09
3.04684e-09
3.53489e-09
3.43871e-09
6.3579e-09
1.45824e-08
1.42608e-08
1.16462e-08
9.47729e-09
6.65749e-09
3.94011e-09
2.94314e-09
5.64917e-09
1.01591e-08
7.27226e-09
5.46877e-09
4.29863e-09
3.40545e-09
3.12232e-09
4.6916e-09
5.48152e-09
5.25799e-09
5.47138e-09
6.92243e-09
7.18429e-09
7.59387e-09
6.52058e-09
9.71448e-09
1.56984e-08
1.28327e-08
4.57892e-09
4.03698e-09
7.12247e-09
5.57935e-09
3.11673e-09
4.68831e-09
7.15323e-09
9.72437e-09
1.54634e-08
1.50949e-08
9.71156e-09
4.21282e-09
6.07037e-09
5.77549e-09
8.84735e-09
2.12777e-08
1.92569e-08
1.47842e-08
1.22427e-08
9.14512e-09
5.96125e-09
4.83136e-09
9.23779e-09
1.69789e-08
1.08578e-08
8.00566e-09
6.37643e-09
5.18573e-09
5.14852e-09
7.84656e-09
8.95756e-09
8.24273e-09
8.32386e-09
1.05183e-08
1.06524e-08
1.1478e-08
8.62352e-09
1.27615e-08
2.20952e-08
1.8608e-08
6.98591e-09
7.11946e-09
1.21521e-08
9.40411e-09
5.14664e-09
7.21562e-09
1.02046e-08
1.30377e-08
2.20982e-08
2.12552e-08
1.37592e-08
6.10364e-09
1.03323e-08
9.81506e-09
1.25005e-08
3.12634e-08
2.6029e-08
1.87034e-08
1.588e-08
1.26784e-08
8.95809e-09
7.63354e-09
1.46033e-08
2.77449e-08
1.5882e-08
1.15425e-08
9.37688e-09
7.837e-09
8.54178e-09
1.27731e-08
1.41788e-08
1.26473e-08
1.24269e-08
1.58521e-08
1.57253e-08
1.76413e-08
1.16935e-08
1.70676e-08
3.09976e-08
2.69138e-08
1.07395e-08
1.19079e-08
1.96258e-08
1.52412e-08
8.39501e-09
1.10543e-08
1.45519e-08
1.74303e-08
3.16381e-08
2.98095e-08
1.9645e-08
9.05063e-09
1.71924e-08
1.66298e-08
1.78656e-08
4.61698e-08
3.52696e-08
2.37149e-08
2.08568e-08
1.78409e-08
1.34795e-08
1.1934e-08
2.26705e-08
4.45625e-08
2.29082e-08
1.65005e-08
1.38172e-08
1.17976e-08
1.42998e-08
2.01929e-08
2.16178e-08
1.88907e-08
1.82312e-08
2.35946e-08
2.29867e-08
2.73458e-08
1.61769e-08
2.32475e-08
4.32278e-08
3.87303e-08
1.65693e-08
1.90743e-08
3.02885e-08
2.38517e-08
1.33126e-08
1.66391e-08
2.07085e-08
2.33158e-08
4.5304e-08
4.15442e-08
2.81513e-08
1.35734e-08
2.7673e-08
2.74669e-08
2.55996e-08
6.82577e-08
4.80142e-08
3.04467e-08
2.78494e-08
2.52278e-08
2.00307e-08
1.82419e-08
3.43489e-08
7.02009e-08
3.28172e-08
2.35013e-08
2.04715e-08
1.77928e-08
2.43921e-08
3.11104e-08
3.17986e-08
2.75807e-08
2.66532e-08
3.50959e-08
3.32492e-08
4.25751e-08
2.28629e-08
3.24433e-08
5.99503e-08
5.53655e-08
2.55163e-08
2.94777e-08
4.52589e-08
3.6694e-08
2.10156e-08
2.48341e-08
2.95498e-08
3.14832e-08
6.48177e-08
5.7465e-08
4.05278e-08
2.03584e-08
4.35932e-08
4.49301e-08
3.69584e-08
1.0131e-07
6.62286e-08
4.02769e-08
3.83444e-08
3.63254e-08
3.00006e-08
2.80304e-08
5.12258e-08
1.08473e-07
4.67571e-08
3.37877e-08
3.07019e-08
2.69894e-08
4.25471e-08
4.70154e-08
4.6099e-08
4.02533e-08
3.92076e-08
5.24322e-08
4.77609e-08
6.66447e-08
3.32408e-08
4.66074e-08
8.29586e-08
7.86906e-08
3.94601e-08
4.44753e-08
6.57935e-08
5.50516e-08
3.2469e-08
3.68633e-08
4.25852e-08
4.34301e-08
9.25643e-08
7.9139e-08
5.8717e-08
3.07789e-08
6.63316e-08
7.12303e-08
5.3491e-08
1.51266e-07
9.253e-08
5.47678e-08
5.32134e-08
5.19108e-08
4.51042e-08
4.265e-08
7.51205e-08
1.6445e-07
6.654e-08
4.84402e-08
4.60946e-08
4.07496e-08
7.52051e-08
6.93058e-08
6.44023e-08
5.78921e-08
5.74936e-08
7.78874e-08
6.7552e-08
1.03092e-07
4.84672e-08
6.82064e-08
1.13853e-07
1.10782e-07
6.02698e-08
6.54253e-08
9.40057e-08
8.19777e-08
4.99502e-08
5.4034e-08
6.14552e-08
6.09803e-08
1.30767e-07
1.08162e-07
8.52955e-08
4.6522e-08
1.00048e-07
1.10709e-07
7.7249e-08
2.29137e-07
1.28526e-07
7.4934e-08
7.56436e-08
7.41902e-08
6.70028e-08
6.45022e-08
1.08753e-07
2.41681e-07
9.43519e-08
6.99175e-08
6.94659e-08
6.21732e-08
1.3196e-07
9.91061e-08
9.14087e-08
8.50288e-08
8.56227e-08
1.16385e-07
9.51342e-08
1.5199e-07
7.16943e-08
1.01e-07
1.56004e-07
1.54426e-07
9.16099e-08
9.42646e-08
1.32305e-07
1.17932e-07
7.49357e-08
7.85612e-08
9.06949e-08
8.67958e-08
1.83006e-07
1.45685e-07
1.24504e-07
6.96107e-08
1.43756e-07
1.65055e-07
1.09124e-07
3.36296e-07
1.75663e-07
1.02962e-07
1.08239e-07
1.02454e-07
9.93314e-08
9.61757e-08
1.55749e-07
3.43663e-07
1.33514e-07
9.87758e-08
9.99379e-08
9.30842e-08
2.31279e-07
1.40452e-07
1.20833e-07
1.18056e-07
1.23521e-07
1.68299e-07
1.27753e-07
2.19964e-07
1.03221e-07
1.44237e-07
2.16346e-07
2.11286e-07
1.3806e-07
1.30515e-07
1.74702e-07
1.63317e-07
1.1024e-07
1.1239e-07
1.26078e-07
1.24745e-07
2.69145e-07
1.90455e-07
1.72976e-07
1.0114e-07
1.9518e-07
2.36965e-07
1.50191e-07
4.67731e-07
2.46585e-07
1.39863e-07
1.51698e-07
1.3774e-07
1.41532e-07
1.37867e-07
2.27311e-07
4.58564e-07
1.76351e-07
1.33595e-07
1.40489e-07
1.35762e-07
3.28009e-07
1.86299e-07
1.58292e-07
1.63645e-07
1.79466e-07
2.21193e-07
1.68538e-07
2.82484e-07
1.46434e-07
2.06418e-07
2.87882e-07
2.76408e-07
1.96026e-07
1.75482e-07
2.13365e-07
2.12009e-07
1.56684e-07
1.5911e-07
1.70262e-07
1.73779e-07
3.65161e-07
2.42644e-07
2.51821e-07
1.43591e-07
2.42282e-07
2.94971e-07
1.94207e-07
5.89925e-07
3.61368e-07
1.82985e-07
1.98425e-07
1.7924e-07
1.9197e-07
1.8429e-07
3.36107e-07
5.81314e-07
2.23116e-07
1.69878e-07
1.8488e-07
1.81433e-07
4.26656e-07
2.39039e-07
2.06415e-07
2.08765e-07
2.51953e-07
2.92028e-07
2.10514e-07
3.06806e-07
1.92924e-07
2.96473e-07
3.64766e-07
3.54778e-07
2.81343e-07
2.26937e-07
2.56647e-07
2.63345e-07
2.10465e-07
2.13576e-07
2.15223e-07
2.31156e-07
4.22045e-07
2.9996e-07
3.45083e-07
1.86215e-07
2.86185e-07
3.55617e-07
2.39521e-07
6.44978e-07
4.55231e-07
2.19364e-07
2.42376e-07
2.20864e-07
2.45349e-07
2.28679e-07
4.11289e-07
6.16343e-07
2.74426e-07
2.09684e-07
2.2545e-07
2.35212e-07
5.10403e-07
2.88568e-07
2.52876e-07
2.46658e-07
3.50954e-07
3.53509e-07
2.63161e-07
3.69991e-07
2.38047e-07
3.94542e-07
4.41378e-07
4.25205e-07
3.82535e-07
2.79931e-07
2.95479e-07
3.20647e-07
2.55797e-07
2.8034e-07
2.53231e-07
2.74369e-07
4.09288e-07
3.40124e-07
4.21413e-07
2.28803e-07
3.16614e-07
3.95497e-07
2.73332e-07
6.3007e-07
5.18501e-07
2.56513e-07
2.69399e-07
2.53213e-07
2.84326e-07
2.60048e-07
4.22128e-07
5.76827e-07
2.86794e-07
2.4161e-07
2.47471e-07
2.75203e-07
6.01653e-07
3.26879e-07
2.8976e-07
2.69607e-07
4.26931e-07
3.93373e-07
3.05071e-07
4.44868e-07
2.68237e-07
4.58e-07
4.81113e-07
4.77833e-07
5.1035e-07
3.27052e-07
3.31097e-07
3.78595e-07
2.90103e-07
3.23492e-07
2.73449e-07
3.29589e-07
3.71753e-07
3.57105e-07
4.84831e-07
2.60228e-07
3.2619e-07
4.25256e-07
2.89382e-07
6.36572e-07
5.0613e-07
2.72828e-07
2.76124e-07
2.65975e-07
2.89875e-07
2.75312e-07
4.08968e-07
5.87616e-07
2.99538e-07
2.59665e-07
2.59896e-07
3.00557e-07
6.15101e-07
3.53997e-07
3.16443e-07
2.7545e-07
4.57811e-07
4.09021e-07
3.30843e-07
4.78105e-07
2.78166e-07
4.63326e-07
5.26845e-07
4.98968e-07
5.86078e-07
3.65234e-07
3.47364e-07
3.93327e-07
3.06653e-07
3.37996e-07
2.80278e-07
3.58005e-07
3.64354e-07
3.57406e-07
4.67607e-07
2.69898e-07
3.22917e-07
4.39126e-07
2.87174e-07
6.32849e-07
4.99354e-07
2.79609e-07
2.68158e-07
2.63727e-07
2.81228e-07
2.72619e-07
3.84327e-07
5.90593e-07
2.95781e-07
2.72185e-07
2.5856e-07
3.04586e-07
6.0388e-07
3.63487e-07
3.43015e-07
2.77216e-07
4.60223e-07
4.15809e-07
3.39672e-07
4.68023e-07
2.80859e-07
4.46418e-07
5.57301e-07
5.05221e-07
6.92467e-07
3.79091e-07
3.60194e-07
3.86198e-07
3.09405e-07
3.26048e-07
2.80352e-07
3.71505e-07
3.62573e-07
3.5124e-07
4.46618e-07
2.7256e-07
3.13773e-07
4.31326e-07
2.82414e-07
6.24015e-07
4.91016e-07
2.79982e-07
2.61504e-07
2.58001e-07
2.75155e-07
2.69107e-07
3.76216e-07
5.87217e-07
2.88059e-07
2.76282e-07
2.55854e-07
2.98139e-07
5.79223e-07
3.63024e-07
3.44857e-07
2.74581e-07
4.45021e-07
4.17823e-07
3.4047e-07
4.53224e-07
2.77906e-07
4.22144e-07
5.62432e-07