/*--------------------------------*- C++ -*----------------------------------*\
  =========                 |
  \\      /  F ield         | OpenFOAM: The Open Source CFD Toolbox
   \\    /   O peration     | Website:  https://openfoam.org
    \\  /    A nd           | Version:  10
     \\/     M anipulation  |
\*---------------------------------------------------------------------------*/
FoamFile
{
    format      ascii;
    class       surfaceScalarField;
    location    "15";
    object      phi;
}
// * * * * * * * * * * * * * * * * * * * * * * * * * * * * * * * * * * * * * //

dimensions      [0 3 -1 0 0 0 0];

internalField   nonuniform List<scalar> 
300480
(
1.45783e-05
4.17403e-06
-2.46328e-07
1.46832e-05
4.6484e-06
3.79045e-07
1.45205e-05
1.13008e-06
2.28492e-06
1.43116e-05
-2.58689e-06
1.60488e-06
1.35121e-05
-3.23927e-06
-1.54609e-06
1.26997e-05
-3.07714e-06
-2.77344e-06
1.17868e-05
-1.5028e-06
-2.60226e-06
1.11992e-05
9.3748e-07
-3.13095e-06
1.11612e-05
1.73358e-06
-2.36539e-06
1.05979e-05
2.532e-06
-1.18774e-06
1.05224e-05
3.37285e-06
-2.5387e-06
1.17021e-05
3.66885e-06
-3.40493e-06
1.22171e-05
3.93283e-06
-2.15916e-06
1.23915e-05
3.87592e-06
-6.91115e-07
1.37854e-05
1.60654e-06
5.35556e-07
1.52111e-05
-5.83036e-08
-5.66661e-08
1.61974e-05
-1.95128e-07
-1.9443e-06
1.84339e-05
-1.07539e-06
-2.10153e-06
2.14438e-05
-1.62488e-06
-1.71685e-06
2.1778e-05
-3.48184e-07
-2.92454e-06
2.10529e-05
-9.27055e-07
-3.26004e-06
2.13505e-05
-1.48234e-06
-5.24601e-07
2.01959e-05
-5.05816e-07
2.08877e-06
1.78979e-05
-1.24847e-06
2.13886e-06
1.5292e-05
-1.90516e-06
2.38458e-06
1.4309e-05
-3.85747e-06
4.19016e-06
1.45007e-05
-4.19876e-06
3.44905e-06
1.31116e-05
7.30641e-07
2.83618e-07
1.05169e-05
3.68005e-06
-5.72294e-07
9.4131e-06
-1.01015e-06
2.26973e-06
1.06834e-05
-5.40293e-06
4.34926e-06
1.17558e-05
-3.55985e-06
2.69515e-06
1.14259e-05
2.36175e-07
-3.74791e-07
1.12695e-05
1.30871e-06
-2.86197e-06
1.10711e-05
3.49996e-06
-4.57668e-06
1.04709e-05
4.29104e-06
-1.81482e-06
1.13496e-05
2.48268e-06
9.3055e-07
1.2213e-05
1.55224e-06
2.02491e-06
1.25459e-05
1.2728e-06
2.68445e-06
1.68521e-06
1.79701e-06
4.80449e-05
1.13714e-05
6.36847e-07
5.144e-05
9.52215e-06
2.12946e-06
5.32495e-05
-1.39219e-06
5.66775e-06
5.23479e-05
-1.0054e-05
3.87881e-06
4.84499e-05
-8.74787e-06
-3.60411e-06
4.40622e-05
-5.89154e-06
-7.36932e-06
3.97733e-05
-5.39973e-07
-7.63947e-06
3.69996e-05
6.72064e-06
-8.54934e-06
3.6072e-05
8.7346e-06
-6.14091e-06
3.49359e-05
9.92894e-06
-3.44751e-06
3.5054e-05
1.05149e-05
-4.11166e-06
3.76395e-05
1.07129e-05
-4.05239e-06
3.9644e-05
1.12166e-05
-1.91033e-06
4.15491e-05
1.04813e-05
3.45289e-07
4.52065e-05
4.21311e-06
1.30346e-06
4.92107e-05
-1.43961e-08
-8.43729e-07
5.27161e-05
5.77899e-07
-5.44763e-06
5.84945e-05
-1.81356e-06
-6.51152e-06
6.74098e-05
-5.09657e-06
-4.75537e-06
7.15029e-05
-4.46874e-06
-5.86601e-06
7.0997e-05
-5.73931e-06
-7.21977e-06
7.33914e-05
-8.30496e-06
-9.28259e-07
7.41958e-05
-7.59742e-06
6.16877e-06
6.8701e-05
-6.48298e-06
6.07079e-06
6.00379e-05
-6.12058e-06
6.48053e-06
5.38091e-05
-9.73576e-06
1.01587e-05
4.88026e-05
-7.97031e-06
7.73324e-06
4.28582e-05
4.94147e-06
5.83665e-07
3.79134e-05
9.91169e-06
-4.65439e-07
3.60554e-05
-4.50488e-06
6.03182e-06
3.74337e-05
-1.43835e-05
8.28894e-06
3.79003e-05
-6.81087e-06
1.87609e-06
3.65415e-05
3.07876e-06
-3.86479e-06
3.57777e-05
6.57865e-06
-7.90902e-06
3.55505e-05
1.147e-05
-8.353e-06
3.56153e-05
1.15453e-05
-1.08704e-06
3.81352e-05
8.11683e-06
3.43337e-06
4.0158e-05
6.44989e-06
5.71765e-06
4.13814e-05
4.7102e-06
7.61185e-06
5.97556e-06
5.19338e-06
8.7207e-05
1.87739e-05
4.73592e-06
9.78954e-05
1.11903e-05
5.6945e-06
0.000105755
-8.66904e-06
1.0433e-05
0.00010553
-2.17645e-05
9.68932e-06
9.73926e-05
-1.54525e-05
-1.28992e-06
8.71394e-05
-7.85526e-06
-8.4887e-06
7.70941e-05
2.61678e-06
-1.001e-05
6.98478e-05
1.71783e-05
-1.24416e-05
6.66162e-05
2.21491e-05
-1.00787e-05
6.49124e-05
2.33469e-05
-6.36015e-06
6.46434e-05
2.17076e-05
-5.29615e-06
6.75877e-05
1.94881e-05
-2.72636e-06
7.11587e-05
1.97796e-05
2.39604e-07
7.53787e-05
1.91148e-05
2.46585e-06
8.01016e-05
7.90676e-06
4.17377e-06
8.53907e-05
1.52439e-07
1.62627e-06
9.18092e-05
1.51949e-06
-5.12421e-06
9.89536e-05
2.33218e-07
-9.57664e-06
0.000112682
-6.51247e-06
-7.85984e-06
0.000126205
-1.1252e-05
-6.26948e-06
0.000130167
-1.52092e-05
-9.4915e-06
0.000136662
-2.16493e-05
-3.74667e-06
0.000147068
-2.60964e-05
9.92516e-06
0.000147334
-2.19203e-05
1.13099e-05
0.000135324
-1.53014e-05
8.89938e-06
0.00011904
-1.4462e-05
1.37308e-05
0.00010139
-5.40537e-06
1.26299e-05
8.65759e-05
1.43001e-05
3.36359e-06
7.83111e-05
1.87666e-05
-2.93262e-07
7.35105e-05
-6.83592e-06
7.87821e-06
7.16026e-05
-2.38946e-05
1.30793e-05
6.97995e-05
-9.98044e-06
3.4155e-06
6.68266e-05
8.47626e-06
-7.16525e-06
6.50874e-05
1.58737e-05
-1.28834e-05
6.51322e-05
2.30112e-05
-1.23582e-05
6.61186e-05
2.01172e-05
-2.06311e-06
7.06216e-05
1.47293e-05
4.6901e-06
7.51699e-05
1.37653e-05
7.93463e-06
7.67338e-05
1.08412e-05
1.25577e-05
1.22725e-05
1.16516e-05
0.000130365
2.87365e-05
1.32779e-05
0.000147359
9.86768e-06
1.54625e-05
0.000165423
-2.32211e-05
2.00809e-05
0.000171374
-3.92918e-05
1.96373e-05
0.000161315
-2.25632e-05
5.60707e-06
0.000143295
-6.59157e-06
-6.63914e-06
0.000124697
5.95462e-06
-7.8877e-06
0.000111187
2.54854e-05
-1.08772e-05
0.000104104
3.75209e-05
-1.15911e-05
0.000101645
4.28317e-05
-9.78901e-06
0.000100869
3.96066e-05
-9.03302e-06
0.000102625
3.05119e-05
-2.76016e-06
0.000106304
2.89639e-05
1.7845e-06
0.000113683
2.82072e-05
5.91475e-06
0.000119375
1.18883e-05
1.00374e-05
0.000122347
3.14445e-07
8.52322e-06
0.000130908
1.38308e-06
6.33557e-07
0.000139885
1.64806e-06
-7.09621e-06
0.000152852
-1.51384e-06
-9.14314e-06
0.000172727
-1.19355e-05
-4.94061e-06
0.000184827
-2.08869e-05
-8.84085e-06
0.000195737
-3.4962e-05
-7.94207e-06
0.000215877
-5.16758e-05
1.2378e-05
0.000232219
-5.17433e-05
2.21967e-05
0.000234657
-4.18763e-05
1.51134e-05
0.00021905
-2.79371e-05
1.46737e-05
0.00018737
3.24754e-06
1.54367e-05
0.000158856
3.07367e-05
7.98658e-06
0.000144711
2.8685e-05
3.22245e-06
0.0001321
-5.78715e-06
1.11137e-05
0.000118582
-2.90998e-05
2.17725e-05
0.000109441
-1.41966e-05
1.38221e-05
0.000103692
1.28779e-05
-6.25844e-06
0.000100527
2.77707e-05
-1.82338e-05
0.000100377
3.87088e-05
-1.82228e-05
0.000101056
3.03592e-05
-5.6682e-06
0.000106942
1.86244e-05
4.25742e-06
0.000117192
1.85433e-05
7.33304e-06
0.000121935
1.77854e-05
1.36225e-05
2.17365e-05
1.80232e-05
0.000186274
4.08691e-05
1.77924e-05
0.00020187
1.22941e-05
2.81499e-05
0.000224933
-4.11065e-05
3.4363e-05
0.000239318
-6.59095e-05
3.22386e-05
0.000235207
-3.53178e-05
1.74171e-05
0.000214905
-3.21459e-06
-1.83202e-06
0.00018529
1.22545e-05
-3.72462e-06
0.000161313
2.86106e-05
-4.87925e-06
0.000147959
4.4375e-05
-7.55555e-06
0.000145029
5.81125e-05
-9.23537e-06
0.000145669
6.12469e-05
-1.38263e-05
0.000146271
4.50651e-05
-6.7352e-06
0.0001472
3.58852e-05
1.55274e-06
0.000157367
3.47099e-05
7.70738e-06
0.000167484
1.31207e-05
1.69454e-05
0.000166005
-7.97762e-07
1.70621e-05
0.000170894
-1.09906e-06
1.21675e-05
0.000182274
-4.06566e-08
5.46774e-08
0.000194191
3.20634e-06
-5.81007e-06
0.00021389
-3.42961e-06
-6.7293e-07
0.000230842
-1.33843e-05
-4.46992e-06
0.000244546
-3.38311e-05
-1.18876e-05
0.000266787
-6.79887e-05
8.62978e-06
0.000286661
-7.73608e-05
3.1791e-05
0.000306781
-7.87961e-05
2.87952e-05
0.000316556
-6.5376e-05
2.02731e-05
0.000294432
-1.62772e-06
1.56256e-05
0.000266234
4.02983e-05
1.02983e-05
0.000255919
2.75688e-05
7.69191e-06
0.00023715
-5.27882e-06
1.37688e-05
0.00019811
-1.69253e-05
3.00001e-05
0.000164055
-6.51732e-06
3.16245e-05
0.000148426
1.27487e-05
7.3545e-06
0.000143323
3.47191e-05
-1.90986e-05
0.000143549
5.68437e-05
-2.55697e-05
0.000142708
4.46197e-05
-1.13946e-05
0.000145119
2.04925e-05
3.35412e-06
0.00015919
1.61147e-05
6.55667e-06
0.000172513
1.76926e-05
9.3875e-06
2.66274e-05
1.6072e-05
0.000255016
3.69315e-05
7.31003e-06
0.000273103
1.2106e-05
2.92678e-05
0.000293262
-5.26113e-05
4.49112e-05
0.000307777
-9.08469e-05
3.95954e-05
0.000307885
-5.58482e-05
2.71191e-05
0.000296572
-9.90701e-06
1.04556e-05
0.000265394
1.46154e-05
6.80547e-06
0.000229122
2.92216e-05
3.33989e-06
0.000203293
4.30568e-05
-1.95807e-06
0.000196755
5.81513e-05
-5.03652e-06
0.000201719
7.0206e-05
-1.85294e-05
0.000205936
5.6052e-05
-1.65932e-05
0.000202289
3.78744e-05
-4.13792e-06
0.000210555
3.19612e-05
2.63732e-06
0.000228673
8.46361e-06
1.72401e-05
0.000226911
-6.13066e-06
2.28963e-05
0.000222647
-6.79309e-06
2.24231e-05
0.000230285
-5.36574e-06
1.12995e-05
0.000241511
3.05537e-06
-3.14792e-06
0.000260258
1.14502e-06
4.21596e-06
0.000281074
-3.39078e-06
3.75851e-06
0.000296911
-1.96712e-05
-1.40901e-05
0.000318759
-6.85532e-05
-2.56614e-06
0.0003287
-8.12499e-05
2.80398e-05
0.000342627
-9.74982e-05
3.55148e-05
0.000374655
-0.000114452
2.48649e-05
0.000375776
-2.6666e-05
1.58121e-05
0.000353042
4.19869e-05
1.25508e-05
0.000361896
5.21046e-07
1.546e-05
0.000374822
-4.36628e-05
1.5518e-05
0.000332476
-4.96633e-06
2.88626e-05
0.000257708
3.49643e-05
4.49482e-05
0.000208367
2.74296e-05
3.25089e-05
0.000192596
3.18959e-05
-6.96864e-06
0.000194371
6.76824e-05
-3.10647e-05
0.000195663
5.95655e-05
-2.06472e-05
0.000192183
2.14647e-05
3.39132e-07
0.000201549
8.60827e-06
8.06442e-06
0.000217068
1.34268e-05
6.0376e-06
2.13104e-05
5.91707e-06
0.00030839
2.28691e-05
-1.42527e-05
0.000341911
-7.87501e-06
5.56133e-06
0.000364966
-6.96781e-05
4.11217e-05
0.000381831
-0.000115618
4.45434e-05
0.000381597
-7.5976e-05
2.82654e-05
0.000375638
-2.09628e-05
1.52752e-05
0.000353985
6.54994e-06
2.21131e-05
0.000317389
2.18781e-05
1.93222e-05
0.000283046
3.62316e-05
5.06149e-06
0.00027235
4.46635e-05
3.29855e-07
0.000281301
5.41012e-05
-2.10355e-05
0.0002968
4.8681e-05
-3.74945e-05
0.000294795
3.52337e-05
-2.45509e-05
0.000290775
2.28787e-05
-1.53631e-05
0.000309503
-4.93797e-06
1.58733e-06
0.000313338
-1.27556e-05
1.29681e-05
0.000300598
-1.36059e-05
2.16662e-05
0.000294866
-1.03181e-05
2.34102e-05
0.000299581
5.35934e-06
-8.22924e-07
0.000315761
-5.3082e-07
-2.01759e-06
0.000338474
-8.61553e-06
6.66816e-06
0.000355644
-1.53631e-05
-1.28032e-05
0.000381313
-6.94306e-05
-1.94096e-05
0.000390726
-7.83074e-05
8.12522e-06
0.000383572
-8.57549e-05
3.02063e-05
0.000406192
-0.000140051
2.59318e-05
0.00043703
-7.31413e-05
1.09043e-05
0.000431756
2.88683e-05
6.28418e-06
0.000419658
-7.82706e-06
2.30938e-05
0.000440736
-9.77859e-05
2.72811e-05
0.000450505
-5.32901e-05
2.60034e-05
0.000394258
5.81233e-05
4.5458e-05
0.000307675
7.10116e-05
5.49117e-05
0.000255714
4.03231e-05
1.99938e-05
0.000248993
6.80888e-05
-2.60629e-05
0.000255353
6.78875e-05
-3.06511e-05
0.000251241
1.80796e-05
-1.03523e-05
0.00025292
-6.43891e-06
6.84053e-06
0.000262186
8.62376e-06
6.40728e-06
2.30372e-05
-3.24308e-06
0.000345549
2.01932e-05
-2.86817e-05
0.000391833
-3.89476e-05
-2.14366e-05
0.00041761
-9.71303e-05
1.99331e-05
0.000436128
-0.000144834
4.49396e-05
0.000450837
-0.000112148
3.37133e-05
0.000457838
-4.17094e-05
9.04702e-06
0.00044253
8.61693e-07
2.21364e-05
0.000409889
1.33372e-05
3.48976e-05
0.000376567
2.31752e-05
1.59492e-05
0.000364473
2.49113e-05
7.96715e-06
0.000365293
3.19101e-05
-8.90829e-06
0.000377735
3.00062e-05
-4.35656e-05
0.000396207
1.43836e-05
-4.75718e-05
0.000400409
-1.22202e-06
-3.9854e-05
0.000412239
-2.96713e-05
-2.06711e-05
0.00041913
-2.46772e-05
-4.33642e-06
0.000407358
-2.25283e-05
-3.03996e-06
0.000389655
-1.31531e-05
1.96081e-05
0.000378514
2.11539e-05
8.23336e-06
0.000383816
8.60306e-06
-9.24201e-06
0.00040311
-2.09675e-05
-2.55378e-06
0.00041647
-2.72363e-05
-1.33337e-05
0.000439967
-8.08925e-05
-2.47148e-05
0.000457933
-9.05076e-05
-1.3066e-05
0.000449184
-7.15047e-05
9.40924e-06
0.00044746
-0.00012875
2.42255e-05
0.000472948
-0.000104434
1.27725e-05
0.000501048
-1.01606e-05
-5.47183e-06
0.000498409
-1.94917e-05
8.79187e-06
0.00048376
-0.000112746
2.91114e-05
0.000491211
-0.000110531
2.9826e-05
0.000496769
1.66205e-05
3.85495e-05
0.000443829
8.81241e-05
6.23193e-05
0.000359837
7.15273e-05
4.91223e-05
0.000321889
7.62416e-05
-5.39812e-06
0.0003266
6.94241e-05
-2.73267e-05
0.000324565
1.52921e-05
-1.59541e-05
0.000314993
-2.26857e-05
8.16668e-07
0.000312848
2.6243e-06
4.73271e-06
3.48151e-05
-6.77386e-06
0.000389661
3.21529e-05
-2.88147e-05
0.000439127
-5.81365e-05
-3.96387e-05
0.000472081
-0.000123909
-2.46762e-06
0.000478087
-0.000158895
3.78294e-05
0.00049338
-0.000145614
4.27241e-05
0.000529084
-8.31666e-05
6.89315e-06
0.000534946
-1.41032e-05
7.09753e-06
0.000502585
1.68623e-05
3.65364e-05
0.000468839
1.85193e-05
2.57132e-05
0.000458425
2.49927e-06
1.30446e-05
0.000453742
8.34508e-06
5.81722e-06
0.000441318
2.91936e-05
-3.05139e-05
0.000445913
1.70906e-05
-4.46715e-05
0.000458954
-1.1574e-05
-4.48086e-05
0.000481478
-5.71119e-05
-3.04939e-05
0.000501917
-4.76249e-05
-2.65011e-06
0.000502481
-4.24352e-05
-1.08809e-05
0.000491859
-3.1097e-05
-2.5419e-06
0.000477429
3.36636e-05
1.01003e-05
0.000470268
3.67161e-05
-8.00233e-06
0.000480426
-1.67871e-05
-7.45071e-06
0.000485878
-3.38721e-05
-1.81992e-05
0.000500453
-8.77686e-05
-2.4044e-05
0.000518183
-0.000103351
-1.65157e-05
0.000513127
-6.46625e-05
-1.182e-05
0.00050703
-0.000106035
8.7957e-06
0.000515837
-0.000109136
2.08809e-05
0.000542126
-4.25442e-05
-1.74952e-06
0.000565919
-4.64044e-05
-1.45141e-05
0.000559589
-0.000115611
2.72798e-06
0.000533887
-0.000126488
2.23191e-05
0.00053784
-2.92869e-05
2.55411e-05
0.000544978
5.61649e-05
4.85541e-05
0.0004969
8.57706e-05
5.74905e-05
0.000443839
9.43102e-05
1.37266e-05
0.000435065
6.96741e-05
-9.25495e-06
0.000431564
1.53556e-05
-2.24127e-07
0.000405752
-2.44594e-05
3.84084e-06
0.000382777
6.54004e-06
2.37216e-06
5.17853e-05
-3.18166e-06
0.000469607
5.17587e-05
-9.26894e-06
0.000502547
-3.96667e-05
-4.22607e-05
0.000541587
-0.000120032
-2.73363e-05
0.000545244
-0.000148345
1.63236e-05
0.000537339
-0.000141374
4.11851e-05
0.000573887
-0.000107968
5.67225e-06
0.000612898
-4.32493e-05
-1.03859e-05
0.000600526
1.31665e-05
2.59002e-05
0.000563661
3.06925e-05
3.15982e-05
0.000543486
-2.2981e-06
1.81428e-05
0.000534602
-1.17248e-05
1.43516e-05
0.000512784
3.09269e-05
-1.77974e-05
0.000502505
3.03834e-05
-3.80363e-05
0.000509415
-3.89235e-06
-3.49547e-05
0.000531341
-6.66581e-05
-2.91552e-05
0.0005593
-6.62083e-05
5.19193e-06
0.000568248
-4.70957e-05
-1.74411e-06
0.000566089
-5.43219e-05
-1.39266e-05
0.000562721
2.4352e-05
2.28096e-06
0.000555962
6.31999e-05
-5.94413e-06
0.000560082
4.47067e-06
5.88497e-07
0.000559473
-2.37781e-05
-1.05809e-05
0.000564641
-8.05419e-05
-2.36896e-05
0.000579907
-0.000108157
-7.73604e-06
0.000574504
-5.51767e-05
-1.54446e-05
0.000569072
-7.75309e-05
-1.44656e-05
0.000574607
-0.000100268
1.6115e-05
0.000586467
-5.84649e-05
1.54208e-05
0.000609654
-6.57366e-05
-1.74698e-05
0.000626988
-0.000122536
-2.5448e-05
0.000601833
-0.000115951
1.64808e-06
0.000574806
-3.38352e-05
7.39658e-06
0.000586299
2.73655e-05
2.46176e-05
0.000585247
7.29225e-05
4.68627e-05
0.000571174
9.25171e-05
1.41351e-05
0.000571745
5.98318e-05
-1.76467e-06
0.00056399
1.52166e-05
1.3425e-05
0.000524833
-2.32194e-05
2.18261e-05
0.000483962
8.68577e-06
1.01983e-05
5.88924e-05
7.11442e-06
0.000557922
5.72719e-05
1.42624e-05
0.000576457
-8.81262e-06
-2.64159e-05
0.000612329
-9.07064e-05
-4.25559e-05
0.000627188
-0.000123357
-1.82437e-05
0.000608552
-0.00011403
2.47659e-05
0.000618428
-9.49156e-05
5.75279e-06
0.00066834
-6.13588e-05
-2.4311e-05
0.000693201
-1.1109e-05
6.22952e-06
0.000666243
4.17524e-05
2.94903e-05
0.000626575
2.384e-05
1.91625e-05
0.000607617
-1.5944e-05
2.03707e-05
0.000593349
2.55898e-05
8.17709e-07
0.000586064
3.76889e-05
-3.28126e-05
0.00058605
5.2458e-06
-3.51231e-05
0.000597355
-6.62196e-05
-3.6162e-05
0.000625046
-8.94688e-05
1.38355e-06
0.000640468
-5.74304e-05
1.9682e-05
0.000639554
-6.79341e-05
-1.14201e-05
0.000639291
9.84564e-07
-7.35922e-06
0.000636478
7.52872e-05
-1.03396e-05
0.000638741
3.07664e-05
1.68479e-06
0.000635442
-4.59027e-06
2.72201e-06
0.000632285
-6.16445e-05
-1.87588e-05
0.000642465
-0.000104747
-1.51609e-06
0.000638792
-4.75993e-05
-9.64277e-06
0.000633543
-4.5179e-05
-3.34019e-05
0.00064055
-8.31028e-05
-4.96386e-06
0.000647436
-6.2205e-05
2.37192e-05
0.000658063
-6.82358e-05
-2.76308e-06
0.000683335
-0.00012699
-3.28217e-05
0.000680577
-0.000107737
-7.72111e-06
0.000642705
-1.17399e-05
1.16162e-07
0.000627238
3.56137e-05
6.57598e-06
0.000628365
6.78076e-05
3.10896e-05
0.000643567
7.90159e-05
-2.49701e-06
0.000676848
3.35824e-05
-1.43871e-05
0.000687363
5.99847e-06
1.05434e-05
0.000648443
-1.9783e-05
2.56785e-05
0.000592616
8.07607e-06
2.15084e-05
5.26795e-05
2.09664e-05
0.00064014
5.48412e-05
3.0173e-05
0.000648293
9.13836e-06
7.31917e-07
0.000679312
-6.87372e-05
-2.22887e-05
0.000704729
-0.000106853
-2.81159e-05
0.000694519
-9.25412e-05
8.19081e-06
0.000684839
-7.26206e-05
1.35525e-05
0.000718585
-5.82992e-05
-2.10736e-05
0.000764982
-3.7179e-05
-1.26783e-05
0.00076514
3.44037e-05
1.92711e-05
0.00072264
6.13601e-05
1.38931e-05
0.000688167
2.04967e-06
1.62147e-05
0.000675938
2.07111e-05
2.00161e-05
0.000681775
3.57628e-05
-1.2388e-05
0.000684628
1.53274e-05
-3.26162e-05
0.000680469
-4.28958e-05
-5.2149e-05
0.000693559
-9.38306e-05
-2.81835e-05
0.000713331
-7.51663e-05
2.16074e-05
0.000719931
-8.02385e-05
1.4944e-06
0.000720233
-2.94038e-05
-4.36883e-06
0.000718538
6.95606e-05
-1.27466e-05
0.00072095
5.07544e-05
-7.23177e-06
0.000718101
1.50888e-05
1.58485e-06
0.000710324
-4.00561e-05
-1.34589e-05
0.000712186
-9.41996e-05
6.47252e-07
0.000708079
-4.27787e-05
-4.55869e-06
0.000703881
-1.77467e-05
-3.76197e-05
0.000710023
-5.97382e-05
-3.43978e-05
0.00071845
-6.10262e-05
9.34423e-06
0.00072441
-6.69514e-05
1.21553e-05
0.00074393
-0.000126761
-2.57023e-05
0.000757953
-0.000110569
-1.04257e-05
0.00073176
3.35576e-07
8.81968e-06
0.00069928
5.89053e-05
1.04022e-05
0.000683268
7.90485e-05
3.13052e-05
0.00069323
7.30055e-05
-1.31397e-05
0.000735902
1.10106e-05
-3.58961e-05
0.000770751
-1.03625e-05
-2.461e-06
0.000756082
-1.66573e-05
1.05904e-05
0.000704559
1.10844e-05
1.46728e-05
4.88846e-05
2.71681e-05
0.000736761
4.98323e-05
3.33696e-05
0.000736231
1.42705e-05
2.07961e-05
0.000759203
-5.53822e-05
2.98091e-06
0.000784614
-9.97904e-05
-1.65715e-05
0.000783552
-8.22028e-05
1.73945e-06
0.000771155
-5.83253e-05
1.72816e-05
0.000784859
-4.57107e-05
-4.89873e-06
0.000824454
-4.60257e-05
-1.81388e-05
0.000845729
1.63792e-05
7.14007e-06
0.000822669
8.31076e-05
1.40591e-05
0.000785612
3.12833e-05
2.74212e-06
0.000765525
2.19793e-05
2.6419e-05
0.000775569
2.61493e-05
1.77111e-05
0.000790229
9.59408e-06
-5.37473e-06
0.000784199
-1.38678e-05
-4.81042e-05
0.000777399
-6.4958e-05
-6.04207e-05
0.000787045
-6.8557e-05
-6.78092e-06
0.000800575
-8.47213e-05
2.44619e-06
0.000808003
-5.92339e-05
3.66259e-06
0.000809691
4.55369e-05
-3.85581e-06
0.000811689
5.55569e-05
-8.06171e-06
0.000806941
3.29239e-05
-6.2711e-06
0.000796041
-1.56663e-05
-1.3275e-05
0.000791611
-7.79783e-05
3.44594e-06
0.000786691
-4.41759e-05
-3.77238e-07
0.000785364
-6.93947e-06
-2.68992e-05
0.000790089
-3.60713e-05
-4.22815e-05
0.000796326
-5.60994e-05
-9.30722e-06
0.000800124
-6.47786e-05
1.32695e-05
0.000812117
-0.000124489
-2.11257e-05
0.000830185
-0.000117349
-2.00836e-05
0.0008193
-3.23103e-06
6.75324e-06
0.000787833
7.15418e-05
1.9608e-05
0.000762925
9.20361e-05
4.54306e-05
0.000759875
7.1958e-05
-4.05166e-06
0.000791584
-2.58755e-06
-4.67703e-05
0.000833823
-2.37307e-05
-1.58424e-05
0.000841804
-1.29782e-05
-4.0545e-06
0.000808632
1.89839e-05
-7.16078e-06
5.02432e-05
1.50616e-05
0.000847185
4.33666e-05
2.55123e-05
0.000842805
1.44027e-05
2.30404e-05
0.000857867
-4.18674e-05
1.15462e-05
0.000876142
-9.01836e-05
-8.18619e-06
0.00087608
-7.62287e-05
2.33899e-06
0.000865895
-4.90684e-05
1.42483e-05
0.000868591
-3.37623e-05
9.38484e-06
0.000890883
-3.93319e-05
-1.00172e-05
0.000914756
5.64121e-06
-2.21802e-06
0.000909234
8.69654e-05
1.83588e-05
0.000884064
5.26725e-05
-1.80995e-06
0.000863929
2.49389e-05
1.89263e-05
0.000867388
1.83098e-05
3.28583e-05
0.000883861
-1.2793e-07
2.07094e-05
0.000884446
3.73593e-08
-2.44969e-05
0.000872753
-3.1555e-05
-6.63427e-05
0.000871731
-4.56335e-05
-2.66646e-05
0.000883769
-7.51085e-05
-7.63158e-06
0.000897944
-7.55213e-05
-7.26458e-07
0.000904613
1.7164e-05
-1.41699e-06
0.000904969
4.30939e-05
-1.98896e-06
0.000897059
3.97304e-05
-5.25006e-07
0.0008836
9.18891e-06
-9.4122e-06
0.000875297
-5.35315e-05
5.11922e-06
0.00086972
-4.54811e-05
-1.38411e-06
0.000872081
-1.11596e-05
-2.13675e-05
0.00087923
-2.05014e-05
-3.87544e-05
0.000884045
-4.45875e-05
-2.08967e-05
0.000884594
-5.48431e-05
6.95854e-06
0.00088944
-0.000115251
-2.04728e-05
0.000903838
-0.000117419
-3.1475e-05
0.000901922
-7.17734e-06
-1.01382e-05
0.000879881
7.46977e-05
1.37134e-05
0.000856074
9.92458e-05
5.55749e-05
0.00084547
7.40624e-05
1.31894e-05
0.000863038
-9.04696e-06
-4.53201e-05
0.000899948
-3.51495e-05
-2.12077e-05
0.000919481
-1.23541e-05
-9.58785e-06
0.000905369
2.91338e-05
-2.76471e-05
5.15201e-05
-2.7152e-06
0.000959897
3.6842e-05
1.58394e-05
0.00095483
1.44323e-05
1.58027e-05
0.000966042
-2.55584e-05
7.66602e-06
0.000978202
-7.51457e-05
-5.11292e-06
0.000973938
-6.95773e-05
5.78768e-06
0.000963081
-4.04909e-05
1.2414e-05
0.000962004
-2.40232e-05
1.43735e-05
0.000970609
-2.7797e-05
1.02583e-06
0.000987714
3.41704e-06
-3.15727e-06
0.000988874
8.32627e-05
1.91578e-05
0.000975179
6.02129e-05
3.90016e-06
0.000963641
2.09073e-05
1.19604e-05
0.000962951
1.05444e-05
3.44986e-05
0.000973507
-4.06123e-06
3.15086e-05
0.000976279
8.62816e-06
-1.04871e-05
0.000969744
-7.04717e-06
-5.71161e-05
0.000969364
-2.55357e-05
-3.21458e-05
0.000977422
-6.04309e-05
-1.22802e-05
0.000989445
-7.85178e-05
-5.51723e-06
0.000993774
5.83272e-10
-7.37771e-06
0.000987889
3.55e-05
-4.80192e-06
0.000977227
3.96672e-05
4.3471e-06
0.000966718
2.1378e-05
1.26313e-06
0.000961612
-3.50379e-05
1.06697e-05
0.000958184
-4.72152e-05
-1.82399e-06
0.00096314
-2.06489e-05
-2.26632e-05
0.000973176
-1.33402e-05
-3.33818e-05
0.000979247
-3.08813e-05
-2.38959e-05
0.000977077
-3.68329e-05
5.77497e-07
0.000975078
-9.84676e-05
-1.72957e-05
0.000983157
-0.000112529
-3.22247e-05
0.000985246
-1.12107e-05
-2.09093e-05
0.000974498
7.22985e-05
-1.82626e-06
0.000957166
0.000101697
5.13798e-05
0.000944202
7.90502e-05
2.55124e-05
0.000949679
-5.25609e-06
-3.79597e-05
0.000976348
-4.51931e-05
-1.88825e-05
0.00100029
-2.32782e-05
-3.40065e-06
0.00100086
3.09889e-05
-3.31232e-05
5.13138e-05
-1.64346e-05
0.00106886
3.16054e-05
9.46985e-06
0.00106403
1.55829e-05
4.94103e-06
0.00107453
-8.96914e-06
-2.645e-06
0.00108434
-5.49312e-05
-8.88676e-06
0.00107605
-5.67916e-05
4.54684e-06
0.00106189
-3.00785e-05
1.35202e-05
0.00106106
-1.66334e-05
1.31872e-05
0.00106478
-1.85945e-05
4.05611e-06
0.00107458
4.37339e-06
-1.26999e-06
0.00107632
7.6584e-05
1.60696e-05
0.00106952
5.70398e-05
1.24716e-05
0.00106623
1.1515e-05
9.13204e-06
0.00106416
2.19257e-06
2.74228e-05
0.00106784
-3.15734e-06
3.27072e-05
0.00107086
1.92009e-05
-6.59555e-06
0.0010728
1.24281e-05
-4.90409e-05
0.00107938
-1.43936e-05
-3.24168e-05
0.0010831
-4.88715e-05
-1.22503e-05
0.00108289
-6.88506e-05
-6.80104e-06
0.00107581
5.53893e-07
-1.04426e-05
0.00106496
3.62877e-05
-5.77143e-06
0.00105853
3.31204e-05
4.78024e-06
0.00105771
1.83677e-05
4.2621e-06
0.00106019
-2.73735e-05
1.23715e-05
0.00105893
-4.83106e-05
3.17855e-07
0.00106299
-2.98338e-05
-1.83485e-05
0.00107304
-1.46094e-05
-2.07131e-05
0.00108091
-2.3223e-05
-1.48389e-05
0.0010772
-1.97251e-05
1.81554e-06
0.00106725
-7.49017e-05
-1.01755e-05
0.00106562
-0.000104445
-2.2282e-05
0.00106815
-2.33923e-05
-1.61531e-05
0.00106872
5.73e-05
-7.92176e-06
0.0010621
9.72349e-05
4.01591e-05
0.00105326
8.38013e-05
2.92098e-05
0.00105193
7.47337e-06
-3.0552e-05
0.00106814
-5.04418e-05
-1.57853e-05
0.00109108
-4.45543e-05
3.74774e-06
0.00109902
2.0607e-05
-2.70322e-05
4.66268e-05
-1.68301e-05
0.00117694
2.74923e-05
4.2164e-06
0.00117325
1.59079e-05
-4.38938e-06
0.00118296
2.97914e-06
-1.25794e-05
0.00119186
-3.36108e-05
-1.35965e-05
0.00118434
-4.05847e-05
1.50883e-06
0.00117006
-2.23291e-05
1.78714e-05
0.00117005
-1.29114e-05
1.3924e-05
0.00117393
-1.30519e-05
8.24076e-07
0.00118053
2.96982e-06
-1.89129e-06
0.00118298
6.32649e-05
1.28743e-05
0.00117884
4.89692e-05
1.85995e-05
0.00117804
6.13215e-06
6.52318e-06
0.00117596
-2.70585e-06
1.24354e-05
0.00117588
-2.84502e-06
2.72493e-05
0.00118037
2.44338e-05
-9.81912e-07
0.00118869
2.9279e-05
-4.03365e-05
0.00119703
-6.69861e-06
-3.12773e-05
0.00119394
-4.12156e-05
-1.15527e-05
0.00118281
-5.18543e-05
-5.49483e-06
0.00117029
9.49252e-06
-7.82878e-06
0.00116246
3.68129e-05
-1.53267e-06
0.00116384
2.10016e-05
4.26922e-06
0.00117111
8.4705e-06
7.51102e-07
0.00117829
-2.36293e-05
9.51477e-06
0.0011759
-4.35311e-05
3.63916e-06
0.00117473
-3.28619e-05
-1.07224e-05
0.00118023
-1.82601e-05
-8.41009e-06
0.00118813
-2.52451e-05
-8.60275e-07
0.00118725
-1.47025e-05
8.21143e-06
0.00117422
-5.05829e-05
-3.45161e-06
0.00116203
-8.82599e-05
-1.27114e-05
0.00115933
-3.79112e-05
-7.7092e-06
0.00116647
3.44582e-05
-9.70579e-06
0.00117255
8.43058e-05
2.73933e-05
0.00117466
8.13599e-05
2.81074e-05
0.00117376
2.0381e-05
-2.45045e-05
0.00117987
-4.47014e-05
-1.98135e-05
0.00119237
-5.40844e-05
-3.56892e-06
0.00119712
1.37e-05
-2.40583e-05
4.18584e-05
-1.4396e-05
0.00129404
1.94547e-05
3.03987e-06
0.00129297
1.08353e-05
-5.02424e-06
0.00130015
6.42254e-06
-1.32476e-05
0.0013064
-1.80828e-05
-9.85761e-06
0.00130378
-2.95596e-05
2.11531e-06
0.00129462
-2.09454e-05
1.9212e-05
0.00129366
-1.22342e-05
1.53555e-05
0.00129648
-1.04653e-05
-1.6429e-06
0.00130299
-4.79117e-06
-1.83234e-06
0.0013092
4.16388e-05
6.34962e-06
0.00130574
4.1306e-05
1.71127e-05
0.00130084
8.83315e-06
6.35306e-06
0.00129815
-3.40061e-06
-4.08613e-07
0.00129928
-5.8132e-06
1.53913e-05
0.00130618
2.05701e-05
-1.63272e-06
0.00131521
3.99001e-05
-2.81332e-05
0.00131854
6.8083e-07
-2.42768e-05
0.00130948
-3.45595e-05
-1.18623e-05
0.0012975
-3.77107e-05
-3.76558e-06
0.00129054
1.3436e-05
-4.62138e-06
0.00128834
3.33506e-05
3.37673e-06
0.00129118
1.38445e-05
3.86423e-06
0.00129867
2.56301e-06
-2.3938e-06
0.00130632
-2.00997e-05
6.36249e-06
0.00130302
-3.44172e-05
4.02826e-06
0.0012983
-2.74483e-05
-7.51574e-06
0.00129856
-1.63272e-05
-3.72843e-06
0.0013041
-2.75388e-05
4.47742e-06
0.0013078
-1.78905e-05
8.35309e-06
0.00129964
-2.96862e-05
-7.18294e-07
0.00128387
-6.39737e-05
-7.55201e-06
0.00127321
-3.99176e-05
-6.82448e-06
0.00127889
1.97255e-05
-1.28844e-05
0.00129332
6.89829e-05
1.38605e-05
0.00130557
6.96282e-05
2.29947e-05
0.00130826
2.37109e-05
-1.80478e-05
0.00130651
-3.14149e-05
-2.50098e-05
0.00130463
-4.12953e-05
-1.68472e-05
0.00130172
1.83909e-05
-2.22767e-05
3.63767e-05
-9.50468e-06
0.001428
7.80636e-06
3.11567e-06
0.00142852
3.96275e-06
-3.18822e-06
0.00143383
7.90542e-06
-1.26007e-05
0.00143621
-9.49031e-06
-3.94042e-06
0.00143545
-2.47806e-05
2.36283e-06
0.00143151
-2.02118e-05
8.68286e-06
0.00142975
-9.94276e-06
8.35024e-06
0.00142878
-7.62707e-06
-2.31969e-06
0.00143253
-1.44663e-05
3.96362e-07
0.00144195
2.34339e-05
-8.04499e-06
0.0014422
3.90206e-05
1.35072e-06
0.00143397
1.46813e-05
4.88581e-06
0.00142896
8.32434e-08
-5.00796e-06
0.00142995
-6.31339e-06
5.12727e-06
0.00143851
1.82367e-05
-1.40006e-05
0.00144699
4.20332e-05
-2.11185e-05
0.00144519
6.10391e-06
-1.65792e-05
0.00143434
-2.66127e-05
-1.29672e-05
0.00142667
-2.73899e-05
-4.26023e-06
0.00142687
1.20904e-05
-7.63839e-06
0.00142809
3.01123e-05
-2.94714e-07
0.00142821
1.31816e-05
3.12816e-06
0.00143221
1.743e-06
-2.45614e-06
0.00143839
-1.36772e-05
4.22298e-07
0.00143573
-2.30113e-05
-1.62817e-06
0.00143122
-1.90776e-05
-7.57893e-06
0.00142921
-9.4682e-06
-5.56926e-07
0.00143155
-2.51332e-05
7.35966e-06
0.00143732
-1.75985e-05
1.77519e-06
0.00143596
-1.32481e-05
-1.23517e-06
0.0014229
-4.09702e-05
-5.19224e-06
0.00140842
-2.93537e-05
-8.41614e-06
0.00141063
1.42513e-05
-1.01268e-05
0.00142717
5.42004e-05
5.72124e-06
0.00144244
5.39824e-05
1.38277e-05
0.00144473
2.0947e-05
-1.71806e-05
0.00143778
-1.55138e-05
-2.72373e-05
0.00143011
-2.03158e-05
-2.04731e-05
0.00142698
2.18028e-05
-1.5455e-05
2.4381e-05
-2.71989e-06
0.0015736
8.79931e-07
-1.27816e-06
0.00157335
3.39414e-06
-7.02428e-06
0.00157845
1.15163e-05
-1.46765e-05
0.00157956
-5.33856e-06
-3.0064e-06
0.00157682
-2.10601e-05
9.61304e-07
0.00157416
-1.5801e-05
-1.36609e-06
0.00157411
-6.00009e-06
-3.59096e-07
0.00157195
-4.20007e-06
-3.02673e-06
0.00156952
-1.75057e-05
1.70511e-06
0.00157594
1.56968e-05
-1.52618e-05
0.00158119
3.57307e-05
-8.36541e-06
0.00157666
1.65401e-05
3.01321e-06
0.00157159
3.04824e-06
-4.08238e-06
0.00156939
-2.71793e-06
1.11692e-06
0.0015754
1.82262e-05
-1.85257e-05
0.0015842
3.67205e-05
-1.732e-05
0.00158214
8.22473e-06
-1.22213e-05
0.00157334
-1.85113e-05
-1.2339e-05
0.00156872
-1.84304e-05
-4.09145e-06
0.0015709
1.04992e-05
-1.01088e-05
0.00157367
2.52222e-05
-2.48615e-06
0.00157335
1.23691e-05
4.41125e-06
0.00157494
2.57847e-06
-1.15378e-06
0.00157846
-5.41734e-06
-1.7629e-06
0.00157619
-1.29607e-05
-4.21987e-06
0.00157366
-1.43131e-05
-5.57811e-06
0.0015734
-4.40623e-06
2.41261e-06
0.0015737
-1.89077e-05
8.31067e-06
0.00157771
-1.14344e-05
-1.95435e-06
0.00157961
-3.67937e-06
-1.22507e-06
0.00157043
-2.64707e-05
-3.20362e-06
0.00155904
-1.99837e-05
-4.02852e-06
0.00156029
9.74338e-06
-1.60139e-06
0.00157189
4.11382e-05
5.53232e-06
0.0015822
4.06024e-05
6.42651e-06
0.00158177
1.81917e-05
-1.87181e-05
0.00157564
-2.88228e-06
-2.34671e-05
0.00157174
-7.19371e-06
-1.37191e-05
0.00157275
1.80173e-05
-8.85276e-06
1.22781e-05
-2.46814e-06
0.00172946
-2.17658e-06
-2.52826e-06
0.00172947
5.25113e-06
-7.42803e-06
0.00173477
1.27091e-05
-1.09489e-05
0.00173601
-3.53448e-06
-3.26542e-06
0.00173246
-1.75675e-05
1.06522e-07
0.00172894
-1.16744e-05
-1.51554e-06
0.00173042
-4.45782e-06
-1.78833e-06
0.00172994
-2.39897e-06
-2.58226e-06
0.00172483
-1.54186e-05
2.04539e-06
0.00172699
1.03549e-05
-8.93256e-06
0.00173267
2.69624e-05