/*--------------------------------*- C++ -*----------------------------------*\
  =========                 |
  \\      /  F ield         | OpenFOAM: The Open Source CFD Toolbox
   \\    /   O peration     | Website:  https://openfoam.org
    \\  /    A nd           | Version:  10
     \\/     M anipulation  |
\*---------------------------------------------------------------------------*/
FoamFile
{
    format      ascii;
    class       volScalarField;
    location    "14";
    object      p;
}
// * * * * * * * * * * * * * * * * * * * * * * * * * * * * * * * * * * * * * //

dimensions      [0 2 -2 0 0 0 0];

internalField   nonuniform List<scalar> 
25600
(
-1.80894e-05
1.70031e-05
1.97858e-05
-1.1329e-05
-2.65862e-05
-2.11163e-05
9.71413e-06
8.00752e-06
-1.67563e-05
-2.40662e-05
-1.09952e-05
1.75838e-05
1.75718e-05
-1.0399e-05
-1.73201e-05
-1.40718e-05
1.63073e-05
1.56986e-05
-1.88714e-05
-1.96038e-05
-1.21975e-05
1.85183e-05
1.04037e-05
-2.08896e-05
-2.9459e-05
-1.62489e-05
1.38298e-05
1.08489e-05
-2.529e-05
-3.73116e-05
-1.90277e-05
1.99844e-05
1.91444e-05
-2.36736e-05
-4.1346e-05
-2.85183e-05
1.52746e-05
2.37764e-05
-6.68523e-06
-2.42008e-05
-1.79079e-05
1.65724e-05
2.02211e-05
-1.02635e-05
-2.57453e-05
-2.09133e-05
9.27382e-06
8.41564e-06
-1.57102e-05
-2.32293e-05
-1.08397e-05
1.70724e-05
1.78963e-05
-9.5323e-06
-1.64519e-05
-1.37004e-05
1.59962e-05
1.61672e-05
-1.79024e-05
-1.89925e-05
-1.2011e-05
1.81099e-05
1.08779e-05
-1.97203e-05
-2.85347e-05
-1.60384e-05
1.3461e-05
1.1339e-05
-2.41259e-05
-3.64393e-05
-1.88214e-05
1.96354e-05
1.96642e-05
-2.24225e-05
-4.03587e-05
-2.82529e-05
1.48282e-05
2.40978e-05
-5.67162e-06
-2.33004e-05
-1.7949e-05
1.61821e-05
2.0974e-05
-9.13893e-06
-2.50426e-05
-2.09432e-05
8.87835e-06
9.0828e-06
-1.46506e-05
-2.25557e-05
-1.08894e-05
1.66208e-05
1.84832e-05
-8.54957e-06
-1.5654e-05
-1.3531e-05
1.57141e-05
1.69075e-05
-1.69215e-05
-1.84682e-05
-1.19635e-05
1.77669e-05
1.15833e-05
-1.85521e-05
-2.7809e-05
-1.60456e-05
1.31525e-05
1.21151e-05
-2.29731e-05
-3.57241e-05
-1.88131e-05
1.9331e-05
2.04395e-05
-2.11371e-05
-3.96242e-05
-2.82596e-05
1.44089e-05
2.46891e-05
-4.57451e-06
-2.25088e-05
-1.83623e-05
1.58567e-05
2.20962e-05
-8.08666e-06
-2.46083e-05
-2.12737e-05
8.48301e-06
1.00263e-05
-1.37124e-05
-2.21745e-05
-1.12701e-05
1.62831e-05
1.93632e-05
-7.59532e-06
-1.50938e-05
-1.37305e-05
1.54697e-05
1.79254e-05
-1.60503e-05
-1.81575e-05
-1.21619e-05
1.75319e-05
1.25115e-05
-1.75491e-05
-2.74823e-05
-1.63697e-05
1.29266e-05
1.31466e-05
-2.20193e-05
-3.53939e-05
-1.91344e-05
1.9126e-05
2.14916e-05
-1.99754e-05
-3.93858e-05
-2.87065e-05
1.40586e-05
2.5609e-05
-3.51102e-06
-2.20222e-05
-1.92368e-05
1.55868e-05
2.36052e-05
-7.19393e-06
-2.45537e-05
-2.19712e-05
8.22401e-06
1.12132e-05
-1.29519e-05
-2.22126e-05
-1.2061e-05
1.60808e-05
2.05366e-05
-6.75383e-06
-1.49203e-05
-1.44135e-05
1.52333e-05
1.91606e-05
-1.53587e-05
-1.81372e-05
-1.26466e-05
1.74104e-05
1.36072e-05
-1.68214e-05
-2.75387e-05
-1.71232e-05
1.27855e-05
1.44403e-05
-2.13949e-05
-3.55811e-05
-1.98771e-05
1.9073e-05
2.28866e-05
-1.9013e-05
-3.95722e-05
-2.96982e-05
1.37853e-05
2.686e-05
-2.54332e-06
-2.19472e-05
-2.06943e-05
1.53039e-05
2.54713e-05
-6.5493e-06
-2.49868e-05
-2.31022e-05
8.10931e-06
1.25771e-05
-1.2462e-05
-2.27638e-05
-1.33834e-05
1.59976e-05
2.19761e-05
-6.09449e-06
-1.50795e-05
-1.57323e-05
1.48404e-05
2.05893e-05
-1.48942e-05
-1.84816e-05
-1.3479e-05
1.73487e-05
1.48557e-05
-1.64565e-05
-2.81236e-05
-1.84419e-05
1.26914e-05
1.59763e-05
-2.12592e-05
-3.63818e-05
-2.11335e-05
1.91605e-05
2.45585e-05
-1.83155e-05
-4.03686e-05
-3.13675e-05
1.35209e-05
2.8387e-05
-1.71054e-06
-2.23574e-05
-2.28933e-05
1.49309e-05
2.75296e-05
-6.14615e-06
-2.59848e-05
-2.48616e-05
7.88874e-06
1.40793e-05
-1.22109e-05
-2.38715e-05
-1.53989e-05
1.58611e-05
2.35388e-05
-5.5812e-06
-1.55705e-05
-1.78599e-05
1.41904e-05
2.21287e-05
-1.47254e-05
-1.92706e-05
-1.47901e-05
1.69281e-05
1.61964e-05
-1.63263e-05
-2.92453e-05
-2.05163e-05
1.25e-05
1.77576e-05
-2.16905e-05
-3.78479e-05
-2.30756e-05
1.91647e-05
2.64929e-05
-1.78161e-05
-4.17593e-05
-3.38526e-05
1.323e-05
3.00571e-05
-1.01884e-06
-2.32761e-05
-2.5935e-05
1.39634e-05
2.95475e-05
-5.66768e-06
-2.73949e-05
-2.73872e-05
7.36602e-06
1.55343e-05
-1.18247e-05
-2.52705e-05
-1.82236e-05
1.52466e-05
2.49971e-05
-5.14617e-06
-1.66653e-05
-2.08767e-05
1.28121e-05
2.35119e-05
-1.46706e-05
-2.04137e-05
-1.67211e-05
1.62178e-05
1.73914e-05
-1.63906e-05
-3.13119e-05
-2.34708e-05
1.18362e-05
1.96589e-05
-2.09063e-05
-3.98265e-05
-2.58124e-05
1.85009e-05
2.85546e-05
-1.76782e-05
-4.29661e-05
-3.71795e-05
1.2329e-05
3.16737e-05
-1.86752e-07
-2.44782e-05
-2.967e-05
1.18117e-05
2.92523e-05
-5.1637e-06
-2.90216e-05
-3.05849e-05
6.06514e-06
1.62595e-05
-1.12983e-05
-2.66786e-05
-2.17327e-05
1.36108e-05
2.55987e-05
-4.79536e-06
-1.76803e-05
-2.45697e-05
1.01837e-05
2.38927e-05
-1.46006e-05
-2.17813e-05
-1.9278e-05
1.47841e-05
1.77106e-05
-1.64401e-05
-3.34508e-05
-2.7155e-05
1.01693e-05
2.10989e-05
-2.02144e-05
-4.11494e-05
-2.91775e-05
1.70815e-05
3.01845e-05
-1.74512e-05
-4.39141e-05
-4.10607e-05
1.04395e-05
3.241e-05
7.88533e-07
-2.56551e-05
-3.33475e-05
8.2725e-06
2.7726e-05
-4.96488e-06
-2.97637e-05
-3.37853e-05
3.72902e-06
1.60935e-05
-1.08573e-05
-2.68825e-05
-2.51997e-05
1.07546e-05
2.48367e-05
-4.88319e-06
-1.75696e-05
-2.8076e-05
6.20956e-06
2.29632e-05
-1.48037e-05
-2.24264e-05
-2.20107e-05
1.24249e-05
1.70437e-05
-1.67021e-05
-3.45447e-05
-3.0794e-05
7.3089e-06
2.02089e-05
-1.96548e-05
-4.13288e-05
-3.24526e-05
1.47281e-05
2.99049e-05
-1.73811e-05
-4.35222e-05
-4.46011e-05
7.59992e-06
3.17731e-05
1.65195e-06
-2.55363e-05
-3.50776e-05
3.82664e-06
2.48576e-05
-5.69804e-06
-2.85369e-05
-3.50832e-05
7.20271e-07
1.42423e-05
-1.11229e-05
-2.48798e-05
-2.67545e-05
7.18166e-06
2.25953e-05
-5.87846e-06
-1.55761e-05
-2.87382e-05
1.61877e-06
2.04619e-05
-1.57328e-05
-2.15024e-05
-2.33001e-05
9.39354e-06
1.52519e-05
-1.76679e-05
-3.35232e-05
-3.21639e-05
3.78346e-06
1.80054e-05
-1.98481e-05
-3.89963e-05
-3.39835e-05
1.18634e-05
2.81279e-05
-1.81582e-05
-4.06859e-05
-4.57609e-05
4.72529e-06
2.9459e-05
1.71824e-06
-2.30662e-05
-3.21383e-05
5.28089e-08
2.14324e-05
-6.46645e-06
-2.56157e-05
-3.23457e-05
-1.52033e-06
1.14436e-05
-1.14104e-05
-2.1182e-05
-2.40625e-05
4.48561e-06
1.95057e-05
-6.73654e-06
-1.236e-05
-2.48943e-05
-2.00559e-06
1.75813e-05
-1.62306e-05
-1.94659e-05
-2.1067e-05
6.70254e-06
1.33833e-05
-1.81367e-05
-3.10311e-05
-2.90132e-05
9.67168e-07
1.55362e-05
-2.05092e-05
-3.42433e-05
-3.16291e-05
9.55037e-06
2.56501e-05
-1.94397e-05
-3.58757e-05
-4.16935e-05
3.6977e-06
2.61114e-05
1.44292e-06
-1.86396e-05
-2.34655e-05
-1.24144e-06
1.80211e-05
-6.8371e-06
-2.29599e-05
-2.49661e-05
-1.31936e-06
8.82161e-06
-1.17089e-05
-1.82348e-05
-1.63779e-05
4.32037e-06
1.64121e-05
-7.31257e-06
-1.01051e-05
-1.61228e-05
-3.59983e-06
1.51916e-05
-1.57787e-05
-1.78294e-05
-1.52053e-05
5.27891e-06
1.18047e-05
-1.77663e-05
-2.96125e-05
-2.06963e-05
1.53523e-07
1.34739e-05
-1.78072e-05
-2.92965e-05
-2.42296e-05
8.76688e-06
2.30997e-05
-1.69125e-05
-3.1415e-05
-3.19645e-05
7.51457e-06
2.26806e-05
3.2171e-07
-1.49483e-05
-1.35702e-05
-9.43025e-07
1.50981e-05
-5.6239e-06
-2.05773e-05
-1.62798e-05
-1.61501e-06
6.83914e-06
-1.04561e-05
-1.60081e-05
-8.12707e-06
3.93758e-06
1.38177e-05
-6.56358e-06
-8.46244e-06
-7.46173e-06
-1.51921e-06
1.36871e-05
-1.32408e-05
-1.60294e-05
-8.82329e-06
4.19794e-06
1.04749e-05
-1.49084e-05
-2.94386e-05
-1.17786e-05
1.13367e-07
1.16718e-05
-1.4138e-05
-2.52299e-05
-1.51955e-05
6.7669e-06
2.02854e-05
-1.35753e-05
-2.74772e-05
-2.07299e-05
3.57778e-06
1.95628e-05
-3.09476e-08
-1.25538e-05
-6.85236e-06
9.23228e-07
1.29796e-05
-4.0768e-06
-1.70825e-05
-1.07711e-05
-5.26268e-07
5.39378e-06
-8.24496e-06
-1.30637e-05
-2.79578e-06
4.48062e-06
1.1664e-05
-5.16349e-06
-5.60917e-06
-2.37792e-06
1.26496e-06
1.28311e-05
-1.00159e-05
-1.25093e-05
-5.03554e-06
4.09962e-06
9.16693e-06
-1.14679e-05
-3.0119e-05
-6.0205e-06
1.30374e-06
9.65553e-06
-1.03855e-05
-2.13881e-05
-8.93506e-06
6.06938e-06
1.68881e-05
-1.02693e-05
-2.28544e-05
-1.27508e-05
2.85129e-06
1.68838e-05
-1.15618e-07
-1.02415e-05
-3.41754e-06
1.87787e-06
1.12293e-05
-3.32823e-06
-1.32529e-05
-7.77607e-06
7.60281e-08
3.95263e-06
-6.42765e-06
-8.20988e-06
-3.96984e-07
4.4216e-06
9.76104e-06
-4.06435e-06
-2.82144e-06
-6.81078e-09
2.56006e-06
1.20147e-05
-7.3795e-06
-8.18328e-06
-3.01961e-06
3.71565e-06
8.14297e-06
-8.78653e-06
-2.051e-05
-3.20118e-06
1.75079e-06
7.64861e-06
-7.96975e-06
-2.18176e-05
-5.72437e-06
5.14659e-06
1.32728e-05
-8.07373e-06
-1.62719e-05
-8.21675e-06
2.39742e-06
1.45593e-05
-5.37704e-07
-6.2418e-06
-1.61078e-06
1.82121e-06
1.05222e-05
-3.08339e-06
-9.95519e-06
-5.99985e-06
8.12876e-08
2.9283e-06
-5.18867e-06
-4.87482e-06
6.6261e-07
3.81808e-06
8.00222e-06
-3.30804e-06
-1.63226e-06
1.09825e-06
2.59569e-06
9.80436e-06
-5.41416e-06
-5.40796e-06
-1.92081e-06
3.22168e-06
7.15718e-06
-6.81247e-06
-1.15839e-05
-1.6857e-06
1.51262e-06
6.29203e-06
-6.52451e-06
-1.74425e-05
-3.96566e-06
3.9132e-06
1.02884e-05
-6.78263e-06
-1.17738e-05
-5.6419e-06
1.5834e-06
1.18948e-05
-1.11534e-06
-4.03666e-06
-3.91812e-07
1.23128e-06
7.38218e-06
-2.89612e-06
-7.62678e-06
-4.79392e-06
-1.55661e-07
2.11103e-06
-4.12184e-06
-3.08544e-06
1.20225e-06
3.01673e-06
6.54768e-06
-2.67878e-06
-1.07639e-06
1.69398e-06
2.08547e-06
7.96982e-06
-3.82972e-06
-3.52039e-06
-1.12002e-06
2.95349e-06
5.92565e-06
-5.22896e-06
-6.50764e-06
-6.86442e-07
1.0747e-06
5.26598e-06
-5.32408e-06
-1.07815e-05
-2.60658e-06
2.71206e-06
7.89507e-06
-5.85774e-06
-8.36213e-06
-3.7601e-06
6.66881e-07
9.01736e-06
-1.49773e-06
-2.61896e-06
5.60597e-07
4.73281e-07
5.32924e-06
-2.56075e-06
-6.02152e-06
-3.77779e-06
-4.53951e-07
1.52309e-06
-3.19958e-06
-1.70655e-06
1.50756e-06
2.2162e-06
5.31775e-06
-2.05017e-06
-8.43461e-07
2.07744e-06
1.41862e-06
6.42977e-06
-2.55315e-06
-2.35099e-06
-4.90799e-07
2.01296e-06
5.02939e-06
-3.89498e-06
-3.6459e-06
-4.78784e-09
6.52459e-07
4.24304e-06
-4.20363e-06
-6.95754e-06
-1.53002e-06
1.67286e-06
6.02741e-06
-4.84715e-06
-5.79469e-06
-2.33271e-06
-1.92767e-07
7.01145e-06
-1.53522e-06
-1.75057e-06
1.29246e-06
-1.91551e-07
3.87144e-06
-2.02148e-06
-5.1787e-06
-2.83163e-06
-7.11027e-07
1.05711e-06
-2.31397e-06
-9.47502e-07
1.6521e-06
1.55233e-06
4.3734e-06
-1.36265e-06
-8.39667e-07
2.31114e-06
8.07177e-07
5.06584e-06
-1.44928e-06
-1.69701e-06
3.71143e-08
1.17526e-06
4.29033e-06
-2.6983e-06
-2.16516e-06
4.29025e-07
1.11217e-07
3.50812e-06
-3.08656e-06
-4.72092e-06
-6.96015e-07
9.79059e-07
4.53056e-06
-3.8315e-06
-4.17021e-06
-1.24314e-06
-8.63813e-07
5.47067e-06
-1.23192e-06
-1.19372e-06
1.74024e-06
-5.93199e-07
2.68826e-06
-1.30515e-06
-4.68866e-06
-2.01774e-06
-8.71973e-07
6.18176e-07
-1.46562e-06
-5.4257e-07
1.65487e-06
1.1786e-06
3.5552e-06
-6.36853e-07
-9.31084e-07
2.3743e-06
3.7982e-07
3.82127e-06
-4.77899e-07
-1.33717e-06
4.25656e-07
5.64136e-07
3.49258e-06
-1.62134e-06
-1.47847e-06
6.62679e-07
-2.08151e-07
2.90862e-06
-1.99481e-06
-3.46476e-06
-1.77218e-07
4.42603e-07
3.27126e-06
-2.83981e-06
-3.20142e-06
-4.40503e-07
-1.36966e-06
4.13045e-06
-6.55204e-07
-1.15972e-06
1.84409e-06
-6.88233e-07
1.63867e-06
-5.23049e-07
-4.00249e-06
-1.4312e-06
-7.89875e-07
1.95216e-07
-7.1898e-07
-2.97999e-07
1.48947e-06
8.39206e-07
2.79195e-06
5.07178e-08
-1.01568e-06
2.22793e-06
1.94283e-07
2.59337e-06
3.11868e-07
-1.08982e-06
6.35648e-07
2.16086e-07
2.63322e-06
-6.9918e-07
-1.1557e-06
7.17653e-07
-4.76497e-07
2.13271e-06
-1.00315e-06
-2.66815e-06
6.28744e-08
1.78727e-07
2.19575e-06
-1.93235e-06
-2.58104e-06
6.19429e-08
-1.59653e-06
2.89317e-06
8.9335e-08
-1.28185e-06
1.61009e-06
-5.32483e-07
7.18242e-07
1.26474e-07
-2.919e-06
-1.12266e-06
-5.07807e-07
-1.34022e-07
-1.60821e-07
-9.67532e-08
1.17167e-06
7.41025e-07
2.08497e-06
6.06723e-07
-1.01331e-06
1.88712e-06
2.41913e-07
1.53505e-06
8.38418e-07
-8.37284e-07
6.178e-07
1.00851e-07
1.80717e-06
-2.45457e-09
-9.42802e-07
6.25461e-07
-5.76884e-07
1.30703e-06
-2.11621e-07
-2.06813e-06
5.798e-08
1.04216e-07
1.30072e-06
-1.16658e-06
-2.13543e-06
2.57745e-07
-1.53129e-06
1.75163e-06
6.69814e-07
-1.33662e-06
1.17025e-06
-2.36254e-07
2.425e-09
4.80719e-07
-2.10526e-06
-1.01787e-06
-1.97643e-07
-3.29698e-07
1.33415e-07
1.37413e-07
8.39858e-07
5.95708e-07
1.43853e-06
9.16146e-07
-8.86485e-07
1.43152e-06
4.22797e-07
7.33945e-07
1.13438e-06
-5.33266e-07
4.66035e-07
1.22863e-07
1.10746e-06
4.11199e-07
-7.43263e-07
4.47866e-07
-5.06391e-07
5.74724e-07
2.77631e-07
-1.5393e-06
-5.45617e-08
9.42693e-08
6.14299e-07
-5.85933e-07
-1.7446e-06
2.24025e-07
-1.24983e-06
7.96203e-07
9.95045e-07
-1.22689e-06
6.44114e-07
1.48216e-08
-4.61545e-07
5.14489e-07
-1.37545e-06
-9.73922e-07
1.58151e-08
-3.95116e-07
2.44778e-07
3.5408e-07
5.73018e-07
4.66358e-07
9.2838e-07
1.00375e-06
-6.25957e-07
9.48464e-07
6.06449e-07
2.28817e-07
1.10075e-06
-1.9046e-07
2.85603e-07
1.75512e-07
5.86544e-07
5.6356e-07
-5.08806e-07
2.90226e-07
-3.45784e-07
1.95111e-08
4.55993e-07
-1.03678e-06
-2.24036e-07
1.02945e-07
1.43659e-07
-3.22173e-07
-1.37033e-06
9.19242e-08
-8.7983e-07
8.3012e-08
1.01373e-06
-9.32122e-07
2.01928e-07
1.50294e-07
-6.43635e-07
4.0744e-07
-7.53368e-07
-8.88905e-07
1.02659e-07
-3.2838e-07
1.9455e-07
4.7466e-07
4.02095e-07
3.89185e-07
5.6424e-07
9.55464e-07
-3.08304e-07
5.01704e-07
6.91591e-07
-2.28143e-09
8.80307e-07
9.88845e-08
1.52564e-07
2.02285e-07
2.61889e-07
5.82174e-07
-2.49733e-07
1.57668e-07
-1.74995e-07
-3.05728e-07
4.01721e-07
-5.82949e-07
-3.55365e-07
8.13344e-08
-1.13012e-07
-2.47693e-07
-1.01192e-06
-4.76153e-08
-5.48332e-07
-3.59331e-07
8.03815e-07
-5.62086e-07
-7.41024e-08
1.71464e-07
-6.11964e-07
2.06791e-07
-3.21724e-07
-7.32926e-07
8.81811e-08
-2.00474e-07
1.36985e-07
5.06945e-07
3.26798e-07
3.715e-07
3.50129e-07
8.0273e-07
-2.62172e-08
2.18947e-07
6.61742e-07
-3.47955e-08
6.0777e-07
2.71369e-07
8.99916e-08
2.13043e-07
1.16514e-07
4.7517e-07
-4.55073e-08
6.23999e-08
-5.29867e-08
-4.10811e-07
2.73173e-07
-2.42946e-07
-4.06103e-07
1.45367e-08
-2.29555e-07
-2.57409e-07
-7.05889e-07
-1.66612e-07
-3.16599e-07
-5.36041e-07
5.18837e-07
-2.42896e-07
-1.9508e-07
9.33716e-08
-4.69937e-07
1.63795e-08
-9.7139e-08
-5.36586e-07
2.77344e-08
-6.92623e-08
8.10432e-08
4.5716e-07
2.99427e-07
3.13161e-07
2.37255e-07
6.05813e-07
1.63529e-07
1.05608e-07
5.56932e-07
2.94825e-08
3.60322e-07
3.43012e-07
9.62852e-08
2.02097e-07
8.46103e-08
3.27791e-07
7.30975e-08
1.17665e-08
2.24233e-08
-3.52391e-07
9.93508e-08
-4.63789e-08
-3.79184e-07
-5.89634e-08
-2.41977e-07
-2.66978e-07
-4.97134e-07
-2.36862e-07
-1.85423e-07
-5.15258e-07
2.30658e-07
-4.24051e-08
-2.08187e-07
4.89492e-09
-3.20212e-07
-1.04546e-07
-2.8395e-08
-3.44775e-07
-2.0243e-08
1.0302e-08
4.87356e-08
3.58939e-07
2.7517e-07
2.70218e-07
1.89291e-07
4.31669e-07
2.57323e-07
8.70303e-08
4.22964e-07
1.07438e-07
2.1045e-07
3.24417e-07
1.26658e-07
1.82217e-07
9.77107e-08
2.15301e-07
1.27968e-07
-3.37323e-09
5.52103e-08
-2.43796e-07
-3.04955e-08
9.79268e-09
-3.07216e-07
-1.07404e-07
-2.21349e-07
-2.66512e-07
-3.43316e-07
-2.5985e-07
-1.36721e-07
-4.19929e-07
4.37562e-09
2.40453e-08
-1.77868e-07
-6.94605e-08
-2.1979e-07
-1.70007e-07
-2.64245e-08
-2.08008e-07
-5.47214e-08
3.98138e-08
4.41735e-08
2.55235e-07
2.38465e-07
2.16075e-07
1.54491e-07
2.91515e-07
2.6472e-07
1.11924e-07
3.12333e-07
1.75722e-07
1.52102e-07
2.83142e-07
1.59164e-07
1.72287e-07
1.20739e-07
1.48911e-07
1.53083e-07
4.06618e-09
7.04451e-08
-1.4903e-07
-9.62189e-08
2.78047e-08
-2.43059e-07
-1.29042e-07
-2.01914e-07
-2.7214e-07
-2.52493e-07
-2.47286e-07
-1.4084e-07
-3.22328e-07
-1.21254e-07
4.73998e-09
-1.50179e-07
-1.13377e-07
-1.68199e-07
-1.82011e-07
-6.01233e-08
-1.29096e-07
-6.56156e-08
2.84183e-08
2.87683e-08
1.59932e-07
1.81039e-07
1.86324e-07
1.42979e-07
1.99641e-07
2.42257e-07
1.41242e-07
2.37961e-07
2.00612e-07
1.45885e-07
2.43065e-07
1.83695e-07
1.75508e-07
1.47855e-07
1.30511e-07
1.56011e-07
4.48631e-08
6.05679e-08
-7.64792e-08
-9.57852e-08
-4.74529e-09
-1.90354e-07
-1.31019e-07
-1.92666e-07
-2.60694e-07
-2.08635e-07
-2.3252e-07
-1.47772e-07
-2.2839e-07
-1.79185e-07
-5.11724e-08
-1.44112e-07
-1.50753e-07
-1.26626e-07
-1.51866e-07
-1.03139e-07
-1.32943e-07
-8.80025e-08
8.89981e-09
2.09241e-08
9.28811e-08
1.06773e-07
1.01718e-07
8.59653e-08
1.25629e-07
2.10054e-07
1.74877e-07
2.18436e-07
2.23834e-07
1.62671e-07
2.41192e-07
1.99617e-07
1.97986e-07
1.73458e-07
1.43031e-07
1.77671e-07
6.51065e-08
9.6917e-08
-4.86135e-08
-6.65906e-08
-4.41812e-09
-1.73376e-07
-1.0791e-07
-1.6727e-07
-2.74769e-07
-1.82202e-07
-1.98155e-07
-1.60773e-07
-2.00013e-07
-1.70561e-07
-6.87933e-08
-1.11916e-05
1.05141e-05
3.30915e-05
2.17925e-05
-1.00676e-05
-1.42156e-05
2.41873e-07
1.44839e-05
1.70807e-05
-9.48986e-06
2.02645e-06
1.60575e-05
3.39238e-05
2.21235e-05
-1.2152e-05
-1.31881e-05
9.63761e-06
2.82987e-05
2.03684e-05
-2.8118e-06
-8.84008e-06
5.02338e-06
1.72738e-05
8.36974e-06
-1.54831e-05
-4.99987e-06
1.25579e-05
2.51646e-05
-1.80503e-07
-2.08697e-05
-4.75369e-06
1.73141e-05
3.06061e-05
9.4469e-06
-2.04822e-05
-1.31026e-05
2.01523e-05
3.71311e-05
2.47751e-05
-1.00149e-05
-1.23075e-05
9.33762e-06
3.21747e-05
2.18834e-05
-1.01127e-05
-1.50756e-05
-7.97959e-07
1.35739e-05
1.70146e-05
-9.60583e-06
8.19095e-07
1.48596e-05
3.28576e-05
2.21844e-05
-1.2097e-05
-1.41931e-05
8.49359e-06
2.74241e-05
2.02939e-05
-2.78039e-06
-9.622e-06
4.19269e-06
1.66156e-05
8.54775e-06
-1.55812e-05
-6.04449e-06
1.16201e-05
2.45142e-05
-4.43633e-10
-2.11792e-05
-5.79124e-06
1.6212e-05
2.96795e-05
9.44054e-06
-2.07086e-05
-1.4432e-05
1.88466e-05
3.61836e-05
2.46871e-05
-1.00344e-05
-1.35595e-05
8.08997e-06
3.14086e-05
2.21253e-05
-1.03413e-05
-1.60335e-05
-1.95376e-06
1.27511e-05
1.70362e-05
-9.93277e-06
-4.57554e-07
1.35902e-05
3.19208e-05
2.23796e-05
-1.22796e-05
-1.53474e-05
7.24252e-06
2.66913e-05
2.0371e-05
-2.89253e-06
-1.05966e-05
3.23946e-06
1.60494e-05
8.85898e-06
-1.59177e-05
-7.21816e-06
1.0624e-05
2.40164e-05
2.56674e-07
-2.17315e-05
-6.94546e-06
1.50323e-05
2.88821e-05
9.50146e-06
-2.11687e-05
-1.58961e-05
1.74954e-05
3.53669e-05
2.47168e-05
-1.02879e-05
-1.48059e-05
6.8686e-06
3.09002e-05
2.24715e-05
-1.07433e-05
-1.70413e-05
-3.11821e-06
1.21424e-05
1.71288e-05
-1.04411e-05
-1.65105e-06
1.23572e-05
3.12253e-05
2.26648e-05
-1.26413e-05
-1.65238e-05
5.98823e-06
2.62177e-05
2.05878e-05
-3.15344e-06
-1.16986e-05
2.23478e-06
1.56539e-05
9.28127e-06
-1.64656e-05
-8.4289e-06
9.66083e-06
2.3767e-05
5.57469e-07
-2.25135e-05
-8.09685e-06
1.39145e-05
2.83386e-05
9.60074e-06
-2.18366e-05
-1.7346e-05
1.6218e-05
3.48092e-05
2.48487e-05
-1.07427e-05
-1.58342e-05
5.71148e-06
3.06197e-05
2.28969e-05
-1.13401e-05
-1.7984e-05
-4.24651e-06
1.17545e-05
1.72782e-05
-1.11442e-05
-2.60016e-06
1.12081e-05
3.07326e-05
2.30076e-05
-1.31932e-05
-1.74575e-05
4.77821e-06
2.59974e-05
2.09338e-05
-3.59709e-06
-1.28614e-05
1.19599e-06
1.54311e-05
9.86508e-06
-1.72155e-05
-9.56936e-06
8.74344e-06
2.37219e-05
9.30429e-07
-2.35403e-05
-9.14016e-06
1.28987e-05
2.8002e-05
9.74277e-06
-2.27097e-05
-1.86206e-05
1.50502e-05
3.44873e-05
2.5065e-05
-1.14264e-05
-1.67123e-05
4.78724e-06
3.05231e-05
2.34332e-05
-1.2151e-05
-1.84475e-05
-5.1919e-06
1.15919e-05
1.75364e-05
-1.20641e-05
-3.59929e-06
1.02949e-05
3.03639e-05
2.33743e-05
-1.39408e-05
-1.83369e-05
3.82042e-06
2.6018e-05
2.1462e-05
-4.25388e-06
-1.29574e-05
2.20207e-07
1.53271e-05
1.06894e-05
-1.81434e-05
-1.0045e-05
7.98066e-06
2.38864e-05
1.528e-06
-2.48311e-05
-9.81507e-06
1.21125e-05
2.79372e-05
1.00147e-05
-2.3771e-05
-1.98216e-05
1.41434e-05
3.43537e-05
2.53959e-05
-1.23545e-05
-1.7505e-05
4.17814e-06
3.06208e-05
2.40261e-05
-1.31053e-05
-1.88551e-05
-5.63191e-06
1.17673e-05
1.78412e-05
-1.31363e-05
-4.49746e-06
9.92869e-06
3.02282e-05
2.39951e-05
-1.48067e-05
-1.92594e-05
3.13219e-06
2.636e-05
2.2215e-05
-5.0863e-06
-1.3126e-05
-4.3809e-07
1.53793e-05
1.05767e-05
-1.91398e-05
-1.05308e-05
7.67557e-06
2.43037e-05
2.54175e-06
-2.63279e-05
-1.041e-05
1.18262e-05
2.82241e-05
1.02086e-05
-2.4892e-05
-2.09969e-05
1.36129e-05
3.44494e-05
2.56963e-05
-1.34268e-05
-1.84801e-05
4.06314e-06
3.1038e-05
2.49622e-05
-1.3876e-05
-1.94719e-05
-5.47527e-06
1.24923e-05
1.85735e-05
-1.40308e-05
-5.65997e-06
1.00687e-05
3.0504e-05
2.50748e-05
-1.54869e-05
-2.04664e-05
2.73621e-06
2.71353e-05
2.34846e-05
-5.83363e-06
-1.35442e-05
-8.1426e-07
1.58207e-05
1.12968e-05
-1.98754e-05
-1.13588e-05
7.79891e-06
2.51834e-05
2.75216e-06
-2.77315e-05
-1.12712e-05
1.2022e-05
2.90906e-05
1.14456e-05
-2.56797e-05
-2.24803e-05
1.3416e-05
3.49014e-05
2.63743e-05
-1.4255e-05
-1.98366e-05
3.89414e-06
3.1726e-05
2.6843e-05
-1.37471e-05
-2.05123e-05
-5.11134e-06
1.38439e-05
2.03963e-05
-1.39796e-05
-7.40631e-06
1.01261e-05
3.11473e-05
2.70361e-05
-1.5171e-05
-2.20834e-05
1.98485e-06
2.82912e-05
2.56152e-05
-5.87455e-06
-1.43507e-05
-1.19241e-06
1.68395e-05
1.33369e-05
-1.9732e-05
-1.28552e-05
7.84669e-06
2.66722e-05
4.5199e-06
-2.83191e-05
-1.28348e-05
1.21758e-05
3.06354e-05
1.40948e-05
-2.5426e-05
-2.45591e-05
1.28638e-05
3.56481e-05
2.79727e-05
-1.40262e-05
-2.11164e-05
2.4058e-06
3.17835e-05
2.97037e-05
-1.1975e-05
-2.15758e-05
-5.73945e-06
1.48126e-05
2.33933e-05
-1.21075e-05
-9.37184e-06
8.77061e-06
3.121e-05
2.98553e-05
-1.30781e-05
-2.35927e-05
-4.6796e-07
2.87249e-05
2.86225e-05
-4.59974e-06
-1.51992e-05
-2.78058e-06
1.76989e-05
1.68387e-05
-1.77124e-05
-1.4706e-05
6.48514e-06
2.78687e-05
8.24378e-06
-2.71703e-05
-1.49814e-05
1.08895e-05
3.18623e-05
1.84266e-05
-2.30369e-05
-2.68281e-05
1.06475e-05
3.56599e-05
3.05749e-05
-1.20874e-05
-2.08079e-05
-9.21261e-07
2.94656e-05
3.22917e-05
-7.89201e-06
-2.12837e-05
-7.94218e-06
1.35585e-05
2.62831e-05
-7.68315e-06
-1.00429e-05
5.59688e-06
2.87615e-05
3.20541e-05
-8.47248e-06
-2.27919e-05
-4.8985e-06
2.6576e-05
3.12321e-05
-1.46727e-06
-1.48016e-05
-6.25315e-06
1.6739e-05
2.06221e-05
-1.29644e-05
-1.50864e-05
3.00761e-06
2.69143e-05
1.32478e-05
-2.32262e-05
-1.63001e-05
7.31947e-06
3.08389e-05
2.34927e-05
-1.76776e-05
-2.71338e-05
6.38464e-06
3.31455e-05
3.30306e-05
-7.84538e-06
-1.86643e-05
-5.13451e-06
2.36262e-05
3.07293e-05
-1.5788e-06
-1.92618e-05
-1.11264e-05
9.02086e-06
2.47264e-05
-1.04313e-06
-8.70932e-06
1.79467e-06
2.27902e-05
2.95549e-05
-1.65435e-06
-1.96338e-05
-9.62574e-06
2.06417e-05
2.90727e-05
3.31833e-06
-1.32131e-05
-1.13092e-05
1.28072e-05
2.06803e-05
-5.63584e-06
-1.36824e-05
-1.8108e-06
2.23454e-05
1.68016e-05
-1.63392e-05
-1.61e-05
1.88677e-06
2.62786e-05
2.57575e-05
-9.77119e-06
-2.49032e-05
1.3879e-06
2.72031e-05
3.14741e-05
-1.51653e-06
-1.43986e-05
-7.46393e-06
1.56922e-05
2.38492e-05
4.89846e-06
-1.53119e-05
-1.32986e-05
2.87861e-06
1.88188e-05
5.10673e-06
-5.21394e-06
-5.24927e-07
1.51648e-05
2.23916e-05
4.67734e-06
-1.38974e-05
-1.03949e-05
1.26665e-05
2.23669e-05
7.79029e-06
-1.01923e-05
-1.62864e-05
6.92068e-06
1.51146e-05
1.67363e-06
-1.00669e-05
-5.33637e-06
1.52028e-05
1.31141e-05
-8.44923e-06
-1.34582e-05
-3.52074e-06
1.94133e-05
1.84262e-05
-2.18036e-06
-1.97423e-05
-6.61852e-07
1.96747e-05
2.55022e-05
4.70108e-06
-8.91559e-06
-6.76959e-06
9.83448e-06
1.65665e-05
8.71004e-06
-1.027e-05
-1.08628e-05
-1.03272e-06
1.17635e-05
8.47722e-06
-8.32357e-07
-4.4358e-07
9.7962e-06
1.54245e-05
8.43908e-06
-7.52297e-06
-9.30969e-06
6.72017e-06
1.48598e-05
9.75683e-06
-6.39468e-06
-1.12758e-05
2.85841e-06
9.61559e-06
5.94909e-06
-5.32726e-06
-5.12379e-06
9.5389e-06
8.76483e-06
-2.94821e-06
-8.96429e-06
-3.03591e-06
1.39119e-05
1.18915e-05
2.74708e-06
-1.32249e-05
-1.97754e-06
1.38863e-05
1.82195e-05
8.26579e-06
-4.54294e-06
-5.82299e-06
6.46452e-06
1.05757e-05
9.91874e-06
-6.40145e-06
-8.75198e-06
-2.65737e-06
6.82445e-06
9.66004e-06
2.0957e-06
-3.87844e-07
6.81012e-06
9.94164e-06
1.06389e-05
-3.16792e-06
-7.6514e-06
3.01514e-06
8.96182e-06
8.98001e-06
-3.55917e-06
-7.88612e-06
9.31335e-07
5.42023e-06
7.41222e-06
-1.98973e-06
-4.72017e-06
5.98782e-06
5.22186e-06
3.67299e-07
-5.29138e-06
-2.57212e-06
1.02514e-05
6.92505e-06
5.16752e-06
-8.36723e-06
-2.72552e-06
9.93618e-06
1.26005e-05
9.59589e-06
-1.80857e-06
-5.34569e-06
4.65258e-06
6.74273e-06
8.94828e-06
-4.13045e-06
-7.35642e-06
-3.0678e-06
4.04328e-06
9.80501e-06
3.3307e-06
-6.34523e-07
4.9625e-06
6.45978e-06
7.43137e-06
-8.71867e-07
-6.4972e-06
6.27728e-07
5.47654e-06
6.98202e-06
-1.90793e-06
-5.83951e-06
-3.02788e-08
2.88402e-06
8.75022e-06
-2.18282e-07
-4.71515e-06
3.87724e-06
3.03926e-06
1.42245e-06
-3.05496e-06
-2.5836e-06
7.77561e-06
3.85407e-06
5.3691e-06
-5.3827e-06
-3.5771e-06
6.90492e-06
8.77533e-06
9.59671e-06
-2.22355e-07
-5.06486e-06
3.15854e-06
4.34759e-06
7.02597e-06
-2.83233e-06
-6.31559e-06
-3.2652e-06
2.60316e-06
8.87755e-06
3.55147e-06
-9.77526e-07
3.73313e-06
4.29352e-06
5.38947e-06
3.68044e-07
-5.61037e-06
1.23487e-07
3.24976e-06
5.61632e-06
-9.15318e-07
-4.60472e-06
-4.37662e-07
1.46854e-06
6.46081e-06
6.51009e-07
-4.81481e-06
2.26722e-06
1.77131e-06
2.1307e-06
-1.70946e-06
-2.8018e-06
5.90946e-06
2.02968e-06
4.79667e-06
-3.54131e-06
-4.31723e-06
5.25544e-06
6.1456e-06
8.41332e-06
9.37225e-07
-4.66897e-06
2.16993e-06
2.76531e-06
5.28337e-06
-1.81897e-06
-5.30828e-06
-2.93484e-06
1.61465e-06
7.54072e-06
3.42471e-06
-9.94222e-07
2.93066e-06
2.76799e-06
4.15653e-06
1.28041e-06
-4.78905e-06
-2.1236e-07
1.67613e-06
4.31603e-06
-2.33487e-07
-3.72011e-06
-1.74911e-07
6.15446e-07
5.00351e-06
1.14448e-06
-4.6349e-06
1.17966e-06
1.01468e-06
2.25748e-06
-7.84824e-07
-2.85459e-06
4.44899e-06
1.04869e-06
3.73598e-06
-2.20104e-06
-4.65666e-06
3.75312e-06
4.25596e-06
7.01353e-06
1.74669e-06
-4.26065e-06
1.41122e-06
1.80153e-06
3.62846e-06
-9.39483e-07
-4.43389e-06
-2.55359e-06
1.00402e-06
6.22603e-06
3.18211e-06
-9.59263e-07
2.30847e-06
1.8133e-06
3.12093e-06
1.88643e-06
-4.04736e-06
-5.04346e-07
8.66433e-07
3.13601e-06
3.01918e-07
-3.14609e-06
-5.51501e-08
1.47836e-07
3.85959e-06
1.46914e-06
-4.41876e-06
6.76144e-07
5.83787e-07
1.13647e-06
-1.16851e-07
-2.77299e-06
3.27476e-06
3.41547e-07
2.3754e-06
-1.16325e-06
-4.72057e-06
2.77012e-06
2.90293e-06
5.37703e-06
2.25164e-06
-3.79023e-06
7.54194e-07
1.30748e-06
2.20081e-06
-2.83956e-07
-3.62869e-06
-2.19913e-06
7.00212e-07
4.95858e-06
2.87936e-06
-9.02683e-07
1.82851e-06
1.30371e-06
2.15541e-06
2.22683e-06
-3.33968e-06
-6.53185e-07
5.92108e-07
2.07462e-06
6.96354e-07
-2.61695e-06
-2.04082e-08
-2.6573e-08
2.8312e-06
1.71473e-06
-3.88952e-06
1.65684e-07
4.24566e-07
5.52515e-07
3.80382e-07
-2.6357e-06
2.26078e-06
-2.48682e-08
1.30625e-06
-3.35585e-07
-4.54478e-06
1.96449e-06
2.10635e-06
3.34443e-06
2.4507e-06
-3.21189e-06
1.18916e-07
1.14311e-06
9.90012e-07
1.2669e-07
-2.80077e-06
-1.92143e-06
6.26997e-07
3.84314e-06
2.54993e-06
-8.79707e-07
1.4024e-06
1.06946e-06
1.27959e-06
2.32057e-06
-2.57236e-06
-8.59615e-07
5.85072e-07
1.20495e-06
9.20998e-07
-2.0642e-06
-4.80891e-08
1.3725e-08
1.91531e-06
1.86511e-06
-3.24687e-06
-3.6277e-07
4.43227e-07
5.22088e-08
7.21392e-07
-2.19627e-06
1.3227e-06
-1.57721e-07
4.707e-07
3.18201e-07
-4.12131e-06
1.21682e-06
1.73183e-06
1.94657e-06
2.34684e-06
-2.44639e-06
-4.68672e-07
1.14291e-06
8.6549e-08
2.8951e-07
-1.95438e-06
-1.7156e-06
6.39069e-07
2.93522e-06
2.23859e-06
-6.47703e-07
1.0162e-06
1.00789e-06
5.73805e-07
2.19105e-06
-1.73458e-06
-9.89902e-07
7.04904e-07
5.7617e-07
9.25642e-07
-1.46728e-06
-1.19083e-07
1.62476e-07
1.16794e-06
1.87384e-06
-2.48582e-06
-6.9187e-07
5.40142e-07
-3.41675e-07
7.66403e-07
-1.59374e-06
5.1977e-07
-9.5054e-08
-1.20122e-07
6.75122e-07
-3.44764e-06
5.11649e-07
1.60915e-06
8.79064e-07
1.97742e-06
-1.58232e-06
-9.32278e-07
1.11667e-06
-5.19095e-07
2.26874e-07
-1.14823e-06
-1.50795e-06
6.25022e-07
2.23815e-06
1.92862e-06
-3.19519e-07
6.95679e-07
1.04518e-06
9.85852e-08
1.86686e-06
-8.89701e-07
-1.0665e-06
8.17374e-07
2.16665e-07
7.77977e-07
-8.66089e-07
-1.80533e-07
3.14467e-07
6.25036e-07
1.67992e-06
-1.67862e-06
-8.78249e-07
6.39608e-07
-5.4418e-07
6.37747e-07
-9.17689e-07
-7.20668e-08
-1.31312e-07
-4.78265e-07
7.5787e-07
-2.61886e-06
-1.08629e-07
1.56003e-06
1.66947e-07
1.45153e-06
-7.12448e-07
-1.1938e-06
9.68698e-07
-6.41809e-07
3.62637e-08
-4.7661e-07
-1.24699e-06
5.4406e-07
1.68575e-06
1.57963e-06
1.338e-08
4.61955e-07
1.05961e-06
-1.36133e-07
1.44666e-06
-1.79813e-07
-1.06025e-06
7.86981e-07
8.52923e-08
5.4897e-07
-3.35828e-07
-1.86074e-07
4.05497e-07
2.8324e-07
1.32968e-06
-9.21155e-07
-9.30316e-07
6.10976e-07
-5.52105e-07
3.96849e-07
-3.44936e-07
-4.20996e-07
-2.28195e-07
-6.42733e-07
6.58618e-07
-1.75672e-06
-5.52123e-07
1.43243e-06
-1.89051e-07
9.27457e-07
-8.89268e-08
-1.21894e-06
6.93683e-07
-4.86946e-07
-1.7837e-07
-2.3572e-08
-9.08281e-07
3.99137e-07
1.24717e-06
1.23153e-06
2.57706e-07
3.19739e-07
1.01589e-06
-1.65518e-07
1.01757e-06
3.26906e-07
-9.36011e-07
5.78512e-07
1.07382e-07
3.1794e-07
4.60305e-08
-1.27679e-07
4.26772e-07
1.08213e-07
8.83747e-07
-3.78349e-07
-8.59536e-07
4.93504e-07
-4.18357e-07
1.09524e-07
2.44408e-08
-5.40171e-07
-2.83926e-07
-6.55921e-07
4.5886e-07
-1.0191e-06
-7.96095e-07
1.17589e-06
-2.54768e-07
4.58912e-07
2.72473e-07
-1.03807e-06
3.59889e-07
-2.65583e-07
-3.32458e-07
1.81143e-07
-5.45036e-07
2.35726e-07
9.59966e-07
9.31588e-07
4.11687e-07
2.56037e-07
8.89989e-07
-7.22146e-08
6.34153e-07
6.3228e-07
-6.84855e-07
3.98408e-07
2.15598e-07
1.43756e-07
2.06724e-07
-2.84934e-08
3.36801e-07
3.47827e-08
4.97411e-07
-2.31931e-08
-6.93471e-07
3.34041e-07
-2.48094e-07
-1.3339e-07
1.84076e-07
-4.99615e-07
-3.49621e-07
-5.85778e-07
2.2696e-07
-4.96499e-07
-8.32648e-07
8.52786e-07
-1.60417e-07
1.08399e-07
3.63236e-07
-7.53825e-07
3.7798e-08
-9.55009e-08
-3.81458e-07
2.00626e-07
-2.34443e-07
1.15482e-07
7.27631e-07
6.91297e-07
4.49204e-07
2.38176e-07
7.30527e-07
6.81144e-08
3.45368e-07
6.91841e-07
-3.81841e-07
2.37443e-07
2.94832e-07
5.96212e-08
2.57246e-07
4.89724e-08
2.52436e-07
3.30123e-08
2.16226e-07
1.34365e-07
-5.05535e-07
1.21741e-07
-1.18973e-07
-2.69246e-07
1.89556e-07
-3.87291e-07
-3.65397e-07
-4.90411e-07
2.26297e-08
-1.83935e-07
-7.17274e-07
4.79542e-07
-5.05177e-08
-8.00743e-08
2.97751e-07
-4.76459e-07
-1.51038e-07
-4.66989e-09
-3.3045e-07
1.39908e-07
-2.71453e-08
5.85803e-08
5.33109e-07