/*--------------------------------*- C++ -*----------------------------------*\
  =========                 |
  \\      /  F ield         | OpenFOAM: The Open Source CFD Toolbox
   \\    /   O peration     | Website:  https://openfoam.org
    \\  /    A nd           | Version:  10
     \\/     M anipulation  |
\*---------------------------------------------------------------------------*/
FoamFile
{
    format      ascii;
    class       volScalarField;
    location    "14";
    object      pMean;
}
// * * * * * * * * * * * * * * * * * * * * * * * * * * * * * * * * * * * * * //

dimensions      [0 2 -2 0 0 0 0];

internalField   nonuniform List<scalar> 
25600
(
-6.86877e-05
-1.80042e-05
5.30638e-05
8.89966e-05
4.52405e-05
-5.48794e-05
-3.59635e-05
4.0476e-05
8.05739e-05
2.46683e-05
-5.76964e-05
3.37218e-06
7.33626e-05
0.000108989
1.72504e-05
-5.64573e-05
-1.35738e-05
3.75533e-05
9.07057e-05
2.57153e-05
-7.37273e-05
-2.9556e-05
5.1857e-05
0.000124368
3.02092e-05
-8.71468e-05
-3.4035e-05
4.59869e-05
8.6017e-05
3.1663e-05
-9.44641e-05
-3.8669e-05
4.07575e-05
9.45045e-05
3.2081e-05
-6.47049e-05
1.60373e-06
4.16703e-05
8.82093e-05
1.36919e-05
-6.74881e-05
-1.83266e-05
5.29124e-05
8.9377e-05
4.60122e-05
-5.36089e-05
-3.55454e-05
4.08748e-05
8.07601e-05
2.5746e-05
-5.70428e-05
3.34205e-06
7.29777e-05
0.000109739
1.82725e-05
-5.53092e-05
-1.38469e-05
3.77026e-05
9.03859e-05
2.68599e-05
-7.24912e-05
-2.89772e-05
5.14867e-05
0.000124393
3.17602e-05
-8.56924e-05
-3.41839e-05
4.58679e-05
8.71826e-05
3.32909e-05
-9.30284e-05
-3.88651e-05
4.06732e-05
9.49645e-05
3.35081e-05
-6.38482e-05
1.46643e-06
4.18255e-05
8.88431e-05
1.48149e-05
-6.70783e-05
-1.89687e-05
5.36282e-05
9.17172e-05
4.79628e-05
-5.27633e-05
-3.5827e-05
4.19535e-05
8.29306e-05
2.79829e-05
-5.75638e-05
3.16223e-06
7.3642e-05
0.000111695
2.0418e-05
-5.47317e-05
-1.45231e-05
3.85607e-05
9.19896e-05
2.92475e-05
-7.19314e-05
-2.9125e-05
5.23361e-05
0.000126243
3.44827e-05
-8.50259e-05
-3.44344e-05
4.69647e-05
8.96339e-05
3.55679e-05
-9.28789e-05
-3.90847e-05
4.15945e-05
9.66008e-05
3.61235e-05
-6.40241e-05
1.26065e-06
4.28126e-05
9.07382e-05
1.70582e-05
-6.58544e-05
-1.83412e-05
5.57883e-05
9.38166e-05
4.97941e-05
-5.14429e-05
-3.52043e-05
4.42359e-05
8.50966e-05
3.02036e-05
-5.75265e-05
3.25298e-06
7.56522e-05
0.000115704
2.33061e-05
-5.42181e-05
-1.35329e-05
4.03535e-05
9.37711e-05
3.12033e-05
-7.13944e-05
-2.74333e-05
5.47421e-05
0.000129636
3.6072e-05
-8.44725e-05
-3.37655e-05
4.85136e-05
9.3016e-05
3.80374e-05
-9.25677e-05
-3.99392e-05
4.34025e-05
9.9628e-05
3.85549e-05
-6.38991e-05
1.73282e-06
4.55114e-05
9.4218e-05
1.97304e-05
-6.31864e-05
-1.74414e-05
5.80284e-05
9.57711e-05
5.15467e-05
-5.03584e-05
-3.10909e-05
4.75733e-05
8.70118e-05
3.27674e-05
-5.64313e-05
4.26497e-06
7.838e-05
0.000116821
2.65724e-05
-5.12391e-05
-1.2531e-05
4.31081e-05
9.64865e-05
3.46578e-05
-6.86174e-05
-2.61847e-05
5.82951e-05
0.000129861
3.88105e-05
-8.0609e-05
-3.14393e-05
5.03599e-05
9.20903e-05
3.90755e-05
-8.84763e-05
-3.60939e-05
4.60992e-05
0.000100759
4.05128e-05
-5.97544e-05
2.27997e-06
4.79089e-05
9.39876e-05
2.19473e-05
-5.7754e-05
-1.43278e-05
5.74023e-05
9.19495e-05
5.17803e-05
-4.6874e-05
-3.02084e-05
4.53968e-05
8.39446e-05
3.51074e-05
-5.25547e-05
6.25891e-06
7.76893e-05
0.000114571
2.95702e-05
-4.68755e-05
-8.96622e-06
4.2163e-05
9.35355e-05
3.34356e-05
-6.40071e-05
-2.31171e-05
5.83822e-05
0.000127939
3.69252e-05
-7.76408e-05
-2.87978e-05
4.73053e-05
8.77066e-05
3.84678e-05
-8.68948e-05
-3.70453e-05
4.50425e-05
9.82068e-05
4.08732e-05
-5.79923e-05
7.50643e-06
4.64746e-05
9.14727e-05
2.26714e-05
-5.49561e-05
-1.59354e-05
4.7253e-05
8.51841e-05
4.88571e-05
-4.32094e-05
-2.59609e-05
3.81062e-05
7.1037e-05
3.636e-05
-4.93009e-05
4.71345e-06
6.94122e-05
0.000103044
3.18179e-05
-4.29797e-05
-7.0413e-06
3.44237e-05
8.46596e-05
3.28586e-05
-6.28436e-05
-2.13158e-05
5.20124e-05
0.000111604
3.70299e-05
-7.25377e-05
-2.86149e-05
3.34946e-05
7.33027e-05
3.73631e-05
-8.28916e-05
-3.30429e-05
3.56762e-05
8.89884e-05
4.29645e-05
-5.71089e-05
3.17728e-06
3.83915e-05
8.17429e-05
2.19242e-05
-4.73752e-05
-1.79988e-05
3.00514e-05
6.19777e-05
4.30785e-05
-3.78848e-05
-2.63008e-05
2.11755e-05
5.08655e-05
3.39064e-05
-4.20723e-05
3.41515e-06
5.32797e-05
8.03458e-05
2.99126e-05
-3.56797e-05
-7.767e-06
1.86838e-05
6.33453e-05
2.80027e-05
-5.90614e-05
-1.93128e-05
3.54914e-05
8.57025e-05
2.96665e-05
-6.63083e-05
-3.28834e-05
1.31636e-05
5.01705e-05
3.28991e-05
-7.51896e-05
-3.59975e-05
2.05997e-05
7.10304e-05
3.70726e-05
-5.14534e-05
6.80974e-07
2.07182e-05
5.97848e-05
2.04586e-05
-3.7403e-05
-2.17375e-05
8.25425e-06
3.74249e-05
3.1025e-05
-3.1364e-05
-2.75771e-05
1.79954e-06
2.7473e-05
2.69203e-05
-3.51566e-05
-4.00904e-06
3.05751e-05
5.73504e-05
2.47801e-05
-3.13781e-05
-9.78635e-06
6.92784e-07
3.86507e-05
1.82585e-05
-4.8919e-05
-1.90848e-05
1.34936e-05
5.45634e-05
1.92767e-05
-5.87352e-05
-3.8797e-05
-1.08547e-05
2.35728e-05
2.26461e-05
-6.54117e-05
-3.50235e-05
1.19336e-06
4.58019e-05
2.88218e-05
-4.48224e-05
-4.94697e-06
-1.11759e-06
3.52218e-05
1.44836e-05
-2.83825e-05
-1.91733e-05
-8.53212e-06
8.54294e-06
1.97622e-05
-2.43985e-05
-2.47869e-05
-1.20212e-05
1.49645e-06
1.7046e-05
-2.69275e-05
-5.67764e-06
1.10868e-05
2.75812e-05
1.51216e-05
-2.35202e-05
-8.94648e-06
-1.58411e-05
8.04605e-06
8.55663e-06
-3.90198e-05
-1.63169e-05
-4.27846e-06
2.34633e-05
6.20057e-06
-4.96567e-05
-4.00679e-05
-2.85446e-05
-5.39419e-06
1.22975e-05
-5.41108e-05
-3.12121e-05
-1.35887e-05
1.89041e-05
1.84727e-05
-3.56515e-05
-7.40491e-06
-1.91855e-05
8.77381e-06
6.26605e-06
-2.01179e-05
-1.64101e-05
-1.65932e-05
-8.00621e-06
8.0284e-06
-1.81146e-05
-1.89603e-05
-1.78934e-05
-1.48157e-05
7.28367e-06
-2.01597e-05
-6.47582e-06
-8.54522e-09
8.65368e-06
5.23036e-06
-1.63728e-05
-5.54384e-06
-2.24466e-05
-9.36611e-06
-1.12564e-06
-2.83616e-05
-1.28256e-05
-1.30653e-05
1.76979e-06
-3.91578e-06
-3.96045e-05
-3.50828e-05
-3.43719e-05
-2.41705e-05
1.95933e-06
-4.22637e-05
-2.37816e-05
-1.92961e-05
-5.94836e-07
7.71334e-06
-2.73634e-05
-6.22207e-06
-2.64841e-05
-9.41759e-06
-2.52774e-06
-1.41011e-05
-1.10228e-05
-1.5826e-05
-1.31047e-05
2.21344e-06
-1.15685e-05
-1.28716e-05
-1.6166e-05
-1.90138e-05
1.77413e-06
-1.34646e-05
-2.99043e-06
-2.295e-06
-5.93919e-07
9.22143e-08
-9.97326e-06
-1.53866e-06
-2.07326e-05
-1.51872e-05
-4.94251e-06
-1.90022e-05
-8.54901e-06
-1.37962e-05
-5.90645e-06
-7.92707e-06
-2.89093e-05
-2.71597e-05
-3.08386e-05
-2.74036e-05
-2.26766e-06
-3.05785e-05
-1.5455e-05
-1.73866e-05
-6.92151e-06
2.65536e-06
-2.01322e-05
-3.28047e-06
-2.41114e-05
-1.39996e-05
-6.2318e-06
-8.21374e-06
-6.25176e-06
-1.22374e-05
-1.08233e-05
2.33236e-06
-4.96605e-06
-7.01243e-06
-1.18571e-05
-1.58457e-05
1.49676e-06
-7.30533e-06
-3.38116e-07
-1.318e-06
2.6012e-07
1.07693e-06
-4.07023e-06
1.72406e-06
-1.58974e-05
-1.14961e-05
-3.12406e-06
-1.07335e-05
-4.70824e-06
-1.12494e-05
-5.26329e-06
-5.82819e-06
-1.85455e-05
-1.8796e-05
-2.3024e-05
-2.20668e-05
-1.39516e-07
-1.92198e-05
-8.09202e-06
-1.26505e-05
-5.36332e-06
3.08503e-06
-1.3209e-05
-1.03452e-07
-1.81853e-05
-1.10991e-05
-4.50611e-06
-3.27376e-06
-2.22838e-06
-8.59908e-06
-7.7822e-06
3.71589e-06
2.49507e-07
-2.59198e-06
-7.95911e-06
-1.16812e-05
2.60342e-06
-2.34664e-06
2.17083e-06
3.91082e-07
1.9601e-06
3.51411e-06
6.7317e-07
4.13068e-06
-1.12441e-05
-7.82114e-06
-4.9006e-07
-4.60019e-06
-1.63779e-06
-8.15481e-06
-3.1259e-06
-2.73461e-06
-1.02755e-05
-1.19873e-05
-1.58389e-05
-1.55959e-05
3.23939e-06
-1.02496e-05
-2.87892e-06
-8.26444e-06
-2.6681e-06
4.72977e-06
-7.37168e-06
2.35344e-06
-1.26577e-05
-7.60139e-06
-1.72872e-06
-4.12809e-07
-5.14795e-08
-6.1013e-06
-5.62684e-06
3.55373e-06
3.04121e-06
3.58799e-08
-5.24973e-06
-8.48173e-06
2.41711e-06
4.02979e-07
3.21131e-06
1.32016e-06
3.01119e-06
4.17151e-06
3.29751e-06
5.35174e-06
-7.58555e-06
-5.07227e-06
7.70802e-08
-1.1583e-06
1.00389e-07
-5.82729e-06
-1.74707e-06
-1.89846e-06
-5.2588e-06
-7.59084e-06
-1.06297e-05
-1.09286e-05
4.08575e-06
-4.7467e-06
3.17498e-07
-5.3295e-06
-1.12052e-06
4.49533e-06
-3.7156e-06
3.43426e-06
-8.80171e-06
-5.45857e-06
-7.48052e-07
5.24459e-07
7.8048e-07
-4.66468e-06
-4.52889e-06
2.52484e-06
3.80798e-06
1.25187e-06
-3.70607e-06
-6.54104e-06
1.51966e-06
1.36374e-06
3.37741e-06
1.51858e-06
2.90095e-06
3.5777e-06
4.03357e-06
5.42374e-06
-5.07443e-06
-3.76168e-06
-3.77604e-07
2.78196e-07
7.82129e-07
-4.45019e-06
-1.42586e-06
-2.24943e-06
-2.76279e-06
-4.98004e-06
-7.34206e-06
-8.25635e-06
3.38426e-06
-1.98805e-06
1.71495e-06
-3.81854e-06
-8.61541e-07
3.23413e-06
-2.08199e-06
3.30555e-06
-6.49029e-06
-4.50766e-06
-8.6847e-07
6.30333e-07
8.79008e-07
-3.80352e-06
-3.82455e-06
1.47516e-06
3.60215e-06
1.6841e-06
-2.8246e-06
-5.19832e-06
6.5434e-07
1.48713e-06
3.02652e-06
1.27665e-06
2.34596e-06
2.78239e-06
3.92303e-06
4.9144e-06
-3.46885e-06
-2.88055e-06
-8.11013e-07
7.52244e-07
9.30809e-07
-3.70041e-06
-1.46005e-06
-2.66015e-06
-1.58817e-06
-3.46533e-06
-5.28669e-06
-6.47702e-06
2.36698e-06
-8.03922e-07
2.18764e-06
-3.0465e-06
-1.06591e-06
1.8906e-06
-1.45841e-06
2.67228e-06
-5.07602e-06
-4.07444e-06
-1.18975e-06
3.63986e-07
6.87427e-07
-3.1271e-06
-3.32932e-06
6.96419e-07
2.98676e-06
1.73791e-06
-2.19233e-06
-4.20582e-06
1.0571e-07
1.25136e-06
2.53829e-06
9.9955e-07
1.71384e-06
2.08652e-06
3.44604e-06
4.16177e-06
-2.2891e-06
-2.28969e-06
-1.03524e-06
7.25271e-07
8.67675e-07
-3.10357e-06
-1.57537e-06
-2.80558e-06
-1.09997e-06
-2.54158e-06
-3.82623e-06
-5.19145e-06
1.43968e-06
-3.86652e-07
2.17206e-06
-2.52054e-06
-1.38116e-06
8.16372e-07
-1.27392e-06
1.93258e-06
-4.07132e-06
-3.80574e-06
-1.35751e-06
4.79734e-08
3.76569e-07
-2.5014e-06
-2.8871e-06
2.33099e-07
2.28519e-06
1.56675e-06
-1.64666e-06
-3.38602e-06
-1.71747e-07
9.26477e-07
2.04171e-06
7.84225e-07
1.1617e-06
1.57966e-06
2.89421e-06
3.40404e-06
-1.37307e-06
-1.77562e-06
-1.02344e-06
5.35589e-07
7.21175e-07
-2.5438e-06
-1.63925e-06
-2.67973e-06
-9.29665e-07
-1.96911e-06
-2.74999e-06
-4.20405e-06
7.96015e-07
-3.29533e-07
1.88815e-06
-2.08994e-06
-1.62647e-06
6.79809e-08
-1.26992e-06
1.23461e-06
-3.25498e-06
-3.53559e-06
-1.34592e-06
-2.05457e-07
-6.73482e-10
-1.89445e-06
-2.4461e-06
-5.64018e-08
1.64808e-06
1.25888e-06
-1.15335e-06
-2.67304e-06
-2.96952e-07
6.36587e-07
1.56894e-06
6.50213e-07
7.65722e-07
1.21658e-06
2.39143e-06
2.67816e-06
-6.52613e-07
-1.33047e-06
-9.08877e-07
3.34536e-07
5.12339e-07
-1.99159e-06
-1.58012e-06
-2.42047e-06
-8.78181e-07
-1.62361e-06
-1.93906e-06
-3.3976e-06
3.39747e-07
-4.1674e-07
1.43431e-06
-1.68958e-06
-1.72393e-06
-4.17566e-07
-1.2973e-06
6.16429e-07
-2.54528e-06
-3.21335e-06
-1.222e-06
-3.453e-07
-3.67466e-07
-1.33805e-06
-1.98185e-06
-2.58638e-07
1.13758e-06
9.0858e-07
-7.28482e-07
-2.03549e-06
-3.41977e-07
4.27457e-07
1.16746e-06
5.78929e-07
5.16211e-07
9.48876e-07
1.97068e-06
2.03358e-06
-1.11474e-07
-9.11913e-07
-7.55866e-07
1.87336e-07
3.02796e-07
-1.47151e-06
-1.4326e-06
-2.12694e-06
-8.42379e-07
-1.41369e-06
-1.34353e-06
-2.71949e-06
2.38814e-09
-5.10159e-07
9.27399e-07
-1.34709e-06
-1.69926e-06
-7.17284e-07
-1.29412e-06
1.11008e-07
-1.94003e-06
-2.84632e-06
-1.07885e-06
-3.8345e-07
-6.71269e-07
-9.02843e-07
-1.52701e-06
-3.96375e-07
7.66884e-07
5.80113e-07
-4.23988e-07
-1.4804e-06
-3.45735e-07
2.82056e-07
8.37532e-07
5.25811e-07
3.77884e-07
7.31574e-07
1.62387e-06
1.50274e-06
2.34231e-07
-5.59112e-07
-6.01775e-07
1.05475e-07
1.32975e-07
-1.05408e-06
-1.22943e-06
-1.83169e-06
-7.9783e-07
-1.27053e-06
-9.40013e-07
-2.15315e-06
-2.5944e-07
-5.80426e-07
4.46433e-07
-1.09127e-06
-1.58001e-06
-8.85602e-07
-1.24963e-06
-2.68274e-07
-1.45763e-06
-2.44912e-06
-9.38594e-07
-3.60137e-07
-8.81339e-07
-6.08364e-07
-1.0981e-06
-4.81202e-07
4.97604e-07
3.17645e-07
-2.33542e-07
-1.01167e-06
-3.20369e-07
1.8764e-07
5.85597e-07
4.71734e-07
3.17151e-07
5.50266e-07
1.32328e-06
1.09789e-06
4.14462e-07
-2.5398e-07
-4.57695e-07
5.78145e-08
9.72423e-09
-7.53312e-07
-9.97577e-07
-1.55527e-06
-7.50875e-07
-1.15518e-06
-7.07839e-07
-1.68098e-06
-4.52798e-07
-6.20481e-07
4.81218e-08
-9.15003e-07
-1.40225e-06
-9.67272e-07
-1.18041e-06
-5.24576e-07
-1.10672e-06
-2.05489e-06
-8.12991e-07
-3.104e-07
-9.84169e-07
-4.28928e-07
-7.35207e-07
-5.12035e-07
3.00794e-07
1.34515e-07
-1.3461e-07
-6.43857e-07
-2.74139e-07
1.21016e-07
4.01279e-07
4.05048e-07
2.96972e-07
4.01979e-07
1.05592e-06
8.05497e-07
4.63809e-07
-2.71164e-08
-3.32302e-07
1.95972e-08
-6.50418e-08
-5.48786e-07
-7.78715e-07
-1.30287e-06
-7.03877e-07
-1.03841e-06
-5.96439e-07
-1.30133e-06
-5.87073e-07
-6.44244e-07
-2.4414e-07
-8.10618e-07
-1.21308e-06
-9.888e-07
-1.0959e-06
-6.64759e-07
-8.73806e-07
-1.69664e-06
-6.88835e-07
-2.56961e-07
-9.95395e-07
-3.24867e-07
-4.59836e-07
-4.92027e-07
1.54081e-07
2.47537e-08
-9.04871e-08
-3.81176e-07
-2.13527e-07
7.29219e-08
2.74521e-07
3.33673e-07
2.90085e-07
2.90331e-07
8.16738e-07
6.03114e-07
4.30997e-07
1.14312e-07
-2.2039e-07
-8.78736e-09
-9.91857e-08
-4.19127e-07
-6.04639e-07
-1.07798e-06
-6.58164e-07
-9.19522e-07
-5.6115e-07
-1.01755e-06
-6.63056e-07
-6.58659e-07
-4.34096e-07
-7.55415e-07
-1.04152e-06
-9.56125e-07
-1.00698e-06
-7.10962e-07
-7.27964e-07
-1.40738e-06
-5.64977e-07
-2.14013e-07
-9.53719e-07
-2.62182e-07
-2.75441e-07
-4.37777e-07
4.90092e-08
-3.20964e-08
-7.57358e-08
-2.1421e-07
-1.50081e-07
3.93373e-08
1.91996e-07
2.65833e-07
2.76522e-07
2.18789e-07
6.09756e-07
4.60023e-07
3.5816e-07
1.78286e-07
-1.29616e-07
-3.20635e-08
-1.11046e-07
-3.40246e-07
-4.77206e-07
-8.76396e-07
-6.15368e-07
-8.04287e-07
-5.60606e-07
-8.19953e-07
-6.87037e-07
-6.66512e-07
-5.40495e-07
-7.21715e-07
-9.02717e-07
-8.88944e-07
-9.2163e-07
-6.92916e-07
-6.40038e-07
-1.1977e-06
-4.38558e-07
-1.69638e-07
-8.94935e-07
-2.1565e-07
-1.64791e-07
-3.68954e-07
-1.75525e-08
-6.09225e-08
-6.99613e-08
-1.15517e-07
-9.22717e-08
1.80743e-08
1.38859e-07
2.08775e-07
2.53637e-07
1.77239e-07
4.37704e-07
3.54107e-07
2.77544e-07
1.84285e-07
-6.31852e-08
-5.08848e-08
-1.15448e-07
-2.88718e-07
-3.88323e-07
-7.05314e-07
-5.74517e-07
-7.05703e-07
-5.66516e-07
-6.92654e-07
-6.73594e-07
-6.64496e-07
-5.9306e-07
-6.93858e-07
-7.97782e-07
-8.03799e-07
-8.40948e-07
-6.4041e-07
-5.81854e-07
-1.06045e-06
-3.08903e-07
-1.28796e-07
-8.43331e-07
-1.71554e-07
-1.07499e-07
-3.06341e-07
-5.14765e-08
-7.52888e-08
-6.172e-08
-6.23223e-08
-4.64775e-08
1.25257e-08
1.07267e-07
1.66476e-07
2.23724e-07
1.56975e-07
3.09387e-07
2.73127e-07
2.08395e-07
1.5793e-07
-2.07429e-08
-6.27542e-08
-1.18156e-07
-2.54329e-07
-3.33167e-07
-5.71674e-07
-5.31983e-07
-6.22009e-07
-5.62801e-07
-6.13189e-07
-6.40451e-07
-6.49339e-07
-6.08424e-07
-6.63237e-07
-7.19015e-07
-7.18803e-07
-7.67251e-07
-5.82196e-07
-5.37312e-07
-9.8882e-07
-2.10905e-07
-9.15071e-08
-8.13674e-07
-1.40875e-07
-8.91504e-08
-2.64403e-07
-6.854e-08
-8.84424e-08
-5.74569e-08
-4.04002e-08
-1.70567e-08
1.78785e-08
8.75621e-08
1.35343e-07
1.90821e-07
1.46978e-07
2.22589e-07
2.09378e-07
1.53909e-07
1.18882e-07
-1.37112e-09
-6.73862e-08
-1.20929e-07
-2.3093e-07
-3.00964e-07
-4.72673e-07
-4.89115e-07
-5.54509e-07
-5.45553e-07
-5.64949e-07
-6.01547e-07
-6.21379e-07
-6.02915e-07
-6.27331e-07
-6.57584e-07
-6.38844e-07
-6.99462e-07
-5.17085e-07
-4.90627e-07
-9.35899e-07
-1.12156e-07
1.64645e-08
-7.83337e-07
-9.57035e-08
-7.92719e-08
-2.35799e-07
-6.88516e-08
-9.20752e-08
-4.91891e-08
-2.65476e-08
4.85264e-09
3.25918e-08
8.36841e-08
1.21209e-07
1.67625e-07
1.46203e-07
1.76165e-07
1.67533e-07
1.21626e-07
8.64343e-08
5.86647e-09
-6.72434e-08
-1.21382e-07
-2.14371e-07
-2.78779e-07
-4.03837e-07
-4.48467e-07
-5.00641e-07
-5.20742e-07
-5.30232e-07
-5.62363e-07
-5.84782e-07
-5.77577e-07
-5.92121e-07
-6.07174e-07
-5.81322e-07
-6.42867e-07
-4.93144e-07
-4.58656e-07
-1.01275e-06
-1.08519e-07
-3.5627e-08
-8.06781e-07
-1.13071e-07
-1.11449e-07
-2.45806e-07
-8.74788e-08
-1.12218e-07
-5.76546e-08
-2.77836e-08
1.16824e-08
4.25288e-08
8.49322e-08
1.17595e-07
1.5502e-07
1.49919e-07
1.54267e-07
1.42977e-07
1.02635e-07
6.53653e-08
4.71964e-09
-6.52629e-08
-1.23014e-07
-2.02211e-07
-2.64904e-07
-3.56407e-07
-4.12957e-07
-4.59161e-07
-4.90864e-07
-5.01164e-07
-5.26657e-07
-5.43293e-07
-5.4725e-07
-5.49863e-07
-5.64062e-07
-5.21386e-07
-5.95815e-07
-4.28897e-07
-4.23581e-07
-9.22062e-07
-1.07822e-08
7.67758e-07
-7.70869e-07
-1.8092e-09
-1.17249e-07
-2.46727e-07
-9.79592e-08
-1.21331e-07
-5.89095e-08
-2.27294e-08
2.31537e-08
6.06099e-08
1.02436e-07
1.34517e-07
1.67771e-07
1.70715e-07
1.6239e-07
1.44242e-07
1.04436e-07
6.27733e-08
9.30998e-09
-5.94629e-08
-1.19068e-07
-1.95749e-07
-2.52851e-07
-3.28232e-07
-3.82648e-07
-4.26904e-07
-4.59498e-07
-4.67261e-07
-4.91116e-07
-5.02579e-07
-5.04787e-07
-5.16443e-07
-5.21437e-07
-4.98573e-07
-5.55728e-07
-5.17966e-07
-3.95298e-07
-1.76201e-06
-1.33045e-07
-0.000109049
-0.000106172
3.4572e-05
5.29919e-05
-2.35206e-05
-0.000109941
-8.4019e-05
3.75516e-05
7.35842e-05
-3.19926e-05
-0.000108659
-7.79151e-05
3.67443e-05
6.439e-05
-4.86929e-05
-0.000113796
-8.85439e-05
2.10495e-05
5.07504e-05
-4.86815e-05
-0.00012214
-0.000103153
3.27885e-05
8.82713e-05
-4.91889e-05
-0.000141194
-0.000108089
3.42373e-05
4.77975e-05
-4.24966e-05
-0.000133842
-7.51156e-05
3.52639e-05
7.67434e-05
-2.30891e-05
-0.000110253
-9.94577e-05
4.33445e-05
5.02671e-05
-4.94607e-05
-0.000109743
-0.000107027
3.25653e-05
5.24594e-05
-2.37488e-05
-0.000110455
-8.51164e-05
3.57343e-05
7.25113e-05
-3.2377e-05
-0.000109749
-7.91327e-05
3.46587e-05
6.39176e-05
-4.86972e-05
-0.000114415
-8.94443e-05
1.96686e-05
5.05885e-05
-4.85669e-05
-0.000122881
-0.000103761
3.08365e-05
8.75623e-05
-4.93077e-05
-0.000142036
-0.000109566
3.22758e-05
4.6496e-05
-4.28571e-05
-0.000134833
-7.65214e-05
3.32136e-05
7.55842e-05
-2.37773e-05
-0.000111341
-0.000100777
4.13333e-05
4.98043e-05
-4.96354e-05
-0.000111243
-0.000109195
3.03292e-05
5.18988e-05
-2.4742e-05
-0.000112189
-8.7737e-05
3.35046e-05
7.241e-05
-3.317e-05
-0.000111726
-8.11605e-05
3.2391e-05
6.3492e-05
-4.94546e-05
-0.00011594
-9.06991e-05
1.77025e-05
5.01412e-05
-4.88172e-05
-0.000124281
-0.000106253
2.82313e-05
8.73625e-05
-5.0186e-05
-0.000144049
-0.000111912
3.02732e-05
4.59927e-05
-4.39791e-05
-0.000136625
-7.95482e-05
3.05518e-05
7.52726e-05
-2.45711e-05
-0.000113174
-0.000102787
3.91644e-05
4.90382e-05
-5.0462e-05
-0.000114558
-0.000112257
2.75487e-05
5.04356e-05
-2.6453e-05
-0.000113768
-9.05105e-05
3.10412e-05
7.02398e-05
-3.5599e-05
-0.000112964
-8.34393e-05
2.9798e-05
6.21129e-05
-5.09418e-05
-0.000117848
-9.57294e-05
1.48831e-05
4.94528e-05
-5.06513e-05
-0.00012718
-0.000107643
2.62176e-05
8.64244e-05
-5.29198e-05
-0.000146233
-0.000116401
2.78797e-05
4.4905e-05
-4.59837e-05
-0.000139507
-8.19332e-05
2.81503e-05
7.27585e-05
-2.66678e-05
-0.000115487
-0.000106368
3.68231e-05
4.89694e-05
-5.283e-05
-0.000114718
-0.000116002
2.42136e-05
4.72918e-05
-3.06837e-05
-0.000116195
-9.30644e-05
2.74072e-05
6.9504e-05
-3.76999e-05
-0.000115357
-8.4653e-05
2.70311e-05
5.95718e-05
-5.46345e-05
-0.000118903
-9.57106e-05
1.20133e-05
4.49651e-05
-5.44318e-05
-0.000129888
-0.000110878
2.26459e-05
8.36516e-05
-5.77084e-05
-0.00014859
-0.000118139
2.3628e-05
4.2355e-05
-5.02477e-05
-0.000141027
-8.55671e-05
2.43113e-05
7.17708e-05
-2.94586e-05
-0.000116687
-0.000105857
3.30465e-05
4.54811e-05
-5.50262e-05
-0.00011886
-0.000117161
2.00336e-05
4.17914e-05
-3.24773e-05
-0.000116127
-9.60208e-05
2.16067e-05
6.03169e-05
-4.20091e-05
-0.000115807
-8.81649e-05
2.2239e-05
5.30251e-05
-5.72486e-05
-0.000120899
-0.000100415
6.71027e-06
3.86716e-05
-5.75323e-05
-0.000129883
-0.000111262
1.91356e-05
7.72683e-05
-6.37511e-05
-0.000150408
-0.000125208
1.96489e-05
3.77097e-05
-5.36955e-05
-0.000144321
-8.8118e-05
2.01639e-05
6.47166e-05
-3.30712e-05
-0.000117241
-0.000111832
2.84896e-05
4.08399e-05
-5.91233e-05
-0.000111789
-0.000124264
9.93826e-06
3.0542e-05
-3.84008e-05
-0.000113094
-9.76843e-05
1.02498e-05
5.02123e-05
-4.30396e-05
-0.000112154
-8.97803e-05
1.26722e-05
4.37375e-05
-5.74695e-05
-0.000116087
-0.000103333
-2.08486e-06
2.78542e-05
-6.14939e-05
-0.000126028
-0.000114714
7.86464e-06
6.26005e-05
-6.99296e-05
-0.000147528
-0.000128119
8.49169e-06
2.97457e-05
-5.61883e-05
-0.000138438
-9.35339e-05
1.03148e-05
5.6841e-05
-3.40809e-05
-0.000115261
-0.000111764
1.69962e-05
3.11475e-05
-5.92729e-05
-0.000106853
-0.000123419
-6.01285e-06
1.69017e-05
-3.7903e-05
-0.00010421
-0.000102529
-7.40883e-06
3.23618e-05
-4.52339e-05
-0.000100849
-8.80295e-05
-7.94472e-07
2.9607e-05
-5.68168e-05
-0.000106275
-0.00010275
-1.61571e-05
1.14904e-05
-5.8679e-05
-0.000116155
-0.000115035
-8.81009e-06
3.93583e-05
-7.40583e-05
-0.000135555
-0.000127614
-5.75693e-06
1.52878e-05
-5.68489e-05
-0.000130025
-9.00706e-05
-2.67896e-06
4.17622e-05
-3.6247e-05
-0.000103622
-0.000115376
-1.3286e-06
1.77677e-05
-5.81684e-05
-8.87987e-05
-0.000118144
-1.94379e-05
-1.19216e-06
-3.63508e-05
-8.92163e-05
-9.23577e-05
-1.9843e-05
1.20945e-05
-4.30623e-05
-8.48119e-05
-8.12377e-05
-1.20006e-05
1.63898e-05
-4.99881e-05
-9.27793e-05
-9.68921e-05
-2.75694e-05
-1.47611e-06
-5.56791e-05
-9.93111e-05
-0.000107781
-2.4564e-05
1.68426e-05
-7.20584e-05
-0.0001181
-0.000121846
-1.99346e-05
-1.19784e-06
-5.50316e-05
-0.000113346
-8.38033e-05
-1.36103e-05
2.39023e-05
-3.59777e-05
-9.17186e-05
-0.000106862
-1.68177e-05
2.68051e-06
-5.28511e-05
-7.17458e-05
-0.000101626
-2.4612e-05
-9.59303e-06
-3.24232e-05
-7.21065e-05
-8.13908e-05
-2.62411e-05
7.31969e-07
-3.74393e-05
-6.74445e-05
-6.92317e-05
-1.57963e-05
7.73191e-06
-4.23298e-05
-7.35348e-05
-8.2964e-05
-3.1903e-05
-1.16022e-05
-4.67706e-05
-7.93519e-05
-9.49505e-05
-3.21452e-05
3.16e-06
-6.60442e-05
-9.50894e-05
-0.000103784
-2.61606e-05
-1.46667e-05
-5.07235e-05
-9.40206e-05
-6.95412e-05
-1.78779e-05
1.21334e-05
-3.36875e-05
-7.53614e-05
-9.22414e-05
-2.44955e-05
-7.43733e-06
-4.58584e-05
-5.30968e-05
-7.99413e-05
-2.17082e-05
-1.23886e-05
-2.61625e-05
-5.45402e-05
-6.20765e-05
-2.23648e-05
-2.95998e-06
-3.14762e-05
-5.10959e-05
-5.34576e-05
-1.2257e-05
5.56292e-06
-3.33116e-05
-5.64528e-05
-6.51646e-05
-2.79255e-05
-1.17532e-05
-3.7829e-05
-5.9455e-05
-7.42173e-05
-2.91346e-05
-1.35882e-06
-5.56296e-05
-7.40997e-05
-8.29704e-05
-2.37862e-05
-1.8003e-05
-4.30674e-05
-7.43273e-05
-5.19023e-05
-1.51584e-05
5.82458e-06
-2.85114e-05
-5.88405e-05
-7.33067e-05
-2.31455e-05
-1.0376e-05
-3.76486e-05
-3.83317e-05
-5.79241e-05
-1.37955e-05
-7.04538e-06
-1.82197e-05
-3.90488e-05
-4.41706e-05
-1.43801e-05
-3.80363e-07
-2.30326e-05
-3.72449e-05
-3.8869e-05
-5.70438e-06
7.73528e-06
-2.38969e-05
-4.05134e-05
-4.69676e-05
-1.8835e-05
-7.09901e-06
-2.74982e-05
-4.22761e-05
-5.40729e-05
-2.00898e-05
1.88305e-06
-4.25164e-05
-5.422e-05
-6.12733e-05
-1.61432e-05
-1.38055e-05
-3.25998e-05
-5.57902e-05
-3.57554e-05
-8.35378e-06
7.88746e-06
-2.08373e-05
-4.42521e-05
-5.43797e-05
-1.67144e-05
-6.12239e-06
-2.83338e-05
-2.61408e-05
-3.94038e-05
-6.44204e-06
-1.76838e-06
-1.08025e-05
-2.71136e-05
-2.84504e-05
-6.87462e-06
4.34883e-06
-1.48234e-05
-2.58095e-05
-2.6189e-05
-5.37829e-07
1.02603e-05
-1.54735e-05
-2.85726e-05
-3.19205e-05
-1.06159e-05
-5.4966e-07
-1.82133e-05
-2.91856e-05
-3.62951e-05
-1.12849e-05
6.94158e-06
-2.97951e-05
-3.93206e-05
-4.39968e-05
-9.31746e-06
-7.22102e-06
-2.16582e-05
-4.06873e-05
-2.2145e-05
-2.17606e-06
1.05415e-05
-1.29188e-05
-3.12257e-05
-3.81382e-05
-1.02517e-05
-1.30161e-06
-1.96589e-05
-1.77277e-05
-2.60584e-05
-1.98583e-06
1.30402e-06
-5.26427e-06
-1.8539e-05
-1.80223e-05
-2.38506e-06
6.41641e-06
-8.39672e-06
-1.74233e-05
-1.69207e-05
2.36911e-06
1.09132e-05
-9.10087e-06
-1.93361e-05
-2.08326e-05
-5.21586e-06
2.74077e-06
-1.13e-05
-1.98837e-05
-2.33869e-05
-5.29739e-06
9.48806e-06
-1.96615e-05
-2.79244e-05
-3.1308e-05
-4.93478e-06
-3.21522e-06
-1.34354e-05
-2.95053e-05
-1.31293e-05
1.21596e-06
1.18982e-05
-6.80783e-06
-2.16302e-05
-2.569e-05
-5.95388e-06
1.51881e-06
-1.27933e-05
-1.19047e-05
-1.71156e-05
-3.17993e-08
1.96111e-06
-2.02336e-06
-1.27479e-05
-1.12933e-05
-5.17789e-07
6.21899e-06
-4.51174e-06
-1.17817e-05
-1.08346e-05
3.15326e-06
9.685e-06
-4.8674e-06
-1.28873e-05
-1.3403e-05
-2.53168e-06
3.64167e-06
-6.65293e-06
-1.34814e-05
-1.4718e-05
-2.21833e-06
9.45425e-06
-1.27681e-05
-2.00382e-05
-2.26629e-05
-2.93005e-06
-1.87296e-06
-8.16721e-06
-2.16349e-05
-7.5799e-06
2.34862e-06
1.06527e-05
-3.32511e-06
-1.5045e-05
-1.70902e-05
-3.83377e-06
2.01664e-06
-8.30228e-06
-8.19915e-06
-1.13277e-05
6.2725e-07
1.6813e-06
-3.85198e-07
-8.71056e-06
-7.26532e-06
-2.61912e-08
4.80062e-06
-2.4646e-06
-8.16296e-06
-7.18952e-06
2.90848e-06
7.69916e-06
-2.43818e-06
-8.39722e-06
-8.64401e-06
-1.25709e-06
3.23994e-06
-3.85966e-06
-9.09699e-06
-9.16652e-06
-8.59006e-07
8.03055e-06
-8.41404e-06
-1.4292e-05
-1.665e-05
-2.04374e-06
-1.7726e-06
-5.1473e-06
-1.60199e-05
-4.48803e-06
2.18447e-06
8.53891e-06
-1.49945e-06
-1.07732e-05
-1.14683e-05
-2.94854e-06
1.51196e-06
-5.44264e-06
-5.66489e-06
-7.45682e-06
8.27371e-07
1.12215e-06
3.74403e-07
-5.92593e-06
-4.62522e-06
1.3578e-08
3.28077e-06
-1.39629e-06
-5.74394e-06
-4.83332e-06
2.37768e-06
5.77265e-06
-1.09039e-06
-5.38287e-06
-5.53247e-06
-6.05778e-07
2.51166e-06
-2.12985e-06
-6.02248e-06
-5.4996e-06
-2.3984e-07
6.25379e-06
-5.67887e-06
-1.01893e-05
-1.23216e-05
-1.66051e-06
-2.04234e-06
-3.36472e-06
-1.18732e-05
-2.70774e-06
1.71466e-06
6.2758e-06
-7.23409e-07
-7.91482e-06
-7.69967e-06
-2.4771e-06
6.85063e-07
-3.67951e-06
-3.95317e-06
-4.9477e-06
8.06419e-07
6.51161e-07
6.80151e-07
-3.96726e-06
-2.93649e-06
-6.17219e-08
1.96258e-06
-8.00809e-07
-4.08295e-06
-3.31431e-06
1.81931e-06
4.15375e-06
-3.50613e-07
-3.30232e-06
-3.51806e-06
-2.53075e-07
1.78259e-06
-1.05096e-06
-3.86157e-06
-3.14754e-06
4.51141e-08
4.61642e-06
-3.93789e-06
-7.17871e-06
-9.12592e-06
-1.45734e-06
-2.29049e-06
-2.32228e-06
-8.8167e-06
-1.75789e-06
1.13931e-06
4.28495e-06
-3.56728e-07
-5.93442e-06
-5.22308e-06
-2.14835e-06
-8.60398e-08
-2.48938e-06
-2.7441e-06
-3.36327e-06
7.52324e-07
3.12749e-07
7.47617e-07
-2.60045e-06
-1.85795e-06
-9.4265e-08
1.01999e-06
-4.57721e-07
-2.91077e-06
-2.32823e-06
1.36487e-06
2.94409e-06
6.55008e-08
-1.90802e-06
-2.22579e-06
-4.35078e-08
1.21188e-06
-3.56192e-07
-2.34558e-06
-1.67543e-06
1.92816e-07
3.25951e-06
-2.77848e-06
-5.02084e-06
-6.78467e-06
-1.33818e-06
-2.38435e-06
-1.69746e-06
-6.55347e-06
-1.30185e-06
6.42095e-07
2.68404e-06
-2.79044e-07
-4.53292e-06
-3.64302e-06
-1.8301e-06
-6.85603e-07
-1.70631e-06
-1.87718e-06
-2.4191e-06
6.62259e-07
1.16859e-07
6.8426e-07
-1.61633e-06
-1.21961e-06
-9.15753e-08
4.0912e-07
-2.62077e-07
-2.05781e-06
-1.68842e-06
1.01058e-06
2.09461e-06
2.60469e-07
-9.72524e-07
-1.41353e-06
7.37717e-08
8.16022e-07
4.92192e-08
-1.30306e-06
-8.00771e-07
2.47234e-07
2.2237e-06
-1.99127e-06
-3.46451e-06
-5.08762e-06
-1.24194e-06
-2.31401e-06
-1.34833e-06
-4.85845e-06
-1.14771e-06
2.16211e-07
1.47864e-06
-3.18353e-07
-3.48678e-06
-2.6727e-06
-1.52318e-06
-1.07065e-06
-1.18623e-06
-1.22883e-06
-1.8628e-06
5.55526e-07
3.24959e-08
5.5789e-07
-9.09101e-07
-8.50495e-07
-8.056e-08
6.94422e-08
-1.5204e-07
-1.42302e-06
-1.25973e-06
7.36303e-07
1.50595e-06
3.45197e-07
-3.56852e-07
-9.0935e-07
1.29525e-07
5.66935e-07
2.58984e-07
-5.9091e-07
-3.12844e-07
2.37505e-07
1.47394e-06
-1.45015e-06
-2.36876e-06
-3.85165e-06
-1.16121e-06
-2.12182e-06
-1.14999e-06
-3.58905e-06
-1.13099e-06
-1.35856e-07
6.29292e-07
-4.25023e-07
-2.6966e-06
-2.08076e-06
-1.26607e-06
-1.26849e-06
-8.61575e-07
-7.55252e-07
-1.52696e-06
4.22774e-07
3.07567e-08
3.9903e-07
-4.16344e-07
-6.21198e-07
-8.68924e-08
-8.2932e-08
-9.99814e-08
-9.48159e-07
-9.38427e-07
5.15864e-07
1.10185e-06
3.56868e-07
3.29988e-08
-5.82055e-07
1.44718e-07
4.19674e-07
3.33937e-07
-1.4197e-07
-6.84398e-08
1.84076e-07
9.52165e-07
-1.07968e-06
-1.61207e-06
-2.93712e-06
-1.0908e-06
-1.85943e-06
-1.04904e-06
-2.65435e-06
-1.15619e-06
-4.24563e-07
5.85793e-08
-5.4218e-07
-2.08699e-06
-1.70815e-06
-1.07866e-06
-1.32149e-06
-6.59039e-07
-4.26843e-07
-1.30325e-06
2.88402e-07
6.94017e-08
2.43372e-07
-1.02606e-07
-4.60313e-07
-9.88747e-08
-1.20281e-07
-7.76548e-08
-6.06866e-07
-6.85079e-07
3.49535e-07
8.21519e-07
3.34855e-07
2.60793e-07
-3.63558e-07
1.30636e-07
3.33032e-07
3.2113e-07
1.09203e-07
4.58903e-08
1.143e-07
5.85857e-07
-8.33318e-07
-1.10879e-06
-2.24725e-06
-1.02614e-06
-1.58168e-06
-9.95852e-07
-1.98359e-06
-1.14992e-06
-6.41075e-07
-3.11092e-07
-6.406e-07
-1.62901e-06
-1.44615e-06
-9.48291e-07
-1.28562e-06
-5.33254e-07
-2.22663e-07
-1.1324e-06
1.62185e-07
1.09311e-07
1.10818e-07
7.13237e-08
-3.21907e-07
-1.11646e-07
-1.0825e-07
-6.79641e-08
-3.7148e-07
-4.71272e-07
2.31983e-07
6.20721e-07
2.94771e-07
3.68711e-07
-2.03817e-07
1.02606e-07
2.7629e-07
2.68529e-07
2.12709e-07
9.01885e-08
3.90767e-08
3.3004e-07
-6.6277e-07
-7.92613e-07
-1.71901e-06
-9.62075e-07
-1.32212e-06
-9.57762e-07
-1.52039e-06
-1.10257e-06
-7.88645e-07
-5.41784e-07
-7.07531e-07
-1.29795e-06
-1.22672e-06
-8.53995e-07
-1.21088e-06
-4.4694e-07
-1.09022e-07
-9.93989e-07
5.79243e-08
1.30926e-07
1.58285e-08
1.42722e-07
-2.02781e-07
-1.10822e-07
-7.93533e-08
-5.54714e-08
-2.14445e-07
-2.9613e-07
1.54406e-07
4.72638e-07
2.49095e-07
3.91638e-07
-7.81329e-08
7.02506e-08
2.303e-07
2.06187e-07
2.18974e-07
9.28776e-08
-2.95279e-08
1.45783e-07
-5.46977e-07
-6.04612e-07
-1.31685e-06
-8.934e-07
-1.10335e-06
-9.13414e-07
-1.20847e-06
-1.02381e-06
-8.63309e-07
-6.72475e-07
-7.39732e-07
-1.06926e-06
-1.02984e-06
-7.79414e-07
-1.12901e-06
-3.70625e-07
-5.48237e-08
-8.88836e-07
-1.65048e-08
1.27025e-07
-4.3996e-08
1.48504e-07
-1.09833e-07
-9.37314e-08
-5.08809e-08
-3.82822e-08
-1.1406e-07
-1.61419e-07
1.07988e-07
3.60085e-07
2.0857e-07
3.61692e-07
1.82657e-08
4.9412e-08
1.84369e-07
1.49532e-07
1.72095e-07
7.03676e-08
-8.33626e-08
1.28883e-08
-4.65465e-07
-4.99121e-07
-1.0116e-06
-8.18324e-07
-9.28417e-07
-8.55703e-07
-1.00183e-06
-9.32468e-07
-8.77912e-07
-7.34337e-07
-7.38649e-07
-9.15152e-07
-8.5907e-07
-7.08125e-07
-1.0552e-06
-2.93734e-07
-2.98862e-08
-8.13318e-07
-5.69805e-08
1.01038e-07
-8.03389e-08
1.2012e-07
-4.89227e-08
-6.6112e-08
-3.094e-08
-1.64247e-08
-4.71482e-08
-6.30215e-08
8.55064e-08
2.74509e-07
1.78052e-07
3.06705e-07
8.41148e-08
4.23268e-08
1.37384e-07
1.0241e-07