/*--------------------------------*- C++ -*----------------------------------*\
  =========                 |
  \\      /  F ield         | OpenFOAM: The Open Source CFD Toolbox
   \\    /   O peration     | Website:  https://openfoam.org
    \\  /    A nd           | Version:  10
     \\/     M anipulation  |
\*---------------------------------------------------------------------------*/
FoamFile
{
    format      ascii;
    class       volScalarField;
    location    "14";
    object      pPrime2Mean;
}
// * * * * * * * * * * * * * * * * * * * * * * * * * * * * * * * * * * * * * //

dimensions      [0 4 -4 0 0 0 0];

internalField   nonuniform List<scalar> 
25600
(
3.54091e-05
3.50132e-05
3.51409e-05
3.7486e-05
3.20491e-05
3.31935e-05
3.44047e-05
3.55649e-05
3.1446e-05
3.13933e-05
3.53366e-05
3.3776e-05
2.86204e-05
2.54272e-05
2.17683e-05
2.24639e-05
2.38892e-05
2.64259e-05
3.07609e-05
3.41784e-05
3.33763e-05
2.90186e-05
2.75249e-05
2.40213e-05
2.71189e-05
3.2253e-05
3.57772e-05
3.58791e-05
3.34105e-05
3.24287e-05
3.12763e-05
2.94468e-05
2.77104e-05
2.93195e-05
2.757e-05
2.54519e-05
2.69991e-05
3.15654e-05
3.4589e-05
3.57324e-05
3.55677e-05
3.51936e-05
3.5285e-05
3.76176e-05
3.22215e-05
3.33951e-05
3.46527e-05
3.58e-05
3.16124e-05
3.15416e-05
3.55457e-05
3.3954e-05
2.87729e-05
2.5553e-05
2.18929e-05
2.26074e-05
2.40225e-05
2.65768e-05
3.09514e-05
3.43742e-05
3.36163e-05
2.91738e-05
2.76533e-05
2.41564e-05
2.72604e-05
3.24802e-05
3.60199e-05
3.61211e-05
3.36983e-05
3.26885e-05
3.14526e-05
2.96347e-05
2.7867e-05
2.95437e-05
2.7797e-05
2.5663e-05
2.72188e-05
3.17799e-05
3.477e-05
3.59228e-05
3.59235e-05
3.54812e-05
3.56138e-05
3.78612e-05
3.26417e-05
3.38785e-05
3.52489e-05
3.63722e-05
3.20078e-05
3.18712e-05
3.59907e-05
3.43313e-05
2.90915e-05
2.58173e-05
2.22007e-05
2.2972e-05
2.44013e-05
2.69953e-05
3.14066e-05
3.47942e-05
3.41077e-05
2.95323e-05
2.78311e-05
2.44909e-05
2.75278e-05
3.30896e-05
3.66362e-05
3.68198e-05
3.43786e-05
3.33716e-05
3.20416e-05
3.01723e-05
2.83591e-05
3.00396e-05
2.82675e-05
2.61036e-05
2.76454e-05
3.22547e-05
3.5155e-05
3.62914e-05
3.65192e-05
3.59654e-05
3.62334e-05
3.83384e-05
3.32478e-05
3.45699e-05
3.60776e-05
3.70805e-05
3.26092e-05
3.23608e-05
3.66483e-05
3.48595e-05
2.95704e-05
2.62652e-05
2.26404e-05
2.3524e-05
2.49251e-05
2.7567e-05
3.20447e-05
3.53865e-05
3.48045e-05
3.00886e-05
2.80486e-05
2.49387e-05
2.78511e-05
3.39917e-05
3.76195e-05
3.78215e-05
3.53816e-05
3.43949e-05
3.28557e-05
3.11569e-05
2.90161e-05
3.06745e-05
2.8891e-05
2.67429e-05
2.81537e-05
3.29372e-05
3.57467e-05
3.68906e-05
3.7319e-05
3.6555e-05
3.72007e-05
3.88271e-05
3.37646e-05
3.51372e-05
3.66734e-05
3.75892e-05
3.31582e-05
3.28616e-05
3.72324e-05
3.52766e-05
2.99647e-05
2.65769e-05
2.29064e-05
2.39999e-05
2.54142e-05
2.80763e-05
3.26647e-05
3.59613e-05
3.53798e-05
3.0456e-05
2.80683e-05
2.52769e-05
2.81012e-05
3.51529e-05
3.88426e-05
3.92472e-05
3.68156e-05
3.57696e-05
3.39144e-05
3.22144e-05
2.97881e-05
3.12164e-05
2.93937e-05
2.72406e-05
2.85462e-05
3.35046e-05
3.63618e-05
3.76131e-05
3.77127e-05
3.66512e-05
3.74912e-05
3.81208e-05
3.346e-05
3.49886e-05
3.66146e-05
3.77557e-05
3.36217e-05
3.32362e-05
3.76688e-05
3.56447e-05
3.03175e-05
2.69313e-05
2.3224e-05
2.45085e-05
2.59423e-05
2.84728e-05
3.30504e-05
3.64561e-05
3.57862e-05
3.08278e-05
2.76851e-05
2.53065e-05
2.83689e-05
3.64664e-05
4.00299e-05
4.03826e-05
3.7877e-05
3.66995e-05
3.45173e-05
3.30849e-05
3.03353e-05
3.1717e-05
2.99569e-05
2.78269e-05
2.86789e-05
3.33665e-05
3.64279e-05
3.78483e-05
3.82566e-05
3.67952e-05
3.71174e-05
3.67121e-05
3.21933e-05
3.42215e-05
3.58536e-05
3.70198e-05
3.35972e-05
3.29409e-05
3.74223e-05
3.51846e-05
2.95832e-05
2.64215e-05
2.29758e-05
2.43748e-05
2.62243e-05
2.8682e-05
3.29934e-05
3.66277e-05
3.5409e-05
3.04447e-05
2.69084e-05
2.47889e-05
2.85212e-05
3.71293e-05
4.08041e-05
4.08642e-05
3.81636e-05
3.70628e-05
3.46359e-05
3.33697e-05
3.06821e-05
3.1858e-05
3.0147e-05
2.79747e-05
2.81512e-05
3.24638e-05
3.57941e-05
3.75923e-05
3.80162e-05
3.62594e-05
3.59653e-05
3.54508e-05
3.08833e-05
3.31224e-05
3.45318e-05
3.55475e-05
3.27903e-05
3.15568e-05
3.56362e-05
3.38079e-05
2.83063e-05
2.54046e-05
2.27936e-05
2.40636e-05
2.62581e-05
2.85731e-05
3.24849e-05
3.64212e-05
3.47526e-05
2.94792e-05
2.54257e-05
2.40242e-05
2.80644e-05
3.68674e-05
4.06776e-05
4.08701e-05
3.79547e-05
3.70105e-05
3.44534e-05
3.32113e-05
3.06149e-05
3.17842e-05
3.02399e-05
2.80789e-05
2.825e-05
3.20511e-05
3.45029e-05
3.62869e-05
3.64242e-05
3.48918e-05
3.42738e-05
3.37649e-05
2.94821e-05
3.16891e-05
3.28877e-05
3.36423e-05
3.15088e-05
2.96645e-05
3.27748e-05
3.18277e-05
2.66119e-05
2.41403e-05
2.19976e-05
2.35408e-05
2.59791e-05
2.80667e-05
3.18045e-05
3.52867e-05
3.35858e-05
2.79332e-05
2.3753e-05
2.31089e-05
2.72323e-05
3.58331e-05
4.03404e-05
4.07411e-05
3.7654e-05
3.6566e-05
3.37695e-05
3.24986e-05
3.01658e-05
3.06787e-05
2.90692e-05
2.71227e-05
2.78113e-05
3.07768e-05
3.21462e-05
3.39682e-05
3.40358e-05
3.29938e-05
3.20068e-05
3.16571e-05
2.81041e-05
2.98888e-05
3.06705e-05
3.12389e-05
2.95134e-05
2.75697e-05
2.98925e-05
2.96663e-05
2.51163e-05
2.29755e-05
2.11414e-05
2.25872e-05
2.53755e-05
2.73374e-05
3.08397e-05
3.35505e-05
3.17567e-05
2.59282e-05
2.22078e-05
2.23122e-05
2.64656e-05
3.42784e-05
3.95369e-05
4.02287e-05
3.6823e-05
3.52628e-05
3.25739e-05
3.09568e-05
2.88666e-05
2.87974e-05
2.72243e-05
2.54279e-05
2.64225e-05
2.90045e-05
3.02029e-05
3.17121e-05
3.05757e-05
2.95672e-05
2.86827e-05
2.83855e-05
2.54025e-05
2.62599e-05
2.70396e-05
2.79705e-05
2.65425e-05
2.48667e-05
2.65e-05
2.66299e-05
2.29079e-05
2.0947e-05
1.90869e-05
2.03977e-05
2.29783e-05
2.47649e-05
2.79518e-05
2.99531e-05
2.78234e-05
2.29517e-05
2.05926e-05
2.1481e-05
2.55779e-05
3.23714e-05
3.73948e-05
3.78598e-05
3.43044e-05
3.22969e-05
2.9849e-05
2.76281e-05
2.5891e-05
2.53199e-05
2.38851e-05
2.23209e-05
2.3567e-05
2.65e-05
2.83348e-05
2.92419e-05
2.56576e-05
2.46058e-05
2.37016e-05
2.32795e-05
2.09786e-05
2.14787e-05
2.22981e-05
2.3556e-05
2.26451e-05
2.15553e-05
2.26e-05
2.27095e-05
1.97299e-05
1.7854e-05
1.6179e-05
1.71666e-05
1.93288e-05
2.0861e-05
2.35651e-05
2.50049e-05
2.26858e-05
1.91367e-05
1.79026e-05
1.92947e-05
2.32992e-05
2.93474e-05
3.37322e-05
3.40276e-05
3.09328e-05
2.86385e-05
2.64318e-05
2.36738e-05
2.23741e-05
2.2018e-05
2.05377e-05
1.88202e-05
1.99335e-05
2.27379e-05
2.4823e-05
2.52348e-05
1.98097e-05
1.89184e-05
1.81525e-05
1.7846e-05
1.64533e-05
1.69133e-05
1.7648e-05
1.886e-05
1.83735e-05
1.76283e-05
1.8326e-05
1.80971e-05
1.57602e-05
1.43633e-05
1.28472e-05
1.33684e-05
1.51366e-05
1.64752e-05
1.86119e-05
1.97669e-05
1.76636e-05
1.50745e-05
1.44209e-05
1.56977e-05
1.92018e-05
2.40176e-05
2.74576e-05
2.75418e-05
2.53877e-05
2.36853e-05
2.19579e-05
1.89798e-05
1.77459e-05
1.78024e-05
1.68104e-05
1.51241e-05
1.58638e-05
1.80776e-05
1.97058e-05
1.98835e-05
1.44309e-05
1.39047e-05
1.35781e-05
1.36306e-05
1.29849e-05
1.31541e-05
1.36252e-05
1.46023e-05
1.4241e-05
1.343e-05
1.40595e-05
1.37948e-05
1.20657e-05
1.11758e-05
9.66634e-06
9.62261e-06
1.09603e-05
1.18597e-05
1.35664e-05
1.47212e-05
1.33196e-05
1.16094e-05
1.12538e-05
1.20043e-05
1.39923e-05
1.73433e-05
2.00512e-05
2.01619e-05
1.88945e-05
1.79808e-05
1.71258e-05
1.44442e-05
1.3236e-05
1.35364e-05
1.30508e-05
1.14474e-05
1.18089e-05
1.35642e-05
1.46844e-05
1.48388e-05
1.02668e-05
9.87346e-06
9.90214e-06
1.00431e-05
9.76983e-06
9.73264e-06
9.87815e-06
1.06044e-05
1.03471e-05
9.58704e-06
1.02247e-05
1.00654e-05
8.82612e-06
8.34072e-06
6.98822e-06
6.64062e-06
7.60612e-06
8.14827e-06
9.5005e-06
1.05381e-05
9.67515e-06
8.61767e-06
8.36402e-06
8.77197e-06
9.56245e-06
1.16357e-05
1.36927e-05
1.3881e-05
1.31901e-05
1.26651e-05
1.22732e-05
1.03161e-05
9.31407e-06
9.62984e-06
9.69152e-06
8.36741e-06
8.43489e-06
9.81754e-06
1.06196e-05
1.08672e-05
7.10095e-06
6.72794e-06
6.97715e-06
7.06266e-06
6.95823e-06
6.94759e-06
6.86087e-06
7.23236e-06
7.10548e-06
6.55843e-06
7.20815e-06
7.08504e-06
6.1977e-06
5.97376e-06
4.87728e-06
4.52483e-06
5.19702e-06
5.47827e-06
6.4341e-06
7.32005e-06
6.82048e-06
6.13945e-06
5.98809e-06
6.22999e-06
6.37164e-06
7.39155e-06
8.89465e-06
9.14371e-06
8.77209e-06
8.49593e-06
8.34457e-06
7.14703e-06
6.31755e-06
6.57202e-06
6.90531e-06
5.95465e-06
5.8475e-06
6.88965e-06
7.47985e-06
7.67786e-06
4.77115e-06
4.43108e-06
4.74763e-06
4.77533e-06
4.7426e-06
4.80813e-06
4.57797e-06
4.73724e-06
4.70763e-06
4.39144e-06
5.01141e-06
4.87756e-06
4.20897e-06
4.13482e-06
3.31662e-06
3.03384e-06
3.49281e-06
3.57321e-06
4.21097e-06
4.9024e-06
4.5859e-06
4.17029e-06
4.13021e-06
4.30269e-06
4.17892e-06
4.59873e-06
5.67956e-06
5.91212e-06
5.68698e-06
5.53685e-06
5.42447e-06
4.7747e-06
4.18351e-06
4.33255e-06
4.70342e-06
4.07612e-06
3.94156e-06
4.69206e-06
5.1216e-06
5.2655e-06
3.12896e-06
2.83411e-06
3.1306e-06
3.11887e-06
3.11483e-06
3.22256e-06
2.96355e-06
3.04647e-06
3.05161e-06
2.90191e-06
3.4271e-06
3.28503e-06
2.77453e-06
2.81945e-06
2.22664e-06
1.99997e-06
2.33764e-06
2.30713e-06
2.72131e-06
3.25507e-06
3.03588e-06
2.78169e-06
2.78459e-06
2.93556e-06
2.73607e-06
2.82173e-06
3.58184e-06
3.77378e-06
3.59423e-06
3.53047e-06
3.42487e-06
3.10594e-06
2.72621e-06
2.78487e-06
3.0969e-06
2.69571e-06
2.56572e-06
3.10186e-06
3.38643e-06
3.50633e-06
2.02548e-06
1.78359e-06
2.03945e-06
1.99695e-06
2.00459e-06
2.13562e-06
1.88194e-06
1.91354e-06
1.9319e-06
1.86577e-06
2.30962e-06
2.17477e-06
1.77994e-06
1.90403e-06
1.47766e-06
1.3135e-06
1.57106e-06
1.48022e-06
1.75131e-06
2.13389e-06
1.95778e-06
1.80693e-06
1.83041e-06
1.9718e-06
1.78523e-06
1.70605e-06
2.24674e-06
2.41087e-06
2.2595e-06
2.24156e-06
2.14285e-06
1.98216e-06
1.75388e-06
1.77376e-06
2.04446e-06
1.77655e-06
1.66402e-06
2.03966e-06
2.21476e-06
2.2992e-06
1.27906e-06
1.09764e-06
1.3074e-06
1.24021e-06
1.23493e-06
1.38216e-06
1.17308e-06
1.19022e-06
1.22255e-06
1.18323e-06
1.55173e-06
1.44071e-06
1.12116e-06
1.28445e-06
9.79458e-07
8.5414e-07
1.07334e-06
9.45124e-07
1.12135e-06
1.38587e-06
1.22743e-06
1.14486e-06
1.18469e-06
1.30854e-06
1.17075e-06
1.02061e-06
1.3794e-06
1.52799e-06
1.40295e-06
1.41635e-06
1.33436e-06
1.24153e-06
1.1121e-06
1.12037e-06
1.34617e-06
1.17143e-06
1.07582e-06
1.32458e-06
1.40755e-06
1.4663e-06
8.10314e-07
6.68037e-07
8.47047e-07
7.72132e-07
7.41931e-07
8.9621e-07
7.35423e-07
7.48352e-07
7.92291e-07
7.46391e-07
1.03568e-06
9.56562e-07
6.99862e-07
8.79234e-07
6.59131e-07
5.5717e-07
7.61983e-07
6.10747e-07
7.21993e-07
9.14067e-07
7.55018e-07
7.1166e-07
7.59213e-07
8.57177e-07
7.81915e-07
6.1858e-07
8.39529e-07
9.72685e-07
8.73162e-07
8.9911e-07
8.33945e-07
7.70275e-07
7.08587e-07
7.08197e-07
8.87352e-07
7.77474e-07
7.04992e-07
8.72199e-07
8.95746e-07
9.35575e-07
5.26196e-07
4.02024e-07
5.57998e-07
4.85958e-07
4.24584e-07
5.7884e-07
4.61134e-07
4.76794e-07
5.3383e-07
4.77477e-07
6.90897e-07
6.4173e-07
4.40701e-07
6.1838e-07
4.5653e-07
3.63445e-07
5.63461e-07
4.01701e-07
4.6087e-07
6.211e-07
4.6123e-07
4.39905e-07
4.99709e-07
5.55517e-07
5.28044e-07
3.86392e-07
5.07923e-07
6.26329e-07
5.54883e-07
5.85138e-07
5.3297e-07
4.81998e-07
4.62385e-07
4.55805e-07
5.9094e-07
5.28432e-07
4.71397e-07
5.83282e-07
5.67493e-07
5.96349e-07
3.65263e-07
2.4555e-07
3.81086e-07
3.2521e-07
2.39942e-07
3.85422e-07
2.98541e-07
3.13511e-07
3.78872e-07
3.21212e-07
4.68701e-07
4.36265e-07
2.86462e-07
4.5541e-07
3.36638e-07
2.4292e-07
4.3914e-07
2.83054e-07
2.94581e-07
4.43457e-07
2.90079e-07
2.73023e-07
3.46442e-07
3.64623e-07
3.66358e-07
2.64819e-07
3.14583e-07
4.16185e-07
3.73886e-07
3.99323e-07
3.60816e-07
3.12651e-07
3.2054e-07
3.08669e-07
4.02315e-07
3.72915e-07
3.30365e-07
4.04489e-07
3.65105e-07
3.88318e-07
2.72447e-07
1.58762e-07
2.73088e-07
2.40676e-07
1.42028e-07
2.69585e-07
2.02712e-07
2.12016e-07
2.77133e-07
2.31863e-07
3.32077e-07
3.0105e-07
1.95605e-07
3.51828e-07
2.64461e-07
1.69445e-07
3.54492e-07
2.1657e-07
1.87571e-07
3.33942e-07
1.9797e-07
1.77054e-07
2.61372e-07
2.49707e-07
2.61552e-07
2.02187e-07
2.05119e-07
2.86201e-07
2.73006e-07
2.90751e-07
2.63638e-07
2.14041e-07
2.43924e-07
2.2833e-07
2.81573e-07
2.76135e-07
2.46936e-07
2.93797e-07
2.45259e-07
2.63479e-07
2.17991e-07
1.14502e-07
2.03487e-07
1.9825e-07
9.83803e-08
2.01818e-07
1.45629e-07
1.47955e-07
2.04034e-07
1.75303e-07
2.54613e-07
2.12059e-07
1.41133e-07
2.8543e-07
2.1719e-07
1.2448e-07
2.91223e-07
1.80582e-07
1.2402e-07
2.6413e-07
1.51548e-07
1.21258e-07
2.11982e-07
1.8598e-07
1.96198e-07
1.73428e-07
1.49869e-07
2.05311e-07
2.15406e-07
2.29171e-07
2.13727e-07
1.59317e-07
2.03448e-07
1.88095e-07
2.04637e-07
2.15109e-07
1.96408e-07
2.25371e-07
1.76685e-07
1.88231e-07
1.80511e-07
9.45801e-08
1.57035e-07
1.73552e-07
8.39e-08
1.60621e-07
1.111e-07
1.11368e-07
1.507e-07
1.3133e-07
2.15324e-07
1.54608e-07
1.06592e-07
2.43008e-07
1.8052e-07
9.75661e-08
2.37834e-07
1.57487e-07
8.92476e-08
2.15599e-07
1.30902e-07
9.05861e-08
1.80868e-07
1.51088e-07
1.56606e-07
1.61747e-07
1.24984e-07
1.55475e-07
1.76801e-07
1.94311e-07
1.88599e-07
1.30098e-07
1.81632e-07
1.72295e-07
1.57191e-07
1.78337e-07
1.65437e-07
1.80615e-07
1.3927e-07
1.40707e-07
1.47837e-07
8.78661e-08
1.239e-07
1.49966e-07
8.20726e-08
1.30777e-07
8.91558e-08
9.58954e-08
1.13548e-07
9.58584e-08
1.96224e-07
1.20035e-07
8.31598e-08
2.13598e-07
1.49301e-07
8.11136e-08
1.90995e-07
1.39711e-07
7.37863e-08
1.79271e-07
1.2555e-07
7.71399e-08
1.56228e-07
1.30443e-07
1.33563e-07
1.54808e-07
1.16521e-07
1.27493e-07
1.45632e-07
1.71289e-07
1.75194e-07
1.1439e-07
1.67271e-07
1.69241e-07
1.27674e-07
1.59242e-07
1.489e-07
1.4842e-07
1.2131e-07
1.09796e-07
1.16951e-07
8.66241e-08
9.89059e-08
1.22472e-07
8.44913e-08
1.05938e-07
7.55058e-08
9.78935e-08
9.31305e-08
7.35853e-08
1.86374e-07
1.02581e-07
7.10974e-08
1.90661e-07
1.24752e-07
7.60253e-08
1.53153e-07
1.26311e-07
7.35637e-08
1.50735e-07
1.28551e-07
7.68728e-08
1.34561e-07
1.17935e-07
1.19358e-07
1.45334e-07
1.14139e-07
1.15122e-07
1.20774e-07
1.52489e-07
1.66091e-07
1.05756e-07
1.54406e-07
1.70636e-07
1.09844e-07
1.49241e-07
1.43624e-07
1.23443e-07
1.15708e-07
9.29843e-08
9.21682e-08
8.89155e-08
8.18931e-08
9.489e-08
8.92115e-08
8.8639e-08
7.061e-08
1.13247e-07
8.64391e-08
6.84317e-08
1.80589e-07
9.57821e-08
7.29612e-08
1.71354e-07
1.08978e-07
8.43606e-08
1.27501e-07
1.18468e-07
8.6126e-08
1.27442e-07
1.32865e-07
8.42903e-08
1.16136e-07
1.11415e-07
1.10119e-07
1.33478e-07
1.11543e-07
1.1228e-07
1.05277e-07
1.32964e-07
1.57556e-07
1.002e-07
1.37456e-07
1.67507e-07
9.73638e-08
1.36667e-07
1.43415e-07
1.0316e-07
1.13051e-07
8.90589e-08
7.77376e-08
9.38188e-08
7.8074e-08
7.72095e-08
9.90535e-08
8.33847e-08
7.38942e-08
1.30683e-07
8.67827e-08
7.32968e-08
1.70755e-07
9.30531e-08
8.09456e-08
1.52282e-07
9.87636e-08
9.87164e-08
1.12835e-07
1.14383e-07
1.04275e-07
1.07772e-07
1.34279e-07
9.66997e-08
1.03204e-07
1.11814e-07
1.05703e-07
1.24774e-07
1.08919e-07
1.12345e-07
1.02167e-07
1.13073e-07
1.47045e-07
9.75204e-08
1.13429e-07
1.54596e-07
8.7728e-08
1.13558e-07
1.35463e-07
8.59868e-08
1.04583e-07
9.17322e-08
7.18168e-08
9.52001e-08
8.22792e-08
7.26815e-08
1.05619e-07
8.22716e-08
7.94531e-08
1.3286e-07
8.23416e-08
7.74461e-08
1.46733e-07
8.90179e-08
8.36453e-08
1.26229e-07
8.87734e-08
9.84143e-08
9.9693e-08
1.06252e-07
1.12233e-07
9.2912e-08
1.30402e-07
1.09494e-07
9.58997e-08
1.15237e-07
1.01096e-07
1.18134e-07
1.0926e-07
1.08258e-07
1.10331e-07
9.99273e-08
1.32322e-07
1.03759e-07
9.44196e-08
1.39593e-07
9.05144e-08
9.19386e-08
1.19416e-07
7.865e-08
9.22605e-08
9.09526e-08
7.34403e-08
9.43064e-08
8.52936e-08
7.67802e-08
1.02854e-07
7.35099e-08
8.16095e-08
1.1443e-07
7.13289e-08
7.73481e-08
1.09953e-07
8.46109e-08
7.45878e-08
9.34504e-08
8.08942e-08
7.25893e-08
8.11746e-08
9.47673e-08
8.9894e-08
7.54388e-08
1.15392e-07
1.03701e-07
8.28067e-08
1.07652e-07
8.80663e-08
1.06418e-07
1.10774e-07
9.96605e-08
1.20787e-07
9.98507e-08
1.16954e-07
1.20279e-07
9.53823e-08
1.30336e-07
1.13337e-07
9.27033e-08
1.08916e-07
8.98353e-08
9.26374e-08
8.99444e-08
2.99249e-05
2.94044e-05
2.85153e-05
3.70585e-05
2.7625e-05
2.88634e-05
2.88925e-05
2.89973e-05
2.8936e-05
2.85413e-05
2.71021e-05
2.56744e-05
2.42731e-05
2.39834e-05
2.15977e-05
2.38459e-05
2.41783e-05
2.48715e-05
2.6529e-05
3.12649e-05
3.41782e-05
3.11192e-05
2.74158e-05
2.47226e-05
2.33106e-05
2.46857e-05
2.40888e-05
2.4998e-05
2.56423e-05
2.52913e-05
2.78888e-05
2.90751e-05
3.11295e-05
3.47017e-05
3.41383e-05
3.20819e-05
2.60429e-05
2.33627e-05
2.49679e-05
2.57293e-05
3.01421e-05
2.96539e-05
2.86414e-05
3.73543e-05
2.78201e-05
2.90318e-05
2.90753e-05
2.92065e-05
2.91049e-05
2.8676e-05
2.72712e-05
2.58397e-05
2.44244e-05
2.41293e-05
2.17079e-05
2.3977e-05
2.4328e-05
2.50379e-05
2.66878e-05
3.14076e-05
3.43961e-05
3.12975e-05
2.75265e-05
2.48412e-05
2.33264e-05
2.4786e-05
2.41688e-05
2.50828e-05
2.57301e-05
2.53696e-05
2.80365e-05
2.92022e-05
3.12428e-05
3.48491e-05
3.42462e-05
3.22234e-05
2.6139e-05
2.34329e-05
2.51277e-05
2.58759e-05
3.06308e-05
3.02274e-05
2.89474e-05
3.78987e-05
2.82009e-05
2.93744e-05
2.94498e-05
2.96008e-05
2.95019e-05
2.89738e-05
2.76177e-05
2.62015e-05
2.46933e-05
2.44002e-05
2.19528e-05
2.42477e-05
2.46868e-05
2.54469e-05
2.71037e-05
3.18161e-05
3.48243e-05
3.1698e-05
2.79068e-05
2.52736e-05
2.34615e-05
2.51529e-05
2.44264e-05
2.53458e-05
2.6032e-05
2.56086e-05
2.8481e-05
2.95061e-05
3.15065e-05
3.52502e-05
3.45903e-05
3.25902e-05
2.64132e-05
2.36356e-05
2.54121e-05
2.62475e-05
3.12752e-05
3.07245e-05
2.92171e-05
3.82034e-05
2.8597e-05
2.97676e-05
2.97669e-05
2.99725e-05
2.99065e-05
2.93903e-05
2.80467e-05
2.6592e-05
2.4961e-05
2.46546e-05
2.21787e-05
2.45523e-05
2.51189e-05
2.59685e-05
2.77006e-05
3.22678e-05
3.53551e-05
3.22674e-05
2.84555e-05
2.58147e-05
2.35514e-05
2.54329e-05
2.46532e-05
2.56471e-05
2.64207e-05
2.59328e-05
2.90795e-05
2.99577e-05
3.18303e-05
3.5675e-05
3.49594e-05
3.30481e-05
2.68368e-05
2.38897e-05
2.57042e-05
2.66515e-05
3.13852e-05
3.0616e-05
2.91189e-05
3.78172e-05
2.87432e-05
2.98722e-05
2.97594e-05
3.00043e-05
3.0078e-05
2.94589e-05
2.82413e-05
2.67805e-05
2.49478e-05
2.46261e-05
2.21878e-05
2.45045e-05
2.53302e-05
2.63475e-05
2.82921e-05
3.2438e-05
3.58881e-05
3.2694e-05
2.87673e-05
2.6183e-05
2.35003e-05
2.55883e-05
2.46536e-05
2.56274e-05
2.6674e-05
2.61985e-05
2.94354e-05
3.02589e-05
3.1799e-05
3.56923e-05
3.50892e-05
3.31662e-05
2.68512e-05
2.37049e-05
2.56696e-05
2.64593e-05
3.12975e-05
3.00235e-05
2.85901e-05
3.6505e-05
2.87105e-05
2.94966e-05
2.92428e-05
2.98171e-05
2.98833e-05
2.89982e-05
2.7772e-05
2.64412e-05
2.46217e-05
2.4346e-05
2.1681e-05
2.40305e-05
2.50213e-05
2.63079e-05
2.8449e-05
3.20939e-05
3.6224e-05
3.27222e-05
2.8985e-05
2.66445e-05
2.35231e-05
2.57504e-05
2.48113e-05
2.6142e-05
2.69172e-05
2.62325e-05
2.96613e-05
3.04226e-05
3.15695e-05
3.53362e-05
3.48557e-05
3.28962e-05
2.68439e-05
2.38331e-05
2.56205e-05
2.61511e-05
3.06585e-05
2.89127e-05
2.81612e-05
3.55226e-05
2.904e-05
2.9176e-05
2.88558e-05
2.95816e-05
2.95319e-05
2.8054e-05
2.66016e-05
2.53418e-05
2.40057e-05
2.35961e-05
2.07665e-05
2.30877e-05
2.45816e-05
2.6185e-05
2.8208e-05
3.13178e-05
3.52659e-05
3.14479e-05
2.85252e-05
2.67714e-05
2.38791e-05
2.6209e-05
2.50238e-05
2.62261e-05
2.70788e-05
2.60395e-05
2.9195e-05
2.97758e-05
3.08805e-05
3.45977e-05
3.44693e-05
3.22498e-05
2.66388e-05
2.38439e-05
2.5261e-05
2.58275e-05
2.95815e-05
2.77468e-05
2.75241e-05
3.38337e-05
2.84323e-05
2.87616e-05
2.84103e-05
2.90104e-05
2.86275e-05
2.67902e-05
2.507e-05
2.40232e-05
2.31645e-05
2.24988e-05
1.98962e-05
2.22039e-05
2.43206e-05
2.56582e-05
2.72936e-05
2.97598e-05
3.28532e-05
2.91399e-05
2.75946e-05
2.64503e-05
2.4604e-05
2.6365e-05
2.49853e-05
2.62249e-05
2.69574e-05
2.53508e-05
2.79125e-05
2.7989e-05
2.92898e-05
3.2822e-05
3.29838e-05
3.06662e-05
2.54774e-05
2.30222e-05
2.41611e-05
2.53695e-05
2.76215e-05
2.57367e-05
2.6033e-05
3.16626e-05
2.69746e-05
2.74043e-05
2.71531e-05
2.74876e-05
2.688e-05
2.5133e-05
2.33421e-05
2.26731e-05
2.1786e-05
2.076e-05
1.85176e-05
2.07538e-05
2.32853e-05
2.44927e-05
2.58064e-05
2.80118e-05
3.0105e-05
2.67038e-05
2.60907e-05
2.52283e-05
2.43709e-05
2.53356e-05
2.40001e-05
2.48585e-05
2.55143e-05
2.31606e-05
2.49166e-05
2.53489e-05
2.67284e-05
2.97105e-05
3.02225e-05
2.79916e-05
2.31608e-05
2.10781e-05
2.20434e-05
2.38768e-05
2.47568e-05
2.24708e-05
2.28293e-05
2.73355e-05
2.39378e-05
2.44695e-05
2.43381e-05
2.44419e-05
2.38402e-05
2.25542e-05
2.11493e-05
2.10188e-05
2.00155e-05
1.86351e-05
1.65765e-05
1.85154e-05
2.11384e-05
2.25938e-05
2.39123e-05
2.63377e-05
2.73219e-05
2.41047e-05
2.3723e-05
2.29757e-05
2.2759e-05
2.30369e-05
2.20116e-05
2.2312e-05
2.26508e-05
2.00725e-05
2.09737e-05
2.20243e-05
2.34471e-05
2.59881e-05
2.67921e-05
2.45714e-05
2.02409e-05
1.83558e-05
1.93053e-05
2.15837e-05
2.14739e-05
1.8875e-05
1.90562e-05
2.23576e-05
2.01634e-05
2.07466e-05
2.07214e-05
2.06409e-05
2.01328e-05
1.92265e-05
1.80137e-05
1.83849e-05
1.78571e-05
1.63614e-05
1.43823e-05
1.58498e-05
1.81153e-05
1.97381e-05
2.13209e-05
2.40165e-05
2.45173e-05
2.1355e-05
2.0701e-05
1.9997e-05
1.99382e-05
1.99885e-05
1.92483e-05
1.92164e-05
1.91933e-05
1.68229e-05
1.71177e-05
1.8207e-05
1.96097e-05
2.19534e-05
2.29874e-05
2.09035e-05
1.70718e-05
1.54e-05
1.64777e-05
1.90949e-05
1.79028e-05
1.56546e-05
1.55069e-05
1.79272e-05
1.678e-05
1.72103e-05
1.71311e-05
1.69198e-05
1.64004e-05
1.58622e-05
1.49127e-05
1.53559e-05
1.53831e-05
1.40146e-05
1.21815e-05
1.31764e-05
1.49195e-05
1.59312e-05
1.735e-05
2.0123e-05
2.07018e-05
1.81377e-05
1.71819e-05
1.66105e-05
1.65129e-05
1.66244e-05
1.63968e-05
1.60408e-05
1.57476e-05
1.38513e-05
1.39396e-05
1.46113e-05
1.56967e-05
1.76078e-05
1.86986e-05
1.75169e-05
1.43818e-05
1.27831e-05
1.36188e-05
1.61521e-05
1.41517e-05
1.2462e-05
1.22251e-05
1.41685e-05
1.38276e-05
1.38911e-05
1.3725e-05
1.33112e-05
1.26733e-05
1.25377e-05
1.21752e-05
1.24375e-05
1.26798e-05
1.15294e-05
9.8046e-06
1.04428e-05
1.19109e-05
1.20979e-05
1.32053e-05
1.57564e-05
1.64765e-05
1.47371e-05
1.38136e-05
1.32852e-05
1.29465e-05
1.30272e-05
1.30839e-05
1.23285e-05
1.17884e-05
1.06371e-05
1.12449e-05
1.168e-05
1.22809e-05
1.358e-05
1.45225e-05
1.41686e-05
1.19528e-05
1.04438e-05
1.08836e-05
1.29801e-05
1.05028e-05
9.21683e-06
9.14899e-06
1.07116e-05
1.08778e-05
1.06734e-05
1.04798e-05
1.00119e-05
9.31703e-06
9.3006e-06
9.50583e-06
9.65517e-06
1.00379e-05
9.24331e-06
7.55843e-06
7.76642e-06
8.80821e-06
8.66461e-06
9.5452e-06
1.18104e-05
1.24715e-05
1.12184e-05
1.03774e-05
9.94658e-06
9.51042e-06
9.7276e-06
1.00098e-05
9.16665e-06
8.51842e-06
7.93061e-06
8.8095e-06
9.10348e-06
9.14751e-06
9.86351e-06
1.08288e-05
1.08762e-05
9.51589e-06
8.20484e-06
8.30827e-06
9.84719e-06
7.67703e-06
6.6728e-06
6.66716e-06
7.7369e-06
8.08363e-06
7.88748e-06
7.73298e-06
7.35617e-06
6.68942e-06
6.67688e-06
7.13081e-06
7.24932e-06
7.60252e-06
7.26327e-06
5.82201e-06
5.68183e-06
6.349e-06
6.04945e-06
6.65532e-06
8.65184e-06
9.31228e-06
8.39369e-06
7.62767e-06
7.21752e-06
6.81987e-06
7.15453e-06
7.55623e-06
6.84229e-06
6.06414e-06
5.77675e-06
6.69302e-06
6.94876e-06
6.66598e-06
7.09006e-06
7.97932e-06
8.09491e-06
7.27832e-06
6.14112e-06
6.06741e-06
7.26568e-06
5.62047e-06
4.82715e-06
4.77476e-06
5.43165e-06
5.81071e-06
5.68316e-06
5.55096e-06
5.32556e-06
4.71398e-06
4.72616e-06
5.31437e-06
5.36974e-06
5.53906e-06
5.45719e-06
4.30091e-06
4.12519e-06
4.60303e-06
4.19844e-06
4.50442e-06
6.16334e-06
6.78059e-06
6.12445e-06
5.49441e-06
5.09862e-06
4.76534e-06
5.04611e-06
5.56608e-06
5.04485e-06
4.28508e-06
4.12921e-06
4.93499e-06
5.2292e-06
4.81336e-06
5.06357e-06
5.83708e-06
5.99012e-06
5.54977e-06
4.60605e-06
4.3443e-06
5.35492e-06
4.00706e-06
3.37124e-06
3.36425e-06
3.64846e-06
3.9318e-06
3.92287e-06
3.81627e-06
3.71279e-06
3.18595e-06
3.21373e-06
3.85496e-06
3.86595e-06
3.93888e-06
3.99258e-06
3.04957e-06
2.88772e-06
3.29756e-06
2.85159e-06
2.9154e-06
4.14142e-06
4.65685e-06
4.23255e-06
3.81314e-06
3.52475e-06
3.25248e-06
3.40348e-06
3.93121e-06
3.60003e-06
2.93562e-06
2.83007e-06
3.46816e-06
3.74554e-06
3.36271e-06
3.53006e-06
4.19473e-06
4.32031e-06
4.09918e-06
3.39115e-06
3.06699e-06
3.88165e-06
2.71735e-06
2.24785e-06
2.36251e-06
2.46482e-06
2.62612e-06
2.71145e-06
2.59242e-06
2.55124e-06
2.10793e-06
2.12802e-06
2.76648e-06
2.72129e-06
2.75675e-06
2.93811e-06
2.17365e-06
1.9783e-06
2.30486e-06
1.85936e-06
1.82111e-06
2.68361e-06
3.07148e-06
2.8438e-06
2.58269e-06
2.41797e-06
2.20415e-06
2.23352e-06
2.68982e-06
2.48127e-06
1.92866e-06
1.85989e-06
2.29169e-06
2.48984e-06
2.21834e-06
2.35198e-06
2.89039e-06
2.8943e-06
2.75917e-06
2.30412e-06
2.05612e-06
2.69344e-06
1.80021e-06
1.44566e-06
1.61251e-06
1.62272e-06
1.68539e-06
1.8391e-06
1.75995e-06
1.72095e-06
1.35758e-06
1.37384e-06
1.97452e-06
1.90914e-06
1.88185e-06
2.11806e-06
1.53101e-06
1.32296e-06
1.59018e-06
1.1856e-06
1.12719e-06
1.72615e-06
1.98591e-06
1.8723e-06
1.71679e-06
1.63981e-06
1.48389e-06
1.43897e-06
1.79723e-06
1.68601e-06
1.24308e-06
1.18428e-06
1.47778e-06
1.61547e-06
1.40633e-06
1.50841e-06
1.9403e-06
1.8583e-06
1.75694e-06
1.51731e-06
1.35513e-06
1.8344e-06
1.20262e-06
9.23734e-07
1.08677e-06
1.06035e-06
1.0515e-06
1.21782e-06
1.17732e-06
1.1453e-06
8.66999e-07
8.71211e-07
1.41733e-06
1.3495e-06
1.25636e-06
1.50985e-06
1.07776e-06
8.78691e-07
1.10118e-06
7.55015e-07
7.00048e-07
1.11901e-06
1.27156e-06
1.2142e-06
1.12129e-06
1.08379e-06
9.89515e-07
9.09185e-07
1.15517e-06
1.13295e-06
7.98279e-07
7.55068e-07
9.66953e-07
1.06637e-06
8.92416e-07
9.53219e-07
1.30166e-06
1.21731e-06
1.13475e-06
1.03736e-06
9.00684e-07
1.24453e-06
8.15793e-07
5.91376e-07
7.34726e-07
6.97818e-07
6.46352e-07
8.05765e-07
7.80962e-07
7.62705e-07
5.6712e-07
5.43332e-07
1.01435e-06
9.60298e-07
8.30932e-07
1.06675e-06
7.66162e-07
5.91019e-07
7.83767e-07
4.87873e-07
4.36054e-07
7.37504e-07
8.13503e-07
7.89713e-07
7.37559e-07
7.11323e-07
6.70945e-07
5.91859e-07
7.32226e-07
7.66182e-07
5.23451e-07
4.83757e-07
6.39416e-07
7.21034e-07
5.77218e-07
5.97495e-07
8.73857e-07
8.14369e-07
7.47932e-07
7.38909e-07
6.09093e-07
8.46071e-07
5.74899e-07
3.87386e-07
5.04634e-07
4.66739e-07
3.8169e-07
5.34577e-07
5.13274e-07
5.08365e-07
3.91822e-07
3.47832e-07
7.31092e-07
6.88963e-07
5.45211e-07
7.56134e-07
5.54658e-07
4.01393e-07
5.75779e-07
3.27704e-07
2.76607e-07
5.0612e-07
5.19593e-07
5.17736e-07
4.94724e-07
4.6363e-07
4.56986e-07
4.06105e-07
4.62045e-07
5.22738e-07
3.63083e-07
3.22975e-07
4.31367e-07
4.95974e-07
3.90298e-07
3.82379e-07
5.89895e-07
5.5644e-07
5.00574e-07
5.36719e-07
4.1794e-07
5.83259e-07
4.24249e-07
2.62226e-07
3.56348e-07
3.28825e-07
2.27617e-07
3.64893e-07
3.40228e-07
3.42356e-07
2.89929e-07
2.40158e-07
5.30685e-07
4.97181e-07
3.59894e-07
5.46276e-07
4.11466e-07
2.79223e-07
4.45179e-07
2.39513e-07
1.80827e-07
3.64813e-07
3.37688e-07
3.46935e-07
3.55138e-07
3.06133e-07
3.19071e-07
3.04443e-07
3.02857e-07
3.62819e-07
2.72532e-07
2.3388e-07
3.03419e-07
3.51904e-07
2.87665e-07
2.59961e-07
4.04723e-07
3.931e-07
3.49563e-07
4.02045e-07
2.98358e-07
4.09002e-07
3.27577e-07
1.86482e-07
2.64373e-07
2.50753e-07
1.43118e-07
2.61752e-07
2.31258e-07
2.30211e-07
2.23828e-07
1.84992e-07
3.95686e-07
3.60576e-07
2.42419e-07
4.0871e-07
3.12769e-07
2.01315e-07
3.57953e-07
1.93199e-07
1.25665e-07
2.7876e-07
2.31445e-07
2.39366e-07
2.76964e-07
2.12069e-07
2.2895e-07
2.44002e-07
2.1438e-07
2.59728e-07
2.24213e-07
1.89133e-07
2.28273e-07
2.57811e-07
2.32889e-07
1.95608e-07
2.8645e-07
2.89807e-07
2.55618e-07
3.09297e-07
2.20076e-07
2.88236e-07
2.62336e-07
1.41259e-07
2.02097e-07
2.06484e-07
1.03052e-07
2.0234e-07
1.65183e-07
1.57241e-07
1.75343e-07
1.50507e-07
3.05683e-07
2.60714e-07
1.67551e-07
3.18199e-07
2.41639e-07
1.47983e-07
2.95358e-07
1.67477e-07
9.37041e-08
2.24593e-07
1.7033e-07
1.68838e-07
2.30382e-07
1.60591e-07
1.72793e-07
2.07626e-07
1.66865e-07
1.91376e-07
1.95012e-07
1.6938e-07
1.88051e-07
1.95539e-07
2.01755e-07
1.64714e-07
2.11862e-07
2.23699e-07
1.95627e-07
2.43382e-07
1.69153e-07
2.03469e-07
2.13694e-07
1.17035e-07
1.58737e-07
1.78903e-07
8.73792e-08
1.65235e-07
1.25456e-07
1.15099e-07
1.36369e-07
1.2069e-07
2.50496e-07
1.89168e-07
1.19249e-07
2.60452e-07
1.89554e-07
1.10152e-07
2.45398e-07
1.5056e-07
7.51812e-08
1.8891e-07
1.38812e-07
1.24334e-07
1.97162e-07
1.348e-07
1.37791e-07
1.84664e-07
1.43864e-07
1.48112e-07
1.71139e-07
1.62203e-07
1.68497e-07
1.55252e-07
1.83534e-07
1.53558e-07
1.62854e-07
1.84585e-07
1.58572e-07
1.93179e-07
1.37301e-07
1.44797e-07
1.69885e-07
1.04833e-07
1.26396e-07
1.53307e-07
8.37503e-08
1.37161e-07
9.94894e-08
9.73109e-08
1.07997e-07
9.25687e-08
2.16599e-07
1.41575e-07
8.76634e-08
2.21858e-07
1.49779e-07
8.47533e-08
1.99305e-07
1.3617e-07
6.72257e-08
1.64509e-07
1.27134e-07
9.77093e-08
1.67499e-07
1.21286e-07
1.1718e-07
1.67428e-07
1.32478e-07
1.23173e-07
1.46094e-07
1.57833e-07
1.60637e-07
1.30146e-07
1.70967e-07
1.53036e-07
1.29762e-07
1.63584e-07
1.40576e-07
1.5364e-07
1.18722e-07
1.05336e-07
1.29437e-07
9.86518e-08
1.01537e-07
1.24369e-07
8.54127e-08
1.12683e-07
8.13753e-08
9.84511e-08
9.29778e-08
7.23327e-08
1.94835e-07
1.15669e-07
7.16725e-08
1.91406e-07
1.23181e-07
7.5391e-08
1.59967e-07
1.2409e-07
7.03122e-08
1.44788e-07
1.27405e-07
8.68077e-08
1.41142e-07
1.13632e-07
1.05541e-07
1.49581e-07
1.25635e-07
1.12968e-07
1.22197e-07
1.48956e-07
1.57517e-07
1.15463e-07
1.59376e-07
1.58281e-07
1.08057e-07
1.51909e-07
1.3817e-07
1.22669e-07
1.12172e-07
8.51901e-08
9.68693e-08
9.77581e-08
8.48866e-08
9.56442e-08
9.17048e-08
9.4673e-08
7.19579e-08
1.1196e-07
8.81228e-08
6.56531e-08
1.79213e-07
1.03192e-07
7.1933e-08
1.66552e-07
1.08065e-07
8.43284e-08
1.31257e-07
1.16827e-07
8.41168e-08
1.25324e-07
1.30879e-07
8.76527e-08
1.18544e-07
1.10492e-07
9.98284e-08
1.33289e-07
1.1959e-07
1.11688e-07
1.06677e-07
1.3325e-07
1.532e-07
1.06223e-07
1.42499e-07
1.62313e-07
9.46275e-08
1.39202e-07
1.42669e-07
1.00389e-07
1.1152e-07
8.3254e-08
7.81272e-08
1.01932e-07
8.16693e-08
7.72776e-08
1.03005e-07
8.90938e-08
7.20138e-08
1.27671e-07
8.87283e-08
6.84612e-08
1.62914e-07
9.60723e-08
7.91618e-08
1.44435e-07
9.83715e-08
1.00433e-07
1.14074e-07
1.13117e-07
1.03918e-07
1.06589e-07
1.32206e-07
9.74789e-08
1.03932e-07
1.13857e-07
1.00132e-07
1.24163e-07
1.15115e-07
1.12979e-07
1.04428e-07