/*--------------------------------*- C++ -*----------------------------------*\
  =========                 |
  \\      /  F ield         | OpenFOAM: The Open Source CFD Toolbox
   \\    /   O peration     | Website:  https://openfoam.org
    \\  /    A nd           | Version:  10
     \\/     M anipulation  |
\*---------------------------------------------------------------------------*/
FoamFile
{
    format      ascii;
    class       volVectorField;
    location    "14";
    object      U;
}
// * * * * * * * * * * * * * * * * * * * * * * * * * * * * * * * * * * * * * //

dimensions      [0 1 -1 0 0 0 0];

internalField   nonuniform List<vector> 
25600
(
(0.00468655 2.66282e-06 -0.000170662)
(0.00447561 -3.6515e-06 -0.000182255)
(0.00442933 -1.26684e-06 -0.000326792)
(0.00455941 4.87881e-06 -0.000108503)
(0.00466745 5.86899e-06 -1.85788e-05)
(0.00465672 2.73966e-06 -2.71483e-05)
(0.00457999 -3.42111e-06 -7.16318e-05)
(0.00442063 -8.65079e-07 -0.000279108)
(0.00462538 5.08612e-06 -0.000137742)
(0.00467647 6.06664e-06 -5.24617e-05)
(0.00476644 2.48465e-06 -0.000174687)
(0.00457533 -3.65641e-06 -0.000121991)
(0.00446339 -9.93023e-07 -0.000273564)
(0.0045554 4.08518e-06 -7.76088e-05)
(0.004601 5.20377e-06 1.60982e-05)
(0.00461339 3.25883e-06 -0.000137884)
(0.0045508 -2.79367e-06 -0.000194197)
(0.00442014 -8.42316e-07 -0.000310414)
(0.0046517 5.26918e-06 -0.000173875)
(0.00461493 4.47017e-06 1.35535e-05)
(0.0046401 2.25427e-06 -3.99034e-05)
(0.00450977 -3.52036e-06 -5.2814e-05)
(0.00434052 1.60128e-07 -0.000164411)
(0.00454933 6.04596e-06 -1.34813e-05)
(0.00461484 6.90978e-06 -7.57717e-06)
(0.00465882 2.85194e-06 -0.000126481)
(0.00452025 -3.38827e-06 -0.000116647)
(0.00442205 -6.18998e-07 -0.000215152)
(0.00455605 6.00098e-06 -7.28627e-05)
(0.00463043 6.62743e-06 -8.26762e-05)
(0.00458229 2.56045e-06 -0.000111249)
(0.00451521 -3.30642e-06 -8.91348e-05)
(0.00437334 -4.62936e-07 -0.000204199)
(0.00454947 6.46716e-06 -0.000102291)
(0.00461393 7.54376e-06 -4.20714e-05)
(0.0046364 3.65072e-06 -0.000216479)
(0.00454498 -3.24608e-06 -0.000200056)
(0.00444254 -1.49102e-06 -0.000307613)
(0.00462183 4.58676e-06 -0.000169816)
(0.00462746 6.21988e-06 -4.49357e-05)
(0.0144134 2.83518e-05 -0.000529629)
(0.0137642 -2.43398e-05 -0.000456894)
(0.0135219 8.37995e-06 -0.000839882)
(0.0138947 5.91203e-05 -0.000291565)
(0.0142805 6.2328e-05 -0.000144446)
(0.0143098 2.60958e-05 -0.000109337)
(0.0140729 -2.63019e-05 -0.000152304)
(0.0134989 1.1329e-05 -0.000729923)
(0.014112 5.95488e-05 -0.000390969)
(0.0143209 6.2566e-05 -0.000244604)
(0.0146521 2.42401e-05 -0.000527409)
(0.0140644 -2.7775e-05 -0.000281095)
(0.0136354 7.88659e-06 -0.00069835)
(0.013901 5.14299e-05 -0.000194005)
(0.0140851 6.15692e-05 -4.65723e-05)
(0.0141732 3.62001e-05 -0.000452085)
(0.0139813 -1.72947e-05 -0.000492496)
(0.0134843 1.30519e-05 -0.000790506)
(0.0141931 5.73349e-05 -0.000478715)
(0.0141449 4.95054e-05 -3.33585e-05)
(0.0142605 2.28317e-05 -0.000143065)
(0.0138538 -2.18853e-05 -8.29273e-05)
(0.0132377 2.00493e-05 -0.000372802)
(0.0138685 6.75487e-05 -3.71428e-05)
(0.0141332 7.0778e-05 -0.000142597)
(0.0143245 2.81779e-05 -0.000395663)
(0.0138871 -2.20065e-05 -0.000242543)
(0.0134907 1.49527e-05 -0.000519231)
(0.0138844 7.1937e-05 -0.000247356)
(0.0141886 7.10668e-05 -0.000349645)
(0.0141044 2.71122e-05 -0.000320686)
(0.01388 -2.39165e-05 -0.000169799)
(0.0133341 1.64471e-05 -0.000507722)
(0.0138505 7.44427e-05 -0.000309111)
(0.0141239 7.78669e-05 -0.000225095)
(0.0142701 3.40118e-05 -0.000659626)
(0.0139898 -2.59136e-05 -0.000495034)
(0.0135714 3.22024e-06 -0.000793967)
(0.014089 5.77052e-05 -0.000483172)
(0.0141591 6.90188e-05 -0.000230375)
(0.0248298 7.80213e-05 -0.000940318)
(0.0237342 -5.67978e-05 -0.000640107)
(0.0231364 4.14094e-05 -0.00121376)
(0.0237164 0.000172493 -0.000470209)
(0.0244706 0.000171251 -0.000385056)
(0.0246243 7.27608e-05 -0.000265701)
(0.0242429 -6.44113e-05 -0.000147893)
(0.0231042 4.71892e-05 -0.00104775)
(0.0241081 0.00017069 -0.00063799)
(0.0245507 0.000170333 -0.00052986)
(0.0252223 6.69154e-05 -0.000928163)
(0.0242492 -6.88478e-05 -0.000360205)
(0.0233559 3.61965e-05 -0.000993953)
(0.0237654 0.000149854 -0.000297248)
(0.0241517 0.000171537 -0.000197641)
(0.0243818 0.00010263 -0.000820303)
(0.0240771 -3.76795e-05 -0.000699144)
(0.0230532 5.46393e-05 -0.00111808)
(0.0242493 0.000163717 -0.000772732)
(0.0242831 0.000136047 -0.000189115)
(0.0245417 6.41521e-05 -0.000306371)
(0.0238758 -5.10002e-05 -3.61787e-05)
(0.0226413 7.06504e-05 -0.000450605)
(0.0236737 0.000192908 -5.49191e-05)
(0.024233 0.000192394 -0.000388358)
(0.0246631 7.83676e-05 -0.000724431)
(0.0239233 -4.99224e-05 -0.000269633)
(0.0230766 5.82398e-05 -0.000679837)
(0.0237023 0.000205432 -0.000444446)
(0.0243517 0.000194278 -0.000732693)
(0.0243047 7.68426e-05 -0.000573094)
(0.0239167 -5.6415e-05 -0.000154618)
(0.0228002 6.15073e-05 -0.000681992)
(0.0236278 0.000210975 -0.000523165)
(0.024216 0.000210253 -0.000501892)
(0.0245871 9.17269e-05 -0.00114654)
(0.024128 -6.39709e-05 -0.000695666)
(0.0232332 2.4505e-05 -0.00113873)
(0.0240624 0.000167338 -0.000791494)
(0.0242698 0.000189768 -0.000524443)
(0.0359237 0.000163078 -0.00145799)
(0.0344091 -8.71483e-05 -0.000760032)
(0.0332285 0.000101928 -0.00141548)
(0.0339428 0.000343117 -0.000615727)
(0.0351792 0.000333407 -0.000741713)
(0.0355742 0.000155098 -0.000575305)
(0.0351012 -0.000106636 -7.4302e-05)
(0.0331945 0.000108741 -0.00117438)
(0.0345342 0.000332911 -0.000834993)
(0.0353047 0.000328835 -0.000889232)
(0.0364521 0.000142389 -0.00143998)
(0.0351542 -0.00011328 -0.000396713)
(0.0335933 8.66732e-05 -0.00112623)
(0.0340852 0.000296617 -0.000362137)
(0.0347542 0.000333272 -0.000408424)
(0.0352133 0.000213861 -0.00127687)
(0.0348454 -4.96852e-05 -0.000843339)
(0.0330712 0.000129796 -0.00124933)
(0.0347358 0.00032323 -0.00102297)
(0.0349872 0.000266713 -0.000467179)
(0.0354586 0.000136994 -0.00059542)
(0.0346049 -7.95209e-05 5.04288e-05)
(0.0325187 0.000153763 -0.000366658)
(0.0338822 0.000377614 -9.70963e-06)
(0.0348566 0.000369967 -0.000710276)
(0.0356546 0.000165507 -0.00118268)
(0.0346461 -7.42262e-05 -0.000245574)
(0.0331412 0.000130035 -0.000647098)
(0.0339317 0.00040082 -0.000595033)
(0.0350773 0.00037675 -0.00122528)
(0.0351686 0.00016506 -0.000956202)
(0.0346413 -8.96553e-05 -7.8893e-05)
(0.0327346 0.000133643 -0.000672523)
(0.0338036 0.000408078 -0.000689937)
(0.0348399 0.000399442 -0.000844181)
(0.0355683 0.000186907 -0.00172671)
(0.0349727 -0.000103653 -0.000840707)
(0.0333836 6.48992e-05 -0.0012947)
(0.0344696 0.000328465 -0.00105094)
(0.0349084 0.000368263 -0.000914689)
(0.0476224 0.000299161 -0.0021555)
(0.0457874 -9.3177e-05 -0.000911403)
(0.0437427 0.000191424 -0.00141734)
(0.0444614 0.000560401 -0.000633954)
(0.0462932 0.000544374 -0.00115654)
(0.0470749 0.000291197 -0.00113823)
(0.046627 -0.000132592 -2.48931e-05)
(0.0437122 0.000194414 -0.00106042)
(0.0452766 0.000530761 -0.000874667)
(0.046466 0.000530802 -0.00124951)
(0.0482519 0.000267346 -0.00213672)
(0.046769 -0.000137929 -0.000491801)
(0.0442995 0.000159788 -0.00107088)
(0.0447664 0.000479705 -0.000307631)
(0.0457977 0.000538497 -0.000601706)
(0.0465888 0.000384371 -0.00186972)
(0.046267 -3.06307e-05 -0.00102193)
(0.0434668 0.0002412 -0.00114974)
(0.0455242 0.000528389 -0.00112549)
(0.0461591 0.000440737 -0.00082394)
(0.0469299 0.000257249 -0.00109582)
(0.0460402 -8.87029e-05 7.31692e-05)
(0.0428344 0.000267435 -0.000104785)
(0.0443826 0.000606961 0.000214608)
(0.0458915 0.000596295 -0.00101514)
(0.0472222 0.000306101 -0.00185326)
(0.0460456 -7.36508e-05 -0.000291237)
(0.0436374 0.000226045 -0.000379809)
(0.0444615 0.000640335 -0.000559085)
(0.0462671 0.000609684 -0.00176485)
(0.0466289 0.000309204 -0.00157926)
(0.0460455 -0.000102742 -4.72471e-05)
(0.0430932 0.000228341 -0.000433102)
(0.044269 0.000644533 -0.000692352)
(0.04589 0.000632313 -0.00117143)
(0.0471354 0.000332727 -0.00246068)
(0.0465057 -0.000120811 -0.00103454)
(0.0439619 0.000125299 -0.00122293)
(0.0452031 0.000524489 -0.00115133)
(0.0459696 0.000595564 -0.00133409)
(0.0597827 0.000498739 -0.0030694)
(0.0578409 -4.28076e-05 -0.00126758)
(0.054635 0.000313274 -0.00124779)
(0.0551447 0.000805455 -0.00037506)
(0.0576452 0.000788122 -0.00145849)
(0.0589769 0.000498 -0.00201953)
(0.0587662 -0.00010789 -0.000191142)
(0.0546051 0.000305344 -0.000723184)
(0.0562013 0.000740507 -0.000598214)
(0.057864 0.000755216 -0.00143424)
(0.0604595 0.00045541 -0.00304755)
(0.0590416 -0.000109022 -0.000819696)
(0.0554277 0.00025955 -0.000862647)
(0.0556978 0.000678631 -1.11562e-05)
(0.0571402 0.000767425 -0.000612916)
(0.0583722 0.000624484 -0.00260912)
(0.0582991 5.25925e-05 -0.00140945)
(0.0541779 0.000393754 -0.000850492)
(0.0564535 0.000767338 -0.000912658)
(0.0576439 0.00064907 -0.00110503)
(0.0588112 0.000440307 -0.00186333)
(0.0581436 -4.97769e-05 -0.000148977)
(0.0535715 0.000411594 0.000280387)
(0.0550552 0.000856124 0.000771344)
(0.0571697 0.000851877 -0.00110188)
(0.0592251 0.000512669 -0.0027696)
(0.0580811 -1.39797e-05 -0.000612961)
(0.0545321 0.000346614 8.92442e-05)
(0.0551599 0.000895004 -0.000137793)
(0.0577637 0.000869106 -0.00217206)
(0.0585597 0.00052246 -0.00251519)
(0.0580952 -6.19865e-05 -0.000252531)
(0.0538496 0.000345376 1.66042e-05)
(0.0548975 0.000887535 -0.000363998)
(0.057203 0.000880779 -0.00130294)
(0.0591435 0.000536176 -0.00336293)
(0.0586768 -8.12706e-05 -0.00145668)
(0.0549134 0.000210916 -0.000949125)
(0.0561321 0.000729473 -0.000928243)
(0.0572918 0.000848664 -0.00161117)
(0.0721574 0.000752049 -0.00409445)
(0.0704815 9.82051e-05 -0.00203913)
(0.0658858 0.000482737 -0.0010666)
(0.0658636 0.0010548 0.000297406)
(0.0690039 0.00102731 -0.00131943)
(0.0710422 0.000771996 -0.00313356)
(0.0714006 9.34958e-06 -0.000825082)
(0.065839 0.000459258 -0.00033112)
(0.0671637 0.000935639 0.000132743)
(0.0692672 0.000957991 -0.00112728)
(0.0728118 0.000697807 -0.00405152)
(0.0718427 1.24324e-05 -0.00158366)
(0.0669377 0.000404001 -0.000664156)
(0.0667588 0.000870694 0.000623892)
(0.0685851 0.000977145 -0.000165988)
(0.0703441 0.000922173 -0.0033701)
(0.0708495 0.000231793 -0.00221149)
(0.065173 0.000605956 -0.000532853)
(0.0673366 0.00102629 -0.000221418)
(0.0692185 0.00086627 -0.00100024)
(0.070871 0.000686305 -0.00281897)
(0.0708017 7.64031e-05 -0.000833161)
(0.064738 0.000597596 0.000589811)
(0.0657921 0.00109766 0.00176749)
(0.0684606 0.00109265 -0.000629229)
(0.0714322 0.000773717 -0.00379981)
(0.0706486 0.000142893 -0.00145481)
(0.0658182 0.000508446 0.00056045)
(0.0658884 0.00112749 0.000848853)
(0.0693342 0.00110487 -0.0020989)
(0.0707487 0.000793149 -0.00368512)
(0.0706966 7.28827e-05 -0.000940508)
(0.0650094 0.000500771 0.00050818)
(0.0655601 0.00109812 0.000441244)
(0.0685462 0.0010869 -0.000922088)
(0.0713498 0.000776649 -0.00429472)
(0.0713717 5.04948e-05 -0.00231356)
(0.0662035 0.00034246 -0.000643532)
(0.0671095 0.000915526 -0.000233278)
(0.0686466 0.00108059 -0.0014299)
(0.0843611 0.00100254 -0.00485768)
(0.0834988 0.00034049 -0.00332978)
(0.0774951 0.000734666 -0.00120743)
(0.0765238 0.00130102 0.00134758)
(0.0800843 0.00120114 -0.000297903)
(0.0829223 0.00106382 -0.00410051)
(0.0842944 0.000238827 -0.00208715)
(0.0773939 0.000698704 -0.00025403)
(0.0780433 0.00111192 0.00127534)
(0.0804018 0.00107245 7.36996e-05)
(0.0849193 0.000938451 -0.00475753)
(0.0849123 0.000244743 -0.00287437)
(0.0787847 0.000630673 -0.000798145)
(0.0778427 0.00105451 0.00152627)
(0.0798979 0.0011077 0.00106671)
(0.0821724 0.00122096 -0.00378186)
(0.0837263 0.000512469 -0.00351367)
(0.0764617 0.000910957 -0.000578876)
(0.0779954 0.00130137 0.000940752)
(0.0805964 0.00104651 -8.21017e-05)
(0.0827704 0.000959975 -0.00361949)
(0.0837693 0.000304838 -0.00209557)
(0.0763454 0.000854584 0.000451112)
(0.0765358 0.00131934 0.00309245)
(0.0794893 0.00125375 0.000818632)
(0.0834946 0.00102877 -0.00451627)
(0.0835238 0.000408562 -0.00293796)
(0.0775078 0.000748893 0.000615409)
(0.0765487 0.00132271 0.00238196)
(0.0806694 0.00123489 -0.00106454)
(0.0828678 0.00105718 -0.00471561)
(0.0836353 0.000314788 -0.00226698)
(0.076606 0.000733514 0.000674215)
(0.0761732 0.0012667 0.0016927)
(0.0796312 0.00117173 0.000373053)
(0.0833779 0.000980418 -0.0048426)
(0.0843565 0.000281442 -0.00368474)
(0.0778151 0.0005628 -0.000664105)
(0.0780076 0.00107715 0.000907777)
(0.0797504 0.00121752 -0.000374115)
(0.0958495 0.00113256 -0.00467902)
(0.0964728 0.000632483 -0.00490584)
(0.0894225 0.00108642 -0.00206347)
(0.0871116 0.0015726 0.00236579)
(0.0906175 0.00124883 0.00190749)
(0.0941464 0.00126239 -0.00419096)
(0.0970267 0.000537184 -0.00378075)
(0.0892059 0.00106669 -0.000949241)
(0.0887882 0.0013138 0.00240768)
(0.0910331 0.00103816 0.00239778)
(0.0962565 0.0010606 -0.00447652)
(0.0977943 0.000541466 -0.00444293)
(0.0908624 0.000967442 -0.00163184)
(0.0888741 0.00126796 0.0022969)
(0.0908802 0.00110283 0.00322513)
(0.0933986 0.00140719 -0.00321471)
(0.0965581 0.000840044 -0.00504372)
(0.0880546 0.00132814 -0.00144986)
(0.0883319 0.00161608 0.00217041)
(0.0914801 0.00113957 0.00194992)
(0.0940551 0.00117557 -0.00360657)
(0.0966105 0.00059629 -0.00372198)
(0.0883286 0.00121327 -0.000548564)
(0.0873043 0.00154556 0.00423186)
(0.0900294 0.00127047 0.00345007)
(0.0949277 0.00115426 -0.00416856)
(0.0962962 0.000726885 -0.00479835)
(0.0895559 0.00110523 -0.000257215)
(0.0871508 0.00151394 0.00400332)
(0.0914484 0.00117751 0.00129313)
(0.0944458 0.00118165 -0.00488069)
(0.0965014 0.000607554 -0.00404652)
(0.0886225 0.00108283 5.22712e-05)
(0.0867591 0.00143933 0.00298233)
(0.0902082 0.00106905 0.00281795)
(0.0946922 0.00100977 -0.00429421)
(0.0971975 0.000542391 -0.00528236)
(0.089689 0.000904662 -0.00143658)
(0.0887763 0.00125658 0.00209686)
(0.0903422 0.00119125 0.00182989)
(0.105996 0.000990546 -0.00281865)
(0.108692 0.000838865 -0.00603882)
(0.101447 0.00149084 -0.00373283)
(0.0976703 0.00191434 0.00254387)
(0.10054 0.00116748 0.00496092)
(0.104181 0.00121765 -0.00257792)
(0.108936 0.000772396 -0.00515159)
(0.101033 0.00153115 -0.00258227)
(0.0993851 0.00161458 0.00271257)
(0.101142 0.000867497 0.00542472)
(0.10625 0.000917965 -0.00249636)
(0.109785 0.000765549 -0.00554977)
(0.102885 0.00138064 -0.0032398)
(0.0997677 0.001565 0.00222215)
(0.101503 0.000961325 0.0058573)
(0.103527 0.00133541 -0.00105972)
(0.108705 0.00107337 -0.00602423)
(0.0998321 0.00180382 -0.0032824)
(0.0983584 0.00199969 0.00260068)
(0.101705 0.00113213 0.00479356)
(0.10422 0.00120828 -0.0020444)
(0.108658 0.000850868 -0.00500378)
(0.100411 0.00164012 -0.00249388)
(0.0981153 0.00182411 0.00428995)
(0.100095 0.00113613 0.00676411)
(0.105178 0.000992585 -0.00198378)
(0.108311 0.000950475 -0.00620694)
(0.101701 0.00154278 -0.00225067)
(0.0977998 0.0017689 0.0047535)
(0.10155 0.00093194 0.00469622)
(0.104906 0.000995816 -0.00333876)
(0.108628 0.000804269 -0.00555783)
(0.10082 0.00151645 -0.00155812)
(0.0974167 0.00169644 0.00349081)
(0.100286 0.000801284 0.00600094)
(0.104687 0.00070733 -0.00192893)
(0.109183 0.000663188 -0.00629819)
(0.101577 0.00132173 -0.00308259)
(0.0994318 0.00152695 0.00253275)
(0.100378 0.00100794 0.00484776)
(0.114472 0.000520523 0.000809942)
(0.11918 0.000768339 -0.00572051)
(0.112983 0.00181351 -0.00561335)
(0.108107 0.00230304 0.00115016)
(0.110111 0.00104648 0.00752821)
(0.112751 0.00085821 0.000893683)
(0.119153 0.000746469 -0.00508858)
(0.112322 0.00194831 -0.00457316)
(0.109678 0.00201974 0.00145627)
(0.11096 0.000682724 0.00779978)
(0.114652 0.000463753 0.00116911)
(0.119982 0.000721015 -0.00519279)
(0.114255 0.00173985 -0.00502462)
(0.110272 0.00193739 0.000718691)
(0.111882 0.000778189 0.007715)
(0.112374 0.000947792 0.00257152)
(0.119259 0.00101917 -0.00543181)
(0.111347 0.00219579 -0.00541972)
(0.108098 0.00240385 0.00136382)
(0.111353 0.00106725 0.00717301)
(0.112995 0.000980228 0.00117134)
(0.119059 0.000907304 -0.00493681)
(0.111999 0.00202031 -0.00474225)
(0.108761 0.00214965 0.00252766)
(0.109968 0.000947079 0.00926417)
(0.113974 0.000485818 0.00201949)
(0.118685 0.000871123 -0.00600418)
(0.11332 0.00191732 -0.00474571)
(0.108448 0.00210891 0.00365891)
(0.111226 0.000628572 0.00779318)
(0.113876 0.000435312 0.000126051)
(0.119113 0.000692607 -0.00571931)
(0.11258 0.00188834 -0.00365596)
(0.10807 0.00206301 0.00243463)
(0.110196 0.000529597 0.00855024)
(0.113131 4.96676e-05 0.00218555)
(0.119357 0.000424885 -0.00566324)
(0.112875 0.00164902 -0.0049943)
(0.109859 0.00189382 0.00146192)
(0.110136 0.000789401 0.00740384)
(0.121789 -8.38012e-05 0.0048661)
(0.127118 0.000338012 -0.00346153)
(0.12304 0.00187027 -0.00650411)
(0.117973 0.00258656 -0.00155383)
(0.119481 0.00097445 0.00785708)
(0.120344 0.000347507 0.00484674)
(0.126955 0.000358566 -0.00299992)
(0.122201 0.00210813 -0.00565491)
(0.119207 0.00237125 -0.00109493)
(0.120466 0.00061972 0.00788501)
(0.121998 -0.000104183 0.00504865)
(0.12767 0.000319506 -0.00294812)
(0.12406 0.00185226 -0.00581488)
(0.119871 0.00224485 -0.00186863)
(0.12179 0.000667314 0.00737815)
(0.12042 0.000404853 0.00622006)
(0.127406 0.000596691 -0.00285511)
(0.121688 0.00233169 -0.00652348)
(0.117381 0.00267534 -0.00136903)
(0.120464 0.000978759 0.00736234)
(0.120744 0.000573916 0.00474392)
(0.127099 0.000664093 -0.00301783)
(0.122172 0.00220263 -0.00602959)
(0.118683 0.00239606 -0.000691422)
(0.11965 0.000815566 0.00916078)
(0.121777 -0.000171958 0.00623158)
(0.126662 0.000399509 -0.0036166)
(0.123416 0.00202442 -0.00635098)
(0.118594 0.00240277 0.000784746)
(0.120681 0.000434145 0.00866569)
(0.121708 -0.000284361 0.00423368)
(0.12716 0.000175486 -0.00389239)
(0.122899 0.00198497 -0.00506925)
(0.118203 0.00238457 -4.27925e-05)
(0.119999 0.000442352 0.00876228)
(0.120699 -0.000668375 0.00642672)
(0.126982 -0.000224875 -0.00296455)
(0.12263 0.00165771 -0.00593037)
(0.119563 0.00219558 -0.000930194)
(0.119738 0.000677302 0.00783251)
(0.128777 -0.000469571 0.00708965)
(0.132646 -0.000185162 -0.000230456)
(0.130639 0.00158004 -0.00553967)
(0.12657 0.00254657 -0.00397557)
(0.127967 0.000912395 0.0054848)
(0.127714 -7.44478e-06 0.00691624)
(0.13248 -0.000146036 0.00011388)
(0.129846 0.00188323 -0.00487824)
(0.12739 0.0024167 -0.00334784)
(0.128833 0.000649903 0.00540196)
(0.128985 -0.000444013 0.00689663)
(0.133007 -0.000184717 9.08928e-05)
(0.131443 0.00161498 -0.00481524)
(0.127964 0.00226116 -0.00399902)
(0.130243 0.000617675 0.00470633)
(0.128163 6.06079e-07 0.00774141)
(0.133158 6.00029e-05 0.000566389)
(0.129764 0.00212204 -0.00563446)
(0.125776 0.00263166 -0.0039113)
(0.128527 0.000835306 0.00489505)
(0.128065 0.00018113 0.00650599)
(0.132816 0.000274289 -0.000188417)
(0.130014 0.00207429 -0.0054332)
(0.127177 0.00237422 -0.00360448)
(0.12827 0.000738246 0.00615593)
(0.129175 -0.00063093 0.00815099)
(0.132352 -0.000190168 -0.000157932)
(0.131011 0.00173907 -0.00591434)
(0.12739 0.00241337 -0.00224085)
(0.129236 0.000380379 0.00657961)
(0.129054 -0.000764554 0.00662376)
(0.132807 -0.000460705 -0.000903817)
(0.130768 0.00168312 -0.0048286)
(0.127025 0.00241148 -0.0024962)
(0.128767 0.000527151 0.00624858)
(0.12816 -0.00102229 0.00835161)
(0.132362 -0.000890962 0.00055492)
(0.130011 0.00125973 -0.00501259)
(0.127805 0.00217841 -0.0031573)
(0.128408 0.000656557 0.00566148)
(0.134922 -0.000531926 0.0063913)
(0.136563 -0.000374256 0.00196816)
(0.135571 0.00115873 -0.00328168)
(0.13327 0.00209925 -0.00449309)
(0.134354 0.000700966 0.00219125)
(0.134314 -0.000110219 0.00601922)
(0.136456 -0.000347109 0.00213434)
(0.135057 0.00145157 -0.00283028)
(0.133795 0.00203946 -0.00372111)
(0.134938 0.000562281 0.00219828)
(0.134995 -0.000476619 0.00590034)
(0.136698 -0.000378182 0.00192751)
(0.136193 0.00120916 -0.00271414)
(0.134139 0.00188247 -0.00420406)
(0.136031 0.000459608 0.00150996)
(0.134757 -0.00014389 0.00636346)
(0.137111 -0.000199508 0.00268909)
(0.135096 0.0017412 -0.00336823)
(0.132659 0.00220023 -0.00448313)
(0.134597 0.000545522 0.00158922)
(0.134457 -7.33557e-05 0.00553031)
(0.136776 3.33344e-05 0.00162544)
(0.135237 0.00174534 -0.00349281)
(0.133681 0.00198615 -0.00444376)
(0.134596 0.000555532 0.00232444)
(0.135383 -0.000772882 0.00680464)
(0.136447 -0.00044472 0.00208443)
(0.135882 0.00125397 -0.00384648)
(0.134083 0.00200913 -0.00350951)
(0.135546 0.000286017 0.00318924)
(0.135321 -0.000857755 0.00604068)
(0.136732 -0.000737981 0.00127695)
(0.135812 0.00117726 -0.00326494)
(0.133827 0.00202152 -0.00332626)
(0.135154 0.000534167 0.00279248)
(0.1347 -0.000941619 0.00704804)
(0.136342 -0.00107899 0.0026834)
(0.134961 0.000729235 -0.00287826)
(0.134024 0.0017432 -0.00364587)
(0.134813 0.000529695 0.00252544)
(0.138599 -0.000477735 0.00409108)
(0.138884 -0.000257333 0.00214384)
(0.138182 0.000876526 -0.00126262)
(0.137596 0.00150681 -0.00318297)
(0.137968 0.000338481 0.000193737)
(0.138446 -0.000136033 0.00359151)
(0.138837 -0.000243278 0.00210229)
(0.138004 0.00108494 -0.00108258)
(0.137975 0.00147045 -0.00244044)
(0.138329 0.000314496 0.000341567)
(0.13855 -0.000412894 0.00362131)
(0.138791 -0.000272562 0.00183864)
(0.13856 0.000881513 -0.00103485)
(0.138084 0.00135109 -0.00277241)
(0.13883 0.000166143 -0.000194117)
(0.13855 -0.000188673 0.00369331)
(0.139211 -0.000168047 0.0025853)
(0.137909 0.00142596 -0.00138689)
(0.137349 0.00161619 -0.00313938)
(0.138076 0.000153349 -0.000297304)
(0.138387 -0.000241002 0.00322603)
(0.138951 -2.24399e-05 0.00159995)
(0.138061 0.00141741 -0.00170117)
(0.137806 0.00143873 -0.00326303)
(0.138107 0.000233533 7.30426e-05)
(0.138824 -0.000770423 0.00397276)
(0.138834 -0.000369452 0.00210267)
(0.138411 0.000885831 -0.00179698)
(0.138167 0.00141625 -0.00279593)
(0.138857 7.80482e-05 0.000855529)
(0.138927 -0.000769985 0.00376437)
(0.138959 -0.000620668 0.00159482)
(0.138288 0.00079463 -0.00167391)
(0.138019 0.00143009 -0.00245986)
(0.138582 0.000358586 0.000589096)
(0.138604 -0.00071386 0.00422565)
(0.138796 -0.00084257 0.00256023)
(0.137794 0.000414986 -0.00108614)
(0.137913 0.00116745 -0.00247378)
(0.138261 0.000252652 0.00053051)
(0.139588 -0.00041588 0.00211972)
(0.139486 -0.000134324 0.00129537)
(0.139049 0.00070117 -0.000257594)
(0.139428 0.0010513 -0.00157095)
(0.139334 8.41194e-05 -0.000238795)
(0.1397 -0.000171691 0.00162423)
(0.139479 -0.000128292 0.00114247)
(0.139069 0.00080367 -0.000288606)
(0.139662 0.000998455 -0.00101823)
(0.139541 0.000116298 -6.66995e-05)
(0.139546 -0.000365245 0.00186078)
(0.13933 -0.000150537 0.000980201)
(0.139194 0.000635173 -0.000308852)
(0.139661 0.000936798 -0.00124509)
(0.139629 -3.06279e-05 -0.000405579)
(0.139552 -0.000224259 0.00167482)
(0.139551 -0.000105079 0.00149259)
(0.138876 0.00113963 -0.000452267)
(0.13946 0.0011445 -0.00148287)
(0.139404 -7.62839e-05 -0.000577168)
(0.139566 -0.000333231 0.00142326)
(0.13941 -5.56164e-05 0.000787231)
(0.139016 0.00110379 -0.000743915)
(0.139536 0.00100103 -0.00164934)
(0.139422 5.84994e-06 -0.000399463)
(0.139638 -0.000707187 0.00183319)
(0.13942 -0.000270683 0.00113754)
(0.139192 0.000646423 -0.000688562)
(0.139691 0.000947464 -0.00152793)
(0.139827 -6.41845e-05 8.06601e-05)
(0.139823 -0.00064801 0.00181675)
(0.139479 -0.000440319 0.000931721)
(0.138983 0.000563025 -0.000776384)
(0.139591 0.00095791 -0.00119293)
(0.139695 0.000171596 -5.05507e-05)
(0.139745 -0.000530569 0.00200692)
(0.139515 -0.00056493 0.00146856)
(0.13887 0.000284605 -0.000284569)
(0.139476 0.00075126 -0.00108465)
(0.139415 4.2627e-05 -1.98851e-05)
(0.139442 -0.000344641 0.00105091)
(0.139297 -9.52229e-05 0.000610891)
(0.139105 0.000554048 7.62109e-05)
(0.139719 0.000737273 -0.000636862)
(0.139622 -7.7907e-06 -0.000139231)
(0.139615 -0.000184874 0.000646393)
(0.139309 -0.000105077 0.000464452)
(0.139181 0.000576075 -3.45746e-05)
(0.139805 0.000663089 -0.000266298)
(0.139695 2.09442e-05 -9.79783e-06)
(0.139441 -0.000330601 0.000963229)
(0.1392 -0.000101999 0.000398382)
(0.139145 0.000442347 -7.39559e-05)
(0.139794 0.000657287 -0.000422699)
(0.139686 -9.84523e-05 -0.000218857)
(0.139434 -0.000222058 0.000701096)
(0.139258 -0.000107892 0.000698258)
(0.139004 0.000857899 -0.000141356)
(0.139832 0.000806191 -0.000528949)
(0.139668 -0.000126179 -0.000373083)
(0.139509 -0.000326076 0.000541787)
(0.139195 -0.000110582 0.000240017)
(0.139088 0.000816257 -0.000323448)
(0.139813 0.000691176 -0.00066895)
(0.139683 -7.5603e-05 -0.000269949)
(0.139486 -0.000595297 0.000806146)
(0.13923 -0.000226125 0.000455258)
(0.139177 0.000467116 -0.000242049)
(0.139803 0.000638993 -0.000719136)
(0.139829 -0.000105968 -2.27147e-05)
(0.139637 -0.000521681 0.000800399)
(0.139271 -0.000341213 0.000395698)
(0.138995 0.000398861 -0.000373712)
(0.139734 0.000655094 -0.000431066)
(0.139785 6.3211e-05 -8.47289e-05)
(0.13966 -0.000401481 0.00089461)
(0.139396 -0.000418197 0.000681294)
(0.139026 0.000205807 -3.19353e-05)
(0.139662 0.000490016 -0.0003286)
(0.139579 -4.64227e-05 -3.92686e-05)
(0.139233 -0.000263689 0.000572982)
(0.139114 -9.80549e-05 0.000288746)
(0.139028 0.000429199 0.000155986)
(0.139585 0.000501451 -0.000278085)
(0.139588 -3.43391e-05 -5.33245e-05)
(0.139398 -0.000167473 0.000270843)
(0.139129 -0.000121458 0.000195652)
(0.139108 0.000406597 4.54433e-05)
(0.139593 0.000417309 -1.87073e-05)
(0.139581 -2.88596e-05 3.94958e-05)
(0.139249 -0.000292052 0.00055899)
(0.139065 -9.12984e-05 0.000169239)
(0.139046 0.000305815 1.40371e-05)
(0.13959 0.000454629 -0.00012733)
(0.139588 -0.000123887 -0.000105274)
(0.13925 -0.000185305 0.000327249)
(0.139074 -0.00013039 0.000348404)
(0.138971 0.000622102 -3.74003e-05)
(0.139683 0.00055069 -0.000171478)
(0.139611 -0.000126305 -0.000231245)
(0.139329 -0.000266197 0.000205874)
(0.139043 -0.000147576 4.40324e-05)
(0.13901 0.000591548 -0.000140918)
(0.139676 0.000454242 -0.000277386)
(0.139625 -9.72401e-05 -0.000156141)
(0.139307 -0.000463341 0.00040238)
(0.139066 -0.000197446 0.000179796)
(0.139064 0.000335758 -6.95808e-05)
(0.139609 0.00042012 -0.00036757)
(0.139659 -0.000106511 -1.54308e-05)
(0.139404 -0.000404638 0.000378878)
(0.139093 -0.000285861 0.000167217)
(0.13894 0.00028581 -0.000193216)
(0.139572 0.000450618 -0.000142443)
(0.139653 3.34249e-06 -5.45195e-05)
(0.139444 -0.000300105 0.000443803)
(0.139232 -0.000345839 0.000333744)
(0.138986 0.000153271 5.09563e-05)
(0.139516 0.000308423 -6.9947e-05)
(0.139507 -8.10715e-05 -2.06247e-05)
(0.139124 -0.00018404 0.000349281)
(0.139057 -0.000104718 0.000144139)
(0.138991 0.000328805 0.0001503)
(0.139438 0.00033167 -0.000159727)
(0.139477 -4.92716e-05 -2.33358e-05)
(0.139275 -0.000133868 0.000128188)
(0.139066 -0.000136333 0.000100037)
(0.139063 0.00028812 6.11822e-05)
(0.139425 0.000244295 2.89752e-05)
(0.139441 -6.16322e-05 4.28581e-05)
(0.139144 -0.000246676 0.000352927)
(0.139021 -8.55002e-05 8.52473e-05)
(0.139003 0.00021203 4.57688e-05)
(0.139423 0.000311518 -4.28362e-05)
(0.139465 -0.000139915 -6.17354e-05)
(0.139148 -0.000135319 0.000179254)
(0.139034 -0.000143004 0.000197726)
(0.138954 0.000443755 -6.16762e-06)
(0.139507 0.00036683 -6.3037e-05)
(0.139486 -0.000123395 -0.00016335)
(0.139222 -0.000193191 8.30599e-05)
(0.139014 -0.000162745 -1.05512e-05)
(0.138971 0.000426635 -6.92961e-05)
(0.139514 0.000284266 -0.000145138)
(0.139492 -0.000105409 -0.000108523)
(0.139204 -0.000336049 0.000232348)
(0.139026 -0.000168785 7.64883e-05)
(0.139013 0.000245158 -8.72243e-06)
(0.139446 0.000267755 -0.000221563)
(0.139499 -0.000101189 -1.12946e-05)
(0.139273 -0.000297888 0.000199226)
(0.13904 -0.000242857 7.94548e-05)
(0.138925 0.000209139 -0.000112786)
(0.139433 0.000309715 -5.69509e-05)
(0.139507 -3.7107e-05 -4.1285e-05)
(0.139302 -0.000211226 0.000253634)
(0.139165 -0.000295775 0.000185882)
(0.13896 0.000117287 7.23707e-05)
(0.139385 0.000186157 -6.42147e-06)
(0.1394 -0.000102793 -2.05453e-05)
(0.139051 -0.000114032 0.000224861)
(0.139038 -0.000103658 6.50289e-05)
(0.138968 0.000247537 0.000119874)
(0.139312 0.000221262 -0.000111254)
(0.139355 -6.16513e-05 -1.40518e-05)
(0.139187 -9.56835e-05 6.21984e-05)
(0.139039 -0.000138859 5.23574e-05)
(0.13903 0.000202504 5.07237e-05)
(0.139299 0.000133041 2.53222e-05)
(0.139312 -8.11295e-05 3.05684e-05)
(0.139071 -0.000198323 0.000227344)
(0.139002 -7.67636e-05 4.3976e-05)
(0.138972 0.000143474 4.97209e-05)
(0.139296 0.000217747 -1.85136e-05)
(0.139342 -0.00014776 -4.1889e-05)
(0.139072 -8.68717e-05 0.00010585)
(0.139025 -0.0001392 0.000114754)
(0.138941 0.000309508 -3.456e-06)
(0.139359 0.000247381 -2.86372e-05)
(0.139354 -0.000122054 -0.00012244)
(0.13914 -0.000125719 3.11991e-05)
(0.13901 -0.000162341 -2.83177e-05)
(0.138946 0.000304178 -4.52853e-05)
(0.139371 0.000175797 -9.19938e-05)
(0.139351 -0.000107835 -8.65818e-05)
(0.139122 -0.000226764 0.000141783)
(0.139017 -0.000142177 2.44416e-05)
(0.138984 0.000179541 6.60295e-06)
(0.139317 0.000170639 -0.00014715)
(0.139357 -9.59465e-05 -1.4258e-05)
(0.139179 -0.000206323 0.000106333)
(0.139022 -0.00020052 3.64446e-05)
(0.138917 0.000153951 -7.55327e-05)
(0.139319 0.000217852 -3.09409e-05)
(0.139371 -6.41407e-05 -3.41298e-05)
(0.139194 -0.000135189 0.00015389)
(0.139128 -0.000250898 0.000107098)
(0.138942 8.96912e-05 6.80588e-05)
(0.139277 0.000113385 6.69783e-06)
(0.139291 -0.00011779 -2.2259e-05)
(0.13898 -5.9214e-05 0.000147344)
(0.139008 -9.28139e-05 1.91419e-05)
(0.138937 0.00017773 8.83668e-05)
(0.13919 0.000157415 -8.07253e-05)
(0.139236 -7.08681e-05 -1.13181e-05)
(0.1391 -6.12835e-05 2.72689e-05)
(0.139002 -0.000127792 2.33544e-05)
(0.138988 0.000136146 3.41548e-05)
(0.139182 6.94642e-05 1.62479e-05)
(0.139191 -8.93279e-05 1.74759e-05)
(0.139001 -0.000152905 0.000144954)
(0.138971 -6.49065e-05 2.01761e-05)
(0.138932 8.91257e-05 4.28331e-05)
(0.139177 0.000160353 -7.98432e-06)
(0.139225 -0.00014641 -2.9669e-05)
(0.138997 -4.71963e-05 6.30328e-05)
(0.139 -0.000121696 6.37225e-05)
(0.138915 0.00020602 -8.72682e-06)
(0.139222 0.000175672 -1.36893e-05)
(0.139228 -0.000119938 -9.17253e-05)
(0.139057 -7.15971e-05 6.3344e-06)
(0.13899 -0.000148307 -3.33678e-05)
(0.138913 0.000209444 -3.73254e-05)
(0.139236 0.000114557 -6.12743e-05)
(0.13922 -0.000106574 -7.15382e-05)
(0.13904 -0.00014071 8.5729e-05)
(0.138993 -0.00011706 -4.03679e-06)