/*--------------------------------*- C++ -*----------------------------------*\
  =========                 |
  \\      /  F ield         | OpenFOAM: The Open Source CFD Toolbox
   \\    /   O peration     | Website:  https://openfoam.org
    \\  /    A nd           | Version:  10
     \\/     M anipulation  |
\*---------------------------------------------------------------------------*/
FoamFile
{
    format      ascii;
    class       volScalarField;
    location    "30";
    object      nut;
}
// * * * * * * * * * * * * * * * * * * * * * * * * * * * * * * * * * * * * * //

dimensions      [0 2 -1 0 0 0 0];

internalField   nonuniform List<scalar> 
25600
(
7.70118e-11
4.23552e-11
8.4517e-11
4.8368e-11
3.04564e-11
4.49918e-11
3.64418e-11
4.14598e-11
4.72719e-11
1.87422e-11
3.84883e-11
2.042e-11
2.91022e-11
3.06032e-11
2.29135e-11
2.49839e-11
2.15073e-11
1.81683e-11
1.62909e-11
4.02516e-11
5.65599e-11
2.50115e-11
7.1512e-11
4.66644e-11
2.57545e-11
7.83697e-11
1.82499e-11
1.49331e-11
3.39384e-11
5.7547e-11
2.65025e-11
2.60486e-11
2.43706e-11
2.0823e-11
1.88317e-10
1.07026e-10
4.40523e-11
2.29857e-11
1.78613e-11
4.35147e-11
3.49293e-11
2.97693e-13
1.33859e-12
1.01549e-10
1.38687e-11
2.90767e-12
2.18471e-13
6.30057e-13
7.57493e-13
1.04964e-13
9.08866e-14
3.27793e-13
1.24211e-13
5.51539e-13
4.65555e-13
7.89923e-14
3.62429e-13
2.16893e-13
1.74484e-13
2.71996e-13
1.87062e-12
2.35542e-13
1.1918e-11
1.25616e-12
3.91197e-13
1.38814e-11
6.17874e-13
8.0631e-14
4.99614e-13
3.6286e-13
4.87075e-13
2.87816e-13
7.43012e-14
3.2029e-13
1.88454e-10
1.3187e-10
2.60414e-12
1.35453e-12
5.04008e-14
5.93526e-13
5.33842e-11
1.24035e-13
2.44031e-12
8.07902e-14
1.86229e-12
6.25242e-13
1.20911e-13
2.53526e-13
2.8925e-12
1.62994e-13
2.56071e-13
5.97931e-13
3.30079e-13
3.88128e-13
5.64473e-13
1.02807e-13
2.00432e-13
7.84323e-14
2.49484e-13
1.06164e-13
1.7149e-12
4.23725e-13
2.66279e-10
1.16032e-12
3.32366e-13
7.55864e-11
5.30328e-13
3.99579e-13
1.0474e-12
3.95954e-13
3.77113e-13
6.06779e-13
3.57005e-13
2.95287e-13
1.64579e-10
3.12028e-10
1.29941e-10
1.11166e-12
6.98257e-14
8.34081e-13
1.47934e-12
5.98071e-13
8.91758e-13
9.11625e-14
3.60841e-13
1.88352e-13
1.21262e-13
1.6286e-13
3.41706e-11
6.5753e-14
3.02069e-13
1.44915e-13
1.2388e-11
1.78444e-13
5.5583e-14
3.96712e-13
1.52578e-13
8.33077e-14
7.85932e-14
4.12558e-13
6.33789e-11
9.9151e-14
9.58952e-13
1.22077e-13
1.65998e-13
7.70252e-11
4.07379e-13
8.84511e-13
8.80856e-13
1.49447e-13
1.56519e-13
1.40233e-13
3.46304e-13
6.92457e-14
2.40136e-10
2.92639e-10
7.64278e-11
3.08587e-13
1.14458e-13
9.42795e-13
9.65585e-12
9.38317e-13
2.8376e-12
4.7936e-13
1.53445e-13
2.74554e-13
2.91654e-13
2.08096e-13
3.31915e-11
1.36474e-13
5.40954e-13
1.99576e-13
8.37929e-13
1.27537e-12
7.76416e-14
8.6553e-14
6.24583e-14
9.19762e-14
1.33231e-13
5.7436e-13
1.74277e-11
7.31027e-14
1.04343e-12
4.83721e-14
3.8694e-14
1.63818e-10
2.54847e-13
7.30766e-13
2.59995e-11
8.87264e-13
1.74366e-12
1.72134e-13
8.04535e-14
1.23949e-13
3.13834e-10
1.75177e-10
1.37248e-12
5.60574e-13
7.23017e-14
3.19103e-13
6.8321e-11
1.98318e-13
1.6677e-10
6.49097e-11
1.64262e-13
7.68692e-14
5.77969e-13
2.93685e-13
1.92406e-13
1.72996e-13
3.93914e-13
7.66924e-14
2.05833e-14
4.29881e-14
2.22576e-13
6.7797e-13
2.66202e-13
1.52804e-14
1.40086e-13
2.24844e-13
8.33118e-13
5.17825e-11
4.59835e-10
1.08438e-13
4.51401e-13
2.33874e-10
2.00606e-13
2.84641e-13
9.06525e-11
6.09943e-12
1.13035e-12
6.16521e-14
9.87375e-14
1.49643e-13
2.87256e-10
2.0536e-11
8.10611e-13
2.75873e-13
4.35316e-14
4.47592e-13
1.07931e-10
2.3365e-13
3.02243e-10
1.27126e-12
1.06096e-13
8.73283e-14
2.83056e-13
5.08388e-13
5.13773e-13
1.11046e-13
1.51244e-13
2.82646e-13
3.70947e-13
3.06576e-14
2.92261e-13
4.11682e-13
4.1627e-13
1.55683e-13
7.37305e-14
6.96072e-13
5.47473e-10
8.49262e-13
8.75245e-13
5.83424e-13
8.15054e-13
3.74564e-10
5.17578e-13
8.16299e-14
3.08448e-13
8.22403e-13
1.88049e-13
2.19169e-13
5.49893e-13
2.10102e-13
1.32211e-10
1.25564e-10
6.85123e-11
9.00156e-14
3.95073e-14
1.37651e-11
1.76515e-13
5.84266e-13
1.49306e-10
6.35446e-13
1.38139e-13
1.76338e-13
2.23223e-13
1.90237e-12
4.36727e-10
2.01601e-13
7.94499e-13
8.76595e-14
2.89361e-13
1.74866e-13
1.75893e-13
1.46896e-13
4.55355e-13
3.11107e-13
3.5768e-14
5.13154e-12
6.62068e-10
2.3708e-13
2.0972e-13
2.29734e-13
4.46542e-13
6.88048e-10
2.87929e-13
1.01096e-13
1.18764e-13
3.15853e-13
5.83452e-14
1.26075e-12
2.69193e-13
2.5529e-13
1.96636e-10
3.87545e-10
1.32692e-12
2.0395e-13
7.99571e-14
8.95764e-13
4.91118e-13
8.62676e-11
4.00924e-13
2.47135e-13
1.62597e-13
2.06668e-13
6.8003e-14
4.24166e-13
1.56353e-10
2.24747e-13
4.88575e-13
2.33551e-13
1.42242e-14
1.52141e-10
1.20803e-13
3.19618e-14
1.24298e-13
3.96269e-13
1.72713e-14
2.03235e-12
3.30133e-10
7.05839e-13
1.15577e-10
2.01507e-13
1.1829e-13
3.61041e-10
9.29796e-13
4.58085e-14
7.66899e-12
6.02798e-13
3.14722e-13
3.73702e-13
1.7358e-13
1.58957e-13
1.27773e-10
4.84726e-10
1.20194e-13
7.90024e-13
2.24219e-13
5.61105e-13
1.04639e-10
7.1414e-14
2.02697e-13
3.56041e-14
2.08281e-13
2.96257e-13
1.09409e-13
3.54493e-13
5.06814e-11
1.54765e-14
6.41016e-14
2.26163e-13
2.74802e-14
6.82549e-14
3.98179e-14
7.71127e-14
1.01128e-13
2.74128e-13
4.6352e-14
7.79501e-11
9.95372e-10
4.46664e-13
7.55815e-13
2.04095e-10
3.70598e-14
3.40929e-10
2.28015e-11
1.42216e-13
6.27051e-13
2.64196e-10
1.42224e-12
1.86564e-13
2.00017e-13
1.61146e-13
1.29068e-10
2.40361e-10
1.77068e-13
3.64128e-13
1.45026e-13
4.37228e-13
1.13893e-11
1.37092e-13
1.20102e-12
7.89146e-13
9.79089e-13
6.06657e-12
6.55672e-13
4.53469e-11
6.82594e-14
7.48621e-14
3.13711e-13
8.14456e-14
2.02519e-13
1.00373e-13
2.42266e-13
1.66592e-13
9.90123e-14
1.37762e-13
1.09973e-13
2.18878e-10
1.05137e-09
1.11182e-13
2.83976e-13
2.97421e-11
7.34852e-14
2.78604e-10
2.34268e-10
3.17142e-13
2.80627e-13
7.67904e-13
3.27183e-11
2.11484e-13
5.5271e-13
1.35256e-13
3.89218e-10
2.58886e-10
2.6198e-12
1.42231e-13
3.91167e-14
1.67881e-12
3.79047e-10
1.67097e-12
1.16901e-10
2.31134e-13
1.37405e-13
1.42289e-13
1.61349e-13
3.19646e-10
1.33027e-10
1.90686e-14
3.37793e-13
9.49318e-14
1.92191e-13
3.1367e-10
3.1149e-13
4.10341e-14
1.47663e-13
6.40787e-14
7.25247e-14
2.73134e-10
1.67216e-11
6.14763e-14
2.36054e-13
4.56341e-11
9.57916e-14
4.47487e-10
3.86933e-10
3.01197e-13
2.3123e-13
8.25783e-13
2.62974e-13
5.59519e-14
2.5652e-13
6.39705e-13
3.79987e-10
7.75246e-13
4.36992e-13
2.58332e-13
7.5771e-14
2.18192e-12
5.38944e-10
1.0933e-12
9.38097e-11
1.6544e-12
1.59544e-13
6.23589e-14
8.4925e-14
3.45947e-13
2.09659e-10
3.4835e-13
3.59295e-10
5.95077e-13
1.66121e-13
6.89482e-10
1.27389e-12
5.81608e-14
8.7688e-13
5.36064e-14
8.102e-14
7.29611e-13
6.41674e-10
1.02695e-13
3.30067e-10
1.08789e-10
6.65924e-14
2.49154e-11
1.45929e-10
1.37834e-13
2.79192e-13
1.04802e-10
1.25146e-13
2.94795e-13
3.57994e-13
6.20896e-13
2.35806e-10
8.37402e-10
3.07597e-10
3.39336e-13
1.16841e-13
1.5352e-10
8.53851e-11
4.5766e-13
5.66507e-10
1.12255e-13
3.7223e-13
2.42283e-10
8.04435e-14
5.42138e-10
3.36175e-10
2.04594e-13
2.41478e-13
8.46296e-14
1.80439e-13
2.78124e-10
4.76069e-13
6.36462e-14
2.84689e-12
4.40601e-11
5.33012e-14
6.46233e-13
1.52068e-09
1.1424e-13
4.37409e-13
3.69142e-10
5.26069e-13
7.73731e-10
5.53325e-10
1.62221e-13
7.15984e-14
2.57438e-11
1.93369e-10
2.39922e-13
5.06741e-10
2.87475e-10
1.21095e-12
7.2172e-10
1.26806e-10
2.74463e-13
4.69196e-13
6.19151e-10
4.01683e-10
3.1213e-10
4.86982e-10
1.89438e-10
4.206e-13
3.65908e-11
4.17822e-14
2.52651e-13
4.137e-14
1.81238e-13
4.43243e-10
8.45015e-11
5.54922e-13
2.67671e-13
1.85159e-13
5.35239e-10
1.48074e-13
3.12556e-13
9.79719e-14
2.35734e-10
2.62132e-13
2.73123e-13
2.8292e-10
9.3433e-11
6.62309e-13
6.9714e-10
1.24475e-10
2.3922e-13
8.58122e-12
4.26899e-10
3.39767e-12
2.49268e-10
8.04138e-10
2.13271e-13
1.08777e-10
9.3755e-10
1.56087e-12
7.73428e-13
1.51661e-13
1.21323e-13
5.48081e-10
8.61397e-14
7.66429e-11
3.09801e-10
1.03943e-13
4.63858e-13
6.12409e-14
3.68576e-10
6.80073e-10
1.18646e-13
5.62593e-10
4.64819e-12
6.68735e-13
3.63685e-10
6.90405e-12
1.59062e-10
7.27091e-14
8.52819e-10
4.13114e-13
2.769e-13
1.40562e-09
2.16706e-10
4.7789e-13
7.81271e-10
2.56863e-13
5.93023e-10
1.08166e-09
1.23601e-13
4.11353e-13
7.41376e-12
9.24161e-13
2.74146e-10
9.4953e-11
2.11676e-10
4.42958e-13
3.80111e-13
1.12279e-13
2.4706e-13
3.61626e-11
9.71822e-10
2.06309e-13
3.30078e-13
1.35024e-11
1.75283e-10
8.81509e-14
7.2394e-13
1.45666e-13
2.43096e-13
1.58915e-13
6.89732e-14
6.80448e-10
6.07814e-10
4.04251e-10
1.66563e-10
3.98486e-13
3.48066e-13
7.77165e-13
2.80817e-13
1.83082e-13
2.09913e-10
9.95337e-10
1.02987e-13
1.07205e-10
4.80564e-10
3.79924e-13
1.1032e-12
5.95234e-13
8.46881e-14
4.01197e-13
8.08506e-13
4.28888e-12
5.58826e-10
6.89874e-10
4.07525e-14
5.92059e-10
1.37021e-09
3.17266e-10
4.45564e-10
1.32709e-10
1.93379e-13
6.51554e-10
7.68771e-11
4.30136e-12
2.02154e-10
5.07928e-13
2.99245e-10
8.10017e-14
5.09e-13
3.14444e-10
3.75824e-10
5.18688e-10
4.40177e-10
3.01434e-10
1.46869e-13
6.42284e-10
1.30106e-13
1.12982e-13
1.26819e-09
1.58202e-12
1.21837e-13
8.65398e-10
8.23355e-13
2.32601e-13
5.53428e-10
4.34308e-10
1.38813e-09
1.69027e-09
5.23094e-13
9.74143e-13
1.3072e-09
5.35474e-10
9.76473e-13
6.38674e-11
1.18024e-09
3.29662e-10
1.51809e-13
1.8207e-13
2.6494e-13
6.33365e-11
7.55456e-10
2.14822e-12
1.01666e-12
5.85252e-11
1.18093e-14
4.54229e-14
1.03355e-09
4.26832e-13
7.43498e-10
9.63481e-13
3.50434e-13
8.43615e-13
1.79515e-09
4.78794e-10
5.6859e-13
1.60407e-13
1.42742e-13
4.73276e-13
9.95594e-10
1.05647e-13
4.88749e-10
7.08152e-11
1.53741e-12
3.4624e-10
8.0614e-10
1.87102e-10
5.04302e-10
1.14075e-12
2.48832e-13
6.10519e-13
1.63321e-13
1.1251e-13
5.44121e-10
2.61014e-13
1.5784e-14
9.72704e-14
9.06191e-10
3.76693e-10
4.96182e-10
6.9856e-10
1.74116e-12
3.19243e-13
2.37335e-13
1.40702e-09
9.73088e-15
5.13161e-13
1.0348e-09
1.80114e-13
8.57127e-13
2.37381e-10
3.96097e-10
2.28442e-10
8.49237e-10
1.67135e-13
9.13349e-14
1.36863e-10
2.12907e-12
3.69641e-13
3.63978e-13
7.4245e-13
2.43854e-10
4.04668e-10
2.57773e-10
6.42014e-12
2.7818e-11
1.73483e-13
2.18023e-12
3.60475e-10
2.58411e-13
7.00727e-13
9.85064e-10
9.48374e-10
1.66935e-13
4.07253e-13
1.85883e-09
1.38137e-09
2.77734e-13
4.80016e-13
1.05583e-12
5.8302e-13
7.40255e-10
4.63829e-10
8.80463e-10
9.73497e-10
1.18219e-09
8.59037e-10
8.81897e-10
6.93852e-14
5.39828e-10
2.64097e-09
5.33928e-13
1.73279e-12
7.93714e-10
2.97343e-13
5.9352e-13
4.50146e-13
1.46484e-13
1.39968e-10
4.28321e-14
1.34944e-13
1.00986e-12
2.78696e-10
1.00052e-12
7.50172e-11
1.65641e-09
8.93559e-10
1.03789e-09
2.72728e-10
4.41258e-13
2.61115e-10
1.7525e-12
3.76744e-11
1.31544e-09
3.35038e-10
3.37062e-13
3.94112e-13
8.59392e-10
4.4517e-13
6.19866e-13
2.18966e-09
1.23802e-09
7.6683e-13
1.832e-10
1.70279e-10
7.94609e-13
1.99229e-13
1.84443e-13
4.87012e-13
1.45564e-13
3.14026e-13
2.96459e-13
6.89428e-10
1.86618e-09
2.46127e-10
2.71182e-12
5.03383e-12
6.30997e-13
2.10347e-13
2.72669e-13
1.74697e-13
3.82494e-10
1.3245e-09
7.28555e-10
1.64494e-13
1.58788e-13
1.1592e-13
3.43045e-10
1.86501e-10
1.4529e-10
4.27171e-10
2.53073e-13
1.03014e-09
6.81474e-14
3.10715e-13
4.51988e-10
8.3563e-12
1.64824e-13
5.74205e-10
5.0628e-13
1.47949e-13
2.03017e-13
7.87217e-13
6.91005e-10
1.46148e-09
1.28813e-09
6.35605e-10
2.16816e-13
1.90572e-09
1.43079e-09
6.54045e-13
1.00352e-09
2.00322e-09
3.41882e-10
5.50098e-11
1.01017e-09
6.51155e-13
2.28646e-12
8.04073e-10
6.1224e-13
7.3707e-10
4.44628e-10
2.04394e-11
5.24696e-10
1.24447e-09
1.48062e-09
1.12479e-12
5.68828e-13
2.86741e-10
9.27738e-10
1.49309e-09
5.35888e-10
5.36876e-10
1.37413e-09
4.5361e-10
2.26596e-13
3.06564e-13
3.22317e-13
1.34958e-13
1.62574e-12
5.39088e-13
5.51497e-13
1.51573e-09
1.14218e-09
1.09287e-09
6.16087e-13
1.34761e-13
1.14989e-13
4.92443e-10
3.20046e-10
7.14802e-14
3.34588e-13
6.9953e-10
2.18987e-10
1.1338e-13
4.39015e-13
4.80426e-10
1.04376e-10
4.72367e-13
2.62073e-13
9.31509e-12
1.56391e-11
1.33017e-10
1.14484e-09
3.10318e-13
8.09082e-13
2.8129e-10
5.99164e-10
1.93313e-10
8.0599e-10
2.18881e-12
2.84897e-13
8.66873e-10
3.41075e-13
4.06966e-14
6.50475e-11
9.35693e-13
5.98482e-10
4.6999e-10
1.24174e-13
4.30565e-10
2.60074e-09
1.26511e-13
5.08443e-13
4.8854e-13
1.7022e-09
1.91855e-09
1.40872e-12
7.1971e-10
1.67314e-09
7.86352e-13
1.07403e-13
2.16245e-13
2.33699e-13
2.45444e-12
1.42317e-09
1.58253e-09
1.87728e-10
6.53518e-13
7.48393e-10
1.75048e-09
1.66612e-13
4.34175e-10
3.35276e-12
4.70637e-10
2.48577e-09
1.554e-12
8.67585e-14
1.30019e-12
1.38818e-10
1.46683e-09
8.93514e-12
1.16414e-13
7.6743e-10
1.44123e-09
9.91053e-10
1.0316e-12
9.24268e-14
1.83569e-12
2.95131e-10
1.18215e-09
2.30789e-13
3.10251e-13
1.85614e-13
2.06608e-09
1.11895e-09
2.58995e-13
1.36365e-12
2.6092e-09
1.33896e-13
2.89551e-12
2.23022e-09
1.18303e-12
1.26709e-09
4.98492e-13
2.23327e-13
7.65057e-10
8.53673e-14
1.00578e-12
1.29139e-09
1.90707e-13
4.3653e-13
2.37292e-09
7.69195e-10
8.9606e-10
1.05314e-13
1.3135e-13
1.46529e-09
3.21162e-09
1.15538e-09
6.07725e-13
1.79534e-13
3.65777e-10
1.11817e-09
3.11053e-13
3.12516e-14
2.488e-13
2.77966e-11
6.6567e-10
2.46518e-10
2.48986e-10
3.473e-10
3.35078e-13
2.1839e-09
1.17402e-09
6.36605e-13
2.03668e-09
1.18979e-09
3.88392e-13
1.13746e-10
1.60377e-12
9.59999e-10
3.12325e-10
3.28184e-12
5.34432e-10
2.17422e-13
8.34961e-10
8.04472e-10
4.55046e-10
5.27515e-10
3.46269e-13
4.62215e-10
1.62168e-12
2.79016e-13
3.47074e-13
1.31891e-09
1.69966e-09
1.00819e-09
1.01635e-12
6.14975e-13
1.07269e-09
1.49566e-12
2.5247e-13
4.89622e-10
4.1733e-13
3.21533e-09
2.36671e-09
4.29301e-12
1.37004e-11
4.422e-13
2.40189e-09
2.69173e-09
4.62465e-10
2.2242e-09
1.13608e-10
1.21513e-09
3.13503e-13
2.5587e-13
2.88031e-09
2.24011e-09
6.48412e-12
2.90425e-10
3.4439e-14
2.67591e-13
1.12059e-13
1.15608e-11
2.46823e-09
1.16529e-09
2.09868e-13
1.80082e-12
4.78914e-13
8.10843e-13
3.86393e-10
6.65684e-13
1.37019e-12
2.07977e-09
1.84845e-13
2.96983e-13
7.78495e-13
2.21941e-09
1.37333e-09
3.99978e-13
3.78406e-09
2.44757e-13
1.2229e-13
4.88339e-10
1.38625e-12
5.15616e-10
1.27061e-11
4.37167e-10
1.23059e-09
5.82053e-11
8.24621e-10
9.17945e-10
5.8664e-11
3.87567e-10
3.38007e-13
6.81203e-10
6.66129e-10
7.16798e-13
7.09249e-13
4.30609e-13
2.23563e-09
6.58141e-10
1.58503e-13
2.98372e-09
2.81602e-09
1.80026e-13
3.03997e-13
3.91611e-13
3.52219e-13
4.21179e-10
3.29198e-13
2.59619e-13
1.12138e-12
1.48006e-09
3.70173e-10
1.75568e-09
4.29474e-09
1.73592e-12
1.94348e-13
3.14639e-09
2.54438e-13
2.62048e-13
3.50529e-09
1.69818e-12
1.6572e-09
3.255e-13
1.75932e-12
4.66566e-13
1.62136e-10
1.30347e-09
1.75386e-12
2.15008e-13
6.6563e-12
6.91054e-10
1.92348e-09
3.1331e-09
1.27289e-12
8.6858e-13
7.77307e-11
3.86041e-09
1.57445e-09
3.57679e-13
2.49305e-13
3.619e-13
3.24164e-10
2.74514e-10
6.61221e-13
1.48464e-09
3.73104e-10
6.46765e-13
2.02673e-13
5.96067e-13
5.41206e-13
1.57999e-09
2.90261e-12
6.34922e-13
1.40769e-09
7.97158e-13
3.50706e-09
2.04301e-09
2.18721e-13
4.85902e-10
2.20191e-12
3.05748e-12
1.43302e-09
1.88205e-09
4.41833e-13
2.48311e-12
1.45599e-09
6.45724e-14
2.66314e-09
1.12032e-09
7.91284e-13
1.16742e-09
1.36337e-09
3.55051e-12
2.24986e-12
4.40556e-10
6.31467e-10
2.32278e-09
2.16981e-09
2.15343e-09
2.23532e-13
1.26682e-12
2.47778e-09
1.70113e-12
2.43374e-09
3.28908e-09
3.29036e-13
6.10864e-13
2.92609e-09
3.4308e-14
4.67078e-10
4.69586e-09
2.83254e-13
1.67038e-12
3.0168e-09
5.66651e-10
3.1822e-13
3.07678e-13
4.90814e-13
4.92269e-13
1.63733e-09
2.72428e-09
6.05496e-13
7.0458e-13
1.95746e-13
4.53354e-09
3.12106e-10
3.83597e-13
3.71435e-09
8.8244e-13
5.33166e-13
1.19699e-11
1.39303e-09
2.11966e-09
6.18897e-14
1.21128e-13
1.83951e-09
3.01709e-10
3.33055e-13
8.12379e-10
1.00612e-12
6.63405e-09
1.76473e-09
2.14976e-13
8.57415e-10
2.13798e-09
4.63487e-09
3.03426e-12
1.47325e-13
6.71526e-13
3.90861e-12
3.57735e-13
2.25203e-09
2.6583e-09
1.86458e-10
5.47566e-09
7.86836e-10
1.44259e-12
2.6788e-09
5.11753e-09
2.04861e-09
1.37159e-13
4.97314e-13
2.26168e-09
3.07665e-13
1.08758e-09
1.77945e-13
2.04236e-09
2.79351e-10
1.14213e-10
6.30336e-11
1.22091e-10
4.53089e-10
3.09313e-10
2.911e-10
3.23618e-10
3.6656e-10
4.341e-10
2.71243e-10
5.58545e-10
3.66003e-10
1.79296e-10
2.89438e-10
2.60741e-10
4.29668e-10
4.67685e-10
1.91434e-10
1.45647e-10
2.11198e-10
3.46866e-10
1.59851e-10
1.69881e-10
2.37578e-10
3.65972e-10
4.87252e-10
3.90924e-10
3.20034e-10
1.68054e-10
2.18613e-10
2.82831e-10
3.60662e-10
3.23311e-10
1.37912e-10
1.62972e-10
1.33806e-10
3.81083e-10
5.21011e-10
4.35528e-10
2.28587e-10
1.37024e-12
1.63121e-13
7.4314e-11
6.5305e-10
2.36289e-10
1.1297e-10
1.97533e-10
3.62875e-10
3.10346e-10
1.80873e-10
5.25306e-10
3.10864e-10
8.00096e-11
3.38238e-10
1.57052e-10
3.69465e-10
4.17776e-10
1.2153e-10
8.16407e-11
1.20897e-10
2.47346e-10
4.98485e-12
2.13735e-11
1.39933e-10
2.2242e-10
4.40353e-10
2.71506e-10
2.44032e-10
2.00104e-11
1.39469e-10
2.75326e-10
3.52632e-10
2.13784e-10
6.10712e-12
7.94217e-11
4.28689e-12
3.16644e-10
4.15685e-10
3.39052e-10
3.36122e-10
1.93829e-10
1.98336e-12
7.75213e-12
7.64618e-10
4.16134e-10
3.11065e-10
3.507e-10
4.54944e-10
5.07773e-10
2.73548e-10
7.59416e-10
5.16813e-10
1.12038e-10
3.69117e-10
2.69862e-10
4.95085e-10
4.82731e-10
3.35295e-10
1.46811e-10
1.81013e-10
5.63384e-10
1.56117e-10
2.43375e-10
2.48883e-10
4.18211e-10
5.54908e-10
4.48046e-10
3.54915e-10
1.11429e-10
2.20314e-10
3.50048e-10
4.7851e-10
3.98358e-10
2.42114e-11
2.38743e-10
1.74755e-10
3.57946e-10
5.60544e-10
4.74792e-10
3.47295e-10
3.77687e-11
2.30694e-12
2.00992e-12
4.91542e-10
2.52664e-10
2.6199e-10
3.41517e-10
3.97156e-10
5.09591e-10
1.58581e-10
7.7418e-10
5.37268e-10
1.01731e-12
1.83928e-10
2.66596e-10
4.432e-10
3.95905e-10
1.14975e-10
8.01909e-11
1.392e-10
2.56269e-10
1.01654e-12
8.53144e-11
1.66137e-10
3.29104e-10
4.44291e-10
4.69163e-10
2.75394e-10
1.88272e-11
1.10261e-10
2.04547e-10
3.32798e-10
2.69949e-10
1.4357e-13
1.3943e-10
2.44313e-11
2.78533e-10
4.74846e-10
4.02959e-10
4.37299e-10
2.81515e-12
3.70975e-12
3.35998e-12
3.89551e-10
2.56888e-10
2.95931e-10
4.18226e-10
4.86288e-10
4.80495e-10
1.52495e-10
6.98952e-10
2.88945e-10
9.0194e-11
4.59269e-10
3.90991e-10
4.70429e-10
5.3789e-10
4.51094e-11
1.85347e-10
8.69404e-11
3.11483e-10
2.13698e-12
8.69473e-13
1.42514e-10
2.55367e-10
4.62119e-10
3.78526e-10
3.8703e-10
7.49853e-11
1.45436e-10
2.95501e-10
3.85842e-10
2.08356e-10
1.26343e-12
6.1908e-11
4.51168e-12
4.0328e-10
3.40488e-10
3.29911e-10
1.33992e-11
7.38078e-13
2.14776e-12
2.35881e-11
3.73056e-10
9.44589e-11
8.66845e-12
3.26285e-10
4.01452e-10
3.54393e-10
1.95278e-10
5.38362e-10
1.72856e-10
8.69015e-11
1.21219e-10
2.72473e-10
4.5594e-10
5.45694e-10
1.04007e-11
1.19625e-10
2.88096e-12
6.14629e-10
1.91367e-10
9.04358e-13
1.61893e-10
2.91555e-10
4.40455e-10
1.24046e-10
2.94943e-10
1.74134e-11
1.02818e-10
2.78347e-10
3.76399e-10
1.92199e-10
9.14816e-13
6.27225e-13
1.10556e-11
4.14667e-10
1.49529e-10
3.46416e-10
8.50266e-13
2.10846e-12
2.11009e-12
1.93545e-10
9.11668e-10
2.42959e-10
1.02887e-12
2.16832e-10
4.25011e-10
3.08061e-10
1.14224e-10
6.97053e-10
4.74473e-10
1.87446e-10
1.63285e-10
2.96258e-10
6.42834e-10
5.1603e-10
2.77404e-12
8.92433e-11
6.65045e-12
6.41551e-10
1.82499e-11
1.34901e-10
3.43998e-10
1.4605e-11
4.69448e-10
4.00221e-11
1.73593e-10
1.47546e-13
1.07424e-10
1.96002e-10
4.07102e-10
2.95899e-10
1.45046e-12
1.89914e-13
9.45705e-12
5.0206e-10
2.25323e-10
5.80492e-10
1.21679e-11
9.93182e-11
3.27955e-13
1.70679e-12
7.74551e-10
2.75876e-10
1.57406e-10
2.52576e-10
4.71725e-10
3.85073e-10
1.73603e-10
6.04899e-10
2.84942e-10
2.84063e-10
2.67425e-10
2.67821e-10
6.3029e-10
6.31965e-10
5.31227e-12
2.34554e-10
7.80339e-14
2.42999e-10
2.01765e-10
8.06779e-11
3.92098e-10
4.92101e-13
3.10384e-10
1.56057e-12
4.2346e-11
3.1604e-13
2.02475e-10
3.35513e-10
3.25454e-10
2.41569e-10
1.93361e-11
8.17038e-13
7.20111e-11
6.35158e-10
3.83038e-10
4.07681e-10
2.02891e-10
2.44843e-10
1.36957e-13
1.84923e-12
4.16364e-10
7.46886e-11
1.48976e-10
3.09155e-10
1.3382e-10
1.67178e-10
2.4876e-10
3.00736e-10
2.2238e-10
2.19372e-10
8.54064e-11
2.83508e-10
6.67225e-10
5.11017e-10
3.06299e-13
1.04832e-10
2.34807e-13
3.37326e-12
3.95041e-10
9.11718e-13
1.1552e-11
2.18403e-10
4.10858e-10
3.22965e-11
1.5654e-10
6.21035e-11
2.19864e-10
4.71482e-10
2.41074e-10
7.82283e-13
1.84736e-12
9.99668e-11
3.81989e-11
5.19054e-10
3.13573e-10
3.79019e-10
4.35063e-12
1.82663e-12
5.39905e-13
2.51868e-11
3.2969e-10
7.92184e-11
1.96642e-10
4.16789e-10
3.71556e-10
1.16412e-10
7.87216e-13
4.10408e-10
4.21681e-10
2.27272e-10
2.22601e-11
2.40806e-10
6.96182e-10
5.63573e-10
3.96784e-13
1.44072e-10
6.3705e-13
1.04935e-10
2.00996e-10
1.44094e-12
2.48957e-12
4.6139e-10
3.1168e-10
9.58181e-11
2.67254e-10
4.56293e-11
2.25303e-11
3.81665e-10
4.89836e-10
2.17239e-13
3.02373e-13
3.20413e-12
4.73573e-13
4.2257e-10
4.47588e-10
5.32454e-10
2.54726e-12
1.25547e-10
9.12557e-12
6.89463e-11
5.2451e-10
1.25755e-10
9.89984e-12
3.10905e-10
6.4588e-10
5.36391e-10
1.9682e-10
3.67145e-10
4.68778e-10
5.09418e-10
1.6077e-10
3.51184e-10
3.0602e-10
4.61076e-10
2.14149e-10
4.32082e-10
2.58513e-11
4.46605e-10
1.81841e-10
1.41496e-10
2.90774e-10
4.37198e-10
1.73523e-10
2.6237e-10
1.13238e-10
5.87776e-13
3.80029e-11
1.92549e-10
2.14576e-10
1.53255e-11
4.94617e-13
1.76903e-10
1.40297e-10
1.75464e-10
3.25728e-10
6.53321e-10
2.7685e-13
3.85088e-13
1.57944e-13
4.40171e-12
3.61191e-10
3.17402e-10
3.85465e-12
2.06382e-10
3.9096e-10
1.42403e-10
3.19889e-10
2.46722e-10
4.85774e-11
2.50282e-10
1.33842e-11
3.97678e-10
4.78129e-10
1.62003e-10
1.32939e-12
1.35183e-10
2.88286e-13
1.67354e-10
7.40259e-11
2.98547e-10
3.2578e-10
6.19826e-11
6.9841e-11
2.65207e-11
1.373e-12
2.56132e-13
6.90236e-14
2.32796e-10
4.3361e-10
1.27979e-10
3.94595e-13
2.42584e-12
2.69907e-14
5.85722e-10
4.6333e-10
1.0528e-10
1.30227e-13
5.79044e-13
2.46679e-14
1.08111e-10
8.83423e-11
2.032e-10
3.59576e-10
4.62234e-10
3.43521e-10
2.83995e-10
1.25686e-10
2.06803e-10
7.77734e-11
2.93179e-10
1.0587e-12
1.30848e-10
6.60458e-10
3.74778e-13
3.69695e-13
2.26535e-10
1.06397e-10
2.75696e-10
1.28628e-10
3.17119e-10
4.48927e-13
5.31392e-13
1.87031e-10
2.35623e-10
2.2544e-10
3.57703e-13
6.73484e-13
2.73512e-10
3.23686e-11
2.12493e-10
1.59389e-10
2.06727e-14
2.03649e-11
2.13911e-10
1.93534e-10
3.18067e-10
9.99297e-14
1.03764e-13
9.27838e-14
1.789e-13
3.37251e-10
1.77689e-10
4.65668e-10
5.99221e-10
4.02344e-10
5.86332e-10
4.30703e-10
4.84135e-10
1.67899e-10
3.56626e-10
6.43718e-13
5.74952e-10
8.04795e-10
4.0201e-13
4.38947e-10
1.02002e-12
1.37741e-12
5.11813e-10
4.54781e-11
5.62505e-10
1.32306e-12
1.17662e-13
1.34176e-13
1.87826e-10
8.53761e-11
3.04453e-13
1.02709e-13
3.92803e-11
8.30343e-11
1.72925e-10
2.64343e-10
1.02351e-13
1.24456e-13
3.70412e-10
6.60806e-10
2.029e-11
3.08217e-13
1.7185e-10
7.7097e-14
7.67289e-12
4.07721e-10
1.19192e-10
4.5141e-10
5.18415e-10
4.15969e-10
3.59359e-10
1.28072e-12
1.7167e-13
2.27851e-10
1.10468e-10
8.20065e-14
2.88855e-10
4.05619e-10
2.31916e-10
6.57905e-11
2.30817e-13
4.24691e-13
2.39628e-10
4.21782e-14
2.9974e-10
2.42974e-10
1.06013e-10
1.6561e-13
3.59839e-12
1.13823e-12
5.65641e-12
5.63161e-11
1.8226e-10
6.79416e-14
5.11806e-13
9.24217e-11
3.25789e-11
2.36204e-13
6.22965e-10
4.50481e-10
1.3182e-13
2.12144e-10
1.95028e-11
2.29031e-13
6.85633e-13
4.46565e-10
1.52621e-10
7.40323e-10
2.80834e-10
6.54789e-11
2.48489e-10
9.0921e-13
2.71257e-13
1.64492e-10
6.53177e-10
7.95125e-13
1.92145e-13
7.26771e-10
2.64371e-13
6.38984e-13
5.9906e-13
1.85395e-10
7.65729e-10
1.91858e-12
2.33173e-10
1.48724e-13
1.02794e-13
1.73433e-10
9.26859e-10
7.34263e-10
8.9614e-13
4.40821e-13
5.22478e-11
3.83231e-13
4.19384e-13
1.44039e-11
1.2775e-12
2.90812e-13
7.21384e-11
3.29657e-10
8.23027e-10
8.8449e-13
2.00165e-10
4.58777e-11
5.80633e-10
6.0127e-10
1.30155e-10
7.49794e-10
7.09823e-10
1.93905e-11
3.21342e-14
1.73157e-13
8.17963e-14
3.66651e-13
2.1216e-10
1.98985e-13
9.50373e-11
1.84203e-11
2.27272e-13
9.27853e-10
4.75822e-12
5.66549e-14
2.3576e-10
3.62166e-14
1.18231e-10
1.04633e-10
5.14586e-13
6.93796e-11
2.18898e-10
2.27143e-10
1.08959e-12
3.22279e-13
6.26127e-14
2.53532e-13
1.18001e-10
1.62565e-13
3.16756e-13
1.01759e-09
5.0183e-10
2.23985e-10
9.27889e-13
2.62409e-12
1.67679e-10
7.42954e-14
2.43825e-10
3.86759e-10
2.07022e-13
4.05367e-10
1.40336e-10
1.15372e-13
7.11194e-10
1.37362e-10
1.21449e-13
1.82398e-11
1.66778e-10
4.76677e-14
5.8976e-10
1.7746e-09
1.28185e-13
3.24709e-10
5.87188e-10
3.87403e-13
8.87057e-10
1.08328e-13
1.58593e-11
4.2891e-10
5.97453e-14
6.97015e-14
5.87084e-10
4.20426e-10
1.59319e-10
3.40022e-10
7.8659e-11
2.14054e-13
6.70716e-10
1.11092e-09
9.17975e-12
3.67058e-10
6.68439e-13
9.56224e-13
3.28215e-10
4.35551e-13
1.19694e-09
7.97513e-10
6.01962e-10
1.01669e-09
1.5731e-12
2.85914e-10
2.3984e-10
1.95332e-10
5.61725e-10
4.50462e-10
6.87723e-14
1.98614e-13
6.4123e-10
6.13148e-10
8.25172e-11
8.38086e-10
1.61828e-11
1.40698e-12
2.64958e-13
1.08972e-13
2.65708e-10
1.81901e-11
5.90114e-10
4.60838e-10
6.9678e-14
1.21348e-10
1.93918e-10
1.12876e-09
6.92639e-10
3.1798e-13
5.54417e-14
1.87316e-13
1.0292e-12
1.63209e-10
1.34353e-13
2.53065e-14
2.16836e-11
7.57159e-10
4.49585e-13
8.30637e-14
2.63941e-14
1.01526e-13
6.60085e-13
3.0318e-13
2.87794e-13
5.69261e-10
5.23199e-10
1.69032e-13
4.21655e-13
4.96996e-14
8.11584e-14
7.82044e-11
3.38553e-10
6.02971e-10
2.182e-10
1.16352e-10
1.43797e-09
8.58328e-10
2.00771e-10
1.07869e-12
7.28335e-10
2.63458e-12
5.73488e-14
7.90479e-13
3.41725e-10
2.29253e-13
2.19151e-13
5.93954e-10
4.51895e-11
3.21654e-10
6.27652e-10
1.58727e-13
5.71211e-12
3.15323e-11
3.5268e-10
1.78821e-10
1.57534e-12
2.65689e-12
3.91585e-13
6.13515e-10
1.58328e-09
1.3643e-13
1.82418e-10
3.27743e-10
1.07013e-12
4.54092e-10
2.85773e-10
2.49187e-13
5.63979e-10
8.99853e-10
6.16845e-11
9.21719e-10
1.43341e-09
1.31548e-13
3.66729e-11
7.06348e-10
2.23703e-13
2.38532e-10
3.36742e-10
1.53919e-11
1.58741e-10
3.13446e-13
2.63337e-10
1.09332e-13
8.65311e-14
5.83178e-10
8.46984e-10
8.82137e-10
2.07193e-10
1.24167e-12
5.27468e-12
4.84839e-10
6.79227e-10
6.24627e-10
4.85522e-14
1.26447e-11
1.84199e-10
1.25468e-12
9.03841e-14
1.62992e-13
2.47131e-13
5.27422e-10
5.31105e-10
1.10529e-13
1.09544e-13
5.84819e-10
6.01711e-11
4.44957e-13
1.26754e-09
3.01496e-13
1.32615e-13
3.89874e-10
4.63826e-10
4.6659e-13
1.05526e-10
3.49999e-10
1.08908e-09
1.29937e-09
1.58246e-13
1.74067e-13
1.43735e-13
1.70633e-13
3.99524e-10
3.94529e-10
1.55114e-11
1.05336e-13
2.26242e-13
5.37986e-13
1.82685e-10
1.82715e-10
2.1423e-13
6.09125e-14
2.17184e-13
2.83299e-10
8.13015e-11
9.616e-10
6.66005e-10
1.61132e-09
6.96862e-10
1.48098e-13
2.64357e-10
4.25277e-13
1.63866e-13
1.69997e-12
1.41089e-09
6.72716e-10
4.71813e-13
1.34835e-09
5.70623e-12
3.40442e-14
1.73593e-13
1.24408e-09
6.39224e-10
1.38957e-13
1.59145e-10
2.10748e-09
9.64101e-12
1.02903e-13
6.8697e-13
5.34672e-10
5.12752e-10
9.81154e-13
2.02503e-13
2.49728e-13
2.01573e-10
1.72729e-12
1.16449e-12
7.36865e-11
5.28248e-11
1.41677e-13
2.22912e-10
4.08502e-10
1.61413e-09
4.16686e-10
8.04602e-11
6.24492e-10
1.66655e-13
2.06884e-10
4.30901e-13
3.52147e-13
4.19214e-14
1.86823e-13
3.49578e-10
8.18156e-10
1.48654e-13
2.00212e-13
4.68898e-13
1.35218e-13
3.72164e-11
1.80353e-13
9.37861e-10
1.90806e-10
1.11741e-09
1.24142e-09
4.97742e-10
8.27015e-14
2.86129e-13
1.24344e-09
2.90518e-11
6.73674e-13
2.40106e-13
1.53154e-11
1.4263e-09
7.66221e-13
2.28169e-13
4.64101e-10
3.11305e-13
3.51225e-13
2.03803e-13
1.07859e-13
2.01087e-10
1.12132e-13
1.95385e-10
4.96468e-13
1.32485e-13
3.8556e-10
1.23403e-12
4.77874e-10
6.27861e-10
6.95935e-10
8.63776e-10
1.44149e-09
8.30538e-13
6.32876e-13
2.26268e-12
7.69239e-10
4.80628e-10
1.24901e-09
1.56898e-09
2.65817e-13
7.69531e-10
1.72516e-12
1.27316e-13
2.35802e-13
2.16206e-13
6.82552e-10
1.05406e-12
2.62536e-13
3.7989e-10
1.77065e-09
1.60708e-13
1.57395e-13
6.6561e-13
7.5934e-10
1.07742e-09
2.68167e-11
9.25677e-10
1.14795e-09
5.91939e-10
1.00186e-09
9.35609e-14
6.97184e-14
1.7698e-13
1.83162e-09
1.27996e-12
2.45045e-10
2.79256e-10
1.17805e-13
2.06607e-12
2.00349e-09
8.73232e-13
8.29628e-14
1.65119e-13
7.26222e-10
6.56852e-13
7.43053e-13
4.2343e-13
1.30753e-13
1.94626e-13
8.90586e-10
1.02552e-09
1.97283e-09
3.34318e-10
4.29099e-12
3.09018e-10
4.38822e-11
6.68365e-10
8.72744e-10
1.07941e-09
2.22785e-13
2.62279e-13
4.35747e-10
7.77445e-12
3.66085e-10
1.37761e-09
8.55215e-14
1.19805e-12
6.37443e-13
8.26296e-12
6.56393e-10
1.78151e-12
8.89112e-10
1.82632e-10
4.06362e-13
1.50847e-09
1.16216e-09
4.38965e-13
3.38581e-12
2.05378e-09
5.02939e-13
4.10459e-13
2.39457e-12
9.66967e-10
5.75744e-12
9.07163e-13
1.09275e-10
2.30245e-13
9.35542e-10
1.13009e-09
3.34647e-13
9.02081e-14
8.48841e-13
1.21236e-09
3.72595e-13
1.43785e-13
4.59498e-10
1.15158e-09
3.1625e-11
6.12407e-10
4.36622e-10
7.75133e-13
1.10368e-09
1.79168e-09
1.60172e-09
1.52278e-09
5.61516e-13
7.74294e-14
8.43792e-14
7.99156e-13
3.38391e-10
6.40668e-14
4.7017e-13
2.09138e-09
2.71877e-10
1.37133e-13
4.2058e-10
7.70532e-10
3.13485e-13
4.04974e-12
5.9455e-13
1.16636e-09
7.34043e-10
2.24257e-13
2.64462e-13
2.31142e-10
4.31613e-13
1.04691e-11
1.66717e-10
1.55712e-13
2.07799e-10
2.711e-10
1.2559e-09
2.36406e-13
4.29975e-13
2.47318e-10
1.15207e-09
9.3027e-10
2.76451e-10
1.68847e-09
7.65396e-13
1.42449e-09
1.83091e-09
3.13877e-13
2.51801e-09
8.59785e-10
4.12427e-13
5.15008e-10
2.12968e-10
1.61438e-12
1.96172e-12
2.06649e-11
1.77068e-13
9.923e-13
8.83977e-13
9.95236e-11
1.68458e-09
2.08828e-14
7.58572e-13
9.90042e-10
2.35862e-13
3.13266e-10
7.97081e-13
8.43233e-10
1.08359e-09
1.83039e-12
1.30994e-12
7.95931e-13
1.2577e-09
6.06027e-10
5.6706e-10
7.37373e-10
4.17525e-10
3.61939e-13
2.39628e-13
1.36166e-13
1.61577e-09
9.5282e-10
1.20883e-11
1.23502e-10
1.07245e-09
2.46445e-09
1.01213e-12
4.26183e-13
6.30847e-10
7.03729e-13
8.37442e-14
1.4996e-13
2.11244e-11
1.97866e-09
2.11981e-09
2.03573e-12
1.51673e-10
2.54398e-09
6.90606e-13
1.67296e-13
1.08022e-09
9.74426e-10
2.38041e-09
2.15637e-13
9.36353e-10
3.12464e-09
8.01801e-13
1.28729e-12
6.11124e-10
1.71477e-13
1.00699e-09
2.32728e-09
9.17157e-11
7.42549e-14
4.2512e-11
9.94144e-11
5.63829e-10
1.95112e-09
3.49782e-13
1.16281e-12
2.35025e-09
1.38375e-09
1.35225e-12
4.19133e-09
4.29123e-09
5.23085e-13
4.51076e-13
2.18424e-12
1.44659e-10
4.84768e-09
6.06262e-10