/*--------------------------------*- C++ -*----------------------------------*\
  =========                 |
  \\      /  F ield         | OpenFOAM: The Open Source CFD Toolbox
   \\    /   O peration     | Website:  https://openfoam.org
    \\  /    A nd           | Version:  10
     \\/     M anipulation  |
\*---------------------------------------------------------------------------*/
FoamFile
{
    format      ascii;
    class       volScalarField;
    location    "30";
    object      p;
}
// * * * * * * * * * * * * * * * * * * * * * * * * * * * * * * * * * * * * * //

dimensions      [0 2 -2 0 0 0 0];

internalField   nonuniform List<scalar> 
25600
(
-0.0084812
-0.0106195
-0.00256845
0.00906145
0.0062906
0.00385966
-0.0029106
-0.00479111
0.000890424
-0.00879141
-0.0160241
-0.0172729
-0.00678177
-0.0124521
-0.00964212
-0.0101749
0.00619251
0.00138445
-0.0248783
-0.0244731
-0.00549407
-0.0103101
-0.00043734
0.00296152
-0.00660313
0.00455619
-0.00832529
-0.0255685
-0.0158727
0.000307871
0.00278224
0.00173074
-0.00363578
-0.0187247
-0.0189593
-0.0053435
0.00966665
0.00340479
-0.0163132
-0.00792561
-0.00794796
-0.0103241
-0.00247756
0.00906358
0.00638436
0.00437369
-0.00247737
-0.00431881
0.00152094
-0.00862138
-0.0156913
-0.0170437
-0.00669001
-0.0122899
-0.00939693
-0.00979276
0.00654382
0.00164013
-0.0249077
-0.0242057
-0.00480684
-0.00982467
8.0916e-05
0.00336407
-0.00620986
0.00518547
-0.00800838
-0.0252259
-0.0157692
0.000977753
0.00313344
0.00210317
-0.00343637
-0.0185723
-0.0186254
-0.00471521
0.0102311
0.00351693
-0.0160706
-0.00770312
-0.00744613
-0.00997557
-0.002352
0.00895852
0.00546786
0.00415421
-0.00239125
-0.00372978
0.00202398
-0.00831168
-0.015313
-0.0165879
-0.0066309
-0.0119318
-0.00938871
-0.00975106
0.00693026
0.00229857
-0.0246803
-0.0239856
-0.00391538
-0.00977728
0.000117254
0.00377503
-0.00573805
0.00574563
-0.00774415
-0.0250037
-0.0159366
0.00152399
0.00371315
0.00234225
-0.00329878
-0.01829
-0.0184
-0.00410526
0.0102521
0.0036415
-0.0157189
-0.00763592
-0.00703528
-0.00979618
-0.00222107
0.00975558
0.0040597
0.00347712
-0.00280209
-0.00362506
0.0022457
-0.00781949
-0.0148678
-0.0160427
-0.00719236
-0.0112781
-0.00942217
-0.0102532
0.00717327
0.00251344
-0.0253893
-0.0242618
-0.00275439
-0.0102665
-0.000679463
0.0037708
-0.00537969
0.00616055
-0.00744139
-0.0252954
-0.0168269
0.00203537
0.0043758
0.00256629
-0.0031503
-0.0181768
-0.0183975
-0.00359872
0.0093699
0.00348013
-0.0158978
-0.00801293
-0.00645314
-0.00987891
-0.0017119
0.0114741
0.00314443
0.00287077
-0.0035133
-0.0040084
0.00228091
-0.00703439
-0.0143188
-0.0154436
-0.00869736
-0.0110771
-0.00953027
-0.011166
0.00736774
0.00250019
-0.0275254
-0.0252891
-0.0014255
-0.0109434
-0.001844
0.00364116
-0.00506458
0.00638412
-0.00593783
-0.0260235
-0.0187705
0.00240967
0.00469583
0.0028692
-0.00273123
-0.0183976
-0.0188997
-0.00292639
0.00814904
0.00316897
-0.0166137
-0.00869007
-0.00566117
-0.010493
-0.000600345
0.0132753
0.00287961
0.00234308
-0.00450958
-0.00479339
0.00227755
-0.00632001
-0.0143196
-0.014413
-0.0102614
-0.0133385
-0.00948954
-0.0124873
0.00748356
0.00257431
-0.0304349
-0.0269912
0.000448996
-0.012243
-0.00367882
0.00396605
-0.00482157
0.00638127
-0.00294656
-0.027328
-0.0218493
0.00179498
0.00438509
0.00323631
-0.0020151
-0.0189539
-0.0196556
-0.00155576
0.0083911
0.00296302
-0.0171547
-0.0087863
-0.00525108
-0.0108848
0.000580057
0.0127766
0.00288398
0.00215389
-0.00556482
-0.00564448
0.00242038
-0.00592536
-0.0148099
-0.0125842
-0.0115909
-0.015036
-0.0090843
-0.0136688
0.00735105
0.00265658
-0.0333223
-0.0288426
0.00341421
-0.0144463
-0.00669789
0.004081
-0.00471367
0.00609718
-2.2149e-05
-0.0288867
-0.0251311
-7.44575e-05
0.00400245
0.00406265
-0.000978027
-0.0196598
-0.019871
0.000695675
0.00984122
0.00248118
-0.0174636
-0.0082695
-0.00496485
-0.0103072
-0.000116786
0.0102331
0.00267543
0.00205855
-0.00639515
-0.00635573
0.00237048
-0.00542101
-0.0152697
-0.0104862
-0.0136143
-0.0140321
-0.00864824
-0.0140682
0.0069089
0.00251037
-0.0358122
-0.0301933
0.0064634
-0.0158415
-0.00987831
0.00432661
-0.00529662
0.00489533
0.00220337
-0.0289307
-0.0272511
-0.00260656
0.00461032
0.00548025
0.000279708
-0.0204414
-0.0186772
0.00356734
0.0104931
0.00156767
-0.0176858
-0.0084169
-0.00334169
-0.00874326
-0.00198565
0.0067059
0.00261732
0.00224351
-0.0073072
-0.00688768
0.00164546
-0.00476684
-0.0156687
-0.00871052
-0.0152071
-0.0126581
-0.00787365
-0.0132165
0.00610703
0.00171317
-0.0367013
-0.0299597
0.00696522
-0.0138104
-0.0123557
0.00531193
-0.00648841
0.00235372
0.00457962
-0.0268045
-0.0284904
-0.00499492
0.0064707
0.00668909
0.00149977
-0.0207581
-0.0164072
0.005702
0.0108645
0.000726511
-0.0180635
-0.00946633
-0.000539925
-0.00797724
-0.00381612
0.00433921
0.00351704
0.00246473
-0.00756084
-0.00691096
0.000806617
-0.00522407
-0.015625
-0.00762511
-0.0157283
-0.0136754
-0.00678807
-0.0113529
0.00541752
5.3152e-05
-0.0356547
-0.0283248
0.00981226
-0.00991442
-0.0139868
0.00620434
-0.00647102
-0.000141011
0.0072765
-0.0229619
-0.0296661
-0.00772969
0.00854159
0.00755268
0.00285566
-0.0180701
-0.0136761
0.0059482
0.0116136
-1.0391e-05
-0.018698
-0.0110582
0.00208294
-0.00568537
-0.00442904
0.00424916
0.00510058
0.00202151
-0.00739322
-0.00666739
0.000522024
-0.00513983
-0.0140267
-0.00779465
-0.0160829
-0.0136148
-0.00552708
-0.0102904
0.0049583
-0.00188675
-0.0328811
-0.0267261
0.00968118
-0.00942389
-0.0153547
0.00599868
-0.00476615
-0.00188901
0.00907297
-0.0179839
-0.0302197
-0.0107296
0.00886218
0.00826113
0.00337811
-0.0150176
-0.0115856
0.00505886
0.0125425
-0.000693905
-0.0189397
-0.0118981
0.00707224
-0.00210249
-0.00352465
0.00499487
0.00575306
0.00102247
-0.00782555
-0.00738411
0.00173354
-0.00228031
-0.0118789
-0.00775001
-0.0158636
-0.0119412
-0.00426566
-0.0102573
0.00417185
-0.00424772
-0.0299291
-0.025947
0.007081
-0.012035
-0.0171937
0.00560995
-0.0021533
-0.00340412
0.0099255
-0.0142682
-0.0307105
-0.0124813
0.00769696
0.00871855
0.00278933
-0.0126975
-0.0108513
0.00536208
0.0116827
-0.00193941
-0.0181519
-0.0123178
0.00751055
0.000523073
-0.00202766
0.00510447
0.00573501
0.00123151
-0.0083127
-0.0093378
0.00239592
0.00152273
-0.00958316
-0.00646585
-0.0149349
-0.0107349
-0.00467988
-0.00996151
0.00295717
-0.00790613
-0.029096
-0.0245487
0.00610429
-0.0158603
-0.0194415
0.00593733
0.000339744
-0.00526186
0.00946339
-0.0135534
-0.0311769
-0.0123957
0.00609555
0.0090563
0.0033533
-0.0108228
-0.0118613
0.00772578
0.0139014
-0.00369492
-0.0171453
-0.0134371
0.00588882
0.00194799
0.000202527
0.00490194
0.00460215
0.00223193
-0.00812224
-0.0110628
0.00181082
-0.00144301
-0.00762924
-0.00551698
-0.0136326
-0.0101971
-0.00648011
-0.00836282
0.000484362
-0.00894392
-0.0267532
-0.0211941
0.00424709
-0.01829
-0.0246899
0.00613015
0.00343924
-0.00228239
0.00917508
-0.0117593
-0.0301179
-0.0113263
0.00432517
0.00941603
0.00510318
-0.00800826
-0.0121874
0.00686995
0.0109092
-0.00708088
-0.0150372
-0.0136134
0.00567698
0.00274679
0.00109503
0.00490088
0.0021044
-0.00144968
-0.00729987
-0.0134987
-0.000816745
-0.00884114
-0.00478796
-0.00290394
-0.0105688
-0.00892479
-0.00708906
-0.00451709
-0.00368143
-0.0087042
-0.022759
-0.0180754
-0.000855791
-0.0153162
-0.0255311
0.00627824
0.00575913
0.000551928
0.00880219
-0.0100228
-0.0275284
-0.00939381
0.00239439
0.00985873
0.00620137
-0.00692226
-0.0121722
0.00427846
0.00381499
-0.0115198
-0.015525
-0.0154418
0.00735534
0.00121346
-0.000235453
0.00517571
-0.0033192
-0.0058385
-0.00789113
-0.0134978
-0.00157982
-0.0163479
-0.00307915
0.000646616
-0.00774977
-0.00460187
-0.00605489
-0.00211199
-0.00814351
-0.00380113
-0.0138566
-0.0170353
0.00121455
-0.0108281
-0.0264654
0.00729853
0.00865053
-0.0010575
0.00890867
-0.00959303
-0.0247294
-0.00959248
0.00116651
0.00952119
0.00348316
-0.00544185
-0.0113943
-0.000148473
-0.0024004
-0.0220717
-0.0141621
0.000672418
0.00510721
0.00143586
0.000932297
0.00369274
-0.0117216
-0.00798981
-0.00852515
-0.0153067
-0.00534696
-0.0184136
-0.00325142
0.0062153
-0.00270476
-0.0012809
-0.00568634
-0.00280541
-0.0104387
-0.00287978
-0.00679561
-0.0126428
0.00163604
-0.0126327
-0.0217737
0.00743184
0.0120222
-0.00160275
0.00762427
-0.0176633
-0.0238012
-0.00976288
0.00303179
0.00653501
0.00194917
-0.00546702
-0.00714588
-0.000529098
-0.00701399
-0.0117237
-0.00941943
-0.00229528
0.00903729
0.00183157
0.0011296
-0.000961777
-0.0157823
-0.00297719
-0.0122332
-0.0185416
-0.00754399
-0.0104057
-0.00267913
0.011396
0.000113475
-0.00255326
-0.00319829
-0.00252056
-0.0131232
0.00750332
-0.00182816
-0.0186081
-0.00216863
-0.00887772
-0.0169991
0.00589424
0.0139677
0.00266896
0.0117873
-0.00994825
-0.0248347
-0.00761059
0.00550124
0.00230906
-0.000340265
-0.00532492
-0.0075655
-0.00723595
-0.0145963
-0.0187919
-0.00702717
0.0103934
0.00730422
-0.00352418
0.00111707
-0.00266926
-0.0166703
0.000658953
-0.0109841
-0.0140585
-0.0022108
-0.0112441
-0.00527493
0.016742
0.00151266
-0.00242594
-0.0084781
-0.00578107
-0.00385105
0.0104494
-0.00928383
-0.0182302
-0.00280566
-0.00708931
-0.0084512
0.00817002
0.0129782
0.00138256
0.00646337
-0.0177031
-0.0277779
-0.0152224
0.000134149
0.00536086
0.000862961
-0.0147352
-0.0135153
-0.011549
-0.0164362
-0.0144993
0.00156949
0.0122395
0.00657148
-0.00760058
0.00529356
0.000285964
-0.0136845
0.00265694
-0.00951633
-0.0158232
0.00382886
-0.00211327
0.00176021
0.0165114
-0.00332693
-0.0116019
-0.0104016
-7.71016e-06
-0.000354338
0.00203615
-0.0132237
-0.0192304
0.00305758
-0.00456724
-0.00646869
0.00993486
0.0063502
-0.00327924
0.00490863
-0.0185577
-0.0266668
-0.0080794
0.00357842
0.00720836
-0.00177571
-0.00561252
-0.00552117
-0.0157478
-0.0222063
-0.0147194
0.00145073
0.0156805
0.00813446
0.00400572
0.00783969
0.0043921
-0.00192879
0.00426888
-0.0141869
-0.0147399
0.0163036
-0.00349262
0.00249091
0.0191747
-0.00207389
-0.0114307
-0.0166777
-0.0202479
-0.000866644
-0.00527056
-0.0245977
-0.0202453
0.001112
-0.0018955
-0.00690892
0.010064
0.00580849
0.00167293
0.00711931
-0.0164563
-0.0205397
-0.0110565
-0.000159672
0.0112553
-0.00324428
-0.010684
-0.01201
-0.0148489
-0.0166477
-0.0160318
0.00840672
0.0176567
-0.00624787
-0.00522359
0.00931035
-0.000366528
-0.0161709
-0.00420694
-0.0135914
-0.0178364
-0.00712355
-0.0135869
0.00584211
0.0245426
0.00884972
-0.00904641
-0.0193371
-0.024645
-0.00470143
-0.00515355
-0.0205008
-0.0185192
0.000879554
0.00396514
-0.0142751
0.00396462
-0.000470665
-0.000221734
0.0065124
-0.0124026
-0.0115875
-0.017151
-0.00124364
0.00423559
-0.0138496
-0.0112232
-0.00517685
-0.0129608
-0.0111501
-0.00959545
-0.00296191
0.000698149
-0.00633892
-0.00242
0.00957006
-0.0027153
-0.00835742
-0.0104312
-0.00915886
0.0075954
-0.0101577
-0.0144726
0.00842775
0.0216751
0.00670614
-0.00806629
-0.0134225
-0.0188106
-0.00307226
0.00172115
-0.00575971
-0.0087279
-0.00334836
0.00451162
0.00798456
0.00812688
0.00273611
-0.00169257
0.00285092
-0.00705792
-0.000624835
-0.0032752
-0.0027416
0.00120218
-0.00622261
-0.00787061
-0.0138143
-0.0111393
-0.0147074
-0.00703324
-0.00970289
0.000871382
0.0106273
0.00294649
0.00026147
-0.00153623
-0.00805797
-0.0133489
-0.00863766
0.00432766
-0.00418259
-0.0203303
-0.00702847
0.0128575
-0.00342967
-0.0136667
-0.00973319
-0.0109003
-0.00374983
-0.00614215
-0.000486262
-0.00685888
-0.00771291
0.00482891
-0.0014094
0.00472834
0.00887142
-0.003693
-0.00304003
-0.000771296
-0.00733132
-0.0179748
-0.00421591
0.00198589
-0.014417
-0.00762161
-0.00891537
-0.0144488
-0.00930607
-0.00808118
-0.015017
0.0128292
-0.00784105
-0.0156648
-0.0195847
0.00108114
0.0106179
-0.011881
-0.00792256
0.0174073
-0.00391604
-0.0245398
-0.0192083
0.000455566
-0.00431668
-0.000440699
-0.00215927
-0.00359402
0.00432713
-0.00203608
0.00647062
-0.0103041
-0.000983947
0.00214819
-0.00922346
0.0149225
0.010524
-0.0124117
-0.00724451
-0.00733119
-0.00635782
-0.0130942
-0.0118225
0.00475323
-0.000836366
-0.00563653
-0.00961963
-0.0331978
-0.0218766
-0.0058571
-0.00500601
-0.000599523
-0.0114122
-0.0296706
-0.00691347
0.0178166
-0.00544329
-0.0220858
0.000367875
0.00368558
-0.00650215
-0.0126116
-0.0121338
0.00395978
0.00215781
-0.000676138
-0.00160228
-0.00250144
-0.0012585
0.00617738
-0.00324313
-0.0142273
0.0164651
0.00235954
-0.0151832
0.00557751
-0.0172727
-0.00185701
0.0080453
-0.0145624
-0.00911827
-0.0137807
-0.00310366
0.0176237
-0.0127284
-0.0337442
-0.0287815
-0.0282291
-0.0218608
-0.00571449
-0.00320841
0.0087105
-0.00871709
-0.0182536
0.000131506
-0.0115922
-0.00243492
-0.00868927
-0.00955567
0.00391219
-0.000129249
-0.0143905
-0.00302139
-0.00928504
-0.0038504
-0.00620537
-0.00810077
0.00849727
0.00741555
0.00666964
-0.00530834
0.000860525
-0.00604609
-0.0279889
-0.0379505
0.00258138
0.0277633
0.00748086
-0.0331274
-0.0423095
-0.00676516
-0.00300158
-0.00484924
0.00615196
-0.0371323
-0.0126516
0.00766
-0.0263261
-0.0268139
-0.00989342
0.00613111
0.0365024
-0.0128955
-0.00365566
-0.00794745
-0.00761837
-0.00442175
-0.0244188
0.000710643
0.0272137
0.00377577
-0.0123869
-0.0166292
-0.0176694
-0.00958344
-0.0174286
0.00376021
0.0226087
0.00359946
-0.0201602
-0.00776159
-0.00903972
-0.0141477
-0.0232294
-0.0141717
0.00951105
0.00821802
-0.0411252
-0.0527778
-0.0140649
0.0121745
-0.0100318
0.0151616
-0.00949645
-0.0417889
-0.0172156
-0.00174105
-0.0134516
0.00135551
-0.00582274
0.00596841
0.00354471
-0.00572106
-0.0140488
-0.00613409
0.00897859
-0.000674384
-0.0212783
0.00457474
0.00712799
-0.0236621
-0.0308055
0.000734004
0.0102413
-0.0187867
0.00326417
0.0181397
-0.00352932
-0.0258741
-0.0219971
-0.0113515
-0.0171841
-0.0159196
-0.020281
-0.020698
-0.0141546
0.00196679
-0.0178396
-0.00127354
-0.0106702
-0.0242625
0.0204823
0.0114068
-0.0489448
-0.00843339
0.000539255
0.0206986
0.00328606
-4.76342e-05
-0.00695999
-0.0181113
0.0123279
-0.0129525
-0.0112894
-0.00786847
0.00750562
0.0335275
-0.00499748
-0.0155885
-0.0235466
-0.0163467
0.00291825
0.0262642
-0.00959882
-0.0188122
-0.0115671
-0.0110284
-0.0102947
-0.00903826
-0.000495464
-0.00130041
-0.0329646
-0.027772
-0.0215263
-0.0398932
-0.000121642
-0.00055682
-0.0431593
-0.0124144
-0.0140129
-0.00739181
0.0393342
-0.0213228
-0.0495956
-0.0194341
0.00269005
0.0222572
0.0188109
-0.00141581
-0.0258733
-0.0137653
-0.0222505
-0.0210148
0.0156338
-0.0212176
0.0150457
0.00178637
-0.0139661
-0.0181045
-0.0161994
0.00465112
0.0023982
0.0153522
0.0153228
-0.00231677
-0.0102565
0.00183923
-0.0042405
0.00716554
0.0515268
-0.00810469
-0.0671813
-0.0316866
-0.0131537
-0.0061063
0.0518925
-0.0381145
-0.046454
0.0354849
0.0192523
-0.0354682
-0.0105185
-0.0252971
-0.0292803
-0.0148376
0.0135718
0.000329028
-0.00713023
-0.0405266
0.0194743
0.0506866
-0.0276714
0.0368109
0.00203255
-0.00826598
0.0029985
-0.00657436
0.0223499
-0.0316044
-0.0699544
0.00980776
-0.00126109
-0.0449666
-0.00536717
-0.0108764
0.0275123
0.0386079
0.00222661
-0.014668
0.00578026
0.0341211
-0.00390705
-0.0329816
0.000546215
0.0105514
-0.0381582
-0.0128131
0.0219982
0.0229103
0.0292546
-0.0051976
-0.0170448
0.0160992
0.0266929
0.0189296
-0.020246
-0.028502
0.0102081
-0.0169451
-0.0148594
-0.00502035
0.00944239
0.00421749
-0.00271368
-0.00655692
-0.00571814
0.0136298
0.0101678
-0.00187042
-0.000400301
0.011822
0.00523721
-0.0030683
0.00532158
0.00174629
-0.00580792
-0.00398782
-0.00355924
0.0186773
0.0237174
-0.00736313
-0.0167718
-0.00498524
-0.000755093
-0.00317799
-0.000202396
0.000450245
0.00935286
0.0118194
-0.0108544
-0.0121143
-0.00355137
0.0037543
0.0089655
0.0074385
-0.00280594
-0.00564596
0.00481608
0.00381713
0.00436553
-0.000624665
0.00467056
0.00426694
-0.00266097
-0.00660747
-0.00588607
0.0134862
0.0100812
-0.00199937
-0.000494456
0.0118963
0.00519184
-0.00309017
0.00531832
0.00164464
-0.00583944
-0.00388385
-0.00361144
0.01866
0.0237177
-0.00737628
-0.0168002
-0.0050049
-0.000819052
-0.00332173
-0.000216266
0.000488788
0.00927922
0.011918
-0.0109753
-0.0122894
-0.00359566
0.00379231
0.00897113
0.00744663
-0.00286368
-0.00581461
0.00486563
0.00372047
0.00427051
-0.000703341
0.00456961
0.00429674
-0.00275336
-0.00681646
-0.0061152
0.0128467
0.00978201
-0.00219712
-0.000537607
0.0119639
0.00524708
-0.00276822
0.00535389
0.00133846
-0.00591981
-0.00405779
-0.00368083
0.0186893
0.0237382
-0.00776636
-0.0169273
-0.00487409
-0.000953997
-0.00356182
-0.000204598
0.000614985
0.00922376
0.0121917
-0.0109519
-0.0126677
-0.00362333
0.00386398
0.00895542
0.00738413
-0.00300084
-0.00579819
0.00477968
0.00359012
0.00420127
-0.000830769
0.00444744
0.00401981
-0.00322375
-0.007397
-0.00595299
0.0118529
0.00909758
-0.00273299
-0.000852769
0.0117433
0.00506298
-0.00258362
0.00506788
0.000157315
-0.00600625
-0.00454103
-0.00389832
0.0186757
0.0237688
-0.00884184
-0.0173614
-0.00511945
-0.00145784
-0.00415177
-0.000495111
0.000557349
0.00883304
0.012038
-0.0119629
-0.0135348
-0.00380309
0.00364735
0.00883636
0.00705261
-0.00347175
-0.005906
0.00417535
0.00300208
0.0041525
-0.00116851
0.00412582
0.00340347
-0.00407448
-0.00792923
-0.00507497
0.0111571
0.0082682
-0.00350908
-0.00154995
0.0111959
0.00449937
-0.00242196
0.00430671
-0.00173469
-0.00612116
-0.00517042
-0.00431219
0.0186508
0.0237735
-0.0102888
-0.0180963
-0.00569778
-0.00222713
-0.00470412
-0.000701734
0.000421453
0.00795551
0.0118895
-0.0136295
-0.0151415
-0.00423648
0.00303011
0.00865383
0.00671252
-0.00413486
-0.00620838
0.00306497
0.00231287
0.00413657
-0.00164657
0.00361482
0.00238194
-0.0051878
-0.00796324
-0.00384416
0.0108214
0.00744735
-0.00434194
-0.00253197
0.0102868
0.00373539
-0.00245349
0.00324675
-0.0033331
-0.00624447
-0.00593158
-0.00527834
0.0186724
0.0234501
-0.0118455
-0.0190019
-0.00652248
-0.00342123
-0.00518681
-0.000441888
0.000362309
0.00658145
0.011784
-0.0148093
-0.0173868
-0.00520958
0.0020049
0.00828649
0.00624463
-0.004822
-0.00675525
0.00186131
0.00192745
0.00401683
-0.00192657
0.00310473
0.00158419
-0.00612906
-0.00787151
-0.00316964
0.0103861
0.00677947
-0.004566
-0.00316835
0.00921724
0.00306821
-0.00265695
0.00230684
-0.00437617
-0.00625797
-0.00628582
-0.00619567
0.0186904
0.0226147
-0.0133041
-0.0196852
-0.00659974
-0.00517397
-0.00568339
0.00016538
0.00124926
0.00494503
0.01152
-0.0148086
-0.0196034
-0.00676025
0.0010034
0.00790407
0.00561387
-0.00559084
-0.00744307
0.00120034
0.00181201
0.0036079
-0.00175008
0.00280128
0.00136594
-0.0063581
-0.00874852
-0.00342726
0.00921802
0.00591218
-0.0042337
-0.00294955
0.00823651
0.00263238
-0.00281858
0.00184488
-0.00617731
-0.00616
-0.00635719
-0.00693867
0.0183862
0.0211613
-0.0146048
-0.0198989
-0.00741569
-0.00725221
-0.00582366
0.000831679
0.000773706
0.00370458
0.0107499
-0.0137443
-0.0206196
-0.00825468
0.000429537
0.00786288
0.00498269
-0.00663143
-0.00815891
0.00119745
0.00180202
0.00267841
-0.00130348
0.00255384
0.00209445
-0.00607642
-0.00915633
-0.00349158
0.00788607
0.00489128
-0.00408261
-0.00205188
0.00752165
0.00252577
-0.0028489
0.00184624
-0.007713
-0.00604713
-0.00639765
-0.00743172
0.017716
0.0189405
-0.0157168
-0.0196538
-0.00849405
-0.00836409
-0.00581569
0.00146511
-0.000440078
0.00321596
0.01016
-0.0116408
-0.0204914
-0.0093296
0.000215449
0.00797987
0.0045893
-0.00768794
-0.0088866
0.00148722
0.00159881
0.00104118
-0.00115316
0.00232665
0.00309881
-0.00583015
-0.00858655
-0.00254157
0.00702842
0.00451388
-0.00393568
-0.000927188
0.00747294
0.00293082
-0.00244116
0.00205795
-0.00866353
-0.00583129
-0.00645332
-0.00781576
0.0167826
0.0160908
-0.0163496
-0.0184567
-0.00917002
-0.00829387
-0.00611492
0.00207828
-0.000469016
0.00295291
0.00897263
-0.0090232
-0.0199948
-0.0108441
1.28732e-05
0.00747022
0.00446192
-0.00804917
-0.00900285
0.00156659
0.00123847
-0.000883702
-0.00106443
0.00234325
0.00328885
-0.00493088
-0.00781971
-0.00143877
0.00628579
0.0048414
-0.00357519
4.67876e-05
0.00795193
0.00373451
-0.00127879
0.00245737
-0.00906354
-0.00535696
-0.00658538
-0.00806452
0.0154628
0.0127243
-0.0163194
-0.0168488
-0.00933261
-0.00730592
-0.0065364
0.00303468
0.000559756
0.00205567
0.00697368
-0.00663364
-0.0192446
-0.0137906
-0.000521193
0.00673956
0.00414819
-0.00828454
-0.00826505
0.00147871
0.00112721
-0.00270261
-0.000722564
0.00192918
0.00224186
-0.00357023
-0.00720174
-0.00124453
0.00538075
0.00530269
-0.00243187
0.000792288
0.00810474
0.00410938
-0.000216366
0.00303671
-0.00912447
-0.00587611
-0.00768086
-0.00868143
0.0143208
0.00910176
-0.0163144
-0.0163353
-0.00954707
-0.00622758
-0.0073472
0.00420901
0.00155781
-5.26248e-05
0.00411605
-0.00633928
-0.0185185
-0.0154796
-0.00170958
0.00612735
0.00382402
-0.00796324
-0.00713316
0.000810558
0.000276988
-0.00460735
0.000647499
-0.000376168
0.000798398
-0.00166699
-0.00595233
-0.00146976
0.00488017
0.00537442
-0.000411654
0.000952035
0.00787722
0.00485526
0.000311535
0.00338099
-0.00873815
-0.00613213
-0.00958104
-0.00960117
0.0150034
0.0062358
-0.0166354
-0.0160392
-0.00845339
-0.00483682
-0.00867419
0.00485566
0.00261977
-0.00192249
0.000642801
-0.00634333
-0.0173703
-0.0155814
-0.00300105
0.00583482
0.00239896
-0.00748693
-0.00589349
-0.000166686
-9.07105e-05
-0.0067678
0.00175343
-0.00120251
-0.00104938
0.000357421
-0.00417685
-0.00274941
0.00451507
0.00539645
0.000982805
0.000387002
0.00761481
0.0050038
-3.0231e-05
0.00314199
-0.00788862
-0.00542141
-0.011856
-0.0104221
0.0122188
0.00529439
-0.0156938
-0.0141376
-0.00878383
-0.0037017
-0.0100667
0.00504455
0.00395476
-0.00245302
-0.00245014
-0.00681787
-0.0155573
-0.0147891
-0.00495752
0.00493455
0.000594819
-0.00718383
-0.0064294
0.000107049
0.000157989
-0.00703562
0.00146909
-0.00281304
-0.00156288
0.0024454
-0.00243454
-0.00287898
0.00393036
0.00508022
0.00155652
-0.000741939
0.00648864
0.00377575
-0.00121514
-0.00012467
-0.00725215
-0.00333589
-0.0139718
-0.0120346
0.00730921
0.00528019
-0.0137537
-0.0121127
-0.00864011
-0.00322382
-0.0109522
0.00389521
0.00476989
-0.00307401
-0.00310898
-0.00665603
-0.013714
-0.0130876
-0.00499757
0.00498429
-0.00169482
-0.00796437
-0.00850194
0.000279199
0.000690949
-0.00829683
-0.00160968
-0.003619
0.000256238
0.00244281
-0.000935148
-0.00267456
0.00302867
0.00342412
0.0023138
-0.00120261
0.00427267
0.00111805
-0.00163246
-0.00173489
-0.00703715
4.29525e-06
-0.0129141
-0.0128623
0.00362691
0.00445317
-0.0108989
-0.0100293
-0.00742302
-0.00252724
-0.0102823
0.00349301
0.0049957
-0.00412709
-0.00243036
-0.00587056
-0.00973633
-0.0116402
-0.00600577
0.00253774
-0.0022127
-0.00783225
-0.00977495
-0.00168473
0.000855016
-0.0102924
-0.00613572
-0.0001704
-0.00145945
0.00267232
0.00151794
-0.000608623
0.00288868
0.000269337
0.00173639
-0.000311553
0.00283654
-0.000583857
-0.000954345
-0.00273713
-0.00697615
0.000773132
-0.0105614
-0.0108917
0.00164376
0.00320181
-0.00630348
-0.00742689
-0.00737128
-0.00377378
-0.00988561
0.00197908
0.00517314
-0.00205232
-0.00135019
-0.00920928
-0.0134838
-0.0108332
-0.00423509
0.00106065
-0.0035989
-0.00653249
-0.0077021
-0.00567443
-0.00163709
-0.0129351
-0.0100933
0.000664654
-0.00432438
0.00278178
0.0040614
0.000293292
0.00331458
-0.00146707
-0.000940585
-0.000373114
-0.000317438
-0.000104526
0.00187016
-0.00348011
-0.0064443
0.000795013
-0.00692424
-0.00920533
0.00364409
0.00396093
-0.00472953
-0.00649055
-0.00701668
-0.00209683
-0.00809924
-9.42966e-05
0.00672147
-0.000124568
-0.00210669
-0.0110891
-0.0153072
-0.00746901
-0.00113912
0.000807245
-0.00522504
-0.00677016
-0.0042689
-0.00732801
-0.0133915
-0.0171046
-0.0119847
0.00240254
-0.00875085
0.00177944
0.0103503
0.000914469
0.00449649
0.000418602
-0.00323161
-0.00106683
0.000112181
-0.00118199
0.00282758
-0.00297399
-0.00608906
-0.000620913
-0.00172025
-0.00676744
0.0018365
0.0060593
-0.00495387
-0.00866925
-0.00943208
-0.00513001
-0.0042905
-0.00116498
0.00635091
0.00114712
-0.000706321
-0.0167159
-0.0167876
-0.00301067
0.00150075
-0.000888619
-0.00575961
-0.0180933
-0.00887739
-0.0161134
-0.0237947
-0.0196308
-0.00208379
0.00450556
-0.00660252
-0.00287764
-0.000841677
-0.00174768
-0.00274237
-0.00258178
-0.00290821
-0.00163637
-0.00232763
-0.00295912
0.00427285
-0.00231682
-0.00536691
-0.00144159
-0.00230812
-0.00647125
-0.00131472
0.00673559
-0.00146232
-0.0098705
-0.0108037
-0.0025902
-0.00514121
-0.00439741
0.00278665
0.000407128
-0.000437881
-0.0179266
-0.0177115
-0.00274065
0.00336476
0.00453051
-0.00350326
-0.0105488
-0.00985585
-0.0100345
-0.0126893
-0.0145964
-0.00039125
0.00521054
0.00472998
0.00185574
-0.00181204
-0.000415128
-0.00639472
-0.00613551
-0.00289886
-0.00232083
-0.00567072
-0.00156827
0.00778775
0.0013322
-0.00139007
0.0123879
-0.00451506
-0.0138713
-0.00149041
0.000125489
-0.00454712
-0.011593
-0.0105427
-0.00238124
-0.00964382
-0.000635442
0.00447668
-0.00618647
0.00250279
-0.0106121
-0.0153562
-0.00396233
0.00115744
0.00354667
-0.00704849
-0.0110682
-0.00451429
-0.00956777
-0.00755867
-0.0102565
0.00220504
0.00698905
-0.00326328
-0.00717247
0.00631066
-3.447e-06
-0.00956681
-0.0108002
-0.00502958
-0.00365203
-0.00756513
0.00170541
0.00145762
-0.00744291
-0.0011602
0.00570361
-0.00806271
-0.0164622
-0.00221807
0.00525204
-0.00211762
-0.0202083
-0.0144207
-0.00409685
-0.00987293
-0.000151563
0.00335164
-0.000173885
0.000326148
-0.0135558
-0.0151422
-0.00876241
-0.00334457
0.00238105
-0.0117265
-0.0122595
-0.00517865
-0.00656356
-0.00369753
-0.00487398
0.00597335
0.0128746
-0.0084615
-0.0065931
0.00147996
-0.0139368
-0.0086087
0.00404091
-0.00704381
-0.00535051
1.20188e-05
-0.00558587
-0.00884646
-0.00555778
0.00394635
0.00382241
-0.00694249
-0.0136416
0.00108608
0.00475012
-0.0104791
-0.00889694
-0.00693866
-0.00320685
0.000212748
0.00246458
0.0019553
-0.000757991
-0.00180731
-0.0104249
-0.0136496
-0.00821162
-0.00961859
0.00114902
-0.00704765
-0.00477835
-0.00457787
-0.00830714
-0.00289877
-0.00467962
-0.00573364
0.00455707
-0.000153588
-0.00722638
-0.00985277
-0.005419
-0.0015884
-0.0110207
-0.0137843
-0.00187586
-0.00396048
-0.0118814
-0.010836
0.00388995
0.00584685
0.00027489
0.0011817
-0.00672018
-0.00622032
-0.00795964
-0.00063348
0.000204245
-0.00803691
-0.00672855
-0.00658245
0.00597289
0.00871314
-0.00825995
-0.00417627
-0.000762757
-0.0103388
-0.0171248
-0.0111019
-0.000973216
-0.00909594
-0.0126343
-0.00670592
-0.0119689
-0.00768331
-0.0011172
-0.00896222
0.000366931
0.00945483
0.00513081
-0.00115438
-0.00269771
-0.00507119
-0.00990131
-0.00490095
0.00540264
-2.01168e-05
-0.00108994
-0.0129393
0.00288708
0.0084401
0.000134486
-0.00926247
-0.0113399
-0.00304626
-0.00435181
-0.000712761
0.000365745
0.00282393
-0.00699121
-0.0195693
0.000941757
0.0128482
0.00565546
-0.00645709
0.00108649
-0.00690622
-0.00355406
-0.000470735
-0.000984556
-0.0143969
-0.021362
-0.00616545
-0.010663
-0.0110806
0.000656708
-0.00776317
-0.00175198
0.0233682
-0.00703076
-0.0183198
-0.00312383
-0.00356572
-0.0149524
-0.014862
-0.00537858
-0.00824075
-0.0179167
-0.00525438
9.50271e-06
0.0109706
0.00955454
-0.00708038
-0.00853559
-0.00226195
0.00572624
0.00602859
0.00089175
0.0013413
-0.0147353
-0.0173745
0.0116136
0.0134886
0.0197272
-0.0165556
-0.0226463
-0.016124
-0.00811366
-0.00215203
-0.00233041
-0.010542
-0.0138278
-0.0266311
-0.01413
-0.00257586
0.00160978
-0.00470411
0.0119978
-0.00136761
-0.0291154
-0.0178876
-0.00470116
-0.0106338
-0.00920083
-0.0143968
-0.0117692
0.00449314
-0.0121633
-0.0109662
-0.0191752
-0.0105122
0.00568094
-0.0145256
-0.0141463
0.00277047
0.00591868
-0.000404569
0.000685863
-0.00156946
-0.0100662
-0.00921891
0.0198466
0.0314567
0.00579345
-0.0386035
-0.0405236
-0.016139
-0.0126264
-0.00793948
-0.0246637
-0.0279839
-1.74545e-05
0.0187023
-0.019448
-0.0160735
0.00246655
-0.00565058
0.00409809
-0.00980289
-0.0139797
-0.00144368
-0.00806512
-0.0117501
-0.010886
-0.0149748
0.0105063
0.000485354
-0.0196909
-0.0123457
-0.00954421
-0.00364333
-0.0093498
-0.0348162
-0.00104907
0.000350064
-0.0106348
-0.00306826
0.00367414
-0.00647146
0.000493905
0.0135618
-0.00524955
0.00929281
-0.0242214
-0.0562149
-0.0376103
-0.00423712
-0.00493882
0.00238091
-0.0101674
-0.0273388
-0.00861503
0.0133412
-0.00603556
0.0110639
-0.0129816
-0.0163452
0.000737935
-0.0195236
-0.0184136
-0.00948826
-0.0050801
0.015705
-0.0141985
-0.0118806
0.000169589
-0.011001
-0.0133778
-0.013488
0.00913015
0.000231162
-0.00740557
-0.00698361
-0.0145815
-0.00890062
0.00704215
0.00390633
-0.0111036
0.00307461
0.00857798
-0.0152545
-0.0361919
-0.00631307
-0.0297479
-0.0411245
-0.0491858
-0.016773
0.0309953
0.0371917
-0.0220935
-0.0322281
0.00380451
0.0129553
-0.0119602
0.0112187
0.00317873
-0.000258409
-0.00164933
-0.0059909
0.000453836
-0.00191989
0.000815861
-0.00848398
-0.0327477
-0.0149704
0.0205867
-0.0107458
-0.0353004
-0.00650156
0.00778638
-0.00697859
0.0031127
-0.00854775
-0.0280041
0.00746489
0.0159476
-0.0110417
-0.00469145
0.0303738
-0.0145999
-0.0396868
-0.0234326
-0.00902421
0.0262458
-0.000320652
-0.0221609
-0.00710661
0.0260811
0.0132847
-0.0304048
-0.0126836
-0.0062898
-0.0069343
0.0147419
0.0319388
-0.0056452
-0.0328325
-0.000131264
-0.00618102
-0.00855486
0.0253081
0.0410595
-0.071492
-0.056156
-0.0153841
0.0214444
0.00751669
-0.0473631
-0.00764857
-0.00141494
0.00784566
0.0231798
-0.0206464
-0.0264267
0.0115527
-0.0184164
-0.0291839
-0.00223103
-0.0323047
-0.0134863
0.0115776
0.000591518
-0.00206894
0.0189336
-0.0194399
-0.048945
-0.0274765
0.0354766
0.0154069
-0.0491598
-0.0436269
0.013842
0.0179779
0.0119801
0.0304632
0.0112357
0.0245504
0.0210884
0.029534
0.0453074
0.0169559
-0.0232149
-0.0341316
0.0155752
-0.0149306
-0.024083
0.00743382
-0.0312801
-0.0283399
-0.00214452
-0.0123016
-0.0186986
0.0228449
0.0258123
-0.0135568
-0.0145436
0.021389
-0.00199554
-0.012801
0.0106622
0.00896588
-0.0139103
-0.00585207
0.0509307
0.0200532
-0.0257939
-0.0255878
0.0320336
0.0498501
-0.0139634
-0.0128449
0.00574327
0.00722076
0.00426475
-0.0104283
-0.0191613
0.00514365
0.0181573
-0.00100968
0.00397305
0.00473394
-0.00871145
-0.00118135
0.00190731
-0.0124632
-0.00601555
0.00593437
-4.03625e-05
-0.00291803
-0.00647413
-0.00418725
0.0018188
-0.00640151
-0.00787179
0.0161275
0.0198297
0.00125454
-0.00507311
-0.00120048
-0.00830581
-0.00821121
0.00288853
0.00244239
0.0023578
0.00304966
-0.0103103
-0.010373
-0.00648169
0.00156812
0.00919692
0.00401363
-0.0058393
0.00206944
0.00951082
0.00280544
-0.000237578