/*--------------------------------*- C++ -*----------------------------------*\
  =========                 |
  \\      /  F ield         | OpenFOAM: The Open Source CFD Toolbox
   \\    /   O peration     | Website:  https://openfoam.org
    \\  /    A nd           | Version:  10
     \\/     M anipulation  |
\*---------------------------------------------------------------------------*/
FoamFile
{
    format      ascii;
    class       surfaceScalarField;
    location    "30";
    object      phi;
}
// * * * * * * * * * * * * * * * * * * * * * * * * * * * * * * * * * * * * * //

dimensions      [0 3 -1 0 0 0 0];

internalField   nonuniform List<scalar> 
74080
(
0.000166268
2.71331e-05
0.000181424
0.000156419
1.60563e-05
0.000187475
0.000162794
-1.74705e-05
0.000198582
0.000172732
-2.85331e-05
0.000184832
0.000176261
-2.11341e-05
0.000156902
0.000169936
1.6072e-07
0.000167133
0.00016832
-2.99811e-06
0.000176544
0.000164669
7.85566e-06
0.000174416
0.000159725
2.63734e-05
0.000175027
0.000162202
1.20104e-05
0.000174915
0.000157846
2.16436e-05
0.000190674
0.000148369
2.8375e-05
0.000172403
0.000165395
-2.68214e-05
0.000169448
0.000159279
2.38691e-05
0.000180133
0.000150506
9.81555e-06
0.000171779
0.000149277
4.10998e-06
0.000176658
0.000153779
1.1371e-05
0.000170219
0.000158097
1.74792e-05
0.000161894
0.000161119
-1.37394e-05
0.00017962
0.000162292
-2.61412e-06
0.00017681
0.000157085
9.17723e-06
0.00017838
0.000156936
1.18217e-05
0.000159527
0.000166518
-8.59613e-06
0.000173453
0.000163718
5.67916e-06
0.000182295
0.00015817
1.61098e-05
0.000171607
0.000160334
5.65018e-06
0.000168294
0.000149301
4.15144e-05
0.000170711
0.000151695
3.83626e-07
0.000184106
0.000165435
-1.94474e-05
0.000179471
0.000161298
-3.98976e-07
0.000185496
0.000151091
2.16084e-05
0.000177347
0.000153797
3.11309e-07
0.000170652
0.000161555
-1.23425e-05
0.000177139
0.000167897
-2.39041e-06
0.000164191
0.00016896
2.37259e-06
0.000162365
0.000152377
2.92603e-05
0.000180873
0.000146126
2.32364e-06
0.000174728
0.000155733
-2.41543e-05
0.000174091
0.000163356
3.0376e-07
0.000182235
7.2369e-06
0.000175947
0.000199196
7.0105e-05
0.000168498
0.000178387
2.48829e-05
0.000193734
0.000189487
-6.44049e-05
0.000200482
0.000229651
-0.000126827
0.000156671
0.000247016
-0.000132661
0.000117309
0.00021239
-1.85304e-05
0.000139023
0.000195997
-1.98406e-05
0.000146684
0.000189919
3.76484e-06
0.000145964
0.000172182
8.02844e-05
0.000156375
0.000176478
-9.44564e-06
0.000165621
0.000177596
4.67513e-05
0.000187088
0.000164076
1.31621e-05
0.000160502
0.000184356
-0.000130738
0.000159244
0.000172556
4.94765e-05
0.000147017
0.000156603
-3.93084e-05
0.000152725
0.000151795
-3.16457e-05
0.000170619
0.000160413
-9.36639e-06
0.000143233
0.000163956
1.13377e-06
0.000127234
0.00016718
-0.000107498
0.000173497
0.000173961
-4.0133e-05
0.000155936
0.000165478
1.32015e-05
0.000153349
0.000178575
-1.77682e-05
0.00011521
0.000203025
-4.38241e-05
0.000131931
0.000183607
1.22727e-05
0.000159242
0.000170398
3.61959e-05
0.000135263
0.000166699
2.44673e-05
0.000130687
0.00014097
9.73704e-05
0.00014749
0.000163166
-8.58269e-05
0.000173131
0.000192478
-0.000101805
0.000157594
0.000171241
-2.86689e-06
0.000170288
0.00015084
5.26764e-05
0.000142366
0.00016053
-4.14254e-05
0.000140701
0.000167309
-7.58221e-05
0.000166503
0.000183159
-6.36274e-05
0.000122193
0.000195304
-1.88832e-05
0.000121325
0.000157345
9.03157e-05
0.000161847
0.000128314
-1.85988e-05
0.000152712
0.000147467
-9.92943e-05
0.000153464
0.000182006
-5.19079e-05
0.000163257
-1.11059e-05
0.000143778
0.000238279
0.000111104
0.000137236
0.000215921
3.01878e-05
0.000199444
0.000213448
-9.14393e-05
0.000202288
0.000253476
-0.000195542
0.000121397
0.00030078
-0.000280953
8.97518e-05
0.000258056
-6.05439e-05
0.000124726
0.000226344
-4.64879e-05
0.000135034
0.000222363
-2.47373e-05
0.000130481
0.000187381
0.000155702
0.000135056
0.000179433
-5.4907e-05
0.00017843
0.00021397
5.3835e-05
0.000176241
0.000202742
-3.12646e-05
0.000167324
0.000186699
-0.000248395
0.000181746
0.000196631
3.7375e-05
0.00011002
0.000195244
-0.000127828
0.000141407
0.000172877
-8.19877e-05
0.0001845
0.000184449
-5.69993e-05
0.000137751
0.000172256
-1.3274e-05
0.000113078
0.000165683
-0.000190528
0.000186292
0.000190974
-0.000101069
0.000147614
0.000185556
-1.0455e-05
0.000132672
0.000207264
-0.000114502
0.000114832
0.000249923
-0.000126879
0.000110354
0.000212151
7.77459e-06
0.000149077
0.000193084
6.0962e-05
0.000104679
0.000185356
5.27309e-05
9.37781e-05
0.000147473
0.000153902
0.000122465
0.000195017
-0.000245857
0.000175006
0.000220954
-0.000220356
0.000157018
0.000172542
-2.79087e-06
0.000161915
0.000165941
7.96974e-05
0.000100224
0.000192633
-0.000101096
0.0001162
0.000177217
-0.000127146
0.000163032
0.000189959
-0.000142854
0.000109264
0.000209895
-5.31621e-05
9.83322e-05
0.000156995
0.000159586
0.000132339
0.000106736
-5.82677e-05
0.000151686
0.000134678
-0.000159829
0.000131177
0.000206612
-0.00013009
0.00014798
-4.20685e-05
0.00011718
0.000253316
0.000150277
0.000111637
0.000235676
1.89171e-05
0.000201343
0.000245685
-9.57688e-05
0.000164564
0.000260077
-0.000156551
7.60774e-05
0.000300537
-0.000376974
7.615e-05
0.00026752
-0.000102732
0.000107756
0.000239076
-8.32232e-05
0.00013582
0.000252604
-9.73644e-05
0.000125683
0.000204819
0.000242844
0.000125303
0.000173137
-0.00010833
0.000188
0.000233022
4.89797e-05
0.000163667
0.000230781
-7.70974e-05
0.000163291
0.00020209
-0.000367802
0.00019446
0.000221093
1.19608e-05
8.28895e-05
0.000208376
-0.000175903
0.000128122
0.000189396
-0.000150227
0.000200601
0.000212187
-0.000113753
0.000146724
0.000176439
4.26083e-06
0.000111442
0.000179092
-0.000235256
0.000194245
0.00023183
-0.000200246
0.000164401
0.000219197
-6.4428e-05
0.000134031
0.000222057
-0.000208635
0.000121861
0.000272547
-0.000221711
9.06087e-05
0.000231737
-1.35063e-05
0.000144744
0.00022002
6.83496e-05
9.24406e-05
0.000224694
6.6571e-05
6.65332e-05
0.000191621
0.000178064
0.000103325
0.000253356
-0.000406602
0.000182074
0.000250309
-0.000339511
0.000171502
0.000176894
-1.0927e-05
0.000166139
0.000191387
0.000116317
6.64397e-05
0.000239346
-0.000146129
8.81505e-05
0.000200742
-0.000136984
0.00015132
0.000197736
-0.000177206
0.000113144
0.000213485
-6.76152e-05
9.34178e-05
0.000157672
0.000220495
0.000108099
0.000113972
-0.000106842
0.000145498
0.000140374
-0.000188559
0.000111942
0.000237779
-0.000221569
0.000137777
-6.74434e-05
9.69629e-05
0.000240017
0.000187149
0.00010425
0.000235594
-4.24099e-06
0.000195702
0.000284341
-7.18169e-05
7.16663e-05
0.0002975
-4.37285e-05
2.87836e-05
0.000325066
-0.000422317
7.92461e-05
0.000294124
-0.000125943
9.41629e-05
0.000256144
-0.000102483
0.000133124
0.000276543
-0.000188795
0.000119223
0.000236378
0.000311046
0.000130412
0.00018235
-0.00012028
0.000180947
0.000230084
5.9009e-05
0.000145087
0.000252891
-0.000123146
0.000148741
0.0002543
-0.000472402
0.000172886
0.000256103
4.00775e-05
9.07576e-05
0.000202411
-0.000171649
0.000146608
0.000193336
-0.000238158
0.00021911
0.00022808
-0.000171505
0.00015473
0.000190919
2.24431e-05
0.000121274
0.000213074
-0.000286211
0.000190862
0.000262852
-0.000306913
0.000174775
0.000248595
-0.000127863
0.000130717
0.000236277
-0.000271578
0.000146002
0.000278509
-0.000287601
7.92624e-05
0.000243527
-4.01202e-05
0.00014099
0.000241558
3.90854e-05
0.000103838
0.000273499
5.60881e-05
4.39336e-05
0.000272514
0.000142646
9.25271e-05
0.000340805
-0.000468767
0.000164457
0.000299212
-0.000419001
0.00018335
0.000209269
-3.77362e-05
0.00018058
0.000217808
0.000180456
6.25577e-05
0.000272421
-0.000161144
7.00561e-05
0.000237205
-0.000123446
0.000140798
0.00021632
-0.000158723
0.000122795
0.00021508
-7.10295e-05
0.000107611
0.000185694
0.000249764
9.54766e-05
0.000175578
-0.000156444
0.000137617
0.000173616
-0.000181179
0.000120202
0.000266697
-0.000299585
0.000119875
-0.000104772
7.69304e-05
0.000228233
0.000230936
0.000103073
0.00024738
-2.43107e-05
0.000170787
0.000320678
-3.7021e-06
-2.55398e-05
0.000318487
0.00012045
-7.36355e-06
0.000354897
-0.000440254
8.922e-05
0.000354988
-0.000155104
8.83814e-05
0.000304185
-7.95246e-05
0.000110699
0.000299109
-0.00023461
0.000100471
0.000270357
0.000345644
0.000136886
0.000202524
-7.39818e-05
0.000167877
0.000228321
7.48937e-05
0.000123072
0.000263635
-0.000134432
0.00014257
0.000291019
-0.000511006
0.000156871
0.000315321
6.02104e-05
0.000105584
0.000266167
-0.000154771
0.000146452
0.00023969
-0.000305634
0.000216256
0.000247008
-0.000218922
0.000153675
0.000226408
2.59581e-05
0.000133411
0.000251221
-0.00033117
0.000179538
0.000271598
-0.00037909
0.000154257
0.00024006
-0.000149876
0.000105427
0.000229743
-0.000344754
0.000179215
0.00029661
-0.000387539
7.88156e-05
0.000278826
-8.1641e-05
0.000135134
0.000275217
-1.88433e-05
0.000128619
0.000307004
5.68713e-05
2.04365e-05
0.000322413
0.000106716
8.30362e-05
0.000406013
-0.000459845
0.000133221
0.000364818
-0.000472421
0.000172503
0.000276009
-7.97514e-05
0.000198928
0.000254946
0.000239015
8.67499e-05
0.000287186
-0.000161778
6.66697e-05
0.000274702
-0.00010649
0.000141941
0.000250955
-0.000131075
0.000124889
0.000221811
-8.51189e-05
0.000131126
0.000230407
0.000221294
8.89244e-05
0.000257253
-0.000180725
0.000146022
0.000220162
-0.000133503
0.000152641
0.000294929
-0.000334008
9.94878e-05
-0.000161302
7.37399e-05
0.000250513
0.000257231
0.000108824
0.000289002
-2.81375e-05
0.000131126
0.000360801
0.000101078
-7.44123e-05
0.000338084
0.00029764
-1.2049e-05
0.000374173
-0.000425308
0.000125226
0.000405489
-0.000194267
0.000109371
0.000364045
-2.1935e-05
8.89786e-05
0.000325739
-0.000214175
7.21108e-05
0.000292323
0.000368541
0.000138581
0.000227629
-3.6425e-05
0.000163415
0.000234124
9.06743e-05
9.84345e-05
0.000274255
-9.51e-05
0.000162979
0.000310274
-0.000509861
0.000173746
0.000359909
2.80985e-06
0.000103918
0.000340366
-0.000124842
0.000137214
0.000308474
-0.000339561
0.000197499
0.000304396
-0.000282137
0.000157308
0.000282011
2.97311e-05
0.000143505
0.000297999
-0.000333694
0.00015913
0.000294104
-0.00043568
0.000128943
0.000205665
-9.14083e-05
8.43882e-05
0.000200177
-0.000408839
0.000168465
0.000319515
-0.000547385
6.92093e-05
0.000331016
-0.000143653
0.000111936
0.000339185
-9.53411e-05
0.000149802
0.00033362
9.74114e-05
7.00294e-06
0.000342062
0.000128603
7.95318e-05
0.000441723
-0.000456377
9.8674e-05
0.000409141
-0.000493049
0.000139749
0.000337934
-0.00013575
0.000215011
0.000310638
0.000244371
0.000127881
0.000299551
-0.000148053
8.00403e-05
0.000286771
-7.50571e-05
0.000157735
0.000274497
-0.000101195
0.000112626
0.000238027
-0.000133903
0.000145673
0.00027143
0.000150075
8.31162e-05
0.000304588
-0.000179749
0.00014351
0.000249641
-9.62523e-05
0.000189897
0.000311161
-0.000320642
8.40744e-05
-0.000215178
8.63576e-05
0.000299595
0.000202427
0.000125351
0.000347348
1.4076e-06
8.73175e-05
0.00040432
0.000224109
-6.30231e-05
0.00038211
0.000473175
8.67967e-08
0.000406511
-0.000393736
0.000150308
0.000449765
-0.000230831
0.000128695
0.000432383
5.28115e-05
7.39357e-05
0.000369491
-0.000146176
3.7214e-05
0.000331778
0.000420275
0.000123254
0.000286186
-1.94628e-05
0.000149881
0.000248227
0.000150006
7.08724e-05
0.0003021
-2.7138e-05
0.000173322
0.000363606
-0.000535519
0.000161014
0.000409367
-0.000100904
9.37022e-05
0.000404885
-0.000133738
0.00014225
0.000371213
-0.000340184
0.000177094
0.000374312
-0.000325636
0.000157258
0.000344907
2.72717e-05
0.000152941
0.000367567
-0.000326405
0.000139738
0.000350191
-0.000505643
9.44344e-05
0.000234513
-1.31655e-05
7.60445e-05
0.000231155
-0.000375769
0.000123533
0.000327758
-0.00063225
6.59663e-05
0.000357697
-0.000187382
7.82892e-05
0.00040509
-0.000214225
0.000158781
0.00037814
0.000151666
2.00245e-05
0.000400671
0.00015867
7.83327e-05
0.000499595
-0.000448648
6.46475e-05
0.000424668
-0.000430448
0.000106771
0.000362543
-0.000214877
0.000222548
0.000377815
0.000163673
0.000166815
0.000324716
-0.000118838
0.000117005
0.000281959
-3.0568e-05
0.000180175
0.000285996
-5.70932e-05
8.55751e-05
0.000255427
-0.000215673
0.000125683
0.000303455
5.71122e-05
9.16657e-05
0.000326834
-0.000179784
0.000122992
0.000278043
-9.78325e-05
0.000210544
0.000331853
-0.00028571
7.79553e-05
-0.000261092
0.000101915
0.000348307
0.000104182
0.00010946
0.000387871
6.5951e-05
6.70789e-05
0.000441304
0.000313634
-9.41312e-07
0.000442794
0.000608099
6.66741e-05
0.000437269
-0.00033986
0.000143536
0.000480901
-0.000247093
0.000124208
0.000490998
0.000112154
9.19244e-05
0.00040955
-9.31263e-05
4.4607e-05
0.000388872
0.000475275
0.00010341
0.000364156
4.2461e-05
0.000112935
0.000309623
0.000223758
4.48336e-05
0.000367232
5.37934e-05
0.000146111
0.000437084
-0.000522603
0.000152636
0.000501236
-0.000168758
7.30535e-05
0.000487069
-0.000155274
0.000136062
0.000435095
-0.000308512
0.000164887
0.000456662
-0.000315479
0.000145351
0.000429263
3.198e-05
0.000160566
0.000465756
-0.000305919
0.00012284
0.000457426
-0.000575248
4.2594e-05
0.000355529
2.06108e-05
9.01239e-05
0.000338552
-0.000192553
0.000100532
0.000365622
-0.000591849
5.50284e-05
0.00039048
-0.000180257
6.34962e-05
0.000448982
-0.000328649
0.000148096
0.000459165
0.000152249
4.39237e-05
0.000501141
0.000136385
5.90177e-05
0.000580802
-0.000409493
3.35081e-05
0.000462836
-0.000317143
9.33376e-05
0.000377183
-0.000288911
0.000229793
0.000433279
3.30283e-05
0.000165826
0.000385415
-0.000141155
0.000150426
0.000322887
4.4763e-06
0.000190971
0.000358726
-1.03536e-05
4.15391e-05
0.000354211
-0.000284593
6.31596e-05
0.000367163
-9.06585e-06
7.97363e-05
0.000386478
-0.000157527
0.000110311
0.000362463
-0.000100493
0.00020897
0.000387735
-0.000238636
0.000100942
-0.000283326
0.000120994
0.000397862
4.04837e-05
9.20161e-05
0.000410936
0.0001181
6.91157e-05
0.000478047
0.00033017
2.79914e-05
0.000523126
0.000657792
0.000120734
0.000492092
-0.00025561
0.000124246
0.000514132
-0.000212115
0.000100636
0.000543614
0.000178929
0.000110485
0.000448882
-6.2127e-05
7.39358e-05
0.000444587
0.000487698
0.000116372
0.000423888
0.00012073
9.27494e-05
0.00038675
0.000277216
1.64581e-05
0.000431154
0.000151206
0.000107394
0.000474544
-0.000460037
0.000133101
0.000579359
-0.000256503
4.54605e-05
0.000550872
-0.000175875
0.000130455
0.000470001
-0.000232397
0.000171533
0.000523805
-0.00029196
0.000114074
0.000501316
2.22814e-05
0.000171576
0.000552679
-0.000316928
0.000119173
0.000571749
-0.000604545
-1.81253e-05
0.000460861
6.93168e-05
9.45015e-05
0.000431383
4.27663e-05
0.000154341
0.000450477
-0.000511856
9.18584e-06
0.000459229
-0.000144293
7.37468e-05
0.00047976
-0.000330485
0.000165308
0.000542308
8.51737e-05
5.93925e-05
0.000585499
0.000106619
2.31584e-05
0.000658816
-0.000345228
8.93239e-06
0.000551701
-0.000205854
8.38641e-05
0.000423279
-0.000332306
0.000255891
0.0004898
-0.000106332
0.000144867
0.000458792
-0.000200853
0.000162961
0.000383528
5.9277e-05
0.000193004
0.000446108
3.74735e-05
-1.3661e-05
0.000500013
-0.000316412
-2.82685e-05
0.000458445
1.72399e-05
1.12498e-05
0.000459969
-7.89134e-05
7.27505e-05
0.000475908
-0.000100079
0.000189414
0.000477833
-0.00018896
0.000112229
-0.000305986
0.000134223
0.000445666
-1.93993e-05
0.000127734
0.000441788
0.000103491
0.000101266
0.000525963
0.000272566
3.03116e-05
0.000605565
0.000664562
0.000114422
0.000552592
-0.000155882
0.000143392
0.000552936
-0.000163312
0.000102813
0.000579433
0.00027613
0.000110512
0.000467838
2.0792e-05
8.03613e-05
0.000472584
0.000436382
0.000149326
0.000452562
0.000122831
0.000102367
0.000424487
0.000304128
1.11627e-05
0.000489387
0.000247251
8.53972e-05
0.000517575
-0.000371044
9.94913e-05
0.000590011
-0.000336901
2.97576e-05
0.000567726
-0.000223409
0.000142916
0.000493755
-0.000171258
0.000198875
0.000592376
-0.000296245
7.2694e-05
0.000602717
-1.78323e-05
0.000155836
0.000637803
-0.00033266
0.000142005
0.000666217
-0.000559127
-4.51971e-05
0.000552244
0.000157774
4.28475e-05
0.00051106
0.000253212
0.000206077
0.000534879
-0.000390839
-1.96241e-05
0.000533315
-0.000112359
5.3551e-05
0.000536484
-0.000249771
0.000183496
0.00062507
-2.56418e-05
6.70642e-05
0.000664935
0.000106257
-1.89243e-05
0.000704616
-0.000222461
-2.52444e-05
0.000612522
-7.33256e-05
4.96272e-05
0.000497998
-0.000362129
0.000251726
0.00057931
-0.000258089
0.000162919
0.000521221
-0.000216833
0.00016292
0.00042262
0.000142389
0.000202898
0.000487632
4.70291e-05
2.06187e-05
0.00057311
-0.000324234
-5.17098e-05
0.000518788
5.36127e-05
-2.98241e-05
0.000508761
-1.06125e-05
6.71486e-05
0.000553996
-9.07836e-05
0.000204226
0.000574239
-0.000140338
9.14368e-05
-0.000331514
0.000106571
0.000540085
-6.65331e-05
0.000186523
0.000504509
4.96311e-05
0.000191425
0.000577032
0.00017207
6.76323e-05
0.000668953
0.000682443
0.000112952
0.000610154
-5.62205e-05
0.000156749
0.000596071
-0.000157704
0.00013229
0.000631611
0.000355234
0.000109285
0.000487207
0.000172575
8.02063e-05
0.000480391
0.000364911
0.000160841
0.000491215
5.26924e-05
0.000102631
0.00047381
0.000292948
3.70324e-05
0.000583955
0.000305181
7.53449e-05
0.000611214
-0.000272654
6.41336e-05
0.000617524
-0.000360408
2.79429e-05
0.000607561
-0.000299504
0.000176159
0.000573461
-0.000204791
0.000265683
0.00067697
-0.000278562
6.49817e-05
0.000706696
-3.61003e-05
0.000139677
0.000716476
-0.000301708
0.000133788
0.000704503
-0.000457158
-3.83098e-05
0.000618419
0.000199164
4.40073e-06
0.000600903
0.000424895
0.000168252
0.000611062
-0.000213207
-1.85724e-05
0.000604032
-7.08239e-05
2.01892e-05
0.000598418
-0.000136568
0.000156674
0.000641255
-6.85424e-05
3.95619e-05
0.000694997
0.000152405
-3.88051e-05
0.000751484
-0.00010269
-1.15256e-05
0.000694745
3.05683e-05
3.82146e-05
0.000588958
-0.000358481
0.000191455
0.000658978
-0.000388546
0.000187066
0.000597642
-0.000211266
0.000156746
0.00047832
0.000213628
0.000207347
0.000512878
5.59186e-05
7.68053e-05
0.000619688
-0.000298981
-3.83698e-05
0.00060583
7.00843e-05
-8.69951e-05
0.000564157
3.66365e-05
5.3448e-05
0.000594184
-5.43433e-05
0.000214129
0.000697552
-0.000125976
7.77687e-05
-0.00034938
6.30063e-05
0.00066017
-0.000100473
0.000211124
0.000619578
-5.97289e-05
0.000243807
0.000647016
0.000111052
7.34773e-05
0.000743194
0.000700851
8.12867e-05
0.000683161
8.36296e-05
0.000105911
0.000616287
-0.000119132
0.000118717
0.000695059
0.000354629
0.000129048
0.000575407
0.000280916
0.000125921
0.00054361
0.00036215
0.000180757
0.000568464
1.94851e-05
0.000111257
0.000521793
0.000257719
8.26267e-05
0.000631691
0.000349014
0.000102018
0.000704117
-0.00019232
6.06788e-06
0.000676494
-0.000359423
3.90877e-05
0.000623626
-0.000353377
0.000254762
0.000641348
-0.000302549
0.000309176
0.000756367
-0.000194453
7.86332e-06
0.000735578
5.1528e-05
7.76642e-05
0.000760202
-0.000279611
0.000119372
0.000739043
-0.000408228
-3.64677e-05
0.000652039
0.000277501
1.7336e-05
0.000657654
0.0005274
0.000149459
0.000646778
-2.08149e-05
-3.10109e-05
0.000630522
9.13191e-06
3.87111e-06
0.000629137
-4.05032e-05
0.000156779
0.00065143
-5.15232e-05
3.97904e-05
0.000739789
0.000209331
-3.70911e-05
0.000852318
-4.18065e-05
5.28156e-06
0.000861808
5.60163e-05
4.57707e-05
0.000730721
-0.000306899
0.000134468
0.000694446
-0.00039475
0.000196444
0.00064678
-0.00019925
0.000161327
0.000604301
0.000178703
0.000175141
0.000610854
6.23876e-05
0.000107876
0.000678429
-0.000260879
3.14662e-05
0.000725326
0.000125061
-0.000139833
0.000686081
8.83333e-05
5.89896e-05
0.000665965
-2.97042e-05
0.00024881
0.000789762
-6.73144e-05
6.89602e-05
-0.000291704
-9.79271e-07
0.000712998
-0.000126156
0.000240042
0.000686361
-0.000202844
0.000233815
0.000680386
8.4501e-05
7.13266e-05
0.000765648
0.000690798
9.77492e-05
0.000758355
0.000210414
9.84109e-05
0.000677539
1.47203e-05
7.71598e-05
0.000737381
0.000301896
0.000170448
0.000667577
0.00025396
0.000199868
0.000651511
0.000383696
0.000191444
0.00067382
0.000112315
7.57708e-05
0.000601578
0.000209823
0.000149262
0.000694836
0.000402262
0.000102829
0.000812872
-5.827e-05
-9.28647e-05
0.000726215
-0.000325479
7.5326e-05
0.000624601
-0.000406498
0.000292324
0.000684505
-0.00030109
0.000224655
0.000820224
-3.99336e-05
-5.23347e-05
0.000810343
0.000145291
5.32808e-06
0.000822269
-0.000233815
8.93699e-05
0.000814401
-0.000404753
2.45465e-05
0.000739357
0.000384237
2.63988e-05
0.000737794
0.000522709
0.000134404
0.000708207
0.00012724
-5.53639e-05
0.000664884
0.000109855
1.88338e-05
0.000629982
2.42468e-05
0.000179826
0.000695499
-1.37942e-06
5.13397e-05
0.000850018
0.000228816
-2.94094e-05
0.000995957
4.58394e-06
-1.2242e-05
0.00106149
5.98078e-05
1.98208e-05
0.000900047
-0.000181094
8.69079e-05
0.000777627
-0.00030495
0.000191535
0.000716057
-0.000161372
0.000183521
0.000729472
0.000126638
0.000121157
0.000708469
8.29054e-05
0.00014521
0.000676367
-0.00020937
0.000129322
0.000750151
0.000202338
-7.03819e-05
0.000782913
0.000169027
9.97816e-05
0.000814858
-4.58999e-05
0.000244533
0.000892023
2.20253e-05
7.09818e-05
-0.000173888
-6.15634e-07
0.000899737
-5.30678e-05
0.000121423
0.000775455
-0.000195955
0.000211958
0.000777463
5.6378e-05
7.93541e-05
0.000839813
0.000662735
0.000160946
0.000862607
0.000334166
0.000130408
0.000809781
0.000187269
4.39432e-05
0.00080135
0.000300111
0.000192031
0.000711009
0.000217847
0.000234871
0.000734379
0.000388236
0.000161443
0.000780236
0.000259065
-3.15442e-05
0.000689327
0.000147594
0.000172311
0.000772464
0.000403941
0.000110974
0.000941808
5.31694e-05
-0.000150138
0.000820344
-0.000226337
7.51561e-05
0.000657062
-0.000423411
0.000316866
0.000727341
-0.000227283
0.000193134
0.000831001
6.79548e-05
4.40823e-05
0.000905976
0.000125571
-1.00214e-05
0.0009044
-0.000135362
-6.82321e-06
0.000845827
-0.000286328
3.27408e-05
0.000799631
0.000347032
7.91747e-05
0.000840438
0.000440119
0.000152774
0.00081725
0.000197326
-2.53057e-05
0.00083681
0.000134516
-2.95466e-05
0.000795475
5.19683e-05
0.000137197
0.00078174
0.000110588
-3.94398e-06
0.000925075
0.000236195
3.51023e-05
0.00107779
3.25266e-05
3.19449e-05
0.00126345
-2.85739e-05
2.95813e-06
0.00116129
-5.80579e-05
1.67166e-05
0.000854849
-0.000114674
0.000218895
0.000748623
-0.000124722
0.000244347
0.000855633
0.000112081
-6.84218e-06
0.00084528
0.00010887
0.000155857
0.000772275
-0.000146459
0.000198524
0.000867324
0.00026557
-5.25511e-05
0.000874298
0.000322677
-2.46607e-05
0.00086233
-2.31775e-06
0.00023423
0.00100184
-2.81506e-05
0.000136983
-0.000154612
-0.0001056
0.000892963
0.000115159
0.000153697
0.000806704
-0.00018678
0.000169508
0.000815636
3.83231e-05
8.34301e-05
0.000921632
0.000604922
0.000255523
0.000925459
0.000517044
0.000167858
0.000884388
0.000330581
3.68493e-05
0.00100982
0.000265483
0.000132638
0.000902557
0.000261878
0.000196853
0.000799228
0.000532426
0.000102142
0.000868598
0.000318587
-3.28086e-05
0.000807197
6.98642e-05
0.000182114
0.000819116
0.000369423
0.00021099
0.00103034
3.39159e-05
-7.69884e-05
0.000973178
-0.000130769
8.55737e-06
0.000784129
-0.000397699
0.000318021
0.000808995
-7.03574e-05
0.000193893
0.00089049
0.000197547
4.32563e-05
0.00103904
-3.20622e-05
1.73714e-05
0.00103156
-1.94398e-05
-9.0272e-05
0.00095324
-8.80055e-05
-3.85688e-05
0.000940018
0.00031215
5.44112e-05
0.000949345
0.000448986
0.000130772
0.000924045
0.000186022
5.69391e-05
0.00102246
8.81061e-05
-4.18054e-05
0.00101685
9.01362e-05
9.6242e-05
0.000891583
0.000282669
-6.23058e-05
0.000909307
0.000348831
9.89482e-05
0.00108039
1.60283e-05
0.000129042
0.00137292
-0.000187013
4.55985e-05
0.00145378
-6.8434e-05
-2.26392e-05
0.00112416
5.13161e-05
0.000129498
0.000890567
-2.60958e-05
0.000296029
0.000942861
0.000129359
1.1885e-05
0.000851486
0.000181575
0.000137563
0.000776974
3.29072e-05
8.96081e-05
0.000965985
0.000305478
-0.000114447
0.00111468
0.00034226
-0.000105024
0.00114453
-4.53972e-06
8.98953e-05
0.00125015
-0.000109657
7.74813e-05
-2.45888e-05
-5.92199e-05
0.00110827
0.000155594
8.96555e-05
0.000973061
-9.35226e-05
7.59363e-05
0.000815243
0.000187494
5.18084e-05
0.000959909
0.000558989
0.000296684
0.00102217
0.000555929
0.000176305
0.000895407
0.000453689
3.81396e-05
0.000932263
0.000360237
8.03401e-05
0.000943605
0.000288335
0.000181236
0.000990463
0.000589359
7.66492e-05
0.00112705
0.000216417
-1.11171e-05
0.00110531
-3.81536e-05
0.00015119
0.00102723
0.000389606
0.00019181
0.00110533
0.000147098
-4.48154e-05
0.0010805
1.02215e-05
2.4766e-05
0.00091271
-0.000337386
0.000278802
0.000902307
9.85387e-07
0.000280201
0.000941773
0.000315899
8.06328e-05
0.00112755
-0.00018351
-2.80538e-05
0.00122727
7.28386e-05
-0.000246877
0.00105086
0.000193528
-5.81217e-05
0.00113692
0.000262282
9.40919e-05
0.00124046
0.000342477
0.00011012
0.00113321
0.000213679
6.7472e-05
0.00109358
0.000201835
-0.000109624
0.000970215
0.000238192
0.000179582
0.000951347
0.000297854
0.000109695
0.00116507
0.000332611
5.74703e-05
0.00133983
-5.56896e-05
0.000110336
0.00138883
-0.000185802
0.000131033
0.00126369
0.000133062
-4.23201e-06
0.000945382
0.000158854
0.00019219
0.000843116
-0.000105847
0.00039166
0.000951333
0.000157029
-4.62601e-05
0.000925191
0.000274567
-4.25273e-05
0.000931203
0.00020015
-0.000121346
0.00107084
0.000470287
-0.000253697
0.00123632
0.000453743
-0.000255242
0.00123648
2.67476e-05
-2.54549e-05
0.0012051
-8.45211e-05
9.84495e-05
9.26592e-05
-4.97545e-05
0.00126114
0.000330255
-2.25874e-05
0.00110854
7.10659e-05
5.12359e-05
0.000968829
0.000258914
8.37463e-05
0.000980554
0.000640418
0.000204304
0.00108344
0.000537637
0.000153891
0.00118117
0.000293006
0.00010767
0.00128174
0.000440423
-1.10921e-05
0.00119843
0.000402382
-5.91993e-06
0.00108811
0.000725168
-2.29159e-05
0.00117978
0.000154832
8.30578e-07
0.00102794
4.36844e-06
0.000134678
0.000996178
0.000407319
0.000259579
0.00126669
3.34377e-05
0.0001095
0.00132865
0.000107606
9.59943e-06
0.00101366
-8.91226e-05
0.000251227
0.000902613
-6.29745e-07
0.000449259
0.00122245
5.80179e-05
0.000126754
0.00128048
-0.000294646
-6.80084e-05
0.00106289
0.000433578
-7.60759e-05
0.00103682
0.000331889
5.01324e-05
0.00119398
9.17349e-05
0.00014017
0.00129378
0.000236661
0.000165277
0.00130534
0.00011122
0.000139547
0.00125666
0.000218859
-4.60435e-05
0.00114275
0.000423355
0.000113825
0.0010653
0.000408929
7.323e-05
0.00122862
0.000409954
-3.3059e-05
0.00145906
-4.97026e-05
9.19479e-06
0.00161678
-0.000351744
0.000272667
0.00156161
0.000281051
5.41621e-06
0.0011502
0.000489063
-3.93568e-06
0.000938995
-6.58322e-05
0.00039932
0.00108799
7.57265e-05
0.00020097
0.00102683
0.000424892
3.0144e-05
0.000869949
0.000558065
-0.000105339
0.00111791
0.000477535
-0.00024448
0.0015267
0.000284043
-0.000427967
0.00150902
0.000112439
-0.000213382
0.00141596
-6.25319e-05
4.29827e-05
0.000104368
-6.85314e-05
0.00127075
0.000596366
0.000119183
0.00108119
0.00033205
1.75211e-06
0.00105514
0.000189996
9.68866e-05
0.00100869
0.0006194
0.000188641
0.00106583
0.000493188
9.67594e-05
0.00112008
0.000266075
7.05968e-05
0.00127359
0.000454605
-3.54361e-05
0.00151782
0.000105316
1.23997e-05
0.00155304
0.000647049
-3.98892e-05
0.00175661
9.06925e-05
-2.72562e-05
0.00148534
0.000122302
-1.24926e-05
0.00114131
0.000762474
7.32425e-05
0.00130484
-5.89376e-05
0.000319375
0.00147911
7.11407e-05
0.000181516
0.00136423
0.000158093
0.000147721
0.00111859
0.000129238
0.00036537
0.0011594
-5.86391e-05
0.000208774
0.00141128
-0.000567944
0.000118408
0.00144261
0.000372128
2.20911e-05
0.00133973
0.000474307
-3.47564e-05
0.00142796
2.97687e-05
3.10605e-05
0.00165472
2.31092e-05
0.000106144
0.0015855
2.80555e-05
0.000203686
0.00128298
0.00043212
2.01947e-05
0.00111923
0.000662483
3.42941e-05
0.00107959
0.000553012
-4.87688e-06
0.00121849
0.000618492
-4.29057e-05
0.0015475
0.000107703
-0.000196135
0.0016132
-0.000390497
0.000244113
0.00161163
0.000333678
0.000177442
0.00155173
0.00054606
-0.000194551
0.00129784
6.61438e-05
0.000186168
0.00118122
0.00021777
0.000419712
0.00120112
0.000406233
0.000105725
0.00116812
0.000519802
-1.42338e-05
0.00120136
0.000420793
-2.589e-05
0.00163857
6.08556e-05
-0.000248334
0.00171385
0.000197637
-0.000206401
0.0015656
8.16631e-05
2.42387e-05
8.09931e-06
0.000168119
0.00152311
0.000290667
0.000434307
0.00145656
0.000232996
7.05967e-05
0.00119681
0.000258239
0.000127365
0.00117567
0.000569813
0.000142082
0.00140373
0.00026254
-2.63284e-05
0.0013753
0.000231587
0.000153814
0.00133654
0.00067623
1.53891e-05
0.00156024
-9.18888e-05
9.00388e-05
0.00174245
0.000369291
5.62379e-05
0.00163893
0.000296445
6.49265e-05
0.00142485
0.000146223
0.000167748
0.00142596
0.000712169
0.000112965
0.00153456
-2.71165e-05
0.000317117
0.00153877
0.000169828
0.000244057
0.00126402
0.000406376
0.000220066
0.00131825
-6.67884e-06
0.000427387
0.00143483
-0.000241796
0.000271126
0.00143093
-0.000605246
0.000382003
0.00180394
8.28184e-06
0.000229434
0.00184196
0.000565002
-0.000128556
0.00141871
0.000447287
3.29321e-06
0.00156289
-0.000140616
0.000244146
0.00170184
-0.000202465
0.000275725
0.00138735
0.000650953
0.000101511
0.00149276
0.000769076
-0.000103774
0.00167221
0.000357751
-0.000120503
0.00176905
0.000635831
1.37013e-05
0.00188759
0.000350847
-8.72495e-05
0.00164831
-0.00018988
0.000253836
0.00166207
0.000365558
0.000269642
0.00154462
0.00075244
-0.000160179
0.00127924
0.000290731
0.000159889
0.00136049
0.000129375
0.000471354
0.00129931
0.000298764
0.00031674
0.00119219
0.000372128
0.00026566
0.00122585
0.000255371
0.000106652
0.00158635
-0.000311324
-6.14138e-06
0.00183751
-8.61966e-05
9.84373e-05
0.00161942
0.000358086
-9.82388e-05
8.80302e-05
0.00015998
0.00174177
-6.1428e-05
0.000428536
0.00190263
-3.71708e-05
0.000101552
0.00159195
0.000469736
2.52256e-05
0.00150249
0.000677049
0.000114302
0.0017537
-6.89102e-06
-1.85733e-06
0.00158904
0.000430428
8.36243e-05
0.00153786
0.000839364
3.94677e-05
0.00168833
-0.00020242
3.44805e-05
0.00178059
0.000260292
0.000145269
0.00173307
0.000498517
7.88423e-05
0.00162207
0.000262715
4.69224e-05
0.00172572
0.000515846
0.000107334
0.00180267
-7.59353e-05
0.000173751
0.00149579
0.000448259
0.000142852
0.00125294
0.000592963
0.000223806
0.00135661
-0.000173798
0.000535499
0.00139123
-0.000289768
0.000497065
0.00142599
-0.000493945
0.000288104
0.00149659
0.000104915