/*--------------------------------*- C++ -*----------------------------------*\
  =========                 |
  \\      /  F ield         | OpenFOAM: The Open Source CFD Toolbox
   \\    /   O peration     | Website:  https://openfoam.org
    \\  /    A nd           | Version:  10
     \\/     M anipulation  |
\*---------------------------------------------------------------------------*/
FoamFile
{
    format      ascii;
    class       volScalarField;
    location    "40";
    object      pPrime2Mean;
}
// * * * * * * * * * * * * * * * * * * * * * * * * * * * * * * * * * * * * * //

dimensions      [0 4 -4 0 0 0 0];

internalField   nonuniform List<scalar> 
25600
(
0.000630738
0.000602577
0.000668008
0.000755204
0.000726019
0.000716476
0.000759681
0.000874724
0.00085299
0.000698724
0.000633852
0.000664093
0.000697437
0.000797679
0.000707402
0.00063439
0.000695961
0.000775593
0.000789061
0.000676066
0.000750897
0.000817018
0.000798938
0.00078959
0.000760054
0.000726404
0.000686036
0.000640722
0.000682201
0.00070416
0.00076798
0.000829792
0.000677341
0.000668221
0.000678585
0.000777745
0.000879318
0.000799201
0.000781914
0.000738862
0.000609263
0.000776043
0.000891965
0.000836056
0.000728717
0.000721541
0.000723209
0.000712806
0.000684036
0.0006599
0.000641047
0.00067452
0.000769075
0.000697911
0.000542418
0.000552182
0.000611127
0.000628368
0.000619331
0.000589014
0.000595235
0.000614553
0.000572287
0.000554516
0.000504827
0.000486801
0.000606046
0.000644939
0.000747659
0.000793962
0.00063538
0.000555536
0.000581463
0.000630095
0.000671899
0.000652758
0.000607377
0.000574214
0.000667555
0.00064044
0.000422013
0.000487898
0.000539082
0.000488153
0.000473693
0.000489476
0.000505722
0.000485728
0.000414244
0.000408915
0.000413317
0.000434815
0.000445114
0.000407204
0.000472715
0.000477572
0.000468178
0.000501042
0.000501362
0.000444965
0.000381839
0.000471156
0.000548131
0.000500994
0.000394556
0.000405799
0.000433498
0.000424461
0.000436951
0.000421322
0.000481395
0.000551503
0.000502865
0.000485202
0.000520811
0.000504478
0.000472846
0.000496423
0.000510013
0.00045341
0.000528528
0.000563526
0.000605136
0.000482045
0.000444849
0.000461696
0.00041815
0.000471985
0.000505257
0.000447116
0.000448737
0.000531035
0.000518942
0.000497418
0.000484587
0.000424716
0.000447073
0.000490663
0.000432114
0.000418859
0.000468752
0.000517031
0.000513841
0.000467234
0.000462072
0.000521079
0.00048106
0.000439926
0.000392636
0.00039875
0.000452795
0.000484297
0.00049584
0.000483517
0.000432967
0.000412325
0.000472491
0.000514927
0.000584868
0.000576026
0.000423866
0.000555268
0.000576325
0.000494049
0.000441009
0.000396728
0.000423506
0.000448216
0.000400607
0.000369657
0.000468226
0.000493723
0.00043665
0.000462694
0.000444485
0.000390891
0.000402094
0.000455513
0.000454077
0.000437321
0.000425134
0.000471242
0.00046789
0.000392902
0.000423191
0.000479175
0.000459511
0.000413133
0.000414993
0.000410492
0.000463432
0.000478339
0.000423842
0.00041491
0.000418973
0.000493576
0.000624042
0.000577019
0.000491597
0.00042542
0.00050434
0.000516912
0.000447146
0.00041737
0.000394132
0.000409218
0.000398769
0.000410936
0.000421641
0.000407021
0.000422498
0.000392458
0.000314068
0.000379763
0.000423552
0.000411605
0.000481786
0.000411557
0.000342169
0.000352656
0.000370045
0.00045336
0.000470783
0.00036976
0.0004774
0.000495691
0.000422632
0.000434965
0.000446805
0.000449536
0.000432244
0.00045237
0.000456066
0.000474526
0.000492196
0.000538344
0.000616585
0.000564882
0.000444368
0.000397664
0.000429673
0.000414864
0.0003985
0.000346483
0.000381998
0.000403779
0.000394851
0.00043969
0.000371508
0.000330133
0.000463325
0.000451752
0.000396108
0.000416139
0.000405179
0.000453024
0.000395728
0.000330544
0.000351737
0.000370533
0.000403829
0.000476431
0.000481864
0.000392457
0.000338725
0.000369235
0.000390754
0.000353524
0.000409078
0.000464703
0.00042848
0.000441673
0.000410965
0.000348518
0.000349642
0.000439773
0.000445292
0.000403894
0.000431886
0.000475725
0.000374083
0.000340784
0.000325895
0.000363274
0.000390951
0.000401593
0.000435427
0.000380667
0.000330395
0.00037316
0.0004204
0.000394901
0.000416565
0.000418541
0.000366005
0.000402735
0.000389759
0.000349929
0.000359348
0.00035226
0.000358709
0.000411225
0.000405879
0.000313331
0.000299592
0.000391299
0.000369072
0.00033814
0.000403971
0.000393743
0.000382996
0.000380733
0.00035879
0.000382547
0.000412119
0.000375559
0.000392216
0.000474682
0.00045802
0.00041129
0.00041246
0.000409838
0.00034085
0.00026275
0.000298349
0.000391755
0.000352996
0.000300123
0.000330391
0.000337128
0.000339398
0.000367347
0.000395008
0.000365341
0.000358871
0.000378467
0.000313079
0.000325638
0.000393341
0.000372089
0.000357556
0.000363794
0.000318647
0.00029097
0.000320054
0.000331835
0.000289425
0.000320524
0.000415319
0.000406719
0.000344957
0.000319604
0.000324102
0.000359531
0.00033365
0.00031414
0.00041085
0.000485566
0.000429008
0.000415669
0.000322451
0.000381849
0.000339421
0.000302393
0.000381564
0.000369498
0.00031141
0.000324671
0.000315945
0.000331453
0.000360058
0.000299762
0.000369052
0.000409037
0.000320939
0.00033192
0.00034051
0.000392319
0.000448048
0.000399828
0.000366123
0.000399263
0.000398147
0.000353546
0.000328102
0.00031332
0.000300384
0.000352626
0.000419324
0.000361376
0.000338857
0.000330078
0.00029787
0.000343427
0.000337637
0.000317144
0.000355058
0.000417199
0.000399117
0.000333382
0.000350296
0.00035177
0.000325569
0.000299722
0.000366796
0.000340378
0.000313505
0.000359532
0.000377065
0.000360096
0.000324807
0.000328563
0.000391913
0.000400781
0.000301892
0.000315851
0.000342292
0.00035172
0.000386349
0.000402776
0.00035649
0.000375302
0.00039075
0.000308647
0.000314318
0.000314724
0.000291456
0.000308252
0.000353753
0.000368931
0.000359294
0.000347068
0.000360396
0.000374869
0.000349305
0.000307176
0.000335714
0.000390525
0.000377037
0.000357849
0.000384985
0.000368999
0.000312604
0.000303588
0.000409843
0.000377212
0.00027931
0.000340037
0.00037278
0.000360572
0.000334427
0.000369878
0.000380411
0.000390843
0.000329287
0.000327832
0.000333344
0.000359971
0.000373215
0.000350715
0.000327592
0.000335346
0.000334964
0.000292716
0.000292829
0.000277359
0.000273517
0.000295568
0.000393492
0.000427904
0.000335471
0.0003158
0.000323447
0.000339277
0.000359104
0.000319284
0.000334963
0.000341872
0.000335487
0.00038732
0.000370156
0.000353262
0.000295308
0.00034209
0.000449895
0.000373038
0.000315889
0.000391551
0.000357574
0.000368798
0.000397378
0.00040005
0.000374876
0.000374514
0.000357594
0.000349553
0.000319919
0.00037399
0.000403659
0.000400425
0.000391563
0.000400637
0.000401613
0.000313825
0.000272467
0.000299762
0.000333298
0.000348699
0.000391313
0.000381656
0.000349489
0.000328587
0.000280805
0.000309801
0.000329532
0.000321263
0.000365542
0.000351451
0.00032278
0.00036354
0.000403348
0.000397204
0.000329308
0.00039081
0.000516501
0.000412602
0.000350449
0.000419083
0.000409385
0.000392774
0.000418186
0.000411269
0.000409802
0.000403664
0.000370431
0.000309338
0.000308613
0.00036799
0.000415685
0.000418827
0.000385466
0.000380381
0.000384777
0.000307871
0.000332957
0.000381887
0.000371433
0.000346419
0.000375486
0.00037442
0.000350553
0.000329477
0.000283484
0.000332504
0.000373163
0.000381857
0.000393861
0.000389689
0.000353179
0.000369341
0.000428896
0.000415405
0.000384781
0.000460024
0.000512941
0.000382537
0.000317248
0.000376629
0.000382391
0.000389855
0.000437843
0.000417557
0.000398145
0.00037712
0.00035406
0.000350935
0.000401059
0.000433988
0.000453493
0.000423106
0.000377561
0.000371351
0.00039129
0.000372272
0.000413509
0.000427369
0.000391272
0.000366466
0.000405059
0.000365043
0.000353338
0.000332055
0.000301389
0.000396255
0.0004209
0.000387052
0.000405837
0.00041558
0.000417428
0.000451843
0.000410247
0.00042199
0.000398633
0.000508759
0.000551161
0.000409776
0.000322492
0.000377765
0.000417278
0.00044661
0.000475481
0.000454545
0.00044182
0.000453224
0.00039813
0.000385091
0.000449393
0.000458446
0.000516935
0.000468623
0.000377736
0.000362097
0.000386413
0.00041562
0.00048305
0.000498296
0.000417084
0.000423962
0.000432059
0.000373734
0.000392865
0.000374242
0.000333084
0.000426375
0.000445259
0.000411095
0.000410574
0.000407933
0.000437487
0.000467701
0.000423318
0.000445576
0.000440427
0.000579163
0.000585463
0.000420646
0.000345702
0.000405871
0.000455808
0.000458307
0.000536055
0.000532465
0.000485217
0.000475179
0.000423219
0.000400861
0.000499694
0.000475452
0.000503136
0.000479856
0.000389372
0.00036916
0.000368787
0.00043629
0.000526379
0.000526757
0.000429069
0.000436249
0.000443739
0.000434875
0.00045033
0.000412795
0.000373524
0.000443221
0.00046112
0.000419171
0.000406159
0.000431153
0.000495237
0.000489612
0.000484746
0.000508184
0.000498206
0.000623914
0.000645195
0.000480665
0.0003895
0.000437513
0.000481094
0.000476802
0.000591304
0.000625495
0.000573411
0.000513505
0.00045175
0.000436982
0.000534618
0.000531045
0.000504095
0.000497288
0.000428772
0.000422107
0.000420709
0.000497225
0.000549795
0.000536157
0.000458434
0.000468084
0.00044986
0.000454575
0.000509506
0.000470343
0.00043941
0.000455993
0.000484683
0.000438536
0.000383476
0.000425474
0.000520078
0.000508686
0.000532928
0.000565262
0.000517722
0.000606735
0.00067249
0.000550425
0.000465523
0.000512851
0.000543322
0.000550198
0.00063574
0.000657229
0.000633744
0.000553741
0.000462029
0.000448713
0.000586278
0.000607382
0.000539037
0.000505337
0.000452686
0.000472862
0.000458455
0.000533118
0.000568359
0.000542693
0.000493738
0.0004868
0.000466583
0.000506562
0.000592985
0.000560116
0.000506998
0.00049232
0.000516475
0.000469973
0.000373008
0.000419967
0.000562591
0.000545248
0.000610134
0.000613017
0.000542572
0.000621681
0.00069313
0.000616376
0.000544766
0.000594209
0.000605756
0.000650518
0.000673167
0.00071041
0.000680746
0.000603619
0.000499486
0.00048418
0.000615023
0.000652737
0.000593287
0.00053893
0.000518709
0.000517835
0.000513849
0.000573665
0.000579107
0.000569243
0.000579459
0.000550112
0.00054368
0.000592442
0.000673784
0.000651484
0.000582739
0.000524553
0.000549049
0.000517006
0.000419549
0.000468222
0.000612371
0.000619897
0.000685895
0.000622783
0.000595064
0.000661436
0.000709093
0.00065073
0.00061349
0.000656092
0.000653437
0.000733619
0.000730209
0.000804456
0.00080125
0.000674943
0.000539087
0.000539095
0.000657179
0.000690492
0.000655473
0.000610988
0.000596809
0.000598914
0.000582653
0.000637659
0.000599869
0.000622302
0.000669424
0.000647557
0.000629567
0.000674735
0.000717457
0.000733861
0.000688466
0.000640846
0.000644419
0.000578663
0.000502658
0.000574254
0.000672369
0.000674556
0.000744832
0.000693928
0.00068692
0.000729235
0.000764106
0.000741353
0.000722693
0.000749059
0.000748031
0.000809074
0.000782328
0.000889179
0.000915021
0.000746779
0.000581891
0.000602588
0.000716489
0.000748965
0.000711756
0.000722018
0.000706815
0.000691795
0.000659554
0.000702131
0.000671527
0.000695269
0.000749642
0.0007413
0.000711071
0.000773183
0.000751702
0.000748881
0.000794472
0.000774695
0.000748612
0.00065226
0.000615745
0.0007208
0.00076234
0.000732098
0.000824773
0.000804736
0.000794009
0.0008188
0.00086525
0.000886637
0.000837077
0.000878183
0.000880158
0.000903446
0.000873108
0.000955304
0.000966073
0.000829861
0.000650749
0.000701986
0.000796075
0.000846405
0.000769563
0.000826897
0.00081951
0.000781668
0.000740746
0.000772801
0.000783572
0.000822688
0.000851605
0.000828957
0.000824117
0.000877106
0.000858817
0.000805345
0.000889924
0.000877436
0.000858061
0.000777536
0.000757121
0.000886747
0.00087918
0.00080401
0.000939993
0.000926208
0.000916041
0.000941178
0.00100735
0.00100433
0.000961877
0.00101047
0.00104162
0.00102816
0.00100783
0.00106428
0.00107361
0.000944943
0.000752353
0.000810534
0.000910525
0.000967598
0.000845804
0.000915637
0.000966479
0.000886379
0.000829675
0.000862656
0.000901446
0.000936252
0.000989461
0.000954839
0.000999462
0.00102662
0.000987487
0.000947344
0.000999055
0.000966381
0.000968957
0.000928318
0.000940289
0.00108922
0.00103394
0.000919345
0.00105914
0.00106482
0.0010746
0.00108985
0.001159
0.00111351
0.00112005
0.00115456
0.00120945
0.00113186
0.00111482
0.0011915
0.00122356
0.00109236
0.000917117
0.000960276
0.00108416
0.00109655
0.000928784
0.00100386
0.00112865
0.00101232
0.000952929
0.000964386
0.00103363
0.00104791
0.00110718
0.00109389
0.00117385
0.00120318
0.00112543
0.00113746
0.00116567
0.00109235
0.00109298
0.00105034
0.00111001
0.00125324
0.00118581
0.00103994
0.00119097
0.00124858
0.00125354
0.00124427
0.00129347
0.00125062
0.0012772
0.00128633
0.00134881
0.00122803
0.00119889
0.00132613
0.00136346
0.00122631
0.00109027
0.00111503
0.00124579
0.00119476
0.0010297
0.001142
0.00127815
0.00115861
0.00107808
0.00108622
0.00118773
0.00118856
0.00118596
0.00124394
0.00131533
0.00136381
0.00128262
0.00133264
0.0013497
0.00124033
0.00120594
0.00113934
0.00127086
0.00139849
0.00130757
0.00116373
0.00133981
0.00142652
0.00145709
0.00140445
0.00144804
0.0013839
0.0013885
0.00139903
0.00145219
0.00133806
0.00135055
0.00149113
0.00151068
0.0013489
0.00127519
0.00128236
0.00139773
0.00129961
0.00113885
0.0012939
0.00140761
0.00132488
0.00120298
0.00120994
0.0013313
0.00129625
0.00125796
0.00138709
0.00145548
0.00151191
0.00140225
0.0015208
0.00153566
0.00139272
0.00131238
0.0012428
0.00143039
0.00154955
0.00142868
0.00128306
0.00150516
0.00159855
0.00167199
0.00157829
0.00158641
0.00149829
0.00147632
0.00149868
0.00154494
0.00146277
0.00154291
0.00167103
0.00166525
0.00144417
0.00141101
0.00142247
0.00149448
0.00139969
0.00124679
0.00141098
0.00148954
0.00143408
0.00132011
0.00131761
0.00145527
0.00139592
0.00131853
0.00151085
0.00159715
0.00162837
0.00153714
0.00162606
0.00169016
0.00153417
0.00145186
0.00135776
0.00157581
0.00169396
0.00157183
0.00139658
0.00165651
0.00175659
0.00186366
0.00173606
0.00169153
0.00160636
0.00155868
0.0015762
0.00161772
0.00157896
0.00167854
0.00181104
0.00178981
0.00151574
0.00147908
0.00150806
0.00155518
0.00147825
0.00133682
0.00148805
0.00153295
0.00149179
0.00139685
0.00136424
0.00153228
0.00147664
0.00136692
0.00159652
0.0017024
0.00169046
0.0016238
0.00167807
0.00176982
0.00164147
0.00157118
0.0014548
0.00168411
0.00178309
0.00168701
0.00151076
0.00174772
0.00185924
0.00195973
0.0018177
0.00175282
0.00166349
0.00160808
0.00159245
0.00164709
0.0016521
0.00175501
0.0018826
0.00185786
0.00156071
0.00152247
0.00155648
0.00158898
0.00152889
0.00138458
0.00152842
0.00157283
0.00152652
0.00142155
0.00138292
0.0015837
0.00151968
0.00140033
0.001629
0.00176208
0.00174969
0.00165096
0.00170116
0.00178044
0.0017079
0.00163275
0.00150225
0.0017427
0.00178961
0.0017284
0.00157705
0.00177274
0.00189928
0.00198337
0.00183521
0.00177732
0.00167931
0.00162654
0.00157714
0.00164418
0.00167276
0.00179387
0.00189937
0.00187588
0.0015735
0.00154556
0.00158163
0.00159943
0.00154133
0.00139176
0.00153787
0.0016017
0.00154263
0.00142921
0.00140233
0.00161468
0.00154412
0.00141865
0.00163828
0.00177586
0.00178609
0.00166528
0.00170213
0.00176176
0.00173287
0.0016629
0.00151433
0.00177084
0.0017864
0.00173405
0.00160287
0.00175018
0.00188202
0.0019518
0.0018093
0.00175276
0.00166103
0.00161017
0.0015526
0.00162347
0.00165443
0.00177452
0.00187136
0.0018464
0.00155144
0.00152473
0.00155871
0.00157962
0.00152242
0.00137503
0.00152144
0.00158769
0.00152437
0.00141181
0.00139298
0.0015966
0.00152667
0.00140616
0.00162308
0.00175058
0.00176567
0.00164356
0.00167763
0.00173163
0.00171587
0.00164383
0.00149935
0.00174842
0.0017607
0.0017144
0.00158304
0.000729919
0.000710092
0.000694775
0.000690365
0.000671917
0.000806168
0.000804882
0.000774529
0.000750335
0.000793126
0.000878828
0.000811557
0.000727078
0.000719113
0.00069877
0.000716813
0.000723541
0.000720627
0.000704421
0.000666048
0.000727105
0.000815088
0.000704294
0.000679533
0.000724911
0.000713198
0.00067332
0.000594123
0.00055362
0.000593387
0.000629546
0.000636708
0.000650061
0.000594149
0.000654567
0.00079098
0.000801171
0.000746053
0.000731597
0.000685476
0.000370758
0.000437118
0.000493573
0.000423648
0.00037375
0.000410403
0.000454932
0.000435339
0.000397868
0.000418004
0.000443729
0.00043133
0.000396057
0.000368873
0.000378011
0.000413087
0.000456104
0.000478517
0.000480256
0.000460209
0.00043616
0.000476215
0.000410954
0.000390686
0.000489068
0.000480167
0.000429807
0.000379217
0.000354716
0.000364772
0.000354693
0.000414731
0.000464484
0.000500248
0.000516238
0.000540001
0.000482037
0.000396157
0.000413642
0.000404761
0.00033733
0.000336599
0.000313204
0.000278941
0.000309044
0.000336778
0.000326841
0.000297568
0.000301598
0.000301315
0.000287611
0.000281943
0.000295861
0.000321677
0.000321949
0.000319871
0.000330826
0.000292221
0.000332153
0.000326255
0.000315323
0.000348177
0.000345025
0.000326782
0.000343814
0.000360251
0.000357776
0.000343331
0.000321171
0.000309833
0.000321305
0.000324286
0.000314494
0.000294676
0.00030781
0.00034798
0.000320299
0.000270947
0.00029314
0.000329574
0.000314946
0.000347344
0.000363916
0.000283552
0.000300499
0.000320141
0.000283177
0.000284654
0.000294616
0.000265077
0.000278557
0.000332476
0.000323247
0.000306579
0.000296154
0.000284373
0.000294494
0.000321555
0.000288563
0.000248136
0.000277847
0.000319235
0.000262411
0.000246055
0.00028861
0.000332231
0.000298875
0.000289532
0.000277495
0.000288344
0.000317787
0.000313505
0.000318183
0.000291644
0.00028712
0.00037024
0.000396811
0.000349984
0.000368572
0.000337705
0.000308447
0.000375602
0.000385991
0.000373531
0.000364269
0.000310375
0.000273535
0.000300627
0.000353825
0.000339596
0.000318044
0.00034257
0.000350455
0.000337289
0.000292229
0.000245249
0.000257449
0.000309922
0.000315187
0.000319668
0.000321157
0.000270894
0.000312231
0.000316459
0.000252842
0.000250734
0.000293614
0.000324506
0.000303375
0.000278408
0.000283327
0.000302752
0.000326102
0.000311207
0.000328657
0.000368573
0.000356055
0.000355022
0.000359407
0.000300726
0.000323579
0.000337003
0.000335407
0.000285057
0.000287069
0.000317634
0.000329527
0.000296712
0.000289459
0.000317939
0.000331339
0.000331982
0.000342233
0.000328274
0.000306047
0.000260662
0.000294887
0.000348458
0.000294531
0.000270679
0.000296858
0.000338444
0.000339772
0.000276506
0.000288131
0.000333035
0.000301118
0.000276501
0.000291759
0.000309956
0.000327788
0.000344257
0.000319426
0.000330207
0.000365815
0.000328212
0.000328848
0.000400637
0.000345456
0.000275789
0.000364178
0.000397616
0.000367119
0.000332065
0.000324194
0.000365557
0.000398671
0.000397829
0.000402981
0.000388799
0.000383775
0.000397776
0.000394958
0.000340523
0.000314761
0.000310857
0.000328185
0.000330721
0.000353186
0.000340142
0.000307091
0.000286104
0.000255559
0.000304093
0.000341563
0.00032958
0.000305704
0.000298071
0.000319418
0.000356715
0.000321428
0.00036652
0.000334261
0.000344927
0.000355296
0.000303038
0.000367121
0.000415245
0.000339334
0.000369076
0.00035937
0.000377123
0.000370738
0.000339011
0.000412876
0.000443322
0.000421167
0.000419778
0.000399608
0.000407629
0.000412831
0.000416844
0.000372179
0.00028488
0.000317497
0.000340632
0.000283544
0.000279561
0.000309064
0.000273211
0.000314678
0.00037723
0.00037481
0.00038464
0.000377507
0.000300974
0.000270181
0.00030572
0.00033913
0.000357627
0.000372215
0.000366017
0.000335541
0.000331808
0.000345182
0.000348703
0.000371014
0.000396678
0.000420868
0.000362984
0.000389231
0.000393082
0.000367066
0.000349279
0.000368221
0.000422786
0.000469498
0.000329969
0.000366621
0.00043553
0.000418463
0.00039106
0.000339689
0.000319103
0.000340398
0.000345426
0.000299726
0.00030079
0.000388286
0.000320541
0.000328893
0.00035393
0.000387557
0.000388356
0.000365386
0.000320304
0.000339166
0.000349538
0.000375813
0.000428278
0.000390933
0.000415295
0.000430465
0.000364065
0.000326511
0.000299008
0.000391533
0.000420945
0.000393887
0.000362076
0.000370842
0.000372725
0.000415685
0.000455613
0.000525382
0.000502975
0.000380665
0.000349229
0.000384339
0.000458653
0.00040451
0.00032927
0.000354382
0.000374598
0.000426881
0.000439535
0.000345491
0.000350714
0.000418254
0.000417918
0.000482228
0.000502222
0.000466472
0.00048135
0.000439248
0.000378141
0.000371292
0.00036619
0.000468632
0.000389002
0.000395202
0.000446478
0.000366815
0.000362504
0.00036707
0.000350493
0.000343338
0.000381573
0.000352136
0.000382456
0.0003541
0.00037313
0.00039299
0.000426916
0.000440638
0.000440616
0.000407262
0.000382229
0.000411832
0.000430917
0.000359878
0.000471582
0.000475711
0.000430243
0.000430115
0.000405841
0.000367065
0.000373034
0.000411514
0.000425953
0.000403754
0.000391171
0.000419069
0.000447193
0.000404143
0.000326911
0.000310063
0.000323344
0.000392752
0.000367464
0.000360293
0.000371344
0.000324305
0.000353726
0.00033516
0.000325705
0.000341616
0.000372881
0.000372344
0.000375141
0.000314017
0.000349934
0.000446215
0.000406868
0.000434304
0.000485369
0.000434315
0.000349674
0.000408374
0.000384903
0.000386848
0.000504284
0.000477919
0.000340661
0.000368801
0.00046677
0.000348324
0.00031798
0.000362642
0.000354943
0.00035889
0.000365161
0.000371897
0.000335194
0.00036917
0.000346184
0.000310068
0.00032008
0.000389958
0.000390801
0.000366443
0.000359403
0.000348043
0.000310413
0.000322636
0.000376008
0.000376787
0.000377897
0.000425452
0.000359875
0.000358584
0.000383777
0.000425032
0.000514456
0.000596805
0.000552245
0.000457763
0.000359256
0.000404926
0.000348764
0.000372777
0.00046182
0.00043089
0.000402249
0.000416603
0.0004096
0.000353011
0.000347477
0.000341733
0.000372802
0.000459561
0.000419742
0.000363475
0.000352413
0.000415233
0.000322602
0.000303714
0.000360707
0.000372391
0.000339031
0.00038076
0.000359542
0.000309697
0.000295912
0.000329345
0.000379424
0.000352581
0.000394058
0.000467697
0.000397917
0.000376118
0.000372473
0.000386346
0.00044951
0.000520513
0.00047551
0.000432611
0.000417767
0.000429048
0.000377868
0.000433006
0.000444564
0.000443554
0.000399592
0.000384533
0.000358118
0.000360549
0.000371997
0.000395149
0.000420903
0.000447272
0.000428393
0.000390111
0.000376479
0.000405151
0.000367019
0.000345562
0.000389929
0.000432262
0.000322298
0.000402641
0.000386697
0.000349454
0.000337991
0.000385239
0.000425654
0.000360868
0.000448
0.000496714
0.000422746
0.000437638
0.00042253
0.0004135
0.000418799
0.000474037
0.000455089
0.000476086
0.000472682
0.000429517
0.000389204
0.000501267
0.000491267
0.00041481
0.000381556
0.000401269
0.000400746
0.000361574
0.000390727
0.000380586
0.000428955
0.000495513
0.000435734
0.000399122
0.000382555
0.00040086
0.000354214
0.000386991
0.000437364
0.000465778
0.000351664
0.000415822
0.000385436
0.00036894
0.000360017
0.000416945
0.000472119
0.000470812
0.000550515
0.000475625
0.000449254
0.0004095
0.00046104
0.00047983
0.000490756
0.000561253
0.000484779
0.000514813
0.00047879
0.000470846
0.000442729
0.000464683
0.000442658
0.000489434
0.000459114
0.000427733
0.000446074
0.000363118
0.000348648
0.000385126
0.000471614
0.000442042
0.00038656
0.000372182
0.000402455
0.000454106
0.000421308
0.000423757
0.000487791
0.000396698
0.000336709
0.00042615
0.000417143
0.000347113
0.000352281
0.000395599
0.000434238
0.00046777
0.000568451
0.000475051
0.000439059
0.00036579
0.000486608
0.000487363
0.000505676
0.000574382
0.000488398
0.000537889
0.000483338
0.000476883
0.000444099
0.000442779
0.000464692
0.000506497
0.000410189
0.000404355
0.000420612
0.000335739
0.000342185
0.000388833
0.000451508
0.000381593
0.000356023
0.000359592
0.000413212
0.000471848
0.000406798
0.000438427
0.000450112
0.000377191
0.000393154
0.000459855
0.000415967
0.000327097
0.00035511
0.000394899
0.000432606
0.00045592
0.000567903
0.000471212
0.000404305
0.000389714
0.000466817
0.000470619
0.000557361
0.000615543
0.000486533
0.000563022
0.000481188
0.000468283
0.000438722
0.000469015
0.000555476
0.000555426
0.000442542
0.000462825
0.000439638
0.000376085
0.00036562
0.000427144
0.000457321
0.000396524
0.000390521
0.000417992
0.000407651
0.000399684
0.000402216
0.000456473
0.000471217
0.000426998
0.000445311
0.000514857
0.000438859
0.000343046
0.00037595
0.000430023
0.000458899
0.00048793
0.000503206
0.000428411
0.000401202
0.000400445
0.000506203
0.00051444
0.000592357
0.000625614
0.000494132
0.000561599
0.000485717
0.000475651
0.000450631
0.000452839
0.000533514
0.000552304
0.000476536
0.00048503
0.000446512
0.000424174
0.000392293
0.000468084
0.000475347
0.000444497
0.000458829
0.00044449
0.000422606
0.000409121
0.000422211
0.000499178
0.000571205
0.000498481
0.000481293
0.000571342
0.000494709
0.000401305
0.000413725
0.000448766
0.000470512
0.000494011
0.000451106
0.000454969
0.000423735
0.000430097
0.000541332
0.000554919
0.000585912
0.000635817
0.000530475
0.000580577
0.000501656
0.000481159
0.000463777
0.000490862
0.000555128
0.000601811
0.000533296
0.000504132
0.000490374
0.000497184
0.000456633
0.000518979
0.000510042
0.000476069
0.000466741
0.00042518
0.000410824
0.000389059
0.000464842
0.000572161
0.000651006
0.000537243
0.000505563
0.00057672
0.000510137
0.00043032
0.000422186
0.00047619
0.000505707
0.000495395
0.000449724
0.00049297
0.000417609
0.00049409
0.000591337
0.000583075
0.000573837
0.0006584
0.000559887
0.000634067
0.000538944
0.000535913
0.000469468
0.000495613
0.000589531
0.000634455
0.000593969
0.000557893
0.000547648
0.000565296
0.000508921
0.000551931
0.000511786
0.00050551
0.000495736
0.000476049
0.000448855
0.00041069
0.000530449
0.000643198
0.000704864
0.00057571
0.000562932
0.000631576
0.000554226
0.000459426
0.000462853
0.000511038
0.000541846
0.000535786
0.000499285
0.000539893
0.000449823
0.00053884
0.000616478
0.000582845
0.000576489
0.000675193
0.000589802
0.000674782
0.000553915
0.00057902
0.000479654
0.000524676
0.00065866
0.000687797
0.000652737
0.000584283
0.000560527
0.000574951
0.000547267
0.000581227
0.000536529
0.000535834
0.000517933
0.000491685
0.000495444
0.000462631
0.000603273
0.00070888
0.000760306
0.000622602
0.000615461
0.000669097
0.00058295
0.000484852
0.000490848
0.000530638
0.000563124
0.000556932
0.000532236
0.000565916
0.000482388
0.000544912
0.000623079
0.000587188
0.000588731
0.000705881
0.000629897
0.000686
0.00056561
0.000629971
0.000517135
0.00059859
0.00074207
0.000720455
0.000704317
0.000605294
0.000589486
0.00060997
0.000593719
0.000624972
0.00057037
0.000567366
0.000555289
0.000510053
0.000538029
0.000481304
0.000655605
0.000753113
0.000797741
0.000673034
0.00065131
0.000698804
0.000603876
0.000521811
0.000520033
0.000549707
0.000587276
0.000572892
0.000567466
0.000595177
0.000494198
0.000575303
0.000646505
0.000599844
0.000621875
0.000723189
0.000673361
0.000733015
0.000620027
0.000672446
0.000558192
0.000659051
0.000816571
0.000766022
0.000752385
0.000633842
0.000619124
0.000638093
0.000637812
0.000658538
0.000608009
0.000607693
0.000613654
0.000554566
0.000597722
0.000504584
0.000690708
0.000797306
0.000831706
0.000718571
0.000696314
0.000729218
0.000644006
0.000566657
0.000543497
0.000569017
0.000619764
0.000621466
0.000616474
0.000649233
0.000535629
0.000618498
0.00067832
0.00062418
0.000654126
0.000770141
0.000721821
0.000785179
0.000671971
0.000721061
0.000601644
0.000689931
0.000867845
0.000810937
0.000793404
0.000677972
0.000652718
0.000681489
0.00068726
0.000680124
0.000645524
0.000641116
0.000678764
0.000606199
0.000642126
0.000529338
0.000726661
0.000847624
0.000866307
0.000748893
0.000726895
0.000782791
0.000702322
0.000611537
0.000579066
0.000599283
0.000645897
0.000672264
0.000666439
0.000717621
0.000580923
0.000658012
0.000720498
0.000658982
0.000680577
0.000816844
0.00077065
0.0008259
0.000710924
0.000786876
0.000648236
0.000717271
0.000900149
0.000852455
0.000833186
0.00070476
0.000692529
0.000721176
0.000739204
0.000699562
0.000669785
0.000675396
0.000747794
0.00065187
0.000693549
0.00056558
0.000777392
0.000910895
0.000905009
0.000779882
0.000769577
0.000832626
0.00076541
0.000659146
0.000607438
0.000622067
0.000677575
0.000719027
0.000724865
0.000781635
0.000614868
0.000689526
0.000761327
0.00069265
0.000711198
0.000856111
0.000813699
0.000849623
0.000742924
0.000836332
0.00069005
0.000743919
0.000948642
0.000888274
0.000878112
0.000730404
0.000727452
0.000758895
0.000775072
0.000712286
0.000697272
0.000709296
0.000797618
0.000693363
0.000738228
0.000611232
0.000831046
0.000977737
0.000937785
0.000810198
0.000816525
0.000869716
0.000820644
0.000701299
0.000634701
0.000654547
0.000708576
0.000766587
0.000778643
0.000833715
0.000649075
0.000710685
0.000793595
0.000725283
0.000740019
0.000882598
0.000846391
0.00085612
0.000762861
0.000865334
0.00071295
0.000760442
0.000991284
0.000909391
0.000922262
0.000753415
0.000755021
0.000793924
0.000802908
0.000720384
0.000718201
0.000739892
0.000835273
0.00072221
0.000771429
0.000655094
0.00087404
0.00102923
0.000963102
0.0008269
0.000850863
0.000887844
0.000860093
0.000733425
0.000661791
0.000675756
0.000733618
0.000809153
0.0008226
0.000872099
0.000669792
0.000722645
0.000816016
0.000741148
0.000763784
0.000893043
0.000866642
0.000852312
0.000771765
0.000875216
0.000720101
0.000767444
0.00101742
0.000916109
0.000945888
0.00075822
0.000761098
0.000815949
0.000816926
0.000721089
0.000730702
0.000764049
0.000851687
0.000731667
0.000790247
0.000685911
0.000897793
0.001051
0.000973864
0.000832394
0.000878251
0.000890658
0.000878331
0.000758441
0.000681624
0.000686638
0.000750033
0.000839034
0.000849399
0.000898062
0.000680696
0.000720928
0.000823829
0.00074696
0.0007765
0.000891537
0.000872919
0.000847579
0.000769028
0.000870905
0.00071608
0.000757162
0.00102358
0.000907301
0.000950759
0.000750581
0.000754896
0.000824102
0.000822081
0.000719879
0.000736048
0.000771036
0.000845928
0.000730805
0.000793377
0.000696958
0.000896715
0.00104817
0.000964956
0.000834329
0.000882283
0.000879722
0.000877759
0.000766447
0.000690196
0.000684765
0.000756798
0.000855566
0.000861509
0.000911358
0.000684419
0.000709733
0.000818649
0.000740058
0.000768177
0.000875689
0.000861617
0.000831994
0.000754089
0.000850983
0.000698637
0.000734642
0.00100939
0.00089112
0.000939172