# y+ ()       
# Time        	patch         	min           	max           	average       
24            	bottomWall	2.685234e+00	4.798419e+00	3.543564e+00
24            	topWall	2.703670e+00	4.755098e+00	3.524536e+00
