/*--------------------------------*- C++ -*----------------------------------*\
  =========                 |
  \\      /  F ield         | OpenFOAM: The Open Source CFD Toolbox
   \\    /   O peration     | Website:  https://openfoam.org
    \\  /    A nd           | Version:  10
     \\/     M anipulation  |
\*---------------------------------------------------------------------------*/
FoamFile
{
    format      ascii;
    class       volScalarField;
    location    "4";
    object      p;
}
// * * * * * * * * * * * * * * * * * * * * * * * * * * * * * * * * * * * * * //

dimensions      [0 2 -2 0 0 0 0];

internalField   nonuniform List<scalar> 
102400
(
5.01859e-05
-4.25444e-05
-3.13494e-05
0.00012498
0.000172524
5.82029e-05
3.23442e-05
-3.3105e-05
9.42132e-05
0.00015861
3.43467e-05
-8.57175e-06
1.65722e-05
0.000129884
0.000137252
3.57493e-05
-7.48153e-05
-5.32474e-05
0.000151474
0.000195992
1.73307e-05
-8.65354e-05
-4.99797e-05
0.000114819
0.00015863
5.92551e-05
-4.1903e-05
-2.5544e-05
0.00013569
0.000178409
6.42529e-05
-3.10334e-05
-3.1764e-05
0.000114523
0.000168375
7.65801e-05
1.63496e-06
-3.06231e-05
0.0001133
0.000189199
5.08296e-05
-4.04484e-05
-3.03178e-05
0.000123842
0.000170791
5.84755e-05
3.44995e-05
-3.17891e-05
9.29991e-05
0.000157742
3.4684e-05
-6.72403e-06
1.66102e-05
0.000128826
0.000136223
3.59196e-05
-7.21769e-05
-5.20488e-05
0.000150823
0.000195135
1.80128e-05
-8.43013e-05
-4.92056e-05
0.000113832
0.000157383
5.91563e-05
-3.97902e-05
-2.48472e-05
0.000134428
0.000177391
6.4457e-05
-2.8773e-05
-3.02916e-05
0.000113687
0.000167126
7.68236e-05
3.64489e-06
-2.94812e-05
0.000112143
0.000187536
5.30611e-05
-3.85346e-05
-3.02825e-05
0.000122718
0.000172418
6.00972e-05
3.67058e-05
-3.09935e-05
9.16875e-05
0.000160061
3.65986e-05
-5.21734e-06
1.61834e-05
0.000127897
0.000138486
3.76756e-05
-6.9748e-05
-5.21158e-05
0.000150151
0.000197593
1.9993e-05
-8.26758e-05
-4.95764e-05
0.00011268
0.000159255
6.05535e-05
-3.79616e-05
-2.50023e-05
0.000133148
0.000179609
6.5884e-05
-2.66658e-05
-2.96222e-05
0.000112598
0.000168899
7.85242e-05
5.67678e-06
-2.93478e-05
0.000110863
0.00018912
5.61098e-05
-3.68054e-05
-3.16559e-05
0.000122054
0.000178803
6.31632e-05
3.90312e-05
-3.1058e-05
9.07556e-05
0.000166982
3.99616e-05
-3.8704e-06
1.50947e-05
0.000127498
0.00014537
4.05767e-05
-6.76415e-05
-5.42767e-05
0.000149607
0.000204649
2.29852e-05
-8.18608e-05
-5.15254e-05
0.000111649
0.000165615
6.26769e-05
-3.655e-05
-2.63962e-05
0.000132081
0.000186331
6.90278e-05
-2.48406e-05
-3.03433e-05
0.000111463
0.000175007
8.10757e-05
7.70347e-06
-3.06982e-05
0.000109839
0.000195245
6.06385e-05
-3.38317e-05
-3.53127e-05
0.000121369
0.000189569
6.77745e-05
4.25673e-05
-3.30257e-05
9.01624e-05
0.000178379
4.53321e-05
-1.22403e-06
1.24519e-05
0.000127104
0.000156688
4.50893e-05
-6.45096e-05
-6.03562e-05
0.000148225
0.000215979
2.73777e-05
-8.04358e-05
-5.5937e-05
0.000110246
0.000176271
6.65423e-05
-3.41888e-05
-2.99199e-05
0.000130534
0.000197196
7.34621e-05
-2.20793e-05
-3.35056e-05
0.000109694
0.000184928
8.5367e-05
1.1021e-05
-3.4575e-05
0.000108541
0.000205347
6.52596e-05
-2.81066e-05
-4.28279e-05
0.000119284
0.0002027
7.25426e-05
4.8378e-05
-3.90805e-05
8.91912e-05
0.000192725
5.16082e-05
4.18547e-06
6.09836e-06
0.000125535
0.00017062
4.98936e-05
-5.86631e-05
-7.3772e-05
0.000144318
0.000229452
3.16427e-05
-7.66533e-05
-6.43411e-05
0.000107178
0.000189467
7.10797e-05
-2.91466e-05
-3.73474e-05
0.000126861
0.000210259
7.79238e-05
-1.68374e-05
-4.10757e-05
0.000105848
0.000196348
9.03007e-05
1.68999e-05
-4.28774e-05
0.000105588
0.000217052
6.75199e-05
-2.02333e-05
-5.52339e-05
0.000111504
0.000215128
7.45487e-05
5.56426e-05
-5.09327e-05
8.31813e-05
0.00020765
5.63459e-05
1.15554e-05
-5.78306e-06
0.000118596
0.000184013
5.28338e-05
-5.02198e-05
-9.76697e-05
0.000133727
0.000241328
3.39476e-05
-7.08701e-05
-7.78408e-05
9.87144e-05
0.000202227
7.41821e-05
-2.15436e-05
-5.01601e-05
0.000116538
0.000222303
8.02044e-05
-9.24499e-06
-5.45497e-05
9.55006e-05
0.000205922
9.34937e-05
2.44416e-05
-5.69912e-05
9.69882e-05
0.000226819
6.45304e-05
-1.41739e-05
-7.11616e-05
8.85567e-05
0.000222979
7.00916e-05
6.00038e-05
-6.75846e-05
6.39984e-05
0.000219823
5.63826e-05
1.57916e-05
-2.25803e-05
9.87449e-05
0.000192837
5.13753e-05
-4.19877e-05
-0.000131664
0.000108732
0.000246877
3.23115e-05
-6.65973e-05
-9.52125e-05
7.73505e-05
0.000210399
7.33004e-05
-1.44852e-05
-6.75162e-05
9.24751e-05
0.000229134
7.76704e-05
-2.01262e-06
-7.27734e-05
6.98993e-05
0.000209837
9.17179e-05
2.90784e-05
-7.56847e-05
7.37325e-05
0.000230517
5.43316e-05
-1.42861e-05
-8.49431e-05
4.09354e-05
0.000219296
5.65731e-05
5.5532e-05
-8.26987e-05
2.32528e-05
0.000221957
4.9667e-05
1.12211e-05
-3.79672e-05
5.72027e-05
0.000190576
4.3377e-05
-3.76451e-05
-0.000165637
6.01036e-05
0.00023893
2.56636e-05
-6.7792e-05
-0.000110458
3.45952e-05
0.000205939
6.64173e-05
-1.21287e-05
-8.33858e-05
4.66622e-05
0.000223664
6.84757e-05
1.21188e-06
-8.9307e-05
2.01163e-05
0.000200956
8.25777e-05
2.51809e-05
-9.24196e-05
2.68237e-05
0.000221033
4.1169e-05
-2.04935e-05
-8.9196e-05
-2.93004e-05
0.000193421
3.9333e-05
4.20432e-05
-8.83877e-05
-3.88371e-05
0.000201586
4.16428e-05
-2.77242e-06
-4.44347e-05
-4.95862e-06
0.000167192
3.27364e-05
-3.83612e-05
-0.000184668
-1.26062e-05
0.000206619
1.79148e-05
-7.47994e-05
-0.000115655
-2.80932e-05
0.000177521
5.64621e-05
-1.57084e-05
-8.96236e-05
-1.89895e-05
0.000195849
5.75882e-05
-1.02755e-06
-9.60904e-05
-5.09099e-05
0.000168235
6.91628e-05
1.18197e-05
-9.87666e-05
-4.16713e-05
0.000187685
2.55984e-05
-2.57491e-05
-7.91895e-05
-7.6203e-05
0.000142331
2.18242e-05
2.68098e-05
-8.01703e-05
-7.9696e-05
0.000155405
3.07902e-05
-1.44536e-05
-3.8527e-05
-4.83728e-05
0.000119902
2.0754e-05
-3.99157e-05
-0.000180417
-6.65896e-05
0.00014651
8.21628e-06
-6.78564e-05
-0.000106232
-6.97753e-05
0.000124967
4.25662e-05
-1.8619e-05
-8.2132e-05
-6.27103e-05
0.000144424
4.48328e-05
-4.38234e-06
-8.86236e-05
-9.61729e-05
0.000111208
5.06697e-05
-7.17219e-07
-8.94522e-05
-8.60457e-05
0.000129615
8.5443e-06
-2.56658e-05
-5.55843e-05
-8.17634e-05
9.27362e-05
4.48409e-06
1.62934e-05
-5.94229e-05
-8.25165e-05
0.000107697
1.62882e-05
-1.65404e-05
-2.27881e-05
-5.58647e-05
7.23455e-05
6.97117e-06
-3.88027e-05
-0.000150544
-7.85777e-05
8.88095e-05
-4.26171e-06
-5.85282e-05
-8.13686e-05
-7.38593e-05
7.83561e-05
2.50313e-05
-1.78487e-05
-6.13493e-05
-6.92852e-05
9.44614e-05
2.95416e-05
-6.24908e-06
-6.66142e-05
-0.000100153
6.1569e-05
2.89468e-05
-4.92659e-06
-6.42522e-05
-8.87453e-05
7.88292e-05
-9.72774e-07
-1.7916e-05
-2.9848e-05
-5.7493e-05
6.16413e-05
-4.82486e-06
1.22734e-05
-3.6226e-05
-5.9801e-05
7.12987e-05
5.2707e-06
-9.95746e-06
-5.88097e-06
-3.68036e-05
3.98589e-05
-1.56298e-06
-2.71395e-05
-0.000108109
-5.83182e-05
5.33383e-05
-1.07203e-05
-3.8865e-05
-5.12078e-05
-5.19062e-05
5.16852e-05
1.30538e-05
-1.02742e-05
-3.69546e-05
-4.95648e-05
5.95717e-05
1.89902e-05
-1.9741e-06
-3.99032e-05
-7.79429e-05
3.43661e-05
1.32198e-05
8.72508e-07
-3.51722e-05
-6.27852e-05
4.98569e-05
-3.97148e-06
-7.99753e-06
-1.12803e-05
-3.22147e-05
4.55127e-05
-7.17901e-06
1.29425e-05
-1.76976e-05
-3.74141e-05
4.69074e-05
-5.99383e-07
2.7e-07
6.34135e-06
-1.76817e-05
2.1506e-05
-4.18645e-06
-1.42883e-05
-7.0751e-05
-3.70903e-05
3.67845e-05
-1.04563e-05
-1.94052e-05
-2.78895e-05
-3.07618e-05
3.82178e-05
8.36082e-06
-9.26479e-07
-1.83219e-05
-3.0266e-05
3.86254e-05
1.44948e-05
5.17602e-06
-1.91382e-05
-4.69164e-05
2.26412e-05
6.31983e-06
9.8388e-06
-1.34972e-05
-3.68304e-05
3.64846e-05
-7.58125e-06
-1.81016e-06
-5.86081e-07
-1.4052e-05
3.1811e-05
-9.29878e-06
1.45793e-05
-5.41855e-06
-2.15114e-05
2.83456e-05
-6.02439e-06
5.80611e-06
1.32196e-05
-5.1814e-06
8.87127e-06
-5.37786e-06
-6.09596e-06
-4.35479e-05
-2.02518e-05
2.45556e-05
-9.97775e-06
-7.86936e-06
-1.35159e-05
-1.5139e-05
2.63893e-05
3.405e-06
4.42476e-06
-7.31033e-06
-1.5804e-05
2.31439e-05
1.0479e-05
9.52967e-06
-5.96144e-06
-2.44357e-05
1.37149e-05
1.94894e-07
1.45424e-05
-6.64533e-07
-1.71679e-05
2.56287e-05
-9.83372e-06
2.93417e-07
4.32951e-06
-2.98167e-06
1.89319e-05
-1.07073e-05
1.31671e-05
1.6142e-06
-1.09822e-05
1.37442e-05
-9.03357e-06
6.86578e-06
1.56377e-05
1.20914e-07
-9.48747e-07
-7.9104e-06
-2.62452e-06
-2.58066e-05
-1.07317e-05
1.38849e-05
-1.08103e-05
-3.04157e-06
-4.98176e-06
-6.37432e-06
1.51434e-05
-4.58e-07
5.81667e-06
-1.24318e-06
-6.44965e-06
1.09489e-05
4.90074e-06
1.0175e-05
1.1192e-06
-1.03363e-05
5.09966e-06
-4.73907e-06
1.45211e-05
5.70045e-06
-4.69789e-06
1.51656e-05
-1.04126e-05
2.64887e-07
6.21467e-06
3.24573e-06
8.70736e-06
-1.07046e-05
1.00586e-05
5.32945e-06
-4.27026e-06
3.35182e-06
-1.02826e-05
5.50672e-06
1.53786e-05
4.38643e-06
-7.48198e-06
-9.89529e-06
-1.84028e-06
-1.45718e-05
-4.37548e-06
5.40527e-06
-1.05112e-05
-1.66895e-06
-2.98614e-07
-5.13355e-07
6.15925e-06
-2.97995e-06
5.06361e-06
1.95099e-06
-5.62867e-07
2.25715e-06
1.42069e-06
8.81654e-06
4.58932e-06
-1.90191e-06
-1.54968e-06
-7.45988e-06
1.20661e-05
8.37652e-06
2.33606e-06
6.74216e-06
-9.12782e-06
-4.16567e-07
6.69627e-06
6.49672e-06
1.64989e-06
-1.00222e-05
6.73526e-06
6.95937e-06
-7.32489e-08
-2.93964e-06
-1.02381e-05
3.39235e-06
1.39042e-05
6.71208e-06
-1.0824e-05
-1.07629e-05
-2.08414e-06
-7.54315e-06
-1.25002e-06
-3.90075e-07
-1.16765e-05
-1.84313e-06
2.07598e-06
1.99096e-06
2.42544e-07
-4.42984e-06
3.46932e-06
3.5568e-06
2.90732e-06
-2.96371e-06
-5.3159e-07
6.797e-06
6.10853e-06
2.75837e-06
-5.55138e-06
-8.03198e-06
8.91106e-06
9.15223e-06
6.09657e-06
1.17066e-06
-6.49102e-06
-8.99226e-07
6.40986e-06
7.84002e-06
-2.09448e-06
-8.89403e-06
4.09933e-06
7.35481e-06
2.38127e-06
-5.92917e-06
-9.26797e-06
1.72239e-06
1.18986e-05
7.45672e-06
-1.15994e-05
-1.05377e-05
-2.48671e-06
-3.27811e-06
-8.4004e-08
-3.5801e-06
-9.92966e-06
-2.43353e-06
3.08721e-06
4.05752e-06
-2.91455e-06
-4.85955e-06
1.98513e-06
4.18887e-06
4.70441e-06
-5.33109e-06
-5.69246e-07
4.88549e-06
6.44302e-06
4.9918e-06
-7.13756e-06
-7.4668e-06
6.14104e-06
8.80558e-06
7.77061e-06
-1.45731e-06
-4.2503e-06
-8.29527e-07
5.87053e-06
7.87578e-06
-3.54527e-06
-7.56297e-06
2.04448e-06
6.89977e-06
3.72553e-06
-6.72926e-06
-7.84252e-06
3.97248e-07
9.75527e-06
7.05536e-06
-1.07187e-05
-9.52052e-06
-2.732e-06
-1.49626e-07
9.56506e-07
-4.84756e-06
-7.4487e-06
-3.05061e-06
3.33517e-06
4.76458e-06
-4.07586e-06
-3.44835e-06
9.08835e-07
4.329e-06
5.36075e-06
-5.79559e-06
-1.4e-06
3.32932e-06
6.12746e-06
5.70421e-06
-7.04637e-06
-6.40143e-06
4.0214e-06
7.88676e-06
8.05349e-06
-2.45567e-06
-2.9041e-06
-8.3345e-07
5.37182e-06
7.16886e-06
-3.64688e-06
-6.19746e-06
7.02369e-07
5.93117e-06
3.81728e-06
-6.16989e-06
-6.35455e-06
-4.16989e-07
7.42013e-06
5.77698e-06
-8.96393e-06
-7.71604e-06
-2.78549e-06
9.96337e-07
1.28945e-06
-4.9e-06
-5.87833e-06
-2.17681e-06
3.26875e-06
4.61948e-06
-4.03586e-06
-3.12554e-06
1.0188e-07
4.02883e-06
5.27221e-06
-5.17959e-06
-1.82936e-06
2.14615e-06
5.64598e-06
5.54037e-06
-6.01319e-06
-5.17173e-06
2.79139e-06
6.72716e-06
7.47114e-06
-2.41701e-06
-2.00519e-06
-6.60828e-07
4.58515e-06
6.07246e-06
-3.07599e-06
-4.87054e-06
-2.67726e-08
4.76369e-06
3.50388e-06
-5.02232e-06
-5.03339e-06
-8.22989e-07
5.26691e-06
4.63141e-06
-6.92214e-06
-6.54113e-06
-2.72593e-06
1.18807e-06
1.20911e-06
-4.31769e-06
-4.75814e-06
-2.4731e-06
2.7543e-06
4.02199e-06
-3.39106e-06
-2.71971e-06
-3.59135e-07
3.32579e-06
4.71291e-06
-4.07524e-06
-1.9466e-06
1.26979e-06
4.80454e-06
4.89518e-06
-4.58981e-06
-3.94725e-06
1.79276e-06
5.51618e-06
6.43888e-06
-1.8704e-06
-1.34676e-06
-3.49555e-07
3.66795e-06
4.848e-06
-2.28238e-06
-3.62084e-06
-3.77585e-07
3.58513e-06
2.96738e-06
-3.73639e-06
-3.78618e-06
-9.41862e-07
3.44873e-06
3.41366e-06
-5.05015e-06
-5.32828e-06
-2.49648e-06
9.23777e-07
9.26796e-07
-3.49524e-06
-3.86841e-06
-2.3727e-06
2.04537e-06
3.21281e-06
-2.55609e-06
-2.28342e-06
-5.42267e-07
2.51765e-06
3.85284e-06
-2.91883e-06
-1.85244e-06
7.28964e-07
3.78746e-06
4.0215e-06
-3.17279e-06
-2.70515e-06
1.1681e-06
4.4581e-06
5.24028e-06
-1.19614e-06
-8.50274e-07
-9.74256e-08
2.79213e-06
3.70355e-06
-1.5093e-06
-2.56977e-06
-4.98725e-07
2.50086e-06
2.34265e-06
-2.57914e-06
-2.76266e-06
-9.04423e-07
2.02714e-06
2.27431e-06
-3.49738e-06
-4.19706e-06
-2.19448e-06
4.70302e-07
5.57927e-07
-2.73103e-06
-3.11688e-06
-2.09952e-06
1.2954e-06
2.3399e-06
-1.78253e-06
-1.85254e-06
-6.07845e-07
1.71545e-06
2.89132e-06
-1.94504e-06
-1.62662e-06
3.0786e-07
2.68712e-06
2.88021e-06
-2.03886e-06
-1.90171e-06
7.47175e-07
3.40171e-06
4.04691e-06
-5.96825e-07
-5.00588e-07
-7.45593e-09
2.00546e-06
2.84878e-06
-8.55714e-07
-1.73705e-06
-5.06308e-07
1.59721e-06
1.708e-06
-1.69738e-06
-1.979e-06
-8.70217e-07
9.85099e-07
1.31915e-06
-2.46091e-06
-3.22678e-06
-2.0609e-06
9.98112e-10
1.8809e-07
-2.10561e-06
-2.4787e-06
-1.8522e-06
6.09364e-07
1.51266e-06
-1.20994e-06
-1.48058e-06
-7.2046e-07
9.95813e-07
1.96213e-06
-1.2569e-06
-1.36334e-06
-1.069e-07
1.66741e-06
1.91297e-06
-1.23878e-06
-1.38081e-06
3.05332e-07
2.36951e-06
2.95135e-06
-1.73201e-07
-2.93268e-07
2.04359e-09
1.33668e-06
2.01214e-06
-4.42869e-07
-1.13403e-06
-5.09448e-07
8.98048e-07
1.11915e-06
-1.15221e-06
-1.40721e-06
-8.20384e-07
2.95469e-07
6.01456e-07
-1.72883e-06
-2.43706e-06
-1.79829e-06
-3.60336e-07
-1.24595e-07
-1.62229e-06
-1.95954e-06
-1.66466e-06
6.69543e-08
7.94179e-07
-8.52946e-07
-1.19503e-06
-7.898e-07
4.13337e-07
1.14915e-06
-8.39854e-07
-1.13145e-06
-3.6721e-07
8.51913e-07
1.11321e-06
-7.64914e-07
-1.04873e-06
-3.48808e-08
1.49108e-06
2.00854e-06
6.41131e-08
-1.95552e-07
1.01456e-08
8.09937e-07
1.30397e-06
-1.91354e-07
-7.28346e-07
-4.75745e-07
4.05707e-07
6.33375e-07
-7.50902e-07
-9.98705e-07
-7.30041e-07
-1.13514e-07
1.13115e-07
-1.25556e-06
-1.83084e-06
-1.51522e-06
-5.80645e-07
-3.49222e-07
-1.26497e-06
-1.54991e-06
-1.44929e-06
-2.95822e-07
2.44093e-07
-6.72769e-07
-9.87218e-07
-7.97361e-07
-1.50489e-08
4.97571e-07
-6.26238e-07
-9.49487e-07
-5.00056e-07
2.76086e-07
5.0649e-07
-5.17989e-07
-8.22536e-07
-1.65805e-07
8.23145e-07
1.26115e-06
1.36384e-07
-1.61746e-07
-2.55533e-08
4.18911e-07
7.55621e-07
-9.25424e-08
-4.89034e-07
-4.04633e-07
9.07482e-08
2.68497e-07
-5.32916e-07
-7.26316e-07
-6.24143e-07
-3.21252e-07
-1.78971e-07
-9.47318e-07
-1.31053e-06
-1.23812e-06
-6.72763e-07
-4.86378e-07
-1.01653e-06
-1.23189e-06
-1.22376e-06
-5.09041e-07
-1.4221e-07
-5.96457e-07
-8.40258e-07
-7.69253e-07
-2.96126e-07
1.22565e-08
-5.47637e-07
-8.19205e-07
-5.53247e-07
-8.89526e-08
8.52596e-08
-4.08396e-07
-6.71361e-07
-2.25775e-07
3.80063e-07
7.11243e-07
9.42683e-08
-1.57825e-07
-9.27746e-08
9.61208e-08
3.54833e-07
-8.42367e-08
-3.51079e-07
-3.36866e-07
-9.18223e-08
1.86193e-08
-4.15689e-07
-5.41656e-07
-5.20492e-07
-3.96269e-07
-3.25599e-07
-7.43339e-07
-9.98904e-07
-9.94522e-07
-6.74643e-07
-5.51416e-07
-8.43467e-07
-9.92608e-07
-1.02186e-06
-6.05105e-07
-3.84623e-07
-5.778e-07
-7.4516e-07
-7.28403e-07
-4.70195e-07
-2.82716e-07
-5.4296e-07
-7.35673e-07
-5.73115e-07
-3.06973e-07
-1.79298e-07
-3.79341e-07
-5.7931e-07
-2.63077e-07
7.45629e-08
3.18041e-07
2.6877e-08
-1.79442e-07
-1.24213e-07
-6.35231e-08
8.78185e-08
-1.17242e-07
-2.88961e-07
-2.96088e-07
-1.91265e-07
-1.36473e-07
-3.48505e-07
-4.20571e-07
-4.31426e-07
-3.95748e-07
-3.76532e-07
-5.92286e-07
-7.4239e-07
-7.8443e-07
-6.21335e-07
-5.62377e-07
-7.20346e-07
-8.22019e-07
-8.60921e-07
-6.32366e-07
-5.2287e-07
-5.87704e-07
-6.93534e-07
-6.96102e-07
-5.6899e-07
-5.01237e-07
-5.81161e-07
-7.2034e-07
-5.88318e-07
-4.29987e-07
-3.09395e-07
-3.90473e-07
-5.32552e-07
-2.93822e-07
-1.45473e-07
6.83962e-08
-7.00002e-08
-2.17959e-07
-1.71947e-07
-1.61317e-07
-8.64587e-08
-1.68588e-07
-2.7934e-07
-2.87762e-07
-2.43285e-07
-2.21545e-07
-3.0574e-07
-3.43952e-07
-3.60617e-07
-3.54513e-07
-3.63472e-07
-4.68808e-07
-5.72928e-07
-6.17775e-07
-5.5175e-07
-5.40304e-07
-6.35362e-07
-7.11645e-07
-7.49796e-07
-6.30978e-07
-5.95488e-07
-6.11663e-07
-6.81563e-07
-6.88133e-07
-6.38787e-07
-6.11572e-07
-6.32e-07
-7.17369e-07
-6.05564e-07
-5.45956e-07
-4.18482e-07
-4.27068e-07
-5.24802e-07
-3.25069e-07
-2.8172e-07
-1.00943e-07
-1.48045e-07
-2.71133e-07
-2.25595e-07
-2.50673e-07
-2.13696e-07
-2.3928e-07
-3.17627e-07
-3.13254e-07
-2.74265e-07
-2.62394e-07
-2.74972e-07
-2.99606e-07
-3.05915e-07
-2.92182e-07
-3.03275e-07
-3.59246e-07
-4.39303e-07
-4.85226e-07
-4.80511e-07
-4.97996e-07
-5.73915e-07
-6.4783e-07
-6.86812e-07
-6.2817e-07
-6.28967e-07
-6.42544e-07
-7.03518e-07
-7.17195e-07
-7.07323e-07
-6.92332e-07
-6.99839e-07
-7.55581e-07
-6.54911e-07
-6.37821e-07
-5.1188e-07
-4.8646e-07
-5.48021e-07
-3.70523e-07
-3.69048e-07
-2.19276e-07
-2.32911e-07
-9.10788e-05
-0.000264881
-0.000122665
4.54942e-05
7.45541e-05
1.48291e-06
-0.000185121
-0.000134574
-4.47191e-06
7.12979e-05
-1.68083e-05
-0.000196686
-0.000122827
1.02298e-05
2.03774e-05
-8.14141e-05
-0.000288374
-8.42834e-05
0.000119798
7.64509e-05
-0.000111417
-0.000273415
-0.000110723
1.6675e-05
5.95338e-05
-3.99016e-05
-0.000239352
-0.000113433
2.25379e-05
6.06499e-05
-3.70863e-05
-0.000225911
-0.000102349
4.81104e-05
7.19515e-05
-1.88412e-05
-0.00022674
-0.000115272
3.28751e-05
6.7392e-05
-8.98751e-05
-0.000263183
-0.000122871
4.31047e-05
7.11698e-05
2.38893e-06
-0.000183073
-0.00013422
-5.75997e-06
6.72279e-05
-1.61564e-05
-0.00019489
-0.000122387
7.34709e-06
1.6241e-05
-8.0501e-05
-0.000286799
-8.64818e-05
0.00011699
7.28398e-05
-0.000109827
-0.000271863
-0.000111193
1.48949e-05
5.56533e-05
-3.86302e-05
-0.000237707
-0.000114088
2.02331e-05
5.6531e-05
-3.5913e-05
-0.000224573
-0.00010195
4.60751e-05
6.80866e-05
-1.81545e-05
-0.000224605
-0.000115686
3.12094e-05
6.37634e-05
-8.92055e-05
-0.000263612
-0.00012631
4.03433e-05
6.89936e-05
3.53765e-06
-0.000182608
-0.000137569
-7.65075e-06
6.44115e-05
-1.51549e-05
-0.000194691
-0.000125508
4.01349e-06
1.32019e-05
-7.97728e-05
-0.00028758
-9.18333e-05
0.000114349
7.04533e-05
-0.000108817
-0.000272476
-0.000114852
1.2426e-05
5.28086e-05
-3.7532e-05
-0.00023838
-0.000117855
1.76356e-05
5.35512e-05
-3.4556e-05
-0.000225172
-0.000105256
4.36471e-05
6.54221e-05
-1.72025e-05
-0.000224355
-0.000119555
2.91975e-05
6.1241e-05
-8.76637e-05
-0.000267652
-0.000133547
3.71873e-05
6.76642e-05
4.03768e-06
-0.000185135
-0.000144837
-1.01938e-05
6.27445e-05
-1.42783e-05
-0.000197377
-0.000132281
2.67643e-07
1.10716e-05
-8.00854e-05
-0.000292449
-0.000101124
0.000111797
6.89729e-05
-0.000108681
-0.000276839
-0.000122212
9.19227e-06
5.098e-05
-3.69871e-05
-0.00024301
-0.000125164
1.48652e-05
5.17301e-05
-3.44943e-05
-0.000229138
-0.000112218
4.07784e-05
6.3648e-05
-1.65847e-05
-0.000227472
-0.000127268
2.68148e-05
5.95049e-05
-8.72302e-05
-0.000275655
-0.000144687
3.27172e-05
6.58812e-05
3.7353e-06
-0.000191153
-0.000156466
-1.43935e-05
6.08094e-05
-1.38048e-05
-0.000203194
-0.000142744
-4.84739e-06
8.99857e-06
-8.11103e-05
-0.000301896
-0.000114913
0.000107984
6.72353e-05
-0.000109816
-0.000285308
-0.000133493
4.57807e-06
4.92542e-05
-3.73573e-05
-0.000252218
-0.000136103
1.14178e-05
5.00392e-05
-3.50311e-05
-0.000236797
-0.000123137
3.65616e-05
6.13574e-05
-1.63713e-05
-0.000234454
-0.000139037
2.32567e-05
5.73609e-05
-8.46858e-05
-0.000286841
-0.000158823
2.66535e-05
6.12341e-05
4.66649e-06
-0.000200608
-0.000172096
-2.08805e-05
5.58521e-05
-1.18765e-05
-0.000211893
-0.000156051
-1.17799e-05
5.14995e-06
-7.9591e-05
-0.0003151
-0.000133709
0.000102232
6.30181e-05
-0.000108759
-0.000296886
-0.000147969
-1.15758e-06
4.56653e-05
-3.60236e-05
-0.000265638
-0.000150072
7.89328e-06
4.64341e-05
-3.35252e-05
-0.000247448
-0.000137645
3.08034e-05
5.60516e-05
-1.39936e-05
-0.000245019
-0.000154389
1.84166e-05
5.25489e-05
-7.35874e-05
-0.000297952
-0.000174075
1.63933e-05
5.05105e-05
1.12985e-05
-0.000211704
-0.000190028
-3.00912e-05
4.43928e-05
-4.73846e-06
-0.00022197
-0.000170068
-2.07959e-05
-3.34109e-06
-6.93429e-05
-0.000328473
-0.000157596
9.20306e-05
5.32394e-05
-9.90064e-05
-0.00030798
-0.000163864
-5.77217e-06
3.73051e-05
-2.7733e-05
-0.000280614
-0.000165609
-1.17724e-06
3.80723e-05
-2.48808e-05
-0.000258317
-0.000154394
1.98104e-05
4.47102e-05
-4.44266e-06
-0.000256816
-0.000171919
8.53448e-06
4.20793e-05
-4.86591e-05
-0.000300647
-0.000185821
2.60281e-06
3.02133e-05
2.77854e-05
-0.000218072
-0.000204809
-4.23604e-05
2.26233e-05
1.05738e-05
-0.000227957
-0.000179052
-3.35251e-05
-1.92394e-05
-4.30376e-05
-0.000332977
-0.000182628
7.66066e-05
3.51693e-05
-7.38215e-05
-0.00031045
-0.000176518
-1.14207e-05
2.10049e-05
-7.91268e-06
-0.000289869
-0.000178024
-1.12428e-05
2.17156e-05
-4.52435e-06
-0.000262434
-0.000168621
4.14238e-06
2.43891e-05
1.71926e-05
-0.000262758
-0.000186836
-4.38921e-06
2.30988e-05
-5.88591e-06
-0.000282031
-0.000189873
-1.6451e-05
-3.34902e-06
5.42906e-05
-0.000207844
-0.000210849
-5.75713e-05
-1.25002e-05
3.36347e-05
-0.00021878
-0.000176446
-5.17431e-05
-4.38366e-05
-4.09178e-06
-0.000315719
-0.000198699
5.26061e-05
6.87223e-06
-3.60252e-05
-0.000292874
-0.000181193
-1.99243e-05
-5.65089e-06
1.95594e-05
-0.000282401
-0.000181455
-2.36556e-05
-5.46204e-06
2.42551e-05
-0.000248657
-0.000174656
-1.85308e-05
-7.96555e-06
4.66265e-05
-0.000251
-0.000192859
-2.17569e-05
-7.06305e-06
3.07006e-05
-0.000229523
-0.000187996
-3.29822e-05
-4.68268e-05
7.63157e-05
-0.000166255
-0.000207673
-6.6828e-05
-5.37394e-05
6.91826e-05
-0.000181298
-0.000164064
-6.6079e-05
-7.17914e-05
3.27757e-05
-0.000259873
-0.000203577
2.6563e-05
-2.86889e-05
3.49179e-07
-0.000248845
-0.00017922
-2.74461e-05
-3.84638e-05
4.34101e-05
-0.000222581
-0.000177174
-3.31966e-05
-3.99959e-05
4.95576e-05
-0.000200776
-0.000174073
-3.93805e-05
-4.83245e-05
7.16805e-05
-0.00020208
-0.000190755
-3.53766e-05
-4.46872e-05
5.34833e-05
-0.00017169
-0.000181127
-3.6019e-05
-7.90128e-05
8.7078e-05
-0.000118477
-0.000198483
-6.16451e-05
-7.76831e-05
7.71221e-05
-0.000136828
-0.000151615
-6.40993e-05
-8.9563e-05
6.06023e-05
-0.000196229
-0.000196879
1.22328e-05
-5.56399e-05
2.97113e-05
-0.000190811
-0.00017233
-2.64874e-05
-6.0006e-05
5.98222e-05
-0.000160966
-0.000169622
-3.31998e-05
-6.45385e-05
6.68968e-05
-0.000148904
-0.000168362
-4.48793e-05
-7.65295e-05
8.89527e-05
-0.000148873
-0.000183946
-3.5647e-05
-7.01309e-05
6.39917e-05
-0.000119524
-0.000165189
-2.33396e-05
-8.24736e-05
8.87282e-05
-7.53375e-05
-0.00017972
-4.23586e-05
-6.7943e-05
7.94054e-05
-9.33427e-05
-0.000137014
-4.38389e-05
-8.65173e-05
7.34892e-05
-0.000137744
-0.00017681
1.37126e-05
-5.96813e-05
4.51107e-05
-0.000136225
-0.000155968
-1.50387e-05
-5.8193e-05
5.80616e-05
-0.00010761
-0.000154511
-2.30094e-05
-6.50495e-05
7.51992e-05
-0.000101012
-0.000154318
-3.22953e-05
-7.71753e-05
9.85798e-05
-0.000100107
-0.00016867
-2.1384e-05
-6.847e-05
6.03685e-05
-7.91208e-05
-0.000137911
-5.18219e-06
-5.9603e-05
8.03457e-05
-4.23808e-05
-0.000150066
-2.17514e-05
-4.82162e-05
7.03103e-05
-5.73925e-05
-0.000115941
-1.82765e-05
-6.70743e-05
6.41407e-05
-9.26137e-05
-0.000145548
2.19207e-05
-4.38171e-05
4.40971e-05
-9.34382e-05
-0.000129604
-1.26033e-06
-4.0052e-05
5.37487e-05
-6.77967e-05
-0.000129446
-9.77156e-06
-4.6592e-05
6.56768e-05
-6.29585e-05
-0.000129182
-1.23946e-05
-5.63033e-05
6.64991e-05
-6.26133e-05
-0.000142108
-4.01932e-06
-4.71192e-05
4.99124e-05
-5.07897e-05
-0.000103356
5.96009e-06
-3.29466e-05
6.56919e-05
-2.00499e-05
-0.000113869
-8.10576e-06
-2.47518e-05
5.72046e-05
-3.3611e-05
-9.01405e-05
-1.60434e-06
-4.54151e-05
4.93976e-05
-6.07305e-05
-0.000110615
2.39484e-05
-2.49327e-05
3.55077e-05
-6.32126e-05
-9.82833e-05
6.71316e-06
-2.0838e-05
4.43629e-05
-4.09953e-05
-9.81593e-05
-1.36631e-06
-2.63602e-05
5.42412e-05
-3.6461e-05
-9.74534e-05
1.57502e-06
-3.20323e-05
5.59771e-05
-3.71293e-05
-0.000107726
6.65636e-06
-2.40888e-05
4.01448e-05
-3.20006e-05
-7.33349e-05
9.72782e-06
-1.49365e-05
5.18383e-05
-7.97534e-06
-8.17297e-05
-2.98138e-06
-9.9221e-06
4.593e-05
-1.83453e-05
-6.36996e-05
4.78777e-06
-2.99751e-05
3.59391e-05
-3.97703e-05
-8.01812e-05
1.96523e-05
-1.0908e-05
2.74369e-05
-4.29406e-05
-7.05415e-05
7.94941e-06
-8.51603e-06
3.63029e-05
-2.40062e-05
-6.93446e-05
7.52347e-07
-1.33725e-05
4.40283e-05
-1.94521e-05
-7.00165e-05
6.37497e-06
-1.57747e-05
4.53598e-05
-2.09978e-05
-7.72605e-05
8.42416e-06
-9.16662e-06
3.24241e-05
-2.05623e-05
-5.1013e-05
8.95942e-06
-5.82692e-06
4.08487e-05
-2.4386e-06
-5.69619e-05
-2.19638e-06
-3.39299e-06
3.67842e-05
-1.04162e-05
-4.48422e-05
4.69401e-06
-2.02964e-05
2.56215e-05
-2.65065e-05
-5.73308e-05
1.34443e-05
-3.43572e-06
2.12714e-05
-2.97423e-05
-4.96972e-05
5.89908e-06
-2.2889e-06
3.04193e-05
-1.40868e-05
-4.90124e-05
-1.92711e-07
-6.95996e-06
3.5714e-05
-9.87362e-06
-4.96624e-05
6.08232e-06
-7.15071e-06
3.59196e-05
-1.18318e-05
-5.40624e-05
7.00607e-06
-1.74486e-06
2.65416e-05
-1.32188e-05
-3.48928e-05
6.91145e-06
-1.27377e-06
3.2115e-05
-1.82596e-07
-3.86297e-05
-3.01673e-06
-7.80571e-07
2.66012e-05
-6.02638e-06
-3.12191e-05
2.6739e-06
-1.41128e-05
1.85534e-05
-1.78369e-05
-4.06526e-05
7.90241e-06
2.19638e-07
1.69839e-05
-2.08304e-05
-3.44713e-05
3.25342e-06
8.80805e-07
2.61591e-05
-8.12734e-06
-3.385e-05
-1.98311e-06
-3.64304e-06
2.93224e-05
-4.24448e-06
-3.41388e-05
4.37843e-06
-2.71196e-06
2.54895e-05
-6.51644e-06
-3.69628e-05
4.71302e-06
1.72994e-06
2.19608e-05
-8.47255e-06
-2.35087e-05
4.41193e-06
1.09543e-06
2.52668e-05
4.87181e-07
-2.77767e-05
-4.35669e-06
-6.82193e-08
1.9976e-05
-3.54573e-06
-2.15451e-05
1.41552e-07
-1.01889e-05
1.35897e-05
-1.22169e-05
-2.8667e-05
3.81342e-06
1.63627e-06
1.37974e-05
-1.48173e-05
-2.36761e-05
6.63822e-07
2.21876e-06
2.24312e-05
-4.61983e-06
-2.32723e-05
-3.56497e-06
-1.91562e-06
2.41551e-05
-1.10649e-06
-2.28753e-05
2.3336e-06
-5.98086e-07
2.02884e-05
-3.39032e-06
-2.48212e-05
2.48606e-06
3.02943e-06
1.809e-05
-5.32544e-06
-1.5798e-05
2.14093e-06
1.92818e-06
1.9768e-05
5.45452e-07
-1.89929e-05
-5.27014e-06
-1.83855e-07
1.55127e-05
-2.06483e-06
-1.51216e-05
-1.89516e-06
-7.71613e-06
9.9977e-06
-8.46813e-06
-2.02199e-05
9.4689e-07
1.90052e-06
1.13104e-05
-1.06205e-05
-1.6255e-05
-1.16323e-06
2.41149e-06
1.60929e-05
-2.56857e-06
-1.60278e-05
-4.44632e-06
-1.12776e-06
1.9714e-05
5.79559e-07
-1.50618e-05
4.77956e-07
2.31216e-07
1.59793e-05
-1.47627e-06
-1.64729e-05
8.51915e-07
2.9503e-06
1.45849e-05
-3.24496e-06
-1.08783e-05
4.63823e-07
1.98456e-06
1.53349e-05
3.6285e-07
-1.28962e-05
-5.69571e-06
-5.76356e-07
1.22292e-05
-1.21156e-06
-1.11354e-05
-3.18275e-06
-6.07967e-06
7.33086e-06
-5.97021e-06
-1.42408e-05
-9.30622e-07
1.36524e-06
9.12944e-06
-7.63209e-06
-1.13115e-05
-2.27203e-06
2.05632e-06
1.28605e-05
-1.34853e-06
-1.11858e-05
-4.69528e-06
-7.50005e-07
1.56151e-05
1.34706e-06
-1.01135e-05
-8.35586e-07
4.25027e-07
1.25411e-05
-3.53934e-07
-1.08599e-05
-1.766e-07
2.44769e-06
1.1508e-05
-1.90397e-06
-8.03266e-06
-6.35406e-07
1.74024e-06
1.17224e-05
1.76209e-07
-8.72519e-06
-5.39393e-06
-9.25741e-07
9.58614e-06
-7.79285e-07
-8.42756e-06
-3.76201e-06
-4.92862e-06
5.26382e-06
-4.29263e-06
-1.0053e-05
-1.93786e-06
8.62824e-07
7.1873e-06
-5.36817e-06
-8.02629e-06
-2.79968e-06
1.49783e-06
1.00511e-05
-6.26938e-07
-7.84949e-06
-4.42805e-06
-5.92363e-07
1.20106e-05
1.58111e-06
-7.63045e-06
-1.62217e-06
2.49555e-07
9.71832e-06
2.9575e-07
-7.13183e-06
-7.14819e-07
2.00611e-06
8.81413e-06
-1.00424e-06
-6.1395e-06
-1.2509e-06
1.29568e-06
8.7512e-06
7.33554e-08
-5.92741e-06
-4.70887e-06
-1.1342e-06
7.32864e-06
-5.39177e-07
-6.18616e-06
-3.76803e-06
-4.04863e-06
3.54119e-06
-3.21029e-06
-7.14068e-06
-2.33069e-06
3.30054e-07
5.44025e-06
-3.96207e-06
-5.82102e-06
-2.90812e-06
9.41019e-07
7.81068e-06
-2.15036e-07
-5.5728e-06
-3.91121e-06
-3.8785e-07
8.96435e-06
1.55428e-06
-5.29491e-06
-1.92026e-06
7.59206e-08
7.31009e-06
5.91326e-07
-4.62144e-06
-4.8766e-07
1.60851e-06
6.51352e-06
-3.9244e-07
-4.42846e-06
-1.46256e-06
7.48836e-07
6.33236e-06
-1.56896e-07
-4.10703e-06
-3.90372e-06
-1.2328e-06
5.26316e-06
-4.1292e-07
-4.4549e-06
-3.40248e-06
-3.3325e-06
2.18069e-06
-2.40426e-06
-5.08067e-06
-2.32903e-06
-1.45775e-07
3.90709e-06
-2.87049e-06
-4.28044e-06
-2.75284e-06
4.82697e-07
5.88794e-06
-1.2429e-08
-3.97271e-06
-3.26347e-06
-3.0277e-07
6.41282e-06
1.3549e-06
-3.56115e-06
-1.83656e-06
-4.05611e-08
5.12923e-06
7.04611e-07
-2.94398e-06
-2.93405e-07
1.26075e-06
4.63019e-06
-1.747e-09
-3.07772e-06
-1.37169e-06
4.71951e-07
4.24912e-06
-2.44569e-07
-3.03809e-06
-3.13057e-06
-1.17012e-06
3.52048e-06
-3.4183e-07
-3.17897e-06
-2.87085e-06
-2.72873e-06
1.14651e-06
-1.69183e-06
-3.59683e-06
-2.01827e-06
-4.472e-07
2.62215e-06
-2.0667e-06
-3.13651e-06
-2.36937e-06
1.10712e-07
4.06341e-06
3.84177e-08
-2.78269e-06
-2.5924e-06
-2.87296e-07
4.34385e-06
1.17028e-06
-2.27374e-06
-1.48e-06
-7.58406e-08
3.55167e-06
7.63723e-07
-1.77948e-06
-1.22349e-07
9.09366e-07
3.17417e-06
3.22105e-07
-2.04879e-06
-1.29118e-06
2.33156e-07
2.75092e-06
-1.88798e-07
-2.02886e-06
-2.41338e-06
-1.06977e-06
2.14087e-06
-2.6605e-07
-2.23546e-06
-2.30036e-06
-2.16731e-06
3.81172e-07
-1.80612e-06
-2.55943e-06
-1.69926e-06
-6.04223e-07
1.59525e-06
-1.53031e-06
-2.25706e-06
-1.95534e-06
-1.54855e-07
2.5934e-06
1.14559e-07
-1.88864e-06
-1.97271e-06
-2.94013e-07
2.77618e-06
1.0892e-06
-1.34081e-06
-1.05541e-06
-5.39302e-08
2.40738e-06
9.91423e-07
-9.66856e-07
3.11907e-08
6.95032e-07
2.11061e-06
4.90728e-07
-1.27847e-06
-1.0101e-06
6.91076e-08
1.68372e-06
-8.89648e-08
-1.32834e-06
-1.7909e-06
-9.28091e-07
1.13641e-06
-2.31917e-07
-1.54683e-06
-1.77451e-06
-1.69452e-06
-7.36714e-08
-1.18124e-06
-1.79882e-06
-1.39576e-06
-6.87264e-07
8.24711e-07
-1.05286e-06
-1.59626e-06
-1.54747e-06
-3.20484e-07
1.50586e-06
1.72836e-07
-1.24617e-06
-1.44618e-06
-2.97009e-07
1.68517e-06
8.98832e-07
-7.37285e-07
-6.76056e-07
-1.11433e-08
1.61215e-06
1.07337e-06
-4.25175e-07
1.54212e-07
5.43061e-07
1.34109e-06
5.08868e-07
-7.64846e-07
-7.10939e-07
-1.53639e-08
9.53933e-07
-4.51368e-08
-8.68912e-07
-1.28757e-06
-7.63808e-07
4.6421e-07
-2.48403e-07
-1.08775e-06
-1.3402e-06
-1.27307e-06
-3.18781e-07
-8.51784e-07
-1.28856e-06
-1.13272e-06
-6.90263e-07
2.82508e-07
-7.41372e-07
-1.14126e-06
-1.20691e-06
-4.12847e-07
7.45374e-07
1.21993e-07
-8.2954e-07
-1.04208e-06
-3.06782e-07
9.17627e-07
6.33691e-07