/*--------------------------------*- C++ -*----------------------------------*\
  =========                 |
  \\      /  F ield         | OpenFOAM: The Open Source CFD Toolbox
   \\    /   O peration     | Website:  https://openfoam.org
    \\  /    A nd           | Version:  10
     \\/     M anipulation  |
\*---------------------------------------------------------------------------*/
FoamFile
{
    format      ascii;
    class       surfaceScalarField;
    location    "37.5";
    object      phi;
}
// * * * * * * * * * * * * * * * * * * * * * * * * * * * * * * * * * * * * * //

dimensions      [0 3 -1 0 0 0 0];

internalField   nonuniform List<scalar> 
74080
(
0.00456959
-0.000432323
0.00278601
0.00568281
0.000676712
-1.32737e-05
0.00502681
0.000935403
0.000714714
0.00448219
2.94007e-05
0.00198093
0.00561794
0.00035227
-8.16435e-05
0.00620878
0.00038052
0.00206242
0.00608905
0.000988391
0.00243906
0.00607307
0.000496732
0.00241519
0.0050966
-0.000477131
0.00319728
0.0039554
0.000677345
0.000450974
0.0045588
0.000989342
-0.00169195
0.0047514
0.000474645
0.000329084
0.00601333
-0.000586792
0.00203355
0.00706018
0.00054608
0.00137968
0.00685888
0.00056371
0.00129749
0.00611911
0.00066011
-0.000766543
0.00548199
0.0018148
0.000516148
0.00537457
4.61158e-05
0.00194484
0.00578977
0.000246443
-0.00101335
0.00623685
-0.000263268
0.00223076
0.00589638
0.000288431
0.00346109
0.00460134
0.000397582
0.00109238
0.00400852
0.000742909
0.000137343
0.00545834
0.00149472
-0.000893857
0.00541676
0.000316545
0.000704824
0.00526019
0.000259191
0.00141391
0.00456953
0.00151299
0.00150632
0.00445803
0.000923108
-0.00029468
0.00473681
0.00018351
0.000386179
0.00476306
0.000338614
0.00170159
0.00518977
7.12133e-05
0.00122537
0.00517332
-0.000125208
0.00270175
0.00485226
0.000154813
0.00223055
0.00583629
-0.000197507
0.00303184
0.00643855
-0.000680343
0.00323988
0.00541663
7.40503e-05
0.00277273
0.00518816
0.00142004
0.0020504
0.0053307
9.27727e-05
0.00274374
0.00629106
0.00069161
0.0011783
0.000712838
0.001225
0.00705656
-0.000546276
0.000240886
0.00749573
-0.000268419
0.000453931
0.00575311
0.000943658
0.000280818
0.0047524
3.35239e-05
0.000681231
0.00592996
1.03417e-05
-0.000213171
0.00549427
0.000915455
0.000408198
0.00532123
0.00105892
0.000703834
0.00454574
0.000931429
0.000339127
0.00299786
0.00132455
0.000158101
0.00399484
0.000342273
-0.000146739
0.00631361
-0.000333276
-0.000469782
0.00634459
0.000691162
-0.000702168
0.00468754
-0.000188316
0.00172181
0.00435135
0.00027498
0.001404
0.00485026
-0.000480686
0.000441352
0.00605905
-0.000143389
0.000594974
0.00566808
0.00142365
-0.000925118
0.00347556
0.000702753
0.000701911
0.00470576
0.000589048
-9.05785e-05
0.00560321
-0.000119824
-0.00130005
0.00511459
-0.00049105
0.000813808
0.00567381
0.00010631
-0.00107057
0.00591237
0.00114819
-0.00155778
0.0059586
0.00111092
-0.000381269
0.00449789
-0.000322454
0.00117817
0.00271454
0.000531448
0.00249885
0.00321067
0.00142173
0.000538116
0.00451181
0.000459989
-0.000852333
0.00510045
-0.000581255
0.000426036
0.00510026
-0.000203875
0.000525891
0.00437402
0.000576571
9.76365e-05
0.00407739
0.000250944
-2.02699e-05
0.00424394
0.00038971
0.000156154
0.004224
0.000184265
3.69931e-05
0.00542387
-0.00107788
-0.000533997
0.00615385
6.23893e-05
-0.00010575
0.00529293
0.00157666
0.000250776
0.00376891
0.000867383
0.000940053
0.00476646
-0.000130035
-0.000279832
7.14547e-05
-0.00117093
0.003308
0.00023592
0.00032227
0.00329801
0.000259147
-0.000108934
0.00411949
0.000890916
2.20672e-05
0.00442706
0.000507707
0.000496047
0.00443759
0.000683963
5.26907e-05
0.00397041
0.00131015
0.000415365
0.00445826
0.000170185
0.000445494
0.00408961
0.00113481
0.000409068
0.00456127
0.00170883
0.000233603
0.00555696
6.58484e-05
-0.000410847
0.00473979
0.000292073
0.000591833
0.00496206
0.000752613
0.000344333
0.00451254
0.000404878
0.000554861
0.0041263
0.00046595
0.00118762
0.00382249
3.3786e-05
0.000325814
0.00371688
0.000237239
0.000429764
0.00494067
0.000336557
0.000632279
0.00460595
0.000712348
0.000832994
0.00389067
0.000403983
0.000569466
0.00401022
-0.000277065
0.0010699
0.00456197
0.000181997
0.000260278
0.00413381
0.000732538
-0.000553931
0.00438831
0.000575374
0.000744054
0.00570027
0.000734635
0.000413273
0.00558112
0.000129536
0.00104992
0.00446316
0.00140275
0.000689477
0.00393899
0.00215739
0.000324812
0.00425018
0.000947354
0.00118017
0.00437794
1.6961e-05
0.000881954
0.00464351
3.40564e-05
0.000146355
0.00511067
0.000853285
-0.000632012
0.00527976
0.000246778
0.000136
0.0047866
-7.16948e-05
0.000660401
0.00381567
0.000485918
7.57254e-05
0.00495211
-0.000864608
-0.000682546
0.00499089
-0.000350912
0.000243003
0.00491048
0.0012105
0.000169163
0.00593926
0.000861174
-0.000168936
0.0050955
0.000280696
0.000930695
-0.000124332
0.000507165
0.00547246
0.000211497
4.37322e-05
0.00481466
0.00121161
-0.00012387
0.0039191
0.00147812
0.000314627
0.00319426
0.000747606
0.000974544
0.00326653
0.000921881
0.000405093
0.004276
0.000445949
7.67852e-05
0.00515766
-0.000326065
-0.000241202
0.00474298
0.00114103
0.000456645
0.0048723
0.00130535
0.000274048
0.00481201
0.00114651
-0.000633135
0.00524821
5.92941e-05
-7.52261e-05
0.00584622
0.000300144
-0.000388439
0.00512168
0.00135565
0.000232914
0.00499435
0.000113836
0.00116162
0.00550142
0.000352544
-0.000366085
0.00514804
0.000936922
0.000222491
0.00473654
0.000213442
0.00117755
0.00423577
0.00080649
0.000615118
0.0040508
0.000149738
0.000824469
0.00427828
-0.000550521
0.000691105
0.00458098
0.000229816
6.36029e-05
0.00480136
0.000230539
0.000358759
0.0051697
-0.000610593
0.000933087
0.00546598
0.00012107
0.000422787
0.00454585
0.000586391
0.000520754
0.00440435
0.00106388
0.000660222
0.00524787
0.0014645
4.29079e-05
0.00652029
3.69225e-05
-8.54646e-05
0.00647867
-0.000268224
9.43857e-06
0.00485263
0.000798339
0.000313272
0.00451771
0.000696834
0.000517392
0.00540927
-0.000613974
0.000397551
0.00514124
-9.37977e-05
0.000362834
0.00352096
0.001717
0.000327359
0.0035571
0.000156087
-0.000320927
0.00447133
-0.000393411
-0.000371245
0.00485123
0.000804621
-0.000409167
0.00513587
0.000244629
-0.000253121
0.00476146
2.52482e-05
0.000347478
-0.000554842
0.000232542
0.00465889
-0.000435959
0.000529903
0.00463237
0.00121495
0.000842187
0.00368414
0.00180271
0.000348935
0.00416551
0.000610086
-0.000740071
0.00457155
0.000783919
7.8206e-05
0.00412238
0.000338131
0.000940511
0.00391003
0.000377054
0.00017816
0.00460639
0.000895649
4.34424e-05
0.00480404
0.000923546
0.000283942
0.00457465
0.00133259
4.79901e-05
0.00456361
-0.000287507
-0.000313513
0.00401752
7.37497e-05
0.000128738
0.00322205
0.00202723
0.000494121
0.00320584
0.000745226
0.000669032
0.00401252
0.00035836
0.000368051
0.00388369
0.00132528
0.000204222
0.0041024
4.64714e-05
0.000250126
0.00473802
-0.000243067
0.000564278
0.00395657
0.000354765
0.00044696
0.00388295
6.77323e-05
5.29339e-05
0.00415076
0.00029551
0.000175907
0.0033793
0.000608231
0.000701699
0.00327251
-6.82082e-05
5.77534e-05
0.00353683
0.000603168
-0.000169912
0.00418687
0.000290464
0.000536486
0.00482413
-7.8703e-05
0.000385161
0.00379348
0.0011309
0.000757412
0.00343198
0.000358176
0.000330408
0.00406322
1.06281e-05
-0.000795162
0.00418798
0.000466709
9.20856e-05
0.00402572
0.000126049
0.000393584
0.00380522
5.30596e-05
-0.000495785
0.00343627
0.000930191
-0.000168857
0.00384987
0.00133881
9.68655e-05
0.00390844
0.000455951
-0.000252346
0.00352003
0.000221481
9.38045e-05
0.0030153
0.00108115
0.0006522
0.00312651
0.0003129
-8.01142e-05
0.00382584
-0.000544039
-0.000318981
-0.00056218
4.4093e-05
0.00301634
0.000279436
-0.000443014
0.00432958
0.000490095
-0.000212743
0.00469755
0.00143528
-0.000133114
0.00407715
0.00124745
-4.85289e-05
0.00429177
0.0005222
0.000138652
0.00394163
0.000992354
-0.000276233
0.00397493
0.000929017
-0.00019083
0.00379183
0.00101752
0.000424923
0.00347049
0.00102997
0.00032804
0.0046118
-4.78109e-05
-0.000140399
0.00395952
0.000497979
0.00011538
0.0039207
0.00041931
-0.000243491
0.00490455
0.000558929
0.00047123
0.00445143
0.000871472
0.000301683
0.00460988
2.64467e-05
-5.58556e-05
0.00440659
0.00111323
0.000377899
0.00331802
0.00118625
-5.78178e-05
0.00336661
-0.0002926
-3.80738e-05
0.00350508
4.12437e-05
-0.000466834
0.00350609
0.000420756
-0.000434625
0.00396141
0.000209662
-0.000106272
0.00359932
0.0012241
-0.000346863
0.00400113
0.000145126
-0.000596906
0.00455343
0.000171998
-0.00013485
0.00366048
0.00110229
0.000235732
0.00385385
0.000146479
-0.000139419
0.00402062
0.000881124
4.79038e-05
0.00367326
0.000578559
0.00053492
0.00380417
8.09719e-05
0.000153813
0.00363242
0.000578612
0.000193825
0.00325475
0.000301828
0.000238461
0.0032362
0.000451565
-0.000394345
0.00332719
0.00125467
-0.000260799
0.00344251
0.000982295
-0.000142444
0.00428029
-0.000111698
-0.000278344
0.00418707
0.000174134
0.000168126
0.00346934
0.0018081
-5.61463e-05
0.0032434
0.0011249
-0.000408443
0.00287055
-3.41459e-05
-4.28481e-05
0.000272024
-0.000216647
0.00225913
0.00103136
-6.67869e-05
0.00310782
-5.40193e-05
-4.46399e-05
0.00404594
0.000765193
-0.000195274
0.00346569
0.00117109
0.000113063
0.00395307
6.95693e-05
0.000238423
0.00401875
0.00104112
0.000528237
0.00328089
0.00140506
0.000316065
0.00366993
0.00066455
-9.72491e-05
0.00370949
0.000506727
0.000494212
0.00296359
0.00043178
0.000207356
0.00343447
0.000560737
-0.000375679
0.00398179
0.000126816
0.000124924
0.00341491
0.000758565
0.000582294
0.00338604
0.000281023
-0.000105968
0.00394938
-0.000760699
-0.000504501
0.00431798
0.000558279
0.000579289
0.0039943
0.00100818
0.000298157
0.00295808
0.000427839
-0.000516842
0.00255421
0.000441709
-0.000106052
0.00291189
0.000357033
0.000191701
0.00312286
0.000119701
-3.79305e-05
0.00322013
0.000915609
-3.29913e-05
0.00366356
-0.000204091
-0.00015577
0.00400702
-5.83488e-05
-8.3526e-05
0.0040166
0.0010157
9.53005e-05
0.00434614
-5.43945e-08
-3.25711e-05
0.00361019
0.0011134
0.000220734
0.00261877
0.000763844
6.49853e-05
0.00344248
-0.000323407
-0.000598666
0.00389381
0.000490928
-0.000102441
0.00278405
0.00100934
0.00043647
0.00287823
0.000500495
-0.000238096
0.0037111
0.000563994
-0.000349622
0.00318212
0.00131244
-0.000200023
0.00317202
0.000276463
-8.62589e-05
0.00361488
0.000170245
-0.000183922
0.00411953
0.00140594
9.94426e-05
0.00359698
0.00122734
0.000455563
0.00317236
0.000226534
0.000149583
0.000498111
-0.000468934
0.00282537
0.0014898
0.0003379
0.00322397
-0.000142096
-5.15212e-05
0.00328775
0.000860555
-0.000173264
0.0029871
0.000653141
8.11748e-07
0.00291128
3.90168e-05
-8.64609e-05
0.00290309
0.0013337
-0.000488237
0.00310411
0.00115648
-0.000376454
0.0031721
0.000413626
-8.68164e-05
0.00309859
0.000519211
-0.000318356
0.00280891
0.000972163
-0.000133133
0.00325947
0.000354709
-0.000249459
0.00355085
-0.000181804
-0.000182036
0.00258161
0.00134997
0.000186847
0.00174754
0.00125978
-0.000273052
0.00232211
-0.000542996
-0.000651919
0.00339213
1.3396e-05
-0.000414136
0.00355045
0.000780564
-9.31675e-05
0.0029816
0.000767469
-0.000151624
0.00282129
0.000675625
0.000207775
0.00256948
0.000871759
0.000593179
0.00222177
0.000784987
-0.000189365
0.0028937
0.000381348
-0.000455108
0.0032688
-0.000156388
4.53464e-05
0.00297061
0.000842625
0.000123743
0.00295745
0.00129055
-0.000127537
0.0032344
3.19008e-06
-0.000147259
0.00308382
0.00126418
8.51193e-05
0.0024834
0.00174665
7.39165e-05
0.00235304
0.000597847
-0.000267218
0.0029479
0.000342719
-0.000408727
0.00307742
0.00127951
-0.000255564
0.00301793
0.000820113
-0.000356086
0.0035512
8.15688e-05
-1.97202e-05
0.00341864
0.00131874
0.000348953
0.00321075
0.000625188
-7.72254e-05
0.00341772
0.000251547
-1.28305e-05
0.00340538
0.00160527
0.000157885
0.00325192
0.0015442
-0.000264894
0.00388189
-0.000264814
-0.000270612
0.000556168
0.000168593
0.00363983
0.000960719
0.000266259
0.00346001
0.000102599
-2.68137e-06
0.00308123
0.00132762
-0.00034365
0.00313911
0.000282077
5.41329e-07
0.00327133
-0.000288138
-0.000145309
0.0032225
0.00135778
-0.000466045
0.00339935
0.00105088
-2.57275e-05
0.00375367
6.09307e-05
4.21226e-06
0.00317772
0.000904908
-0.00019505
0.00267359
0.00130768
0.000225809
0.00315567
-5.43847e-05
-8.98533e-05
0.00312689
-0.000168716
-9.82597e-05
0.0032094
0.00105433
6.2583e-05
0.00308829
0.00140578
9.25006e-05
0.00251032
0.000383319
-0.000258191
0.00265036
0.000197828
-0.000679794
0.00290392
0.000601106
-0.000268431
0.00231776
0.000903672
0.00019343
0.00221651
0.000871675
-4.46229e-05
0.00275263
0.000965546
4.17252e-06
0.00285616
0.00107391
0.000125866
0.00288933
0.000370388
-0.000117749
0.00287663
-9.58591e-05
-9.95485e-05
0.00310681
0.000624345
-4.46079e-05
0.00282628
0.00158092
-0.000237292
0.00277386
2.90494e-05
-5.97341e-05
0.00305595
0.000874509
-8.54677e-06
0.00303364
0.00170416
-6.49333e-05
0.00267043
0.00110346
-0.000134287
0.00269545
0.000580853
-0.000405287
0.00314092
0.00096832
-0.000219483
0.0027648
0.00118226
1.34722e-05
0.00236065
0.000549435
4.06341e-06
0.00253332
0.00119083
0.000180241
0.0030232
0.000202561
3.80186e-06
0.00326562
0.000190355
0.00014773
0.00354568
0.00158609
0.000292977
0.00373716
0.00137976
-0.000174711
0.00341859
0.000178271
-0.000343793
0.000680818
-2.8382e-05
0.00278252
0.000486153
-0.000142716
0.00241386
0.000673291
-0.000310501
0.00274368
0.00094104
-0.00012596
0.0027661
-0.000139885
0.000210107
0.00220881
0.000327111
-0.000282594
0.00310984
0.000558598
-0.000579872
0.00344965
0.000669226
-0.000171697
0.00278763
0.000437643
-3.3145e-05
0.00243088
0.000909455
-0.000208813
0.0022382
0.00132216
-4.37723e-05
0.0027077
-0.00042397
-0.000140593
0.00263059
-0.000303821
-0.000100328
0.00246347
0.000871396
9.14011e-06
0.00295243
0.000686408
0.000131127
0.00236094
0.000728411
-5.7144e-05
0.00244342
-8.05217e-05
-0.000113845
0.00297159
-0.000310907
0.000187981
0.00194988
0.00142787
0.000144996
0.00149197
0.00142026
-0.000330719
0.00206251
0.000835897
-0.000347732
0.00288977
0.000600159
-0.000212821
0.00336335
0.000215916
-0.000514096
0.00309593
0.000217295
-0.00035741
0.0027261
0.000875828
-9.98029e-05
0.00205224
0.00210838
-0.000153037
0.00192872
0.000150634
-0.000609812
0.0025403
0.000160798
-0.000365488
0.00270265
0.00151462
-8.19027e-05
0.0026576
0.00137419
-0.000337366
0.00275657
0.000488804
-0.000259468
0.00276203
0.000823049
-0.000182404
0.00240062
0.00146982
-0.000262969
0.00227353
0.000656035
-0.000349967
0.00278069
0.000535507
-9.17787e-05
0.00263031
0.000348907
-1.382e-05
0.00263924
0.000396647
-0.000219816
0.00335864
0.000977337
-0.000368414
0.00335737
0.00114186
-5.33645e-05
0.00266801
0.000785337
0.000145693
0.000769839
-0.000113551
0.00268284
0.000505888
-8.21681e-05
0.0022151
0.00112297
-9.10619e-05
0.00242914
0.000521275
-7.39171e-05
0.00229439
-0.00031041
0.000188768
0.0020513
0.000747829
7.4549e-05
0.00263825
0.000142988
-0.000281464
0.00263028
0.000623354
-7.99593e-05
0.00232785
0.000665703
-6.03968e-05
0.00235399
0.00073509
-0.000202642
0.00199145
0.00127839
9.20644e-06
0.00202005
-0.000395724
-0.000382925
0.00256728
-0.000705264
-0.000245261
0.00240751
0.000680604
0.000182195
0.00206485
0.000795013
-4.54474e-05
0.00233428
0.000573386
-0.000220643
0.00228734
-0.00010796
-0.000228421
0.00215746
-0.000338966
-0.000362644
0.0020436
0.00162396
-0.000284087
0.00188964
0.00130187
6.35413e-05
0.00240538
0.000203495
-0.000132379
0.00301613
1.60144e-05
-0.000322051
0.00268483
0.000518255
-0.000272175
0.00216476
0.000425524
-0.000120969
0.00212833
0.000661679
-0.000139739
0.00207965
0.0021734
-0.000155651
0.00207569
0.000293402
-0.000375019
0.00252605
-0.000283249
-0.00044946
0.00275754
0.00155484
-0.000364513
0.0027684
0.00155435
-0.000263135
0.00283776
0.000333352
-0.000139842
0.00300567
0.000491533
-6.12655e-05
0.00298501
0.00136914
-4.73447e-05
0.00280095
0.000748634
-0.000251287
0.00271623
0.000445471
-0.000200038
0.00242885
0.00051746
-2.77541e-05
0.00250563
0.000379375
-0.000276508
0.00318614
0.000349256
-0.000322144
0.00330177
0.000821869
-0.000107342
0.00282833
0.00113346
-0.000115747
0.000819767
-7.48983e-05
0.00239718
0.000548116
-0.000235282
0.00253531
0.0010006
-0.00018232
0.00212113
0.000615783
-0.000122478
0.00180724
1.3179e-05
-1.35476e-05
0.0019888
0.000786097
8.09292e-05
0.00190044
0.000411184
-9.76795e-05
0.00217502
0.000424292
-6.64037e-05
0.00256351
0.000258605
-0.000155297
0.0025255
0.000716461
-5.01139e-06
0.00184548
0.00155184
9.22811e-05
0.00157084
-0.000157172
-0.000451347
0.00220415
-0.0010131
-0.000527698
0.00230891
0.000408889
-0.000132767
0.00223067
0.000880403
-0.000107445
0.00229582
0.000757877
-7.34379e-05
0.00167557
0.000589051
-0.000221646
0.00173226
-0.000376159
-0.000376252
0.00237241
0.000943356
-0.000224335
0.00228585
0.00113479
0.000184379
0.00215733
0.000312104
-0.000159948
0.00226357
0.000196366
-0.000487827
0.00227548
0.00079708
-0.000354905
0.00194819
0.00048652
-0.000195115
0.00219349
0.000131194
-0.0001448
0.00249224
0.001739
2.22272e-06
0.00198244
0.000581041
-0.000136851
0.00204948
-0.000105389
-0.000552253
0.00253519
0.00136975
-0.000516971
0.00271275
0.00114267
-1.14753e-05
0.00275191
4.28457e-07
3.69172e-05
0.00288901
0.000346967
-0.000223005
0.00309615
0.00107241
-6.25671e-05
0.00273717
0.000822655
-0.000111578
0.00233131
0.000789785
-0.000278171
0.00191551
0.000898139
-0.000217084
0.00188517
0.000486123
-0.000546004
0.00245859
-9.13589e-05
-0.00055332
0.00250141
0.000701782
-0.000293169
0.00241767
0.0013039
-0.000203799
0.000710493
-0.000141968
0.00206316
0.000416791
-0.000155737
0.00227617
0.000776125
-0.000187801
0.00176917
0.000951683
-0.000129164
0.00156495
0.000174858
3.08469e-05
0.00178509
0.000748501
-0.000113985
0.00145921
0.000825999
-3.60754e-05
0.0015781
0.000362941
-8.96791e-05
0.0020358
-3.55557e-05
-0.000356777
0.00199787
0.000853161
-0.000164731
0.00174145
0.00159836
7.12385e-06
0.00167565
-7.9158e-05
-0.000185698
0.00176538
-0.000838989
-0.000394567
0.00182108
0.000523308
-0.000322993
0.00202132
0.000846594
-0.000334303
0.0020706
0.000946164
-0.000191811
0.00161416
0.0010889
-0.00022364
0.0017141
-0.000532159
-0.000310526
0.00214579
0.000361967
-6.28505e-05
0.00205965
0.00125084
-5.92986e-05
0.00197421
0.000641639
-0.000309795
0.00199041
0.00036342
-0.000303777
0.00203391
0.000844445
-0.000193858
0.00176961
0.00069453
-0.000181907
0.00206956
-0.000159376
-0.000116038
0.00236371
0.00132101
-0.000110427
0.00172853
0.00111696
-0.000186712
0.0019042
2.24896e-05
-0.000417767
0.00243584
0.000964628
-0.000218137
0.00219943
0.000955586
0.000221769
0.00211556
-0.000249607
-7.79077e-05
0.00235633
9.50466e-05
-0.000253848
0.00236801
0.00095624
-8.29418e-05
0.0021689
0.000899509
-0.000157467
0.0020546
0.000802399
-2.4292e-05
0.00187901
0.00102404
-7.22621e-05
0.00184575
0.000545811
-0.000369621
0.00195031
-0.000180471
-0.000419484
0.00185331
0.000706569
-0.000162101
0.00201359
0.00117093
-3.39396e-05
0.000600465
-0.00015311
0.00183431
0.000330874
-0.000200406
0.00204941
0.00052952
-0.000190991
0.0015127
0.00124119
-0.000143723
0.00119028
0.000338742
-7.06256e-05
0.00161545
0.000415558
-8.97714e-05
0.00163551
0.000786137
2.25271e-05
0.00151775
0.000433933
-2.555e-05
0.00183319
-0.00030304
-0.000251597
0.00181518
0.000916497
-0.000242873
0.00145853
0.00178649
-3.28082e-05
0.00135767
4.06005e-05
-0.000270902
0.00154225
-0.000705706
-0.000490598
0.00161276
0.000522471
-0.000132699
0.00176239
0.00081691
-0.000193162
0.00190128
0.00107095
-0.000259777
0.00161587
0.00149983
-0.000170447
0.00154627
-0.000256712
-0.000419352
0.001667
0.000135559
-0.000180545
0.00162707
0.00109924
-0.000106152
0.00176436
0.000504773
-0.000187592
0.00190341
0.000444032
-0.000412128
0.00191103
0.00088422
-0.000284049
0.0017963
0.000623528
-0.000143585
0.00182612
-0.000232644
-0.000127183
0.0019457
0.00119545
-0.000134938
0.00178194
0.00126015
-6.76913e-05
0.00192653
4.81007e-05
-0.000200487
0.00219501
0.000795222
-0.000131251
0.00176316
0.0010741
6.99878e-05
0.00152358
-0.000276231
-0.000154288
0.0020418
-0.000319617
-0.000164106
0.00218283
0.000842772
-3.79874e-05
0.00174695
0.00116574
-0.000178207
0.00160918
0.000764992
-8.09848e-05
0.00182936
0.000741244
-9.70821e-05
0.001948
0.000414123
-0.000135616
0.00195681
-0.000186664
-0.000249245
0.00185184
0.000716049
-0.000224276
0.00185397
0.0012558
-5.6838e-05
0.000811526
-9.01e-05
0.00153179
0.000402243
-4.96821e-05
0.00190808
0.000224496
-0.000244532
0.00178875
0.00123289
-0.000149519
0.00136235
0.000643455
-0.00015342
0.00146341
0.000408536
-0.000176906
0.0014967
0.000808569
-0.000177767
0.00139361
0.000442882
-0.000142735
0.00157046
-0.000437524
-0.000193116
0.0017028
0.000860838
-0.000142281
0.0016023
0.00183983
-7.65883e-06
0.00143778
0.000211768
-0.000230652
0.00133732
-0.00039391
-0.000385846
0.00125642
0.000797273
-0.000234564
0.00145608
0.000739185
-0.000252707
0.00163722
0.00110019
-0.000227922
0.00165679
0.00168097
-0.000155837
0.00166256
-0.000115139
-0.000230639
0.00163195
-2.24575e-05
-6.8145e-07
0.00165504
0.000879108
-1.64002e-05
0.00165717
0.000564953
-0.000197899
0.00169156
0.000600462
-0.00032273
0.00162149
0.00105207
-0.000214347
0.00138448
0.000789116
-0.000161163
0.00157151
-0.000356819
-0.000227368
0.00196221
0.000927783
-9.05391e-05
0.00169819
0.00163479
-0.000148259
0.00168308
0.000296696
-0.000274225
0.00181061
0.000767258
-0.000117484
0.00147632
0.00119388
-2.00864e-05
0.00141789
-0.000272369
-0.000160736
0.00165726
-0.000416539
-7.61512e-05
0.00181891
0.000575635
4.76849e-05
0.00184078
0.00102518
-9.28863e-05
0.00169102
0.000849515
-0.000109359
0.00164521
0.000852398
-0.000278078
0.00157764
0.000494882
-0.000147542
0.00159076
-0.000189736
-0.000190828
0.00153041
0.000757628
-0.000305633
0.00156086
0.00127538
-0.000223534
0.000811255
-6.3417e-05
0.00137327
0.000436748
0.000102167
0.00164472
-3.49104e-05
-0.000113955
0.0016403
0.00106378
-1.25742e-05
0.00130268
0.000816898
-3.36437e-05
0.00127348
0.000500387
-6.51642e-05
0.00145561
0.000746727
-0.000209448
0.00140803
0.000435421
-0.000136444
0.00130319
-0.000329186
-0.000215615
0.00143749
0.000811596
-0.000110507
0.00160109
0.00164228
9.14413e-05
0.00142532
0.000261664
-7.89856e-05
0.00115194
-6.05314e-05
-0.000263259
0.0011473
0.000840343
-7.60669e-05
0.00135319
0.000586487
-0.000110526
0.00144716
0.00120102
-0.000238063
0.00149193
0.00172472
-8.75284e-05
0.00155067
-9.8964e-05
-0.000166523
0.00151481
-0.000144247
3.27638e-05
0.00133974
0.000862675
2.73866e-05
0.00135842
0.000650299
-0.000270381
0.00150303
0.000587598
-0.000270531
0.0014972
0.00106579
-0.000177182
0.00125531
0.000886146
-0.000162638
0.00114038
-0.000228536
-0.000264892
0.00162209
0.000664438
-0.000184454
0.0017707
0.00169911
-0.000138422
0.00174377
0.000423371
-0.00016157
0.00186943
0.00068987
-9.68823e-05
0.00162384
0.00121071
5.96064e-05
0.00137154
-0.000126561
-0.000123846
0.00156809
-0.000438588
-0.000187158
0.001682
0.000398015
-2.30391e-05
0.00169376
0.000911185
6.14156e-06
0.00179962
0.000673856
-0.000186414
0.00172393
0.000957867
-0.00018247
0.00142743
0.000752492
-2.25282e-05
0.00134541
-0.00018212
-4.33022e-05
0.00137206
0.000671383
-0.000232029
0.00150639
0.00116412
-0.000281478
0.000834094
-0.000188824
0.00126849
0.000371354
4.03239e-05
0.00134079
-7.1288e-05
-2.54169e-05
0.00118765
0.00110085
-3.56386e-05
0.00111107
0.000739834
-4.25681e-05
0.00129223
0.000350577
-3.66483e-05
0.00140665
0.000644453
-0.000103437
0.00124161
0.000564711
-0.000117644
0.00105573
-0.000151445
-0.000207549
0.00125296
0.000610355
-8.70523e-05
0.00136791
0.0014557
0.000107204
0.00103076
0.000468815
-6.64975e-05
0.000842994
9.52101e-05
-0.000283866
0.00103284
0.000638195
-1.40565e-05
0.00129296
0.000379878
-0.000100328
0.00146503
0.00108667
-0.000196601
0.00151381
0.00158495
0.000115758
0.00144076
-1.3716e-05
-7.47534e-05
0.00140813
-0.000105915
-0.000134367
0.00126482
0.000909029
5.74199e-05
0.00118302
0.000924842
-0.000250359
0.00120111
0.000684372
-0.000238726
0.00113761
0.00108564
-0.000298661
0.0010343
0.000985558
-0.000327302
0.0011693
-0.000265225
-0.000258497
0.00154015
0.000424471
-0.000145757
0.00149306
0.00194163
-0.000115399
0.00137656
0.000518063
-3.04639e-05
0.00145924
0.00043889
4.99199e-07
0.00143758
0.000958047
7.20191e-05
0.00130775
-0.000119619
-0.000102443
0.00129735
-0.000316487
-0.000122201
0.001403
0.000314684
-5.38035e-05
0.00139518
0.000835269
2.3864e-05
0.00150952
0.000445051
-0.000148393
0.00155795
0.000982008
-0.000329163
0.00145732
0.000976623
-0.000237057
0.00145555
-0.000305269
-7.8075e-05
0.00133928
0.000548623
-0.000107582
0.00123058
0.00117444
-0.000180154
0.000808625
-0.000210236
0.00116926
0.000304287
-6.75681e-05
0.00114448
-3.53454e-06
-0.000155199
0.00123911
0.00084332
-3.00767e-05
0.00116941
0.000649454
-1.50061e-05
0.00122769
0.000383507
-8.15117e-05
0.00121738
0.000633155
-2.0734e-05
0.00118405
0.00058417
-0.000101192
0.00107754
-8.12331e-05
-0.000116245
0.00114013
0.000394738
-3.68383e-05
0.00132786
0.00107591
0.000170121
0.00111524
0.000596524
-3.41802e-05
0.000899074
0.000223941
-0.000176217
0.000984784
0.000500595
5.45703e-06
0.0010762
0.000405076
-0.000161594
0.00128967
0.000906656
-0.000191763
0.00142303
0.00137752
0.000122979
0.00127435
6.04753e-05
2.2568e-05
0.0013323
-0.000195477
-4.68205e-06
0.00136841
0.00089302
-7.99197e-06
0.00125632
0.00127145
-0.000216533
0.00124019
0.000812418
-0.000194396
0.00116935
0.00105925
-0.000279398
0.00120229
0.000992148
-0.000274366
0.0012422
-0.000201753
-0.00019861
0.00132775
0.000464728
-0.000133936
0.0014202
0.00201536
-0.000106038
0.00133909
0.000523664
4.28175e-05
0.00135747
8.21067e-05
0.000120711
0.00148618
0.000406965
0.000233301
0.00128732
-2.28119e-06
-1.48723e-05
0.00117354
-0.000212921
7.21841e-06
0.00122937
0.000284196
-2.5147e-05
0.00113549
0.000923151
-2.56124e-05
0.00131848
0.000243932
-5.61621e-05
0.00140933
0.000926458
-0.000248613
0.00133576
0.00111552
-0.000161812
0.00129059
-0.000363304
-0.000126319
0.00118162
0.00044207
-9.82766e-05
0.00107089
0.00117556
-9.61383e-05
0.000623094
-0.000197918
0.00111847
0.000264516
-3.87979e-05
0.00104326
0.000126698
-0.000128907
0.00122838
0.000508436
-0.000125191
0.00119287
0.000480804
1.71201e-05
0.00108598
0.000462878
-2.17243e-05
0.00106675
0.000505098
3.77707e-05
0.00106234
0.000596402
-8.44966e-05
0.00102395
-8.05801e-05
-1.84581e-05
0.001122
0.000139677
-4.25606e-05
0.00117994
0.000874099
8.9883e-05
0.000968488
0.00074736
-2.54259e-05
0.000822829
0.000284625
-0.000169686
0.000887553
0.000383229
-4.43149e-05
0.00100391
0.000457805
-0.000140573
0.0011589
0.000761348
-0.000132933
0.00118011
0.00129469
3.33256e-05
0.0011121
2.24949e-05
-4.25368e-05
0.00108491
-0.000180173
-6.57762e-06
0.00113553
0.000965271
-0.000217581
0.00115204
0.00138032
-9.93252e-05
0.00107606
0.000858304
-5.56361e-05
0.00109254
0.000828438
-7.78053e-05
0.00115592
0.000834009
-0.000160887
0.00103059
-5.25449e-05
-0.00011899
0.00133369
0.000279787
-0.000102185
0.00157563
0.00177813
-1.06112e-05
0.00128802
0.000642252
3.51697e-05
0.00133463
-0.000224948
7.23491e-05
0.00144343
-1.26571e-05
0.000189265
0.00116969
0.000271995
-6.46169e-05
0.00109815
-0.000220826
7.64116e-05
0.00100623
0.00030567
-1.6139e-05
0.000842698
0.00105712
-3.26808e-05
0.000944782
2.60392e-05
-5.45396e-06
0.00109943
0.000739037
-0.000149703
0.00135715
0.000855205
-9.72329e-05
0.00139564
-0.000454753
-4.89509e-05
0.00117869
0.000606
-0.000145313
0.00108858
0.0011328
-6.59553e-05
0.000422274
-0.000107041
0.000980266
0.000201266
-9.23121e-05
0.000982669
0.000224242
-0.000127911
0.0011716
0.000117208
-0.000110291
0.0013127
0.00015996
-2.19477e-05
0.00109183
0.000694535
-3.71091e-05
0.000982842
0.000496578
1.01894e-05
0.00108484
0.000535764
-0.000112799
0.000958578
-4.73369e-05
4.86882e-05
0.00090376
-1.4977e-05
-4.27015e-05
0.00102154
0.000697797
-5.67058e-05
0.000903553
0.000840757
-2.92399e-05
0.000719255
0.000396966
-0.000171634
0.000687736
0.000411334
-7.54549e-05
0.000733532
0.000528573
-0.000173996
0.00106022
0.000460732
-0.000161111
0.00122263
0.00107964
4.26802e-05
0.00109543
7.41569e-05
-3.23806e-05
0.00101858
-6.81432e-05
-5.15231e-05
0.00113187
0.000870669
-0.000182435
0.00111914
0.0013716
-1.15217e-05
0.00118829
0.000560038
0.000114874
0.00117175
0.000523412
9.46072e-05
0.000990609
0.000878577
-0.000131855
0.000911804
2.75856e-05
-5.63841e-05
0.00104116
0.00030856
-8.13563e-05
0.001245
0.00148675
-1.87892e-05
0.00129032
0.00036576
4.87404e-05
0.00132835
-0.000413369
8.3613e-06
0.00137473
-0.000143738
-1.70364e-05
0.00118472
0.000513918
-0.000115542
0.00108004
-0.000137865
-3.3679e-05
0.000975708
0.00040332
-3.18078e-05
0.000763521
0.00114189
9.10721e-05
0.000764667
-0.000303715
7.80088e-05
0.00105727
0.000330181
-0.000160816
0.00111488
0.000781873
-0.000166105
0.0010073
-0.000367063
-0.000212769
0.00103435
0.000581465
-0.000191955
0.000912026
0.00110071
-2.0415e-05
0.000294172
-8.7708e-05
0.00090128
0.000267602
-5.82512e-05
0.000991512
0.000305078
-0.000145061
0.00113834
-0.000172413
-3.85989e-05
0.001182
-1.41879e-05
-4.49792e-05
0.00102579
0.000881073
-8.3226e-05
0.000907763
0.000538698
1.52577e-05
0.000951839
0.000403573
-3.43493e-05
0.000911207
-8.53252e-05
-1.3204e-05
0.000746105
-5.6701e-05
-3.29707e-05
0.00075883
0.000670375
-0.000123083
0.000885298
0.000699357
-8.43045e-05
0.000871223
0.000320199
-9.8992e-05
0.00088772
0.000381166
-3.63198e-05
0.000908819
0.000508228
-7.37284e-05
0.00101663
0.000348047
-0.000119851
0.00110283
0.000899736
7.07888e-05
0.000977994
0.000124803
2.05069e-05
0.000864578
1.70199e-05
-7.88656e-05
0.000890158
0.000811556
-0.000108855
0.000823072
0.00150577
-0.000144443
0.00107925
6.29834e-05
7.9656e-05
0.00108428
0.000211166
5.219e-05
0.000881201
0.000972804
-0.000191051
0.000921267
1.03262e-05
-0.000117866
0.000867721
0.00048853
-6.54705e-05
0.00105406
0.00112908
3.06602e-05
0.00113813
-6.20067e-06
0.000165971
0.00112542
-0.000479706
-3.61621e-05
0.00122953
-0.000223043
-0.000136686
0.00102069
0.000753512
-0.000145817
0.00093369
-8.02631e-05
-9.92592e-05
0.000926931
0.000421834
-1.69772e-05
0.000612383
0.00136766
-6.73911e-06
0.000535548
-0.000599231
5.62726e-05
0.000780718
-1.77385e-05
-0.000141606
0.000669771
0.000871254
-0.000186682
0.000757043
-0.000435866