/*--------------------------------*- C++ -*----------------------------------*\
  =========                 |
  \\      /  F ield         | OpenFOAM: The Open Source CFD Toolbox
   \\    /   O peration     | Website:  https://openfoam.org
    \\  /    A nd           | Version:  10
     \\/     M anipulation  |
\*---------------------------------------------------------------------------*/
FoamFile
{
    format      ascii;
    class       surfaceScalarField;
    location    "12";
    object      phi_0;
}
// * * * * * * * * * * * * * * * * * * * * * * * * * * * * * * * * * * * * * //

dimensions      [0 3 -1 0 0 0 0];

internalField   nonuniform List<scalar> 
74080
(
0.00495821
2.44124e-06
8.36536e-07
0.00495799
-1.10421e-06
-1.47888e-06
0.0049581
2.64775e-06
-8.75481e-08
0.00495731
-8.65446e-07
-1.2757e-07
0.00495714
-5.66126e-07
-1.61884e-06
0.00495712
-8.02371e-08
7.99892e-07
0.00495714
-2.66119e-06
-1.59782e-06
0.00495681
2.41091e-06
-1.39985e-06
0.00495727
-6.33375e-06
9.5673e-07
0.00495647
1.89299e-06
-1.23778e-06
0.00495846
-2.83211e-06
2.65152e-07
0.00495637
-1.93683e-06
-9.06349e-07
0.00495843
1.40454e-06
-2.13643e-07
0.00495775
-6.82861e-06
2.43004e-06
0.00495708
4.71135e-06
-3.34383e-06
0.00495983
-2.52051e-06
1.95986e-06
0.00495543
-9.52601e-07
2.15441e-06
0.00495837
5.02194e-06
-4.80003e-06
0.00495661
-2.21879e-06
4.59539e-06
0.00495627
2.95657e-06
-1.77226e-06
0.00495769
2.63562e-06
-9.27838e-07
0.00495496
-1.06697e-06
2.69675e-06
0.00495842
3.18706e-06
-4.86926e-06
0.00495606
-1.3805e-06
5.67267e-06
0.00495788
2.06774e-08
-2.63277e-06
0.00495799
2.42837e-06
-1.953e-06
0.00495754
-4.82135e-06
6.15245e-06
0.00496017
1.72161e-06
-5.17685e-06
0.004957
-1.14121e-06
3.08297e-06
0.00496169
-4.40331e-06
1.22606e-06
0.00495875
2.42307e-06
-2.40601e-06
0.00495974
-3.25707e-06
3.32739e-06
0.00496335
-2.02542e-06
-2.71953e-06
0.00495687
3.98579e-06
1.73801e-06
0.00496344
-3.05595e-06
1.00781e-06
0.00496052
1.29043e-06
-3.08933e-06
0.00495864
3.02554e-06
2.92129e-06
0.00496262
-1.80311e-07
-3.80051e-08
0.00495848
2.51794e-06
-2.41376e-06
6.19644e-07
1.2755e-06
0.00450715
3.25056e-06
2.81572e-06
0.00450646
-1.17609e-06
-2.04887e-06
0.00450646
3.28242e-06
6.48668e-08
0.00450704
-1.95865e-06
4.0261e-07
0.00450489
9.26101e-07
-2.87823e-06
0.00450654
-4.56337e-07
2.52553e-06
0.00450505
-2.94785e-06
-3.52363e-06
0.00450669
1.91001e-06
-4.34951e-07
0.00450614
-5.35379e-06
1.5466e-06
0.00450492
2.25227e-06
-3.16902e-06
0.00450769
-3.3893e-06
2.58148e-06
0.00450518
-1.8726e-07
-2.19789e-06
0.004509
-1.02104e-06
-6.04146e-08
0.00450562
-3.58546e-06
3.4488e-06
0.00450728
3.06191e-06
-4.78747e-06
0.00450987
-3.74871e-06
2.5529e-06
0.00450421
3.26455e-06
2.16704e-06
0.00450821
2.79376e-06
-6.24351e-06
0.0045062
-4.92987e-07
5.4889e-06
0.00450504
4.5253e-06
-1.73732e-06
0.00450653
1.41459e-06
-2.91741e-06
0.00450456
4.05834e-07
4.22824e-06
0.00450684
2.56509e-06
-5.21288e-06
0.00450522
-1.76058e-06
5.23739e-06
0.00450648
-4.027e-07
-1.62492e-06
0.00450732
1.6973e-06
-2.50999e-06
0.00450587
-4.62914e-06
7.1876e-06
0.00450879
-7.0323e-07
-5.14786e-06
0.00450675
-3.36951e-08
3.10318e-06
0.00450944
-6.86428e-06
2.3863e-06
0.00450864
2.70898e-06
-2.80483e-06
0.00450907
-3.54227e-06
3.20242e-06
0.00451085
-4.34248e-06
-9.19919e-07
0.00450806
6.95576e-06
4.36937e-07
0.00451192
-6.09992e-06
8.9055e-07
0.00450832
4.01547e-06
-3.52027e-07
0.00450918
2.68019e-06
5.22743e-07
0.00451047
-1.56465e-06
8.51381e-07
0.00450758
4.73736e-06
-6.64568e-07
-3.33029e-08
-8.81747e-07
0.00409773
2.41994e-06
3.38744e-06
0.00409574
2.39632e-07
-2.23827e-06
0.00409637
2.63204e-06
8.29293e-07
0.00409709
-2.84273e-06
-9.71511e-08
0.00409425
3.25438e-06
-2.99332e-06
0.00409699
-2.5193e-06
2.57074e-06
0.00409422
-1.37141e-06
-4.42424e-06
0.00409785
-5.39146e-07
1.73198e-07
0.00409565
-2.73e-06
9.49747e-07
0.00409531
2.48126e-06
-3.21797e-06
0.00409738
-3.67692e-06
2.98069e-06
0.00409584
1.31793e-06
-2.66996e-06
0.00409948
-3.43132e-06
7.76706e-07
0.00409512
2.15181e-07
2.76263e-06
0.00409889
-2.96443e-07
-4.63139e-06
0.00409948
-3.13998e-06
3.11648e-06
0.00409504
6.5586e-06
8.61382e-07
0.00409879
8.01504e-07
-5.7474e-06
0.00409617
1.97574e-06
5.99326e-06
0.0040949
6.11866e-06
-2.97175e-06
0.00409641
2.87183e-07
-3.12743e-06
0.00409465
1.98698e-06
4.70643e-06
0.00409634
2.00953e-06
-5.09846e-06
0.0040953
-2.21236e-06
4.73018e-06
0.00409596
4.57909e-08
-1.00002e-06
0.00409742
3.46599e-07
-2.5583e-06
0.00409546
-3.7985e-06
7.46926e-06
0.00409831
-2.91529e-06
-3.96183e-06
0.0040973
3.62002e-07
2.08764e-06
0.00409856
-8.32465e-06
4.01862e-06
0.00409955
1.76705e-06
-3.27068e-06
0.00409947
-3.59553e-06
2.53776e-06
0.00409964
-5.04679e-06
1.51797e-06
0.00410051
7.05824e-06
-2.04034e-06
0.00410012
-6.0419e-06
2.36103e-06
0.00409837
5.413e-06
1.69959e-06
0.00410058
7.77062e-07
-1.99853e-06
0.00409887
-5.46841e-07
2.78684e-06
0.00409848
4.87058e-06
7.11217e-09
6.51834e-07
-1.61064e-06
0.00372561
9.08126e-08
2.96162e-06
0.0037225
2.92795e-06
-1.59494e-06
0.00372377
7.9298e-07
1.09701e-06
0.00372373
-2.66231e-06
-1.04363e-06
0.00372207
4.56596e-06
-2.36626e-06
0.00372375
-4.20784e-06
1.42711e-06
0.00372175
1.09682e-07
-4.77226e-06
0.00372581
-3.41979e-06
2.69228e-07
0.00372246
9.20503e-07
2.34391e-07
0.00372341
2.33953e-06
-2.44754e-06
0.00372387
-2.6963e-06
2.27888e-06
0.00372413
1.38453e-06
-1.84412e-06
0.00372606
-4.33625e-06
1.61773e-06
0.00372293
2.45724e-06
1.11931e-06
0.00372747
-4.16101e-06
-3.03561e-06
0.00372598
-8.15821e-07
3.41053e-06
0.00372366
8.36377e-06
-1.69506e-06
0.0037264
-2.26371e-07
-3.77299e-06
0.00372291
5.07589e-06
5.7871e-06
0.00372234
7.34896e-06
-4.90952e-06
0.00372353
-4.5993e-07
-1.81558e-06
0.00372139
3.95764e-06
4.04508e-06
0.00372361
6.80751e-07
-4.77745e-06
0.00372224
-1.69051e-06
4.45109e-06
0.00372319
9.7006e-08
-8.28824e-07
0.00372412
-4.66952e-07
-2.20931e-06
0.00372281
-3.42821e-06
7.68451e-06
0.00372516
-4.93839e-06
-2.63096e-06
0.00372457
7.96164e-07
1.26793e-06
0.00372586
-1.02216e-05
5.51372e-06
0.00372702
9.71895e-07
-4.05684e-06
0.00372736
-4.28528e-06
2.43739e-06
0.00372683
-4.78314e-06
2.96451e-06
0.00372897
6.25783e-06
-4.08072e-06
0.00372621
-4.45378e-06
4.6499e-06
0.00372667
4.89697e-06
2.36656e-06
0.00372771
-6.24546e-07
-3.07413e-06
0.00372567
7.31585e-07
4.50201e-06
0.00372623
4.11802e-06
4.74337e-08
2.19379e-06
-1.38311e-06
0.00338712
-2.51605e-06
2.30907e-06
0.00338357
6.19551e-06
-7.1393e-07
0.00338479
-1.37705e-06
1.16724e-06
0.00338448
-2.00606e-06
-1.94951e-06
0.00338397
4.85517e-06
-1.78186e-06
0.00338417
-4.95678e-06
-1.51093e-07
0.0033839
4.3723e-07
-5.10812e-06
0.00338696
-5.20327e-06
2.31743e-07
0.003384
4.29659e-06
-6.40429e-07
0.00338483
3.20212e-06
-1.82672e-06
0.00338449
-1.18667e-06
1.57179e-06
0.00338585
4.37321e-07
-4.33205e-07
0.00338607
-3.6569e-06
1.57723e-06
0.00338542
1.80946e-06
-4.26732e-07
0.0033893
-6.96656e-06
-8.6021e-07
0.00338675
2.32697e-06
2.83619e-06
0.00338624
8.93077e-06
-3.76571e-06
0.00338772
-5.4167e-08
-1.2856e-06
0.00338333
8.822e-06
4.89764e-06
0.00338402
7.7962e-06
-6.51578e-06
0.00338416
-1.64012e-07
-2.41139e-07
0.0033821
5.77905e-06
3.02626e-06
0.00338478
-1.05516e-06
-4.62623e-06
0.0033833
-4.55387e-07
4.63583e-06
0.00338448
-2.05372e-07
-1.00674e-06
0.00338419
1.47053e-07
-1.94219e-06
0.00338469
-4.65896e-06
8.36912e-06
0.00338543
-5.76868e-06
-1.88654e-06
0.00338612
5.4886e-07
1.28036e-06
0.00338708
-1.21606e-05
6.36665e-06
0.00338806
3.3199e-07
-4.83023e-06
0.00338972
-6.07548e-06
3.06396e-06
0.00338773
-3.12975e-06
3.05877e-06
0.0033904
4.91127e-06
-4.90899e-06
0.0033871
-2.85862e-06
7.07846e-06
0.00338837
3.40348e-06
1.97629e-06
0.00338842
-1.41426e-06
-2.68628e-06
0.00338741
9.61569e-07
5.80804e-06
0.00338695
4.02365e-06
-6.35829e-08
3.1476e-06
-6.04988e-07
0.0030789
-4.06846e-06
1.39349e-06
0.00307561
9.34663e-06
-1.36508e-08
0.00307668
-3.82242e-06
1.46405e-06
0.00307618
-1.09875e-06
-2.87789e-06
0.0030766
4.40469e-06
-1.56521e-06
0.00307562
-5.01878e-06
-1.70434e-06
0.00307656
7.88389e-09
-5.80395e-06
0.00307942
-6.69894e-06
-3.44485e-08
0.00307651
7.88202e-06
-1.211e-06
0.00307641
6.05268e-06
-1.2752e-06
0.00307635
-4.70466e-07
1.80756e-06
0.00307777
-7.7172e-07
1.01947e-06
0.00307718
-2.16598e-06
9.04928e-07
0.00307865
-1.2554e-06
-8.87328e-07
0.00308186
-8.82724e-06
9.60881e-07
0.00307868
5.90114e-06
2.059e-06
0.00307951
8.43174e-06
-4.91456e-06
0.00307974
1.22839e-06
6.66058e-07
0.00307469
1.32444e-05
3.73418e-06
0.00307651
7.42855e-06
-7.53407e-06
0.00307523
1.36651e-06
1.27104e-06
0.00307384
6.93507e-06
1.91437e-06
0.00307662
-2.80894e-06
-4.60821e-06
0.00307579
6.65994e-07
5.15185e-06
0.00307603
3.78236e-07
-1.73459e-06
0.00307541
1.46886e-06
-1.59253e-06
0.00307722
-7.32016e-06
9.55773e-06
0.00307635
-5.47229e-06
-1.44375e-06
0.00307874
-9.12672e-07
2.08473e-06
0.00307847
-1.34013e-05
6.45075e-06
0.00308074
-1.60167e-06
-5.36287e-06
0.00308257
-7.88372e-06
3.80358e-06
0.00307923
-3.38259e-07
2.29013e-06
0.00308273
2.63523e-06
-4.49165e-06
0.00307882
-1.23306e-06
9.02536e-06
0.0030802
1.71359e-06
1.09342e-06
0.0030806
-2.52275e-06
-1.1619e-06
0.00307981
7.33918e-07
6.51577e-06
0.00307796
4.71212e-06
-3.41415e-07
2.43765e-06
7.23042e-07
0.00279815
-3.84499e-06
3.79953e-07
0.00279575
1.14957e-05
8.30462e-07
0.00279663
-6.12916e-06
2.059e-06
0.00279588
1.15869e-07
-3.99516e-06
0.00279746
2.95054e-06
-2.06372e-06
0.00279488
-3.89713e-06
-2.86709e-06
0.00279712
-1.13369e-06
-6.94947e-06
0.00280068
-8.89001e-06
-7.22082e-07
0.0027966
1.29126e-05
-1.5005e-06
0.00279587
1.0384e-05
-1.01756e-06
0.00279624
-1.04386e-06
2.74037e-06
0.00279706
-1.8081e-06
2.15712e-06
0.00279635
-5.03251e-07
-2.8409e-08
0.00280007
-6.86257e-06
-5.83385e-07
0.00280244
-9.55426e-06
1.86271e-06
0.00279872
1.00536e-05
1.00324e-06
0.00280085
6.70917e-06
-5.30858e-06
0.00279945
4.11081e-06
1.90386e-06
0.00279441
1.7736e-05
2.61414e-06
0.00279673
6.45597e-06
-7.75262e-06
0.00279419
4.0872e-06
2.20209e-06
0.00279378
7.28179e-06
5.13462e-07
0.00279677
-4.48807e-06
-4.604e-06
0.00279633
2.03792e-06
5.65748e-06
0.00279507
2.74703e-06
-2.78352e-06
0.00279503
2.6731e-06
-9.44573e-07
0.00279728
-1.08913e-05
1.09473e-05
0.00279588
-5.08037e-06
-9.62994e-07
0.00279873
-2.5303e-06
3.08285e-06
0.00279801
-1.46584e-05
6.32287e-06
0.00280198
-5.27497e-06
-5.936e-06
0.00280252
-8.43649e-06
4.3668e-06
0.00279919
2.42003e-06
1.20036e-06
0.00280298
-1.75552e-07
-3.86825e-06
0.00279819
5.44044e-07
1.0933e-05
0.00280007
-5.44562e-07
5.51045e-07
0.00280118
-4.17555e-06
8.75463e-07
0.0027995
1.06845e-06
6.69816e-06
0.00279733
5.36646e-06
-2.7594e-07
9.08969e-08
2.39452e-06
0.00254267
-2.07183e-06
-8.55727e-07
0.00254172
1.20089e-05
1.79872e-06
0.00254177
-7.72286e-06
2.92406e-06
0.00254137
1.16359e-06
-5.70031e-06
0.00254354
9.19853e-07
-2.72947e-06
0.0025389
-1.34698e-06
-3.69185e-06
0.00254397
-4.64617e-06
-8.954e-06
0.00254768
-1.12665e-05
-1.6102e-06
0.00254168
2.04337e-05
-1.36047e-06
0.00254072
1.53196e-05
-7.28378e-07
0.00254161
-3.4798e-06
4.59545e-06
0.00254155
-2.47631e-06
3.01427e-06
0.0025412
7.8838e-07
-7.64743e-07
0.00254706
-1.48768e-05
2.16128e-07
0.00254799
-8.51284e-06
2.13165e-06
0.00254467
1.39084e-05
2.63456e-07
0.00254755
3.86351e-06
-5.06763e-06
0.00254448
8.76318e-06
2.14823e-06
0.00253999
2.1894e-05
1.64834e-06
0.00254183
5.68685e-06
-7.3637e-06
0.00253849
7.73184e-06
2.2367e-06
0.0025395
6.23578e-06
-5.71847e-07
0.00254271
-6.10258e-06
-4.66155e-06
0.00254209
4.35026e-06
5.70026e-06
0.00253955
6.96137e-06
-3.94216e-06
0.00254016
3.91914e-06
-4.90776e-07
0.00254265
-1.5528e-05
1.28748e-05
0.00254097
-4.86598e-06
-1.09384e-07
0.00254366
-3.74383e-06
4.16634e-06
0.00254351
-1.684e-05
6.25783e-06
0.00254841
-9.89669e-06
-6.91731e-06
0.00254769
-7.82771e-06
4.91498e-06
0.00254515
4.39213e-06
1.06659e-07
0.0025484
-2.64279e-06
-3.09687e-06
0.00254272
2.57127e-06
1.28405e-05
0.00254579
-3.63646e-06
2.99799e-07
0.00254705
-6.24403e-06
3.29219e-06
0.00254436
2.01408e-06
6.54255e-06
0.00254275
5.44607e-06
1.84857e-07
-2.8016e-06
3.77674e-06
0.00231075
5.83074e-07
-2.28906e-06
0.00231058
1.16745e-05
3.22926e-06
0.00230975
-8.42941e-06
3.99334e-06
0.00231082
8.92546e-07
-7.83786e-06
0.00231205
-2.40434e-07
-3.40612e-06
0.00230601
2.25707e-06
-4.50838e-06
0.00231478
-1.16942e-05
-1.11973e-05
0.00231733
-1.26091e-05
-2.27826e-06
0.00230984
3.09526e-05
-1.78621e-06
0.00230895
2.01955e-05
-7.67334e-07
0.00230975
-7.588e-06
6.81924e-06
0.00230839
-2.41959e-06
3.43221e-06
0.00230975
-3.83923e-08
-1.39709e-06
0.00231717
-2.48326e-05
1.28965e-06
0.00231643
-5.04944e-06
1.50729e-06
0.00231441
1.72675e-05
-1.06686e-06
0.00231684
9.42436e-07
-4.65264e-06
0.00231251
1.47428e-05
1.81968e-06
0.00230895
2.50463e-05
1.40983e-06
0.00230957
5.82428e-06
-6.90571e-06
0.00230615
1.17746e-05
1.3215e-06
0.00230879
3.67064e-06
-1.7737e-06
0.00231175
-6.94913e-06
-5.21127e-06
0.00231096
8.1536e-06
5.40512e-06
0.00230693
1.35255e-05
-5.06229e-06
0.00230823
4.68607e-06
-3.64156e-07
0.00231104
-2.1503e-05
1.506e-05
0.00230924
-5.1105e-06
8.54682e-07
0.0023118
-4.78815e-06
5.2585e-06
0.00231238
-1.97104e-05
5.96735e-06
0.00231756
-1.47147e-05
-8.3627e-06
0.00231604
-6.34547e-06
5.29939e-06
0.00231438
5.77779e-06
-1.21168e-06
0.00231638
-3.59853e-06
-2.54326e-06
0.00231046
4.76951e-06
1.47054e-05
0.00231484
-7.27091e-06
2.89282e-07
0.0023156
-8.03459e-06
5.45411e-06
0.00231257
3.03942e-06
6.44416e-06
0.00231166
4.9058e-06
1.85838e-06
-5.21438e-06
4.94228e-06
0.00210031
3.00957e-06
-3.3037e-06
0.00210013
1.10095e-05
5.19467e-06
0.00209895
-8.80807e-06
4.57702e-06
0.0021016
-3.84517e-07
-1.03607e-05
0.00210036
9.30239e-07
-3.8884e-06
0.00209458
5.50496e-06
-6.10668e-06
0.00210722
-2.29362e-05
-1.36013e-05
0.00210747
-1.1767e-05
-2.51773e-06
0.0020989
4.45304e-05
-2.15749e-06
0.00209822
2.4396e-05
-5.37845e-07
0.00209837
-1.35643e-05
9.58567e-06
0.00209645
-2.4432e-06
3.87246e-06
0.00210016
-3.78933e-06
-1.73e-06
0.0021074
-3.48427e-05
1.95799e-06
0.00210584
2.74395e-07
5.40237e-07
0.00210551
1.92677e-05
-1.8254e-06
0.00210654
-1.24818e-06
-4.82515e-06
0.00210203
2.13372e-05
8.22189e-07
0.00209887
2.7886e-05
1.64384e-06
0.00209751
8.11446e-06
-6.78512e-06
0.00209521
1.48738e-05
1.56032e-07
0.00209923
-7.18224e-07
-2.775e-06
0.00210197
-6.96985e-06
-6.4019e-06
0.00210087
1.40769e-05
4.60307e-06
0.00209519
2.29548e-05
-6.47496e-06
0.00209718
5.01475e-06
-5.4004e-07
0.00210015
-2.81394e-05
1.74453e-05
0.00209866
-5.81104e-06
1.86691e-06
0.00210092
-5.27992e-06
6.16862e-06
0.00210201
-2.24797e-05
5.21794e-06
0.00210753
-1.9435e-05
-1.03146e-05
0.00210571
-3.97765e-06
5.08198e-06
0.00210457
7.19728e-06
-2.50094e-06
0.00210505
-2.61319e-06
-1.97814e-06
0.00209939
7.4124e-06
1.60567e-05
0.00210469
-1.0566e-05
7.00387e-07
0.00210499
-9.55939e-06
7.28624e-06
0.00210212
3.79641e-06
6.18831e-06
0.00210135
4.3239e-06
3.64528e-06
-6.90729e-06
5.89774e-06
0.00190899
5.72092e-06
-4.4608e-06
0.00190829
1.11661e-05
7.24416e-06
0.00190765
-9.96232e-06
4.90199e-06
0.00191139
-2.38718e-06
-1.27853e-05
0.00190704
6.04366e-06
-4.79086e-06
0.00190301
6.8871e-06
-7.54406e-06
0.00191845
-3.84859e-05
-1.50235e-05
0.00191649
-8.45761e-06
-3.33603e-06
0.00190728
6.14779e-05
-3.84374e-06
0.00190644
2.85846e-05
-1.09658e-06
0.00190514
-2.0794e-05
1.2026e-05
0.00190366
-3.77599e-06
4.38604e-06
0.00190997
-1.09534e-05
-1.94117e-06
0.00191604
-4.35309e-05
2.34331e-06
0.0019151
8.20378e-06
-2.44011e-06
0.00191536
2.16116e-05
-3.56681e-06
0.00191436
-1.81683e-06
-5.69191e-06
0.00191108
2.6921e-05
-3.08365e-08
0.00190769
3.037e-05
2.49242e-06
0.00190438
1.26738e-05
-7.48499e-06
0.00190383
1.77332e-05
-2.69011e-06
0.00190862
-5.89021e-06
-4.40214e-06
0.00191152
-6.08925e-06
-8.3124e-06
0.00190951
2.32904e-05
3.69952e-06
0.00190225
3.51975e-05
-8.00282e-06
0.00190453
5.11745e-06
-9.39513e-07
0.0019082
-3.52473e-05
1.95298e-05
0.00190778
-7.29128e-06
2.78836e-06
0.00190877
-4.11997e-06
6.91276e-06
0.00191029
-2.44138e-05
3.64302e-06
0.00191637
-2.37053e-05
-1.33521e-05
0.00191462
-6.22138e-07
4.31547e-06
0.00191349
9.4302e-06
-3.82097e-06
0.00191245
8.9847e-07
-1.9443e-06
0.00190746
1.11462e-05
1.70424e-05
0.00191325
-1.28964e-05
1.43258e-06
0.00191355
-1.09349e-05
8.67568e-06
0.00191085
4.84273e-06
6.35615e-06
0.00190992
5.12456e-06
5.84909e-06
-8.2879e-06
6.67332e-06
0.0017347
9.11409e-06
-4.98477e-06
0.00173392
1.16372e-05
9.71224e-06
0.00173434
-1.14005e-05
4.7484e-06
0.00173778
-2.47167e-06
-1.52046e-05
0.00173044
1.64083e-05
-6.02186e-06
0.00172942
5.56945e-06
-9.80623e-06
0.0017464
-5.75605e-05
-1.59747e-05
0.00174281
-2.42499e-06
-3.69242e-06
0.00173255
8.27885e-05
-5.409e-06
0.00173122
3.31296e-05
-2.12003e-06
0.00172907
-3.00178e-05
1.44032e-05
0.00172902
-7.73501e-06
5.4111e-06
0.00173705
-2.03828e-05
-2.02236e-06
0.0017414
-4.99324e-05
1.95899e-06
0.00174173
1.91437e-05
-6.72217e-06
0.00174177
2.56705e-05
-6.78055e-06
0.00173937
-5.06554e-07
-8.50185e-06
0.00173819
3.24713e-05
-1.59203e-06
0.00173319
3.46022e-05
3.33266e-06
0.00172816
2.0242e-05
-9.55522e-06
0.00172958
1.96162e-05
-6.0083e-06
0.00173539
-1.28731e-05
-6.75674e-06
0.00173893
-4.83101e-06
-1.0657e-05
0.00173533
3.66435e-05
2.74246e-06
0.00172628
5.05577e-05
-1.01269e-05
0.00172825
6.86919e-06
-2.26654e-06
0.00173327
-4.18332e-05
2.10399e-05
0.00173426
-8.94946e-06
2.87676e-06
0.00173326
3.71748e-07
6.4339e-06
0.00173533
-2.48476e-05
7.76945e-07
0.00174231
-2.69182e-05
-1.80233e-05
0.0017407
4.21542e-06
2.62077e-06
0.00173933
1.23375e-05
-4.95652e-06
0.00173725
6.27121e-06
-2.30364e-06
0.00173269
1.73642e-05
1.65388e-05
0.00173861
-1.23777e-05
1.68617e-06
0.00173965
-1.20037e-05
9.22216e-06
0.00173699
7.7658e-06
5.92448e-06
0.00173569
9.53976e-06
8.31727e-06
-8.23077e-06
7.75206e-06
0.00157619
1.50128e-05
-6.0575e-06
0.00157534
1.37467e-05
1.21052e-05
0.00157686
-1.31939e-05
4.40516e-06
0.00157973
1.14104e-06
-1.82831e-05
0.00156953
3.57174e-05
-7.88122e-06
0.00157079
3.37021e-06
-1.13534e-05
0.00158886
-8.01477e-05
-1.62798e-05
0.00158505
7.76469e-06
-6.23183e-06
0.00157331
0.000111034
-9.31095e-06
0.0015708
4.05556e-05
-5.58585e-06
0.00156785
-3.95372e-05
1.51316e-05
0.00156984
-1.45079e-05
6.14944e-06
0.00157992
-3.18983e-05
-1.44323e-06
0.00158324
-5.39478e-05
2.09825e-06
0.00158407
3.57453e-05
-1.28328e-05
0.00158233
3.39704e-05
-1.14669e-05
0.00157968
2.04402e-06
-1.19235e-05
0.00158114
3.80571e-05
-2.69854e-06
0.00157447
4.07347e-05
3.93136e-06
0.00156821
3.05902e-05
-1.36058e-05
0.00157058
2.22648e-05
-1.08412e-05
0.00157781
-2.13487e-05
-9.87695e-06
0.00158228
-3.44203e-06
-1.25797e-05
0.00157662
5.37824e-05
2.65292e-06
0.00156522
6.78095e-05
-1.22345e-05
0.00156679
1.02449e-05
-4.49693e-06
0.00157393
-4.75666e-05
2.01734e-05
0.00157579
-1.06857e-05
9.60475e-07
0.00157234
8.45668e-06
3.9558e-06
0.00157563
-2.40426e-05
-5.64562e-06
0.00158395
-2.94696e-05
-2.51831e-05
0.00158221
1.08773e-05
3.53077e-07
0.00158024
1.67693e-05
-6.62915e-06
0.00157752
1.31517e-05
-3.65091e-06
0.00157326
2.57389e-05
1.47985e-05
0.00157926
-9.9312e-06
1.61749e-06
0.00158167
-1.17247e-05
9.0568e-06
0.0015791
1.52289e-05
5.28134e-06
0.00157754
1.94677e-05
1.14527e-05
-5.73866e-06
8.98551e-06
0.00143373
2.06493e-05
-4.92367e-06
0.00143289
1.77379e-05
1.65185e-05
0.0014337
-1.21872e-05
2.4302e-06
0.00143424
1.10457e-05
-2.41288e-05
0.00142072
6.32695e-05
-1.06376e-05
0.00142352
4.13566e-07
-1.48425e-05
0.00144349
-0.000106893
-1.78726e-05
0.0014405
2.43567e-05
-8.3225e-06
0.00142722
0.000147892
-1.31866e-05
0.0014232
5.18467e-05
-9.83134e-06
0.00142032
-4.67524e-05
1.15697e-05
0.00142481
-2.36198e-05
5.53816e-06
0.00143709
-4.60541e-05
2.59231e-06
0.00144059
-5.93117e-05
5.94775e-06
0.00144131
5.23508e-05
-1.36004e-05
0.0014379
4.27726e-05
-1.30942e-05
0.00143539
3.06992e-06
-1.31312e-05
0.00143813
4.68259e-05
-2.7888e-06
0.00143001
4.98876e-05
4.53084e-06
0.00142277
4.01904e-05
-1.59808e-05
0.00142585
2.17525e-05
-1.4289e-05
0.00143534
-3.57246e-05
-1.18881e-05
0.00144108
-4.06168e-06
-1.24374e-05
0.00143379
7.19284e-05
4.69207e-06
0.00142032
8.228e-05
-1.14221e-05
0.00142099
1.58159e-05
-4.41576e-06
0.00142953
-5.11637e-05
1.7131e-05
0.00143133
-1.0365e-05
-6.51115e-06
0.00142614
2.02075e-05
-2.47457e-07
0.00143161
-2.20658e-05
-1.30966e-05
0.00144079
-3.17647e-05
-3.32266e-05
0.00143777
2.1206e-05
-3.37635e-06
0.00143535
2.31184e-05
-9.19358e-06
0.00143274
1.85794e-05
-6.62894e-06
0.00142843
3.5777e-05
1.09593e-05
0.00143393
-4.83366e-06
3.06658e-07
0.00143785
-8.37516e-06
5.76139e-06
0.00143531
2.78103e-05
2.12872e-06
0.00143296
3.54353e-05
1.34878e-05
-1.35948e-06
1.01287e-05
0.00130681
2.09543e-05
-4.31051e-06
0.00130829
2.26941e-05
2.24009e-05
0.00130678
-1.17768e-05
4.43671e-06
0.00130049
2.45003e-05
-3.13153e-05
0.00127954
0.00010034
-1.68182e-05
0.00128206
-6.64093e-06
-2.16033e-05
0.00130643
-0.000147676
-2.18635e-05
0.00130608
3.63042e-05
-1.27014e-05
0.0012924
0.000189535
-1.94006e-05
0.0012891
6.29725e-05
-1.17442e-05
0.0012858
-5.07883e-05
2.74984e-06
0.00129064
-3.20475e-05
-2.24328e-06
0.00130568
-6.22619e-05
6.66867e-06
0.0013121
-7.20867e-05
1.39862e-05
0.00131357
6.17541e-05
-5.75942e-06
0.00130777
5.18526e-05
-6.72529e-06
0.00130398
1.27166e-06
-8.09531e-06
0.00130738
5.65734e-05
-1.52195e-06
0.00130033
5.76567e-05
4.53564e-06
0.00129261
4.46052e-05
-1.57074e-05
0.00129485
1.80878e-05
-1.11063e-05
0.00130653
-5.8732e-05
-9.17592e-06
0.0013147
-7.63803e-06
-1.20189e-05
0.00130888
8.92601e-05
7.53684e-06
0.00129551
8.96172e-05
-6.55707e-06
0.00129453
2.17633e-05
4.61536e-06
0.00130221
-5.46748e-05
1.85554e-05
0.00130186
-9.29965e-06
-1.54811e-05
0.00129696
3.69949e-05
-5.37722e-06
0.00130675
-1.94219e-05
-1.85965e-05
0.00131424
-3.11948e-05
-3.94832e-05
0.00130623
4.26329e-05
-8.46133e-06
0.0013034
3.4991e-05
-1.38413e-05
0.00130195
1.93362e-05
-1.02254e-05
0.00129918
4.16483e-05
9.92378e-06
0.00130514
-1.7728e-06
3.09715e-06
0.00130901
3.6281e-07
7.32363e-09
0.00130337
4.65479e-05
-7.7898e-06
0.00129744
5.28741e-05
9.34694e-06
-4.33236e-06
9.02132e-06
0.00118952
7.47761e-06
-7.04387e-06
0.00119795
3.0808e-05
2.2443e-05
0.00119718
-1.57637e-05
1.09109e-05
0.00118247
3.38565e-05
-3.50882e-05
0.0011529
0.000140553
-2.92065e-05
0.00115428
-1.79036e-05
-3.65615e-05
0.00118022
-0.000205001
-2.77733e-05
0.00117828
4.09496e-05
-1.36523e-05
0.00116224
0.000232925
-2.37161e-05
0.00116508
6.29789e-05
-4.29665e-06
0.0011641
-6.57464e-05
1.4303e-06
0.0011659
-3.32687e-05
-2.04931e-05
0.00117981
-7.1014e-05
-2.29944e-07
0.00118948
-8.79038e-05
1.28009e-05
0.00119306
6.44568e-05
-2.36267e-06
0.0011867
6.03331e-05
-5.54713e-07
0.00118441
-9.2675e-06
-9.05287e-07
0.00118912
6.29669e-05
1.18102e-06
0.00118094
7.32769e-05
-2.59478e-07
0.00117098
5.85737e-05
-1.67479e-05
0.00117382
1.18763e-05
1.52428e-06
0.00118801
-9.40202e-05
-2.93235e-06
0.00120038
-1.02247e-05
-2.17078e-05
0.00119899
0.000110081
-8.54485e-07
0.00118479
9.82233e-05
-1.25861e-05
0.00117982
3.21516e-05
1.51603e-05
0.00118713
-6.15129e-05
2.60075e-05
0.00118397
-3.50767e-06
-2.51186e-05
0.00117835
7.33294e-05
-1.11721e-05
0.00119313
-1.80597e-05
-1.32664e-05
0.00119961
-3.02962e-05
-3.63302e-05
0.00118649
8.12929e-05
-1.38998e-05
0.00118262
5.72153e-05
-2.14344e-05
0.00118283
1.97499e-05
-1.64135e-05
0.00118312
4.22933e-05
1.0132e-05
0.00119215
-5.86839e-06
1.08428e-05
0.0011966
8.39424e-06
-1.45533e-06
0.00118392
7.40709e-05
-2.24355e-05
0.00117116
7.01641e-05
-4.60981e-06
-2.74731e-05
3.97439e-06
0.00107398
-1.94443e-05
-9.35227e-06
0.00108928
4.20171e-05
1.5801e-05
0.00110182
-2.90507e-05
1.32782e-05
0.00109144
2.82281e-05
-3.65263e-05
0.00106463
0.000176299
-3.99861e-05
0.00106505
-2.98874e-05
-4.5169e-05
0.00108145
-0.000261939
-2.86411e-05
0.0010671
5.35733e-05
-1.759e-05
0.00104423
0.00028135
-2.40263e-05
0.00105232
3.78556e-05
2.23837e-05
0.00105197
-0.000101625
1.68368e-05
0.00104722
-3.11232e-05
-3.29645e-05
0.00105586
-7.0831e-05
-1.29805e-05
0.00106754
-0.000102181
2.09438e-06
0.00107728
7.02558e-05
-1.27131e-05
0.00107276
7.25204e-05
9.50745e-07
0.00107368
-2.29709e-05
5.17463e-06
0.00108078
6.97326e-05
-8.68657e-08
0.00107032
0.000102485
-1.05276e-05
0.00105825
8.58445e-05
-1.37842e-05
0.00106101
1.95612e-06
2.39509e-05
0.00107591
-0.000134677
7.89203e-07
0.0010948
-6.11758e-06
-4.51043e-05
0.00109808
0.000146057
-3.03436e-05
0.00108148
0.000118465
-3.24005e-05
0.00107462
4.77644e-05
1.70264e-05
0.00108066
-6.31767e-05
2.51137e-05
0.0010706
2.28352e-05
-4.05072e-05
0.00106165
0.000126761
-1.27304e-05
0.00108125
-3.58138e-05
5.91422e-06
0.00108995
-3.4089e-05
-2.47236e-05
0.00107571
0.000134983
-1.4041e-05
0.00106909
7.83722e-05
-2.37077e-05
0.00106776
1.94159e-05
-2.06851e-05
0.00106979
4.74032e-05
1.08003e-05
0.00108569
-8.40408e-06
1.56716e-05
0.00109692
1.1658e-05
-1.76322e-06
0.00108371
0.000105598
-2.93141e-05
0.00106941
9.03209e-05
-1.14894e-05
-6.57366e-05
4.46782e-06
0.000949808
-3.93957e-05
-1.17786e-05
0.000974042
5.26443e-05
2.39572e-06
0.00101024
-6.86008e-05
4.7441e-06
0.00101657
3.24594e-06
-4.53937e-05
0.00100592
0.000202701
-4.45368e-05
0.00100141
-5.02963e-05
-3.6991e-05
0.000994136
-0.000303079
-2.1053e-05
0.00096901
8.86512e-05
-2.34423e-05
0.000945244
0.000331522
-1.94444e-05
0.000948134
5.3958e-06
4.45273e-05
0.000937291
-0.000135398
2.33608e-05
0.000923612
-2.68438e-05
-3.95111e-05
0.000926908
-6.3216e-05
-2.08226e-05
0.000939174
-9.48681e-05
-4.67536e-06
0.000958526
9.71494e-05
-1.38996e-05
0.000962064
8.90119e-05
3.36444e-06
0.000968651
-3.77431e-05
6.27623e-06
0.000980221
8.28536e-05
-8.01586e-06
0.000968629
0.000144971
-2.27683e-05
0.000957145
0.000106819
2.47088e-06
0.000961999
-1.41611e-05
4.59096e-05
0.000974868
-0.000154819
-7.65053e-06
0.000994069
2.73576e-05
-7.26242e-05
0.00099943
0.000202757
-6.37189e-05
0.000987039
0.000141963
-4.64904e-05
0.000986039
6.56379e-05
2.35652e-05
0.000988121
-4.17244e-05
2.18397e-05
0.000965992
7.12738e-05
-4.9819e-05
0.00095665
0.000152433
-4.01649e-06
0.000981109
-9.65927e-05
2.16498e-05
0.000988599
-4.12117e-05
-1.76461e-05
0.000973887
0.000185071
-2.31356e-06
0.000967329
7.16701e-05
-1.46996e-05
0.00096692
1.43772e-05
-2.1454e-05
0.000967255
6.80305e-05
6.16684e-06
0.00097968
-2.79471e-06
1.25674e-05
0.000994525
1.11403e-05
-1.1461e-05
0.000992005
0.000135133
-4.38435e-05
0.000984069
0.000107522
-1.63339e-05
-0.000101817
8.88537e-06
0.000822011
-3.35226e-05
-2.38668e-05
0.000855797
6.61466e-05
-1.11086e-05
0.000902424
-0.000119322
-7.79761e-06
0.00092934
-3.25751e-05
-5.625e-05
0.000945519
0.000207038
-4.05524e-05
0.000929937
-8.17387e-05
-2.964e-05
0.000894041
-0.000322611
-1.05778e-05
0.000871107
0.000131395
-1.05239e-05
0.000859163
0.000379933
-1.03949e-05
0.000848545
1.09568e-05
3.44985e-05
0.000816253
-0.000139913
1.19821e-05
0.000789291
-1.29694e-05
-3.51653e-05
0.000788895
-4.44818e-05
-1.1048e-05
0.000808685
-7.79465e-05
1.56436e-06
0.000836666
0.000130264
-1.66504e-05
0.000850776
9.13255e-05
-6.63939e-06
0.000868814
-5.72171e-05
-5.26632e-06
0.000883061
0.000123687
-2.38516e-05
0.000875447
0.00019823
-2.45756e-05
0.000875665
0.000102858
1.75734e-05
0.000886207
-2.72888e-05
3.92307e-05
0.000887865
-0.000127745
-2.92014e-05
0.000887778
0.000116735
-0.000102238
0.000895468
0.000274289
-8.86905e-05
0.000902642
0.000130409
-2.63876e-05
0.000916179
7.64876e-05
4.4176e-05
0.000915857
4.07583e-06
1.88763e-05
0.000876378
0.000130779
-4.19207e-05
0.000866033
0.000118769
2.00924e-05
0.000899636
-0.000213998
3.5688e-05
0.000909115
-4.58596e-05
-1.50359e-06
0.000902179
0.00021806
2.03329e-05
0.000896356
2.1877e-05
-3.83966e-07
0.000885685
1.14187e-05
-1.88335e-05
0.000879417
0.000103221
3.04732e-07
0.00088518
-5.76263e-07
1.48946e-05
0.000896692
1.27536e-05
-2.14316e-05
0.000903195
0.000163988
-6.50178e-05
0.000896305
0.000118976
-1.65542e-05
-0.000119456
1.40937e-05
0.000738139
3.16039e-06
-3.3957e-05
0.000772387
0.000104217
-5.33295e-06
0.000784007
-0.000144302
-9.24375e-06
0.000818332
-6.07388e-05
-5.81497e-05
0.00085357
0.000199984
-3.8356e-05
0.000815507
-9.87789e-05
-4.21156e-05
0.000765315
-0.00032414
8.46165e-06
0.000767892
0.000162546
2.51974e-05
0.00078095
0.00042871
-6.89399e-06
0.000755152
7.72331e-05
-3.08008e-06
0.000690884
-0.000112231
9.47711e-06
0.000649024
2.62128e-05
-2.30043e-05
0.00065242
-2.11332e-05
-1.87413e-06
0.000682586
-8.17791e-05
8.87265e-06
0.000719076
0.00014698
-1.47477e-05
0.000745736
7.20933e-05
-1.47149e-05
0.000768077
-5.86763e-05
-2.19482e-05
0.000780297
0.000200239
-2.99779e-05
0.000790381
0.000224662
-8.20522e-06
0.000807006
6.97978e-05
9.45684e-06
0.000812601
-6.6749e-06
1.17222e-05
0.000800503
-6.98272e-05
-4.08027e-05
0.000789296
0.00022774
-0.000122172
0.000808098
0.000322469
-7.90798e-05
0.000826096
7.53569e-05
1.20817e-05
0.000838922
8.95625e-05
5.67825e-05
0.000845619
3.51861e-05
2.73849e-05
0.000820422
0.000149522
-1.67817e-05
0.000811551
4.51067e-05
2.35499e-05
0.000824665
-0.000308599
2.91733e-05
0.000822611
-4.73178e-06
2.77595e-05
0.000829593
0.000216011
5.4357e-05
0.000826211
-8.64724e-05
2.49101e-05
0.000808225
4.19557e-06
-1.3227e-05
0.00081035
0.000133089
-6.26269e-06
0.000828651
-2.08247e-05
1.03658e-05
0.000842558
1.34685e-05
-3.36805e-05
0.000846841
0.000186197
-6.16528e-05
0.000822147
0.000138089
2.21767e-06
-0.000105343
1.44985e-05
0.000681891
3.83127e-05
-1.24229e-05
0.000704689
0.000126277
1.30431e-05
0.000664574
-0.00016812
-7.78474e-06
0.00068455
-6.29024e-05
-5.14806e-05
0.000719223
0.000189214
-6.4547e-05
0.000666304
-0.00010306
-6.51723e-05
0.000609557
-0.000316313
4.99856e-05
0.000648167
0.000154871
6.71156e-05
0.000699541
0.000473721
-1.57734e-05
0.000656533
0.000185898
-1.51233e-05
0.000562249
-6.51813e-05
1.30668e-05
0.000524376
7.66018e-05
-3.15633e-05
0.00053157
-3.0829e-06
-1.12462e-06
0.000562145
-0.000103928
2.2274e-05
0.000616836
0.000141546
5.11113e-06
0.000653925
5.48422e-05
-7.40763e-06
0.000664484
-1.10865e-05
-3.03899e-05
0.000682978
0.000274828
-1.78394e-05
0.000716207
0.000189822
-2.04373e-06
0.000733317
5.44507e-05
-2.45875e-05
0.000723797
6.61047e-05
-9.66385e-06
0.000705772
-1.76759e-05
-5.51572e-05
0.000710702
0.000318904
-0.000116095
0.000738886
0.000316938
-3.06226e-05
0.000742384