/*--------------------------------*- C++ -*----------------------------------*\
  =========                 |
  \\      /  F ield         | OpenFOAM: The Open Source CFD Toolbox
   \\    /   O peration     | Website:  https://openfoam.org
    \\  /    A nd           | Version:  10
     \\/     M anipulation  |
\*---------------------------------------------------------------------------*/
FoamFile
{
    format      ascii;
    class       volVectorField;
    location    "12";
    object      U;
}
// * * * * * * * * * * * * * * * * * * * * * * * * * * * * * * * * * * * * * //

dimensions      [0 1 -1 0 0 0 0];

internalField   nonuniform List<vector> 
25600
(
(1.03828 0.000364294 8.41089e-05)
(1.03919 -0.000152716 -0.000204219)
(1.03855 0.000402573 6.30021e-05)
(1.03807 -8.78669e-05 -3.89289e-05)
(1.03902 -0.000132055 -0.000203326)
(1.03848 -0.00013251 0.00018921)
(1.03814 -0.000385771 -0.000247772)
(1.03862 0.00043081 -8.86803e-05)
(1.03834 -0.00127069 0.000122576)
(1.03881 0.000357068 -0.000181011)
(1.03819 -0.000544971 0.000144566)
(1.03838 -0.000605529 -0.000155393)
(1.03898 0.000528731 3.28364e-05)
(1.03844 -0.00163821 0.00030177)
(1.0389 0.000900917 -0.000339345)
(1.03823 -0.000203779 0.000277751)
(1.03874 -0.000666729 0.000224088)
(1.03881 0.00117784 -0.000384391)
(1.03833 -0.000526367 0.000475173)
(1.03846 0.000382989 -9.21255e-05)
(1.03799 0.000679478 -7.1852e-05)
(1.03891 -0.000396118 0.00027856)
(1.03818 0.000744343 -0.000406752)
(1.03827 -0.000279224 0.000519551)
(1.03864 9.58307e-05 -0.00022186)
(1.03849 0.000558373 -0.000220794)
(1.03902 -0.000946627 0.000649145)
(1.03809 0.000599293 -0.000529213)
(1.03956 -0.000362561 0.000267019)
(1.03859 -0.00053381 0.000206326)
(1.03866 0.000326944 -0.000308517)
(1.04019 -0.000582442 0.000400133)
(1.03768 -5.39636e-05 -0.000284923)
(1.04012 0.000250312 0.000139045)
(1.03945 -7.29961e-05 0.000211871)
(1.03804 -3.52883e-05 -0.000399942)
(1.04066 0.000449516 0.000311675)
(1.0384 0.000308817 4.50353e-05)
(1.03888 0.000138149 -0.000310862)
(1.03965 0.000241826 0.000159742)
(1.03812 0.00064921 0.000300125)
(1.03913 -0.000294964 -0.000300206)
(1.03867 0.000609791 3.26211e-05)
(1.03773 -0.000161714 3.26151e-05)
(1.03907 -0.000113048 -0.000390821)
(1.03833 0.000117398 0.000391025)
(1.03833 -0.000682862 -0.000490996)
(1.03835 0.000546769 -1.7415e-05)
(1.03822 -0.00117185 0.000213546)
(1.03914 0.000332343 -0.000439557)
(1.03783 -0.000561198 0.000414317)
(1.03882 -0.00027534 -0.000294614)
(1.03848 0.000154217 5.3029e-05)
(1.03867 -0.00120574 0.000450416)
(1.03942 0.000880143 -0.000529239)
(1.03763 -0.000625119 0.000406266)
(1.03943 0.000133301 0.000270446)
(1.03875 0.000833685 -0.000589668)
(1.03807 -0.000303085 0.000664258)
(1.03893 0.000681686 -7.75702e-05)
(1.03768 0.000426235 -0.000321471)
(1.03892 -4.66572e-05 0.000524191)
(1.03815 0.000534103 -0.000485476)
(1.03798 -0.000241789 0.000495295)
(1.03897 -0.000126799 -6.75687e-05)
(1.03808 0.000477533 -0.000310755)
(1.0389 -0.000938154 0.00082379)
(1.03847 2.15782e-05 -0.000540676)
(1.03902 1.40654e-05 0.00028794)
(1.03886 -0.0012383 0.000356446)
(1.03886 0.000554974 -0.000353901)
(1.0397 -0.000581236 0.00041858)
(1.03834 -0.000853157 -0.000106089)
(1.04014 0.00130898 5.70765e-05)
(1.03907 -0.000982325 0.000151845)
(1.03869 0.000379968 -0.000104155)
(1.04055 0.000779715 8.2998e-05)
(1.03821 -0.000330173 8.31108e-05)
(1.03901 0.000762792 -0.000108609)
(1.03967 2.07248e-05 -0.000112281)
(1.03801 0.000660832 0.000390128)
(1.03914 -0.000203222 -0.000349542)
(1.03868 0.000713694 7.42391e-05)
(1.03744 -0.000514436 -1.29614e-05)
(1.03925 0.000387488 -0.000422359)
(1.03799 -0.000189449 0.000388058)
(1.03851 -0.000540009 -0.000624949)
(1.03819 0.000265185 3.87502e-05)
(1.03815 -0.000924103 0.000137123)
(1.03935 0.000479544 -0.00045625)
(1.03765 -0.000731531 0.000472487)
(1.03901 0.000132295 -0.000336805)
(1.03815 -0.000456202 0.000183624)
(1.03905 -0.000381668 0.000409782)
(1.03942 0.000394594 -0.000512464)
(1.03755 -0.000815484 0.000561424)
(1.04002 0.000981143 0.000180016)
(1.03844 0.000374273 -0.00056888)
(1.03818 6.84532e-05 0.000850885)
(1.03911 0.00104707 -0.00022739)
(1.03736 0.000201803 -0.000368125)
(1.039 0.000188038 0.000690813)
(1.03801 0.000504419 -0.000567254)
(1.0377 -0.000391975 0.000526324)
(1.03927 -9.04251e-05 4.03072e-05)
(1.03777 0.000268166 -0.000329514)
(1.03864 -0.000869526 0.000984467)
(1.03892 -0.000367386 -0.000434862)
(1.03847 9.52991e-05 0.000243458)
(1.03908 -0.00158391 0.000603563)
(1.03922 0.000495001 -0.000389497)
(1.03898 -0.000696098 0.00037652)
(1.03931 -0.0010973 0.000210677)
(1.04001 0.00158736 -0.000185904)
(1.03866 -0.00138839 0.000255191)
(1.03955 0.000965787 0.000186814)
(1.04005 0.000437221 -0.000243718)
(1.03836 -0.000327548 0.000286758)
(1.03918 0.00105313 1.11454e-05)
(1.03956 5.53376e-06 -0.00027713)
(1.03795 0.000311692 0.00034608)
(1.03917 0.000275077 -0.00029776)
(1.03844 0.000439167 5.43788e-05)
(1.03745 -0.000644664 -0.000135911)
(1.03933 0.000868094 -0.000336741)
(1.0376 -0.000700631 0.00020372)
(1.03869 -9.04004e-05 -0.000709298)
(1.03804 -0.000390681 4.51428e-05)
(1.03837 -0.000279924 7.44124e-06)
(1.0393 0.000515998 -0.000319197)
(1.03755 -0.000715638 0.000403267)
(1.03904 0.000361119 -0.000220173)
(1.03806 -0.000898151 0.000381804)
(1.03935 0.000363153 0.000235831)
(1.0391 -0.00040023 -0.00026315)
(1.03806 -0.000542994 0.000710332)
(1.04038 0.00156714 -7.25653e-05)
(1.03803 4.25917e-05 -0.000316824)
(1.03859 0.000575746 0.000945338)
(1.03904 0.00140351 -0.000507862)
(1.037 -1.30108e-05 -0.000188344)
(1.03915 0.000529766 0.00068139)
(1.0377 0.000371101 -0.000611851)
(1.03751 -0.0004635 0.000618197)
(1.03949 5.42368e-05 9.04893e-05)
(1.03747 -5.16605e-05 -0.000264791)
(1.0384 -0.000652606 0.00116888)
(1.03924 -0.000813971 -0.000300131)
(1.03805 0.000138546 0.000247389)
(1.03918 -0.00176663 0.000892832)
(1.03956 0.000198754 -0.000479995)
(1.03844 -0.000699974 0.000419939)
(1.04014 -0.00108591 0.000458614)
(1.03991 0.00132817 -0.000467417)
(1.03856 -0.00113167 0.000502546)
(1.04014 0.00113764 0.000331028)
(1.03953 3.32354e-06 -0.000470727)
(1.03869 1.90223e-05 0.000537407)
(1.03928 0.000936311 3.86485e-05)
(1.03936 0.000284217 -0.000325896)
(1.03799 -0.00025541 0.000271332)
(1.03923 0.000893755 -0.000201311)
(1.03802 -1.32501e-06 3.24508e-05)
(1.03773 -0.000511329 -0.000269826)
(1.03922 0.00100933 -0.000220453)
(1.03729 -0.000930952 -9.68424e-05)
(1.03874 0.000117155 -0.000799025)
(1.03804 -0.000958367 4.61224e-05)
(1.03879 0.000493879 -0.000138901)
(1.03905 0.000497166 -0.000148509)
(1.03753 -0.000411619 0.000307059)
(1.03889 0.000231094 3.60161e-05)
(1.03814 -0.000902366 0.000520519)
(1.03942 0.000604766 6.42366e-05)
(1.03877 -0.00113203 0.000148925)
(1.03894 1.21095e-05 0.000756851)
(1.04045 0.00181936 -0.000333149)
(1.03772 -7.24964e-05 6.87082e-05)
(1.03914 0.00125065 0.000922238)
(1.0387 0.00164181 -0.000781076)
(1.03672 -0.000104358 7.04365e-05)
(1.03927 0.000974647 0.000572881)
(1.03729 2.65919e-06 -0.000652741)
(1.03746 -0.000246723 0.000792623)
(1.03956 -7.69372e-06 0.00011346)
(1.03725 -8.22904e-05 -0.000133662)
(1.03809 -0.000626027 0.00144377)
(1.03948 -0.0011978 -0.000228498)
(1.03777 0.000247218 0.000392071)
(1.03912 -0.00220613 0.00113247)
(1.03998 5.26856e-05 -0.000601411)
(1.03805 -0.000880987 0.000611812)
(1.04077 -0.000943382 0.000510186)
(1.03997 0.00109757 -0.000660024)
(1.03851 -0.000687261 0.000844355)
(1.04038 0.000848791 0.000299295)
(1.03924 -0.00022143 -0.00050297)
(1.03902 0.000210575 0.000797068)
(1.03937 0.000767981 4.02028e-05)
(1.03911 0.000624363 -0.000275491)
(1.03811 -0.000734204 0.00010395)
(1.03933 0.00152436 -0.000110544)
(1.03752 -0.000422122 2.7239e-05)
(1.0381 -0.00038615 -0.000427002)
(1.03905 0.000969685 -0.000122781)
(1.03701 -0.000941048 -0.000457408)
(1.03867 8.46554e-05 -0.000951102)
(1.03827 -0.00122549 -7.8872e-06)
(1.03931 0.00112074 -0.000241862)
(1.03871 0.00085155 2.30158e-05)
(1.03738 -8.83332e-05 0.000313234)
(1.03872 4.97691e-06 0.000378435)
(1.0383 -0.000628794 0.000600918)
(1.03921 0.000200297 5.80795e-05)
(1.0387 -0.00163048 0.000587606)
(1.03997 0.000657529 0.000760913)
(1.04033 0.00184289 -0.000504896)
(1.03764 3.5528e-05 0.000430735)
(1.0397 0.00207421 0.000831527)
(1.03816 0.00165481 -0.000994984)
(1.03656 6.67782e-05 0.000356054)
(1.03922 0.00131122 0.000405292)
(1.03689 -0.00035191 -0.000696792)
(1.03749 2.52871e-05 0.00102011)
(1.03959 -5.75954e-05 7.15704e-05)
(1.03705 0.000215904 6.85437e-05)
(1.03767 -0.00106738 0.00180099)
(1.03979 -0.00123401 -0.000198987)
(1.03739 9.35896e-05 0.000703496)
(1.03904 -0.00262853 0.00124809)
(1.04042 -7.18601e-05 -0.000697427)
(1.03777 -0.00135749 0.00084988)
(1.04142 -0.000481303 0.000374343)
(1.04006 0.000795114 -0.0007032)
(1.03839 -0.00039287 0.0011599)
(1.04045 0.000483872 0.000150861)
(1.0391 -0.000340192 -0.000333526)
(1.03933 0.000146256 0.00101339)
(1.03954 0.000783761 -2.91056e-05)
(1.03869 0.000709616 -0.00015001)
(1.03845 -0.000952986 -0.000134661)
(1.0394 0.00209711 -7.68641e-06)
(1.03688 -0.000860667 0.000139053)
(1.03854 -0.000179689 -0.000592853)
(1.03887 0.000829024 -0.000132092)
(1.03676 -0.000931235 -0.000820243)
(1.03856 -4.91153e-05 -0.00119288)
(1.03864 -0.0015841 -0.000132573)
(1.04 0.00183343 -0.000272038)
(1.03832 0.00160027 0.000172786)
(1.03703 -5.54354e-05 0.000459666)
(1.03856 -0.000230498 0.000738289)
(1.03826 -0.000249876 0.000661391)
(1.03882 -0.000579898 0.000194821)
(1.03901 -0.0019296 0.000914831)
(1.04099 0.00137266 0.000692414)
(1.04007 0.00163329 -0.000596153)
(1.03783 0.000367909 0.000741296)
(1.0401 0.00301969 0.000679358)
(1.0375 0.0015445 -0.0011102)
(1.0365 0.000474387 0.000572084)
(1.03902 0.00146042 0.000130539)
(1.03652 -0.000673522 -0.000752985)
(1.03761 0.000208086 0.00125895)
(1.03966 0.000213646 6.75247e-05)
(1.03664 0.000508168 0.000368643)
(1.03722 -0.0017056 0.00218421)
(1.04015 -0.00107145 -0.000162679)
(1.03693 -0.000284854 0.00109647)
(1.039 -0.0028108 0.00131599)
(1.04072 -0.000634678 -0.000807737)
(1.03778 -0.00176079 0.00105378)
(1.04203 0.000145522 0.000145763)
(1.04001 0.000271458 -0.000744591)
(1.03831 -9.8786e-05 0.00149776)
(1.0404 0.00016136 1.38289e-05)
(1.03902 -0.000612938 -4.27926e-05)
(1.03967 8.04288e-05 0.00118343)
(1.03969 0.00101208 -3.10946e-05)
(1.03819 0.000403219 0.000122896)
(1.03898 -0.000778825 -0.000453355)
(1.03936 0.00245842 0.000137473)
(1.03626 -0.00129581 0.000314598)
(1.03897 4.31383e-05 -0.000836251)
(1.03861 0.000452048 -0.000170914)
(1.03651 -0.000579624 -0.00117621)
(1.0383 -0.000375547 -0.00167803)
(1.03925 -0.00213685 -0.000311668)
(1.04098 0.00293259 -0.000138185)
(1.03768 0.00260201 0.000353586)
(1.03638 -0.000197852 0.000790168)
(1.03857 -0.000417245 0.00110497)
(1.03808 0.000113294 0.000737282)
(1.03829 -0.00191436 0.00046404)
(1.0397 -0.00205421 0.00115852)
(1.04186 0.00224124 0.000651315)
(1.03975 0.00120376 -0.000639849)
(1.03835 0.00103498 0.000870475)
(1.04032 0.0039334 0.000493778)
(1.03675 0.00132734 -0.00107865)
(1.03648 0.0011014 0.000616238)
(1.0386 0.00150488 -0.000166973)
(1.0362 -0.0010098 -0.000869692)
(1.03793 0.000509625 0.00141135)
(1.03972 0.000877062 0.000135409)
(1.036 0.000765221 0.000700754)
(1.03678 -0.00246895 0.00266521)
(1.04052 -0.00106384 -4.67783e-05)
(1.03642 -0.000598996 0.00156756)
(1.03881 -0.00300536 0.00138748)
(1.04095 -0.0014976 -0.00100386)
(1.03814 -0.00179806 0.00124272)
(1.04249 0.000657348 -0.00016673)
(1.0399 -0.000291529 -0.000805891)
(1.03829 0.000274403 0.00187772)
(1.04015 -0.000317513 -7.24675e-05)
(1.03902 -0.00104681 0.000384605)
(1.04017 0.000172543 0.00129705)
(1.03968 0.00115852 5.024e-05)
(1.0376 -0.000170651 0.000479281)
(1.03965 -0.000323002 -0.000902715)
(1.03909 0.00245185 0.000412398)
(1.03565 -0.00158514 0.000677325)
(1.03933 0.00023313 -0.00111588)
(1.03848 4.79732e-06 -0.000214513)
(1.03628 8.56645e-05 -0.00153206)
(1.03775 -0.00131325 -0.00234182)
(1.04018 -0.00265489 -0.000451095)
(1.04225 0.00459569 -5.23389e-05)
(1.03674 0.00365501 0.000431037)
(1.03549 -0.000848251 0.00120583)
(1.03864 -0.000556439 0.00142161)
(1.03748 0.000368328 0.000903117)
(1.03772 -0.00368843 0.000766871)
(1.04094 -0.0017341 0.00121607)
(1.04251 0.00301995 0.000518595)
(1.03941 0.000520371 -0.000688327)
(1.0391 0.00205729 0.000842049)
(1.04022 0.00482552 0.000349406)
(1.03602 0.00124887 -0.000962319)
(1.03651 0.00186412 0.000409888)
(1.03796 0.00115572 -0.000624988)
(1.03599 -0.00137735 -0.00118365)
(1.03847 0.00101134 0.00153212)
(1.03971 0.00190406 0.000371274)
(1.03495 0.00111966 0.00106912)
(1.03626 -0.00346086 0.0031934)
(1.04099 -0.00112688 0.0001031)
(1.03591 -0.000780953 0.00208165)
(1.03847 -0.00350522 0.00144668)
(1.04122 -0.00250657 -0.00134166)
(1.03875 -0.00160511 0.00138249)
(1.04271 0.000995207 -0.000554135)
(1.03976 -0.00069841 -0.000880416)
(1.03823 0.000716102 0.0023487)
(1.0397 -0.000932219 -7.65047e-05)
(1.03919 -0.00150157 0.000839253)
(1.04069 0.000415187 0.00145968)
(1.03946 0.00115614 0.000426852)
(1.03716 -0.000770403 0.00094819)
(1.04025 0.000228102 -0.00130863)
(1.03869 0.00241909 0.0008417)
(1.03517 -0.00168679 0.00105512)
(1.03956 2.14053e-05 -0.00137361)
(1.03839 -8.29544e-05 -0.000144712)
(1.03578 0.000975052 -0.0021322)
(1.03698 -0.00303862 -0.0032916)
(1.04172 -0.00293662 -0.000426106)
(1.04367 0.00691212 0.000207849)
(1.03516 0.00480646 0.000562997)
(1.0344 -0.00170978 0.00169)
(1.03897 -0.000476032 0.00176388)
(1.03658 1.30874e-05 0.00120891)
(1.03725 -0.00587015 0.00104878)
(1.0425 -0.000940802 0.00111853)
(1.04273 0.00371556 0.000268206)
(1.03917 -4.45813e-05 -0.00106543)
(1.04015 0.00325539 0.000540291)
(1.03988 0.00537797 0.000316652)
(1.03526 0.00140527 -0.000864432)
(1.0363 0.002752 2.77023e-06)
(1.03708 0.000592057 -0.00121753)
(1.03605 -0.00151246 -0.00182743)
(1.03927 0.00186795 0.00156123)
(1.03961 0.00347612 0.00067057)
(1.03346 0.00131858 0.00150479)
(1.03564 -0.00482852 0.00391691)
(1.04156 -0.00123069 0.00037587)
(1.03521 -0.000868994 0.00257063)
(1.03786 -0.00408196 0.00145571)
(1.04159 -0.00356541 -0.00182038)
(1.03952 -0.00128278 0.00135405)
(1.04276 0.00128873 -0.00103797)
(1.03964 -0.000722916 -0.000983595)
(1.03806 0.00117192 0.00278399)
(1.03902 -0.00169171 3.85187e-05)
(1.03949 -0.00188947 0.00127771)
(1.04124 0.00060292 0.00157437)
(1.03903 0.00100276 0.00102038)
(1.0368 -0.00125798 0.00147943)
(1.04081 0.000667888 -0.00180538)
(1.03812 0.00220737 0.0014937)
(1.03454 -0.00165362 0.00158296)
(1.03977 -0.000334252 -0.00162434)
(1.03856 0.000387619 -6.85741e-05)
(1.0348 0.00159138 -0.0028475)
(1.03594 -0.00563165 -0.00427455)
(1.0439 -0.00274205 -0.000330847)
(1.04516 0.00986346 0.000174696)
(1.03301 0.0057017 0.000350254)
(1.03316 -0.00314776 0.00208482)
(1.03911 -0.000611862 0.00216868)
(1.03512 -0.000906298 0.00171951)
(1.03713 -0.00784896 0.0011912)
(1.04444 0.000107077 0.000717466)
(1.04254 0.00403145 -0.000327698)
(1.0389 -0.000436793 -0.00177153)
(1.04111 0.00453138 0.000191419)
(1.03931 0.00601456 0.000407294)
(1.0346 0.00210172 -0.0010597)
(1.03586 0.00330922 -0.000846658)
(1.03604 -0.000511367 -0.00224501)
(1.03637 -0.00156284 -0.00289858)
(1.04029 0.00321569 0.00166312)
(1.03913 0.00575204 0.0010477)
(1.03122 0.00160304 0.00173935)
(1.03489 -0.00623831 0.00468271)
(1.04224 -0.00152878 0.000607463)
(1.0344 -0.000862818 0.00294856)
(1.03694 -0.00447343 0.0011183)
(1.0419 -0.00441597 -0.00285825)
(1.04031 -0.000785105 0.00107831)
(1.04266 0.00149402 -0.00157237)
(1.03945 -0.000335404 -0.00120426)
(1.03757 0.00183147 0.00323628)
(1.03814 -0.00221338 0.000190842)
(1.03989 -0.00217745 0.00169569)
(1.04168 0.000746889 0.00184321)
(1.03849 0.000989326 0.00202765)
(1.03658 -0.00154654 0.00219731)
(1.04107 0.00130182 -0.00213468)
(1.03748 0.00241381 0.00238569)
(1.034 -0.00203215 0.00224861)
(1.04002 -0.000859557 -0.00178953)
(1.0386 0.00184859 -7.90422e-06)
(1.03304 0.00183429 -0.00430277)
(1.03483 -0.0091631 -0.00570286)
(1.04676 -0.00216438 0.000191856)
(1.04634 0.0136351 0.000340381)
(1.02986 0.00682659 -8.02011e-05)
(1.03168 -0.00449217 0.00233823)
(1.0393 -0.000970612 0.00265624)
(1.03351 -0.00267679 0.0025906)
(1.03722 -0.00970895 0.00101188)
(1.04616 0.00200436 -0.000232254)
(1.04181 0.00473714 -0.00171955)
(1.03867 -0.000286115 -0.00355588)
(1.04217 0.00561209 -0.000128913)
(1.03872 0.0064326 0.000849664)
(1.03362 0.00328809 -0.00163272)
(1.03469 0.00409347 -0.0023132)
(1.03484 -0.00153304 -0.00403044)
(1.03717 -0.00147285 -0.00449347)
(1.0416 0.00530394 0.00185062)
(1.03823 0.00859553 0.00122572)
(1.02818 0.00175229 0.00178105)
(1.0337 -0.00772167 0.00558177)
(1.04274 -0.00199874 0.000492005)
(1.03328 -0.000501889 0.00290458)
(1.03558 -0.0049437 0.000209474)
(1.04199 -0.00535744 -0.00482792)
(1.04084 2.55292e-05 0.000146945)
(1.04234 0.00216755 -0.00245959)
(1.03925 0.000567813 -0.00201773)
(1.03681 0.00268647 0.00320359)
(1.03691 -0.0025684 0.000260393)
(1.04017 -0.00247881 0.00190129)
(1.04214 0.00105995 0.00182442)
(1.03796 0.001351 0.00317793)
(1.0363 -0.00183461 0.00330968)
(1.04153 0.00201293 -0.00263303)
(1.03674 0.00258192 0.00362213)
(1.03312 -0.00226758 0.00317812)
(1.04066 -0.000565567 -0.00215919)
(1.03872 0.00456678 -0.000116589)
(1.03003 0.00164754 -0.00623366)
(1.03311 -0.0133435 -0.00754732)
(1.04999 -0.000963036 0.000227364)
(1.04732 0.0183982 -0.000672016)
(1.02578 0.00795423 -0.00162315)
(1.02954 -0.00663023 0.00224767)
(1.03872 -0.0020625 0.00313203)
(1.03139 -0.00463015 0.00409557)
(1.03804 -0.0108401 0.000778434)
(1.04804 0.00437378 -0.00210429)
(1.04031 0.00571812 -0.00414764)
(1.0379 2.65972e-05 -0.00612246)
(1.04277 0.00671518 -0.000136936)
(1.03811 0.0076288 0.00153055)
(1.03294 0.00514822 -0.00330643)
(1.03309 0.00438566 -0.00512756)
(1.03315 -0.00317475 -0.00681139)
(1.03836 -0.00139466 -0.00647464)
(1.04306 0.00819328 0.00235688)
(1.03658 0.0121469 0.000826938)
(1.02415 0.0026639 0.00120616)
(1.03187 -0.00885609 0.00611004)
(1.04287 -0.00250766 -0.00041322)
(1.03142 0.000877542 0.00200076)
(1.03338 -0.00453093 -0.00262154)
(1.04187 -0.00593368 -0.00898187)
(1.04124 0.000930211 -0.00166823)
(1.04165 0.00278836 -0.00376085)
(1.03866 0.00188893 -0.00374785)
(1.03551 0.00432428 0.00233652)
(1.03521 -0.00201584 -7.5808e-05)
(1.04025 -0.00263196 0.00205649)
(1.04269 0.00176659 0.00164454)
(1.03761 0.00276971 0.00473053)
(1.03613 -0.00157391 0.00493105)
(1.04261 0.00341559 -0.00290489)
(1.03759 0.00321776 0.00611712)
(1.03289 -0.00281876 0.00417441)
(1.04099 0.000250433 -0.00330421)
(1.03737 0.00939103 -0.000580865)
(1.02395 0.0016572 -0.0105281)
(1.02945 -0.0182025 -0.0113843)
(1.05269 0.00119193 0.000511839)
(1.04741 0.0249832 -0.00161699)
(1.02008 0.0103733 -0.00365851)
(1.02618 -0.00812868 0.000900385)
(1.03758 -0.00369802 0.00296193)
(1.02876 -0.00737377 0.00673337)
(1.03947 -0.0116116 0.000893281)
(1.05064 0.00835084 -0.00427424)
(1.03915 0.00827492 -0.00739463)
(1.03786 0.000835218 -0.0097176)
(1.04332 0.00779276 0.000606875)
(1.03716 0.00870716 0.00284395)
(1.03244 0.00754029 -0.0058585)
(1.03107 0.00536786 -0.0097788)
(1.03135 -0.00488532 -0.0115021)
(1.04072 -0.00132931 -0.00896865)
(1.04515 0.0119831 0.00292802)
(1.03603 0.0157851 -0.000245707)
(1.02115 0.00352269 0.00152659)
(1.02994 -0.00989637 0.00661833)
(1.04291 -0.00283533 -0.00320329)
(1.02932 0.00257424 0.000607327)
(1.0314 -0.00426893 -0.00576333)
(1.04272 -0.00626007 -0.0146731)
(1.0417 0.00244879 -0.00475473)
(1.04044 0.00364829 -0.00602657)
(1.03828 0.00306162 -0.0074389)
(1.0343 0.00598817 -0.000218996)
(1.03331 -0.00149275 -0.00129638)
(1.03984 -0.00242119 0.00111038)
(1.04325 0.00391407 0.000106889)
(1.03702 0.00536498 0.00557384)
(1.03499 -0.000820021 0.00623411)
(1.04397 0.00445677 -0.00552026)
(1.04188 0.00435688 0.00958351)
(1.03689 -0.00228938 0.00570434)
(1.04284 0.00274944 -0.00686157)
(1.03308 0.0159612 -0.0032761)
(1.01052 0.00158276 -0.018065)
(1.02019 -0.0243308 -0.0195371)
(1.05321 0.00389304 -0.00316967)
(1.04468 0.0331841 -0.00554478)
(1.01331 0.013369 -0.00562265)
(1.0231 -0.00882495 -0.00238182)
(1.03503 -0.0053903 -0.00127796)
(1.02358 -0.0103465 0.00898242)
(1.04056 -0.0134345 0.00149384)
(1.05536 0.0103747 -0.00577636)
(1.03948 0.00921333 -0.00868704)
(1.03849 0.000290094 -0.012283)
(1.04247 0.00997732 0.00225152)
(1.03628 0.0111786 0.00469582)
(1.03434 0.009046 -0.00810599)
(1.02986 0.00450731 -0.0132406)
(1.0294 -0.00872085 -0.0170803)
(1.04407 -0.00238256 -0.0128751)
(1.04954 0.0148005 0.00281182)
(1.04066 0.0178551 -0.00211173)
(1.0237 0.00509671 0.00458083)
(1.03173 -0.0105696 0.00826199)
(1.04514 -0.00283796 -0.0083316)
(1.02844 0.00560815 -0.000534763)
(1.03345 -0.0039426 -0.00733757)
(1.04878 -0.00713448 -0.0192066)
(1.04326 0.00521141 -0.00712542)
(1.03819 0.00548512 -0.00841622)
(1.03804 0.00375789 -0.0116127)
(1.03416 0.00822454 -0.00336893)
(1.03376 9.56376e-05 -0.00226844)
(1.04201 -0.0014494 -0.000510954)
(1.04476 0.00657377 -0.0042922)
(1.03373 0.00933643 0.00262682)
(1.03022 0.000325632 0.0036934)
(1.04221 0.00339678 -0.0135767)
(1.04598 0.00516199 0.0117966)
(1.04644 -0.002779 0.00723335)
(1.04997 0.00517273 -0.0129232)
(1.0297 0.0239036 -0.0109427)
(0.997113 0.000252867 -0.0308409)
(1.01078 -0.0346962 -0.0307265)
(1.05176 0.00477928 -0.0101402)
(1.03364 0.0412387 -0.0120599)
(1.00074 0.015846 -0.0047788)
(1.02072 -0.00923572 -0.0053587)
(1.03193 -0.00668444 -0.0110666)
(1.01354 -0.0138846 0.00449089)
(1.03541 -0.0169437 -0.00325007)
(1.05645 0.0118487 -0.00897386)
(1.03621 0.0122964 -0.00907385)
(1.03753 0.000208217 -0.0141053)
(1.04213 0.0114386 0.0036826)
(1.03605 0.0120659 0.00608424)
(1.03388 0.00989782 -0.00707605)
(1.02549 0.0048184 -0.00999759)
(1.026 -0.0135652 -0.0202288)
(1.04638 -0.0032548 -0.0190694)
(1.05642 0.0193825 0.000448057)
(1.05001 0.019698 -0.00549925)
(1.02746 0.00623446 0.0101578)
(1.03319 -0.0112602 0.0116238)
(1.04891 -0.00267836 -0.0151449)
(1.02678 0.00956439 0.000636519)
(1.03407 -0.00315294 -0.00404605)
(1.05615 -0.00651176 -0.0185946)
(1.04517 0.0108972 -0.00633462)
(1.03523 0.00900714 -0.0113223)
(1.03691 0.00349674 -0.0161167)
(1.03425 0.00798726 -0.00514326)
(1.03636 -0.000229888 -0.00114934)
(1.04899 0.000788463 -0.00186283)
(1.05001 0.0110229 -0.0106118)
(1.02833 0.0124214 -0.00623964)
(1.02177 -0.00170869 -0.00707521)
(1.03785 -0.00148631 -0.0254747)
(1.03727 0.0070418 0.00998427)
(1.05279 -0.00386616 0.00706434)
(1.06781 0.00606189 -0.0194168)
(1.04522 0.0319658 -0.0180281)
(1.0128 -0.00147206 -0.0390923)
(1.02355 -0.046504 -0.0357553)
(1.06017 0.00501792 -0.0167377)
(1.02201 0.0498938 -0.0198586)
(0.987449 0.0145345 -0.00101088)
(1.01818 -0.0142745 -0.00421988)
(1.02528 -0.00593251 -0.021252)
(0.99645 -0.0138712 -0.00640678)
(1.01785 -0.020598 -0.0150635)
(1.04915 0.0112468 -0.0155171)
(1.02837 0.0123959 -0.0100116)
(1.03276 -0.00383902 -0.0154335)
(1.0408 0.0127005 0.00311846)
(1.03532 0.0167212 0.0034718)
(1.0306 0.0143019 -0.00353979)
(1.01882 0.00268871 0.00327202)
(1.01837 -0.0232072 -0.0162312)
(1.04495 -0.00436969 -0.0250598)
(1.06488 0.0232445 -0.00407755)
(1.05705 0.0215159 -0.0108444)
(1.03024 0.00950698 0.0137501)
(1.03453 -0.0130231 0.0122532)
(1.04974 -0.00155816 -0.0226806)
(1.01777 0.0190451 0.00317021)
(1.02519 -0.00277727 0.00187818)
(1.05635 -0.00766854 -0.0108408)
(1.04418 0.0195736 0.00107598)
(1.03097 0.0147 -0.0151753)
(1.03042 0.00436047 -0.0221264)
(1.0268 0.00817322 -0.00389467)
(1.03155 -0.00201428 0.00375475)
(1.05588 0.00153415 -0.000651667)
(1.05981 0.0178676 -0.0136684)
(1.03384 0.0173237 -0.0118429)
(1.02638 -0.00821957 -0.0179594)
(1.01785 -0.00847134 -0.0358796)
(1.00393 0.0100273 0.00432984)
(1.0468 -0.00700098 0.000191116)
(1.08724 0.00201365 -0.0278936)
(1.07686 0.0374925 -0.0215393)
(1.05917 -0.00410517 -0.0447471)
(1.04704 -0.0574724 -0.0325433)
(1.06604 0.00861072 -0.0174519)
(1.0185 0.0611527 -0.0271445)
(0.981278 0.00683849 0.00399954)
(1.00575 -0.0248376 -0.00392184)
(1.00131 -0.00629974 -0.0317155)
(0.961566 -0.0128728 -0.0145579)
(0.980279 -0.0219241 -0.0175643)
(1.0218 0.0140191 -0.00710687)
(1.00984 0.0178048 -0.00593219)
(1.02076 -0.00535346 -0.0186848)
(1.03633 0.0136663 0.0014254)
(1.03344 0.0241518 -0.000383225)
(1.02537 0.0215971 0.00191788)
(1.01489 0.00195195 0.0181251)
(1.01414 -0.0310334 -0.0114544)
(1.04299 -0.00347204 -0.0302332)
(1.06593 0.0322536 -0.0132193)
(1.05733 0.0269107 -0.0193419)
(1.03853 0.0122447 0.0180669)
(1.04551 -0.0116085 0.0175542)
(1.05032 0.00593874 -0.0276752)
(1.00605 0.0300046 0.0010131)
(1.01909 -0.00777422 0.00587894)
(1.05613 -0.0088397 -0.000196298)
(1.04073 0.0306214 0.0110553)
(1.02615 0.0173125 -0.0202032)
(1.0261 0.00383664 -0.0289496)
(1.02385 0.0111228 -0.0033256)
(1.02264 -0.000709529 0.00455832)
(1.04912 0.00113384 -0.00637038)
(1.05915 0.0233149 -0.0223904)
(1.04859 0.0219617 -0.0184415)
(1.03789 -0.0167754 -0.0241984)
(0.96907 -0.0110625 -0.0411805)
(0.958125 0.0111088 0.00335036)
(1.01876 -0.0195414 -0.0087122)
(1.07377 -0.00489761 -0.0314385)
(1.10088 0.0432446 -0.0229046)
(1.10314 -0.00849639 -0.0607057)
(1.04763 -0.0657578 -0.0241691)
(1.04764 0.0166798 -0.00679733)
(1.01719 0.0740991 -0.0243064)
(0.981114 0.00314907 0.00896088)
(0.975097 -0.0298413 -0.0112657)
(0.95349 -0.00635355 -0.0361611)
(0.894543 -0.0115408 -0.00284493)
(0.919043 -0.0181444 -0.00467547)
(0.978364 0.0207332 0.00297829)
(0.971287 0.020082 -0.00865246)
(0.999645 -0.00939297 -0.0210367)
(1.02772 0.0162371 0.00229711)
(1.02258 0.0325935 -0.00341614)
(1.02501 0.0244053 0.00650672)
(1.02657 -0.0017432 0.0275781)
(1.02719 -0.030551 -0.00863408)
(1.03768 0.00810151 -0.0439382)
(1.03935 0.0451618 -0.0304765)
(1.05037 0.0316153 -0.0167197)
(1.05394 0.0171279 0.0291862)
(1.07413 -0.00511581 0.0218583)
(1.06391 0.0173065 -0.0284434)
(0.993164 0.0339554 0.00992025)
(1.02195 -0.0259675 0.0213693)
(1.06775 -0.0123248 0.0215873)
(1.05408 0.040169 0.0259304)
(1.05209 0.0149083 -0.0170353)
(1.04124 0.00172961 -0.0266595)
(1.0271 0.0148375 -0.00126946)
(1.0197 -0.00022914 0.00546821)
(1.04003 0.00174133 -0.015243)
(1.04983 0.0295792 -0.0375821)
(1.06172 0.0252005 -0.0244527)
(1.03111 -0.0225155 -0.0268047)
(0.92772 -0.0061352 -0.0273753)
(0.974479 0.0177884 0.0301744)
(0.989033 -0.026605 -0.0111391)
(1.0127 -0.0139563 -0.0172977)
(1.09614 0.0410272 -0.0231853)
(1.0901 -0.0134172 -0.0850305)
(0.98125 -0.0684194 -0.00227457)
(0.991918 0.0224592 0.0218184)
(1.01036 0.0827177 -0.00658883)
(0.986539 0.0100043 0.0116906)
(0.928448 -0.0266628 -0.0170263)
(0.875294 -0.000700509 -0.0256982)
(0.800188 -0.00537622 0.0129021)
(0.844142 -0.0152549 0.0040321)
(0.918774 0.0281342 0.00783512)
(0.922935 0.0191383 -0.00666177)
(0.973063 -0.0140501 -0.0141674)
(0.997754 0.0262168 0.0141982)
(0.993929 0.0454617 0.00279383)
(1.03693 0.0215541 0.00649004)
(1.04132 -0.00397287 0.0304544)
(1.02969 -0.0226909 -0.0102685)
(1.02171 0.0284284 -0.0656962)
(1.01321 0.0613737 -0.0368572)
(1.05673 0.0249868 -0.00817682)
(1.05904 0.0151347 0.0252935)
(1.0826 0.00376153 0.0258429)
(1.08658 0.031669 -0.00708133)
(1.03225 0.0218949 0.0148497)
(1.04508 -0.0557085 0.0159766)
(1.06159 -0.0123281 0.0382447)
(1.05311 0.0426631 0.0450772)
(1.0758 -0.002372 0.00940026)
(1.04731 0.00202298 -0.010984)
(1.03028 0.0265006 -0.0066322)
(1.04005 0.00102072 -0.0012336)
(1.0773 0.00143362 -0.0226737)
(1.08241 0.0333464 -0.0401822)
(1.09949 0.027081 -0.0201776)
(1.01739 -0.0230465 -0.0315617)
(0.90226 0.00249825 0.0296691)
(1.02709 0.026039 0.0602654)
(0.949741 -0.0300832 -0.0098189)
(0.925656 -0.0170159 0.0078939)
(1.02244 0.0401777 -0.0564188)
(1.0039 -0.0163025 -0.116464)
(0.854528 -0.0647726 0.0444543)
(0.872453 0.0289433 0.064933)
(0.981999 0.0910924 0.0180063)
(0.98534 0.0303713 0.0252494)
(0.846589 -0.0165275 -0.0245725)
(0.775505 0.00898348 -0.0240497)
(0.7162 -0.00123423 0.016514)
(0.75286 -0.018612 0.0133145)
(0.84448 0.0293459 0.0316554)
(0.89025 0.0136267 0.0129934)
(0.936068 -0.0111855 -0.00234347)
(0.940785 0.0440221 0.0353296)
(0.973054 0.0474161 0.00749652)
(1.04775 0.0122834 0.000358215)
(1.03147 0.00410429 0.0282652)
(0.998814 -0.00875311 -0.0400865)
(0.990866 0.0508311 -0.077543)
(1.02482 0.0705898 -0.0236076)
(1.05514 0.0109378 -0.0247377)
(1.03878 0.0181636 0.0144195)
(1.05374 0.00638546 0.0453441)
(1.08385 0.0280199 0.00646996)
(1.11531 0.00541893 0.00192591)
(1.02321 -0.0690695 -0.00576332)
(1.00596 -0.000986244 0.0404198)
(1.03105 0.0430499 0.0531967)
(0.995521 -0.0271768 0.00341001)
(0.983017 -0.00301812 0.0106819)
(1.03506 0.0285296 0.00981795)
(1.03805 -0.00618635 0.0013485)
(1.11334 0.00053008 0.00169089)
(1.12355 0.0407098 0.00231123)
(1.14397 0.0343466 -0.0186205)
(0.997129 -0.0168053 -0.024445)
(0.886146 0.00741048 0.0755271)
(1.09434 0.0264247 0.0539934)
(0.910468 -0.0349963 0.00956359)
(0.858747 -0.0139089 0.0119211)
(0.934161 0.0345659 -0.118141)
(0.912452 -0.0213499 -0.111698)
(0.74373 -0.0636138 0.0986701)
(0.747468 0.0206361 0.0989332)
(0.951654 0.0946202 0.042288)
(0.980389 0.0508772 0.045755)
(0.757794 -0.00843267 -0.0309024)
(0.695631 0.0224811 -0.0347306)
(0.637089 0.00380021 -0.00528793)
(0.647485 -0.0248404 -0.00238986)
(0.787895 0.0251218 0.0333666)
(0.864038 0.0110268 0.0100163)
(0.881438 0.00171989 -0.0124187)
(0.890059 0.0596919 0.0313497)
(0.994921 0.0338257 0.00780918)
(1.0233 0.0125736 -0.0037448)
(1.00862 0.0211864 0.0065608)
(0.975183 -0.00365962 -0.0624088)
(0.930434 0.0668019 -0.0713567)
(1.04938 0.0636393 -0.0320694)
(1.02043 -0.000871406 -0.0465654)
(1.02234 0.023256 0.0412581)
(1.03732 -0.00342837 0.0515672)
(1.07086 0.0105568 -0.0073933)
(1.15245 0.000641271 0.00496182)
(0.979442 -0.0554587 -0.0225443)
(0.914444 0.00959451 0.0569786)
(0.989153 0.0429932 0.0526147)
(0.885268 -0.02483 -0.0165055)
(0.911622 -0.00421382 0.0286856)
(0.975937 0.0175466 -0.0054954)
(0.902668 -0.0209875 -0.0220096)
(0.993607 -0.00504214 0.0318803)
(1.07551 0.0421538 0.0187567)
(1.14621 0.0438345 -0.0432969)
(0.920318 -0.0101466 0.0169285)
(0.926505 0.00158919 0.0617037)
(1.14903 0.0127687 0.0224651)
(0.867959 -0.0385068 0.00541052)
(0.820676 -0.00278724 -0.00263518)
(0.88611 0.031994 -0.138443)
(0.859152 -0.0218672 -0.0667807)
(0.645633 -0.057993 0.119497)