# y+ ()       
# Time        	patch         	min           	max           	average       
21            	bottomWall	2.670440e+00	4.876516e+00	3.511402e+00
21            	topWall	2.430692e+00	4.737907e+00	3.544726e+00
