/*--------------------------------*- C++ -*----------------------------------*\
  =========                 |
  \\      /  F ield         | OpenFOAM: The Open Source CFD Toolbox
   \\    /   O peration     | Website:  https://openfoam.org
    \\  /    A nd           | Version:  10
     \\/     M anipulation  |
\*---------------------------------------------------------------------------*/
FoamFile
{
    format      ascii;
    class       volTensorField;
    location    "1";
    object      gradientUWrite;
}
// * * * * * * * * * * * * * * * * * * * * * * * * * * * * * * * * * * * * * //

dimensions      [0 0 -1 0 0 0 0];

internalField   nonuniform List<tensor> 
25600
(
(-0.00344641 0.0108106 0.154399 -0.0860027 -0.0642354 -0.114906 -0.179432 0.148689 0.0645732)
(0.0678189 0.0110241 0.0647951 -0.0087885 -0.0588889 -0.0412294 -0.193652 0.147331 -0.00836079)
(0.169879 0.0202813 -0.048574 -0.0285607 -0.0719949 -0.0391648 -0.147709 0.159651 -0.0920234)
(0.214316 0.0458457 -0.128661 -0.106315 -0.120474 -0.0528503 -0.0573048 0.116461 -0.124119)
(0.179748 0.0667365 -0.134693 -0.1856 -0.104684 -0.0618555 0.0401908 0.0680373 -0.0806844)
(-0.00850232 0.0534876 -0.0927569 -0.212593 -0.053954 -0.0654241 0.156081 0.0290292 0.0410854)
(-0.223316 -0.00950837 -0.0343197 -0.216469 0.0198474 -0.0618563 0.251148 -0.00172716 0.157696)
(-0.307917 -0.0741136 -0.0129168 -0.208311 0.0941064 -0.0712659 0.292235 -0.00271709 0.194336)
(-0.257227 -0.0803098 -0.0213865 -0.214736 0.105344 -0.0529255 0.296706 -0.0264728 0.148062)
(-0.117328 -0.0284047 -0.0180285 -0.257716 0.0819077 -0.0239934 0.261309 -0.0391906 0.0330651)
(0.0379025 0.0476299 0.0238815 -0.266457 0.0375405 -0.0228499 0.225642 -0.0157894 -0.0947187)
(0.168547 0.0934641 0.0917662 -0.201397 0.0261836 -0.0342277 0.155357 0.0311906 -0.205082)
(0.190293 0.0814801 0.108532 -0.0516205 0.0577289 -0.0768312 0.0112975 0.0656383 -0.271655)
(0.0991697 0.00672387 0.0520891 0.150857 0.111351 -0.0959229 -0.229261 0.013888 -0.26859)
(-0.00954432 -0.0963979 -0.0430082 0.308469 0.186726 -0.0471166 -0.569572 -0.0873177 -0.228465)
(-0.0837521 -0.146414 -0.110999 0.380962 0.214274 -0.0126491 -0.842324 -0.168667 -0.187497)
(-0.0667081 -0.098522 -0.0995606 0.367589 0.172155 -0.00834377 -0.89671 -0.190618 -0.154416)
(-0.00911501 -0.00712404 -0.0419333 0.311374 0.105917 -0.0503651 -0.704054 -0.174926 -0.11156)
(-0.0151096 0.0444539 0.000367298 0.263279 0.0492881 -0.107965 -0.355164 -0.165191 -0.0385416)
(-0.0612744 0.038872 -0.00736977 0.225024 0.0408013 -0.0898617 -0.0167163 -0.151523 0.0104412)
(-0.0891158 0.0035923 -0.0506662 0.198824 0.105473 0.00901962 0.226583 -0.136524 -0.00127843)
(-0.0671898 -0.0160451 -0.0911374 0.193306 0.162913 0.151835 0.32884 -0.15592 -0.0654949)
(0.0395707 -0.0338986 -0.0980446 0.185938 0.149102 0.27301 0.298555 -0.20585 -0.160798)
(0.197818 -0.054206 -0.0531382 0.187712 0.099736 0.311773 0.189108 -0.263227 -0.256102)
(0.297055 -0.0436744 0.0203765 0.195675 0.0310984 0.262758 0.019776 -0.289475 -0.315235)
(0.273478 -0.0309802 0.0763698 0.135485 0.016746 0.173401 -0.106147 -0.24077 -0.296136)
(0.0977937 -0.00295776 0.0847353 0.0202745 0.0700535 0.0923207 -0.0938993 -0.140587 -0.163284)
(-0.13526 0.0237673 0.0412216 -0.104138 0.111018 0.0508001 -0.0269552 -0.0664967 0.00457676)
(-0.257437 0.017363 0.00140539 -0.164294 0.151826 0.0373201 0.1073 -0.095323 0.0969113)
(-0.195582 0.0103262 0.00646919 -0.118439 0.141868 0.0449454 0.152849 -0.184718 0.0679239)
(-0.0558392 -0.0122965 0.0353776 0.00994182 0.073629 0.0607784 0.162843 -0.250466 -0.0290004)
(0.0823182 -0.0277399 0.071111 0.107894 0.0231649 0.0621729 0.119107 -0.238318 -0.0982566)
(0.130586 -0.0290825 0.0661046 0.129541 -0.0372727 0.0760939 0.0230111 -0.152893 -0.0860423)
(0.0252759 -0.0370731 0.0111549 0.0239388 -0.0453506 0.0877978 -0.110018 -0.0759912 0.00434477)
(-0.0805041 -0.0130369 -0.0626661 -0.141758 -0.0196213 0.0881662 -0.214018 -0.0566024 0.0986579)
(-0.113941 0.0303454 -0.110405 -0.298003 -0.0243719 0.0510644 -0.214345 -0.101102 0.131058)
(-0.0931136 0.0593719 -0.0702564 -0.428074 -0.0263132 -0.0668095 -0.148331 -0.130888 0.119628)
(-0.0488648 0.0756964 0.0434078 -0.465345 -0.0533496 -0.204448 -0.109534 -0.0781195 0.0926961)
(0.00853352 0.0679654 0.167996 -0.39116 -0.0818541 -0.268297 -0.109026 0.0182371 0.0751177)
(0.0199843 0.0325477 0.208962 -0.243395 -0.0665147 -0.220891 -0.140541 0.117027 0.0756533)
(0.0975817 0.0332582 0.169067 -0.0880547 0.0398344 -0.292833 -0.506771 0.239211 -0.140937)
(-0.0390279 -0.0582549 0.131977 0.0286309 0.0976674 -0.281012 -0.155273 0.319988 -0.0545959)
(-0.125871 -0.122615 0.0790717 0.0109698 0.14805 -0.171336 0.127392 0.32351 -0.00841839)
(-0.150974 -0.0569301 0.0432834 -0.137714 0.163569 -0.0029861 0.2651 0.251886 -0.0216376)
(-0.0517884 0.0893831 0.0105813 -0.329548 0.15727 0.13274 0.345284 0.164354 -0.0894792)
(0.0528117 0.180147 -0.0321224 -0.368236 0.128069 0.1481 0.467807 0.0799422 -0.147102)
(0.123759 0.161499 -0.0839286 -0.171602 0.115546 0.0269282 0.702157 0.0405186 -0.195887)
(0.165642 0.0338179 -0.110947 0.20027 0.135675 -0.115966 0.855118 0.0654926 -0.240183)
(0.108785 -0.101196 -0.0858258 0.570406 0.15183 -0.148129 0.775769 0.121248 -0.226595)
(0.0240441 -0.133331 -0.0371953 0.719886 0.158654 -0.0739334 0.531777 0.19744 -0.167966)
(-0.0301288 -0.0552789 0.0220732 0.618513 0.103745 0.000323275 0.232524 0.229394 -0.0714519)
(-0.030091 0.0338658 0.0449086 0.356751 -0.00871186 -0.044187 0.0330639 0.186544 0.039513)
(0.00438805 0.0430777 0.00772069 0.125107 -0.12804 -0.204581 0.00654471 0.0798682 0.115226)
(0.00491716 -0.0090449 -0.0308019 0.068019 -0.1839 -0.348921 0.0758333 -0.0833669 0.141914)
(-0.0205127 -0.0692621 -0.0731612 0.137549 -0.10488 -0.390019 0.185206 -0.228128 0.09895)
(-0.0607496 -0.0965562 -0.0863558 0.208247 0.0330127 -0.334612 0.21219 -0.304096 0.00736912)
(-0.0676058 -0.0558254 -0.0479454 0.158664 0.138617 -0.231028 0.100132 -0.276855 -0.0780349)
(-0.0195996 0.0298516 0.00528969 0.00106431 0.178022 -0.139044 -0.0460942 -0.139676 -0.140149)
(0.00161182 0.124504 0.089881 -0.164619 0.143105 -0.0539931 -0.201166 -0.00312559 -0.134074)
(-0.0133823 0.216171 0.169026 -0.22182 0.0910703 0.0699161 -0.297933 0.0383129 -0.070209)
(-0.0237037 0.219721 0.202263 -0.122534 0.0599756 0.222688 -0.322754 -0.060763 -0.00173579)
(-0.0247305 0.0938913 0.173112 0.0521757 0.0258057 0.371093 -0.310709 -0.288741 0.037662)
(0.0334971 -0.069838 0.0647921 0.160878 -0.0231045 0.465373 -0.220406 -0.496728 -0.00206272)
(0.13781 -0.165425 -0.0687928 0.107656 -0.0310048 0.475991 -0.114368 -0.508303 -0.0909888)
(0.155528 -0.135486 -0.161152 -0.081632 -0.00392048 0.416094 -0.0984769 -0.317232 -0.154223)
(0.0845313 -0.0399741 -0.169999 -0.298852 0.0442908 0.321709 -0.174608 -0.0736613 -0.148701)
(-0.0135152 0.0203784 -0.102417 -0.438109 0.10503 0.242165 -0.276743 0.0591452 -0.0800054)
(-0.0797138 0.0268069 -0.0317112 -0.399898 0.10519 0.212267 -0.242195 0.0424072 -0.029081)
(-0.0403309 -0.00961239 0.0128103 -0.252162 0.0909397 0.229035 -0.0503892 -0.0606381 -0.0472291)
(0.0479063 -0.0667306 0.0315805 -0.027994 0.0577501 0.245371 0.117445 -0.166701 -0.0871946)
(0.0622356 -0.0934763 0.0296496 0.046976 0.0166003 0.201292 0.102661 -0.231384 -0.091369)
(0.00295463 -0.0953264 0.044194 0.066672 0.0419325 0.102738 -0.139783 -0.229072 -0.0391907)
(-0.120063 -0.0723236 0.0542117 -0.0877524 0.0826583 0.00749566 -0.46618 -0.160673 0.0343277)
(-0.246021 -0.0355958 0.0382014 -0.252845 0.135408 -0.00809816 -0.640075 -0.107729 0.0969563)
(-0.257856 -0.0321529 -0.0161645 -0.310751 0.153743 0.0709585 -0.574338 -0.127858 0.120624)
(-0.188778 -0.0247025 -0.112295 -0.344142 0.093083 0.186157 -0.366201 -0.191491 0.0999193)
(-0.0612172 0.00394846 -0.171125 -0.344816 0.0235578 0.241006 -0.232804 -0.231033 0.0364969)
(0.0997869 0.0574667 -0.131837 -0.303239 -0.0251804 0.177935 -0.328147 -0.181682 -0.0634052)
(0.225208 0.121297 -0.000402779 -0.263886 -0.0426453 0.00118278 -0.545166 -0.0544366 -0.16856)
(0.232663 0.109853 0.130483 -0.216114 -0.0130781 -0.192444 -0.658112 0.104263 -0.203685)
(0.208503 0.1046 0.0823585 -0.270067 -0.0605092 0.4209 -0.154084 -0.113607 -0.146133)
(0.140137 0.0943733 0.171561 -0.286471 0.106067 0.39162 -0.266683 -0.0126155 -0.262688)
(0.00516693 0.0618788 0.193369 -0.268743 0.230582 0.3757 -0.399075 0.0829093 -0.26473)
(-0.101016 0.0441357 0.138892 -0.157575 0.285828 0.27425 -0.438731 0.139244 -0.231573)
(-0.0322894 0.0393867 0.00368964 0.0211746 0.257649 0.0689074 -0.312676 0.137443 -0.245874)
(0.127926 0.0304428 -0.174902 0.211629 0.164724 -0.15232 -0.17198 0.116333 -0.29181)
(0.279236 0.0123482 -0.257599 0.361981 0.0274465 -0.246574 -0.162383 0.128189 -0.333485)
(0.349878 -0.0342362 -0.16686 0.36832 -0.0965942 -0.128641 -0.293555 0.181697 -0.278693)
(0.206544 -0.0631724 0.00757354 0.215208 -0.119982 0.0616409 -0.405664 0.230669 -0.127548)
(-0.0646132 -0.0777856 0.103214 -0.00787774 -0.0268239 0.162735 -0.341139 0.236298 0.0459418)
(-0.269126 -0.100386 0.0483605 -0.212516 0.0792841 0.0947086 -0.207289 0.161667 0.16317)
(-0.258286 -0.10398 -0.08225 -0.363993 0.0783409 -0.103097 -0.0752649 0.0204532 0.144117)
(-0.0658186 -0.0671485 -0.153096 -0.433924 -0.014015 -0.294307 0.00727896 -0.142378 0.0345283)
(0.100903 0.024476 -0.109077 -0.388677 -0.059942 -0.407753 0.014518 -0.248247 -0.104116)
(0.10563 0.0857727 -0.0338967 -0.245009 0.0512122 -0.419999 0.103366 -0.159943 -0.234361)
(-0.0641663 0.0598471 0.0229593 -0.0913713 0.263642 -0.305038 0.23196 0.0693821 -0.280847)
(-0.238431 0.025495 0.0671537 0.014708 0.434257 -0.114796 0.315203 0.261016 -0.250837)
(-0.277894 -4.19251e-05 0.109027 0.00383437 0.42511 0.0986562 0.284915 0.294755 -0.168298)
(-0.198237 -0.0202995 0.181623 -0.169501 0.191526 0.265269 0.128739 0.13567 -0.000424183)
(-0.0220524 -0.0138691 0.237893 -0.356691 -0.147699 0.290267 0.0459806 -0.0609123 0.167903)
(0.143827 -0.0308163 0.221853 -0.433803 -0.425987 0.157783 0.0525868 -0.210335 0.284716)
(0.171466 -0.0748727 0.133953 -0.373429 -0.507095 -0.0881965 0.0588465 -0.30143 0.344449)
(0.0849813 -0.0842326 0.00367031 -0.279318 -0.386569 -0.338256 0.019585 -0.288732 0.297328)
(-0.0085487 -0.04843 -0.0953879 -0.315766 -0.170749 -0.456549 -0.0650425 -0.229649 0.192669)
(-0.052592 0.0103529 -0.123952 -0.429869 -0.00518999 -0.378262 -0.104211 -0.167159 0.0647111)
(-0.0390335 0.0584617 -0.0901327 -0.517392 0.0377193 -0.160428 -0.108505 -0.122371 -0.030043)
(0.00395621 0.0496172 -0.0229562 -0.541159 0.00982836 0.0705568 -0.137928 -0.109237 -0.028608)
(0.0238413 0.012371 0.0237092 -0.483523 -0.0682156 0.193904 -0.142526 -0.0833007 0.0220131)
(0.070417 -0.0243927 0.0298681 -0.464763 -0.153684 0.198565 -0.102545 -0.063612 0.0797107)
(0.0743884 -0.0582699 -0.01423 -0.510438 -0.214411 0.137345 -0.0669875 -0.0624569 0.145105)
(0.0333277 -0.0327851 -0.0833083 -0.623369 -0.2206 0.0512485 -0.129498 -0.0722529 0.178094)
(-0.0365171 0.0208381 -0.0918885 -0.648461 -0.164376 -0.0343881 -0.347133 -0.151786 0.198642)
(-0.156919 0.0444241 -0.0267995 -0.640687 -0.0704678 -0.101493 -0.642538 -0.269164 0.223297)
(-0.184146 0.0219515 0.0661911 -0.52443 0.00936602 -0.117082 -0.822366 -0.355036 0.175116)
(-0.172272 -0.04984 0.102495 -0.362033 0.0532057 -0.0824605 -0.801647 -0.355651 0.136805)
(-0.148969 -0.0825142 0.0302992 -0.231212 0.00463063 0.000884613 -0.648125 -0.280284 0.143132)
(-0.0563261 -0.0436453 -0.0862434 -0.110135 -0.114218 0.14229 -0.448256 -0.225275 0.162158)
(0.0317036 0.019192 -0.171216 -0.0536082 -0.224189 0.312829 -0.28033 -0.220983 0.193617)
(0.100422 0.0828428 -0.154163 -0.0899586 -0.268356 0.434613 -0.163687 -0.224072 0.155148)
(0.184999 0.10791 -0.0417546 -0.196944 -0.21054 0.456823 -0.112089 -0.193813 0.0227148)
(0.0402494 0.278182 0.112076 -0.784716 -0.222736 0.441075 0.146981 0.111216 0.193573)
(-0.0217335 0.174848 0.101538 -0.850775 -0.181438 0.393788 0.280217 0.178584 0.200272)
(-0.0168812 0.0295431 0.00107792 -0.833555 -0.17534 0.259173 0.436196 0.334982 0.188292)
(0.0719056 -0.027353 -0.179063 -0.677773 -0.194406 -0.0126761 0.550284 0.546856 0.103588)
(0.22803 -0.00636736 -0.311292 -0.440604 -0.249609 -0.3099 0.438945 0.658384 -0.0142148)
(0.316303 -0.00683429 -0.282697 -0.249008 -0.268171 -0.423286 0.0577753 0.540255 -0.0643432)
(0.255905 -0.0488651 -0.0818942 -0.215376 -0.21336 -0.238697 -0.283036 0.271938 -0.0505452)
(0.0718679 -0.0833998 0.116081 -0.435718 -0.106938 0.107339 -0.297976 0.0209808 0.0468328)
(-0.165635 -0.0451941 0.142104 -0.777485 0.0120496 0.297293 -0.00399257 -0.0423449 0.161217)
(-0.306136 0.0217876 0.000479979 -0.930295 0.10647 0.185693 0.337379 0.107528 0.214241)
(-0.320057 0.0198168 -0.175732 -0.797012 0.109981 -0.0829917 0.441783 0.268697 0.2168)
(-0.217589 -0.0489361 -0.259623 -0.568047 -0.0171057 -0.278371 0.325334 0.276445 0.194682)
(-0.0205875 -0.0710888 -0.236342 -0.451285 -0.171407 -0.285183 0.0667176 0.111962 0.166522)
(0.155919 0.0431264 -0.13258 -0.496693 -0.214852 -0.206834 -0.181578 -0.135028 0.0524597)
(0.21486 0.188529 0.00776467 -0.605431 -0.0848266 -0.143196 -0.18113 -0.29715 -0.143144)
(0.13453 0.206139 0.153434 -0.587376 0.115159 0.00462162 0.00171911 -0.315829 -0.273133)
(-0.0114462 0.0731722 0.266544 -0.362852 0.223725 0.254648 0.12564 -0.210314 -0.229692)
(-0.181821 -0.155666 0.30095 -0.111721 0.166311 0.497149 0.011924 -0.117195 -0.00290631)
(-0.288076 -0.320045 0.242527 -0.0106734 -0.00111009 0.549563 -0.263415 -0.109294 0.258562)
(-0.213215 -0.269799 0.0943441 -0.0836289 -0.166073 0.276075 -0.398682 -0.0798236 0.338119)
(-0.0210702 -0.0737278 -0.0809727 -0.319718 -0.233702 -0.151962 -0.310401 -0.030628 0.230556)
(0.109457 0.108225 -0.204013 -0.551705 -0.151033 -0.525738 -0.110406 0.00240066 0.04281)
(0.0816065 0.182152 -0.218172 -0.639089 0.0128055 -0.728557 0.0933541 0.0198441 -0.111976)
(0.0111181 0.132431 -0.101341 -0.553853 0.161233 -0.671687 0.20102 0.0162924 -0.166442)
(-0.015247 0.0347769 0.065239 -0.354865 0.195925 -0.432018 0.212131 0.0317647 -0.161337)
(-0.0105202 -0.0197097 0.175269 -0.258706 0.109949 -0.177988 0.159639 0.0569467 -0.100109)
(0.0135801 -0.0567406 0.171656 -0.292183 0.0051832 -0.0422355 0.026381 0.0478888 -0.0262613)
(-0.0127607 -0.0976462 0.0697318 -0.390739 -0.0647636 -0.0877211 -0.132435 0.0119836 0.0600114)
(-0.0505261 -0.121056 -0.0282324 -0.548681 -0.133665 -0.189578 -0.258369 -0.0191439 0.181088)
(-0.0691298 -0.116355 -0.0835293 -0.765737 -0.229745 -0.215514 -0.320008 -0.0260524 0.311733)
(-0.044338 -0.0502746 -0.109956 -0.889763 -0.303373 -0.189667 -0.343393 -0.024052 0.378963)
(-0.0136777 0.0283038 -0.0832132 -0.922264 -0.285014 -0.168237 -0.423151 -0.0980071 0.359134)
(-0.0300086 0.0691403 -0.0154334 -0.782966 -0.179098 -0.186519 -0.58915 -0.213492 0.26884)
(-0.0305408 0.0627765 0.0550807 -0.520544 -0.0695313 -0.195723 -0.722111 -0.264756 0.149322)
(-0.0292509 -0.037328 0.0834689 -0.305065 -0.0509378 -0.156098 -0.761062 -0.2221 0.10866)
(0.00454624 -0.156047 0.0699342 -0.225935 -0.131927 -0.0935789 -0.680594 -0.119124 0.132884)
(0.07298 -0.172703 0.0715189 -0.325022 -0.233871 -0.00947748 -0.530078 -0.0238799 0.162202)
(0.108788 -0.0620951 0.0847272 -0.506058 -0.293936 0.115608 -0.346933 0.0422451 0.168494)
(0.105912 0.128078 0.0940511 -0.632742 -0.302459 0.276107 -0.151181 0.0824862 0.150871)
(0.0926888 0.266204 0.104489 -0.70715 -0.277398 0.40632 0.00994622 0.0951332 0.164698)
(0.0948739 0.186082 0.0764825 -1.11908 -0.424497 -0.253484 0.395918 0.18358 0.337093)
(0.0919775 0.134141 0.040663 -1.02592 -0.457093 -0.163504 0.490346 0.242043 0.370069)
(0.121596 0.0500598 -0.102383 -0.916599 -0.418169 -0.216322 0.704248 0.420968 0.318261)
(0.183724 -0.0132112 -0.279611 -0.82847 -0.354633 -0.40167 0.817091 0.604161 0.199987)
(0.284917 -0.0152736 -0.306061 -0.776185 -0.336517 -0.487524 0.648008 0.547401 0.0778816)
(0.29925 0.0518677 -0.135962 -0.756705 -0.322933 -0.338129 0.283747 0.210734 0.0240656)
(0.149295 0.117158 0.121643 -0.707718 -0.237319 -0.0074574 -0.0551573 -0.168928 0.0432723)
(-0.0602234 0.115604 0.22581 -0.737685 -0.0925299 0.253995 -0.194869 -0.342816 0.10771)
(-0.165893 0.084559 0.0734512 -0.750057 -0.00925583 0.250208 -0.0646838 -0.205458 0.104941)
(-0.0999515 -0.00168545 -0.16647 -0.503669 0.00400299 0.040017 0.182346 0.0590265 0.0512833)
(-0.0257679 -0.17405 -0.289716 -0.0353113 -0.0144338 -0.158249 0.292207 0.21468 0.039338)
(-0.0179036 -0.291607 -0.236803 0.296547 -0.078242 -0.239932 0.210168 0.227992 0.0992218)
(-0.0128563 -0.202882 -0.111695 0.265661 -0.146308 -0.153203 0.0310733 0.125004 0.182405)
(0.000381511 0.0854441 -0.0140127 0.0633435 -0.14676 0.0274173 -0.157765 -0.0721525 0.156095)
(0.0534856 0.321041 0.114653 -0.0983159 -0.0919213 0.222248 -0.296543 -0.187018 0.0372333)
(0.119975 0.284385 0.307187 -0.192258 -0.134956 0.431566 -0.333162 -0.113207 0.0306655)
(0.107845 0.0648505 0.422469 -0.290802 -0.279432 0.55099 -0.284441 0.0268495 0.175129)
(-0.028058 -0.168118 0.32838 -0.337624 -0.300567 0.525223 -0.191696 0.0754897 0.291331)
(-0.187178 -0.275112 0.0358189 -0.19686 -0.0758832 0.376399 -0.0401019 0.0488669 0.231777)
(-0.25101 -0.196379 -0.25542 0.0205255 0.183307 0.190961 0.159344 0.0406569 0.0616944)
(-0.191612 -0.0244231 -0.354605 0.0441179 0.220583 0.0723257 0.249077 0.0741048 -0.0200343)
(-0.0528119 0.110539 -0.29152 -0.149009 0.0756097 -0.0230769 0.164117 0.0517017 -0.00770844)
(0.0832038 0.153772 -0.116425 -0.308531 -0.112652 -0.06507 0.00725672 -0.07542 0.0282963)
(0.187817 0.0933836 0.107078 -0.247788 -0.237985 0.0181477 -0.141653 -0.173236 0.0473611)
(0.15286 -0.0225341 0.231238 -0.0947814 -0.253538 0.106358 -0.195412 -0.139132 0.0864366)
(0.00647126 -0.0792288 0.20085 -0.0413179 -0.207089 0.137631 -0.120805 -0.0084728 0.16357)
(-0.0855568 -0.0796635 0.0565426 -0.0806672 -0.135402 0.0693918 -0.00166067 0.077672 0.1974)
(-0.155083 -0.0926906 -0.0729733 -0.220165 -0.0582092 -0.0818871 0.0336989 0.0450941 0.217079)
(-0.197304 -0.14613 -0.0629023 -0.439785 -0.071623 -0.127874 -0.0671813 -0.0252239 0.284478)
(-0.172167 -0.179733 -0.0205944 -0.712981 -0.206992 -0.0649886 -0.21436 -0.0423931 0.371884)
(-0.0808932 -0.0722123 -0.0533676 -0.756952 -0.356205 -0.00557562 -0.32644 -0.00731257 0.416842)
(0.0386722 0.106594 -0.0889445 -0.554335 -0.389802 0.047128 -0.402488 -0.0322904 0.347905)
(0.129637 0.194189 -0.0445819 -0.0623009 -0.244991 0.0875361 -0.516815 -0.130631 0.137422)
(0.156992 0.113402 0.0860061 0.416226 -0.0222498 0.178599 -0.686787 -0.194742 -0.100679)
(0.042424 -0.0914169 0.170691 0.543976 0.13872 0.310154 -0.7183 -0.0913761 -0.161656)
(-0.148667 -0.214437 0.134279 0.19488 0.164739 0.300887 -0.436406 0.131809 0.00420882)
(-0.236332 -0.166294 0.0713139 -0.340349 0.0440458 0.163762 0.00643997 0.251293 0.193511)
(-0.171946 -0.0351568 0.0475736 -0.772523 -0.0929723 -0.0405569 0.377052 0.259926 0.258785)
(-0.0367434 0.0982793 0.0674339 -1.02033 -0.212708 -0.233001 0.490425 0.244853 0.251381)
(0.0725625 0.176887 0.0844842 -1.11282 -0.338695 -0.302257 0.422456 0.208989 0.272001)
(0.0992918 0.196124 0.195187 -0.689462 -0.32956 -0.365193 0.876443 0.293192 0.218389)
(0.114616 0.175083 0.119127 -0.709489 -0.339925 -0.283785 0.739936 0.215791 0.252281)
(0.118594 0.0951718 -0.156548 -0.647003 -0.308132 -0.259668 0.83205 0.221112 0.229607)
(0.169459 0.0247465 -0.356982 -0.422521 -0.265489 -0.094933 0.873973 0.30367 0.111143)
(0.277865 0.0125496 -0.271274 -0.242817 -0.257671 0.147806 0.674684 0.301222 -0.0304311)
(0.35736 0.0602376 0.0294031 -0.334495 -0.256857 0.328434 0.183419 0.106193 -0.0960304)
(0.258043 0.10962 0.305108 -0.567338 -0.172 0.467721 -0.444386 -0.207718 -0.0421626)
(0.0335039 0.0766298 0.286412 -0.776548 -0.07191 0.438805 -0.847117 -0.468397 0.10351)
(-0.0200267 0.0266827 0.00269694 -0.58441 -0.0575826 0.267542 -0.770551 -0.52394 0.12717)
(0.157416 0.01643 -0.268895 -0.00624693 -0.145675 0.121822 -0.261018 -0.335067 0.0551022)
(0.2047 -0.0490005 -0.360317 0.53275 -0.238273 0.0447171 0.17932 -0.101437 0.0666148)
(-0.0121258 -0.153078 -0.254407 0.702837 -0.174957 -0.0170741 0.226237 0.015678 0.158556)
(-0.16501 -0.125717 -0.0586284 0.553454 -0.0756219 -0.0216996 -0.0648669 0.0191163 0.204634)
(-0.0847375 0.0808214 0.111854 0.474076 -0.0624913 0.213674 -0.509513 -0.0424351 0.14089)
(0.0411162 0.207929 0.268995 0.479102 -0.137152 0.653193 -0.784738 -0.101225 0.0993364)
(0.0134192 0.0965664 0.372001 0.291056 -0.276454 0.92385 -0.72995 -0.0470462 0.237851)
(-0.0910579 -0.0306469 0.339011 -0.0595696 -0.367113 0.790289 -0.487176 0.149707 0.375073)
(-0.109373 -0.0301278 0.194795 -0.360199 -0.277047 0.406252 -0.234183 0.311021 0.300703)
(-0.0560167 -0.0148364 0.0157078 -0.436733 -0.0754679 0.0985754 0.00611624 0.298814 0.0917379)
(-0.0666889 -0.0786256 -0.126701 -0.20449 0.0999162 0.0287372 0.213699 0.218493 -0.0719621)
(-0.142087 -0.136264 -0.239062 0.213746 0.230847 -0.0384406 0.360599 0.257819 -0.117078)
(-0.124762 -0.0989412 -0.297476 0.55418 0.257369 -0.238744 0.379392 0.314317 -0.106533)
(0.0202801 -0.0155843 -0.183262 0.632563 0.100265 -0.259064 0.177895 0.205028 -0.0633875)
(0.160211 0.0412041 0.0243002 0.414292 -0.134987 -0.0355577 -0.120615 0.0109636 0.0379945)
(0.128534 0.0487909 0.154695 0.0011724 -0.248911 0.143187 -0.314504 -0.112168 0.166349)
(-0.000191132 0.0483938 0.154591 -0.258283 -0.231472 0.142192 -0.358997 -0.124802 0.234733)
(-0.106737 0.033824 0.0245756 -0.281606 -0.156997 0.00348544 -0.267771 -0.0668046 0.244581)
(-0.249191 -0.057505 -0.066011 -0.336051 -0.076851 -0.0947001 -0.134868 0.0192675 0.294247)
(-0.370564 -0.215926 -0.0208699 -0.425456 -0.0671615 -0.034125 0.0129989 0.110379 0.376551)
(-0.27588 -0.299219 -0.00169607 -0.531169 -0.135117 -0.0503868 0.162051 0.154816 0.35627)
(0.0510645 -0.166035 -0.0350371 -0.497225 -0.247128 -0.12651 0.134375 0.0798506 0.173463)
(0.423376 0.104636 -0.0257898 -0.136654 -0.341362 -0.0104741 -0.0801225 -0.160837 -0.111556)
(0.588507 0.309249 0.0637313 0.531825 -0.320778 0.285885 -0.359253 -0.407272 -0.31358)
(0.363813 0.306171 0.196432 0.821544 -0.10763 0.601241 -0.851757 -0.429457 -0.265318)
(-0.160478 0.0741175 0.167505 0.419255 0.192772 0.59646 -1.17695 -0.244543 -0.02172)
(-0.559719 -0.220276 -0.0153148 -0.0667093 0.334818 0.266497 -0.878255 -0.032047 0.193595)
(-0.557185 -0.332497 -0.140985 -0.146611 0.250152 -0.00315017 -0.146499 0.100114 0.26633)
(-0.339911 -0.219426 -0.165563 -0.131542 0.0692644 -0.180042 0.646226 0.23759 0.245515)
(-0.118834 -0.0275492 -0.0712299 -0.26188 -0.111055 -0.349377 1.08772 0.362936 0.184571)
(0.0294064 0.12628 0.0899216 -0.496514 -0.251865 -0.429969 1.09393 0.367932 0.165622)
(-0.0252056 0.13718 0.169978 -0.117792 -0.144927 -0.223029 0.982963 0.779015 0.253114)
(0.118056 0.149987 0.107496 -0.280388 -0.327104 -0.406176 1.07989 0.636181 0.311646)
(0.283663 0.0962725 -0.000475711 -0.29308 -0.396725 -0.485731 1.10002 0.399404 0.147885)
(0.411076 0.0187881 -0.0561389 -0.153363 -0.180799 -0.0452281 0.773774 0.174164 -0.239374)
(0.334073 -0.0078597 -0.0633951 -0.201087 0.17692 0.523351 0.317083 0.0727964 -0.469099)
(0.120953 0.101094 0.0600582 -0.576416 0.463882 0.803525 -0.252489 0.0803499 -0.499354)
(-0.0908856 0.221098 0.20077 -0.937579 0.503061 0.732941 -0.661706 0.0444699 -0.389975)
(-0.0613551 0.176785 0.118079 -0.911182 0.246921 0.282422 -0.574558 -0.160311 -0.252465)
(0.28314 0.0375652 -0.112304 -0.297731 -0.0263531 -0.106471 -0.0705649 -0.407797 -0.312489)
(0.555443 -0.102255 -0.30184 0.442018 -0.242522 -0.135048 0.380153 -0.54948 -0.35608)
(0.396329 -0.17924 -0.374713 0.616453 -0.413279 0.0407558 0.242853 -0.579514 -0.106013)
(-0.00566547 -0.186993 -0.275976 0.311521 -0.420858 0.168918 -0.279548 -0.518763 0.255938)
(-0.156108 -0.13224 0.0236673 -0.0147718 -0.292526 0.158435 -0.792654 -0.510379 0.290068)
(-0.0494227 0.0502155 0.379227 -0.0375016 -0.0803859 0.374551 -1.06189 -0.55505 0.0225818)
(-0.0511756 0.189712 0.530443 0.0278697 0.0666843 0.786638 -0.909086 -0.547166 -0.0706505)
(-0.194447 0.13721 0.39064 0.00114623 0.0385927 0.795929 -0.46115 -0.326578 0.0900139)
(-0.278667 0.0558277 0.122069 -0.0129049 0.02982 0.388661 -0.0102703 -0.00131192 0.198925)
(-0.248818 0.00941978 -0.075078 -0.286969 0.0554628 0.0777678 0.210729 0.151786 0.163171)
(-0.0871616 -0.038186 -0.179573 -0.595222 -0.00139535 -0.0377329 0.277764 0.106466 0.0669194)
(0.133736 -0.0123838 -0.321222 -0.3685 -0.0404855 -0.257815 0.402863 0.152669 -0.0732212)
(0.242077 0.054475 -0.49541 0.219179 0.0599441 -0.681078 0.684731 0.463594 -0.200698)
(0.17757 0.0176127 -0.41687 0.626771 0.203231 -0.950588 0.770726 0.673373 -0.30738)
(-0.00165535 -0.0835907 -0.00756088 0.598006 0.250627 -0.754887 0.426332 0.472655 -0.265314)
(-0.171876 -0.108894 0.327104 0.291111 0.189247 -0.322864 -0.0203791 0.0615621 -0.0468805)
(-0.229833 -0.0706284 0.32483 -0.0876777 0.0852651 -0.0429439 -0.324543 -0.252177 0.115094)
(-0.154104 -0.0156231 0.117612 -0.296775 -0.0516987 -0.0140377 -0.426347 -0.29648 0.19253)
(-0.131477 0.0181299 -0.0803767 -0.229962 -0.201766 -0.046076 -0.215331 -0.114761 0.33704)
(-0.245021 -0.0386697 -0.0936165 -0.0168039 -0.155386 -0.00855766 0.190321 0.0509099 0.42625)
(-0.323444 -0.18544 -0.0340105 0.366877 0.104481 0.0202398 0.716143 0.0721443 0.278906)
(-0.222201 -0.29241 -0.0711379 0.587895 0.306895 -0.0931282 1.16698 0.0414161 -0.0228061)
(0.15429 -0.197421 -0.0291213 0.463957 0.275862 -0.214752 0.953522 -0.00676138 -0.437585)
(0.655806 0.0647514 0.150094 0.104751 0.115274 -0.108347 0.0371319 -0.0645207 -0.769647)
(0.713437 0.336879 0.311321 -0.272075 0.0650066 0.168324 -1.04097 -0.0506308 -0.724744)
(0.112124 0.421455 0.271745 -0.687786 0.183006 0.255924 -1.75584 0.0158583 -0.242289)
(-0.478523 0.173937 -0.0189653 -0.89055 0.259234 -0.0319969 -1.54422 0.00448629 0.19339)
(-0.506172 -0.182508 -0.218531 -0.655324 0.342484 -0.271882 -0.903777 -0.0643118 0.120042)
(-0.302195 -0.331638 -0.200608 -0.250664 0.402191 -0.196385 -0.335662 -0.00149013 -0.0939184)
(-0.252433 -0.256256 -0.167677 -0.0305945 0.269726 -0.116562 0.224502 0.219009 -0.0166352)
(-0.250677 -0.0948316 -0.0865645 0.115317 0.10734 -0.128179 0.623652 0.487506 0.154797)
(-0.173249 0.0486734 0.0760318 0.104722 -0.00322941 -0.161806 0.879722 0.719618 0.217611)
(-0.110074 0.0242109 0.0672274 0.537208 -0.297759 -0.300335 0.810289 0.555033 0.398863)
(0.0247872 0.0433135 -0.0170245 0.155478 -0.0923423 -0.563142 0.841375 0.46305 0.0415501)
(0.198932 0.170509 0.0432654 -0.186235 0.0822126 -0.482945 0.431622 0.589164 -0.35971)
(0.238745 0.3192 0.189301 -0.49064 0.0870578 -0.0233375 -0.209481 0.87432 -0.377835)
(0.0654246 0.342218 0.184105 -0.797532 0.0136417 0.326158 -0.488904 0.836044 -0.129624)
(-0.0428834 0.231671 0.139973 -0.724924 0.00525146 0.361109 -0.487331 0.32263 -0.0986255)
(0.0541509 0.00818929 0.0276411 -0.0985666 -0.0061718 0.00146993 -0.00903826 -0.33883 -0.253648)
(0.353915 -0.186509 -0.160565 0.325879 -0.109896 -0.507162 0.461833 -0.808503 -0.422747)
(0.703429 -0.224021 -0.222447 0.309799 -0.150858 -0.778551 0.389734 -0.954998 -0.712799)
(0.663738 -0.193341 -0.196181 -0.242485 -0.0716072 -0.623381 0.00223132 -0.805894 -0.734477)
(0.155023 -0.152556 -0.205313 -1.21235 -0.068819 -0.211995 -0.568367 -0.500686 -0.181089)
(-0.336143 -0.0940662 -0.195853 -1.75178 -0.142597 0.173468 -1.08305 -0.40767 0.451671)
(-0.343684 0.0487761 0.0546034 -1.67067 -0.0917984 0.645822 -1.65092 -0.461088 0.553105)
(-0.0595969 0.26276 0.459227 -1.2708 0.138818 0.968933 -2.08705 -0.336964 0.0964627)
(0.0525954 0.267456 0.50947 -0.800372 0.412505 0.662702 -1.66501 -0.0419033 -0.360055)
(-0.0264574 0.0813062 0.169038 -0.388043 0.4344 0.0285575 -0.521883 0.289948 -0.409125)
(-0.256286 -0.0141054 -0.0500346 -0.298271 0.316596 -0.199989 0.366487 0.551109 -0.0715175)
(-0.421512 -0.0425828 -0.0490259 -0.580543 0.168496 -0.0493557 0.432318 0.482617 0.21918)
(-0.100777 -0.0663014 -0.174628 -0.494937 -0.144624 -0.0842565 0.209001 0.188503 0.207841)
(0.370345 -0.0410563 -0.475234 0.173035 -0.455761 -0.418154 0.278134 0.0879446 0.0364087)
(0.404673 0.00641661 -0.618637 0.658769 -0.479036 -0.61405 0.370567 0.0862275 -0.0589132)
(0.0975503 0.0097191 -0.346293 0.468273 -0.289897 -0.378919 0.134157 -0.0426816 -0.00348312)
(-0.154327 -0.0289615 0.155526 -0.091677 -0.0725012 -0.011944 -0.360535 -0.308921 0.101634)
(-0.222608 -0.0574864 0.417959 -0.454664 0.107332 0.120638 -0.785662 -0.47736 0.0939706)
(-0.206383 -0.0859777 0.328985 -0.6177 0.185519 0.0740777 -0.912825 -0.352834 0.0290829)
(-0.0873608 -0.105034 0.149617 -0.65224 0.0318755 -0.0331709 -0.794064 -0.175437 0.0597527)
(0.034987 -0.0209245 0.0178467 -0.477058 -0.240092 -0.160136 -0.370199 -0.167849 0.181532)
(0.0581105 0.101695 -0.0344195 -0.1122 -0.217961 -0.201547 0.176995 -0.259936 0.128774)
(-0.0553135 0.0245732 -0.0655554 0.48008 0.138389 -0.020654 0.592018 -0.308697 -0.110996)
(-0.221074 -0.210468 -0.128857 0.792764 0.38579 0.31543 0.715066 -0.201792 -0.224166)
(-0.188001 -0.267431 -0.042325 0.73231 0.408752 0.477686 0.396952 0.0470984 -0.276069)
(0.0660166 -0.007424 0.187205 0.341472 0.311702 0.436197 -0.28743 0.258193 -0.425752)
(0.192312 0.346593 0.273578 -0.578046 0.203789 0.265048 -0.822525 0.254442 -0.41978)
(0.0228698 0.416538 0.100268 -1.27509 0.174268 -0.0934565 -0.855093 -0.0118954 -0.198639)
(-0.172715 0.165209 -0.12088 -1.24436 0.21915 -0.288637 -0.568731 -0.24409 -0.0679791)
(-0.225789 -0.143326 -0.118337 -0.893587 0.37596 -0.0791329 -0.531173 -0.25963 -0.187759)
(-0.212725 -0.369835 -0.066536 -0.578214 0.318877 0.192894 -0.395049 -0.180521 -0.161911)
(-0.143749 -0.374402 -0.13068 -0.280732 -0.0349493 0.224601 -0.091673 -0.00599081 0.135027)
(-0.0612411 -0.174036 -0.0958914 0.27899 -0.244136 0.103905 0.113657 0.290869 0.329478)
(-0.108904 -0.0105065 0.0398819 0.702198 -0.31958 -0.0479231 0.488638 0.542797 0.435485)
(-0.2885 0.23313 -0.0802177 0.164007 -0.153773 -0.176933 -0.317544 0.547404 0.424972)
(-0.228615 0.317908 0.0108051 0.848194 0.0323785 -0.214914 -0.171507 0.469178 0.228256)
(-0.0260843 0.186889 0.255845 1.35518 0.0284711 0.0992041 0.20091 0.4018 0.0181832)
(0.109638 0.0140602 0.344417 0.803122 -0.10718 0.06147 0.64583 0.348476 0.0137592)