/*--------------------------------*- C++ -*----------------------------------*\
  =========                 |
  \\      /  F ield         | OpenFOAM: The Open Source CFD Toolbox
   \\    /   O peration     | Website:  https://openfoam.org
    \\  /    A nd           | Version:  10
     \\/     M anipulation  |
\*---------------------------------------------------------------------------*/
FoamFile
{
    format      ascii;
    class       surfaceScalarField;
    location    "9";
    object      phi;
}
// * * * * * * * * * * * * * * * * * * * * * * * * * * * * * * * * * * * * * //

dimensions      [0 3 -1 0 0 0 0];

internalField   nonuniform List<scalar> 
300480
(
6.78147e-05
9.71761e-07
3.98396e-05
8.43181e-05
-1.38584e-05
5.25802e-05
8.565e-05
-1.77106e-05
4.16367e-05
8.58795e-05
5.67906e-06
1.94164e-05
6.43974e-05
4.08703e-05
3.63088e-05
6.59123e-05
-1.07409e-05
4.31807e-05
8.86052e-05
-2.56498e-05
3.28047e-05
7.03229e-05
2.38237e-05
3.56681e-05
5.31766e-05
-7.76914e-07
4.83567e-05
6.31371e-05
-3.51671e-06
5.57454e-05
8.65561e-05
-1.55215e-05
2.45288e-05
8.68687e-05
2.97604e-06
3.42033e-05
6.71247e-05
2.14985e-05
5.58503e-05
7.30185e-05
-1.27175e-05
4.75056e-05
8.50693e-05
-3.09129e-05
5.11613e-05
7.04354e-05
5.06169e-05
7.5761e-06
6.62735e-05
2.14057e-05
3.74739e-05
7.05081e-05
-2.07462e-05
2.01315e-05
8.14403e-05
-4.6761e-06
3.80208e-05
9.17503e-05
8.07021e-06
5.34312e-05
8.86941e-05
-1.82086e-05
3.98796e-05
8.26399e-05
-3.03709e-05
5.53104e-05
7.88099e-05
-1.51799e-06
2.9819e-05
8.70764e-05
5.48168e-06
8.35222e-06
8.13713e-05
-1.04882e-05
3.12455e-05
8.26199e-05
2.81907e-06
3.66899e-05
7.88173e-05
2.36683e-05
2.32343e-05
7.90513e-05
9.10664e-06
2.82538e-05
9.38106e-05
-2.52792e-06
2.36983e-05
8.07803e-05
1.04913e-05
5.41983e-05
5.49596e-05
1.51428e-05
3.72452e-05
6.27394e-05
1.33974e-05
3.04146e-05
8.66897e-05
-2.6297e-05
3.28295e-05
7.77668e-05
2.39691e-05
1.19795e-05
7.85801e-05
7.53381e-06
2.56757e-05
6.99126e-05
3.04211e-05
4.73099e-05
5.9898e-05
1.89804e-05
1.25913e-05
7.25232e-05
-2.44194e-05
4.5126e-05
7.06255e-05
2.00425e-05
1.33254e-05
4.2203e-05
7.3057e-06
0.00012324
-7.05039e-07
-1.02007e-05
0.000146756
-1.03462e-05
6.88237e-06
6.47853e-05
7.15931e-05
1.40195e-05
3.48867e-05
-2.10461e-05
5.3131e-06
2.99757e-06
8.49493e-05
1.28302e-05
-1.00788e-05
-4.82638e-05
5.08492e-05
6.36959e-05
-0.000106552
-1.06231e-05
4.63813e-06
8.45493e-05
-1.13952e-05
2.47818e-05
-2.58116e-05
7.6154e-05
9.34117e-05
-9.50116e-05
0.000109343
7.86589e-05
4.16733e-05
-9.4902e-06
8.58275e-05
-1.00417e-05
-2.16688e-06
4.4753e-05
7.71499e-05
4.62735e-05
3.84787e-05
-4.7263e-05
4.12124e-05
9.14031e-05
-0.000152143
3.47438e-05
0.000101896
9.23816e-05
-5.62678e-05
0.000111869
3.16734e-05
-2.79387e-06
0.000107658
-2.67014e-05
-3.38008e-05
0.00014677
-4.14013e-05
-2.38393e-06
0.000142414
4.30986e-05
3.91182e-05
0.000118889
-2.25301e-05
-6.26229e-06
0.000141033
-5.89291e-05
1.91885e-05
0.000134258
-3.06066e-05
-4.56741e-06
0.00015422
-3.5433e-05
-1.52983e-05
0.000123231
3.10343e-05
-2.40734e-05
0.000111286
1.41329e-05
-4.65626e-06
0.000100481
6.39681e-05
-2.14532e-05
8.12041e-05
4.22037e-05
-1.55376e-05
9.54138e-05
-7.27894e-06
-3.23143e-05
0.000117672
8.86422e-06
5.73408e-07
8.47632e-05
-1.069e-05
4.82488e-05
4.63808e-05
5.43465e-05
3.68966e-06
7.32275e-05
-8.38226e-05
-2.99223e-05
7.98989e-05
2.08509e-05
-5.38796e-05
0.000118666
-6.07928e-06
-2.75896e-05
0.000125267
4.95142e-05
2.74989e-05
7.23283e-05
0.000111336
-1.39828e-05
7.57181e-05
-1.92093e-07
-2.0934e-05
0.000101532
-9.9035e-06
-1.56246e-05
9.95049e-05
-6.70096e-05
0.00011677
-2.32296e-06
1.56583e-05
0.00014677
2.70096e-05
9.53393e-06
-1.29626e-05
0.000212994
4.7065e-05
-5.05201e-05
-5.4505e-05
6.12137e-05
-1.3357e-05
7.37758e-05
-2.90985e-05
-6.5036e-05
-0.000123516
3.80872e-05
-0.000104816
-7.24791e-05
-2.62759e-05
-0.000149233
0.000118629
1.20032e-05
3.23391e-05
-0.000196591
1.66392e-05
0.000123749
-0.000212417
2.85435e-05
-1.79143e-05
0.000195286
-2.35538e-05
-4.41186e-05
-8.71403e-06
4.95166e-05
-6.10021e-05
0.000159551
3.31315e-06
-0.000106686
-0.000133182
4.54985e-05
-8.24815e-06
-0.000333717
5.2525e-05
9.95623e-05
5.35273e-05
-3.97566e-05
8.68976e-05
4.90681e-05
1.46543e-05
7.80711e-05
-7.64322e-05
1.39695e-05
0.000152312
-0.000100537
-1.71917e-05
0.000104262
0.000111925
2.53428e-05
3.94659e-05
1.58594e-05
-1.48668e-05
9.55902e-05
-6.39975e-05
-4.01534e-05
0.000112779
-6.58925e-05
-3.43389e-05
0.00015364
-3.3543e-05
1.17944e-05
0.000133678
9.72825e-05
-4.09887e-06
0.000118878
1.84e-05
3.36734e-05
0.000104228
0.000124173
-1.54141e-05
4.03166e-05
0.000100876
-2.25546e-05
-2.49687e-05
5.10207e-05
-1.90817e-05
2.79479e-05
-2.43346e-05
1.347e-05
6.9156e-05
-0.000102883
0.000123426
3.61447e-05
5.73483e-05
1.71003e-05
1.1848e-05
-0.000125175
-5.39154e-05
3.53033e-05
-3.30072e-05
-5.5435e-05
9.54369e-05
-4.27423e-05
-1.31649e-05
0.000131633
3.79466e-05
2.44714e-05
5.73394e-05
0.000254978
2.6341e-05
1.85131e-05
8.38735e-06
-9.12759e-06
8.89384e-05
-9.79522e-05
2.53781e-05
0.000163876
-5.12826e-05
1.84547e-05
-7.48566e-05
1.11069e-05
0.000156249
-6.57571e-05
2.54498e-05
7.07759e-05
0.000220443
1.69804e-05
-3.56015e-05
-2.31968e-05
9.44817e-05
1.08365e-05
3.82147e-05
-2.43252e-05
3.66717e-05
-0.000265721
-4.36348e-07
-4.50654e-05
-4.03279e-05
-5.26143e-05
-6.06655e-05
0.000143218
-1.53058e-05
0.00010286
-0.000360397
-5.12164e-07
8.74682e-05
-0.000236303
-7.64834e-05
-5.02906e-05
0.000270273
-5.34178e-05
-9.64044e-05
2.14165e-06
7.80586e-05
-8.54394e-05
0.000184856
3.42191e-05
-0.000143685
-0.000129843
-6.56788e-06
-3.92645e-05
-0.000452856
1.19541e-05
0.000122259
-4.39129e-05
-5.32034e-05
4.91856e-06
0.000117276
2.46692e-05
-5.5404e-05
-0.000150564
3.25722e-05
7.44124e-05
-0.000232085
-1.24295e-05
7.41715e-05
0.000119329
6.254e-06
-5.84929e-06
6.19116e-05
-2.82721e-05
-2.78268e-05
-0.000102532
-4.37942e-05
3.19415e-05
-7.96926e-05
-8.96728e-05
0.000128697
-4.11358e-05
5.2973e-05
0.000164383
8.73634e-05
-5.64504e-06
0.000173402
4.66544e-05
3.89874e-05
0.000115017
0.000260531
-7.54317e-05
-1.62646e-05
0.000257784
-7.55109e-05
-7.02359e-05
9.1591e-05
-2.06058e-05
-4.13877e-06
-9.94923e-05
4.36955e-05
2.74624e-05
-0.000175839
5.54525e-05
6.6417e-05
-4.60573e-05
3.9399e-06
-4.50661e-05
-6.08065e-05
-2.70716e-05
-0.000100876
-5.76023e-05
1.06394e-06
2.15322e-05
-0.000154625
7.10921e-05
0.000150763
-7.95301e-05
1.8731e-06
8.36714e-05
0.000404067
5.98689e-06
2.68843e-06
5.42536e-05
3.92656e-05
6.13185e-05
-0.000150596
2.56472e-05
0.000289171
-3.65482e-05
-8.19271e-05
-0.000102253
3.92886e-05
6.77134e-05
-0.000213551
-2.99117e-05
0.000132783
9.43991e-05
-5.87982e-05
-8.35051e-05
0.000195517
-3.5407e-05
-7.57214e-05
0.000124554
-8.71733e-05
5.9749e-05
-0.000462733
4.19242e-06
0.000115637
-0.000147701
-7.94241e-05
0.000157626
7.33764e-05
-4.62704e-05
0.00012942
-0.000271293
-1.00284e-05
4.20135e-05
-0.000215288
-0.000117125
1.37662e-07
0.000223935
-0.000105167
-7.26356e-05
9.74315e-05
2.25301e-05
-7.14616e-05
0.000128847
7.74175e-05
-6.85718e-05
-0.000139278
-2.58442e-05
-5.95422e-05
-0.000412341
-2.31656e-05
6.4164e-05
-0.000108145
-5.38987e-05
-2.8679e-05
0.0002402
-4.6274e-05
-0.000142186
-0.000113908
2.63433e-05
-3.27738e-06
-0.000324511
-1.19786e-05
6.45408e-05
8.05772e-05
-3.76878e-05
-4.20307e-05
0.000223083
-7.86812e-05
-0.000136725
-7.46078e-05
-1.66692e-06
-4.10071e-05
-0.000116392
-3.78231e-05
7.35468e-05
-0.000115153
5.84583e-05
0.000140251
0.000101913
-6.71886e-05
0.000121717
0.000204375
-4.49288e-05
9.89586e-05
0.000271198
-0.000125001
4.90215e-05
0.000344685
-8.74323e-06
4.96065e-06
7.08397e-05
-2.55137e-05
-2.76532e-05
-9.30311e-05
3.32787e-05
-2.25746e-05
-0.000287918
5.49519e-06
5.79762e-05
-0.000181849
-3.45033e-05
-6.46067e-05
0.000132396
-8.25217e-08
-9.41168e-05
-0.000147917
4.4339e-05
1.93958e-05
-0.000272435
0.000127567
0.000160401
-0.000187575
-8.29959e-06
0.000111532
0.000514551
-4.78719e-05
5.88985e-05
0.000102052
1.20105e-05
5.53232e-05
-0.000166845
-1.61491e-05
0.000450108
-5.85531e-05
-0.000117246
6.82164e-06
7.0605e-05
1.15159e-05
-0.000392046
-4.82597e-05
0.000104784
-5.20439e-05
-5.53162e-05
-0.000171192
0.000490654
-7.34209e-05
-6.67433e-05
3.36367e-05
-0.000125424
5.00502e-05
-0.000514458
-3.69507e-05
4.50666e-06
-8.60375e-05
4.50083e-05
5.53122e-05
-0.000103437
6.07526e-05
1.96172e-05
-0.000102855
-8.05127e-05
-3.75361e-05
-0.000263256
-9.01119e-05
-7.10811e-05
0.000270479
-0.000113548
-5.47939e-05
0.000107058
-1.11858e-05
8.53401e-06
0.000108057
-1.25422e-05
-3.8741e-05
-6.15213e-05
-6.07479e-05
-5.83343e-05
-0.000377305
-5.50653e-05
2.94108e-06
-0.000146289
-3.39321e-05
-0.000122182
0.000495071
-0.000100604
-0.000145239
-0.00022602
4.1008e-05
-2.10919e-05
-0.000359881
-9.66419e-05
-4.91733e-05
5.11531e-05
-5.31927e-05
-0.000134652
0.000327819
-3.11311e-05
-0.000190163
5.5559e-05
-4.33251e-05
-0.000142849
-0.000188688
-5.08118e-05
-1.63801e-05
-0.000185849
-7.4627e-06
0.000101072
7.51615e-05
-0.000136446
6.31334e-05
0.000364715
-7.05794e-05
5.94311e-05
0.000244688
1.8158e-06
6.52054e-05
0.000358695
5.98379e-05
-9.78311e-07
2.60174e-05
-5.34293e-05
-2.15391e-05
-5.44936e-05
-3.40265e-05
3.58113e-05
-0.000364629
-4.80508e-05
0.000120142
-0.0002984
-6.41995e-05
6.98119e-05
0.000284631
-6.41391e-06
-1.6589e-06
-2.58139e-05
-9.27425e-05
-7.59625e-06
-0.000184993
-1.34148e-05
8.28686e-05
-0.000297271
-3.68076e-05
4.08229e-05
0.000612096
-7.2619e-05
-5.21388e-05
0.000113425
-1.62597e-05
-3.4936e-05
-0.00020546
-5.22685e-05
0.000437063
-1.55716e-05
-6.22452e-05
5.96724e-05
3.05569e-05
-0.000101444
-0.000424707
-5.31969e-05
-0.000347129
0.000155319
-0.000116486
-0.000180769
0.000191216
-3.8099e-06
9.83143e-05
-0.000260704
-2.36666e-05
1.59268e-06
-0.000265186
-0.000152235
-7.15143e-05
-9.12688e-05
0.000115541
-1.57072e-05
-0.000261506
7.30638e-05
-1.89611e-05
7.34382e-06
-0.000150304
-0.000107519
-0.000265111
-0.000109558
-0.000126598
0.000296887
-2.91272e-05
-7.43539e-05
0.000126932
-0.000102541
3.68198e-05
0.000125951
-4.54074e-05
2.77743e-05
-5.41198e-06
1.87148e-05
-1.74109e-05
-0.000332112
-8.75566e-05
6.9159e-05
-0.000133816
-0.000104046
7.87768e-05
0.000523146
-5.82025e-05
-5.40946e-05
-0.00021006
-2.4343e-05
-0.000105861
-0.000262313
-8.33546e-05
-0.000116439
-4.93013e-06
1.4454e-05
-0.000153351
0.000254873
-3.42674e-05
-0.000128862
-8.73517e-07
3.40765e-05
-8.69305e-05
-0.00025134
-3.47236e-05
-2.77928e-06
-0.000249304
4.4435e-05
0.000110481
5.61958e-05
-0.000137094
0.00014087
0.000342838
-1.71543e-05
0.000106828
0.000313671
9.6858e-05
9.00483e-05
0.000393732
5.36352e-06
0.000132795
-0.000118643
-9.77345e-05
0.000173161
-0.000150238
-6.811e-05
3.03463e-05
-0.000286679
1.15661e-05
-4.49996e-05
-0.000230276
2.24558e-06
3.3946e-05
0.000241313
-9.03122e-05
1.10592e-06
5.31645e-05
-0.000100943
-4.21265e-05
-0.000132903
-0.00011138
-3.12424e-07
-0.000385998
-8.70812e-05
2.15838e-05
0.000514317
-0.000126088
8.80552e-06
8.39389e-06
-8.76612e-05
-1.35548e-05
-0.000246512
-4.52791e-05
0.000482915
1.77917e-05
0.000103036
-5.62243e-05
8.62637e-05
2.61211e-05
-0.000401373
-1.21001e-05
-0.000223707
0.000380934
-0.000140191
-0.000131578
-2.17297e-05
1.81993e-05
0.000151008
-0.000578121
8.05066e-05
0.00014875
-0.000219466
5.00727e-05
5.72556e-05
-1.71662e-05
-4.02703e-05
-3.32954e-05
-0.000178205
8.68918e-05
-8.17529e-05
0.000153302
-0.000148837
-7.19037e-05
-0.000238099
-3.20291e-05
-7.8615e-05
0.000182608
-3.52956e-05
-5.74019e-05
2.88186e-05
-3.32286e-05
9.32508e-05
5.14395e-05
-0.000100121
6.80679e-05
6.615e-05
4.93913e-05
-0.000118259
-6.79744e-05
-5.90139e-05
-4.92945e-05
-8.96413e-05
-9.91693e-05
0.000111243
0.00031436
-4.82949e-05
-3.88785e-05
3.66629e-05
-0.000160053
2.00101e-05
-0.00033385
-0.000114841
0.00011594
-0.000218349
0.000224693
-2.41285e-05
0.00031146
-1.61025e-07
-4.57046e-05
-6.64029e-05
1.93969e-05
4.21101e-05
-0.000359976
3.14442e-05
0.000118727
-0.000336944
-0.000106947
6.71976e-05
0.000267662
-0.00017706
0.000143733
0.000333904
3.53544e-05
0.000154897
0.000342563
9.43678e-06
0.00011535
0.000472293
-4.26209e-05
0.000145018
-8.38817e-05
-0.000113152
0.000184086
-0.000193629
-0.00011418
3.15197e-05
-0.000213461
-3.23377e-05
-0.000154151
7.2729e-05
-3.71777e-05
7.82953e-06
0.000130096
-4.82571e-05
4.61985e-05
9.64683e-05
-1.94656e-05
-7.50019e-05
-3.81925e-05
-4.72457e-05
-1.24955e-07
-0.000506343
1.75907e-05
0.000165833
0.000176129
-1.11306e-05
0.000147236
-9.32012e-05
-4.69871e-05
6.28168e-05
-0.000134282
-7.77081e-05
0.000383383
3.11835e-05
9.80979e-05
-8.38435e-05
2.94182e-05
8.66837e-05
-0.000434134
5.82688e-06
0.000106395
0.000372259
4.77108e-05
4.11763e-05
-0.000107755
0.000152399
-4.44672e-05
-0.000547377
8.26724e-05
5.77363e-06
-0.000215552
1.87658e-05
1.7089e-05
1.05358e-05
-1.04774e-05
-0.000137104
6.04064e-05
-8.32512e-05
-5.31808e-05
0.00013849
-0.000126149
3.00926e-05
-0.000282713
2.82776e-05
-0.000203393
0.00020756
-0.000107477
-0.000162735
-0.000176317
1.72809e-06
0.000130275
-0.00010249
-5.63691e-05
1.13991e-05
0.000172813
4.85719e-05
-0.000178797
0.000226258
-1.01748e-05
-0.000184792
-0.000152335
-5.35932e-05
4.3102e-05
7.2325e-05
-0.000136264
8.95273e-05
0.000119834
-0.000249503
-3.48268e-05
-0.000159228
-4.27859e-05
-2.84161e-05
-0.000234521
1.19607e-05
5.09836e-05
0.000205095
-6.01412e-05
-9.87471e-06
3.19585e-05
-5.26059e-05
-6.3345e-05
-0.000241076
1.71721e-05
-6.28184e-05
-0.000266442
-0.000164206
-7.78055e-05
0.000461268
-0.000218189
0.000138104
0.000251967
-1.10286e-05
0.000200767
0.000286747
-0.000110762
0.000163499
0.000374678
2.86263e-05
5.69129e-05
-2.75059e-05
1.45126e-05
-4.47927e-05
-3.84696e-05
2.44194e-05
-5.68617e-05
-0.000180512
-9.13302e-05
-2.47614e-05
0.000239184
-0.000191458
3.65858e-05
0.000116944
2.23591e-05
5.93629e-06
0.000159503
2.72172e-05
-2.46331e-05
-0.000112134
-7.57753e-05
4.70794e-05
-0.000580666
8.62282e-05
5.23262e-05
5.5429e-05
-8.86739e-05
-9.17234e-05
-9.26329e-05
-5.19193e-05
-1.24608e-05
-0.000161933
-0.000138383
0.000105129
-4.53176e-05
-5.76596e-05
0.00011295
-5.12806e-05
-0.000144891
-0.000254166
-0.000110089
-6.66446e-05
0.000275892
-8.11058e-06
-0.000132298
-3.60776e-05
-0.000100807
-0.00025559
-0.000289619
-0.000138406
-5.74431e-05
-6.33223e-05
-0.000224573
1.74969e-06
1.7455e-05
3.90386e-05
-0.000165131
0.000302286
-8.33571e-05
-5.60426e-05
-2.18767e-05
4.1032e-05
-0.000188363
-0.000134162
-3.2285e-06
-0.000378869
0.000237952
-7.92912e-05
-0.000182154
-0.00025902
-5.29542e-05
4.84497e-05
-0.000326972
-0.000103039
7.21314e-05
0.000136532
-2.39093e-05
4.15363e-05
0.000311683
-4.44834e-05
2.18482e-05
-0.0001069
-0.000113111
7.02633e-05
4.91819e-05
-2.97788e-05
-2.82754e-05
0.000311532
-0.000107346
-0.000140697
2.33455e-05
5.26118e-05
-4.4835e-05
-0.000240302
-4.2168e-05
8.02323e-05
0.000249128
-9.85056e-05
-0.000118371
0.000494255
-0.000134038
-0.00021099
-0.000177881
-5.45223e-05
-0.000148833
-0.000295712
-0.000114927
-0.000220808
0.000542526
7.12702e-05
-0.00020262
0.000406828
-0.000106379
-4.43882e-05
0.000104608
-0.000170127
0.00028975
-8.89055e-05
9.66674e-05
0.000369377
-0.000236538
2.13155e-06
-4.24828e-05
0.000326502
-4.70197e-06
-0.000315574
2.08308e-05
-5.33727e-06
-0.000121365
0.000236035
-0.000137124
0.000122668
-5.05349e-05
-0.000114078
0.000340517
-9.97336e-05
6.75075e-05
0.000248611
4.15328e-06
-1.94282e-05
0.00020002
-0.000333577
1.33528e-05
0.000131422
3.87595e-05
-0.000104069
-8.73293e-05
1.61979e-07
-7.9278e-05
9.10612e-05
-0.000471781
-0.000119831
-9.22769e-05
-7.48123e-06
-1.80971e-05
0.000171974
3.2754e-05
-0.00022683
-4.83866e-05
-0.000105778
-0.000156499
0.000103561
-3.41058e-05
-0.00016284
3.34115e-06
-6.71526e-05
-0.000121319
-0.000261838
7.66127e-05
6.27243e-05
3.10497e-05
-0.000116452
7.615e-05
-6.01451e-05
-9.491e-05
-0.000129809
0.000512511
-0.00012297
4.48668e-05
-0.000333566
-7.89412e-05
0.000103757
-0.000107669
4.39257e-05
-0.000171334
0.000432179
-8.98642e-05
-1.83539e-05
-0.000276222
4.59636e-05
-3.94327e-06
-0.000448574
4.88444e-06
1.2411e-06
2.34557e-05
4.93526e-05
3.23124e-05
0.000335682
-7.63506e-06
-4.35188e-05
4.88375e-05
-0.00013196
-4.89232e-05
0.000283479
-0.000101106
-0.000131808
0.000292594
-1.24809e-05
-1.30201e-05
1.78057e-05
-2.64778e-05
8.65407e-05
-0.000235636
-7.99356e-05
3.80215e-05
0.000415382
4.25936e-05
-0.000156385
0.000775844
-0.00014466
-0.000135435
-0.000151414
-0.000170306
-0.000144566
-0.000342271
-3.02931e-06
-0.000119511
0.000500428
0.000121192
-7.89822e-05
0.000500982
-6.6141e-05
6.63682e-05
-0.000148758
-9.4349e-05
0.00022867
-0.000373659
0.000103774
3.38435e-06
-8.38183e-06
-8.87542e-05
-0.00031397
0.00072839
-0.000100876
-0.000379824
-1.29239e-05
-7.18673e-05
-9.06406e-05
-8.71325e-05
5.57823e-06
0.000164235
-0.000263414
-0.000219964
0.000258116
-0.000132665
-0.000134495
0.000176374
8.9788e-05
-3.94687e-06
9.61594e-05
-8.61011e-05
8.81529e-05
0.000211893
6.6949e-05
-0.000127115
0.000263392
-0.000112086
-1.13702e-05
0.00018913
-0.000379177
-2.15029e-05
-0.000168548
1.97284e-05
-6.47852e-06
0.000227698
-5.00269e-06
-0.000341557
0.000201888
5.43635e-06
-0.000226377
-8.98711e-05
-8.17138e-05
-9.07973e-05
-0.000132482
-0.000175911
-2.71025e-05
-0.000152696
3.58636e-05
0.000101422
-0.000121329
-6.11559e-06
0.000164035
-0.000230663
-3.04581e-05
-5.88409e-05
0.000746149
-0.000115907
4.98647e-05
-0.000512946
-0.000105163
0.000348881
-0.00013193
-1.6606e-05
9.0391e-05
0.000606505
-9.54256e-05
8.38219e-06
-0.000332757
-0.00013337
0.000177968
-0.000688147
1.35529e-05
8.7305e-05
0.000106622
-4.12331e-05
5.5264e-05
0.000418683
-5.63875e-05
-5.73608e-05
0.000115374
-9.22978e-05
-5.21581e-05
0.000229121
2.97667e-05
9.26763e-06
-6.03608e-05
0.000131279
-5.03317e-05
0.000220805
-0.000208868
6.84144e-05
-0.000263287
-0.000242533
0.000109232
0.000385252
1.13815e-05
-4.64322e-05
0.00083116
3.48741e-05
-5.35647e-05
-4.43027e-05
-0.000107232
-0.000175583
-0.000431805
0.000219417
-6.31161e-05
0.000194917
-2.61295e-05
0.000291095
0.000416664
-0.000249961
0.000319279
-0.000340347
-3.95376e-05
0.000105352
-2.39744e-05
-0.000123996
-3.19268e-05
0.000267807
-0.000132614
2.50089e-05
0.000706112
-0.000127486
0.000101939
-3.17345e-05
9.30227e-05
0.000108249
-0.000307928
4.11317e-05
7.7861e-05
7.21288e-05
-0.000397971
-0.00010874
0.000150243
-0.000280431
-0.000131413
3.28585e-05
7.68123e-05
8.59634e-05
-0.000125286
8.22182e-05
0.000198355
6.74645e-06
-0.000101675
-2.25955e-05
0.000168943
1.23243e-06
-0.000141795
-0.000204984
0.000146219
-0.000365099
2.18444e-05
-0.000176899
0.000274744
-1.0853e-05
-0.000202205
5.06779e-05
1.98313e-05
-0.000219379
-0.000178243
-0.000144057
-0.000161562
-0.000101151
-2.1792e-05
3.44392e-05
-0.000316658
5.39853e-05
6.52227e-05
-0.00031134
-0.000169429
-4.73658e-05
6.67442e-05
-0.00023362
8.91327e-05
0.000585424
2.7602e-06
3.95881e-05
-0.000424797
-5.25956e-05
-9.21913e-06
-1.20006e-05
9.10601e-05
-5.84835e-05
0.000673714
-8.88186e-05
-0.00014475
-0.000258218
-0.000209233
-1.59447e-05
-0.000605903
-0.000121625
-0.000119161
0.000341511
-0.000173526
-4.70495e-05
0.000431736
-2.81079e-05
0.000163276
7.73791e-05
-3.61378e-05
8.85756e-05
0.000231738
8.96733e-05
-0.000234804
0.000149192
-0.000102617
-0.000349599
0.000293447
-0.000118293
-0.000103486
-0.000316871
-0.000119534
-0.000122011
0.000211513
-9.81471e-05
-8.93646e-05
0.000670274
-3.06102e-05
6.85087e-05
-0.000129308
-0.000180378
-0.000210388
-0.000205217
-7.99017e-06
-0.000292555
0.000317777
-9.96701e-05
-3.00242e-05
0.000309418
-0.000222156
4.42812e-05
-0.000338526
-0.000211751
4.48339e-05
8.20588e-05
-0.00015281
0.000196376
0.000228951
-0.000146621
2.48892e-05
0.000978758
1.35421e-05
4.34633e-05
-3.88893e-05
-4.57034e-05
4.33568e-05
-0.000261997
-0.000172044
-2.73309e-05
0.000402797
-0.00035248
-4.11629e-05
0.000286647
-0.00023241
-9.85729e-05
0.000206671
-4.75636e-06
1.7172e-05
4.85881e-05
-0.000339348
0.000123479
9.29868e-05
-0.000286227
-0.000100138
0.000575832
7.00561e-05
-0.000116332
-9.37353e-05
-0.000200973
-9.8441e-05
-0.000175443
5.09367e-05
0.000497464
-0.000217355
3.38105e-06
-2.03824e-05
9.25822e-06
-1.52295e-05
-0.000156342
-0.000361946
7.92406e-05
0.000105279
-9.08648e-05
-3.27503e-05
-0.000111382
-3.6279e-05
-0.000139365
-0.000281736
-0.000370007
-2.85653e-05
-0.000247252
-8.85289e-05
0.000118187
0.000597716
3.1862e-05
-0.000152774
-0.000386382
7.9693e-05
-9.95329e-05
0.000176492
-0.0003367
8.44465e-05
0.00056269
6.28597e-05
2.67233e-05
-0.000185689
-0.000105401
-0.000146954
-0.000306998
-0.000121428
-0.000282965
0.000479157
-0.000152646
-1.83973e-05
0.000410685
-0.000130222
-3.70239e-05
0.000335275
-0.000235265
-0.000251306
0.000309761
-4.81679e-06
-0.000380395
0.000339519
-4.47476e-05
-0.000366554
6.02055e-05
4.62217e-05
-0.000268842
-0.000273495
-0.000230097
-0.000266055
6.47477e-05
-4.72126e-05
-0.000258341
0.000660018
-0.000198061
4.92146e-06
-0.000251279
-0.000247784
-0.000196342
-0.000113086
5.1904e-05
-0.000145751
0.00018015
5.13508e-05
0.000171119
-0.000224335
-0.000125494
-6.62667e-05
-0.000149225
-0.000195175
-0.000176418
2.8381e-05
-0.00021801
0.000161129
8.97254e-05
-0.000295289
0.000361085
0.000687921
-2.7001e-05
0.000127235
0.000112529
-4.5526e-06
-5.63782e-05
-8.52093e-05
-0.000100591
0.000116389
0.000217904
-1.7775e-05
5.44412e-05
0.000379992
-0.000133823
-5.41491e-06
0.000468543
8.60133e-05
-1.44622e-05
-0.000169175
-0.000193976
-3.84616e-05
0.000377154
-0.000327444
-0.000144451
0.000812143
-0.000273921
1.06607e-05
-0.000311359
-0.000173075
2.40934e-05
-0.00026905
0.000245427
5.45185e-05
6.64209e-06
0.000287092
-0.000222568
0.000137993
0.000171243
0.000100752
-0.000162237
3.74151e-05
0.000119341
-1.74917e-05
-0.000157101
6.54801e-05
-0.000238382
0.000112644
-0.000629368
-0.000257761
0.000171434
-0.000665061
3.17375e-05
0.000291295
0.000714102
1.90416e-05
5.06006e-05
2.67448e-05
9.76751e-05
-6.13013e-06
0.000224265
-0.000171129
0.000384617
0.000270241
-0.000100103
0.000194441
-0.000150732
0.000162602
-0.000118597
-0.000193754
-0.000247355
-0.000343526
0.00039548
-0.000186916
-0.000231389
0.000158035
-8.5921e-06
0.000127591
-3.71846e-05
-0.000292956
0.000160726
0.000162591
-9.71264e-05
2.32524e-05
0.000441039
-9.49429e-05
3.6221e-06
8.86183e-05
-4.78105e-05
-5.55471e-05
-0.000167686
-0.000211259
-9.68399e-05
0.000101448
-7.15527e-05
-0.000149747
0.000551644
-2.86218e-06
-0.000128395
-8.8327e-05
-9.05321e-05
-0.000185357
4.8982e-06
8.23453e-05
-2.71598e-05
-0.000138416
-5.4006e-05
0.000225983
-0.000347675
-0.00030926
6.22361e-05
-3.75727e-05
-0.00020728
-5.37237e-05
0.000193155
-0.000311554
4.65143e-06
0.000178722
-0.000197272
0.000244548
0.000590382
-0.000205602
0.000218328
-7.57441e-07
-0.000146025
-0.000146418
0.000245269
-5.82103e-05
3.62028e-05
-8.22389e-05
0.000112399
0.000133109
0.000196142
-0.000176503
-6.31183e-06
0.000734219
-0.000182478
-0.00027397
-0.000316951
9.08005e-05
-0.000311191
0.000414073
-0.000253976
9.26598e-06
0.000766257
-0.000222914
-9.80996e-05
-0.000120471
-0.000103281
0.000196725
1.04437e-05
-2.67076e-05
-5.11522e-05
-8.87852e-05
7.27152e-05
-4.11864e-05
-7.61444e-05
0.000109236
0.000212605
-5.29312e-05
0.000343211
9.83361e-05
-6.96864e-05
0.000360475
-2.32952e-05
-0.000115001
0.000129186
-0.000355059
-3.17085e-06
9.57909e-05
-0.000473573
-0.000219493
0.000241245
0.000523019
-1.86998e-05
4.51443e-05
0.00034057
-3.27115e-05
-1.77337e-05
8.51244e-05
-8.90718e-05
0.000360866
0.000109116
-0.000328664
0.000182247
0.000169767
-0.000295868
-6.63378e-05
0.000192555
-0.000314534
0.00012183
4.16908e-05
-0.00010061
0.000100444
2.00457e-05
1.34502e-05
-0.000123823
3.58798e-05
5.52627e-07
-2.73073e-05
-7.28795e-05
-0.00020969
6.65485e-05
0.000244539
-0.000156754
8.14807e-05
0.000263208
-0.000219943
-4.31895e-05
-3.13997e-05
-0.000150253
-0.000188794
9.09832e-05
-2.66026e-05
-0.000116202
0.000397882
-7.08167e-05
-0.000216964
2.03619e-05
-5.18154e-05
-0.000139942
1.92273e-05
-0.000169125
-0.000117226
-1.18101e-05
-5.16396e-06
-0.00023853
5.09434e-05
-0.000430724
-0.000176486
0.000206566
-0.000356622
-0.000310314
0.000246706
4.02337e-05
-0.00026933
0.00014423
3.41525e-05
-2.48876e-07
0.000155871
0.000308276
-0.000113416
-5.81451e-06
-0.000149403
-0.000107734
0.000379945
-4.59486e-05
-0.000128684
-0.000114699
-5.27069e-05
-0.000133104
0.000205926
-6.30463e-05
5.94231e-06
0.000568234
-0.000138995
-0.00039791
-1.3311e-06
-0.000151711
-0.000201903
3.17761e-06
-0.000121717
0.000182849
0.000581532
-0.000165989
-8.86887e-05
0.000160178
-0.000134901
0.000125291
-1.64395e-05
4.10665e-05
0.00012017
-0.000187633
-5.028e-05
0.000222811
-0.000211725
0.000104019
0.000109802
-0.000206907
0.000269786
8.4228e-05
-0.000165923
0.000309856
0.000139608
-4.66802e-05
0.000159188
-0.000204201
4.13042e-07
6.82776e-05
-0.000233397
-0.000176427
2.36042e-05
0.000739936
-0.00026288
2.48244e-05
0.000443702
-0.000103742
3.78648e-05
-1.67767e-05
-0.000224954
5.46126e-05
0.000391529
-0.000410046
5.9401e-05
0.000325632
-0.000455323
-2.22664e-05
0.000348946
-9.93917e-05
0.000260149
-0.000115986
-0.00020007
0.000262948
0.000227287
-0.000350384
-0.000102536
0.000166955
-3.53385e-05
-1.92763e-05
-0.00019688
-0.000251483
0.000163735
-3.73183e-05
-0.000193496
0.00017375
0.000352913
-0.00026225
6.49533e-05
6.73838e-05
-1.09605e-05
-0.000120487
6.63909e-05
7.07956e-05
-0.000104385
0.000494586
-7.70339e-06
-8.09931e-05
5.111e-05
-6.4593e-05
-9.52371e-05
-3.01387e-05
-8.71827e-05
-7.02817e-05
0.000302136
-0.000217683
-0.000202173
0.000285155
-0.000291579
-0.000194424
0.000347641
-3.36805e-05
-0.000210971
-1.1266e-05
0.000133941
-0.000100071
-1.08973e-05
-0.000239069
-0.000166562
8.92225e-05
-6.19211e-05
-0.000322709
0.000152179
-0.000182667
-5.94781e-06
2.07468e-05
-0.000113587
2.38206e-05
0.000103874
-0.00019304
-3.25406e-05
0.000104915
0.00023679
5.20174e-05
0.000344498
0.000138213
-4.08216e-05
0.000212931
-0.000226602
4.71957e-05
-0.000168036
-0.000198706
3.8592e-05
0.000548143
-9.65025e-05
4.13622e-05
-0.000110149
0.000111501
-6.43139e-05
-0.000172684
2.45932e-05
0.000281449
-0.000174676
2.52237e-05
0.000146466
-0.000219169
-8.56049e-05
0.000157482
-0.00016564
-0.000165697
0.000103299
-2.31122e-05
-0.000186962
0.000161794
-1.66431e-05
-0.000123443
-0.00027739
-0.000157382
0.000115036
-0.000383275
0.000250207
0.000100726
0.000429539
6.88123e-05
-1.41622e-05
0.000330949
-0.000131958
-1.70384e-05
-0.000154858
0.000162293
-0.000154175
0.000641947
-0.000218447
-0.000126551
0.000292209
-0.000245204
0.000154586
6.50676e-05
-0.000131189
0.00024353
-0.000250379
-0.000343368
6.45366e-05
0.000373608
1.35689e-07
0.000326753
-2.2738e-05
-0.000269775
0.000311489
3.19875e-06
-0.000172404
0.00011085
0.000169108
3.54108e-05
-0.000141418
0.000797475
-0.000168979
-0.00013782
0.000154409
-9.2553e-05
4.81798e-05
-0.000243812
-7.58912e-05
-2.61014e-05
0.000441548
-6.49713e-05
7.71961e-05
-1.32946e-05
0.000106867
0.000110222
-2.69411e-05
-0.000241352
-0.000166648
0.000531689
-0.000196659
-0.000261303
0.000341487
-0.00016948
-4.5842e-05
0.000268049
7.01119e-05
-1.76277e-05
-7.24259e-05
-0.000139479
-5.05628e-05
7.23997e-05
-0.000123591
-1.58768e-06
0.00011549
-0.000100564
4.06939e-06
0.000204175
-0.000309711
-7.49331e-06
-0.000411979
-6.64656e-05
3.32637e-05
0.000315281
-0.000220784
-3.56954e-05
6.8248e-05
-0.000214938
-1.42766e-05
4.87571e-05
-8.17884e-05
0.000157512
0.000181492
-0.000156136
6.03415e-05
0.000146063
-0.000228046
-1.53362e-05
0.000588977
-0.000104412
-9.47639e-05
-0.000176029
9.99581e-05
0.000121821
-0.000105106
-7.13948e-05
0.000397598
-1.25128e-05
-0.000144179
0.000315907
-0.000139378
-0.000172067
0.000189966
-6.48922e-05
-9.24939e-05
-7.89095e-05
-1.41445e-05
-8.62829e-05
6.32401e-05
-9.76864e-05
7.66377e-05
-0.000399493
-0.000377913
0.000258834
-0.000272428
-0.00024349
0.000172893
0.00021354
0.000101394
-6.4898e-07
0.00017282
7.41759e-05
3.42679e-05
-0.00024582
0.000167003
-6.95523e-05
0.000511644
-1.94652e-05
-0.000175035
0.000522942
-6.47959e-05
-2.44929e-05
-3.63369e-05
-0.000144483
7.61545e-06
-0.00014019
-0.00024496
0.000129235
0.00012018
-2.20531e-05
9.15034e-05
-0.000252475
0.000121159
-9.82775e-05
0.000370933
1.74897e-05
-2.79283e-06
0.000344115
-9.23527e-06
9.62804e-05
0.000653634
-0.000239041
-5.57121e-05
9.69977e-05
-5.69037e-05
-0.000221326
-6.45779e-05
0.000148164
-0.000183858
0.000440493
0.000253772
-0.000242262
0.000150537
-4.2138e-05
-0.000261906
-0.000121827
-0.000256311
-0.00028428
0.000477314
-0.000224196
-0.000269471
0.000232649
-0.000103488
-5.44828e-05
0.000173758
-4.64481e-05
5.72993e-05
-0.000292554
-6.73731e-05
-8.33165e-05
0.000312816
2.32028e-05
-6.749e-05
0.000175115
-4.0414e-05
-6.47464e-05
0.000240252
-0.000318092
-0.000212927
-0.000140092
-0.000283158
6.96094e-05
0.00014796
0.00025473
0.000211232
1.04478e-05
-0.00013134
8.09421e-05
-2.25695e-05
-2.75988e-05
9.92804e-06
0.000293267
0.000225646
-0.000101568
0.000512404
-0.000143203
8.6828e-05
0.000109974
-5.50677e-05
4.66934e-05
-0.000137644
-0.000113371
0.000454521
-0.000198228
-0.000106361
0.000318971
3.58967e-05
-5.74244e-05
0.000307195
6.30532e-05
-6.95516e-05
0.000195866
-0.000115317
-0.000105938
-8.73041e-05
1.58724e-05
-8.77502e-05
-9.36843e-05
-8.78506e-06
4.4423e-05
-0.000308002
-9.35935e-05
0.000124768
-4.05563e-05
-0.00033464
0.000137901
0.000258255
-0.0002531
0.000100215
0.000195645
-1.90367e-05
-3.37532e-05
1.11641e-05
3.2481e-05
-0.000149994
0.000514359
-3.74787e-05
-2.94388e-05
0.000480841
1.42505e-05
0.00015431
-0.000187079
-5.66699e-05
0.000175287
-0.000235035
-0.000174781
0.000201965
9.45185e-05
-8.84706e-05
3.67553e-05
-0.000171131
9.57409e-05
-1.92751e-05
0.000406658
-9.88752e-05
0.000100664
0.000398219
-0.000309995
-2.88934e-06
0.000650515
-0.000182575
-0.000244644
0.000130633
3.20247e-05
-0.000204685
-0.000121101
-0.000124861
-3.48739e-05
0.000445617
2.33324e-05
-3.10569e-05
0.000206373
-0.000133356
-0.000396071
-2.11319e-05
5.23978e-06
-0.000237395
0.000213694
-0.00010703
2.25722e-05
5.00552e-05
-0.000136558
-3.92191e-05
0.000347721
-0.000198358
-4.12042e-05
-0.000222396
-0.000237739
5.33643e-05
8.20255e-05
8.03968e-05
0.000121456
-0.000147931
0.000256489
-3.8738e-05
0.000150909
0.000228815
-7.28141e-05
-9.3074e-05
-7.20241e-05
2.7173e-05
-8.86191e-05
0.000236026