/*--------------------------------*- C++ -*----------------------------------*\
  =========                 |
  \\      /  F ield         | OpenFOAM: The Open Source CFD Toolbox
   \\    /   O peration     | Website:  https://openfoam.org
    \\  /    A nd           | Version:  10
     \\/     M anipulation  |
\*---------------------------------------------------------------------------*/
FoamFile
{
    format      ascii;
    class       volScalarField;
    location    "9";
    object      pMean;
}
// * * * * * * * * * * * * * * * * * * * * * * * * * * * * * * * * * * * * * //

dimensions      [0 2 -2 0 0 0 0];

internalField   nonuniform List<scalar> 
102400
(
-0.00759336
0.00341069
0.0287097
0.0136801
-0.0235242
-0.0414607
-0.00635273
0.0232204
0.0152771
-0.000664501
0.00645386
0.000823468
0.00505361
0.0190296
0.0101529
0.00193941
0.00596202
0.0177631
0.0111985
-0.0195459
-0.0127059
0.0105159
0.00753999
-0.000714807
-0.00164204
-0.00201837
-0.00732609
-0.00807696
-0.00970457
-0.0221129
0.00168652
0.0252069
-0.00246638
-0.026565
-0.00170976
0.0163564
-0.000406412
0.00342907
0.013458
0.00169002
-0.013312
-0.00190952
0.0238355
0.00812364
-0.029481
-0.0465859
-0.0117161
0.0177489
0.00961729
-0.00619837
0.000864472
-0.00481194
-0.0002898
0.0137826
0.0048239
-0.00336087
0.000709251
0.0126038
0.00602784
-0.024692
-0.0177179
0.00533809
0.00233491
-0.00601146
-0.0070766
-0.00765421
-0.0129357
-0.0134246
-0.0150788
-0.0276674
-0.00388563
0.019638
-0.0080363
-0.0319421
-0.00726955
0.0107366
-0.00601935
-0.00190167
0.00830194
-0.00384048
-0.0128198
-0.00157297
0.0255456
0.00974647
-0.0288663
-0.0454757
-0.0122245
0.0180601
0.00970161
-0.00605442
0.00157813
-0.00431168
0.000340651
0.0145704
0.0051141
-0.00309179
0.00115283
0.0133048
0.00665858
-0.0245556
-0.0176498
0.00523139
0.0025903
-0.00545105
-0.00650429
-0.00749136
-0.0128977
-0.0129716
-0.0143791
-0.0271858
-0.0032413
0.0198802
-0.00837473
-0.0316103
-0.00669824
0.0110393
-0.00610847
-0.00180202
0.00892174
-0.00315108
-0.0127726
-0.00226724
0.0260366
0.011759
-0.0285857
-0.0463696
-0.0147404
0.0156854
0.00779201
-0.00658666
0.00167317
-0.00446107
-0.000272097
0.0146332
0.00460092
-0.00381742
0.000323801
0.0128324
0.00664527
-0.0250036
-0.018314
0.00418871
0.00181451
-0.00588881
-0.00658106
-0.00790038
-0.0136676
-0.0135593
-0.0142806
-0.026975
-0.00268646
0.0195483
-0.00935876
-0.0323798
-0.00715706
0.0111182
-0.00655221
-0.00264441
0.00832615
-0.00320194
-0.0113308
-0.00206844
0.0256336
0.0138112
-0.0254653
-0.0472368
-0.0173144
0.0138105
0.00760568
-0.00678116
0.00169057
-0.00363614
2.27508e-05
0.0150945
0.0050119
-0.00339516
0.000799192
0.0127477
0.00662409
-0.0246767
-0.0178615
0.00383438
0.0014912
-0.00604419
-0.00583947
-0.00694727
-0.0133771
-0.0139484
-0.0136673
-0.0254473
-0.00115535
0.0204865
-0.00875406
-0.0317448
-0.00747559
0.0118011
-0.00519624
-0.00214696
0.00852784
-0.00220935
-0.01042
-0.000719312
0.0247354
0.0133184
-0.0231634
-0.0455796
-0.0187687
0.0102355
0.00600011
-0.00666769
0.000843724
-0.00438141
-2.07397e-05
0.0162321
0.00521262
-0.00325759
0.00190662
0.0131173
0.00563
-0.0251317
-0.0175201
0.00355025
0.00121876
-0.00663204
-0.00594429
-0.00643989
-0.0130422
-0.014536
-0.0142811
-0.0240913
0.000105891
0.0211194
-0.00697204
-0.0291196
-0.00830532
0.0109532
-0.00508524
-0.00120026
0.00856992
-0.00185799
-0.0103356
0.00308612
0.0268157
0.0129522
-0.0217338
-0.0406921
-0.0169141
0.00707523
0.0013623
-0.00502199
0.00199542
-0.00454349
-0.00100948
0.0159373
0.00607421
-0.00309446
0.00284865
0.0147223
0.00471604
-0.0264456
-0.017248
0.00406851
0.00155506
-0.00684198
-0.00597864
-0.00731862
-0.0140994
-0.0142181
-0.015356
-0.024253
0.00163516
0.021256
-0.00449079
-0.0253656
-0.00756182
0.010718
-0.00583118
0.000980477
0.00975212
-0.0024424
-0.0113256
0.00606303
0.0293236
0.0148386
-0.0201879
-0.0368959
-0.0142748
0.00597418
-0.00103895
-0.00266609
0.00479689
-0.00290154
-0.00167728
0.013573
0.00604682
-0.00264924
0.00270691
0.0170441
0.00506424
-0.0273741
-0.0175944
0.00483743
0.00143027
-0.00731155
-0.00616793
-0.00943564
-0.0160965
-0.0145006
-0.0165084
-0.0260315
0.00205021
0.0216801
-0.00385004
-0.0238482
-0.00648926
0.0113102
-0.00404455
0.00267351
0.0121104
-0.00339049
-0.0109934
0.00712107
0.0287171
0.0167028
-0.0174535
-0.0340266
-0.0131332
0.00765259
0.00160221
-9.6821e-05
0.00810295
0.000368635
-0.0015261
0.0145368
0.0071976
-2.01874e-06
0.00228912
0.0193818
0.00950073
-0.0263622
-0.0172396
0.00625461
0.00150031
-0.00760525
-0.00650578
-0.0108658
-0.0167747
-0.0153261
-0.0172108
-0.0266734
0.00203087
0.0225623
-0.00454722
-0.0233846
-0.00683087
0.0119212
-0.000725565
0.00309087
0.0143008
-0.00445672
-0.0107158
0.0092262
0.0296257
0.0154443
-0.0155379
-0.0310116
-0.014441
0.0101948
0.00468094
0.00318253
0.013282
0.00175002
-0.001542
0.0141052
0.00863511
0.00187028
0.00362006
0.0163836
0.0123535
-0.024711
-0.017146
0.00846353
0.00252993
-0.00748355
-0.00746883
-0.0120362
-0.0181693
-0.0157908
-0.0175892
-0.0256284
0.00141847
0.0214241
-0.00594268
-0.0223164
-0.00728288
0.0113131
0.000581208
0.00469133
0.0152137
-0.0059034
-0.0133332
0.0112685
0.0301942
0.015464
-0.0144799
-0.0279305
-0.0139535
0.0110936
0.00656888
0.0046475
0.0179227
8.5468e-05
-0.00274219
0.0121384
0.00735056
0.000690643
0.00620507
0.0129238
0.00871214
-0.0253913
-0.0185402
0.0118195
0.00522402
-0.00608461
-0.0090682
-0.0134154
-0.0200874
-0.0157278
-0.0171073
-0.025069
-0.000974711
0.0189479
-0.00762134
-0.0208201
-0.00657631
0.00912446
-0.0013146
0.00698853
0.0167264
-0.00675709
-0.0160507
0.0111597
0.0276779
0.0152547
-0.014724
-0.0263689
-0.0111539
0.0111145
0.00504105
0.00395911
0.0203983
0.000223595
-0.00660483
0.0108205
0.00698933
-0.000419775
0.00649542
0.0128101
0.00527459
-0.0255341
-0.0191046
0.0141645
0.00602317
-0.0060605
-0.0109142
-0.0129138
-0.0183632
-0.014751
-0.0161706
-0.0250676
-0.00260151
0.0163078
-0.00971373
-0.0195851
-0.00530407
0.00571893
-0.00427138
0.00610823
0.0186376
-0.00569295
-0.015492
0.0111959
0.0256552
0.013916
-0.0145052
-0.0241625
-0.00695262
0.011298
-0.000237395
-0.000416763
0.0189158
0.00261439
-0.0086496
0.00878313
0.00869839
-0.000521863
0.00584402
0.0139301
0.00593411
-0.0244457
-0.0182766
0.0152474
0.00602871
-0.00691823
-0.0122154
-0.010976
-0.0148055
-0.0138267
-0.0160821
-0.0235811
0.000290629
0.0151243
-0.0115585
-0.0189289
-0.00410218
0.00160846
-0.0049099
0.0041974
0.0190546
-0.00278961
-0.0146595
0.0109958
0.0244369
0.0121085
-0.014079
-0.0227527
-0.00285108
0.0115097
-0.00364824
-0.00467212
0.0159249
0.00613991
-0.00522518
0.00930625
0.0100699
-0.000589666
0.00459046
0.0169539
0.00963054
-0.0206197
-0.0146644
0.0149889
0.00796543
-0.00480187
-0.0125065
-0.0108592
-0.0117569
-0.0112319
-0.0159805
-0.0237989
0.00293269
0.0161976
-0.0111773
-0.0162212
-0.00216708
-0.00163018
-0.0045123
0.00590549
0.018753
-0.00138906
-0.0155713
0.00826565
0.0228557
0.0107029
-0.014538
-0.0229629
-0.00055881
0.0129106
-0.00167507
-0.00235573
0.0167328
0.00870484
-0.00278928
0.00985633
0.0102306
0.000405036
0.00190786
0.017415
0.0124898
-0.0168934
-0.0101967
0.0140898
0.00812155
-0.00372772
-0.0124055
-0.0118177
-0.00934254
-0.00644328
-0.0133031
-0.0246744
0.00315075
0.0173674
-0.0099619
-0.0124984
0.00149955
-0.00137217
-0.00525426
0.00889425
0.0201872
-0.00107866
-0.0173661
0.00399723
0.0203944
0.00929441
-0.0148927
-0.0227535
0.00173066
0.0164964
0.00105284
0.00137528
0.0190138
0.0109963
-0.00126027
0.00755972
0.00939491
0.000555302
-0.00120899
0.0132183
0.0126616
-0.0144958
-0.00765307
0.0152312
0.00886313
-0.00301769
-0.0121045
-0.012249
-0.00605506
-0.000240078
-0.00777588
-0.0229419
0.00302244
0.0180043
-0.00937358
-0.0103594
0.00518457
0.00174573
-0.0062279
0.00791698
0.0207818
-0.0024621
-0.0159944
0.00354151
0.0190181
0.00746431
-0.0136107
-0.0193787
0.00383902
0.0202954
0.00405541
0.00338099
0.0201369
0.0134415
0.000949834
0.00536672
0.00766403
-0.000254071
-0.00229252
0.0124554
0.0144874
-0.0127595
-0.00686237
0.0168054
0.0118532
0.00115532
-0.00854055
-0.0110012
-0.00260303
0.00619967
-0.00258809
-0.0212773
0.00269881
0.0184711
-0.00894658
-0.0101099
0.00657561
0.00377173
-0.00410875
0.00816658
0.0208328
-0.00358118
-0.0120196
0.00469532
0.0180159
0.00504074
-0.0134557
-0.0150996
0.00517764
0.0201331
0.00342498
0.00242408
0.0189251
0.0138525
0.00160215
0.00331245
0.00575697
0.000195206
-0.00113404
0.015975
0.0169628
-0.0109984
-0.00694184
0.0167825
0.0128446
0.0041329
-0.00311101
-0.00753697
0.000495391
0.010416
0.00066705
-0.0200539
0.00214077
0.0193749
-0.00836802
-0.0103075
0.00778294
0.00479808
-0.0040839
0.00834451
0.021474
-0.00107202
-0.0100588
0.00380514
0.0168874
0.00299773
-0.0155771
-0.0144979
0.00493532
0.0201512
0.00430866
0.0027352
0.016403
0.0120157
0.00235336
0.0018581
0.00245791
-0.00253322
-0.00524566
0.0120854
0.0158161
-0.008897
-0.00845718
0.0135802
0.0110199
0.00473833
0.000620487
-0.00628146
0.000269017
0.0125514
0.00334714
-0.0190001
0.000345781
0.0194724
-0.00759885
-0.0107931
0.00849568
0.00627341
-0.00329565
0.0070631
0.0197587
0.00158199
-0.00777877
0.00211899
0.0144374
0.00318872
-0.0143912
-0.0126066
0.0044919
0.0175053
0.00350192
0.00513564
0.0181535
0.0103956
0.00159457
-0.00107465
-0.000721284
-0.00311775
-0.00808212
0.00276245
0.0126636
-0.00432735
-0.0108497
0.00707447
0.00716348
0.00374591
0.00308898
-0.00549266
-0.00222944
0.0137964
0.00700083
-0.0173859
-0.000756182
0.0205504
-0.0045542
-0.00976123
0.00863035
0.00576033
-0.00271339
0.00669513
0.0171547
0.00267143
-0.00200304
0.00481113
0.0147401
0.00491122
-0.0110254
-0.00976578
0.00235073
0.0138207
0.00295662
0.00541694
0.0186616
0.0101325
0.00313581
-0.000869194
-0.00284423
0.000149616
0.000887633
0.00781323
0.0146119
-0.00030496
-0.0103938
0.0046239
0.00648472
0.00411037
0.00646809
-0.00332422
-0.00592061
0.0120841
0.0100514
-0.0160293
-0.00298161
0.0206996
-0.00137839
-0.00758382
0.0101131
0.00646555
-0.00282078
0.00568195
0.0156803
0.00541571
-1.88397e-05
0.00275381
0.0105968
0.00337379
-0.0103426
-0.00579668
0.00302425
0.00957271
0.000549783
0.00297542
0.0157408
0.00542365
-0.00257326
-0.00453228
-0.00344124
0.00367726
0.00121508
0.00341815
0.0126284
0.00543247
-0.00373616
0.0080199
0.0116436
0.0065163
0.0109664
0.00350146
-0.00582477
0.00839359
0.0110322
-0.0132227
-0.00397246
0.0209966
0.000953219
-0.0080477
0.00998547
0.00751482
-0.00224028
0.00478958
0.0137576
0.00557074
0.00247182
0.00274469
0.00953575
0.00423711
-0.0116553
-0.00532276
0.00438765
0.00829025
0.000506626
0.00063621
0.0138085
0.00461774
-0.00273021
-0.00497719
-0.00673807
0.00136006
0.00364637
0.00770667
0.016009
0.00707101
-0.00980914
-0.00224576
0.00751218
0.00292582
0.00920961
0.00756323
-0.00492578
0.00530872
0.0130075
-0.0102517
-0.00693798
0.0190116
0.00263924
-0.00975355
0.00794989
0.00850549
0.00120522
0.0074761
0.0126677
0.00528644
0.00257746
0.000750162
0.00501488
0.0034975
-0.011985
-0.00605462
0.00437698
0.00704573
0.00240392
0.00189287
0.0159632
0.00924429
0.00260415
0.00154744
-0.00366427
-0.000190586
-0.00154841
-0.00358691
0.00486361
0.00653379
-0.00730071
-0.00601789
0.00433229
-0.00131472
0.00222444
0.00640548
-0.00485932
0.00177892
0.0153463
-0.00286667
-0.00629837
0.0177316
0.0067301
-0.00650638
0.00773111
0.00843973
0.00194669
0.00938794
0.0135045
0.00541866
0.00584245
0.00391871
0.00648615
0.0048643
-0.012785
-0.00572077
0.00703984
0.006581
0.00281678
-9.55968e-05
0.0113195
0.00694945
0.000375326
0.00229736
-0.00262606
3.99106e-06
0.000365228
-0.00307716
0.000582133
0.00364814
-0.00864789
-0.0110564
0.00199939
-0.0013521
-0.00234582
0.00595536
-0.00248446
-0.00307703
0.0128724
0.00157272
-0.00775834
0.0130396
0.00772966
-0.00424247
0.00777624
0.00746002
0.000858105
0.00721674
0.0112425
0.00647993
0.00257374
8.59757e-06
0.00296912
0.00323695
-0.0154549
-0.0119618
0.00400019
0.00576176
0.00454962
0.00117354
0.0107397
0.00910751
-0.000222613
0.00301495
0.00175774
0.00190116
0.00361991
0.00249548
0.00249587
0.0075602
0.0036799
-0.00366636
0.00402085
0.0064776
0.00335021
0.0100902
0.00290305
-0.00402141
0.0123365
0.00829532
-0.00445001
0.0103599
0.00788546
-0.00564101
0.00410316
0.00516503
-0.000350253
0.00436841
0.00751657
0.00397531
0.00409326
-0.000555061
0.00261061
0.00668459
-0.0099072
-0.00914406
0.00465335
0.00295454
0.00247848
0.00111663
0.00813367
0.00860868
-0.00054455
0.00218098
0.00181005
-2.8408e-05
0.00214435
0.00327085
0.00218454
0.00505839
0.00678085
0.000584985
0.00241796
0.00451387
0.000164036
0.00899851
0.00845873
-0.00258477
0.00783801
0.00879308
-0.00352316
0.00750682
0.011176
0.00195792
0.0110447
0.0109825
0.00297105
0.00532132
0.00609792
0.00447492
0.00526418
-0.00284457
-0.000715815
0.00612852
-0.00660186
-0.0105027
0.000592273
-0.000601633
-0.000979329
5.95429e-05
0.00592553
0.0081407
0.000163667
0.00559924
0.0114316
0.0084025
0.00609377
0.0052863
0.00189755
-0.000691072
0.00151253
-0.000846919
-0.000522396
0.0062292
0.00422877
0.0059005
0.00743291
-0.00240205
0.00133229
0.0056661
-0.00515749
-0.00225803
0.00222941
-0.00457994
0.0034978
0.0084872
0.00745528
0.00996998
0.00694695
0.00623453
0.00959662
0.00102489
0.000870533
0.00653649
-2.88846e-05
-0.00512242
0.00281201
0.00378635
0.000847713
0.000474444
0.00513027
0.00735999
-0.0010507
0.000553615
0.00656974
0.00578063
0.00546314
0.00748733
0.00720878
0.000900436
0.000123103
0.00164886
-0.001882
-0.000451588
0.000113143
0.00206321
0.00752404
0.0024873
0.00047752
0.00691105
0.00338502
0.00345711
0.00816094
0.00260364
0.00346976
0.00272597
7.00694e-05
0.00169416
0.00104384
0.00730317
0.00723655
-0.000155208
-0.00052653
0.00332929
0.003211
-0.000481367
0.00454752
0.00952363
0.00492706
0.00198552
0.00660678
0.00805238
-0.000287508
0.00115617
0.00735834
0.0072445
0.00306343
0.0028911
0.00866564
0.00307057
-0.000386139
0.00497594
0.00324256
0.00229403
0.00408742
0.00455636
0.0084265
0.00540663
-0.00149879
0.00406347
0.0039118
-0.000107239
0.00409341
0.00353507
0.0053965
0.00791348
0.00893875
0.00778875
0.0038333
0.0080202
0.00617203
0.00334471
0.00573836
0.00522923
0.00394595
-0.00135623
-0.00243834
0.00398738
0.00265936
-0.000865888
0.00295924
0.00367134
-0.00250295
-0.00195721
0.00018262
0.00242745
0.00117932
0.00126266
0.0104533
0.00561047
-0.00192106
0.00294905
0.00355382
0.00333866
0.00589883
0.00364341
0.00623684
0.00568645
-0.00296547
0.00369233
0.00385279
-0.00655039
-0.00334032
0.000819361
0.00271742
0.00231414
0.00292034
0.0012321
-0.000761099
0.00669516
0.00522854
0.00328643
0.00473482
0.00565979
0.00701505
0.00259657
-0.00169806
0.000493776
0.00321614
0.00360635
0.00399032
0.00360398
0.00339141
0.00259943
0.00128957
0.005988
0.00354788
-0.000362127
0.00875014
0.00825813
0.00314273
0.00655092
0.00468653
0.000933682
0.00334479
0.00358932
0.00696318
0.00780151
0.000358796
0.00539184
0.00713157
0.00022919
0.0033876
0.00441582
0.00475063
0.00710263
0.0086129
0.00611276
0.00333879
0.00721466
-0.0120576
-0.0143163
0.0252772
0.0278764
-0.0243111
-0.0302932
0.0229674
0.0369399
0.0111763
0.00763581
0.0285801
0.0111967
-0.0139922
-0.00850761
0.00807362
0.0118792
0.0140106
0.0221693
0.011628
-0.0177243
-0.0195327
-0.00344681
-0.0140495
-0.0283894
-0.0172489
0.00161668
0.0154135
0.0149175
0.00389485
-0.00977492
0.000857462
0.01571
0.00264336
-0.00114472
0.0165599
0.0150251
-0.0155223
-0.0114366
0.0231567
0.0224965
-0.0180494
-0.0199575
0.0197886
0.0223449
-0.0301442
-0.0362824
0.0173828
0.0315236
0.00586908
0.00260002
0.0233054
0.00541719
-0.0199326
-0.0141332
0.00260854
0.00635918
0.00853764
0.0168704
0.00637305
-0.0231221
-0.024978
-0.00876675
-0.0195406
-0.0343005
-0.0230883
-0.00404116
0.0100076
0.0093793
-0.00166516
-0.0152251
-0.00447115
0.0103874
-0.00240353
-0.00634705
0.0112177
0.00943028
-0.0213083
-0.0169006
0.0182371
0.0171264
-0.0173506
-0.0198048
0.0207583
0.0225854
-0.0295499
-0.0359039
0.0174473
0.0313585
0.005753
0.00338882
0.0251244
0.00631651
-0.0201834
-0.0144186
0.00260817
0.00660329
0.0086721
0.0172136
0.00684271
-0.0228365
-0.0249139
-0.00861268
-0.0191854
-0.0341545
-0.0231707
-0.00401631
0.0106295
0.00985414
-0.00142988
-0.0148816
-0.00435271
0.0103625
-0.00170316
-0.00498141
0.0120696
0.00977553
-0.0211265
-0.0166278
0.0195461
0.0181542
-0.0165443
-0.0208376
0.0214723
0.0219475
-0.0295146
-0.0363177
0.0166848
0.0304521
0.00448546
0.00255693
0.0261097
0.00717378
-0.0206043
-0.0153313
0.00151814
0.00574243
0.00792921
0.016403
0.00619184
-0.0240075
-0.0263411
-0.00991515
-0.0201903
-0.0343858
-0.0234842
-0.00473484
0.010676
0.00972757
-0.00209478
-0.0155636
-0.00497693
0.00910467
-0.00297908
-0.00469386
0.0123764
0.00931218
-0.0218554
-0.0172183
0.0198683
0.0186329
-0.0161273
-0.0204072
0.0216919
0.0229859
-0.030785
-0.0380952
0.0131506
0.0293533
0.00418791
0.00196574
0.0262182
0.00913883
-0.0192306
-0.014483
0.00132596
0.00542811
0.0079344
0.0168778
0.00686015
-0.0247089
-0.0275843
-0.00993453
-0.0199914
-0.0335268
-0.0215159
-0.00393782
0.0117026
0.0106107
-0.00127701
-0.0156149
-0.00517202
0.00881373
-0.0038875
-0.00493836
0.0141666
0.00980399
-0.0218426
-0.0169164
0.0208788
0.0201025
-0.0173402
-0.0201563
0.0193998
0.022939
-0.0339554
-0.0417301
0.00750844
0.027821
0.00437647
0.00196372
0.0245686
0.00963589
-0.0177128
-0.0122427
0.00236931
0.00494773
0.00712912
0.0173103
0.00782142
-0.0248925
-0.027956
-0.00899348
-0.0178495
-0.0322262
-0.0185853
-0.00165335
0.0128181
0.0105935
-0.000610851
-0.0149783
-0.00504003
0.00894334
-0.00426051
-0.00612161
0.0159762
0.0108219
-0.0220357
-0.0173142
0.021956
0.021987
-0.0169274
-0.0203808
0.0180808
0.0218776
-0.0338362
-0.0385796
0.00712558
0.025831
0.00666007
0.00404618
0.0236293
0.0102514
-0.0165845
-0.0102859
0.00458168
0.00531699
0.00661987
0.0174927
0.00881199
-0.0251716
-0.027478
-0.00788755
-0.0145795
-0.0296799
-0.016024
0.00130908
0.0143847
0.0095741
-0.00183499
-0.0141072
-0.0037086
0.0102375
-0.00341546
-0.00689039
0.0162071
0.0129043
-0.020115
-0.0166843
0.0231519
0.0232935
-0.0149361
-0.0194938
0.0184278
0.0222325
-0.0300248
-0.0297591
0.00965323
0.0217901
0.00659519
0.00661841
0.0232972
0.0109262
-0.0172196
-0.0104379
0.00720418
0.00577947
0.00623129
0.0182755
0.00884697
-0.027138
-0.029421
-0.0074407
-0.0125293
-0.0269214
-0.0146964
0.00197097
0.0149652
0.008401
-0.00447456
-0.0147888
-0.00259693
0.011382
-0.00210171
-0.0077869
0.0132219
0.0136298
-0.0166481
-0.0140812
0.0230528
0.0218195
-0.0113173
-0.0170781
0.0169284
0.0218128
-0.0264625
-0.0240479
0.00939937
0.0183951
0.00319512
0.00850867
0.0236036
0.0112179
-0.016497
-0.0094756
0.00991577
0.00743938
0.00634838
0.0205563
0.0116015
-0.0286944
-0.0351055
-0.00786018
-0.0101482
-0.0243085
-0.0135431
0.00202273
0.0147201
0.00790406
-0.00606915
-0.0159649
-0.000737112
0.0129362
-0.00144834
-0.00894875
0.00959084
0.0128002
-0.0152341
-0.0102532
0.0221
0.0197873
-0.00734537
-0.0140357
0.0137784
0.0189922
-0.0243634
-0.020934
0.00613745
0.0139968
0.000204662
0.0102542
0.025472
0.0100642
-0.0147578
-0.00726853
0.00928156
0.00863541
0.00702295
0.0219536
0.0164755
-0.0250312
-0.037765
-0.0087497
-0.00685272
-0.0216489
-0.0134567
0.00317839
0.0138282
0.00726684
-0.0068989
-0.0162461
0.001946
0.0155488
-0.0017078
-0.00985369
0.00834465
0.0116273
-0.0163666
-0.00687429
0.0218689
0.018155
-0.00440824
-0.0108614
0.0140492
0.0172005
-0.023311
-0.0186583
0.00249912
0.00878777
-0.0010654
0.0108147
0.0278891
0.00760494
-0.0154447
-0.00791523
0.0077057
0.00744633
0.00802006
0.0207485
0.0183632
-0.0201063
-0.0342468
-0.00701182
-0.00547104
-0.0192497
-0.0140189
0.00328898
0.0121403
0.00762563
-0.00737444
-0.0163521
0.00321685
0.0173519
-0.00176115
-0.0098329
0.00982502
0.0114155
-0.0157579
-0.00415678
0.0228643
0.0167415
-0.00286014
-0.00719649
0.017394
0.0161299
-0.0219925
-0.0164168
0.00119567
0.00581919
0.000182388
0.0105084
0.0289158
0.00399304
-0.018692
-0.0098476
0.00737505
0.00439139
0.00941591
0.0197973
0.0168095
-0.0170046
-0.0308527
-0.00436134
-0.00573428
-0.0195177
-0.0135002
0.00230747
0.0107805
0.00924452
-0.00766853
-0.017631
0.00219355
0.0163763
-0.00241071
-0.00890848
0.0128118
0.012543
-0.0134635
-0.0023325
0.0236219
0.0149187
-0.00252474
-0.00346202
0.0180102
0.0138103
-0.0201581
-0.0141783
0.00047229
0.00426831
0.00222848
0.011576
0.0300541
0.0012923
-0.0236643
-0.0119237
0.00645091
0.00334766
0.0101365
0.0208262
0.0167567
-0.0165146
-0.0318605
-0.00385224
-0.00492274
-0.0202541
-0.0132052
0.00120289
0.0110558
0.0116899
-0.00630921
-0.0172317
0.00291719
0.0145069
-0.00580435
-0.00863336
0.0140993
0.0135292
-0.0126575
-0.00168768
0.0230294
0.0126786
-0.00274361
-0.00124831
0.0165049
0.0110693
-0.0181955
-0.0118034
-0.000447616
0.001865
0.00124962
0.0120189
0.0333506
0.00393845
-0.0274162
-0.0148345
0.00521637
0.00498278
0.00998122
0.0245795
0.0177553
-0.0191876
-0.0321499
-0.0020225
-0.001283
-0.0176247
-0.0148212
-0.00155803
0.0105582
0.013941
-0.00572215
-0.0184365
0.00382399
0.012497
-0.00982174
-0.00902166
0.013401
0.0134988
-0.010843
-0.000962084
0.0208446
0.0107702
-0.00337692
0.000264978
0.0161139
0.010024
-0.0161808
-0.0106706
-0.000207214
-0.000785137
-0.00217935
0.0100034
0.0340524
0.00750086
-0.0263644
-0.0158914
0.00479453
0.0056906
0.00665234
0.0252428
0.0201453
-0.0181873
-0.0276018
0.00272601
0.00331203
-0.0143686
-0.0165883
-0.00463704
0.00734313
0.0135729
-0.00474082
-0.0214025
0.00325523
0.0120144
-0.0100674
-0.00970737
0.0118053
0.0125372
-0.00663702
0.000954743
0.0183062
0.00865117
-0.00497515
0.00103523
0.0161348
0.00887283
-0.015096
-0.0116556
-0.00119305
-0.00213948
-0.00394436
0.00759442
0.0305247
0.00859014
-0.0214659
-0.0132485
0.00584754
0.00503776
0.00245819
0.0202491
0.019555
-0.0146991
-0.0214588
0.00687108
0.00760585
-0.0113533
-0.0175672
-0.00855276
0.00410342
0.0117193
-0.00124507
-0.0193605
0.00353409
0.0141501
-0.00729129
-0.00949942
0.00883871
0.0101001
-0.00339064
0.00317583
0.0171245
0.00608336
-0.00529235
0.00061544
0.015374
0.00738169
-0.0146475
-0.0129072
-0.00373922
-0.00269282
-0.00348581
0.00617492
0.025232
0.0081169
-0.0159957
-0.00966987
0.00643675
0.00575284
0.00209148
0.0176502
0.0179101
-0.0125098
-0.0166347
0.00931173
0.00937011
-0.00751716
-0.0149416
-0.0115755
0.000623806
0.0108396
0.00157293
-0.0154185
0.00197186
0.0133232
-0.00595468
-0.00913549
0.00672642
0.00847799
-0.00115353
0.00501667
0.0178301
0.006043
-0.00414877
0.000501541
0.0140021
0.00610577
-0.0136847
-0.0125661
-0.00344018
-0.00212124
-0.00364676
0.00611242
0.0212392
0.00566673
-0.0145818
-0.00951646
0.00533085
0.00700786
0.00513668
0.0186682
0.0185259
-0.00974402
-0.0130594
0.0102233
0.00857677
-0.00438613
-0.0102456
-0.0119952
-0.00345434
0.00921784
0.00116968
-0.0155343
-0.000739651
0.0098647
-0.00777097
-0.00884363
0.00787424
0.00920424
0.000663008
0.00520937
0.0170461
0.00674245
-0.00258126
0.000709527
0.0125332
0.00476336
-0.0126644
-0.010351
-0.000656176
0.00146788
-0.00279423
0.00567671
0.0176934
0.00282813
-0.0119374
-0.0073212
0.00491199
0.00776404
0.0051124
0.0159974
0.0172837
-0.00777593
-0.0113628
0.0100019
0.00752703
-0.00366087
-0.00821294
-0.0128412
-0.00801136
0.00625738
0.000425349
-0.0173537
-0.00318453
0.00854265
-0.00918146
-0.00900647
0.00935983
0.0099291
0.00214994
0.00585882
0.0148891
0.00650817
-0.000763752
0.000394966
0.0113375
0.00320591
-0.0141601
-0.0101402
-0.000267901
0.00413633
-0.000772509
0.0056642
0.0148958
0.000702738
-0.00766991
-0.00384575
0.00393759
0.00864713
0.00499026
0.0123792
0.0159082
-0.00500345
-0.0149876
0.00400067
0.00630947
-0.00217411
-0.00482251
-0.0112222
-0.00882568
0.00680276
0.00269897
-0.0172581
-0.00354118
0.0111351
-0.00794935
-0.00986522
0.0083491
0.00907282
0.00231749
0.00539933
0.0123257
0.00639314
0.0015474
0.00117746
0.0120039
0.00509267
-0.0127284
-0.00944119
-0.000420695
0.00635473
0.00244447
0.00623962
0.0124108
-0.00230956
-0.00580879
3.30841e-05
0.00527972
0.0114049
0.00813801
0.0127858
0.0182674
0.00123159
-0.0122673
0.000225736
0.00251583
-0.00251495
0.000202207
-0.00579924
-0.0077026
0.00767659
0.00548736
-0.017368
-0.00543532
0.0145201
-0.00225133
-0.00580395
0.010686
0.010083
0.00367722
0.00670884
0.0115648
0.00677678
0.00384778
0.00128302
0.00963479
0.0029737
-0.0138523
-0.00814822
0.000965946
0.00641753
0.00282075
0.00587489
0.0117365
-0.0043426
-0.00742237
0.000190911
0.00579854
0.0139614
0.00988545
0.00831128
0.0134253
0.00165845
-0.00706708
0.00477952
0.00625901
-0.000957682
0.00482826
0.000763624
-0.00742012
0.00578285
0.00769135
-0.0156049
-0.00835519
0.0137401
-0.000661924
-0.00457246
0.0127854
0.0106582
0.00198574
0.00464647
0.00864548
0.00619597
0.00352362
0.00198462
0.00978902
0.00575995
-0.0105977
-0.00333492
0.00542938
0.00783968
0.00380643
0.00318252
0.0107742
-0.00126558
-0.00435786
0.00100276
0.0027433
0.0101099
0.00700042
0.00664532
0.0161151
0.00922542
-0.00328546
0.00449046
0.00775676
-0.00181519
0.00624261
0.00765364
-0.00459227
0.00416032
0.00946429
-0.0134376
-0.0117298
0.0110386
-0.00146834
-0.00844224
0.00971973
0.00983827
0.00246528
0.00576714
0.0073015
0.00389019
0.00614895
0.00185242
0.0061324
0.00405227
-0.0138782
-0.00688803
0.00209058
0.00347784
0.00261596
0.000430793
0.0094242
0.00113739
-0.00253382
0.00300933
0.00226304
0.00778961
0.00597191
0.00145938
0.00651436
0.00798867
-0.0029175
-0.000426078
0.00621744
-0.00243465
0.0031583
0.00868897
-0.00307568
0.00401401
0.0137686
-0.0070975
-0.0107965
0.00995569
0.00189538
-0.00619266
0.0101994
0.0117264
0.00523387
0.00907571
0.0102193
0.00652577
0.00391627
-0.000964441
0.00440205
0.00658783
-0.0129233
-0.00561914
0.00921034
0.00775658
0.00413257
0.000708955
0.00952966
0.0045521
-0.000875111
0.00547684
0.0029711
0.00458195
0.00481747
0.00024404
0.000457593
0.00453958
-0.00324405
-0.0054883
0.00437086
-0.00194555
-0.00242956
0.00566634
-0.00375135
-0.00193038
0.0107725
-0.00383376
-0.0119628
0.00517385
-0.000566644
-0.00916144
0.0057613
0.00830715
0.00226441
0.0069254
0.00876773
0.00447084
0.00538887
0.00221106
0.00725844
0.0109313
-0.00890328
-0.00836045
0.00251624
-0.000447696
0.000222431
-0.000380065
0.00836265
0.00610017
-0.00293378
0.00279816
0.00259048
0.00161217
0.00406607
0.00324444
0.00170032
0.00728916
0.0060237
-0.00156032
0.0034763
0.00274371
0.00245658
0.0123338
0.00349714
-0.00251604
0.011301
0.00247333
-0.00874677
0.00615573
0.00384301
-0.00589262
0.00595169
0.00734986
0.000738876
0.00480441
0.00662858
0.00407384
0.00459132
-0.00328726
-0.00086237
0.00745102
-0.00783492
-0.00792075
0.00523439
0.00107417
5.2143e-05
-0.000914485
0.00580244
0.00566541
-0.00410461
-0.00109396
-0.000205225
-0.00207607
0.00123633
0.0045135
0.00303038
0.00548298
0.00906085
0.0031157
0.00380383
0.00348302
0.00043488
0.0123203
0.0110635
-0.000202823
0.00809354
0.00459444
-0.00641403
0.00551803
0.00817545
0.000865424
0.0107242
0.00998733
0.000494564
0.00234757
0.00450185
0.00472689
0.0087478
-0.00109171
-0.00103133
0.00645804
-0.00597329
-0.00884626
0.00514613
0.00268801
-8.03941e-05
0.000364549
0.00544687
0.00797839
-0.00132651
0.00156589
0.0077421
0.00471731
0.00333899
0.00513949
0.00278516
-0.000830474
0.00118597
-0.00169127
-0.00128507
0.0043977
0.00427369
0.00991176
0.0100742
0.000278966
0.0044382
0.00576778
-0.00488153
-0.000464578
0.00243458
-0.00346825
0.00522648
0.00796278
0.00335533
0.00512196
0.00499271
0.0081031
0.0113991
0.00206728
0.000202265
0.00656005
0.000606801
-0.0033675
0.00873985
0.0102867
0.0036386
0.00196935
0.00637445
0.0091955
4.25834e-05
0.000423573
0.00593831
0.00391416
0.00256338
0.00533051
0.00572093
-0.000427933
-1.63606e-05
0.00254119
0.000386839
0.00126381
0.000551615
0.00322632
0.006939
0.00200439
0.00274965
0.0084892
0.00427576
0.00593488
0.00840375
0.000499363
0.00254275
0.00220655
-0.000907134
0.000109191
-0.000690475
0.00740676
0.00930786
0.00200572
0.000405689
0.00486866
0.00485452
0.000489797
0.00678231
0.0121149
0.00542601
0.00181489
0.00698707
0.00837662
-0.000751498
-0.00024896
0.00649202
0.00736029
0.00296722
0.00345223
0.0100238
0.00400101
-8.59506e-05
0.00488054
0.00320796
0.00202942
0.0037785
0.00605671
0.00942975
0.00420238
-0.002275
0.00178853
-0.00083637
-0.00233326
0.00411237
0.0033627
0.00672552
0.00762163
0.00717254
0.00644679
0.00180281
0.00716037
0.00784228
0.00436268
0.0046481
0.0055397
0.00614914
0.00217948
0.00248721
0.00884778
0.00573366
0.000635512
0.00505032
0.00524528
-0.00226172
-0.00301328
-0.00113007
0.00239917
0.000349856
-0.000372622
0.010209
0.00639078
-0.00102019
0.00451877
0.00547858
0.00453701
0.00585514
0.00522353
0.0097533
0.00767734
-0.000894248
0.00519805
0.00298638
-0.00562126
-0.00199533
-0.00184556
-0.000700051
-0.000836417
0.000615649
0.00190312
-0.000784375
0.00602786
0.00433117
0.0031626
0.00232179
0.00383501
0.00565813
0.00236181
-0.000552245
0.0016522
0.00378997
0.00241239
0.00329148
0.00332919
0.00270511
0.00280466
0.00168649
0.00641732
0.00278498
-0.00127087
0.00987558
0.00976203
0.00396535
0.00698859
0.00459504
0.00109656
0.00298398
0.00350914
0.00887063
0.0088428
0.00137089
0.00719213
0.00729015
0.000253731
0.00349101
0.0030921
0.00392758
0.00642254
0.00682402
0.0052124
0.00169084
0.00358277
0.00275378
0.00656683
0.0295949
0.0195246
-0.0165583
-0.044675
-0.0287768
0.0155365
0.00417695
-0.00292456
0.0125493
0.00339413
-0.00796745
-0.0128211
-0.00256008
0.0167847
0.0135936
0.0127161
0.0104906
-0.013974
-0.0136848
0.00382504
0.00649477
0.00968156
0.0107778
-0.0164537
-0.0153602
0.00995482
0.00492474
-0.015178
-0.00720588
0.0130824
-0.00189475
-0.022194
-0.00446476
0.0257725
0.00794607
-0.00827218
-0.000553878
0.0117473
-0.0029436
0.000974032
0.0241691
0.0141777
-0.0220533
-0.0499857
-0.0340622
0.0104155
-0.000896697
-0.00795046
0.00674536
-0.00245141
-0.0135652
-0.0182919
-0.00777271
0.0117743
0.0084263
0.00744242
0.00519319
-0.0193469
-0.0190923
-0.00150803
0.00103748
0.00429155
0.00534026
-0.0220479
-0.0212085
0.00440679
-0.000464949
-0.0205106
-0.0125396
0.00762122
-0.00767525
-0.027366
-0.0101809
0.0203767
0.00252101
-0.0131401
-0.00636727
0.00579821
-0.00292775
0.00143503
0.0241012
0.0143445
-0.0216147
-0.0503261
-0.0348915
0.0107567
-0.000117409
-0.00658012
0.00808031
-0.00263326
-0.0139108
-0.0185851
-0.00757569
0.0124462
0.00950077
0.00885692
0.00632524
-0.0184095
-0.0181337
6.76123e-05
0.00258328
0.00511366