/*--------------------------------*- C++ -*----------------------------------*\
  =========                 |
  \\      /  F ield         | OpenFOAM: The Open Source CFD Toolbox
   \\    /   O peration     | Website:  https://openfoam.org
    \\  /    A nd           | Version:  10
     \\/     M anipulation  |
\*---------------------------------------------------------------------------*/
FoamFile
{
    format      ascii;
    class       volScalarField;
    location    "9";
    object      pPrime2Mean;
}
// * * * * * * * * * * * * * * * * * * * * * * * * * * * * * * * * * * * * * //

dimensions      [0 4 -4 0 0 0 0];

internalField   nonuniform List<scalar> 
102400
(
5.00193e-05
5.10056e-05
2.08601e-05
5.58032e-05
2.94386e-05
5.43878e-05
6.85332e-05
5.06656e-05
5.27146e-05
4.08845e-05
6.64575e-05
2.81131e-05
4.09257e-05
2.71224e-05
5.08051e-05
4.55699e-05
2.25598e-05
5.04008e-05
3.5418e-05
4.67051e-05
0.000113444
6.88433e-05
4.67773e-05
2.15753e-05
6.90897e-05
3.09858e-05
6.19688e-05
3.10189e-05
4.02362e-05
3.98237e-05
5.51208e-05
3.11016e-05
4.11281e-05
4.67985e-05
4.23812e-05
7.64954e-05
7.37859e-05
6.04545e-05
8.61179e-05
6.28966e-05
5.78426e-05
4.97894e-05
5.73218e-05
7.38429e-05
2.02176e-05
7.862e-05
7.38374e-05
3.8583e-05
0.00010244
5.40626e-05
6.48714e-05
3.22175e-05
5.90508e-05
3.63958e-05
4.75105e-05
4.40153e-05
3.93796e-05
6.13878e-05
3.65351e-05
5.03352e-05
0.000103867
0.000108412
5.63675e-05
3.87274e-05
9.24106e-05
3.5078e-05
7.13577e-05
2.74723e-05
5.28194e-05
6.07188e-05
5.94386e-05
3.83688e-05
4.33564e-05
6.29027e-05
4.58755e-05
8.30443e-05
6.08542e-05
7.58682e-05
7.9031e-05
5.60097e-05
8.30777e-05
5.31251e-05
2.44559e-05
0.00010024
5.44509e-05
6.5948e-05
5.83165e-05
5.73531e-05
0.000107984
4.25058e-05
0.000111793
3.8206e-05
4.70154e-05
2.86059e-05
6.7212e-05
5.80118e-05
2.91315e-05
4.79772e-05
3.08796e-05
8.22789e-05
0.000132936
8.37476e-05
5.54335e-05
5.12392e-05
9.74341e-05
3.34011e-05
7.86136e-05
4.89075e-05
8.04459e-05
7.38408e-05
6.34931e-05
2.80242e-05
5.42083e-05
6.62789e-05
5.02215e-05
8.36776e-05
6.29476e-05
8.34733e-05
9.27807e-05
6.13404e-05
7.50817e-05
6.08347e-05
2.15487e-05
0.000103827
7.04299e-05
4.99164e-05
0.000100486
0.000100663
0.000109247
5.21128e-05
0.000142703
5.59091e-05
6.67499e-05
5.26299e-05
0.000111742
9.07571e-05
4.01325e-05
5.98359e-05
2.978e-05
9.67475e-05
0.000175051
9.93083e-05
6.33348e-05
5.28625e-05
9.1801e-05
3.6072e-05
9.40388e-05
6.28561e-05
5.98495e-05
5.54458e-05
7.85826e-05
5.74756e-05
9.16638e-05
9.14998e-05
8.15366e-05
8.02358e-05
0.000112441
9.82228e-05
0.000105656
9.67521e-05
4.85124e-05
7.96395e-05
4.12115e-05
0.00010096
7.30702e-05
8.81654e-05
8.67541e-05
7.97502e-05
0.000108082
7.70516e-05
0.000102817
5.0376e-05
6.43471e-05
7.12646e-05
7.14233e-05
8.43553e-05
4.63109e-05
9.87204e-05
5.03623e-05
7.75756e-05
0.000155714
0.000100322
7.47308e-05
4.91717e-05
0.000123684
4.79274e-05
9.57998e-05
7.01468e-05
5.50136e-05
6.44909e-05
0.000103507
6.26795e-05
0.000101519
9.34302e-05
9.94546e-05
0.000129424
9.20549e-05
6.66059e-05
0.000137231
0.000117971
3.14325e-05
9.42436e-05
4.84264e-05
9.54723e-05
7.9475e-05
0.00010564
6.56835e-05
9.91761e-05
6.34024e-05
8.7193e-05
6.9013e-05
3.95826e-05
3.89792e-05
6.26354e-05
4.91165e-05
5.73162e-05
3.08546e-05
9.41311e-05
5.89545e-05
7.84501e-05
0.000128882
0.000111914
7.43217e-05
6.17311e-05
0.00013378
5.35032e-05
7.53521e-05
6.63078e-05
5.29928e-05
7.22301e-05
9.23712e-05
5.18339e-05
8.14312e-05
8.07858e-05
7.12674e-05
0.000122709
8.3184e-05
6.78305e-05
0.000156184
7.33434e-05
6.39887e-05
5.1903e-05
6.16059e-05
0.00011839
0.000118083
8.38568e-05
8.49868e-05
0.000164245
5.03445e-05
9.70226e-05
6.85571e-05
4.19206e-05
4.56213e-05
4.12193e-05
6.26295e-05
8.90447e-05
4.8675e-05
7.82353e-05
8.22612e-05
6.63464e-05
0.000119757
0.00012798
7.35646e-05
6.70827e-05
0.000152588
8.78185e-05
3.9588e-05
7.69659e-05
3.16808e-05
6.89225e-05
6.72428e-05
3.85776e-05
5.29996e-05
7.94946e-05
6.69209e-05
0.00011044
8.97442e-05
9.92398e-05
0.000151771
6.77196e-05
6.44778e-05
3.41767e-05
0.00010143
9.07341e-05
0.000115044
6.93737e-05
0.000122565
0.000122313
5.77446e-05
0.000117302
8.37372e-05
4.16665e-05
9.68765e-05
3.7087e-05
6.36014e-05
9.15178e-05
5.21532e-05
8.15415e-05
7.47229e-05
7.1666e-05
9.3978e-05
9.96797e-05
5.77326e-05
3.651e-05
0.000138575
5.4598e-05
5.63879e-05
6.87597e-05
2.29909e-05
4.74904e-05
6.72315e-05
2.0032e-05
7.36499e-05
6.85385e-05
5.66014e-05
0.000101307
6.51326e-05
9.81285e-05
0.000102682
5.77461e-05
7.08339e-05
4.3395e-05
8.82834e-05
9.48167e-05
0.000103408
6.40971e-05
6.5184e-05
5.98699e-05
7.54624e-05
9.51621e-05
0.000108479
4.73322e-05
0.000115858
4.78163e-05
9.04513e-05
9.46563e-05
2.80541e-05
5.73904e-05
7.3865e-05
9.02087e-05
6.50091e-05
9.28072e-05
5.37237e-05
3.42917e-05
0.000122731
4.05398e-05
5.55199e-05
9.75354e-05
5.70403e-05
5.51423e-05
6.38011e-05
3.67638e-05
8.62272e-05
5.94464e-05
5.30935e-05
8.8541e-05
4.80912e-05
7.28956e-05
7.29724e-05
6.8107e-05
0.000101657
6.03409e-05
5.71337e-05
0.000101892
8.01181e-05
5.10013e-05
4.96105e-05
5.91871e-05
8.03599e-05
5.13539e-05
0.000107543
4.19859e-05
7.81855e-05
6.8109e-05
6.35858e-05
6.95765e-05
5.00003e-05
5.28038e-05
9.4871e-05
7.84851e-05
8.55408e-05
9.93276e-05
4.20168e-05
4.3179e-05
0.000136583
6.72304e-05
6.95083e-05
6.70624e-05
6.12927e-05
6.02481e-05
6.5788e-05
3.89129e-05
6.76507e-05
5.41752e-05
8.38686e-05
6.02286e-05
3.82157e-05
5.6635e-05
9.77269e-05
6.71334e-05
8.11178e-05
6.8887e-05
2.84628e-05
0.000109719
7.14651e-05
8.31105e-05
6.32817e-05
3.77288e-05
7.52827e-05
5.01596e-05
0.000119554
3.71315e-05
8.6672e-05
7.45827e-05
4.73537e-05
6.61205e-05
7.0996e-05
5.5203e-05
7.12383e-05
8.90491e-05
8.32479e-05
9.73268e-05
5.23765e-05
6.49795e-05
0.000117585
9.27904e-05
7.34857e-05
5.42556e-05
4.19737e-05
4.87779e-05
9.02471e-05
4.10153e-05
6.12596e-05
7.45194e-05
8.49053e-05
8.57427e-05
6.21217e-05
9.96178e-05
6.00541e-05
6.96354e-05
5.93671e-05
2.02307e-05
3.63711e-05
0.000107341
8.34633e-05
6.72573e-05
7.03473e-05
3.99637e-05
7.89829e-05
5.93818e-05
0.000103531
4.0193e-05
7.1921e-05
7.88947e-05
5.67772e-05
5.71164e-05
4.14736e-05
7.82372e-05
9.03723e-05
0.000116543
0.000118963
7.12422e-05
4.87973e-05
4.78463e-05
0.000121967
0.000102531
7.10077e-05
4.60836e-05
4.31883e-05
4.69473e-05
8.01948e-05
2.71863e-05
5.6261e-05
7.62174e-05
5.12857e-05
0.000100146
6.77465e-05
8.50434e-05
3.86769e-05
5.38644e-05
5.79991e-05
2.29365e-05
2.52595e-05
7.72997e-05
9.48183e-05
8.98674e-05
7.44832e-05
4.72615e-05
6.60019e-05
0.000128732
7.00421e-05
3.81962e-05
6.98417e-05
6.60824e-05
4.095e-05
7.23926e-05
6.57025e-05
6.74203e-05
5.09833e-05
8.64139e-05
0.000146045
7.9224e-05
6.81576e-05
4.05123e-05
9.07307e-05
4.85828e-05
5.43818e-05
3.54669e-05
3.57824e-05
7.38341e-05
0.000108585
6.1571e-05
3.46949e-05
0.00010083
6.83633e-05
9.29283e-05
9.48218e-05
8.35464e-05
7.05123e-05
7.30284e-05
3.36753e-05
8.08203e-06
2.2452e-05
6.00042e-05
7.99033e-05
6.64908e-05
7.84874e-05
3.83466e-05
9.41134e-05
0.000112763
6.76561e-05
2.97596e-05
7.47471e-05
4.51771e-05
3.72899e-05
6.33829e-05
4.94132e-05
7.69475e-05
5.98697e-05
9.27522e-05
5.85539e-05
4.97181e-05
6.07191e-05
2.85152e-05
9.54012e-05
5.57707e-05
4.18464e-05
2.11549e-05
5.11144e-05
7.64618e-05
6.2966e-05
9.15961e-05
4.36362e-05
5.44687e-05
9.91121e-05
0.00011697
8.44752e-05
5.02936e-05
7.10116e-05
5.90289e-05
2.07105e-05
7.83273e-06
7.86518e-06
7.29043e-05
9.50522e-05
5.82535e-05
3.23075e-05
4.52094e-05
5.94604e-05
5.22181e-05
7.88152e-05
2.75346e-05
7.11229e-05
4.42171e-05
2.61048e-05
4.8507e-05
4.59242e-05
0.000107675
3.80627e-05
9.28875e-05
5.06518e-05
5.85759e-05
3.62436e-05
4.43108e-05
7.30985e-05
7.99756e-05
3.54696e-05
1.99029e-05
6.1487e-05
6.63079e-05
2.63716e-05
6.98481e-05
4.443e-05
5.33046e-05
9.98402e-05
0.000106532
7.84263e-05
3.71981e-05
6.12492e-05
5.48533e-05
2.11214e-05
1.88424e-05
1.60978e-05
3.52382e-05
2.46421e-05
7.69499e-05
3.42811e-05
4.43105e-05
4.77221e-05
3.20363e-05
0.000105753
1.80737e-05
2.96335e-05
5.91964e-05
2.06877e-05
1.52188e-05
4.26866e-05
6.20923e-05
2.34804e-05
7.50236e-05
4.24453e-05
3.6759e-05
3.34568e-05
4.73894e-05
7.91606e-05
7.37251e-05
4.19161e-05
2.17838e-05
2.54873e-05
6.31119e-05
3.07744e-05
7.22539e-05
6.67839e-05
4.72544e-05
7.47187e-05
9.92017e-05
4.88588e-05
4.11844e-05
4.14899e-05
4.76275e-05
3.84081e-05
2.35295e-05
3.77479e-05
3.89047e-05
2.7698e-05
7.9317e-05
3.56698e-05
1.72598e-05
3.10387e-05
3.51237e-05
8.95524e-05
2.48595e-05
2.18786e-05
4.3062e-05
2.01258e-05
1.52655e-05
6.84598e-06
2.12863e-05
4.03946e-05
7.57369e-05
2.71619e-05
1.48678e-05
1.86678e-05
1.9096e-05
5.47338e-05
3.02481e-05
3.2937e-05
2.45156e-05
1.04061e-05
5.65566e-05
8.87424e-06
2.46821e-05
5.86354e-05
3.92971e-05
4.55217e-05
4.1495e-05
3.65099e-05
2.69719e-05
3.38261e-05
6.18497e-05
2.58698e-05
9.41158e-06
1.20161e-05
4.19081e-05
5.36733e-05
6.44783e-05
2.19061e-05
1.5199e-05
1.14717e-05
2.12196e-05
6.95784e-05
1.49049e-05
9.34757e-06
3.92555e-05
2.39856e-05
1.89173e-05
3.61542e-06
1.04068e-05
4.81592e-05
3.64203e-05
6.26499e-05
7.75371e-06
1.80582e-05
5.84935e-06
2.84731e-05
3.21209e-05
2.75544e-05
1.54714e-05
7.50571e-06
1.83305e-05
1.16442e-05
2.9428e-05
3.6408e-05
3.22654e-05
6.76035e-05
2.47872e-05
3.01902e-05
3.40143e-05
2.23151e-05
2.59088e-05
2.16904e-05
1.60064e-05
5.16731e-06
7.81773e-06
1.28259e-05
3.24621e-05
1.19894e-05
5.206e-06
5.3172e-06
9.41755e-06
6.24981e-05
2.61731e-05
7.55546e-06
2.43065e-05
1.42573e-05
8.0635e-06
5.8316e-06
4.62646e-06
4.15005e-05
2.67824e-05
3.08184e-05
8.59847e-06
1.92994e-05
3.22774e-06
1.26094e-05
4.1842e-05
1.4706e-05
3.39146e-06
9.39745e-06
2.30375e-05
1.06105e-05
2.01087e-05
1.3409e-05
3.06672e-05
4.1274e-05
2.77933e-05
2.94151e-05
1.61789e-05
1.84116e-05
6.27748e-06
1.41114e-05
9.2186e-06
7.7067e-06
3.95804e-06
8.13393e-06
1.17729e-05
9.39723e-06
5.58188e-06
2.414e-06
2.33015e-06
4.79687e-05
2.14181e-05
5.6708e-06
1.45507e-05
1.80402e-05
1.12256e-05
3.03145e-06
9.68605e-06
3.92657e-06
1.13194e-05
9.48628e-06
2.06754e-05
8.14123e-06
1.35488e-06
7.05913e-06
3.19305e-05
1.43115e-05
3.01171e-06
4.36527e-06
1.24822e-05
9.63103e-06
6.4549e-06
4.53364e-06
8.5648e-06
9.90666e-06
2.32063e-05
2.82171e-05
7.84167e-06
6.84454e-06
5.44397e-06
1.28196e-05
1.17052e-06
2.55232e-06
1.2287e-06
7.44477e-06
8.68327e-06
7.16059e-06
2.25826e-06
5.1602e-07
2.01372e-06
2.00832e-05
2.37465e-05
2.79629e-06
7.91538e-06
3.12474e-06
1.69641e-06
8.41533e-07
6.14474e-06
1.02035e-05
1.13395e-05
2.6309e-06
9.56644e-06
6.76704e-06
8.80041e-07
6.6018e-06
2.13952e-05
1.15615e-05
2.2091e-06
5.52813e-06
7.70803e-06
2.84528e-06
1.30307e-06
2.59835e-06
1.69719e-06
3.55783e-06
1.64579e-05
1.59304e-05
3.89508e-06
4.67947e-06
1.47736e-06
1.33002e-05
1.67604e-06
1.35974e-06
5.6994e-07
5.39877e-06
3.21524e-06
4.25789e-06
8.04413e-07
6.90986e-07
4.49062e-07
1.04948e-05
2.13454e-05
9.30895e-07
4.16148e-06
1.05948e-06
3.1707e-06
7.03543e-07
4.00315e-06
2.74926e-06
1.31894e-05
4.28364e-06
2.87978e-06
2.15131e-06
1.30949e-06
5.96588e-07
8.3741e-06
9.39444e-06
8.62534e-07
3.79379e-07
6.25424e-07
1.53824e-06
1.13879e-06
7.91454e-07
9.43112e-07
5.24905e-06
1.96367e-05
1.32026e-05
1.64088e-06
8.47667e-07
8.1176e-07
4.07076e-06
1.70016e-06
8.49358e-07
6.99638e-07
1.98208e-06
2.31137e-06
2.12951e-06
5.0779e-07
6.87315e-07
1.99701e-07
5.98425e-06
2.21787e-05
4.80252e-07
3.66879e-07
4.74396e-07
3.02578e-06
1.06555e-06
3.36035e-06
2.08453e-07
3.324e-06
1.0783e-06
2.09012e-06
1.00098e-06
4.08597e-07
1.94517e-07
1.95554e-06
2.02037e-06
5.28664e-07
7.16253e-07
4.41916e-07
2.26437e-06
1.22618e-06
4.14458e-07
8.9697e-07
5.51845e-06
1.65878e-05
1.11147e-05
3.01985e-06
8.65158e-07
1.15556e-07
7.97496e-07
1.41443e-08
3.45558e-07
5.48556e-07
9.06664e-07
1.74948e-06
1.87074e-06
2.42149e-07
6.89785e-07
2.2443e-07
1.69526e-06
1.3313e-05
3.22579e-07
8.51445e-07
1.28875e-07
8.75513e-07
5.60066e-07
5.21815e-07
6.37827e-08
4.2504e-06
1.03887e-06
5.56915e-07
6.72251e-07
1.28666e-07
1.2388e-07
4.28522e-07
1.42544e-07
5.08525e-07
1.94271e-07
1.05193e-07
6.96888e-07
1.95954e-07
1.26776e-06
1.53288e-07
1.41362e-06
5.39864e-06
8.73029e-06
1.25348e-06
4.10303e-07
3.70545e-08
2.46231e-07
7.76362e-08
2.63137e-07
1.41265e-07
2.31702e-07
3.71315e-07
4.82745e-07
3.3885e-07
7.21481e-07
4.30987e-07
1.24382e-07
2.16818e-06
1.15222e-07
8.3458e-07
1.88839e-07
2.30358e-07
5.02181e-07
1.29476e-07
3.03945e-08
7.47848e-08
1.33731e-07
2.0794e-07
3.17496e-07
4.3593e-08
1.14986e-07
1.26026e-07
4.61143e-08
1.6007e-07
5.29269e-08
9.15853e-08
7.89149e-07
1.20944e-07
1.95827e-07
1.74318e-07
1.60096e-07
4.10102e-07
2.17968e-06
2.34272e-07
2.91228e-07
7.74936e-08
1.91204e-08
8.62984e-12
1.21734e-07
1.85447e-08
2.49185e-08
9.94468e-08
2.79115e-07
3.8499e-07
4.85632e-07
4.01712e-07
5.26305e-07
3.65569e-07
5.78405e-08
6.23935e-07
1.78903e-07
1.19776e-07
2.75236e-07
9.68125e-08
3.83533e-08
6.21009e-08
7.9689e-08
6.59672e-08
1.06619e-07
7.7013e-08
1.2744e-07
1.29071e-07
7.54069e-08
1.47611e-07
9.31721e-08
1.32972e-07
2.09318e-07
9.04763e-08
1.92153e-07
1.49719e-07
8.69593e-08
2.34868e-07
3.10937e-07
7.47426e-08
2.28648e-07
6.01937e-08
3.31559e-08
3.29197e-09
4.76163e-08
2.17756e-08
2.58872e-08
1.82858e-07
3.51412e-07
3.72876e-07
3.97532e-07
3.53324e-07
5.38051e-07
1.9212e-07
2.03545e-08
4.11836e-07
2.0279e-07
1.06794e-07
2.19876e-07
9.23741e-08
6.78244e-08
3.00422e-08
3.57834e-08
4.40739e-08
3.0342e-08
7.76297e-08
1.11666e-07
8.96271e-08
8.34239e-08
9.45782e-08
1.13702e-07
1.64578e-07
1.66071e-07
1.20963e-07
1.61564e-07
1.67731e-07
1.33268e-07
1.96953e-07
8.21068e-08
3.39652e-08
1.66695e-07
5.11281e-08
2.68082e-08
1.38796e-08
3.20651e-08
4.01643e-08
5.42722e-08
1.82764e-07
2.78657e-07
2.48059e-07
2.87139e-07
2.62487e-07
3.19713e-07
1.98937e-07
1.2989e-08
2.42213e-07
1.46911e-07
9.15507e-08
1.34474e-07
7.51706e-08
5.96504e-08
2.66105e-08
1.75318e-08
2.98304e-08
2.11315e-08
6.34802e-08
8.75802e-08
7.81112e-08
7.7715e-08
8.58051e-08
1.18742e-07
1.45027e-07
1.21354e-07
9.9012e-08
1.21266e-07
1.29929e-07
9.1597e-08
9.67973e-08
3.40713e-08
2.73934e-08
1.06734e-07
4.75004e-08
4.35242e-08
3.46052e-08
4.76283e-08
6.35933e-08
8.25896e-08
1.58485e-07
2.26233e-07
1.97093e-07
2.29119e-07
2.28072e-07
2.41984e-07
2.25538e-07
5.06503e-08
1.86503e-07
1.49324e-07
1.18271e-07
1.28887e-07
9.16367e-08
7.37294e-08
5.10637e-08
4.09319e-08
4.39284e-08
3.67494e-08
6.98241e-08
8.73837e-08
8.54755e-08
8.64868e-08
9.55473e-08
1.17994e-07
1.3364e-07
1.21186e-07
1.13512e-07
1.20029e-07
1.26821e-07
9.91174e-08
8.74743e-08
5.35209e-08
4.19096e-08
8.69757e-08
5.79917e-08
5.93778e-08
5.728e-08
6.81212e-08
8.4413e-08
1.02684e-07
1.45773e-07
1.85996e-07
1.7465e-07
1.941e-07
1.97676e-07
2.00499e-07
1.94408e-07
9.95967e-08
1.59187e-07
1.46644e-07
1.30446e-07
1.23701e-07
1.0014e-07
8.33271e-08
6.50532e-08
5.42715e-08
5.46956e-08
5.37503e-08
7.30222e-08
8.53684e-08
8.86014e-08
9.25909e-08
1.00108e-07
1.12346e-07
1.185e-07
1.12544e-07
1.09637e-07
1.10181e-07
1.11722e-07
9.42363e-08
8.48881e-08
7.24946e-08
5.71936e-08
7.78986e-08
6.71965e-08
6.93536e-08
7.38946e-08
7.8306e-08
8.82792e-08
1.03081e-07
1.25887e-07
1.4821e-07
1.52776e-07
1.61431e-07
1.63408e-07
1.61674e-07
1.55544e-07
1.25055e-07
1.41756e-07
1.38204e-07
1.2871e-07
1.21829e-07
1.0806e-07
9.44314e-08
8.21036e-08
7.50535e-08
7.41027e-08
7.47256e-08
8.332e-08
9.16737e-08
9.64904e-08
1.00655e-07
1.05368e-07
1.09713e-07
1.10695e-07
1.06626e-07
1.03872e-07
1.01693e-07
9.83509e-08
8.91858e-08
8.36923e-08
7.91763e-08
7.30077e-08
8.01497e-08
7.26282e-08
1.49055e-07
1.54894e-07
1.55599e-07
1.63608e-07
1.77814e-07
1.94595e-07
2.15768e-07
2.30531e-07
2.40297e-07
2.43037e-07
2.38975e-07
2.33012e-07
2.16636e-07
2.1603e-07
2.13541e-07
2.05824e-07
1.95846e-07
1.8229e-07
1.67984e-07
1.54149e-07
1.43683e-07
1.40173e-07
1.40402e-07
1.45209e-07
1.52123e-07
1.58257e-07
1.63132e-07
1.66173e-07
1.67599e-07
1.66755e-07
1.62712e-07
1.6141e-07
1.63335e-07
1.63883e-07
1.59661e-07
1.54817e-07
1.51782e-07
1.50311e-07
1.55693e-07
1.50151e-07
3.17044e-05
1.96156e-05
7.84158e-05
4.71187e-05
7.82636e-05
4.9496e-05
7.66979e-05
3.278e-05
0.000103716
2.10191e-05
7.5521e-05
4.38245e-05
7.0805e-05
3.37705e-05
5.0671e-05
3.71277e-05
6.92444e-05
7.13357e-05
3.19659e-05
4.4479e-05
8.27215e-05
2.43696e-05
6.84525e-05
4.45575e-05
4.67873e-05
8.04064e-05
9.41713e-05
5.61563e-05
4.73797e-05
7.43611e-05
3.49339e-05
4.65522e-05
3.5617e-05
6.70217e-05
6.24966e-05
8.34827e-05
4.21194e-05
4.53077e-05
3.35064e-05
4.15606e-05
4.65563e-05
4.54526e-05
8.96522e-05
6.47283e-05
8.85038e-05
5.01096e-05
6.15305e-05
3.03086e-05
9.1329e-05
2.9331e-05
5.61304e-05
4.72681e-05
8.58456e-05
3.3503e-05
5.87339e-05
3.71393e-05
5.03667e-05
8.90636e-05
4.80894e-05
4.28706e-05
7.83744e-05
2.67177e-05
7.18033e-05
5.62511e-05
4.77292e-05
6.76261e-05
0.000104181
4.32579e-05
4.8357e-05
8.12237e-05
5.4032e-05
5.34341e-05
4.55818e-05
4.99546e-05
8.18082e-05
7.30979e-05
4.90092e-05
3.30881e-05
3.10433e-05
3.40804e-05
4.23743e-05
4.8925e-05
0.000148008
7.38327e-05
8.93469e-05
6.17918e-05
6.43374e-05
6.61046e-05
0.000120463
3.87256e-05
7.37839e-05
6.97126e-05
7.86178e-05
4.65296e-05
6.19104e-05
4.31451e-05
0.000116016
8.87744e-05
3.48551e-05
4.97902e-05
0.000110736
3.15905e-05
9.31631e-05
5.58942e-05
6.847e-05
7.47408e-05
0.000132464
5.42235e-05
6.28801e-05
6.65458e-05
4.15774e-05
8.92953e-05
4.40955e-05
6.19089e-05
7.33578e-05
7.5402e-05
6.03793e-05
3.95572e-05
3.29212e-05
7.04879e-05
7.15247e-05
4.38513e-05
0.000114413
6.61789e-05
0.000107938
8.05555e-05
0.000105609
7.84326e-05
0.000184269
6.34316e-05
9.87455e-05
0.000103192
0.000106593
6.69962e-05
7.61827e-05
4.51469e-05
0.000120492
0.000120796
6.23885e-05
6.0337e-05
0.000117617
6.48783e-05
0.000141151
8.82624e-05
7.88459e-05
0.000127317
0.000121573
9.06238e-05
7.9584e-05
0.000120875
4.78815e-05
0.000103939
8.04772e-05
0.000112973
7.26364e-05
0.000104149
8.17199e-05
0.000104495
5.08783e-05
8.90476e-05
6.70673e-05
4.17539e-05
8.95774e-05
6.97911e-05
0.000110507
5.15895e-05
8.59321e-05
3.90074e-05
0.000147715
4.14402e-05
0.000108087
0.000105627
0.000100813
6.31898e-05
5.78502e-05
5.55835e-05
0.000114816
0.000101878
5.95455e-05
6.23003e-05
8.91556e-05
4.85927e-05
0.000128542
7.78751e-05
8.39073e-05
0.000102513
0.000134191
0.000106944
8.12454e-05
0.000115762
6.34697e-05
5.47391e-05
7.59478e-05
0.000112022
9.27685e-05
0.000120161
8.82824e-05
9.2957e-05
6.32179e-05
8.69523e-05
5.21282e-05
2.85158e-05
6.77766e-05
5.93493e-05
0.000117859
7.07866e-05
7.23731e-05
6.54158e-05
9.85147e-05
3.86274e-05
0.000133263
8.03457e-05
0.000100332
4.55741e-05
4.74823e-05
4.87505e-05
0.00013451
0.000110503
5.19689e-05
6.34339e-05
5.80462e-05
4.85758e-05
8.3804e-05
7.20328e-05
0.000104899
0.000103852
0.000120224
0.000112459
7.84674e-05
0.000106114
6.55086e-05
3.93844e-05
6.30739e-05
9.00285e-05
7.68336e-05
9.76059e-05
9.03991e-05
6.78406e-05
7.41926e-05
5.95893e-05
4.20076e-05
3.48767e-05
9.33391e-05
7.37009e-05
0.000129765
5.77483e-05
8.92709e-05
8.73843e-05
0.00011856
4.53663e-05
0.000142832
5.22985e-05
0.000141231
3.70606e-05
4.36676e-05
5.01249e-05
7.33622e-05
0.00010558
3.80292e-05
6.76754e-05
6.97726e-05
5.86691e-05
9.83702e-05
7.58975e-05
9.37825e-05
0.000108831
0.000118939
9.95184e-05
9.44701e-05
8.70371e-05
5.47422e-05
4.5903e-05
8.87733e-05
7.52968e-05
5.9399e-05
6.74785e-05
9.54397e-05
8.15819e-05
6.5026e-05
6.38464e-05
4.29034e-05
5.76889e-05
0.000138928
0.00010416
0.0001248
5.44052e-05
9.80168e-05
8.97541e-05
0.000151534
3.83385e-05
0.000114969
5.61866e-05
0.000149892
2.82638e-05
4.60737e-05
5.03725e-05
5.50734e-05
6.87577e-05
3.13831e-05
3.66643e-05
8.25563e-05
4.56127e-05
9.9787e-05
6.0353e-05
6.04475e-05
8.2533e-05
0.000134905
8.02863e-05
7.03642e-05
8.32966e-05
5.05299e-05
4.17103e-05
9.4338e-05
5.67598e-05
5.18703e-05
5.0777e-05
9.91801e-05
8.26452e-05
6.40328e-05
4.84004e-05
3.29675e-05
5.08179e-05
0.000123077
8.07011e-05
0.000136041
9.97045e-05
8.21036e-05
0.000120277
0.000180743
5.90878e-05
7.1943e-05
7.48588e-05
0.000108468
2.10965e-05
6.52589e-05
4.52562e-05
7.25077e-05
5.60223e-05
3.91067e-05
4.85066e-05
7.53007e-05
3.30276e-05
8.3461e-05
5.82843e-05
7.07522e-05
7.02651e-05
0.000106597
8.76568e-05
4.82511e-05
9.3235e-05
6.44701e-05
5.49559e-05
5.81557e-05
6.70083e-05
3.80484e-05
4.94257e-05
0.000133714
9.11255e-05
3.56864e-05
3.98688e-05
4.6043e-05
2.45522e-05
9.37268e-05
6.66591e-05
0.000113587
0.000106545
5.95343e-05
9.50252e-05
0.000206542
0.000105301
6.33175e-05
5.30786e-05
0.000141286
5.2381e-05
4.32437e-05
4.90376e-05
6.5856e-05
6.37752e-05
2.9837e-05
7.3451e-05
6.46468e-05
5.32056e-05
7.31415e-05
6.53296e-05
3.96552e-05
4.06344e-05
0.000102275
9.62325e-05
6.09233e-05
6.94725e-05
5.44201e-05
7.27169e-05
8.41665e-05
0.000101602
8.45786e-05
4.25005e-05
0.000153082
9.10618e-05
4.46167e-05
4.0345e-05
5.12641e-05
5.36507e-05
8.37152e-05
7.68749e-05
0.000120314
6.98263e-05
7.87682e-05
7.89054e-05
0.000149719
0.000100404
7.22373e-05
5.02299e-05
0.000128365
4.49921e-05
6.0396e-05
6.88117e-05
7.39247e-05
9.9261e-05
4.80605e-05
8.3963e-05
7.20497e-05
6.61849e-05
5.20501e-05
7.82765e-05
4.38082e-05
6.00407e-05
0.000120205
9.44916e-05
8.20489e-05
8.50126e-05
4.25328e-05
7.62235e-05
8.51108e-05
8.59081e-05
0.000100314
5.77952e-05
0.000165122
9.3084e-05
4.93466e-05
4.41788e-05
4.18316e-05
4.39465e-05
6.63211e-05
7.79701e-05
8.53551e-05
7.39326e-05
6.2811e-05
4.70202e-05
0.000149243
7.93616e-05
7.42764e-05
4.82296e-05
0.000108914
3.1591e-05
5.65036e-05
7.57046e-05
8.88889e-05
6.80032e-05
7.70466e-05
7.40559e-05
7.70721e-05
5.85692e-05
0.000126447
8.71164e-05
8.2886e-05
7.0632e-05
0.000109221
0.000115895
7.55017e-05
6.81517e-05
4.81412e-05
4.47864e-05
5.56904e-05
6.04451e-05
0.000110246
6.19283e-05
0.000107383
7.33901e-05
6.22219e-05
5.72387e-05
6.48016e-05
4.07834e-05
6.15679e-05
6.46787e-05
0.000119087
9.56903e-05
4.79165e-05
6.20931e-05
0.000144658
0.000103988
5.73782e-05
7.06429e-05
9.97498e-05
2.81798e-05
3.40072e-05
7.46481e-05
0.000105441
6.70304e-05
7.0511e-05
7.46566e-05
7.41938e-05
3.72702e-05
0.00012615
9.02517e-05
0.000115088
5.03221e-05
0.000111588
0.000116684
0.00010815
5.08983e-05
5.04106e-05
3.12347e-05
4.16236e-05
6.96505e-05
7.77453e-05
7.7427e-05
4.87212e-05
7.53944e-05
8.26673e-05
5.13695e-05
6.63769e-05
6.28593e-05
3.89903e-05
8.55874e-05
0.00010122
4.58268e-05
4.98027e-05
5.44292e-05
9.89112e-05
5.12972e-05
6.71226e-05
7.24297e-05
6.79756e-05
1.58978e-05
3.13066e-05
4.7092e-05
5.72659e-05
6.12355e-05
3.49346e-05
8.96229e-05
5.57166e-05
4.41198e-05
8.09067e-05
3.93339e-05
8.73677e-05
4.22218e-05
6.74224e-05
6.29977e-05
8.65641e-05
5.49546e-05
3.37355e-05
3.12398e-05
2.30054e-05
5.14236e-05
8.68136e-05
0.000112176
5.05328e-05
7.42841e-05
4.8929e-05
5.33285e-05
5.67231e-05
3.92286e-05
2.60505e-05
6.0983e-05
5.98048e-05
6.36518e-05
3.9271e-05
2.60411e-05
9.97461e-05
0.000103362
4.80103e-05
6.40099e-05
0.000100004
2.65121e-05
3.48859e-05
5.55737e-05
5.24333e-05
2.92568e-05
4.47002e-05
0.00011994
5.94386e-05
3.88312e-05
6.97937e-05
5.7373e-05
8.20929e-05
3.25324e-05
3.76011e-05
7.18196e-05
5.84118e-05
5.30991e-05
2.59655e-05
2.49489e-05
2.76028e-05
3.58575e-05
5.94956e-05
0.000119554
4.62782e-05
6.13628e-05
3.22475e-05
5.39672e-05
2.27751e-05
2.55339e-05
2.12039e-05
6.2601e-05
7.05653e-05
4.02466e-05
2.26196e-05
2.40334e-05
4.81043e-05
7.5835e-05
5.09363e-05
2.20965e-05
0.000112571
5.08568e-05
2.40338e-05
4.00743e-05
4.39385e-05
2.76045e-05
2.74868e-05
0.000121447
8.5327e-05
4.55514e-05
2.95602e-05
7.74427e-05
3.40726e-05
3.6958e-05
4.12307e-05
3.23209e-05
3.08445e-05
6.95305e-05
2.79558e-05
7.7276e-05
2.50876e-05
3.98237e-05
9.01203e-05
4.10054e-05
5.50136e-05
4.48773e-05
3.53674e-05
2.48565e-05
1.55209e-05
2.02783e-05
1.33578e-05
4.69042e-05
2.41391e-05
3.26881e-05
1.07805e-05
1.667e-05
4.51597e-05
3.96403e-05
3.73821e-05
9.13095e-06
3.01348e-05
1.90511e-05
3.86934e-05
3.73914e-05
4.16671e-05
1.19297e-05
1.46321e-05
7.24325e-05
3.98274e-05
4.34619e-05
3.44616e-05
2.22077e-05
2.18368e-05
5.1184e-05
2.36521e-05
2.23219e-05
1.57724e-05
1.90794e-05
2.76487e-05
6.16857e-05
1.98137e-05
1.9665e-05
8.45958e-05
5.89335e-05
5.18466e-05
4.00328e-05
3.43379e-05
1.78442e-05
1.62013e-05
8.39468e-06
1.07116e-05
3.66124e-05
2.28024e-05
2.31471e-05
1.18317e-05
1.43158e-05
2.28862e-05
3.81215e-05
3.84851e-05
8.73386e-06
1.98723e-05
2.45068e-05
3.67003e-05
3.87154e-05
2.64536e-05
1.02085e-05
2.60576e-05
3.93607e-05
2.61242e-05
1.48093e-05
9.5181e-06
1.97255e-05
1.76906e-05
1.61538e-05
2.11599e-05
9.37127e-06
2.91239e-06
1.93218e-05
1.57384e-05
2.32177e-05
1.36697e-05
1.07083e-05
2.47602e-05
5.28096e-05
3.89274e-05
2.57888e-05
1.3867e-05
2.66374e-05
4.72693e-06
7.02521e-06
4.03394e-06
1.86465e-05
2.48779e-05
1.72374e-05
7.71204e-06
9.86646e-06
1.31252e-05
1.36031e-05
3.53129e-05
4.9834e-06
1.43142e-05
1.6364e-05
2.1483e-05
2.48396e-05
9.25832e-06
1.02401e-05
2.07971e-05
1.76086e-05
9.53556e-06
1.22752e-05
2.10511e-05
4.70837e-06
1.23719e-05
1.86138e-05
1.02105e-05
1.55455e-05
1.20726e-05
1.75926e-05
7.04788e-06
1.87253e-05
3.77009e-06
1.77571e-05
2.71928e-05
1.6397e-05
3.64847e-05
2.97662e-05
1.12162e-05
7.07107e-06
6.91392e-06
3.32622e-06
5.33887e-06
3.74936e-06
1.92129e-05
7.98511e-06
3.40182e-06
6.79105e-06
6.06785e-06
7.35554e-06
2.82005e-05
4.74885e-06
1.73982e-06
8.14368e-06
9.30519e-06
8.45841e-06
4.43589e-06
2.96927e-06
3.88354e-06
1.23394e-05
4.38464e-06
4.09721e-06
1.83375e-05
1.17873e-06
6.47955e-06
3.33638e-06
3.7662e-06
4.95349e-06
3.86714e-06
1.09332e-05
5.7826e-06
1.91113e-06
4.7214e-06
2.60491e-06
6.00573e-06
2.70984e-05
3.59352e-05
9.68651e-06
3.3957e-06
5.55393e-06
6.27269e-06
2.21423e-06
5.03103e-06
1.64906e-06
5.09432e-06
1.86336e-06
3.83865e-06
2.93282e-06
1.02645e-06
2.23597e-06
1.85399e-05
3.13352e-06
1.69705e-06
6.46499e-06
7.24735e-06
5.86658e-06
1.46443e-06
4.24545e-06
4.21991e-06
5.41674e-06
2.08385e-06
3.19505e-06
1.30556e-05
1.14964e-06
3.00341e-06
2.19829e-06
1.98122e-06
2.08635e-06
2.32525e-06
5.51626e-06
2.79112e-06
1.88026e-06
4.6142e-06
1.76334e-06
5.77977e-06
9.12681e-06
1.89165e-05
6.62802e-06
1.24386e-06
7.07887e-07
3.3034e-06
1.04718e-06
4.51882e-06
7.33376e-07
2.74055e-06
7.16036e-07
1.1269e-06
7.92889e-07
7.79995e-07
1.32163e-06
9.43114e-06
4.54267e-06
6.28908e-07
2.26236e-06
4.75541e-06
3.36181e-06
8.63881e-07
1.43937e-06
5.71757e-07
1.81655e-06
1.42031e-06
2.33253e-06
3.93009e-06
3.65392e-07
1.61638e-06
1.67761e-06
3.36531e-06
5.66273e-07
4.78651e-07
9.58188e-07
1.59821e-06
5.27129e-07
2.07315e-06
6.00643e-07
3.78007e-06
1.13541e-05
8.30774e-06
3.71583e-06
7.44007e-07
6.36532e-07
1.12576e-06
2.08328e-07
2.41238e-06
7.8697e-07
1.34091e-06
3.3592e-07
7.04336e-07
3.62419e-07
2.75116e-07
4.25492e-07
3.03015e-06
3.22197e-06
3.0469e-07
1.05256e-06
8.01353e-07
2.79484e-06
7.41974e-07
1.15282e-06
6.01466e-07
9.77836e-07
8.7149e-07
6.2209e-07
1.05355e-06
2.59285e-07
7.31524e-07
8.35155e-07
8.10971e-07
2.20608e-07
3.26011e-07
1.60768e-06
6.67975e-07
5.16541e-07
3.07633e-07
4.10876e-07
1.8989e-06
7.45156e-06
6.31163e-06
1.05612e-06
3.81684e-07
4.13824e-07
6.05909e-07
2.62553e-07
6.89504e-07
6.40495e-07
6.91697e-07
1.25012e-07
6.76009e-07
4.75103e-07
2.3031e-07
2.91961e-07
2.05409e-06
3.01857e-06
3.99316e-07
3.27892e-07
4.02925e-07
5.57311e-07
4.76727e-07
2.89281e-07
3.20162e-07
7.42972e-07
3.36873e-07
1.56071e-07
3.40359e-07
1.9308e-07
1.6359e-07
5.64104e-07
4.05753e-07
2.28804e-07
3.193e-07
2.31061e-07
3.07651e-07
2.22734e-07
1.7193e-07
4.26793e-07
9.92878e-07
5.46211e-06
5.09477e-06
1.00229e-06
2.22076e-07
1.33875e-07
2.35274e-07
8.33123e-08
1.13121e-07
1.63317e-07
2.06761e-07
1.21098e-07
5.22223e-07
6.31503e-07
1.87373e-07
1.41302e-07
3.247e-07
1.5924e-06
1.49823e-07
1.71505e-07
3.72541e-07
1.19957e-07
2.11663e-07
2.08506e-07
1.78446e-07
3.37376e-07
1.26062e-07
1.5159e-07
1.47451e-07
1.21286e-07
1.62908e-07
2.71432e-07
1.71457e-07
2.08414e-07
2.90888e-07
7.41002e-07
6.94762e-07
1.46041e-07
2.17973e-07
1.56026e-07
1.80688e-07
8.24875e-07
2.29593e-06
2.12091e-07
1.16159e-07
1.23094e-07
1.47089e-07
1.67821e-07
1.32919e-07
9.84726e-08
9.45035e-08
1.57879e-07
3.29709e-07
3.8991e-07
2.50131e-07
1.25086e-07
1.67388e-07
1.0051e-06
1.28879e-07
1.0542e-07
1.76802e-07
1.01931e-07
1.16166e-07
1.25272e-07
1.21778e-07
1.58679e-07
1.04142e-07
1.26366e-07
1.19472e-07
1.08812e-07
1.05206e-07
1.39109e-07
1.21288e-07
1.74079e-07
3.14125e-07
3.81243e-07
3.42562e-07
1.17782e-07
1.60839e-07
1.35078e-07
1.13363e-07
3.45352e-07
6.11248e-07
1.52195e-07
9.05211e-08
1.12137e-07
9.12526e-08
1.08435e-07
1.61318e-07
1.61956e-07
1.26473e-07
1.85583e-07
2.09722e-07
2.66339e-07
2.71439e-07
1.3037e-07
1.32833e-07
2.84167e-07
1.46168e-07
1.29367e-07
2.14919e-07
2.0931e-07
1.57415e-07
1.58993e-07
1.45219e-07
1.17641e-07
1.29368e-07
1.00129e-07
1.22828e-07
1.30429e-07
1.17337e-07
1.12391e-07
1.18811e-07
2.28678e-07
2.78271e-07
3.33316e-07
4.02765e-07
2.16898e-07
2.02109e-07
1.94627e-07
1.41308e-07
9.89689e-08
1.35998e-07
1.01677e-07
9.61674e-08
1.27025e-07
9.03584e-08
1.0245e-07
1.32632e-07
1.45664e-07
1.20607e-07
1.57235e-07
1.4112e-07
1.65933e-07
2.01651e-07
1.27931e-07
1.45459e-07
1.36825e-07
1.08169e-07
1.21942e-07
1.31673e-07
1.37317e-07
1.20409e-07
1.15012e-07
1.08052e-07
9.77248e-08
1.01784e-07
9.49874e-08
1.11789e-07
1.20957e-07
1.21181e-07
1.291e-07
1.35688e-07
1.70036e-07
2.02264e-07
2.07495e-07
2.29873e-07
1.63613e-07
1.41176e-07
1.22892e-07
1.09384e-07
9.35797e-08
1.03987e-07
9.67649e-08
8.3167e-08
1.026e-07
1.30386e-07
1.28282e-07
1.54732e-07
1.79123e-07
1.71958e-07
1.91687e-07
1.81129e-07
1.99573e-07
2.21529e-07
1.78914e-07
1.91667e-07
1.16002e-07
1.59636e-07
1.83923e-07
2.004e-07
2.07907e-07
1.81873e-07
1.67294e-07
1.56322e-07
1.31406e-07
1.3621e-07
1.2405e-07
1.34838e-07
1.44362e-07
1.42862e-07
1.476e-07
1.58218e-07
1.94183e-07
2.16614e-07
2.2165e-07
2.33392e-07
2.09329e-07
1.82355e-07
1.68528e-07
1.43555e-07
1.24444e-07
1.11637e-07
1.23879e-07
1.20226e-07
1.32341e-07
1.05992e-07
9.64713e-08
1.08191e-07
1.16416e-07
1.14425e-07
1.21687e-07
1.22431e-07
1.31771e-07
1.40136e-07
1.31113e-07
1.32717e-07
1.13914e-07
1.22494e-07
1.25262e-07
1.24705e-07
1.23714e-07
1.16732e-07
1.12306e-07
1.09004e-07
1.04676e-07
1.0557e-07
1.06727e-07
1.11139e-07
1.15945e-07
1.19223e-07