/*--------------------------------*- C++ -*----------------------------------*\
  =========                 |
  \\      /  F ield         | OpenFOAM: The Open Source CFD Toolbox
   \\    /   O peration     | Website:  https://openfoam.org
    \\  /    A nd           | Version:  10
     \\/     M anipulation  |
\*---------------------------------------------------------------------------*/
FoamFile
{
    format      ascii;
    class       volVectorField;
    location    "7";
    object      U;
}
// * * * * * * * * * * * * * * * * * * * * * * * * * * * * * * * * * * * * * //

dimensions      [0 1 -1 0 0 0 0];

internalField   nonuniform List<vector> 
25600
(
(1.02927 -0.00113059 -0.00021863)
(1.02927 0.000795013 -9.52118e-05)
(1.02803 -0.000315093 0.000404892)
(1.02904 -0.000817682 -0.000366245)
(1.02919 0.00041054 0.000198942)
(1.02839 -0.000873162 5.83125e-05)
(1.02885 -1.36819e-05 -0.000257825)
(1.02904 -0.000645186 0.000268248)
(1.02884 -0.000395765 -0.000289991)
(1.02885 0.000236705 9.1594e-05)
(1.02872 -0.00103109 0.000133723)
(1.02873 0.000487058 -0.000381103)
(1.02908 -0.000208196 0.000401595)
(1.02839 -0.00033697 -0.000145839)
(1.02859 0.00053765 -0.000245135)
(1.0293 -0.000354869 0.000468486)
(1.02813 0.000604996 -0.000237283)
(1.02857 -6.84156e-05 -3.69265e-05)
(1.02893 0.000102702 0.000310645)
(1.02804 0.000798168 -0.000101917)
(1.02886 -0.000357404 8.06099e-05)
(1.02855 0.000685614 0.000106357)
(1.0281 0.000155317 -7.85067e-05)
(1.02893 -0.000299765 0.000187812)
(1.02838 0.000869892 2.67819e-05)
(1.02831 -0.000286494 -0.000159516)
(1.02891 9.24548e-05 0.000277692)
(1.02842 0.000575352 -9.7687e-05)
(1.02857 -0.000287108 -0.000129805)
(1.0288 0.000308439 0.000261493)
(1.02868 0.000204588 -0.000191399)
(1.02883 -5.02299e-05 -2.32026e-05)
(1.02853 8.26428e-05 5.9371e-05)
(1.02875 0.000252372 -3.61054e-05)
(1.02902 -6.11963e-05 -6.67671e-05)
(1.0288 -0.000129813 -0.000248666)
(1.02874 0.000484426 0.000386946)
(1.02905 -0.000658243 -0.000119984)
(1.02904 0.000215019 -0.000364458)
(1.02839 0.000337312 0.00056947)
(1.02953 -0.000453456 -0.000395703)
(1.02943 0.00063569 0.000188767)
(1.02746 -0.000758376 0.000312465)
(1.02939 2.36834e-05 -0.000375131)
(1.02897 -0.000136075 0.000460963)
(1.02835 -0.000858076 -0.000294821)
(1.02892 0.000180149 -7.20995e-07)
(1.02882 -0.0010139 0.000266977)
(1.02934 -5.86404e-05 -0.000566156)
(1.0285 -5.06101e-05 0.000440889)
(1.02884 -0.0008601 -9.29109e-05)
(1.02917 0.00057973 -0.000368228)
(1.02863 -0.000308966 0.000521753)
(1.02875 -0.000232304 -0.000402595)
(1.0287 0.000556285 -2.4869e-05)
(1.02918 -0.000107109 0.000314873)
(1.02829 0.000261222 -0.000336794)
(1.02844 0.000247909 0.0001783)
(1.02918 0.000177982 0.000135012)
(1.02792 0.000506663 -1.52557e-05)
(1.02878 0.000105417 9.31688e-05)
(1.02873 0.000359271 1.47915e-05)
(1.02776 0.000252059 7.64899e-05)
(1.02911 -3.77922e-05 7.04867e-05)
(1.02842 0.000341916 1.04025e-05)
(1.02809 7.54411e-05 1.69078e-05)
(1.02913 0.000197041 9.46136e-05)
(1.02829 5.29137e-05 -9.40576e-05)
(1.02858 0.000150484 9.48281e-05)
(1.0289 0.000244095 2.16051e-05)
(1.02854 7.92624e-06 -0.000150034)
(1.0288 0.000277181 0.000188365)
(1.02862 -0.000259096 -0.000233271)
(1.02875 0.000393585 7.21323e-05)
(1.02879 -1.91692e-05 6.3815e-05)
(1.02903 -0.000317609 -0.000456863)
(1.02857 0.000511838 0.000532308)
(1.02891 -0.000617015 -0.000181304)
(1.02941 0.000216177 -0.000312945)
(1.0279 -4.35052e-05 0.000683334)
(1.02986 0.000465659 -0.000482382)
(1.02903 0.000197176 0.00061005)
(1.02747 -0.000967066 -1.43473e-05)
(1.02959 0.000869324 -0.000139015)
(1.02844 -0.000906372 0.000606669)
(1.02865 -0.000492805 -0.000665141)
(1.02873 -0.000114688 0.000431495)
(1.02882 -0.00111834 -4.08565e-06)
(1.02968 0.000315088 -0.000654701)
(1.02816 -0.000804436 0.000740098)
(1.02925 -0.000130644 -0.000473733)
(1.02923 0.000385144 -0.000139411)
(1.02837 -0.000524677 0.000477367)
(1.02914 0.000227893 -0.000596834)
(1.0287 0.00029207 0.000252694)
(1.02905 0.000142631 -1.48265e-07)
(1.02844 3.36277e-05 -0.000230322)
(1.02848 0.000452791 0.000330412)
(1.02916 0.000279621 -7.03849e-05)
(1.02797 0.000245925 0.000162394)
(1.02873 0.000552114 6.85014e-05)
(1.02869 0.000125974 -1.10847e-05)
(1.02773 0.000260687 0.000155438)
(1.02902 0.000280332 1.38598e-05)
(1.02847 -8.95261e-05 2.55659e-05)
(1.02817 0.000386089 0.000124272)
(1.02891 0.0002548 -2.54038e-06)
(1.02837 -0.00037221 -0.000117133)
(1.02873 0.000674424 0.000283187)
(1.02869 -8.53762e-05 -0.000196667)
(1.02869 7.96512e-05 -9.31882e-05)
(1.02861 0.000545981 0.000338524)
(1.02864 -0.000726897 -0.000463126)
(1.02895 0.000735462 0.000194994)
(1.02841 -0.000165796 6.05658e-05)
(1.02926 -0.000288267 -0.000495962)
(1.02848 0.000389689 0.000580754)
(1.0288 -0.000612363 -0.000314046)
(1.02955 0.000291089 -7.1799e-06)
(1.02779 -0.000533677 0.000573535)
(1.03011 0.00134148 -0.00037293)
(1.02832 -0.000423919 0.000940106)
(1.02797 -0.000618401 -0.000338815)
(1.02945 0.00125282 0.000296571)
(1.0279 -0.00146544 0.000510273)
(1.02897 -8.40931e-05 -0.000814772)
(1.02843 -0.000845508 0.000776694)
(1.02914 -0.000771512 -0.000442643)
(1.02961 0.00021457 -0.00042161)
(1.02813 -0.00133687 0.000797579)
(1.02977 0.000718151 -0.000782238)
(1.02888 -0.000137975 0.000223997)
(1.02848 -0.000394501 0.000197644)
(1.0294 0.00043297 -0.000616929)
(1.02863 9.01015e-05 0.000384949)
(1.02898 0.000328834 -0.000278716)
(1.02853 -0.000180497 8.12454e-06)
(1.02862 0.000659626 0.000305794)
(1.02902 0.000264335 -8.70573e-05)
(1.02813 0.000195443 0.00033748)
(1.02869 0.000839894 3.78935e-05)
(1.0285 5.40327e-05 4.98522e-05)
(1.02787 0.000196454 0.000129898)
(1.02884 0.000569435 6.61139e-05)
(1.0285 -0.000280974 -1.46153e-05)
(1.02835 0.000447272 0.000157887)
(1.02854 0.000284327 8.01772e-06)
(1.02861 -0.000553488 -0.000166691)
(1.02881 0.00100221 0.000385596)
(1.02843 -0.000407752 -0.000351524)
(1.02903 0.000432211 -2.31193e-05)
(1.02817 0.000462724 0.000388732)
(1.02877 -0.000912949 -0.000557721)
(1.02919 0.00106975 0.000266899)
(1.02798 -0.000460332 -1.67094e-05)
(1.02947 4.21384e-07 -0.000403146)
(1.02832 -9.24045e-05 0.000490269)
(1.02882 -0.000446777 -0.000383481)
(1.02948 0.000285611 0.000379465)
(1.02802 -0.00091061 0.000310644)
(1.03021 0.0019662 -8.31337e-05)
(1.02762 -0.000955703 0.0011526)
(1.02866 9.46914e-05 -0.000499419)
(1.02899 0.00111706 0.000751954)
(1.02748 -0.00165691 0.000275691)
(1.0291 5.05978e-05 -0.000737686)
(1.02823 -0.00156816 0.000875766)
(1.02958 -0.000382559 -0.000839268)
(1.02929 -0.000255663 -9.33852e-05)
(1.0285 -0.00128848 0.000557887)
(1.03012 0.00110792 -0.000914468)
(1.02843 -0.000489975 0.000515195)
(1.02877 -5.4234e-05 -0.000127803)
(1.02949 0.0002406 -0.000514116)
(1.02862 0.000211816 0.000344893)
(1.02886 0.000200028 -0.000397407)
(1.02867 -0.000285365 0.000226625)
(1.0288 0.000834469 0.000214036)
(1.02883 0.000144093 9.38885e-05)
(1.02838 0.000341073 0.000433147)
(1.02863 0.00103802 6.80588e-05)
(1.02823 6.7506e-05 0.000111788)
(1.0281 8.14665e-05 4.75718e-05)
(1.02868 0.000962479 0.000204539)
(1.02839 -0.000497891 -0.000105769)
(1.02857 0.000461678 0.000223511)
(1.02819 0.00026193 5.3074e-05)
(1.02888 -0.000654719 -0.000240477)
(1.02883 0.00122798 0.000405178)
(1.02827 -0.000610676 -0.000447282)
(1.02932 0.000845548 6.38031e-05)
(1.02764 9.68554e-05 0.000379678)
(1.02906 -0.000650104 -0.000558371)
(1.02927 0.00116645 0.000297821)
(1.02764 -0.000663942 -0.000126671)
(1.02952 0.000330477 -0.000284749)
(1.02815 -0.000816956 0.000398412)
(1.02905 -3.41313e-05 -0.000345207)
(1.02922 4.92683e-06 0.000725662)
(1.02853 -0.000959039 5.15888e-05)
(1.03012 0.00224111 0.000301422)
(1.02708 -0.00116934 0.00129718)
(1.02932 0.000912732 -0.000496675)
(1.02831 0.000709747 0.00118696)
(1.02719 -0.00161766 6.3624e-05)
(1.02903 -6.6746e-05 -0.000572264)
(1.02814 -0.0021775 0.000744427)
(1.02999 -0.000245727 -0.00111206)
(1.02901 -0.000672681 0.000170183)
(1.02901 -0.00105082 0.000214465)
(1.0303 0.00106419 -0.000889115)
(1.02811 -0.000374635 0.000659524)
(1.02896 7.29457e-05 -0.000422874)
(1.02957 -6.62773e-05 -0.000415607)
(1.0286 0.000453441 0.0001923)
(1.02865 -0.000205463 -0.000368688)
(1.02894 -0.000208171 0.000371824)
(1.02891 0.000780503 0.000165956)
(1.02869 9.36559e-05 0.000412461)
(1.02871 0.000595585 0.000508861)
(1.02851 0.00124162 0.000187663)
(1.02788 -1.67383e-05 0.000123524)
(1.02845 0.000133173 -1.44384e-05)
(1.02846 0.00139846 0.0003282)
(1.02817 -0.000853932 -0.000231803)
(1.02884 0.000747278 0.000355141)
(1.02781 -5.52341e-05 9.63535e-05)
(1.02923 -0.000599308 -0.000331009)
(1.02883 0.00146321 0.000340264)
(1.02817 -0.000759553 -0.000486865)
(1.02949 0.0012083 0.000146009)
(1.02719 -0.000296199 0.000356872)
(1.02945 -5.182e-05 -0.000521438)
(1.02918 0.00102632 0.000326652)
(1.02743 -0.000670243 -0.00024291)
(1.02937 0.00040178 -0.000220344)
(1.02807 -0.00146207 0.00033565)
(1.02935 0.000429187 -0.000242102)
(1.02887 -0.000522319 0.00101317)
(1.02928 -0.000647996 -0.000115158)
(1.0299 0.0022963 0.000779524)
(1.02681 -0.000952533 0.00143748)
(1.02978 0.00168597 -0.000329925)
(1.02749 0.000286222 0.00163944)
(1.02699 -0.0014452 -0.000123443)
(1.02876 -0.000349653 -0.000461926)
(1.0281 -0.00290073 0.000529078)
(1.03045 -0.000272154 -0.00129998)
(1.02879 -0.000912747 0.000262137)
(1.02951 -0.000911649 -0.000137876)
(1.03051 0.00098835 -0.00082131)
(1.02783 1.36468e-05 0.000663986)
(1.02895 -5.97297e-05 -0.000634953)
(1.02971 -0.000308366 -0.000375346)
(1.02853 0.000482921 -3.364e-05)
(1.02846 -0.000648188 -0.000251218)
(1.02925 -0.000121007 0.000430937)
(1.02897 0.000506039 0.000183762)
(1.02871 0.000178514 0.000817508)
(1.02905 0.000878233 0.000600819)
(1.02826 0.00144874 0.000389226)
(1.02756 -0.000238371 0.000124354)
(1.02892 0.000513501 -7.07502e-05)
(1.02809 0.00162079 0.000400898)
(1.02799 -0.00116602 -0.000309795)
(1.02904 0.00117238 0.00055445)
(1.02738 -0.000710973 0.000137533)
(1.02976 -0.00025976 -0.000501168)
(1.02873 0.00162525 0.000199912)
(1.02811 -0.000811138 -0.000522387)
(1.02959 0.00144685 0.000255142)
(1.02688 -0.000570216 0.000361553)
(1.02984 0.000688793 -0.000461636)
(1.02891 0.000756216 0.000397491)
(1.02726 -0.000489193 -0.000445782)
(1.02905 0.000163475 -0.000190964)
(1.02815 -0.00184755 0.000357349)
(1.02961 0.000663668 -4.46504e-05)
(1.02857 -0.00110456 0.00129936)
(1.03015 -0.00013491 -0.000205352)
(1.02965 0.00243418 0.00135895)
(1.02672 -0.00035051 0.00157854)
(1.02999 0.00231266 -3.31931e-05)
(1.02661 -9.34753e-05 0.00211736)
(1.02682 -0.00111449 -0.000291122)
(1.02823 -0.000807685 -0.000445936)
(1.02815 -0.00381931 0.000261729)
(1.03103 -0.000343509 -0.00150693)
(1.02864 -0.00123538 0.000148763)
(1.03001 -0.000846915 -0.000486749)
(1.03077 0.00106884 -0.000777275)
(1.02752 0.000524965 0.000537197)
(1.02878 -0.000384052 -0.000783418)
(1.02985 -0.000641275 -0.000448808)
(1.0284 0.000297961 -0.000367408)
(1.02831 -0.000971535 -7.49545e-05)
(1.02954 -0.000271447 0.000410942)
(1.02905 6.15315e-05 0.000305032)
(1.02887 0.000361807 0.00131301)
(1.02938 0.00124969 0.000744357)
(1.0279 0.00153679 0.000733251)
(1.02736 -0.000470346 0.000168621)
(1.02943 0.00113533 -0.000183425)
(1.02754 0.00158638 0.000447841)
(1.02791 -0.00115137 -0.000327359)
(1.02908 0.00149846 0.000847538)
(1.02702 -0.00156996 0.000173879)
(1.03046 0.000248901 -0.000806836)
(1.02852 0.0017187 -1.22761e-05)
(1.02806 -0.000760515 -0.000556636)
(1.0296 0.00154795 0.00041058)
(1.02676 -0.00044933 0.000376013)
(1.03016 0.00145264 -0.000343632)
(1.02854 0.000484966 0.000522329)
(1.0271 -0.000288897 -0.000744255)
(1.02863 -0.000317855 -0.000158147)
(1.02832 -0.00198301 0.000425692)
(1.02974 0.000594861 0.000242364)
(1.02842 -0.00168339 0.00160178)
(1.03109 0.000315744 -0.000198745)
(1.02952 0.00283496 0.00203164)
(1.02671 0.000413775 0.00181099)
(1.0299 0.0028517 0.000397525)
(1.02578 -0.000295926 0.00262534)
(1.0266 -0.000642229 -0.000462888)
(1.02739 -0.00159821 -0.000551742)
(1.02827 -0.00490022 1.65077e-05)
(1.03167 -0.000535888 -0.00180732)
(1.02851 -0.0015863 -0.000142282)
(1.0306 -0.000794857 -0.00084399)
(1.03113 0.00120742 -0.000844984)
(1.02708 0.00117512 0.000274948)
(1.02836 -0.000830294 -0.000884429)
(1.03001 -0.00119757 -0.000653348)
(1.02833 -0.000166044 -0.000769464)
(1.02814 -0.00126735 2.19135e-05)
(1.02972 -0.000739052 0.000268884)
(1.02924 -0.000535686 0.000541398)
(1.02924 0.000702317 0.0018755)
(1.0296 0.00164336 0.000993059)
(1.02739 0.00144349 0.00125653)
(1.02732 -0.000494548 0.000201012)
(1.0299 0.00182168 -0.000376775)
(1.02693 0.00139911 0.000567486)
(1.0279 -0.000875562 -0.000258238)
(1.02881 0.00169031 0.00132516)
(1.02673 -0.00249233 0.000165887)
(1.03133 0.000816189 -0.00134014)
(1.02821 0.00198018 -0.000328056)
(1.028 -0.000748582 -0.000592639)
(1.0297 0.00151537 0.000604353)
(1.0268 -1.74544e-05 0.000385352)
(1.03028 0.00215169 -9.43619e-05)
(1.02804 0.000351052 0.000618538)
(1.02685 -0.000141714 -0.0011489)
(1.0282 -0.000984965 -8.40463e-05)
(1.02857 -0.00215287 0.000562015)
(1.02974 0.000311415 0.000723324)
(1.02841 -0.00230242 0.0019195)
(1.03213 0.000664578 -0.000148483)
(1.02947 0.00383352 0.00278466)
(1.02667 0.0013666 0.00203592)
(1.02964 0.00322981 0.000834595)
(1.025 -0.000401601 0.00322941)
(1.02617 0.000111473 -0.000655451)
(1.02622 -0.00238366 -0.000782033)
(1.0285 -0.0060956 -0.000295711)
(1.03241 -0.00110694 -0.00232758)
(1.02844 -0.00191852 -0.000705741)
(1.03119 -0.000819525 -0.00132529)
(1.03156 0.00163725 -0.00105217)
(1.02654 0.00206065 -0.000119103)
(1.02768 -0.00152736 -0.00108715)
(1.0301 -0.002099 -0.00112156)
(1.02831 -0.000841064 -0.00130604)
(1.02798 -0.00149684 8.2105e-05)
(1.02979 -0.00167028 0.000173821)
(1.02961 -0.00128921 0.000858231)
(1.02977 0.00130667 0.00245076)
(1.02965 0.00195814 0.00139875)
(1.02688 0.00123598 0.0020624)
(1.02745 -0.000397088 0.000245801)
(1.03021 0.00238074 -0.000614714)
(1.02628 0.00133149 0.000730521)
(1.02796 -0.000188863 -0.000147543)
(1.02829 0.00165406 0.00207253)
(1.02656 -0.00362988 0.000107111)
(1.03238 0.00149212 -0.00220028)
(1.02777 0.00243537 -0.000744096)
(1.02779 -0.000789051 -0.000576486)
(1.02986 0.0016393 0.000769538)
(1.02698 0.000761743 0.000338762)
(1.03027 0.00281174 0.000300705)
(1.02747 0.000345819 0.000710953)
(1.02647 -0.000162062 -0.00160175)
(1.02769 -0.00172235 -3.28377e-05)
(1.02885 -0.00232008 0.000771821)
(1.02964 -0.000223881 0.00144096)
(1.02854 -0.00323756 0.00225734)
(1.03332 0.00105479 4.88799e-06)
(1.02952 0.00516891 0.00370571)
(1.02635 0.00245291 0.00232495)
(1.02911 0.00359859 0.00120507)
(1.02443 -0.000528147 0.00383265)
(1.02567 0.000910558 -0.000967668)
(1.02466 -0.00337089 -0.00108538)
(1.02857 -0.00773726 -0.000522794)
(1.03316 -0.00184752 -0.00308471)
(1.02845 -0.00204215 -0.00149046)
(1.0319 -0.00117431 -0.00200245)
(1.03213 0.00220236 -0.00153081)
(1.02569 0.00310221 -0.000627098)
(1.02662 -0.00238557 -0.00129812)
(1.03023 -0.00360696 -0.00173229)
(1.02849 -0.0018499 -0.00214984)
(1.02767 -0.00169087 -0.00019757)
(1.02967 -0.00310211 -5.51233e-05)
(1.03029 -0.00208661 0.00119683)
(1.03043 0.00193522 0.00309949)
(1.02945 0.00186301 0.00200976)
(1.02631 0.0011136 0.00312592)
(1.02765 -3.25147e-05 0.000252259)
(1.03046 0.00276654 -0.000845129)
(1.02577 0.00132332 0.000993558)
(1.0279 0.000863517 0.000137069)
(1.0273 0.00160719 0.00324666)
(1.02653 -0.00498349 -0.000124827)
(1.03365 0.00243158 -0.00353952)
(1.02719 0.00322108 -0.00132693)
(1.02755 -0.00111874 -0.000566481)
(1.0302 0.00156027 0.000884651)
(1.02716 0.00175866 0.000278595)
(1.03002 0.00370951 0.000777527)
(1.02675 0.00034466 0.000707368)
(1.02595 -0.000633407 -0.00206461)
(1.02722 -0.00267753 3.04886e-05)
(1.02906 -0.00263237 0.00115668)
(1.02929 -0.00104251 0.00238736)
(1.02886 -0.00460686 0.00247473)
(1.03489 0.00142819 0.000170342)
(1.02965 0.00750764 0.00455475)
(1.02586 0.00399567 0.00224628)
(1.02836 0.00366451 0.00137046)
(1.02389 -0.000676373 0.00462323)
(1.02492 0.00285616 -0.00133875)
(1.02263 -0.00375465 -0.00163494)
(1.02861 -0.010246 -0.00105911)
(1.03405 -0.00291967 -0.00433775)
(1.02831 -0.0020536 -0.00290188)
(1.03247 -0.00163613 -0.00306574)
(1.03281 0.00348047 -0.00222037)
(1.0246 0.00447828 -0.00138477)
(1.02511 -0.00348341 -0.00187811)
(1.03028 -0.00596331 -0.00271612)
(1.02894 -0.00285538 -0.00336319)
(1.0273 -0.00161045 -0.000636623)
(1.02942 -0.00514931 -0.000188879)
(1.03121 -0.00294046 0.00140165)
(1.03101 0.00270222 0.00356342)
(1.02911 0.00157082 0.00277563)
(1.02592 0.000864214 0.00459669)
(1.02779 -2.85537e-05 0.000277295)
(1.03046 0.00292099 -0.00105944)
(1.0254 0.00188575 0.00130142)
(1.02782 0.00249479 0.000489782)
(1.02589 0.00108781 0.00485528)
(1.02659 -0.00656861 -0.000610913)
(1.03517 0.00384682 -0.00546864)
(1.02631 0.00462932 -0.0019699)
(1.02698 -0.00133158 -0.000414771)
(1.03069 0.00149408 0.000848066)
(1.02756 0.00310882 2.39576e-05)
(1.02958 0.00480995 0.00138443)
(1.02573 0.000470831 0.000723187)
(1.02524 -0.00132319 -0.0027002)
(1.02674 -0.00378436 -7.41761e-06)
(1.02918 -0.00313924 0.00173839)
(1.02872 -0.00238674 0.00351108)
(1.02935 -0.00644352 0.00253259)
(1.03677 0.00248829 0.000209783)
(1.02982 0.0103648 0.00520982)
(1.02474 0.00614801 0.00151757)
(1.02706 0.00331031 0.00117106)
(1.02381 -0.001669 0.00557197)
(1.0242 0.00501366 -0.00155426)
(1.01967 -0.00401449 -0.00236115)
(1.02834 -0.0132355 -0.00211623)
(1.03506 -0.00374484 -0.00625779)
(1.02798 -0.00199477 -0.0050963)
(1.03303 -0.00275457 -0.00482087)
(1.03343 0.00461649 -0.00330196)
(1.02277 0.00612841 -0.00206897)
(1.02287 -0.00473719 -0.00230666)
(1.03062 -0.00928717 -0.00428151)
(1.03012 -0.00384137 -0.00603528)
(1.02682 -0.00152949 -0.00247254)
(1.02913 -0.00765026 -0.00102232)
(1.03267 -0.0038324 0.0011364)
(1.03168 0.00302388 0.00365678)
(1.02852 0.00109407 0.00327592)
(1.02535 0.00127916 0.00587547)
(1.02784 0.000354178 -8.43378e-06)
(1.03056 0.0027814 -0.00112546)
(1.02531 0.00262077 0.00189772)
(1.02731 0.00481711 0.0010605)
(1.02383 0.000693675 0.00687091)
(1.02692 -0.00823733 -0.00170133)
(1.03692 0.00588354 -0.00819571)
(1.02518 0.00644449 -0.00276476)
(1.02619 -0.00236532 -0.000267225)
(1.0313 0.00102652 0.000458498)
(1.02796 0.00496946 -0.000850412)
(1.02884 0.00612968 0.00192718)
(1.02442 3.53192e-06 0.000798745)
(1.02428 -0.00277228 -0.00344345)
(1.02624 -0.00491925 -0.000425729)
(1.02909 -0.00369363 0.0019462)
(1.02776 -0.0041954 0.00444547)
(1.03032 -0.00907492 0.0021093)
(1.03938 0.00338635 -7.8416e-05)
(1.03074 0.0152166 0.00450805)
(1.02359 0.00903922 -0.00103609)
(1.02458 0.00247838 0.000712694)
(1.02311 -0.00207534 0.0075486)
(1.02274 0.00975599 -0.00130718)
(1.0166 -0.0039569 -0.00429532)
(1.0298 -0.0181514 -0.00507635)
(1.03685 -0.00486767 -0.00981189)
(1.02694 -0.00165848 -0.00868733)
(1.03288 -0.00353157 -0.00715137)
(1.03391 0.00679442 -0.00492946)
(1.02045 0.00835082 -0.00326077)
(1.01937 -0.0066163 -0.00271343)
(1.03094 -0.0138215 -0.0065196)
(1.03229 -0.00402073 -0.010501)
(1.02678 -0.000486516 -0.00616335)
(1.02961 -0.010547 -0.00361545)
(1.03501 -0.0046231 -0.00121734)
(1.03281 0.00403742 0.00203754)
(1.02864 0.000949066 0.0028403)
(1.02529 0.00136806 0.00654118)
(1.02762 -0.000246789 -0.00133127)
(1.03004 0.00251521 -0.00126767)
(1.02529 0.00469452 0.00297)
(1.02691 0.00828668 0.00145084)
(1.02141 -0.00044137 0.00869166)
(1.02732 -0.0100099 -0.00389395)
(1.03842 0.00983387 -0.0116953)
(1.02309 0.0101452 -0.00336778)
(1.02505 -0.00343837 5.60736e-05)
(1.03262 0.000644855 -0.000664948)
(1.02909 0.00764114 -0.00274071)
(1.02745 0.00836026 0.00238307)
(1.02207 9.68398e-05 0.000411634)
(1.02299 -0.00470204 -0.00533267)
(1.02621 -0.00647728 -0.00184398)
(1.0294 -0.00441464 0.00113841)
(1.02635 -0.00609794 0.00481045)
(1.03159 -0.0114537 0.000929815)
(1.04292 0.00612269 -0.00162259)
(1.03259 0.0211011 0.00174931)
(1.02358 0.0135335 -0.00529555)
(1.02127 0.000798255 0.000988978)
(1.02118 -0.00366592 0.0116565)
(1.01887 0.0146407 0.000150701)
(1.01372 -0.00407243 -0.00758945)
(1.03648 -0.0232897 -0.00974569)
(1.04303 -0.00528624 -0.0136877)
(1.02766 -0.00107643 -0.0122721)
(1.03323 -0.004946 -0.00974514)
(1.03531 0.00889312 -0.00725212)
(1.0184 0.0114944 -0.00442335)
(1.01284 -0.00811675 -0.00191552)
(1.0294 -0.0191407 -0.00911352)
(1.0348 -0.00403775 -0.0177157)
(1.02613 0.000430724 -0.0136722)
(1.03067 -0.0140506 -0.00965132)
(1.0392 -0.00535348 -0.00608896)
(1.03535 0.00558316 -0.00160437)
(1.02989 0.00238687 -0.000160732)
(1.02645 0.00342696 0.00399226)
(1.02851 6.06101e-05 -0.00497036)
(1.02921 0.00217638 -0.0011244)
(1.02472 0.0073936 0.00505377)
(1.02624 0.0131817 0.0014146)
(1.0196 -0.000900909 0.00967232)
(1.02932 -0.0113376 -0.00715967)
(1.03911 0.0150862 -0.0159189)
(1.01858 0.0148157 -0.00455809)
(1.02317 -0.00554139 -0.000363253)
(1.03586 -0.000177118 -0.00279991)
(1.03295 0.0113083 -0.00540115)
(1.02549 0.0112137 0.00310938)
(1.01663 -0.000445447 -0.000917054)
(1.01956 -0.0070498 -0.00976788)
(1.02703 -0.00785764 -0.00616968)
(1.03192 -0.004768 -0.00171703)
(1.02517 -0.00754335 0.00485703)
(1.03421 -0.0141496 -0.000523078)
(1.04822 0.00884534 -0.00451415)
(1.03611 0.0293917 -0.00321442)
(1.02872 0.0193773 -0.00905587)
(1.01685 0.000938981 0.00354881)
(1.01356 -0.00173613 0.0182364)
(1.01525 0.0225353 0.00170321)
(1.01386 -0.00767391 -0.0111249)
(1.0445 -0.0332385 -0.0127261)
(1.05434 -0.00539091 -0.0151056)
(1.03397 0.00175674 -0.0125534)
(1.03617 -0.00428657 -0.0090638)
(1.04211 0.0129421 -0.0100583)
(1.0222 0.0171246 -0.00792287)
(1.00373 -0.00850175 -0.000781649)
(1.02145 -0.0250689 -0.00879991)
(1.03496 -0.00258219 -0.0231257)
(1.02267 0.00151115 -0.0227315)
(1.02901 -0.0193948 -0.0182018)
(1.04362 -0.00538627 -0.0130566)
(1.0387 0.00962951 -0.00728126)
(1.03385 0.00606161 -0.00479579)
(1.03235 0.00512778 -0.000749861)
(1.03162 -0.001286 -0.0105862)
(1.0267 0.00230163 -0.000805321)
(1.02373 0.0130283 0.00752135)
(1.02817 0.0194242 0.000344386)
(1.02039 -0.00386676 0.0100468)
(1.03514 -0.0126779 -0.00880055)
(1.04147 0.0257222 -0.0184493)
(1.0093 0.023259 -0.00565002)
(1.01732 -0.00841168 -0.000482502)
(1.04429 -0.00137177 -0.00361832)
(1.04583 0.0184298 -0.00529738)
(1.02454 0.0197565 0.00533961)
(1.00458 0.00130933 -0.00469658)
(1.00924 -0.01138 -0.0185559)
(1.02512 -0.0113096 -0.0125701)
(1.03605 -0.00413536 -0.00426544)
(1.02257 -0.00730119 0.00590629)
(1.03493 -0.0149921 -0.00106498)
(1.05293 0.0150711 -0.00933926)
(1.05037 0.035995 -0.00743185)
(1.05074 0.0273209 -0.0104266)
(1.02064 0.00422475 0.00459795)
(1.00275 -0.00066421 0.022921)
(1.01974 0.0284219 0.00368034)
(1.00719 -0.010608 -0.00939522)
(1.02178 -0.0436269 -0.00943772)
(1.05239 -0.00734026 -0.0112326)
(1.04034 0.005343 -0.00798195)
(1.03477 -0.00197492 -0.00374775)
(1.05068 0.0172784 -0.00894169)
(1.03692 0.0263358 -0.0110483)
(1.00467 -0.00306107 -0.00461407)
(1.00992 -0.030141 -0.0105371)
(1.03287 -0.00417731 -0.02698)
(1.01489 -0.000574869 -0.0302445)
(1.01444 -0.0288361 -0.0211455)
(1.0433 -0.00787163 -0.0125395)
(1.0368 0.0132655 -0.0100332)
(1.03411 0.0102347 -0.0113502)
(1.04423 0.00962004 -0.00773331)
(1.04185 0.000542878 -0.0153228)
(1.02717 0.00216902 0.000260929)
(1.01964 0.016499 0.00913504)
(1.03061 0.0266591 -0.00119458)
(1.02726 -0.00284217 0.0107045)
(1.04942 -0.014372 -0.00695562)
(1.05415 0.0347654 -0.0209905)
(0.998044 0.032192 -0.0106646)
(1.0021 -0.0133562 -0.000426679)
(1.05222 -0.00617122 0.00158652)
(1.06736 0.0246251 0.00181742)
(1.03144 0.0310149 0.00900864)
(0.993279 0.00486278 -0.00867126)
(0.989944 -0.016077 -0.026462)
(1.00598 -0.0173279 -0.0143443)
(1.02925 -0.0043603 3.6333e-05)
(1.01427 -0.00571471 0.00868937)
(1.02219 -0.0174449 0.00110116)
(1.05442 0.0179705 -0.0122405)
(1.04832 0.0393692 -0.00889236)
(1.06365 0.0371877 -0.0110235)
(1.0277 0.0156605 -0.00115337)
(0.984893 0.00468256 0.0213136)
(1.01407 0.0334951 0.00989302)
(0.983403 -0.0126737 -0.00109898)
(0.963499 -0.0517581 -0.00680212)
(1.01598 -0.00877131 -0.00888533)
(1.03023 0.011527 -0.00446067)
(1.02057 0.00417237 0.00400918)
(1.04408 0.0222252 0.00541654)
(1.0552 0.0359846 -0.00338205)
(1.03859 0.00718776 -0.014656)
(1.0133 -0.0277066 -0.0226384)
(1.02945 -0.00238016 -0.0303948)
(1.00921 0.00031295 -0.0287295)
(0.974036 -0.0363878 -0.0117957)
(1.01382 -0.0122205 -0.000524211)
(1.01511 0.0176196 -0.00682247)
(1.02648 0.0142031 -0.0102582)
(1.06213 0.0102918 -0.00447403)
(1.05465 -0.000294353 -0.0162901)
(1.03079 0.0020478 -0.00278659)
(1.0178 0.0191092 0.00607267)
(1.03688 0.0299452 -0.00422491)
(1.04365 -0.00592871 0.00722381)
(1.06702 -0.0138404 -0.00948331)
(1.06874 0.0521384 -0.0252356)
(0.993023 0.0429451 -0.0147333)
(0.985298 -0.0251465 0.00257837)
(1.04617 -0.0156121 0.0119111)
(1.07241 0.0342392 0.0126495)
(1.04331 0.0486531 0.0120653)
(1.01083 0.0120236 -0.0113464)
(0.984649 -0.0194786 -0.0246731)
(0.964284 -0.0239298 0.00230125)
(0.994705 -0.00651387 0.0230079)
(1.00113 -0.00604361 0.0165906)
(0.988569 -0.0210752 0.00229897)
(1.03363 0.0178422 -0.0136706)
(1.02038 0.0374892 0.00660695)
(1.05511 0.0454942 -0.000515765)
(1.03709 0.0286218 -0.00105803)
(0.95202 0.00938704 0.0253752)
(0.980762 0.039298 0.0155362)
(0.984506 -0.0116513 0.00154007)
(0.941577 -0.0583713 -0.0128115)
(0.984995 -0.0119799 -0.0171253)
(1.02043 0.0140392 -0.00731778)
(1.01763 0.00523111 0.00831117)
(1.02529 0.0250888 0.0206167)
(1.04729 0.0448946 0.00957687)
(1.09299 0.0149963 -0.0191173)
(1.04798 -0.0279851 -0.0392617)
(1.03668 -0.00258956 -0.0362756)
(1.02524 0.00565539 -0.0210149)
(0.918151 -0.036757 0.000858322)
(0.920562 -0.0193639 0.0122062)
(0.952329 0.0138493 -0.0111093)
(1.00598 0.0154793 -0.0101163)
(1.07055 0.016565 0.0207395)
(1.06748 0.00481024 0.00269265)
(1.04628 -0.0010917 -0.00180731)
(1.0085 0.0134764 0.00564731)
(1.03553 0.0296646 -0.000373557)
(1.05761 -0.0104511 0.010807)
(1.0651 -0.0174299 -0.013382)
(1.08377 0.0635547 -0.0355036)
(1.0333 0.0542967 -0.0263101)
(0.985249 -0.032654 0.0012468)
(0.99812 -0.028489 0.0220864)
(1.03976 0.0329557 0.0219075)
(1.07154 0.0559227 0.0104994)
(1.0784 0.0224833 -0.01986)
(0.999523 -0.00809394 -0.0156503)
(0.920421 -0.023299 0.0325107)
(0.954477 -0.0112983 0.0527259)
(0.986334 -0.00473364 0.0239594)
(0.940349 -0.025939 -0.00995778)
(0.982424 0.0105411 -0.0160786)
(1.00948 0.0334569 0.0255198)
(1.03569 0.0539952 0.00882145)
(1.08052 0.0468253 0.000556801)
(0.926658 0.0134684 0.0231372)
(0.958623 0.0335983 -0.00654895)
(1.06862 -0.0113786 -0.00884726)
(0.988009 -0.0561032 -0.0113326)
(0.958878 -0.0130956 -0.0181284)
(1.00292 0.0102804 -0.00971808)
(1.00756 0.00229812 0.00374821)
(0.985962 0.028992 0.0163131)
(1.02177 0.0504952 0.019514)
(1.15792 0.0170116 -0.00733323)
(1.08149 -0.0274657 -0.0417107)
(1.01868 -0.00307546 -0.0260613)
(1.03959 0.0161902 -0.00209936)
(0.882657 -0.0272261 0.00249141)
(0.802716 -0.0261605 0.00205675)
(0.845623 -0.000820808 -0.034491)
(0.934023 0.00586216 -0.0170325)
(1.03181 0.0108476 0.053027)
(1.05997 -0.000139942 0.0254386)
(1.04741 -0.000804002 0.00322907)
(0.98141 0.0154082 0.0111521)
(1.05025 0.024127 0.00225279)
(1.08613 -0.0197834 0.012774)
(1.02387 -0.0225274 -0.0154847)
(1.05808 0.0713761 -0.0457326)
(1.10375 0.0669944 -0.0391434)
(1.01272 -0.0296219 -0.00049562)
(0.919997 -0.0355858 0.0357937)
(0.967042 0.0329452 0.0356323)
(1.08083 0.0616127 0.00916227)
(1.12494 0.0360604 -0.0274857)
(1.03152 0.00756858 -0.00771823)
(0.960359 -0.0208351 0.046802)
(0.936224 -0.0186048 0.0550877)
(0.952608 -0.00399591 0.0164729)
(0.87146 -0.031127 -0.0177333)
(0.920567 0.00111062 -0.0112351)
(0.969447 0.0290517 0.0471919)
(0.967618 0.0588502 0.0184326)
(1.14918 0.0585668 0.0330415)
(0.921129 0.022109 0.026728)
(0.978659 0.0242541 -0.0279261)
(1.1627 -0.00900888 0.0131989)
(1.01403 -0.0425145 0.00183105)
(0.925703 -0.01329 -0.0381848)
(1.01202 -0.000326209 -0.021796)
(0.993149 0.000818593 0.0185304)
(0.899107 0.0352932 0.0404952)
(0.998077 0.0427702 0.0323257)
(1.19835 0.0105916 -0.00589801)
(1.0453 -0.0183735 -0.040198)
(0.901038 -0.000285077 -0.0074934)
(0.959446 0.0238669 0.0149728)
(0.835818 -0.0113995 -0.00576968)
(0.733623 -0.0249866 -0.00838328)
(0.809508 -0.0128866 -0.0275297)
(0.896784 -0.00846185 0.00829417)
(0.957276 -0.00486588 0.0744656)
(0.980518 -0.00899908 0.0208941)
(0.966157 0.000164548 0.00803768)
(0.951824 0.0137935 0.040361)
(1.06699 0.0176726 0.0218593)
(1.03908 -0.0186708 0.00790064)
(0.917807 -0.0206021 -0.0169199)
(1.01953 0.0757063 -0.0433738)
(1.15438 0.0809793 -0.0392679)
(1.06042 -0.0186908 -0.00287986)
(0.904779 -0.0446227 0.0451791)
(0.940683 0.0159142 0.0512263)
(1.07287 0.0516743 0.0113669)
(1.12231 0.0409014 -0.0265061)
(1.09712 0.0141764 -0.0127616)
(1.05291 -0.0139739 0.034942)
(0.920895 -0.0117628 0.0390318)
(0.91424 -3.26817e-05 0.0160317)
(0.793743 -0.0442894 -0.00922565)
(0.857882 -0.0228934 0.00678091)
(0.819323 0.0380989 0.0374693)
(0.937103 0.0578931 0.003298)
(1.15294 0.0597762 0.0661615)
(0.851138 0.0293342 0.013638)
(1.01469 0.0154795 -0.0357715)
(1.18084 -0.00640831 0.045395)
(0.971623 -0.0360149 -0.00801241)
(0.921131 -0.0229467 -0.0595987)
(1.03247 -0.0046083 -0.00419541)
(0.905171 0.0152454 0.0499415)
(0.806662 0.0391874 0.0552557)
(1.04443 0.0253976 0.0169958)
(1.21523 0.00608334 -0.0303119)
(0.964779 -0.00742665 -0.0421111)
(0.783801 0.00270402 0.0172947)
(0.881069 0.0220309 0.0364971)
(0.789037 -0.00917223 0.00620907)
(0.734626 -0.0273534 0.0171647)
(0.862958 -0.0176082 0.0113105)
(0.898456 -0.0129029 0.0328591)
(0.878393 -0.0103427 0.0650957)
(0.910951 -0.00867961 0.0074567)
(0.877579 0.00244617 0.0358951)
(0.859374 0.010018 0.078322)
(1.00736 0.01833 0.0303794)
(1.00124 -0.0160622 -0.00935677)
(0.863647 -0.0289565 -0.0402431)
(0.968265 0.0680099 -0.0549935)
(1.16634 0.0836138 -0.0343701)
(1.12842 -0.0144431 -0.00586158)
(0.918602 -0.0414312 0.0407438)
(0.880435 0.0179619 0.0413541)
(1.00603 0.0532189 0.00100506)
(1.10572 0.0368565 -0.0345444)
(1.17392 0.0144448 -0.0259401)
(1.08542 0.000763053 0.0323041)
(0.902851 0.0032293 0.0440142)
(0.908855 0.00316732 0.0291356)
(0.743525 -0.046629 -0.00863732)
(0.718557 -0.0299599 0.00828265)
(0.778847 0.031272 -0.0120119)
(0.989052 0.0406678 -0.0296356)
(1.0847 0.0577102 0.0612205)