/*--------------------------------*- C++ -*----------------------------------*\
  =========                 |
  \\      /  F ield         | OpenFOAM: The Open Source CFD Toolbox
   \\    /   O peration     | Website:  https://openfoam.org
    \\  /    A nd           | Version:  10
     \\/     M anipulation  |
\*---------------------------------------------------------------------------*/
FoamFile
{
    format      ascii;
    class       volVectorField;
    location    "7";
    object      U;
}
// * * * * * * * * * * * * * * * * * * * * * * * * * * * * * * * * * * * * * //

dimensions      [0 1 -1 0 0 0 0];

internalField   nonuniform List<vector> 
25600
(
(0.134634 3.46594e-06 7.32025e-07)
(0.134631 4.00534e-06 2.7249e-07)
(0.13463 3.16798e-06 -1.51026e-07)
(0.134633 5.50161e-06 2.29732e-07)
(0.134631 6.70984e-06 5.73663e-07)
(0.134633 6.77533e-06 2.77625e-07)
(0.134637 8.65331e-06 1.84757e-07)
(0.13464 9.53163e-06 -1.83898e-07)
(0.134639 1.18883e-05 2.20156e-07)
(0.134637 1.24725e-05 2.45137e-07)
(0.134635 1.21187e-05 3.50087e-07)
(0.134634 1.239e-05 1.61381e-07)
(0.134634 1.16886e-05 -5.40336e-07)
(0.134632 1.19781e-05 -8.3196e-07)
(0.13463 1.02126e-05 -1.2838e-06)
(0.134629 7.60825e-06 -1.22949e-06)
(0.134631 5.34296e-06 -1.26906e-06)
(0.134632 2.32473e-06 -1.09472e-06)
(0.134633 7.48566e-07 -8.93209e-07)
(0.134632 -2.19788e-06 -7.50107e-07)
(0.134634 -4.60657e-06 -4.7649e-07)
(0.134637 -6.08122e-06 -2.77608e-07)
(0.13464 -6.11426e-06 2.50389e-07)
(0.134638 -6.95434e-06 4.96869e-07)
(0.13464 -7.88676e-06 7.13525e-07)
(0.134637 -8.5623e-06 9.14094e-07)
(0.134643 -9.5168e-06 1.23537e-06)
(0.134641 -6.85951e-06 1.0387e-06)
(0.134642 -6.88822e-06 1.18985e-06)
(0.134643 -5.38903e-06 1.16699e-06)
(0.134637 -4.98351e-06 8.68006e-07)
(0.13465 -3.57371e-06 1.01846e-06)
(0.134634 -2.20195e-06 1.09561e-07)
(0.134652 3.64705e-07 7.22845e-07)
(0.134633 1.40806e-06 3.68282e-07)
(0.134641 1.95457e-07 -1.21204e-06)
(0.134645 3.18978e-06 3.33658e-07)
(0.134634 3.1681e-06 -7.73813e-08)
(0.134639 1.98374e-06 -8.47555e-07)
(0.134635 4.3977e-06 1.82406e-08)
(0.135961 4.4619e-06 1.97473e-06)
(0.135958 6.27112e-06 1.08285e-09)
(0.135961 4.50734e-06 -1.30659e-06)
(0.135967 7.10526e-06 -3.18944e-08)
(0.135963 6.09073e-06 1.39418e-06)
(0.135961 4.12095e-06 1.58544e-06)
(0.135963 6.94493e-06 1.11814e-06)
(0.135965 9.30495e-06 6.24913e-08)
(0.135965 1.42227e-05 4.77783e-07)
(0.135962 1.36795e-05 5.33247e-07)
(0.135962 1.23874e-05 1.06376e-06)
(0.135963 1.24104e-05 9.44339e-07)
(0.135963 1.22071e-05 4.24381e-08)
(0.135961 1.41757e-05 -9.91285e-08)
(0.135957 1.12306e-05 -1.23111e-06)
(0.135957 6.84892e-06 -1.25097e-06)
(0.135958 3.35131e-06 -1.63745e-06)
(0.135961 1.1412e-06 -1.55213e-06)
(0.135961 7.26649e-07 -1.52687e-06)
(0.13596 -3.33792e-06 -1.58407e-06)
(0.135962 -7.1811e-06 -1.30782e-06)
(0.135966 -8.66622e-06 -1.20564e-06)
(0.13597 -6.76778e-06 -3.53364e-07)
(0.135967 -6.83674e-06 -3.28448e-07)
(0.135969 -7.99182e-06 1.76371e-07)
(0.135966 -9.75736e-06 3.87245e-07)
(0.135974 -1.20577e-05 1.23833e-06)
(0.135972 -5.85706e-06 6.23814e-07)
(0.135974 -6.71028e-06 1.54955e-06)
(0.135971 -3.88519e-06 1.06767e-06)
(0.135971 -5.64989e-06 1.46258e-06)
(0.135976 -3.72316e-06 1.37784e-06)
(0.135972 -5.22882e-08 -1.50512e-07)
(0.13598 3.15525e-06 2.23175e-06)
(0.135963 5.29144e-06 3.66047e-07)
(0.135973 1.70251e-06 -1.66132e-06)
(0.135975 4.71005e-06 1.7686e-06)
(0.135962 7.4313e-06 1.07956e-07)
(0.135971 6.89107e-06 -1.67076e-06)
(0.135966 7.90086e-06 4.43893e-07)
(0.136185 5.18884e-06 2.40014e-06)
(0.136185 7.46886e-06 4.34969e-08)
(0.136189 4.84502e-06 -1.22446e-06)
(0.136194 1.08066e-05 2.84797e-07)
(0.136187 7.11311e-06 1.58806e-06)
(0.136187 2.11775e-06 1.8853e-06)
(0.136191 5.63375e-06 1.49787e-06)
(0.136194 9.43657e-06 1.50743e-07)
(0.136193 1.7868e-05 1.17033e-06)
(0.136187 1.45781e-05 1.15388e-06)
(0.136188 1.18331e-05 2.29296e-06)
(0.136189 1.16907e-05 1.9182e-06)
(0.136191 1.29974e-05 4.61846e-07)
(0.136188 1.80593e-05 5.86275e-07)
(0.13618 1.29828e-05 -1.60574e-06)
(0.136179 6.05676e-06 -1.52753e-06)
(0.136183 7.5079e-07 -2.33817e-06)
(0.136187 2.73925e-07 -1.95822e-06)
(0.136186 1.8483e-06 -2.08707e-06)
(0.136182 -4.85033e-06 -2.36552e-06)
(0.136186 -1.08423e-05 -2.10679e-06)
(0.136193 -1.20713e-05 -2.11858e-06)
(0.136198 -6.65622e-06 -6.06535e-07)
(0.136193 -5.9722e-06 -9.91816e-07)
(0.136194 -7.70614e-06 -1.58551e-07)
(0.13619 -1.18118e-05 1.96085e-07)
(0.136202 -1.6344e-05 1.55189e-06)
(0.136201 -4.07127e-06 5.08068e-07)
(0.136201 -6.38566e-06 2.0167e-06)
(0.136198 -2.50305e-06 1.69635e-06)
(0.136197 -6.38551e-06 2.37163e-06)
(0.136205 -5.51558e-06 1.74867e-06)
(0.136202 3.22228e-06 5.39742e-07)
(0.136208 8.73795e-06 3.19986e-06)
(0.136188 8.32506e-06 1.01522e-06)
(0.136199 3.95088e-06 -1.52591e-06)
(0.136203 7.03841e-06 2.3695e-06)
(0.13619 1.1502e-05 4.72339e-07)
(0.136198 1.3123e-05 -1.24299e-06)
(0.13619 1.40372e-05 5.4862e-07)
(0.136341 4.80247e-06 3.3186e-06)
(0.136343 9.15885e-06 1.09805e-07)
(0.136349 5.83599e-06 -1.0806e-06)
(0.136354 1.69813e-05 9.6595e-07)
(0.136341 7.31977e-06 2.13933e-06)
(0.136345 -2.10507e-06 2.56526e-06)
(0.136353 2.81508e-06 2.12813e-06)
(0.136359 1.05252e-05 6.21036e-08)
(0.136353 2.49401e-05 2.02575e-06)
(0.136342 1.62312e-05 1.68449e-06)
(0.136345 1.12071e-05 3.9216e-06)
(0.136349 1.02104e-05 2.92718e-06)
(0.136353 1.49143e-05 7.12511e-07)
(0.136346 2.50308e-05 1.46729e-06)
(0.136333 1.60251e-05 -2.58979e-06)
(0.136332 5.15668e-06 -2.08386e-06)
(0.136339 -3.28184e-06 -3.5335e-06)
(0.136347 2.61385e-07 -2.26863e-06)
(0.136343 4.83064e-06 -2.60255e-06)
(0.136335 -7.17201e-06 -3.22568e-06)
(0.136342 -1.63194e-05 -3.14994e-06)
(0.136355 -1.7163e-05 -3.11049e-06)
(0.13636 -5.48959e-06 -4.2295e-07)
(0.136352 -3.82456e-06 -1.65752e-06)
(0.13635 -6.62801e-06 -2.25302e-07)
(0.136344 -1.52816e-05 2.41084e-07)
(0.136365 -2.35502e-05 2.29701e-06)
(0.136365 -2.28508e-07 4.31307e-07)
(0.13636 -6.45447e-06 3.01839e-06)
(0.136356 1.08769e-07 2.81969e-06)
(0.136354 -9.13347e-06 3.9312e-06)
(0.136368 -8.87728e-06 2.14523e-06)
(0.136367 8.32669e-06 1.74089e-06)
(0.136369 1.61063e-05 5.00974e-06)
(0.136344 1.29967e-05 1.94477e-06)
(0.136357 4.74576e-06 -1.05163e-06)
(0.136365 8.43368e-06 3.48949e-06)
(0.136352 1.81697e-05 9.51582e-07)
(0.136358 2.16614e-05 -4.97458e-07)
(0.136345 2.09298e-05 9.5421e-07)
(0.136483 2.91612e-06 4.85063e-06)
(0.136492 1.0012e-05 3.01019e-07)
(0.136501 7.223e-06 -6.35059e-07)
(0.136502 2.74107e-05 2.2746e-06)
(0.13648 7.53053e-06 2.91598e-06)
(0.13649 -8.26616e-06 3.46366e-06)
(0.136506 -1.88867e-06 2.90842e-06)
(0.136516 1.30747e-05 -3.66553e-07)
(0.136503 3.61842e-05 3.19498e-06)
(0.136484 1.78738e-05 2.03857e-06)
(0.13649 9.44779e-06 6.20773e-06)
(0.136498 6.55701e-06 3.97215e-06)
(0.136508 1.82444e-05 8.71186e-07)
(0.136495 3.60318e-05 2.87874e-06)
(0.136473 2.06856e-05 -4.31769e-06)
(0.136472 3.66515e-06 -2.93806e-06)
(0.136486 -9.94723e-06 -5.35232e-06)
(0.136499 1.98125e-06 -2.16479e-06)
(0.136487 1.039e-05 -2.89966e-06)
(0.136474 -1.06094e-05 -4.07318e-06)
(0.136485 -2.42352e-05 -4.61631e-06)
(0.136508 -2.44602e-05 -4.145e-06)
(0.136514 -2.58077e-06 3.99861e-07)
(0.136499 5.47648e-07 -2.41101e-06)
(0.136492 -3.91491e-06 -1.29155e-07)
(0.136484 -2.11346e-05 4.82974e-07)
(0.136519 -3.46251e-05 3.53255e-06)
(0.13652 6.88652e-06 1.59543e-07)
(0.136508 -6.60589e-06 4.65794e-06)
(0.136501 4.30439e-06 4.6632e-06)
(0.136497 -1.43928e-05 6.308e-06)
(0.136523 -1.51185e-05 2.4446e-06)
(0.136526 1.65761e-05 3.9635e-06)
(0.136518 2.71508e-05 7.80855e-06)
(0.136486 1.84225e-05 3.31349e-06)
(0.136502 4.34471e-06 -1.2027e-07)
(0.136519 9.17333e-06 5.18947e-06)
(0.136505 2.7687e-05 1.66597e-06)
(0.136507 3.34585e-05 9.29985e-07)
(0.136485 2.96863e-05 1.74975e-06)
(0.136615 -9.98819e-07 7.45007e-06)
(0.136633 9.46629e-06 6.004e-07)
(0.136647 9.89099e-06 6.61597e-08)
(0.136641 4.35437e-05 4.70293e-06)
(0.136605 7.09137e-06 4.22105e-06)
(0.136625 -1.76451e-05 4.83483e-06)
(0.136653 -9.97239e-06 4.06594e-06)
(0.13667 1.78753e-05 -1.07056e-06)
(0.136643 5.26483e-05 4.6201e-06)
(0.136612 1.95444e-05 1.85467e-06)
(0.136624 5.96754e-06 9.32932e-06)
(0.136641 -6.31051e-07 4.94343e-06)
(0.136659 2.40227e-05 9.29257e-07)
(0.136635 5.2391e-05 5.10111e-06)
(0.136599 2.76271e-05 -7.01518e-06)
(0.136599 1.09871e-06 -4.07226e-06)
(0.136626 -2.06071e-05 -7.945e-06)
(0.136647 6.59029e-06 -1.15264e-06)
(0.136621 1.90229e-05 -2.67487e-06)
(0.136599 -1.57096e-05 -4.7831e-06)
(0.13662 -3.53938e-05 -6.74538e-06)
(0.136656 -3.49877e-05 -4.92514e-06)
(0.136663 2.91512e-06 2.06964e-06)
(0.136638 8.24074e-06 -3.31497e-06)
(0.136623 1.37883e-06 2.83979e-07)
(0.136611 -3.07046e-05 9.47154e-07)
(0.13667 -5.08975e-05 5.41852e-06)
(0.13667 1.88139e-05 -7.61151e-07)
(0.136646 -7.20731e-06 7.23009e-06)
(0.136637 1.1018e-05 7.58146e-06)
(0.136628 -2.40473e-05 9.70536e-06)
(0.136674 -2.55075e-05 2.55339e-06)
(0.136681 2.97359e-05 7.78556e-06)
(0.136658 4.23467e-05 1.21193e-05)
(0.136615 2.47549e-05 5.10417e-06)
(0.136638 1.78536e-06 1.46332e-06)
(0.136668 8.18618e-06 8.00558e-06)
(0.136654 4.18164e-05 2.65447e-06)
(0.136646 4.90364e-05 3.1874e-06)
(0.136612 4.02402e-05 3.20288e-06)
(0.136735 -7.63773e-06 1.15407e-05)
(0.136768 6.09728e-06 1.2388e-06)
(0.136791 1.47848e-05 1.16031e-06)
(0.13677 6.68935e-05 8.87991e-06)
(0.136714 6.059e-06 6.23922e-06)
(0.13675 -3.10373e-05 6.78907e-06)
(0.136797 -2.31434e-05 5.91239e-06)
(0.136823 2.66053e-05 -2.39623e-06)
(0.136774 7.53754e-05 6.11198e-06)
(0.136727 2.13859e-05 6.66003e-07)
(0.136748 -2.84929e-07 1.36012e-05)
(0.136779 -1.32606e-05 5.80119e-06)
(0.136809 3.34702e-05 1.09818e-06)
(0.136767 7.5124e-05 8.59924e-06)
(0.136713 3.75579e-05 -1.10396e-05)
(0.136714 -3.41226e-06 -5.77864e-06)
(0.13676 -3.68808e-05 -1.14616e-05)
(0.136793 1.59451e-05 1.24029e-06)
(0.136744 3.14242e-05 -1.62733e-06)
(0.136711 -2.26518e-05 -5.16932e-06)
(0.136744 -5.06843e-05 -9.96934e-06)
(0.136801 -4.98346e-05 -4.95717e-06)
(0.136809 1.23218e-05 4.70554e-06)
(0.136769 2.04992e-05 -4.21537e-06)
(0.13674 1.03848e-05 1.1865e-06)
(0.136724 -4.57596e-05 1.61299e-06)
(0.136819 -7.36256e-05 8.10396e-06)
(0.136816 3.74399e-05 -2.71025e-06)
(0.136774 -9.08429e-06 1.13133e-05)
(0.136761 2.11607e-05 1.21009e-05)
(0.136745 -4.02226e-05 1.44043e-05)
(0.136824 -4.17254e-05 2.46708e-06)
(0.136835 5.00604e-05 1.39648e-05)
(0.136786 6.17463e-05 1.82758e-05)
(0.136731 3.17951e-05 7.24396e-06)
(0.136763 -3.47649e-06 3.98285e-06)
(0.136813 4.42267e-06 1.25205e-05)
(0.136799 6.21964e-05 4.0358e-06)
(0.136776 6.84731e-05 6.70769e-06)
(0.136726 5.28141e-05 5.67634e-06)
(0.136843 -1.80294e-05 1.78857e-05)
(0.136899 -1.59504e-06 2.79005e-06)
(0.136934 2.32525e-05 2.92791e-06)
(0.136891 9.87869e-05 1.59174e-05)
(0.136807 4.37758e-06 9.33643e-06)
(0.136863 -4.98951e-05 9.81251e-06)
(0.136938 -4.3443e-05 9.41231e-06)
(0.136978 4.13082e-05 -4.26733e-06)
(0.136895 0.000105326 7.33261e-06)
(0.136827 2.43011e-05 -2.00105e-06)
(0.13686 -1.11084e-05 1.93445e-05)
(0.136914 -3.34041e-05 6.88292e-06)
(0.136961 4.80829e-05 1.5641e-06)
(0.136891 0.000105157 1.39395e-05)
(0.136812 5.15952e-05 -1.68714e-05)
(0.136814 -1.13657e-05 -8.46239e-06)
(0.136892 -6.00515e-05 -1.57424e-05)
(0.136938 3.26364e-05 5.67063e-06)
(0.136855 4.80375e-05 7.90836e-07)
(0.136809 -3.13722e-05 -4.78264e-06)
(0.13686 -7.1279e-05 -1.46197e-05)
(0.136945 -7.04581e-05 -3.12488e-06)
(0.136955 2.68854e-05 8.75304e-06)
(0.136893 3.87316e-05 -4.57037e-06)
(0.136843 2.43142e-05 2.6047e-06)
(0.136822 -6.85158e-05 2.51139e-06)
(0.136969 -0.000104098 1.23297e-05)
(0.13696 6.42753e-05 -5.8775e-06)
(0.136892 -1.30495e-05 1.7702e-05)
(0.136873 3.56257e-05 1.87937e-05)
(0.136848 -6.61865e-05 2.08209e-05)
(0.136976 -6.49762e-05 2.54438e-06)
(0.13699 7.98049e-05 2.33006e-05)
(0.136903 8.50763e-05 2.68458e-05)
(0.136833 3.96869e-05 9.6042e-06)
(0.136878 -1.34014e-05 8.05604e-06)
(0.136958 -3.61705e-06 2.00634e-05)
(0.136942 9.09127e-05 5.99084e-06)
(0.136895 9.11114e-05 1.17805e-05)
(0.136826 6.70695e-05 9.85641e-06)
(0.13694 -3.34118e-05 2.7463e-05)
(0.137027 -1.54119e-05 6.75897e-06)
(0.137079 3.66564e-05 5.86708e-06)
(0.137001 0.000139693 2.78293e-05)
(0.136881 2.56228e-06 1.36445e-05)
(0.136965 -7.55452e-05 1.44606e-05)
(0.137079 -7.32661e-05 1.66499e-05)
(0.137135 6.40747e-05 -6.256e-06)
(0.137005 0.0001429 8.19194e-06)
(0.136911 2.95241e-05 -6.29532e-06)
(0.136959 -2.88472e-05 2.70846e-05)
(0.137048 -6.31384e-05 9.38534e-06)
(0.137117 6.97374e-05 3.11795e-06)
(0.137007 0.00014336 2.20122e-05)
(0.136896 7.08328e-05 -2.51741e-05)
(0.136899 -2.48722e-05 -1.27546e-05)
(0.137023 -9.12146e-05 -1.99727e-05)
(0.137085 5.91414e-05 1.2992e-05)
(0.136953 6.83064e-05 5.7712e-06)
(0.136892 -4.15538e-05 -3.1247e-06)
(0.136965 -9.79863e-05 -2.10968e-05)
(0.137089 -9.82818e-05 2.38713e-06)
(0.137102 4.78855e-05 1.47898e-05)
(0.137009 6.4306e-05 -3.26557e-06)
(0.136929 4.41339e-05 4.30798e-06)
(0.136902 -0.000101256 3.4666e-06)
(0.137123 -0.000143052 1.92358e-05)
(0.137101 0.000100766 -1.03964e-05)
(0.137 -2.05351e-05 2.74369e-05)
(0.136973 5.50299e-05 2.84075e-05)
(0.136935 -0.000105886 2.97107e-05)
(0.137134 -9.62572e-05 4.25306e-06)
(0.137147 0.000121062 3.67379e-05)
(0.137007 0.000111141 3.82729e-05)
(0.136921 4.83236e-05 1.18106e-05)
(0.136982 -3.03544e-05 1.48667e-05)
(0.137104 -1.72384e-05 3.29535e-05)
(0.137084 0.00013013 9.17541e-06)
(0.137003 0.00011492 1.91332e-05)
(0.136913 8.24902e-05 1.67129e-05)
(0.137023 -5.58328e-05 4.21669e-05)
(0.137154 -3.65509e-05 1.59147e-05)
(0.137228 5.72786e-05 1.11129e-05)
(0.1371 0.000188748 4.75191e-05)
(0.136936 2.82155e-07 1.92067e-05)
(0.137053 -0.000110258 2.16239e-05)
(0.137223 -0.000114516 3.12009e-05)
(0.137299 9.71719e-05 -7.60558e-06)
(0.137105 0.000187563 8.73199e-06)
(0.136977 3.7345e-05 -1.24858e-05)
(0.137043 -5.68858e-05 3.77687e-05)
(0.137184 -0.000104137 1.62569e-05)
(0.137278 0.000100616 6.6471e-06)
(0.137116 0.000189882 3.43915e-05)
(0.136964 9.58561e-05 -3.68807e-05)
(0.136968 -4.65678e-05 -1.93136e-05)
(0.137157 -0.000130734 -2.18684e-05)
(0.137234 9.77197e-05 2.43297e-05)
(0.137036 8.99637e-05 1.49103e-05)
(0.136959 -5.3191e-05 2.25738e-07)
(0.13706 -0.00013248 -2.92899e-05)
(0.137236 -0.000134967 1.48184e-05)
(0.137253 7.69066e-05 2.38467e-05)
(0.137117 9.77979e-05 1.89499e-06)
(0.136996 6.96055e-05 5.55604e-06)
(0.136966 -0.000146244 4.46017e-06)
(0.137284 -0.000190875 3.2498e-05)
(0.137241 0.000148521 -1.54812e-05)
(0.137097 -3.38937e-05 4.22866e-05)
(0.137058 7.81959e-05 4.1872e-05)
(0.137005 -0.000164039 4.24149e-05)
(0.137301 -0.000136477 1.08406e-05)
(0.137306 0.000175682 5.55932e-05)
(0.137096 0.000137556 5.34268e-05)
(0.136994 5.70437e-05 1.32106e-05)
(0.137075 -5.70251e-05 2.70887e-05)
(0.137255 -3.78688e-05 5.53368e-05)
(0.137225 0.000181552 1.46532e-05)
(0.137099 0.000135882 3.02834e-05)
(0.136986 9.74186e-05 2.78876e-05)
(0.137094 -8.74731e-05 6.51711e-05)
(0.137282 -6.50832e-05 3.58354e-05)
(0.137382 8.7437e-05 2.0373e-05)
(0.137188 0.000243182 7.95456e-05)
(0.136971 -3.4838e-06 2.51578e-05)
(0.137128 -0.000157267 3.23452e-05)
(0.137371 -0.000168904 5.93994e-05)
(0.137468 0.000142623 -6.34172e-06)
(0.137193 0.000236771 9.28806e-06)
(0.137026 4.66065e-05 -2.12493e-05)
(0.137113 -0.000100806 5.27272e-05)
(0.137324 -0.000157971 3.22007e-05)
(0.137448 0.000143246 1.4327e-05)
(0.137216 0.000243316 5.37427e-05)
(0.137014 0.000125028 -5.35747e-05)
(0.137021 -7.89187e-05 -2.88823e-05)
(0.137296 -0.000178558 -1.69716e-05)
(0.137386 0.000149824 4.1331e-05)
(0.137103 0.000109194 3.0675e-05)
(0.137011 -6.86189e-05 5.09682e-06)
(0.137145 -0.000177282 -3.95659e-05)
(0.137386 -0.00018262 3.95298e-05)
(0.137408 0.000115888 3.8021e-05)
(0.137218 0.000138157 1.44897e-05)
(0.137044 9.86959e-05 4.43869e-06)
(0.137011 -0.000205104 5.29506e-06)
(0.137454 -0.000247132 5.83131e-05)
(0.137378 0.000208787 -1.99614e-05)
(0.137182 -5.7478e-05 6.44552e-05)
(0.137128 0.000102072 5.95319e-05)
(0.137059 -0.000246638 6.11307e-05)
(0.13748 -0.000186196 2.83548e-05)
(0.137468 0.000244224 8.13899e-05)
(0.13717 0.000160578 7.30677e-05)
(0.137052 6.31602e-05 1.19608e-05)
(0.137156 -9.77916e-05 4.85498e-05)
(0.137412 -6.6435e-05 9.44546e-05)
(0.137364 0.000247021 2.44528e-05)
(0.13718 0.000147249 4.77992e-05)
(0.137047 0.000107938 4.51722e-05)
(0.137154 -0.000131531 0.00010075)
(0.137414 -9.96028e-05 7.62137e-05)
(0.137539 0.00012926 3.74019e-05)
(0.137263 0.000297096 0.000129907)
(0.136986 -1.21984e-05 2.87528e-05)
(0.137188 -0.000220518 4.74197e-05)
(0.137526 -0.000236193 0.000112094)
(0.137645 0.000202534 6.02502e-07)
(0.137268 0.000286277 1.13842e-05)
(0.137054 5.31629e-05 -3.36887e-05)
(0.137166 -0.000169079 7.3733e-05)
(0.137472 -0.000225197 6.5014e-05)
(0.137625 0.000201184 2.99867e-05)
(0.137305 0.000301287 8.40897e-05)
(0.137045 0.000154428 -7.84718e-05)
(0.137057 -0.000124907 -4.2593e-05)
(0.137443 -0.000234577 2.44861e-06)
(0.137539 0.000216107 6.56378e-05)
(0.137152 0.000119233 5.6153e-05)
(0.137048 -9.34027e-05 1.09551e-05)
(0.137218 -0.000236343 -5.2046e-05)
(0.137541 -0.000241415 8.49587e-05)
(0.137568 0.000167472 6.10098e-05)
(0.137309 0.000181328 3.90158e-05)
(0.137071 0.000126344 -2.83915e-06)
(0.13704 -0.000280229 5.77601e-06)
(0.137634 -0.000310363 0.000107301)
(0.137511 0.000283702 -2.04502e-05)
(0.137254 -9.80469e-05 9.64441e-05)
(0.137182 0.000118581 8.1371e-05)
(0.137097 -0.000361111 8.90874e-05)
(0.137676 -0.00024757 6.74627e-05)
(0.137631 0.000326584 0.000117014)
(0.137227 0.000174056 9.90156e-05)
(0.137095 6.21678e-05 6.08996e-06)
(0.137226 -0.000158328 8.48463e-05)
(0.137579 -0.000102985 0.000160841)
(0.137499 0.000328589 4.23764e-05)
(0.137245 0.000139794 7.54276e-05)
(0.137097 0.000106749 7.05587e-05)
(0.137204 -0.000194035 0.000153508)
(0.13755 -0.000137879 0.000151368)
(0.137699 0.00018487 6.73364e-05)
(0.137321 0.000342747 0.000206271)
(0.136981 -3.50332e-05 2.57354e-05)
(0.137234 -0.000305466 6.77149e-05)
(0.137689 -0.000315525 0.000205299)
(0.137827 0.000278307 1.83528e-05)
(0.137327 0.00032624 1.61746e-05)
(0.137059 4.66977e-05 -5.26369e-05)
(0.137204 -0.000271588 0.000101882)
(0.137631 -0.00030505 0.000127066)
(0.137809 0.000279451 5.89226e-05)
(0.137381 0.000358748 0.000131723)
(0.137056 0.000174002 -0.000116739)
(0.137078 -0.000189834 -6.16754e-05)
(0.137598 -0.000298495 4.81202e-05)
(0.13769 0.000296761 9.97607e-05)
(0.13718 0.000110036 9.48638e-05)
(0.137072 -0.000137928 1.39671e-05)
(0.137281 -0.000314334 -6.70756e-05)
(0.137703 -0.000309795 0.000163611)
(0.137732 0.000235598 9.75858e-05)
(0.137387 0.000217197 8.21312e-05)
(0.137077 0.000141609 -2.40399e-05)
(0.137053 -0.000373795 4.03003e-06)
(0.137826 -0.00037846 0.00019453)
(0.137636 0.000375633 -1.26465e-05)
(0.137307 -0.000165136 0.000140409)
(0.137218 0.00011472 0.000104387)
(0.13712 -0.000515109 0.00013059)
(0.13789 -0.000320152 0.000143727)
(0.137793 0.000422384 0.000165105)
(0.137264 0.000169527 0.0001322)
(0.137122 3.9942e-05 -8.09364e-06)
(0.137286 -0.000247585 0.000143185)
(0.137757 -0.000146925 0.000270193)
(0.137628 0.000426535 7.27126e-05)
(0.137288 0.000100768 0.000118456)
(0.137137 7.93904e-05 0.000104631)
(0.137248 -0.000281742 0.000225816)
(0.137692 -0.000174712 0.000281258)
(0.137854 0.000257323 0.000118003)
(0.137357 0.000368263 0.000317031)
(0.136955 -8.79919e-05 4.26655e-06)
(0.137267 -0.000416675 8.98792e-05)
(0.137862 -0.000403378 0.000357677)
(0.138008 0.000373252 5.30403e-05)
(0.137363 0.000341621 2.41916e-05)
(0.137041 1.04677e-05 -8.85795e-05)
(0.137228 -0.000422294 0.000134068)
(0.137805 -0.000395505 0.000234455)
(0.137997 0.000385303 0.000109271)
(0.137435 0.000407718 0.000203288)
(0.137047 0.000166018 -0.000180691)
(0.137086 -0.000279043 -9.07401e-05)
(0.137764 -0.000370412 0.000134558)
(0.137834 0.000396222 0.000146824)
(0.137183 6.80855e-05 0.000147935)
(0.137083 -0.00021913 4.25407e-06)
(0.137336 -0.000419334 -8.87706e-05)
(0.137873 -0.00038413 0.000289915)
(0.137896 0.000326022 0.000153996)
(0.137445 0.000233024 0.000150376)
(0.137063 0.000126041 -7.18735e-05)
(0.137054 -0.000489818 -4.96458e-06)
(0.138029 -0.000448215 0.000340604)
(0.137748 0.000487435 1.08526e-05)
(0.137336 -0.000274126 0.000196336)
(0.137234 7.02103e-05 0.000120716)
(0.137131 -0.000718555 0.000187821)
(0.138123 -0.000400558 0.000277146)
(0.137949 0.000532916 0.000229822)
(0.137276 0.00013758 0.000174078)
(0.137133 -2.24563e-05 -4.14461e-05)
(0.137339 -0.000374187 0.000229637)
(0.13795 -0.000196403 0.000444303)
(0.137743 0.00054458 0.000123218)
(0.137304 1.36527e-05 0.000181835)
(0.13717 7.77416e-06 0.000145189)
(0.137302 -0.000405576 0.000303843)
(0.137844 -0.000200931 0.000484223)
(0.137995 0.000355408 0.00019917)
(0.137369 0.000359237 0.00046937)
(0.136919 -0.000193094 -6.04124e-05)
(0.1373 -0.000561284 9.63043e-05)
(0.13805 -0.000491833 0.000585335)
(0.138178 0.000492575 0.000113534)
(0.137372 0.000317871 3.23806e-05)
(0.137004 -8.25503e-05 -0.000163755)
(0.137248 -0.000636877 0.000152833)
(0.138001 -0.000490119 0.000398733)
(0.138179 0.000533418 0.000190205)
(0.137464 0.000436599 0.000305009)
(0.137022 0.000108524 -0.000294698)
(0.13709 -0.000398468 -0.000145813)
(0.137944 -0.000448138 0.000273259)
(0.13796 0.000519211 0.000212203)
(0.137156 -1.94211e-05 0.000214999)
(0.137093 -0.000362783 -4.12974e-05)
(0.137395 -0.000558881 -0.00013429)
(0.138057 -0.000462158 0.000472571)
(0.138048 0.000446302 0.000236906)
(0.137479 0.00020906 0.000248524)
(0.137035 5.80394e-05 -0.00017504)
(0.137054 -0.000632992 -4.06678e-05)
(0.138251 -0.000512213 0.000563185)
(0.137831 0.000626959 6.17006e-05)
(0.137339 -0.00044924 0.000255672)
(0.137235 -4.29026e-05 0.000103851)
(0.137145 -0.00098127 0.000246973)
(0.138385 -0.000487738 0.000482981)
(0.13809 0.000657981 0.000315446)
(0.13726 6.21707e-05 0.000221014)
(0.137134 -0.000154649 -0.000117445)
(0.137397 -0.000549153 0.000337995)
(0.138164 -0.000247295 0.00070182)
(0.137833 0.000685289 0.000204739)
(0.137292 -0.000142448 0.000265887)
(0.137207 -0.000141437 0.000174322)
(0.137452 -0.000578415 0.000321895)
(0.138027 -0.000198126 0.000747722)
(0.138088 0.000491408 0.000325884)
(0.137404 0.000296528 0.000675709)
(0.13696 -0.000376429 -0.000213611)
(0.137413 -0.000744317 2.94282e-05)
(0.138296 -0.000563973 0.000871317)
(0.138313 0.000647656 0.000211762)
(0.137384 0.000226057 4.42938e-05)
(0.137013 -0.000269396 -0.00032683)
(0.137339 -0.000935934 9.9965e-05)
(0.138246 -0.000574157 0.000602516)
(0.138323 0.000743517 0.00031617)
(0.137497 0.000426664 0.000444874)
(0.13705 -2.86228e-05 -0.000504986)
(0.137152 -0.000557208 -0.000278571)
(0.138169 -0.000517332 0.000449573)
(0.138035 0.000677727 0.000304871)
(0.137143 -0.000178167 0.000300434)
(0.137185 -0.000598713 -0.000164105)
(0.137525 -0.000745282 -0.00025491)
(0.138284 -0.000529959 0.000690239)
(0.13816 0.000609722 0.000355252)
(0.137526 0.000121426 0.000384368)
(0.13706 -9.72363e-05 -0.000372561)
(0.137126 -0.000813223 -0.000159763)
(0.138532 -0.00055583 0.00085404)
(0.137838 0.000807244 0.000173176)
(0.137375 -0.000718981 0.000309563)
(0.137284 -0.000261656 -6.40214e-06)
(0.137239 -0.00131459 0.000235154)
(0.138715 -0.00057396 0.000735511)
(0.138187 0.000807486 0.000431162)
(0.137259 -8.65602e-05 0.000271137)
(0.137197 -0.00039225 -0.000291729)
(0.137542 -0.000785672 0.000412456)
(0.13843 -0.000282846 0.00103099)
(0.137855 0.000858206 0.000336071)
(0.137305 -0.000394481 0.000372807)
(0.137337 -0.000404348 0.000139569)
(0.137975 -0.00080777 0.000118518)
(0.138291 -0.0001264 0.000945633)
(0.138065 0.000688089 0.00052475)
(0.137732 0.000143698 0.00105708)
(0.137429 -0.000693007 -0.000425091)
(0.137896 -0.000972312 -0.000209378)
(0.138724 -0.000575629 0.0010825)
(0.138353 0.000864928 0.000359224)
(0.137635 2.61321e-05 0.000171548)
(0.137372 -0.00061335 -0.00057815)
(0.137778 -0.00133777 -0.000137354)
(0.138621 -0.000608849 0.000725229)
(0.138342 0.00104419 0.00049587)
(0.137756 0.000336622 0.000706294)
(0.137439 -0.000312788 -0.000796446)
(0.137507 -0.00076819 -0.000582593)
(0.138531 -0.000540646 0.000542575)
(0.137983 0.000895379 0.000443135)
(0.137408 -0.000453246 0.000532952)
(0.137702 -0.000978243 -0.000335063)
(0.137959 -0.000985963 -0.000543797)
(0.138645 -0.000550223 0.000820382)
(0.138158 0.000836635 0.000517973)
(0.137828 -6.39588e-05 0.000658432)
(0.137444 -0.000405339 -0.000633713)
(0.137555 -0.00105272 -0.000462215)
(0.139001 -0.000537758 0.00108948)
(0.137666 0.00105634 0.000403105)
(0.137758 -0.00113114 0.000469262)
(0.137655 -0.000635713 -0.000241825)
(0.137673 -0.00172973 -2.56074e-05)
(0.13923 -0.0006307 0.000850897)
(0.138179 0.000995498 0.000580002)
(0.137519 -0.0003574 0.000423076)
(0.137611 -0.000796545 -0.000582602)
(0.138045 -0.00110241 0.000305905)
(0.138835 -0.000266952 0.0012957)
(0.137716 0.00107634 0.000538291)
(0.137613 -0.000789606 0.000609814)
(0.137885 -0.00083574 1.65371e-05)
(0.139113 -0.00107193 -0.00045905)
(0.138544 0.000102146 0.000685789)
(0.137949 0.000904489 0.000854516)
(0.138983 -0.000213637 0.0021846)
(0.138871 -0.0011842 -0.000215634)
(0.139088 -0.00124341 -0.000625428)
(0.139337 -0.000467103 0.000823868)
(0.138344 0.0011134 0.000548522)
(0.13881 -0.000408438 0.000993754)
(0.138631 -0.00117536 -0.000512766)
(0.138918 -0.00184034 -0.00060793)
(0.139069 -0.000524176 0.000389681)
(0.138201 0.00139979 0.000710807)
(0.138838 4.5868e-05 0.00155469)
(0.138784 -0.000799399 -0.000726014)
(0.13847 -0.0010279 -0.00108111)
(0.139029 -0.000448037 0.000194754)
(0.137866 0.00113595 0.000654796)
(0.138634 -0.00097104 0.00151029)
(0.139179 -0.00152598 -0.000107325)
(0.138953 -0.00125866 -0.00105449)
(0.13912 -0.000472068 0.000515877)
(0.138031 0.00108385 0.000720905)
(0.138973 -0.000467733 0.00156429)
(0.138778 -0.000919136 -0.000501458)
(0.138772 -0.00136623 -0.000955038)
(0.139663 -0.000400296 0.000885824)
(0.137408 0.00132927 0.000795434)
(0.139173 -0.00180269 0.00138772)
(0.138806 -0.00118641 -0.000214667)
(0.138624 -0.00224717 -0.000702355)
(0.139866 -0.000628136 0.000329557)
(0.13812 0.00117318 0.000745813)
(0.13866 -0.00085861 0.0012308)
(0.138828 -0.00141641 -0.000611663)
(0.139166 -0.00151084 -0.000131938)
(0.139333 -0.000128634 0.00106627)
(0.137485 0.00130047 0.000806301)
(0.138768 -0.0014464 0.00157541)
(0.139244 -0.0014642 0.000199883)
(0.139681 -0.00125971 -0.0015062)
(0.138002 0.000453646 -0.000765919)
(0.138077 0.000906488 0.00148055)
(0.141149 -0.000933529 0.00505551)
(0.140691 -0.00179747 0.00130719)
(0.140009 -0.00150777 -0.00112512)
(0.139132 -0.000284528 -0.000668731)
(0.138708 0.00115272 0.000826184)
(0.141261 -0.00125052 0.00358797)
(0.140331 -0.00193875 0.00078009)
(0.139788 -0.00236636 -0.00130613)
(0.13865 -0.000357337 -0.00117694)
(0.138236 0.00156511 0.00102337)
(0.140901 -0.000665942 0.00394338)
(0.140763 -0.00145675 0.000682865)
(0.139272 -0.00124875 -0.00167978)
(0.138868 -0.000267188 -0.00125224)
(0.138225 0.00116751 0.00106387)
(0.14104 -0.00189587 0.00427029)
(0.140979 -0.00217273 0.00132139)
(0.139563 -0.00149123 -0.00185013)
(0.138853 -0.00032194 -0.000862212)
(0.138044 0.00111458 0.00100779)
(0.140947 -0.00129201 0.00403983)
(0.140736 -0.00161458 0.000942145)
(0.140119 -0.00170827 -0.00146177)
(0.139486 -0.000197985 -0.000463831)
(0.13786 0.00136405 0.0014124)
(0.141615 -0.00283003 0.00422496)
(0.140295 -0.00185458 0.00102501)
(0.138711 -0.00284421 -0.00183614)
(0.139414 -0.000650751 -0.00167067)
(0.138356 0.00110574 0.000976158)
(0.140859 -0.00172466 0.0037433)
(0.140261 -0.00221313 0.000554493)
(0.139671 -0.00199006 -0.00098488)
(0.13896 6.46457e-05 -0.000489339)
(0.137788 0.00130272 0.00120494)
(0.14064 -0.0025061 0.00434604)
(0.140505 -0.00223904 0.00155945)
(0.13661 -0.00123611 -0.00381825)
(0.135186 0.000512923 -0.00397952)
(0.138224 0.000281097 0.00284513)
(0.141559 -0.00197206 0.00968426)
(0.139567 -0.0020704 0.0036071)
(0.137378 -0.00164034 -0.00255332)
(0.136034 -0.000452631 -0.00404808)
(0.139153 0.000462898 0.0016776)
(0.142387 -0.00239943 0.0081207)
(0.139102 -0.00238855 0.00293782)
(0.137144 -0.00270546 -0.00311912)
(0.135535 -0.000475783 -0.00458448)
(0.138296 0.00102221 0.00202138)
(0.141438 -0.00178302 0.00816009)
(0.140167 -0.00181049 0.00323074)
(0.137078 -0.00124569 -0.00300733)
(0.136312 -0.000404028 -0.00429386)
(0.138954 0.00050978 0.00218056)
(0.142036 -0.0030733 0.00892752)
(0.139535 -0.00241594 0.00330454)
(0.13699 -0.00154892 -0.00376024)
(0.135992 -0.000492437 -0.00376938)
(0.137845 0.000475062 0.00187035)
(0.140988 -0.00249398 0.00831293)
(0.140037 -0.0020693 0.00342493)
(0.138403 -0.0018993 -0.00258963)
(0.136246 -0.00036776 -0.00351356)
(0.139199 0.000673899 0.00267478)
(0.142116 -0.00392009 0.00897106)
(0.139221 -0.00213853 0.00309093)
(0.134947 -0.00332353 -0.00413333)
(0.135794 -0.00112322 -0.00554313)
(0.138337 0.000314286 0.00188853)
(0.141528 -0.00281275 0.00816431)
(0.138743 -0.0026312 0.00265026)
(0.136146 -0.00238269 -0.00309617)
(0.135842 -8.83741e-05 -0.00400595)
(0.138549 0.000642898 0.00223382)
(0.140514 -0.00368851 0.00890901)
(0.138296 -0.0025672 0.0035186)
(0.13004 -0.00104514 -0.00875461)
(0.130561 -0.00013722 -0.00801964)
(0.136322 -0.00097204 0.00594842)
(0.136022 -0.00283023 0.014133)
(0.133145 -0.00175166 0.00362478)
(0.130763 -0.0016192 -0.00671751)
(0.130501 -0.00124946 -0.00828715)
(0.13707 -0.000965678 0.00455723)
(0.137119 -0.00330946 0.0128353)
(0.132309 -0.00221681 0.00298257)
(0.130668 -0.00275257 -0.00768244)
(0.130136 -0.00116631 -0.00870245)
(0.13611 -0.000248838 0.00513238)
(0.136061 -0.00273515 0.0127136)
(0.133999 -0.00151268 0.00401748)
(0.131191 -0.00102245 -0.00673212)
(0.131516 -0.00114782 -0.00804302)
(0.137496 -0.000870584 0.00520812)
(0.136813 -0.00394141 0.0136036)
(0.132496 -0.00205499 0.00284112)
(0.131137 -0.00149452 -0.00815617)
(0.13055 -0.00120217 -0.00719832)
(0.135265 -0.000787127 0.00458535)
(0.134965 -0.00346876 0.0129013)
(0.133618 -0.00193887 0.0040158)
(0.13227 -0.00183119 -0.00618418)
(0.130236 -0.00115324 -0.0074779)
(0.138565 -0.000704198 0.00579818)
(0.136277 -0.00457003 0.0135662)
(0.13326 -0.00189373 0.00292289)
(0.12802 -0.00353965 -0.00895303)
(0.129779 -0.00214483 -0.00959458)
(0.135495 -0.00111503 0.00510734)