/*--------------------------------*- C++ -*----------------------------------*\
  =========                 |
  \\      /  F ield         | OpenFOAM: The Open Source CFD Toolbox
   \\    /   O peration     | Website:  https://openfoam.org
    \\  /    A nd           | Version:  10
     \\/     M anipulation  |
\*---------------------------------------------------------------------------*/
FoamFile
{
    format      ascii;
    class       volVectorField;
    location    "7";
    object      UMean;
}
// * * * * * * * * * * * * * * * * * * * * * * * * * * * * * * * * * * * * * //

dimensions      [0 1 -1 0 0 0 0];

internalField   nonuniform List<vector> 
25600
(
(0.132987 4.23843e-06 -8.19894e-07)
(0.132991 5.13402e-06 -1.30886e-06)
(0.132992 6.42698e-06 -8.53265e-07)
(0.13299 8.0878e-06 -9.32256e-07)
(0.132993 8.82646e-06 -9.84137e-07)
(0.132991 1.03592e-05 -1.1116e-06)
(0.132991 1.08456e-05 -1.18915e-06)
(0.13299 1.1493e-05 -1.28985e-06)
(0.132988 1.13156e-05 -1.28649e-06)
(0.132987 1.07332e-05 -1.4702e-06)
(0.132987 9.918e-06 -1.51318e-06)
(0.132986 8.47767e-06 -1.68681e-06)
(0.132986 6.83901e-06 -1.62747e-06)
(0.132986 4.68278e-06 -1.58239e-06)
(0.132987 2.30058e-06 -1.41456e-06)
(0.132988 8.60901e-08 -1.22159e-06)
(0.132989 -2.13803e-06 -1.0161e-06)
(0.13299 -3.89202e-06 -7.13134e-07)
(0.132991 -5.43706e-06 -4.54135e-07)
(0.132992 -6.63958e-06 -9.004e-08)
(0.132993 -7.24946e-06 2.01978e-07)
(0.132994 -7.70993e-06 5.47597e-07)
(0.132995 -7.7217e-06 7.9767e-07)
(0.132995 -7.98809e-06 9.44517e-07)
(0.132996 -7.56719e-06 1.01495e-06)
(0.132996 -7.10676e-06 9.40171e-07)
(0.132997 -6.16127e-06 7.86286e-07)
(0.132996 -5.07837e-06 4.49154e-07)
(0.132998 -4.31846e-06 1.97215e-07)
(0.132996 -2.9957e-06 -2.20273e-07)
(0.132997 -2.2515e-06 -5.65997e-07)
(0.132996 -9.09102e-07 -9.58308e-07)
(0.132994 -4.69674e-07 -1.35308e-06)
(0.132996 5.85554e-07 -1.45623e-06)
(0.132989 5.10928e-07 -1.83848e-06)
(0.132996 1.35759e-06 -1.62951e-06)
(0.132985 1.77349e-06 -1.51132e-06)
(0.132994 2.01439e-06 -1.49581e-06)
(0.132984 2.56929e-06 -1.41919e-06)
(0.132994 3.55224e-06 -1.14622e-06)
(0.134448 4.47283e-06 -4.18357e-07)
(0.134451 5.14825e-06 -1.18374e-06)
(0.134453 6.07194e-06 -4.07812e-07)
(0.13445 7.86672e-06 -4.03552e-07)
(0.134453 8.21534e-06 -3.94244e-07)
(0.134451 1.05846e-05 -6.54844e-07)
(0.134451 1.10806e-05 -7.84473e-07)
(0.134451 1.23307e-05 -9.05299e-07)
(0.134449 1.18789e-05 -8.82094e-07)
(0.134449 1.10863e-05 -1.14881e-06)
(0.134448 1.03245e-05 -1.22523e-06)
(0.134447 8.57204e-06 -1.58447e-06)
(0.134447 7.01371e-06 -1.61524e-06)
(0.134446 4.26039e-06 -1.74995e-06)
(0.134447 1.51744e-06 -1.74419e-06)
(0.134448 -9.4125e-07 -1.65301e-06)
(0.13445 -3.22467e-06 -1.61951e-06)
(0.134451 -4.75189e-06 -1.33231e-06)
(0.134452 -6.50605e-06 -1.21083e-06)
(0.134454 -7.61238e-06 -7.60638e-07)
(0.134455 -8.01931e-06 -5.24968e-07)
(0.134456 -8.12426e-06 -7.16065e-08)
(0.134457 -7.90191e-06 2.11824e-07)
(0.134457 -8.37489e-06 4.3175e-07)
(0.134459 -7.93111e-06 6.53722e-07)
(0.134459 -7.41212e-06 6.42867e-07)
(0.134461 -6.09372e-06 6.77694e-07)
(0.134459 -4.44548e-06 2.96746e-07)
(0.134461 -3.79734e-06 3.54683e-07)
(0.134458 -1.64903e-06 -2.06969e-07)
(0.134461 -9.94181e-07 -2.03373e-07)
(0.134457 1.67043e-06 -9.52885e-07)
(0.134459 1.76804e-06 -1.00094e-06)
(0.134456 3.53334e-06 -1.30833e-06)
(0.134454 2.74176e-06 -1.73254e-06)
(0.134456 3.8801e-06 -1.42553e-06)
(0.13445 4.05555e-06 -1.24163e-06)
(0.134453 4.04761e-06 -1.45902e-06)
(0.134449 3.70869e-06 -1.23097e-06)
(0.134452 3.62304e-06 -1.30363e-07)
(0.134663 4.50242e-06 4.66864e-08)
(0.134666 5.60556e-06 -8.83659e-07)
(0.134668 5.80502e-06 9.41885e-08)
(0.134665 8.11205e-06 -6.34965e-08)
(0.134668 7.39664e-06 4.51494e-08)
(0.134666 1.11253e-05 -3.39433e-07)
(0.134667 1.12256e-05 -3.93584e-07)
(0.134665 1.36657e-05 -5.91399e-07)
(0.134663 1.25685e-05 -4.7951e-07)
(0.134663 1.17499e-05 -9.34379e-07)
(0.134661 1.12367e-05 -1.02627e-06)
(0.13466 9.19271e-06 -1.72509e-06)
(0.13466 7.95265e-06 -1.74022e-06)
(0.134659 4.23407e-06 -2.10854e-06)
(0.134659 1.07259e-06 -2.19764e-06)
(0.134661 -1.79053e-06 -2.18397e-06)
(0.134663 -4.20328e-06 -2.30328e-06)
(0.134664 -5.41298e-06 -1.94219e-06)
(0.134665 -7.66089e-06 -2.00875e-06)
(0.134667 -8.62112e-06 -1.31596e-06)
(0.13467 -8.69775e-06 -1.19625e-06)
(0.134671 -8.39756e-06 -4.45632e-07)
(0.134671 -7.95388e-06 -1.65453e-07)
(0.134671 -9.08043e-06 1.80628e-07)
(0.134673 -8.58833e-06 5.83543e-07)
(0.134674 -8.19804e-06 6.28061e-07)
(0.134676 -6.21449e-06 8.41942e-07)
(0.134674 -3.87005e-06 3.57657e-07)
(0.134677 -3.49052e-06 7.41159e-07)
(0.134674 -1.55291e-07 5.62476e-08)
(0.134677 5.13394e-07 2.42034e-07)
(0.134673 4.76344e-06 -7.97907e-07)
(0.134674 4.83003e-06 -6.33352e-07)
(0.13467 6.90376e-06 -1.20154e-06)
(0.134668 5.31608e-06 -1.51512e-06)
(0.13467 7.06764e-06 -1.30521e-06)
(0.134664 6.77256e-06 -8.97606e-07)
(0.134667 6.55121e-06 -1.29126e-06)
(0.134664 5.46208e-06 -8.8741e-07)
(0.134666 4.6481e-06 1.41257e-07)
(0.134832 4.554e-06 7.34447e-07)
(0.134835 6.03494e-06 -4.6076e-07)
(0.134838 5.42396e-06 7.74434e-07)
(0.134835 8.52316e-06 2.80195e-07)
(0.134839 6.2322e-06 4.75035e-07)
(0.134838 1.25209e-05 -2.06348e-07)
(0.134837 1.18321e-05 -1.53988e-07)
(0.134835 1.63837e-05 -4.70267e-07)
(0.134832 1.37116e-05 -1.31988e-07)
(0.134831 1.31034e-05 -9.01381e-07)
(0.13483 1.29154e-05 -9.63093e-07)
(0.134829 1.05607e-05 -2.17539e-06)
(0.134827 9.97228e-06 -2.02393e-06)
(0.134825 4.5241e-06 -2.7458e-06)
(0.134826 9.72152e-07 -2.82105e-06)
(0.134828 -2.59531e-06 -2.87601e-06)
(0.134831 -5.11699e-06 -3.14219e-06)
(0.134832 -5.85297e-06 -2.59516e-06)
(0.134833 -9.07202e-06 -2.97278e-06)
(0.134837 -9.68341e-06 -1.81038e-06)
(0.134839 -9.29081e-06 -1.92389e-06)
(0.134841 -8.42395e-06 -5.61505e-07)
(0.13484 -7.71601e-06 -3.93103e-07)
(0.13484 -1.01506e-05 1.80851e-07)
(0.134843 -9.56865e-06 7.89702e-07)
(0.134844 -9.65712e-06 8.69974e-07)
(0.134848 -6.54399e-06 1.28276e-06)
(0.134845 -3.3552e-06 5.98212e-07)
(0.134848 -3.6832e-06 1.50155e-06)
(0.134845 1.68282e-06 5.07107e-07)
(0.134849 1.81656e-06 1.03522e-06)
(0.134844 9.12454e-06 -5.83267e-07)
(0.134844 8.22042e-06 1.12236e-07)
(0.13484 1.13808e-05 -1.03704e-06)
(0.134838 7.92386e-06 -1.08744e-06)
(0.13484 1.11775e-05 -1.08085e-06)
(0.134834 1.02616e-05 -3.43627e-07)
(0.134836 9.83705e-06 -1.01633e-06)
(0.134832 7.24181e-06 -2.68529e-07)
(0.134835 5.2162e-06 6.61555e-07)
(0.134991 4.54526e-06 1.75106e-06)
(0.134994 6.59062e-06 9.56811e-08)
(0.134998 5.0522e-06 1.72833e-06)
(0.134994 9.17784e-06 6.10208e-07)
(0.134999 4.5099e-06 9.28526e-07)
(0.134999 1.48508e-05 -2.45243e-07)
(0.134997 1.24703e-05 -9.49681e-09)
(0.134995 2.04332e-05 -5.49065e-07)
(0.134989 1.4718e-05 2.24882e-07)
(0.13499 1.50224e-05 -1.10742e-06)
(0.134988 1.52778e-05 -1.01562e-06)
(0.134987 1.26896e-05 -3.061e-06)
(0.134983 1.32545e-05 -2.42321e-06)
(0.13498 4.99374e-06 -3.70229e-06)
(0.134983 1.23896e-06 -3.57836e-06)
(0.134985 -3.48524e-06 -3.71141e-06)
(0.134989 -5.87963e-06 -4.08299e-06)
(0.134989 -5.90579e-06 -3.21836e-06)
(0.134991 -1.08587e-05 -4.14703e-06)
(0.134996 -1.05348e-05 -2.22273e-06)
(0.134999 -9.56897e-06 -2.81713e-06)
(0.135 -7.90749e-06 -2.78652e-07)
(0.134998 -7.0529e-06 -4.83613e-07)
(0.134998 -1.16577e-05 5.08685e-07)
(0.135002 -1.0923e-05 1.2673e-06)
(0.135004 -1.20019e-05 1.40811e-06)
(0.135009 -7.06023e-06 2.0312e-06)
(0.135004 -2.99555e-06 1.06201e-06)
(0.135009 -4.53873e-06 2.79466e-06)
(0.135006 3.97273e-06 1.20256e-06)
(0.135011 3.04318e-06 2.32236e-06)
(0.135006 1.50728e-05 -2.22416e-07)
(0.135004 1.22426e-05 1.4733e-06)
(0.134998 1.70928e-05 -7.92491e-07)
(0.134997 1.05636e-05 -2.80791e-07)
(0.135 1.67184e-05 -7.47592e-07)
(0.134992 1.46586e-05 6.72018e-07)
(0.134993 1.41003e-05 -5.36699e-07)
(0.134988 9.18819e-06 7.77508e-07)
(0.134993 5.79798e-06 1.36139e-06)
(0.135141 4.28573e-06 3.34788e-06)
(0.135144 7.11771e-06 9.45108e-07)
(0.135148 4.52184e-06 3.17524e-06)
(0.135143 9.85905e-06 1.01334e-06)
(0.13515 1.9287e-06 1.40123e-06)
(0.135151 1.82621e-05 -5.3068e-07)
(0.135149 1.28904e-05 1.18349e-08)
(0.135145 2.61343e-05 -9.18686e-07)
(0.135136 1.5215e-05 5.35246e-07)
(0.13514 1.77218e-05 -1.66394e-06)
(0.135136 1.84157e-05 -1.25486e-06)
(0.135136 1.57717e-05 -4.51031e-06)
(0.13513 1.81927e-05 -2.84849e-06)
(0.135126 5.56212e-06 -4.96524e-06)
(0.135129 2.14657e-06 -4.48323e-06)
(0.135132 -4.69609e-06 -4.77192e-06)
(0.135138 -6.35587e-06 -5.06427e-06)
(0.135137 -5.40851e-06 -3.74492e-06)
(0.135139 -1.31242e-05 -5.53075e-06)
(0.135146 -1.08291e-05 -2.47594e-06)
(0.13515 -9.42887e-06 -3.95034e-06)
(0.135151 -6.63978e-06 5.9725e-07)
(0.135146 -5.73964e-06 -5.02557e-07)
(0.135146 -1.37076e-05 1.37785e-06)
(0.135151 -1.27193e-05 2.05776e-06)
(0.135155 -1.56435e-05 2.40487e-06)
(0.135162 -7.86061e-06 3.15582e-06)
(0.135155 -3.0524e-06 1.85287e-06)
(0.13516 -6.44051e-06 4.87198e-06)
(0.135158 6.83113e-06 2.185e-06)
(0.135164 3.97678e-06 4.42004e-06)
(0.135159 2.32007e-05 3.9409e-07)
(0.135154 1.67287e-05 3.74041e-06)
(0.135147 2.42416e-05 -5.25572e-07)
(0.135146 1.30084e-05 1.15818e-06)
(0.135151 2.4047e-05 -2.06602e-07)
(0.13514 2.01425e-05 2.45056e-06)
(0.135141 1.96578e-05 2.90768e-07)
(0.135135 1.10414e-05 2.62299e-06)
(0.135141 6.28086e-06 2.50111e-06)
(0.135281 3.45516e-06 5.87718e-06)
(0.135285 7.50113e-06 2.36136e-06)
(0.135289 3.79851e-06 5.35205e-06)
(0.135282 1.05158e-05 1.58773e-06)
(0.135294 -1.5961e-06 1.8264e-06)
(0.135295 2.29292e-05 -1.10122e-06)
(0.135292 1.27691e-05 -1.74503e-07)
(0.135286 3.37407e-05 -1.69454e-06)
(0.135274 1.46362e-05 7.19725e-07)
(0.135282 2.15418e-05 -2.75075e-06)
(0.135277 2.21758e-05 -1.81062e-06)
(0.135277 2.00157e-05 -6.77031e-06)
(0.135267 2.51528e-05 -3.2151e-06)
(0.135261 6.10532e-06 -6.65528e-06)
(0.135267 4.04013e-06 -5.33978e-06)
(0.13527 -6.39882e-06 -6.01954e-06)
(0.135278 -6.38973e-06 -5.93915e-06)
(0.135276 -4.03413e-06 -4.04412e-06)
(0.135278 -1.58633e-05 -7.1534e-06)
(0.135288 -1.00452e-05 -2.43942e-06)
(0.135292 -8.81908e-06 -5.27655e-06)
(0.135293 -4.38263e-06 2.47252e-06)
(0.135284 -3.53464e-06 -4.10282e-07)
(0.135284 -1.63142e-05 3.1345e-06)
(0.135291 -1.50286e-05 3.19991e-06)
(0.135297 -2.12305e-05 4.11018e-06)
(0.135306 -9.21885e-06 4.8083e-06)
(0.135295 -4.01322e-06 3.2198e-06)
(0.135304 -9.93838e-06 8.05544e-06)
(0.135302 1.02915e-05 3.52563e-06)
(0.13531 4.11623e-06 7.53223e-06)
(0.135303 3.40432e-05 1.40839e-06)
(0.135295 2.15057e-05 7.22533e-06)
(0.135286 3.29955e-05 -2.88904e-07)
(0.135287 1.51278e-05 3.59867e-06)
(0.135295 3.34305e-05 7.46817e-07)
(0.135279 2.66187e-05 5.41606e-06)
(0.135278 2.64992e-05 1.64052e-06)
(0.135271 1.24348e-05 5.63417e-06)
(0.135279 6.76357e-06 4.27178e-06)
(0.135413 1.43146e-06 9.88436e-06)
(0.135417 7.46933e-06 4.85515e-06)
(0.135422 2.6439e-06 8.68968e-06)
(0.135413 1.1038e-05 2.64498e-06)
(0.13543 -6.2098e-06 2.22644e-06)
(0.135432 2.88359e-05 -1.96022e-06)
(0.135428 1.17195e-05 -6.73551e-07)
(0.135419 4.32805e-05 -3.03932e-06)
(0.135403 1.23065e-05 6.42939e-07)
(0.135417 2.68362e-05 -4.5555e-06)
(0.135409 2.62297e-05 -2.77067e-06)
(0.13541 2.57164e-05 -9.97081e-06)
(0.135395 3.42355e-05 -3.45386e-06)
(0.135387 6.55062e-06 -8.65594e-06)
(0.135395 7.1906e-06 -5.99996e-06)
(0.135399 -8.91919e-06 -7.17725e-06)
(0.135412 -5.92063e-06 -6.43301e-06)
(0.135405 -1.87268e-06 -3.80717e-06)
(0.135409 -1.90886e-05 -8.73151e-06)
(0.135423 -7.72886e-06 -1.72393e-06)
(0.135426 -7.81065e-06 -6.69909e-06)
(0.135427 -8.97076e-07 6.04014e-06)
(0.135413 -2.2931e-07 2.06711e-08)
(0.135413 -1.95655e-05 6.47337e-06)
(0.135421 -1.80128e-05 4.72413e-06)
(0.135431 -2.96731e-05 7.16681e-06)
(0.135444 -1.16483e-05 7.27629e-06)
(0.135427 -6.70558e-06 5.71434e-06)
(0.135441 -1.56412e-05 1.27869e-05)
(0.135439 1.42543e-05 5.58146e-06)
(0.13545 2.75698e-06 1.20493e-05)
(0.135441 4.78517e-05 3.00769e-06)
(0.135427 2.59315e-05 1.24411e-05)
(0.135416 4.33782e-05 3.64041e-09)
(0.135419 1.67567e-05 7.56334e-06)
(0.135431 4.49496e-05 2.55698e-06)
(0.135409 3.38161e-05 1.01411e-05)
(0.135406 3.44111e-05 3.79485e-06)
(0.135397 1.27757e-05 1.03935e-05)
(0.135409 7.27245e-06 7.08666e-06)
(0.135537 -2.74007e-06 1.62021e-05)
(0.135542 6.65091e-06 9.23974e-06)
(0.135548 6.06948e-07 1.37815e-05)
(0.135535 1.13024e-05 4.86113e-06)
(0.135559 -1.19614e-05 2.42275e-06)
(0.135561 3.54956e-05 -2.69741e-06)
(0.135556 9.35903e-06 -1.64314e-06)
(0.135544 5.47485e-05 -4.90596e-06)
(0.135523 7.45244e-06 1.57364e-07)
(0.135546 3.39698e-05 -7.19248e-06)
(0.135533 3.00937e-05 -4.19729e-06)
(0.135538 3.33492e-05 -1.41543e-05)
(0.135515 4.55504e-05 -3.43342e-06)
(0.135505 7.02551e-06 -1.08755e-05)
(0.135516 1.18506e-05 -6.17193e-06)
(0.13552 -1.27806e-05 -7.98339e-06)
(0.135539 -5.10008e-06 -5.98147e-06)
(0.135526 8.59986e-07 -2.53426e-06)
(0.135533 -2.29772e-05 -9.70229e-06)
(0.135551 -3.09743e-06 1.64357e-07)
(0.135553 -6.72495e-06 -7.73102e-06)
(0.135553 4.13078e-06 1.2137e-05)
(0.135533 4.41689e-06 1.32233e-06)
(0.135533 -2.33669e-05 1.23303e-05)
(0.135543 -2.1807e-05 6.72062e-06)
(0.135557 -4.1967e-05 1.25725e-05)
(0.135574 -1.5921e-05 1.11815e-05)
(0.13555 -1.22193e-05 1.01656e-05)
(0.135571 -2.44802e-05 1.97829e-05)
(0.135568 1.84097e-05 8.63457e-06)
(0.135584 -1.2488e-06 1.85274e-05)
(0.135571 6.4824e-05 5.57149e-06)
(0.13555 2.876e-05 1.99387e-05)
(0.135538 5.52905e-05 6.87891e-07)
(0.135544 1.73633e-05 1.35526e-05)
(0.13556 5.83388e-05 5.82831e-06)
(0.135531 4.14375e-05 1.74768e-05)
(0.135524 4.28893e-05 7.30569e-06)
(0.135514 1.14093e-05 1.75738e-05)
(0.13553 7.82349e-06 1.15276e-05)
(0.135653 -1.07052e-05 2.61635e-05)
(0.13566 4.56942e-06 1.68012e-05)
(0.135665 -3.08864e-06 2.16251e-05)
(0.135649 1.09619e-05 9.44266e-06)
(0.135682 -1.89321e-05 2.30249e-06)
(0.135683 4.19683e-05 -2.61147e-06)
(0.135678 5.16365e-06 -3.0148e-06)
(0.13566 6.75386e-05 -6.94009e-06)
(0.135636 -6.91872e-07 -7.52254e-07)
(0.135669 4.24438e-05 -1.07792e-05)
(0.13565 3.28008e-05 -5.84379e-06)
(0.135659 4.32099e-05 -1.9343e-05)
(0.135625 5.88837e-05 -2.83971e-06)
(0.135614 7.64152e-06 -1.27412e-05)
(0.135628 1.78279e-05 -5.7317e-06)
(0.135633 -1.89713e-05 -7.60604e-06)
(0.13566 -4.30927e-06 -4.06855e-06)
(0.135639 3.55839e-06 6.51509e-07)
(0.135649 -2.79943e-05 -9.13679e-06)
(0.135672 4.32235e-06 3.84445e-06)
(0.135672 -6.44306e-06 -7.52228e-06)
(0.135673 1.09004e-05 2.20967e-05)
(0.135643 1.04177e-05 4.57921e-06)
(0.135643 -2.77373e-05 2.22475e-05)
(0.135654 -2.66539e-05 9.289e-06)
(0.135675 -5.97499e-05 2.2145e-05)
(0.135698 -2.32003e-05 1.75326e-05)
(0.135665 -2.21421e-05 1.8191e-05)
(0.135695 -3.7898e-05 3.01444e-05)
(0.13569 2.20927e-05 1.33284e-05)
(0.135712 -9.85872e-06 2.79652e-05)
(0.135696 8.50577e-05 9.98506e-06)
(0.135664 2.81998e-05 3.07219e-05)
(0.135652 6.85578e-05 2.54869e-06)
(0.135662 1.58038e-05 2.24062e-05)
(0.135682 7.24672e-05 1.19191e-05)
(0.135644 4.87233e-05 2.82738e-05)
(0.135633 5.07511e-05 1.32738e-05)
(0.135622 7.21967e-06 2.82189e-05)
(0.135643 7.99123e-06 1.85407e-05)
(0.135761 -2.47472e-05 4.17486e-05)
(0.135772 6.79343e-07 2.94391e-05)
(0.135777 -9.90402e-06 3.41214e-05)
(0.135755 9.63518e-06 1.84022e-05)
(0.135798 -2.75304e-05 1.81467e-06)
(0.135797 4.65952e-05 1.08647e-07)
(0.135794 -1.57394e-06 -4.5383e-06)
(0.135769 8.00835e-05 -7.7325e-06)
(0.135741 -1.31479e-05 -2.0471e-06)
(0.135787 5.15514e-05 -1.49561e-05)
(0.13576 3.25052e-05 -7.32083e-06)
(0.135776 5.58634e-05 -2.52461e-05)
(0.135727 7.32128e-05 -5.41721e-07)
(0.135715 8.25703e-06 -1.34219e-05)
(0.135732 2.39365e-05 -4.31418e-06)
(0.135739 -2.88571e-05 -4.76915e-06)
(0.135776 -4.43096e-06 3.01678e-07)
(0.135743 5.06515e-06 7.18012e-06)
(0.135761 -3.50214e-05 -5.75026e-06)
(0.135787 1.3933e-05 1.0039e-05)
(0.135783 -8.50956e-06 -4.40834e-06)
(0.135787 1.98416e-05 3.74567e-05)
(0.135744 1.77434e-05 1.16408e-05)
(0.135745 -3.27029e-05 3.79966e-05)
(0.135757 -3.29997e-05 1.26754e-05)
(0.135785 -8.49349e-05 3.84396e-05)
(0.135816 -3.47905e-05 2.77943e-05)
(0.135771 -3.88831e-05 3.21393e-05)
(0.135815 -5.76936e-05 4.56596e-05)
(0.135806 2.36014e-05 2.06324e-05)
(0.135836 -2.58076e-05 4.21504e-05)
(0.135814 0.000108061 1.73809e-05)
(0.13577 2.11978e-05 4.64213e-05)
(0.13576 8.26758e-05 7.1672e-06)
(0.135773 9.75513e-06 3.52214e-05)
(0.135799 8.55993e-05 2.29287e-05)
(0.135749 5.47189e-05 4.38651e-05)
(0.135733 5.61733e-05 2.34477e-05)
(0.135723 -1.17446e-06 4.37277e-05)
(0.135749 6.69263e-06 2.92862e-05)
(0.135861 -4.79194e-05 6.56297e-05)
(0.135878 -5.56303e-06 5.0185e-05)
(0.135881 -2.22554e-05 5.40531e-05)
(0.135854 6.61052e-06 3.43989e-05)
(0.135908 -3.96068e-05 8.94861e-07)
(0.135905 4.69373e-05 8.45961e-06)
(0.135904 -1.21218e-05 -5.22577e-06)
(0.13587 8.95594e-05 -5.37469e-06)
(0.135839 -3.18926e-05 -3.42024e-06)
(0.1359 5.98441e-05 -1.92045e-05)
(0.135864 2.70482e-05 -7.35852e-06)
(0.135888 7.18791e-05 -3.12021e-05)
(0.135821 8.66329e-05 5.12441e-06)
(0.135809 8.68371e-06 -1.14565e-05)
(0.135828 2.73246e-05 -1.92801e-06)
(0.135836 -4.47568e-05 2.59604e-06)
(0.135886 -7.38687e-06 8.17718e-06)
(0.135841 3.44405e-06 1.95439e-05)
(0.135867 -4.51311e-05 2.15895e-06)
(0.135895 2.46287e-05 1.94971e-05)
(0.135888 -1.54937e-05 4.3851e-06)
(0.135896 3.14249e-05 6.09401e-05)
(0.135837 2.5387e-05 2.55862e-05)
(0.135837 -3.84286e-05 6.19855e-05)
(0.135848 -4.2023e-05 1.73038e-05)
(0.135886 -0.000120301 6.58864e-05)
(0.135927 -5.2493e-05 4.42936e-05)
(0.135869 -6.6011e-05 5.6001e-05)
(0.13593 -8.67539e-05 6.87686e-05)
(0.135915 1.9697e-05 3.21787e-05)
(0.135956 -5.35434e-05 6.37706e-05)
(0.135926 0.000132081 3.0172e-05)
(0.135868 3.45922e-06 6.9273e-05)
(0.135861 9.6464e-05 1.70798e-05)
(0.135876 -4.07324e-06 5.34092e-05)
(0.135911 9.49663e-05 4.21255e-05)
(0.135845 5.77737e-05 6.57211e-05)
(0.135824 5.60138e-05 4.11362e-05)
(0.135816 -1.55024e-05 6.58598e-05)
(0.135847 1.68406e-06 4.56642e-05)
(0.135955 -8.44464e-05 0.000101418)
(0.135979 -1.52156e-05 8.26502e-05)
(0.135979 -4.36176e-05 8.55141e-05)
(0.135947 9.23953e-07 6.07567e-05)
(0.136011 -5.86357e-05 -5.96385e-07)
(0.136005 3.96796e-05 2.67234e-05)
(0.136008 -2.79799e-05 -4.24894e-06)
(0.135963 9.1844e-05 3.40995e-06)
(0.135931 -5.93807e-05 -4.64466e-06)
(0.136007 6.37352e-05 -2.32728e-05)
(0.135963 1.37613e-05 -4.70146e-06)
(0.135996 9.13918e-05 -3.55027e-05)
(0.135906 9.65256e-05 1.6581e-05)
(0.135895 7.6848e-06 -4.70632e-06)
(0.135914 2.3816e-05 1.24674e-06)
(0.135926 -7.0789e-05 1.74277e-05)
(0.135992 -1.59312e-05 2.10437e-05)
(0.13593 -4.75785e-06 4.08218e-05)
(0.135968 -5.97206e-05 1.63253e-05)
(0.135996 3.35868e-05 3.28571e-05)
(0.135986 -3.05736e-05 2.20982e-05)
(0.136 4.62597e-05 9.45377e-05)
(0.135921 3.18758e-05 5.02503e-05)
(0.135921 -4.60504e-05 9.60763e-05)
(0.135929 -5.56485e-05 2.32078e-05)
(0.135979 -0.000169798 0.000109386)
(0.136032 -7.8652e-05 6.9514e-05)
(0.135959 -0.000108396 9.44288e-05)
(0.136042 -0.000129098 0.000102121)
(0.136016 6.00384e-06 4.94618e-05)
(0.136073 -9.95262e-05 9.64224e-05)
(0.136032 0.0001552 5.05202e-05)
(0.135959 -3.13866e-05 0.000102739)
(0.135956 0.000107885 3.44558e-05)
(0.135972 -3.16614e-05 7.85387e-05)
(0.136018 9.64297e-05 7.32897e-05)
(0.135934 5.48365e-05 9.56633e-05)
(0.135906 4.54045e-05 7.02607e-05)
(0.135903 -3.83394e-05 9.6466e-05)
(0.135936 -1.07416e-05 6.94951e-05)
(0.136041 -0.000138682 0.000152844)
(0.136074 -2.85699e-05 0.000130715)
(0.13607 -7.77718e-05 0.000132909)
(0.136034 -9.05585e-06 0.000100263)
(0.136105 -8.97545e-05 -3.99367e-06)
(0.136098 2.01693e-05 5.98123e-05)
(0.136106 -5.26281e-05 -1.47446e-06)
(0.136048 8.09642e-05 2.26289e-05)
(0.136016 -9.98759e-05 -7.16304e-06)
(0.136108 5.72988e-05 -2.74097e-05)
(0.136057 -1.19353e-05 2.20654e-06)
(0.136099 0.00011444 -3.70326e-05)
(0.135981 9.89857e-05 3.72595e-05)
(0.135973 3.51402e-06 7.43893e-06)
(0.13599 6.86137e-06 4.5074e-06)
(0.136009 -0.000110974 4.2801e-05)
(0.136092 -3.38374e-05 4.00143e-05)
(0.136013 -2.37197e-05 7.47422e-05)
(0.136065 -8.2469e-05 3.73755e-05)
(0.136089 3.59407e-05 5.01765e-05)
(0.136077 -5.86544e-05 5.27658e-05)
(0.136099 6.53417e-05 0.000141148)
(0.135995 3.48273e-05 9.04383e-05)
(0.135995 -5.73112e-05 0.000141954)
(0.135996 -7.71063e-05 3.01004e-05)
(0.136062 -0.000238953 0.000175312)
(0.13613 -0.000115654 0.000106621)
(0.136038 -0.00017254 0.000153532)
(0.136149 -0.000190107 0.00014802)
(0.136108 -2.51844e-05 7.42247e-05)
(0.136186 -0.000171327 0.000144659)
(0.136131 0.000175168 8.14872e-05)
(0.136041 -9.04975e-05 0.000150792)
(0.136045 0.000114929 6.27165e-05)
(0.136058 -8.02586e-05 0.00011159)
(0.13612 8.49468e-05 0.000122236)
(0.136014 4.30879e-05 0.000135496)
(0.135979 1.82235e-05 0.000116437)
(0.135984 -7.23217e-05 0.000136378)
(0.136016 -3.67203e-05 0.000102711)
(0.136121 -0.000216165 0.000221727)
(0.136161 -4.7662e-05 0.000196455)
(0.136153 -0.000130884 0.000199132)
(0.136113 -2.45062e-05 0.000152004)
(0.136189 -0.00013989 -1.40387e-05)
(0.136183 -1.55374e-05 0.000110186)
(0.136195 -8.8794e-05 9.82445e-07)
(0.136122 4.97116e-05 5.45063e-05)
(0.136096 -0.000156197 -1.60484e-05)
(0.136202 3.34278e-05 -3.4822e-05)
(0.136147 -5.44096e-05 1.28825e-05)
(0.136197 0.000141442 -3.5733e-05)
(0.136045 8.89648e-05 6.90339e-05)
(0.136042 -6.23249e-06 2.37764e-05)
(0.136055 -3.16384e-05 1.92014e-06)
(0.136084 -0.000171024 8.05668e-05)
(0.136186 -6.6027e-05 6.31542e-05)
(0.136087 -5.97026e-05 0.000123908)
(0.136158 -0.000117025 6.0666e-05)
(0.136173 2.44519e-05 6.68187e-05)
(0.136162 -0.00010481 9.63707e-05)
(0.136192 8.88917e-05 0.000199083)
(0.136057 3.10207e-05 0.000148416)
(0.13606 -7.40212e-05 0.000195872)
(0.136049 -0.000110946 3.33958e-05)
(0.136135 -0.000333596 0.000265781)
(0.136218 -0.000166515 0.000155675)
(0.136106 -0.000266824 0.000235971)
(0.136253 -0.000277367 0.000202855)
(0.136189 -8.37191e-05 0.000103227)
(0.136298 -0.000279254 0.000210194)
(0.136223 0.000186643 0.000123518)
(0.136115 -0.000184447 0.000214891)
(0.136131 0.000115549 9.99009e-05)
(0.136135 -0.000161658 0.000149468)
(0.136218 5.45915e-05 0.000191096)
(0.136084 1.59266e-05 0.000184052)
(0.136042 -3.17083e-05 0.000182522)
(0.136059 -0.000122115 0.000181283)
(0.136085 -8.40646e-05 0.000143385)
(0.136204 -0.000316606 0.000298134)
(0.136242 -7.01848e-05 0.00027509)
(0.136236 -0.000208342 0.000278896)
(0.136206 -4.75832e-05 0.000204239)
(0.136274 -0.000219409 -4.71855e-05)
(0.136269 -7.27171e-05 0.000171355)
(0.136276 -0.000141262 -7.41472e-06)
(0.136189 -1.24287e-05 9.53032e-05)
(0.136184 -0.000235124 -4.97952e-05)
(0.136296 -1.69103e-05 -5.97324e-05)
(0.13624 -0.000118313 1.76478e-05)
(0.136288 0.000173852 -3.95389e-05)
(0.136103 5.88669e-05 0.00010894)
(0.136116 -2.46217e-05 3.06308e-05)
(0.136114 -0.000103011 -1.91868e-05)
(0.136159 -0.000256302 0.000123075)
(0.136275 -0.000117231 8.32527e-05)
(0.136158 -0.000119955 0.00018425)
(0.136264 -0.000168109 7.12004e-05)
(0.136258 -8.14178e-06 7.04875e-05)
(0.136249 -0.000175137 0.000147243)
(0.136283 0.000120078 0.000261662)
(0.13611 1.32328e-05 0.000223256)
(0.136131 -9.64828e-05 0.000245549)
(0.136093 -0.000163671 2.15228e-05)
(0.136205 -0.000458847 0.000376632)
(0.136295 -0.000231131 0.000210849)
(0.136163 -0.000401707 0.000340632)
(0.136373 -0.000397963 0.000247336)
(0.136266 -0.000181536 0.000122079)
(0.13642 -0.000433894 0.000283602)
(0.136306 0.000186301 0.000171219)
(0.136187 -0.000323279 0.000292672)
(0.136229 0.000107659 0.000134874)
(0.136212 -0.000284632 0.000178403)
(0.136323 5.10659e-07 0.000274161)
(0.136143 -2.87884e-05 0.000232631)
(0.136102 -0.000115363 0.000264383)
(0.13615 -0.00018842 0.000212036)
(0.136155 -0.000164223 0.000177667)
(0.136345 -0.000444202 0.000343835)
(0.136342 -9.34663e-05 0.000346993)
(0.136397 -0.000309692 0.000362102)
(0.136415 -7.82679e-05 0.000232349)
(0.136422 -0.000334776 -0.00013328)
(0.136406 -0.000147794 0.000211508)
(0.136373 -0.000212486 -5.10109e-05)
(0.136301 -0.000112052 0.000138059)
(0.136371 -0.000344168 -0.000139902)
(0.13644 -0.000104448 -0.000133909)
(0.136385 -0.000202346 -1.56356e-05)
(0.136391 0.000211092 -7.41949e-05)
(0.13621 4.15463e-06 0.000146309)
(0.136285 -5.85579e-05 2.25267e-06)
(0.136219 -0.000219191 -8.83169e-05)
(0.136277 -0.000369101 0.000141602)
(0.136384 -0.000189302 7.72486e-05)
(0.136281 -0.000210268 0.000252605)
(0.136482 -0.000245142 4.05527e-05)
(0.136393 -7.03877e-05 3.20099e-05)
(0.136383 -0.000269896 0.000170554)
(0.136401 0.000159808 0.000305136)
(0.136209 -2.39384e-05 0.000306876)
(0.136304 -0.000129847 0.000264732)
(0.13618 -0.000239833 -2.91771e-05)
(0.136323 -0.000619362 0.000471899)
(0.136381 -0.000310491 0.000247116)
(0.136261 -0.000589259 0.000448604)
(0.136614 -0.000562105 0.000233622)
(0.136378 -0.000332123 8.63104e-05)
(0.136617 -0.000646062 0.000316563)
(0.1364 0.000165977 0.000197267)
(0.136319 -0.0005174 0.000367601)
(0.136435 8.48961e-05 0.000130109)
(0.13634 -0.000463253 0.00015747)
(0.136488 -7.69274e-05 0.000329653)
(0.136215 -9.82722e-05 0.000249565)
(0.136226 -0.000238001 0.00034093)
(0.136362 -0.000280396 0.00018495)
(0.136279 -0.000283634 0.000166723)
(0.136726 -0.000579123 0.000288775)
(0.136628 -0.000131367 0.000404007)
(0.136945 -0.000469522 0.000501957)
(0.136997 -0.000124563 0.000272233)
(0.136785 -0.000493479 -0.000297179)
(0.13675 -0.000239309 0.000174424)
(0.136626 -0.000315322 -0.000154456)
(0.136717 -0.000281356 0.000236023)
(0.136909 -0.000490131 -0.000267115)
(0.136762 -0.000236342 -0.000290535)
(0.136746 -0.000306166 -0.000157945)
(0.136636 0.000244629 -0.00017769)
(0.136634 -0.000106692 0.000225149)
(0.136792 -0.000111001 -4.03965e-05)
(0.136505 -0.000384185 -0.000208087)
(0.136594 -0.000506393 7.91034e-05)
(0.136666 -0.000290585 4.4669e-05)
(0.136714 -0.000356099 0.000383411)
(0.137061 -0.000351898 1.18597e-06)
(0.136688 -0.00016731 -6.6662e-05)
(0.136731 -0.000387516 0.000108528)
(0.136707 0.000205607 0.000318703)
(0.136612 -0.000110966 0.000450565)
(0.136846 -0.000171614 0.000281169)
(0.136446 -0.000346921 -0.000127736)
(0.136656 -0.000804295 0.000475945)
(0.136605 -0.000406123 0.000225258)
(0.136674 -0.000860248 0.000582723)
(0.137223 -0.00077501 0.000147998)
(0.136622 -0.000547233 -6.54093e-05)
(0.137072 -0.000921313 0.000213498)
(0.136616 0.000118674 0.00016656)
(0.136782 -0.000798371 0.00047289)
(0.136969 4.81455e-05 8.85279e-05)
(0.136649 -0.000702209 3.46168e-05)
(0.136879 -0.000176182 0.000258686)
(0.136435 -0.000199211 0.000185234)
(0.136685 -0.000429577 0.00043068)
(0.136913 -0.000392737 0.00010526)
(0.136571 -0.000448946 6.31098e-05)
(0.13767 -0.000771143 0.000139798)
(0.137513 -0.000229458 0.000604483)
(0.138327 -0.000695209 0.000990952)
(0.138004 -0.000180176 0.000497043)
(0.137477 -0.000701491 -0.000511991)
(0.137557 -0.000380858 4.14728e-05)
(0.137431 -0.000515875 -0.000202188)
(0.137957 -0.000558232 0.000682029)
(0.137926 -0.000685707 -0.000269508)
(0.137366 -0.000436607 -0.0005273)
(0.137636 -0.000464829 -0.000443045)
(0.137386 0.000197373 -0.000244778)
(0.137874 -0.000316052 0.000640357)
(0.137728 -0.000194812 8.00662e-05)
(0.137137 -0.000607317 -0.000303384)
(0.137403 -0.000691661 -8.18581e-05)
(0.137528 -0.000477655 0.000129746)
(0.137942 -0.000597478 0.00083828)
(0.13807 -0.000500165 0.000107059)
(0.137215 -0.000316274 -0.000237591)
(0.13765 -0.00057543 -6.41837e-05)
(0.137582 0.000195905 0.000436971)
(0.137803 -0.000279351 0.000888004)
(0.137899 -0.000231735 0.000487825)
(0.137028 -0.000495993 -0.000271221)
(0.137505 -0.00105767 0.000309476)
(0.137351 -0.00058523 0.000204553)
(0.137958 -0.00126338 0.000963541)
(0.138205 -0.00105142 0.000147226)
(0.137079 -0.000864014 -0.000384005)
(0.138004 -0.00129896 -7.82166e-05)
(0.137295 -1.80375e-05 0.000139698)
(0.138059 -0.0012019 0.000832861)
(0.137852 -2.41218e-05 0.000137351)
(0.137232 -0.00102703 -0.000231233)
(0.137735 -0.000327066 -4.67829e-05)
(0.137157 -0.000394674 0.000124647)
(0.137903 -0.000707847 0.00078221)
(0.137743 -0.000533672 0.000139515)
(0.137129 -0.000668007 -0.000130495)
(0.139197 -0.00112483 6.83109e-05)
(0.139135 -0.000507669 0.00128822)
(0.140116 -0.00100418 0.00215407)
(0.138449 -0.00021429 0.000910993)
(0.138371 -0.00105591 -0.000771271)
(0.138858 -0.000716403 -7.8568e-05)
(0.139049 -0.000880093 0.000138382)
(0.139814 -0.000922817 0.00187266)
(0.13854 -0.000862665 -0.00011953)
(0.138197 -0.000817335 -0.000776756)
(0.139121 -0.000813395 -0.000730822)
(0.138791 -7.69927e-06 0.000180774)
(0.139724 -0.000598904 0.00179345)
(0.138207 -0.00023409 0.000483331)
(0.138139 -0.000969527 -0.000260913)
(0.138762 -0.00104778 -0.000265936)
(0.139184 -0.000808559 0.000700264)
(0.139709 -0.000910134 0.001891)
(0.138601 -0.000617475 0.000434209)
(0.13792 -0.000631862 -0.000495628)
(0.139296 -0.000973176 -0.000185466)
(0.139088 4.89715e-05 0.00100895)
(0.13961 -0.000521379 0.00196227)
(0.138575 -0.000249465 0.000996508)
(0.137847 -0.000790684 -0.000511693)
(0.13897 -0.00150397 6.27918e-05)
(0.138888 -0.000922933 0.000492837)
(0.139977 -0.00174023 0.00196447)
(0.138441 -0.00127766 0.000285403)
(0.137727 -0.00137924 -0.000871951)
(0.13923 -0.00189776 -0.00042992)
(0.138661 -0.000313937 0.0004549)
(0.13986 -0.00168703 0.00183178)
(0.138078 -4.75271e-05 0.000281517)
(0.137913 -0.00152281 -0.000664919)
(0.138954 -0.000652683 -0.000541452)
(0.138552 -0.000722424 0.000477836)
(0.13951 -0.00101825 0.00174238)
(0.137827 -0.000593947 0.000365007)
(0.137945 -0.00105225 -0.000363003)
(0.140496 -0.00172786 4.7109e-05)
(0.140321 -0.000852414 0.00255457)
(0.140041 -0.00109373 0.00368958)
(0.137074 -0.000259422 0.00103727)
(0.139392 -0.00168566 -0.00126365)
(0.139974 -0.00134769 -0.000219428)
(0.140494 -0.00132214 0.00120141)
(0.13995 -0.00113927 0.00370718)
(0.137502 -0.00102004 -7.23943e-05)
(0.139292 -0.0015053 -0.00108568)
(0.140365 -0.00139457 -0.000936372)
(0.139732 -0.000355539 0.0015108)
(0.140068 -0.000701159 0.00346625)
(0.136919 -0.000213952 0.000902335)
(0.139394 -0.00159661 -0.000345484)
(0.1399 -0.00164767 -0.000588928)
(0.14056 -0.0012389 0.00197925)
(0.13973 -0.0010493 0.0033561)
(0.137535 -0.000709127 0.000726039)
(0.138884 -0.00127677 -0.00106365)
(0.140909 -0.00165506 -0.000167531)
(0.139965 -0.000193267 0.00221475)
(0.140072 -0.000631983 0.00360487)
(0.137293 -0.000182292 0.00136471)