/*--------------------------------*- C++ -*----------------------------------*\
  =========                 |
  \\      /  F ield         | OpenFOAM: The Open Source CFD Toolbox
   \\    /   O peration     | Website:  https://openfoam.org
    \\  /    A nd           | Version:  10
     \\/     M anipulation  |
\*---------------------------------------------------------------------------*/
FoamFile
{
    format      ascii;
    class       volVectorField;
    location    "12";
    object      U;
}
// * * * * * * * * * * * * * * * * * * * * * * * * * * * * * * * * * * * * * //

dimensions      [0 1 -1 0 0 0 0];

internalField   nonuniform List<vector> 
25600
(
(0.0542667 0.00019374 -0.0238894)
(0.0595636 -0.000245637 -0.00105445)
(0.0623675 -0.000191621 0.00918299)
(0.0575363 0.00053789 0.0138579)
(0.0555807 0.000440312 0.0138303)
(0.0576835 0.000242909 0.0105979)
(0.0583464 0.000185466 0.0123939)
(0.0630712 0.000278041 0.0197896)
(0.0826831 0.000354778 0.0132847)
(0.0978994 -0.000207031 -0.0138897)
(0.0920091 -0.000661814 -0.0117625)
(0.0781482 2.85353e-05 -0.00470397)
(0.0680338 0.000131384 -0.00737411)
(0.0618594 -0.000602435 0.00403617)
(0.0534782 -0.000241919 0.0151143)
(0.0413074 0.00028726 0.00277493)
(0.0410299 7.96008e-05 -0.00449676)
(0.0497757 -0.000123294 0.000238798)
(0.0623587 3.01545e-05 -0.0148158)
(0.0568842 -3.57507e-05 -0.0171433)
(0.0461373 0.000380287 0.00836606)
(0.038179 0.000515478 0.0320434)
(0.0374278 -0.000351801 0.030954)
(0.0435458 -0.000398882 0.01278)
(0.0452061 -7.87792e-05 -0.00254313)
(0.0413095 -0.000183632 -0.010015)
(0.0447582 9.96589e-05 -0.0136605)
(0.0428451 0.00058856 -0.016256)
(0.044057 0.000298572 -0.00133687)
(0.0468693 -5.4132e-05 0.0144715)
(0.0607608 -0.000264066 0.0028776)
(0.0556708 0.000113785 -0.00893341)
(0.0444215 0.000840911 -0.00588551)
(0.0487153 0.000383674 -0.00859383)
(0.055765 -0.000172806 -0.00313649)
(0.0547641 5.00912e-05 -0.003693)
(0.0472039 0.00019919 -0.0148387)
(0.0421981 0.000134374 -0.0056194)
(0.0418173 0.000163533 0.00899253)
(0.049601 0.000214408 -0.00966966)
(0.169285 0.000632834 -0.04647)
(0.18322 -0.0012167 -0.00242488)
(0.176923 0.000132656 0.0182243)
(0.167255 0.00357958 0.0383168)
(0.17284 0.00236885 0.0381353)
(0.181757 0.00113507 0.0330246)
(0.177557 0.000865912 0.0329317)
(0.182193 0.000866363 0.0447082)
(0.244455 0.000219034 0.0315746)
(0.307526 -0.00166243 -0.0303919)
(0.282873 -0.0022223 -0.0269277)
(0.240085 0.000217023 -0.017629)
(0.230171 -0.000272574 -0.0224393)
(0.20082 -0.00239769 0.0112499)
(0.154809 -0.000127377 0.0299476)
(0.129147 0.00159908 0.00201498)
(0.133234 0.000385925 -0.00471519)
(0.144738 -0.000686409 -0.00122417)
(0.178985 -0.000535595 -0.0397639)
(0.17004 -0.00020479 -0.0387889)
(0.153665 0.00287395 0.025201)
(0.148642 0.00232602 0.0708063)
(0.134085 -0.00236447 0.0545649)
(0.127717 -0.00179435 0.0150463)
(0.130992 -0.000292888 -0.0107548)
(0.119965 -0.000742134 -0.0187804)
(0.129912 0.000721085 -0.0276164)
(0.129999 0.00283566 -0.0312179)
(0.138313 0.00142788 0.00133387)
(0.141893 -0.00062241 0.0294167)
(0.177436 -0.00102213 0.00196018)
(0.160267 0.00229869 -0.0237673)
(0.135678 0.00498298 -0.0237354)
(0.161873 0.00190173 -0.0252106)
(0.178434 -0.000401716 -0.00709278)
(0.163305 0.00158404 -0.014937)
(0.13985 0.00237241 -0.0336108)
(0.129354 0.00140797 -0.00692455)
(0.130664 0.00108846 0.0137239)
(0.153095 0.00110522 -0.0286097)
(0.280073 0.00166898 -0.0610008)
(0.302693 -0.00235636 -0.0155346)
(0.287462 0.000396948 0.0113029)
(0.282926 0.00733437 0.0524607)
(0.299452 0.00488693 0.0596633)
(0.324475 0.00245958 0.0555312)
(0.3076 0.00243125 0.0524077)
(0.289444 0.00230948 0.0638826)
(0.374159 -0.00130353 0.0632501)
(0.505382 -0.00493706 -0.0255773)
(0.483302 -0.00381839 -0.0352238)
(0.41956 0.000613803 -0.0268321)
(0.420455 -0.000756428 -0.0485447)
(0.370846 -0.0035857 -0.000164493)
(0.274473 0.000724122 0.0379132)
(0.232751 0.00311447 0.00392021)
(0.242929 0.00061014 -0.00131978)
(0.235797 -0.00146997 0.00712885)
(0.287376 -0.00156116 -0.0515614)
(0.291168 -0.00147266 -0.0710225)
(0.282635 0.00538617 0.0150101)
(0.308757 0.0053885 0.0862684)
(0.271962 -0.00468659 0.0671826)
(0.219536 -0.00372995 0.0134727)
(0.219435 -0.000766052 -0.0183877)
(0.198415 -0.00151473 -0.0190732)
(0.210186 0.000980021 -0.0277828)
(0.215329 0.00544902 -0.0404172)
(0.234722 0.00354202 -0.00557722)
(0.229458 -0.000813439 0.0367538)
(0.282454 -0.00166582 0.0091323)
(0.270133 0.00551659 -0.029599)
(0.231788 0.0105756 -0.0405074)
(0.27582 0.00424855 -0.0463578)
(0.313359 -0.000577184 -0.0145362)
(0.28496 0.00400445 -0.0208658)
(0.241071 0.00623299 -0.0474863)
(0.225489 0.00414978 -0.0121997)
(0.225146 0.00272951 0.0200947)
(0.255318 0.00247643 -0.0332091)
(0.380193 0.00357212 -0.0633637)
(0.408157 -0.00311848 -0.0270187)
(0.388562 -0.000324714 -0.0137628)
(0.39459 0.00971689 0.0434526)
(0.421944 0.00690361 0.0666915)
(0.483801 0.00360645 0.068676)
(0.462502 0.00442799 0.0710336)
(0.408807 0.00508678 0.0827619)
(0.479246 -0.00364548 0.11441)
(0.656185 -0.0112523 0.0046458)
(0.652451 -0.00620254 -0.0367096)
(0.588457 0.00100001 -0.016186)
(0.620539 -0.00116863 -0.0696055)
(0.563817 -0.0029659 -0.0329765)
(0.42521 0.00258708 0.0401879)
(0.357508 0.00430784 0.00940137)
(0.388419 0.000567982 -0.00136593)
(0.341702 -0.00301155 0.026099)
(0.377256 -0.00343793 -0.0387626)
(0.40631 -0.00483719 -0.107689)
(0.400608 0.00424633 -0.0318069)
(0.509344 0.0085237 0.0775767)
(0.489255 -0.00554815 0.0805119)
(0.350496 -0.00649313 0.0133561)
(0.316986 -0.00274739 -0.0358469)
(0.281475 -0.00243912 -0.0257947)
(0.286419 0.00120887 -0.0165996)
(0.286314 0.00698637 -0.0362188)
(0.32762 0.00594565 -0.0141444)
(0.31164 -0.000247711 0.0349102)
(0.360774 -0.0016625 0.0214518)
(0.3785 0.00902529 -0.0225749)
(0.332508 0.0167823 -0.0472534)
(0.37487 0.00694324 -0.0677987)
(0.443263 -0.000613839 -0.0271477)
(0.424351 0.00667409 -0.0202065)
(0.356315 0.010746 -0.0575809)
(0.328585 0.00797545 -0.02488)
(0.328171 0.00545992 0.025832)
(0.354484 0.0044906 -0.0248981)
(0.480779 0.00643223 -0.0573579)
(0.502054 -0.0030572 -0.0154058)
(0.479545 -0.000919095 -0.0368617)
(0.490474 0.00972676 0.00511574)
(0.497539 0.00585751 0.0358988)
(0.613992 0.00255568 0.0462814)
(0.6292 0.00482927 0.0655936)
(0.558733 0.00752326 0.0844487)
(0.612763 -0.00666188 0.17349)
(0.794035 -0.0196939 0.0714305)
(0.771437 -0.010914 -0.0398606)
(0.675302 -0.00083575 0.015)
(0.788219 -0.00304085 -0.0462409)
(0.752384 -0.000503822 -0.0693352)
(0.601193 0.00656943 0.031286)
(0.487096 0.00487004 0.0254909)
(0.563213 0.000491108 -0.00724803)
(0.507321 -0.00509902 0.0400748)
(0.474148 -0.0048563 0.00399285)
(0.507459 -0.00942979 -0.112881)
(0.463342 -0.00404371 -0.106488)
(0.66051 0.00473629 0.0195001)
(0.765923 -0.0039196 0.0903844)
(0.577011 -0.00596711 0.036552)
(0.463045 -0.00789563 -0.0547202)
(0.369523 -0.00610632 -0.0585797)
(0.373483 0.00221141 -0.0135406)
(0.347824 0.00796803 -0.0137299)
(0.407687 0.00665294 -0.00360245)
(0.401189 -0.000110712 0.0312337)
(0.410065 -0.00118178 0.0300113)
(0.465169 0.0129096 -0.00750923)
(0.440024 0.0230185 -0.0389825)
(0.455113 0.00862154 -0.0738228)
(0.531081 -0.0011593 -0.0336732)
(0.565424 0.00909692 -0.0140502)
(0.490642 0.0146822 -0.0574735)
(0.43097 0.0107085 -0.038456)
(0.434229 0.00831991 0.0242087)
(0.460727 0.00779218 -0.0187683)
(0.599663 0.0101098 -0.0705168)
(0.611916 -0.00198595 0.00698586)
(0.561453 -0.000130689 -0.0290567)
(0.595119 0.00979024 -0.0367792)
(0.53861 0.00238072 -0.0285547)
(0.654664 -0.0022517 -0.0248963)
(0.741171 0.00072224 0.0155591)
(0.683058 0.00561637 0.0266384)
(0.737 -0.015569 0.157068)
(0.918089 -0.0304936 0.144781)
(0.905131 -0.0141457 -0.0364457)
(0.65411 -0.0053134 0.0312664)
(0.826468 -0.0138368 0.0301062)
(0.889462 -0.000701379 -0.0714365)
(0.789135 0.0119122 0.00363957)
(0.594059 0.00387388 0.0493268)
(0.676505 -0.000705034 -0.0020984)
(0.695484 -0.00710064 0.0386685)
(0.620837 -0.0040043 0.0553886)
(0.641247 -0.00983401 -0.0594718)
(0.505474 -0.0141069 -0.150263)
(0.647889 -0.0145833 -0.0989159)
(0.902014 -0.0140974 0.0495198)
(0.835945 0.00140999 0.087537)
(0.717328 -0.0066493 -0.0188091)
(0.498983 -0.0140238 -0.0905603)
(0.462637 0.000433995 -0.0452142)
(0.440218 0.0101573 -0.00422743)
(0.490212 0.00662286 0.0267306)
(0.510181 -0.0020788 0.0410265)
(0.461074 -0.00204255 0.0336958)
(0.506383 0.0168268 0.0110318)
(0.543651 0.0296498 -0.0240708)
(0.555752 0.0105057 -0.0733232)
(0.56599 -0.00254455 -0.0187573)
(0.657301 0.0108122 0.00605629)
(0.63666 0.0175986 -0.048876)
(0.540882 0.00838401 -0.038625)
(0.52554 0.00733046 0.0316739)
(0.568491 0.0111519 -0.0203851)
(0.699203 0.00948324 -0.110051)
(0.751322 -0.00161318 -0.00482457)
(0.643662 0.00321134 0.00291899)
(0.688809 0.00884663 -0.0511597)
(0.640917 -0.00501239 -0.0649487)
(0.662956 -0.0114498 -0.0955597)
(0.809713 -0.00745393 -0.0394264)
(0.774554 -0.000569856 -0.0430634)
(0.80664 -0.0302585 0.0406111)
(0.906231 -0.0481776 0.139008)
(1.01038 -0.0131111 -0.0196348)
(0.679388 -0.00325776 0.012551)
(0.8004 -0.038391 0.0759957)
(0.904743 -0.0145498 -0.0431533)
(0.950638 0.0148742 -0.0295549)
(0.751391 0.00312758 0.0415497)
(0.717044 -0.00180788 0.00872376)
(0.76852 -0.0108821 0.0312696)
(0.717916 -0.00452625 0.0883483)
(0.816726 -0.00537559 0.018231)
(0.621618 -0.0143445 -0.107583)
(0.629506 -0.0320077 -0.175726)
(0.836285 -0.0400932 -0.0532383)
(0.910026 -0.00173956 0.0859802)
(0.946478 0.00462222 0.0517281)
(0.720958 -0.0140223 -0.0527468)
(0.55425 -0.00492522 -0.0811074)
(0.537031 0.00925911 -0.0486994)
(0.595108 0.00835375 0.0296428)
(0.640365 -0.00413269 0.0564436)
(0.557804 -0.00398587 0.0322277)
(0.515302 0.0213468 0.034528)
(0.591184 0.0339413 0.00855405)
(0.700246 0.0127578 -0.0863551)
(0.6358 -0.000337041 -0.0184734)
(0.664257 0.0116275 0.0602475)
(0.75123 0.019055 -0.0259139)
(0.689298 0.00380266 -0.0516742)
(0.605091 -0.00202938 0.0473634)
(0.628281 0.00760374 -0.000590603)
(0.718236 -0.00438317 -0.137142)
(0.850356 -0.0128595 -0.0703422)
(0.736253 0.00570757 0.0174725)
(0.733024 0.0102651 -0.0443584)
(0.758231 -0.00975138 -0.0507037)
(0.698224 -0.0237011 -0.125616)
(0.874545 -0.0232335 -0.084041)
(0.89701 -0.0107485 -0.0447549)
(0.904957 -0.0378156 -0.0309582)
(0.861591 -0.0628399 0.0756173)
(1.02939 -0.0134592 -0.00372358)
(0.779257 0.0118313 -0.00167312)
(0.885006 -0.0422131 0.0697725)
(0.863248 -0.0334672 -0.0283037)
(0.992186 0.00463645 -0.0519239)
(0.966859 0.000379623 0.0243013)
(0.840585 0.00448319 -0.0114277)
(0.827504 -0.00800903 -0.00963666)
(0.699423 -0.0107762 0.0885705)
(0.941129 -0.00485772 0.0691142)
(0.790277 -0.007299 -0.0294857)
(0.726767 -0.0319222 -0.144015)
(0.842423 -0.0557354 -0.115578)
(0.877208 -0.0191751 0.0314169)
(1.03015 0.00930456 0.0719686)
(0.929113 -0.0024617 0.019802)
(0.686894 -0.00350399 -0.0593262)
(0.623829 0.00583953 -0.112729)
(0.65443 0.00597277 -0.0331418)
(0.728276 -0.00652139 0.0439912)
(0.682563 -0.00489465 0.0135032)
(0.54645 0.0297145 0.0465185)
(0.564837 0.034569 0.104507)
(0.778749 0.00524887 -0.0356794)
(0.786722 0.0037866 -0.0526821)
(0.671983 0.00998474 0.105472)
(0.780521 0.0144347 0.050271)
(0.839658 0.00387556 -0.0515347)
(0.724467 -0.0109321 0.0291814)
(0.662644 -0.0029973 0.046502)
(0.76272 -0.0205022 -0.0856783)
(0.886375 -0.0302823 -0.123673)
(0.821532 -0.00303457 -0.0146058)
(0.757885 0.0101473 -0.0348471)
(0.81933 -0.000913749 -0.00618881)
(0.751402 -0.0206545 -0.100852)
(0.885296 -0.0403183 -0.128109)
(0.970965 -0.0259946 -0.0315303)
(1.0153 -0.0346506 -0.0215032)
(0.88789 -0.0616537 0.0283617)
(1.03538 -0.0203504 0.00857223)
(0.859544 0.017652 -0.000734189)
(1.01104 -0.0292619 0.0842896)
(0.905981 -0.0285595 -0.00962178)
(0.911542 -0.00916267 -0.0856382)
(1.08385 -0.020277 0.0349854)
(1.00224 0.00435647 0.0053248)
(0.963041 0.0074553 -0.062872)
(0.68717 -0.0093318 0.0554852)
(0.959155 -0.0138367 0.0903325)
(0.919271 -0.0030848 0.0121075)
(0.80125 -0.022521 -0.0865558)
(0.91733 -0.0538095 -0.110192)
(0.891591 -0.0325731 -0.00456738)
(1.0085 -0.00219169 0.0537204)
(1.04759 0.00721245 0.0659598)
(0.842906 0.00835874 0.0171706)
(0.749413 0.00825504 -0.122992)
(0.725503 0.00284328 -0.112353)
(0.759071 -0.0150685 0.00792632)
(0.771126 -0.00909335 -0.0205536)
(0.63016 0.0375384 0.0154399)
(0.634098 0.0329497 0.178271)
(0.768143 -0.0086586 0.104025)
(0.883865 0.00290132 -0.0368314)
(0.749698 0.00321537 0.0742037)
(0.772508 -0.002793 0.12505)
(0.922047 0.000329467 0.00390496)
(0.846484 -0.0115782 0.00892096)
(0.773516 -0.0129558 0.101526)
(0.884469 -0.0294274 0.00391665)
(0.950749 -0.0398799 -0.0946016)
(0.885616 -0.0133669 -0.0327238)
(0.774752 0.00541094 -0.0289605)
(0.824907 0.0089284 0.0302083)
(0.801562 -0.00512739 -0.0389008)
(0.888224 -0.0426801 -0.118296)
(0.950563 -0.0441052 -0.0451774)
(1.06297 -0.0349027 -0.00126249)
(0.928997 -0.0490952 0.0192747)
(1.02548 -0.0275249 0.0174517)
(0.905796 0.00676382 0.00431913)
(1.04251 -0.0345771 0.0857992)
(1.01086 -0.0168911 0.0298883)
(0.868246 -0.0105049 -0.113593)
(1.06471 -0.0484173 0.0120425)
(1.09583 -0.0149852 0.0487307)
(1.10184 0.0157694 -0.0719432)
(0.760662 0.00412831 0.00854082)
(0.914074 -0.019456 0.0974635)
(0.978627 -0.00320593 0.0414562)
(0.84346 -0.0136693 -0.046489)
(0.945537 -0.0495074 -0.0968696)
(0.954771 -0.0331884 -0.0126097)
(0.980586 -0.010217 0.0375634)
(1.04333 0.00524137 0.0560741)
(0.941442 0.0199934 0.0872103)
(0.866876 0.0180972 -0.0448611)
(0.8402 0.00682204 -0.134469)
(0.845514 -0.0222366 -0.023429)
(0.832838 -0.0133069 -0.0230855)
(0.666349 0.0386132 -0.0272634)
(0.744255 0.0213303 0.12116)
(0.818927 -0.0182628 0.158266)
(0.900686 0.000117248 0.0275844)
(0.801959 -0.00207066 0.0261601)
(0.814791 -0.0264136 0.109908)
(0.975512 -0.0156118 0.0564117)
(0.906627 -0.0126779 0.010012)
(0.898551 -0.0182748 0.1147)
(0.963485 -0.0302998 0.034541)
(1.02862 -0.0357813 -0.0436511)
(0.940066 -0.00829193 -0.0196305)
(0.813232 0.00577886 -0.0343299)
(0.840915 0.0126312 0.0149865)
(0.837204 0.00432417 -0.00601548)
(0.929697 -0.0397145 -0.0698229)
(0.955175 -0.0546948 -0.0484398)
(1.05168 -0.0402644 0.00286337)
(0.969528 -0.0374239 0.0405556)
(1.00692 -0.0281919 0.0119907)
(0.926205 -0.00490845 0.000857083)
(0.991688 -0.0419264 0.0732538)
(1.06655 -0.00900903 0.0467082)
(0.929703 0.001735 -0.101222)
(1.00915 -0.0530334 -0.0126985)
(1.06155 -0.0334359 0.0747519)
(1.16213 0.0140201 -0.0527313)
(0.872147 0.0196894 -0.0417262)
(0.888875 -0.0133513 0.0621813)
(0.997948 -0.00170301 0.0574021)
(0.924747 -0.00504088 0.00185716)
(0.986444 -0.0475616 -0.079563)
(1.01855 -0.0349098 -0.0237061)
(1.01088 -0.0058215 0.053224)
(1.00678 0.00405202 0.0367235)
(0.955747 0.0215759 0.082043)
(0.933282 0.0254994 0.0339618)
(0.941256 0.0102434 -0.0865148)
(0.939164 -0.0214674 -0.0457127)
(0.86525 -0.00700796 -0.00649626)
(0.695373 0.0379916 -0.0325993)
(0.775996 0.004747 0.0402533)
(0.840841 -0.0292289 0.115226)
(0.919707 -0.00160813 0.0514221)
(0.85831 -0.00138478 0.0231758)
(0.867363 -0.042789 0.076174)
(1.02197 -0.0317413 0.061986)
(0.956658 -0.0131959 0.0221096)
(0.968462 -0.023678 0.0838032)
(0.974198 -0.0293583 0.0250816)
(1.05616 -0.0269926 -0.0250695)
(0.992932 0.00563404 0.000749307)
(0.882063 0.0126675 -0.0269955)
(0.904657 0.0119489 -0.00620058)
(0.898629 0.00899731 -0.00961884)
(0.961384 -0.037559 -0.0480085)
(0.999362 -0.0569608 -0.0403496)
(1.04695 -0.0375142 -0.00335346)
(0.971562 -0.0276658 0.0512643)
(0.999485 -0.0195552 0.00991714)
(0.951379 -0.00387979 -0.0121318)
(0.979256 -0.0450085 0.0616624)
(1.06901 -0.0121001 0.059832)
(1.02852 0.0121304 -0.0661339)
(1.03926 -0.0403203 -0.0158014)
(1.01979 -0.038167 0.082393)
(1.1157 0.00621383 -0.0322684)
(0.934352 0.0285272 -0.0637999)
(0.900268 -0.00620229 0.019535)
(0.992581 -0.00381529 0.0465462)
(1.0072 -0.00164669 0.0248748)
(1.0455 -0.0411808 -0.0596059)
(1.05203 -0.0328585 -0.0416304)
(1.04433 -7.59983e-05 0.0644937)
(1.01279 0.00941006 0.0477818)
(0.947508 0.0199216 0.0485367)
(0.928881 0.0236345 0.0425863)
(0.975274 0.00479925 -0.0409632)
(0.998624 -0.0187323 -0.0515808)
(0.89438 0.00175982 -0.0124886)
(0.757591 0.033251 -0.0341308)
(0.831355 -0.00948526 0.0069035)
(0.847742 -0.0444178 0.0821067)
(0.911956 -0.011814 0.0360831)
(0.911603 -0.000669267 0.0239484)
(0.892332 -0.0469811 0.0656598)
(1.00804 -0.0419111 0.0523737)
(0.987001 -0.0135165 0.0290121)
(0.994215 -0.0234462 0.0640913)
(0.963011 -0.0258288 0.0195581)
(1.0139 -0.0222126 -0.0330917)
(0.987397 0.0154056 0.000539153)
(0.931405 0.01874 -0.0104944)
(0.960902 0.00390513 0.00504432)
(0.97268 0.00789423 -0.0077192)
(0.989563 -0.0311088 -0.0473254)
(1.01546 -0.0601944 -0.0404156)
(1.07318 -0.0367279 -0.0162733)
(0.986515 -0.0171863 0.0367389)
(0.996893 -0.00559112 0.0134733)
(0.992514 0.000659595 -0.0184413)
(1.02989 -0.0414028 0.0356649)
(1.06384 -0.0177633 0.0519207)
(1.07251 0.0103945 -0.0492185)
(1.07474 -0.0296674 -0.0377851)
(1.0103 -0.0335869 0.0606307)
(1.04972 0.00288279 -0.0124369)
(0.975812 0.0264362 -0.0581903)
(0.964587 -0.0051437 0.000163369)
(1.00611 -0.00991032 0.0333614)
(1.05365 -0.0112264 0.0351791)
(1.09337 -0.0417253 -0.0346757)
(1.06707 -0.0294719 -0.0510362)
(1.03441 0.00295269 0.0548287)
(1.00954 0.0129647 0.0625821)
(0.964383 0.0220645 0.0400459)
(0.930973 0.0208516 0.0326792)
(0.948595 -0.00637951 -0.0273407)
(0.994752 -0.020755 -0.0378805)
(0.963688 0.00666996 -0.0106922)
(0.880039 0.0287788 -0.0465692)
(0.925006 -0.0105373 -0.0334404)
(0.914961 -0.0443616 0.0297157)
(0.906198 -0.0151057 0.00699175)
(0.922526 0.000600755 0.00579056)
(0.929393 -0.044431 0.0450649)
(1.00775 -0.0435489 0.0406771)
(0.99913 -0.0146099 0.020603)
(0.987473 -0.0201123 0.0516077)
(0.961279 -0.0207837 0.0180921)
(0.976009 -0.0176383 -0.0335144)
(0.969544 0.0185668 -0.00968863)
(0.974606 0.0203394 -0.00850607)
(0.989844 -0.00351944 0.0114093)
(1.00506 -0.00153871 -0.00437365)
(1.02489 -0.0258154 -0.0403493)
(1.03356 -0.0572745 -0.0293629)
(1.07585 -0.0369576 -0.015724)
(1.00083 -0.0103747 0.0146417)
(0.991087 0.00624337 0.0162862)
(1.0249 0.00324401 -0.0110242)
(1.06552 -0.0365733 0.0219825)
(1.05685 -0.0142819 0.040287)
(1.05954 0.00942269 -0.0364651)
(1.06055 -0.018737 -0.0476064)
(1.00352 -0.0272184 0.0309784)
(1.02578 0.000915625 0.0122836)
(1.03572 0.0178911 -0.0389626)
(1.05605 -0.00791126 -0.0066691)
(1.05885 -0.0100747 0.0199971)
(1.06386 -0.018831 0.0309877)
(1.08357 -0.0420846 -0.00660977)
(1.06526 -0.0226047 -0.0458517)
(1.01639 0.0049367 0.0246832)
(0.97658 0.0122433 0.0597143)
(0.954086 0.0216986 0.0535122)
(0.949774 0.017686 0.0332378)
(0.953306 -0.0113791 -0.025962)
(0.971646 -0.0218653 -0.0223866)
(1.00156 0.00432834 0.00882047)
(0.991812 0.0196535 -0.0372692)
(1.02517 -0.00901825 -0.0379036)
(1.01014 -0.0351512 -0.000313061)
(0.941827 -0.00835709 -0.0252952)
(0.947463 0.00483505 -0.018909)
(0.987598 -0.0401923 0.0308933)
(1.02633 -0.0414774 0.0359147)
(1.0019 -0.0121319 0.0102005)
(0.975822 -0.0147952 0.0390637)
(0.985195 -0.015629 0.0178354)
(0.984468 -0.0125171 -0.0285714)
(0.981568 0.0186214 -0.0170649)
(1.0147 0.019692 -0.0143969)
(1.01286 -0.00516339 0.00587456)
(1.01708 -0.00796386 -0.002272)
(1.0423 -0.0215893 -0.0344312)
(1.04498 -0.0477822 -0.0235355)
(1.06252 -0.0328489 -0.0121068)
(1.00453 -0.00591424 0.00343214)
(0.990193 0.0104308 0.0124222)
(1.04209 0.00105113 -0.00214741)
(1.0723 -0.0352137 0.0144095)
(1.03821 -0.00907748 0.0287889)
(1.04364 0.010954 -0.0236403)
(1.05242 -0.0109113 -0.0409639)
(1.01225 -0.0247034 0.0141125)
(1.03265 -0.00542105 0.018128)
(1.06532 0.00958735 -0.0234792)
(1.08146 -0.00947326 -0.00462694)
(1.06699 -0.00594122 0.0121388)
(1.05895 -0.0174697 0.0181931)
(1.05442 -0.0382347 0.00769366)
(1.03203 -0.014001 -0.0304852)
(1.00667 0.00790592 0.000449812)
(0.972522 0.0107527 0.0361865)
(0.937734 0.0205196 0.0496993)
(0.944629 0.0131748 0.0397615)
(0.974298 -0.0144396 -0.0137276)
(0.986053 -0.0200319 -0.0153391)
(1.0176 -0.000435427 0.0148451)
(1.03473 0.0100985 -0.0218828)
(1.05421 -0.0096206 -0.0162978)
(1.04897 -0.0263366 0.00598789)
(0.992455 7.09743e-05 -0.0313313)
(0.986872 0.00646105 -0.0230709)
(1.02003 -0.0379239 0.0192643)
(1.03112 -0.0368678 0.0257365)
(1.0096 -0.0106145 0.00259792)
(0.992882 -0.0128223 0.0246168)
(1.01239 -0.0108172 0.0112786)
(1.00636 -0.00858196 -0.0210082)
(1.00066 0.0173044 -0.0153469)
(1.03886 0.0158024 -0.0180158)
(1.03557 -0.00679842 -0.00297082)
(1.03177 -0.0101505 -0.00140168)
(1.05274 -0.0198399 -0.0275486)
(1.04768 -0.0399955 -0.0240039)
(1.04841 -0.0294112 -0.0159105)
(1.01118 -0.00712368 0.00111936)
(1.00163 0.00842901 0.00709271)
(1.05048 0.000756752 -0.00366153)
(1.06549 -0.0318715 0.00836432)
(1.01845 -0.00689154 0.0198415)
(1.03307 0.010618 -0.0159686)
(1.05651 -0.00840078 -0.0337012)
(1.03175 -0.0249906 0.00666513)
(1.0343 -0.0096633 0.0131262)
(1.04919 0.00593143 -0.0178964)
(1.05681 -0.00985871 -0.000377635)
(1.04296 -0.00522745 0.0102088)
(1.04476 -0.0133954 0.00897243)
(1.0402 -0.0291325 0.00937134)
(1.01501 -0.00845811 -0.017523)
(1.00176 0.00950031 -0.00654592)
(0.980229 0.0107004 0.0142749)
(0.952675 0.0196821 0.0299532)
(0.963499 0.0133283 0.0349271)
(0.995143 -0.0126219 -0.00399031)
(1.00974 -0.0195925 -0.0128077)
(1.03261 -0.00678137 0.00938519)
(1.04654 0.0049856 -0.0189099)
(1.05275 -0.00587678 -0.0117851)
(1.04812 -0.0205301 0.00963558)
(1.01882 0.00460375 -0.0263705)
(1.01582 0.00960373 -0.0197833)
(1.02921 -0.0316414 0.0134428)
(1.02508 -0.0284429 0.0193905)
(1.01965 -0.00823401 0.0045301)
(1.01684 -0.012351 0.0127266)
(1.02724 -0.00498287 0.00442087)
(1.02437 -0.00535379 -0.0144603)
(1.01443 0.0131534 -0.0106704)
(1.04642 0.00969944 -0.0163595)
(1.04487 -0.00659884 -0.00797237)
(1.03668 -0.0071924 -0.00365836)
(1.05389 -0.0179347 -0.019995)
(1.046 -0.0332359 -0.0171805)
(1.03744 -0.025168 -0.0113381)
(1.01855 -0.00972976 0.00202855)
(1.01285 0.00366303 0.00209984)
(1.04973 -3.27694e-05 -0.00714178)
(1.05872 -0.0269549 0.00518165)
(1.01375 -0.0061037 0.0153124)
(1.02882 0.00831624 -0.0101159)
(1.05559 -0.00754733 -0.0253369)
(1.04138 -0.023517 0.00262864)
(1.02892 -0.00956997 0.00970827)
(1.02927 0.0061248 -0.0121473)
(1.03863 -0.00819512 0.00243673)
(1.02989 -0.00426493 0.0105087)
(1.03454 -0.0110575 0.00573491)
(1.02979 -0.0203611 0.00729967)
(1.00996 -0.00147088 -0.00900092)
(1.00985 0.0139219 -0.00563999)
(1.0009 0.011084 0.00201222)
(0.982568 0.014895 0.0132799)
(0.998038 0.0158341 0.021928)
(1.02612 -0.00664609 -0.00551041)
(1.03363 -0.0190586 -0.0134405)
(1.04027 -0.00953652 0.00553939)
(1.04682 0.00379733 -0.0159687)
(1.04687 -0.00180076 -0.0120632)
(1.0363 -0.0163072 0.0109825)
(1.02298 0.00490535 -0.0180301)
(1.03065 0.010881 -0.0214613)
(1.03517 -0.0238244 0.00435644)
(1.02366 -0.0212571 0.0152107)
(1.02748 -0.00859459 0.00519671)
(1.02784 -0.0118886 0.00441959)
(1.03217 -0.00208118 0.00319395)
(1.03432 -0.00324082 -0.00968805)
(1.02499 0.00962107 -0.00871938)
(1.04635 0.00485916 -0.0135146)
(1.04466 -0.00627729 -0.00797626)
(1.0385 -0.00380094 -0.00436247)
(1.05314 -0.0143103 -0.0161711)
(1.04468 -0.0268933 -0.0146287)
(1.03545 -0.0219645 -0.00888905)
(1.0269 -0.0123473 0.0020836)
(1.02276 0.000741316 -0.000295652)
(1.04857 0.00103531 -0.00830528)
(1.05273 -0.0220276 0.00214577)
(1.01806 -0.00601689 0.0114511)
(1.03089 0.00542448 -0.00585754)
(1.05204 -0.00723754 -0.0191042)
(1.0431 -0.0200585 -0.00143568)
(1.0292 -0.00804859 0.00685089)
(1.02575 0.00632111 -0.00539886)
(1.03403 -0.00667082 0.00467466)
(1.02943 -0.00283821 0.00910392)
(1.03506 -0.00777036 0.00332201)
(1.02942 -0.012396 0.00409034)
(1.01478 0.00352676 -0.0044264)
(1.02419 0.0147327 -0.00416781)
(1.02654 0.0116455 -0.00423632)
(1.01597 0.0122779 0.00139248)
(1.02814 0.0143245 0.00873225)
(1.04845 -0.00418858 -0.00943853)
(1.04747 -0.0155008 -0.0150081)
(1.03867 -0.00840797 0.0033073)
(1.03905 0.00317617 -0.0116256)
(1.04306 0.00152882 -0.0131537)
(1.03201 -0.0120499 0.00745188)
(1.02211 0.00270605 -0.0119931)
(1.03776 0.0105936 -0.0195092)
(1.04171 -0.0168349 -0.00224359)
(1.02975 -0.0144181 0.0102449)
(1.03526 -0.00753492 0.00504548)
(1.03131 -0.0110971 0.00167309)
(1.03423 0.000619618 0.00398453)
(1.03709 -0.00308027 -0.00471019)
(1.02764 0.00550021 -0.00654427)
(1.0432 0.00293894 -0.0104128)
(1.04195 -0.00442061 -0.00508135)
(1.03835 -0.0015674 -0.000953852)
(1.04985 -0.0120807 -0.0104927)
(1.04138 -0.0218305 -0.0111123)
(1.03558 -0.018089 -0.00762485)
(1.03149 -0.0119615 0.00143299)
(1.02591 -0.000530745 -0.000422158)
(1.04584 0.00201007 -0.00771395)
(1.04785 -0.0176828 0.000210532)
(1.02237 -0.00564031 0.00849126)
(1.03533 0.00387956 -0.00250468)
(1.04917 -0.00627776 -0.0134447)
(1.03956 -0.0159379 -0.00252859)
(1.03007 -0.0068829 0.00472257)
(1.02872 0.00554899 -0.00243866)
(1.03498 -0.00525476 0.00542846)
(1.03251 -0.000717361 0.00895266)
(1.03755 -0.00473547 0.003048)
(1.03218 -0.00797683 0.00245796)
(1.02202 0.00545837 -0.00256531)
(1.03513 0.0129809 -0.00404333)
(1.04025 0.00943522 -0.00631776)
(1.03324 0.00795647 -0.00338074)
(1.04111 0.0109281 0.00305193)
(1.05135 -0.00236696 -0.00843628)
(1.04576 -0.011732 -0.0138131)
(1.03506 -0.00640336 0.00201242)
(1.03418 0.0018887 -0.00757269)
(1.04023 0.00198222 -0.0132326)
(1.03369 -0.00825314 0.00274103)
(1.02577 0.00171945 -0.00874951)
(1.04067 0.008938 -0.0149722)
(1.04378 -0.012057 -0.00347925)
(1.035 -0.00947897 0.00667318)
(1.04064 -0.00688576 0.00522935)
(1.03271 -0.00986012 0.00163597)
(1.0355 0.00111491 0.00479899)
(1.03913 -0.00295641 -0.00124459)
(1.02954 0.00445159 -0.00462528)
(1.04103 0.00304037 -0.00649248)
(1.04069 -0.00354928 -0.00180622)
(1.03851 -0.000340998 0.00164902)
(1.04789 -0.00833129 -0.0065081)
(1.0402 -0.0156472 -0.00759493)
(1.03705 -0.013701 -0.00543992)
(1.03451 -0.0105807 0.00100764)
(1.02802 -0.00140377 0.000223011)
(1.04402 0.00264108 -0.00602862)
(1.04601 -0.0136451 -0.0010455)
(1.02599 -0.00508127 0.00591308)
(1.03733 0.00280139 -0.000155047)
(1.04673 -0.00525316 -0.00872969)
(1.03754 -0.0115428 -0.00167331)
(1.03246 -0.00619749 0.00350014)
(1.03157 0.00427111 -0.00175087)
(1.03628 -0.00387968 0.00493278)
(1.03531 0.000345823 0.00849649)
(1.03888 -0.00240687 0.00340858)
(1.03425 -0.0053392 0.00159478)
(1.02632 0.00562522 -0.00150072)
(1.03858 0.00997919 -0.00281855)
(1.0428 0.00701698 -0.00442865)
(1.03694 0.00600349 -0.00259917)
(1.04192 0.00873431 0.00257432)
(1.04721 -0.00126311 -0.00478799)
(1.04206 -0.00893369 -0.0104106)
(1.03394 -0.00463116 0.00149779)
(1.03317 0.00120474 -0.0051167)
(1.03929 0.00269407 -0.0111165)
(1.03656 -0.00499625 0.000791737)
(1.03067 0.000431672 -0.00659177)
(1.04151 0.0075032 -0.00949375)
(1.04412 -0.00805442 -0.00199017)
(1.03838 -0.0063836 0.00373705)
(1.04271 -0.00536745 0.00478593)
(1.0338 -0.00820236 0.001866)
(1.03625 0.00131213 0.00395503)
(1.03956 -0.00349922 0.000390951)
(1.03096 0.00232594 -0.00296574)
(1.04039 0.00318289 -0.003578)
(1.04025 -0.00268585 -0.000729019)
(1.03808 0.000249615 0.00216637)
(1.04597 -0.0059617 -0.00371967)
(1.03957 -0.011417 -0.00469978)
(1.03818 -0.0102085 -0.0037561)
(1.03665 -0.0084297 0.000300792)
(1.03002 -0.001726 0.000673362)
(1.04248 0.00282716 -0.00373594)
(1.04488 -0.0102994 -0.000952112)
(1.02867 -0.00464311 0.00399776)
(1.03799 0.00230619 0.00112998)
(1.04492 -0.00436783 -0.00545894)
(1.03695 -0.00818099 -0.000571739)
(1.03457 -0.00596016 0.00272442)
(1.03275 0.00295955 -0.00179127)
(1.03673 -0.00254106 0.00421517)
(1.0366 0.000798909 0.00756859)
(1.03864 -0.000904386 0.00324533)
(1.03544 -0.00416135 0.000933981)
(1.0287 0.00520809 -0.000867883)
(1.03922 0.00802416 -0.00165848)
(1.04257 0.00574141 -0.00216565)
(1.03728 0.00435747 -0.00129204)
(1.04114 0.0063772 0.00240177)
(1.0446 -5.42181e-05 -0.00214101)
(1.04078 -0.00605701 -0.00751197)
(1.03483 -0.00301005 0.000899565)
(1.03424 0.00088332 -0.0033946)
(1.03912 0.00261973 -0.00818593)
(1.03787 -0.00275409 0.000172573)
(1.03437 0.000672958 -0.00516604)
(1.04186 0.00678696 -0.00513159)
(1.04332 -0.00535691 -0.00062274)
(1.03982 -0.00437664 0.00158379)
(1.04332 -0.00382905 0.00473894)
(1.03505 -0.00700141 0.0017883)
(1.03715 0.00104766 0.00274743)
(1.04018 -0.00339812 0.00108406)
(1.03244 0.00136024 -0.00202479)
(1.03969 0.00328163 -0.00169326)
(1.03991 -0.00223274 -0.000201503)
(1.03798 0.00079896 0.00205175)
(1.04458 -0.00372389 -0.00205449)
(1.03915 -0.00757108 -0.0027299)
(1.03853 -0.00701214 -0.00194376)
(1.0379 -0.00657606 -7.39662e-05)
(1.03205 -0.00199439 0.000648407)
(1.04148 0.00239158 -0.00199316)
(1.04372 -0.00785992 -0.000656955)
(1.03072 -0.00408928 0.00246297)
(1.03821 0.00191464 0.00152921)
(1.04352 -0.00416466 -0.0034309)
(1.03675 -0.00562653 6.61957e-05)
(1.03626 -0.00545403 0.00245053)
(1.03369 0.00191544 -0.00154779)
(1.03675 -0.00134215 0.00345059)
(1.03723 0.000523197 0.00587385)
(1.03822 0.000231018 0.0024504)
(1.03642 -0.00299756 0.000590719)
(1.03056 0.0048876 -0.00030609)
(1.03931 0.00640255 -0.000831577)
(1.0422 0.0044943 -0.000874251)
(1.03771 0.00346326 -0.000643879)
(1.04079 0.00485143 0.00178862)
(1.04284 0.000677582 -0.000664464)
(1.0404 -0.00402818 -0.00523884)
(1.03616 -0.00194936 0.000697668)
(1.03568 0.00094986 -0.00216311)
(1.03931 0.00283725 -0.00566141)
(1.03805 -0.000609365 0.000574813)
(1.03632 0.000688244 -0.00404778)
(1.04176 0.00556611 -0.00299618)
(1.0422 -0.00322464 0.000131692)
(1.04033 -0.00306319 0.00012462)
(1.04314 -0.00273864 0.00399714)
(1.03609 -0.00616179 0.00119348)
(1.03771 0.000922087 0.00149157)
(1.0401 -0.00320372 0.00127255)
(1.03379 -3.67475e-05 -0.00143411)
(1.03944 0.00304309 -0.000704137)
(1.03966 -0.00187735 -0.000322014)
(1.03789 0.00101442 0.001517)
(1.04328 -0.00251864 -0.00106626)
(1.03873 -0.00542089 -0.00159197)
(1.03883 -0.00469031 -0.000767239)
(1.03889 -0.00507974 -0.000391821)
(1.0337 -0.00195692 0.00047559)
(1.04058 0.00174242 -0.000760984)
(1.04262 -0.00590514 -0.000306709)
(1.03247 -0.00346829 0.00148727)
(1.03837 0.00156192 0.00157464)
(1.04251 -0.00383109 -0.00213117)
(1.03663 -0.00351823 0.000344247)
(1.03738 -0.00463192 0.00233972)
(1.03456 0.000976539 -0.00128245)
(1.03673 -0.000486722 0.00268642)
(1.03769 0.000205531 0.00434956)