/*--------------------------------*- C++ -*----------------------------------*\
  =========                 |
  \\      /  F ield         | OpenFOAM: The Open Source CFD Toolbox
   \\    /   O peration     | Website:  https://openfoam.org
    \\  /    A nd           | Version:  10
     \\/     M anipulation  |
\*---------------------------------------------------------------------------*/
FoamFile
{
    format      ascii;
    class       surfaceScalarField;
    location    "11";
    object      phi_0;
}
// * * * * * * * * * * * * * * * * * * * * * * * * * * * * * * * * * * * * * //

dimensions      [0 3 -1 0 0 0 0];

internalField   nonuniform List<scalar> 
74080
(
0.00495055
-1.72865e-06
-4.53745e-08
0.004946
-7.42922e-07
-2.24052e-06
0.00494834
-2.41668e-06
2.84334e-06
0.00494929
-1.30988e-06
-9.60697e-07
0.00494701
6.10236e-08
-1.19292e-06
0.0049494
-1.94645e-06
5.55589e-07
0.00494782
-7.9252e-07
7.24412e-07
0.00494866
-4.59137e-08
-1.4783e-06
0.00494869
1.38481e-06
-8.26283e-07
0.00494783
3.63167e-07
1.10118e-06
0.00494721
2.96019e-06
-5.21568e-07
0.00494803
-6.22012e-07
-7.79206e-07
0.00494771
3.17866e-06
-1.01253e-06
0.00494784
1.09526e-06
1.74555e-06
0.00494736
-1.12176e-06
-1.49967e-06
0.00494773
4.65882e-06
-1.31657e-06
0.00494892
-4.3578e-06
3.15971e-06
0.00494717
3.79593e-06
-2.3357e-06
0.00495026
-8.72164e-07
1.21547e-06
0.00494788
-2.08426e-06
1.45797e-06
0.00494961
2.98951e-06
-1.97142e-06
0.00495126
-5.08059e-06
3.14731e-06
0.00494846
2.4246e-06
-2.62028e-06
0.00495253
-1.86561e-06
1.17733e-06
0.00495007
-2.11529e-06
2.186e-06
0.00495126
3.00641e-06
-5.9584e-06
0.00495185
-2.11886e-06
5.41201e-06
0.00495042
1.45243e-06
-1.29169e-06
0.00495184
2.17513e-06
-3.90966e-06
0.00495086
-3.00496e-06
5.08735e-06
0.00495175
3.62112e-06
-4.34294e-06
0.00494865
1.24483e-06
2.68982e-06
0.00495147
-4.1936e-06
-5.95505e-07
0.00495004
3.34431e-06
-4.07728e-06
0.00494695
-3.83301e-07
7.17542e-06
0.0049522
-3.05729e-06
-5.21834e-06
0.00494704
1.22708e-06
-1.72608e-06
0.00494909
-1.46464e-06
4.50517e-06
0.00494921
-2.0152e-06
-4.59114e-06
2.03502e-07
1.95376e-06
0.00450027
-4.9575e-06
-4.22645e-07
0.00449628
2.88636e-06
-1.95104e-07
0.00449814
-3.79493e-06
1.00548e-06
0.00449858
-7.06365e-07
-2.94326e-07
0.00449792
3.88752e-07
-7.3126e-07
0.00449878
-2.24232e-06
1.13002e-08
0.00449886
-4.05099e-07
8.39005e-07
0.00449859
-7.06511e-07
-2.44455e-06
0.00449832
3.05165e-06
4.46871e-07
0.0044989
-5.27945e-07
-6.8034e-07
0.00449698
4.68164e-06
-8.84369e-07
0.00449762
-1.83189e-07
8.16337e-07
0.00449751
2.5609e-06
-3.35674e-06
0.00449819
1.05522e-06
2.43137e-06
0.00449609
1.88646e-07
-1.35893e-06
0.00449845
2.76792e-06
-2.07837e-06
0.00449845
-4.34234e-06
3.79019e-06
0.00449685
4.09869e-06
-2.15565e-06
0.0045003
-3.65225e-06
1.03827e-06
0.00449714
-8.63428e-08
1.97035e-06
0.0045003
3.00665e-07
-1.23839e-06
0.00449981
-5.68787e-06
2.32415e-06
0.00449948
2.56886e-06
-1.18711e-06
0.00450247
-3.67211e-06
7.76893e-07
0.00449947
-1.30172e-06
2.01512e-06
0.00450194
2.08573e-06
-4.77462e-06
0.0045012
-1.60154e-06
4.5942e-06
0.00450022
2.00558e-06
-3.65108e-07
0.00450167
2.13867e-06
-4.44853e-06
0.00450011
-2.73833e-06
5.92069e-06
0.00450072
3.48889e-06
-3.72486e-06
0.00449944
1.97685e-06
1.30905e-06
0.00450033
-5.05924e-06
7.78426e-07
0.00449868
4.67017e-06
-3.56261e-06
0.00449787
-5.19172e-08
5.60714e-06
0.0045012
-5.81386e-06
-4.25853e-06
0.00449661
5.08808e-06
-1.54361e-06
0.00449964
-3.70984e-06
2.93897e-06
0.00449834
-1.30406e-06
-2.86281e-06
2.39962e-06
8.67962e-07
0.00408987
-6.11718e-06
7.73635e-08
0.0040881
5.23264e-06
9.16753e-07
0.00408863
-4.24851e-06
-3.11518e-07
0.00408894
6.34713e-08
4.65855e-07
0.0040896
-5.81164e-09
-4.5928e-07
0.00408903
-1.55344e-06
-1.73477e-07
0.00409113
-1.95095e-06
2.06347e-07
0.00408886
9.41162e-07
-2.05343e-06
0.00408994
2.82215e-06
5.39817e-07
0.00408989
-1.08505e-07
-2.14474e-06
0.00408806
6.33415e-06
4.30038e-07
0.00408834
-3.48727e-08
1.6356e-07
0.00408802
2.84031e-06
-3.68186e-06
0.00408945
-1.26023e-07
2.8063e-06
0.0040859
3.13055e-06
-2.35165e-06
0.00409018
-8.07494e-07
-8.62375e-07
0.00408834
-2.78287e-06
3.29379e-06
0.00408801
3.60532e-06
-2.08803e-06
0.00409059
-6.0604e-06
1.7078e-06
0.00408781
2.14224e-06
1.81299e-06
0.00409155
-3.36768e-06
-4.07475e-07
0.00408932
-4.81584e-06
1.99747e-06
0.00409151
1.06981e-06
-6.06506e-07
0.00409294
-4.82501e-06
4.62568e-07
0.00409041
-5.98496e-07
2.04233e-06
0.00409305
1.35255e-06
-3.99801e-06
0.00409172
-9.66696e-07
3.91184e-06
0.00409092
2.73288e-06
4.13317e-07
0.00409256
1.58844e-06
-4.16798e-06
0.00409038
-2.27238e-06
5.85066e-06
0.00409064
3.56354e-06
-2.72884e-06
0.00409146
8.29929e-07
9.61393e-08
0.00408941
-3.70551e-06
1.76857e-06
0.00408899
4.91376e-06
-2.5738e-06
0.00409025
-1.50178e-06
3.25196e-06
0.00408986
-5.37956e-06
-2.5344e-06
0.00408844
6.38312e-06
-1.61408e-06
0.00409084
-5.72722e-06
1.34144e-06
0.00408769
1.4261e-06
-1.27849e-06
2.1389e-06
-7.6385e-07
0.00371658
-4.78357e-06
6.9948e-07
0.00371714
6.0249e-06
1.19841e-06
0.00371619
-3.15404e-06
-4.82913e-07
0.00371696
4.04102e-07
6.40485e-07
0.00371788
-2.67452e-07
-1.1571e-07
0.00371714
-1.01205e-06
-2.306e-07
0.00371955
-3.95675e-06
-6.50823e-07
0.00371716
3.04257e-06
-9.9763e-07
0.00371916
1.34728e-06
-8.18964e-07
0.00371718
2.58551e-06
-2.11862e-06
0.00371691
6.58711e-06
1.60932e-06
0.0037156
1.35644e-06
-1.85112e-06
0.00371614
2.78642e-06
-2.28762e-06
0.00371704
-9.87e-07
2.16033e-06
0.00371381
5.99717e-06
-3.63744e-06
0.00371847
-4.72776e-06
1.36198e-06
0.00371519
-1.70305e-07
1.80476e-06
0.00371692
1.58283e-06
-1.92495e-06
0.00371747
-6.51329e-06
3.09509e-06
0.00371629
2.81449e-06
1.12901e-06
0.00371927
-6.33392e-06
5.56955e-07
0.00371663
-3.47686e-06
2.29946e-06
0.00372035
-1.63702e-06
-1.19554e-06
0.00372077
-5.50028e-06
1.02847e-06
0.00371875
-1.08896e-07
1.74539e-06
0.00372134
7.98336e-07
-3.77105e-06
0.00371944
-2.47292e-08
4.33505e-06
0.00371866
3.72581e-06
2.68368e-07
0.00372086
1.50593e-07
-3.12817e-06
0.00371745
-1.0914e-06
5.50843e-06
0.0037189
2.29718e-06
-2.06081e-06
0.00371956
-3.60738e-08
-2.76825e-07
0.00371619
-1.72378e-06
2.23239e-06
0.00371774
3.53765e-06
-1.95598e-06
0.00371838
-2.05945e-06
1.23722e-06
0.00371659
-4.1198e-06
-8.51707e-07
0.00371797
5.68521e-06
-2.38505e-06
0.00371802
-6.15879e-06
2.35026e-07
0.00371518
4.15564e-06
-6.08114e-07
4.41369e-07
-2.11216e-06
0.00337758
-1.7741e-06
1.00431e-06
0.00337968
5.72725e-06
9.44555e-07
0.00337775
-7.66995e-07
4.70801e-07
0.00337885
4.54288e-07
1.59465e-07
0.00337946
1.41831e-08
2.15978e-07
0.00337944
-1.42006e-06
-1.27439e-07
0.00338122
-5.62256e-06
-1.44377e-06
0.00338033
4.1311e-06
-4.81525e-07
0.00338147
6.27704e-07
-2.27277e-06
0.00337848
6.4293e-06
-1.36799e-06
0.00337944
5.95096e-06
1.70577e-06
0.00337675
3.72537e-06
-3.36914e-06
0.00337811
2.12232e-06
-3.01432e-07
0.00337787
-7.56859e-07
7.56856e-07
0.00337662
7.27897e-06
-4.51538e-06
0.00337927
-6.66311e-06
3.61927e-06
0.00337661
1.70812e-06
8.54433e-09
0.00337943
-1.00589e-06
-1.35414e-06
0.00337825
-5.30857e-06
4.36353e-06
0.00337877
1.48849e-06
3.32201e-07
0.00338023
-7.53442e-06
1.75283e-06
0.00337849
-3.06868e-06
2.49193e-06
0.00338276
-4.87779e-06
-2.05276e-06
0.00338258
-5.84014e-06
1.922e-06
0.003381
2.02824e-07
1.05159e-06
0.00338365
3.17999e-07
-3.48336e-06
0.00338066
1.81616e-06
5.31043e-06
0.00338056
4.25475e-06
-1.89905e-07
0.00338246
-1.33986e-06
-2.09577e-06
0.00337897
-2.79772e-07
5.61186e-06
0.00338134
5.97897e-08
-1.9518e-06
0.00338024
7.99175e-07
2.26792e-09
0.00337839
-1.61415e-06
2.74764e-06
0.00337979
2.50095e-06
-2.3951e-06
0.00337971
-1.94905e-06
8.62461e-07
0.00337852
-3.68693e-06
1.09288e-07
0.00338065
4.61125e-06
-3.60866e-06
0.00337902
-5.48962e-06
2.54522e-08
0.0033775
5.81214e-06
-1.19148e-06
-1.10334e-06
-2.6453e-06
0.00307002
1.82498e-06
9.88597e-07
0.00307245
5.48469e-06
6.355e-07
0.00307033
2.51352e-06
1.9488e-06
0.00307138
4.55817e-07
-5.62718e-07
0.00307152
8.00684e-07
6.95449e-07
0.00307235
-2.89497e-06
2.10728e-07
0.0030738
-7.26765e-06
-2.33501e-06
0.0030745
3.84863e-06
-3.03348e-07
0.00307402
1.58035e-06
-3.17622e-06
0.00307121
1.03353e-05
-6.68696e-07
0.00307221
5.56943e-06
1.31415e-06
0.00306891
6.35058e-06
-4.10628e-06
0.00307013
1.53605e-06
1.29036e-06
0.00307016
-2.98311e-07
-1.13485e-06
0.00307006
7.56122e-06
-4.57712e-06
0.00307033
-6.43052e-06
5.08599e-06
0.00306955
1.77226e-06
-1.91748e-06
0.00307206
-2.65058e-06
-5.14793e-07
0.0030704
-3.80133e-06
5.4839e-06
0.00307155
-7.72708e-07
-7.21806e-08
0.00307183
-7.17867e-06
2.88853e-06
0.0030715
-4.20786e-06
2.73061e-06
0.00307573
-8.31208e-06
-3.0107e-06
0.00307525
-6.05924e-06
2.57807e-06
0.00307437
6.97555e-08
4.85998e-07
0.0030766
1.69164e-07
-3.29092e-06
0.00307264
4.66901e-06
6.77288e-06
0.00307309
4.37165e-06
-7.03037e-07
0.00307418
-2.49709e-06
-1.21145e-06
0.0030723
-1.56345e-06
6.60127e-06
0.00307353
-1.38592e-06
-2.5747e-06
0.00307194
1.99558e-06
1.05119e-06
0.00307211
-3.58664e-06
2.95027e-06
0.00307151
3.55618e-06
-3.84789e-06
0.00307238
-2.68303e-06
2.20568e-06
0.00307153
-3.48094e-06
-3.32192e-07
0.00307341
3.69906e-06
-4.72705e-06
0.00307119
-4.65023e-06
3.57947e-07
0.00307098
6.30558e-06
-3.04301e-06
-1.43071e-06
-2.58194e-06
0.00279092
5.15187e-06
8.09728e-07
0.00279282
6.18775e-06
4.03284e-07
0.00279098
6.01112e-06
3.44168e-06
0.00279154
7.96984e-07
-1.41092e-06
0.0027911
1.9986e-06
1.53143e-06
0.00279312
-5.8749e-06
4.76083e-07
0.002795
-9.69251e-06
-3.49847e-06
0.00279627
2.96486e-06
-1.70837e-07
0.00279464
4.01809e-06
-3.92553e-06
0.00279199
1.44308e-05
-5.37593e-07
0.00279253
5.80575e-06
1.0766e-06
0.00278913
8.79471e-06
-4.14143e-06
0.00279009
1.59806e-06
1.65948e-06
0.002791
-1.56489e-07
-2.93474e-06
0.00279077
8.04259e-06
-4.23846e-06
0.00278974
-4.90407e-06
5.52427e-06
0.00279037
6.16847e-07
-3.19383e-06
0.00279267
-3.17434e-06
3.70658e-07
0.00279088
-2.53594e-06
6.24213e-06
0.00279173
-3.02893e-06
-1.30302e-07
0.0027917
-6.08741e-06
3.89528e-06
0.00279237
-6.61736e-06
3.07306e-06
0.00279653
-1.19056e-05
-4.42649e-06
0.00279598
-6.12491e-06
3.06556e-06
0.00279586
-5.21335e-07
1.20047e-08
0.0027972
8.76852e-07
-3.34935e-06
0.00279276
8.27293e-06
8.65585e-06
0.00279298
4.6522e-06
-1.25847e-06
0.00279413
-3.77758e-06
-4.49039e-07
0.00279368
-4.89821e-06
8.15778e-06
0.00279298
-1.1554e-06
-3.59569e-06
0.00279287
1.85837e-06
2.51273e-06
0.00279314
-5.67888e-06
2.70265e-06
0.00279128
5.91052e-06
-5.06975e-06
0.00279331
-4.13546e-06
4.15549e-06
0.00279209
-2.58325e-06
-1.93128e-06
0.00279405
2.40065e-06
-5.22862e-06
0.00279193
-4.1392e-06
6.18541e-07
0.00279232
6.38995e-06
-5.74472e-06
-2.63897e-07
-2.34325e-06
0.0025374
8.44179e-06
5.38608e-07
0.00253833
8.48378e-06
2.99261e-07
0.00253722
8.9846e-06
5.00917e-06
0.00253685
1.72504e-06
-1.87684e-06
0.00253568
3.55384e-06
2.63671e-06
0.0025395
-1.08967e-05
3.48267e-08
0.00254167
-1.28833e-05
-4.36133e-06
0.00254309
1.84309e-06
-3.39225e-08
0.00254122
7.14789e-06
-4.87751e-06
0.00253817
1.93553e-05
-7.43908e-07
0.00253803
6.80536e-06
1.12265e-06
0.00253451
1.1283e-05
-4.05333e-06
0.00253571
2.11768e-06
1.13195e-06
0.00253718
-4.54129e-07
-3.91529e-06
0.00253679
8.80645e-06
-3.91591e-06
0.00253499
-2.50073e-06
4.76454e-06
0.00253645
-1.04274e-06
-3.94265e-06
0.0025388
-2.70049e-06
1.08432e-06
0.00253657
-1.42712e-06
6.95896e-06
0.00253725
-5.35261e-06
4.28992e-07
0.00253713
-4.42349e-06
5.07131e-06
0.00253834
-1.0019e-05
3.28749e-06
0.00254271
-1.57362e-05
-6.42831e-06
0.00254247
-6.17881e-06
3.37162e-06
0.00254276
-1.38996e-06
-5.31046e-07
0.00254324
2.63109e-06
-3.36383e-06
0.00253808
1.30701e-05
1.08107e-05
0.00253789
5.55979e-06
-1.7739e-06
0.00253983
-6.56861e-06
8.0671e-07
0.00253978
-9.66037e-06
9.89736e-06
0.00253836
6.57398e-08
-4.76764e-06
0.00253952
9.28118e-07
3.96201e-06
0.00253888
-7.00548e-06
2.06486e-06
0.00253723
8.22521e-06
-6.03066e-06
0.00253936
-5.14468e-06
6.04362e-06
0.00253787
-1.19208e-06
-3.67487e-06
0.00254015
1.61892e-07
-5.37755e-06
0.00253826
-4.19685e-06
2.85798e-07
0.00253883
6.46669e-06
-8.7986e-06
2.05808e-06
-1.97085e-06
0.00230669
1.23035e-05
3.47854e-07
0.00230704
1.19184e-05
3.61578e-08
0.00230662
1.10549e-05
6.03602e-06
0.00230452
4.15198e-06
-2.13742e-06
0.00230318
5.04263e-06
3.73825e-06
0.00230925
-1.83955e-05
-9.29577e-07
0.00231142
-1.67789e-05
-5.10197e-06
0.00231333
2.7097e-07
-2.89961e-07
0.00231087
1.16e-05
-6.21997e-06
0.00230706
2.57906e-05
-1.22569e-06
0.00230649
8.14998e-06
1.58648e-06
0.00230319
1.35668e-05
-3.96866e-06
0.00230463
3.56591e-06
-4.71668e-07
0.00230629
-7.28069e-07
-4.6762e-06
0.00230593
9.97674e-06
-4.19232e-06
0.00230332
1.14465e-06
3.28427e-06
0.00230557
-2.93568e-06
-4.05696e-06
0.00230788
-1.17602e-06
1.45231e-06
0.0023052
-9.40508e-07
7.676e-06
0.00230604
-7.80123e-06
1.39897e-06
0.00230558
-1.92097e-06
6.13591e-06
0.00230716
-1.412e-05
3.11371e-06
0.00231208
-1.9455e-05
-8.89804e-06
0.00231216
-5.96555e-06
3.36914e-06
0.00231262
-2.38206e-06
-1.04747e-06
0.00231238
5.57687e-06
-3.14148e-06
0.00230608
1.94337e-05
1.3122e-05
0.00230605
6.76953e-06
-2.20034e-06
0.00230848
-1.07385e-05
2.49009e-06
0.00230869
-1.57931e-05
1.20044e-05
0.00230763
2.19937e-06
-6.15168e-06
0.00230902
4.88004e-07
5.19188e-06
0.00230772
-7.83345e-06
1.61644e-06
0.00230653
1.05328e-05
-6.7713e-06
0.00230806
-5.09511e-06
7.94181e-06
0.0023066
1.05034e-07
-4.98671e-06
0.00230966
-3.63088e-06
-4.93915e-06
0.00230785
-5.03139e-06
-1.90153e-07
0.00230823
6.94937e-06
-1.26047e-05
5.15857e-06
-1.90868e-06
0.00209661
1.76346e-05
-2.19331e-07
0.00209709
1.60397e-05
-1.30467e-07
0.00209672
1.24119e-05
7.31187e-06
0.00209256
8.35448e-06
-2.09045e-06
0.00209229
5.56754e-06
4.12176e-06
0.00209965
-2.73799e-05
-2.41924e-06
0.00210183
-2.11095e-05
-5.86208e-06
0.00210493
-2.36994e-06
-1.13926e-06
0.0021015
1.76262e-05
-7.85623e-06
0.00209695
3.39738e-05
-2.02464e-06
0.00209592
9.96262e-06
2.16147e-06
0.00209256
1.65132e-05
-4.55468e-06
0.00209425
6.41621e-06
-2.75659e-06
0.00209656
-1.84512e-06
-4.73309e-06
0.00209621
1.12546e-05
-5.15533e-06
0.00209274
6.22581e-06
1.01134e-06
0.00209559
-4.30684e-06
-4.17006e-06
0.00209752
2.07045e-06
1.3437e-06
0.00209485
-1.89771e-06
9.24064e-06
0.00209594
-1.02644e-05
3.15273e-06
0.00209472
2.03953e-06
7.26569e-06
0.00209674
-1.85161e-05
1.88544e-06
0.0021026
-2.27187e-05
-1.21739e-05
0.00210291
-5.17029e-06
2.90984e-06
0.00210363
-3.44843e-06
-1.48457e-06
0.0021023
1.07139e-05
-2.62619e-06
0.0020948
2.78965e-05
1.52918e-05
0.00209498
8.92298e-06
-2.6159e-06
0.00209764
-1.639e-05
4.27686e-06
0.00209899
-2.44305e-05
1.40098e-05
0.00209827
5.41251e-06
-7.42794e-06
0.00209907
1.62993e-06
6.55485e-06
0.00209754
-8.70532e-06
1.25499e-06
0.00209695
1.26354e-05
-7.45013e-06
0.00209754
-3.63355e-06
9.98163e-06
0.0020961
9.3056e-07
-5.76437e-06
0.00210012
-9.71147e-06
-4.33375e-06
0.00209816
-6.97098e-06
-7.10039e-07
0.00209892
7.0552e-06
-1.63153e-05
8.61936e-06
-1.6298e-06
0.00190549
2.45824e-05
-1.60926e-06
0.00190669
2.022e-05
-1.22935e-06
0.00190513
1.45126e-05
7.40347e-06
0.00189927
1.49182e-05
-2.33215e-06
0.0019007
4.79482e-06
4.73774e-06
0.00190863
-3.75217e-05
-3.99222e-06
0.00191183
-2.66593e-05
-7.5712e-06
0.00191595
-4.85836e-06
-3.27019e-06
0.00191046
2.70674e-05
-1.03181e-05
0.00190555
4.38584e-05
-2.99361e-06
0.00190466
1.08371e-05
3.68791e-06
0.0019011
2.04396e-05
-5.83113e-06
0.00190278
1.22418e-05
-6.70117e-06
0.00190596
-3.70349e-06
-5.09172e-06
0.00190525
1.31815e-05
-7.05603e-06
0.00190106
1.28521e-05
-1.19392e-06
0.00190435
-4.97774e-06
-4.13227e-06
0.00190567
6.9869e-06
5.00393e-07
0.00190384
-4.41675e-06
1.06848e-05
0.00190502
-1.19598e-05
4.92869e-06
0.00190258
8.09458e-06
7.89148e-06
0.00190527
-2.26169e-05
1.36483e-07
0.00191194
-2.41205e-05
-1.64516e-05
0.00191254
-3.7327e-06
1.81757e-06
0.00191368
-4.53757e-06
-1.62258e-06
0.00191102
1.8476e-05
-1.69198e-06
0.00190273
3.86542e-05
1.70353e-05
0.00190259
1.3286e-05
-3.25012e-06
0.00190564
-2.34305e-05
6.62037e-06
0.00190879
-3.56502e-05
1.6062e-05
0.00190812
1.00919e-05
-8.43993e-06
0.00190797
5.06562e-06
7.99487e-06
0.00190633
-9.34373e-06
6.90339e-07
0.00190637
1.4885e-05
-8.30232e-06
0.00190575
-7.09443e-07
1.23167e-05
0.00190451
6.57e-07
-5.44715e-06
0.00190968
-1.80487e-05
-2.87061e-06
0.00190763
-1.02295e-05
-1.58397e-06
0.00190888
6.70253e-06
-2.10258e-05
1.2999e-05
-1.87645e-06
0.00173171
3.40683e-05
-3.60089e-06
0.00173338
2.54568e-05
-2.10978e-06
0.00173001
1.84276e-05
6.69738e-06
0.00172381
2.28771e-05
-3.33115e-06
0.00172654
4.02619e-06
4.123e-06
0.00173391
-4.6574e-05
-6.85707e-06
0.00173913
-3.40033e-05
-1.00936e-05
0.00174407
-6.81498e-06
-6.38687e-06
0.00173671
4.0572e-05
-1.45122e-05
0.00173188
5.63972e-05
-4.62128e-06
0.00173045
1.22826e-05
4.93092e-06
0.00172613
2.67014e-05
-8.37313e-06
0.00172832
2.06284e-05
-1.1037e-05
0.00173293
-8.14185e-06
-5.11944e-06
0.00173154
1.52393e-05
-9.40127e-06
0.00172684
2.12929e-05
-3.95927e-06
0.00172977
-3.31956e-06
-5.14905e-06
0.0017303
1.52589e-05
-2.3455e-06
0.00173015
-8.07523e-06
1.19122e-05
0.00173124
-1.18017e-05
6.79437e-06
0.00172734
1.68214e-05
7.99359e-06
0.00173079
-2.64765e-05
-2.75416e-06
0.00173847
-2.27335e-05
-2.26746e-05
0.00173945
-1.67277e-06
3.70546e-07
0.00174081
-4.94257e-06
-1.67173e-06
0.001737
2.93192e-05
-6.45871e-07
0.00172793
5.27451e-05
1.78671e-05
0.00172657
2.15132e-05
-4.26397e-06
0.00173092
-3.18086e-05
8.99192e-06
0.0017366
-4.83471e-05
1.73948e-05
0.00173548
1.78096e-05
-9.03661e-06
0.0017337
1.21489e-05
9.9822e-06
0.00173221
-9.83356e-06
9.04942e-08
0.00173311
1.74975e-05
-9.00969e-06
0.0017311
4.68209e-06
1.50522e-05
0.00172998
-6.17924e-07
-4.71008e-06
0.00173597
-2.74985e-05
-1.75953e-06
0.00173428
-1.43746e-05
-2.54766e-06
0.00173635
5.31966e-06
-2.52808e-05
1.84545e-05
-2.55119e-06
0.00157377
4.62057e-05
-7.40752e-06
0.00157546
3.30989e-05
-5.09987e-06
0.00156972
2.74154e-05
3.34235e-06
0.00156389
3.4077e-05
-4.66979e-06
0.00156736
4.26474e-06
4.34639e-06
0.00157484
-5.59955e-05
-1.03693e-05
0.00158258
-4.13269e-05
-1.51128e-05
0.00158717
-4.9772e-06
-1.18485e-05
0.00157778
5.8833e-05
-1.99421e-05
0.001574
6.97391e-05
-5.46592e-06
0.00157236
1.26088e-05
7.26201e-06
0.00156706
3.65523e-05
-1.29902e-05
0.00156955
3.39321e-05
-1.80195e-05
0.00157498
-1.46176e-05
-5.58107e-06
0.00157271
1.78471e-05
-1.14742e-05
0.00156812
3.04039e-05
-6.06575e-06
0.00157026
2.19644e-07
-7.83732e-06
0.00157003
2.65299e-05
-8.86831e-06
0.00157202
-1.21526e-05
1.09499e-05
0.0015727
-7.96162e-06
6.44822e-06
0.00156739
2.88811e-05
6.49257e-06
0.00157151
-3.01886e-05
-7.42393e-06
0.00158002
-1.78443e-05
-3.15382e-05
0.00158179
2.21305e-07
-1.71627e-06
0.00158333
-5.04597e-06
-1.24062e-06
0.00157896
4.33641e-05
2.16635e-07
0.00156858
7.16603e-05
1.74884e-05
0.00156585
3.55876e-05
-5.93397e-06
0.00157233
-4.01324e-05
1.20147e-05
0.00158086
-5.98965e-05
1.91755e-05
0.00157916
3.07059e-05
-8.92136e-06
0.00157506
2.5011e-05
1.17596e-05
0.0015737
-9.00252e-06
-1.69301e-06
0.00157526
2.1991e-05
-9.94432e-06
0.00157201
1.4783e-05
1.78567e-05
0.0015708
-5.45589e-07
-2.98703e-06
0.00157744
-3.41643e-05
-2.55743e-07
0.00157645
-1.75921e-05
-5.05005e-06
0.00157869
4.84391e-06
-3.11583e-05
2.6188e-05
-5.42407e-06
0.00142954
6.51089e-05
-1.27824e-05
0.00143039
4.55907e-05
-8.8375e-06
0.00142364
3.89213e-05
-3.21932e-07
0.00141899
4.5745e-05
-5.08147e-06
0.00142236
6.61638e-06
5.03266e-06
0.00143074
-6.82899e-05
-1.17e-05
0.001441
-5.18912e-05
-1.73203e-05
0.00144435
1.48123e-06
-1.80997e-05
0.00143386
8.3611e-05
-2.82515e-05
0.00143011
8.69432e-05
-5.53116e-06
0.00142828
1.09934e-05
1.13438e-05
0.00142263
4.70746e-05
-1.69146e-05
0.00142619
4.7368e-05
-2.32991e-05
0.00143246
-2.67562e-05
-4.38647e-06
0.0014295
2.02333e-05
-1.24935e-05
0.00142556
4.10546e-05
-9.8482e-06
0.00142596
6.00477e-06
-1.30935e-05
0.00142447
4.11392e-05
-1.7043e-05
0.00142799
-1.41093e-05
5.9844e-06
0.00142757
2.17916e-06
2.92045e-06
0.00142166
4.47722e-05
3.44615e-06
0.00142667
-3.46297e-05
-1.44556e-05
0.00143589
-9.32518e-06
-4.22362e-05
0.00143772
2.57631e-06
-5.08442e-06
0.0014395
-5.62977e-06
-1.70614e-06
0.00143578
5.85207e-05
-5.15573e-07
0.00142361
9.49171e-05
1.6156e-05
0.0014193
5.66712e-05
-7.5535e-06
0.00142793
-4.58639e-05
1.23227e-05
0.00143912
-6.91862e-05
1.83879e-05
0.00143748
5.0911e-05
-8.56397e-06
0.00143136
4.27397e-05
1.53083e-05
0.00143017
-7.8781e-06
-2.50035e-06
0.0014311
3.32962e-05
-1.09462e-05
0.00142573
3.43205e-05
1.86724e-05
0.00142342
2.6769e-06
-3.82931e-06
0.00142984
-3.83151e-05
2.349e-07
0.00143109
-1.837e-05
-8.84519e-06
0.00143458
4.52172e-06
-3.61206e-05
3.67652e-05
-9.10485e-06
0.00129853
8.56817e-05
-1.84889e-05
0.00129881
6.13442e-05
-1.49297e-05
0.00129171
5.27646e-05
-5.31619e-06
0.0012878
5.6767e-05
-1.86642e-06
0.00129142
3.8708e-06
1.4603e-05
0.00130244
-9.1618e-05
-6.37281e-06
0.00131474
-6.78917e-05
-1.3145e-05
0.00131492
1.2406e-05
-1.88855e-05
0.00130274
0.000114406
-3.66354e-05
0.0012988
0.00010597
-5.24615e-06
0.00129856
5.39062e-07
2.02853e-05
0.00129621
5.08781e-05
-1.45655e-05
0.00129987
6.0141e-05
-2.21132e-05
0.00130501
-4.31501e-05
1.46351e-06
0.00130421
1.62416e-05
-7.01377e-06
0.00130381
4.43464e-05
-1.13173e-05
0.00130294
7.39506e-06
-1.62714e-05
0.00129861
5.66955e-05
-1.74256e-05
0.00129898
-9.4832e-06
2.14602e-07
0.00129516
2.05122e-05
-5.03148e-06
0.00128998
6.63123e-05
-2.07654e-06
0.00129735
-3.89981e-05
-2.27033e-05
0.00130676
4.48171e-06
-5.194e-05
0.00130662
7.58706e-06
-7.51698e-06
0.00130774
-9.1728e-06
-3.99099e-06
0.0013067
7.28672e-05
-3.28679e-06
0.00129462
0.000119155
1.79053e-05
0.00128851
8.18483e-05
-6.15686e-06
0.00129577
-4.73522e-05
8.01267e-06
0.00130667
-7.76353e-05
8.65001e-06
0.00130718
7.33139e-05
-1.31109e-05
0.00130235
5.69785e-05
2.00332e-05
0.00130312
-1.18931e-05
-1.58256e-06
0.00130288
5.22335e-05
-8.22986e-06
0.00129146
6.61104e-05
1.78878e-05
0.00128199
9.17193e-06
-1.05154e-05
0.00128532
-4.68827e-05
-3.94901e-06
0.00129193
-2.4671e-05
-1.75698e-05
0.00130053
8.30927e-07
-4.40487e-05
4.73904e-05
-1.47671e-05
0.00117518
0.000101669
-1.65841e-05
0.0011781
7.11163e-05
-1.95331e-05
0.00117424
6.514e-05
-1.84543e-05
0.00116882
7.44942e-05
-4.00516e-06
0.00116933
-2.46544e-06
2.51789e-05
0.00118269
-0.000128085
-2.93767e-06
0.00119918
-9.07234e-05
-6.60403e-06
0.00119898
2.3833e-05
-1.18396e-05
0.00118555
0.000152485
-4.53237e-05
0.00117849
0.000136697
-1.03107e-05
0.00117777
-8.22414e-06
2.63474e-05
0.00118145
4.92522e-05
-9.24139e-06
0.00118651
6.69957e-05
-1.38621e-05
0.00119073
-6.76009e-05
5.51462e-06
0.00119611
-4.18242e-06
-3.88397e-06
0.00119905
3.74556e-05
-1.74999e-05
0.00119484
1.26531e-05
-2.05987e-05
0.00118783
7.44164e-05
-3.25186e-06
0.00118366
-3.2214e-06
7.7197e-06
0.00117481
4.62005e-05
-9.51706e-06
0.00117109
0.000100172
-1.09619e-05
0.00118289
-3.2248e-05
-3.37892e-05
0.001191
2.90938e-05
-5.7595e-05
0.00118688
1.81207e-05
-1.09776e-05
0.00118784
-1.68636e-05
-1.12036e-05
0.00119043
8.80485e-05
-1.20937e-05
0.00117873
0.000147494
1.92281e-05
0.00117226
0.000108072
-3.24389e-07
0.00117837
-4.90394e-05
1.343e-06
0.00118523
-8.3347e-05
-1.50589e-05
0.00118522
9.77646e-05
-2.96974e-05
0.0011838
5.90429e-05
2.22426e-05
0.00119024
-2.72944e-05
-2.86204e-06
0.00119152
7.88415e-05
-5.78283e-06
0.00117393
0.000103586
1.8244e-05
0.0011519
1.52701e-05
-2.23596e-05
0.00114485
-6.16323e-05
-1.69115e-05
0.00115325
-4.34554e-05
-3.24141e-05
0.00116841
-1.13062e-05
-5.64502e-05
5.44357e-05
-1.89911e-05
0.00105841
0.000104948
-3.01242e-06
0.00106509
5.99585e-05
-1.87255e-05
0.0010657
6.61298e-05
-3.26035e-05
0.00106046
0.000102108
-9.66416e-06
0.00105526
-6.57438e-06
2.76328e-05
0.00106611
-0.000172561
-1.47064e-05
0.00108807
-0.00011992
-6.18753e-06
0.00109186
3.64774e-05
7.2098e-06
0.0010792
0.000196021
-4.41875e-05
0.00106724
0.000181111
-2.09156e-05
0.00106349
-4.27449e-06
2.07018e-05
0.00107421
4.86287e-05
-7.37149e-06
0.00108082
7.45611e-05
-4.73834e-06
0.00108427
-8.47157e-05
1.63444e-06
0.00109651
-2.49865e-05
-1.45951e-05
0.00110143
3.93405e-05
-3.85671e-05
0.0010898
3.92772e-05
-3.61818e-05
0.00107829
9.47753e-05
1.19929e-05
0.00106959
2.15815e-06
2.44793e-05
0.00105805
7.73287e-05
-4.81248e-06
0.00105863
0.000146663
-1.93886e-05
0.00107674
-1.17644e-05
-4.05997e-05
0.00108311
5.90053e-05
-5.26104e-05
0.00107778
2.63499e-05
-8.57381e-06
0.00107985
-2.792e-05
-1.7496e-05
0.00108142
0.000113656
-2.29047e-05
0.00106981
0.000187627
1.77453e-05
0.00107102
0.000128268
1.06455e-05
0.00108473
-5.89977e-05
2.84837e-06
0.00108778
-8.67884e-05
-3.06943e-05
0.00107924
0.000120712
-3.71139e-05
0.00107368
4.78083e-05
2.82701e-05
0.00108477
-4.71431e-05
-9.09664e-06
0.00109372
0.000106383
-1.07861e-05
0.00108327
0.000124258
1.93847e-05
0.00106185
1.15689e-05
-2.69758e-05
0.00104461
-6.88633e-05
-2.4128e-05
0.00103914
-5.96339e-05
-4.32087e-05
0.00104571
-2.3626e-05
-6.48629e-05
5.58237e-05
-1.32053e-05
0.000943651
9.93999e-05
8.12692e-06
0.000950284
3.22344e-05
-1.02601e-05
0.000955301
5.63682e-05
-3.27013e-05
0.000955237
0.000131106
-1.07925e-05
0.000944448
-4.49138e-06
1.90896e-05
0.000948015
-0.000212123
-3.21297e-05
0.000973399
-0.000147883
1.19494e-06
0.000982459
4.30807e-05
3.10835e-05
0.000976435
0.000225748
-3.85287e-05
0.000968562
0.000224747
-3.35314e-05
0.000960947
1.35604e-05
1.29176e-05
0.000967924
6.8981e-05
-1.0928e-06
0.000975061
0.000106861
6.24973e-06
0.000980812
-8.43122e-05
-1.09591e-06
0.00100017
-3.34303e-05
-3.01981e-05
0.00100831
7.10836e-05
-6.85725e-05
0.000992611
8.50051e-05
-5.60679e-05
0.000978107
0.00010997
2.03268e-05
0.000964441
8.94964e-06
4.37349e-05
0.000949827
0.000123343
6.28006e-06
0.00095036
0.00020261
-3.03515e-05
0.000971149
-4.69112e-06
-4.18905e-05
0.000985112
6.24446e-05
-3.64713e-05
0.000983997
1.88898e-05
4.4996e-06
0.000984906
-4.46557e-05
-1.25987e-05
0.000983056
0.000145147
-2.86437e-05
0.000965947
0.000241494
1.23888e-05
0.000965961
0.00015409
6.21171e-06
0.000984926
-7.41184e-05
-5.06364e-06
0.000993404
-0.000103912
-3.55837e-05
0.000984834
0.000118603
-2.69525e-05
0.000975951
3.65854e-05
3.08177e-05
0.000984499
-5.31761e-05
-2.14827e-05
0.00100024
0.000122581
-1.54625e-05
0.00101473
0.000109448
1.56172e-05
0.00101547
-1.15562e-05
-3.06838e-05
0.000987541
-5.75827e-05
-2.00479e-05
0.000948619
-4.58752e-05
-4.25242e-05
0.000933462
-2.03087e-05
-5.96926e-05
5.69583e-05
1.58843e-06
0.000832621
9.73148e-05
1.7611e-05
0.000839389
-5.27239e-06
8.56669e-06
0.000848194
4.22778e-05
-2.10387e-05
0.000855607
0.000151864
-6.05324e-06
0.000838622
-4.40921e-06
5.79556e-06
0.000827743
-0.000246486
-4.25808e-05
0.000853798
-0.000170753
7.77311e-06
0.000872965
4.13086e-05
4.03642e-05
0.000877832
0.000237289
-3.81343e-05
0.000879909
0.000269518
-3.26415e-05
0.000873659
4.20864e-05
2.01206e-05
0.000875101
0.000113702
-6.57029e-06
0.000882864
0.000153427
-6.80746e-06
0.000886125
-9.78173e-05
-3.13482e-07
0.000900377
-3.47469e-05
-4.3749e-05
0.000914807
0.000116971
-9.72671e-05
0.000910551
0.00011433
-6.58496e-05
0.000907294
0.000105531
3.51733e-05
0.000889679
2.07768e-05
6.94399e-05
0.000861449
0.000198049
1.20639e-05
0.000860035
0.000236951
-3.83809e-05
0.00088171
-5.56845e-05
-2.94992e-05
0.000905399
1.71789e-05
-7.22325e-06
0.000915468
-1.51083e-05
2.39327e-05
0.000910826
-6.69142e-05
7.09556e-07
0.000890625
0.000188815
-1.48251e-05
0.000860334
0.000304627
2.13943e-05
0.000863192
0.00016816
-7.59962e-06
0.000884535
-0.000101722
-2.08031e-05
0.000889409
-0.000129504
-2.88103e-05
0.000878812
0.000117455
-2.74152e-05
0.000867372
6.15044e-05
5.70969e-06
0.00087346
-3.92438e-05
-2.96481e-05
0.000898237
0.000125912
-1.19689e-05
0.000942763
6.14236e-05
2.39339e-06
0.000971542
-6.40247e-05
-2.9492e-05
0.00093452
-3.63745e-05
-1.16442e-06
0.00086359
-1.55691e-05
-2.77045e-05
0.000829356
-4.58324e-06
-4.88449e-05
7.47853e-05
1.1074e-05
0.000742224
8.73602e-05
3.52641e-05
0.000740719
-5.08219e-05
2.79927e-05
0.000750643
2.74988e-05
-2.12482e-06
0.000770559
0.000157003
1.02551e-05
0.000736086
6.28896e-06
-2.53309e-06
0.000695321
-0.000256294
-3.41593e-05
0.000717948
-0.000186484
2.53741e-05
0.000754956
1.95413e-05
4.22617e-05
0.000782067
0.000225885
-4.27245e-05
0.000791782
0.000317271
-2.38981e-05
0.000792897
5.99709e-05
2.50588e-05
0.000800148
0.00015756
-3.44872e-05
0.000812008
0.000193364
-1.90578e-05
0.00080333
-0.000121384
1.51333e-05
0.000799061
-2.23641e-06
-5.53178e-05
0.000824952
0.000154
-0.00010544
0.000848828
9.35495e-05
-5.39741e-05
0.000852824
9.22904e-05
5.04259e-05
0.000808637
6.98417e-05
8.947e-05
0.000789879
0.000269846
8.17612e-06
0.0008143
0.000183801
-3.61255e-05
0.000819084
-0.000149165
-1.56314e-05
0.000836037
-3.01545e-05
1.11174e-05
0.00085425
-6.11152e-05
5.05822e-05
0.000840631
-8.11633e-05
2.44112e-05
0.00079997
0.000264753
-1.43627e-06
0.000791662
0.000342765
3.66043e-06
0.000828348
0.000100411
-2.67646e-05
0.000833742
-0.00014614
-1.0512e-05
0.000805406
-0.000137321
1.75361e-06
0.000786509
0.000157513
-3.59092e-05
0.000762313
0.000128892
-1.72927e-05
0.000757215
-1.23242e-05
-2.90816e-05
0.000791024
0.000131369
-1.46832e-05
0.000847013
9.91164e-06
-1.41636e-05
0.000883977
-0.00013596
-1.4161e-05
0.000844318
-3.31339e-05
3.55302e-05
0.000767125
7.61015e-06
-2.30659e-05
0.00073351
1.87247e-05
-5.1975e-05
0.000107949
2.09984e-05
0.000674213
4.73587e-05
4.7692e-05
0.000653255
-8.3032e-05
4.25192e-05
0.000663554
-2.02651e-07
2.36401e-05
0.000699856
0.000144727
7.4031e-06
0.000624715
5.2838e-05
-1.95903e-05
0.000534331
-0.00021507
-1.33657e-05
0.000571114
-0.000211528
5.99214e-05
0.000644263
-4.56778e-05
3.96422e-05
0.000686636
0.000226289
-7.5793e-05
0.000709888
0.000363937
-3.71376e-05
0.000721919
5.06449e-05
1.19621e-05
0.000722666
0.000227043
-6.4059e-05
0.000737008
0.000234943
-2.87816e-05
0.000720937
-0.000128131
1.29558e-05
0.000706864
7.40727e-05
-6.29183e-05
0.000741718
0.000155904
-7.8883e-05
0.00078654
1.83496e-05
-1.92976e-05
0.000780369
0.000106052
5.71872e-05
0.000716637
0.000158319
8.76531e-05
0.000738049
0.000279128
-4.3522e-06
0.000770373
7.83214e-05
-2.48915e-05
0.000745259
-0.000199239
-1.53597e-05
0.000756438
-2.90236e-05
6.05103e-06
0.000768455
-9.12386e-05