/*--------------------------------*- C++ -*----------------------------------*\
  =========                 |
  \\      /  F ield         | OpenFOAM: The Open Source CFD Toolbox
   \\    /   O peration     | Website:  https://openfoam.org
    \\  /    A nd           | Version:  10
     \\/     M anipulation  |
\*---------------------------------------------------------------------------*/
FoamFile
{
    format      ascii;
    class       volVectorField;
    location    "11";
    object      U;
}
// * * * * * * * * * * * * * * * * * * * * * * * * * * * * * * * * * * * * * //

dimensions      [0 1 -1 0 0 0 0];

internalField   nonuniform List<vector> 
25600
(
(1.0359 6.32539e-05 8.71149e-05)
(1.03651 -0.000521619 -0.000305619)
(1.03729 -0.000338592 0.000331934)
(1.03577 -0.00031038 -1.02723e-05)
(1.03696 -9.41723e-05 -0.000170058)
(1.03668 -0.000276789 0.000136456)
(1.03662 -0.000340161 0.000138997)
(1.03688 0.000191245 -0.00018407)
(1.03632 -6.04709e-06 5.49742e-05)
(1.03674 0.000140951 0.000104606)
(1.03669 0.000533575 -3.73916e-05)
(1.03641 -0.000273937 4.7172e-05)
(1.03661 0.000795111 -0.000170841)
(1.03623 0.00019153 0.000253782)
(1.03664 -0.000298956 -0.000167442)
(1.03698 0.00108649 -0.000128797)
(1.03587 -0.000791525 0.0003655)
(1.03697 0.0006945 -0.000316956)
(1.03694 0.000133984 0.000199714)
(1.03634 -0.000617994 9.56912e-05)
(1.03716 0.000821602 -0.000176674)
(1.03672 -0.00085093 0.000330427)
(1.0372 0.000333935 -0.000333742)
(1.03712 -8.84301e-05 0.000221776)
(1.03709 -0.000544102 0.000158594)
(1.03739 0.000698746 -0.00060994)
(1.03713 -0.00043006 0.000584004)
(1.03726 0.000185195 -0.000154142)
(1.03738 0.000491237 -0.000387063)
(1.0374 -0.0006793 0.0005227)
(1.03665 0.000753325 -0.00044275)
(1.0376 7.949e-05 0.0002566)
(1.03701 -0.000633123 4.74505e-07)
(1.03646 0.000535302 -0.000481648)
(1.03789 -0.000287309 0.000749452)
(1.0359 -0.000106972 -0.000477444)
(1.03699 -0.000219247 -0.000250158)
(1.03731 -0.000132605 0.000552208)
(1.03583 -0.000299436 -0.000498792)
(1.03753 -0.00031616 0.000175135)
(1.03582 -0.000677364 3.60644e-06)
(1.03643 0.000218075 -4.85097e-05)
(1.03719 -0.000617541 0.000141548)
(1.03602 -0.000264099 4.65965e-05)
(1.0369 0.000112323 -6.79009e-05)
(1.0366 -0.000508856 7.02769e-05)
(1.0368 -1.22217e-05 0.00019898)
(1.03702 -0.000218974 -0.000275449)
(1.03646 0.000483816 0.000189417)
(1.03684 -2.71903e-06 -3.55331e-05)
(1.03658 0.000652426 -8.02938e-05)
(1.03648 -1.46016e-05 0.000208542)
(1.03679 0.000503885 -0.000412359)
(1.03581 0.000319968 0.000334523)
(1.03696 -0.00020569 -0.00015343)
(1.0367 0.000849208 -0.000217472)
(1.03572 -0.000897631 0.000458897)
(1.03736 0.000741916 -0.000290452)
(1.03639 -0.000373633 0.000155832)
(1.03672 -0.000310857 0.000189476)
(1.03689 0.000451074 -9.99729e-05)
(1.03664 -0.00119143 0.000221731)
(1.03757 0.000562426 -0.00012463)
(1.03662 -0.000519822 0.000168574)
(1.03754 -0.000397704 0.000135278)
(1.03742 0.000534849 -0.000485992)
(1.03695 -0.000398758 0.000484288)
(1.03767 0.000326491 -4.65885e-05)
(1.03698 0.000454537 -0.000501045)
(1.03745 -0.000548523 0.000608889)
(1.03708 0.000577539 -0.00038932)
(1.03698 0.000502987 8.01714e-05)
(1.03705 -0.000973948 0.000125775)
(1.03688 0.0006692 -0.000472438)
(1.03736 0.000188907 0.000627902)
(1.0359 -0.00103023 -0.000433014)
(1.03722 0.000608459 -0.000243044)
(1.03701 -0.000362069 0.00041809)
(1.03591 -0.000476189 -0.000355641)
(1.03762 0.000355022 7.09871e-05)
(1.03578 -0.00123321 5.08432e-06)
(1.03656 0.000849076 0.000146654)
(1.03688 -0.000825476 -3.16387e-05)
(1.03639 -9.49761e-05 0.000151456)
(1.03676 7.04916e-05 3.92114e-05)
(1.03656 -0.000395653 5.36375e-05)
(1.03688 -0.000151516 0.00017839)
(1.03731 -0.000125478 -0.000188285)
(1.03652 0.00071986 0.000204589)
(1.03688 -0.000202617 -0.000148801)
(1.03668 0.00112103 0.000107706)
(1.03629 -1.25857e-05 0.000105959)
(1.03691 0.000485957 -0.000430703)
(1.03561 0.000156654 0.000403008)
(1.0371 0.000216421 -0.000274081)
(1.03637 0.000335795 -5.45607e-05)
(1.03577 -0.000806675 0.000429065)
(1.03745 0.000831007 -0.000274736)
(1.03603 -0.000979596 0.000227305)
(1.03707 0.000173896 0.000239042)
(1.0364 -0.000209531 -2.20219e-05)
(1.03681 -0.00114356 0.000193442)
(1.03779 0.000425808 2.17115e-05)
(1.03627 -0.000838665 9.56224e-05)
(1.038 -0.000222481 0.000178571)
(1.03739 0.000325477 -0.000425994)
(1.03693 -0.000262414 0.000391663)
(1.038 0.000419901 5.99994e-05)
(1.03661 0.000463079 -0.000555867)
(1.03749 -0.000544433 0.000642503)
(1.03755 0.000681316 -0.000328786)
(1.03626 0.000432857 -6.15212e-05)
(1.03715 -0.00104494 0.000191949)
(1.03746 0.00100079 -0.000397244)
(1.03643 -6.38959e-06 0.000401187)
(1.03624 -0.00134223 -0.000310435)
(1.03757 0.00127123 -0.000212266)
(1.03638 -0.000892515 0.000221256)
(1.03642 -0.00015939 -0.000194024)
(1.03737 0.000612467 -0.000113594)
(1.03599 -0.00125928 7.10476e-05)
(1.03675 0.00119159 0.000266259)
(1.03645 -0.00078702 -4.9574e-05)
(1.03672 3.02032e-05 0.000222236)
(1.03666 -4.03934e-05 0.000173383)
(1.03643 -0.00020506 8.9712e-05)
(1.03701 -0.000621847 0.00012846)
(1.0377 0.000371713 -3.10685e-07)
(1.03641 0.000477115 4.45305e-05)
(1.03715 8.72016e-05 -8.657e-05)
(1.03673 0.00137889 0.000320993)
(1.03598 5.78451e-05 -0.000185556)
(1.03692 0.000636889 -0.000224684)
(1.03559 -0.000166454 0.000359172)
(1.03711 0.000952651 -0.000470872)
(1.03589 -0.00048367 0.000263332)
(1.0361 -0.000384802 0.000257233)
(1.03724 0.000658406 -0.000253286)
(1.03586 -0.00138116 0.000475674)
(1.03733 0.000561615 0.000190194)
(1.03585 -0.000939471 0.000119689)
(1.03713 -0.000875245 0.000283819)
(1.03781 7.26882e-06 -1.5207e-05)
(1.0361 -0.00102125 0.000157736)
(1.03846 -0.000115294 0.000173244)
(1.03738 0.000213842 -0.00047019)
(1.03702 -0.000149239 0.000443021)
(1.03824 0.000606245 3.39114e-05)
(1.03622 0.000265172 -0.000496128)
(1.03761 -0.000419408 0.000621386)
(1.03786 0.000705151 -0.000301298)
(1.03561 5.26739e-05 -9.80158e-05)
(1.03748 -0.00059039 0.000187416)
(1.03771 0.000967312 -0.000337541)
(1.03551 -0.000354012 0.000174993)
(1.03689 -0.00103975 -0.000158767)
(1.03759 0.00135276 -0.000255514)
(1.03587 -0.00127072 1.82232e-05)
(1.03709 0.000502839 -0.000111756)
(1.03679 0.000375052 -0.000301309)
(1.03636 -0.000781917 0.000121448)
(1.03689 0.00120505 0.000290793)
(1.03604 -0.000429313 0.000119061)
(1.03693 6.89798e-05 0.000238387)
(1.03658 -3.86756e-05 0.000343179)
(1.03615 -0.000145106 0.000196907)
(1.03728 -0.00102928 7.27993e-05)
(1.0381 0.000784142 0.000160512)
(1.03631 0.000126893 -0.000128254)
(1.03752 0.000778884 6.69222e-05)
(1.03666 0.00128483 0.000417683)
(1.03575 0.000507678 -0.000495762)
(1.03675 0.000570989 0.000130131)
(1.03582 -0.000276581 0.000187012)
(1.03688 0.00147915 -0.000644883)
(1.0354 -0.00122951 0.000683936)
(1.03657 0.00019435 -1.69818e-06)
(1.03674 0.000126839 -0.000107196)
(1.03594 -0.00131268 0.000780859)
(1.03739 0.000537975 8.12612e-05)
(1.03537 -0.00145702 0.000345632)
(1.03748 -0.000647358 0.000368935)
(1.03768 -0.00058114 -0.000121504)
(1.03617 -0.00116972 0.000322622)
(1.03889 -2.27249e-05 7.1409e-05)
(1.03736 0.000120438 -0.00052263)
(1.03721 7.61027e-05 0.00058252)
(1.0383 0.000836011 -5.66935e-05)
(1.03587 -0.000119665 -0.000393437)
(1.0378 -9.5608e-05 0.000659856)
(1.0379 0.00028025 -0.000315616)
(1.03531 1.90156e-06 -6.92959e-05)
(1.0378 -0.000211411 0.000208159)
(1.03764 0.000558731 -0.000432972)
(1.03497 -0.000401751 0.000130785)
(1.03746 -0.000782414 -4.58128e-05)
(1.03741 0.00106888 -0.000399479)
(1.03575 -0.00125448 -5.03175e-05)
(1.03761 0.00103224 -0.000219601)
(1.03611 -3.47386e-05 -0.00042101)
(1.03679 -7.47664e-05 0.00013394)
(1.03698 0.00108355 0.000303926)
(1.0357 0.000166402 0.000443514)
(1.03698 8.24769e-05 0.000239193)
(1.03652 7.62543e-05 0.000567479)
(1.03578 -0.000339859 0.000393263)
(1.03761 -0.00132329 6.98251e-06)
(1.03845 0.000848458 0.000275578)
(1.03639 0.000111696 -0.000244183)
(1.03789 0.00158909 0.00022162)
(1.03655 0.00113928 0.000417487)
(1.03551 0.00103741 -0.000678412)
(1.03641 0.0003964 0.000452702)
(1.03617 -0.000122217 -8.49818e-05)
(1.03649 0.00157719 -0.000690661)
(1.03504 -0.00139951 0.00103045)
(1.03697 0.00043582 -0.000305928)
(1.03624 -0.000387085 0.000158791)
(1.03611 -0.000946745 0.00111562)
(1.03723 0.000124381 2.96258e-05)
(1.03507 -0.00155765 0.000612417)
(1.0377 -0.000657664 0.000461606)
(1.03747 -0.00124851 -0.000257789)
(1.03645 -0.00126318 0.000472704)
(1.03929 1.43941e-05 -6.67256e-05)
(1.03744 -2.73851e-06 -0.000653056)
(1.03747 0.000528336 0.000818846)
(1.03812 0.000896378 -0.000156105)
(1.0356 -0.000390667 -0.000281944)
(1.03788 -4.12814e-05 0.000846398)
(1.03792 -0.000234968 -0.00045237)
(1.03527 0.000321426 8.42032e-05)
(1.03785 -0.000413543 0.000215833)
(1.03758 0.00047148 -0.000727589)
(1.03462 -0.000350728 0.000376052)
(1.03785 -0.000757644 -8.77458e-05)
(1.03727 0.000823143 -0.000538957)
(1.03583 -0.00105423 -4.68034e-05)
(1.03789 0.00127128 -0.000590454)
(1.0356 -0.000260981 -0.000440221)
(1.03715 0.000655999 0.000120372)
(1.03703 0.00110062 0.000338646)
(1.03543 0.000846949 0.000822946)
(1.03688 0.000122556 0.000224066)
(1.03633 0.00029835 0.000884589)
(1.03531 -0.000723119 0.000613362)
(1.03797 -0.00167289 -0.000145224)
(1.03893 0.00065448 0.000368046)
(1.03673 0.000375839 -0.000345431)
(1.03812 0.00240557 0.000300314)
(1.03632 0.00115029 0.000409)
(1.0353 0.00153357 -0.000777518)
(1.03605 0.000360802 0.000643375)
(1.0365 -7.81747e-05 -0.000419425)
(1.03611 0.00155012 -0.000640992)
(1.03471 -0.00114199 0.00123768)
(1.03717 0.000281703 -0.000502886)
(1.03589 -0.000592884 0.000561804)
(1.03623 -0.000640971 0.00142838)
(1.03701 -0.000384919 4.86864e-05)
(1.03488 -0.00136943 0.00087199)
(1.03766 -0.000963316 0.000556053)
(1.03731 -0.00198464 -0.000469357)
(1.0369 -0.00131279 0.000636868)
(1.03962 -5.3425e-05 -0.000220423)
(1.03765 -5.51984e-06 -0.000871554)
(1.03773 0.00120377 0.0011755)
(1.03775 0.000917138 -0.000240069)
(1.03531 -0.000532908 -0.000131953)
(1.03789 -0.000535724 0.00116983)
(1.03809 -0.000381344 -0.000612365)
(1.03519 0.0004912 0.000399562)
(1.03788 -0.000947073 0.000143275)
(1.03766 0.000846538 -0.00103284)
(1.03423 -0.000560614 0.0007966)
(1.03815 -0.00068054 -0.000310368)
(1.03721 0.00065032 -0.000556979)
(1.036 -0.000894239 -4.9206e-05)
(1.03807 0.00125539 -0.00118573)
(1.03529 -0.000243543 -0.000444883)
(1.03749 0.00131153 0.00010053)
(1.03706 0.00134387 0.000404704)
(1.03515 0.00155383 0.00128486)
(1.03667 0.000266308 0.000312114)
(1.03604 0.000610501 0.00131522)
(1.0347 -0.00144622 0.000733863)
(1.03832 -0.00226671 -0.000296833)
(1.03952 0.00038357 0.000447414)
(1.0373 0.000972888 -0.000547373)
(1.03829 0.00330146 0.000346584)
(1.03605 0.00123309 0.000436576)
(1.03506 0.00198804 -0.000828712)
(1.03552 0.000477624 0.000686309)
(1.03678 -7.34949e-05 -0.000724024)
(1.03589 0.00168621 -0.000588633)
(1.03434 -0.000696744 0.00118321)
(1.03724 -1.65942e-06 -0.000563162)
(1.0357 -0.000604308 0.00110194)
(1.0362 -0.000404253 0.0017802)
(1.03681 -0.000848812 0.000208708)
(1.03472 -0.00106611 0.00118561)
(1.03734 -0.00150047 0.000608137)
(1.03724 -0.00273886 -0.00079438)
(1.03746 -0.0013216 0.000794421)
(1.03996 -0.000238718 -0.000469034)
(1.03807 0.00016839 -0.00116217)
(1.03794 0.00197396 0.00164044)
(1.03716 0.00106031 -0.000229252)
(1.0348 -0.000819791 5.77004e-05)
(1.03793 -0.00134996 0.00154499)
(1.03843 -0.000215155 -0.000742273)
(1.03494 0.000339606 0.000801781)
(1.03801 -0.00134886 -1.67485e-05)
(1.03777 0.0013939 -0.00131986)
(1.03378 -0.000858681 0.0013032)
(1.03847 -0.000457067 -0.000573289)
(1.03713 0.000341219 -0.000492064)
(1.03613 -0.00082841 -0.00014586)
(1.03822 0.00125586 -0.00195942)
(1.03524 0.000152997 -0.000492535)
(1.0377 0.00200462 0.000165226)
(1.0371 0.0019017 0.000458504)
(1.03486 0.00209959 0.00164758)
(1.03637 0.000540617 0.000440749)
(1.03546 0.00100225 0.00184226)
(1.03386 -0.00255408 0.00078538)
(1.03879 -0.00297901 -0.000498606)
(1.04043 3.56905e-05 0.000347162)
(1.03808 0.00161413 -0.000927937)
(1.03822 0.00436515 0.00039143)
(1.03563 0.00154412 0.000538332)
(1.03487 0.00254174 -0.000923248)
(1.03498 0.000611084 0.000466032)
(1.03703 -0.000203744 -0.00105291)
(1.03576 0.00183185 -0.000665412)
(1.03385 -9.4194e-05 0.000969722)
(1.03715 -0.000319889 -0.000398778)
(1.03561 -0.000424166 0.0017246)
(1.03604 -0.000181937 0.00216883)
(1.03663 -0.00133805 0.000446331)
(1.0345 -0.000649719 0.00143038)
(1.03676 -0.00224757 0.000540458)
(1.03731 -0.00358847 -0.00114057)
(1.03806 -0.00134451 0.000926145)
(1.0403 -0.000426603 -0.00081965)
(1.03867 0.000594801 -0.00146663)
(1.03811 0.0030516 0.00222585)
(1.03632 0.00139025 -8.41755e-05)
(1.03408 -0.0014554 0.000327557)
(1.03813 -0.00247441 0.00212275)
(1.03886 6.99846e-05 -0.000722794)
(1.03457 0.000155204 0.00127855)
(1.03831 -0.00158334 -0.000152085)
(1.03785 0.0018236 -0.00157338)
(1.03328 -0.0010079 0.00188153)
(1.03868 -0.000117456 -0.000739597)
(1.03697 -0.000175141 -0.000210555)
(1.03637 -0.000967672 -0.000266479)
(1.0385 0.00116603 -0.00307403)
(1.03527 0.000661785 -0.000691017)
(1.03796 0.00277264 0.000184104)
(1.03701 0.00271435 0.000572678)
(1.03445 0.00250553 0.00212917)
(1.03609 0.00123606 0.000655888)
(1.03459 0.00133198 0.00229056)
(1.03281 -0.00428108 0.00063248)
(1.03932 -0.00392766 -0.000769077)
(1.04143 -0.000296113 5.22424e-05)
(1.03909 0.00267116 -0.00158069)
(1.03816 0.00579596 0.000352091)
(1.03513 0.00178406 0.000704346)
(1.03453 0.0030212 -0.00115398)
(1.03419 0.00112178 6.52447e-05)
(1.0372 -0.000196537 -0.00135895)
(1.03584 0.00207284 -0.0010586)
(1.03329 0.000758163 0.000443502)
(1.03694 -0.000692672 -9.46995e-05)
(1.03556 -5.19432e-05 0.00245502)
(1.03564 -0.000177944 0.00270596)
(1.03648 -0.00184708 0.000911298)
(1.03418 -2.58266e-05 0.00170401)
(1.03586 -0.0030268 0.000282553)
(1.03746 -0.00430418 -0.00166588)
(1.03873 -0.00130002 0.00092481)
(1.04071 -0.000683181 -0.00127456)
(1.0395 0.0012129 -0.00182597)
(1.03818 0.00448687 0.00294215)
(1.03503 0.00180968 0.000251964)
(1.03298 -0.00229201 0.000645899)
(1.0385 -0.00392525 0.00274831)
(1.03948 0.000467484 -0.000647071)
(1.03408 0.000189338 0.00193376)
(1.0386 -0.00171243 -0.00029731)
(1.03791 0.0022939 -0.00185822)
(1.03281 -0.000902302 0.00263691)
(1.03874 0.000158663 -0.00075212)
(1.03663 -0.00107327 0.000146493)
(1.03658 -0.00121908 -0.000423765)
(1.03884 0.00130862 -0.00440685)
(1.03551 0.00133939 -0.00094577)
(1.03813 0.00398473 0.00024318)
(1.03681 0.00363076 0.000489592)
(1.03403 0.00268994 0.00222975)
(1.03571 0.00218488 0.000794223)
(1.03311 0.0014087 0.00299755)
(1.0315 -0.00600241 0.000419395)
(1.04008 -0.00494829 -0.00148472)
(1.04281 -0.00115164 -0.000785773)
(1.04029 0.00392724 -0.00262379)
(1.0377 0.00767475 0.000353564)
(1.03431 0.00235503 0.00112012)
(1.03436 0.00368997 -0.00172073)
(1.03339 0.00174748 -0.000868539)
(1.03715 -0.000615606 -0.00185264)
(1.03597 0.00230586 -0.0018397)
(1.03255 0.00201187 -0.000185511)
(1.03647 -0.000789862 0.000275364)
(1.03536 0.00083567 0.00299094)
(1.03496 -0.000469502 0.00331565)
(1.03642 -0.00239702 0.00134935)
(1.03376 0.000905453 0.00169082)
(1.03466 -0.00388179 -0.000178364)
(1.03761 -0.00493682 -0.002427)
(1.03926 -0.00100645 0.000650409)
(1.0411 -0.000887355 -0.00175245)
(1.04055 0.00234389 -0.00211744)
(1.03809 0.00639678 0.00377144)
(1.0333 0.0025121 0.000723508)
(1.03157 -0.00343067 0.00119929)
(1.03905 -0.00596932 0.0036811)
(1.04031 0.00113049 -0.00034543)
(1.03346 0.000625357 0.00280952)
(1.03886 -0.00193576 -0.000439662)
(1.03797 0.00267283 -0.00222626)
(1.03226 -0.000465313 0.00357683)
(1.03844 0.000316076 -0.000434291)
(1.03616 -0.00249094 0.0010655)
(1.03701 -0.00183047 -0.00064087)
(1.03929 0.00122357 -0.00641349)
(1.03568 0.002035 -0.00145996)
(1.03828 0.00559135 0.000229295)
(1.03619 0.00461413 0.000656253)
(1.03346 0.00334913 0.0022536)
(1.03521 0.00384912 0.000580618)
(1.03126 0.00122756 0.00337052)
(1.02998 -0.00826687 -0.000295936)
(1.04049 -0.00606868 -0.00267309)
(1.04413 -0.00155916 -0.00226858)
(1.04185 0.00590133 -0.00468534)
(1.03727 0.00971707 0.000191089)
(1.03329 0.00234663 0.00176407)
(1.0339 0.00460499 -0.00268552)
(1.03202 0.00351378 -0.00230874)
(1.03681 -0.000917555 -0.00276684)
(1.03641 0.00265005 -0.00317119)
(1.03178 0.00337239 -0.001125)
(1.03573 -0.000981793 0.000432684)
(1.03465 0.0019622 0.00311865)
(1.03366 -0.0010771 0.00381619)
(1.03639 -0.00271667 0.0017652)
(1.03312 0.00240797 0.00137268)
(1.03295 -0.00462477 -0.00153838)
(1.03765 -0.0050958 -0.00415457)
(1.03966 -0.000767412 -3.16988e-05)
(1.04156 -0.00116669 -0.00240618)
(1.0418 0.00410011 -0.00253696)
(1.03771 0.0089197 0.00450646)
(1.0309 0.00375815 0.00119878)
(1.0296 -0.00500853 0.0018435)
(1.03991 -0.00859078 0.00456191)
(1.04164 0.00205547 0.000138816)
(1.0326 0.00164947 0.0040981)
(1.03878 -0.00196609 -0.000620705)
(1.03801 0.00302836 -0.00250624)
(1.03169 0.00035865 0.00486961)
(1.03775 0.000323138 -0.000120549)
(1.03535 -0.00429015 0.00200073)
(1.0373 -0.00264193 -0.000834094)
(1.03969 0.00111118 -0.00880645)
(1.03606 0.00288262 -0.00233292)
(1.03806 0.00778965 -0.000254053)
(1.03529 0.0058487 0.00011347)
(1.03282 0.00415092 0.00124694)
(1.0341 0.00547527 0.000379753)
(1.02825 0.00144615 0.0045342)
(1.02819 -0.00987048 -0.00164899)
(1.04116 -0.008119 -0.00520568)
(1.04552 -0.00211793 -0.00489029)
(1.04321 0.00925382 -0.00767413)
(1.0361 0.0127742 0.00020094)
(1.0321 0.0028456 0.00283062)
(1.03411 0.00583966 -0.00472946)
(1.03041 0.00519971 -0.00536631)
(1.03574 -0.00222272 -0.00446853)
(1.03654 0.00306084 -0.00466517)
(1.0306 0.00552655 -0.00202573)
(1.0346 -5.81968e-06 -0.000472401)
(1.03325 0.00416172 0.00170271)
(1.03167 -0.00184534 0.00337902)
(1.03623 -0.00259379 0.00113692)
(1.03206 0.00450994 0.000138292)
(1.03068 -0.0050891 -0.00440825)
(1.03714 -0.00443496 -0.00785321)
(1.0395 -0.000163128 -0.00154595)
(1.04213 -0.00128291 -0.00294568)
(1.04329 0.0062286 -0.00281012)
(1.03692 0.0120716 0.00506586)
(1.02787 0.00626334 0.00151099)
(1.02727 -0.00637314 0.00291646)
(1.04123 -0.0113292 0.0060159)
(1.04367 0.00368766 0.00104963)
(1.03185 0.00351783 0.00566008)
(1.03847 -0.00194493 -0.0013083)
(1.03787 0.0037125 -0.00278106)
(1.03089 0.00163073 0.00659578)
(1.03658 0.000115432 0.000508139)
(1.0342 -0.00594518 0.00343206)
(1.03734 -0.00361178 -0.00163396)
(1.0397 0.00050594 -0.0126664)
(1.03607 0.00378888 -0.00425642)
(1.03731 0.010468 -0.0010504)
(1.03344 0.00776563 -0.00044249)
(1.03155 0.00688436 -0.00052226)
(1.03277 0.00820475 -0.000676111)
(1.02481 0.00151179 0.00534663)
(1.02664 -0.0115988 -0.00329624)
(1.04203 -0.00909139 -0.00807661)
(1.04733 -0.00130547 -0.00894753)
(1.04523 0.0130276 -0.0127805)
(1.03459 0.0157255 0.000281958)
(1.03045 0.00284973 0.00451479)
(1.03438 0.00818025 -0.00763497)
(1.02884 0.00892105 -0.0098416)
(1.03521 -0.00339257 -0.00734666)
(1.03771 0.00311852 -0.00642144)
(1.03034 0.00682236 -0.0031171)
(1.03452 0.000427505 -0.0023625)
(1.03203 0.00674038 -0.00062263)
(1.02916 -0.0026281 0.00195239)
(1.03566 -0.00171117 -0.000618998)
(1.03047 0.00713213 -0.00195004)
(1.02806 -0.00611744 -0.00979214)
(1.03644 -0.00328061 -0.0140779)
(1.03914 0.000171226 -0.00419927)
(1.0423 -0.00122404 -0.00475652)
(1.04457 0.00930762 -0.00450484)
(1.03606 0.0159465 0.00488454)
(1.02473 0.00968406 0.00211459)
(1.02445 -0.00761655 0.00327614)
(1.04217 -0.013392 0.00599419)
(1.04617 0.00683043 0.00186061)
(1.03134 0.00689179 0.0077645)
(1.03861 -0.00171153 -0.00229515)
(1.03797 0.00475304 -0.00256909)
(1.02917 0.00442776 0.00862403)
(1.0337 0.000429103 -2.01321e-05)
(1.03069 -0.00727884 0.00382707)
(1.03495 -0.00399426 -0.00325946)
(1.03879 0.000786361 -0.0176082)
(1.03609 0.00569694 -0.00721032)
(1.03612 0.0151299 -0.00416511)
(1.03166 0.0106456 -0.00348451)
(1.03099 0.00874133 -0.00370552)
(1.0317 0.0107414 -0.000170599)
(1.0209 0.00252302 0.00815899)
(1.02668 -0.0150558 -0.00420684)
(1.04534 -0.0122802 -0.00941787)
(1.05069 0.000220354 -0.0116708)
(1.04772 0.018415 -0.0187745)
(1.03198 0.0193946 0.000254789)
(1.02811 0.00217114 0.0076101)
(1.0376 0.00954937 -0.00971538)
(1.03155 0.0110449 -0.014256)
(1.03614 -0.00653028 -0.0106541)
(1.0414 0.00382101 -0.00734035)
(1.03516 0.00968052 -0.00445189)
(1.041 0.00201097 -0.00515098)
(1.03775 0.0102965 -0.000787477)
(1.02975 -0.00235552 0.00123178)
(1.03516 0.00128943 -0.00388355)
(1.02864 0.0113025 -0.00392115)
(1.02622 -0.00685058 -0.0157514)
(1.03771 -0.00121618 -0.0206897)
(1.04012 0.00100642 -0.00656295)
(1.0416 -0.0017293 -0.00812634)
(1.045 0.0123651 -0.00792957)
(1.03679 0.0215959 0.00526972)
(1.02428 0.0152404 0.00423745)
(1.02299 -0.00827187 0.00153842)
(1.04015 -0.015927 0.000488109)
(1.0463 0.0108815 -0.000401834)
(1.03107 0.0110551 0.00816924)
(1.04038 -0.00096383 -0.00512453)
(1.04139 0.00774669 -0.00162068)
(1.02915 0.00925943 0.010735)
(1.02743 0.00193452 -0.00270584)
(1.01867 -0.0073777 0.000750697)
(1.02412 -0.0039375 -0.00973112)
(1.03401 0.000160944 -0.025778)
(1.03505 0.00790734 -0.0124868)
(1.03053 0.0185837 -0.00732287)
(1.02658 0.0145267 -0.00977299)
(1.03164 0.0125597 -0.010742)
(1.03254 0.0126992 -0.00106187)
(1.01614 0.00121403 0.0100476)
(1.02228 -0.020038 -0.00689955)
(1.04667 -0.0160548 -0.00878845)
(1.05566 0.00273854 -0.0104181)
(1.05199 0.0262603 -0.0244048)
(1.03049 0.0242611 -0.000240451)
(1.02335 -0.00108557 0.0125117)
(1.03876 0.00905396 -0.00790855)
(1.03621 0.0144241 -0.0136553)
(1.03758 -0.00960737 -0.0133395)
(1.04827 0.00163776 -0.0103167)
(1.04702 0.00853108 -0.00937384)
(1.05197 0.00143065 -0.00793725)
(1.04718 0.0132762 0.00558017)
(1.03314 -0.0010474 0.00567018)
(1.03585 0.00521728 -0.00598078)
(1.02578 0.0161408 -0.00493511)
(1.02587 -0.00753602 -0.0187634)
(1.04247 0.00226653 -0.0226718)
(1.04142 0.0028391 -0.00774719)
(1.03995 -0.00281126 -0.0150095)
(1.0455 0.0140475 -0.0154887)
(1.03942 0.0249808 0.00561944)
(1.02479 0.0202033 0.00893235)
(1.02485 -0.0065415 -0.00318018)
(1.03943 -0.0168339 -0.013998)
(1.0436 0.0147341 -0.0101749)
(1.02784 0.0126931 0.00362468)
(1.04208 -0.00348458 -0.0114366)
(1.04931 0.0111986 -0.000812744)
(1.03426 0.0166593 0.0109968)
(1.02361 0.00346166 -0.00964419)
(1.00099 -0.0105206 -0.00753672)
(1.00215 -0.00623754 -0.0240811)
(1.01753 -0.000940711 -0.0391789)
(1.02687 0.00921419 -0.0178842)
(1.01936 0.0208109 -0.00907016)
(1.01712 0.0145364 -0.0185089)
(1.02961 0.0141165 -0.021031)
(1.03228 0.0179824 -0.00144806)
(1.01228 0.000174849 0.009057)
(1.01078 -0.0294631 -0.0197296)
(1.03968 -0.0222765 -0.012944)
(1.0577 0.00324474 -0.00262037)
(1.05621 0.0337852 -0.0242615)
(1.02935 0.0332513 -0.00332241)
(1.01467 -0.000440085 0.0146872)
(1.03559 0.00871621 -0.00159577)
(1.03908 0.0139022 -0.00269796)
(1.03671 -0.0164943 -0.0106797)
(1.05333 -0.0052153 -0.0164803)
(1.05962 0.00626357 -0.0214783)
(1.06003 0.00369197 -0.0151107)
(1.04969 0.0169983 0.0140712)
(1.02768 -0.000317997 0.0153964)
(1.0283 0.0110598 -0.00508497)
(1.0164 0.0251167 -0.00557434)
(1.02218 -0.00474048 -0.0163806)
(1.04642 0.00767976 -0.0167451)
(1.03982 0.00570515 -0.00575209)
(1.04002 -0.00443246 -0.0229113)
(1.04552 0.0179299 -0.0244518)
(1.03748 0.0325024 0.0074884)
(1.02336 0.0256209 0.0171818)
(1.03507 -0.00844684 -0.00247793)
(1.05468 -0.0179912 -0.0243124)
(1.05058 0.0210797 -0.0240111)
(1.02491 0.0127619 -0.00518918)
(1.03949 -0.00741675 -0.017523)
(1.05664 0.0166489 -0.0024218)
(1.04638 0.0241657 0.00697006)
(1.04162 0.00558996 -0.0143377)
(1.01259 -0.0120844 -0.00966714)
(1.00126 -0.0113215 -0.0374543)
(1.00276 -0.00517881 -0.0536762)
(1.01149 0.00979843 -0.0213434)
(0.999685 0.02083 -0.00809864)
(0.996712 0.00999871 -0.02402)
(1.01193 0.0119476 -0.0257524)
(1.02239 0.0243061 0.00301299)
(1.00337 0.00136825 0.00646828)
(0.987807 -0.038319 -0.0379399)
(1.01722 -0.0282268 -0.0168415)
(1.04583 0.00681938 0.00849473)
(1.04866 0.0420857 -0.0257432)
(1.02641 0.0421656 -0.0115853)
(1.01179 0.00146581 0.0140284)
(1.02871 0.00968769 0.010005)
(1.02861 0.0179003 0.0167868)
(1.0284 -0.0146765 -0.00670902)
(1.05218 -0.00661709 -0.0267257)
(1.06654 0.008868 -0.0350897)
(1.06644 0.0116938 -0.0238256)
(1.05098 0.0227294 0.0177559)
(1.02198 0.00129231 0.0252243)
(1.01707 0.016747 0.000600727)
(1.00492 0.0343508 -0.00998441)
(1.00718 0.00160671 -0.0174977)
(1.04226 0.0148769 -0.00937803)
(1.04512 0.0065817 0.000194385)
(1.04434 -0.00780291 -0.026035)
(1.04839 0.0237266 -0.0326462)
(1.0354 0.0414936 0.00864846)
(1.01317 0.0302827 0.0197438)
(1.02774 -0.0102855 -0.00538697)
(1.05851 -0.0197541 -0.0320944)
(1.05754 0.0242726 -0.0383234)
(1.02573 0.00960316 -0.0118244)
(1.03781 -0.0120558 -0.0209112)
(1.05546 0.0207357 -0.00549534)
(1.05759 0.0256968 -0.00105684)
(1.08792 0.00270393 -0.017427)
(1.07195 -0.0127631 -0.000509708)
(1.02749 -0.012652 -0.0425674)
(0.991358 -0.00636348 -0.0633292)
(0.990185 0.0103225 -0.0195299)
(0.969209 0.0194077 0.00260379)
(0.967706 0.0040165 -0.0191612)
(0.983601 0.00924396 -0.0211246)
(1.00391 0.0286204 0.0151499)
(0.992313 0.00151683 0.00162872)
(0.952428 -0.0452235 -0.054628)
(0.972463 -0.0353988 -0.0169786)
(1.01686 0.0060706 0.0158373)
(1.03085 0.0458689 -0.0298125)
(1.01924 0.0503829 -0.0120586)
(1.01477 0.00652692 0.0182794)
(1.02789 0.0168656 0.0105112)
(1.01927 0.0266 0.0211435)
(1.02678 -0.0167572 -0.00523191)
(1.04377 -0.00920072 -0.0314444)
(1.0541 0.0166077 -0.0463787)
(1.07071 0.0219074 -0.036873)
(1.06535 0.0236638 0.0245157)
(1.04871 0.00143048 0.0426244)
(1.02218 0.0260411 0.00548758)
(0.998887 0.0448475 -0.0193428)
(1.00289 -0.00197696 -0.013017)
(1.04194 0.010869 0.00861621)
(1.06819 0.00403544 0.0114925)
(1.06998 -0.0110303 -0.0261587)
(1.06083 0.0292647 -0.0262319)
(1.02067 0.0527217 0.0235862)
(0.988309 0.0371869 0.010417)
(1.01621 -0.0136559 -0.0164455)
(1.04655 -0.0241073 -0.0364165)
(1.0401 0.0224207 -0.0490438)
(1.00432 0.0086592 -0.0154727)
(1.01312 -0.011432 -0.0203075)
(1.03134 0.0240247 -0.00442629)
(1.05157 0.0198767 -0.00993343)
(1.1316 -0.00389345 -0.0188043)
(1.13863 -0.00767067 0.0150196)
(1.05242 -0.00638094 -0.0449071)
(0.976676 -0.0036731 -0.0698589)
(0.963226 0.0106569 -0.0104969)
(0.952641 0.020445 0.0227098)
(0.946157 -0.00502362 -0.0121046)
(0.948936 0.00562229 -0.00302723)
(0.986084 0.032891 0.0405149)
(0.992157 0.00256527 -0.00798172)
(0.887559 -0.0522839 -0.0582096)
(0.89021 -0.0387385 0.00555873)
(0.946443 0.00496042 0.0300384)
(1.00006 0.0467015 -0.0274082)
(1.00591 0.0598341 -0.00215732)
(1.00418 0.0134991 0.0193033)
(1.03386 0.0260216 -0.00556329)
(1.02513 0.0367125 0.0227126)
(1.04335 -0.0202634 0.00899123)
(1.02666 -0.00918958 -0.0261824)
(1.0229 0.025375 -0.055292)
(1.07717 0.024728 -0.0518936)
(1.1097 0.021786 0.0281784)
(1.07911 0.00422987 0.0615431)
(0.995404 0.0432544 0.00181096)
(1.04058 0.0509952 -0.0267042)
(1.04085 -0.0170228 -0.00287709)
(1.05311 -0.00456172 0.0215554)
(1.09192 -0.00812533 0.0256559)
(1.10221 -0.0182052 -0.0109803)
(1.06304 0.0387619 -0.00410458)
(0.997107 0.0635783 0.0223813)
(1.02822 0.034138 -0.0139907)
(1.08591 -0.0225106 -0.0106317)
(1.06126 -0.0318127 -0.0131168)
(1.02383 0.0226154 -0.0344758)
(0.990274 0.0189777 -0.00749814)
(0.963012 -0.00534018 -0.0157221)
(0.989322 0.0255492 0.00283535)
(1.02548 0.00926732 -0.00819163)
(1.12527 -0.020157 -0.00697273)
(1.14525 -0.00728573 0.0315945)
(1.0354 0.000262009 -0.0561739)
(0.949289 0.000887766 -0.0782215)
(0.938153 0.0165938 0.0109648)
(0.956986 0.0168307 0.0352263)
(0.940421 -0.0133452 0.00269077)
(0.900591 0.00228774 0.0312327)
(0.980431 0.0315268 0.0498818)
(0.998393 0.007214 -0.0366096)
(0.764414 -0.0492622 -0.0458206)
(0.739215 -0.0412033 0.0575433)
(0.859016 -0.00183061 0.0548553)
(0.96468 0.0410454 -0.0407448)
(0.971028 0.0673227 -0.0128391)
(1.00599 0.0122757 0.0119098)
(1.03387 0.0331646 -0.020278)
(1.01536 0.0453174 0.0160214)
(1.04836 -0.0232331 0.00788384)
(0.998931 0.00269861 -0.0322978)
(0.994713 0.0332417 -0.0613515)
(1.07446 0.0158979 -0.0551868)
(1.15465 0.0172553 0.0297024)
(1.05438 0.0172526 0.0730927)
(0.967661 0.059645 -0.00178097)
(1.11748 0.0314678 -0.0215405)
(1.04745 -0.0360811 0.00148777)
(1.05492 -0.0074944 0.0119062)
(1.08154 -0.0157276 0.0377894)
(1.08936 -0.0200072 0.0274592)
(1.00194 0.0506134 0.0119329)
(0.985982 0.0710445 0.0110797)
(1.1402 0.0156447 -0.00469731)
(1.19221 -0.0268265 0.0217276)
(1.07557 -0.0251689 0.0104212)
(1.00962 0.0338675 -0.0241682)
(1.01225 0.0325195 -0.00141467)
(0.918098 -0.000525663 -0.0121816)
(0.955186 0.0266244 0.013216)
(0.994163 -0.000998809 -0.00414717)
(1.05147 -0.0343687 0.0114364)
(1.03782 -0.00829939 0.0322248)
(0.915343 0.0027522 -0.0972507)
(0.87708 0.00420666 -0.0834739)
(0.895775 0.0233855 0.0428494)
(0.985814 0.00593587 0.0397331)
(0.961586 -0.018399 0.038035)
(0.885574 -0.00520447 0.0709292)
(0.975347 0.0278161 0.0284708)
(0.960984 0.0200394 -0.0491398)
(0.635821 -0.0340611 -0.0123106)
(0.598716 -0.0460138 0.0745509)
(0.758814 -0.0206851 0.0598904)
(0.870295 0.0398259 -0.0568934)
(0.949168 0.0782845 -0.00313857)
(1.0357 0.00954653 0.0371519)
(0.97986 0.0492086 -0.0279327)
(1.01255 0.0529906 -0.00641978)
(1.02449 -0.0248693 0.00179622)
(0.988529 0.0193449 -0.0352721)
(1.04554 0.029462 -0.0536532)
(1.05757 -0.00405716 -0.0425702)
(1.12105 0.0199176 0.0332675)
(0.984534 0.0369463 0.0798803)
(0.999103 0.0566726 0.00586169)
(1.12501 0.0120005 -0.0195709)
(0.958052 -0.0424225 -0.0110786)
(1.06234 -0.00685335 -0.00162134)
(1.07312 -0.0192347 0.0618792)
(0.959476 -0.0092747 0.0254101)
(0.848381 0.0805634 -0.036132)
(1.05867 0.0459533 0.0435728)
(1.14058 -0.0365111 0.0350416)
(1.14529 -0.0405887 0.0427258)
(1.01253 -0.0173152 0.00197272)
(0.979124 0.0488613 -0.0287398)
(1.04876 0.0509041 0.0196006)
(0.876838 0.00698675 0.00300145)
(0.951574 0.0245093 0.00626249)
(0.949781 -0.00818813 -0.0122775)
(0.943418 -0.0380907 0.030196)
(0.888091 -0.00567352 0.00464016)
(0.750014 -0.00165161 -0.163121)
(0.796895 0.00566683 -0.0514962)
(0.87273 0.0234308 0.093273)
(0.989502 -0.00572214 0.0463726)
(0.956114 -0.0247161 0.0929233)
(0.847418 -0.0105671 0.0932821)
(0.943628 0.0282326 -0.000862775)
(0.908175 0.0328386 -0.0328641)
(0.547607 -0.0157265 0.0130515)
(0.489886 -0.0480703 0.0154785)
(0.627872 -0.034787 -0.0168381)