/*--------------------------------*- C++ -*----------------------------------*\
  =========                 |
  \\      /  F ield         | OpenFOAM: The Open Source CFD Toolbox
   \\    /   O peration     | Website:  https://openfoam.org
    \\  /    A nd           | Version:  10
     \\/     M anipulation  |
\*---------------------------------------------------------------------------*/
FoamFile
{
    format      ascii;
    class       volScalarField;
    location    "0.02";
    object      nut;
}
// * * * * * * * * * * * * * * * * * * * * * * * * * * * * * * * * * * * * * //

dimensions      [0 2 -1 0 0 0 0];

internalField   nonuniform List<scalar> 
102400
(
7.77469e-10
7.81805e-10
7.89513e-10
7.97004e-10
8.47003e-10
8.28389e-10
7.9168e-10
7.77738e-10
9.00422e-10
8.55645e-10
8.37816e-10
8.57741e-10
6.33724e-10
9.50264e-10
9.60509e-10
9.01123e-10
7.06831e-10
7.2337e-10
1.00958e-09
7.02056e-10
8.23564e-10
7.96042e-10
9.2022e-10
1.01684e-09
8.9143e-10
8.02298e-10
8.10204e-10
8.09646e-10
8.61117e-10
1.00949e-09
7.3561e-10
8.22689e-10
6.36763e-10
8.67567e-10
7.15955e-10
8.20621e-10
8.36061e-10
9.06297e-10
9.67672e-10
7.91825e-10
5.70413e-14
5.8201e-14
4.55121e-14
5.13391e-14
4.51921e-14
4.72505e-14
6.49683e-14
5.74312e-14
4.54851e-14
5.30794e-14
5.81108e-14
6.68144e-14
5.23165e-14
4.40999e-14
5.08817e-14
5.95886e-14
5.66383e-14
5.50661e-14
5.33786e-14
6.24923e-14
6.06686e-14
5.84684e-14
5.45741e-14
4.95306e-14
5.19451e-14
4.73205e-14
6.81346e-14
4.94387e-14
3.84744e-14
5.00186e-14
4.89602e-14
8.25365e-14
5.76533e-14
4.52539e-14
4.58752e-14
4.71311e-14
8.54337e-14
6.16513e-14
4.98958e-14
5.04504e-14
3.75345e-10
4.38472e-10
9.18059e-10
6.56244e-10
8.50222e-10
7.55067e-10
5.45421e-10
4.43976e-10
6.16444e-10
4.41615e-10
4.06017e-10
3.68001e-10
3.51785e-10
8.73079e-10
6.16325e-10
5.99785e-10
7.43177e-10
5.2661e-10
3.90599e-10
3.27244e-10
4.35187e-10
6.15501e-10
4.32709e-10
3.81739e-10
2.85707e-10
5.50406e-10
3.22931e-10
4.57094e-10
1.17681e-09
3.06207e-10
6.35833e-10
5.37242e-10
4.0395e-10
4.86529e-10
5.30805e-10
5.23228e-10
6.55277e-10
6.48764e-10
8.18018e-10
2.38075e-10
2.9837e-14
8.27663e-11
3.67563e-12
1.1985e-13
6.46514e-14
3.9263e-14
5.87174e-14
3.94246e-14
7.24288e-11
3.3302e-13
7.64782e-14
2.92671e-10
4.01355e-14
3.92773e-11
1.09182e-10
2.12426e-10
3.83106e-14
1.43887e-13
1.70301e-10
1.10533e-13
2.28329e-10
1.23515e-13
1.84561e-10
3.48945e-10
1.04121e-11
5.30065e-11
1.00622e-10
7.25639e-11
1.45136e-13
3.14292e-10
4.13753e-14
8.69946e-14
4.37632e-14
7.20746e-11
7.12927e-14
9.95362e-14
3.58853e-14
1.58592e-10
2.89447e-11
1.09184e-13
1.82616e-10
4.47664e-14
5.65495e-14
4.27174e-11
3.57901e-14
6.19054e-14
7.95242e-11
3.49271e-10
1.4654e-13
1.95953e-10
1.1166e-10
1.11702e-10
3.64758e-10
8.13911e-14
7.28503e-11
1.5908e-11
1.86776e-11
2.53975e-10
1.13749e-13
4.22655e-10
6.01361e-14
7.71879e-11
1.82196e-13
7.86962e-14
1.23261e-10
4.13499e-14
8.64223e-14
2.60953e-11
9.45845e-14
6.72766e-14
1.71074e-10
2.03526e-10
3.16799e-10
4.12937e-13
7.489e-12
8.99204e-11
4.90094e-11
6.38997e-14
5.02558e-14
2.68235e-10
2.12163e-10
7.81105e-14
3.13391e-10
1.02944e-10
7.26963e-14
1.65889e-10
3.01975e-11
1.10373e-10
8.91153e-14
2.42469e-13
2.6133e-10
2.77524e-14
1.81834e-13
1.92359e-10
6.70174e-14
3.29805e-14
1.13907e-10
8.6879e-14
5.63131e-14
7.64628e-14
3.71536e-14
7.95125e-13
7.96101e-11
2.34689e-14
1.16099e-13
5.55955e-11
1.47449e-10
5.27349e-11
1.74361e-10
1.06833e-14
6.65808e-14
8.02476e-14
1.84001e-13
8.01032e-11
5.11409e-11
4.48215e-14
7.31639e-13
2.56798e-11
8.86981e-11
3.81896e-14
5.8163e-14
3.11519e-10
1.52191e-13
1.72302e-13
1.21083e-10
6.9002e-13
1.45734e-13
5.97859e-14
1.13254e-12
6.4395e-14
4.47699e-14
1.66776e-10
3.60013e-14
1.61382e-12
1.69236e-10
5.71803e-11
4.04891e-14
1.42653e-11
6.5675e-11
6.32593e-14
2.625e-10
6.14713e-14
6.29891e-11
1.87071e-10
1.63229e-13
3.34722e-14
8.82502e-14
5.60398e-11
1.20075e-10
2.50018e-10
9.30159e-14
1.15934e-13
6.8678e-11
1.64503e-13
2.82951e-14
3.09904e-14
2.24608e-11
2.37191e-11
4.0885e-11
1.88633e-11
5.39452e-14
7.32158e-14
9.85563e-14
2.89708e-12
9.26791e-14
4.35088e-14
1.18459e-13
1.90791e-12
1.13671e-13
1.81696e-10
6.65673e-14
1.22378e-10
1.57231e-10
7.78789e-14
1.01878e-10
2.01315e-10
1.19485e-10
2.35246e-10
1.19209e-13
2.47951e-10
3.28046e-14
2.13602e-13
6.97023e-14
5.02293e-14
1.79758e-13
4.32938e-14
7.78253e-14
7.06702e-14
6.4048e-14
1.08345e-13
1.05336e-10
1.16109e-13
1.06361e-13
1.63919e-10
1.46021e-10
1.57554e-10
1.39967e-13
9.91335e-14
1.18554e-13
1.61916e-13
2.90029e-10
8.47782e-12
1.26488e-10
2.12418e-13
1.09862e-12
1.10924e-10
1.07008e-10
2.01967e-10
4.03681e-11
1.54164e-13
1.60736e-10
8.00746e-14
5.56297e-11
1.82582e-10
6.63628e-14
4.92764e-14
1.54975e-13
5.36903e-14
1.14796e-13
6.54795e-14
1.38643e-14
1.0647e-10
1.47628e-10
2.64408e-11
2.96282e-13
2.22972e-11
1.12899e-10
8.58772e-11
5.49411e-11
1.75361e-13
4.57483e-11
2.35032e-11
1.13907e-13
5.34008e-11
1.02352e-13
3.7976e-11
2.56909e-13
5.06574e-11
1.69858e-13
2.76143e-12
3.45738e-14
1.02365e-10
7.29967e-12
1.23677e-12
4.74547e-11
1.47687e-11
3.10093e-11
3.89676e-14
8.47043e-14
7.9238e-14
3.83499e-11
8.67396e-14
2.95185e-14
6.49826e-12
1.03531e-10
2.76561e-12
3.94727e-11
9.40916e-12
1.56544e-10
2.08156e-13
5.78283e-12
1.22797e-13
1.54118e-10
2.04478e-13
2.69155e-11
7.70124e-11
5.25902e-11
8.17831e-13
7.29803e-11
1.74691e-11
5.76207e-12
7.82385e-13
9.16002e-11
9.23921e-14
7.70722e-13
4.84216e-14
1.90587e-11
5.91528e-11
7.74468e-11
1.10078e-10
2.08853e-14
8.22341e-14
9.34631e-12
5.46166e-11
2.15282e-11
3.12166e-13
3.17676e-14
1.14908e-11
3.34306e-11
5.07748e-11
1.41038e-14
4.45111e-11
2.42124e-11
6.74268e-14
3.63385e-11
6.01816e-11
9.28768e-11
3.63663e-11
1.74958e-14
4.09978e-11
2.71557e-14
5.38801e-12
1.25364e-14
1.22689e-13
9.84077e-14
2.32947e-14
1.65913e-14
3.24994e-14
6.60964e-12
8.73947e-11
7.22194e-13
3.84572e-14
3.91865e-13
6.27844e-11
4.52384e-13
2.10804e-11
7.01683e-11
3.99399e-12
2.28936e-11
5.64431e-14
1.87365e-11
1.97247e-14
1.3594e-11
9.9146e-12
1.35534e-14
3.8403e-15
2.45787e-11
2.85099e-11
4.00331e-13
7.743e-15
2.19816e-11
3.71346e-14
1.04209e-11
6.46423e-12
1.7129e-14
4.69812e-15
2.01178e-14
2.58689e-13
1.94997e-14
3.82038e-14
2.02358e-13
5.76686e-12
2.72873e-11
1.98469e-11
2.29026e-12
6.73745e-12
1.31655e-13
2.24685e-11
1.72363e-14
7.71379e-15
4.71451e-12
4.12731e-11
1.07398e-14
1.55271e-11
3.54375e-12
3.51817e-12
1.0574e-14
1.61107e-14
1.08805e-14
3.61864e-14
4.64153e-12
1.54222e-12
7.28188e-13
1.48261e-15
1.93968e-14
5.29534e-12
1.8408e-15
2.69379e-15
1.70012e-15
6.18821e-15
5.29846e-15
5.29931e-15
1.15309e-15
2.27827e-12
5.14934e-12
5.70436e-15
1.38894e-15
1.02525e-14
4.5629e-15
9.53421e-16
2.82387e-15
1.7275e-14
1.21318e-11
1.33153e-15
9.08974e-14
2.17992e-12
2.88154e-15
7.95841e-16
1.37394e-12
1.38215e-12
3.1573e-12
8.67559e-16
1.5974e-12
4.3576e-15
1.10317e-15
1.11778e-15
4.30973e-15
2.58362e-12
4.83377e-12
3.1792e-12
2.92009e-16
2.31907e-16
3.83757e-12
2.83323e-12
2.93684e-15
4.89915e-16
5.11214e-16
8.58656e-16
1.46852e-16
2.68261e-16
1.54255e-16
1.68725e-14
1.74742e-16
2.22801e-13
1.43986e-12
1.41937e-15
5.27574e-12
2.88046e-12
3.06934e-16
8.73575e-15
1.50188e-16
8.47668e-16
4.15512e-15
3.46647e-16
3.76183e-16
3.38049e-16
3.10238e-16
5.38175e-17
3.71499e-12
1.64071e-12
7.28358e-16
1.268e-16
3.65765e-13
3.2933e-12
5.53995e-16
1.66189e-12
2.51553e-12
8.74571e-13
9.37564e-16
3.66744e-16
4.79143e-16
2.48213e-16
2.66903e-12
1.55332e-17
3.43041e-13
4.46451e-13
1.33424e-16
8.67299e-13
2.09698e-16
1.66401e-16
8.49205e-17
3.61366e-16
5.43726e-17
1.39364e-12
1.25832e-12
3.9425e-17
1.05365e-12
1.78222e-12
2.12189e-16
3.4855e-16
8.03588e-17
3.81194e-16
6.8578e-13
9.4227e-17
2.43661e-13
5.31044e-16
6.624e-17
3.76351e-17
2.43283e-12
2.683e-16
7.31916e-13
1.82899e-16
2.20709e-13
2.39325e-12
5.92776e-17
3.01324e-16
3.19915e-17
6.77943e-13
7.6277e-15
3.57952e-16
7.40373e-17
1.83183e-16
1.90887e-12
4.39514e-17
4.37199e-13
5.16237e-13
1.00243e-16
6.23426e-13
3.61484e-16
1.00497e-15
7.40865e-17
3.69249e-16
3.96296e-17
1.19658e-12
1.24251e-12
1.95324e-17
1.13095e-12
1.24246e-12
7.98209e-17
1.79609e-15
5.03983e-17
3.75724e-16
5.7882e-13
8.95052e-17
1.60261e-13
1.25569e-16
4.23231e-17
4.7653e-17
2.07486e-12
4.82421e-16
4.28636e-13
2.16615e-16
1.74877e-13
1.99172e-12
5.4324e-17
1.3219e-15
5.89366e-17
6.79835e-13
3.89793e-13
2.33297e-14
1.12552e-16
1.58914e-16
1.15004e-12
5.519e-17
3.37588e-13
4.8262e-13
8.33958e-17
2.03766e-13
3.55439e-16
1.38104e-13
1.13284e-16
5.4315e-16
3.76992e-17
7.96339e-13
8.87301e-13
3.13226e-17
6.37609e-13
7.54774e-13
3.72149e-17
1.4169e-13
4.61057e-17
3.33769e-16
1.45628e-13
7.4617e-17
1.98026e-13
9.45791e-17
2.92554e-17
3.27138e-17
1.5414e-12
3.28322e-16
2.7104e-13
2.25223e-16
2.00385e-14
1.46328e-12
5.21883e-17
3.75753e-16
6.27301e-17
4.46613e-13
3.84001e-13
1.32363e-14
1.95534e-16
1.16752e-16
6.2313e-13
3.64967e-17
2.34954e-13
3.02078e-13
6.58283e-17
2.24112e-15
4.42643e-16
2.19593e-13
1.89658e-16
1.29697e-15
3.76672e-17
3.65965e-13
5.14855e-13
3.59004e-17
3.24926e-13
3.7024e-13
3.252e-17
1.8131e-13
4.58123e-17
3.17393e-16
5.79799e-16
6.12241e-17
2.28817e-13
1.52884e-16
2.05642e-17
2.23423e-17
1.0816e-12
3.62489e-16
1.46682e-13
2.2198e-16
9.49145e-16
9.43753e-13
3.10503e-16
3.18748e-16
5.74615e-17
2.781e-13
3.35101e-13
1.82406e-16
2.51192e-16
9.46654e-17
3.14587e-13
2.37662e-17
1.51837e-13
1.98209e-13
5.01555e-17
2.38272e-16
5.44194e-16
2.28805e-13
4.58439e-16
2.23822e-14
3.8166e-17
1.53098e-13
2.95982e-13
3.69847e-17
1.26292e-13
1.45314e-13
7.12262e-17
1.07679e-13
4.75105e-17
3.06501e-16
1.92746e-16
5.05085e-17
2.16073e-13
1.14246e-14
1.5084e-17
1.60489e-17
6.93357e-13
1.51791e-15
6.82638e-14
2.16706e-16
3.67934e-16
4.59743e-13
8.47976e-14
4.60703e-14
5.83932e-17
1.67791e-13
2.6423e-13
5.0409e-17
2.02228e-16
1.32351e-16
1.51017e-13
1.80036e-17
9.3651e-14
1.46998e-13
3.81871e-17
9.92178e-17
5.20067e-16
2.02251e-13
1.63808e-14
4.27628e-14
3.94839e-17
1.01726e-13
2.12025e-13
5.17964e-17
3.26137e-14
9.68407e-14
2.50267e-14
7.1858e-14
4.92903e-17
2.54248e-16
1.09648e-16
4.18452e-17
1.64587e-13
4.32955e-14
1.15898e-17
1.2478e-17
4.30948e-13
2.56094e-14
2.71328e-14
2.01609e-16
2.08011e-16
2.33207e-13
1.06861e-13
6.60037e-14
5.67597e-17
9.82753e-14
1.88039e-13
3.28814e-17
1.4981e-16
1.61841e-16
6.6514e-14
1.4958e-17
5.55468e-14
1.02556e-13
2.82775e-17
5.38118e-17
8.94757e-16
1.64971e-13
4.86804e-14
4.00627e-14
4.17531e-17
5.61692e-14
1.56646e-13
5.54771e-15
1.88408e-14
8.10141e-14
6.7229e-14
5.58539e-14
5.02562e-17
2.17865e-16
6.8184e-17
3.34277e-17
1.14691e-13
5.2446e-14
9.89984e-18
1.07797e-17
2.74465e-13
4.27266e-14
8.65706e-15
1.6941e-16
1.354e-16
1.33889e-13
9.31348e-14
6.4754e-14
5.19392e-17
5.57437e-14
1.21271e-13
3.20816e-17
1.06952e-16
1.308e-16
2.87055e-14
1.27463e-17
2.96946e-14
6.65281e-14
1.89553e-17
3.27827e-17
1.7969e-14
1.2791e-13
5.54297e-14
3.15958e-14
4.47099e-17
2.1502e-14
1.00781e-13
1.72353e-14
1.79865e-14
5.03148e-14
6.55512e-14
3.05746e-14
5.05634e-17
2.06681e-16
4.85635e-17
2.72045e-17
8.05371e-14
4.48259e-14
9.60045e-18
1.09046e-17
1.68072e-13
4.59219e-14
1.99249e-15
1.30944e-16
9.52296e-17
5.63275e-14
6.80094e-14
5.2768e-14
6.35247e-17
3.12558e-14
6.93312e-14
3.26706e-17
7.31067e-17
1.86903e-16
1.41359e-14
1.19932e-17
1.31769e-14
3.11312e-14
1.27932e-17
2.79604e-17
3.16495e-14
9.37777e-14
5.00993e-14
2.22468e-14
4.79433e-17
2.95133e-15
5.45768e-14
1.22865e-14
8.43868e-15
2.97316e-14
4.74959e-14
1.42001e-14
5.09058e-17
1.84977e-16
3.94766e-17
2.4448e-17
5.38329e-14
3.30782e-14
1.0497e-17
1.27316e-17
9.81092e-14
4.03821e-14
7.68224e-16
9.68561e-17
7.02359e-17
1.65167e-14
4.51137e-14
3.99717e-14
1.04656e-16
1.60439e-14
3.55465e-14
2.8926e-17
7.09027e-17
1.02159e-15
1.41504e-15
1.36749e-17
1.7796e-15
9.08502e-15
1.15485e-17
1.77741e-17
1.80572e-14
6.64095e-14
4.0833e-14
1.46714e-14
5.0731e-17
1.07412e-16
2.71002e-14
7.46166e-15
2.4374e-15
1.71589e-14
2.96198e-14
5.24654e-15
5.28164e-17
1.75572e-16
3.75588e-17
2.61822e-17
3.32082e-14
2.17581e-14
1.2649e-17
1.63682e-17
5.58914e-14
3.16099e-14
4.5984e-16
7.17627e-17
5.42786e-17
6.98598e-16
3.02804e-14
2.83154e-14
1.83677e-16
9.0541e-15
1.61381e-14
2.91172e-17
3.03318e-17
6.68583e-17
6.20478e-15
1.75455e-17
7.94681e-17
1.04336e-16
7.5796e-18
8.83201e-18
9.7561e-15
4.5623e-14
3.08014e-14
9.18507e-15
5.23966e-17
5.79255e-17
1.16959e-14
3.8889e-15
6.62063e-16
9.46037e-15
1.63365e-14
1.1744e-15
5.68984e-17
1.71374e-16
4.22924e-17
3.46234e-17
1.92192e-14
1.26932e-14
1.62708e-17
2.35596e-17
3.15205e-14
2.22399e-14
2.80286e-16
5.45579e-17
4.37499e-17
1.46603e-16
1.7445e-14
2.00302e-14
2.6645e-15
5.56113e-15
5.41287e-15
2.98044e-17
5.35593e-18
9.34829e-18
6.11055e-14
3.86428e-17
2.22952e-17
1.62671e-17
3.74524e-18
5.73204e-18
7.6684e-15
3.05107e-14
2.16161e-14
5.6322e-15
5.33525e-17
4.49949e-17
3.74889e-15
1.65707e-15
3.6294e-16
4.65499e-15
7.54951e-15
2.56513e-16
6.21854e-17
1.70408e-16
5.67979e-17
5.70953e-17
1.04917e-14
6.68591e-15
2.21098e-17
3.62067e-17
1.76797e-14
1.43718e-14
1.80704e-16
4.34766e-17
3.64915e-17
8.38525e-17
9.16411e-15
1.48117e-14
5.94307e-15
3.93143e-15
3.25871e-15
4.66642e-17
2.09088e-17
2.37218e-17
3.18089e-15
2.66104e-17
2.31158e-17
9.77166e-18
3.16796e-18
5.17428e-18
5.88635e-15
1.96557e-14
1.45123e-14
3.64731e-15
5.27097e-17
3.82048e-17
4.58922e-16
7.14608e-16
3.48318e-16
1.97459e-15
2.71815e-15
1.40591e-16
6.954e-17
1.88927e-16
9.34563e-17
1.22239e-16
5.49451e-15
3.20306e-15
2.99984e-17
5.35619e-17
9.51032e-15
8.483e-15
1.27826e-16
3.60519e-17
3.08374e-17
5.66362e-17
3.75842e-15
1.01556e-14
6.14181e-15
3.40422e-15
5.95269e-16
4.98222e-17
2.70432e-15
5.79767e-15
2.35042e-17
4.18514e-17
1.76927e-17
8.63561e-18
3.92232e-18
6.89037e-18
4.27883e-15
1.25131e-14
9.43297e-15
1.97424e-15
5.21519e-17
3.4367e-17
9.5378e-17
3.51335e-16
3.06552e-16
6.40264e-16
5.45749e-16
9.79657e-17
7.67078e-17
2.19011e-16
2.01297e-16
3.66057e-16
2.83749e-15
1.48943e-15
3.74922e-17
7.27785e-17
4.77018e-15
4.47277e-15
9.01637e-17
3.05949e-17
2.6228e-17
4.18418e-17
7.85844e-16
4.47514e-15
5.09006e-15
3.51968e-15
1.43573e-15
4.78284e-17
3.96918e-17
1.44699e-15
1.61332e-15
7.08561e-17
1.68287e-17
8.77898e-18
5.66215e-18
1.15236e-17
3.04548e-15
7.4301e-15
6.0515e-15
1.46864e-15
5.49152e-17
3.40064e-17
5.74115e-17
1.39975e-16
1.61345e-16
1.62207e-16
1.20171e-16
7.1237e-17
7.70247e-17
2.291e-16
4.49838e-16
7.14104e-16
1.48309e-15
6.88116e-16
5.5555e-17
1.04745e-16
2.09058e-15
1.75447e-15
5.82988e-17
2.58935e-17
2.25068e-17
3.25019e-17
2.02355e-16
3.01343e-15
4.24657e-15
3.44497e-15
1.71133e-15
6.05391e-17
1.31545e-16
5.9598e-16
1.44274e-16
3.72071e-17
1.42356e-17
8.80586e-18
7.89332e-18
2.05878e-17
2.16624e-15
4.58085e-15
3.82595e-15
1.05612e-15
6.23624e-17
3.58463e-17
4.34817e-17
6.75581e-17
7.48329e-17
6.7994e-17
5.76966e-17
5.24354e-17
6.96446e-17
2.02203e-16
5.31093e-16
7.21976e-16
8.45077e-16
3.38886e-16
7.65858e-17
1.36461e-16
6.41544e-16
2.41834e-16
3.69465e-17
2.12586e-17
1.88481e-17
2.55754e-17
1.11087e-16
2.50515e-15
3.7515e-15
3.52663e-15
2.26793e-15
2.13543e-16
4.28942e-16
2.5244e-16
3.94345e-17
1.67835e-17
9.53369e-18
7.7145e-18
9.88255e-18
3.7186e-17
1.54757e-15
2.91238e-15
2.4036e-15
6.60887e-16
7.56167e-17
3.58474e-17
3.32277e-17
3.77331e-17
3.74427e-17
3.44027e-17
3.34011e-17
3.6935e-17
5.43072e-17
1.47969e-16
4.96563e-16
7.17605e-16
6.523e-16
2.667e-16
7.36519e-17
6.08488e-17
7.29194e-17
4.421e-17
2.37045e-17
1.66261e-17
1.46771e-17
1.8377e-17
7.40796e-17
1.93544e-15
3.53144e-15
4.07436e-15
3.21649e-15
1.26055e-15
1.05871e-15
2.21751e-16
2.07288e-17
8.11504e-18
5.53236e-18
6.52404e-18
1.44049e-17
1.97633e-16
1.5764e-15
2.2491e-15
1.76762e-15
6.0855e-16
5.89126e-17
2.75085e-17
2.09966e-17
1.89195e-17
1.74161e-17
1.62587e-17
1.62124e-17
1.82855e-17
2.49629e-17
4.79458e-17
2.28921e-16
6.87791e-16
7.11436e-16
2.71265e-16
4.84106e-17
2.77571e-17
2.41212e-17
1.95723e-17
1.48795e-17
1.15258e-17
9.42662e-18
9.39905e-18
3.98137e-17
2.32701e-15
3.90611e-15
4.43166e-15
4.79926e-15
2.71231e-15
7.09532e-10
6.37541e-10
6.70911e-10
7.97934e-10
1.08612e-09
8.18522e-10
6.99591e-10
8.18231e-10
7.00219e-10
6.0062e-10
4.86115e-10
8.79525e-10
5.60334e-10
1.26923e-09
1.01822e-09
5.07689e-10
9.95866e-10
4.59766e-10
9.10058e-10
9.62381e-10
6.87976e-10
9.27098e-10
8.26856e-10
7.68262e-10
7.31099e-10
8.60247e-10
7.66326e-10
6.87633e-10
1.09157e-09
6.75006e-10
6.33608e-10
8.29556e-10
8.3337e-10
9.86753e-10
7.741e-10
8.64589e-10
1.06789e-09
6.42863e-10
1.29634e-09
5.73594e-10
8.44459e-15
1.8581e-14
7.70125e-15
1.75206e-14
1.29233e-14
7.90337e-15
1.43907e-14
6.69092e-15
1.5758e-14
3.23817e-14
1.7102e-14
1.66268e-14
9.8992e-15
2.16135e-14
1.53372e-14
1.70693e-14
2.11464e-14
1.70545e-14
1.74495e-14
1.64861e-14
7.51396e-15
1.79137e-14
5.97976e-15
1.83335e-14
1.5036e-14
8.05543e-15
1.86336e-14
7.53348e-15
1.94732e-14
1.93765e-14
9.68323e-15
1.89421e-14
6.74935e-15
1.76239e-14
1.53794e-14
8.27275e-15
2.57194e-14
8.13552e-15
1.92257e-14
2.8981e-14
2.73579e-10
2.11789e-10
4.0782e-10
6.95619e-10
3.66562e-10
4.46102e-10
5.94411e-10
3.77435e-10
8.78203e-10
2.99978e-11
4.26082e-10
5.72191e-10
1.10697e-09
9.62387e-10
8.74715e-11
4.73406e-10
1.69249e-10
4.62241e-10
1.02232e-09
2.82715e-10
8.4984e-10
2.43553e-10
6.44585e-10
1.06673e-10
1.01854e-09
5.89676e-10
4.99158e-10
6.25225e-10
3.97215e-10
8.71004e-13
3.63546e-10
2.22015e-10
6.28385e-10
6.41592e-10
4.62396e-10
2.18259e-10
1.51078e-10
7.55594e-10
1.64277e-12
3.30368e-10
7.03175e-14
1.32932e-13
4.22675e-14
8.07769e-14
5.19538e-10
1.54754e-10
8.77093e-14
2.01454e-10
4.64784e-14
8.12862e-14
5.64219e-14
1.84985e-10
3.41928e-14
5.53262e-10
1.00778e-10
2.96778e-14
1.4103e-10
2.98131e-14
6.07964e-14
1.00161e-13
9.4314e-14
9.30597e-11
4.41612e-11
3.12524e-14
4.16674e-14
5.05248e-11
1.9352e-13
4.71057e-14
3.94924e-11
9.45974e-14
4.34607e-14
1.99342e-10
1.00098e-10
3.85553e-11
1.49737e-10
1.53476e-10
3.821e-10
3.97671e-14
6.6052e-10
3.66659e-14
3.50944e-10
3.67964e-10
2.82931e-10
1.7452e-11
1.42791e-14
1.4673e-14
1.28188e-13
1.78845e-13
8.74282e-14
5.99123e-10
3.20294e-10
5.65531e-14
7.90943e-14
2.02019e-14
1.97471e-10
1.12891e-10
3.73517e-10
3.53925e-10
6.07197e-14
2.83298e-10
5.0161e-14
2.21141e-10
1.56131e-13
4.14089e-10
5.94728e-14
3.70162e-14
2.52334e-10
6.27282e-11
2.47341e-10
2.52105e-10
2.97286e-10
7.76681e-11
8.99689e-14
3.66789e-14
3.71116e-12
2.4662e-10
7.72288e-13
2.28493e-13
2.94984e-13
3.86247e-10
9.0508e-14
1.76063e-13
4.9008e-11
1.35552e-12
7.75772e-14
1.09186e-10
7.67214e-11
4.81048e-14
1.33016e-10
8.34916e-14
1.11827e-10
3.05738e-10
2.93589e-10
1.39626e-10
4.44739e-14
1.34112e-10
2.21078e-11
7.64663e-11
3.83883e-10
8.99829e-11
2.76507e-10
5.83754e-14
1.17436e-13
8.21036e-14
3.07036e-10
5.00679e-15
4.68575e-13
4.97344e-12
9.57297e-14
2.27888e-15
5.78806e-14
3.57704e-14
5.35555e-14
7.46322e-11
1.97657e-14
1.13633e-14
6.12834e-14
8.95804e-11
3.03229e-14
9.89508e-11
2.5556e-14
8.62569e-14
2.39945e-13
4.049e-14
1.36871e-10
3.14496e-14
4.61296e-11
1.54253e-10
1.41981e-13
4.53996e-11
4.12641e-14
1.30214e-13
3.2721e-13
2.57959e-10
1.78625e-11
4.39082e-14
2.51417e-13
6.72273e-14
6.97724e-11
4.44775e-11
2.62925e-13
6.34537e-13
1.32667e-12
7.81024e-11
1.18599e-11
1.59572e-10
1.17643e-12
9.30226e-14
1.18999e-10
1.69784e-13
2.77659e-14
4.26104e-11
6.40084e-11
1.01362e-10
1.32616e-10
2.54471e-11
1.03759e-10
8.40956e-14
2.67941e-10
4.44283e-14
1.20218e-10
2.21594e-10
1.63598e-12
1.93963e-10
1.29323e-13
1.15864e-10
9.84835e-14
1.75277e-13
1.33318e-13
1.8911e-10
3.29072e-13
1.44701e-13
4.06433e-13
8.36891e-14
1.49496e-11
2.07063e-13
2.28629e-13
1.50451e-13
2.75743e-13
2.12275e-13
2.38298e-12
3.93888e-13
1.62503e-10
6.06986e-14
4.10168e-14
7.31189e-14
4.27654e-11
5.32708e-11
1.46104e-10
7.46196e-14
1.44967e-10
3.34469e-13
4.77273e-13
1.37761e-13
1.69337e-11
4.67454e-13
4.53084e-11
1.07522e-10
6.66342e-14
9.28411e-14
5.7966e-14
8.69248e-14
1.53563e-13
3.65914e-14
2.89587e-13
5.36798e-14
1.8e-12
3.23634e-13
2.97697e-12
7.83685e-14
1.10967e-13
1.18083e-10
9.21536e-11
6.02133e-11
4.15169e-13
9.15951e-12
2.76132e-10
7.95813e-12
5.18927e-11
4.39767e-13
2.13738e-13
3.04579e-13
1.58546e-13
1.50462e-13
1.27305e-10
2.03043e-13
1.03667e-10
2.70169e-11
9.54427e-14
1.46343e-13
4.16309e-14
5.22746e-13
2.77301e-13
2.43529e-13
9.00095e-14
2.46149e-11
5.0626e-13
1.61494e-13
5.01203e-11
5.20279e-11
4.84444e-11
5.6122e-11
5.61499e-11
3.52244e-11
1.01551e-10
6.60105e-11
3.12723e-13
4.81666e-13
1.72063e-11
3.85527e-13
1.15647e-10
1.23409e-13
2.85463e-14
4.20165e-11
1.49484e-13
1.29577e-11
3.06937e-11
3.22788e-13
1.29569e-10
1.37853e-10
1.29454e-11
1.09649e-10
9.35054e-14
1.54361e-13
2.64014e-12
9.6374e-11
2.11827e-13
5.40243e-14
6.20158e-11
4.06689e-11
6.72445e-14
9.77608e-12
2.81562e-11
4.98106e-11
7.97223e-11
6.57803e-14
1.87827e-13
7.44648e-14
2.8769e-13
3.7823e-13
1.52445e-11
2.94601e-13
3.39916e-11
1.12498e-13
1.11002e-13
6.958e-14
5.33905e-11
3.40059e-11
7.86234e-14
7.32889e-11
6.50325e-15
1.41516e-13
5.36258e-11
8.575e-13
6.24231e-11
4.86274e-14
4.0265e-14
6.38947e-14
1.92322e-11
8.5595e-14
3.82765e-11
5.68725e-14
3.16378e-11
7.7634e-11
8.10597e-12
1.24572e-14
1.83743e-11
3.52994e-12
1.12885e-11
9.07056e-14
2.59272e-11
7.57953e-11
5.87956e-14
3.76859e-11
4.42233e-11
2.22428e-11
6.8528e-11
4.65345e-11
7.05886e-11
8.17556e-12
2.21657e-14
1.8287e-13
5.3251e-15
5.9025e-12
1.57313e-14
1.62414e-14
4.19717e-15
2.63225e-14
2.186e-14
6.76401e-12
1.13068e-14
1.63152e-14
1.61675e-14
1.68874e-12
1.01617e-14
1.17939e-14
1.60712e-11
2.24985e-12
5.60687e-14
5.43829e-12
3.61824e-12
2.49038e-14
4.28048e-14
8.80282e-15
3.90245e-14
2.10759e-14
7.2821e-12
9.19245e-12
1.32861e-11
6.76862e-12
2.62802e-14
3.62062e-14
5.90616e-13
1.59918e-14
3.19515e-15
2.80728e-14
1.34126e-14
1.04698e-14
2.13319e-14
1.29019e-14
3.37908e-15
5.45012e-15
4.31278e-12
2.66511e-15
1.68779e-12
3.22504e-15
2.90713e-15
1.68787e-15
5.48764e-15
2.06774e-15
2.6366e-15
3.52011e-13
2.5575e-15
1.01352e-14
8.56905e-15
5.88321e-16
8.91783e-12
2.45608e-15
5.95026e-12
8.44769e-13
1.96971e-12
5.57394e-12
3.09747e-15
1.34543e-15
3.62151e-12
6.2808e-13
3.74447e-12
1.19496e-15
1.44618e-14
9.23001e-16
8.03064e-16
1.588e-15
1.11469e-15
2.60397e-14
4.38022e-12
1.60086e-15
3.69975e-15
5.27176e-16
2.79996e-13
2.28965e-15
1.85223e-15
1.31923e-16
5.57638e-13
2.3523e-16
3.6144e-13
1.95197e-16
1.61543e-16
4.42155e-16
8.12218e-16
1.58757e-12
3.36821e-16
2.22901e-16
3.54609e-16
7.30029e-13
1.46979e-13
1.67644e-16
2.06316e-15
1.80621e-16
2.10488e-12
3.82006e-12
4.86832e-13
3.07636e-16
3.69192e-16
8.8488e-16
3.79619e-15
2.32344e-16
4.5354e-16
9.19319e-17
1.87655e-12
1.47208e-15
1.29632e-16
3.42436e-12
7.63724e-17
5.56162e-13
3.80632e-16
2.73395e-16
7.35674e-13
6.58399e-15
2.19717e-12
1.82649e-16
2.0695e-15
2.4177e-16
8.56142e-13
6.54978e-17
1.08662e-12
2.7027e-16
1.13249e-16
3.62581e-16
2.55873e-16
1.818e-12
6.25649e-17
1.18868e-16
5.64718e-17
1.31835e-12
8.01299e-13
2.50166e-17
1.38698e-12
1.26302e-16
3.12796e-12
4.47053e-12
1.52211e-12
3.64489e-16
2.8055e-16
2.59385e-16
1.24107e-12
1.50995e-17
9.87132e-13
3.35383e-17
3.09962e-12
9.68456e-17
6.50522e-17
9.52018e-13
1.1083e-16
1.0213e-12
1.63377e-16
7.87774e-17
1.77368e-12
5.7092e-17
2.08545e-12
3.08841e-17
1.12355e-13
4.84342e-16
5.00107e-13
4.50579e-17
6.79568e-13
3.99569e-14
1.05673e-16
3.19184e-16
1.70201e-16
1.29236e-12
2.54659e-16
7.88186e-17
4.29521e-17
1.0215e-12
7.57468e-13
1.21375e-17
9.80502e-13
3.00252e-16
2.46493e-12
2.40264e-12
9.36967e-13
5.32599e-16
1.95058e-16
1.54714e-16
9.38867e-13
1.59359e-17
8.68893e-13
1.97031e-17
2.05796e-12
6.52421e-17
4.80053e-17
1.05595e-12
1.00705e-16
6.19443e-13
5.40627e-17
5.5319e-17
3.67405e-13
3.8032e-17
1.60023e-12
3.82088e-17
9.1916e-14
5.65299e-16
3.05814e-13
3.11796e-17
4.36095e-13
1.9954e-13
8.99262e-17
2.5552e-16
1.38318e-16
8.0163e-13
9.34249e-16
8.78902e-17
4.04757e-17
6.03283e-13
4.19114e-13
8.27713e-18
7.08938e-13
2.51592e-14
1.93044e-12
1.2644e-12
3.64257e-13
9.06393e-16
1.4632e-16
1.08446e-16
6.67706e-13
1.64199e-17
3.74009e-13
1.5341e-17
1.31939e-12
7.69368e-17
4.0909e-17
5.69495e-13
9.74856e-17
9.05026e-14
8.61563e-18
3.09692e-17
1.11955e-13
6.58149e-17
1.11705e-12
2.40083e-17
5.86658e-14
9.5219e-16
1.60391e-13
2.23408e-17
2.75736e-13
2.28245e-13
7.14321e-17
1.9682e-16
1.22833e-16
4.92966e-13
3.94874e-14
1.23213e-16
3.89453e-17
2.86441e-13
2.22031e-13
6.73318e-18
4.54537e-13
1.05035e-13
1.29587e-12
7.05101e-13
2.86975e-14
4.71971e-14
1.11765e-16
7.9485e-17
4.82052e-13
1.9543e-17
6.05044e-14
1.28384e-17
9.01075e-13
1.27406e-16
4.29682e-17
3.4506e-13
9.37257e-17
2.28965e-16
5.88062e-18
1.82306e-17
3.96085e-15
1.7962e-16
7.64402e-13
1.36545e-17
2.79586e-14
1.83748e-14
5.87485e-14
1.68359e-17
1.75397e-13
1.96537e-13
5.47747e-17
1.42676e-16
1.40553e-16
3.22451e-13
7.16683e-14
1.48267e-16
3.8174e-17
1.53043e-13
1.40902e-13
5.27468e-18
1.46002e-13
1.21601e-13
6.38636e-13
3.06993e-13
2.14006e-16
8.2558e-14
8.92732e-17
6.1597e-17
3.79056e-13
2.70168e-17
5.09267e-17
1.12525e-17
5.89014e-13
2.87637e-15
5.47811e-17
2.49134e-13
9.10224e-17
2.06911e-16
2.86776e-17
1.67646e-17
4.62196e-16
9.83236e-15
4.80014e-13
6.12742e-18
7.15199e-15
6.34459e-14
3.13861e-14
1.49646e-17
1.11692e-13
1.42116e-13
4.07073e-17
9.24636e-17
1.6856e-16
2.19956e-13
7.48446e-14
1.42811e-16
3.84214e-17
1.12196e-13
1.1749e-13
3.76922e-18
3.60659e-14
1.22291e-13
3.33155e-13
1.10714e-13
1.02116e-16
2.27216e-14
7.16125e-17
5.49686e-17
2.6248e-13
5.13979e-17
2.39476e-17
1.06988e-17
3.54142e-13
4.74812e-14
8.26371e-17
1.4205e-13
8.7778e-17
6.30024e-16
1.18598e-14
2.71038e-17
3.42023e-16
3.85474e-14
2.73125e-13
3.50539e-18
7.7488e-16
6.98735e-14
2.08716e-14
1.3634e-17
6.613e-14
9.33923e-14
2.95117e-17
5.77602e-17
1.78453e-16
1.55026e-13
6.59816e-14
1.60089e-16
3.95168e-17
6.33188e-14
9.53022e-14
4.58687e-18
6.6307e-14
1.06091e-13
2.12512e-13
2.94592e-14
6.93927e-17
6.35698e-16
4.88894e-17
4.11191e-17
1.2908e-13
1.61711e-15
1.67602e-17
1.0914e-17
2.19397e-13
6.36343e-14
1.93391e-16
7.26342e-14
8.07325e-17
9.70232e-16
4.99476e-14
7.00193e-17
4.40746e-16
4.21595e-14
1.4381e-13
5.22582e-18
2.54621e-16
5.52108e-14
1.66304e-14
1.225e-17
3.45763e-14
5.36357e-14
2.1064e-17
4.46443e-17
3.27707e-16
1.10515e-13
5.38548e-14
1.77987e-16
4.09721e-17
3.27341e-14
7.17858e-14
9.25853e-15
5.5743e-14
7.83246e-14
1.16534e-13
9.75005e-16
5.38168e-17
3.74871e-16
3.39657e-17
2.68213e-17
8.07544e-14
1.48266e-14
1.40165e-17
1.20079e-17
1.36638e-13
6.48158e-14
3.78762e-15
3.25027e-14
6.98417e-17
4.26659e-16
5.56519e-14
1.68188e-15
1.02645e-15
3.58312e-14
6.9588e-14
9.39322e-18
1.44901e-16
4.04868e-14
1.45694e-14
1.34156e-17
1.41886e-14
2.56024e-14
1.73129e-17
3.06266e-17
4.28557e-15
7.94836e-14
4.15454e-14
1.93449e-16
4.2568e-17
1.39392e-14
4.84537e-14
1.63226e-14
3.25102e-14
5.02679e-14
6.26908e-14
2.031e-16
4.60098e-17
2.37058e-16
2.9035e-17
2.29585e-17
6.39585e-14
1.76273e-14
1.39157e-17
1.41767e-17
8.28792e-14
5.50305e-14
1.34785e-14
9.70816e-15
5.97473e-17
2.09479e-16
3.04634e-14
1.60908e-14
9.14323e-15
2.68853e-14
3.04488e-14
1.41846e-17
1.06996e-16
2.69826e-14
1.10288e-14
1.62718e-17
2.9132e-15
7.57264e-15
1.19336e-17
1.88551e-17
1.01586e-14
5.64988e-14
3.07569e-14
2.02712e-16
4.36125e-17
3.25128e-15
2.93276e-14
1.38804e-14
1.75071e-14
2.99052e-14
3.28586e-14
1.15584e-16
4.22916e-17
1.6932e-16
2.99175e-17
2.74066e-17
4.0232e-14
1.44001e-14
1.54486e-17
1.79059e-17
4.97021e-14
4.23256e-14
1.32784e-14
5.49396e-16
5.04554e-17
1.28594e-16
2.02174e-14
2.0872e-14
1.33686e-14
1.91395e-14
1.1809e-14
1.91305e-17
8.48417e-17
1.1548e-14
7.03055e-15
2.03797e-17
9.86374e-17
9.04531e-17
7.94236e-18
1.21137e-17
1.03521e-14
3.92022e-14
2.2002e-14
2.02625e-16
4.37685e-17
1.87932e-16
1.56547e-14
9.40559e-15
9.13049e-15
1.64317e-14
1.58571e-14
8.43402e-17
4.13259e-17
1.35984e-16
3.78674e-17
4.5629e-17
2.36505e-14
9.65488e-15
1.87578e-17
2.47255e-17
2.96979e-14
3.00449e-14
9.59381e-15
1.31183e-16
4.29333e-17
9.25093e-17
1.62907e-14
1.92757e-14
1.42642e-14
1.33656e-14
3.65816e-15
2.51054e-17
3.74019e-17
1.87989e-16
8.97332e-15
2.74992e-17
3.90044e-17
2.1902e-17
5.60191e-18
9.05854e-18
8.91867e-15
2.62663e-14
1.4809e-14
1.8697e-16
4.25617e-17
7.57878e-17
7.0409e-15
5.51752e-15
4.64231e-15
8.15671e-15
6.52914e-15
6.93346e-17
4.21904e-17
1.20202e-16
5.75895e-17
1.11267e-16
1.31204e-14
5.59438e-15
2.41387e-17
3.67288e-17
1.75629e-14
1.97122e-14
5.63193e-15
7.2264e-17
3.69985e-17
7.0982e-17
9.58603e-15
1.54855e-14
1.28704e-14
9.4467e-15
1.41824e-15
3.58053e-17
6.18637e-17
6.07478e-16
2.12763e-15
3.3209e-17
2.81933e-17
1.37902e-17
5.12427e-18
9.06764e-18
7.03263e-15
1.72481e-14
9.81483e-15
1.65068e-16
4.01064e-17
4.89233e-17
2.30558e-15
2.931e-15
2.44559e-15
3.58153e-15
1.87627e-15
6.10827e-17
4.45895e-17
1.15702e-16
1.02947e-16
4.56764e-16
6.89025e-15
2.96484e-15
3.25184e-17
5.51681e-17
9.94062e-15
1.19014e-14
2.62443e-15
5.01679e-17
3.17791e-17
5.41556e-17
4.59454e-15
1.09789e-14
1.03184e-14
7.06149e-15
1.14357e-15
5.11912e-17
1.08042e-16
3.6119e-15
1.77532e-15
5.3328e-17
2.25681e-17
1.17232e-17
6.14922e-18
1.25719e-17
5.19565e-15
1.111e-14
6.41769e-15
1.93744e-16
3.83024e-17
3.77152e-17
3.10939e-16
1.3406e-15
1.14943e-15
1.18142e-15
2.77783e-16
5.45466e-17
4.69976e-17
1.1412e-16
2.06591e-16
9.29455e-16
3.46503e-15
1.42887e-15
4.79499e-17
8.14028e-17
5.27654e-15
6.50033e-15
6.99899e-16
3.79426e-17
2.71679e-17
4.21373e-17
1.57813e-15
6.7318e-15
7.67519e-15
5.71228e-15
1.93178e-15
6.56961e-17
8.19756e-17
2.34385e-15
2.29237e-15
7.98762e-17
2.04141e-17
1.14676e-17
8.40116e-18
2.14959e-17
3.65936e-15
6.944e-15
4.14491e-15
2.1217e-16
3.91634e-17
3.3492e-17
8.06972e-17
3.5513e-16
3.67339e-16
2.20684e-16
8.89618e-17
4.68604e-17
4.74599e-17
1.08678e-16
3.34693e-16
9.08519e-16
1.68083e-15
6.26247e-16
5.94503e-17
1.12296e-16
2.5771e-15
2.91397e-15
1.25171e-16
2.94322e-17
2.30146e-17
3.33536e-17
4.23179e-16
4.27352e-15
5.68203e-15
4.77395e-15
2.37207e-15
1.04905e-16
2.9885e-16
1.33267e-15
6.37999e-16
4.92014e-17
1.73919e-17
1.14893e-17
1.14935e-17
4.18578e-17
2.52291e-15
4.19158e-15
2.71222e-15
2.27794e-16
4.25697e-17
3.2477e-17
4.79167e-17
9.3813e-17
9.54215e-17
7.27963e-17
4.86878e-17
3.80449e-17
4.4031e-17
9.54367e-17
3.23235e-16
6.67326e-16
8.04488e-16
2.73964e-16
6.77222e-17
1.03838e-16
8.99667e-16