/*--------------------------------*- C++ -*----------------------------------*\
  =========                 |
  \\      /  F ield         | OpenFOAM: The Open Source CFD Toolbox
   \\    /   O peration     | Website:  https://openfoam.org
    \\  /    A nd           | Version:  10
     \\/     M anipulation  |
\*---------------------------------------------------------------------------*/
FoamFile
{
    format      ascii;
    class       volScalarField;
    location    "0.02";
    object      p;
}
// * * * * * * * * * * * * * * * * * * * * * * * * * * * * * * * * * * * * * //

dimensions      [0 2 -2 0 0 0 0];

internalField   nonuniform List<scalar> 
102400
(
-0.00123754
0.00100701
-0.000263775
0.00237623
-0.00357689
-0.00200627
0.00376293
0.00318805
-8.83017e-05
-0.00663367
-0.00610808
-0.00395056
0.000555179
-0.00324123
-0.00630978
-0.00390519
0.00185032
0.000854079
0.000453761
-0.00427537
0.000799654
0.00287228
0.00473335
0.00275894
-0.000886027
-0.00320931
0.00684421
-0.000596755
-0.00484605
0.000396504
-0.00032289
0.000417572
-0.00101938
-0.00189813
-0.00311179
-0.00224799
-0.000209356
-0.00299815
-0.00990541
-0.00315361
-0.0113606
-0.00814557
-0.00825529
-0.00715231
-0.0129492
-0.0109715
-0.00540978
-0.00642071
-0.0103621
-0.0180242
-0.0166774
-0.0139371
-0.00729138
-0.0135389
-0.0177968
-0.0138803
-0.00621152
-0.0077641
-0.0120174
-0.0140923
-0.00965342
-0.0061689
-0.006125
-0.00977297
-0.0127612
-0.0123208
-0.00310205
-0.00992784
-0.0132845
-0.0124113
-0.00886104
-0.00921429
-0.00897218
-0.012371
-0.0115961
-0.0118078
-0.00967345
-0.0129489
-0.0203058
-0.0138069
-0.00895977
-0.00354386
-0.0013289
-0.0031716
-0.0060875
-0.00474446
-0.000462057
-0.00376958
-0.00374006
-0.0154422
-0.0130985
-0.00874307
-0.00502803
-0.00566963
-0.012267
-0.00743367
-0.00108025
-0.00460265
-0.00655854
-0.0138315
-0.0063911
-0.000944304
-0.000942784
-0.0042545
-0.0104787
-0.00662288
0.00163171
-0.00511074
-0.00443564
-0.00859387
-0.00464754
-0.00459712
-0.00741589
-0.0084828
-0.00737177
-0.00649753
-0.00372334
-0.0060193
-0.0125546
-0.012144
-0.00519665
0.000346158
-0.00170405
-0.00205788
-0.00472577
-0.00353375
0.00243784
-0.000727718
-0.000394454
-0.0122916
-0.00922525
-0.00311555
-0.00252354
-0.00384137
-0.00834357
-0.00382752
-0.000808443
-0.0031628
-0.000109129
-0.0116878
-0.0048005
0.00147104
0.00436046
0.00272257
-0.0061969
-0.0032187
0.0065454
-0.000848311
-0.00559715
-0.00240942
-0.00390296
-0.00126744
-0.00549736
-0.00626026
-0.00506539
-0.00270799
-0.000947025
-0.00257561
-0.00797437
-0.00728291
-0.000121073
0.00249127
-0.00381593
0.00131046
-0.00323881
-0.00359244
0.00472387
0.0047713
-0.00037802
-0.00881444
-0.00524492
-0.00306269
0.00159638
-0.00509954
-0.00755905
-0.00478786
0.00167754
-0.00145462
0.00181076
-0.00580707
-0.00711287
0.00289176
0.00543173
0.00352871
-0.00325712
-0.00192147
0.00895558
0.00124748
-0.00755052
-0.00118854
-0.00271668
0.00123593
0.000778976
-0.00521271
-0.00249043
-0.00164531
-0.000201113
-0.00394884
-0.00494571
-0.00174402
-0.0013439
0.00275324
-0.00128598
0.00315535
-0.00244304
-0.00285382
0.00379689
0.00265936
-0.000948512
-0.00929307
-0.00540645
-0.00642307
-0.000286884
-0.00418505
-0.00903784
-0.00631518
0.00218326
-0.00288924
0.00188308
-0.00757063
-0.00487109
0.00348845
0.00421241
0.00407107
-0.00350584
-0.00172084
0.00706879
0.00118559
-0.00410896
-0.000476311
-0.00366514
0.00120711
0.00227725
-0.00561874
-0.00160539
-0.00437253
-0.000657832
-0.00466879
-0.00249958
-0.00286471
-0.00908107
0.00102344
-0.00342763
0.0024175
-0.00395715
-0.00589969
0.000462895
-0.00314239
-0.00138349
-0.00957052
-0.0112278
-0.00290602
-0.00243684
-0.00607712
-0.00664198
-0.00433121
-0.000506919
-0.00125573
0.000550868
-0.00766199
0.00135106
0.00186927
0.000332245
0.00491722
-0.00373964
-0.00330296
0.00148834
-0.000622024
-0.00340784
0.000585778
-0.00503253
0.000973855
0.000794871
-0.00733906
-0.00237205
-0.00627909
-0.002018
-0.00490575
-0.00274208
-0.00569464
-0.00843596
-0.00564508
-0.00380379
0.0010616
-0.00670277
-0.00814215
-0.00147716
-0.00124545
-0.0010878
-0.00574341
-0.0116706
-0.000927447
0.00166093
-0.0076758
-0.00581741
-0.00251711
-0.00472445
0.00135463
-0.00350505
-0.00416678
0.00116932
0.00116867
-0.00340153
0.00270479
-0.00345405
-0.00429204
-0.00120642
-0.00283736
-0.00632901
-0.00280985
-0.00308152
0.00205124
-0.00257821
-0.00530772
-0.00269852
-0.0035089
-0.00451094
-0.00485115
-0.0057071
-0.00814402
-0.000425258
-0.00403859
-0.00107675
-0.00197868
-0.00615335
-0.00299248
0.00113586
0.00270371
-0.000872945
-0.00550005
-0.00474476
-0.00254669
0.00221811
-0.00293399
-0.00569106
-0.00458171
-0.00767895
-0.000300318
-0.0023156
-0.00390313
0.00102999
0.00217357
0.00203941
0.00139905
-0.00231122
-0.0022942
0.00202305
-0.000993551
-0.00407837
-0.00447737
-0.000419245
0.00323944
-0.00251426
-0.00350971
-0.00397409
-0.00272655
-0.00449413
-0.00233883
-0.00549046
-0.00599054
0.000384685
0.000174923
-0.00032891
-0.00184393
-0.00346
0.000245799
0.00194186
0.00139333
-0.0010586
-0.00434541
-0.00213157
-0.00263738
0.000294653
-0.00103394
-0.00248361
-0.002296
-0.00420009
0.000222403
0.00167175
-0.00237185
0.00168636
0.00232081
0.00535929
0.00125322
-0.00145456
-0.00023422
0.00360895
-0.000109004
-0.00135471
-0.00167116
0.000831503
0.00271212
0.000921652
-0.00267513
-0.00295299
-0.00286463
-0.00130035
-0.000419871
-0.00108244
-0.00249032
-0.000924867
0.000866196
0.000174025
0.000245482
-0.0017301
0.000947458
0.00204219
0.00138372
-0.000101458
-0.00230438
-0.00306459
-0.000883614
0.000642512
-0.000196586
-0.00065834
0.000646194
0.000112007
0.00121334
0.000994381
-0.000394097
0.00154141
0.00293614
0.00310562
0.0018445
-0.000972512
-0.000492295
0.00293233
0.000530905
-7.0238e-05
0.00145769
0.00141164
0.00294139
0.0021152
-0.000663395
-0.00116864
-0.00127704
0.0011201
0.000119594
0.000626989
-0.00139232
-0.000483406
0.000893909
0.000404997
0.000742852
-0.00124052
0.000473252
0.00241015
0.00161233
1.81471e-05
-0.00195536
-0.00215653
-0.000525931
0.000947156
0.000157506
-8.61143e-05
0.000887372
0.000968866
0.0013346
0.000821267
0.000262558
0.00161689
0.00296714
0.00283514
0.00213655
-0.00040328
0.000175633
0.00262102
0.00121829
0.000325573
0.00108927
0.00182421
0.00342022
0.00208186
0.000220407
-0.000270732
-0.000493724
0.000639423
-2.26001e-05
-3.10917e-06
-0.00080371
-0.000233355
0.000717809
0.000199652
0.000300973
-0.000961816
0.000404113
0.00213401
0.00131971
-0.000300306
-0.00173891
-0.0016379
-0.000531706
0.000774008
0.000344147
0.000348195
0.000896198
0.00115865
0.00117024
0.000656154
0.000395962
0.00152316
0.00268505
0.00261478
0.00171165
-0.000125629
0.000543628
0.00212775
0.00112324
0.000532778
0.00112686
0.00199294
0.00302126
0.00196424
0.000488831
-0.000247376
-0.00043035
0.000377102
-6.76057e-05
-6.12186e-05
-0.000415515
-0.000288722
0.000347062
2.50661e-05
0.000223995
-0.000751162
0.000257534
0.00169876
0.000955646
-0.000434711
-0.00152497
-0.00136301
-0.000422939
0.000633188
0.000440739
0.000573974
0.000967485
0.00125003
0.00104551
0.000495633
0.000620352
0.00138058
0.00225807
0.00223173
0.00142359
3.07085e-05
0.000566232
0.00177646
0.0010981
0.000649857
0.00120414
0.00192757
0.0026462
0.00184233
0.000707126
-3.18802e-05
-0.000221843
0.000361374
-0.000110522
-0.000104716
-0.000252895
-0.000259663
9.22136e-05
-0.00011417
9.59192e-05
-0.000596696
0.000167742
0.00128608
0.000634575
-0.000509884
-0.00130324
-0.0011214
-0.000341695
0.000529071
0.000489604
0.00067194
0.000984462
0.00121171
0.000952606
0.000502236
0.000763518
0.0012806
0.00188416
0.00187251
0.00121897
0.000206938
0.000634544
0.00151804
0.00105659
0.000735775
0.00121066
0.00183192
0.00234362
0.00172459
0.000826064
0.000139256
-8.5465e-05
0.000289057
-0.000134686
-0.000111709
-0.000170243
-0.00024252
-8.14382e-05
-0.000209163
-3.55491e-05
-0.00047784
0.000109392
0.000931838
0.000382025
-0.000532647
-0.00109877
-0.000911049
-0.000258224
0.000455677
0.0005133
0.000702668
0.000963593
0.00114566
0.000894339
0.000592552
0.000844054
0.00119266
0.00158155
0.00157365
0.00106638
0.000352534
0.000694506
0.00133028
0.00101422
0.000795201
0.00119141
0.0017144
0.00208781
0.00161483
0.000885709
0.000273164
2.70962e-05
0.000222704
-0.000132722
-0.000102908
-0.000134465
-0.000232034
-0.000183603
-0.000264488
-0.000136391
-0.000387141
7.22798e-05
0.000644022
0.000192276
-0.000520523
-0.000913532
-0.000726028
-0.000178091
0.000404274
0.000519147
0.00069758
0.000920831
0.00106325
0.000856087
0.000684563
0.00087676
0.00110761
0.0013433
0.00133254
0.000950605
0.000462689
0.000730376
0.00118588
0.000972215
0.000830629
0.0011555
0.00158885
0.00186845
0.00150827
0.000902801
0.000365947
0.000119355
0.00017362
-0.000115135
-9.28042e-05
-0.000121289
-0.000224121
-0.000234587
-0.000288166
-0.000198509
-0.000318486
4.21254e-05
0.00041963
5.56625e-05
-0.000484934
-0.000747097
-0.000565022
-0.000106848
0.000366765
0.000520775
0.000678068
0.000863962
0.000976126
0.000831004
0.000739303
0.000876946
0.0010238
0.00115723
0.00114095
0.000860753
0.00053842
0.000744977
0.00106833
0.000929074
0.000845152
0.00110874
0.00146246
0.0016744
0.00140164
0.000900532
0.000430402
0.000184358
0.000143635
-8.97259e-05
-8.487e-05
-0.000118443
-0.000213858
-0.000251418
-0.000289916
-0.000228376
-0.000266579
9.96514e-06
0.000248575
-3.40612e-05
-0.000431495
-0.000598746
-0.000426846
-4.6086e-05
0.000337073
0.000500922
0.000641695
0.000798702
0.000891342
0.000804285
0.000760981
0.000859804
0.000943552
0.00101181
0.000989919
0.00079002
0.000586339
0.000743009
0.000969987
0.000884537
0.000845429
0.00105485
0.00133901
0.00149991
0.00129404
0.000889003
0.000473285
0.000230039
0.000127903
-6.11389e-05
-7.7428e-05
-0.000118156
-0.000199619
-0.000252381
-0.000275523
-0.000234951
-0.000226504
-2.2444e-05
0.000122303
-8.67406e-05
-0.000369728
-0.000468066
-0.000309967
3.43031e-06
0.000311845
0.000469646
0.000596118
0.000729081
0.000809434
0.00076551
0.000756486
0.000822314
0.000868148
0.000897213
0.000871268
0.00073271
0.000611892
0.000727294
0.000885485
0.000838571
0.000829495
0.000996467
0.00122104
0.00134191
0.00118588
0.000854678
0.00049937
0.00026334
0.000128657
-3.13599e-05
-6.77436e-05
-0.000115181
-0.00017947
-0.000229966
-0.000249804
-0.00022377
-0.0001936
-4.86999e-05
3.53971e-05
-0.000113161
-0.000306087
-0.000354434
-0.000212567
4.23954e-05
0.000289653
0.000434693
0.000546705
0.000659299
0.000730694
0.000721558
0.000731676
0.000775776
0.000797744
0.000804558
0.000777881
0.000684964
0.000618259
0.000701824
0.000810461
0.000791528
0.000801749
0.000935506
0.00110989
0.00119875
0.00107943
0.000811425
0.000511427
0.00028848
0.000139526
-9.79093e-07
-5.35637e-05
-0.000106057
-0.000153062
-0.000198277
-0.000215961
-0.000198606
-0.000163941
-6.59957e-05
-1.82837e-05
-0.000119377
-0.000243968
-0.000256876
-0.000132506
7.24659e-05
0.000269993
0.000399262
0.000499092
0.000594403
0.000658867
0.000673357
0.000693358
0.0007233
0.000731805
0.000727331
0.000702759
0.000642941
0.000609508
0.000669781
0.000744139
0.000744027
0.000766666
0.000873458
0.00100632
0.00106959
0.000977222
0.000762637
0.000512554
0.000307744
0.000156561
3.01228e-05
-3.36823e-05
-8.9298e-05
-0.000120419
-0.000159599
-0.000176238
-0.000165274
-0.000134483
-7.0607e-05
-4.50689e-05
-0.000113815
-0.000184076
-0.00017398
-6.73565e-05
9.55472e-05
0.00025273
0.000365257
0.000453862
0.000535091
0.000594168
0.000621933
0.000646354
0.000667629
0.000669704
0.000660894
0.000640442
0.000603954
0.000590364
0.000633982
0.000685701
0.000697289
0.000726789
0.000811569
0.000910751
0.000953858
0.000881375
0.000711241
0.000505274
0.000322529
0.000177866
6.21153e-05
-7.89206e-06
-6.47906e-05
-8.22783e-05
-0.000115459
-0.000132296
-0.00012666
-0.000103243
-6.3747e-05
-5.44055e-05
-9.07011e-05
-0.000126027
-0.000104037
-1.46427e-05
0.000113385
0.000237829
0.000333804
0.000411557
0.000481186
0.000535171
0.000568811
0.00059445
0.000610867
0.000610981
0.000602144
0.000586941
0.00056657
0.000564419
0.000596607
0.000634031
0.000652125
0.000684213
0.000750974
0.000823412
0.000851092
0.000793491
0.000659734
0.000492229
0.000333658
0.000200797
9.48802e-05
2.30779e-05
-3.3312e-05
-3.973e-05
-6.60357e-05
-8.53826e-05
-8.45254e-05
-6.90953e-05
-4.58434e-05
-4.08341e-05
-5.96614e-05
-7.26189e-05
-4.53318e-05
2.79463e-05
0.000127381
0.000225177
0.000305435
0.000372583
0.000432265
0.000480872
0.000515555
0.000540606
0.000554638
0.000555406
0.000549024
0.000539453
0.000530133
0.000534479
0.00055927
0.000588012
0.000609022
0.00064071
0.000692763
0.000744472
0.000760767
0.000714551
0.000610148
0.000475667
0.000341421
0.000223614
0.000127867
5.78587e-05
3.59527e-06
5.59687e-06
-6.70085e-06
-3.65348e-05
-4.0044e-05
-3.1739e-05
-1.90634e-05
-1.61021e-05
-2.38849e-05
-2.39304e-05
3.84236e-06
6.23388e-05
0.000138433
0.00021443
0.000280184
0.000337046
0.00038779
0.000430627
0.000463492
0.000487028
0.000500159
0.00050295
0.000500263
0.000496208
0.000494549
0.000502674
0.000523016
0.000546683
0.000568498
0.000597795
0.000637896
0.000673956
0.000682265
0.00064504
0.000564102
0.000457529
0.000346468
0.000245074
0.000160217
9.4738e-05
4.39708e-05
5.06987e-05
2.95743e-05
1.11037e-05
5.57481e-06
8.43119e-06
1.42407e-05
1.59157e-05
1.42179e-05
2.01732e-05
4.50426e-05
9.01001e-05
0.000147108
0.000205159
0.000257772
0.000304764
0.000347185
0.000383986
0.000413546
0.000435192
0.00044825
0.000453652
0.000455095
0.000456143
0.000459983
0.000470542
0.000488514
0.000509366
0.00053077
0.000556743
0.000587252
0.000611833
0.000614909
0.000585026
0.000522752
0.0004394
0.000349425
0.000264469
0.000191042
0.000132003
8.5602e-05
9.58263e-05
7.42754e-05
5.90461e-05
5.19377e-05
5.07091e-05
5.18669e-05
5.21401e-05
5.27033e-05
5.98493e-05
7.96297e-05
0.000112622
0.000153874
0.000196967
0.000237723
0.000275311
0.000309853
0.000340587
0.000366255
0.00038595
0.000399322
0.000407427
0.000412925
0.00041855
0.000426618
0.000439138
0.000456221
0.000475655
0.000496059
0.000518568
0.000541646
0.000558119
0.000558054
0.000534231
0.000486678
0.000422353
0.000351211
0.000281518
0.000219657
0.000168285
0.000127165
0.000140263
0.00012054
0.00010673
9.84799e-05
9.42358e-05
9.19394e-05
9.02431e-05
9.02213e-05
9.53781e-05
0.000108927
0.000131049
0.000159113
0.00018945
0.00021942
0.000248092
0.000275169
0.000300033
0.000321757
0.000339603
0.000353412
0.000364038
0.000373266
0.000382965
0.00039461
0.000409142
0.000426428
0.000445259
0.000464621
0.000484104
0.000501771
0.000512808
0.000511069
0.000492171
0.000456044
0.00040698
0.00035159
0.000296146
0.000245615
0.000202564
0.000167472
0.00018306
0.000166158
0.000153655
0.000144748
0.000138284
0.000133083
0.000128715
0.000126078
0.000127185
0.00013379
0.000146105
0.000162823
0.000182016
0.000202125
0.000222391
0.000242434
0.000261774
0.000279782
0.000295956
0.000310217
0.000323119
0.000335728
0.000349138
0.00036412
0.000380957
0.000399303
0.000418267
0.000436866
0.000454119
0.000468144
0.000475767
0.000473319
0.000458319
0.000430867
0.000393752
0.000351432
0.000308457
0.000268605
0.000234074
0.00020553
0.000223579
0.000210298
0.000199626
0.000190673
0.000182553
0.000174608
0.00016687
0.000160163
0.000155838
0.000155063
0.000158207
0.000164809
0.000174021
0.000185028
0.000197382
0.000210815
0.000225024
0.000239644
0.000254366
0.000269111
0.00028412
0.00029988
0.000316848
0.000335218
0.000354797
0.000374984
0.00039486
0.000413382
0.000429361
0.000441213
0.00044687
0.000444253
0.000432166
0.000411013
0.000382868
0.000350927
0.000318467
0.000288337
0.000262233
0.000240658
0.000261582
0.000252967
0.000245042
0.000236785
0.000227437
0.000216662
0.000204828
0.000192873
0.000182034
0.000173412
0.000167635
0.000164812
0.000164809
0.000167291
0.000172146
0.000179317
0.000188737
0.000200288
0.000213796
0.000229122
0.000246213
0.000265079
0.000285678
0.000307751
0.00033071
0.000353645
0.000375433
0.000394866
0.0004107
0.000421612
0.000426268
0.000423602
0.0004133
0.000396163
0.000374097
0.000349743
0.00032582
0.000304305
0.000286447
0.000272364
-0.00339453
0.000502519
0.00371177
0.00134988
-0.00402276
-0.00149633
0.0049831
0.00351741
-0.00234153
-0.0012517
-0.00232627
0.00101662
0.00332276
-0.00186399
0.000852783
-0.00216991
-0.00394443
0.00196183
-0.00254054
0.00307857
0.00137165
0.010227
0.00524808
0.00799065
-0.00299313
-0.00245946
0.00529627
0.00213464
0.00160636
0.00207071
-0.00236312
-0.00363348
0.000486867
-0.000881235
-0.00463807
-0.00324878
-0.00133309
-0.00122912
-0.00324938
-0.00122945
-0.0137071
-0.00862879
-0.00564495
-0.00815414
-0.0172036
-0.0113559
-0.00312754
-0.0065434
-0.009335
-0.0119772
-0.00993537
-0.00938709
-0.00226576
-0.0153226
-0.0138013
-0.00884915
-0.0168454
-0.00468168
-0.0127727
-0.0113658
-0.00654377
-0.00183793
-0.00396459
-0.00404363
-0.0112571
-0.0122979
-0.00493591
-0.00567242
-0.0127062
-0.00821256
-0.0103905
-0.0143558
-0.00869333
-0.0126283
-0.0134045
-0.0143655
-0.0154004
-0.00851423
-0.0207916
-0.0103076
-0.0148192
-0.00925464
-0.00603982
-0.00346813
-0.011562
-0.00667507
0.0011445
-0.00248944
-0.00279432
-0.018538
-0.0123376
-0.00356356
0.00234287
-0.00376655
-0.0136896
-0.00837804
-0.0142343
-0.00594844
-0.00676122
-0.0126329
-0.00287873
0.00180492
0.00157278
-0.00649597
-0.00629964
-0.00629175
-0.00423698
-0.00136778
-0.00984076
-0.00979977
-0.00832547
-0.0119839
-0.00218129
-0.00673373
-0.00839294
-0.0113898
-0.0125936
-0.00492181
-0.0178996
-0.0129343
-0.0137249
-0.00780606
-0.00673932
-0.00300525
-0.00464368
-0.00293185
0.00154168
0.00157629
-0.00261276
-0.0193972
-0.0144393
-0.00111516
-0.00485453
0.00123556
-0.007584
-0.00941256
-0.00674818
-0.00884963
-0.00721058
-0.00990686
-0.0062345
0.00779364
0.00388338
-0.00479594
-0.010121
-0.00273347
-0.00529918
-0.000741658
-0.00491051
-0.00532587
-0.00734874
-0.00689793
0.000949626
-0.0030886
-0.00461444
-0.00551702
-0.00502196
-0.00684831
-0.00714465
-0.013349
-0.00800716
-0.00340073
-0.00114262
-0.00140699
-0.00645749
-0.00294302
0.0017519
0.0015326
-0.00242946
-0.0100184
-0.00622543
-0.00231349
-0.00784028
-0.00505811
-0.00294837
-0.00483771
-0.00207012
-0.00222226
-0.00707353
-0.00285907
-0.0073277
0.00921757
0.00346247
0.000960179
-0.0119485
-0.00204213
-0.00263413
0.000751029
-0.00180348
0.000582975
-0.00466616
-0.00376839
0.000179707
-0.00175301
-0.00425416
-0.00231719
-0.00268578
-0.00595336
-0.0060459
-0.0037733
-0.00650134
-0.00477709
0.000811949
-0.00125918
-0.00726341
-0.00390178
0.00181971
0.000653323
-0.000938714
-0.0081621
-0.00310378
0.000501254
-0.00296448
-0.00341485
-0.00365209
-0.00257141
-0.0055155
-0.000340516
-0.00408283
-7.28209e-05
-0.00198773
0.00456597
0.00249715
0.00294586
-0.00627348
-0.0021803
-0.00379428
0.000569231
-0.00338994
0.00112255
-0.00456283
-0.0036827
-0.0010163
-0.000457864
-0.00500683
-0.00377124
-0.00255784
-0.00400572
-0.00714599
-0.000235125
-0.00503837
-0.0053073
-0.000572394
-0.00072608
-0.00719125
-0.00583234
0.000560688
0.00195288
-0.00129966
-0.00536414
-0.00630037
-0.00138817
-0.00168838
-0.00252893
-0.00307427
-0.00447079
-0.0116215
-0.00230151
-0.00626073
-0.000965725
0.000172587
0.002388
0.00249467
0.00404409
-0.00500709
-0.00317206
-0.00434507
-0.000178936
-0.00216256
0.000227688
-0.00235467
-0.00425993
-0.000557872
-0.00103326
-0.00333108
-0.00333822
-0.00137318
-0.0029135
-0.00519738
-0.00306018
-0.00417032
-0.00316267
-0.00244515
0.00180087
-0.00844147
-0.00539812
-0.00191188
0.000693584
-0.00159509
-0.00387064
-0.00746089
-0.00217232
-0.00012524
-0.00487624
-0.00292753
-0.00408434
-0.0109763
-0.00300305
-0.00940347
-0.00324057
0.000269854
0.00108653
0.00252354
0.00310954
-0.0059622
-0.00633157
-0.00211214
-8.01619e-06
-0.00139148
-0.00170613
0.000485552
-0.00502791
-0.00114172
-0.0039885
-0.00376149
-0.0028795
-0.0024383
-0.00152419
-0.0056307
-0.00549681
-0.00515213
-0.0037439
-0.00316713
-5.49941e-05
-0.00671367
-0.00506984
-0.00147831
-4.40544e-05
-0.000320885
-0.00642377
-0.00562217
-0.000282689
0.00139841
-0.00377072
-0.00350214
-0.00220783
-0.00465627
-0.00225962
-0.00726196
-0.00278571
0.00019017
0.00235259
0.00165058
0.00152297
-0.00292079
-0.00469301
0.000241472
4.67687e-05
-0.00330044
-0.00200429
-0.000313925
-0.00478562
-0.00112912
-0.00431689
-0.00544925
-0.00264754
-0.00438868
-0.00247162
-0.00591108
-0.0037571
-0.0031873
-0.00198756
-0.000790568
-0.000443512
-0.00290198
-0.00198568
0.000457675
0.000201426
0.000263709
-0.00572261
-0.00157916
0.000493572
0.000415234
-0.00175748
-0.00208223
-0.00114173
-0.00172857
-0.00119905
-0.00356249
0.000239186
0.000887561
0.00358027
0.00191714
0.00120165
-0.00135555
-0.000867241
0.000617129
-0.000377309
-0.00192323
-0.000707077
-0.00038134
-0.00263893
-2.66238e-05
-0.00149599
-0.00146741
-0.00227891
-0.00373561
-0.00254882
-0.00430906
-0.0018656
-0.00187007
-0.00108277
0.000498793
8.993e-06
-0.00177978
-0.000832582
0.00211211
0.000917443
0.000285151
-0.00335894
-0.00141649
0.000528058
0.00111468
-0.00047101
8.68898e-05
-0.000461186
-0.00124203
-0.00048548
-0.00127012
0.00111488
0.00187072
0.00311955
0.00262643
0.00234076
-0.000648085
-0.000160894
0.00113178
0.00010493
-0.000605381
0.000239994
0.000620387
-8.25185e-06
0.000564734
0.000254041
0.000526664
-0.00121801
-0.00067644
-0.000767231
-0.00212541
-0.000427225
-0.00148717
-0.000757139
6.24474e-05
0.000350041
-0.00140484
-0.000392704
0.00204472
0.000974483
0.000175698
-0.00213571
-0.00140984
0.000623849
0.0011264
4.18318e-05
0.000353707
8.84485e-05
-0.000476301
9.56529e-05
-0.000105451
0.00178294
0.00210087
0.00286086
0.00263668
0.00227831
-0.000404835
-3.62612e-05
0.00152408
0.000621867
0.000156726
0.000786594
0.0010279
0.000801488
0.00105232
0.000355258
-0.000152123
-0.000662332
-3.61525e-05
-0.000464367
-0.00122398
-0.000170896
-0.00119363
-0.000635901
-0.000144411
0.000141356
-0.00112078
-0.000251536
0.00166549
0.000737049
-0.000124844
-0.00170482
-0.00115479
0.000620389
0.00097015
0.00023363
0.000439251
0.000384243
0.000172933
0.000359376
0.0005758
0.00191076
0.00209876
0.00254758
0.00237761
0.00178358
-0.000118303
0.000303265
0.00175529
0.00075241
0.000420449
0.000662508
0.00100948
0.00108679
0.00114832
0.000428855
-0.000131113
-0.000451773
-0.000217655
-0.000708976
-0.000782746
-0.000238243
-0.000963327
-0.00064017
-0.000306334
-9.33582e-05
-0.000912361
-0.000144722
0.00130424
0.000522048
-0.000346199
-0.00139338
-0.000932597
0.000413116
0.000811986
0.000320932
0.000496876
0.000491288
0.000505908
0.00054108
0.000908146
0.00176776
0.00194591
0.00220341
0.00205258
0.00140939
4.31807e-05
0.000524078
0.00166395
0.000818263
0.00053948
0.000718747
0.00109479
0.0012874
0.00119408
0.000483019
-0.000108679
-0.000322465
-0.000313774
-0.000653889
-0.000506248
-0.000258192
-0.000799619
-0.000662055
-0.000404471
-0.000224399
-0.000737971
-8.01935e-05
0.000981386
0.000339323
-0.000452484
-0.00115642
-0.000746992
0.000304645
0.000689852
0.000390281
0.000540417
0.000624917
0.000713721
0.000679828
0.00104064
0.00161104
0.00175551
0.00190086
0.00177246
0.00116478
0.000197392
0.000640323
0.00150869
0.000865989
0.000614744
0.000796019
0.001154
0.00137205
0.00123854
0.000554188
-4.25448e-05
-0.000224757
-0.000283414
-0.00057054
-0.000354927
-0.000259386
-0.000678235
-0.000648095
-0.000454316
-0.000287796
-0.000597847
-5.1792e-05
0.000699888
0.000183882
-0.000490849
-0.000954444
-0.000588018
0.000238414
0.000598115
0.000447525
0.000581826
0.00071522
0.000828945
0.000776872
0.00106669
0.00148467
0.00157215
0.00164445
0.00153487
0.00101235
0.000336603
0.000713905
0.00135405
0.000889381
0.000676786
0.000849272
0.00118313
0.00139666
0.00125047
0.000636483
7.37872e-05
-0.000140333
-0.000245618
-0.000481727
-0.000270312
-0.000250577
-0.000585191
-0.000611986
-0.000475575
-0.000320704
-0.000488551
-4.88555e-05
0.000466063
5.77476e-05
-0.000487154
-0.000780465
-0.000453997
0.000199498
0.000529104
0.000485824
0.000610123
0.00076268
0.000878363
0.000835003
0.00103759
0.00134739
0.00140849
0.00143075
0.00133568
0.000914968
0.000451691
0.000754575
0.00121549
0.000890647
0.000719634
0.000878614
0.00118171
0.00138459
0.00123369
0.000709216
0.000186514
-5.74369e-05
-0.000199986
-0.000394444
-0.000233547
-0.000255268
-0.000510083
-0.000562582
-0.000465326
-0.000335404
-0.000405056
-6.06958e-05
0.000279427
-3.79461e-05
-0.000458994
-0.000630465
-0.000341658
0.000172538
0.000475352
0.000510152
0.000624616
0.000774488
0.00088258
0.000859703
0.000998417
0.00122513
0.00126479
0.00125318
0.00117024
0.000847805
0.000538338
0.000770685
0.00109473
0.000874258
0.000742037
0.000888061
0.00115445
0.00132978
0.00119322
0.000751072
0.000277892
1.6737e-05
-0.00014888
-0.000313221
-0.000214672
-0.000259741
-0.000445158
-0.000504902
-0.000437937
-0.000333732
-0.000341349
-7.93469e-05
0.000137017
-0.000103616
-0.000418243
-0.000500975
-0.000247685
0.000164126
0.000431156
0.000508569
0.000618134
0.000758591
0.000866199
0.000854741
0.000964926
0.0011161
0.00113825
0.00110914
0.00103364
0.000796255
0.000595162
0.000767811
0.000988183
0.000845579
0.000754201
0.000881357
0.00110806
0.00125351
0.00113415
0.000762273
0.000346277
8.18132e-05
-9.53313e-05
-0.000239538
-0.000197326
-0.000255343
-0.000385191
-0.000443106
-0.000398994
-0.000324648
-0.00029167
-9.82209e-05
3.44617e-05
-0.000141737
-0.000362381
-0.000389177
-0.00016957
0.000160854
0.000392839
0.000491727
0.000595818
0.000722818
0.000817889
0.000827023
0.000911197
0.00101605
0.0010261
0.000993984
0.00092234
0.000752506
0.000629612
0.000750721
0.000895266
0.000808977
0.000753655
0.000861789
0.00104894
0.00116512
0.00106251
0.00075304
0.000394133
0.000138146
-4.13845e-05
-0.000173218
-0.000175703
-0.000240565
-0.000326954
-0.000378318
-0.000351874
-0.000295974
-0.000250419
-0.000112115
-3.33056e-05
-0.000156452
-0.000301993
-0.000292962
-0.000105147
0.000159685
0.00035854
0.000464606
0.000562083
0.000671742
0.000755292
0.000783302
0.00085112
0.000923084
0.000925665
0.000894469
0.000834028
0.000716321
0.000646058
0.000723536
0.000816094
0.000767826
0.000740561
0.000832065
0.00098198
0.00107078
0.000983873
0.000729705
0.000424788
0.00018606
1.08643e-05
-0.000113224
-0.000147899
-0.000215631
-0.000268828
-0.000312782
-0.000299476
-0.000258901
-0.000213286
-0.000117754
-7.21025e-05
-0.000156402
-0.00024065
-0.000210528
-5.22662e-05
0.00015926
0.000327455
0.000431635
0.000521756
0.000615965
0.000690345
0.000729999
0.000786352
0.000835917
0.000834885
0.000807147
0.000758721
0.000680118
0.000638945
0.000689439
0.000747767
0.00072459
0.000717917
0.000794569
0.000911214
0.000975891
0.000902827
0.000696786
0.000441464
0.000225856
5.99129e-05
-5.82785e-05
-0.000113868
-0.000181751
-0.000210241
-0.000247558
-0.000243866
-0.000215945
-0.000176939
-0.000113245
-8.97675e-05
-0.000139089
-0.000181541
-0.000140228
-8.90665e-06
0.000159107
0.000299468
0.00039638
0.000478541
0.000559711
0.000626428
0.000671215
0.000718887
0.000753973
0.000752175
0.000729471
0.000692652
0.000641796
0.000618798
0.000651306
0.000688147
0.000681074
0.000688133
0.000751548
0.000839778
0.000884316
0.00082309
0.000658153
0.000449478
0.000258029
0.000104968
-7.24555e-06
-7.44888e-05
-0.000140605
-0.000151249
-0.000183023
-0.000186481
-0.000168962
-0.000139251
-9.82198e-05
-8.4974e-05
-0.000110609
-0.000125553
-8.04301e-05
2.67728e-05
0.000159222
0.000274734
0.000361446
0.00043512
0.000505231
0.000564935
0.000610132
0.000650875
0.000677092
0.000676395
0.000659528
0.000633297
0.000601887
0.000590227
0.000611392
0.000635564
0.000638465
0.00065357
0.000705232
0.000770106
0.00079868
0.000747462
0.000616795
0.000447402
0.000283103
0.000145505
4.05609e-05
-3.11712e-05
-9.40945e-05
-9.23248e-05
-0.00011916
-0.000128417
-0.000119383
-9.91317e-05
-7.36312e-05
-6.49472e-05
-7.52843e-05
-7.35223e-05
-2.96e-05
5.63519e-05
0.00015972
0.000253342
0.000328507
0.000393309
0.000453742
0.000506602
0.000549205
0.000584239
0.000605291
0.000606735
0.000595899
0.000578963
0.000561155
0.000556755
0.000571433
0.000588743
0.000597507
0.000616381
0.000657724
0.000704063
0.000720641
0.000677895
0.000575276
0.000439579
0.000301881
0.000181311
8.53652e-05
1.43915e-05
-4.42676e-05
-3.43624e-05
-5.6112e-05
-7.06844e-05
-6.83438e-05
-5.63684e-05
-4.13331e-05
-3.49977e-05
-3.61661e-05
-2.57685e-05
1.36334e-05
8.10275e-05
0.000160584
0.000235132
0.000298429
0.000354171
0.000405789
0.000451807
0.000490172
0.000520431
0.000538635
0.000542686
0.00053764
0.000528652
0.000520476
0.000521043
0.000532626
0.000546726
0.000558748
0.000578458
0.00061089
0.000643007
0.0006511
0.000615628
0.000535696
0.000428435
0.000315465
0.000212431
0.000126998
6.04024e-05
6.8238e-06
2.10498e-05
-9.82819e-07
-1.48304e-05
-1.68816e-05
-1.14052e-05
-3.46018e-06
1.12864e-06
4.41908e-06
1.76511e-05
5.04621e-05
0.000101733
0.000161704
0.00021974
0.000271466
0.000318148
0.000361482
0.000400697
0.000434131
0.000460384
0.00047712
0.000483869
0.000484111
0.000481817
0.000480687
0.00048503
0.000495763
0.000508848
0.000522559
0.000541377
0.000566324
0.000587906
0.000590432
0.000561304
0.000499576
0.000415911
0.000325045
0.000239112
0.00016514
0.000105239
5.72714e-05
7.39844e-05
5.27462e-05
3.94506e-05
3.44021e-05
3.49958e-05
3.79139e-05
4.05383e-05
4.47319e-05
5.68402e-05
8.19575e-05
0.00011924
0.000162881
0.000206681
0.000247414
0.000285185
0.000320634
0.000353227
0.000381659
0.000404553
0.000420578
0.000429875
0.000434773
0.000438098
0.000442423
0.000450047
0.000461391
0.00047466
0.000489183
0.000506361
0.000525354
0.000539483
0.000538686
0.000515056
0.000467781
0.000403374
0.000331743
0.00026174
0.000199548
0.000147675
0.000105808
0.000124232
0.000104886
9.20507e-05
8.49957e-05
8.19719e-05
8.10082e-05
8.1082e-05
8.36018e-05
9.20546e-05
0.00010907
0.000134169
0.000164115
0.000195361
0.000225741
0.000254867
0.000282812
0.000309129
0.000332847
0.000352926
0.000368623
0.0003802
0.000389128
0.000397237
0.000406122
0.000416936
0.00042984
0.00044401
0.000458878
0.000474396
0.000489019
0.000498189
0.000495663
0.000476669
0.000440674
0.000391676
0.00033623
0.000280721
0.000230104
0.00018688
0.000151531
0.000171415
0.000154791
0.000142798
0.000134545
0.000128824
0.000124521
0.00012137
0.000120422
0.000123648
0.000132496
0.000146782
0.000164915
0.000184995
0.000205679
0.000226516
0.000247358
0.000267839
0.0002873
0.000305039
0.000320629