/*--------------------------------*- C++ -*----------------------------------*\
  =========                 |
  \\      /  F ield         | OpenFOAM: The Open Source CFD Toolbox
   \\    /   O peration     | Website:  https://openfoam.org
    \\  /    A nd           | Version:  10
     \\/     M anipulation  |
\*---------------------------------------------------------------------------*/
FoamFile
{
    format      ascii;
    class       volScalarField;
    location    "0.02";
    object      pPrime2Mean;
}
// * * * * * * * * * * * * * * * * * * * * * * * * * * * * * * * * * * * * * //

dimensions      [0 4 -4 0 0 0 0];

internalField   nonuniform List<scalar> 
102400
(
3.80811e-06
2.41458e-05
1.85282e-06
4.49296e-05
1.38135e-06
2.64806e-07
8.24061e-05
4.02882e-05
1.87755e-05
1.36891e-05
1.73788e-05
6.56621e-06
9.68486e-06
2.47247e-07
1.18886e-05
2.81331e-06
4.29784e-05
9.63184e-06
2.72176e-05
2.23794e-06
1.46513e-05
5.43617e-05
8.31284e-05
9.06501e-05
1.03712e-05
1.40854e-06
0.000179371
1.52473e-05
1.88903e-06
2.16786e-05
1.6196e-05
1.36107e-05
3.25681e-07
1.04273e-06
5.06392e-07
4.86103e-06
1.53442e-05
1.4615e-06
6.64975e-05
6.69805e-08
6.03255e-07
5.25961e-06
1.33391e-06
1.6605e-05
2.82729e-06
4.50702e-06
4.22746e-05
1.36366e-05
2.77907e-06
4.49343e-05
4.98617e-05
2.89183e-05
6.42672e-07
6.55301e-06
4.67828e-05
2.14037e-05
1.80519e-05
5.23419e-07
3.34818e-06
1.80297e-05
1.24444e-06
2.23169e-05
3.77511e-05
3.86107e-05
5.67776e-09
2.77189e-06
0.000116554
9.65584e-07
1.64885e-05
1.50449e-06
2.02782e-06
1.09778e-06
3.3196e-06
1.63735e-05
3.80158e-06
3.61839e-07
1.64131e-06
1.6964e-05
0.000127549
9.97927e-06
1.35477e-07
1.61304e-05
1.13292e-06
3.25341e-05
6.94046e-08
2.35575e-10
6.78233e-05
2.29054e-05
1.83782e-05
3.06309e-05
3.28375e-05
1.3576e-05
4.42919e-06
1.00519e-07
2.95695e-05
7.49099e-06
3.86982e-05
4.14714e-06
1.24508e-05
1.16456e-05
7.09881e-06
4.15386e-05
5.9137e-05
6.57676e-05
1.53508e-06
2.20119e-08
0.000162663
5.08007e-06
2.22637e-06
6.64868e-06
7.69504e-06
8.22299e-06
5.86688e-07
7.96992e-06
6.83495e-08
9.03314e-07
1.0323e-05
4.69345e-06
7.9579e-05
4.1138e-06
1.78154e-06
2.82084e-05
1.3906e-06
3.44897e-05
1.00479e-07
1.82212e-07
7.79591e-05
2.80712e-05
2.78592e-05
2.63738e-05
2.42725e-05
4.62576e-06
1.09461e-05
5.64374e-08
2.43243e-05
2.84699e-06
4.09341e-05
5.20799e-06
2.24958e-05
7.32125e-06
1.09968e-05
5.00202e-05
7.36069e-05
9.17862e-05
5.32779e-06
6.93941e-08
0.000205964
9.74899e-06
4.81412e-06
1.40078e-05
7.94294e-06
1.74569e-05
3.2482e-09
8.92989e-06
8.74837e-07
2.51295e-06
1.10016e-05
2.17905e-06
5.39353e-05
8.61134e-07
6.30552e-06
3.53691e-05
7.53211e-07
3.87356e-05
2.77126e-07
2.76979e-07
8.10365e-05
4.13907e-05
2.43999e-05
2.42133e-05
1.79457e-05
2.22229e-06
2.23473e-05
1.17102e-06
2.64664e-05
2.1638e-06
3.78347e-05
5.32782e-06
1.81528e-05
2.17498e-06
9.17794e-06
6.09297e-05
6.47628e-05
8.90002e-05
4.76399e-06
3.04398e-07
0.000233189
1.20185e-05
8.45326e-06
1.03989e-05
7.75003e-06
2.85995e-05
3.06962e-06
1.05867e-05
4.26227e-06
2.30795e-06
5.241e-06
3.71984e-06
3.18989e-05
3.82737e-08
3.63238e-06
2.87053e-05
2.14134e-06
3.52944e-05
1.4065e-07
1.37337e-06
7.15101e-05
3.18536e-05
1.82089e-05
2.75997e-05
1.6818e-05
1.96955e-06
1.98585e-05
1.5557e-06
3.2226e-05
1.14005e-06
2.27399e-05
1.73896e-06
1.53474e-05
6.73094e-06
1.74303e-05
9.38447e-05
5.18781e-05
9.41078e-05
8.85293e-07
1.56518e-06
0.000203991
1.05204e-05
2.73698e-06
7.05071e-06
4.44702e-06
4.57816e-05
5.20361e-06
1.65892e-05
3.82821e-06
4.61109e-07
3.51498e-06
4.13554e-06
1.24677e-05
9.50675e-07
4.40484e-08
1.81327e-05
2.55751e-07
2.8121e-05
2.0311e-06
4.97546e-07
5.04984e-05
1.45106e-05
1.15336e-05
2.2282e-05
2.23551e-05
1.55014e-08
1.44229e-05
3.87505e-06
2.27628e-05
4.21927e-08
5.56697e-06
1.39328e-06
1.63503e-05
1.03004e-05
3.56772e-05
0.000101307
3.63253e-05
8.24989e-05
1.15244e-07
3.17096e-06
0.000154752
7.35035e-06
2.35991e-06
4.49556e-06
7.56947e-07
6.67679e-05
4.58656e-06
2.43186e-05
1.35193e-06
1.68614e-08
2.8458e-06
2.62173e-06
4.25929e-06
5.7579e-06
2.5203e-09
7.21239e-06
4.32192e-08
1.89906e-05
7.0124e-06
2.50647e-07
3.80407e-05
1.75871e-05
9.3843e-06
1.38878e-05
1.84427e-05
2.64197e-08
1.82316e-05
5.35919e-06
1.58635e-05
1.30426e-06
6.9133e-07
1.96606e-06
1.01501e-05
4.86951e-06
3.1476e-05
7.52749e-05
2.35994e-05
5.36187e-05
5.91606e-08
2.79212e-06
0.00011319
4.83934e-06
4.93327e-06
8.23649e-07
1.65019e-06
8.92648e-05
2.99244e-06
1.83594e-05
9.0239e-10
3.53694e-08
1.95869e-06
1.44927e-06
3.61569e-06
1.36996e-05
2.37224e-06
8.83128e-06
5.60198e-07
3.30141e-06
7.16428e-06
3.05125e-06
4.02381e-05
2.13422e-05
4.93859e-06
1.62515e-05
7.02983e-06
3.86226e-07
1.082e-05
1.32142e-06
8.29216e-06
6.19707e-07
3.69743e-06
3.55477e-07
9.78233e-06
2.07909e-06
2.81274e-05
5.36943e-05
3.58908e-05
3.2288e-05
1.94291e-07
2.07492e-06
7.86977e-05
6.55428e-06
2.73592e-06
2.72742e-07
6.60248e-06
8.24137e-05
4.00261e-06
8.16277e-06
4.87005e-07
1.63906e-07
2.05109e-06
2.45294e-07
2.31094e-06
9.76606e-06
7.43708e-07
1.18486e-05
1.35406e-07
4.88698e-07
3.31873e-06
3.73076e-06
2.9741e-05
1.17755e-05
1.52056e-06
1.31849e-05
6.58896e-06
6.5765e-07
4.24358e-06
6.47089e-07
1.85283e-06
1.77046e-06
3.12289e-07
7.71125e-07
8.45741e-06
3.75017e-07
2.56428e-05
4.08017e-05
3.64464e-05
2.29564e-05
5.11917e-08
1.41822e-06
4.75259e-05
5.87995e-06
1.37073e-06
1.92791e-06
9.31753e-06
5.26623e-05
8.06714e-06
3.50377e-06
2.74855e-07
4.44888e-07
3.03299e-06
2.27921e-08
8.82499e-08
3.69971e-06
4.43044e-09
6.32936e-06
4.30399e-08
6.41388e-07
1.84016e-06
1.90457e-06
2.11385e-05
8.07995e-06
5.38861e-07
9.03859e-06
9.51409e-06
4.52859e-07
2.66729e-06
8.37228e-08
2.18333e-07
3.47119e-06
5.64391e-07
1.31597e-06
3.06283e-06
8.44229e-09
1.76836e-05
3.24603e-05
2.17345e-05
1.73368e-05
1.76777e-08
7.26344e-07
2.60587e-05
5.03633e-06
3.52674e-07
4.07909e-06
9.56154e-06
3.83641e-05
8.88194e-06
7.05321e-07
3.15133e-09
7.07948e-08
2.32648e-06
3.45628e-08
2.60318e-08
1.79246e-06
1.27108e-09
2.67169e-06
6.69783e-09
4.08812e-07
1.29823e-06
5.66061e-07
1.46089e-05
5.53644e-06
2.71535e-08
8.08592e-06
7.65905e-06
6.71174e-07
1.68673e-06
2.1232e-11
4.34721e-09
2.62831e-06
1.1457e-06
1.40432e-06
1.58028e-06
1.43335e-07
1.16176e-05
2.29201e-05
1.71636e-05
1.18901e-05
3.98632e-08
9.55548e-07
1.57734e-05
4.66395e-06
1.00657e-09
2.98261e-06
9.2873e-06
2.68924e-05
8.15441e-06
4.00975e-08
2.20278e-09
2.07219e-08
7.39532e-07
1.00244e-07
3.15657e-07
8.94971e-07
2.02294e-08
9.58389e-07
6.0823e-09
1.20673e-07
9.08303e-07
2.25736e-07
9.43046e-06
3.36149e-06
7.48895e-08
6.75077e-06
5.97661e-06
7.73864e-07
9.93703e-07
6.6847e-08
2.3622e-07
2.32645e-06
1.77869e-06
1.37491e-06
9.76747e-07
3.82738e-07
7.84497e-06
1.59175e-05
1.3257e-05
7.76071e-06
8.5132e-08
1.00147e-06
9.89429e-06
3.88435e-06
1.59898e-07
3.1235e-06
8.67148e-06
1.92293e-05
7.61849e-06
1.14521e-07
2.91864e-09
2.02839e-08
3.60716e-07
1.07286e-07
3.16399e-07
4.06155e-07
6.04762e-08
2.27908e-07
3.62469e-08
5.42185e-08
6.0161e-07
7.94736e-08
5.65523e-06
1.88883e-06
2.39279e-07
5.28769e-06
4.51474e-06
6.53921e-07
6.44274e-07
2.22055e-07
5.62197e-07
2.262e-06
2.16321e-06
1.39299e-06
7.46298e-07
7.87591e-07
5.74497e-06
1.10014e-05
9.89167e-06
5.41003e-06
1.80352e-07
9.54096e-07
6.71883e-06
3.46101e-06
4.96885e-07
3.25298e-06
7.81625e-06
1.45955e-05
7.10592e-06
6.02849e-07
4.74608e-08
1.34912e-09
2.31012e-07
9.15701e-08
2.40407e-07
1.84509e-07
7.29923e-08
1.66162e-08
7.92396e-08
7.17693e-09
4.05007e-07
2.76902e-08
3.17736e-06
9.44517e-07
3.75445e-07
3.95913e-06
3.24852e-06
4.86327e-07
4.47624e-07
3.72202e-07
8.03022e-07
2.14251e-06
2.2729e-06
1.41368e-06
7.72132e-07
1.15828e-06
4.4772e-06
7.69527e-06
7.27494e-06
3.92631e-06
3.29159e-07
1.01419e-06
4.86811e-06
3.07335e-06
8.76988e-07
3.20894e-06
6.93706e-06
1.14094e-05
6.51931e-06
1.1428e-06
1.4113e-07
3.75706e-09
1.38581e-07
6.94184e-08
1.58713e-07
9.10426e-08
8.00727e-08
1.12667e-08
1.23196e-07
3.77048e-09
2.79161e-07
8.32927e-09
1.64676e-06
4.02442e-07
4.46036e-07
2.8628e-06
2.23897e-06
3.17684e-07
3.33408e-07
4.77347e-07
9.26873e-07
1.97124e-06
2.21168e-06
1.43068e-06
9.178e-07
1.42857e-06
3.60976e-06
5.47045e-06
5.31742e-06
2.94541e-06
4.91468e-07
1.08514e-06
3.7037e-06
2.72309e-06
1.20306e-06
3.07003e-06
6.05545e-06
9.07482e-06
5.86718e-06
1.55512e-06
2.63043e-07
2.40003e-08
8.30708e-08
4.71668e-08
9.87369e-08
5.3662e-08
8.36661e-08
6.26219e-08
1.56389e-07
3.187e-08
1.98938e-07
1.4744e-09
7.71804e-07
1.31998e-07
4.52316e-07
1.99883e-06
1.47249e-06
1.8212e-07
2.64523e-07
5.29382e-07
9.56326e-07
1.76571e-06
2.03572e-06
1.42876e-06
1.08322e-06
1.57697e-06
2.96606e-06
3.97855e-06
3.90055e-06
2.28374e-06
6.40641e-07
1.13391e-06
2.92171e-06
2.40881e-06
1.43157e-06
2.87382e-06
5.21606e-06
7.29603e-06
5.17894e-06
1.78843e-06
3.84904e-07
5.7479e-08
5.30503e-08
2.86168e-08
6.05575e-08
3.84081e-08
8.37613e-08
1.06527e-07
1.72026e-07
6.6302e-08
1.47093e-07
2.02258e-11
3.15093e-07
2.43207e-08
4.10714e-07
1.34363e-06
9.18901e-07
8.90187e-08
2.20806e-07
5.41932e-07
9.25608e-07
1.54423e-06
1.80586e-06
1.40375e-06
1.19992e-06
1.61589e-06
2.46377e-06
2.97217e-06
2.89808e-06
1.82723e-06
7.57179e-07
1.15261e-06
2.36725e-06
2.12666e-06
1.55408e-06
2.64569e-06
4.44556e-06
5.89304e-06
4.4859e-06
1.87152e-06
4.91013e-07
9.55879e-08
3.91987e-08
1.48658e-08
3.74752e-08
3.20125e-08
7.93019e-08
1.2531e-07
1.69705e-07
9.0195e-08
1.12318e-07
1.90256e-09
1.02983e-07
7.47826e-11
3.39579e-07
8.651e-07
5.39209e-07
3.401e-08
1.90875e-07
5.12548e-07
8.49209e-07
1.32294e-06
1.56385e-06
1.34362e-06
1.25021e-06
1.57473e-06
2.06037e-06
2.28378e-06
2.19722e-06
1.5046e-06
8.33591e-07
1.14053e-06
1.95749e-06
1.87386e-06
1.58684e-06
2.40182e-06
3.75596e-06
4.76287e-06
3.8179e-06
1.84485e-06
5.71071e-07
1.33659e-07
3.48766e-08
5.77691e-09
2.31497e-08
2.85627e-08
7.01922e-08
1.23301e-07
1.52122e-07
9.78983e-08
8.72646e-08
6.02232e-09
2.15335e-08
7.44803e-09
2.58835e-07
5.29268e-07
2.92929e-07
7.70633e-09
1.68662e-07
4.60292e-07
7.49751e-07
1.11356e-06
1.33002e-06
1.24397e-06
1.23418e-06
1.46644e-06
1.72969e-06
1.8021e-06
1.70792e-06
1.26912e-06
8.69033e-07
1.09943e-06
1.64298e-06
1.64728e-06
1.54431e-06
2.15333e-06
3.15073e-06
3.84307e-06
3.19804e-06
1.72312e-06
6.21064e-07
1.69456e-07
3.80327e-08
9.45067e-10
1.3488e-08
2.49567e-08
5.67792e-08
1.02986e-07
1.24367e-07
9.04476e-08
6.72678e-08
1.03798e-08
8.7925e-10
1.91964e-08
1.82141e-07
3.03588e-07
1.43135e-07
7.46309e-11
1.51089e-07
4.00482e-07
6.43792e-07
9.24652e-07
1.11518e-06
1.12196e-06
1.16247e-06
1.32252e-06
1.45408e-06
1.45362e-06
1.36298e-06
1.0909e-06
8.66455e-07
1.03556e-06
1.3928e-06
1.4445e-06
1.45091e-06
1.90827e-06
2.6272e-06
3.0929e-06
2.6437e-06
1.55578e-06
6.41444e-07
2.0164e-07
4.68963e-08
2.21238e-10
6.48289e-09
1.96953e-08
4.06083e-08
7.57883e-08
9.1968e-08
7.23986e-08
4.97057e-08
1.2913e-08
1.58394e-09
2.43966e-08
1.17e-07
1.59363e-07
5.91785e-08
2.98652e-09
1.36651e-07
3.4176e-07
5.43589e-07
7.62085e-07
9.27392e-07
9.87595e-07
1.05303e-06
1.16147e-06
1.22121e-06
1.19194e-06
1.11358e-06
9.49429e-07
8.33308e-07
9.56205e-07
1.19028e-06
1.2636e-06
1.32884e-06
1.67292e-06
2.17987e-06
2.48337e-06
2.16383e-06
1.37064e-06
6.36876e-07
2.29243e-07
6.07212e-08
3.8041e-09
1.74216e-09
1.28165e-08
2.40475e-08
4.78944e-08
5.99677e-08
5.01292e-08
3.35691e-08
1.21307e-08
5.01428e-09
2.21189e-08
6.63496e-08
7.29226e-08
1.76252e-08
1.09327e-08
1.24636e-07
2.88817e-07
4.53621e-07
6.25026e-07
7.66693e-07
8.4995e-07
9.23144e-07
9.9768e-07
1.02254e-06
9.87988e-07
9.26718e-07
8.31605e-07
7.79348e-07
8.68806e-07
1.02408e-06
1.10349e-06
1.194e-06
1.45229e-06
1.80188e-06
1.99168e-06
1.75983e-06
1.18707e-06
6.13603e-07
2.51717e-07
7.89837e-08
1.20897e-08
4.16789e-12
5.74358e-09
1.00186e-08
2.39103e-08
3.24537e-08
2.86689e-08
1.91662e-08
8.45375e-09
5.42618e-09
1.39905e-08
3.06602e-08
2.58994e-08
1.86081e-09
2.0662e-08
1.14684e-07
2.43573e-07
3.75863e-07
5.10848e-07
6.29994e-07
7.16782e-07
7.87401e-07
8.41056e-07
8.52179e-07
8.23762e-07
7.8088e-07
7.29642e-07
7.13289e-07
7.79612e-07
8.85892e-07
9.62692e-07
1.05779e-06
1.25032e-06
1.48604e-06
1.59854e-06
1.42766e-06
1.01713e-06
5.78434e-07
2.68877e-07
1.00489e-07
2.53829e-08
2.60307e-09
8.29753e-10
1.43835e-09
7.0951e-09
1.24349e-08
1.17334e-08
7.73504e-09
3.59878e-09
2.55829e-09
5.50062e-09
9.47411e-09
4.78754e-09
8.55535e-10
3.04862e-08
1.06521e-07
2.06153e-07
3.10455e-07
4.16396e-07
5.14237e-07
5.93693e-07
6.56501e-07
6.97757e-07
7.06025e-07
6.88111e-07
6.62454e-07
6.39106e-07
6.42183e-07
6.93284e-07
7.69692e-07
8.39516e-07
9.27798e-07
1.06977e-06
1.22523e-06
1.28723e-06
1.15994e-06
8.67193e-07
5.37342e-07
2.80801e-07
1.23831e-07
4.36029e-08
1.08433e-08
6.68072e-10
8.31748e-10
3.31395e-11
1.62723e-09
1.84715e-09
1.02411e-09
2.79475e-10
1.37769e-10
4.71553e-10
6.3347e-10
6.10867e-11
7.68194e-09
3.95959e-08
9.98004e-08
1.75679e-07
2.56313e-07
3.38479e-07
4.16653e-07
4.83978e-07
5.37117e-07
5.70956e-07
5.81073e-07
5.74155e-07
5.63212e-07
5.57752e-07
5.71174e-07
6.12734e-07
6.71099e-07
7.32516e-07
8.08751e-07
9.12048e-07
1.01244e-06
1.04305e-06
9.47809e-07
7.39757e-07
4.95133e-07
2.88203e-07
1.47563e-07
6.61213e-08
2.54397e-08
7.30294e-09
9.01954e-09
3.40677e-09
1.05599e-09
6.29458e-10
8.01518e-10
1.22414e-09
1.39365e-09
1.21778e-09
1.67868e-09
5.25203e-09
1.81637e-08
4.76263e-08
9.41399e-08
1.50877e-07
2.11751e-07
2.74169e-07
3.34767e-07
3.8888e-07
4.32446e-07
4.61555e-07
4.74851e-07
4.77522e-07
4.78306e-07
4.84525e-07
5.03625e-07
5.39547e-07
5.87031e-07
6.40194e-07
7.03229e-07
7.77433e-07
8.41065e-07
8.53384e-07
7.82236e-07
6.34704e-07
4.5523e-07
2.92084e-07
1.70482e-07
9.18246e-08
4.6265e-08
2.15863e-08
2.60547e-08
1.63296e-08
1.1089e-08
8.92567e-09
8.42135e-09
8.52207e-09
8.5082e-09
8.55466e-09
1.01923e-08
1.60941e-08
2.99023e-08
5.44476e-08
8.91545e-08
1.30404e-07
1.74918e-07
2.20929e-07
2.66361e-07
3.08172e-07
3.43186e-07
3.68879e-07
3.85034e-07
3.95158e-07
4.04779e-07
4.18849e-07
4.41473e-07
4.74402e-07
5.15303e-07
5.61188e-07
6.12223e-07
6.65279e-07
7.05183e-07
7.07695e-07
6.54726e-07
5.50165e-07
4.19586e-07
2.93644e-07
1.9173e-07
1.19329e-07
7.23377e-08
4.33704e-08
5.16246e-08
3.89465e-08
3.12059e-08
2.68879e-08
2.46452e-08
2.33514e-08
2.24163e-08
2.21751e-08
2.40154e-08
2.98787e-08
4.15827e-08
6.00144e-08
8.44469e-08
1.13016e-07
1.44069e-07
1.76579e-07
2.0936e-07
2.40626e-07
2.684e-07
2.9127e-07
3.09345e-07
3.24754e-07
3.40747e-07
3.60315e-07
3.85621e-07
4.17367e-07
4.5429e-07
4.94361e-07
5.35784e-07
5.74246e-07
5.99462e-07
5.97297e-07
5.5787e-07
4.8354e-07
3.8904e-07
2.93391e-07
2.10761e-07
1.47228e-07
1.02162e-07
7.16733e-08
8.435e-08
7.02935e-08
6.07331e-08
5.42569e-08
4.96752e-08
4.60752e-08
4.31179e-08
4.1212e-08
4.1407e-08
4.48886e-08
5.24498e-08
6.42023e-08
7.95701e-08
9.76433e-08
1.17685e-07
1.39238e-07
1.61766e-07
1.84421e-07
2.06233e-07
2.26559e-07
2.45572e-07
2.64443e-07
2.84903e-07
3.08529e-07
3.36271e-07
3.6813e-07
4.02994e-07
4.38964e-07
4.73545e-07
5.02553e-07
5.19123e-07
5.15173e-07
4.8562e-07
4.3227e-07
3.639e-07
2.92305e-07
2.27294e-07
1.74194e-07
1.33951e-07
1.04826e-07
1.22578e-07
1.09165e-07
9.89874e-08
9.07699e-08
8.35325e-08
7.66932e-08
7.02543e-08
6.4776e-08
6.11348e-08
6.01038e-08
6.20377e-08
6.68319e-08
7.41022e-08
8.34167e-08
9.45183e-08
1.07317e-07
1.21724e-07
1.37536e-07
1.54487e-07
1.72439e-07
1.91587e-07
2.12539e-07
2.36107e-07
2.62937e-07
2.93172e-07
3.26232e-07
3.60732e-07
3.94587e-07
4.25049e-07
4.48477e-07
4.60273e-07
4.55939e-07
4.33239e-07
3.9399e-07
3.43949e-07
2.90732e-07
2.41011e-07
1.98941e-07
1.65815e-07
1.40881e-07
1.64786e-07
1.54742e-07
1.45866e-07
1.36818e-07
1.26782e-07
1.15592e-07
1.03794e-07
9.24036e-08
8.25259e-08
7.49722e-08
7.00703e-08
6.77335e-08
6.77021e-08
6.97017e-08
7.3639e-08
7.95779e-08
8.76766e-08
9.81182e-08
1.11076e-07
1.26749e-07
1.45406e-07
1.67413e-07
1.93135e-07
2.22709e-07
2.55762e-07
2.91199e-07
3.27157e-07
3.61125e-07
3.90139e-07
4.10946e-07
4.20341e-07
4.15929e-07
3.97256e-07
3.66539e-07
3.28336e-07
2.88214e-07
2.51068e-07
2.19881e-07
1.95686e-07
1.77819e-07
1.0804e-05
1.30366e-06
1.35058e-05
2.35089e-05
3.34196e-06
2.14096e-06
8.30176e-05
5.20606e-05
3.47402e-06
7.40169e-06
4.47349e-06
1.04767e-05
2.47119e-05
2.24296e-06
9.3725e-06
7.8566e-07
2.46641e-05
7.12323e-06
7.40145e-07
3.95195e-05
2.48259e-05
0.000248503
9.86559e-05
0.000145351
2.8205e-07
2.3601e-06
3.90807e-05
3.19055e-05
9.66591e-06
3.13113e-05
5.63685e-07
1.29701e-05
7.37874e-06
3.78525e-06
3.66256e-06
3.77702e-07
1.28462e-08
5.65034e-07
9.25227e-06
2.42927e-07
2.49061e-05
1.19554e-07
4.91805e-06
8.48892e-06
2.28517e-05
2.70057e-07
5.55784e-05
2.76173e-05
4.67104e-08
2.01832e-05
9.6423e-06
1.17887e-06
1.75278e-05
3.29717e-06
3.60087e-09
5.67057e-08
6.22782e-05
2.7088e-06
1.10323e-05
1.14985e-05
1.42332e-05
0.000172319
6.63791e-05
9.30073e-05
4.90144e-06
2.33492e-07
1.87875e-05
1.83073e-05
2.76741e-09
1.28498e-05
2.84701e-07
3.33522e-05
7.21182e-07
3.7321e-07
1.47579e-05
7.38939e-06
1.15837e-05
3.4789e-06
5.16258e-05
1.52522e-06
2.66385e-05
5.05586e-08
5.33157e-06
1.99558e-05
1.19817e-05
5.10508e-07
7.15163e-05
3.87603e-05
4.21824e-06
3.15367e-05
1.08143e-05
9.09605e-06
3.21418e-05
2.09659e-06
1.64234e-07
8.63648e-08
4.8239e-05
2.42519e-06
3.31985e-06
1.12893e-05
2.44725e-05
0.000198614
9.12493e-05
8.58026e-05
2.89117e-07
1.27668e-06
2.33602e-05
2.82418e-05
9.71015e-07
1.27345e-05
5.13284e-08
2.46176e-05
5.5151e-06
1.63697e-06
6.28464e-06
3.75733e-06
5.56872e-06
4.49508e-07
4.40598e-05
2.22398e-06
3.53294e-05
7.40654e-07
1.34866e-06
1.50163e-05
1.02183e-05
3.79195e-07
5.03331e-05
3.71826e-05
1.89079e-06
4.19894e-05
1.72379e-05
1.06724e-05
9.92645e-06
3.11215e-06
6.74577e-07
6.59201e-08
3.33523e-05
1.64749e-09
1.28893e-05
7.69967e-06
9.44343e-06
0.000216619
7.72156e-05
7.32522e-05
4.82316e-06
7.50877e-07
1.17086e-05
1.8549e-05
8.76521e-07
1.72653e-05
4.76422e-08
1.78342e-05
3.78169e-06
1.50812e-06
4.69843e-06
1.59576e-06
1.02998e-06
3.84501e-06
2.96042e-05
4.40079e-06
2.24089e-05
2.49304e-07
4.70031e-06
1.75889e-05
1.97278e-05
9.00344e-08
3.4802e-05
2.94064e-05
1.76182e-06
2.38198e-05
4.25212e-06
1.16031e-05
5.83147e-06
1.97976e-09
9.03036e-07
8.86147e-07
2.40196e-05
1.24362e-06
3.22467e-05
8.86715e-06
8.03841e-06
0.000193116
6.28563e-05
5.31384e-05
1.06422e-05
9.64143e-08
1.26146e-05
1.886e-05
5.91482e-07
2.27562e-05
3.94792e-07
8.37935e-06
1.83047e-06
4.71544e-07
4.06767e-06
5.15519e-08
1.43312e-06
3.34834e-06
4.7064e-05
1.2965e-08
1.49455e-05
4.34327e-06
4.52265e-06
1.21346e-05
2.39431e-05
2.15284e-06
2.53144e-05
2.42282e-05
6.26948e-06
3.07565e-05
3.42983e-06
2.36506e-05
1.41231e-05
5.55698e-07
4.98885e-09
2.55369e-06
2.5093e-05
4.41084e-07
4.22851e-05
5.24744e-06
2.01144e-05
0.00014743
5.65268e-05
3.61348e-05
4.26029e-06
7.14689e-08
6.95334e-06
1.59072e-05
1.67628e-07
1.45655e-05
2.68695e-06
4.58129e-06
1.54988e-06
2.92704e-07
2.21946e-06
1.06138e-07
3.24806e-06
1.55067e-06
6.62883e-05
7.58145e-08
5.75356e-06
6.98967e-06
1.99385e-06
9.76948e-06
2.02363e-05
3.09694e-06
2.33905e-05
2.63727e-05
9.53399e-06
3.16995e-05
6.98085e-06
2.85277e-05
1.13577e-05
1.24334e-07
1.81178e-08
1.45892e-06
3.81467e-05
4.31125e-07
5.68646e-05
1.91661e-06
2.74606e-05
0.000127247
5.06506e-05
3.83004e-05
3.80647e-06
2.48992e-09
3.06203e-06
1.11125e-05
8.64557e-07
8.93612e-06
1.11233e-05
3.58557e-06
2.21954e-06
1.28855e-07
9.33392e-09
5.81387e-07
9.29732e-07
5.5388e-07
5.69792e-05
5.95554e-07
2.47795e-06
1.99042e-06
6.80826e-07
1.31638e-05
1.76663e-05
1.77545e-06
2.2612e-05
2.04908e-05
9.50192e-06
2.89499e-05
5.5314e-06
1.76568e-05
9.82391e-06
8.57318e-07
1.14968e-08
1.34392e-06
3.33018e-05
1.58161e-06
5.93703e-05
1.85357e-07
2.38966e-05
9.39159e-05
3.91328e-05
4.49514e-05
4.29657e-06
3.52358e-07
5.36549e-06
7.92026e-06
4.40863e-07
4.62467e-06
1.9832e-05
2.41289e-06
1.97185e-06
4.26506e-08
1.6076e-07
3.46105e-07
6.69057e-07
1.07178e-07
4.20178e-05
1.60235e-06
3.23639e-06
9.01198e-07
6.18092e-08
8.87408e-06
1.11143e-05
4.24705e-07
2.0139e-05
1.41619e-05
9.45969e-06
3.26883e-05
3.98251e-06
9.83014e-06
8.97945e-06
1.60881e-06
3.2125e-07
2.15676e-06
1.40368e-05
1.14317e-06
3.31598e-05
7.49979e-08
1.8901e-05
7.44757e-05
3.10074e-05
3.81669e-05
8.47918e-07
3.37154e-10
5.81796e-06
6.02127e-06
1.54308e-06
2.96322e-06
1.59089e-05
1.44256e-06
2.08718e-06
7.81112e-08
2.32318e-08
1.09904e-09
1.0289e-06
3.99662e-07
3.47155e-05
4.58272e-07
3.22404e-06
3.46942e-07
2.09597e-07
4.02429e-06
4.72715e-06
3.60846e-09
2.03305e-05
9.63985e-06
5.45348e-06
2.39221e-05
2.78475e-06
5.47571e-06
5.0449e-06
5.50823e-07
5.25585e-10
1.44887e-06
4.37876e-06
3.31728e-07
1.32324e-05
8.32843e-07
1.47267e-05
5.10466e-05
2.84125e-05
2.6908e-05
1.90888e-07
6.33644e-07
4.91412e-06
4.49947e-06
1.07726e-06
2.24862e-06
1.16314e-05
1.94117e-07
2.76432e-06
1.60146e-07
1.1026e-06
1.42235e-08
3.14841e-07
7.05053e-07
1.94679e-05
1.94788e-08
2.82911e-06
2.7746e-07
1.05497e-07
2.33082e-06
3.45207e-06
7.59506e-10
1.67199e-05
6.65595e-06
2.19589e-06
1.47774e-05
4.02737e-06
2.27937e-06
3.85044e-06
2.13918e-08
3.1843e-07
1.16617e-06
1.4088e-06
5.39447e-08
3.54834e-06
1.69173e-06
1.30966e-05
3.33661e-05
2.44471e-05
1.81064e-05
7.1431e-08
5.49998e-07
4.53772e-06
3.81873e-06
1.79845e-07
2.07528e-06
8.44248e-06
3.31619e-07
3.04924e-06
4.23706e-07
9.66532e-07
4.63242e-09
2.414e-09
4.49839e-07
9.60391e-06
2.70636e-12
2.52729e-06
5.29481e-07
3.16658e-08
1.09819e-06
2.40673e-06
3.48657e-09
1.06791e-05
4.04223e-06
6.27838e-07
9.29212e-06
3.97519e-06
9.76649e-07
2.68203e-06
2.43408e-08
3.64974e-07
1.13917e-06
2.18901e-07
1.61161e-08
3.76448e-07
3.2424e-06
1.13141e-05
2.37086e-05
1.89685e-05
1.17564e-05
1.05168e-08
5.78338e-07
4.61438e-06
3.36255e-06
7.14195e-09
1.89097e-06
6.03131e-06
1.16769e-06
3.226e-06
4.13873e-07
1.77995e-07
2.06619e-09
6.33577e-08
7.03144e-07
5.00507e-06
1.88724e-08
1.91948e-06
7.57211e-07
1.73766e-07
3.07718e-07
1.62373e-06
1.36467e-08
6.47558e-06
2.22394e-06
4.78394e-08
6.26995e-06
3.04607e-06
4.43354e-07
1.91911e-06
1.45533e-07
4.88816e-07
1.13969e-06
2.43047e-08
1.85889e-07
6.21167e-08
4.23371e-06
1.00249e-05
1.64383e-05
1.42161e-05
7.67172e-06
1.73721e-08
8.3153e-07
4.81069e-06
2.96792e-06
1.98756e-07
1.56895e-06
4.47826e-06
2.06847e-06
3.29373e-06
6.02039e-07
9.33647e-08
6.06123e-09
1.87909e-07
9.44463e-07
2.59072e-06
6.76095e-08
1.41342e-06
9.24112e-07
3.23246e-07
3.13721e-08
1.09597e-06
1.41296e-08
3.73694e-06
1.14273e-06
2.53046e-08
4.28653e-06
2.2032e-06
1.75015e-07
1.38943e-06
2.84707e-07
6.25085e-07
1.16916e-06
3.58595e-07
4.79449e-07
6.49948e-07
4.45464e-06
8.57603e-06
1.17993e-05
1.05128e-05
5.14878e-06
1.04332e-07
1.02776e-06
4.42424e-06
2.74401e-06
4.9838e-07
1.5998e-06
3.8441e-06
2.88438e-06
3.46596e-06
8.15159e-07
6.8814e-08
7.20779e-09
2.08669e-07
8.13731e-07
1.3216e-06
1.00347e-07
1.06175e-06
9.91653e-07
4.37931e-07
7.09483e-09
7.49299e-07
1.38991e-08
1.99752e-06
5.11681e-07
1.54326e-07
2.97415e-06
1.52528e-06
7.71001e-08
1.02479e-06
4.1386e-07
7.34812e-07
1.2771e-06
8.13135e-07
8.16524e-07
1.26914e-06
4.30616e-06
7.10926e-06
8.60636e-06
7.75234e-06
3.65133e-06
2.48275e-07
1.15694e-06
3.87382e-06
2.5575e-06
7.81911e-07
1.68242e-06
3.49601e-06
3.42296e-06
3.58218e-06
1.02639e-06
8.12834e-08
4.48811e-09
1.68601e-07
6.37477e-07
7.11064e-07
1.21026e-07
8.14109e-07
9.52497e-07
5.01761e-07
6.52567e-08
5.23033e-07
1.56877e-08
9.61339e-07
1.78475e-07
2.75569e-07
2.05233e-06
1.01053e-06
3.97949e-08
7.72976e-07
5.15392e-07
8.18435e-07
1.34897e-06
1.18598e-06
1.12105e-06
1.67498e-06
3.99777e-06
5.7905e-06
6.36921e-06
5.73223e-06
2.7539e-06
4.25388e-07
1.24194e-06
3.30899e-06
2.36614e-06
1.02228e-06
1.74483e-06
3.25406e-06
3.67403e-06
3.56256e-06
1.21984e-06
1.29724e-07
7.84763e-10
1.25385e-07
4.6632e-07
4.10548e-07
1.31805e-07
6.33091e-07
8.47437e-07
5.18238e-07
1.32414e-07
3.75273e-07
1.96402e-08
3.97859e-07
3.60587e-08
3.38776e-07
1.39556e-06
6.38344e-07
2.63914e-08
5.98273e-07
5.77644e-07
8.65974e-07
1.36415e-06
1.40728e-06
1.34338e-06
1.85934e-06
3.54983e-06
4.67731e-06
4.79008e-06
4.2775e-06
2.1943e-06
6.05288e-07
1.28406e-06
2.7959e-06
2.1658e-06
1.19559e-06
1.7736e-06
3.03905e-06
3.69002e-06
3.4185e-06
1.36921e-06
2.01214e-07
9.74622e-10
8.2523e-08
3.19859e-07
2.60792e-07
1.40481e-07
4.94057e-07
7.10099e-07
4.86888e-07
1.80484e-07
2.77461e-07
2.52685e-08
1.28495e-07
2.35946e-10
3.4343e-07
9.26814e-07
3.81286e-07
2.21233e-08
4.7467e-07
6.0259e-07
8.75447e-07
1.3209e-06
1.48074e-06
1.46349e-06
1.89981e-06
3.08604e-06
3.7668e-06
3.66432e-06
3.24044e-06
1.82469e-06
7.5999e-07
1.288e-06
2.35388e-06
1.95994e-06
1.29556e-06
1.76464e-06
2.81514e-06
3.49704e-06
3.17446e-06
1.44281e-06
2.81849e-07
1.00538e-08
4.50644e-08
2.04959e-07
1.77256e-07
1.42053e-07
3.81654e-07
5.64576e-07
4.26038e-07
2.00225e-07
2.10444e-07
3.15974e-08
2.43135e-08
1.11087e-08
3.07404e-07
5.95039e-07
2.12045e-07
2.37286e-08
3.84404e-07
5.84482e-07
8.42248e-07
1.22876e-06
1.45192e-06
1.48171e-06
1.8529e-06
2.64296e-06
3.0333e-06
2.8572e-06
2.50268e-06
1.56299e-06
8.6956e-07
1.2579e-06
1.98042e-06
1.756e-06
1.33695e-06
1.71747e-06
2.57141e-06
3.18243e-06
2.8615e-06
1.43937e-06
3.58714e-07
2.97906e-08
1.75512e-08
1.20537e-07
1.23361e-07
1.33552e-07
2.87208e-07
4.27153e-07
3.49364e-07
1.96451e-07
1.61794e-07
3.6951e-08
2.07807e-10
3.18947e-08
2.45539e-07
3.64584e-07
1.06795e-07
2.76483e-08
3.16078e-07
5.38713e-07
7.76953e-07
1.10336e-06
1.33389e-06
1.41704e-06
1.71557e-06
2.2349e-06
2.44649e-06
2.27132e-06
1.97609e-06
1.36366e-06
9.31074e-07
1.19945e-06
1.67088e-06
1.56039e-06
1.32487e-06
1.63554e-06
2.31085e-06
2.80634e-06
2.51355e-06
1.37778e-06
4.21842e-07
5.90407e-08
2.61724e-09
6.23157e-08
8.38601e-08
1.15559e-07
2.06529e-07
3.05772e-07
2.68092e-07
1.69598e-07
1.23522e-07
3.93734e-08
5.66063e-09
4.48514e-08
1.78043e-07
2.0934e-07
4.6026e-08
3.25708e-08
2.62804e-07
4.7738e-07
6.91445e-07
9.58987e-07
1.17414e-06
1.29526e-06
1.53434e-06
1.86901e-06
1.97675e-06
1.82735e-06
1.59739e-06
1.20539e-06
9.47392e-07
1.11965e-06
1.41805e-06
1.37789e-06
1.26948e-06
1.52499e-06
2.0424e-06
2.41367e-06
2.16068e-06
1.27652e-06
4.65537e-07
9.4512e-08
8.06271e-10
2.54424e-08
5.25722e-08
9.05471e-08
1.38311e-07
2.04813e-07
1.90984e-07
1.3219e-07
9.11542e-08
3.74459e-08
1.49526e-08
4.62022e-08
1.16369e-07
1.09309e-07
1.46983e-08
3.76638e-08
2.20456e-07
4.10902e-07
5.97806e-07
8.14846e-07
1.00565e-06
1.14223e-06
1.3327e-06
1.54692e-06
1.5991e-06
1.48324e-06
1.31249e-06
1.06742e-06
9.17204e-07
1.02577e-06
1.21047e-06
1.21123e-06
1.18456e-06
1.39399e-06
1.77746e-06
2.0369e-06
1.82559e-06
1.15261e-06
4.8837e-07
1.3199e-07
1.0726e-08
5.74917e-09
2.78398e-08
6.23652e-08
8.28315e-08
1.25182e-07
1.23879e-07
9.21298e-08
6.26717e-08
3.09201e-08
1.86334e-08
3.69729e-08
6.69282e-08
4.89319e-08
1.95051e-09
4.24734e-08
1.86592e-07
3.46782e-07
5.05411e-07
6.80425e-07
8.4391e-07
9.78001e-07
1.1288e-06
1.26765e-06
1.29354e-06
1.21076e-06
1.09056e-06
9.41282e-07
8.57932e-07
9.25147e-07
1.03882e-06
1.06159e-06
1.08216e-06
1.25162e-06
1.52645e-06
1.69576e-06
1.52325e-06
1.02068e-06
4.93932e-07
1.67574e-07
2.97949e-08
5.46801e-12
1.02232e-08
3.55107e-08
4.09666e-08
6.61757e-08
7.01991e-08
5.547e-08
3.79517e-08
2.10955e-08
1.50084e-08
2.30402e-08
3.16651e-08
1.62217e-08
3.7693e-10
4.68661e-08
1.59647e-07
2.89418e-07
4.20408e-07
5.60558e-07
6.96703e-07
8.17141e-07
9.35636e-07
1.02884e-06
1.04481e-06
9.90966e-07
9.11816e-07
8.24515e-07
7.81636e-07
8.2403e-07
8.95727e-07
9.28855e-07
9.72471e-07
1.10679e-06
1.29735e-06
1.39988e-06
1.26134e-06
8.91621e-07
4.83319e-07
1.98405e-07
5.4974e-08
5.69714e-09
1.05485e-09
1.42923e-08
1.355e-08
2.65487e-08
3.15954e-08
2.63991e-08
1.81207e-08
1.05858e-08
7.83517e-09
9.97688e-09
1.02271e-08
2.22154e-09
5.18648e-09
5.08906e-08
1.3842e-07
2.40621e-07
3.45963e-07
4.56979e-07
5.67354e-07
6.68948e-07
7.6132e-07
8.27262e-07
8.41452e-07
8.11112e-07
7.63861e-07
7.16589e-07
6.98137e-07
7.27161e-07
7.75496e-07
8.12161e-07
8.63325e-07
9.67187e-07
1.09511e-06
1.15164e-06
1.04186e-06
7.72878e-07
4.62677e-07
2.23054e-07
8.33458e-08
2.06378e-08
1.41592e-09
2.10318e-09
9.80678e-10
5.04462e-09
8.36199e-09
7.49239e-09
4.90668e-09
2.59694e-09
1.69109e-09
1.72688e-09
8.72281e-10
4.56846e-10
1.3394e-08
5.46155e-08
1.21817e-07
2.00419e-07
2.82918e-07
3.69396e-07
4.56474e-07
5.38252e-07
6.09735e-07
6.59219e-07
6.7493e-07
6.62609e-07
6.39187e-07
6.17919e-07
6.14603e-07
6.37601e-07
6.73843e-07
7.10426e-07
7.60307e-07
8.38547e-07
9.21786e-07
9.48847e-07
8.62952e-07
6.6879e-07
4.36871e-07
2.41476e-07
1.12502e-07
4.26773e-08
1.15093e-08
8.81198e-10
2.53642e-09
1.88953e-10
4.63769e-11
8.8709e-11
4.6909e-12
6.23268e-11
2.11642e-10
3.74892e-10
1.31028e-09
6.38009e-09
2.31751e-08
5.80628e-08
1.08816e-07
1.67825e-07
2.30591e-07
2.96382e-07
3.63125e-07
4.26585e-07
4.8158e-07
5.20706e-07
5.38667e-07
5.39467e-07
5.33229e-07
5.29079e-07
5.35691e-07
5.57007e-07
5.87595e-07
6.22461e-07
6.66951e-07
7.24535e-07
7.77156e-07
7.86794e-07
7.20467e-07
5.8107e-07
4.09826e-07
2.54538e-07
1.40697e-07
6.96229e-08
3.04735e-08
1.08806e-08
1.65372e-08
9.101e-09
5.67345e-09
4.56694e-09
4.58793e-09
5.04851e-09
5.55057e-09
6.41209e-09
9.19398e-09
1.68812e-08
3.34361e-08
6.1176e-08
9.84614e-08
1.41397e-07
1.87493e-07
2.35993e-07
2.85559e-07
3.33341e-07
3.75472e-07
4.07588e-07
4.2733e-07
4.37187e-07
4.4296e-07
4.50319e-07
4.63994e-07
4.86017e-07
5.14369e-07
5.47028e-07
5.85082e-07
6.26978e-07
6.59562e-07
6.59866e-07
6.09225e-07
5.09415e-07
3.84166e-07
2.63466e-07
1.66815e-07
9.93451e-08
5.65776e-08
3.10152e-08
4.12273e-08
3.01441e-08
2.3786e-08
2.05542e-08
1.91286e-08
1.85551e-08
1.84408e-08
1.92499e-08
2.24083e-08
2.98906e-08
4.35138e-08
6.38705e-08
8.98664e-08
1.19607e-07
1.51851e-07
1.86111e-07
2.21602e-07
2.56621e-07
2.88793e-07
3.15743e-07
3.36413e-07
3.52179e-07
3.66137e-07
3.81462e-07
4.00598e-07
4.24541e-07
4.52468e-07
4.83073e-07
5.1542e-07
5.46256e-07
5.66422e-07
5.62396e-07
5.23963e-07
4.52403e-07
3.61375e-07
2.69328e-07
1.90218e-07
1.29926e-07
8.76338e-08
5.94005e-08
7.44516e-08
6.14499e-08
5.28576e-08
4.7261e-08
4.34797e-08
4.06792e-08
3.86236e-08
3.77888e-08
3.92148e-08
4.40226e-08
5.29127e-08
6.58595e-08
8.21905e-08
1.01047e-07
1.21926e-07
1.44652e-07
1.689e-07
1.93861e-07
2.18348e-07
2.41225e-07
2.62033e-07
2.81433e-07
3.00893e-07