/*--------------------------------*- C++ -*----------------------------------*\
  =========                 |
  \\      /  F ield         | OpenFOAM: The Open Source CFD Toolbox
   \\    /   O peration     | Website:  https://openfoam.org
    \\  /    A nd           | Version:  10
     \\/     M anipulation  |
\*---------------------------------------------------------------------------*/
FoamFile
{
    format      ascii;
    class       volTensorField;
    location    "42.5";
    object      gradientUWrite;
}
// * * * * * * * * * * * * * * * * * * * * * * * * * * * * * * * * * * * * * //

dimensions      [0 0 -1 0 0 0 0];

internalField   nonuniform List<tensor> 
25600
(
(1.1658 -1.61521 1.97003 -0.436149 -0.620674 -0.0107257 1.87273 6.11038 -0.30741)
(-1.27461 -2.13605 1.94074 -1.35358 -1.28287 0.619015 2.73179 0.297759 2.50327)
(-0.782367 1.05048 -2.20971 0.206751 0.200808 1.16555 4.35596 -3.38988 -0.00406334)
(-0.467431 1.49589 -1.02178 3.50603 2.85919 0.852896 -2.63728 -1.08661 -2.38158)
(-0.52196 -0.162037 0.749016 3.86229 1.08051 2.7402 1.7687 1.29376 1.17192)
(0.512381 -1.30916 -0.926901 2.23707 -0.624887 2.04203 7.77793 2.14683 0.278441)
(-0.234661 -0.241612 0.479614 -0.126081 0.162077 0.212092 0.795133 1.05128 0.0423164)
(-1.01139 2.51694 0.497147 0.736288 0.335588 -0.120429 -0.0692555 -0.0698591 -0.394025)
(0.8487 0.708363 -0.613491 2.85585 1.54795 2.0287 2.2114 -0.814303 -2.38743)
(0.452144 -1.06914 -0.774688 0.840774 -0.0181076 2.03642 -2.18696 1.07411 -1.01008)
(1.18139 0.767838 0.926277 -1.63188 -1.24365 -0.0955845 -3.43122 2.51083 -0.49368)
(0.695604 -0.212613 0.110001 1.17305 -0.291297 1.50253 3.25626 3.74168 -0.932796)
(-1.79148 -1.54069 -0.423557 2.67997 1.28948 2.38292 -1.53972 3.92849 -0.571086)
(-0.519795 -0.400241 2.44209 1.67363 1.30651 1.199 -0.997697 -1.04263 -0.544213)
(1.38965 -0.237753 0.990499 3.27058 -0.668439 1.43371 5.39936 -1.45392 0.885847)
(2.36099 -0.853202 -2.23771 -3.31121 -1.46702 0.416103 11.4029 3.10772 0.15677)
(-1.51092 1.01861 -1.70026 -2.44682 2.90328 1.02991 6.81493 -0.464458 -1.8139)
(-2.93443 2.62615 -1.40866 -0.113136 1.90731 2.34417 -3.4686 -3.98208 -0.329656)
(-0.58565 0.167535 0.0804282 -0.25939 -0.0231587 0.0498311 6.63199 2.75645 1.09579)
(0.29479 -2.10278 3.48347 4.97946 1.66169 0.456701 -3.21005 1.31551 -2.28836)
(1.09338 -0.680251 1.10748 0.567144 0.549846 0.82816 2.4118 -2.58805 -0.68569)
(-0.479997 1.06726 -2.06848 0.562771 1.11767 1.4379 8.54777 0.382442 0.274136)
(0.433033 1.72623 -1.63575 2.58636 -0.0721457 1.07489 -0.878365 1.94582 0.168859)
(1.40665 0.507849 0.0942553 0.437978 -1.79105 1.18851 -1.64382 2.39764 0.192267)
(0.00366899 -1.82187 2.38618 2.84429 0.0671575 0.597323 1.86822 1.80966 0.294126)
(-1.11545 -1.39241 0.772131 0.342757 1.28907 1.13694 2.24565 -0.337707 -0.915757)
(-0.677196 -0.0457785 -1.48981 2.22024 1.82623 2.64239 3.34316 1.22316 -0.818003)
(0.320215 0.259192 0.40622 -1.17199 -0.616561 1.63889 1.42907 -1.21146 0.755879)
(2.57281 -0.172627 0.0708142 0.089544 -0.540276 2.43426 -0.375654 -0.579153 -1.33026)
(2.52918 1.31496 -0.969772 2.61556 0.541077 2.358 -1.93527 2.07071 -2.36816)
(-3.26796 1.30361 -0.273471 -3.44798 -0.954507 2.21073 0.590232 2.4234 3.20283)
(-1.43907 -2.03216 -1.00469 4.11161 0.802047 1.95739 7.77197 3.56365 1.07535)
(0.498758 -1.06807 0.330035 4.68159 -0.0279794 0.351599 1.11543 4.5014 -0.50317)
(-0.947952 1.43563 0.903501 2.54794 -2.25608 1.78334 0.99426 1.59137 3.15185)
(0.766701 -0.20477 0.669654 3.3426 0.248271 4.05448 -4.39946 -0.59508 -1.14619)
(2.01817 -1.22201 0.371347 -0.212769 0.43884 0.62508 2.03818 0.180528 -2.71128)
(1.50724 0.143427 -0.135658 0.0860354 1.61003 -0.912039 -2.36988 0.366603 -3.1173)
(-1.63432 0.619424 -0.477812 3.2657 2.53845 1.63563 -5.42156 4.22929 -0.583804)
(-2.08893 0.904564 -1.27832 0.154913 -0.517175 0.522801 4.48232 2.71781 2.35715)
(1.23432 0.886472 -0.130421 -0.168726 -0.0824691 0.50833 -4.98848 2.45359 -0.977147)
(0.106899 0.384325 1.09971 -0.504393 -0.108999 0.578568 -4.34738 -2.74685 -0.12201)
(1.22342 0.759078 0.326353 -1.47157 1.00299 -1.03894 -0.601811 0.123603 -2.4604)
(2.46227 3.31616 -1.29381 -2.65057 -0.624171 -2.08734 -0.596439 0.273661 -1.55784)
(-0.0182944 0.245837 0.00466288 0.166741 -0.0940551 0.842363 -2.16948 -3.4974 0.795011)
(-1.92974 -3.74039 1.2799 2.4852 2.15301 -1.12095 -2.18516 -3.4645 0.425568)
(0.193668 -0.87941 -0.77708 2.57676 1.71658 -0.392907 0.534826 0.557462 -1.19829)
(-0.204038 0.727502 -0.826601 0.341919 0.76898 0.740203 4.73335 3.88192 0.00886409)
(-1.24873 1.21169 0.698223 1.45856 1.11756 -0.150686 -1.37031 -1.81234 0.207993)
(-0.0221616 1.19095 0.828799 1.0211 -0.766558 -0.0275531 -2.86068 -2.24796 0.999548)
(-1.58312 -1.97889 -0.5585 -0.211933 0.242128 0.0543856 -2.55008 0.338571 1.65483)
(0.662792 -2.24418 -0.393235 1.40447 -0.891796 0.703222 1.46992 2.61934 0.700967)
(2.05728 2.00479 0.681951 -2.6238 -2.33692 -0.482895 -1.17195 0.626712 0.950832)
(0.130243 1.88168 -0.498933 -3.04399 -0.556427 -0.757331 1.79562 2.17605 0.703313)
(0.932567 -1.66923 -0.231843 -0.383651 0.157293 -0.74996 -0.106402 5.58656 -1.26485)
(-1.0833 -0.798368 0.926098 -0.499015 1.2644 -2.99241 -1.36713 2.82507 0.355236)
(-1.01299 2.2644 -0.203053 -4.80832 -0.413042 -1.76806 3.97991 5.25739 1.20862)
(-0.807706 1.43957 -0.923312 -3.96025 0.624766 0.446273 4.413 1.91365 0.192828)
(-1.97672 -1.53451 -0.97568 0.757638 0.887337 -0.4655 0.202689 -3.89044 -0.279899)
(4.55725 -0.114026 -0.293008 -0.76767 -1.7806 2.07406 -5.60971 -2.85292 -2.23744)
(2.59529 0.266723 1.07748 0.440258 -1.50958 0.98175 0.260476 0.217222 0.184732)
(-2.65487 -0.00416874 1.33068 0.82978 2.70527 -2.53745 -2.27548 -1.28764 0.469192)
(-0.894461 -0.502713 -0.0136052 1.14401 1.27424 -1.27209 0.984776 1.73112 -0.0181814)
(-1.80278 -2.84439 -0.659984 0.193734 -0.260379 -0.275769 2.1503 0.454009 1.44147)
(0.79492 -0.411149 -0.305668 0.0455314 -0.620809 0.910657 6.73679 -0.656813 0.650463)
(1.63289 1.83832 0.11515 -0.853403 -1.88115 0.0541925 4.22176 2.04982 -0.118017)
(0.104913 1.72675 0.810845 -0.847587 0.385195 -1.50479 -0.0482178 -1.4564 -0.680951)
(-0.917752 0.157991 0.541311 1.73812 1.49611 -0.913161 9.01879 1.93044 0.857567)
(-2.06554 -1.86066 0.350681 0.295402 -0.360794 0.143693 2.19508 2.64245 1.07159)
(1.70968 -0.489442 -0.646475 -0.177743 -1.20476 -0.632395 2.28924 0.272805 0.0224089)
(-0.991479 -0.569152 -0.175156 -3.79671 0.329144 -0.197197 5.31106 -2.35322 1.02483)
(0.356817 0.916195 0.463439 -1.58094 0.0399295 -0.144365 -2.89759 -2.84116 -1.01857)
(3.99249 1.90985 -1.64594 -0.193496 -0.629348 -0.614508 5.64092 -2.46752 -2.28306)
(-1.1105 -2.19442 -0.228481 -0.0524702 0.30879 0.38398 0.909739 1.78615 0.63326)
(-2.72938 -0.893352 1.81358 0.394447 0.413562 0.500466 1.99798 4.9556 2.08616)
(0.213985 1.92769 0.354315 1.15076 -0.683199 0.285337 6.23528 2.27098 1.09)
(0.406228 2.0435 -1.80204 -0.817058 0.206665 -0.840308 4.88519 2.24205 -0.303407)
(0.0257301 1.28687 -1.24484 -3.51476 0.659822 -0.984024 3.70915 -2.12748 -0.0238242)
(-0.753801 -2.72926 0.229245 -0.939905 -0.705182 -1.29385 0.146183 0.0794997 1.34801)
(-1.3257 -2.63785 0.0692711 2.6196 1.2989 0.0974485 -5.95723 -0.508688 0.0629937)
(0.973737 0.595719 0.695549 2.27825 -0.845952 0.467781 -2.33559 -1.0922 1.09263)
(-2.03707 0.0984392 0.64261 0.356301 -0.777774 -0.0505214 1.46572 4.29287 2.60428)
(-2.82538 -2.29949 -0.414695 4.1491 2.64927 -0.178495 2.50798 1.43694 0.232831)
(0.870041 0.347729 -0.567822 -1.14219 0.213527 0.306902 4.67763 0.0497119 -0.282842)
(3.82817 3.68294 -0.127795 -5.09152 -5.86172 -0.560263 4.5873 2.16853 1.65162)
(1.34657 1.01248 -0.226054 -4.05042 -2.09154 -1.42526 2.8055 1.57731 0.638306)
(-1.29222 -2.41667 0.628602 -1.14682 0.626022 -0.729204 -0.281532 -2.7826 -0.216042)
(-1.15826 -0.649719 0.561463 -2.06602 0.839575 0.310417 3.5649 -0.497546 0.281912)
(-0.470314 1.12609 -0.120612 -0.173987 -0.76115 0.24424 5.51932 4.12583 0.674114)
(-0.614438 0.0270093 -0.312401 2.35939 -1.00548 0.00758774 3.87902 1.86841 0.915378)
(0.58461 -1.25565 -0.14961 3.02991 0.986818 -0.846788 2.5286 2.14025 -0.0150305)
(-0.863904 -1.64277 0.361137 0.658397 -1.37297 -0.274685 -0.734782 -0.188517 1.60586)
(-2.86586 0.266929 -1.04797 2.68953 1.4299 -1.73013 7.19082 2.77648 0.492844)
(0.239189 0.836966 -0.651665 4.04295 -0.113595 -2.15833 1.87855 5.58936 0.19721)
(1.72071 0.992791 0.347206 -1.12897 -3.42545 0.961988 -0.70501 2.81981 0.886184)
(-2.50092 -0.761244 0.141193 -0.623269 0.695441 -0.33197 1.12853 2.77113 0.50598)
(-0.813397 -1.09951 0.796154 4.18453 2.48394 -1.1318 -3.44325 2.37177 -0.576556)
(3.16418 2.1342 -0.550473 -2.90397 -2.5658 -0.301807 5.0153 2.61102 0.0857593)
(-0.202404 0.254944 -0.0207291 1.61034 -1.78443 -0.0921407 3.24684 4.14149 1.3314)
(-0.380762 -1.84381 1.24544 2.36053 -0.302534 1.99654 1.72211 0.0772614 2.09524)
(1.82747 1.82909 -0.555806 -4.608 -3.38025 1.99002 5.36104 -5.39545 1.38015)
(1.33545 1.68751 -0.739417 -2.90606 -1.60729 0.200071 5.13878 -3.40275 -0.147307)
(-1.04463 -1.53245 -0.00785822 -0.587379 0.221804 -0.53884 2.69223 0.609905 0.781501)
(-0.680388 -0.259488 0.261313 0.204762 2.24183 -0.621382 -2.29486 -0.57016 -1.11759)
(0.483499 -0.918482 0.331234 2.13108 0.561405 -0.414019 -0.210074 -0.47494 -0.921378)
(-0.588036 -0.655496 0.17851 0.226112 -0.965642 0.0344838 -3.97383 4.31199 0.393854)
(1.14251 1.68923 -0.0257532 1.84452 -0.0526026 0.33778 2.96795 2.0249 -0.268267)
(0.247834 -0.645259 0.0606446 -0.519161 -1.2372 -0.372077 -2.50153 -0.898465 0.187095)
(-1.484 -2.17118 0.633769 0.914662 0.03978 -1.23771 -1.43365 3.84414 1.56793)
(-0.89583 0.370135 -0.276845 -0.595285 -0.504987 -1.32121 6.46518 2.54831 1.78461)
(1.04644 2.17473 -0.49318 -2.14936 -1.13213 -0.326319 5.83679 2.63591 -0.0985883)
(0.0468594 0.474306 -0.552161 0.931318 1.15529 0.161602 3.53855 4.11964 -1.51201)
(0.321271 -1.45084 -0.625311 0.801459 1.21463 -1.04192 -3.32363 1.64517 -2.15389)
(0.839455 -0.306524 1.20293 -0.37815 -0.264208 -0.125073 -3.52795 0.0214062 -1.04844)
(-0.113183 0.401961 0.904565 -0.835015 0.00149411 -0.0232532 1.37643 1.06088 0.858971)
(-0.287252 -0.182196 -0.469798 2.37691 1.09423 -0.260779 6.05351 2.21604 -0.616085)
(-1.99362 0.187668 -0.87796 -3.25473 -0.514374 -0.456314 1.67882 3.37965 1.90398)
(1.2707 -0.507982 -0.61229 1.01696 -2.81035 0.325246 -0.647731 -0.519381 1.50772)
(3.5278 0.844261 0.482454 -1.38253 -2.22207 1.17022 1.47679 -0.434314 -0.692186)
(0.646577 0.465708 0.303686 0.256123 0.897521 0.844104 1.60972 -0.213136 -1.16555)
(-1.37746 -0.306356 0.343298 0.89687 0.539301 0.670157 1.87486 -0.172348 0.773786)
(2.3611 1.94732 0.419014 -0.0531757 -1.45606 0.184506 5.74608 -0.680112 -0.325214)
(-0.273373 1.2274 0.528117 0.807219 0.301721 0.589146 1.7596 -1.96434 -0.15408)
(-4.64161 -3.36343 -1.51527 3.5729 2.84887 -0.853411 5.93034 0.171298 0.243403)
(-1.85857 -1.17744 -1.31186 0.783539 4.15043 -1.28139 2.21747 0.538111 -2.01151)
(1.33901 1.57782 1.01569 -2.95276 -0.217043 -0.169294 0.608918 2.6372 -0.786848)
(1.55294 1.18816 0.65791 -5.44768 -3.65232 -0.723679 3.1179 0.80583 1.05116)
(0.441797 -0.442446 0.032758 0.0307964 -0.255079 -0.978061 4.11154 2.7305 -0.591885)
(2.15482 -0.185597 0.395679 0.683272 -1.3255 -0.534948 2.03833 1.11809 -0.842551)
(2.33679 2.40145 -0.0966554 -2.41098 -2.23299 -1.0599 2.85075 2.51062 0.468869)
(-2.66694 -2.18985 -0.733883 2.1355 -0.459744 -0.09969 2.23006 2.76327 1.89102)
(0.267578 -1.8558 -0.989851 -1.65873 0.37432 0.0482465 0.0710745 -0.934588 -1.23653)
(4.15833 2.79513 -0.893967 0.342408 -0.659066 -1.16397 0.541492 -1.01865 -3.21734)
(-2.73553 -1.86988 1.51459 6.7411 1.15801 0.230205 -4.9216 -1.11298 0.554593)
(-2.50983 -0.817804 1.19625 -1.55072 0.852349 0.331381 2.47977 1.75192 1.10666)
(2.7893 3.65533 -0.722114 -1.45827 -0.895249 -0.0356011 0.758724 -1.23482 -1.45851)
(-2.71242 -0.497613 -0.089445 4.14894 3.15612 -0.0178827 1.54275 -2.525 -0.033096)
(-2.38501 -1.71172 -0.106441 0.637277 0.792657 -0.0686448 1.67743 0.0426851 0.57515)
(2.14934 0.332713 0.842057 0.836934 -1.51396 0.71287 -0.936744 -1.72099 -1.3426)
(-0.574911 -1.47318 1.415 2.80548 0.149925 -0.0710536 5.2885 -1.77129 0.776738)
(-1.44078 -0.573762 -0.424001 4.47976 1.77559 -0.670372 4.39611 0.345721 -0.330633)
(0.736003 2.86239 -0.762094 3.93089 0.288136 -0.39336 0.564548 -1.65946 -0.274285)
(1.43462 2.30236 -0.631713 -2.22693 -2.45092 -0.821494 3.91197 3.02836 1.33105)
(0.346571 -2.3535 -0.482177 3.95096 -0.567853 0.285439 1.02173 0.193483 0.010665)
(0.782671 -2.87282 0.246195 1.82363 0.327326 0.157048 -0.699627 -0.30187 -0.930712)
(1.21506 1.14906 0.687088 -1.75918 -0.246289 -0.0326725 -2.47235 -0.307198 -0.387901)
(-0.361961 1.51882 0.428566 -0.864273 -1.56937 -0.860448 -3.72215 -1.26913 1.76476)
(-1.51199 0.154496 -0.688905 -2.05606 -0.112448 -1.1263 1.79857 -0.580307 1.59015)
(-2.06997 -1.33748 -0.338351 1.10061 2.06785 -0.351688 -1.08509 -1.22964 0.314883)
(-0.834824 -1.2938 0.0735123 1.09244 1.82946 -0.629751 1.98866 -0.735735 -1.52171)
(0.343573 0.930785 0.912609 -1.1123 0.787428 -0.528346 -0.0344414 -1.15134 -2.06667)
(2.55086 2.64332 -0.167858 0.18758 -2.49636 -0.0175055 6.55335 3.60285 -0.290185)
(2.67239 0.535133 -1.76899 3.02418 -1.4172 0.735709 7.731 0.0893024 -0.966513)
(-2.16554 -2.93629 0.668878 1.63693 2.38066 0.255644 -1.64458 -3.51676 -0.246824)
(-0.416587 0.247505 1.62869 -0.402997 -0.141713 -1.11546 2.32158 1.82139 1.51217)
(-1.65388 1.34727 -0.0467856 -1.41863 -0.0282796 -0.571696 1.85146 4.10294 1.74571)
(-0.836242 -1.06582 -1.27665 -0.758533 0.262591 0.0276362 5.44219 2.97142 0.424299)
(1.54891 -0.16245 0.0376286 -0.341594 -0.65061 1.23531 -0.317344 -3.65611 -1.03499)
(-0.937304 0.388179 0.643026 -2.88031 1.66671 0.997735 4.23066 1.14997 -0.10897)
(0.570307 -0.275973 -0.285995 -2.50026 0.689814 -0.00440372 5.72021 0.993876 -1.19851)
(0.835305 -0.74799 -0.0102288 -0.468645 0.408887 -0.0320025 0.140548 -0.917308 -1.02063)
(-0.763547 0.193257 1.0475 -3.68069 0.311052 0.0917897 3.25777 3.48337 0.333806)
(-0.110869 0.968432 -1.03948 -5.14143 -1.42509 -1.05324 6.13395 3.95171 1.90549)
(0.352463 2.64492 -1.93455 -1.10098 -0.114172 -2.02169 7.3736 1.08621 0.329631)
(-1.15652 1.14194 0.232835 1.6266 2.089 0.725691 0.121334 -2.06421 0.484381)
(-2.91994 -4.27776 0.268704 4.99814 -0.166113 2.17217 0.303668 -2.1703 2.24665)
(1.0091 -2.1148 0.077596 3.87047 1.40362 0.421183 -1.48413 -4.08981 -2.57848)
(3.18447 0.962052 0.642572 1.96446 0.609478 -0.683533 -2.10932 0.745522 -3.08344)
(-1.90313 -0.347285 -0.129674 2.71657 1.76088 -0.805028 2.65706 4.08228 -0.225945)
(0.648197 0.835683 0.00519671 -0.745406 0.555224 -0.491334 -3.08109 0.536005 -1.36315)
(0.803816 0.444304 0.555865 1.73455 -1.20702 0.274481 2.6051 0.14481 -0.238199)
(-1.98851 -1.7986 -0.490349 5.76311 3.05394 -0.0209743 3.39041 -1.8471 -0.862277)
(3.52351 1.03341 -0.909396 -3.00649 -0.307998 1.61682 3.62782 -1.10931 -2.47256)
(-1.32742 1.62543 0.569087 -6.95343 0.527102 1.04943 -1.00251 -3.35253 0.122881)
(-4.27731 -0.577547 0.242471 2.72159 5.45287 -1.11712 2.39582 0.34466 -0.62851)
(1.88222 1.21764 -0.176439 -2.37859 0.440071 -0.20406 2.63058 0.29821 -1.75572)
(0.448444 0.110758 0.692974 1.293 0.0946027 -0.126209 -3.51174 -3.78951 -0.304191)
(0.392039 -1.41272 -0.00981805 8.72526 1.2287 0.264438 1.72366 2.10329 -0.544571)
(1.49584 -0.177988 0.056105 -1.41764 -0.843361 -0.0232708 1.79555 0.850876 -0.637227)
(2.09541 0.441892 0.313911 0.456821 0.0672853 -1.40962 2.17314 0.164317 -1.2665)
(2.30062 1.70513 -0.764463 0.405076 -1.21559 -1.90793 4.56684 0.42826 -0.781599)
(-3.31039 -1.09903 -0.844937 3.40996 -1.03813 -1.36803 -1.51046 -1.15389 2.511)
(-0.805372 -1.76962 0.40009 4.67667 0.270054 -0.570661 -4.55452 -0.142926 0.105234)
(2.18599 1.45198 0.863579 0.694178 -1.3032 0.624796 -0.0104348 1.66293 -0.497169)
(-3.39838 -0.876119 0.105723 3.19495 0.538853 0.238982 2.41975 3.66937 2.26178)
(-2.26412 -1.7898 -0.471793 0.260356 1.75342 -0.047438 0.489088 2.68401 0.277034)
(0.802413 1.76535 -0.733113 -1.93754 1.92316 -0.923929 1.74495 0.475951 -1.572)
(1.43289 1.91748 0.340753 -3.00179 0.235437 -1.2323 -0.251546 -2.80199 -1.37935)
(0.61812 -0.765939 0.885275 0.44615 -1.2762 -0.0713372 -2.15208 -0.116671 -0.165014)
(-2.40521 -0.657783 -0.365913 3.73065 3.40102 -0.15619 3.12361 0.11596 -1.33604)
(0.363049 -0.899826 0.0538326 5.15166 2.64991 -0.22186 -0.813048 -2.03832 -2.37281)
(3.10642 -0.837654 0.348154 6.06458 -1.33814 -0.898878 4.18865 2.88298 0.169863)
(1.52735 2.06856 -0.542351 -3.74711 -1.94947 0.244472 4.9199 3.86935 0.161643)
(-1.7801 0.327445 -0.112932 -2.674 0.535035 0.0969331 -1.66349 -0.194898 0.0835007)
(-2.23258 -1.26122 0.404048 3.2906 3.5209 -1.82114 -1.49496 0.765715 -0.860044)
(-0.654962 0.233713 0.351228 -0.239999 1.56305 -1.07082 -0.137392 3.05289 -0.648447)
(-1.15101 -0.352395 0.322825 3.41182 0.0577176 -0.0575453 1.90253 3.28649 1.12979)
(-0.156535 0.484692 0.110947 -0.607471 0.604757 0.207595 5.15475 0.876044 0.0642871)
(1.64384 1.72041 -0.35163 -0.204092 1.06286 -1.09349 -1.39992 -2.15769 -2.3046)
(2.29064 -0.462849 -0.454899 1.68557 -0.49005 -1.47507 2.94678 1.17213 -0.851972)
(0.499062 -1.81557 0.440464 1.31903 -1.00533 -0.522666 2.78173 2.16188 0.747782)
(-1.94357 1.52654 0.146003 -4.55519 0.646059 -0.667398 -0.127946 1.78315 1.47918)
(1.3468 0.939217 -0.929725 -0.200696 -0.957817 -1.64989 4.20928 2.40342 -0.467145)
(0.024516 -0.630011 -0.446361 -2.12466 -0.909215 0.953303 -2.94238 -0.123198 0.306367)
(2.00086 -0.99878 1.43855 -0.0198974 -3.56659 1.49993 -5.67952 -1.32563 0.633492)
(2.348 0.618644 0.758237 0.369375 -1.0948 -0.0414221 2.55661 1.36882 -0.615422)
(-0.384433 1.37037 -1.17202 3.26567 2.51646 -0.104588 5.23291 1.52456 -1.61744)
(-0.0268077 -0.0923572 -0.674859 -2.50463 -0.835154 -1.00267 -3.70054 0.456129 0.22694)
(0.0993048 -0.234068 0.467499 1.43357 1.0077 -0.451781 -0.0403371 0.333583 -0.797151)
(1.57206 0.412052 0.584403 6.1408 -0.327688 0.902736 2.30999 -0.948805 -1.12161)
(1.69912 -0.395253 -0.32385 1.32414 -2.16593 -0.414517 3.24588 0.0150233 0.948051)
(-2.88806 -1.29112 -0.109054 3.59419 3.84016 -1.29848 4.56503 0.182543 0.0891348)
(-3.8131 1.06239 -0.22924 -0.221331 3.14366 0.326261 3.69558 0.143704 -1.00722)
(0.957225 2.03314 -0.272795 -3.509 -0.678727 0.238728 0.362963 0.548374 0.432057)
(0.176371 -0.85011 0.329418 5.79701 -0.07127 0.665324 -0.370148 -0.617488 1.27322)
(1.81776 0.0990572 -0.0558161 6.1847 -0.408463 1.09718 4.87948 -1.11567 -1.1629)
(4.4852 0.0485016 0.273281 3.59343 -4.38198 0.265508 -1.42312 0.166504 -0.0170699)
(-3.81926 -2.26823 -0.0335917 2.43538 0.544089 0.226101 5.94326 0.404428 2.67755)
(-3.05567 -0.436507 -0.271228 0.719331 1.99389 0.308178 3.74761 -0.838579 0.921664)
(0.802294 -1.53061 0.141984 2.94006 0.424491 0.457103 3.89252 0.159345 -0.906242)
(0.737337 -1.05438 -0.429086 -5.15557 -0.914238 -0.927703 5.2485 1.16565 0.130616)
(3.0262 3.42658 0.0625749 -8.77778 -3.84316 0.427395 -2.93109 -1.61613 1.14407)
(-0.459216 1.767 0.702307 3.57936 1.97623 1.3721 0.646323 -3.57068 -0.53009)
(-0.408203 -1.84006 0.144091 1.39787 0.807983 0.816951 -5.11375 -3.84923 -0.277557)
(0.13237 -0.789017 -0.184924 1.50976 -0.585627 0.372108 -0.834516 -0.73665 1.09707)
(-2.29545 1.74321 -0.142026 1.69297 2.79723 0.168582 3.26159 0.239578 0.364642)
(-2.28612 0.596589 -0.414465 -1.83708 1.03899 0.505733 3.52423 -2.40202 0.4765)
(0.239289 -1.67614 -0.0646622 2.27755 -0.842197 0.271531 -0.0710207 -3.1047 -0.228979)
(2.36424 0.684501 0.442637 -2.15053 -0.967388 -0.266055 -1.7714 -2.61249 -1.29767)
(1.95063 1.20732 -0.0601327 -2.21459 -0.171035 -1.31192 0.505339 -0.445931 -1.32275)
(1.79779 -2.18498 0.372305 6.419 -2.59892 -0.529032 0.448751 0.363152 1.06706)
(-2.93644 -0.535587 0.169286 1.1791 0.757446 -0.138601 2.96112 1.2827 1.34176)
(-2.86992 1.84032 -1.0377 0.0661713 4.16606 -0.606513 3.60239 0.837223 -0.939537)
(2.24919 0.764891 -0.687697 -3.18231 -1.07898 -0.284717 -0.106511 -2.10395 -0.152918)
(0.932936 0.75001 0.790577 -4.57895 -0.721598 -0.27722 -1.29274 -1.72473 -0.139993)
(-1.48757 -0.909219 1.08693 -1.49613 1.10989 1.02959 1.38059 1.60548 -0.0897713)
(-1.09356 -1.59728 -0.335577 5.70797 2.3887 0.293253 5.49584 0.984849 -0.151549)
(-0.856461 0.52193 -0.600386 0.852609 0.709491 -2.59525 2.97039 0.675733 -0.0370298)
(0.724484 -0.17195 -0.494598 1.82484 -0.319219 -1.29571 3.99245 2.21018 -0.523852)
(1.67466 -1.58004 0.0538723 1.8011 -1.88346 0.619577 -3.0533 -1.82664 -0.248157)
(-2.53479 -0.346564 1.00585 -2.18928 -0.328053 0.799399 -5.78407 -1.39984 1.90962)
(0.254067 -0.0417219 -0.420081 4.2573 1.18848 0.653311 -1.27948 -0.426774 -1.50731)
(1.39669 0.0859463 -0.112654 5.58811 -0.26493 -0.346917 4.96444 1.05744 -0.836907)
(0.42491 0.871222 -0.0173097 -0.278061 -0.438889 1.12905 3.59158 2.13536 0.411643)
(0.541585 0.842219 -0.22021 -0.41798 -0.205745 1.31208 0.732742 -2.54812 -0.73479)
(-0.582077 -0.391145 -0.59445 -1.6586 1.56083 -0.787595 -2.25671 -3.39336 -1.38499)
(-0.743502 -1.65089 -0.579857 -0.674088 0.169627 -0.212046 -1.03284 -0.84561 -0.10981)
(1.85593 0.0126251 0.326323 -3.20704 -1.36681 0.464595 -4.35382 -0.485049 -0.77595)
(3.16979 -0.0499096 1.00255 -5.08783 -2.72386 -0.439767 -0.209877 -0.527134 0.11983)
(0.670328 -0.998191 0.078965 -1.88873 -0.871548 -1.03822 2.81316 0.852739 -0.0652056)
(-0.555371 2.72571 -0.7694 -6.63508 -0.672939 -0.547446 2.36948 0.958851 0.811174)
(-2.94461 1.25123 -0.0366019 -7.06297 0.0609432 -0.78372 -1.70874 -1.16762 2.27738)
(-1.16218 -1.52032 0.022083 4.28727 3.00325 -0.614893 -4.86692 0.972196 -1.40817)
(2.28502 -0.156185 0.684315 3.92883 -1.27658 1.11817 -3.97016 -0.456361 -0.91243)
(1.6116 -0.449451 0.736013 -4.28871 -4.15609 0.327292 3.34114 0.104534 1.48379)
(0.629772 -1.3227 -0.391645 -0.489335 -0.806223 -1.16369 1.91126 1.47316 -0.522318)
(-1.30536 0.643959 0.162021 -1.29297 1.37487 0.891676 -0.629431 -2.28038 -0.269034)
(-1.61693 2.11633 0.012158 -8.91602 2.09088 0.38775 7.475 2.03086 0.239319)
(1.36732 -0.269162 0.157008 1.44857 0.223794 0.495692 1.89621 2.72529 -0.807881)
(-1.34568 -1.38268 -0.400873 4.49266 0.0174285 -0.228662 7.29108 0.246158 1.22142)
(-4.47044 -0.960119 -0.750762 -0.358453 3.20613 -2.38358 -2.3931 1.27449 0.694035)
(2.20742 0.947792 0.538625 -4.79815 0.795442 -0.25709 -2.74961 -1.14272 -2.06128)
(4.98254 1.18327 0.647955 -5.13886 -2.40443 0.349253 1.53831 -0.693182 -1.03376)
(0.779227 -0.296736 0.232432 1.40316 -0.731214 -0.4079 1.7433 2.23513 0.636131)
(-2.91026 0.257134 -0.287502 -2.88982 1.89219 0.0995343 4.3651 -0.758717 0.755571)
(-4.1603 -0.549365 -0.366204 -1.72838 2.08683 0.00275311 -1.08118 -0.492588 0.711563)
(0.852163 -0.399808 -0.645888 3.24071 -0.496762 -0.302051 9.76986 2.39972 -0.644611)
(1.14699 0.45557 -0.13273 -0.884766 -0.166455 -0.371595 -0.206837 -2.93079 -0.622065)
(-1.76427 -0.254319 -0.0507582 -1.82422 1.85282 0.769879 -2.6859 -1.42431 -0.387526)
(2.83886 -1.41109 -0.486866 -1.07531 -2.35381 0.544302 -0.736253 -0.725858 -0.761957)
(2.41339 -0.491483 0.746557 -6.84295 -3.53638 0.16072 -5.79086 -1.83118 0.62579)
(-1.0371 3.01681 0.288052 -7.239 1.33746 -1.12341 4.9884 4.05304 0.615869)
(-1.33992 1.00892 -0.670069 -0.0580772 0.251826 -1.03857 3.29865 2.12098 0.882635)
(-4.04135 -2.39774 0.0210675 0.827737 0.943663 1.1421 1.18832 0.122362 1.87075)
(-0.990747 0.159991 1.18272 -0.594247 2.55293 1.80977 0.661728 -3.32806 -1.61602)
(5.08867 1.88926 0.74087 -4.24158 -2.09506 -0.40085 -0.937993 -0.544573 -2.53068)
(0.182908 -0.692142 -1.78766 -1.59972 -2.09372 -0.676626 7.77853 3.33609 1.31224)
(-2.41691 -1.04381 -0.852644 4.00939 2.22873 0.539858 0.18385 -0.958435 -0.456636)
(2.09678 0.0814272 1.45401 1.90867 0.80302 -0.597521 -3.73592 -2.36164 -2.1967)
(-0.0362061 -0.569471 0.776596 1.17895 -0.810554 -0.413045 0.395327 0.894473 0.517452)
(-3.3727 -0.250981 -0.236155 0.229333 2.39073 1.58002 -1.05797 -0.280395 -0.016641)
(1.01207 0.0182206 -0.896411 4.39556 0.0471311 0.104319 3.38127 -0.11911 -0.773215)
(-0.980954 0.0247293 -0.610756 -0.34129 0.169861 -0.92189 -0.00940425 0.135023 0.8974)
(-3.02767 -0.463017 0.445801 3.67606 1.83214 -0.395487 4.45657 1.15874 -0.0552283)
(1.15818 0.197035 0.302033 1.96366 0.935096 0.337613 0.990842 -0.317988 -1.99683)
(1.94976 0.719823 -0.148585 1.85805 -0.0853489 0.104555 5.21419 2.93585 -0.498236)
(-1.21338 -0.409992 -0.474222 -0.744134 1.07797 -0.100141 3.169 1.71681 0.543692)
(-2.1253 -1.57077 -0.700892 5.68104 2.3702 0.832319 -0.724075 -3.53456 -0.450239)
(1.05655 0.0373704 -0.256647 -0.064352 -0.732506 0.935103 2.60183 -2.72295 -1.41153)
(0.694365 1.33845 0.483053 -0.102205 2.05146 -0.183888 -5.26068 0.298636 -2.1899)
(-1.16679 0.368175 -0.233505 -0.256436 3.89313 -0.192912 -0.464868 -1.08617 -1.89274)
(2.72358 0.830616 -0.137148 -3.5193 -2.90298 -0.428904 -3.38917 -0.748671 -0.486279)
(2.08053 0.139633 0.771662 -1.53669 -3.42959 0.335926 4.83919 -0.934997 1.00494)
(-3.33216 -1.84768 0.298783 3.13803 1.69361 1.36028 0.001966 -3.35561 0.366176)
(-1.9651 -0.571783 -0.807035 -2.52026 3.79113 -0.485571 -3.96414 -0.394273 -2.15339)
(3.25024 2.81401 0.203868 -9.12417 -0.341403 -0.00516586 -7.17536 -0.953935 -2.32553)
(-0.374935 1.59249 1.06098 -1.62212 0.176291 -0.561804 2.55868 -1.35698 0.708162)
(-2.2091 -2.46133 -0.233063 2.38418 1.98975 -1.08982 0.929549 -0.158457 -0.701601)
(4.24203 -1.48755 -0.549261 1.05212 -1.32106 1.32148 -0.906786 -1.03391 -2.35292)
(-0.322351 0.0164989 -1.38805 -3.70958 -1.35345 -0.323614 0.730615 1.42891 1.60522)
(-4.51415 -0.645716 -0.472966 2.75615 1.79331 -0.576317 -2.52605 1.27529 1.76543)
(0.493408 0.315887 1.51123 3.29081 0.342733 0.735917 -0.143622 -3.57174 -1.04667)
(3.22479 0.928827 0.619809 -6.56778 -2.33407 0.358855 -4.03542 -5.41885 -1.52898)
(0.856372 0.509847 0.0237102 -3.99703 -1.01132 -0.774265 -2.12681 -3.25236 -0.54645)
(-1.75478 0.755313 0.0169223 -3.79901 0.78848 -0.98264 2.66014 2.0232 0.666569)
(0.687522 0.306154 -0.368932 1.53556 0.305812 -0.798233 -0.472882 1.68035 0.199596)
(-1.56682 -0.65279 -0.628023 3.38135 1.22889 -0.0460783 3.11008 0.762129 0.545393)
(-2.28276 -0.273963 0.480383 1.94467 1.96255 0.970873 -0.892493 -0.849423 0.0590611)
(1.89071 -0.525737 0.868752 0.476254 0.376193 -0.0560031 -3.06277 -1.68581 -1.86698)
(-0.549433 -1.80224 -0.412208 2.91464 1.18489 1.14675 4.03706 1.15324 -1.34554)
(-1.31587 -0.132712 -0.451265 0.200671 2.85187 2.52553 -2.54217 -2.49619 -1.68412)
(0.725432 1.73563 -0.436639 -2.85383 1.32467 0.509534 -0.913777 -3.09505 -1.14917)
(1.41755 1.56218 0.16077 -2.96968 -2.33633 0.0241736 0.278611 -1.23368 0.311505)
(1.40125 1.66054 0.841525 -1.66612 -0.701503 -0.264932 -2.20482 -3.46752 -0.139064)
(-1.84893 -0.866315 0.0327899 7.72553 2.83004 -0.0735622 6.01882 0.81889 0.0138541)
(-1.40643 -3.04418 -0.223175 7.30562 2.05228 -1.04728 -3.30573 0.891829 -0.706609)
(3.26559 0.708546 0.016091 -4.94671 -2.58211 -1.1663 -2.76906 -0.0546615 -0.990333)
(0.805769 1.86914 -0.582653 2.78521 1.50223 1.18884 2.72278 -0.282423 -1.37238)
(-0.606231 -1.71184 -0.80737 5.95165 1.43354 0.126313 2.10224 -1.14282 -0.55784)
(0.655437 -0.671635 1.23941 0.154618 -0.724844 -1.297 -7.66363 -1.84028 -0.16492)
(-1.02798 0.690129 1.44124 1.65352 1.66108 -0.511212 -1.24243 0.0500952 -0.86079)
(-0.609491 -0.733367 -0.655389 -1.74352 -0.105043 -0.176598 6.56321 1.63762 0.061811)
(0.844066 0.914814 -0.391607 -7.57171 -1.18445 -0.729725 -3.59286 -1.16842 -0.058131)
(1.18834 1.10758 0.613595 2.40632 1.08598 -1.76755 -3.01582 1.28897 -0.589233)
(-0.252188 -0.112836 0.0610501 4.64496 0.635898 -0.991702 -0.363475 -2.01781 -0.00452078)
(-1.61758 -0.223295 -0.758528 3.20672 0.201911 0.00993352 0.763747 -2.11426 0.739987)
(1.00088 -0.390117 -0.230042 -3.42452 -1.31976 -0.672882 0.116054 1.94372 0.605967)
(1.81155 -0.97775 0.716827 4.65587 -1.25142 -0.627994 -0.819839 -0.115091 0.216317)
(0.274076 -0.190971 0.412959 4.45136 1.30381 0.473247 -1.11426 1.48679 -0.924894)
(0.582722 1.3767 -0.411588 -1.75509 -0.652646 -0.316849 -0.949201 0.7679 -0.561305)
(-2.20837 0.195216 -0.835189 3.42458 0.726267 -0.668298 -4.14973 -2.15394 0.795218)
(-3.02749 -2.21017 0.201467 4.55756 3.92033 -0.0549259 -2.92099 -4.11545 -1.3331)
(2.24488 0.779441 0.926657 -2.50653 -1.54753 0.213067 -0.245024 0.424885 -1.39912)
(1.31426 3.06541 0.265222 -1.27789 -2.5891 -0.637878 0.542738 2.7561 2.39267)
(-4.44595 -1.41188 -0.042655 3.12449 3.59119 -0.36898 -5.03978 0.990189 1.49205)
(1.28799 -2.63623 -0.373111 9.04945 2.29134 2.22425 0.996476 -4.07849 -2.56767)
(4.15907 1.81998 -0.263247 1.26102 -4.95859 -1.40536 -3.9524 -3.104 0.481145)
(-0.420673 0.999958 0.870228 3.48324 -0.689394 -1.40588 0.141974 4.75589 1.66135)
(-1.21982 -1.94283 0.450941 4.18353 2.45981 0.667951 6.7266 3.70712 -0.519618)
(-0.456018 0.200464 -1.37783 -4.48761 -0.336518 1.1772 2.54751 2.16017 0.368391)
(-1.20195 -0.138609 -0.230196 1.16365 1.75815 2.82335 0.323686 -3.70533 -0.462039)
(-2.30714 -1.03911 1.06426 9.58516 2.22111 1.12627 5.37585 -1.39066 0.470815)
(1.41581 0.527144 -0.0605673 0.448437 -0.749773 0.333559 4.93392 0.92972 -0.470062)
(2.08056 1.23633 -0.413661 -6.5889 0.227143 0.793656 -0.485595 -2.07397 -2.03162)
(-0.218844 0.918168 -0.271014 -1.02717 0.466286 -0.5547 -2.21469 -0.751524 0.208417)
(-0.362726 -0.265666 0.0713614 1.70044 -1.46752 -1.17107 -0.933894 -1.04021 0.872511)
(0.823367 0.35165 0.182738 -0.329825 -1.72109 0.42624 4.48784 1.09111 0.313581)
(-0.52304 -0.00939953 -0.081598 8.77174 0.43717 1.15785 0.876332 -2.18058 0.269603)
(-0.978368 -0.64254 0.115102 2.34502 1.43215 -0.602051 -1.65645 -2.63108 -0.703285)
(2.40182 -0.289372 0.726709 3.24298 -0.0328526 -0.365344 3.42379 1.06263 -2.15184)
(-0.622421 -0.393505 0.339718 6.0386 1.42235 0.430645 4.17985 1.53643 -0.634282)
(-2.35881 0.474947 -0.947172 5.46865 1.95216 1.82943 6.53591 0.911314 0.0325737)
(-0.53387 0.112079 -0.95653 2.01635 -0.934378 1.47787 1.42837 -0.187529 0.981642)
(1.45341 0.386537 0.0500119 -3.2194 -2.81761 -1.20633 -0.384183 -2.96765 0.0137963)
(3.12519 1.35394 0.712393 -0.933737 -2.74377 -1.31322 -2.51241 -0.507808 0.465952)
(-1.42603 -1.08951 0.142355 6.8516 0.850116 0.0764996 6.70752 5.08529 1.40558)
(-1.64983 -0.821858 -0.578268 1.83533 2.05795 0.26953 1.20179 0.752672 -0.277063)