/*--------------------------------*- C++ -*----------------------------------*\
  =========                 |
  \\      /  F ield         | OpenFOAM: The Open Source CFD Toolbox
   \\    /   O peration     | Website:  https://openfoam.org
    \\  /    A nd           | Version:  10
     \\/     M anipulation  |
\*---------------------------------------------------------------------------*/
FoamFile
{
    format      ascii;
    class       surfaceScalarField;
    location    "30";
    object      phi;
}
// * * * * * * * * * * * * * * * * * * * * * * * * * * * * * * * * * * * * * //

dimensions      [0 3 -1 0 0 0 0];

internalField   nonuniform List<scalar> 
74080
(
9.10395e-06
5.69788e-09
-1.08737e-08
9.10462e-06
7.06594e-09
-8.7722e-09
9.10499e-06
7.91955e-09
-1.08835e-08
9.10507e-06
1.00184e-08
-1.16421e-08
9.10491e-06
8.34413e-09
-1.20249e-08
9.10762e-06
6.08204e-09
-9.36136e-09
9.10672e-06
9.51455e-09
-1.44206e-08
9.10679e-06
8.62066e-09
-1.059e-08
9.10802e-06
9.7229e-09
-1.4507e-08
9.11035e-06
6.13534e-09
-1.36316e-08
9.10609e-06
1.2594e-08
-1.08392e-08
9.1128e-06
3.12794e-09
-1.48816e-08
9.10682e-06
1.41316e-08
-1.44176e-08
9.11265e-06
4.42538e-09
-1.28373e-08
9.1104e-06
1.07374e-08
-1.53722e-08
9.10709e-06
1.16554e-08
-1.28925e-08
9.11951e-06
-4.38829e-09
-1.3109e-08
9.10088e-06
2.80542e-08
-1.32393e-08
9.11896e-06
-1.05052e-08
-1.54719e-08
9.11192e-06
1.64153e-08
-9.71721e-09
9.10329e-06
1.47931e-08
-1.52617e-08
9.12362e-06
-1.15352e-08
-9.53773e-09
9.10357e-06
2.88949e-08
-1.41295e-08
9.11109e-06
-1.04133e-10
-1.05661e-08
9.11841e-06
1.49733e-09
-1.22398e-08
9.10382e-06
2.01026e-08
-9.43056e-09
9.11248e-06
-1.39656e-09
-9.64595e-09
9.11304e-06
8.1821e-09
-1.23351e-08
9.1054e-06
1.45895e-08
-8.97415e-09
9.10918e-06
3.25849e-09
-8.55936e-09
9.1098e-06
4.45137e-09
-1.0051e-08
9.1065e-06
9.89609e-09
-7.26043e-09
9.10338e-06
9.82672e-09
-8.77439e-09
9.11029e-06
1.2996e-09
-1.16035e-08
9.10232e-06
1.4065e-08
-7.04023e-09
9.10357e-06
5.0092e-09
-7.21975e-09
9.10827e-06
1.66446e-09
-1.16614e-08
9.09948e-06
1.67009e-08
-5.83443e-09
9.10679e-06
8.14406e-10
-1.32725e-08
1.2109e-08
-7.18474e-09
3.08547e-05
2.41446e-08
-3.62187e-08
3.08541e-05
3.351e-08
-2.78633e-08
3.0856e-05
3.19058e-08
-3.68079e-08
3.08564e-05
3.97438e-08
-3.44982e-08
3.08579e-05
3.19327e-08
-3.79945e-08
3.08621e-05
3.03348e-08
-3.24176e-08
3.08614e-05
3.70008e-08
-4.39524e-08
3.08634e-05
3.50754e-08
-3.45304e-08
3.08665e-05
3.77127e-08
-4.57517e-08
3.08698e-05
2.94332e-08
-3.94216e-08
3.08658e-05
4.37466e-08
-4.02542e-08
3.08759e-05
2.22793e-08
-4.47676e-08
3.08678e-05
4.82981e-08
-4.45634e-08
3.08785e-05
2.39139e-08
-4.17118e-08
3.08729e-05
4.19816e-08
-4.68545e-08
3.08736e-05
3.82882e-08
-4.07785e-08
3.08867e-05
7.70664e-09
-4.28683e-08
3.08635e-05
7.99202e-08
-4.17085e-08
3.08919e-05
-1.49383e-08
-4.49489e-08
3.08745e-05
6.21415e-08
-3.46164e-08
3.08727e-05
3.82992e-08
-4.55438e-08
3.08945e-05
-5.45512e-09
-3.17977e-08
3.08663e-05
8.25262e-08
-4.38162e-08
3.08836e-05
7.38878e-09
-3.2083e-08
3.08855e-05
2.49915e-08
-3.9374e-08
3.08686e-05
5.73826e-08
-2.95811e-08
3.08816e-05
9.65313e-09
-3.47008e-08
3.08776e-05
3.72056e-08
-3.44153e-08
3.08685e-05
4.54214e-08
-3.02201e-08
3.08731e-05
2.03822e-08
-2.85933e-08
3.08709e-05
2.50009e-08
-3.18728e-08
3.08646e-05
3.77696e-08
-2.5199e-08
3.08609e-05
3.4409e-08
-3.05415e-08
3.08678e-05
1.83911e-08
-3.18311e-08
3.08539e-05
4.67247e-08
-2.5013e-08
3.0858e-05
2.20745e-08
-2.69956e-08
3.08595e-05
2.08609e-08
-3.34575e-08
3.08484e-05
5.2204e-08
-2.35256e-08
3.08588e-05
1.43839e-08
-3.83428e-08
4.53618e-08
-2.42812e-08
5.86874e-05
6.03565e-08
-6.45791e-08
5.86854e-05
8.18005e-08
-5.00903e-08
5.86876e-05
7.45783e-08
-6.57988e-08
5.86882e-05
9.15801e-08
-5.95936e-08
5.86905e-05
7.38451e-08
-6.7467e-08
5.86955e-05
7.60068e-08
-5.78029e-08
5.8696e-05
8.37874e-08
-7.6319e-08
5.86995e-05
8.24769e-08
-6.13463e-08
5.87046e-05
8.55326e-08
-7.97585e-08
5.8709e-05
7.30073e-08
-6.79562e-08
5.87065e-05
9.4712e-08
-7.40989e-08
5.87187e-05
6.15573e-08
-7.66467e-08
5.87112e-05
1.02459e-07
-7.91239e-08
5.87246e-05
6.33665e-08
-7.41944e-08
5.87187e-05
9.34236e-08
-8.24417e-08
5.8722e-05
8.44413e-08
-7.33132e-08
5.87353e-05
3.96051e-08
-7.74452e-08
5.87127e-05
1.5348e-07
-7.4629e-08
5.8744e-05
-2.98513e-09
-7.9256e-08
5.87242e-05
1.32533e-07
-6.52347e-08
5.87264e-05
7.68859e-08
-8.01904e-08
5.87476e-05
2.37715e-08
-6.026e-08
5.87193e-05
1.55831e-07
-7.80073e-08
5.87397e-05
3.29394e-08
-5.9094e-08
5.87401e-05
7.00013e-08
-7.24019e-08
5.87236e-05
1.13315e-07
-5.47137e-08
5.8738e-05
3.96604e-08
-6.62095e-08
5.87324e-05
8.76925e-08
-6.06505e-08
5.87233e-05
9.45992e-08
-5.85985e-08
5.87271e-05
5.64961e-08
-5.28323e-08
5.87226e-05
6.4678e-08
-5.9846e-08
5.87144e-05
8.54588e-08
-4.7866e-08
5.87092e-05
7.75857e-08
-5.764e-08
5.87138e-05
5.61144e-08
-5.54822e-08
5.86966e-05
9.7914e-08
-4.88892e-08
5.86997e-05
5.80185e-08
-5.01105e-08
5.86974e-05
5.99993e-08
-5.94214e-08
5.8685e-05
1.08088e-07
-4.54089e-08
5.86939e-05
4.63746e-08
-6.57029e-08
1.00434e-07
-4.59871e-08
9.3589e-05
1.18261e-07
-9.64333e-08
9.35839e-05
1.55225e-07
-7.47656e-08
9.35845e-05
1.38444e-07
-9.60894e-08
9.35838e-05
1.68887e-07
-8.6837e-08
9.35852e-05
1.37267e-07
-9.873e-08
9.35895e-05
1.45968e-07
-8.32927e-08
9.35905e-05
1.52341e-07
-1.10161e-07
9.35943e-05
1.53812e-07
-8.86185e-08
9.36016e-05
1.55623e-07
-1.14791e-07
9.36062e-05
1.39832e-07
-9.70488e-08
9.36058e-05
1.67411e-07
-1.0852e-07
9.36198e-05
1.24465e-07
-1.10201e-07
9.36134e-05
1.78051e-07
-1.14531e-07
9.36297e-05
1.26063e-07
-1.08826e-07
9.36242e-05
1.67024e-07
-1.20384e-07
9.36301e-05
1.52981e-07
-1.09208e-07
9.36439e-05
9.38056e-08
-1.14922e-07
9.36234e-05
2.5079e-07
-1.11903e-07
9.36568e-05
2.89249e-08
-1.18026e-07
9.36363e-05
2.29189e-07
-1.00207e-07
9.36422e-05
1.3377e-07
-1.20495e-07
9.36636e-05
7.89319e-08
-9.3655e-08
9.36374e-05
2.50783e-07
-1.18117e-07
9.36606e-05
7.99415e-08
-9.12646e-08
9.3662e-05
1.39083e-07
-1.12468e-07
9.36469e-05
1.90452e-07
-8.50456e-08
9.36641e-05
9.19812e-08
-1.04478e-07
9.36591e-05
1.6231e-07
-9.30277e-08
9.36518e-05
1.64869e-07
-9.4205e-08
9.3656e-05
1.15685e-07
-8.28957e-08
9.36505e-05
1.26412e-07
-9.52001e-08
9.36418e-05
1.56108e-07
-7.59156e-08
9.36353e-05
1.43095e-07
-9.14043e-08
9.36382e-05
1.18448e-07
-8.51121e-08
9.36176e-05
1.70352e-07
-7.78898e-08
9.36185e-05
1.17431e-07
-7.75264e-08
9.36112e-05
1.21715e-07
-9.03222e-08
9.35967e-05
1.88245e-07
-7.13902e-08
9.36017e-05
1.00314e-07
-9.61424e-08
1.7982e-07
-7.05502e-08
0.000136493
2.01681e-07
-1.33137e-07
0.000136483
2.57409e-07
-1.02492e-07
0.000136479
2.26448e-07
-1.27208e-07
0.000136475
2.74258e-07
-1.1541e-07
0.000136473
2.26232e-07
-1.32377e-07
0.000136474
2.4365e-07
-1.0788e-07
0.000136473
2.45119e-07
-1.43666e-07
0.000136474
2.52473e-07
-1.15173e-07
0.000136483
2.51279e-07
-1.49541e-07
0.000136485
2.33458e-07
-1.24615e-07
0.000136487
2.63444e-07
-1.39375e-07
0.000136501
2.15922e-07
-1.45695e-07
0.000136495
2.76488e-07
-1.4563e-07
0.000136514
2.15394e-07
-1.42964e-07
0.000136509
2.65211e-07
-1.57347e-07
0.000136517
2.46442e-07
-1.45245e-07
0.000136531
1.73091e-07
-1.51509e-07
0.000136514
3.73511e-07
-1.51047e-07
0.000136548
8.44469e-08
-1.58187e-07
0.000136528
3.53344e-07
-1.36189e-07
0.000136537
2.12085e-07
-1.6524e-07
0.000136559
1.61618e-07
-1.27539e-07
0.000136537
3.70445e-07
-1.64778e-07
0.000136562
1.50383e-07
-1.24177e-07
0.000136566
2.35192e-07
-1.59289e-07
0.000136554
2.90502e-07
-1.18339e-07
0.000136576
1.69474e-07
-1.48185e-07
0.000136574
2.64059e-07
-1.30825e-07
0.000136571
2.57133e-07
-1.34364e-07
0.000136578
2.02025e-07
-1.19656e-07
0.000136574
2.12922e-07
-1.37169e-07
0.000136568
2.51852e-07
-1.08873e-07
0.000136563
2.33545e-07
-1.31652e-07
0.000136566
2.1028e-07
-1.23121e-07
0.000136544
2.64911e-07
-1.10512e-07
0.000136543
2.05947e-07
-1.12317e-07
0.000136531
2.07396e-07
-1.24362e-07
0.000136516
2.96004e-07
-1.03376e-07
0.000136515
1.81348e-07
-1.3168e-07
2.84483e-07
-9.53427e-08
0.000188161
3.1173e-07
-1.72477e-07
0.000188145
3.90363e-07
-1.34636e-07
0.000188137
3.42895e-07
-1.61293e-07
0.000188128
4.08123e-07
-1.4286e-07
0.00018812
3.42341e-07
-1.68928e-07
0.000188113
3.74527e-07
-1.35208e-07
0.000188112
3.63252e-07
-1.74599e-07
0.000188104
3.80755e-07
-1.40688e-07
0.000188114
3.76004e-07
-1.84865e-07
0.000188108
3.59134e-07
-1.52707e-07
0.000188111
3.82179e-07
-1.59976e-07
0.000188123
3.41327e-07
-1.86289e-07
0.000188114
4.01907e-07
-1.71132e-07
0.000188134
3.32769e-07
-1.71261e-07
0.000188128
3.92007e-07
-1.92427e-07
0.000188139
3.67965e-07
-1.77563e-07
0.000188148
2.7992e-07
-1.82289e-07
0.000188136
5.2406e-07
-1.88755e-07
0.000188168
1.68395e-07
-1.95505e-07
0.000188149
5.04049e-07
-1.66182e-07
0.00018816
3.18397e-07
-2.14279e-07
0.000188179
2.70832e-07
-1.51335e-07
0.000188164
5.1792e-07
-2.17526e-07
0.000188187
2.47716e-07
-1.51662e-07
0.000188196
3.6051e-07
-2.08091e-07
0.000188185
4.15342e-07
-1.50543e-07
0.000188211
2.72862e-07
-1.90955e-07
0.000188213
3.99046e-07
-1.73749e-07
0.000188217
3.69512e-07
-1.70129e-07
0.00018823
3.17879e-07
-1.59695e-07
0.000188227
3.28141e-07
-1.8345e-07
0.000188231
3.73692e-07
-1.42809e-07
0.000188228
3.47304e-07
-1.714e-07
0.000188237
3.39292e-07
-1.72823e-07
0.000188219
3.77499e-07
-1.3899e-07
0.00018822
3.29004e-07
-1.57784e-07
0.000188206
3.20215e-07
-1.59831e-07
0.000188194
4.27736e-07
-1.36125e-07
0.000188187
2.97833e-07
-1.78915e-07
4.14346e-07
-1.17285e-07
0.000249021
4.49032e-07
-2.0726e-07
0.000249006
5.49255e-07
-1.6318e-07
0.000248996
4.88856e-07
-1.99247e-07
0.000248984
5.75852e-07
-1.70987e-07
0.000248978
4.76658e-07
-1.95591e-07
0.000248958
5.42118e-07
-1.71648e-07
0.00024896
5.1007e-07
-2.04205e-07
0.00024894
5.35143e-07
-1.59022e-07
0.000248955
5.27628e-07
-2.1831e-07
0.000248935
5.24734e-07
-1.92486e-07
0.000248935
5.22435e-07
-1.62388e-07
0.000248948
4.95712e-07
-2.27649e-07
0.00024893
5.63998e-07
-2.03053e-07
0.000248951
4.76824e-07
-1.85159e-07
0.000248941
5.46594e-07
-2.26241e-07
0.000248951
5.25735e-07
-2.09395e-07
0.000248956
4.12651e-07
-2.00456e-07
0.000248947
7.02449e-07
-2.23712e-07
0.000248971
2.93555e-07
-2.3328e-07
0.000248955
6.71606e-07
-1.74918e-07
0.000248965
4.63928e-07
-2.76228e-07
0.000248976
4.09993e-07
-1.55042e-07
0.000248968
6.89606e-07
-2.68806e-07
0.000248983
3.79483e-07
-1.73246e-07
0.000248994
5.16289e-07
-2.49645e-07
0.000248983
5.72413e-07
-1.82353e-07
0.000249009
3.95965e-07
-2.1579e-07
0.000249013
5.77393e-07
-2.25823e-07
0.000249018
5.04865e-07
-1.9343e-07
0.00024904
4.60215e-07
-1.90058e-07
0.000249032
4.76451e-07
-2.29421e-07
0.000249048
5.31249e-07
-1.78459e-07
0.000249051
4.73515e-07
-1.88084e-07
0.000249064
5.16522e-07
-2.38849e-07
0.000249056
5.07482e-07
-1.51846e-07
0.000249063
4.78488e-07
-2.00206e-07
0.000249051
4.7473e-07
-2.06858e-07
0.000249051
5.7187e-07
-1.49386e-07
0.000249044
4.53115e-07
-2.37386e-07
5.71786e-07
-1.37717e-07
0.000319027
6.1751e-07
-2.34716e-07
0.000319014
7.43095e-07
-1.80086e-07
0.000319017
6.40638e-07
-2.09755e-07
0.000318997
7.9182e-07
-2.1576e-07
0.000319009
6.29077e-07
-1.94138e-07
0.000318977
7.27799e-07
-1.95439e-07
0.000318989
6.94279e-07
-2.44402e-07
0.000318958
7.15152e-07
-1.62035e-07
0.000318982
6.89035e-07
-2.24133e-07
0.000318962
7.26321e-07
-2.49071e-07
0.000318943
7.00311e-07
-1.58539e-07
0.000318973
6.5778e-07
-2.37728e-07
0.000318942
7.5803e-07
-2.52312e-07
0.000318958
6.57895e-07
-1.86904e-07
0.000318954
7.04956e-07
-2.38785e-07
0.000318957
7.27441e-07
-2.55353e-07
0.000318957
5.77685e-07
-2.0498e-07
0.000318958
8.79321e-07
-2.35626e-07
0.000318965
4.83642e-07
-2.97098e-07
0.000318958
8.44843e-07
-1.41794e-07
0.000318968
6.39141e-07
-3.50745e-07
0.000318963
5.9862e-07
-1.55547e-07
0.000318968
8.7328e-07
-3.00447e-07
0.00031897
5.5071e-07
-1.9648e-07
0.000318978
6.93163e-07
-2.66976e-07
0.000318967
7.79838e-07
-2.33676e-07
0.000318984
5.33217e-07
-2.04666e-07
0.000318991
7.95366e-07
-2.8086e-07
0.000318983
6.77213e-07
-2.14301e-07
0.000319015
6.29968e-07
-2.01027e-07
0.000318993
6.47671e-07
-2.53469e-07
0.000319013
7.46953e-07
-2.39172e-07
0.00031902
6.09074e-07
-1.60615e-07
0.000319025
7.32587e-07
-3.04049e-07
0.000319029
6.83385e-07
-1.70279e-07
0.000319039
6.3301e-07
-1.95339e-07
0.000319029
6.82121e-07
-2.76267e-07
0.000319043
7.31789e-07
-1.34994e-07
0.000319038
6.43786e-07
-2.8516e-07
7.53616e-07
-1.51654e-07
0.000397612
7.85535e-07
-2.21938e-07
0.000397578
1.01225e-06
-2.29975e-07
0.000397607
7.98459e-07
-1.54408e-07
0.000397575
1.01933e-06
-2.44109e-07
0.000397602
8.36402e-07
-1.97137e-07
0.000397569
9.17287e-07
-1.53755e-07
0.000397591
9.03632e-07
-2.85237e-07
0.000397557
9.41271e-07
-1.68411e-07
0.000397574
8.55107e-07
-1.72634e-07
0.000397586
9.23357e-07
-2.69186e-07
0.000397539
9.24131e-07
-1.74454e-07
0.000397578
8.50226e-07
-2.05885e-07
0.00039756
9.38167e-07
-2.76136e-07
0.000397552
8.95266e-07
-2.01222e-07
0.000397565
8.49156e-07
-1.89991e-07
0.000397573
9.22532e-07
-2.83759e-07
0.000397551
8.2346e-07
-2.38737e-07
0.000397587
1.0123e-06
-1.73007e-07
0.000397565
7.14104e-07
-3.85986e-07
0.000397571
1.03589e-06
-7.79527e-08
0.000397599
7.92792e-07
-3.84024e-07
0.000397576
8.51758e-07
-1.8715e-07
0.000397601
1.05635e-06
-2.96789e-07
0.000397594
7.65438e-07
-2.39124e-07
0.000397596
8.59933e-07
-2.22624e-07
0.000397598
1.02493e-06
-3.12653e-07
0.000397602
7.03473e-07
-1.7926e-07
0.00039762
1.03309e-06
-3.16589e-07
0.000397593
8.79937e-07
-2.36278e-07
0.000397628
8.33791e-07
-2.13814e-07
0.000397597
8.25201e-07
-2.22239e-07
0.000397604
1.00471e-06
-3.28038e-07
0.000397627
7.94382e-07
-1.37556e-07
0.000397604
9.51208e-07
-3.09923e-07
0.000397614
9.20179e-07
-2.36377e-07
0.000397613
7.99544e-07
-1.33915e-07
0.000397593
9.41781e-07
-3.51887e-07
0.00039762
9.18044e-07
-1.10706e-07
0.000397606
8.68432e-07
-3.08162e-07
9.74237e-07
-1.56203e-07
0.000483703
9.31889e-07
-1.14331e-07
0.00048364
1.29286e-06
-3.01972e-07
0.000483667
1.0742e-06
-1.54407e-07
0.000483633
1.24021e-06
-1.86606e-07
0.000483652
1.06678e-06
-2.23502e-07
0.000483625
1.12539e-06
-4.49404e-08
0.000483644
1.11093e-06
-2.67414e-07
0.000483629
1.23747e-06
-2.18659e-07
0.000483605
1.07959e-06
-1.09046e-07
0.000483641
1.10837e-06
-1.98213e-07
0.0004836
1.10247e-06
-1.29937e-07
0.000483613
1.11913e-06
-1.7716e-07
0.000483624
1.13206e-06
-2.49624e-07
0.000483589
1.16889e-06
-2.28944e-07
0.000483574
1.041e-06
-1.15082e-07
0.000483629
1.00849e-06
-1.63854e-07
0.000483555
1.13139e-06
-3.09069e-07
0.000483634
1.17159e-06
-7.14504e-08
0.000483586
9.32001e-07
-4.28122e-07
0.00048357
1.26112e-06
-2.28616e-08
0.000483638
8.49586e-07
-2.75684e-07
0.000483599
1.13539e-06
-2.28933e-07
0.000483658
1.23202e-06
-2.41385e-07
0.000483656
1.02765e-06
-3.26689e-07
0.000483642
1.01838e-06
-1.05928e-07
0.000483671
1.21384e-06
-3.28996e-07
0.000483674
8.95237e-07
-1.56933e-07
0.000483726
1.29034e-06
-3.36022e-07
0.000483704
1.10159e-06
-2.46992e-07
0.000483727
1.03631e-06
-2.29213e-07
0.000483719
9.90347e-07
-1.34074e-07
0.000483696
1.2375e-06
-3.5924e-07
0.000483764
1.05324e-06
-2.02402e-07
0.000483722
1.17264e-06
-2.46509e-07
0.00048373
1.17796e-06
-3.28482e-07
0.000483735
9.51639e-07
-3.8563e-08
0.000483684
1.22095e-06
-4.09724e-07
0.000483716
1.18509e-06
-1.40191e-07
0.000483702
1.09673e-06
-2.89543e-07
1.25637e-06
-2.03215e-07
0.000575736
1.08687e-06
3.17707e-09
0.000575686
1.4028e-06
-1.71921e-07
0.000575703
1.36051e-06
-2.69847e-07
0.000575675
1.61468e-06
-2.04466e-07
0.000575664
1.35401e-06
-2.95113e-07
0.000575635
1.32918e-06
7.02555e-08
0.000575641
1.1988e-06
-6.00202e-08
0.000575669
1.54047e-06
-2.71064e-07
0.000575636
1.4354e-06
-1.56728e-07
0.000575638
1.42536e-06
-1.91818e-07
0.000575607
1.18914e-06
5.44115e-08
0.000575608
1.26774e-06
-1.45339e-08
0.00057563
1.36054e-06
-1.97779e-07
0.000575631
1.51092e-06
-2.7453e-07
0.000575512
1.41279e-06
-1.8418e-07
0.000575589
1.02336e-06
9.92134e-08
0.000575466
1.29841e-06
-2.0296e-07
0.000575557
1.36751e-06
1.30904e-08
0.00057553
1.1903e-06
-4.21988e-07
0.000575417
1.63157e-06
-8.40745e-08
0.000575485
8.1642e-07
-1.71116e-09
0.000575408
1.27746e-06
-1.29492e-07
0.00057549
1.36469e-06
-7.29719e-08
0.000575525
1.33321e-06
-4.41165e-07
0.000575472
1.28974e-06
-5.93041e-08
0.000575492
1.31007e-06
-1.9024e-07
0.000575494
9.52944e-07
-3.83235e-09
0.000575566
1.50732e-06
-2.94339e-07
0.000575618
1.40479e-06
-2.85101e-07
0.00057561
1.27402e-06
-2.50899e-07
0.000575645
1.10081e-06
-7.85402e-09
0.000575599
1.29687e-06
-1.60165e-07
0.000575711
1.2829e-06
-2.92089e-07
0.000575715
1.46808e-06
-2.03815e-07
0.000575721
1.4583e-06
-4.28472e-07
0.000575749
1.05668e-06
8.47439e-08
0.000575707
1.31584e-06
-2.724e-07
0.000575746
1.45842e-06
-2.53954e-07
0.000575764
1.41466e-06
-3.00852e-07
1.5885e-06
-3.33539e-07
0.000671912
1.44587e-06
-1.4823e-07
0.000671839
1.38059e-06
1.82463e-07
0.000671859
1.21529e-06
-4.55102e-08
0.000671906
1.88276e-06
-2.77818e-07
0.000671918
1.84498e-06
-5.83411e-07
0.000671867
1.76888e-06
-1.09109e-07
0.0006718
1.14677e-06
3.20242e-07
0.000671852
1.49068e-06
-5.99294e-09
0.000671902
1.68976e-06
-1.81345e-07
0.000671951
2.00294e-06
-4.70359e-07
0.00067188
1.53635e-06
1.29748e-08
0.000671848
1.22022e-06
3.8302e-07
0.00067184
1.26227e-06
1.35922e-07
0.00067198
1.70748e-06
-2.0388e-07
0.000671871
2.03549e-06
-5.00534e-07
0.000671907
1.32246e-06
9.00385e-08
0.000671722
1.29355e-06
1.61094e-07
0.000671733
1.29427e-06
2.96412e-07
0.000671809
1.32234e-06
-2.76882e-07
0.000671662
2.25325e-06
-4.02715e-07
0.000671669
1.04875e-06
1.03077e-07
0.000671475
1.24795e-06
1.81734e-07
0.000671486
1.17984e-06
3.87187e-07
0.000671562
1.46777e-06
-3.71115e-07
0.000671538
1.78007e-06
-2.43872e-07
0.00067148
1.63505e-06
-1.71549e-07
0.000671417
8.55653e-07
3.56174e-07
0.000671415
1.35656e-06
9.01008e-08
0.000671554
1.62053e-06
-2.72581e-07
0.000671555
1.72455e-06
-3.9753e-07
0.00067158
1.40307e-06
-4.67096e-08
0.000671486
1.1911e-06
3.1778e-07
0.000671587
1.1095e-06
-1.83629e-08
0.000671679
1.65922e-06
-1.30099e-07
0.000671731
1.90674e-06
-6.12124e-07
0.000671767
1.35226e-06
1.39576e-08
0.000671694
1.22569e-06
1.73513e-07
0.000671769
1.29082e-06
-2.19223e-08
0.000671864
1.61533e-06
-3.03909e-07
2.06967e-06
-6.01628e-07
0.000770685
2.04438e-06
-6.83234e-07
0.000770623
1.73466e-06
2.08087e-07
0.000770517
8.24905e-07
6.27079e-07
0.000770561
1.48104e-06
1.90904e-07
0.000770704
1.99544e-06
-7.7665e-07
0.000770805
2.4861e-06
-7.76635e-07
0.000770671
1.46876e-06
3.24235e-07
0.000770579
1.19842e-06
5.97336e-07
0.000770601
1.32682e-06
2.8794e-07
0.000770822
2.29037e-06
-6.97052e-07
0.000770892
2.26747e-06
-5.76075e-07
0.00077084
1.54894e-06
4.79032e-07
0.000770668
9.5146e-07
7.96409e-07
0.000770807
1.27011e-06
3.59951e-07
0.000770902
2.34703e-06
-6.90906e-07
0.00077106
1.99323e-06
-4.77372e-07
0.000770909
1.63731e-06
2.74425e-07
0.000770717
1.03361e-06
8.33357e-07
0.000770798
8.86436e-07
3.12652e-07
0.000770764
2.58253e-06
-6.60218e-07
0.000770882
1.69516e-06
-3.52919e-07
0.000770618
1.61313e-06
2.36912e-07
0.000770414
8.41288e-07
1.07863e-06
0.000770382
1.00485e-06
2.40838e-07
0.000770475
1.96114e-06
-3.84881e-07
0.000770487
2.30216e-06
-5.95675e-07
0.00077035
1.16564e-06
4.27734e-07
0.000770115
9.87317e-07
8.48525e-07
0.000770182
1.22551e-06
2.23307e-07
0.000770278
1.94739e-06
-5.08359e-07
0.000770364
2.04515e-06
-5.33734e-07
0.000770196
1.48566e-06
5.06905e-07
0.000770095
7.19848e-07
7.1383e-07
0.000770157
1.23968e-06
4.3031e-07
0.000770299
2.07948e-06
-6.57419e-07
0.000770474
1.94757e-06
-4.80809e-07
0.00077032
1.5266e-06
3.68026e-07
0.000770259
8.72739e-07
7.1054e-07
0.000770307
1.18353e-06
2.444e-07
2.23852e-06
-7.27662e-07
0.000871153
2.17063e-06
-1.18288e-06
0.000871332
2.32355e-06
-4.22357e-07
0.000871173
8.90374e-07
1.05049e-06
0.000871005
9.06419e-07
1.28302e-06
0.000871083
1.39447e-06
-2.18277e-07
0.000871424
2.66914e-06
-1.43888e-06
0.000871495
2.03195e-06
-3.82652e-07
0.000871309
1.30799e-06
9.30888e-07
0.000871071
7.91549e-07
1.27346e-06
0.00087122
1.82496e-06
-2.60796e-07
0.000871538
2.54892e-06
-1.29314e-06
0.000871706
2.16382e-06
-1.78585e-07
0.000871457
1.09654e-06
1.22738e-06
0.000871318
6.628e-07
1.44405e-06
0.000871415
1.90725e-06
-1.69784e-07
0.000871785
2.21809e-06
-1.15677e-06
0.000871938
2.22834e-06
-3.02117e-07
0.000871678
1.17321e-06
1.16274e-06
0.000871567
2.89618e-07
1.37166e-06
0.000871506
2.16018e-06
-2.46392e-07
0.000871849
1.90955e-06
-1.0059e-06
0.000871833
2.25838e-06
-4.10259e-07
0.000871546
9.78024e-07
1.4356e-06
0.000871228
4.35418e-07
1.34997e-06
0.00087124
1.41044e-06
1.18843e-07
0.000871461
2.50454e-06
-1.15053e-06
0.000871525
1.77159e-06
-2.45534e-07
0.000871172
1.07734e-06
1.33115e-06
0.00087093
6.69e-07
1.25305e-06
0.000870969
1.46834e-06
-3.78778e-08
0.000871215
2.26534e-06
-1.14596e-06
0.000871213
2.06691e-06
-9.22145e-08
0.000870942
8.03162e-07
1.17163e-06
0.000870748
6.934e-07
1.48589e-06
0.00087076
1.60471e-06
-6.82702e-08
0.000871133
2.09879e-06
-1.03888e-06
0.000871141
2.10932e-06
-1.72527e-07
0.000870954
9.24539e-07
1.20465e-06
0.000870722
6.02057e-07
1.38461e-06
1.74176e-06
-1.77683e-07
0.000973762
1.69736e-06
-9.32497e-07
0.000974131
2.36903e-06
-1.17046e-06
0.00097417
1.07965e-06
6.11558e-07
0.000973906
7.64184e-07
2.04004e-06
0.000973716
7.78561e-07
1.0319e-06
0.000973999
2.15659e-06
-1.21913e-06
0.000974321
2.01416e-06
-1.19696e-06
0.000974325
1.47695e-06
4.67279e-07
0.000973984
6.46645e-07
1.96658e-06
0.000973817
1.2726e-06
8.67896e-07
0.000974076
2.13621e-06
-1.20675e-06
0.000974479
2.20486e-06
-1.08963e-06
0.00097445
1.36174e-06
7.73685e-07
0.000974161
4.74122e-07
2.18253e-06
0.000973996
1.40386e-06
1.02302e-06
0.000974275
1.77863e-06
-1.02141e-06
0.000974697
2.26656e-06
-1.10511e-06
0.000974663
1.3936e-06
7.04772e-07
0.000974483
8.215e-08
2.08416e-06
0.000974222
1.64404e-06
8.73415e-07
0.000974505
1.45505e-06
-9.06458e-07
0.000974783
2.33887e-06
-1.26772e-06
0.00097474
1.21769e-06
8.94623e-07
0.000974347
3.16783e-07
2.03918e-06
0.000974086
8.40634e-07
1.23189e-06
0.00097427
2.02698e-06
-9.52487e-07
0.000974595
1.82449e-06
-1.1381e-06
0.000974487
1.27481e-06
8.92716e-07
0.000974102
5.28556e-07
1.97581e-06
0.000973896
9.28179e-07
1.036e-06
0.000974093
1.83401e-06
-1.03746e-06
0.000974341
2.10652e-06
-9.58548e-07
0.00097422
1.01547e-06
7.20739e-07
0.000973923
5.36329e-07
2.1441e-06
0.000973641
1.11867e-06
1.07194e-06
0.000973928
1.64217e-06
-8.8166e-07
0.000974163
2.16438e-06
-9.62701e-07
0.000974135
1.1102e-06
7.81899e-07
0.000973792
4.46137e-07
2.16806e-06
1.22936e-06
9.77574e-07
0.00108022
1.15454e-06
-1.13612e-07
0.00108048
1.91554e-06
-1.18037e-06
0.00108066
9.0802e-07
-5.84902e-08
0.00108053
7.39654e-07
1.78258e-06
0.00108027
5.12712e-07
1.78342e-06
0.00108032
1.55519e-06
-3.11539e-07
0.00108059
1.48953e-06
-1.21042e-06
0.00108076
1.24735e-06
-1.88698e-07
0.0010806
5.83135e-07
1.73868e-06
0.00108033
9.87576e-07
1.60201e-06
0.00108035
1.59378e-06
-3.7905e-07
0.00108067
1.68935e-06
-1.22468e-06
0.00108082
1.24113e-06
2.45555e-08
0.00108068
3.90367e-07
1.91585e-06
0.00108043
1.17551e-06
1.74953e-06
0.00108045
1.23103e-06
-1.90247e-07
0.00108079
1.78911e-06
-1.17751e-06
0.00108092
1.25011e-06
1.74647e-08
0.00108089
-1.99094e-08
1.82919e-06
0.00108061
1.38189e-06
1.58947e-06
0.00108066
8.93077e-07
-1.09848e-07
0.00108091
1.88238e-06
-1.34348e-06
0.00108106
1.08185e-06
1.27439e-07
0.00108088
3.12354e-07
1.72204e-06
0.00108057
5.92141e-07
1.84923e-06
0.00108056
1.45076e-06
-1.24528e-07
0.00108083
1.36257e-06
-1.26011e-06
0.00108096
1.09017e-06
1.50614e-07
0.00108076
5.05407e-07
1.73307e-06
0.00108048
6.77358e-07
1.6877e-06
0.00108049
1.30621e-06
-2.84304e-07
0.00108073
1.62477e-06
-1.10932e-06
0.00108078
8.67782e-07
-9.54975e-09
0.00108066
4.57349e-07
1.82566e-06
0.00108033
9.14267e-07
1.70756e-06
0.00108039
1.11023e-06
-1.29211e-07
0.00108059
1.7184e-06
-1.06162e-06
0.00108072
9.37345e-07
3.64291e-08
0.00108056
3.98857e-07
1.92715e-06
1.00669e-06
1.65413e-06
0.00119271
7.12571e-07
4.14915e-07
0.00119278
1.35773e-06
-6.57111e-07
0.00119291
5.42066e-07
-2.62841e-07
0.00119292
6.19523e-07
1.09116e-06
0.00119278
3.74162e-07
1.58009e-06
0.00119272
1.0778e-06
3.08239e-07
0.00119281
8.97119e-07
-6.42315e-07
0.00119295
8.22904e-07
-3.65016e-07
0.00119296
4.19269e-07
1.11103e-06
0.00119282
7.83804e-07
1.45024e-06
0.00119273
1.13688e-06
2.42292e-07
0.00119285
1.06035e-06
-7.1633e-07
0.00119296
9.00915e-07
-2.53737e-07
0.00119298
2.11644e-07
1.20563e-06
0.00119285
1.01869e-06
1.54495e-06
0.00119276
7.68455e-07
3.92769e-07
0.0011929
1.20797e-06
-6.77294e-07
0.00119298
9.0879e-07
-2.0143e-07
0.00119306
-1.82789e-07
1.15166e-06
0.00119293
1.19904e-06
1.42504e-06
0.00119288
4.3566e-07
4.64806e-07
0.00119296
1.31347e-06
-8.08612e-07
0.00119307
7.42082e-07
-1.1909e-07
0.00119308
2.1861e-07
1.01543e-06
0.00119291
4.60555e-07
1.56919e-06
0.00119284
9.82252e-07
4.19943e-07
0.00119292
8.16232e-07
-7.73636e-07
0.00119305
7.13227e-07
-1.40864e-07
0.00119304
3.94411e-07
1.05748e-06
0.00119289
5.21215e-07
1.47873e-06
0.00119282
8.84467e-07
2.44143e-07
0.00119291
1.04925e-06
-6.71088e-07
0.00119297
5.34239e-07
-2.83526e-07
0.00119301
2.85927e-07
1.11655e-06
0.00119284
7.84511e-07
1.46505e-06
0.0011928
6.72246e-07
3.59958e-07
0.00119284
1.1816e-06
-6.01427e-07
0.00119295
5.7603e-07
-2.72577e-07
0.00119296
2.61595e-07
1.22444e-06
8.64723e-07
1.43837e-06
0.00131368
3.49774e-07
4.4414e-07
0.00131365
8.93267e-07
-2.05923e-07
0.0013137
2.27572e-07
-1.3753e-07
0.00131374
4.62902e-07
5.64883e-07
0.00131372
2.3201e-07
9.7144e-07
0.00131367
6.94372e-07
3.87114e-07
0.00131365
4.3932e-07
-1.52153e-07
0.00131369
4.76373e-07
-2.12948e-07
0.00131375
2.38632e-07
6.27995e-07
0.00131374
5.64363e-07
9.01534e-07
0.00131366
7.55541e-07
3.48089e-07
0.00131368
5.45767e-07
-2.31208e-07
0.00131369
6.08276e-07
-1.66732e-07
0.00131376
1.33036e-08
6.49208e-07
0.00131374
8.38057e-07
9.3781e-07
0.00131367
3.79737e-07
4.56086e-07
0.0013137
7.27079e-07
-2.291e-07
0.00131369
6.14254e-07
-9.36292e-08
0.00131377
-3.36724e-07
6.21936e-07
0.00131376
1.00843e-06
8.66753e-07
0.00131371
7.67627e-08
5.38745e-07
0.0013137
8.41501e-07
-3.19038e-07
0.00131373
4.48428e-07
-1.42548e-08
0.00131379
1.0333e-07
4.92645e-07
0.00131375
3.36017e-07
9.34767e-07
0.0013137
6.08566e-07
4.49217e-07
0.00131368
3.85888e-07
-3.14197e-07
0.00131372
3.98433e-07
-7.14928e-08
0.00131378
2.65003e-07
5.2078e-07
0.00131375
3.52371e-07
9.11368e-07
0.00131369
5.49562e-07
2.89636e-07
0.0013137
5.9079e-07
-2.4467e-07
0.00131369
2.63889e-07
-2.06002e-07
0.00131377
1.10881e-07
5.82811e-07
0.00131373
6.32947e-07
8.77527e-07
0.00131371
3.08144e-07
3.64835e-07
0.00131367
7.46782e-07
-1.75291e-07
0.0013137
2.74768e-07
-2.1838e-07
0.00131375
1.09647e-07
6.66415e-07
7.0005e-07
8.46622e-07
0.00144549
8.18054e-08
2.76056e-07
0.00144545
5.62553e-07
-1.24596e-08
0.00144546
2.90649e-08
-2.08879e-08
0.00144549
3.37614e-07
2.76982e-07
0.00144551
1.03967e-07
4.69846e-07
0.00144548
4.09811e-07
2.42466e-07
0.00144545
1.35451e-07
5.7943e-08
0.00144544
2.61627e-07
-7.05128e-08
0.00144548
1.06306e-07
3.61302e-07
0.00144551
3.67772e-07
4.35228e-07
0.00144547
4.65722e-07
2.20544e-07
0.00144547
1.8363e-07
-7.88876e-09
0.00144543
4.31248e-07
-5.34243e-08
0.00144549
-1.35606e-07
3.4104e-07
0.00144552
6.67767e-07
4.37178e-07
0.00144547
8.95736e-08
3.01811e-07
0.00144548
3.81865e-07
-3.48931e-08
0.00144544
4.30025e-07
1.47979e-08
0.00144548
-4.30674e-07
3.28649e-07
0.00144551
8.39877e-07
3.93039e-07
0.00144548
-1.75714e-07
3.94715e-07
0.00144546
5.0778e-07
-1.00152e-07
0.00144545
2.58521e-07
9.76338e-08
0.0014455
1.29002e-08
2.20848e-07
0.0014455
2.32596e-07
4.38374e-07
0.00144549
3.29682e-07
2.84305e-07
0.00144545
1.04428e-07
-1.08877e-07
0.00144544
2.01702e-07
2.94143e-08
0.0014455
1.73836e-07
2.17588e-07
0.00144551
2.02113e-07
4.45512e-07
0.00144548
2.98466e-07
1.4106e-07
0.00144547
2.78022e-07
-4.27526e-08
0.00144543
1.08728e-07
-9.95179e-08
0.0014455
-7.81527e-09
2.91945e-07
0.0014455
4.91385e-07
4.04869e-07
0.0014455
3.13471e-08
1.90189e-07
0.00144545
4.46051e-07
1.10417e-08
0.00144544
8.98867e-08
-1.2533e-07
0.00144547
6.85627e-09
3.54581e-07
5.4003e-07
3.71093e-07
0.00159009
-7.83325e-08
1.31693e-07
0.00159007
3.51767e-07
2.68137e-08
0.00159007
-7.92193e-08
2.91853e-09
0.00159009
2.4724e-07
1.36368e-07
0.00159011
9.22164e-09
1.92599e-07
0.0015901
2.25856e-07
1.15022e-07
0.00159007
-3.87636e-08
8.78386e-08
0.00159005
1.4972e-07
-2.99976e-08
0.00159008
1.70518e-08
2.21134e-07
0.00159011
2.18998e-07
1.72773e-07
0.00159009
2.78409e-07
9.5541e-08
0.00159009
-4.31216e-08
3.97034e-08
0.00159005
3.43952e-07
-2.20857e-08
0.00159008
-2.34997e-07
1.86602e-07
0.00159012
5.31052e-07
1.62328e-07
0.00159008
-8.33893e-08
1.61991e-07
0.0015901
1.5799e-07
1.31194e-09
0.00159006
3.30891e-07
3.44723e-08
0.00159007
-4.75184e-07
1.86906e-07
0.00159012
7.03149e-07
1.24498e-07
0.00159008
-3.15388e-07
2.57588e-07
0.00159008
2.94911e-07
-5.42259e-08
0.00159006
1.52345e-07
1.12763e-07
0.0015901
-5.07463e-08
9.28206e-08
0.0015901
1.61127e-07
1.6936e-07
0.0015901
1.48587e-07
1.45519e-07
0.00159007
-4.76462e-08
-6.3714e-08
0.00159004
9.35643e-08
5.43459e-08
0.0015901
1.11736e-07
6.60527e-08
0.00159011
9.28985e-08
1.97456e-07
0.0015901
1.39234e-07
9.14049e-09
0.00159009
9.17431e-08
1.3748e-08
0.00159004
3.56488e-08
-6.94962e-08
0.00159009
-7.96581e-08
1.50532e-07
0.0015901
3.77272e-07
1.52525e-07
0.0015901
-1.35956e-07
4.87256e-08
0.00159007
2.58903e-07
5.19509e-08
0.00159006
-1.01791e-08
-9.93632e-08
0.00159006
-4.89231e-08
2.01015e-07
4.00505e-07
1.16288e-07
0.00174908
-1.43536e-07
4.91113e-08
0.00174908
2.23383e-07
1.82084e-08
0.00174907
-1.28563e-07
-2.12327e-08
0.00174909
1.85352e-07
6.58651e-08
0.00174911
-4.74141e-08
5.75849e-08
0.0017491
1.27208e-07
4.93134e-08
0.00174908
-1.26128e-07
5.68942e-08
0.00174905
1.00705e-07
-4.25136e-08
0.00174909
-4.23408e-08
1.41894e-07
0.0017491
1.21134e-07
4.58145e-08
0.00174909
1.78936e-07
2.62865e-08
0.00174909
-1.73405e-07
2.75971e-08
0.00174906
3.08519e-07
-3.68683e-08
0.00174908
-2.93102e-07
1.05057e-07
0.00174913
4.27401e-07
3.39366e-08
0.00174908
-1.52694e-07
8.37072e-08
0.0017491
1.7665e-08
-8.93128e-09
0.00174908