/*--------------------------------*- C++ -*----------------------------------*\
  =========                 |
  \\      /  F ield         | OpenFOAM: The Open Source CFD Toolbox
   \\    /   O peration     | Website:  https://openfoam.org
    \\  /    A nd           | Version:  10
     \\/     M anipulation  |
\*---------------------------------------------------------------------------*/
FoamFile
{
    format      ascii;
    class       volScalarField;
    location    "30";
    object      pPrime2Mean;
}
// * * * * * * * * * * * * * * * * * * * * * * * * * * * * * * * * * * * * * //

dimensions      [0 4 -4 0 0 0 0];

internalField   nonuniform List<scalar> 
25600
(
2.27178e-05
2.30276e-05
2.19131e-05
2.26784e-05
1.98823e-05
2.02076e-05
2.21059e-05
2.49122e-05
2.50001e-05
2.58492e-05
2.64864e-05
2.64692e-05
2.57452e-05
2.6331e-05
2.70783e-05
2.82374e-05
2.72932e-05
2.60615e-05
2.49236e-05
2.37933e-05
2.28702e-05
2.14642e-05
2.14648e-05
2.11927e-05
2.21344e-05
2.15124e-05
1.96596e-05
1.97275e-05
2.11684e-05
2.38493e-05
2.63299e-05
2.58307e-05
2.45063e-05
2.55525e-05
2.53692e-05
2.37636e-05
2.20179e-05
2.03852e-05
1.97407e-05
2.07275e-05
2.28256e-05
2.31648e-05
2.20328e-05
2.27824e-05
1.99939e-05
2.03303e-05
2.2254e-05
2.5091e-05
2.51714e-05
2.60239e-05
2.66808e-05
2.6654e-05
2.59298e-05
2.65237e-05
2.7283e-05
2.84639e-05
2.75071e-05
2.62575e-05
2.50888e-05
2.39352e-05
2.30213e-05
2.15942e-05
2.1594e-05
2.13245e-05
2.22607e-05
2.16684e-05
1.97899e-05
1.98491e-05
2.13112e-05
2.40033e-05
2.64797e-05
2.60059e-05
2.4653e-05
2.57239e-05
2.5525e-05
2.39012e-05
2.21596e-05
2.05148e-05
1.98396e-05
2.08332e-05
2.31504e-05
2.34685e-05
2.23179e-05
2.29767e-05
2.02372e-05
2.05884e-05
2.25854e-05
2.54616e-05
2.55581e-05
2.64524e-05
2.71556e-05
2.71015e-05
2.63535e-05
2.69445e-05
2.77408e-05
2.89705e-05
2.7963e-05
2.66676e-05
2.54368e-05
2.42041e-05
2.33304e-05
2.18459e-05
2.17845e-05
2.15863e-05
2.24643e-05
2.20192e-05
2.00942e-05
2.01835e-05
2.16469e-05
2.43857e-05
2.6885e-05
2.64101e-05
2.50148e-05
2.60947e-05
2.59106e-05
2.42428e-05
2.24597e-05
2.08251e-05
2.01076e-05
2.11114e-05
2.36139e-05
2.38973e-05
2.27603e-05
2.33409e-05
2.06001e-05
2.10028e-05
2.30699e-05
2.59845e-05
2.61494e-05
2.71235e-05
2.79303e-05
2.7814e-05
2.69978e-05
2.76358e-05
2.84236e-05
2.97382e-05
2.86441e-05
2.72596e-05
2.59307e-05
2.45525e-05
2.37482e-05
2.22427e-05
2.20721e-05
2.19919e-05
2.27514e-05
2.25128e-05
2.05756e-05
2.06086e-05
2.21223e-05
2.48786e-05
2.7314e-05
2.69285e-05
2.54339e-05
2.65945e-05
2.64572e-05
2.4779e-05
2.28805e-05
2.13132e-05
2.05688e-05
2.15724e-05
2.40371e-05
2.41913e-05
2.31188e-05
2.36099e-05
2.09477e-05
2.14659e-05
2.35804e-05
2.64043e-05
2.66964e-05
2.77716e-05
2.86644e-05
2.85167e-05
2.76684e-05
2.83485e-05
2.91694e-05
3.06084e-05
2.94867e-05
2.79739e-05
2.64294e-05
2.47862e-05
2.39879e-05
2.25046e-05
2.22674e-05
2.23536e-05
2.30201e-05
2.30857e-05
2.10795e-05
2.10284e-05
2.25428e-05
2.5358e-05
2.78281e-05
2.75798e-05
2.60612e-05
2.72621e-05
2.72325e-05
2.54627e-05
2.34384e-05
2.19347e-05
2.10809e-05
2.19921e-05
2.42599e-05
2.41422e-05
2.30737e-05
2.34073e-05
2.11337e-05
2.182e-05
2.39356e-05
2.6576e-05
2.69694e-05
2.81057e-05
2.91178e-05
2.91065e-05
2.82717e-05
2.89993e-05
2.97403e-05
3.12134e-05
3.00626e-05
2.8334e-05
2.6486e-05
2.47068e-05
2.40007e-05
2.26731e-05
2.22655e-05
2.25458e-05
2.31989e-05
2.36745e-05
2.15272e-05
2.12599e-05
2.26534e-05
2.55916e-05
2.83032e-05
2.84714e-05
2.696e-05
2.82224e-05
2.82759e-05
2.65312e-05
2.4361e-05
2.27762e-05
2.16567e-05
2.23318e-05
2.44812e-05
2.40399e-05
2.29758e-05
2.30584e-05
2.10417e-05
2.19315e-05
2.39612e-05
2.63142e-05
2.70498e-05
2.81767e-05
2.92011e-05
2.92621e-05
2.8197e-05
2.88195e-05
2.93775e-05
3.07587e-05
2.9812e-05
2.79466e-05
2.5841e-05
2.41992e-05
2.35215e-05
2.24217e-05
2.21126e-05
2.25599e-05
2.33238e-05
2.40075e-05
2.18902e-05
2.14176e-05
2.26631e-05
2.58088e-05
2.88362e-05
2.93554e-05
2.79167e-05
2.89972e-05
2.91565e-05
2.75976e-05
2.52373e-05
2.3567e-05
2.22481e-05
2.27431e-05
2.44113e-05
2.37638e-05
2.258e-05
2.25195e-05
2.0736e-05
2.16474e-05
2.35621e-05
2.5609e-05
2.66577e-05
2.78313e-05
2.87658e-05
2.88788e-05
2.75193e-05
2.77677e-05
2.82594e-05
2.9524e-05
2.89337e-05
2.69594e-05
2.46855e-05
2.34321e-05
2.28003e-05
2.17695e-05
2.14438e-05
2.2256e-05
2.31111e-05
2.39871e-05
2.20471e-05
2.15981e-05
2.26765e-05
2.57261e-05
2.90344e-05
2.97261e-05
2.82253e-05
2.90086e-05
2.93047e-05
2.80119e-05
2.56114e-05
2.39326e-05
2.24781e-05
2.28966e-05
2.40108e-05
2.31856e-05
2.1811e-05
2.16371e-05
2.02973e-05
2.10551e-05
2.28129e-05
2.43909e-05
2.53866e-05
2.64882e-05
2.73698e-05
2.76244e-05
2.60114e-05
2.61664e-05
2.6631e-05
2.78926e-05
2.77099e-05
2.58011e-05
2.35496e-05
2.23883e-05
2.19334e-05
2.09791e-05
2.05601e-05
2.15304e-05
2.24677e-05
2.33366e-05
2.18361e-05
2.15376e-05
2.27271e-05
2.55328e-05
2.89106e-05
2.94291e-05
2.77827e-05
2.80286e-05
2.83608e-05
2.74241e-05
2.53348e-05
2.36994e-05
2.22502e-05
2.26839e-05
2.26884e-05
2.18817e-05
2.05227e-05
2.03214e-05
1.95582e-05
2.02692e-05
2.18007e-05
2.2893e-05
2.36264e-05
2.45513e-05
2.53772e-05
2.57783e-05
2.40905e-05
2.43552e-05
2.50315e-05
2.62273e-05
2.64812e-05
2.48025e-05
2.23949e-05
2.0959e-05
2.06625e-05
1.98925e-05
1.9539e-05
2.05403e-05
2.15601e-05
2.22492e-05
2.12053e-05
2.11416e-05
2.25406e-05
2.51904e-05
2.84582e-05
2.8642e-05
2.69204e-05
2.66373e-05
2.66614e-05
2.58294e-05
2.41456e-05
2.2699e-05
2.12819e-05
2.16089e-05
2.06578e-05
1.99877e-05
1.88298e-05
1.84064e-05
1.80505e-05
1.87867e-05
2.00472e-05
2.08815e-05
2.13467e-05
2.21474e-05
2.30856e-05
2.34368e-05
2.16986e-05
2.19142e-05
2.25573e-05
2.3661e-05
2.42069e-05
2.29788e-05
2.05707e-05
1.89737e-05
1.89127e-05
1.85724e-05
1.86528e-05
1.97236e-05
2.07089e-05
2.11969e-05
2.02893e-05
2.00985e-05
2.13047e-05
2.35614e-05
2.65947e-05
2.66392e-05
2.49105e-05
2.42157e-05
2.398e-05
2.31649e-05
2.19442e-05
2.07806e-05
1.96493e-05
1.9791e-05
1.81777e-05
1.76873e-05
1.65634e-05
1.59636e-05
1.57545e-05
1.64274e-05
1.73932e-05
1.81533e-05
1.86794e-05
1.96593e-05
2.08343e-05
2.10832e-05
1.94802e-05
1.94762e-05
1.96439e-05
2.03166e-05
2.09665e-05
2.03655e-05
1.82632e-05
1.67266e-05
1.68167e-05
1.70024e-05
1.76477e-05
1.88268e-05
1.96608e-05
1.96884e-05
1.85692e-05
1.80457e-05
1.89548e-05
2.08257e-05
2.3502e-05
2.33928e-05
2.19306e-05
2.1121e-05
2.08054e-05
2.00592e-05
1.90652e-05
1.80088e-05
1.72437e-05
1.74348e-05
1.52219e-05
1.49663e-05
1.37945e-05
1.31246e-05
1.29313e-05
1.34631e-05
1.41975e-05
1.49562e-05
1.57499e-05
1.68837e-05
1.82145e-05
1.84249e-05
1.70486e-05
1.70428e-05
1.6901e-05
1.71502e-05
1.78104e-05
1.75256e-05
1.60138e-05
1.47089e-05
1.48074e-05
1.51042e-05
1.58194e-05
1.68995e-05
1.76474e-05
1.72196e-05
1.5878e-05
1.52244e-05
1.59918e-05
1.76581e-05
1.99954e-05
1.97231e-05
1.83319e-05
1.76123e-05
1.72575e-05
1.64645e-05
1.54851e-05
1.4502e-05
1.40262e-05
1.44521e-05
1.20233e-05
1.21141e-05
1.09574e-05
1.03698e-05
1.02374e-05
1.05705e-05
1.10371e-05
1.16569e-05
1.24877e-05
1.36272e-05
1.49171e-05
1.51386e-05
1.42177e-05
1.44351e-05
1.41228e-05
1.39879e-05
1.45049e-05
1.43316e-05
1.32205e-05
1.20803e-05
1.22313e-05
1.26219e-05
1.32534e-05
1.41436e-05
1.48099e-05
1.42283e-05
1.29775e-05
1.24558e-05
1.32498e-05
1.47918e-05
1.67581e-05
1.63259e-05
1.48556e-05
1.41541e-05
1.37144e-05
1.27531e-05
1.16959e-05
1.08566e-05
1.06266e-05
1.12033e-05
8.94448e-06
9.34737e-06
8.71376e-06
8.29593e-06
8.11358e-06
8.12812e-06
8.32451e-06
8.75738e-06
9.42193e-06
1.04313e-05
1.16353e-05
1.17797e-05
1.11624e-05
1.16302e-05
1.14326e-05
1.07784e-05
1.1171e-05
1.11422e-05
1.02893e-05
9.27248e-06
9.37032e-06
1.00777e-05
1.09876e-05
1.19252e-05
1.23728e-05
1.14715e-05
1.03424e-05
1.00477e-05
1.09487e-05
1.2457e-05
1.39082e-05
1.30555e-05
1.15138e-05
1.10059e-05
1.07289e-05
9.89852e-06
8.76302e-06
7.94741e-06
7.84585e-06
8.36941e-06
6.5768e-06
6.82269e-06
6.75763e-06
6.64277e-06
6.50601e-06
6.28986e-06
6.20738e-06
6.45969e-06
6.88548e-06
7.62745e-06
8.67487e-06
8.83184e-06
8.34106e-06
8.86461e-06
8.8874e-06
8.01535e-06
8.12511e-06
8.39084e-06
7.86531e-06
7.09435e-06
6.99239e-06
7.65481e-06
8.72283e-06
9.85379e-06
1.03288e-05
9.30559e-06
8.28873e-06
8.15616e-06
8.9254e-06
1.01058e-05
1.10844e-05
1.01791e-05
8.81707e-06
8.38297e-06
8.22649e-06
7.51777e-06
6.53655e-06
5.86171e-06
5.81482e-06
6.24868e-06
4.75907e-06
4.78803e-06
4.77931e-06
4.70929e-06
4.72291e-06
4.61031e-06
4.5005e-06
4.63835e-06
4.82279e-06
5.20447e-06
6.08082e-06
6.36656e-06
6.08092e-06
6.45016e-06
6.65004e-06
5.95416e-06
5.81096e-06
6.06646e-06
5.7929e-06
5.29301e-06
5.1284e-06
5.46098e-06
6.2727e-06
7.40484e-06
8.24658e-06
7.6722e-06
6.64918e-06
6.43862e-06
6.94582e-06
7.79767e-06
8.28409e-06
7.45764e-06
6.47483e-06
6.35956e-06
6.36805e-06
5.79482e-06
4.95296e-06
4.30009e-06
4.25202e-06
4.60343e-06
3.60237e-06
3.52136e-06
3.49505e-06
3.42553e-06
3.44507e-06
3.41957e-06
3.3055e-06
3.3805e-06
3.44611e-06
3.661e-06
4.45628e-06
4.86481e-06
4.62262e-06
4.82023e-06
4.993e-06
4.5654e-06
4.32504e-06
4.42079e-06
4.18905e-06
3.76571e-06
3.58149e-06
3.69501e-06
4.22301e-06
5.11609e-06
5.95459e-06
5.88761e-06
5.31808e-06
5.01035e-06
5.23216e-06
5.93217e-06
6.23461e-06
5.45935e-06
4.65655e-06
4.53476e-06
4.57754e-06
4.24448e-06
3.62991e-06
3.15295e-06
3.20271e-06
3.53793e-06
2.47775e-06
2.40775e-06
2.38052e-06
2.39657e-06
2.47383e-06
2.4761e-06
2.39977e-06
2.42483e-06
2.41879e-06
2.50005e-06
3.19075e-06
3.76484e-06
3.66035e-06
3.7134e-06
3.77501e-06
3.41609e-06
3.13459e-06
3.17034e-06
3.00949e-06
2.68174e-06
2.50549e-06
2.51736e-06
2.8713e-06
3.55985e-06
4.21222e-06
4.19289e-06
3.78928e-06
3.60496e-06
3.69474e-06
4.08747e-06
4.40462e-06
3.87171e-06
3.30591e-06
3.13327e-06
3.07888e-06
2.85787e-06
2.46203e-06
2.10873e-06
2.15452e-06
2.4324e-06
1.72693e-06
1.67108e-06
1.59018e-06
1.60016e-06
1.69563e-06
1.69399e-06
1.61497e-06
1.59419e-06
1.55252e-06
1.5387e-06
2.01789e-06
2.62089e-06
2.71208e-06
2.83129e-06
2.94763e-06
2.67953e-06
2.34921e-06
2.29955e-06
2.17476e-06
1.90575e-06
1.73731e-06
1.66868e-06
1.88727e-06
2.41074e-06
2.84991e-06
2.77312e-06
2.46861e-06
2.3814e-06
2.41953e-06
2.70682e-06
3.01727e-06
2.69615e-06
2.27626e-06
2.09975e-06
1.97826e-06
1.81605e-06
1.63777e-06
1.4112e-06
1.42618e-06
1.64817e-06
1.16981e-06
1.12852e-06
1.0354e-06
1.03555e-06
1.11821e-06
1.12926e-06
1.07384e-06
1.02488e-06
9.91588e-07
9.35676e-07
1.1938e-06
1.65498e-06
1.77708e-06
1.90034e-06
2.09267e-06
2.0235e-06
1.76421e-06
1.65082e-06
1.5621e-06
1.36355e-06
1.23058e-06
1.13733e-06
1.24339e-06
1.65402e-06
2.01447e-06
1.95854e-06
1.70139e-06
1.66403e-06
1.66442e-06
1.79694e-06
2.053e-06
1.84845e-06
1.5523e-06
1.39134e-06
1.26156e-06
1.15548e-06
1.09007e-06
9.60327e-07
9.28241e-07
1.07175e-06
8.14866e-07
7.8776e-07
6.90814e-07
6.84394e-07
7.41403e-07
7.60638e-07
7.38789e-07
6.74954e-07
6.47047e-07
5.97812e-07
7.06926e-07
1.02628e-06
1.17391e-06
1.23063e-06
1.33459e-06
1.31641e-06
1.15348e-06
1.04122e-06
1.01066e-06
9.02391e-07
8.44112e-07
7.93865e-07
8.23395e-07
1.12033e-06
1.40019e-06
1.35887e-06
1.1473e-06
1.1223e-06
1.10125e-06
1.13098e-06
1.33214e-06
1.21429e-06
1.02879e-06
9.28978e-07
7.86756e-07
7.00045e-07
7.15051e-07
6.67565e-07
6.2146e-07
6.98412e-07
5.94549e-07
5.85239e-07
4.75962e-07
4.65296e-07
5.00686e-07
5.24754e-07
5.30518e-07
4.62533e-07
4.44461e-07
4.30638e-07
4.58645e-07
6.56027e-07
8.17634e-07
8.45211e-07
8.53915e-07
8.54936e-07
7.47424e-07
6.3446e-07
6.31684e-07
5.79138e-07
5.6841e-07
5.57662e-07
5.46984e-07
7.51224e-07
9.64663e-07
9.3697e-07
7.68677e-07
7.48876e-07
7.39919e-07
7.15325e-07
8.68857e-07
8.03068e-07
6.83364e-07
6.37037e-07
4.97343e-07
4.20033e-07
4.71893e-07
4.91428e-07
4.59817e-07
4.75728e-07
4.30112e-07
4.50978e-07
3.52102e-07
3.34908e-07
3.51114e-07
3.74906e-07
4.03891e-07
3.363e-07
3.16667e-07
3.41871e-07
3.35552e-07
4.33454e-07
5.94854e-07
6.23381e-07
5.57877e-07
5.76629e-07
5.27848e-07
4.07991e-07
4.18109e-07
3.948e-07
3.92838e-07
4.06264e-07
3.73484e-07
5.02331e-07
6.70957e-07
6.66794e-07
5.42892e-07
5.16703e-07
5.16876e-07
4.71143e-07
5.81074e-07
5.45519e-07
4.67075e-07
4.69069e-07
3.45335e-07
2.70565e-07
3.18246e-07
3.72853e-07
3.66763e-07
3.32618e-07
3.1302e-07
3.63929e-07
2.84558e-07
2.47774e-07
2.53119e-07
2.81953e-07
3.21133e-07
2.59378e-07
2.38633e-07
2.91898e-07
2.74982e-07
3.0253e-07
4.57701e-07
4.99149e-07
3.82543e-07
4.06934e-07
4.12097e-07
2.83543e-07
3.01213e-07
3.0334e-07
2.89013e-07
3.16172e-07
2.84014e-07
3.56809e-07
4.80672e-07
4.98487e-07
4.21327e-07
3.77732e-07
3.81898e-07
3.39376e-07
4.11304e-07
3.84679e-07
3.31592e-07
3.6673e-07
2.69979e-07
2.00111e-07
2.23783e-07
2.82354e-07
3.12261e-07
2.5407e-07
2.25312e-07
2.94145e-07
2.48715e-07
1.88527e-07
1.88177e-07
2.27915e-07
2.63077e-07
2.11924e-07
1.90907e-07
2.56291e-07
2.45635e-07
2.27245e-07
3.68533e-07
4.23551e-07
2.78963e-07
2.92873e-07
3.43361e-07
2.17554e-07
2.30883e-07
2.60989e-07
2.27257e-07
2.58402e-07
2.42321e-07
2.74267e-07
3.53434e-07
3.91633e-07
3.61633e-07
2.98054e-07
2.9723e-07
2.73661e-07
3.1755e-07
2.89652e-07
2.47268e-07
2.98198e-07
2.36146e-07
1.77521e-07
1.73305e-07
2.16961e-07
2.77992e-07
2.19845e-07
1.66279e-07
2.37916e-07
2.35183e-07
1.50497e-07
1.44672e-07
2.01955e-07
2.19274e-07
1.7772e-07
1.64273e-07
2.30096e-07
2.3114e-07
1.86704e-07
3.03076e-07
3.72353e-07
2.28028e-07
2.16929e-07
2.95452e-07
1.91132e-07
1.87501e-07
2.41475e-07
1.94177e-07
2.17676e-07
2.23714e-07
2.33414e-07
2.72719e-07
3.16866e-07
3.27687e-07
2.51416e-07
2.37897e-07
2.38648e-07
2.66872e-07
2.36363e-07
1.96113e-07
2.45408e-07
2.20056e-07
1.78097e-07
1.5074e-07
1.68347e-07
2.47555e-07
2.09187e-07
1.3639e-07
1.93709e-07
2.37507e-07
1.35623e-07
1.17766e-07
1.98235e-07
1.94763e-07
1.53155e-07
1.53595e-07
2.0644e-07
2.15925e-07
1.68386e-07
2.48048e-07
3.23986e-07
2.12209e-07
1.69626e-07
2.50411e-07
1.87528e-07
1.64426e-07
2.22742e-07
1.77865e-07
1.881e-07
2.10337e-07
2.12211e-07
2.20718e-07
2.57285e-07
2.97866e-07
2.19931e-07
1.94719e-07
2.17162e-07
2.33238e-07
2.06125e-07
1.69215e-07
1.9992e-07
2.08661e-07
1.87202e-07
1.41119e-07
1.36151e-07
2.1825e-07
2.12401e-07
1.30162e-07
1.62607e-07
2.4403e-07
1.45503e-07
1.07318e-07
2.05163e-07
1.899e-07
1.3633e-07
1.54667e-07
1.87877e-07
1.89797e-07
1.64241e-07
2.01787e-07
2.66689e-07
2.19659e-07
1.49791e-07
2.02291e-07
1.93286e-07
1.60492e-07
1.98102e-07
1.6982e-07
1.75164e-07
1.92621e-07
1.96939e-07
1.94843e-07
2.10665e-07
2.62909e-07
1.97741e-07
1.65569e-07
2.03191e-07
2.05711e-07
1.87689e-07
1.63171e-07
1.64359e-07
1.97313e-07
1.95947e-07
1.35156e-07
1.20357e-07
1.91027e-07
2.11803e-07
1.34311e-07
1.44029e-07
2.35347e-07
1.61361e-07
1.05472e-07
2.0078e-07
1.94298e-07
1.2862e-07
1.5795e-07
1.82017e-07
1.5944e-07
1.66889e-07
1.72878e-07
2.037e-07
2.36831e-07
1.588e-07
1.58004e-07
2.01235e-07
1.73419e-07
1.68578e-07
1.62798e-07
1.83149e-07
1.7787e-07
1.80529e-07
1.8984e-07
1.81415e-07
2.25659e-07
1.87547e-07
1.51171e-07
1.93403e-07
1.852e-07
1.72492e-07
1.66583e-07
1.41788e-07
1.83967e-07
1.97078e-07
1.28858e-07
1.17098e-07
1.7084e-07
1.98241e-07
1.30401e-07
1.35152e-07
2.03213e-07
1.57198e-07
1.06778e-07
1.74018e-07
1.91173e-07
1.30764e-07
1.51529e-07
1.84138e-07
1.46837e-07
1.73747e-07
1.66983e-07
1.57023e-07
2.46517e-07
1.81283e-07
1.26938e-07
2.04868e-07
1.92823e-07
1.45707e-07
1.54845e-07
1.98255e-07
1.74337e-07
1.64827e-07
1.95876e-07
1.77139e-07
1.9546e-07
1.89235e-07
1.53871e-07
1.81778e-07
1.74337e-07
1.5973e-07
1.64834e-07
1.31246e-07
1.68335e-07
1.87395e-07
1.24292e-07
1.24004e-07
1.60989e-07
1.72195e-07
1.22121e-07
1.42678e-07
1.6811e-07
1.38736e-07
1.15495e-07
1.43378e-07
1.77412e-07
1.4088e-07
1.36171e-07
1.75719e-07
1.53945e-07
1.77641e-07
1.61342e-07
1.40101e-07
2.35959e-07
1.82412e-07
1.12992e-07
1.95496e-07
1.92245e-07
1.33698e-07
1.49068e-07
1.92914e-07
1.73869e-07
1.55785e-07
1.94368e-07
1.89169e-07
1.82479e-07
1.92857e-07
1.66654e-07
1.67038e-07
1.67571e-07
1.54228e-07
1.54883e-07
1.35148e-07
1.58605e-07
1.71672e-07
1.2965e-07
1.38535e-07
1.65658e-07
1.49208e-07
2.15045e-05
2.15675e-05
1.9906e-05
2.2152e-05
1.78559e-05
1.92007e-05
1.99185e-05
2.06888e-05
2.23653e-05
2.39071e-05
2.31892e-05
2.05642e-05
1.78757e-05
1.73308e-05
1.73634e-05
1.78846e-05
1.70487e-05
1.64801e-05
1.63531e-05
1.76589e-05
1.91331e-05
1.87829e-05
1.77604e-05
1.84386e-05
1.9833e-05
2.00027e-05
1.92868e-05
1.92804e-05
1.90351e-05
1.80449e-05
1.78039e-05
1.67267e-05
1.74059e-05
1.86996e-05
1.81649e-05
1.79949e-05
1.74953e-05
1.69323e-05
1.796e-05
1.84859e-05
2.16358e-05
2.17204e-05
2.00026e-05
2.23199e-05
1.79803e-05
1.93152e-05
2.00466e-05
2.08259e-05
2.24846e-05
2.40231e-05
2.33198e-05
2.06766e-05
1.79544e-05
1.74017e-05
1.74278e-05
1.79684e-05
1.71435e-05
1.65714e-05
1.64354e-05
1.77357e-05
1.92485e-05
1.88875e-05
1.78471e-05
1.8546e-05
1.99133e-05
2.01406e-05
1.94183e-05
1.94129e-05
1.9157e-05
1.81315e-05
1.79059e-05
1.68179e-05
1.74933e-05
1.88165e-05
1.82692e-05
1.81161e-05
1.76107e-05
1.70357e-05
1.80812e-05
1.85897e-05
2.1983e-05
2.2104e-05
2.02225e-05
2.26078e-05
1.81659e-05
1.9526e-05
2.0292e-05
2.10775e-05
2.27566e-05
2.42804e-05
2.36178e-05
2.09466e-05
1.81253e-05
1.75682e-05
1.7618e-05
1.81989e-05
1.73853e-05
1.68117e-05
1.6682e-05
1.79501e-05
1.94736e-05
1.91084e-05
1.80572e-05
1.88324e-05
2.00764e-05
2.04228e-05
1.96385e-05
1.96294e-05
1.93653e-05
1.8323e-05
1.82285e-05
1.70539e-05
1.76794e-05
1.90469e-05
1.84821e-05
1.83463e-05
1.78165e-05
1.72112e-05
1.82964e-05
1.88472e-05
2.22887e-05
2.23818e-05
2.04701e-05
2.29097e-05
1.84601e-05
1.98208e-05
2.06182e-05
2.14325e-05
2.32119e-05
2.47633e-05
2.40879e-05
2.13343e-05
1.83555e-05
1.78238e-05
1.78691e-05
1.84665e-05
1.76207e-05
1.70271e-05
1.6902e-05
1.80272e-05
1.95682e-05
1.92187e-05
1.82382e-05
1.91404e-05
2.0242e-05
2.06742e-05
1.98348e-05
1.98282e-05
1.95149e-05
1.84389e-05
1.8498e-05
1.72369e-05
1.78315e-05
1.93044e-05
1.87223e-05
1.85692e-05
1.80076e-05
1.73667e-05
1.85254e-05
1.90748e-05
2.22768e-05
2.23115e-05
2.05482e-05
2.30011e-05
1.87248e-05
2.00083e-05
2.08622e-05
2.17035e-05
2.36133e-05
2.50965e-05
2.43447e-05
2.14611e-05
1.8343e-05
1.79064e-05
1.80235e-05
1.85101e-05
1.7624e-05
1.69764e-05
1.68786e-05
1.77599e-05
1.94638e-05
1.90478e-05
1.81349e-05
1.92807e-05
2.02841e-05
2.08457e-05
1.97651e-05
1.97311e-05
1.94761e-05
1.84191e-05
1.8462e-05
1.71643e-05
1.77824e-05
1.93979e-05
1.8892e-05
1.8654e-05
1.79851e-05
1.73177e-05
1.86086e-05
1.9096e-05
2.21108e-05
2.18668e-05
2.02468e-05
2.25488e-05
1.88427e-05
1.99214e-05
2.07667e-05
2.18887e-05
2.38475e-05
2.51797e-05
2.42167e-05
2.122e-05
1.81284e-05
1.78693e-05
1.7971e-05
1.84179e-05
1.74685e-05
1.68026e-05
1.67967e-05
1.73773e-05
1.93146e-05
1.87259e-05
1.80453e-05
1.94714e-05
2.02636e-05
2.08856e-05
1.96039e-05
1.97602e-05
1.93412e-05
1.81784e-05
1.82234e-05
1.69701e-05
1.76199e-05
1.93336e-05
1.88901e-05
1.86264e-05
1.79634e-05
1.73297e-05
1.86366e-05
1.90544e-05
2.16603e-05
2.10711e-05
1.96727e-05
2.1897e-05
1.87725e-05
1.95739e-05
2.04795e-05
2.18926e-05
2.38537e-05
2.49096e-05
2.37759e-05
2.07402e-05
1.78537e-05
1.7688e-05
1.77282e-05
1.80917e-05
1.72743e-05
1.66898e-05
1.66191e-05
1.69866e-05
1.8845e-05
1.82424e-05
1.79574e-05
1.94603e-05
2.01802e-05
2.07328e-05
1.92308e-05
1.93489e-05
1.89672e-05
1.76491e-05
1.75915e-05
1.63677e-05
1.71763e-05
1.90906e-05
1.87872e-05
1.83162e-05
1.76636e-05
1.70852e-05
1.8266e-05
1.8839e-05
2.13376e-05
2.05174e-05
1.90818e-05
2.08045e-05
1.80534e-05
1.90276e-05
1.99174e-05
2.13892e-05
2.31854e-05
2.40139e-05
2.28328e-05
1.99493e-05
1.74307e-05
1.73413e-05
1.74615e-05
1.77502e-05
1.70217e-05
1.62925e-05
1.61264e-05
1.65064e-05
1.81182e-05
1.78613e-05
1.80123e-05
1.91122e-05
1.99004e-05
2.00306e-05
1.85735e-05
1.87114e-05
1.83613e-05
1.69937e-05
1.68849e-05
1.5484e-05
1.63805e-05
1.85134e-05
1.8487e-05
1.78142e-05
1.70485e-05
1.64749e-05
1.75634e-05
1.87026e-05
2.08485e-05
1.97994e-05
1.82136e-05
1.94823e-05
1.70563e-05
1.81218e-05
1.89438e-05
2.01651e-05
2.16246e-05
2.22453e-05
2.11496e-05
1.86058e-05
1.65175e-05
1.65995e-05
1.69984e-05
1.71315e-05
1.63879e-05
1.54801e-05
1.5248e-05
1.57564e-05
1.72046e-05
1.73632e-05
1.77912e-05
1.84444e-05
1.93078e-05
1.89985e-05
1.75962e-05
1.74279e-05
1.72227e-05
1.60874e-05
1.59065e-05
1.45195e-05
1.54189e-05
1.7563e-05
1.78256e-05
1.71317e-05
1.61689e-05
1.57407e-05
1.68617e-05
1.84677e-05
2.00456e-05
1.87472e-05
1.69232e-05
1.7508e-05
1.5704e-05
1.68308e-05
1.75821e-05
1.83766e-05
1.94944e-05
2.00627e-05
1.91085e-05
1.68335e-05
1.51471e-05
1.5586e-05
1.64184e-05
1.63893e-05
1.55763e-05
1.44301e-05
1.41393e-05
1.46975e-05
1.5933e-05
1.64652e-05
1.71466e-05
1.76211e-05
1.8632e-05
1.79072e-05
1.65458e-05
1.59353e-05
1.58081e-05
1.51804e-05
1.49769e-05
1.37669e-05
1.46678e-05
1.67463e-05
1.71299e-05
1.63509e-05
1.52824e-05
1.49554e-05
1.61093e-05
1.79559e-05
1.84405e-05
1.73335e-05
1.54857e-05
1.54308e-05
1.43384e-05
1.55788e-05
1.60603e-05
1.62537e-05
1.70327e-05
1.76538e-05
1.69686e-05
1.4959e-05
1.35761e-05
1.43257e-05
1.54632e-05
1.53462e-05
1.4555e-05
1.33658e-05
1.3175e-05
1.36032e-05
1.45158e-05
1.51011e-05
1.58883e-05
1.63797e-05
1.75441e-05
1.66305e-05
1.52219e-05
1.42973e-05
1.42114e-05
1.4039e-05
1.40007e-05
1.30455e-05
1.38372e-05
1.56518e-05
1.60342e-05
1.52224e-05
1.40717e-05
1.37038e-05
1.47079e-05
1.64236e-05
1.59937e-05
1.54395e-05
1.37845e-05
1.33838e-05
1.28954e-05
1.43829e-05
1.46843e-05
1.42779e-05
1.47031e-05
1.54074e-05
1.50331e-05
1.31403e-05
1.18728e-05
1.26484e-05
1.3956e-05
1.38384e-05
1.3206e-05
1.20215e-05
1.1793e-05
1.21511e-05
1.28825e-05
1.34164e-05
1.41131e-05
1.46979e-05
1.59114e-05
1.50257e-05
1.36598e-05
1.25418e-05
1.22757e-05
1.2383e-05
1.25851e-05
1.20658e-05
1.27405e-05
1.3972e-05
1.42103e-05
1.35856e-05
1.24834e-05
1.19464e-05
1.26314e-05
1.40295e-05
1.33868e-05
1.31583e-05
1.17225e-05
1.12647e-05
1.1046e-05
1.23188e-05
1.24667e-05
1.19005e-05
1.21324e-05
1.2762e-05
1.26543e-05
1.1e-05
9.9918e-06
1.05281e-05
1.15715e-05
1.16019e-05
1.12249e-05
1.02171e-05
9.8567e-06
1.01576e-05
1.07663e-05
1.12936e-05
1.18013e-05
1.24264e-05
1.37278e-05
1.3196e-05
1.19355e-05
1.07542e-05
1.02065e-05
1.03899e-05
1.07758e-05
1.05103e-05
1.1177e-05
1.19603e-05
1.19843e-05
1.16109e-05
1.06962e-05
1.00766e-05
1.05804e-05
1.16915e-05
1.11604e-05
1.11418e-05
9.78437e-06
9.31042e-06
9.18295e-06
9.99985e-06
1.00214e-05
9.42715e-06
9.48615e-06
9.99153e-06
1.00806e-05
8.75392e-06
7.93717e-06
8.37127e-06
9.20511e-06
9.34473e-06
9.25501e-06
8.3867e-06
7.88258e-06
8.08444e-06
8.69723e-06
9.26171e-06
9.60104e-06
1.00034e-05
1.1077e-05
1.08189e-05
9.80972e-06
8.90772e-06
8.40865e-06
8.59757e-06
9.06721e-06
8.87448e-06
9.35173e-06
9.77701e-06
9.56805e-06
9.27493e-06
8.54046e-06
7.9984e-06
8.51379e-06
9.62239e-06
8.82271e-06
9.13491e-06
8.14988e-06
7.53977e-06
7.31742e-06
7.7704e-06
7.66594e-06
7.03029e-06
6.93216e-06
7.41224e-06
7.74415e-06
6.82228e-06
6.19183e-06
6.63091e-06
7.25102e-06
7.27838e-06
7.13212e-06
6.54093e-06
6.16893e-06
6.23351e-06
6.71954e-06
7.30397e-06
7.54605e-06
7.75258e-06
8.48114e-06
8.27151e-06
7.4718e-06
6.84618e-06
6.66735e-06
7.03263e-06
7.50268e-06
7.36241e-06
7.65063e-06
7.83965e-06
7.46917e-06
7.1653e-06
6.62358e-06
6.17809e-06
6.61666e-06
7.55881e-06
6.55134e-06
6.89903e-06
6.5222e-06
6.15936e-06
6.06496e-06
6.40665e-06
6.20497e-06
5.49908e-06
5.19215e-06
5.51741e-06
5.9348e-06
5.30485e-06
4.8051e-06
5.20726e-06
5.64401e-06
5.56198e-06
5.21661e-06
4.81012e-06
4.73904e-06
4.78865e-06
5.08624e-06
5.50587e-06
5.72105e-06
5.82177e-06
6.45222e-06
6.26229e-06
5.58647e-06
5.12665e-06
4.98855e-06
5.44039e-06
5.9657e-06
5.90253e-06
6.01113e-06
5.97818e-06
5.5833e-06
5.40241e-06
5.1591e-06
4.84052e-06
5.17743e-06
5.82247e-06
4.74467e-06
4.91513e-06
4.84374e-06
4.8011e-06
4.93623e-06
5.21384e-06
4.96286e-06
4.35865e-06
3.96594e-06
4.12181e-06
4.53561e-06
4.11687e-06
3.63291e-06
3.97336e-06
4.39332e-06
4.34342e-06
3.98144e-06
3.59082e-06
3.56671e-06
3.60263e-06
3.82522e-06
4.13138e-06
4.34713e-06
4.38947e-06
4.83832e-06
4.73011e-06
4.17373e-06
3.83243e-06
3.63564e-06
4.00565e-06
4.52281e-06
4.4818e-06
4.47529e-06
4.3689e-06
4.05535e-06
3.97915e-06
3.8577e-06
3.64242e-06
3.94926e-06
4.43532e-06
3.38973e-06
3.46777e-06
3.47555e-06
3.5724e-06
3.69118e-06
3.77985e-06
3.51288e-06
3.0645e-06
2.78935e-06
2.90808e-06
3.3212e-06
3.15794e-06
2.71275e-06
2.9506e-06
3.39957e-06
3.46731e-06
3.15164e-06
2.73955e-06
2.67063e-06
2.71385e-06
2.89004e-06
3.07304e-06
3.24269e-06
3.30656e-06
3.78854e-06
3.82245e-06
3.36958e-06
3.04163e-06
2.79805e-06
3.07816e-06
3.48091e-06
3.4113e-06
3.3386e-06
3.22994e-06
3.03416e-06
3.05829e-06
2.98327e-06
2.74469e-06
2.91877e-06
3.2591e-06
2.43319e-06
2.45839e-06
2.43569e-06
2.5067e-06
2.60263e-06
2.58419e-06
2.37824e-06
2.04959e-06
1.88205e-06
1.974e-06
2.33772e-06
2.39044e-06
2.04865e-06
2.13446e-06
2.5436e-06
2.65467e-06
2.35582e-06
1.96326e-06
1.92259e-06
1.9964e-06
2.14005e-06
2.17546e-06
2.21812e-06
2.30188e-06
2.85414e-06
3.14001e-06
2.87423e-06
2.5443e-06
2.17004e-06
2.30735e-06
2.6498e-06
2.52861e-06
2.37337e-06
2.29165e-06
2.15927e-06
2.25254e-06
2.23348e-06
2.00342e-06
2.06288e-06
2.32142e-06
1.6918e-06
1.69848e-06
1.63182e-06
1.68303e-06
1.77485e-06
1.73582e-06
1.58678e-06
1.35402e-06
1.25283e-06
1.35025e-06
1.64138e-06
1.81588e-06
1.58566e-06
1.51658e-06
1.78284e-06
1.94583e-06
1.68966e-06
1.32324e-06
1.28835e-06
1.37863e-06
1.52347e-06
1.51213e-06
1.47661e-06
1.54984e-06
1.99911e-06
2.27621e-06
2.13306e-06
1.9037e-06
1.5891e-06
1.62984e-06
1.93807e-06
1.82905e-06
1.64633e-06
1.57027e-06
1.45792e-06
1.55917e-06
1.58541e-06
1.39005e-06
1.3614e-06
1.55065e-06
1.15352e-06
1.1611e-06
1.05972e-06
1.08492e-06
1.16479e-06
1.13443e-06
1.04228e-06
8.83545e-07
8.36414e-07
9.18425e-07
1.10261e-06
1.30804e-06
1.22252e-06
1.07678e-06
1.18551e-06
1.37002e-06
1.20828e-06
8.90627e-07
8.29927e-07
9.06843e-07
1.0392e-06
1.03086e-06
9.88894e-07
1.05001e-06
1.36741e-06
1.56603e-06
1.48842e-06
1.38242e-06
1.11637e-06
1.05157e-06
1.3489e-06
1.29871e-06
1.11244e-06
1.057e-06
9.57617e-07
1.04757e-06
1.1172e-06
9.75292e-07
8.94467e-07
9.96411e-07
8.02045e-07
8.34981e-07
7.12736e-07
7.10103e-07
7.77886e-07
7.66447e-07
7.26388e-07
6.05472e-07
5.64963e-07
6.33594e-07
7.35463e-07
9.05838e-07
9.469e-07
8.28388e-07
8.23359e-07
9.8194e-07
8.9969e-07
6.35444e-07
5.63169e-07
6.22502e-07
7.33976e-07
7.33623e-07
6.96919e-07
7.61517e-07
9.85403e-07
1.11571e-06
1.05247e-06
1.0042e-06
8.07802e-07
6.85788e-07
9.31004e-07
9.31527e-07
7.75134e-07
7.44132e-07
6.33325e-07
6.88599e-07
7.78064e-07
6.96562e-07
6.05925e-07
6.40853e-07
5.7035e-07
6.21985e-07
4.93557e-07
4.73449e-07
5.27989e-07
5.34489e-07
5.26098e-07
4.32156e-07
3.96247e-07
4.59718e-07
5.06593e-07
6.18094e-07
7.24162e-07
6.60991e-07
5.81768e-07
6.97479e-07
6.77548e-07
4.70566e-07
4.002e-07
4.38179e-07
5.22624e-07
5.2467e-07
4.96481e-07
5.57439e-07
7.16104e-07
8.08467e-07
7.54418e-07
7.31366e-07
6.19259e-07
4.74676e-07
6.47269e-07
6.72812e-07
5.60538e-07
5.48238e-07
4.32586e-07
4.45435e-07
5.33532e-07
5.15458e-07
4.44432e-07
4.24739e-07
4.0877e-07
4.82106e-07
3.60429e-07
3.23258e-07
3.63456e-07
3.81976e-07
3.94437e-07
3.2122e-07
2.98317e-07
3.60888e-07
3.74276e-07
4.27497e-07
5.48637e-07
5.37052e-07
4.18448e-07
4.99959e-07
5.2077e-07
3.56547e-07
3.07754e-07
3.28812e-07
3.80355e-07
3.86953e-07
3.60448e-07
4.14958e-07
5.26483e-07
6.0232e-07
5.6192e-07
5.32811e-07
4.83662e-07
3.59384e-07
4.65245e-07
4.85968e-07
4.15408e-07
4.23684e-07
3.1711e-07
2.97265e-07
3.64931e-07
3.91685e-07
3.554e-07
2.95671e-07
2.94688e-07
3.87667e-07
2.90773e-07
2.28838e-07
2.54689e-07
2.84676e-07
3.09029e-07
2.49544e-07
2.35727e-07
3.00176e-07
2.98736e-07
3.06959e-07
4.27815e-07
4.49308e-07
3.11749e-07
3.65917e-07
4.14913e-07
2.76412e-07
2.49029e-07
2.67419e-07
2.86443e-07
2.96185e-07
2.74849e-07
3.20964e-07
3.93074e-07
4.57402e-07
4.47162e-07
3.99592e-07
3.81899e-07
3.02104e-07
3.56738e-07
3.58858e-07
3.14364e-07
3.44005e-07
2.59098e-07
2.23264e-07
2.58668e-07
2.96384e-07
3.04312e-07
2.33359e-07
2.15296e-07
3.08984e-07
2.54549e-07
1.71601e-07
1.87726e-07
2.28435e-07
2.50229e-07
2.03406e-07
1.95967e-07
2.60836e-07
2.57499e-07
2.35446e-07
3.46304e-07
3.86292e-07
2.4466e-07
2.71195e-07
3.41969e-07
2.2519e-07
2.08255e-07
2.35438e-07
2.2688e-07
2.41697e-07
2.26958e-07
2.60535e-07
3.0407e-07
3.58216e-07
3.79318e-07
3.16149e-07
3.01207e-07
2.68946e-07
2.95277e-07
2.76311e-07
2.4115e-07
2.85968e-07
2.32151e-07
1.9285e-07
1.97047e-07
2.24207e-07
2.69518e-07
2.11227e-07
1.64195e-07
2.44966e-07
2.39496e-07
1.38964e-07
1.45937e-07
2.01105e-07
2.09334e-07
1.72053e-07
1.72968e-07
2.32375e-07
2.33905e-07
1.96342e-07
2.87282e-07
3.39866e-07
2.12492e-07
2.06692e-07
2.87424e-07
2.00181e-07
1.8127e-07
2.19115e-07
1.92817e-07
2.10955e-07
2.044e-07
2.24702e-07
2.49559e-07
2.87058e-07
3.31744e-07
2.65273e-07
2.3889e-07
2.43981e-07
2.60906e-07
2.27085e-07
1.92905e-07
2.39636e-07
2.19698e-07
1.84593e-07
1.66447e-07
1.73538e-07
2.36173e-07
2.07387e-07
1.38548e-07
1.94415e-07
2.34295e-07
1.28746e-07
1.21466e-07
1.95435e-07
1.87813e-07
1.51067e-07
1.62592e-07
2.09717e-07
2.14607e-07
1.79926e-07
2.40488e-07
2.95807e-07
2.07296e-07
1.69478e-07
2.39662e-07
1.95551e-07
1.69917e-07
2.05338e-07
1.7554e-07
1.93626e-07
1.93244e-07
2.03161e-07
2.16699e-07
2.34625e-07
2.87113e-07
2.30599e-07
1.95809e-07
2.20706e-07
2.33446e-07
1.98619e-07
1.65222e-07
1.97702e-07
2.09977e-07
1.86125e-07
1.49197e-07
1.42323e-07
2.03486e-07
2.07669e-07
1.33829e-07
1.59071e-07
2.31371e-07
1.39867e-07
1.11524e-07
1.97825e-07
1.83872e-07
1.39274e-07
1.60192e-07
1.93677e-07
1.90624e-07
1.75017e-07
2.03539e-07
2.47029e-07
2.20844e-07
1.58834e-07
1.92878e-07
2.01125e-07
1.74569e-07
1.85977e-07
1.68736e-07
1.90893e-07
1.83081e-07
1.86766e-07
2.00906e-07
1.98982e-07
2.45051e-07
2.04439e-07
1.69454e-07
2.02226e-07
2.06881e-07
1.82529e-07
1.57534e-07
1.62614e-07
1.99772e-07
1.9073e-07
1.35785e-07
1.27854e-07
1.76995e-07
2.01651e-07
1.37951e-07
1.38848e-07
2.17442e-07
1.55241e-07
1.11472e-07
1.90234e-07
1.8752e-07
1.37467e-07
1.58311e-07
1.86275e-07
1.66247e-07
1.7348e-07
1.79015e-07
1.94354e-07
2.39745e-07
1.72065e-07
1.52594e-07
2.07581e-07
1.90568e-07
1.6198e-07
1.62814e-07
2.02265e-07
1.76441e-07
1.7111e-07
1.98621e-07