/*--------------------------------*- C++ -*----------------------------------*\
  =========                 |
  \\      /  F ield         | OpenFOAM: The Open Source CFD Toolbox
   \\    /   O peration     | Website:  https://openfoam.org
    \\  /    A nd           | Version:  10
     \\/     M anipulation  |
\*---------------------------------------------------------------------------*/
FoamFile
{
    format      ascii;
    class       volVectorField;
    location    "75";
    object      U_0;
}
// * * * * * * * * * * * * * * * * * * * * * * * * * * * * * * * * * * * * * //

dimensions      [0 1 -1 0 0 0 0];

internalField   nonuniform List<vector> 
102400
(
(0.0628583 -0.000144603 -0.0129433)
(0.0677643 0.00013186 0.00463332)
(0.0767816 0.000449615 0.014289)
(0.110083 3.34526e-05 0.0184265)
(0.133527 -0.000339902 0.0329279)
(0.111768 -0.00112541 0.0377974)
(0.0954743 -0.000956662 0.029699)
(0.107111 1.09848e-05 0.0259523)
(0.112932 -6.35037e-05 0.0159781)
(0.105146 -9.21158e-06 -0.00261301)
(0.109263 0.00016342 -0.0147231)
(0.13411 -0.000160118 -0.0229945)
(0.14844 -0.000397586 -0.010993)
(0.11725 -0.000512981 0.00925545)
(0.0786982 -0.000657771 0.0118856)
(0.0628516 -0.000175271 0.00254826)
(0.0624548 0.000140173 -0.0076585)
(0.0717879 0.000218669 -0.00823942)
(0.0827863 0.00065987 0.00349733)
(0.0876404 0.000124585 0.00923543)
(0.0850619 -0.00039475 -0.00382365)
(0.0838612 0.000266133 -0.0074588)
(0.0797747 0.000462414 -0.000643401)
(0.0733614 -0.00014845 -0.0158714)
(0.0688613 -0.00115096 -0.0345889)
(0.0669064 -0.000675649 -0.029829)
(0.0608674 0.000663127 -0.0252862)
(0.0603531 0.000990193 -0.0163263)
(0.0852149 0.000717544 0.00452425)
(0.124245 0.000406716 0.0197052)
(0.130932 -0.000245121 0.0179414)
(0.116395 -0.000439294 0.00199276)
(0.109261 -0.00018219 -0.0183938)
(0.0953293 -3.58274e-05 -0.0300212)
(0.073622 -0.000521373 -0.0190158)
(0.067713 -0.000611047 -0.00210986)
(0.0687237 0.000283663 -0.00379194)
(0.0636916 0.000824665 -0.0163234)
(0.0578978 0.000443479 -0.0296808)
(0.0558567 -0.000122607 -0.0277206)
(0.176596 0.000296933 -0.026854)
(0.187892 0.000998503 0.0152628)
(0.209253 -6.97566e-05 0.0358969)
(0.312494 -0.00342948 0.0283396)
(0.449512 -0.00431195 0.0569918)
(0.388357 -0.00542403 0.0819512)
(0.27295 -0.00399444 0.059316)
(0.294014 -0.00123246 0.0525874)
(0.33105 -0.00158558 0.0379946)
(0.304459 -0.001101 -0.00959708)
(0.308765 -0.00221772 -0.0405822)
(0.347226 -0.00494058 -0.0696192)
(0.431774 -0.00097564 -0.0548102)
(0.398825 0.00060412 0.00806862)
(0.260013 -0.000753975 0.0277242)
(0.18222 0.00024313 0.00392424)
(0.174468 0.000282009 -0.0204342)
(0.197574 0.00128348 -0.0175561)
(0.242162 0.00322297 0.00891844)
(0.269153 0.000286555 0.0101482)
(0.24385 -0.00114141 -0.016853)
(0.231515 0.00171498 -0.00571315)
(0.25093 0.00178848 0.0196181)
(0.268271 -0.00169788 -0.0181594)
(0.24025 -0.00479212 -0.0709498)
(0.195385 -0.00103299 -0.0614376)
(0.167823 0.00466915 -0.0423057)
(0.164464 0.00517943 -0.0160248)
(0.212333 6.51002e-05 0.0265239)
(0.32647 -0.00304791 0.0575162)
(0.407144 -0.00255307 0.0574681)
(0.378853 -0.00289304 0.0238834)
(0.345355 -0.00170877 -0.025566)
(0.332375 3.07228e-05 -0.0674913)
(0.26851 -0.00207766 -0.054727)
(0.204395 -0.00189155 -0.0114982)
(0.189485 0.00240079 -0.00850935)
(0.20455 0.00475793 -0.0361416)
(0.210787 0.00287361 -0.0653488)
(0.181301 0.000509638 -0.061418)
(0.294109 0.00240098 -0.0509969)
(0.305085 0.00271854 0.00864821)
(0.317905 -0.00126837 0.0474703)
(0.398216 -0.0135815 0.0138056)
(0.713282 -0.0149401 0.0153203)
(0.723114 -0.00820501 0.0889534)
(0.450947 -0.00425847 0.0735578)
(0.417498 -0.00332545 0.0564674)
(0.504697 -0.00505145 0.0667582)
(0.476014 -0.00362844 0.0098797)
(0.501035 -0.00533472 -0.042863)
(0.479998 -0.0149531 -0.0770412)
(0.551313 -0.00812262 -0.114108)
(0.668996 0.00356109 -0.0465577)
(0.509814 0.00593599 0.0237674)
(0.329303 0.00527065 0.00987868)
(0.279386 -0.000397034 -0.0269125)
(0.281876 0.000786011 -0.0315926)
(0.362464 0.00630213 0.0080076)
(0.422816 0.000909698 0.00731123)
(0.367719 -0.0019414 -0.0445654)
(0.335836 0.00288299 -0.0285282)
(0.392013 0.00295733 0.0557175)
(0.470022 -0.00183752 0.0494764)
(0.448731 -0.00740779 -0.0484238)
(0.344769 0.00106961 -0.0755678)
(0.277624 0.0120169 -0.0524239)
(0.263273 0.0128273 -0.0132396)
(0.295665 0.000675874 0.0376224)
(0.374163 -0.0130476 0.0697594)
(0.546744 -0.014499 0.0891389)
(0.632939 -0.01005 0.0655302)
(0.578334 -0.00690504 0.0202082)
(0.595442 -0.00145301 -0.0500561)
(0.550253 -0.00166525 -0.0854004)
(0.381029 -0.00244582 -0.0404639)
(0.30326 0.00402261 -0.00827984)
(0.334974 0.00866859 -0.0298006)
(0.391397 0.00750261 -0.0709532)
(0.341916 0.0040427 -0.0842134)
(0.441996 0.00622144 -0.0750747)
(0.431178 0.00528163 -0.0199032)
(0.435836 0.00132558 0.0405942)
(0.383143 -0.0248718 0.0179489)
(0.713334 -0.0330994 -0.0426875)
(0.978501 -0.0128186 0.0510161)
(0.650898 0.00153314 0.0771274)
(0.48607 -0.00238745 0.0408772)
(0.601955 -0.00836586 0.0818163)
(0.572261 -0.0083942 0.0534928)
(0.625925 -0.00977021 -0.0229754)
(0.666525 -0.0204411 -0.0410079)
(0.594101 -0.0191154 -0.0911001)
(0.768071 -0.000350037 -0.090647)
(0.737442 0.0156108 -0.0014812)
(0.52936 0.018061 0.0165876)
(0.429023 0.00402716 -0.0193235)
(0.345464 -0.00142102 -0.0407936)
(0.432586 0.00832487 0.000543215)
(0.548392 0.00360853 0.0139071)
(0.458792 -0.00195486 -0.0601827)
(0.372054 0.00301763 -0.0770171)
(0.436928 -0.000430376 0.0436284)
(0.590739 -0.00154853 0.134741)
(0.636676 -0.00667325 0.0364084)
(0.500202 0.00313438 -0.0665865)
(0.389934 0.0204655 -0.0648526)
(0.363358 0.0224087 -0.0175619)
(0.399459 0.00750966 0.0310011)
(0.414742 -0.016112 0.0473448)
(0.503696 -0.0310069 0.0718487)
(0.715278 -0.0254695 0.0655597)
(0.746852 -0.0181189 0.0394517)
(0.753521 -0.00932261 0.0117788)
(0.819471 -0.0017205 -0.0570383)
(0.62691 0.00105796 -0.0709661)
(0.429063 0.00559431 -0.0266778)
(0.427135 0.0101675 -0.00857666)
(0.524293 0.0120891 -0.0391907)
(0.522717 0.0101316 -0.076481)
(0.613978 0.0120032 -0.0673925)
(0.605089 0.00957074 -0.0499422)
(0.590534 0.00830823 0.018729)
(0.438248 -0.0308842 0.0413651)
(0.564958 -0.0606265 -0.0508006)
(1.03159 -0.0268641 0.0117768)
(0.820456 0.0108204 0.0730905)
(0.546827 0.00411125 0.0231257)
(0.640654 -0.00966575 0.0690303)
(0.640883 -0.0107492 0.095684)
(0.646038 -0.0162594 0.00845022)
(0.764286 -0.0238109 -0.0184072)
(0.704535 -0.0224365 -0.0314437)
(0.788633 -0.00990019 -0.0793376)
(0.847041 0.0167123 -0.0345029)
(0.732142 0.0353476 0.014458)
(0.678 0.0193135 0.0110704)
(0.490056 -0.00180668 -0.024982)
(0.461978 0.00692796 -0.00680527)
(0.660966 0.00639628 0.0304959)
(0.602918 0.0015232 -0.0434792)
(0.422337 0.00605929 -0.0944155)
(0.430702 -0.00523639 -0.0166132)
(0.617139 -0.0113415 0.133112)
(0.775812 -0.00683847 0.123987)
(0.640885 0.00429513 -0.0229439)
(0.483796 0.0271803 -0.0660705)
(0.448508 0.0305027 -0.0265363)
(0.503435 0.0151819 0.0103757)
(0.535038 -0.00789906 0.0164754)
(0.531286 -0.0355648 0.0381724)
(0.681288 -0.0404023 0.0523066)
(0.809175 -0.0309867 0.00685798)
(0.795828 -0.023205 0.00730255)
(0.935185 -0.00779139 -0.0058313)
(0.85949 0.00742549 -0.0536062)
(0.597894 0.0107061 -0.053058)
(0.499711 0.00790302 -0.0309936)
(0.580231 0.0116352 -0.0261289)
(0.64429 0.0149587 -0.0432506)
(0.6814 0.0093252 -0.0485285)
(0.786167 0.0101705 -0.0571968)
(0.799212 0.0203073 0.000531512)
(0.623881 -0.0224974 0.0437786)
(0.506914 -0.0866224 -0.0356873)
(0.958185 -0.0518257 -0.0257936)
(0.937279 0.0170084 0.0661106)
(0.635611 0.014822 0.0171027)
(0.658346 -0.00883862 0.0359431)
(0.698043 -0.0111539 0.104571)
(0.675039 -0.0199263 0.0416492)
(0.762171 -0.0248621 -0.0227149)
(0.753668 -0.0221875 0.00154246)
(0.853615 -0.0175015 -0.0289287)
(0.885214 0.0102535 -0.0471707)
(0.754521 0.0410641 -0.00850734)
(0.94094 0.0353734 0.0430278)
(0.823334 0.00892674 0.0164146)
(0.544685 0.00715952 0.0034514)
(0.729635 0.00517524 0.0548966)
(0.783458 0.00593017 -0.00434485)
(0.537131 0.0132743 -0.081447)
(0.458442 -0.00334082 -0.0486212)
(0.592118 -0.0223721 0.0344115)
(0.842346 -0.0154433 0.110686)
(0.770985 0.0015722 0.0263862)
(0.57209 0.0301711 -0.0470745)
(0.522607 0.0352217 -0.0396002)
(0.571903 0.0184443 -0.0250428)
(0.627915 0.000482047 -0.0233449)
(0.634351 -0.0291194 -0.00683044)
(0.688763 -0.045767 0.0407021)
(0.80625 -0.0387362 0.00119874)
(0.792988 -0.0364527 -0.0354185)
(0.924503 -0.0236192 -0.00530825)
(0.97418 0.00887584 -0.0169749)
(0.763444 0.020696 -0.0447357)
(0.610784 0.00702159 -0.0682752)
(0.626914 0.00647294 -0.0657429)
(0.666357 0.0132356 -0.0482299)
(0.672135 -0.00278859 -0.0550775)
(0.834325 -0.0043959 -0.0570236)
(0.915905 0.0225529 -0.00102788)
(0.812349 -0.0023688 0.0157833)
(0.614799 -0.079449 -0.0359606)
(0.853307 -0.0777783 -0.0699337)
(0.989418 0.00915573 0.0243337)
(0.754436 0.0251265 0.0144863)
(0.698119 -0.00441275 0.00230889)
(0.745915 -0.0113874 0.0759475)
(0.733802 -0.0235296 0.0585153)
(0.768528 -0.0246843 -0.0196112)
(0.769714 -0.0176299 0.00598791)
(0.901224 -0.0233362 0.0179386)
(0.941948 0.00433385 -0.0322301)
(0.744614 0.0404242 -0.0293321)
(0.938884 0.0308185 0.0320828)
(1.05032 0.014881 0.0286342)
(0.713068 0.0132494 0.0155585)
(0.754942 0.0026857 0.0727113)
(0.898244 0.00953048 0.0357335)
(0.687884 0.0224144 -0.053967)
(0.537629 0.00152319 -0.057821)
(0.613288 -0.0238713 -0.022318)
(0.839125 -0.0238564 0.026113)
(0.84023 -0.00516836 0.0265316)
(0.644072 0.0289093 -0.0268851)
(0.586327 0.03741 -0.0534509)
(0.611921 0.0202623 -0.0601361)
(0.653487 0.00572729 -0.0613292)
(0.691497 -0.0209915 -0.05622)
(0.730824 -0.0435441 0.00386425)
(0.789752 -0.0391606 0.00509612)
(0.785246 -0.0420575 -0.0488448)
(0.88984 -0.0416126 -0.0236226)
(0.971919 0.00212162 0.00410187)
(0.841579 0.0297987 -0.0163642)
(0.735763 0.0093108 -0.0744712)
(0.708152 0.00415631 -0.0958602)
(0.678941 0.0122489 -0.0682323)
(0.708661 -0.00930369 -0.0700055)
(0.804516 -0.0204225 -0.0649881)
(0.921179 0.0140642 -0.00134143)
(0.871014 0.00944236 0.00112485)
(0.703819 -0.0594096 -0.0442064)
(0.78632 -0.0906018 -0.0816194)
(0.943142 -0.0152796 -0.0284087)
(0.841712 0.0229115 -0.00343585)
(0.758514 -0.000530149 -0.026936)
(0.780208 -0.0120303 0.0256479)
(0.827174 -0.0262667 0.0523847)
(0.808058 -0.0237863 -0.00949997)
(0.794029 -0.0135842 0.00129948)
(0.940041 -0.0305656 0.0466383)
(1.01512 -0.000395755 -0.00282883)
(0.769712 0.0405136 -0.0397847)
(0.798306 0.016606 -0.0156925)
(0.973636 0.00745675 -0.00630723)
(0.776202 0.0166435 -0.00861503)
(0.751214 -0.00101891 0.0596381)
(0.908495 0.0101186 0.0660361)
(0.801214 0.0322031 -0.0296909)
(0.679943 0.00982941 -0.0600452)
(0.693262 -0.0230994 -0.030189)
(0.846929 -0.0259908 -0.0140606)
(0.865087 -0.00852223 0.01003)
(0.689744 0.026389 -0.0219358)
(0.639966 0.0378719 -0.0708281)
(0.644512 0.0229445 -0.0850574)
(0.659479 0.00994937 -0.0795638)
(0.71456 -0.0150687 -0.0850157)
(0.762661 -0.0379332 -0.0360063)
(0.780966 -0.0351869 -0.0060488)
(0.779813 -0.041595 -0.0461881)
(0.872484 -0.0524183 -0.0275792)
(0.930673 -0.00655679 0.0227598)
(0.839377 0.0303842 0.00452253)
(0.805665 0.00749157 -0.0667069)
(0.783395 0.00478795 -0.0895256)
(0.719364 0.0159316 -0.0642215)
(0.742956 -0.00769071 -0.0591765)
(0.791322 -0.0257935 -0.0746978)
(0.897476 0.00432091 -0.0186538)
(0.847487 0.0160808 0.00557862)
(0.705923 -0.0446245 -0.0512314)
(0.76643 -0.0972718 -0.0924373)
(0.891125 -0.0442795 -0.0477783)
(0.874382 0.00692218 -0.00435378)
(0.798951 -0.00131177 -0.0337031)
(0.781109 -0.015616 -0.0149512)
(0.917781 -0.03196 0.0227544)
(0.90697 -0.0214271 -0.00316594)
(0.837738 -0.00958813 0.00227876)
(0.976384 -0.0379407 0.0527947)
(1.06282 -0.00590386 0.0202252)
(0.82079 0.0437322 -0.0278217)
(0.740902 0.0127062 -0.0667751)
(0.862278 0.00272835 -0.0755317)
(0.787778 0.0188711 -0.0729866)
(0.761417 -0.00441698 0.0145935)
(0.870291 0.00491006 0.073115)
(0.845771 0.0373678 -0.0212589)
(0.785618 0.0196069 -0.0651457)
(0.77389 -0.0198037 -0.0283507)
(0.852338 -0.0249703 -0.0141067)
(0.873091 -0.0056926 0.0162087)
(0.744748 0.0261173 -0.0121256)
(0.71027 0.0382251 -0.0830815)
(0.692916 0.0266208 -0.102978)
(0.676355 0.0141629 -0.0892722)
(0.734366 -0.010959 -0.0961051)
(0.788035 -0.0316376 -0.0651349)
(0.784911 -0.0279508 -0.0259439)
(0.787411 -0.0371792 -0.0404253)
(0.868212 -0.0544267 -0.016486)
(0.885199 -0.0139366 0.0396215)
(0.81704 0.0236091 0.0204504)
(0.811913 0.00220473 -0.0538358)
(0.796575 0.00624269 -0.0705643)
(0.743422 0.0212955 -0.0405209)
(0.751763 -0.000274122 -0.0283737)
(0.796061 -0.0228626 -0.0643959)
(0.862738 -0.00407557 -0.0317214)
(0.829006 0.0231229 0.00484055)
(0.732762 -0.0193997 -0.0524909)
(0.75997 -0.0931265 -0.110939)
(0.875353 -0.0737872 -0.0637)
(0.905472 -0.013702 0.00653062)
(0.830667 -0.00046157 -0.0106412)
(0.77714 -0.0189088 -0.0176559)
(0.935572 -0.04545 -0.00601713)
(1.00337 -0.0239362 -0.00693724)
(0.897146 -0.00654602 0.0119973)
(0.98081 -0.0427334 0.0460663)
(1.08153 -0.0104175 0.0348062)
(0.87594 0.0453834 0.000981782)
(0.78555 0.0110197 -0.0785795)
(0.843024 0.00299168 -0.133471)
(0.8242 0.0243021 -0.143754)
(0.812151 -0.00486173 -0.0466126)
(0.849923 -0.00467229 0.0537315)
(0.861647 0.0387982 -0.0245259)
(0.846522 0.0322486 -0.0708549)
(0.814641 -0.0142224 -0.0285168)
(0.836051 -0.0204957 -0.00835427)
(0.858347 0.000275433 0.027956)
(0.789465 0.025559 0.00640657)
(0.783617 0.038668 -0.0828262)
(0.768555 0.0330478 -0.112437)
(0.734076 0.0202145 -0.0885058)
(0.763348 -0.00696058 -0.0885405)
(0.801086 -0.0265751 -0.0807591)
(0.800866 -0.0207187 -0.0522706)
(0.802935 -0.0305356 -0.0389036)
(0.873186 -0.0487134 -0.00321912)
(0.860051 -0.0174991 0.0499535)
(0.799056 0.0125766 0.0349204)
(0.804662 -0.00443567 -0.0341138)
(0.790034 0.00771107 -0.0501739)
(0.7479 0.0268535 -0.0115982)
(0.754812 0.0101116 -0.00802256)
(0.805706 -0.0144569 -0.0495415)
(0.833341 -0.00653678 -0.0324882)
(0.809355 0.0251979 -0.00526471)
(0.767078 -0.0015402 -0.0482833)
(0.781752 -0.0765806 -0.106883)
(0.864406 -0.0897486 -0.0749854)
(0.921103 -0.0341659 -0.00204544)
(0.862956 0.0032021 0.00415545)
(0.800408 -0.0149312 0.00236801)
(0.912459 -0.0573097 -0.0116446)
(1.01176 -0.0307773 -0.0135569)
(0.915109 -0.0031449 0.0151463)
(0.942709 -0.0445242 0.0379243)
(1.05698 -0.0149574 0.0401328)
(0.925462 0.0454663 0.0154751)
(0.829586 0.0123267 -0.0706244)
(0.833742 0.00643192 -0.150398)
(0.840449 0.02776 -0.178119)
(0.872122 -0.00685035 -0.100993)
(0.86636 -0.0157517 0.0199008)
(0.871053 0.0388125 -0.031904)
(0.878993 0.0475174 -0.0735222)
(0.844236 -0.00382046 -0.026493)
(0.824366 -0.0143587 -0.000827419)
(0.836382 0.00420598 0.0334159)
(0.803912 0.0208525 0.0133963)
(0.817932 0.0354003 -0.0810981)
(0.828036 0.0376643 -0.113226)
(0.808801 0.027382 -0.0839797)
(0.803677 -0.000849692 -0.0738044)
(0.804622 -0.0207354 -0.0814648)
(0.820108 -0.0154092 -0.0826743)
(0.823356 -0.0249488 -0.0497091)
(0.870718 -0.0400634 0.00827611)
(0.882863 -0.0146111 0.0545655)
(0.833024 0.00243905 0.0500579)
(0.817799 -0.0113685 -0.00393522)
(0.784508 0.00770085 -0.020754)
(0.741221 0.0318192 0.0171654)
(0.75562 0.0183143 -0.000677155)
(0.814181 -0.00507274 -0.039831)
(0.823222 -0.0039465 -0.0348183)
(0.800996 0.0249955 -0.0168454)
(0.785291 0.0105922 -0.0329276)
(0.813177 -0.0572661 -0.0825238)
(0.864447 -0.0880623 -0.0672106)
(0.916452 -0.0447328 -0.0138617)
(0.88082 0.00919303 0.00740516)
(0.823339 -0.00390938 0.00886839)
(0.897051 -0.060868 -0.0177252)
(0.986779 -0.0379964 -0.0249087)
(0.912592 0.000378155 6.99011e-06)
(0.91043 -0.0411876 0.0297401)
(1.01674 -0.0189134 0.0330846)
(0.94613 0.0456648 0.00179925)
(0.848402 0.0197163 -0.0663812)
(0.81529 0.0124947 -0.1428)
(0.840643 0.0300631 -0.188571)
(0.908953 -0.0119702 -0.135762)
(0.897895 -0.0272621 -0.0165233)
(0.87597 0.0388678 -0.0333824)
(0.889526 0.0618868 -0.0686343)
(0.862869 0.00856907 -0.0286106)
(0.814907 -0.00791689 0.0025051)
(0.816891 0.00731497 0.0303865)
(0.802323 0.0167038 0.0130446)
(0.816546 0.0304689 -0.0707187)
(0.851004 0.0389615 -0.100534)
(0.867408 0.032115 -0.0783713)
(0.853261 0.00553623 -0.0693929)
(0.815365 -0.0135963 -0.0786271)
(0.823314 -0.0114338 -0.102363)
(0.844631 -0.021823 -0.0700189)
(0.869182 -0.0310028 0.0116653)
(0.902581 -0.00819442 0.058525)
(0.895783 -0.0036564 0.0643057)
(0.858681 -0.0155582 0.0316931)
(0.788495 0.00937219 0.0163412)
(0.730985 0.0345249 0.0367669)
(0.766162 0.0205429 0.0110443)
(0.819508 0.00357375 -0.0324683)
(0.818718 0.00252607 -0.0383282)
(0.808502 0.0227281 -0.0202697)
(0.809696 0.020171 -0.0196129)
(0.838126 -0.0317292 -0.0654416)
(0.875501 -0.071786 -0.0489307)
(0.931445 -0.0465581 0.00065043)
(0.916716 0.0118012 0.0196222)
(0.84267 0.0104988 0.00404897)
(0.877975 -0.0518588 -0.0303734)
(0.958065 -0.0437818 -0.0420802)
(0.909504 -0.000413575 -0.0240074)
(0.894931 -0.0370621 0.0183459)
(0.983872 -0.0208241 0.0266243)
(0.949835 0.0500208 -0.0123076)
(0.873762 0.030686 -0.0655514)
(0.834873 0.0140752 -0.128015)
(0.862539 0.0260765 -0.183134)
(0.936679 -0.0158858 -0.146065)
(0.915298 -0.0388559 -0.037254)
(0.868977 0.0338667 -0.0282998)
(0.896033 0.075776 -0.0659557)
(0.888968 0.027656 -0.0420029)
(0.805019 0.000333413 -0.00502075)
(0.800552 0.00805807 0.0224148)
(0.810474 0.00960304 0.0108355)
(0.814761 0.0216175 -0.0540175)
(0.85535 0.0347198 -0.0822849)
(0.903197 0.0322138 -0.0676262)
(0.902375 0.0092455 -0.0660553)
(0.847641 -0.00548813 -0.08175)
(0.836265 -0.00631754 -0.104391)
(0.853669 -0.0236791 -0.0830745)
(0.870026 -0.0235537 -0.00334307)
(0.914443 0.00248331 0.0641358)
(0.951976 -0.00568807 0.0865745)
(0.902107 -0.0170178 0.0614657)
(0.793196 0.0137536 0.0406694)
(0.730595 0.0351263 0.0476335)
(0.781826 0.0169259 0.0332611)
(0.833727 0.0100471 -0.0156302)
(0.825042 0.0113986 -0.0391651)
(0.817376 0.0232422 -0.0210239)
(0.830651 0.0281567 -0.0154992)
(0.865811 -0.00862254 -0.0504511)
(0.894044 -0.0537898 -0.0237811)
(0.962117 -0.0464513 0.029185)
(0.965027 0.00965236 0.0332099)
(0.858561 0.0224671 0.00367446)
(0.860411 -0.0359116 -0.0268234)
(0.934722 -0.0469827 -0.0524541)
(0.91483 -0.00439898 -0.0499895)
(0.894983 -0.0261869 0.00357135)
(0.958292 -0.0213857 0.0217384)
(0.953953 0.0436254 -0.0162477)
(0.901404 0.0404758 -0.0534654)
(0.897085 0.0206131 -0.109)
(0.921477 0.0186794 -0.170662)
(0.968891 -0.0139925 -0.141932)
(0.92024 -0.0431239 -0.0394818)
(0.851562 0.0161995 -0.0230932)
(0.905321 0.0782613 -0.0764503)
(0.922323 0.0506033 -0.0642301)
(0.80752 0.0156194 -0.0179829)
(0.785018 0.00747111 0.0115335)
(0.830336 -0.00204102 0.00373323)
(0.829901 0.00843323 -0.0452763)
(0.851332 0.0259563 -0.0724084)
(0.915052 0.0261628 -0.06231)
(0.942727 0.0073608 -0.0615474)
(0.886549 -0.000888457 -0.0816055)
(0.862274 0.000236168 -0.0938857)
(0.865803 -0.0208621 -0.0760466)
(0.852353 -0.021009 -0.0339014)
(0.913825 0.00938439 0.0380122)
(1.01249 0.00129905 0.104514)
(0.96012 -0.00671805 0.0857728)
(0.811441 0.0270419 0.0422638)
(0.740954 0.0366133 0.0448724)
(0.812769 0.0153891 0.0575629)
(0.856837 0.0155732 0.0148059)
(0.848255 0.0229 -0.0339248)
(0.82736 0.0264926 -0.0217982)
(0.84152 0.0338619 -0.0170137)
(0.900914 0.00962292 -0.0445288)
(0.922125 -0.040321 -0.00477298)
(0.978641 -0.0483495 0.0579033)
(1.00128 0.00545971 0.0408354)
(0.872746 0.0316557 -0.00449761)
(0.842578 -0.0203438 -0.0206955)
(0.919486 -0.045542 -0.0463271)
(0.931456 -0.00742995 -0.0653047)
(0.925498 -0.010258 -0.0125007)
(0.966834 -0.0121816 0.0138536)
(0.928274 0.0281427 -0.0155648)
(0.862277 0.0344599 -0.0330141)
(0.924364 0.0220946 -0.0857854)
(0.967613 0.0166099 -0.150005)
(0.977399 -0.00562409 -0.122142)
(0.927622 -0.0397595 -0.0342813)
(0.840893 0.00338096 -0.0191723)
(0.879158 0.0776796 -0.0700722)
(0.92949 0.0703134 -0.06533)
(0.833126 0.0306461 -0.025478)
(0.780824 0.00874309 -0.0045632)
(0.831694 -0.00650792 -0.00377354)
(0.859859 0.00101865 -0.0356456)
(0.864491 0.0205579 -0.0698146)
(0.908714 0.0178262 -0.0683323)
(0.96295 -0.00376421 -0.0588648)
(0.921898 -0.00224584 -0.0766893)
(0.874089 0.00826795 -0.0880693)
(0.873757 -0.00949463 -0.064167)
(0.856042 -0.0137319 -0.0502464)
(0.89746 0.00820261 -0.0218926)
(1.0127 0.00419492 0.068057)
(0.991995 0.00944966 0.0894371)
(0.848896 0.047167 0.0307262)
(0.783251 0.0461222 0.0285438)
(0.858345 0.0290204 0.076837)
(0.86529 0.0230705 0.0569392)
(0.870098 0.0301854 -0.0149304)
(0.836302 0.0367982 -0.0194352)
(0.831042 0.0444564 -0.0108625)
(0.915412 0.0199167 -0.0355931)
(0.957497 -0.0319223 0.0061659)
(0.984997 -0.0501405 0.0827297)
(1.01367 -0.00292801 0.051031)
(0.899174 0.0337949 -0.0129096)
(0.849603 -0.00572693 -0.0179552)
(0.91477 -0.0382745 -0.030404)
(0.945208 -0.00885394 -0.0617869)
(0.948705 0.000375844 -0.0278107)
(0.999188 -0.00172776 -0.00605344)
(0.928818 0.0192139 -0.0155605)
(0.808176 0.0279226 0.0118147)
(0.898772 0.0207374 -0.0166025)
(0.994268 0.0230938 -0.0899437)
(0.990269 0.0124939 -0.085547)
(0.921542 -0.0353384 -0.0153002)
(0.81491 -0.0149059 0.00391774)
(0.857476 0.0691563 -0.0543886)
(0.956372 0.0853929 -0.0739254)
(0.916647 0.0484486 -0.0467668)
(0.834095 0.0129904 -0.036036)
(0.829366 -0.00914371 -0.0217522)
(0.873977 -0.0072776 -0.0268164)
(0.883656 0.0116457 -0.057349)
(0.892474 0.00718674 -0.058624)
(0.940374 -0.0223083 -0.0421887)
(0.928897 -0.0151491 -0.0639559)
(0.886426 0.0124643 -0.0937349)
(0.876023 0.00362693 -0.0745214)
(0.869749 -0.00749605 -0.0533669)
(0.898603 0.00482809 -0.0512344)
(0.972602 0.00597107 0.0169414)
(0.966321 0.0193377 0.064309)
(0.88723 0.0623714 0.0163923)
(0.859705 0.0630223 0.013332)
(0.913784 0.0471383 0.0774348)
(0.843724 0.0349804 0.0835013)
(0.852876 0.0345736 0.0140624)
(0.836856 0.0468855 0.00812775)
(0.822123 0.0560858 0.029784)
(0.915795 0.0268124 -0.000813073)
(0.980667 -0.0256896 0.0132933)
(0.985941 -0.0491746 0.0895036)
(0.995801 -0.00438598 0.0659118)
(0.902102 0.041942 -0.00328043)
(0.867624 0.0108374 -0.0146753)
(0.919346 -0.0257436 -0.028458)
(0.953589 -0.00599504 -0.0664272)
(0.96222 0.00474744 -0.0461573)
(1.00139 0.00922731 -0.0210391)
(0.948795 0.0290875 -0.0214276)
(0.826394 0.0281486 0.034979)
(0.879861 0.0110778 0.0569024)
(0.982645 0.0227067 -0.0102206)
(1.0031 0.039067 -0.0522144)
(0.981256 -0.013825 -0.0220876)
(0.830467 -0.0394415 0.0156828)
(0.801405 0.0355178 -0.0234887)
(0.916004 0.0746375 -0.0605941)
(0.982335 0.0516918 -0.0610817)
(0.942868 0.0191776 -0.0691669)
(0.870092 -0.00774849 -0.0385382)
(0.892378 -0.0208607 -0.0106222)
(0.909298 0.000457841 -0.0269697)
(0.899468 0.00532027 -0.0232398)
(0.932337 -0.0336278 -0.00399755)
(0.924194 -0.0358486 -0.0358742)
(0.88683 0.00439288 -0.0881767)
(0.882353 0.0164358 -0.0814127)
(0.882435 0.000567212 -0.0418615)
(0.89775 -0.0039999 -0.0469386)
(0.944816 0.0115305 -0.0252854)
(0.928334 0.0362096 0.0247206)
(0.892777 0.0628615 0.0044049)
(0.928738 0.0664423 0.00427947)
(0.953425 0.0720525 0.0625031)
(0.845783 0.052486 0.0974357)
(0.848836 0.0287892 0.0664624)
(0.863122 0.0503052 0.0481399)
(0.807815 0.0715633 0.0745901)
(0.869195 0.0316455 0.0520167)
(0.986066 -0.0310394 0.0174152)
(0.978611 -0.051069 0.0671579)
(0.952854 -0.0088889 0.0808101)
(0.924037 0.0429312 0.0211993)
(0.916816 0.0243906 -0.00368751)
(0.917039 -0.00726652 -0.0183813)
(0.93465 -4.60174e-05 -0.062198)
(0.962353 -0.00133672 -0.0663057)
(0.982035 0.0133824 -0.0280845)
(1.00277 0.0478366 -0.0411234)
(0.955746 0.0400718 -0.0287751)
(0.919713 0.00819614 0.034133)
(0.9141 0.00677595 0.0279327)
(0.929408 0.0237077 -0.0265055)
(1.05623 -0.00732799 -0.0405923)
(1.02058 -0.0360556 -0.0198249)
(0.863559 0.00675987 -0.0252114)
(0.862138 0.0382578 -0.0255186)
(0.93232 0.0298435 -0.0148454)
(0.967814 0.0245144 -0.0525967)
(0.928154 0.00607293 -0.0452777)
(0.954667 -0.032299 -0.00280184)
(0.98379 -0.0196625 -0.0116005)
(0.967166 0.00332897 -0.00559934)
(0.989387 -0.0345049 0.0253476)
(0.960517 -0.0538109 -0.00240164)
(0.904812 -0.0111993 -0.066438)
(0.911072 0.0240338 -0.074737)
(0.917761 0.0187388 -0.0315454)
(0.895934 -6.58839e-05 -0.0378194)
(0.913022 0.0107458 -0.0617762)
(0.913025 0.0465754 -0.0264868)
(0.901133 0.0701628 0.0121777)
(0.954684 0.0746341 0.0230762)
(0.950281 0.0848045 0.0422727)
(0.912279 0.0739137 0.0878345)
(0.926427 0.0198167 0.116106)
(0.919506 0.039028 0.0783425)
(0.848506 0.0849382 0.0788227)
(0.864239 0.0430234 0.097393)
(0.972712 -0.0377136 0.0605239)
(1.00209 -0.0523747 0.0429406)
(0.933841 -0.00721701 0.0655834)
(0.898661 0.0360078 0.0534705)
(0.929458 0.0310518 0.0341196)
(0.912091 0.0186016 0.000801659)
(0.898205 0.0218829 -0.0599032)
(0.958734 0.00317033 -0.0846747)
(0.957407 0.00968374 -0.0335973)
(0.975869 0.0454944 -0.0252735)
(1.0215 0.0465704 -0.0654075)
(0.988736 0.0153186 -0.0245291)
(0.926691 0.00315734 0.0299591)
(0.888416 0.000554029 0.00500917)
(0.948587 -0.0380052 -0.0142106)
(1.0457 -0.0571672 0.00218778)
(1.04017 -0.00893045 -0.0352956)
(1.00596 0.0199191 -0.0673425)
(0.962167 0.0148158 -0.0252039)
(0.930146 0.0256333 -0.00774098)
(0.906189 0.0248948 -0.00866188)
(0.963234 -0.0247105 0.00846489)
(1.03325 -0.028076 -0.0107453)
(1.03843 0.00704447 -0.0172079)
(1.04939 -0.0161836 0.0204925)
(1.01781 -0.0531742 0.0222691)
(0.956357 -0.033952 -0.0250337)
(0.962124 0.0146895 -0.0550887)
(0.964029 0.0395704 -0.0345975)
(0.921729 0.0216676 -0.0315588)
(0.905872 0.00917662 -0.0759292)
(0.897163 0.0461667 -0.0738073)
(0.917891 0.0729426 0.00778143)
(0.957696 0.0696259 0.0478991)
(0.910694 0.0850213 0.027422)
(0.959227 0.063471 0.0585985)
(1.01609 -0.00251567 0.113859)
(0.983845 0.0148231 0.0863691)
(0.937728 0.084357 0.0672954)
(0.977191 0.0588955 0.117297)
(1.01374 -0.0293825 0.110762)
(0.997508 -0.05675 0.0439232)
(0.936168 -0.00471492 0.0292032)
(0.896438 0.0427824 0.0584306)
(0.90216 0.0430259 0.0879089)
(0.870693 0.0397904 0.0765594)
(0.858002 0.039903 0.0185063)
(0.938245 0.0237876 -0.0343925)
(0.943074 0.0331285 -0.00621548)
(0.919929 0.0552023 0.035186)
(0.978104 0.0497389 -0.00476234)
(0.996028 0.0218132 -0.023196)
(0.959478 -0.000396692 0.0377057)
(0.941414 -0.00557229 0.0529871)
(0.965512 -0.0355938 -0.0100614)
(1.00092 -0.0790897 -0.0114702)
(1.05349 -0.0510536 0.00246303)
(1.09325 0.00235748 -0.058823)
(1.02711 0.0249889 -0.0757174)
(0.940192 0.0409946 -0.0309634)
(0.913414 0.0235774 -0.0115912)
(0.964497 -0.0435968 -0.013105)
(1.02635 -0.0482208 -0.0288832)
(1.03933 0.000762142 -0.0386597)
(1.04914 -0.00415661 -0.0186383)
(1.06696 -0.044024 -0.00129923)
(1.04114 -0.055875 -0.000179357)
(1.01221 -0.012383 -0.0200852)
(0.981732 0.0468209 -0.0290354)
(0.956428 0.0484564 -0.0131188)
(0.941892 0.0114439 -0.0363209)
(0.905071 0.0320925 -0.0744181)
(0.934007 0.0677155 -0.0187758)
(0.942984 0.0733648 0.040754)
(0.945787 0.0899232 0.0267377)
(1.00037 0.0577096 0.0347383)
(1.00676 -0.001434 0.0709141)
(0.91729 0.0143918 0.0659264)
(0.916293 0.0676135 0.0558336)
(1.04785 0.0485144 0.0982943)
(1.08867 0.0048026 0.116362)
(0.987387 -0.00312371 0.0542457)
(0.881927 0.0348488 0.00569778)
(0.861381 0.0603882 0.0256206)
(0.905236 0.0371328 0.0712975)
(0.901622 0.0207098 0.0955208)
(0.875994 0.0210675 0.0843267)
(0.902875 0.0153433 0.0386067)
(0.909794 0.0325199 0.0148806)
(0.898574 0.0544887 0.041831)
(0.929135 0.0516837 0.0361653)
(0.977135 0.0242392 0.00275427)
(0.994806 -0.0114872 0.029534)
(0.982682 -0.0254013 0.0783732)
(1.00012 -0.0392009 0.0354819)
(1.02472 -0.0726272 -0.0192907)
(1.03589 -0.0695954 0.0109187)
(1.04721 -0.0192266 -0.00889563)
(1.00019 0.0244638 -0.072813)
(0.950978 0.0554559 -0.065291)
(0.968792 0.0355127 -0.0248514)
(1.01291 -0.0374701 -0.0183182)
(1.02655 -0.0486868 -0.0347629)
(1.03055 -0.00500547 -0.0386687)
(1.04871 -0.00754384 -0.0222206)
(1.09634 -0.0423586 -0.00898255)
(1.10201 -0.0597393 -0.00950925)
(1.03455 -0.0201257 -0.0253118)
(0.983695 0.0493988 -0.0401158)
(1.01935 0.0618947 -0.00653411)
(1.04549 0.0238397 0.0144642)
(0.958589 0.0282098 -0.0349041)
(0.943774 0.0658024 -0.0351717)
(0.962351 0.0834639 0.0237256)
(0.970619 0.0769488 0.041954)
(1.00558 0.0436274 0.0393328)
(0.999588 0.00821107 0.0523362)
(0.892389 0.0263233 0.045548)
(0.868136 0.0396653 0.0340887)
(0.976033 -0.00344913 0.0659766)
(1.05839 -0.0245398 0.10294)
(1.02696 0.00110916 0.0714037)
(0.923948 0.041294 0.00471329)
(0.876366 0.0561356 -0.0131735)
(0.925066 0.0325684 0.0265764)
(0.96667 0.0166113 0.0803711)
(0.957977 0.0141054 0.103284)
(0.932758 0.00730848 0.0830527)
(0.899853 0.00925682 0.0421503)
(0.901569 0.0151688 0.0239809)
(0.928754 0.0204108 0.0256859)
(0.96123 0.0108442 0.0271376)
(0.996546 -0.0201005 0.04187)
(1.00688 -0.0429082 0.0677576)
(1.00571 -0.0488473 0.0596778)
(1.0134 -0.0634186 0.0205817)
(1.01854 -0.0603817 0.0216159)
(1.01065 -0.0180095 0.0157045)
(0.980002 0.0202585 -0.0393753)
(0.978302 0.0397693 -0.0570224)
(1.02503 0.0113999 -0.0196352)
(1.05877 -0.045909 0.00814021)
(1.02858 -0.0448609 -0.00530391)
(1.0078 -0.0128939 -0.0352673)
(1.05016 -0.0255915 -0.0442507)
(1.10831 -0.053918 -0.0171048)
(1.10698 -0.059681 0.00238171)
(1.01588 -0.0253807 -0.014709)
(0.957091 0.027347 -0.0442846)
(1.02548 0.0403437 -0.0360322)
(1.11283 0.0233721 -0.00837161)
(1.02333 0.0276274 -0.0373394)
(0.94338 0.0545727 -0.0535122)
(0.965692 0.0726276 0.0112306)
(1.00159 0.0512058 0.0175977)
(1.01644 0.0256249 0.0171609)
(1.00481 0.0235254 0.021013)
(0.939062 0.0590807 0.0185971)
(0.951733 0.0552628 0.0105552)
(1.02285 0.000612232 0.0410569)
(1.01409 -0.0193127 0.0816111)
(0.954896 0.0105885 0.0659743)
(0.905462 0.0458667 0.012802)
(0.89308 0.052934 -0.0174531)
(0.923147 0.0315983 0.00200039)
(0.967638 0.0228917 0.0502647)
(1.00028 0.0239517 0.0862473)
(1.01538 0.0131224 0.0866739)
(1.00296 0.00774317 0.0629583)
(0.979121 0.00188864 0.0403206)
(0.981095 -0.00231647 0.0192435)
(1.00679 -0.00430469 0.010509)
(1.02125 -0.0203701 0.0314741)
(1.01905 -0.0457669 0.0513628)
(1.02011 -0.0573673 0.0445363)
(1.014 -0.0584088 0.0342251)
(1.00163 -0.0502124 0.0346999)
(0.986667 -0.00706087 0.0221111)
(0.967028 0.0326639 -0.011759)
(0.994015 0.0266673 -0.0258051)
(1.06075 -0.0158277 -0.00375037)
(1.08509 -0.0442189 0.0209799)
(1.02364 -0.0187517 0.00366722)
(0.980849 -0.00826946 -0.0503198)