/*--------------------------------*- C++ -*----------------------------------*\
  =========                 |
  \\      /  F ield         | OpenFOAM: The Open Source CFD Toolbox
   \\    /   O peration     | Website:  https://openfoam.org
    \\  /    A nd           | Version:  10
     \\/     M anipulation  |
\*---------------------------------------------------------------------------*/
FoamFile
{
    format      ascii;
    class       volVectorField;
    location    "9";
    object      UMean;
}
// * * * * * * * * * * * * * * * * * * * * * * * * * * * * * * * * * * * * * //

dimensions      [0 1 -1 0 0 0 0];

internalField   nonuniform List<vector> 
25600
(
(0.0972029 3.71332e-05 0.000280195)
(0.0969586 5.99723e-06 0.00178787)
(0.0975178 1.26489e-05 0.00137576)
(0.0980433 3.58683e-05 8.58057e-05)
(0.0979702 4.56421e-05 -0.000675449)
(0.0965723 5.52439e-05 9.77676e-05)
(0.0963951 6.88173e-05 0.000378084)
(0.0955163 5.64642e-05 0.00102401)
(0.0961195 2.41047e-05 0.000864391)
(0.0963726 7.48228e-06 0.000703957)
(0.0967424 2.63314e-05 0.000531366)
(0.0966897 3.26302e-05 0.000463088)
(0.0964143 1.58822e-05 -0.000227465)
(0.0968088 -2.82223e-07 -0.00115392)
(0.0973005 6.92193e-06 -0.00144968)
(0.0963256 1.76096e-05 -0.00123085)
(0.0959416 3.3689e-05 -0.000776172)
(0.0942961 4.86711e-05 -0.000538011)
(0.0941638 2.76694e-05 -0.000785395)
(0.0935248 1.33228e-05 -0.00113528)
(0.0940522 2.84614e-05 -0.00111541)
(0.0937286 2.6876e-05 -0.000350991)
(0.0955398 -8.89631e-06 0.000105753)
(0.0955607 -1.8921e-05 -0.000152067)
(0.0971525 -1.5711e-05 -0.000810067)
(0.0973769 3.53871e-05 -0.000745634)
(0.0967792 7.53025e-05 -0.000492555)
(0.0960779 5.8767e-05 -0.000342555)
(0.096154 3.60893e-05 -0.000931926)
(0.0959072 2.70212e-05 -0.00163522)
(0.0974051 -6.19294e-06 -0.00205831)
(0.0972955 1.13377e-05 -0.00195288)
(0.0988976 1.98348e-05 -0.00188965)
(0.0976649 -7.73685e-06 -0.00132919)
(0.0993982 3.27156e-07 -0.0011442)
(0.097356 1.9088e-05 -0.000537914)
(0.0985871 2.46551e-05 -6.02379e-05)
(0.0971159 1.88562e-05 0.000110588)
(0.0988226 1.51321e-05 -0.00113134)
(0.0970079 2.22e-05 -0.000653304)
(0.285089 0.000224371 -8.80245e-05)
(0.284246 0.000194372 0.00295271)
(0.284666 0.000174409 0.00230748)
(0.286724 0.000266278 9.08125e-05)
(0.287178 0.00042155 -0.00197623)
(0.283396 0.000462345 -0.000156504)
(0.283195 0.00056862 0.000299475)
(0.280344 0.000526659 0.00216512)
(0.282234 0.000328406 0.00197503)
(0.282378 0.000189719 0.001551)
(0.283596 0.000263149 0.00108157)
(0.283733 0.000378208 0.00128358)
(0.28298 0.000362766 0.000128623)
(0.284005 0.00024317 -0.00173516)
(0.284929 0.00030988 -0.00308268)
(0.282413 0.000384401 -0.00299357)
(0.28136 0.000502372 -0.0021032)
(0.276233 0.000653709 -0.00113199)
(0.275693 0.000502424 -0.00138922)
(0.273692 0.000397674 -0.00190382)
(0.27504 0.000354213 -0.00257415)
(0.274539 0.000318612 -0.00129979)
(0.279387 0.000153978 -0.000483172)
(0.278897 0.000117811 -0.000491932)
(0.283336 1.46625e-05 -0.0019117)
(0.284157 0.000370046 -0.0021813)
(0.283266 0.000653174 -0.00166447)
(0.28223 0.000555227 -0.000769518)
(0.282253 0.000515429 -0.00203403)
(0.281982 0.000393532 -0.00368854)
(0.286112 0.000276719 -0.00499752)
(0.284635 0.000291888 -0.0047751)
(0.289975 0.00032339 -0.00489126)
(0.286261 0.000156917 -0.00386499)
(0.291512 0.000134259 -0.0037797)
(0.285385 0.000262312 -0.00248849)
(0.289433 0.000289907 -0.00135724)
(0.284547 0.000318596 -0.000174846)
(0.289026 0.000319828 -0.00256095)
(0.283202 0.000224648 -0.0017045)
(0.458065 0.000655681 -0.00213968)
(0.457968 0.000550019 0.00219351)
(0.460877 0.000592566 0.00172685)
(0.461062 0.000840534 -0.000282148)
(0.463104 0.00120442 -0.00370214)
(0.456946 0.00122464 -0.00144812)
(0.45739 0.00134265 -0.00127354)
(0.45326 0.00129494 0.0012617)
(0.456775 0.00101014 0.00102151)
(0.456193 0.000768643 0.000322724)
(0.459315 0.000891432 -6.25165e-05)
(0.458428 0.00115913 0.000848498)
(0.458836 0.00121937 -0.000403391)
(0.459188 0.00104999 -0.00191407)
(0.460145 0.00120173 -0.00437107)
(0.457299 0.00140694 -0.00458375)
(0.455294 0.00154276 -0.00394891)
(0.448543 0.00192425 -0.00260968)
(0.447152 0.00167713 -0.0029138)
(0.44223 0.00136768 -0.00281311)
(0.445457 0.00116433 -0.00337254)
(0.441677 0.000977841 -0.00236116)
(0.450454 0.000624338 -0.0018783)
(0.448909 0.000705819 -0.0016881)
(0.455451 0.000446644 -0.00356116)
(0.454124 0.0010215 -0.0039078)
(0.458932 0.00155132 -0.0033456)
(0.455014 0.00152658 -0.00182539)
(0.457891 0.00144494 -0.00403487)
(0.457021 0.00121511 -0.0059761)
(0.462155 0.000936764 -0.00805471)
(0.460147 0.000924029 -0.00748366)
(0.46801 0.00104229 -0.00808259)
(0.462806 0.000737323 -0.00718123)
(0.468703 0.000654839 -0.00777979)
(0.461379 0.000824534 -0.00607016)
(0.467775 0.000881005 -0.00482129)
(0.45818 0.000921548 -0.00217996)
(0.466906 0.00102083 -0.00494145)
(0.456803 0.000895362 -0.00349922)
(0.604165 0.0017983 -0.00576937)
(0.601075 0.00146396 -0.00109251)
(0.607934 0.00143758 -0.000612638)
(0.603716 0.00195834 -0.00250262)
(0.611387 0.00250696 -0.00734098)
(0.601511 0.00254901 -0.005729)
(0.604706 0.00262272 -0.00576079)
(0.597957 0.00240883 -0.00293462)
(0.605088 0.00208072 -0.00342054)
(0.603236 0.00196125 -0.00465815)
(0.609072 0.00216105 -0.00495874)
(0.606893 0.00268366 -0.00243757)
(0.609014 0.0028344 -0.00317105)
(0.6085 0.00279443 -0.00336374)
(0.608725 0.003036 -0.00679618)
(0.607623 0.00336508 -0.00728069)
(0.603692 0.00361899 -0.0071643)
(0.598083 0.00405942 -0.00527111)
(0.595256 0.00370557 -0.00615463)
(0.589408 0.00332194 -0.00488634)
(0.586975 0.00273101 -0.00496835)
(0.584825 0.00241311 -0.00344926)
(0.589442 0.00165261 -0.00319073)
(0.592442 0.00184246 -0.00338822)
(0.595152 0.00155789 -0.00593341)
(0.594901 0.00215963 -0.00547434)
(0.600355 0.00283294 -0.00575627)
(0.600432 0.00279208 -0.00374856)
(0.608204 0.00269777 -0.00718345)
(0.606798 0.00258337 -0.00952885)
(0.611952 0.00237037 -0.0125236)
(0.606263 0.00215537 -0.0114282)
(0.617505 0.00219277 -0.0118954)
(0.611565 0.00169871 -0.0113155)
(0.619365 0.00175008 -0.013498)
(0.610977 0.00199442 -0.0127243)
(0.618705 0.00207664 -0.0109972)
(0.606941 0.0020517 -0.0070463)
(0.615768 0.00227404 -0.00877599)
(0.602118 0.00240136 -0.00722508)
(0.711352 0.00398502 -0.0109719)
(0.706639 0.0034686 -0.00649004)
(0.714174 0.00348425 -0.00451119)
(0.706275 0.00406054 -0.00655422)
(0.71868 0.00454575 -0.0120534)
(0.708844 0.00477822 -0.0121217)
(0.712934 0.00479077 -0.0121932)
(0.705514 0.00461967 -0.010225)
(0.712678 0.004044 -0.0101813)
(0.712381 0.00408708 -0.0115323)
(0.721799 0.00443943 -0.0121025)
(0.717005 0.00508427 -0.0085411)
(0.725018 0.00529751 -0.007785)
(0.719925 0.00550021 -0.00619569)
(0.723252 0.00582075 -0.008771)
(0.720106 0.00640455 -0.0102481)
(0.71758 0.00663408 -0.00968334)
(0.714795 0.00712286 -0.00778647)
(0.711272 0.00662994 -0.0091552)
(0.705653 0.00622863 -0.00749037)
(0.700963 0.00538634 -0.00676382)
(0.694179 0.00480312 -0.00448458)
(0.699571 0.00374428 -0.00412695)
(0.696703 0.00388977 -0.00434857)
(0.70261 0.00366299 -0.00658405)
(0.693686 0.00409434 -0.00613292)
(0.704816 0.00472585 -0.00669121)
(0.703753 0.00448711 -0.00518326)
(0.719315 0.00439522 -0.0090769)
(0.714389 0.00439978 -0.0122594)
(0.727996 0.00441141 -0.0157495)
(0.716746 0.00438073 -0.0147334)
(0.72968 0.00423485 -0.0156144)
(0.720824 0.00371427 -0.0143734)
(0.728667 0.00359243 -0.017863)
(0.7222 0.00424388 -0.0183645)
(0.72847 0.00444544 -0.0182845)
(0.716143 0.00445301 -0.0138395)
(0.722593 0.00454928 -0.0142551)
(0.710189 0.00501239 -0.0128334)
(0.785656 0.00742086 -0.0152523)
(0.780706 0.00678807 -0.0107431)
(0.785727 0.00677562 -0.00791125)
(0.780492 0.00746945 -0.00885305)
(0.786838 0.00746316 -0.013435)
(0.784814 0.00779884 -0.0145553)
(0.787088 0.00765565 -0.0148709)
(0.782699 0.00756465 -0.013757)
(0.788904 0.00657641 -0.0132663)
(0.789238 0.0066743 -0.0140539)
(0.79661 0.00704109 -0.0142065)
(0.798905 0.00780589 -0.0109736)
(0.802383 0.00808164 -0.00959522)
(0.804231 0.00867608 -0.00662602)
(0.799569 0.00885387 -0.00764932)
(0.802851 0.00963997 -0.0085112)
(0.79405 0.00984687 -0.00845118)
(0.792163 0.0102328 -0.00766151)
(0.78994 0.00970633 -0.00931147)
(0.785126 0.00912058 -0.00883951)
(0.781748 0.00809221 -0.00714668)
(0.778204 0.00742591 -0.00453215)
(0.778814 0.00618385 -0.00361118)
(0.776186 0.00628183 -0.00498643)
(0.78103 0.00635236 -0.00601448)
(0.771538 0.00671473 -0.00477244)
(0.778983 0.00692169 -0.00608784)
(0.783517 0.00657368 -0.00411113)
(0.794874 0.00649063 -0.007582)
(0.796689 0.00619674 -0.0103881)
(0.80346 0.00625416 -0.0140279)
(0.796265 0.00651544 -0.0114313)
(0.805574 0.00654641 -0.0128112)
(0.800341 0.00648203 -0.011914)
(0.803084 0.00610513 -0.0152471)
(0.799133 0.00687805 -0.0154933)
(0.803009 0.00732118 -0.0180032)
(0.793758 0.00756585 -0.0150364)
(0.794619 0.00733213 -0.0160108)
(0.788423 0.00826829 -0.0156898)
(0.838883 0.0104965 -0.0106319)
(0.835167 0.010195 -0.00889612)
(0.832807 0.00973812 -0.00611692)
(0.832248 0.0108739 -0.00632459)
(0.833517 0.0103433 -0.00943693)
(0.837286 0.0105607 -0.0107749)
(0.834952 0.01022 -0.0115953)
(0.837509 0.0100419 -0.0104408)
(0.835147 0.0086037 -0.00966317)
(0.838537 0.0086465 -0.00847201)
(0.838754 0.0089455 -0.00864281)
(0.845485 0.00963401 -0.00533225)
(0.847817 0.00984775 -0.00412038)
(0.858849 0.0110497 -0.00156775)
(0.852035 0.0116834 -0.00106282)
(0.858507 0.0121471 -0.00133185)
(0.85274 0.0125699 -0.00261925)
(0.849425 0.0125803 -0.00245839)
(0.849603 0.0121699 -0.00563785)
(0.847504 0.0114674 -0.0069167)
(0.848757 0.0102968 -0.00687069)
(0.842817 0.00927632 -0.00391195)
(0.850831 0.00804606 -0.00257429)
(0.83808 0.00794198 -0.00364681)
(0.852687 0.00844761 -0.00312359)
(0.839774 0.00883051 -0.000977034)
(0.85131 0.00874903 -0.00170276)
(0.844288 0.008196 0.00111075)
(0.860363 0.00815871 0.000979854)
(0.852905 0.00741236 -0.00232327)
(0.860568 0.00745351 -0.0027472)
(0.845464 0.00779036 -0.000929179)
(0.852079 0.00828199 -0.000995488)
(0.844406 0.00882769 -0.00233544)
(0.84965 0.00876306 -0.00319783)
(0.8369 0.00949983 -0.00345158)
(0.842507 0.00977785 -0.0047593)
(0.837486 0.0102332 -0.00484734)
(0.83948 0.00975677 -0.00553604)
(0.837395 0.0110355 -0.00895276)
(0.873342 0.0118049 0.00121335)
(0.877864 0.0117319 0.00155464)
(0.86841 0.011009 0.00360656)
(0.873301 0.0125191 0.00451279)
(0.870514 0.0120256 0.0022551)
(0.876635 0.0121043 0.00134265)
(0.872191 0.0114852 -0.00113274)
(0.875422 0.0113371 -0.00140364)
(0.872894 0.00989562 -0.000595309)
(0.874211 0.00960549 0.00190371)
(0.875501 0.00979453 0.00221309)
(0.881768 0.00992394 0.00599059)
(0.883293 0.00969113 0.00632055)
(0.890813 0.0108182 0.00763621)
(0.89096 0.0116231 0.00758607)
(0.899267 0.0117603 0.00841898)
(0.898649 0.012774 0.00668727)
(0.894455 0.0126284 0.00662361)
(0.899434 0.0122312 0.00422769)
(0.898658 0.0116429 0.00160924)
(0.903803 0.0110056 0.000522026)
(0.895994 0.00967891 0.0014077)
(0.906084 0.00899868 0.00360778)
(0.891281 0.00887765 0.00214637)
(0.905193 0.00956608 0.00374616)
(0.894493 0.00979307 0.00630269)
(0.90209 0.00948703 0.0070802)
(0.892339 0.00885545 0.010438)
(0.90116 0.00853723 0.012676)
(0.894587 0.0084592 0.0111743)
(0.891834 0.00847543 0.0127688)
(0.882294 0.00884797 0.0150084)
(0.878258 0.00878762 0.0148054)
(0.879771 0.00944151 0.0132339)
(0.875404 0.00987045 0.0123669)
(0.87314 0.0107025 0.0129867)
(0.869782 0.0105129 0.0122052)
(0.869839 0.0112505 0.0113088)
(0.868828 0.0104845 0.010785)
(0.874159 0.0123437 0.00616478)
(0.911003 0.0113481 0.0156178)
(0.91557 0.0113258 0.0155225)
(0.911593 0.0106846 0.0172484)
(0.911799 0.0116053 0.0181336)
(0.915617 0.0113576 0.0165157)
(0.917813 0.0110259 0.0157765)
(0.918241 0.0107291 0.0122615)
(0.918676 0.0104694 0.00858596)
(0.921827 0.00919804 0.00756109)
(0.92121 0.00874889 0.00985565)
(0.923072 0.00900247 0.011931)
(0.926145 0.00875844 0.0160618)
(0.930844 0.00831178 0.0182833)
(0.931443 0.00880619 0.0170329)
(0.936326 0.00924113 0.0175303)
(0.934762 0.00918943 0.0181984)
(0.937741 0.0105977 0.0192784)
(0.932504 0.0103363 0.019424)
(0.940627 0.00988506 0.0194388)
(0.937883 0.00941295 0.0161004)
(0.95116 0.00931864 0.0139956)
(0.942703 0.00837542 0.0124947)
(0.952852 0.00807624 0.0146047)
(0.942052 0.00799014 0.0130849)
(0.945594 0.0084416 0.0128637)
(0.941998 0.00853111 0.0143259)
(0.94242 0.00796531 0.0152426)
(0.939634 0.00749191 0.0164206)
(0.939044 0.00647786 0.0191701)
(0.939759 0.00693081 0.0195969)
(0.93478 0.00765468 0.0229515)
(0.931856 0.00829096 0.0259967)
(0.92147 0.00771921 0.0256583)
(0.925428 0.00834818 0.0239738)
(0.918261 0.00939227 0.0227305)
(0.920641 0.0106934 0.0234901)
(0.910326 0.0105129 0.0233253)
(0.910911 0.0111701 0.0228919)
(0.906744 0.00990371 0.0230595)
(0.909514 0.0117478 0.0210118)
(0.957277 0.00681685 0.0233177)
(0.954801 0.00730144 0.022121)
(0.960831 0.00741895 0.0239727)
(0.953599 0.00776192 0.0232935)
(0.962756 0.00705297 0.0212414)
(0.961453 0.00602629 0.0212251)
(0.962673 0.00576467 0.0196)
(0.961792 0.00555655 0.0143808)
(0.967224 0.00470051 0.0119708)
(0.966969 0.00448376 0.0126022)
(0.970392 0.00506385 0.0134242)
(0.972016 0.00479097 0.015776)
(0.981277 0.00459109 0.0188474)
(0.978821 0.00455266 0.0179501)
(0.984433 0.0046993 0.0179993)
(0.978191 0.00451079 0.0184374)
(0.980014 0.00582159 0.0200629)
(0.970268 0.00551851 0.0204264)
(0.975009 0.00496106 0.0211411)
(0.9687 0.00419527 0.0191452)
(0.983462 0.00424476 0.016693)
(0.978428 0.00439406 0.0141646)
(0.98591 0.00407389 0.0150984)
(0.980459 0.00457742 0.014081)
(0.976015 0.00479566 0.0107153)
(0.976337 0.00507705 0.0117625)
(0.973844 0.00458803 0.0122209)
(0.977751 0.00424308 0.0133488)
(0.973011 0.00281225 0.017026)
(0.979066 0.00283357 0.0202425)
(0.977427 0.00383636 0.0222987)
(0.979926 0.00495379 0.026271)
(0.970277 0.00453894 0.0266362)
(0.972482 0.00474462 0.0265683)
(0.965328 0.00560465 0.0249439)
(0.965894 0.00713713 0.0264748)
(0.959317 0.00689362 0.0270151)
(0.955949 0.00720799 0.0273278)
(0.955056 0.00594218 0.0271246)
(0.950671 0.0069304 0.0281212)
(1.00278 0.000140914 0.0190318)
(0.998895 0.000999984 0.0172158)
(1.00382 0.00211965 0.0198555)
(0.996024 0.00255669 0.0203967)
(0.998318 0.00118332 0.0189038)
(0.999375 0.000303889 0.0194307)
(0.994687 -0.000178778 0.0219178)
(0.995122 -0.000450422 0.0210252)
(0.999023 -0.000557153 0.0196316)
(1.00123 -0.00029264 0.0184304)
(1.00119 0.000122413 0.0161757)
(1.00461 -0.000202501 0.0138829)
(1.01214 -0.000174707 0.0143312)
(1.01299 1.83544e-06 0.0122857)
(1.0151 -2.98905e-05 0.0110236)
(1.01181 -1.01896e-05 0.0102249)
(1.00785 0.00132422 0.0115085)
(1.00349 0.00160841 0.0119735)
(1.00507 0.000739694 0.0134495)
(1.00087 -0.000379119 0.0136036)
(1.00563 -0.000898434 0.0130469)
(1.00514 -0.000282933 0.0111178)
(1.00769 -0.000577825 0.0117235)
(1.0043 0.000215011 0.0112609)
(0.996895 0.000376258 0.00950339)
(0.994937 0.000599768 0.0123013)
(0.989712 7.44315e-05 0.0154342)
(0.995834 -0.00025024 0.018533)
(0.991234 -0.00106836 0.0226659)
(0.999258 -0.00110836 0.0248988)
(1.00098 -0.000349287 0.0236943)
(1.0079 0.000709244 0.0242343)
(1.00489 0.000346042 0.023624)
(1.00982 -0.000185611 0.0227415)
(1.00764 0.000333424 0.0212514)
(1.00703 0.00141923 0.0209604)
(1.00498 0.000958902 0.0218481)
(0.999204 0.00126564 0.0223337)
(1.0015 0.000503611 0.0217259)
(0.993405 0.000633565 0.0229122)
(1.02386 -0.00386326 0.0162732)
(1.02334 -0.00336006 0.0134935)
(1.02739 -0.00197246 0.0161717)
(1.02645 -0.00161884 0.018759)
(1.02427 -0.00305619 0.0189351)
(1.0258 -0.00339253 0.0184652)
(1.02167 -0.00327287 0.0217302)
(1.02109 -0.00411469 0.0222507)
(1.02368 -0.00469296 0.02061)
(1.02638 -0.0047967 0.0187403)
(1.02537 -0.0048564 0.0163036)
(1.02676 -0.0057269 0.0124534)
(1.02842 -0.00580692 0.0112669)
(1.02757 -0.00522603 0.00945237)
(1.02773 -0.0049439 0.00835455)
(1.02582 -0.00426348 0.00739478)
(1.0215 -0.0031869 0.00832447)
(1.02147 -0.00283801 0.00940994)
(1.02684 -0.00368322 0.0110668)
(1.02985 -0.00441693 0.011518)
(1.03073 -0.00464476 0.0113624)
(1.02902 -0.00393545 0.0104752)
(1.03106 -0.00378162 0.0107752)
(1.02861 -0.00255715 0.0120739)
(1.0243 -0.00286007 0.0122704)
(1.02272 -0.00261015 0.0140927)
(1.01791 -0.00356182 0.0162293)
(1.01952 -0.00460213 0.0171278)
(1.01576 -0.00560113 0.0193762)
(1.01829 -0.00583571 0.0203788)
(1.01811 -0.00533062 0.0188113)
(1.02196 -0.00427501 0.0172192)
(1.02085 -0.00419551 0.016752)
(1.02479 -0.00459518 0.0159225)
(1.02511 -0.00414517 0.0161207)
(1.02457 -0.00302531 0.0159833)
(1.02317 -0.00276146 0.0174022)
(1.01886 -0.00225004 0.0176077)
(1.02418 -0.00263765 0.0169785)
(1.01871 -0.00269699 0.0180448)
(1.03642 -0.00782456 0.00841261)
(1.03479 -0.00756645 0.00620173)
(1.03649 -0.00676098 0.00728883)
(1.03936 -0.00634715 0.00894483)
(1.03864 -0.00747567 0.00959483)
(1.03821 -0.0076024 0.00837961)
(1.03579 -0.00734309 0.00995065)
(1.03527 -0.00806989 0.00966939)
(1.03749 -0.00897957 0.00795605)
(1.0396 -0.00903182 0.00704781)
(1.04002 -0.00902095 0.00608724)
(1.04166 -0.00937102 0.00417753)
(1.04154 -0.00930883 0.00352366)
(1.04041 -0.00861082 0.00306767)
(1.04046 -0.00854985 0.00314937)
(1.04004 -0.00765816 0.00365643)
(1.03835 -0.00711905 0.00410088)
(1.03973 -0.00700388 0.00474151)
(1.0434 -0.00794436 0.00544785)
(1.04783 -0.00848257 0.00548319)
(1.04868 -0.00827429 0.00478521)
(1.04599 -0.00746903 0.00496341)
(1.04711 -0.00723656 0.00460072)
(1.04616 -0.00571968 0.00580187)
(1.04468 -0.00618948 0.0047717)
(1.04453 -0.00561457 0.0045523)
(1.04161 -0.00610723 0.00470318)
(1.04178 -0.00714255 0.00381894)
(1.03961 -0.00824276 0.00489984)
(1.0388 -0.00873233 0.00606891)
(1.03516 -0.00846576 0.0055257)
(1.03567 -0.00747844 0.00409481)
(1.03432 -0.00747365 0.00407464)
(1.03578 -0.00789841 0.00421284)
(1.03465 -0.0075849 0.00507569)
(1.03354 -0.00647155 0.00574886)
(1.03274 -0.00607863 0.00724321)
(1.03158 -0.00595647 0.00753202)
(1.0366 -0.00656588 0.0067854)
(1.03473 -0.0063552 0.0078889)
(1.04134 -0.0081598 -0.00459998)
(1.03978 -0.00797789 -0.00566096)
(1.03988 -0.00753665 -0.00539184)
(1.04159 -0.00718421 -0.00468214)
(1.04117 -0.00802199 -0.00408539)
(1.0393 -0.00788605 -0.00450958)
(1.03664 -0.00757227 -0.00325846)
(1.03622 -0.00803689 -0.0023575)
(1.03767 -0.00907398 -0.0023266)
(1.03954 -0.00915542 -0.00189855)
(1.04008 -0.009275 -0.00178074)
(1.04109 -0.00966252 -0.00191746)
(1.04108 -0.00992504 -0.00177315)
(1.04143 -0.00942441 -0.00185502)
(1.04171 -0.0094598 -0.00189375)
(1.04254 -0.00851873 -0.00189157)
(1.04239 -0.00812908 -0.00228394)
(1.04388 -0.00799262 -0.00267324)
(1.04444 -0.00854585 -0.00256481)
(1.04628 -0.00862414 -0.00273035)
(1.04554 -0.00813009 -0.00331393)
(1.04368 -0.00730037 -0.00321777)
(1.04389 -0.00740869 -0.00339881)
(1.04327 -0.00584287 -0.00263644)
(1.04237 -0.0062103 -0.00341548)
(1.04205 -0.00561648 -0.00366016)
(1.04008 -0.00540558 -0.00381612)
(1.03995 -0.00613635 -0.00466596)
(1.03947 -0.00698835 -0.00450496)
(1.03896 -0.00721698 -0.00415528)
(1.03658 -0.00709407 -0.00425968)
(1.03675 -0.00664069 -0.00522023)
(1.03622 -0.00678876 -0.00563808)
(1.03701 -0.00733107 -0.00549709)
(1.03617 -0.00703028 -0.00521858)
(1.03582 -0.00634408 -0.00501793)
(1.03545 -0.00617828 -0.00468054)
(1.03727 -0.00649287 -0.0045693)
(1.04029 -0.0069134 -0.00556194)
(1.04038 -0.00663796 -0.00507089)
(1.03446 -0.00695462 -0.00761406)
(1.03387 -0.00695704 -0.00824137)
(1.03403 -0.00672988 -0.0080719)
(1.03439 -0.00636549 -0.0075586)
(1.03391 -0.00679484 -0.00721783)
(1.0325 -0.00648348 -0.00735617)
(1.03053 -0.00628582 -0.0064716)
(1.0305 -0.00686392 -0.00578258)
(1.03115 -0.00791801 -0.00566738)
(1.03232 -0.00805905 -0.00546887)
(1.03265 -0.00802482 -0.00524473)
(1.03316 -0.00823678 -0.0054107)
(1.03304 -0.00847173 -0.00517106)
(1.03373 -0.00806408 -0.00542617)
(1.0337 -0.00799825 -0.00568606)
(1.03428 -0.00718884 -0.006127)
(1.03433 -0.00693554 -0.00648526)
(1.03515 -0.0069463 -0.00688033)
(1.03457 -0.00727896 -0.00659575)
(1.03478 -0.00729758 -0.00663928)
(1.03348 -0.00683393 -0.00667185)
(1.03264 -0.00623543 -0.00677688)
(1.03269 -0.0065541 -0.00650154)
(1.03227 -0.00505309 -0.0060154)
(1.03199 -0.00537147 -0.00634006)
(1.03173 -0.00486901 -0.00670075)
(1.03075 -0.0044547 -0.00662311)
(1.03062 -0.00518183 -0.00714692)
(1.03002 -0.00604318 -0.00701111)
(1.02932 -0.00598896 -0.00695099)
(1.02797 -0.00604758 -0.00682019)
(1.02805 -0.00585141 -0.0073053)
(1.02793 -0.00592339 -0.00742264)
(1.02879 -0.00615502 -0.00726611)
(1.0283 -0.00588272 -0.0072283)
(1.02877 -0.00544534 -0.00728619)
(1.02878 -0.00545895 -0.00700919)
(1.03091 -0.00598055 -0.00706683)
(1.03251 -0.0061968 -0.0078209)
(1.03357 -0.00581604 -0.00779197)
(1.02787 -0.0048804 -0.00744812)
(1.02752 -0.00487916 -0.00791747)
(1.02761 -0.00485009 -0.00766057)
(1.02755 -0.00449435 -0.00719981)
(1.02715 -0.00484341 -0.00699291)
(1.02664 -0.00458817 -0.00727195)
(1.02598 -0.00450977 -0.00673283)
(1.02634 -0.00507849 -0.00642809)
(1.02679 -0.00590648 -0.00652386)
(1.02731 -0.00593959 -0.00648437)
(1.02767 -0.00580905 -0.00629094)
(1.02797 -0.00587165 -0.0065215)
(1.0277 -0.00606549 -0.0062817)
(1.02798 -0.00583736 -0.0064654)
(1.02778 -0.00584563 -0.00657564)
(1.02792 -0.0052953 -0.0067979)
(1.02799 -0.00515612 -0.00682897)
(1.02827 -0.00528966 -0.00711419)
(1.02785 -0.00543396 -0.00676428)
(1.02782 -0.00552262 -0.00664708)
(1.02719 -0.00515818 -0.0065429)
(1.02697 -0.00480835 -0.0067168)
(1.02698 -0.00505365 -0.00648348)
(1.02683 -0.00402358 -0.00626335)
(1.02709 -0.00436536 -0.0066412)
(1.02697 -0.00405556 -0.00720474)
(1.02667 -0.00345005 -0.00700616)
(1.02647 -0.00402244 -0.00708924)
(1.02584 -0.00460664 -0.00681424)
(1.02528 -0.0043945 -0.00685813)
(1.02463 -0.00422536 -0.00668768)
(1.02462 -0.00409261 -0.00700737)
(1.0248 -0.00404796 -0.00707967)
(1.02544 -0.00420794 -0.00730808)
(1.0249 -0.00394174 -0.007285)
(1.02516 -0.00373093 -0.00734604)
(1.02514 -0.00374814 -0.00687954)
(1.0262 -0.00421567 -0.00695752)
(1.02659 -0.00430972 -0.00739252)
(1.02733 -0.00394769 -0.00753526)
(1.02299 -0.00350912 -0.00501466)
(1.02249 -0.00351508 -0.00523768)
(1.02245 -0.0035225 -0.0049521)
(1.02238 -0.0032008 -0.00455166)
(1.02214 -0.00337265 -0.0043198)
(1.02213 -0.00320633 -0.00457572)
(1.02217 -0.00310948 -0.00427174)
(1.02264 -0.00355603 -0.00408462)
(1.02293 -0.00415164 -0.00413153)
(1.02294 -0.0042542 -0.00400571)
(1.02321 -0.00415798 -0.00383877)
(1.02333 -0.00423064 -0.00401397)
(1.02302 -0.00440328 -0.00388699)
(1.02311 -0.0042786 -0.00398284)
(1.02297 -0.00425028 -0.00405481)
(1.02297 -0.00374256 -0.00420762)
(1.0232 -0.00355156 -0.00418235)
(1.02332 -0.0036202 -0.00437486)
(1.02317 -0.00364327 -0.00412684)
(1.02312 -0.00367647 -0.0040108)
(1.02289 -0.00342852 -0.00403408)
(1.02301 -0.00322132 -0.00426519)
(1.0229 -0.00350321 -0.00417876)
(1.02292 -0.00278657 -0.00403423)
(1.02324 -0.00308985 -0.00430856)
(1.02309 -0.00283462 -0.00477324)
(1.02315 -0.00222887 -0.00462676)
(1.02325 -0.00255296 -0.00461102)
(1.02288 -0.00300082 -0.00440685)
(1.0226 -0.00281051 -0.00454118)
(1.02248 -0.00261182 -0.00448893)
(1.02249 -0.002618 -0.00470092)
(1.02268 -0.00269363 -0.00484158)
(1.02288 -0.0029383 -0.00518614)
(1.0225 -0.00263201 -0.00519762)
(1.02268 -0.00257485 -0.0053091)
(1.02263 -0.0026381 -0.00498149)
(1.02281 -0.00305531 -0.00495148)
(1.02249 -0.00316366 -0.0050827)
(1.02274 -0.00281341 -0.0052019)
(1.02176 -0.00214434 -0.00251619)
(1.0213 -0.0021286 -0.00264955)
(1.02122 -0.00215795 -0.00248034)
(1.02124 -0.00194592 -0.00215808)
(1.02112 -0.00203629 -0.00196631)
(1.02122 -0.00198652 -0.00217227)
(1.02137 -0.00191388 -0.00203416)
(1.02165 -0.00223897 -0.00190125)
(1.02171 -0.00265278 -0.00188692)
(1.02155 -0.00275284 -0.00174741)
(1.0217 -0.00272413 -0.00161516)
(1.02171 -0.00277693 -0.00172111)
(1.02151 -0.00285111 -0.0016991)
(1.02156 -0.00278504 -0.00173176)
(1.02143 -0.00271384 -0.00173828)
(1.02135 -0.00232127 -0.00182758)
(1.02157 -0.00218134 -0.00180526)
(1.02159 -0.00226053 -0.00191277)
(1.02152 -0.00225777 -0.00177234)
(1.02145 -0.0023206 -0.0016725)
(1.0213 -0.0021536 -0.00175186)
(1.02145 -0.00201742 -0.00195358)
(1.02139 -0.00223466 -0.0019555)
(1.02142 -0.00172346 -0.00188467)
(1.02165 -0.00189912 -0.00202041)
(1.0214 -0.00173004 -0.00229638)
(1.02152 -0.00123803 -0.00219352)
(1.02184 -0.00142148 -0.00220324)
(1.02163 -0.00177551 -0.00205266)
(1.02148 -0.0016936 -0.00216399)
(1.02153 -0.00152547 -0.00223117)
(1.02158 -0.00152081 -0.00240127)
(1.02176 -0.00160213 -0.00256934)
(1.02172 -0.0018009 -0.00284614)
(1.02153 -0.00152865 -0.00287401)
(1.02182 -0.00151323 -0.00298727)
(1.0219 -0.00159009 -0.0027988)
(1.02179 -0.00184645 -0.00267596)
(1.02144 -0.0019265 -0.00265709)
(1.02151 -0.00160057 -0.00271429)
(1.02166 -0.00118664 -0.000688589)
(1.02132 -0.00117009 -0.000803204)
(1.02125 -0.00121823 -0.000747232)
(1.02135 -0.00110505 -0.000532151)
(1.02127 -0.00113666 -0.000354059)
(1.02139 -0.00116926 -0.000483998)
(1.02147 -0.00113376 -0.000406747)
(1.02159 -0.00135128 -0.000302765)
(1.02152 -0.0016459 -0.000305508)
(1.02135 -0.00170759 -0.000244807)
(1.02145 -0.00170727 -0.000180146)
(1.02142 -0.00175369 -0.00024005)
(1.02126 -0.00179868 -0.00029057)
(1.02132 -0.00175545 -0.000278184)
(1.02121 -0.0017029 -0.000262797)
(1.02115 -0.00140216 -0.000315172)
(1.02134 -0.00131562 -0.000305947)
(1.02133 -0.00137736 -0.000370249)
(1.0213 -0.00137545 -0.000302971)
(1.02125 -0.00143281 -0.000217302)
(1.02108 -0.0013068 -0.000281418)
(1.02117 -0.00118664 -0.000408172)
(1.02117 -0.0013723 -0.000448453)
(1.02118 -0.000992422 -0.000410428)
(1.0213 -0.00112599 -0.000443412)
(1.02103 -0.00100547 -0.000598872)
(1.02109 -0.000640122 -0.000499706)
(1.02141 -0.000750501 -0.000521459)
(1.02128 -0.000978301 -0.000406747)
(1.02119 -0.000921773 -0.00046633)
(1.02123 -0.000768468 -0.000529423)
(1.02125 -0.000724013 -0.000657093)
(1.02139 -0.000811976 -0.00080497)
(1.02132 -0.000953216 -0.00101972)
(1.02117 -0.000722513 -0.00102612)
(1.02145 -0.000704437 -0.00110584)
(1.02158 -0.00081588 -0.000983694)
(1.02147 -0.000944814 -0.000855984)
(1.02127 -0.00104855 -0.000812847)
(1.02137 -0.000744308 -0.00084326)
(1.02179 -0.000614459 0.000131951)
(1.02154 -0.000610028 4.81647e-05)
(1.0215 -0.000615637 3.82377e-05)
(1.02161 -0.000589997 0.000173261)
(1.02154 -0.000566081 0.00033519)
(1.02166 -0.000648257 0.0002563)
(1.0217 -0.000625883 0.000318549)
(1.02174 -0.000776696 0.000383001)
(1.02165 -0.000978108 0.000350641)
(1.02152 -0.00101413 0.00035721)
(1.02161 -0.00102122 0.000374819)
(1.02158 -0.00108831 0.000345103)
(1.02143 -0.00109867 0.000264101)
(1.02149 -0.00108304 0.000295649)
(1.02141 -0.00107567 0.000311642)
(1.02135 -0.000851571 0.000269653)
(1.02149 -0.000803638 0.000285922)
(1.02148 -0.000854081 0.00024416)
(1.02146 -0.000846386 0.00026551)
(1.02142 -0.000884863 0.000333266)
(1.02127 -0.000788341 0.00028619)
(1.0213 -0.000661096 0.000230658)
(1.02135 -0.0008157 0.000181891)
(1.02135 -0.000542045 0.000203925)
(1.02142 -0.00065776 0.000221781)
(1.02121 -0.000551908 0.0001185)
(1.02123 -0.000275539 0.000210384)
(1.02148 -0.000343558 0.000201171)
(1.02138 -0.00048171 0.000285391)
(1.02133 -0.000443861 0.000256886)
(1.02136 -0.00034358 0.000218545)
(1.02134 -0.000266061 0.000137166)
(1.02145 -0.00034189 2.28328e-05)
(1.02141 -0.000445692 -0.000142177)
(1.02127 -0.00026477 -0.000137473)
(1.02148 -0.000235597 -0.000157328)
(1.02163 -0.000381372 -8.26513e-05)
(1.02155 -0.000427479 4.21789e-07)
(1.02143 -0.00051872 2.80895e-05)
(1.02152 -0.000259324 2.54128e-05)
(1.02191 -0.000281608 0.00035027)
(1.02172 -0.000300977 0.000310077)
(1.02167 -0.000267489 0.000288351)
(1.02179 -0.000306562 0.000366985)
(1.02171 -0.00025241 0.000494165)
(1.02182 -0.000345396 0.000441407)
(1.02185 -0.000356385 0.000480901)
(1.02185 -0.00046346 0.000535698)
(1.02178 -0.000595571 0.000498591)
(1.02167 -0.000623373 0.000494364)
(1.02176 -0.000635459 0.000482869)
(1.02172 -0.000703756 0.000475921)
(1.02159 -0.00071488 0.000396033)
(1.02165 -0.000691078 0.000429614)
(1.02159 -0.000709621 0.000441279)
(1.02154 -0.000532094 0.000402956)
(1.02165 -0.000507999 0.00042922)
(1.02163 -0.000537205 0.000396948)
(1.0216 -0.000529425 0.000399074)
(1.02158 -0.000555263 0.000454317)
(1.02146 -0.000488517 0.00041649)
(1.02146 -0.000357445 0.000392903)
(1.02152 -0.000491879 0.000352892)
(1.02152 -0.00030671 0.000350253)
(1.02157 -0.000392491 0.000385982)
(1.02141 -0.000311517 0.000302018)
(1.02141 -9.69188e-05 0.000380012)
(1.02161 -0.00014733 0.000374906)
(1.02153 -0.000211396 0.00043366)
(1.02151 -0.000181207 0.000423481)
(1.02155 -0.000137206 0.000405999)
(1.02151 -4.63691e-05 0.000359103)
(1.02159 -9.53318e-05 0.000275243)
(1.02158 -0.000169902 0.000159085)
(1.02146 -3.43357e-05 0.000155032)
(1.02162 2.1949e-05 0.000168933)
(1.02176 -0.000134282 0.000209721)
(1.02169 -0.000135503 0.000267568)
(1.02162 -0.000219907 0.000280842)
(1.02168 -1.41835e-06 0.000291797)
(1.02198 -0.000101135 0.00034511)
(1.02183 -0.000141524 0.000335866)
(1.02178 -7.70509e-05 0.000316515)
(1.0219 -0.000158294 0.000355627)
(1.02181 -9.4329e-05 0.000448391)
(1.02191 -0.000180342 0.000413983)
(1.02194 -0.000211229 0.000435231)
(1.02192 -0.000298316 0.000486047)
(1.02186 -0.000380441 0.00044916)
(1.02176 -0.000392983 0.000453305)
(1.02185 -0.000403673 0.000427835)
(1.02181 -0.000459537 0.00043781)
(1.0217 -0.000466904 0.000366799)
(1.02174 -0.000436121 0.000394783)
(1.0217 -0.00047101 0.000406092)
(1.02167 -0.000346238 0.000368035)
(1.02174 -0.000340379 0.000398021)
(1.02172 -0.000364477 0.000375398)
(1.0217 -0.000361939 0.000363314)
(1.02168 -0.000373851 0.000402626)
(1.02159 -0.000337867 0.000368074)
(1.02156 -0.000203146 0.000360259)
(1.02162 -0.000295057 0.00033816)
(1.02163 -0.00017137 0.000317001)
(1.02166 -0.000228822 0.00036446)
(1.02156 -0.000174387 0.000293108)
(1.02154 1.19108e-05 0.000358614)
(1.02171 -2.78244e-05 0.000361699)
(1.02164 -4.41757e-05 0.000398832)
(1.02163 -1.76845e-05 0.000400174)
(1.02169 -1.10766e-05 0.000393807)
(1.02164 6.89486e-05 0.000362231)
(1.02169 5.99053e-05 0.000307594)
(1.0217 -9.46977e-07 0.000233028)
(1.0216 9.19233e-05 0.000215894)
(1.02172 0.000160788 0.000242024)