/*--------------------------------*- C++ -*----------------------------------*\
  =========                 |
  \\      /  F ield         | OpenFOAM: The Open Source CFD Toolbox
   \\    /   O peration     | Website:  https://openfoam.org
    \\  /    A nd           | Version:  10
     \\/     M anipulation  |
\*---------------------------------------------------------------------------*/
FoamFile
{
    format      ascii;
    class       volSymmTensorField;
    location    "9";
    object      UPrime2Mean;
}
// * * * * * * * * * * * * * * * * * * * * * * * * * * * * * * * * * * * * * //

dimensions      [0 2 -2 0 0 0 0];

internalField   nonuniform List<symmTensor> 
25600
(
(2.37067e-05 1.29181e-07 3.41049e-06 1.04307e-09 5.32598e-09 3.81799e-06)
(2.46836e-05 1.46324e-08 1.19867e-05 1.64996e-10 5.04282e-09 8.0905e-06)
(2.51551e-05 -7.06115e-08 5.79724e-06 5.3467e-10 -8.44093e-09 3.88149e-06)
(2.38239e-05 -9.04892e-08 -5.72334e-06 7.6688e-10 2.71899e-08 5.44251e-06)
(1.90306e-05 3.15549e-08 -6.76233e-06 4.72635e-10 -1.88587e-08 5.89773e-06)
(2.13645e-05 1.17222e-07 2.33737e-06 1.03351e-09 2.05233e-10 3.0544e-06)
(2.30054e-05 3.90216e-08 1.10557e-05 1.95479e-10 1.49192e-08 7.54946e-06)
(2.61792e-05 -5.77958e-08 6.1791e-06 3.43848e-10 -5.30352e-09 4.19261e-06)
(2.60325e-05 -9.40283e-08 -6.85336e-06 6.41298e-10 3.18949e-08 7.15241e-06)
(1.90772e-05 4.47345e-08 -8.07142e-06 4.05006e-10 -2.23453e-08 8.50288e-06)
(2.67033e-05 1.38279e-07 4.18215e-06 9.61281e-10 1.53446e-08 3.79001e-06)
(2.34846e-05 1.32618e-08 1.18238e-05 2.23299e-10 9.61694e-09 7.5485e-06)
(2.617e-05 -7.25594e-08 5.78084e-06 3.83288e-10 -9.65195e-09 3.31989e-06)
(2.30408e-05 -9.47861e-08 -5.82237e-06 7.27893e-10 3.28191e-08 5.6221e-06)
(1.91536e-05 4.44451e-08 -7.88263e-06 4.21022e-10 -2.14492e-08 7.42407e-06)
(2.30584e-05 1.23024e-07 2.63694e-06 9.89774e-10 1.67704e-11 3.55655e-06)
(2.4884e-05 1.74911e-08 1.21584e-05 2.04619e-10 2.64439e-09 7.80851e-06)
(2.67836e-05 -7.17944e-08 5.52788e-06 4.67612e-10 -9.4597e-09 3.27137e-06)
(2.59352e-05 -1.27717e-07 -6.2798e-06 1.04852e-09 3.79367e-08 5.6171e-06)
(1.86974e-05 3.04425e-08 -7.39893e-06 4.56505e-10 -2.16652e-08 7.04958e-06)
(2.29602e-05 1.33921e-07 3.15077e-06 1.00684e-09 7.226e-09 3.53191e-06)
(2.24575e-05 1.85591e-08 1.19696e-05 2.74297e-10 1.02806e-08 8.20788e-06)
(2.74983e-05 -8.31849e-08 5.69584e-06 4.33952e-10 -1.04613e-08 3.35597e-06)
(2.34554e-05 -1.23022e-07 -4.67734e-06 9.48458e-10 3.1955e-08 4.01504e-06)
(1.99863e-05 3.96996e-08 -7.91156e-06 4.91677e-10 -2.47437e-08 6.48551e-06)
(2.22224e-05 1.38065e-07 2.90502e-06 1.33382e-09 1.6413e-10 3.02938e-06)
(2.49615e-05 5.53273e-09 1.16858e-05 1.70103e-10 -2.55316e-09 7.59662e-06)
(2.41618e-05 -8.5036e-08 5.98258e-06 5.84995e-10 -1.11626e-08 4.32711e-06)
(2.3952e-05 -1.02703e-07 -6.40625e-06 7.74912e-10 3.2208e-08 6.7799e-06)
(1.96017e-05 4.20412e-08 -8.05857e-06 5.09965e-10 -2.63747e-08 7.93618e-06)
(2.29833e-05 1.28234e-07 3.24049e-06 1.12856e-09 -2.57212e-10 3.51815e-06)
(2.50637e-05 3.15138e-08 1.19942e-05 2.06046e-10 9.99265e-09 7.50504e-06)
(2.3972e-05 -6.23941e-08 5.83455e-06 3.7055e-10 -8.04919e-09 3.45214e-06)
(2.36571e-05 -9.82391e-08 -4.99216e-06 7.14542e-10 2.63748e-08 5.22809e-06)
(1.87709e-05 4.94787e-08 -7.90199e-06 4.7873e-10 -2.54598e-08 7.86252e-06)
(2.63858e-05 1.37291e-07 4.09456e-06 9.98541e-10 1.30228e-08 3.59808e-06)
(2.38873e-05 4.90231e-09 1.14172e-05 1.80447e-10 3.10581e-09 7.45181e-06)
(2.39642e-05 -6.36894e-08 5.48943e-06 4.12352e-10 -2.38561e-09 4.15574e-06)
(2.44463e-05 -9.46779e-08 -7.23654e-06 6.2469e-10 3.32035e-08 6.74343e-06)
(1.67977e-05 3.69946e-08 -6.55173e-06 4.12035e-10 -2.47163e-08 7.08063e-06)
(0.000224769 1.27685e-06 2.57791e-05 2.04502e-08 -9.17064e-08 3.57834e-05)
(0.000240642 7.23693e-07 0.000110915 1.39223e-08 2.09902e-07 7.18806e-05)
(0.000242989 -1.31468e-06 6.44921e-05 1.66463e-08 -5.3797e-07 3.9879e-05)
(0.000224667 -1.678e-06 -4.60708e-05 3.41485e-08 7.45794e-08 4.74602e-05)
(0.000174628 9.23768e-08 -6.50389e-05 2.10053e-08 -2.80357e-07 5.8322e-05)
(0.000201809 1.73418e-06 1.53784e-05 2.88191e-08 -1.61881e-07 2.91181e-05)
(0.000224355 7.56137e-07 0.000102872 9.63594e-09 1.92426e-07 6.7316e-05)
(0.000252503 -1.31113e-06 6.87242e-05 1.81938e-08 -6.45834e-07 4.34824e-05)
(0.000244896 -1.7233e-06 -5.64518e-05 3.86186e-08 1.04245e-07 6.23973e-05)
(0.000174618 1.1218e-07 -7.78205e-05 2.19615e-08 -3.64971e-07 8.28268e-05)
(0.000254102 1.49529e-06 3.18447e-05 2.24587e-08 1.48542e-07 3.452e-05)
(0.000229019 9.34363e-07 0.000110002 1.07928e-08 4.93965e-07 6.71234e-05)
(0.000252369 -9.30484e-07 6.30832e-05 1.25548e-08 -4.32705e-07 3.43132e-05)
(0.000216138 -1.00845e-06 -4.72641e-05 2.9914e-08 1.17015e-07 4.82306e-05)
(0.000175465 9.44937e-08 -7.4954e-05 2.25232e-08 -1.39421e-07 7.18236e-05)
(0.00021939 1.3129e-06 1.81756e-05 2.47944e-08 -1.13243e-07 3.35453e-05)
(0.00024153 -1.54467e-07 0.000113165 8.65706e-09 -1.65369e-07 7.02253e-05)
(0.000258286 -1.37642e-06 6.2829e-05 1.88744e-08 -5.7126e-07 3.48059e-05)
(0.000244206 -2.34432e-06 -5.09383e-05 4.91345e-08 2.2955e-07 4.96243e-05)
(0.000170712 2.34373e-07 -7.0224e-05 2.34154e-08 -3.88246e-07 6.89623e-05)
(0.000217696 1.40792e-06 2.24e-05 2.47616e-08 -8.64193e-08 3.26622e-05)
(0.000219841 4.85127e-07 0.000110979 1.03144e-08 1.74215e-07 7.19086e-05)
(0.000265558 -1.27456e-06 6.32733e-05 2.11053e-08 -6.64005e-07 3.51162e-05)
(0.000220836 -2.04547e-06 -3.57856e-05 4.37114e-08 1.36503e-08 3.53244e-05)
(0.000181842 1.21954e-08 -7.49067e-05 2.65467e-08 -4.92274e-07 6.45208e-05)
(0.000211961 1.95262e-06 2.04968e-05 3.60095e-08 -2.35267e-07 2.92751e-05)
(0.000243631 -7.83699e-08 0.000109784 1.18835e-08 -2.30265e-07 6.92958e-05)
(0.000234927 -1.60591e-06 6.7249e-05 2.61911e-08 -7.27192e-07 4.47813e-05)
(0.000224479 -1.73654e-06 -5.29856e-05 4.30616e-08 1.04273e-07 6.0129e-05)
(0.000178422 1.45973e-08 -7.60614e-05 2.87229e-08 -3.60417e-07 7.78746e-05)
(0.000217498 1.45323e-06 2.30223e-05 2.56517e-08 -1.63069e-07 3.30364e-05)
(0.000244681 5.44071e-07 0.000112123 1.01434e-08 1.78478e-07 6.7836e-05)
(0.000232727 -9.91583e-07 6.39286e-05 1.57129e-08 -5.12308e-07 3.59831e-05)
(0.000222956 -1.77943e-06 -3.90845e-05 3.99736e-08 8.87246e-08 4.53378e-05)
(0.000171895 1.01445e-08 -7.50667e-05 2.20785e-08 -2.27418e-07 7.63695e-05)
(0.000250579 1.68464e-06 3.13413e-05 2.4009e-08 1.40694e-07 3.33382e-05)
(0.00023361 8.44606e-07 0.000105894 1.13169e-08 3.70309e-07 6.64836e-05)
(0.000231991 -1.06371e-06 6.20032e-05 1.55293e-08 -4.30344e-07 4.24252e-05)
(0.000229485 -1.43423e-06 -6.07888e-05 3.19499e-08 1.40321e-07 5.85954e-05)
(0.000153799 7.23468e-08 -6.20941e-05 2.36986e-08 -3.70731e-07 6.86594e-05)
(0.000605213 2.1069e-06 5.55149e-05 8.9651e-08 -8.80835e-07 0.000108139)
(0.000683375 1.28446e-06 0.000322333 9.21298e-08 3.60824e-07 0.000209711)
(0.000680981 -4.58205e-06 0.000212716 1.03304e-07 -2.515e-06 0.00012749)
(0.000601481 -4.14221e-06 -0.000102679 1.79362e-07 -1.12216e-06 0.000134154)
(0.000449595 2.22484e-07 -0.000188247 1.43134e-07 -1.38016e-06 0.000180787)
(0.000542793 5.1337e-06 2.60649e-05 1.26604e-07 -1.16267e-06 9.0218e-05)
(0.000622342 1.36954e-06 0.000290809 5.22321e-08 -7.01439e-08 0.000193588)
(0.000701525 -5.15673e-06 0.000226838 1.22439e-07 -3.16247e-06 0.000139672)
(0.000664202 -4.68944e-06 -0.000140517 2.17048e-07 -1.06324e-06 0.000182137)
(0.000452108 3.18767e-07 -0.0002319 1.55722e-07 -1.80896e-06 0.000256404)
(0.000704767 2.60292e-06 7.4136e-05 8.99172e-08 7.47042e-08 0.000104688)
(0.000637454 3.37065e-06 0.000308886 6.64339e-08 1.77478e-06 0.000191749)
(0.000704736 -2.92095e-06 0.000203935 8.20588e-08 -1.83192e-06 0.000109382)
(0.000578361 -2.13388e-06 -0.000111758 1.58999e-07 -3.32703e-07 0.00013738)
(0.000455089 -7.17249e-08 -0.000219436 1.6335e-07 -5.16985e-07 0.000220251)
(0.000600663 2.88553e-06 3.61971e-05 1.09502e-07 -8.27503e-07 0.000103599)
(0.000677335 -3.01337e-06 0.000322034 7.20357e-08 -1.82606e-06 0.000205216)
(0.000723675 -5.17771e-06 0.000209702 1.20952e-07 -2.74855e-06 0.000114239)
(0.000664333 -7.50849e-06 -0.0001239 2.61353e-07 -4.19804e-07 0.000146733)
(0.000444172 1.4789e-06 -0.000206058 1.67669e-07 -2.15432e-06 0.000213637)
(0.000603785 3.30656e-06 5.04044e-05 1.03718e-07 -8.25413e-07 0.000100499)
(0.000604882 5.9039e-07 0.000306971 6.6532e-08 -1.06532e-07 0.0002)
(0.000750658 -4.7571e-06 0.000207395 1.43407e-07 -3.14726e-06 0.000113175)
(0.000592292 -6.01822e-06 -7.95484e-05 2.40127e-07 -1.16613e-06 0.000104181)
(0.000474167 4.27054e-07 -0.000219845 2.05817e-07 -2.6387e-06 0.000203019)
(0.000572996 5.15774e-06 4.05358e-05 1.63487e-07 -1.61502e-06 9.21715e-05)
(0.000699072 -2.49444e-06 0.000324841 9.18587e-08 -1.91794e-06 0.000209711)
(0.000635852 -5.67452e-06 0.000224594 1.59843e-07 -3.44144e-06 0.000144418)
(0.000607629 -4.73609e-06 -0.000140554 2.31481e-07 -1.04001e-06 0.000181465)
(0.000459542 -1.92477e-07 -0.000220579 1.96888e-07 -1.79814e-06 0.000240389)
(0.000594758 2.5296e-06 4.63557e-05 1.09749e-07 -1.21816e-06 0.000101261)
(0.000690159 1.32653e-06 0.000322036 7.75463e-08 3.74366e-07 0.000198946)
(0.000638453 -3.25853e-06 0.000208164 1.07303e-07 -2.34312e-06 0.000115592)
(0.000598859 -5.66959e-06 -8.79035e-05 2.20122e-07 -5.58821e-07 0.000130842)
(0.000432911 3.01186e-07 -0.000215295 1.54266e-07 -1.22532e-06 0.000233591)
(0.000695158 3.69425e-06 7.63902e-05 9.79097e-08 7.0173e-08 0.000103727)
(0.000647905 2.55215e-06 0.000292869 7.10513e-08 1.15007e-06 0.000188682)
(0.000635104 -3.9028e-06 0.000207169 9.56121e-08 -2.01236e-06 0.000135598)
(0.000626579 -3.99659e-06 -0.000162435 1.77613e-07 -5.20373e-07 0.000174085)
(0.000392152 3.11912e-07 -0.000180116 1.75288e-07 -1.89241e-06 0.000209407)
(0.000999087 -2.25344e-06 6.76461e-05 2.92304e-07 -1.95979e-06 0.000231659)
(0.00118797 -1.49793e-06 0.000565558 3.64604e-07 -1.21019e-07 0.000400687)
(0.00116687 -7.36383e-06 0.000451755 3.34804e-07 -5.904e-06 0.000281348)
(0.000997952 -4.24097e-06 -0.000102883 5.53846e-07 -4.86502e-06 0.000258919)
(0.000674426 -6.60885e-07 -0.000326944 5.47654e-07 -3.04314e-06 0.000379488)
(0.000866621 8.20555e-06 5.02545e-07 3.00229e-07 -2.73012e-06 0.00019475)
(0.0010878 -1.2821e-06 0.000526234 1.7293e-07 -2.29655e-06 0.000386535)
(0.00119492 -1.10097e-05 0.000483448 4.18768e-07 -8.29791e-06 0.000308574)
(0.00112104 -5.83362e-06 -0.000176786 7.04423e-07 -4.87853e-06 0.000360602)
(0.000664803 -6.40513e-07 -0.000404273 6.06488e-07 -4.0559e-06 0.000531668)
(0.00117527 -1.81374e-06 7.79713e-05 2.63253e-07 6.11418e-07 0.000217013)
(0.00107679 7.06802e-06 0.000512459 2.45784e-07 4.42087e-06 0.000344712)
(0.00119463 -4.41949e-06 0.000420404 2.93257e-07 -3.91748e-06 0.000237867)
(0.000937128 3.19824e-06 -0.000116615 5.69857e-07 -2.92903e-06 0.000259705)
(0.000677199 -1.61209e-06 -0.000383894 6.55277e-07 -2.34141e-07 0.000456759)
(0.000986575 1.10012e-06 1.8954e-05 2.98618e-07 -1.40029e-06 0.00022114)
(0.00115058 -9.44969e-06 0.000547829 2.9253e-07 -4.85846e-06 0.000385906)
(0.00122416 -1.07525e-05 0.000442639 4.01932e-07 -6.9605e-06 0.000256133)
(0.00109864 -1.41099e-05 -0.000131092 7.52793e-07 -2.42295e-06 0.000281796)
(0.000643593 1.8462e-06 -0.000339658 6.20458e-07 -5.01953e-06 0.000434905)
(0.000949513 9.40313e-07 2.92973e-05 2.75506e-07 -1.93473e-06 0.000206782)
(0.00104305 6.61476e-07 0.000541284 2.19448e-07 -6.49185e-07 0.000379503)
(0.00125772 -1.00527e-05 0.000443449 4.97064e-07 -8.07223e-06 0.000250673)
(0.00100681 -5.36603e-06 -9.29252e-05 7.60533e-07 -6.12014e-06 0.000226183)
(0.00067437 1.31272e-06 -0.00035947 8.61663e-07 -7.192e-06 0.00041304)
(0.000946533 3.20029e-06 4.30248e-05 4.1159e-07 -4.53697e-06 0.000208942)
(0.00116735 -1.09531e-05 0.000536458 3.89567e-07 -6.40028e-06 0.000385141)
(0.00114755 -1.15212e-05 0.000479431 5.03252e-07 -8.57989e-06 0.000321233)
(0.00102277 -3.63788e-06 -0.000188839 7.25118e-07 -5.96685e-06 0.00036589)
(0.000670084 1.5125e-06 -0.000371435 7.17097e-07 -5.67159e-06 0.000491513)
(0.000924186 -2.423e-06 2.38622e-05 3.31188e-07 -2.85415e-06 0.000212178)
(0.00118537 -2.95159e-06 0.000555423 3.00604e-07 -9.0945e-07 0.00037681)
(0.00112914 -5.6216e-06 0.000436646 3.84961e-07 -5.53019e-06 0.000253949)
(0.00100761 -7.64727e-06 -9.01199e-05 6.91575e-07 -3.01217e-06 0.000266449)
(0.000661896 2.85397e-07 -0.000384524 5.79288e-07 -2.8358e-06 0.000487294)
(0.00114607 -3.39517e-07 7.85949e-05 2.70295e-07 1.82019e-08 0.000215391)
(0.00113271 3.1442e-06 0.000518074 2.36605e-07 2.08564e-06 0.000369993)
(0.00110474 -6.57302e-06 0.000442495 3.08642e-07 -4.59858e-06 0.000299695)
(0.00102012 -1.68725e-06 -0.000196946 5.8562e-07 -4.52192e-06 0.00031758)
(0.000571013 7.74442e-07 -0.000313055 6.93813e-07 -4.9777e-06 0.000433474)
(0.00122962 -1.9374e-05 3.53828e-05 1.10714e-06 -6.344e-07 0.000390312)
(0.00165445 -1.44648e-05 0.000781298 1.0703e-06 -2.49847e-06 0.00062835)
(0.0015604 -6.05247e-06 0.000732289 8.54237e-07 -8.3157e-06 0.000494107)
(0.00134356 2.08354e-06 -2.12778e-05 1.46847e-06 -9.08964e-06 0.00042943)
(0.000753623 -1.36487e-06 -0.000397112 1.66641e-06 -3.75069e-06 0.000629395)
(0.00106422 2.09211e-06 -4.85899e-05 5.7692e-07 -2.66078e-06 0.000344165)
(0.00147214 -5.31825e-06 0.000702081 4.94341e-07 -3.20623e-06 0.000599954)
(0.00161893 -1.34083e-05 0.000769479 1.00545e-06 -1.43821e-05 0.000533735)
(0.00146765 4.4468e-06 -5.03084e-05 1.95295e-06 -1.31046e-05 0.000520323)
(0.000741245 4.2676e-08 -0.000486274 1.76047e-06 -6.6822e-06 0.000838741)
(0.00138972 -2.09373e-05 -2.08254e-05 1.06722e-06 5.13077e-06 0.000340967)
(0.0013745 6.0885e-06 0.000597319 6.78701e-07 7.35983e-06 0.000457657)
(0.00157068 -2.64526e-06 0.00064889 8.00603e-07 -4.74108e-06 0.000405974)
(0.00119752 2.189e-05 -3.11547e-06 2.02269e-06 -6.61941e-06 0.00039183)
(0.000779186 -3.75898e-06 -0.000484076 2.06955e-06 3.13142e-06 0.000747137)
(0.00118019 -8.71011e-06 -6.08366e-05 8.84165e-07 2.07589e-06 0.000366344)
(0.0016319 -2.61512e-05 0.000790987 9.97798e-07 -1.06648e-05 0.000646615)
(0.00163974 -1.27029e-05 0.000705704 9.61382e-07 -1.12882e-05 0.000450775)
(0.00140242 -1.10429e-05 5.01163e-06 1.73268e-06 -6.92047e-06 0.000417507)
(0.000726857 4.91771e-06 -0.000405629 1.85546e-06 -9.08931e-06 0.000705075)
(0.00117429 -1.06987e-05 -7.69853e-06 8.13421e-07 -4.74239e-07 0.000357514)
(0.00139988 -8.32924e-07 0.000698676 6.46155e-07 1.52214e-07 0.000547614)
(0.00169941 -1.24978e-05 0.000711677 1.255e-06 -1.40011e-05 0.000437876)
(0.00130551 5.42047e-06 2.37506e-05 2.27912e-06 -1.40148e-05 0.000352382)
(0.000748883 7.24102e-06 -0.000415161 2.66879e-06 -1.57481e-05 0.000646312)
(0.00108063 -6.73516e-06 -3.41783e-05 1.06636e-06 -4.72506e-06 0.000358866)
(0.00158619 -2.75589e-05 0.000727902 1.20522e-06 -1.284e-05 0.000612174)
(0.00153394 -1.40112e-05 0.000774161 1.15328e-06 -1.36965e-05 0.000567812)
(0.0013192 6.22167e-06 -7.96651e-05 2.00375e-06 -1.28613e-05 0.000537594)
(0.000743575 3.86264e-06 -0.000452985 2.0328e-06 -1.06086e-05 0.000787794)
(0.0012229 -1.36397e-05 2.65397e-05 9.96674e-07 -6.18129e-07 0.000387125)
(0.00156769 -1.33222e-05 0.000702657 1.0549e-06 -1.52015e-06 0.000544273)
(0.00157797 -5.00388e-06 0.000687731 1.03707e-06 -8.33352e-06 0.000437827)
(0.00128928 1.079e-06 8.08045e-05 1.85113e-06 -8.16038e-06 0.000368552)
(0.00075771 -1.63803e-06 -0.000456208 1.73829e-06 -1.9307e-06 0.00075009)
(0.0013651 -1.08504e-05 -4.98823e-07 9.19567e-07 5.0101e-06 0.000353239)
(0.00147738 -3.12745e-06 0.000634751 6.2439e-07 1.65288e-06 0.000532274)
(0.00146755 -4.58288e-06 0.000711857 7.8327e-07 -5.71784e-06 0.000526033)
(0.00133595 8.87891e-06 -0.000131229 1.75027e-06 -1.00096e-05 0.000485605)
(0.000628245 2.38617e-06 -0.000367117 2.06574e-06 -8.61952e-06 0.000681813)
(0.00104175 -4.03712e-05 -5.84356e-05 3.94202e-06 1.19862e-05 0.000499517)
(0.00178635 -4.02932e-05 0.000845477 2.95411e-06 -5.72169e-06 0.000833625)
(0.00179255 3.93312e-06 0.000929752 2.11825e-06 -6.14929e-06 0.00069666)
(0.00151661 1.70715e-05 0.000197407 4.07871e-06 -8.46118e-06 0.000541498)
(0.000603578 4.60908e-06 -0.000257242 4.41253e-06 -3.54287e-06 0.00079276)
(0.00108528 -1.91662e-05 -2.40348e-05 1.83943e-06 4.4134e-06 0.000514563)
(0.00159147 -2.37748e-05 0.000683631 1.38208e-06 -7.11228e-06 0.000707424)
(0.00185153 -1.67873e-05 0.00097106 2.13918e-06 -2.04422e-05 0.000742411)
(0.00173446 3.09363e-05 0.00011435 5.26429e-06 -2.44841e-05 0.000720307)
(0.000681467 8.17595e-06 -0.000404351 4.34065e-06 -8.99306e-06 0.00100758)
(0.00136295 -5.62007e-05 -4.7318e-05 4.67317e-06 1.94291e-05 0.000480675)
(0.00146276 -3.19491e-06 0.00056731 1.79622e-06 1.19308e-05 0.000534803)
(0.00169479 3.47195e-06 0.000802005 1.99856e-06 -1.82355e-06 0.00056885)
(0.00137619 5.3313e-05 0.000160033 6.41991e-06 -5.79519e-06 0.000561701)
(0.000636677 -2.95613e-06 -0.000362218 5.91179e-06 1.32728e-05 0.000930579)
(0.00120382 -2.5238e-05 -5.48211e-05 3.11535e-06 1.57166e-05 0.000506486)
(0.00157173 -5.02567e-05 0.000660177 2.82693e-06 -1.42567e-05 0.000671289)
(0.00174161 -9.00278e-06 0.00083054 2.12577e-06 -1.30196e-05 0.000621649)
(0.00149052 9.37811e-06 0.000253276 4.38385e-06 -1.18913e-05 0.000529869)
(0.000618972 6.91984e-06 -0.000281688 5.09272e-06 -6.59677e-06 0.000877848)
(0.00122807 -2.9368e-05 4.22164e-05 2.84601e-06 9.71021e-06 0.000529261)
(0.00163041 -1.30527e-05 0.000749276 1.7571e-06 7.99084e-07 0.000672664)
(0.00181861 -1.35167e-05 0.0009122 2.7644e-06 -1.87583e-05 0.000628579)
(0.00150841 3.46638e-05 0.000145876 6.95524e-06 -2.58103e-05 0.000564634)
(0.000662082 1.56681e-05 -0.000307414 7.27077e-06 -2.36794e-05 0.000785939)
(0.000974548 -3.29862e-05 -8.29496e-05 3.72732e-06 5.62122e-06 0.000515581)
(0.00173691 -5.26326e-05 0.000810061 3.17992e-06 -1.82906e-05 0.000841494)
(0.0017425 -4.4811e-06 0.00100215 2.4464e-06 -1.31954e-05 0.000822944)
(0.00145943 2.57283e-05 0.000135466 5.47794e-06 -1.52083e-05 0.000704829)
(0.000741241 9.1596e-07 -0.000380313 5.3704e-06 -7.23775e-06 0.000942792)
(0.00103054 -3.32003e-05 -7.40404e-05 3.61489e-06 1.28382e-05 0.000496683)
(0.00173985 -4.45754e-05 0.00079472 3.0864e-06 -7.07081e-06 0.000751161)
(0.0018171 7.21433e-07 0.000892271 2.47604e-06 -8.50364e-06 0.000630547)
(0.00152841 2.12842e-05 0.00025883 4.88669e-06 -1.10292e-05 0.0005234)
(0.000729484 -3.56013e-06 -0.000368549 5.02663e-06 6.13995e-06 0.000869576)
(0.00129864 -3.44393e-05 -5.17332e-05 3.88501e-06 2.16755e-05 0.00049653)
(0.00162333 -4.52409e-06 0.000676615 1.84748e-06 1.1713e-05 0.000710444)
(0.00159768 4.31763e-06 0.00091791 1.96853e-06 -2.14443e-06 0.000756506)
(0.00149811 2.75079e-05 2.02631e-05 5.09843e-06 -1.07221e-05 0.000673772)
(0.000610423 2.65879e-06 -0.000286577 5.46184e-06 -6.06807e-06 0.000814195)
(0.000876782 -6.30901e-05 4.0918e-06 1.14288e-05 2.7239e-05 0.000512669)
(0.00134803 -6.92942e-05 0.000531666 7.61683e-06 -6.00923e-06 0.000672441)
(0.00149274 4.96259e-06 0.000843723 4.69049e-06 -5.15152e-06 0.00073307)
(0.00148156 4.14599e-05 0.000325409 9.79968e-06 -8.67639e-06 0.000709807)
(0.000593675 1.43782e-05 -0.000145564 1.02197e-05 3.38307e-06 0.000877573)
(0.000845352 -3.90661e-05 -2.27684e-05 6.22656e-06 2.1775e-05 0.00055452)
(0.00134474 -5.89987e-05 0.000560202 4.3863e-06 -1.5198e-05 0.000752337)
(0.00160073 -2.43675e-05 0.000894057 4.27732e-06 -2.69105e-05 0.000781805)
(0.00169196 5.02248e-05 0.000367974 1.14196e-05 -2.62054e-05 0.000753007)
(0.000615669 2.14728e-05 -0.000212908 9.6123e-06 -6.49704e-06 0.00086882)
(0.000859615 -7.49212e-05 -6.74382e-05 1.30519e-05 3.90896e-05 0.000478114)
(0.00116895 -2.73055e-05 0.000450106 4.356e-06 1.45787e-05 0.000582074)
(0.00155813 2.37738e-06 0.000771865 4.21252e-06 8.97699e-07 0.000635238)
(0.00146538 8.91828e-05 0.00034275 1.54449e-05 9.79468e-07 0.000636291)
(0.000474372 1.20303e-05 -0.000120884 1.34275e-05 1.95046e-05 0.000833184)
(0.00094355 -5.04012e-05 8.51057e-06 9.9185e-06 3.2867e-05 0.000523677)
(0.00124286 -6.40649e-05 0.000464623 6.27429e-06 -5.3204e-06 0.000644238)
(0.00143969 -8.72906e-06 0.000781242 4.44994e-06 -1.21949e-05 0.000709758)
(0.00147402 3.4846e-05 0.000356351 1.10088e-05 -1.40995e-05 0.000725505)
(0.000608976 9.9634e-06 -0.000160731 1.29511e-05 7.92294e-06 0.000914943)
(0.000861935 -4.82599e-05 2.12058e-05 9.19028e-06 2.88886e-05 0.000534815)
(0.0014949 -4.48718e-05 0.000649371 4.82053e-06 -1.86135e-06 0.000715908)
(0.00159058 -2.24992e-05 0.000886055 5.51862e-06 -2.49216e-05 0.000706702)
(0.00153341 6.84842e-05 0.000323795 1.7438e-05 -3.61171e-05 0.000649489)
(0.000616696 2.98489e-05 -0.00017855 1.67717e-05 -2.52808e-05 0.000813798)
(0.000734128 -6.43268e-05 -4.21681e-05 1.23403e-05 2.44283e-05 0.000547789)
(0.00140162 -7.49158e-05 0.000646544 7.62814e-06 -1.59286e-05 0.000855364)
(0.00150575 6.55669e-07 0.000962766 5.26552e-06 -1.16089e-05 0.000918)
(0.00151957 4.90148e-05 0.000313181 1.2667e-05 -1.28613e-05 0.00082951)
(0.00058137 8.23414e-06 -0.000145251 1.2706e-05 -2.08465e-06 0.000855836)
(0.000740854 -5.81525e-05 -8.74043e-06 1.12333e-05 2.74807e-05 0.000502461)
(0.00118194 -7.88756e-05 0.000494101 8.64809e-06 -1.2723e-05 0.000631944)
(0.00151503 -5.81128e-06 0.000837422 5.02535e-06 -1.19911e-05 0.000706139)
(0.00159178 4.10635e-05 0.000369211 1.08742e-05 -9.92996e-06 0.000692474)
(0.000645282 1.39355e-05 -0.000158606 1.1123e-05 6.72168e-06 0.00077055)
(0.000723921 -5.95234e-05 -7.87847e-05 1.2547e-05 4.18034e-05 0.000493232)
(0.00146431 -2.09822e-05 0.00062227 5.25008e-06 2.17748e-05 0.000805979)
(0.00145255 6.66961e-06 0.000904137 4.54712e-06 1.60031e-07 0.000835016)
(0.00148655 5.64262e-05 0.000241322 1.21443e-05 -1.31059e-05 0.00073868)
(0.000562296 5.98492e-06 -0.000150115 1.27913e-05 5.82233e-06 0.000826511)
(0.000495735 -6.67034e-05 1.8503e-05 2.21393e-05 3.22501e-05 0.000428597)
(0.000771052 -7.64193e-05 0.000312092 1.45018e-05 -5.38406e-06 0.000519137)
(0.000924506 -1.32522e-05 0.000557147 8.58201e-06 -1.10838e-05 0.000593403)
(0.00127632 4.99963e-05 0.00034685 1.8849e-05 -1.09024e-05 0.000686222)
(0.000516201 3.09621e-05 1.59445e-05 1.90438e-05 1.12326e-05 0.000741933)
(0.000514897 -4.36389e-05 6.57936e-06 1.35992e-05 3.3958e-05 0.000483579)
(0.000750399 -6.63836e-05 0.000318474 9.643e-06 -1.16043e-05 0.000573493)
(0.00102194 -3.02362e-05 0.000576063 8.41627e-06 -3.04143e-05 0.000617773)
(0.00139139 4.24234e-05 0.00045143 1.92161e-05 -2.24881e-05 0.000656609)
(0.000573347 3.57976e-05 -6.60868e-05 1.78142e-05 3.94753e-06 0.000692991)
(0.000529508 -6.65054e-05 -1.76455e-05 2.11987e-05 4.51311e-05 0.000413465)
(0.000748115 -4.46351e-05 0.000299107 9.36545e-06 1.30653e-05 0.000488741)
(0.000984773 -8.91802e-06 0.000519317 8.17963e-06 -4.93245e-07 0.00053497)
(0.00130037 9.4422e-05 0.000455697 2.65806e-05 1.41282e-05 0.000594566)
(0.00050117 2.71079e-05 -4.31315e-05 2.52618e-05 3.33229e-05 0.000725463)
(0.000628402 -5.93101e-05 2.2117e-05 2.08073e-05 4.47612e-05 0.000447325)
(0.000772079 -6.14194e-05 0.000278892 1.14393e-05 6.95217e-06 0.00052369)
(0.000944017 -1.95979e-05 0.000564219 8.23585e-06 -1.27863e-05 0.000646753)
(0.00132956 4.35615e-05 0.000317837 2.11926e-05 -1.42213e-05 0.000790103)
(0.000563258 3.03797e-05 -1.69406e-05 2.38102e-05 1.40694e-05 0.000767107)
(0.000445898 -5.66721e-05 5.43704e-06 1.98868e-05 3.95206e-05 0.000439876)
(0.000893431 -7.09284e-05 0.000366909 1.12276e-05 -6.15743e-06 0.000557355)
(0.000952578 -3.66212e-05 0.000601155 1.03571e-05 -3.21066e-05 0.00061002)
(0.00137692 7.46645e-05 0.000337044 3.0809e-05 -4.00763e-05 0.000676063)
(0.000529535 5.01769e-05 -1.18855e-05 3.08611e-05 -1.85039e-05 0.000679577)
(0.000421781 -6.5205e-05 4.15165e-06 2.37288e-05 3.27218e-05 0.000467877)
(0.000825878 -7.45928e-05 0.0003982 1.38326e-05 -9.48815e-06 0.000667311)
(0.000939915 -1.17003e-05 0.000641836 9.98932e-06 -1.75171e-05 0.000746122)
(0.00130833 5.28601e-05 0.000441861 2.27218e-05 -1.06868e-05 0.000745773)
(0.000464883 2.95973e-05 5.52077e-05 2.36973e-05 9.3831e-07 0.000678022)
(0.000388123 -5.7127e-05 2.0608e-05 2.10564e-05 3.22226e-05 0.000426429)
(0.000658966 -7.68105e-05 0.000323641 1.56157e-05 -1.00783e-05 0.000534699)
(0.000977257 -2.17081e-05 0.000579317 9.27446e-06 -2.03261e-05 0.00060444)
(0.00136355 4.4485e-05 0.000425564 1.92754e-05 -1.25827e-05 0.00064479)
(0.000529777 4.12617e-05 4.13054e-05 2.04739e-05 6.87943e-06 0.000627822)
(0.000481755 -6.30894e-05 3.54581e-05 2.30855e-05 4.19448e-05 0.000450949)
(0.000889259 -5.51033e-05 0.000368428 1.07992e-05 7.37578e-06 0.000601264)
(0.00097403 -1.32081e-05 0.0006131 8.98217e-06 -9.26294e-06 0.000668988)
(0.00133335 6.53135e-05 0.000350516 2.22285e-05 -1.1503e-05 0.000684445)
(0.000508032 2.17213e-05 7.28057e-06 2.2926e-05 1.47498e-05 0.000689683)
(0.000262305 -4.2727e-05 3.25577e-05 2.9154e-05 2.99968e-05 0.000339471)
(0.000342865 -6.05089e-05 0.000153854 1.98147e-05 -7.56696e-06 0.000353702)
(0.00042305 -2.75266e-05 0.000269318 1.39897e-05 -1.64816e-05 0.000379527)
(0.000832008 2.7935e-05 0.000252615 2.75603e-05 -1.17063e-05 0.000461873)
(0.000441195 4.10792e-05 9.91717e-05 2.87981e-05 1.57242e-05 0.000525274)
(0.000265447 -2.95208e-05 2.18446e-05 2.08479e-05 3.5271e-05 0.000373488)
(0.000332551 -5.23466e-05 0.000184009 1.44227e-05 -1.10533e-05 0.000413085)
(0.000531314 -3.76035e-05 0.000293049 1.34682e-05 -2.99238e-05 0.000400362)
(0.000899455 1.25214e-05 0.00027851 2.61536e-05 -2.24779e-05 0.000469078)
(0.000507151 4.63796e-05 3.48502e-05 2.63952e-05 9.24443e-06 0.000489867)
(0.000269381 -4.1976e-05 -9.13494e-06 2.63836e-05 4.04909e-05 0.00031167)
(0.000404721 -4.45362e-05 0.000191101 1.47401e-05 6.84488e-06 0.000372913)
(0.000510156 -1.83134e-05 0.000280968 1.37065e-05 -2.97942e-06 0.000366915)
(0.000949756 6.32629e-05 0.00032246 3.56792e-05 1.18533e-05 0.000466697)
(0.000459912 4.71088e-05 5.88296e-05 3.76278e-05 3.51775e-05 0.000503465)
(0.000257583 -3.86266e-05 -4.66005e-06 3.10511e-05 4.89724e-05 0.000337186)
(0.000394715 -4.64475e-05 0.000180848 1.60749e-05 9.97105e-06 0.000416215)
(0.000488194 -2.90254e-05 0.000303096 1.3444e-05 -1.49212e-05 0.000453127)
(0.000906972 2.91602e-05 0.000259163 3.10166e-05 -1.56313e-05 0.000535286)
(0.000485426 4.99388e-05 8.21956e-05 3.55233e-05 1.44193e-05 0.000549968)
(0.000232266 -4.38659e-05 3.23597e-05 2.96772e-05 3.55684e-05 0.000346243)
(0.00039442 -6.15817e-05 0.00016523 1.65302e-05 -7.78783e-06 0.000377857)
(0.000414983 -4.07541e-05 0.000297147 1.59726e-05 -3.49543e-05 0.000411995)
(0.000940962 4.63444e-05 0.000239993 4.11432e-05 -3.89525e-05 0.000489115)
(0.000462726 6.33245e-05 7.45228e-05 4.59446e-05 -7.83997e-06 0.000505587)
(0.000223012 -4.67119e-05 1.86089e-05 3.39339e-05 3.16489e-05 0.000363721)
(0.000358488 -5.82942e-05 0.000186455 1.87452e-05 -7.57612e-06 0.000438205)
(0.000504045 -2.39322e-05 0.000331767 1.59222e-05 -2.21283e-05 0.000474053)
(0.000946128 3.02036e-05 0.000321337 3.23699e-05 -1.51743e-05 0.000545123)
(0.000447967 4.63285e-05 0.000106499 3.616e-05 5.60202e-06 0.000527555)
(0.00022854 -3.94843e-05 3.32867e-05 2.87062e-05 3.14615e-05 0.000340369)
(0.000308222 -5.98693e-05 0.000183043 2.06468e-05 -1.08357e-05 0.000391931)
(0.000490207 -3.13795e-05 0.000305866 1.4691e-05 -2.47331e-05 0.000403014)
(0.000900512 2.39481e-05 0.000286567 2.81113e-05 -1.77885e-05 0.000468824)
(0.000502461 5.40934e-05 9.76517e-05 3.2028e-05 1.12449e-05 0.000497895)
(0.00025937 -4.69195e-05 3.2757e-05 3.26184e-05 3.77413e-05 0.000362048)
(0.000413376 -5.40044e-05 0.00019484 1.70366e-05 -3.03886e-06 0.00041914)
(0.000507528 -2.90308e-05 0.00030306 1.58982e-05 -1.73409e-05 0.000419513)
(0.000934882 3.88223e-05 0.000297782 3.11562e-05 -9.50719e-06 0.000464966)
(0.000467758 3.83704e-05 9.8098e-05 3.20738e-05 1.64323e-05 0.000501944)
(0.000142338 -1.01271e-05 3.69321e-05 3.14054e-05 2.25418e-05 0.000237609)
(0.000137847 -3.39522e-05 7.93147e-05 2.19429e-05 -8.93968e-06 0.000242325)
(0.000131681 -2.5598e-05 9.10991e-05 1.87113e-05 -1.64516e-05 0.000208987)
(0.000389209 2.62382e-06 0.000101246 3.30543e-05 -1.0663e-05 0.000238156)
(0.000317138 3.58566e-05 7.9273e-05 3.50154e-05 1.14283e-05 0.00030396)
(0.000143401 -5.00784e-06 3.33118e-05 2.50762e-05 2.6174e-05 0.000247861)
(0.000120772 -2.91928e-05 9.57564e-05 1.73171e-05 -1.09653e-05 0.000267185)
(0.000180418 -3.27344e-05 9.87278e-05 1.75844e-05 -2.40102e-05 0.000216155)
(0.000391883 -1.03525e-05 0.0001148 3.0353e-05 -2.01809e-05 0.000235535)
(0.000360363 4.23864e-05 5.93393e-05 3.04554e-05 1.30188e-06 0.000281276)
(0.000153145 -1.42143e-05 1.74975e-05 2.74674e-05 2.31741e-05 0.000207142)
(0.000169142 -3.11032e-05 8.63126e-05 1.77135e-05 -2.51175e-06 0.00022645)
(0.000162879 -1.97521e-05 9.71817e-05 1.83811e-05 -8.00311e-06 0.000202383)
(0.000460246 2.18716e-05 0.000143934 4.06373e-05 2.33735e-06 0.00024721)
(0.000362337 5.6445e-05 8.48177e-05 4.47956e-05 2.38995e-05 0.000295801)
(0.000126696 -6.43131e-06 2.51616e-05 3.61135e-05 3.75014e-05 0.000236227)
(0.000156797 -2.75858e-05 9.11571e-05 1.81524e-05 3.77794e-06 0.000273544)
(0.000158573 -2.60034e-05 0.000105504 1.82151e-05 -1.50343e-05 0.000253394)
(0.000457523 7.2406e-06 0.000117318 3.76907e-05 -1.35791e-05 0.000283423)
(0.000376366 5.13984e-05 7.526e-05 4.30783e-05 7.9324e-06 0.000333538)
(0.00013362 -1.65299e-05 4.3203e-05 3.30139e-05 2.42227e-05 0.000243356)
(0.00014557 -3.49895e-05 6.7964e-05 1.77573e-05 -7.88571e-06 0.000239003)
(0.0001141 -2.90865e-05 9.47133e-05 2.0123e-05 -2.99635e-05 0.000223459)
(0.000436632 1.13598e-05 0.000108582 4.5191e-05 -2.98099e-05 0.000249815)
(0.000354193 5.94558e-05 6.64646e-05 5.45028e-05 -5.51513e-06 0.000315791)
(0.000132312 -1.6475e-05 3.16977e-05 3.89324e-05 2.32208e-05 0.000252891)
(0.000129712 -3.52045e-05 7.79678e-05 2.11957e-05 -6.77933e-06 0.000269264)
(0.000176797 -2.8317e-05 0.000113741 2.07036e-05 -2.12615e-05 0.000248446)
(0.000484766 3.01677e-06 0.000132269 3.97125e-05 -1.66338e-05 0.000294873)
(0.000358918 4.89902e-05 8.98803e-05 4.57762e-05 2.45161e-06 0.000328721)
(0.000138005 -1.0562e-05 4.01521e-05 3.26035e-05 2.33932e-05 0.000240362)
(0.000116725 -3.2623e-05 8.35647e-05 2.14712e-05 -7.63515e-06 0.000251977)
(0.000160745 -2.84323e-05 0.000106665 1.90824e-05 -2.2135e-05 0.00021809)