/*--------------------------------*- C++ -*----------------------------------*\
  =========                 |
  \\      /  F ield         | OpenFOAM: The Open Source CFD Toolbox
   \\    /   O peration     | Website:  https://openfoam.org
    \\  /    A nd           | Version:  10
     \\/     M anipulation  |
\*---------------------------------------------------------------------------*/
FoamFile
{
    format      ascii;
    class       volScalarField;
    location    "47.5";
    object      pPrime2Mean;
}
// * * * * * * * * * * * * * * * * * * * * * * * * * * * * * * * * * * * * * //

dimensions      [0 4 -4 0 0 0 0];

internalField   nonuniform List<scalar> 
25600
(
2.40562e-10
2.52536e-10
2.41226e-10
2.52351e-10
2.29487e-10
2.12997e-10
2.02695e-10
1.66638e-10
1.719e-10
1.55425e-10
1.0343e-10
1.33342e-10
1.19111e-10
7.10238e-11
1.21655e-10
9.12287e-11
8.34846e-11
1.12508e-10
8.89257e-11
1.08486e-10
1.19689e-10
1.25169e-10
1.22936e-10
1.71925e-10
1.70337e-10
1.65177e-10
2.27637e-10
1.94445e-10
2.16915e-10
2.3935e-10
2.13497e-10
2.38835e-10
2.39356e-10
2.44014e-10
2.58589e-10
2.61861e-10
2.69706e-10
2.92166e-10
3.22608e-10
2.68653e-10
2.8721e-10
2.91478e-10
2.72011e-10
2.757e-10
2.55502e-10
2.45754e-10
2.24081e-10
1.88283e-10
1.91449e-10
1.63271e-10
1.12161e-10
1.40443e-10
1.18587e-10
7.92221e-11
1.31179e-10
9.40049e-11
9.84585e-11
1.16114e-10
9.54016e-11
1.26738e-10
1.2627e-10
1.40423e-10
1.50894e-10
1.86144e-10
1.87155e-10
2.08335e-10
2.45759e-10
2.14673e-10
2.533e-10
2.46213e-10
2.27236e-10
2.5469e-10
2.46034e-10
2.52762e-10
2.67228e-10
2.86966e-10
2.87741e-10
2.95309e-10
3.19613e-10
2.9152e-10
3.10032e-10
3.15627e-10
3.00145e-10
3.01116e-10
2.87862e-10
2.81844e-10
2.40529e-10
2.04712e-10
1.96845e-10
1.46396e-10
1.15438e-10
1.28436e-10
9.98395e-11
9.27795e-11
1.20805e-10
9.17889e-11
1.08919e-10
1.10441e-10
1.0354e-10
1.344e-10
1.29711e-10
1.47611e-10
1.76686e-10
1.92801e-10
2.04636e-10
2.5252e-10
2.50067e-10
2.4123e-10
2.75984e-10
2.3878e-10
2.33104e-10
2.47254e-10
2.39319e-10
2.50128e-10
2.67165e-10
2.98765e-10
2.9752e-10
3.05573e-10
3.31905e-10
3.08193e-10
3.32623e-10
3.37418e-10
3.34208e-10
3.35762e-10
3.30646e-10
3.20638e-10
2.5574e-10
2.2092e-10
1.94387e-10
1.24322e-10
1.21384e-10
1.09566e-10
8.35986e-11
1.09343e-10
1.00305e-10
9.60016e-11
1.15153e-10
1.00773e-10
1.12843e-10
1.30388e-10
1.29877e-10
1.50021e-10
1.93291e-10
1.96549e-10
2.28459e-10
2.93505e-10
2.55453e-10
2.75825e-10
2.84909e-10
2.23914e-10
2.30426e-10
2.23208e-10
2.26693e-10
2.41122e-10
2.64919e-10
3.05202e-10
3.09851e-10
3.25904e-10
3.43662e-10
3.284e-10
3.64313e-10
3.66006e-10
3.79075e-10
3.8512e-10
3.87921e-10
3.69662e-10
2.85035e-10
2.47155e-10
1.97581e-10
1.1442e-10
1.32035e-10
9.63788e-11
7.9961e-11
1.27238e-10
8.60673e-11
1.10927e-10
1.19123e-10
9.71506e-11
1.27298e-10
1.25433e-10
1.37263e-10
1.57279e-10
2.10892e-10
2.1342e-10
2.68785e-10
3.41838e-10
2.80858e-10
3.23413e-10
2.91382e-10
2.15766e-10
2.26972e-10
1.98291e-10
2.18655e-10
2.3585e-10
2.71334e-10
3.20194e-10
3.33733e-10
3.60814e-10
3.65873e-10
3.59858e-10
4.03183e-10
3.99816e-10
4.34787e-10
4.51249e-10
4.64653e-10
4.37685e-10
3.35383e-10
2.85425e-10
2.09044e-10
1.1504e-10
1.42289e-10
9.12371e-11
8.95893e-11
1.48269e-10
8.65122e-11
1.34241e-10
1.24142e-10
1.03725e-10
1.44622e-10
1.26534e-10
1.53998e-10
1.72786e-10
2.37708e-10
2.46987e-10
3.27845e-10
4.04043e-10
3.33909e-10
3.84747e-10
3.03145e-10
2.17258e-10
2.22259e-10
1.77661e-10
2.16017e-10
2.37272e-10
2.88756e-10
3.47239e-10
3.73148e-10
4.15007e-10
4.05905e-10
4.04186e-10
4.39725e-10
4.32873e-10
4.97927e-10
5.35111e-10
5.64125e-10
5.28e-10
4.05791e-10
3.33159e-10
2.25481e-10
1.20555e-10
1.50616e-10
9.48597e-11
1.14057e-10
1.76859e-10
1.0384e-10
1.60682e-10
1.3094e-10
1.16526e-10
1.60092e-10
1.35489e-10
1.74231e-10
1.95239e-10
2.72543e-10
2.94473e-10
4.02899e-10
4.81062e-10
4.16368e-10
4.57926e-10
3.19481e-10
2.20497e-10
2.10564e-10
1.58685e-10
2.13722e-10
2.42128e-10
3.12587e-10
3.85475e-10
4.31916e-10
4.91127e-10
4.64032e-10
4.5578e-10
4.6441e-10
4.58913e-10
5.63634e-10
6.38974e-10
6.89883e-10
6.42571e-10
4.94557e-10
3.87236e-10
2.43422e-10
1.27395e-10
1.57313e-10
1.09159e-10
1.55803e-10
2.15532e-10
1.34817e-10
1.86157e-10
1.38216e-10
1.30048e-10
1.7379e-10
1.51171e-10
1.94745e-10
2.24118e-10
3.14461e-10
3.55446e-10
4.91813e-10
5.75453e-10
5.30441e-10
5.43148e-10
3.37063e-10
2.17321e-10
1.90284e-10
1.39926e-10
2.0828e-10
2.46967e-10
3.39344e-10
4.35303e-10
5.13945e-10
5.91918e-10
5.39486e-10
5.07928e-10
4.71106e-10
4.70855e-10
6.28881e-10
7.68348e-10
8.48573e-10
7.86717e-10
6.04637e-10
4.50003e-10
2.6429e-10
1.35798e-10
1.66385e-10
1.42915e-10
2.22223e-10
2.68831e-10
1.78536e-10
2.1131e-10
1.45719e-10
1.44033e-10
1.89614e-10
1.74316e-10
2.1955e-10
2.63777e-10
3.70564e-10
4.34837e-10
5.95277e-10
6.94162e-10
6.84797e-10
6.48336e-10
3.55543e-10
2.06314e-10
1.69095e-10
1.25956e-10
2.0187e-10
2.51514e-10
3.70652e-10
5.00921e-10
6.28052e-10
7.26036e-10
6.37689e-10
5.55768e-10
4.61984e-10
4.67684e-10
6.96585e-10
9.35552e-10
1.05266e-09
9.70052e-10
7.42809e-10
5.2781e-10
2.93518e-10
1.49763e-10
1.89017e-10
2.14474e-10
3.24937e-10
3.46001e-10
2.39523e-10
2.42137e-10
1.556e-10
1.63418e-10
2.14839e-10
2.10258e-10
2.59014e-10
3.26612e-10
4.55838e-10
5.41626e-10
7.17093e-10
8.45578e-10
8.97315e-10
7.90235e-10
3.78594e-10
1.9538e-10
1.65617e-10
1.29337e-10
2.01639e-10
2.58468e-10
4.13317e-10
5.91707e-10
7.89426e-10
9.11361e-10
7.69595e-10
6.00624e-10
4.40755e-10
4.51425e-10
7.73138e-10
1.16049e-09
1.32109e-09
1.20412e-09
9.17386e-10
6.3072e-10
3.38576e-10
1.75725e-10
2.43158e-10
3.53212e-10
4.81965e-10
4.60273e-10
3.27727e-10
2.86689e-10
1.73236e-10
1.98652e-10
2.63094e-10
2.70322e-10
3.29045e-10
4.34078e-10
5.90832e-10
6.90291e-10
8.63448e-10
1.04088e-09
1.1964e-09
9.95471e-10
4.15117e-10
2.00984e-10
2.10914e-10
1.73726e-10
2.18614e-10
2.77515e-10
4.77427e-10
7.19639e-10
1.02125e-09
1.17538e-09
9.52361e-10
6.46764e-10
4.18684e-10
4.31864e-10
8.70317e-10
1.46944e-09
1.67755e-09
1.50372e-09
1.1386e-09
7.71729e-10
4.11059e-10
2.24379e-10
3.54829e-10
6.03616e-10
7.18553e-10
6.31541e-10
4.56847e-10
3.56053e-10
2.07549e-10
2.67182e-10
3.56349e-10
3.74888e-10
4.51873e-10
6.14709e-10
8.02354e-10
9.01808e-10
1.03755e-09
1.28958e-09
1.62275e-09
1.30008e-09
4.7626e-10
2.49021e-10
3.51189e-10
2.92105e-10
2.64336e-10
3.21763e-10
5.78206e-10
9.00287e-10
1.35567e-09
1.55574e-09
1.2138e-09
7.03818e-10
4.17658e-10
4.28647e-10
1.00418e-09
1.89929e-09
2.14986e-09
1.88312e-09
1.4163e-09
9.66801e-10
5.23165e-10
3.10809e-10
5.61535e-10
1.03769e-09
1.06487e-09
8.8164e-10
6.44844e-10
4.63484e-10
2.71642e-10
3.93904e-10
5.27948e-10
5.49383e-10
6.53868e-10
9.09343e-10
1.12487e-09
1.20665e-09
1.24382e-09
1.59894e-09
2.23258e-09
1.75253e-09
5.79535e-10
3.78615e-10
6.53963e-10
5.29944e-10
3.56851e-10
4.077e-10
7.34121e-10
1.14923e-09
1.83357e-09
2.09915e-09
1.59227e-09
7.84382e-10
4.72351e-10
4.74538e-10
1.19517e-09
2.49411e-09
2.7685e-09
2.35399e-09
1.75788e-09
1.23489e-09
6.9787e-10
4.56079e-10
9.14499e-10
1.7612e-09
1.56109e-09
1.2385e-09
9.14864e-10
6.29581e-10
3.86112e-10
6.19961e-10
8.24907e-10
8.27159e-10
9.64509e-10
1.36946e-09
1.60498e-09
1.64869e-09
1.48698e-09
1.97664e-09
3.10267e-09
2.41949e-09
7.5038e-10
6.39917e-10
1.2106e-09
9.41358e-10
5.15273e-10
5.59349e-10
9.69923e-10
1.48169e-09
2.50957e-09
2.86938e-09
2.14164e-09
9.07024e-10
6.38324e-10
6.21988e-10
1.47159e-09
3.31243e-09
3.57095e-09
2.9325e-09
2.16702e-09
1.60404e-09
9.73396e-10
6.90452e-10
1.48581e-09
2.93702e-09
2.25598e-09
1.73546e-09
1.29731e-09
8.82316e-10
5.7944e-10
9.99691e-10
1.3064e-09
1.24292e-09
1.41599e-09
2.05923e-09
2.30164e-09
2.29082e-09
1.76948e-09
2.43187e-09
4.33491e-09
3.3869e-09
1.02255e-09
1.10081e-09
2.15493e-09
1.59948e-09
7.64632e-10
8.05664e-10
1.31585e-09
1.91144e-09
3.45424e-09
3.9453e-09
2.94057e-09
1.10138e-09
9.83318e-10
9.34253e-10
1.86582e-09
4.41731e-09
4.59882e-09
3.63809e-09
2.64387e-09
2.10983e-09
1.40611e-09
1.03546e-09
2.37407e-09
4.79438e-09
3.20117e-09
2.41749e-09
1.83655e-09
1.26766e-09
9.01045e-10
1.60853e-09
2.055e-09
1.82841e-09
2.04106e-09
3.05123e-09
3.28939e-09
3.22172e-09
2.10653e-09
2.99013e-09
6.07504e-09
4.77993e-09
1.45201e-09
1.8476e-09
3.67027e-09
2.58465e-09
1.14623e-09
1.19557e-09
1.81877e-09
2.45257e-09
4.76752e-09
5.433e-09
4.09203e-09
1.40205e-09
1.61959e-09
1.4924e-09
2.43102e-09
5.89644e-09
5.90445e-09
4.50941e-09
3.18092e-09
2.82109e-09
2.1032e-09
1.5543e-09
3.74494e-09
7.68555e-09
4.47549e-09
3.34877e-09
2.61155e-09
1.8662e-09
1.41829e-09
2.55775e-09
3.18945e-09
2.62221e-09
2.88157e-09
4.42029e-09
4.66842e-09
4.56699e-09
2.52708e-09
3.67733e-09
8.51327e-09
6.75195e-09
2.12056e-09
3.00515e-09
6.0283e-09
3.99261e-09
1.69458e-09
1.78984e-09
2.53554e-09
3.11271e-09
6.59352e-09
7.47466e-09
5.76166e-09
1.88168e-09
2.71911e-09
2.42982e-09
3.27105e-09
7.85595e-09
7.58594e-09
5.60805e-09
3.83349e-09
3.83817e-09
3.24397e-09
2.33683e-09
5.83951e-09
1.21121e-08
6.1805e-09
4.63452e-09
3.76193e-09
2.81794e-09
2.26354e-09
4.02533e-09
4.89524e-09
3.69543e-09
3.98605e-09
6.25778e-09
6.59241e-09
6.5341e-09
3.12538e-09
4.61852e-09
1.19435e-08
9.53862e-09
3.18413e-09
4.74504e-09
9.65643e-09
5.95694e-09
2.53748e-09
2.71682e-09
3.57609e-09
3.95594e-09
9.15979e-09
1.02824e-08
8.17954e-09
2.6406e-09
4.55894e-09
3.95003e-09
4.58786e-09
1.05135e-08
9.82424e-09
7.10273e-09
4.75914e-09
5.43166e-09
5.25228e-09
3.62439e-09
9.12238e-09
1.88571e-08
8.51793e-09
6.50855e-09
5.57709e-09
4.40671e-09
3.69033e-09
6.328e-09
7.49813e-09
5.19701e-09
5.45626e-09
8.64422e-09
9.32223e-09
9.45989e-09
4.10627e-09
6.02012e-09
1.68127e-08
1.35097e-08
4.90904e-09
7.37471e-09
1.52347e-08
8.66844e-09
3.9036e-09
4.22482e-09
5.1678e-09
5.1324e-09
1.28823e-08
1.42008e-08
1.17433e-08
3.9266e-09
7.6372e-09
6.441e-09
6.78005e-09
1.41556e-08
1.28991e-08
9.26454e-09
6.30396e-09
7.9936e-09
8.7886e-09
5.77915e-09
1.42856e-08
2.89707e-08
1.17765e-08
9.24884e-09
8.42815e-09
7.07571e-09
6.10035e-09
9.95288e-09
1.15367e-08
7.43332e-09
7.58943e-09
1.17596e-08
1.32614e-08
1.38922e-08
5.88952e-09
8.28321e-09
2.38138e-08
1.92101e-08
7.85404e-09
1.14446e-08
2.38516e-08
1.24726e-08
6.24248e-09
6.77059e-09
7.6709e-09
6.96269e-09
1.83859e-08
1.98052e-08
1.70609e-08
6.13517e-09
1.25038e-08
1.02928e-08
1.03486e-08
1.92658e-08
1.72117e-08
1.25815e-08
9.12511e-09
1.19976e-08
1.50455e-08
9.42398e-09
2.24224e-08
4.4351e-08
1.64588e-08
1.33858e-08
1.29776e-08
1.14137e-08
9.89836e-09
1.54358e-08
1.75573e-08
1.07328e-08
1.07012e-08
1.5789e-08
1.90259e-08
2.04205e-08
8.9301e-09
1.19658e-08
3.36022e-08
2.72565e-08
1.2646e-08
1.77291e-08
3.70874e-08
1.77892e-08
1.01266e-08
1.09323e-08
1.16151e-08
9.96726e-09
2.66946e-08
2.78253e-08
2.44915e-08
9.71524e-09
1.92932e-08
1.5773e-08
1.58277e-08
2.60732e-08
2.35325e-08
1.77174e-08
1.41569e-08
1.78353e-08
2.54225e-08
1.49493e-08
3.46433e-08
6.59151e-08
2.26951e-08
1.90659e-08
1.9349e-08
1.79829e-08
1.59051e-08
2.34695e-08
2.62163e-08
1.55103e-08
1.56495e-08
2.1907e-08
2.69662e-08
2.9345e-08
1.39305e-08
1.78083e-08
4.75612e-08
3.79606e-08
1.99209e-08
2.68722e-08
5.67127e-08
2.47795e-08
1.61461e-08
1.71794e-08
1.7335e-08
1.47442e-08
3.90183e-08
3.91478e-08
3.35626e-08
1.51334e-08
2.78885e-08
2.37685e-08
2.3298e-08
3.43624e-08
3.2062e-08
2.55495e-08
2.35247e-08
2.63756e-08
4.15657e-08
2.30867e-08
5.2924e-08
9.49582e-08
3.14954e-08
2.6896e-08
2.87233e-08
2.71045e-08
2.49858e-08
3.46587e-08
3.51358e-08
2.20862e-08
2.30469e-08
3.04393e-08
3.7642e-08
4.07964e-08
2.1587e-08
2.61274e-08
6.71209e-08
5.35625e-08
2.97441e-08
4.09437e-08
8.58975e-08
3.31179e-08
2.52296e-08
2.52473e-08
2.46852e-08
2.1846e-08
5.56453e-08
5.46676e-08
4.48266e-08
2.35643e-08
3.87739e-08
3.51685e-08
3.36652e-08
4.28094e-08
4.15494e-08
3.57602e-08
3.95619e-08
3.70244e-08
5.83499e-08
3.27526e-08
7.4347e-08
1.23869e-07
4.10019e-08
3.66065e-08
4.0449e-08
3.72248e-08
3.81543e-08
4.71526e-08
4.37029e-08
3.10739e-08
3.38302e-08
4.18695e-08
4.86767e-08
5.15924e-08
3.22525e-08
3.67883e-08
9.05848e-08
7.20312e-08
4.0668e-08
6.28745e-08
1.22979e-07
4.02287e-08
3.68546e-08
3.47324e-08
3.41208e-08
3.16739e-08
7.71106e-08
7.52817e-08
6.34361e-08
3.38274e-08
4.93626e-08
4.73404e-08
4.41893e-08
4.77944e-08
5.19899e-08
4.64758e-08
5.89195e-08
4.85505e-08
7.8446e-08
4.39015e-08
9.50998e-08
1.59167e-07
5.21989e-08
4.83284e-08
5.38272e-08
5.05461e-08
5.60812e-08
6.39593e-08
5.08192e-08
4.14139e-08
4.61503e-08
5.7271e-08
6.04407e-08
6.72528e-08
4.47885e-08
4.87713e-08
1.156e-07
9.45584e-08
6.16599e-08
9.39499e-08
1.61009e-07
4.84001e-08
4.96067e-08
4.57801e-08
4.44126e-08
4.27141e-08
1.04844e-07
9.55853e-08
8.66036e-08
4.47777e-08
5.76131e-08
5.76611e-08
5.36356e-08
6.02933e-08
6.08232e-08
5.48959e-08
6.54609e-08
5.86521e-08
9.8286e-08
5.44392e-08
1.12189e-07
1.86293e-07
6.18014e-08
6.08511e-08
6.59658e-08
6.22814e-08
7.58552e-08
8.05903e-08
5.95347e-08
5.43288e-08
5.911e-08
7.90902e-08
7.26436e-08
9.08208e-08
5.74587e-08
5.91921e-08
1.31036e-07
1.17647e-07
7.95205e-08
1.2345e-07
1.85287e-07
5.73578e-08
5.92305e-08
5.54265e-08
5.51899e-08
5.2581e-08
1.12581e-07
1.0352e-07
1.00401e-07
5.43022e-08
6.27748e-08
6.87406e-08
5.9916e-08
7.06376e-08
6.65663e-08
6.31989e-08
6.92668e-08
6.63698e-08
1.10565e-07
6.33098e-08
1.22265e-07
1.79853e-07
6.6672e-08
6.97657e-08
7.46461e-08
7.18811e-08
9.33919e-08
9.68343e-08
6.70364e-08
6.78858e-08
6.81478e-08
9.46983e-08
8.21517e-08
1.05505e-07
6.39897e-08
6.56699e-08
1.33948e-07
1.29542e-07
9.05505e-08
1.35274e-07
1.88883e-07
6.31232e-08
6.47181e-08
6.15903e-08
6.17517e-08
5.78711e-08
1.03691e-07
1.03383e-07
1.09254e-07
5.91251e-08
6.4205e-08
7.22562e-08
6.1584e-08
7.70203e-08
7.13606e-08
6.8103e-08
6.54759e-08
6.72017e-08
1.06387e-07
6.81317e-08
1.22304e-07
1.708e-07
6.86432e-08
7.30605e-08
7.85334e-08
7.33015e-08
1.11099e-07
1.04888e-07
7.09882e-08
7.42494e-08
7.31208e-08
1.0545e-07
8.43556e-08
1.12192e-07
6.30402e-08
6.65484e-08
1.22194e-07
1.3419e-07
9.60665e-08
1.36324e-07
1.77661e-07
6.42714e-08
6.61235e-08
6.47642e-08
6.22805e-08
5.78904e-08
9.70368e-08
9.74466e-08
1.07679e-07
5.98343e-08
6.34725e-08
7.06144e-08
5.96576e-08
8.36139e-08
7.3273e-08
6.84621e-08
6.21645e-08
6.46564e-08
9.67068e-08
6.84272e-08
1.18259e-07
1.55008e-07
6.8299e-08
7.12162e-08
7.91405e-08
7.35804e-08
1.18432e-07
1.08961e-07
7.31262e-08
7.51751e-08
7.39914e-08
1.11377e-07
8.36048e-08
1.24389e-07
6.06516e-08
6.52062e-08
1.09892e-07
1.38015e-07
9.55043e-08
1.32991e-07
1.79831e-07
6.35716e-08
6.64817e-08
6.50916e-08
6.05223e-08
5.69974e-08
8.97044e-08
9.38866e-08
1.07433e-07
5.88804e-08
6.1991e-08
6.89815e-08
5.80265e-08
8.52363e-08
7.35655e-08
6.86152e-08
5.98555e-08
6.2623e-08
9.20207e-08
6.72748e-08
1.1597e-07
1.46718e-07
6.76507e-08
6.92296e-08
7.70928e-08
7.05708e-08
1.20256e-07
1.06585e-07
7.31578e-08
7.27704e-08
7.29948e-08
1.13332e-07
8.17312e-08
1.26494e-07
5.86163e-08
6.33015e-08
1.02816e-07
1.36585e-07
9.13128e-08
1.27421e-07
1.80066e-07
6.3095e-08
6.60834e-08
6.34359e-08
5.88086e-08
5.58437e-08
8.68351e-08
9.04837e-08
1.09073e-07
5.79298e-08
6.041e-08
6.61139e-08
5.6444e-08
8.53825e-08
7.22325e-08
6.72454e-08
5.77124e-08
6.09689e-08
8.57525e-08
6.58445e-08
1.1283e-07
1.44877e-07
6.64203e-08
6.7695e-08
7.45631e-08
6.9188e-08
1.16991e-07
1.03582e-07
7.30255e-08
7.03317e-08
7.1264e-08
1.09311e-07
8.08815e-08
1.25351e-07
5.71763e-08
6.17631e-08
1.00085e-07
1.33092e-07
8.64325e-08
1.23838e-07
1.77194e-07
6.14744e-08
6.47881e-08
6.13408e-08
5.73625e-08
5.49426e-08
8.63282e-08
8.83665e-08
1.06416e-07
5.6741e-08
5.97333e-08
6.51164e-08
5.5648e-08
8.46627e-08
7.2283e-08
6.67651e-08
5.69551e-08
6.03908e-08
8.37821e-08
6.49655e-08
1.11452e-07
1.44126e-07
6.57152e-08
6.70091e-08
7.31111e-08
6.82822e-08
1.14692e-07
1.02151e-07
7.16763e-08
6.89292e-08
7.02309e-08
1.07395e-07
8.0293e-08
1.24153e-07
5.64266e-08
6.09056e-08
9.94705e-08
1.31081e-07
8.5295e-08
1.22066e-07
1.74401e-07
6.09249e-08
6.37815e-08
6.02747e-08
5.67179e-08
5.44168e-08
8.62792e-08
8.74093e-08
1.05101e-07
5.601e-08
2.51389e-10
2.53203e-10
2.43223e-10
2.56742e-10
2.29334e-10
2.19829e-10
2.07145e-10
1.6906e-10
1.71802e-10
1.5806e-10
1.05448e-10
1.3092e-10
1.21589e-10
7.15582e-11
1.21977e-10
9.52708e-11
8.44757e-11
1.14594e-10
9.22203e-11
1.08928e-10
1.22047e-10
1.26695e-10
1.25399e-10
1.72537e-10
1.68991e-10
1.67752e-10
2.29719e-10
1.97571e-10
2.21601e-10
2.42989e-10
2.2057e-10
2.45462e-10
2.44204e-10
2.54099e-10
2.62725e-10
2.68575e-10
2.76399e-10
2.93497e-10
3.1761e-10
2.66281e-10
2.86833e-10
2.88099e-10
2.75001e-10
2.80521e-10
2.57958e-10
2.55693e-10
2.29176e-10
1.9189e-10
1.94708e-10
1.68943e-10
1.16692e-10
1.41468e-10
1.23393e-10
8.17777e-11
1.35803e-10
1.01141e-10
9.98379e-11
1.20243e-10
9.94374e-11
1.27877e-10
1.30935e-10
1.41493e-10
1.55204e-10
1.8784e-10
1.85056e-10
2.14455e-10
2.48171e-10
2.17886e-10
2.59324e-10
2.49684e-10
2.33856e-10
2.58869e-10
2.52013e-10
2.62591e-10
2.70494e-10
2.96135e-10
2.93717e-10
2.96186e-10
3.2084e-10
2.86233e-10
3.07143e-10
3.11685e-10
3.04298e-10
3.04396e-10
2.92234e-10
2.90833e-10
2.44835e-10
2.11343e-10
2.04427e-10
1.54294e-10
1.22082e-10
1.32334e-10
1.05596e-10
9.7164e-11
1.26523e-10
9.81318e-11
1.09738e-10
1.14971e-10
1.06742e-10
1.35617e-10
1.35946e-10
1.48818e-10
1.83471e-10
1.96591e-10
2.03843e-10
2.62623e-10
2.54391e-10
2.47413e-10
2.85816e-10
2.45661e-10
2.43709e-10
2.5358e-10
2.51904e-10
2.63957e-10
2.75166e-10
3.14135e-10
3.04612e-10
3.0698e-10
3.3071e-10
3.02856e-10
3.26283e-10
3.33e-10
3.37153e-10
3.3544e-10
3.35333e-10
3.27914e-10
2.61809e-10
2.32526e-10
2.05244e-10
1.32101e-10
1.29009e-10
1.15243e-10
8.89642e-11
1.14569e-10
1.04141e-10
1.00396e-10
1.16986e-10
1.05449e-10
1.15618e-10
1.32913e-10
1.36983e-10
1.52033e-10
2.00819e-10
1.99089e-10
2.27481e-10
3.03185e-10
2.59804e-10
2.83698e-10
2.96092e-10
2.33738e-10
2.43813e-10
2.33016e-10
2.46907e-10
2.5822e-10
2.78075e-10
3.24378e-10
3.16634e-10
3.2762e-10
3.4011e-10
3.2231e-10
3.53193e-10
3.59902e-10
3.78945e-10
3.80973e-10
3.92621e-10
3.78031e-10
2.96191e-10
2.64124e-10
2.10253e-10
1.20575e-10
1.40827e-10
1.03136e-10
8.45394e-11
1.32017e-10
8.58943e-11
1.14779e-10
1.22953e-10
1.01746e-10
1.30729e-10
1.29569e-10
1.44698e-10
1.60398e-10
2.16468e-10
2.12075e-10
2.66127e-10
3.48351e-10
2.84697e-10
3.31934e-10
3.01891e-10
2.27051e-10
2.41827e-10
2.13026e-10
2.45751e-10
2.54843e-10
2.89531e-10
3.42095e-10
3.42386e-10
3.63903e-10
3.59568e-10
3.50958e-10
3.85809e-10
3.91045e-10
4.29917e-10
4.42839e-10
4.68041e-10
4.48823e-10
3.53048e-10
3.07051e-10
2.2273e-10
1.19802e-10
1.52953e-10
9.80758e-11
9.2521e-11
1.49697e-10
8.13138e-11
1.37557e-10
1.28949e-10
1.08527e-10
1.48681e-10
1.32413e-10
1.61686e-10
1.77324e-10
2.40702e-10
2.40533e-10
3.21522e-10
4.05946e-10
3.36748e-10
3.92692e-10
3.12125e-10
2.29428e-10
2.38666e-10
1.97837e-10
2.48082e-10
2.5752e-10
3.13339e-10
3.74277e-10
3.87749e-10
4.19493e-10
3.95032e-10
3.88674e-10
4.15546e-10
4.21135e-10
4.86849e-10
5.21169e-10
5.64383e-10
5.42011e-10
4.30425e-10
3.59119e-10
2.3934e-10
1.24442e-10
1.63041e-10
1.00878e-10
1.13374e-10
1.70257e-10
9.13922e-11
1.63343e-10
1.35894e-10
1.21442e-10
1.64214e-10
1.42101e-10
1.82004e-10
2.01675e-10
2.72209e-10
2.79797e-10
3.89168e-10
4.76833e-10
4.1701e-10
4.64542e-10
3.27174e-10
2.33258e-10
2.28506e-10
1.83572e-10
2.48985e-10
2.65248e-10
3.4694e-10
4.22421e-10
4.55876e-10
4.95427e-10
4.45336e-10
4.29189e-10
4.33198e-10
4.43416e-10
5.45437e-10
6.16478e-10
6.85209e-10
6.58553e-10
5.26829e-10
4.18221e-10
2.55982e-10
1.29993e-10
1.70598e-10
1.13562e-10
1.47685e-10
1.95523e-10
1.13278e-10
1.88494e-10
1.43622e-10
1.35169e-10
1.7654e-10
1.55278e-10
2.0191e-10
2.31735e-10
3.07541e-10
3.26979e-10
4.65711e-10
5.6302e-10
5.27443e-10
5.47727e-10
3.43142e-10
2.29946e-10
2.09435e-10
1.67614e-10
2.46051e-10
2.76255e-10
3.87782e-10
4.87618e-10
5.50738e-10
5.94583e-10
5.08779e-10
4.66519e-10
4.37014e-10
4.54234e-10
6.0468e-10
7.36074e-10
8.36728e-10
8.0435e-10
6.44935e-10
4.86205e-10
2.73128e-10
1.35768e-10
1.80018e-10
1.43991e-10
1.99662e-10
2.29115e-10
1.46404e-10
2.14558e-10
1.52671e-10
1.50992e-10
1.89524e-10
1.74041e-10
2.25732e-10
2.70718e-10
3.5111e-10
3.85036e-10
5.51438e-10
6.71225e-10
6.75656e-10
6.48393e-10
3.59351e-10
2.18529e-10
1.87778e-10
1.54745e-10
2.41062e-10
2.90461e-10
4.37659e-10
5.77102e-10
6.81545e-10
7.25532e-10
5.88567e-10
4.98083e-10
4.28545e-10
4.53372e-10
6.69524e-10
8.95532e-10
1.03378e-09
9.90718e-10
7.92719e-10
5.6992e-10
2.96269e-10
1.46345e-10
2.02928e-10
2.06796e-10
2.78888e-10
2.78833e-10
1.95504e-10
2.44477e-10
1.67355e-10
1.75618e-10
2.12688e-10
2.07467e-10
2.64026e-10
3.28635e-10
4.14142e-10
4.62298e-10
6.50236e-10
8.11734e-10
8.79071e-10
7.83006e-10
3.81048e-10
2.06753e-10
1.79639e-10
1.56128e-10
2.39382e-10
3.13765e-10
5.05425e-10
7.02018e-10
8.66075e-10
9.06407e-10
6.94497e-10
5.26151e-10
4.17036e-10
4.4701e-10
7.51196e-10
1.12141e-09
1.29898e-09
1.23267e-09
9.83274e-10
6.82121e-10
3.36129e-10
1.71648e-10
2.58346e-10
3.29296e-10
4.02997e-10
3.59381e-10
2.69901e-10
2.88791e-10
1.97799e-10
2.2419e-10
2.63345e-10
2.71884e-10
3.32934e-10
4.22996e-10
5.14415e-10
5.72289e-10
7.69954e-10
9.9781e-10
1.16475e-09
9.78954e-10
4.18904e-10
2.1065e-10
2.13386e-10
1.92232e-10
2.51781e-10
3.58484e-10
6.08083e-10
8.79382e-10
1.13263e-09
1.16612e-09
8.44417e-10
5.59507e-10
4.23342e-10
4.52559e-10
8.66999e-10
1.45589e-09
1.6631e-09
1.54662e-09
1.23254e-09
8.38196e-10
4.07326e-10
2.26911e-10
3.73e-10
5.53498e-10
5.96229e-10
4.9122e-10
3.83163e-10
3.60233e-10
2.57188e-10
3.18659e-10
3.6849e-10
3.91097e-10
4.56623e-10
5.81391e-10
6.7747e-10
7.38276e-10
9.22928e-10
1.24559e-09
1.5722e-09
1.27671e-09
4.92024e-10
2.5818e-10
3.33209e-10
2.95472e-10
2.95166e-10
4.43209e-10
7.68991e-10
1.13136e-09
1.52239e-09
1.54502e-09
1.06442e-09
6.1141e-10
4.82911e-10
5.04427e-10
1.04562e-09
1.96266e-09
2.16874e-09
1.95457e-09
1.56275e-09
1.06202e-09
5.34123e-10
3.36913e-10
5.87869e-10
9.4792e-10
8.96773e-10
7.03361e-10
5.58496e-10
4.80548e-10
3.68099e-10
4.96306e-10
5.70685e-10
5.97884e-10
6.67296e-10
8.42813e-10
9.38834e-10
9.96058e-10
1.12554e-09
1.57638e-09
2.16052e-09
1.73364e-09
6.26614e-10
3.89129e-10
6.0004e-10
5.09833e-10
3.93882e-10
5.9736e-10
1.01932e-09
1.48488e-09
2.09438e-09
2.09977e-09
1.39422e-09
7.08164e-10
6.52483e-10
6.52964e-10
1.32591e-09
2.7355e-09
2.86954e-09
2.47739e-09
1.99485e-09
1.38271e-09
7.45913e-10
5.30921e-10
9.59321e-10
1.61736e-09
1.34807e-09
1.02532e-09
8.19799e-10
6.74813e-10
5.60948e-10
8.08299e-10
9.27716e-10
9.36085e-10
1.00504e-09
1.25817e-09
1.34536e-09
1.4047e-09
1.40591e-09
2.01782e-09
3.00424e-09
2.42815e-09
8.62876e-10
6.64447e-10
1.1035e-09
8.99878e-10
5.84292e-10
8.63324e-10
1.40046e-09
1.9731e-09
2.92896e-09
2.90283e-09
1.88896e-09
8.83639e-10
1.01676e-09
9.79112e-10
1.76125e-09
3.91178e-09
3.83775e-09
3.14389e-09
2.56289e-09
1.84634e-09
1.09255e-09
8.54485e-10
1.56684e-09
2.72947e-09
2.01192e-09
1.49565e-09
1.20588e-09
9.82269e-10
8.8884e-10
1.33285e-09
1.51837e-09
1.46837e-09
1.52426e-09
1.90181e-09
1.96963e-09
2.05967e-09
1.806e-09
2.61501e-09
4.20904e-09
3.46894e-09
1.26152e-09
1.16173e-09
1.95147e-09
1.54731e-09
9.1562e-10
1.29855e-09
1.96468e-09
2.63645e-09
4.14516e-09
4.0571e-09
2.62471e-09
1.19139e-09
1.69123e-09
1.60165e-09
2.4216e-09
5.68202e-09
5.16188e-09
3.97701e-09
3.30055e-09
2.50937e-09
1.62915e-09
1.36301e-09
2.51505e-09
4.53361e-09
2.9661e-09
2.16577e-09
1.76507e-09
1.45368e-09
1.43024e-09
2.17052e-09
2.43654e-09
2.26436e-09
2.27941e-09
2.85849e-09
2.88869e-09
3.09038e-09
2.3689e-09
3.42194e-09
5.9055e-09
4.99309e-09
1.90364e-09
1.98375e-09
3.28136e-09
2.5658e-09
1.45679e-09
1.9725e-09
2.77533e-09
3.51809e-09
5.90095e-09
5.68435e-09
3.69974e-09
1.69363e-09
2.82388e-09
2.67558e-09
3.39119e-09
8.32152e-09
6.95637e-09
5.02039e-09
4.27139e-09
3.45054e-09
2.42597e-09
2.1147e-09
3.93438e-09
7.37982e-09
4.30193e-09
3.10312e-09
2.56933e-09
2.15821e-09
2.33477e-09
3.47779e-09
3.81885e-09
3.43732e-09
3.36796e-09
4.27611e-09
4.23463e-09
4.72479e-09
3.18981e-09
4.5641e-09
8.26376e-09
7.18642e-09
2.90353e-09
3.25799e-09
5.25894e-09
4.1171e-09
2.32267e-09
2.99525e-09
3.93133e-09
4.68807e-09
8.42484e-09
7.94581e-09
5.26194e-09
2.47793e-09
4.64503e-09
4.48478e-09
4.81564e-09
1.22603e-08
9.40576e-09
6.35706e-09
5.60008e-09
4.8249e-09
3.62813e-09
3.26372e-09
6.06857e-09
1.18214e-08
6.16628e-09
4.41894e-09
3.75542e-09
3.21228e-09
3.86544e-09
5.44554e-09
5.78993e-09
5.0979e-09
4.90996e-09
6.33234e-09
6.16366e-09
7.29604e-09
4.3876e-09
6.20381e-09
1.15006e-08
1.03072e-08
4.45416e-09
5.16227e-09
8.0807e-09
6.40212e-09
3.63248e-09
4.4818e-09
5.56954e-09
6.2561e-09
1.20396e-08
1.10501e-08
7.51861e-09
3.68242e-09
7.42639e-09
7.36049e-09
6.87404e-09
1.80971e-08
1.27867e-08
8.15676e-09
7.46853e-09
6.79231e-09
5.37225e-09
4.94501e-09
9.15949e-09
1.85905e-08
8.79309e-09
6.27799e-09
5.52922e-09
4.80871e-09
6.54402e-09
8.34419e-09
8.49367e-09
7.40938e-09
7.15048e-09
9.38893e-09
8.89684e-09
1.13307e-08
6.17357e-09
8.64353e-09
1.59257e-08
1.47035e-08
6.83212e-09
7.92298e-09
1.20424e-08
9.80846e-09
5.68625e-09
6.66417e-09
7.92246e-09
8.4327e-09
1.72021e-08
1.5266e-08
1.0803e-08
5.49001e-09
1.16601e-08
1.20063e-08
9.91368e-09
2.68416e-08
1.76286e-08
1.07908e-08
1.02768e-08
9.75212e-09
8.03506e-09
7.55251e-09
1.3631e-08
2.87013e-08
1.24941e-08
9.0157e-09
8.25457e-09
7.26207e-09
1.13606e-08
1.25834e-08
1.23032e-08
1.07832e-08
1.04972e-08
1.40086e-08
1.27783e-08
1.77132e-08
8.94893e-09
1.24062e-08
2.20221e-08
2.0879e-08
1.05401e-08
1.19026e-08
1.74827e-08
1.46829e-08
8.74905e-09
9.87506e-09
1.13959e-08
1.16204e-08
2.45526e-08
2.10205e-08
1.5637e-08
8.27098e-09
1.7724e-08
1.90246e-08
1.43668e-08
4.00713e-08
2.46356e-08
1.46844e-08
1.42706e-08
1.39293e-08
1.20751e-08
1.14514e-08
1.99809e-08
4.34969e-08
1.77587e-08
1.29195e-08
1.23559e-08
1.09351e-08
2.00216e-08
1.85555e-08
1.72063e-08
1.54916e-08
1.53802e-08
2.08082e-08
1.80961e-08
2.73856e-08
1.30319e-08
1.81512e-08
3.02277e-08
2.93916e-08
1.60774e-08
1.74653e-08
2.49631e-08
2.18416e-08
1.34362e-08
1.4478e-08
1.64256e-08
1.63099e-08
3.46861e-08
2.87491e-08
2.27023e-08
1.2478e-08
2.67094e-08
2.95685e-08
2.0769e-08
6.06799e-08
3.42254e-08
2.00985e-08
2.02912e-08
1.99038e-08
1.79383e-08
1.72724e-08
2.89271e-08
6.39231e-08
2.51698e-08
1.86397e-08
1.85669e-08
1.6654e-08
3.50725e-08
2.65648e-08
2.44134e-08
2.27143e-08
2.28876e-08
3.10968e-08
2.54856e-08
4.03474e-08
1.92317e-08
2.68736e-08
4.14381e-08
4.09802e-08
2.4391e-08
2.51077e-08
3.51104e-08
3.13929e-08
2.01385e-08
2.1026e-08
2.42071e-08
2.3201e-08
4.85584e-08
3.8751e-08
3.31192e-08
1.86325e-08
3.82949e-08
4.40366e-08
2.93055e-08
8.89699e-08
4.67197e-08
2.75642e-08
2.89727e-08
2.74646e-08
2.65149e-08
2.56742e-08
4.13999e-08
9.08657e-08
3.55725e-08
2.62719e-08
2.66251e-08
2.48037e-08
6.13184e-08
3.76179e-08
3.22739e-08
3.14852e-08
3.29508e-08
4.49392e-08
3.42259e-08
5.83151e-08
2.75873e-08
3.83401e-08
5.74546e-08
5.60389e-08
3.66739e-08
3.46804e-08
4.63244e-08
4.34314e-08
2.95405e-08
3.00199e-08
3.35922e-08
3.32843e-08
7.13696e-08
5.06574e-08
4.5942e-08
2.69935e-08
5.18313e-08
6.295e-08
4.01103e-08
1.23554e-07
6.53911e-08
3.72909e-08
4.04774e-08
3.67937e-08
3.76585e-08
3.66758e-08
6.03016e-08
1.21193e-07
4.68994e-08
3.54407e-08
3.72928e-08
3.60709e-08
8.68294e-08
4.97534e-08
4.20921e-08
4.34713e-08
4.7716e-08
5.89049e-08
4.49332e-08
7.47786e-08
3.89799e-08
5.47606e-08
7.63823e-08
7.3246e-08
5.19149e-08
4.65011e-08
5.65099e-08
5.62619e-08
4.1791e-08
4.22739e-08
4.52002e-08
4.62107e-08
9.6707e-08
6.44044e-08
6.66524e-08
3.81324e-08
6.41694e-08
7.8214e-08
5.16215e-08
1.55615e-07
9.55346e-08
4.86209e-08
5.27383e-08
4.76808e-08
5.08455e-08
4.88373e-08
8.88723e-08
1.53453e-07
5.91935e-08
4.49662e-08
4.89351e-08
4.80129e-08
1.12805e-07
6.36277e-08
5.4721e-08
5.53167e-08
6.67946e-08
7.76011e-08
5.59824e-08
8.11104e-08
5.11405e-08
7.8486e-08
9.66622e-08
9.38582e-08
7.43458e-08
6.00216e-08
6.7877e-08
6.97752e-08
5.59055e-08
5.65541e-08
5.69641e-08
6.12839e-08
1.11684e-07
7.94322e-08
9.11617e-08
4.93027e-08
7.56924e-08
9.40922e-08
6.34594e-08
1.70052e-07
1.20187e-07
5.8134e-08
6.43239e-08
5.86053e-08
6.48732e-08
6.04897e-08
1.0865e-07
1.62689e-07
7.26736e-08
5.54309e-08
5.96272e-08
6.22239e-08
1.34865e-07
7.66493e-08
6.68952e-08
6.52364e-08
9.28742e-08
9.38265e-08
6.98253e-08
9.77224e-08
6.30043e-08
1.0431e-07
1.16893e-07
1.12417e-07
1.00949e-07
7.39509e-08
7.80812e-08
8.48352e-08
6.77796e-08
7.40346e-08
6.69057e-08
7.25715e-08
1.08264e-07
8.99599e-08
1.11187e-07
6.0471e-08
8.367e-08
1.04564e-07
7.22905e-08
1.6603e-07
1.36762e-07
6.78678e-08
7.13677e-08
6.70582e-08
7.50796e-08
6.86944e-08
1.1145e-07
1.52293e-07
7.59401e-08
6.38098e-08
6.53962e-08
7.2685e-08
1.58928e-07
8.67174e-08
7.65745e-08
7.1253e-08
1.1287e-07
1.04323e-07
8.08449e-08
1.17422e-07
7.09224e-08
1.21003e-07
1.27278e-07
1.26182e-07
1.3456e-07
8.63392e-08
8.74251e-08
1.0004e-07
7.67249e-08
8.53448e-08
7.21702e-08
8.70556e-08
9.82882e-08
9.43365e-08
1.27858e-07
6.8712e-08
8.61155e-08
1.12285e-07
7.64174e-08
1.67712e-07
1.33429e-07
7.20853e-08
7.30509e-08
7.03519e-08
7.64796e-08
7.26746e-08
1.07938e-07
1.55034e-07
7.92114e-08
6.85269e-08
6.86404e-08
7.93354e-08
1.62387e-07
9.37996e-08
8.3562e-08
7.27433e-08
1.20954e-07
1.08368e-07
8.75738e-08
1.2613e-07
7.34921e-08
1.22341e-07
1.39282e-07
1.31713e-07
1.5445e-07
9.6347e-08
9.16618e-08
1.03864e-07
8.10131e-08
8.91227e-08
7.39428e-08
9.44544e-08
9.62351e-08
9.43465e-08
1.2327e-07
7.12099e-08
8.52189e-08
1.15867e-07
7.5789e-08
1.66708e-07
1.31608e-07
7.38191e-08
7.08597e-08
6.96829e-08
7.4168e-08
7.19333e-08
1.01388e-07
1.55748e-07
7.81636e-08
7.17895e-08
6.82526e-08
8.03434e-08
1.59369e-07
9.62067e-08
9.05239e-08
7.31872e-08
1.21527e-07
1.10078e-07
8.98415e-08
1.23424e-07
7.41719e-08
1.17835e-07
1.47226e-07
1.33289e-07
1.82438e-07
9.99807e-08
9.49988e-08
1.01952e-07
8.1688e-08
8.59638e-08
7.39645e-08
9.79674e-08
9.5699e-08
9.26688e-08
1.17719e-07
7.18916e-08
8.27819e-08
1.13767e-07
7.45066e-08
1.64375e-07
1.29398e-07
7.38885e-08
6.90723e-08
6.815e-08
7.25534e-08
7.10003e-08
9.92115e-08
1.54797e-07
7.60888e-08
7.28512e-08
6.75198e-08
7.86258e-08
1.52802e-07
9.60128e-08
9.09741e-08
7.24688e-08
1.17461e-07
1.10528e-07
8.99949e-08
1.19501e-07
7.33675e-08
1.11395e-07