/*--------------------------------*- C++ -*----------------------------------*\
  =========                 |
  \\      /  F ield         | OpenFOAM: The Open Source CFD Toolbox
   \\    /   O peration     | Website:  https://openfoam.org
    \\  /    A nd           | Version:  10
     \\/     M anipulation  |
\*---------------------------------------------------------------------------*/
FoamFile
{
    format      ascii;
    class       volVectorField;
    location    "47.5";
    object      UMean;
}
// * * * * * * * * * * * * * * * * * * * * * * * * * * * * * * * * * * * * * //

dimensions      [0 1 -1 0 0 0 0];

internalField   nonuniform List<vector> 
25600
(
(1.03831 -4.62648e-07 1.24068e-07)
(1.03831 -7.13925e-07 1.62185e-07)
(1.03831 -4.17234e-07 1.6165e-07)
(1.03831 -5.0266e-07 1.50722e-07)
(1.03831 -5.72431e-07 1.80087e-07)
(1.03831 -1.66734e-07 1.40684e-07)
(1.03831 -8.10781e-07 1.88025e-07)
(1.03831 1.78239e-08 1.00884e-07)
(1.03831 -7.47189e-07 2.1372e-07)
(1.03831 -2.33559e-07 4.41124e-08)
(1.03831 -3.38514e-07 2.41357e-07)
(1.03831 -7.56428e-07 4.63892e-08)
(1.03831 4.09148e-08 2.12836e-07)
(1.03831 -1.03307e-06 1.08884e-07)
(1.03831 1.97045e-09 1.45396e-07)
(1.03831 -8.20064e-07 1.62017e-07)
(1.03831 -4.251e-07 1.29146e-07)
(1.03831 -3.79843e-07 1.14824e-07)
(1.03831 -9.01638e-07 1.79988e-07)
(1.03831 -4.27487e-08 6.16792e-08)
(1.03831 -1.10678e-06 1.79388e-07)
(1.03831 -1.22588e-07 8.30794e-08)
(1.03831 -8.02339e-07 1.20804e-07)
(1.03831 -6.94877e-07 9.30094e-08)
(1.03831 -2.76583e-07 1.24697e-07)
(1.03831 -1.09041e-06 3.06219e-08)
(1.03831 -1.33236e-07 1.61106e-07)
(1.03831 -9.34956e-07 1.97243e-08)
(1.03831 -4.19797e-07 8.22737e-08)
(1.03831 -5.75396e-07 1.72687e-07)
(1.03831 -7.11128e-07 -1.0378e-07)
(1.03831 -3.32083e-07 3.28348e-07)
(1.03831 -7.82271e-07 -1.51259e-07)
(1.03831 -3.37527e-07 2.78981e-07)
(1.03831 -6.63582e-07 7.85887e-09)
(1.03831 -4.80097e-07 1.20577e-07)
(1.03831 -5.23409e-07 1.48185e-07)
(1.03831 -5.93807e-07 9.12718e-08)
(1.03831 -5.14744e-07 1.39867e-07)
(1.03831 -7.1145e-07 1.55527e-07)
(1.03831 -8.53182e-08 4.37505e-07)
(1.03831 -6.27828e-07 3.87599e-07)
(1.03831 -2.15012e-07 5.03089e-07)
(1.03831 -3.62667e-07 3.54087e-07)
(1.03831 -4.06752e-07 5.198e-07)
(1.03831 -1.36501e-07 3.42276e-07)
(1.03831 -5.07717e-07 4.78331e-07)
(1.03831 -4.64314e-08 3.47483e-07)
(1.03831 -5.16573e-07 4.41654e-07)
(1.03831 -9.45206e-08 3.29551e-07)
(1.03831 -4.33917e-07 4.70399e-07)
(1.03831 -2.76795e-07 2.99437e-07)
(1.03831 -3.01437e-07 4.94958e-07)
(1.03831 -4.33985e-07 3.22362e-07)
(1.03831 -2.69326e-07 4.45548e-07)
(1.03831 -5.1966e-07 3.9186e-07)
(1.03831 -2.54666e-07 3.95551e-07)
(1.03831 -6.2162e-07 3.92702e-07)
(1.03831 -3.03373e-07 3.98321e-07)
(1.03831 -5.19107e-07 4.04369e-07)
(1.03831 -5.70933e-07 3.37785e-07)
(1.03831 -3.3056e-07 5.04593e-07)
(1.03831 -6.61511e-07 2.5001e-07)
(1.03831 -5.00772e-07 5.30011e-07)
(1.03831 -4.23609e-07 2.94454e-07)
(1.03831 -7.45852e-07 4.05868e-07)
(1.03831 -3.19815e-07 4.06981e-07)
(1.03831 -6.55307e-07 3.13804e-07)
(1.03831 -5.23138e-07 4.06403e-07)
(1.03831 -3.73436e-07 4.09724e-07)
(1.03831 -7.39902e-07 2.5277e-07)
(1.03831 -2.11619e-07 5.65423e-07)
(1.03831 -7.44142e-07 1.77657e-07)
(1.03831 -2.74717e-07 5.664e-07)
(1.03831 -5.70971e-07 2.83235e-07)
(1.03831 -4.49122e-07 4.61016e-07)
(1.03831 -3.54729e-07 3.89287e-07)
(1.03831 -6.1677e-07 4.23242e-07)
(1.03831 -1.71828e-07 4.02223e-07)
(1.03831 -7.2213e-07 4.25493e-07)
(1.03831 8.32659e-08 9.16972e-07)
(1.03831 -5.48685e-07 7.17825e-07)
(1.03831 -1.3476e-07 9.92413e-07)
(1.03831 -2.05035e-07 6.78267e-07)
(1.03831 -2.91071e-07 9.64778e-07)
(1.03831 -1.02613e-07 6.76737e-07)
(1.03831 -2.18412e-07 8.58649e-07)
(1.03831 -1.57329e-07 7.278e-07)
(1.03831 -2.06759e-07 7.69147e-07)
(1.03831 -5.11455e-08 7.43912e-07)
(1.03831 -4.03236e-07 7.88046e-07)
(1.03831 1.15979e-07 6.90706e-07)
(1.03831 -5.65959e-07 8.38262e-07)
(1.03831 1.12377e-07 6.80859e-07)
(1.03831 -5.38606e-07 8.00401e-07)
(1.03831 -1.81254e-07 7.47986e-07)
(1.03831 -2.00112e-07 7.45362e-07)
(1.03831 -7.07495e-07 7.74815e-07)
(1.03831 1.26649e-07 7.38389e-07)
(1.03831 -8.54042e-07 8.25965e-07)
(1.03831 -1.07661e-07 6.64323e-07)
(1.03831 -4.91326e-07 9.59074e-07)
(1.03831 -5.13451e-07 5.69822e-07)
(1.03831 -2.81379e-07 9.79509e-07)
(1.03831 -5.69031e-07 6.3344e-07)
(1.03831 -3.50356e-07 8.27105e-07)
(1.03831 -4.60416e-07 7.81555e-07)
(1.03831 -3.80803e-07 6.83982e-07)
(1.03831 -4.82311e-07 8.44749e-07)
(1.03831 -2.75899e-07 7.10139e-07)
(1.03831 -5.64163e-07 7.54932e-07)
(1.03831 -2.13986e-07 8.44699e-07)
(1.03831 -5.14022e-07 6.74856e-07)
(1.03831 -2.94739e-07 9.07812e-07)
(1.03831 -3.72689e-07 7.03996e-07)
(1.03831 -4.30199e-07 8.81439e-07)
(1.03831 -1.96934e-07 7.52235e-07)
(1.03831 -6.09164e-07 8.50382e-07)
(1.03831 2.12405e-08 8.06781e-07)
(1.03831 -7.35159e-07 7.91227e-07)
(1.03831 2.68768e-07 1.44841e-06)
(1.03831 -3.50062e-07 1.14713e-06)
(1.03831 2.47154e-08 1.51662e-06)
(1.03831 2.45814e-08 1.11927e-06)
(1.03831 -1.16769e-07 1.45402e-06)
(1.03831 6.12897e-08 1.14595e-06)
(1.03831 6.06342e-08 1.30221e-06)
(1.03831 -1.08247e-07 1.22806e-06)
(1.03831 1.38573e-07 1.16745e-06)
(1.03831 1.88286e-08 1.25457e-06)
(1.03831 -1.69644e-07 1.16265e-06)
(1.03831 3.47235e-07 1.18424e-06)
(1.03831 -5.0825e-07 1.22414e-06)
(1.03831 4.45337e-07 1.16277e-06)
(1.03831 -5.26814e-07 1.20184e-06)
(1.03831 9.26729e-08 1.23576e-06)
(1.03831 -6.73229e-08 1.159e-06)
(1.03831 -6.18776e-07 1.28208e-06)
(1.03831 4.38409e-07 1.16948e-06)
(1.03831 -9.3605e-07 1.35037e-06)
(1.03831 2.68287e-07 1.12552e-06)
(1.03831 -5.33205e-07 1.47804e-06)
(1.03831 -2.88369e-07 1.06241e-06)
(1.03831 -6.51509e-08 1.48485e-06)
(1.03831 -5.61631e-07 1.12826e-06)
(1.03831 4.14516e-08 1.33266e-06)
(1.03831 -4.73726e-07 1.26633e-06)
(1.03831 -7.44308e-08 1.17306e-06)
(1.03831 -3.27033e-07 1.36312e-06)
(1.03831 -1.46812e-07 1.13916e-06)
(1.03831 -2.64392e-07 1.3381e-06)
(1.03831 -1.78314e-07 1.23078e-06)
(1.03831 -1.78743e-07 1.26252e-06)
(1.03831 -2.51591e-07 1.33603e-06)
(1.03831 -9.72073e-08 1.21667e-06)
(1.03831 -3.23484e-07 1.38648e-06)
(1.03831 2.27237e-09 1.20483e-06)
(1.03831 -4.64502e-07 1.36951e-06)
(1.03831 2.09461e-07 1.2891e-06)
(1.03831 -5.75579e-07 1.25331e-06)
(1.03831 4.83411e-07 2.07249e-06)
(1.03831 -8.29493e-08 1.74127e-06)
(1.03831 2.77713e-07 2.11425e-06)
(1.03831 2.68147e-07 1.71117e-06)
(1.03831 1.62386e-07 1.99579e-06)
(1.03831 2.95275e-07 1.74024e-06)
(1.03831 3.65595e-07 1.80271e-06)
(1.03831 9.27891e-08 1.8282e-06)
(1.03831 4.85967e-07 1.64819e-06)
(1.03831 1.81811e-07 1.86105e-06)
(1.03831 1.82294e-07 1.64655e-06)
(1.03831 5.24452e-07 1.79314e-06)
(1.03831 -2.01625e-07 1.7203e-06)
(1.03831 6.56693e-07 1.77133e-06)
(1.03831 -2.6838e-07 1.71238e-06)
(1.03831 3.216e-07 1.84816e-06)
(1.03831 1.5429e-07 1.68858e-06)
(1.03831 -4.12926e-07 1.90754e-06)
(1.03831 6.95258e-07 1.71921e-06)
(1.03831 -8.32414e-07 1.96713e-06)
(1.03831 6.33005e-07 1.70758e-06)
(1.03831 -5.03637e-07 2.05071e-06)
(1.03831 8.74448e-08 1.67558e-06)
(1.03831 6.40745e-08 2.03263e-06)
(1.03831 -3.05411e-07 1.7278e-06)
(1.03831 3.03251e-07 1.90644e-06)
(1.03831 -2.76017e-07 1.8371e-06)
(1.03831 1.73064e-07 1.76963e-06)
(1.03831 -3.94546e-08 1.95775e-06)
(1.03831 -1.3187e-09 1.70522e-06)
(1.03831 1.29749e-07 1.99585e-06)
(1.03831 -8.82546e-08 1.75605e-06)
(1.03831 2.22177e-07 1.93164e-06)
(1.03831 -1.33242e-07 1.88418e-06)
(1.03831 2.34789e-07 1.82726e-06)
(1.03831 -1.32781e-07 2.00166e-06)
(1.03831 2.54844e-07 1.77243e-06)
(1.03831 -2.06595e-07 2.01007e-06)
(1.03831 4.1961e-07 1.88182e-06)
(1.03831 -2.88509e-07 1.86419e-06)
(1.03831 8.81288e-07 2.72093e-06)
(1.03831 2.47918e-07 2.44522e-06)
(1.03831 7.596e-07 2.73308e-06)
(1.03831 5.40059e-07 2.41807e-06)
(1.03831 6.71238e-07 2.57213e-06)
(1.03831 5.81688e-07 2.44263e-06)
(1.03831 8.39821e-07 2.35521e-06)
(1.03831 3.91333e-07 2.51995e-06)
(1.03831 9.70157e-07 2.19469e-06)
(1.03831 4.14164e-07 2.5453e-06)
(1.03831 7.27758e-07 2.19386e-06)
(1.03831 6.8571e-07 2.47309e-06)
(1.03831 3.58285e-07 2.27122e-06)
(1.03831 8.10121e-07 2.45586e-06)
(1.03831 2.08895e-07 2.28434e-06)
(1.03831 5.49922e-07 2.54179e-06)
(1.03831 4.76503e-07 2.2936e-06)
(1.03831 -8.14976e-08 2.61739e-06)
(1.03831 9.52033e-07 2.3562e-06)
(1.03831 -5.44339e-07 2.67139e-06)
(1.03831 1.01964e-06 2.39148e-06)
(1.03831 -3.6381e-07 2.71571e-06)
(1.03831 6.15444e-07 2.40091e-06)
(1.03831 1.80815e-07 2.68373e-06)
(1.03831 2.02566e-07 2.43107e-06)
(1.03831 5.03406e-07 2.58909e-06)
(1.03831 1.62096e-07 2.48696e-06)
(1.03831 4.15547e-07 2.47832e-06)
(1.03831 4.29971e-07 2.59866e-06)
(1.03831 2.11581e-07 2.38561e-06)
(1.03831 6.79596e-07 2.67901e-06)
(1.03831 9.34363e-08 2.39722e-06)
(1.03831 7.86198e-07 2.63454e-06)
(1.03831 6.45431e-08 2.53355e-06)
(1.03831 7.45219e-07 2.49797e-06)
(1.03831 1.06566e-07 2.69934e-06)
(1.03831 6.9243e-07 2.41167e-06)
(1.03831 1.03314e-07 2.72898e-06)
(1.03831 8.01234e-07 2.52594e-06)
(1.03831 7.58327e-08 2.5705e-06)
(1.03831 1.47799e-06 3.42293e-06)
(1.03831 5.93374e-07 3.26536e-06)
(1.03831 1.45741e-06 3.38982e-06)
(1.03831 7.96613e-07 3.22101e-06)
(1.03831 1.39996e-06 3.1771e-06)
(1.03831 8.54427e-07 3.21948e-06)
(1.03831 1.4906e-06 2.943e-06)
(1.03831 6.99394e-07 3.27698e-06)
(1.03831 1.6068e-06 2.79333e-06)
(1.03831 6.51263e-07 3.29332e-06)
(1.03831 1.46071e-06 2.80191e-06)
(1.03831 7.89953e-07 3.22886e-06)
(1.03831 1.13442e-06 2.8913e-06)
(1.03831 8.54969e-07 3.22493e-06)
(1.03831 8.89791e-07 2.9183e-06)
(1.03831 6.83303e-07 3.30808e-06)
(1.03831 9.52406e-07 2.94582e-06)
(1.03831 2.38977e-07 3.38781e-06)
(1.03831 1.30573e-06 3.03222e-06)
(1.03831 -1.88367e-07 3.4351e-06)
(1.03831 1.512e-06 3.11393e-06)
(1.03831 -1.58845e-07 3.45385e-06)
(1.03831 1.31735e-06 3.16682e-06)
(1.03831 2.92217e-07 3.41946e-06)
(1.03831 9.41494e-07 3.16933e-06)
(1.03831 6.67367e-07 3.35189e-06)
(1.03831 8.25875e-07 3.16003e-06)
(1.03831 6.78401e-07 3.27221e-06)
(1.03831 1.06283e-06 3.25689e-06)
(1.03831 5.07583e-07 3.17414e-06)
(1.03831 1.34683e-06 3.37085e-06)
(1.03831 3.83237e-07 3.15516e-06)
(1.03831 1.4695e-06 3.3629e-06)
(1.03831 3.51734e-07 3.3035e-06)
(1.03831 1.40097e-06 3.23548e-06)
(1.03831 3.93042e-07 3.50852e-06)
(1.03831 1.30814e-06 3.14625e-06)
(1.03831 4.41782e-07 3.55599e-06)
(1.03831 1.37213e-06 3.25167e-06)
(1.03831 4.7398e-07 3.39259e-06)
(1.03831 2.23606e-06 4.17596e-06)
(1.03831 7.97666e-07 4.19648e-06)
(1.03831 2.31773e-06 4.111e-06)
(1.03831 8.96348e-07 4.14493e-06)
(1.03831 2.28674e-06 3.8644e-06)
(1.03831 9.57928e-07 4.11231e-06)
(1.03831 2.28982e-06 3.61168e-06)
(1.03831 8.71465e-07 4.13078e-06)
(1.03831 2.37557e-06 3.46678e-06)
(1.03831 7.68914e-07 4.13466e-06)
(1.03831 2.32084e-06 3.49519e-06)
(1.03831 7.59765e-07 4.08762e-06)
(1.03831 2.04822e-06 3.60499e-06)
(1.03831 7.30597e-07 4.10961e-06)
(1.03831 1.71291e-06 3.65627e-06)
(1.03831 6.16191e-07 4.20662e-06)
(1.03831 1.55208e-06 3.71302e-06)
(1.03831 3.50532e-07 4.29829e-06)
(1.03831 1.7615e-06 3.82404e-06)
(1.03831 5.0884e-09 4.35309e-06)
(1.03831 2.11369e-06 3.9505e-06)
(1.03831 -9.7465e-08 4.36221e-06)
(1.03831 2.14441e-06 4.03005e-06)
(1.03831 2.07316e-07 4.31669e-06)
(1.03831 1.84747e-06 3.98206e-06)
(1.03831 6.13941e-07 4.25502e-06)
(1.03831 1.6903e-06 3.9054e-06)
(1.03831 7.62936e-07 4.20588e-06)
(1.03831 1.87284e-06 3.98794e-06)
(1.03831 6.78882e-07 4.11734e-06)
(1.03831 2.16326e-06 4.12599e-06)
(1.03831 5.77188e-07 4.07531e-06)
(1.03831 2.29429e-06 4.15197e-06)
(1.03831 5.42256e-07 4.21691e-06)
(1.03831 2.22471e-06 4.04961e-06)
(1.03831 5.67264e-07 4.43089e-06)
(1.03831 2.11182e-06 3.9563e-06)
(1.03831 6.45428e-07 4.47206e-06)
(1.03831 2.12088e-06 4.03398e-06)
(1.03831 7.28952e-07 4.309e-06)
(1.03831 2.96315e-06 5.0645e-06)
(1.03831 4.32766e-07 5.3768e-06)
(1.03831 3.1189e-06 4.94965e-06)
(1.03831 4.23075e-07 5.30395e-06)
(1.03831 3.11643e-06 4.67336e-06)
(1.03831 4.9235e-07 5.25087e-06)
(1.03831 3.0574e-06 4.42444e-06)
(1.03831 5.00597e-07 5.24864e-06)
(1.03831 3.10855e-06 4.30048e-06)
(1.03831 3.56659e-07 5.25066e-06)
(1.03831 3.09716e-06 4.35181e-06)
(1.03831 1.81891e-07 5.21692e-06)
(1.03831 2.84737e-06 4.46452e-06)
(1.03831 4.09617e-08 5.25553e-06)
(1.03831 2.43217e-06 4.54541e-06)
(1.03831 -2.95201e-08 5.38202e-06)
(1.03831 2.07264e-06 4.64867e-06)
(1.03831 -1.22358e-07 5.50296e-06)
(1.03831 2.13477e-06 4.7921e-06)
(1.03831 -3.74194e-07 5.57757e-06)
(1.03831 2.60529e-06 4.95308e-06)
(1.03831 -5.75077e-07 5.57601e-06)
(1.03831 2.86246e-06 5.03199e-06)
(1.03831 -3.92601e-07 5.49871e-06)
(1.03831 2.7032e-06 4.91916e-06)
(1.03831 5.80187e-08 5.42819e-06)
(1.03831 2.55269e-06 4.77772e-06)
(1.03831 3.62898e-07 5.39564e-06)
(1.03831 2.68991e-06 4.82917e-06)
(1.03831 3.9048e-07 5.30818e-06)
(1.03831 2.97993e-06 4.97799e-06)
(1.03831 3.21719e-07 5.25624e-06)
(1.03831 3.11595e-06 5.05291e-06)
(1.03831 2.56929e-07 5.40644e-06)
(1.03831 3.04597e-06 5.01375e-06)
(1.03831 2.31713e-07 5.63322e-06)
(1.03831 2.92127e-06 4.93665e-06)
(1.03831 3.08745e-07 5.65839e-06)
(1.03831 2.86607e-06 4.97392e-06)
(1.03831 4.21605e-07 5.48951e-06)
(1.03831 3.25969e-06 6.36594e-06)
(1.03831 -1.07759e-06 7.13784e-06)
(1.03831 3.44225e-06 6.19036e-06)
(1.03831 -1.1951e-06 7.03459e-06)
(1.03831 3.47686e-06 5.89264e-06)
(1.03831 -1.11684e-06 6.97171e-06)
(1.03831 3.36651e-06 5.66261e-06)
(1.03831 -1.03984e-06 6.96027e-06)
(1.03831 3.3744e-06 5.56251e-06)
(1.03831 -1.217e-06 6.95518e-06)
(1.03831 3.37071e-06 5.63594e-06)
(1.03831 -1.55824e-06 6.95169e-06)
(1.03831 3.12392e-06 5.76596e-06)
(1.03831 -1.80624e-06 7.02155e-06)
(1.03831 2.66366e-06 5.87772e-06)
(1.03831 -1.84365e-06 7.17901e-06)
(1.03831 2.14931e-06 6.02194e-06)
(1.03831 -1.7859e-06 7.33798e-06)
(1.03831 2.07458e-06 6.20889e-06)
(1.03831 -1.94417e-06 7.45851e-06)
(1.03831 2.62678e-06 6.4231e-06)
(1.03831 -2.19914e-06 7.47244e-06)
(1.03831 3.10966e-06 6.48921e-06)
(1.03831 -2.06366e-06 7.35664e-06)
(1.03831 3.14656e-06 6.30464e-06)
(1.03831 -1.54731e-06 7.25544e-06)
(1.03831 3.0433e-06 6.08678e-06)
(1.03831 -1.09107e-06 7.19504e-06)
(1.03831 3.13735e-06 6.0668e-06)
(1.03831 -9.5757e-07 7.07795e-06)
(1.03831 3.39652e-06 6.2143e-06)
(1.03831 -1.00721e-06 7.03824e-06)
(1.03831 3.50494e-06 6.36106e-06)
(1.03831 -1.1206e-06 7.20847e-06)
(1.03831 3.41968e-06 6.39408e-06)
(1.03831 -1.2183e-06 7.44091e-06)
(1.03831 3.30167e-06 6.35394e-06)
(1.03831 -1.13835e-06 7.45649e-06)
(1.03831 3.20916e-06 6.34644e-06)
(1.03831 -1.00316e-06 7.27264e-06)
(1.0383 2.22556e-06 8.61664e-06)
(1.0383 -4.83217e-06 1.00814e-05)
(1.0383 2.40807e-06 8.36318e-06)
(1.0383 -5.06312e-06 9.91259e-06)
(1.0383 2.44228e-06 8.0224e-06)
(1.0383 -5.01198e-06 9.86071e-06)
(1.0383 2.28038e-06 7.88052e-06)
(1.0383 -4.88815e-06 9.90204e-06)
(1.0383 2.23035e-06 7.8362e-06)
(1.0383 -5.09811e-06 9.88829e-06)
(1.0383 2.23528e-06 7.90328e-06)
(1.0383 -5.5441e-06 9.89832e-06)
(1.0383 2.02067e-06 8.04297e-06)
(1.0383 -5.86394e-06 9.98631e-06)
(1.0383 1.53639e-06 8.16284e-06)
(1.0383 -5.90205e-06 1.01759e-05)
(1.0383 8.86951e-07 8.36458e-06)
(1.0383 -5.75068e-06 1.0395e-05)
(1.0383 6.9714e-07 8.59887e-06)
(1.0383 -5.81172e-06 1.0559e-05)
(1.0383 1.30175e-06 8.85942e-06)
(1.0383 -6.08859e-06 1.06044e-05)
(1.0383 1.97687e-06 8.91426e-06)
(1.0383 -5.96086e-06 1.04509e-05)
(1.0383 2.21874e-06 8.64501e-06)
(1.0383 -5.38255e-06 1.03144e-05)
(1.0383 2.18465e-06 8.36503e-06)
(1.0383 -4.8013e-06 1.02145e-05)
(1.0383 2.28345e-06 8.25069e-06)
(1.0383 -4.51864e-06 1.00267e-05)
(1.0383 2.55739e-06 8.37955e-06)
(1.0383 -4.5264e-06 1.00226e-05)
(1.0383 2.61018e-06 8.6157e-06)
(1.0383 -4.72269e-06 1.02125e-05)
(1.0383 2.47515e-06 8.70454e-06)
(1.0383 -4.90855e-06 1.04265e-05)
(1.0383 2.36184e-06 8.71006e-06)
(1.0383 -4.82297e-06 1.04493e-05)
(1.0383 2.25338e-06 8.67393e-06)
(1.0383 -4.67383e-06 1.02449e-05)
(1.0383 -1.56254e-06 1.25499e-05)
(1.0383 -1.2429e-05 1.50179e-05)
(1.0383 -1.3839e-06 1.22418e-05)
(1.0383 -1.27494e-05 1.47646e-05)
(1.0383 -1.35083e-06 1.18419e-05)
(1.0383 -1.27434e-05 1.47774e-05)
(1.0383 -1.56865e-06 1.18897e-05)
(1.0383 -1.26211e-05 1.49367e-05)
(1.0383 -1.70892e-06 1.18848e-05)
(1.0383 -1.2891e-05 1.48572e-05)
(1.0383 -1.74317e-06 1.19513e-05)
(1.0383 -1.34163e-05 1.49468e-05)
(1.0383 -1.92374e-06 1.21327e-05)
(1.0383 -1.38098e-05 1.50305e-05)
(1.0383 -2.41018e-06 1.22254e-05)
(1.0383 -1.38514e-05 1.5267e-05)
(1.0383 -3.13786e-06 1.2553e-05)
(1.0383 -1.36141e-05 1.56003e-05)
(1.0383 -3.42589e-06 1.28375e-05)
(1.0383 -1.35907e-05 1.57782e-05)
(1.0383 -2.77177e-06 1.31367e-05)
(1.0383 -1.38241e-05 1.58802e-05)
(1.0383 -1.91319e-06 1.31683e-05)
(1.0383 -1.36843e-05 1.56266e-05)
(1.0383 -1.51035e-06 1.27316e-05)
(1.0383 -1.30763e-05 1.54291e-05)
(1.0383 -1.4778e-06 1.24114e-05)
(1.0383 -1.23819e-05 1.52658e-05)
(1.0383 -1.31829e-06 1.21383e-05)
(1.0383 -1.1914e-05 1.49453e-05)
(1.0383 -9.54346e-07 1.22379e-05)
(1.0383 -1.18241e-05 1.50323e-05)
(1.0383 -9.49549e-07 1.25941e-05)
(1.0383 -1.21295e-05 1.52161e-05)
(1.0383 -1.18116e-06 1.27111e-05)
(1.0383 -1.24307e-05 1.54371e-05)
(1.0383 -1.30228e-06 1.28121e-05)
(1.0383 -1.23694e-05 1.54648e-05)
(1.0383 -1.46065e-06 1.2694e-05)
(1.0383 -1.2222e-05 1.51749e-05)
(1.03827 -1.02331e-05 1.91064e-05)
(1.03827 -2.61609e-05 2.2913e-05)
(1.03827 -1.0066e-05 1.87416e-05)
(1.03827 -2.65659e-05 2.25009e-05)
(1.03827 -1.0026e-05 1.82837e-05)
(1.03827 -2.65558e-05 2.27201e-05)
(1.03827 -1.02508e-05 1.8706e-05)
(1.03827 -2.64421e-05 2.30781e-05)
(1.03827 -1.04767e-05 1.86891e-05)
(1.03827 -2.67487e-05 2.28697e-05)
(1.03827 -1.05513e-05 1.87628e-05)
(1.03826 -2.73391e-05 2.30933e-05)
(1.03827 -1.07281e-05 1.9e-05)
(1.03826 -2.7816e-05 2.30737e-05)
(1.03827 -1.12137e-05 1.89847e-05)
(1.03826 -2.78392e-05 2.34237e-05)
(1.03827 -1.19676e-05 1.95704e-05)
(1.03827 -2.7547e-05 2.39495e-05)
(1.03827 -1.236e-05 1.98814e-05)
(1.03827 -2.74563e-05 2.40917e-05)
(1.03827 -1.16448e-05 2.02255e-05)
(1.03827 -2.75628e-05 2.43135e-05)
(1.03827 -1.0603e-05 2.02199e-05)
(1.03827 -2.74104e-05 2.38544e-05)
(1.03827 -1.00762e-05 1.95222e-05)
(1.03827 -2.67884e-05 2.35871e-05)
(1.03827 -9.94512e-06 1.92191e-05)
(1.03827 -2.59959e-05 2.3336e-05)
(1.03827 -9.71586e-06 1.86688e-05)
(1.03827 -2.5352e-05 2.27651e-05)
(1.03827 -9.2742e-06 1.87355e-05)
(1.03827 -2.52178e-05 2.30068e-05)
(1.03827 -9.34623e-06 1.92091e-05)
(1.03827 -2.56355e-05 2.3105e-05)
(1.03827 -9.65834e-06 1.92803e-05)
(1.03827 -2.59972e-05 2.33757e-05)
(1.03827 -9.74331e-06 1.95839e-05)
(1.03827 -2.6006e-05 2.34419e-05)
(1.03827 -1.0057e-05 1.93097e-05)
(1.03827 -2.59491e-05 2.29925e-05)
(1.03815 -2.58044e-05 2.88669e-05)
(1.03813 -4.81247e-05 3.43502e-05)
(1.03815 -2.56858e-05 2.84007e-05)
(1.03813 -4.86703e-05 3.3717e-05)
(1.03815 -2.56965e-05 2.79778e-05)
(1.03813 -4.86456e-05 3.43823e-05)
(1.03815 -2.58606e-05 2.8943e-05)
(1.03813 -4.85303e-05 3.49201e-05)
(1.03815 -2.61851e-05 2.8795e-05)
(1.03813 -4.88881e-05 3.45582e-05)
(1.03815 -2.6249e-05 2.90088e-05)
(1.03813 -4.94499e-05 3.49721e-05)
(1.03815 -2.64141e-05 2.91789e-05)
(1.03813 -5.00207e-05 3.46789e-05)
(1.03815 -2.6982e-05 2.9043e-05)
(1.03813 -5.01101e-05 3.5259e-05)
(1.03815 -2.77752e-05 2.99736e-05)
(1.03813 -4.98352e-05 3.59239e-05)
(1.03815 -2.82347e-05 3.02157e-05)
(1.03813 -4.96264e-05 3.60256e-05)
(1.03815 -2.74053e-05 3.07192e-05)
(1.03813 -4.95318e-05 3.64217e-05)
(1.03815 -2.62247e-05 3.05731e-05)
(1.03813 -4.94202e-05 3.55894e-05)
(1.03815 -2.56404e-05 2.95851e-05)
(1.03813 -4.87833e-05 3.5361e-05)
(1.03815 -2.53679e-05 2.93496e-05)
(1.03813 -4.7842e-05 3.49081e-05)
(1.03815 -2.49576e-05 2.83104e-05)
(1.03813 -4.69249e-05 3.39978e-05)
(1.03815 -2.43703e-05 2.83865e-05)
(1.03813 -4.67801e-05 3.44375e-05)
(1.03815 -2.46217e-05 2.88647e-05)
(1.03813 -4.73814e-05 3.43019e-05)
(1.03815 -2.49663e-05 2.88671e-05)
(1.03813 -4.76791e-05 3.47481e-05)
(1.03815 -2.49563e-05 2.94649e-05)
(1.03813 -4.77956e-05 3.48143e-05)
(1.03815 -2.55052e-05 2.89448e-05)
(1.03813 -4.79111e-05 3.4225e-05)
(1.03771 -4.97219e-05 4.15819e-05)
(1.03766 -7.9734e-05 4.88476e-05)
(1.03771 -4.97249e-05 4.08562e-05)
(1.03766 -8.03144e-05 4.81167e-05)
(1.03771 -4.96707e-05 4.08322e-05)
(1.03766 -8.01573e-05 4.95038e-05)
(1.03771 -4.97285e-05 4.22864e-05)
(1.03766 -8.00675e-05 5.00043e-05)
(1.03771 -5.01576e-05 4.19808e-05)
(1.03766 -8.04404e-05 4.97182e-05)
(1.03771 -5.01447e-05 4.24576e-05)
(1.03766 -8.08577e-05 5.01644e-05)
(1.03771 -5.02717e-05 4.2256e-05)
(1.03766 -8.15314e-05 4.9504e-05)
(1.03771 -5.0938e-05 4.2195e-05)
(1.03766 -8.17961e-05 5.04386e-05)
(1.03771 -5.18604e-05 4.33378e-05)
(1.03767 -8.16359e-05 5.10319e-05)
(1.03771 -5.24144e-05 4.35054e-05)
(1.03767 -8.13127e-05 5.13174e-05)
(1.03771 -5.14947e-05 4.43147e-05)
(1.03767 -8.10387e-05 5.16945e-05)
(1.03772 -5.02991e-05 4.37137e-05)
(1.03767 -8.09985e-05 5.04606e-05)
(1.03772 -4.96949e-05 4.26727e-05)
(1.03767 -8.03512e-05 5.04302e-05)
(1.03772 -4.9344e-05 4.2339e-05)
(1.03767 -7.93057e-05 4.94401e-05)
(1.03772 -4.86856e-05 4.0728e-05)
(1.03767 -7.80251e-05 4.83044e-05)
(1.03772 -4.78852e-05 4.08601e-05)
(1.03767 -7.79186e-05 4.87364e-05)
(1.03771 -4.84044e-05 4.11035e-05)
(1.03767 -7.87401e-05 4.83858e-05)
(1.03771 -4.86833e-05 4.13123e-05)
(1.03767 -7.89321e-05 4.91998e-05)
(1.03771 -4.86227e-05 4.20767e-05)
(1.03767 -7.92483e-05 4.9029e-05)
(1.03771 -4.93662e-05 4.13069e-05)
(1.03767 -7.94691e-05 4.85996e-05)
(1.03646 -8.1148e-05 5.61968e-05)
(1.03632 -0.000120093 6.52005e-05)
(1.03646 -8.14098e-05 5.51604e-05)
(1.03632 -0.00012062 6.49996e-05)
(1.03646 -8.11051e-05 5.60947e-05)
(1.03632 -0.00012018 6.7077e-05)
(1.03646 -8.11109e-05 5.7523e-05)
(1.03632 -0.000120155 6.73439e-05)
(1.03646 -8.15831e-05 5.74214e-05)
(1.03632 -0.000120428 6.75269e-05)
(1.03646 -8.1468e-05 5.80254e-05)
(1.03632 -0.000120786 6.74497e-05)
(1.03646 -8.17186e-05 5.72146e-05)
(1.03632 -0.000121685 6.67306e-05)
(1.03646 -8.24956e-05 5.75973e-05)
(1.03632 -0.000122073 6.77698e-05)
(1.03646 -8.35733e-05 5.83875e-05)
(1.03632 -0.000122153 6.80734e-05)
(1.03646 -8.42275e-05 5.88531e-05)
(1.03632 -0.000121634 6.89077e-05)
(1.03646 -8.32566e-05 5.97659e-05)
(1.03632 -0.000121321 6.86684e-05)
(1.03646 -8.22453e-05 5.84962e-05)
(1.03632 -0.000121315 6.74322e-05)
(1.03646 -8.14607e-05 5.78616e-05)
(1.03632 -0.000120593 6.74522e-05)
(1.03646 -8.11184e-05 5.6799e-05)
(1.03632 -0.00011953 6.56499e-05)
(1.03646 -8.00319e-05 5.49261e-05)
(1.03632 -0.000117651 6.4651e-05)
(1.03646 -7.89348e-05 5.49229e-05)
(1.03632 -0.000117744 6.45351e-05)
(1.03646 -7.98222e-05 5.47649e-05)
(1.03632 -0.000118622 6.44904e-05)
(1.03646 -7.99051e-05 5.57859e-05)
(1.03632 -0.00011878 6.56117e-05)
(1.03646 -8.00619e-05 5.62261e-05)
(1.03632 -0.000119577 6.50432e-05)
(1.03646 -8.08672e-05 5.56596e-05)
(1.03632 -0.000119626 6.52621e-05)
(1.03342 -0.000115952 7.58461e-05)
(1.03308 -0.000164329 8.67122e-05)
(1.03342 -0.000116579 7.50764e-05)
(1.03308 -0.000164812 8.78382e-05)
(1.03342 -0.000115796 7.69716e-05)
(1.03308 -0.000164064 9.00078e-05)
(1.03342 -0.00011578 7.79656e-05)
(1.03308 -0.000164031 9.04284e-05)
(1.03342 -0.000116142 7.85593e-05)
(1.03309 -0.000164055 9.09553e-05)
(1.03342 -0.000115942 7.85845e-05)
(1.03309 -0.000164522 8.99825e-05)
(1.03342 -0.000116309 7.74654e-05)
(1.03309 -0.000165488 8.97054e-05)
(1.03342 -0.000117046 7.80578e-05)
(1.03309 -0.000166139 9.00819e-05)
(1.03342 -0.000118561 7.81191e-05)
(1.03309 -0.000166546 9.04059e-05)
(1.03342 -0.000119253 7.9445e-05)
(1.03309 -0.000165929 9.17325e-05)
(1.03342 -0.000118432 7.98161e-05)
(1.03309 -0.000165785 9.05068e-05)
(1.03342 -0.000117889 7.84303e-05)
(1.03309 -0.000165741 9.00814e-05)
(1.03342 -0.000116999 7.81972e-05)
(1.03309 -0.00016524 8.94224e-05)
(1.03342 -0.000116888 7.59867e-05)
(1.03309 -0.000164069 8.71891e-05)
(1.03342 -0.000114912 7.44106e-05)
(1.03309 -0.000161309 8.62471e-05)
(1.03342 -0.000113597 7.37009e-05)
(1.03309 -0.000161653 8.5271e-05)
(1.03342 -0.00011477 7.3623e-05)
(1.03309 -0.000162145 8.62203e-05)
(1.03342 -0.000114073 7.55256e-05)
(1.03309 -0.000162184 8.70929e-05)
(1.03342 -0.00011477 7.54361e-05)
(1.03309 -0.000163755 8.66473e-05)
(1.03342 -0.000115644 7.57819e-05)
(1.03308 -0.000163426 8.74224e-05)
(1.02714 -0.000147932 0.000113059)
(1.02647 -0.000206495 0.000125965)
(1.02714 -0.000148544 0.000113272)
(1.02647 -0.000206505 0.000128429)
(1.02714 -0.000147498 0.000115679)
(1.02647 -0.000205832 0.000130722)
(1.02714 -0.000147591 0.000116853)
(1.02647 -0.00020567 0.000131967)
(1.02714 -0.0001477 0.000118068)
(1.02647 -0.00020561 0.000132332)
(1.02714 -0.000147511 0.000117247)
(1.02647 -0.000206276 0.000130867)
(1.02714 -0.000147903 0.000116127)
(1.02647 -0.000206826 0.000130673)
(1.02714 -0.000148379 0.000115933)
(1.02647 -0.000207868 0.000130023)
(1.02715 -0.000150367 0.000115639)
(1.02647 -0.000208661 0.000130822)
(1.02715 -0.000151006 0.000117863)
(1.02647 -0.000208172 0.000131892)
(1.02715 -0.000150536 0.000117373)
(1.02647 -0.000208332 0.000130181)
(1.02715 -0.000150375 0.000116724)
(1.02647 -0.000207998 0.000130691)
(1.02715 -0.000149665 0.000116269)
(1.02647 -0.000208145 0.000129162)
(1.02715 -0.000150266 0.000113391)
(1.02647 -0.000206453 0.000127031)
(1.02714 -0.000146958 0.000111916)
(1.02647 -0.00020294 0.000125305)
(1.02714 -0.000146034 0.000110113)
(1.02647 -0.000203578 0.00012393)
(1.02714 -0.000147318 0.000110774)
(1.02647 -0.000203043 0.000125741)
(1.02714 -0.000145581 0.000112703)
(1.02647 -0.000203144 0.000126157)
(1.02714 -0.000146976 0.000112694)
(1.02647 -0.000205355 0.000126406)
(1.02714 -0.00014742 0.000113853)
(1.02647 -0.000205114 0.000126946)
(1.01577 -0.00017238 0.000192538)
(1.01459 -0.000239729 0.000207295)
(1.01577 -0.000172167 0.000194219)
(1.01459 -0.000238411 0.000211317)
(1.01577 -0.000169979 0.000197456)
(1.01459 -0.000237651 0.000214258)
(1.01577 -0.000170266 0.0001995)
(1.01459 -0.00023734 0.000216705)
(1.01577 -0.000170243 0.000201266)
(1.01459 -0.000236723 0.00021694)
(1.01577 -0.000169609 0.000199778)
(1.01459 -0.000237677 0.000215179)
(1.01577 -0.000170411 0.000198553)
(1.01459 -0.000238338 0.000214487)
(1.01577 -0.000170936 0.000196694)
(1.01459 -0.000240295 0.000212725)
(1.01577 -0.000173424 0.000195911)
(1.01459 -0.000241779 0.000214066)
(1.01577 -0.000174203 0.000198664)
(1.01459 -0.000241409 0.00021478)
(1.01578 -0.000174897 0.000197729)
(1.01459 -0.000242545 0.000213009)
(1.01578 -0.000174654 0.000198456)
(1.01459 -0.000241181 0.000213998)
(1.01577 -0.000174417 0.000197318)
(1.01459 -0.000242334 0.000211567)
(1.01577 -0.000176103 0.000193736)
(1.01459 -0.000239527 0.000209771)
(1.01577 -0.000170623 0.000191753)
(1.01459 -0.000235309 0.000206837)
(1.01577 -0.000169974 0.000188786)
(1.01459 -0.000236552 0.000205103)
(1.01577 -0.000171459 0.000190186)
(1.01459 -0.000234273 0.000207286)
(1.01577 -0.000168925 0.000191932)
(1.01459 -0.000234561 0.000207231)
(1.01577 -0.000171473 0.000192172)
(1.01459 -0.00023712 0.000208229)
(1.01577 -0.000171068 0.000193918)
(1.01459 -0.000237518 0.0002082)
(0.997247 -0.000179791 0.000351285)
(0.995404 -0.000256024 0.000368622)
(0.997249 -0.000178347 0.000358028)
(0.995405 -0.000252344 0.000375267)
(0.997249 -0.000174844 0.000361734)
(0.995404 -0.000252523 0.000377814)
(0.997248 -0.000176045 0.000364367)
(0.995403 -0.000252368 0.000381843)
(0.997248 -0.000175923 0.000366451)
(0.995403 -0.00025128 0.000380562)
(0.997251 -0.00017534 0.000362625)
(0.995403 -0.000252664 0.000378757)
(0.997252 -0.000175918 0.000362475)
(0.995405 -0.000252777 0.000377603)
(0.997252 -0.000176276 0.000358036)
(0.995408 -0.000254622 0.000373711)
(0.997253 -0.000179921 0.000356978)
(0.995412 -0.000256673 0.000377125)
(0.997256 -0.000179603 0.000360597)
(0.995412 -0.000256238 0.00037703)
(0.997258 -0.000181403 0.000358135)
(0.995411 -0.000259461 0.000376718)
(0.99726 -0.000181181 0.000362928)
(0.995409 -0.000257333 0.00037857)
(0.997257 -0.000181326 0.000360311)
(0.995408 -0.000260483 0.000372588)
(0.997256 -0.000184459 0.000356086)
(0.995411 -0.000256229 0.000372049)
(0.997256 -0.000176813 0.00035371)
(0.99541 -0.000250918 0.000366835)
(0.997254 -0.000175957 0.000347634)
(0.995407 -0.000253216 0.000364864)
(0.997251 -0.000177089 0.000350372)
(0.995405 -0.000249069 0.000367259)
(0.997248 -0.000174286 0.000350188)
(0.995403 -0.00024987 0.000365354)
(0.997246 -0.000178584 0.000350927)
(0.995403 -0.000251732 0.000369117)
(0.997246 -0.000176881 0.000353786)
(0.995403 -0.00025299 0.000367896)
(0.969514 -0.000176715 0.000641833)
(0.966899 -0.000257157 0.000660058)
(0.969514 -0.000173842 0.000658475)
(0.966896 -0.000251668 0.000668778)
(0.96951 -0.000167738 0.000655432)
(0.966895 -0.000250293 0.000662126)
(0.969504 -0.000168168 0.000656987)
(0.966889 -0.000251524 0.000667656)
(0.969501 -0.000169221 0.000657999)
(0.966892 -0.000249712 0.000657586)
(0.96951 -0.000170354 0.000647659)
(0.966899 -0.0002535 0.000661246)
(0.969518 -0.000172558 0.000655028)
(0.966903 -0.00025327 0.000660938)
(0.969522 -0.000173083 0.000643227)
(0.966911 -0.000258197 0.00065156)
(0.969527 -0.000177915 0.000646984)
(0.966918 -0.000260872 0.000664104)
(0.969531 -0.000176873 0.00065396)
(0.966922 -0.000261732 0.000657893)
(0.969534 -0.000179879 0.000646062)
(0.966921 -0.000265785 0.000662523)
(0.969534 -0.000180327 0.000661022)
(0.966915 -0.000262808 0.000667405)
(0.969536 -0.000181497 0.000648367)
(0.966918 -0.000268586 0.000656149)
(0.96954 -0.00018564 0.000649032)
(0.966924 -0.000261385 0.000665055)
(0.96954 -0.000175427 0.000647627)
(0.966926 -0.000255615 0.000649941)
(0.969536 -0.000173909 0.000635278)
(0.966919 -0.00025911 0.00065097)
(0.969528 -0.000173883 0.000647094)
(0.96691 -0.000251814 0.000653718)
(0.969519 -0.000171035 0.000640396)
(0.966901 -0.000252897 0.000647597)
(0.969513 -0.000176388 0.000643681)
(0.9669 -0.000252581 0.00066031)
(0.969509 -0.0001726 0.000649468)
(0.966898 -0.000252891 0.000653469)
(0.930605 -0.000184904 0.00109911)
(0.927213 -0.0002724 0.00111652)
(0.930596 -0.000180964 0.00113503)
(0.927198 -0.00026572 0.0011215)
(0.930592 -0.000177988 0.00110033)
(0.927196 -0.000267109 0.00108603)
(0.930588 -0.000176362 0.00110228)
(0.927189 -0.000269487 0.00111003)
(0.930589 -0.000179804 0.00110054)
(0.927204 -0.000267029 0.00106953)