/*--------------------------------*- C++ -*----------------------------------*\
  =========                 |
  \\      /  F ield         | OpenFOAM: The Open Source CFD Toolbox
   \\    /   O peration     | Website:  https://openfoam.org
    \\  /    A nd           | Version:  10
     \\/     M anipulation  |
\*---------------------------------------------------------------------------*/
FoamFile
{
    format      ascii;
    class       volScalarField;
    location    "35";
    object      nut;
}
// * * * * * * * * * * * * * * * * * * * * * * * * * * * * * * * * * * * * * //

dimensions      [0 2 -1 0 0 0 0];

internalField   nonuniform List<scalar> 
25600
(
4.662e-10
4.06697e-09
2.8564e-13
5.65829e-13
5.58183e-09
2.58733e-12
3.14376e-13
5.54881e-13
2.49536e-13
9.38038e-10
7.39961e-10
4.40154e-14
1.20935e-12
1.79965e-12
1.90005e-09
2.05539e-13
2.73331e-13
7.75786e-14
1.39639e-12
4.33824e-13
6.38191e-09
3.18091e-09
6.56919e-13
3.65187e-09
4.65925e-10
7.19114e-13
1.47309e-09
3.2524e-13
4.23307e-09
6.1595e-13
6.7516e-13
3.22653e-09
2.66161e-13
3.86596e-13
2.33348e-09
9.26451e-10
7.67401e-13
3.47456e-09
6.00783e-09
9.53883e-09
2.34387e-13
1.23276e-12
1.15999e-09
1.17209e-09
8.03122e-14
1.80889e-13
1.56392e-09
2.30863e-09
1.58917e-09
2.58933e-09
3.14144e-13
2.52783e-13
1.98465e-09
9.76048e-10
3.79144e-13
1.2471e-12
1.86336e-09
5.24898e-10
1.17358e-09
1.77946e-13
2.72257e-13
1.03733e-11
8.73254e-14
1.11473e-09
4.26716e-11
1.40423e-12
5.61948e-13
2.81422e-09
8.24345e-10
3.38865e-13
1.91122e-13
4.75344e-13
4.40464e-13
4.74579e-13
8.20741e-14
1.28728e-09
1.87082e-09
1.14367e-13
2.639e-12
2.99971e-10
2.93408e-09
1.40903e-11
7.77301e-10
1.81825e-11
1.86717e-13
1.31425e-13
3.26529e-13
2.08243e-12
1.66736e-09
3.02292e-13
1.9242e-13
3.83321e-09
5.85205e-10
6.61236e-13
1.93614e-11
3.37828e-09
3.94383e-09
5.90264e-13
1.15551e-13
2.47985e-13
1.61419e-09
1.0238e-09
1.4518e-10
2.55441e-13
5.74957e-10
1.43629e-09
3.99112e-10
6.89618e-13
4.1912e-13
5.94805e-10
3.69481e-12
5.99832e-10
2.4667e-09
3.82178e-10
1.10243e-12
8.34009e-12
1.98083e-13
6.17986e-13
3.13359e-09
1.00872e-09
8.05566e-13
8.94522e-10
2.28914e-09
2.24888e-13
2.8661e-13
2.85705e-12
1.03608e-09
1.55269e-09
5.30329e-12
3.47499e-09
1.13083e-13
1.44391e-13
1.04813e-09
6.57609e-12
3.9442e-13
1.42504e-09
1.16244e-12
6.29316e-13
1.09402e-09
4.72336e-13
3.68005e-12
4.46443e-12
9.48792e-12
3.06958e-09
2.86953e-12
6.57841e-13
5.94583e-13
2.97428e-13
3.20938e-09
7.21633e-13
1.37297e-12
2.19516e-09
1.82446e-13
2.53968e-10
3.22787e-10
1.58553e-09
2.33428e-09
2.15753e-09
9.75182e-13
4.02522e-13
1.13581e-09
3.00793e-13
3.31966e-12
4.19633e-10
6.90446e-11
2.35467e-13
8.17333e-10
2.34824e-09
3.91569e-12
1.01572e-12
6.51042e-13
1.9211e-09
1.30922e-09
4.38845e-13
7.58816e-13
7.36073e-10
2.19988e-13
3.41324e-10
4.17281e-13
2.05656e-13
3.09322e-09
2.12703e-09
3.94241e-13
2.10567e-13
2.81794e-11
1.14854e-09
1.16556e-10
1.45634e-09
5.3232e-13
8.24376e-14
3.11389e-09
2.69298e-13
5.14123e-13
1.45263e-09
1.13234e-09
4.02571e-12
5.76418e-13
1.67088e-10
8.8028e-10
3.63762e-10
3.4013e-13
1.47754e-13
3.08921e-09
2.24457e-13
1.50956e-13
1.43551e-09
3.23695e-09
2.87835e-10
3.15559e-13
3.0559e-13
2.72002e-12
1.25608e-13
4.69695e-10
1.36153e-09
1.6724e-09
8.87846e-13
5.2909e-13
2.99002e-10
2.22368e-12
2.83864e-09
2.37536e-09
6.21833e-13
2.86889e-13
2.15189e-14
7.99733e-10
3.22148e-12
2.18117e-11
1.44229e-10
3.38743e-12
2.73537e-10
6.53884e-11
3.11707e-10
1.47413e-09
4.73514e-13
4.44435e-13
2.0304e-13
1.89936e-09
3.36114e-09
6.16524e-10
3.64976e-10
2.37334e-13
4.0577e-10
8.16331e-13
3.96399e-13
9.47281e-10
1.84892e-09
3.25173e-13
5.29545e-10
3.57383e-12
5.8492e-10
3.2197e-09
2.69674e-11
1.11344e-10
2.0068e-09
1.04223e-09
8.66019e-13
5.65266e-13
3.431e-10
6.2675e-13
1.47031e-12
2.22671e-12
1.00118e-13
1.28555e-10
3.1464e-09
2.3337e-09
2.70414e-13
7.8973e-10
1.13274e-12
1.89782e-13
4.10029e-13
3.57266e-09
7.67056e-11
3.80099e-13
1.48837e-13
3.59863e-13
2.11103e-09
2.83468e-09
8.80934e-13
8.12629e-14
1.00737e-12
3.36343e-11
2.38744e-13
1.36545e-10
3.71149e-09
3.1711e-13
2.15953e-13
1.70785e-09
6.61645e-10
7.19759e-12
2.14178e-10
1.77616e-09
2.87111e-13
5.82264e-13
1.83292e-09
1.66784e-13
9.97305e-14
8.6903e-13
1.2982e-13
1.69198e-09
4.30142e-09
4.32776e-13
7.49154e-10
1.51366e-09
1.08922e-12
2.11621e-13
8.20896e-11
2.13444e-09
4.80556e-13
2.34163e-12
2.51351e-09
4.2258e-13
8.1455e-13
1.11234e-12
3.2514e-12
6.80913e-10
1.08028e-09
1.22546e-13
3.77509e-14
2.24825e-09
5.6058e-10
1.80233e-12
9.63153e-13
2.80616e-09
2.49689e-13
2.01931e-13
1.58552e-09
4.65004e-13
2.6184e-13
7.90013e-14
1.90227e-13
4.24548e-13
9.21099e-14
2.66739e-10
4.20874e-10
7.49915e-12
1.48598e-09
1.47594e-12
4.78342e-13
5.94664e-10
1.88317e-13
7.8455e-14
4.31129e-12
8.45737e-14
5.15433e-12
1.0282e-11
2.1599e-13
7.55234e-14
7.90146e-14
3.06315e-13
7.02486e-10
6.15176e-13
2.40901e-09
2.92952e-09
4.41874e-13
4.84788e-13
3.94614e-14
2.1364e-09
1.05872e-10
1.49766e-09
1.40579e-09
1.44145e-09
1.75804e-09
3.3875e-13
2.76028e-10
2.23826e-09
2.25448e-10
2.0568e-11
1.90859e-09
2.24537e-09
2.07622e-09
1.9701e-09
1.98996e-09
2.83394e-09
1.98948e-09
9.82975e-13
4.43856e-12
1.13436e-12
1.44614e-09
9.18488e-13
5.58841e-13
4.92759e-13
2.27399e-13
1.71708e-13
1.86367e-13
4.87755e-10
4.43801e-10
1.54832e-09
2.52702e-09
1.39903e-10
8.2364e-11
4.25717e-09
1.91392e-09
1.43801e-13
1.37775e-13
1.88093e-13
4.30863e-13
3.40511e-13
2.35735e-13
4.14177e-13
7.16198e-10
5.49498e-13
3.05225e-10
1.34766e-13
1.59831e-09
1.01901e-09
1.60926e-12
7.13544e-13
1.98398e-13
1.33288e-11
5.915e-13
3.38589e-12
5.05506e-13
7.21989e-14
1.19656e-13
1.65405e-09
1.47263e-09
1.00182e-12
1.00558e-11
1.7455e-09
4.85191e-09
3.58844e-12
3.07875e-13
2.40603e-09
1.19691e-09
1.07213e-11
1.42459e-12
2.43719e-10
3.6716e-11
1.1005e-09
5.98458e-13
3.94407e-14
3.81e-14
1.60814e-10
1.87305e-09
2.30042e-13
3.41827e-10
1.3087e-09
5.08224e-10
7.86163e-10
4.68331e-13
2.36553e-13
3.08289e-13
3.80842e-13
1.56925e-13
6.20969e-10
3.02105e-10
3.79905e-13
4.07386e-10
1.78618e-13
1.40991e-13
3.09581e-13
5.26415e-13
3.44791e-13
4.59319e-13
1.23219e-10
2.11026e-13
3.16685e-13
4.40723e-10
4.43089e-13
6.4914e-14
4.83563e-10
7.54337e-10
1.24818e-13
7.75977e-10
2.80515e-12
1.06191e-12
9.91436e-14
2.53917e-13
3.57229e-13
3.68193e-10
8.84954e-10
3.35965e-09
3.53601e-09
5.88412e-13
2.16502e-13
1.63233e-09
2.33481e-09
1.69319e-09
1.93163e-09
1.82332e-10
2.51039e-13
7.01625e-10
1.42459e-12
2.09145e-13
2.35041e-13
1.31769e-13
3.62678e-13
2.67312e-09
1.2249e-12
6.76167e-10
1.33327e-09
1.9421e-09
3.25203e-09
6.25428e-14
5.71928e-13
1.49061e-09
6.53468e-13
1.7655e-09
9.85977e-10
3.94416e-10
1.16043e-09
4.17e-14
5.12703e-13
5.99636e-13
8.17856e-13
1.48194e-09
1.72332e-09
1.83681e-09
2.56908e-09
1.76997e-09
8.84003e-10
2.1138e-12
2.75073e-13
3.51518e-13
7.02454e-13
5.37882e-12
1.20562e-13
4.32171e-13
1.01299e-09
1.10188e-10
1.43888e-09
1.94939e-10
3.54959e-10
1.3587e-10
5.83433e-10
2.24656e-09
3.83804e-13
1.88987e-13
9.24116e-13
5.56556e-10
2.34746e-09
2.66635e-09
1.24236e-12
1.2719e-09
3.51745e-09
9.7949e-13
1.00869e-10
6.4976e-10
6.54315e-10
8.33802e-11
7.03999e-13
1.58454e-09
1.18283e-09
9.21811e-13
6.01493e-10
2.65897e-13
1.63697e-13
2.38049e-13
3.16337e-13
1.98885e-11
2.19417e-13
2.38708e-13
2.42263e-09
2.29332e-13
1.24139e-13
1.8528e-10
1.83229e-09
5.94972e-13
1.89208e-13
2.99753e-13
4.08397e-12
1.20174e-12
1.55278e-13
1.28906e-13
4.93274e-10
2.27707e-12
3.0966e-13
1.67873e-09
9.16994e-10
4.896e-12
2.98377e-10
2.4445e-13
1.86107e-11
3.05806e-09
1.8992e-13
3.11182e-13
1.8908e-12
1.01822e-12
6.60472e-13
1.54726e-13
5.28423e-13
1.61722e-12
6.62638e-13
1.30782e-09
4.86188e-11
2.35932e-10
8.47422e-10
8.15433e-10
1.2103e-09
4.61511e-10
1.0453e-13
2.05107e-13
1.16027e-09
7.74354e-13
2.10876e-09
2.10622e-09
1.0208e-13
3.24402e-10
3.06436e-09
4.58799e-10
9.08658e-10
3.37184e-13
1.90116e-13
2.36798e-10
1.67183e-09
1.23196e-09
7.05529e-10
9.02349e-13
2.61167e-13
8.33865e-10
1.68623e-09
1.62545e-12
2.19693e-12
1.12999e-09
1.87191e-13
3.11912e-13
3.26093e-10
2.30033e-09
7.77429e-10
4.34107e-10
1.58869e-12
7.92701e-10
1.06844e-09
1.31601e-09
1.68785e-09
7.11992e-10
1.23174e-09
1.07851e-09
7.81734e-11
2.43545e-10
3.7188e-13
5.16252e-14
1.11293e-09
6.62612e-13
8.52552e-14
1.39319e-12
7.01795e-13
7.36492e-13
6.65518e-14
3.00526e-13
6.46646e-10
4.40769e-13
8.84591e-13
1.06363e-09
1.44258e-09
1.95923e-12
1.30196e-09
2.01795e-09
1.99974e-09
1.50638e-13
1.01017e-10
2.67937e-09
1.28309e-09
6.63077e-10
2.29677e-11
1.01376e-12
2.67685e-13
5.53321e-10
3.29385e-10
4.8727e-13
8.42876e-10
1.85058e-09
1.78363e-13
3.70681e-10
1.44003e-13
5.12121e-10
3.09829e-10
3.02283e-13
1.08073e-09
2.74322e-09
1.26649e-12
7.69416e-13
8.97631e-10
1.36119e-13
1.49269e-13
6.03699e-10
8.9271e-13
9.26345e-11
2.1193e-10
1.51205e-09
1.33025e-12
1.06091e-09
9.60012e-10
4.67253e-10
1.33094e-09
1.25869e-13
2.87618e-12
1.37384e-13
1.0674e-13
1.39998e-12
7.39028e-10
2.32125e-13
1.68883e-13
2.142e-11
4.41957e-09
1.75807e-09
3.33228e-10
1.83886e-09
8.03305e-10
5.83042e-11
4.23494e-10
8.48666e-11
1.72246e-09
1.01045e-09
1.51954e-13
1.32392e-09
3.51219e-13
1.11215e-09
8.45005e-10
8.76935e-10
1.58361e-13
3.95342e-13
9.18328e-10
4.7165e-10
6.71021e-10
2.38981e-09
1.97085e-09
1.36599e-09
2.0591e-13
2.13833e-13
2.67739e-13
1.71323e-09
4.71449e-10
8.68325e-13
1.79272e-09
3.2766e-10
8.88692e-14
1.43405e-10
2.3093e-13
2.51337e-10
5.93944e-13
1.02165e-12
5.48563e-10
2.21198e-13
1.08721e-09
9.09372e-13
3.31119e-12
1.74658e-09
7.18317e-13
3.04003e-13
9.55767e-10
2.4563e-13
1.93504e-12
9.07105e-10
4.28592e-13
2.39184e-13
8.96371e-13
1.51057e-09
2.06277e-12
6.2855e-13
8.30541e-14
1.07576e-12
1.10381e-09
8.83423e-14
5.80181e-10
3.90355e-10
4.7813e-10
6.43741e-10
1.804e-11
4.58338e-10
1.016e-10
2.68516e-12
6.93086e-13
1.94345e-10
1.80517e-09
2.19399e-09
1.51074e-09
2.5813e-09
1.09835e-09
8.35637e-10
1.17097e-12
1.56303e-09
5.37e-13
4.77483e-14
7.969e-10
1.41385e-12
7.56548e-13
5.84727e-12
1.37611e-12
3.26866e-13
2.38516e-10
2.31715e-09
6.28718e-11
3.2428e-14
9.69606e-15
6.49524e-10
1.09977e-10
7.57986e-10
1.2257e-09
8.56223e-12
7.58267e-14
8.52028e-13
7.37658e-10
7.32295e-14
2.19666e-12
7.90969e-10
1.04301e-10
5.0363e-14
1.25109e-09
7.63082e-10
2.40357e-11
1.06315e-11
3.38307e-10
2.00918e-12
1.59818e-09
1.4713e-09
7.9556e-13
1.67069e-09
1.10111e-09
3.14351e-12
4.19338e-10
2.23693e-09
3.91632e-10
2.13056e-12
1.29996e-09
9.44689e-10
4.18051e-13
1.99989e-09
1.51513e-10
1.21292e-09
1.15349e-09
8.11641e-10
1.26569e-09
3.72655e-09
1.71991e-11
8.13469e-14
1.47098e-09
2.56919e-09
9.47064e-12
1.36297e-09
9.86987e-10
6.26042e-10
7.92051e-11
3.63693e-10
7.64073e-10
3.78147e-10
1.35803e-09
1.3394e-09
9.15572e-14
7.61828e-14
3.93329e-13
6.72086e-10
1.34725e-09
2.38312e-10
2.68953e-10
1.30297e-12
1.52967e-11
4.55824e-13
3.78409e-13
1.42459e-13
6.73067e-10
1.26248e-09
8.02409e-10
1.92125e-13
1.14761e-13
5.61132e-14
4.20122e-10
1.39303e-09
2.63091e-13
1.47093e-14
4.67611e-12
4.79244e-13
1.64562e-13
2.35182e-10
3.87305e-13
4.74337e-10
8.70785e-10
7.73784e-10
4.27118e-12
1.5284e-09
5.31488e-13
2.82853e-13
4.9387e-10
4.2547e-10
8.64423e-10
7.96104e-10
1.67737e-09
5.51652e-13
6.73753e-10
1.1691e-09
4.38129e-11
5.6292e-10
1.17332e-12
8.12991e-13
9.36478e-10
8.61138e-10
3.60219e-10
2.51328e-13
1.38898e-09
6.3293e-10
9.21038e-10
3.247e-13
3.01521e-12
2.94345e-13
7.16839e-10
8.33913e-13
1.48263e-12
1.64089e-09
8.48232e-11
9.66199e-13
2.93332e-12
1.17344e-09
8.22649e-12
5.15418e-14
2.44777e-13
3.81997e-12
1.04489e-12
7.0711e-10
1.84147e-09
7.37376e-10
1.4988e-12
2.60985e-10
2.54335e-10
1.16446e-11
3.78251e-11
2.7111e-12
2.30873e-10
4.66814e-10
4.23315e-10
4.66463e-11
5.73016e-13
1.04101e-13
8.43904e-11
1.64764e-13
3.17545e-09
1.56681e-11
1.12648e-12
1.02027e-09
1.32767e-09
1.16697e-09
4.70301e-10
9.67482e-13
1.32579e-09
9.05341e-14
4.63861e-10
7.404e-10
1.24234e-09
2.04236e-09
4.43846e-12
1.55491e-09
1.36182e-09
9.37746e-10
1.21841e-09
2.71614e-09
4.48048e-13
2.56434e-12
1.00423e-09
1.65352e-10
1.44356e-10
2.20218e-13
2.75814e-12
4.37145e-13
7.33642e-10
8.22769e-10
5.76722e-10
1.31022e-10
3.43238e-13
9.42897e-13
7.5355e-12
5.16258e-10
1.68347e-13
8.07665e-10
8.7829e-10
2.08251e-12
2.03285e-09
6.62789e-13
1.45167e-12
5.35694e-13
6.99276e-13
1.85773e-12
2.60632e-12
2.24232e-09
4.53233e-10
1.38877e-12
2.37207e-12
2.37201e-13
7.11728e-10
1.59912e-10
1.15718e-12
1.02961e-10
4.03095e-12
1.01654e-09
2.63945e-10
1.1369e-09
6.06462e-10
6.29672e-13
5.9347e-10
8.61532e-10
1.12164e-09
1.40622e-11
8.59775e-13
1.47667e-09
2.7832e-09
8.41611e-10
6.48506e-12
3.58632e-10
8.04932e-10
3.59511e-12
1.95e-09
1.31743e-09
2.43156e-12
2.16553e-09
8.30346e-12
2.30166e-12
2.8524e-09
1.43904e-09
5.37291e-13
1.04548e-11
4.99114e-12
5.87879e-10
3.79627e-13
1.57783e-10
8.60923e-14
2.57231e-12
2.75259e-11
7.17495e-12
1.86048e-10
9.92631e-10
5.70006e-13
2.39521e-11
2.97051e-13
6.34176e-13
3.83498e-10
2.06759e-12
2.86468e-09
6.82808e-11
8.54487e-11
1.97952e-09
1.9287e-09
1.41544e-09
2.01016e-13
9.44478e-10
9.71375e-10
4.00941e-11
4.07163e-13
1.46133e-12
3.20247e-09
2.83856e-10
5.59635e-10
8.58415e-10
8.50438e-13
4.83454e-13
1.23341e-11
1.20399e-12
1.02528e-09
1.52045e-09
7.74731e-14
1.46138e-09
2.47318e-09
1.7109e-09
1.37168e-09
7.628e-10
1.89188e-12
1.5535e-12
9.48513e-10
5.91989e-10
9.88783e-10
1.55393e-09
1.52579e-10
9.77069e-11
4.21061e-10
3.46059e-13
4.59967e-10
5.98792e-13
1.40539e-09
1.27931e-10
5.51953e-12
2.47584e-10
1.04752e-09
9.01967e-10
1.28206e-09
1.5159e-09
7.24247e-13
1.2614e-11
6.72301e-10
2.6177e-09
8.84983e-10
2.98652e-10
2.61157e-10
3.31159e-10
3.40853e-11
2.15843e-12
8.27694e-11
7.90714e-12
4.38528e-13
5.61759e-12
6.74069e-10
2.63824e-09
1.92067e-09
1.33442e-13
5.05263e-12
2.56249e-09
1.70399e-09
2.12415e-12
5.65366e-10
2.38312e-12
6e-10
1.27544e-09
8.57286e-10
6.6266e-10
2.08516e-10
1.31287e-09
6.11861e-12
1.6309e-09
9.47501e-10
1.77986e-11
7.28106e-12
1.39489e-09
3.6663e-09
1.93626e-12
7.43652e-12
4.21714e-10
5.48989e-10
2.84304e-13
6.86584e-12
2.48848e-12
4.34013e-12
1.60736e-12
1.51843e-09
4.25846e-10
4.61043e-12
2.28916e-09
1.22545e-12
7.64039e-13
2.18581e-09
1.0364e-09
5.58411e-10
6.39508e-11
4.36584e-12
4.35696e-10
1.96867e-11
5.14223e-10
7.50395e-10
9.75226e-12
8.32563e-11
7.24425e-11
4.41344e-10
1.09217e-09
7.54202e-11
3.95798e-10
4.41862e-12
7.51347e-10
2.05515e-12
1.05032e-09
1.51519e-09
3.91213e-10
2.68778e-10
1.14301e-09
3.79466e-10
5.09425e-12
1.60559e-11
1.32846e-11
2.33972e-09
6.38281e-10
8.3791e-10
3.8079e-12
4.19633e-11
1.92506e-11
2.08676e-09
3.12552e-10
4.34923e-12
9.72025e-10
2.48708e-10
2.76554e-11
1.08047e-09
1.26391e-09
2.34333e-12
4.93319e-10
1.25499e-09
8.72601e-10
3.99558e-10
1.27856e-09
1.0545e-09
7.49528e-11
2.5294e-11
5.23982e-11
5.31806e-10
1.14528e-09
2.85256e-10
2.37704e-10
4.28855e-10
2.42472e-10
9.37132e-11
1.22832e-09
1.69505e-09
2.61824e-11
2.90778e-10
1.52772e-09
1.67663e-09
1.45202e-09
5.00031e-12
2.58569e-09
1.90834e-09
5.57676e-10
1.55366e-09
3.1264e-09
2.19494e-09
1.57983e-10
5.31473e-10
1.63101e-09
3.72926e-12
4.59982e-10
2.95294e-10
1.26677e-11
5.15144e-10
4.26574e-10
5.12156e-12
2.68817e-10
5.37424e-10
1.10305e-10
7.60676e-10
1.17484e-09
6.57136e-10
2.84222e-11
8.85571e-11
8.71827e-11
5.48441e-10
1.35183e-09
1.30208e-10
7.53848e-11
1.12264e-10
3.1841e-10
3.1785e-11
8.99639e-11
8.15945e-10
8.06995e-13
5.88982e-10
7.77939e-10
1.34557e-09
5.43549e-12
5.2073e-14
8.70395e-10
4.48831e-10
5.28218e-11
2.17005e-12
6.64724e-10
5.02896e-10
2.64681e-11
9.89971e-10
9.32913e-10
3.4648e-11
3.83049e-10
1.39525e-10
2.63815e-10
1.10935e-09
8.16272e-10
2.50224e-10
8.8981e-10
1.21835e-09
7.37635e-10
2.41103e-10
5.77405e-10
1.09242e-09
6.31936e-12
7.12757e-11
6.3477e-10
1.07283e-09
1.28543e-09
3.96826e-10
2.46978e-10
5.90039e-10
6.02591e-10
2.29831e-10
1.03854e-09
1.49675e-09
7.76451e-11
1.90088e-10
1.40471e-09
1.78882e-09
2.46998e-11
4.90316e-12
4.69135e-10
1.15805e-09
1.75257e-10
5.75014e-10
1.12375e-10
4.13388e-10
1.3565e-10
1.34746e-09
8.1427e-10
2.82101e-13
3.9728e-13
1.14384e-11
3.01661e-13
4.72702e-14
1.68378e-09
7.22189e-10
1.62242e-10
2.39395e-09
4.44956e-13
1.15628e-12
1.71381e-09
1.4717e-13
3.52583e-13
1.26446e-10
1.1182e-10
1.21002e-12
5.8083e-12
3.56511e-09
1.85798e-09
2.16798e-12
1.30011e-12
1.11035e-10
2.45656e-13
2.44557e-13
8.67547e-13
2.70962e-09
1.02405e-12
1.08485e-13
8.00564e-10
1.86482e-09
2.01435e-09
1.98831e-09
2.79819e-13
8.28827e-10
2.10748e-09
7.54354e-10
2.04285e-13
4.66981e-13
2.98898e-13
3.67204e-13
9.28908e-10
1.22805e-13
5.97926e-10
2.20097e-09
6.0423e-10
2.18034e-09
7.21734e-14
6.60823e-13
5.2592e-13
1.44025e-11
4.38678e-09
2.15488e-13
1.12259e-09
9.81554e-10
2.013e-12
1.57032e-09
3.01962e-13
4.86437e-13
8.70454e-10
5.89347e-13
1.33915e-10
1.67619e-09
5.41573e-10
1.27739e-09
1.08081e-09
9.18598e-13
5.88788e-12
1.78172e-09
4.51639e-10
3.51657e-09
1.6473e-12
1.25103e-09
4.06193e-09
6.49676e-13
5.74756e-13
1.242e-10
5.83906e-13
5.19176e-09
9.38633e-11
1.51999e-10
5.25093e-10
7.55928e-10
5.85537e-10
2.02525e-09
1.83367e-09
1.5058e-09
1.58921e-12
5.27202e-10
9.4435e-10
1.04293e-09
7.7088e-14
1.50316e-13
3.95399e-12
1.46844e-11
2.33567e-13
9.36324e-10
6.22228e-13
2.21411e-09
9.88606e-10
3.20139e-13
1.75452e-09
1.12178e-13
2.63379e-13
1.0107e-10
9.81931e-14
6.02865e-10
1.55057e-12
1.45855e-12
3.95139e-12
7.7545e-13
7.044e-14
5.69924e-10
8.50036e-14
4.79044e-14
2.47304e-09
2.67618e-09
1.29623e-09
4.21951e-13
7.4241e-14
8.74085e-10
2.52695e-13
5.30264e-13
2.79722e-13
8.96017e-10
3.38307e-10
6.6117e-13
8.33041e-14
2.08969e-09
2.95134e-10
4.43066e-13
2.79885e-09
1.78296e-09
2.32491e-09
5.79572e-11
1.47985e-13
3.36151e-13
4.53552e-13
8.33321e-10
2.72781e-10
1.22726e-09
8.5358e-10
1.34195e-13
2.0975e-09
1.14296e-09
3.23233e-09
2.92056e-09
5.23488e-11
9.63158e-10
1.11598e-12
2.71263e-12
4.63286e-14
1.39907e-12
3.61777e-10
7.40711e-13
1.3815e-13
4.62049e-13
1.60211e-12
9.98508e-11
2.6737e-09
3.85015e-13
3.53351e-11
1.76915e-10
5.36096e-10
5.54309e-13
1.42769e-09
1.39473e-09
2.19606e-13
1.05769e-09
1.74254e-09
7.79462e-10
1.99031e-13
1.31776e-13
2.69588e-12
6.80236e-11
9.53194e-13
7.50454e-10
1.01438e-09
1.60368e-09
1.6921e-11
2.11033e-13
4.09906e-13
6.10877e-10
3.25947e-13
1.90103e-10
2.04872e-13
1.60578e-13
5.88319e-13
1.83751e-09
7.91547e-13
3.5974e-12
6.85779e-10
8.88541e-13
4.89092e-13
3.80509e-12
2.56126e-09
5.64212e-11
1.26794e-13
2.16129e-09
1.2848e-12
2.08273e-12
4.05932e-10
1.53092e-09
5.75501e-13
4.05675e-10
1.09664e-09
4.28979e-13
6.15564e-13
2.95435e-09
2.15391e-09
2.44592e-13
1.36145e-09
8.96065e-10
1.32114e-13
9.29707e-13
9.97361e-10
2.94094e-10
2.81637e-10
1.62156e-12
9.85546e-13
7.36537e-13
3.32549e-10
1.72957e-09
7.51987e-14
1.52378e-09
3.31258e-13
1.50719e-13
2.74765e-12
1.21553e-14
5.17014e-13
1.38867e-13
1.46677e-13
1.96958e-12
2.02053e-13
1.3441e-09
2.54165e-09
7.77858e-13
9.77737e-13
1.19926e-12
5.69932e-10
1.17147e-09
2.5802e-09
5.2576e-10
4.95039e-12
1.24938e-09
5.21043e-13
3.61859e-13
3.59065e-09
3.78016e-09
6.78395e-14
1.35253e-09
3.48033e-09
9.61074e-14
5.56978e-13
4.97708e-13
2.48409e-09
2.60353e-09
9.09208e-10
6.67239e-12
3.77229e-13
1.59274e-13
1.41785e-09
5.00545e-13
3.40249e-12
2.19672e-12
6.07629e-13
1.54692e-09
2.4346e-09
4.22467e-10
9.654e-10
2.92685e-13
1.66206e-10
5.57071e-10
1.26681e-09
1.5429e-09
2.77561e-12
3.08971e-13
4.29202e-14
1.32819e-09
2.03866e-09
1.00795e-12
1.30871e-11
2.19955e-10
4.86226e-12
1.83741e-09
2.12272e-09
1.03282e-09
1.38394e-09
8.23696e-12
1.70814e-13
7.1693e-10
3.6813e-14
6.78761e-10
8.11843e-13
1.29361e-09
1.82409e-09
1.79923e-13
1.98484e-12
1.53719e-12
2.40215e-12
1.64221e-09
6.39547e-10
2.93506e-12
7.6388e-10
2.08427e-09
6.90193e-10
6.27534e-13
1.76295e-10
2.02114e-09
2.79476e-09
2.86197e-12
7.71623e-13
6.55487e-10
1.35469e-09
1.43886e-09
2.72065e-13
8.23524e-12
1.91123e-09
4.55984e-09
2.02295e-09
9.76052e-10
7.42875e-10
8.76623e-13
1.79467e-12
1.10214e-12
1.01673e-12
3.27456e-12
1.69763e-12
1.23579e-09
7.94456e-10
1.67193e-09
1.02211e-09
6.58021e-13
9.91706e-10
6.2392e-10
2.07505e-10
6.57516e-10
2.46358e-10
1.00994e-09
1.17734e-09
1.08607e-09
3.82249e-13
6.60777e-10
4.6802e-11
1.27407e-12
3.28569e-10
2.29201e-09
1.37013e-09
5.08839e-13
3.2628e-13
4.02911e-10
2.28103e-10
7.13592e-13
1.74999e-09
2.42856e-09
1.10504e-09
1.90333e-09
1.47875e-09
1.19453e-13
7.57274e-14
9.3464e-11
2.65819e-10
4.11935e-10
1.62038e-13
1.1045e-13
1.23585e-12
6.89052e-10
4.43916e-13
6.04746e-13
5.39396e-10
8.76568e-10
3.2724e-13
2.42435e-13
3.24896e-13
1.98209e-11
2.62605e-09
3.81827e-10
2.70281e-10
2.29957e-12
7.69384e-13
7.56881e-10
2.40896e-13
1.63932e-10
9.23676e-13
3.40814e-10
8.77996e-13
6.42286e-13
1.26583e-11
1.80827e-09
1.9442e-09
1.54388e-13
2.5394e-13
5.13244e-12
2.95299e-09
1.93922e-12
1.09785e-13
1.72097e-09
1.07873e-12
9.0155e-10
3.83574e-09
1.32012e-13
3.46805e-13
1.30046e-10
1.96819e-13
1.14195e-09
3.09735e-09
9.892e-10
8.66968e-10
1.20862e-09
7.17784e-11
1.55342e-09
1.24664e-12
6.14026e-10
2.28875e-09
1.29164e-11
6.81982e-13
1.7572e-12
1.27817e-12
7.18163e-11
2.02724e-10
2.45522e-13
4.77677e-10
3.33313e-10
6.4529e-10
1.29032e-09
4.93875e-13
5.38326e-10
4.49782e-10
3.03105e-13
1.6793e-12
2.29469e-13
1.71866e-09
2.41352e-12
2.34438e-12
2.67564e-13
4.60145e-10
4.45384e-12
3.20019e-10
2.78792e-09
2.51574e-13
9.18347e-10
1.6549e-09
6.36425e-10
1.22931e-13
1.29192e-10
1.65805e-12
5.66133e-14
6.4569e-10
1.88545e-09
5.3176e-13
4.31238e-13
5.89337e-12
1.16548e-09
8.56674e-13
3.22982e-13
6.7543e-10
4.21385e-13
9.84673e-10
2.93509e-09
1.23927e-09
3.01454e-12
7.17228e-13
5.4127e-12
4.13384e-10
4.08268e-10
1.42384e-09
1.21391e-09
7.57487e-13
9.08742e-10
2.26319e-13
2.91293e-13
6.65752e-10
2.22642e-10
3.17464e-09
2.31482e-09
1.67583e-13
3.23472e-10
3.92169e-13
5.70057e-14
8.55714e-10
3.51578e-13
2.5205e-09
2.17224e-13
7.26311e-13
2.4673e-09
1.80844e-09
3.76908e-10
5.46322e-13
1.24831e-10
4.46552e-13
4.16717e-13
9.43314e-13
1.57708e-13
4.41681e-12
2.34576e-09
1.05638e-09
1.5572e-09
1.39362e-10
2.03815e-13
1.73076e-10
6.09175e-10
1.09677e-09
5.15324e-10
5.77859e-12
8.29046e-11
1.91342e-12
8.44239e-14
2.68697e-13
1.34334e-09
1.30287e-12
8.43889e-10
5.89105e-13
4.48151e-13
3.36588e-12
1.53703e-13
4.97379e-13
1.57268e-11
5.40149e-12
2.09494e-09
1.4516e-09
8.3274e-13
1.99397e-13
2.77627e-10
1.23692e-12
2.0955e-09
2.26708e-12
8.06706e-14
3.55909e-12
1.86202e-09
2.57351e-09
2.86064e-10
1.2725e-12
7.71895e-12
1.75947e-09
1.2779e-12
2.88999e-13
1.02213e-12
1.01911e-09
4.57755e-10
6.25622e-12
4.58903e-13
2.64861e-13
3.84217e-13
7.73705e-13
6.55512e-13
1.13339e-09
1.63728e-09
1.29964e-09
2.06205e-10
6.41943e-11
2.42966e-09
2.49348e-10
6.33434e-13
3.04343e-09
1.60688e-09
8.30162e-13
2.40734e-10
7.23121e-14
6.92211e-10
3.45477e-09
1.1273e-12
6.11564e-10
2.62059e-13
1.01044e-12
6.05247e-10
2.8816e-12
2.35718e-13
1.09331e-09
4.86691e-10
4.14416e-13
5.76216e-13
1.05201e-09
2.87458e-13
5.33239e-14
2.28946e-13
1.3127e-09
1.95779e-09
5.64643e-10
4.84718e-14
5.04213e-13
9.06032e-10
4.80023e-10
2.74058e-13
7.66021e-13
2.64506e-09
2.33857e-10
1.52525e-13
2.88169e-13
6.81395e-14
2.78537e-13
1.08612e-10
3.87531e-13
7.48301e-10
1.40892e-09
2.82012e-13
1.76233e-13
1.11941e-09
1.08104e-09
1.33461e-09
1.0831e-12
6.52361e-13
2.26467e-09
9.43743e-13
1.12915e-09
2.00553e-12
2.38049e-13
5.983e-13
1.73195e-09
1.10576e-12
2.19337e-13
1.20683e-13
2.62583e-13
5.27138e-10
8.3132e-13
4.59877e-13
1.45032e-09
1.03562e-09
3.30406e-13
2.57256e-13
3.33443e-10
4.14855e-10
4.57815e-13
4.73276e-10
1.91604e-12
7.60804e-13
6.33185e-13
1.7032e-13
2.1118e-09
8.74796e-10
3.15723e-13
7.22456e-10
1.39339e-09
1.21801e-13
1.30137e-13
4.94916e-10
6.75507e-10
4.36832e-10
3.92502e-10
3.52803e-13
6.23687e-14
6.1794e-13
2.01521e-09
4.41117e-12
5.59158e-13
6.25074e-13
1.34822e-13
1.62019e-09
3.48362e-13
1.80593e-12
1.86092e-09
2.06218e-09
3.46118e-10
7.6042e-10
6.00227e-13
3.7599e-13
3.28921e-10
1.01348e-12
5.82396e-10
3.21138e-11
1.01104e-09
1.35771e-09
3.51661e-10
5.54039e-14
1.96328e-13
1.58464e-09
8.02474e-10
5.39109e-10
8.02131e-13
2.74804e-14
4.50953e-10
1.56723e-09
2.0878e-13
1.2785e-13
2.39163e-09
1.10118e-09
2.62058e-13
1.82461e-13
1.1552e-12
9.97747e-10
1.40331e-09
2.85057e-10
8.0741e-13
9.84137e-15
4.61493e-12
5.79976e-10
7.02505e-13
6.22464e-13
7.65662e-10
3.51752e-09
2.75064e-13
1.42833e-13
7.3802e-13
4.1953e-13
6.04243e-14
1.96042e-12
5.68341e-10
1.04864e-09
6.44756e-10
7.0882e-14
4.93599e-13
7.46723e-13
1.6312e-13
1.47403e-13
3.78304e-13
2.69831e-10
1.15078e-12
2.41207e-13
1.49906e-13
2.30597e-11
3.66557e-13
5.80545e-13
3.27669e-10
9.34807e-10
5.76341e-14
2.10372e-13
3.23831e-13
6.34927e-13
5.71247e-10
9.22318e-13
1.63315e-13
1.03371e-09
4.62388e-12
9.59913e-14
7.24652e-13
3.00222e-13
1.06835e-13
2.63555e-13
1.2187e-09
8.58716e-14
2.21557e-13
3.80405e-10
2.07945e-09
1.69792e-09
2.30594e-10
1.09992e-12
1.21407e-10
8.7922e-13
1.12098e-13
3.69635e-13
8.42396e-13
2.72888e-10
2.54705e-13
2.40781e-13
1.75337e-10
4.90878e-10
1.02838e-09
4.55098e-14
1.41606e-09
2.51728e-10
8.2312e-10
9.89576e-10
3.80935e-13
1.11182e-13
4.39879e-10
9.13342e-10
8.86036e-13
2.91129e-13
3.89006e-13
1.41023e-10
5.17372e-10
1.82854e-13
2.74276e-10
5.82902e-10
2.01727e-12
8.29029e-13
1.30121e-09
9.97479e-10
3.34291e-13
7.67345e-10
2.27032e-09
2.87238e-12
3.22009e-13
6.47601e-13
4.70634e-10
5.08128e-13
5.90097e-10
4.36651e-10
7.90289e-13
1.59589e-12
6.10703e-13
1.54866e-09
7.73203e-11
1.61622e-10
7.75523e-10
1.05249e-09
2.91616e-10
8.84334e-14
2.7253e-13
6.84476e-14
1.73454e-13
3.68064e-10
1.81236e-13
2.97708e-13
9.24837e-10
1.00645e-09
8.39343e-14
1.8103e-13
2.31493e-12
1.00807e-09
3.33134e-12
1.67233e-10
1.23079e-12
4.91404e-14
3.5545e-13
3.12273e-13
1.94675e-12
1.32622e-11
1.09668e-10
1.39314e-09
1.34946e-13
3.84063e-13
4.88061e-10
4.14398e-12
2.4545e-10
7.78546e-12
2.36434e-10
9.16336e-13
2.50283e-11
5.72163e-10
1.77413e-10
7.50709e-14
1.48969e-13
5.69908e-13
3.69425e-10
2.38046e-12
1.08397e-09
2.74185e-13
4.18161e-13
1.65487e-13
1.22008e-13
7.55401e-10
4.7802e-10
2.62248e-12
6.63714e-14
5.11547e-13
4.0722e-13
6.19932e-14
8.64198e-10
7.27963e-10
4.45907e-13
3.02197e-13
9.95008e-13
8.3986e-10
9.08955e-13
2.93257e-13
6.57625e-11
1.09222e-09
1.53354e-13
7.88414e-13
1.03329e-09
1.47391e-09
6.29002e-11
6.91953e-10
4.44744e-10
6.84979e-13
1.73475e-10
1.44203e-10
2.27792e-12
2.94431e-12
1.59429e-13
5.29133e-10
1.18634e-12
6.38568e-13
1.46602e-10
8.85938e-10
1.10114e-09
1.20369e-12
4.91528e-10
8.88843e-14
3.7339e-13
4.855e-10
3.91751e-12
2.19463e-12
6.54346e-10
8.71747e-13
1.11104e-12
8.40313e-14
3.55656e-10
7.86659e-10
6.41615e-10
4.89321e-11
3.86007e-13
6.17591e-11
1.2033e-12
1.0941e-12
1.65239e-09
2.91068e-10
8.30784e-13
1.36221e-09
1.66681e-13
1.37596e-12
5.70864e-10
5.77113e-10
9.83416e-13
2.98573e-10
6.47591e-10
2.14836e-11
1.11241e-12
3.79244e-12
3.99287e-11
1.15653e-09
6.23181e-13
4.54058e-14
1.10482e-12
1.99192e-12
2.69067e-10
4.14635e-10
3.67006e-13
1.43582e-13
1.88573e-13
3.35791e-10
6.28838e-10
9.81285e-14
5.9416e-14
1.06e-09
6.58307e-10
4.02626e-10
4.11878e-10
1.91836e-12
2.22109e-10
6.08229e-14
2.13796e-12
1.38193e-13
7.63494e-14
9.0597e-13
3.04068e-12
1.30253e-09
2.21312e-13
2.88628e-10
2.3649e-12
4.36563e-13
7.81744e-11
2.42661e-13
5.80825e-13
7.12528e-10
3.08538e-11
1.44281e-13
1.59278e-12
1.03408e-11
3.06625e-12
7.90577e-10
1.98272e-13
2.21629e-13
8.6911e-13
2.80059e-13
1.21897e-09
9.4717e-13
1.17579e-13
2.31052e-13
3.60297e-13
5.40874e-10
9.59515e-11
1.11275e-13
4.21098e-10
8.18456e-10
8.01507e-14
1.20308e-13
5.87282e-10
7.71744e-10
4.46133e-10
3.62511e-13
3.2851e-10
1.80024e-11
1.57081e-13
5.86422e-13
3.60746e-14
2.80059e-10
1.8388e-13
1.67106e-10
1.41553e-11
5.02829e-10
7.36445e-10
5.32507e-14
2.44651e-10
5.00373e-10
6.41463e-13
1.19916e-13
7.65903e-12
1.23368e-12
1.0071e-11
5.34174e-10
1.88823e-12
2.01292e-12
1.31593e-09
6.42592e-10
6.91065e-11
4.17944e-10
1.13934e-12
5.9726e-13
1.42042e-13
9.54156e-10
5.90514e-13
2.87744e-13
2.50335e-13
2.88497e-10
3.19124e-13
1.26336e-10
5.94082e-10
5.48158e-10
1.37358e-13
6.24851e-13
2.09118e-13
6.61087e-10
4.61733e-14
5.49463e-13
1.05058e-09
1.74848e-10
7.11204e-13
5.66081e-10
2.95769e-12
1.9449e-10
2.73119e-12
1.73193e-12
2.43918e-10
5.67025e-10
4.08507e-10
4.72512e-10
3.51475e-12
5.93626e-12
1.11374e-10
2.79514e-13
1.3572e-10
3.2805e-13
1.50166e-14
3.32242e-13
5.1359e-10
1.4659e-10
1.16046e-12
9.5815e-13
5.09354e-13
6.18852e-10
1.21806e-12
1.35659e-12
2.45728e-10
2.48499e-10
2.03238e-13
4.76919e-10
6.06797e-10
4.28792e-10
5.6179e-12
5.3698e-14
1.21912e-13
3.28092e-10
2.4315e-13
3.04755e-13
7.81114e-10
7.9261e-10
1.10574e-12
3.91807e-10
6.12151e-13
2.09764e-12
6.56334e-12
5.08093e-12
1.72238e-12
1.76384e-10
2.8306e-13
1.17252e-10
1.38533e-13
4.32523e-13
1.88876e-13
3.1116e-10
1.4069e-10
1.30002e-12
9.78774e-14
3.22318e-11
7.31447e-10
2.4886e-12
8.63443e-12
9.84738e-13
8.29558e-13
3.07629e-10
4.71329e-13
4.12664e-13
3.48255e-10
3.10094e-10
8.41241e-13
2.36661e-12
1.50447e-10
2.22109e-12
1.92907e-12
2.60383e-13
3.51159e-13
6.91792e-10
2.47589e-13
1.07908e-12
2.36826e-10
3.47668e-13
7.99171e-12
1.65421e-12
5.40966e-13
2.0615e-09
3.50729e-10
2.49311e-12
1.11915e-11
2.41119e-10
4.09494e-10
1.90063e-12
1.79166e-14
3.06665e-13
8.05225e-13
1.06969e-09
1.70725e-12
1.71521e-12
3.12233e-12
3.6856e-11
1.06688e-09
6.6393e-10
1.04162e-11
1.21012e-13
1.16748e-12
6.29789e-10
1.74566e-12
2.14759e-13
5.19552e-10
9.93598e-10
3.56082e-10
3.37495e-12
2.23266e-12
5.46056e-12
1.61226e-12
5.34957e-13
6.73964e-13
4.91779e-11
3.66122e-10
3.24693e-12
4.7163e-11
5.27888e-13
8.85882e-13
1.06035e-10
5.64819e-10
2.74723e-11
3.5317e-13
1.22789e-12
1.90314e-11
5.01985e-10
1.066e-12
1.22634e-12
6.06251e-13
4.96915e-13
2.30911e-12
3.13175e-10
4.3995e-10
3.10063e-12
3.0845e-10
3.09007e-12
6.17383e-10
1.3897e-12
6.34483e-13
1.22041e-13
2.63847e-12
7.73931e-10
5.66678e-10
2.60606e-13
6.70379e-12
6.71684e-12
3.72031e-13
1.45678e-12
3.26414e-10
1.8414e-11
1.12631e-12
7.84027e-13
9.17026e-12
8.18355e-10
1.91557e-12
9.94636e-13
6.8728e-12
3.1878e-12
1.09154e-12
5.51774e-11
3.68597e-12
7.37799e-13
4.8809e-11
8.70556e-11
7.08198e-12
2.72531e-10
1.17997e-11
5.46087e-10
1.34024e-12
1.08469e-12
1.72181e-11
5.17094e-10
2.62089e-10
1.7459e-11
1.0322e-12
6.17048e-13
3.05992e-10
1.33927e-12
6.38563e-13
6.45525e-13