/*--------------------------------*- C++ -*----------------------------------*\
  =========                 |
  \\      /  F ield         | OpenFOAM: The Open Source CFD Toolbox
   \\    /   O peration     | Website:  https://openfoam.org
    \\  /    A nd           | Version:  10
     \\/     M anipulation  |
\*---------------------------------------------------------------------------*/
FoamFile
{
    format      ascii;
    class       volScalarField;
    location    "35";
    object      p;
}
// * * * * * * * * * * * * * * * * * * * * * * * * * * * * * * * * * * * * * //

dimensions      [0 2 -2 0 0 0 0];

internalField   nonuniform List<scalar> 
25600
(
0.0430241
0.0289104
0.0115007
-0.0165487
0.0251644
0.0531483
0.0325063
0.033676
-0.0139337
0.00874185
-0.00831957
-0.0273366
-0.00797761
0.00786139
0.0260964
0.0170425
-0.010172
-0.00794764
0.0107723
0.0102716
0.0498278
0.0500188
-0.000764039
0.00999766
0.0249929
-0.0225219
-0.0154185
0.00672805
0.0569149
0.0123223
-0.0182119
0.0161817
0.0110689
-0.00698479
-0.00235872
0.0226809
0.00801957
-0.0096298
0.027259
0.102278
0.000217527
-0.0280544
0.0135942
0.0230964
0.0114052
-0.00460948
0.0254266
0.0291497
0.0178558
0.0326615
-0.0124471
-0.0241732
0.00720669
0.0371476
0.00431964
-0.0153397
0.00270403
0.0282355
0.0354177
-0.00870592
-0.0263166
-0.0116589
-0.00766355
0.00768737
0.0211111
-0.00645696
-0.0180838
0.0270749
0.0466501
-0.0332942
-0.0340605
-0.00812025
-0.0235919
-0.00651428
-0.000932289
-0.00621074
0.0100909
-0.0238738
-0.00584067
0.0150527
0.0298493
0.0248564
0.0164666
0.0162834
0.0157864
0.0119345
-0.0104793
-0.0136758
0.029685
-0.0057167
-0.0260525
0.0202166
0.038775
-0.00504381
-0.00991255
0.0102785
0.0479633
0.039072
-0.0217377
-0.0349972
-0.0146328
0.0157498
0.0133884
-0.00601964
0.00583231
0.0072087
0.00249809
0.0132689
-0.0130241
-0.024703
-0.00458027
0.000571423
0.0236795
0.0263092
-0.00151883
-0.000716724
-0.0167054
-0.0264376
0.0269799
0.0149812
-0.0319468
0.0117374
0.0287182
0.015675
-0.00149322
-0.000957996
-0.00613235
0.0192068
0.0133095
0.0327522
0.0371783
-0.00247481
0.0100132
0.00848357
-0.00366056
0.0095345
0.0197546
0.00326427
0.0193369
-0.00208966
0.00217659
0.0211096
0.0152247
0.0382135
0.0212082
-0.0202439
-0.0195048
0.00973631
0.0228229
0.0114637
-0.00668932
0.0324401
0.027351
0.0206932
0.0122059
-0.00230027
0.0142164
0.0604174
0.021731
-0.0234702
0.000426117
0.00290784
0.00470729
0.0219122
0.011824
-0.0204257
-0.00205691
0.0338735
0.0265661
0.0265123
0.00229211
0.00124792
0.016352
-0.00276266
-0.00417523
0.00733405
-0.0130329
0.00479134
0.00726735
-0.0186718
0.0286645
0.0541433
0.00209492
-0.0171227
-0.0051668
0.000893345
-0.000402796
0.0251139
0.0221593
-0.00363821
0.0206616
0.0333714
0.0213275
0.0240699
0.0186677
-0.00710357
-0.0323145
-0.00135324
0.0112448
-0.0100599
0.0145526
0.00240146
0.0311947
0.0271847
-0.0353236
-0.00834882
0.0352292
0.0197272
0.00565796
-0.0151516
-0.0147526
0.00065509
0.00433022
0.0108998
0.0245629
0.00624469
-0.0177123
0.00591005
-0.00733121
0.0247556
0.0444915
0.0154946
-0.0104437
-0.0258131
-0.00809346
-0.000939825
0.00570569
0.02018
0.0163612
-0.00986124
0.0154424
0.0219133
0.0268472
0.0165353
-0.0205816
-0.031924
0.0388846
0.0363263
0.00625479
-0.0030002
0.0103384
0.00920747
0.00684419
0.00772845
-0.00416693
0.00947511
-0.00778547
0.00878633
0.0355831
-0.00071441
0.0198973
0.0296576
-0.00282795
0.0204346
0.0250264
-0.00466009
-0.000841347
-0.000401764
-0.00221568
0.0184915
0.0320412
0.00190395
0.00102478
0.0187849
0.0389803
0.00542809
0.00630239
0.0298759
-0.013356
-0.020789
0.0315844
0.0299891
0.0087815
0.0124872
-0.0323952
-0.0094754
0.0716298
-0.00053725
-0.0467964
-0.00268572
0.0192167
0.00508985
0.00798654
0.0641053
0.00656904
-0.0209971
0.0108288
0.0215439
0.027556
0.00343664
0.026101
0.0131162
-0.0126622
0.029428
0.0142879
-0.0258187
-0.00912967
-0.0267314
-0.00293259
0.0569924
0.0281472
0.00786984
0.0189331
0.0148656
0.0111825
-0.00142102
0.0200173
-0.000143126
-0.0261148
0.0157149
0.0363837
0.00794573
0.00230525
0.0107724
-0.00347246
0.00440478
0.0133912
-0.0350144
0.00375929
0.0411872
0.0192863
0.0141753
0.0313134
0.023601
-0.0192114
0.00531253
0.0207174
0.015585
0.00606254
-0.0086715
0.0148548
-0.000363156
-0.00252486
0.0236905
0.0248184
0.0165973
-0.00473253
-0.0245339
0.0132081
0.0220258
0.0103911
0.00445517
0.000471998
0.00137842
0.00775811
0.00533824
0.00839735
-0.0177056
-0.0241356
0.014895
0.0209298
0.0173873
0.021409
0.0160109
-0.0149681
-0.0204498
0.0107533
0.00596877
0.0254663
0.0596422
0.0304374
0.0192791
0.0120464
-0.0018126
0.00704784
0.0254583
0.0138856
0.0115162
0.0152514
0.0168707
0.0297237
0.0197219
0.0364516
0.0343543
0.0379316
0.0289482
-0.0101986
0.00730592
0.0200183
0.0227687
0.016377
-0.00599688
-0.0073976
-0.00212106
0.00388949
0.00974143
0.00949864
0.00942622
0.000837131
0.00687633
0.0296045
0.0217235
-0.00702573
0.00576297
-0.0132455
-0.0186189
0.00468268
0.00126506
0.0182896
0.0449537
0.000408426
-0.00477157
-0.00304225
-0.0130049
0.0151729
0.0280104
0.00260208
0.00800771
0.0108242
0.00120369
0.0258349
0.00631227
-0.00658903
0.0164041
0.0287858
0.0340713
0.0015588
-0.000616733
0.0146324
0.0477331
0.0258559
-0.00326639
0.000435567
0.0157745
0.0161583
0.0155709
0.0140523
0.00756469
-0.00354646
0.0119462
0.0131174
-0.0234703
-0.00613158
0.0326557
-0.0096234
-0.017139
0.0124255
0.014034
0.0377913
0.0276963
-0.0132155
-0.0197985
-0.0150956
-0.0341843
0.00132212
0.0233367
-0.00729669
0.0109375
-0.00205733
-0.0307981
0.0146982
0.00349869
-0.000452578
0.0120579
0.0155324
0.00234834
-0.00602457
0.00862154
0.00510612
-0.0114864
0.00864965
0.00260213
-0.00845622
0.0138901
0.0245989
0.0216059
0.0232645
0.000762533
-0.0242541
0.014705
0.0232783
0.0100161
0.0341086
0.0299015
-0.0244775
-0.0178803
0.01467
0.0224902
0.0476633
0.0340672
-0.0122925
-0.0103955
-0.00900165
-0.0375859
-0.0051035
0.0205119
-0.0124429
0.00381463
0.00415333
0.00467685
0.0254058
0.0407558
0.0443715
0.00693708
-0.00494954
0.0174458
-0.0162159
0.0122229
0.0293113
-0.0144617
0.00904523
-0.00773118
-0.00878145
0.00487002
0.0189276
0.0214684
0.036585
0.0178314
0.00979206
0.0223968
0.0309057
0.0150536
0.0265575
0.0227497
-0.0388475
-0.045763
-0.00603256
0.015068
0.041052
0.0303843
0.0013863
0.00128484
-0.00244735
-0.0303301
0.00247552
0.0366216
-0.00552185
-0.00694175
0.0187316
0.023494
0.0331528
0.0534413
0.0276163
0.0129613
0.00554315
-0.0366932
-0.036673
0.00582489
0.0315194
0.00119045
-0.00290808
-0.00542066
0.00834623
0.0138578
0.02414
0.0199878
0.0300237
0.0117091
-0.00561068
0.0217326
0.028999
-0.000385965
0.0257283
0.0258851
-0.0518881
-0.0362729
0.0308298
0.0189285
0.0290089
0.0178535
0.0104043
0.00785367
-0.00551917
-0.0284152
0.0171662
0.0404701
-0.00305584
0.00715272
0.0291217
0.0209867
0.025832
0.0320687
0.0267678
0.0184549
0.00432939
-0.0673835
-0.04999
0.00637225
0.0241725
0.00409966
-0.00949209
0.00578788
0.0147338
0.0322853
0.0277385
0.0151997
0.0289686
0.0193461
0.00808071
0.0305467
0.0275712
-0.0107578
0.0229252
0.0124727
-0.0295849
0.0205106
0.0246598
0.015652
0.0317547
0.0278172
0.0146997
0.00948001
-0.00534313
-0.0205022
0.0298198
0.0447135
0.00618689
0.0177614
0.0241614
0.0192731
0.0155904
0.0239208
0.0272969
-0.00187631
0.000810261
-0.0457851
-0.0371571
0.0247636
0.0287697
0.00744051
-0.00553407
0.0232897
0.0310411
0.0387203
0.0225476
0.010124
0.0290907
0.0207575
0.0157137
0.0397395
0.0223853
-0.0208618
0.0169388
0.00940886
-0.0280701
-0.000511949
0.0210177
0.0151913
0.017571
0.0211956
0.0142077
0.0165102
-0.00113204
-0.0117625
0.0381875
0.0387861
0.00923887
0.0225775
0.0274391
0.0144094
-0.00117271
0.0207453
0.0247371
-0.00359997
0.0142758
-0.00350534
-0.0213954
0.0269238
0.0322563
0.00343972
0.00354725
0.0387689
0.0323244
0.0267735
-0.00589391
-0.000891423
0.0261228
0.0136247
0.0232645
0.0508019
0.0164483
-0.0206323
0.0146367
0.00464712
-0.0308967
0.0173994
0.0272743
0.0121636
0.0135662
0.025374
0.0114893
0.0229832
-0.0034045
-0.0145776
0.0399557
0.0358906
0.00519439
0.0177281
0.0176204
0.00357659
-0.00191422
0.0167264
0.012938
0.00233634
0.0409485
0.0309055
-0.0132218
0.0254093
0.0346489
-0.00361199
0.00856564
0.0281456
0.0365065
0.0218227
-0.0303562
-0.0112609
0.0168641
0.0161771
0.0312913
0.0452913
0.00709039
-0.0145282
0.0168603
4.64623e-05
-0.0128064
0.0441931
0.0398422
0.013539
0.0166279
0.0248848
0.00886251
0.0186805
-0.00357916
-0.0206317
0.0385945
0.0471299
0.00285992
0.0144657
0.00953874
0.000998931
-0.00222546
0.0181495
0.0233166
0.0106799
0.019575
0.0130518
-0.0201087
0.0226328
0.0294022
-0.00959666
0.00997988
0.0242279
0.0148779
0.0154701
-0.0492411
-0.0295589
0.00933348
0.027792
0.0351584
0.0341573
-0.00521195
-0.0103108
0.0171213
-0.00103579
0.00529588
0.0433626
0.0434013
0.0103248
0.0183826
0.0310698
0.00757478
0.0125346
-0.00409609
-0.0216112
0.036315
0.0629686
0.0294884
0.01916
0.00866562
-0.000187788
-0.00644048
0.029929
0.0492885
0.0138974
0.00415359
0.00582188
-0.0243782
0.0243831
0.0311463
-0.00596079
0.0109663
0.0259782
0.0256591
0.00427803
-0.0722919
-0.0375817
0.0133816
0.0421467
0.0399537
0.0302436
-0.0105272
-0.00747339
0.0151501
0.0017391
0.0172637
0.0377693
0.0407807
0.00683495
0.0227128
0.0384869
0.00406365
0.00592134
-0.000503369
-0.0219987
0.0328488
0.0734899
0.00923206
0.0150858
0.00838656
-0.00205376
-0.00494601
0.0335177
0.0700923
0.0195901
-0.00863612
0.00144582
-0.0193556
0.0391594
0.0397221
-0.00154911
0.010117
0.0152528
0.0377553
0.0128055
-0.0710011
-0.0368568
0.0241735
0.0543145
0.0424545
0.031135
-0.0121781
-0.0035924
0.0142389
0.00876629
0.0294407
0.033948
0.0322734
0.0114624
0.0265783
0.0420454
-0.00347701
-0.00688183
0.00534538
-0.0234566
0.0350578
0.0740107
0.00749291
0.000749836
-0.000144631
-0.00659691
-0.00125363
0.0283361
0.0815321
0.0166268
-0.0196445
-0.00550874
-0.0117043
0.0562699
0.0454499
0.000784453
0.00371054
0.00500713
0.0169143
0.00929763
-0.0630036
-0.035514
0.02906
0.0603721
0.0484901
0.035651
-0.0183497
-0.0192349
0.0179952
0.0210242
0.0353284
0.0262587
0.020256
0.0135384
0.032032
0.0525237
-0.00879471
-0.020534
0.00891778
-0.028169
0.046971
0.0707611
-0.00270644
-0.0172725
0.00134171
0.0133422
0.00110436
0.0301448
0.0885131
0.0085341
-0.0264415
-0.00373429
-0.00267101
0.0697031
0.0525089
0.00629446
0.00828747
0.00896042
0.0163493
-0.00118265
-0.0544265
-0.0336238
0.0271811
0.0658886
0.0618148
0.0402189
-0.028763
-0.0245229
0.026447
0.0336121
0.0300752
0.00269989
0.00161119
0.0143442
0.0397955
0.056946
-0.0114911
-0.0360345
0.0115177
-0.0342539
0.0592982
0.0679582
-0.0228228
-0.0227496
0.0187456
0.0155304
-0.00154527
0.0485009
0.0978307
-0.000867872
-0.0337416
0.000357351
0.00860231
0.0796307
0.0518029
0.0119658
0.0147008
0.0142355
0.0166896
0.00422412
-0.0317485
-0.032334
0.0298995
0.0722666
0.0713362
0.039559
-0.0391632
-0.0231025
0.039112
0.0424344
0.0164817
-0.000384875
-0.0106618
0.0104245
0.0471992
0.0617085
-0.014782
-0.0392104
0.0168107
-0.036698
0.063036
0.0750213
-0.0231407
-0.011727
0.0365023
-0.00417939
-0.00674014
0.0697553
0.109189
-0.00583493
-0.0388998
-0.00288479
0.0170008
0.0861691
0.0495681
0.00862679
0.00989157
0.0146359
0.00752467
0.0067944
0.00199225
-0.016045
0.0296705
0.0790369
0.0852355
0.037756
-0.0460247
-0.0125699
0.0514044
0.0409698
0.000147814
0.00211108
-0.00592439
0.0113366
0.0593939
0.067725
-0.0146795
-0.0301137
0.0154466
-0.0384514
0.0629841
0.0923012
-0.0132954
0.00303378
0.0580641
0.00908835
-0.00364394
0.0840226
0.121497
-0.00398553
-0.0399777
-0.00499202
0.0246921
0.0958955
0.0501051
0.00418418
0.00928906
0.00985171
0.000747676
-0.0030839
0.0391861
-0.00587698
0.024146
0.0861732
0.102509
0.0401215
-0.0492852
-0.00480455
0.057509
0.0345726
-0.0105254
0.000963283
0.00883793
0.0190631
0.0697489
0.0714171
-0.0117786
-0.0205988
0.018102
-0.0346625
0.0608861
0.103263
-0.000274944
0.0195759
0.0834248
0.0244921
0.00394014
0.0960968
0.137252
0.00463921
-0.0382963
-0.00859229
0.0324748
0.105386
0.0544908
0.00362005
0.0128334
0.00837021
-0.00116769
-0.00163165
0.0667287
0.00374742
0.0191905
0.0927044
0.119629
0.0349778
-0.0554832
0.00167556
0.0640587
0.0330355
-0.00951921
-0.000512382
0.0206095
0.0237077
0.0767887
0.0738347
-0.00793306
-0.00839634
0.0235783
-0.0320567
0.0634713
0.1102
0.0101892
0.0324678
0.0968926
0.0216676
-0.000720664
0.106444
0.156314
0.0177216
-0.038782
-0.017416
0.0377837
0.111267
0.0590469
0.00458304
0.0151193
0.0124643
-0.00144781
0.0170174
0.0804803
0.011583
0.0173848
0.100181
0.13385
0.0281228
-0.0685461
0.00226604
0.0800175
0.0421516
-0.00571078
-0.0119153
0.0283841
0.0213267
0.0827996
0.0756608
-0.00566457
0.00763326
0.0257316
-0.0327682
0.0704362
0.117783
0.0132366
0.0376304
0.0984286
0.0221748
-0.000627527
0.116002
0.169964
0.024958
-0.0414746
-0.0229003
0.0412475
0.114244
0.0598606
0.00492549
0.0142429
0.0154336
-0.00292834
0.0335291
0.0900267
0.0180827
0.0194519
0.105686
0.1377
0.0282756
-0.0721857
0.00325154
0.0985018
0.0493424
0.00081643
-0.0157032
0.0402409
0.0294379
0.0874492
0.0795511
-0.00466566
0.0177504
0.028308
-0.031941
0.0733454
0.121899
0.0139391
0.0399535
0.100842
0.0245331
0.0033462
0.125087
0.176943
0.0300221
-0.0420251
-0.0253987
0.0439873
0.115817
0.059633
0.00475437
0.0138092
0.0153486
-0.00339538
0.0411748
0.0945483
0.0209289
0.0225283
0.107698
0.139381
0.031584
-0.0688542
0.0109661
0.107952
0.0517539
0.00717196
-0.00098297
0.0531855
0.0327114
0.0889805
0.0848861
-0.00444081
0.0211876
0.030037
-0.0313289
0.074465
0.121941
0.0141326
0.0415711
0.0999842
0.0261066
0.00842427
0.129619
0.177901
0.0321647
-0.0408062
-0.0251459
0.0462243
0.116795
0.059204
0.00445203
0.0134194
0.0155627
-0.00290964
0.0427647
0.0961167
0.0224956
0.0249348
0.107685
0.139597
0.0329708
-0.0659215
0.015296
0.108975
0.0525721
0.00674487
0.00825055
0.0570388
0.0303239
0.0902273
0.086594
-0.002883
0.0215422
0.030316
-0.0294907
0.0757241
0.121518
0.0147946
0.0427533
0.100143
0.0272571
0.0108798
0.129806
0.177725
0.0328441
-0.0394971
-0.0234588
0.0478645
0.117439
0.0595135
0.00558649
0.0146857
0.0164914
-0.00203921
0.0439638
0.0968808
0.0236356
0.0257089
0.108032
0.139628
0.0334134
-0.0643177
0.0160947
0.109015
0.0529722
0.00863673
0.00982343
0.0562873
0.0310829
0.0912779
0.0866457
-0.00444704
0.00787712
0.00782217
-0.00382979
-0.038781
0.0340015
0.0300258
0.00583163
0.00851726
0.00845024
-0.0104719
0.0159667
0.00168632
-0.00767959
0.00430176
0.0108856
-0.00743878
0.00608843
0.0377978
0.048583
0.0125481
-0.011554
-0.00514649
-0.00970755
-0.0208286
-0.0145001
0.00147904
0.0135558
-0.0250264
-0.0145919
0.00299068
0.0245808
0.034072
-0.0085005
-0.00385815
0.0356212
0.0262748
-0.0638211
0.00356876
0.0353622
-0.012684
-0.0106618
-0.00565447
0.01049
0.0443783
0.0194637
0.0261314
0.00820123
0.00702259
0.0162496
-0.0117989
0.0185493
0.00542389
0.00870199
0.0162551
-0.00748998
0.005186
0.0277466
0.0189062
0.0163008
-0.00751018
-0.00841412
0.0179125
0.00729461
0.0114366
0.00532988
-0.00738571
0.0109522
0.0412394
0.0155754
0.0111822
0.000906177
0.008277
0.0324843
0.00353727
-0.0113918
-0.00489219
-0.0342422
0.0150169
0.0265103
0.0159875
0.0187978
0.0153764
0.0130585
0.0216635
0.0211548
0.0281523
-0.00106823
0.0181837
0.0173672
-0.00627713
-0.00173837
-0.0133188
-0.0104226
0.00509626
-0.00978662
0.013912
0.0213948
0.0106429
0.0116102
-0.0124574
0.0146247
0.00441178
-0.0082988
0.0059405
0.00396984
0.0104042
0.0172505
-0.00889056
-2.32504e-05
-0.00536713
-0.00677911
0.0129964
0.0158468
-0.00586359
0.00504136
0.0130463
0.00583634
0.00726515
0.0139535
0.00018767
-0.000206547
0.00717254
0.0134982
0.0101497
0.0189612
-0.00390272
-0.0244113
0.018504
0.0308558
0.00439346
0.00624945
0.0193896
0.0170826
0.00479069
-0.00411047
0.0129576
-0.00236936
0.0142115
0.0111211
0.0115868
0.02288
0.00965584
0.0153245
0.0289299
0.0147879
0.032913
0.00957308
0.0172292
0.00858869
-0.00488333
0.0157004
0.016217
0.0119242
0.0108069
-0.0139194
-0.0124882
0.0161919
0.0128366
0.00958943
-0.00856527
0.00216997
0.00746165
0.0172524
0.00856301
0.011779
0.00675678
0.00705296
0.0319353
0.0504433
-0.00374341
-0.00070585
0.000201528
-0.000962881
0.00596394
0.00134914
0.00615469
0.0067946
0.0152035
0.00706467
0.0177041
0.0124835
0.00953248
0.00136028
0.00195706
-0.00564012
-0.0142338
-0.0102141
0.0183619
-0.0024428
0.00756501
0.0273332
0.0120231
0.00394937
0.00921567
0.0120581
-0.00912614
-0.00267777
0.0180064
0.00382731
0.0226762
0.012055
0.0168433
0.0154932
0.0083609
0.00691083
-0.00568504
0.00141009
0.0402746
0.0216797
-0.0206495
0.013144
0.0123562
-0.00513621
0.00888281
0.0164355
0.0221025
0.0109973
-0.0049049
0.000932248
0.00972863
0.00674925
0.0162991
-0.00248483
-0.00155166
0.00320801
-0.0114195
0.00633814
0.00386132
-0.0148905
0.00906416
0.00857105
0.0103536
0.0129729
0.000293036
0.0174363
0.00355911
0.0126083
0.0031348
0.00818628
0.0281453
0.0230014
0.021809
0.0185092
0.0214343
0.00152415
-0.0132932
0.0349203
0.0622826
-0.0138772
0.00512294
0.0472053
-0.000489689
-0.0156016
0.00697266
0.0285988
0.0368289
-0.00255844
-0.00463485
0.000203171
0.0104073
0.0183091
0.00391246
0.00819078
0.0276582
0.00659686
0.00148927
0.0447324
0.023267
0.00754895
0.0170739
0.00935439
0.0134047
0.0285242
0.0157076
-0.00463945
0.00215489
-0.0190029
-0.00252779
0.0401699
-0.0062589
-0.00222866
0.0133175
0.0194058
0.015101
0.0150417
0.0180561
0.0292229
0.0328053
-0.010348
0.0137117
0.0191286
0.00262195
-0.000546074
0.0178791
0.0318542
-0.00529503
-0.019079
0.000298551
0.0270454
0.0416977
0.0265533
0.00197991
0.0102637
0.0343402
0.0157428
-0.000337282
0.00893606
0.0184945
0.0356756
0.0358806
0.00414336
0.00435858
0.0361366
0.0289518
-0.00456379
0.0119257
0.0664882
0.0828206
0.0285789
-7.9714e-05
0.0102819
0.00218471
-0.000795147
-0.00809422
-0.00531856
0.0163404
0.0117195
0.0117624
-0.00150978
0.0239941
0.0246101
-0.00383904
0.000438203
0.0303448
0.0291399
0.0180624
5.48452e-05
0.0120266
0.0313917
0.0380071
0.0120667
-0.0041235
0.00658217
0.0174783
0.00629615
0.0181494
0.0235106
0.0144291
0.0185315
0.0246968
0.00166403
0.000189806
0.0345621
0.0271431
0.0041307
0.0270028
0.0312735
0.00581245
-0.0253347
0.00630122
0.00388587
0.00833467
-0.00656184
-0.0170999
0.00324075
0.0242038
0.00938684
-0.0117018
0.00358028
0.0337866
0.0197957
-0.00581679
0.00206828
0.0296535
0.0413725
0.0148593
0.00639752
0.0106983
0.0146082
0.025998
0.00731386
-0.00317896
0.00460211
0.0187885
0.00939046
0.00667982
0.0121948
0.00971587
0.026156
0.0131662
-0.0166406
-0.00868867
0.0420047
0.0217688
-0.0121054
0.0199952
0.0128879
0.0226333
0.0209326
-0.00403521
-0.00320721
0.00514471
-0.0186082
-0.00850034
0.0318957
0.0184362
0.0164978
0.017196
0.0153957
0.0262469
0.00835204
0.00543358
0.0298587
0.0263845
0.0193933
0.0027157
0.00294994
0.0134966
0.0306537
0.0150521
0.00517678
0.00182498
0.014048
0.0303646
0.0175379
0.0127169
0.0149502
0.00755066
0.0101698
0.000368388
0.00357543
0.0205021
0.0306101
0.0121524
-0.0133517
0.00900433
0.0119322
0.0339568
0.0227634
-0.00608044
0.00221082
0.00339113
-0.0295726
0.00272178
0.0209647
-0.00342281
0.0088932
0.038744
0.0222473
0.00902168
0.00290975
0.0106289
0.0186067
0.018376
0.0205308
-0.00584312
0.00100251
0.0225034
0.0328839
0.0115734
0.00996842
0.00244091
0.0123522
0.0274104
0.0284548
0.0249999
0.00852135
0.00915836
0.0073108
0.00897018
0.013562
0.0204032
0.0408591
0.0182213
-0.0188408
-0.00106639
0.0110382
0.0155047
0.032007
-0.0162412
0.00303514
-0.00204799
-0.0279102
0.0285946
0.0354485
-0.00585014
0.0036896
0.0332025
0.0269217
0.0124301
0.00713539
0.000584844
0.0115163
0.0317964
0.0118463
-0.00437487
0.00567611
0.0170837
0.0166435
0.0124414
0.0184236
2.65304e-05
0.00349019
0.0192901
0.028852
0.0252782
0.00854123
0.00962
0.00261518
0.0246818
0.0145017
0.00619169
0.032191
0.00105002
-0.0267172
-0.0012358
0.0128128
0.037481
0.0453404
-0.0247426
-0.000561484
-0.00114725
-0.0164098
0.0391177
0.0257918
-0.0218654
0.00101613
0.0461426
0.0454685
0.0145331
0.0122014
0.00654974
0.0105188
0.0115543
-0.0175166
-0.0102276
0.00848461
0.0183121
0.00730938
0.00361595
-0.00453312
-0.00757121
0.00191059
0.0177027
0.0318346
0.027318
0.00861254
-0.006701
-0.000672298
0.0336462
0.0133975
0.0116026
0.0434587
0.00127977
-0.0224233
0.00586555
0.0179952
0.0365033
0.040149
-0.0375029
0.0200273
-0.00435951
-0.012557
0.0250807
0.00804942
-0.0330718
0.0131193
0.0376277
0.0140587
0.000488647
0.0162989
0.0156411
-0.00866951
-0.00794743
-0.0174366
0.00262856
0.0141575
0.0125441
-0.000707873
0.000236691
0.00623445
-0.00843896
-0.00141414
0.0289286
0.0323686
0.00781683
-0.00302601
-0.0195527
-0.000717865
0.0311581
0.0077736
0.0121988
0.0276408
-0.00362439
-0.0143774
0.0102118
0.0267238
0.0368178
0.00163378
-0.027493
0.0306361
-0.00293824
-0.0135579
0.0186831
-0.021126
-0.021407
0.0278787
0.0308315
0.00431666
0.000311417
0.0135078
0.0206905
-0.00915032
-0.00303914
-0.00340007
0.0124306
0.0150506
0.0100039
2.40858e-05
0.00474519
0.0144078
0.00047618
0.00123171
0.021273
0.0259198
-0.000702372
0.004282
-0.0141021
0.00335536
0.0311764
0.00212553
0.00154346
0.0124276
0.00358356
-0.00241792
0.00888397
0.0248881
0.0262561
-0.00647439
-0.00531787
0.0299901
-0.010018
-0.023216
0.0104005
0.00608366
-0.00413797
0.0299366
0.0332824
0.0231542
0.00562388
0.0168795
0.023897
-0.00423153
0.0001633
0.00958508
0.0163609
0.0243759
0.011919
-0.00100484
0.0123061
0.0196759
-0.00705215
0.00287657
0.0230179
0.02013
0.00647092
0.0034901
-0.0148804
0.0170419
0.0342823
-0.0026855
-0.00619082
0.0184852
0.0135228
-0.00139531
0.000509208
0.019238
0.0344777
0.0110954
0.00281096
0.0242162
-0.0198605
-0.032056
0.00427857
0.0096491
-0.00246594
0.0232651
0.0439062
0.0195466
0.000593259
0.0169968
0.0279553
-0.000758866
-0.001022
0.0158315
0.0201096
0.0250134
0.00992497
-0.0026414
0.0124085
0.0131442
-0.0115093
0.00598595
0.0205027
0.0163246
0.0118256
0.00501678
-0.00838669
0.0237411
0.0278186
-0.00256816
0.0013263
0.0140025
0.0161252
-0.00633756
-0.00938282
0.0183142
0.0296471
0.0103493
0.00315067
0.021313
-0.0159054
-0.0334161
-0.0085184
0.0129888
0.0122365
0.0170783
0.0253928
0.0190538
0.00503917
0.0177311
0.0387497
0.00716261
-0.000554863
0.0174388
0.0151612
0.00345833
0.00862169
0.00283718
0.0165841
0.00909882
-0.0116965
0.00868275
0.0157806
0.019539
0.0139051
0.00653921
-0.00492286
0.0235124
0.0227976
-0.00196945
-0.00024556
0.0157223
0.0197326
-0.00861014
-0.0155119
0.0133705
0.0291582
0.0129901
-0.00044966
0.0178518
-0.0118328
-0.0291442
-0.0106853
0.0329275
0.0328866
0.0116923
0.0199392
0.0305957
0.00910093
0.0170465
0.0326429
0.010531
0.000724797
0.0184502
0.0107573
-0.00365154
0.010539
0.0075497
0.0194955
0.00674545
-0.00939796
0.0126432
0.011559
0.025013
0.0170015
0.00161522
-0.0069205
0.0134682
0.0155443
-0.00015773
-0.000989164
0.0133582
0.0195102
-0.00877466
-0.0184347
0.0108551
0.0331405
0.0142065
-0.00209676
0.0125832
-0.00896679
-0.0258125
-0.0166107
0.0415677
0.0409355
0.0116017
0.0204709
0.0231699
0.00806234
0.021622
0.036456
0.00934155
0.000184434
0.0200013
0.00645306
-0.00704858
0.0120228
0.00956444
0.0182313
0.00506968
-0.00824629
0.0146727
0.00749009
0.0313142
0.0218442
-0.00125456
-0.00973876
0.00663139
0.0142389
0.00238977
-0.00302117
0.00919603
0.0197029
-0.00541197
-0.0186057
0.0125692
0.0342714
0.0168844
-0.00293192
0.00538187
-0.00086569
-0.0225741
-0.0162102
0.0461615
0.0466596
0.0112291
0.0149316
0.0223217
0.00869921
0.0231976
0.0507987
0.00711531
-0.00084821
0.0210307
0.00451319
-0.00791301
0.00624519
0.00663323
0.018247
0.00696825
-0.0054862
0.0159306
0.00903938
0.0375225
0.0264971
0.000400606
-0.0127646
0.00751333
0.0166961
0.00381677
-0.00690836
0.0117408
0.0241362
0.000484636
-0.0139942
0.0163595
0.0360592
0.0226147
-0.00406071
-0.00260961
0.00507637
-0.0224221
-0.0129986
0.0494404
0.0407419
0.00745194
0.020387
0.0242695
0.00872423
0.0266629
0.0528321
0.00364613
-0.00013429
0.0202309
0.00110826
-0.00667765
-0.00155095
0.00238589
0.0178906
0.0091697
-0.0027115
0.0165512
0.0107298
0.0419758
0.0324492
0.0038838
-0.0157312
0.0084427
0.0194116
0.00568372
-0.0124921
0.0116315
0.0271594
0.00252116
-0.00698371
0.0224972
0.0378556
0.026826
-0.0074921
-0.0099589
0.0117707
-0.0238716
-0.00868234
0.0498001
0.0367851
0.00281155
0.0289477
0.0277721
0.0144264
0.0329901
0.0453822
0.00145404
0.0018121
0.0152834
-0.00371025
-0.00159439
-0.00253042
-0.00312533
0.0153433
0.01056
0.00117586
0.0171934
0.011553
0.0553251
0.0375884
0.00612122
-0.0198463
0.00593069
0.0238443
0.00665609
-0.0184548
0.01421
0.0271736
0.000819572
-0.00315092
0.0285342
0.0420864
0.0278178
-0.0111963
-0.0120017
0.0192609
-0.0232223
-0.00386663
0.0539175
0.0289964
0.00466237
0.0363818
0.0310345
0.0207593
0.0357717
0.0381947
0.00080747
0.00397442
0.00715554
-0.00594231
0.00570878
0.00059355
-0.00778444
0.0105883
0.0118451
0.00610338
0.019001
0.0175834
0.0598713
0.0409312
0.00827968
-0.0242462
0.00205555
0.0288176
0.00751535
-0.0236217
0.0170092
0.0268627
-0.000926485
0.00227322
0.0364477
0.04471
0.0232115
-0.0144627
-0.0115115
0.0257438
-0.0217536
-1.38772e-05
0.06159
0.0243016
0.0100261
0.045572
0.0335066
0.0262148
0.0334218
0.0350086
0.00142181
0.00432739
0.00394152
-0.00369026
0.011004
0.00343906
-0.0143589
0.00576554
0.0132631
0.0112275
0.0153585
0.0223447
0.0634656
0.0436423
0.00754086
-0.0280682
-0.00231168
0.0314757
0.00827832
-0.0268365
0.0204504
0.0295063
-0.000694558
0.00711796
0.0413621
0.044002
0.0208552
-0.0177887
-0.0108074
0.0317347
-0.0195438
0.00155675
0.0648851
0.0212192
0.0148409
0.050217
0.0340201
0.0314304
0.0303766
0.0325476
0.00245583
0.00322111
0.000588667
-0.000117392
0.0138893
0.00360533
-0.0223598
0.00539612
0.0152018
0.0147396
0.0101783
0.0258432
0.0657292
0.0453805
0.00489395
-0.0311229
-0.00459027
0.0325649
0.00812298
-0.0288666
0.023193
0.0320871
0.000511534
0.00853185
0.0437413
0.0414797
0.01567
-0.0210265
-0.00927297
0.0370926
-0.0174596
0.0019516
0.0642447
0.0182416
0.0185715
0.0490825
0.0342442
0.037139
0.0291512
0.0314935
0.00367982
0.00194073
-0.000813665
0.00313813
0.0150675
0.00338736
-0.0266954
0.00827248
0.0174508
0.0155565
0.0121923
0.0267181
0.066086
0.0461576
0.00153103
-0.0346928
-0.00518059
0.0325704
0.00772267
-0.0294996
0.0245677
0.0327588
0.000516869
0.00990586
0.0465108
0.0404775
0.0121621
-0.0242613
-0.00651611
0.0410727
-0.015513
0.00140794
0.0627692
0.0162736
0.0209372
0.0495512
0.0361008
0.0358894
0.0272062
0.0321179
0.00459056
0.000899286
-0.00181547
0.00549885
0.0160748
0.00338679
-0.0268307
0.0106405
0.0202291
0.0147611
0.0179122
0.0258262
0.0660963
0.0447086
-0.00215904
-0.0374152
-0.00443856
0.0319684
0.00672564
-0.0264456
0.0246113
0.0306798
-0.0041016
0.0128396
0.0506412
0.0417369
0.0108575
-0.026229
-0.00246437
0.0443783
-0.0158088
0.000620719
0.0617846
0.0150659
0.0230094
0.0504726
0.0336425
0.0327519
0.0277506
0.0351382
0.00561632
-0.000744826
-0.00274528
0.0077095
0.0165373
0.00361521
-0.024033
0.0127238
0.021468
0.0144738
0.0201611
0.0255868
0.0665823
0.0432765
-0.00394741
-0.0384685
-0.00338666
0.0316602
0.00456556
-0.0212522
0.0261497
0.0288795
-0.00700268
0.0174055
0.0543907
0.0436961
0.0107189
-0.0255076
0.000507455
0.0445777
-0.0173412
0.000994319
0.0612199
0.0152255
0.0244448
0.0507286
0.0329117
0.0328434
0.0293836
0.037023
0.00610125
-0.00155629
-0.00318283
0.00861137
0.0162923
0.00445599
-0.02178
0.0136807
0.0212208
0.0142752
0.0209381
0.0261626
0.0674117
0.0420833
-0.00465139
-0.0375086
-0.00165885
0.0314267
0.0034321
-0.0181142
0.0261532
0.0276319
-0.00587754
0.0208813
0.0550566
0.0429781
0.00941377
-0.0245127
0.00116781
0.0445042
-0.0169827
0.00152003
0.0606625
0.0154995
0.0248379
0.0506287
0.0329323
0.0328002
0.0300493
0.037669
0.00631007
-0.00166032
-0.00344325
0.00860794
0.016506
0.00500457
-0.021016
0.0137419
0.0210541
0.0142197
0.021164
0.0268432
0.067776
0.0419188
-0.00446806
-0.0367021
-0.000675889
0.0311672
0.00311312
-0.0171655
0.0267959
0.0277315
-0.00533208
0.0214005
0.0546713
0.0430644
0.00960761
0.00893531
0.0349771
0.0271767
0.0337862
0.0416803
0.0415515
0.0151367
0.00144996
0.0206827
-0.0132337
0.00303173
0.0144784
0.0111131
-0.00674229
-0.00669373
0.00319277
0.0142005
0.0478133
0.0340202
-0.0132034
-0.0406734
-0.0339383
0.000324112
-0.00984285
0.00221335
0.0232383
0.000149546
0.0238961
0.0327176
0.0146413
0.00277055
0.0117115
0.0162407
0.00486965
0.00911573
0.0294728
-0.0364431
-0.0585041
0.0248185
0.0298847
0.00575814
0.00488565
0.0111207
0.0328931
0.0196791
0.00190379
0.0123671
0.0181828
0.0274209
0.023481
0.0077744
0.00261766
-0.00765493
0.00470463
0.019179
-0.0138962
-0.0178554
0.00171108
0.00251769
0.000528695
0.0289663
0.012558
0.0072147
0.0143381
0.00945049
-0.0022536
0.00300555
0.0184384
0.0237167
-0.0189161
-0.016883
0.000444059
-0.0208302
0.00664285
-0.000561569
-0.00177225
-0.0214866
-0.0302784
-0.00314196
0.00667641
0.0342921
0.00793776
0.0112576
0.0204247
0.000616515
0.00897092
0.011425
0.0192645
0.0208341
0.000470922
-0.0106687
0.00628629
0.00279072
-0.000727075
0.00873355
-0.00448389
0.00676522
0.00741836
0.00649712
0.016071
-0.00286801
0.0181974
0.0121237
-0.00404438
0.000787874
5.00752e-05
0.010769
0.0122821
0.00375796
0.00346576
-0.00401558
0.00456967
0.0122438
0.00580567
0.00252889
0.00523536
-0.0146557
-0.00330634
0.0153758
0.0147658
-0.0190633
-0.00633403
0.023966
0.0361633
0.0102623
0.00136476
-0.00442049
0.00498706
0.00753361
-0.000969404
-0.00270579
0.0130519
0.0115375
-0.00143634
0.00280735
0.00924451
0.0112174
0.00679787
0.0131191
0.0158871
0.0101087
0.00650677
0.00779535
0.0120043
0.00931712
-0.0056645
0.00911024
0.00440193
0.0110177
0.00997236
0.00807287
0.0168314
0.0100939
0.011427
0.0163274
0.00382165
-0.00259061
0.0117641
0.00361667
-0.0016877
-0.00886952
0.00323226
0.00965902
0.0128494
0.0108102
-0.00173687
0.00303372
0.0135739
0.0175201
-0.0372357
-0.00502035
0.0130105
0.0103898
0.00514185
0.00582034
0.0198565
0.00524341
-0.00032289
0.011291
0.0165953
0.0143815
0.010531
0.00730139
0.0122003
-0.000197451
-0.000914739
0.018005
0.00993955
0.00514625
0.0067414
0.0180046
0.0195073
0.0085478
0.0129747
0.013163
0.00301075
0.00309949
6.72566e-05
0.0160468
0.00309074
0.0183554
0.0134385
0.00137218
0.00521287
0.0049562
0.00948769
0.00739223
0.00358847
0.00936702
-0.00413315
0.00618951
0.0166587
0.0178318
0.0207499
0.0186361
0.0156713
0.00827677
0.00925868
0.00892027
0.0133749
0.00604798
0.00942362
0.00764946