/*--------------------------------*- C++ -*----------------------------------*\
  =========                 |
  \\      /  F ield         | OpenFOAM: The Open Source CFD Toolbox
   \\    /   O peration     | Website:  https://openfoam.org
    \\  /    A nd           | Version:  10
     \\/     M anipulation  |
\*---------------------------------------------------------------------------*/
FoamFile
{
    format      ascii;
    class       volTensorField;
    location    "14";
    object      gradientUWrite;
}
// * * * * * * * * * * * * * * * * * * * * * * * * * * * * * * * * * * * * * //

dimensions      [0 0 -1 0 0 0 0];

internalField   nonuniform List<tensor> 
25600
(
(0.264288 -0.152917 -0.518913 27.8661 -0.768747 -2.08479 1.15446 -0.135076 -1.26676)
(0.484661 0.0114535 -0.0163223 44.7891 -1.74671 -14.5099 2.10502 -0.1096 -0.458868)
(-0.0867126 0.122411 0.544658 52.5456 -1.98545 -7.11515 -0.38572 0.116106 0.722895)
(-0.240712 0.0198848 0.321819 29.5715 -1.67364 12.1581 -2.08431 -0.00246682 0.477211)
(-0.205417 -0.108422 -0.359028 34.6813 -0.815461 10.1609 -1.81271 -0.10999 -0.601285)
(0.385934 -0.0653642 -0.756704 27.9886 -0.724495 -1.83706 0.853786 -0.127904 -1.30273)
(1.43641 -0.0741766 -0.622509 63.9787 -2.20209 -28.9981 2.63685 -0.108068 -1.19983)
(0.551146 0.0332712 0.334843 106.771 -3.24335 -38.8578 2.15531 0.030442 0.607281)
(-0.789841 0.0707481 0.962715 98.1315 -1.9742 -15.0594 -0.708202 0.138944 0.939362)
(-0.827245 -0.0146453 0.381906 60.4811 -0.803944 10.4785 -1.74351 0.00803317 0.0711787)
(-0.393317 0.0143205 -0.211291 41.502 -0.606492 6.52305 -1.69049 -0.0384848 -0.676342)
(-0.197708 0.0343503 -0.0292112 33.7493 -0.109408 -0.851589 -0.734112 -0.159886 -1.03569)
(-0.40443 0.0496898 0.165861 32.31 -0.48883 6.65851 -1.1623 -0.00914206 -0.390647)
(0.126941 -0.0164712 -0.401374 14.8808 -0.109409 10.9076 -0.607515 -0.145529 -1.3986)
(0.518119 -0.0216497 -0.254891 47.365 -1.68666 -13.4663 1.74499 -0.1092 -1.04442)
(-0.235444 0.00788836 0.191103 40.1618 -2.38755 0.0769327 -0.260759 0.0485202 0.62149)
(-0.20908 -0.0545858 -0.225856 26.5783 -0.626574 -2.83669 -0.695519 0.000538353 -0.661992)
(0.148142 0.0205191 0.0830005 42.5548 -0.588693 -17.8103 1.3514 -0.175662 -1.25843)
(0.0931453 0.0648278 0.52179 39.8463 -1.91601 -0.229979 0.385068 -0.0396424 -0.173246)
(-0.112966 0.0340918 0.184074 32.8827 -1.68002 10.6163 -1.44968 -0.00403117 0.0366136)
(-0.342171 -0.0532138 -0.17491 22.1012 -0.24587 6.42009 -1.67873 -0.0778126 -0.637779)
(-0.0785129 -0.122782 -0.342776 18.4828 0.207029 -2.92131 -0.427045 -0.182663 -2.02829)
(0.105948 -0.0595671 -0.323195 37.2381 0.329536 -12.7391 1.31274 -0.267142 -2.3656)
(-0.140366 0.100876 0.14834 35.8996 -0.500475 -12.8175 2.24309 -0.291668 -1.19692)
(-0.000318584 0.184026 0.560367 18.6014 -1.57676 -0.472535 0.190238 -0.0199513 0.191686)
(0.00174006 -0.0572917 -0.1035 17.8323 -0.606623 15.0318 -1.30525 0.025185 -0.237604)
(0.259113 -0.167928 -0.681426 27.3331 0.0320596 -6.91461 1.06165 -0.246049 -2.05882)
(1.07602 -0.0519478 -0.390624 45.7571 -0.881734 -24.3684 2.24932 -0.131014 -1.83593)
(1.01623 0.0142727 -0.0232712 80.7664 -2.97889 -30.6048 1.73354 -0.0765727 -0.0559449)
(0.162471 0.0891333 0.594214 96.8949 -3.51824 -21.7255 0.724127 0.109217 1.50145)
(-0.920567 0.0518719 0.507895 84.493 -2.58007 6.31853 -1.70976 0.412352 1.84559)
(-1.00556 -0.0390914 -0.2409 45.1408 -1.08684 6.21416 -0.533745 0.000752355 -0.050628)
(-0.0349932 -0.061052 -0.45983 38.5869 -0.777128 -8.5612 1.05088 -0.13247 -1.32635)
(0.711803 -0.00872693 0.209824 45.2238 -1.61919 -19.4774 1.77563 -0.254077 -1.08857)
(0.213067 0.0661301 0.759498 64.595 -1.46301 5.92986 -1.38341 0.128973 -0.28966)
(-0.441069 0.0926289 0.402719 45.7529 -0.956029 19.6659 -2.76536 0.0429165 0.01512)
(-0.491633 0.000840275 -0.339083 33.4966 0.0864616 20.8512 -3.72595 0.000626671 -0.682599)
(-0.127894 -0.058689 -0.579742 22.4568 0.259839 1.87214 -1.38637 -0.025886 -1.12455)
(-0.0278379 0.114374 0.171422 36.877 -1.41186 -4.72068 -0.470838 0.11111 -0.0907537)
(-0.241378 -0.00908769 0.00931115 18.4205 -0.774445 11.3602 -1.41458 0.056677 0.0270496)
(1.08603 0.117444 -0.779919 23.3318 4.62772 -15.5828 2.62982 -0.127323 -2.81304)
(0.75543 -0.0761243 -0.244688 28.2196 3.93481 -16.7675 3.12523 -0.0742637 -0.85591)
(-0.699148 -0.130837 0.793256 34.1889 3.85966 -23.9516 0.426394 -0.0143816 0.596513)
(-0.66794 0.0392134 0.548009 22.1553 1.59839 -19.171 -2.90794 0.262249 1.03446)
(0.143312 0.16882 -0.335779 18.146 4.26634 -14.2017 -2.33543 0.309262 -1.54203)
(1.10513 -0.000497702 -1.21218 27.8941 4.2049 -19.0715 2.21198 -0.0245424 -2.25041)
(2.53332 -0.0499193 -1.24815 38.7983 2.69829 -15.706 4.43962 -0.311212 -1.69485)
(1.17691 -0.0246995 0.359437 44.215 1.64218 -11.332 2.49767 -0.249234 1.49138)
(-1.54806 0.0495425 1.51694 45.4061 3.425 -24.3423 -3.25325 0.0303302 2.27904)
(-2.04674 0.0875195 0.706755 36.5981 5.30087 -18.4511 -3.6419 0.23131 0.284144)
(-0.963059 0.0205103 -0.359141 21.9846 5.05739 -16.536 -1.45289 0.181885 -1.49235)
(-0.262451 -0.0316418 0.0392048 18.6754 5.47651 -17.5319 -1.04285 0.228746 -1.7301)
(-0.540283 -0.0546585 0.431519 21.1414 5.37082 -13.8616 -1.88601 0.106074 -1.08756)
(0.646408 -0.0444221 -0.609239 14.15 4.59597 -11.0838 -0.176435 0.141573 -1.94864)
(0.750032 -0.0951306 -0.285107 39.271 4.40398 -18.3472 4.0501 -0.169857 -1.5361)
(-0.826316 0.0466714 0.344777 30.4554 2.63022 -18.2345 -0.534752 0.0644805 1.36808)
(0.35493 0.153965 -0.68548 19.9769 4.32165 -14.8371 -0.352925 0.0966167 -0.996867)
(0.529787 -0.089894 0.0448 35.2582 5.7322 -25.0273 3.1422 0.106784 -2.11358)
(-0.607456 -0.12829 0.91023 35.7004 4.18765 -20.4106 1.63261 0.172588 -0.362622)
(-0.802236 0.0496995 0.144729 22.8486 3.18582 -15.9798 -1.4585 0.255651 -0.0774079)
(-0.37545 0.15706 -0.514416 12.3828 2.92995 -16.2245 -1.83887 0.180711 -0.601963)
(0.87668 0.165102 -0.62328 19.9802 6.26748 -17.033 0.63387 0.0515663 -2.77241)
(0.792814 0.0285836 -0.161181 37.9325 8.12826 -28.7271 3.27658 0.00889137 -4.16662)
(-0.818648 -0.210493 0.477285 50.389 7.69274 -27.3685 5.71182 0.0847489 -2.46107)
(-0.942974 -0.207969 0.837652 38.1327 3.5518 -23.8805 2.55526 0.0693698 0.699029)
(0.453985 0.147019 -0.222501 12.9003 1.51291 -14.1645 -1.95397 0.0541583 -0.0698782)
(1.17298 0.170356 -1.30758 30.362 6.04075 -20.627 3.21321 0.0175041 -2.74847)
(1.60622 -0.100064 -0.807216 35.4685 5.78489 -22.1418 4.62806 -0.127995 -2.9843)
(1.55213 -0.153356 0.163585 44.0845 3.71715 -18.0173 2.59405 -0.0555567 -0.866446)
(0.0158536 -0.0772227 1.27419 35.8152 1.53958 -18.9973 0.506589 -0.149041 2.79484)
(-1.68954 0.0698883 0.900092 19.2656 1.70327 -11.9269 -4.9374 -0.25742 3.53362)
(-1.29072 0.137134 -0.511904 23.0181 4.5891 -10.5476 -1.31795 0.0930115 -0.138346)
(0.0428248 0.0393618 -0.835586 32.2407 6.11961 -17.2227 3.10484 -0.0291517 -2.2818)
(0.574946 -0.0262113 0.525795 37.0903 5.09357 -24.0264 4.76607 0.0982381 -2.26671)
(-0.206747 -0.0381178 1.20829 23.8071 5.90489 -14.5575 -3.30462 0.165511 -1.68387)
(-1.13852 -0.0209909 0.336077 18.8254 4.17528 -16.3481 -5.31985 0.42302 -0.960246)
(-0.675526 0.0625579 -0.556049 9.56886 5.31656 -20.8727 -5.99897 0.377784 -1.57588)
(0.317175 -0.0136718 -0.697433 20.7814 4.41405 -23.1873 -1.80569 0.00442672 -2.19051)
(-0.18012 -0.179812 0.306825 26.1265 3.42577 -20.1541 -0.164421 -0.209246 -0.248183)
(-0.204957 0.043574 0.127381 15.1606 1.65728 -17.7054 -2.23119 -0.0438859 0.556001)
(0.93213 -0.0491476 -0.43895 13.9113 -1.73168 -9.81016 2.99634 -0.455122 -2.8683)
(1.08113 -0.0239009 -0.474127 5.17164 -3.67236 -1.09928 2.45234 -0.459063 -0.37353)
(-0.373763 0.0135487 0.381765 17.6459 -1.99066 -16.3651 -0.676345 0.276683 0.286144)
(-1.11937 0.0413085 0.859162 23.002 -1.5355 -16.3302 -2.00322 0.381465 0.648989)
(0.089305 0.0135534 -0.355641 15.1242 -1.9036 -9.15852 -1.57452 0.217514 -1.36749)
(1.50013 -0.161906 -0.797555 19.0847 -1.95425 -9.66342 3.65037 -0.111949 -2.28054)
(2.26407 -0.223785 -0.115452 16.5651 -4.90673 3.14618 4.51808 -0.629865 -0.896288)
(0.868072 0.0808042 -0.163619 5.79776 -6.45868 15.2589 0.281661 -0.25065 0.268586)
(-1.15148 0.282995 0.498428 9.22353 -3.95662 -8.59106 -4.73919 0.410206 2.98598)
(-2.05045 0.0688908 0.797755 22.0749 -2.08957 -13.5068 -3.84763 0.32571 0.950204)
(-1.36569 0.0237891 -0.143712 12.3905 -0.758784 -9.21312 -1.55544 0.00807241 -1.77867)
(-0.23966 0.0589497 0.117547 8.59996 -2.37781 1.02634 -0.564631 -0.0542693 -0.637136)
(-0.65075 0.00955269 0.509623 13.021 -1.50548 -1.98777 -0.896461 0.234654 -1.13902)
(1.11622 -0.0692037 -0.638205 11.0662 -2.45644 -4.42688 1.47384 -0.0329501 -1.571)
(1.43139 -0.1272 -0.662547 16.7599 -3.76249 -5.85671 3.86403 -0.359141 -1.23092)
(-1.28447 -0.000717986 0.377327 29.871 -2.02513 -18.9285 -0.636006 0.23117 0.597378)
(0.0103552 0.102715 -0.570024 25.7092 -2.07023 -11.5294 -0.124184 0.245816 -0.516458)
(1.01302 0.0238638 -0.233276 14.2941 -4.24978 -9.0291 1.93195 -0.371561 0.228353)
(-0.549511 -0.0621064 1.00257 27.6792 -2.65549 -11.0763 1.75954 0.221587 0.4802)
(-1.38323 -0.0397013 0.428426 25.113 -1.07547 -11.1982 0.890343 0.395602 0.0253436)
(-0.503582 0.102747 -0.201451 14.7721 -1.10547 -4.12462 0.524095 -0.106023 -0.785941)
(1.29335 0.146982 -1.03278 11.6685 -4.56651 2.96169 1.97676 -0.199851 -0.734589)
(1.78371 0.0134742 -0.932985 25.238 -4.08429 -8.9355 3.7466 -0.514798 -2.1441)
(-0.0610452 -0.130825 0.393797 35.4151 -2.76441 -17.8579 4.86006 -0.342651 -1.67873)
(-2.05912 -0.131698 1.29097 43.8514 -0.642035 -26.3563 3.70714 0.24898 0.473563)
(-0.489768 0.0652245 0.0952581 20.8135 -1.03458 -14.214 -0.813051 0.15257 0.188323)
(1.46388 0.0435948 -1.07697 13.9737 -3.96118 -9.71068 4.44945 -0.59763 -1.18613)
(1.81111 -0.180586 -0.199088 19.6171 -2.77599 1.55657 5.81542 -0.574887 -2.18824)
(0.982556 -0.212783 0.138643 14.6071 -3.48044 11.2312 2.16317 -0.348151 -0.977496)
(-1.24827 -0.00989365 0.876007 2.14784 -3.44776 -2.84111 -0.608933 0.105603 1.35136)
(-1.57864 0.225211 0.953959 -1.06894 -3.48133 -10.4727 -5.36169 0.562504 2.63453)
(-0.231854 0.196927 -0.517954 9.62574 -4.07659 -2.7889 -2.68405 0.0911247 1.51747)
(0.765422 -0.0421198 -1.19637 18.9185 -5.04679 -3.36684 2.52974 -0.244621 0.790665)
(0.241127 -0.0193107 0.331297 17.1522 -2.18021 -6.04971 5.37033 -0.252514 -1.63651)
(-0.793952 0.0238152 1.1556 7.89818 -1.42509 -11.6123 -2.73981 0.618595 -1.73395)
(-1.18906 0.070201 0.0466861 10.8364 -1.05447 -14.914 -4.90169 0.460554 -1.24772)
(-0.360906 0.00838173 -0.710177 11.777 -1.19849 -15.9344 -3.46536 0.394845 -1.8877)
(0.778545 -0.171782 -0.526702 18.2421 -0.852757 -16.877 1.07953 -0.0543077 -3.18252)
(-0.335426 -0.0145372 0.472718 18.0835 -1.06797 -14.9358 1.23787 -0.080346 -1.10805)
(-0.405529 0.054677 0.260045 12.7606 -1.61971 -10.8917 -1.54592 0.0802548 0.63768)
(0.621982 0.0044263 -0.195378 3.66177 4.27328 2.39158 2.86494 -0.518257 -2.07698)
(0.958798 -0.0977072 -0.635851 -4.57959 2.8432 8.28745 2.85773 -0.392496 -1.24437)
(0.39475 -0.0102781 -0.127812 7.08519 2.3196 -4.40345 -1.45324 -0.167288 -0.03958)
(-0.78211 0.044504 0.972169 10.6541 1.1391 -9.11434 -1.16396 0.43951 0.888597)
(-0.0987666 0.15789 0.0873821 9.17518 3.71625 -6.877 -1.71079 0.200239 -1.12598)
(1.15667 -0.174081 -0.47629 10.7476 3.39351 4.83401 4.03528 -0.0767238 -2.127)
(1.72084 -0.317101 0.213053 -4.09688 2.46464 3.15071 4.069 -0.39794 -1.15492)
(0.743992 0.024774 -0.32976 -17.1472 4.03381 5.34856 0.114089 -0.060827 -1.12232)
(-0.559408 0.302217 -0.198489 -5.87836 -0.475318 3.50303 -4.55952 0.284978 3.42956)
(-1.8463 0.291405 0.658357 8.95334 2.8279 -5.31169 -3.99137 -0.00667204 1.60474)
(-1.77408 0.00197258 0.537449 7.19414 6.92236 -4.76434 -1.48574 0.0609323 -1.93866)
(-0.2249 -0.0878729 0.487832 0.71251 2.60968 2.69165 -1.37109 0.187279 0.400752)
(-0.373432 -0.0660463 0.0792026 3.83773 2.81181 3.46318 -1.67827 0.195 0.488712)
(0.835632 -0.184531 -0.850763 10.8467 2.60991 -1.75578 2.4619 0.268713 -1.17065)
(1.86989 -0.0646759 -1.1635 -11.6365 0.861128 8.41803 3.05325 -0.344516 -0.988098)
(-0.215129 0.158319 -0.016852 16.6197 1.53887 -10.3599 -0.662515 0.144627 0.153865)
(-0.594684 0.0185473 -0.071634 24.1968 4.24376 -12.5557 1.63442 0.121553 -0.711483)
(0.605918 -0.138243 0.101233 4.052 0.459325 1.76655 1.01434 -0.170112 0.701592)
(0.0702295 0.0656289 0.763966 12.2874 -0.0267484 -5.70905 1.24232 0.129406 1.29892)
(-1.55954 0.156561 0.555534 18.3343 3.52093 -8.28342 2.58441 0.260555 -0.169746)
(-1.21199 -0.0580545 0.348838 7.28892 5.23919 1.24033 2.97192 0.196958 -1.54443)
(1.4962 -0.0212727 -0.88626 -1.27534 -0.00734454 2.82593 2.44128 -0.152539 0.681514)
(2.19392 0.143941 -1.39928 8.30299 1.34219 4.11946 3.33652 -0.627862 -1.18739)
(0.281494 -0.000995059 -0.614927 1.63543 3.49254 4.07672 3.03868 -0.488066 -0.749315)
(-1.75382 -0.106314 1.02253 23.1158 4.43718 -14.4682 2.66212 -0.107954 0.586302)
(-1.33917 -0.054489 0.797313 23.1855 2.69018 -15.1016 0.608002 -0.116798 0.292883)
(1.06831 0.0730174 -0.334332 6.728 2.35659 -4.08524 4.86537 -0.807709 -0.144977)
(1.62575 -0.0616416 0.454981 1.63191 2.76264 5.87568 5.86406 -0.548237 -1.45078)
(0.505466 -0.189853 -0.111745 -20.058 3.53685 11.387 1.71673 -0.0803571 -1.69087)
(-0.848076 -0.0840117 -0.0571418 -3.35836 2.7259 7.85203 -0.470921 -0.0128387 -0.108906)
(-1.22821 0.0146312 0.898004 13.0648 2.04955 -12.2005 -2.55642 0.186128 0.850596)
(-0.133895 0.0322579 -0.0623852 12.0233 -0.384911 2.34009 -3.37052 0.0275829 1.91913)
(0.446053 0.167313 -1.00551 10.2598 -1.21048 -1.18423 2.81066 -0.469414 2.23459)
(-0.0878802 0.201899 0.0243373 2.2965 2.83484 5.59117 3.46567 -0.385053 0.2348)
(-0.547027 0.0268081 0.653555 -0.118383 4.60855 -1.74317 -1.65274 0.776076 0.0291719)
(-0.888422 -0.0157936 0.0919642 2.68323 4.78796 -6.0306 -3.42689 0.63188 -0.946847)
(-0.239131 0.0807181 -0.664647 1.5515 2.46047 -2.53219 -3.42773 0.0220693 -0.779623)
(0.669455 0.0103836 -0.651417 4.73024 5.20863 -2.0922 2.02236 -0.250118 -2.37988)
(-0.510885 -0.24479 0.668355 7.73125 5.21701 -5.25389 1.91244 -0.294854 -2.01529)
(-0.448485 0.00053358 0.437927 2.46152 0.808588 -1.54917 -0.649379 -0.117315 0.991531)
(0.473843 0.0868844 0.22026 5.56414 -2.99774 10.2486 2.2792 -0.545458 -0.440538)
(1.33127 -0.152286 -0.930155 1.57832 -0.700757 8.99823 3.31045 -0.528526 -1.99583)
(0.608008 -0.10249 -0.776564 8.21071 -2.68651 4.17603 -1.29838 -0.115169 1.10933)
(-1.00786 0.138044 0.67597 1.54466 -2.41523 -1.69339 -1.46297 0.564616 1.63387)
(0.114608 0.155785 0.569357 4.54555 -1.49946 -2.0852 -0.555167 0.310317 -0.73092)
(0.612169 -0.247666 -0.132834 -0.537387 -1.52552 0.359117 2.5606 -0.178627 -1.81424)
(0.37993 -0.169959 -0.112543 -7.90481 -2.99893 2.57562 3.23215 -0.629044 0.340421)
(0.756681 -0.117897 -0.122524 -13.5394 -0.540087 -1.51978 2.67071 -0.0228818 -1.30685)
(0.603096 0.197272 -0.172686 -10.1315 -3.32426 6.72636 -4.06768 0.369279 1.57674)
(-1.16243 0.56072 0.237178 3.85395 -1.00022 -2.09784 -4.58319 0.337216 0.928159)
(-1.89753 0.0108056 0.344345 7.37471 -0.517386 3.29289 -0.598957 -0.0845023 -1.05446)
(-0.474379 -0.212019 0.652267 7.32961 -1.21221 -9.9239 -1.30508 0.542203 -0.378832)
(0.0257634 0.0171282 0.243601 5.60553 -3.13066 0.699847 -3.09263 0.174721 1.74135)
(0.0689457 -0.193229 -0.272629 13.8065 -1.53037 0.646989 0.633985 0.200777 -0.051135)
(1.78872 -0.20788 -1.21037 -10.6338 -2.38009 20.8177 3.10777 -0.38744 -0.930821)
(1.09873 0.218445 -1.04076 16.7082 -3.85782 6.46718 0.574504 -0.135923 1.13545)
(-0.802502 0.0361109 0.222833 13.2158 0.435452 -5.69581 2.36325 -0.146842 -0.640794)
(0.226113 -0.256693 0.209064 10.0947 -0.366017 3.04491 1.87067 -0.312818 -1.05154)
(0.381025 0.137878 0.328033 11.3352 -2.76673 -4.63787 0.807777 0.0797376 1.04083)
(-1.71295 0.306614 0.898642 10.7699 0.108093 -5.56799 2.55027 0.288986 -0.720864)
(-1.79546 -0.126361 0.515535 5.61392 0.371389 0.0833061 3.72215 0.0183813 -1.41493)
(1.34353 -0.107004 -0.847356 6.64095 -3.43845 -5.21594 1.12413 -0.320284 0.846039)
(1.94497 0.243642 -0.799439 -13.6254 -2.5856 3.07819 0.942226 -0.855855 -0.507996)
(0.934071 0.0712692 -0.797033 -3.32089 -3.34442 10.8668 1.08893 -0.923011 0.280617)
(-0.592091 -0.189994 -0.0149181 11.4211 -2.96464 5.80017 3.18558 -0.303952 2.26513)
(-1.54365 -0.0673892 0.746593 12.5523 -0.000954125 -9.98094 2.4104 -0.283335 0.181675)
(0.00562931 0.0456885 0.306517 7.66593 -1.92224 6.07157 3.66005 -0.945321 -0.164927)
(-0.0317669 -0.110461 0.810709 -13.789 -0.13074 6.68139 3.55549 -0.777697 -1.20225)
(0.683477 -0.217629 0.30102 -26.4576 -0.0740201 11.4158 0.701488 0.118009 -1.90124)
(1.01349 -0.105838 -0.669827 1.55414 -2.58185 16.2377 1.86571 -0.180999 0.420626)
(-0.544776 0.030091 0.576519 9.72251 -1.26373 -6.4856 -0.381167 0.165327 0.754858)
(-0.436577 -0.0131526 0.202033 14.5353 -1.70922 1.94054 -3.30232 0.0585521 0.138867)
(0.121423 0.160685 -0.989528 5.21191 -2.70549 -2.61447 0.965806 -0.441789 0.794415)
(-0.447174 0.362945 0.323149 8.78098 -3.50394 6.66704 2.31953 -0.620992 1.53869)
(-0.791769 0.159242 0.398182 0.104358 -2.18675 4.98877 -1.41349 0.504221 1.01635)
(-1.10308 -0.0704743 -0.0126722 1.58789 -0.965932 -0.408655 -1.36903 0.490657 -1.24146)
(-0.230832 0.0303821 -0.441042 -4.69205 0.582628 2.40667 -3.65031 -0.0502277 -0.931856)
(1.2189 0.00155978 -0.703367 2.49711 -2.63699 6.69191 1.76789 -0.644151 -0.65514)
(-0.47554 -0.297281 0.490892 6.17698 -0.231168 2.37247 2.48161 -0.510349 -1.61937)
(-0.68403 -0.00549067 0.773557 1.49227 -0.830328 -3.35796 -0.680896 0.227059 0.194045)
(0.643373 0.00608564 0.707575 7.23767 -0.430961 3.9242 0.962188 -0.500222 1.04484)
(1.12386 -0.0684596 -1.07061 2.4229 2.09202 -3.1336 2.65687 -0.078122 -2.00035)
(0.370853 -0.132113 -0.880214 -6.91407 -0.761938 7.03214 -2.0536 -0.27709 2.3182)
(-1.0397 0.125889 0.523175 -0.695123 -0.504988 6.95092 -2.27767 0.0289855 1.69164)
(-0.279255 0.226111 0.196083 3.4009 1.06039 2.72378 -0.477712 -0.171041 0.632027)
(0.259401 -0.281343 -0.154357 -6.39423 2.97453 -2.84574 1.74126 0.317651 -1.19991)
(0.861041 -0.256486 0.101986 -7.93039 0.255382 3.37369 2.80155 -0.435873 0.516794)
(0.572511 0.0141719 -0.0331969 2.83798 0.142548 -2.05682 2.6733 -0.00215284 -1.19964)
(0.653905 0.277539 -0.245256 -11.82 1.12219 4.02428 -2.67089 0.609384 0.0789774)
(-0.57649 0.479035 0.438015 1.29362 0.252683 -1.36989 -3.47876 0.0981236 0.98027)
(-1.49605 -0.0151156 -0.0414694 1.51142 3.07351 8.82793 -0.947839 -0.356077 0.00884228)
(-0.335191 -0.275219 0.273176 9.43265 2.86605 -7.33554 -0.198798 0.418852 -0.908451)
(0.0817502 -0.0986831 0.870808 8.93525 -0.111883 -6.86343 -1.99684 0.509859 1.30658)
(-0.329047 -0.126287 0.629248 9.51656 0.217006 -0.00397307 -1.12522 0.157114 1.08202)
(2.09982 -0.228268 -0.713916 4.49502 -1.23726 12.5669 2.20024 -0.158329 -0.196209)
(1.47657 0.367528 -1.94118 13.4914 -1.70687 16.1243 0.964064 -0.296137 0.898911)
(-1.07944 0.283706 -0.362679 3.15557 2.47659 3.25264 1.40422 -0.309817 0.286286)
(0.500139 -0.371175 0.17132 7.24443 2.3287 4.61155 3.33254 -0.293344 -1.70857)
(0.0907626 0.0946458 0.149182 10.0293 -0.0453017 6.73421 0.415854 0.144696 0.478596)
(-1.98154 0.381436 0.882115 4.38432 3.1213 1.28764 1.51527 -0.227985 -0.863633)
(-1.46927 -0.322324 0.35908 15.2616 4.01761 -6.00029 3.93723 0.433558 -0.737062)
(0.0408025 -0.238734 -0.661219 15.6589 0.811779 -7.76875 1.82257 0.321948 0.458516)
(1.45733 0.14116 -0.229888 -5.77829 -0.753793 0.0992591 2.15201 -0.808759 0.28573)
(2.1308 -0.0371946 -0.388648 13.2024 -3.40088 5.37661 -0.80822 -0.593581 2.01392)
(-0.656627 0.15763 -0.46735 9.67436 -1.66324 12.3879 4.41182 -0.675781 3.12826)
(-1.60576 0.0264828 0.82313 8.09374 3.49949 -1.27349 3.82705 -0.515875 0.29696)
(-0.838984 0.0658292 0.875265 3.03577 1.7658 10.1001 4.37727 -0.9422 -0.129133)
(-0.816935 0.0845186 0.82793 -9.92925 5.28304 6.29045 2.67561 -0.556383 -2.73297)
(1.66051 -0.374439 0.577468 -9.12433 2.90286 14.3765 -1.60113 0.305911 -2.99752)
(1.73141 -0.172771 -1.36427 13.0476 -1.36956 18.7563 2.69115 -0.3408 0.954047)
(-0.304264 0.0797895 -0.162729 9.78481 1.00347 3.55392 0.194746 0.367355 0.846369)
(-0.448421 -0.0734108 0.207087 8.3301 1.96858 -4.94449 -3.59139 0.510601 -0.42841)
(0.038647 0.0307868 -0.645814 5.41326 -0.0961768 1.01514 -0.113518 -0.7207 0.431258)
(-0.442378 0.225449 0.575654 4.83141 0.608686 6.06129 1.94733 -0.401761 0.785379)
(-1.0724 0.207572 0.138221 1.45002 -0.109402 -0.124314 -1.84152 0.987064 1.33402)
(-1.2336 0.201366 -0.09495 1.62502 1.92413 -2.0197 -0.473496 0.727208 -0.453536)
(-0.17046 -0.041985 -0.144234 -3.59096 3.43027 3.38056 -3.38464 -0.0887563 -0.972293)
(1.44535 -0.050941 -0.648837 0.831391 0.522789 7.89141 1.45731 -0.815119 -0.0314127)
(-0.59123 -0.101439 -0.0821171 -0.0670468 2.83257 2.92475 1.97241 -0.490768 -0.903055)
(-0.471778 -0.210342 1.00642 3.10678 1.24477 0.508917 -1.19559 -0.172738 0.174974)
(0.399388 0.166204 -0.134745 5.34806 -1.40982 0.492996 -0.33424 -0.325656 0.297534)
(0.162071 -0.188497 -0.654782 -0.266704 0.86493 -6.56216 1.69893 -0.0558613 -1.20393)
(0.369546 -0.317895 0.0817467 -12.434 -1.07093 4.91508 -0.999961 -0.301365 0.930126)
(-0.137349 0.292488 0.328985 0.91583 -1.07021 6.60163 -2.30745 0.268638 0.561429)
(-0.325213 0.441324 -0.217061 1.35744 -0.663569 2.11853 -1.5803 0.113138 -0.13592)
(-0.305337 -0.311987 -0.0760343 5.19317 -0.360838 2.69033 1.56513 -0.131955 -0.629238)
(1.1081 -0.399431 -0.0676578 -5.74132 -0.0444798 4.15042 2.37293 -0.334045 -0.842627)
(0.448046 -0.0582177 -0.0767522 3.627 -1.06509 -0.973905 1.91037 0.158735 0.176462)
(0.46816 0.198507 -0.10767 -6.92797 0.255462 2.50328 -0.429109 0.542716 -0.106616)
(-0.100067 0.732962 0.621007 0.166574 -2.28668 -0.766558 -1.84159 -0.172636 0.189975)
(-1.25331 0.233139 -0.118692 1.91776 1.54524 0.483371 -2.01759 0.178371 -0.442851)
(0.135928 -0.47354 -0.629218 4.24815 0.151517 1.58881 0.161204 0.398084 -0.69817)
(0.0272201 -0.194033 0.797353 10.0665 -0.78029 -9.52206 -1.39073 0.854086 0.618625)
(-0.264611 -0.294548 1.27097 7.74094 -0.842528 -3.22561 -0.500226 0.300703 1.03392)
(2.09184 -0.367609 0.0961098 9.99183 -3.81476 -3.25269 0.656319 0.244306 0.918504)
(0.948328 0.515814 -1.73391 -0.9766 -0.656374 5.90013 1.90902 -0.168429 -1.5459)
(-1.30008 0.35068 -0.686654 1.5065 0.604082 6.62148 0.91625 -0.512723 0.254975)
(0.776686 -0.457297 0.505582 -1.19032 -1.2024 6.84951 2.62094 -0.562626 -0.161612)
(0.16956 0.208845 0.0664289 -3.10861 -1.23329 9.72212 0.429062 0.229563 -0.19301)
(-1.24614 0.640758 -0.170472 -1.51258 1.01372 9.52285 0.31946 -0.257955 0.415747)
(-0.880066 -0.30096 -0.230319 15.1783 0.807153 -7.03641 3.31182 0.0959071 0.050334)
(-0.295324 -0.49503 -0.353094 8.70347 -0.420843 -3.05211 3.25695 -0.327115 -0.124342)
(1.78718 -0.100328 0.248925 10.5015 -2.88833 4.45382 2.96313 -1.44866 -0.124211)
(2.11373 0.00564469 0.195412 13.521 -4.79004 9.60311 -1.77833 -1.24593 1.52063)
(-1.0152 0.355457 -0.528846 13.6638 -2.84383 11.4701 2.45806 -0.990489 3.72857)
(-2.09564 0.211552 0.546568 12.4917 -0.43477 6.7358 4.78758 -0.942029 0.872243)
(-1.42536 0.193643 0.885653 0.53145 1.9361 0.684593 5.05669 -1.0566 -0.255094)
(-0.975726 -0.0343489 1.16856 -2.52837 2.94077 -5.80124 1.03484 0.0707641 -2.81109)
(2.51777 -0.761327 1.32156 8.93527 -0.134781 -3.39523 -2.14533 0.864055 -3.28153)
(2.53166 -0.258854 -1.51039 10.0449 -6.59482 11.2674 1.7788 -0.0541325 1.97269)
(-0.965496 0.305805 -1.34242 11.9354 -2.001 10.691 0.892612 0.0787103 1.70184)
(-0.80297 -0.0995897 -0.0119437 5.93569 0.673716 -6.85647 -4.0528 0.957282 -1.09375)
(-0.164484 0.0593293 -0.098487 8.3257 -0.454374 2.78934 0.251167 -0.800149 -0.486653)
(-0.780898 0.375582 0.202091 2.94884 -0.449884 2.08256 0.966557 -0.505588 0.272513)
(-1.03331 0.265016 -0.255306 1.99067 -0.178817 1.28292 -0.393502 0.43603 0.650396)
(-1.5139 0.199973 0.290258 2.38514 1.31716 -3.07622 0.207753 0.584404 -0.356707)
(-0.3036 -0.0802117 0.362645 -2.03478 -1.73712 1.2714 -3.74581 -0.0340481 0.602355)
(1.49256 -0.0434472 -0.747147 3.3105 -1.92678 3.72249 0.652617 -1.09974 -0.171272)
(-0.272648 -0.256157 -0.0725608 -0.417737 -1.29988 2.1762 0.8584 -0.81125 0.36443)
(-0.0910438 -0.259418 0.83431 7.95919 -0.387574 5.9127 -0.428056 -0.235345 0.236342)
(-0.0930575 0.105921 -0.362021 0.204948 -0.0362374 2.66735 -1.6183 -0.349507 -0.554902)
(-0.424662 -0.025113 -0.703189 0.0726105 0.156963 -0.481765 0.581361 -0.0733915 0.361644)
(0.480359 -0.292521 0.241139 -0.84654 0.55452 -0.185892 0.355271 -0.37276 -0.457042)
(0.14566 0.146909 0.283935 2.58338 0.602367 1.54449 -2.04868 -0.0216789 -0.249402)
(0.120959 0.270203 -0.124369 0.515292 -0.503661 2.75583 -1.40046 -0.349596 -0.292648)
(-0.340706 -0.221018 0.0257433 6.3603 0.470799 3.49295 0.700476 0.0883632 -0.243311)
(0.69148 -0.30733 -0.219962 3.0984 -0.511374 1.5452 1.88452 -0.264468 -1.07536)
(0.475201 0.0491524 -0.181188 3.16358 0.123611 2.13378 1.9371 -0.0589116 -0.0131103)
(0.352417 0.172454 -0.239836 1.88198 1.57635 -1.90791 0.587686 0.673584 -1.53464)
(0.194028 0.572937 0.232892 -5.73935 2.01165 3.51683 -2.83628 0.0212279 -0.495506)
(-1.14281 0.185574 0.184105 -0.0536741 -0.141517 -4.311 -2.50924 0.00566958 0.274767)
(0.37139 -0.470481 -0.562011 3.02069 0.090083 1.76556 1.01638 0.0702409 -0.37366)
(0.410256 -0.18109 0.432859 8.02158 -0.302787 -2.58982 -1.33553 0.543867 0.652625)
(-0.342394 -0.390125 1.14495 4.27472 -0.409293 -1.76986 -0.750957 0.412032 1.0532)
(1.29432 -0.197118 0.0491431 7.39751 -0.520695 -4.81864 1.28412 0.790319 -0.160788)
(0.744568 0.761407 -1.04862 -7.17886 1.95332 -3.14262 0.771345 0.194801 -2.14166)
(-1.07715 0.226506 -0.242474 0.262183 3.1469 4.44781 2.14049 -0.366655 -0.767745)
(0.0456268 -0.532505 0.42468 2.82736 -1.21746 -0.880055 0.908364 -0.454422 1.91367)
(0.0530767 0.2882 0.404717 -5.27959 0.0322641 -2.3103 0.0652912 0.255028 0.373261)
(-0.36369 0.54423 -0.562661 -2.1045 -0.25685 6.8677 0.222702 -0.544135 1.38838)
(-0.583284 -0.457146 -0.745064 4.97347 0.507111 -1.73979 3.2059 0.0269793 -0.202796)
(-0.35815 -0.554909 0.370721 3.43258 -0.334816 1.40552 3.94524 -0.360463 0.647116)
(1.86992 -0.238807 0.892738 -4.01801 -1.04761 11.2342 2.74971 -1.0017 0.0136759)
(2.425 -0.0373624 0.201896 -7.71651 -2.9606 10.0887 -2.26162 -0.617433 0.823275)
(-0.715978 0.540675 -0.726403 -7.64979 -2.20153 8.29231 0.23833 -1.12265 3.16277)
(-2.77141 0.450081 -0.146783 -0.29997 1.90747 9.29665 2.65162 -1.06801 1.62766)
(-2.16958 0.365258 -0.285346 -8.05066 2.05889 7.08011 3.66499 -0.711952 -0.116803)
(-0.0237743 -0.0951347 0.41652 -6.78712 1.22082 -2.34578 -1.80727 0.08731 0.181875)
(2.73771 -1.21772 2.08178 18.9491 -0.736489 -16.1828 -3.14104 1.36895 -1.41953)
(1.92888 -0.336774 -0.0468082 0.889084 -3.08455 -7.55333 0.731819 0.17339 2.49748)
(-0.618211 0.729469 -1.72108 2.31099 -0.462868 7.92473 1.47857 0.151177 2.18951)
(-0.746836 0.0722574 -0.501846 4.25383 1.4018 -1.55143 -2.89402 1.11281 -0.646917)
(-0.217301 -0.0759909 0.126243 4.59233 1.50566 0.548503 -0.786548 -0.535871 -0.827952)
(-0.994466 0.235924 0.473676 3.16788 1.26968 -1.80942 -0.765281 -0.20209 0.211343)
(-1.12844 0.365265 -0.299574 2.56195 0.826615 3.79269 -0.809453 0.855919 0.243158)
(-1.57789 0.0573756 -0.134533 1.93001 1.63396 2.63653 0.438552 0.273254 -0.755559)
(-0.0715593 -0.338201 0.433906 8.6237 0.303729 -6.0961 -2.05604 0.0275761 0.0570191)
(1.59019 -0.0112488 -0.555321 10.3446 -1.14516 -8.72724 1.68424 -0.962989 0.252569)
(-0.19312 0.0563953 0.119504 1.56882 -0.132319 0.671077 1.38715 -0.597984 1.12564)
(0.0234407 -0.215603 0.867951 6.24888 1.88921 -0.0893357 0.464784 0.103114 -1.04234)
(-0.179746 -0.00400728 -0.151945 -2.62838 0.849892 -0.844288 -1.55708 -0.409582 -0.499397)
(0.113761 -0.144731 -0.940231 1.96998 -0.801977 -0.132327 1.83081 -0.357884 1.34396)
(0.613912 -0.275117 0.27196 5.04114 0.00693883 -1.53185 0.70853 -0.59564 -0.489954)
(-0.0270944 0.199386 0.63278 2.59833 -0.697473 -1.30784 -1.54515 0.147369 -0.227957)
(0.0144373 0.445049 -0.0280925 5.41688 0.203776 2.81288 -1.30362 -0.191904 -0.167247)
(-0.0389945 -0.321867 -0.209381 3.39628 0.314433 1.55596 0.0283978 -0.121031 -0.140236)
(0.824528 -0.443963 -0.190711 6.62869 -0.188538 2.39362 1.91981 -0.322775 -0.845646)
(0.321572 0.143452 -0.417629 2.58134 0.460191 3.13633 1.18534 -0.169854 -0.987568)
(-0.426051 0.393202 0.0462579 3.2077 1.44835 -1.84753 -0.884279 0.601981 -0.987191)
(-0.326408 0.574187 0.415325 -10.6618 1.30386 5.06073 -3.1357 0.0554859 -0.97041)
(-0.37311 0.042395 -0.327145 -0.895308 -1.02528 -1.29948 -1.55093 -0.128405 0.596633)
(0.933962 -0.490253 -0.460825 4.88862 -1.00474 -1.70932 1.43905 0.220623 0.277022)
(0.116505 -0.246134 0.474106 1.13316 -0.441114 -3.64738 -2.02302 0.730011 0.316956)
(-0.320327 -0.307161 1.05681 2.39281 -0.581235 -3.4051 -1.61968 0.627917 0.9418)
(1.00629 -0.144284 -0.038859 7.74112 0.50871 0.793281 1.30731 0.83239 -2.19163)
(0.242753 0.864398 -0.859665 -8.54652 0.699581 3.46302 -0.458422 0.185873 -1.23239)
(-0.30434 0.0405008 -0.500875 1.99043 1.0068 -0.00860368 2.76684 -0.555643 0.30033)
(0.285966 -0.76666 -0.173899 9.77238 -3.18502 -6.69159 1.03838 -0.233902 2.83644)
(-0.320561 0.298643 0.82086 -1.53552 -0.942793 -4.40316 -0.015992 0.516336 0.817556)
(-0.291228 0.698721 -0.0732129 0.884709 -0.461668 -3.12099 1.23167 0.0748031 -0.135365)
(-0.346398 -0.293275 -0.734571 5.52606 0.611495 -0.754913 2.87259 -0.0647915 0.137606)
(-1.20384 -0.647219 0.894504 2.79356 0.908454 1.88381 2.52136 -0.427851 0.524492)
(0.644598 -0.353628 1.06797 -7.02723 -0.619022 5.37857 3.29187 -1.43241 -0.136096)
(1.7131 -0.107456 -0.104543 -10.0555 -0.679654 -4.50317 -1.28287 -0.761843 0.0107223)
(-0.290556 0.832215 -0.589673 -21.7437 -0.386297 -0.167752 0.539895 -1.24835 1.40317)
(-2.06885 0.621157 0.492567 -5.80434 0.714274 2.48467 3.18665 -1.18776 2.39658)
(-2.01095 0.106623 -0.181758 -0.435862 -0.113452 2.45535 0.760414 -0.357642 2.36175)
(1.67605 -0.312673 -1.12302 6.6511 -2.87906 9.27246 -1.47737 0.416005 1.01903)
(3.27676 -1.15372 0.715722 13.2142 -2.39684 -3.60864 -4.05248 1.12716 -0.878658)
(0.899165 -0.223224 0.79597 7.09879 -0.619502 -10.6776 -0.150211 0.370454 0.381765)
(-0.657892 0.719884 -0.693921 1.31294 -0.336008 0.212647 -0.0583346 0.74861 0.833776)