/*--------------------------------*- C++ -*----------------------------------*\
  =========                 |
  \\      /  F ield         | OpenFOAM: The Open Source CFD Toolbox
   \\    /   O peration     | Website:  https://openfoam.org
    \\  /    A nd           | Version:  10
     \\/     M anipulation  |
\*---------------------------------------------------------------------------*/
FoamFile
{
    format      ascii;
    class       volSymmTensorField;
    location    "65";
    object      UPrime2Mean;
}
// * * * * * * * * * * * * * * * * * * * * * * * * * * * * * * * * * * * * * //

dimensions      [0 2 -2 0 0 0 0];

internalField   nonuniform List<symmTensor> 
25600
(
(0.00379117 7.79447e-08 8.86164e-06 1.51077e-07 -1.38128e-07 0.000154837)
(0.00374295 -1.77908e-06 5.82221e-05 1.67251e-07 -1.76474e-07 0.000166573)
(0.00370573 -2.98902e-06 8.04019e-05 1.68162e-07 -2.76376e-07 0.000173431)
(0.00377647 -4.55325e-06 3.49057e-05 1.71111e-07 -1.424e-07 0.000177903)
(0.00396701 -4.37809e-06 5.39701e-06 1.67022e-07 7.34942e-08 0.000187062)
(0.00397823 -1.23686e-06 3.94257e-05 1.64213e-07 3.43271e-08 0.000201266)
(0.00390867 -5.62822e-07 0.000110355 1.72155e-07 -7.02826e-09 0.000204099)
(0.00396108 -3.78651e-06 0.000137453 1.72891e-07 2.53519e-08 0.000196826)
(0.00402225 -7.33862e-06 6.87429e-05 1.74581e-07 2.36809e-07 0.000196655)
(0.00408165 -6.79069e-06 7.55187e-06 1.73977e-07 5.72412e-07 0.000192434)
(0.00400968 -2.27504e-06 3.31111e-05 1.81581e-07 5.67952e-07 0.000180941)
(0.00396324 -1.33868e-06 7.87511e-05 1.85383e-07 5.90433e-07 0.000177446)
(0.00382572 -2.39949e-06 4.64186e-05 1.83675e-07 4.89268e-07 0.000173941)
(0.00374052 -6.45299e-06 -9.50872e-06 1.94468e-07 7.20853e-07 0.000177715)
(0.0039922 -5.30395e-06 -4.15343e-05 1.96422e-07 8.4627e-07 0.000183835)
(0.00387531 -2.85537e-07 -8.41408e-06 1.89068e-07 5.68876e-07 0.00017942)
(0.00386576 3.42759e-07 4.68585e-05 1.79871e-07 3.49199e-07 0.000175672)
(0.00374921 -2.39527e-06 6.10423e-05 1.74452e-07 1.95138e-07 0.000172802)
(0.00393139 -5.65409e-06 8.27839e-06 1.77796e-07 1.63724e-07 0.000178586)
(0.00398464 -5.27602e-06 -1.99856e-05 1.69448e-07 1.74123e-07 0.000194024)
(0.00402831 6.65504e-08 8.58164e-06 1.51027e-07 -6.04359e-09 0.000201595)
(0.00387439 1.72956e-06 6.42889e-05 1.58503e-07 -1.3443e-07 0.000200814)
(0.00391005 -2.94719e-06 6.34787e-05 1.42485e-07 -1.73185e-07 0.000199574)
(0.00392588 -6.86232e-06 4.84236e-06 1.38194e-07 -1.68084e-07 0.000201819)
(0.00395657 -5.34525e-06 -3.67852e-05 1.32233e-07 -3.69049e-07 0.00020513)
(0.00407093 1.70249e-07 -1.06273e-05 1.30533e-07 -5.43718e-07 0.000196577)
(0.0037965 4.09565e-07 4.45222e-05 1.37174e-07 -2.97121e-07 0.000186424)
(0.00390865 -1.84316e-06 3.56769e-05 1.37482e-07 -2.01671e-08 0.000183347)
(0.00381479 -5.48041e-06 -3.75947e-06 1.52714e-07 2.50332e-07 0.000185647)
(0.0039136 -4.53033e-06 -3.17567e-05 1.66921e-07 4.39183e-07 0.000185565)
(0.00388721 -2.69148e-06 6.83031e-06 1.67341e-07 3.24967e-07 0.000178293)
(0.00380484 -6.56243e-07 6.46884e-05 1.64957e-07 3.37562e-07 0.000172325)
(0.00369988 -1.79848e-06 5.04503e-05 1.5987e-07 4.93994e-07 0.000168333)
(0.00358301 -5.48413e-06 -4.73851e-06 1.6955e-07 4.80826e-07 0.000160869)
(0.00375957 -4.94544e-06 -4.09969e-05 1.68087e-07 2.79095e-07 0.000155499)
(0.00365981 -3.85674e-07 -2.51401e-05 1.57691e-07 1.67164e-08 0.000149379)
(0.00365429 4.22994e-08 4.01378e-05 1.49052e-07 -1.0696e-07 0.000144503)
(0.00349066 -2.44231e-06 4.07016e-05 1.34224e-07 -2.09573e-07 0.000138747)
(0.00368083 -7.4349e-06 -7.71975e-06 1.37527e-07 -2.29631e-07 0.000138366)
(0.00370202 -4.99972e-06 -3.20474e-05 1.34754e-07 -2.27475e-07 0.000145737)
(0.0184882 -0.000105479 6.86324e-05 4.80414e-06 -2.56367e-06 0.000799131)
(0.0186995 -8.71503e-05 0.000147477 5.10014e-06 -1.15448e-06 0.00082803)
(0.0185752 -8.84519e-05 0.00025725 5.11141e-06 -1.30511e-06 0.000847985)
(0.0189771 -0.000114483 0.000210921 5.18863e-06 -1.29375e-06 0.000878857)
(0.0197277 -0.00013055 0.000129925 5.41185e-06 -2.73558e-06 0.000920623)
(0.0202881 -0.000124887 0.000244303 5.48444e-06 -7.91426e-06 0.000979183)
(0.02074 -0.00010974 0.000479368 5.72516e-06 -1.15512e-05 0.000999171)
(0.0207056 -0.000112813 0.000682131 6.07764e-06 -8.10163e-06 0.000989922)
(0.0209945 -0.00013177 0.000562626 5.84707e-06 -2.35609e-06 0.0010037)
(0.0208506 -0.000135572 0.000310755 5.42363e-06 2.11303e-06 0.000979982)
(0.0206329 -0.000115923 0.000165733 5.33042e-06 4.10495e-06 0.000909689)
(0.0202999 -0.000102678 0.000236829 5.4257e-06 3.03927e-06 0.000869201)
(0.0197299 -8.99914e-05 0.000260315 5.40803e-06 8.90643e-07 0.000844634)
(0.0189617 -0.000113319 0.000181017 5.72136e-06 3.23445e-07 0.000866499)
(0.0193501 -0.000127777 6.16115e-05 6.1288e-06 3.01538e-07 0.000907109)
(0.0191404 -0.000122723 8.06427e-05 6.06797e-06 -2.60235e-07 0.000910183)
(0.0197782 -0.000106819 0.000151249 5.53632e-06 -2.12314e-06 0.000896945)
(0.0192951 -9.56573e-05 0.000311025 5.17094e-06 -3.32778e-06 0.000858726)
(0.0198767 -0.000114701 0.000285312 5.13589e-06 -3.32336e-06 0.00086557)
(0.0199681 -0.000124077 0.000247013 4.90686e-06 -2.88042e-06 0.000922503)
(0.020506 -0.000117556 0.000193954 4.49268e-06 -3.07324e-06 0.000959983)
(0.0206186 -9.7588e-05 0.000243399 4.44126e-06 -3.50701e-06 0.000981734)
(0.0205904 -9.57214e-05 0.000170429 4.36476e-06 -4.458e-06 0.001004)
(0.0202622 -9.89018e-05 4.85267e-05 4.19481e-06 -5.29012e-06 0.00103722)
(0.0199104 -0.000114314 -0.00010544 4.29405e-06 -7.5292e-06 0.0010913)
(0.0207126 -0.000102762 -0.000140572 4.50174e-06 -8.83251e-06 0.00108343)
(0.0198527 -9.13361e-05 -5.41596e-05 4.78838e-06 -7.83664e-06 0.00102982)
(0.0203184 -0.000106971 4.07873e-05 4.633e-06 -7.94915e-06 0.000995612)
(0.0196683 -0.000108682 0.000105918 4.52497e-06 -6.68669e-06 0.000992216)
(0.0199161 -0.000121582 6.53845e-05 4.79704e-06 -4.10862e-06 0.00099651)
(0.0197825 -0.000101329 8.94164e-05 4.86721e-06 -2.8038e-06 0.000982495)
(0.0189739 -7.63221e-05 0.00014161 4.65818e-06 -1.71105e-06 0.000966581)
(0.0182747 -6.71012e-05 0.00011133 4.67024e-06 -1.14117e-06 0.000959669)
(0.0171359 -8.87529e-05 7.32736e-05 4.8069e-06 -2.22669e-06 0.000935013)
(0.017871 -0.000106867 -4.71244e-06 4.97683e-06 -6.32413e-06 0.000910899)
(0.0172921 -8.66827e-05 -9.8576e-05 4.8934e-06 -8.35851e-06 0.000856457)
(0.0179425 -7.88723e-05 9.174e-06 4.77155e-06 -8.9485e-06 0.000804081)
(0.0171735 -7.24195e-05 6.75273e-05 4.52209e-06 -8.44371e-06 0.000770886)
(0.017782 -8.82678e-05 9.19583e-05 4.24042e-06 -8.14557e-06 0.00077047)
(0.017421 -0.00010165 -2.27206e-06 4.34159e-06 -5.53142e-06 0.000779419)
(0.0332457 -0.000380447 0.00013739 2.54717e-05 -1.74465e-05 0.00151857)
(0.0333328 -0.000357929 0.000313115 2.72169e-05 -1.01407e-05 0.00151137)
(0.0344254 -0.000370637 0.000324025 2.78267e-05 -6.85098e-06 0.00150816)
(0.0344024 -0.000425835 0.000214469 2.8311e-05 -5.42457e-06 0.00155162)
(0.0354416 -0.000473071 0.000120254 3.02294e-05 -1.56001e-05 0.00161121)
(0.0359761 -0.000487907 0.000305687 3.26353e-05 -3.62094e-05 0.00165612)
(0.0373377 -0.00046817 0.000578046 3.49094e-05 -4.35166e-05 0.00163885)
(0.0374451 -0.000450315 0.000835281 3.64985e-05 -2.51906e-05 0.00167648)
(0.0382877 -0.000435522 0.000706375 3.47451e-05 2.97165e-06 0.00177467)
(0.0375564 -0.000421654 0.000294954 3.26027e-05 1.87912e-05 0.001772)
(0.0376454 -0.000397778 2.39047e-05 3.30349e-05 1.58311e-05 0.00164974)
(0.0366567 -0.000382657 0.000195862 3.42244e-05 -7.65712e-08 0.00161095)
(0.0361736 -0.000359134 0.000399547 3.40248e-05 -1.68903e-05 0.0015929)
(0.0348756 -0.000401179 0.000450143 3.48241e-05 -2.51011e-05 0.0016016)
(0.0345667 -0.000446324 0.000160457 3.67544e-05 -2.04723e-05 0.00162237)
(0.0340538 -0.000455003 9.14746e-05 3.6597e-05 -1.36159e-05 0.00163106)
(0.0349678 -0.000449474 7.50092e-05 3.35219e-05 -1.32165e-05 0.00166158)
(0.0350845 -0.000418143 0.000305904 3.07751e-05 -1.43832e-05 0.00161235)
(0.0364024 -0.000444637 0.000331014 3.03309e-05 -1.50517e-05 0.00158738)
(0.0363292 -0.000471426 0.000323301 2.93009e-05 -1.35336e-05 0.00163876)
(0.0379801 -0.000481835 0.000234278 2.71304e-05 -7.15444e-06 0.00168325)
(0.0383399 -0.000453362 0.000192055 2.59284e-05 -8.70734e-07 0.00175028)
(0.0390415 -0.000422726 -3.76431e-05 2.5602e-05 4.02507e-07 0.00184548)
(0.038107 -0.000390219 -0.00031489 2.50261e-05 2.0211e-06 0.00193719)
(0.0376581 -0.000399163 -0.000660498 2.58575e-05 -2.03092e-06 0.00206866)
(0.0374592 -0.000392262 -0.000690912 2.76924e-05 -1.07083e-05 0.00211226)
(0.0372302 -0.000385325 -0.000512686 3.0177e-05 -1.97002e-05 0.00205762)
(0.0366171 -0.000401443 -0.000256702 3.05868e-05 -3.03316e-05 0.00200261)
(0.0358814 -0.000399774 -0.000100931 2.93608e-05 -3.15426e-05 0.00198785)
(0.0362023 -0.000411197 -2.22181e-05 2.89348e-05 -2.34621e-05 0.00200866)
(0.0353964 -0.000360766 8.0818e-05 2.75985e-05 -1.65686e-05 0.00201493)
(0.0346722 -0.000302186 0.000171749 2.50137e-05 -1.19518e-05 0.00200615)
(0.0333192 -0.000262813 5.44307e-05 2.41914e-05 -1.2799e-05 0.0019972)
(0.0317565 -0.000304345 8.07758e-05 2.47617e-05 -1.93765e-05 0.00195333)
(0.0319738 -0.000341248 -4.93809e-06 2.57111e-05 -3.25425e-05 0.00194191)
(0.0311273 -0.000322018 -0.000123579 2.56964e-05 -3.9258e-05 0.00184752)
(0.0325823 -0.000313719 -5.27384e-05 2.57066e-05 -4.22888e-05 0.00170971)
(0.0310783 -0.000308084 8.41352e-05 2.51137e-05 -3.80949e-05 0.00161673)
(0.0326709 -0.000336707 9.12047e-05 2.36429e-05 -3.56816e-05 0.00159926)
(0.0317746 -0.000349442 5.61902e-05 2.33845e-05 -2.77773e-05 0.0015587)
(0.0398675 -0.000665957 0.000243251 7.52381e-05 -5.36831e-05 0.00201998)
(0.0394484 -0.000646449 0.000406849 8.12519e-05 -3.9735e-05 0.00196465)
(0.0416067 -0.000686059 0.000333864 8.55615e-05 -2.96517e-05 0.00193684)
(0.0406799 -0.000748728 0.000117824 8.81767e-05 -2.43568e-05 0.0019734)
(0.0422011 -0.000831627 -8.95192e-05 9.44224e-05 -3.68178e-05 0.00202326)
(0.0413391 -0.000858694 6.40027e-05 0.000103035 -6.16414e-05 0.00204113)
(0.0433029 -0.000845479 0.000311451 0.000108549 -6.32446e-05 0.00204523)
(0.0431566 -0.000806247 0.000531899 0.000109033 -2.5313e-05 0.00214745)
(0.0447835 -0.000744805 0.000470389 0.000105054 1.79188e-05 0.0022689)
(0.0440373 -0.000686759 9.11292e-05 0.000100951 3.71396e-05 0.00229606)
(0.0445387 -0.000688444 -0.00021153 0.000102118 2.02505e-05 0.0022394)
(0.0435804 -0.000672496 1.65214e-05 0.000105441 -1.54862e-05 0.00229731)
(0.0433387 -0.000669193 0.000311228 0.000104794 -4.93135e-05 0.00229854)
(0.0426624 -0.0007035 0.000403329 0.000103196 -6.011e-05 0.00222162)
(0.0417853 -0.000762035 -2.0219e-05 0.000103198 -4.39359e-05 0.00213898)
(0.0417181 -0.000776982 -0.000112834 0.000100392 -1.74812e-05 0.00210245)
(0.0419419 -0.000785528 -0.00023694 9.41397e-05 -8.82917e-06 0.00220053)
(0.0430976 -0.000764636 -7.09556e-05 9.01525e-05 -1.31952e-05 0.00224044)
(0.0436074 -0.00081376 -0.000108212 9.05593e-05 -2.22765e-05 0.00218278)
(0.0438652 -0.000848563 -1.14264e-05 8.78765e-05 -2.92149e-05 0.00217084)
(0.0440703 -0.000895458 -0.000134224 8.2178e-05 -1.74253e-05 0.002169)
(0.0457301 -0.000863127 -8.64188e-05 7.70377e-05 -2.58837e-06 0.00221119)
(0.045663 -0.000798883 -0.000257762 7.42559e-05 7.48447e-06 0.0023586)
(0.0457648 -0.000713795 -0.000554346 7.21062e-05 2.32469e-05 0.00253389)
(0.0440802 -0.000679612 -0.00103327 7.54321e-05 2.73476e-05 0.00273415)
(0.0437789 -0.000664457 -0.000988554 8.11379e-05 1.3475e-05 0.00282862)
(0.0420504 -0.000625544 -0.000879496 8.47998e-05 -1.57561e-05 0.00283095)
(0.0413086 -0.00063015 -0.000579448 8.52856e-05 -4.21421e-05 0.00284259)
(0.0411168 -0.000650272 -0.000512136 8.47242e-05 -4.59127e-05 0.00284655)
(0.0414554 -0.000668689 -0.000466425 8.37738e-05 -3.45908e-05 0.002848)
(0.040875 -0.00060962 -0.000317703 7.97276e-05 -2.32426e-05 0.00281537)
(0.0404813 -0.000564659 -0.000134418 7.39114e-05 -1.93077e-05 0.00280471)
(0.0401135 -0.000520783 -0.000151579 7.35844e-05 -2.86027e-05 0.00283028)
(0.0388938 -0.000598527 -7.0492e-05 7.63068e-05 -3.95773e-05 0.00276401)
(0.0390782 -0.00062779 -8.94305e-05 7.644e-05 -5.45508e-05 0.00275445)
(0.0377424 -0.000611518 -0.000153794 7.5526e-05 -6.32954e-05 0.00265467)
(0.039503 -0.000590675 4.43332e-05 7.53061e-05 -7.56494e-05 0.00247317)
(0.0377809 -0.000581932 0.000198587 7.40396e-05 -7.62962e-05 0.00231211)
(0.0391178 -0.000614247 0.000242188 7.08014e-05 -7.58185e-05 0.00225267)
(0.037441 -0.000615221 0.000159726 6.95472e-05 -6.69284e-05 0.00214185)
(0.0381215 -0.000906793 0.000303929 0.000158503 -6.70861e-05 0.00215642)
(0.0391995 -0.000890518 0.000337859 0.000171997 -5.55501e-05 0.00214569)
(0.0418596 -0.000902966 0.000250412 0.000184773 -4.85377e-05 0.00214856)
(0.0418362 -0.000916086 -9.09616e-05 0.000198615 -3.78507e-05 0.00217252)
(0.043262 -0.000994518 -0.000381973 0.000214318 -3.9434e-05 0.00222555)
(0.0413048 -0.00101691 -0.000333043 0.000228402 -4.97665e-05 0.00228918)
(0.0417013 -0.00104643 -2.88123e-05 0.000234177 -4.40794e-05 0.00236325)
(0.0411098 -0.00102327 0.000203515 0.000226512 -8.88669e-06 0.00246606)
(0.0416834 -0.000957237 0.000262697 0.000215434 1.52405e-05 0.00251958)
(0.0414031 -0.000895551 6.80259e-06 0.000209887 1.51706e-05 0.00255593)
(0.0426438 -0.000933411 -0.000247303 0.000211288 -8.99185e-06 0.00256121)
(0.041996 -0.000936951 -0.000118348 0.000212509 -4.39139e-05 0.00263309)
(0.0431632 -0.000941416 6.30968e-05 0.000208811 -6.55732e-05 0.00263273)
(0.0423665 -0.000934097 2.68208e-05 0.000203109 -5.96634e-05 0.00254617)
(0.042768 -0.00095007 -0.000329255 0.000199149 -3.68309e-05 0.00243623)
(0.04216 -0.000935484 -0.00029218 0.000193258 -3.89579e-06 0.00239849)
(0.0428783 -0.000990905 -0.000180798 0.000193604 6.12514e-06 0.00255132)
(0.0437021 -0.00100273 -0.000163009 0.000196348 -9.76418e-07 0.00262575)
(0.0432532 -0.00106158 -0.000264081 0.000195348 -1.74768e-05 0.00251563)
(0.042204 -0.00106427 -0.000151084 0.000185292 -3.5711e-05 0.00245017)
(0.0417704 -0.0010902 -0.000169712 0.000173207 -3.37853e-05 0.00237881)
(0.0417491 -0.00109094 4.18982e-05 0.000160861 -2.90014e-05 0.00231352)
(0.0428444 -0.00102329 0.000129651 0.000150596 -1.6038e-05 0.00238981)
(0.0421335 -0.000892175 -5.1782e-05 0.000143767 1.01056e-05 0.00255376)
(0.0416316 -0.000806387 -0.000526162 0.000149847 3.23964e-05 0.00275405)
(0.0399472 -0.000775145 -0.000556071 0.000159626 3.59617e-05 0.00286474)
(0.0388901 -0.000705613 -0.00048835 0.000160135 6.68138e-06 0.00294102)
(0.0375778 -0.000723768 -0.000405212 0.000160605 -2.48391e-05 0.00307804)
(0.0382772 -0.000774246 -0.000469356 0.000164037 -2.67874e-05 0.00315977)
(0.0378275 -0.000819033 -0.000617096 0.000164079 -1.53255e-05 0.00314728)
(0.0391203 -0.000777473 -0.000498195 0.000159185 -1.16947e-05 0.00304369)
(0.0380591 -0.000739099 -0.000195723 0.000156464 -1.91312e-05 0.00297505)
(0.0386641 -0.000715828 -9.01458e-05 0.000160569 -4.6938e-05 0.00304245)
(0.0370665 -0.000789043 9.90911e-05 0.000165975 -6.80507e-05 0.00299998)
(0.0369442 -0.000818647 0.000125619 0.000163019 -7.62574e-05 0.00300014)
(0.0355946 -0.00078179 0.000155237 0.00016043 -7.10831e-05 0.00294593)
(0.0368692 -0.000776835 0.000346604 0.000160299 -7.52578e-05 0.00273068)
(0.0356724 -0.000777965 0.000425664 0.000155888 -7.82715e-05 0.00253071)
(0.036652 -0.000812961 0.000424695 0.00014733 -7.97349e-05 0.00241692)
(0.0355821 -0.00083323 0.000286797 0.000146099 -7.18544e-05 0.00227214)
(0.0325223 -0.00107088 0.000470352 0.00026605 -4.23464e-05 0.00218367)
(0.0343964 -0.00108438 0.000482275 0.000283039 -5.42459e-05 0.00218984)
(0.0372888 -0.0010871 0.000348014 0.000306866 -5.93511e-05 0.00222507)
(0.0398084 -0.00110208 9.73042e-05 0.000340114 -4.58714e-05 0.00226854)
(0.0407217 -0.00115594 -0.000368928 0.000372805 -3.96371e-05 0.0023363)
(0.0394118 -0.00110042 -0.00054016 0.000394312 -4.23546e-05 0.00238387)
(0.038017 -0.00112372 -0.000372677 0.000401998 -3.34314e-05 0.00242872)
(0.0371664 -0.00115222 -1.28913e-06 0.000384865 -4.38582e-06 0.00255885)
(0.037325 -0.00115645 0.000153458 0.000358942 -2.92241e-06 0.00262423)
(0.0372807 -0.00113399 8.70044e-05 0.000345355 -2.24558e-05 0.00261126)
(0.037772 -0.0012377 -0.000146001 0.000347317 -3.26043e-05 0.00254131)
(0.0382662 -0.00125034 -0.000224554 0.00034727 -4.12048e-05 0.00255719)
(0.0381733 -0.00122748 -0.000198948 0.000344947 -4.26417e-05 0.00261284)
(0.0387304 -0.00115055 -0.000190557 0.000346474 -2.08219e-05 0.00262773)
(0.0383187 -0.00111589 -0.000365794 0.000347249 5.62803e-06 0.00256637)
(0.0383613 -0.00105151 -0.000107691 0.000341714 2.30355e-05 0.00250791)
(0.0375542 -0.00115817 3.80376e-06 0.00034999 1.83586e-05 0.00261704)
(0.0377954 -0.00121985 -0.000149304 0.000351534 1.17462e-05 0.0026564)
(0.0374273 -0.00124128 -0.000224346 0.000335405 9.03339e-06 0.00252524)
(0.0360636 -0.00120596 -0.000216559 0.000308829 -2.88232e-06 0.00246407)
(0.0352803 -0.00120024 -2.95272e-05 0.000290766 -1.80589e-05 0.00235615)
(0.0351427 -0.00121718 0.000345095 0.000273225 -4.31239e-05 0.00224624)
(0.0350412 -0.0011481 0.000652724 0.000255287 -4.82525e-05 0.00232676)
(0.0354022 -0.000978868 0.000509812 0.000241337 -2.7102e-05 0.00244108)
(0.0353387 -0.000887766 0.000191941 0.00024949 7.65811e-06 0.00251802)
(0.0347548 -0.000865269 0.000144324 0.000262104 2.2212e-05 0.00257276)
(0.0338193 -0.00080248 0.000115045 0.000259162 1.02047e-05 0.00265265)
(0.0337051 -0.000814425 3.30003e-05 0.000259112 -6.93227e-07 0.0027965)
(0.0329349 -0.000845715 -0.000146775 0.000263959 1.39132e-06 0.00295531)
(0.0335868 -0.000903043 -0.000261278 0.000265695 1.59647e-06 0.00298469)
(0.0334559 -0.000860113 -0.000197729 0.00026458 -1.28153e-05 0.0028719)
(0.0331759 -0.000841371 0.00011945 0.000270608 -3.84406e-05 0.00274754)
(0.0333242 -0.000828687 0.00024897 0.000281261 -8.79331e-05 0.00280312)
(0.0323086 -0.000847705 0.000471042 0.000288724 -0.000118663 0.00286332)
(0.0314186 -0.000873468 0.000434909 0.000280784 -0.000121894 0.00292118)
(0.0308892 -0.000839371 0.00051814 0.000274575 -9.21943e-05 0.00296884)
(0.0313956 -0.00084481 0.000634594 0.000273532 -6.63571e-05 0.00280801)
(0.0310885 -0.000880479 0.000736659 0.000268252 -6.24709e-05 0.00264639)
(0.0317024 -0.000958586 0.000627862 0.000253964 -5.50303e-05 0.00249908)
(0.0315816 -0.000996782 0.000562919 0.000252115 -3.40264e-05 0.00231265)
(0.0272028 -0.00108698 0.000710542 0.000408112 -2.45597e-05 0.00245581)
(0.0275688 -0.0011235 0.000581777 0.000427846 -4.70122e-05 0.00242958)
(0.0288294 -0.00123554 0.000444037 0.000467363 -7.16619e-05 0.00241509)
(0.0322909 -0.00130012 0.000420385 0.000522359 -7.79789e-05 0.00243024)
(0.0344252 -0.00134619 5.11634e-05 0.000564201 -7.40833e-05 0.00245263)
(0.0347178 -0.00119051 -0.000277521 0.000581941 -5.52421e-05 0.00238699)
(0.0331777 -0.00116907 -0.000391872 0.00057921 -2.87427e-05 0.00236257)
(0.0334152 -0.0012248 -0.000209 0.000550238 8.15615e-06 0.00251619)
(0.032447 -0.00131579 -6.14664e-05 0.00051926 1.27263e-05 0.00259107)
(0.0336189 -0.00131163 0.000197072 0.000500988 -1.76213e-05 0.00254647)
(0.0331693 -0.00136448 0.000100261 0.000502426 -2.50205e-05 0.00243887)
(0.0334597 -0.00133552 2.41692e-05 0.000505144 -1.40934e-05 0.00240996)
(0.0318534 -0.00132094 2.64016e-06 0.000514468 -5.18793e-06 0.00248399)
(0.0326917 -0.00129104 8.06471e-05 0.000536184 2.36608e-05 0.00256275)
(0.0318698 -0.00128269 5.35022e-05 0.000549297 5.86977e-05 0.00254232)
(0.0320134 -0.00127887 0.000217513 0.000538269 6.95429e-05 0.00252232)
(0.0315878 -0.00137452 0.000132896 0.000534277 5.89149e-05 0.00262902)
(0.0310609 -0.00144384 -0.000137755 0.000522577 5.89763e-05 0.00268505)
(0.0311294 -0.00141192 -0.000366611 0.000489617 7.3656e-05 0.00260453)
(0.0308829 -0.00136006 -0.00045142 0.000447982 5.58395e-05 0.00258718)
(0.030443 -0.00132053 -0.000236375 0.00042525 1.4065e-05 0.00248459)
(0.0296952 -0.00132129 0.00016317 0.000406624 -3.56623e-05 0.00233949)
(0.0298851 -0.00123204 0.000533793 0.000383585 -5.87912e-05 0.00239137)
(0.0290491 -0.00106093 0.000558119 0.000365526 -5.81489e-05 0.00247621)
(0.0303793 -0.000994857 0.000436562 0.000379638 -3.32259e-05 0.00246456)
(0.0294893 -0.00102041 0.000501391 0.000397049 -1.39244e-05 0.00241629)
(0.0300349 -0.000935198 0.000561437 0.000391843 7.57623e-08 0.00243421)
(0.0288403 -0.000874966 0.000309817 0.00038933 1.98666e-05 0.00251378)
(0.0293809 -0.000866474 0.0002186 0.000388642 1.98198e-05 0.00271583)
(0.0282304 -0.000932165 0.000157238 0.000389098 -2.45433e-06 0.00280099)
(0.0287174 -0.000887449 0.000398574 0.000393204 -2.8359e-05 0.00273055)
(0.0272327 -0.000876365 0.000439858 0.000407092 -5.75197e-05 0.00259332)
(0.0274954 -0.000854824 0.000586311 0.000419655 -0.0001115 0.00262256)
(0.0260407 -0.000878794 0.000736304 0.000424803 -0.000141755 0.00273515)
(0.0266611 -0.000890979 0.000686259 0.000413997 -0.000144915 0.00281113)
(0.0251983 -0.000857283 0.000509981 0.000403577 -0.000118686 0.00290304)
(0.0263036 -0.000885824 0.00068901 0.000405906 -8.53361e-05 0.00284594)
(0.026197 -0.000938918 0.000824861 0.000411614 -6.60498e-05 0.00279257)
(0.0270388 -0.00100925 0.00082622 0.000399118 -5.58893e-05 0.00271966)
(0.0269501 -0.0010142 0.000776672 0.00039649 -2.06983e-05 0.00258588)
(0.0229657 -0.00115181 0.000568056 0.000592826 -2.83687e-06 0.00278454)
(0.0234085 -0.0011961 0.000451354 0.000616826 8.27196e-06 0.00284229)
(0.022547 -0.0014087 0.000388158 0.000665247 -1.30406e-05 0.00276667)
(0.0251068 -0.00150581 0.000517671 0.000728937 -7.07075e-05 0.00262374)
(0.0272113 -0.00149299 0.000401323 0.000762342 -0.000114543 0.00258432)
(0.029248 -0.00129372 0.000355892 0.000760591 -9.59805e-05 0.00252517)
(0.0288218 -0.00122399 9.54686e-05 0.00074079 -4.03427e-05 0.00242798)
(0.029277 -0.00122494 -5.66858e-05 0.000709709 2.6042e-05 0.00251944)
(0.0282764 -0.00130198 -4.5023e-05 0.000689393 6.17039e-05 0.00266157)
(0.0287308 -0.00133981 0.000372127 0.000680793 2.92349e-05 0.00265869)
(0.028444 -0.00135811 0.000341768 0.000686988 -8.56834e-06 0.00252721)
(0.0278554 -0.00131945 0.00020722 0.00068876 3.57803e-06 0.00247822)
(0.0264071 -0.00133754 1.59517e-05 0.000689471 3.5946e-05 0.00251334)
(0.026066 -0.00144354 8.41497e-05 0.000707364 6.11116e-05 0.00258641)
(0.0258287 -0.00155708 -6.98746e-05 0.000726831 9.25908e-05 0.00259877)
(0.0261442 -0.00162907 4.02643e-05 0.000718772 0.00010485 0.00259716)
(0.0260744 -0.00161331 5.59133e-05 0.00070502 9.31905e-05 0.00272073)
(0.0253225 -0.00156836 -0.000120189 0.000682858 9.79977e-05 0.00285025)
(0.0257046 -0.00150673 -0.000314913 0.000649758 0.000117366 0.00284979)
(0.0260729 -0.00147906 -0.000345653 0.000607144 6.73533e-05 0.00281357)
(0.0258876 -0.00142807 -7.05282e-05 0.000575037 -1.59533e-05 0.00266424)
(0.0254128 -0.00143 0.0001046 0.000549535 -7.65419e-05 0.00254028)
(0.0251148 -0.0013141 0.000373791 0.000526741 -8.96647e-05 0.00260028)
(0.0243391 -0.00114556 0.000359099 0.000517527 -8.32073e-05 0.00267935)
(0.0251801 -0.00108972 0.000253845 0.0005413 -4.86134e-05 0.00263366)
(0.0245428 -0.00112332 0.000377993 0.000557842 -2.08125e-06 0.00250565)
(0.0252972 -0.00106011 0.000546136 0.000548919 1.5856e-05 0.00251931)
(0.0246147 -0.000941246 0.000297353 0.000544092 2.44842e-05 0.00259605)
(0.0249272 -0.000927775 0.000199993 0.000536934 -9.5089e-07 0.00272063)
(0.0241487 -0.000987178 0.00032285 0.000536422 -4.01982e-05 0.00277238)
(0.023391 -0.000964039 0.000536761 0.000543424 -6.88774e-05 0.00271361)
(0.0227383 -0.000895543 0.000658711 0.000553005 -9.76299e-05 0.00259962)
(0.0226542 -0.000890926 0.000750899 0.000555362 -0.000142458 0.00260923)
(0.0227498 -0.000953703 0.00100661 0.000558617 -0.000143789 0.00260982)
(0.0220573 -0.000977685 0.000957341 0.000553334 -0.000126931 0.00258887)
(0.0218872 -0.000924591 0.000720296 0.000546172 -0.000113746 0.00259133)
(0.0222983 -0.000992513 0.00071807 0.000552736 -9.99202e-05 0.00258013)
(0.0227272 -0.00105705 0.000779194 0.000571863 -7.08274e-05 0.00264133)
(0.0227854 -0.00113266 0.000550885 0.000572265 -5.74515e-05 0.00269782)
(0.0235789 -0.00110645 0.000629709 0.000577325 -2.25587e-05 0.00273731)
(0.0209207 -0.00126447 0.000305832 0.000784783 -2.75044e-06 0.00299401)
(0.0211676 -0.0013168 0.000255538 0.000805666 4.0662e-05 0.00309044)
(0.0204415 -0.00154033 0.000266704 0.000849027 4.1117e-05 0.0030456)
(0.0209893 -0.00164568 0.000395375 0.000915951 -2.93286e-05 0.00278265)
(0.0224931 -0.00162412 0.000413388 0.000949965 -8.24268e-05 0.00261229)
(0.0239083 -0.00148859 0.000493801 0.000939075 -6.93288e-05 0.00250869)
(0.024257 -0.00138512 0.000494519 0.000906617 -1.72732e-05 0.00242885)
(0.0244 -0.00132163 0.000413128 0.000868982 5.43558e-05 0.00249098)
(0.0241774 -0.00135189 0.000468389 0.00084323 9.60831e-05 0.00264028)
(0.0245633 -0.00140145 0.000781453 0.00083335 5.75403e-05 0.00264399)
(0.0249738 -0.00142657 0.000862522 0.000840599 -6.03898e-06 0.00253245)
(0.0241296 -0.00140209 0.00060908 0.000840079 -2.96985e-06 0.00250469)
(0.023668 -0.0013832 0.00037154 0.000837239 4.6294e-05 0.00250084)
(0.022985 -0.00145019 0.000307239 0.000847218 7.56019e-05 0.0025028)
(0.0230023 -0.0015785 0.000250538 0.000868249 9.73023e-05 0.00252587)
(0.0222311 -0.00166658 0.000119076 0.000869454 0.000110296 0.00256444)
(0.0220384 -0.00164369 0.000135261 0.000858096 8.48832e-05 0.00270274)
(0.021793 -0.00161192 3.57417e-06 0.000834884 6.13524e-05 0.00290415)
(0.0224062 -0.00160162 1.93889e-05 0.000801897 8.02508e-05 0.00302064)
(0.0223867 -0.00157704 0.000130081 0.00076651 4.68603e-05 0.00299681)
(0.0223672 -0.00152112 0.000283798 0.000737356 -2.65777e-05 0.00278962)
(0.0221179 -0.00153035 0.000262537 0.000704623 -8.90616e-05 0.002608)
(0.022101 -0.00143216 0.00032885 0.000675026 -9.23567e-05 0.00267242)
(0.0220239 -0.00126777 0.000351997 0.000672551 -6.98611e-05 0.00277135)
(0.0219056 -0.00121079 0.000248791 0.000703303 -3.76167e-05 0.00271896)
(0.0214977 -0.00120981 0.000263668 0.000719087 6.13349e-07 0.00263996)
(0.0215448 -0.00115291 0.000362442 0.000713592 3.24672e-06 0.00266527)
(0.0213417 -0.00103303 0.000305332 0.000716149 -5.38124e-06 0.00274372)
(0.0215609 -0.00102696 0.000168047 0.000711329 -2.44886e-05 0.00276478)
(0.021961 -0.00110635 0.000246228 0.000709261 -3.87051e-05 0.00276595)
(0.0213477 -0.00113252 0.000318316 0.000713615 -5.35383e-05 0.00264758)
(0.0206083 -0.00105335 0.000442315 0.000712694 -8.45095e-05 0.00251419)
(0.0200357 -0.00105501 0.000517397 0.00070099 -0.000129387 0.00254513)
(0.0202048 -0.00107367 0.000764828 0.000693391 -0.000117773 0.00260305)
(0.0197751 -0.00105463 0.000752724 0.000684758 -0.000100735 0.00261945)
(0.0199742 -0.000980437 0.000670888 0.000678982 -8.93277e-05 0.00259648)
(0.0201791 -0.00105231 0.000711082 0.00069015 -8.74866e-05 0.00252909)
(0.0207272 -0.00113071 0.000709161 0.000723576 -5.96515e-05 0.00257414)
(0.0203993 -0.00122713 0.000393428 0.000745661 -5.27632e-05 0.00273818)
(0.0210938 -0.00123458 0.000365149 0.000763051 -3.32077e-05 0.00288193)
(0.0191584 -0.0013139 0.000559567 0.000973195 3.51352e-05 0.00300682)
(0.0192097 -0.00135752 0.000469164 0.000992576 9.33503e-05 0.00306469)
(0.0193296 -0.00162233 0.00048557 0.00103069 0.00010599 0.00306798)
(0.0189915 -0.00175571 0.000528341 0.00108583 5.99377e-05 0.00280358)
(0.0196098 -0.00176404 0.000577036 0.00111926 1.48687e-05 0.00258034)
(0.0203432 -0.0016806 0.000586827 0.00109394 4.60747e-06 0.0024428)
(0.0210602 -0.00158357 0.000624782 0.0010364 2.00764e-05 0.00236905)
(0.0210102 -0.0015272 0.000605823 0.000985191 7.52624e-05 0.00246376)
(0.0207854 -0.00156285 0.000695985 0.000960763 0.000125758 0.00263674)
(0.0204913 -0.00163726 0.000903617 0.000971569 9.76433e-05 0.0026438)
(0.0210611 -0.00162977 0.00101055 0.000994633 3.48779e-05 0.00252441)
(0.0203456 -0.00148994 0.000853374 0.000989574 2.6487e-05 0.00245744)
(0.0203164 -0.00134446 0.000725741 0.000974929 6.51305e-05 0.00248788)
(0.0200054 -0.00130434 0.000748542 0.000981469 7.03727e-05 0.00248864)
(0.0199401 -0.00140525 0.000777515 0.00100461 5.9418e-05 0.00245252)
(0.0192737 -0.00155375 0.000469425 0.000996896 6.45777e-05 0.00244163)
(0.0194462 -0.00164324 0.000207252 0.000981197 4.68562e-05 0.00256164)
(0.0192736 -0.00168724 -3.16583e-05 0.000978956 1.91205e-05 0.00272872)
(0.019907 -0.00172831 -4.13872e-05 0.000969463 4.17438e-05 0.00282405)
(0.0198709 -0.00171209 0.000132246 0.000945448 4.02545e-05 0.00280064)
(0.019762 -0.00162325 0.000266775 0.000919151 1.46245e-07 0.00269251)
(0.0192872 -0.00156878 0.000220187 0.000886952 -4.46606e-05 0.0025477)
(0.0194912 -0.00151596 0.000223849 0.000850339 -4.7807e-05 0.00256849)
(0.0202226 -0.00141124 0.000310113 0.000850508 -2.71413e-05 0.00262361)
(0.0209019 -0.0014037 0.00029824 0.00089413 -1.29396e-05 0.00251548)
(0.0207849 -0.00143008 0.000356421 0.000914986 8.37456e-06 0.00240534)
(0.0202256 -0.0013713 0.000341679 0.000910569 9.71968e-06 0.00239425)
(0.0193099 -0.001245 0.000397547 0.000919804 -7.52748e-06 0.00242432)
(0.0185874 -0.00122276 0.000223136 0.000918862 -1.26836e-05 0.00241332)
(0.0189608 -0.00127581 0.000152469 0.000906286 -5.60731e-06 0.00245547)
(0.0190094 -0.00132084 0.000135075 0.00089327 -1.88341e-05 0.00241242)
(0.0186342 -0.00123441 0.000271798 0.000869533 -5.97733e-05 0.00233307)
(0.0181447 -0.00121742 0.000410871 0.000841606 -0.000111752 0.00241515)
(0.01786 -0.00122264 0.000722152 0.000819009 -0.000105626 0.00251546)
(0.0177538 -0.00122078 0.000801183 0.000803616 -9.14625e-05 0.00257647)
(0.0180126 -0.00117133 0.000713979 0.000800439 -5.72749e-05 0.00257911)
(0.0184342 -0.00122315 0.000737306 0.000813848 -2.44679e-05 0.00250664)
(0.0185233 -0.0012564 0.000781489 0.000853788 -4.57689e-06 0.00253456)
(0.0184842 -0.00130049 0.000689767 0.000897671 -2.70798e-05 0.00278436)
(0.0189451 -0.00130921 0.000629941 0.000940131 -1.88957e-05 0.00295548)
(0.0173772 -0.00139062 0.000659337 0.0011518 9.54986e-05 0.00265851)
(0.0174474 -0.00137067 0.000712709 0.00117038 0.000145128 0.00267629)
(0.0177148 -0.00155 0.000781877 0.00118693 0.000160542 0.00273325)
(0.017381 -0.00171043 0.000748783 0.00121793 0.000149589 0.00257839)
(0.0171255 -0.00178729 0.000724233 0.00125171 0.000101019 0.00236865)
(0.0170773 -0.0017713 0.000730149 0.00121193 4.96504e-05 0.00225873)