/*--------------------------------*- C++ -*----------------------------------*\
  =========                 |
  \\      /  F ield         | OpenFOAM: The Open Source CFD Toolbox
   \\    /   O peration     | Website:  https://openfoam.org
    \\  /    A nd           | Version:  10
     \\/     M anipulation  |
\*---------------------------------------------------------------------------*/
FoamFile
{
    format      ascii;
    class       volScalarField;
    location    "1";
    object      pMean;
}
// * * * * * * * * * * * * * * * * * * * * * * * * * * * * * * * * * * * * * //

dimensions      [0 2 -2 0 0 0 0];

internalField   nonuniform List<scalar> 
25600
(
1.00487e-05
-2.50128e-06
6.86432e-06
5.77568e-06
3.78867e-06
5.63778e-06
5.0648e-06
5.81818e-06
6.24134e-06
6.76931e-06
7.28606e-06
7.76221e-06
8.06834e-06
8.34577e-06
8.37174e-06
8.36099e-06
8.18041e-06
7.88473e-06
7.59821e-06
7.18116e-06
6.82789e-06
6.3734e-06
5.93614e-06
5.51351e-06
5.06734e-06
4.7429e-06
4.45365e-06
4.26199e-06
4.20602e-06
4.11858e-06
4.16835e-06
4.01774e-06
4.15556e-06
3.65075e-06
4.29575e-06
2.89194e-06
4.74809e-06
4.46968e-06
-4.87246e-06
9.46098e-06
9.42881e-06
-2.55222e-06
6.52723e-06
5.64499e-06
3.47133e-06
5.40379e-06
4.87604e-06
5.76695e-06
6.33976e-06
7.0164e-06
7.64111e-06
8.24955e-06
8.52477e-06
8.86754e-06
8.79214e-06
8.76544e-06
8.49703e-06
8.09952e-06
7.77143e-06
7.22586e-06
6.8265e-06
6.24187e-06
5.75193e-06
5.25139e-06
4.75639e-06
4.41378e-06
4.11019e-06
3.93569e-06
3.9982e-06
3.9505e-06
4.12273e-06
4.00308e-06
4.13532e-06
3.68654e-06
4.22701e-06
2.92473e-06
4.55692e-06
4.55065e-06
-4.5764e-06
8.49542e-06
7.86014e-06
-3.14002e-06
5.90807e-06
5.21459e-06
3.00431e-06
5.04073e-06
4.56014e-06
5.63019e-06
6.3789e-06
7.24968e-06
7.99756e-06
8.82456e-06
9.00367e-06
9.49838e-06
9.22649e-06
9.23305e-06
8.82958e-06
8.28157e-06
7.94829e-06
7.2e-06
6.82872e-06
6.05012e-06
5.54057e-06
4.95072e-06
4.36044e-06
4.02642e-06
3.67953e-06
3.54024e-06
3.78364e-06
3.76805e-06
4.1273e-06
4.03691e-06
4.12845e-06
3.77731e-06
4.21605e-06
3.00471e-06
4.82129e-06
4.54011e-06
-3.37781e-06
8.60934e-06
7.3259e-06
-3.49971e-06
5.51303e-06
4.71571e-06
2.48809e-06
4.58732e-06
4.12619e-06
5.42134e-06
6.36865e-06
7.50056e-06
8.36666e-06
9.55089e-06
9.48672e-06
1.02734e-05
9.63846e-06
9.76732e-06
9.15534e-06
8.39639e-06
8.12207e-06
7.07124e-06
6.83764e-06
5.75692e-06
5.2898e-06
4.56566e-06
3.88235e-06
3.57589e-06
3.14078e-06
3.03971e-06
3.58219e-06
3.56269e-06
4.22405e-06
4.13423e-06
4.11481e-06
3.94375e-06
4.07581e-06
3.15855e-06
4.70006e-06
4.51993e-06
-3.48946e-06
8.12472e-06
6.82429e-06
-3.90386e-06
5.18806e-06
4.06913e-06
1.92396e-06
4.04872e-06
3.56104e-06
5.1571e-06
6.31768e-06
7.80259e-06
8.73612e-06
1.04962e-05
9.92756e-06
1.1238e-05
9.97551e-06
1.03766e-05
9.44542e-06
8.3991e-06
8.28531e-06
6.76842e-06
6.8724e-06
5.30166e-06
5.03174e-06
4.07678e-06
3.31565e-06
3.06639e-06
2.46063e-06
2.4185e-06
3.41558e-06
3.33364e-06
4.43444e-06
4.31821e-06
4.05861e-06
4.21505e-06
3.80202e-06
3.42682e-06
4.5029e-06
4.52534e-06
-3.6641e-06
7.80201e-06
6.3423e-06
-4.27269e-06
5.01362e-06
3.27422e-06
1.3539e-06
3.44369e-06
2.86755e-06
4.85733e-06
6.24865e-06
8.20622e-06
9.07995e-06
1.17587e-05
1.02725e-05
1.24491e-05
1.01849e-05
1.10786e-05
9.67227e-06
8.23993e-06
8.43392e-06
6.23297e-06
6.96129e-06
4.61235e-06
4.7641e-06
3.44865e-06
2.68035e-06
2.51429e-06
1.59974e-06
1.65162e-06
3.32154e-06
3.0909e-06
4.83427e-06
4.60605e-06
3.95332e-06
4.62952e-06
3.3016e-06
3.87702e-06
4.10727e-06
4.59968e-06
-4.08841e-06
7.38815e-06
5.85211e-06
-4.59178e-06
5.0074e-06
2.29566e-06
8.51242e-07
2.78171e-06
2.03592e-06
4.54751e-06
6.191e-06
8.77413e-06
9.35499e-06
1.34455e-05
1.0441e-05
1.39835e-05
1.02286e-05
1.19008e-05
9.8158e-06
7.8928e-06
8.57026e-06
5.35631e-06
7.12952e-06
3.59417e-06
4.51663e-06
2.63856e-06
2.03828e-06
1.94931e-06
5.09923e-07
7.21158e-07
3.34055e-06
2.85241e-06
5.43418e-06
5.05806e-06
3.71747e-06
5.23079e-06
2.47655e-06
4.57402e-06
3.48423e-06
4.75735e-06
-4.72311e-06
6.9987e-06
5.31614e-06
-4.83157e-06
5.17478e-06
1.11258e-06
5.10806e-07
2.05822e-06
1.05241e-06
4.24129e-06
6.18972e-06
9.54102e-06
9.48699e-06
1.56765e-05
1.03655e-05
1.59404e-05
1.0081e-05
1.28691e-05
9.86427e-06
7.29396e-06
8.68054e-06
4.08251e-06
7.40527e-06
2.13098e-06
4.2939e-06
1.61462e-06
1.49073e-06
1.38877e-06
-8.7663e-07
-4.03342e-07
3.52474e-06
2.68929e-06
6.34914e-06
5.66403e-06
3.26177e-06
6.09463e-06
1.2408e-06
5.58908e-06
2.56465e-06
5.00216e-06
-5.59957e-06
6.67278e-06
4.63567e-06
-4.95202e-06
5.49349e-06
-2.68101e-07
4.46101e-07
1.24028e-06
-9.45874e-08
3.91528e-06
6.33156e-06
1.05672e-05
9.34602e-06
1.85538e-05
9.98252e-06
1.84413e-05
9.72366e-06
1.39632e-05
9.81185e-06
6.42283e-06
8.78748e-06
2.34854e-06
7.80038e-06
7.75714e-08
4.07789e-06
3.83695e-07
1.17834e-06
8.09092e-07
-2.66127e-06
-1.78294e-06
3.95211e-06
2.69276e-06
7.56611e-06
6.43668e-06
2.47113e-06
7.31901e-06
-4.86104e-07
6.96012e-06
1.26352e-06
5.32838e-06
-6.73026e-06
6.46471e-06
3.61895e-06
-4.95323e-06
5.88115e-06
-1.74574e-06
7.63373e-07
2.32686e-07
-1.42935e-06
3.48438e-06
6.73552e-06
1.18262e-05
8.74529e-06
2.21425e-05
9.2021e-06
2.16516e-05
9.1576e-06
1.50743e-05
9.62073e-06
5.17824e-06
8.96336e-06
1.46973e-07
8.27133e-06
-2.74641e-06
3.83536e-06
-9.728e-07
1.27315e-06
9.51509e-08
-4.99384e-06
-3.49529e-06
4.74031e-06
2.97335e-06
9.04547e-06
7.34891e-06
1.23563e-06
9.09456e-06
-2.75456e-06
8.66887e-06
-5.07051e-07
5.7087e-06
-8.03942e-06
6.43291e-06
1.9594e-06
-4.79261e-06
6.25696e-06
-3.02954e-06
1.57194e-06
-1.18389e-06
-2.98534e-06
2.91519e-06
7.71373e-06
1.33374e-05
7.37081e-06
2.64512e-05
8.02478e-06
2.58696e-05
8.37276e-06
1.59333e-05
9.25804e-06
3.5277e-06
9.35308e-06
-2.49019e-06
8.62109e-06
-6.55001e-06
3.56147e-06
-2.21617e-06
1.9873e-06
-1.00315e-06
-8.10766e-06
-5.58919e-06
6.08753e-06
3.64994e-06
1.05741e-05
8.33438e-06
-4.66746e-07
1.17671e-05
-5.61765e-06
1.05581e-05
-2.82192e-06
6.12574e-06
-9.30628e-06
6.63523e-06
-8.23805e-07
-4.55862e-06
6.51145e-06
-3.61468e-06
2.97142e-06
-3.42561e-06
-4.82693e-06
2.235e-06
9.83252e-06
1.50671e-05
4.70973e-06
3.14218e-05
6.5682e-06
3.15941e-05
7.33848e-06
1.60486e-05
8.67142e-06
1.53537e-06
1.03306e-05
-5.51188e-06
8.53132e-06
-1.15484e-05
3.25378e-06
-2.83532e-06
3.51188e-06
-2.9665e-06
-1.22476e-05
-8.05332e-06
8.33774e-06
4.83601e-06
1.17814e-05
9.27125e-06
-2.52788e-06
1.59951e-05
-9.08299e-06
1.22483e-05
-5.79999e-06
6.52956e-06
-9.9973e-06
7.06742e-06
-5.55263e-06
-4.34382e-06
6.60678e-06
-2.57153e-06
5.01671e-06
-7.24745e-06
-6.97957e-06
1.67135e-06
1.39875e-05
1.69312e-05
-8.89736e-08
3.69182e-05
5.11078e-06
3.96288e-05
6.05428e-06
1.45743e-05
7.7323e-06
-6.92847e-07
1.25585e-05
-8.92125e-06
7.16019e-06
-1.7896e-05
3.06995e-06
-2.08252e-06
6.12948e-06
-6.64597e-06
-1.77605e-05
-1.07443e-05
1.20658e-05
6.59832e-06
1.19452e-05
9.97938e-06
-4.68225e-06
2.25571e-05
-1.32153e-05
1.30859e-05
-9.5979e-06
6.9421e-06
-9.43822e-06
7.75661e-06
-1.34449e-05
-4.3728e-06
6.60158e-06
1.3539e-06
7.62516e-06
-1.39054e-05
-9.4047e-06
1.71259e-06
2.13622e-05
1.87636e-05
-8.19554e-06
4.27566e-05
4.14457e-06
5.12001e-05
4.50249e-06
1.0072e-05
6.55231e-06
-2.60909e-06
1.71573e-05
-1.25726e-05
3.42716e-06
-2.57678e-05
3.20991e-06
1.52142e-06
1.00314e-05
-1.336e-05
-2.49898e-05
-1.33062e-05
1.83264e-05
8.81867e-06
9.91748e-06
1.02115e-05
-6.302e-06
3.27065e-05
-1.81423e-05
1.17882e-05
-1.44301e-05
7.43439e-06
-6.33924e-06
8.52673e-06
-2.63004e-05
-4.94236e-06
6.7807e-06
1.01719e-05
1.06372e-05
-2.50702e-05
-1.2192e-05
2.99541e-06
3.37019e-05
2.03089e-05
-2.14235e-05
4.85296e-05
4.33199e-06
6.80076e-05
2.4628e-06
8.5098e-07
4.72804e-06
-3.9229e-06
2.55867e-05
-1.64812e-05
-4.47173e-06
-3.53396e-05
4.25669e-06
9.62507e-06
1.52744e-05
-2.50664e-05
-3.4326e-05
-1.51264e-05
2.80831e-05
1.15142e-05
4.07281e-06
9.73174e-06
-6.5539e-06
4.82467e-05
-2.39927e-05
6.85304e-06
-2.05362e-05
8.2772e-06
1.04449e-06
9.17521e-06
-4.6511e-05
-6.50579e-06
7.49573e-06
2.59859e-05
1.35343e-05
-4.31928e-05
-1.52525e-05
6.38785e-06
5.30368e-05
2.12548e-05
-4.21323e-05
5.37803e-05
6.60925e-06
9.23056e-05
-1.73896e-07
-1.5783e-05
3.06105e-06
-3.14332e-06
4.02273e-05
-2.04197e-05
-1.88821e-05
-4.67377e-05
6.66171e-06
2.48506e-05
2.18238e-05
-4.42787e-05
-4.61871e-05
-1.57681e-05
4.37098e-05
1.43895e-05
-7.92282e-06
8.08381e-06
-4.3948e-06
7.1399e-05
-3.08331e-05
-4.00756e-06
-2.82401e-05
1.00229e-05
1.48962e-05
9.13568e-06
-7.7128e-05
-9.53066e-06
9.2784e-06
5.20388e-05
1.59027e-05
-7.12287e-05
-1.88641e-05
1.27381e-05
8.17802e-05
2.10894e-05
-7.343e-05
5.80069e-05
1.20639e-05
0.0001267
-4.17066e-06
-4.24411e-05
-1.20926e-07
2.24578e-08
6.32265e-05
-2.46144e-05
-4.28185e-05
-6.00303e-05
1.12873e-05
4.9387e-05
2.94401e-05
-7.42931e-05
-6.094e-05
-1.4273e-05
6.61935e-05
1.73642e-05
-2.8775e-05
4.99304e-06
1.40406e-06
0.000104783
-3.86747e-05
-2.34952e-05
-3.78559e-05
1.33217e-05
3.79926e-05
7.93031e-06
-0.000121971
-1.46738e-05
1.31955e-05
9.02577e-05
1.62894e-05
-0.000113239
-2.26549e-05
2.30376e-05
0.000122378
1.91337e-05
-0.000119152
6.06055e-05
2.19061e-05
0.000173798
-9.58016e-06
-8.36406e-05
-1.80314e-06
8.49195e-06
9.80299e-05
-2.9093e-05
-7.98698e-05
-7.52599e-05
1.85837e-05
8.70449e-05
3.75908e-05
-0.000118892
-7.88911e-05
-9.84805e-06
9.97522e-05
1.93665e-05
-6.20276e-05
-2.1771e-07
1.19765e-05
0.000151113
-4.80194e-05
-5.5342e-05
-4.97993e-05
1.92452e-05
7.27545e-05
4.47791e-06
-0.000185764
-2.25082e-05
1.96688e-05
0.000145133
1.45456e-05
-0.000173597
-2.75049e-05
3.81031e-05
0.000176957
1.44091e-05
-0.000183918
6.09109e-05
3.74774e-05
0.000236007
-1.86837e-05
-0.000142611
-7.75586e-06
2.05388e-05
0.000146063
-3.46329e-05
-0.000134206
-9.24358e-05
2.97248e-05
0.000138677
4.55159e-05
-0.000182853
-0.000100531
-1.4254e-06
0.000143146
2.07366e-05
-0.000111724
-7.43999e-06
2.88835e-05
0.000212794
-5.88805e-05
-0.000103369
-6.44407e-05
2.86959e-05
0.000122155
-1.8461e-06
-0.000272672
-3.41686e-05
3.04036e-05
0.000213892
6.85251e-06
-0.000258085
-3.23816e-05
5.95832e-05
0.000246572
5.52884e-06
-0.000272989
5.81348e-05
5.87637e-05
0.000314116
-2.9815e-05
-0.000226407
-9.17773e-06
4.40001e-05
0.000210653
-4.21255e-05
-0.000211285
-0.00011203
4.49891e-05
0.000208694
5.15975e-05
-0.000270867
-0.000126424
1.1002e-05
0.000203979
1.80651e-05
-0.000182544
-1.82814e-05
5.35046e-05
0.000290936
-7.27411e-05
-0.000172584
-8.23691e-05
4.28649e-05
0.000186316
-1.29697e-05
-0.000391255
-5.14685e-05
4.9555e-05
0.000304057
-6.87041e-06
-0.000371764
-4.16695e-05
8.87838e-05
0.000331848
-1.00572e-05
-0.00039308
4.96551e-05
9.30713e-05
0.000408415
-5.39746e-05
-0.000335971
-2.48083e-05
6.74735e-05
0.000290813
-5.42465e-05
-0.000313824
-0.000135793
6.92431e-05
0.000291059
5.38933e-05
-0.000389452
-0.00015793
3.19244e-05
0.000272003
1.32511e-05
-0.000279226
-3.3023e-05
8.89702e-05
0.000386793
-9.16054e-05
-0.000267226
-0.000106627
6.48449e-05
0.000266547
-3.07052e-05
-0.000537123
-8.23371e-05
8.34311e-05
0.000399905
-3.49637e-05
-0.000519513
-5.53854e-05
0.000130016
0.000431456
-3.25531e-05
-0.000542853
2.89615e-05
0.00013982
0.00052292
-7.77122e-05
-0.000486931
-3.27456e-05
0.00012055
0.00038653
-7.5045e-05
-0.000451167
-0.000164884
0.00010894
0.000397906
4.85082e-05
-0.000543128
-0.00020588
6.73025e-05
0.000368162
5.05906e-07
-0.000403668
-6.31358e-05
0.00014028
0.000495874
-0.000119507
-0.000390388
-0.000145017
9.72083e-05
0.000365571
-5.589e-05
-0.000714555
-0.000129168
0.000149991
0.000535926
-7.57396e-05
-0.000693089
-7.97775e-05
0.000204345
0.000544472
-7.63919e-05
-0.000712217
-5.13208e-06
0.000230106
0.000650896
-0.00013705
-0.00065425
-8.08159e-05
0.000168812
0.000501161
-0.000101039
-0.000612096
-0.000225278
0.000174115
0.000513241
3.18947e-05
-0.000714877
-0.000274165
0.000125754
0.000466046
-2.09896e-05
-0.000547387
-0.000110415
0.000218873
0.00062468
-0.000159989
-0.000534847
-0.000201168
0.000150572
0.000488785
-0.000103214
-0.00087767
-0.0001684
0.000263991
0.000653811
-0.000130841
-0.000855472
-0.000101869
0.000306332
0.000684727
-0.000118167
-0.000870497
-5.41527e-05
0.000359011
0.000806685
-0.000182615
-0.000847589
-0.000117532
0.000293314
0.000644195
-0.000151934
-0.000773518
-0.000277246
0.000295436
0.000657759
-4.51585e-06
-0.000888649
-0.00034872
0.000227053
0.000621719
-4.50701e-05
-0.000700441
-0.000186789
0.000341353
0.000782035
-0.00022291
-0.000693944
-0.000259297
0.000244379
0.00063964
-0.000153532
-0.00101373
-0.000194384
0.000410756
0.000859929
-0.000185992
-0.00101142
-0.000106519
0.00047053
0.000829539
-0.000179244
-0.000998606
-8.52188e-05
0.000527074
0.000926527
-0.000255748
-0.000988081
-0.000167814
0.000416897
0.000801886
-0.000182888
-0.000921331
-0.000318708
0.000447531
0.000811391
-5.7435e-05
-0.00103729
-0.000420972
0.000359808
0.000729434
-6.39985e-05
-0.000829724
-0.000266548
0.000494789
0.000938546
-0.000277328
-0.000836253
-0.00033188
0.00035863
0.000739599
-0.00020453
-0.00109434
-0.00021597
0.000560046
0.000967097
-0.000233821
-0.00106353
-0.000142367
0.000608582
0.000949519
-0.000222805
-0.00107505
-8.59623e-05
0.00068444
0.00106115
-0.0002892
-0.00107268
-0.000222562
0.000564283
0.000951612
-0.000225523
-0.00104039
-0.000375076
0.000595269
0.000916876
-7.17937e-05
-0.00111277
-0.000453177
0.000494217
0.000849626
-6.13058e-05
-0.000917996
-0.000318973
0.000631551
0.00109192
-0.00035001
-0.000917752
-0.000372136
0.000474252
0.000894805
-0.000254409
-0.00114144
-0.000199626
0.000658872
0.0010696
-0.000238438
-0.00112155
-0.000136609
0.000722115
0.00102017
-0.000241399
-0.00111592
-0.000122158
0.00076403
0.00109542
-0.000306795
-0.00112439
-0.000226274
0.000653142
0.00103211
-0.000224428
-0.00109391
-0.000390842
0.000700893
0.000996136
-9.00157e-05
-0.00116248
-0.000501775
0.000588147
0.00090991
-7.52151e-05
-0.000944101
-0.00034495
0.000709672
0.00118787
-0.000391745
-0.000965156
-0.000341564
0.000555807
0.000946723
-0.000270035
-0.00117689
-0.000203291
0.000696075
0.00108396
-0.000250088
-0.00117773
-0.000154091
0.00075601
0.00104986
-0.000240097
-0.00117223
-0.000133395
0.00079538
0.00110711
-0.000290765
-0.00112865
-0.000284353
0.000672515
0.00107626
-0.000217247
-0.00115548
-0.000419002
0.000735055
0.00102265
-9.40729e-05
-0.0011682
-0.000508751
0.000613648
0.000920502
-6.58163e-05
-0.000994739
-0.000371796
0.000736332
0.0012375
-0.000409687
-0.000989572
-0.000378043
0.000583782
0.00100116
-0.000270567
-0.00118285
-0.000212213
0.000690669
0.00106193
-0.000249435
-0.00116141
-0.000152885
0.00074618
0.00104714
-0.000255591
-0.00117865
-0.000150878
0.000784402
0.00110745
-0.000300723
-0.00114972
-0.000297918
0.000655919
0.00107312
-0.000207268
-0.001149
-0.000445296
0.000723552
0.000992996
-9.88275e-05
-0.00116753
-0.000517666
0.000586778
0.000907484
-6.51104e-05
-0.000972486
-0.000387493
0.000721048
0.00124737
-0.000421876
-0.000993475
-0.000353327
0.00057068
0.000983959
-0.00027096
-0.00116974
-0.000197172
0.000675223
0.00104514
-0.000264517
-0.00116515
-0.000144738
0.000738834
0.00100522
-0.000270995
-0.00115942
-0.000147995
0.000775341
0.00107718
-0.000311295
-0.00113802
-0.000300849
0.000647736
0.00105823
-0.000215029
-0.00114645
-0.000456042
0.000715809
0.000974368
-0.000108748
-0.00115025
-0.000512948
0.000576182
0.000887123
-7.9153e-05
-0.000967114
-0.000384559
0.000712532
0.00123475
-0.000438012
-0.000993906
-0.000352259
0.000564298
0.000961446
-0.000280936
-0.00116557
-0.000188908
0.000680114
0.00102108
-0.000280227
-0.00115021
-0.000132082
0.000744149
0.00099538
-0.000290404
-0.00115341
-0.000132128
0.000777936
0.0010528
-0.000336401
-0.00113166
-0.000283187
0.000647766
0.00103807
-0.000232591
-0.00113974
-0.000436021
0.000720639
0.000956628
-0.000125292
-0.0011416
-0.000508317
0.00057315
0.000874826
-9.18873e-05
-0.00096112
-0.000375394
0.000715621
0.00121415
-0.000457169
-0.000982635
-0.000346154
0.000564213
0.000952124
-0.000300647
-0.00117174
-0.000180631
0.000687342
0.00101457
-0.000292559
-0.0011543
-0.00012127
0.000755
0.00099303
-0.000306524
-0.00115825
-0.000121343
0.000788597
0.00104696
-0.000350971
-0.00113863
-0.00027335
0.000657029
0.00103755
-0.00024595
-0.00114653
-0.00042241
0.000730815
0.000952699
-0.000134918
-0.00114216
-0.000505542
0.000578738
0.000874438
-0.000101811
-0.000964945
-0.000369467
0.000723804
0.00120721
-0.000469499
-0.000986479
-0.000345049
0.000573343
0.000952222
-0.000318227
8.9974e-06
-2.55053e-06
6.61703e-06
5.73846e-06
3.71527e-06
5.58587e-06
5.00799e-06
5.75734e-06
6.18611e-06
6.71614e-06
7.24066e-06
7.71701e-06
8.02893e-06
8.30652e-06
8.33736e-06
8.3314e-06
8.15857e-06
7.87342e-06
7.59646e-06
7.19379e-06
6.84058e-06
6.38928e-06
5.94332e-06
5.51229e-06
5.0482e-06
4.70399e-06
4.39798e-06
4.18853e-06
4.12232e-06
4.02458e-06
4.07317e-06
3.92362e-06
4.07051e-06
3.57234e-06
4.23394e-06
2.84014e-06
4.82853e-06
4.50566e-06
-3.82581e-06
9.35643e-06
8.83256e-06
-2.75703e-06
6.19763e-06
5.58407e-06
3.3999e-06
5.35663e-06
4.82409e-06
5.70289e-06
6.28523e-06
6.96087e-06
7.59674e-06
8.20377e-06
8.48612e-06
8.82321e-06
8.75337e-06
8.72928e-06
8.47021e-06
8.08204e-06
7.76256e-06
7.23084e-06
6.83233e-06
6.25551e-06
5.75274e-06
5.25182e-06
4.73568e-06
4.37107e-06
4.05478e-06
3.85394e-06
3.90931e-06
3.84497e-06
4.01687e-06
3.89603e-06
4.04031e-06
3.59733e-06
4.16613e-06
2.86566e-06
4.65605e-06
4.60448e-06
-3.79261e-06
8.75169e-06
8.02574e-06
-3.14012e-06
5.71171e-06
5.20293e-06
2.94755e-06
4.99439e-06
4.51158e-06
5.55307e-06
6.32373e-06
7.18744e-06
7.95539e-06
8.773e-06
8.96477e-06
9.44075e-06
9.17545e-06
9.18134e-06
8.79041e-06
8.25271e-06
7.93088e-06
7.21141e-06
6.82594e-06
6.07149e-06
5.53534e-06
4.95487e-06
4.33963e-06
3.96981e-06
3.61535e-06
3.43415e-06
3.67605e-06
3.63107e-06
3.99638e-06
3.90135e-06
4.01625e-06
3.66937e-06
4.14231e-06
2.95168e-06
4.79451e-06
4.64817e-06
-3.38343e-06
8.48631e-06
7.60757e-06
-3.46559e-06
5.322e-06
4.68248e-06
2.39801e-06
4.51614e-06
4.07209e-06
5.31737e-06
6.31385e-06
7.42667e-06
8.333e-06
9.49095e-06
9.44999e-06
1.01899e-05
9.56663e-06
9.68814e-06
9.09539e-06
8.34735e-06
8.08847e-06
7.08787e-06
6.82571e-06
5.79571e-06
5.28642e-06
4.59422e-06
3.85779e-06
3.4882e-06
3.06069e-06
2.88818e-06
3.44401e-06
3.3715e-06
4.051e-06
3.95084e-06
3.97753e-06
3.80363e-06
3.99594e-06
3.10874e-06
4.66948e-06
4.65799e-06
-3.53495e-06
8.03922e-06
7.16051e-06
-3.82335e-06
4.99129e-06
3.96807e-06
1.73509e-06
3.89448e-06
3.48288e-06
5.00218e-06
6.25449e-06
7.70407e-06
8.72414e-06
1.04298e-05
9.90695e-06
1.11063e-05
9.86664e-06
1.02522e-05
9.35125e-06
8.31623e-06
8.2247e-06
6.80577e-06
6.84291e-06
5.37888e-06
5.03558e-06
4.15809e-06
3.28123e-06
2.9052e-06
2.35415e-06
2.19149e-06
3.23003e-06
3.05061e-06
4.20172e-06
4.07118e-06
3.89568e-06
4.02571e-06
3.71995e-06
3.38545e-06
4.46527e-06
4.69953e-06
-3.76879e-06
7.71013e-06
6.7187e-06
-4.14808e-06
4.78481e-06
3.01547e-06
9.58685e-07
3.1018e-06
2.73399e-06
4.60716e-06
6.12802e-06
8.03584e-06
9.11296e-06
1.16935e-05
1.02827e-05
1.22318e-05
9.99549e-06
1.08803e-05
9.52016e-06
8.10172e-06
8.33465e-06
6.30556e-06
6.89558e-06
4.75023e-06
4.844e-06
3.6319e-06
2.60065e-06
2.17358e-06
1.44859e-06
1.30504e-06
3.06452e-06
2.65189e-06
4.49306e-06
4.24885e-06
3.77513e-06
4.36758e-06
3.22622e-06
3.85288e-06
4.07655e-06
4.83914e-06
-4.19169e-06
7.32944e-06
6.21861e-06
-4.39139e-06
4.74174e-06
1.73562e-06
3.44972e-08
2.07393e-06
1.80656e-06
4.1264e-06
5.91346e-06
8.41558e-06
9.45929e-06
1.3427e-05
1.05403e-05
1.35965e-05
9.84152e-06
1.15655e-05
9.56924e-06
7.67711e-06
8.40964e-06
5.48512e-06
6.98055e-06
3.85275e-06
4.81118e-06
3.01272e-06
1.7999e-06
1.21013e-06
2.79857e-07
1.99468e-07
2.96989e-06
2.1109e-06
4.88133e-06
4.5622e-06
3.57608e-06
4.84427e-06
2.39629e-06
4.56347e-06
3.46553e-06
5.16425e-06
-4.79724e-06
6.94664e-06
5.60414e-06
-4.48839e-06
4.97101e-06
1.54852e-08
-1.0906e-06
7.13291e-07
6.92469e-07
3.57289e-06
5.61492e-06
8.81347e-06
9.71119e-06
1.5786e-05
1.06462e-05
1.52278e-05
9.26035e-06
1.22772e-05
9.42497e-06
7.02215e-06
8.46495e-06
4.27549e-06
7.07154e-06
2.56325e-06
5.13607e-06
2.30557e-06
8.35128e-07
-1.18259e-07
-1.22801e-06
-1.10294e-06
2.98793e-06
1.34968e-06
5.36001e-06
4.99449e-06
3.36253e-06
5.50661e-06
1.05788e-06
5.54549e-06
2.57314e-06
5.78003e-06
-5.62818e-06
6.56165e-06
4.7714e-06
-4.37099e-06
5.63379e-06
-2.26278e-06
-2.50904e-06
-1.11258e-06
-6.15543e-07
3.02119e-06
5.28683e-06
9.19258e-06
9.80002e-06
1.89748e-05
1.05866e-05
1.71467e-05
8.07671e-06
1.29202e-05
9.03839e-06
6.24068e-06
8.5294e-06
2.53271e-06
7.05337e-06
8.08994e-07
6.07011e-06
1.54739e-06
-3.766e-07
-2.01909e-06
-3.17075e-06
-2.49014e-06
3.19541e-06
2.5913e-07
5.81699e-06
5.6107e-06
3.24542e-06
6.34895e-06
-9.97925e-07
6.7746e-06
1.34355e-06
6.85808e-06
-6.70934e-06
6.0942e-06
3.54529e-06
-3.93485e-06
6.94485e-06
-5.2126e-06
-4.3668e-06
-3.59304e-06
-2.12999e-06
2.68708e-06
5.04386e-06
9.44281e-06
9.5905e-06
2.31563e-05
1.04543e-05
1.93852e-05
6.08963e-06
1.33688e-05
8.27433e-06
5.49311e-06
8.71174e-06
7.31738e-08
6.73281e-06
-1.54687e-06
7.98544e-06
8.19852e-07
-1.97503e-06
-4.78521e-06
-5.67204e-06
-3.738e-06
3.70887e-06
-1.3069e-06
6.1274e-06
6.44997e-06
3.43313e-06
7.42838e-06
-4.04625e-06
8.11942e-06
-2.99121e-07
8.6085e-06
-8.00844e-06
5.41113e-06
1.65042e-06
-3.17956e-06
9.32356e-06
-8.94949e-06
-6.88911e-06
-7.00292e-06
-3.90087e-06
2.91031e-06
5.06585e-06
9.38623e-06
8.82148e-06
2.84308e-05
1.04695e-05
2.20167e-05
3.09133e-06
1.3394e-05
6.99122e-06
5.15424e-06
9.18478e-06
-3.37009e-06
5.64977e-06
-4.63173e-06
1.13305e-05
2.6764e-07
-4.18251e-06
-8.88084e-06
-8.89675e-06
-4.46256e-06
4.71042e-06
-3.49472e-06
6.11465e-06
7.49785e-06
4.2163e-06
8.85049e-06
-8.38594e-06
9.43256e-06
-2.4924e-06
1.13418e-05
-9.43226e-06
4.31404e-06
-1.36195e-06
-2.08674e-06
1.32469e-05
-1.35507e-05
-1.04352e-05
-1.17513e-05
-6.02678e-06
4.18569e-06
5.71836e-06
8.76349e-06
7.13443e-06
3.47345e-05
1.10435e-05
2.5207e-05
-1.1698e-06
1.26094e-05
4.74297e-06
5.80575e-06
1.03026e-05
-8.15215e-06
3.20674e-06
-8.64762e-06
1.68318e-05
1.84032e-07
-7.31668e-06
-1.49582e-05
-1.31359e-05
-4.07883e-06
6.45948e-06
-6.54231e-06
5.35098e-06
8.65071e-06
6.07537e-06
1.08546e-05
-1.4447e-05
1.01117e-05
-5.46295e-06
1.55124e-05
-1.07554e-05
2.51821e-06
-6.20341e-06
-9.31167e-07
1.94937e-05
-1.89517e-05
-1.54438e-05
-1.84249e-05
-8.76496e-06
7.24212e-06
7.37234e-06
7.17967e-06
3.89115e-06
4.18809e-05
1.29239e-05
2.92917e-05
-7.03279e-06
1.05322e-05
1.09951e-06
8.25803e-06
1.25875e-05
-1.47527e-05
-1.59144e-06
-1.39327e-05
2.54559e-05
9.36242e-07
-1.182e-05
-2.4007e-05
-1.87433e-05
-1.69681e-06
9.34557e-06
-1.07747e-05
3.1322e-06
9.66541e-06
9.61408e-06
1.38239e-05
-2.27446e-05
9.36452e-06
-9.55199e-06
2.18044e-05
-1.16635e-05
-3.25783e-07
-1.39245e-05
-9.43448e-08
2.91366e-05
-2.49939e-05
-2.2599e-05
-2.78591e-05
-1.2574e-05
1.31894e-05
1.09642e-05
4.06336e-06
-1.81391e-06
4.94254e-05
1.71896e-05
3.47461e-05
-1.48884e-05
6.02504e-06
-4.89774e-06
1.38074e-05
1.69319e-05
-2.37318e-05
-1.00438e-05
-2.09476e-05
3.84639e-05
3.02455e-06
-1.82117e-05
-3.73397e-05
-2.62501e-05
3.8665e-06
1.42269e-05
-1.65464e-05
-1.45406e-06
1.0115e-05
1.57966e-05
1.8424e-05
-3.3969e-05
5.99974e-06
-1.5281e-05
3.12156e-05
-1.15106e-05
-4.65844e-06
-2.60161e-05
-3.14283e-07
4.3572e-05
-3.12195e-05
-3.27767e-05
-4.12727e-05
-1.80914e-05
2.36296e-05
1.74227e-05
-1.26465e-06
-1.12561e-05
5.67483e-05
2.54308e-05
4.22724e-05
-2.54044e-05
-1.74892e-06
-1.42453e-05
2.39007e-05
2.43747e-05
-3.60551e-05
-2.38956e-05
-3.02914e-05
5.75018e-05
7.26653e-06
-2.71601e-05
-5.67412e-05
-3.6484e-05
1.41075e-05
2.15765e-05
-2.45028e-05
-9.7851e-06
9.02451e-06
2.57692e-05
2.56232e-05
-4.8982e-05
-1.62932e-06
-2.33975e-05
4.50501e-05
-9.33169e-06
-1.09279e-05
-4.43867e-05
-2.42315e-06
6.45901e-05
-3.71087e-05
-4.7109e-05
-6.03398e-05
-2.62178e-05
4.05854e-05
2.81484e-05
-9.82013e-06
-2.61893e-05
6.25507e-05
3.96493e-05
5.27826e-05
-3.91092e-05
-1.53977e-05
-2.8691e-05
4.11382e-05
3.64602e-05
-5.2818e-05
-4.52156e-05
-4.28642e-05
8.46245e-05
1.49484e-05
-3.92029e-05
-8.44473e-05
-5.04533e-05
3.12628e-05
3.33817e-05
-3.50429e-05
-2.34731e-05
5.33094e-06
4.12414e-05
3.65752e-05
-6.89377e-05
-1.58255e-05
-3.49936e-05
6.50349e-05
-4.18861e-06
-1.99331e-05
-7.14693e-05
-8.10555e-06
9.4219e-05
-4.15441e-05
-6.6936e-05
-8.69782e-05
-3.83096e-05
6.61915e-05
4.47935e-05
-2.25279e-05
-4.8833e-05
6.52806e-05
6.23407e-05
6.74435e-05
-5.74267e-05
-3.55688e-05
-4.9751e-05
6.69798e-05
5.45554e-05
-7.56226e-05
-7.6767e-05
-5.97736e-05
0.000122051
2.72115e-05
-5.57907e-05
-0.000123274
-6.95472e-05
5.82757e-05
4.94136e-05
-4.94063e-05
-4.51348e-05
-2.78902e-06
6.41353e-05
5.28466e-05
-9.50606e-05
-3.91349e-05
-5.14335e-05
9.30787e-05
5.85336e-06
-3.24481e-05
-0.000110257
-1.84503e-05
0.000134821
-4.38082e-05
-9.37705e-05
-0.000123912
-5.55361e-05
0.000104031
6.90308e-05
-4.11499e-05
-8.1918e-05
6.28371e-05
9.62407e-05
8.73681e-05
-8.03522e-05
-6.78368e-05
-8.05407e-05
0.000105906
8.08458e-05
-0.000105709
-0.000121526
-8.25868e-05
0.000172343
4.59007e-05
-7.743e-05
-0.000176386
-9.54954e-05
9.72703e-05
7.41348e-05
-6.74356e-05
-7.68396e-05
-1.70669e-05
9.69288e-05
7.57018e-05
-0.000129021
-7.49129e-05
-7.46627e-05
0.000131556
2.15195e-05
-4.95289e-05
-0.000163795
-3.7286e-05
0.00018826
-4.23212e-05
-0.000129201
-0.000173748
-8.14295e-05
0.000155896
0.000102706
-6.6263e-05
-0.000128614
5.27502e-05
0.00014414
0.000113885
-0.000110911
-0.000109245
-0.000122584
0.000157468
0.000115897
-0.00014574
-0.000182961
-0.000113017
0.000237555
7.1595e-05
-0.00010683
-0.00024743
-0.000130538
0.000151851
0.000103475
-9.1869e-05
-0.00012301
-4.0669e-05
0.00014226
0.000106962
-0.000172378
-0.000126418
-0.000106812
0.000182349
4.64089e-05
-7.22779e-05
-0.000236906
-6.43866e-05
0.00025635
-3.68205e-05
-0.000174672
-0.000240223
-0.000114783
0.000225283
0.000145473
-0.000100372
-0.000192513
3.12677e-05
0.000207949
0.000147577
-0.0001476
-0.000174778
-0.000181396
0.000229811
0.00016276
-0.000196283
-0.000265979
-0.000153529
0.000319921
0.000107579
-0.000143346
-0.000340683
-0.000177499
0.00022324
0.000148649
-0.000121217
-0.000184956
-7.63605e-05
0.000201232
0.000147366
-0.000226771
-0.000198601
-0.000150968
0.000248048
7.84453e-05
-0.000101701
-0.000332849
-0.000109989
0.000337513
-2.3747e-05
-0.000228752
-0.000329916
-0.000165628
0.000311107
0.000203156
-0.000141001
-0.000278457
-4.29176e-06
0.000288515
0.000189324
-0.000192937
-0.000246649
-0.000259162
0.000313034
0.00021686
-0.000257466
-0.000373104
-0.000209203
0.000417817
0.000150886
-0.000190023
-0.00046027
-0.000239418
0.000312144
0.000192547
-0.000158605
-0.000270919
-0.000128086
0.000277837
0.000194568
-0.000290448
-0.000295148
-0.000211019
0.000328202
0.000125504
-0.000138588
-0.000466993
-0.000165654
0.000435342
-5.42651e-06
-0.000292471
-0.000446938
-0.000228055
0.000411714
0.000262253
-0.000187861
-0.000394276
-5.84131e-05
0.000385145
0.000243319
-0.000241272
-0.000372902
-0.00035719
0.000428159
0.000288188
-0.000329437
-0.000516914
-0.000274854
0.000535084
0.000211085
-0.000241394
-0.000615772
-0.000320722
0.000418477
0.000268053
-0.000200745
-0.000383064
-0.000200077
0.000370406
0.000260878
-0.000365887
-0.000424907
-0.000285372
0.000425609
0.000176342
-0.000181389
-0.000627445
-0.00025724
0.000546572
3.36893e-05
-0.000359375
-0.000591216
-0.000304321
0.000522394
0.000365033
-0.000234064
-0.00053601
-0.000123076
0.000495408
0.00032376
-0.000285097
-0.000486968
-0.000476659
0.000536754
0.000368088
-0.000394926
-0.000688956
-0.00038368
0.0006524
0.000295639
-0.000286933
-0.000801282
-0.000419906
0.000534297
0.000334181
-0.000250551
-0.000525215
-0.000285825
0.00047467
0.000339682
-0.000434054
-0.000585129
-0.00038028
0.000531981
0.00025781
-0.000231837
-0.000819727
-0.000307689
0.000671228
9.42282e-05
-0.000419091
-0.000752704
-0.000398747
0.000640137
0.00046028
-0.000281216
-0.000705676
-0.000193412
0.000601703
0.000434461
-0.000334972
-0.000670478
-0.000575149
0.000668525
0.000508588
-0.000452491
-0.00089394
-0.000440276
0.000788471
0.000376342
-0.000334102
-0.00101058
-0.000514767
0.00066037
0.000456944
-0.000298573
-0.000691108
-0.000368966
0.000587495
0.000473424
-0.000489994
-0.000754819
-0.000465493
0.0006404
0.000373427
-0.000282398
-0.000985943
-0.000397865
0.000798943
0.000221648
-0.000468391
-0.000908377
-0.000448781
0.000754911
0.000644485
-0.000294121
-0.000838136
-0.000232809
0.000688315
0.000558074
-0.000331374
-0.000790923
-0.000658445
0.000784639
0.000655853
-0.000480797
-0.00108415
-0.000524354
0.00091375
0.000541516
-0.000331644
-0.00120273
-0.000581088
0.000778319
0.000573412
-0.000321572
-0.000841887
-0.000434027
0.000673827
0.000617396
-0.000505958
-0.000915795
-0.000534645
0.000736506
0.000473156
-0.000313946
-0.00109742
-0.000393578
0.000898891
0.00030948
-0.000473956
-0.000996149
-0.000501654
0.000841477
0.00073773
-0.000317789
-0.000954946
-0.000250631
0.000777973
0.000637287
-0.000367898
-0.00091555
-0.000673262
0.000892743
0.000815729
-0.000473025
-0.00122435
-0.000548631
0.00101835
0.000644611
-0.000352697
-0.00133237
-0.000642285
0.000878098
0.000706744
-0.000329634
-0.000950894
-0.000461534
0.000752116
0.000774499
-0.000504276
-0.000999917
-0.000564665
0.000804667
0.000617415
-0.00032725
-0.00115078
-0.000438028
0.000960215
0.000453313
-0.000482805
-0.00106596
-0.000504181
0.000882304
0.000804144
-0.000310667
-0.00100555
-0.000298974
0.000764936
0.000714517
-0.000331033
-0.000946383
-0.000715862
0.000943789
0.00089124
-0.000457952
-0.00127673
-0.000565572
0.00106802
0.000702043
-0.000352945
-0.00138654
-0.00064181
0.00094422
0.00076175
-0.000346331
-0.0010079
-0.000454774
0.000795453
0.000863209
-0.000484342
-0.00106331
-0.000559277
0.000859135
0.000628846
-0.000338238
-0.00114931
-0.00042262
0.000975252
0.000471392
-0.000453414
-0.00107087
-0.000522134
0.000884817
0.000853843
-0.00030394
-0.00102121
-0.000274014
0.000777269
0.000731042
-0.000335434
-0.000964126
-0.000684309
0.000946415
0.000917393
-0.000425765
-0.00128265
-0.000550787
0.0010696
0.00071347
-0.000334347
-0.00139088
-0.000675648
0.000958041
0.00078392
-0.000334588
-0.00102245
-0.000468365
0.000803067
0.000900321
-0.000455399
-0.00106787
-0.000572455