/*--------------------------------*- C++ -*----------------------------------*\
  =========                 |
  \\      /  F ield         | OpenFOAM: The Open Source CFD Toolbox
   \\    /   O peration     | Website:  https://openfoam.org
    \\  /    A nd           | Version:  10
     \\/     M anipulation  |
\*---------------------------------------------------------------------------*/
FoamFile
{
    format      ascii;
    class       volVectorField;
    location    "1";
    object      U;
}
// * * * * * * * * * * * * * * * * * * * * * * * * * * * * * * * * * * * * * //

dimensions      [0 1 -1 0 0 0 0];

internalField   nonuniform List<vector> 
25600
(
(0.131568 2.30199e-05 3.5068e-06)
(0.131577 2.79382e-05 2.29889e-06)
(0.131561 2.05966e-05 3.30819e-06)
(0.131553 1.16962e-05 2.7135e-06)
(0.131554 8.58057e-06 2.43959e-06)
(0.131547 7.34113e-06 2.35325e-06)
(0.131548 7.00994e-06 2.38342e-06)
(0.131545 6.31933e-06 2.53372e-06)
(0.131544 5.0216e-06 2.51169e-06)
(0.131543 3.22975e-06 2.45802e-06)
(0.131543 1.67203e-06 2.24903e-06)
(0.131543 -7.44225e-07 2.13428e-06)
(0.131544 -1.86508e-06 1.96499e-06)
(0.131545 -3.56916e-06 1.91515e-06)
(0.131547 -4.16896e-06 1.83051e-06)
(0.131548 -4.80593e-06 1.73611e-06)
(0.13155 -5.14333e-06 1.55607e-06)
(0.131551 -4.84728e-06 1.23776e-06)
(0.131553 -4.85686e-06 8.54721e-07)
(0.131554 -3.98388e-06 2.99206e-07)
(0.131555 -3.37516e-06 -1.55833e-07)
(0.131557 -1.91725e-06 -6.06814e-07)
(0.131557 -6.91893e-07 -7.62177e-07)
(0.131558 6.69575e-07 -8.04711e-07)
(0.131558 1.85583e-06 -5.3601e-07)
(0.131558 2.70717e-06 -6.37555e-09)
(0.131557 3.15912e-06 6.45948e-07)
(0.131556 3.62828e-06 1.473e-06)
(0.131554 2.67511e-06 2.17747e-06)
(0.131553 2.03082e-06 2.86688e-06)
(0.131553 4.40324e-07 3.38802e-06)
(0.131551 -7.01655e-07 3.7913e-06)
(0.131555 -1.43985e-06 3.97283e-06)
(0.13155 -1.34369e-06 4.08957e-06)
(0.131555 -3.69448e-06 3.87359e-06)
(0.131553 4.05763e-06 4.06869e-06)
(0.131546 -1.60804e-05 2.4415e-06)
(0.13157 2.45561e-05 4.72709e-06)
(0.131521 -2.24203e-05 -6.73668e-07)
(0.131601 -6.22925e-05 -1.89411e-06)
(0.133091 7.27716e-06 1.50153e-06)
(0.133124 6.40071e-06 -1.93841e-06)
(0.133125 7.91996e-06 9.45678e-07)
(0.133122 7.41332e-06 1.59179e-06)
(0.133125 8.61597e-06 1.7151e-06)
(0.133117 8.90762e-06 1.90412e-06)
(0.133118 9.34072e-06 2.04901e-06)
(0.133114 8.692e-06 2.49693e-06)
(0.133113 7.11176e-06 2.54432e-06)
(0.133112 4.60455e-06 2.59132e-06)
(0.13311 2.73653e-06 2.37962e-06)
(0.133111 -1.22027e-06 2.29366e-06)
(0.133112 -2.11177e-06 2.11128e-06)
(0.133113 -5.13084e-06 2.19408e-06)
(0.133115 -5.25704e-06 2.1951e-06)
(0.133117 -6.29816e-06 2.24372e-06)
(0.133119 -6.76971e-06 2.13617e-06)
(0.133121 -5.74021e-06 1.89605e-06)
(0.133123 -6.13575e-06 1.56431e-06)
(0.133124 -4.43744e-06 9.35592e-07)
(0.133125 -4.2611e-06 5.03692e-07)
(0.133127 -2.306e-06 -7.99093e-08)
(0.133128 -8.86792e-07 -2.47753e-07)
(0.133129 6.35425e-07 -4.53831e-07)
(0.133129 2.60677e-06 -3.37767e-07)
(0.133128 3.62597e-06 2.209e-07)
(0.133127 4.46671e-06 7.04993e-07)
(0.133125 5.36899e-06 1.59312e-06)
(0.133123 3.71899e-06 2.22772e-06)
(0.133121 2.88645e-06 2.99868e-06)
(0.133121 5.14187e-07 3.56188e-06)
(0.133119 -1.5097e-06 4.08315e-06)
(0.133123 -1.59884e-06 4.32244e-06)
(0.133119 -2.78938e-06 4.49627e-06)
(0.133125 -1.70224e-06 4.46339e-06)
(0.133122 -9.00325e-07 3.89378e-06)
(0.133122 -2.54083e-06 4.20015e-06)
(0.133122 4.04272e-06 1.84486e-06)
(0.133136 -3.39947e-06 3.62225e-07)
(0.133122 -5.34886e-06 4.9363e-06)
(0.133306 7.17524e-06 7.56344e-07)
(0.13333 7.84993e-06 -3.09512e-06)
(0.133329 8.11213e-06 2.1122e-07)
(0.133327 8.8172e-06 1.03753e-06)
(0.13333 1.06084e-05 1.14165e-06)
(0.133322 1.12046e-05 1.67571e-06)
(0.133323 1.22197e-05 1.85034e-06)
(0.133318 1.14303e-05 2.76193e-06)
(0.133316 9.52352e-06 2.78813e-06)
(0.133315 5.84165e-06 2.94125e-06)
(0.133313 4.12662e-06 2.61165e-06)
(0.133314 -2.45397e-06 2.59149e-06)
(0.133315 -2.3125e-06 2.32712e-06)
(0.133317 -7.35522e-06 2.65673e-06)
(0.13332 -6.27316e-06 2.79408e-06)
(0.133321 -7.817e-06 3.06851e-06)
(0.133325 -8.42968e-06 3.07528e-06)
(0.133326 -6.08903e-06 2.89319e-06)
(0.133328 -7.29153e-06 2.62269e-06)
(0.13333 -4.14425e-06 1.64773e-06)
(0.133331 -4.97325e-06 1.23342e-06)
(0.133334 -2.03443e-06 3.0079e-07)
(0.133334 -5.8941e-07 1.11706e-07)
(0.133335 1.21403e-06 -3.37319e-07)
(0.133335 4.11069e-06 -4.04402e-07)
(0.133334 5.19655e-06 3.95129e-07)
(0.133333 6.47586e-06 7.60183e-07)
(0.133329 8.31233e-06 1.9765e-06)
(0.133327 5.28415e-06 2.53432e-06)
(0.133325 4.37776e-06 3.56909e-06)
(0.133324 5.13964e-07 4.1843e-06)
(0.133323 -2.8366e-06 4.91854e-06)
(0.133328 -2.07063e-06 5.12682e-06)
(0.133324 -4.44945e-06 5.46672e-06)
(0.133331 -1.47693e-06 5.43598e-06)
(0.133326 -1.33281e-06 4.54655e-06)
(0.133329 -2.21707e-06 5.14267e-06)
(0.133327 3.52759e-06 1.80865e-06)
(0.133333 -1.01858e-06 8.03417e-07)
(0.133332 -4.46203e-06 5.2175e-06)
(0.133485 6.24692e-06 3.35744e-08)
(0.133508 6.42292e-06 -4.4148e-06)
(0.133509 5.00576e-06 -7.58862e-07)
(0.133507 8.56016e-06 4.48846e-07)
(0.13351 1.18412e-05 4.92617e-07)
(0.133502 1.33241e-05 1.64145e-06)
(0.133502 1.56237e-05 1.71051e-06)
(0.133496 1.46348e-05 3.36756e-06)
(0.133492 1.2468e-05 3.18601e-06)
(0.133491 6.80597e-06 3.47686e-06)
(0.133488 6.15186e-06 2.85763e-06)
(0.13349 -5.01246e-06 2.9623e-06)
(0.133492 -2.43097e-06 2.47167e-06)
(0.133494 -1.07728e-05 3.2843e-06)
(0.133499 -7.22461e-06 3.6014e-06)
(0.133499 -9.5074e-06 4.26501e-06)
(0.133504 -1.0307e-05 4.43577e-06)
(0.133505 -5.70775e-06 4.33758e-06)
(0.133508 -8.43379e-06 4.16614e-06)
(0.13351 -2.67842e-06 2.55922e-06)
(0.133511 -5.64265e-06 2.15666e-06)
(0.133514 -7.14853e-07 5.84619e-07)
(0.133514 1.61921e-07 4.31704e-07)
(0.133516 2.48785e-06 -5.79704e-07)
(0.133516 6.42208e-06 -8.66015e-07)
(0.133513 7.31766e-06 5.57045e-07)
(0.133513 9.24843e-06 7.5644e-07)
(0.133507 1.27493e-05 2.61525e-06)
(0.133503 7.37826e-06 3.05564e-06)
(0.133501 6.47377e-06 4.52926e-06)
(0.133499 4.22466e-07 5.2004e-06)
(0.133501 -5.24507e-06 6.2665e-06)
(0.133505 -2.51294e-06 6.37988e-06)
(0.133503 -7.40154e-06 6.97971e-06)
(0.133511 1.28254e-07 6.96926e-06)
(0.133504 -3.13481e-06 5.63709e-06)
(0.133509 1.17213e-06 6.32915e-06)
(0.133506 2.25283e-06 2.05433e-06)
(0.133513 3.52312e-06 1.15033e-06)
(0.133512 4.34629e-06 5.23352e-06)
(0.133654 6.87377e-06 -5.64486e-07)
(0.133676 7.63435e-06 -5.7683e-06)
(0.133678 2.22717e-06 -1.90803e-06)
(0.133678 8.87941e-06 -2.08938e-08)
(0.13368 1.32605e-05 -3.55755e-07)
(0.133671 1.55995e-05 1.87665e-06)
(0.133671 1.9877e-05 1.59963e-06)
(0.133662 1.83918e-05 4.4236e-06)
(0.133657 1.5982e-05 3.70507e-06)
(0.133657 7.06671e-06 4.13532e-06)
(0.133651 9.37529e-06 3.01373e-06)
(0.133654 -9.44891e-06 3.38846e-06)
(0.133658 -2.32095e-06 2.37123e-06)
(0.13366 -1.59387e-05 4.04182e-06)
(0.133667 -8.07014e-06 4.59744e-06)
(0.133665 -1.13821e-05 5.91939e-06)
(0.133674 -1.25075e-05 6.38894e-06)
(0.133674 -4.24343e-06 6.38684e-06)
(0.133676 -9.56209e-06 6.44336e-06)
(0.133678 5.91804e-07 3.64374e-06)
(0.133679 -6.35952e-06 3.4743e-06)
(0.133684 2.12878e-06 7.44434e-07)
(0.133683 1.54612e-06 7.04003e-07)
(0.133686 4.56626e-06 -1.28688e-06)
(0.133685 9.54896e-06 -1.96022e-06)
(0.133682 9.73193e-06 7.72928e-07)
(0.133683 1.29179e-05 7.00864e-07)
(0.133675 1.90868e-05 3.63779e-06)
(0.133669 1.00009e-05 3.7258e-06)
(0.133666 9.31317e-06 6.02428e-06)
(0.133662 -4.14374e-08 6.68674e-06)
(0.133667 -9.23398e-06 8.23958e-06)
(0.133672 -3.06408e-06 7.98712e-06)
(0.133671 -1.19941e-05 9.07641e-06)
(0.13368 2.56348e-06 9.11158e-06)
(0.133672 -4.90818e-06 7.12231e-06)
(0.133679 3.50453e-06 7.96338e-06)
(0.133674 2.63547e-06 2.61147e-06)
(0.133682 6.32125e-06 1.8143e-06)
(0.133681 6.25089e-06 4.27452e-06)
(0.133811 8.37582e-06 -1.11301e-06)
(0.133832 8.78887e-06 -7.26129e-06)
(0.133836 -3.0176e-06 -3.45359e-06)
(0.13384 8.63467e-06 -3.00204e-07)
(0.133841 1.41292e-05 -1.45492e-06)
(0.133832 1.79129e-05 2.47059e-06)
(0.133829 2.52893e-05 1.48805e-06)
(0.133819 2.27049e-05 6.07946e-06)
(0.13381 1.99304e-05 4.29488e-06)
(0.133812 5.80135e-06 4.77234e-06)
(0.133803 1.44517e-05 3.02195e-06)
(0.133808 -1.6415e-05 3.89421e-06)
(0.133813 -1.80681e-06 1.88799e-06)
(0.133816 -2.3664e-05 4.88635e-06)
(0.133827 -9.03605e-06 5.69547e-06)
(0.133821 -1.35111e-05 8.13712e-06)
(0.133834 -1.51377e-05 9.17732e-06)
(0.133832 -1.4154e-06 9.27542e-06)
(0.133836 -1.08974e-05 9.66298e-06)
(0.133837 6.44038e-06 5.00539e-06)
(0.133837 -7.20755e-06 5.34252e-06)
(0.133845 7.34539e-06 1.00703e-06)
(0.133841 3.87681e-06 9.23386e-07)
(0.133847 7.8094e-06 -2.83647e-06)
(0.133845 1.33301e-05 -4.19486e-06)
(0.133841 1.20248e-05 1.18863e-06)
(0.133845 1.76001e-05 7.56488e-07)
(0.133831 2.78495e-05 5.17294e-06)
(0.133823 1.32166e-05 4.50797e-06)
(0.13382 1.25814e-05 8.15244e-06)
(0.133812 -8.1515e-07 8.81297e-06)
(0.133824 -1.54394e-05 1.11649e-05)
(0.133829 -3.45446e-06 1.00858e-05)
(0.133831 -1.91562e-05 1.18694e-05)
(0.13384 6.95984e-06 1.20131e-05)
(0.13383 -7.51574e-06 9.01651e-06)
(0.13384 7.67605e-06 1.02701e-05)
(0.133832 3.17864e-06 3.39472e-06)
(0.133842 1.05433e-05 2.66524e-06)
(0.133839 9.79886e-06 3.02746e-06)
(0.133958 1.07873e-05 -1.07879e-06)
(0.133976 1.05181e-05 -8.59997e-06)
(0.133984 -1.09703e-05 -5.68047e-06)
(0.133995 7.68071e-06 -2.86665e-07)
(0.133992 1.38368e-05 -2.86788e-06)
(0.133984 2.03208e-05 3.7364e-06)
(0.13398 3.24802e-05 1.62799e-06)
(0.133965 2.77899e-05 8.6115e-06)
(0.133953 2.39656e-05 4.70023e-06)
(0.133959 2.0591e-06 5.08399e-06)
(0.133944 2.23408e-05 2.88119e-06)
(0.133951 -2.6425e-05 4.58697e-06)
(0.13396 -8.55444e-07 5.8027e-07)
(0.133962 -3.50792e-05 5.58356e-06)
(0.133979 -1.06557e-05 6.67541e-06)
(0.133967 -1.59589e-05 1.10555e-05)
(0.133986 -1.82761e-05 1.33316e-05)
(0.133982 3.22713e-06 1.31064e-05)
(0.133987 -1.25601e-05 1.39131e-05)
(0.133986 1.56903e-05 6.4085e-06)
(0.133986 -8.40223e-06 8.38154e-06)
(0.133997 1.61898e-05 1.55966e-06)
(0.13399 7.80895e-06 1.04291e-06)
(0.133999 1.25085e-05 -5.81421e-06)
(0.133994 1.72908e-05 -8.29483e-06)
(0.133991 1.36968e-05 2.12399e-06)
(0.133999 2.3688e-05 1.43482e-06)
(0.133978 3.98588e-05 7.29417e-06)
(0.133966 1.68992e-05 5.24535e-06)
(0.133964 1.57574e-05 1.10752e-05)
(0.133951 -2.36087e-06 1.20529e-05)
(0.133972 -2.45546e-05 1.56021e-05)
(0.133976 -2.93331e-06 1.2853e-05)
(0.133983 -2.99714e-05 1.55701e-05)
(0.133992 1.36657e-05 1.59788e-05)
(0.133978 -1.08936e-05 1.15192e-05)
(0.133992 1.39148e-05 1.39113e-05)
(0.13398 4.47475e-06 4.54047e-06)
(0.133993 1.58185e-05 3.79587e-06)
(0.133986 1.2924e-05 1.07754e-06)
(0.134096 1.52212e-05 3.6592e-08)
(0.134109 1.33521e-05 -8.61973e-06)
(0.134123 -2.17954e-05 -9.06036e-06)
(0.134142 5.17536e-06 1.87889e-07)
(0.134136 1.14803e-05 -4.57117e-06)
(0.13413 2.31208e-05 6.35541e-06)
(0.134121 4.23111e-05 2.78492e-06)
(0.134102 3.44821e-05 1.23517e-05)
(0.134084 2.71601e-05 4.35344e-06)
(0.134099 -5.53963e-06 4.65523e-06)
(0.134075 3.47906e-05 2.7184e-06)
(0.134083 -3.94929e-05 6.03248e-06)
(0.134097 3.34711e-07 -2.19254e-06)
(0.134099 -5.18376e-05 5.69302e-06)
(0.134125 -1.37941e-05 7.37724e-06)
(0.134105 -1.85084e-05 1.48814e-05)
(0.134132 -2.16436e-05 1.98503e-05)
(0.134122 1.02719e-05 1.7877e-05)
(0.13413 -1.52319e-05 1.90092e-05)
(0.134127 2.85793e-05 7.78062e-06)
(0.134125 -1.00919e-05 1.30915e-05)
(0.134142 3.03431e-05 3.59628e-06)
(0.134128 1.45844e-05 9.72905e-07)
(0.134141 1.87185e-05 -1.13214e-05)
(0.134134 2.05013e-05 -1.52944e-05)
(0.134133 1.43169e-05 4.30322e-06)
(0.134147 3.20929e-05 3.99997e-06)
(0.134116 5.67407e-05 9.78758e-06)
(0.134098 2.08072e-05 5.42431e-06)
(0.134098 1.78464e-05 1.48516e-05)
(0.134078 -4.81102e-06 1.7159e-05)
(0.134111 -3.67117e-05 2.2902e-05)
(0.134113 -4.84131e-07 1.67231e-05)
(0.134127 -4.61519e-05 2.02249e-05)
(0.134137 2.26988e-05 2.14314e-05)
(0.134117 -1.50451e-05 1.53448e-05)
(0.134136 2.35567e-05 2.02689e-05)
(0.134119 7.05934e-06 6.86266e-06)
(0.134135 2.244e-05 5.03023e-06)
(0.134124 1.58887e-05 -1.83014e-06)
(0.134226 2.3745e-05 3.54472e-06)
(0.134231 1.82633e-05 -5.01578e-06)
(0.134252 -3.47245e-05 -1.39e-05)
(0.134282 -4.76992e-07 8.3935e-07)
(0.134272 5.84343e-06 -6.63295e-06)
(0.13427 2.73358e-05 1.15824e-05)
(0.134256 5.62163e-05 6.75708e-06)
(0.134229 4.46694e-05 1.79054e-05)
(0.134204 2.77069e-05 2.08036e-06)
(0.134233 -1.83328e-05 2.61277e-06)
(0.134198 5.43857e-05 3.31643e-06)
(0.134205 -5.45234e-05 9.53303e-06)
(0.134225 2.24941e-06 -6.90207e-06)
(0.134226 -7.64385e-05 4.28336e-06)
(0.134266 -1.99137e-05 7.43005e-06)
(0.134234 -2.00827e-05 2.03222e-05)
(0.13427 -2.44259e-05 3.07361e-05)
(0.134254 2.12156e-05 2.32486e-05)
(0.134265 -2.03482e-05 2.37253e-05)
(0.134259 4.46951e-05 8.21117e-06)
(0.134257 -1.20151e-05 2.07063e-05)
(0.13428 5.23733e-05 9.18607e-06)
(0.134255 2.60934e-05 4.24928e-07)
(0.134273 2.56608e-05 -2.11266e-05)
(0.134264 2.13144e-05 -2.67264e-05)
(0.134268 1.39422e-05 9.0439e-06)
(0.134291 4.45978e-05 1.10303e-05)
(0.134244 8.0896e-05 1.23391e-05)
(0.134218 2.43546e-05 3.9287e-06)
(0.134222 1.72522e-05 1.91611e-05)
(0.134195 -7.14092e-06 2.51142e-05)
(0.134244 -5.14654e-05 3.51585e-05)
(0.134241 5.27137e-06 2.16191e-05)
(0.134264 -7.0521e-05 2.58987e-05)
(0.134277 3.33161e-05 2.85657e-05)
(0.134248 -1.93589e-05 2.13007e-05)
(0.134273 3.79857e-05 3.17241e-05)
(0.134248 1.22149e-05 1.10437e-05)
(0.13427 2.94427e-05 5.91938e-06)
(0.134254 1.74959e-05 -6.24743e-06)
(0.134348 3.98244e-05 1.16694e-05)
(0.13434 2.68284e-05 6.7195e-06)
(0.134371 -4.81646e-05 -2.07587e-05)
(0.134415 -1.35078e-05 9.30521e-07)
(0.134403 -5.61989e-06 -9.20761e-06)
(0.134407 3.53766e-05 2.15597e-05)
(0.134384 7.67324e-05 1.69291e-05)
(0.134344 6.03738e-05 2.50947e-05)
(0.134311 2.09822e-05 -4.29599e-06)
(0.134365 -3.91018e-05 -2.10261e-06)
(0.134313 8.47862e-05 6.58033e-06)
(0.134315 -6.8883e-05 1.82663e-05)
(0.134342 5.37601e-06 -1.49546e-05)
(0.134344 -0.00011383 -7.8594e-07)
(0.134405 -3.15543e-05 5.98147e-06)
(0.134357 -1.80276e-05 2.84014e-05)
(0.134403 -2.43159e-05 4.995e-05)
(0.134377 3.80617e-05 2.95417e-05)
(0.134393 -3.04844e-05 2.58379e-05)
(0.134384 6.23045e-05 6.43672e-06)
(0.134383 -1.26818e-05 3.28812e-05)
(0.134413 8.60661e-05 2.25371e-05)
(0.134371 4.49659e-05 -1.12979e-06)
(0.134394 3.07635e-05 -3.83477e-05)
(0.134384 1.65023e-05 -4.48007e-05)
(0.134398 1.34679e-05 1.87668e-05)
(0.134432 6.47918e-05 2.75976e-05)
(0.134362 0.00011521 1.46343e-05)
(0.134325 2.55127e-05 -1.45089e-06)
(0.134338 1.18829e-05 2.3176e-05)
(0.134302 -7.36117e-06 3.76608e-05)
(0.134371 -6.7342e-05 5.61468e-05)
(0.134359 1.56624e-05 2.74098e-05)
(0.134393 -0.00010834 3.13772e-05)
(0.134413 4.3608e-05 3.67601e-05)
(0.134372 -2.19986e-05 3.10068e-05)
(0.134404 5.90706e-05 5.24746e-05)
(0.134367 2.17559e-05 1.79559e-05)
(0.134395 3.36816e-05 4.85053e-06)
(0.134377 1.54192e-05 -1.31386e-05)
(0.134466 6.95096e-05 2.83677e-05)
(0.134436 4.27017e-05 3.42472e-05)
(0.134477 -5.91676e-05 -3.13557e-05)
(0.134539 -4.13136e-05 -1.92898e-06)
(0.134531 -2.77283e-05 -1.30858e-05)
(0.134542 5.21819e-05 3.99701e-05)
(0.134505 0.000108201 3.90461e-05)
(0.134445 8.3428e-05 3.27513e-05)
(0.134403 -2.66608e-06 -1.94927e-05)
(0.134498 -7.3085e-05 -1.19959e-05)
(0.134425 0.000132271 1.61772e-05)
(0.134412 -7.74564e-05 3.85892e-05)
(0.134447 9.81147e-06 -2.81828e-05)
(0.134452 -0.000173049 -1.38166e-05)
(0.134544 -5.27887e-05 1.43946e-06)
(0.134475 -7.25686e-06 4.09672e-05)
(0.134531 -1.72676e-05 8.47824e-05)
(0.13449 6.25441e-05 3.71506e-05)
(0.134513 -5.17494e-05 2.1208e-05)
(0.134504 7.77389e-05 6.74974e-08)
(0.134505 -9.20538e-06 5.34144e-05)
(0.134542 0.000136343 5.12947e-05)
(0.134473 7.50739e-05 -4.43442e-06)
(0.134502 2.77148e-05 -6.78609e-05)
(0.134497 1.05704e-06 -7.31464e-05)
(0.134527 1.59191e-05 3.73172e-05)
(0.134571 9.76415e-05 6.20338e-05)
(0.134468 0.000163017 1.55029e-05)
(0.134416 1.97256e-05 -1.46729e-05)
(0.134448 -1.84078e-06 2.49626e-05)
(0.134402 -1.49603e-06 5.69898e-05)
(0.134492 -8.08042e-05 9.20234e-05)
(0.134463 3.19088e-05 3.3155e-05)
(0.134513 -0.000169586 3.31571e-05)
(0.134548 4.9429e-05 4.45179e-05)
(0.134491 -1.8845e-05 4.57599e-05)
(0.134529 8.99843e-05 9.01407e-05)
(0.134474 3.91044e-05 2.83939e-05)
(0.13451 2.77864e-05 -1.78198e-06)
(0.134496 6.49199e-06 -2.46869e-05)
(0.134582 0.000122982 5.96431e-05)
(0.134519 7.25428e-05 9.04806e-05)
(0.134567 -6.23462e-05 -4.84106e-05)
(0.134652 -9.69799e-05 -1.21752e-05)
(0.134662 -6.90008e-05 -1.9331e-05)
(0.134681 8.70744e-05 7.26046e-05)
(0.13462 0.000157477 8.31104e-05)
(0.134528 0.000115473 3.91633e-05)
(0.134478 -5.86618e-05 -5.20452e-05)
(0.134639 -0.00012841 -3.21415e-05)
(0.134536 0.000207156 3.70867e-05)
(0.134495 -7.12155e-05 8.22595e-05)
(0.134534 1.66185e-05 -5.02113e-05)
(0.134548 -0.000269237 -4.27376e-05)
(0.134691 -9.2009e-05 -8.52823e-06)
(0.134594 2.16867e-05 6.07595e-05)
(0.134652 3.91042e-06 0.000148992)
(0.134588 9.79707e-05 4.61463e-05)
(0.134622 -9.48573e-05 1.8692e-06)
(0.134623 8.50477e-05 -1.47936e-05)
(0.134628 7.33711e-06 8.7589e-05)
(0.134669 0.000210222 0.000107982)
(0.134557 0.00012062 -1.2561e-05)
(0.134593 6.04908e-06 -0.000118627)
(0.134605 -3.48843e-05 -0.000117106)
(0.134658 2.82759e-05 7.15315e-05)
(0.13471 0.000151863 0.0001298)
(0.134559 0.00022807 1.27087e-05)
(0.13449 -2.71393e-06 -4.25337e-05)
(0.134555 -2.91777e-05 2.11126e-05)
(0.134497 1.86858e-05 8.81937e-05)
(0.134607 -8.55507e-05 0.00015444)
(0.134551 5.59353e-05 3.81297e-05)
(0.134623 -0.000267711 2.45798e-05)
(0.13469 4.47752e-05 4.91666e-05)
(0.134609 -2.02705e-06 7.18106e-05)
(0.134649 0.000136093 0.00015736)
(0.134565 6.91008e-05 4.27255e-05)
(0.134612 1.76874e-06 -2.06763e-05)
(0.134618 -1.63259e-05 -4.45689e-05)
(0.134702 0.000216484 0.000115678)
(0.134588 0.00012721 0.000197288)
(0.134635 -5.03403e-05 -7.71283e-05)
(0.134749 -0.000200531 -3.92329e-05)
(0.134803 -0.000141037 -3.10584e-05)
(0.134828 0.000157185 0.000128138)
(0.134726 0.000234446 0.000165032)
(0.134586 0.000155959 3.97138e-05)
(0.134534 -0.000170011 -0.000114851)
(0.134797 -0.000216097 -6.96336e-05)
(0.134654 0.000324989 7.76238e-05)
(0.13456 -3.74047e-05 0.000167429)
(0.134595 2.73874e-05 -8.6183e-05)
(0.134629 -0.000426042 -0.000101287)
(0.134853 -0.000163762 -2.86329e-05)
(0.134718 8.67155e-05 9.18439e-05)
(0.134765 4.87353e-05 0.000261252)
(0.134666 0.000144817 5.54754e-05)
(0.134718 -0.000179595 -4.50632e-05)
(0.134748 7.12258e-05 -4.3733e-05)
(0.134757 5.04781e-05 0.00014417)
(0.134791 0.00031725 0.000213346)
(0.134617 0.000187781 -3.0619e-05)
(0.134662 -5.59897e-05 -0.00020289)
(0.134716 -0.000106454 -0.000184472)
(0.1348 6.35299e-05 0.00013096)
(0.134849 0.000240421 0.000252936)
(0.134629 0.000315439 2.17507e-06)
(0.134543 -6.08466e-05 -9.68711e-05)
(0.134666 -7.78542e-05 6.14312e-06)
(0.134593 6.77104e-05 0.000138958)
(0.134714 -7.11434e-05 0.000262242)
(0.134614 8.79334e-05 3.95966e-05)
(0.13472 -0.000423391 -3.62424e-06)
(0.134845 2.00797e-05 4.72422e-05)
(0.134729 4.42802e-05 0.000116877)
(0.134763 0.000206473 0.000273795)
(0.134636 0.000119302 6.10983e-05)
(0.134698 -6.34206e-05 -6.16647e-05)
(0.134748 -6.34949e-05 -7.93331e-05)
(0.134832 0.000373906 0.000208888)
(0.134639 0.000223144 0.00038473)
(0.13467 -1.29396e-05 -0.000124931)
(0.134824 -0.00038458 -9.8205e-05)
(0.134968 -0.000262613 -5.18004e-05)
(0.134991 0.000285317 0.000218326)
(0.134818 0.000355342 0.000311119)
(0.134606 0.00020702 2.7577e-05)
(0.134565 -0.000369984 -0.000231377)
(0.134986 -0.000352802 -0.000135913)
(0.134787 0.000509703 0.000148898)
(0.134604 4.48735e-05 0.000322366)
(0.134618 4.63236e-05 -0.000145145)
(0.134692 -0.000679136 -0.000207553)
(0.135045 -0.000284976 -6.62534e-05)
(0.134855 0.000208039 0.000141733)
(0.134865 0.00013398 0.000451974)
(0.134714 0.000211472 6.33038e-05)
(0.134797 -0.000331331 -0.000140357)
(0.134889 1.88916e-05 -9.71025e-05)
(0.134899 0.000141656 0.000235503)
(0.134908 0.000472562 0.00039603)
(0.134643 0.000281524 -6.75572e-05)
(0.134703 -0.000188191 -0.000339011)
(0.13484 -0.000232804 -0.000286006)
(0.13496 0.0001438 0.000229434)
(0.134985 0.000382155 0.000462727)
(0.134668 0.00042807 -2.20745e-05)
(0.134571 -0.000176531 -0.000197664)
(0.134792 -0.000160182 -2.89896e-05)
(0.134696 0.000167381 0.000219468)
(0.13481 -2.41732e-05 0.000440881)
(0.134643 0.00012987 3.67226e-05)
(0.1348 -0.000671224 -6.92518e-05)
(0.135025 -4.04376e-05 3.18703e-05)
(0.134859 0.000139093 0.000192056)
(0.134869 0.000314059 0.00046682)
(0.134676 0.000199227 8.17456e-05)
(0.134762 -0.000198247 -0.000141453)
(0.134901 -0.000150048 -0.000139553)
(0.134982 0.000630045 0.000356324)
(0.13467 0.000384836 0.000695383)
(0.134659 6.41765e-05 -0.000203172)
(0.134868 -0.000690816 -0.000213129)
(0.135172 -0.000455833 -8.75838e-05)
(0.135181 0.000507786 0.000361174)
(0.134891 0.000542223 0.000554051)
(0.134575 0.000270757 -1.0279e-05)
(0.134567 -0.000705 -0.00043223)
(0.135224 -0.000562448 -0.000245364)
(0.134946 0.00079536 0.000266134)
(0.134619 0.000203787 0.000584339)
(0.134587 7.93271e-05 -0.000239415)
(0.134731 -0.00107733 -0.000394412)
(0.135284 -0.000485365 -0.000129336)
(0.135017 0.00042379 0.000216938)
(0.134949 0.000274454 0.000758508)
(0.134721 0.000293218 6.56725e-05)
(0.13485 -0.000597921 -0.000312283)
(0.135062 -0.000104524 -0.000185794)
(0.135065 0.000313591 0.000376127)
(0.135016 0.000693653 0.000698357)
(0.134623 0.00041302 -0.000134606)
(0.134708 -0.000434341 -0.00055285)
(0.134994 -0.000443076 -0.000436324)
(0.135151 0.000299983 0.00038326)
(0.135113 0.00059903 0.000803705)
(0.134664 0.000580832 -6.94055e-05)
(0.134569 -0.000393262 -0.000369742)
(0.134946 -0.000297934 -9.63301e-05)
(0.134814 0.000350862 0.000343779)
(0.134889 7.83166e-05 0.000732261)
(0.134623 0.000187311 1.88882e-05)
(0.134859 -0.00105617 -0.000191697)
(0.135248 -0.000162213 -1.10338e-06)
(0.135008 0.000309989 0.000314398)
(0.134965 0.000477901 0.000778023)
(0.134675 0.000318985 0.000103284)
(0.134797 -0.000444249 -0.000285936)
(0.135092 -0.000296041 -0.000240063)
(0.135164 0.00103002 0.000576851)
(0.134674 0.000640553 0.00118064)
(0.134582 0.000203557 -0.000329081)
(0.134871 -0.00118069 -0.000417816)
(0.13544 -0.000756083 -0.000145064)
(0.135409 0.000868854 0.000574516)
(0.134935 0.000824014 0.000942356)
(0.134473 0.00035337 -8.41547e-05)
(0.134534 -0.00123235 -0.000761131)
(0.135536 -0.000874158 -0.000417224)
(0.135147 0.00122721 0.000446678)
(0.1346 0.00047161 0.00100656)
(0.13448 0.000134252 -0.000387838)
(0.134735 -0.00168766 -0.000698113)
(0.135597 -0.000788802 -0.000232968)
(0.135217 0.000765339 0.000332701)
(0.135004 0.000506599 0.00123924)
(0.134668 0.00041076 5.67214e-05)
(0.134872 -0.00102451 -0.000604721)
(0.135289 -0.000330898 -0.000326299)
(0.135268 0.000608921 0.000587556)
(0.135109 0.0010034 0.00116441)
(0.134539 0.000591332 -0.000253631)
(0.134664 -0.000845975 -0.000883263)
(0.135199 -0.000770673 -0.000655609)
(0.135387 0.000575603 0.000614086)
(0.135229 0.000921602 0.00133083)
(0.134598 0.000776748 -0.000153326)
(0.134527 -0.000747981 -0.000654856)
(0.135151 -0.000510805 -0.000217028)
(0.134959 0.000658662 0.0005277)
(0.134942 0.000261264 0.0011801)
(0.134536 0.000269569 -9.53728e-06)
(0.134889 -0.00163595 -0.000420549)
(0.135535 -0.000381959 -7.20563e-05)
(0.135187 0.000594213 0.000502147)
(0.135045 0.000720016 0.00125761)
(0.134614 0.000492308 0.000118129)
(0.134793 -0.000858685 -0.000529388)
(0.135344 -0.000530497 -0.000399328)
(0.135393 0.00163101 0.000889597)
(0.134647 0.00102944 0.00190538)
(0.134418 0.000415674 -0.000521077)
(0.134816 -0.00191815 -0.000758739)
(0.135802 -0.00118995 -0.000236954)
(0.135691 0.00143889 0.000882662)
(0.13494 0.00123175 0.00152524)
(0.134278 0.000460961 -0.000213273)
(0.134457 -0.00202207 -0.00127558)
(0.135949 -0.00132425 -0.00067688)
(0.135406 0.00186175 0.000707862)
(0.134536 0.000887742 0.00165047)
(0.13427 0.000220716 -0.000609966)
(0.134698 -0.00258251 -0.0011769)
(0.13601 -0.00125088 -0.000388827)
(0.135469 0.00131169 0.00049171)
(0.135028 0.000842902 0.00194857)
(0.134533 0.000540194 2.96569e-05)
(0.134848 -0.00169605 -0.00106588)
(0.135596 -0.000709561 -0.000534563)
(0.135521 0.00107799 0.000884814)
(0.135179 0.00142493 0.00186364)
(0.134372 0.000837724 -0.00043578)
(0.134561 -0.00150185 -0.00137288)
(0.135484 -0.00126108 -0.00096286)
(0.135684 0.00102365 0.000941387)
(0.135323 0.00137978 0.00211152)
(0.134453 0.00103757 -0.000299122)
(0.13444 -0.00132496 -0.00109492)
(0.135428 -0.000831875 -0.000407096)
(0.135143 0.00114326 0.00079231)
(0.134962 0.000558702 0.00185419)
(0.134361 0.000391491 -8.10624e-05)
(0.13488 -0.00247835 -0.000777241)
(0.13591 -0.000732913 -0.000178806)
(0.135411 0.00104474 0.000780387)
(0.135106 0.00107093 0.00196933)
(0.134473 0.000730486 0.000126119)
(0.134741 -0.00150513 -0.000918919)
(0.135687 -0.000881668 -0.000640892)
(0.135691 0.00250485 0.00130657)
(0.134589 0.00158629 0.00293996)
(0.134154 0.000736652 -0.000787014)
(0.134712 -0.00299338 -0.00129017)
(0.136306 -0.00182203 -0.000385279)
(0.136046 0.00227402 0.00129038)
(0.134897 0.00180534 0.00237931)
(0.133977 0.000606807 -0.000400044)
(0.134342 -0.00314969 -0.00204509)
(0.136513 -0.00195071 -0.00106386)
(0.135745 0.00276769 0.00105679)
(0.134428 0.00149564 0.00259271)
(0.133942 0.000347712 -0.00091461)
(0.134631 -0.00386037 -0.00188881)
(0.13658 -0.00188176 -0.000644664)
(0.135797 0.00209655 0.00070612)
(0.135008 0.00134489 0.00298186)
(0.134304 0.000749484 -6.76987e-06)
(0.134787 -0.00265374 -0.0017724)
(0.13603 -0.00127338 -0.000846434)
(0.135848 0.00178747 0.00129614)
(0.135231 0.0019877 0.00285101)
(0.134107 0.00114895 -0.000699559)
(0.134394 -0.00246668 -0.00208339)
(0.135902 -0.00195108 -0.00140694)
(0.136067 0.00171284 0.00137504)
(0.135399 0.00201733 0.00321736)
(0.134208 0.00135213 -0.000500664)
(0.134311 -0.00215482 -0.00176123)
(0.135825 -0.00128245 -0.000722242)
(0.135393 0.00187239 0.0011433)
(0.134949 0.000995564 0.00281292)
(0.134083 0.000556976 -0.000153948)
(0.134839 -0.00365988 -0.0013624)
(0.13642 -0.00126505 -0.000381661)
(0.135703 0.00171614 0.00115483)
(0.135144 0.00155878 0.00298168)
(0.134241 0.00105171 0.000123692)
(0.134644 -0.00246061 -0.00150971)
(0.136167 -0.00139627 -0.00100439)
(0.136142 0.00370721 0.00176304)
(0.134578 0.00236362 0.00441244)
(0.133859 0.00115718 -0.00101524)
(0.134668 -0.00446364 -0.00207039)
(0.137114 -0.00264386 -0.000721007)
(0.136564 0.00348818 0.00176013)
(0.134862 0.00257867 0.00358697)
(0.133625 0.000766984 -0.000559124)
(0.134305 -0.00469319 -0.00315207)
(0.137376 -0.00278706 -0.0017317)
(0.136241 0.00401532 0.00143046)
(0.134352 0.00234042 0.00395893)
(0.133565 0.000546492 -0.00116983)
(0.134697 -0.00558302 -0.00292017)
(0.137459 -0.00278305 -0.00113123)
(0.136285 0.00324159 0.000886831)
(0.135042 0.00202184 0.004429)
(0.134033 0.000938898 4.4291e-05)
(0.13478 -0.0040388 -0.00277838)
(0.13671 -0.00208947 -0.0013837)
(0.136315 0.00281211 0.00174688)
(0.135338 0.0027239 0.00426817)
(0.133801 0.00156413 -0.00091763)
(0.134266 -0.00384151 -0.00306578)
(0.136624 -0.0029009 -0.00215446)
(0.136636 0.00271124 0.00184508)
(0.135518 0.00286044 0.00476059)
(0.133931 0.00178587 -0.000689106)
(0.134268 -0.0033724 -0.00268968)
(0.136457 -0.00190532 -0.00128176)
(0.135795 0.00291162 0.00153565)
(0.134989 0.00163107 0.00421091)
(0.13377 0.000779048 -0.000169834)
(0.134908 -0.00525747 -0.00219277)
(0.137211 -0.00200848 -0.000753789)
(0.136149 0.00267968 0.00158753)
(0.135234 0.00222739 0.00441031)
(0.133971 0.00146767 0.000236509)
(0.134605 -0.00379311 -0.00237315)
(0.136941 -0.00209333 -0.00163325)
(0.137029 0.00534807 0.00188983)
(0.13501 0.00344954 0.00661969)
(0.13393 0.00165793 -0.000604562)
(0.135318 -0.00647711 -0.00312122)
(0.138841 -0.00373052 -0.00184296)
(0.137519 0.00510304 0.00196847)
(0.135108 0.00364184 0.00534082)
(0.133565 0.000929319 -0.000107024)
(0.134932 -0.00675245 -0.00462382)
(0.139036 -0.00385519 -0.00326488)
(0.137119 0.0056844 0.0014679)
(0.134756 0.00352458 0.00614176)
(0.133657 0.000661279 -0.00063991)
(0.13555 -0.00792672 -0.00419019)
(0.139113 -0.00379886 -0.00246285)
(0.137244 0.00476882 0.000798699)
(0.135408 0.0029679 0.00656063)
(0.134005 0.00130876 0.000667448)
(0.135281 -0.00584842 -0.00411347)
(0.138125 -0.00313128 -0.00275465)
(0.137219 0.00419549 0.00199286)
(0.13587 0.00369817 0.00628665)
(0.133743 0.00196341 -0.000534194)
(0.1347 -0.00568471 -0.00441002)
(0.13825 -0.00414377 -0.0039826)
(0.137767 0.0040981 0.0019444)
(0.136061 0.00401046 0.00698574)
(0.13399 0.00219791 -0.000293817)
(0.134876 -0.00497801 -0.00386812)
(0.137741 -0.00269921 -0.00266229)
(0.136646 0.00432983 0.00163205)
(0.135544 0.00250908 0.00636631)
(0.133847 0.00101552 0.00066987)
(0.135741 -0.00737247 -0.00339218)
(0.138878 -0.00297465 -0.00196594)
(0.137029 0.00398108 0.00171225)
(0.135718 0.00315173 0.00649284)
(0.134025 0.00198889 0.00101357)
(0.135159 -0.00561289 -0.00350901)
(0.138546 -0.00304045 -0.00311688)
(0.139153 0.00728845 0.000717205)
(0.136924 0.00495638 0.0100031)
(0.135756 0.00215057 0.00247025)
(0.138481 -0.00912497 -0.0042297)
(0.142676 -0.00503802 -0.00546113)
(0.139556 0.00722066 0.000733139)
(0.136762 0.00505275 0.00819628)
(0.135724 0.00100591 0.00311347)
(0.138021 -0.00944192 -0.00588564)
(0.142546 -0.00516758 -0.0069905)
(0.138824 0.0076612 5.04854e-05)
(0.137113 0.00513811 0.00997348)
(0.136251 0.000718671 0.00341957)
(0.138968 -0.0108513 -0.00509175)
(0.142367 -0.00516979 -0.00620236)
(0.139403 0.00679547 -0.000488573)
(0.137059 0.00430044 0.00966417)
(0.135511 0.00159008 0.00334725)
(0.137442 -0.00831256 -0.00518693)
(0.141196 -0.00457307 -0.00668675)
(0.139543 0.00595321 0.000971692)
(0.137857 0.00505865 0.00917529)
(0.135219 0.00241324 0.00247357)
(0.137337 -0.00821887 -0.00597134)
(0.141841 -0.00580361 -0.00850204)
(0.140039 0.00580402 0.000411723)
(0.138298 0.00559831 0.0104774)
(0.135875 0.00273921 0.00263159)
(0.137854 -0.0072261 -0.00466285)
(0.140209 -0.00380252 -0.0062634)
(0.138623 0.00601841 0.000534355)
(0.138002 0.0037971 0.00997787)
(0.135896 0.0012987 0.00445485)
(0.138811 -0.0100868 -0.00443936)
(0.142762 -0.00420009 -0.00574837)
(0.139229 0.00561138 0.000238481)
(0.137474 0.00441787 0.00958137)