/*--------------------------------*- C++ -*----------------------------------*\
  =========                 |
  \\      /  F ield         | OpenFOAM: The Open Source CFD Toolbox
   \\    /   O peration     | Website:  https://openfoam.org
    \\  /    A nd           | Version:  10
     \\/     M anipulation  |
\*---------------------------------------------------------------------------*/
FoamFile
{
    format      ascii;
    class       volVectorField;
    location    "1";
    object      U_0;
}
// * * * * * * * * * * * * * * * * * * * * * * * * * * * * * * * * * * * * * //

dimensions      [0 1 -1 0 0 0 0];

internalField   nonuniform List<vector> 
25600
(
(0.131558 2.36142e-05 3.5309e-06)
(0.131567 2.7925e-05 2.29405e-06)
(0.131551 2.04959e-05 3.30816e-06)
(0.131543 1.16219e-05 2.70426e-06)
(0.131545 8.55452e-06 2.43438e-06)
(0.131537 7.33436e-06 2.35068e-06)
(0.131539 7.00689e-06 2.38303e-06)
(0.131536 6.31027e-06 2.53289e-06)
(0.131535 5.00363e-06 2.5102e-06)
(0.131534 3.21002e-06 2.45539e-06)
(0.131533 1.64345e-06 2.24651e-06)
(0.131533 -7.69389e-07 2.13193e-06)
(0.131534 -1.89102e-06 1.96345e-06)
(0.131535 -3.5926e-06 1.91408e-06)
(0.131537 -4.18894e-06 1.8294e-06)
(0.131538 -4.82617e-06 1.73485e-06)
(0.13154 -5.15784e-06 1.55361e-06)
(0.131542 -4.86093e-06 1.23464e-06)
(0.131543 -4.86411e-06 8.49836e-07)
(0.131545 -3.98621e-06 2.94294e-07)
(0.131546 -3.36875e-06 -1.61021e-07)
(0.131547 -1.90372e-06 -6.10587e-07)
(0.131548 -6.73753e-07 -7.64814e-07)
(0.131548 6.91497e-07 -8.06039e-07)
(0.131548 1.87849e-06 -5.34629e-07)
(0.131548 2.72814e-06 -3.71601e-09)
(0.131547 3.18116e-06 6.50192e-07)
(0.131546 3.64095e-06 1.47708e-06)
(0.131545 2.68312e-06 2.18134e-06)
(0.131543 2.03187e-06 2.87024e-06)
(0.131543 4.36529e-07 3.39121e-06)
(0.131541 -7.018e-07 3.79402e-06)
(0.131545 -1.43617e-06 3.9755e-06)
(0.13154 -1.34926e-06 4.09131e-06)
(0.131546 -3.65451e-06 3.87616e-06)
(0.131543 3.98744e-06 4.06355e-06)
(0.131537 -1.59472e-05 2.44765e-06)
(0.13156 2.45362e-05 4.70961e-06)
(0.131512 -2.29779e-05 -7.17975e-07)
(0.131592 -6.20134e-05 -1.87056e-06)
(0.133082 7.35559e-06 1.45276e-06)
(0.133115 6.40057e-06 -1.94532e-06)
(0.133115 7.92941e-06 9.6795e-07)
(0.133113 7.42109e-06 1.59455e-06)
(0.133115 8.62986e-06 1.71614e-06)
(0.133107 8.91627e-06 1.90553e-06)
(0.133109 9.34145e-06 2.05314e-06)
(0.133105 8.68006e-06 2.49973e-06)
(0.133103 7.08404e-06 2.54541e-06)
(0.133102 4.57631e-06 2.59059e-06)
(0.133101 2.6902e-06 2.37844e-06)
(0.133102 -1.25614e-06 2.29227e-06)
(0.133103 -2.15081e-06 2.11114e-06)
(0.133104 -5.16295e-06 2.19435e-06)
(0.133106 -5.28262e-06 2.19531e-06)
(0.133108 -6.32875e-06 2.2436e-06)
(0.13311 -6.78669e-06 2.13478e-06)
(0.133112 -5.76077e-06 1.89416e-06)
(0.133113 -6.1472e-06 1.56005e-06)
(0.133115 -4.44673e-06 9.32033e-07)
(0.133116 -4.26148e-06 4.99633e-07)
(0.133118 -2.29509e-06 -8.24876e-08)
(0.133119 -8.72069e-07 -2.49563e-07)
(0.133119 6.59595e-07 -4.55278e-07)
(0.133119 2.63278e-06 -3.35368e-07)
(0.133118 3.64938e-06 2.23169e-07)
(0.133118 4.49529e-06 7.08871e-07)
(0.133115 5.38104e-06 1.59626e-06)
(0.133114 3.72346e-06 2.23061e-06)
(0.133112 2.88143e-06 3.00115e-06)
(0.133112 4.97172e-07 3.56462e-06)
(0.13311 -1.51336e-06 4.08557e-06)
(0.133114 -1.60474e-06 4.32511e-06)
(0.133109 -2.78325e-06 4.49901e-06)
(0.133116 -1.6896e-06 4.46261e-06)
(0.133113 -8.97174e-07 3.89677e-06)
(0.133113 -2.50257e-06 4.1901e-06)
(0.133112 4.04779e-06 1.82318e-06)
(0.133127 -3.45228e-06 3.81443e-07)
(0.133113 -5.27469e-06 4.9456e-06)
(0.133297 7.25515e-06 6.97267e-07)
(0.133321 7.84914e-06 -3.10291e-06)
(0.13332 8.1169e-06 2.36026e-07)
(0.133318 8.83653e-06 1.04157e-06)
(0.133321 1.06331e-05 1.14649e-06)
(0.133313 1.12224e-05 1.67995e-06)
(0.133314 1.22232e-05 1.85894e-06)
(0.133309 1.14156e-05 2.76809e-06)
(0.133307 9.48332e-06 2.79116e-06)
(0.133305 5.80702e-06 2.94171e-06)
(0.133303 4.05713e-06 2.61156e-06)
(0.133305 -2.50141e-06 2.59085e-06)
(0.133306 -2.36588e-06 2.32894e-06)
(0.133308 -7.39609e-06 2.65908e-06)
(0.133311 -6.30177e-06 2.79621e-06)
(0.133312 -7.86069e-06 3.07015e-06)
(0.133315 -8.44681e-06 3.07495e-06)
(0.133317 -6.11785e-06 2.89253e-06)
(0.133319 -7.30688e-06 2.61741e-06)
(0.133321 -4.16251e-06 1.64403e-06)
(0.133322 -4.98124e-06 1.229e-06)
(0.133325 -2.0248e-06 2.98098e-07)
(0.133325 -5.78208e-07 1.09759e-07)
(0.133326 1.24312e-06 -3.39795e-07)
(0.133326 4.14192e-06 -4.00276e-07)
(0.133324 5.22453e-06 3.96634e-07)
(0.133324 6.51606e-06 7.63868e-07)
(0.13332 8.32329e-06 1.97813e-06)
(0.133317 5.28315e-06 2.53556e-06)
(0.133315 4.36313e-06 3.5698e-06)
(0.133314 4.75419e-07 4.186e-06)
(0.133314 -2.84593e-06 4.92006e-06)
(0.133319 -2.08615e-06 5.12983e-06)
(0.133314 -4.44094e-06 5.47079e-06)
(0.133322 -1.46174e-06 5.43404e-06)
(0.133316 -1.32945e-06 4.55069e-06)
(0.13332 -2.1759e-06 5.13007e-06)
(0.133317 3.55205e-06 1.78417e-06)
(0.133324 -1.05768e-06 8.25628e-07)
(0.133323 -4.39988e-06 5.21841e-06)
(0.133476 6.2582e-06 -3.72039e-08)
(0.133499 6.40447e-06 -4.42658e-06)
(0.1335 5.02025e-06 -7.29945e-07)
(0.133498 8.61441e-06 4.55199e-07)
(0.133501 1.18937e-05 5.03223e-07)
(0.133493 1.33693e-05 1.64707e-06)
(0.133493 1.56388e-05 1.72232e-06)
(0.133487 1.46195e-05 3.37656e-06)
(0.133483 1.24133e-05 3.18954e-06)
(0.133482 6.77037e-06 3.47795e-06)
(0.133478 6.05042e-06 2.85824e-06)
(0.13348 -5.0745e-06 2.96198e-06)
(0.133483 -2.50127e-06 2.47618e-06)
(0.133485 -1.08222e-05 3.29e-06)
(0.133489 -7.25005e-06 3.60675e-06)
(0.133489 -9.56844e-06 4.26956e-06)
(0.133495 -1.03197e-05 4.43671e-06)
(0.133496 -5.7461e-06 4.33842e-06)
(0.133498 -8.45086e-06 4.15798e-06)
(0.1335 -2.70806e-06 2.55428e-06)
(0.133501 -5.6598e-06 2.15006e-06)
(0.133505 -7.0432e-07 5.8026e-07)
(0.133505 1.63965e-07 4.286e-07)
(0.133507 2.52517e-06 -5.86196e-07)
(0.133506 6.46171e-06 -8.57868e-07)
(0.133504 7.35712e-06 5.56485e-07)
(0.133504 9.3089e-06 7.5872e-07)
(0.133498 1.27584e-05 2.61404e-06)
(0.133494 7.36838e-06 3.05383e-06)
(0.133492 6.44644e-06 4.52643e-06)
(0.13349 3.50914e-07 5.19928e-06)
(0.133492 -5.25999e-06 6.26624e-06)
(0.133496 -2.54361e-06 6.38335e-06)
(0.133493 -7.38061e-06 6.98637e-06)
(0.133501 1.4076e-07 6.96679e-06)
(0.133495 -3.11847e-06 5.64273e-06)
(0.1335 1.21786e-06 6.31275e-06)
(0.133496 2.29072e-06 2.02738e-06)
(0.133504 3.55404e-06 1.17321e-06)
(0.133503 4.3697e-06 5.22709e-06)
(0.133645 6.87883e-06 -6.45459e-07)
(0.133667 7.58548e-06 -5.78941e-06)
(0.133669 2.23622e-06 -1.87769e-06)
(0.133669 8.96574e-06 -1.74218e-08)
(0.133671 1.33435e-05 -3.40933e-07)
(0.133662 1.56859e-05 1.8847e-06)
(0.133661 1.99093e-05 1.61534e-06)
(0.133653 1.83754e-05 4.43397e-06)
(0.133647 1.59104e-05 3.70443e-06)
(0.133647 7.04812e-06 4.13758e-06)
(0.133641 9.2353e-06 3.01429e-06)
(0.133645 -9.53268e-06 3.38723e-06)
(0.133648 -2.41857e-06 2.37779e-06)
(0.133651 -1.59965e-05 4.05273e-06)
(0.133658 -8.07653e-06 4.60936e-06)
(0.133656 -1.14642e-05 5.92956e-06)
(0.133664 -1.25086e-05 6.39117e-06)
(0.133664 -4.29318e-06 6.38973e-06)
(0.133667 -9.57713e-06 6.42979e-06)
(0.133669 5.45659e-07 3.63665e-06)
(0.13367 -6.38913e-06 3.4633e-06)
(0.133675 2.14276e-06 7.35146e-07)
(0.133674 1.52433e-06 7.00105e-07)
(0.133677 4.61477e-06 -1.29988e-06)
(0.133676 9.60434e-06 -1.94196e-06)
(0.133673 9.79665e-06 7.70317e-07)
(0.133674 1.30138e-05 6.98999e-07)
(0.133665 1.9092e-05 3.63132e-06)
(0.133659 9.97821e-06 3.71909e-06)
(0.133657 9.2721e-06 6.01594e-06)
(0.133652 -1.62668e-07 6.68004e-06)
(0.133658 -9.2548e-06 8.23485e-06)
(0.133663 -3.11868e-06 7.98963e-06)
(0.133662 -1.19533e-05 9.08761e-06)
(0.133671 2.58163e-06 9.1083e-06)
(0.133663 -4.89138e-06 7.1303e-06)
(0.13367 3.56965e-06 7.94442e-06)
(0.133665 2.67914e-06 2.58345e-06)
(0.133672 6.37477e-06 1.82802e-06)
(0.133671 6.27474e-06 4.25968e-06)
(0.133802 8.38135e-06 -1.21632e-06)
(0.133823 8.68539e-06 -7.30372e-06)
(0.133827 -3.02864e-06 -3.41913e-06)
(0.133831 8.77055e-06 -2.99893e-07)
(0.133831 1.42653e-05 -1.43877e-06)
(0.133823 1.80633e-05 2.48411e-06)
(0.13382 2.53395e-05 1.50466e-06)
(0.13381 2.2677e-05 6.08746e-06)
(0.133801 1.98318e-05 4.28547e-06)
(0.133803 5.83161e-06 4.7778e-06)
(0.133793 1.42857e-05 3.01926e-06)
(0.133799 -1.65332e-05 3.88867e-06)
(0.133804 -1.96646e-06 1.88877e-06)
(0.133807 -2.37317e-05 4.90447e-06)
(0.133818 -8.99281e-06 5.72232e-06)
(0.133812 -1.36078e-05 8.16036e-06)
(0.133825 -1.51164e-05 9.18075e-06)
(0.133823 -1.48278e-06 9.28446e-06)
(0.133827 -1.09049e-05 9.64292e-06)
(0.133828 6.37306e-06 4.99487e-06)
(0.133828 -7.2509e-06 5.32222e-06)
(0.133836 7.36684e-06 9.87003e-07)
(0.133832 3.79977e-06 9.15579e-07)
(0.133838 7.87203e-06 -2.85927e-06)
(0.133836 1.34132e-05 -4.15578e-06)
(0.133832 1.21387e-05 1.18862e-06)
(0.133836 1.7753e-05 7.45689e-07)
(0.133822 2.78423e-05 5.15832e-06)
(0.133814 1.31739e-05 4.49473e-06)
(0.133811 1.25379e-05 8.1344e-06)
(0.133803 -9.89306e-07 8.78796e-06)
(0.133815 -1.54689e-05 1.11485e-05)
(0.13382 -3.56939e-06 1.0078e-05)
(0.133822 -1.90821e-05 1.18851e-05)
(0.133831 6.99472e-06 1.20057e-05)
(0.133821 -7.49638e-06 9.02511e-06)
(0.133831 7.76467e-06 1.02435e-05)
(0.133823 3.20269e-06 3.3635e-06)
(0.133832 1.06302e-05 2.66589e-06)
(0.133829 9.82802e-06 2.9884e-06)
(0.133949 1.08227e-05 -1.22326e-06)
(0.133968 1.03256e-05 -8.68267e-06)
(0.133976 -1.10712e-05 -5.63539e-06)
(0.133986 7.87808e-06 -2.90338e-07)
(0.133983 1.40514e-05 -2.85395e-06)
(0.133975 2.05656e-05 3.75425e-06)
(0.13397 3.25456e-05 1.63718e-06)
(0.133956 2.77077e-05 8.60681e-06)
(0.133944 2.38168e-05 4.6748e-06)
(0.13395 2.17585e-06 5.09409e-06)
(0.133935 2.21616e-05 2.87815e-06)
(0.133942 -2.66039e-05 4.5683e-06)
(0.133951 -1.11537e-06 5.71007e-07)
(0.133953 -3.51621e-05 5.61037e-06)
(0.13397 -1.05222e-05 6.7212e-06)
(0.133958 -1.60498e-05 1.11074e-05)
(0.133977 -1.82176e-05 1.33345e-05)
(0.133973 3.10626e-06 1.31351e-05)
(0.133978 -1.2555e-05 1.38903e-05)
(0.133977 1.56048e-05 6.39718e-06)
(0.133977 -8.45232e-06 8.34423e-06)
(0.133988 1.6225e-05 1.51342e-06)
(0.133981 7.61424e-06 1.02521e-06)
(0.13399 1.25843e-05 -5.8486e-06)
(0.133985 1.74186e-05 -8.22214e-06)
(0.133982 1.38946e-05 2.13368e-06)
(0.13399 2.39202e-05 1.40286e-06)
(0.133969 3.97937e-05 7.2722e-06)
(0.133957 1.68203e-05 5.22702e-06)
(0.133955 1.57342e-05 1.10402e-05)
(0.133942 -2.58034e-06 1.1991e-05)
(0.133963 -2.45964e-05 1.55511e-05)
(0.133967 -3.19497e-06 1.28024e-05)
(0.133974 -2.9859e-05 1.5579e-05)
(0.133983 1.37529e-05 1.59546e-05)
(0.133969 -1.08639e-05 1.15194e-05)
(0.133983 1.40327e-05 1.38613e-05)
(0.133971 4.43035e-06 4.48993e-06)
(0.133984 1.59257e-05 3.77281e-06)
(0.133977 1.29858e-05 1.00244e-06)
(0.134087 1.52812e-05 -1.28382e-07)
(0.1341 1.30161e-05 -8.78456e-06)
(0.134115 -2.21112e-05 -9.01327e-06)
(0.134133 5.44932e-06 1.69734e-07)
(0.134126 1.18132e-05 -4.56567e-06)
(0.134121 2.34981e-05 6.37916e-06)
(0.134112 4.23825e-05 2.76411e-06)
(0.134093 3.42004e-05 1.22992e-05)
(0.134075 2.6929e-05 4.30062e-06)
(0.13409 -5.27955e-06 4.6777e-06)
(0.134066 3.45946e-05 2.72715e-06)
(0.134074 -3.97849e-05 5.98271e-06)
(0.134088 -9.68208e-08 -2.1983e-06)
(0.13409 -5.19427e-05 5.73045e-06)
(0.134116 -1.35181e-05 7.44592e-06)
(0.134096 -1.85701e-05 1.49788e-05)
(0.134122 -2.15328e-05 1.98478e-05)
(0.134113 9.99551e-06 1.79576e-05)
(0.134121 -1.52179e-05 1.89996e-05)
(0.134118 2.84992e-05 7.77905e-06)
(0.134116 -1.01178e-05 1.30397e-05)
(0.134133 3.04015e-05 3.49663e-06)
(0.134119 1.41646e-05 9.40176e-07)
(0.134132 1.88002e-05 -1.13693e-05)
(0.134125 2.07015e-05 -1.51676e-05)
(0.134124 1.46464e-05 4.34204e-06)
(0.134138 3.2431e-05 3.9201e-06)
(0.134106 5.65055e-05 9.76641e-06)
(0.134089 2.06548e-05 5.40936e-06)
(0.134088 1.78654e-05 1.48052e-05)
(0.134069 -5.07913e-06 1.7057e-05)
(0.134102 -3.67727e-05 2.27838e-05)
(0.134104 -1.00503e-06 1.66036e-05)
(0.134118 -4.60059e-05 2.01945e-05)
(0.134128 2.2903e-05 2.13761e-05)
(0.134108 -1.49751e-05 1.53246e-05)
(0.134127 2.37105e-05 2.017e-05)
(0.13411 6.87632e-06 6.73965e-06)
(0.134126 2.25478e-05 4.96154e-06)
(0.134115 1.60111e-05 -1.94395e-06)
(0.134216 2.38129e-05 3.37104e-06)
(0.134222 1.77087e-05 -5.33179e-06)
(0.134244 -3.54254e-05 -1.39076e-05)
(0.134273 -8.59225e-08 7.97207e-07)
(0.134263 6.32709e-06 -6.63669e-06)
(0.134261 2.7894e-05 1.16241e-05)
(0.134246 5.628e-05 6.66944e-06)
(0.134219 4.3954e-05 1.77489e-05)
(0.134195 2.73714e-05 1.98328e-06)
(0.134224 -1.78392e-05 2.66884e-06)
(0.134188 5.41935e-05 3.35767e-06)
(0.134196 -5.50105e-05 9.40639e-06)
(0.134216 1.45405e-06 -6.91947e-06)
(0.134218 -7.65621e-05 4.33854e-06)
(0.134257 -1.94118e-05 7.53942e-06)
(0.134225 -2.00898e-05 2.04935e-05)
(0.134261 -2.42561e-05 3.07108e-05)
(0.134245 2.0614e-05 2.33815e-05)
(0.134256 -2.03408e-05 2.37528e-05)
(0.13425 4.46743e-05 8.24922e-06)
(0.134248 -1.19682e-05 2.06781e-05)
(0.134271 5.24676e-05 8.98127e-06)
(0.134246 2.52779e-05 3.24947e-07)
(0.134264 2.57297e-05 -2.11914e-05)
(0.134255 2.16407e-05 -2.65109e-05)
(0.134259 1.44765e-05 9.15454e-06)
(0.134281 4.5092e-05 1.08555e-05)
(0.134234 8.0327e-05 1.22719e-05)
(0.134209 2.40572e-05 3.93798e-06)
(0.134213 1.73502e-05 1.91235e-05)
(0.134186 -7.45911e-06 2.49856e-05)
(0.134235 -5.15611e-05 3.49257e-05)
(0.134232 4.32822e-06 2.14094e-05)
(0.134255 -7.03316e-05 2.5795e-05)
(0.134268 3.37447e-05 2.84858e-05)
(0.134239 -1.91876e-05 2.12867e-05)
(0.134264 3.81933e-05 3.15329e-05)
(0.134239 1.18039e-05 1.08132e-05)
(0.134261 2.95536e-05 5.75912e-06)
(0.134245 1.77529e-05 -6.37791e-06)
(0.134339 3.99016e-05 1.1529e-05)
(0.134331 2.60112e-05 6.11337e-06)
(0.134363 -4.95158e-05 -2.09117e-05)
(0.134407 -1.29542e-05 8.63645e-07)
(0.134394 -4.82777e-06 -9.20446e-06)
(0.134397 3.61889e-05 2.16602e-05)
(0.134374 7.67635e-05 1.66932e-05)
(0.134334 5.89543e-05 2.48162e-05)
(0.134302 2.05353e-05 -4.44897e-06)
(0.134356 -3.81534e-05 -1.98505e-06)
(0.134304 8.46591e-05 6.69245e-06)
(0.134306 -6.96803e-05 1.79589e-05)
(0.134333 3.91274e-06 -1.50337e-05)
(0.134336 -0.000113958 -6.85843e-07)
(0.134396 -3.06812e-05 6.17322e-06)
(0.134347 -1.7946e-05 2.87318e-05)
(0.134394 -2.41087e-05 4.98515e-05)
(0.134368 3.69149e-05 2.96289e-05)
(0.134385 -3.05213e-05 2.5932e-05)
(0.134375 6.24525e-05 6.56134e-06)
(0.134374 -1.25205e-05 3.29232e-05)
(0.134404 8.62034e-05 2.21378e-05)
(0.134362 4.3499e-05 -1.38593e-06)
(0.134386 3.07869e-05 -3.84411e-05)
(0.134375 1.70681e-05 -4.44287e-05)
(0.134389 1.42664e-05 1.90372e-05)
(0.134422 6.54713e-05 2.72429e-05)
(0.134352 0.000114081 1.44268e-05)
(0.134316 2.49998e-05 -1.37205e-06)
(0.134329 1.21418e-05 2.31962e-05)
(0.134293 -7.72501e-06 3.75458e-05)
(0.134361 -6.75029e-05 5.57105e-05)
(0.13435 1.40705e-05 2.70586e-05)
(0.134385 -0.000108061 3.11996e-05)
(0.134404 4.44339e-05 3.6699e-05)
(0.134363 -2.16753e-05 3.10902e-05)
(0.134395 5.93717e-05 5.21797e-05)
(0.134358 2.0983e-05 1.75333e-05)
(0.134386 3.38104e-05 4.56773e-06)
(0.134368 1.59587e-05 -1.32614e-05)
(0.134456 6.9599e-05 2.83652e-05)
(0.134427 4.14839e-05 3.31696e-05)
(0.134469 -6.16037e-05 -3.18146e-05)
(0.134531 -4.05846e-05 -2.03061e-06)
(0.134522 -2.63194e-05 -1.30306e-05)
(0.134533 5.33407e-05 4.01994e-05)
(0.134495 0.000108129 3.84905e-05)
(0.134436 8.08991e-05 3.2234e-05)
(0.134395 -3.22279e-06 -1.97226e-05)
(0.134489 -7.12863e-05 -1.17362e-05)
(0.134414 0.000132299 1.64488e-05)
(0.134403 -7.87373e-05 3.78852e-05)
(0.134438 7.24451e-06 -2.84432e-05)
(0.134444 -0.000173147 -1.36041e-05)
(0.134536 -5.12716e-05 1.77942e-06)
(0.134466 -7.03295e-06 4.15432e-05)
(0.134521 -1.70731e-05 8.44925e-05)
(0.13448 6.05796e-05 3.70342e-05)
(0.134504 -5.18912e-05 2.13814e-05)
(0.134495 7.82729e-05 3.75085e-07)
(0.134496 -8.83386e-06 5.36465e-05)
(0.134533 0.00013653 5.05273e-05)
(0.134464 7.25538e-05 -4.98717e-06)
(0.134494 2.76173e-05 -6.7911e-05)
(0.134488 2.15232e-06 -7.24904e-05)
(0.134518 1.70434e-05 3.79383e-05)
(0.134561 9.85262e-05 6.13246e-05)
(0.134458 0.000160984 1.50084e-05)
(0.134408 1.90438e-05 -1.44881e-05)
(0.134439 -1.1966e-06 2.51326e-05)
(0.134393 -1.91463e-06 5.69884e-05)
(0.134482 -8.10934e-05 9.12339e-05)
(0.134455 2.93379e-05 3.25636e-05)
(0.134506 -0.000169016 3.2982e-05)
(0.134539 5.09363e-05 4.45395e-05)
(0.134482 -1.83676e-05 4.60536e-05)
(0.13452 9.03986e-05 8.95612e-05)
(0.134465 3.77351e-05 2.76244e-05)
(0.134502 2.80154e-05 -2.22195e-06)
(0.134487 7.57868e-06 -2.47391e-05)
(0.134572 0.000123087 5.99746e-05)
(0.134509 7.0724e-05 8.8533e-05)
(0.13456 -6.65213e-05 -4.94633e-05)
(0.134645 -9.60822e-05 -1.22912e-05)
(0.134653 -6.65068e-05 -1.91362e-05)
(0.134671 8.86678e-05 7.31202e-05)
(0.134609 0.000157175 8.19588e-05)
(0.134519 0.000111143 3.81862e-05)
(0.134472 -5.9326e-05 -5.23955e-05)
(0.13463 -0.000125136 -3.15508e-05)
(0.134525 0.000207469 3.77088e-05)
(0.134485 -7.32514e-05 8.08066e-05)
(0.134525 1.2253e-05 -5.08866e-05)
(0.134541 -0.000269229 -4.22802e-05)
(0.134682 -8.92588e-05 -7.92671e-06)
(0.134584 2.21604e-05 6.18252e-05)
(0.134642 4.02191e-06 0.000148296)
(0.134578 9.47914e-05 4.55872e-05)
(0.134614 -9.50107e-05 2.11752e-06)
(0.134614 8.6305e-05 -1.41316e-05)
(0.134619 7.93943e-06 8.82369e-05)
(0.134658 0.000210483 0.00010656)
(0.134548 0.000116401 -1.36918e-05)
(0.134586 5.71335e-06 -0.000118536)
(0.134597 -3.27517e-05 -0.000115953)
(0.134649 2.98562e-05 7.28464e-05)
(0.1347 0.000152952 0.000128396)
(0.134549 0.000224604 1.16539e-05)
(0.134482 -3.62517e-06 -4.21449e-05)
(0.134546 -2.77637e-05 2.16002e-05)
(0.134488 1.8215e-05 8.84888e-05)
(0.134597 -8.60814e-05 0.000153024)
(0.134542 5.18197e-05 3.70838e-05)
(0.134616 -0.000266706 2.45497e-05)
(0.134681 4.74181e-05 4.93782e-05)
(0.134599 -1.39747e-06 7.25195e-05)
(0.134639 0.000136586 0.000156271)
(0.134556 6.67352e-05 4.13313e-05)
(0.134605 2.22963e-06 -2.12489e-05)
(0.134608 -1.41276e-05 -4.43993e-05)
(0.134691 0.00021662 0.000116728)
(0.134577 0.000124548 0.000193822)
(0.134628 -5.71822e-05 -7.92645e-05)
(0.134744 -0.000199479 -3.9183e-05)
(0.134795 -0.000136614 -3.04e-05)
(0.134818 0.000159302 0.000129245)
(0.134714 0.000233681 0.000162709)
(0.134576 0.000148589 3.7842e-05)
(0.134528 -0.000170747 -0.000115226)
(0.134788 -0.000210306 -6.83847e-05)
(0.134642 0.000325769 7.89525e-05)
(0.134549 -4.01968e-05 0.000164618)
(0.134587 2.01868e-05 -8.76945e-05)
(0.134624 -0.000425816 -0.000100341)
(0.134844 -0.000158786 -2.75314e-05)
(0.134708 8.74763e-05 9.38038e-05)
(0.134754 4.8604e-05 0.000259776)
(0.134656 0.000139797 5.40445e-05)
(0.134711 -0.000179566 -4.45421e-05)
(0.134739 7.40207e-05 -4.24532e-05)
(0.134748 5.13011e-05 0.000145641)
(0.13478 0.000317494 0.000210637)
(0.134608 0.000180825 -3.28424e-05)
(0.134656 -5.67509e-05 -0.000202491)
(0.134708 -0.000102419 -0.000182499)
(0.13479 6.57159e-05 0.000133528)
(0.134837 0.000241649 0.000250319)
(0.134618 0.000309642 8.06298e-08)
(0.134536 -6.2154e-05 -9.60843e-05)
(0.134657 -7.50013e-05 7.21491e-06)
(0.134583 6.71744e-05 0.000139923)
(0.134704 -7.21319e-05 0.000259741)
(0.134606 8.1343e-05 3.77044e-05)
(0.134714 -0.000421971 -3.35223e-06)
(0.134836 2.44528e-05 4.77844e-05)
(0.134719 4.49787e-05 0.000118376)
(0.134753 0.000206932 0.000271788)
(0.134627 0.000115265 5.85897e-05)
(0.134691 -6.27251e-05 -6.23048e-05)
(0.134739 -5.92863e-05 -7.86584e-05)
(0.134819 0.000374112 0.000211382)
(0.134627 0.000219255 0.000378771)
(0.134664 -2.34569e-05 -0.000128925)
(0.134821 -0.000383411 -9.7661e-05)
(0.134959 -0.000254873 -5.04233e-05)
(0.13498 0.00028813 0.000220546)
(0.134804 0.000353706 0.000306772)
(0.134596 0.000195345 2.39796e-05)
(0.134562 -0.000370726 -0.000231531)
(0.134978 -0.000342877 -0.000133503)
(0.134773 0.000511177 0.00015158)
(0.134591 4.04374e-05 0.000317225)
(0.134611 3.47245e-05 -0.000148187)
(0.134689 -0.000678552 -0.00020583)
(0.135036 -0.000276301 -6.43217e-05)
(0.134844 0.000209289 0.00014533)
(0.134854 0.000133372 0.000449088)
(0.134705 0.000203653 6.03121e-05)
(0.134791 -0.000331287 -0.000139222)
(0.134881 2.46425e-05 -9.4671e-05)
(0.13489 0.000142584 0.000238507)
(0.134896 0.000472568 0.000391181)
(0.134634 0.000270214 -7.1721e-05)
(0.134699 -0.000189633 -0.000338112)
(0.134833 -0.000225381 -0.000282707)
(0.13495 0.000146695 0.000234165)
(0.134971 0.000383346 0.000458002)
(0.134657 0.000418694 -2.59759e-05)
(0.134566 -0.000178257 -0.000196216)
(0.134783 -0.000154496 -2.68818e-05)
(0.134685 0.00016654 0.000221755)
(0.134798 -2.59671e-05 0.000436516)
(0.134635 0.000119717 3.32126e-05)
(0.134797 -0.000669246 -6.84803e-05)
(0.135016 -3.25793e-05 3.29404e-05)
(0.134849 0.00013991 0.000194967)
(0.134858 0.000314268 0.000463203)
(0.134668 0.00019249 7.73304e-05)
(0.134757 -0.00019754 -0.000142016)
(0.134891 -0.000142464 -0.00013786)
(0.134968 0.000630446 0.000361434)
(0.134656 0.00037918 0.000685499)
(0.134653 4.78948e-05 -0.000210209)
(0.134868 -0.000689587 -0.00021151)
(0.135164 -0.000442653 -8.50137e-05)
(0.135168 0.000511458 0.000365334)
(0.134875 0.000539047 0.00054638)
(0.134566 0.000253434 -1.6568e-05)
(0.134568 -0.000705708 -0.000431666)
(0.135216 -0.000545981 -0.000241029)
(0.134931 0.000797854 0.000271235)
(0.134605 0.000196659 0.000575382)
(0.134581 6.12201e-05 -0.000245103)
(0.134731 -0.00107624 -0.00039119)
(0.135276 -0.000470676 -0.000126208)
(0.135005 0.00042588 0.000223214)
(0.134936 0.000272811 0.000753212)
(0.134712 0.000281158 5.99971e-05)
(0.134847 -0.000598149 -0.000310115)
(0.135054 -9.36465e-05 -0.000181613)
(0.135054 0.000314693 0.000381845)
(0.135001 0.000693147 0.000690099)
(0.134613 0.000395784 -0.000142154)
(0.134707 -0.000436779 -0.000550883)
(0.134987 -0.000429938 -0.000430958)
(0.13514 0.000303926 0.000391566)
(0.135098 0.000599901 0.000795557)
(0.134653 0.000566037 -7.63936e-05)
(0.134566 -0.000395409 -0.000367177)
(0.134937 -0.000287209 -9.24415e-05)
(0.134802 0.000349707 0.000348534)
(0.134875 7.51953e-05 0.000724832)
(0.134616 0.000172168 1.26798e-05)
(0.134859 -0.00105331 -0.000189933)
(0.135239 -0.000148406 1.05011e-06)
(0.134996 0.000311041 0.000319634)
(0.134953 0.000477489 0.000771655)
(0.134666 0.000308071 9.5701e-05)
(0.134794 -0.00044384 -0.000286262)
(0.135082 -0.000282895 -0.000236784)
(0.135147 0.00103086 0.000586376)
(0.134658 0.000632416 0.00116483)
(0.134577 0.000178932 -0.000340949)
(0.134875 -0.00117963 -0.000414166)
(0.135433 -0.00073439 -0.000140596)
(0.135393 0.000873652 0.000581949)
(0.134916 0.000818348 0.000929534)
(0.134464 0.000328133 -9.45548e-05)
(0.13454 -0.00123309 -0.000759098)
(0.135528 -0.000847677 -0.000409884)
(0.135128 0.00123121 0.000455874)
(0.134582 0.000461182 0.000991707)
(0.134475 0.000106828 -0.000397929)
(0.13474 -0.00168583 -0.000692404)
(0.135588 -0.000764807 -0.000227829)
(0.135202 0.00076858 0.000343322)
(0.134988 0.000503352 0.00123006)
(0.134659 0.000392485 4.65783e-05)
(0.134872 -0.00102523 -0.000600836)
(0.135281 -0.000311812 -0.000319471)
(0.135255 0.000610466 0.00059756)
(0.135092 0.0010019 0.00115091)
(0.134529 0.000566868 -0.000266329)
(0.134668 -0.000849783 -0.000879348)
(0.135193 -0.000748541 -0.000647186)
(0.135375 0.000580977 0.000627942)
(0.135211 0.000921628 0.00131742)
(0.134586 0.000753724 -0.000165494)
(0.134528 -0.000750449 -0.00065048)
(0.135142 -0.000492109 -0.000210279)
(0.134945 0.00065724 0.000536454)
(0.134926 0.000256073 0.001168)
(0.13453 0.000247998 -2.00726e-05)
(0.134893 -0.00163196 -0.000417297)
(0.135525 -0.000359389 -6.81739e-05)
(0.135173 0.000595502 0.000511182)
(0.135031 0.000718432 0.00124688)
(0.134605 0.000475149 0.000105552)
(0.134794 -0.000858832 -0.000529098)
(0.135334 -0.000508617 -0.000393583)
(0.135372 0.00163267 0.000906231)
(0.134628 0.00101782 0.00188108)
(0.134414 0.000380162 -0.000540191)
(0.134827 -0.00191746 -0.000751609)
(0.135794 -0.00115547 -0.000229577)
(0.135672 0.00144521 0.000895379)
(0.134917 0.00122218 0.00150473)
(0.13427 0.000424531 -0.000229791)
(0.134469 -0.00202311 -0.00127087)
(0.135942 -0.00128295 -0.000664997)
(0.135382 0.00186795 0.00072365)
(0.134514 0.000872637 0.00162705)
(0.134267 0.000180333 -0.000626687)
(0.13471 -0.00257991 -0.00116715)
(0.136001 -0.00121301 -0.000380701)
(0.13545 0.00131659 0.000508982)
(0.13501 0.000836692 0.00193361)
(0.134525 0.000512874 1.26284e-05)
(0.134853 -0.00169748 -0.00105912)
(0.135588 -0.00067788 -0.000524006)
(0.135506 0.00108016 0.000901421)
(0.135159 0.00142174 0.00184246)
(0.134362 0.000803629 -0.000455914)
(0.134571 -0.00150777 -0.00136574)
(0.13548 -0.0012256 -0.000950103)
(0.135669 0.00103065 0.000963545)
(0.135302 0.0013783 0.00209041)
(0.134441 0.00100397 -0.000319459)
(0.134447 -0.00132794 -0.00108753)
(0.135419 -0.000800813 -0.000396153)
(0.135126 0.00114144 0.000807331)
(0.134944 0.000550409 0.00183508)
(0.134356 0.000361709 -9.79901e-05)
(0.134889 -0.00247311 -0.000770943)
(0.1359 -0.000697323 -0.00017238)
(0.135394 0.00104631 0.000795241)
(0.135089 0.00106735 0.00195211)
(0.134465 0.000704507 0.000106008)
(0.134747 -0.00150622 -0.000917313)
(0.135677 -0.000846806 -0.000631309)
(0.135665 0.00250781 0.00133419)
(0.134566 0.00156983 0.00290411)
(0.134151 0.000686884 -0.000816717)
(0.13473 -0.00299389 -0.00127757)
(0.136298 -0.00176939 -0.000373531)
(0.136022 0.0022827 0.00131144)
(0.134869 0.00179023 0.00234818)
(0.13397 0.000555357 -0.000425559)
(0.134364 -0.0031517 -0.002036)
(0.136506 -0.00188826 -0.00104518)
(0.135715 0.00277698 0.00108282)
(0.134401 0.00147404 0.00255758)
(0.13394 0.00028996 -0.000941187)
(0.134652 -0.003857 -0.00187295)
(0.136571 -0.00182401 -0.000631901)
(0.135773 0.00210358 0.000733699)
(0.134986 0.00133484 0.00295879)
(0.134296 0.00070992 -3.44076e-05)
(0.1348 -0.00265648 -0.00176125)
(0.136022 -0.00122342 -0.000830303)
(0.135829 0.00179055 0.00132269)
(0.135206 0.00198172 0.00281904)
(0.134096 0.00110174 -0.000730182)
(0.134413 -0.00247503 -0.00207129)
(0.135898 -0.00189636 -0.00138794)
(0.136047 0.00172172 0.00140943)
(0.135373 0.00201315 0.00318584)
(0.134196 0.00130678 -0.000532712)
(0.134325 -0.00215819 -0.00174955)
(0.135815 -0.00123323 -0.000705105)
(0.135371 0.00187003 0.00116795)
(0.134929 0.000982636 0.00278428)
(0.134079 0.000516512 -0.000180433)
(0.134856 -0.00365353 -0.00135178)
(0.136409 -0.00121089 -0.00037148)
(0.135681 0.00171825 0.00117869)
(0.135124 0.00155212 0.00295539)
(0.134232 0.00101369 9.24584e-05)
(0.134658 -0.00246353 -0.00150562)
(0.136157 -0.00134297 -0.000989164)
(0.136108 0.00371194 0.00180798)
(0.134549 0.00234053 0.00436271)
(0.133857 0.00109029 -0.00106072)
(0.134695 -0.004466 -0.00205115)
(0.137104 -0.00256597 -0.000701814)
(0.136533 0.0034999 0.00179472)
(0.134828 0.00255549 0.00354255)
(0.133619 0.000696742 -0.000598087)
(0.134337 -0.00469715 -0.00313757)
(0.137367 -0.00269556 -0.00170218)
(0.136202 0.00402881 0.00147279)
(0.134318 0.00231018 0.00390961)
(0.133566 0.000466542 -0.00121171)
(0.134727 -0.0055797 -0.00289743)
(0.137446 -0.00269869 -0.00111049)
(0.136254 0.00325212 0.000930299)
(0.135015 0.00200517 0.00439627)
(0.134025 0.00088243 8.48341e-07)
(0.1348 -0.00404363 -0.00276206)
(0.1367 -0.00201389 -0.00135904)
(0.13629 0.00281675 0.00178894)
(0.135308 0.0027138 0.00422351)
(0.13379 0.00150056 -0.000963682)
(0.134294 -0.0038537 -0.00304813)
(0.136618 -0.00282022 -0.00212503)
(0.13661 0.00272231 0.0018981)
(0.135486 0.00285209 0.00471652)
(0.133919 0.00172497 -0.000737476)
(0.13429 -0.00337747 -0.00267303)
(0.136446 -0.00183032 -0.00125524)
(0.135766 0.00290893 0.00157568)
(0.134964 0.0016116 0.00417034)
(0.133768 0.000724112 -0.000211328)
(0.134933 -0.00525057 -0.00217618)
(0.137196 -0.00192898 -0.000736713)
(0.13612 0.00268286 0.0016255)
(0.13521 0.00221612 0.00437305)
(0.133963 0.00141344 0.000188832)
(0.134628 -0.00379892 -0.00236654)
(0.136928 -0.00201501 -0.00160884)
(0.136986 0.00535519 0.00196441)
(0.134974 0.0034167 0.00656001)
(0.133929 0.00156895 -0.000675806)
(0.135346 -0.00648217 -0.00310195)
(0.138818 -0.00361944 -0.0018088)
(0.137477 0.00511822 0.00202759)
(0.135066 0.00360757 0.00528554)
(0.133557 0.000832789 -0.000169222)
(0.134966 -0.00675862 -0.00461257)
(0.139015 -0.00372697 -0.00321761)
(0.13707 0.00570297 0.00153902)
(0.134713 0.00348155 0.00608238)
(0.133657 0.000557232 -0.000710336)
(0.135579 -0.00792233 -0.00417108)
(0.13909 -0.0036773 -0.00242752)
(0.137203 0.00478248 0.000870401)
(0.135373 0.00294303 0.00652111)
(0.133995 0.00123203 0.000597776)
(0.135307 -0.0058555 -0.00410037)
(0.138105 -0.00302385 -0.00271307)
(0.137186 0.00420175 0.00206219)
(0.135833 0.00368122 0.00623231)
(0.133729 0.00187627 -0.000604491)
(0.134734 -0.00570073 -0.00439473)
(0.138233 -0.00402875 -0.00393361)
(0.137731 0.00411156 0.00203005)
(0.136021 0.00399485 0.00693314)
(0.133977 0.00211375 -0.00036737)
(0.1349 -0.00498355 -0.00385561)
(0.137721 -0.00259151 -0.00262086)
(0.13661 0.00432654 0.00169964)
(0.135512 0.00247978 0.00631804)
(0.133844 0.000939943 0.000601404)
(0.135766 -0.007365 -0.00337997)
(0.138849 -0.00286199 -0.0019345)
(0.136991 0.00398568 0.00177629)
(0.135687 0.00313393 0.00644857)
(0.134014 0.00191367 0.000940315)
(0.135183 -0.00562207 -0.00350824)
(0.138523 -0.00292907 -0.00307573)
(0.139103 0.00730037 0.000846838)
(0.136884 0.00491102 0.00995877)
(0.13575 0.00203317 0.00235169)
(0.138482 -0.00912913 -0.00425098)
(0.14263 -0.00488626 -0.00540771)
(0.139503 0.00724203 0.000840235)
(0.13672 0.00500289 0.00815547)
(0.135704 0.000878409 0.00300961)
(0.138026 -0.00944664 -0.00592299)
(0.1425 -0.00499727 -0.00692808)
(0.138769 0.0076876 0.000175219)
(0.137075 0.00507847 0.00993768)
(0.136232 0.000586913 0.00329404)
(0.138961 -0.0108436 -0.00513006)
(0.142325 -0.00500719 -0.00614933)
(0.139356 0.00681524 -0.000365275)
(0.137019 0.00426205 0.00963695)
(0.135491 0.00148552 0.00323902)
(0.137454 -0.0083212 -0.00521754)
(0.141165 -0.00442692 -0.00662698)
(0.139504 0.00596506 0.00109233)
(0.137815 0.00503146 0.00913516)
(0.135194 0.00229567 0.00236277)
(0.137356 -0.00823823 -0.00600277)
(0.141808 -0.0056469 -0.00843304)
(0.139996 0.00582199 0.000557245)
(0.138257 0.00557339 0.0104456)
(0.135856 0.00262637 0.00251996)
(0.137851 -0.00723293 -0.00469547)
(0.140177 -0.00365696 -0.00620366)
(0.138588 0.00601745 0.000655071)
(0.137969 0.00375474 0.00994948)
(0.135883 0.00119733 0.00433916)
(0.138814 -0.0100765 -0.00447898)
(0.142711 -0.00404817 -0.00569512)
(0.139176 0.00561844 0.000353372)