/*--------------------------------*- C++ -*----------------------------------*\
  =========                 |
  \\      /  F ield         | OpenFOAM: The Open Source CFD Toolbox
   \\    /   O peration     | Website:  https://openfoam.org
    \\  /    A nd           | Version:  10
     \\/     M anipulation  |
\*---------------------------------------------------------------------------*/
FoamFile
{
    format      ascii;
    class       volTensorField;
    location    "2.5";
    object      gradientUWrite;
}
// * * * * * * * * * * * * * * * * * * * * * * * * * * * * * * * * * * * * * //

dimensions      [0 0 -1 0 0 0 0];

internalField   nonuniform List<tensor> 
25600
(
(0.0108039 -0.00360005 -0.00530415 124.812 0.432669 67.9431 0.446823 0.067359 0.559127)
(0.0900533 -0.000178181 -0.0190939 126.986 0.293694 67.6371 0.351454 0.0656387 0.584571)
(0.0594933 0.00447655 -0.00815643 130.68 0.413839 67.5341 0.359212 0.0575629 0.568103)
(-0.0495638 0.00215446 0.0183238 132.515 0.664302 68.1244 0.446197 0.0602288 0.571931)
(-0.0936205 -0.0025696 0.00999915 128.532 0.665309 68.4508 0.498602 0.0644125 0.543645)
(0.000886937 -0.00356531 -0.0133435 125.631 0.465879 67.7557 0.446506 0.0666919 0.541469)
(0.0939407 -0.000155585 -0.0207559 127.572 0.287769 67.1179 0.390675 0.0645245 0.56789)
(0.0626238 0.00435882 0.0012017 131.829 0.425029 67.2235 0.378586 0.0573604 0.56178)
(-0.0609351 0.0020318 0.0300331 132.767 0.689374 68.2198 0.472505 0.0599797 0.558233)
(-0.111596 -0.00250153 0.0118593 128.273 0.725352 68.7179 0.482045 0.0645847 0.511468)
(-0.00415018 -0.00378978 -0.0183632 124.781 0.456242 67.8168 0.47788 0.0673614 0.547645)
(0.110293 -4.81909e-05 -0.0189557 126.829 0.251019 67.3414 0.375212 0.0654729 0.604655)
(0.057457 0.00448744 -0.00163672 131.669 0.426587 67.5416 0.359522 0.0577366 0.579936)
(-0.0574511 0.00190273 0.0180524 131.963 0.685406 68.0442 0.45152 0.0599299 0.556365)
(-0.0977431 -0.00249422 0.018124 128.687 0.6833 68.3776 0.48177 0.0646186 0.54149)
(-0.00832904 -0.00389442 -0.00583193 124.742 0.47347 68.1734 0.443523 0.0676881 0.551041)
(0.106128 -0.000154342 -0.0312094 127.224 0.265145 67.4612 0.364673 0.0648574 0.558081)
(0.0600532 0.0045398 -0.00790688 131.756 0.436959 67.1587 0.363656 0.0562196 0.551333)
(-0.0656554 0.00212045 0.03312 132.17 0.696646 68.1613 0.484681 0.0586509 0.555049)
(-0.105045 -0.00213348 0.0240881 127.565 0.715646 68.8217 0.480098 0.0654757 0.536568)
(-0.00451602 -0.00383319 -0.0159917 124.422 0.486379 68.383 0.444984 0.0682216 0.545653)
(0.111958 -0.000552861 -0.0326593 126.867 0.265479 67.3345 0.379248 0.0652907 0.574312)
(0.0621465 0.00404735 -0.00175701 131.869 0.420397 67.2656 0.349817 0.0572278 0.570403)
(-0.0600313 0.00241578 0.0281622 131.922 0.669654 68.3385 0.459553 0.0596275 0.565664)
(-0.0991622 -0.00187485 0.00545131 128.512 0.749216 68.5861 0.475859 0.0640322 0.495678)
(-0.0136146 -0.00425835 -0.015389 125.043 0.508255 67.4705 0.470721 0.0659028 0.511868)
(0.116052 -0.000655167 -0.011665 126.609 0.243442 67.2516 0.405699 0.0660447 0.600257)
(0.0728375 0.00453864 0.0050316 132.133 0.380802 67.7537 0.359525 0.0581508 0.595702)
(-0.0680448 0.00230654 0.022048 132.307 0.707807 68.5504 0.438841 0.0603697 0.552964)
(-0.116933 -0.00244739 0.00490239 128.506 0.747767 68.5212 0.46961 0.0642863 0.499432)
(-0.00246129 -0.00407792 -0.01493 124.172 0.467599 67.7223 0.477137 0.0672166 0.545583)
(0.119307 -0.000234617 -0.0218414 127.349 0.247991 67.2438 0.378194 0.0654232 0.582492)
(0.0635883 0.00446951 0.00247863 131.867 0.413836 67.3189 0.361664 0.0570597 0.569608)
(-0.0786448 0.00240437 0.032362 132.603 0.720743 68.4233 0.456479 0.0595605 0.543925)
(-0.117053 -0.00235416 0.00758744 126.938 0.757591 68.8616 0.46085 0.064919 0.504024)
(0.0156746 -0.00490969 -0.0137077 124.137 0.445462 67.8192 0.454787 0.0678089 0.560672)
(0.113302 0.000158033 -0.0182198 127.309 0.225758 67.6683 0.366926 0.0647593 0.577949)
(0.0449315 0.00542976 -0.00487068 131.355 0.47379 67.4978 0.36126 0.0577206 0.545635)
(-0.0695703 0.00146118 0.0191477 131.525 0.723575 68.3121 0.453714 0.0596798 0.539025)
(-0.0874091 -0.00302035 0.00961654 127.571 0.664312 68.4204 0.483728 0.0645108 0.536889)
(-0.0424608 -0.0153905 -0.035064 -2.2623 -0.5495 -11.4995 1.99163 0.0592986 1.37537)
(0.207346 -0.000787147 -0.00035173 -2.6797 -0.85425 -11.6446 1.48634 0.0494462 1.40627)
(0.223256 0.0144258 0.0344159 -2.17432 -0.848937 -10.6619 1.03144 0.00972658 1.42836)
(-0.057642 0.0107597 0.0277078 -0.878132 -0.540028 -9.96486 1.11722 0.00829556 1.50715)
(-0.256443 -0.00753339 -0.030251 -0.691615 -0.31808 -10.3786 1.7718 0.0350411 1.43092)
(-0.0510758 -0.0157901 -0.0549166 -1.41929 -0.513558 -11.5723 1.96231 0.0551158 1.35085)
(0.220286 -0.0019617 -0.00495608 -1.07318 -0.865446 -11.8385 1.6256 0.0446549 1.37367)
(0.202361 0.0161737 0.056215 -0.84303 -0.817154 -10.8761 1.06017 0.0100274 1.42261)
(-0.118673 0.0134453 0.0449905 -0.467573 -0.445363 -9.81866 1.21405 0.0102763 1.47752)
(-0.294225 -0.00942049 -0.034091 -1.34815 -0.185546 -10.619 1.7279 0.0378763 1.35435)
(-0.0708003 -0.0205969 -0.0516688 -1.0731 -0.528791 -11.6613 2.09964 0.0567223 1.37205)
(0.238319 -0.00149532 0.00648564 -2.15175 -0.945767 -11.4676 1.58491 0.048683 1.46798)
(0.204861 0.0177438 0.0384947 -1.57788 -0.83791 -10.5806 1.00911 0.012284 1.45744)
(-0.09253 0.0113104 0.0237913 -0.867038 -0.48366 -10.059 1.18847 0.00877133 1.48205)
(-0.269531 -0.00832187 -0.0131934 -1.11496 -0.288669 -10.4225 1.68716 0.0355018 1.43228)
(-0.0671846 -0.0175486 -0.0414339 -1.96386 -0.497793 -11.5377 1.98795 0.0596444 1.35835)
(0.24945 -0.00173652 -0.0186458 -1.02335 -0.879767 -11.8085 1.58068 0.0478166 1.34016)
(0.192173 0.0175355 0.0452516 -1.32247 -0.794097 -10.733 1.02634 0.00551102 1.40249)
(-0.146578 0.0122182 0.0503956 -0.756922 -0.410812 -9.74817 1.26493 0.00725303 1.46789)
(-0.288982 -0.00863155 -0.0149193 -2.51123 -0.217742 -10.3311 1.70382 0.0423958 1.40873)
(-0.0314976 -0.0192874 -0.0600623 -2.19734 -0.512258 -11.5263 1.99943 0.0610489 1.34219)
(0.265653 -0.00283687 -0.0224202 -1.3895 -0.924417 -11.7647 1.63815 0.0488011 1.39235)
(0.195594 0.0166505 0.0543524 -1.12607 -0.83055 -10.7479 0.972282 0.0102365 1.44743)
(-0.109247 0.0145108 0.0379691 -0.756215 -0.464928 -9.75106 1.21993 0.00954041 1.47531)
(-0.250059 -0.00636456 -0.051314 -1.11757 -0.178829 -10.6401 1.69761 0.0361913 1.31877)
(-0.0843756 -0.021723 -0.0527456 -1.07546 -0.444858 -11.897 2.07577 0.0523519 1.29446)
(0.242513 -0.00593383 0.0276185 -1.93523 -0.954521 -11.7555 1.69691 0.0503828 1.47265)
(0.217395 0.0192527 0.0622775 -1.73004 -0.904713 -10.32 0.978563 0.0154077 1.5038)
(-0.11453 0.0166226 0.015817 -1.61644 -0.403505 -9.79579 1.12776 0.0120812 1.44405)
(-0.296123 -0.00984949 -0.0486306 -1.19847 -0.156782 -10.8078 1.65739 0.0351467 1.32469)
(-0.057703 -0.0216083 -0.0502699 -2.0008 -0.526176 -11.8162 2.12575 0.055518 1.36939)
(0.270523 -0.00254901 0.00296157 -1.50664 -0.940732 -11.8776 1.59907 0.0499348 1.41432)
(0.204386 0.0197666 0.0588588 -1.4552 -0.834803 -10.7558 1.03072 0.0110651 1.43499)
(-0.170854 0.0153032 0.0449474 -0.595887 -0.347485 -9.935 1.17649 0.0115272 1.43745)
(-0.313274 -0.0117833 -0.0398863 -2.51675 -0.134152 -10.5926 1.68038 0.0394368 1.33594)
(0.00212035 -0.0223671 -0.047222 -2.43597 -0.598948 -11.6158 2.03874 0.057066 1.39787)
(0.252211 0.00130522 0.0032593 -1.9777 -0.909199 -11.7242 1.55213 0.0483458 1.37161)
(0.170724 0.020019 0.0389708 -1.83745 -0.742118 -10.7909 1.03904 0.011303 1.38775)
(-0.121008 0.00834015 0.0271089 -1.01589 -0.384382 -10.0378 1.20803 0.00950067 1.42105)
(-0.254377 -0.0118662 -0.0298467 -1.70302 -0.298414 -10.5844 1.74576 0.0369968 1.41734)
(-0.0399629 -0.0343439 -0.063219 5.65758 -0.703919 -6.04189 4.84144 0.16335 1.44028)
(0.0833783 -0.0173146 0.0271373 5.27631 -0.99753 -6.07984 3.85924 0.186269 1.55025)
(0.146586 0.0215281 0.084059 0.615153 -1.25767 -5.10726 2.37209 0.0891627 1.71405)
(0.0363987 0.0317822 0.0336548 -3.36966 -1.13343 -4.51576 2.24694 0.0234966 1.86622)
(-0.108419 -0.000553062 -0.0782927 0.961127 -0.830021 -5.06442 3.98426 0.063761 1.66921)
(-0.0158316 -0.0337793 -0.093031 5.65179 -0.719386 -6.08336 4.75161 0.152388 1.43796)
(0.114403 -0.0174112 0.0176434 6.42093 -1.00736 -6.17534 4.07759 0.179016 1.51323)
(0.0834328 0.0273037 0.111705 0.957041 -1.1748 -5.22643 2.34314 0.0906962 1.72519)
(-0.0841718 0.0371652 0.0433032 -3.25252 -0.960392 -4.46326 2.4129 0.0300504 1.8093)
(-0.128111 -0.00660113 -0.0893705 0.501355 -0.723419 -5.38518 3.99961 0.0670262 1.59953)
(-0.0436381 -0.0457704 -0.0637686 7.05941 -0.706484 -6.27571 4.95126 0.156187 1.45232)
(0.0685004 -0.0176569 0.0405672 6.04675 -1.02234 -5.94628 3.98945 0.193618 1.59049)
(0.116501 0.0297017 0.0752489 0.158671 -1.21419 -5.10477 2.29945 0.0963534 1.73419)
(-0.0273571 0.0325061 0.026554 -2.63858 -1.05323 -4.60844 2.43043 0.0272844 1.83532)
(-0.143559 -0.00272319 -0.0636654 0.234471 -0.792517 -5.02506 3.832 0.0653446 1.67947)
(0.00281745 -0.0364771 -0.0818727 5.68665 -0.723193 -6.27991 4.82896 0.15917 1.43134)
(0.128634 -0.0170135 0.0137476 7.28772 -0.967872 -6.36213 4.04401 0.188598 1.45005)
(0.0621437 0.0301734 0.105109 0.190406 -1.14074 -5.17172 2.31689 0.0825819 1.71159)
(-0.125837 0.0342121 0.0544742 -2.8411 -0.921506 -4.50814 2.51242 0.0243027 1.80955)
(-0.169379 -0.00730998 -0.0741323 -0.0551994 -0.678169 -5.08218 3.91468 0.0794708 1.61081)
(0.0626054 -0.0428737 -0.0939195 5.71374 -0.705086 -6.37953 4.83197 0.162439 1.35332)
(0.158114 -0.0186047 0.0110218 6.88616 -1.03886 -6.24318 4.1362 0.191119 1.51035)
(0.0851736 0.0291765 0.10828 0.711831 -1.18989 -5.18868 2.21202 0.0938061 1.74235)
(-0.0546217 0.0386361 0.0333704 -2.32015 -0.977378 -4.52004 2.47671 0.0293308 1.78231)
(-0.102409 -0.000273262 -0.11212 0.805409 -0.702257 -5.2885 3.93031 0.0638991 1.55481)
(-0.0534993 -0.0470617 -0.0757093 6.42714 -0.663172 -6.24986 4.98281 0.140852 1.41007)
(0.0658129 -0.0265378 0.0749788 6.372 -1.0753 -6.072 4.2302 0.192733 1.65937)
(0.0766918 0.0347134 0.111855 -0.619857 -1.23939 -4.89232 2.20216 0.108707 1.80454)
(-0.0328672 0.0438304 -0.00534342 -4.43634 -0.951328 -4.49812 2.33588 0.0341652 1.75852)
(-0.12109 -0.0087525 -0.10578 0.500895 -0.713024 -5.41059 3.83619 0.0557361 1.57291)
(-0.0146365 -0.047349 -0.0728378 6.18448 -0.764805 -6.26524 5.08895 0.146999 1.48768)
(0.135522 -0.0177283 0.0365809 6.21839 -1.07367 -6.158 4.02474 0.193397 1.57138)
(0.101816 0.0370114 0.108408 -0.0567502 -1.19732 -5.1614 2.35414 0.0954654 1.73109)
(-0.130392 0.0413545 0.0404746 -2.89173 -0.892269 -4.64534 2.40372 0.0314088 1.78492)
(-0.203112 -0.0158534 -0.0841977 0.946294 -0.604758 -5.3351 3.93806 0.0683775 1.56199)
(0.047989 -0.0476767 -0.0753456 5.56644 -0.821619 -5.9946 4.89853 0.15423 1.48856)
(0.133786 -0.0081792 0.0270064 5.68027 -1.04107 -6.24923 3.9965 0.185947 1.51011)
(0.087592 0.0341123 0.0875999 0.133346 -1.12603 -5.20796 2.38037 0.0905225 1.69058)
(-0.0567065 0.0262562 0.0302137 -2.25309 -0.928655 -4.71656 2.49884 0.0265017 1.74226)
(-0.142298 -0.0116189 -0.070388 0.895637 -0.789807 -5.15855 3.99066 0.0662531 1.68221)
(0.234038 -0.0266181 -0.090451 8.17138 -0.159265 -3.83515 6.28545 0.300854 0.5995)
(-0.0988136 -0.034118 0.0559446 10.4673 0.0898419 -4.26716 5.79876 0.39683 0.701401)
(-0.315287 0.00512996 0.128262 6.87305 -0.210463 -3.59751 4.15742 0.220688 1.22633)
(-0.0451884 0.0356746 0.0298195 -0.247129 -0.780692 -2.75056 3.73337 0.00333661 1.66534)
(0.298685 0.017926 -0.12448 1.89983 -0.808014 -3.08516 5.43115 0.0519652 1.27796)
(0.290323 -0.0251947 -0.121287 7.443 -0.239835 -3.86669 6.21454 0.27705 0.642915)
(-0.0657168 -0.0291876 0.0469211 10.0126 0.0748051 -4.38234 6.01444 0.387844 0.654494)
(-0.396866 0.018028 0.158826 5.6348 -0.174093 -3.53691 4.04343 0.22356 1.28706)
(-0.15091 0.0395895 0.0351298 -1.05733 -0.594848 -2.80475 3.86521 0.0121203 1.58248)
(0.34062 0.00633819 -0.143065 1.64001 -0.816648 -3.17667 5.50203 0.0554338 1.24669)
(0.276813 -0.0369639 -0.0859062 8.44678 -0.196679 -4.12019 6.25427 0.291251 0.581567)
(-0.180654 -0.0319538 0.077052 10.775 0.202836 -4.40538 5.8365 0.414718 0.664622)
(-0.334998 0.0145964 0.119337 5.55367 -0.186646 -3.62495 4.04375 0.22752 1.25005)
(-0.0942581 0.0358303 0.0285508 0.00340627 -0.699449 -2.82769 3.91297 0.0142477 1.61583)
(0.243818 0.0119685 -0.113741 1.36539 -0.774308 -2.9474 5.28589 0.0551005 1.31688)
(0.371404 -0.026734 -0.12186 7.60848 -0.320392 -4.04124 6.25398 0.28344 0.642972)
(-0.0856934 -0.0265874 0.048125 10.9889 0.199704 -4.6284 5.97881 0.40336 0.544114)
(-0.434712 0.019201 0.156392 5.25468 -0.128701 -3.6247 4.04994 0.208454 1.27661)
(-0.164168 0.0392418 0.0556444 -0.693704 -0.607617 -2.94345 3.88344 0.00971222 1.59152)
(0.23951 0.00490864 -0.127224 2.0342 -0.637213 -3.02047 5.27178 0.0825826 1.19543)
(0.397613 -0.0397159 -0.130023 7.93848 -0.196769 -4.16606 6.24776 0.289693 0.489585)
(-0.0395888 -0.0318874 0.0494683 10.8755 0.110731 -4.57664 6.06345 0.408825 0.600008)
(-0.374973 0.0192825 0.157819 5.60646 -0.170235 -3.65689 3.91598 0.230413 1.26661)
(-0.108798 0.0429043 0.0321225 0.0757221 -0.58353 -2.94026 3.95188 0.0125908 1.51521)
(0.287786 0.0128763 -0.154515 2.11022 -0.733011 -3.02499 5.49496 0.0471942 1.23285)
(0.264206 -0.0427566 -0.0999469 7.77671 -0.256161 -3.8319 6.42745 0.255501 0.660213)
(-0.185012 -0.0402763 0.108645 10.8601 0.0572431 -4.2238 6.10497 0.415439 0.815291)
(-0.451351 0.025539 0.15675 4.77025 -0.17501 -3.45101 3.91383 0.255293 1.34636)
(-0.0518926 0.0471553 -0.0148084 -1.71375 -0.662583 -2.67888 3.87769 0.0170124 1.55646)
(0.357344 0.0018244 -0.154554 1.68649 -0.82561 -3.04088 5.30813 0.0310665 1.24053)
(0.299193 -0.0418179 -0.095231 8.52012 -0.344602 -3.87519 6.48765 0.268778 0.718482)
(-0.110267 -0.028355 0.0693351 10.312 0.0511458 -4.22271 5.89963 0.414793 0.730317)
(-0.360889 0.029502 0.149467 5.00503 -0.225862 -3.44746 4.1209 0.228185 1.30252)
(-0.111532 0.050133 0.0344209 -1.06528 -0.678952 -2.8193 3.85201 0.015938 1.60578)
(0.210054 -0.00691301 -0.120695 3.37866 -0.624643 -3.09754 5.35976 0.0615277 1.20216)
(0.296602 -0.0474005 -0.10216 8.4729 -0.304334 -3.70429 6.29962 0.281345 0.698348)
(-0.079182 -0.0169774 0.050581 10.0974 0.0411738 -4.29461 5.99991 0.393284 0.687228)
(-0.322152 0.0257118 0.130935 5.41159 -0.206205 -3.51101 4.10206 0.21819 1.25977)
(-0.0792796 0.0277894 0.02992 0.827826 -0.662635 -2.90562 4.0175 0.00794704 1.54291)
(0.234172 0.00230666 -0.10952 2.73922 -0.816488 -2.89475 5.39099 0.0584919 1.3524)
(0.469677 0.0278662 -0.155868 7.65422 0.0362908 -2.90089 5.68116 0.51787 -0.0123761)
(0.0113729 -0.0191922 0.0407707 9.09989 0.884907 -3.85856 6.04456 0.69269 -0.406342)
(-0.551796 -0.0373272 0.185031 10.0521 0.917752 -3.9762 5.60818 0.443064 0.314052)
(-0.301042 -0.010132 0.0696423 7.26659 -0.209666 -2.67702 5.09536 0.0914217 1.2114)
(0.385275 0.0351844 -0.151236 5.9188 -0.766244 -2.17949 5.54566 0.134789 0.961025)
(0.51733 0.0267111 -0.180349 7.07544 -0.0533944 -2.79468 5.62847 0.477266 0.0403883)
(0.00675827 -0.0116651 0.0376326 8.20084 0.90007 -3.8621 6.16492 0.679423 -0.464283)
(-0.637814 -0.0183043 0.216623 8.42619 0.87144 -3.70778 5.47595 0.446437 0.448738)
(-0.355105 -0.00772954 0.0691544 5.98374 -0.100513 -2.64592 5.07615 0.0992589 1.12868)
(0.485478 0.0197745 -0.175414 5.57931 -0.866366 -2.10708 5.63068 0.142934 0.964799)
(0.559125 0.0241949 -0.146941 6.9674 -0.0262004 -3.07636 5.58261 0.505965 -0.0595593)
(-0.107634 -0.0155301 0.0713343 8.98251 1.05903 -3.94498 5.96266 0.702629 -0.464698)
(-0.586888 -0.0314894 0.180478 9.09194 0.910581 -3.88366 5.46825 0.443301 0.369262)
(-0.311719 -0.00866398 0.073439 6.53555 -0.185504 -2.6004 5.158 0.102259 1.17326)
(0.346198 0.0221492 -0.142991 5.57002 -0.764192 -2.05827 5.48453 0.139415 1.02621)
(0.634716 0.0302346 -0.19469 6.94959 -0.200674 -2.87448 5.66291 0.479931 0.0657858)
(-0.0135054 -0.00273528 0.0392564 8.37528 1.04984 -4.05776 6.11423 0.696178 -0.610269)
(-0.70002 -0.0248317 0.217071 8.82522 0.946083 -3.79509 5.48023 0.426428 0.434407)
(-0.345801 -0.00162833 0.0963463 5.59445 -0.154682 -2.7166 4.95642 0.105539 1.16667)
(0.389602 0.0200188 -0.153785 5.4044 -0.664321 -2.07749 5.3033 0.171267 0.912451)
(0.643505 0.00878659 -0.198451 7.12031 -0.0254373 -3.03729 5.6493 0.485121 -0.120365)
(0.0158262 -0.0154326 0.0425607 8.72468 0.971086 -4.04892 6.1869 0.702187 -0.544844)
(-0.619311 -0.0180797 0.217042 8.38939 0.884361 -3.82105 5.39272 0.451449 0.416753)
(-0.292164 -0.000899057 0.077407 6.06638 -0.0679008 -2.83169 5.16706 0.0965872 1.02765)
(0.393731 0.0211614 -0.169842 5.88516 -0.74807 -1.97098 5.65057 0.1258 0.965378)
(0.522778 0.00742412 -0.156593 6.97086 -0.118572 -2.7068 5.71328 0.450713 0.073865)
(-0.118031 -0.0195247 0.0980815 9.13143 0.875425 -3.70008 6.04847 0.716452 -0.28143)
(-0.744289 -0.0143914 0.214725 8.69628 0.921891 -3.69366 5.3663 0.484825 0.508749)
(-0.245261 -0.00171356 0.0241041 5.95837 -0.219299 -2.40535 5.20376 0.105289 1.14977)
(0.542242 0.012287 -0.184036 5.44139 -0.89357 -1.95423 5.45049 0.100219 0.93394)
(0.553388 0.0130254 -0.152727 7.96874 -0.181913 -2.76536 5.70747 0.459298 0.121382)
(-0.0841718 -0.00841423 0.0630291 8.68801 0.909474 -3.7476 6.00276 0.712758 -0.366633)
(-0.642547 -0.0129736 0.201828 8.80836 0.843705 -3.58733 5.53099 0.452982 0.478504)
(-0.245297 0.0127646 0.0653965 4.97815 -0.300676 -2.48378 5.05885 0.109851 1.20716)
(0.418401 0.00928554 -0.142048 5.93658 -0.709108 -2.0975 5.4532 0.140961 0.911016)
(0.490029 -0.0014354 -0.155851 8.22918 -0.0902684 -2.81326 5.64245 0.474684 0.109136)
(-0.0576553 -0.000480282 0.0380806 8.73664 0.888454 -3.75405 6.22768 0.687616 -0.404006)
(-0.515599 -0.0139567 0.179791 8.6417 0.810667 -3.68569 5.45076 0.445684 0.410801)
(-0.240157 -0.0163069 0.073068 7.05038 -0.215062 -2.75772 5.27328 0.0972945 1.11205)
(0.330375 0.0219688 -0.13107 6.3873 -0.866202 -1.90007 5.49655 0.146492 1.12844)
(0.417828 0.10179 -0.233618 8.25124 -0.0540083 -2.37433 4.96441 0.766438 0.197269)
(0.0734671 0.0317689 -0.0247356 7.4068 1.2314 -3.5001 5.14055 1.02692 -0.927302)
(-0.431776 -0.0742944 0.212903 8.73593 1.71241 -4.39714 5.90222 0.745859 -0.755103)
(-0.33556 -0.0884707 0.163179 10.7724 0.59984 -3.52882 5.93433 0.305382 0.522932)
(0.275415 0.0281458 -0.130799 9.37795 -0.482142 -2.07648 5.61381 0.309123 0.909565)
(0.442065 0.0969891 -0.244001 8.24023 -0.122957 -2.17634 4.90417 0.71379 0.274141)
(0.0302884 0.0397551 -0.021948 7.01726 1.2738 -3.33648 5.12685 1.00462 -0.974938)
(-0.542249 -0.0548242 0.246013 7.94325 1.65382 -4.03008 5.84476 0.754061 -0.556311)
(-0.348109 -0.0885178 0.154086 9.81372 0.593545 -3.30714 5.83228 0.309099 0.509053)
(0.401327 0.0106752 -0.172734 9.3463 -0.63753 -1.85233 5.67007 0.315004 0.964259)
(0.508726 0.104099 -0.220293 7.75608 -0.10879 -2.42519 4.92625 0.761124 0.158897)
(-0.0255549 0.038012 0.0159132 7.0427 1.35932 -3.42139 5.07218 1.03218 -0.983499)
(-0.496858 -0.0759286 0.216004 8.70901 1.7171 -4.28113 5.77651 0.743908 -0.665941)
(-0.341731 -0.0877411 0.163596 10.2024 0.524027 -3.27503 5.95082 0.309026 0.572191)
(0.26523 0.00979088 -0.131767 9.45326 -0.517312 -2.03573 5.63823 0.313605 0.982329)
(0.559511 0.106235 -0.26742 8.05016 -0.286615 -2.1487 5.03694 0.717117 0.318101)
(0.0504628 0.0586863 -0.0213599 6.54111 1.34862 -3.39966 5.05808 1.02586 -1.12046)
(-0.620752 -0.0684704 0.252845 8.69706 1.75258 -4.10885 5.85211 0.729815 -0.589225)
(-0.407496 -0.0797716 0.182869 9.36407 0.576482 -3.23688 5.72373 0.32049 0.586245)
(0.34114 0.0132773 -0.149082 8.18523 -0.524089 -1.82391 5.43678 0.341213 0.937625)
(0.62683 0.0804456 -0.273879 7.60595 -0.169522 -2.29617 4.9639 0.71402 0.120878)
(0.0518795 0.0360128 -0.00975185 6.99696 1.33585 -3.51887 5.16951 1.02873 -1.0619)
(-0.553743 -0.0564023 0.244944 8.06531 1.6538 -4.05876 5.79802 0.75624 -0.548648)
(-0.281888 -0.0774996 0.169015 9.34022 0.630984 -3.50092 5.90448 0.307258 0.387519)
(0.346332 0.0081745 -0.143437 9.09138 -0.53179 -1.8464 5.65974 0.293946 0.930702)
(0.486497 0.0763265 -0.226456 7.89599 -0.201529 -2.03868 4.96984 0.681031 0.283331)
(-0.0598174 0.0371823 0.0342659 7.47504 1.22225 -3.31385 4.92808 1.0502 -0.7909)
(-0.66461 -0.0541496 0.249922 8.6113 1.71826 -4.1126 5.66654 0.800151 -0.503399)
(-0.281363 -0.0867331 0.114264 10.4223 0.478839 -3.1068 6.03102 0.328884 0.580677)
(0.492529 0.00363607 -0.179125 8.90459 -0.662546 -1.82725 5.63989 0.271904 0.878668)
(0.521949 0.0905239 -0.226568 8.49289 -0.220216 -2.17094 5.03579 0.685317 0.291274)
(-0.0486953 0.0480498 0.00713393 7.27376 1.2919 -3.39035 4.99722 1.04109 -0.895967)
(-0.616309 -0.0587553 0.240838 8.90439 1.71286 -4.05073 5.81252 0.761134 -0.544572)
(-0.317677 -0.0648283 0.145207 9.10774 0.432652 -3.02541 5.9199 0.323513 0.638349)
(0.437732 0.0075509 -0.143746 8.04393 -0.569917 -1.87717 5.6992 0.311071 0.861691)
(0.491299 0.0701218 -0.223418 8.33043 -0.157387 -2.33724 5.0331 0.704424 0.27125)
(-0.0498015 0.050241 -0.0148581 7.44894 1.28812 -3.39308 5.23284 1.02288 -0.92205)
(-0.431708 -0.054675 0.202209 8.3213 1.6371 -4.08606 5.73941 0.761979 -0.629852)
(-0.23552 -0.0959821 0.162099 9.9388 0.551257 -3.53034 6.07547 0.299798 0.433776)
(0.27071 0.0195541 -0.118309 9.17269 -0.648826 -1.89091 5.66429 0.324311 1.10965)
(0.326378 0.178571 -0.2834 6.96597 -0.162418 -1.94589 4.85441 1.03751 0.266775)
(0.0459185 0.12424 -0.122765 6.15056 1.13315 -2.8886 4.36611 1.33676 -0.813234)
(-0.280806 -0.0867347 0.179829 6.5641 2.04666 -4.01947 5.26946 1.06845 -1.49125)
(-0.243607 -0.186825 0.25542 9.60448 1.27933 -4.27847 6.05819 0.572988 -0.357155)
(0.183349 -0.0248874 -0.039558 8.64086 -0.0644301 -2.6546 5.83184 0.557318 0.48325)
(0.32636 0.16733 -0.27993 7.24826 -0.247906 -1.83786 4.86633 0.993376 0.402625)
(-0.0205655 0.132592 -0.112279 6.09492 1.14993 -2.67937 4.3147 1.31655 -0.798213)
(-0.412232 -0.0718508 0.216151 6.60708 2.00316 -3.73708 5.25522 1.08969 -1.27058)
(-0.23783 -0.192317 0.243776 9.30291 1.1935 -4.05196 6.02172 0.584848 -0.285475)
(0.320877 -0.0383707 -0.101524 8.79535 -0.258932 -2.38132 5.86214 0.553681 0.566306)
(0.370468 0.184108 -0.271539 6.8664 -0.208525 -1.88228 4.81184 1.03536 0.266549)
(-0.0357154 0.132645 -0.0791791 5.87827 1.22235 -2.74501 4.36875 1.36169 -0.838532)
(-0.330213 -0.0972809 0.189232 6.92887 2.06916 -4.0298 5.18627 1.07433 -1.4158)
(-0.246138 -0.188636 0.253226 9.69486 1.16015 -4.06755 6.08168 0.574839 -0.230519)
(0.173329 -0.0447771 -0.0494068 9.29748 -0.0794635 -2.73356 5.85276 0.561586 0.550739)
(0.397371 0.17953 -0.302102 7.39335 -0.363975 -1.74784 5.01229 0.998411 0.442584)
(0.0344915 0.162587 -0.119499 5.49276 1.15428 -2.5493 4.25235 1.33738 -0.881248)
(-0.47058 -0.0853928 0.227182 7.25692 2.08461 -3.87481 5.28487 1.06309 -1.31674)
(-0.382669 -0.185246 0.279821 9.40582 1.24347 -3.93951 5.92975 0.599136 -0.201712)
(0.246618 -0.042034 -0.075157 8.23799 -0.200815 -2.32671 5.73339 0.595359 0.591929)
(0.545258 0.158012 -0.333427 6.61376 -0.377978 -1.71544 4.89375 0.982102 0.291869)
(0.0508465 0.132735 -0.100414 5.73703 1.17535 -2.79041 4.34309 1.33836 -0.903159)
(-0.428837 -0.0735154 0.215761 6.89435 1.96326 -3.74066 5.23978 1.0925 -1.20445)
(-0.206916 -0.177013 0.254271 8.90854 1.25232 -4.09576 5.99591 0.586516 -0.412648)
(0.277034 -0.047541 -0.0495315 8.55367 -0.14664 -2.53872 5.88183 0.542805 0.509981)
(0.390497 0.148021 -0.272997 6.73623 -0.330087 -1.66749 4.96323 0.955655 0.370891)
(-0.0637066 0.136229 -0.0699206 6.10001 1.10986 -2.73259 4.22304 1.373 -0.67858)
(-0.504437 -0.0729252 0.228615 7.11331 2.0608 -3.93808 5.03236 1.13767 -1.22799)
(-0.21699 -0.1934 0.20725 9.94936 1.10777 -3.93447 6.20736 0.610843 -0.184383)
(0.384979 -0.0456272 -0.105837 8.50775 -0.240399 -2.43588 5.97224 0.528217 0.483499)
(0.419405 0.169614 -0.276775 7.00442 -0.300767 -1.80137 5.08138 0.966118 0.331571)
(-0.0531188 0.14848 -0.0894414 6.05131 1.16644 -2.74984 4.30837 1.35965 -0.774751)
(-0.490962 -0.0806447 0.228613 7.2575 2.09929 -3.92892 5.17219 1.09266 -1.30127)
(-0.31041 -0.171422 0.240178 9.58743 1.11986 -3.84236 6.13034 0.595522 -0.132378)
(0.351108 -0.0401538 -0.0840134 8.15689 -0.209355 -2.34194 5.96603 0.563624 0.484034)
(0.439873 0.147641 -0.276559 6.86114 -0.299861 -1.91066 5.04439 0.981431 0.325721)
(-0.0592083 0.145336 -0.103674 6.14401 1.16706 -2.76148 4.40807 1.33715 -0.788373)
(-0.314631 -0.0718436 0.166008 6.9074 2.0101 -3.9017 5.14389 1.10359 -1.35853)
(-0.169032 -0.20055 0.248743 9.3499 1.23996 -4.28597 6.15731 0.560958 -0.440788)
(0.194445 -0.0286829 -0.0351439 8.61037 -0.200876 -2.65294 5.89099 0.579608 0.619782)
(0.19946 0.217499 -0.250436 5.58174 0.0826307 -1.795 4.81826 1.34321 0.00236332)
(0.0390522 0.226844 -0.206722 4.56275 0.897612 -1.99062 4.04932 1.62514 -0.639441)
(-0.127412 -0.0595309 0.0876582 4.89549 1.94856 -3.0933 4.55461 1.35858 -1.56909)
(-0.152671 -0.273894 0.280194 7.71029 1.65011 -4.22163 5.66 0.864089 -1.02751)
(0.0666897 -0.107808 0.0858142 7.47457 0.530605 -3.33312 5.75512 0.849766 -0.108536)
(0.218155 0.202273 -0.242699 5.69592 -0.0165812 -1.79261 4.86171 1.30193 0.122011)
(-0.02393 0.238677 -0.188577 4.60968 0.865077 -1.87233 4.04419 1.61728 -0.560877)
(-0.258538 -0.0490916 0.122045 5.23504 1.90785 -2.92914 4.59208 1.39276 -1.37131)
(-0.15674 -0.287363 0.270513 7.8797 1.56953 -4.1398 5.7152 0.895506 -0.931645)
(0.184015 -0.114096 0.0208239 7.47843 0.347393 -3.15393 5.82822 0.860399 -0.036175)
(0.252746 0.233106 -0.248807 5.2299 0.0277785 -1.57737 4.75288 1.32667 0.00173488)
(-0.0187606 0.239216 -0.173207 4.50507 0.939097 -1.89896 4.06355 1.67023 -0.611038)
(-0.160519 -0.0795471 0.0963573 5.23604 1.96941 -3.22389 4.51741 1.38538 -1.54233)
(-0.132213 -0.276382 0.274526 7.83013 1.53787 -4.16014 5.67499 0.867015 -0.924889)
(0.0615497 -0.125721 0.0745514 8.01039 0.543211 -3.50211 5.72378 0.858171 -0.0939929)
(0.223818 0.213017 -0.246909 6.05447 -0.0396396 -1.76969 4.94064 1.31124 0.122938)
(0.0394404 0.274771 -0.208274 4.12344 0.820064 -1.58704 4.00267 1.63409 -0.567034)
(-0.273842 -0.0585289 0.126827 5.61866 1.95183 -3.06184 4.56672 1.37821 -1.40782)
(-0.319237 -0.280608 0.316361 8.28812 1.66385 -4.07195 5.57821 0.910176 -0.86026)
(0.0923488 -0.131162 0.0492336 8.00572 0.416378 -3.17514 5.72054 0.905456 0.0370982)
(0.403668 0.199973 -0.310813 5.48569 -0.159393 -1.56491 4.88606 1.29207 0.0585158)
(0.0779349 0.242887 -0.188002 4.29651 0.865531 -1.85408 4.04098 1.62656 -0.660262)
(-0.272895 -0.0475713 0.127128 5.55894 1.82797 -2.96397 4.62301 1.40412 -1.26026)
(-0.13591 -0.262698 0.271659 7.34883 1.60147 -3.95423 5.627 0.891502 -1.01472)
(0.152341 -0.132614 0.0717681 7.66522 0.454637 -3.32818 5.82525 0.842296 -0.0811853)
(0.269153 0.185374 -0.239733 5.33474 -0.056535 -1.66405 4.91639 1.26538 0.0760453)
(-0.0245523 0.248416 -0.165327 4.45244 0.857931 -1.90871 4.00252 1.68046 -0.525858)
(-0.324593 -0.0524657 0.140889 5.54261 1.95118 -3.20966 4.37426 1.4432 -1.34793)
(-0.158826 -0.288909 0.243907 8.23274 1.51093 -4.11586 5.83165 0.919284 -0.834633)
(0.230902 -0.121716 0.0108411 7.47708 0.373246 -3.15257 5.88546 0.830098 -0.0939154)
(0.305002 0.212737 -0.250586 5.30001 -0.0178271 -1.67184 4.92738 1.26815 0.00997478)
(-0.0248454 0.259993 -0.17999 4.52819 0.885487 -1.86387 4.07717 1.66357 -0.573358)
(-0.301781 -0.060875 0.141011 5.41492 2.01268 -3.17558 4.41178 1.40159 -1.44683)
(-0.235217 -0.2677 0.282494 8.48295 1.55971 -4.14452 5.75316 0.906415 -0.824654)
(0.194234 -0.118992 0.0289479 7.85376 0.399172 -3.10227 5.81562 0.864082 -0.0608335)
(0.310266 0.189678 -0.256909 5.72064 -0.053174 -1.7855 4.92884 1.2885 0.0589786)
(-0.0445822 0.254384 -0.190133 4.47356 0.887989 -1.82111 4.08161 1.63241 -0.591967)
(-0.146896 -0.0462163 0.0648269 5.38069 1.91723 -3.12406 4.46439 1.41863 -1.46172)
(-0.0846584 -0.290023 0.268936 7.82683 1.60673 -4.24551 5.68521 0.853971 -1.09173)
(0.0578429 -0.105331 0.0898129 7.78848 0.48188 -3.46466 5.80039 0.884181 -0.0208423)
(0.0108829 0.216975 -0.136727 5.09427 0.387877 -1.86276 4.63681 1.67004 -0.0809457)
(-0.0232143 0.30382 -0.246459 3.54251 0.764553 -1.18646 3.83543 1.90294 -0.50127)
(0.024086 -0.0128961 -0.0379376 3.75118 1.57676 -2.09929 4.10127 1.61301 -1.28807)
(0.00969606 -0.322383 0.228543 6.03495 1.6301 -3.58526 5.04554 1.139 -1.26954)
(-0.009928 -0.186165 0.195034 6.65785 0.945844 -3.56863 5.37055 1.15541 -0.447384)
(0.0457052 0.197865 -0.135032 4.99738 0.30305 -1.89463 4.67577 1.61726 -0.00740331)
(-0.0671196 0.317776 -0.22028 3.63872 0.715345 -1.21268 3.86216 1.89473 -0.413242)
(-0.0949085 -0.00245518 -0.00513158 4.09314 1.522 -2.07267 4.1875 1.66409 -1.13342)
(-0.0176953 -0.341575 0.218232 6.43707 1.58219 -3.66046 5.16262 1.18282 -1.18482)
(0.064971 -0.187657 0.146944 6.67159 0.838881 -3.55531 5.37953 1.18638 -0.403475)
(0.0797291 0.239409 -0.146132 4.47451 0.298765 -1.55211 4.5765 1.63992 -0.0674463)
(-0.0367862 0.31953 -0.237294 3.53714 0.746267 -1.14584 3.83691 1.95135 -0.45395)
(-0.00888908 -0.0381348 -0.0315342 4.10901 1.60596 -2.25317 4.08247 1.65506 -1.29223)
(0.0247337 -0.324963 0.222789 6.01811 1.56091 -3.59425 5.06658 1.14837 -1.21997)
(0.00384958 -0.197179 0.181403 6.81799 0.977086 -3.72019 5.31789 1.17116 -0.490207)
(0.0192649 0.204349 -0.112781 5.26224 0.369081 -1.97246 4.71063 1.64432 -0.0592096)
(-0.0103419 0.353982 -0.242086 3.32399 0.632905 -0.9443 3.86495 1.92337 -0.369279)
(-0.066536 -0.0022325 -0.0155987 4.15172 1.52264 -2.08145 4.12154 1.65236 -1.14278)
(-0.146152 -0.331928 0.26464 6.59725 1.6487 -3.574 5.06763 1.20352 -1.13011)
(-0.0230763 -0.218618 0.167471 7.40207 0.896823 -3.63028 5.42005 1.22709 -0.330191)
(0.182041 0.199513 -0.201283 5.14918 0.219577 -1.73823 4.73834 1.62932 -0.06312)
(0.0555901 0.323916 -0.233996 3.52168 0.676617 -1.12437 3.8305 1.89581 -0.485408)
(-0.133888 -0.00123511 0.0109541 4.49703 1.45089 -2.15819 4.19222 1.68321 -1.02719)
(0.000277602 -0.308168 0.215477 5.86186 1.58285 -3.36629 5.0959 1.18532 -1.22167)
(0.0845891 -0.20772 0.171343 6.93776 0.88213 -3.61283 5.43985 1.15158 -0.437379)
(0.0757621 0.185318 -0.131905 5.01306 0.306581 -1.87422 4.65688 1.59213 -0.0517133)
(-0.0464731 0.329276 -0.217632 3.49329 0.728983 -1.22286 3.79024 1.96383 -0.431995)