/*--------------------------------*- C++ -*----------------------------------*\
  =========                 |
  \\      /  F ield         | OpenFOAM: The Open Source CFD Toolbox
   \\    /   O peration     | Website:  https://openfoam.org
    \\  /    A nd           | Version:  10
     \\/     M anipulation  |
\*---------------------------------------------------------------------------*/
FoamFile
{
    format      ascii;
    class       surfaceScalarField;
    location    "2.5";
    object      phi_0;
}
// * * * * * * * * * * * * * * * * * * * * * * * * * * * * * * * * * * * * * //

dimensions      [0 3 -1 0 0 0 0];

internalField   nonuniform List<scalar> 
74080
(
0.0048332
-2.01569e-08
1.06588e-08
0.00483319
-2.61879e-08
-1.44523e-08
0.00483319
-2.7453e-08
-2.31437e-09
0.00483321
-3.78121e-08
3.18398e-08
0.00483321
-3.0412e-08
1.74475e-08
0.00483319
8.90589e-09
3.92949e-09
0.00483321
-1.72019e-08
2.14219e-08
0.00483321
-4.95833e-08
2.27929e-08
0.00483321
-1.55715e-08
7.32393e-09
0.00483323
-8.35953e-09
1.89643e-09
0.00483321
6.78969e-09
-2.1354e-09
0.0048332
4.46408e-09
-7.2189e-09
0.00483322
-2.35263e-08
-1.05091e-08
0.00483321
-7.62232e-11
-1.63847e-08
0.00483319
1.45407e-08
-1.9973e-08
0.00483318
1.25547e-08
-2.27006e-08
0.00483317
2.77828e-08
-2.53162e-08
0.00483318
-1.80032e-08
-1.97576e-08
0.00483318
-1.88882e-08
-1.84558e-08
0.00483317
5.14206e-08
-2.3633e-08
0.00483318
1.16099e-08
-2.44338e-08
0.00483317
3.28136e-09
-1.68603e-08
0.00483317
3.43278e-08
-7.07836e-09
0.00483319
-2.4324e-09
-1.7487e-08
0.00483317
4.56531e-08
-2.63681e-08
0.00483317
6.72064e-08
-1.26054e-08
0.00483318
1.69235e-08
-1.20869e-08
0.00483316
5.3663e-08
-1.78301e-08
0.00483316
6.30575e-08
-1.57895e-08
0.00483318
3.4265e-08
-2.42554e-08
0.00483315
7.58365e-08
-3.53526e-08
0.00483315
5.57876e-08
-2.81779e-08
0.00483317
1.97313e-08
-8.99862e-09
0.00483316
4.326e-08
-1.57911e-08
0.00483318
-1.06326e-08
-4.28626e-08
0.00483318
3.94652e-09
-1.93322e-08
0.00483316
4.20192e-08
5.50685e-09
0.00483319
-4.74147e-08
-2.19065e-08
0.0048332
-5.05125e-08
-2.89813e-08
-6.30245e-09
4.84504e-09
0.00439355
-1.51895e-08
-1.62642e-09
0.00439354
-1.09287e-08
-3.06213e-08
0.00439355
-3.41949e-08
1.01792e-08
0.00439357
-5.82545e-08
2.78709e-08
0.00439356
-1.77303e-08
6.09011e-09
0.00439354
5.14588e-08
1.06597e-08
0.00439356
-4.21407e-08
1.85795e-08
0.00439356
-6.0903e-08
2.31442e-08
0.00439356
-5.4425e-09
1.50387e-08
0.00439359
-2.29165e-08
-3.4434e-09
0.00439355
4.73475e-08
1.2897e-09
0.00439355
1.76964e-08
2.98249e-09
0.00439357
-5.35342e-08
-7.08491e-09
0.00439356
1.60826e-08
-1.24581e-08
0.00439355
4.08818e-08
-1.73488e-08
0.00439353
4.03357e-08
-1.90183e-08
0.00439352
4.81645e-08
-2.00386e-08
0.00439354
-4.12387e-08
-2.18448e-08
0.00439354
-9.98901e-09
-1.66015e-08
0.00439352
7.65953e-08
-1.49335e-08
0.00439354
-1.9945e-09
-2.49822e-08
0.00439352
2.87637e-08
-1.82893e-08
0.00439352
2.52323e-08
2.08688e-09
0.00439356
-4.01163e-08
-1.06282e-08
0.00439353
8.42061e-08
-2.56757e-08
0.00439353
6.93182e-08
-4.68867e-09
0.00439354
1.31896e-10
-2.44431e-09
0.00439351
7.46833e-08
-9.5222e-09
0.00439353
4.05324e-08
-1.47733e-08
0.00439354
2.3639e-08
-2.79794e-08
0.00439349
1.25978e-07
-4.03003e-08
0.0043935
4.66772e-08
-3.40131e-08
0.00439351
-4.42339e-09
-7.72017e-09
0.00439351
4.33149e-08
-2.58704e-08
0.00439354
-3.94343e-08
-6.34727e-08
0.00439351
4.35766e-08
-1.49147e-08
0.0043935
5.4834e-08
4.97662e-09
0.00439355
-1.06471e-07
-4.32444e-08
0.00439355
-4.54003e-08
-3.3491e-08
3.94776e-09
1.50108e-08
0.00399389
1.60636e-08
-2.65297e-08
0.00399387
8.14238e-09
-4.27767e-08
0.0039939
-5.90237e-08
2.94475e-08
0.00399393
-8.06249e-08
2.2683e-08
0.0039939
1.53365e-08
-1.92524e-09
0.00399387
1.07518e-07
2.05315e-08
0.00399392
-8.95692e-08
1.68394e-08
0.0039939
-6.09796e-08
3.17089e-08
0.00399392
-8.60336e-09
1.96757e-08
0.00399394
-3.61828e-08
-1.08335e-08
0.00399388
1.26395e-07
8.79033e-09
0.0039939
6.52522e-09
1.02661e-08
0.00399392
-8.83484e-08
-6.01361e-09
0.00399391
4.368e-08
-7.56851e-09
0.00399391
5.8546e-08
-1.60446e-08
0.00399387
9.39295e-08
-1.89268e-08
0.00399385
7.49486e-08
-1.91947e-08
0.0039939
-8.86382e-08
-2.18624e-08
0.00399388
1.18341e-08
-1.31083e-08
0.00399387
1.02888e-07
-1.12499e-08
0.00399389
-1.5604e-08
-2.96675e-08
0.00399385
7.98716e-08
-1.62286e-08
0.00399388
-1.99766e-08
1.53103e-08
0.00399392
-8.27708e-08
-1.51346e-08
0.00399387
1.49335e-07
-2.44295e-08
0.00399388
5.66805e-08
6.43362e-09
0.00399387
-7.96198e-11
3.1907e-09
0.00399385
9.66369e-08
-1.53156e-09
0.0039939
-1.1936e-08
-1.66014e-08
0.00399389
3.96949e-08
-3.83755e-08
0.00399382
2.02134e-07
-4.55138e-08
0.00399384
2.01499e-08
-3.62602e-08
0.00399385
-2.41589e-08
-4.94368e-09
0.00399386
2.24731e-08
-4.59169e-08
0.0039939
-6.9656e-08
-8.2445e-08
0.00399382
1.36277e-07
3.319e-09
0.00399384
3.37261e-08
-3.93406e-09
0.00399391
-1.83438e-07
-7.08978e-08
0.00399389
-2.1036e-08
-2.429e-08
-1.11274e-09
2.68175e-08
0.00363057
1.05525e-07
-6.12322e-08
0.00363056
1.42103e-08
-4.262e-08
0.00363061
-1.01386e-07
5.58309e-08
0.00363065
-1.04717e-07
1.03972e-08
0.00363059
7.48884e-08
-6.83969e-10
0.00363057
1.78266e-07
2.90858e-08
0.00363061
-1.57835e-07
1.5477e-08
0.00363058
-4.24212e-08
5.14331e-08
0.00363066
-5.62756e-08
1.5669e-08
0.00363065
-2.35772e-08
-1.7342e-08
0.00363055
2.54821e-07
2.18078e-08
0.00363061
-5.14076e-08
1.22967e-08
0.00363062
-1.08408e-07
-3.67964e-09
0.00363063
6.75947e-08
-1.53597e-09
0.00363063
7.06807e-08
-1.77972e-08
0.00363054
1.98815e-07
-2.12289e-08
0.00363054
9.71277e-08
-1.99843e-08
0.00363061
-1.64109e-07
-1.72359e-08
0.00363059
4.5525e-08
-9.08015e-09
0.00363059
1.18362e-07
-1.22105e-08
0.00363059
1.91935e-09
-3.72931e-08
0.00363052
1.56885e-07
-8.19746e-09
0.00363061
-1.31361e-07
2.71819e-08
0.00363063
-1.08704e-07
-3.01701e-08
0.00363058
2.27881e-07
-1.73351e-08
0.00363059
3.5166e-08
1.97523e-08
0.00363054
4.10946e-08
7.12311e-09
0.00363056
7.86887e-08
1.40903e-08
0.00363064
-1.00192e-07
-2.64806e-08
0.00363058
1.07975e-07
-5.10949e-08
0.0036305
2.99418e-07
-4.82469e-08
0.00363053
-2.27096e-08
-3.69938e-08
0.00363054
-4.46692e-08
-4.63629e-09
0.0036306
-4.08315e-08
-7.89213e-08
0.0036306
-6.85057e-08
-9.28725e-08
0.00363048
2.88596e-07
2.22023e-08
0.00363055
-5.10343e-08
-2.82636e-08
0.00363061
-2.50063e-07
-9.31799e-08
0.00363059
3.13145e-09
-1.91759e-09
-2.41344e-08
3.01882e-08
0.00330028
2.75645e-07
-9.75037e-08
0.00330031
-2.73142e-08
-2.41442e-08
0.00330037
-1.42273e-07
8.14567e-08
0.00330042
-1.4409e-07
-1.12633e-08
0.00330033
1.71439e-07
1.47324e-08
0.00330031
2.6856e-07
2.91387e-08
0.00330034
-2.35272e-07
2.0929e-08
0.00330031
-1.43888e-08
8.0388e-08
0.00330048
-1.88763e-07
-1.84331e-09
0.00330038
6.33214e-08
-1.55086e-08
0.00330028
4.22252e-07
3.44718e-08
0.00330037
-1.55714e-07
7.55433e-09
0.00330035
-9.50382e-08
7.79322e-09
0.00330041
4.33821e-08
5.61056e-09
0.0033004
1.03456e-07
-2.31101e-08
0.00330025
3.77852e-07
-2.49639e-08
0.00330027
9.78414e-08
-1.76331e-08
0.00330036
-2.67639e-07
-5.89567e-09
0.00330035
7.50809e-08
-8.73307e-09
0.00330037
1.21099e-07
-1.50139e-08
0.0033003
8.92118e-08
-4.2328e-08
0.00330023
2.34319e-07
5.25507e-09
0.00330039
-3.23396e-07
3.15149e-08
0.00330039
-9.92122e-08
-5.56859e-08
0.00330035
2.94302e-07
1.75853e-09
0.00330033
4.27171e-08
3.01706e-08
0.00330024
1.23633e-07
1.68142e-08
0.00330034
-2.42181e-08
3.25759e-08
0.00330043
-1.98987e-07
-5.07583e-08
0.00330032
2.37783e-07
-6.01816e-08
0.00330023
4.16818e-07
-5.22296e-08
0.00330025
-6.51765e-08
-4.06525e-08
0.00330028
-9.03914e-08
-9.5402e-09
0.0033004
-1.60151e-07
-1.22424e-07
0.00330033
7.34283e-09
-8.70019e-08
0.00330019
4.78344e-07
3.67839e-08
0.00330032
-2.04276e-07
-6.81339e-08
0.00330033
-2.77352e-07
-9.69481e-08
0.00330037
-2.51805e-08
2.46175e-08
-3.74776e-08
1.80133e-08
0.00300003
5.12158e-07
-1.27681e-07
0.00300009
-1.28263e-07
1.61762e-08
0.00300015
-1.67254e-07
9.7678e-08
0.00300024
-2.35805e-07
-2.9949e-08
0.00300012
3.30977e-07
4.21797e-08
0.0030001
3.81013e-07
1.54506e-08
0.00300006
-3.01336e-07
4.67217e-08
0.0030001
-1.49743e-08
1.08941e-07
0.00300037
-4.27133e-07
-3.46759e-08
0.00300013
2.83558e-07
-1.46703e-10
0.00300007
5.92331e-07
3.65939e-08
0.00300014
-2.7777e-07
2.26161e-09
0.00300011
-6.8029e-08
3.14795e-08
0.00300029
-7.80684e-08
8.93162e-09
0.0030002
2.11856e-07
-3.14271e-08
0.00299999
6.31938e-07
-2.83135e-08
0.00300003
7.29779e-08
-1.04852e-08
0.00300015
-3.94186e-07
6.3445e-09
0.00300018
6.88494e-08
-1.42657e-08
0.00300019
1.32583e-07
-1.29233e-08
0.00300003
2.83176e-07
-4.42838e-08
0.00299999
2.68121e-07
2.5638e-08
0.0030002
-5.86282e-07
2.32373e-08
0.00300019
-6.4859e-08
-8.35671e-08
0.0030002
3.33154e-07
2.7986e-08
0.00300007
1.51059e-07
3.30055e-08
0.00299998
2.03898e-07
3.6528e-08
0.00300018
-2.4169e-07
4.671e-08
0.00300026
-2.7516e-07
-8.73642e-08
0.00300012
4.09219e-07
-5.37359e-08
0.00299998
5.79343e-07
-5.93223e-08
0.003
-1.01694e-07
-4.54108e-08
0.00300008
-1.96775e-07
-2.20262e-08
0.00300025
-3.31029e-07
-1.64922e-07
0.0030001
1.82906e-07
-6.45525e-08
0.00299996
6.78694e-07
3.45045e-08
0.00300009
-3.92821e-07
-1.11241e-07
0.00300009
-2.75837e-07
-7.83379e-08
0.00300024
-1.58509e-07
4.67438e-08
1.7985e-08
-1.49102e-08
0.00272711
7.71771e-07
-1.44883e-07
0.00272716
-2.55112e-07
7.31213e-08
0.00272724
-1.93199e-07
9.47661e-08
0.00272741
-4.24916e-07
-3.11564e-08
0.00272722
5.98931e-07
7.64066e-08
0.00272718
5.17135e-07
-1.12567e-08
0.00272705
-3.34824e-07
1.04701e-07
0.00272724
-1.21972e-07
1.22261e-07
0.00272757
-7.48508e-07
-6.67802e-08
0.00272719
6.90728e-07
1.97817e-08
0.00272718
7.30302e-07
2.40433e-08
0.00272716
-3.48822e-07
1.04698e-08
0.00272722
-9.13764e-08
5.43009e-08
0.0027275
-3.15049e-07
8.83061e-09
0.00272728
4.57895e-07
-4.31528e-08
0.00272704
9.44137e-07
-3.21995e-08
0.00272707
4.29797e-08
4.64908e-09
0.00272725
-5.7655e-07
2.01749e-08
0.00272735
1.09602e-09
-2.29412e-08
0.00272732
2.05166e-07
5.87864e-10
0.00272705
5.93028e-07
-4.22643e-08
0.00272707
2.24913e-07
4.82893e-08
0.00272731
-8.93514e-07
-2.5967e-09
0.00272735
-5.00903e-08
-1.14294e-07
0.00272736
3.72809e-07
6.48413e-08
0.00272707
4.16708e-07
2.75509e-08
0.00272705
2.13604e-07
6.81286e-08
0.00272733
-5.5161e-07
4.45122e-08
0.00272741
-3.28089e-07
-1.26024e-07
0.00272724
6.0127e-07
-3.4172e-08
0.00272703
8.32773e-07
-7.87977e-08
0.00272704
-1.49558e-07
-4.99917e-08
0.0027272
-3.92077e-07
-4.38334e-08
0.00272742
-5.40591e-07
-2.00744e-07
0.00272718
4.42192e-07
-3.07009e-08
0.00272704
8.87424e-07
1.28292e-08
0.00272713
-5.6508e-07
-1.45794e-07
0.00272718
-2.92157e-07
-4.33035e-08
0.00272744
-4.28194e-07
5.27212e-08
2.34629e-07
-7.12361e-08
0.00247903
1.02284e-06
-1.51814e-07
0.00247899
-3.43607e-07
1.296e-07
0.00247919
-2.88539e-07
7.70518e-08
0.00247943
-7.14874e-07
-1.26181e-08
0.00247916
1.0178e-06
1.00953e-07
0.00247905
6.93037e-07
-4.6755e-08
0.00247883
-3.24687e-07
1.93738e-07
0.00247927
-4.32749e-07
1.08285e-07
0.00247957
-1.09317e-06
-7.71368e-08
0.00247909
1.28745e-06
3.21318e-08
0.00247912
8.32607e-07
-3.32107e-09
0.00247894
-3.07598e-07
3.59993e-08
0.0024792
-2.68573e-07
7.05029e-08
0.00247954
-6.25894e-07
6.32435e-09
0.0024792
8.63541e-07
-5.80719e-08
0.00247892
1.30856e-06
-3.47042e-08
0.00247889
4.31117e-08
2.92324e-08
0.0024792
-8.77752e-07
2.91909e-08
0.00247938
-1.25744e-07
-3.38459e-08
0.00247925
3.925e-07
2.37084e-08
0.00247887
1.00901e-06
-4.22299e-08
0.00247895
9.40318e-08
7.45418e-08
0.00247923
-1.25718e-06
-3.45001e-08
0.00247938
-1.19321e-07
-1.42164e-07
0.00247932
4.86958e-07
1.10766e-07
0.00247886
8.58797e-07
1.70748e-08
0.00247897
8.39481e-08
1.11595e-07
0.00247928
-9.08962e-07
1.84478e-08
0.0024794
-4.0211e-07
-1.53328e-07
0.00247921
8.42245e-07
-7.40084e-09
0.00247886
1.21951e-06
-1.07484e-07
0.00247889
-2.48147e-07
-4.83553e-08
0.00247914
-6.84901e-07
-7.4041e-08
0.00247944
-8.05491e-07
-2.1703e-07
0.00247913
7.99571e-07
-6.86125e-09
0.00247893
1.14518e-06
-3.2959e-08
0.00247895
-6.99242e-07
-1.59853e-07
0.00247913
-4.25234e-07
-5.38028e-09
0.00247949
-7.91523e-07
3.65194e-08
6.40127e-07
-1.27238e-07
0.00225349
1.27735e-06
-1.43232e-07
0.00225334
-3.72173e-07
1.94531e-07
0.00225374
-5.55286e-07
5.74132e-08
0.00225402
-1.05387e-06
2.99663e-08
0.00225367
1.61047e-06
1.10595e-07
0.00225344
9.30446e-07
-5.65387e-08
0.00225316
-3.27337e-07
3.06198e-07
0.00225392
-1.02406e-06
6.90257e-08
0.00225412
-1.3856e-06
-5.53323e-08
0.0022536
2.02778e-06
2.36192e-08
0.00225357
9.60135e-07
-3.93863e-08
0.00225325
-1.71247e-07
8.58078e-08
0.00225382
-7.20538e-07
8.44431e-08
0.00225413
-9.17332e-07
2.25226e-09
0.00225371
1.42201e-06
-7.80502e-08
0.00225334
1.75342e-06
-2.62946e-08
0.00225324
8.59674e-08
5.03015e-08
0.00225375
-1.37607e-06
3.42406e-08
0.00225399
-2.85166e-07
-2.73472e-08
0.00225375
7.39057e-07
4.84038e-08
0.00225327
1.5184e-06
-5.39697e-08
0.00225337
-1.16991e-07
1.11841e-07
0.00225373
-1.7138e-06
-8.90689e-08
0.00225404
-3.09134e-07
-1.64051e-07
0.00225381
7.8426e-07
1.59243e-07
0.00225322
1.4387e-06
-2.27314e-09
0.00225345
-2.18864e-07
1.62866e-07
0.00225378
-1.30687e-06
-1.82888e-08
0.00225402
-5.60434e-07
-1.57315e-07
0.00225374
1.20567e-06
-4.38987e-09
0.00225323
1.74766e-06
-1.44423e-07
0.0022533
-4.25661e-07
-4.22461e-08
0.00225365
-1.08805e-06
-1.12918e-07
0.00225405
-1.14887e-06
-2.19649e-07
0.00225366
1.26975e-06
-7.89587e-10
0.00225334
1.51266e-06
-6.84044e-08
0.00225331
-8.28638e-07
-1.55106e-07
0.0022537
-7.50216e-07
4.0679e-08
0.00225409
-1.19137e-06
4.97342e-09
1.21525e-06
-1.77594e-07
0.00204841
1.60326e-06
-1.30266e-07
0.00204818
-3.98564e-07
2.63125e-07
0.00204887
-1.06812e-06
4.29498e-08
0.00204913
-1.34687e-06
8.25829e-08
0.00204872
2.37162e-06
1.01893e-07
0.00204827
1.27567e-06
-4.06478e-08
0.00204803
-4.40184e-07
4.17058e-07
0.00204911
-1.9165e-06
1.61989e-08
0.00204917
-1.55668e-06
8.74764e-10
0.00204869
2.8698e-06
-3.61469e-08
0.00204843
1.22045e-06
-4.81867e-08
0.00204809
-4.28564e-08
1.39328e-07
0.00204899
-1.50098e-06
9.79232e-08
0.0020492
-1.08039e-06
-5.17961e-09
0.00204879
2.08249e-06
-1.03045e-07
0.0020482
2.36359e-06
-1.07617e-08
0.00204809
1.00267e-07
6.81792e-08
0.00204886
-2.12427e-06
4.00496e-08
0.00204911
-3.91866e-07
-1.20963e-08
0.00204876
1.26405e-06
8.04618e-08
0.00204816
2.11989e-06
-7.3501e-08
0.00204827
-4.26233e-07
1.58207e-07
0.00204878
-2.33374e-06
-1.6467e-07
0.00204925
-6.02593e-07
-1.71016e-07
0.00204878
1.35109e-06
2.07448e-07
0.0020481
2.11424e-06
-3.91703e-08
0.00204841
-6.66924e-07
2.08095e-07
0.00204879
-1.78373e-06
-5.29798e-08
0.00204921
-8.26496e-07
-1.4836e-07
0.00204877
1.78573e-06
-4.19487e-08
0.00204811
2.39534e-06
-1.72739e-07
0.00204818
-6.97463e-07
-3.14358e-08
0.00204869
-1.63791e-06
-1.55101e-07
0.00204923
-1.59308e-06
-2.13281e-07
0.0020487
1.92026e-06
-1.2238e-08
0.00204821
2.01944e-06
-9.12988e-08
0.00204818
-1.02852e-06
-1.41163e-07
0.0020488
-1.29754e-06
7.72287e-08
0.00204921
-1.54746e-06
-4.84745e-08
1.94593e-06
-2.32875e-07
0.00186189
2.0706e-06
-1.1571e-07
0.0018617
-5.61499e-07
3.35818e-07
0.00186266
-1.84544e-06
4.64887e-08
0.00186288
-1.49937e-06
1.38873e-07
0.00186242
3.31821e-06
8.83611e-08
0.00186168
1.75528e-06
1.49574e-08
0.00186159
-8.10403e-07
5.12009e-07
0.00186294
-3.09687e-06
-5.01308e-09
0.0018629
-1.5612e-06
6.21531e-08
0.00186246
3.87749e-06
-1.71213e-07
0.00186185
1.67042e-06
-2.3189e-08
0.00186163
-1.12928e-07
1.79445e-07
0.0018628
-2.57009e-06
1.16424e-07
0.00186293
-1.06054e-06
-1.77347e-08
0.00186256
2.83606e-06
-1.18171e-07
0.00186163
3.23049e-06
-1.26016e-09
0.00186162
-5.41181e-08
7.29795e-08
0.00186262
-3.11195e-06
5.8455e-08
0.00186289
-3.70717e-07
2.36605e-10
0.00186243
1.99908e-06
1.10557e-07
0.00186166
2.82531e-06
-1.03575e-07
0.00186178
-9.08379e-07
2.26649e-07
0.00186252
-3.17974e-06
-2.63957e-07
0.00186312
-9.34291e-07
-1.56556e-07
0.00186236
2.2784e-06
2.42265e-07
0.00186165
2.81172e-06
-7.51641e-08
0.00186197
-1.24328e-06
2.53286e-07
0.00186248
-2.39352e-06
-9.23554e-08
0.00186309
-1.12479e-06
-1.36156e-07
0.00186241
2.67851e-06
-1.23663e-07
0.00186162
3.12826e-06
-1.8968e-07
0.00186168
-1.10327e-06
-3.07147e-08
0.00186241
-2.40308e-06
-1.91394e-07
0.00186309
-2.09408e-06
-2.13949e-07
0.00186238
2.82812e-06
-3.77752e-08
0.00186169
2.66286e-06
-9.09242e-08
0.00186171
-1.39647e-06
-1.36559e-07
0.00186257
-2.06405e-06
1.09177e-07
0.00186298
-1.80784e-06
-1.02765e-07
2.85373e-06
-2.84209e-07
0.00169226
2.67083e-06
-1.09646e-07
0.00169222
-1.07372e-06
4.32974e-07
0.00169341
-2.84814e-06
7.90839e-08
0.00169362
-1.43848e-06
1.94764e-07
0.00169306
4.51913e-06
7.41259e-08
0.00169199
2.3443e-06
1.0158e-07
0.00169216
-1.60037e-06
5.93306e-07
0.00169369
-4.49304e-06
7.27468e-09
0.00169364
-1.3521e-06
1.12798e-07
0.00169315
5.1584e-06
-3.31529e-07
0.00169216
2.28073e-06
4.153e-08
0.00169218
-5.93744e-07
2.06812e-07
0.00169353
-3.85233e-06
1.61833e-07
0.00169366
-8.16587e-07
-5.30358e-08
0.00169326
3.78276e-06
-1.2204e-07
0.00169196
4.35963e-06
-1.67273e-09
0.00169214
-5.75214e-07
8.36703e-08
0.00169333
-4.30469e-06
9.3272e-08
0.00169366
-1.41342e-07
9.73504e-09
0.00169304
3.03041e-06
1.48704e-07
0.00169208
3.61355e-06
-1.40516e-07
0.00169224
-1.695e-06
3.07888e-07
0.00169325
-4.30815e-06
-3.81947e-07
0.00169395
-1.18418e-06
-1.19236e-07
0.00169289
3.62963e-06
2.63093e-07
0.00169213
3.49581e-06
-1.2442e-07
0.00169243
-2.05575e-06
3.03525e-07
0.00169319
-3.21896e-06
-1.25091e-07
0.00169392
-1.31813e-06
-1.45887e-07
0.001693
3.96003e-06
-2.3395e-07
0.00169205
3.90637e-06
-1.81049e-07
0.0016921
-1.74809e-06
-4.17235e-08
0.00169313
-3.43976e-06
-2.15117e-07
0.00169393
-2.52371e-06
-2.34942e-07
0.00169299
4.0848e-06
-5.96869e-08
0.00169208
3.417e-06
-7.72681e-08
0.0016922
-2.10087e-06
-1.33846e-07
0.0016933
-3.05394e-06
1.58972e-07
0.00169374
-1.89211e-06
-1.71714e-07
4.02249e-06
-3.44976e-07
0.001538
3.31948e-06
-1.17319e-07
0.0015382
-2.17221e-06
5.57273e-07
0.00153954
-4.00722e-06
1.18682e-07
0.00153979
-1.05695e-06
2.44887e-07
0.00153904
6.12425e-06
7.94163e-08
0.00153769
2.92437e-06
2.00671e-07
0.00153818
-3.07132e-06
6.65768e-07
0.00153983
-6.07472e-06
7.86558e-08
0.00153985
-8.4751e-07
1.31298e-07
0.00153917
6.90006e-06
-5.02244e-07
0.00153785
2.90394e-06
1.3603e-07
0.0015382
-1.70711e-06
2.21617e-07
0.00153963
-5.26533e-06
2.23728e-07
0.00153987
-2.75125e-07
-1.14549e-07
0.00153932
5.07643e-06
-1.05937e-07
0.00153767
5.6728e-06
-3.44026e-08
0.0015381
-1.65168e-06
1.03358e-07
0.00153943
-5.63439e-06
1.22812e-07
0.00153987
3.89194e-07
1.43902e-08
0.00153901
4.48964e-06
1.86144e-07
0.00153788
4.39129e-06
-1.75934e-07
0.00153811
-2.97625e-06
4.14951e-07
0.00153944
-5.74443e-06
-5.16208e-07
0.00154017
-1.20117e-06
-5.25683e-08
0.00153883
5.47763e-06
2.68446e-07
0.00153799
4.11018e-06
-1.6609e-07
0.00153828
-3.23977e-06
3.55587e-07
0.00153936
-4.28934e-06
-1.49569e-07
0.00154016
-1.20885e-06
-1.90856e-07
0.00153897
5.72979e-06
-3.62117e-07
0.00153785
4.6788e-06
-1.62324e-07
0.00153795
-2.85659e-06
-5.21764e-08
0.0015393
-4.75558e-06
-2.26096e-07
0.00154017
-2.70032e-06
-2.81046e-07
0.00153899
5.73888e-06
-1.75521e-08
0.00153786
4.21617e-06
-6.66856e-08
0.00153812
-3.31156e-06
-1.47758e-07
0.00153945
-4.26447e-06
2.26125e-07
0.00153995
-1.70408e-06
-2.36891e-07
5.59902e-06
-3.99773e-07
0.00139776
3.81628e-06
-1.21748e-07
0.00139822
-4.08126e-06
7.52915e-07
0.00139969
-5.29001e-06
1.67115e-07
0.0014
-2.0135e-07
2.85105e-07
0.00139896
8.3284e-06
9.34207e-08
0.0013974
3.29862e-06
3.14964e-07
0.00139822
-5.44051e-06
7.68617e-07
0.00139998
-7.84112e-06
2.04918e-07
0.00140012
9.60197e-08
1.38988e-07
0.0013991
9.34053e-06
-6.77978e-07
0.00139756
3.31483e-06
2.3016e-07
0.00139823
-3.65624e-06
2.53032e-07
0.00139974
-6.81039e-06
3.11498e-07
0.00140014
7.08843e-07
-2.05399e-07
0.00139929
6.96227e-06
-6.79249e-08
0.00139739
6.97927e-06
-8.07858e-08
0.00139809
-3.5149e-06
1.56905e-07
0.00139956
-7.08941e-06
1.50509e-07
0.00140012
1.42735e-06
2.09547e-08
0.00139892
6.58209e-06
2.25241e-07
0.00139766
4.9908e-06
-2.22633e-07
0.001398
-5.01601e-06
5.40915e-07
0.00139969
-7.5304e-06
-6.45449e-07
0.00140039
-7.3955e-07
1.02613e-08
0.00139875
7.96499e-06
2.55811e-07
0.00139781
4.56651e-06
-1.96213e-07
0.00139817
-5.08285e-06
4.10727e-07
0.0013996
-5.6102e-06
-1.64147e-07
0.00140038
-5.32262e-07
-2.70874e-07
0.00139892
8.08751e-06
-4.73614e-07
0.00139761
5.35294e-06
-1.42142e-07
0.00139784
-4.71681e-06
-6.48161e-08
0.00139951
-6.34811e-06
-2.17573e-07
0.00140041
-2.40444e-06
-3.54735e-07
0.00139895
7.94944e-06
4.2646e-08
0.00139762
4.91048e-06
-3.80571e-08
0.00139807
-5.31928e-06
-1.45166e-07
0.00139964
-5.68208e-06
3.19633e-07
0.00140017
-1.0391e-06
-3.16942e-07
7.75375e-06
-4.68123e-07
0.00127026
3.9083e-06
-1.29996e-07
0.00127099
-7.08458e-06
9.98784e-07
0.0012726
-6.6886e-06
2.20218e-07
0.00127295
1.38961e-06
3.4504e-07
0.00127151
1.13351e-05
1.3968e-07
0.00126987
3.18065e-06
4.30378e-07
0.00127101
-8.96965e-06
9.02927e-07
0.0012729
-9.77403e-06
3.55522e-07
0.00127314
1.74442e-06
1.25284e-07
0.00127165
1.26964e-05
-8.10392e-07
0.00127004
3.19079e-06
3.38663e-07
0.001271
-6.69375e-06
3.06998e-07
0.00127262
-8.48342e-06
4.11001e-07
0.00127315
2.38702e-06
-3.00279e-07
0.00127191
9.63538e-06
-9.22325e-09
0.00126988
8.04623e-06
-1.45269e-07
0.00127079
-6.3837e-06
2.30295e-07
0.00127246
-8.65602e-06
1.51215e-07
0.0012731
3.24363e-06
2.96719e-08
0.00127149
9.47873e-06
2.71166e-07
0.00127018
5.18715e-06
-2.58311e-07
0.00127065
-8.11239e-06
6.94265e-07
0.0012727
-9.66854e-06
-7.81166e-07
0.00127331
4.68061e-07
7.439e-08
0.00127138
1.12034e-05
2.37521e-07
0.00127031
4.74288e-06
-2.16732e-07
0.00127084
-7.89317e-06
4.77201e-07
0.00127261
-7.19748e-06
-1.84291e-07
0.00127331
1.01605e-06
-4.01628e-07
0.00127155
1.12085e-05
-5.77072e-07
0.00127007
5.72033e-06
-1.03454e-07
0.00127052
-7.71561e-06
-5.0533e-08
0.00127247
-8.17166e-06
-2.13437e-07
0.00127337
-1.38421e-06
-4.07702e-07
0.00127159
1.08553e-05
1.36487e-07
0.00127009
5.35019e-06
-4.03771e-08
0.00127077
-8.40864e-06
-1.3812e-07
0.0012726
-7.31657e-06
4.38292e-07
0.00127312
3.43012e-07
-3.55829e-07
1.06685e-05
-5.19112e-07
0.00115434
3.28992e-06
-8.2849e-08
0.00115534
-1.1505e-05
1.31857e-06
0.00115713
-8.23079e-06
2.80637e-07
0.00115744
4.08316e-06
3.97028e-07
0.00115556
1.53601e-05
2.01933e-07
0.00115392
2.24091e-06
6.02682e-07
0.00115536
-1.40028e-05
1.09655e-06
0.00115748
-1.18879e-05
5.19213e-07
0.00115769
4.48165e-06
1.13407e-07
0.00115568
1.72102e-05
-9.47245e-07
0.00115409
2.19354e-06
4.63395e-07
0.00115534
-1.11905e-05
4.45021e-07
0.00115714
-1.03568e-05
5.11703e-07
0.00115769
5.19877e-06
-4.25122e-07
0.00115601
1.33716e-05
5.1302e-08
0.00115394
8.57474e-06
-1.95298e-07
0.00115509
-1.06566e-05
3.59371e-07
0.00115702
-1.03267e-05
1.41997e-07
0.0011576
6.31087e-06
3.97317e-08
0.00115555
1.33936e-05
3.15025e-07
0.00115424
4.67374e-06
-2.91188e-07
0.00115491
-1.27254e-05
9.02024e-07
0.00115735
-1.21793e-05
-8.86016e-07
0.00115778
2.81712e-06
1.35538e-07
0.00115553
1.54047e-05
2.18348e-07
0.00115432
4.415e-06
-2.15129e-07
0.00115515
-1.21398e-05
5.54669e-07
0.00115722
-8.93513e-06
-2.04186e-07
0.00115777
3.7876e-06
-5.47368e-07
0.00115567
1.52708e-05
-6.50767e-07
0.00115408
5.57454e-06
-8.56028e-08
0.00115483
-1.2273e-05
-5.66819e-09
0.00115705
-1.02443e-05
-2.15881e-07
0.00115787
7.12087e-07
-4.69441e-07
0.00115572
1.46576e-05
3.03379e-07
0.00115413
5.20261e-06
2.43557e-09
0.0011551
-1.29814e-05
-1.03813e-07
0.00115718
-9.10937e-06
5.55281e-07
0.00115759
2.8022e-06
-4.09508e-07
1.44921e-05
-5.68029e-07
0.00104893
1.65045e-06
-2.17427e-08
0.00105025
-1.77925e-05
1.69726e-06
0.00105225
-9.95202e-06
3.37656e-07
0.00105238
8.3382e-06
4.79696e-07
0.00105005
2.05706e-05
3.16568e-07
0.00104849
1.20803e-07
7.97249e-07
0.00105027
-2.09389e-05
1.33419e-06
0.00105264
-1.41803e-05
6.60113e-07
0.0010527
8.77169e-06
1.14557e-07
0.00105015
2.30877e-05
-9.99266e-07
0.00104866
-7.64745e-08
6.2303e-07
0.00105023
-1.7549e-05
6.39062e-07
0.00105226
-1.24214e-05
6.04765e-07
0.00105269
9.55604e-06
-5.37208e-07
0.00105056
1.83755e-05
1.14685e-07
0.0010485
8.31415e-06
-2.23016e-07
0.00104993
-1.67278e-05
4.99589e-07
0.00105216
-1.21268e-05
8.41048e-08
0.00105256
1.10497e-05
7.45165e-08
0.00105005
1.85122e-05
3.91168e-07
0.0010488
3.16048e-06
-2.7963e-07
0.00104976
-1.93276e-05
1.14667e-06
0.00105254
-1.50673e-05
-9.87675e-07
0.00105272
6.65237e-06
2.12279e-07
0.00105014
2.07632e-05
2.40509e-07
0.00104883
3.31385e-06
-1.57662e-07
0.00105007
-1.83111e-05
6.70813e-07
0.00105239
-1.07349e-05
-2.51224e-07
0.00105271
8.21096e-06
-7.32961e-07
0.00105021
2.05268e-05
-6.69654e-07
0.0010486
4.51385e-06
-7.3338e-09
0.00104972
-1.89208e-05
1.28345e-07
0.00105218
-1.2463e-05
-2.43149e-07
0.00105286
4.27196e-06
-4.93931e-07
0.00105029
1.95785e-05
5.0491e-07
0.00104867
4.1993e-06
5.39125e-08
0.00104999
-1.94821e-05
-4.1692e-08
0.00105234
-1.11106e-05
6.99258e-07
0.00105254
6.71379e-06
-3.80922e-07
1.94257e-05
-5.89355e-07
0.000953151
-1.50757e-06
2.56286e-07
0.000954873
-2.64719e-05
2.15268e-06
0.000957025
-1.17877e-05
3.00469e-07
0.000956804
1.47177e-05
4.91404e-07
0.000954059
2.71063e-05
5.48896e-07
0.00095273
-3.73226e-06
1.20306e-06
0.000954903
-3.03529e-05
1.62803e-06
0.00095749
-1.65593e-05
7.22011e-07
0.000957184
1.52418e-05
6.88874e-08
0.000954138
3.04612e-05
-9.31282e-07
0.000952882
-4.18673e-06
9.79018e-07
0.000954864
-2.64406e-05
9.41939e-07
0.000957058
-1.45936e-05
5.87531e-07
0.00095716
1.61689e-05
-7.01837e-07
0.00095462
2.48303e-05
3.03559e-07
0.000952698
6.72655e-06
-5.84883e-08
0.000954533
-2.52896e-05
7.23011e-07
0.000956962
-1.38719e-05
-6.4773e-08
0.000956983
1.81761e-05
5.22553e-08
0.000954072
2.49628e-05
5.76817e-07
0.00095299
4.0116e-08
-7.01094e-08
0.000954373
-2.86505e-05
1.49789e-06
0.000957394
-1.81449e-05
-1.15007e-06
0.000957163
1.26031e-05
2.24484e-07
0.000954251
2.74799e-05
3.72893e-07
0.000952969
9.03009e-07
7.88022e-08
0.000954736
-2.70345e-05
8.44785e-07
0.000957171
-1.24048e-05
-3.57902e-07
0.00095717
1.4793e-05
-9.51976e-07
0.000954249
2.71721e-05
-5.56026e-07
0.000952761
2.135e-06
1.60309e-07
0.000954338
-2.8314e-05
3.5557e-07
0.000956964
-1.47559e-05
-3.45938e-07
0.000957346
9.85131e-06
-5.37677e-07
0.000954347
2.58057e-05
8.61615e-07
0.000952875
1.72002e-06
3.30815e-07
0.000954616
-2.84767e-05
6.69445e-08
0.000957138
-1.32217e-05
7.58377e-07
0.000956981
1.26063e-05
-3.86761e-07
2.55477e-05
-4.26381e-07
0.00086659
-6.99889e-06
1.03149e-06
0.00086878
-3.8218e-05
2.65056e-06
0.000870687
-1.3435e-05
-1.34574e-07
0.000869815
2.38699e-05
3.38702e-07
0.000866963
3.4774e-05
1.14847e-06
0.000866298
-1.02963e-05
2.18032e-06
0.000868936
-4.29129e-05
2.01425e-06
0.000871323
-1.86832e-05
3.89435e-07
0.000870255
2.47787e-05
-2.09626e-07
0.000867024
3.90721e-05
-3.07226e-07
0.00086646
-1.12504e-05
1.97057e-06
0.000868893
-3.85415e-05
1.36384e-06
0.000870814
-1.64766e-05
1.69478e-07
0.000870265
2.57609e-05
-1.07208e-06
0.00086754
3.27611e-05
8.75916e-07
0.00086616
2.7829e-06
8.23024e-07
0.000868504
-3.72252e-05
1.15111e-06
0.000870696
-1.52147e-05
-6.07549e-07
0.000870042
2.83986e-05
-1.13979e-07
0.000867059
3.26276e-05
1.19654e-06
0.000866528
-5.66538e-06
9.51462e-07
0.00086841
-4.14607e-05
2.09719e-06
0.000871206
-2.11152e-05
-1.58179e-06
0.000870285
2.13108e-05
9.01148e-08
0.000867213
3.55726e-05
8.98984e-07
0.000866397
-3.79914e-06
1.04857e-06
0.000868753
-3.91534e-05
1.27361e-06
0.000870905
-1.35993e-05
-8.04046e-07
0.000870316
2.42323e-05
-1.36264e-06
0.000867104
3.51809e-05
9.0816e-08
0.000866174
-2.62759e-06
1.08827e-06
0.000868276
-4.11747e-05
7.39314e-07
0.000870712
-1.67939e-05
-8.46718e-07
0.000870447
1.81787e-05
-7.66605e-07
0.000867206
3.33388e-05
1.56876e-06
0.00086631
-3.15943e-06
1.27771e-06
0.000868595
-4.08421e-05
4.3439e-07
0.00087095
-1.5321e-05
5.63511e-07
0.000870113
2.11708e-05
-5.03674e-07
3.28965e-05
1.36051e-07
0.000789904
-1.64166e-05
3.70168e-06
0.000792233
-5.30871e-05
3.36444e-06
0.00079271
-1.41526e-05
-1.88558e-06
0.000790706
3.58953e-05
-4.83949e-07
0.000788795
4.20784e-05
3.0015e-06
0.000789919
-2.13733e-05
5.29841e-06
0.000792767
-5.88052e-05
2.78247e-06
0.000793709
-1.95099e-05
-1.35889e-06
0.000791225
3.77554e-05
-1.11887e-06
0.000788849
4.75574e-05
1.3536e-06
0.000790152
-2.31166e-05
5.05932e-06
0.000792738
-5.40497e-05
2.13395e-06
0.000793021
-1.68931e-05
-1.46003e-06
0.000791273
3.88362e-05
-2.14849e-06
0.000789343
4.08641e-05
2.75956e-06
0.000789691
-5.6214e-06
3.86358e-06
0.000792362
-5.30335e-05
2.32138e-06
0.000792844
-1.48477e-05
-2.37356e-06
0.000791088
4.21759e-05
-1.03061e-06
0.000789182
3.99636e-05
3.24811e-06
0.000790319
-1.57733e-05
4.2652e-06
0.000792404
-5.79095e-05
3.45921e-06
0.000793605
-2.2659e-05
-3.0957e-06
0.00079146
3.30718e-05
-7.27436e-07
0.000789027
4.37125e-05
2.68465e-06
0.000789788
-1.25852e-05
4.19232e-06
0.000792451
-5.48477e-05
2.32974e-06
0.000793164
-1.34373e-05
-2.16248e-06
0.00079153
3.66804e-05
-2.37358e-06
0.000788779
4.3439e-05
1.97534e-06
0.000789443
-1.13898e-05
4.08442e-06
0.000791945
-5.78347e-05
1.55109e-06
0.00079297
-1.78157e-05
-2.49512e-06
0.000791435
2.94381e-05
-1.70627e-06
0.000788805
4.08379e-05
3.52577e-06
0.000789676
-1.22668e-05
4.30359e-06
0.000792438
-5.69928e-05
1.42915e-06
0.000793477
-1.68661e-05
-7.4241e-07
0.000791313
3.26549e-05
-1.0796e-06
4.03197e-05
1.99665e-06
0.000723801
-3.08166e-05
1.05656e-05
0.00072503
-6.85241e-05
4.46781e-06
0.000722367
-1.27284e-05
-6.38393e-06
0.000719301
4.81842e-05
-2.8627e-06
0.000720079
4.49942e-05
7.48142e-06
0.000724077
-3.76259e-05
1.2811e-05
0.000725952
-7.52055e-05
4.0207e-06
0.000723763
-1.78482e-05
-5.9382e-06
0.000719911
5.12047e-05
-3.19789e-06
0.00072013
5.19798e-05
5.90634e-06
0.000724255
-3.99904e-05
1.2198e-05
0.000725867
-6.99229e-05
3.06567e-06
0.000722722
-1.45099e-05
-5.72639e-06
0.000719769
5.27043e-05
-4.66816e-06
0.000720588
4.50499e-05
7.44946e-06
0.000723937
-1.99148e-05
1.12695e-05
0.000725847
-7.00756e-05
4.39022e-06
0.00072263
-1.15451e-05
-6.66506e-06
0.000720036
5.64104e-05
-3.04797e-06
0.0007212
4.28762e-05
8.47831e-06
0.000724935
-3.03522e-05
1.18401e-05
0.000726051
-7.46707e-05
5.45676e-06
0.00072389
-2.1309e-05
-7.19703e-06
0.000720493
4.51043e-05