/*--------------------------------*- C++ -*----------------------------------*\
  =========                 |
  \\      /  F ield         | OpenFOAM: The Open Source CFD Toolbox
   \\    /   O peration     | Website:  https://openfoam.org
    \\  /    A nd           | Version:  10
     \\/     M anipulation  |
\*---------------------------------------------------------------------------*/
FoamFile
{
    format      ascii;
    class       surfaceScalarField;
    location    "7";
    object      phi_0;
}
// * * * * * * * * * * * * * * * * * * * * * * * * * * * * * * * * * * * * * //

dimensions      [0 3 -1 0 0 0 0];

internalField   nonuniform List<scalar> 
74080
(
0.00542444
0.000179752
-0.000237894
0.00547091
0.000196705
-0.000198472
0.00543479
0.000161531
-7.68874e-05
0.00532668
5.22988e-05
0.000111372
0.00519097
-8.73504e-05
0.000281662
0.00509338
-0.000203414
0.000345386
0.00507037
-0.000256716
0.000293639
0.00509103
-0.000198583
0.000168656
0.00511508
-9.74864e-05
1.8665e-05
0.00512104
-2.66976e-05
-0.000121139
0.0051244
-1.38928e-05
-0.000214771
0.00513767
-5.41175e-05
-0.000248277
0.00516381
-8.53624e-05
-0.000246054
0.00519511
-7.95552e-05
-0.000224544
0.00523175
-3.73044e-05
-0.000154871
0.00528001
4.93e-05
-5.49874e-05
0.00532279
0.000138715
8.71044e-05
0.00535342
0.000185749
0.000231636
0.00534803
0.0001574
0.000295518
0.00529231
5.80259e-05
0.000270769
0.00520843
-4.6528e-05
0.000154146
0.00513104
-0.000102603
-1.67922e-05
0.00508041
-5.74588e-05
-0.000173669
0.00506427
5.90613e-05
-0.000279707
0.00508896
0.000153597
-0.000315952
0.00514305
0.000168945
-0.000253397
0.00520958
0.00012653
-0.000131512
0.00525806
7.96777e-05
-3.11974e-05
0.00526516
6.45382e-05
-6.03376e-06
0.00524787
8.60697e-05
-8.09836e-05
0.00523881
6.81039e-05
-0.000165298
0.00526066
6.7267e-06
-0.000160331
0.00529984
-1.41303e-05
-8.20784e-05
0.00531722
4.14456e-06
-4.9259e-06
0.0052811
4.13707e-05
-4.86365e-06
0.00521896
5.84738e-05
-7.86075e-05
0.00517681
2.6965e-05
-0.000156894
0.00517719
1.56328e-05
-0.000198333
0.00524041
5.6053e-05
-0.000221541
0.000122829
-0.000235413
0.00502865
9.54991e-05
-1.31111e-05
0.00508394
8.60575e-05
0.000104818
0.00505344
0.00010167
0.000315473
0.00490125
0.000100606
0.000441565
0.00467618
5.48869e-05
0.000351893
0.00448973
-5.95249e-05
0.00010155
0.00440539
-0.000185492
-0.000144491
0.00443255
-0.00022698
-0.000270515
0.00452215
-0.00019202
-0.000275496
0.00459586
-0.000127589
-0.000209853
0.00461459
-9.29486e-05
-0.000130371
0.00457233
-0.000105534
-8.17139e-05
0.00451235
-0.000130014
-8.31682e-05
0.00448101
-0.000116904
-0.000132567
0.00450364
-3.01154e-05
-0.000183998
0.00459735
0.000116176
-0.000179539
0.00473628
0.000270025
-9.56204e-05
0.00487933
0.000336677
4.93605e-05
0.00495756
0.000294197
0.000173833
0.00493074
0.000187546
0.000224378
0.00484338
7.53814e-05
0.000153051
0.0047532
4.28922e-06
-4.15989e-05
0.0047025
4.65519e-06
-0.000252348
0.00470485
4.84806e-05
-0.000347337
0.00474389
7.46926e-05
-0.000297497
0.00478084
6.02779e-05
-0.00012705
0.00478918
4.36601e-05
3.72871e-05
0.00476871
6.04716e-05
7.45115e-05
0.00474799
8.71445e-05
1.95217e-05
0.00477094
8.99401e-05
-6.21096e-05
0.00482951
3.46111e-05
-7.53496e-05
0.00486683
-3.48453e-05
-3.08747e-06
0.00485951
-3.5402e-05
5.68315e-05
0.00481338
1.66522e-05
6.86108e-05
0.00477193
5.59822e-05
5.16207e-05
0.00478462
3.31237e-05
3.32172e-05
0.00483211
-2.0591e-05
3.06275e-05
0.00487728
-1.94944e-05
3.42601e-05
0.00491968
3.13545e-05
7.85221e-06
8.53375e-05
-2.86462e-05
0.00454139
-1.37826e-06
0.000250528
0.00456864
-3.64216e-05
0.000469435
0.00462594
1.8749e-05
0.000530433
0.00463521
0.000115592
0.000407626
0.00452537
0.000150225
0.000199435
0.00431444
5.94382e-05
-2.55336e-05
0.00408697
-7.96871e-05
-0.000247786
0.00393879
-0.000173854
-0.000411129
0.00389619
-0.000199692
-0.000457891
0.00391874
-0.000179213
-0.000367098
0.00395546
-0.000154004
-0.000202705
0.00396354
-0.000137894
-7.54686e-05
0.00395102
-0.000126048
-4.44053e-05
0.00397428
-8.61092e-05
-0.000122439
0.00408602
8.40935e-06
-0.000217287
0.00428476
0.000131279
-0.000205432
0.00450437
0.00023763
-5.10082e-05
0.00463229
0.000276659
0.000174685
0.00461013
0.000261233
0.000296703
0.00449714
0.000210545
0.000230066
0.00438497
0.000130758
3.30708e-05
0.00432032
4.60068e-05
-0.000184091
0.00430255
-1.42495e-05
-0.000271669
0.00430801
-4.97995e-05
-0.000156005
0.00432274
-7.75581e-05
4.91772e-05
0.00432577
-9.59591e-05
0.00021144
0.00430418
-7.34822e-05
0.00024405
0.00425699
-1.28145e-05
0.000180604
0.00421305
3.51451e-05
0.000117498
0.00423206
4.07477e-05
7.38862e-05
0.00431142
-1.19736e-05
5.45676e-05
0.00440822
-7.75976e-05
5.19422e-05
0.00447542
-5.20222e-05
6.9577e-05
0.00445522
5.77692e-05
0.000151469
0.00438002
0.000135312
0.00021234
0.00433782
0.000102438
0.000154122
0.00435434
2.83031e-05
1.73738e-06
0.00442257
-2.38057e-06
-0.00013343
0.00450023
1.51002e-05
-0.000130258
3.42502e-05
1.7047e-05
0.00399365
3.44252e-05
0.000354328
0.0040041
-4.86703e-05
0.000359281
0.00409723
-5.81556e-05
0.000342843
0.00414188
6.89183e-06
0.000379343
0.00407256
3.73632e-05
0.000356578
0.00392549
-1.73714e-05
0.000106841
0.00375047
-6.8101e-05
-0.00031699
0.0036018
-8.82567e-05
-0.000625875
0.00351012
-9.18646e-05
-0.000685786
0.00348862
-9.11489e-05
-0.000554551
0.00353153
-0.00011134
-0.000332196
0.00361008
-0.0001461
-0.000124503
0.00371088
-0.000183151
4.39327e-05
0.00384433
-0.000183456
0.000148562
0.00399506
-9.63659e-05
0.000184578
0.0041047
7.64585e-05
0.000174045
0.00412244
0.00023674
0.000152534
0.00405139
0.000291544
0.000131228
0.00395963
0.00025601
5.06313e-05
0.00390553
0.000182666
-4.38607e-05
0.00387133
0.000105385
-7.88044e-05
0.0038257
3.22281e-05
-5.71895e-05
0.00376706
-2.97444e-05
1.85019e-05
0.0037193
-8.03686e-05
9.2324e-05
0.0037038
-0.000122608
8.55125e-05
0.00370843
-0.00015178
8.80026e-05
0.00371508
-0.000143343
0.000154415
0.00372534
-8.70792e-05
0.000175462
0.00375973
-1.53444e-05
9.03706e-05
0.00381911
3.60708e-05
-8.04772e-05
0.00387922
1.87262e-05
-0.000209556
0.00392336
-3.16781e-05
-0.0001462
0.00394262
-1.26172e-07
5.75938e-05
0.00393052
0.000133545
0.000220763
0.00391433
0.000209405
0.000212849
0.00392559
0.000134823
8.903e-05
0.00398897
1.83381e-05
-4.75856e-05
0.00408819
-2.79917e-05
-7.7957e-05
0.0041291
1.75612e-05
7.14827e-05
7.5071e-05
0.000254691
0.00351056
2.75155e-05
0.000296886
0.00356477
-5.12305e-05
0.000245748
0.00364459
-7.59045e-05
0.000220078
0.00363158
-2.28701e-05
0.000200536
0.0035284
-6.68226e-06
3.54085e-05
0.00341873
-3.83572e-05
-0.000297414
0.00333989
-4.87194e-05
-0.000546471
0.00327444
-6.19339e-05
-0.000506693
0.00320673
-6.1503e-05
-0.000290066
0.00315266
-4.92783e-05
-8.15173e-05
0.00313154
-6.96659e-05
9.97191e-06
0.00315657
-0.000123006
-4.63502e-05
0.00323754
-0.000182942
-0.000166796
0.00336879
-0.000191716
-0.000247256
0.00350799
-9.3309e-05
-0.000255372
0.00359765
9.90097e-05
-0.000224316
0.00361342
0.000241169
-0.000116285
0.003572
0.000237707
9.15115e-05
0.00354345
0.000149794
0.0002574
0.0035706
6.88512e-05
0.000282237
0.00360802
2.18999e-05
0.000211505
0.00359092
-1.17903e-05
0.000146506
0.00351432
-3.90704e-05
0.000122486
0.00343853
-5.74783e-05
3.4885e-05
0.00341461
-5.79565e-05
-0.000177121
0.00342529
-6.53695e-05
-0.000315244
0.00341951
-7.35784e-05
-0.000265145
0.00338131
-4.55583e-05
-0.000124845
0.00333777
5.98435e-06
1.64257e-05
0.00333153
4.78402e-05
6.40723e-05
0.00338087
3.71596e-05
4.74162e-05
0.00344961
7.59791e-06
7.70441e-05
0.00349165
4.24492e-05
0.000150998
0.00349471
0.00014479
0.000189286
0.00347631
0.00018661
0.000150165
0.00347944
0.000100585
5.71264e-05
0.00353872
-7.6195e-06
-3.32514e-05
0.00361157
-4.92093e-05
1.99127e-06
0.00361243
-8.3877e-06
0.00017348
5.10992e-05
0.000294217
0.00341482
4.91094e-05
9.10254e-05
0.0033078
4.38103e-05
8.80793e-05
0.0031589
3.52727e-05
3.83471e-05
0.00304949
2.40395e-05
-6.93327e-05
0.00303625
-7.48861e-05
-0.000234525
0.00307717
-0.000177889
-0.000373803
0.00309049
-0.000180295
-0.000372322
0.00305771
-0.000121552
-0.000259105
0.00300759
-3.67629e-05
-0.000100658
0.00296618
9.1103e-07
6.34818e-05
0.00293715
-3.24958e-05
0.000153339
0.0029223
-0.00011029
9.54281e-05
0.00293326
-0.000184252
-0.000100828
0.00298375
-0.000184529
-0.000350066
0.00305981
-8.92621e-05
-0.000513166
0.00312535
4.84689e-05
-0.000447244
0.00314143
0.000127137
-0.00012703
0.00312518
0.000106603
0.000211345
0.00314387
3.18288e-05
0.000316053
0.00320864
-4.52082e-05
0.000241381
0.00325599
-0.000105812
0.000185621
0.00323908
-0.000117621
0.000219197
0.00318119
-7.17909e-05
0.000212507
0.00314041
-7.67739e-06
1.18027e-05
0.0031378
4.31257e-05
-0.000274711
0.0031381
4.42128e-05
-0.000394244
0.00310536
7.48304e-06
-0.000328939
0.00306063
-1.82829e-05
-0.000187161
0.00305238
-1.40545e-05
-6.44862e-05
0.00311171
-7.53894e-07
-3.75944e-05
0.00321442
-6.762e-07
-4.4788e-05
0.00327557
2.67041e-05
2.54353e-06
0.0032488
6.95323e-05
8.46421e-05
0.0031768
0.000104855
0.000130685
0.00310548
0.000118706
9.79655e-05
0.0030511
0.000100344
2.68139e-05
0.00304808
6.84363e-05
-1.03765e-05
0.00312497
1.80668e-05
2.74232e-05
0.00326672
-8.17131e-06
8.12051e-05
1.89938e-05
9.1393e-05
0.00272957
9.70024e-05
-9.13608e-05
0.00268025
0.000102285
3.86145e-05
0.00266352
4.06701e-05
0.000111733
0.00269353
-4.73464e-05
3.84877e-05
0.00276703
-0.000171349
-0.000172218
0.00283859
-0.000257016
-0.000343149
0.00287372
-0.000229179
-0.000353734
0.00288167
-0.000125124
-0.000268267
0.00285758
-1.09702e-05
-8.34831e-05
0.00280791
2.34111e-05
0.000160329
0.00277575
-3.90351e-05
0.000286076
0.00277455
-0.000137568
0.00020245
0.00278823
-0.000213737
-2.17252e-06
0.00278543
-0.000212893
-0.000172025
0.00274379
-0.000125675
-0.000211384
0.00269321
3.5001e-06
-7.80916e-05
0.00269391
8.29261e-05
0.000134331
0.00276723
8.24725e-05
0.00016098
0.00285652
2.64068e-05
4.5867e-05
0.00288412
-6.85847e-05
2.65661e-05
0.00284407
-0.00013708
8.70164e-05
0.00279736
-0.000109779
0.000119208
0.00279618
-7.89231e-06
6.66985e-05
0.00284241
8.22885e-05
-6.28533e-05
0.00287694
0.000114044
-0.000137033
0.00284437
7.50011e-05
-0.000120888
0.00277215
4.71984e-06
-0.000128501
0.00273306
-3.47859e-05
-0.000147514
0.00275916
-2.71991e-05
-0.000148364
0.00283617
-1.30972e-05
-0.000169045
0.0029057
4.05908e-06
-0.000137078
0.0029134
3.48386e-05
-1.26876e-05
0.00289616
2.37689e-05
7.97381e-05
0.0029302
-8.62521e-06
6.83796e-05
0.00300692
1.18029e-05
-8.61741e-06
0.00303654
9.20355e-05
-5.52912e-05
0.00297548
0.000138674
-1.17162e-05
0.00287791
7.72063e-05
2.80488e-05
0.00281333
6.81753e-06
-2.61783e-05
3.13007e-05
-0.000115981
0.00261883
0.000160089
-0.000185522
0.00253394
0.000143998
-5.28903e-06
0.00247942
5.35413e-05
7.90435e-05
0.00245006
-1.61255e-05
-2.4177e-05
0.00246066
-0.000104884
-0.000223557
0.00251144
-0.000204553
-0.000318179
0.00258781
-0.000233189
-0.00026239
0.00266839
-0.000159714
-0.000139057
0.00270976
-4.62314e-05
7.68523e-05
0.00270599
-1.54497e-05
0.000271345
0.00269073
-5.89967e-05
0.000255674
0.00265973
-0.000117323
0.000115048
0.00261627
-0.000160883
-1.19177e-05
0.00256849
-0.000167538
-6.45983e-05
0.00251528
-0.000114437
-6.70175e-05
0.00248273
-1.65879e-05
-3.14615e-05
0.00248804
5.54195e-05
-8.9993e-06
0.00251532
7.16889e-05
-6.46653e-05
0.00253001
4.03263e-05
-3.06592e-05
0.0025202
-3.82916e-05
0.000130916
0.00251662
-6.48702e-05
0.000183231
0.00253147
2.136e-05
8.76154e-05
0.00255506
0.000141417
-2.05446e-05
0.00259219
0.000206946
-8.94083e-05
0.00262978
0.000166107
-7.04166e-05
0.00263697
5.74935e-05
-4.86849e-05
0.0026071
-1.66366e-05
-0.000114244
0.00255143
-4.07981e-06
-0.000134796
0.00251793
2.70956e-05
-8.03283e-05
0.00254751
3.65511e-05
-5.4811e-05
0.00260027
4.19781e-05
7.573e-06
0.00262021
3.72699e-05
0.000102417
0.00261991
-1.16324e-05
7.9717e-05
0.00264273
-5.76555e-05
-3.0566e-05
0.00270011
-1.30315e-05
-0.000106207
0.00277194
9.25917e-05
-9.99275e-05
0.0028249
0.000106071
5.93716e-06
0.00283921
8.28456e-06
7.65439e-05
0.0028086
-4.85344e-05
-2.84862e-05
4.76881e-05
-0.000201886
0.00238123
9.67718e-05
-3.21542e-05
0.00234274
0.000111311
4.40224e-05
0.00228747
0.000101413
-6.04834e-05
0.00224287
9.50898e-05
-0.00020942
0.00223768
1.33701e-05
-0.000272668
0.00227075
-0.000149738
-0.000221909
0.00232093
-0.00025278
-0.000121061
0.00236063
-0.000192035
6.91382e-06
0.00236646
-6.51079e-05
0.00015608
0.0023432
-2.60142e-05
0.000211238
0.0023166
-5.02693e-05
0.000146033
0.00229862
-6.70803e-05
5.28457e-05
0.00229242
-6.32138e-05
-2.29513e-05
0.00227123
-7.2003e-05
-4.47572e-05
0.00222333
-9.33616e-05
-3.30724e-05
0.00219202
-9.25994e-05
-4.65522e-06
0.00219749
-8.06001e-05
9.36014e-06
0.00221685
-5.97634e-05
-1.21445e-05
0.00222979
-4.71563e-05
2.99383e-05
0.00223969
-6.03513e-05
0.00012398
0.00227263
-4.64847e-06
0.000162318
0.00231455
0.000138985
0.000136668
0.00233827
0.000267431
7.04645e-05
0.00236143
0.00028177
4.6931e-06
0.00238151
0.000158121
-1.23101e-06
0.00237229
2.43943e-05
-1.20867e-05
0.00233427
-1.17394e-05
9.82906e-06
0.00228879
3.43362e-05
0.00011111
0.002295
7.33886e-05
0.000137378
0.00235944
6.82786e-05
9.2617e-05
0.00240026
7.94765e-05
0.000100263
0.00237439
0.0001079
0.000123117
0.00232715
7.38306e-05
9.11763e-05
0.00232151
3.17059e-06
-1.59297e-06
0.00239236
7.84395e-06
-0.000156217
0.00251289
5.90869e-05
-0.000238567
0.00258147
5.7257e-05
-0.000194142
0.00254741
2.82505e-06
-0.00017137
0.00247153
-3.19811e-05
-0.000196079
1.68796e-05
-0.000162485
0.00203569
1.00051e-06
2.7096e-05
0.00202325
5.18029e-05
-1.57004e-05
0.00202493
9.72276e-05
-0.000144295
0.00202413
0.000146655
-0.000220267
0.00201426
9.93431e-05
-0.000206228
0.00200804
-7.11949e-05
-0.000151238
0.00201197
-0.000215207
-8.41963e-05
0.0020193
-0.000181407
2.80279e-05
0.00202034
-8.24885e-05
0.00015259
0.00201243
-5.06383e-05
0.000171625
0.00201005
-4.74891e-05
9.59367e-05
0.00202984
-2.25711e-05
1.16512e-05
0.00207183
1.89599e-05
-4.65637e-05
0.00209191
1.70024e-05
-7.34296e-05
0.00205887
-4.68768e-05
-7.24152e-05
0.00201736
-0.000119022
-3.35917e-05
0.0019966
-0.000181071
3.06975e-05
0.00199105
-0.000199759
8.83674e-05
0.00200261
-0.000167531
0.000146147
0.00202667
-0.00010741
0.000206692
0.00206284
3.53766e-05
0.000223406
0.00209812
0.000228439
0.0001646
0.00212767
0.000349466
5.52696e-05
0.0021439
0.0003189
-1.38555e-05
0.00210554
0.000161941
1.54914e-05
0.0020289
1.68765e-05
9.59535e-05
0.00198482
-4.53263e-05
0.000221731
0.00200841
-1.51386e-05
0.000301414
0.00207212
6.17292e-05
0.000240317
0.00212464
9.87607e-05
0.000164026
0.00214534
0.000104238
0.000183762
0.00213677
0.000127095
0.000217917
0.00210183
0.000133387
0.000122411
0.00209162
8.49842e-05
-0.000107568
0.00216012
3.09241e-05
-0.000272873
0.00224934
3.1479e-06
-0.000232656
0.00225504
1.30189e-05
-0.000136098
0.00218642
6.68978e-06
-0.000132891
0.00211821
-5.78386e-05
-0.000130475
-6.16617e-05
-5.53379e-05
0.0017849
-8.93744e-05
3.42507e-05
0.00182685
-3.84611e-05
1.84044e-05
0.00186277
2.21235e-05
-4.34744e-05
0.00186241
0.000106307
-6.49691e-05
0.00184668
8.71981e-05
-3.24729e-05
0.00185107
-7.353e-05
-8.51578e-06
0.00186158
-0.000193041
2.74214e-06
0.00185598
-0.000159111
8.40217e-05
0.00183726
-8.79383e-05
0.000145215
0.00181881
-7.00453e-05
9.81057e-05
0.00182265
-4.99506e-05
3.49911e-05
0.00185151
8.88368e-06
3.43263e-05
0.00189323
8.49195e-05
4.98586e-05
0.00190965
8.78855e-05
1.34836e-05
0.00187336
7.99547e-06
-4.09879e-05
0.0018269
-9.85154e-05
-4.49131e-05
0.00180647
-0.000213653
-8.60164e-06
0.00180954
-0.000255536
5.61302e-05
0.00182729
-0.00020022
0.00015461
0.00184341
-0.000106631
0.000239729
0.00186983
5.54335e-05
0.000231687
0.00192193
0.000260297
0.000129758
0.00196653
0.000398758
3.36712e-05
0.00194311
0.000376101
2.58806e-05
0.00184034
0.000186559
8.20646e-05
0.00174303
-3.66256e-05
0.000153902
0.00173198
-0.0001799
0.000265924
0.00178783
-0.00012842
0.000304477
0.00184209
4.97175e-05
0.000204362
0.00185815
0.000133396
0.000145711
0.00187192
5.70768e-05
0.000220249
0.00190339
2.49162e-05
0.000255948
0.00193903
9.17479e-05
7.6304e-05
0.00198958
9.17614e-05
-0.000177332
0.00203221
2.64161e-05
-0.000237977
0.00200536
-5.22333e-06
-0.000144996
0.00190747
2.86433e-05
-9.4019e-05
0.0018157
1.53958e-05
-0.000125707
0.00177454
-9.64082e-05
-0.00012607
-0.000143593
-4.08717e-05
0.00159889
-0.000174211
7.89495e-05
0.00164016
-0.000125369
6.70618e-05
0.00168152
-4.94088e-05
-1.11369e-05
0.00169864
5.59515e-05
-2.21016e-05
0.00169523
5.79894e-05
4.97351e-05
0.00169288
-6.23396e-05
7.60775e-05
0.00169558
-0.000143459
3.3059e-05
0.00169119
-0.00010949
4.20908e-05
0.00167059
-7.27148e-05
7.26612e-05
0.0016464
-6.98291e-05
5.36858e-05
0.00165287
-3.40225e-05
2.39679e-05
0.0016927
5.01801e-05
4.65329e-05
0.00173624
0.000148262
7.32032e-05
0.00174337
0.000153554
3.26902e-05
0.00170139
6.36554e-05
1.01444e-05
0.00164921
-5.44705e-05
3.6531e-05
0.00162219
-0.000187247
2.90904e-05
0.00162507
-0.00022798
1.22975e-05
0.00164513
-0.000165033
5.19795e-05
0.00166731
-9.49633e-05
0.000109732
0.00170975
4.52582e-05
0.000111619
0.00177193
0.000263925
6.80984e-05
0.00178912
0.00044457
5.86844e-05
0.00172707
0.000426563
0.00010258
0.00163294
0.000189946
0.000123775
0.00157438
-8.72632e-05
0.000118338
0.00156688
-0.000266336
0.000178751
0.00159055
-0.000189492
0.000208082
0.00162842
5.29199e-05
0.000148712
0.00166544
0.000142487
0.000150616
0.00169827
7.18775e-06
0.000199617
0.0017202
-2.40468e-05
0.000123254
0.00174649
8.39501e-05
-0.00010862
0.00179013
7.15255e-05
-0.000256258
0.00178916
-2.94381e-06
-0.000198912
0.00171031
8.22774e-06
-0.00013438
0.00161049
8.87229e-05
-0.000167078
0.0015511
6.83875e-05
-0.000194068
0.0015452
-0.000108926
-0.000141858
-0.00020603
-2.41997e-05
0.00146135
-0.000229965
7.86872e-05
0.00146555
-0.000171001
5.08415e-05
0.00149695
-9.09353e-05
-3.73034e-05
0.00153051
1.9811e-05
-7.50893e-06
0.00154161
5.75901e-05
9.60047e-05
0.00153858
-1.12325e-05
8.28557e-05
0.0015324
-6.76572e-05
-6.37088e-06
0.00151889
-6.29873e-05
1.03906e-05
0.00149373
-6.62439e-05
7.76243e-05
0.00147153
-6.19811e-05
6.91999e-05
0.00148466
-8.0831e-06
1.14984e-05
0.00153194
9.61412e-05
2.71871e-06
0.00157529
0.000212815
3.12672e-05
0.00159052
0.000208585
1.64639e-05
0.001579
0.000108588
1.37135e-05
0.00153737
6.5899e-06
5.4999e-05
0.00147909
-0.000120325
4.76023e-05
0.00143637
-0.000180984
5.99925e-06
0.00143243
-0.000156227
2.25651e-06
0.00147309
-0.000124254
1.06102e-06
0.00154784
1.61332e-05
-2.88221e-05
0.00161915
0.000259872
-2.3823e-05
0.00162463
0.000473267
4.41458e-05
0.00155705
0.000460533
0.000118943
0.00146438
0.000227954
0.000106833
0.00139929
-4.28798e-05
5.93193e-05
0.00138119
-0.000260036
0.000103295
0.00141393
-0.000223478
0.000143936
0.00148546
2.87997e-05
0.000134562
0.00153087
0.000157529
0.000156681
0.00151605
3.56841e-05
0.000140434
0.00148571
-1.21084e-05
-5.15511e-06
0.00150606
5.84692e-05
-0.000208389
0.00156245
-9.25147e-07
-0.000265734
0.00156354
-6.27729e-05
-0.000181678
0.0014887
1.00752e-05
-0.000153208
0.00141685
0.000137558
-0.000204504
0.00140091
0.00010507
-0.000205361
0.00142731
-0.000131665
-0.000137324
-0.000262249
-2.40626e-05
0.00136406
-0.000241479
8.10326e-05
0.0013315
-0.000183254
3.98371e-05
0.00133627
-0.00013403
-2.09654e-05
0.00136016
-9.24716e-06
2.92295e-05
0.00137918
8.37257e-05
0.000112068
0.00139717
4.433e-05
6.71417e-05
0.00139776
-2.77601e-05
-1.66589e-05
0.00137247
-6.00522e-05
1.36264e-05
0.00134087
-8.31404e-05
7.86175e-05
0.00131914
-4.95959e-05
6.64003e-05
0.0013232
3.2306e-05
1.93486e-06
0.00136335
0.000138718
-2.63066e-05
0.00142041
0.000240607
1.38109e-05
0.00146055
0.000211286
2.85373e-05
0.00145964
0.000128428
1.34939e-05
0.00141702
6.3314e-05
4.53186e-05
0.00135896
-5.71213e-05
5.69446e-05
0.00131377
-0.000144538
1.38583e-05
0.0013025
-0.000154195
-7.24505e-06
0.00133762
-0.000144571
-4.39415e-05
0.00141584
-1.35973e-05
-9.65251e-05
0.00148947
0.000238175
-7.18156e-05
0.0014939
0.00047467
2.98612e-05
0.00142667
0.000468098
0.000123484
0.0013279
0.000256438
0.000113977
0.00125767
1.81357e-05
5.45628e-05
0.00124925
-0.000215354
7.90606e-05
0.00130954
-0.000233777
0.000107922
0.00139881
7.5918e-06
0.000109344
0.00141956
0.000195864
0.000135072
0.00135759
0.000114933
0.000104839
0.00130849
3.54871e-05
-5.30154e-05
0.00135586
3.26317e-05
-0.000239138
0.00144233
-8.7227e-05
-0.000248606
0.00143417
-0.000105063
-0.000155056
0.00133537
5.03456e-05
-0.000156165
0.00127812
0.000195651
-0.000219562
0.00130424
0.000126747
-0.00018804
0.00135686
-0.000161445
-7.68636e-05
-0.000299137
2.06087e-05
0.00125066
-0.000242576
0.000101669
0.00122121
-0.000200671
5.68672e-05
0.00120295
-0.000163959
2.60121e-05
0.0011919
2.76666e-06
6.52874e-05
0.00120385
0.000130566
0.000106946
0.00125651
6.59189e-05
5.15472e-05
0.00129594
-5.96302e-05
-2.19762e-05
0.0012838
-0.000104671
-1.75216e-05
0.0012472
-0.000105499
3.24947e-05
0.00120174
-2.46919e-05
5.56664e-05
0.00117279
8.11128e-05
1.92468e-05
0.0012132
0.000153555
-2.7395e-05
0.00130217
0.000216577
1.24779e-05
0.00133664
0.000193435
4.37167e-05
0.00128983
0.000151934
2.09103e-06
0.00123631
9.6077e-05
2.12345e-05
0.00120785
-3.85897e-05
6.80718e-05
0.0011963
-0.000119851
3.7082e-05
0.00120203
-0.000131227
1.18823e-05
0.00123424
-0.00013039
-3.70557e-05
0.00129434
-3.48613e-05
-9.57215e-05
0.00133861
0.000222843
-7.00485e-05
0.00133777
0.000473567
1.7091e-05
0.00130516
0.000416878
0.000124219
0.00123697
0.000195301
0.000144597
0.00117385
2.13659e-05
7.15142e-05
0.00116458
-0.000169788
6.25356e-05
0.00122155
-0.000207677
7.49238e-05
0.00130004
9.782e-06
7.0136e-05
0.00131252
0.000226316
8.47533e-05
0.00125341
0.000187816
5.59877e-05
0.00120954
0.000119373
-7.73105e-05
0.00125576
5.55526e-05
-0.000220087
0.00132959
-0.000136906
-0.000205452
0.00130509
-0.000115232
-0.00012573
0.00121188
9.90673e-05
-0.000141126
0.00119284
0.000216616
-0.000198585
0.00123582
0.000110307
-0.000131496
0.00125761
-0.000188595
2.31487e-05
-0.000314226
9.68386e-05
0.00108421
-0.000239213
6.58064e-05
0.00103272
-0.000213396
3.08911e-05
0.00101505
-0.00017153
4.46087e-05
0.00102569
7.15473e-06
7.68589e-05
0.00104686
0.000154201
8.94472e-05
0.00109073
8.12052e-05
4.41381e-05
0.0011406
-0.000112633
-8.05701e-06
0.00116491
-0.000191271
-2.08746e-05
0.0011532
-0.000149578
-5.65795e-07
0.00110116
-1.75544e-05
3.55998e-05
0.00106019
9.05857e-05
1.80261e-05
0.00110855
0.00011275
-2.289e-05
0.00119436
0.000164748
2.4708e-05
0.00119131
0.000192937
4.68092e-05
0.00111972
0.000187592
-2.43979e-05
0.00108068
9.88496e-05
2.08482e-06
0.00107618
-7.79842e-05
8.99246e-05
0.00108242
-0.000146077
8.3412e-05
0.00110445
-0.000107999
4.5874e-05
0.00114993
-8.98637e-05
-2.15934e-05
0.00119737
-8.66917e-06
-7.68212e-05
0.00120399
0.00027008
-5.37116e-05
0.00119052
0.00050332
1.81701e-05
0.00117832
0.000342343
0.000125816
0.00113473
9.5612e-05
0.000157103
0.00108243
9.25071e-06
8.11229e-05
0.00107465
-0.000121627
4.65494e-05
0.00112464
-0.000166775
3.34686e-05
0.00119247
2.85753e-05
1.62069e-05
0.00120974
0.000245432
1.31645e-05
0.00116845
0.000232367
-1.57675e-05
0.00116248
0.00017324
-9.6493e-05
0.0012118
6.98704e-05
-0.000158211
0.0011987
-0.000129451
-0.000114482
0.00109676
-5.61283e-05
-8.33679e-05
0.00103716
0.000122892
-0.000135346
0.00110208
0.000135074
-0.000166931
0.00116744
2.70528e-05
-5.81542e-05
0.00115095
-0.000183204
0.000106725
-0.000289146
0.00012781
0.000960256
-0.000248811
4.02504e-05
0.000883475
-0.000223211
3.2602e-05
0.000872008
-0.000184107
7.47871e-05
0.000918888
-1.73979e-05
8.24428e-05
0.00094738
0.000162811
7.22751e-05
0.000940931
0.000112257
4.47112e-05
0.000934435
-0.000126908
9.5707e-06
0.000956287
-0.000252139
-1.24301e-05
0.000985656
-0.000194539
-1.31001e-05
0.000975631
-3.41181e-05
5.90636e-06
0.000967937
6.21208e-05
-6.33842e-06
0.00103178
5.58082e-05
-1.58824e-05
0.00108842
0.000135753
4.86812e-05
0.00105399
0.000213416
3.74699e-05
0.000998566
0.000222592
-5.86439e-05
0.000973136
0.000110785
-1.20703e-05
0.000965652
-0.000122092
9.83778e-05
0.000979275
-0.000208842
0.000116162
0.00101249
-0.000104088
7.56411e-05
0.00106516
-4.26659e-05
-8.91084e-06
0.00109793
3.95275e-05
-6.37846e-05
0.00108772
0.000327326
-3.33071e-05
0.00107503
0.000510559
3.37725e-05
0.00105632
0.000259994
0.000113713
0.0010147
1.90046e-05
0.000129106
0.000981833
1.96043e-05
7.23296e-05
0.000984282
-7.18172e-05
4.62158e-05
0.00102552
-0.000125554
1.70447e-05
0.0010803
6.36133e-05
-2.35314e-05
0.00108993
0.000270685
-4.84384e-05
0.00106577
0.000246017
-7.06522e-05
0.00111897
0.000173439
-0.000106214
0.00116309
5.91504e-05
-0.000110287
0.00104918
-9.5326e-05
-6.41762e-05
0.000910302
2.47881e-05
-8.06839e-05
0.000912854
0.000142146
-0.000140223
0.00102388
1.8652e-05
-0.000121264
0.00108543
-0.000105205
2.26353e-05
0.0010532
-0.000178384
0.000194264
-0.000255271
0.000160577
0.000899974
-0.000275037
1.73975e-05
0.000862547
-0.00024452
6.75526e-05
0.000848359
-0.000205886
0.000122601
0.000865557
-6.02879e-06
6.58558e-05
0.000866429
0.000231557
2.29274e-05
0.000856886
0.000142717
2.12637e-05
0.000843768
-0.000157246
1.18178e-05
0.000842779
-0.000281619
-9.81783e-06
0.000854598
-0.00019387
-1.96991e-05
0.000848432
-2.83613e-05
-1.42397e-05
0.000860776
3.9503e-05
-2.76382e-05
0.000929882
2.9961e-05
8.53752e-07
0.000962443
0.000136114
7.49695e-05
0.000926151
0.000249119
2.37021e-05
0.000898336
0.000265477
-8.25894e-05
0.000873293
0.000143475
-1.85839e-05
0.000847805
-0.000135134
8.68289e-05
0.000854369
-0.000271226
0.000129373
0.000891068
-0.000122601
9.30565e-05
0.000945275
-1.2597e-05
-1.52896e-05
0.000966954
7.18391e-05
-7.12312e-05
0.000967448
0.000348393
-2.73234e-05
0.000977682
0.000470819
3.55025e-05
0.000944918
0.0001845
0.000102123
0.000897719
-1.78381e-05
0.000101024
0.00088985
3.72473e-05
5.67186e-05
0.000898774
-4.21063e-05
5.28847e-05
0.00092304
-9.61799e-05
1.213e-05
0.000960615
9.97729e-05
-4.4865e-05
0.000961137
0.000274383
-6.2165e-05
0.000963352
0.00021157
-7.9147e-05
0.00104506
0.00016139
-0.00010268
0.00105695
6.0956e-05
-8.65672e-05
0.000924646
-9.88754e-05
-6.1774e-05
0.000845154
4.41924e-05
-8.77277e-05
0.000886239
0.00015435
-9.43237e-05
0.000952077
-6.84101e-05
-4.02918e-05
0.000955976
-0.000208755
8.52016e-05
0.000901181
-0.000189219
0.000228721
-0.000255448
0.000158758
0.00080307
-0.000297057
-2.24382e-05
0.000838615
-0.000308556
9.72694e-05
0.000840106
-0.000234278
0.00015863
0.000810405
7.43028e-05
4.48822e-05
0.000804325
0.00034831
-2.83442e-05
0.000839211
0.000148029
-9.36859e-06
0.000836636
-0.000205564
-5.7629e-06
0.000796802
-0.000281507
-1.86875e-05
0.000766513
-0.000144639
-1.36671e-05
0.00074365
1.11699e-05
-4.49078e-06
0.000743681
7.98804e-05
-1.57996e-05
0.000774919
8.29843e-05
3.96919e-05
0.000789092
0.000146903
0.000105352
0.000790957
0.00027219
1.23615e-05
0.00079978
0.000300272
-7.93142e-05
0.000786649
0.000159897
-1.7899e-05
0.000752852
-0.000138903
4.71317e-05
0.000739905
-0.000308529
0.00010934
0.000784496
-0.000138549
0.000103296
0.000842369
4.39658e-06
-7.40266e-06
0.000847947
0.000101037
-4.93283e-05
0.000872262
0.000356394
-1.08252e-05
0.000892661
0.000424685
4.29581e-05
0.00082579
0.000153154
0.000113418
0.000791774
-3.12826e-05
8.27615e-05
0.000819756
3.48564e-05
3.94901e-05
0.000822699
-2.48686e-05
5.28126e-05
0.000822509
-5.64396e-05
-3.46721e-06
0.00084872
0.00013534
-6.18856e-05
0.000854067
0.000225285
-3.4356e-05
0.000879286
0.000142551
-6.18608e-05
0.000960577
0.000159376
-9.83515e-05
0.000938168
6.37881e-05
-7.29252e-05
0.000824915
-0.000125015
-7.41762e-05
0.000811876
3.09963e-05
-9.1099e-05
0.0008712
0.000125448
-4.14894e-05
0.000887031
-0.000134262
2.66316e-05
0.000833394
-0.00021568
0.000120416
0.000758922
-0.000165631
0.00019294
-0.000240494
7.97703e-05
0.000705922
-0.000295579
-2.14631e-05
0.000766507
-0.000363135
0.000110668
0.000781159
-0.00022885
0.000158502
0.000735719
0.000188301
6.91515e-05
0.000766345
0.000400751
1.77441e-05
0.000828042
8.93437e-05
2.12106e-05
0.000763307
-0.000198953
-1.5353e-05
0.000644756
-0.000177234
-2.05042e-05
0.000595065
-6.66177e-05
3.89542e-05
0.000603819
3.44661e-05
5.68626e-05
0.000618362
0.000139737
4.6437e-05
0.000638654
0.000146018
9.93041e-05
0.000667646
0.000120233
0.000107558
0.000698257
0.000252581
-7.7429e-06
0.000732309
0.000284064
-6.3078e-05
0.000755653
0.000103405
-1.49758e-05
0.000725216
-0.000160787
1.76662e-05
0.000683825
-0.000285476
8.23113e-05
0.000723398
-0.000105223
9.43967e-05
0.00076174
5.04571e-05
-8.66892e-07
0.0007517
0.000145321
-1.75398e-05
0.000801277
0.00034508
4.77269e-06
0.000795083
0.000397385
5.7713e-05
0.000700549
0.000161353
0.000125111
0.000720924
-6.76966e-05
4.99784e-05
0.000782822
-1.69404e-05
2.14519e-05
0.000757816
-1.59478e-05
5.73987e-05
0.000735275
9.81279e-06
-2.29193e-05
0.000772172
0.000160027
-6.88052e-05
0.000790849
0.000139552
-9.61599e-06
0.000816469
9.87512e-05
-6.46668e-05
0.000874842
0.000186754
-0.000103686
0.000823926
6.41978e-05
-7.13713e-05
0.000725249
-0.000120042
-8.43613e-05
0.000750094
3.7155e-05
-8.89445e-05
0.00082065
6.00721e-05
-1.2449e-05
0.000818312
-0.000192763
7.939e-05
0.00075368
-0.000194088
0.000151404
0.00068485
-0.000141168
0.000141485
-0.000205988
1.20789e-05
0.000612483
-0.000290313
2.41256e-05
0.000631923
-0.000361907
0.000127184
0.000622192
-0.000168877
0.000119845
0.000632587
0.000228143
5.03698e-05
0.000736242
0.000317771
5.02638e-05
0.000766702
9.29175e-06
5.23084e-05
0.000647237
-0.000146437
-7.49808e-06
0.000524378
-5.93352e-05
2.51665e-05
0.000496275
-2.82775e-05
8.63828e-05
0.000532932
-1.07126e-06
7.61971e-05
0.000541234
0.000175418
7.65156e-05
0.000543618
0.000190926
0.000107725
0.000590301
6.65605e-05
7.96478e-05
0.000639576
0.000195948
-2.46797e-05
0.000679652
0.000225416
-6.691e-05
0.000712509
1.0736e-05
-2.00065e-05
0.00068903
-0.000201359
2.4753e-05
0.000656243
-0.000248295
7.47545e-05
0.00068285
-4.36778e-05
7.48778e-05
0.000677668
0.000132674
5.27551e-06
0.000673761
0.000197847
-1.02114e-05
0.000733636
0.000323961
-1.14408e-05
0.000682958
0.000406279
5.9304e-05
0.000610419
0.000177008
0.000106932
0.00069591
-0.000132119
2.88572e-06
0.000751051
-9.26889e-05
2.17101e-05