/*--------------------------------*- C++ -*----------------------------------*\
  =========                 |
  \\      /  F ield         | OpenFOAM: The Open Source CFD Toolbox
   \\    /   O peration     | Website:  https://openfoam.org
    \\  /    A nd           | Version:  10
     \\/     M anipulation  |
\*---------------------------------------------------------------------------*/
FoamFile
{
    format      ascii;
    class       volVectorField;
    location    "7";
    object      U_0;
}
// * * * * * * * * * * * * * * * * * * * * * * * * * * * * * * * * * * * * * //

dimensions      [0 1 -1 0 0 0 0];

internalField   nonuniform List<vector> 
25600
(
(1.12896 0.0372923 -0.0174446)
(1.1438 0.0406435 -0.0181296)
(1.14714 0.0292892 -0.0109509)
(1.13187 0.00222807 0.00515965)
(1.09981 -0.0277126 0.0231089)
(1.07279 -0.0443283 0.0324816)
(1.06113 -0.0430734 0.0296035)
(1.06386 -0.0236101 0.0168763)
(1.06955 -0.00485512 -0.00202058)
(1.07262 0.000503211 -0.0205202)
(1.07324 -0.00158733 -0.0332588)
(1.07368 -0.00686181 -0.0368671)
(1.078 -0.00536742 -0.0340266)
(1.08511 0.00059068 -0.0278075)
(1.09255 0.00219963 -0.015344)
(1.09981 0.0020766 0.000691661)
(1.11009 -0.000160781 0.0195733)
(1.12037 -0.00258477 0.0355216)
(1.12357 -0.00693088 0.0384042)
(1.11634 -0.0169852 0.0300261)
(1.10083 -0.0263206 0.013584)
(1.08182 -0.0267907 -0.00540425)
(1.0669 -0.0121245 -0.0199299)
(1.06146 0.0112116 -0.0282204)
(1.06105 0.0285807 -0.0301768)
(1.06964 0.0313417 -0.0236494)
(1.08603 0.0249547 -0.0115917)
(1.09679 0.0170859 -0.0010879)
(1.10393 0.012858 0.00189899)
(1.10342 0.0156206 -0.00587036)
(1.09577 0.0126694 -0.0156159)
(1.09772 0.00302484 -0.0162237)
(1.10712 0.000651215 -0.00816069)
(1.11334 0.0023206 5.53942e-06)
(1.11282 0.00658904 -0.00144942)
(1.10122 0.0115176 -0.0116488)
(1.08535 0.00842226 -0.0208338)
(1.08163 0.00708556 -0.0227827)
(1.08892 0.0148736 -0.0198971)
(1.10601 0.0259362 -0.0168205)
(1.1509 0.0337539 -0.0021882)
(1.16763 0.0379535 0.00764496)
(1.17559 0.0358576 0.0295845)
(1.15407 0.0187311 0.0446114)
(1.1038 -0.00785918 0.0372355)
(1.05104 -0.0369782 0.0111175)
(1.01745 -0.0574428 -0.0171549)
(1.01376 -0.0524789 -0.0334737)
(1.02968 -0.031256 -0.0377443)
(1.0529 -0.00998955 -0.0343145)
(1.06621 -0.00351873 -0.0271006)
(1.06032 -0.01484 -0.0200219)
(1.04607 -0.0288812 -0.0161879)
(1.03403 -0.032252 -0.0158333)
(1.03206 -0.0170434 -0.0135118)
(1.04382 0.0164401 -0.0050113)
(1.07271 0.0526889 0.00935308)
(1.11047 0.0723555 0.0240852)
(1.13969 0.0653475 0.0313788)
(1.14479 0.037236 0.0308621)
(1.12765 0.00498482 0.0199326)
(1.10431 -0.0152066 -0.00283442)
(1.08564 -0.0111308 -0.0278006)
(1.08182 0.0114717 -0.0412028)
(1.08705 0.0315658 -0.0384056)
(1.09787 0.0352928 -0.0211292)
(1.10686 0.0257325 -0.00229592)
(1.10062 0.0155249 0.00539977)
(1.09454 0.0140528 0.00263743)
(1.09604 0.0198695 -0.00508834)
(1.10327 0.0153264 -0.00673256)
(1.11962 1.18041e-05 -0.000557589)
(1.12597 -0.00564133 0.0046042)
(1.11327 -3.56232e-05 0.00581795)
(1.10254 0.00953333 0.00465415)
(1.09992 0.0112184 0.00377671)
(1.10431 0.00219075 0.00514852)
(1.12003 -0.00100279 0.00761983)
(1.13059 0.00732434 0.00592328)
(1.13632 0.0222424 0.000153783)
(1.15014 0.005804 0.0232051)
(1.15271 -0.00205608 0.055024)
(1.16502 0.00530215 0.0696069)
(1.17911 0.0198525 0.0532205)
(1.17101 0.0272173 0.0181259)
(1.12419 0.0130476 -0.01819)
(1.06119 -0.0164678 -0.0476245)
(1.01133 -0.0388078 -0.0628601)
(0.98601 -0.0460651 -0.0619475)
(0.98832 -0.0410225 -0.0458643)
(0.999586 -0.0332238 -0.0223072)
(1.00541 -0.0269437 -0.00587193)
(1.00348 -0.0224633 -0.00210269)
(1.00088 -0.0137859 -0.00953433)
(1.01485 0.00464594 -0.0167708)
(1.05468 0.029952 -0.0120197)
(1.11617 0.0536409 0.00454412)
(1.16891 0.0618457 0.0237345)
(1.18119 0.0539483 0.031903)
(1.15629 0.0398237 0.0227146)
(1.12256 0.0256211 0.00151048)
(1.09969 0.0155907 -0.0229173)
(1.09087 0.0115611 -0.0341714)
(1.09095 0.00790306 -0.0232069)
(1.09341 8.45339e-05 0.000436896)
(1.09708 -0.00848248 0.0204544)
(1.0969 -0.00622887 0.0253962)
(1.08521 0.00877592 0.0171742)
(1.07114 0.0193112 0.00962926)
(1.06771 0.0150736 0.00828456)
(1.07763 -0.00125088 0.00968875)
(1.10526 -0.0144651 0.00965446)
(1.13235 -0.00898903 0.0107164)
(1.13587 0.00569007 0.020698)
(1.12165 0.0123675 0.0297791)
(1.10197 0.00253546 0.0240834)
(1.09501 -0.00912945 0.00541334)
(1.11082 -0.0061701 -0.0129428)
(1.134 0.00451808 -0.0161593)
(1.14756 0.0115169 -0.00316559)
(1.11981 -0.00523016 0.0466155)
(1.10754 -0.0114344 0.0544682)
(1.12768 0.00282015 0.0518837)
(1.15542 0.0253228 0.0466672)
(1.15472 0.0309555 0.0314093)
(1.1179 0.0100301 -0.00865846)
(1.06903 -0.0172626 -0.0627832)
(1.02315 -0.0319945 -0.0969249)
(0.986303 -0.033809 -0.0965798)
(0.971202 -0.0296945 -0.0718042)
(0.975517 -0.0271833 -0.0384303)
(0.993291 -0.0270243 -0.010449)
(1.01912 -0.0276482 0.0120878)
(1.05188 -0.0208217 0.0274894)
(1.09248 -0.00260914 0.0344377)
(1.13354 0.0226511 0.0326233)
(1.15628 0.0439621 0.0240291)
(1.14472 0.0525209 0.0134386)
(1.11471 0.0519984 -0.0008833)
(1.09338 0.0433348 -0.0117571)
(1.08365 0.0254773 -0.0125403)
(1.07525 0.0029351 -0.00741514)
(1.05922 -0.0154684 0.00182155)
(1.04155 -0.0253621 0.0101866)
(1.03271 -0.0295629 0.00973226)
(1.03213 -0.0296593 0.0111014)
(1.03608 -0.0233554 0.0182996)
(1.03624 -0.013061 0.0189445)
(1.04158 -0.00405934 0.0103955)
(1.05696 0.00254419 -0.00647926)
(1.07219 -0.00225503 -0.0177829)
(1.08941 -0.0146014 -0.00679276)
(1.09966 -0.0106889 0.0199775)
(1.09848 0.0163603 0.0403995)
(1.09494 0.0400105 0.0359106)
(1.08908 0.0364226 0.0150341)
(1.0973 0.0186648 -0.00486932)
(1.1278 0.00435853 -0.0105789)
(1.15441 0.00133297 0.00535531)
(1.14854 0.003128 0.0284037)
(1.07469 0.0177265 0.0478224)
(1.07949 -0.00970575 0.050005)
(1.10931 -0.0262537 0.0426635)
(1.1256 -0.0202273 0.024463)
(1.10307 -0.01193 -0.00980977)
(1.061 -0.0136159 -0.0580977)
(1.03389 -0.0102417 -0.0895905)
(1.01605 -0.00603427 -0.0790208)
(0.993606 -0.00622306 -0.0435297)
(0.974538 -0.00973342 -0.0111026)
(0.960536 -0.0189169 0.00126268)
(0.959482 -0.0311151 -0.00798895)
(0.9766 -0.0439597 -0.022517)
(1.01085 -0.0498871 -0.0288821)
(1.05526 -0.0340013 -0.0284268)
(1.09499 0.00714546 -0.0299415)
(1.11448 0.0483638 -0.0238852)
(1.10383 0.0611789 0.000324088)
(1.08643 0.0483519 0.0290542)
(1.08754 0.0290859 0.0424662)
(1.1024 0.0164094 0.0349611)
(1.11134 0.00934933 0.020004)
(1.09254 0.00219308 0.0112776)
(1.06277 -0.00809895 0.000145974)
(1.0472 -0.019879 -0.024292)
(1.04738 -0.0300845 -0.0401243)
(1.05322 -0.0322745 -0.0352243)
(1.04575 -0.0202743 -0.0187529)
(1.02918 -0.00192015 0.00170611)
(1.01869 0.0107832 0.012887)
(1.02524 0.00883168 0.0190217)
(1.04808 0.000421362 0.0311457)
(1.0676 0.00865908 0.0406644)
(1.07523 0.0345278 0.0356521)
(1.07078 0.0437071 0.0200576)
(1.06093 0.0185517 0.00671898)
(1.07163 -0.00993203 0.000577858)
(1.10073 -0.0137526 0.00751841)
(1.11623 0.00714247 0.0251104)
(1.09953 0.0266309 0.0389973)
(1.1624 -0.00568683 0.0190779)
(1.14302 -0.00890871 0.0147382)
(1.09002 -0.00279531 0.00485517)
(1.03947 0.010545 -0.0118316)
(1.01948 0.0074265 -0.0384756)
(1.03029 -0.00484996 -0.0657392)
(1.04545 -0.0103564 -0.0736499)
(1.04063 -0.017018 -0.0551378)
(1.02332 -0.0161765 -0.0192411)
(1.00791 -0.0083526 0.0158725)
(0.993897 -0.00701347 0.0327104)
(0.986721 -0.0168571 0.020653)
(0.986021 -0.0298914 -0.0158265)
(0.994835 -0.0287099 -0.0580926)
(1.01695 -0.00546661 -0.0854384)
(1.04707 0.0301087 -0.0790336)
(1.0653 0.0479788 -0.0313017)
(1.05592 0.0360837 0.0247018)
(1.05133 0.0141971 0.0492261)
(1.07113 0.000344364 0.0411929)
(1.09444 -0.00624436 0.0259079)
(1.10268 -0.0122615 0.0249766)
(1.08371 -0.0164255 0.0260929)
(1.0625 -0.0140815 0.00111489)
(1.05786 -0.00359436 -0.0389623)
(1.05956 0.00255824 -0.0567561)
(1.05688 0.00101497 -0.050176)
(1.04046 0.000625033 -0.0318763)
(1.02573 0.00361991 -0.0120654)
(1.03393 0.00806613 -0.00346488)
(1.0666 0.00602862 0.00132861)
(1.10209 0.00276397 0.0104194)
(1.10781 0.00979661 0.0165385)
(1.08622 0.0261096 0.0153213)
(1.05938 0.0330191 0.00833949)
(1.03418 0.0219217 0.00158265)
(1.0238 0.00559834 0.0025284)
(1.03525 -0.00734923 0.0126348)
(1.07406 -0.0100388 0.0218572)
(1.13063 -0.00564385 0.0224239)
(1.02458 0.0224789 -0.0166841)
(1.00265 0.0231671 0.00548699)
(0.986968 0.0145207 0.0179868)
(0.989105 -0.00132697 0.00647944)
(1.01144 -0.0339496 -0.0254322)
(1.04332 -0.0617322 -0.0587462)
(1.06382 -0.058355 -0.0704455)
(1.0695 -0.0305009 -0.0553825)
(1.07029 0.000509986 -0.0145336)
(1.0528 0.00795804 0.0346875)
(1.03088 -0.0077892 0.0590479)
(1.02848 -0.0303402 0.043583)
(1.03342 -0.0454835 0.00299691)
(1.03735 -0.0443106 -0.0336563)
(1.0284 -0.0284875 -0.0445155)
(1.0082 -0.00640716 -0.0156296)
(0.994099 0.00640062 0.0331701)
(1.00581 0.00746092 0.0427925)
(1.04705 -0.00111123 0.0164491)
(1.07499 -0.0186262 9.04178e-05)
(1.06623 -0.0363187 0.00209697)
(1.0454 -0.0347559 0.0105673)
(1.03143 -0.0123016 0.00996523)
(1.04354 0.00975601 -0.00574804)
(1.06783 0.0189288 -0.0178077)
(1.06768 0.0140564 -0.0206509)
(1.043 0.00177991 -0.026829)
(1.01681 -0.00736062 -0.0292793)
(1.01238 -0.00834748 -0.0258731)
(1.03607 -0.00755289 -0.0260403)
(1.06996 -0.005602 -0.019056)
(1.08621 0.00743997 -0.00234718)
(1.07657 0.0166213 0.00704378)
(1.07508 0.0148515 0.00246943)
(1.10116 0.0133384 -0.0105658)
(1.12871 0.016472 -0.0180193)
(1.12538 0.0198089 -0.00890977)
(1.08607 0.0135675 0.000656047)
(1.05053 0.00702061 -0.00609515)
(1.03781 0.0123201 -0.020236)
(1.09009 0.0201415 -0.0352777)
(1.04807 0.0207584 -0.00488761)
(1.02075 0.0029913 0.00815079)
(1.0039 -0.0153034 -0.00776275)
(0.99768 -0.0336386 -0.0383384)
(1.01172 -0.0428111 -0.0596438)
(1.03927 -0.0360963 -0.0590175)
(1.0735 -0.0215104 -0.0342646)
(1.10711 -0.00509916 0.0137267)
(1.10836 0.00114949 0.0522134)
(1.10005 -0.00632039 0.0519169)
(1.09631 -0.0226252 0.0292316)
(1.0779 -0.0387355 0.0052172)
(1.05851 -0.0410244 -0.0129018)
(1.03716 -0.0228649 -0.0245978)
(1.01831 0.0064954 -0.0210296)
(1.01208 0.0260994 -0.0144722)
(1.01857 0.0253548 -0.0247853)
(1.03405 0.0112153 -0.0140936)
(1.03356 -0.00799508 0.0263894)
(1.02534 -0.0179996 0.0454213)
(1.03009 -0.00900803 0.0289646)
(1.03688 0.00843795 0.00701431)
(1.04939 0.0231244 -0.00214353)
(1.06867 0.0265447 0.00093202)
(1.07867 0.0156013 -0.00503416)
(1.07489 0.000255243 -0.0258694)
(1.0546 -0.00618494 -0.0307629)
(1.02946 -0.00285853 -0.0170039)
(1.02782 0.0017782 -0.00099315)
(1.05213 0.00633755 0.0211745)
(1.07069 0.00652334 0.0350241)
(1.06931 -0.0057958 0.0166131)
(1.07161 -0.0166547 -0.0149367)
(1.08761 -0.00640486 -0.0315246)
(1.11545 0.0213316 -0.0263572)
(1.14752 0.0336963 -0.00298818)
(1.16074 0.0142128 0.0130094)
(1.15912 -0.00465617 -0.00347413)
(1.13618 0.00182807 -0.0358296)
(1.07552 0.0380187 -0.0125415)
(1.06391 0.033343 0.00757932)
(1.04043 0.0172593 -0.0116689)
(1.0141 0.00780689 -0.0422882)
(1.00094 -0.0106393 -0.0538441)
(1.00951 -0.0394377 -0.0455843)
(1.03072 -0.0558226 -0.0258565)
(1.05394 -0.0406281 0.00692484)
(1.06902 -0.0123786 0.0381197)
(1.05863 -0.00608701 0.0419446)
(1.04401 -0.0154485 0.0288273)
(1.03687 -0.0227651 0.0196718)
(1.03019 -0.0250541 0.013022)
(1.02789 -0.0259565 0.00238748)
(1.01155 -0.0227126 -0.0133125)
(0.988449 -0.012349 -0.0197992)
(0.982616 -0.00287029 -0.0193728)
(0.989135 0.00395803 -0.0188067)
(1.00174 0.00467997 0.00375572)
(1.00396 -0.00692165 0.0404105)
(1.00899 -0.00767295 0.0574947)
(1.03212 0.015437 0.0477279)
(1.04654 0.0441058 0.0284291)
(1.05435 0.0562221 0.0150277)
(1.06786 0.0381851 0.00917314)
(1.07199 0.00726838 -0.00180314)
(1.05985 -0.00535219 -0.000729316)
(1.03607 0.00423211 0.0243042)
(1.02121 0.0140318 0.0383811)
(1.04152 0.0133626 0.0349614)
(1.07677 0.0111817 0.0356079)
(1.07977 0.00906414 0.0373304)
(1.05384 0.00067076 0.0293548)
(1.03789 -0.00819385 0.00954306)
(1.04857 0.00050476 -0.0273478)
(1.09879 0.0168793 -0.056113)
(1.15936 0.0115022 -0.0573231)
(1.16091 -0.00895306 -0.0526086)
(1.12673 -0.0115134 -0.0502812)
(1.09484 0.0143145 -0.0411278)
(1.01132 0.00540958 -0.000982145)
(1.00049 0.0144031 -0.00502162)
(0.998518 0.022707 -0.0359174)
(1.00244 0.0283976 -0.0526519)
(0.998295 0.0149733 -0.0416668)
(0.992477 -0.0187739 -0.0230479)
(0.992111 -0.0436328 -0.00929142)
(0.995992 -0.0352176 0.0128109)
(1.00202 -0.0131425 0.035985)
(0.995547 -0.00498521 0.0394755)
(0.99048 -0.00608481 0.0307037)
(0.996817 -0.00582382 0.0245642)
(1.01068 -0.00230417 0.0196745)
(1.03477 -0.00449257 0.00708176)
(1.03261 -0.0147598 -0.0122463)
(1.0055 -0.0239194 -0.0198719)
(0.988716 -0.0285628 -0.0149567)
(0.981245 -0.0274819 -0.00252871)
(0.986974 -0.0233908 0.0246243)
(0.995066 -0.0176985 0.0577579)
(1.00821 0.00481136 0.0701298)
(1.02978 0.040257 0.051427)
(1.04337 0.0641296 0.0229742)
(1.05995 0.0585553 0.00756554)
(1.05908 0.0274146 0.00657335)
(1.02247 0.00364748 0.0144036)
(0.982129 0.00037874 0.0429758)
(0.978321 0.00899863 0.0721691)
(1.00881 0.0137351 0.0696827)
(1.03966 0.0125559 0.0536767)
(1.05795 0.0190669 0.0522407)
(1.06315 0.0318011 0.0585068)
(1.04969 0.0273715 0.0398755)
(1.02821 0.00882871 -0.014773)
(1.03837 0.0025104 -0.0669068)
(1.09542 0.00500937 -0.0732297)
(1.1293 0.00956956 -0.0546181)
(1.09917 0.00861588 -0.0486177)
(1.06127 -0.0033447 -0.0452801)
(1.03287 -0.00554502 -0.0259568)
(0.961265 -0.00529373 0.0114431)
(0.979107 0.00467813 0.00753896)
(1.00686 0.0146903 -0.0204707)
(1.01813 0.028855 -0.0321669)
(1.00636 0.023071 -0.0173411)
(1.00211 -0.012226 -0.00159278)
(1.0106 -0.0424239 0.00780435)
(1.01296 -0.0367626 0.0274679)
(1.00699 -0.0189023 0.0341907)
(0.990176 -0.0141181 0.0154303)
(0.985078 -0.01219 0.00460639)
(0.998323 -0.00323438 0.019936)
(1.01522 0.00985708 0.0384434)
(1.03996 0.0106403 0.0280683)
(1.03694 -0.00545262 0.00151401)
(1.00371 -0.0256099 -0.0132883)
(0.982061 -0.0438765 -0.0169029)
(0.978275 -0.0505349 -0.000302757)
(0.990463 -0.0421551 0.0389711)
(0.998993 -0.024779 0.0703203)
(1.00422 0.00916246 0.0665397)
(1.02778 0.0501592 0.0369222)
(1.0622 0.0743811 0.0162811)
(1.07688 0.0686109 0.0141079)
(1.03537 0.0370907 0.0139378)
(0.965521 0.0030239 0.0207215)
(0.928918 -0.0191747 0.0542092)
(0.953036 -0.0143253 0.0816549)
(0.994519 0.00918323 0.0658576)
(1.00747 0.0255869 0.0436691)
(1.00998 0.0216409 0.0520805)
(1.02687 0.0179553 0.0662661)
(1.04371 0.024187 0.0322653)
(1.06414 0.0220726 -0.0351158)
(1.09866 0.00809709 -0.0645888)
(1.11107 -0.00310362 -0.0492339)
(1.07006 -0.00237812 -0.0389563)
(1.00352 -0.0044726 -0.0483559)
(0.968974 -0.0176775 -0.0478926)
(0.961215 -0.0190785 -0.0194403)
(0.945238 -0.0278856 0.0169647)
(0.966367 -0.0182841 0.00927591)
(0.995454 -0.00414584 -0.0179321)
(1.01549 0.0151538 -0.0204668)
(1.01619 0.0128269 0.00717721)
(1.01182 -0.0152475 0.0255842)
(1.01257 -0.0353257 0.0227736)
(1.01544 -0.0281478 0.0243017)
(1.00927 -0.0172095 0.0211089)
(0.987418 -0.0147906 0.00395327)
(0.980425 -0.00837006 -0.0012804)
(0.999072 0.00625907 0.023607)
(1.02467 0.0232693 0.0461456)
(1.04807 0.0238507 0.0310352)
(1.03894 0.00777335 0.0141311)
(1.00016 -0.0135182 0.0155089)
(0.970352 -0.0399973 0.00754952)
(0.965765 -0.0506035 0.00412375)
(0.98051 -0.0376563 0.0236282)
(0.989757 -0.0185216 0.0417622)
(1.00186 0.0125249 0.0393242)
(1.04206 0.053052 0.0285627)
(1.07885 0.0839298 0.0289813)
(1.06201 0.0806116 0.0298895)
(1.00256 0.0370307 0.0177772)
(0.950881 -0.0162738 0.0134164)
(0.930917 -0.0504929 0.0387413)
(0.943128 -0.0349282 0.0579029)
(0.962924 0.0122926 0.0479774)
(0.982272 0.0287436 0.047439)
(1.00761 0.00162933 0.0577841)
(1.02674 -0.0064938 0.0396211)
(1.03153 0.014286 -0.024429)
(1.05599 0.0169603 -0.0745907)
(1.08441 0.00396839 -0.0652938)
(1.05568 0.00126393 -0.0463151)
(0.99051 0.0123709 -0.0506975)
(0.935419 0.00933784 -0.05648)
(0.91878 -0.0209884 -0.0464818)
(0.930547 -0.0361585 -0.0139816)
(0.963267 -0.0425371 0.00279116)
(0.958854 -0.0319261 -0.00955922)
(0.969781 -0.0148465 -0.0301985)
(0.999371 0.00782702 -0.0106738)
(1.01488 0.0107786 0.0346371)
(1.01341 -0.00970357 0.0438981)
(1.01033 -0.0224717 0.0191611)
(1.00695 -0.0157431 0.0159081)
(0.993119 -0.0117098 0.0262796)
(0.969547 -0.0128044 0.0168055)
(0.966215 -0.005157 0.00437504)
(0.990741 0.0135511 0.0196921)
(1.02282 0.0360936 0.0370556)
(1.0455 0.0375223 0.0237435)
(1.05087 0.0179531 0.0207703)
(1.03042 -0.00704881 0.0351886)
(0.988814 -0.0347023 0.0214322)
(0.953753 -0.0417069 -0.00745444)
(0.940419 -0.0295137 -0.0128855)
(0.946772 -0.0193242 -0.00521588)
(0.98664 0.00736152 -0.00040687)
(1.04996 0.0539856 0.00935095)
(1.08313 0.0947416 0.0281525)
(1.05471 0.0900711 0.0360153)
(0.992605 0.0389324 0.018962)
(0.93469 -0.0178619 0.0068229)
(0.905199 -0.0547598 0.0291929)
(0.912998 -0.0397465 0.0500735)
(0.950311 0.00977301 0.0545206)
(1.00035 0.0279027 0.0613772)
(1.01384 0.00107717 0.0481297)
(0.984695 -0.00301787 -0.00484094)
(0.969883 0.0182911 -0.0728867)
(1.0089 0.0109151 -0.0928966)
(1.04627 -0.00523094 -0.0674878)
(1.0114 0.00119223 -0.0592018)
(0.948018 0.0227036 -0.0692269)
(0.916513 0.0179698 -0.0611536)
(0.92608 -0.0235568 -0.0415683)
(0.953111 -0.0472138 -0.017188)
(1.0032 -0.048092 0.0121779)
(0.970941 -0.0353188 -0.00821679)
(0.956358 -0.0213707 -0.0269397)
(0.977404 0.000847244 0.00165626)
(0.991825 0.0124033 0.0514731)
(1.00418 0.00416227 0.0539839)
(1.01738 -0.00642674 0.0190651)
(1.00762 -0.0103698 0.0109997)
(0.98012 -0.0150047 0.0259814)
(0.956962 -0.0119996 0.0227279)
(0.952851 0.00141478 0.00911858)
(0.966728 0.0230349 0.0139565)
(1.00264 0.0472998 0.0298791)
(1.0493 0.044843 0.0276519)
(1.0702 0.02494 0.0253847)
(1.04568 0.00855836 0.0378642)
(1.00076 -0.0154267 0.0283651)
(0.963902 -0.031451 -0.0047539)
(0.94343 -0.0319007 -0.0199804)
(0.942579 -0.0285692 -0.0250794)
(0.98708 -0.000812922 -0.028943)
(1.06356 0.0485249 -0.0121504)
(1.09621 0.0928835 0.0197942)
(1.06554 0.0923097 0.0384402)
(0.997505 0.0503754 0.0240882)
(0.924832 -0.000768368 0.0104654)
(0.894214 -0.0489738 0.0343978)
(0.915967 -0.0487984 0.055661)
(0.981799 0.00237697 0.0572803)
(1.03848 0.0350605 0.0567035)
(1.01803 0.01285 0.0388451)
(0.951155 -0.00156833 -0.0197241)
(0.940724 0.00727076 -0.0866548)
(1.0183 -0.00948988 -0.0857895)
(1.0691 -0.0175716 -0.0537639)
(1.00686 0.0029967 -0.0656184)
(0.927033 0.0305079 -0.0892187)
(0.923964 0.0234934 -0.0600161)
(0.963777 -0.0278226 -0.0128483)
(1.00065 -0.0556106 0.00774394)
(1.00717 -0.0485147 0.033682)
(0.983959 -0.0382611 0.0130024)
(0.960934 -0.032447 -0.000764168)
(0.953926 -0.00437618 0.0216401)
(0.944415 0.0196556 0.0609617)
(0.972294 0.0122149 0.0589728)
(1.02789 -0.00482754 0.0188374)
(1.03777 -0.0126899 -0.00220956)
(1.00763 -0.0169928 0.0102133)
(0.973506 -0.007751 0.0228771)
(0.941365 0.0118361 0.0178602)
(0.931353 0.0325799 0.0125147)
(0.994239 0.0499126 0.0268289)
(1.07541 0.0408336 0.0289816)
(1.06033 0.0264845 0.00886706)
(0.996627 0.0174083 0.0130815)
(0.96596 -0.00684193 0.0279269)
(0.955742 -0.0257784 0.0200045)
(0.955259 -0.0302003 0.0109678)
(0.958054 -0.0295734 -0.0158168)
(0.999631 -0.00565735 -0.0393341)
(1.06424 0.0443124 -0.024489)
(1.07197 0.0937235 0.00868145)
(1.05677 0.093253 0.0364866)
(1.01874 0.0515987 0.0331486)
(0.950315 0.00708268 0.0166381)
(0.917074 -0.0381531 0.0366444)
(0.940042 -0.0458525 0.0586604)
(1.00746 -0.000906362 0.0508803)
(1.05793 0.0408344 0.0359584)
(1.0353 0.0307522 0.0234448)
(0.964449 0.0144474 -0.0240087)
(0.957579 0.00601478 -0.0835848)
(1.03822 -0.027062 -0.0698058)
(1.07849 -0.0254986 -0.0367001)
(1.00005 0.0147281 -0.0648345)
(0.930945 0.0455473 -0.100187)
(0.969406 0.0264853 -0.0553728)
(0.998872 -0.0372309 0.01694)
(1.00349 -0.063797 0.0419973)
(0.974265 -0.0452249 0.00740928)
(0.924569 -0.0406157 -0.00263863)
(0.885156 -0.0333205 0.0180542)
(0.891872 0.00385423 0.0421829)
(0.905581 0.0314352 0.0624802)
(0.928452 0.0140264 0.0549828)
(0.980469 -0.0178552 0.0191624)
(1.02011 -0.0294047 -0.00801006)
(1.02206 -0.0246441 -0.00591805)
(0.991786 -0.00203744 0.0100908)
(0.9399 0.0209596 0.0130402)
(0.923386 0.0299803 0.0101154)
(1.0093 0.038617 0.029571)
(1.07944 0.0374001 0.0261237)
(1.01672 0.0332995 -0.0112322)
(0.947724 0.0196318 -0.00388395)
(0.937863 -0.00887648 0.0309539)
(0.945966 -0.0227922 0.0439772)
(0.957451 -0.0218331 0.0485479)
(0.975224 -0.0222154 0.00816639)
(1.03054 -0.00703804 -0.0344374)
(1.07093 0.0468262 -0.0253211)
(1.04427 0.0982065 0.00728222)
(1.03873 0.0775196 0.034991)
(1.02208 0.0292649 0.0366315)
(0.963793 0.00222008 0.0237951)
(0.930135 -0.0286546 0.0362972)
(0.95623 -0.0371429 0.0520548)
(1.01558 0.00355748 0.036953)
(1.06824 0.0473889 0.00756541)
(1.05548 0.0427898 -0.00487231)
(0.995209 0.031392 -0.0357917)
(1.03573 0.0149954 -0.0720939)
(1.08283 -0.0291031 -0.0461023)
(1.01636 -0.0214782 -0.0297042)
(0.905987 0.0232393 -0.0755137)
(0.912151 0.0416731 -0.0992448)
(1.01889 0.0180078 -0.0291553)
(1.02605 -0.0381071 0.0549294)
(0.989866 -0.0607363 0.0505184)
(0.96769 -0.0519895 -0.0240636)
(0.884066 -0.0454197 -0.00540849)
(0.819711 -0.0339801 0.0480282)
(0.858353 -0.000222628 0.0641673)
(0.913172 0.0317915 0.0615025)
(0.91252 0.0187173 0.0481601)
(0.898279 -0.0262583 0.0188492)
(0.90562 -0.0480144 -0.00635943)
(0.938522 -0.0370198 -0.0139562)
(0.953376 -0.00538552 -0.0104915)
(0.93151 0.0161451 -0.00653073)
(0.940503 0.0168618 0.0110477)
(1.03534 0.0283144 0.0406215)
(1.05907 0.0388775 0.0184931)
(0.983723 0.0402728 -0.0289753)
(0.942691 0.0197478 -0.00871778)
(0.923111 -0.0201921 0.035585)
(0.937658 -0.0339479 0.0619849)
(0.958151 -0.0208038 0.0737825)
(0.989692 -0.0136454 0.0239337)
(1.05351 0.00151319 -0.0313986)
(1.06776 0.0585907 -0.0188432)
(1.03506 0.102561 0.0190481)
(1.03271 0.0598223 0.0309932)
(0.999902 0.00979679 0.0275209)
(0.952759 0.00166118 0.0264585)
(0.936485 -0.0190315 0.0441098)
(0.965723 -0.0291574 0.0516399)
(1.01119 0.00873468 0.0236592)
(1.06484 0.0514795 -0.0161569)
(1.04134 0.0501069 -0.0302485)
(1.01634 0.0379643 -0.0504879)
(1.13401 0.0135082 -0.070964)
(1.10264 -0.0206264 -0.0454724)
(0.918056 -0.00119316 -0.0434485)
(0.837553 0.0249455 -0.0780092)
(0.923031 0.014537 -0.0666709)
(1.05097 -0.0055015 0.0287132)
(1.03917 -0.0321717 0.11638)
(0.989557 -0.0537156 0.0590431)
(0.965818 -0.0529215 -0.0364119)
(0.944269 -0.0442013 0.0221193)
(0.885936 -0.0378199 0.093638)
(0.909674 -0.0057073 0.0768134)
(0.925232 0.035519 0.0480825)
(0.910862 0.0249981 0.0411478)
(0.904176 -0.0265579 0.0266747)
(0.888554 -0.0505111 0.00331168)
(0.897909 -0.0383226 -0.0126235)
(0.904684 -0.00778911 -0.0187728)
(0.900783 0.00792421 -0.0114535)
(0.931597 0.00695721 0.0297834)
(1.02399 0.0258834 0.0614661)
(1.01455 0.0449585 0.0121683)
(0.96295 0.0487269 -0.0402395)
(0.941634 0.0249695 -0.0158391)
(0.89828 -0.0284348 0.0276705)
(0.900539 -0.049635 0.0775804)
(0.920066 -0.0219612 0.0927093)
(0.964879 -0.00433673 0.0138079)
(1.0295 0.0129401 -0.0517346)
(1.0268 0.0705172 -0.0201712)
(1.03077 0.101242 0.023145)
(1.03657 0.0440278 0.0268533)
(0.964586 -0.00193906 0.0178144)
(0.934532 0.0054421 0.0248925)
(0.948801 -0.00988017 0.0545801)
(0.96337 -0.0220538 0.0483281)
(0.992492 0.0150529 0.00701093)
(1.03799 0.0570828 -0.0299409)
(1.0063 0.0504325 -0.0446745)
(1.03942 0.033316 -0.0572238)
(1.17096 0.0103286 -0.0715428)
(1.06434 -0.0174041 -0.063519)
(0.894418 0.0106075 -0.0595511)
(0.899089 0.0309283 -0.0493327)
(0.979705 -0.00679297 -0.00977768)
(1.04165 -0.0356648 0.0710388)
(0.981785 -0.0403537 0.131644)
(0.927707 -0.0534813 0.0525891)
(0.902652 -0.0566886 -0.0483391)
(0.97131 -0.0534055 0.0516585)
(0.985867 -0.0433746 0.131605)
(0.969912 0.00221686 0.0785041)
(0.920994 0.0529847 0.0283375)
(0.954874 0.0305647 0.0211068)
(1.00025 -0.0370042 0.00814945)
(0.955139 -0.0625565 0.000666896)
(0.901812 -0.0393319 0.00778364)
(0.875233 -0.00376117 0.00880307)
(0.867857 0.00872913 0.0182055)
(0.874035 0.00702427 0.0736815)
(0.91586 0.0260766 0.0887397)
(0.924399 0.0515646 0.0111528)
(0.936067 0.0569035 -0.0377228)
(0.927076 0.0313369 -0.0233222)
(0.894834 -0.0283781 -0.00325638)
(0.864294 -0.0607851 0.0667786)
(0.870617 -0.0272895 0.106571)
(0.954023 -0.000709422 0.0130489)
(1.00119 0.0175996 -0.0503746)
(0.983824 0.0720247 -0.0085058)
(1.05636 0.0897003 0.0304386)
(1.01925 0.0307424 0.0277011)
(0.906002 -0.00508535 0.00494669)
(0.933705 0.00940884 0.022205)
(0.974975 -0.00639852 0.0594012)
(0.95279 -0.0167492 0.0328246)
(0.962378 0.023874 -0.0123999)
(1.01019 0.0543618 -0.029146)
(0.988875 0.0364731 -0.0483133)
(1.06574 0.0299308 -0.0620457)
(1.17082 0.0132058 -0.0742644)
(1.01072 -0.0226767 -0.0858745)
(0.91126 0.00695162 -0.0582153)
(0.984281 0.0308896 -0.00822075)
(1.04672 -0.0212879 0.0248636)
(1.02609 -0.0480161 0.0802241)
(0.913571 -0.0380768 0.104712)
(0.857799 -0.049307 0.0126262)
(0.8653 -0.0595401 -0.0389514)
(0.94546 -0.0696394 0.082736)
(1.0223 -0.0494818 0.157653)
(0.978202 0.0227061 0.101913)
(0.913375 0.0796086 0.0473548)
(1.053 0.0259199 0.0346179)
(1.06803 -0.0437763 -0.00790841)
(0.894928 -0.0483902 -0.00194318)
(0.757196 -0.0182823 0.0519571)
(0.758583 0.0087216 0.0662893)
(0.799831 0.023594 0.0776762)
(0.794128 0.0231418 0.117318)
(0.828367 0.0290276 0.0877075)
(0.885111 0.0543467 0.00270452)
(0.922319 0.0604186 -0.0303289)
(0.952947 0.0304535 -0.0284041)
(0.972679 -0.0260274 -0.0281488)
(0.892784 -0.0597525 0.0478548)
(0.870855 -0.0265627 0.111806)
(0.979319 0.00239332 0.0226822)
(0.965858 0.0219019 -0.032988)
(0.971386 0.070655 0.00491541)
(1.08955 0.0812778 0.0412977)
(0.943809 0.0309468 0.0284792)
(0.854485 -0.00719538 -0.0204974)
(0.984499 0.00550802 0.00957167)
(1.02059 -0.00327808 0.0564266)
(0.936589 -0.0060504 0.0112926)
(0.945206 0.0315443 -0.025279)
(1.02729 0.038478 -0.023373)
(1.00835 0.0218071 -0.0506305)
(1.09231 0.0337241 -0.0679669)
(1.15015 0.0130872 -0.0861791)
(0.955055 -0.0260911 -0.0936122)
(0.90355 0.00507645 -0.0398624)
(1.02359 0.0185058 0.0139791)
(1.08101 -0.032679 0.0519931)
(1.02129 -0.0398817 0.104607)
(0.908838 -0.0297402 0.0815531)
(0.852602 -0.0443221 -0.0243844)
(0.851612 -0.0585403 -0.000948552)
(0.875953 -0.0787633 0.121806)
(0.907469 -0.0461314 0.15408)
(0.846621 0.0433393 0.0767473)
(0.944911 0.0791104 0.0477182)
(1.13315 0.0109463 0.0536981)
(1.02462 -0.0318366 -0.00368745)
(0.8073 -0.021017 0.0216102)
(0.671364 -0.00866482 0.0715609)
(0.71876 0.00383664 0.0695573)
(0.793819 0.0297444 0.0932808)
(0.742222 0.0326777 0.111757)
(0.778353 0.020629 0.0616755)
(0.887174 0.0476024 -0.0141341)
(0.93376 0.054207 -0.0563075)
(0.980372 0.0126334 -0.043492)
(1.01658 -0.0352344 -0.0200598)
(0.934238 -0.0514916 0.0449099)
(0.927503 -0.0147575 0.0997536)
(0.993544 0.017446 0.0265274)
(0.909978 0.0353404 -0.0232674)
(1.00149 0.0673383 0.00693903)
(1.07369 0.0780482 0.0505243)
(0.847615 0.0331152 0.0251649)
(0.877776 -0.0207912 -0.041818)
(1.07181 -0.010507 0.00555273)
(1.04465 -0.00214257 0.0623112)
(0.897839 0.0092677 -0.00772065)
(0.947134 0.0336226 -0.0378317)
(1.06112 0.0186045 -0.0242541)
(1.02804 0.0170737 -0.0554016)
(1.10367 0.0410636 -0.0820531)
(1.10491 0.0128625 -0.104719)
(0.904053 -0.0212935 -0.0791637)
(0.89401 0.00949901 -0.00862362)
(1.03911 0.00582636 0.0318421)
(1.05889 -0.0410606 0.0771508)
(0.996981 -0.0362027 0.123017)
(0.929604 -0.0252219 0.0599277)
(0.878776 -0.0365195 -0.0381423)
(0.761557 -0.0553892 0.0395743)
(0.666246 -0.062782 0.101273)
(0.653459 -0.0206726 0.0867753)
(0.71158 0.0529679 0.0202168)
(0.992605 0.0552183 0.0527702)
(1.10342 -0.00525589 0.0673889)
(0.967777 -0.0262143 -0.00564799)
(0.805394 -0.00298847 0.0300756)
(0.667416 -0.00243257 0.0580378)
(0.704298 -0.00445727 0.045698)
(0.76534 0.0366502 0.0812867)
(0.698556 0.0414882 0.0825003)
(0.749586 0.00752083 0.0255147)
(0.902824 0.0341 -0.0498561)
(0.950567 0.039168 -0.109259)
(0.971461 -0.00650252 -0.0648427)
(0.983883 -0.0456721 0.000654325)
(0.943638 -0.0492944 0.0591635)
(0.991149 -0.00395185 0.09353)
(0.995815 0.0353014 0.0247696)
(0.877952 0.0438003 -0.0268286)
(1.04821 0.0627213 0.0115673)
(1.02809 0.084101 0.0466018)
(0.83383 0.0367634 0.0115114)
(0.984039 -0.0328497 -0.0177434)
(1.07946 -0.0282253 0.0444229)
(0.919969 -0.00162577 0.0716266)
(0.803971 0.0249723 -0.0299532)
(0.95449 0.0314219 -0.0447366)
(1.04522 0.00440609 -0.0266041)
(1.00175 0.0224059 -0.0565814)
(1.09813 0.0507901 -0.0901519)
(1.04237 0.0140678 -0.110064)
(0.837851 -0.0171345 -0.0498347)
(0.882935 0.00953592 0.0297089)
(1.04065 -0.00352763 0.0526759)
(1.01187 -0.0425112 0.0898051)
(0.962153 -0.0267522 0.118781)
(0.973464 -0.0142898 0.0496693)
(0.919049 -0.0307859 -0.00562874)
(0.508896 -0.0353688 0.0377868)
(0.465114 -0.0556766 0.00324005)
(0.524507 -0.0402513 -0.0497985)
(0.735946 -0.00211487 -0.0638158)
(1.03234 0.00376018 0.0313593)
(0.951518 -0.0177871 0.0362015)
(0.797907 -0.0159162 -0.0211973)
(0.735274 0.0157759 0.0306951)
(0.674337 0.00717748 0.0361334)
(0.673743 -0.0108317 0.0244925)
(0.707205 0.038795 0.0639619)
(0.692288 0.046508 0.0490303)
(0.723482 -0.0066457 -0.00670963)
(0.863547 0.0109907 -0.0875084)
(0.94196 0.0199235 -0.126015)
(0.93457 -0.0209026 -0.0554765)
(0.912877 -0.0523326 0.022319)
(0.912759 -0.0465991 0.0782597)
(1.01417 0.00635893 0.0949357)
(0.974891 0.0513189 0.0187466)
(0.882884 0.0499582 -0.0324354)
(1.08684 0.0610573 0.0202358)
(0.946124 0.0912561 0.0275848)
(0.918065 0.0370122 -0.00285352)
(1.0686 -0.0356511 0.0360328)
(0.884524 -0.0251035 0.0646619)
(0.668793 0.00380563 0.0297154)
(0.720983 0.0296212 -0.044285)
(0.949763 0.0230926 -0.0337717)
(0.964809 -0.00185439 -0.0325078)
(0.94677 0.0291566 -0.0505457)
(1.07571 0.0566618 -0.083554)
(0.962338 0.0185562 -0.105539)
(0.770741 -0.0170907 -0.0222869)
(0.888156 -0.00198555 0.0625023)
(1.03867 -0.0108823 0.0678385)
(0.916708 -0.0363815 0.0734424)
(0.896232 -0.024017 0.0837559)
(1.01817 -0.0131148 0.0562134)
(0.84436 -0.014574 0.0444287)
(0.469287 -0.0291648 0.0249509)
(0.466524 -0.0629549 -0.0481638)
(0.48066 -0.0584204 -0.113808)
(0.596637 -0.0283848 -0.051753)
(0.697035 -0.00290266 0.0586758)
(0.623016 -0.0111081 0.0253214)
(0.628557 -0.0125146 -0.0267628)
(0.661053 0.0207669 0.0258263)
(0.678905 0.0125543 0.0151662)
(0.666135 -0.0133958 0.00194065)
(0.66195 0.0364492 0.0399367)