/*--------------------------------*- C++ -*----------------------------------*\
  =========                 |
  \\      /  F ield         | OpenFOAM: The Open Source CFD Toolbox
   \\    /   O peration     | Website:  https://openfoam.org
    \\  /    A nd           | Version:  10
     \\/     M anipulation  |
\*---------------------------------------------------------------------------*/
FoamFile
{
    format      ascii;
    class       volScalarField;
    location    "11";
    object      nut;
}
// * * * * * * * * * * * * * * * * * * * * * * * * * * * * * * * * * * * * * //

dimensions      [0 2 -1 0 0 0 0];

internalField   nonuniform List<scalar> 
25600
(
9.58673e-10
1.02327e-09
7.08151e-10
5.53268e-10
6.84947e-10
4.98294e-10
1.16452e-09
1.09954e-09
1.07826e-09
6.0678e-10
1.07345e-09
1.12192e-09
9.06305e-10
1.01771e-09
9.80212e-10
9.96403e-10
9.13043e-10
8.97488e-10
8.42166e-10
7.522e-10
8.65245e-10
8.07013e-10
1.02711e-09
1.26327e-09
1.02843e-09
1.03472e-09
1.29854e-09
6.68337e-10
6.32125e-10
8.51847e-10
8.95594e-10
1.12683e-09
1.17962e-09
1.1578e-09
8.89789e-10
9.48215e-10
1.08954e-09
9.73907e-10
9.98302e-10
1.11208e-09
9.61976e-13
8.08453e-13
6.41894e-13
1.88377e-13
3.45783e-13
2.35893e-13
6.48725e-13
9.06054e-13
2.48024e-14
1.66527e-13
2.38631e-13
3.0219e-13
2.36446e-13
3.90207e-13
5.06044e-13
2.81004e-13
2.14635e-13
4.42413e-13
4.2489e-13
1.04735e-13
7.03057e-14
1.40264e-13
3.9059e-13
4.56467e-13
4.68209e-13
1.0489e-12
1.59206e-12
1.35381e-12
3.13078e-13
3.04602e-13
3.24187e-13
2.70961e-13
9.78402e-13
6.76218e-13
3.5288e-13
4.37579e-13
5.82167e-13
3.33784e-13
7.49495e-13
2.04117e-12
1.40871e-09
1.57762e-09
1.40913e-09
1.71347e-09
2.17064e-09
1.14009e-09
2.2933e-09
2.20772e-09
2.03337e-09
6.32222e-10
2.09965e-09
1.55074e-09
1.46201e-09
1.79005e-09
1.73607e-09
1.25938e-09
1.67504e-09
2.49655e-09
2.1681e-09
2.07895e-09
2.66544e-09
1.12324e-09
2.94666e-09
1.6914e-09
1.86598e-09
2.22706e-09
2.25921e-09
8.12744e-10
1.2152e-09
1.31148e-09
1.79486e-09
2.44455e-09
2.43187e-09
1.59867e-09
1.94673e-09
1.52156e-09
1.87542e-09
1.69337e-09
2.26874e-09
2.57262e-09
6.66722e-14
1.54168e-13
2.17087e-13
2.61525e-14
4.68029e-14
3.82089e-14
1.93632e-13
3.6915e-14
1.16379e-12
3.47575e-12
2.20445e-13
5.46123e-13
1.99717e-13
6.14754e-14
4.8057e-14
1.17296e-13
4.49668e-14
1.7517e-14
8.73839e-14
2.28912e-13
5.66871e-14
1.08486e-13
3.47481e-14
1.04125e-13
6.61419e-14
9.06181e-14
2.51641e-13
4.22506e-13
3.48434e-13
7.33006e-14
5.75172e-14
8.28819e-14
7.33092e-14
4.84827e-14
1.00877e-13
1.7405e-13
5.71838e-14
4.54993e-14
3.87617e-14
4.69452e-14
8.18762e-10
1.07574e-09
1.8795e-09
1.36076e-09
1.57821e-09
1.15094e-09
4.99919e-10
1.78236e-09
2.15281e-10
7.44465e-10
1.10733e-09
1.1024e-09
6.88493e-10
8.20035e-10
1.32191e-09
1.0258e-09
6.95762e-10
6.17339e-10
7.68494e-10
1.15016e-09
1.0908e-09
1.19326e-09
6.75339e-10
4.88052e-10
9.57989e-10
1.64287e-12
3.60623e-10
1.5179e-09
1.14222e-09
1.49796e-09
1.25199e-09
8.82992e-10
1.03891e-09
7.43337e-10
4.68959e-10
8.30916e-10
4.60343e-10
1.1639e-09
6.39691e-10
1.16974e-09
2.89775e-14
1.14896e-13
1.28455e-13
1.67619e-13
1.09478e-13
4.59635e-13
6.41115e-14
4.36334e-13
5.81399e-13
6.19135e-14
5.70633e-14
1.6572e-13
1.47187e-13
2.61147e-14
1.87826e-14
1.1255e-13
3.81037e-14
8.60707e-14
2.55371e-13
5.65246e-12
1.47182e-13
3.66544e-14
2.22509e-11
2.66243e-13
3.87803e-14
4.26506e-13
1.131e-10
2.41693e-13
1.42628e-10
1.55635e-13
2.0451e-13
1.07098e-13
7.06239e-10
1.42653e-13
2.00218e-10
1.28754e-13
6.16233e-14
2.33599e-14
6.59437e-13
1.246e-13
6.00795e-13
5.2613e-10
9.36382e-10
1.25796e-10
7.12655e-10
7.07832e-10
1.26087e-09
6.2454e-10
7.60088e-11
3.28572e-10
7.06093e-10
1.39568e-09
9.94987e-10
5.90979e-10
5.94085e-10
2.81646e-10
4.41909e-10
1.33881e-10
1.07608e-09
4.04127e-13
4.36983e-10
6.0128e-10
4.35724e-10
1.67616e-09
3.70155e-13
6.32389e-10
1.94826e-09
3.09118e-10
7.96475e-11
2.31572e-10
4.21843e-10
5.45724e-10
1.78068e-10
2.64069e-10
2.06075e-14
2.10877e-10
1.4942e-09
6.30721e-10
3.46426e-10
8.04282e-10
1.35582e-13
4.49113e-12
9.66303e-12
9.2956e-14
4.83904e-13
2.82312e-13
2.32357e-13
3.85723e-10
3.16014e-13
3.13778e-13
1.10374e-13
2.25944e-13
1.03622e-13
4.3512e-11
2.86685e-12
1.77198e-13
5.72388e-14
3.70882e-14
1.0125e-12
1.6904e-12
3.43968e-14
1.08138e-13
8.10528e-13
1.33645e-13
7.76469e-10
9.03608e-14
1.32576e-13
5.29064e-10
8.5807e-14
3.39855e-14
2.13413e-14
1.20521e-13
1.60495e-10
2.60302e-13
1.1464e-13
5.62172e-13
1.6265e-13
8.9953e-14
6.49236e-14
2.28732e-10
4.17487e-13
6.72866e-10
6.83299e-10
2.39399e-10
6.29928e-14
1.90661e-10
5.56953e-10
5.54233e-10
1.41256e-13
8.29234e-10
7.93872e-10
1.76081e-10
1.72094e-14
1.12188e-12
4.2579e-10
2.63451e-10
5.78825e-13
6.09102e-10
2.94129e-10
8.33174e-10
7.33497e-10
8.02947e-13
1.37406e-12
3.34209e-10
2.88513e-11
1.20417e-10
4.30999e-10
6.97109e-10
5.76217e-10
5.16122e-13
9.76933e-14
3.11828e-10
1.85158e-10
2.93679e-10
8.76046e-10
2.17681e-10
6.18802e-10
6.38738e-10
6.59334e-10
1.21809e-09
8.27707e-14
1.80319e-13
6.74439e-10
1.76396e-13
1.84073e-10
1.70113e-12
4.17724e-10
5.89078e-13
3.38036e-10
8.04715e-14
3.90813e-10
9.0826e-10
1.38316e-13
9.92341e-14
2.40238e-10
6.84448e-13
1.89856e-13
4.48393e-13
3.12005e-14
8.01087e-12
6.86598e-14
2.32759e-13
7.22161e-12
9.15626e-10
4.83602e-14
3.0782e-13
7.14366e-10
5.50968e-13
1.62629e-13
9.17976e-12
1.72385e-10
8.42794e-14
1.25132e-10
6.7196e-14
5.9736e-14
1.40049e-11
5.32274e-13
6.48949e-13
3.01803e-13
8.56839e-11
1.27114e-13
3.88473e-13
5.27514e-10
2.88493e-13
4.06054e-13
3.22061e-10
9.60645e-13
6.25564e-10
5.84981e-13
1.27728e-10
5.08968e-14
2.66063e-10
2.92422e-13
3.45875e-13
6.05844e-10
3.97025e-10
2.3641e-13
2.60523e-13
8.50587e-10
7.95758e-13
1.69676e-13
9.98162e-14
8.42278e-10
6.23768e-13
1.1448e-09
3.41725e-10
7.47777e-10
8.33037e-10
6.57704e-10
1.8178e-10
6.01867e-14
2.61602e-11
1.02831e-09
6.46684e-10
4.50491e-10
2.60834e-10
4.45915e-10
1.81859e-10
4.98435e-13
4.52886e-13
5.74198e-10
5.24587e-10
8.42652e-10
5.08684e-10
3.95717e-14
1.1546e-12
1.20168e-12
2.50716e-10
2.11845e-12
8.85468e-14
9.39499e-10
7.85136e-13
2.19851e-13
2.16617e-10
5.24286e-10
7.0456e-13
4.83812e-13
3.39554e-11
6.54165e-11
8.62457e-13
7.06544e-10
1.57839e-12
7.12064e-14
8.73331e-13
1.01749e-12
2.37554e-13
1.0563e-11
9.32744e-10
1.64261e-12
6.46929e-14
1.60367e-14
2.57653e-13
9.6538e-14
3.84804e-13
5.08721e-10
3.84427e-13
2.12927e-10
7.05983e-13
1.95888e-10
1.79819e-09
4.02069e-10
6.4094e-10
6.62535e-10
1.11462e-10
5.87117e-13
2.78554e-13
6.35065e-10
2.64019e-12
2.23876e-10
9.9745e-14
1.45905e-14
6.38271e-13
6.82467e-14
4.91515e-10
3.80466e-12
1.76264e-12
1.12167e-13
4.35722e-13
7.9236e-13
1.32404e-09
2.88678e-10
3.36114e-13
3.00424e-10
1.07328e-09
7.725e-13
1.91161e-10
3.24729e-10
6.63355e-10
3.99589e-10
1.5319e-12
7.08963e-14
2.57622e-13
2.57546e-10
4.23614e-12
8.09084e-14
3.91429e-13
2.80266e-10
2.00932e-10
2.16978e-13
1.76847e-12
1.71868e-13
2.13332e-13
5.96053e-10
3.35435e-13
9.02329e-11
3.90665e-10
1.86739e-12
3.31398e-13
3.51598e-13
3.133e-10
1.58585e-10
9.82993e-10
8.20715e-11
1.48432e-13
3.34143e-10
5.69323e-10
1.02726e-13
2.69798e-13
4.26586e-11
2.35607e-10
1.58863e-12
1.31871e-13
2.59105e-12
3.24578e-13
2.02121e-13
9.65664e-14
9.22719e-11
2.61512e-13
3.73977e-10
3.3369e-10
5.97934e-14
1.70554e-10
1.33935e-09
1.6171e-13
4.76155e-14
2.48729e-13
1.07701e-12
1.53399e-13
1.55523e-13
1.03713e-13
4.63086e-10
2.1588e-10
1.29535e-09
2.65278e-10
1.45955e-11
5.9353e-10
6.53753e-10
9.90871e-12
4.04479e-10
2.22023e-13
8.74832e-10
5.31743e-10
2.93408e-13
2.90255e-13
7.11544e-10
8.69348e-10
3.99031e-13
9.96851e-11
7.09505e-12
1.64989e-10
2.1905e-10
2.53218e-13
3.94426e-10
1.00653e-09
1.01614e-13
1.43546e-13
2.95689e-10
4.09093e-10
1.74519e-13
1.38432e-13
1.16011e-12
3.28242e-13
1.17841e-09
1.03227e-09
3.88986e-13
1.14192e-12
3.37227e-13
7.1738e-13
6.17042e-10
1.45701e-09
2.18996e-13
4.04589e-10
3.35107e-10
2.04487e-12
1.65012e-13
6.05733e-13
6.23862e-10
6.76662e-10
1.03671e-10
2.42166e-13
5.25279e-14
2.46645e-13
6.33241e-13
2.41528e-13
1.49694e-13
7.72543e-11
1.2006e-13
1.46061e-12
1.94681e-10
6.12363e-11
3.6098e-10
1.37589e-13
1.01237e-13
1.96722e-10
3.22401e-10
4.72403e-10
4.80195e-10
1.17109e-09
8.1741e-10
1.03607e-10
5.69398e-13
3.51323e-12
1.00032e-12
1.38045e-09
4.71335e-10
1.38627e-13
3.59025e-10
1.05569e-12
1.70663e-13
6.07714e-14
5.43531e-14
8.80991e-14
6.03322e-11
2.43745e-10
6.23811e-13
6.0845e-13
1.40782e-12
1.20777e-12
3.91222e-10
2.18237e-10
2.13536e-10
5.91886e-10
3.36786e-10
2.5353e-11
2.48729e-10
8.69505e-13
2.31236e-13
1.05231e-12
1.02483e-10
4.16537e-10
4.47429e-10
8.36111e-13
3.39888e-12
2.96221e-12
1.54655e-10
3.13009e-10
6.1802e-10
6.44195e-10
2.99172e-11
2.90407e-10
1.11539e-13
2.1639e-13
1.54243e-09
4.56777e-13
1.14135e-13
1.59002e-13
3.10576e-13
1.03771e-13
3.51292e-10
4.71048e-10
2.06679e-10
4.43504e-10
2.65237e-10
9.65419e-11
1.93305e-13
4.97611e-10
1.5761e-10
1.60466e-13
1.43735e-12
6.62317e-12
1.22035e-10
4.94779e-10
7.05272e-13
4.29587e-13
6.52337e-10
5.48492e-10
5.73074e-14
8.28943e-14
1.76734e-11
4.16962e-10
5.3618e-10
1.4102e-12
2.33404e-10
4.01169e-10
4.91482e-14
1.21503e-13
5.54468e-10
1.13745e-09
9.56492e-13
1.13966e-13
2.52231e-13
1.50953e-13
9.83814e-10
1.20186e-09
1.96359e-13
1.34082e-13
2.29244e-10
1.94136e-12
9.46691e-14
5.55042e-10
2.19947e-13
1.00725e-13
1.07999e-12
5.75384e-13
2.06066e-13
1.31867e-10
9.4213e-10
6.43825e-10
2.98698e-10
8.23739e-11
1.67576e-13
4.26048e-13
7.36399e-13
1.16502e-13
1.31528e-12
5.58653e-10
1.15836e-13
5.50904e-10
5.83567e-13
2.81428e-12
2.50068e-10
2.28735e-13
2.66795e-13
7.11425e-10
6.25694e-10
5.2331e-10
6.17638e-10
8.48204e-10
5.68562e-10
4.11275e-10
1.92594e-13
6.73305e-15
2.3713e-13
4.61074e-10
1.66151e-14
8.0506e-14
4.93099e-10
2.18896e-10
2.60337e-13
3.91097e-13
3.30709e-10
2.70391e-10
3.60821e-10
9.81618e-11
3.9818e-13
3.17943e-14
1.47752e-13
1.32209e-10
1.36677e-10
1.60379e-10
2.77241e-13
5.72464e-11
2.01716e-13
1.71566e-13
3.25941e-10
2.03112e-11
8.90652e-14
2.7621e-11
4.70302e-10
5.90887e-10
7.91257e-10
2.33373e-13
1.92647e-13
3.4128e-10
5.23421e-10
1.35499e-13
2.14316e-13
1.50637e-10
4.0765e-13
1.60479e-12
1.59033e-13
3.44152e-14
2.01711e-10
3.20222e-10
6.72106e-14
3.1449e-13
8.32403e-14
5.05806e-12
1.13354e-10
2.6332e-10
4.18264e-10
4.76329e-11
1.48518e-13
1.58024e-10
2.69249e-10
1.9882e-10
3.22212e-10
5.62875e-11
5.83175e-13
6.89046e-13
5.67065e-13
1.07454e-10
1.6771e-13
1.57851e-10
4.98662e-10
2.70919e-10
1.6393e-13
1.35987e-14
4.53069e-14
8.72964e-14
5.46755e-11
1.24505e-11
9.58953e-14
6.63771e-14
9.01074e-14
8.50714e-14
5.14576e-12
4.51768e-11
1.42457e-13
3.96778e-13
1.88616e-13
5.35075e-14
7.17425e-10
3.27685e-10
5.49419e-11
4.48345e-13
2.88827e-10
2.20004e-10
1.75118e-12
2.08881e-10
1.06364e-13
6.53695e-13
3.44811e-13
9.43919e-13
7.26331e-11
2.50651e-10
8.11693e-10
5.9638e-10
8.37853e-14
6.53567e-13
2.03284e-13
1.23809e-11
1.3357e-12
2.91203e-14
7.90548e-14
1.71884e-13
1.40206e-13
1.26681e-10
3.47453e-11
1.09125e-13
2.54089e-13
5.35368e-13
1.12759e-13
3.8654e-13
2.07441e-10
8.10048e-11
3.75432e-10
8.47547e-10
4.97359e-10
3.38591e-10
2.86117e-10
5.62909e-14
4.27772e-12
1.81055e-10
2.97064e-11
2.8987e-13
4.55821e-13
4.93517e-13
1.06345e-13
3.45586e-14
5.79727e-11
4.77495e-13
5.04773e-13
1.3897e-10
4.2384e-13
1.42643e-13
1.48009e-12
3.50722e-13
3.03586e-13
5.50311e-10
1.59703e-10
1.3106e-13
2.17838e-13
1.09869e-13
1.9104e-10
3.88585e-10
1.40328e-10
2.64292e-10
9.94158e-11
1.51632e-13
5.14677e-10
3.17373e-10
1.88055e-10
5.94202e-10
3.62307e-10
5.93382e-11
2.63196e-10
3.65294e-10
3.94605e-10
5.15728e-10
3.96223e-10
2.42417e-11
4.40804e-10
5.74603e-10
2.52805e-11
1.89557e-12
6.92592e-14
2.19605e-13
6.40538e-11
3.27701e-10
3.52158e-10
2.34998e-10
8.96001e-12
2.5043e-13
4.26021e-10
2.8573e-10
5.07476e-10
6.04664e-10
1.54261e-13
4.91133e-14
3.03539e-13
1.1466e-11
1.16815e-10
3.55028e-13
3.52953e-10
3.99959e-10
1.95912e-13
6.82055e-12
2.11061e-10
4.72604e-12
3.373e-10
2.15584e-10
1.7552e-12
2.15834e-10
2.86915e-10
1.22488e-10
4.78776e-11
1.6605e-13
3.14025e-13
6.71941e-13
3.28353e-13
4.89184e-14
1.55836e-13
1.84528e-10
4.53422e-14
2.20296e-13
8.39541e-13
7.46471e-12
3.79103e-12
2.03469e-10
6.11031e-11
1.35294e-10
2.14497e-10
1.9321e-10
2.67523e-10
2.32126e-11
3.52819e-12
6.20892e-10
3.12635e-10
1.22147e-10
4.18017e-13
2.06731e-14
4.93384e-14
5.50198e-14
8.46644e-14
1.51989e-10
3.96982e-13
6.65352e-11
2.14352e-10
4.75625e-11
3.40709e-10
3.11017e-10
1.44356e-13
1.30725e-13
5.32656e-13
5.74408e-13
1.36074e-10
5.96251e-10
5.86278e-10
4.9831e-10
4.93702e-10
3.77655e-11
3.14832e-13
1.27998e-10
1.77403e-10
1.22566e-10
1.3359e-12
2.7003e-10
1.2029e-10
9.9281e-14
4.38643e-12
2.88175e-14
8.35319e-14
5.38727e-13
2.57181e-11
4.73249e-13
9.09103e-12
3.72892e-10
2.95172e-10
2.92427e-10
6.32899e-10
4.81062e-10
3.32884e-10
1.58225e-11
3.87257e-13
1.78514e-10
1.41338e-12
2.10976e-13
1.03133e-10
5.75185e-13
1.15642e-10
2.28419e-10
3.72009e-13
9.44364e-13
4.5585e-10
3.45917e-10
1.71077e-10
2.27043e-10
3.83303e-10
8.52402e-10
7.37946e-10
2.2999e-10
8.43562e-11
9.22865e-14
1.4131e-13
5.66918e-11
9.61163e-14
1.21137e-14
2.96681e-13
1.06809e-13
9.42473e-11
3.0883e-10
9.84062e-11
9.01983e-11
1.2746e-10
5.63169e-12
6.96683e-14
3.29215e-13
6.8708e-13
3.76181e-13
3.06924e-11
1.67086e-13
3.66174e-14
6.26083e-14
1.39191e-13
5.05397e-13
8.91777e-13
8.25219e-11
4.08427e-10
1.46341e-10
4.60341e-13
2.72286e-11
6.19095e-11
3.05376e-10
5.27884e-10
3.10183e-10
7.44137e-11
1.51509e-11
1.09113e-13
6.37498e-14
1.38937e-14
4.9799e-14
5.03564e-13
6.55937e-11
1.68928e-12
6.33231e-11
7.97329e-11
6.19622e-11
1.74666e-10
3.89088e-13
1.99166e-13
2.83003e-13
4.02688e-14
3.094e-13
6.26415e-11
3.30135e-11
1.2961e-10
2.55844e-10
4.11704e-10
2.95828e-10
1.26812e-10
4.51131e-13
1.92915e-13
2.50888e-13
8.66741e-13
6.21272e-11
1.48463e-11
8.93643e-13
6.37608e-11
6.10929e-13
2.41765e-11
2.24479e-10
1.14729e-12
1.43919e-12
1.55482e-10
1.31246e-10
1.95344e-10
2.88294e-10
1.11052e-10
1.71159e-10
1.74634e-10
2.07768e-13
3.51348e-13
5.97375e-13
3.38712e-13
1.57316e-10
1.04245e-10
9.93983e-14
3.42872e-12
1.28006e-12
2.60711e-13
2.24452e-13
1.17972e-13
9.78099e-14
2.05298e-12
1.9832e-13
8.85275e-13
1.39997e-10
8.10096e-11
7.70858e-11
1.19813e-10
1.82295e-10
2.56111e-10
2.71601e-10
1.62988e-10
1.7757e-10
1.8324e-10
2.97006e-11
1.20207e-10
9.13281e-11
1.33827e-11
8.99109e-11
2.40911e-13
2.50952e-13
2.06462e-12
4.45991e-13
6.33365e-11
7.70003e-11
2.73239e-13
4.84494e-11
4.90347e-11
3.96029e-13
6.48312e-11
1.25274e-10
7.53884e-11
1.90431e-10
3.00364e-10
1.0295e-10
1.80226e-13
4.83255e-11
1.00016e-10
8.42116e-12
1.90545e-10
8.95188e-11
9.12441e-11
7.41127e-11
3.69227e-13
5.04246e-11
4.88343e-11
1.3682e-10
1.54246e-10
8.23454e-12
5.53986e-11
8.54851e-11
2.93597e-13
3.41563e-13
1.65139e-10
7.97257e-11
3.20136e-11
1.54806e-10
9.3605e-11
8.40478e-11
1.24251e-10
1.19976e-10
9.6403e-11
4.71607e-11
5.77685e-11
4.84697e-11
4.38904e-11
1.82406e-10
2.86851e-10
2.0422e-10
1.2132e-10
8.04316e-11
7.29609e-13
1.61095e-13
2.16186e-11
3.59219e-11
4.65327e-12
1.63701e-10
2.96972e-13
3.67753e-13
1.30984e-10
6.05876e-11
3.82001e-13
1.47985e-13
2.95147e-14
2.4784e-13
6.80673e-12
1.09313e-10
1.28778e-10
3.96691e-14
1.42198e-13
1.60825e-10
3.20525e-13
1.98155e-13
2.42355e-10
1.97839e-10
4.29414e-13
1.19357e-10
1.3744e-10
2.42114e-13
4.064e-13
7.66256e-11
2.7861e-12
8.98936e-11
9.07445e-11
3.70666e-12
8.42746e-11
3.78285e-13
2.23853e-13
7.79975e-12
1.87773e-13
9.35695e-13
4.8501e-11
1.61488e-13
1.1654e-10
1.17087e-10
6.89027e-14
1.17584e-13
8.8683e-11
2.15761e-11
4.74941e-12
1.35267e-12
3.22342e-13
8.77039e-14
1.53007e-13
1.46513e-13
7.45905e-14
5.74415e-14
9.42685e-12
1.9991e-13
1.55558e-11
2.45616e-10
1.20357e-10
2.15688e-12
1.25856e-10
3.24074e-11
5.59132e-14
2.19809e-13
5.13537e-11
5.0777e-13
6.49743e-13
5.57174e-11
1.9071e-13
1.7223e-11
4.40341e-12
1.35728e-13
1.23034e-10
1.1425e-12
2.88074e-13
1.25918e-10
1.46606e-13
1.50474e-10
3.39933e-10
1.13463e-10
1.31559e-10
1.82222e-10
1.14065e-10
1.51547e-10
1.26032e-09
9.81988e-10
7.81051e-10
1.14126e-09
1.26219e-09
9.37438e-10
7.13531e-10
1.24419e-09
1.06531e-09
9.5323e-10
1.0381e-09
8.29998e-10
1.04116e-09
1.11667e-09
8.09807e-10
9.19561e-10
1.06577e-09
1.19906e-09
9.01995e-10
1.09265e-09
1.06675e-09
1.07048e-09
1.22763e-09
7.72524e-10
1.02095e-09
1.0697e-09
7.85829e-10
8.77785e-10
8.19539e-10
1.07435e-09
1.08056e-09
8.78176e-10
8.38796e-10
1.01131e-09
1.10844e-09
1.03458e-09
9.61674e-10
6.12491e-10
7.17676e-10
8.16193e-10
5.76516e-13
2.3112e-13
2.19903e-13
5.40089e-13
5.61042e-13
3.67988e-13
8.03651e-14
5.31146e-13
1.83584e-13
7.74576e-14
2.38854e-13
3.3744e-13
1.77408e-13
2.30449e-13
2.29322e-13
9.39628e-14
4.40794e-13
2.25021e-13
2.98193e-13
2.13463e-13
2.01701e-13
1.04535e-12
8.73106e-14
3.07356e-13
1.2919e-12
6.99964e-13
2.43662e-13
1.6113e-13
3.82846e-13
2.768e-13
4.86026e-13
3.72913e-13
1.76133e-13
2.86279e-13
4.14855e-13
5.51487e-13
4.75121e-13
3.74839e-13
2.7996e-13
6.02486e-13
1.9095e-09
1.77894e-09
2.1591e-09
2.27001e-09
1.9343e-09
1.29187e-09
1.80089e-09
1.73846e-09
3.04609e-09
2.47879e-09
2.09508e-09
1.29829e-09
1.74502e-09
2.08117e-09
2.05135e-09
1.82714e-09
2.23553e-09
2.09701e-09
1.97204e-09
1.88535e-09
1.71518e-09
2.212e-09
1.83521e-09
2.35603e-09
2.26791e-09
1.54157e-09
1.82331e-09
1.91926e-09
1.14584e-09
2.12833e-09
2.08976e-09
1.87631e-09
2.07949e-09
1.87127e-09
2.46994e-09
1.92574e-09
1.37314e-09
1.42912e-09
2.01864e-09
2.24602e-09
1.00923e-13
6.53118e-14
3.08134e-14
1.70718e-13
4.60624e-14
2.15216e-13
5.38355e-14
2.46939e-14
1.10172e-13
8.49784e-14
1.17956e-14
1.55819e-13
5.00005e-14
3.74627e-14
3.13311e-14
8.57823e-14
4.56675e-14
1.67785e-13
2.19125e-14
5.21645e-14
3.59475e-14
1.26686e-13
1.08806e-12
3.11943e-14
1.93546e-13
5.01521e-13
1.22315e-12
1.02013e-12
1.51053e-13
2.87464e-13
2.52997e-14
2.68967e-13
6.70661e-14
8.2712e-14
4.59265e-14
3.09916e-14
7.50819e-14
1.00237e-14
2.24259e-14
4.10972e-14
1.08876e-09
9.58711e-10
7.48732e-10
8.6987e-10
1.11927e-09
1.40406e-09
1.43269e-09
1.25824e-09
1.12433e-09
6.17599e-10
7.14439e-10
2.34475e-10
1.85742e-09
1.94714e-09
1.0964e-09
7.74903e-10
9.48037e-10
9.1047e-10
1.03663e-09
1.20405e-09
1.08407e-09
1.40492e-09
1.13466e-09
6.04478e-10
7.15823e-10
1.00185e-09
4.24123e-10
2.63085e-10
4.33701e-10
9.65548e-10
1.13938e-09
1.41797e-09
1.24787e-09
5.32408e-10
1.42025e-09
1.22653e-09
6.20475e-10
1.06096e-09
1.49047e-09
1.15975e-09
2.83917e-10
5.33152e-14
2.04836e-13
1.26232e-13
1.52842e-13
4.84856e-14
2.5373e-13
1.44936e-10
2.76931e-13
7.54415e-14
5.28344e-14
4.42331e-14
2.44874e-14
5.74587e-14
5.23097e-14
1.65048e-13
3.04787e-13
1.32488e-13
4.44379e-14
1.0695e-13
8.28727e-14
1.09078e-10
1.48461e-12
4.10619e-10
1.08777e-13
1.8954e-13
9.41887e-13
4.91761e-13
2.55037e-13
6.5039e-13
1.15606e-13
2.51297e-13
1.08531e-13
4.24205e-14
8.34634e-14
8.79322e-13
1.01511e-13
6.32425e-14
1.08854e-13
6.70979e-14
1.00282e-09
2.53768e-10
1.1399e-10
6.43747e-10
1.21113e-09
1.38557e-09
4.0473e-14
2.52343e-10
1.78069e-09
8.53532e-10
2.1474e-10
1.77325e-10
4.33787e-10
8.038e-11
1.91673e-10
4.06289e-10
5.63841e-10
1.195e-09
6.43789e-10
3.62866e-10
2.94622e-10
3.41035e-10
4.44202e-12
6.59697e-10
8.88678e-10
1.17021e-10
3.6477e-10
6.47724e-10
3.43482e-12
1.36723e-09
1.17925e-09
9.97742e-11
8.37731e-13
9.65266e-10
9.35859e-10
8.62236e-10
6.89808e-10
5.45413e-10
1.49222e-13
3.44118e-10
4.6551e-14
5.3674e-13
2.09638e-13
4.31669e-10
2.31461e-10
8.66531e-14
2.08716e-13
2.75378e-13
4.49328e-14
3.32764e-10
2.23417e-13
3.89358e-14
1.94043e-10
1.19107e-09
9.03165e-14
1.2404e-13
3.60179e-13
2.36867e-13
2.77109e-14
4.37503e-13
3.92244e-13
4.92935e-13
1.28166e-10
2.05889e-13
5.03133e-10
8.61227e-10
1.58985e-13
9.11992e-14
1.56747e-13
1.30871e-13
3.47265e-10
6.82565e-10
1.53153e-13
3.02108e-14
6.6508e-13
7.54258e-13
1.36824e-13
4.07212e-13
8.66313e-13
3.6847e-13
5.69838e-10
1.84744e-10
2.7372e-13
3.43158e-11
2.81925e-10
1.92422e-13
5.5885e-13
4.60776e-10
9.50257e-10
1.4442e-13
5.49732e-11
5.76791e-14
4.67847e-10
4.2644e-10
4.09535e-13
2.82733e-10
4.79047e-10
9.02707e-10
2.65898e-10
1.41665e-10
2.02302e-10
4.47965e-10
6.12782e-10
4.24659e-13
1.21741e-13
1.80045e-13
6.38842e-11
4.80486e-12
4.75026e-10
1.15956e-09
3.18509e-10
2.9821e-10
1.98073e-10
1.2956e-13
4.81212e-10
4.09957e-10
5.24742e-10
1.38299e-10
7.39561e-13
5.75419e-13
7.05861e-10
2.30911e-12
6.5057e-13
8.54844e-13
4.19691e-10
1.00482e-09
8.50585e-14
4.4099e-10
1.10789e-09
8.21195e-14
1.09338e-12
3.8265e-14
4.50507e-10
2.44199e-14
7.85065e-14
1.49933e-13
3.87573e-13
8.62712e-13
3.89724e-13
1.43896e-12
2.11314e-13
3.57021e-12
4.08911e-10
6.55426e-10
6.6575e-14
1.20637e-13
8.35283e-14
4.32097e-13
2.13766e-13
5.45714e-10
1.80181e-11
6.49104e-13
1.2341e-13
2.88534e-13
6.08776e-10
2.50819e-11
3.48066e-13
1.70245e-13
2.9323e-14
1.64238e-11
1.98316e-10
1.68804e-12
4.07138e-13
6.32552e-11
1.06921e-09
1.07155e-13
3.70128e-13
9.93397e-10
4.50471e-14
4.43934e-10
3.69642e-10
1.38429e-13
3.01412e-13
8.33434e-12
5.31687e-14
1.21091e-12
1.99333e-12
3.39464e-10
1.97048e-10
8.04189e-10
4.54098e-10
1.73073e-10
1.26294e-10
7.2265e-10
9.82992e-10
2.81307e-10
2.54737e-11
1.67068e-10
1.78671e-13
1.10245e-12
8.38186e-10
1.17178e-09
1.01423e-12
2.59596e-13
4.77424e-12
4.08663e-11
3.15484e-13
1.91053e-13
3.71802e-14
3.66774e-13
4.13996e-13
1.65042e-13
4.93776e-13
1.08174e-11
5.49322e-10
1.08449e-12
2.70132e-13
5.51929e-11
1.14656e-10
5.80905e-14
6.03594e-11
7.38676e-14
2.04458e-11
3.63011e-12
2.02715e-13
1.09657e-10
9.476e-11
5.50984e-10
5.23749e-13
6.60884e-14
1.85179e-13
4.05345e-11
3.04184e-13
7.87495e-13
1.78251e-13
5.01719e-13
2.42334e-13
1.9648e-13
2.64765e-10
5.20087e-10
4.87995e-10
4.49964e-10
5.79057e-13
1.24401e-13
9.60695e-12
3.77652e-10
2.09253e-12
7.4292e-13
1.09292e-10
6.20079e-13
3.59135e-10
1.12241e-12
1.38449e-13
6.29562e-10
5.39833e-10
9.50082e-10
2.98212e-10
3.84855e-10
6.26063e-10
6.58891e-14
3.01448e-10
7.97495e-13
6.18222e-10
5.93736e-13
2.33735e-12
2.76751e-13
3.41486e-10
2.13347e-10
4.28212e-10
3.91342e-13
7.52297e-10
4.77265e-10
8.99226e-10
2.61462e-13
5.28953e-13
6.61854e-10
4.25894e-13
1.04777e-13
9.72179e-14
1.81369e-10
9.06078e-11
5.51113e-10
6.15835e-13
1.96842e-13
2.49504e-10
5.5071e-10
1.64609e-13
7.69718e-13
2.65903e-14
7.5174e-13
3.40723e-13
1.41042e-11
9.96777e-14
3.30747e-13
1.06232e-11
1.51186e-13
4.0515e-13
4.706e-10
3.13099e-10
4.63285e-11
6.58201e-14
1.46504e-13
1.41978e-13
4.72707e-11
4.7989e-11
1.62058e-13
2.94561e-13
3.3692e-10
5.3501e-11
2.53039e-10
6.94686e-13
4.33156e-14
4.78274e-11
3.29582e-10
2.86486e-13
4.86887e-12
1.70872e-10
4.36151e-10
1.42586e-13
3.31315e-12
9.92225e-10
1.03848e-09
3.12493e-10
5.92578e-13
7.53731e-13
1.57413e-13
3.46528e-11
8.89771e-11
1.39698e-12
3.02428e-13
8.86802e-10
1.78326e-10
1.09393e-12
1.90041e-13
8.5771e-10
2.51797e-12
3.03722e-13
4.99488e-10
1.78611e-12
1.35549e-13
3.38962e-13
6.44919e-13
2.71101e-10
2.17956e-10
8.5682e-13
6.50136e-10
2.4004e-10
5.82559e-11
9.84574e-13
1.61598e-12
3.38524e-13
7.53219e-10
2.42539e-10
1.46243e-10
4.15446e-10
2.5636e-13
6.94678e-13
5.01724e-14
8.61359e-13
1.01859e-09
1.19884e-09
1.43652e-09
8.71061e-11
5.65962e-14
1.51547e-12
6.90913e-10
3.71827e-13
1.76302e-10
4.38914e-13
3.48343e-10
4.65255e-11
1.57234e-13
4.32133e-13
2.02475e-13
2.42826e-10
1.84637e-10
9.4208e-12
1.84173e-10
2.17698e-13
9.23905e-14
2.33292e-11
5.85979e-13
1.74921e-10
8.1708e-13
1.90105e-13
8.5761e-14
3.28692e-10
5.3461e-10
5.23095e-13
1.35636e-12
4.06999e-10
3.58829e-10
1.46159e-13
1.40851e-13
3.52339e-10
3.76169e-10
2.17969e-13
1.14705e-13
2.14506e-14
3.38057e-10
1.08811e-13
1.07438e-13
1.25934e-13
2.83532e-13
5.84117e-10
6.27899e-10
2.59927e-10
8.19955e-11
3.85929e-13
9.17714e-12
7.58312e-10
8.81354e-10
6.43764e-14
6.47906e-13
3.96911e-10
4.06867e-13
1.60398e-13
8.22453e-10
8.02818e-10
4.8103e-13
1.91882e-13
9.58667e-14
3.27807e-11
2.12913e-10
2.25663e-10
2.08953e-11
2.24399e-10
4.0119e-11
1.43297e-13
1.9325e-10
1.56686e-11
2.1434e-13
3.47152e-10
1.06341e-09
2.47513e-13
9.01364e-14
2.21144e-13
1.0765e-13
2.26197e-11
2.07695e-10
4.43976e-10
3.63721e-13
4.96875e-13
2.60125e-14
1.08109e-13
2.6933e-10
1.61579e-10
1.82144e-10
3.63096e-13
3.35574e-13
3.21078e-13
1.29645e-10
4.55571e-10
6.4915e-13
2.6102e-10
2.2096e-13
2.03103e-13
8.98736e-11
1.59087e-10
1.82421e-12
1.35867e-12
6.22137e-13
4.14493e-10
1.86046e-13
7.94789e-14
2.10048e-13
1.29844e-10
4.00747e-10
7.53677e-14
1.11655e-13
1.90841e-13
3.02289e-10
5.28809e-10
5.49852e-10
7.19576e-10
3.40104e-13
1.09742e-10
5.52219e-14
1.41608e-14
1.06022e-13
9.43634e-10
1.64386e-09
1.03492e-09
6.66722e-15
3.63676e-13
4.94662e-10
8.22245e-14
2.35368e-10
3.74951e-13
7.69855e-14
2.12984e-13
1.87245e-13
6.20392e-15
1.33682e-12
3.38389e-10
5.02512e-13
1.72265e-13
3.55976e-11
1.71305e-10
6.01831e-12
3.12836e-13
1.29077e-10
1.60376e-13
1.26085e-10
7.10222e-14
6.30287e-14
4.65813e-13
3.4632e-10
2.27178e-10
3.96282e-10
3.90697e-13
3.72943e-10
6.01417e-14
1.81134e-13
3.66941e-10
3.57816e-10
1.01046e-13
2.49564e-13
1.10874e-10
5.48678e-10
4.4979e-10
3.86306e-13
2.32157e-13
4.69365e-14
1.66863e-13
5.7562e-10
1.93049e-10
4.08639e-10
6.55062e-10
2.95279e-13
9.03131e-11
5.15161e-10
9.84647e-14
5.76536e-14
1.72976e-13
4.04627e-13
2.33846e-10
5.66755e-10
2.08986e-12
1.75521e-13
1.75116e-13
1.60299e-11
3.16165e-10
2.47212e-10
4.54302e-12
1.90698e-12
6.19149e-10
9.98694e-11
1.04877e-13
8.11124e-13
8.73662e-11
1.45455e-12
1.70855e-10
5.75428e-13
1.6068e-13
2.14566e-13
1.44035e-13
4.93981e-14
6.63368e-15
1.28793e-10
1.95533e-10
5.66691e-10
7.64274e-10
7.88877e-14
7.34667e-14
4.55488e-10
8.57813e-14
1.38516e-13
6.31966e-14
1.05031e-13
3.67802e-13
1.7452e-10
7.6496e-11
1.64193e-10
1.65495e-10
1.43948e-13
1.09152e-13
3.14382e-14
3.64547e-13
1.61958e-10
4.50275e-13
4.76083e-11
1.4906e-10
1.97859e-13
1.4889e-13
4.83328e-14
1.23113e-13
3.48166e-10
1.55599e-13
1.49676e-13
1.87168e-13
1.15706e-13
1.82095e-10
8.23694e-12
2.09953e-13
5.75742e-14
2.02691e-14
5.11424e-13
9.37383e-14
1.39965e-11
3.55022e-10
1.41951e-13
2.80581e-13
1.35404e-13
7.2111e-14
1.03496e-10
8.95219e-14
1.32031e-12
3.03084e-10
6.16853e-11
2.53785e-10
2.87032e-10
2.42311e-14
6.22659e-14
3.52173e-10
6.5257e-12
3.55374e-10
9.253e-14
4.97247e-14
1.4141e-10
6.31572e-11
8.08432e-11
2.7667e-10
4.68544e-10
5.66402e-10
2.04029e-10
4.28388e-10
4.41439e-10
2.70541e-13
1.22087e-10
4.72474e-10
4.06402e-10
3.88778e-10
1.04256e-11
1.87953e-10
9.4518e-11
7.48618e-14
4.36898e-14
7.42169e-14
1.74005e-13
3.89179e-10
1.39359e-10
2.10103e-10
8.24977e-14
1.80745e-13
7.74892e-10
3.97127e-10
3.05609e-13
2.56576e-11
1.33257e-10
1.76511e-13
3.14601e-10
1.41534e-10
4.65732e-13
6.57519e-11
6.84926e-14
5.77741e-14
2.93575e-10
5.17738e-13
1.1029e-12
1.31429e-12
1.24079e-10
3.96024e-10
2.80248e-10
1.01623e-10
5.82038e-14
2.8994e-11
3.45836e-10
1.19782e-13
1.11833e-13
2.22211e-13
1.04172e-13
1.68145e-13
5.54002e-13
6.56015e-11
4.22744e-10
1.81033e-12
3.86993e-14
5.56469e-14
1.08346e-13
1.74574e-13
2.18608e-10
4.38349e-10
1.87284e-12
1.29062e-13
2.40328e-13
1.36409e-12
1.22615e-10
9.62462e-11
1.92843e-13
4.09719e-14
7.30068e-14
8.09671e-14
9.51398e-14
2.49245e-10
1.52001e-13
3.84103e-14
3.59495e-14
2.57767e-13
2.33889e-11
6.57016e-14
1.0572e-13
8.85767e-13
6.80508e-13
1.05157e-10
7.97284e-14
8.76575e-14
8.64173e-11
1.44754e-13
1.71927e-13
1.16701e-10
2.42155e-13
1.72644e-12
3.22267e-10
4.97553e-11
2.85111e-13
3.31386e-13
1.65384e-10
3.37445e-12
1.69557e-13
9.11409e-14
5.3497e-14
8.14021e-14
1.48189e-12
5.15688e-13
9.46639e-11
1.10723e-13
2.17085e-13
6.86811e-13
1.54936e-13
1.71182e-10
2.02754e-10
2.21813e-13
3.10477e-14
2.4214e-11
1.55916e-11
1.61234e-13
1.79643e-10
7.05742e-14
1.69147e-13
2.86868e-13
7.46673e-14
2.73702e-12
1.3164e-13
1.06147e-11
7.0424e-13
1.22391e-12
2.65085e-10
1.60897e-13
1.24874e-13
3.31797e-13
3.27e-13
5.65134e-13
1.00051e-10
2.19139e-11
4.95902e-13
8.14803e-11
1.35021e-13
7.92057e-14
2.53003e-13
3.01292e-11
1.39646e-10
6.20431e-11
4.01238e-14
1.00166e-13
1.00089e-10
9.04201e-11
8.83003e-14
1.79544e-11
2.75361e-13
7.84587e-14
5.10766e-12
7.84049e-14
2.21113e-13
7.76099e-11
2.1384e-11
4.55254e-14
1.7428e-13
8.02389e-14
5.93567e-14
6.22144e-14
1.96849e-14
1.31894e-11
1.02585e-10
3.65296e-12
1.88796e-13
8.09745e-14
9.45369e-12
3.30453e-13
8.8704e-14
1.49899e-12
7.37689e-13
6.62853e-13
5.25397e-13
2.05143e-13
1.00692e-13
9.90418e-13
1.6706e-10
2.79738e-13
1.31431e-13
3.08174e-13
1.8633e-13
1.13165e-10
1.98159e-10
1.51317e-13
4.95591e-11
1.71446e-13
2.55178e-13
1.06973e-10
6.02072e-14
1.39296e-13
2.58181e-13
6.282e-14
6.37411e-14
1.5376e-14
1.5247e-13
3.42283e-11
6.80333e-12
1.35902e-13
1.39919e-13
4.73077e-13
1.38267e-13
1.83952e-13
9.34541e-13
7.24628e-12
8.59677e-13
4.83423e-13
1.68184e-10
1.85867e-10
7.17689e-11
3.26724e-10
2.21461e-10
4.30991e-13
6.3089e-13
3.9459e-13
2.04135e-13
1.6579e-12
1.59598e-10
9.39036e-14
7.81149e-11
9.58983e-11
1.35397e-13
3.5362e-13
2.61243e-13
1.46861e-13
9.77308e-12
5.19555e-13
5.93403e-14
2.792e-11
3.18133e-13
1.42995e-13
5.19578e-11
5.67037e-14
7.49245e-14
6.53592e-11
3.62098e-13
4.05171e-14
4.32671e-14
1.06268e-12
5.37099e-11
1.08619e-10
1.09596e-10
1.44439e-10
2.54004e-10
3.74749e-10
3.0234e-10
3.30511e-13
8.22468e-13
6.79797e-11
8.60469e-14
3.7295e-13
1.7705e-10
6.99741e-11
3.01505e-11
1.42367e-13
8.15707e-14
1.21954e-13
1.91927e-13
1.98174e-14
3.80201e-13
1.28033e-10
3.70358e-11
2.15831e-10
1.93305e-10
1.04558e-13
7.53699e-13
1.10377e-10
7.97023e-14
7.08959e-14
1.42305e-13
6.30203e-11
1.46598e-10
8.37394e-11
7.06115e-12
1.4518e-10
6.92387e-11
8.88315e-11
3.21465e-11
1.20932e-13
7.41697e-14
8.00069e-14
3.73796e-13
3.01245e-13
1.05822e-13
9.93675e-14
2.72197e-13
1.87006e-13
1.98988e-13
5.16895e-13
2.36961e-13
3.00893e-13
2.23453e-12
7.4276e-14
1.44248e-13
1.88707e-11
2.36387e-13
6.3588e-11
1.30701e-10
9.77139e-14
1.37416e-13
1.54678e-13
5.34975e-14
7.47781e-14
5.98402e-11
3.68277e-12
2.21153e-11
1.04956e-10
1.98138e-11
2.30345e-13
7.51832e-11
3.84555e-14
4.39053e-14
1.58933e-13
9.01475e-14
1.86449e-13
2.86512e-13
2.4466e-11
1.00257e-10
2.26145e-13
9.17493e-13
8.36117e-11
2.98736e-13
1.15548e-11
5.3747e-11
3.43872e-13
7.43406e-13
2.63534e-11
8.95275e-14
8.13423e-14
1.39698e-13
5.88369e-14
8.90207e-14
1.74682e-13
1.84253e-13
9.22178e-14
3.48991e-14