/*--------------------------------*- C++ -*----------------------------------*\
  =========                 |
  \\      /  F ield         | OpenFOAM: The Open Source CFD Toolbox
   \\    /   O peration     | Website:  https://openfoam.org
    \\  /    A nd           | Version:  10
     \\/     M anipulation  |
\*---------------------------------------------------------------------------*/
FoamFile
{
    format      ascii;
    class       surfaceScalarField;
    location    "1";
    object      phi_0;
}
// * * * * * * * * * * * * * * * * * * * * * * * * * * * * * * * * * * * * * //

dimensions      [0 3 -1 0 0 0 0];

internalField   nonuniform List<scalar> 
74080
(
0.00534485
-2.44187e-05
-0.000367395
0.00530951
-0.000100378
-0.000415176
0.00526067
-0.000141253
-0.000397053
0.005228
-0.000108547
-0.000329161
0.00521546
-1.43957e-05
-0.0002583
0.00521691
8.93774e-05
-0.000166122
0.00522855
0.000143664
-5.51357e-05
0.0052464
0.000111728
5.62088e-05
0.00526792
3.51317e-05
0.000112393
0.00528379
-3.57719e-05
5.22154e-05
0.00527939
-5.05924e-05
-0.000117052
0.00527341
-1.30637e-06
-0.000321928
0.00528962
5.12563e-05
-0.000448481
0.00533146
9.14902e-05
-0.000441538
0.00538273
0.000109016
-0.000316223
0.00542079
7.61268e-05
-0.000131421
0.00544841
1.57951e-05
4.56091e-05
0.00547396
-2.56626e-05
0.000150769
0.00549975
-3.84044e-05
0.000129966
0.00551364
-2.29491e-05
2.08683e-05
0.00549402
-2.35882e-05
-6.8247e-05
0.00545325
-6.6214e-05
-8.26126e-05
0.00540392
-0.000117431
-2.85047e-06
0.0053482
-0.000165076
0.000117439
0.00528903
-0.000184701
0.000180559
0.00521819
-0.000163198
0.000154205
0.00515277
-0.000131626
2.64329e-05
0.00512541
-8.11049e-05
-0.000143953
0.00515319
-1.55223e-05
-0.000282758
0.00524722
5.04998e-05
-0.000333123
0.00538284
0.000118251
-0.00028531
0.00549971
0.000154626
-0.000200065
0.00554786
0.000178648
-0.00011382
0.00550341
0.00018594
-5.64535e-05
0.0053966
0.000168189
-1.3405e-05
0.00529447
0.000142399
2.36703e-05
0.00524232
0.000110481
1.52304e-05
0.00525471
9.03081e-05
-2.99768e-05
0.00530454
7.21092e-05
-0.000129921
3.62087e-05
-0.000268726
0.00496643
-2.65691e-05
-0.00023873
0.00483829
-0.000101679
-0.000217098
0.00473557
-0.000151298
-0.000234777
0.00470127
-0.000147955
-0.00021355
0.00473451
-8.53768e-05
-0.00010433
0.00479887
-1.13424e-06
0.000110113
0.00486108
4.39375e-05
0.000348155
0.00488788
5.58374e-05
0.000453349
0.00487382
6.28376e-05
0.00035074
0.00483662
7.423e-05
8.79838e-05
0.00479889
0.000101312
-0.000184178
0.00479795
0.000118335
-0.000342479
0.00483942
8.96083e-05
-0.00034296
0.00489854
4.95671e-05
-0.000222443
0.00493648
2.8609e-05
-2.55734e-05
0.00492264
-6.29598e-06
0.000185189
0.0048883
-6.66689e-05
0.000333041
0.00488651
-0.000112902
0.000352882
0.0049181
-0.000108615
0.000210514
0.00494551
-4.63255e-05
1.11398e-05
0.00490864
1.65004e-05
-0.000123291
0.00481131
4.16407e-06
-0.000124898
0.00470946
-7.72858e-05
1.77536e-05
0.00464404
-0.000191807
0.000206324
0.00463501
-0.000267159
0.000313342
0.00466433
-0.000256264
0.000277086
0.00470374
-0.000195659
0.000112223
0.00475803
-0.000118865
-5.21143e-05
0.00482051
-3.12696e-05
-0.000129592
0.00488749
6.18454e-05
-0.000146297
0.00494998
0.000149556
-0.000165407
0.00498854
0.000202298
-0.000227775
0.0050081
0.00022362
-0.000252075
0.0050112
0.000212944
-0.000170272
0.00500057
0.000183832
-1.38148e-05
0.00499752
0.000161315
0.000111674
0.00501785
0.000140169
0.000102422
0.00505865
0.000122115
-2.01595e-05
0.00508658
8.66443e-05
-0.000155424
3.50689e-05
-0.000240003
0.00435017
-0.000134124
-6.34205e-05
0.00427748
-0.000204745
1.97036e-05
0.00424728
-0.000247919
-4.28083e-06
0.00426357
-0.00022668
-2.81164e-05
0.0042932
-0.000122407
3.939e-05
0.00430978
-3.88526e-06
0.00019745
0.00432974
5.90331e-05
0.000253819
0.00435814
0.000103334
0.000108444
0.00438836
0.000147421
-0.000107778
0.0044052
0.000181757
-0.000240785
0.00439699
0.000218882
-0.000216324
0.00437283
0.000204004
-0.000104778
0.00436566
9.84035e-05
-3.46211e-05
0.00439254
-9.9849e-06
2.59166e-05
0.00441371
-4.13535e-05
0.00013844
0.00438017
-2.84732e-05
0.000263522
0.00430558
-4.16074e-05
0.000298097
0.00424348
-8.93431e-05
0.000175287
0.004227
-0.000110064
-1.90311e-05
0.00424828
-6.89562e-05
-9.64246e-05
0.00426036
1.72593e-05
2.14203e-06
0.00424968
5.48243e-05
0.000150246
0.0042314
-1.4152e-05
0.000218213
0.00419728
-0.00014542
0.000165502
0.00414885
-0.000254793
3.09321e-05
0.00411248
-0.000268482
-0.000125724
0.00410297
-0.000215858
-0.000225887
0.00412764
-0.000166501
-0.000257942
0.00417564
-0.000101989
-0.000271405
0.00422884
2.35184e-06
-0.000301801
0.00428103
0.000120013
-0.000343832
0.00433595
0.000198825
-0.000312032
0.00438728
0.000218404
-0.000117084
0.0044191
0.000187615
0.000163051
0.00442885
0.000123399
0.000380376
0.00444162
6.7007e-05
0.000411852
0.00446762
2.40341e-05
0.000241383
0.00448482
-1.57637e-06
7.08387e-06
0.00447305
-3.94866e-05
-0.000151002
-8.44204e-05
-0.000173327
0.00368019
-0.000193016
-8.74168e-05
0.00367801
-0.000241522
-0.000148061
0.00370585
-0.00030796
-0.000105511
0.00375155
-0.000307902
9.63029e-05
0.00378611
-0.000182628
0.000315409
0.0038025
-1.75077e-05
0.000333602
0.00383058
9.2189e-05
7.01053e-05
0.00388542
0.000166492
-0.000255019
0.00394991
0.000187429
-0.000350087
0.00400049
0.000179436
-0.000213157
0.00400468
0.000196629
4.49802e-05
0.00396586
0.000175711
0.000215032
0.00394177
7.57583e-05
0.000167587
0.00393432
1.54209e-05
7.77604e-05
0.00389212
5.3427e-05
7.25765e-05
0.00380768
8.70637e-05
0.000100936
0.00373187
1.71676e-05
8.07191e-05
0.00371924
-0.000104416
3.40745e-06
0.00377406
-0.00015361
-2.5855e-05
0.00386389
-0.000100411
6.69556e-05
0.00392866
3.44646e-05
0.000185354
0.0039284
0.000116549
0.000173035
0.00386582
6.00908e-05
4.69423e-05
0.00378604
-7.52226e-05
-0.000110879
0.00373978
-0.00021974
-0.000232195
0.00372566
-0.000274646
-0.000266875
0.00370303
-0.000258863
-0.00025402
0.00366576
-0.000252217
-0.000283899
0.0036387
-0.00022786
-0.000348459
0.00364965
-0.000156929
-0.000337286
0.00372779
-6.56574e-05
-0.000214153
0.00386518
7.49132e-06
6.80081e-06
0.00398513
6.83363e-05
0.000260576
0.00401009
0.000136738
0.000333945
0.00394179
0.000148657
0.00019274
0.00384909
6.4992e-05
2.6843e-05
0.00379172
-6.13734e-05
-3.84964e-05
0.00376011
-0.000148503
-4.24433e-06
0.00373498
-0.00019272
1.18234e-05
-0.000196892
-2.39527e-05
0.00335396
-0.000106667
-0.000101878
0.00331934
-0.000180783
-0.000236613
0.00333226
-0.000281866
-0.000301779
0.0033783
-0.00031097
-0.000202492
0.00341813
-0.000188841
-2.34432e-05
0.00344916
1.79618e-06
2.22892e-05
0.00347988
0.000150046
-0.000101601
0.00351006
0.000233653
-0.000173874
0.00353524
0.000226982
-4.9493e-05
0.00355243
0.000175995
0.000161592
0.0035694
0.000141239
0.000337389
0.00360039
0.000107498
0.000345461
0.0036348
6.89344e-05
0.000195562
0.00362647
9.63057e-05
0.000103509
0.00356338
0.000171528
0.000134546
0.00349468
0.000162374
0.000212488
0.00347338
1.33852e-05
0.000243943
0.00351203
-0.000155193
0.000207669
0.00360222
-0.000203577
0.000167048
0.00369186
-0.000107655
0.000167251
0.00369297
6.28786e-05
0.000216411
0.00357955
0.000152868
0.000195746
0.00341723
8.44173e-05
6.01943e-05
0.00330849
-6.49043e-05
-0.000153098
0.00329386
-0.000198374
-0.000346791
0.00331806
-0.000264962
-0.000349469
0.00332373
-0.000278574
-0.000259004
0.00331674
-0.000271804
-0.000275962
0.00333733
-0.000243098
-0.000345471
0.00339815
-0.000199667
-0.000272971
0.00347387
-0.000146306
-4.49787e-05
0.00351285
-6.45284e-05
0.00017623
0.00349665
6.01834e-05
0.000196644
0.00345835
0.000147335
2.93334e-05
0.00343636
9.9054e-05
-7.8174e-05
0.0034428
-6.2346e-05
-5.27877e-07
0.00347142
-0.000185737
0.000123403
0.00349039
-0.0001793
0.000156057
0.00347492
-0.000133585
9.93103e-05
-0.000103502
1.81817e-05
0.0031501
6.40984e-05
7.94061e-05
0.0030453
-4.98516e-05
6.36855e-05
0.00301755
-0.000209435
-9.2893e-05
0.00305222
-0.000306343
-0.00022938
0.0030934
-0.000224473
-0.000288103
0.00311324
-2.52358e-05
-0.00032617
0.00312125
0.000157761
-0.000334489
0.0031464
0.000252626
-0.000245398
0.00319298
0.000234714
-9.18844e-05
0.00323618
0.000157446
2.82009e-05
0.00325856
8.88083e-05
0.000107346
0.00326431
4.71276e-05
0.000122804
0.00327293
2.66231e-05
0.000127478
0.00328354
0.000104456
0.000157724
0.00329583
0.000221567
0.000167396
0.00330123
0.00018975
0.000203858
0.00327026
-2.18991e-05
0.000283879
0.00321888
-0.000237254
0.000330526
0.0032147
-0.000263348
0.000237429
0.00327003
-0.000132432
8.86192e-05
0.00329975
1.64398e-05
7.01624e-05
0.00322346
7.18613e-05
0.000137292
0.00307656
3.16394e-06
0.00013118
0.00296517
-7.97802e-05
-6.17805e-05
0.00295072
-0.000130467
-0.000275724
0.00299654
-0.000171607
-0.00027931
0.00303244
-0.000194557
-0.000166296
0.00303722
-0.000203821
-9.75425e-05
0.00305275
-0.000206666
-6.26481e-05
0.0031206
-0.000190723
1.66854e-05
0.00322862
-0.000112327
7.30337e-05
0.00330801
3.17497e-05
3.72933e-05
0.00332198
0.000137922
-2.41509e-05
0.00328183
0.000117919
8.03884e-06
0.00320299
-1.81259e-06
0.00018181
0.00314724
-0.000129611
0.0002624
0.00317754
-0.000154064
7.70608e-05
0.00326568
-6.05681e-05
-0.0001649
0.00331745
2.28621e-05
-0.000197893
7.13749e-05
-4.74517e-05
0.00288016
0.000136077
4.56039e-05
0.00276194
0.000129807
0.000150391
0.00268974
-1.54994e-05
0.000106916
0.00269933
-0.000192166
-1.07905e-05
0.00274566
-0.000215795
-0.000159745
0.00279484
-6.30861e-05
-0.000306419
0.0028507
0.000143336
-0.000371733
0.0029133
0.000257425
-0.000299236
0.00295707
0.000239187
-0.000198847
0.00296948
0.000133289
-0.000146767
0.00294591
4.15397e-05
-0.00012642
0.00290872
7.8443e-06
-0.000123351
0.00292392
-8.77978e-06
-5.05886e-05
0.00302124
6.7763e-05
7.40911e-05
0.00312358
0.000187009
0.000162293
0.00312153
0.000193758
0.000200397
0.00299572
5.664e-05
0.000172479
0.00286081
-0.000128738
5.7196e-05
0.00282391
-0.000196735
-9.86439e-05
0.00285124
-0.000148094
-0.00016528
0.00284669
-9.02026e-05
-9.99565e-05
0.00276811
-7.78287e-05
1.92007e-05
0.00266737
-0.000132515
8.09672e-05
0.00262576
-0.000159522
1.01583e-05
0.00264262
-0.000131954
-7.89941e-05
0.00267444
-0.000114503
-0.000133782
0.00270548
-0.000120945
-0.000173157
0.00272693
-0.000157179
-0.000108456
0.00274598
-0.000192054
9.17324e-05
0.00279303
-0.000159578
0.000261321
0.00288974
-2.72255e-05
0.000207682
0.00298976
0.000100216
8.93172e-05
0.00301452
0.000110627
0.000121568
0.00293824
2.12137e-05
0.000288009
0.00279477
-3.87907e-05
0.000387915
0.00267446
-3.44234e-05
0.000176756
0.00264882
1.37394e-05
-0.00023992
0.0027308
3.5096e-05
-0.000496405
0.00286673
1.33423e-05
-0.000429177
5.29816e-05
-0.000184881
0.00252891
0.000123026
-0.000262024
0.00255643
0.000153708
-5.55854e-05
0.00257148
5.69321e-05
0.000163083
0.00258792
-0.000113589
0.00028904
0.00259489
-0.000138939
0.000196022
0.00258528
2.70965e-05
-2.2986e-05
0.00259692
0.000233108
-0.000168497
0.00264239
0.00030247
-0.000175832
0.00268539
0.00022807
-0.000128175
0.00267796
0.000112134
-7.69669e-05
0.00260694
8.12915e-05
-5.00407e-05
0.00253535
0.00011033
-3.24094e-05
0.00256495
7.90275e-05
2.21762e-05
0.00270314
7.03341e-05
0.00012641
0.00280812
0.000143827
0.000222783
0.00276612
0.000230502
0.000219904
0.00261217
0.000183949
0.000100281
0.00246252
-3.94313e-05
-8.84864e-05
0.00239992
-0.0002215
-0.000212467
0.00238874
-0.000278386
-0.000174666
0.00238004
-0.000255347
-7.17702e-05
0.00235849
-0.000204869
2.58095e-05
0.00233793
-0.000210505
5.32009e-05
0.00235648
-0.000206971
-1.1776e-05
0.00237664
-0.000139435
-5.10732e-05
0.002352
-7.88948e-05
-6.81199e-05
0.00231813
-5.95065e-05
-0.000124467
0.00232466
-8.94625e-05
-0.000149476
0.00238798
-0.000123328
-5.17549e-05
0.00248968
-4.85552e-05
5.97026e-05
0.00260755
9.90902e-05
9.16777e-05
0.00269529
0.000155333
0.000116268
0.00269648
9.31332e-05
0.000125606
0.00261921
1.1216e-05
0.00010384
0.00251255
2.27502e-05
9.53921e-05
0.00244386
0.00011573
1.34933e-05
0.00243499
0.00019124
-0.00013933
0.00245748
0.000140299
-0.000250853
0.00247586
5.65916e-05
-0.000308449
6.65688e-05
-0.000340655
0.00218192
0.000123997
-0.000342876
0.00226701
0.000119903
-0.00011258
0.00233577
3.92464e-05
0.00011064
0.00234969
-6.62116e-05
0.000237754
0.00233199
-5.85378e-05
0.000213175
0.00234519
8.40771e-05
9.20163e-05
0.00241804
0.000227702
1.74257e-05
0.00249346
0.000238658
-1.40913e-06
0.00249315
0.000165337
-3.484e-06
0.00241054
0.00012316
1.49293e-05
0.00231701
0.000179884
4.41855e-05
0.00229645
0.000231052
7.6538e-05
0.00236012
0.000169007
0.00010261
0.00243937
0.000121476
0.000151371
0.00247104
0.000172696
0.000215924
0.0024647
0.000252834
0.000212531
0.00244057
0.000176776
0.000124234
0.00239254
-8.93771e-05
-3.2041e-05
0.00234803
-0.000300237
-0.000181394
0.00232667
-0.000377341
-0.000218699
0.00230865
-0.000337766
-0.00014839
0.0022622
-0.000250747
-6.69281e-06
0.00220292
-0.000236779
8.47797e-05
0.00217698
-0.000220611
5.86182e-05
0.00216955
-0.000122956
-9.17439e-06
0.00214749
-3.61634e-05
-6.01362e-05
0.00212022
2.59961e-06
-0.00011003
0.0021118
-1.16561e-05
-0.000108785
0.00215113
-4.19235e-05
-6.27985e-06
0.00224593
4.35027e-05
7.97512e-05
0.00237304
0.000152117
8.00966e-05
0.00247009
0.000144069
3.20749e-05
0.0024779
9.6263e-05
-4.72229e-05
0.00240108
8.64872e-05
-5.4775e-05
0.00229747
0.000112816
6.77401e-05
0.00224421
0.00017906
0.000142232
0.00223952
0.00022639
6.78442e-05
0.00222679
0.000164454
-8.71237e-05
0.00217458
0.000115202
-0.000268632
0.000124436
-0.000406772
0.0019803
6.60786e-05
-0.000235415
0.00208578
1.80707e-05
-3.27957e-05
0.00215242
-9.96396e-06
0.000130704
0.00214526
-6.0394e-06
0.00020194
0.00210039
4.17729e-05
0.000176673
0.0020968
0.000106808
0.000116364
0.00215614
0.000140842
9.0789e-05
0.00220255
0.000113874
6.95386e-05
0.00218285
9.68083e-05
4.08742e-05
0.00213168
0.000138129
5.72203e-05
0.00211655
0.000237854
0.000114864
0.00214012
0.000299408
0.000161234
0.0021488
0.000243739
0.00015472
0.00215059
0.000172968
0.000131368
0.0022013
0.000171632
0.000129627
0.00227794
0.000229452
0.000102527
0.00226534
0.000191068
1.8685e-05
0.00213617
-5.0134e-05
-9.13073e-05
0.00202148
-0.000288848
-0.000181646
0.00199641
-0.000423195
-0.000195564
0.00201596
-0.000411076
-0.000125369
0.00201132
-0.000310444
-3.5048e-06
0.00197917
-0.000269374
9.10719e-05
0.00196409
-0.000229851
9.92872e-05
0.0019693
-0.000107726
5.52511e-05
0.00196438
-2.08459e-05
4.00457e-05
0.0019414
1.64846e-05
1.22206e-05
0.00193178
2.1566e-05
-3.12125e-05
0.00197883
8.3402e-06
-1.78897e-05
0.00207283
9.33111e-05
1.36752e-05
0.00215831
0.000186794
3.85486e-06
0.00218367
0.000174994
-6.06056e-05
0.00214906
0.000152265
-0.000131172
0.00208918
0.000149805
-8.38794e-05
0.00204075
0.000138961
5.28293e-05
0.00202007
0.000178474
0.000111852
0.0020029
0.000214903
3.32153e-05
0.00197164
0.000147108
-9.8637e-05
0.00192506
0.000109688
-0.000226213
0.000117609
-0.000314807
0.00183324
3.2846e-05
-0.000119003
0.00190513
-3.88382e-05
3.96722e-05
0.00195833
-4.29753e-05
0.000173254
0.00194886
1.60301e-05
0.000250772
0.00189152
6.32812e-05
0.000252587
0.00185925
3.31779e-05
0.000227857
0.00188081
-2.19731e-05
0.000198587
0.00190747
-2.33545e-05
0.000100506
0.00190805
5.46034e-05
1.72185e-05
0.00190755
0.000146196
7.06299e-05
0.00192207
0.000267635
0.000179592
0.00191009
0.000364504
0.000219055
0.0018672
0.000314011
0.000155618
0.00188657
0.000171996
8.48262e-05
0.00202195
9.64685e-05
4.9918e-05
0.00215233
0.000173986
-1.20561e-06
0.00209009
0.000220437
-5.38619e-05
0.00186503
2.41618e-05
-8.69383e-05
0.00168393
-0.000256832
-0.000111772
0.00164323
-0.000457681
-0.000104935
0.00168772
-0.000478682
-4.20389e-05
0.0017314
-0.000351872
2.76955e-05
0.00174736
-0.000277503
7.58291e-05
0.00176484
-0.000223147
6.38846e-05
0.0017941
-0.000115165
4.91074e-05
0.00181128
-4.76015e-05
0.000101524
0.0017971
4.84269e-06
0.000129506
0.00177936
3.20507e-05
9.63275e-05
0.00179925
2.68722e-05
4.52694e-05
0.00185854
0.000104625
-1.29425e-05
0.00192163
0.000188782
-4.62521e-05
0.00194079
0.000189731
-8.45241e-05
0.00191118
0.000198227
-0.000118797
0.00186643
0.000190798
-7.024e-05
0.00184133
0.000142634
2.94184e-05
0.00183826
0.000172425
5.73594e-05
0.0018356
0.000215064
-3.34893e-05
0.00182671
0.000127507
-0.000128679
0.0018079
9.51602e-05
-0.0001941
0.000114438
-0.000215322
0.00170625
-2.37847e-05
4.54118e-05
0.00174541
-0.000107871
0.000149747
0.00179223
-7.15365e-05
0.000180676
0.00179276
2.31932e-05
0.000221319
0.00174801
1.50559e-05
0.000278359
0.00171511
-0.000117578
0.000303729
0.00172027
-0.000179758
0.000250756
0.00173256
-8.6668e-05
0.000124666
0.00172692
5.45542e-05
7.94283e-05
0.00171763
0.000152442
0.000153442
0.00170892
0.000303145
0.000210637
0.00168296
0.000425405
0.000192008
0.0016715
0.000321837
0.000138713
0.00173444
0.000107603
8.05229e-05
0.00186358
3.20833e-05
-1.33703e-05
0.00192155
0.000166842
-8.94839e-05
0.0017928
0.000253885
-8.26699e-05
0.00158307
4.85726e-05
-6.3078e-05
0.00144945
-0.000243866
-8.59532e-05
0.00142466
-0.000437048
-0.000103649
0.0014747
-0.000463831
-5.91037e-05
0.00154117
-0.00033083
1.45603e-06
0.0015911
-0.000236542
2.74097e-05
0.00162989
-0.000172421
1.84779e-05
0.00165211
-8.16478e-05
3.71251e-05
0.00163917
-4.38445e-05
0.000121536
0.00160307
-8.5718e-06
0.000179529
0.0015911
2.422e-06
0.000172653
0.00163099
-4.89641e-06
0.000104232
0.00170997
7.50323e-05
1.68349e-05
0.00177808
0.000171136
-2.11913e-05
0.00178675
0.000215027
-5.98495e-05
0.00174799
0.000258016
-8.69198e-05
0.00169703
0.000235645
-3.28413e-05
0.00166176
0.000158177
4.65289e-05
0.00164448
0.000194941
4.12644e-05
0.00163871
0.000228887
-6.78643e-05
0.00166193
8.3824e-05
-0.000161188
0.00169362
5.08286e-05
-0.000184194
8.80655e-05
-0.000104932
0.00156499
-0.000203127
0.000175916
0.00162047
-0.000270157
0.000251904
0.00164898
-0.000114763
0.000202521
0.00163071
4.86882e-05
0.000181497
0.00159694
-1.25408e-05
0.000214591
0.00157471
-0.000189086
0.000202541
0.00156503
-0.000196302
0.00012029
0.00155744
-5.92881e-05
5.65674e-05
0.00154967
5.55298e-05
9.65212e-05
0.00154852
0.000149037
0.000155785
0.00154161
0.000349206
0.000159613
0.0015303
0.000463722
0.000148062
0.0015515
0.000273552
0.000136837
0.0016127
3.95532e-05
7.62216e-05
0.00167538
1.84722e-05
-4.02292e-05
0.00166464
0.000176067
-0.000102917
0.00154101
0.000262409
-7.28472e-05
0.0013793
5.96866e-05
-2.83618e-05
0.00126255
-0.000211181
-3.87193e-05
0.00122731
-0.000388692
-8.5817e-05
0.00127311
-0.000425717
-8.9105e-05
0.00135512
-0.000288227
-5.06366e-05
0.00143304
-0.000177111
-3.11867e-05
0.00148957
-0.000103921
-2.8102e-05
0.00149909
-2.45858e-05
3.37286e-05
0.00146269
-2.53425e-05
0.000152439
0.00142367
-1.9751e-05
0.000203387
0.00141669
-2.32764e-05
0.0001508
0.00145748
-4.57793e-05
3.74946e-05
0.00153757
2.22819e-05
-4.62014e-05
0.00159596
0.000154338
-6.19125e-05
0.00159646
0.000260611
-8.52247e-05
0.00157175
0.000310163
-7.80928e-05
0.00154817
0.000243458
1.71912e-05
0.0015235
0.000159559
9.5892e-05
0.00148527
0.000247966
4.49297e-05
0.00144213
0.000270249
-7.20559e-05
0.00143703
5.39106e-05
-0.000159508
0.00147654
-1.10861e-05
-0.000163702
-1.88786e-05
-2.20526e-05
0.00143363
-0.000352295
0.000243659
0.0014658
-0.000357795
0.000248523
0.00149099
-0.00011761
0.000148475
0.00148503
6.61767e-05
0.000129406
0.00143452
-4.68348e-06
0.000163945
0.00137077
-0.000155397
9.92377e-05
0.00135493
-0.000127886
-2.75784e-05
0.00139173
-2.6566e-05
-5.39301e-05
0.00143621
2.5342e-05
4.68643e-05
0.0014553
0.000130519
0.000130133
0.00144312
0.000367179
0.000161418
0.00142496
0.000459253
0.000169793
0.00143335
0.000227151
0.000132838
0.00146805
1.09629e-06
5.02829e-05
0.00150208
-1.52741e-05
-3.35968e-05
0.00149508
0.00012538
-7.94873e-05
0.00140733
0.000254067
-6.78156e-05
0.00126374
0.000111612
-1.65851e-05
0.00113947
-0.000147746
3.6749e-06
0.00109608
-0.000362816
-3.21386e-05
0.00113189
-0.000423272
-6.37857e-05
0.00120665
-0.000258477
-6.86393e-05
0.00129237
-0.000134309
-6.68323e-05
0.00135295
-5.3545e-05
-5.41726e-05
0.0013416
4.80744e-05
3.46328e-05
0.00128486
2.74992e-05
0.000158604
0.0012566
-3.64652e-05
0.000189562
0.00127277
-9.65643e-05
0.000107635
0.00131455
-0.00013021
-3.19746e-05
0.00136641
-4.84506e-05
-0.000107138
0.00139654
0.000116269
-9.23574e-05
0.00139828
0.000257314
-8.96763e-05
0.00139484
0.000299994
-4.52395e-05
0.00139246
0.000203343
6.89049e-05
0.00138207
0.000132852
0.000110438
0.00135811
0.000269671
3.08699e-05
0.00131787
0.00030436
-5.93619e-05
0.00129841
5.89397e-05
-0.000127313
0.00134935
-7.39946e-05
-0.000109123
-0.000157072
6.60632e-05
0.00127594
-0.000324064
0.000215698
0.00123521
-0.000283757
0.000111344
0.0012794
-8.39232e-05
-4.91548e-06
0.00132223
8.01229e-05
4.66471e-05
0.00125928
6.39911e-05
0.000111101
0.00116384
-5.83933e-05
4.27504e-05
0.00114583
-7.97586e-05
-5.45378e-05
0.00119891
-6.23412e-05
-7.8421e-05
0.0012769
-5.42725e-05
-2.2355e-05
0.00134493
6.6072e-05
7.40893e-05
0.00136983
0.000337217
0.000156767
0.00134936
0.000456738
0.000160274
0.0013102
0.000246556
0.000100518
0.00130117
-2.06838e-05
4.72215e-05
0.0013298
-0.000116315
-1.46421e-05
0.00134662
2.69817e-05
-8.83811e-05
0.00129442
0.000248511
-8.91125e-05
0.00119214
0.000157082
-1.13789e-05
0.00109853
-0.000102586
4.46596e-05
0.00105431
-0.000340402
4.75219e-05
0.00107295
-0.000410471
2.69745e-06
0.00112879
-0.000219068
-4.33782e-05
0.00118646
-9.78416e-05
-5.40327e-05
0.00122128
-1.55085e-05
-3.78858e-05
0.0012023
0.000133642
3.99798e-05
0.00115237
9.88075e-05
0.0001256
0.00114587
-6.90846e-05
0.000136179
0.00117501
-0.000200478
7.8069e-05
0.00119339
-0.000221926
-4.28384e-05
0.00120839
-0.000107049
-0.000125683
0.00121863
8.17774e-05
-0.000120877
0.00122319
0.000242115
-0.0001121
0.00124613
0.000253257
-3.46173e-05
0.00126116
0.000140417
7.47495e-05
0.00124216
0.000111741
8.20486e-05
0.00122517
0.000277921
1.76986e-05
0.00121624
0.000318234
-4.2777e-05
0.00123324
3.91667e-05
-9.50478e-05
0.00131247
-0.000173843
-4.65933e-05
-0.000236253
0.00012372
0.00106862
-0.000191577
0.000108941
0.0010351
-0.000203938
1.21999e-06
0.00109523
-7.31271e-05
-4.53582e-05
0.00115583
0.000100759
3.06527e-05
0.00112786
0.000138893
4.99941e-05
0.00105104
1.72961e-05
1.89631e-05
0.00101212
-8.22399e-05
1.27237e-05
0.00103491
-0.000175952
-3.21996e-06
0.00109752
-0.000183173
-4.19263e-07
0.00117884
-7.9055e-06
7.83961e-05
0.00124808
0.000293127
0.000146909
0.00124431
0.000454525
0.000108494
0.00116873
0.000284765
6.04595e-05
0.00113759
-4.59869e-05
5.35533e-05
0.00117595
-0.000216861
-1.49565e-05
0.00120309
-4.08123e-05
-0.000116234
0.00118553
0.000241404
-0.000104677
0.0011623
0.000152696
-4.77149e-06
0.00112335
-7.68937e-05
7.18289e-05
0.0010469
-0.000290087
0.000106251
0.00100551
-0.000368943
5.11851e-05
0.0010292
-0.000172888
-4.50651e-05
0.0010688
-5.83268e-05
-5.10158e-05
0.00110703
1.48574e-05
1.60235e-06
0.0011259
0.000169181
6.89285e-05
0.0011252
0.000104572
0.000100894
0.00112114
-8.68355e-05
9.88274e-05
0.00108665
-0.000218668
0.000106018
0.00105959
-0.000267682
2.4184e-05
0.00107655
-0.000164376
-0.000106836
0.00108933
5.84332e-05
-0.00016406
0.00110508
0.000214606
-0.000135011
0.00115018
0.000194122
-3.47468e-05
0.00115326
0.000123307
4.30916e-05
0.00110428
0.00014665
3.9462e-05
0.00109587
0.000296176
6.84525e-06
0.0011374
0.000302455
-3.36704e-05
0.00119192
-9.38599e-06
-4.63181e-05
0.0012314
-0.000208153
2.02605e-05
-0.000164817
0.000111788
0.000941949
-0.000114226
3.86898e-05
0.000947839
-0.000172499
-2.79767e-05
0.000975998
-5.45354e-05
-6.18353e-06
0.00101159
0.00012398
6.34323e-05
0.00102206
0.000164658
3.22121e-05
0.000969194
5.11452e-05
1.36827e-05
0.000897309
-8.57729e-05
2.61257e-05
0.000887689
-0.000292444
2.3666e-05
0.000957691
-0.000316549
6.58308e-05
0.00105141
-6.34825e-05
0.000156646
0.00112482
0.00027832
0.000157389
0.00113
0.000459133
6.43703e-05
0.0010684
0.000286531
3.74297e-05
0.00103656
-8.01918e-05
5.63963e-05
0.00105279
-0.000241621
-2.66796e-05
0.00106185
-2.56878e-05
-0.000128132
0.00106535
0.000238864
-8.05355e-05
0.00109886
0.000113255
2.84591e-05
0.0011024
-7.64334e-05
8.51492e-05
0.00101147
-0.000229424
0.000101083
0.000919788
-0.000298743
5.03631e-05
0.000903047
-0.000103558
-3.64922e-05
0.000933352
-1.57994e-05
-3.60574e-05
0.000995681
2.66472e-06
1.71363e-05
0.00106622
0.000121714
5.47878e-05
0.00112318
5.95548e-05
5.47377e-05
0.00111485
-6.20641e-05
8.306e-05
0.00101093
-0.000150721
0.000139868
0.000925358
-0.000244491
5.2676e-05
0.000911599
-0.000164677
-0.000116674
0.000930899
5.26855e-05
-0.000163258
0.00098329
0.000143705
-5.65065e-05
0.00103551
0.000128845
2.99699e-05
0.00101902
0.000146509
3.44774e-05
0.000976172
0.000203583
2.1373e-05
0.00100759
0.000321583
1.6376e-05
0.00107532
0.000294412
9.97231e-06
0.0010911
-1.9108e-05
3.15996e-05
0.00105477
-0.000160435
6.19632e-05
-6.28701e-05
7.34679e-05
0.000842032
-0.000100344
3.60945e-06
0.000866709
-0.000173775
-1.90829e-05
0.00090619
-6.78829e-05
4.96586e-05
0.000945212
0.000105
0.000105391
0.000927294
0.000167468
4.86038e-05
0.00083278
7.86657e-05
3.23816e-05
0.000753228
-8.87728e-05
2.15893e-05
0.000760118
-0.000382026
1.96214e-05
0.000835968
-0.000410324
0.000126185
0.000920345
-9.95666e-05
0.000207725
0.000999311
0.000250072
0.00014063
0.00102805
0.000431576
4.18735e-05
0.000980064
0.000249672
3.3686e-05
0.000938391
-0.000107355
3.24715e-05
0.00092902
-0.000208334
-5.38785e-05
0.000917174
3.6571e-05
-0.000122346
0.000934845
0.000222946
-5.05926e-05
0.00100763
2.8039e-05
6.90186e-05
0.00103443
-9.42217e-05
0.000111281
0.000939761
-0.000149104
8.33117e-05
0.000833557
-0.000198491
1.72887e-05
0.000806015
-2.51644e-05
-2.99089e-05
0.00082486
1.85202e-05
-1.81451e-05
0.000876167
-3.52247e-05
1.66385e-05
0.000963006
4.60468e-05
2.60808e-05
0.00105565
8.60763e-06
1.8147e-05
0.00104485
-2.55012e-05
6.48981e-05
0.000901303
-6.22718e-05
0.000109185
0.000773954
-0.000177726
5.20449e-06
0.000751416
-0.000135917
-0.000116798
0.000808471
5.18109e-06
-7.19793e-05
0.000873948
2.66471e-05
4.64986e-05
0.00089737
4.94555e-05
6.0197e-05
0.000879131
0.000136551
2.38678e-05
0.000878345
0.000199161
3.47304e-05
0.000943659
0.00031581
3.60868e-05
0.000975629
0.000308875
4.05991e-05
0.000923625
-3.88066e-06
6.75359e-05
0.000876826
-0.000152759
6.40727e-05
-4.36271e-05
4.13055e-05
0.000752138
-0.00010834
-1.96121e-05
0.000798501
-0.000214242
-4.75091e-06
0.000852888
-0.000119205
9.66221e-05
0.000844204
9.52483e-05
0.000134099
0.000774205
0.000159916
6.13334e-05
0.00070658
5.45725e-05
4.3264e-05
0.000677469
-0.000111037
1.31343e-05
0.000676357
-0.000397233
-5.80127e-07
0.000710062
-0.000425089
0.000121247
0.000785864
-0.000130189
0.000184226
0.000887575
0.000191704
0.000102702
0.000929252
0.00036872
4.55878e-05
0.000878743
0.0001906
4.17184e-05
0.000834908
-0.000117364
5.17791e-06
0.000819072
-0.000141425
-6.7957e-05
0.000798846
0.000117764
-0.000113728
0.000823921
0.000197297
-4.16851e-05
0.000900994
-7.65119e-05
0.000100248
0.000926471
-0.000124562
0.000153816
0.000852057
-8.02687e-05
8.22376e-05
0.000776581
-9.78903e-05
-2.01648e-05
0.000750508
6.905e-05
-3.52044e-05
0.000732313
6.10179e-05
6.31643e-06
0.000756345
-9.13698e-05
1.95113e-05
0.000856317
-5.41118e-05
1.05432e-05
0.000953774
-3.86707e-05
9.58865e-06
0.000924377
5.03249e-06
6.31712e-05
0.000786265
-1.54863e-06
7.31559e-05
0.000688369
-0.000129636
-3.44507e-05
0.000702612
-0.000141291
-8.53064e-05
0.000758319
-6.30936e-05
-1.14624e-06
0.000770588
-4.15199e-05
6.5745e-05
0.000761419
8.36453e-06
4.65905e-05
0.000753536
0.000103942
4.44819e-05
0.000788803
0.000155423
5.71101e-05
0.00087794
0.000281633
3.02688e-05
0.000905451
0.000277112
5.94053e-05
0.000846653
-3.62609e-05
9.12808e-05
0.000795933
-0.000176749
5.67713e-05
-5.64363e-05
1.96155e-05
0.000700088
-0.000110086
-1.79581e-05
0.000728311
-0.000234957
1.01943e-05
0.000726683
-0.000127065
0.000116865
0.000664137
0.000112484
0.000129674
0.000602273
0.000106517
5.01819e-05
0.000592685
-2.33838e-05
3.5563e-05
0.000605116
-0.000141648
-2.55504e-06
0.000606413
-0.000377057
-2.08171e-05
0.000632304
-0.000406327
9.19077e-05
0.000708363
-0.000137862
0.000133772
0.000804577
0.000153245
6.62353e-05
0.000831643
0.000302018
5.45747e-05
0.000771401
0.000130031
4.18843e-05
0.000727982
-0.000109276
-1.26125e-05
0.000721342
-6.42005e-05
-7.55198e-05
0.000723659
0.000187048
-0.000114082
0.0007519
0.000171341
-3.65994e-05
0.000789124
-0.000144833
0.000125246
0.000792648
-0.000138203
0.000162065
0.000753848
-4.22653e-05
4.91398e-05
0.000714485
-3.36087e-06
-5.74829e-05
0.000691658
0.000182203
-2.99241e-05
0.000661917
9.57385e-05
3.52669e-05
0.000671854
-0.000158379
1.65918e-05
0.000755447
-0.000138808
-1.72211e-05
0.000830585
-5.99163e-05
-3.12234e-05
0.000816859
1.75675e-05
1.76792e-05
0.00074504
-5.78276e-06
3.16699e-05
0.000702519
-0.000128049
-5.16445e-05
0.000717938
-0.000145455
-7.51077e-05
0.000726647
-8.80114e-05
-1.60006e-06
0.000707221
-6.19309e-05
3.80808e-05
0.000689535
-8.85596e-07
5.4972e-05
0.00066523
8.78954e-05
9.20762e-05
0.000703305
0.000124028
5.34138e-05
0.000820119
0.000209122
1.28101e-05
0.000870094
0.00016519
8.32832e-05
0.000807863
-9.03511e-05
8.84922e-05
0.000738469
-0.000160822
2.43871e-05
-4.82367e-05
5.31718e-07
0.000644885
-0.00010768
-2.50718e-06
0.00062287
-0.000204939
2.65852e-05
0.000575496
-8.45036e-05
0.000100879
0.000527071
0.000122671
8.11835e-05
0.000500103
3.18862e-05
2.27355e-05
0.000519807
-0.000106076
2.96704e-05
0.000541049
-0.000158885
-6.93103e-06
0.000538874
-0.000338423
-2.14234e-05
0.000577239
-0.000379628
6.76705e-05
0.000658643
-0.00011753
7.42906e-05
0.000727162
0.0001611
1.59221e-05
0.000722315
0.000252236
4.11347e-05
0.000660064
8.23931e-05
2.4922e-05
0.000631486
-8.51351e-05
-3.28e-05
0.000643531
5.12037e-06
-8.33755e-05
0.000670641
0.000228754
-0.000115071
0.000688503
0.000145168
-3.02761e-05
0.000688336
-0.000166411
0.000124771
0.00068659
-0.00013279
0.000136426
0.000669819
-2.99554e-05
7.89487e-06
0.000648135
8.00595e-05
-8.5242e-05
0.000655687
0.000274388
-3.33437e-05
0.000638127
0.000112161
3.75368e-05
0.00061376
-0.000199131
1.69082e-05
0.00065793
-0.000193784
-3.47455e-05
0.000710293
-8.8468e-05
-6.98935e-05
0.000718766