/*--------------------------------*- C++ -*----------------------------------*\
  =========                 |
  \\      /  F ield         | OpenFOAM: The Open Source CFD Toolbox
   \\    /   O peration     | Website:  https://openfoam.org
    \\  /    A nd           | Version:  10
     \\/     M anipulation  |
\*---------------------------------------------------------------------------*/
FoamFile
{
    format      ascii;
    class       volScalarField;
    location    "17.5";
    object      pPrime2Mean;
}
// * * * * * * * * * * * * * * * * * * * * * * * * * * * * * * * * * * * * * //

dimensions      [0 4 -4 0 0 0 0];

internalField   nonuniform List<scalar> 
25600
(
0.000169965
0.00020782
0.000206196
0.000191598
0.000198189
0.000172966
0.000176474
0.000175987
0.000201464
0.000232991
0.000177526
0.000190487
0.000218568
0.000242754
0.000249903
0.000228545
0.00018404
0.000226529
0.000239734
0.000199699
0.00019133
0.000198752
0.000223862
0.000212378
0.000203764
0.000164585
0.000182462
0.00021739
0.000194017
0.000156053
0.000197984
0.000230492
0.000362877
0.000321231
0.000241851
0.00021168
0.000226783
0.000211691
0.000192806
0.000189616
0.000169209
0.000208327
0.000207772
0.000192625
0.000199144
0.000173024
0.000176633
0.000176602
0.000201416
0.000232243
0.000176912
0.000190693
0.000218151
0.000241837
0.000249109
0.000229265
0.000183771
0.000226306
0.000239629
0.000199562
0.0001913
0.00019883
0.000224701
0.000213686
0.000204281
0.000164491
0.000182957
0.000217785
0.000195112
0.000156507
0.000198972
0.000231023
0.000362878
0.000322409
0.000242407
0.000212905
0.00022775
0.000212578
0.000192864
0.000189082
0.000168055
0.000209283
0.000210231
0.000193708
0.000198859
0.000173652
0.000177029
0.000178552
0.00020154
0.000231233
0.000176096
0.000190605
0.000216269
0.000237667
0.000243945
0.00022811
0.000182746
0.000224679
0.000237561
0.000198827
0.000190307
0.000198467
0.000224488
0.0002171
0.000205892
0.000164093
0.000182776
0.000218101
0.000197681
0.000159284
0.000200907
0.00023015
0.000364885
0.000324076
0.000243184
0.000214484
0.000226922
0.000214958
0.000191833
0.000187039
0.000167795
0.000210572
0.000213036
0.000195756
0.000197827
0.00017488
0.0001773
0.000182268
0.00020375
0.000231794
0.000177242
0.000191121
0.000216701
0.000235054
0.000238555
0.000227918
0.000181851
0.0002208
0.000235167
0.000198331
0.000188224
0.000197439
0.000224444
0.000222483
0.000208128
0.000164812
0.000182559
0.00021893
0.000200912
0.000162912
0.000203099
0.000226791
0.000368453
0.000326224
0.000244069
0.000213949
0.00022575
0.000218186
0.000190015
0.000185634
0.000169078
0.000210429
0.000215042
0.000201305
0.000198909
0.00017741
0.000179488
0.000188181
0.00020831
0.000233553
0.000180066
0.000189595
0.000218259
0.000234566
0.000234215
0.000230475
0.000180968
0.000217242
0.000234782
0.000198647
0.000186795
0.000197743
0.000225404
0.000228981
0.00021202
0.000167481
0.000181967
0.000218862
0.000203967
0.000167506
0.000205334
0.000224007
0.000365419
0.000335517
0.000246791
0.000212281
0.000227633
0.000219838
0.000189158
0.000184189
0.000171167
0.000210119
0.000217078
0.000208931
0.000203013
0.000182422
0.000186999
0.000196299
0.000212427
0.000235955
0.000184693
0.000186806
0.000221629
0.000236584
0.000231419
0.00023634
0.00018026
0.000220424
0.000238033
0.000200772
0.000187114
0.000197719
0.000226643
0.000234742
0.000215748
0.000171154
0.000179553
0.000219537
0.000208355
0.000174612
0.000207746
0.000222374
0.000356005
0.000355429
0.000254166
0.000213896
0.000227858
0.000222563
0.000191404
0.000181264
0.000175346
0.000212898
0.000219394
0.000217228
0.000207942
0.000189818
0.000194923
0.000206357
0.00021314
0.000234028
0.000189891
0.000183284
0.000227869
0.000240033
0.000233989
0.000244845
0.00018424
0.000229206
0.000244449
0.000206857
0.000185238
0.000195101
0.000229128
0.000242024
0.000218431
0.000174601
0.000176747
0.000223527
0.000211935
0.000182439
0.000208088
0.000215733
0.000345528
0.000373737
0.000265828
0.000218457
0.000225003
0.000229725
0.000195248
0.000174249
0.000187549
0.000216795
0.000222516
0.000225141
0.000209961
0.000195246
0.00019684
0.000213924
0.000212524
0.0002291
0.00019747
0.000181519
0.000234102
0.000244952
0.00024273
0.00025464
0.00019974
0.000238055
0.000257192
0.000214972
0.000186149
0.000200166
0.000229631
0.000249315
0.000218158
0.00017768
0.000176812
0.000227786
0.000214894
0.000189432
0.000201773
0.000204418
0.000324749
0.000379705
0.000279711
0.000221769
0.000223506
0.000237029
0.00019803
0.000166763
0.000203124
0.000216047
0.000227182
0.000231688
0.000209265
0.000198636
0.000195146
0.000211538
0.000214582
0.000234194
0.000211497
0.000188898
0.000240829
0.000255658
0.00025695
0.000260319
0.000217779
0.00024083
0.000271951
0.000221318
0.000202472
0.000218702
0.000231635
0.000254408
0.000216461
0.000179922
0.000179391
0.000229821
0.000224911
0.000196625
0.000195789
0.000198542
0.000298047
0.000380347
0.000289398
0.000225359
0.00021866
0.000238019
0.000200544
0.000165388
0.000210006
0.000213318
0.000226521
0.000238933
0.000212091
0.000197083
0.000196605
0.000209172
0.000226663
0.000243179
0.00022345
0.000196735
0.000242126
0.000269087
0.000273375
0.000266462
0.000238618
0.00024355
0.000274556
0.000238862
0.000234792
0.000236961
0.000232974
0.000264926
0.000217204
0.000180333
0.000178385
0.000235795
0.000239293
0.000202334
0.00019308
0.000197472
0.000289446
0.000388259
0.00029244
0.000228743
0.000209846
0.000231029
0.000197694
0.00016472
0.000201856
0.000209882
0.000224442
0.000249636
0.000211875
0.000193316
0.00019862
0.000205343
0.000232732
0.000241463
0.000228714
0.000200656
0.000234706
0.000276752
0.000290726
0.000286521
0.000260301
0.000237322
0.000271584
0.000274565
0.000263978
0.000250055
0.000230979
0.00027777
0.000223552
0.000182676
0.000173606
0.00023476
0.000255063
0.000219097
0.000198862
0.000205302
0.000295485
0.000399959
0.000294474
0.000224303
0.000207446
0.000223777
0.000195661
0.000164375
0.000193587
0.000197087
0.000231195
0.000263869
0.000218603
0.000181893
0.000200148
0.000204006
0.000228497
0.000241874
0.00022545
0.000200727
0.000222187
0.000284118
0.000313906
0.000286094
0.000248938
0.000224007
0.000273778
0.000300447
0.000287085
0.000251816
0.000237257
0.000284537
0.00023576
0.000183469
0.000169722
0.000237888
0.000276648
0.000250568
0.000221928
0.000212961
0.000294542
0.000384225
0.000295869
0.000217838
0.000211559
0.000218479
0.000190454
0.000175628
0.000192084
0.000193445
0.000236827
0.000264229
0.000216775
0.000179011
0.000202222
0.000196107
0.000231936
0.000239929
0.000215586
0.000204252
0.000223895
0.000300604
0.00031176
0.000264104
0.000221863
0.000206477
0.000260961
0.000293953
0.000290699
0.000238571
0.000231782
0.000273815
0.000234801
0.000180461
0.00017222
0.000241186
0.000281594
0.000257666
0.000239036
0.00022466
0.000280861
0.000365834
0.000302248
0.000227538
0.000215163
0.000203568
0.000186399
0.000190234
0.000192182
0.000191764
0.000232924
0.000259886
0.000228852
0.000209225
0.000206468
0.000187142
0.000227442
0.000244636
0.000218921
0.000207258
0.000238528
0.000303494
0.000291649
0.00024207
0.000220947
0.000207054
0.000260709
0.000292048
0.000272764
0.000239156
0.000220281
0.000258862
0.00023852
0.000181026
0.000176906
0.000235525
0.000276072
0.000271995
0.000250631
0.000224195
0.000274172
0.000354361
0.000311732
0.000249812
0.000234868
0.000207474
0.000186054
0.000204552
0.000198566
0.000187381
0.000209011
0.000236944
0.000227111
0.000214405
0.000210182
0.000196912
0.000216944
0.000238663
0.000224591
0.000199253
0.000238605
0.000272453
0.000260913
0.000219167
0.000199477
0.000196744
0.000272211
0.000297468
0.000248792
0.00022372
0.00021893
0.000238093
0.000228702
0.000177602
0.000173957
0.000222113
0.000266161
0.000267598
0.000244503
0.000216363
0.000268703
0.00033532
0.000304226
0.000242821
0.000246028
0.000203359
0.00017736
0.000216043
0.00020352
0.000184817
0.000211415
0.000231736
0.000216577
0.000194876
0.00019754
0.000197337
0.000216058
0.000242319
0.000234691
0.000204083
0.000243551
0.000237024
0.000222781
0.000208732
0.000203374
0.00021338
0.000260039
0.00025872
0.000210338
0.00018864
0.000199598
0.000195512
0.000195199
0.000175338
0.000173791
0.000203295
0.000234788
0.000249895
0.000238818
0.000208392
0.000250452
0.000304229
0.000283784
0.000218455
0.000226834
0.00020687
0.000178522
0.000223062
0.000203515
0.000179357
0.000206559
0.000211177
0.000201571
0.000205477
0.000215116
0.000209512
0.000214711
0.000230685
0.000210397
0.000212211
0.000243047
0.000223738
0.000193648
0.000200127
0.000220038
0.000233132
0.00024392
0.000249176
0.000187173
0.000170635
0.000200183
0.000188438
0.000182375
0.000173079
0.000168205
0.000200618
0.000215749
0.000213983
0.000234831
0.000223009
0.00023496
0.000243035
0.000228855
0.000194959
0.000211118
0.000196259
0.000172807
0.000197086
0.000240073
0.000175832
0.000178792
0.000216528
0.000201878
0.000177975
0.000217275
0.000207444
0.000201572
0.000216341
0.000220315
0.000228352
0.000236334
0.000205095
0.000179061
0.000191152
0.000211296
0.000236524
0.000242257
0.000219316
0.000180405
0.000186366
0.000213362
0.000191618
0.000185834
0.000174518
0.000168702
0.000208283
0.000241018
0.000245289
0.000262543
0.00022701
0.000237115
0.000252899
0.000244618
0.000206125
0.000196549
0.000181822
0.000185302
0.000237581
0.000205175
0.000166609
0.000159575
0.000183171
0.00020289
0.000194902
0.000202847
0.000212326
0.000218608
0.000203581
0.000186365
0.000215616
0.00023839
0.000214843
0.000201037
0.000200184
0.00020972
0.000207864
0.000181386
0.000187098
0.000198054
0.000177841
0.000188607
0.00018386
0.000204246
0.000188343
0.000185755
0.000216093
0.000211885
0.000210871
0.000229235
0.000209743
0.00020336
0.000218218
0.000208325
0.000184036
0.000207395
0.000213112
0.00017797
0.000202377
0.00022594
0.000178574
0.000203053
0.000210636
0.000196735
0.000163938
0.000207734
0.000251849
0.000220989
0.000205015
0.000222733
0.000260273
0.000225805
0.000204166
0.000221027
0.000209294
0.00021408
0.000233778
0.000216489
0.000186176
0.000190006
0.000216021
0.000229953
0.000214363
0.000183868
0.000157851
0.000203149
0.000233032
0.000204202
0.000192575
0.000185799
0.000179422
0.000223137
0.000266297
0.000259608
0.000199312
0.000189915
0.00019162
0.000202596
0.000268515
0.000208553
0.000195071
0.000189052
0.000212853
0.000216808
0.000189332
0.000174033
0.00017321
0.00018892
0.000203681
0.000215988
0.000217552
0.000219578
0.000201543
0.000200701
0.000224557
0.000221921
0.00018471
0.000210974
0.000220904
0.000181879
0.000184985
0.000233164
0.00020392
0.00016758
0.000155376
0.000190242
0.00025071
0.000212319
0.000184055
0.000188578
0.000210624
0.000227541
0.000246541
0.000222651
0.000185328
0.000179282
0.000176533
0.000180008
0.00023362
0.000185265
0.000190598
0.000205269
0.000204949
0.00021425
0.000199929
0.000213893
0.000225797
0.000232146
0.000190478
0.000194749
0.000244366
0.000224984
0.000231132
0.000263259
0.000255689
0.000217227
0.000257141
0.000247644
0.000167205
0.000189238
0.000286629
0.000294016
0.000210692
0.000180031
0.000187687
0.000252798
0.000303562
0.000233084
0.000169215
0.000181734
0.000211751
0.000231706
0.00029758
0.000264125
0.00020968
0.000258372
0.00025999
0.000231724
0.00021586
0.000220179
0.000201005
0.000160671
0.000198995
0.000257568
0.000186498
0.00018809
0.00019839
0.000191267
0.00025292
0.000215824
0.00015968
0.000167519
0.000236571
0.000216997
0.000176343
0.000193782
0.00021275
0.000195425
0.000203608
0.000231662
0.000263117
0.00026985
0.000199119
0.000232108
0.000277421
0.000271665
0.00028204
0.000233458
0.000222478
0.000219272
0.000127267
0.000131938
0.000255295
0.000232205
0.000162075
0.000192559
0.000193252
0.000200594
0.000213918
0.000234859
0.000179157
0.000149649
0.000231418
0.000294273
0.000186391
0.000129513
0.000140914
0.000259093
0.000291524
0.000179709
0.000125822
0.00018012
0.000263317
0.000275664
0.000180691
0.000189234
0.000185045
0.000194641
0.000213566
0.000235307
0.000236202
0.000228109
0.000220643
0.000226284
0.000279281
0.000337251
0.000252914
0.000218556
0.000278245
0.000252652
0.000185775
0.000184298
0.000261048
0.000254506
0.000178959
0.000160636
0.000170408
0.000265186
0.000299596
0.000253949
0.000186635
0.000182637
0.000260141
0.000294352
0.000195552
0.000143593
0.000197986
0.000320101
0.000321063
0.000220765
0.000170106
0.000231386
0.000292398
0.000238584
0.000177617
0.000163527
0.000179369
0.000262775
0.000285877
0.000234533
0.000197811
0.000239648
0.00026004
0.000266022
0.000281544
0.000238557
0.000187534
0.000241844
0.000339533
0.000301639
0.000195488
0.000251491
0.000366865
0.0003091
0.000214133
0.00018254
0.000218334
0.000324158
0.000327098
0.000212269
0.000149273
0.000208335
0.000328065
0.000304185
0.000163368
0.000110545
0.000176407
0.000260478
0.000276586
0.00017082
0.000109312
0.000165476
0.000235493
0.000247511
0.000166713
0.000141222
0.000278444
0.000345809
0.000240203
0.000195741
0.000342714
0.000363614
0.000245751
0.000276754
0.000290713
0.000217423
0.000168093
0.000241031
0.000287227
0.000201694
0.000148682
0.000271346
0.000316784
0.000228759
0.000197389
0.000181604
0.000194009
0.000228547
0.000246774
0.00017141
0.000227664
0.00032136
0.000363336
0.000294704
0.000183076
0.000167181
0.000267245
0.000311366
0.000278601
0.000179811
0.000176044
0.000278585
0.000359445
0.000220216
8.80156e-05
0.000213814
0.000308943
0.000258425
0.00019637
0.000208302
0.000266494
0.000224759
0.000249799
0.000293301
0.000206717
0.000149422
0.000216845
0.000311929
0.000221197
0.000136679
0.000261758
0.000282587
0.000272791
0.000232798
0.000188504
0.000200042
0.000253806
0.000291943
0.000239438
0.000240883
0.000222426
0.000292643
0.000376582
0.000320322
0.000214974
0.00024806
0.000408224
0.000395477
0.000249561
0.000177384
0.00022681
0.000309108
0.000330253
0.000216744
0.00015374
0.000265089
0.000318251
0.000291039
0.000226947
0.000186421
0.000262044
0.000282664
0.000283689
0.000262314
0.000240863
0.000236843
0.000246953
0.000314922
0.000329595
0.000298254
0.000287469
0.000331178
0.000397135
0.000284393
0.000228705
0.000331703
0.000343282
0.000274689
0.000252322
0.000378284
0.000390041
0.000404514
0.000330934
0.000345044
0.000316106
0.000302693
0.000283675
0.000241235
0.000233309
0.000266637
0.000283482
0.000270085
0.000295624
0.00030178
0.000331993
0.000329705
0.000289527
0.000274079
0.000240825
0.000254497
0.000276961
0.000198915
0.000194873
0.000267084
0.000316196
0.000264662
0.000253953
0.000277468
0.000282464
0.000243293
0.000229241
0.000240252
0.000190853
0.000172696
0.000276095
0.000339229
0.000304244
0.00031219
0.000376943
0.000405061
0.000287517
0.000298783
0.000388948
0.000376928
0.000343815
0.000343283
0.000292296
0.00030089
0.00032893
0.000412129
0.000380274
0.000386489
0.000429769
0.000375337
0.000322582
0.00028568
0.000309046
0.000388393
0.000407795
0.000321874
0.000229232
0.000261516
0.000398727
0.000504312
0.000437327
0.000264029
0.000221167
0.000328513
0.000422184
0.00033187
0.000200678
0.000225883
0.000328508
0.000430202
0.000392675
0.000270888
0.000273737
0.000337555
0.000417601
0.000489722
0.000431982
0.000486481
0.000541674
0.000500533
0.000558848
0.000590682
0.000445805
0.00038782
0.000457538
0.000417036
0.000356392
0.000480906
0.000468509
0.0004349
0.000475314
0.000477406
0.000405266
0.000442614
0.000484995
0.000402239
0.000405075
0.000503497
0.000607365
0.000515381
0.000399523
0.000509248
0.000585991
0.000514125
0.000486048
0.000407321
0.00032772
0.000422968
0.000552389
0.000542615
0.000491576
0.000529958
0.000478718
0.000421187
0.000511443
0.000830451
0.000894724
0.00106017
0.00123646
0.00125814
0.00107888
0.00105966
0.00115189
0.00103746
0.000815408
0.000847182
0.00106415
0.00114996
0.000947443
0.000875916
0.000981069
0.00101104
0.00117408
0.00118078
0.000981351
0.000750965
0.00087157
0.00113357
0.0010498
0.000929922
0.00103101
0.00129559
0.00122076
0.0010528
0.00112445
0.00108807
0.00108154
0.00121837
0.00113039
0.000960769
0.000931707
0.00109384
0.00117508
0.00103185
0.000921179
0.000202892
0.000186118
0.000216032
0.000221645
0.000195892
0.000204385
0.000237152
0.000225312
0.000196296
0.000238671
0.000220091
0.000199489
0.000186732
0.000191989
0.000209129
0.000219613
0.00020111
0.000223368
0.000236451
0.000217509
0.000244487
0.000272927
0.000274518
0.000252644
0.000218132
0.000202482
0.000192608
0.000224441
0.000200235
0.000186148
0.000215932
0.000195936
0.000241402
0.000329277
0.000303165
0.000258404
0.00028841
0.00023762
0.000196324
0.000221379
0.000203244
0.000186313
0.000216344
0.000222279
0.00019593
0.000204267
0.000237137
0.000225735
0.00019619
0.00023829
0.000220134
0.000199839
0.00018694
0.00019216
0.000209042
0.00021945
0.000201365
0.000223452
0.000236229
0.00021696
0.000243976
0.000272584
0.000274744
0.000252808
0.000218641
0.000202687
0.000192507
0.000225143
0.000200385
0.000186119
0.000215372
0.000195681
0.000240255
0.000327935
0.000301905
0.000257183
0.000288151
0.000237616
0.000196432
0.000222331
0.000204296
0.000187
0.000217601
0.000223675
0.000196737
0.000204558
0.000238231
0.000227351
0.000195649
0.000236632
0.000220353
0.000200033
0.000187346
0.000191839
0.000208571
0.000219393
0.000202363
0.000224481
0.000238293
0.000215661
0.000243127
0.000272762
0.000273986
0.000253575
0.000219103
0.000203826
0.000192962
0.000226468
0.000202202
0.000187441
0.000215025
0.000195359
0.000240084
0.000326249
0.000299232
0.000254477
0.000288429
0.000239268
0.000198641
0.000224454
0.000206426
0.000188513
0.000219989
0.000225949
0.000197264
0.000205543
0.000240492
0.000231143
0.000195578
0.000234809
0.000221793
0.000200487
0.000188848
0.000191641
0.000207702
0.000220801
0.000204962
0.000227396
0.000241992
0.000215186
0.000242849
0.000274592
0.000273812
0.0002558
0.000219932
0.00020603
0.00019466
0.000229195
0.000205262
0.000190867
0.000215343
0.000195056
0.000242598
0.000324678
0.000296872
0.000252081
0.000289502
0.000243964
0.000203733
0.000229073
0.000209557
0.000191102
0.000223899
0.000229736
0.000198769
0.0002072
0.00024316
0.000235712
0.000196599
0.0002315
0.000222008
0.000200115
0.000191264
0.000192099
0.000207305
0.000222844
0.000208465
0.000228507
0.000247197
0.00021637
0.000242334
0.000278848
0.00027676
0.000259907
0.000221185
0.000209554
0.000196973
0.000231748
0.000208303
0.000195362
0.000216979
0.000196138
0.000245248
0.000322957
0.000295856
0.000253172
0.000291358
0.00025114
0.00021169
0.000235453
0.000213841
0.000194766
0.000229558
0.000235285
0.000203536
0.000211047
0.000246044
0.000239466
0.000200122
0.00022916
0.000221722
0.000197156
0.000192924
0.000193696
0.000207639
0.000224925
0.000212672
0.00022945
0.000251367
0.000218747
0.000243294
0.000286286
0.000281369
0.000263778
0.000223046
0.000214315
0.000200996
0.000234259
0.000214327
0.000202937
0.000222629
0.00019935
0.000246379
0.000322944
0.000295563
0.000257973
0.000293532
0.00025949
0.000222781
0.000243451
0.000218773
0.000199138
0.000236155
0.000241974
0.000211248
0.000216643
0.000250177
0.000242691
0.000204643
0.000229001
0.000222702
0.00019078
0.000193816
0.000197075
0.000210256
0.000226875
0.000218669
0.000231605
0.000252354
0.000222183
0.000247454
0.000296387
0.000286727
0.000267161
0.000227022
0.000218036
0.000206094
0.000238713
0.000220768
0.000214515
0.000229267
0.000202296
0.00024559
0.000321605
0.000294447
0.000262986
0.000293732
0.000266623
0.000234513
0.000248291
0.000223051
0.000203156
0.000243803
0.000249343
0.000215058
0.000222922
0.000250892
0.000242336
0.000207831
0.000226974
0.000222827
0.000185161
0.000194738
0.000200314
0.000214099
0.000230075
0.000227058
0.000234265
0.000250782
0.000226475
0.000250659
0.000307614
0.000293014
0.000271327
0.000234692
0.000221342
0.000213052
0.000241718
0.000222672
0.000227452
0.000234868
0.000207462
0.000246145
0.0003175
0.000292081
0.000263671
0.000290506
0.000272653
0.00024362
0.000245923
0.000225203
0.00020602
0.000250354
0.00025318
0.000219057
0.000227935
0.000240869
0.0002349
0.000207824
0.000222363
0.000222122
0.000182753
0.00019488
0.000200902
0.000217709
0.000234871
0.000237383
0.000232759
0.000247398
0.0002289
0.000253297
0.000315871
0.000297773
0.000275917
0.000242259
0.000225931
0.000218804
0.000241668
0.000223385
0.000240256
0.000236922
0.000217381
0.000250152
0.000309704
0.000284851
0.000259119
0.000283624
0.000271928
0.000248042
0.000241847
0.000221294
0.000207068
0.000256025
0.000248488
0.000216012
0.000221439
0.000227811
0.000228278
0.000204051
0.000219255
0.000221568
0.000181556
0.000191758
0.000202527
0.000216203
0.000233173
0.000241087
0.000226517
0.000235914
0.000227162
0.000250477
0.000305198
0.000294612
0.000280055
0.000249932
0.000228865
0.00021896
0.000239659
0.000220861
0.00024699
0.000230591
0.00022986
0.000256791
0.00029645
0.000269628
0.000251797
0.000276736
0.00026254
0.000246431
0.000235273
0.000220736
0.00021443
0.000257024
0.000237691
0.000203932
0.00021371
0.000218434
0.000229989
0.000208907
0.000218308
0.000221928
0.00018505
0.000194356
0.00020566
0.000213947
0.000229566
0.000230066
0.000220445
0.000230401
0.000232713
0.000249351
0.000279337
0.000287352
0.000280312
0.000250236
0.000223952
0.00021139
0.000232042
0.000222811
0.000251635
0.000217427
0.00023469
0.000259568
0.000279847
0.000257939
0.000242104
0.000264243
0.000251439
0.000244735
0.000231275
0.000216062
0.00021607
0.000252244
0.000237611
0.000204405
0.000201512
0.00021186
0.000232257
0.0002226
0.000229599
0.000224588
0.000198075
0.000196797
0.000207448
0.000213518
0.000211972
0.000207882
0.000201863
0.000224352
0.000243329
0.000239812
0.000262342
0.000286914
0.000272308
0.0002384
0.000206362
0.000196556
0.000229764
0.000229331
0.000249885
0.0002042
0.000233995
0.000253996
0.000266757
0.000254879
0.000229994
0.000249469
0.00023332
0.000244435
0.000232076
0.000218068
0.000211655
0.000232927
0.000218702
0.000207464
0.000200202
0.000206239
0.000211039
0.000232768
0.000231786
0.000212379
0.000203087
0.000194107
0.000210069
0.00020907
0.000199144
0.000207271
0.000192997
0.000213911
0.000252106
0.000240262
0.000227398
0.00024944
0.000252629
0.000219005
0.000184401
0.000177252
0.000222857
0.000233488
0.000240871
0.000195305
0.000228814
0.000250049
0.000277726
0.000241273
0.000218623
0.000245128
0.000228813
0.000229175
0.000232838
0.000207961
0.000204054
0.000219072
0.000205299
0.000193553
0.000211387
0.00021291
0.000220871
0.000248347
0.000225977
0.000201241
0.000197567
0.000198988
0.000212618
0.000200796
0.000188223
0.000203561
0.000206889
0.000211559
0.000249849
0.000235832
0.00019658
0.000230219
0.000242143
0.000207842
0.000176271
0.000165766
0.000213245
0.000228348
0.000213129
0.000172145
0.000219369
0.000282934
0.000314051
0.000224755
0.000210835
0.000243329
0.000225186
0.000211415
0.000228999
0.000199344
0.000206247
0.000227082
0.000211599
0.000180687
0.000217675
0.000201817
0.000229464
0.000246675
0.00023812
0.000214141
0.000192087
0.000218925
0.000221799
0.00018562
0.000171284
0.000206263
0.000224003
0.000212766
0.000235906
0.000210302
0.00018064
0.000227025
0.000244361
0.000207427
0.000172343
0.000167346
0.000207787
0.00020937
0.000183914
0.000159101
0.00020052
0.000275234
0.000307764
0.000205734
0.000202835
0.00023236
0.000222228
0.000204906
0.000215376
0.000189136
0.00020753
0.000241737
0.000223665
0.000176466
0.000216185
0.000210613
0.000212837
0.000246969
0.000246242
0.000220092
0.00019722
0.000216374
0.000212068
0.000177021
0.000178665
0.000217959
0.000243521
0.000220782
0.00023919
0.000210365
0.000182581
0.000225815
0.000215124
0.000187828
0.00016282
0.000181109
0.000208175
0.000200041
0.000185343
0.000173029
0.000191598
0.000242357
0.000256877
0.000187221
0.000164039
0.000220349
0.00023618
0.000210094
0.000201834
0.000179861
0.000184301
0.000218745
0.000207615
0.000167261
0.000192415
0.000206767
0.000194238
0.000243009
0.000234327
0.000206281
0.000195543
0.000214787
0.000204071
0.000168346
0.000162138
0.000203319
0.000223667
0.000213152
0.000214227
0.000186779
0.000166511
0.000208923
0.000179186
0.000146665
0.00015561
0.000181635
0.000184851
0.000183114
0.000185787
0.000186797
0.000219136
0.000236635
0.000226297
0.000186859
0.000194619
0.000238228
0.000220688
0.000193219
0.000194243
0.000178666
0.000164152
0.00018139
0.000186153
0.000164002
0.000158994
0.000175635
0.000180642
0.000211669
0.000203156
0.000165633
0.000167623
0.000188436
0.000191851
0.000171533
0.000154738
0.000180181
0.000216073
0.000206235
0.000209355
0.000174314
0.000159652
0.000208654
0.000189087
0.000145258
0.000132664
0.000153044
0.000175717
0.000174566
0.000179447
0.000214128
0.000225504
0.000208944
0.000204406
0.000179293
0.000193676
0.000232847
0.000190562
0.00015459
0.00018498
0.000183388
0.000160703
0.000171215
0.000178661
0.00014276
0.000145053
0.000167004
0.000155333
0.000193681
0.000201564
0.000159695
0.000156119
0.000173704
0.000194676
0.00018411
0.000155337
0.000149886
0.000178727
0.000186641
0.000202803
0.000172935
0.0001596
0.000197903
0.000175255
0.000130724
0.000123859
0.000159549
0.00018798
0.000167864
0.000160373
0.000204942
0.000212058
0.000197072
0.000183689
0.000165374
0.00017873
0.000197429
0.000160575
0.000143995
0.000191283
0.000176246
0.000150738
0.000155052
0.000186556
0.000145124
0.000133198
0.00013983
0.00013827
0.000178104
0.000193598
0.000149735
0.000141434
0.0001648
0.000190732
0.000173376
0.00014323
0.000157222
0.000165911
0.000167694
0.000162561
0.000154413
0.000170354
0.000190599
0.000163999
0.000141588
0.000129723
0.00017048
0.000198822
0.000150295
0.000154365
0.000187454
0.000170892
0.00018657
0.000192682
0.00017244
0.00016599
0.000181427
0.000166031
0.000156988
0.000185554
0.000160069
0.000131237
0.000146295
0.000176549
0.000167083
0.000144042
0.000132334
0.000142484
0.000181145
0.000186252
0.000161212
0.000144805
0.000142932
0.000166935
0.000174536
0.000154297
0.000176432
0.00018697
0.000172128
0.000164997
0.000152673
0.000174404
0.000202261
0.000174831
0.000150768
0.000157083
0.000178183
0.000200265
0.00018168
0.000171816
0.000184988
0.000168736
0.000163228
0.000173697
0.000171798
0.000165595
0.000167693
0.000153634
0.00013544
0.000155171
0.000147439
0.000141855
0.000156378
0.00016962
0.000172109
0.000171554
0.000164675
0.000135859
0.000157844
0.000166722
0.000141442
0.000161011
0.000163637
0.000175163
0.000161867
0.000190659
0.00020269
0.000198521
0.000198076
0.000158391
0.000156428
0.00019212
0.000225282
0.000207552
0.000161043
0.000141442
0.000170552
0.000190881
0.000179644
0.000171583
0.000170144
0.000169073
0.000181145
0.000186988
0.000180796
0.000160091
0.000144112
0.000141674
0.000149382
0.000157109
0.000155976
0.000158179
0.000179935
0.000196242
0.000177606
0.0001499
0.000171221
0.000181523
0.000163016
0.000166747
0.000164355
0.000171582
0.000168136
0.000199148
0.000187257
0.000126786
0.00015453
0.000207794
0.000193946
0.000164875
0.000162868
0.00018902
0.00022228
0.000188952
0.000161223
0.000147402
0.000148011
0.000196743
0.000191881
0.000165803
0.000162178
0.000151663
0.000170055
0.00020596
0.00019214
0.000146603
0.000144023
0.000172051
0.000189134
0.000184504
0.000167012
0.000147849
0.000128648
0.000145691
0.000192557
0.000183808
0.000170259
0.000123088
0.000148197
0.000195973
0.000184047
0.000158976
0.000141347
0.00016268
0.000205448
0.00017939
0.000176317
0.000178199
0.000168039
0.000179965
0.000190105
0.000179646
0.000168064
0.000178608
0.00016231
0.000146567
0.000161046
0.000157212
0.000183018
0.00019757
0.000180127
0.000155592
0.000148506
0.000183554
0.000183325
0.000142627
0.00013561
0.000144915
0.000178305
0.000181568
0.000141992
0.000107258
0.000115225
0.000142743
0.000164264
0.000150111
0.000143919
0.000123602
0.000119572
0.000160926
0.000162333
0.000123617
0.000149026
0.000195155
0.00017498
0.000145383
0.000169676
0.000174219
0.000150141
0.0001672
0.00016077
0.000143961
0.000156906
0.000142018
0.000165392
0.000180982
0.000173084
0.000154386
0.000164147
0.000177497
0.000167987
0.000132006
0.000138372
0.000175996
0.0001809
0.000171304
0.000150484
0.000131303
0.00015662
0.000157844
0.00016418
0.000132883
0.000152819
0.000169876
0.000162156
0.000135626
0.00013561
0.000158505
0.000147546
0.000164246
0.000170052
0.000159384
0.000158698
0.000177211
0.000160477
0.00016076
0.000189212
0.000165464
0.000139137
0.000173307
0.000178487
0.000178245
0.000171587
0.00016486
0.00017975
0.000166932
0.00015719
0.000147856
0.000167802
0.00018698
0.000173762
0.000141156
0.000147663
0.000199937
0.000178874
0.000143519
0.000148951
0.000153218
0.000185532
0.00019672
0.000134758
0.000130657
0.000209643
0.000256397
0.000179507
0.000124813
0.000170451
0.000241787
0.000222958
0.000181354
0.000163949
0.000189059
0.000225269
0.000240197
0.00018735
0.000148807
0.00021199
0.000265563
0.000265761
0.000236634
0.000176058
0.000182498
0.000218244
0.000251419
0.000211213
0.000152478
0.000193964
0.000243021
0.000246527
0.000210708
0.000151106
0.000164123
0.000234123
0.000262303
0.000188312
0.000115106
0.000158729
0.000226131
0.000239786
0.000188951
0.00023618
0.00018385
0.000167193
0.000225421
0.000265024
0.000189259
0.000162839
0.000229921
0.000261983
0.000245074
0.000211974
0.000193511
0.000216894
0.000225506
0.000208152
0.000189265
0.000216579
0.00024348
0.000219958
0.000182954
0.000169323
0.000198316
0.000220595
0.000217961
0.000192315
0.000204641
0.000229619
0.000208541
0.000210749
0.000225613
0.00020801
0.000206911
0.000258542
0.000288191
0.000247406
0.000217127
0.000237605
0.000226397
0.000216768
0.000246366
0.000197475
0.000253961
0.000290841
0.000254761
0.000205122
0.000202507
0.000246378
0.000265965
0.000247977
0.000200323
0.000218034
0.000260974
0.000262879
0.000259813
0.0002553
0.000267022
0.000283614
0.000284283
0.000260452
0.000207059
0.000227607
0.000285814
0.000264792
0.000189385
0.000194487
0.000248738
0.000299665
0.000296482
0.000295467
0.000234099
0.000243408
0.000258981
0.000279245
0.000266969
0.000210115
0.000245807
0.000295378
0.000271519
0.000302243
0.00026938
0.000334926
0.000254091
0.000252633
0.000351692
0.000328778
0.000354572
0.000386068
0.000336911
0.000294498
0.000305989
0.000334593
0.000314402
0.000316788
0.000340199
0.00031271
0.000300867
0.000278421
0.000317172
0.000392087
0.000324676
0.000291049
0.000388367
0.000379663
0.000340819
0.000385171
0.00036576
0.000312492