/*--------------------------------*- C++ -*----------------------------------*\
  =========                 |
  \\      /  F ield         | OpenFOAM: The Open Source CFD Toolbox
   \\    /   O peration     | Website:  https://openfoam.org
    \\  /    A nd           | Version:  10
     \\/     M anipulation  |
\*---------------------------------------------------------------------------*/
FoamFile
{
    format      ascii;
    class       volScalarField;
    location    "20";
    object      p;
}
// * * * * * * * * * * * * * * * * * * * * * * * * * * * * * * * * * * * * * //

dimensions      [0 2 -2 0 0 0 0];

internalField   nonuniform List<scalar> 
25600
(
1.16725e-06
-1.45966e-05
-7.44972e-06
-1.39914e-06
-1.4196e-05
-8.4402e-06
5.72855e-07
-1.83975e-05
1.0451e-06
-1.05283e-05
-1.1384e-05
-4.15728e-07
-1.35948e-05
-3.14773e-06
-9.70512e-06
-5.60982e-06
-9.43241e-06
-7.83837e-06
-1.35205e-06
-1.12602e-05
-5.89671e-06
-9.61465e-06
-4.29238e-06
-4.16571e-06
-1.19349e-05
-5.71876e-06
-7.24154e-06
-7.04023e-06
-5.80672e-06
-4.65682e-06
-1.38239e-05
-3.62392e-06
-7.6506e-08
-1.99007e-05
4.28509e-06
-1.23326e-05
-1.45962e-05
9.66073e-06
-2.15369e-05
-5.65128e-06
1.56248e-06
-1.30775e-05
-1.0239e-05
1.4475e-06
-1.58167e-05
-8.80298e-06
1.50158e-06
-1.7633e-05
-1.7299e-06
-7.96029e-06
-1.14473e-05
-2.04879e-06
-1.27476e-05
-3.62823e-06
-1.0531e-05
-4.46923e-06
-8.4826e-06
-1.43792e-05
6.0848e-06
-1.69895e-05
-6.34358e-06
-3.7539e-06
-1.11299e-05
-1.17053e-06
-1.08777e-05
-8.4027e-06
-5.06348e-06
-6.54722e-06
-8.2302e-06
-2.49807e-06
-1.43158e-05
-3.74731e-06
-8.12553e-07
-1.8188e-05
3.87054e-06
-1.3299e-05
-1.20532e-05
6.35971e-06
-1.86572e-05
-7.36418e-06
-1.80837e-07
-1.0852e-05
-1.10614e-05
1.10802e-06
-1.5472e-05
-8.78935e-06
9.7125e-07
-1.53704e-05
-5.35202e-06
-5.63139e-06
-1.0705e-05
-4.76181e-06
-1.11967e-05
-3.66856e-06
-1.23939e-05
-2.69506e-06
-7.78922e-06
-1.71108e-05
9.85527e-06
-1.98878e-05
-6.60155e-06
-1.72134e-07
-1.49996e-05
-9.74459e-07
-8.8279e-06
-1.01216e-05
-3.93079e-06
-6.26141e-06
-9.46395e-06
-2.46288e-06
-1.26837e-05
-5.49372e-06
-1.75696e-06
-1.44603e-05
8.82354e-07
-1.22553e-05
-9.57521e-06
1.94069e-06
-1.54232e-05
-7.87672e-06
-2.67127e-06
-8.40343e-06
-1.07084e-05
-1.05128e-06
-1.40949e-05
-8.41e-06
-8.80761e-07
-1.26931e-05
-8.60646e-06
-4.31784e-06
-9.1033e-06
-8.01249e-06
-9.37857e-06
-3.65247e-06
-1.43655e-05
-8.67813e-07
-7.75009e-06
-1.77365e-05
9.53708e-06
-1.90453e-05
-7.81327e-06
2.15168e-06
-1.65435e-05
-2.71537e-06
-6.161e-06
-1.12437e-05
-3.40453e-06
-6.34118e-06
-9.6242e-06
-3.61432e-06
-9.23969e-06
-8.23328e-06
-2.25718e-06
-1.10022e-05
-3.24668e-06
-9.58016e-06
-7.8268e-06
-2.7569e-06
-1.14766e-05
-8.43252e-06
-5.14984e-06
-6.19355e-06
-9.59656e-06
-4.12688e-06
-1.20148e-05
-7.70368e-06
-3.48133e-06
-9.93126e-06
-1.07525e-05
-4.39256e-06
-6.64072e-06
-1.1594e-05
-7.61162e-06
-3.43073e-06
-1.57019e-05
3.38899e-07
-8.11795e-06
-1.69968e-05
6.93282e-06
-1.57301e-05
-9.57358e-06
3.88181e-06
-1.71083e-05
-4.597e-06
-3.78857e-06
-1.1653e-05
-3.2332e-06
-6.718e-06
-9.37616e-06
-4.65969e-06
-6.57105e-06
-1.09062e-05
-2.46099e-06
-8.14812e-06
-6.39484e-06
-6.84772e-06
-6.80109e-06
-6.87366e-06
-7.34908e-06
-9.12961e-06
-7.68648e-06
-4.01676e-06
-8.67766e-06
-7.09209e-06
-9.8364e-06
-6.90473e-06
-6.33434e-06
-7.63916e-06
-1.18603e-05
-5.39265e-06
-3.80881e-06
-1.51484e-05
-5.4347e-06
-3.88128e-06
-1.60441e-05
4.96674e-07
-8.49172e-06
-1.57129e-05
3.51411e-06
-1.19249e-05
-1.14389e-05
5.06688e-06
-1.71935e-05
-6.16378e-06
-2.30711e-06
-1.17577e-05
-3.24908e-06
-7.18426e-06
-9.22343e-06
-4.83062e-06
-5.38541e-06
-1.2028e-05
-3.11161e-06
-6.03034e-06
-8.69566e-06
-5.02932e-06
-5.91366e-06
-1.05724e-05
-3.54728e-06
-9.60881e-06
-9.87047e-06
-1.79723e-06
-8.40888e-06
-9.34336e-06
-7.92117e-06
-6.21639e-06
-9.25481e-06
-6.12636e-06
-1.26887e-05
-6.30271e-06
-1.48306e-06
-1.78727e-05
-3.06288e-06
-4.83621e-06
-1.52422e-05
-2.6419e-07
-8.55796e-06
-1.4482e-05
2.50508e-07
-8.87891e-06
-1.283e-05
5.41519e-06
-1.6624e-05
-7.62222e-06
-1.20475e-06
-1.17983e-05
-3.2438e-06
-7.60005e-06
-9.48291e-06
-3.97509e-06
-5.53556e-06
-1.1964e-05
-4.07725e-06
-4.53426e-06
-1.02656e-05
-3.83701e-06
-5.15798e-06
-1.35726e-05
-1.58473e-07
-1.01313e-05
-1.14548e-05
-1.304e-07
-8.66824e-06
-1.10523e-05
-5.89756e-06
-6.01964e-06
-1.12492e-05
-3.82057e-06
-1.3521e-05
-6.85011e-06
-1.81963e-07
-1.96776e-05
-1.76129e-06
-5.81942e-06
-1.4169e-05
-1.38053e-06
-8.89279e-06
-1.36454e-05
-2.26054e-06
-7.21511e-06
-1.37752e-05
5.372e-06
-1.58343e-05
-8.83623e-06
-1.83244e-07
-1.22944e-05
-2.96408e-06
-8.44579e-06
-9.75437e-06
-2.60187e-06
-6.72893e-06
-1.11318e-05
-4.93398e-06
-3.72618e-06
-1.0701e-05
-3.15011e-06
-4.74845e-06
-1.56003e-05
2.5007e-06
-1.05752e-05
-1.25499e-05
1.07823e-06
-9.46175e-06
-1.2125e-05
-3.62881e-06
-6.4354e-06
-1.21753e-05
-2.54156e-06
-1.41849e-05
-7.00728e-06
1.32001e-07
-2.04008e-05
-1.18551e-06
-6.91725e-06
-1.29853e-05
-2.29313e-06
-8.99365e-06
-1.2614e-05
-3.95411e-06
-4.63967e-06
-1.41207e-05
5.30623e-06
-1.54869e-05
-9.52207e-06
6.2436e-07
-1.28164e-05
-2.5425e-06
-9.40852e-06
-1.01795e-05
-1.02719e-06
-8.29379e-06
-1.00438e-05
-5.37861e-06
-3.83638e-06
-9.98159e-06
-2.79102e-06
-4.53392e-06
-1.65153e-05
3.97194e-06
-1.05443e-05
-1.34234e-05
2.00569e-06
-1.05817e-05
-1.25819e-05
-1.28944e-06
-7.28123e-06
-1.21947e-05
-2.08052e-06
-1.48295e-05
-6.64083e-06
-2.90837e-07
-2.03651e-05
-1.11643e-06
-8.08268e-06
-1.16616e-05
-3.14242e-06
-8.99921e-06
-1.16903e-05
-4.84244e-06
-4.4215e-06
-1.40338e-05
5.237e-06
-1.53154e-05
-9.6575e-06
1.17399e-06
-1.33027e-05
-2.10981e-06
-9.92423e-06
-1.08678e-05
5.09402e-07
-1.01014e-05
-8.84538e-06
-5.44906e-06
-4.66686e-06
-8.48226e-06
-3.49449e-06
-4.71369e-06
-1.65906e-05
4.44872e-06
-9.99369e-06
-1.40311e-05
2.62579e-06
-1.13611e-05
-1.26611e-05
1.0526e-06
-8.88008e-06
-1.13862e-05
-2.36321e-06
-1.53419e-05
-5.4996e-06
-1.2543e-06
-1.97324e-05
-1.5489e-06
-9.20911e-06
-1.02404e-05
-3.76313e-06
-9.322e-06
-1.10892e-05
-4.95489e-06
-4.7583e-06
-1.34375e-05
4.94679e-06
-1.53628e-05
-9.35057e-06
1.76964e-06
-1.37396e-05
-1.75806e-06
-1.02557e-05
-1.17349e-05
2.39488e-06
-1.17611e-05
-7.85951e-06
-5.24438e-06
-5.95591e-06
-6.73381e-06
-4.2924e-06
-5.10013e-06
-1.61794e-05
4.08224e-06
-8.79312e-06
-1.44957e-05
2.87342e-06
-1.2101e-05
-1.25728e-05
2.8904e-06
-1.06388e-05
-9.87261e-06
-3.23811e-06
-1.59934e-05
-3.79634e-06
-2.58149e-06
-1.84791e-05
-2.18325e-06
-1.03601e-05
-9.18018e-06
-4.0085e-06
-1.03631e-05
-1.06882e-05
-4.72702e-06
-5.35774e-06
-1.23915e-05
4.69482e-06
-1.55211e-05
-8.59881e-06
2.22813e-06
-1.41394e-05
-1.22911e-06
-1.04483e-05
-1.27373e-05
4.35829e-06
-1.30664e-05
-7.07762e-06
-4.66336e-06
-7.73837e-06
-4.35534e-06
-5.21647e-06
-5.32585e-06
-1.5193e-05
3.10594e-06
-7.22049e-06
-1.46285e-05
3.34857e-06
-1.30251e-05
-1.23246e-05
5.06095e-06
-1.24952e-05
-7.89076e-06
-4.39274e-06
-1.65218e-05
-1.18504e-06
-4.16749e-06
-1.69799e-05
-2.59906e-06
-1.14573e-05
-8.35914e-06
-3.96406e-06
-1.13422e-05
-1.0357e-05
-4.33041e-06
-6.25238e-06
-1.11479e-05
4.52591e-06
-1.5903e-05
-7.38156e-06
2.43407e-06
-1.43418e-05
-1.18947e-06
-1.04041e-05
-1.38849e-05
6.38682e-06
-1.42125e-05
-6.555e-06
-3.77467e-06
-9.86387e-06
-1.56827e-06
-6.06899e-06
-5.52219e-06
-1.38503e-05
1.78605e-06
-5.02641e-06
-1.4204e-05
3.6851e-06
-1.42632e-05
-1.23959e-05
6.27687e-06
-1.41961e-05
-5.75557e-06
-5.70381e-06
-1.70194e-05
2.63723e-06
-5.55429e-06
-1.52238e-05
-3.23502e-06
-1.27777e-05
-7.40963e-06
-3.48333e-06
-1.22232e-05
-1.01e-05
-3.80064e-06
-7.21888e-06
-1.01891e-05
4.35069e-06
-1.65378e-05
-7.72776e-06
3.18192e-06
-1.41722e-05
-1.0679e-06
-1.02228e-05
-1.52185e-05
8.50235e-06
-1.53376e-05
-6.20749e-06
-2.66494e-06
-1.27999e-05
1.50818e-06
-6.77457e-06
-5.66746e-06
-1.24358e-05
-4.31148e-07
-1.56571e-06
-1.37403e-05
5.2268e-06
-1.54921e-05
-1.24826e-05
7.83838e-06
-1.57915e-05
-2.97449e-06
-6.96881e-06
-1.7498e-05
8.01647e-06
-6.64848e-06
-1.3555e-05
-3.86419e-06
-1.38466e-05
-6.43058e-06
-2.75716e-06
-1.04112e-05
-9.8658e-06
-3.19712e-06
-8.03863e-06
-8.99668e-06
3.9586e-06
-1.66123e-05
-7.58514e-06
3.34902e-06
-1.3839e-05
7.52073e-07
-9.99892e-06
-1.63869e-05
1.05134e-05
-1.64154e-05
-6.16823e-06
-1.40689e-06
-1.54831e-05
5.22377e-06
-7.48642e-06
-6.04186e-06
-1.1117e-05
-2.59228e-06
1.97721e-06
-1.30833e-05
5.51116e-06
-1.70507e-05
-1.21657e-05
9.95314e-06
-1.70482e-05
-4.26333e-07
-8.554e-06
-1.75986e-05
8.01018e-06
-7.37308e-06
-1.09343e-05
-4.72847e-06
-1.4252e-05
-5.11547e-06
-1.88492e-06
-1.00911e-05
-9.81367e-06
-2.52354e-06
-8.5853e-06
-7.58796e-06
3.1756e-06
-1.68849e-05
-7.0039e-06
3.38337e-06
-1.33705e-05
1.06854e-06
-1.02037e-05
-1.7216e-05
1.27505e-05
-1.74408e-05
-6.75242e-06
-3.84089e-07
-1.79339e-05
1.02838e-05
-8.1074e-06
-6.71861e-06
-1.03469e-05
-4.50693e-06
7.22202e-06
-1.20121e-05
5.17801e-06
-1.90993e-05
-1.1939e-05
1.03102e-05
-1.78461e-05
9.99471e-07
-1.07179e-05
-1.72337e-05
7.63158e-06
-7.65312e-06
-9.03106e-06
-5.94609e-06
-1.42649e-05
-3.94193e-06
-8.91865e-07
-1.03996e-05
-9.90394e-06
-1.88392e-06
-9.02355e-06
-6.21399e-06
2.57263e-06
-1.72219e-05
-6.38869e-06
3.52297e-06
-1.29453e-05
1.17809e-06
-1.05773e-05
-1.80017e-05
1.52796e-05
-1.82645e-05
-7.49113e-06
4.65813e-07
-1.97431e-05
1.69858e-05
-8.83241e-06
-7.19462e-06
-9.90826e-06
-6.47439e-06
6.19374e-06
-1.0981e-05
4.70137e-06
-2.12171e-05
-1.1684e-05
1.01088e-05
-1.8691e-05
2.07834e-06
-1.28441e-05
-1.60445e-05
7.17501e-06
-7.71182e-06
-7.50243e-06
-6.94884e-06
-1.3318e-05
-3.81085e-06
-3.18709e-07
-1.08257e-05
-1.01463e-05
-1.35473e-06
-9.90098e-06
-5.36354e-06
1.98938e-06
-1.75048e-05
-5.87302e-06
3.54124e-06
-1.3012e-05
1.04582e-06
-1.06521e-05
-1.84961e-05
1.72396e-05
-1.92827e-05
-8.42817e-06
1.05872e-06
-2.12051e-05
1.45028e-05
-1.00611e-05
-7.95271e-06
-9.72306e-06
-7.95461e-06
6.33791e-06
-1.01629e-05
3.76477e-06
-2.36796e-05
-1.10272e-05
1.14514e-05
-1.96204e-05
2.18553e-06
-1.52844e-05
-1.27829e-05
7.45965e-06
-7.60403e-06
-6.94297e-06
-8.73989e-06
-1.02992e-05
-3.14688e-06
-4.20372e-07
-1.1709e-05
-1.07555e-05
-4.63571e-07
-1.03079e-05
-5.20154e-06
1.02503e-06
-1.806e-05
-5.05983e-06
3.59327e-06
-1.36133e-05
4.09224e-07
-1.11076e-05
-1.80457e-05
1.93361e-05
-2.08895e-05
-9.67051e-06
1.21476e-06
-2.21318e-05
1.44819e-05
-1.14659e-05
-9.17313e-06
-1.00763e-05
-8.53924e-06
7.45106e-06
-1.62657e-05
2.38686e-06
-2.56385e-05
-8.72832e-06
1.33929e-05
-2.13923e-05
1.69222e-06
-1.74874e-05
-5.64083e-06
8.54081e-06
-8.37139e-06
-7.48239e-06
-1.02251e-05
-3.29308e-06
-2.17844e-06
-1.36197e-06
-1.37289e-05
-1.10645e-05
2.05047e-06
-1.05779e-05
-6.24831e-06
-5.48718e-07
-1.81674e-05
-3.07458e-06
3.51458e-06
-1.59896e-05
-1.20727e-06
-1.12214e-05
-1.59477e-05
2.11432e-05
-2.42812e-05
-1.13125e-05
1.74527e-06
-2.12541e-05
1.55126e-05
-1.38603e-05
-1.00782e-05
-1.00219e-05
-7.08519e-06
8.32854e-06
-1.90232e-05
7.25051e-07
-2.58857e-05
-4.91546e-06
1.52303e-05
-2.51089e-05
6.27839e-07
-1.81461e-05
-8.69354e-06
9.73084e-06
-1.16221e-05
-8.48682e-06
-9.9748e-06
-6.45107e-06
-1.58795e-06
-3.72281e-06
-1.58233e-05
-9.67621e-06
4.53174e-06
-1.0951e-05
-9.07722e-06
-2.15601e-06
-1.65531e-05
-1.05717e-06
2.88148e-06
-1.9141e-05
-2.38355e-06
-9.78153e-06
-1.43563e-05
2.20353e-05
-2.78323e-05
-1.2602e-05
3.61055e-06
-1.9119e-05
1.6551e-05
-1.7419e-05
-1.12748e-05
-8.68837e-06
-3.2069e-06
9.22551e-06
-2.10304e-05
1.11711e-06
-2.36433e-05
-4.02049e-06
1.14172e-05
-2.83104e-05
1.78876e-06
-1.61099e-05
-1.14623e-05
8.08259e-06
-1.49864e-05
-7.54875e-06
-7.88691e-06
-8.99958e-06
-3.30248e-06
-4.88074e-06
-1.52612e-05
-6.58824e-06
5.3454e-06
-1.44004e-05
-1.04271e-05
-1.41577e-06
-1.32474e-05
-3.30176e-07
9.97176e-08
-2.05544e-05
-1.59054e-06
-6.79444e-06
-1.53601e-05
2.07407e-05
-3.03426e-05
-1.1406e-05
7.16246e-06
-2.00467e-05
1.53552e-05
-1.99915e-05
-1.04058e-05
-5.66574e-06
-4.51904e-06
7.92856e-06
-2.08098e-05
2.17197e-06
-2.25927e-05
-4.69553e-06
1.07874e-05
-2.90551e-05
3.32387e-06
-1.53176e-05
-1.40892e-05
6.70154e-06
-1.50384e-05
-6.03187e-06
-7.21559e-06
-1.16329e-05
-4.33506e-06
-4.36507e-06
-1.41134e-05
-5.09914e-06
4.8599e-06
-1.5441e-05
-1.01783e-05
-1.47215e-07
-1.15691e-05
-1.0125e-06
1.04144e-07
-2.03717e-05
-3.97022e-07
-5.56036e-06
-1.65754e-05
2.01001e-05
-3.04305e-05
-9.84538e-06
8.13186e-06
-2.1746e-05
1.45861e-05
-2.01206e-05
-8.88317e-06
-4.23638e-06
-5.90398e-06
6.83134e-06
-2.05261e-05
2.40683e-06
-2.23859e-05
-5.25813e-06
1.02318e-05
-2.91601e-05
3.73985e-06
-1.52803e-05
-1.57895e-05
5.99177e-06
-1.48296e-05
-5.33785e-06
-7.37923e-06
-1.32762e-05
-4.59864e-06
-3.49882e-06
-1.35699e-05
-4.80285e-06
4.33783e-06
-1.55603e-05
-9.69257e-06
5.76396e-07
-1.07113e-05
-1.67026e-06
5.40437e-07
-2.01727e-05
3.88304e-07
-5.12368e-06
-1.7486e-05
1.99506e-05
-3.01138e-05
-9.0786e-06
8.40667e-06
-2.25991e-05
1.42154e-05
-2.00379e-05
-8.16795e-06
-3.87862e-06
-6.5327e-06
6.30546e-06
-2.03985e-05
2.08842e-06
-2.21834e-05
-5.21537e-06
9.95031e-06
-2.94422e-05
3.53404e-06
-1.52266e-05
-1.64896e-05
5.66349e-06
-1.47475e-05
-5.48217e-06
-7.53488e-06
-1.38896e-05
-4.50154e-06
-3.06489e-06
-1.34169e-05
-4.83721e-06
4.28989e-06
-1.52398e-05
-9.62753e-06
8.65505e-07
-1.03495e-05
-1.91521e-06
1.12591e-06
-2.01876e-05
7.0517e-07
-5.02372e-06
-1.77753e-05
1.9814e-05
-2.99062e-05
-8.7282e-06
8.3858e-06
-2.27821e-05
1.38803e-05
-2.00201e-05
-8.06534e-06
-3.75649e-06
-6.83674e-06
5.92513e-06
-2.05285e-05
1.80298e-06
-2.17006e-05
-5.20633e-06
9.35029e-06
-2.95831e-05
3.53087e-06
-1.49334e-05
-1.67616e-05
5.22647e-06
-1.48632e-05
-5.56396e-06
-7.30201e-06
-1.41907e-05
-4.68144e-06
-2.892e-06
-1.32864e-05
-4.75672e-06
4.34233e-06
-1.51844e-05
-9.67145e-06
1.1587e-06
-1.0065e-05
-2.02542e-06
1.16107e-06
-2.02303e-05
1.06028e-06
-4.94362e-06
-1.77508e-05
1.92612e-05
-2.98257e-05
-8.42873e-06
8.36067e-06
-2.2622e-05
1.32407e-05
-2.01055e-05
-7.81399e-06
-3.61652e-06
-6.91958e-06
5.27487e-06
-2.05226e-05
1.72856e-06
-2.12386e-05
-5.26426e-06
8.61595e-06
-2.9463e-05
3.52344e-06
-1.46497e-05
-1.68524e-05
4.67926e-06
-1.49307e-05
-5.5378e-06
-7.14216e-06
-1.44469e-05
-4.82852e-06
-2.82535e-06
-1.3164e-05
-4.65146e-06
4.24732e-06
-1.52298e-05
-9.58053e-06
1.33839e-06
-9.95573e-06
-2.20312e-06
9.90619e-07
-2.008e-05
1.30516e-06
-4.98977e-06
-1.76028e-05
1.85359e-05
-2.95839e-05
-8.08549e-06
8.17271e-06
-2.24211e-05
1.24314e-05
-2.00497e-05
-7.6303e-06
-3.53617e-06
-6.91993e-06
4.497e-06
-2.04525e-05
1.77902e-06
-2.0806e-05
-5.3522e-06
7.90329e-06
-2.92613e-05
3.44754e-06
-1.44083e-05
-1.68089e-05
4.11208e-06
-1.49782e-05
-5.55342e-06
-7.06184e-06
-1.45749e-05
-4.98701e-06
-2.86635e-06
-1.30303e-05
-4.57753e-06
4.05025e-06
-1.52833e-05
-9.47912e-06
1.39683e-06
-9.91176e-06
-2.33833e-06
7.50091e-07
-1.99165e-05
1.47694e-06
-5.07137e-06
-1.73863e-05
1.78135e-05
-2.93105e-05
-7.75139e-06
7.88233e-06
-2.21797e-05
1.17319e-05
-1.9998e-05
-7.41565e-06
-3.49827e-06
-6.91632e-06
3.77858e-06
-2.03555e-05
1.79459e-06
-2.0467e-05
-5.38996e-06
7.2313e-06
-2.90663e-05
3.35777e-06
-1.42545e-05
-1.67007e-05
3.58554e-06
-1.50338e-05
-5.58911e-06
-7.02828e-06
-1.46402e-05
-5.14007e-06
-2.9393e-06
-1.29174e-05
-4.54279e-06
3.84275e-06
-1.53301e-05
-9.39208e-06
1.40065e-06
-9.88823e-06
-2.4363e-06
4.83092e-07
-1.97624e-05
1.62176e-06
-5.17747e-06
-1.71572e-05
1.71648e-05
-2.90872e-05
-7.4307e-06
7.5757e-06
-2.19383e-05
1.11412e-05
-1.99758e-05
-7.15027e-06
-3.52118e-06
-6.926e-06
3.16101e-06
-2.02877e-05
1.76837e-06
-2.02464e-05
-5.39188e-06
6.66516e-06
-2.89212e-05
3.2625e-06
-1.41922e-05
-1.65733e-05
3.15418e-06
-1.50916e-05
-5.63285e-06
-7.03604e-06
-1.46683e-05
-5.25745e-06
-3.02688e-06
-1.28412e-05
-4.52472e-06
3.66453e-06
-1.53752e-05
-9.32408e-06
1.37423e-06
-9.88227e-06
-2.50408e-06
2.41876e-07
-1.96399e-05
1.71904e-06
-5.29443e-06
-1.69553e-05
1.6639e-05
-2.89375e-05
-7.1659e-06
7.30297e-06
-2.17308e-05
1.06683e-05
-1.99847e-05
-6.91526e-06
-3.5844e-06
-6.91761e-06
2.66515e-06
-2.02697e-05
1.70743e-06
-2.01466e-05
-5.37791e-06
6.25538e-06
-2.88539e-05
3.1763e-06
-1.42058e-05
-1.64689e-05
2.8519e-06
-1.51517e-05
-5.68338e-06
-7.07228e-06
-1.46847e-05
-5.33964e-06
-3.11398e-06
-1.28043e-05
-4.52504e-06
3.52965e-06
-1.5423e-05
-9.28502e-06
1.33005e-06
-9.89247e-06
-2.54928e-06
5.61933e-08
-1.95739e-05
1.76651e-06
-5.40843e-06
-1.68077e-05
1.62807e-05
-2.88714e-05
-6.98924e-06
7.09298e-06
-2.15895e-05
1.03394e-05
-2.00317e-05
-6.77372e-06
-3.66696e-06
-6.9014e-06
2.311e-06
-2.03021e-05
1.63292e-06
-2.01522e-05
-5.32061e-06
5.99579e-06
-2.88631e-05
3.12292e-06
-1.42806e-05
-1.63896e-05
2.66887e-06
-1.52124e-05
-5.7322e-06
-7.12819e-06
-1.46998e-05
-5.39012e-06
-3.1917e-06
-1.2806e-05
-4.53758e-06
3.44278e-06
-1.54729e-05
-9.27307e-06
1.27613e-06
-9.91375e-06
-2.57194e-06
-6.712e-08
-1.95661e-05
1.78138e-06
-5.51398e-06
-1.67245e-05
1.611e-05
-2.88899e-05
-6.88033e-06
6.93468e-06
-2.15265e-05
1.02105e-05
-2.01209e-05
-6.69134e-06
-3.76357e-06
-6.87584e-06
2.09445e-06
8.25631e-07
-1.40516e-05
-7.88574e-06
-1.28839e-06
-1.27999e-05
-1.06062e-05
1.72892e-06
-1.79308e-05
4.01417e-07
-1.09077e-05
-1.05207e-05
-3.87082e-07
-1.48746e-05
-1.40227e-06
-1.09761e-05
-4.62341e-06
-1.00289e-05
-7.96762e-06
-3.36684e-07
-1.1951e-05
-5.6424e-06
-9.47341e-06
-3.9116e-06
-5.10383e-06
-1.05365e-05
-7.1102e-06
-6.28213e-06
-7.09376e-06
-6.13995e-06
-3.13381e-06
-1.65445e-05
-1.82287e-06
3.89252e-08
-2.06038e-05
4.25811e-06
-1.23529e-05
-1.40816e-05
9.18133e-06
-2.17195e-05
-5.46852e-06
7.60936e-07
-1.16758e-05
-1.12171e-05
1.34246e-06
-1.43761e-05
-1.05188e-05
2.04032e-06
-1.66622e-05
-2.79311e-06
-8.08586e-06
-1.01646e-05
-3.20688e-06
-1.26992e-05
-2.80214e-06
-1.16209e-05
-3.47013e-06
-8.77904e-06
-1.56778e-05
7.30647e-06
-1.75856e-05
-6.6403e-06
-2.74946e-06
-1.1541e-05
-1.80457e-06
-9.65835e-06
-9.56961e-06
-4.46427e-06
-6.81683e-06
-8.20157e-06
-1.50774e-06
-1.66301e-05
-2.32699e-06
-7.38443e-07
-1.90709e-05
4.27433e-06
-1.38248e-05
-1.15833e-05
6.34343e-06
-1.88516e-05
-7.30585e-06
-1.26039e-06
-9.1886e-06
-1.20047e-05
9.82484e-07
-1.44435e-05
-9.40041e-06
6.05114e-07
-1.3824e-05
-6.69633e-06
-5.40706e-06
-9.49859e-06
-6.43615e-06
-1.01308e-05
-3.6006e-06
-1.32458e-05
-1.64718e-06
-7.84226e-06
-1.84223e-05
1.12293e-05
-2.03958e-05
-6.64148e-06
8.68594e-07
-1.5553e-05
-1.46344e-06
-7.71073e-06
-1.08718e-05
-3.77654e-06
-6.46937e-06
-9.19433e-06
-1.77478e-06
-1.45851e-05
-4.21576e-06
-1.84505e-06
-1.50679e-05
1.87119e-06
-1.33682e-05
-9.19979e-06
2.25957e-06
-1.56014e-05
-7.78464e-06
-3.91799e-06
-6.9079e-06
-1.11075e-05
-1.50634e-06
-1.34125e-05
-8.07174e-06
-2.38817e-06
-1.08389e-05
-9.84505e-06
-3.92508e-06
-8.23519e-06
-9.789e-06
-7.89385e-06
-3.74501e-06
-1.54144e-05
5.30791e-07
-8.01706e-06
-1.87526e-05
1.04208e-05
-1.97044e-05
-7.66584e-06
2.62489e-06
-1.67373e-05
-3.42349e-06
-4.53161e-06
-1.2011e-05
-3.32175e-06
-6.61597e-06
-9.13008e-06
-3.23458e-06
-1.07556e-05
-7.17839e-06
-2.45354e-06
-1.16572e-05
-2.21391e-06
-1.117e-05
-7.29112e-06
-2.36864e-06
-1.15755e-05
-8.30343e-06
-6.51632e-06
-4.94273e-06
-9.40627e-06
-5.03115e-06
-1.144e-05
-6.9013e-06
-5.40449e-06
-8.07691e-06
-1.15999e-05
-4.13798e-06
-6.02352e-06
-1.31843e-05
-5.86148e-06
-3.51937e-06
-1.69806e-05
2.11495e-06
-8.85849e-06
-1.72365e-05
7.02503e-06
-1.48069e-05
-9.64244e-06
3.96041e-06
-1.7076e-05
-5.50794e-06
-2.42299e-06
-1.27781e-05
-3.00657e-06
-7.16096e-06
-8.67017e-06
-4.68353e-06
-7.76045e-06
-1.01805e-05
-2.51131e-06
-8.92696e-06
-6.47701e-06
-8.78731e-06
-6.29584e-06
-6.56585e-06
-7.22352e-06
-8.93555e-06
-9.14813e-06
-3.14219e-06
-7.67876e-06
-8.30602e-06
-9.34085e-06
-5.98718e-06
-8.16152e-06
-5.90542e-06
-1.22876e-05
-5.57267e-06
-3.24783e-06
-1.65018e-05
-3.67108e-06
-3.96006e-06
-1.73509e-05
2.55604e-06
-9.38108e-06
-1.51671e-05
2.87554e-06
-1.06847e-05
-1.19173e-05
4.91679e-06
-1.69993e-05
-6.92256e-06
-1.20284e-06
-1.24872e-05
-3.19848e-06
-7.42965e-06
-8.6484e-06
-5.03939e-06
-6.11096e-06
-1.17066e-05
-2.93137e-06
-6.72864e-06
-8.65583e-06
-7.03372e-06
-5.40668e-06
-1.04241e-05
-3.12719e-06
-9.40584e-06
-1.15621e-05
-1.26663e-06
-6.59865e-06
-1.07127e-05
-7.59832e-06
-5.44276e-06
-1.05058e-05
-3.91059e-06
-1.25948e-05
-7.06092e-06
-9.25182e-07
-1.93887e-05
-1.67392e-06
-4.78196e-06
-1.66013e-05
1.54579e-06
-9.13223e-06
-1.34579e-05
-6.67126e-07
-7.16362e-06
-1.35618e-05
4.98506e-06
-1.61848e-05
-8.17924e-06
-4.16527e-07
-1.24456e-05
-3.17822e-06
-7.38029e-06
-9.19876e-06
-4.19881e-06
-6.29652e-06
-1.18913e-05
-3.68958e-06
-4.99122e-06
-1.09372e-05
-5.74508e-06
-4.69786e-06
-1.34283e-05
4.27773e-07
-9.74167e-06
-1.3574e-05
4.97513e-07
-6.17276e-06
-1.2339e-05
-6.10737e-06
-5.45391e-06
-1.20696e-05
-2.48585e-06
-1.30874e-05
-7.59196e-06
2.21722e-07
-2.13357e-05
-4.36846e-07
-5.54619e-06
-1.55219e-05
1.77912e-07
-8.63992e-06
-1.21722e-05
-3.07345e-06
-4.89226e-06
-1.46766e-05
4.70069e-06
-1.50473e-05
-9.36976e-06
4.25733e-07
-1.31884e-05
-2.6832e-06
-7.62653e-06
-9.68256e-06
-2.93311e-06
-7.479e-06
-1.13635e-05
-4.3774e-06
-3.96549e-06
-1.19812e-05
-5.03663e-06
-4.59384e-06
-1.53536e-05
3.1742e-06
-9.90234e-06
-1.50402e-05
1.99398e-06
-6.06168e-06
-1.31368e-05
-4.84826e-06
-6.30823e-06
-1.25962e-05
-1.67925e-06
-1.35079e-05
-7.5694e-06
1.71279e-07
-2.19577e-05
2.51999e-07
-6.21467e-06
-1.4441e-05
-1.14142e-06
-8.5092e-06
-1.09607e-05
-4.57428e-06
-3.31426e-06
-1.53151e-05
4.46986e-06
-1.42047e-05
-1.00187e-05
9.54085e-07
-1.39519e-05
-1.80987e-06
-8.00026e-06
-1.03165e-05
-1.5096e-06
-8.84588e-06
-1.06396e-05
-4.52118e-06
-4.03864e-06
-1.20138e-05
-4.6314e-06
-4.42194e-06
-1.61172e-05
4.76374e-06
-9.89884e-06
-1.6027e-05
3.11042e-06
-6.48682e-06
-1.32667e-05
-3.62798e-06
-7.80869e-06
-1.21646e-05
-1.53032e-06
-1.38405e-05
-7.14389e-06
-6.69882e-07
-2.17341e-05
4.7203e-07
-6.94694e-06
-1.34013e-05
-2.3189e-06
-8.41675e-06
-1.00902e-05
-5.30384e-06
-2.74118e-06
-1.55824e-05
4.3529e-06
-1.36677e-05
-1.01692e-05
1.15758e-06
-1.47717e-05
-9.6582e-07
-8.14982e-06
-1.12073e-05
-3.85052e-07
-1.07968e-05
-9.80091e-06
-4.17919e-06
-4.95418e-06
-1.11328e-05
-4.90326e-06
-4.27926e-06
-1.58959e-05
5.40253e-06
-9.88817e-06
-1.68154e-05
4.16421e-06
-7.00556e-06
-1.31988e-05
-2.58301e-06
-9.44117e-06
-1.0638e-05
-1.48434e-06
-1.41276e-05
-6.69444e-06
-2.08382e-06
-2.06884e-05
3.18866e-07
-7.67143e-06
-1.20233e-05
-3.32153e-06
-8.30843e-06
-9.51916e-06
-5.28533e-06
-3.03708e-06
-1.56483e-05
4.37547e-06
-1.32569e-05
-9.96643e-06
1.11326e-06
-1.55967e-05
-8.12721e-08
-8.01853e-06
-1.23094e-05
1.64086e-06
-1.29301e-05
-8.85763e-06
-3.38488e-06
-6.44092e-06
-9.56922e-06
-5.55831e-06
-4.15188e-06
-1.47541e-05
5.16624e-06
-9.65181e-06
-1.75127e-05
4.87198e-06
-8.2388e-06
-1.27338e-05
-1.65593e-06
-1.15405e-05
-9.01518e-06
-1.92338e-06
-1.42296e-05
-6.23395e-06
-4.00778e-06
-1.90877e-05
-1.4345e-07
-8.33524e-06
-1.12648e-05
-3.9847e-06
-8.4565e-06
-9.15974e-06
-4.65933e-06
-3.88266e-06
-1.55386e-05
4.39141e-06
-1.28963e-05
-9.52982e-06
1.05811e-06
-1.64201e-05
6.29815e-07
-7.71147e-06
-1.35831e-05
3.40624e-06
-1.51051e-05
-8.02379e-06
-2.05667e-06
-8.31063e-06
-8.02546e-06
-6.66705e-06
-3.9992e-06
-1.29207e-05
4.2667e-06
-8.91876e-06
-1.79526e-05
4.9293e-06
-9.51768e-06
-1.21543e-05
-7.60824e-07
-1.39007e-05
-6.00984e-06
-2.67263e-06
-1.44302e-05
-4.77011e-06
-6.08308e-06
-1.68551e-05
-7.85121e-07
-9.08475e-06
-1.07241e-05
-4.35484e-06
-8.59749e-06
-8.80535e-06
-3.80672e-06
-5.72941e-06
-1.52128e-05
4.79157e-06
-1.25532e-05
-9.35098e-06
1.16689e-06
-1.70776e-05
1.82965e-06
-7.38196e-06
-1.49414e-05
4.89752e-06
-1.71063e-05
-7.20088e-06
-3.714e-07
-1.06339e-05
-6.24732e-06
-8.02696e-06
-3.70457e-06
-1.14651e-05
2.71542e-06
-7.9102e-06
-1.86018e-05
5.6435e-06
-1.03444e-05
-1.17792e-05
-2.56052e-07
-1.64586e-05
-4.26467e-06
-3.50788e-06
-1.46795e-05
-4.83683e-06
-8.31472e-06
-1.32893e-05
-1.31501e-06
-1.00136e-05
-1.0169e-05
-4.70608e-06
-8.90615e-06
-8.15191e-06
-2.70918e-06
-7.29625e-06
-1.50864e-05
5.15081e-06
-1.21478e-05
-9.50085e-06
9.39359e-07
-1.78522e-05
4.28234e-06
-6.99339e-06
-1.61306e-05
6.17559e-06
-1.88874e-05
-6.54849e-06
1.25952e-06
-1.3458e-05
-4.32969e-06
-9.57743e-06
-3.60477e-06
-9.93783e-06
8.90856e-07
-7.00576e-06
-1.91968e-05
6.95348e-06
-1.0966e-05
-1.19214e-05
-2.07036e-07
-1.88865e-05
-1.99876e-06
-4.52404e-06
-1.52505e-05
-4.37587e-06
-1.06995e-05
-1.20569e-05
-1.60293e-06
-1.20763e-05
-9.92537e-06
-4.69258e-06
-9.08967e-06
-7.72249e-06
-1.96569e-06
-8.71727e-06
-1.47292e-05
5.29279e-06
-1.26876e-05
-1.03928e-05
7.57792e-07
-1.85061e-05
4.22591e-06
-6.50116e-06
-1.71893e-05
7.32865e-06
-2.0455e-05
-6.15034e-06
2.29389e-06
-1.69293e-05
-2.50132e-06
-1.09233e-05
-3.3168e-06
-8.62552e-06
-1.56266e-06
-5.98396e-06
-1.96282e-05
7.78333e-06
-1.17983e-05
-1.20672e-05
-5.48286e-07
-2.12702e-05
2.68985e-07
-5.68688e-06
-1.53614e-05
-4.6154e-06
-1.27691e-05
-1.0514e-05
-1.83375e-06
-1.17885e-05
-1.01629e-05
-4.60823e-06
-9.18927e-06
-7.54608e-06
-1.20682e-06
-1.04747e-05
-1.42726e-05
5.77604e-06
-1.32711e-05
-9.68191e-06
4.8372e-07
-1.86768e-05
4.67968e-06
-6.2275e-06
-1.83498e-05
8.11682e-06
-2.17197e-05
-5.70119e-06
3.19195e-06
-1.93898e-05
-1.02969e-06
-1.22774e-05
-2.64144e-06
-7.6102e-06
-3.84041e-06
-5.36431e-06
-2.02036e-05
8.40413e-06
-1.29936e-05
-1.25379e-05
-1.02786e-06
-2.37512e-05
2.0849e-06
-7.03449e-06
-1.5523e-05
-4.36071e-06
-1.45805e-05
-9.07442e-06
-2.38511e-06
-1.18229e-05
-1.04461e-05
-4.84522e-06
-9.70013e-06
-7.64643e-06
-5.78688e-07
-1.23003e-05
-1.45269e-05
5.93239e-06
-1.39586e-05
-9.645e-06
3.80311e-08
-1.92699e-05
5.27545e-06
-6.29466e-06
-1.97091e-05
8.72493e-06
-2.3842e-05
-5.50863e-06
4.10841e-06
-2.20037e-05
2.98047e-07
-1.38797e-05
-2.11621e-06
-6.94538e-06
-6.62607e-06
-5.30949e-06
-2.06637e-05
8.73125e-06
-1.42942e-05
-1.27731e-05
-1.66744e-06
-2.62038e-05
3.45944e-06
-8.32087e-06
-1.53814e-05
-3.43691e-06
-1.60631e-05
-7.78932e-06
-3.39923e-06
-1.16444e-05
-1.07888e-05
-5.26391e-06
-1.05165e-05
-7.7082e-06
1.91889e-07
-1.40624e-05
-1.4697e-05
5.74109e-06
-1.47068e-05
-9.81399e-06
-2.07939e-07
-1.9368e-05
5.63494e-06
-6.35339e-06
-2.08138e-05
9.26804e-06
-2.57104e-05
-5.6358e-06
4.75204e-06
-2.47574e-05
1.10048e-06
-1.52381e-05
-1.89966e-06
-6.39623e-06
-9.73547e-06
-4.9771e-06
-2.10306e-05
9.03366e-06
-1.5233e-05
-1.23535e-05
-9.10416e-07
-2.82785e-05
4.52504e-06
-9.10023e-06
-1.49745e-05
-2.54425e-06
-1.68267e-05
-6.68546e-06
-3.60646e-06
-1.08731e-05
-1.11476e-05
-5.61016e-06
-1.15297e-05
-7.22341e-06
1.54538e-06
-1.5095e-05
-1.48449e-05
5.27312e-06
-1.50797e-05
-9.51069e-06
8.732e-08
-1.86031e-05
5.40457e-06
-6.11067e-06
-2.15247e-05
1.05761e-05
-2.70886e-05
-6.35346e-06
5.87574e-06
-2.71658e-05
2.24146e-06
-1.63893e-05
-1.99505e-06
-5.43303e-06
-1.2908e-05
-4.82338e-06
-2.12234e-05
1.0176e-05
-1.46136e-05
-1.21363e-05
-6.73828e-07
-2.97726e-05
6.0533e-06
-8.50874e-06
-1.5356e-05
-2.21708e-06
-1.66609e-05
-4.91237e-06
-2.60786e-06
-1.03504e-05
-1.15265e-05
-5.66628e-06
-1.21349e-05
-5.50816e-06
2.75732e-06
-1.61467e-05
-1.51965e-05
5.16087e-06
-1.37439e-05
-9.42201e-06
2.26054e-07
-1.687e-05
5.12496e-06
-4.55701e-06
-2.22945e-05
1.14647e-05
-2.80305e-05
-6.96854e-06
8.17967e-06
-2.94619e-05
3.48351e-06
-1.74315e-05
-1.96849e-06
-3.43193e-06
-1.70047e-05
-4.39573e-06
-2.02021e-05
1.02605e-05
-1.302e-05
-1.38782e-05
-1.03865e-06
-3.03197e-05
8.15692e-06
-6.84248e-06
-1.71732e-05
-2.68222e-06
-1.48632e-05
-3.21209e-06
-1.06947e-06
-1.19339e-05
-1.23172e-05
-5.04985e-06
-1.16286e-05
-3.31177e-06
2.32679e-06
-1.74745e-05
-1.52377e-05
5.95284e-06
-1.1145e-05
-1.10822e-05
-2.5447e-07
-1.36533e-05
6.1453e-06
-1.97317e-06
-2.46297e-05
1.17485e-05
-2.82994e-05
-5.90483e-06
1.12766e-05
-3.33569e-05
4.26467e-06
-1.77292e-05
-8.07015e-07
-1.0402e-06
-2.42156e-05
-4.42671e-06
-1.68016e-05
1.21037e-05
-1.39882e-05
-1.5209e-05
-8.96859e-07
-2.89029e-05
1.07651e-05
-7.13865e-06
-1.91818e-05
-3.00249e-06
-9.36887e-06
-8.13839e-08
-1.72155e-06
-1.39909e-05
-1.26345e-05
-2.53055e-06
-1.00774e-05
-3.55072e-06
1.3418e-06
-1.80068e-05
-1.29411e-05
8.10408e-06
-1.04769e-05
-1.13153e-05
-1.16404e-07
-6.92491e-06
8.36959e-06
-1.49447e-06
-2.60346e-05
1.25648e-05
-2.623e-05
-3.71193e-06
1.21512e-05
-3.33677e-05
5.08732e-06
-1.58981e-05
1.61407e-06
-1.98698e-06
-2.16827e-05
-4.4182e-06
-1.62578e-05
1.16622e-05
-1.65084e-05
-1.562e-05
1.19045e-06
-2.86631e-05
1.09689e-05
-9.34544e-06
-2.02933e-05
-1.45998e-06
-1.19416e-05
9.60216e-07
-3.87521e-06
-1.47758e-05
-1.09389e-05
-7.7226e-07
-1.07847e-05
-5.42413e-06
1.29156e-06
-1.62212e-05
-1.1728e-05
8.3571e-06
-1.18697e-05
-1.11967e-05
2.1664e-06
-9.37493e-06
8.48861e-06
-2.85295e-06
-2.66435e-05
1.52239e-05
-2.46163e-05
-3.61256e-06
1.11417e-05
-3.29941e-05
7.22783e-06
-1.47584e-05
1.68841e-06
-3.60543e-06
-2.00243e-05
-2.89891e-06
-1.72587e-05
1.05637e-05
-1.7219e-05
-1.48486e-05
2.18366e-06
-2.99667e-05
1.05701e-05
-9.96478e-06
-1.97935e-05
-7.43835e-07
-1.44721e-05
1.6043e-06
-4.35739e-06
-1.40078e-05
-9.87268e-06
-7.66919e-07
-1.17603e-05
-5.19139e-06
2.53572e-06
-1.47815e-05
-1.22122e-05
8.05851e-06
-1.18228e-05
-9.97498e-06
3.83141e-06
-1.20216e-05
7.83119e-06
-2.76109e-06
-2.58426e-05
1.68689e-05
-2.47003e-05
-4.3467e-06
1.11461e-05
-3.17001e-05
8.15425e-06
-1.54353e-05
7.13714e-07
-3.70638e-06
-1.82183e-05
-2.42437e-06
-1.76775e-05
1.02166e-05
-1.72577e-05
-1.51545e-05
2.09546e-06
-3.02818e-05
1.10023e-05
-9.77872e-06
-2.00623e-05
-1.03633e-06
-1.55812e-05
7.92334e-07
-3.9306e-06
-1.39293e-05
-9.75985e-06
-3.2895e-07
-1.1251e-05
-4.67293e-06
2.89743e-06
-1.44565e-05
-1.25513e-05
9.06432e-06
-1.1403e-05
-9.71509e-06
4.26451e-06
-1.35768e-05
8.16363e-06
-2.379e-06
-2.58944e-05
1.7046e-05
-2.44782e-05
-4.205e-06
1.12487e-05
-3.14901e-05
7.73384e-06
-1.56616e-05
5.90632e-07
-3.505e-06
-1.77132e-05
-3.06051e-06
-1.74448e-05
9.99228e-06
-1.7527e-05
-1.52015e-05
2.38988e-06
-3.00553e-05
1.1204e-05
-9.83365e-06
-2.02177e-05
-7.584e-07
-1.57658e-05
2.24186e-07
-3.74463e-06
-1.40647e-05
-9.20954e-06
5.16275e-07
-1.09904e-05
-4.7711e-06
3.69495e-06
-1.41212e-05
-1.22172e-05
9.67207e-06
-1.16045e-05
-9.40728e-06
4.6349e-06
-1.42134e-05
8.10787e-06
-2.65446e-06
-2.58367e-05
1.72041e-05
-2.39967e-05
-4.29452e-06