/*--------------------------------*- C++ -*----------------------------------*\
  =========                 |
  \\      /  F ield         | OpenFOAM: The Open Source CFD Toolbox
   \\    /   O peration     | Website:  https://openfoam.org
    \\  /    A nd           | Version:  10
     \\/     M anipulation  |
\*---------------------------------------------------------------------------*/
FoamFile
{
    format      ascii;
    class       surfaceScalarField;
    location    "20";
    object      phi;
}
// * * * * * * * * * * * * * * * * * * * * * * * * * * * * * * * * * * * * * //

dimensions      [0 3 -1 0 0 0 0];

internalField   nonuniform List<scalar> 
74080
(
0.00497663
-1.6562e-06
4.9772e-06
0.00497595
3.61542e-06
-3.30272e-06
0.00497636
-2.50127e-06
3.22167e-06
0.00497663
-5.54663e-07
2.60591e-06
0.00497835
2.22089e-06
-1.37403e-06
0.00497661
-1.98779e-06
9.9026e-07
0.00497767
-8.48801e-07
1.32277e-06
0.00497835
-2.24036e-06
-9.45522e-07
0.00497781
1.70245e-06
-2.6798e-07
0.004979
-4.07461e-06
1.81622e-07
0.00497852
1.65105e-06
-1.49791e-07
0.00498
-8.6528e-07
-2.83374e-06
0.00497866
1.43439e-06
5.05315e-07
0.00498104
1.64265e-06
-7.06994e-07
0.00497954
-4.11601e-07
-2.36659e-06
0.00497936
5.48018e-06
2.89638e-07
0.00497936
-7.29961e-07
-1.75367e-06
0.00497761
4.01409e-06
-2.26702e-07
0.00497891
1.75122e-07
-1.18642e-06
0.00497607
3.3001e-06
8.8171e-07
0.0049764
-2.60055e-07
-4.93696e-07
0.00497708
2.15981e-07
-3.91868e-07
0.00497438
2.37411e-06
7.24316e-07
0.00497458
-1.88436e-06
2.43169e-06
0.00497668
1.92426e-06
-8.49148e-07
0.00497318
-2.4253e-06
6.40273e-08
0.00497455
1.32879e-06
3.20645e-06
0.00497532
-2.36996e-06
-2.27135e-06
0.00497321
4.29534e-07
3.61537e-06
0.00497414
-3.30985e-06
-3.19453e-06
0.0049734
-3.31181e-06
2.70157e-06
0.00497397
6.09354e-07
1.24726e-06
0.00497318
-8.20767e-06
-2.95979e-06
0.00497471
-2.32649e-06
3.5183e-06
0.00497451
-2.08896e-06
-1.50956e-06
0.00497582
-5.86125e-06
1.46344e-06
0.00497497
2.80483e-08
-8.57253e-07
0.00497505
-5.45854e-07
3.65666e-06
0.00497603
-1.58168e-06
-1.23273e-06
1.2473e-06
1.88862e-06
0.00452301
-2.84235e-06
6.50034e-06
0.00452448
2.17351e-06
-3.71314e-06
0.00452311
-1.57677e-06
3.47318e-06
0.00452324
-9.08541e-07
3.39513e-06
0.00452577
-2.54913e-07
-1.48748e-06
0.00452343
-2.02812e-07
1.2686e-06
0.00452524
-2.79482e-06
3.28356e-07
0.00452447
-2.15834e-06
7.56097e-07
0.00452608
4.77453e-07
-1.51319e-06
0.00452598
-4.08061e-06
-5.42219e-07
0.00452622
1.00821e-06
1.73709e-06
0.00452732
-1.69958e-06
-5.39604e-06
0.00452614
2.18782e-06
1.69722e-06
0.00452867
-9.46092e-07
-1.20595e-08
0.00452609
1.64067e-06
-3.98717e-06
0.00452721
4.4149e-06
1.87737e-06
0.00452587
2.38985e-07
-2.66359e-06
0.00452495
4.39628e-06
3.82315e-07
0.00452535
2.74395e-07
-1.03576e-06
0.00452346
4.69405e-06
-5.94899e-07
0.00452356
-7.86343e-07
5.98928e-07
0.00452369
6.62024e-07
-3.37993e-07
0.00452198
3.23674e-06
-4.34174e-07
0.00452172
-1.93053e-06
2.15112e-06
0.00452372
6.02566e-07
2.80887e-07
0.00452066
-5.17692e-07
-1.43184e-06
0.00452188
5.71911e-07
2.76775e-06
0.00452175
-1.94147e-06
-1.86715e-06
0.0045217
4.30831e-07
2.78129e-06
0.00452024
-1.67628e-06
-2.60105e-06
0.00452033
-3.62667e-06
1.86524e-06
0.00452218
-8.39688e-07
2.5909e-06
0.00451979
-6.43582e-06
-3.37741e-06
0.00452286
-5.24246e-06
3.50517e-06
0.00452266
-1.88273e-06
6.10101e-07
0.00452372
-7.26578e-06
3.19792e-07
0.00452311
3.38523e-07
7.12766e-07
0.00452312
-9.58807e-07
4.35484e-06
0.00452366
-2.60698e-06
-1.51479e-06
2.28696e-06
3.17225e-06
0.00411139
-3.73005e-06
6.80847e-06
0.00411315
8.47546e-07
-3.12322e-06
0.00411149
-6.47649e-07
3.76798e-06
0.00411182
-1.02662e-06
3.92164e-06
0.00411337
-1.97792e-06
-2.14319e-06
0.00411224
3.26541e-07
2.26164e-06
0.00411335
-4.02709e-06
-6.88278e-07
0.00411254
-2.2924e-06
1.50264e-06
0.00411505
-1.66777e-06
-1.68439e-06
0.00411427
-3.51362e-06
-1.4629e-06
0.00411528
-4.39507e-07
2.23501e-06
0.00411542
-1.96396e-06
-6.18136e-06
0.00411539
1.71909e-06
1.99829e-06
0.00411675
-2.78436e-06
-2.14867e-07
0.0041147
3.07172e-06
-3.9533e-06
0.00411604
2.84861e-06
2.0465e-06
0.00411374
2.0644e-06
-2.81078e-06
0.00411363
4.16789e-06
7.99167e-07
0.00411289
1.11773e-06
-1.21748e-06
0.0041121
5.36965e-06
-1.45292e-06
0.00411186
-1.17881e-06
1.26688e-06
0.00411136
1.47195e-06
7.14695e-08
0.00411095
3.31794e-06
-1.21718e-06
0.00411032
-1.71637e-06
1.78582e-06
0.0041114
9.60293e-08
1.0714e-06
0.00410986
3.77452e-07
-1.82508e-06
0.00411023
4.43429e-07
1.68628e-06
0.00410988
-9.76283e-07
-8.57517e-07
0.00411083
-5.13883e-07
1.57653e-06
0.00410786
1.14429e-06
-1.86748e-06
0.00410858
-4.41773e-06
1.71486e-06
0.00411044
-2.60374e-06
2.62569e-06
0.00410831
-4.99545e-06
-2.6136e-06
0.00411154
-8.53511e-06
3.06828e-06
0.00411221
-2.58827e-06
2.1605e-06
0.00411267
-8.15903e-06
-4.2887e-07
0.00411212
5.59466e-07
2.26967e-06
0.0041126
-2.10633e-06
4.24567e-06
0.00411212
-2.50092e-06
-8.58764e-07
3.10399e-06
4.56926e-06
0.00373735
-3.92811e-06
6.68295e-06
0.00373868
-3.44538e-08
-1.7858e-06
0.00373768
-4.20075e-07
4.65507e-06
0.00373763
-4.91035e-07
3.80785e-06
0.00373867
-3.54302e-06
-2.58877e-06
0.00373814
-7.7579e-08
3.51102e-06
0.00373878
-4.98649e-06
-1.64744e-06
0.00373885
-3.34003e-06
1.72536e-06
0.00374074
-3.4001e-06
-1.60199e-06
0.00374019
-3.38339e-06
-2.65423e-06
0.00374151
-2.17714e-06
2.04862e-06
0.0037411
-2.1842e-06
-5.83426e-06
0.00374191
1.29274e-07
1.55091e-06
0.00374218
-3.72236e-06
-6.68231e-07
0.00374139
3.07939e-06
-3.03576e-06
0.00374173
1.82121e-06
1.75157e-06
0.00373953
4.05686e-06
-2.50741e-06
0.00373971
3.77946e-06
9.099e-07
0.00373774
2.939e-06
-1.57024e-06
0.00373837
4.87405e-06
-1.47691e-06
0.00373748
-1.00888e-06
1.4514e-06
0.00373678
2.31718e-06
8.39698e-07
0.00373735
2.67085e-06
-1.4634e-06
0.00373591
-7.70365e-07
1.33031e-06
0.00373701
-4.95509e-07
1.81745e-06
0.00373637
5.31289e-07
-1.87198e-06
0.00373596
1.07002e-06
6.6039e-07
0.00373621
-3.21898e-07
1.6716e-07
0.00373642
-1.12954e-06
2.80137e-07
0.00373352
3.97679e-06
-6.81907e-07
0.00373405
-5.07296e-06
1.73515e-06
0.00373553
-4.32078e-06
1.98573e-06
0.00373466
-4.62677e-06
-1.29693e-06
0.00373726
-1.14221e-05
2.50641e-06
0.00373937
-4.58473e-06
3.08498e-06
0.00373886
-8.19315e-06
-6.96522e-07
0.00373867
4.00245e-07
3.55847e-06
0.00373945
-3.71016e-06
3.69085e-06
0.0037376
-1.02108e-06
5.80717e-07
3.17447e-06
6.00344e-06
0.00339712
-3.32377e-06
6.3692e-06
0.00339835
-9.53906e-07
5.06251e-07
0.00339755
-1.73571e-07
5.55399e-06
0.00339784
-2.84095e-07
2.98732e-06
0.00339797
-4.60205e-06
-2.11236e-06
0.00339752
-7.46981e-07
4.05412e-06
0.00339856
-6.67468e-06
-2.11075e-06
0.0033991
-4.83486e-06
1.77856e-06
0.00340047
-4.84438e-06
-2.05291e-06
0.00340014
-3.68468e-06
-3.60359e-06
0.00340161
-4.07787e-06
1.48657e-06
0.00340089
-2.44268e-06
-5.41536e-06
0.00340196
-1.76827e-06
7.68609e-07
0.00340227
-4.69699e-06
-1.2614e-06
0.00340214
2.12795e-06
-1.77259e-06
0.00340113
1.76177e-06
1.47557e-06
0.00340013
5.37271e-06
-1.96909e-06
0.00339922
4.37764e-06
5.91798e-07
0.00339693
5.28092e-06
-1.94543e-06
0.00339867
3.47913e-06
-1.17036e-06
0.00339677
4.372e-08
1.52177e-06
0.00339692
2.3175e-06
1.75236e-06
0.00339721
2.23217e-06
-1.58032e-06
0.00339562
3.39034e-07
1.12309e-06
0.00339729
-2.04185e-06
2.52142e-06
0.00339629
1.03597e-06
-1.50901e-06
0.00339625
1.46341e-06
-2.8733e-08
0.00339677
7.98325e-08
6.0739e-07
0.00339543
-5.16066e-07
-8.45897e-07
0.00339373
5.86213e-06
5.31337e-07
0.00339318
-4.9692e-06
1.70363e-06
0.00339438
-5.75947e-06
1.19521e-06
0.00339504
-5.34243e-06
-2.68964e-08
0.00339713
-1.38772e-05
2.14031e-06
0.0034006
-7.74259e-06
3.62661e-06
0.00339884
-7.13924e-06
-4.367e-07
0.00339963
-5.76305e-07
4.4947e-06
0.00339991
-5.02786e-06
2.88284e-06
0.00339708
1.62687e-06
2.35465e-06
2.50764e-06
7.44169e-06
0.00308776
-2.08869e-06
6.52098e-06
0.00308895
-1.27567e-06
3.21099e-06
0.00308818
3.27635e-07
6.10026e-06
0.0030892
-1.05332e-06
2.45476e-06
0.00308786
-4.65986e-06
-1.12852e-06
0.00308795
-2.18845e-06
4.01275e-06
0.00308933
-9.09096e-06
-1.77088e-06
0.00309028
-6.62352e-06
1.30203e-06
0.00309112
-5.81949e-06
-3.21246e-06
0.003091
-4.27576e-06
-4.18936e-06
0.00309258
-6.04613e-06
5.4446e-07
0.0030913
-2.58514e-06
-5.05837e-06
0.00309289
-4.18618e-06
-3.17391e-07
0.00309368
-6.09807e-06
-1.76396e-06
0.00309324
1.12592e-06
-2.21677e-07
0.0030921
1.8792e-06
1.51997e-06
0.00309189
6.27416e-06
-1.27669e-06
0.00308891
6.93962e-06
1.55629e-07
0.00308769
7.0174e-06
-2.05338e-06
0.00308945
2.01205e-06
-6.69325e-07
0.00308721
1.54732e-06
2.14802e-06
0.00308829
1.45191e-06
2.59503e-06
0.00308746
2.77608e-06
-1.61089e-06
0.00308665
7.65803e-07
1.23511e-06
0.00308834
-4.10892e-06
3.02395e-06
0.00308694
1.7815e-06
-5.42656e-07
0.00308814
1.10705e-06
-9.67476e-07
0.00308795
8.64738e-07
7.32549e-07
0.00308548
1.35917e-06
-1.62866e-06
0.00308504
6.43813e-06
1.85955e-06
0.0030828
-3.59498e-06
1.60754e-06
0.00308439
-7.34516e-06
4.95715e-07
0.00308598
-7.11129e-06
1.06851e-06
0.00308825
-1.63439e-05
2.04138e-06
0.00309242
-1.14919e-05
3.98515e-06
0.0030898
-5.14062e-06
3.52243e-07
0.00309182
-2.63901e-06
4.88816e-06
0.00309088
-5.37157e-06
2.08554e-06
0.00308794
4.55556e-06
4.60464e-06
1.71341e-06
8.91611e-06
0.00280665
-4.33413e-07
7.88897e-06
0.0028073
-6.92521e-07
6.33745e-06
0.00280727
3.15454e-07
6.59025e-06
0.00280827
-2.42601e-06
2.51592e-06
0.0028058
-4.16372e-06
-7.77961e-09
0.00280647
-4.54356e-06
4.08482e-06
0.00280821
-1.21595e-05
-1.23931e-06
0.00280965
-8.62685e-06
1.43527e-07
0.00280995
-6.11531e-06
-4.78794e-06
0.0028103
-5.36352e-06
-4.59543e-06
0.00281108
-7.70334e-06
-6.76572e-07
0.00280979
-2.94067e-06
-5.00758e-06
0.00281212
-7.64265e-06
-1.07872e-06
0.00281308
-7.75588e-06
-2.01896e-06
0.00281231
2.48494e-07
1.73572e-06
0.00281195
1.56114e-06
2.02012e-06
0.00281109
7.89136e-06
-3.56698e-07
0.00280693
1.11983e-05
-5.72739e-07
0.00280684
8.34322e-06
-2.30712e-06
0.00280754
1.64343e-06
-2.97217e-08
0.00280625
2.57587e-06
3.31134e-06
0.00280762
3.11098e-07
3.17897e-06
0.00280579
4.16818e-06
-1.59888e-06
0.00280596
3.63865e-08
1.47769e-06
0.00280705
-6.1284e-06
3.81167e-06
0.00280624
1.72973e-06
7.93418e-07
0.0028083
1.64507e-07
-1.65964e-06
0.00280664
2.88797e-06
6.24099e-07
0.00280431
3.32075e-06
-1.99245e-06
0.00280404
6.4518e-06
3.09239e-06
0.00280051
-1.32804e-06
1.86147e-06
0.00280253
-9.12457e-06
8.1121e-08
0.00280483
-9.40431e-06
1.50973e-06
0.00280794
-1.93581e-05
2.46406e-06
0.00281175
-1.48858e-05
4.51754e-06
0.00280934
-3.09976e-06
1.44729e-06
0.00281198
-5.23763e-06
4.8713e-06
0.00280975
-4.45829e-06
1.59372e-06
0.00280709
7.29513e-06
6.98672e-06
1.14271e-06
1.03192e-05
0.00255083
2.04038e-06
1.0389e-05
0.00255129
5.67316e-07
9.47863e-06
0.00255191
-4.75673e-07
7.75941e-06
0.00255243
-4.27606e-06
3.03145e-06
0.00254951
-3.98315e-06
1.05004e-06
0.00255042
-7.41778e-06
4.46645e-06
0.00255276
-1.56623e-05
-8.88943e-07
0.00255448
-1.02817e-05
-1.85801e-06
0.00255454
-5.7997e-06
-6.9361e-06
0.00255494
-6.48657e-06
-5.11638e-06
0.00255473
-8.80832e-06
-2.0167e-06
0.0025541
-3.96693e-06
-5.22967e-06
0.00255681
-1.18325e-05
-2.10968e-06
0.00255771
-9.41179e-06
-1.65745e-06
0.00255718
-5.59478e-07
4.09279e-06
0.00255754
8.98536e-07
3.08243e-06
0.00255545
1.11809e-05
8.19796e-07
0.00255097
1.69161e-05
-1.49089e-06
0.00255112
1.02897e-05
-2.80022e-06
0.00255083
2.56906e-06
9.35177e-07
0.00255126
2.95539e-06
4.98442e-06
0.00255219
-1.96505e-07
3.68895e-06
0.0025499
6.13737e-06
-1.80971e-06
0.00255023
-1.34288e-06
1.73529e-06
0.00255107
-8.36102e-06
5.07558e-06
0.00255188
4.02454e-07
2.34426e-06
0.00255348
-4.41278e-07
-1.91864e-06
0.00255089
6.07812e-06
1.3826e-07
0.00254916
4.99372e-06
-2.01111e-06
0.00254801
6.67582e-06
4.42855e-06
0.00254409
8.2452e-07
2.70318e-06
0.00254592
-1.06341e-05
-2.66034e-07
0.00254919
-1.20652e-05
1.34175e-06
0.00255317
-2.23616e-05
3.46105e-06
0.00255628
-1.72428e-05
5.43833e-06
0.00255486
-1.60649e-06
2.78765e-06
0.00255723
-7.5824e-06
4.54721e-06
0.00255419
-2.69654e-06
1.42115e-06
0.00255201
9.45431e-06
9.39219e-06
1.14267e-06
1.22145e-05
0.00231808
5.56166e-06
1.39661e-05
0.00231848
2.56364e-06
1.29215e-05
0.00231935
-1.8274e-06
9.45804e-06
0.00231956
-6.9412e-06
3.9169e-06
0.00231647
-4.28288e-06
2.20817e-06
0.00231746
-9.97512e-06
4.79087e-06
0.00232052
-1.87283e-05
-1.53605e-06
0.00232262
-1.11982e-05
-4.93561e-06
0.00232263
-5.05574e-06
-9.41756e-06
0.00232239
-7.01938e-06
-5.87579e-06
0.00232159
-9.50523e-06
-3.50909e-06
0.00232161
-5.5955e-06
-5.81627e-06
0.00232444
-1.64721e-05
-3.42907e-06
0.00232537
-1.09953e-05
-7.93676e-07
0.00232528
-1.0842e-06
6.79235e-06
0.00232615
4.75973e-07
4.88678e-06
0.00232307
1.64416e-05
2.17416e-06
0.00231864
2.40483e-05
-2.87892e-06
0.00231795
1.38555e-05
-3.39675e-06
0.00231736
4.86109e-06
2.24739e-06
0.0023194
3.54888e-06
6.98954e-06
0.0023198
5.21248e-07
4.04949e-06
0.0023174
8.39834e-06
-2.48545e-06
0.00231692
-2.35578e-06
1.79423e-06
0.0023185
-1.1032e-05
6.67584e-06
0.00232093
-2.0228e-06
4.42639e-06
0.00232112
4.20291e-08
-1.65347e-06
0.00231862
9.62207e-06
-5.36811e-07
0.00231701
6.88486e-06
-1.90483e-06
0.00231486
7.06638e-06
6.07453e-06
0.00231103
1.9534e-06
4.46987e-06
0.00231232
-1.21354e-05
-4.99574e-07
0.00231682
-1.49308e-05
7.33685e-07
0.00232113
-2.39777e-05
4.88794e-06
0.00232398
-1.81136e-05
6.86616e-06
0.00232371
-3.26362e-07
4.48372e-06
0.00232496
-8.38085e-06
4.2563e-06
0.00232187
-5.17165e-07
1.29661e-06
0.00232003
1.1297e-05
1.16464e-05
2.15636e-06
1.48878e-05
0.00210608
1.13075e-05
1.84652e-05
0.00210622
5.90554e-06
1.69133e-05
0.00210726
-3.51165e-06
1.1438e-05
0.00210766
-1.0098e-05
4.3823e-06
0.00210458
-4.00672e-06
2.63796e-06
0.00210552
-1.03268e-05
4.60548e-06
0.00210919
-1.91523e-05
-4.03708e-06
0.00211196
-1.08064e-05
-9.92812e-06
0.00211177
-3.73356e-06
-1.26537e-05
0.00211058
-6.22718e-06
-6.99828e-06
0.00210966
-9.48837e-06
-4.91227e-06
0.00211002
-7.5949e-06
-6.83175e-06
0.00211287
-2.18474e-05
-4.97417e-06
0.00211367
-1.19045e-05
1.596e-07
0.00211411
-2.47261e-07
9.5242e-06
0.00211548
1.50373e-06
7.21036e-06
0.00211189
2.37865e-05
3.70354e-06
0.00210736
3.24758e-05
-4.28629e-06
0.00210531
1.92954e-05
-4.05643e-06
0.00210519
8.55602e-06
3.66244e-06
0.00210835
5.87281e-06
9.21052e-06
0.00210844
3.15803e-06
4.23084e-06
0.00210548
1.14803e-05
-3.88621e-06
0.00210394
-2.22668e-06
1.19168e-06
0.00210688
-1.33044e-05
8.27535e-06
0.00211025
-4.062e-06
6.93535e-06
0.00210928
1.44463e-06
-1.24832e-06
0.00210747
1.27306e-05
-1.59491e-06
0.00210528
9.53267e-06
-1.7281e-06
0.00210249
7.41921e-06
8.11136e-06
0.00209884
1.56152e-06
6.79152e-06
0.00209983
-1.47478e-05
-9.82235e-07
0.00210531
-1.77047e-05
-1.5635e-07
0.00210943
-2.22625e-05
6.66001e-06
0.0021127
-1.58967e-05
8.60217e-06
0.00211295
3.06621e-06
6.20749e-06
0.00211312
-6.22513e-06
3.82535e-06
0.00211079
2.18847e-06
1.18736e-06
0.00210882
1.43535e-05
1.41727e-05
5.8046e-06
1.85322e-05
0.0019125
2.11101e-05
2.41843e-05
0.00191204
1.10376e-05
2.13721e-05
0.00191359
-6.67358e-06
1.28242e-05
0.00191458
-1.36856e-05
4.02623e-06
0.00191171
-1.82879e-06
1.7148e-06
0.00191248
-5.32941e-06
2.47848e-06
0.00191672
-1.47868e-05
-9.97388e-06
0.00192044
-9.10824e-06
-1.71355e-05
0.00191985
-1.86521e-06
-1.62643e-05
0.00191807
-4.07058e-06
-8.24801e-06
0.00191717
-7.93041e-06
-6.44534e-06
0.00191743
-9.13969e-06
-8.96502e-06
0.00192029
-2.76908e-05
-8.04419e-06
0.00192069
-1.20262e-05
1.19911e-07
0.00192143
2.90194e-06
1.12494e-05
0.00192325
5.17546e-06
8.91366e-06
0.00191969
3.34582e-05
4.32714e-06
0.00191493
4.19211e-05
-6.03083e-06
0.00191171
2.59425e-05
-5.1606e-06
0.00191222
1.35983e-05
4.54701e-06
0.00191608
1.07823e-05
1.07585e-05
0.0019164
7.69589e-06
3.68688e-06
0.00191242
1.5982e-05
-6.08394e-06
0.00190974
7.59848e-07
-1.07184e-06
0.00191358
-1.30584e-05
8.82595e-06
0.00191689
-4.25022e-06
8.91412e-06
0.0019157
2.53563e-06
-1.58788e-06
0.00191463
1.46999e-05
-3.67986e-06
0.00191168
1.27268e-05
-2.57589e-06
0.00190835
7.56237e-06
9.81348e-06
0.00190466
-9.17638e-07
9.6867e-06
0.00190651
-2.0989e-05
-1.85695e-06
0.00191274
-2.10478e-05
-2.35123e-06
0.00191655
-1.64155e-05
6.98795e-06
0.00192028
-9.34373e-06
9.76156e-06
0.00192007
1.11929e-05
7.73658e-06
0.00191994
2.23657e-08
3.00543e-06
0.00191857
6.81307e-06
2.46466e-07
0.00191598
2.13097e-05
1.65507e-05
1.44648e-05
2.30738e-05
0.0017348
3.49037e-05
3.08865e-05
0.0017335
1.4117e-05
2.61569e-05
0.00173652
-1.67208e-05
1.2776e-05
0.0017386
-2.08089e-05
9.0859e-07
0.00173619
2.20887e-06
-1.08593e-06
0.0017365
6.39235e-06
-2.18693e-06
0.00174099
-5.21817e-06
-2.06659e-05
0.00174545
-6.32074e-06
-2.69707e-05
0.00174458
4.1027e-07
-1.92712e-05
0.00174318
-1.99646e-06
-8.83087e-06
0.00174245
-5.83438e-06
-7.97578e-06
0.00174284
-9.66825e-06
-1.33847e-05
0.00174627
-3.25552e-05
-1.39807e-05
0.00174631
-1.09795e-05
-3.20372e-06
0.00174698
7.52294e-06
9.34959e-06
0.0017482
1.09041e-05
7.60607e-06
0.00174403
4.65799e-05
3.10175e-06
0.00173884
5.32472e-05
-7.83456e-06
0.00173573
3.21634e-05
-6.84291e-06
0.00173734
1.72743e-05
3.63133e-06
0.00174179
1.55617e-05
9.47048e-06
0.00174242
1.30419e-05
3.10433e-07
0.00173759
2.29132e-05
-9.9756e-06
0.00173405
7.45741e-06
-4.72184e-06
0.00173729
-9.81212e-06
7.31727e-06
0.00173889
-3.49653e-06
8.53465e-06
0.001738
9.01779e-07
-4.25811e-06
0.00173795
1.44429e-05
-7.21924e-06
0.00173443
1.49218e-05
-5.13191e-06
0.00172966
7.33981e-06
9.43014e-06
0.00172541
-5.89171e-06
1.15561e-05
0.00172952
-3.26436e-05
-3.94029e-06
0.00173728
-2.63373e-05
-6.84996e-06
0.00174155
-9.8936e-06
3.93659e-06
0.00174509
-8.1664e-07
7.04874e-06
0.00174346
2.25685e-05
7.15998e-06
0.00174387
8.46158e-06
8.59462e-07
0.00174379
1.32635e-05
-1.39827e-06
0.00174061
3.41073e-05
1.87569e-05
3.01014e-05
2.7973e-05
0.00157136
4.92265e-05
3.65126e-05
0.00156943
6.94586e-06
3.13456e-05
0.0015753
-4.12021e-05
1.32876e-05
0.00157925
-3.35173e-05
-2.72485e-06
0.00157711
9.89579e-06
-5.1368e-06
0.00157641
2.48884e-05
-9.24308e-06
0.00158009
5.99913e-06
-3.19105e-05
0.00158437
-4.38377e-06
-3.41283e-05
0.00158389
1.81166e-06
-1.91934e-05
0.00158347
-3.0014e-06
-8.54287e-06
0.00158244
-6.07906e-06
-1.02651e-05
0.00158415
-1.02602e-05
-1.91558e-05
0.00159073
-3.65189e-05
-2.14874e-05
0.0015918
-7.37674e-06
-9.46344e-06
0.00159158
1.2438e-05
3.54245e-06
0.00159027
1.82363e-05
1.83775e-06
0.00158424
6.57822e-05
-1.78735e-06
0.00157815
6.90046e-05
-1.02618e-05
0.00157637
3.69204e-05
-8.86828e-06
0.00158016
1.43685e-05
1.07054e-06
0.0015851
1.33264e-05
4.88067e-06
0.00158587
1.43821e-05
-7.00109e-06
0.00158076
3.12088e-05
-1.63355e-05
0.00157766
1.90313e-05
-1.12466e-05
0.00157913
-4.63979e-06
3.20824e-06
0.00157762
-5.32307e-06
5.96389e-06
0.00157651
-4.9323e-06
-8.66751e-06
0.00157724
1.24564e-05
-1.20236e-05
0.001573
1.5646e-05
-9.14573e-06
0.00156504
5.17754e-06
7.73275e-06
0.00155903
-1.7006e-05
1.30127e-05
0.00156615
-4.88611e-05
-7.7375e-06
0.00157718
-3.16014e-05
-1.47119e-05
0.00158371
-5.60677e-06
-4.88168e-06
0.00158586
4.11789e-06
1.2275e-07
0.00158156
3.14219e-05
3.04619e-06
0.00158284
1.42271e-05
-2.97483e-06
0.00158543
2.00341e-05
-3.9695e-06
0.00158315
5.2965e-05
1.88449e-05
5.3293e-05
3.03811e-05
0.00142143
6.24164e-05
3.7828e-05
0.00141861
-9.75176e-06
3.50449e-05
0.00142738
-7.29225e-05
1.48524e-05
0.00143408
-4.24964e-05
-7.03108e-06
0.00143353
2.75783e-05
-1.01855e-05
0.0014318
5.03106e-05
-1.40493e-05
0.00143304
1.62697e-05
-3.5637e-05
0.00143567
-4.68517e-06
-3.41509e-05
0.00143629
1.78788e-06
-1.73773e-05
0.00143626
-6.37835e-06
-9.27213e-06
0.00143293
-7.4368e-06
-1.41651e-05
0.00143579
-1.31024e-05
-2.44295e-05
0.00144686
-4.28291e-05
-2.72182e-05
0.00145097
-3.29799e-06
-1.26665e-05
0.0014508
1.73783e-05
7.85841e-07
0.00144837
2.69072e-05
-3.45479e-06
0.00144125
9.10229e-05
-7.18619e-06
0.0014334
9.16604e-05
-1.2404e-05
0.0014331
4.10381e-05
-9.20418e-06
0.00143949
2.45777e-06
2.01243e-06
0.00144431
-9.63492e-09
3.63021e-06
0.00144389
7.5596e-06
-1.36204e-05
0.00143976
3.77065e-05
-2.38803e-05
0.00143889
3.36887e-05
-1.92218e-05
0.00143906
9.32666e-07
-8.99405e-07
0.00143686
-1.02088e-05
4.0913e-06
0.00143677
-1.50991e-05
-1.24805e-05
0.00143715
1.14287e-05
-1.70084e-05
0.00142994
1.87165e-05
-1.29467e-05
0.00141667
-7.08523e-07
6.09341e-06
0.00140874
-3.70828e-05
1.39926e-05
0.00141809
-6.75783e-05
-1.12564e-05
0.00143232
-3.13815e-05
-2.47949e-05
0.00144159
1.33036e-06
-1.78364e-05
0.0014413
7.17717e-06
-9.58653e-06
0.0014335
3.52781e-05
-6.04014e-07
0.00143595
1.85312e-05
-7.0498e-06
0.0014425
2.91189e-05
-7.20521e-06
0.00144227
7.65625e-05
1.66254e-05
8.14941e-05
2.9295e-05
0.00128583
8.49926e-05
2.89192e-05
0.00128041
-1.74408e-05
2.98828e-05
0.00128928
-9.63033e-05
1.53567e-05
0.00129792
-4.58918e-05
-8.1667e-06
0.00130079
5.00667e-05
-1.2407e-05
0.00129923
7.44051e-05
-1.42767e-05
0.00129806
2.14384e-05
-3.12147e-05
0.00129904
-7.18073e-06
-3.05135e-05
0.00130175
3.75031e-06
-1.98023e-05
0.0013019
-6.08591e-06
-1.5325e-05
0.00129484
-5.56606e-06
-2.09552e-05
0.00129582
-1.90536e-05
-2.63614e-05
0.00130684
-5.30693e-05
-2.6579e-05
0.00131325
-2.56163e-06
-8.40749e-06
0.00131545
1.82009e-05
4.6237e-06
0.00131596
3.2197e-05
-4.31704e-06
0.00130964
0.000120388
-7.36069e-06
0.0012989
0.000125094
-1.09209e-05
0.00129899
4.554e-05
-3.78364e-06
0.00130759
-2.08301e-05
1.22217e-05
0.00131256
-2.57229e-05
1.17943e-05
0.0013104
-8.20374e-06
-1.2798e-05
0.00130839
4.1903e-05
-3.13207e-05
0.00131042
4.88634e-05
-2.76949e-05
0.00131032
2.71632e-06
-2.19225e-06
0.00131074
-2.29248e-05
8.58023e-06
0.0013142
-2.94964e-05
-1.24096e-05
0.00131541
1.56736e-05
-2.44666e-05
0.0013046
2.77276e-05
-1.71689e-05
0.00128532
-1.03832e-05
8.09888e-06
0.00127674
-6.3456e-05
1.52871e-05
0.00128824
-8.1899e-05
-1.85462e-05
0.00130428
-1.96871e-05
-3.9338e-05
0.00131373
1.58773e-05
-2.9363e-05
0.00130982
1.20248e-05
-1.33396e-05
0.00129936
4.30834e-05
-2.02689e-06
0.0013025
3.13803e-05
-1.10313e-05
0.00131262
4.23434e-05
-1.00941e-05
0.0013148
9.64122e-05
1.5989e-05
0.000110327
2.55542e-05
0.00116614
0.000126576
1.30484e-05
0.001162
-6.82043e-06
2.0979e-05
0.00117169
-0.000114558
1.72757e-05
0.00117929
-5.42687e-05
-4.08703e-06
0.0011812
6.50485e-05
-1.01476e-05
0.00117816
8.79913e-05
-1.1276e-05
0.00117496
1.64334e-05
-2.46577e-05
0.00117534
-9.9327e-06
-3.00969e-05
0.00118048
1.1647e-05
-2.63652e-05
0.00118156
-3.48383e-06
-2.09282e-05
0.001173
-6.53941e-06
-2.35898e-05
0.0011715
-2.95523e-05
-2.35636e-05
0.0011784
-6.356e-05
-2.148e-05
0.00118567
-5.23532e-06
2.65699e-06
0.00119078
9.12998e-06
1.52727e-05
0.00119391
3.42267e-05
1.05987e-07
0.00118769
0.000158695
-2.9985e-06
0.00117318
0.000167149
-4.84358e-06
0.00116891
4.17722e-05
1.17e-05
0.00117512
-5.82738e-05
3.04375e-05
0.00118212
-6.2446e-05
2.37027e-05
0.00118268
-2.8838e-05
-1.20541e-05
0.00118506
4.91733e-05
-4.46485e-05
0.00118814
6.23234e-05
-3.45708e-05
0.00118531
-4.64601e-06
6.01444e-06
0.00118568
-4.18998e-05
1.98351e-05
0.00119215
-3.9224e-05
-1.47316e-05
0.00119693
2.50344e-05
-3.39376e-05
0.00118276
3.52212e-05
-1.40764e-05
0.00115761
-2.62489e-05
1.93737e-05
0.00115184
-8.73776e-05
1.64641e-05
0.00116881
-8.50939e-05
-3.01489e-05
0.0011861
1.70018e-06
-5.38918e-05
0.00119285
3.3831e-05
-3.38654e-05
0.00118566
1.75532e-05
-6.90158e-06
0.00117577
5.69062e-05
5.23652e-06
0.00118143
4.99756e-05
-6.71825e-06
0.00119394
5.07378e-05
-5.98925e-06
0.00119696
0.000104332
1.8651e-05
0.000141177
1.80559e-05
0.00105986
0.000176367
4.02038e-06
0.00105477
9.52872e-06
1.65876e-05
0.00106424
-0.000138904
1.72947e-05
0.00107191
-7.58378e-05
-3.69821e-06
0.00107248
7.05694e-05
-9.44765e-06
0.00106886
8.63949e-05
-1.61769e-06
0.00106551
-2.29498e-06
-1.3479e-05
0.00106747
-1.03491e-05
-3.23254e-05
0.00107496
2.49011e-05
-3.19683e-05
0.00107441
-6.92022e-06
-1.82239e-05
0.00106338
-2.02048e-05
-1.59066e-05
0.00105916
-4.38052e-05
-1.81902e-05
0.00106236
-6.6984e-05
-1.87076e-05
0.00106929
-4.934e-06
1.16991e-05
0.00107504
-3.09311e-06
2.42615e-05
0.00108135
4.40482e-05
1.87801e-06
0.00107867
0.000208029
8.45436e-07
0.00105955
0.000206262
5.27518e-06
0.00104155
2.63822e-05
2.84076e-05
0.00103871
-0.000101926
4.3377e-05
0.00104938
-0.000100845
2.51786e-05
0.00105758
-4.65759e-05
-2.43927e-05
0.00106594
6.13843e-05
-6.40637e-05
0.00107064
7.04237e-05
-3.3894e-05
0.00106828
-2.07325e-05
2.10006e-05
0.00106895
-5.43416e-05
2.30748e-05
0.00107398
-3.42289e-05
-2.70854e-05
0.00107789
3.54525e-05
-3.80565e-05
0.00105957
2.95139e-05
4.0764e-06
0.0010326
-5.06652e-05
3.6867e-05
0.00103214
-0.000104635
1.57726e-05
0.00105334
-7.43999e-05
-4.33097e-05
0.00107086
2.91335e-05
-6.32325e-05
0.00107629
4.5216e-05
-2.67794e-05
0.00107048
1.25105e-05
1.07382e-05
0.00106494
5.70321e-05
2.89115e-05
0.00107308
4.956e-05
1.353e-05
0.00108445
3.67981e-05
1.0137e-05
0.00108686
9.91522e-05
2.55439e-05
0.00017376
1.23231e-05
0.000970015
0.000215279
2.63974e-06
0.000951744
1.67364e-05
1.25394e-05
0.000948997
-0.000183308
4.95413e-06
0.000957017
-0.000114039
-1.87795e-05
0.000963224
6.48312e-05
-1.54502e-05
0.00096316
7.3039e-05
5.98936e-06
0.000963122
-2.72269e-05
-9.14526e-06
0.000973064
-9.28117e-06
-3.78062e-05
0.000981881
3.63583e-05
-2.88324e-05
0.000971368
-2.15272e-05
-5.12221e-06
0.000955024
-4.88557e-05
-7.23178e-07
0.000951354
-6.15756e-05
-1.03846e-05
0.000953944
-6.25637e-05
-1.32752e-05
0.000957293
6.46481e-06
2.04251e-05
0.000961611
-5.85323e-06
2.32933e-05
0.000977953
5.91671e-05
-2.17939e-06
0.000985414
0.000250313
5.83191e-06
0.000961361
0.000230042
1.60417e-05
0.000927228
8.23428e-06
3.76769e-05
0.000914357
-0.000136189
4.5386e-05
0.000922754
-0.000128308
1.3639e-05
0.00093169
-5.31576e-05
-5.28872e-05
0.000948706
7.35955e-05
-8.52881e-05
0.000962373
6.31575e-05
-2.11595e-05
0.000964288
-4.68678e-05
4.05047e-05
0.000966193
-6.54656e-05
2.24764e-05
0.000968391
-2.47049e-05
-3.44576e-05
0.000966604
4.40368e-05
-3.06645e-05
0.000942609
1.35139e-05
2.37508e-05
0.000918285
-7.86628e-05
4.59928e-05
0.000924856
-0.000115801
1.09579e-05
0.000949338
-5.68381e-05
-5.1845e-05
0.000966017
5.76073e-05
-5.98918e-05
0.000966782
5.06549e-05
-1.02135e-05
0.000961304
-7.86684e-08
2.63018e-05
0.000964086
2.98828e-05
4.22067e-05
0.000975856
1.23809e-05
2.66669e-05
0.000984221
-6.78311e-06
2.68499e-05
0.000989782
8.10681e-05
3.53208e-05
0.000196227
1.19414e-05
0.000902043
0.000244194
1.94039e-06
0.000870629
1.94655e-05
1.02731e-05
0.000846819
-0.000216768
-6.95421e-06
0.000850271
-0.000136611
-3.57605e-05
0.000862039
6.01515e-05
-1.93535e-05
0.000861278
6.06138e-05
8.61551e-06
0.000861328
-4.08755e-05
-1.55782e-05
0.000876393
-7.24241e-07
-4.20442e-05
0.00087776
4.54237e-05
-2.20752e-05
0.000854073
-4.44121e-05
5.53658e-06
0.000840411
-8.08923e-05
7.98743e-06
0.000844573
-7.39783e-05
-2.58574e-06
0.000849809
-4.39062e-05
1.26798e-06
0.000850699
3.12396e-05
3.09644e-05
0.000856119
2.96346e-06
1.6528e-05
0.000883506
7.6105e-05
-9.75316e-06
0.000900839
0.000274756
8.2149e-06
0.000879707
0.000225739
2.78409e-05
0.000844792
-1.96821e-05
5.08296e-05
0.000826743
-0.000155935
4.26912e-05
0.000819098
-0.000128095
-1.21041e-05
0.000818377
-4.18547e-05
-8.52649e-05
0.000847496
7.60273e-05
-8.9443e-05
0.000868991
4.45762e-05
-2.71472e-06
0.000868949
-6.78461e-05
4.32919e-05
0.000873004
-6.91706e-05
6.99382e-06
0.000875451
-7.81983e-06
-4.2998e-05
0.000864711
5.79826e-05
-2.33403e-05
0.000834338
-7.04334e-06
3.58138e-05
0.000816775
-0.000105286
4.85436e-05
0.000831524
-0.0001207
3.18162e-06
0.00086056
-3.76489e-05
-5.76751e-05
0.000875106
8.14794e-05
-4.43448e-05
0.000863424
6.21194e-05
8.05322e-06
0.00085435
-4.69397e-06
2.52652e-05
0.00086743
-4.5265e-06
2.30123e-05
0.000880344
-4.27801e-05
1.70903e-05
0.000884356
-6.12097e-05
3.23283e-05
0.000899283
5.37273e-05
3.17854e-05
0.000205012
3.46659e-06
0.000830638
0.000273388
-7.6853e-06
0.000797304
3.20584e-05
-4.61353e-06
0.000766148
-0.000217887
-2.08317e-05
0.000770051
-0.000131106
-3.66527e-05
0.000779571
6.62001e-05
-7.68561e-06
0.00076856
6.91671e-05
9.9336e-06
0.0007628
-2.74408e-05
-2.16849e-05
0.000770542
1.64684e-05
-3.63486e-05
0.000759417
4.10528e-05
-9.95265e-06
0.000735875
-7.05154e-05
1.16722e-05
0.000733254
-8.73543e-05
1.22778e-05
0.000744125
-5.64833e-05
7.24664e-06
0.000753503
-7.88794e-06
1.83219e-05
0.00075681
6.654e-05
3.62595e-05
0.000761691
2.66527e-05
3.53215e-06
0.000790762
9.90829e-05
-1.38204e-05
0.000818524
0.000269688
1.556e-05
0.000811367
0.000184004
4.08774e-05
0.000782122
-5.06034e-05
5.68844e-05
0.000759355
-0.000148013
3.31325e-05
0.000738855
-0.000105305
-2.39461e-05
0.000735584
-2.48748e-05
-8.62852e-05
0.000772963
7.91004e-05
-7.22563e-05
0.000791757
3.33241e-05
1.13814e-05
0.000785426
-7.5964e-05
3.44122e-05
0.000789362
-6.09177e-05
-8.42286e-06
0.000790723
1.90378e-05
-4.6025e-05
0.000774932
6.82429e-05
-1.36181e-05
0.000745852
-3.32454e-05
4.45123e-05
0.000731723
-0.000119457
4.77565e-05
0.000742529
-0.000109576
-9.11733e-06
0.000771392
-1.57726e-05
-6.36421e-05
0.000789095
9.13848e-05
-2.64134e-05
0.000778122
6.65862e-05
2.34086e-05
0.000773313
6.10916e-07
1.32008e-05
0.000784706
-1.83188e-05
-5.47299e-06
0.000779215
-6.71024e-05
-4.96871e-06
0.000772354
-8.65526e-05
1.65905e-05
0.000799319
3.46218e-05
7.56537e-06
0.000213847
-1.64702e-05
0.000753649
0.000297478
-1.37849e-05
0.00072496
4.6804e-05
-1.49207e-05
0.000691552
-0.000195489
-2.66227e-05
0.000693339
-0.000113825
-2.69987e-05
0.000697949
7.81211e-05
3.25008e-06
0.000683867
8.93108e-05
6.2634e-06
0.000675721
-1.0959e-05
-2.3617e-05
0.000674206
1.76899e-05
-2.15107e-05
0.000659233
2.08918e-05
5.3634e-06
0.000640556
-6.92475e-05
1.5687e-05
0.000641198
-5.61545e-05
1.77707e-05
0.000653778
-2.69036e-05
1.63051e-05
0.000666708
2.88846e-05
2.56506e-05
0.000671657
9.74394e-05
2.80255e-05
0.000672948
4.83512e-05
-3.54893e-06
0.000704482
0.000107433
-5.34376e-06
0.000745263
0.000226384
2.39969e-05
0.000747218
0.000121766
4.78122e-05
0.00071789
-6.53436e-05
5.5265e-05
0.000690764
-0.000117383
2.49761e-05
0.000668364
-7.64834e-05
-2.91431e-05
0.000672121
-3.37648e-06
-8.22018e-05
0.000710816
8.51696e-05
-5.19907e-05
0.000722335
1.90544e-05
2.45295e-05
0.000711489
-7.58363e-05