/*--------------------------------*- C++ -*----------------------------------*\
  =========                 |
  \\      /  F ield         | OpenFOAM: The Open Source CFD Toolbox
   \\    /   O peration     | Website:  https://openfoam.org
    \\  /    A nd           | Version:  10
     \\/     M anipulation  |
\*---------------------------------------------------------------------------*/
FoamFile
{
    format      ascii;
    class       volScalarField;
    location    "20";
    object      pPrime2Mean;
}
// * * * * * * * * * * * * * * * * * * * * * * * * * * * * * * * * * * * * * //

dimensions      [0 4 -4 0 0 0 0];

internalField   nonuniform List<scalar> 
25600
(
4.47012e-10
4.73933e-10
4.86804e-10
4.45205e-10
4.42555e-10
3.96921e-10
3.21502e-10
3.08772e-10
2.7433e-10
2.15263e-10
1.78512e-10
1.76383e-10
1.53366e-10
1.11694e-10
1.44144e-10
1.20628e-10
1.08042e-10
1.44406e-10
1.13753e-10
1.50117e-10
1.83818e-10
1.75941e-10
2.14446e-10
2.8373e-10
2.98722e-10
3.21775e-10
3.88741e-10
3.92119e-10
4.20559e-10
4.28617e-10
4.36237e-10
4.55466e-10
4.49712e-10
4.92894e-10
5.05719e-10
5.10648e-10
5.56726e-10
5.91195e-10
6.40796e-10
5.56367e-10
5.50595e-10
5.58153e-10
5.50572e-10
4.93207e-10
5.04628e-10
4.58823e-10
3.67474e-10
3.53615e-10
3.00166e-10
2.23508e-10
1.84198e-10
1.72781e-10
1.40597e-10
1.0943e-10
1.45631e-10
1.08555e-10
1.09106e-10
1.32856e-10
1.05212e-10
1.65985e-10
1.85146e-10
1.90475e-10
2.57447e-10
2.97055e-10
3.22279e-10
3.89007e-10
4.11187e-10
4.18397e-10
4.65237e-10
4.36642e-10
4.34646e-10
4.68512e-10
4.5764e-10
4.74288e-10
5.22356e-10
5.45848e-10
5.71904e-10
5.97437e-10
6.06855e-10
6.00361e-10
6.0863e-10
6.25604e-10
6.14942e-10
5.6405e-10
5.93032e-10
5.41031e-10
4.25063e-10
4.01308e-10
3.08215e-10
2.08502e-10
1.82154e-10
1.44664e-10
1.09999e-10
1.12158e-10
1.31358e-10
8.75741e-11
1.14218e-10
1.19413e-10
1.02677e-10
1.84804e-10
1.80507e-10
2.0801e-10
3.05627e-10
3.10751e-10
3.73069e-10
4.69949e-10
4.41371e-10
4.70796e-10
5.0427e-10
4.38012e-10
4.25489e-10
4.56669e-10
4.48631e-10
4.51825e-10
5.32574e-10
5.64141e-10
5.85889e-10
6.23222e-10
6.31495e-10
6.37262e-10
6.74184e-10
6.93385e-10
6.94805e-10
6.63872e-10
7.04339e-10
6.33906e-10
4.86133e-10
4.47641e-10
3.05256e-10
1.93466e-10
1.83387e-10
1.14182e-10
9.22052e-11
1.23435e-10
1.14097e-10
8.48688e-11
1.30824e-10
1.1013e-10
1.08438e-10
1.9067e-10
1.64608e-10
2.23798e-10
3.35847e-10
3.24928e-10
4.45746e-10
5.51452e-10
4.90932e-10
5.46035e-10
5.30927e-10
4.31087e-10
4.07029e-10
4.22849e-10
4.30707e-10
4.35024e-10
5.4319e-10
5.86316e-10
6.22208e-10
6.77397e-10
6.75492e-10
6.86213e-10
7.55078e-10
7.6676e-10
7.92482e-10
7.89825e-10
8.35918e-10
7.43147e-10
5.66973e-10
5.0205e-10
3.07815e-10
1.91339e-10
1.81782e-10
9.12963e-11
8.96423e-11
1.35135e-10
1.07556e-10
1.00018e-10
1.46516e-10
1.07224e-10
1.20054e-10
1.85825e-10
1.50705e-10
2.39166e-10
3.56995e-10
3.58093e-10
5.39691e-10
6.41254e-10
5.70764e-10
6.357e-10
5.46059e-10
4.20106e-10
3.78713e-10
3.75155e-10
4.06873e-10
4.24273e-10
5.59894e-10
6.25745e-10
6.82621e-10
7.58462e-10
7.43844e-10
7.53613e-10
8.41006e-10
8.37831e-10
9.06954e-10
9.43227e-10
1.00027e-09
8.89086e-10
6.82178e-10
5.70205e-10
3.21389e-10
1.93689e-10
1.6949e-10
7.84481e-11
1.00851e-10
1.54508e-10
1.21518e-10
1.26563e-10
1.60256e-10
1.12092e-10
1.32613e-10
1.80717e-10
1.49045e-10
2.61288e-10
3.89424e-10
4.19476e-10
6.59123e-10
7.55958e-10
6.92976e-10
7.42701e-10
5.61864e-10
4.07285e-10
3.36734e-10
3.17896e-10
3.75848e-10
4.17496e-10
5.83784e-10
6.82389e-10
7.67814e-10
8.72699e-10
8.42276e-10
8.3967e-10
9.14601e-10
8.99676e-10
1.03708e-09
1.13293e-09
1.21465e-09
1.08719e-09
8.38743e-10
6.56565e-10
3.4765e-10
1.96702e-10
1.55731e-10
8.49509e-11
1.39074e-10
2.01223e-10
1.64322e-10
1.61794e-10
1.75161e-10
1.22299e-10
1.451e-10
1.87843e-10
1.61252e-10
2.97958e-10
4.43189e-10
5.15142e-10
8.11256e-10
9.12316e-10
8.74413e-10
8.78455e-10
5.87168e-10
3.87389e-10
2.80534e-10
2.54769e-10
3.38844e-10
4.14719e-10
6.1405e-10
7.60628e-10
8.92267e-10
1.03308e-09
9.74413e-10
9.38146e-10
9.62761e-10
9.47727e-10
1.17981e-09
1.37274e-09
1.4974e-09
1.35057e-09
1.04261e-09
7.64525e-10
3.87181e-10
2.02809e-10
1.52183e-10
1.22704e-10
2.21018e-10
2.88011e-10
2.35711e-10
2.05175e-10
1.94033e-10
1.35392e-10
1.67052e-10
2.14963e-10
1.91903e-10
3.58493e-10
5.27593e-10
6.54785e-10
1.00454e-09
1.12822e-09
1.13444e-09
1.0581e-09
6.25345e-10
3.57227e-10
2.19301e-10
1.96137e-10
3.03298e-10
4.18533e-10
6.56448e-10
8.71721e-10
1.07536e-09
1.25669e-09
1.14748e-09
1.04373e-09
9.75813e-10
9.70856e-10
1.33175e-09
1.6804e-09
1.86884e-09
1.69502e-09
1.30536e-09
9.04297e-10
4.4622e-10
2.18366e-10
1.71594e-10
2.1492e-10
3.69325e-10
4.26223e-10
3.38261e-10
2.62266e-10
2.19619e-10
1.57034e-10
2.10858e-10
2.68081e-10
2.53297e-10
4.56747e-10
6.62479e-10
8.52759e-10
1.24533e-09
1.42189e-09
1.49953e-09
1.30508e-09
6.79202e-10
3.20889e-10
1.74756e-10
1.59633e-10
2.81232e-10
4.33568e-10
7.22151e-10
1.03021e-09
1.34369e-09
1.56997e-09
1.38012e-09
1.15075e-09
9.58496e-10
9.66667e-10
1.49839e-09
2.0845e-09
2.35717e-09
2.14138e-09
1.64223e-09
1.08998e-09
5.35062e-10
2.5248e-10
2.37176e-10
4.02415e-10
6.11247e-10
6.33204e-10
4.8332e-10
3.45749e-10
2.55667e-10
2.0011e-10
2.90247e-10
3.58578e-10
3.66015e-10
6.19168e-10
8.7975e-10
1.1262e-09
1.54006e-09
1.80774e-09
2.01041e-09
1.65514e-09
7.53979e-10
2.96054e-10
1.87107e-10
1.74105e-10
2.87841e-10
4.64403e-10
8.26663e-10
1.25705e-09
1.73304e-09
2.01485e-09
1.69879e-09
1.26177e-09
9.15803e-10
9.36015e-10
1.69049e-09
2.62832e-09
3.00289e-09
2.71217e-09
2.06865e-09
1.34087e-09
6.65411e-10
3.17035e-10
3.84947e-10
7.50054e-10
9.86054e-10
9.33526e-10
6.92368e-10
4.69345e-10
3.11184e-10
2.86499e-10
4.31063e-10
5.08915e-10
5.59518e-10
8.90204e-10
1.2207e-09
1.5022e-09
1.89699e-09
2.30338e-09
2.72877e-09
2.16355e-09
8.63614e-10
3.16063e-10
3.22096e-10
2.90161e-10
3.42827e-10
5.28032e-10
9.88507e-10
1.57562e-09
2.29425e-09
2.65208e-09
2.14115e-09
1.38244e-09
8.70141e-10
8.97717e-10
1.93132e-09
3.37041e-09
3.8575e-09
3.43719e-09
2.60437e-09
1.68274e-09
8.5917e-10
4.33497e-10
6.70569e-10
1.35902e-09
1.5495e-09
1.36818e-09
9.95061e-10
6.53393e-10
4.03446e-10
4.53156e-10
6.78437e-10
7.62506e-10
8.78595e-10
1.33176e-09
1.74228e-09
2.02395e-09
2.31783e-09
2.92338e-09
3.74589e-09
2.90827e-09
1.02794e-09
4.36343e-10
6.81569e-10
5.80129e-10
4.66629e-10
6.4945e-10
1.23788e-09
2.01777e-09
3.09883e-09
3.5658e-09
2.76918e-09
1.53041e-09
8.70438e-10
8.9515e-10
2.25552e-09
4.39527e-09
4.98354e-09
4.34708e-09
3.26946e-09
2.1499e-09
1.14157e-09
6.34969e-10
1.17873e-09
2.39747e-09
2.37033e-09
1.98466e-09
1.43254e-09
9.25444e-10
5.60876e-10
7.55914e-10
1.10693e-09
1.17662e-09
1.38083e-09
2.03717e-09
2.52191e-09
2.75955e-09
2.80914e-09
3.68014e-09
5.19173e-09
3.99902e-09
1.2842e-09
7.45135e-10
1.42039e-09
1.14782e-09
6.96792e-10
8.63803e-10
1.61413e-09
2.61653e-09
4.24027e-09
4.86304e-09
3.67093e-09
1.73161e-09
9.97516e-10
1.00431e-09
2.71011e-09
5.8058e-09
6.45189e-09
5.46812e-09
4.07993e-09
2.78573e-09
1.56541e-09
9.70253e-10
2.02854e-09
4.11563e-09
3.54293e-09
2.84721e-09
2.05939e-09
1.3323e-09
8.31429e-10
1.29079e-09
1.82616e-09
1.82941e-09
2.13364e-09
3.12713e-09
3.66808e-09
3.81158e-09
3.38063e-09
4.58974e-09
7.24714e-09
5.59124e-09
1.69093e-09
1.3595e-09
2.75317e-09
2.12017e-09
1.0763e-09
1.22603e-09
2.17384e-09
3.40613e-09
5.84652e-09
6.69345e-09
4.97277e-09
2.02772e-09
1.3832e-09
1.34955e-09
3.36228e-09
7.74131e-09
8.35145e-09
6.8385e-09
5.0444e-09
3.65648e-09
2.22131e-09
1.5118e-09
3.39078e-09
6.90078e-09
5.18326e-09
4.0348e-09
2.94834e-09
1.93962e-09
1.28294e-09
2.18663e-09
2.97634e-09
2.80351e-09
3.21241e-09
4.75444e-09
5.3208e-09
5.32984e-09
4.0384e-09
5.67398e-09
1.0155e-08
7.88886e-09
2.329e-09
2.44064e-09
4.99711e-09
3.67103e-09
1.66426e-09
1.80489e-09
2.98845e-09
4.41942e-09
8.08479e-09
9.24371e-09
6.8615e-09
2.4887e-09
2.18912e-09
2.08166e-09
4.28929e-09
1.03525e-08
1.07817e-08
8.50535e-09
6.16437e-09
4.84728e-09
3.24419e-09
2.3122e-09
5.50014e-09
1.12989e-08
7.41464e-09
5.65517e-09
4.20631e-09
2.85642e-09
2.03415e-09
3.62308e-09
4.75373e-09
4.17566e-09
4.69586e-09
7.09338e-09
7.65854e-09
7.52634e-09
4.81993e-09
6.99444e-09
1.42634e-08
1.11901e-08
3.33231e-09
4.19422e-09
8.5886e-09
5.99257e-09
2.55948e-09
2.71759e-09
4.17025e-09
5.69144e-09
1.11935e-08
1.27667e-08
9.58284e-09
3.19725e-09
3.68319e-09
3.39392e-09
5.6184e-09
1.38493e-08
1.38684e-08
1.05619e-08
7.42371e-09
6.52298e-09
4.89007e-09
3.52327e-09
8.75093e-09
1.81483e-08
1.04256e-08
7.8624e-09
6.02311e-09
4.2751e-09
3.24706e-09
5.86573e-09
7.44199e-09
6.03987e-09
6.68466e-09
1.03238e-08
1.09207e-08
1.07012e-08
5.79586e-09
8.61404e-09
2.0026e-08
1.58599e-08
4.8958e-09
6.918e-09
1.41739e-08
9.31366e-09
3.8454e-09
4.11122e-09
5.85615e-09
7.24172e-09
1.55166e-08
1.76017e-08
1.35316e-08
4.32676e-09
6.27427e-09
5.60415e-09
7.59673e-09
1.84853e-08
1.7845e-08
1.31553e-08
8.95451e-09
8.92312e-09
7.58597e-09
5.35947e-09
1.37154e-08
2.86411e-08
1.44581e-08
1.0908e-08
8.73223e-09
6.52933e-09
5.23783e-09
9.33894e-09
1.14828e-08
8.56651e-09
9.29464e-09
1.46642e-08
1.54731e-08
1.53494e-08
7.1914e-09
1.08309e-08
2.81419e-08
2.24583e-08
7.3898e-09
1.1019e-08
2.27675e-08
1.3953e-08
5.82681e-09
6.29154e-09
8.30816e-09
9.22427e-09
2.15962e-08
2.42542e-08
1.92552e-08
6.1162e-09
1.06165e-08
9.19176e-09
1.06991e-08
2.47742e-08
2.31377e-08
1.66834e-08
1.11276e-08
1.26877e-08
1.23365e-08
8.3918e-09
2.14933e-08
4.46345e-08
1.99882e-08
1.53456e-08
1.30197e-08
1.02927e-08
8.60715e-09
1.47929e-08
1.76474e-08
1.21068e-08
1.27645e-08
2.03054e-08
2.19326e-08
2.22701e-08
9.4907e-09
1.41349e-08
3.96707e-08
3.1858e-08
1.14407e-08
1.72232e-08
3.59797e-08
2.0362e-08
9.04266e-09
9.84458e-09
1.20642e-08
1.19947e-08
3.04201e-08
3.35407e-08
2.76967e-08
9.15149e-09
1.78884e-08
1.50678e-08
1.58606e-08
3.33848e-08
3.0401e-08
2.17819e-08
1.47553e-08
1.87392e-08
2.0701e-08
1.34702e-08
3.37182e-08
6.86122e-08
2.76931e-08
2.18285e-08
1.976e-08
1.6611e-08
1.43035e-08
2.33783e-08
2.72089e-08
1.73854e-08
1.77976e-08
2.76694e-08
3.12487e-08
3.27601e-08
1.36869e-08
1.9475e-08
5.62508e-08
4.53404e-08
1.83673e-08
2.68295e-08
5.63896e-08
2.93554e-08
1.45514e-08
1.58481e-08
1.79739e-08
1.63107e-08
4.34677e-08
4.68214e-08
4.02956e-08
1.43677e-08
2.93862e-08
2.41464e-08
2.42508e-08
4.54521e-08
4.058e-08
2.96025e-08
2.13859e-08
2.81919e-08
3.55019e-08
2.20629e-08
5.29728e-08
1.05066e-07
3.87492e-08
3.16053e-08
3.05106e-08
2.68736e-08
2.32769e-08
3.63526e-08
4.14536e-08
2.51732e-08
2.514e-08
3.71868e-08
4.48736e-08
4.82109e-08
2.08533e-08
2.81715e-08
7.94241e-08
6.436e-08
2.96455e-08
4.16671e-08
8.77425e-08
4.19217e-08
2.37003e-08
2.56701e-08
2.72881e-08
2.3403e-08
6.31604e-08
6.58173e-08
5.78978e-08
2.28278e-08
4.54224e-08
3.70357e-08
3.71165e-08
6.14715e-08
5.54527e-08
4.16753e-08
3.32103e-08
4.19522e-08
6.00322e-08
3.50713e-08
8.18798e-08
1.56151e-07
5.34427e-08
4.49986e-08
4.55667e-08
4.24003e-08
3.74599e-08
5.53447e-08
6.19293e-08
3.64403e-08
3.68046e-08
5.16258e-08
6.36076e-08
6.931e-08
3.26336e-08
4.19553e-08
1.12435e-07
8.96129e-08
4.6766e-08
6.32383e-08
1.34226e-07
5.84219e-08
3.78616e-08
4.04064e-08
4.07847e-08
3.46704e-08
9.23457e-08
9.26031e-08
7.93533e-08
3.5621e-08
6.56432e-08
5.57919e-08
5.45743e-08
8.0937e-08
7.55025e-08
6.00427e-08
5.52171e-08
6.20557e-08
9.81694e-08
5.42053e-08
1.25093e-07
2.24906e-07
7.41417e-08
6.34248e-08
6.76465e-08
6.39247e-08
5.88428e-08
8.17064e-08
8.28971e-08
5.18773e-08
5.41912e-08
7.16618e-08
8.8701e-08
9.62883e-08
5.05998e-08
6.15001e-08
1.58581e-07
1.26355e-07
6.97922e-08
9.63837e-08
2.03304e-07
7.80178e-08
5.91708e-08
5.93609e-08
5.8084e-08
5.13895e-08
1.31628e-07
1.29237e-07
1.05921e-07
5.54757e-08
9.13228e-08
8.26582e-08
7.90229e-08
1.00788e-07
9.78575e-08
8.4118e-08
9.31505e-08
8.71929e-08
1.37891e-07
7.70805e-08
1.7586e-07
2.93396e-07
9.65381e-08
8.6359e-08
9.5426e-08
8.783e-08
8.99639e-08
1.11228e-07
1.0312e-07
7.30619e-08
7.96247e-08
9.85797e-08
1.14682e-07
1.21761e-07
7.57186e-08
8.65484e-08
2.13944e-07
1.69913e-07
9.55652e-08
1.48311e-07
2.91231e-07
9.47156e-08
8.65074e-08
8.17508e-08
8.03669e-08
7.4585e-08
1.82403e-07
1.77923e-07
1.49945e-07
7.96973e-08
1.16526e-07
1.11694e-07
1.04151e-07
1.12931e-07
1.22926e-07
1.09687e-07
1.39314e-07
1.1475e-07
1.85826e-07
1.0374e-07
2.25328e-07
3.77387e-07
1.23304e-07
1.14322e-07
1.27313e-07
1.19574e-07
1.32621e-07
1.51257e-07
1.20152e-07
9.77993e-08
1.09017e-07
1.35267e-07
1.42774e-07
1.59139e-07
1.05619e-07
1.15089e-07
2.73305e-07
2.23526e-07
1.45504e-07
2.22299e-07
3.81751e-07
1.14187e-07
1.16861e-07
1.08089e-07
1.04946e-07
1.00918e-07
2.48284e-07
2.26214e-07
2.04991e-07
1.05801e-07
1.36386e-07
1.3647e-07
1.26944e-07
1.42869e-07
1.44161e-07
1.30035e-07
1.55116e-07
1.38975e-07
2.33188e-07
1.29015e-07
2.66176e-07
4.42141e-07
1.46389e-07
1.44312e-07
1.56379e-07
1.47679e-07
1.79789e-07
1.91011e-07
1.41144e-07
1.28722e-07
1.40032e-07
1.8729e-07
1.7205e-07
2.15348e-07
1.36045e-07
1.40158e-07
3.1037e-07
2.78707e-07
1.88257e-07
2.92716e-07
4.39714e-07
1.35764e-07
1.40039e-07
1.31276e-07
1.30749e-07
1.24571e-07
2.66919e-07
2.45369e-07
2.38083e-07
1.28658e-07
1.48835e-07
1.63027e-07
1.42073e-07
1.67568e-07
1.57909e-07
1.49902e-07
1.6432e-07
1.57422e-07
2.62454e-07
1.50143e-07
2.90223e-07
4.26986e-07
1.58104e-07
1.65578e-07
1.77059e-07
1.70553e-07
2.21619e-07
2.29745e-07
1.59059e-07
1.61002e-07
1.61666e-07
2.24602e-07
1.94852e-07
2.50361e-07
1.51714e-07
1.55756e-07
3.17605e-07
3.07267e-07
2.14717e-07
3.20975e-07
4.48398e-07
1.49641e-07
1.5335e-07
1.46065e-07
1.4645e-07
1.37235e-07
2.4603e-07
2.45281e-07
2.59257e-07
1.40258e-07
1.52291e-07
1.71437e-07
1.46085e-07
1.82704e-07
1.69253e-07
1.61555e-07
1.55335e-07
1.59386e-07
2.52494e-07
1.61508e-07
2.90285e-07
4.05493e-07
1.62797e-07
1.73379e-07
1.86246e-07
1.73892e-07
2.63706e-07
2.48893e-07
1.68421e-07
1.76043e-07
1.73479e-07
2.50212e-07
2.00151e-07
2.66237e-07
1.49474e-07
1.5789e-07
2.8988e-07
3.18453e-07
2.27926e-07
3.23505e-07
4.21762e-07
1.5242e-07
1.56801e-07
1.53613e-07
1.477e-07
1.37278e-07
2.30281e-07
2.31252e-07
2.55546e-07
1.41929e-07
1.50555e-07
1.67542e-07
1.41506e-07
1.98353e-07
1.73771e-07
1.62381e-07
1.47461e-07
1.53318e-07
2.29453e-07
1.62163e-07
2.80644e-07
3.67973e-07
1.61963e-07
1.68964e-07
1.87664e-07
1.74543e-07
2.81123e-07
2.58559e-07
1.73478e-07
1.78208e-07
1.75521e-07
2.64308e-07
1.98379e-07
2.95196e-07
1.43796e-07
1.54701e-07
2.60715e-07
3.27569e-07
2.26612e-07
3.15591e-07
4.26899e-07
1.50762e-07
1.57676e-07
1.54376e-07
1.43504e-07
1.35146e-07
2.12882e-07
2.22808e-07
2.54957e-07
1.39636e-07
1.4704e-07
1.63665e-07
1.37637e-07
2.02219e-07
1.74481e-07
1.62757e-07
1.41983e-07
1.48496e-07
2.1835e-07
1.59449e-07
2.7521e-07
3.48287e-07
1.6043e-07
1.64252e-07
1.82811e-07
1.67399e-07
2.8546e-07
2.52925e-07
1.73568e-07
1.72516e-07
1.73157e-07
2.68955e-07
1.93934e-07
3.00208e-07
1.38973e-07
1.50179e-07
2.43921e-07
3.2418e-07
2.16661e-07
3.02369e-07
4.27467e-07
1.49634e-07
1.56733e-07
1.50457e-07
1.39446e-07
1.32415e-07
2.0607e-07
2.14729e-07
2.5886e-07
1.37388e-07
1.43289e-07
1.56859e-07
1.33883e-07
2.02581e-07
1.71327e-07
1.59507e-07
1.36898e-07
1.44581e-07
2.03465e-07
1.56065e-07
2.67765e-07
3.43919e-07
1.57516e-07
1.6062e-07
1.76825e-07
1.64129e-07
2.77706e-07
2.45798e-07
1.7327e-07
1.66748e-07
1.69052e-07
2.59408e-07
1.91918e-07
2.97502e-07
1.35562e-07
1.46531e-07
2.37437e-07
3.15883e-07
2.05068e-07
2.93868e-07
4.20651e-07
1.4579e-07
1.53656e-07
1.45494e-07
1.36023e-07
1.3028e-07
2.04868e-07
2.09703e-07
2.52556e-07
1.34576e-07
1.41683e-07
1.54491e-07
1.31995e-07
2.00877e-07
1.71456e-07
1.5837e-07
1.35102e-07
1.43212e-07
1.98796e-07
1.53993e-07
2.64495e-07
3.42139e-07
1.55846e-07
1.59e-07
1.73382e-07
1.6198e-07
2.72246e-07
2.42402e-07
1.7007e-07
1.63427e-07
1.66601e-07
2.54859e-07
1.90521e-07
2.94662e-07
1.33785e-07
1.44496e-07
2.35978e-07
3.11106e-07
2.02363e-07
2.89662e-07
4.14023e-07
1.44486e-07
1.51264e-07
1.42966e-07
1.34496e-07
1.29036e-07
2.04752e-07
2.0743e-07
2.49436e-07
1.32845e-07
4.67127e-10
4.72552e-10
4.95077e-10
4.47162e-10
4.44918e-10
4.13275e-10
3.31445e-10
3.16465e-10
2.75943e-10
2.20188e-10
1.8331e-10
1.72434e-10
1.57715e-10
1.14507e-10
1.4451e-10
1.32141e-10
1.10994e-10
1.4722e-10
1.24148e-10
1.50176e-10
1.8695e-10
1.81063e-10
2.15868e-10
2.82868e-10
2.96012e-10
3.22048e-10
3.93576e-10
3.96742e-10
4.26451e-10
4.3974e-10
4.46566e-10
4.68702e-10
4.61889e-10
5.07418e-10
5.19489e-10
5.20038e-10
5.7021e-10
5.98297e-10
6.18116e-10
5.57363e-10
5.43871e-10
5.49541e-10
5.58647e-10
4.97439e-10
5.12385e-10
4.80106e-10
3.77814e-10
3.61217e-10
3.0552e-10
2.3367e-10
1.92556e-10
1.7315e-10
1.48589e-10
1.14064e-10
1.5304e-10
1.23908e-10
1.08661e-10
1.37407e-10
1.13354e-10
1.64164e-10
1.90214e-10
1.91497e-10
2.60141e-10
2.94278e-10
3.16247e-10
3.94189e-10
4.13319e-10
4.20659e-10
4.72368e-10
4.44983e-10
4.42871e-10
4.7708e-10
4.69887e-10
4.89557e-10
5.32751e-10
5.59703e-10
5.83965e-10
5.99895e-10
6.01727e-10
5.92768e-10
5.97908e-10
6.18719e-10
6.24773e-10
5.69507e-10
6.05926e-10
5.61251e-10
4.35623e-10
4.15812e-10
3.23108e-10
2.24056e-10
1.95142e-10
1.50507e-10
1.1969e-10
1.19976e-10
1.40386e-10
9.87925e-11
1.11055e-10
1.2453e-10
1.0775e-10
1.84603e-10
1.89407e-10
2.09839e-10
3.15139e-10
3.11684e-10
3.70907e-10
4.84297e-10
4.47326e-10
4.80414e-10
5.21286e-10
4.53399e-10
4.44008e-10
4.71827e-10
4.74568e-10
4.79355e-10
5.52448e-10
5.93678e-10
6.0192e-10
6.24647e-10
6.2586e-10
6.27225e-10
6.56767e-10
6.86736e-10
7.00614e-10
6.64252e-10
7.17682e-10
6.51383e-10
5.02562e-10
4.74827e-10
3.28503e-10
2.09841e-10
1.99813e-10
1.24127e-10
1.01322e-10
1.33368e-10
1.19141e-10
9.08765e-11
1.30665e-10
1.16894e-10
1.13363e-10
1.96497e-10
1.77422e-10
2.29822e-10
3.50115e-10
3.24441e-10
4.45027e-10
5.67612e-10
4.98928e-10
5.62549e-10
5.55277e-10
4.5421e-10
4.35179e-10
4.48744e-10
4.74204e-10
4.73966e-10
5.73965e-10
6.2676e-10
6.38379e-10
6.77751e-10
6.68494e-10
6.71165e-10
7.26645e-10
7.557e-10
7.89326e-10
7.82163e-10
8.47955e-10
7.63115e-10
5.95686e-10
5.42656e-10
3.35857e-10
2.04734e-10
2.02258e-10
1.0409e-10
9.73252e-11
1.44304e-10
1.03655e-10
1.04067e-10
1.51338e-10
1.14263e-10
1.26118e-10
1.96148e-10
1.64821e-10
2.4827e-10
3.68616e-10
3.50139e-10
5.35579e-10
6.53485e-10
5.79522e-10
6.56595e-10
5.73485e-10
4.47878e-10
4.13954e-10
4.14916e-10
4.67103e-10
4.70871e-10
6.01701e-10
6.74464e-10
7.03107e-10
7.60352e-10
7.32349e-10
7.28607e-10
7.97355e-10
8.19172e-10
8.91152e-10
9.25115e-10
1.00768e-09
9.14663e-10
7.25432e-10
6.2236e-10
3.51831e-10
2.0408e-10
1.95178e-10
9.1458e-11
1.04643e-10
1.55686e-10
1.05436e-10
1.28231e-10
1.66345e-10
1.18413e-10
1.37848e-10
1.93321e-10
1.62515e-10
2.71735e-10
3.95189e-10
4.00031e-10
6.45195e-10
7.59909e-10
7.0013e-10
7.63666e-10
5.89227e-10
4.37506e-10
3.78509e-10
3.71667e-10
4.48111e-10
4.68949e-10
6.39488e-10
7.44575e-10
8.01549e-10
8.7644e-10
8.20199e-10
7.96093e-10
8.54422e-10
8.72689e-10
1.0058e-09
1.10086e-09
1.21345e-09
1.11864e-09
8.97443e-10
7.19456e-10
3.78178e-10
2.04962e-10
1.86007e-10
9.57028e-11
1.3402e-10
1.82987e-10
1.30315e-10
1.60379e-10
1.79919e-10
1.26693e-10
1.47451e-10
1.98932e-10
1.73143e-10
3.09635e-10
4.40358e-10
4.75859e-10
7.77416e-10
9.03027e-10
8.75607e-10
8.96311e-10
6.13239e-10
4.1841e-10
3.27466e-10
3.19419e-10
4.18715e-10
4.73503e-10
6.91829e-10
8.46981e-10
9.47217e-10
1.03565e-09
9.33171e-10
8.66672e-10
8.85412e-10
9.10806e-10
1.13136e-09
1.31957e-09
1.48401e-09
1.3861e-09
1.11877e-09
8.39845e-10
4.14438e-10
2.07888e-10
1.84666e-10
1.29029e-10
1.97843e-10
2.37491e-10
1.79347e-10
2.01828e-10
1.98181e-10
1.38602e-10
1.6359e-10
2.17146e-10
2.01118e-10
3.70212e-10
5.08552e-10
5.82645e-10
9.38959e-10
1.10006e-09
1.12564e-09
1.07041e-09
6.47809e-10
3.86383e-10
2.69307e-10
2.66164e-10
3.88859e-10
4.91593e-10
7.67014e-10
9.94981e-10
1.16002e-09
1.25565e-09
1.07681e-09
9.36622e-10
8.91392e-10
9.30667e-10
1.26947e-09
1.60333e-09
1.83853e-09
1.73398e-09
1.40063e-09
9.92537e-10
4.64622e-10
2.17189e-10
2.04806e-10
2.12582e-10
3.11427e-10
3.28566e-10
2.5617e-10
2.60745e-10
2.26157e-10
1.63928e-10
1.99226e-10
2.58101e-10
2.60131e-10
4.6523e-10
6.1358e-10
7.30454e-10
1.13587e-09
1.36932e-09
1.47476e-09
1.30568e-09
6.95549e-10
3.47236e-10
2.23188e-10
2.3057e-10
3.69949e-10
5.2889e-10
8.76595e-10
1.21064e-09
1.4677e-09
1.56248e-09
1.26493e-09
1.00537e-09
8.75704e-10
9.31769e-10
1.43006e-09
1.98834e-09
2.31043e-09
2.18715e-09
1.76054e-09
1.19235e-09
5.38782e-10
2.43245e-10
2.70646e-10
3.78526e-10
4.97259e-10
4.70103e-10
3.72561e-10
3.42409e-10
2.72885e-10
2.19648e-10
2.73321e-10
3.41868e-10
3.70683e-10
6.15055e-10
7.78133e-10
9.34732e-10
1.37464e-09
1.72973e-09
1.96286e-09
1.63753e-09
7.65931e-10
3.1851e-10
2.23734e-10
2.38466e-10
3.72973e-10
5.97721e-10
1.0407e-09
1.51891e-09
1.91201e-09
1.99818e-09
1.52124e-09
1.07752e-09
8.56242e-10
9.24599e-10
1.6352e-09
2.53388e-09
2.94887e-09
2.77609e-09
2.22494e-09
1.46492e-09
6.56502e-10
3.06157e-10
4.209e-10
6.87001e-10
7.93831e-10
6.89904e-10
5.48598e-10
4.66132e-10
3.58547e-10
3.38474e-10
4.20052e-10
5.02135e-10
5.62581e-10
8.5474e-10
1.03706e-09
1.21987e-09
1.66755e-09
2.20409e-09
2.64861e-09
2.12304e-09
8.77561e-10
3.32884e-10
3.30537e-10
3.33063e-10
4.17209e-10
7.21643e-10
1.29434e-09
1.9551e-09
2.55569e-09
2.62651e-09
1.88479e-09
1.1691e-09
8.78043e-10
9.46274e-10
1.92115e-09
3.33582e-09
3.822e-09
3.53462e-09
2.82685e-09
1.84183e-09
8.46861e-10
4.38096e-10
7.1258e-10
1.23306e-09
1.25432e-09
1.03021e-09
8.13563e-10
6.56213e-10
5.10488e-10
5.67878e-10
6.96494e-10
7.9045e-10
8.84879e-10
1.24344e-09
1.44389e-09
1.63403e-09
2.03757e-09
2.82249e-09
3.62005e-09
2.85065e-09
1.06925e-09
4.50508e-10
6.40526e-10
5.85493e-10
5.3572e-10
9.38701e-10
1.68688e-09
2.56628e-09
3.49145e-09
3.53783e-09
2.41346e-09
1.30601e-09
1.02215e-09
1.07478e-09
2.3523e-09
4.54262e-09
5.02751e-09
4.51153e-09
3.6159e-09
2.37617e-09
1.16375e-09
6.95277e-10
1.23871e-09
2.17678e-09
1.9664e-09
1.55586e-09
1.22105e-09
9.59658e-10
7.79387e-10
9.92836e-10
1.19861e-09
1.28118e-09
1.40812e-09
1.86952e-09
2.07815e-09
2.25805e-09
2.5197e-09
3.63029e-09
5.01399e-09
3.9514e-09
1.39914e-09
7.61482e-10
1.29316e-09
1.09621e-09
7.80993e-10
1.31445e-09
2.28761e-09
3.41259e-09
4.85582e-09
4.86279e-09
3.19874e-09
1.54653e-09
1.42168e-09
1.42783e-09
3.01936e-09
6.37604e-09
6.69104e-09
5.75484e-09
4.64067e-09
3.13544e-09
1.67539e-09
1.14637e-09
2.13091e-09
3.76631e-09
3.03229e-09
2.33527e-09
1.82756e-09
1.43338e-09
1.23612e-09
1.73262e-09
2.0609e-09
2.07722e-09
2.22485e-09
2.85287e-09
3.04903e-09
3.23065e-09
3.17924e-09
4.69096e-09
7.00632e-09
5.60875e-09
1.96117e-09
1.40857e-09
2.49876e-09
2.01668e-09
1.23662e-09
1.94766e-09
3.19281e-09
4.57152e-09
6.83799e-09
6.77129e-09
4.37007e-09
1.96878e-09
2.27789e-09
2.19753e-09
4.04911e-09
9.16213e-09
8.98401e-09
7.33278e-09
5.98213e-09
4.22887e-09
2.50008e-09
1.89992e-09
3.57737e-09
6.40057e-09
4.5988e-09
3.45966e-09
2.72575e-09
2.16991e-09
2.00721e-09
2.97262e-09
3.46973e-09
3.32792e-09
3.46372e-09
4.37025e-09
4.52892e-09
4.77898e-09
4.11614e-09
6.11152e-09
9.84849e-09
8.08056e-09
2.89992e-09
2.57608e-09
4.5135e-09
3.54116e-09
2.01901e-09
2.97492e-09
4.52601e-09
6.13909e-09
9.72041e-09
9.5074e-09
6.1083e-09
2.6995e-09
3.86591e-09
3.66648e-09
5.60849e-09
1.33544e-08
1.21173e-08
9.30037e-09
7.72079e-09
5.79135e-09
3.76945e-09
3.0888e-09
5.82755e-09
1.0673e-08
6.85137e-09
5.05189e-09
4.03196e-09
3.2903e-09
3.27999e-09
4.9519e-09
5.64864e-09
5.1995e-09
5.25447e-09
6.62405e-09
6.70164e-09
7.21177e-09
5.43361e-09
8.02164e-09
1.38529e-08
1.16935e-08
4.40943e-09
4.50901e-09
7.66461e-09
5.94089e-09
3.29275e-09
4.56237e-09
6.43847e-09
8.21864e-09
1.38791e-08
1.33613e-08
8.64747e-09
3.88679e-09
6.53779e-09
6.20354e-09
7.89819e-09
1.96076e-08
1.63628e-08
1.17617e-08
1.00082e-08
8.01079e-09
5.65169e-09
4.85289e-09
9.19226e-09
1.74165e-08
1.0008e-08
7.27338e-09
5.91852e-09
4.95877e-09
5.41072e-09
8.04173e-09
8.92194e-09
7.9617e-09
7.82957e-09
9.96688e-09
9.8806e-09
1.10715e-08
7.35876e-09
1.07211e-08
1.94258e-08
1.68899e-08
6.76308e-09
7.51156e-09
1.23474e-08
9.60159e-09
5.33194e-09
6.97277e-09
9.16587e-09
1.09776e-08
1.98576e-08
1.87161e-08
1.23391e-08
5.73876e-09
1.08396e-08
1.04814e-08
1.12617e-08
2.89407e-08
2.21566e-08
1.49117e-08
1.3139e-08
1.12537e-08
8.49067e-09
7.55841e-09
1.425e-08
2.79455e-08
1.44183e-08
1.03887e-08
8.71004e-09
7.45058e-09
9.02395e-09
1.2694e-08
1.35852e-08
1.18776e-08
1.14734e-08
1.48199e-08
1.44336e-08
1.71483e-08
1.01734e-08
1.45957e-08
2.70826e-08
2.42832e-08
1.04188e-08
1.20063e-08
1.90284e-08
1.50011e-08
8.41892e-09
1.04787e-08
1.30322e-08
1.46757e-08
2.84212e-08
2.60657e-08
1.7674e-08
8.58258e-09
1.74112e-08
1.72802e-08
1.61149e-08
4.27698e-08
3.01493e-08
1.91473e-08
1.75395e-08
1.58951e-08
1.26065e-08
1.15235e-08
2.15719e-08
4.3996e-08
2.06342e-08
1.47869e-08
1.28931e-08
1.12197e-08
1.53552e-08
1.95432e-08
1.99727e-08
1.73307e-08
1.67642e-08
2.20344e-08
2.08773e-08
2.6688e-08
1.43736e-08
2.03602e-08
3.75542e-08
3.46948e-08
1.60303e-08
1.85293e-08
2.84076e-08
2.30556e-08
1.32601e-08
1.56252e-08
1.85857e-08
1.98079e-08
4.06498e-08
3.60418e-08
2.54389e-08
1.28483e-08
2.7411e-08
2.8251e-08
2.32651e-08
6.34811e-08
4.15887e-08
2.53423e-08
2.41516e-08
2.28745e-08
1.88848e-08
1.76779e-08
3.21564e-08
6.79681e-08
2.93887e-08
2.12577e-08
1.93271e-08
1.70085e-08
2.67477e-08
2.95444e-08
2.89655e-08
2.52934e-08
2.46615e-08
3.29315e-08
3.00154e-08
4.17812e-08
2.09045e-08
2.92485e-08
5.19764e-08
4.93112e-08
2.47866e-08
2.79397e-08
4.12833e-08
3.45807e-08
2.0472e-08
2.31947e-08
2.67836e-08
2.73238e-08
5.80525e-08
4.96481e-08
3.68664e-08
1.9409e-08
4.17183e-08
4.48032e-08
3.37161e-08
9.48047e-08
5.81323e-08
3.4494e-08
3.3547e-08
3.27095e-08
2.84131e-08
2.68836e-08
4.71678e-08
1.03039e-07
4.18331e-08
3.04852e-08
2.90118e-08
2.56777e-08
4.72454e-08
4.361e-08
4.05135e-08
3.63974e-08
3.61769e-08
4.89597e-08
4.25171e-08
6.46542e-08
3.05088e-08
4.28162e-08
7.13746e-08
6.94456e-08
3.78686e-08
4.1097e-08
5.89835e-08
5.15044e-08
3.15065e-08
3.4036e-08
3.86544e-08
3.83774e-08
8.20263e-08
6.78955e-08
5.35692e-08
2.93277e-08
6.29245e-08
6.96639e-08
4.8747e-08
1.4362e-07
8.07734e-08
4.72254e-08
4.77164e-08
4.67725e-08
4.22279e-08
4.06244e-08
6.83027e-08
1.51432e-07
5.93352e-08
4.39995e-08
4.36991e-08
3.91697e-08
8.28654e-08
6.24467e-08
5.75254e-08
5.34604e-08
5.38892e-08
7.32141e-08
5.99235e-08
9.53362e-08
4.51367e-08
6.34231e-08
9.78669e-08
9.68538e-08
5.75425e-08
5.91993e-08
8.30047e-08
7.40891e-08
4.72847e-08
4.94874e-08
5.70403e-08
5.46317e-08
1.14833e-07
9.151e-08
7.82076e-08
4.38557e-08
9.03412e-08
1.0383e-07
6.88498e-08
2.10707e-07
1.10348e-07
6.48515e-08
6.82209e-08
6.45928e-08
6.25241e-08
6.0501e-08
9.7802e-08
2.15301e-07
8.39379e-08
6.20912e-08
6.27975e-08
5.85168e-08
1.4508e-07
8.85116e-08
7.60679e-08
7.42038e-08
7.76888e-08
1.05885e-07
8.05089e-08
1.37923e-07
6.49122e-08
9.05568e-08
1.35751e-07
1.32511e-07
8.66478e-08
8.18968e-08
1.0957e-07
1.02575e-07
6.94878e-08
7.07472e-08
7.9248e-08
7.84655e-08
1.68847e-07
1.19647e-07
1.08593e-07
6.36382e-08
1.22496e-07
1.48774e-07
9.45285e-08
2.9286e-07
1.54697e-07
8.79444e-08
9.54786e-08
8.67123e-08
8.89585e-08
8.6605e-08
1.42624e-07
2.87236e-07
1.10793e-07
8.38739e-08
8.81519e-08
8.52439e-08
2.0562e-07
1.1727e-07
9.9448e-08
1.02696e-07
1.12719e-07
1.39016e-07
1.05983e-07
1.77022e-07
9.19529e-08
1.29498e-07
1.80597e-07
1.73307e-07
1.22865e-07
1.09991e-07
1.33753e-07
1.33036e-07
9.85611e-08
9.99042e-08
1.06851e-07
1.09146e-07
2.28953e-07
1.52296e-07
1.57837e-07
9.01423e-08
1.51881e-07
1.8504e-07
1.21969e-07
3.6913e-07
2.26379e-07
1.14887e-07
1.24654e-07
1.12623e-07
1.2039e-07
1.15568e-07
2.10566e-07
3.63919e-07
1.4002e-07
1.06535e-07
1.15862e-07
1.13708e-07
2.67307e-07
1.50241e-07
1.29496e-07
1.30873e-07
1.5804e-07
1.83372e-07
1.32236e-07
1.9215e-07
1.20932e-07
1.85825e-07
2.2872e-07
2.22285e-07
1.76169e-07
1.42135e-07
1.60785e-07
1.65134e-07
1.3214e-07
1.33888e-07
1.34885e-07
1.44987e-07
2.64528e-07
1.88066e-07
2.16096e-07
1.1674e-07
1.79293e-07
2.22858e-07
1.50197e-07
4.03485e-07
2.84996e-07
1.37563e-07
1.52157e-07
1.38613e-07
1.53736e-07
1.43285e-07
2.57555e-07
3.85844e-07
1.72072e-07
1.31406e-07
1.41245e-07
1.47397e-07
3.19685e-07
1.81193e-07
1.58478e-07
1.54502e-07
2.19959e-07
2.21867e-07
1.65138e-07
2.31629e-07
1.4913e-07
2.47148e-07
2.767e-07
2.66342e-07
2.39388e-07
1.75245e-07
1.85044e-07
2.00933e-07
1.60413e-07
1.75509e-07
1.58578e-07
1.71904e-07
2.56489e-07
2.13127e-07
2.63735e-07
1.43319e-07
1.98279e-07
2.47761e-07
1.71252e-07
3.94051e-07
3.24454e-07
1.60735e-07
1.68968e-07
1.58763e-07
1.78035e-07
1.62834e-07
2.64271e-07
3.61153e-07
1.79822e-07
1.51333e-07
1.54978e-07
1.72319e-07
3.76782e-07
2.05128e-07
1.81501e-07
1.68821e-07
2.67453e-07
2.46798e-07
1.91328e-07
2.78427e-07
1.67972e-07
2.86809e-07
3.01454e-07
2.99136e-07
3.19245e-07
2.04685e-07
2.07274e-07
2.37099e-07
1.81759e-07
2.02423e-07
1.71152e-07
2.06363e-07
2.32916e-07
2.23634e-07
3.0335e-07
1.62929e-07
2.0418e-07
2.66231e-07
1.8117e-07
3.9808e-07
3.16633e-07
1.70846e-07
1.73068e-07
1.66664e-07
1.81428e-07
1.72333e-07
2.5599e-07
3.67779e-07
1.87688e-07
1.62573e-07
1.62714e-07
1.88141e-07
3.85093e-07
2.22016e-07
1.98138e-07
1.7242e-07
2.86706e-07
2.56497e-07
2.07376e-07
2.99157e-07
1.7413e-07
2.90066e-07
3.30005e-07
3.12312e-07
3.66528e-07
2.28503e-07
2.17391e-07
2.46244e-07
1.92023e-07
2.11438e-07
1.75392e-07
2.24032e-07
2.28165e-07
2.23741e-07
2.92517e-07
1.68919e-07
2.02096e-07
2.74822e-07
1.79736e-07
3.95724e-07
3.12355e-07
1.75028e-07
1.67974e-07
1.65168e-07
1.75978e-07
1.70614e-07
2.40512e-07
3.69556e-07
1.85269e-07
1.70356e-07
1.61835e-07
1.90597e-07
3.78003e-07
2.27841e-07
2.14709e-07
1.73502e-07
2.88143e-07
2.60651e-07
2.12829e-07
2.92792e-07
1.75782e-07
2.79432e-07
3.48957e-07
3.16138e-07
4.33012e-07
2.3715e-07
2.25366e-07
2.41745e-07
1.93686e-07
2.03952e-07
1.75442e-07
2.32425e-07
2.26973e-07
2.19822e-07
2.79366e-07
1.70563e-07
1.96347e-07
2.69892e-07
1.76726e-07
3.90194e-07
3.07125e-07
1.75229e-07
1.63772e-07
1.61559e-07
1.72161e-07
1.68408e-07
2.35394e-07
3.6737e-07
1.80391e-07
1.72894e-07
1.60118e-07
1.86543e-07
3.62496e-07
2.27466e-07
2.15818e-07
1.71826e-07
2.78563e-07
2.61816e-07
2.13261e-07
2.83508e-07
1.73906e-07