/*--------------------------------*- C++ -*----------------------------------*\
  =========                 |
  \\      /  F ield         | OpenFOAM: The Open Source CFD Toolbox
   \\    /   O peration     | Website:  https://openfoam.org
    \\  /    A nd           | Version:  10
     \\/     M anipulation  |
\*---------------------------------------------------------------------------*/
FoamFile
{
    format      ascii;
    class       volVectorField;
    location    "20";
    object      U;
}
// * * * * * * * * * * * * * * * * * * * * * * * * * * * * * * * * * * * * * //

dimensions      [0 1 -1 0 0 0 0];

internalField   nonuniform List<vector> 
25600
(
(1.04233 -0.000202685 0.000538887)
(1.04171 0.000867219 -0.000354841)
(1.04269 -0.000524394 0.000366469)
(1.04313 -9.2462e-05 0.000295437)
(1.04183 0.000760296 -8.8974e-05)
(1.04283 -0.000625422 0.00012496)
(1.0429 3.44607e-05 0.000195822)
(1.04221 -0.000418799 -7.19776e-05)
(1.04348 0.000355683 4.15808e-05)
(1.04237 -0.000694951 6.45751e-05)
(1.04271 0.000306814 1.65956e-05)
(1.04335 -4.1242e-05 -0.000219427)
(1.04341 0.00014263 6.07151e-05)
(1.04277 0.000611158 -2.27463e-05)
(1.04271 -0.000267976 -0.000235271)
(1.04385 0.00111795 6.89609e-05)
(1.04287 -0.000190889 -0.000167519)
(1.04297 0.000720375 -3.75126e-05)
(1.04254 6.92153e-05 -8.21156e-05)
(1.04252 0.000459941 5.21874e-05)
(1.0431 1.26053e-05 -6.15377e-05)
(1.04176 1.1605e-05 -4.37693e-06)
(1.0422 0.000365998 1.8067e-06)
(1.04318 -0.00038567 0.000262545)
(1.04109 0.0005946 -5.36968e-05)
(1.04202 -0.000732223 -5.67061e-05)
(1.0431 0.000353578 0.000385995)
(1.04109 -0.000461379 -0.000223002)
(1.04206 -2.60221e-06 0.000396076)
(1.0422 -0.000742872 -0.000296433)
(1.04189 -0.000705249 0.000296366)
(1.04153 0.000227893 0.00017087)
(1.04171 -0.00184871 -0.000316043)
(1.04249 -0.000215551 0.00038992)
(1.04168 -0.000452213 -0.000136806)
(1.04203 -0.0010199 0.000155837)
(1.04253 -2.79609e-05 -0.000107082)
(1.04214 -0.000103781 0.000406834)
(1.04189 -0.000161745 -0.000175925)
(1.04261 0.000143365 0.000178021)
(1.0426 -0.000491254 0.000769399)
(1.04164 0.000651226 -0.000388679)
(1.04222 -0.000462319 0.000426242)
(1.04362 -0.000135617 0.000463649)
(1.04168 0.000181525 -9.29119e-05)
(1.04256 -0.000193413 0.000182669)
(1.04285 -0.000332033 0.000114787)
(1.04247 -0.000510748 0.000113614)
(1.04334 0.000326448 -8.34929e-05)
(1.04229 -0.000872161 -1.78975e-06)
(1.04301 0.000317105 0.000251165)
(1.04331 -0.00027974 -0.000547127)
(1.04366 0.000400411 0.000240834)
(1.04259 9.08329e-05 5.76585e-05)
(1.04305 8.53043e-05 -0.000441852)
(1.04382 0.00104659 0.000262668)
(1.04275 -8.98687e-05 -0.000310352)
(1.04304 0.000861446 3.22499e-05)
(1.04248 3.00524e-06 -0.000108049)
(1.04253 0.000848093 -0.000106028)
(1.0428 -9.34194e-05 2.97616e-05)
(1.04199 6.43229e-05 -3.51941e-05)
(1.042 0.000566781 -0.000111206)
(1.04313 -0.000350108 0.000217609)
(1.04102 0.000205781 6.26179e-05)
(1.04199 -0.000273572 -0.000211789)
(1.04306 0.000197399 0.000350777)
(1.04106 -0.000519823 -0.000190259)
(1.04198 0.000183544 0.000369251)
(1.04179 -0.000616779 -0.000292622)
(1.04236 -0.00068671 0.000241958)
(1.04105 3.50108e-05 0.000342793)
(1.04144 -0.00151687 -0.000423746)
(1.0431 -0.000711408 0.000448886)
(1.04131 -0.000349152 9.32694e-05)
(1.04221 -0.00132314 5.36998e-05)
(1.04304 2.56775e-05 7.5691e-05)
(1.04199 -0.000105744 0.000514221)
(1.04205 -0.000436231 -0.000215804)
(1.04254 0.000340649 0.000343346)
(1.0426 -0.000630512 0.00089932)
(1.04172 0.00025301 -0.000304645)
(1.04199 -0.000181363 0.000530364)
(1.0437 -0.000204051 0.00065226)
(1.04177 -0.000279266 -0.000161778)
(1.04237 0.000105187 0.000367229)
(1.04263 -0.000735695 1.93645e-05)
(1.04278 -0.000400786 0.000241097)
(1.04315 -0.000109176 -7.46121e-05)
(1.04234 -0.000774234 -8.09761e-05)
(1.04322 0.0001061 0.000384663)
(1.04342 -0.000408706 -0.00068991)
(1.04374 0.000496264 0.000340077)
(1.0425 -0.000420376 3.77167e-05)
(1.04353 0.000507124 -0.000464896)
(1.04369 0.000772139 0.00030012)
(1.04272 0.00018268 -0.000369015)
(1.04304 0.000862863 8.48759e-05)
(1.04252 9.66252e-05 -0.000184414)
(1.04245 0.00104726 -0.000225073)
(1.04242 -0.000197497 7.8801e-05)
(1.04232 0.000164662 -2.42638e-05)
(1.04182 0.000700836 -0.000223247)
(1.04287 -0.000362386 0.000167364)
(1.04115 2.48123e-05 0.000149856)
(1.04201 5.00549e-05 -0.000261344)
(1.04289 6.02781e-05 0.000230045)
(1.04109 -0.000317692 -4.86836e-05)
(1.04198 1.53215e-05 0.000266221)
(1.04143 -0.000102566 -0.000243415)
(1.04248 -0.000801195 0.000268519)
(1.04081 -0.000332838 0.000356994)
(1.04106 -0.00111837 -0.00035564)
(1.04351 -0.00137103 0.000439025)
(1.04114 -0.000375908 0.00032049)
(1.04236 -0.00157635 -1.13221e-05)
(1.04359 7.52274e-05 0.000290945)
(1.04174 -0.000247861 0.000531314)
(1.04228 -0.000566871 -0.000156783)
(1.04254 0.000524875 0.000551961)
(1.04239 -0.000809452 0.00101051)
(1.04198 6.10158e-05 -9.63771e-05)
(1.04186 -6.04927e-05 0.000781244)
(1.04355 -0.000197645 0.000801123)
(1.04192 -0.000535297 -0.00019378)
(1.0422 3.61342e-05 0.000643942)
(1.04245 -0.000900207 -8.30665e-05)
(1.04297 -0.000507536 0.000361213)
(1.04304 -0.000551891 -3.23489e-05)
(1.04245 -0.00065826 -0.000196385)
(1.0433 -0.00026013 0.000470863)
(1.04362 -0.000402958 -0.000685977)
(1.04366 0.00023736 0.000335212)
(1.04259 -0.000710945 -5.92869e-06)
(1.04399 0.000718506 -0.000362357)
(1.04356 0.000444241 0.000249425)
(1.04281 0.000585979 -0.000349388)
(1.04297 0.000810426 6.79469e-05)
(1.04261 0.000333303 -0.000311329)
(1.0423 0.00109326 -0.000276806)
(1.04209 -0.000261717 6.09991e-05)
(1.04269 0.000363533 3.06493e-05)
(1.04158 0.000648332 -0.000315792)
(1.04259 -0.000301393 0.000106031)
(1.04134 -7.12957e-07 0.000268437)
(1.04201 0.000114499 -0.000288424)
(1.04277 0.000116708 0.000108013)
(1.04103 -0.00010487 0.000110405)
(1.04214 -0.00020649 9.53828e-05)
(1.04114 0.000520254 -7.23928e-05)
(1.04219 -0.000947895 0.000302163)
(1.04079 -0.000717036 0.000271228)
(1.04062 -0.000891043 -0.000164676)
(1.0437 -0.00199749 0.000410564)
(1.04114 -0.000627361 0.000529766)
(1.04255 -0.00168944 -2.33777e-05)
(1.04409 0.000114688 0.000515036)
(1.04148 -0.000534841 0.000480176)
(1.04265 -0.000437208 2.45141e-05)
(1.04249 0.000672222 0.000809892)
(1.04216 -0.000775164 0.00110618)
(1.04225 -7.94592e-05 0.000318287)
(1.0418 -9.10978e-05 0.00115426)
(1.04336 -2.99483e-05 0.000885901)
(1.04194 -0.000832828 -5.61656e-05)
(1.0421 -7.54592e-05 0.000895595)
(1.04223 -0.00107705 -0.000114871)
(1.04303 -0.00078739 0.000507704)
(1.04303 -0.000832245 -4.73557e-05)
(1.04255 -0.000704152 -0.000270982)
(1.04339 -0.000596589 0.000534081)
(1.04377 -0.000430088 -0.000627162)
(1.04352 -0.000158157 0.000286879)
(1.04283 -0.000824848 -5.84298e-05)
(1.04436 0.000591419 -0.00019897)
(1.04358 0.000278961 0.000198508)
(1.04298 0.00100192 -0.000291394)
(1.04286 0.000759882 -7.48071e-05)
(1.04272 0.000773459 -0.00046559)
(1.04203 0.000898676 -0.000310015)
(1.04188 -0.00015018 -1.05714e-05)
(1.04297 0.000529488 0.000115717)
(1.04134 0.000468255 -0.000460917)
(1.04239 -4.75738e-05 7.04296e-05)
(1.04144 -0.000186518 0.000384645)
(1.04208 0.000119213 -0.000266282)
(1.04272 0.000266168 9.29185e-06)
(1.04085 -1.05692e-05 0.000212223)
(1.04242 -0.000239904 -5.85715e-05)
(1.04089 0.00103686 0.000169834)
(1.0416 -0.00103769 0.000305154)
(1.04084 -0.00104406 0.000177449)
(1.04014 -0.000901687 7.13945e-05)
(1.0437 -0.00254357 0.000414449)
(1.04134 -0.00114516 0.000743458)
(1.04287 -0.00160735 5.32159e-05)
(1.04442 3.80654e-05 0.00075915)
(1.04133 -0.000895369 0.000370972)
(1.04313 2.46008e-06 0.000289342)
(1.04228 0.000603535 0.00110798)
(1.04193 -0.000540163 0.00133113)
(1.04242 -0.000280809 0.00100759)
(1.04186 1.20612e-06 0.00160704)
(1.04306 -6.16582e-05 0.0010416)
(1.04188 -0.000999834 0.000246242)
(1.04202 -0.000255877 0.00112828)
(1.04198 -0.00152154 1.66278e-05)
(1.04311 -0.00111579 0.000634468)
(1.04308 -0.00111374 -0.000143263)
(1.0426 -0.000797009 -0.000246138)
(1.04347 -0.000961628 0.000582461)
(1.04389 -0.000511105 -0.000549605)
(1.04339 -0.000569808 0.00024053)
(1.04306 -0.0010077 -0.00010664)
(1.0447 0.0003005 3.54359e-05)
(1.0438 0.000353498 0.000254722)
(1.04312 0.00121247 -0.000239942)
(1.04282 0.000974189 -0.000326504)
(1.04271 0.00125689 -0.000630935)
(1.04169 0.000548052 -0.000377701)
(1.04183 0.000150938 -3.82863e-06)
(1.0431 0.000427671 0.000169453)
(1.04119 0.000429521 -0.000636636)
(1.04216 0.000161033 7.87786e-05)
(1.04144 -0.00056166 0.000490631)
(1.04229 0.000249418 -0.000149141)
(1.04267 0.000318761 -7.54315e-05)
(1.04068 5.0267e-05 0.00026154)
(1.04281 1.71991e-05 -0.000140679)
(1.04061 0.00130815 0.000462968)
(1.04083 -0.000952171 0.000266431)
(1.04087 -0.00131371 7.28352e-05)
(1.03962 -0.0011726 0.000258568)
(1.04353 -0.00299437 0.000509678)
(1.04173 -0.00188764 0.000989404)
(1.0433 -0.00128893 0.000266619)
(1.04455 -0.000254868 0.000970023)
(1.04143 -0.00108306 0.000249735)
(1.04362 0.000576123 0.000669205)
(1.04198 0.000400191 0.0014573)
(1.04172 -0.000267803 0.00187656)
(1.04254 -0.000259414 0.00194555)
(1.04189 0.000107652 0.00218197)
(1.04273 -0.000304869 0.00138072)
(1.04179 -0.000909702 0.000710377)
(1.04176 -0.000614549 0.00144282)
(1.0417 -0.00204842 0.000307802)
(1.04324 -0.00149838 0.000685367)
(1.04319 -0.00125837 -0.000266151)
(1.04262 -0.000908916 -0.000133497)
(1.04353 -0.00137014 0.000596645)
(1.04398 -0.00055998 -0.000467904)
(1.0432 -0.00108981 0.000157007)
(1.04331 -0.00134628 -0.000151844)
(1.04513 0.000106498 0.000405454)
(1.04408 0.000412483 0.000395341)
(1.04331 0.00135422 -0.000236386)
(1.04287 0.00168477 -0.000669808)
(1.04247 0.00156855 -0.000891157)
(1.04135 0.000304625 -0.00045836)
(1.04178 0.000421418 9.84965e-05)
(1.04312 0.00018727 0.000108205)
(1.04116 0.00064572 -0.000861899)
(1.0418 0.000144021 8.39718e-05)
(1.04147 -0.00101489 0.000684393)
(1.04257 0.000380639 0.000103497)
(1.04258 0.000163184 -0.000211779)
(1.04064 0.000276439 0.00029453)
(1.04315 0.00044469 -0.00012912)
(1.04029 0.00132379 0.000767259)
(1.04001 -0.000559726 0.000280614)
(1.0407 -0.00161788 -2.57237e-05)
(1.0391 -0.00160296 0.000382375)
(1.04324 -0.00349618 0.000746875)
(1.04231 -0.00266277 0.00133686)
(1.04379 -0.000840379 0.000644652)
(1.04452 -0.000743953 0.00117278)
(1.04178 -0.00102824 0.000198514)
(1.04399 0.0011478 0.0011063)
(1.04159 0.000285224 0.00185537)
(1.04157 7.13199e-05 0.00280685)
(1.04255 -5.56611e-05 0.00314184)
(1.04175 2.72825e-05 0.00304646)
(1.04242 -0.000635966 0.00193419)
(1.04164 -0.000817709 0.00130878)
(1.04135 -0.00116272 0.001966)
(1.04143 -0.0027478 0.000755029)
(1.04346 -0.00194686 0.000633884)
(1.04335 -0.00122789 -0.000457042)
(1.04251 -0.00115121 4.55426e-05)
(1.04361 -0.00170611 0.00062635)
(1.04399 -0.00064171 -0.000364619)
(1.0429 -0.00184501 -4.9874e-05)
(1.04362 -0.0017233 -0.000136954)
(1.04555 -3.47978e-05 0.000988266)
(1.04437 0.000276906 0.000676155)
(1.04371 0.00174622 -0.000169956)
(1.04289 0.00269878 -0.0011399)
(1.04195 0.00182556 -0.00133674)
(1.04101 0.00035229 -0.000494702)
(1.0417 0.000563561 0.000355331)
(1.04315 -4.12085e-05 -5.95974e-05)
(1.04112 0.000985729 -0.00121189)
(1.04122 -7.87905e-05 7.93047e-05)
(1.04148 -0.00144028 0.00104021)
(1.04283 0.000311334 0.000517367)
(1.04254 -5.10273e-05 -0.000331494)
(1.04077 0.000809206 0.000309188)
(1.04332 0.000837422 3.82602e-06)
(1.03999 0.00129676 0.00115202)
(1.03918 -3.74967e-05 0.000399209)
(1.04026 -0.00197279 -0.000197112)
(1.03854 -0.00209933 0.000437126)
(1.04287 -0.00412199 0.00121953)
(1.04305 -0.0032875 0.0018914)
(1.04425 -0.000438008 0.00118849)
(1.04438 -0.00124323 0.00137548)
(1.04236 -0.000748151 0.000223588)
(1.04427 0.00167768 0.00156672)
(1.04115 0.00018865 0.00241974)
(1.04144 0.000674441 0.00418529)
(1.04234 0.000262828 0.00469374)
(1.0414 -0.000184287 0.0042282)
(1.04211 -0.00108731 0.0026949)
(1.04137 -0.00079545 0.00208883)
(1.0407 -0.00171812 0.00270347)
(1.04115 -0.00347447 0.00121676)
(1.04384 -0.00221274 0.000393309)
(1.04352 -0.00107434 -0.000735345)
(1.04233 -0.00136398 0.000230321)
(1.04369 -0.00188725 0.000692567)
(1.04382 -0.00089817 -0.000314551)
(1.04252 -0.00276023 -0.000424878)
(1.04398 -0.00204508 -3.61881e-05)
(1.04584 -0.000173722 0.00173567)
(1.04468 0.000113055 0.00119691)
(1.04429 0.00261959 3.75136e-05)
(1.04284 0.00402273 -0.00184319)
(1.04129 0.00230928 -0.00197521)
(1.0406 0.000649721 -0.000413768)
(1.04142 0.000621724 0.000762208)
(1.04316 -4.52361e-05 -0.000388065)
(1.04104 0.00142015 -0.00179639)
(1.04047 -0.000401591 4.31059e-05)
(1.04138 -0.00192572 0.00164903)
(1.04296 -9.18419e-05 0.00115181)
(1.04258 -0.000126144 -0.000376962)
(1.04091 0.00149817 0.000310883)
(1.04324 0.00117994 0.000267056)
(1.03966 0.00136704 0.00169885)
(1.03825 0.00035557 0.000705637)
(1.03955 -0.00224943 -0.000392406)
(1.03788 -0.00261597 0.000417241)
(1.04243 -0.00469467 0.00190924)
(1.04385 -0.00366938 0.00270254)
(1.04457 -0.000234725 0.00194081)
(1.04415 -0.00167111 0.00165969)
(1.04302 -0.000356504 0.000249499)
(1.0443 0.00209937 0.00200236)
(1.04064 0.000272601 0.00325336)
(1.0411 0.00147573 0.00606998)
(1.0417 0.000759665 0.0066866)
(1.04067 -0.000500742 0.00566175)
(1.04165 -0.00168101 0.00346608)
(1.04099 -0.000869629 0.00289562)
(1.03988 -0.00219738 0.00362392)
(1.04082 -0.00400715 0.00144736)
(1.04422 -0.00229238 -0.000380786)
(1.04365 -0.000900274 -0.00128477)
(1.0421 -0.00140915 0.000424937)
(1.04371 -0.00191096 0.000888527)
(1.04344 -0.00124426 -0.000443126)
(1.04204 -0.00374756 -0.00112484)
(1.04424 -0.00233621 -5.14225e-07)
(1.04578 -0.000240274 0.00259209)
(1.04489 5.09595e-05 0.00198715)
(1.04497 0.0038707 0.000375771)
(1.04263 0.00561808 -0.00278463)
(1.04046 0.00324303 -0.00280104)
(1.04001 0.00123975 -0.000172259)
(1.04099 0.000808242 0.00137019)
(1.04314 0.000247711 -0.000847846)
(1.04076 0.00194247 -0.00270834)
(1.03939 -0.000588768 -0.000137228)
(1.04087 -0.00250674 0.00241844)
(1.04276 -0.000673893 0.00200811)
(1.0425 0.000105699 -0.000405783)
(1.04088 0.00227977 0.000239928)
(1.04287 0.00159435 0.0006481)
(1.0391 0.00143277 0.00242076)
(1.03708 0.000440982 0.00111195)
(1.03854 -0.0025519 -0.000744149)
(1.03709 -0.00318911 0.000382257)
(1.04185 -0.00485447 0.00293428)
(1.04438 -0.00362032 0.00377473)
(1.04455 0.000105733 0.00278771)
(1.04378 -0.00166791 0.001944)
(1.04361 9.53537e-05 0.000191814)
(1.04413 0.00246585 0.00251426)
(1.04002 0.00056344 0.0044609)
(1.04026 0.00297805 0.00867636)
(1.04033 0.0015947 0.00914403)
(1.03926 -0.000957231 0.00704048)
(1.04084 -0.00229982 0.00406652)
(1.04036 -0.000678715 0.00360946)
(1.03883 -0.00189491 0.00438611)
(1.04034 -0.00374263 0.000726952)
(1.04444 -0.00206916 -0.00221159)
(1.04369 -0.000562372 -0.00228511)
(1.04189 -0.0011661 0.000642267)
(1.04375 -0.00185155 0.00117149)
(1.04295 -0.00166865 -0.000993883)
(1.04147 -0.00486362 -0.00267277)
(1.04433 -0.00240927 -0.000636478)
(1.04528 9.88246e-05 0.00311166)
(1.04475 0.000460397 0.00274397)
(1.0454 0.0055896 0.000551839)
(1.0422 0.00738979 -0.00411954)
(1.03955 0.00445101 -0.00389228)
(1.03919 0.00212457 7.65867e-05)
(1.0403 0.00148495 0.00197953)
(1.04302 0.000958026 -0.00153149)
(1.04047 0.00265384 -0.00397686)
(1.03804 -0.000337675 -0.000627599)
(1.03969 -0.0027715 0.00307427)
(1.04178 -0.000953245 0.00271202)
(1.04171 0.000355702 -0.000869137)
(1.04026 0.00282783 -0.000259364)
(1.04196 0.00220987 0.000698505)
(1.03789 0.00149314 0.00307197)
(1.03512 0.000211506 0.0015542)
(1.03689 -0.00325365 -0.00145708)
(1.03621 -0.00372587 -0.000109577)
(1.04124 -0.00410843 0.00383511)
(1.04452 -0.00280254 0.00497198)
(1.04405 0.00114008 0.00379571)
(1.04299 -0.000894037 0.00219124)
(1.0439 0.000802704 -0.000172058)
(1.04361 0.0033162 0.00313356)
(1.03903 0.00165816 0.00620693)
(1.03853 0.00536157 0.0120495)
(1.0375 0.00275288 0.0119018)
(1.03675 -0.00178062 0.00784759)
(1.0396 -0.00310835 0.00394283)
(1.03955 -3.85081e-05 0.00405097)
(1.03755 -0.000255131 0.00463701)
(1.03946 -0.00225503 -0.00206285)
(1.04396 -0.00159445 -0.00606098)
(1.0432 -0.000183625 -0.00377502)
(1.04159 -0.000539719 0.000966309)
(1.04383 -0.00128861 0.00145952)
(1.04258 -0.00192511 -0.00246455)
(1.04139 -0.00613925 -0.00580195)
(1.04516 -0.00242335 -0.00272825)
(1.04531 0.000956049 0.00240555)
(1.04478 0.00150919 0.00254546)
(1.04533 0.00776094 0.000239288)
(1.04096 0.00936846 -0.00570716)
(1.03827 0.00582545 -0.00527033)
(1.03848 0.00324381 -0.000214316)
(1.03987 0.0027328 0.00169869)
(1.04315 0.00205913 -0.00312715)
(1.04061 0.0036851 -0.0057552)
(1.03713 0.000543567 -0.00137404)
(1.03853 -0.00244826 0.00323558)
(1.03984 -0.000734849 0.00236417)
(1.03937 0.000608366 -0.002776)
(1.03862 0.00306069 -0.0017514)
(1.04045 0.00280687 -3.71799e-05)
(1.03554 0.00148922 0.00291879)
(1.03128 -0.000431006 0.00121583)
(1.03357 -0.00496835 -0.00317583)
(1.03495 -0.00460322 -0.00138804)
(1.04088 -0.00257498 0.00370438)
(1.04454 -0.000985415 0.00505321)
(1.04305 0.00324381 0.00432442)
(1.04155 0.000790526 0.00228011)
(1.04392 0.00194077 -0.000554768)
(1.04324 0.00514404 0.00417262)
(1.03797 0.00395458 0.00862422)
(1.036 0.00829236 0.0154294)
(1.03279 0.00276129 0.0147732)
(1.03325 -0.00483482 0.00866261)
(1.03851 -0.00503557 0.00359227)
(1.03912 0.00101627 0.00430819)
(1.03643 0.00273463 0.00357783)
(1.03814 -7.93821e-06 -0.00727599)
(1.04202 -0.00100211 -0.0114338)
(1.04152 0.000281168 -0.00550848)
(1.04089 -0.000260221 0.000911566)
(1.04309 -0.000954401 0.0008413)
(1.04137 -0.0018021 -0.00517207)
(1.04226 -0.00677798 -0.0100474)
(1.04866 -0.0018917 -0.00573238)
(1.04801 0.00195812 0.000242352)
(1.04623 0.00280775 0.000670869)
(1.04537 0.0107782 -0.00105268)
(1.03923 0.0117999 -0.0075296)
(1.03665 0.0068814 -0.00689155)
(1.03864 0.00360636 -0.00173142)
(1.04074 0.00345276 -0.000812322)
(1.04431 0.00313424 -0.00698863)
(1.04185 0.0053535 -0.00861227)
(1.03801 0.00235904 -0.00247309)
(1.0394 -0.00153552 0.00249523)
(1.03854 -0.000774973 0.0003261)
(1.03673 -0.000183354 -0.00645077)
(1.03678 0.00276888 -0.00437672)
(1.03887 0.00312234 -0.00170549)
(1.03226 0.00142512 0.00168423)
(1.02499 -0.00178167 -0.000159331)
(1.02748 -0.00774949 -0.00610761)
(1.03258 -0.00579997 -0.00396348)
(1.0411 -0.00152093 0.00158897)
(1.04516 0.00050095 0.00289521)
(1.04155 0.00553539 0.00307719)
(1.03877 0.00245136 0.00114425)
(1.04359 0.00320035 -0.00119504)
(1.0441 0.00814374 0.00511193)
(1.03805 0.00771673 0.0108942)
(1.03287 0.0112554 0.0172068)
(1.02619 0.000234307 0.0167995)
(1.02816 -0.0110971 0.00962189)
(1.03648 -0.00795457 0.00311702)
(1.0391 0.00298366 0.00448998)
(1.03639 0.00700313 0.00207069)
(1.03685 0.00224255 -0.0127823)
(1.03829 -0.000808445 -0.0168055)
(1.03821 0.000399697 -0.00745254)
(1.03945 -0.000918098 -0.000170671)
(1.0398 -0.0013765 -0.00170633)
(1.03675 -0.00216239 -0.00990914)
(1.04056 -0.00771892 -0.0151372)
(1.05168 -0.00112786 -0.00791812)
(1.05118 0.00291667 -0.000885517)
(1.04831 0.00454746 -0.000835388)
(1.04734 0.0155224 -0.00237149)
(1.0387 0.0156135 -0.00923226)
(1.0355 0.00771531 -0.00835719)
(1.04037 0.00217603 -0.00319604)
(1.04345 0.00195795 -0.00425179)
(1.04618 0.00273586 -0.0127613)
(1.04325 0.00709413 -0.0125349)
(1.04105 0.00514942 -0.00334636)
(1.04302 -0.000427844 0.0018101)
(1.04014 -0.0012562 -0.00235672)
(1.03902 -0.00170617 -0.0109951)
(1.03992 0.00222967 -0.00731836)
(1.04068 0.00310446 -0.00336907)
(1.03015 0.000723904 -0.000389606)
(1.0187 -0.00468679 -0.00283068)
(1.02135 -0.0115116 -0.009453)
(1.03024 -0.00677932 -0.00670623)
(1.04219 -0.000737922 -0.00110349)
(1.04661 0.0012837 -0.000216546)
(1.03954 0.00691152 0.000956392)
(1.03488 0.00323078 -0.00028504)
(1.04321 0.0046212 -0.00172828)
(1.04666 0.0126853 0.005364)
(1.03965 0.0132291 0.0118292)
(1.03045 0.0138569 0.0147138)
(1.01902 -0.00388997 0.0158477)
(1.02049 -0.017583 0.0105905)
(1.03053 -0.00895314 0.00307067)
(1.0363 0.00753814 0.00449973)
(1.03557 0.0123872 0.00129653)
(1.03443 0.00403839 -0.0152354)
(1.03284 -0.00104943 -0.0196825)
(1.03388 0.000335003 -0.00888149)
(1.03791 -0.00162614 -0.00186396)
(1.03507 -0.00159038 -0.00611211)
(1.02945 -0.00313519 -0.0161488)
(1.03268 -0.00939342 -0.0202602)
(1.04642 -0.00036883 -0.00890072)
(1.04768 0.00396231 -0.00043432)
(1.04592 0.00627568 -0.00140126)
(1.04862 0.0210462 -0.00289151)
(1.03648 0.0211383 -0.0098774)
(1.03138 0.00873309 -0.00801734)
(1.03873 -0.0010016 -0.00173521)
(1.04364 -0.00177018 -0.00515935)
(1.04505 0.000352644 -0.0175971)
(1.04103 0.00803117 -0.0165784)
(1.04291 0.00817048 -0.00363282)
(1.04481 0.000596507 0.00253081)
(1.04195 -0.00276827 -0.00301354)
(1.04437 -0.00417694 -0.0142715)
(1.04771 0.00252781 -0.0104764)
(1.04722 0.00441799 -0.00417965)
(1.03054 -0.000855865 -0.000960335)
(1.01484 -0.00976436 -0.00541417)
(1.01885 -0.015219 -0.0139346)
(1.03126 -0.0057003 -0.0106535)
(1.04532 0.00128403 -0.00293806)
(1.04836 0.00171891 -0.00176972)
(1.03722 0.00748013 -0.000914592)
(1.03128 0.00436449 -0.00134535)
(1.04249 0.00711586 -0.00145984)
(1.04968 0.0179796 0.00608673)
(1.04203 0.0193345 0.0111826)
(1.02905 0.0202898 0.00877521)
(1.01616 -0.00315992 0.0143008)
(1.01932 -0.0210532 0.0132956)
(1.03079 -0.00946615 0.00410614)
(1.03554 0.0118873 0.00449868)
(1.0344 0.0169263 0.00129922)
(1.03074 0.00450315 -0.0148876)
(1.02706 -0.00165276 -0.0190928)
(1.03017 0.00116203 -0.00753507)
(1.0367 -0.000924502 -0.00242345)
(1.03242 -0.000823273 -0.0107623)
(1.02538 -0.00467976 -0.0213702)
(1.02515 -0.0119787 -0.0230586)
(1.03773 -0.000706223 -0.00718248)
(1.04226 0.00354593 0.0025459)
(1.04221 0.00705231 -0.000383126)
(1.04786 0.0273708 -0.00239008)
(1.03231 0.0287392 -0.00999711)
(1.02283 0.0094783 -0.00560008)
(1.02631 -0.0067936 0.003223)
(1.03252 -0.0080999 -0.00348835)
(1.03645 -0.00339336 -0.0210697)
(1.03475 0.00901636 -0.0203849)
(1.04184 0.0112232 -0.00249341)
(1.04045 0.000434343 0.00585306)
(1.03602 -0.00643117 -0.000562588)
(1.03992 -0.00747241 -0.0158975)
(1.04813 0.00375693 -0.0130393)
(1.0487 0.00671876 -0.00268915)
(1.02294 -0.00322324 0.00150002)
(1.00396 -0.0154061 -0.00532062)
(1.01419 -0.0174038 -0.0165109)
(1.03204 -0.00231598 -0.0142279)
(1.04582 0.00489281 -0.00516901)
(1.04514 0.00288269 -0.00324192)
(1.03165 0.00974702 -0.00167496)
(1.02757 0.00812936 -1.26571e-05)
(1.04186 0.0101604 0.000619265)
(1.05159 0.0211265 0.00697401)
(1.04269 0.0251595 0.00844976)
(1.03034 0.0298493 0.0046794)
(1.01502 0.000666015 0.0141645)
(1.01684 -0.0240478 0.0134313)
(1.03136 -0.0119942 0.00170301)
(1.03503 0.014015 0.00257758)
(1.03298 0.0183656 0.00167714)
(1.02798 0.00223188 -0.0120662)
(1.02422 -0.00224109 -0.0156299)
(1.03171 0.00320799 -0.00399067)
(1.03847 -0.000376194 -0.00191381)
(1.03083 -0.00152739 -0.0144845)
(1.02165 -0.00693875 -0.0248231)
(1.01752 -0.0134981 -0.0223316)
(1.02883 -0.00138736 0.00017521)
(1.03483 0.000369768 0.00977043)
(1.03497 0.00716092 0.00224935)
(1.04686 0.0360079 -0.000750973)
(1.03184 0.0375547 -0.00777043)
(1.01037 0.00722783 -0.00150307)
(0.998178 -0.0162639 0.00530904)
(1.00386 -0.0165042 -0.00656801)
(1.01611 -0.00774234 -0.0271524)
(1.02143 0.0104831 -0.0242201)
(1.03358 0.0135247 0.000733821)
(1.03042 -0.00185138 0.0120515)
(1.02816 -0.00977929 0.00328515)
(1.03055 -0.00791597 -0.0183267)
(1.03914 0.00582881 -0.015825)
(1.03783 0.00720632 0.00113808)
(1.0034 -0.00704363 0.00736946)
(0.985707 -0.0194232 -0.00282422)
(1.00358 -0.0166615 -0.0171717)
(1.02523 0.00236471 -0.0159552)
(1.03874 0.00786989 -0.0069875)
(1.03669 0.00342513 -0.00447448)
(1.02576 0.0120886 -9.67727e-05)
(1.02622 0.0115002 0.00337575)
(1.04162 0.0103894 0.00208106)
(1.05015 0.0207631 0.00684672)
(1.04144 0.0309372 0.00560712)
(1.04302 0.0391852 0.00437135)
(1.0168 0.00283492 0.0154267)
(0.999348 -0.0319435 0.00470828)
(1.00977 -0.0184668 -0.0129128)
(1.01993 0.0140958 -0.00751929)
(1.02379 0.0166881 -0.000955929)
(1.01882 -0.00261128 -0.0114194)
(1.02142 -0.00180277 -0.0137054)
(1.04085 0.00623715 -0.000763386)
(1.03886 -0.00225719 -0.00234466)
(1.01891 -0.00618814 -0.0174995)
(1.0091 -0.0103058 -0.0242504)
(1.00565 -0.013493 -0.0132731)
(1.01616 -0.00069042 0.0152554)
(1.01651 -0.001601 0.0165415)
(1.01943 0.010137 0.00355696)
(1.05099 0.0457287 0.0039185)
(1.03911 0.0438399 -0.00340574)
(0.999275 0.00339965 -0.000662947)
(0.967679 -0.0243707 0.000431815)
(0.971119 -0.0235385 -0.01744)
(0.9823 -0.0109539 -0.0416138)
(0.992594 0.0133139 -0.0309007)
(1.0197 0.0142945 0.00666696)
(1.02087 -0.00661492 0.0191973)
(1.02325 -0.0121071 0.0040944)
(1.02379 -0.0059264 -0.0232961)
(1.02964 0.00802074 -0.0172517)
(1.01902 0.00480811 0.0069473)
(0.978049 -0.012694 0.0139475)
(0.968144 -0.0220765 -0.00111927)
(0.992889 -0.0131277 -0.0176513)
(1.01864 0.0084295 -0.0132085)
(1.02981 0.00928003 -0.00538819)
(1.02102 0.00134182 -0.0063358)
(1.01611 0.0104893 -0.00182509)
(1.02752 0.00881219 0.00181194)
(1.04111 0.00499748 -0.000536901)
(1.04747 0.0185959 0.00393366)
(1.04774 0.0370578 0.00145218)
(1.06862 0.046932 0.00960178)
(1.03855 0.00336239 0.0183475)
(0.990099 -0.0419101 -0.00938883)
(0.982173 -0.0266693 -0.0318212)
(1.0016 0.0123768 -0.018047)
(1.01078 0.0128579 -0.00416674)
(0.998198 -0.00843048 -0.0154458)
(1.00884 -0.00216406 -0.0164607)
(1.03525 0.00848788 -0.00481435)
(1.00916 -0.00616833 -0.0104434)
(0.981103 -0.0136643 -0.0196611)
(0.982461 -0.0149699 -0.0151675)
(0.985095 -0.0120019 0.00669002)
(0.996578 0.00314316 0.0334911)
(0.990937 -0.000842183 0.018399)
(1.00159 0.0126704 0.00504988)
(1.05596 0.0521196 0.0104814)
(1.04722 0.0468924 -0.00149778)
(1.00425 -0.000852737 0.000145186)
(0.967221 -0.0305279 -0.000483959)
(0.961179 -0.0274161 -0.0289958)
(0.945909 -0.0105252 -0.0602618)
(0.962854 0.0152338 -0.0359048)
(1.01488 0.0107012 0.0147652)
(1.01158 -0.0122873 0.0249159)
(1.0148 -0.0138993 0.000765714)
(1.02005 -0.00396932 -0.0301126)
(1.02255 0.00994161 -0.0162298)
(0.993244 0.000951702 0.0136379)
(0.950828 -0.0186221 0.0199258)
(0.953837 -0.0241715 0.00058656)
(0.985777 -0.00985777 -0.01495)
(1.02039 0.0140312 -0.00640502)
(1.02123 0.0113847 -0.00333012)
(0.99332 -0.00117064 -0.00832648)
(0.998286 0.00255956 -0.00244436)
(1.02414 -0.00305118 0.00143436)
(1.0286 -0.00719374 -0.00458569)
(1.0367 0.0135916 -0.00618571)
(1.05736 0.0414034 -0.00726832)
(1.08002 0.0518093 0.015195)
(1.05461 0.00477807 0.00828238)
(0.98894 -0.0447076 -0.0252773)
(0.974035 -0.0277674 -0.0347531)
(1.00228 0.0122481 -0.00989764)
(0.999967 0.0115369 0.00185958)
(0.971904 -0.00824517 -0.0165175)
(0.98354 0.00190228 -0.0171719)
(0.993909 0.0102608 -0.0109696)
(0.951079 -0.0119693 -0.0170349)
(0.935437 -0.0186897 -0.0102672)
(0.949618 -0.0142545 0.00700653)
(0.957374 -0.00548129 0.0349552)
(0.975773 0.00944586 0.0481126)
(0.96972 0.00195414 0.0172379)
(0.978911 0.0163425 0.0121125)
(1.04749 0.0557359 0.0170794)
(1.05575 0.0430437 -0.00287154)
(1.02477 -0.00714367 0.00449299)
(0.983379 -0.0318338 0.00651442)
(0.964902 -0.0242461 -0.0308527)
(0.927376 -0.00675017 -0.0660404)
(0.960593 0.015405 -0.0269454)
(1.02399 0.00765169 0.0281981)
(1.00658 -0.0147079 0.0279439)
(1.00815 -0.01389 -0.00560264)
(1.01603 0.000632888 -0.0348838)
(1.01382 0.0134174 -0.0109118)
(0.973205 -0.00418035 0.0225905)
(0.938317 -0.0238519 0.0283815)
(0.939015 -0.0242154 0.00288991)
(0.966654 -0.00559701 -0.0156384)
(1.01179 0.0181908 -0.00560425)
(1.01322 0.0138203 -0.00235226)
(0.983726 -0.000867467 -0.00388625)
(0.999424 -0.00405064 0.000900449)
(1.0128 -0.0140681 -0.00553842)
(0.985974 -0.0176632 -0.0175798)
(0.999235 0.00805413 -0.0197148)
(1.04821 0.0422573 -0.00969753)
(1.07119 0.0567581 0.0196173)
(1.05983 0.00823911 -0.00142266)
(0.983965 -0.0416994 -0.0311671)
(0.964902 -0.0246092 -0.0249992)
(0.992677 0.0138373 0.00629254)
(0.979676 0.0156465 0.00821921)
(0.95046 -0.00295498 -0.0153303)
(0.955143 0.00486165 -0.0121147)
(0.948291 0.00617682 -0.00928189)
(0.908713 -0.0153715 -0.0106258)
(0.89771 -0.0152614 0.00720754)
(0.915875 -0.00795301 0.0282411)
(0.927304 0.00208478 0.0538133)
(0.954492 0.0159536 0.0492461)
(0.945096 0.00761203 0.0144702)
(0.94762 0.0221514 0.0209592)
(1.0394 0.052877 0.0194813)
(1.06744 0.0319584 -0.00159865)
(1.03934 -0.0115016 0.0115223)
(0.98849 -0.0265651 0.0103427)
(0.960849 -0.0177436 -0.0326256)
(0.9224 -0.00312659 -0.0634498)
(0.975918 0.0161705 -0.00986587)
(1.03186 0.00554434 0.0389471)
(1.00552 -0.0155206 0.0285334)
(1.00185 -0.0104732 -0.0076236)
(1.00833 0.00688745 -0.0332818)
(1.01361 0.0137432 -0.00202844)
(0.972728 -0.00895114 0.0359023)
(0.925165 -0.0237154 0.0361742)
(0.908624 -0.0199383 -0.00610717)
(0.938918 -0.000681307 -0.0271078)
(0.999542 0.0191714 -0.00665855)
(1.00948 0.0137184 0.000509671)
(0.986503 0.00135528 -0.00419294)
(1.01348 -0.00293908 -0.00537137)
(1.0025 -0.0129383 -0.0173132)
(0.935748 -0.0164116 -0.0286434)
(0.952912 0.00705049 -0.026024)
(1.02501 0.0435338 -0.00356463)
(1.05506 0.0605646 0.0282375)
(1.07822 0.00999167 -0.00100069)
(0.981654 -0.0367339 -0.0235995)
(0.935633 -0.0214321 -0.00496173)
(0.955033 0.0160271 0.0242353)
(0.957917 0.0191936 0.0106276)
(0.944208 -0.00160264 -0.0160767)
(0.935351 0.0028778 -0.00409857)
(0.915777 0.0025313 0.000224204)
(0.878356 -0.0116931 -0.00537935)
(0.868557 -0.00732473 0.00919372)
(0.888536 -0.0032538 0.0328998)
(0.900059 0.00802079 0.0533008)
(0.934319 0.0218626 0.0365703)
(0.916615 0.0121627 0.00892831)
(0.92155 0.0221878 0.025642)
(1.04377 0.0403849 0.0228822)
(1.07898 0.0181867 0.00745074)
(1.04763 -0.013626 0.0144828)
(0.989989 -0.0201254 0.00435718)
(0.962185 -0.0126891 -0.0353987)
(0.934745 0.00145767 -0.0549206)
(0.995007 0.0178144 0.00609148)
(1.02785 0.00217237 0.0435765)
(0.998998 -0.0143455 0.0281438)
(0.996894 -0.00495352 -0.00700674)
(1.01182 0.00847931 -0.0284458)
(1.0262 0.00917626 0.00900108)
(0.961081 -0.00979562 0.0460599)
(0.893895 -0.019986 0.0350709)
(0.881731 -0.0158046 -0.0163869)
(0.9171 0.00260218 -0.0293336)
(0.980371 0.0156589 -0.00589915)
(1.00027 0.0103476 -0.0066057)
(0.995087 0.00289659 -0.0113032)
(1.02982 0.000771823 -0.00311402)
(0.989422 -0.00322309 -0.0145361)
(0.904165 -0.00895971 -0.0316714)
(0.931479 0.00647515 -0.0219688)
(0.991982 0.0448733 0.0100884)
(1.05575 0.0583354 0.0391832)
(1.09152 0.0116274 0.00251204)