/*--------------------------------*- C++ -*----------------------------------*\
  =========                 |
  \\      /  F ield         | OpenFOAM: The Open Source CFD Toolbox
   \\    /   O peration     | Website:  https://openfoam.org
    \\  /    A nd           | Version:  10
     \\/     M anipulation  |
\*---------------------------------------------------------------------------*/
FoamFile
{
    format      ascii;
    class       volVectorField;
    location    "20";
    object      UMean;
}
// * * * * * * * * * * * * * * * * * * * * * * * * * * * * * * * * * * * * * //

dimensions      [0 1 -1 0 0 0 0];

internalField   nonuniform List<vector> 
25600
(
(1.02636 6.43151e-06 1.31803e-07)
(1.02637 2.63119e-06 4.32526e-06)
(1.02637 -1.80284e-05 3.27746e-06)
(1.02637 -1.02708e-06 -1.76077e-06)
(1.02637 -2.9155e-05 -4.36005e-06)
(1.02638 -2.66273e-05 -3.03085e-06)
(1.02637 -3.37437e-05 -6.43247e-06)
(1.02638 -3.54791e-05 -7.38871e-06)
(1.02638 -3.9554e-05 -5.91809e-06)
(1.02637 -4.93698e-05 -8.25147e-06)
(1.02638 -3.67901e-05 -8.19795e-06)
(1.02638 -5.47237e-05 -8.42088e-06)
(1.02638 -3.7322e-05 -4.87445e-06)
(1.02637 -5.51014e-05 -8.8163e-06)
(1.02638 -4.00468e-05 -5.08859e-06)
(1.02637 -4.56466e-05 -5.83892e-06)
(1.02636 -4.57787e-05 -5.12382e-06)
(1.02636 -3.5404e-05 -2.8476e-06)
(1.02635 -4.47161e-05 -3.79348e-06)
(1.02636 -2.87861e-05 -1.25722e-06)
(1.02635 -4.20513e-05 -3.84841e-06)
(1.02635 -2.06291e-05 1.8559e-06)
(1.02636 -3.43687e-05 -1.57863e-07)
(1.02635 -1.80585e-05 2.65097e-06)
(1.02634 -2.47478e-05 -1.42331e-06)
(1.02636 -1.91372e-05 6.09079e-06)
(1.02634 -1.16273e-05 1.62319e-06)
(1.02634 -1.88973e-05 3.91967e-06)
(1.02635 -5.44458e-06 6.65619e-06)
(1.02635 -1.65412e-05 3.04402e-06)
(1.02635 8.54241e-06 1.38569e-05)
(1.02635 -8.67033e-06 2.26112e-06)
(1.02636 5.3142e-06 1.38271e-05)
(1.02635 1.56136e-05 8.52162e-06)
(1.02635 7.90387e-06 1.02987e-05)
(1.02636 1.85033e-05 1.0655e-05)
(1.02636 1.87455e-05 1.01198e-05)
(1.02636 1.59174e-05 1.16698e-05)
(1.02636 1.48695e-05 4.59332e-06)
(1.02637 1.21552e-05 1.35682e-05)
(1.02636 -5.08188e-06 6.89773e-06)
(1.02636 -1.04887e-05 8.9673e-06)
(1.02637 -2.73788e-05 1.09046e-05)
(1.02636 -1.74455e-05 3.03364e-06)
(1.02636 -3.81038e-05 1.90518e-07)
(1.02638 -3.49173e-05 9.0922e-07)
(1.02637 -5.02546e-05 -2.13758e-06)
(1.02638 -4.09105e-05 -2.56435e-06)
(1.02637 -5.38145e-05 -3.9292e-06)
(1.02638 -5.35022e-05 -1.75483e-06)
(1.02638 -4.79162e-05 -5.7244e-06)
(1.02638 -5.75187e-05 -4.24637e-06)
(1.02637 -4.45203e-05 2.79104e-06)
(1.02637 -5.96565e-05 -7.35995e-06)
(1.02638 -3.97277e-05 8.50396e-07)
(1.02637 -5.47407e-05 -6.9392e-07)
(1.02636 -4.55225e-05 -1.1471e-06)
(1.02636 -4.51294e-05 3.6139e-06)
(1.02636 -4.52894e-05 -5.5569e-07)
(1.02636 -3.70451e-05 6.20076e-06)
(1.02635 -4.77985e-05 3.13364e-06)
(1.02635 -2.76418e-05 8.9079e-06)
(1.02636 -4.07381e-05 8.26489e-06)
(1.02635 -2.95589e-05 1.29658e-05)
(1.02634 -3.09358e-05 7.82775e-06)
(1.02636 -2.4999e-05 1.53483e-05)
(1.02634 -2.49769e-05 1.34633e-05)
(1.02635 -2.35967e-05 1.49342e-05)
(1.02635 -1.7682e-05 1.78947e-05)
(1.02635 -2.44585e-05 1.41022e-05)
(1.02635 -6.15328e-06 2.63104e-05)
(1.02635 -1.68125e-05 1.36275e-05)
(1.02637 -7.80162e-06 2.43833e-05)
(1.02635 1.17932e-06 2.22185e-05)
(1.02636 -9.64122e-07 2.02866e-05)
(1.02637 2.50645e-06 2.08177e-05)
(1.02636 1.23372e-05 2.12128e-05)
(1.02635 -2.008e-06 1.96342e-05)
(1.02636 6.35865e-06 1.4125e-05)
(1.02636 -3.06191e-06 2.23987e-05)
(1.02635 -2.04445e-05 1.96305e-05)
(1.02635 -2.68185e-05 1.81809e-05)
(1.02637 -3.73304e-05 2.25786e-05)
(1.02636 -4.02137e-05 1.04247e-05)
(1.02635 -4.84188e-05 8.85417e-06)
(1.02637 -5.19567e-05 9.40395e-06)
(1.02636 -6.54197e-05 4.67687e-06)
(1.02637 -5.5525e-05 7.57719e-06)
(1.02636 -7.07152e-05 1.46908e-06)
(1.02638 -6.13932e-05 7.52994e-06)
(1.02638 -6.57568e-05 8.16264e-07)
(1.02638 -6.34229e-05 4.15249e-06)
(1.02637 -6.06211e-05 1.10602e-05)
(1.02637 -6.54726e-05 -5.91162e-07)
(1.02638 -4.87072e-05 9.43098e-06)
(1.02636 -6.53048e-05 7.41062e-06)
(1.02637 -5.03062e-05 8.30674e-06)
(1.02636 -5.75616e-05 1.27526e-05)
(1.02636 -4.87808e-05 8.81346e-06)
(1.02636 -4.8998e-05 1.78426e-05)
(1.02636 -5.32821e-05 1.60423e-05)
(1.02635 -3.73324e-05 2.05495e-05)
(1.02635 -4.67656e-05 2.17917e-05)
(1.02635 -4.09867e-05 2.78512e-05)
(1.02634 -3.5212e-05 2.28947e-05)
(1.02636 -3.43251e-05 2.99545e-05)
(1.02634 -3.46788e-05 3.04251e-05)
(1.02635 -3.27963e-05 3.23091e-05)
(1.02635 -2.98936e-05 3.30096e-05)
(1.02635 -3.22768e-05 3.27512e-05)
(1.02636 -2.75645e-05 4.16075e-05)
(1.02635 -2.42564e-05 3.18597e-05)
(1.02637 -2.60251e-05 4.04378e-05)
(1.02636 -1.42725e-05 4.06505e-05)
(1.02635 -1.31324e-05 3.67163e-05)
(1.02637 -1.33416e-05 3.64972e-05)
(1.02635 1.58443e-06 3.84885e-05)
(1.02635 -2.02706e-05 3.29528e-05)
(1.02636 -4.49602e-06 3.08407e-05)
(1.02635 -2.08203e-05 3.44875e-05)
(1.02635 -4.15725e-05 4.18563e-05)
(1.02634 -4.79201e-05 3.70934e-05)
(1.02636 -5.64145e-05 4.28327e-05)
(1.02635 -6.60471e-05 2.48877e-05)
(1.02635 -7.04445e-05 2.75121e-05)
(1.02636 -7.48401e-05 2.49069e-05)
(1.02636 -8.61081e-05 1.95471e-05)
(1.02637 -7.85029e-05 2.40564e-05)
(1.02636 -9.017e-05 1.35249e-05)
(1.02638 -7.71279e-05 2.23244e-05)
(1.02638 -8.5675e-05 1.52067e-05)
(1.02638 -7.46419e-05 1.84539e-05)
(1.02637 -7.93479e-05 2.47859e-05)
(1.02637 -7.14648e-05 1.39876e-05)
(1.02638 -6.25664e-05 2.40106e-05)
(1.02636 -7.122e-05 2.1764e-05)
(1.02637 -5.75561e-05 2.47046e-05)
(1.02636 -6.73605e-05 2.75154e-05)
(1.02636 -5.32458e-05 2.67758e-05)
(1.02635 -6.01112e-05 3.64969e-05)
(1.02636 -5.74143e-05 3.71672e-05)
(1.02635 -4.63991e-05 4.12109e-05)
(1.02635 -5.36149e-05 4.35953e-05)
(1.02636 -4.87228e-05 5.17265e-05)
(1.02634 -4.31505e-05 4.7233e-05)
(1.02636 -4.4181e-05 5.30134e-05)
(1.02634 -4.47652e-05 5.58971e-05)
(1.02635 -4.65728e-05 5.66823e-05)
(1.02635 -4.35944e-05 5.6269e-05)
(1.02635 -4.41633e-05 5.97559e-05)
(1.02636 -5.3253e-05 6.33491e-05)
(1.02635 -3.6059e-05 5.95894e-05)
(1.02638 -4.9226e-05 6.47328e-05)
(1.02636 -3.27818e-05 6.70966e-05)
(1.02635 -3.12466e-05 6.23194e-05)
(1.02638 -2.98881e-05 6.11979e-05)
(1.02635 -1.69152e-05 6.3709e-05)
(1.02635 -3.99682e-05 5.44015e-05)
(1.02636 -2.04207e-05 5.63457e-05)
(1.02635 -4.39916e-05 5.35738e-05)
(1.02635 -6.42889e-05 7.52363e-05)
(1.02634 -7.50225e-05 6.55206e-05)
(1.02635 -7.80145e-05 7.0873e-05)
(1.02634 -9.49585e-05 4.74878e-05)
(1.02634 -9.68334e-05 5.54218e-05)
(1.02635 -9.94628e-05 4.64272e-05)
(1.02636 -0.000110484 4.38833e-05)
(1.02637 -0.000101885 4.51187e-05)
(1.02636 -0.00011007 3.44343e-05)
(1.02638 -9.49765e-05 4.35973e-05)
(1.02638 -0.000102787 3.8851e-05)
(1.02638 -8.65796e-05 3.90639e-05)
(1.02637 -9.34341e-05 4.74408e-05)
(1.02638 -7.72113e-05 3.61208e-05)
(1.02638 -7.34516e-05 4.88327e-05)
(1.02636 -7.1267e-05 4.43284e-05)
(1.02637 -6.47599e-05 5.12165e-05)
(1.02636 -7.08561e-05 5.04535e-05)
(1.02636 -5.75686e-05 5.72541e-05)
(1.02635 -6.93553e-05 6.39986e-05)
(1.02636 -5.91376e-05 7.04655e-05)
(1.02635 -5.70739e-05 7.22886e-05)
(1.02635 -5.90579e-05 7.72898e-05)
(1.02636 -5.71134e-05 8.61646e-05)
(1.02634 -5.45555e-05 8.28907e-05)
(1.02636 -5.35016e-05 8.69226e-05)
(1.02634 -5.89593e-05 9.18268e-05)
(1.02635 -6.34984e-05 9.14392e-05)
(1.02635 -6.04287e-05 9.20944e-05)
(1.02635 -6.35314e-05 9.77067e-05)
(1.02636 -8.16842e-05 9.64498e-05)
(1.02635 -5.67356e-05 9.83696e-05)
(1.02637 -7.63663e-05 9.95483e-05)
(1.02637 -5.59594e-05 0.000102525)
(1.02635 -5.33769e-05 9.77094e-05)
(1.02638 -4.72151e-05 9.5398e-05)
(1.02634 -4.20587e-05 9.86863e-05)
(1.02635 -5.91717e-05 8.62141e-05)
(1.02635 -4.10889e-05 9.32282e-05)
(1.02634 -7.08486e-05 8.12888e-05)
(1.02634 -9.46598e-05 0.000123546)
(1.02633 -0.000107758 0.000111017)
(1.02634 -0.000105507 0.000110148)
(1.02633 -0.000130416 8.67488e-05)
(1.02634 -0.000125381 9.41482e-05)
(1.02635 -0.000133288 8.26244e-05)
(1.02635 -0.000137698 7.99551e-05)
(1.02637 -0.0001307 7.91818e-05)
(1.02636 -0.000131396 6.84568e-05)
(1.02638 -0.000117702 8.05624e-05)
(1.02638 -0.000118876 7.44348e-05)
(1.02638 -9.9776e-05 7.57715e-05)
(1.02637 -0.000105702 8.21817e-05)
(1.02638 -8.47412e-05 7.45206e-05)
(1.02638 -8.07124e-05 8.74866e-05)
(1.02636 -7.24256e-05 8.27436e-05)
(1.02636 -7.37136e-05 9.00933e-05)
(1.02636 -7.23545e-05 9.06359e-05)
(1.02636 -6.988e-05 0.000102793)
(1.02635 -7.90037e-05 0.000109374)
(1.02636 -6.70222e-05 0.000120359)
(1.02635 -7.25044e-05 0.000121284)
(1.02634 -6.73752e-05 0.000128312)
(1.02635 -7.31512e-05 0.00013909)
(1.02634 -6.91902e-05 0.000135779)
(1.02635 -6.92704e-05 0.000139188)
(1.02633 -8.19361e-05 0.000142619)
(1.02634 -8.64226e-05 0.000144504)
(1.02635 -8.62384e-05 0.00014361)
(1.02633 -9.58648e-05 0.000151632)
(1.02636 -0.000115989 0.000143855)
(1.02634 -9.3238e-05 0.000153403)
(1.02637 -0.000111113 0.000148688)
(1.02637 -9.10816e-05 0.000155444)
(1.02635 -8.34228e-05 0.000147518)
(1.02638 -7.30571e-05 0.00014776)
(1.02634 -7.81807e-05 0.000147416)
(1.02634 -8.22598e-05 0.000137929)
(1.02635 -7.36203e-05 0.000144717)
(1.02632 -0.000102403 0.000127741)
(1.02633 -0.000123806 0.000195884)
(1.02631 -0.000135628 0.000178884)
(1.02632 -0.000135054 0.000170403)
(1.02632 -0.000160369 0.00014744)
(1.02633 -0.000151846 0.000151695)
(1.02633 -0.000165075 0.00013891)
(1.02635 -0.000160794 0.000134757)
(1.02636 -0.000155852 0.000132034)
(1.02636 -0.000148432 0.000123626)
(1.02637 -0.000139057 0.00013805)
(1.02637 -0.000128673 0.000130404)
(1.02637 -0.000109578 0.000133888)
(1.02637 -0.000112748 0.000137233)
(1.02638 -8.59805e-05 0.000135432)
(1.02637 -8.03807e-05 0.000147863)
(1.02635 -7.19973e-05 0.000141798)
(1.02635 -7.62219e-05 0.000150932)
(1.02635 -7.40295e-05 0.000154005)
(1.02634 -8.56175e-05 0.000171834)
(1.02634 -8.6368e-05 0.000179769)
(1.02635 -8.00968e-05 0.000194963)
(1.02634 -8.76367e-05 0.000194475)
(1.02633 -7.94688e-05 0.000205793)
(1.02634 -9.27806e-05 0.000216802)
(1.02633 -8.3111e-05 0.000214855)
(1.02634 -8.88066e-05 0.000214006)
(1.02631 -0.00010601 0.000218107)
(1.02633 -0.000107863 0.000221136)
(1.02633 -0.000117224 0.000218796)
(1.02631 -0.000129895 0.000227503)
(1.02635 -0.000150193 0.000215322)
(1.02633 -0.000134785 0.000229857)
(1.02636 -0.000144042 0.000222173)
(1.02637 -0.000128529 0.000232495)
(1.02635 -0.00011006 0.000221501)
(1.02637 -0.000101112 0.000224257)
(1.02632 -0.000112043 0.000219954)
(1.02633 -0.000102464 0.000215212)
(1.02633 -0.000106492 0.00021972)
(1.02631 -0.000129572 0.000200524)
(1.0263 -0.000156992 0.000304952)
(1.02629 -0.000171509 0.000281755)
(1.02629 -0.000171806 0.000265147)
(1.02629 -0.000193539 0.000240255)
(1.0263 -0.000183196 0.0002411)
(1.02631 -0.000199089 0.000226008)
(1.02633 -0.000185177 0.000219494)
(1.02634 -0.000180187 0.000214447)
(1.02634 -0.000167035 0.000212009)
(1.02635 -0.000161653 0.000227993)
(1.02636 -0.000138116 0.00022035)
(1.02636 -0.000124339 0.000225076)
(1.02635 -0.000119477 0.000227769)
(1.02637 -8.88638e-05 0.00023417)
(1.02635 -8.14018e-05 0.000243918)
(1.02633 -7.67185e-05 0.000236317)
(1.02633 -7.89582e-05 0.000248306)
(1.02632 -8.79234e-05 0.000253834)
(1.02632 -0.000105963 0.000279936)
(1.02632 -0.000103008 0.000290206)
(1.02633 -0.000103092 0.000308874)
(1.02631 -0.000111106 0.000306736)
(1.02631 -0.000102509 0.00032533)
(1.02632 -0.00012265 0.000336044)
(1.02631 -0.000105306 0.000335347)
(1.02631 -0.000121443 0.000327664)
(1.02628 -0.000133955 0.000333311)
(1.0263 -0.000139222 0.000336277)
(1.0263 -0.000159036 0.000332766)
(1.02628 -0.000173201 0.000340626)
(1.02632 -0.000194429 0.000325125)
(1.02631 -0.000187307 0.000342548)
(1.02634 -0.000184458 0.000336392)
(1.02636 -0.000174405 0.000348078)
(1.02634 -0.000141142 0.00033484)
(1.02634 -0.000141021 0.00033871)
(1.0263 -0.000149003 0.000332539)
(1.02631 -0.000132554 0.000331805)
(1.0263 -0.000145206 0.00033378)
(1.02628 -0.000163656 0.000313003)
(1.02625 -0.000170605 0.000461293)
(1.02623 -0.000191252 0.000431086)
(1.02624 -0.000187081 0.000403467)
(1.02624 -0.000206453 0.00037571)
(1.02625 -0.000191554 0.000370681)
(1.02626 -0.000210681 0.000352864)
(1.02628 -0.000184607 0.000342488)
(1.02629 -0.000180993 0.00033861)
(1.02629 -0.000163569 0.000343781)
(1.02631 -0.000161316 0.00036243)
(1.02632 -0.00012709 0.000355383)
(1.02631 -0.000120913 0.000362439)
(1.02631 -0.000104447 0.000367421)
(1.02632 -7.45094e-05 0.00038357)
(1.0263 -6.59515e-05 0.000388916)
(1.02628 -6.77495e-05 0.000382341)
(1.02627 -6.67898e-05 0.000394261)
(1.02626 -9.5943e-05 0.000403578)
(1.02626 -0.000113072 0.000439964)
(1.02626 -0.000115605 0.00045395)
(1.02627 -0.000117825 0.000473779)
(1.02626 -0.000127823 0.000470754)
(1.02625 -0.000119045 0.000498895)
(1.02626 -0.000144542 0.000510625)
(1.02625 -0.000120808 0.000509883)
(1.02625 -0.000146311 0.000494087)
(1.02623 -0.000147281 0.000500642)
(1.02624 -0.000163741 0.000502724)
(1.02624 -0.000187422 0.00049766)
(1.02622 -0.000205746 0.000503687)
(1.02626 -0.000225174 0.000485363)
(1.02626 -0.000225053 0.000506063)
(1.02629 -0.000210018 0.000504611)
(1.02631 -0.000202426 0.000517615)
(1.02629 -0.000157422 0.000501657)
(1.02629 -0.000167246 0.000506466)
(1.02625 -0.000166229 0.000498222)
(1.02626 -0.000149395 0.000501237)
(1.02624 -0.00016499 0.000499809)
(1.02623 -0.000180171 0.000477848)
(1.02613 -0.000174789 0.000666754)
(1.02611 -0.000201645 0.000625233)
(1.02611 -0.00018894 0.00058463)
(1.02612 -0.000207369 0.000551691)
(1.02613 -0.000183692 0.000541865)
(1.02614 -0.00020743 0.000519793)
(1.02617 -0.000167771 0.000505392)
(1.02618 -0.000170083 0.000506726)
(1.02617 -0.000145733 0.000522517)
(1.02619 -0.000147392 0.000544236)
(1.0262 -0.000103758 0.000538803)
(1.02619 -0.000105586 0.000549818)
(1.02619 -7.70075e-05 0.000562737)
(1.0262 -5.18636e-05 0.000588708)
(1.02618 -4.37189e-05 0.000591474)
(1.02616 -5.53775e-05 0.000586524)
(1.02614 -5.25755e-05 0.000596679)
(1.02612 -0.000105413 0.000611068)
(1.02613 -0.0001187 0.000660799)
(1.02613 -0.000136811 0.000676952)
(1.02614 -0.000134988 0.000696055)
(1.02613 -0.000152101 0.000690794)
(1.02612 -0.000139897 0.000730983)
(1.02613 -0.000172248 0.000743903)
(1.02613 -0.000143638 0.000744383)
(1.02612 -0.00017372 0.000718473)
(1.0261 -0.000162468 0.000723915)
(1.02611 -0.00019606 0.000724484)
(1.0261 -0.000216593 0.000717713)
(1.02609 -0.000242634 0.000719668)
(1.02613 -0.000251952 0.000699507)
(1.02614 -0.000257023 0.000724384)
(1.02617 -0.000227882 0.000730856)
(1.0262 -0.000218663 0.000743354)
(1.02617 -0.000169179 0.000722712)
(1.02616 -0.000184321 0.000727365)
(1.02613 -0.00017581 0.000717424)
(1.02614 -0.000161921 0.000722106)
(1.02611 -0.000175871 0.000719485)
(1.0261 -0.000188871 0.000693359)
(1.02586 -6.9169e-05 0.000856545)
(1.02584 -9.84003e-05 0.000795524)
(1.02585 -7.85731e-05 0.000741299)
(1.02586 -9.30476e-05 0.000702122)
(1.02587 -6.14496e-05 0.000688494)
(1.02588 -9.20352e-05 0.000660678)
(1.02591 -4.58288e-05 0.000642237)
(1.02592 -5.6792e-05 0.000656249)
(1.02592 -2.34101e-05 0.00068399)
(1.02594 -3.00662e-05 0.000710689)
(1.02594 2.00819e-05 0.000703888)
(1.02592 1.32826e-05 0.000721984)
(1.02593 5.14025e-05 0.000745365)
(1.02593 7.21276e-05 0.000787271)
(1.0259 7.30501e-05 0.000789514)
(1.02588 4.9771e-05 0.000790081)
(1.02586 4.79034e-05 0.000794726)
(1.02584 -2.44514e-05 0.000819711)
(1.02585 -3.69282e-05 0.000882182)
(1.02585 -7.29915e-05 0.000902367)
(1.02586 -6.70135e-05 0.00091633)
(1.02585 -8.91675e-05 0.000909642)
(1.02583 -6.91865e-05 0.000960895)
(1.02585 -0.000106248 0.000976064)
(1.02584 -7.49285e-05 0.000977792)
(1.02583 -0.000101309 0.000941583)
(1.02582 -8.28924e-05 0.000944775)
(1.02582 -0.000124699 0.000945063)
(1.02582 -0.00014137 0.000936957)
(1.02581 -0.000171646 0.000936295)
(1.02586 -0.000166556 0.000914365)
(1.02588 -0.000169576 0.000945433)
(1.02591 -0.000121849 0.000962211)
(1.02594 -0.000109649 0.000975779)
(1.02591 -6.62792e-05 0.000948877)
(1.02589 -8.08157e-05 0.000951061)
(1.02587 -7.42642e-05 0.000934213)
(1.02587 -5.95888e-05 0.000938122)
(1.02584 -7.22591e-05 0.000934355)
(1.02584 -8.2076e-05 0.000896841)
(1.02534 0.000203512 0.000832912)
(1.02532 0.00017633 0.000742061)
(1.02535 0.000199239 0.000675403)
(1.02536 0.00019733 0.000628783)
(1.02537 0.000232664 0.000614401)
(1.02538 0.000196249 0.000575006)
(1.02541 0.000234778 0.000556926)
(1.02542 0.000217539 0.000595297)
(1.02542 0.000258183 0.000639736)
(1.02544 0.000247509 0.000668382)
(1.02544 0.000294897 0.000657792)
(1.02541 0.000285176 0.000681964)
(1.02541 0.000325783 0.000722269)
(1.0254 0.000342361 0.000786028)
(1.02536 0.000326267 0.000794037)
(1.02534 0.000292697 0.000799998)
(1.02531 0.000278548 0.000800741)
(1.02528 0.000192888 0.000835038)
(1.0253 0.000173115 0.000906392)
(1.0253 0.000124019 0.000927194)
(1.02531 0.000129692 0.000933146)
(1.0253 0.000104723 0.000924592)
(1.02527 0.000135107 0.000985558)
(1.02528 9.37963e-05 0.000999519)
(1.02527 0.000125765 0.00100012)
(1.02526 0.000106667 0.00095156)
(1.02526 0.000126448 0.000955889)
(1.02526 8.73666e-05 0.000959207)
(1.02527 7.61228e-05 0.00094855)
(1.02525 4.83871e-05 0.00094774)
(1.02533 7.1171e-05 0.000926132)
(1.02536 7.94615e-05 0.000966263)
(1.0254 0.000157578 0.000997567)
(1.02543 0.000172564 0.00101268)
(1.02539 0.00020608 0.000984679)
(1.02537 0.00019538 0.000986329)
(1.02536 0.000192005 0.00095956)
(1.02535 0.000212691 0.00096092)
(1.02531 0.000200824 0.000951463)
(1.02532 0.000192383 0.000893174)
(1.02455 0.000793012 0.000247638)
(1.02456 0.000763652 0.000123407)
(1.0246 0.000791731 3.9512e-05)
(1.02461 0.00081486 -1.58224e-05)
(1.02462 0.000847194 -3.33579e-05)
(1.02463 0.000806554 -8.81515e-05)
(1.02467 0.000819952 -9.81026e-05)
(1.02468 0.000802511 -2.41766e-05)
(1.02469 0.00084108 3.56124e-05)
(1.0247 0.000828097 6.21069e-05)
(1.0247 0.000871226 4.58168e-05)
(1.02466 0.000861504 7.75202e-05)
(1.02466 0.000888667 0.000135491)
(1.02463 0.000897752 0.000218415)
(1.02456 0.000853187 0.000233995)
(1.02452 0.000818511 0.000248206)
(1.02448 0.000782705 0.000250709)
(1.02446 0.000690606 0.000291369)
(1.02448 0.000661861 0.000362036)
(1.02448 0.000615611 0.000381335)
(1.02448 0.000622861 0.000379043)
(1.02446 0.000602009 0.000377113)
(1.02443 0.000639064 0.00045039)
(1.02442 0.000592698 0.000460257)
(1.0244 0.000624315 0.000455307)
(1.02438 0.000620445 0.000391743)
(1.02438 0.000642535 0.000400394)
(1.02439 0.000621408 0.000405482)
(1.0244 0.000610809 0.000389962)
(1.02439 0.000601122 0.000389405)
(1.02449 0.000635265 0.00036537)
(1.02456 0.000667123 0.000415072)
(1.02462 0.00077196 0.000462944)
(1.02464 0.000786482 0.000481989)
(1.02459 0.000812778 0.000462925)
(1.02456 0.000805407 0.000466729)
(1.02457 0.000791752 0.000432819)
(1.02457 0.000820533 0.000433178)
(1.02453 0.000805402 0.000411562)
(1.02453 0.000789859 0.000331415)
(1.02387 0.00155475 -0.00116365)
(1.0239 0.00150901 -0.00130614)
(1.02397 0.00156289 -0.00140519)
(1.024 0.0016175 -0.00146449)
(1.02401 0.0016388 -0.00147924)
(1.02401 0.00157663 -0.00154528)
(1.02404 0.00155387 -0.00153516)
(1.02405 0.00152765 -0.00142379)
(1.02409 0.00155409 -0.00134433)
(1.0241 0.00152952 -0.00131682)
(1.0241 0.00158048 -0.00132589)
(1.02407 0.00155871 -0.00127605)
(1.02409 0.00157726 -0.00119031)
(1.02404 0.00157258 -0.00109338)
(1.02396 0.00149724 -0.00108228)
(1.02392 0.0014491 -0.00106622)
(1.02388 0.00138328 -0.0010612)
(1.02386 0.00126776 -0.00102404)
(1.02389 0.00123097 -0.000962737)
(1.02389 0.00119624 -0.000957926)
(1.02388 0.0012218 -0.000977835)
(1.02385 0.00121945 -0.000968511)
(1.0238 0.00126466 -0.000878769)
(1.02377 0.0012035 -0.000874055)
(1.02373 0.00124201 -0.000892704)
(1.02368 0.00125388 -0.000974886)
(1.02367 0.00129036 -0.000965705)
(1.02364 0.00129526 -0.000960093)
(1.02364 0.00129456 -0.000988738)
(1.02363 0.00131523 -0.000994953)
(1.02374 0.00137438 -0.00102276)
(1.02384 0.00144759 -0.000962623)
(1.02393 0.00157818 -0.000907888)
(1.02393 0.00158265 -0.000888278)
(1.02388 0.00160363 -0.000897161)
(1.02385 0.0015912 -0.000892837)
(1.02388 0.001579 -0.000935227)
(1.0239 0.00161186 -0.000941575)
(1.02386 0.00159895 -0.000977538)
(1.02385 0.00156126 -0.00106429)
(1.02374 0.00251924 -0.00313218)
(1.02376 0.00246678 -0.00324088)
(1.02387 0.00256229 -0.00332821)
(1.02392 0.00265251 -0.00336372)
(1.02395 0.00265255 -0.00335538)
(1.02393 0.00257033 -0.00339512)
(1.02397 0.0025144 -0.00335167)
(1.02397 0.00248796 -0.00319119)
(1.02405 0.00249477 -0.0030801)
(1.02406 0.00245498 -0.00304042)
(1.0241 0.00250035 -0.00303303)
(1.02409 0.00245573 -0.00295229)
(1.02418 0.00247602 -0.00284501)
(1.02417 0.00246833 -0.00274239)
(1.02413 0.00237134 -0.00275484)
(1.02414 0.00232201 -0.00275161)
(1.02412 0.00222587 -0.00275703)
(1.02408 0.00208506 -0.0027381)
(1.02413 0.00201609 -0.00270956)
(1.02409 0.00200443 -0.00275434)
(1.02407 0.00206107 -0.00281957)
(1.02398 0.00209142 -0.00281739)
(1.02392 0.00214371 -0.00271012)
(1.02383 0.00207435 -0.00270701)
(1.02375 0.00212056 -0.00275354)
(1.02367 0.00214576 -0.00286444)
(1.02364 0.00220606 -0.00287492)
(1.02356 0.00224409 -0.00287068)
(1.02353 0.00225489 -0.0029177)
(1.02347 0.00230666 -0.00295525)
(1.02361 0.00240093 -0.00300913)
(1.02371 0.00253419 -0.00295214)
(1.02382 0.00267508 -0.0028945)
(1.02377 0.00266196 -0.00287167)
(1.02372 0.00265822 -0.00288392)
(1.02369 0.0026407 -0.00287518)
(1.02376 0.00260778 -0.00291981)
(1.0238 0.00262579 -0.00293218)
(1.02376 0.0026052 -0.00297037)
(1.02371 0.00254799 -0.00304768)
(1.0253 0.00376118 -0.00460792)
(1.02527 0.00366545 -0.00462635)
(1.02541 0.00378073 -0.00467642)
(1.02538 0.00386567 -0.00467329)
(1.02537 0.00386522 -0.0046346)
(1.02528 0.00376069 -0.004628)
(1.02526 0.00368596 -0.00456097)
(1.02521 0.00366066 -0.00435831)
(1.0253 0.0036607 -0.00424845)
(1.02531 0.00359406 -0.00422602)
(1.02541 0.0036264 -0.00422433)
(1.02542 0.0035281 -0.00414327)
(1.02559 0.0035623 -0.00405863)
(1.02562 0.00353526 -0.0039967)
(1.02562 0.00346013 -0.00409975)
(1.02559 0.00342092 -0.00416486)
(1.02554 0.00333566 -0.00423172)
(1.02539 0.00313694 -0.00424977)
(1.02538 0.00303511 -0.00429375)
(1.02524 0.00302911 -0.00442576)
(1.0252 0.0031548 -0.00456914)
(1.02501 0.00322741 -0.00458058)
(1.02493 0.0033078 -0.00445996)
(1.0248 0.00324191 -0.00443701)
(1.02472 0.00332672 -0.00451368)
(1.02471 0.00337147 -0.00462194)
(1.02473 0.00349267 -0.00464275)
(1.02474 0.00358105 -0.00459774)
(1.02473 0.00361375 -0.0046505)
(1.0247 0.00369799 -0.00471128)
(1.02499 0.00384421 -0.00480266)
(1.02517 0.00402648 -0.00474591)
(1.02536 0.00416878 -0.00468487)
(1.02532 0.00410626 -0.00461422)
(1.02531 0.004085 -0.00460762)
(1.02529 0.00404089 -0.00456037)
(1.0254 0.00396684 -0.00459632)
(1.02543 0.00393906 -0.00458009)
(1.02538 0.00392207 -0.00458699)
(1.02528 0.00382596 -0.00460902)
(1.02775 0.00518548 -0.00467745)
(1.02761 0.00506009 -0.00466408)
(1.02761 0.00522207 -0.00472666)
(1.02741 0.00531197 -0.00475353)
(1.02723 0.00537867 -0.00474491)
(1.02691 0.00526703 -0.0047653)
(1.02673 0.00519942 -0.0047065)
(1.02652 0.00515468 -0.00451782)
(1.02659 0.00513769 -0.00445637)
(1.02651 0.0050335 -0.00450156)
(1.02661 0.00504889 -0.00450555)
(1.02657 0.00489697 -0.00445056)
(1.02673 0.00495839 -0.00439074)
(1.0267 0.00488467 -0.00440655)
(1.02663 0.00488302 -0.00467601)
(1.02648 0.00484281 -0.00486409)
(1.02627 0.00485101 -0.00503218)
(1.02592 0.00458654 -0.00507565)
(1.02589 0.00450485 -0.00513826)
(1.02578 0.00453445 -0.00525406)
(1.02598 0.0047647 -0.00532194)
(1.02593 0.00486797 -0.00519614)
(1.02609 0.00497645 -0.00493322)
(1.02612 0.00488684 -0.00480782)
(1.02627 0.00500742 -0.00486809)
(1.02649 0.00505024 -0.0049292)
(1.0267 0.00519865 -0.00493793)
(1.02699 0.00526637 -0.00483325)
(1.02712 0.00529235 -0.0049027)
(1.0273 0.00536757 -0.00498027)
(1.02783 0.005531 -0.00510468)
(1.02819 0.00568155 -0.00501697)
(1.0285 0.00578538 -0.00495869)
(1.02855 0.00561121 -0.00483017)
(1.0286 0.00557257 -0.00482746)
(1.02851 0.00549376 -0.0048004)
(1.02853 0.00541277 -0.00485691)
(1.02838 0.00537307 -0.00480815)
(1.02818 0.00539509 -0.00478821)
(1.02789 0.00526145 -0.00474455)
(1.02901 0.00582878 -0.00329026)
(1.0285 0.00563251 -0.00342146)
(1.02834 0.00588934 -0.003647)
(1.02812 0.00604682 -0.00370847)
(1.028 0.00623942 -0.00379809)
(1.0276 0.00613309 -0.00387392)
(1.02735 0.00615948 -0.00386323)
(1.02712 0.00610863 -0.00370185)
(1.02723 0.0060821 -0.00371336)
(1.027 0.0059667 -0.00383051)
(1.02713 0.00601082 -0.00391238)
(1.02696 0.00589732 -0.00391202)
(1.02706 0.00601889 -0.00397071)
(1.02687 0.00594547 -0.00403719)
(1.02686 0.00599603 -0.00450148)
(1.02669 0.00594471 -0.00462491)
(1.02648 0.00600761 -0.00475479)
(1.02611 0.00570735 -0.00462862)
(1.02637 0.0057031 -0.00448032)
(1.0266 0.00583543 -0.00430273)
(1.02739 0.00620455 -0.00411227)
(1.02777 0.00636469 -0.00368896)
(1.02855 0.00652945 -0.00325835)
(1.02876 0.00641872 -0.00309839)
(1.02924 0.00661404 -0.00327415)
(1.02948 0.00664005 -0.00336971)
(1.02988 0.00681822 -0.00341834)
(1.03027 0.0067516 -0.00318768)
(1.03058 0.0067226 -0.00329974)
(1.03097 0.00668823 -0.00335213)
(1.03157 0.00682451 -0.00348869)
(1.03187 0.00688153 -0.00325768)
(1.03216 0.00691659 -0.00315707)
(1.03209 0.00655219 -0.00291132)
(1.03208 0.00649555 -0.00291735)
(1.03182 0.00631548 -0.0028287)
(1.03153 0.00623588 -0.00291481)
(1.0308 0.00617168 -0.00294259)
(1.03023 0.0062 -0.00309937)
(1.02944 0.0059445 -0.00316269)
(1.02628 0.00624943 0.000873963)
(1.02546 0.00596684 0.000566469)
(1.02542 0.00626375 0.000163429)
(1.0254 0.00638368 0.000199109)
(1.02561 0.00660784 -2.58936e-05)
(1.02527 0.00642958 -0.000166922)
(1.02519 0.00654288 -0.00032903)
(1.0251 0.00647178 -0.00029175)
(1.02524 0.00641124 -0.00054063)
(1.02494 0.00626346 -0.000692104)
(1.02532 0.00636546 -0.000934421)
(1.02509 0.00629569 -0.000985022)
(1.02533 0.00646958 -0.00127805)
(1.02519 0.00637246 -0.0013265)
(1.02567 0.00650091 -0.00186602)
(1.02558 0.00644552 -0.0017807)
(1.02561 0.00660122 -0.00185345)
(1.0253 0.00617399 -0.0015178)
(1.02575 0.00624373 -0.00124588)
(1.02597 0.006398 -0.000952846)
(1.0269 0.00683363 -0.000855276)
(1.02724 0.00690744 -0.00034971)
(1.02835 0.00709845 -4.07704e-05)
(1.02831 0.00691066 -4.39558e-05)
(1.02879 0.00713695 -0.000504877)
(1.02865 0.00711956 -0.000644301)
(1.02903 0.00736202 -0.000579008)
(1.02901 0.00716901 -9.52218e-06)
(1.02955 0.00708514 7.02767e-05)
(1.02997 0.00694008 0.000228386)
(1.03059 0.00704861 0.000248471)
(1.03064 0.0070473 0.000779641)
(1.03078 0.00704763 0.00111951)
(1.0303 0.00658977 0.00169862)
(1.03023 0.0065849 0.0018597)
(1.02977 0.00636185 0.00229355)
(1.02904 0.00643224 0.00211585)
(1.02803 0.00650549 0.00196203)
(1.02742 0.00666214 0.00152023)
(1.0266 0.00639146 0.00133482)
(1.02043 0.00558972 0.00544544)
(1.01957 0.00525958 0.00517087)
(1.01994 0.00563381 0.00478597)
(1.01966 0.00565141 0.00487763)
(1.01989 0.00593614 0.00440207)
(1.01921 0.00562216 0.00417846)
(1.01928 0.00582361 0.00390542)
(1.01908 0.00568991 0.00394047)
(1.01941 0.00563067 0.00354241)
(1.01916 0.00549002 0.0036515)
(1.02006 0.005665 0.00336343)
(1.01987 0.00559883 0.00346915)
(1.02096 0.00583049 0.00304566)
(1.02111 0.00570505 0.00293089)
(1.02254 0.00585537 0.00244372)
(1.02258 0.00578344 0.00262943)
(1.02304 0.00602934 0.00249295)
(1.02255 0.00552065 0.00294644)
(1.02262 0.00583888 0.00302658)
(1.02214 0.00609839 0.00316304)
(1.02257 0.00662922 0.00295984)
(1.02203 0.00665908 0.00352879)
(1.0227 0.00691321 0.00384186)
(1.02164 0.00662199 0.00398977)
(1.02197 0.00680629 0.00360068)
(1.02134 0.00665372 0.00377198)
(1.02171 0.00687002 0.00413148)
(1.02121 0.00649955 0.0049671)
(1.02167 0.00636614 0.00526983)
(1.02172 0.0061139 0.00551895)
(1.02235 0.00624066 0.00542857)
(1.02225 0.00615258 0.00576932)
(1.0226 0.00606106 0.00582436)
(1.02154 0.00555434 0.00614281)
(1.02164 0.00556568 0.00608499)
(1.02075 0.00526239 0.00641931)
(1.02019 0.00556842 0.00612526)
(1.01959 0.00572534 0.00622358)
(1.01997 0.00604395 0.00590849)
(1.01991 0.00572126 0.00594021)
(1.01385 0.00512563 0.00739171)
(1.01252 0.00479707 0.00718469)
(1.01319 0.00506879 0.00693128)
(1.01193 0.00500759 0.0070596)
(1.0123 0.00536798 0.00663899)
(1.01079 0.00491104 0.00667387)
(1.0107 0.00509128 0.00667943)
(1.00987 0.00488212 0.00710493)
(1.01021 0.00487084 0.00706024)
(1.00958 0.00470481 0.00740034)
(1.011 0.00484778 0.00732711)
(1.01038 0.00463971 0.00759761)
(1.01188 0.00482403 0.00741345)
(1.01135 0.00473825 0.00749984)
(1.01291 0.00491676 0.00759004)
(1.01196 0.00508855 0.00827615)
(1.01275 0.00548695 0.00851717)
(1.01138 0.00514028 0.0093446)
(1.01087 0.00572044 0.00947972)
(1.00969 0.00595311 0.00974618)
(1.01001 0.00646825 0.00967555)
(1.00915 0.00638296 0.0103687)
(1.00978 0.0065322 0.0108666)
(1.00831 0.00608901 0.0109442)
(1.00929 0.00628634 0.0106579)
(1.00843 0.00598178 0.010692)
(1.00967 0.00617102 0.0108991)
(1.0089 0.00572031 0.0113325)
(1.0092 0.00569464 0.0112403)
(1.00865 0.00544279 0.0109801)
(1.00975 0.00569628 0.0102662)
(1.00961 0.00572074 0.0100389)
(1.01099 0.00574664 0.00953298)
(1.00946 0.00533257 0.00915616)
(1.01047 0.00545765 0.00867545)
(1.00943 0.00522828 0.00856829)
(1.01 0.00564205 0.00813618)
(1.01018 0.00567426 0.00845601)
(1.01205 0.00588255 0.0080847)
(1.01274 0.00538282 0.00807139)
(1.00023 0.00451088 0.0093346)
(0.998069 0.00423827 0.00899786)
(0.999048 0.00446181 0.00882428)
(0.996925 0.00438767 0.00884861)
(0.998694 0.00477409 0.00863168)
(0.99729 0.00428972 0.00874391)
(0.998233 0.00447478 0.00890954)
(0.997432 0.00421056 0.00956169)
(0.99808 0.00423404 0.00955615)
(0.99725 0.00400978 0.00966293)
(0.99811 0.00422613 0.00978814)
(0.996024 0.00409688 0.00993009)
(0.996291 0.00435843 0.0101958)
(0.994234 0.0041804 0.0102486)
(0.995471 0.00438793 0.0111187)
(0.993746 0.00462609 0.0117765)
(0.996003 0.00493607 0.012496)
(0.993675 0.00466489 0.0130732)
(0.994164 0.0051982 0.0133145)
(0.993132 0.00509041 0.0132955)
(0.995194 0.00538582 0.0132237)
(0.994605 0.00520362 0.0135181)
(0.996667 0.00529773 0.014096)
(0.994978 0.00482729 0.013757)
(0.997271 0.00505956 0.0134488)
(0.995459 0.00477378 0.0129149)
(0.99747 0.00501421 0.0133276)
(0.995358 0.00460725 0.0136563)
(0.996177 0.00471434 0.0133562)