/*--------------------------------*- C++ -*----------------------------------*\
  =========                 |
  \\      /  F ield         | OpenFOAM: The Open Source CFD Toolbox
   \\    /   O peration     | Website:  https://openfoam.org
    \\  /    A nd           | Version:  10
     \\/     M anipulation  |
\*---------------------------------------------------------------------------*/
FoamFile
{
    format      ascii;
    class       volVectorField;
    location    "7";
    object      UMean;
}
// * * * * * * * * * * * * * * * * * * * * * * * * * * * * * * * * * * * * * //

dimensions      [0 1 -1 0 0 0 0];

internalField   nonuniform List<vector> 
25600
(
(1.06108 0.00940654 0.00104509)
(1.0694 0.010767 -0.000399852)
(1.08965 0.0178867 0.00209952)
(1.10836 0.0256338 0.00678842)
(1.114 0.0264684 0.0111132)
(1.10794 0.0156712 0.0105932)
(1.095 0.00023669 0.00393386)
(1.08687 -0.00919692 -0.00490063)
(1.08685 -0.00936165 -0.0138804)
(1.08803 -0.00199405 -0.0194479)
(1.08691 0.00399393 -0.0219416)
(1.08104 0.00679558 -0.0233999)
(1.07997 0.00552964 -0.0252361)
(1.09129 -0.000309308 -0.0286928)
(1.11568 -0.00577913 -0.0286578)
(1.14759 -0.0101322 -0.0251488)
(1.16612 -0.0116464 -0.0201057)
(1.16155 -0.0113419 -0.0152942)
(1.13813 -0.00965524 -0.013729)
(1.10849 -0.0076218 -0.0119383)
(1.08911 -0.00840301 -0.0107946)
(1.08749 -0.0120084 -0.00812497)
(1.10104 -0.0155404 -0.00336139)
(1.11907 -0.0175751 -0.000743603)
(1.13013 -0.0178613 -0.000750645)
(1.12311 -0.0147848 -0.00640244)
(1.10429 -0.0128165 -0.0138331)
(1.08811 -0.00988622 -0.0162114)
(1.07758 -0.00450798 -0.0102351)
(1.07943 -0.000889266 0.0072138)
(1.08987 0.00397825 0.0265949)
(1.10046 0.00706484 0.0377075)
(1.11549 0.0107925 0.0382046)
(1.13135 0.016379 0.0260203)
(1.14421 0.0190287 0.0117818)
(1.15005 0.0220359 0.00177777)
(1.13895 0.0222691 -0.00439815)
(1.11348 0.0195066 -0.00352645)
(1.08521 0.0159518 -0.00194442)
(1.0624 0.0118472 -4.76741e-05)
(1.13814 0.00622163 -0.0168044)
(1.122 -0.0028627 -0.0145458)
(1.11193 0.00161139 -0.00688712)
(1.10886 0.00987064 -0.00396005)
(1.10996 0.0158109 -0.00734607)
(1.11321 0.0126395 -0.0129176)
(1.10987 0.00493882 -0.0200088)
(1.10419 0.00168578 -0.0220032)
(1.09739 0.00385768 -0.0173437)
(1.09142 0.0163546 -0.0086935)
(1.09175 0.0322202 0.00521698)
(1.09165 0.0441676 0.022757)
(1.09544 0.0476216 0.0384275)
(1.10448 0.0330276 0.0454611)
(1.11784 0.0158302 0.0354141)
(1.13619 0.00741758 0.0127897)
(1.14324 0.0085345 -0.00777178)
(1.13874 0.0175819 -0.0180753)
(1.12924 0.0227058 -0.0160711)
(1.11787 0.020311 -0.0066244)
(1.11516 0.0115873 0.00103543)
(1.1186 -0.00170156 0.00622849)
(1.11961 -0.0118383 0.00736173)
(1.11074 -0.0165742 0.0049721)
(1.09194 -0.0192792 0.0032119)
(1.0714 -0.0179584 -0.00423416)
(1.05769 -0.014923 -0.014462)
(1.05849 -0.0108445 -0.0252141)
(1.07098 -0.00452538 -0.033141)
(1.09261 -0.000306568 -0.0286535)
(1.11451 0.00311804 -0.0170307)
(1.12295 0.00659065 -0.00301412)
(1.11878 0.00926536 0.0113332)
(1.10527 0.00898561 0.0185104)
(1.09148 0.00559061 0.0209043)
(1.08789 0.00864605 0.0195418)
(1.09371 0.0203224 0.0140015)
(1.10996 0.0325974 0.00769421)
(1.13056 0.036502 -0.00366559)
(1.14118 0.0253877 -0.0137247)
(1.16203 0.0155434 -0.0256696)
(1.1236 0.0102942 -0.0154083)
(1.09751 0.00639316 -0.0137397)
(1.09107 0.00357961 -0.0253698)
(1.10253 0.00675852 -0.0377859)
(1.1173 0.0105439 -0.0392585)
(1.11797 0.0148197 -0.0311396)
(1.1005 0.0222374 -0.0188068)
(1.07348 0.024025 -0.00603279)
(1.0522 0.0185888 0.00880998)
(1.05219 0.00795263 0.0273999)
(1.06893 -0.00310857 0.0482251)
(1.092 -0.0103249 0.0655379)
(1.10769 -0.0164451 0.0658705)
(1.10692 -0.012936 0.0463953)
(1.09739 -0.00383973 0.021348)
(1.0847 0.00311015 0.00645687)
(1.082 0.00881766 0.00749663)
(1.09133 0.00859607 0.0162956)
(1.10201 0.00651003 0.0236202)
(1.10868 0.00291431 0.0245757)
(1.10742 -0.00358 0.0196784)
(1.10101 -0.00659153 0.0103001)
(1.08632 -0.00658408 0.00157306)
(1.06725 -0.00604144 0.000437952)
(1.0496 -0.00536473 0.00375442)
(1.03488 -0.00591671 0.00863535)
(1.03278 -0.00615097 0.00504967)
(1.03791 -0.00369796 -0.0100689)
(1.04958 0.00290802 -0.0241674)
(1.06961 0.0125465 -0.0283434)
(1.08961 0.0241454 -0.0154389)
(1.10683 0.0348923 0.00779333)
(1.11065 0.041146 0.0236464)
(1.10417 0.0433248 0.0279437)
(1.10734 0.0430732 0.0213568)
(1.12689 0.0410031 0.00597095)
(1.15993 0.0368632 -0.0125041)
(1.18862 0.0313319 -0.0294329)
(1.19466 0.0242315 -0.0340604)
(1.07259 0.0150653 0.00167716)
(1.05039 0.00594157 -0.00567991)
(1.04092 0.00205767 -0.0323335)
(1.04852 0.00665483 -0.0630801)
(1.06855 0.0188216 -0.0775665)
(1.08973 0.0312009 -0.0689171)
(1.09868 0.0427688 -0.0442345)
(1.09251 0.0489927 -0.0111047)
(1.07566 0.0381848 0.0191612)
(1.05103 0.00901075 0.0378767)
(1.03151 -0.0238882 0.0409512)
(1.02411 -0.0387714 0.0302924)
(1.03052 -0.0267147 0.012854)
(1.04439 0.00033103 -0.0104563)
(1.05301 0.0250018 -0.0291592)
(1.05491 0.0321163 -0.0296332)
(1.05058 0.0236258 -0.0110169)
(1.048 0.00994913 0.0141215)
(1.05071 -0.00418149 0.0278691)
(1.05337 -0.0124649 0.0256699)
(1.05263 -0.0181026 0.0125152)
(1.04759 -0.0248721 -0.0023683)
(1.04536 -0.02588 -0.0136905)
(1.04499 -0.021713 -0.0180307)
(1.04536 -0.0166304 -0.0138508)
(1.04333 -0.0131694 -0.00570106)
(1.03677 -0.0152924 0.00585149)
(1.03685 -0.0209922 0.0157063)
(1.04267 -0.0259599 0.0232484)
(1.05772 -0.0234558 0.0325586)
(1.07556 -0.00952518 0.0439788)
(1.08223 0.015943 0.0594478)
(1.0841 0.0407456 0.0702978)
(1.08444 0.046995 0.0624613)
(1.09277 0.0367144 0.0385657)
(1.11306 0.020179 0.00928734)
(1.13052 0.0107463 -0.015725)
(1.13923 0.0148183 -0.0280893)
(1.13042 0.0235362 -0.0249789)
(1.10512 0.0244594 -0.0100402)
(1.04613 0.0266362 0.00921209)
(1.03366 0.0156458 -0.0191514)
(1.0312 -0.00411302 -0.059471)
(1.04088 -0.0200632 -0.0832059)
(1.05621 -0.0208898 -0.0795642)
(1.06658 -0.00516318 -0.0559323)
(1.06703 0.0230515 -0.019382)
(1.06393 0.048078 0.0219997)
(1.05831 0.0492706 0.0514478)
(1.04889 0.0174515 0.0567593)
(1.03867 -0.0238566 0.0310359)
(1.02567 -0.0411822 -0.0126226)
(1.01287 -0.0277917 -0.0454376)
(1.01134 -0.00253134 -0.0580464)
(1.02592 0.0158545 -0.0476344)
(1.04787 0.0207536 -0.0206537)
(1.05859 0.0128561 0.00610817)
(1.05145 -0.00313086 0.019905)
(1.03248 -0.0199733 0.014103)
(1.01331 -0.0298403 -0.00487866)
(1.00449 -0.0359692 -0.0211991)
(1.00438 -0.0427927 -0.0270637)
(1.00951 -0.0431874 -0.0238992)
(1.01099 -0.0347359 -0.0172124)
(1.0121 -0.0198775 -0.0144278)
(1.01938 -0.00843209 -0.0104686)
(1.02303 -0.0106498 0.00174962)
(1.01631 -0.0236503 0.0171795)
(1.00109 -0.0375738 0.035313)
(0.996225 -0.0372812 0.0528446)
(1.00141 -0.0233145 0.0652629)
(1.00883 -0.00515031 0.0709417)
(1.02104 0.00721122 0.0624267)
(1.02945 0.00883014 0.040952)
(1.03792 0.00824381 0.0168953)
(1.04794 0.00694095 -0.00528258)
(1.0566 0.00921964 -0.0226636)
(1.06818 0.0181584 -0.0260148)
(1.07039 0.0271607 -0.012293)
(1.06138 0.0301394 0.00706208)
(1.06883 0.0326183 0.0245501)
(1.06989 0.0237178 -0.0226055)
(1.07587 0.00737782 -0.0654976)
(1.07507 -0.00678476 -0.0738526)
(1.07066 -0.0100331 -0.0520082)
(1.06347 0.00220359 -0.0175592)
(1.05917 0.022861 0.0220961)
(1.06091 0.0401659 0.0583012)
(1.06228 0.0420453 0.0738598)
(1.05444 0.0212111 0.0613929)
(1.03842 -0.00540822 0.02657)
(1.03118 -0.0173069 -0.00193991)
(1.02748 -0.0135409 -0.0114411)
(1.01938 -0.011329 -0.0172658)
(1.01557 -0.0173943 -0.0204818)
(1.02726 -0.0161862 -0.0143933)
(1.04902 -0.00555592 0.0011018)
(1.05166 -0.00363408 0.018923)
(1.02853 -0.0162267 0.0223474)
(0.999008 -0.0320586 0.00939718)
(0.982353 -0.0455861 -0.00392174)
(0.982089 -0.0563079 -0.00699451)
(0.995418 -0.0562478 1.36417e-05)
(1.01338 -0.0437515 0.00734769)
(1.03515 -0.0242698 0.00990565)
(1.05535 -0.0071465 0.0192043)
(1.04498 -0.000692114 0.0344946)
(1.00018 -0.0115207 0.0430278)
(0.952176 -0.0403028 0.0399775)
(0.933125 -0.0639112 0.0292108)
(0.942103 -0.06442 0.0259887)
(0.966807 -0.0426037 0.0332245)
(0.994125 -0.0160242 0.0376374)
(1.00426 -0.00313112 0.0344129)
(1.00344 -0.00205222 0.0195346)
(1.00318 -0.00510548 -0.00721025)
(1.01326 -0.00458955 -0.0305584)
(1.03925 0.00286937 -0.0286909)
(1.06387 0.0156435 0.00237522)
(1.07013 0.0285692 0.033511)
(1.07487 0.0494401 0.0185892)
(1.11506 0.0285851 -0.0184116)
(1.14339 0.00760985 -0.0423425)
(1.12663 -0.00690825 -0.0428147)
(1.08463 -0.0151935 -0.0155051)
(1.04972 -0.0134204 0.0315993)
(1.04483 0.00367903 0.0765911)
(1.06277 0.0339962 0.0926634)
(1.07747 0.0533401 0.0816739)
(1.06409 0.0365805 0.0459363)
(1.03136 0.00193326 -0.00620978)
(1.02757 -0.0153662 -0.0333992)
(1.04691 -0.0113579 -0.0350726)
(1.05957 -0.00868161 -0.0371611)
(1.05023 -0.0183708 -0.0361159)
(1.02978 -0.0256481 -0.0180707)
(1.01668 -0.0216758 0.0152319)
(0.995772 -0.0233992 0.0352464)
(0.976362 -0.0335745 0.0212326)
(0.963745 -0.0397478 -0.00850586)
(0.953241 -0.0481416 -0.0196651)
(0.951429 -0.0626308 -0.00603709)
(0.965014 -0.0703663 0.0117133)
(0.989952 -0.0623606 0.0191068)
(1.01847 -0.0340556 0.0301116)
(1.02295 -0.00096251 0.0527504)
(0.988636 0.0144988 0.0617881)
(0.948951 0.000879518 0.0422426)
(0.922553 -0.0373336 0.00950029)
(0.91268 -0.072553 -0.0106943)
(0.918043 -0.0822422 -0.00324925)
(0.933244 -0.0620805 0.0159177)
(0.946315 -0.0299953 0.0255335)
(0.955321 -0.0105129 0.0260354)
(0.976771 -0.00439532 0.0239359)
(1.00047 -0.00575357 0.0212671)
(1.01455 -0.00427999 0.0182949)
(1.01892 0.00889992 0.0192201)
(1.02411 0.0323918 0.0304556)
(1.04253 0.0523511 0.0390087)
(1.1224 0.00647712 0.00361047)
(1.15333 -0.00146093 -0.0239534)
(1.13822 -0.000697079 -0.0275386)
(1.08402 0.00495844 -0.0183797)
(1.03939 0.0140688 0.00566334)
(1.01383 0.0270794 0.0450798)
(1.02069 0.0474207 0.0779517)
(1.0557 0.0666158 0.0805592)
(1.08057 0.056297 0.0687396)
(1.06431 0.0190983 0.0349246)
(1.02091 -0.00480882 -0.0170174)
(1.01843 -0.000179262 -0.0446559)
(1.0604 0.0169405 -0.0605484)
(1.09385 0.0246956 -0.0738717)
(1.07581 0.011812 -0.0640296)
(1.02863 -0.0083491 -0.0222662)
(1.00604 -0.0172047 0.0246711)
(1.00299 -0.0227244 0.0291232)
(1.00535 -0.0273102 0.000542745)
(0.995242 -0.0274655 -0.0215736)
(0.973622 -0.0378678 -0.0232446)
(0.96327 -0.0555843 -0.0108769)
(0.962819 -0.0611758 0.000728104)
(0.961928 -0.0503385 0.0130006)
(0.968034 -0.0226199 0.0386533)
(0.973072 0.00662935 0.0580918)
(0.972252 0.0234845 0.0437906)
(0.961758 0.0155433 0.0136009)
(0.936785 -0.023676 -0.00877368)
(0.914673 -0.0589841 -0.0141204)
(0.902244 -0.0666709 0.00186631)
(0.899777 -0.0536103 0.0179485)
(0.900017 -0.0356856 0.0149403)
(0.911017 -0.025413 0.00795388)
(0.946815 -0.0146148 0.0158502)
(0.972298 0.00245627 0.0278781)
(0.976942 0.0247548 0.0348868)
(0.980408 0.0405627 0.041994)
(1.01099 0.0372537 0.0511576)
(1.06515 0.0222574 0.0409928)
(1.01805 0.0361713 -0.0426572)
(1.02784 0.0253488 -0.0383331)
(1.01315 -0.00956353 -0.000437435)
(0.98762 -0.029831 0.0295549)
(0.987473 -0.0151699 0.0440099)
(0.9967 0.00869875 0.068327)
(1.02746 0.0340165 0.0861083)
(1.06321 0.0465615 0.0748594)
(1.06657 0.0271989 0.0491409)
(1.02296 -0.0141953 0.0186267)
(0.985489 -0.0412348 -0.0134868)
(1.02732 -0.02647 -0.0394609)
(1.07746 0.0107448 -0.0744403)
(1.07519 0.0419263 -0.0977426)
(1.03688 0.036803 -0.0657357)
(0.984157 -0.00131616 -0.00102984)
(0.959064 -0.0251955 0.0270396)
(0.9607 -0.0303386 0.00740704)
(0.975852 -0.0319438 -0.0176953)
(0.98749 -0.0255788 -0.0290223)
(0.986255 -0.0291771 -0.0151328)
(0.988836 -0.0371026 0.0151892)
(0.981341 -0.033284 0.0301194)
(0.960692 -0.0330801 0.0299812)
(0.951853 -0.0298927 0.0336596)
(0.952947 -0.00688499 0.0347357)
(0.948834 0.0258459 0.0335219)
(0.92882 0.0285634 0.0369346)
(0.907137 -0.0145658 0.0205734)
(0.901742 -0.0621876 -0.00923851)
(0.907058 -0.0860458 -0.0220206)
(0.915672 -0.074908 -0.0262397)
(0.909209 -0.0381206 -0.03596)
(0.907376 -0.00640114 -0.0297983)
(0.920586 0.00551888 0.00459112)
(0.919215 0.00127504 0.0297673)
(0.94313 -0.00238858 0.0347654)
(0.998734 -0.00348944 0.0377282)
(1.03936 0.00543174 0.0254076)
(1.02973 0.025261 -0.00972615)
(0.968041 -0.00462827 -0.0333279)
(0.98665 -0.0322045 -0.00686238)
(0.946231 -0.0422231 0.0109486)
(0.916083 -0.0140353 0.00549689)
(0.941241 0.0195826 0.0149341)
(0.988531 0.0301563 0.0449766)
(1.04117 0.0434165 0.0503524)
(1.07173 0.0568961 0.014411)
(1.05482 0.0419576 -0.0211077)
(1.00152 -0.00327852 -0.0375892)
(0.959882 -0.0320805 -0.0479101)
(0.967874 -0.011358 -0.0457857)
(0.967032 0.0231335 -0.0553248)
(0.95529 0.0365428 -0.0690344)
(0.959696 0.0132376 -0.0374283)
(0.95791 -0.01565 0.0102871)
(0.959663 -0.0155036 0.0264298)
(0.972431 -0.0213659 0.0205099)
(0.987467 -0.035035 0.00048737)
(0.992661 -0.0338973 -0.00880229)
(0.999612 -0.0393234 0.018697)
(1.00366 -0.035016 0.0432508)
(0.990275 -0.0120991 0.0402494)
(0.980208 -0.0163605 0.0337006)
(0.970391 -0.0308226 0.0244298)
(0.962985 -0.00828575 0.0189567)
(0.961274 0.0327177 0.0373527)
(0.960604 0.0312356 0.0608375)
(0.961614 -0.0258041 0.0512096)
(0.930415 -0.0795644 0.0149053)
(0.894564 -0.10318 -0.0131937)
(0.897529 -0.101185 -0.0252005)
(0.918343 -0.0730897 -0.032724)
(0.950081 -0.0416352 -0.0254019)
(0.972709 -0.0168435 -0.00355556)
(0.969544 0.00180451 -0.00100036)
(0.961974 0.00952756 -0.011418)
(0.920064 0.013751 -0.0236245)
(0.877512 0.023516 -0.0443287)
(0.910066 0.0198823 -0.0488182)
(0.95976 -0.0416401 0.00441707)
(0.922046 -0.0205465 -0.00286895)
(0.891579 0.00493539 -0.0271831)
(0.905438 0.0274402 -0.0452821)
(0.971286 0.031719 -0.0251348)
(1.02884 0.0254798 0.000289288)
(1.05871 0.0431857 -0.0163706)
(1.04192 0.0593493 -0.0489639)
(0.986304 0.0305227 -0.0475685)
(0.937479 -0.0192853 -0.0381508)
(0.926273 -0.0365342 -0.0410114)
(0.943485 -0.0118599 -0.0378754)
(0.942288 0.0192337 -0.0496094)
(0.946887 0.02153 -0.0522797)
(0.960903 -0.00814445 -0.0149562)
(0.956725 -0.0256379 0.0183725)
(0.955555 -0.0106434 0.0277694)
(0.970382 -0.00481119 0.020998)
(0.998105 -0.0210907 -0.00542752)
(1.03204 -0.0404373 -0.00423)
(1.05184 -0.0458447 0.0496919)
(1.0227 -0.021505 0.0715643)
(0.984461 -0.00240137 0.0545836)
(0.989445 -0.0207697 0.0476901)
(0.984595 -0.026493 0.0245323)
(0.963429 0.00810073 0.00491423)
(0.957164 0.0433748 0.0273107)
(0.982581 0.0326065 0.059987)
(1.022 -0.00865891 0.0568879)
(1.00526 -0.0433529 0.0215124)
(0.971422 -0.0795934 -0.00142432)
(0.974056 -0.111045 -0.0107638)
(0.969126 -0.0952804 -0.0295804)
(0.952784 -0.0370508 -0.0373401)
(0.945164 0.0157652 -0.0203795)
(0.932986 0.0186285 -0.0120425)
(0.913618 4.10851e-05 -0.0255753)
(0.889127 0.00676366 -0.0490757)
(0.90132 0.00362971 -0.0514439)
(0.954528 -0.0289703 -0.0177415)
(0.917389 -0.0127326 -0.0161512)
(0.891637 -0.000144739 -0.0101981)
(0.91332 0.00180193 -0.0238828)
(0.973821 0.00651632 -0.0374103)
(1.02054 0.00566151 -0.0169126)
(1.01377 0.00665348 -0.00687965)
(1.00264 0.0312159 -0.038743)
(0.983905 0.0504909 -0.0645585)
(0.943379 0.023225 -0.0447204)
(0.90802 -0.0245126 -0.0270612)
(0.908645 -0.038806 -0.0438012)
(0.924581 -0.0128723 -0.0670082)
(0.937656 0.0160924 -0.0718737)
(0.969809 0.0125582 -0.0287629)
(0.967174 -0.0175794 0.0279219)
(0.929494 -0.0154477 0.0248972)
(0.923797 0.00816533 -0.0035959)
(0.954188 -0.0113712 0.00276059)
(0.997611 -0.0506502 0.0304832)
(1.02024 -0.0629386 0.0671202)
(1.01474 -0.035311 0.0870044)
(0.996497 0.0101038 0.051498)
(0.983947 0.0192137 0.0222463)
(0.963789 -0.00471676 0.0232304)
(0.928048 -0.00478248 0.00374376)
(0.913037 0.0253549 -0.0125923)
(0.926172 0.045882 0.004429)
(0.970252 0.0237273 0.0338741)
(1.00955 -0.0169441 0.0357358)
(1.00382 -0.0476485 0.00993039)
(0.970734 -0.0773575 -0.00796916)
(0.94738 -0.0860156 -0.0325375)
(0.932544 -0.0549976 -0.0648678)
(0.941256 -0.0161688 -0.0537004)
(0.96358 0.0102043 -0.0150523)
(0.94079 0.00827248 -0.014201)
(0.889382 -0.00590945 -0.0500146)
(0.875593 -0.00787032 -0.0796115)
(0.920649 -0.0195352 -0.0691205)
(0.952401 -0.0283716 -0.0354309)
(0.890657 -0.00338469 -0.0245739)
(0.911237 0.00382668 0.0174664)
(0.943979 -0.00050485 0.00216253)
(1.00421 -0.00553903 -0.0349649)
(1.0356 0.00169595 -0.0156917)
(0.993271 0.014148 0.00223424)
(0.964576 0.0313358 -0.0342023)
(0.975483 0.0395654 -0.0572932)
(0.974297 0.0138441 -0.027254)
(0.948847 -0.0201804 -0.00866623)
(0.935607 -0.0305115 -0.0464835)
(0.935284 -0.0173807 -0.0887442)
(0.96529 0.00407919 -0.0678844)
(1.00274 0.00616694 0.00611062)
(0.962476 -0.00724058 0.0411911)
(0.926273 0.00685495 0.0091843)
(0.946439 0.0117486 -0.00516468)
(0.96191 -0.0354731 0.0308813)
(0.967935 -0.0730391 0.0662189)
(0.96046 -0.0646014 0.0884594)
(0.958336 -0.0194248 0.0822429)
(0.986891 0.0281717 0.0335865)
(0.994341 0.0344285 0.00795288)
(0.946304 0.0130574 0.0134496)
(0.903212 0.00832626 0.00939526)
(0.89034 0.0327367 0.0038549)
(0.923291 0.0496434 -0.000217032)
(0.986407 0.0211703 0.00406215)
(1.00577 -0.0198155 9.93379e-05)
(0.984684 -0.0414509 -0.0169477)
(0.922906 -0.0668489 -0.0276274)
(0.879341 -0.0863482 -0.0457061)
(0.907121 -0.0705554 -0.051206)
(0.955496 -0.030772 -0.0265384)
(0.960168 0.00903182 -0.0199283)
(0.917952 0.0134915 -0.0436783)
(0.890326 -0.0045672 -0.0565673)
(0.892006 -0.0154281 -0.0630997)
(0.894747 -0.0259849 -0.0683266)
(0.89094 -0.0211033 -0.0596547)
(0.906631 -0.000151915 -0.0363734)
(0.930171 0.00309386 -0.00590861)
(0.950838 -0.00222557 -0.0214229)
(0.98771 -0.00772001 -0.0522524)
(0.980776 0.00146043 -0.0350254)
(0.926335 0.00912532 -0.0175231)
(0.939605 0.0121444 -0.0256842)
(1.00208 0.0139249 -0.0155327)
(0.990948 0.0030876 0.00723153)
(0.932185 -0.00569017 -0.0155309)
(0.915887 -0.01105 -0.0708426)
(0.952483 -0.0120487 -0.0783355)
(1.00671 0.00978796 -0.0234077)
(0.9842 0.0279714 0.0277216)
(0.915574 0.00724972 0.0327072)
(0.937723 -0.00221505 0.0173427)
(0.976013 -0.00550025 0.0306538)
(0.962925 -0.0474425 0.06456)
(0.958618 -0.0726794 0.0792736)
(0.945997 -0.0539758 0.0793089)
(0.948542 -0.0162598 0.0512059)
(0.990995 0.0202542 -0.000222926)
(0.995288 0.0334009 -0.0108745)
(0.939538 0.0198044 0.00479503)
(0.896114 0.0180602 0.0027173)
(0.883663 0.0428456 -0.0099235)
(0.933603 0.0433953 -0.0277273)
(0.994075 -0.00265056 -0.0282006)
(0.995412 -0.0346393 -0.031731)
(0.995623 -0.0384062 -0.0398673)
(0.967527 -0.0602653 -0.0321074)
(0.908777 -0.0838928 -0.0273684)
(0.870289 -0.0667047 -0.0172026)
(0.858015 -0.0218697 -0.00910556)
(0.869406 0.0109421 -0.0307602)
(0.868268 0.00385345 -0.0583529)
(0.874467 -0.00546091 -0.0544733)
(0.907219 -0.00175907 -0.0409184)
(0.90952 -0.00928269 -0.0430076)
(0.892605 -0.00975094 -0.0517514)
(0.926369 0.00787178 -0.0481034)
(0.92582 0.00913175 -0.00494798)
(0.90118 -0.0035024 -0.0129897)
(0.921042 -0.0071343 -0.0457653)
(0.928244 0.00590738 -0.025327)
(0.910334 0.0011721 0.00921827)
(0.934393 -0.0148445 0.0196467)
(0.973326 -0.00932224 0.0248695)
(0.953377 0.0115984 0.019155)
(0.909409 0.0246159 -0.0284427)
(0.893434 0.00432715 -0.0753197)
(0.939898 -0.0163554 -0.050603)
(0.991447 0.0207868 0.00414287)
(0.945707 0.056229 0.0138928)
(0.909801 0.0177376 0.0231874)
(0.970517 -0.00651515 0.0489659)
(0.984052 -0.0136314 0.0661269)
(0.935705 -0.0628275 0.0754436)
(0.923461 -0.0807269 0.0634901)
(0.914263 -0.0486516 0.0451258)
(0.935362 -0.0200677 0.0198859)
(0.997633 0.00525568 -0.019069)
(0.996315 0.0279124 -0.0214018)
(0.931379 0.0249457 -0.0043543)
(0.896107 0.0303319 -0.00995478)
(0.897845 0.0490339 -0.0232205)
(0.961454 0.0251571 -0.0384686)
(1.00756 -0.0324001 -0.0489616)
(0.979982 -0.0575315 -0.0625534)
(0.983535 -0.0443735 -0.0450221)
(0.977413 -0.0429316 -0.0285304)
(0.914271 -0.0583666 -0.0459842)
(0.855054 -0.0594958 -0.0313573)
(0.82624 -0.0347344 -0.0202301)
(0.837535 -0.0048234 -0.0524552)
(0.849662 0.00444588 -0.0663732)
(0.874678 0.00762284 -0.039097)
(0.921924 0.0100898 -0.0218962)
(0.91471 -0.000701242 -0.0317366)
(0.897561 -0.00264434 -0.0575937)
(0.960588 0.0152544 -0.0374179)
(0.922807 0.0250051 0.00626744)
(0.857229 0.0131186 0.019242)
(0.87299 0.00597613 -0.00327168)
(0.910789 0.0100678 0.0179843)
(0.94513 -0.00365292 0.061355)
(0.963717 -0.0206292 0.0645412)
(0.957035 -0.011386 0.0352795)
(0.92348 0.0180982 0.0112367)
(0.890088 0.031235 -0.0217091)
(0.878148 0.00155492 -0.055337)
(0.918145 -0.0153453 -0.0303635)
(0.950134 0.0384001 0.00877131)
(0.91539 0.070668 0.00372557)
(0.938294 0.0140404 0.0211173)
(1.01774 -0.0108088 0.0536218)
(1.02461 -0.0140941 0.0721955)
(0.954977 -0.0656737 0.0773789)
(0.901408 -0.077261 0.0456915)
(0.891944 -0.0388767 0.0194701)
(0.93858 -0.0220234 0.0078719)
(0.996849 0.000722842 -0.0179656)
(0.973773 0.0377997 -0.0196192)
(0.909061 0.0374788 -0.0100102)
(0.897706 0.0338001 -0.0156562)
(0.91257 0.0402694 -0.0190247)
(0.967203 0.00831629 -0.0338516)
(1.01092 -0.0421111 -0.0676556)
(1.00112 -0.0596806 -0.0794708)
(1.00423 -0.0414072 -0.033319)
(0.975167 -0.0256846 -0.0364238)
(0.914392 -0.0404883 -0.0837693)
(0.875116 -0.0612178 -0.0359428)
(0.855809 -0.0380224 0.00165908)
(0.85744 0.00825056 -0.0477724)
(0.855424 0.0258695 -0.0591967)
(0.889222 0.0235403 -0.0135615)
(0.940772 0.0224845 0.00088929)
(0.916205 0.00769317 -0.0138631)
(0.914527 -0.000554158 -0.037472)
(0.975691 0.026546 -0.00907209)
(0.878982 0.0402223 0.0232036)
(0.768956 0.0190271 0.0401622)
(0.772749 0.001221 0.0337185)
(0.864744 -0.0152382 0.052394)
(0.970033 -0.0331547 0.0878499)
(0.991352 -0.0362824 0.073805)
(0.956405 -0.014901 0.0167427)
(0.928831 0.0200677 -0.00854246)
(0.905091 0.0273833 -0.00874572)
(0.878326 -0.00446509 -0.0197256)
(0.88352 -0.0048605 0.00238584)
(0.889118 0.061694 0.0280748)
(0.913265 0.078255 0.019286)
(0.984677 0.00792619 0.0349736)
(1.04281 -0.0129837 0.0476924)
(1.05509 -0.0153805 0.0745613)
(0.97863 -0.0635469 0.0856196)
(0.903033 -0.0670835 0.027019)
(0.909088 -0.0286728 0.00269078)
(0.954036 -0.0216402 0.00384257)
(0.977701 0.00469773 -0.0229021)
(0.936713 0.0520659 -0.0271361)
(0.884605 0.0422125 -0.015527)
(0.905128 0.02746 -0.0165337)
(0.932912 0.0313319 -0.0184392)
(0.971331 -0.00203005 -0.0343453)
(1.01071 -0.053312 -0.0787487)
(1.01909 -0.0696566 -0.0727421)
(1.0095 -0.0460083 -0.00832515)
(0.976192 -0.0107306 -0.0474026)
(0.955292 -0.0204258 -0.114949)
(0.907998 -0.0672273 -0.0305588)
(0.868676 -0.0512689 0.0445286)
(0.886318 0.0192173 -0.0140285)
(0.888194 0.0467171 -0.0353108)
(0.919634 0.0318494 0.00543198)
(0.947945 0.0285486 0.00638652)
(0.913707 0.0127698 -0.00869116)
(0.93826 -3.4076e-05 -0.0132947)
(0.956092 0.0358431 0.0116)
(0.837662 0.0592446 0.0257884)
(0.751059 0.0329259 0.0228188)
(0.769588 -0.0138552 0.00730002)
(0.855563 -0.0587875 0.023756)
(0.95341 -0.0688361 0.060648)
(0.963795 -0.0466683 0.0411152)
(0.921378 -0.0121627 -0.0179311)
(0.929018 0.0262814 -0.0323402)
(0.926043 0.027254 -0.00758272)
(0.878881 -0.00624655 0.00519542)
(0.841463 0.0080732 0.0313958)
(0.831363 0.075612 0.0474843)
(0.932103 0.0702703 0.0367283)
(1.02091 0.00466081 0.0602221)
(1.05102 -0.0111776 0.0579597)
(1.0622 -0.0211209 0.0804831)
(0.970304 -0.0574749 0.0946616)
(0.895718 -0.0511906 0.018178)
(0.932934 -0.0192376 -0.00666686)
(0.960102 -0.0190848 -0.00518639)
(0.946664 0.0135946 -0.0398074)
(0.901776 0.0669042 -0.0379675)
(0.877091 0.0468846 -0.00518758)
(0.925953 0.0163539 -0.00865554)
(0.947352 0.0206051 -0.0349386)
(0.980272 0.00452533 -0.0510812)
(1.03912 -0.0422051 -0.0733927)
(1.03223 -0.0661873 -0.04799)
(0.975487 -0.0398985 -0.00070767)
(0.945961 0.00224111 -0.0663748)
(0.968122 -0.0146027 -0.11852)
(0.912338 -0.0724117 -0.0285309)
(0.844388 -0.0507783 0.047333)
(0.869135 0.03462 0.00926635)
(0.898642 0.0608001 0.000684785)
(0.934381 0.0385944 0.0248096)
(0.94037 0.0386949 0.00961845)
(0.934604 0.0180179 -0.0112632)
(0.971396 -0.000717478 -0.00401168)
(0.944348 0.0429069 0.0186882)
(0.840365 0.069691 0.0309311)
(0.807123 0.0375761 0.0155319)
(0.84631 -0.0229648 -0.00740749)
(0.867998 -0.0726817 0.0167188)
(0.891065 -0.0755722 0.045683)
(0.881855 -0.0444359 0.00658978)
(0.860872 -0.00665206 -0.052831)
(0.912795 0.031032 -0.0476099)
(0.922819 0.0266174 -0.00642548)
(0.865949 -0.00736853 0.0101766)
(0.810095 0.0168361 0.042276)
(0.814578 0.0751032 0.0564456)
(0.976387 0.0547974 0.0578843)
(1.04506 0.005977 0.0901027)
(1.03067 -0.00449799 0.061219)
(1.0228 -0.0201549 0.070939)
(0.938615 -0.0436406 0.0986075)
(0.890569 -0.0378748 0.0193496)
(0.957414 -0.0143522 -0.00818424)
(0.967204 -0.0117071 -0.00918614)
(0.908036 0.0254714 -0.0610318)
(0.869799 0.0763891 -0.0452328)
(0.913172 0.0434115 0.0254863)
(0.971068 0.00126693 0.0111651)
(0.960706 0.0161319 -0.0424046)
(1.00515 0.0146312 -0.0529968)
(1.07086 -0.035605 -0.0573362)
(1.01657 -0.061784 -0.0398642)
(0.933913 -0.0234483 -0.00835389)
(0.924064 0.0213203 -0.0620186)
(0.939697 -0.0193386 -0.0883961)
(0.875641 -0.0850703 -0.0126717)
(0.825841 -0.046862 0.03911)
(0.844378 0.0460787 0.0183732)
(0.890218 0.0618916 0.0250769)
(0.930119 0.0411947 0.0481995)
(0.946886 0.0445533 0.0328711)
(0.977151 0.0188205 0.000382514)
(0.998489 0.00136539 -0.00084319)
(0.923241 0.045992 0.0181936)
(0.862405 0.0719677 0.0339925)
(0.875344 0.0354955 0.0144828)
(0.894455 -0.0259383 0.00818168)
(0.851836 -0.0691604 0.0444778)
(0.796629 -0.0731358 0.0309482)
(0.769116 -0.0473048 -0.0420331)
(0.789163 -0.00788689 -0.0871902)
(0.872999 0.0316672 -0.048843)
(0.879727 0.0227655 -0.00249872)
(0.836107 -0.00892133 -0.00138628)
(0.810688 0.0207759 0.0286809)
(0.86492 0.0657641 0.0614344)
(1.01775 0.0432143 0.0981186)
(1.02092 0.0181314 0.10444)
(0.974487 0.0108335 0.0316107)
(0.954714 -0.0187871 0.0485806)
(0.900857 -0.0377675 0.0939254)
(0.891134 -0.0288507 0.0230717)
(0.957526 -0.008567 0.00010245)
(0.951817 0.00194764 -0.00407046)
(0.871459 0.0451817 -0.065835)
(0.887352 0.0829266 -0.0240479)
(1.00214 0.0324131 0.063835)
(1.03652 -0.00997162 0.0341017)
(1.00082 0.0162384 -0.0321069)
(1.05098 0.0253401 -0.0497673)
(1.08047 -0.0219102 -0.0477876)
(0.959303 -0.0489057 -0.0284198)
(0.883247 -0.000708563 -0.0144661)
(0.928538 0.0415513 -0.0534668)
(0.933725 -0.0210324 -0.0434689)
(0.811363 -0.0901674 0.0117236)
(0.756927 -0.0373504 0.0386146)
(0.804362 0.0523255 0.0313741)
(0.879462 0.0537098 0.0440245)
(0.915527 0.0368489 0.0646981)
(0.96191 0.0416807 0.0499423)
(1.01358 0.0173788 0.0139003)
(0.995385 0.00465952 0.00178623)
(0.865378 0.0443731 0.0128445)
(0.8799 0.0689483 0.0347444)
(0.933093 0.0366384 0.0126236)
(0.922614 -0.0205539 0.0170828)
(0.853886 -0.0569281 0.058316)
(0.763333 -0.0705914 0.0171199)
(0.711241 -0.0568202 -0.0706825)
(0.737021 -0.0117415 -0.090455)
(0.80998 0.0293018 -0.0341378)
(0.82138 0.0146611 -0.00882918)
(0.822633 -0.0104141 -0.016617)
(0.836122 0.0229527 0.0312909)
(0.911171 0.0596661 0.096086)
(1.00968 0.0458486 0.130184)
(0.992502 0.0342602 0.0886753)
(0.957484 0.0220319 0.0046467)
(0.915835 -0.0214377 0.0409584)
(0.868352 -0.0422813 0.077877)
(0.887429 -0.0240924 0.0130883)
(0.941118 0.00262651 -0.0158134)
(0.902629 0.0225447 -0.0327513)
(0.849024 0.0627205 -0.0536536)
(0.955004 0.0750592 0.0290117)
(1.07833 0.0143643 0.0832095)
(1.0518 -0.0168565 0.0289521)
(1.00227 0.0219685 -0.041055)
(1.08659 0.0394607 -0.0598598)
(1.08793 -0.00703904 -0.0455912)
(0.922576 -0.0369644 -0.0233766)
(0.864953 0.0169747 -0.0191337)
(0.93945 0.056157 -0.0407295)
(0.967204 -0.0170643 -0.00138028)
(0.814226 -0.0823214 0.0244012)
(0.720344 -0.0272071 0.0320973)
(0.809934 0.0456336 0.0393168)
(0.90092 0.0371896 0.0465178)
(0.901571 0.0255655 0.052052)
(0.954435 0.034052 0.0367362)
(1.03259 0.0177179 0.0147437)
(0.966948 0.00926431 -0.000200775)
(0.807886 0.0387632 0.000869314)
(0.890873 0.060139 0.0393992)
(0.949372 0.0389326 0.0175377)
(0.950503 -0.0164568 0.019547)
(0.892401 -0.0517463 0.066404)
(0.792772 -0.068314 0.0251592)
(0.716472 -0.0578242 -0.0593128)
(0.712496 -0.00881413 -0.0673118)
(0.76455 0.025352 -0.0234217)
(0.813695 0.00673244 -0.0183076)
(0.82885 -0.00591543 -0.00552967)
(0.833454 0.0330875 0.0632796)
(0.914914 0.0658358 0.13092)
(0.973546 0.0523976 0.14029)
(0.97865 0.0390298 0.0749677)
(0.975995 0.0263626 0.00134923)
(0.896173 -0.0219014 0.0409107)
(0.821417 -0.0419396 0.0305539)
(0.851728 -0.0119549 -0.0436517)
(0.901729 0.0204837 -0.0598012)
(0.870146 0.035879 -0.048364)
(0.860957 0.0577596 -0.0142232)
(0.993554 0.0513067 0.0562281)
(1.08897 0.0024475 0.0522605)
(0.998272 -0.0135307 -0.0120479)
(0.970155 0.0270058 -0.0730102)
(1.11908 0.0448427 -0.0832834)
(1.09452 0.00305575 -0.052163)
(0.906829 -0.024157 -0.0164812)
(0.849321 0.0337772 -0.0232277)
(0.931231 0.0673909 -0.0345743)
(1.0164 -0.0143418 0.0320521)
(0.856347 -0.0715979 0.0515022)
(0.746205 -0.0224793 0.0232459)
(0.859828 0.0281214 0.0271876)
(0.923359 0.0214437 0.0295586)
(0.865362 0.0194284 0.013205)
(0.922651 0.0276326 0.000759276)
(1.02697 0.0188724 0.00704475)
(0.910661 0.0176949 -0.00971838)
(0.804749 0.0275317 -0.0045571)
(0.880842 0.05139 0.0557029)
(0.955725 0.0419794 0.0316577)
(1.01482 -0.017626 0.0226337)
(0.912817 -0.0508087 0.0600476)
(0.771981 -0.0599631 0.0101265)
(0.695365 -0.0470267 -0.0585413)
(0.690695 -0.00269651 -0.0389945)
(0.755933 0.0176141 0.00243072)
(0.828406 0.00647715 -0.00560925)
(0.815517 0.0109063 0.0160437)
(0.813242 0.0452691 0.0955396)
(0.895509 0.0701216 0.138917)
(0.926294 0.0532334 0.136049)
(0.979426 0.0369139 0.0655293)
(1.00098 0.0283783 -0.00153079)
(0.868596 -0.0152082 0.036016)
(0.758146 -0.0321765 -0.0275172)
(0.781778 0.00239342 -0.115528)
(0.860685 0.0305767 -0.0882147)
(0.867542 0.0361077 -0.0362237)
(0.855418 0.0469472 0.00594947)
(1.002 0.0365479 0.0434239)
(1.08966 0.000575335 0.0152705)
(0.943102 -0.00780561 -0.05493)
(0.947006 0.0246762 -0.0994706)
(1.13207 0.041656 -0.100218)
(1.10924 0.00991379 -0.0610497)
(0.923283 -0.00768056 -0.00444223)
(0.813024 0.0529271 -0.0114171)
(0.942843 0.0715784 -0.0293177)
(1.06545 -0.0131488 0.0338945)
(0.872801 -0.0566097 0.0693874)
(0.766466 -0.0203121 0.0203978)
(0.856607 0.015657 -0.000727534)
(0.892673 0.0178638 -0.00428339)
(0.827976 0.021113 -0.0374666)
(0.888746 0.0232605 -0.0433974)
(0.981743 0.0234361 -0.00946925)
(0.867788 0.0253933 -0.0263008)
(0.823628 0.0185821 0.00670532)
(0.831121 0.0476598 0.080271)
(0.993536 0.0379868 0.044838)