/*--------------------------------*- C++ -*----------------------------------*\
  =========                 |
  \\      /  F ield         | OpenFOAM: The Open Source CFD Toolbox
   \\    /   O peration     | Website:  https://openfoam.org
    \\  /    A nd           | Version:  10
     \\/     M anipulation  |
\*---------------------------------------------------------------------------*/
FoamFile
{
    format      ascii;
    class       volTensorField;
    location    "16";
    object      gradientUWrite;
}
// * * * * * * * * * * * * * * * * * * * * * * * * * * * * * * * * * * * * * //

dimensions      [0 0 -1 0 0 0 0];

internalField   nonuniform List<tensor> 
25600
(
(0.033925 0.164815 0.0405969 -0.0346292 0.149751 -0.210113 -0.112008 0.222574 -0.170859)
(0.000497152 0.11462 -0.017661 0.158665 -0.0446743 -0.280751 0.241727 0.18776 0.00433746)
(-0.0129192 0.0119547 -0.0655431 0.208123 -0.163507 -0.23996 0.557385 0.0586517 0.172369)
(0.0234919 -0.0691029 -0.095337 0.179349 -0.162378 -0.121084 0.526402 -0.116597 0.184677)
(0.101475 -0.124282 -0.0541481 0.210258 -0.12099 0.061056 0.245001 -0.209363 0.00916825)
(0.201156 -0.165163 0.0133125 0.336361 0.0820815 0.166263 -0.0418778 -0.18223 -0.253057)
(0.160932 -0.181628 0.0521046 0.41869 0.203458 0.138638 -0.13758 -0.0379702 -0.39946)
(-0.000629368 -0.107106 0.0789019 0.458627 0.246376 0.00837471 -0.0742849 0.043927 -0.302228)
(-0.151052 -0.025766 0.0663576 0.345507 0.197288 -0.193705 -0.0914059 -0.0604251 -0.0665463)
(-0.183776 0.031735 0.0292563 0.139089 0.0414783 -0.347871 -0.24055 -0.273506 0.104535)
(-0.0830425 0.119076 -0.00734331 0.0346233 -0.0511749 -0.340325 -0.390034 -0.403045 0.0980416)
(0.0993411 0.166302 -0.0321304 -0.0946244 -0.0648062 -0.17472 -0.403973 -0.328368 -0.06327)
(0.229252 0.176917 -0.0453623 -0.174986 0.086887 0.0509872 -0.236267 -0.162758 -0.282387)
(0.173673 0.12335 -0.0509178 -0.127403 0.211798 0.219329 -0.025965 -0.00847766 -0.392103)
(0.0741968 0.000716781 -0.0271481 0.0126254 0.201406 0.267749 0.100027 0.089347 -0.289283)
(-0.0491398 -0.0985011 0.0188509 0.240578 0.0758106 0.234442 0.0374771 0.0900452 -0.0416423)
(-0.188003 -0.137504 0.0839274 0.380547 -0.128134 0.204573 -0.235189 -9.60469e-05 0.247499)
(-0.19772 -0.13749 0.11318 0.387924 -0.166101 0.259254 -0.485296 -0.139127 0.35018)
(-0.169241 -0.149923 0.0532829 0.302431 -0.113932 0.339005 -0.594079 -0.268345 0.278068)
(-0.108814 -0.16218 -0.0394907 0.249553 -0.00808795 0.335006 -0.566706 -0.347347 0.122892)
(-0.0215915 -0.163393 -0.10739 0.316051 0.105462 0.186011 -0.477243 -0.336731 -0.0606121)
(-0.0265196 -0.153262 -0.0867648 0.372611 0.084688 -0.0672112 -0.499355 -0.233798 -0.0621576)
(-0.0242271 -0.0759671 -0.000459781 0.281058 -0.033317 -0.25682 -0.527419 -0.0671698 0.0470028)
(0.0260912 0.104874 0.0289844 0.152532 -0.173225 -0.286508 -0.471854 0.0644358 0.171702)
(0.0397885 0.289395 -0.00281063 0.0420505 -0.278852 -0.214156 -0.304117 0.091196 0.26438)
(0.0404775 0.356973 -0.0470101 -0.0230307 -0.276117 -0.150082 -0.00946708 0.0319976 0.212634)
(0.0651039 0.311995 -0.0543736 0.0482475 -0.162091 -0.141194 0.189332 -0.0673657 0.0976201)
(0.0522221 0.187749 -0.0222442 0.0849568 -0.0550132 -0.156014 0.249796 -0.129259 0.00140346)
(0.018161 0.0190739 -0.00937835 0.017266 -0.0604264 -0.125576 0.173542 -0.142813 -0.00878312)
(0.0193851 -0.0716826 -0.00557501 -0.0492582 -0.133293 -0.0234806 -0.00846766 -0.133213 0.109774)
(-0.0210589 -0.0706282 0.00528024 -0.146394 -0.218978 0.0870654 -0.141798 -0.124154 0.213112)
(0.00186239 -0.0554092 0.0566416 -0.195882 -0.257661 0.150783 -0.262347 -0.12744 0.205137)
(0.0824511 -0.00146145 0.117923 -0.0705344 -0.136967 0.131898 -0.35983 -0.113047 0.102858)
(0.0253068 -0.0288858 0.11777 0.0984653 -0.0589277 0.0519523 -0.350211 -0.0630965 -0.0231188)
(-0.013891 -0.080532 0.0738786 0.24567 0.00702505 -0.0259896 -0.230196 -0.0451793 -0.050032)
(-0.0299388 -0.0821185 -0.0198464 0.24157 0.107472 -0.0348707 -0.0541695 -0.0979176 -0.00694543)
(-0.106135 -0.139222 -0.0823481 -0.0423743 0.0463995 0.0561333 0.0789239 -0.114011 0.0152488)
(-0.0687659 -0.0801697 -0.071308 -0.325341 0.110382 0.128702 0.0709428 -0.0431839 -0.0262806)
(-0.0141247 0.0563637 -0.0370459 -0.414607 0.193993 0.0864385 -0.138148 0.0898442 -0.148137)
(0.00179865 0.125468 0.0313879 -0.299718 0.164273 -0.0459663 -0.260211 0.201971 -0.229278)
(0.175634 0.029637 -0.18322 -0.107977 -0.100253 -0.269902 -0.263039 0.151334 -0.0023592)
(0.000832073 -0.0337887 -0.128494 -0.109672 -0.157524 -0.180777 0.0741257 -0.10938 0.179193)
(-0.0673245 0.0158727 -0.0158807 0.0327039 -0.0709917 -0.0191407 0.148007 -0.219731 0.193831)
(0.0497035 0.0170205 0.108633 0.229127 0.00126532 0.124842 -0.0718994 -0.215747 0.00532655)
(0.261703 0.0494306 0.164199 0.367074 0.0458267 0.215405 -0.201305 -0.101406 -0.265125)
(0.376895 0.057038 0.0921369 0.266502 0.0962409 0.155305 -0.0569972 -0.0135428 -0.414025)
(0.235695 -0.0013296 -0.0501954 -0.0549305 0.0770097 0.0714305 0.348632 0.0191994 -0.308238)
(-0.048102 -0.00816839 -0.160048 -0.318912 0.146445 -0.003064 0.685285 0.121742 -0.0933388)
(-0.310564 -0.0825409 -0.153776 -0.41969 0.147707 -0.0627144 0.473551 0.20425 0.111402)
(-0.341838 -0.144695 -0.000301743 -0.347361 0.157272 -0.0529163 -0.335624 0.153706 0.191702)
(-0.250285 -0.105678 0.202495 -0.205983 0.143327 0.0254471 -1.21965 -0.0349321 0.155532)
(-0.135339 0.00919414 0.281899 -0.100177 0.036133 0.142055 -1.46534 -0.235716 0.117879)
(0.0551732 0.151826 0.184054 -0.057974 -0.00186082 0.237749 -0.964523 -0.272858 0.004979)
(0.213342 0.151331 0.0167602 -0.148507 -0.16744 0.27086 -0.113544 -0.149745 -0.0700139)
(0.368806 0.0343507 -0.088635 -0.23459 -0.251642 0.249012 0.597891 0.044161 -0.117307)
(0.325534 -0.12332 -0.0736483 -0.325097 -0.169252 0.174062 0.79275 0.218079 -0.128841)
(0.0247439 -0.165543 0.0417318 -0.428113 -0.0812914 0.0163524 0.493982 0.298327 0.0245637)
(-0.230645 -0.103519 0.131918 -0.485744 0.00561788 -0.163926 -0.152891 0.305377 0.172568)
(-0.285149 -0.086065 0.0716308 -0.624998 -0.0546737 -0.298086 -0.662125 0.29394 0.260457)
(-0.0626126 -0.0431186 -0.108436 -0.617099 -0.0805931 -0.323947 -0.677377 0.286838 0.152546)
(0.158485 -0.0698527 -0.278108 -0.45485 0.0356894 -0.269232 -0.514823 0.25721 -0.126837)
(0.0634861 -0.154919 -0.283681 -0.34462 0.19846 -0.245926 -0.442316 0.161733 -0.265266)
(-0.128226 -0.138951 -0.0978033 -0.261736 0.364196 -0.26253 -0.547753 0.0498115 -0.249983)
(-0.212308 -0.0364145 0.0796493 -0.306717 0.375436 -0.31914 -0.61746 -0.0302979 -0.144889)
(-0.202161 0.136556 0.0874808 -0.443899 0.181618 -0.320861 -0.467981 -0.0228726 -0.00323961)
(-0.0577439 0.327734 -0.00950982 -0.475983 0.00346822 -0.223691 -0.222165 0.0616462 0.0371505)
(0.0773768 0.403039 -0.0765883 -0.431111 -0.084016 -0.0922986 0.0442199 0.178349 0.0458506)
(0.0554789 0.289351 -0.0325954 -0.413837 -0.130211 0.0527975 0.162433 0.268744 0.0777298)
(0.00488394 0.0249481 0.0842614 -0.331345 -0.196723 0.140623 0.113894 0.229393 0.166031)
(-0.0224719 -0.205639 0.139792 -0.1989 -0.289168 0.138762 -0.0305981 0.111358 0.338692)
(-0.0743737 -0.276989 0.100969 -0.049473 -0.346918 0.086695 -0.220929 -0.00409798 0.391229)
(0.0143319 -0.173136 0.0420858 0.0267569 -0.355307 -0.0128105 -0.155389 0.0452362 0.301954)
(0.195803 -0.00592623 0.00625266 -0.0568713 -0.271481 -0.105045 0.142168 0.260198 0.127611)
(0.205732 0.034987 0.00604236 -0.143846 -0.226051 -0.124926 0.433404 0.407683 -0.0649667)
(0.110306 0.0451769 0.0284211 -0.0847333 -0.0816161 -0.0803138 0.40888 0.419454 -0.065638)
(-0.120373 -0.0246139 0.0553657 0.163405 0.135584 0.0561908 -0.209847 0.221917 0.000338248)
(-0.356313 -0.0763414 0.0649192 0.36966 0.189438 0.227879 -0.936522 0.0433914 0.0499304)
(-0.242484 0.062573 0.00786258 0.392661 0.239778 0.244589 -1.30224 0.138299 0.00283247)
(0.00578426 0.11838 -0.0922069 0.230855 0.120401 0.090459 -1.19517 0.292349 -0.161165)
(0.168582 0.102103 -0.165432 0.0106655 -0.0503749 -0.129251 -0.724417 0.340172 -0.168346)
(-0.052878 0.0637503 -0.0224499 -0.2381 -0.195273 -0.178724 0.550456 0.0837345 0.246751)
(0.117075 0.125361 0.180001 -0.179972 -0.261428 0.0688435 0.313721 -0.187693 0.108731)
(0.26281 0.143861 0.192166 -0.080317 -0.187716 0.15467 0.226045 -0.346635 -0.0556675)
(0.302886 0.0355098 0.117527 -0.0976386 -0.182999 0.0334765 0.22289 -0.330952 -0.109678)
(0.147014 -0.0297978 -0.00904903 -0.0460132 -0.111072 -0.128902 0.218182 -0.228283 -0.0110042)
(-0.132469 -0.119117 -0.098793 -0.0424658 -0.0797409 -0.166415 0.287409 -0.191063 0.170544)
(-0.317255 -0.123636 -0.0884026 -0.139703 -0.0130337 0.0140189 0.464021 -0.060183 0.293444)
(-0.307134 -0.0395366 -0.0539667 -0.437674 -0.0090558 0.190931 0.655162 0.220616 0.262575)
(-0.18913 -0.0219606 0.00503299 -0.719331 -0.15149 0.265214 0.713689 0.376571 0.224866)
(-0.0211077 0.0120577 0.0996052 -0.774153 -0.174933 0.27056 0.526768 0.215733 0.180211)
(0.106524 -0.00172634 0.173269 -0.686291 -0.215214 0.18216 0.27338 -0.102577 0.0672631)
(0.200612 0.0317294 0.172317 -0.402714 -0.148302 0.0219447 0.144375 -0.264558 -0.0301094)
(0.173378 0.00598397 0.0822156 -0.24115 0.0181044 -0.159643 0.0838867 -0.105542 -0.0759952)
(0.0309641 -0.0810367 -0.0354302 -0.345847 -0.0144368 -0.313908 0.244561 0.147867 0.00568201)
(-0.045301 0.00227555 -0.112934 -0.65187 -0.0150837 -0.432426 0.433092 0.248131 0.0791219)
(-0.175383 0.0403684 -0.182311 -1.14539 0.00115205 -0.471161 0.506073 0.204601 0.130092)
(-0.301739 0.00481642 -0.199918 -1.32759 0.00585645 -0.445336 0.618019 0.226628 0.223133)
(-0.363825 -0.112349 -0.145612 -1.01124 0.00831066 -0.456446 0.516721 0.378085 0.295358)
(-0.288606 -0.215536 -0.0776175 -0.588157 -0.0459299 -0.518698 0.433016 0.280373 0.295124)
(0.0363489 -0.0764883 -0.0218584 -0.382526 -0.0593191 -0.528975 0.436333 -0.128562 0.0478659)
(0.220525 0.0762974 -0.0582829 -0.572613 -0.010269 -0.395049 0.37986 -0.515002 -0.200938)
(0.141653 0.11874 -0.099125 -0.868679 0.0513097 -0.099682 0.293725 -0.625423 -0.23324)
(-0.0022864 0.0649197 -0.0699684 -0.787955 0.122092 0.128813 -0.046765 -0.425306 -0.119199)
(-0.146508 -0.059235 -0.0147313 -0.60895 0.137814 0.0523994 -0.469746 -0.0895971 0.0648238)
(-0.122449 -0.0326651 0.0844774 -0.557839 0.0653623 -0.0336927 -0.65139 0.106465 0.0667808)
(0.0421374 0.134247 0.145754 -0.650791 0.0517749 0.0661153 -0.40727 0.0919519 -0.0841004)
(0.117705 0.20953 0.172663 -0.800529 -0.0137988 0.273006 0.0866216 0.0233103 -0.115933)
(0.13517 0.103619 0.169779 -0.704731 -0.110449 0.390432 0.412232 -0.129581 -0.092832)
(0.195019 -0.112081 0.0703566 -0.39745 -0.165639 0.16374 0.546303 -0.0526378 -0.0614386)
(0.249095 -0.208297 -0.0370289 0.0418511 -0.198869 -0.141762 0.444963 0.165741 -0.02432)
(0.161037 -0.144192 -0.111586 0.209597 -0.11239 -0.179315 0.230357 0.173846 -0.0708399)
(-0.00313245 -0.00362233 -0.10353 -0.014543 0.0982937 -0.038484 0.184016 0.147817 -0.0808674)
(-0.0485744 0.105215 0.0148825 -0.271832 0.243589 0.100476 0.169775 0.0465754 -0.149227)
(0.0186367 0.134219 0.128095 -0.336335 0.155962 0.0670636 0.199319 0.111131 -0.2462)
(0.25195 0.230501 0.21979 0.0872057 -0.021935 -0.0546057 0.285677 0.213103 -0.200524)
(0.338279 0.147668 0.242319 0.587543 -0.186509 -0.0423488 0.225934 0.000241294 -0.178115)
(0.0610355 -0.0471829 0.0871271 0.724302 -0.0420014 0.0334783 0.147964 -0.145985 -0.0795758)
(-0.199562 -0.124379 -0.177953 0.513106 0.246985 -0.0126205 0.20222 -0.0631448 0.0226095)
(-0.328779 -0.178373 -0.351772 0.0885464 0.199296 -0.194427 0.421929 0.195177 0.0954579)
(-0.263736 -0.059458 -0.285058 -0.15094 0.0378786 -0.300199 0.63593 0.328672 0.237735)
(0.132984 -0.192666 0.109327 0.244279 -0.156727 0.189632 0.695449 0.0631742 0.0339891)
(0.130231 -0.0136207 0.150645 -0.112586 -0.199033 0.145149 0.588348 0.244401 0.130241)
(0.0247108 0.0865795 -0.0235904 -0.40821 -0.255327 -0.0281061 0.451446 0.303469 0.300567)
(0.0985681 0.0764228 -0.104114 -0.626412 -0.307007 -0.211465 0.212621 0.306807 0.258854)
(0.292821 0.119987 -0.00209734 -0.772188 -0.215126 -0.339081 -0.169211 0.151407 -0.0211302)
(0.260004 0.114846 0.182402 -0.673639 -0.154492 -0.228326 -0.367301 -0.147087 -0.198358)
(-0.112232 0.0407773 0.215444 -0.0885608 0.137357 0.00717265 -0.282532 -0.277549 -0.0717051)
(-0.508178 -0.115292 0.038775 0.538526 0.303708 0.159478 0.0995881 -0.13417 0.116965)
(-0.552918 -0.201951 -0.0793619 0.81751 0.296684 0.206736 0.608584 0.158072 0.208199)
(-0.287781 -0.178426 -0.0537607 0.699958 0.188803 0.181984 0.793985 0.365519 0.142303)
(0.0619004 -0.0761661 0.012606 0.289212 -0.0308454 0.0926644 0.652384 0.379293 -0.0598071)
(0.230454 0.186954 0.0145207 0.0391003 0.0203576 -0.0474775 0.301987 0.238133 -0.215368)
(0.108752 0.239372 -0.0781385 -0.179068 0.0407522 -0.189947 0.0951321 0.103376 -0.174129)
(-0.112558 0.1052 -0.193418 -0.109998 -0.0927019 -0.263197 0.127968 0.0881833 0.137299)
(-0.270995 0.0431728 -0.209271 0.260919 -0.189871 -0.336182 0.129841 0.159317 0.475324)
(-0.228913 -0.0926604 -0.0932545 0.324792 -0.296749 -0.380389 0.0424401 0.198752 0.528043)
(0.0960711 -0.144655 0.0308318 0.364357 -0.253183 -0.291415 -0.00391713 0.0761718 0.166542)
(0.314104 -0.143322 0.0514241 0.575996 -0.0438471 -0.10191 0.25839 -0.0823042 -0.268544)
(0.18802 -0.148774 0.00343363 1.08357 0.220898 0.0124437 0.565651 -0.0956722 -0.392858)
(-0.0419045 -0.0192981 -0.00744123 1.44329 0.311832 -0.0933026 0.566672 0.0622739 -0.251453)
(-0.20199 0.0267555 0.0651851 1.15297 0.244024 -0.203336 0.349135 0.0157406 -0.0687183)
(-0.0915765 -0.030345 0.127624 0.622086 0.14079 -0.0824951 0.187883 -0.310174 -0.0948218)
(0.0788303 -0.0552603 0.0192601 0.286424 -0.0505717 0.118037 0.289068 -0.642055 -0.088021)
(-0.0330236 -0.0812135 -0.0513178 0.164823 -0.164876 0.321676 0.365106 -0.918845 0.108561)
(-0.226421 0.0563674 0.097537 0.0379972 -0.178879 0.457789 0.0908771 -0.819817 0.295902)
(-0.231426 0.250518 0.235586 -0.24939 -0.192038 0.396506 -0.285879 -0.265343 0.345349)
(0.0404237 0.263267 0.190326 -0.474967 -0.190243 0.177522 -0.192697 0.285642 0.0757076)
(0.366284 0.158106 -0.0964741 -0.492555 -0.151576 -0.227072 0.282086 0.652899 -0.292944)
(0.584425 -0.0541056 -0.317795 -0.429942 -0.0660207 -0.505937 0.56717 0.760535 -0.532011)
(0.459393 -0.165779 -0.134645 -0.209884 0.1187 -0.346219 0.52063 0.490377 -0.538716)
(-0.0954296 -0.0411176 0.159411 -0.185894 0.352804 0.0223086 0.314352 0.177464 -0.298868)
(-0.349817 0.11037 0.239549 -0.234215 0.447704 0.354528 0.318897 0.1044 -0.106155)
(-0.0687655 0.0476134 0.0865248 0.0208211 0.186648 0.346325 0.459941 0.105457 -0.159131)
(0.459102 -0.155951 -0.0996458 0.331911 -0.0692195 0.0368326 0.460723 0.152446 -0.45068)
(0.818956 -0.195878 -0.0365688 0.544144 -0.148126 -0.204133 0.186076 0.197259 -0.602594)
(0.401141 -0.0240542 0.138707 0.181595 -0.120695 -0.362754 -0.338141 0.228641 -0.380746)
(-0.374406 0.252772 0.0893275 -0.317593 0.131893 -0.399384 -0.475467 0.189456 0.133041)
(-0.717363 0.227286 -0.180674 -0.32972 0.207789 -0.34658 -0.0342108 -0.0673277 0.470158)
(-0.524737 -0.0660907 -0.332391 0.0458821 0.0849644 -0.233384 0.579339 -0.215767 0.409218)
(-0.116738 -0.209741 -0.164488 0.390707 0.0321517 -0.00347432 0.821524 -0.110017 0.19024)
(-0.380519 -0.117841 0.0912831 0.207247 0.167622 0.254809 -1.29441 0.0160168 0.165275)
(-0.328414 0.0452187 0.0282693 -0.338904 0.388617 0.149592 -0.989607 -0.190955 -0.0107429)
(-0.110608 0.0647326 -0.0715942 -0.439834 0.222879 0.105028 -0.376811 -0.232863 -0.106225)
(0.0351251 0.066752 -0.115525 -0.295825 -0.000822915 0.173043 0.326882 -0.138407 -0.0114785)
(0.127946 0.0882373 -0.0199595 -0.458758 -0.0794059 0.159814 0.576926 0.0204584 0.0221271)
(0.371235 0.143471 0.163827 -0.911531 -0.247488 0.00139763 0.430991 0.281894 -0.139307)
(0.531229 0.204998 0.204723 -0.880917 -0.274321 -0.244439 0.147261 0.473218 -0.217081)
(0.294863 0.0626462 0.0910884 -0.322264 -0.239958 -0.288892 -0.23014 0.569827 -0.0459786)
(-0.111707 -0.116996 0.0127633 0.232655 -0.0497333 -0.0432031 -0.252883 0.490653 0.198906)
(-0.407032 -0.229493 0.00756194 0.528856 0.122309 0.16055 0.10847 0.273536 0.269351)
(-0.34995 -0.123813 0.00156768 0.526119 0.165206 0.12598 0.554695 0.0189679 0.13331)
(-0.117252 0.0948643 -0.0355095 0.483168 0.21313 0.0680304 0.848758 -0.242143 -0.025176)
(0.0654283 -0.050185 -0.0800497 0.36798 -0.123775 0.147697 0.970317 -0.307791 0.0609012)
(0.319119 -0.221978 -0.149912 0.422671 -0.665147 0.374978 0.948045 -0.188562 0.366303)
(0.23182 -0.133692 -0.201926 0.686374 -0.769939 0.669863 0.80044 -0.0887188 0.595905)
(-0.10944 -0.0150748 -0.143562 0.632836 -0.523105 0.723225 0.81577 -0.113346 0.601868)
(-0.093581 0.164353 0.0117154 0.512424 -0.220299 0.525692 1.0692 -0.16378 0.322992)
(0.190206 0.209384 0.0803286 0.391325 -0.13442 0.414876 1.40277 0.0793817 -0.020158)
(0.348488 0.034031 -0.064352 0.483165 -0.139978 0.428965 1.49573 0.414046 -0.132504)
(0.0767442 -0.0554543 -0.168267 0.920125 0.0847343 0.38131 1.23477 0.310203 -0.105352)
(-0.380094 -0.0453029 -0.039653 1.26489 0.408636 0.0911262 0.6752 -0.0432145 -0.0149768)
(-0.472791 -0.0964984 0.141509 1.25476 0.535701 -0.226505 0.172371 -0.0701915 -0.0199088)
(-0.307944 -0.155268 0.214839 1.01373 0.276874 -0.308047 -0.0691794 0.157031 0.116937)
(-0.306255 -0.149072 0.214531 0.647096 0.0589398 -0.0749625 -0.378692 0.314281 0.33551)
(-0.415472 -0.0431611 0.136893 0.263826 0.040138 0.186536 -0.708404 0.302953 0.318518)
(-0.333916 0.137044 -0.0379417 0.275155 -0.0282435 0.016587 -0.543647 0.128816 0.238651)
(-0.0557932 0.242118 -0.252624 0.499939 -0.148801 -0.510075 0.0381003 0.0132981 0.153624)
(0.187017 0.193617 -0.322328 0.38455 -0.318101 -0.889536 0.423242 0.0270036 0.0997098)
(0.423954 0.0782205 -0.0465181 0.00903672 -0.401117 -0.592483 0.268455 0.217491 -0.0389772)
(0.435297 0.0822929 0.315722 -0.378398 -0.218613 0.0432585 -0.267557 0.367031 -0.21378)
(0.121052 0.0904164 0.392788 -0.450088 0.0469428 0.432723 -0.364903 0.085236 -0.170934)
(0.106846 -0.107001 0.149496 -0.0036164 -0.0575172 0.502791 0.252113 -0.432517 -0.0366056)
(0.337152 -0.253905 -0.196091 0.50383 -0.439142 0.298591 0.784447 -0.703669 0.0453624)
(0.416964 -0.121359 -0.269458 0.415746 -0.314088 0.219618 0.695487 -0.445282 -0.0897439)
(0.200623 0.156476 -0.0770813 -0.304532 0.0894081 0.31214 -0.101945 0.0425487 -0.244574)
(-0.245938 0.323745 0.0992269 -1.0239 0.422856 0.173102 -0.710312 0.187991 -0.201609)
(-0.328614 0.204978 0.0983994 -0.933788 0.373947 -0.0955498 -0.572809 0.0367595 0.077343)
(0.00216723 -0.124517 -0.0645589 -0.0370019 -0.247436 -0.126301 -0.408704 0.0034195 0.299375)
(0.146591 -0.288398 -0.115123 0.872582 -0.512589 0.0611427 -0.601921 0.122561 0.387792)
(-0.114544 -0.238588 0.0155022 0.890362 -0.161339 0.198774 -1.04267 0.142711 0.357098)
(-0.678716 0.156386 0.0770795 -0.54028 0.616518 0.6118 -0.785767 -0.453487 -0.05368)
(-0.314177 0.0261185 0.0463019 0.0841779 0.710337 0.625248 -0.912504 -0.750125 -0.338527)
(0.0392098 -0.157762 -0.0133636 0.652103 0.321137 0.261168 -0.928067 -0.609659 -0.368514)
(0.0810204 -0.112573 -0.0710577 0.890475 -0.0213344 -0.0713367 -0.624618 -0.181054 -0.0250162)
(-0.105339 -0.0364046 -0.110539 0.773393 -0.194231 -0.0468202 -0.205582 0.1013 0.246738)
(0.00740595 -0.00384862 -0.0708605 0.24254 -0.469146 0.0218984 -0.0494557 0.286815 0.306788)
(0.31301 0.0604013 0.0338167 -0.214242 -0.535077 -0.129106 -0.0711097 0.388176 0.134505)
(0.257862 0.0406581 0.168766 -0.621948 -0.453452 -0.281696 -0.112882 0.438799 0.0964915)
(0.0168807 0.0312211 0.208713 -0.956079 -0.247785 -0.153519 -0.220622 0.543112 0.228793)
(-0.116002 -0.049312 0.0571028 -1.0334 -0.185596 -0.0354311 -0.083472 0.729569 0.189128)
(-0.00399586 -0.0239816 -0.0459743 -0.459243 -0.0733914 -0.0880153 0.242882 0.729295 0.034676)
(0.100412 -0.00125979 0.0234844 0.340077 0.148888 -0.145514 0.475404 0.430772 -0.141989)
(0.0671628 -0.333531 0.112706 0.524669 0.0123346 -0.084126 0.493579 0.0411187 -0.213202)
(0.124851 -0.326679 0.135491 0.0118972 -0.22547 0.040768 0.47815 -0.314301 0.0628863)
(-0.0944674 0.115479 0.00811601 -0.796091 -0.12036 0.394893 0.843963 -0.576144 0.362145)
(-0.326297 0.256446 -0.187551 -1.26435 0.0316705 0.614459 1.26359 -0.658647 0.327743)
(-0.0714766 0.125337 -0.162797 -1.24551 -0.033869 0.487972 1.2609 -0.286208 0.103059)
(0.284625 -0.0612533 -0.00614075 -0.934123 -0.251208 0.302811 0.933336 0.149061 -0.0791769)
(0.531697 0.00423823 -0.0236215 -0.938966 -0.624015 0.17755 0.753391 0.103955 -0.0172925)
(0.455367 0.318823 -0.232313 -0.815891 -0.668737 0.457161 0.709426 -0.292211 0.116927)
(-0.00994259 0.300844 -0.322603 -0.16357 -0.252708 0.534193 0.271181 -0.825542 0.210163)
(-0.282552 -0.11836 -0.119524 0.406077 0.0496591 0.0372288 -0.751173 -0.772845 0.250473)
(-0.334511 -0.361053 0.131358 1.0709 0.0364155 -0.580543 -1.397 -0.147286 0.407899)
(-0.524556 -0.23471 0.280651 1.34232 -0.050574 -0.786201 -1.16828 0.291032 0.551689)
(-0.475082 -0.00694162 0.15809 1.18564 -0.0136529 -0.484458 -0.438347 0.195151 0.373453)
(-0.0938125 0.122617 -0.222806 1.36899 -0.0468597 -0.156584 0.483458 -0.112774 0.127139)
(0.0997495 0.0809609 -0.413861 1.57724 -0.0300219 0.129978 0.972139 -0.0724419 -0.042128)
(0.0444812 0.00431635 -0.168303 1.36818 0.0960716 0.267717 0.932317 0.0978577 -0.161056)
(0.0950345 0.0198438 0.287373 0.719734 0.0145479 0.249572 0.346364 0.249863 -0.167759)
(0.171482 0.135621 0.544324 0.0926797 -0.0391966 0.101024 -0.208028 0.180743 -0.133262)
(0.157494 0.0710998 0.466614 0.144376 -0.000743733 0.13481 -0.087993 -0.257475 -0.150168)
(0.28536 -0.211901 0.147885 0.33756 -0.227308 0.348798 -0.0243237 -0.570445 -0.0890913)
(0.229134 -0.139482 -0.115406 0.122235 -0.416163 0.529419 -0.27978 -0.445729 0.100306)
(-0.0477871 0.17612 -0.106661 -0.0241117 -0.114933 0.724626 -0.392134 -0.00939695 0.177971)
(-0.133204 0.294785 -0.0692012 -0.46606 -0.0556851 0.449184 -0.170917 0.194061 0.181535)
(-0.0493157 0.184656 -0.118595 -0.67041 -0.0543304 -0.182889 0.42988 -0.0449689 0.00899813)
(0.243921 -0.168707 -0.0961701 -0.538743 -0.174536 -0.543503 0.470642 -0.193932 -0.0875998)
(0.47222 -0.356419 -0.0725995 -0.609296 -0.561447 -0.261224 -0.201031 -0.0288924 0.00764756)
(0.113442 -0.0327338 -0.110329 -0.570641 -0.320235 0.215494 -0.702488 0.102259 0.201455)
(-0.530587 0.21094 -0.0275937 -0.571401 0.450421 0.429926 -0.796352 -0.101666 0.119779)
(-0.0367795 0.0541402 0.200486 -0.672558 -0.12647 0.331145 -0.57836 -0.0789154 0.124534)
(0.347419 -0.123618 -0.168445 -0.0158015 -0.278967 0.48558 -0.180548 -0.230536 0.0460062)
(0.359147 -0.369417 -0.460359 0.406396 -0.591935 0.0154819 -0.0801714 -0.271917 0.18051)
(0.107914 -0.241107 -0.28571 0.367823 -0.519642 -0.387244 -0.611106 -0.133134 0.367571)
(-0.259816 -0.176431 0.0245446 0.160422 -0.437481 -0.329668 -1.22485 -0.0608878 0.606972)
(-0.220571 -0.0627481 0.0959293 -0.00319752 -0.668661 0.0728703 -1.41132 -0.134859 0.823519)
(0.022333 0.200723 0.0174316 -0.0942186 -0.875441 0.273866 -1.34478 -0.255455 0.788556)
(-0.128164 0.223169 0.0843437 -0.364191 -0.773739 0.0467827 -1.30414 0.0520708 0.849364)
(-0.332773 0.0480146 0.169901 -0.435293 -0.411823 -0.149733 -1.22241 0.518925 0.756457)
(-0.0994952 -0.114447 0.0491243 -0.339425 -0.355622 -0.322722 -0.821544 0.362091 0.30324)
(0.458505 0.0744872 -0.0650314 0.17776 -0.322126 -0.227855 -0.265452 -0.151069 -0.183759)
(0.459152 0.134616 -0.0279429 0.853451 -0.151286 -0.0353754 -0.067607 -0.343854 -0.286459)
(-0.120067 -0.287736 0.042865 0.876545 0.0798716 -0.168712 -0.286157 -0.260099 -0.134866)
(-0.445715 -0.306568 0.147033 0.0341368 0.301104 -0.4631 -0.880513 -0.240622 0.0965835)
(-0.519838 0.0344397 0.141721 -0.528645 0.0791831 -0.291208 -1.01955 -0.112222 0.373631)
(-0.383402 0.0585524 -0.0949088 -0.225824 -0.432547 -0.0229824 -0.393872 -0.0309264 0.587123)
(0.0952385 0.000778102 -0.18046 -0.362932 -0.751034 -0.282161 -0.052294 0.124363 0.473901)
(0.372206 -0.149083 -0.103145 -0.463687 -0.60369 -0.467643 -0.0637046 0.285666 0.0864088)
(0.432038 -0.204878 0.0266697 -0.80247 -0.286481 -0.409537 0.0976708 0.249963 -0.137619)
(0.549832 0.188642 0.0276625 -1.01553 -0.218123 -0.205185 0.694774 0.236301 -0.194129)
(0.344851 0.392585 -0.30295 -0.510407 -0.275946 -0.125889 1.22568 0.253581 -0.0881432)
(0.242858 0.0650717 -0.512849 0.0714791 -0.25958 -0.171984 0.557733 0.502143 -0.146657)
(0.219276 -0.230689 -0.258574 0.548206 0.0370285 -0.159421 -0.654652 0.470301 -0.197136)
(-0.261201 -0.185186 0.274902 0.764872 0.575339 -0.115857 -1.1926 0.180266 -0.18966)
(-0.405808 -0.0377652 0.494999 1.26394 0.709226 0.0792751 -0.746878 -0.0574777 -0.195056)
(-0.0905473 0.126472 0.292832 1.51808 0.195812 0.102509 -0.16147 -0.298318 0.0594589)
(-0.0420994 0.308316 -0.0272613 1.23517 -0.0938747 0.174369 -0.119842 -0.28415 0.214246)
(-0.311043 0.20161 -0.240662 0.574767 -0.00337697 0.373633 0.290756 -0.0902559 0.268014)
(-0.327525 -0.00361173 -0.110445 -0.133238 -0.103456 0.381785 0.329623 0.26145 0.316663)
(0.0858159 0.0784933 0.271595 -0.0694735 -0.223187 0.375888 -0.0186484 0.343793 0.0995458)
(0.262897 -0.0177566 0.539671 0.689525 0.067178 0.378438 -0.235604 0.349543 -0.274128)
(0.110559 -0.351549 0.372582 0.66979 0.339077 0.0599622 -0.834878 0.389215 -0.565215)
(0.122726 -0.179925 0.0238571 -0.347091 0.288847 -0.166283 -0.841546 0.0576633 -0.506742)
(0.0418857 0.109625 -0.300039 -0.527111 0.373081 -0.202829 -0.0693803 -0.0617363 -0.286043)
(-0.195358 0.203341 -0.589751 -1.00345 0.177166 -0.386043 0.171342 0.0285332 0.0355682)
(-0.269169 0.243858 -0.482156 -0.812543 0.0464128 -0.558009 0.232882 0.0215708 0.141768)
(-0.241961 -0.115893 0.0363859 -0.240416 0.0225933 -0.381766 -0.0705865 0.0355783 0.189291)
(0.0268808 -0.228034 0.364079 -0.610623 -0.197882 -0.238332 -0.788984 0.235927 0.16748)
(0.165013 0.307278 0.2763 -0.858955 -0.0131322 -0.183777 -1.08453 0.17463 -0.00643701)
(-0.135214 0.33223 0.235774 -0.736908 0.188368 -0.0470414 -0.896786 -0.115818 0.00493187)
(-0.249496 -0.0932399 0.362204 -0.0339149 -0.0559207 -0.0895864 -1.06164 -0.127374 0.25082)
(0.300853 -0.226866 -0.135561 0.0136043 -0.19041 -0.104922 -0.00939198 0.373959 -0.113088)
(0.265591 -0.300781 -0.502871 -0.217872 -0.243418 -0.117874 0.964098 0.861835 -0.0929605)
(-0.0430244 -0.0448377 -0.268076 -0.694078 0.0152419 -0.133439 0.809146 1.15599 0.0578355)
(-0.310187 -0.125775 0.138361 -0.850733 -0.0412601 -0.380197 -0.381809 1.12439 0.262089)
(-0.14428 -0.234426 0.254677 -0.980482 -0.146189 -0.255057 -0.968387 0.729568 0.361047)
(0.100929 0.0191299 0.0189108 -1.44337 -0.133284 0.177388 -1.10372 0.219714 0.214711)
(0.0473512 0.295674 -0.0567479 -1.51671 -0.115422 0.0580852 -1.36074 0.02053 0.32387)
(-0.00218958 0.247764 0.0151655 -0.529497 -0.347775 0.0720582 -1.33927 0.0763707 0.563891)
(0.20076 -0.00911035 0.0162031 0.591583 -0.504635 0.306683 -1.00281 0.180693 0.30509)
(0.651508 0.090055 0.100059 1.01768 -0.485897 0.724991 -0.580234 -0.0398376 -0.000449304)
(0.492392 0.217826 0.0492202 0.59749 -0.474607 0.795046 -0.458358 -0.29059 0.103799)
(-0.371198 -0.0967256 -0.113603 -0.367854 0.15093 0.168684 -0.543851 0.102384 0.146585)
(-0.649664 -0.325204 0.0735477 -1.49959 0.595272 -0.299713 -0.763596 0.32958 0.210678)
(-0.266845 -0.26917 0.246598 -1.35031 0.265764 -0.459488 -0.819926 -0.143378 0.00881352)
(-0.246275 -0.188491 -0.174471 0.3603 0.304124 -0.0945662 -0.572728 -0.624687 -0.0670732)
(-0.178631 0.0259968 -0.393069 1.74198 0.238377 0.160367 -0.284697 -0.363748 0.0905973)
(0.0665615 0.169652 -0.0804676 1.95386 -0.0652746 0.0118424 0.0804473 0.00645582 0.112097)
(0.238848 0.183492 0.115921 0.634783 0.219524 -0.249263 0.50245 -0.141373 -0.410406)
(0.614152 0.312399 -0.0627993 -0.726202 0.670251 -0.577121 1.23777 -0.0230763 -1.23264)
(0.581321 0.28787 -0.303742 -1.44651 0.478464 -0.645255 1.60215 0.336189 -1.10286)
(0.30963 0.0592721 -0.172546 -1.50016 0.103287 -0.00341573 0.944205 0.791564 -0.519498)
(0.0724391 0.0801599 0.124751 -1.20799 0.111496 1.22374 -0.19736 0.582887 -0.291645)
(-0.132535 0.11547 0.402877 -0.203058 0.222891 1.55167 -0.506143 0.0238179 -0.25528)
(-0.0814462 -0.204916 0.30103 1.17758 0.0832622 0.955792 -0.236295 -0.484654 -0.152983)
(-0.108313 -0.290024 -0.126999 1.2681 -0.0938719 0.0560169 -0.000328781 -0.521139 0.0883691)
(-0.398248 -0.000790068 -0.239269 0.730311 0.199814 -0.979553 0.276438 0.18222 0.118079)
(-0.691558 0.017336 -0.0682223 0.0750935 0.545005 -0.763009 0.237164 0.532105 0.0853463)
(-0.274702 -0.0953266 0.252346 0.252411 0.238519 0.315454 -0.199401 0.659179 0.0156742)
(0.586792 0.218172 0.517794 0.489757 -0.358058 0.735078 -0.568688 0.459765 -0.264653)
(0.547246 0.35216 0.310796 0.0448434 -0.139361 -0.122755 -0.563048 0.21598 -0.520548)
(-0.263617 -0.110611 -0.111797 -0.0858734 0.590486 -0.880625 -0.40398 0.114361 -0.480512)
(-0.396048 -0.125674 -0.237878 -0.405761 0.675423 -0.474976 -0.0289787 -0.024851 -0.380536)
(-0.37716 0.112639 -0.237263 -0.621353 0.600926 -0.144091 0.676891 0.43208 -0.225222)
(-0.28564 0.118479 -0.299203 -0.939037 0.20414 -0.506965 0.582091 0.472664 -0.0671977)
(0.323072 0.110553 -0.149467 -0.686998 -0.187276 -0.414131 0.025178 -0.374996 -0.233221)
(0.303559 -0.289531 0.0802807 -0.384267 -0.23726 0.602822 -0.205734 -0.967068 -0.0643705)
(0.113628 -0.363112 0.0689379 -0.562234 -0.34758 0.487246 -0.0703325 -0.222024 0.0399389)
(0.0531913 0.196823 0.0232113 -0.5815 0.107363 -0.460847 -0.503425 0.129896 -0.141936)
(-0.398767 0.16369 0.26116 0.00624182 0.146446 -0.523932 -1.2909 -0.36318 0.120311)
(-0.0526875 -0.116735 0.41107 0.946957 -0.783181 1.00853 -1.39554 0.0576436 0.767562)
(0.257189 -0.220659 -0.178677 0.166135 -0.399664 0.478785 -0.28612 0.306975 0.0272932)
(0.0198181 -0.267038 -0.477557 -0.0142083 -0.175773 0.520821 1.97204 0.342137 -0.0436483)
(-0.201658 -0.128751 -0.406734 0.193932 0.186194 0.338609 2.80102 0.304318 -0.106095)
(-0.398282 -0.247286 -0.0219546 0.777311 0.393577 -0.602505 1.19332 0.239094 -0.211116)
(-0.490672 -0.121383 0.371023 0.664578 0.0697749 -0.752664 -0.133269 0.110898 0.230762)
(-0.221186 0.198587 0.16395 -0.528474 0.06233 -0.316824 -0.640266 0.112571 -0.144703)
(0.315009 0.129496 0.022271 -0.959452 0.268655 -0.114808 -0.592042 0.19868 -0.718601)