/*--------------------------------*- C++ -*----------------------------------*\
  =========                 |
  \\      /  F ield         | OpenFOAM: The Open Source CFD Toolbox
   \\    /   O peration     | Website:  https://openfoam.org
    \\  /    A nd           | Version:  10
     \\/     M anipulation  |
\*---------------------------------------------------------------------------*/
FoamFile
{
    format      ascii;
    class       surfaceScalarField;
    location    "16";
    object      phi_0;
}
// * * * * * * * * * * * * * * * * * * * * * * * * * * * * * * * * * * * * * //

dimensions      [0 3 -1 0 0 0 0];

internalField   nonuniform List<scalar> 
74080
(
0.00519722
8.43838e-05
-5.31225e-06
0.00520724
0.00010848
4.60307e-05
0.00520285
0.000116755
8.48433e-05
0.00520206
0.000119544
4.79076e-05
0.00526667
9.47046e-05
-6.81507e-05
0.00534826
9.04958e-05
-0.000141915
0.00542871
4.70002e-05
-0.000175884
0.00543676
1.15302e-06
-0.000124895
0.00535947
-7.44396e-06
-1.98784e-05
0.00526815
-4.95206e-05
6.38281e-05
0.00522896
-6.43239e-05
8.44945e-05
0.00528496
-5.00295e-05
4.21728e-05
0.00538337
1.06911e-05
-2.03785e-05
0.00547225
0.000109591
-8.56939e-05
0.00550918
0.000153194
-0.000115399
0.0054774
0.000132869
-8.18818e-05
0.00539924
4.27223e-05
4.42233e-06
0.00529706
-2.38031e-05
0.000114398
0.00521803
-8.43218e-05
0.000172608
0.00516834
-0.000141191
0.000156643
0.00515041
-0.000175944
9.13056e-05
0.00514154
-0.00025287
2.50544e-05
0.00513937
-0.000336295
4.02612e-05
0.00514479
-0.000365934
0.000111196
0.00515477
-0.000305231
0.00013325
0.00518734
-0.000154618
8.30057e-05
0.00521524
4.35395e-05
-2.95623e-05
0.0052326
0.000210617
-0.000103767
0.00525267
0.000283405
-0.000121456
0.00525192
0.000232171
-0.000112029
0.00524472
0.000141208
-9.44977e-05
0.00526195
5.12036e-05
-0.000103093
0.00527085
2.22493e-05
-6.03556e-05
0.00529871
4.65422e-05
6.98694e-06
0.00530875
2.57824e-05
9.49694e-05
0.00525853
3.14376e-05
0.000176624
0.00523471
-2.96113e-05
0.00015965
0.00519914
-7.9949e-05
0.000114895
0.00517614
-3.45628e-05
2.43194e-05
1.10486e-05
-4.29125e-05
0.00479655
3.59071e-05
-0.000166286
0.00480875
3.47234e-05
-0.000235767
0.00477711
8.60329e-05
-0.000267646
0.00479696
0.000119398
-0.000264608
0.00491332
0.000109947
-0.00020784
0.00507278
0.000124541
-0.000115179
0.00518025
7.44222e-05
-5.34303e-05
0.00515229
5.9728e-05
-5.46277e-05
0.0050278
4.80864e-05
-9.51383e-05
0.00487285
1.10511e-05
-0.000136683
0.0047557
-1.23907e-05
-8.07046e-05
0.00471607
-4.19468e-05
7.82993e-05
0.00472569
1.49073e-05
0.000217455
0.0048236
4.24417e-05
0.000252844
0.00498544
4.18083e-05
0.000186619
0.00511955
5.15095e-05
0.000114737
0.00513596
3.10609e-06
0.000150646
0.00503332
-2.4899e-05
0.00027414
0.00491577
-0.000106435
0.000366912
0.00488423
-0.000177111
0.000315096
0.00494298
-0.000169448
0.000122398
0.00498274
-0.00017345
-9.10389e-05
0.00493434
-0.000173916
-0.00020154
0.00482493
-0.00019371
-0.000179802
0.0047416
-0.00021621
-0.000101211
0.00472642
-0.000146969
-8.56683e-05
0.00474884
4.72209e-07
-0.000129689
0.00477493
0.000142796
-0.000175728
0.00478548
0.000190846
-0.000151877
0.00476163
0.00010154
-3.60139e-05
0.0047391
-1.3172e-05
5.82998e-05
0.00475591
-0.000104071
6.84181e-05
0.0048107
-9.63092e-05
5.2914e-05
0.00492624
-5.34078e-05
4.79076e-05
0.00497238
-1.08241e-05
0.000131957
0.00489508
8.92872e-05
0.000238623
0.0047735
5.52897e-05
0.000285273
0.00464906
3.11728e-05
0.00024757
0.00465138
2.29614e-05
9.57936e-05
-7.17454e-06
-5.94366e-05
0.00423236
-3.83297e-05
-0.000196203
0.00428643
-6.10618e-05
-0.000167059
0.00438163
1.56754e-05
-5.70918e-05
0.00450913
5.12987e-05
4.27169e-05
0.00455854
7.21942e-05
0.000114209
0.00451351
9.72782e-05
8.02313e-05
0.00438642
7.04135e-05
-5.36143e-06
0.00425933
5.96018e-05
-6.48879e-05
0.00419889
-3.52975e-06
-6.68664e-05
0.00417471
-4.67043e-05
-9.08769e-06
0.00422383
-8.66111e-05
8.4085e-05
0.00430922
-9.54765e-05
0.000182456
0.00436387
1.5861e-05
0.000228944
0.00438758
2.63991e-05
0.000225508
0.00436455
3.26132e-05
0.000192329
0.00429342
5.93393e-05
0.00016563
0.00418019
7.95961e-06
0.000127227
0.00403374
-1.588e-05
9.30543e-05
0.00392399
-0.000122261
5.17836e-05
0.00392884
-0.000198334
-3.70674e-05
0.00401501
-0.000169276
-0.000124892
0.00408473
-0.000148376
-0.000209712
0.00408293
-0.000131025
-0.000234804
0.00400884
-0.00015453
-0.000234017
0.00397049
-0.000208121
-0.000255591
0.00399109
-0.000139338
-0.000272727
0.00402892
-4.1495e-06
-0.000244848
0.00408729
0.000110275
-0.000125078
0.00416691
0.000134185
-8.64718e-06
0.00425383
2.52952e-05
4.95843e-05
0.0043305
-5.83863e-05
2.87583e-05
0.00433054
-6.91856e-05
-6.27748e-05
0.0042913
-1.78486e-06
-0.000118618
0.00432452
7.09406e-06
-9.187e-05
0.00440563
-1.67562e-05
3.13506e-05
0.00453953
1.62002e-05
0.000208255
0.00458203
3.56384e-05
0.000360699
0.00447854
0.000119919
0.000375207
0.00436571
9.46308e-05
0.000185084
5.45014e-06
-4.92789e-05
0.00385148
-9.89128e-05
-0.000214708
0.00389345
-0.000142338
-4.00002e-05
0.0038993
-8.44454e-05
3.85251e-05
0.00394431
-6.3123e-05
-7.83553e-05
0.00403522
-7.23291e-06
-0.00021622
0.00414068
4.71757e-05
-0.000255297
0.00409586
0.000131268
-8.5826e-05
0.00391451
0.000175174
9.61717e-05
0.00371759
0.000101629
0.000126585
0.00360164
1.08782e-05
9.09053e-05
0.00364351
-0.000109757
4.19687e-05
0.00371514
-9.07872e-05
4.35909e-05
0.00375173
3.93691e-05
6.66764e-05
0.00372492
-2.70432e-07
5.27465e-05
0.00361399
-2.76509e-05
-1.07267e-05
0.00353446
-5.40251e-05
-8.90929e-05
0.00357102
-8.63172e-05
-0.00018946
0.00368754
-3.17851e-05
-0.000258068
0.00375044
-3.83342e-05
-0.000287892
0.00373032
-7.99535e-05
-0.000269667
0.00366327
-7.82603e-05
-0.000221595
0.00363591
-9.54798e-05
-0.000169621
0.00366098
-0.000142064
-0.00010905
0.0036397
-0.000198027
-0.000161444
0.00356662
-0.000258978
-0.000170687
0.00348954
-0.000199357
-2.56973e-05
0.00349335
-7.10638e-05
0.000136002
0.00362743
5.14858e-05
0.000161801
0.00383937
0.000101228
-7.20932e-05
0.00399803
6.0931e-05
-0.000328119
0.00397682
6.90433e-05
-0.000286462
0.00384134
0.000100102
-5.04463e-05
0.00381511
7.05315e-05
0.000152468
0.00399423
-1.52707e-05
0.000109236
0.00426221
-7.68859e-05
-9.89501e-06
0.00442557
-2.83806e-05
5.05827e-05
0.00429174
9.43738e-05
0.000255988
0.00402067
0.000207527
0.000301801
0.00385078
0.000129462
6.50735e-05
1.74082e-05
-0.00017913
0.00353889
-4.33103e-05
-4.58444e-05
0.00341727
-8.8907e-06
-5.1252e-05
0.00338679
-4.31609e-06
-0.000102477
0.00340341
-6.12259e-05
-0.000135994
0.00343124
-3.5767e-05
-0.000178331
0.00356397
-4.20222e-05
-0.000181724
0.00373312
2.77031e-05
-8.34904e-05
0.00383258
8.37236e-05
1.34675e-05
0.00378819
7.86113e-05
6.85029e-05
0.00365759
5.09336e-05
0.00010676
0.00355799
-5.29948e-05
0.000118603
0.00349854
-1.82579e-05
0.0001075
0.00353285
-1.00092e-05
9.83085e-05
0.00363967
-0.000225231
8.38644e-05
0.00370041
-0.000276286
1.79282e-05
0.00367531
-0.000213189
-8.12862e-05
0.00364608
-0.00015819
-0.000177681
0.0037077
-8.39341e-05
-0.000184725
0.0038151
-9.67249e-05
-0.000124623
0.00383996
-6.62733e-05
-0.000143988
0.00372048
5.2352e-05
-0.000218238
0.00357073
8.06314e-05
-0.000277187
0.00346499
-5.42117e-05
-0.000229632
0.00335743
-0.000194263
-0.000103738
0.00323516
-0.000254176
7.78711e-05
0.00312621
-0.000208151
0.000217749
0.00309971
-0.000119507
0.000166752
0.00315789
-5.56734e-05
-6.52686e-05
0.00330271
-2.73934e-05
-0.000313876
0.00344709
-4.14239e-06
-0.00029659
0.00348829
8.47519e-05
-1.29448e-05
0.00351144
7.44062e-05
0.000279196
0.00363297
-8.38571e-05
0.000310984
0.00376606
-0.000122298
0.000108416
0.00381784
-4.20802e-05
-4.44521e-05
0.00375874
0.000106413
-6.65558e-05
0.00363986
0.000198284
3.63691e-05
0.00364052
0.000113787
6.21295e-05
0.00369666
-4.11647e-05
-2.32036e-05
-3.56366e-05
-5.72069e-05
0.00317084
0.000138021
7.32004e-05
0.00305512
0.000202611
-1.25304e-05
0.00307919
8.82239e-05
-9.30706e-05
0.003101
-7.06633e-05
-8.37215e-05
0.00306415
-8.76103e-05
-8.72977e-05
0.00307413
-0.000172267
-8.52318e-05
0.00316161
-0.000126759
-9.47841e-05
0.00324698
-4.59765e-05
-7.3891e-05
0.00323416
9.95129e-06
5.95976e-05
0.00321417
-5.99873e-06
0.000139442
0.00321959
-7.65758e-05
0.000121246
0.00322245
2.19325e-05
0.000109838
0.00326901
-6.38112e-06
0.000142603
0.00330248
-0.000291914
0.000234017
0.00325596
-0.000330143
0.000295297
0.003174
-0.000225148
0.000216253
0.00315534
-0.00017376
3.8573e-05
0.00323396
-0.000148043
-1.43035e-06
0.0033895
-0.000260546
0.000103975
0.00352775
-0.000243635
0.000105728
0.00352249
-2.32396e-05
-7.58335e-05
0.0034468
8.25449e-05
-0.000254358
0.00333492
-4.26234e-05
-0.00025486
0.0031817
-0.000186269
-0.000116657
0.00305277
-0.000235064
6.4558e-05
0.003019
-0.000213339
6.13056e-05
0.00304295
-0.0001241
-0.000169763
0.00305422
-2.36987e-05
-0.00040213
0.00309068
-1.94413e-05
-0.000419046
0.00314509
-1.69002e-05
-0.000216462
0.00318347
8.57193e-05
9.53566e-05
0.00326553
6.91522e-06
0.000342903
0.00334824
-0.000204777
0.000374237
0.00331969
-0.000151915
0.000292828
0.00327481
-5.79087e-05
0.000229374
0.0032794
9.52792e-05
0.000101104
0.00333934
0.000159663
5.80222e-06
0.00348481
-3.92727e-05
5.10963e-06
0.00351601
-0.000127005
4.44607e-05
9.49363e-05
7.04177e-05
0.00285329
0.000109296
0.000141363
0.00292711
0.000125687
0.000105932
0.00303956
-6.81301e-05
-1.86664e-05
0.00305809
-0.000198036
-0.000124776
0.00299313
-0.00020104
-7.71682e-05
0.00293342
-0.000344221
6.96648e-05
0.00293919
-0.000341275
0.000139347
0.00290727
-0.000232378
0.000152501
0.00280329
-8.92565e-05
0.00019053
0.00279699
-9.04119e-05
0.000147321
0.00291389
-0.000152301
4.54406e-05
0.00302094
-1.57487e-05
3.88113e-05
0.00301706
1.9138e-05
8.3702e-05
0.00288145
-0.000197671
0.00013047
0.00273218
-0.00029112
0.000247898
0.00264509
-0.000316656
0.000329054
0.00266612
-0.000351238
0.000239532
0.0027653
-0.000298563
0.000153278
0.00288255
-0.000342598
9.0307e-05
0.00302291
-0.000310079
8.43746e-05
0.00311988
-9.40641e-05
1.23607e-05
0.00320028
2.62152e-05
-0.000193089
0.00324123
-4.10841e-05
-0.000345146
0.00317403
-5.6686e-05
-0.000324738
0.00307326
-7.64395e-05
-8.65907e-05
0.00304166
-0.000188211
0.000119245
0.00302799
-0.000171085
0.000132992
0.00294036
-2.82611e-05
-3.42377e-05
0.00286487
-4.97258e-05
-0.00017913
0.00289048
-7.74937e-05
-0.000140959
0.00294545
9.1811e-05
0.000104242
0.00298376
9.81233e-05
0.000350172
0.00302815
-0.000117289
0.000425558
0.00301652
-5.19983e-05
0.000371756
0.00297041
-1.2528e-05
0.000181677
0.00291223
0.000102804
-6.41698e-05
0.00283326
0.000161097
-0.000123502
0.00285034
-0.000111354
-7.96021e-06
0.00288411
-0.000145258
7.19542e-05
0.00013829
0.000102696
0.00252055
9.09275e-05
8.8271e-05
0.00259166
7.31663e-05
3.38429e-05
0.00266541
-0.000141186
-6.85421e-05
0.00263957
-0.00021389
-0.000137321
0.00257656
-0.000228554
-7.68503e-05
0.00253787
-0.00040922
7.2918e-05
0.00256654
-0.000419481
0.000118234
0.00257137
-0.000302137
8.01343e-05
0.00256007
-0.00019617
0.000117888
0.00263507
-0.000230076
9.76309e-05
0.00277825
-0.000289683
8.7752e-05
0.00289058
-0.000137554
0.000133707
0.00282747
5.22312e-05
2.53977e-05
0.00264737
-6.99448e-05
-9.69447e-05
0.00258306
-0.000240689
1.34612e-05
0.00253131
-0.000264392
0.000138028
0.00247921
-0.000330709
1.54087e-05
0.00249753
-0.000359948
-4.90292e-05
0.00256217
-0.000321261
-0.000106506
0.00270029
-0.000162179
-0.000192191
0.00284709
1.81371e-05
-0.000247391
0.00293699
4.34099e-05
-0.000260961
0.00293907
-9.79918e-06
-0.000251088
0.00291039
1.00151e-05
-0.00022295
0.00289582
-3.20662e-05
-3.68139e-05
0.00286229
-0.000183431
4.34813e-05
0.00276282
-0.000100177
-5.40094e-05
0.00259631
0.00010526
-0.000107576
0.00253758
5.28803e-06
-0.000151529
0.00267823
-0.000152707
-3.107e-05
0.00279867
8.53967e-05
0.000202149
0.00274723
0.000243767
0.000281963
0.00265558
4.1013e-05
0.000231455
0.0025397
9.84132e-05
0.000175153
0.00248995
4.49502e-05
5.69602e-05
0.00256783
6.22108e-05
-6.05693e-05
0.00262721
0.000106524
-1.83902e-05
0.00268028
-0.00018112
4.76909e-06
0.00267269
-0.000108156
-7.04533e-06
0.00019476
3.8989e-05
0.00234037
-7.07087e-05
0.00021539
0.0023961
-4.52134e-06
0.000137876
0.00240774
-0.000150067
6.77937e-05
0.00235661
-0.000159671
-5.19794e-05
0.00226983
-0.000126433
-0.000144498
0.00215487
-0.00036508
5.70727e-06
0.00212266
-0.000368489
6.92481e-06
0.00218185
-0.000218054
-0.00020295
0.00231827
-0.000193473
-0.000145526
0.00249123
-0.000317351
0.000116101
0.00257817
-0.00036325
0.000323443
0.00254015
-0.000124226
0.000250324
0.00230467
0.000255946
2.24875e-05
0.00208228
0.000122056
-7.3849e-05
0.00217069
-0.00015165
-0.000137381
0.0024134
-0.000245908
-0.000100089
0.00258782
-0.000397956
-5.88818e-05
0.0025516
-0.000355284
-5.09424e-05
0.00236999
-0.000144069
-0.000126334
0.00226554
8.42862e-05
-0.000243673
0.00227428
8.87335e-05
-0.000248608
0.00236942
-4.86487e-05
-0.000166312
0.00252845
-0.000151048
-1.06537e-05
0.00272464
-0.00011935
1.99599e-05
0.00280603
-5.25364e-05
6.02909e-05
0.00272617
-0.000163407
1.02334e-05
0.00257904
-5.83993e-05
-0.000218876
0.0024653
0.000213991
-0.000288096
0.00244906
8.30053e-05
-0.00010343
0.0024377
-3.51247e-05
8.62026e-05
0.00243699
0.000261149
4.23163e-05
0.00242558
0.000341574
3.3789e-05
0.00237754
0.000134223
0.000154403
0.00231436
0.000223185
0.000207989
0.00228027
3.24651e-05
2.2954e-05
0.00228083
6.33736e-05
-0.000230445
0.0022375
0.000151764
-0.000107366
0.00225519
-0.000190821
-2.93229e-05
0.00232707
-0.000147786
-0.000109809
5.25388e-05
4.01047e-05
0.00218411
-5.25576e-05
0.000429996
0.00214674
5.52695e-05
0.000213121
0.00221837
-0.000138016
5.90452e-05
0.00227158
-2.42703e-05
-0.000153523
0.00224046
-5.91067e-06
-0.000263484
0.00209362
-0.000356214
-8.87893e-05
0.00197994
-0.000350109
-2.3157e-05
0.0019477
-0.000150179
-0.000100477
0.00191911
-0.000129962
2.164e-05
0.00198441
-0.000320632
8.60357e-05
0.0021268
-0.000371233
0.000129922
0.00222938
-9.73031e-05
0.000225831
0.00210017
0.000351593
0.000159058
0.00191093
0.000194206
0.000138736
0.00194832
-0.000221768
0.000332077
0.00209982
-0.00038971
0.00030543
0.00223738
-0.000530681
7.35004e-05
0.0022542
-0.000454711
6.94802e-05
0.00213739
-0.000139248
0.000109604
0.0020366
0.00016449
-1.09592e-05
0.00200808
2.18013e-05
-0.000112336
0.00209342
-0.000162312
-6.86264e-05
0.00220174
-0.00017418
-3.08788e-05
0.00221545
-9.78645e-05
3.56784e-05
0.00218366
4.59844e-06
1.44836e-05
0.00214802
-0.00012415
-4.87241e-05
0.00212567
-1.74192e-05
-0.000151429
0.00210093
0.000226267
-6.83137e-05
0.00200071
0.000179115
0.000230561
0.00191098
0.000130386
0.000140709
0.00204273
0.000241602
-5.27426e-05
0.00216749
0.000216577
8.82275e-05
0.00217348
0.000102751
0.000169994
0.00218081
0.000244134
0.000137043
0.00214161
4.58576e-05
-1.53391e-05
0.00206507
2.45445e-05
-0.000112293
0.00198656
7.38649e-05
7.91425e-05
0.00202412
-0.00021539
-2.62174e-05
0.0022492
-0.000243705
-0.000200358
-0.000110298
0.000178449
0.00185719
0.000167899
6.15202e-05
0.00189137
0.000237871
-0.000347189
0.00196494
7.51376e-07
-0.000275977
0.00212449
-1.89771e-05
-8.37556e-05
0.00213441
4.01193e-05
-0.000113686
0.00191123
-0.000329958
6.01949e-05
0.00180309
-0.000408299
0.000177919
0.0018561
-0.000228165
1.57089e-05
0.00186577
-0.000207494
1.475e-05
0.00180666
-0.000260764
3.43993e-05
0.00184818
-0.000239231
0.000168557
0.00203576
9.78068e-06
0.000227286
0.00201116
0.000401945
7.36659e-05
0.0019744
4.32869e-05
0.000107942
0.00197259
-0.000328011
0.000289575
0.00172256
-0.000243784
-1.16452e-05
0.00156288
-0.000368119
-0.00014925
0.00164228
-0.000508406
0.000245435
0.00166728
-0.000199776
0.00012469
0.00164094
0.000141893
-0.000140368
0.00155797
2.52954e-05
-9.16731e-06
0.00155252
-0.000157607
6.28655e-05
0.00173248
-0.000223865
5.461e-05
0.00196453
-0.000191382
0.000176114
0.00200323
1.81476e-05
9.77053e-05
0.00186756
8.52451e-05
-6.44637e-06
0.00180082
0.000271304
-0.000124376
0.00180791
0.000404653
-2.17875e-05
0.00186068
0.000257995
0.000272426
0.00203371
-8.39578e-06
0.000251887
0.00209777
0.000171618
0.000370603
0.00201269
0.000290121
0.000390787
0.00208672
-1.98805e-05
0.000149359
0.00211093
0.00025595
-2.88787e-05
0.00200161
7.68435e-05
-0.000158507
0.00191572
-9.4919e-05
3.1392e-05
0.00172618
2.51704e-05
0.000324007
0.00158403
-0.000489395
0.000196662
0.00171998
-0.000576294
6.40066e-05
-4.84487e-05
0.000245507
0.00173337
0.000150787
3.06728e-05
0.00156948
0.000210682
-0.000142294
0.00154368
-0.000102786
-0.000158209
0.00181027
-0.000233436
-8.07934e-05
0.0019011
7.35629e-06
-4.54571e-05
0.00177969
-0.000382374
0.000115412
0.00185106
-0.000636822
0.000162627
0.00189343
-0.000367909
0.000211273
0.00176067
-0.000202424
0.000117944
0.00160223
-0.000117166
-4.61595e-06
0.00161811
-8.35571e-05
0.000254123
0.00179153
0.000186142
0.000201497
0.00187622
0.000397692
-6.39083e-05
0.00192148
-8.23953e-05
5.19069e-05
0.00172517
-0.000194608
0.00019607
0.00141227
-0.000180059
-9.28081e-06
0.00141909
-0.000505858
-6.8346e-05
0.00149565
-0.000451389
0.000268419
0.00151816
-5.87335e-05
8.64189e-05
0.00143484
0.000256597
-6.41163e-05
0.00121862
0.000224417
2.3328e-05
0.00115075
-0.000119437
-0.000195885
0.00133854
-0.000325802
-0.000214489
0.00166147
-0.000236925
1.03273e-05
0.00177518
0.000117921
7.10589e-05
0.00170517
0.000329879
-6.68863e-05
0.00171838
0.000352472
-0.000292337
0.00171801
0.000393982
-3.23227e-05
0.00174853
0.000225639
0.000327593
0.00184464
-7.66727e-05
0.000285412
0.001669
0.000450193
0.000239184
0.00163534
0.000539942
6.08407e-05
0.00197602
-0.000140492
-1.01821e-05
0.00211977
0.000295017
-0.000128666
0.0020231
-5.90932e-06
-0.000179974
0.00187615
-0.00016862
2.96638e-05
0.0017146
9.65365e-05
9.58529e-05
0.0014951
-0.000548579
1.99017e-05
0.00139789
-0.000598881
7.3342e-05
-4.28475e-05
0.000126887
0.00163851
-2.97377e-05
2.67786e-05
0.00155942
0.000115354
-6.74656e-05
0.00137389
-9.52614e-05
2.95507e-05
0.0015665
-0.000326496
8.19771e-05
0.00176761
-3.89792e-05
-1.34762e-05
0.00158384
-0.000184426
-3.8854e-05
0.00153019
-0.000603421
2.55523e-05
0.00154242
-0.000530064
0.000217709
0.00152714
-0.000121473
-7.41807e-06
0.00146969
0.000140538
-0.00019865
0.00133317
6.29134e-05
0.000208234
0.00140242
0.000143072
0.000203432
0.00171974
0.000155618
7.33815e-05
0.00174846
-0.000114565
0.000246883
0.00143876
-1.38895e-07
0.000170983
0.00130746
-0.000221278
-1.3238e-05
0.00125408
-0.000607863
0.000127423
0.000960037
-0.000208849
0.00024712
0.000892393
7.97099e-06
5.81572e-06
0.00102672
0.000136729
2.80411e-05
0.0010276
0.000181653
0.000105594
0.00106923
-0.000274073
-4.36231e-05
0.00117104
-0.000381512
-0.000102331
0.00134126
-0.00017663
8.06474e-05
0.0014682
0.000148769
0.000185086
0.00150543
0.000287383
8.34133e-06
0.00169741
0.000167502
-0.000250452
0.00176707
0.000413096
-4.20105e-05
0.00162126
0.00043434
0.000220205
0.00157368
3.65814e-05
0.000318667
0.00152546
0.000427178
0.000525609
0.00148168
0.000387544
0.000316193
0.00161936
-0.000237632
0.000268027
0.00179847
0.000162918
0.000112517
0.00168975
-0.000137571
-9.26822e-05
0.0015664
-0.000105013
-5.2053e-05
0.00165964
5.76896e-05
1.46197e-05
0.00150109
-0.000445964
-1.44791e-05
0.00123526
-0.000283001
5.47523e-05
-9.08341e-05
0.000197781
0.00132119
-0.000189463
3.50176e-05
0.00136965
-6.50484e-05
-0.000243512
0.00127638
-0.000208152
1.87008e-05
0.0014014
-0.000424501
0.00011621
0.00152745
-4.37628e-05
1.54233e-05
0.00138183
-0.000148142
0.000166727
0.00133798
-0.000542028
0.000146349
0.00125938
-0.000402377
0.000182232
0.00132457
-7.52301e-05
2.24591e-05
0.00137163
0.000206623
-6.19919e-05
0.00125668
0.000187128
0.000149549
0.00134155
0.000121368
-3.22801e-05
0.00143694
7.61162e-05
5.56831e-05
0.00141115
-0.000112235
0.000241786
0.00126069
7.40572e-05
0.000114163
0.00115379
-0.000135464
-0.000158042
0.00115206
-0.000607246
0.000195485
0.00103982
-0.000116353
0.000163805
0.00104584
6.49254e-05
-0.000196397
0.00117515
0.00018583
-7.73909e-05
0.00115529
0.000225107
0.000114398
0.00106452
-0.00036372
5.78068e-05
0.000965516
-0.000386978
7.39586e-05
0.00104117
-0.000183081
0.000188202
0.00121203
2.23388e-06
0.000165336
0.00138145
0.000122107
-0.000127336
0.00156274
0.000238422
-0.000211949
0.00153359
0.000715868
5.78512e-05
0.00135607
0.000668873
0.000120022
0.00140618
3.00639e-05
0.000269929
0.00156501
0.000235749
0.000396135
0.00145487
0.000227589
0.000194903
0.00128695
-0.000114413
0.000194652
0.00123953
8.10056e-05
3.04002e-05
0.00110256
-0.000165713
-8.32676e-05
0.00116174
-8.31091e-05
-3.10835e-05
0.00138523
-0.000164276
1.5627e-05
0.00130082
-0.00041107
5.71577e-05
0.0011635
-0.000163581
7.14481e-05
-0.000195677
0.000303214
0.00105725
-0.000139634
-2.40554e-05
0.00125336
-0.000131272
-0.00035642
0.00126568
-0.00022586
4.89097e-05
0.00120547
-0.000289785
2.32432e-06
0.00136089
-0.000116498
6.65087e-05
0.0013439
-0.000351691
0.000327216
0.00128568
-0.000538542
0.000163146
0.00112249
-0.000159257
0.00023366
0.00111709
4.60572e-05
-2.32296e-06
0.00125726
0.000198316
-9.08772e-05
0.00123146
0.000360032
2.20306e-05
0.00123583
0.000370691
-4.54415e-05
0.00126725
4.57376e-06
6.1746e-05
0.00135897
-0.000403871
0.000155009
0.00132688
2.09989e-05
-6.12055e-05
0.00124346
-5.75968e-05
-0.000218073
0.0010084
-0.000324587
0.000270393
0.000850933
-4.01341e-05
0.000124397
0.000934793
-0.000118181
-0.000167746
0.00108108
0.00014693
-7.37176e-05
0.00107341
0.000303327
-1.58235e-05
0.000943289
-0.000143373
-7.82416e-05
0.000912342
-0.000313746
2.81426e-05
0.000975119
-0.000217274
0.000224424
0.00105347
-0.000109956
0.00020871
0.00119864
-2.14698e-05
-0.000103347
0.00129125
0.000284384
-0.000125578
0.00132567
0.000798177
8.03688e-05
0.00132665
0.000705344
-4.021e-05
0.0013481
9.33715e-05
8.51653e-05
0.00147427
-6.302e-07
0.000180147
0.00138985
0.000124101
0.000128619
0.00121315
9.56866e-05
0.000123988
0.00117617
7.4716e-05
-5.51636e-05
0.00113866
-0.000162362
-5.89784e-05
0.00116929
-0.000167334
3.53215e-05
0.00111694
-0.00021415
6.6606e-05
0.00110584
-0.000285772
-2.05286e-05
0.00128888
-0.000279632
4.32609e-05
-0.000235895
0.000297757
0.000934218
-5.82179e-05
-0.000153618
0.00108941
-0.000166836
-0.000334845
0.00115902
-0.000232406
0.000135642
0.0011362
-0.000192895
-2.83061e-05
0.00110635
-0.000202445
0.000186627
0.000944076
-0.000358464
0.00035716
0.000940716
-0.000665405
0.000195725
0.00099333
-0.000198068
8.99267e-05
0.00101925
0.000257596
-0.000150406
0.00110671
0.000177881
-7.49069e-05
0.00117906
0.00040111
-0.000123335
0.00113206
0.000613677
2.66251e-06
0.0010677
1.47856e-06
0.000160928
0.00103141
-0.000569842
5.46502e-05
0.00088258
3.83618e-05
-8.42273e-05
0.000787977
-8.23788e-05
2.21828e-05
0.000775204
-0.000360453
0.000334006
0.000843213
-0.000103918
0.000166671
0.000907176
-0.000268663
-7.5148e-05
0.00100046
9.90543e-05
-9.57056e-05
0.0010328
0.000340271
-6.49042e-05
0.000958841
-5.26437e-05
5.85976e-05
0.000953069
-0.000167207
4.90325e-05
0.00103594
-0.000193356
0.000247847
0.00111525
-0.000187742
0.000322053
0.00104471
-3.76094e-05
3.80585e-05
0.000979786
0.000378813
-9.92918e-05
0.00112137
0.000705991
5.1321e-05
0.00125548
0.000617086
-2.72951e-05
0.00130488
3.47371e-05
0.00023735
0.00139169
-0.000145551
0.00021875
0.00133172
0.000136016
0.000161806
0.00115673
0.00032229
0.000115677
0.0011595
-1.73935e-05
-4.34297e-05
0.00118067
-0.000242695
7.91918e-06
0.00107325
-0.000125443
0.000169207
0.000831681
-2.07885e-05
0.00010172
0.000795828
-0.000236164
-7.1777e-05
0.001055
-0.00043486
5.16419e-05
-0.000142389
0.000172313
0.000867284
-4.50935e-05
-0.000151705
0.000890393
-0.000172491
-0.00017002
0.00100193
-0.000307404
0.00012667
0.00106399
-0.000190387
3.61335e-05
0.000919438
-0.000179028
0.000305008
0.000814801
-0.000368215
0.000214892
0.000815742
-0.000709775
0.000170737
0.000872221
-0.00011341
-1.64769e-05
0.000966371
0.00038624
-0.000150671
0.00100914
0.000152804
4.03509e-05
0.00112343
0.000360498
-0.000138448
0.0011304
0.000680589
3.21772e-06
0.000979131
0.000109092
0.000115881
0.000901349
-0.000595666
-6.72934e-05
0.000857865
-1.91536e-05
1.01034e-06
0.00080487
-9.85703e-05
0.000182987
0.000762466
-0.000309375
0.000258109
0.00079113
-0.000115856
0.000107545
0.000771781
-0.000249826
-9.47188e-05
0.000818682
0.000113938
-0.000151468
0.00088071
0.000295092
-0.000127061
0.000801651
6.48755e-06
7.00795e-05
0.000783713
-3.8972e-05
0.00011513
0.000885261
-0.000307964
0.000298466
0.000956917
-0.00016219
0.000231328
0.000767069
0.00015891
0.000129597
0.00084107
0.000229306
0.000223984
0.00110684
0.000432664
0.000129297
0.00103541
0.00061096
0.00013481
0.000901159
-2.17693e-05
0.000292494
0.00093052
-0.000336685
0.000258382
0.00100022
-7.18769e-05
0.000299502
0.00100628
0.000216006
9.70234e-05
0.0010095
-0.000156954
-2.33911e-05
0.00111502
-0.000377534
-3.31175e-05
0.00110904
-0.000138956
3.23296e-05
0.000958907
3.85014e-05
0.000105891
0.000817917
-0.000197928
5.78156e-05
0.000875209
-0.000444029
0.000109599
-0.00021047
0.000171271
0.000756142
7.5053e-05
-0.000202426
0.000792451
-0.000115142
-0.000102444
0.000881349
-0.000292533
5.28775e-05
0.000886452
-9.34396e-05
5.57444e-05
0.000784283
-5.05038e-05
0.00016627
0.000772308
-0.00036385
0.000120611
0.000727987
-0.000553752
4.53916e-05
0.00077908
1.26253e-05
-2.44309e-05
0.000960164
0.000370102
-2.14305e-05
0.000934549
0.000226136
5.02308e-05
0.00100127
0.000316075
-7.27368e-05
0.00112408
0.000667115
-6.68091e-05
0.00094047
0.000281107
4.21674e-05
0.000736362
-0.000599428
7.08506e-05
0.000752334
-0.000128589
0.000134553
0.00082397
-0.000188198
0.000144048
0.000679271
-0.000271061
0.000244483
0.000608907
-8.08846e-05
0.000173456
0.000577144
-4.50565e-05
-0.000116947
0.000609771
0.000253504
-0.000149249
0.000800293
8.79103e-05
-9.5483e-05
0.000850526
-1.56484e-06
-8.47804e-05
0.000864853
1.45531e-06
4.53558e-05
0.00079534
-0.0003233
0.000239031
0.000759259
4.13864e-05
0.000151514
0.00077863
0.00023328
0.000248508
0.000926259
-1.51069e-05
0.000462607
0.00101507
0.000246589
0.000399587
0.000863491
0.00061539
0.000314365
0.00076411
-6.77018e-05
0.000280549
0.000738959
-0.000428881
0.000322606
0.000757374
-0.000178686
0.000231691
0.000908659
1.04773e-05
-0.00012195
0.000888015
-7.13477e-05
-0.000117872
0.000846468
-0.000335213
-5.13117e-05
0.000877549
-0.00023104
2.47738e-05
0.000864034
-7.68682e-05
0.000145303
0.00075877
-0.000204318
0.000116023
0.000787559
-0.000338779
3.25077e-05
-0.000184064
-2.92096e-05
0.000704334
5.05771e-05
-0.000120091
0.000782709
-5.9063e-05
-5.31489e-05
0.000805958
-0.000239751
0.000121712
0.000772843
-7.05049e-06
7.43869e-05
0.000720234
0.000102561
-5.84922e-05
0.000718969
-0.000326481
3.67243e-05
0.0006317
-0.000288315
3.43908e-05
0.000680621
7.71003e-05
-6.64981e-05
0.000887646
0.000335147
4.09988e-05
0.000843724
0.000332743
3.446e-05
0.000864314
0.000331673
5.18277e-05
0.000968453
0.000637258
-3.47469e-05
0.000851614
0.000363897
7.9751e-05
0.000662172
-0.000574414
9.59337e-05
0.000618769
-0.000256243
0.000184244
0.000644184
-0.000266795
0.000200674
0.000620354
-0.000358793
0.000214591
0.000596122
1.72128e-05
3.30246e-05
0.000541969
0.000215782
-0.000108673
0.000615011
0.000307417
-9.58191e-05
0.000711221
-4.28179e-05
4.13084e-05
0.000787939
-9.6375e-05
3.88997e-05
0.000789454
-0.000101635
0.000160074
0.00064947
-0.000202584
0.000153893
0.000624616
0.000150167
0.000115562
0.00074196
3.51371e-05
0.000352584
0.00085341
-0.000152923
0.000389273
0.000921821
0.0001967
0.000421594
0.000888016
0.000533768
0.000288984
0.000791839
-9.07162e-05
0.000232726
0.000696014
-0.000396059
0.000188536
0.000685337
-0.000237528
-1.36098e-05
0.000830896
-0.000289272
-0.000168608
0.000868405
-0.000175145
-1.07522e-05
0.000737513
-0.000260706
-3.39442e-06
0.000667838
-0.000188171
4.04362e-05
0.000706155
-0.000134381
0.000108605
0.000710123
-0.000226762
7.2424e-05
0.000733291
-0.000275794
4.38133e-05
-0.000156164
-0.000103083
0.000653198
7.09815e-06
-7.18735e-05
0.000725522
2.16037e-05
-6.93639e-05
0.00070986
-0.000124661
7.25781e-05
0.000642309
8.86119e-05
-1.02158e-06
0.000668716
0.000126993
-0.000156212
0.00066548
-0.000337033
0.000128492
0.000577376
-9.12625e-05
-1.49311e-05
0.000615657
0.000211378
-7.40382e-05
0.000739901
0.000362032
0.000168713
0.000712561
0.000445839
5.17564e-05
0.000767089
0.000350588
0.000106579
0.000894525
0.000523427
0.000134468
0.000849666
0.000366569
8.86902e-05
0.00066335
-0.000486984
3.63459e-05
0.000565946
-0.000400835
0.000212142
0.00053617
-0.000351094
0.000179726
0.000522988
-0.000304346
0.000101627
0.000498445
0.000127606
-1.28968e-05
0.000496698
0.000325748
3.13185e-05
0.000598185
0.000130362
7.79345e-05
0.000621021
-0.000179843
0.000198558
0.000665695
-0.000151465
0.000135794
0.000649997
-0.000170844
0.0002103
0.000594799
-0.00012925
0.000187567
0.000649724
3.10825e-05
0.000270907
0.000661909
-7.91586e-05
0.000311897
0.000716792
-0.000198551
0.000139721
0.000867732
0.000174278
7.61267e-05
0.00081641
0.000389439
0.000179354
0.00067558
-4.98778e-05
0.000116449
0.000646905
-0.000386628
2.49898e-05
0.000646148
-0.000374164
-1.98689e-05
0.000719853
-0.00052396
-7.08889e-05
0.000779348
-0.000297177
-2.7053e-06
0.000686239
-0.000221682
7.71879e-05
0.000580297
-0.00012021
3.33727e-05
0.000544019
-8.87424e-05
8.15504e-05
0.000550725
-0.000202511
0.000156811
0.000665874
-0.000276023
6.47586e-05
-0.000220892
-5.89941e-05
0.000570558
1.19046e-05
-0.000119001
0.000649909
1.05468e-05
-8.09893e-05
0.000663333
-8.82114e-05
-1.18838e-05
0.000628949
0.000174833
-1.37166e-05
0.00064425
7.58527e-05
-1.91097e-05
0.000590577
-0.000341951
0.000209105
0.000532587
-2.54623e-05
-0.000116917
0.000572343
0.000299739
-2.95277e-06
0.00063641
0.000350347
0.000186116
0.000652649
0.000534361
0.000117123
0.000709867
0.000316683
0.000158668
0.000806238
0.000454702
0.000115445
0.000765018
0.000427144
4.83695e-05
0.000561936
-0.000443094
0.000154695
0.000488297
-0.00040257
0.000113735
0.000467965
-0.000264155
-1.81985e-06
0.000452504
-0.000208119
0.000101506
0.000492595
0.00015313
6.61864e-05
0.000508199
0.000289438
-1.98727e-05
0.000558703
-3.13987e-05
0.000119838
0.000602673
-0.000250675
0.000174027
0.000593464
-0.000188443
0.000131519
0.000540311
-0.000115507