/*--------------------------------*- C++ -*----------------------------------*\
  =========                 |
  \\      /  F ield         | OpenFOAM: The Open Source CFD Toolbox
   \\    /   O peration     | Website:  https://openfoam.org
    \\  /    A nd           | Version:  10
     \\/     M anipulation  |
\*---------------------------------------------------------------------------*/
FoamFile
{
    format      ascii;
    class       volTensorField;
    location    "9";
    object      gradientUWrite;
}
// * * * * * * * * * * * * * * * * * * * * * * * * * * * * * * * * * * * * * //

dimensions      [0 0 -1 0 0 0 0];

internalField   nonuniform List<tensor> 
25600
(
(-0.20473 -0.0330703 -0.110274 -0.105372 0.228151 0.190505 0.175577 -0.160497 -0.0726935)
(-0.198158 0.0451003 -0.183079 -0.158077 0.268553 0.0767256 0.0668505 0.0233055 -0.0700698)
(-0.118267 0.0832151 -0.148214 -0.136192 0.199017 0.0154994 0.0101058 0.115658 -0.097115)
(-0.00158503 0.0748305 -0.0688532 -0.0955731 0.106366 -0.023323 -0.0470584 0.143476 -0.129805)
(0.115911 0.0765545 0.0144708 -0.0888433 0.0447146 -0.0224751 -0.0488145 0.153449 -0.159714)
(0.136612 0.0774284 0.041005 -0.118412 0.0625662 -0.0427085 0.0340638 0.13879 -0.195036)
(0.0571393 0.0409553 -0.0264161 -0.16259 0.0773235 -0.0979277 0.115476 0.12005 -0.165703)
(0.0367456 0.0268778 -0.0712493 -0.140464 0.0842603 -0.134769 0.168427 0.103662 -0.0929619)
(0.0348278 -0.0174648 -0.0244035 -0.0498989 0.0505177 -0.12508 0.12286 0.0715313 -0.056745)
(0.0196151 -0.0953237 0.0582279 0.0106984 -0.00659391 -0.0409621 -0.0578366 0.0289524 -0.0335158)
(0.0693983 -0.118056 0.112715 0.0658596 -0.00500155 0.0578348 -0.293412 -0.0629874 -0.0415012)
(0.0831581 -0.096923 0.0819759 0.0994994 -0.00629193 0.115204 -0.421084 -0.13591 -0.0651491)
(0.0594268 -0.0176143 0.00436939 0.114935 0.00276631 0.120248 -0.310347 -0.146572 -0.0681646)
(0.00960183 0.0325404 -0.0556561 0.12816 0.0487953 0.0413546 -0.0560215 -0.128294 -0.0472251)
(-0.0984208 -0.0052224 -0.0705551 0.127642 0.0771075 -0.0452929 0.0952367 -0.0383313 0.0181171)
(-0.144394 -0.0408758 -0.0100304 0.101288 0.0898638 -0.0866443 -0.00243284 0.0976584 0.0918541)
(-0.135491 -0.0501545 0.0485559 -0.0461586 0.0480755 -0.107719 -0.253842 0.239086 0.101578)
(-0.0531401 0.0655164 0.0434275 -0.209425 -0.0248301 -0.0916261 -0.410545 0.341397 0.0413762)
(0.142839 0.24061 0.00955133 -0.25528 -0.0245943 -0.0615951 -0.304259 0.321659 -0.0825493)
(0.22441 0.262639 -0.0482042 -0.173566 -0.0182453 -0.0421508 0.0140864 0.173334 -0.200506)
(0.166685 0.145401 -0.0742854 0.119759 0.0389069 0.0117782 0.350203 -0.0186359 -0.250424)
(0.0701081 -0.107093 -0.0267855 0.447107 0.13994 0.103767 0.473996 -0.189568 -0.191571)
(-0.102426 -0.346121 0.0511841 0.574684 0.115552 0.24037 0.23223 -0.291975 -0.0165068)
(-0.210106 -0.343055 0.10287 0.45862 0.0569769 0.345759 -0.174332 -0.232523 0.138007)
(-0.184308 -0.203149 0.063191 0.123553 0.0312835 0.285318 -0.43376 -0.0139077 0.169373)
(-0.104772 -0.0251557 -0.0072237 -0.189549 0.0188789 0.0739428 -0.464365 0.207428 0.121223)
(-0.00491928 0.126482 -0.00714854 -0.321687 0.0147305 -0.189912 -0.326996 0.26191 0.0595772)
(0.0186845 0.127307 0.0204811 -0.396659 -0.0587897 -0.410949 -0.149468 0.135834 0.0622814)
(-0.0134896 0.061142 0.0214265 -0.484857 -0.179128 -0.47076 0.0185526 -0.067333 0.153485)
(-0.02443 0.0170169 -0.0206046 -0.565574 -0.2706 -0.356065 0.123405 -0.218012 0.275865)
(-0.0826926 -0.0165041 -0.104214 -0.637831 -0.33366 -0.141645 0.103983 -0.190514 0.394711)
(-0.0996992 -0.0231961 -0.152918 -0.670399 -0.40662 0.0424039 -0.0446626 -0.0363304 0.451234)
(0.0148799 0.00305402 -0.105801 -0.611639 -0.40289 0.106155 -0.255263 0.114826 0.393693)
(0.087236 0.0467619 0.0156267 -0.522013 -0.318489 0.0609003 -0.307035 0.184983 0.257004)
(0.0995551 0.0951716 0.121937 -0.457949 -0.204295 -0.0225204 -0.126819 0.142658 0.0780924)
(0.131154 0.112591 0.152734 -0.371743 -0.0229894 -0.0523816 0.229479 0.0406079 -0.0840408)
(0.116352 0.0540629 0.147018 -0.235545 0.0485786 0.0361679 0.571864 -0.10882 -0.193482)
(0.106468 -0.0441601 0.119221 -0.0686787 0.0365895 0.176337 0.68034 -0.320491 -0.215526)
(0.0677302 -0.119292 0.076892 0.0448411 0.0716444 0.268774 0.558016 -0.452428 -0.142687)
(-0.087508 -0.112829 0.00903532 0.0103047 0.121427 0.28626 0.349609 -0.372574 -0.0785658)
(-0.172189 -0.0785813 -0.198106 0.377617 0.386125 -0.151997 -0.400463 0.226622 -0.251443)
(-0.111335 -0.10659 -0.182948 0.360468 0.304207 -0.0496799 -0.417325 0.0859865 -0.18781)
(-0.0222058 -0.0746021 -0.0989491 0.322082 0.109715 0.0463562 -0.298051 -0.136084 -0.10482)
(0.0117416 0.0183648 -0.0203844 0.300503 -0.0456033 0.0608871 -0.171326 -0.325064 -0.00669395)
(0.00635833 0.144598 0.0325691 0.320961 -0.0805994 0.0878281 -0.16679 -0.34004 0.0703306)
(-0.0319367 0.174586 0.0201539 0.276628 -0.0619464 0.099803 -0.208135 -0.222241 0.0795678)
(-0.0504626 0.0711658 -0.0332928 0.0603174 -0.089118 0.111788 -0.252587 -0.120532 0.0784181)
(0.0522916 -0.0228162 -0.0430938 -0.115688 -0.0914608 0.167328 -0.198581 -0.169635 0.0584281)
(0.116532 -0.0848424 -0.00557856 -0.224537 -0.112252 0.182519 0.0300827 -0.266021 -0.00886646)
(0.0994166 -0.075143 0.0305986 -0.198453 -0.121271 0.170772 0.2038 -0.22352 -0.0356146)
(0.0993186 -0.0275366 0.0505632 -0.0196345 -0.0841904 0.0954526 0.168169 -0.0749172 -0.00862448)
(0.0365465 -0.0201092 0.060317 0.120993 -0.089107 0.00836506 -0.0592731 0.0945921 0.052406)
(-0.0238203 0.00796951 0.0532377 0.183187 -0.0733218 0.0369701 -0.335408 0.153534 0.0991601)
(-0.0169947 0.0170676 0.0329029 0.0638134 -0.0600673 0.134708 -0.434266 0.108735 0.0819834)
(0.0146228 -0.011313 0.0204346 -0.0814525 -0.028392 0.261837 -0.390138 0.0684716 0.0229302)
(0.00576853 -0.0554041 0.0060131 -0.0110077 0.0617062 0.298459 -0.384975 0.0252854 -0.0350772)
(-0.09899 -0.123134 -0.0100805 0.136596 0.0898808 0.135544 -0.482246 -0.00160137 -0.0235804)
(-0.144073 -0.0695869 -0.0141521 0.299119 0.0803257 -0.0513468 -0.566186 0.0133381 0.0344635)
(-0.0386244 0.0538495 -0.0232531 0.255273 -0.00705868 -0.11803 -0.434313 0.0393862 0.0528674)
(0.17332 0.165249 -0.0280973 -0.0872291 -0.202784 -0.0377957 -0.118347 0.121592 0.00424397)
(0.416845 0.261765 0.0126006 -0.218613 -0.321372 0.187412 0.118935 0.254798 -0.0765074)
(0.439826 0.102462 0.104948 -0.0694532 -0.368601 0.406255 0.0883872 0.226374 -0.0425745)
(0.121028 -0.169044 0.162038 0.232966 -0.266908 0.507282 -0.177558 0.0176672 0.144406)
(-0.314707 -0.244857 0.0692719 0.527501 0.0192716 0.416934 -0.462403 -0.145457 0.28967)
(-0.534756 -0.188889 -0.143465 0.407913 0.233716 0.132504 -0.474561 -0.142002 0.251546)
(-0.406003 -0.0589369 -0.283549 0.0553587 0.285716 -0.169435 -0.275663 -0.0874184 0.113534)
(-0.167371 0.0283683 -0.2363 -0.259805 0.173866 -0.342712 -0.0963287 -0.112678 0.0426832)
(-0.0944992 -0.015532 -0.0821747 -0.559426 -0.006239 -0.372467 -0.0485933 -0.219983 0.092773)
(-0.135593 -0.0651768 0.062357 -0.717492 -0.121368 -0.27842 -0.186951 -0.308138 0.260714)
(-0.19234 -0.0822192 0.119995 -0.721135 -0.175803 -0.119514 -0.450197 -0.284278 0.436775)
(-0.274242 -0.114427 0.0608414 -0.698847 -0.18287 0.0325834 -0.788951 -0.167421 0.510494)
(-0.231207 -0.0921674 -0.0415304 -0.626079 -0.196062 0.104458 -1.04043 -0.0318023 0.443182)
(-0.0411585 0.012354 -0.0839294 -0.546996 -0.140282 0.0480891 -1.0839 0.0688134 0.25591)
(0.0861747 0.127189 -0.0396048 -0.529343 -0.0383887 -0.0915237 -1.00161 0.14558 -0.00357578)
(0.186592 0.267689 0.064705 -0.465024 0.0296109 -0.204887 -0.85925 0.269291 -0.217175)
(0.320715 0.299007 0.18973 -0.334766 0.0501237 -0.179636 -0.586038 0.447037 -0.312274)
(0.384858 0.151446 0.257374 -0.199551 -0.0639643 -0.0495702 -0.226127 0.574329 -0.331787)
(0.36667 0.0219017 0.19403 -0.0338656 -0.124959 -0.0108715 0.0292473 0.529266 -0.285925)
(0.213258 -0.0616585 0.0562343 0.109159 0.0104145 -0.0841707 0.0390591 0.397333 -0.238525)
(-0.0493752 -0.0824651 -0.0924251 0.258938 0.23917 -0.154739 -0.193276 0.30501 -0.253045)
(-0.117657 0.0166705 -0.031227 0.0389688 0.14865 -0.143118 -0.187541 0.414095 -0.0661763)
(-0.236269 -0.197691 -0.0187405 0.0134503 0.143047 -0.110468 0.0653877 0.0869854 0.0781438)
(-0.159207 -0.220942 -0.0521328 -0.025704 -0.00479705 -0.118483 0.280713 -0.182453 0.136872)
(-0.00130142 -0.0879723 -0.0300867 -0.115876 -0.181742 -0.0744781 0.2513 -0.158222 0.138819)
(0.0861664 0.0692045 0.0483571 -0.176223 -0.214326 0.0885066 0.0623611 0.0804625 0.139505)
(-0.094651 0.079209 0.0589577 -0.290617 -0.183853 0.213275 -0.132782 0.262551 0.268976)
(-0.277664 0.0192521 0.0288993 -0.432695 -0.202479 0.206722 -0.260726 0.173048 0.455776)
(-0.197829 0.00319168 -0.0100903 -0.410389 -0.215601 0.0938422 -0.242236 -0.105712 0.448841)
(-0.0263067 -0.0482903 -0.0198376 -0.370308 -0.195831 -0.036892 -0.207512 -0.209858 0.201689)
(0.196626 -0.0702399 -0.0164161 -0.29369 -0.109044 -0.0602587 -0.255996 -0.0520247 -0.112834)
(0.336766 -0.0831752 -0.027485 -0.275089 -0.0838572 -0.033739 -0.396447 0.202311 -0.235454)
(0.246946 -0.0809316 0.0315557 -0.408222 -0.160583 -0.0158315 -0.589825 0.393764 -0.0820983)
(0.00448394 0.00877094 0.113483 -0.441257 -0.161662 -0.0299653 -0.670255 0.32234 0.157713)
(-0.212059 0.0683551 0.138691 -0.395494 -0.0691635 -0.0337624 -0.503801 0.0441836 0.254949)
(-0.150124 0.0951072 0.073382 -0.303001 0.12406 0.0386154 -0.0186189 -0.100665 0.0481756)
(0.0499089 0.0557861 -0.113198 -0.212327 0.264413 0.0720784 0.398455 0.0378217 -0.307067)
(0.124754 -0.0413677 -0.246575 -0.174341 0.274113 -0.00604587 0.314506 0.298812 -0.460266)
(0.0369063 -0.0270829 -0.171884 -0.0165455 0.321758 -0.0684261 -0.16542 0.448775 -0.337578)
(-0.193739 -0.0109216 0.0177937 0.0945631 0.212885 -0.0250707 -0.701267 0.369629 -0.0251245)
(-0.172829 -0.00661335 0.206669 0.0331792 -0.0596427 0.126708 -0.716215 0.11863 0.204458)
(0.204167 0.0186141 0.301493 -0.118423 -0.404258 0.273522 -0.175744 -0.227173 0.158228)
(0.477851 -0.0429098 0.250195 -0.408895 -0.718753 0.247509 0.285582 -0.561301 0.092103)
(0.412448 -0.00867885 0.0701154 -0.589561 -0.635156 0.126853 0.372982 -0.639388 0.147859)
(-0.074686 0.0806207 -0.210673 -0.493312 -0.271315 0.0350074 0.134403 -0.363426 0.321757)
(-0.607334 0.018885 -0.441386 -0.225135 0.0597148 -0.0307313 0.0796335 0.0312805 0.510062)
(-0.685346 -0.0778108 -0.426053 0.0650492 0.290881 -0.0670788 0.351299 0.168942 0.475922)
(-0.529017 -0.124314 -0.196195 0.0515049 0.314315 -0.0954739 0.412923 0.00399315 0.33477)
(-0.370784 -0.130274 0.0644058 -0.23262 0.151774 -0.0912958 0.0887224 -0.187932 0.283288)
(-0.158564 -0.0908245 0.234709 -0.407752 -0.0621662 -0.0976927 -0.415021 -0.27533 0.289399)
(-0.0242568 -0.0429611 0.249836 -0.371296 -0.16978 -0.18052 -0.810012 -0.263391 0.246562)
(-0.0213682 -0.0421948 0.0963514 -0.161377 -0.107919 -0.265796 -0.902621 -0.29941 0.11677)
(0.0141391 0.00581164 -0.12994 0.187663 -0.0325635 -0.240215 -0.698859 -0.437506 -0.0303709)
(0.0899243 0.134525 -0.266174 0.411225 -0.000473061 -0.0731016 -0.362259 -0.485564 -0.140464)
(0.155049 0.194826 -0.198976 0.413596 -0.0523809 0.149184 -0.0661211 -0.358817 -0.217482)
(0.26867 0.184193 0.0437339 0.409875 -0.127924 0.288755 0.0154159 -0.191397 -0.233644)
(0.368329 0.0520256 0.284771 0.44645 -0.167161 0.267149 0.0691607 -0.0107961 -0.264198)
(0.390059 -0.0821268 0.29687 0.432911 -0.170983 0.0682127 0.214036 0.116133 -0.302891)
(0.385888 0.0234685 0.0973613 0.352968 -0.13203 -0.185676 0.185805 0.235864 -0.306192)
(0.323542 0.187614 -0.0441744 0.172949 -0.0905675 -0.289802 0.000718677 0.466369 -0.285165)
(0.138366 0.201192 -0.0563848 0.048654 0.0235607 -0.228953 -0.192834 0.573993 -0.215595)
(-0.19374 0.0200675 -0.093696 -0.204293 0.120086 0.0358273 -0.457773 0.390451 0.0344383)
(-0.171404 -0.230437 -0.149459 -0.136964 0.0951717 -0.110851 -0.336501 0.446678 0.0546308)
(-0.132063 -0.33251 -0.0675868 0.0858246 0.0903137 -0.180665 -0.223249 0.187943 0.043725)
(-0.1028 -0.149103 0.134616 0.214354 0.0446208 -0.125446 -0.156336 -0.0864446 0.0657759)
(-0.117978 0.13615 0.25071 0.0153373 0.00863496 -0.103484 -0.214888 -0.101582 0.15004)
(-0.230789 0.174831 0.112711 -0.438295 -0.0560428 -0.279396 -0.386863 0.0754265 0.257167)
(-0.161329 0.0425348 -0.117579 -0.630992 -0.150252 -0.400798 -0.456379 0.156884 0.289195)
(0.0765225 -0.0154431 -0.223556 -0.511283 -0.222933 -0.287413 -0.367169 0.194646 0.168712)
(0.191424 -0.00127029 -0.122928 -0.360253 -0.235866 -0.0323484 -0.123297 0.402274 0.00384412)
(0.179968 0.00962931 0.0286964 -0.306654 -0.138643 0.111959 0.107914 0.642555 -0.0415388)
(0.034664 -0.0714116 0.0769214 -0.508196 0.00482255 0.0373849 0.182284 0.648662 -0.0187594)
(-0.0694541 -0.084236 0.0605427 -0.85966 0.152918 -0.0805066 0.205181 0.364882 -0.0496891)
(-0.0116602 0.0768897 0.0452143 -1.0134 0.227426 -0.0804161 0.262029 -0.0292859 -0.164662)
(0.0693807 0.236908 0.0941735 -0.906578 0.174569 0.0312888 0.472596 -0.12077 -0.254608)
(0.137578 0.249582 0.104959 -0.566889 0.143909 0.0546261 0.856089 0.310244 -0.292114)
(0.106677 0.0677145 -0.038465 -0.222904 0.102485 -0.201488 1.1023 0.814968 -0.248664)
(0.0688045 -0.0725103 -0.137406 -0.122505 0.0198867 -0.444551 1.01026 0.918615 -0.120946)
(0.0748997 -0.111831 -0.0428277 -0.175021 -0.0518212 -0.348507 0.582727 0.516007 0.0042582)
(-0.015287 -0.239273 0.127435 -0.208696 -0.159606 0.0471415 0.134242 -0.150714 0.0983049)
(-0.0185662 -0.315151 0.218126 -0.160994 -0.0749282 0.457385 0.139013 -0.49061 0.0669891)
(0.0645763 -0.256724 0.129854 -0.353197 -0.0280558 0.433601 0.21794 -0.234162 0.0123448)
(0.0884746 -0.084649 0.00770476 -0.776041 -0.157968 -0.0674329 -0.0371733 0.2749 0.0747383)
(0.0839623 0.182506 -0.00635699 -1.11901 -0.233917 -0.58352 -0.405458 0.572309 0.23105)
(-0.0184269 0.308053 -0.0748685 -1.30826 -0.36629 -0.835105 -0.610343 0.300054 0.404137)
(-0.12086 0.253397 -0.247446 -1.08752 -0.37165 -0.72673 -0.262215 -0.319467 0.447959)
(-0.223078 0.131083 -0.345269 -0.589898 -0.0679683 -0.362004 0.387157 -0.619753 0.332614)
(-0.42444 -0.0902811 -0.250889 -0.2002 0.225918 -0.0187951 0.747149 -0.517238 0.24069)
(-0.465494 -0.309494 -0.070512 0.125822 0.305014 0.223029 0.845824 -0.410377 0.179742)
(-0.242118 -0.30967 0.0108409 0.316391 0.201732 0.33925 0.875754 -0.44338 0.081023)
(0.00849292 -0.113104 0.00520867 0.329006 0.063405 0.207692 1.00687 -0.33225 -0.0884411)
(0.169708 -0.00451984 0.0191154 0.352402 0.0484868 -0.113927 1.03219 -0.0926934 -0.290437)
(0.222333 -0.00233837 0.0955439 0.489788 0.150064 -0.346997 0.659814 0.0494133 -0.377801)
(0.140914 0.00854282 0.192747 0.627663 0.144063 -0.31828 0.239648 0.120161 -0.279297)
(0.0914231 0.0373592 0.21841 0.589256 -0.0619602 -0.0491825 0.0626564 0.134301 -0.0828599)
(0.2188 0.173654 0.151635 0.459286 -0.207061 0.176378 0.124763 0.181255 0.0087143)
(0.342395 0.244113 0.0322864 0.306186 -0.231061 0.0677626 0.433874 0.400064 -0.104995)
(0.314931 0.156656 -0.0800523 0.26497 -0.0728298 -0.182818 0.571598 0.467022 -0.237452)
(0.172642 0.0826047 -0.0843817 0.287882 0.125533 -0.230705 0.315413 0.271247 -0.24791)
(-0.00588672 0.0781908 0.0145089 0.169462 0.172618 -0.0224141 -0.0702359 0.0905556 -0.166975)
(-0.133197 0.123491 0.0213199 -0.0345469 0.174317 0.132209 -0.38153 0.141562 -0.0500313)
(-0.194691 -0.0372024 -0.203305 0.0937198 0.125426 0.284208 -0.0229561 0.254398 0.0130618)
(-0.0317577 -0.221051 -0.178839 0.554274 0.161188 0.334921 -0.426717 -0.084406 -0.0552313)
(0.0837703 -0.265697 -0.0635296 0.73424 0.149141 0.333351 -0.801982 -0.291825 -0.173907)
(-0.0587889 -0.149449 0.0377327 0.677921 0.122661 0.272816 -0.793365 -0.213077 -0.0870927)
(-0.379199 0.00638112 -0.0386285 0.425105 0.165451 0.0759608 -0.510931 0.0117785 0.206863)
(-0.549504 -0.0208647 -0.13969 0.108311 0.0938631 -0.264599 -0.242779 0.224813 0.436919)
(-0.317048 -0.0928807 0.0100862 0.0992871 -0.0996565 -0.350704 -0.211782 0.263089 0.407133)
(0.012472 -0.057114 0.222728 0.194456 -0.245166 -0.152541 -0.204567 0.0713838 0.194645)
(0.133585 0.0136908 0.24419 0.183329 -0.214369 0.0169868 0.17519 -0.185641 -0.0325002)
(0.0938313 0.101798 0.0354261 0.103982 -0.0375361 0.018973 0.456776 -0.368814 -0.122981)
(-0.0692963 0.117494 -0.149747 0.0464478 0.0447613 0.0115063 0.374516 -0.376241 -0.00840691)
(-0.127691 0.0711591 -0.0464527 0.0281378 -0.0716802 0.134084 -0.0869317 -0.206638 0.156105)
(-0.0291042 0.0297893 0.183807 -0.130261 -0.111057 0.250617 -0.548715 -0.0560331 0.100985)
(0.119218 0.026513 0.22709 -0.373764 0.025485 0.208616 -0.219391 0.0926639 -0.251983)
(0.344082 0.0598108 -0.0831019 -0.393576 0.212363 -0.0566821 0.788693 0.406534 -0.551416)
(0.359292 -0.028033 -0.44813 -0.111335 0.150555 -0.337282 1.67799 0.837254 -0.432624)
(0.152445 -0.149836 -0.337292 0.208566 -0.132221 -0.322797 1.69494 1.15681 0.0675615)
(-0.0186427 -0.15767 0.176462 0.175921 -0.463763 -0.120722 0.855453 1.01121 0.528619)
(-0.167904 -0.0475123 0.579471 -0.129552 -0.557503 -0.0107579 -0.130981 0.452025 0.697119)
(-0.257721 0.055378 0.472277 -0.400239 -0.204636 -0.122829 -0.691171 0.00964564 0.467516)
(-0.229584 -0.06328 -0.0734041 -0.595583 0.21758 -0.372438 -0.589611 -0.191849 -0.0453671)
(-0.0818331 -0.187637 -0.468172 -0.627271 0.368024 -0.52294 -0.0523282 -0.249069 -0.350726)
(0.0182188 -0.133902 -0.46238 -0.642072 0.2723 -0.668239 0.404474 -0.172126 -0.197102)
(-0.0480092 0.00701889 -0.296359 -0.830452 -0.015124 -0.888057 0.349752 0.0248956 0.132845)
(-0.0713015 0.244445 -0.0998654 -0.947341 -0.238329 -0.861341 -0.26635 0.215243 0.410693)
(-0.0358504 0.350279 0.0659394 -0.928042 -0.31731 -0.435106 -1.05929 0.102633 0.524625)
(-0.0295314 0.134121 0.199336 -0.788476 -0.382875 0.161885 -1.66951 -0.214268 0.452766)
(-0.0257474 -0.163135 0.297246 -0.443215 -0.226695 0.576583 -1.76477 -0.54345 0.246707)
(-0.027067 -0.276134 0.203845 -0.0203369 0.146795 0.629186 -1.22026 -0.741178 -0.0948002)
(0.00337513 -0.154251 -0.082655 0.418396 0.373699 0.38551 -0.269731 -0.622951 -0.326005)
(0.106082 0.0205581 -0.290408 0.664148 0.301208 0.133025 0.326535 -0.184402 -0.344482)
(0.221518 0.0705008 -0.249327 0.651199 0.14949 0.0994354 0.402729 0.309239 -0.261896)
(0.162658 -0.0220844 -0.0205482 0.383171 0.0922632 0.130621 0.308183 0.599967 -0.150772)
(0.033993 -0.059873 0.177628 -0.0810184 0.179162 0.0277676 0.0536221 0.567398 -0.137783)
(0.0703467 0.06747 0.133608 -0.393744 0.293424 -0.225028 -0.0841108 0.370279 -0.277204)
(0.232944 0.161392 0.0159028 -0.583432 0.20594 -0.44413 0.0949291 0.254942 -0.443104)
(0.370694 0.183714 0.0582564 -0.616392 0.161459 -0.418427 0.358749 0.164967 -0.541503)
(0.301106 0.196878 0.19064 -0.586539 0.137068 -0.170084 0.549368 0.184793 -0.468419)
(0.0728447 0.211057 0.20961 -0.549385 0.085465 0.144163 0.580348 0.349252 -0.2808)
(-0.142204 0.158162 -0.00944514 -0.309102 0.122835 0.283288 0.346268 0.418234 -0.101169)
(0.343465 0.0387254 -0.0715344 -0.481018 -0.544882 -0.112479 0.430128 0.0367318 0.186773)
(0.239903 -0.214825 -0.121549 0.142646 -0.381316 0.1378 0.0407087 -0.0860869 0.138732)
(-0.0354822 -0.350409 -0.105867 0.281537 -0.0738976 0.306958 -0.614258 -0.178947 0.009142)
(-0.291175 -0.138985 -0.0343749 0.0654455 0.223461 0.272224 -0.956117 -0.263374 0.0257943)
(-0.496217 0.106424 -0.110051 -0.141052 0.290911 0.0932601 -0.905226 -0.416714 0.236126)
(-0.462542 -0.00795035 -0.175768 -0.0301097 0.0269645 -0.0100009 -0.676958 -0.543355 0.380764)
(-0.121885 -0.180766 -0.0362314 0.284823 -0.180045 0.0427435 -0.487858 -0.406004 0.301894)
(0.122997 -0.0906211 0.0458595 0.461619 -0.0579518 -0.0303267 0.0233228 -0.03534 -0.0318171)
(0.12986 0.129302 0.0172026 0.360868 0.193867 -0.314578 0.829164 0.331686 -0.373741)
(0.0869493 0.179274 0.025898 0.171787 0.324969 -0.514354 0.971254 0.410215 -0.430878)
(-0.0219918 -0.0754762 0.127938 0.141087 0.240542 -0.38606 0.350459 0.236105 -0.24944)
(-0.18472 -0.167069 0.199612 0.148982 0.00126791 -0.110748 -0.267031 0.0521674 0.106251)
(-0.263356 0.133073 0.104204 -0.137972 -0.137372 -0.0205433 -0.108058 -0.0551712 0.378379)
(-0.0899509 0.419038 -0.0849726 -0.471306 -0.165448 -0.107993 0.951497 0.127761 0.275785)
(0.319676 0.310152 -0.251868 -0.316056 -0.212412 -0.114677 1.87473 0.345573 -0.0162569)
(0.504377 -0.155434 -0.241337 0.255431 -0.363337 0.181029 1.77558 0.225364 -0.188682)
(0.255177 -0.461844 -0.0208204 0.651054 -0.28056 0.454118 1.01917 0.036215 -0.101404)
(-0.144025 -0.38066 0.171306 0.339983 0.0467423 0.174568 0.348406 0.00781127 0.0405586)
(-0.387723 -0.0605709 0.167243 -0.211333 0.336122 -0.319089 0.066511 0.347155 0.0145299)
(-0.330339 0.2009 0.016166 -0.306313 0.41329 -0.594946 0.164665 0.798757 -0.134556)
(-0.103467 0.117247 -0.13763 0.243827 0.246556 -0.545317 0.389328 0.700823 -0.187732)
(0.0440517 -0.0599643 -0.219665 0.893983 0.050587 -0.346398 0.392103 0.179814 -0.129834)
(-0.0484605 -0.0847143 -0.275057 0.807745 0.0382021 -0.275037 0.137863 -0.293316 -0.0583813)
(-0.211091 -0.037103 -0.215187 0.307242 0.129384 -0.184718 -0.143358 -0.322027 -0.00830184)
(-0.177084 0.0645277 0.0478567 0.077729 0.0950156 -0.0849261 -0.393843 0.0236953 0.13129)
(-0.107183 0.0610695 0.328905 0.0179443 -0.117528 -0.00935212 -0.713542 0.224715 0.327958)
(-0.0868024 -0.0134775 0.419654 -0.10861 -0.361337 0.0450103 -0.997981 0.150502 0.460723)
(0.0525316 0.0334409 0.25375 -0.229926 -0.4304 0.0900569 -1.02249 -0.00291085 0.403825)
(0.313637 0.0670148 -0.09051 -0.0926794 -0.329822 0.103761 -0.748101 -0.103525 0.0117406)
(0.433993 -0.0207539 -0.311552 0.387916 -0.174762 0.080204 -0.678611 -0.0722538 -0.376613)
(0.308797 -0.141767 -0.187069 0.833977 -0.101396 0.0490674 -1.10637 0.104876 -0.412375)
(0.0474026 -0.125742 0.0626769 0.832543 -0.0337265 0.108821 -1.31135 0.437032 -0.16301)
(-0.312778 0.0242223 0.128745 0.254193 0.0610934 0.333403 -1.0961 0.706624 0.096003)
(-0.397286 0.1537 -0.00662594 -0.426817 0.0383423 0.426968 -0.729956 0.592757 0.215782)
(-0.107363 0.180659 -0.143673 -0.802133 -0.0159544 0.279311 -0.21715 0.203017 0.0641839)
(0.193881 0.154464 -0.0895584 -0.739054 -0.131341 0.18873 0.223541 -0.224672 -0.180392)
(0.31807 0.116257 0.103071 -0.485299 -0.197049 0.197523 0.357985 -0.419504 -0.190275)
(0.226028 0.0457076 0.290744 -0.596858 -0.121329 0.170159 0.290263 -0.210354 -0.102348)
(0.173928 0.0814197 0.314396 -0.957943 -0.0619821 0.0515738 0.314736 0.113125 -0.0723669)
(0.266197 0.151513 0.105673 -1.01118 -0.308367 -0.129052 0.433502 0.184019 0.0491327)
(0.506989 -0.0715633 -0.0403592 -1.09242 -0.380203 -0.355113 0.29982 0.756078 -0.15657)
(0.424336 0.0459537 0.0636498 -1.2224 -0.167442 -0.264405 0.142865 0.700298 -0.278849)
(0.0292497 0.0687229 0.00866379 -1.13276 -0.128042 -0.166922 0.424764 0.224187 -0.0221986)
(-0.318989 0.057877 -0.0897166 -0.515794 -0.00585456 -0.25858 0.637643 -0.158465 0.281388)
(-0.4439 -0.095678 -0.204782 0.291623 0.0810059 -0.390434 0.227931 -0.1767 0.379869)
(-0.300674 -0.286112 -0.17155 0.91416 0.179018 -0.218962 -0.298664 0.173058 0.0972985)
(-0.0211218 -0.148913 -0.00562548 0.770081 0.249158 -0.0268957 -0.557203 0.414459 -0.24018)
(0.0655452 0.151362 0.00450075 0.100412 0.194142 -0.140214 -0.211393 0.173516 -0.36842)
(-0.0307127 0.240828 -0.050275 -0.350648 0.142555 -0.182018 0.264935 -0.246782 -0.294183)
(-0.0311263 0.13525 -0.00587834 -0.147223 0.0876017 -0.0176747 0.255881 -0.360757 -0.101897)
(-0.0778941 -0.0831795 0.103835 0.103088 -0.00420359 -0.143632 0.0542309 0.120126 0.0909917)
(-0.290744 -0.1643 0.182705 -0.378212 0.169117 -0.554726 -0.208451 0.479083 0.208127)
(-0.401313 -0.0551279 0.178124 -0.79942 0.369401 -0.639826 -0.243863 0.167906 0.0902258)
(-0.00055209 0.0197683 0.145451 -0.763716 -0.0172974 -0.386686 0.160832 -0.0827043 -0.131953)
(0.752982 -0.0293637 0.0650479 -0.638481 -0.714432 -0.0384064 0.554214 0.265683 -0.243025)
(0.919589 -0.0781733 -0.107549 -0.622192 -1.18161 0.10466 0.637868 1.14791 0.111672)
(0.209622 0.0537663 -0.312159 -0.6845 -0.842756 0.0221208 0.700835 1.98532 0.601131)
(-0.517905 0.170906 -0.261415 -0.6981 -0.00856627 0.0223091 0.650201 1.96884 0.502766)
(-0.553513 0.158658 0.106654 -0.368848 0.418494 0.225444 0.0868847 0.846383 0.0179288)
(-0.00684027 0.0179471 0.302808 0.464969 0.155312 0.391881 0.030443 -0.525799 -0.247426)
(0.460902 -0.252042 0.0613586 1.66181 -0.293171 0.298053 0.881042 -1.18765 -0.175335)
(0.24863 -0.29389 -0.292667 2.49249 -0.131238 -0.0158587 1.28459 -1.00897 0.0111864)
(-0.319769 -0.0848522 -0.353877 2.31609 0.383306 -0.0994205 0.624008 -0.631681 0.0981207)
(-0.475818 0.0351451 -0.181429 1.58566 0.407885 0.275192 -0.36626 -0.324664 0.209231)
(-0.244581 0.0883991 0.0127778 0.992065 0.05279 0.497455 -0.892091 0.0518792 0.367156)
(-0.147752 0.0658097 0.163366 0.959531 -0.194539 0.241177 -0.915484 0.446168 0.43801)
(-0.174963 -0.0562991 0.275613 1.25281 -0.255769 -0.188043 -0.873769 0.647722 0.447588)
(-0.00961506 -0.127425 0.326525 1.09167 -0.302343 -0.428474 -1.00328 0.462788 0.385005)
(0.353442 -0.100304 0.171495 0.330887 -0.352361 -0.314834 -0.937283 0.157519 0.104912)
(0.566761 -0.0128858 -0.134417 -0.59899 -0.284413 0.00678112 -0.652709 0.189602 -0.239472)
(0.37605 0.0855767 -0.264819 -0.96623 -0.140958 0.191251 -0.597079 0.430217 -0.289826)
(-0.122308 0.144571 -0.060095 -0.749208 0.123252 -0.106279 -0.658563 0.727761 0.0129663)
(-0.593018 0.0228976 0.17301 -0.391501 0.304289 -0.614083 -0.706993 0.857412 0.270877)
(-0.602808 -0.0840318 0.130267 -0.0418223 0.226153 -0.682587 -0.716315 0.524926 0.288583)
(-0.122453 -0.0182248 -0.026387 0.0227729 0.0472466 -0.180818 -0.367198 0.104057 0.0214092)
(0.408626 0.0583156 -0.0399579 0.0941937 -0.201435 0.610034 0.0245234 -0.0512419 -0.23631)
(0.446348 0.183242 0.0518274 0.0333165 -0.426662 0.9634 0.0414469 -0.0814816 -0.0180782)
(0.0268997 0.259535 0.117181 -0.270735 -0.461334 0.644567 0.0675347 -0.0500111 0.411521)
(-0.152346 0.0934564 0.0498758 -0.576932 -0.279985 0.127796 0.246338 0.128801 0.487709)
(0.164745 -0.115623 -0.0917791 -0.95729 -0.367073 -0.258313 0.375593 0.423539 0.203762)
(0.222006 0.131352 -0.0718312 -1.14155 0.141899 -0.057762 0.467168 -0.337397 -0.359293)
(0.235937 -0.0614301 -0.00792581 -1.22531 0.143464 -0.0109575 0.533459 -0.321236 -0.322181)
(0.333778 -0.229187 -0.0924532 -1.15812 -0.304095 0.0723596 0.763668 -0.280199 -0.151306)
(0.43878 -0.0135751 -0.154349 -0.927682 -0.463327 -0.0673109 0.486197 -0.155243 0.0202735)
(0.243891 0.18311 -0.098294 -0.719305 -0.508128 -0.0690988 -0.118413 -0.103174 0.248613)
(-0.201772 0.0532185 0.011564 -0.089063 -0.445057 0.18526 -0.690077 -0.0825198 0.47923)
(-0.531186 -0.170091 0.0070482 0.474903 0.0235029 0.342112 -0.738795 -0.0788353 0.463443)
(-0.45856 -0.12343 -0.037674 0.540285 0.349863 0.428437 -0.255544 -0.0689192 0.0447934)
(-0.0120922 0.084659 0.0740802 0.363148 0.112564 0.609997 0.0867556 0.0468 -0.27408)
(0.309541 0.0997994 0.0427473 0.115925 -0.209816 0.59538 0.596368 0.179738 -0.0860423)
(-0.145862 -0.0342581 -0.150432 -0.297235 -0.0899882 0.0112124 0.965417 0.528168 0.27216)
(-0.658476 0.0253079 -0.0570917 -0.419905 0.428817 -0.487321 0.644011 0.683994 0.275947)
(-0.474149 0.0200901 0.197342 0.389849 0.355115 -0.552169 0.19893 0.330152 0.129503)
(0.000943442 -0.174638 0.245266 0.956162 -0.202376 -0.482469 0.0126482 0.122425 0.0986495)
(0.43187 -0.319478 0.029633 0.625676 -0.479651 -0.440864 -0.03826 0.33202 -0.0495603)
(0.518482 -0.214397 -0.198041 -0.474845 -0.461024 -0.759423 -0.138321 0.595184 -0.23894)
(0.211997 0.188295 -0.0896704 -1.06276 -0.139982 -0.830624 0.028539 0.521463 -0.273554)
(-0.0157115 0.318107 0.236502 -0.0510977 0.198347 -0.160252 0.826574 0.36861 -0.205635)
(0.195301 0.043645 0.351783 1.46924 0.00831383 0.423663 1.93119 0.201606 -0.132511)
(0.743345 -0.181714 0.0795792 2.00104 -0.546992 0.312092 2.85196 -0.0975751 -0.120571)
(0.990515 -0.0637023 -0.329208 1.37513 -0.622466 -0.00312483 2.8915 -0.0808856 -0.34598)
(0.399122 0.266633 -0.430704 0.60155 -0.0374217 0.0875795 1.59083 -0.0894047 -0.48275)
(-0.539475 0.192515 -0.132555 0.779435 0.426091 0.555111 -0.0716954 -0.140301 -0.165962)
(-0.916045 -0.200498 0.0948255 1.18522 0.311358 0.878239 -0.57135 0.00271919 0.320959)
(-0.505207 -0.243096 0.0271737 0.759795 -0.069009 0.814012 -0.310211 -0.00113177 0.407098)
(0.0232121 -0.0971749 -0.0386688 0.151112 -0.295041 0.603652 -0.0513735 -0.140681 0.113904)
(-0.0268707 -0.0728105 0.0621856 -0.142852 -0.0104782 0.536344 -0.229015 -0.193529 -0.0915416)
(-0.427216 -0.0308643 0.195168 -0.32967 0.379711 0.241235 -0.943605 -0.0523552 -0.0226159)
(-0.552158 0.0610151 0.157152 -0.424147 0.531581 -0.280707 -1.33995 0.194206 -0.0126811)
(-0.220968 0.0886755 -0.0351869 -0.701208 0.432848 -0.560743 -1.10571 0.603034 -0.243277)
(0.237666 0.0885536 -0.252282 -1.17977 0.226091 -0.437445 -0.779963 0.694952 -0.446675)
(0.327517 0.127814 -0.362631 -1.39012 0.233223 -0.233606 -0.67031 0.569218 -0.402122)
(0.0255009 0.0770186 -0.163593 -0.874188 0.23605 -0.229224 -1.0208 0.546984 -0.190014)
(-0.202943 -0.000108686 0.228632 -0.250841 0.146637 -0.215081 -1.45579 0.188053 0.0666032)
(-0.0387902 -0.0573184 0.531722 0.300835 -0.165649 -0.147868 -1.4836 -0.294919 0.222118)
(0.218838 -0.0979877 0.503364 0.151185 -0.212847 0.0592688 -1.08207 -0.571923 0.125263)
(0.142075 -0.0113015 0.116168 -0.679137 -0.0463389 0.250834 -0.406005 -0.654675 0.0623811)
(-0.105904 0.140586 -0.154751 -0.995617 0.03652 0.425509 0.271319 -0.601517 0.169294)
(-0.20881 0.130988 -0.173969 -0.800046 0.193553 0.432439 0.622162 -0.481248 0.0679731)
(-0.00812166 0.0756764 -0.160622 -0.938798 0.0294797 0.135021 0.60958 -0.393945 -0.170731)
(0.347129 0.000178895 -0.111462 -0.523363 -0.297522 -0.034252 -0.021214 -0.103813 -0.0967877)
(0.399453 -0.172303 0.117967 -0.221538 -0.487374 0.29399 0.0216339 -0.27941 -0.0159035)
(0.196084 -0.242032 -0.0268777 -0.114134 -0.184433 0.155626 -0.0710056 -0.333901 -0.105712)
(-0.0449264 -0.0440018 -0.161723 -0.435856 0.213056 0.0649089 -0.268862 -0.320599 -0.0399313)
(0.010693 -0.0617771 -0.0770259 -1.43809 -0.00414302 0.500087 -0.78405 -0.223416 0.132732)
(0.266577 -0.00672445 0.0373351 -1.73265 -0.454847 1.0277 -0.918042 0.158831 0.234945)
(0.226681 0.22076 0.109205 -0.683824 -0.616739 0.915637 -0.52038 0.175278 0.470968)