/*--------------------------------*- C++ -*----------------------------------*\
  =========                 |
  \\      /  F ield         | OpenFOAM: The Open Source CFD Toolbox
   \\    /   O peration     | Website:  https://openfoam.org
    \\  /    A nd           | Version:  10
     \\/     M anipulation  |
\*---------------------------------------------------------------------------*/
FoamFile
{
    format      ascii;
    class       surfaceScalarField;
    location    "9";
    object      phi_0;
}
// * * * * * * * * * * * * * * * * * * * * * * * * * * * * * * * * * * * * * //

dimensions      [0 3 -1 0 0 0 0];

internalField   nonuniform List<scalar> 
74080
(
0.00523615
-1.30487e-06
0.000290589
0.00513297
-2.29169e-05
0.000115297
0.00507598
-3.39575e-05
-4.20373e-05
0.00508187
-2.36786e-05
-0.000128249
0.00513169
7.05257e-06
-0.000144581
0.00519345
8.42388e-05
-9.67154e-05
0.00523399
0.000133193
-7.29567e-05
0.00524186
0.000142355
-0.000129391
0.00525087
0.000138085
-0.000176897
0.00527652
9.15908e-05
-0.000166717
0.00530247
5.29794e-05
-9.74459e-05
0.00533928
2.08237e-05
-1.92568e-05
0.00537053
-3.48235e-06
-8.80583e-06
0.00537341
1.65176e-05
-3.60521e-05
0.00533459
2.0552e-05
-7.80982e-05
0.00525416
8.39787e-06
-8.95622e-05
0.00518699
-2.96911e-05
-3.02142e-05
0.00518152
-8.23677e-05
8.47827e-06
0.00523279
-3.25527e-05
-6.31501e-06
0.00533684
6.41587e-05
-6.13884e-05
0.00543502
0.000185223
-0.000154689
0.00545409
0.000276797
-0.000179188
0.00540382
0.000182931
-9.54561e-05
0.00530892
1.55013e-05
4.39571e-05
0.00522137
-0.000115434
0.000133726
0.00517578
-0.000187012
9.99238e-05
0.0051612
-0.000160055
3.1948e-05
0.00517313
-0.000108562
2.66492e-05
0.00517922
-9.9235e-05
8.5604e-05
0.00515797
-0.000104838
0.000150491
0.00511036
-0.000128373
0.000143805
0.00507945
-0.000168749
2.47439e-05
0.00507988
-0.000186411
-0.000133881
0.00511136
-0.000164611
-0.000238077
0.00517643
-0.000104646
-0.000218309
0.00522573
1.90161e-05
-0.000115321
0.00528119
0.000107807
3.21583e-05
0.00534776
0.000123352
0.00019834
0.00536238
9.6369e-05
0.000314012
3.21362e-05
0.000358884
0.0048246
0.000164401
0.000194738
0.00477002
0.000105411
1.70326e-05
0.00475883
1.06698e-05
-7.54188e-05
0.00477317
-4.54312e-05
-9.71722e-05
0.00476904
-2.63778e-05
-6.46869e-05
0.004751
6.3063e-05
-3.83924e-05
0.0047453
0.000101372
-7.30193e-05
0.00475309
0.000108465
-0.000155233
0.00479992
9.09647e-05
-0.000201451
0.00485939
4.00876e-05
-0.000167177
0.00489366
1.72365e-05
-8.83603e-05
0.00490752
-1.62257e-05
-1.14917e-05
0.00489824
-3.43322e-05
3.45387e-05
0.00489446
-9.23478e-06
3.84249e-05
0.00490231
9.49383e-06
3.80629e-05
0.00489254
3.50834e-05
6.18156e-05
0.0048598
1.0725e-05
8.22904e-05
0.00480114
-4.28177e-05
8.1113e-05
0.00477478
-3.2694e-05
4.93545e-05
0.00485636
-2.37684e-05
-9.65979e-06
0.00503393
3.72048e-05
-4.24283e-05
0.00522475
0.000103218
3.28627e-05
0.00527978
6.04282e-05
0.000232598
0.00513635
2.20604e-05
0.000397428
0.0049162
-1.13568e-05
0.000345463
0.00473606
-5.36821e-05
9.05684e-05
0.00465247
-7.28877e-05
-0.000161849
0.00462243
-0.000104228
-0.000250842
0.00456952
-0.00015198
-0.000173077
0.00447213
-0.000187591
-2.12098e-05
0.00435232
-0.000220733
8.80579e-05
0.00426687
-0.000271837
6.63122e-05
0.00423788
-0.000263854
-6.10449e-05
0.00427293
-0.00019222
-0.000208909
0.00436591
-9.53635e-05
-0.000291058
0.00449188
3.3514e-05
-0.000252252
0.00466571
7.0926e-05
-7.9975e-05
0.00482942
6.41492e-05
0.000152011
0.00490974
9.70836e-05
0.000296717
0.000133474
0.000319829
0.00457066
0.000221237
9.48629e-05
0.00447429
0.000161141
4.63386e-05
0.00440925
1.06279e-05
2.17664e-05
0.00441666
-0.000110794
-2.04338e-05
0.00444179
-0.000105801
5.7085e-06
0.00440709
-1.02425e-05
8.26299e-05
0.00430704
1.85688e-05
0.00013577
0.00421351
1.92218e-05
0.000123775
0.00420808
1.21313e-05
3.11328e-05
0.00429362
-3.48543e-06
-1.07493e-05
0.00441994
-1.49403e-05
6.19739e-06
0.00451662
-7.70638e-05
6.91531e-05
0.00451684
-9.38784e-05
0.000179485
0.00444221
-3.49265e-05
0.000243881
0.00437598
5.45634e-05
0.000250918
0.00438883
0.000139991
0.000180078
0.00445413
0.000123729
2.91407e-05
0.00445703
8.30296e-05
-6.86721e-05
0.00438361
4.56701e-05
-5.95158e-05
0.00432206
-4.88651e-05
2.57541e-05
0.00438612
-0.000115601
0.000192698
0.00458994
-0.000167368
0.000393926
0.00475
-0.000176204
0.000560965
0.00471268
-7.67866e-05
0.000607132
0.0044874
2.06711e-05
0.000422797
0.00420559
6.09106e-05
9.60468e-05
0.0039921
4.61572e-05
-0.000180689
0.00385996
-5.27445e-05
-0.00025661
0.00379455
-0.000181098
-0.000167174
0.00377276
-0.000255579
-1.18633e-05
0.0037723
-0.00025706
8.00397e-05
0.00378466
-0.000270378
4.32646e-05
0.00380939
-0.000251075
-0.000123584
0.00387677
-0.000205557
-0.000345918
0.00398161
-0.000141246
-0.000452326
0.00412202
-2.70312e-05
-0.000350027
0.00428578
1.2109e-05
-8.56371e-05
0.00443024
1.68341e-05
0.000144505
0.00455713
6.28188e-05
0.00019087
0.000143145
0.000160524
0.00401736
0.000269674
2.2811e-05
0.00395104
0.000204042
-0.00010332
0.00390087
4.41872e-05
-0.000195041
0.00387086
-0.000102605
-0.000158913
0.00382034
-0.000113937
6.71051e-05
0.00374534
-3.6248e-05
0.00026243
0.00368838
-3.72527e-05
0.00024883
0.00370333
-6.23881e-05
5.54963e-05
0.00378323
-7.7586e-05
-0.000114926
0.00384803
-5.51695e-05
-0.000100858
0.00385621
-1.54452e-05
-3.25097e-05
0.00383177
-2.86744e-05
-3.40506e-05
0.00382452
-2.05156e-05
-8.27744e-05
0.00385979
2.10639e-05
-8.22619e-05
0.00389948
0.00011538
3.09383e-05
0.00393713
0.00018849
0.000104304
0.00397012
0.000134851
2.80817e-05
0.0039855
6.32206e-05
-3.96011e-05
0.00399365
-6.87744e-06
5.99311e-06
0.00398179
-7.3676e-05
0.000154602
0.0039924
-0.000135722
0.000335851
0.00404554
-0.00023958
0.000398915
0.00406404
-0.000270988
0.000424087
0.00405194
-0.000219534
0.000462587
0.00402464
-0.000120508
0.000377014
0.00392814
3.89313e-05
0.000148084
0.00378002
0.0001348
-8.85294e-05
0.00362471
6.46062e-05
-0.000178328
0.00352811
-9.81896e-05
-0.000145525
0.00352501
-0.000219924
-0.000138367
0.00359761
-0.000228462
-0.000214222
0.00367462
-0.000212299
-0.000295128
0.0037189
-0.000196225
-0.000245796
0.00376189
-0.000220564
-7.27609e-05
0.00383105
-0.000214263
9.83726e-05
0.00395683
-0.000112109
0.00016624
0.0040751
-1.70996e-05
0.000135286
0.00412696
5.63117e-05
6.94924e-05
0.00413035
0.000118687
5.60823e-05
0.00020443
8.8322e-05
0.00369506
0.000313114
0.000127902
0.00367295
0.000248637
1.81207e-05
0.00369969
9.0219e-05
-9.91133e-05
0.00368689
-5.65411e-05
-0.000112608
0.00356041
-5.01688e-05
-3.44583e-05
0.00338741
-3.128e-07
-7.80085e-05
0.00327781
-6.34196e-05
-0.00016673
0.00327616
-0.000133715
-0.000134812
0.00333153
-0.000134479
4.2079e-06
0.00335744
-6.50513e-05
0.000132776
0.00333398
-7.95055e-08
8.16038e-05
0.0032919
-5.07026e-05
-1.6549e-05
0.00328386
-5.06785e-05
-7.99701e-06
0.00332583
4.7104e-05
0.000100792
0.00343013
0.000188532
0.00018353
0.00354871
0.000216302
6.38485e-05
0.0036034
7.75319e-05
-0.000180603
0.00359301
-9.48441e-05
-0.000228035
0.00354677
-0.000197991
-3.70036e-06
0.00345148
-0.000146582
0.000335339
0.00337805
-6.36132e-05
0.00046081
0.0033639
-0.000117329
0.000254704
0.00335383
-0.000192532
2.03358e-05
0.00334807
-0.000231654
-0.000133359
0.003329
-0.000203141
-0.000236851
0.00329913
-7.10509e-05
-0.00026251
0.00330067
2.47558e-06
-0.000225935
0.00330013
-1.3954e-05
-9.75563e-05
0.00328037
-6.36481e-05
6.17933e-05
0.00327873
-0.000119391
6.63087e-05
0.00332447
-0.000154358
-0.000121393
0.00339176
-0.000185964
-0.000334352
0.00344092
-0.000187012
-0.000418116
0.00346004
-0.000180114
-0.000339821
0.00347364
-0.000124341
-0.000210781
0.00355748
-4.39822e-05
-0.000175532
0.00367734
3.99844e-05
-0.000169752
0.00376837
0.000110394
-0.000101692
0.00379611
0.000163647
5.03924e-05
0.000259186
0.000176197
0.00344656
0.00014059
0.000307083
0.00350298
0.000129783
0.000280079
0.00349861
6.32817e-05
0.000175788
0.00341631
4.39483e-06
8.6483e-05
0.00326376
2.80807e-05
6.80885e-05
0.00313431
5.76972e-06
-4.27809e-05
0.00309191
-0.000125977
-0.000108821
0.00312158
-0.00016509
-8.45257e-05
0.00317365
-8.9794e-05
-6.37916e-05
0.00319373
3.16577e-05
-6.60184e-05
0.00318559
7.56748e-05
-7.21112e-05
0.00313534
-4.13403e-05
5.75107e-05
0.00305317
-9.39255e-05
0.00024966
0.00302594
-1.64986e-05
0.000311715
0.00311833
9.8129e-05
0.000183068
0.00327038
0.000109731
-5.74617e-05
0.00335294
1.87264e-06
-0.00019077
0.00330429
-7.1325e-05
-0.000149094
0.00319171
-9.41004e-05
-3.88677e-05
0.00308814
-2.29677e-05
9.10533e-05
0.00306217
1.39382e-05
0.000139314
0.0030743
-8.38483e-05
6.97715e-05
0.00305601
-0.000152586
-8.6079e-05
0.00300587
-0.000165459
-0.000324131
0.00294639
-0.000157385
-0.000476018
0.00290318
-9.98148e-05
-0.000396116
0.00288964
-0.000104321
-0.000150272
0.00290764
-0.00013471
7.22641e-05
0.00299259
-0.000145729
0.000111565
0.00312131
-0.000147576
-4.2001e-05
0.00322273
-0.000162292
-0.000171531
0.00322885
-0.000175053
-0.000140732
0.00313469
-0.000148747
-6.12757e-05
0.00302358
-0.000158317
-5.54178e-05
0.00298501
-0.00013045
-0.000176683
0.00304852
-8.45381e-05
-0.000323432
0.0031393
-2.28335e-05
-0.000302055
0.00320478
6.1781e-05
-0.000145157
0.00325336
0.000129961
8.6095e-05
0.000152941
0.000271949
0.00300979
4.52926e-05
3.80914e-06
0.00310613
9.88203e-05
2.08818e-05
0.00312782
3.73667e-05
4.37435e-05
0.00304356
7.72833e-06
4.52707e-05
0.00291493
5.51135e-05
6.78736e-06
0.0028444
5.13399e-05
-0.000185002
0.00282955
-5.75986e-05
-0.000288303
0.00284362
-0.000100608
-0.000267662
0.00285028
-4.39078e-05
-0.000239862
0.00283183
5.09364e-05
-0.000205611
0.00281193
6.42336e-05
-0.00019946
0.00273469
-8.02431e-06
-0.000148861
0.0026181
3.47328e-06
-4.84044e-05
0.00263241
-1.54706e-05
6.38006e-05
0.00282639
-6.85883e-05
0.000187108
0.00307485
-0.000204827
0.00025911
0.00313888
-0.000243156
0.000173997
0.0029932
-8.60491e-05
-7.69917e-05
0.00284179
2.66602e-05
-0.000190062
0.00284278
2.79183e-05
-2.51016e-05
0.00296755
-6.53979e-05
0.000162438
0.00302827
-0.000145172
0.000114964
0.00294683
-7.73356e-05
-9.6253e-05
0.0028299
-8.20511e-05
-0.000251694
0.00274898
-0.000165462
-0.000306401
0.00270613
-0.000166688
-0.000286774
0.0026728
-0.000185962
-0.000200798
0.0026673
-0.000233538
-4.6458e-05
0.00275461
-0.000261002
9.29638e-05
0.00290613
-0.000236301
0.000113447
0.003023
-0.000198863
1.8984e-05
0.00297837
-0.000139443
-3.87236e-05
0.00281553
-6.67511e-05
6.5448e-06
0.00266057
-9.21783e-05
9.93587e-05
0.00262784
-0.000109727
8.20241e-05
0.00273646
-0.000131774
-1.95632e-05
0.0028518
-0.000129277
-2.64903e-05
0.00286426
-5.08148e-05
3.95799e-05
0.00281401
6.21667e-05
9.58119e-05
5.48228e-05
7.70967e-05
0.00254312
7.56109e-05
-5.23106e-06
0.00258666
0.000125402
-1.16622e-05
0.00268715
-3.69042e-05
1.39994e-05
0.00278696
-0.00010394
2.45381e-05
0.00284081
-6.17338e-05
1.42282e-05
0.00280725
-4.48932e-05
-5.14046e-05
0.00266254
-4.19873e-05
-0.000103567
0.0025474
-2.01915e-05
-0.000168694
0.00256205
-2.28497e-05
-0.000191551
0.00262388
4.40843e-06
-0.000130153
0.00259337
5.51346e-05
-0.000164286
0.00243091
0.00011353
-0.000249673
0.00230875
0.000101715
-0.000184087
0.00232055
-5.99839e-05
8.08213e-06
0.00241566
-0.000178601
0.000173755
0.0025444
-0.000289528
0.000146587
0.00260927
-0.000243435
9.14437e-06
0.00259725
-2.55659e-05
4.51336e-06
0.00263788
2.19928e-05
0.00015889
0.00282565
-0.000129367
0.000261249
0.00306725
-0.000224632
0.000124682
0.00315963
-0.000135178
-0.000109122
0.00303685
4.87951e-05
-0.000202968
0.00282014
6.44161e-06
-0.000149972
0.0026776
-0.000164475
-0.000123582
0.00268663
-0.000217996
-0.000144658
0.00269143
-0.000160673
-0.000126323
0.00258345
-0.000115416
-3.78008e-05
0.00243776
-0.000112274
2.89985e-05
0.00238793
-0.000136138
-1.326e-05
0.00246033
-0.000171384
-0.000116442
0.00252497
-0.00010639
-0.000212896
0.00253012
-2.14666e-05
-0.000271659
0.00248775
-7.07205e-05
-0.000198881
0.00248207
-0.000163958
-5.19917e-05
0.00252865
-0.000197225
0.00010013
0.00256289
-0.000154286
0.00021212
0.00253768
-4.5504e-05
0.000221389
0.00247779
0.000104446
0.000187131
6.45653e-05
0.000100664
0.00221796
1.40753e-05
0.000101083
0.00229948
1.9788e-05
0.000136314
0.00236237
-8.61843e-05
0.000117132
0.00233854
-6.43992e-05
3.3288e-05
0.0023384
-8.37281e-05
7.90767e-06
0.00241229
-0.00016994
2.0687e-05
0.0024478
-0.000180726
6.27421e-05
0.00244328
-0.000166896
0.000120715
0.00240659
-0.000123277
0.000151259
0.00232022
7.57473e-05
7.01252e-05
0.00225528
0.000169428
-0.000113819
0.00224992
0.000154731
-0.000214668
0.0022989
3.53002e-05
-0.00015856
0.00233611
-0.000167623
-7.09612e-05
0.00233417
-0.000136488
-9.44091e-05
0.00236195
-0.000160108
-0.000226087
0.00245939
-0.000133431
-0.000299872
0.00260782
3.07825e-05
-0.000247287
0.00271537
1.56217e-05
-6.24294e-05
0.0027222
-8.74378e-05
8.75016e-05
0.00268745
-0.000100956
0.000117668
0.0026741
-5.6881e-06
9.65996e-05
0.0026726
0.000151391
3.36308e-05
0.00256608
0.000121006
-3.26124e-05
0.00237639
-5.90837e-05
-6.9729e-05
0.00225746
-0.000128172
-0.000100853
0.0021822
-7.93166e-05
-3.88666e-05
0.0021396
-7.00743e-05
2.96881e-05
0.00214666
-7.43136e-05
-3.06523e-05
0.00218981
-0.000103536
-0.000151317
0.00221119
-0.000140769
-0.000210464
0.00220564
-8.09384e-05
-0.000203277
0.00220772
2.61994e-05
-0.000189795
0.00221046
-2.45572e-05
-0.000149163
0.00222749
-0.000185505
-0.000119706
0.00220564
-0.000219278
-3.22285e-05
0.00218537
-0.000187732
9.04426e-05
0.00217024
-5.11751e-05
0.000185318
0.002134
0.000155812
0.000249242
6.13648e-05
0.000183971
0.00202023
2.18002e-06
5.97093e-05
0.00210922
1.95316e-05
7.33019e-05
0.00216889
-7.79456e-05
2.86702e-05
0.00211787
-1.89555e-05
5.05989e-07
0.00206081
-2.8739e-05
5.29677e-05
0.0021024
-0.000136775
0.000106252
0.00222148
-0.000199247
6.5534e-05
0.00232498
-0.000162701
5.74508e-05
0.00224791
-5.15346e-05
0.00013368
0.00206649
0.000149115
5.34659e-05
0.0020747
0.000102566
-0.000140003
0.00220263
5.48767e-05
-0.000109927
0.00220244
8.43119e-05
5.56834e-05
0.00203481
6.01823e-05
1.59223e-05
0.0018118
0.000124219
-0.000201662
0.00172516
-8.24763e-05
-0.000416707
0.0019155
-0.00027839
-0.000456944
0.00222466
-0.000182804
-0.0002569
0.00236159
-8.67033e-05
6.56494e-05
0.00231552
-7.46588e-05
0.000316745
0.00221402
-2.09377e-05
0.000402547
0.00217316
9.63694e-05
0.000219556
0.00218131
0.000290868
-0.000108396
0.00215923
0.000213045
-0.00021766
0.00209671
-4.67861e-05
-0.000117562
0.00201408
-4.08333e-05
-8.37127e-05
0.00191354
9.0002e-05
-9.34979e-05
0.00186456
7.37852e-06
-6.98083e-05
0.00189475
-0.000111795
-7.75785e-05
0.00198181
-0.000226557
-0.000104508
0.00206669
-0.000306502
-8.05896e-05
0.00209198
-0.000219305
-5.27857e-05
0.00208382
-1.20785e-05
-5.21454e-05
0.00209863
-1.26937e-05
-6.02249e-05
0.00211111
-0.000105415
-0.0001055
0.00201466
-5.85247e-05
-6.41182e-05
0.00193048
-0.000120995
-2.39321e-05
0.00193119
-6.01203e-05
1.49748e-05
0.00193405
0.000123393
0.000103098
-2.16667e-05
8.50578e-05
0.00183827
1.11559e-05
0.000111364
0.0018219
5.58686e-05
7.99912e-05
0.00178563
-8.44982e-05
1.15247e-05
0.00174559
-1.72019e-05
-5.70245e-05
0.00176671
-2.19142e-05
1.69041e-05
0.00186072
-0.000105353
9.49911e-05
0.00189468
-6.96227e-05
7.60447e-05
0.0018056
2.51974e-05
1.55508e-05
0.00173183
-2.58376e-05
4.21297e-05
0.00184003
-4.43655e-05
0.000102531
0.00205612
-7.4016e-05
0.000130954
0.00206517
9.08763e-05
0.000127165
0.00192172
0.000179306
9.43767e-05
0.00180366
8.73209e-05
8.49505e-05
0.00170373
0.000157227
-3.02127e-05
0.00165818
-6.97499e-05
-0.000180956
0.00169266
-0.000244593
-0.000291098
0.00175321
-8.55324e-05
-0.000249547
0.00175924
-1.54331e-05
-4.28836e-05
0.00173158
-7.93676e-05
8.71626e-05
0.00173144
-7.6722e-05
0.000122421
0.0017914
4.12462e-05
2.61987e-05
0.00184216
0.000233382
-0.000171786
0.00182934
0.000101923
-0.000228703
0.00179238
-0.000242285
-7.27626e-05
0.00178476
-0.000222024
3.06121e-05
0.00178558
8.04116e-05
-6.85203e-06
0.00179186
0.000138613
-5.84712e-05
0.00177016
4.19145e-05
-3.48442e-05
0.00174724
-0.00014597
4.78556e-05
0.00177779
-0.000359718
4.568e-05
0.00184055
-0.000287012
-0.000127982
0.00189859
5.94829e-06
-7.80473e-05
0.00194901
6.24894e-06
0.00014831
0.00199977
-0.000122997
0.000120872
0.00196325
2.88896e-05
4.37707e-05
0.0018822
-2.65253e-05
4.01604e-05
0.00183532
6.57982e-07
4.68852e-05
0.00181666
0.000110329
0.000181884
-8.92663e-05
0.000207153
0.00160233
0.000239329
3.20405e-05
0.00163529
0.000147447
-5.5354e-06
0.00169518
-9.21501e-05
1.31169e-05
0.00167385
1.25405e-05
-4.37984e-05
0.00163912
8.53265e-05
-5.56663e-05
0.00163833
2.97514e-05
-5.50037e-06
0.00163357
5.82002e-05
7.57753e-05
0.00160777
0.000130003
8.4605e-05
0.00159859
-1.53381e-05
0.000150247
0.00161227
-6.45914e-05
0.000258501
0.00168227
-7.32735e-05
0.000272858
0.00178163
9.4667e-05
0.000137817
0.00187213
0.000115713
4.32394e-05
0.00187184
-3.12807e-05
1.02049e-05
0.00178772
0.000173725
-0.000100509
0.00176698
-5.62095e-05
6.29575e-06
0.0017364
-0.000153714
2.07942e-05
0.00167197
0.000114808
-7.77722e-05
0.00167439
5.05637e-05
-7.41029e-06
0.00174642
-0.000214159
6.7893e-05
0.0017706
-0.000180032
5.54137e-05
0.00172869
-1.55857e-05
4.07229e-05
0.00169269
0.000188444
-0.000127903
0.00166482
0.000140926
-0.000225993
0.00162125
-0.000223406
-6.36969e-05
0.00159052
-0.000287366
8.04253e-05
0.00163759
-1.82676e-05
8.98697e-05
0.00169926
6.76102e-05
3.14964e-05
0.00165729
3.4608e-05
7.05088e-05
0.00160473
-0.000179647
0.000150814
0.00155357
-0.000435715
0.000180927
0.00147705
-0.00022123
4.85744e-06
0.0015756
0.000117718
-7.39354e-05
0.00182253
-5.90437e-05
6.30845e-05
0.00195498
-0.000209358
1.9896e-06
0.00190355
1.96162e-05
1.63402e-05
0.00179985
-3.22681e-05
0.000167482
0.00175885
-2.83587e-05
0.000202964
0.00178077
0.000100479
0.000165142
1.96959e-05
0.000149171
0.00157579
0.00036445
0.000114303
0.00163499
0.000128091
7.64424e-05
0.00165457
-0.000191046
3.21942e-05
0.00149245
9.88148e-05
7.02453e-05
0.00140535
0.000186263
0.000103102
0.00152811
-2.96502e-05
-2.31626e-05
0.00165837
3.41037e-05
-2.399e-05
0.00166106
0.000253207
4.51068e-05
0.00159209
0.000138721
2.52195e-05
0.00148163
4.29118e-06
7.84355e-05
0.00141753
-6.38251e-05
0.000198538
0.00149435
-1.56263e-05
0.000297801
0.00157957
-8.23307e-05
0.000319466
0.00152594
2.97467e-05
0.000125042
0.0015108
0.000330039
-1.28583e-05
0.00155897
-6.04391e-05
4.96611e-05
0.00156115
-0.000185113
6.87815e-05
0.00158253
0.000151734
2.61955e-06
0.0015377
0.000143251
8.64929e-05
0.001419
-0.000123113
0.00010843
0.0014156
-0.000241527
8.63694e-05
0.00148555
-0.000138399
5.81081e-05
0.00156347
6.44854e-05
-4.56919e-05
0.00165939
-1.12422e-05
-8.96584e-05
0.0016471
-0.000266556
2.28821e-05
0.00154867
-0.000155403
9.48135e-05
0.0015358
-1.68965e-05
0.000217362
0.00157023
-8.68386e-05
0.000254307
0.0015193
-7.7584e-05
0.000146569
0.00149232
-0.000227126
7.09075e-05
0.00146153
-0.000438498
0.000105207
0.00137689
-4.72236e-05
1.9463e-05
0.00148439
0.000261945
-8.87669e-05
0.00169632
-0.000175784
-1.28721e-05
0.0016604
-0.000143412
9.66474e-07
0.00160841
0.000163393
-3.61502e-05
0.00166062
-3.45232e-05
-5.30717e-05
0.00163181
4.72487e-05
-4.03586e-05
0.00163971
0.000141224
7.3793e-05
3.99793e-05
0.000116817
0.00164226
0.000277228
0.000172498
0.00170517
-5.29613e-05
0.000132164
0.00159155
-0.000282052
0.000122425
0.00136761
0.000180653
8.30673e-05
0.00127426
0.000225968
0.000140786
0.00133857
-0.000163329
-3.40988e-06
0.0014024
1.13869e-05
-9.30961e-05
0.00145454
0.000292094
7.42592e-05
0.0015541
5.2499e-05
0.000142849
0.00154243
-0.000127264
0.000142286
0.00141022
-9.18226e-05
0.000128036
0.00144692
-0.000102448
0.000229236
0.00155676
-0.000265024
0.000176839
0.00147506
0.000209474
-8.35536e-05
0.00141021
0.000535819
-7.89045e-05
0.00139469
-7.99109e-05
2.45302e-05
0.00138031
-0.000149972
-3.71934e-05
0.00146471
0.000231495
-5.08855e-05
0.0014563
0.000311459
5.81458e-05
0.00129273
0.000122244
-2.36242e-05
0.00123985
-0.00022657
-8.66686e-05
0.00128692
-0.000234693
3.05787e-05
0.00135089
-2.02433e-05
6.52817e-05
0.00144748
-0.000189846
1.64985e-05
0.00149285
-0.00046712
7.33689e-07
0.00145552
-0.000186412
-1.45268e-05
0.00141257
-8.48353e-05
0.000211239
0.00145924
-0.000283312
0.000388761
0.00145982
-0.000203912
0.000286604
0.00127473
-0.000108364
0.000131289
0.00118847
-0.000318145
7.86721e-05
0.0012822
-7.65648e-05
-3.93084e-05
0.0014184
0.000219646
-0.00016066
0.00154725
-0.000267491
-6.07029e-05
0.0015335
-7.19975e-05
6.97282e-05
0.00155313
0.000217517
0.000108693
0.00162211
-0.000216452
6.0815e-05
0.00152233
7.01517e-05
-4.97237e-05
0.00147772
0.000234123
4.83955e-05
-1.61398e-05
0.000174469
0.00151593
0.000229602
9.69919e-05
0.0013514
-6.75193e-05
0.000140534
0.00124941
-0.000278279
0.00012735
0.00124358
0.000206977
0.000116566
0.00123834
0.00020168
0.000155798
0.00123514
-0.000174387
6.88778e-05
0.00135762
-6.45768e-06
-8.99782e-05
0.00147513
0.000251088
0.000106692
0.00148139
7.62327e-06
0.000215033
0.0013975
-0.000110348
0.000143311
0.00131818
-8.99697e-05
2.40905e-05
0.00137439
-0.000191995
1.43096e-05
0.00134874
-0.000245471
6.18944e-06
0.00124269
0.000318954
-0.000144866
0.00122428
0.000584141
-8.66438e-05
0.00117444
-0.000147389
0.000107219
0.00116066
-0.000235588
3.42756e-05
0.00128502
0.000129325
-6.33764e-05
0.00136776
0.000211863
8.65488e-06
0.00129442
0.000131651
-1.42531e-05
0.00122081
-0.000167518
-9.60838e-05
0.00127014
-0.000173786
-7.9098e-05
0.00134061
8.75339e-05
-8.35925e-06
0.0012898
-9.19965e-05
7.84992e-05
0.00130652
-0.000573271
4.51106e-05
0.00138407
-0.000321706
3.86704e-05
0.00129754
-8.43253e-06
0.000129945
0.00129569
-0.000276621
0.000155328
0.00138354
-0.000250085
0.000161927
0.00124
2.07074e-05
4.16212e-05
0.00104851
-0.000179409
-1.82115e-05
0.00109035
-0.000164059
5.20413e-06
0.00126216
1.55169e-07
6.18392e-05
0.00139176
-0.000422958
0.000151235
0.00141635
-0.000129244
0.000107646
0.00141078
0.000201059
-6.63406e-06
0.0014347
-0.000356224
0.000119676
0.00145445
-0.000149565
0.000297938
0.00146502
0.000108834
0.000241896
-1.62368e-05
0.00012589
0.00129678
0.000258676
0.000154122
0.00113259
6.71335e-05
0.000212583
0.00104861
-0.000176907
0.000145158
0.00117378
9.45831e-05
0.000208737
0.0012472
6.17225e-05
0.000184114
0.00123138
-0.00016237
3.74955e-05
0.00125843
0.000115993
-0.000100725
0.00129163
0.000346966
3.96054e-05
0.00126319
2.17454e-05
0.000192703
0.00114662
-2.63371e-05
8.73925e-05
0.00113257
-5.59589e-05
-7.11896e-05
0.00124775
-0.000268763
-3.03031e-06
0.00118878
-0.000122483
5.683e-05
0.00115058
0.00048415
-6.69519e-05
0.00116603
0.000673715
-2.37503e-05
0.000999585
-6.82667e-05
9.8042e-05
0.000920755
-0.000200932
-4.63577e-05
0.00114412
1.05981e-06
-4.9173e-05
0.00132699
1.85659e-06
9.24226e-05
0.00119432
0.000125327
5.61032e-05
0.00105449
-5.61873e-05
7.7115e-05
0.00118043
-0.000216098
0.000108619
0.00128617
0.00013708
-7.46291e-05
0.00106023
5.53559e-05
-4.93348e-05
0.000939938
-0.000545542
2.89531e-05
0.00103208
-0.000378403
3.25878e-05
0.0010056
2.33245e-05
6.92169e-05
0.00098483
-0.000249584
0.000155783
0.00105568
-0.000215103
0.000175015
0.00109621
5.74265e-06
7.34179e-05
0.00103818
-0.000164102
-9.21799e-05
0.00106025
-0.000140135
-5.02913e-05
0.00118963
-0.00010015
7.33511e-05
0.00123832
-0.000409855
0.00010108
0.00124963
-8.47805e-05
5.18441e-05
0.00125443
0.000173035
4.11474e-05
0.00124396
-0.000303451
0.000115787
0.00129873
-0.000200711
0.000283209
0.00124722
0.000148574
0.000113533
0.000151765
-7.01388e-05
0.00110406
0.00025455
0.000167047
0.00104104
0.000219107
0.000242401
0.000969975
-7.93092e-06
0.00015835
0.00106186
-1.875e-05
0.000124727
0.0010847
-5.60166e-06
0.000129142
0.001063
-0.000127553
8.79691e-06
0.00103961
0.000267817
-3.03099e-05
0.00099929
0.000448288
5.00708e-05
0.0010035
5.79945e-05
0.000113086
0.00102373
-3.15168e-05
1.41597e-05
0.00107041
-9.87708e-05
-5.44279e-05
0.00112225
-0.000118187
-5.07683e-05
0.001018
8.07113e-06
-5.7719e-05
0.00102415
0.000449649
-0.000127242
0.00108023
0.000593012
2.34337e-05
0.00100288
-7.62255e-05
8.02719e-06
0.000945899
-2.39642e-05
-0.000122089
0.0010029
9.72656e-05
8.95734e-07
0.00109556
-0.000174779
0.000119756
0.00106759
-3.70921e-05
-3.43719e-07
0.00094074
-2.53509e-05
4.41348e-05
0.00103335
-0.000236087
0.00012457
0.00118566
0.000137563
-2.21435e-05
0.000980004
0.000151844
2.81217e-05
0.000844389
-0.000446342
9.64451e-05
0.000893233
-0.000340431
0.000116254
0.000851606
2.10732e-05
0.00014873
0.000823827
-0.000188256
0.00018256
0.000904035
-0.000132249
9.4064e-05
0.000936767
8.9556e-05
6.05521e-05
0.000969147
-0.000205204
-3.50909e-05
0.00107253
-8.22928e-05
-8.26281e-05
0.00108317
-6.96271e-06
4.46001e-05
0.001005
-0.000317611
0.000167269
0.00103915
1.02559e-05
0.00012294
0.00108576
6.8132e-05
0.000196992
0.00101016
-0.000273622
0.0001145
0.0010339
-0.000116174
6.01123e-06
0.00103385
0.000344287
-8.61711e-05
0.000340982
-6.85191e-05
0.00101258
0.000140054
0.000197575
0.000987829
0.000295678
0.000179199
0.000955803
6.06401e-05
6.47007e-05
0.00100202
-6.92187e-05
5.84044e-05
0.000960235
6.13717e-05
0.000134477
0.000905357
-3.39588e-05
5.75065e-05
0.000906474
0.000287678
-2.38638e-05
0.000908336
0.00039066
0.000102167
0.000850914
0.000112982
8.94196e-05
0.000910646
-7.15844e-05
-8.35815e-05
0.000979627
-0.000125203
-3.89829e-05
0.000949191
5.86637e-05
3.47671e-05
0.000962693
-1.43091e-05
-0.000157917
0.00102335
0.000394215
-0.000256661
0.000973801
0.000660439
4.62131e-05
0.000911156
-0.000101763
8.7907e-05
0.000937103
4.49493e-05
-0.000121288
0.000909426
0.000285924
4.4205e-05
0.000891037
-0.000229934
0.000154187
0.000900307
-0.000224094
4.51747e-05
0.000828082
-0.000107867
7.97307e-05
0.000823271
-0.000257656
4.05059e-05
0.00083667
0.000219906
-8.25393e-05
0.000729401
0.000183836
7.85717e-05
0.000741293
-0.000466867
4.32053e-05
0.00078092
-0.000303999
1.66194e-05
0.000722358
0.000103689
6.95326e-05
0.000790336
-0.000138487
7.09225e-06
0.000857247
-5.99878e-05
3.20646e-05
0.000776673
0.000222876
5.88205e-05
0.000773476
-0.000197086
0.000107484
0.000925379
-3.16161e-05
-2.20116e-05
0.00101269
0.000113624
-3.22604e-05
0.000979986
-0.000233636
0.00011681
0.000965568
5.2517e-05
0.00020398
0.000927218
0.000106962
0.000169451
0.000834539
-0.000187472
8.46785e-05
0.000925321
-0.000101623
6.60053e-05
0.000992501
0.000423068
-1.6955e-05
0.000347134
4.54648e-05
0.000909533
0.000179932
0.000247352
0.000949547
0.000310154
0.000176352
0.000891887
9.47426e-05
5.00043e-06
0.00080198
2.56537e-05
4.13041e-05
0.000797988
3.30965e-05
0.000174029
0.000831957
-8.81702e-05
5.45536e-05
0.000879756
0.000228533
-0.00011027
0.000904958
0.00029589
6.89132e-05
0.000819969
0.000154019
5.42687e-05
0.000839782
-7.25681e-05
-0.00011073
0.00090916
-9.7335e-05
-2.78785e-05
0.000840206
0.000173333
2.63999e-05
0.000804615
-5.74643e-05
-0.000202651
0.000892942
0.000338597
-0.000257056
0.000919234
0.000739199
-4.04368e-05
0.000847753
-0.000188542
0.000135372
0.000867874
0.000111423
-6.17156e-05
0.000914691
0.000416899
2.49367e-05
0.000875945
-0.000231546
0.000172595
0.000883879
-0.00028103
7.19575e-05
0.000890631
-0.000131572
0.000104159
0.000815933
-0.000180448
4.83903e-05
0.000757738
0.000270722
-0.00015957
0.000673976
0.00012264
2.84833e-05
0.000680335
-0.000533912
0.000130915
0.000726067
-0.000282962
-3.33395e-05
0.000719931
0.000164164
8.78424e-05
0.000784497
-0.000166058
6.98738e-05
0.000771159
8.90048e-05
3.84653e-05
0.000689916
0.000363077
3.98544e-05
0.000660664
-0.000110134
-5.1065e-05
0.000771425
5.49825e-05
-2.21684e-05
0.00084929
0.00024481
4.09298e-05
0.00090121
-0.000208596
0.000112291
0.000957417
1.27196e-05
0.000215212
0.000874191
0.000204339
9.56307e-05
0.000792255
-4.48062e-05
-5.29359e-05
0.000888963
-2.95507e-06
5.20139e-06
0.000935075
0.000516437
-0.000100593
0.000399021
-5.8195e-05
0.000863386
0.000237234
0.000209373
0.000935174
0.000225792
0.000150234
0.00086348
9.07978e-05
7.6374e-05
0.000782832
0.000148632
5.06421e-05
0.00072625
1.46497e-07
0.000131153
0.000681256
-0.000205764
2.49441e-05
0.000764785
6.52337e-05
-0.000130551
0.00081976
0.000209697
-7.74305e-06
0.000776593
0.000125834
1.86355e-05
0.000806301
-4.21199e-05
-0.000155499
0.000839229
-5.53191e-05
-5.26883e-05
0.000725568
0.000289055
-5.85309e-05
0.000667411
2.69408e-06
-0.000243507
0.000807971
0.000215408
-3.54138e-05
0.000872856
0.000713687
0.000150223
0.000781813
-0.000277189
3.81915e-05
0.00075489
0.000160643
6.89809e-05
0.000817416
0.000332696
0.000210838
0.000788035
-0.000322426
0.000140792
0.000785936
-0.000217984
4.18531e-05
0.000787147
-0.000107829
0.000110595
0.000707425
7.10678e-05
3.39043e-05
0.000712526
0.000346965
-0.000139488
0.000614645
9.16666e-06
-1.76897e-05
0.000561656
-0.000507548
0.000182564
0.000667182
-0.000223597
8.01991e-05
0.000672877
0.000198491
0.000100808
0.000659054
-0.000189778
0.000100906
0.000648743
0.00019861
0.000140267
0.000644057
0.000464186
3.94647e-05
0.00061396
-4.77445e-05
-0.000115319
0.00064382
0.000125391
-2.81968e-05
0.000624775
0.000408727
0.000120722
0.000692831
-0.000263952
0.000184462
0.00080789
-7.81813e-05
0.000168753
0.000758342
0.000228032
0.000114397
0.000767075
-5.56259e-05
2.08198e-05
0.000860537
9.69029e-05
-3.65172e-05
0.00087546
0.000579059
-0.000110373
0.000472822
-3.73986e-05
0.000814804
5.03311e-05
0.000152093
0.00085477
9.25017e-05
8.17251e-05
0.000813152
9.67784e-05
1.04298e-05
0.000784816
0.00020413
5.50263e-05
0.000640725
6.23223e-05
6.49081e-05
0.000537633
-0.000215372
-4.11416e-05
0.00060577
-5.28023e-05
-0.000117203
0.000680524
0.000105545
-1.16095e-05
0.000651874
0.000112987
-3.21209e-05
0.000657167
7.55537e-05
-0.000140748
0.000743759
-7.6529e-05
5.47305e-05
0.000682098
0.000321438
1.44735e-05
0.000641069
2.95198e-05
-0.000214571
0.000747142
0.000156637
-2.03448e-05
0.000743527
0.000668628
0.000290143
0.000692853
-0.00030559
-1.77909e-05
0.000730662
0.000194762
-2.15608e-05
0.00071863
0.000350177
0.000150171
0.000587931
-0.00036897
9.29697e-05
0.000568743
-0.000247244
6.64754e-05
0.000575707
-0.00014719
9.77603e-05
0.000553492
0.000201677
5.31022e-06
0.000656199
0.000323159
-7.68457e-05
0.000615324
-9.15166e-05
8.93266e-06
0.000556797
-0.000537075