/*--------------------------------*- C++ -*----------------------------------*\
  =========                 |
  \\      /  F ield         | OpenFOAM: The Open Source CFD Toolbox
   \\    /   O peration     | Website:  https://openfoam.org
    \\  /    A nd           | Version:  10
     \\/     M anipulation  |
\*---------------------------------------------------------------------------*/
FoamFile
{
    format      ascii;
    class       volVectorField;
    location    "9";
    object      U_0;
}
// * * * * * * * * * * * * * * * * * * * * * * * * * * * * * * * * * * * * * //

dimensions      [0 1 -1 0 0 0 0];

internalField   nonuniform List<vector> 
25600
(
(1.10665 -0.0187976 0.0325907)
(1.08425 -0.0174794 0.0145977)
(1.06702 -0.00977759 -0.00402501)
(1.06059 -0.000836376 -0.0150451)
(1.0667 0.00518852 -0.0177956)
(1.08378 0.0144745 -0.0121509)
(1.09402 0.0206742 -0.00959465)
(1.0952 0.0226656 -0.0174341)
(1.10137 0.0260497 -0.0238445)
(1.10217 0.0191726 -0.0223148)
(1.1053 0.00698501 -0.0121989)
(1.11605 -0.00443852 0.000228169)
(1.12193 -0.0123996 0.00419626)
(1.12794 -0.00796138 0.00110205)
(1.12385 -0.00589151 -0.00693497)
(1.10825 -0.00900586 -0.013009)
(1.09497 -0.0140667 -0.00894106)
(1.08115 -0.0190368 -0.0032978)
(1.08434 -0.000963375 -0.000255553)
(1.10972 0.0290852 -0.00138753)
(1.12922 0.0515644 -0.00989639)
(1.14306 0.0581654 -0.0162446)
(1.14324 0.0301459 -0.0152535)
(1.12257 -0.0110588 -0.00600779)
(1.10122 -0.038465 0.00532042)
(1.08571 -0.0516885 0.00663042)
(1.08027 -0.0434961 0.00387568)
(1.08473 -0.0263922 0.00520071)
(1.08401 -0.0180346 0.00797191)
(1.08203 -0.0141638 0.009486)
(1.07912 -0.0146313 0.00385099)
(1.06549 -0.0174646 -0.0113567)
(1.05918 -0.0192705 -0.0267327)
(1.06847 -0.0168538 -0.032517)
(1.07663 -0.00991811 -0.0236073)
(1.08838 0.00218049 -0.00812957)
(1.10286 0.0126001 0.00693939)
(1.11165 0.0129931 0.021274)
(1.12415 0.00376805 0.0307836)
(1.12519 -0.0108653 0.0366524)
(1.11897 0.0163278 0.0276072)
(1.10263 0.00638906 0.00508936)
(1.0967 -0.00499022 -0.00898241)
(1.09818 -0.00853135 -0.0147004)
(1.09905 -0.00131725 -0.0130593)
(1.09946 0.0203882 -0.00818663)
(1.09266 0.0335999 -0.0090285)
(1.08936 0.0346213 -0.0148452)
(1.10312 0.0290367 -0.0176473)
(1.11267 0.0176528 -0.0159609)
(1.123 0.0140081 -0.0115275)
(1.13253 0.0121455 -0.00584827)
(1.13031 0.00998625 0.000535861)
(1.12777 0.0137394 0.00479928)
(1.12691 0.0133998 0.00711643)
(1.13069 0.0114768 0.00888619)
(1.12807 0.00231895 0.00831906)
(1.1109 -0.01315 0.0068701)
(1.09925 -0.0115984 0.00548864)
(1.10317 -0.0023801 0.00221948)
(1.13392 0.0214513 -0.000130828)
(1.18654 0.0499729 0.0047396)
(1.22188 0.0419438 0.0208587)
(1.21075 0.0161641 0.0371472)
(1.15894 -0.00702757 0.0347131)
(1.10379 -0.0216137 0.00845418)
(1.07774 -0.018815 -0.0219967)
(1.07032 -0.01594 -0.0388058)
(1.05884 -0.0219214 -0.0384316)
(1.0432 -0.0289754 -0.0263344)
(1.02037 -0.0383652 -0.0144327)
(0.988353 -0.0518608 -0.0141661)
(0.97413 -0.0567987 -0.0227388)
(0.980122 -0.04939 -0.030952)
(0.991365 -0.0313609 -0.0306597)
(1.01744 0.00414786 -0.018011)
(1.05551 0.0284405 0.00728621)
(1.09441 0.034437 0.0334638)
(1.12884 0.0328208 0.0460922)
(1.13706 0.0221053 0.0447107)
(1.17034 0.0483748 0.00695293)
(1.14565 0.035096 0.00550126)
(1.12308 0.00883664 0.00320482)
(1.1138 -0.00909238 -0.0049253)
(1.12282 -0.00875783 -0.00281252)
(1.13104 0.00474852 0.00474611)
(1.10389 0.00708397 0.00897901)
(1.0755 0.00859895 0.010526)
(1.06433 0.00772231 0.00696096)
(1.07024 -0.00105911 0.00655845)
(1.10365 -0.00632568 0.00367774)
(1.1376 -0.0176941 0.00106144)
(1.15304 -0.022512 0.00998888)
(1.13849 -0.01594 0.0237581)
(1.11063 -0.00884097 0.037727)
(1.10847 0.00308148 0.0384345)
(1.12061 0.00231624 0.0150874)
(1.13342 -0.00519207 -0.0108806)
(1.12799 -0.00310035 -0.0192895)
(1.09467 -0.00737639 -0.00732182)
(1.09343 -0.00442302 0.0220443)
(1.13551 -0.00365356 0.0529768)
(1.189 -0.013005 0.0720832)
(1.21799 -0.00538933 0.0669998)
(1.17406 0.00311918 0.0299487)
(1.09653 -0.00161234 -0.0212774)
(1.03699 -0.012443 -0.0552618)
(0.990725 -0.0264752 -0.0605165)
(0.962834 -0.0384978 -0.0423807)
(0.959012 -0.0446401 -0.0135748)
(0.957983 -0.04709 0.00758659)
(0.954738 -0.053079 0.00569552)
(0.960811 -0.0459277 -0.0184015)
(0.972723 -0.0261741 -0.0475392)
(0.991821 -0.0069624 -0.0581967)
(1.02646 0.0106645 -0.0387925)
(1.06549 0.00344272 -0.00124237)
(1.10447 -0.00576089 0.0205816)
(1.14266 0.00813641 0.0182299)
(1.16918 0.0317619 0.0117467)
(1.12951 0.0416324 0.00417215)
(1.10856 0.0305459 -0.0115117)
(1.09523 -0.00445499 -0.0257196)
(1.08215 -0.0359562 -0.025029)
(1.07467 -0.0342755 0.00120354)
(1.05856 -0.00872617 0.025113)
(1.02851 0.000690738 0.0237458)
(1.02629 -0.000219221 0.00159707)
(1.04382 -0.00239788 -0.0209654)
(1.06458 -0.00047328 -0.0229885)
(1.07981 -0.000472018 -0.0152261)
(1.07151 -0.0147556 -0.00760425)
(1.06592 -0.0173192 -0.00311758)
(1.06918 0.000622344 0.00143862)
(1.07979 0.0300624 0.0157171)
(1.09669 0.0505387 0.0224304)
(1.10113 0.0436053 0.00802412)
(1.11045 0.0360367 -0.00505082)
(1.11611 0.021239 -0.000541414)
(1.1074 -0.0118179 0.0204361)
(1.1124 -0.0417911 0.0430837)
(1.12031 -0.0631628 0.0464069)
(1.13009 -0.0587209 0.0446247)
(1.1371 -0.0266615 0.0451355)
(1.12641 0.00288958 0.029651)
(1.11293 0.0240178 -0.00435366)
(1.08179 0.0291063 -0.0394028)
(1.02804 0.00596163 -0.0545315)
(0.988691 -0.0327926 -0.0535052)
(0.97962 -0.0559723 -0.0523633)
(0.99039 -0.0554134 -0.0524635)
(1.01356 -0.0568763 -0.0485402)
(1.03486 -0.0558811 -0.0333547)
(1.04174 -0.0551677 -0.00999089)
(1.05314 -0.0484092 0.0103272)
(1.0855 -0.020437 0.0203362)
(1.12162 0.000413304 0.0167845)
(1.14849 0.0108943 0.00432574)
(1.15615 0.0169342 -9.18277e-05)
(1.14731 0.0265324 0.00722751)
(1.13865 0.0642034 0.0116054)
(1.12352 0.0477128 -0.0112238)
(1.1323 0.0199931 -0.0241625)
(1.14027 -0.00542666 -0.0239297)
(1.12054 -0.00989676 -0.016616)
(1.06443 -0.00415043 -0.0316554)
(1.01064 -0.0140697 -0.044554)
(1.00102 -0.0227266 -0.0296382)
(1.01314 -0.0254925 -8.41584e-06)
(1.02774 -0.0199884 0.0191998)
(1.0319 -0.00513291 0.00707681)
(1.01388 0.00351031 -0.0107496)
(1.00636 0.00909891 -0.00221372)
(1.00806 0.00946818 0.0260118)
(1.03021 0.0144015 0.0432042)
(1.07688 0.0214303 0.00939146)
(1.10207 0.00879493 -0.0464219)
(1.10737 -0.00853695 -0.058067)
(1.09834 -0.0227391 -0.0111296)
(1.07379 -0.0180394 0.0578272)
(1.04679 -0.0116635 0.0833258)
(1.02787 -0.0306954 0.0431464)
(1.03043 -0.0491909 -0.0103086)
(1.03151 -0.0574759 -0.0493296)
(1.02083 -0.0477871 -0.0695805)
(1.01725 -0.00858695 -0.0693026)
(1.01366 0.0222687 -0.0563926)
(1.01135 0.0182372 -0.0294355)
(1.00851 -0.0103582 0.00305659)
(1.00593 -0.0369897 0.0113335)
(1.00918 -0.0412085 -0.0134744)
(1.02715 -0.0328781 -0.046748)
(1.05348 -0.0271083 -0.0633398)
(1.05968 -0.0372949 -0.0508576)
(1.06028 -0.0390829 -0.0278142)
(1.07375 -0.0238009 -0.0241359)
(1.10687 -0.00680453 -0.0246336)
(1.14789 0.0129418 -0.0124847)
(1.16709 0.0325711 0.0134944)
(1.16246 0.0551533 0.0294373)
(1.14201 0.0592965 0.0402217)
(1.17891 0.0521694 0.0301997)
(1.18999 0.0163315 0.0159119)
(1.17182 -0.0179123 0.00902644)
(1.13175 -0.0114654 0.00903689)
(1.07257 0.00337253 -0.0129837)
(1.03924 -0.0130555 -0.0261167)
(1.04819 -0.0327807 -0.02023)
(1.06384 -0.0311797 -0.0169448)
(1.07417 -0.00692032 -0.0167894)
(1.08123 0.00467513 -0.0117652)
(1.06977 -0.0220156 0.00879808)
(1.04429 -0.0287386 0.0281572)
(1.0171 0.00459894 0.0296389)
(1.0263 0.0550691 0.0111626)
(1.08103 0.0666294 -0.0207348)
(1.12717 0.0239822 -0.0371048)
(1.13207 -0.0257393 -0.0248988)
(1.09837 -0.0521499 -0.00284353)
(1.05452 -0.0378535 0.00854977)
(1.0323 -0.0119699 0.00038967)
(1.03383 -0.0144041 -0.0189762)
(1.04111 -0.0239628 -0.0435432)
(1.02414 -0.0313469 -0.0739876)
(0.998893 -0.0313834 -0.0865806)
(0.988721 -0.0184414 -0.0644163)
(0.977456 -0.0191695 -0.0207996)
(0.971361 -0.0211369 0.0195145)
(0.987962 -0.0124813 0.0299503)
(1.03409 -0.00773394 0.00141255)
(1.07476 -0.0166321 -0.0323602)
(1.09585 -0.0360873 -0.0360012)
(1.08424 -0.0417804 -0.0198248)
(1.03329 -0.0312429 -0.0102523)
(1.00478 -0.0110405 -0.02115)
(1.01182 0.00488891 -0.0389868)
(1.04356 0.0198523 -0.0390617)
(1.07543 0.0281404 -0.0183726)
(1.08877 0.0289939 0.019087)
(1.11022 0.0444244 0.0445066)
(1.08453 0.00210841 0.00148242)
(1.1447 0.0049757 0.00813509)
(1.1694 0.0112992 0.0142124)
(1.15055 0.0187203 0.00986785)
(1.1056 0.0228746 -0.00373094)
(1.06177 -0.000415318 -0.0310885)
(1.04547 -0.0343479 -0.0380409)
(1.05754 -0.0301979 -0.0322136)
(1.05858 -0.00407547 -0.0371407)
(1.0514 0.0179677 -0.0422686)
(1.05235 0.0229745 -0.0383164)
(1.03582 0.00133181 -0.0215016)
(0.994204 -0.00988541 -0.00177533)
(0.955559 -0.00969378 0.0141233)
(0.994093 -0.00593175 0.0273148)
(1.10616 -0.0155665 0.0271329)
(1.17801 -0.0215664 0.00580503)
(1.14808 -0.00481327 -0.035299)
(1.07443 0.0126148 -0.046478)
(1.03738 0.0269183 -0.0139681)
(1.07306 0.0162042 0.0140837)
(1.12956 -0.02349 -0.0016964)
(1.12279 -0.0425738 -0.0444497)
(1.0656 -0.0404604 -0.0724718)
(1.02762 -0.0355448 -0.0807355)
(1.01669 -0.0227806 -0.0699163)
(0.998074 -0.0223828 -0.0480624)
(0.981695 -0.0340404 -0.0147936)
(0.996151 -0.0478677 0.0172426)
(1.05238 -0.0541012 0.0195055)
(1.1095 -0.0504449 -0.0096408)
(1.12759 -0.0369858 -0.0334583)
(1.08504 -0.0215308 -0.0216598)
(1.00899 -0.0324063 0.0011437)
(0.96448 -0.0383371 0.00439355)
(0.984499 -0.0360513 -0.00413371)
(1.04621 -0.026674 -0.00359802)
(1.07377 0.000597092 0.00623177)
(1.05159 0.0252329 0.0198382)
(1.0433 0.0192884 0.0162069)
(1.02442 0.0149908 0.000174619)
(1.05008 0.0306551 0.000998799)
(1.07161 0.00270474 -0.00141054)
(1.11683 -0.0151822 -0.0174918)
(1.15937 -1.02743e-05 -0.0322804)
(1.16561 0.0214399 -0.0371506)
(1.11901 0.0106334 -0.0299676)
(1.05937 -0.0125784 -0.035741)
(1.0273 -0.0140525 -0.0375024)
(1.05695 0.00435338 -0.020925)
(1.08921 0.00590739 -0.0289529)
(1.02778 -0.00249824 -0.0510113)
(0.957512 0.010969 -0.0403713)
(0.932952 0.00151978 -0.0115429)
(0.957701 -0.0239586 0.00868185)
(1.01933 -0.0623758 -0.00561633)
(1.0614 -0.0668381 -0.0309264)
(1.06173 -0.0247168 -0.0235504)
(1.05826 -0.00321672 0.016374)
(1.10079 -0.0159878 0.0468062)
(1.20692 -0.0395595 0.0322899)
(1.29889 -0.0287283 -0.0190354)
(1.28675 0.0137671 -0.053851)
(1.19099 0.00977478 -0.0455464)
(1.10354 -0.0263325 -0.0348859)
(1.08995 -0.0388444 -0.0401117)
(1.10818 -0.0457675 -0.0426197)
(1.08458 -0.0534065 -0.0276746)
(1.02274 -0.0519403 -0.00358611)
(0.974146 -0.0412034 0.0037558)
(0.978545 -0.0342052 -0.0106235)
(1.02168 -0.0234927 -0.0467006)
(1.04405 -0.00864251 -0.0831497)
(1.02678 -0.008089 -0.0794193)
(1.00346 -0.00866425 -0.0374234)
(1.01902 -0.0195527 0.0269251)
(1.04723 -0.0282618 0.0632493)
(1.04744 -0.021813 0.0501587)
(1.02605 -0.000144522 0.0322991)
(1.00567 0.00438465 0.015365)
(0.972338 0.0165469 -0.00403692)
(1.02153 0.0207246 0.00646149)
(1.05223 -0.0179136 0.0195564)
(1.06075 -0.0276818 0.00108594)
(1.04324 -0.0267139 -0.0127882)
(1.06289 -0.0400372 -0.0143192)
(1.09656 -0.0280588 -0.00532122)
(1.10822 0.00411481 0.00752176)
(1.08968 0.00554102 0.0198573)
(1.06274 -0.00288717 0.0153372)
(1.02792 0.0130087 -0.0364163)
(0.995832 0.0410751 -0.0697473)
(1.02731 0.0252126 -0.0569105)
(1.0429 -0.0275946 -0.0333193)
(1.04928 -0.0524159 -0.0155981)
(1.05386 -0.0629274 -0.0468474)
(1.06804 -0.038772 -0.0751943)
(1.13545 0.0119204 -0.0492128)
(1.21032 0.011952 -0.00115086)
(1.23023 -0.0281249 0.0207388)
(1.2138 -0.0470649 0.0154477)
(1.2012 -0.0274652 0.00491449)
(1.21058 0.00238809 0.00659446)
(1.18782 -0.00678079 0.0120872)
(1.10557 -0.0411587 -0.000459905)
(1.03748 -0.0518263 -0.0107675)
(0.994734 -0.0254896 0.00257747)
(0.960232 -0.000301505 0.00658866)
(0.958915 0.00146126 -0.0108964)
(0.979708 -0.0124594 -0.0343531)
(0.98729 -0.0278296 -0.0506285)
(0.987992 -0.0139536 -0.0565035)
(0.999582 0.00171079 -0.0486842)
(0.987156 -0.0164847 -0.0262934)
(0.996152 -0.0511251 -0.0132351)
(1.00177 -0.0544503 0.00423281)
(0.982803 -0.0311508 0.0259341)
(0.97829 0.00197296 0.05001)
(0.974463 0.0410205 0.0614021)
(0.952106 0.0206888 0.0287539)
(0.975205 -0.0101538 -0.00311953)
(1.02865 -0.0116696 0.0264816)
(1.06015 -0.0148456 0.0137232)
(1.07469 0.00178824 -0.0102854)
(1.02658 -0.00279148 0.0119946)
(1.00901 -0.0228094 0.0522693)
(1.05885 -0.0453023 0.0500934)
(1.14618 -0.071693 0.0364783)
(1.15469 -0.0523945 0.0303337)
(1.05703 0.0357701 -0.00464173)
(0.992524 0.0571566 -0.0442023)
(1.05484 0.0233802 -0.0210902)
(1.12548 -0.0090812 0.037777)
(1.05381 -0.0312943 0.0374004)
(0.953469 0.00276474 -0.0394349)
(0.840916 0.00548477 -0.128681)
(0.857621 -0.0154628 -0.146694)
(1.03638 -0.00334365 -0.0891815)
(1.16652 -0.00631425 -0.0276809)
(1.16711 -0.0138975 0.0125732)
(1.11624 -0.00141775 0.0330309)
(1.0779 0.0204908 0.00892068)
(1.07817 0.0520536 -0.0329646)
(1.07136 0.0489354 -0.0383731)
(1.05252 0.0153981 -0.00952191)
(1.03034 0.000935166 0.00211376)
(0.964383 -0.00249929 -0.0204095)
(0.915701 -0.0221534 -0.0480153)
(0.927163 -0.0302278 -0.0553042)
(0.956803 -0.0307485 -0.0568727)
(0.99744 -0.0320845 -0.0635124)
(1.03637 -0.0201427 -0.0613276)
(1.03951 0.00877616 -0.0370699)
(1.02006 0.00350822 -0.00759933)
(1.0509 -0.0263556 0.00909806)
(1.03455 -0.0326089 0.0182372)
(0.961347 -0.0406023 0.00257061)
(0.941527 -0.0202178 -0.00658339)
(0.97044 0.0230011 -0.0119214)
(0.950218 0.00580347 -0.0265489)
(0.998357 0.0106068 0.041587)
(1.0094 0.0190656 0.0316096)
(0.970632 -0.0144386 -0.0247734)
(0.963081 -0.00908576 -0.0392041)
(0.947766 -0.0108169 0.0176979)
(0.967253 -0.0309764 0.0487502)
(1.04884 -0.03269 0.0338405)
(1.02161 0.00422532 0.00304224)
(0.935497 0.0270394 -0.00149576)
(0.942747 0.0173179 0.00730795)
(1.06873 -0.0174054 0.0327423)
(1.16214 0.00157185 0.0350652)
(1.08598 0.043289 0.0276068)
(1.00493 0.0480495 0.0267499)
(0.952234 0.0382727 -0.0285074)
(0.904297 -0.0433395 -0.0802583)
(0.895934 -0.0876208 -0.0903743)
(0.943842 -0.0585863 -0.0630897)
(0.965862 -0.0223015 -0.0248326)
(0.947348 -0.0111606 -0.0167443)
(0.931789 -0.00462183 -0.00965746)
(0.953806 0.0278239 -0.0216475)
(1.00169 0.0708908 -0.0732847)
(0.995374 0.0430096 -0.100081)
(0.981972 -0.0282101 -0.0592372)
(0.979154 -0.0156683 -0.0214354)
(0.96316 0.0324002 -0.0169299)
(0.968073 0.0219852 -0.0196508)
(0.983763 -0.0127246 -0.00814689)
(0.952121 -0.0570038 0.0137157)
(0.936671 -0.0924599 0.00732613)
(0.989136 -0.0721114 -0.0382758)
(1.02462 -0.0142457 -0.0105929)
(1.03968 -0.00958338 0.0668137)
(1.07372 -0.0195721 0.0585748)
(1.0976 0.00358413 0.0278811)
(1.04553 -0.012674 0.00382596)
(0.99552 -0.00705214 -0.00518892)
(1.00405 0.02011 0.02746)
(0.976317 -0.0161401 0.0446515)
(0.978409 -0.0064211 0.0413784)
(0.951007 0.00281278 0.0211735)
(0.999889 -0.0191257 -0.01678)
(1.02461 0.00176897 -0.0678072)
(0.988419 0.00318645 -0.0511692)
(0.962074 -0.0150817 0.00650266)
(0.997161 0.0022749 0.0409176)
(0.967379 0.00779678 0.0243575)
(0.944845 -0.030888 0.0328353)
(0.966045 -0.027844 0.0723693)
(0.971704 -0.0111904 0.0994658)
(1.03393 0.0275351 0.0845383)
(1.10252 0.0240087 0.0532503)
(1.13941 -0.009486 0.0151236)
(1.08912 0.0292215 -0.0256942)
(1.05867 0.00711676 0.0227715)
(1.05331 -0.0133656 0.0397021)
(1.02084 0.0212629 0.00745598)
(0.983504 0.0133551 0.015524)
(1.01421 -0.0222002 0.0121727)
(1.07142 -0.0284323 0.0045134)
(1.05487 -0.0099115 -0.0071183)
(1.01895 0.0266917 -0.0691143)
(0.992667 -0.00131336 -0.0876326)
(0.992806 -0.07489 -0.0381822)
(0.961327 -0.0708616 -0.00963568)
(0.939632 -0.00208538 -0.00304647)
(1.009 0.0359594 -0.0116637)
(1.02883 0.0295681 -0.00842622)
(0.963506 -0.00732024 0.0156208)
(0.943554 -0.0505467 0.0540307)
(0.910413 -0.0429071 0.0299078)
(0.870115 0.0183808 0.0135504)
(1.0116 0.0115678 0.0396987)
(1.16343 -0.0254254 -0.0150234)
(1.17637 0.011029 -0.0363187)
(1.10104 0.001099 0.00953917)
(1.0484 0.00743752 0.0349545)
(1.06424 0.0305182 0.0470245)
(1.06347 -0.0179665 0.0500141)
(1.04931 0.0890653 0.0143395)
(1.03817 0.0493125 -0.00922794)
(1.10773 -0.0192952 -0.0358034)
(1.07158 0.00514109 -0.0213484)
(0.905521 0.0338235 0.00790738)
(0.927239 0.0286961 -0.0411851)
(1.08325 0.0180421 -0.0143107)
(1.10829 0.038456 0.0327515)
(1.06664 0.0187378 0.00116517)
(1.03127 -0.005676 -0.00774114)
(0.928447 -0.0155851 0.0487087)
(0.92811 0.0199323 0.109613)
(1.04169 0.0269242 0.0886888)
(1.03294 0.000467338 0.02989)
(0.976755 0.0437714 0.0047929)
(1.01738 -0.019032 -0.00834305)
(1.02631 -0.0396034 -0.0102234)
(1.03225 0.0245028 0.0102923)
(1.04909 0.0087228 0.0471898)
(0.960903 -0.0653869 0.0236738)
(0.911377 -0.0501847 0.0171118)
(0.964547 0.000969927 0.0224149)
(0.991291 0.0423299 -0.0255852)
(1.05232 0.0525216 -0.0428144)
(1.12313 -0.0139001 -0.0156017)
(1.06133 -0.0416166 0.013342)
(0.978326 -0.00360393 0.0599627)
(1.02772 -0.00488929 0.0320585)
(1.04553 -0.0157706 -0.0311624)
(0.962205 -0.059375 -0.0176515)
(0.983757 -0.113336 0.0424723)
(0.943568 -0.0350784 0.0447944)
(0.878231 0.0329215 0.000442075)
(1.07482 -0.0303656 0.0022404)
(1.14474 -0.0530311 0.0188522)
(1.04795 -0.000695866 0.00101028)
(1.07038 -0.00842511 -0.0572959)
(1.09806 -0.0189944 -0.033185)
(1.06835 0.00546022 0.0444161)
(1.08719 0.0250897 0.042172)
(1.16156 0.0670666 0.0569419)
(1.22986 0.00743047 0.00606277)
(1.22489 -0.0510291 -0.0171562)
(1.08235 0.0272906 0.000936414)
(0.911532 0.0326075 0.0568137)
(0.919324 -0.04252 -0.0672887)
(1.01668 0.00108141 -0.102471)
(1.0213 0.0641141 0.02279)
(1.07901 0.0335514 0.0266822)
(1.17573 0.00773515 -0.00244366)
(1.05919 -0.0135916 0.00200263)
(0.974273 -0.0275048 0.0592302)
(1.12732 -0.0636337 -0.00115868)
(1.11972 0.00491448 -0.0649342)
(1.02405 0.0838373 -0.0463321)
(1.01524 -0.0147131 -0.0673174)
(0.991889 -0.0420003 -0.0744617)
(1.01838 0.0331951 0.0136305)
(1.09485 0.0406688 0.059281)
(1.00454 0.009682 -0.0263056)
(0.877621 -0.0389066 -0.0663718)
(0.920529 -0.0515043 0.00389737)
(0.948314 -0.0150635 0.0535661)
(0.996934 -0.0499478 0.0224782)
(1.08437 -0.0802901 -0.0562632)
(1.09265 -0.0207315 -0.0724986)
(1.01943 -0.00603184 0.027559)
(1.0091 -0.0266214 0.109234)
(1.11605 -0.00824869 0.102439)
(1.00048 -0.0334976 0.0615929)
(0.82272 -0.0730328 0.0145891)
(0.902971 0.0112023 -0.0540295)
(0.972513 0.060798 -0.0877072)
(1.07732 -0.0345003 -0.0271725)
(1.14503 -0.00498812 0.0299796)
(1.085 0.0548137 0.0517472)
(1.16789 -0.0113497 -0.0154888)
(1.17182 0.0388351 -0.0668574)
(1.04174 0.0511294 0.00935486)
(1.09171 -0.0042523 0.0788675)
(1.28594 0.0416677 0.0499779)
(1.13287 -0.0328734 0.0147568)
(1.01019 -0.0679035 0.0480588)
(0.983869 0.0448958 0.102558)
(0.995066 0.0540637 0.0944629)
(0.967202 -0.026671 0.0278644)
(1.00816 -0.00198668 -0.056442)
(1.1609 0.0559979 -0.00629973)
(1.17732 -0.00626027 0.0262302)
(1.18879 -0.0483889 0.0292095)
(1.0373 -0.0205965 -0.021611)
(1.04995 -0.00823056 -0.0326681)
(1.14551 -0.0300164 -0.041611)
(0.998439 0.0700453 -0.121191)
(0.990766 0.120302 -0.0895216)
(0.95803 -0.0193266 -0.0219247)
(0.89466 -0.0215971 -0.0384289)
(0.970037 0.0496611 -0.00931903)
(1.07335 0.0824738 -0.00508931)
(1.09103 0.0384803 -0.08338)
(0.983859 -0.0469512 -0.0832542)
(0.959352 -0.0338439 -0.00724116)
(1.07125 0.0062422 0.0599147)
(1.05742 -0.0341003 0.0631291)
(0.971614 -0.121513 -0.0405025)
(1.12931 -0.062963 -0.0432197)
(1.08384 -0.0210158 0.0429401)
(0.962132 -0.0914102 0.0660734)
(1.11494 -0.0793879 0.0803614)
(1.09344 -0.0080088 0.0400786)
(0.856993 -0.0484586 -0.0317693)
(0.82098 -0.0342602 -0.0221461)
(0.936392 0.0343946 0.0264123)
(1.06012 -0.0730012 0.0877964)
(1.14572 -0.0231721 0.0378159)
(1.12665 0.0398635 -0.0469049)
(1.10663 -0.0711078 0.0242691)
(1.18591 -0.00842133 0.0987051)
(1.14623 0.040616 0.0520404)
(1.1584 -0.00529044 0.0486882)
(1.18365 0.0471889 0.11319)
(1.09615 0.00895666 0.0872352)
(0.88225 -0.0438665 0.106079)
(0.967934 0.0421034 0.138667)
(1.08151 0.0335183 0.0735809)
(1.09132 -0.0332744 0.029191)
(1.07639 0.0021969 -0.0127211)
(1.13122 0.0435281 0.00314579)
(1.11853 0.00570952 0.0583425)
(1.10974 -0.00446342 0.0578283)
(0.900645 -0.00996389 -0.0445126)
(1.06107 -0.0658452 -0.0155858)
(1.13377 -0.0656242 0.0436251)
(0.952152 0.0686749 -0.0261176)
(1.07423 0.118699 -0.0343429)
(0.966653 -0.0348703 -0.00579446)
(0.768794 -0.0637297 -0.0235855)
(0.860876 0.00572374 0.0481799)
(1.14185 0.0128992 0.0779051)
(1.16574 0.0228594 -0.0740799)
(0.935222 -0.0197625 -0.0435082)
(0.913399 -0.0434863 0.0303087)
(1.17836 0.0341188 -0.0293157)
(1.06353 0.00894174 -0.0468596)
(0.760366 -0.115855 -0.0534325)
(0.909434 -0.0701755 0.00203808)
(0.902777 0.0133863 0.0366071)
(0.841935 -0.0345895 0.0497032)
(0.8991 -0.0333068 0.0576324)
(0.949501 0.0107635 0.0199664)
(0.949945 -0.027047 -0.0755554)
(0.876952 -0.0401974 -0.0428326)
(1.00273 -0.0340455 -0.00271503)
(1.0653 -0.111342 0.0507281)
(1.09129 -0.0357599 0.00757116)
(1.12062 0.0401859 -0.0462085)
(1.05541 -0.0788724 0.0614221)
(1.12511 -0.0597348 0.148578)
(1.17655 0.00798111 0.0127538)
(0.98366 0.000458492 -0.00581327)
(1.04286 0.0573083 0.0984198)
(1.09345 0.0186818 0.110243)
(0.903737 -0.0194584 0.0841977)
(0.981947 0.00207786 0.0688923)
(1.05388 -0.00532509 0.075353)
(1.02833 -0.0394339 0.00684842)
(1.02669 0.0338461 0.00863846)
(0.979355 0.0908249 0.0305997)
(0.936379 0.00455761 0.0803424)
(1.01866 -0.00462216 0.0265964)
(0.944567 -0.0173992 -0.0344759)
(1.0965 -0.0457422 0.0764517)
(1.07686 0.00857692 0.0105348)
(0.896309 0.107875 -0.0672325)
(1.08781 0.146773 -0.0218025)
(0.994868 0.0129434 -0.0850648)
(0.919522 -0.0151019 -0.0321386)
(0.923292 -0.00205687 0.101918)
(0.999359 -0.0118428 0.0605167)
(1.09294 0.0185312 -0.0933058)
(0.978893 -0.00444261 -0.102897)
(0.833628 -0.0466469 0.0262668)
(1.18096 0.00986965 0.0415165)
(1.09745 0.00760174 -0.0428763)
(0.761391 -0.0808407 -0.0175014)
(0.880344 -0.0678458 0.0619862)
(0.851898 0.00101973 0.0117704)
(0.766207 -0.0506705 0.0799192)
(0.846404 -0.0361235 0.0815153)
(0.88626 -0.00513914 0.0716731)
(0.891864 -0.0307208 -0.0185812)
(0.993987 -0.00919246 -0.0781391)
(1.09081 0.00183423 -0.0609645)
(0.97738 -0.0412207 0.0450536)
(0.949579 -0.000175433 0.0578648)
(1.07305 0.0214941 0.0204384)
(1.00495 -0.0402435 0.0322385)
(0.940873 -0.0127705 0.0448757)
(1.06891 0.0451498 -0.0120947)
(0.909554 0.0620827 0.0113429)
(1.0236 0.0487084 0.1021)
(1.11598 0.0619986 0.110569)
(0.977084 0.0107141 0.0358627)
(1.062 -0.00818968 0.038503)
(1.05186 0.00197651 0.0914219)
(0.980232 -0.00672475 0.0261273)
(0.940732 0.0681342 -0.047239)
(0.987361 0.0867363 0.00572903)
(0.918504 0.0193354 0.0559063)
(0.912191 -0.00997333 -0.0555863)
(1.00663 -0.0183569 -0.0183929)
(1.03967 -0.00492415 0.121314)
(0.997287 -0.000969946 -0.0834805)
(1.04193 0.0853074 -0.226793)
(1.13737 0.106291 -0.036795)
(0.926925 -0.0408594 -0.0329097)
(0.988705 0.00581005 -0.0730068)
(1.01973 0.0352354 0.100375)
(0.893736 -0.0529194 0.0458835)
(0.976219 -0.0314831 -0.0559446)
(0.948589 -0.00957671 -0.0559955)
(0.811248 -0.0408415 0.00664883)
(0.953214 0.0423492 0.00825257)
(0.818634 0.0489146 -0.0378427)
(0.700047 -0.0943033 -0.0518906)
(0.882676 -0.0600978 -0.00985638)
(0.779645 0.00737039 0.00667138)
(0.741856 -0.0220025 -0.0184443)
(0.951346 -0.0171187 0.0648006)
(0.85995 0.0401043 0.0637219)
(0.752883 -0.0634938 0.0478209)
(0.913441 -0.0232064 -0.0187503)
(1.0609 -0.00215958 -0.0101906)
(1.06788 -0.0742243 0.0256751)
(1.0037 0.00844557 0.0747295)
(1.05799 0.0133943 0.0641819)
(0.899085 -0.0598616 0.0689717)
(0.86489 -0.0303325 0.140012)
(1.11329 0.0863833 0.0572667)
(0.97665 0.0627859 0.0106366)
(1.02364 0.0156489 0.202644)
(1.1002 0.051209 0.126938)
(1.11173 0.0156158 -0.0559313)
(0.975544 -0.0222351 0.0155383)
(0.884364 0.0179283 0.0943022)
(0.981361 -0.00666943 -0.00308372)
(0.959325 0.0604156 -0.126907)
(1.0903 0.0763749 -0.0261065)
(1.00918 0.0226825 0.0374494)
(0.928949 -0.01295 -0.0599326)
(1.01179 -0.0267385 0.0422889)
(1.08859 0.0222527 0.0558367)
(0.902026 -0.00461337 -0.171304)
(0.95734 0.0722773 -0.219349)
(1.13309 0.139603 -0.0735282)
(1.01186 -0.014047 -0.0310636)
(0.954001 0.00565345 -0.035817)
(1.09097 0.0720409 0.108879)
(1.02476 -0.0413026 0.0743581)
(1.00133 -0.0566113 -0.00481823)
(1.07986 -0.0347674 0.0471841)
(1.00501 -0.057946 0.0426465)
(0.916893 0.0580421 -0.123632)
(0.844295 0.0368807 -0.0882607)
(0.697813 -0.105665 0.0271045)
(0.904766 -0.0703261 -0.0380514)
(0.798865 0.0308112 0.0261278)
(0.870876 -0.0390646 -0.0535387)
(0.964825 -0.0129024 0.0221325)
(0.843198 0.0534025 0.0162212)
(0.72601 -0.012663 -0.0334551)
(0.831554 0.00641286 -0.0284631)
(0.993409 0.034389 0.00105398)
(0.968775 -0.0340128 0.0509715)
(1.12121 0.0106426 0.118487)
(1.13217 0.0226693 0.0297556)
(0.898709 -0.0145742 -0.0155373)
(0.940941 -0.0141798 0.110319)
(1.13939 0.0804087 -0.0320962)
(1.04479 0.0830368 -0.0907147)
(1.02677 0.0471442 0.226112)
(1.19254 0.0703801 0.0900142)
(1.21108 0.0276897 -0.0267542)
(1.01227 0.0319136 0.0640389)
(0.974533 8.25095e-05 0.0771716)
(0.89687 -0.036209 -0.0480824)
(0.860763 0.0255088 -0.190973)
(1.09332 0.0497738 -0.0449956)
(1.0151 0.0417149 0.0675325)
(0.993322 -0.0162136 -0.0754089)
(1.05339 -0.00861496 0.00445442)
(1.09915 0.0572929 -0.0558085)
(0.787885 -0.0115305 -0.222791)
(0.902428 0.0656376 -0.0150157)
(1.1826 0.160465 0.0825246)
(1.06979 -0.0436681 -0.0960085)
(0.909559 0.0448521 0.0656322)
(1.05445 0.095325 0.20396)
(1.02349 -0.0464069 0.0793052)
(0.974722 -0.0530178 0.0112784)
(1.0676 -0.0129062 0.129682)
(0.951516 -0.0149969 0.157003)
(0.879311 0.0442702 -0.0709643)
(0.939039 0.0101143 -0.157603)
(0.607325 -0.10367 0.0940187)
(0.856528 -0.0375894 0.0903117)
(0.859017 0.0403757 0.00246553)
(0.859604 -0.0303392 -0.0506606)
(0.832885 0.0384591 0.0957162)
(0.838303 0.0875434 0.0329595)
(0.78285 -0.023494 -0.070088)
(0.8077 0.0248845 0.0423091)
(0.869847 0.0766963 0.0924478)
(0.706869 -0.0501106 0.0472271)
(1.06337 -0.00920898 0.101285)
(1.03869 0.0509704 0.0944892)
(0.894517 -0.00247963 0.0616348)
(1.05907 0.0151882 0.0618465)
(1.15765 0.121259 -0.121807)
(1.10085 0.079726 -0.0966365)
(1.0301 0.0361033 0.0670809)
(1.26247 0.0283943 -0.042137)
(1.16129 0.00690749 -0.0386403)
(1.14202 0.0235211 0.117451)
(1.05364 -0.00243968 0.050851)
(0.761226 -0.0373182 -0.0568509)
(0.758039 -0.00419238 -0.18608)
(0.951312 0.0255456 -0.0136501)
(0.983779 0.0143568 0.0759249)
(0.853018 -0.00475146 -0.0136359)
(0.977192 -0.0201355 0.111772)
(1.13613 0.0462445 -0.00870422)
(0.807201 0.00994697 -0.30088)
(0.980345 0.0329597 -0.0213528)
(1.14366 0.122964 0.199816)
(0.96116 -0.0803518 -0.109348)
(0.972671 0.0204054 0.0159755)
(1.11837 0.0440489 0.164162)
(0.886319 -0.0799938 0.00460982)
(0.756535 -0.026209 0.0154585)
(0.86799 -0.0344842 0.154532)
(0.762431 0.0325734 0.174538)
(0.816862 0.0802854 -0.0193183)
(1.0195 -0.0101083 -0.0528945)
(0.686928 -0.111887 0.0728689)
(0.901262 -0.0514305 0.118509)
(0.904946 0.0270736 0.0163296)
(0.786632 -0.0352502 -0.0380832)
(0.872907 0.0569844 0.0871591)
(0.811353 0.0865617 0.178049)
(0.904111 -0.00159536 -0.0945813)
(0.833374 0.0273388 0.017352)
(0.818851 0.0793309 0.0800715)
(0.800544 -0.0515 0.0287545)
(0.968407 -0.0198499 0.0940613)
(0.918823 0.0399345 0.136472)
(0.879542 -0.0209224 0.0793446)
(1.11254 0.0200994 -0.0334689)
(1.13196 0.116705 -0.162391)
(0.881089 0.0933505 -0.0424048)
(1.1068 -0.00703102 -0.075335)
(1.14128 0.0140324 -0.0788679)
(0.952373 0.0208434 -0.0275368)
(1.05708 0.0449787 0.0955368)
(0.963217 0.0314779 0.0235815)
(0.774493 -0.0390078 -0.102667)
(0.659371 -0.0149275 -0.171382)
(0.727926 0.0171654 0.0821272)
(0.934632 0.0244609 0.0526632)
(0.790108 0.0382522 -0.0128345)
(0.821037 -0.00431909 0.208044)
(0.840579 0.0680172 0.0910187)
(0.879037 0.00449099 -0.270469)
(0.904571 0.0181364 0.00769837)
(1.22055 0.143686 0.171073)
(0.93642 -0.0454453 -0.101897)
(1.00833 0.0470552 0.0946706)
(1.14059 0.0853163 0.15782)
(0.850396 -0.0766034 -0.0561061)
(0.84159 -0.0656021 0.0113495)
(0.697939 -0.020746 0.179647)
(0.636484 0.0596814 0.0658675)
(0.935117 0.061531 -0.114515)
(0.813876 -0.0207949 0.0886013)
(0.540695 -0.109608 0.151239)
(0.67476 -0.0130009 0.0812125)
(0.768407 0.0822123 -0.0078754)
(0.749884 -0.0497006 -0.0756703)
(0.914865 0.0186257 0.0533222)
(0.737373 0.11538 0.203101)
(0.826871 -0.0132418 -0.0396923)
(0.867991 0.0419102 -0.0174859)
(1.00645 0.0797417 -0.0285406)
(0.841579 -0.0519899 -0.0857102)
(0.879617 0.0172862 0.0461499)
(0.939898 0.0460922 0.0921165)
(0.893146 -0.0420569 0.0159725)
(1.15558 0.0256479 -0.118918)
(1.14917 0.148157 -0.102562)
(0.877362 0.0946117 -0.102509)
(1.07956 -0.0653491 -0.0446025)
(1.07912 -0.00675493 -0.0626768)
(0.824432 0.0179882 -0.000163059)
(0.951171 0.0414153 0.0768521)
(0.97036 -0.00352658 0.0493248)
(0.799346 -0.0334363 -0.0789786)
(0.626378 -0.00692713 -0.000571954)
(0.592628 -0.0269175 0.178194)
(0.833082 0.0108703 0.0209306)
(0.781849 0.0502374 0.0566538)
(0.81852 0.00396916 0.173526)
(0.742786 0.0495996 -0.0078476)
(0.850174 -0.0082139 -0.178332)
(0.744957 0.0224236 0.010045)
(1.34562 0.0670785 0.117416)
(0.852802 -0.0625601 -0.119162)
(0.950874 0.0472743 0.169267)
(1.21284 0.0641961 0.168149)
(0.71244 -0.0977635 -0.0761613)
(0.794272 -0.106457 0.0170671)
(0.653084 -0.0375453 0.18844)
(0.662439 0.0287907 0.0222438)
(0.900017 0.0601583 -0.0950915)
(0.868488 0.0204375 0.062602)
(0.631299 -0.0904178 0.144485)
(0.605799 -0.0206483 0.0315048)
(0.836213 -0.000199484 -0.0598124)
(0.579902 -0.0131323 -0.0267298)
(0.838599 0.0608433 0.142443)
(0.753137 0.118868 0.0599436)
(0.54754 -0.0516537 0.0758593)
(0.91264 0.0140507 0.0741291)
(1.15991 0.0620217 -0.107119)
(0.830485 -0.0661825 -0.185719)
(0.925964 -0.0198501 0.0231179)
(0.905633 0.0498186 -0.0603084)
(0.660926 -0.0596142 -0.0359945)
(0.945492 0.0209287 -0.0796334)
(1.06943 0.15942 -0.0497979)
(0.926401 0.0486534 -0.0721619)
(0.914966 -0.0632996 0.0762758)
(0.839065 -0.00717851 0.0605531)
(0.733985 0.0102497 0.0369857)
(0.918088 0.0403165 0.0835044)
(0.8969 0.0275849 0.06431)
(0.782367 0.00374948 -0.0948693)
(0.647885 0.00904637 0.115617)
(0.645268 0.00169765 0.135078)
(0.637297 0.0470058 -0.013011)
(0.813869 0.0580954 0.150132)
(0.721927 0.0439492 0.159384)