/*--------------------------------*- C++ -*----------------------------------*\
  =========                 |
  \\      /  F ield         | OpenFOAM: The Open Source CFD Toolbox
   \\    /   O peration     | Website:  https://openfoam.org
    \\  /    A nd           | Version:  10
     \\/     M anipulation  |
\*---------------------------------------------------------------------------*/
FoamFile
{
    format      ascii;
    class       volScalarField;
    location    "6";
    object      pPrime2Mean;
}
// * * * * * * * * * * * * * * * * * * * * * * * * * * * * * * * * * * * * * //

dimensions      [0 4 -4 0 0 0 0];

internalField   nonuniform List<scalar> 
25600
(
6.55727e-08
7.18534e-08
7.26149e-08
6.26585e-08
6.38122e-08
6.7158e-08
5.54617e-08
4.85997e-08
4.57094e-08
3.82944e-08
3.44298e-08
2.92192e-08
2.35254e-08
2.62836e-08
2.83622e-08
2.26739e-08
2.55087e-08
2.89791e-08
2.37252e-08
2.92064e-08
3.38595e-08
3.01043e-08
3.62998e-08
4.80541e-08
5.18517e-08
5.47717e-08
6.42758e-08
7.21283e-08
6.79667e-08
6.96616e-08
8.13038e-08
7.70856e-08
6.8756e-08
7.98278e-08
8.48657e-08
7.36852e-08
7.31096e-08
7.97016e-08
7.70635e-08
6.95817e-08
7.72523e-08
7.67415e-08
7.57945e-08
7.08115e-08
6.81047e-08
6.88281e-08
6.01901e-08
4.75364e-08
4.27824e-08
3.92321e-08
3.02725e-08
2.30515e-08
2.41899e-08
2.53936e-08
2.14702e-08
2.37144e-08
2.55528e-08
1.92067e-08
2.61134e-08
3.39415e-08
2.78167e-08
3.43779e-08
4.8223e-08
4.74784e-08
5.9152e-08
7.20671e-08
7.06159e-08
7.44627e-08
7.41013e-08
7.15668e-08
7.75569e-08
7.08432e-08
6.3065e-08
7.77855e-08
8.22164e-08
7.04427e-08
7.59035e-08
8.63033e-08
7.88235e-08
7.5123e-08
8.66099e-08
8.33781e-08
8.25257e-08
8.17589e-08
7.78764e-08
7.48379e-08
6.5669e-08
4.92476e-08
4.27789e-08
4.09245e-08
2.8363e-08
1.96607e-08
2.66405e-08
2.70243e-08
2.25976e-08
3.33109e-08
3.12802e-08
2.19642e-08
4.07469e-08
4.45982e-08
3.03365e-08
4.95305e-08
6.27357e-08
5.3337e-08
7.61379e-08
8.9416e-08
7.74573e-08
7.94188e-08
7.69743e-08
7.34306e-08
7.47857e-08
6.10017e-08
5.93824e-08
7.75366e-08
7.57009e-08
6.72305e-08
7.94755e-08
8.81923e-08
8.11667e-08
8.24834e-08
9.39062e-08
9.0641e-08
9.11878e-08
9.49828e-08
9.20645e-08
8.47659e-08
7.23828e-08
5.40599e-08
4.71537e-08
4.37847e-08
2.8373e-08
1.85156e-08
2.80015e-08
2.76992e-08
2.94749e-08
4.36783e-08
3.08855e-08
2.78526e-08
5.57186e-08
4.57264e-08
3.0404e-08
6.34487e-08
6.45608e-08
5.66932e-08
9.38175e-08
9.68432e-08
8.08011e-08
8.55006e-08
7.83288e-08
7.77793e-08
7.33422e-08
5.24297e-08
6.06213e-08
7.96346e-08
7.08721e-08
6.85591e-08
8.48926e-08
8.9594e-08
8.71673e-08
9.1912e-08
1.01048e-07
9.8251e-08
1.01233e-07
1.1213e-07
1.10532e-07
9.73027e-08
8.02291e-08
6.19363e-08
5.56821e-08
4.7375e-08
2.909e-08
1.89654e-08
2.77231e-08
3.05208e-08
4.10121e-08
4.89326e-08
2.40976e-08
3.38812e-08
6.61159e-08
3.87245e-08
3.05656e-08
7.00819e-08
5.71574e-08
6.46681e-08
1.11072e-07
1.00898e-07
9.22935e-08
9.7156e-08
8.53736e-08
8.86977e-08
7.15733e-08
4.57982e-08
6.53481e-08
8.23529e-08
6.9697e-08
7.46139e-08
9.14269e-08
9.4256e-08
9.93021e-08
1.03214e-07
1.09843e-07
1.06457e-07
1.14943e-07
1.37076e-07
1.35559e-07
1.13563e-07
9.06448e-08
7.35302e-08
6.78359e-08
5.28143e-08
3.15313e-08
2.12793e-08
2.89965e-08
4.27746e-08
5.94525e-08
4.97004e-08
1.894e-08
4.499e-08
7.54552e-08
3.34049e-08
3.61378e-08
7.17339e-08
5.11144e-08
8.39002e-08
1.3114e-07
1.12156e-07
1.16374e-07
1.16552e-07
1.01582e-07
1.02684e-07
6.59064e-08
4.02529e-08
7.15474e-08
8.61198e-08
7.41202e-08
8.42347e-08
1.00068e-07
1.06817e-07
1.19398e-07
1.16892e-07
1.22465e-07
1.17993e-07
1.38673e-07
1.76578e-07
1.72639e-07
1.37755e-07
1.07012e-07
9.04528e-08
8.48885e-08
6.35085e-08
4.0049e-08
2.77649e-08
3.85786e-08
7.16853e-08
8.89558e-08
5.38588e-08
2.30177e-08
6.56803e-08
9.03396e-08
3.66543e-08
4.84177e-08
7.26529e-08
5.38351e-08
1.14603e-07
1.56956e-07
1.3712e-07
1.52439e-07
1.4524e-07
1.2898e-07
1.1638e-07
5.79886e-08
3.89398e-08
8.17956e-08
9.64572e-08
8.74494e-08
9.98683e-08
1.15797e-07
1.33256e-07
1.51557e-07
1.36009e-07
1.43563e-07
1.40943e-07
1.8395e-07
2.40674e-07
2.29262e-07
1.76317e-07
1.35106e-07
1.17382e-07
1.12114e-07
8.76238e-08
6.39849e-08
4.55124e-08
6.79787e-08
1.28149e-07
1.36699e-07
7.33196e-08
4.49152e-08
1.01335e-07
1.18416e-07
5.48723e-08
7.0175e-08
8.07624e-08
7.3584e-08
1.5943e-07
1.94752e-07
1.81905e-07
2.0491e-07
1.91122e-07
1.70088e-07
1.3427e-07
5.50032e-08
4.87821e-08
1.0347e-07
1.23745e-07
1.16292e-07
1.30747e-07
1.47685e-07
1.82704e-07
2.01946e-07
1.66739e-07
1.84735e-07
1.9094e-07
2.69592e-07
3.4639e-07
3.19719e-07
2.41285e-07
1.85002e-07
1.63523e-07
1.61521e-07
1.39486e-07
1.17041e-07
8.89335e-08
1.35621e-07
2.29756e-07
2.18576e-07
1.25968e-07
9.88368e-08
1.63289e-07
1.70574e-07
9.99216e-08
1.10272e-07
1.10456e-07
1.24453e-07
2.26681e-07
2.58587e-07
2.55918e-07
2.85988e-07
2.68878e-07
2.31101e-07
1.65914e-07
6.87069e-08
7.97424e-08
1.47156e-07
1.80135e-07
1.73807e-07
1.93189e-07
2.10379e-07
2.69064e-07
2.80846e-07
2.19882e-07
2.70553e-07
2.94809e-07
4.23091e-07
5.21948e-07
4.69689e-07
3.5568e-07
2.73586e-07
2.45671e-07
2.53652e-07
2.42568e-07
2.19787e-07
1.85248e-07
2.73079e-07
4.02859e-07
3.64591e-07
2.39242e-07
2.11079e-07
2.73608e-07
2.68778e-07
1.93544e-07
1.89411e-07
1.86342e-07
2.27158e-07
3.35103e-07
3.68273e-07
3.74277e-07
4.17369e-07
3.98945e-07
3.25859e-07
2.26087e-07
1.16157e-07
1.46886e-07
2.30557e-07
2.84555e-07
2.83301e-07
3.09997e-07
3.29236e-07
4.16861e-07
4.09946e-07
3.14543e-07
4.40467e-07
4.92005e-07
6.86745e-07
8.10585e-07
7.19499e-07
5.56645e-07
4.31214e-07
3.92313e-07
4.20501e-07
4.32659e-07
4.0655e-07
3.76566e-07
5.29132e-07
6.93895e-07
6.27557e-07
4.61449e-07
4.29165e-07
4.71821e-07
4.56006e-07
3.74507e-07
3.43365e-07
3.4616e-07
4.10519e-07
5.16734e-07
5.50885e-07
5.61059e-07
6.34787e-07
6.1035e-07
4.77331e-07
3.41944e-07
2.22003e-07
2.7168e-07
3.80329e-07
4.65395e-07
4.83163e-07
5.11416e-07
5.45431e-07
6.65695e-07
6.22933e-07
4.84563e-07
7.55376e-07
8.43339e-07
1.12585e-06
1.27475e-06
1.13241e-06
8.9653e-07
6.99771e-07
6.48362e-07
7.09944e-07
7.60117e-07
7.32127e-07
7.3153e-07
9.75462e-07
1.18081e-06
1.0919e-06
8.66897e-07
8.26493e-07
8.23465e-07
8.03201e-07
7.05089e-07
6.29227e-07
6.39249e-07
7.16779e-07
8.24441e-07
8.41923e-07
8.52599e-07
9.90691e-07
9.46051e-07
7.23298e-07
5.50162e-07
4.20425e-07
4.84535e-07
6.32552e-07
7.64705e-07
8.23997e-07
8.45227e-07
9.18315e-07
1.06972e-06
9.70104e-07
7.87348e-07
1.29639e-06
1.43263e-06
1.82893e-06
2.00798e-06
1.79252e-06
1.45284e-06
1.14347e-06
1.07696e-06
1.19386e-06
1.29433e-06
1.27334e-06
1.34606e-06
1.71402e-06
1.98277e-06
1.87663e-06
1.56471e-06
1.51008e-06
1.43292e-06
1.41841e-06
1.27584e-06
1.12423e-06
1.13064e-06
1.20444e-06
1.32146e-06
1.28643e-06
1.3096e-06
1.56125e-06
1.47296e-06
1.12405e-06
9.05343e-07
7.60693e-07
8.37822e-07
1.04243e-06
1.25285e-06
1.375e-06
1.3897e-06
1.53653e-06
1.70926e-06
1.52495e-06
1.30826e-06
2.18217e-06
2.38405e-06
2.91821e-06
3.14718e-06
2.82014e-06
2.33202e-06
1.85715e-06
1.77492e-06
1.98643e-06
2.13881e-06
2.15628e-06
2.37116e-06
2.9094e-06
3.29163e-06
3.17572e-06
2.73988e-06
2.66026e-06
2.48564e-06
2.47725e-06
2.21996e-06
1.94065e-06
1.92038e-06
1.96635e-06
2.10307e-06
1.96584e-06
2.02482e-06
2.44731e-06
2.27093e-06
1.76192e-06
1.48738e-06
1.31185e-06
1.40002e-06
1.67658e-06
2.0056e-06
2.21963e-06
2.24953e-06
2.52686e-06
2.69847e-06
2.39334e-06
2.1778e-06
3.55489e-06
3.83e-06
4.53394e-06
4.84523e-06
4.33789e-06
3.65665e-06
2.9568e-06
2.85211e-06
3.22825e-06
3.42436e-06
3.53671e-06
4.00909e-06
4.80325e-06
5.35786e-06
5.2121e-06
4.6146e-06
4.48307e-06
4.19135e-06
4.15335e-06
3.67746e-06
3.20771e-06
3.11057e-06
3.1065e-06
3.24957e-06
2.97063e-06
3.11041e-06
3.79347e-06
3.47462e-06
2.75884e-06
2.41296e-06
2.18016e-06
2.27234e-06
2.62909e-06
3.13846e-06
3.48334e-06
3.58103e-06
4.06242e-06
4.19782e-06
3.73674e-06
3.54575e-06
5.67438e-06
6.02798e-06
6.94661e-06
7.40026e-06
6.62307e-06
5.67361e-06
4.66673e-06
4.52802e-06
5.12395e-06
5.39039e-06
5.69632e-06
6.58658e-06
7.80009e-06
8.63649e-06
8.47414e-06
7.64327e-06
7.45501e-06
6.98351e-06
6.80399e-06
5.90118e-06
5.14833e-06
4.87126e-06
4.79278e-06
4.91613e-06
4.47278e-06
4.75227e-06
5.8218e-06
5.24694e-06
4.30394e-06
3.87029e-06
3.49469e-06
3.58465e-06
4.00944e-06
4.78433e-06
5.33589e-06
5.60189e-06
6.37846e-06
6.41184e-06
5.80128e-06
5.65955e-06
8.7601e-06
9.18073e-06
1.03519e-05
1.09392e-05
9.78043e-06
8.49266e-06
7.12153e-06
6.95312e-06
7.83488e-06
8.21507e-06
8.83023e-06
1.04324e-05
1.23274e-05
1.35654e-05
1.34022e-05
1.22077e-05
1.18859e-05
1.11911e-05
1.0638e-05
9.08427e-06
7.94038e-06
7.36513e-06
7.16149e-06
7.22659e-06
6.59438e-06
7.12291e-06
8.75673e-06
7.83439e-06
6.58436e-06
6.00399e-06
5.41586e-06
5.4555e-06
5.94609e-06
7.13692e-06
7.98387e-06
8.6257e-06
9.80231e-06
9.67194e-06
8.91788e-06
8.77413e-06
1.32559e-05
1.36748e-05
1.51429e-05
1.59076e-05
1.42408e-05
1.24828e-05
1.06197e-05
1.02803e-05
1.15217e-05
1.21019e-05
1.32961e-05
1.59481e-05
1.87936e-05
2.06641e-05
2.05088e-05
1.88925e-05
1.81272e-05
1.70412e-05
1.57518e-05
1.33455e-05
1.17436e-05
1.08161e-05
1.04018e-05
1.03702e-05
9.54012e-06
1.04626e-05
1.28861e-05
1.14806e-05
9.82318e-06
9.02784e-06
8.13676e-06
7.99559e-06
8.59072e-06
1.04946e-05
1.17695e-05
1.29828e-05
1.46307e-05
1.4241e-05
1.33587e-05
1.32232e-05
1.88622e-05
1.90713e-05
2.0904e-05
2.19609e-05
1.96619e-05
1.73424e-05
1.49891e-05
1.42944e-05
1.56918e-05
1.67811e-05
1.90615e-05
2.31882e-05
2.70133e-05
2.96612e-05
2.93576e-05
2.74435e-05
2.61663e-05
2.43233e-05
2.19217e-05
1.82801e-05
1.60858e-05
1.48681e-05
1.42322e-05
1.4188e-05
1.31825e-05
1.45431e-05
1.80901e-05
1.6082e-05
1.39084e-05
1.28716e-05
1.17647e-05
1.136e-05
1.20454e-05
1.48499e-05
1.68446e-05
1.8777e-05
2.07613e-05
1.99999e-05
1.90556e-05
1.87425e-05
2.53257e-05
2.51044e-05
2.75351e-05
2.91196e-05
2.59837e-05
2.30243e-05
1.99979e-05
1.88328e-05
2.01647e-05
2.22018e-05
2.61834e-05
3.2433e-05
3.74659e-05
4.12352e-05
4.07095e-05
3.90233e-05
3.66469e-05
3.32363e-05
2.91203e-05
2.38313e-05
2.10857e-05
1.94265e-05
1.83152e-05
1.80636e-05
1.72397e-05
1.93145e-05
2.39612e-05
2.13097e-05
1.84967e-05
1.73512e-05
1.64001e-05
1.55696e-05
1.62023e-05
1.99691e-05
2.27601e-05
2.53801e-05
2.80357e-05
2.69701e-05
2.55643e-05
2.49536e-05
3.18573e-05
3.1117e-05
3.45131e-05
3.71581e-05
3.29796e-05
2.93162e-05
2.56193e-05
2.38026e-05
2.52504e-05
2.79464e-05
3.37282e-05
4.28984e-05
4.95692e-05
5.41825e-05
5.33783e-05
5.25711e-05
4.84908e-05
4.29405e-05
3.67363e-05
3.03873e-05
2.68653e-05
2.45706e-05
2.24774e-05
2.16699e-05
2.10999e-05
2.37407e-05
2.99656e-05
2.67078e-05
2.27194e-05
2.1508e-05
2.05612e-05
1.91063e-05
2.03239e-05
2.48251e-05
2.85184e-05
3.24427e-05
3.65779e-05
3.45328e-05
3.27874e-05
3.17002e-05
3.77027e-05
3.66506e-05
4.07754e-05
4.4134e-05
3.97815e-05
3.53096e-05
3.06424e-05
2.76194e-05
2.92978e-05
3.23137e-05
3.9453e-05
5.0972e-05
5.80135e-05
6.28445e-05
6.31392e-05
6.31459e-05
5.79061e-05
5.01734e-05
4.26514e-05
3.6499e-05
3.22879e-05
2.90124e-05
2.50056e-05
2.39915e-05
2.47263e-05
2.83003e-05
3.66677e-05
3.15582e-05
2.61804e-05
2.5401e-05
2.42487e-05
2.25143e-05
2.39482e-05
2.92499e-05
3.41762e-05
4.04189e-05
4.59883e-05
4.23054e-05
3.97269e-05
3.79222e-05
4.19415e-05
4.06554e-05
4.46645e-05
4.90237e-05
4.50967e-05
4.04336e-05
3.4567e-05
3.01833e-05
3.18225e-05
3.45198e-05
4.24531e-05
5.63449e-05
6.20683e-05
6.67214e-05
6.78677e-05
6.81429e-05
6.24943e-05
5.34457e-05
4.62018e-05
4.05685e-05
3.55924e-05
3.15888e-05
2.61859e-05
2.58349e-05
2.7349e-05
3.09151e-05
4.20931e-05
3.58317e-05
2.95695e-05
2.92079e-05
2.76081e-05
2.49336e-05
2.56056e-05
3.09361e-05
3.6597e-05
4.47863e-05
5.08975e-05
4.6932e-05
4.39545e-05
4.16561e-05
4.49498e-05
4.30911e-05
4.65207e-05
5.16645e-05
4.81096e-05
4.38674e-05
3.65732e-05
3.15648e-05
3.30578e-05
3.53822e-05
4.335e-05
5.93545e-05
6.26909e-05
6.78541e-05
6.8998e-05
6.86358e-05
6.22779e-05
5.40316e-05
4.75475e-05
4.24408e-05
3.72952e-05
3.3589e-05
2.6478e-05
2.59505e-05
2.72423e-05
3.0215e-05
4.36964e-05
3.64429e-05
2.94741e-05
3.12134e-05
2.93189e-05
2.4977e-05
2.54686e-05
3.10454e-05
3.67023e-05
4.5508e-05
5.15489e-05
4.89068e-05
4.58381e-05
4.39048e-05
4.63759e-05
4.40033e-05
4.76393e-05
5.33564e-05
5.00456e-05
4.5997e-05
3.79531e-05
3.37704e-05
3.50866e-05
3.71321e-05
4.4133e-05
6.28222e-05
6.28493e-05
6.78953e-05
6.84824e-05
6.7131e-05
6.06524e-05
5.34775e-05
4.85052e-05
4.34235e-05
3.85538e-05
3.64594e-05
2.72438e-05
2.64996e-05
2.69147e-05
2.93061e-05
4.45726e-05
3.78672e-05
2.94749e-05
3.43473e-05
3.14313e-05
2.50936e-05
2.57845e-05
3.1677e-05
3.64066e-05
4.50487e-05
5.12909e-05
4.94564e-05
4.65823e-05
4.50019e-05
4.72242e-05
4.44997e-05
4.87067e-05
5.50303e-05
5.14348e-05
4.66853e-05
3.94319e-05
3.58417e-05
3.71782e-05
3.8233e-05
4.45201e-05
6.40416e-05
6.19779e-05
6.68935e-05
6.68265e-05
6.48598e-05
5.89766e-05
5.33332e-05
4.93075e-05
4.43069e-05
3.99696e-05
4.04591e-05
2.85771e-05
2.72319e-05
2.76319e-05
2.88641e-05
4.52182e-05
4.03266e-05
2.99054e-05
3.83194e-05
3.28818e-05
2.5084e-05
2.59278e-05
3.2381e-05
3.58176e-05
4.4415e-05
5.05801e-05
4.81108e-05
4.68768e-05
4.55536e-05
4.69392e-05
4.46245e-05
4.91932e-05
5.6283e-05
5.21465e-05
4.74837e-05
4.08728e-05
3.77786e-05
3.9038e-05
3.853e-05
4.44819e-05
6.19599e-05
5.94908e-05
6.55775e-05
6.4988e-05
6.3038e-05
5.76546e-05
5.33772e-05
4.95544e-05
4.48533e-05
4.05179e-05
4.25097e-05
2.90259e-05
2.74531e-05
2.76638e-05
2.90831e-05
4.5178e-05
4.14117e-05
3.01691e-05
4.06008e-05
3.34827e-05
2.53226e-05
2.61678e-05
3.30117e-05
3.51362e-05
4.45889e-05
5.04538e-05
4.65726e-05
4.63919e-05
4.52347e-05
4.56808e-05
4.39296e-05
4.85041e-05
5.62058e-05
5.1885e-05
4.80426e-05
4.15583e-05
3.88228e-05
4.0179e-05
3.874e-05
4.45725e-05
5.93983e-05
5.7802e-05
6.41977e-05
6.30409e-05
6.09942e-05
5.65091e-05
5.31057e-05
4.95051e-05
4.4515e-05
4.13044e-05
4.27231e-05
2.90844e-05
2.728e-05
2.69905e-05
2.84388e-05
4.39213e-05
4.18128e-05
2.94769e-05
4.07329e-05
3.24879e-05
2.52668e-05
2.63257e-05
3.38398e-05
3.45773e-05
4.49526e-05
5.08724e-05
4.44676e-05
4.48866e-05
4.41215e-05
4.42785e-05
4.29083e-05
4.73562e-05
5.54655e-05
5.10551e-05
4.75298e-05
4.15771e-05
3.90755e-05
4.03234e-05
3.85149e-05
4.36961e-05
5.61876e-05
5.65352e-05
6.29138e-05
6.14684e-05
5.96302e-05
5.52255e-05
5.24643e-05
4.87577e-05
4.41638e-05
4.05922e-05
4.26516e-05
2.87768e-05
2.69019e-05
2.60695e-05
2.75523e-05
4.28071e-05
4.32158e-05
2.9065e-05
4.01441e-05
3.18245e-05
2.50811e-05
2.62161e-05
3.42948e-05
3.41902e-05
4.47534e-05
5.02618e-05
4.33005e-05
4.36115e-05
4.28758e-05
4.33701e-05
4.21446e-05
4.637e-05
5.46356e-05
5.03972e-05
4.70404e-05
4.11769e-05
3.86697e-05
3.98941e-05
3.82916e-05
4.30188e-05
5.46431e-05
5.54548e-05
6.16528e-05
6.00883e-05
5.80561e-05
5.40991e-05
5.12325e-05
4.80785e-05
4.34833e-05
4.02197e-05
4.1971e-05
2.85927e-05
2.66023e-05
2.55357e-05
2.68653e-05
4.15876e-05
4.30835e-05
2.87953e-05
3.87792e-05
3.17083e-05
2.48509e-05
2.59817e-05
3.41053e-05
3.38803e-05
4.44975e-05
4.94646e-05
4.23692e-05
4.28408e-05
4.20283e-05
4.27965e-05
4.16574e-05
4.58415e-05
5.40366e-05
4.98338e-05
4.65781e-05
4.08397e-05
3.8202e-05
3.93903e-05
3.78891e-05
4.24462e-05
5.38976e-05
5.47432e-05
6.09144e-05
5.93442e-05
5.72391e-05
5.3377e-05
5.03608e-05
4.73234e-05
4.28209e-05
3.94209e-05
4.11553e-05
2.82715e-05
2.62617e-05
2.50962e-05
2.65018e-05
4.07764e-05
4.22407e-05
2.83839e-05
3.78761e-05
3.14003e-05
2.44977e-05
2.56222e-05
3.35389e-05
3.35216e-05
4.39319e-05
4.90408e-05
4.16714e-05
4.21514e-05
4.14229e-05
4.2466e-05
4.14153e-05
4.5612e-05
5.37713e-05
4.96687e-05
4.63535e-05
4.06651e-05
3.8016e-05
3.91114e-05
3.76517e-05
4.21225e-05
5.35374e-05
5.44173e-05
6.05795e-05
5.90002e-05
5.68536e-05
5.30379e-05
5.00247e-05
4.70479e-05
4.25175e-05
3.91402e-05
4.08618e-05
2.81227e-05
2.6069e-05
2.48715e-05
2.62543e-05
4.04361e-05
4.17902e-05
2.81793e-05
3.74252e-05
3.11921e-05
2.43263e-05
2.54399e-05
3.32536e-05
3.33269e-05
4.36634e-05
4.88287e-05
4.14641e-05
4.18147e-05
4.11947e-05
6.41937e-08
6.93588e-08
7.3371e-08
6.29147e-08
6.07539e-08
6.50004e-08
5.66395e-08
4.86807e-08
4.46008e-08
3.92252e-08
3.44289e-08
2.97967e-08
2.5372e-08
2.61633e-08
2.80002e-08
2.33376e-08
2.6976e-08
3.18942e-08
2.51393e-08
3.04293e-08
3.44366e-08
2.98217e-08
3.86992e-08
4.94428e-08
4.89241e-08
5.36748e-08
6.52557e-08
7.09012e-08
6.66959e-08
6.82621e-08
8.0461e-08
7.77678e-08
7.04402e-08
8.16207e-08
8.44814e-08
7.29742e-08
7.46265e-08
7.9395e-08
7.4026e-08
6.91539e-08
7.43845e-08
7.39905e-08
7.83369e-08
7.14133e-08
6.50325e-08
6.92933e-08
6.31837e-08
4.93192e-08
4.33063e-08
3.95152e-08
3.03862e-08
2.54898e-08
2.6358e-08
2.3884e-08
1.97184e-08
2.3583e-08
2.55134e-08
2.00946e-08
2.58526e-08
3.26476e-08
2.5804e-08
3.49807e-08
5.28862e-08
4.78575e-08
5.59476e-08
7.45549e-08
7.33684e-08
7.44023e-08
7.59279e-08
7.07026e-08
7.7178e-08
7.34311e-08
6.48425e-08
7.95455e-08
8.11488e-08
6.94731e-08
7.9595e-08
8.59242e-08
7.43835e-08
7.42343e-08
8.15579e-08
8.25873e-08
8.59491e-08
7.96154e-08
7.30131e-08
7.64667e-08
7.02805e-08
5.27208e-08
4.37645e-08
3.91906e-08
2.8624e-08
2.50229e-08
2.91346e-08
2.30394e-08
1.78741e-08
3.16806e-08
3.15877e-08
2.15116e-08
3.87349e-08
4.17004e-08
2.80352e-08
5.48627e-08
7.26025e-08
5.41137e-08
7.53479e-08
9.78658e-08
8.42302e-08
8.2852e-08
8.11187e-08
7.19621e-08
7.53361e-08
6.49632e-08
6.1141e-08
7.81687e-08
7.14921e-08
6.70483e-08
8.63384e-08
8.65566e-08
7.52803e-08
7.95746e-08
8.77343e-08
9.49057e-08
9.41483e-08
8.74923e-08
8.43881e-08
8.73589e-08
8.08454e-08
6.00862e-08
4.69751e-08
3.96657e-08
3.05805e-08
2.87142e-08
3.1119e-08
2.03714e-08
2.20461e-08
4.30227e-08
3.56911e-08
2.95178e-08
5.25932e-08
4.04712e-08
3.06801e-08
7.7831e-08
7.99204e-08
5.5409e-08
9.37499e-08
1.07969e-07
8.83023e-08
9.03165e-08
7.78998e-08
7.17925e-08
7.51587e-08
5.7196e-08
6.28818e-08
7.7414e-08
6.26239e-08
7.19722e-08
9.57174e-08
8.59451e-08
7.86174e-08
8.40942e-08
9.69998e-08
1.10918e-07
1.02652e-07
9.70989e-08
9.83172e-08
1.02936e-07
9.71908e-08
7.0009e-08
5.15201e-08
4.06229e-08
3.51976e-08
3.63624e-08
3.07442e-08
1.69082e-08
3.17076e-08
5.33285e-08
3.72785e-08
4.03885e-08
6.02109e-08
2.87759e-08
3.5829e-08
9.68733e-08
7.59605e-08
5.69301e-08
1.07905e-07
1.11618e-07
9.99301e-08
1.00296e-07
7.55471e-08
7.8459e-08
7.74829e-08
5.31314e-08
6.91835e-08
7.46501e-08
5.81374e-08
8.42044e-08
1.05881e-07
8.75822e-08
8.52892e-08
8.725e-08
1.12716e-07
1.29216e-07
1.11993e-07
1.09205e-07
1.13839e-07
1.25305e-07
1.20333e-07
8.16509e-08
5.70893e-08
4.26211e-08
4.30856e-08
4.82079e-08
2.98985e-08
1.83262e-08
4.69524e-08
6.24715e-08
4.38126e-08
5.73554e-08
6.07573e-08
1.8458e-08
5.12234e-08
1.15534e-07
7.21052e-08
6.49479e-08
1.21023e-07
1.24222e-07
1.27455e-07
1.1574e-07
8.04485e-08
9.07602e-08
7.77779e-08
5.23406e-08
7.54433e-08
6.92e-08
5.90739e-08
1.00698e-07
1.15525e-07
9.49028e-08
9.43869e-08
9.04648e-08
1.36179e-07
1.49235e-07
1.24349e-07
1.24343e-07
1.32757e-07
1.59498e-07
1.52343e-07
9.79998e-08
6.6255e-08
4.96587e-08
5.95751e-08
6.64122e-08
3.29133e-08
3.15746e-08
6.83614e-08
7.51371e-08
6.53999e-08
8.4725e-08
6.05505e-08
1.85853e-08
8.06086e-08
1.38772e-07
7.64314e-08
7.9375e-08
1.40526e-07
1.56225e-07
1.70587e-07
1.38647e-07
9.4764e-08
1.0328e-07
7.55544e-08
5.74115e-08
8.23546e-08
6.46989e-08
6.73978e-08
1.21327e-07
1.28966e-07
1.11667e-07
1.06343e-07
9.7106e-08
1.69729e-07
1.74134e-07
1.43733e-07
1.45624e-07
1.61931e-07
2.12512e-07
1.98081e-07
1.25622e-07
8.44892e-08
6.91279e-08
9.38099e-08
9.52377e-08
4.74435e-08
6.19286e-08
9.67776e-08
1.00447e-07
1.11161e-07
1.24522e-07
6.83972e-08
3.59868e-08
1.27397e-07
1.76433e-07
9.60092e-08
1.02544e-07
1.75954e-07
2.15043e-07
2.33846e-07
1.77355e-07
1.19778e-07
1.17387e-07
8.01876e-08
7.4977e-08
9.75197e-08
6.69016e-08
8.53652e-08
1.49345e-07
1.56042e-07
1.43041e-07
1.2386e-07
1.11979e-07
2.19176e-07
2.12691e-07
1.79626e-07
1.81668e-07
2.12911e-07
2.9431e-07
2.69114e-07
1.77357e-07
1.24073e-07
1.15136e-07
1.56931e-07
1.43625e-07
8.63934e-08
1.1347e-07
1.38211e-07
1.51502e-07
1.93338e-07
1.83668e-07
9.5568e-08
7.99082e-08
2.03878e-07
2.43372e-07
1.44031e-07
1.45548e-07
2.452e-07
3.12615e-07
3.32576e-07
2.45954e-07
1.61743e-07
1.44603e-07
1.07731e-07
1.17731e-07
1.33375e-07
8.55988e-08
1.20049e-07
1.95718e-07
2.11326e-07
1.98338e-07
1.54805e-07
1.43294e-07
2.96638e-07
2.82457e-07
2.47044e-07
2.48879e-07
3.03126e-07
4.18802e-07
3.84585e-07
2.74065e-07
2.07564e-07
2.1169e-07
2.64819e-07
2.30346e-07
1.68593e-07
1.92841e-07
2.0711e-07
2.47552e-07
3.28864e-07
2.80049e-07
1.57809e-07
1.68122e-07
3.33592e-07
3.64275e-07
2.42101e-07
2.29746e-07
3.71393e-07
4.69735e-07
4.9491e-07
3.65448e-07
2.34502e-07
2.05372e-07
1.80816e-07
2.09352e-07
2.12643e-07
1.39705e-07
1.89232e-07
2.80256e-07
3.13158e-07
2.95491e-07
2.12539e-07
2.04108e-07
4.26653e-07
4.14448e-07
3.71765e-07
3.75212e-07
4.5999e-07
6.14291e-07
5.77456e-07
4.51664e-07
3.733e-07
3.96552e-07
4.44899e-07
3.85514e-07
3.13854e-07
3.17699e-07
3.29775e-07
4.18227e-07
5.43558e-07
4.42293e-07
2.82657e-07
3.36465e-07
5.57119e-07
5.85205e-07
4.27026e-07
3.917e-07
5.8985e-07
7.23529e-07
7.68973e-07
5.73344e-07
3.69419e-07
3.34194e-07
3.37052e-07
3.89972e-07
3.72561e-07
2.64205e-07
3.24313e-07
4.33494e-07
4.90617e-07
4.65786e-07
3.22417e-07
3.17905e-07
6.51616e-07
6.51479e-07
5.91755e-07
6.02145e-07
7.22755e-07
9.26332e-07
8.9806e-07
7.64223e-07
6.81224e-07
7.23601e-07
7.43235e-07
6.53682e-07
5.4954e-07
5.22352e-07
5.43063e-07
7.06206e-07
8.82835e-07
7.13023e-07
5.17081e-07
6.41969e-07
9.25626e-07
9.64162e-07
7.44086e-07
6.91793e-07
9.50555e-07
1.13254e-06
1.22298e-06
9.22782e-07
6.14116e-07
5.81641e-07
6.32423e-07
7.21451e-07
6.71011e-07
5.18229e-07
5.74579e-07
6.99155e-07
7.93278e-07
7.55981e-07
5.25118e-07
5.239e-07
1.04899e-06
1.06425e-06
9.67304e-07
9.94743e-07
1.15234e-06
1.42511e-06
1.42064e-06
1.29142e-06
1.21764e-06
1.2669e-06
1.22927e-06
1.09026e-06
9.18039e-07
8.63442e-07
9.09786e-07
1.17221e-06
1.42071e-06
1.15166e-06
9.36202e-07
1.16951e-06
1.53669e-06
1.59918e-06
1.26888e-06
1.2206e-06
1.52374e-06
1.799e-06
1.96547e-06
1.49925e-06
1.04117e-06
1.02242e-06
1.15459e-06
1.29678e-06
1.19431e-06
9.8136e-07
1.00805e-06
1.13456e-06
1.29713e-06
1.23128e-06
8.8626e-07
8.88807e-07
1.72778e-06
1.73773e-06
1.57624e-06
1.6376e-06
1.8362e-06
2.21698e-06
2.2491e-06
2.14962e-06
2.11231e-06
2.13999e-06
2.00884e-06
1.77334e-06
1.48593e-06
1.4131e-06
1.50573e-06
1.90039e-06
2.24258e-06
1.8349e-06
1.6342e-06
2.02452e-06
2.50396e-06
2.60035e-06
2.09836e-06
2.09514e-06
2.43672e-06
2.87063e-06
3.14717e-06
2.42732e-06
1.76766e-06
1.77402e-06
2.02679e-06
2.246e-06
2.06278e-06
1.77003e-06
1.72129e-06
1.83464e-06
2.10385e-06
1.98475e-06
1.50093e-06
1.50572e-06
2.83743e-06
2.79075e-06
2.52889e-06
2.65637e-06
2.89766e-06
3.42295e-06
3.51697e-06
3.47412e-06
3.50613e-06
3.47726e-06
3.19793e-06
2.7862e-06
2.31965e-06
2.2515e-06
2.41405e-06
2.99667e-06
3.4651e-06
2.87607e-06
2.73298e-06
3.33722e-06
3.98747e-06
4.12094e-06
3.3741e-06
3.4538e-06
3.82744e-06
4.5113e-06
4.94257e-06
3.8401e-06
2.91937e-06
2.97391e-06
3.39318e-06
3.72717e-06
3.41941e-06
3.01815e-06
2.8326e-06
2.91299e-06
3.34112e-06
3.12732e-06
2.50328e-06
2.52166e-06
4.56555e-06
4.3539e-06
3.95724e-06
4.19588e-06
4.49342e-06
5.19493e-06
5.39391e-06
5.46261e-06
5.57867e-06
5.4631e-06
4.93143e-06
4.23564e-06
3.51405e-06
3.48271e-06
3.76621e-06
4.62393e-06
5.2152e-06
4.39225e-06
4.40993e-06
5.30387e-06
6.19856e-06
6.33281e-06
5.28188e-06
5.47816e-06
5.94616e-06
6.97407e-06
7.61603e-06
5.96894e-06
4.70646e-06
4.81773e-06
5.41595e-06
5.90493e-06
5.4259e-06
4.89688e-06
4.4943e-06
4.50978e-06
5.17498e-06
4.83123e-06
4.10561e-06
4.13952e-06
7.13119e-06
6.57772e-06
6.04757e-06
6.43777e-06
6.81241e-06
7.69997e-06
8.02447e-06
8.30276e-06
8.51927e-06
8.30409e-06
7.34406e-06
6.21726e-06
5.10376e-06
5.17637e-06
5.64943e-06
6.87987e-06
7.5682e-06
6.50352e-06
6.79736e-06
8.07611e-06
9.25908e-06
9.31562e-06
7.96459e-06
8.35749e-06
9.01707e-06
1.04636e-05
1.13813e-05
9.0248e-06
7.35127e-06
7.52672e-06
8.36517e-06
9.01453e-06
8.25433e-06
7.59255e-06
6.85364e-06
6.76247e-06
7.74164e-06
7.24667e-06
6.50511e-06
6.59058e-06
1.06967e-05
9.58097e-06
8.93762e-06
9.53139e-06
1.00276e-05
1.10653e-05
1.15207e-05
1.21387e-05
1.24184e-05
1.20664e-05
1.04712e-05
8.79674e-06
7.23108e-06
7.48071e-06
8.29787e-06
1.00922e-05
1.0806e-05
9.55357e-06
1.02955e-05
1.20804e-05
1.35259e-05
1.34188e-05
1.17861e-05
1.24229e-05
1.34142e-05
1.52894e-05
1.65717e-05
1.33128e-05
1.12183e-05
1.13913e-05
1.24648e-05
1.32248e-05
1.2097e-05
1.12706e-05
1.00439e-05
9.84621e-06
1.12309e-05
1.06402e-05
9.95825e-06
1.01672e-05
1.55098e-05
1.35484e-05
1.27602e-05
1.3645e-05
1.42524e-05
1.53197e-05
1.60281e-05
1.71269e-05
1.74991e-05
1.69011e-05
1.43857e-05
1.20553e-05
9.94635e-06
1.03815e-05
1.16043e-05
1.40671e-05
1.47878e-05
1.36157e-05
1.5017e-05
1.74053e-05
1.89656e-05
1.87826e-05
1.70113e-05
1.8031e-05
1.94669e-05
2.16738e-05
2.35325e-05
1.9316e-05
1.6716e-05
1.662e-05
1.77929e-05
1.86211e-05
1.70594e-05
1.61741e-05
1.4205e-05
1.37771e-05
1.56763e-05
1.51016e-05
1.47162e-05
1.52428e-05
2.17509e-05
1.86575e-05
1.77075e-05
1.89403e-05
1.94966e-05
2.03861e-05
2.14392e-05
2.28441e-05
2.35274e-05
2.24284e-05
1.86638e-05
1.56621e-05
1.30421e-05
1.34533e-05
1.5247e-05
1.82776e-05
1.90776e-05
1.86979e-05
2.10652e-05
2.41217e-05
2.59125e-05
2.60371e-05
2.41723e-05
2.56679e-05
2.73394e-05
2.99254e-05
3.26881e-05
2.74784e-05
2.44109e-05
2.36455e-05
2.47488e-05
2.55138e-05
2.36634e-05
2.26628e-05
1.94741e-05
1.86509e-05
2.10166e-05
2.07009e-05
2.08964e-05
2.20106e-05
2.89543e-05
2.42774e-05
2.2768e-05
2.44931e-05
2.45728e-05
2.52491e-05
2.68881e-05
2.87898e-05
3.00807e-05
2.7915e-05
2.28604e-05
1.92741e-05
1.62985e-05
1.6559e-05
1.93446e-05
2.28673e-05
2.36897e-05
2.46274e-05
2.82141e-05
3.20183e-05
3.46407e-05
3.54096e-05
3.34902e-05
3.56412e-05
3.73767e-05
4.06687e-05
4.47453e-05
3.85445e-05
3.45473e-05
3.28275e-05
3.40251e-05
3.45769e-05
3.24236e-05
3.04216e-05
2.53119e-05
2.39421e-05
2.7073e-05
2.75924e-05
2.85424e-05
3.0083e-05
3.58943e-05
2.96628e-05
2.71788e-05
2.9639e-05
2.85914e-05
2.94858e-05
3.1797e-05
3.46857e-05
3.66131e-05
3.32108e-05
2.7194e-05
2.29339e-05
1.95989e-05
1.96417e-05
2.33144e-05
2.75163e-05
2.86708e-05
3.0905e-05
3.57779e-05
4.04064e-05
4.45789e-05
4.64437e-05
4.51851e-05
4.82748e-05
4.95974e-05
5.36313e-05
5.92163e-05
5.25879e-05
4.66746e-05
4.34428e-05
4.46202e-05
4.54365e-05
4.28684e-05
3.86527e-05
3.12843e-05
2.94207e-05
3.38712e-05
3.52614e-05
3.64267e-05
3.81565e-05
4.24193e-05
3.4767e-05
3.09757e-05
3.46055e-05
3.19898e-05
3.39949e-05
3.71471e-05
4.14737e-05
4.36228e-05
3.86314e-05
3.12947e-05
2.65415e-05
2.32581e-05
2.27755e-05
2.67011e-05
3.1447e-05
3.36817e-05
3.69263e-05
4.28083e-05
4.77073e-05
5.39022e-05
5.7249e-05
5.72214e-05
6.17848e-05
6.31464e-05
6.84221e-05
7.50209e-05
6.72957e-05
5.88779e-05
5.45712e-05
5.59735e-05
5.76487e-05
5.46892e-05
4.80467e-05
3.82041e-05
3.59378e-05
4.21581e-05
4.3353e-05
4.45288e-05
4.57973e-05
4.84468e-05
4.00657e-05
3.45432e-05
3.99665e-05
3.55246e-05
3.88958e-05
4.28778e-05
4.86924e-05
5.07706e-05
4.38001e-05
3.51735e-05
3.02451e-05
2.68031e-05
2.61165e-05
2.97724e-05
3.52282e-05
3.8847e-05
4.29883e-05
4.97825e-05
5.39169e-05
6.18868e-05
6.5675e-05
6.6483e-05
7.35936e-05
7.5174e-05
8.21024e-05
8.80533e-05
7.93161e-05
6.90739e-05
6.42856e-05
6.58275e-05
6.80499e-05
6.56806e-05
5.84151e-05
4.64088e-05
4.32113e-05
5.07898e-05
5.10171e-05
5.20843e-05
5.28887e-05
5.26402e-05
4.41665e-05
3.7594e-05
4.45752e-05
3.91415e-05
4.2762e-05
4.71317e-05
5.34242e-05
5.56486e-05
4.73725e-05
3.815e-05
3.35849e-05
2.98503e-05
2.88412e-05
3.20827e-05
3.79746e-05
4.31419e-05
4.74416e-05
5.51429e-05
5.77525e-05
6.66496e-05
7.17016e-05
7.0668e-05
8.1284e-05
8.19368e-05
9.17815e-05
9.69562e-05
8.69434e-05
7.48781e-05
7.02729e-05
7.18511e-05
7.4542e-05
7.26138e-05
6.57777e-05
5.18853e-05
4.83645e-05
5.70587e-05
5.62951e-05
5.68448e-05
5.79298e-05
5.51772e-05
4.669e-05
3.89114e-05
4.61507e-05
4.09024e-05
4.46387e-05
4.91329e-05
5.5208e-05
5.72964e-05
4.89024e-05
4.01025e-05
3.5421e-05
3.2822e-05
3.10126e-05
3.37085e-05
3.95698e-05
4.51344e-05
4.89714e-05
5.76452e-05
5.91719e-05
6.85027e-05
7.36727e-05
7.06975e-05
8.31442e-05
8.33261e-05
9.63412e-05
0.0001014
9.04902e-05
7.77056e-05
7.37039e-05
7.50349e-05
7.80168e-05
7.61156e-05
7.04996e-05
5.45905e-05
5.12752e-05
5.98552e-05
5.81283e-05
5.87647e-05
6.09712e-05
5.65723e-05
4.73622e-05
3.93971e-05
4.60099e-05
4.1916e-05
4.60843e-05
5.00643e-05
5.55803e-05
5.76339e-05
4.92295e-05
4.09812e-05
3.57884e-05
3.24325e-05
3.20071e-05
3.45329e-05
4.03318e-05
4.54778e-05
4.8952e-05
5.85798e-05
6.00415e-05
6.96057e-05
7.38889e-05
6.91254e-05
8.04051e-05
8.25489e-05
9.65192e-05
0.000102565
9.18513e-05
7.90645e-05
7.65224e-05
7.76828e-05
8.07198e-05
7.80376e-05
7.40461e-05
5.6337e-05
5.45348e-05
6.1528e-05
5.8488e-05
5.88928e-05
6.22021e-05
5.72099e-05
4.76172e-05
3.91811e-05
4.60576e-05
4.15162e-05
4.59154e-05
5.0612e-05
5.56557e-05
5.79963e-05
4.98508e-05
4.22036e-05
3.66422e-05
3.31445e-05
3.24503e-05
3.54207e-05
4.11656e-05
4.54004e-05
4.95735e-05
5.91885e-05
6.08742e-05
7.08175e-05
7.42572e-05
6.89458e-05
7.90333e-05
8.26887e-05
9.6078e-05
0.000104167
9.25938e-05
7.93041e-05
7.84044e-05
7.93197e-05
8.21963e-05
7.87053e-05
7.54326e-05
5.68603e-05
5.6778e-05
6.35644e-05
5.83423e-05
5.8407e-05
6.2521e-05
5.72462e-05
4.79641e-05
3.91111e-05
4.65624e-05
4.13437e-05
4.58463e-05
5.03249e-05
5.54929e-05
5.74852e-05
4.97966e-05
4.22289e-05
3.68103e-05
3.3194e-05
3.26652e-05
3.54939e-05
4.10298e-05
4.49828e-05
4.9712e-05
5.85024e-05
6.07638e-05
7.0775e-05
7.47049e-05
6.89226e-05
7.85999e-05
8.27448e-05
9.54477e-05
0.000104244
9.28128e-05
7.87695e-05
7.87085e-05
7.96502e-05
8.22178e-05
7.83504e-05
7.55217e-05
5.66655e-05
5.84448e-05
6.53962e-05
5.81841e-05
5.82082e-05
6.22689e-05
5.64911e-05
4.7609e-05
3.8811e-05
4.63088e-05
4.10023e-05
4.51982e-05
4.97077e-05
5.46974e-05
5.68115e-05
4.93855e-05
4.18769e-05
3.66365e-05
3.27513e-05
3.22717e-05
3.49761e-05
4.02834e-05
4.41006e-05
4.90677e-05
5.75748e-05
5.99647e-05
6.96557e-05
7.41881e-05
6.83057e-05
7.76726e-05
8.20621e-05
9.4303e-05