/*--------------------------------*- C++ -*----------------------------------*\
  =========                 |
  \\      /  F ield         | OpenFOAM: The Open Source CFD Toolbox
   \\    /   O peration     | Website:  https://openfoam.org
    \\  /    A nd           | Version:  10
     \\/     M anipulation  |
\*---------------------------------------------------------------------------*/
FoamFile
{
    format      ascii;
    class       volVectorField;
    location    "6";
    object      U_0;
}
// * * * * * * * * * * * * * * * * * * * * * * * * * * * * * * * * * * * * * //

dimensions      [0 1 -1 0 0 0 0];

internalField   nonuniform List<vector> 
25600
(
(1.02669 -0.000556005 0.000106709)
(1.02625 -4.02403e-05 -2.06869e-05)
(1.02654 -0.000224838 4.77102e-05)
(1.02647 -0.000380905 -0.000121278)
(1.02591 -2.09431e-06 0.000231217)
(1.02658 4.56292e-05 4.53107e-05)
(1.0267 -0.000129079 -0.000361485)
(1.02567 -5.63342e-06 0.000374404)
(1.02639 0.000362018 3.19841e-05)
(1.02691 -8.75597e-05 -0.000311001)
(1.02575 -0.000112157 0.000238303)
(1.02627 0.000622091 -0.000124812)
(1.0267 -0.000193367 -5.61848e-05)
(1.02597 -0.000195399 4.11677e-05)
(1.02646 0.000750504 -0.00029935)
(1.02625 -0.00041456 0.000182028)
(1.02588 -0.000117826 -0.000125685)
(1.02667 0.000907858 -0.000362892)
(1.02629 -0.000703963 0.000317355)
(1.02594 -2.86966e-05 -0.000159245)
(1.02634 0.000921583 -0.000244417)
(1.02631 -0.00063036 0.00030786)
(1.02632 0.000117886 -0.000191028)
(1.02619 0.000766119 2.05519e-05)
(1.02639 -0.000306703 0.000251568)
(1.02663 0.000273196 -0.000249323)
(1.02607 0.000594848 0.000216906)
(1.02649 -8.04908e-05 0.000193082)
(1.02695 0.000239647 -0.000235372)
(1.02597 0.000268813 0.0001757)
(1.02633 3.85609e-05 5.41418e-05)
(1.02711 -7.67398e-05 -3.30614e-05)
(1.02595 -4.87432e-05 9.03985e-05)
(1.02621 4.05395e-05 -0.000166578)
(1.02721 -0.000385783 0.000136202)
(1.02603 -0.000121668 8.78623e-05)
(1.02616 -0.000228383 -0.000152124)
(1.02711 -0.000590065 0.000166842)
(1.02627 -1.44267e-05 -1.34613e-05)
(1.0263 -0.000275268 1.06545e-05)
(1.02674 -0.000373524 0.000267125)
(1.02639 -0.000222612 1.49267e-06)
(1.02643 -0.000119028 -0.000134772)
(1.02653 -0.000329824 0.000123063)
(1.02613 -8.73104e-05 0.000243467)
(1.02652 0.000160373 -0.000152705)
(1.02658 -0.000124222 -0.000125536)
(1.02594 -0.000207562 0.000357214)
(1.02644 0.000536727 -6.27812e-05)
(1.02658 -0.0001064 -0.000138448)
(1.02611 -0.000289999 0.000126809)
(1.02634 0.000794576 -0.000133276)
(1.02625 -0.000174412 0.000113577)
(1.02642 -0.000169653 -0.000118244)
(1.02634 0.000753325 -0.000316745)
(1.02581 -0.000547286 0.000317056)
(1.02657 5.82431e-05 -0.000301597)
(1.02635 0.000828304 -0.000320327)
(1.02583 -0.000832193 0.000425176)
(1.02672 0.000167013 -0.000343712)
(1.026 0.0006159 -0.000119082)
(1.02596 -0.000639888 0.000365748)
(1.02698 0.000298512 -0.000351826)
(1.02595 0.000348966 0.000209766)
(1.02622 -0.000200469 0.000197492)
(1.02699 0.000340536 -0.00037607)
(1.0259 0.000224926 0.000466396)
(1.02641 0.000161288 4.41693e-05)
(1.02705 0.000252796 -0.000374983)
(1.02591 2.01032e-05 0.000473844)
(1.02622 0.000226876 -0.000121088)
(1.02696 2.00485e-05 -0.000174702)
(1.02601 -0.000275454 0.000319089)
(1.02616 6.72294e-05 -0.000303971)
(1.02704 -0.000149041 0.000101402)
(1.02607 -0.000466887 0.000191324)
(1.0261 -0.000173278 -0.000300645)
(1.02708 -0.000268066 0.000256315)
(1.02635 -0.000408212 4.32043e-05)
(1.0262 -0.000171027 -0.000156835)
(1.02666 -0.000269648 0.000310561)
(1.02647 -0.000341727 -1.30525e-05)
(1.02644 -0.000102817 -0.000116096)
(1.0265 -0.000248012 0.000258965)
(1.02633 -0.000213964 0.000208753)
(1.02654 0.000235538 -0.000229489)
(1.02638 -8.8282e-05 0.000122972)
(1.02624 -0.000284705 0.000268985)
(1.02649 0.000584753 -0.000118504)
(1.0262 -0.000270586 7.29309e-05)
(1.02653 -0.00014447 -5.75156e-05)
(1.02638 0.00076283 -7.58931e-05)
(1.02586 -0.000200942 0.000249241)
(1.02678 4.43974e-05 -0.000348532)
(1.02614 0.000401406 -0.000191756)
(1.02563 -0.000448113 0.000313419)
(1.02708 0.000376876 -0.000541467)
(1.0259 0.000304596 -0.000105256)
(1.0257 -0.000633934 0.000338059)
(1.0272 0.000427284 -0.00050508)
(1.02564 -7.36489e-05 9.39769e-05)
(1.02601 -0.000225987 0.00023394)
(1.0272 0.00035991 -0.000368077)
(1.02575 -0.000298623 0.000361285)
(1.02637 0.000226489 3.25642e-05)
(1.02701 0.000206834 -0.000276029)
(1.0259 -8.73464e-05 0.000565505)
(1.02651 0.000549594 -0.00015202)
(1.02685 0.000119873 -0.000253461)
(1.02595 -0.00012707 0.000566876)
(1.02631 0.000380936 -0.000315045)
(1.02668 0.000103535 -0.000100577)
(1.02599 -0.000372306 0.000335791)
(1.0263 -1.04485e-05 -0.000370882)
(1.02675 3.22973e-05 0.000186893)
(1.02602 -0.000723737 9.50659e-05)
(1.02631 -0.000134428 -0.000279402)
(1.02691 -6.72224e-05 0.00035901)
(1.02635 -0.00068933 -1.56642e-05)
(1.02632 -7.18636e-05 -0.000103184)
(1.02653 -0.000263018 0.000237933)
(1.02652 -0.000352556 4.43657e-05)
(1.0265 -0.000155043 -1.24772e-05)
(1.02645 -0.000196752 0.000251618)
(1.02651 -0.000348048 0.000184416)
(1.02661 0.000346086 -0.000195243)
(1.02617 -0.000139219 0.000285267)
(1.02648 -0.000219888 0.000166892)
(1.02646 0.000392672 -8.50553e-05)
(1.02599 -0.000486236 0.000170789)
(1.02693 0.000253243 -0.000199311)
(1.0263 0.000470507 7.45658e-05)
(1.02568 -6.06824e-05 0.000236795)
(1.02691 0.000182337 -0.000503616)
(1.02595 -7.19134e-05 -2.76067e-05)
(1.02577 -4.84268e-05 0.00010282)
(1.02718 0.000480162 -0.000648766)
(1.02554 -0.000276811 9.40046e-05)
(1.02591 -0.000151633 8.92012e-05)
(1.02718 0.000369312 -0.000472008)
(1.02547 -0.000631849 0.000250708)
(1.02629 0.000403875 8.57137e-05)
(1.02694 2.48145e-05 -0.000198488)
(1.02583 -0.000618052 0.000343473)
(1.02661 0.000634259 -5.60198e-05)
(1.02676 -0.000145839 -7.799e-05)
(1.02616 2.32044e-05 0.000470062)
(1.02657 0.000737503 -0.000201653)
(1.02652 -8.11474e-05 -6.33239e-05)
(1.02611 3.92536e-05 0.000473329)
(1.0264 0.000359364 -0.000390724)
(1.02637 0.000204975 1.82697e-05)
(1.02592 -0.000339287 0.000190051)
(1.02648 -0.000174594 -0.0003182)
(1.02648 0.000134472 0.000275233)
(1.02594 -0.000874256 -0.000101269)
(1.02661 -1.84527e-05 -0.000115254)
(1.02665 -7.8202e-05 0.000395108)
(1.02635 -0.00078939 -6.78709e-05)
(1.02652 -1.22112e-05 6.45016e-05)
(1.02641 -0.000249283 0.000184419)
(1.02655 -0.000332236 0.000170849)
(1.02655 -0.000179783 4.45321e-05)
(1.02637 -0.000268384 0.000247235)
(1.02672 -0.000462582 0.000192102)
(1.02669 0.000527983 -0.000138506)
(1.02597 -0.000323001 0.000375399)
(1.02662 -4.71544e-06 9.66657e-05)
(1.0263 -0.000124683 -4.51283e-05)
(1.02608 -0.000579719 0.000130586)
(1.02722 0.000679457 -0.000229532)
(1.02615 7.6122e-05 0.00019457)
(1.02565 0.000267338 0.000107435)
(1.02678 -2.98517e-05 -0.000466968)
(1.02596 -0.000334395 2.80999e-06)
(1.02602 0.000402027 -0.00016832)
(1.02693 0.000298325 -0.00057419)
(1.02543 -0.000556138 0.000125046)
(1.02616 0.000262411 -0.000131789)
(1.02687 3.73114e-05 -0.000319605)
(1.02565 -0.000726078 0.000226224)
(1.02648 0.000850885 7.37233e-05)
(1.02648 -0.000517597 -3.42556e-05)
(1.02617 -0.000497988 0.000205957)
(1.02671 0.00063951 8.16704e-05)
(1.02657 -0.000359267 -2.1746e-05)
(1.02653 0.000488507 0.000368747)
(1.02644 0.000534486 -8.76326e-05)
(1.02634 -6.58152e-05 3.01749e-05)
(1.02626 0.000335024 0.000394164)
(1.02643 0.000118396 -0.000420198)
(1.02617 0.000478308 0.00010304)
(1.02573 -0.000294768 2.20245e-05)
(1.02664 -0.000340151 -0.000221738)
(1.02625 0.000177128 0.000301976)
(1.0259 -0.000945482 -0.000294987)
(1.02689 0.000184191 9.38701e-05)
(1.02636 -0.000257906 0.000384651)
(1.02639 -0.000721812 -3.17516e-05)
(1.0267 -1.44958e-05 0.00022838)
(1.02632 -0.000208552 0.000230107)
(1.02656 -0.000320037 0.000286246)
(1.02654 -9.82707e-05 7.18109e-05)
(1.02626 -0.000599067 0.000263303)
(1.02702 -0.000413291 0.000157434)
(1.0267 0.000683451 -8.34315e-05)
(1.02581 -0.000532994 0.000435764)
(1.02661 0.00022839 3.97709e-05)
(1.02608 -0.00100993 -5.68445e-05)
(1.0265 -0.000390916 1.90896e-05)
(1.02736 0.000853567 -0.000158649)
(1.02603 -0.000127358 0.000243855)
(1.0256 0.000605352 2.28022e-05)
(1.02652 -0.000567979 -0.000365384)
(1.02622 -0.000272255 -0.000149438)
(1.02618 0.000645422 -0.000333836)
(1.02656 0.000158747 -0.000480631)
(1.02551 -0.000589333 -9.06351e-06)
(1.0263 0.000396049 -0.000203405)
(1.02654 -0.000297889 -0.000148762)
(1.02599 -0.000426023 0.00016839)
(1.02644 0.000978948 0.000273184)
(1.02606 -0.000983166 1.89969e-05)
(1.02658 -0.000268472 0.000120032)
(1.02671 0.000287219 0.000325394)
(1.02664 -0.000192706 -0.000134739)
(1.02675 0.000931324 0.000417771)
(1.02621 0.000165609 1.31283e-05)
(1.02638 0.000215855 0.000100437)
(1.02624 0.000506481 0.000384567)
(1.02649 -0.000114386 -0.000534549)
(1.02609 0.000922401 0.00019507)
(1.02539 -0.000389061 -0.000103782)
(1.02679 -0.000425858 -0.000126379)
(1.02608 0.000131666 0.000290829)
(1.02594 -0.00091579 -0.000443421)
(1.02706 0.000453866 0.000278332)
(1.02605 -0.000558618 0.000401853)
(1.0265 -0.0005887 9.00586e-05)
(1.02683 -2.98792e-05 0.000363322)
(1.02623 -0.000168202 0.000339085)
(1.0266 -0.00023611 0.000358013)
(1.02638 -1.16521e-06 0.000162518)
(1.02617 -0.00117725 0.000277066)
(1.02746 -0.000132238 2.39181e-05)
(1.02662 0.000654634 -1.16493e-05)
(1.02569 -0.000579585 0.000478361)
(1.02634 0.000246173 -4.18917e-05)
(1.02592 -0.00214029 -0.000161396)
(1.02717 -7.05138e-05 -0.000143167)
(1.02737 0.000701081 -5.92932e-05)
(1.02599 6.7414e-05 0.000239036)
(1.02539 0.00068836 5.36269e-05)
(1.02625 -0.0011839 -0.000319078)
(1.02666 -0.000129569 -0.000384522)
(1.02627 0.000719605 -0.000365785)
(1.02619 0.000298627 -0.000438441)
(1.02557 -0.000623794 -0.000169122)
(1.02634 0.000344826 -0.000180627)
(1.02637 -0.000566336 2.28161e-05)
(1.02639 4.2468e-05 0.000217647)
(1.02616 0.000878636 0.000578554)
(1.02573 -0.00123508 -2.90547e-05)
(1.02692 -0.000195182 0.000223019)
(1.02675 -0.000107826 0.000565828)
(1.02693 0.000228923 -0.000355879)
(1.02675 0.00123918 0.000610038)
(1.02601 -4.22057e-05 4.16511e-05)
(1.02653 0.000548308 0.000264594)
(1.02607 0.000515695 0.000344523)
(1.02667 -0.00019301 -0.000720256)
(1.026 0.00145718 0.000346749)
(1.02493 -0.000625198 -0.000255696)
(1.02695 -0.000413389 -3.21262e-05)
(1.02595 -9.37674e-07 0.000262068)
(1.02608 -0.000710987 -0.000577596)
(1.0271 0.00068845 0.000429868)
(1.02573 -0.000896135 0.000503541)
(1.02669 -0.000385806 0.00025346)
(1.02692 -1.3375e-05 0.000504698)
(1.02618 -4.82685e-05 0.000454074)
(1.02663 -8.36658e-06 0.000384153)
(1.02602 -2.05091e-05 0.000330826)
(1.02616 -0.00191824 0.000207877)
(1.02798 0.000285137 -0.000195532)
(1.02645 0.000556713 9.96682e-05)
(1.02558 -0.000390866 0.000470408)
(1.02576 -0.000211073 -0.000178922)
(1.02588 -0.00336664 -0.000401841)
(1.028 0.000100042 -0.00036198)
(1.02742 0.000484122 3.26699e-05)
(1.026 0.000576751 0.000269552)
(1.02492 0.000427714 0.000207506)
(1.02606 -0.00173915 -0.000362692)
(1.02723 -0.000201925 -0.000603684)
(1.0264 0.00100602 -0.000388395)
(1.02582 0.000620176 -0.000437073)
(1.02552 -0.000847664 -0.000267236)
(1.02632 0.000205352 -0.000152318)
(1.02635 -0.000612913 0.000279734)
(1.02676 0.000685548 0.000404629)
(1.02574 0.000705969 0.000969129)
(1.02546 -0.00142387 -0.000108291)
(1.02717 -0.000425453 0.000504099)
(1.02691 -0.000269067 0.000769814)
(1.02735 0.000799805 -0.000630484)
(1.0266 0.00157212 0.000915553)
(1.02583 -0.000143517 6.28421e-05)
(1.02666 0.000808024 0.000534699)
(1.02583 0.000483436 0.000229837)
(1.02698 -0.000119971 -0.000921782)
(1.02585 0.0020251 0.000515555)
(1.02438 -0.000952531 -0.000445874)
(1.02711 -0.00033656 9.19025e-05)
(1.0259 -0.000199306 0.000208611)
(1.02629 -0.000253622 -0.000764778)
(1.02695 0.000783842 0.000546197)
(1.02545 -0.00120608 0.000696525)
(1.02695 -0.000201596 0.000440261)
(1.02693 -2.76086e-05 0.000725959)
(1.02621 0.000174693 0.000478573)
(1.02658 0.000295958 0.000440692)
(1.02541 -0.00011492 0.000627341)
(1.02626 -0.00280387 -1.11147e-05)
(1.02862 0.000640732 -0.000566591)
(1.02625 0.00048653 0.000216832)
(1.02529 -5.58554e-05 0.000446557)
(1.02485 -0.00110186 -0.000353713)
(1.02601 -0.00466111 -0.000834961)
(1.02899 -0.000147634 -0.000702501)
(1.02757 0.000402906 0.000120561)
(1.02593 0.00121048 0.00037065)
(1.02422 1.22315e-05 0.000434266)
(1.02591 -0.00232745 -0.0004709)
(1.02797 -0.000657553 -0.00079058)
(1.02664 0.00173761 -0.000439335)
(1.02526 0.00101999 -0.000322234)
(1.02534 -0.00122895 -0.000355847)
(1.02642 -1.20341e-05 -6.62027e-05)
(1.02656 -0.000398831 0.000820946)
(1.02701 0.00137293 0.000759015)
(1.0251 0.000632961 0.00150414)
(1.02515 -0.00155241 -0.00012079)
(1.02745 -0.000922744 0.0010069)
(1.02731 -0.000257486 0.000913881)
(1.02781 0.00142966 -0.000951959)
(1.02627 0.00214999 0.00130827)
(1.02561 -0.000303594 0.000149996)
(1.0268 0.000948631 0.000933188)
(1.02559 0.000331688 3.75243e-05)
(1.0274 9.30986e-05 -0.00112439)
(1.02559 0.00262762 0.000641295)
(1.02375 -0.00129107 -0.000676359)
(1.02729 -0.000257153 0.000265337)
(1.02597 -0.000335833 0.000103211)
(1.02653 0.000343241 -0.00108921)
(1.02661 0.00066087 0.000654702)
(1.02521 -0.00131667 0.000999796)
(1.02722 -4.8178e-05 0.000694261)
(1.02695 1.82997e-05 0.00100364)
(1.02626 0.00044654 0.000388023)
(1.02645 0.000748866 0.000533549)
(1.02456 -0.000308886 0.00100543)
(1.02638 -0.00400754 -0.000518162)
(1.02935 0.000994664 -0.00107716)
(1.02607 0.000629258 0.000295287)
(1.02481 0.000181707 0.000375032)
(1.02362 -0.00245939 -0.000609066)
(1.02618 -0.00619339 -0.00160055)
(1.03014 -0.00071893 -0.00125124)
(1.02793 0.000633255 0.000197232)
(1.02575 0.00180329 0.000603463)
(1.02328 -0.000455095 0.000758397)
(1.02569 -0.00336145 -0.000514437)
(1.02896 -0.00126711 -0.000958781)
(1.02709 0.00319006 -0.000527621)
(1.02446 0.00141678 1.8116e-05)
(1.02502 -0.00195007 -0.000533575)
(1.02663 -0.000197551 0.000127965)
(1.02691 0.000300923 0.00173728)
(1.02717 0.00215292 0.00136705)
(1.02438 0.000707249 0.00221023)
(1.02472 -0.00188981 -9.26692e-05)
(1.02769 -0.00148741 0.0017773)
(1.02789 -6.29956e-06 0.00108342)
(1.02837 0.00216797 -0.00121619)
(1.0258 0.00301383 0.00180975)
(1.02524 -0.000572267 0.000244337)
(1.02689 0.00113353 0.0014057)
(1.02541 1.34477e-05 -0.000205791)
(1.02796 0.000446653 -0.00132707)
(1.02522 0.00326152 0.000750007)
(1.02305 -0.00157575 -0.0009107)
(1.02749 -0.000318423 0.000431914)
(1.02613 -0.000227972 -0.000111025)
(1.0267 0.0011269 -0.00159561)
(1.02616 0.000298603 0.000766325)
(1.02505 -0.00134367 0.00137383)
(1.02744 -0.000142148 0.000981777)
(1.02695 0.000270685 0.00134846)
(1.02632 0.000537267 0.000113141)
(1.02618 0.00154416 0.000862421)
(1.02332 -0.000615252 0.00163433)
(1.02653 -0.00561381 -0.00141004)
(1.03028 0.00127953 -0.00194829)
(1.02578 0.0010144 0.000247472)
(1.02392 0.000524842 0.000397465)
(1.02206 -0.00401311 -0.000929475)
(1.02642 -0.0081703 -0.00280742)
(1.03151 -0.00179458 -0.00206187)
(1.02841 0.000989154 0.000226024)
(1.02533 0.00252233 0.000874215)
(1.02198 -0.000695593 0.00109702)
(1.02544 -0.00499278 -0.000507181)
(1.03047 -0.0020335 -0.00114751)
(1.02763 0.00538305 -0.000610103)
(1.02311 0.00209836 0.000548922)
(1.0246 -0.0029287 -0.000838212)
(1.02722 -0.000261641 0.000571884)
(1.02742 0.0013466 0.00307507)
(1.02709 0.00307272 0.00224709)
(1.02338 0.00126099 0.00312727)
(1.02416 -0.00248391 3.48958e-05)
(1.02808 -0.00222709 0.0027714)
(1.02865 0.000277986 0.00126325)
(1.02894 0.00337309 -0.00143851)
(1.02511 0.00428686 0.00248396)
(1.02473 -0.00108932 0.00056825)
(1.02693 0.00108851 0.00202533)
(1.02525 -0.000418757 -0.000486744)
(1.02867 0.00093134 -0.00155715)
(1.02475 0.00393219 0.000755455)
(1.0222 -0.00158231 -0.00114907)
(1.02773 -0.000451961 0.000648733)
(1.02647 0.000153706 -0.000611598)
(1.0267 0.0017735 -0.00243573)
(1.02553 -9.97262e-05 0.00092409)
(1.02485 -0.00115458 0.00189291)
(1.02765 -0.000321622 0.00129955)
(1.02703 0.000777795 0.00153698)
(1.02641 0.000511634 -0.00037141)
(1.0259 0.0028722 0.0013107)
(1.02159 -0.000932159 0.00225619)
(1.02654 -0.00752643 -0.002984)
(1.03133 0.00161826 -0.00325353)
(1.0255 0.00157543 -8.61778e-05)
(1.02273 0.000608305 0.000339374)
(1.02 -0.00575372 -0.00154901)
(1.0264 -0.0103585 -0.00488518)
(1.033 -0.00300857 -0.00337442)
(1.02912 0.00140141 0.000216641)
(1.02479 0.00324865 0.00126016)
(1.02019 -0.00111594 0.00148815)
(1.02493 -0.00738848 -0.00033146)
(1.03249 -0.00259664 -0.00136927)
(1.02841 0.00842114 -0.000705401)
(1.02127 0.00279076 0.00128112)
(1.02401 -0.00436966 -0.00151768)
(1.02804 -6.51975e-05 0.00113479)
(1.02801 0.00288677 0.00507848)
(1.02698 0.00429648 0.00351198)
(1.02219 0.00202117 0.00407311)
(1.02326 -0.00318358 9.67163e-05)
(1.02847 -0.00271941 0.00402334)
(1.02972 0.000545194 0.00163255)
(1.02967 0.00487013 -0.00154091)
(1.02408 0.00605443 0.00316221)
(1.02383 -0.00144553 0.000684985)
(1.02692 0.000913804 0.00264081)
(1.02523 -0.00105322 -0.00069971)
(1.02951 0.00140031 -0.00168836)
(1.02428 0.0047668 0.000899682)
(1.02121 -0.0016211 -0.00162973)
(1.02791 -0.000769452 0.000672415)
(1.0268 0.00122092 -0.0014087)
(1.02654 0.00247668 -0.00354701)
(1.02495 -0.000696171 0.00106199)
(1.02463 -0.00134083 0.00229237)
(1.02772 -0.000621565 0.00147402)
(1.02697 0.001578 0.00158947)
(1.02651 0.000351438 -0.000747612)
(1.02553 0.0048744 0.00262543)
(1.0193 -0.00160318 0.00278031)
(1.02641 -0.0098482 -0.00634442)
(1.03242 0.0021463 -0.00606459)
(1.02494 0.00288502 -0.000878502)
(1.02113 0.000816565 0.000529588)
(1.01758 -0.00794151 -0.00283111)
(1.02616 -0.0133403 -0.00859881)
(1.03441 -0.00495677 -0.00587963)
(1.02971 0.00203359 -0.000546619)
(1.02382 0.00499674 0.00110889)
(1.01775 -0.00114813 0.00142184)
(1.02436 -0.0110888 -0.000374296)
(1.03512 -0.00310849 -0.00180796)
(1.02906 0.0130816 -0.00096506)
(1.01864 0.00407968 0.00190888)
(1.02339 -0.00616137 -0.00261954)
(1.0293 0.000541303 0.00187541)
(1.02864 0.00515133 0.00753798)
(1.02658 0.00643937 0.0050488)
(1.02068 0.00340012 0.0049744)
(1.02219 -0.00421797 -0.000379333)
(1.02885 -0.00338193 0.0050617)
(1.03078 0.00099243 0.00190449)
(1.03049 0.00725443 -0.00156332)
(1.02287 0.00816993 0.00429172)
(1.02258 -0.0022435 0.000742842)
(1.02664 0.000390583 0.00306779)
(1.02513 -0.00161388 -0.000944861)
(1.03046 0.00190917 -0.00180759)
(1.02366 0.00600365 0.00112857)
(1.01996 -0.00115002 -0.00245902)
(1.02827 -0.00101996 0.000259415)
(1.02728 0.00249503 -0.00308009)
(1.02599 0.00292229 -0.00512447)
(1.02409 -0.000937316 0.00139692)
(1.02433 -0.00131 0.00253625)
(1.02784 -0.000609667 0.000681437)
(1.02681 0.00241979 0.000747761)
(1.02648 0.00064589 -0.00127859)
(1.02488 0.00788631 0.00452059)
(1.01714 -0.00177592 0.00233925)
(1.02725 -0.0125517 -0.0127508)
(1.0341 0.00215751 -0.010908)
(1.02458 0.00455294 -0.00244413)
(1.01936 0.00154307 0.000159526)
(1.0147 -0.00922785 -0.00632318)
(1.02555 -0.0157727 -0.0161631)
(1.03593 -0.00692191 -0.0108164)
(1.03079 0.00251186 -0.00188633)
(1.02273 0.00706239 0.000353503)
(1.01424 -0.00114431 0.000187081)
(1.02339 -0.0157063 -0.00156443)
(1.03844 -0.00340979 -0.00305728)
(1.02969 0.0188366 -0.00158921)
(1.01526 0.00609842 0.00198832)
(1.02264 -0.00848898 -0.00555875)
(1.03075 0.00124709 0.00219602)
(1.02936 0.00895577 0.0111841)
(1.0262 0.0104197 0.00685778)
(1.01886 0.0058962 0.00504245)
(1.02045 -0.00471843 -0.00222957)
(1.02893 -0.00349885 0.00567021)
(1.03201 0.00194296 0.00237787)
(1.03119 0.0111831 -0.00145678)
(1.02097 0.0119252 0.00513038)
(1.02098 -0.00243867 -0.000942735)
(1.02627 -0.000208856 0.00250461)
(1.02468 -0.00212167 -0.00114909)
(1.03073 0.00272754 -0.00121754)
(1.02255 0.00767915 0.00153552)
(1.01874 -0.000772965 -0.00530058)
(1.02894 -0.00076435 -0.00170148)
(1.02795 0.00532095 -0.00529168)
(1.02538 0.00384568 -0.00677449)
(1.0235 -0.00176608 0.00162549)
(1.02451 -0.00154595 0.0015008)
(1.02836 0.00035972 -0.00212483)
(1.02652 0.00381184 -0.00134064)
(1.02509 0.00140448 -0.000812601)
(1.02341 0.0119123 0.00766941)
(1.01778 -0.00205258 0.00185039)
(1.03235 -0.0156119 -0.0216162)
(1.03799 0.0033118 -0.0177742)
(1.02599 0.00832319 -0.00334204)
(1.01973 0.0021152 0.000728179)
(1.01317 -0.0121823 -0.0102981)
(1.02555 -0.0201184 -0.0258567)
(1.03788 -0.0101206 -0.0178284)
(1.03264 0.00440733 -0.00451353)
(1.02225 0.0125384 -0.00174373)
(1.01089 -0.000496882 -0.00326692)
(1.02316 -0.0227364 -0.00601144)
(1.04227 -0.00268536 -0.00676973)
(1.03041 0.0276701 -0.00302639)
(1.01222 0.00995548 0.0017776)
(1.02207 -0.0104464 -0.0101598)
(1.03266 0.00239216 0.00075869)
(1.03114 0.0143803 0.0146091)
(1.02686 0.0167426 0.00916261)
(1.01794 0.0103687 0.00430329)
(1.01842 -0.00483209 -0.00691072)
(1.02783 -0.00356567 0.00423245)
(1.03243 0.00312757 0.00196206)
(1.03129 0.0157296 -0.00112108)
(1.01872 0.0163014 0.00664323)
(1.02002 -0.0027686 -0.00427253)
(1.02572 -0.000688596 9.58319e-05)
(1.02275 -0.00196599 -0.00184862)
(1.02778 0.00427528 -0.00036829)
(1.01862 0.0102839 0.00192013)
(1.01886 -0.000169316 -0.0101624)
(1.03307 -0.00060251 -0.00563418)
(1.03013 0.00857515 -0.00869658)
(1.02335 0.00541196 -0.00867748)
(1.02271 -0.00184854 0.00208423)
(1.02805 -0.00148516 -0.000652441)
(1.03284 0.00235191 -0.00790111)
(1.02718 0.00529614 -0.0052233)
(1.0213 0.00483523 -0.00440509)
(1.0218 0.0170723 0.00665794)
(1.02442 -0.00352295 0.00802412)
(1.04541 -0.0198369 -0.0175298)
(1.04716 0.0049989 -0.0176694)
(1.03132 0.0142918 -0.00401912)
(1.02355 0.00579961 0.000939953)
(1.01512 -0.0125019 -0.00947134)
(1.02847 -0.02296 -0.0269568)
(1.0422 -0.0138534 -0.0164041)
(1.03726 0.00423615 -0.00262059)
(1.02356 0.0180955 -0.00424021)
(1.00819 0.000614905 -0.0078204)
(1.02577 -0.0317521 -0.0117547)
(1.04978 -0.00276048 -0.0123965)
(1.03172 0.037805 -0.00520524)
(1.00845 0.0151328 -0.00201422)
(1.01979 -0.0139301 -0.0218718)
(1.03392 0.00153385 -0.00516882)
(1.03336 0.0220642 0.0184752)
(1.02831 0.0269662 0.0121336)
(1.01737 0.0174251 0.000805721)
(1.01431 -0.00377386 -0.0172456)
(1.02359 -0.00206454 -0.000863649)
(1.03074 0.00837643 0.00172693)
(1.03015 0.0257275 -0.000330626)
(1.01641 0.0238128 0.00614639)
(1.02174 -0.0023192 -0.0101915)
(1.02689 0.000453519 -0.00397116)
(1.0189 0.00171674 -0.00109114)
(1.01842 0.00928572 0.00143734)
(1.00964 0.0131632 -0.000899245)
(1.02243 -0.000371947 -0.0176174)
(1.04437 0.00149558 -0.00846145)
(1.03623 0.0155463 -0.00889643)
(1.02029 0.00885207 -0.0105453)
(1.02406 -0.00291232 0.000128498)
(1.04093 -0.000937034 -0.00286683)
(1.04741 0.00681309 -0.0107447)
(1.031 0.00957333 -0.00856338)
(1.01964 0.0108175 -0.0151121)
(1.02206 0.0217546 -0.000589234)
(1.03189 -0.00817768 0.0226787)
(1.05896 -0.0255132 0.00600745)
(1.05458 0.009476 -0.00552551)
(1.03439 0.0221775 -0.0025627)
(1.02683 0.0076179 -0.0019242)
(1.02483 -0.015021 -0.00490909)
(1.04136 -0.023727 -0.0138504)
(1.04741 -0.0165641 0.000782815)
(1.03369 0.00312016 0.00724265)
(1.02188 0.0253652 -0.00643354)
(1.00919 0.00239805 -0.00852664)
(1.0225 -0.0431603 -0.00720931)
(1.05397 -0.00272525 -0.0104631)
(1.03991 0.0469017 -0.00695144)
(1.00772 0.017954 -0.00943541)
(1.01044 -0.0184774 -0.0347976)
(1.02913 -0.00143675 -0.0128995)
(1.03581 0.0262785 0.0182997)
(1.03455 0.0334765 0.00955738)
(1.01925 0.0227425 -0.011019)
(1.00972 -0.00356224 -0.033811)
(1.01686 -0.0023211 -0.011346)
(1.02724 0.0101369 -0.00224682)
(1.02774 0.0334066 -0.00416055)
(1.01283 0.0314226 -0.000169082)
(1.02668 -0.00216711 -0.01518)
(1.03309 0.00328064 -0.00957355)
(1.01295 0.00728343 -0.00366741)
(0.996199 0.014235 -0.00163161)
(0.989731 0.0130973 -0.00487274)
(1.02687 -0.00545792 -0.0154595)
(1.06081 0.00143791 -0.000566062)
(1.04457 0.0236581 -0.00448302)
(1.01288 0.0134765 -0.0135153)
(1.02384 -0.00605556 -0.00160301)
(1.06098 -0.00353265 0.00287288)
(1.07253 0.01191 -0.0012624)
(1.04132 0.0177385 -0.0083462)
(1.02709 0.0203607 -0.0262523)
(1.03221 0.0260459 -0.00490513)
(1.03617 -0.00914577 0.0305722)
(1.05959 -0.0251468 0.0232719)
(1.05637 0.0164017 0.0145647)
(1.03762 0.0300614 0.00772661)
(1.03747 0.0132214 -0.00732288)
(1.05576 -0.00937229 -0.0101151)
(1.07124 -0.0144316 -0.00931764)
(1.054 -0.0112555 0.0168022)
(1.03059 -0.000208407 0.0223388)
(1.03258 0.0258225 0.00129734)
(1.02055 0.00354521 0.00158117)
(0.997873 -0.0539605 0.00928659)
(1.03616 -0.00561445 0.00324074)
(1.04029 0.0560269 -0.000835014)
(1.00241 0.0228818 -0.0122089)
(0.994311 -0.0270739 -0.0307498)
(1.01723 -0.00637341 -0.0092771)
(1.02862 0.0348804 0.0164432)
(1.03366 0.0432992 0.00654571)
(1.02305 0.0276396 -0.0202177)
(1.00486 -0.00429696 -0.0432174)
(1.00352 -0.00219209 -0.018279)
(1.01496 0.0143226 -0.00544669)
(1.01609 0.0430239 -0.00422552)
(1.00813 0.0362614 -0.00320873)
(1.02511 -0.00428246 -0.013441)
(1.03829 0.0126379 -0.0095278)
(1.00816 0.0223564 -0.010344)
(0.976684 0.0240254 -0.0138573)
(0.973616 0.00741561 -0.00845491)
(1.01812 -0.0161098 -0.000131762)
(1.05648 0.00294091 0.0244047)
(1.03992 0.0352266 0.00730082)
(0.993677 0.018512 -0.0167508)
(0.990392 -0.0129523 0.00214581)
(1.04997 -0.0114293 0.0200368)
(1.08438 0.0156315 0.0237412)
(1.0519 0.0303451 0.00099216)
(1.02209 0.0257001 -0.0297776)
(1.04133 0.0321593 -0.0036265)
(1.0673 -0.00525465 0.0151948)
(1.09603 -0.0252058 0.014356)
(1.07493 0.0192258 0.0183213)
(1.02617 0.0295965 0.00995847)
(1.04472 0.0108202 -0.0140922)
(1.09967 -0.0071905 -0.00892776)
(1.11236 -0.000125686 -0.0162235)
(1.05256 0.000840691 0.000299997)
(1.02312 -0.00261999 0.0229704)
(1.06517 0.0263307 0.00477763)
(1.05997 0.0110147 -0.00782092)
(0.964334 -0.0532035 0.0166369)
(0.97856 -0.0118374 0.0246303)
(1.03006 0.0611866 0.00297532)
(1.02317 0.0323548 -0.0338319)
(0.976551 -0.0345873 -0.0236391)
(0.982412 -0.012643 0.0248185)
(0.990325 0.0383422 0.0394831)
(1.02351 0.0487573 0.0167248)
(1.06147 0.0318748 -0.0131776)
(1.03313 -0.00203349 -0.0334691)
(0.994064 -0.00180647 -0.0124535)
(0.989648 0.0107383 -0.00562162)
(1.01581 0.0426272 -0.00725004)
(1.02655 0.0374048 -0.0121424)
(1.02651 -0.00886684 -0.00799958)
(1.05476 0.0139976 0.00066289)
(1.03423 0.0269162 -0.0268011)
(1.02498 0.023124 -0.0316832)
(0.99711 -0.00383972 -0.00417655)
(0.984254 -0.0228902 0.0167758)
(1.01173 0.00704332 0.0483058)
(1.04666 0.0448708 0.0177081)
(1.00529 0.02635 -0.0150738)
(0.901603 -0.0236758 0.011015)
(0.928413 -0.0314429 0.0301383)
(1.03671 0.0115379 0.0420365)
(1.04562 0.0384011 0.00895293)
(0.983055 0.0256282 -0.0175747)
(1.02316 0.0313785 -0.00240823)
(1.09403 -0.000101846 -0.00525078)
(1.113 -0.0209901 -0.000382138)
(1.09777 0.0241441 0.00811586)
(1.00293 0.0288319 0.0123214)
(1.02942 0.00700436 -0.00390143)
(1.09161 -0.00701809 0.0102385)
(1.12225 0.0128891 -0.0125914)
(1.07557 0.0150984 -0.0228993)
(1.00993 -0.00326201 0.0159881)
(1.06611 0.0235214 0.00310467)
(1.14801 0.0202092 -0.030812)
(1.0063 -0.0445734 0.00744071)
(0.900239 -0.0184325 0.0492109)
(1.00884 0.0655032 0.0137558)
(1.07855 0.0398782 -0.050741)
(0.960709 -0.0411594 -0.0113249)
(0.917859 -0.0145026 0.071359)
(0.923759 0.0465609 0.0605045)
(0.981028 0.0524815 0.0178592)
(1.07414 0.0276296 -0.0144924)
(1.07045 3.77204e-05 -0.0327129)
(1.01122 0.00252762 -0.00603951)
(0.936758 0.00525865 -0.00280209)
(0.96629 0.0384261 -0.0170906)
(1.08208 0.0356208 -0.0136819)
(1.01914 -0.0134137 0.0117228)
(0.981724 0.0183578 0.00963397)
(1.02893 0.0328326 -0.0404943)
(1.09644 0.0254839 -0.0266793)
(1.01084 -0.00537445 0.00986576)
(0.930609 -0.0253837 0.0130016)
(0.95902 0.0041011 0.0357997)
(1.04889 0.0467617 0.0154412)
(1.04723 0.0426632 -0.00921429)
(0.894664 -0.0223862 -0.00100445)
(0.848597 -0.0625076 0.000920972)
(0.933099 -0.0142048 0.0331082)
(0.989872 0.0396985 0.0117868)
(0.960794 0.0153428 -0.0135616)
(0.989106 0.0183141 0.0036082)
(1.08559 -0.00633886 0.0174447)
(1.02436 -0.0214024 -0.00366612)
(1.05796 0.0334489 0.0186546)
(0.980823 0.0339353 0.0162633)
(1.00814 -0.000814864 -0.0199074)
(1.01396 -0.0184828 0.00307917)
(1.08559 0.0104988 -0.00701438)
(1.11515 0.0238677 -0.0101174)
(1.00603 0.00171095 0.014429)
(1.02871 0.0174869 -0.00911266)
(1.1688 0.0266641 -0.0167285)
(1.00411 -0.0250845 0.0161933)
(0.79667 -0.0196713 0.046963)
(0.995598 0.0617356 0.0266433)
(1.11209 0.0423485 -0.0391384)
(0.93314 -0.0445255 -0.00402648)
(0.849515 -0.015299 0.0875932)
(0.876598 0.0544617 0.0599873)
(0.921049 0.0460445 0.00761906)
(1.02374 0.0139025 -0.0154331)
(1.05231 -0.00307439 -0.0205753)
(0.966639 0.00792812 0.0175187)
(0.876091 0.00862066 0.0115836)
(0.934009 0.0247511 0.0231248)
(1.12928 0.0226802 0.0498022)
(0.914366 -0.012475 0.00442053)
(0.864352 0.0123953 -0.0203442)
(1.03766 0.0129371 -0.0243774)
(1.07814 0.0130919 0.0177419)
(0.932276 -0.00763877 0.0295825)
(0.870881 -0.0354155 0.000500885)
(0.922318 -0.00707315 0.0310129)
(0.986489 0.0402566 0.0206472)
(1.06163 0.0478647 -0.00158161)
(0.989787 -0.00827825 0.00344535)
(0.868802 -0.0587382 -0.0132393)
(0.780193 -0.022451 0.00148209)
(0.917739 0.0345531 0.00352701)
(0.946866 0.00811841 -0.0192997)
(0.979364 0.00196731 0.0189978)
(1.06314 -0.0167472 0.0310565)
(0.916073 -0.0187075 -0.0243554)
(0.984427 0.0429892 0.0339347)
(0.963162 0.0398933 0.00223571)
(0.991279 -0.000962399 -0.0407165)
(0.92994 -0.0148539 0.00713094)
(1.02785 0.00585655 0.00870395)
(1.06733 0.0199451 0.0187607)
(0.973924 0.00438712 0.0126919)
(1.04321 0.0152246 -0.0337526)
(1.15905 0.029927 0.0228126)
(0.987338 -0.00975563 0.0295201)
(0.738569 -0.0133742 -0.00139734)
(0.925774 0.0561621 0.0178347)
(1.15522 0.0348275 -0.0319738)
(0.940677 -0.0315318 0.00182621)
(0.727302 0.00272466 0.120594)
(0.818513 0.0487233 0.0735369)
(0.901421 0.0211371 0.00832139)
(0.997864 -0.00644892 0.00605702)
(0.960026 -0.00633885 0.0286007)
(0.858962 0.013733 0.0717165)
(0.835558 0.00473792 0.0308876)
(0.866086 -0.00611365 0.057536)
(1.07485 0.000445972 0.0544122)
(0.862839 -0.00744541 -0.0465799)
(0.897206 0.00371039 -0.0170636)
(1.05597 -0.00185267 0.0145036)
(0.979057 0.0118333 0.0531134)
(0.848288 -0.0107138 0.022529)
(0.818245 -0.0455554 -0.0137168)
(0.837538 -0.006355 0.0444525)
(0.893488 0.0378805 0.027005)
(1.02471 0.0361439 0.0239354)
(0.990491 -0.00623958 0.0467454)
(0.853945 -0.0408071 -0.012193)
(0.685884 -0.0107648 -0.0367636)
(0.881478 0.0311236 -0.00751619)