/*--------------------------------*- C++ -*----------------------------------*\
  =========                 |
  \\      /  F ield         | OpenFOAM: The Open Source CFD Toolbox
   \\    /   O peration     | Website:  https://openfoam.org
    \\  /    A nd           | Version:  10
     \\/     M anipulation  |
\*---------------------------------------------------------------------------*/
FoamFile
{
    format      ascii;
    class       volVectorField;
    location    "45";
    object      U;
}
// * * * * * * * * * * * * * * * * * * * * * * * * * * * * * * * * * * * * * //

dimensions      [0 1 -1 0 0 0 0];

internalField   nonuniform List<vector> 
25600
(
(1.05645 -2.44119e-05 -8.453e-06)
(1.05652 -3.724e-06 -3.99478e-06)
(1.05644 3.57503e-05 1.41095e-05)
(1.05652 -5.96083e-05 -1.87322e-05)
(1.05647 5.64461e-05 8.77482e-06)
(1.05648 -4.42227e-05 5.14936e-06)
(1.0565 2.89506e-05 -1.98052e-05)
(1.05647 -1.03054e-05 2.31737e-05)
(1.05648 5.0066e-06 -2.08957e-05)
(1.05648 1.5365e-06 1.06399e-05)
(1.0565 -2.02011e-05 -3.63751e-06)
(1.05645 2.55079e-05 -3.04246e-06)
(1.05653 -3.37451e-05 2.90879e-06)
(1.05645 4.1326e-05 -2.53517e-06)
(1.0565 -4.03726e-05 -1.32135e-06)
(1.05648 1.83121e-05 -1.28419e-07)
(1.05649 1.66407e-06 2.80964e-06)
(1.05649 -4.54679e-05 -1.02733e-05)
(1.05648 6.64661e-05 1.2535e-05)
(1.05652 -6.39062e-05 -1.19089e-05)
(1.05644 3.24619e-05 2.70101e-06)
(1.05653 5.7146e-06 4.48996e-06)
(1.05647 -4.21182e-05 -1.08056e-05)
(1.05648 6.09938e-05 6.0857e-06)
(1.05651 -6.396e-05 2.8115e-06)
(1.05648 5.10056e-05 -1.71088e-05)
(1.05648 -4.42418e-05 2.32225e-05)
(1.05653 3.03558e-05 -2.21186e-05)
(1.05643 1.11888e-05 8.21988e-06)
(1.05652 -4.12639e-05 5.35632e-06)
(1.05647 6.67924e-05 -1.62755e-05)
(1.05645 -9.12744e-05 1.64141e-05)
(1.05656 6.97655e-05 -1.32223e-05)
(1.05641 -4.8404e-05 4.73316e-06)
(1.05656 5.81684e-06 2.28953e-06)
(1.05645 2.50442e-05 -1.0103e-05)
(1.0565 -4.96751e-05 8.65517e-06)
(1.0565 7.60367e-05 -2.13515e-06)
(1.05646 -7.47626e-05 -8.57124e-06)
(1.05652 5.99234e-05 1.15778e-05)
(1.05643 -3.05394e-05 -2.06327e-05)
(1.05655 2.10677e-05 8.87831e-06)
(1.05643 -5.86018e-06 3.07363e-06)
(1.05652 -8.43936e-06 -1.3e-05)
(1.05647 1.4437e-05 1.21236e-05)
(1.05647 -1.55398e-05 -6.91189e-06)
(1.05651 1.32476e-05 -2.33638e-06)
(1.05647 -4.31441e-06 5.57283e-06)
(1.05649 -5.60069e-06 -6.37588e-06)
(1.05648 1.79738e-05 1.25204e-06)
(1.0565 -3.06952e-05 2.17469e-06)
(1.05645 2.94545e-05 -6.18031e-06)
(1.05653 -2.2636e-05 3.91551e-06)
(1.05645 1.21522e-05 2.24472e-07)
(1.05649 -4.73163e-06 -9.07167e-06)
(1.0565 -9.87955e-06 1.23468e-05)
(1.05646 2.53318e-05 -9.63844e-06)
(1.05651 -5.65314e-05 -3.84484e-06)
(1.05646 7.2971e-05 1.68196e-05)
(1.0565 -7.04245e-05 -2.55366e-05)
(1.05648 3.73615e-05 2.10884e-05)
(1.05648 3.37853e-06 -1.13827e-05)
(1.05649 -4.03256e-05 -7.39164e-07)
(1.05648 5.13717e-05 4.18836e-06)
(1.0565 -4.75706e-05 -2.04838e-06)
(1.05648 3.49806e-05 -7.24268e-06)
(1.05647 -3.81808e-05 1.18782e-05)
(1.05653 4.56927e-05 -1.23787e-05)
(1.05641 -4.63409e-05 3.40847e-06)
(1.05656 3.56022e-05 5.73945e-06)
(1.05645 -1.1947e-05 -1.37468e-05)
(1.05647 -2.66449e-05 1.405e-05)
(1.05656 4.87356e-05 -1.1759e-05)
(1.05639 -6.67644e-05 4.89995e-06)
(1.05658 6.12233e-05 1.58559e-06)
(1.05642 -4.73388e-05 -7.79199e-06)
(1.05652 2.35541e-05 4.93968e-06)
(1.05648 5.39125e-06 3.9519e-06)
(1.05647 -2.50143e-05 -1.68129e-05)
(1.05652 3.52753e-05 2.21515e-05)
(1.05644 -2.75666e-05 -2.48233e-05)
(1.05655 4.1115e-05 1.8112e-05)
(1.05642 -4.17879e-05 -8.46448e-06)
(1.05653 3.31051e-05 -4.11585e-06)
(1.05646 -1.87591e-05 1.18439e-05)
(1.05647 6.07861e-07 -1.6967e-05)
(1.05651 1.51638e-05 1.55526e-05)
(1.05646 -1.73519e-05 -1.39493e-05)
(1.0565 4.95298e-06 9.83134e-06)
(1.05647 1.72141e-05 -8.99676e-06)
(1.05651 -3.7494e-05 6.43472e-06)
(1.05645 3.52426e-05 -5.62036e-06)
(1.05651 -1.81883e-05 6.12071e-07)
(1.05646 -5.94553e-06 5.70556e-06)
(1.05648 1.88887e-05 -1.6544e-05)
(1.0565 -2.79913e-05 2.16379e-05)
(1.05645 2.98883e-05 -1.83986e-05)
(1.05652 -4.53776e-05 1.4192e-06)
(1.05646 5.18738e-05 1.82751e-05)
(1.05649 -5.00284e-05 -3.3789e-05)
(1.05651 2.58926e-05 3.42194e-05)
(1.05645 2.17013e-06 -2.45875e-05)
(1.05651 -2.61519e-05 8.22636e-06)
(1.05647 2.64762e-05 2.2103e-06)
(1.05649 -1.66445e-05 -7.35061e-06)
(1.05648 3.83553e-06 4.6458e-06)
(1.05648 -1.42068e-05 -3.25039e-06)
(1.05652 4.13451e-05 1.8799e-06)
(1.05642 -7.48199e-05 -5.31619e-06)
(1.05657 9.43116e-05 8.42679e-06)
(1.05642 -8.80808e-05 -1.16575e-05)
(1.0565 4.52034e-05 1.16721e-05)
(1.05652 4.91162e-06 -9.98749e-06)
(1.05641 -6.07081e-05 4.80937e-06)
(1.05657 9.1651e-05 1.17333e-06)
(1.05641 -0.000100658 -6.99034e-06)
(1.05654 8.53942e-05 5.05684e-06)
(1.05646 -5.44716e-05 2.95315e-06)
(1.05649 2.28066e-05 -1.52648e-05)
(1.05651 7.91698e-06 2.244e-05)
(1.05646 -1.98689e-05 -2.11882e-05)
(1.05654 4.78705e-05 2.09319e-05)
(1.05642 -6.17844e-05 -1.67596e-05)
(1.05654 6.02871e-05 5.27195e-06)
(1.05645 -4.2181e-05 7.42464e-06)
(1.05649 1.29521e-05 -2.11256e-05)
(1.0565 1.68428e-05 2.72856e-05)
(1.05646 -3.00673e-05 -2.91766e-05)
(1.05651 1.93726e-05 2.32667e-05)
(1.05645 8.43467e-06 -1.7441e-05)
(1.05651 -3.37495e-05 8.97673e-06)
(1.05646 3.49184e-05 -3.49032e-06)
(1.0565 -1.48998e-05 -4.13985e-06)
(1.05648 -1.53702e-05 1.14535e-05)
(1.05648 3.23114e-05 -2.20564e-05)
(1.0565 -3.79985e-05 2.70062e-05)
(1.05645 3.09289e-05 -2.3179e-05)
(1.05652 -3.12566e-05 4.9719e-06)
(1.05646 2.64554e-05 1.79472e-05)
(1.05648 -2.26343e-05 -3.72544e-05)
(1.05652 6.89788e-06 4.14308e-05)
(1.05644 6.15335e-06 -3.29637e-05)
(1.05651 -1.64253e-05 1.46792e-05)
(1.05648 7.12178e-06 4.71468e-07)
(1.05648 7.33825e-06 -1.14662e-05)
(1.05648 -2.35903e-05 1.45738e-05)
(1.0565 1.448e-05 -1.63496e-05)
(1.05648 1.63262e-05 1.49726e-05)
(1.05645 -6.76073e-05 -1.38936e-05)
(1.05655 0.000109682 1.16526e-05)
(1.05641 -0.000125813 -1.05476e-05)
(1.05654 9.46449e-05 9.80597e-06)
(1.05647 -3.68982e-05 -8.88668e-06)
(1.05645 -3.51555e-05 5.77549e-06)
(1.05655 8.92424e-05 -1.31637e-07)
(1.05641 -0.000116226 -6.12959e-06)
(1.05655 0.000112067 6.85108e-06)
(1.05643 -8.67209e-05 -2.09803e-06)
(1.05651 5.20877e-05 -7.45112e-06)
(1.05648 -1.32852e-05 1.51549e-05)
(1.05648 -4.081e-06 -1.28231e-05)
(1.05652 3.97919e-05 1.8725e-05)
(1.05643 -6.28584e-05 -2.09526e-05)
(1.05655 6.9427e-05 1.30225e-05)
(1.05643 -5.44363e-05 9.88493e-07)
(1.05652 2.32842e-05 -1.998e-05)
(1.05648 1.29264e-05 3.17862e-05)
(1.05646 -3.23864e-05 -3.7029e-05)
(1.05653 2.56739e-05 3.11477e-05)
(1.05643 1.85831e-06 -2.24854e-05)
(1.05652 -2.8761e-05 1.04353e-05)
(1.05647 3.36956e-05 -1.18693e-06)
(1.05648 -1.61309e-05 -8.36344e-06)
(1.0565 -1.44279e-05 1.60198e-05)
(1.05647 3.27222e-05 -2.54755e-05)
(1.0565 -3.86046e-05 2.95142e-05)
(1.05645 2.76796e-05 -2.53684e-05)
(1.05652 -1.99226e-05 7.54706e-06)
(1.05646 7.41771e-06 1.6015e-05)
(1.05647 -2.34462e-06 -3.68671e-05)
(1.05653 -7.62119e-06 4.38299e-05)
(1.05644 9.95935e-06 -3.68851e-05)
(1.05651 -1.11891e-05 1.86224e-05)
(1.05649 -2.57857e-06 -7.14408e-07)
(1.05647 1.84672e-05 -1.43117e-05)
(1.05648 -3.80975e-05 2.14908e-05)
(1.05651 3.59526e-05 -2.56507e-05)
(1.05646 -1.22513e-05 2.3663e-05)
(1.05649 -3.92111e-05 -1.92417e-05)
(1.05653 9.09738e-05 1.30741e-05)
(1.05641 -0.000125141 -8.97706e-06)
(1.05657 0.000112912 8.3569e-06)
(1.05643 -6.67888e-05 -8.27139e-06)
(1.0565 -4.47297e-06 7.02897e-06)
(1.05651 6.53541e-05 -2.0157e-06)
(1.05642 -0.000103515 -4.83282e-06)
(1.05656 0.000111757 8.66763e-06)
(1.05641 -9.68618e-05 -8.31757e-06)
(1.05654 6.91823e-05 2.83583e-06)
(1.05646 -3.21414e-05 4.0883e-06)
(1.0565 1.77424e-05 -2.87853e-06)
(1.0565 1.95709e-05 1.30015e-05)
(1.05644 -4.84111e-05 -2.14253e-05)
(1.05655 6.30115e-05 1.81722e-05)
(1.05642 -5.52154e-05 -5.94065e-06)
(1.05654 2.94933e-05 -1.5238e-05)
(1.05646 5.71108e-06 3.02184e-05)
(1.05647 -2.73056e-05 -3.85973e-05)
(1.05654 2.66504e-05 3.39917e-05)
(1.05642 -4.54612e-06 -2.47155e-05)
(1.05653 -1.84618e-05 1.10693e-05)
(1.05647 2.68077e-05 2.80136e-07)
(1.05647 -1.55008e-05 -1.08906e-05)
(1.05651 -9.02384e-06 1.84142e-05)
(1.05646 2.51055e-05 -2.65297e-05)
(1.0565 -3.12195e-05 2.94617e-05)
(1.05646 2.14876e-05 -2.52953e-05)
(1.05651 -1.12471e-05 9.18231e-06)
(1.05647 -4.36233e-06 1.34177e-05)
(1.05647 9.88207e-06 -3.39993e-05)
(1.05653 -1.59461e-05 4.25518e-05)
(1.05644 1.21705e-05 -3.73405e-05)
(1.0565 -9.67589e-06 2.0135e-05)
(1.0565 -3.7339e-06 -1.47736e-06)
(1.05646 1.66853e-05 -1.58093e-05)
(1.05649 -3.77962e-05 2.53384e-05)
(1.05651 4.43627e-05 -3.11363e-05)
(1.05644 -3.54284e-05 2.86312e-05)
(1.05652 -5.4731e-06 -2.1611e-05)
(1.0565 5.48733e-05 1.27978e-05)
(1.05642 -0.000100381 -6.68595e-06)
(1.05658 0.000107856 6.52824e-06)
(1.0564 -8.30975e-05 -7.54445e-06)
(1.05654 2.7341e-05 8.58056e-06)
(1.05648 2.7784e-05 -4.50564e-06)
(1.05644 -6.98459e-05 -2.56907e-06)
(1.05656 8.94825e-05 9.05627e-06)
(1.0564 -8.98634e-05 -1.3242e-05)
(1.05656 7.62831e-05 1.22236e-05)
(1.05643 -4.96379e-05 -7.53971e-06)
(1.05652 4.0205e-05 6.67794e-06)
(1.05648 -4.81585e-06 5.97947e-06)
(1.05645 -2.719e-05 -1.9367e-05)
(1.05654 4.90315e-05 2.07916e-05)
(1.05641 -5.09326e-05 -1.21972e-05)
(1.05655 3.55278e-05 -8.79721e-06)
(1.05645 -5.99141e-06 2.47227e-05)
(1.05647 -1.44009e-05 -3.52152e-05)
(1.05654 2.02906e-05 3.25072e-05)
(1.05641 -7.94575e-06 -2.45586e-05)
(1.05654 -5.99785e-06 1.12761e-05)
(1.05647 1.49309e-05 6.6865e-07)
(1.05646 -1.08988e-05 -1.13099e-05)
(1.05652 -4.20925e-06 1.85128e-05)
(1.05646 1.48697e-05 -2.53735e-05)
(1.0565 -2.10843e-05 2.73615e-05)
(1.05646 1.53818e-05 -2.34592e-05)
(1.0565 -7.57767e-06 9.67245e-06)
(1.05648 -7.76347e-06 1.08483e-05)
(1.05646 1.20187e-05 -2.98576e-05)
(1.05653 -1.53729e-05 3.9142e-05)
(1.05644 9.00457e-06 -3.53866e-05)
(1.0565 -7.09737e-06 1.97697e-05)
(1.05651 -2.18876e-06 -1.61731e-06)
(1.05645 7.96559e-06 -1.65568e-05)
(1.0565 -2.74174e-05 2.66387e-05)
(1.05651 4.1208e-05 -3.3348e-05)
(1.05643 -4.921e-05 3.02909e-05)
(1.05654 2.526e-05 -2.17497e-05)
(1.05647 1.2495e-05 1.12915e-05)
(1.05644 -6.1813e-05 -4.20064e-06)
(1.05658 8.57645e-05 4.46853e-06)
(1.05638 -8.65823e-05 -6.37153e-06)
(1.05657 5.37455e-05 9.69009e-06)
(1.05645 -1.35005e-05 -7.07815e-06)
(1.05646 -2.57714e-05 2.30515e-07)
(1.05655 5.39338e-05 7.61657e-06)
(1.0564 -6.99819e-05 -1.56718e-05)
(1.05656 7.33711e-05 1.89238e-05)
(1.05642 -6.21099e-05 -1.72723e-05)
(1.05653 6.10839e-05 1.45356e-05)
(1.05646 -3.06642e-05 -1.41914e-06)
(1.05647 -2.49995e-06 -1.54631e-05)
(1.05653 3.02765e-05 2.11374e-05)
(1.05641 -4.2561e-05 -1.70965e-05)
(1.05656 3.95496e-05 -2.12697e-06)
(1.05643 -1.92621e-05 1.68574e-05)
(1.05648 2.69602e-06 -2.89143e-05)
(1.05654 8.62202e-06 2.82056e-05)
(1.0564 -7.38269e-06 -2.26421e-05)
(1.05655 5.00623e-06 1.12134e-05)
(1.05646 2.47033e-06 2.20708e-07)
(1.05645 -4.97035e-06 -9.76299e-06)
(1.05653 6.02067e-07 1.67538e-05)
(1.05645 2.89039e-06 -2.24331e-05)
(1.0565 -8.47627e-06 2.38814e-05)
(1.05647 7.91344e-06 -2.03475e-05)
(1.0565 -5.47759e-06 9.42689e-06)
(1.05648 -6.87099e-06 9.11352e-06)
(1.05646 7.39737e-06 -2.56196e-05)
(1.05653 -8.94465e-06 3.46975e-05)
(1.05644 1.77304e-06 -3.1803e-05)
(1.0565 -3.37842e-06 1.80196e-05)
(1.05651 -1.18792e-07 -1.07348e-06)
(1.05644 -4.01317e-06 -1.70152e-05)
(1.05651 -1.21534e-05 2.63467e-05)
(1.0565 2.93734e-05 -3.38413e-05)
(1.05643 -5.37086e-05 3.00649e-05)
(1.05655 4.77437e-05 -2.07936e-05)
(1.05645 -2.7924e-05 9.32275e-06)
(1.05646 -1.95532e-05 -1.78703e-06)
(1.05656 5.35058e-05 2.24477e-06)
(1.05638 -7.86892e-05 -4.7971e-06)
(1.05658 7.00415e-05 1.03523e-05)
(1.05644 -5.01642e-05 -9.49516e-06)
(1.05648 1.72723e-05 3.20963e-06)
(1.05653 1.54953e-05 4.70658e-06)
(1.05641 -4.60717e-05 -1.57938e-05)
(1.05656 6.5809e-05 2.25738e-05)
(1.05642 -7.13844e-05 -2.43677e-05)
(1.05654 7.80982e-05 2.00879e-05)
(1.05645 -5.42937e-05 -8.08383e-06)
(1.05648 2.0548e-05 -1.04148e-05)
(1.05652 9.94381e-06 2.03182e-05)
(1.05641 -3.20651e-05 -2.06651e-05)
(1.05656 4.03614e-05 4.10252e-06)
(1.05643 -3.09931e-05 8.18897e-06)
(1.05649 1.91285e-05 -2.04783e-05)
(1.05654 -4.25749e-06 2.28616e-05)
(1.0564 -5.79591e-06 -1.94899e-05)
(1.05655 1.54953e-05 1.12295e-05)
(1.05646 -1.13315e-05 -5.78741e-07)
(1.05646 2.36193e-06 -6.38072e-06)
(1.05653 2.65906e-06 1.41634e-05)
(1.05645 -7.94002e-06 -1.81519e-05)
(1.0565 3.25082e-06 1.95967e-05)
(1.05647 3.39683e-07 -1.60445e-05)
(1.0565 -5.05565e-06 8.78769e-06)
(1.05648 -3.95351e-06 8.74282e-06)
(1.05646 -1.03714e-06 -2.15466e-05)
(1.05653 7.6117e-08 3.0031e-05)
(1.05644 -7.77731e-06 -2.74527e-05)
(1.0565 7.17099e-07 1.56135e-05)
(1.05651 6.32442e-07 2.25207e-07)
(1.05644 -1.66226e-05 -1.74787e-05)
(1.05652 4.10551e-06 2.5074e-05)
(1.05649 1.19155e-05 -3.33822e-05)
(1.05643 -5.0897e-05 2.93402e-05)
(1.05655 5.97315e-05 -1.94523e-05)
(1.05644 -6.16977e-05 7.45945e-06)
(1.05648 1.87089e-05 -9.54455e-08)
(1.05655 1.8019e-05 9.12822e-08)
(1.05639 -6.53951e-05 -2.52973e-06)
(1.05658 7.70977e-05 1.07183e-05)
(1.05643 -7.99765e-05 -1.1612e-05)
(1.05649 5.48173e-05 5.85517e-06)
(1.05652 -2.18264e-05 7.53061e-07)
(1.05643 -2.20285e-05 -1.35463e-05)
(1.05655 5.47812e-05 2.37365e-05)
(1.05642 -7.75796e-05 -2.8676e-05)
(1.05654 8.85724e-05 2.30951e-05)
(1.05643 -7.40309e-05 -1.35241e-05)
(1.0565 3.94085e-05 -3.83681e-06)
(1.05651 -9.9601e-06 1.99591e-05)
(1.05642 -2.25221e-05 -2.2554e-05)
(1.05656 3.80412e-05 9.20899e-06)
(1.05642 -4.11483e-05 -3.58143e-08)
(1.05649 3.39175e-05 -1.00316e-05)
(1.05653 -1.85722e-05 1.80271e-05)
(1.05641 -3.79414e-06 -1.48604e-05)
(1.05654 2.32101e-05 1.11631e-05)
(1.05646 -2.51141e-05 -1.19013e-06)
(1.05646 9.71985e-06 -5.8822e-07)
(1.05652 1.94687e-06 1.24826e-05)
(1.05645 -1.79506e-05 -1.25329e-05)
(1.0565 1.2268e-05 1.50136e-05)
(1.05646 -7.10431e-06 -1.1074e-05)
(1.05649 -6.15649e-06 9.01802e-06)
(1.05648 -1.13082e-06 1.08609e-05)
(1.05646 -1.2505e-05 -1.75828e-05)
(1.05652 8.88675e-06 2.54251e-05)
(1.05644 -1.94573e-05 -2.28321e-05)
(1.0565 5.24121e-06 1.37229e-05)
(1.0565 -1.94717e-06 3.1645e-06)
(1.05644 -2.8871e-05 -1.78964e-05)
(1.05652 1.69086e-05 2.28137e-05)
(1.05648 -7.71935e-06 -3.2747e-05)
(1.05645 -4.47669e-05 2.94286e-05)
(1.05655 6.22848e-05 -1.71803e-05)
(1.05643 -8.95243e-05 6.29236e-06)
(1.0565 4.92196e-05 3.93393e-07)
(1.05652 -1.80886e-05 -1.86e-06)
(1.0564 -4.92887e-05 8.50264e-07)
(1.05657 7.48986e-05 1.19725e-05)
(1.05643 -0.000102868 -1.29968e-05)
(1.0565 8.28522e-05 7.57956e-06)
(1.0565 -5.53246e-05 -3.81141e-06)
(1.05644 -6.89049e-07 -8.94239e-06)
(1.05654 4.07022e-05 2.41348e-05)
(1.05642 -8.17116e-05 -3.02972e-05)
(1.05654 9.17848e-05 2.25169e-05)
(1.05642 -9.1387e-05 -1.80863e-05)
(1.0565 5.23389e-05 6.45353e-06)
(1.05649 -2.90246e-05 2.41671e-05)
(1.05643 -1.51465e-05 -2.19501e-05)
(1.05655 3.08648e-05 1.19548e-05)
(1.05642 -4.97631e-05 -7.70066e-06)
(1.05649 4.36116e-05 4.36209e-06)
(1.05651 -3.279e-05 1.81042e-05)
(1.05641 -3.33073e-06 -7.81049e-06)
(1.05653 2.60727e-05 9.534e-06)
(1.05645 -3.94994e-05 -1.85484e-06)
(1.05646 1.55991e-05 9.48909e-06)
(1.05651 -2.07239e-06 1.56074e-05)
(1.05645 -2.80452e-05 -4.59406e-06)
(1.0565 1.67822e-05 9.11378e-06)
(1.05645 -1.61261e-05 -6.22546e-06)
(1.05649 -8.97109e-06 1.2742e-05)
(1.05647 -9.07459e-07 1.87492e-05)
(1.05646 -2.59097e-05 -1.2807e-05)
(1.05652 1.40252e-05 1.93826e-05)
(1.05643 -3.33821e-05 -1.92908e-05)
(1.0565 8.12479e-06 1.45119e-05)
(1.05649 -8.42992e-06 1.10458e-05)
(1.05644 -4.14403e-05 -1.73837e-05)
(1.05652 2.34505e-05 1.84457e-05)
(1.05646 -2.96236e-05 -3.27963e-05)
(1.05646 -3.85708e-05 3.3051e-05)
(1.05653 5.6082e-05 -1.10497e-05)
(1.05642 -0.000112934 6.83124e-06)
(1.0565 6.88034e-05 -2.00537e-06)
(1.0565 -5.39723e-05 -4.29555e-06)
(1.05642 -3.40589e-05 7.48087e-06)
(1.05655 6.36623e-05 1.7677e-05)
(1.05642 -0.000119543 -1.29143e-05)
(1.0565 9.84902e-05 6.70602e-06)
(1.05648 -8.49259e-05 -9.07072e-06)
(1.05646 1.5159e-05 1.53075e-07)
(1.05651 2.43437e-05 2.78889e-05)
(1.05643 -8.60442e-05 -2.87239e-05)
(1.0565 8.55167e-05 1.35444e-05)
(1.05638 -0.000107386 -2.39709e-05)
(1.05649 5.86349e-05 2.68115e-05)
(1.05645 -4.83542e-05 4.28298e-05)
(1.0564 -1.32878e-05 -1.68793e-05)
(1.05651 1.73977e-05 8.06844e-06)
(1.05639 -5.80399e-05 -1.61817e-05)
(1.05646 4.7534e-05 2.89754e-05)
(1.05648 -4.78747e-05 3.31659e-05)
(1.05639 -7.79199e-06 3.54792e-06)
(1.05649 2.2162e-05 9.79727e-07)
(1.05642 -5.52512e-05 -5.36908e-06)
(1.05644 1.89147e-05 2.91017e-05)
(1.05647 -1.10702e-05 3.26878e-05)
(1.05642 -4.03945e-05 7.25526e-06)
(1.05647 1.40104e-05 -2.9173e-06)
(1.05642 -2.7376e-05 -4.66345e-06)
(1.05647 -1.46546e-05 2.5723e-05)
(1.05645 -4.96249e-06 4.08555e-05)
(1.05643 -4.34077e-05 -5.83191e-06)
(1.05648 1.24037e-05 5.79817e-06)
(1.0564 -4.98994e-05 -2.09018e-05)
(1.05648 8.08216e-06 2.40351e-05)
(1.05645 -2.04546e-05 3.32332e-05)
(1.05642 -5.70284e-05 -1.39426e-05)
(1.05648 2.05504e-05 6.72211e-06)
(1.05642 -5.33066e-05 -3.56926e-05)
(1.05644 -3.53825e-05 4.62817e-05)
(1.05649 4.09018e-05 7.91473e-06)
(1.05639 -0.00013606 1.12511e-05)
(1.05648 7.51838e-05 -1.30153e-05)
(1.05645 -8.98401e-05 -1.03858e-05)
(1.05641 -2.23489e-05 2.33284e-05)
(1.0565 4.42343e-05 3.72144e-05)
(1.0564 -0.000135157 -9.50559e-06)
(1.05647 0.000100457 -2.17019e-06)
(1.05643 -0.000112132 -1.73361e-05)
(1.05645 2.40002e-05 1.99742e-05)
(1.05646 4.4699e-06 4.48566e-05)
(1.05641 -9.37137e-05 -2.26891e-05)
(1.05634 6.66491e-05 -1.33758e-05)
(1.05621 -0.000125579 -3.12153e-05)
(1.05635 5.80592e-05 7.15714e-05)
(1.05628 -6.75777e-05 8.98252e-05)
(1.05626 -1.86794e-05 -8.0109e-06)
(1.05633 -6.24591e-06 -1.12691e-05)
(1.05625 -6.93095e-05 -2.46053e-05)
(1.05631 4.51404e-05 7.77e-05)
(1.05633 -6.41412e-05 7.70991e-05)
(1.05624 -1.94997e-05 1.71634e-05)
(1.05634 7.84559e-06 -2.68507e-05)
(1.05627 -7.60077e-05 -1.4901e-05)
(1.05632 1.79321e-05 6.96425e-05)
(1.05631 -2.41773e-05 7.5736e-05)
(1.05627 -5.77504e-05 2.06052e-05)
(1.05631 3.32647e-07 -3.19193e-05)
(1.05627 -4.42402e-05 -9.39094e-06)
(1.05633 -2.41928e-05 6.02888e-05)
(1.0563 -1.38023e-05 8.79036e-05)
(1.05627 -6.62275e-05 -7.09661e-07)
(1.05633 -6.57541e-07 -2.84652e-05)
(1.05624 -7.22956e-05 -3.14991e-05)
(1.05634 3.53797e-06 5.58447e-05)
(1.05627 -3.73667e-05 8.42236e-05)
(1.05627 -7.81642e-05 -9.23036e-06)
(1.05631 4.47712e-06 -2.2633e-05)
(1.05626 -8.124e-05 -4.16218e-05)
(1.0563 -3.77175e-05 8.21712e-05)
(1.05632 1.88139e-05 5.32222e-05)
(1.05623 -0.00016193 1.74829e-05)
(1.05632 6.52738e-05 -4.35175e-05)
(1.05627 -0.000128585 -2.21939e-05)
(1.05628 -1.5315e-05 6.1824e-05)
(1.05632 1.76142e-05 8.35564e-05)
(1.05625 -0.000152301 -5.01363e-06)
(1.0563 8.58577e-05 -2.90687e-05)
(1.05627 -0.000140808 -2.88459e-05)
(1.05631 2.60069e-05 6.46257e-05)
(1.05629 -1.80903e-05 8.9334e-05)
(1.05624 -0.000107024 -1.36084e-05)
(1.05571 3.58979e-05 -6.26067e-05)
(1.05556 -0.000147093 -2.12174e-05)
(1.05577 5.04151e-05 0.000161224)
(1.05562 -8.86421e-05 0.00016367)
(1.05564 -3.33576e-05 -1.23225e-05)
(1.05566 -4.00412e-05 -5.05185e-05)
(1.05567 -8.43539e-05 -1.55856e-05)
(1.0557 3.50144e-05 0.000168271)
(1.05572 -8.32912e-05 0.000147)
(1.05559 -4.09006e-05 1.14763e-05)
(1.05573 -1.8626e-05 -8.45158e-05)
(1.05566 -0.0001025 -1.76024e-05)
(1.05576 1.13768e-05 0.000146232)
(1.05567 -4.38403e-05 0.000139871)
(1.05566 -8.23956e-05 1.47611e-05)
(1.05568 -2.55935e-05 -8.74631e-05)
(1.0557 -6.78059e-05 -7.7477e-06)
(1.05572 -3.88241e-05 0.000131884)
(1.05571 -2.95923e-05 0.0001525)
(1.05561 -9.61579e-05 -2.02835e-05)
(1.05572 -2.62163e-05 -9.44511e-05)
(1.05561 -0.000101131 -3.59467e-05)
(1.05576 -7.07424e-06 0.000131228)
(1.0556 -6.07246e-05 0.000163014)
(1.05564 -0.000107036 -2.29944e-05)
(1.05563 -2.4335e-05 -7.55416e-05)
(1.05565 -0.000113816 -3.32783e-05)
(1.05566 -4.70175e-05 0.000158349)
(1.05568 -1.01737e-05 0.000123195)
(1.05554 -0.00019264 5.72376e-06)
(1.05568 4.06324e-05 -0.000101374)
(1.0556 -0.000169616 -2.36067e-05)
(1.05569 -1.36834e-05 0.000142683)
(1.05562 -1.63103e-05 0.000153783)
(1.05561 -0.00017344 -1.78241e-05)
(1.05561 5.56012e-05 -8.01247e-05)
(1.05565 -0.000171663 -2.43908e-05)
(1.05567 2.12201e-05 0.000154304)
(1.05565 -4.44457e-05 0.00016034)
(1.05556 -0.000127305 -1.90615e-05)
(1.05378 -4.21833e-06 -9.30897e-05)
(1.05354 -0.000167356 5.75165e-05)
(1.05388 3.91244e-05 0.00028529)
(1.05354 -0.000111535 0.000204761)
(1.0537 -5.90795e-05 -5.94192e-05)
(1.05365 -8.32123e-05 -7.39876e-05)
(1.05382 -0.000100257 5.52611e-05)
(1.0537 2.02824e-05 0.000285051)
(1.05379 -0.000106298 0.000178501)
(1.05356 -7.39713e-05 -5.28409e-05)
(1.05386 -5.69055e-05 -0.000140494)
(1.0537 -0.000131755 3.27048e-05)
(1.0539 2.18171e-06 0.000247213)
(1.05362 -6.98067e-05 0.000164129)
(1.05374 -0.000116998 -4.50085e-05)
(1.05368 -6.32293e-05 -0.000140108)
(1.05384 -9.54562e-05 4.58392e-05)
(1.05373 -5.57999e-05 0.000226057)
(1.05377 -5.19788e-05 0.00017016)
(1.05354 -0.000135478 -9.81518e-05)
(1.05381 -6.45732e-05 -0.000154535)
(1.05359 -0.000132931 2.3475e-05)
(1.05384 -1.99873e-05 0.000246023)
(1.05347 -8.90033e-05 0.000207251)
(1.05365 -0.000144878 -8.87962e-05)
(1.05354 -6.32189e-05 -0.000111594)
(1.05373 -0.000146837 3.69198e-05)
(1.05358 -5.85445e-05 0.00026444)
(1.05367 -4.28435e-05 0.000158354)
(1.0534 -0.000228344 -5.73184e-05)
(1.05371 4.51269e-06 -0.000148086)
(1.05353 -0.000207511 3.96418e-05)
(1.05374 -1.26319e-05 0.000258628)
(1.05349 -5.5333e-05 0.000186502)
(1.05362 -0.000199849 -7.63002e-05)
(1.05353 1.33352e-05 -0.000113971)
(1.05372 -0.000199372 5.11939e-05)
(1.0536 1.46179e-05 0.000279017)
(1.05365 -7.26061e-05 0.000199816)
(1.05346 -0.000155601 -6.8697e-05)
(1.04897 -3.62526e-05 -7.69415e-06)
(1.04844 -0.000174068 0.000212056)
(1.049 2.06325e-05 0.000341987)
(1.04838 -0.000144875 0.000127431)
(1.04886 -9.2308e-05 -0.000119022)
(1.04861 -0.00011852 1.28103e-06)
(1.04902 -0.000107099 0.000186374)
(1.04858 -3.46761e-06 0.000323151)
(1.04891 -0.000142878 7.94786e-05)
(1.04849 -0.000115822 -0.00014869)
(1.04909 -8.96605e-05 -9.76487e-05)
(1.04865 -0.000151458 0.00015166)
(1.04903 -1.40334e-05 0.000281118)
(1.04847 -0.000110173 6.69682e-05)
(1.0489 -0.000157838 -0.000127614)
(1.04863 -9.5763e-05 -0.000100965)
(1.04899 -0.000114322 0.000167377)
(1.04855 -7.83542e-05 0.000246162)
(1.04881 -8.88306e-05 6.6701e-05)
(1.04837 -0.000179482 -0.0001891)
(1.04893 -9.70777e-05 -9.58971e-05)
(1.04841 -0.000151972 0.00017593)
(1.04883 -3.71527e-05 0.000304708)
(1.04816 -0.000129634 0.000126635)
(1.04868 -0.000185655 -0.000167012)
(1.04834 -9.19789e-05 -3.1267e-05)
(1.04878 -0.000166788 0.000175612)
(1.04826 -7.30938e-05 0.000308934)
(1.04863 -8.48636e-05 7.55663e-05)
(1.04813 -0.00026257 -0.000132352)
(1.04879 -2.32683e-05 -8.06241e-05)
(1.04832 -0.000226697 0.000189853)
(1.04874 -1.53552e-05 0.000313578)
(1.04821 -0.000105984 0.000103404)
(1.04866 -0.00022448 -0.000137089)
(1.04837 -2.19155e-05 -2.91987e-05)
(1.04882 -0.000208931 0.000212802)
(1.04837 3.31711e-06 0.000337013)
(1.0487 -0.000110769 0.000126899)
(1.04829 -0.00018635 -0.000127326)
(1.03885 -4.12054e-05 0.000190112)
(1.03774 -0.000166752 0.000272024)
(1.03875 -1.73811e-05 0.000215187)
(1.03776 -0.000189421 -1.49308e-06)
(1.03875 -0.000117096 -6.27384e-05)
(1.03804 -0.000127269 0.000162875)
(1.03878 -0.000105605 0.000216003)
(1.03789 -4.69614e-05 0.000174005)
(1.03872 -0.000192438 -7.75897e-05)
(1.03794 -0.000147642 -0.000120571)
(1.03891 -9.54985e-05 6.6084e-05)
(1.03791 -0.000157592 0.000198685)
(1.03871 -4.67142e-05 0.000148133)
(1.03777 -0.000164394 -7.49387e-05)
(1.0387 -0.000185634 -8.74795e-05)
(1.03793 -0.000103131 4.80926e-05)
(1.0386 -0.00012017 0.00022294)
(1.03769 -0.000114417 9.82147e-05)
(1.03845 -0.000137779 -5.34741e-05)
(1.03762 -0.0002078 -0.000127821)
(1.03855 -9.93866e-05 0.00011228)
(1.0375 -0.000152603 0.000264531)
(1.03832 -6.83758e-05 0.000186974)
(1.03732 -0.000181276 -4.87821e-06)
(1.03835 -0.000208274 -9.65596e-05)
(1.0375 -8.9721e-05 0.000164312)
(1.03833 -0.000171123 0.00023044)
(1.03731 -9.72135e-05 0.000193288)
(1.03828 -0.000136463 -4.83351e-05)
(1.03736 -0.000275165 -5.93783e-05)
(1.0385 -2.24518e-05 0.000114863)
(1.03748 -0.000223891 0.00027763)
(1.03832 -3.3701e-05 0.000192291)
(1.03748 -0.000166055 -6.22521e-06)
(1.03842 -0.000228451 -5.33371e-05)
(1.03769 -2.97979e-05 0.000177897)
(1.0385 -0.00019875 0.000292783)
(1.03759 -2.63917e-05 0.000212665)
(1.03852 -0.000159096 1.70571e-05)
(1.03769 -0.00020253 -5.7648e-05)
(1.02054 -3.57567e-05 0.00025378)
(1.0187 -0.000185534 0.000116707)
(1.02045 -8.03947e-05 6.97411e-05)
(1.0189 -0.000204877 6.24466e-06)
(1.02042 -0.000101558 5.50618e-05)
(1.01903 -0.000124837 0.000189877)
(1.0203 -0.000132849 5.46325e-05)
(1.01892 -0.000110379 2.07816e-05)
(1.02038 -0.000211997 -7.04607e-05)
(1.01892 -0.000130619 1.99924e-05)
(1.02036 -8.58009e-05 0.000135027)
(1.01873 -0.000186424 7.31979e-05)
(1.0202 -9.80129e-05 1.4821e-05)
(1.01872 -0.000189339 -5.15177e-05)
(1.02016 -0.0001648 5.21074e-05)
(1.01868 -9.58351e-05 0.000112352)
(1.01993 -0.000146743 0.000120667)
(1.01848 -0.000165012 -2.73684e-05)
(1.01991 -0.000153889 2.72388e-05)
(1.01842 -0.000183827 4.17032e-05)
(1.01986 -8.25519e-05 0.000226158)
(1.01823 -0.000176356 0.000145667)
(1.01973 -0.000119721 6.063e-05)
(1.01827 -0.000200824 2.68579e-05)
(1.01982 -0.000176274 8.30677e-05)
(1.0183 -7.44881e-05 0.000225461)
(1.01976 -0.000196826 0.000116878)
(1.0182 -0.000134626 7.77705e-05)
(1.01995 -0.00015876 -1.69923e-06)
(1.0183 -0.000232047 0.000118826)
(1.02005 -1.05639e-05 0.000199058)
(1.01838 -0.000239329 0.000179322)
(1.01992 -7.58701e-05 5.77149e-05)
(1.01862 -0.000191703 6.41442e-05)
(1.02005 -0.000182516 0.000101063)
(1.01871 -2.7724e-05 0.000263361)
(1.02011 -0.000211383 0.000157002)
(1.01866 -8.09891e-05 7.69793e-05)
(1.02035 -0.000176271 5.72099e-05)
(1.01875 -0.000173447 7.99579e-05)
(0.991574 -6.98284e-05 0.000160498)
(0.988896 -0.000205871 -2.68812e-05)
(0.991473 -9.78604e-05 8.31576e-05)
(0.989115 -0.000175332 3.1834e-05)
(0.991236 -9.96085e-05 4.86092e-05)
(0.989186 -0.000152835 0.000100556)
(0.991114 -0.000158471 -6.07616e-05)
(0.989099 -0.000120369 5.82064e-05)
(0.991155 -0.000182095 -5.24928e-06)
(0.988921 -0.00011889 6.14437e-05)
(0.991068 -0.00010971 8.09381e-05)
(0.988787 -0.000210875 -1.53392e-05)
(0.990955 -0.000100682 5.64328e-05)
(0.988777 -0.000165988 3.12205e-05)
(0.990783 -0.000148212 8.84979e-05)
(0.988674 -0.000118041 7.98028e-05)
(0.990666 -0.000167386 5.53673e-05)
(0.988558 -0.00016276 3.20312e-05)
(0.9907 -0.000123112 0.000141875)
(0.988441 -0.000166592 7.11625e-05)
(0.990641 -0.000102289 0.000183777)
(0.988434 -0.000202067 3.41943e-05)
(0.990622 -0.000118136 0.000104249)
(0.988567 -0.000171686 9.5512e-05)
(0.990632 -0.000150947 0.000130433)
(0.988568 -9.95035e-05 0.000136036)
(0.990762 -0.000213901 5.57437e-05)
(0.988533 -0.000124283 9.9354e-05)
(0.991054 -0.000135791 9.81552e-05)
(0.988529 -0.000193586 0.000140593)
(0.991096 -4.31204e-05 0.000146114)
(0.988745 -0.000250593 7.59351e-05)
(0.990989 -7.52032e-05 8.38005e-05)
(0.989084 -0.000168576 0.000147642)
(0.990976 -0.00015099 8.52776e-05)
(0.98913 -6.70674e-05 0.000203523)
(0.991157 -0.0002232 8.48753e-06)
(0.989051 -9.10535e-05 0.00010789)
(0.991463 -0.000147828 9.3635e-05)
(0.988914 -0.000156842 7.25363e-05)
(0.950285 -8.54059e-05 8.17898e-05)
(0.946663 -0.000183179 -5.6346e-05)
(0.950093 -9.54621e-05 0.000120781)
(0.94688 -0.000159671 -3.53834e-05)
(0.949708 -0.000111404 5.07941e-05)
(0.947029 -0.000153203 5.18154e-05)
(0.949537 -0.000140347 -5.5025e-05)
(0.946912 -0.000107119 0.000132852)
(0.949562 -0.000167863 -4.84249e-05)
(0.946667 -0.000121137 9.30362e-05)
(0.949573 -0.000114327 4.13544e-05)
(0.946562 -0.000189532 5.1803e-07)
(0.94945 -8.47427e-05 0.000125524)
(0.946603 -0.00015575 9.69768e-06)
(0.949249 -0.000144485 9.60063e-05)
(0.946626 -0.00011966 7.01232e-05)
(0.949229 -0.00014802 5.54437e-05)
(0.946526 -0.000141976 9.69719e-05)
(0.949362 -0.000114722 0.00011169)
(0.946414 -0.000165148 4.4071e-05)
(0.949427 -0.000106452 0.00014392)
(0.946525 -0.000181861 1.80915e-05)
(0.94937 -9.621e-05 0.000145718)
(0.946758 -0.000162735 5.8244e-05)
(0.949313 -0.000140927 0.000111989)
(0.946849 -0.000109156 7.43845e-05)
(0.949544 -0.000183298 6.86889e-05)
(0.946689 -0.000103461 0.000111344)
(0.949942 -0.000131349 8.10625e-05)
(0.946547 -0.000174615 8.20582e-05)
(0.950041 -6.5445e-05 0.00011722)
(0.946827 -0.000215969 1.03444e-05)
(0.949771 -6.39869e-05 0.000141497)
(0.947268 -0.000164247 6.04415e-05)
(0.949553 -0.000139985 4.20274e-05)
(0.947384 -9.00588e-05 0.000145118)
(0.949711 -0.000191193 -5.97858e-05)
(0.947125 -8.69128e-05 0.000157019)
(0.950079 -0.000137659 -3.29484e-06)
(0.946748 -0.000159322 4.97014e-05)
(0.896171 -8.10266e-05 1.54275e-05)
(0.891867 -0.000151581 -2.623e-05)
(0.896071 -0.000101248 0.000100596)
(0.892073 -0.000134251 -6.42795e-05)
(0.895623 -0.000102927 9.75513e-05)
(0.892357 -0.000137639 -9.25119e-06)
(0.89535 -0.000115656 1.70963e-05)
(0.892328 -0.000103483 0.000101594)
(0.895405 -0.000149804 -6.99961e-05)
(0.892084 -0.000103037 0.000158254)
(0.895556 -0.000107296 -4.30704e-05)
(0.891947 -0.000159858 7.83839e-05)
(0.895514 -7.99873e-05 8.87787e-05)
(0.892057 -0.000141453 -2.19555e-05)
(0.895333 -0.000124304 0.000132565)
(0.892223 -0.000109369 1.69872e-05)
(0.895297 -0.000126291 6.49566e-05)
(0.892197 -0.000130717 8.42354e-05)
(0.895492 -0.000104305 4.7532e-05)
(0.892056 -0.000144009 4.98677e-05)
(0.895693 -9.81469e-05 9.72446e-05)
(0.892104 -0.000151753 1.55127e-05)
(0.895629 -9.13032e-05 0.000111376)
(0.892432 -0.000146472 1.74962e-05)
(0.895399 -0.000115543 9.41862e-05)
(0.892687 -0.000109069 2.48189e-05)
(0.895514 -0.000144 7.21153e-05)
(0.892439 -0.000104269 6.43357e-05)
(0.89604 -0.000118382 2.65213e-05)
(0.892032 -0.000144086 6.9805e-05)
(0.89631 -7.71314e-05 5.5465e-05)
(0.892147 -0.000170984 -2.06277e-05)
(0.895967 -7.35996e-05 0.000148489)
(0.892668 -0.000147206 -6.8065e-05)
(0.89548 -0.000117345 9.34214e-05)
(0.892973 -9.71316e-05 4.35763e-05)
(0.895392 -0.000150785 -5.54349e-05)
(0.892741 -9.89052e-05 0.000143096)
(0.895771 -0.00011502 -8.09591e-05)
(0.892173 -0.000147805 8.22749e-05)
(0.830177 -6.12594e-05 -3.39569e-05)