/*--------------------------------*- C++ -*----------------------------------*\
  =========                 |
  \\      /  F ield         | OpenFOAM: The Open Source CFD Toolbox
   \\    /   O peration     | Website:  https://openfoam.org
    \\  /    A nd           | Version:  10
     \\/     M anipulation  |
\*---------------------------------------------------------------------------*/
FoamFile
{
    format      ascii;
    class       volScalarField;
    location    "7";
    object      p;
}
// * * * * * * * * * * * * * * * * * * * * * * * * * * * * * * * * * * * * * //

dimensions      [0 2 -2 0 0 0 0];

internalField   nonuniform List<scalar> 
25600
(
0.00349491
0.00637315
-0.000923803
-0.00275513
-0.00443119
-0.0073465
-0.00292819
0.00485624
0.00747133
-0.000452154
-0.00656019
-0.00388032
0.00206523
0.00415739
0.00225959
0.00201082
-0.000522068
-0.000447478
-0.00294836
-0.00658493
0.00582136
0.00702268
-0.00416361
0.00295423
0.00456327
-0.00714199
-0.0126615
-0.000922614
0.0108291
0.00547004
0.00156825
0.00601822
0.00385074
-0.00498896
-0.00697535
-0.00361467
-0.00111461
0.00231739
-0.000266351
-0.00454151
0.00347978
0.00642045
-0.000914464
-0.0027597
-0.00441267
-0.00736036
-0.00296023
0.0048432
0.00750618
-0.000415957
-0.00657775
-0.00392246
0.00205245
0.00417997
0.00227586
0.00203001
-0.000528872
-0.000435474
-0.00291836
-0.00662067
0.00579526
0.00707235
-0.00416827
0.00295131
0.00461166
-0.00714774
-0.01274
-0.000992025
0.0108834
0.00552451
0.00154298
0.00602273
0.00390038
-0.00496427
-0.00699998
-0.0036356
-0.00112469
0.00232685
-0.000222019
-0.00455245
0.00347296
0.00651488
-0.000933454
-0.00277389
-0.00439435
-0.00744969
-0.00303495
0.00483443
0.00758949
-0.000347209
-0.00662083
-0.00399829
0.0020299
0.0042054
0.00229085
0.00205689
-0.00055982
-0.000421399
-0.00288234
-0.00669287
0.00577439
0.00716577
-0.00419303
0.00296386
0.00467033
-0.00722278
-0.0129273
-0.00111819
0.0110319
0.00559083
0.00147973
0.00603972
0.00399044
-0.00495359
-0.00709427
-0.00370443
-0.00115082
0.00235427
-0.000148835
-0.00461272
0.00347837
0.00668776
-0.000993984
-0.00279594
-0.00437069
-0.00764621
-0.00316751
0.00483743
0.00771823
-0.000232498
-0.0066732
-0.00410994
0.00198761
0.00421946
0.00231266
0.00208366
-0.000632355
-0.000398546
-0.00283128
-0.00676193
0.0057749
0.00731165
-0.00423077
0.0030071
0.00467864
-0.00741694
-0.0132201
-0.00132445
0.0113348
0.00568622
0.00133574
0.00605885
0.00412126
-0.0049283
-0.007221
-0.003862
-0.00123694
0.00241186
-3.02641e-05
-0.00471481
0.00345988
0.00688725
-0.00109379
-0.00281853
-0.00427555
-0.00793067
-0.00340156
0.00482946
0.00790216
1.33363e-05
-0.00669937
-0.00426412
0.00187505
0.00419711
0.00236131
0.00211973
-0.000775179
-0.000317149
-0.00269728
-0.00687301
0.0057946
0.0075445
-0.00422782
0.00307374
0.00457014
-0.00781135
-0.0135049
-0.00164044
0.0117872
0.00589818
0.00108916
0.00601725
0.00428055
-0.00478799
-0.0072381
-0.00410038
-0.00142349
0.00247387
0.00022255
-0.00474797
0.00342309
0.0070782
-0.00118584
-0.00288998
-0.00417957
-0.00814284
-0.00376008
0.00475639
0.00828097
0.000441187
-0.00664136
-0.00446705
0.00173102
0.0041007
0.00240063
0.00221702
-0.00101153
-0.000330181
-0.00244334
-0.00702946
0.0058477
0.007868
-0.00413193
0.00314042
0.004347
-0.00828976
-0.013832
-0.00205112
0.0121341
0.00632916
0.000786045
0.00589586
0.00442719
-0.00460596
-0.00700372
-0.00432945
-0.00166628
0.00240286
0.000615225
-0.00467218
0.00331422
0.0072499
-0.00114668
-0.00301702
-0.0041787
-0.0082271
-0.00409554
0.00452333
0.00846405
0.000863288
-0.00642639
-0.00456878
0.00135128
0.00386819
0.00222974
0.00226368
-0.00121566
-0.000319073
-0.00211755
-0.00720891
0.00592084
0.00819507
-0.00392395
0.00310008
0.00400112
-0.00850479
-0.0132947
-0.00243939
0.0121964
0.00686828
0.000583074
0.00576748
0.00455355
-0.00450265
-0.0067827
-0.00455311
-0.00188158
0.00232483
0.000895008
-0.00452354
0.00319451
0.00733816
-0.000937466
-0.00307441
-0.00419228
-0.00814774
-0.00437883
0.00409939
0.00856501
0.00114973
-0.00613622
-0.00442464
0.00115934
0.00356944
0.00193409
0.00222079
-0.00130647
-0.000259165
-0.00163001
-0.00739824
0.00578531
0.00952912
-0.00352006
0.00303213
0.00347074
-0.00863218
-0.0119738
-0.00282544
0.0118773
0.00726317
0.000612792
0.00570467
0.00465229
-0.00453504
-0.00669541
-0.00474179
-0.00209857
0.00226593
0.000940265
-0.0043852
0.00306054
0.00723768
-0.000620926
-0.00303919
-0.00433638
-0.00819398
-0.00452435
0.00338639
0.00821441
0.00157212
-0.00577927
-0.00419899
0.00111137
0.00332487
0.00164568
0.00202188
-0.00138072
-0.000223287
-0.000924339
-0.00727048
0.0050038
0.00939209
-0.0031869
0.00312899
0.00311661
-0.00922279
-0.0114004
-0.00375541
0.0108395
0.0071022
0.000798013
0.00588261
0.00471943
-0.00489409
-0.00667246
-0.00475387
-0.00218576
0.00220568
0.000898254
-0.00425247
0.00298972
0.00695114
-0.000319682
-0.00287528
-0.00477924
-0.00840178
-0.00425617
0.00280041
0.00698228
0.00163294
-0.00534358
-0.00400248
0.000915117
0.00313083
0.00161195
0.00174745
-0.00167567
-0.000472389
-0.000185265
-0.00622613
0.00433108
0.00872529
-0.00310909
0.00376822
0.00333026
-0.0103614
-0.0114757
-0.00477023
0.00945775
0.00621873
0.000699891
0.00613856
0.00479837
-0.00549802
-0.00688859
-0.00427365
-0.00213228
0.00193534
0.000876336
-0.0036886
0.0027642
0.0064081
-0.000157182
-0.00247452
-0.00480517
-0.00896003
-0.00424049
0.00226469
0.00552548
0.00109887
-0.00514061
-0.00397834
0.000844726
0.00300799
0.00157661
0.00134183
-0.00195028
-0.000946219
0.00013294
-0.00480097
0.00418542
0.00793316
-0.00342445
0.00405571
0.00405684
-0.0112554
-0.0120338
-0.00506349
0.00831248
0.00527929
0.000344229
0.00591691
0.00449862
-0.00608132
-0.00752378
-0.00393323
-0.0024347
0.000936004
0.000345938
-0.00317844
0.00229865
0.00557949
-0.00015631
-0.00190342
-0.00372448
-0.00941495
-0.00425742
0.00167651
0.00452232
0.000546346
-0.00506538
-0.00394668
0.000800841
0.00278943
0.00131532
0.000765909
-0.00207933
-0.00111378
0.000138287
-0.00426897
0.00396242
0.00709731
-0.00386367
0.00324017
0.00486623
-0.0106637
-0.012425
-0.00513738
0.00701313
0.00475819
-0.000112599
0.00566652
0.00430035
-0.00605539
-0.00835989
-0.00391176
-0.00269937
0.000104101
-0.000636057
-0.00272282
0.00201385
0.0045913
-0.000294861
-0.00157911
-0.00251552
-0.00740449
-0.0037153
0.00127691
0.00390619
0.000227894
-0.00480176
-0.00378355
0.000773038
0.00284975
0.00104922
0.000291513
-0.00192626
-0.000782808
-0.000132626
-0.00413981
0.00329152
0.00554185
-0.00431183
0.0021445
0.0054595
-0.00866961
-0.0116972
-0.00482838
0.00558534
0.00425329
-0.000207042
0.00535155
0.00375871
-0.00563513
-0.00745115
-0.00353693
-0.00239896
0.000138449
-0.00114528
-0.00223528
0.00182374
0.00367169
-0.000513428
-0.00130836
-0.00178786
-0.00626752
-0.00290311
0.00119405
0.00337433
-7.39388e-06
-0.00427315
-0.00332117
0.000818664
0.00283319
0.00118158
0.000402167
-0.00144714
-0.000192915
-0.00045674
-0.00422768
0.00220904
0.00417249
-0.00436148
0.000529478
0.00520493
-0.00656025
-0.00986214
-0.00383561
0.00457806
0.00367162
-0.000248033
0.00485197
0.00281758
-0.00535697
-0.00722274
-0.0031064
-0.00175875
0.00058439
-0.00115637
-0.00191657
0.00159485
0.00282511
-0.000511821
-0.00112866
-0.00210301
-0.00481202
-0.00205339
0.00119013
0.00276805
-4.44398e-05
-0.00353688
-0.00258266
0.000860181
0.00266967
0.00105554
0.000420598
-0.000999233
0.000209288
-0.000374621
-0.00403484
0.00136407
0.003553
-0.00384571
-0.000110674
0.00465712
-0.00461679
-0.00751687
-0.00263777
0.0039098
0.00329645
-8.73414e-05
0.00415532
0.0023207
-0.0047243
-0.00643601
-0.00266349
-0.00131481
0.000737326
-0.00102645
-0.00165531
0.00137228
0.00223833
-0.000446262
-0.000910695
-0.00173926
-0.003982
-0.00148153
0.000992617
0.00239928
6.32683e-05
-0.00276965
-0.0019394
0.000866954
0.00247706
0.000986392
0.000465844
-0.000656078
0.000356218
-0.000146358
-0.003413
0.000942086
0.00324514
-0.00299321
-0.000376339
0.00389867
-0.00270889
-0.00500286
-0.00184439
0.00293081
0.00318922
0.000475154
0.00337533
0.00208731
-0.00371714
-0.00546866
-0.00230551
-0.00109711
0.00066573
-0.00073949
-0.00143586
0.00113083
0.00174442
-0.000386109
-0.000703578
-0.00141469
-0.00335096
-0.00108073
0.000783772
0.00208723
0.000154049
-0.00224759
-0.00147689
0.000865791
0.00225601
0.000984599
0.000533426
-0.000480268
0.00036405
0.000195926
-0.00264548
0.000814763
0.00299889
-0.00212747
-0.00034516
0.0031688
-0.00133585
-0.00344061
-0.00140222
0.00230606
0.00299509
0.000780546
0.00262006
0.00186806
-0.00272069
-0.00423341
-0.00183132
-0.00091173
0.000576427
-0.000372707
-0.00113138
0.000922561
0.00145422
-0.00034179
-0.000452001
-0.00108082
-0.002861
-0.000822343
0.000612676
0.001838
0.000241618
-0.00172999
-0.00107732
0.000881302
0.00208534
0.00096649
0.000496524
-0.00044085
0.000373157
0.000510673
-0.00203246
0.000569099
0.00285933
-0.00146186
-0.000301119
0.00244611
-0.000493041
-0.00250637
-0.00110007
0.00175049
0.00266153
0.000982962
0.00210295
0.00164944
-0.00182836
-0.00308986
-0.00144854
-0.000822859
0.000411766
-7.92752e-05
-0.000875348
0.000750904
0.00111785
-0.000321471
-0.000287412
-0.000822088
-0.00243425
-0.000639373
0.000466959
0.00155083
0.000361618
-0.00129283
-0.000798884
0.000877544
0.00181321
0.000927827
0.000410813
-0.000371282
0.000401881
0.000747374
-0.0015216
0.000454705
0.00246914
-0.000994223
-0.000288533
0.00186002
6.99941e-05
-0.00155034
-0.00089773
0.00127727
0.00232199
0.00112734
0.0017281
0.00135445
-0.00121553
-0.00228012
-0.00117383
-0.000707343
0.000265909
0.000100085
-0.00055738
0.000595766
0.000834829
-0.0002847
-0.000163786
-0.000549152
-0.00191062
-0.000525823
0.000295959
0.00125978
0.000500609
-0.0009378
-0.000575206
0.000808669
0.00158338
0.000844066
0.000377068
-0.000255763
0.000324398
0.00088593
-0.00112816
0.000325773
0.00204536
-0.000573823
-0.000239655
0.00140641
0.000407289
-0.000888148
-0.000689881
0.00109121
0.00199108
0.00117748
0.00140487
0.00108052
-0.000944572
-0.00180667
-0.000932292
-0.000542922
0.000123893
0.000162453
-0.000286403
0.000507564
0.000598662
-0.000273028
-4.35232e-05
-0.00034339
-0.00148739
-0.000488617
0.000171741
0.000967944
0.000600981
-0.000672476
-0.000417694
0.00072197
0.00136846
0.000770497
0.000392258
-0.000163437
0.000240034
0.000956428
-0.000811323
0.000221146
0.00164521
-0.00030953
-0.000119526
0.00107177
0.000527739
-0.000441858
-0.000464023
0.000878559
0.00163557
0.00113055
0.00114776
0.000860909
-0.000508105
-0.00132457
-0.000782468
-0.000384489
2.96475e-05
0.000172135
-4.13993e-05
0.000450019
0.000420762
-0.00027257
7.92377e-06
-0.000195768
-0.00111988
-0.000369284
8.55824e-05
0.000685941
0.000681235
-0.000461926
-0.00032462
0.000644571
0.00117374
0.000700636
0.000375411
-6.53912e-05
0.000129825
0.000942256
-0.000509134
0.000135649
0.00131333
-0.000128174
1.05304e-05
0.000820794
0.000557192
-0.000140917
-0.000278346
0.000694782
0.00130137
0.000998893
0.000924005
0.000679307
-0.000201447
-0.000877932
-0.000604385
-0.000238953
-8.36842e-06
0.000130975
0.00013093
0.000468406
0.000278583
-0.000317086
-0.000132994
-5.99498e-05
-0.000783639
-0.000275196
3.03144e-05
0.000440752
0.000726656
-0.000280147
-0.000284581
0.000591189
0.00100475
0.000626519
0.000353906
2.02618e-05
3.94012e-05
0.000883027
-0.000262592
6.57343e-05
0.00104131
-4.87125e-05
0.000163658
0.000665808
0.000502033
8.75234e-05
-0.000121822
0.000557168
0.00101259
0.000850041
0.000734558
0.000542605
2.28552e-05
-0.000563849
-0.000452318
-0.000106551
9.53898e-06
7.89295e-05
0.000197078
0.000449522
0.000233161
-0.000339373
-0.000156588
4.78913e-05
-0.000503944
-0.000205034
2.38078e-05
0.000247895
0.00071393
-8.92083e-05
-0.000266826
0.000542515
0.000860604
0.000544648
0.000330867
0.000120873
-5.8581e-06
0.000769878
-4.0735e-05
1.43154e-05
0.000845058
-5.1564e-06
0.000284765
0.000568784
0.000405507
0.000234713
6.97113e-06
0.000444854
0.000759966
0.000749033
0.000606263
0.000413073
0.000193752
-0.000321118
-0.000349194
1.96422e-05
6.7453e-05
3.35376e-05
0.000134822
0.000421601
0.00025339
-0.000338464
-0.00016277
0.000120856
-0.000270167
-0.000143848
3.09478e-05
0.000103313
0.000646759
0.000110921
-0.000258504
0.000475704
0.000751158
0.000475394
0.000299309
0.000211462
-1.30826e-05
0.000626926
0.000188214
-1.378e-05
0.000688826
1.63173e-05
0.000357322
0.000548192
0.000312164
0.00031445
8.75142e-05
0.000402867
0.000567107
0.000650546
0.000521132
0.000276323
0.000315704
-0.000150473
-0.000298345
0.000103381
0.000143785
-1.22322e-05
3.59288e-05
0.000381386
0.000293053
-0.000317711
-0.000150204
0.000151596
-0.000113224
-8.80384e-05
5.15802e-05
1.62217e-05
0.000525817
0.000290135
-0.000218461
0.000385854
0.000661658
0.000417243
0.000273027
0.000279151
1.41943e-05
0.00046547
0.000341321
-1.54714e-05
0.000566988
4.87203e-05
0.00035098
0.000576935
0.000234839
0.000343224
0.000140648
0.0004477
0.000456262
0.000527722
0.000489832
0.000160496
0.00040439
2.60305e-05
-0.000284089
0.00014151
0.000202594
-1.73227e-06
-1.51871e-05
0.000312053
0.000326233
-0.000275037
-0.000125105
0.000159794
-3.45087e-05
-1.09699e-05
8.58872e-05
-2.74885e-05
0.000389483
0.000414734
-0.000143026
0.00026396
0.000586088
0.000372293
0.000255564
0.000317235
5.03829e-05
0.000301538
0.000458406
1.7626e-05
0.000445452
0.000112033
0.000260035
0.000622354
0.00021343
0.000326718
0.000181773
0.00044279
0.00042289
0.000406343
0.000484046
8.08911e-05
0.000410536
0.000191639
-0.000273046
0.000165718
0.000236913
2.06772e-05
-2.32891e-05
0.000228103
0.000319325
-0.000177249
-9.70524e-05
0.000181807
-2.2235e-05
4.94122e-05
0.000155005
-4.31089e-05
0.000267785
0.000471131
-4.23868e-05
0.000160876
0.00051731
0.000321968
0.000257929
0.000350636
4.53092e-05
0.000195682
0.000513441
6.40347e-05
0.000368485
0.000221508
0.000125427
0.000637306
0.000279091
0.000261005
0.00021367
0.00040301
0.000441196
0.000268164
0.000453513
8.11771e-05
0.000350213
0.000333731
-0.000244681
0.00016067
0.000255978
1.823e-05
3.30031e-05
0.000184943
0.00024698
-5.54551e-05
-6.40471e-05
0.000206667
-1.6379e-05
6.40346e-05
0.000247001
-4.7286e-05
0.000146844
0.00049375
3.14799e-05
0.000104017
0.000469941
0.000231856
0.000279425
0.000394531
4.4845e-05
0.000192625
0.000506456
6.59027e-05
0.000353155
0.000340355
-1.83292e-05
0.000591284
0.00043287
0.000180239
0.000255114
0.000350176
0.00043887
0.000250272
0.000405545
0.000132762
0.000251129
0.000422835
-0.000175449
0.000152779
0.000297897
-7.00546e-06
0.00011337
0.000201818
0.000150901
4.52567e-05
-7.32057e-06
0.000209015
-5.35095e-06
4.98434e-05
0.000330505
-5.09752e-05
5.61506e-05
0.000519898
4.22871e-05
8.19697e-05
0.000481378
9.75069e-05
0.000290874
0.00046463
-2.29975e-05
0.000269621
0.000487549
-4.41135e-05
0.000403462
0.00048536
-0.000136772
0.000493788
0.000546182
0.000124989
0.00027067
0.000325224
0.000415955
0.000266365
0.000341941
0.000209578
0.000149074
0.000438382
-2.03885e-05
7.42334e-05
0.000330725
-2.16287e-06
0.000141153
0.000194627
0.000140229
8.47232e-05
4.45299e-05
0.000213088
8.36718e-06
4.61914e-05
0.000395703
-6.6221e-05
1.57422e-05
0.000565844
-6.18344e-06
5.58292e-05
0.000559189
-1.15095e-05
0.000246751
0.000532708
-7.94369e-05
0.000338995
0.000491363
-0.000157782
0.000435624
0.000600172
-0.000158395
0.000368648
0.00059631
0.000152848
0.000254949
0.000319767
0.000404193
0.000257005
0.000272223
0.000328875
8.1792e-05
0.000348134
0.00020587
-8.63418e-06
0.000272215
0.000121341
0.000105845
8.257e-05
0.000213571
0.000122276
4.98268e-05
0.000231457
2.41547e-05
7.90693e-05
0.000410096
-7.98514e-05
2.08582e-05
0.000564888
-3.92568e-05
4.30158e-05
0.000560461
-6.86515e-06
0.000170235
0.000464437
-2.4944e-06
0.000357626
0.000396045
-0.000100182
0.000389922
0.000556489
1.61117e-05
0.000238708
0.00050128
0.000297602
0.000217923
0.000280432
0.000454892
0.00020902
0.000188265
0.000477075
8.03949e-05
0.000173608
0.000424243
1.7995e-06
0.000108201
0.000321175
0.000110895
0.0053111
0.00384443
-0.00353625
-0.00177356
0.00268582
-0.00296864
-0.000165085
0.00426362
0.000994032
-0.00338855
-0.00252503
-0.000417296
0.00151415
0.00379843
0.00184832
-0.000840606
0.000744666
0.00384359
5.81664e-05
-0.00302505
0.00249914
-0.000275034
-0.00354318
0.00119307
0.00495416
0.001271
-0.00431271
-0.00228959
0.00555016
0.00670269
0.00320973
0.00423102
0.000844034
-0.00213955
-0.00163494
-0.00374467
-0.00127581
0.00133447
0.00047335
0.00133934
0.00530962
0.00385628
-0.00355878
-0.00180588
0.00271037
-0.00299401
-0.00017495
0.00429068
0.000998275
-0.00341832
-0.00254106
-0.000414265
0.0015046
0.00379922
0.00184632
-0.000875706
0.000717381
0.00383728
4.49938e-05
-0.0030466
0.002517
-0.000284118
-0.00355109
0.00119542
0.00496597
0.00124557
-0.00433689
-0.00230345
0.00555043
0.00671576
0.00319331
0.00421003
0.000830008
-0.00216633
-0.00165436
-0.00376989
-0.00129241
0.00133221
0.000448992
0.0013221
0.0053058
0.00387204
-0.00360659
-0.00183348
0.00277735
-0.00301463
-0.000191136
0.00432475
0.000972633
-0.00347959
-0.00254694
-0.000408262
0.00147818
0.00379055
0.0018392
-0.00086559
0.00071876
0.0038552
1.76567e-05
-0.00308978
0.0025581
-0.000318988
-0.00356985
0.00121049
0.00498368
0.00122332
-0.00435778
-0.0022948
0.00556063
0.00672854
0.00315958
0.00417094
0.000799622
-0.00219558
-0.00165902
-0.00380681
-0.00131787
0.00137009
0.000424251
0.00126487
0.00518138
0.00380867
-0.00366993
-0.0017658
0.00291087
-0.00311854
-0.000250214
0.0043402
0.000936864
-0.00361294
-0.00256714
-0.000424749
0.00145562
0.00379794
0.00177904
-0.000922467
0.000770975
0.00395085
1.63299e-05
-0.00318536
0.00252373
-0.000406409
-0.00357947
0.0012401
0.00500099
0.00121637
-0.00434259
-0.00226998
0.00558127
0.00670959
0.00313353
0.00416419
0.000723839
-0.00228478
-0.00164979
-0.00389478
-0.00139072
0.00146742
0.000496304
0.00113662
0.00492017
0.00357789
-0.00381232
-0.00140588
0.00319709
-0.00330414
-0.000523149
0.00426785
0.00094184
-0.00357089
-0.00259205
-0.000577566
0.00150052
0.00388332
0.00172836
-0.00116509
0.000736098
0.00416892
0.000152707
-0.00319307
0.00237849
-0.000598418
-0.00358059
0.00129468
0.00499507
0.00131431
-0.0042316
-0.00220318
0.00558597
0.00664997
0.00310117
0.00426457
0.000682155
-0.00255273
-0.00179854
-0.00407357
-0.00154987
0.00156911
0.000725275
0.00104777
0.00464331
0.0032436
-0.00403153
-0.00122151
0.0038325
-0.00329405
-0.0011551
0.00396502
0.000921269
-0.00323973
-0.00247076
-0.000853526
0.00133484
0.00402383
0.00187451
-0.00157211
0.000421446
0.00402229
0.000619442
-0.0029334
0.00225148
-0.000863676
-0.00367905
0.00135273
0.00506443
0.00150554
-0.00415134
-0.00204813
0.00552918
0.00659169
0.00304474
0.00442157
0.00101058
-0.00275386
-0.00224421
-0.00440694
-0.0018105
0.00153724
0.000994023
0.00111027
0.00441244
0.0029195
-0.00405483
-0.00115974
0.00452934
-0.00310116
-0.00180424
0.00346603
0.000808181
-0.00312479
-0.0022275
-0.00103442
0.0009199
0.00402906
0.00226799
-0.00164998
-0.000194817
0.00346787
0.000464367
-0.00245598
0.00219473
-0.000873421
-0.00390798
0.001271
0.00522635
0.00173184
-0.0039305
-0.00191841
0.00531345
0.00650944
0.00295114
0.00450801
0.00152149
-0.00247847
-0.00257857
-0.00482479
-0.0021626
0.00136425
0.000958981
0.00123223
0.00425355
0.00257953
-0.00406013
-0.00114386
0.00511151
-0.00316937
-0.00244829
0.00302158
0.000684119
-0.00308929
-0.00211892
-0.00109349
0.000405305
0.00384753
0.0022445
-0.00133531
-0.00087335
0.00285768
9.71342e-05
-0.00206356
0.00209787
-0.000699316
-0.00413228
0.00103591
0.0054664
0.00189788
-0.00371852
-0.00193963
0.00493066
0.00635259
0.00283466
0.00442338
0.00190642
-0.00183969
-0.00229653
-0.00499036
-0.00251741
0.00111467
0.000614488
0.00127591
0.00403871
0.00220233
-0.0041496
-0.00112282
0.00549773
-0.00315299
-0.00288671
0.00253602
0.000512032
-0.00304879
-0.00222805
-0.000982092
-2.62809e-05
0.00351626
0.00198138
-0.000920421
-0.00123963
0.00228882
-0.00011
-0.00185804
0.00176815
-0.000622305
-0.00427114
0.000754361
0.00575993
0.00238433
-0.00362393
-0.00233165
0.00428274
0.00604825
0.00270152
0.00436182
0.00210994
-0.00142663
-0.00155411
-0.00487085
-0.00272905
0.000887777
0.000171431
0.0010926
0.00373254
0.00189104
-0.00437792
-0.00118688
0.00508396
-0.00305914
-0.00275987
0.00187634
-0.000108019
-0.00306534
-0.00194531
-0.000613755
-0.000152975
0.00318626
0.0021374
-0.000800917
-0.00128039
0.00145196
-0.000162046
-0.0018959
0.00110518
-0.000821281
-0.00419838
0.000582002
0.00603102
0.00325463
-0.00331964
-0.00264439
0.00357399
0.0056617
0.00249651
0.00413229
0.00214182
-0.00110076
-0.000740434
-0.00445208
-0.00278365
0.000824277
-0.000126983
0.0008545
0.00336123
0.00167728
-0.00446075
-0.00144374
0.00383406
-0.00296844
-0.00218876
0.0016982
-0.000848414
-0.00362468
-0.00259888
-0.000427344
-0.000134706
0.00288729
0.0027725
-0.000362586
-0.00104591
0.000486183
-0.000417596
-0.00162666
0.000782014
-0.00111124
-0.00423677
0.000292816
0.0060912
0.00415545
-0.00326268
-0.00301344
0.00303845
0.00529506
0.00247973
0.00385085
0.0019046
-0.00135361
-0.000407085
-0.00394754
-0.00287608
0.000546295
-0.000426841
0.000547306
0.00303699
0.00151754
-0.00398993
-0.00161778
0.00250439
-0.0026192
-0.00160524
0.0018461
-0.00113552
-0.00348391
-0.00274783
-0.000516989
-0.000149792
0.00249901
0.00293451
0.000154457
-0.000709678
-0.000198693
-0.000878342
-0.00091597
0.000882344
-0.000986881
-0.00422217
-0.00053605
0.00559776
0.00428081
-0.00319759
-0.00357284
0.00260221
0.00480756
0.00238405
0.0034918
0.00153105
-0.00159108
-0.000325515
-0.00364126
-0.00281263
0.000229413
-0.000791667
0.000244037
0.00292915
0.00158568
-0.0030161
-0.00150655
0.00164005
-0.00189789
-0.00133702
0.0014868
-0.00129958
-0.00292889
-0.00243645
-0.000513305
1.10749e-05
0.00241719
0.002605
0.00043652
-0.000706413
-0.000463527
-0.00109693
-0.000368234
0.000841821
-0.00056812
-0.00388746
-0.000966103
0.00477359
0.00329328
-0.00296568
-0.00310738
0.00238096
0.00425803
0.00225985
0.00341824
0.00106428
-0.00200517
-0.000318814
-0.00304811
-0.00243469
0.00030167
-0.00107088
-0.000164816
0.00275359
0.00163976
-0.00217957
-0.00129398
0.00103413
-0.00120666
-0.00123371
0.00110722
-0.000870491
-0.00215272
-0.00197731
-0.000511324
0.000171357
0.00228933
0.00247826
0.000605737
-0.000837828
-0.000705889
-0.000825853
-0.000527389
0.000291715
-0.000179328
-0.00326185
-0.00100881
0.0037612
0.00250175
-0.00261941
-0.00262099
0.00187799
0.00364826
0.00208657
0.00346853
0.00135155
-0.00234504
-0.000348339
-0.00262023
-0.00224706
0.000323127
-0.00111831
-0.000475015
0.0024581
0.00168567
-0.00159378
-0.00110005
0.000517994
-0.00087252
-0.000849498
0.000966546
-5.84215e-05
-0.00140525
-0.00154575
-0.000539424
0.000181209
0.00204154
0.00110951
0.000568126
-0.000988677
-0.00100284
-0.000626848
-0.000761346
-6.85266e-05
0.000496797
-0.00250805
-0.00120994
0.00296549
0.00222728
-0.00196216
-0.00197627
0.00126074
0.00301271
0.00194064
0.00329596
0.00152795
-0.00251381
-0.000322682
-0.00171932
-0.00167827
0.000391827
-0.00104645
-0.000634693
0.002157
0.00162202
-0.00120339
-0.000947516
0.000146119
-0.000598532
-0.000569303
0.000813458
0.000366221
-0.000881692
-0.00122847
-0.000485428
0.000168734
0.00178449
0.00111223
0.00066852
-0.000758144
-0.000951643
-0.000336923
-0.00100216
7.48848e-05
0.00113397
-0.001841
-0.00123793
0.00249062
0.00211506
-0.00126658
-0.00141079
0.000929731
0.00249716
0.00190566
0.00300228
0.00150702
-0.00233994
-0.000137086
-0.000909806
-0.00122131
0.000309075
-0.000979128
-0.000758807
0.00184754
0.00146154
-0.000863646
-0.000742917
-0.000189777
-0.000522641
-0.000311449
0.000686581
0.000517786
-0.000533173
-0.00105388
-0.000402626
0.000182886
0.00166459
0.000986405
0.000792111
-0.000346923
-0.000627968
6.25826e-05
-0.00102849
0.000312588
0.00137038
-0.00143106
-0.00113836
0.00203305
0.00194765
-0.000823444
-0.00118957
0.00069317
0.00216129
0.00193256
0.00259091
0.00141236
-0.00195152
-0.00025212
-0.000311022
-0.000960953
0.000327692
-0.00086051
-0.000792171
0.00153866
0.00124904
-0.000605214
-0.000580143
-0.000392006
-0.000363032
-0.000102978
0.0005065
0.000546261
-0.000306786
-0.000957683
-0.000315776
0.000124171
0.00153211
0.000936731
0.000996087
-6.81921e-05
-0.000435636
0.000241856
-0.00114429
0.000430708
0.00126865
-0.00122953
-0.00102782
0.00160689
0.00167008
-0.000643165
-0.00094226
0.000628507
0.00180319
0.00184535
0.00212128
0.00126887
-0.00155126
-0.00034357
-4.69767e-05
-0.000776256
0.000261991
-0.000854087
-0.000757167
0.00124174
0.00104358
-0.000456016
-0.000460181
-0.000447991
-0.000260739
9.68211e-06
0.000355619
0.000469933
-9.79222e-05
-0.000844689
-0.000190199
0.000142002
0.00137973
0.000893291
0.00105124
7.4611e-05
-0.000315814
0.000342563
-0.00105462
0.000447342
0.00118103
-0.00107844
-0.000778514
0.00126488
0.00148731
-0.00046077
-0.000708907
0.000569837
0.00142574
0.00165895
0.00170469
0.0011495
-0.0011395
-0.000460411
5.35397e-05
-0.000601194
0.000217883
-0.000547934
-0.000683907
0.00096462
0.000879234
-0.000366363
-0.000407897
-0.000434116
-0.000314317
0.000134737
0.000252588
0.000389217
8.59259e-05
-0.000693404
-7.26638e-05
0.000182232
0.00119691
0.000835319
0.00104146
0.000200474
-0.000216236
0.000404193
-0.000945286
0.000369023
0.00109597
-0.00097624
-0.000550178
0.000939783
0.00128842
-0.000277862
-0.000490774
0.000522182
0.00111934
0.00147043
0.00139483
0.00098555
-0.000772921
-0.000561539
0.000122057
-0.000440706
0.000129667
-0.000318683
-0.000618071
0.000749369
0.000748577
-0.000346316
-0.000383989
-0.000350109
-0.000333125
0.000248352
0.000165452
0.000319082
0.000263141
-0.000565136
-4.58224e-05
0.000256841
0.00102991
0.000785817
0.000749735
0.000275911
-0.000158195
0.00042579
-0.000813581
0.000271631
0.00101931
-0.000935146
-0.000362612
0.000697946
0.00109463
-8.0885e-05
-0.000304621
0.000555148
0.000913134
0.00127806
0.00115694
0.000839254
-0.000427654
-0.000641651
0.000171575
-0.000282525
7.64493e-05
-0.000157601
-0.000580486
0.000597486
0.000625146
-0.000366383
-0.000349036
-0.00022178
-0.000325652
0.000228187
0.000105949
0.000226752
0.00040134
-0.000436335
-4.07795e-05
0.000351945
0.000863921
0.000706226
0.00059567
0.000361585
-5.36689e-05
0.000436658
-0.000629485
0.000206514
0.000940902
-0.000656174
-0.000179096
0.000510353
0.000878102
9.74103e-05
-0.000147568
0.000548762
0.000715383
0.0011288
0.00097336
0.00068608
-0.000146964
-0.000617604
0.000131139
-0.000106337
3.20292e-05
-8.52059e-05
-0.000510286
0.000496339
0.000543123
-0.000374769
-0.000199133
-8.25209e-05
-0.000239518
0.000175735
6.96843e-05
0.000121334
0.000523642
-0.000283132
-9.8751e-05
0.000415105
0.000737438
0.000623507
0.000483608
0.000416347
4.52682e-05
0.0004538
-0.000419057
6.93317e-05
0.000850489
-0.000397728
-2.76384e-05
0.000387554
0.000680997
0.00024173
-3.27342e-05
0.000531933
0.000583474
0.000948744
0.000829179
0.000551143
8.70468e-05
-0.000537002
4.68165e-05
5.70503e-05
1.8104e-05
-5.26471e-05
-0.000418844
0.00043586
0.000472095
-0.000377073
-0.000137743
1.9964e-05
-0.000218033
0.000139834
6.69926e-05
3.66671e-05
0.000581326
-0.000118308
-0.000164811
0.000440784
0.000653301
0.000546549
0.000386573
0.000435583
0.000118838
0.000442625
-0.000194135
1.32749e-05
0.000744272
-0.000222776
0.0001055
0.000337132
0.000491001
0.000327678
4.84864e-05
0.000565771
0.000482065
0.000780771
0.000717336
0.000415585
0.000267128
-0.00040663
-4.40829e-05
0.000154831
3.36797e-05
-4.44e-05
-0.000307282
0.000380952
0.000420654
-0.000347791
-8.10593e-05
8.02111e-05
-0.000173751
0.000102586
7.71576e-05
-2.28755e-05
0.000573998
5.36809e-05
-0.00021606
0.000404869
0.000601179
0.00047087
0.000313973
0.000428824
0.000169156
0.000405606
2.54748e-05
-1.4621e-06
0.000618351
-0.000104065
0.000201198
0.000350155
0.000346543
0.000374634
0.000102967
0.000617636
0.000420417
0.000638451
0.000647733
0.000278149
0.000408366
-0.000252449
-0.000131706
0.00022414
7.52675e-05
1.55705e-06
-0.000218756
0.000318879
0.000391496
-0.000319669
-5.53384e-05
0.000109761
-0.000115366
8.68225e-05
8.82257e-05
-5.95305e-05
0.000485221
0.000203388
-0.00021368
0.000322442
0.000561718
0.000426305
0.000273674
0.000415056
0.000197865
0.00033836
0.000216414
1.46253e-05
0.000492808
-1.02054e-05
0.000229886
0.000411745
0.000254307
0.00036788
0.000136204
0.000595843
0.000392196
0.000489543
0.000617007
0.000160286
0.000450162
-5.62688e-05
-0.000194803
0.000258657
0.000117963
4.80167e-05
-0.00016252
0.000236472
0.00038198
-0.000277858
-3.51576e-05
0.000141156
-8.87745e-05
0.000111986
0.000103223
-6.75951e-05
0.000372692
0.000310148
-0.000146148
0.000215533
0.000515085
0.000391843
0.000256189
0.000405098
0.000223968
0.000256012
0.00036012
5.65263e-05
0.000405494
8.15571e-05
0.000182695
0.000484411
0.000239607
0.000312655
0.000163902
0.000555751
0.000398084
0.000349676
0.000595551
8.85038e-05
0.000438129
0.000135606
-0.000225739
0.000275284
0.000152499
7.26091e-05
-9.51584e-05
0.000146954
0.000365195
-0.00021371
-3.77873e-05
0.000197813
-0.000101938
0.000138086
0.000162377
-7.66963e-05
0.000268391
0.000372878
-4.623e-05
0.000145494
0.000456025
0.000350736
0.00026325
0.000363296
0.000218756
0.000189616
0.000445294
0.000100313
0.000330483
0.000259461
8.69039e-05
0.000519551
0.00032127
0.000219413
0.000186529
0.000490142
0.000419744
0.000242228
0.000551478
8.684e-05
0.00036635
0.0002957
-0.000227505
0.000277202
0.000180565
5.89865e-05
1.94716e-05
9.67696e-05
0.000283908
-8.38632e-05
-5.6995e-05
0.00026532
-9.72233e-05
0.000101676
0.000267804
-8.59133e-05
0.000175175
0.000419835
1.81505e-05
0.000126919
0.000413005
0.000254218
0.000293195
0.000377873
0.000127046
0.000190587
0.000475406
9.62105e-05
0.000306996
0.000390719
-3.16121e-05
0.000478383
0.000453543
0.000137838
0.000202186
0.000434146
0.000415709
0.0002187
0.000489504
0.000127405
0.000269694
0.000409798
-0.00019368
0.000245641
0.000238812
9.47064e-06
0.000149422
0.000125616
0.000169169
6.82855e-05
-5.80569e-05
0.000275805
-3.80512e-05
2.16446e-05
0.000377901
-7.33341e-05
8.49252e-05
0.00048725
1.80766e-05
0.000120573
0.000444045
9.74937e-05
0.000312487
0.00044806
1.72393e-05
0.000262878
0.000485188
-1.45374e-05
0.000350794
0.000534532
-0.000126865
0.000382593
0.000611743
0.000110516
0.000202164
0.000406499
0.000389002
0.000234369
0.000414237
0.000166361
0.00016841
0.000464735
-8.66198e-05
0.000150174
0.00030333
-3.27451e-05
0.000210825