/*--------------------------------*- C++ -*----------------------------------*\
  =========                 |
  \\      /  F ield         | OpenFOAM: The Open Source CFD Toolbox
   \\    /   O peration     | Website:  https://openfoam.org
    \\  /    A nd           | Version:  10
     \\/     M anipulation  |
\*---------------------------------------------------------------------------*/
FoamFile
{
    format      ascii;
    class       surfaceScalarField;
    location    "7";
    object      phi;
}
// * * * * * * * * * * * * * * * * * * * * * * * * * * * * * * * * * * * * * //

dimensions      [0 3 -1 0 0 0 0];

internalField   nonuniform List<scalar> 
74080
(
1.39126e-05
-3.32281e-06
4.20586e-07
1.5033e-05
-1.19682e-06
4.29517e-07
1.45656e-05
6.37966e-06
-3.22112e-06
1.54328e-05
1.54396e-06
-2.33967e-06
1.44404e-05
3.35737e-06
-2.70467e-06
1.26996e-05
6.71676e-06
-5.71284e-06
1.29715e-05
7.33327e-07
-2.3179e-06
1.53589e-05
-5.24301e-06
4.63988e-06
1.69352e-05
-1.91249e-06
2.19886e-06
1.53287e-05
5.76115e-06
-4.27949e-06
1.34942e-05
4.69316e-06
-5.60736e-06
1.32829e-05
-1.17971e-06
-1.5984e-06
1.41574e-05
-3.9725e-06
8.38565e-07
1.391e-05
1.2573e-07
-2.63593e-08
1.27806e-05
3.20144e-06
-5.3942e-08
1.25018e-05
2.24703e-06
-2.14131e-06
1.28533e-05
3.30132e-07
-1.81184e-06
1.4341e-05
2.13575e-07
3.15606e-07
1.35806e-05
5.93833e-06
6.42177e-07
1.24315e-05
4.81189e-06
-1.80436e-06
1.47964e-05
-3.73439e-06
-3.82133e-06
1.41735e-05
3.68916e-07
-4.55192e-06
1.12644e-05
2.75469e-06
-2.98507e-06
1.28064e-05
-5.22067e-06
8.74914e-07
1.28449e-05
3.04833e-06
6.80673e-07
9.78693e-06
1.08293e-05
1.08294e-06
8.61258e-06
3.33943e-06
4.18385e-07
1.10266e-05
-9.26434e-06
-6.94215e-07
1.3835e-05
-6.70958e-06
-2.13799e-06
1.31515e-05
5.26127e-06
-3.25281e-06
1.35381e-05
1.61193e-06
1.51897e-07
1.54163e-05
-2.74893e-06
8.2176e-07
1.44015e-05
2.9471e-06
-1.88703e-06
1.24258e-05
9.24141e-06
-3.43744e-06
1.22212e-05
6.94096e-06
-3.92398e-06
1.26427e-05
1.02195e-06
-2.30768e-06
1.35235e-05
-3.60152e-07
-3.68568e-07
1.55892e-05
-2.41371e-06
-9.44114e-07
1.52269e-05
2.80324e-06
-4.13634e-06
7.28639e-06
-5.16315e-06
4.67377e-05
-7.47119e-06
-7.72313e-07
4.60939e-05
1.82122e-06
-1.49784e-07
4.67889e-05
2.12421e-05
-8.03141e-06
5.10693e-05
3.5518e-06
-4.74785e-06
4.99861e-05
9.73722e-06
-7.74656e-06
4.64549e-05
2.01216e-05
-1.54639e-05
4.60752e-05
3.36848e-06
-5.94426e-06
4.96582e-05
-1.32e-05
1.03709e-05
5.24844e-05
-1.96085e-06
2.26678e-06
5.184e-05
1.71254e-05
-1.25663e-05
5.01014e-05
1.10489e-05
-1.46919e-05
4.8067e-05
-3.78449e-06
-3.89765e-06
4.78286e-05
-1.18224e-05
4.94322e-06
4.60124e-05
9.76874e-07
8.87251e-07
4.26023e-05
1.03678e-05
-2.86279e-06
4.06797e-05
9.46189e-06
-6.72462e-06
4.14934e-05
2.3282e-06
-1.02584e-06
4.57772e-05
1.94166e-06
3.95623e-06
4.6569e-05
1.5424e-05
1.87463e-06
4.62769e-05
8.91184e-06
-3.78279e-06
4.86045e-05
-7.0268e-06
-1.0306e-05
4.56732e-05
7.52406e-06
-1.30952e-05
4.14598e-05
8.63662e-06
-9.36605e-06
4.24867e-05
-1.33063e-05
6.77561e-07
3.90636e-05
1.27523e-05
1.54341e-06
3.37629e-05
2.80762e-05
3.91456e-06
3.4288e-05
2.96662e-06
2.7395e-06
3.8734e-05
-2.68262e-05
3.26999e-08
4.28798e-05
-1.32547e-05
-3.39735e-06
4.28603e-05
1.8701e-05
-7.89867e-06
4.54107e-05
3.77323e-06
-7.17946e-08
4.86102e-05
-6.88368e-06
1.68861e-06
4.53126e-05
1.23291e-05
-5.26611e-06
4.30604e-05
2.80893e-05
-9.42159e-06
4.37705e-05
2.08976e-05
-1.25877e-05
4.30429e-05
6.3249e-06
-7.97819e-06
4.45186e-05
5.13441e-08
-8.2069e-07
4.9645e-05
-5.47e-06
-1.16462e-06
5.10719e-05
8.88458e-06
-8.76501e-06
2.11001e-05
-1.32135e-05
8.83102e-05
-7.35846e-06
-6.4241e-06
8.21865e-05
7.90861e-06
8.06957e-07
8.2659e-05
4.3855e-05
-1.07828e-05
9.21831e-05
6.75462e-06
-5.41986e-06
9.65111e-05
1.28209e-05
-9.07277e-06
9.23706e-05
3.76387e-05
-2.55164e-05
8.74783e-05
1.23505e-05
-1.5321e-05
8.86425e-05
-1.96285e-05
1.28534e-05
9.33776e-05
-3.61334e-06
7.17502e-06
0.000100005
2.65123e-05
-1.683e-05
0.000102331
1.71526e-05
-2.6888e-05
9.51731e-05
-3.09519e-07
-1.4228e-05
9.03522e-05
-2.00389e-05
8.40103e-06
8.68281e-05
-1.996e-06
6.55541e-06
8.10271e-05
1.80317e-05
-3.68202e-06
7.48148e-05
2.31836e-05
-1.22819e-05
7.28614e-05
8.17894e-06
-1.39147e-07
8.0297e-05
2.4038e-06
1.1586e-05
8.65808e-05
2.4384e-05
5.43504e-06
8.88089e-05
8.33507e-06
-1.18242e-06
9.00516e-05
-1.25025e-05
-1.06021e-05
8.74993e-05
1.84616e-05
-1.86316e-05
8.42225e-05
1.9336e-05
-1.89388e-05
8.16054e-05
-1.96375e-05
-3.6352e-06
7.23308e-05
3.07727e-05
-2.72266e-06
6.52198e-05
5.08427e-05
2.84605e-06
6.72088e-05
-1.69619e-06
6.69856e-06
7.07251e-05
-5.28629e-05
6.41701e-06
7.55214e-05
-2.2084e-05
9.28842e-07
7.74943e-05
3.77987e-05
-1.0174e-05
8.12065e-05
1.1716e-05
-2.55978e-06
8.60877e-05
-1.34089e-05
4.89502e-06
8.27422e-05
1.95655e-05
-3.36046e-06
8.25356e-05
4.71735e-05
-1.07138e-05
8.49125e-05
3.91755e-05
-2.08399e-05
8.01763e-05
2.20063e-05
-1.81025e-05
7.85413e-05
7.37431e-06
-4.46264e-06
8.56784e-05
-8.4943e-06
9.90071e-07
9.37758e-05
1.01589e-05
-6.41607e-06
3.64543e-05
-2.03875e-05
0.000139866
-5.09078e-06
-1.34888e-05
0.000125743
1.42741e-05
2.30437e-06
0.000121017
7.3893e-05
-1.1964e-05
0.000132353
1.78117e-05
-5.16498e-06
0.000149323
5.79421e-06
-6.1475e-07
0.000151797
5.18626e-05
-3.22854e-05
0.000140229
3.02134e-05
-3.21074e-05
0.000132894
-1.86861e-05
8.19973e-06
0.000135736
-6.48766e-06
1.61898e-05
0.00015459
2.67215e-05
-1.12525e-05
0.000170679
1.37043e-05
-3.35272e-05
0.000159208
1.1421e-05
-3.42332e-05
0.00014402
-1.73423e-05
5.93531e-07
0.000137218
-9.47935e-06
1.71397e-05
0.000130873
1.69728e-05
3.80118e-06
0.000118376
4.22298e-05
-1.92257e-05
0.000106624
2.53842e-05
-6.79097e-06
0.000113542
-1.63051e-07
2.28722e-05
0.000128289
2.85109e-05
1.66688e-05
0.000135783
3.91012e-06
4.55749e-06
0.000136462
-2.46752e-05
-5.09716e-06
0.00013839
2.45471e-05
-1.70265e-05
0.000141319
3.16802e-05
-2.78694e-05
0.000134823
-2.23523e-05
-9.47544e-06
0.000118993
5.93731e-05
-1.20186e-05
0.000111366
8.80132e-05
-1.32739e-05
0.00011312
-4.74764e-06
2.95318e-06
0.000108601
-8.51268e-05
1.31421e-05
0.000110324
-4.34916e-05
1.50666e-05
0.000115548
5.49691e-05
-4.52517e-06
0.000118413
3.06208e-05
-5.06859e-06
0.000124629
-1.78992e-05
7.42047e-06
0.000123843
1.77814e-05
3.4568e-06
0.000128367
5.27947e-05
-1.53298e-06
0.000135446
5.00411e-05
-1.96698e-05
0.000125559
4.68906e-05
-2.87935e-05
0.000116033
2.7527e-05
-1.43522e-05
0.000118468
-2.52911e-06
-9.09705e-07
0.000133756
4.68295e-06
3.76983e-06
4.08427e-05
-1.8007e-05
0.000193378
-1.17308e-05
-1.31612e-05
0.00017679
1.43575e-05
4.39722e-06
0.000167023
0.000102619
-1.2134e-05
0.000170171
4.6903e-05
-1.09159e-05
0.000196325
-2.10415e-06
1.09649e-05
0.00021719
4.81479e-05
-2.66365e-05
0.000205742
5.07166e-05
-4.9981e-05
0.000186473
-5.91119e-06
-7.74675e-06
0.000176544
-2.47626e-06
2.06275e-05
0.000198318
2.52074e-05
2.44027e-06
0.000239209
-1.33678e-05
-1.62527e-05
0.00023892
1.12387e-05
-4.61954e-05
0.000211226
1.5287e-06
-2.27885e-05
0.000196212
-8.32242e-06
2.15879e-05
0.000192513
2.45386e-06
2.22918e-05
0.000177558
5.3579e-05
-1.83268e-05
0.00014931
5.64744e-05
-2.54841e-05
0.000144152
3.68346e-06
2.38825e-05
0.000164815
2.30052e-05
3.65376e-05
0.00018181
-8.88584e-06
1.8329e-05
0.000182591
-4.28282e-05
1.74081e-06
0.000189924
2.07754e-05
-9.57204e-06
0.000206393
3.83235e-05
-3.2708e-05
0.000200623
-2.61961e-05
-1.22518e-05
0.000183901
8.67068e-05
-1.11746e-05
0.000187085
0.000134244
-3.79761e-05
0.000193997
9.22625e-06
-2.31339e-05
0.000166528
-0.000103194
7.33236e-06
0.000148369
-7.41757e-05
2.6942e-05
0.000155527
5.77381e-05
9.48219e-06
0.000156219
5.58693e-05
-8.57604e-07
0.000161746
-1.4688e-05
1.04748e-05
0.000164374
1.21935e-05
8.37803e-06
0.000175677
4.45914e-05
7.99562e-06
0.000191533
3.7753e-05
-5.52074e-06
0.000177874
6.93017e-05
-3.06913e-05
0.000160292
5.24024e-05
-2.37416e-05
0.000150193
1.84721e-05
-1.00918e-05
0.00015922
1.01235e-05
1.07976e-05
2.86549e-05
1.15479e-06
0.00023239
-2.76683e-05
-3.25596e-06
0.000224153
3.91105e-06
1.03619e-05
0.000223038
0.000109362
-6.64531e-06
0.000219372
8.39665e-05
-2.47756e-05
0.000237203
8.75627e-06
1.2115e-05
0.000270891
2.85434e-05
-9.6462e-06
0.000271476
6.02248e-05
-5.6687e-05
0.000250236
8.90527e-06
-2.46573e-05
0.000225204
1.10793e-05
1.37777e-05
0.000224367
4.41528e-05
9.41702e-06
0.000277249
-4.92446e-05
1.96955e-05
0.000311165
-2.95537e-05
-2.61287e-05
0.000287452
1.05042e-05
-4.35834e-05
0.000261665
7.78757e-06
9.34982e-06
0.000259965
-1.15938e-05
4.47414e-05
0.000253679
4.27611e-05
4.21159e-07
0.000214773
8.11842e-05
-4.04273e-05
0.000188041
2.20713e-05
3.15103e-06
0.000202563
2.00168e-05
4.08136e-05
0.000226961
-3.44852e-05
3.71888e-05
0.000228451
-6.97879e-05
1.46801e-05
0.000236257
1.07092e-05
-9.03161e-07
0.00026839
3.88569e-05
-3.75211e-05
0.000266061
-3.00354e-05
-2.01956e-05
0.00025155
9.77504e-05
7.89584e-06
0.000283767
0.000156525
-4.19386e-05
0.000323225
1.61287e-05
-5.27869e-05
0.000270617
-9.30297e-05
-1.30351e-05
0.000201729
-9.07879e-05
2.96461e-05
0.000198291
4.13095e-05
2.23369e-05
0.000198391
7.39632e-05
6.97384e-06
0.000199628
-7.1849e-06
1.85417e-05
0.000201676
1.38573e-05
1.2564e-05
0.000220512
3.63498e-05
1.20139e-05
0.000249675
5.53726e-06
7.06227e-06
0.000234009
8.44285e-05
-2.66256e-05
0.000209285
7.22828e-05
-2.62897e-05
0.000188822
3.84135e-05
-1.95104e-05
0.000177562
3.82788e-05
8.40069e-06
2.1057e-05
2.05753e-05
0.000262724
-3.90719e-05
6.79259e-06
0.000259461
-9.37767e-06
1.94587e-05
0.00027365
9.17798e-05
6.16874e-06
0.000280915
9.95965e-05
-3.37997e-05
0.000288165
2.9828e-05
2.47975e-06
0.000311758
2.36411e-05
8.47988e-07
0.000320024
6.91006e-05
-5.66438e-05
0.000311123
1.24423e-05
-3.14282e-05
0.000287239
1.09304e-05
1.01156e-05
0.000264812
8.05638e-05
7.61135e-07
0.000299947
-4.93191e-05
3.89251e-05
0.000353886
-7.85784e-05
9.72622e-06
0.000354315
-1.51652e-05
-4.28591e-05
0.000331794
1.47771e-05
-1.25958e-05
0.0003282
-2.24963e-05
5.97604e-05
0.000336769
1.46157e-05
3.67978e-05
0.000308529
6.87261e-05
-3.11614e-05
0.000269893
3.00575e-05
-1.97179e-05
0.000271678
2.57737e-05
1.75729e-05
0.00029023
-5.72982e-05
3.9268e-05
0.000285654
-9.7235e-05
2.98604e-05
0.000282592
-3.54698e-06
1.48814e-05
0.000321499
3.63234e-05
-3.76124e-05
0.00032584
-3.24029e-05
-3.3937e-05
0.000304814
0.00010515
1.55566e-05
0.000352387
0.000159499
-3.25239e-05
0.000450422
-2.77536e-05
-5.87867e-05
0.000418653
-0.00010497
-2.16909e-05
0.000289743
-7.92851e-05
3.00645e-05
0.000247628
2.21852e-05
3.55958e-05
0.000250798
6.95879e-05
1.38392e-05
0.000249147
-5.82983e-06
2.28137e-05
0.000238269
3.31876e-05
1.59778e-05
0.000253971
4.88557e-05
1.68392e-05
0.000300522
-3.19308e-05
1.97648e-05
0.000293827
8.91675e-05
-2.24696e-05
0.00026444
8.921e-05
-2.63343e-05
0.000237604
4.33483e-05
-2.33714e-05
0.000209474
7.41885e-05
-4.31635e-07
2.56316e-05
3.10033e-05
0.000311718
-4.28602e-05
9.48796e-06
0.00030398
-2.69989e-05
3.02707e-05
0.000316305
6.82112e-05
1.55014e-05
0.000327597
0.00010384
-3.45584e-05
0.000335427
4.31038e-05
6.62084e-06
0.000353394
2.72495e-05
9.83982e-06
0.000371454
7.42621e-05
-5.9963e-05
0.000379301
-7.27861e-06
-2.84511e-05
0.00035762
-2.54236e-05
2.8278e-05
0.000331282
9.17491e-05
-1.79389e-06
0.000342405
-1.92552e-05
3.97641e-05
0.000387715
-8.0149e-05
3.4023e-05
0.000406386
-4.57533e-05
-3.09645e-05
0.000403814
6.21341e-06
-3.9372e-05
0.00040877
-4.3688e-05
5.15236e-05
0.000424213
-2.13296e-05
8.07753e-05
0.000413026
2.90982e-05
2.50342e-06
0.000377012
8.02512e-06
-1.67798e-05
0.00037649
2.05048e-05
-7.36316e-06
0.000394378
-7.93505e-05
2.65702e-05
0.000384819
-0.000134841
4.75104e-05
0.000352967
-1.71177e-05
2.94035e-05
0.000364868
5.51702e-05
-2.9052e-05
0.000365658
-2.36572e-05
-3.02421e-05
0.000333935
0.000121321
1.37815e-05
0.000361924
0.000197538
-3.01133e-05
0.000494103
-9.11135e-05
-4.41059e-05
0.000534957
-0.000184131
-7.38687e-06
0.000400199
-7.44625e-05
3.81882e-05
0.000312915
2.45347e-05
4.93743e-05
0.000310097
5.61603e-05
2.08475e-05
0.000310936
-2.06174e-05
2.10643e-05
0.000289005
6.08615e-05
1.40161e-05
0.000287619
9.43252e-05
1.81328e-05
0.000335518
-5.50357e-05
4.31607e-05
0.000350646
7.51122e-05
-9.51082e-06
0.000335129
9.18471e-05
-2.50635e-05
0.00030538
3.52359e-05
-1.93956e-05
0.000269039
9.27129e-05
-1.02184e-05
2.61386e-05
2.14867e-05
0.000403654
-5.00945e-05
6.85801e-06
0.000373332
-4.01225e-05
3.81582e-05
0.000361344
5.97317e-05
1.25205e-05
0.00036145
0.000112704
-3.26205e-05
0.000356669
6.0993e-05
3.34871e-05
0.000386954
2.25555e-05
5.18571e-05
0.000460371
2.26692e-05
-4.3053e-05
0.000509892
-8.22839e-05
-2.08638e-05
0.000470693
-8.73573e-05
7.02234e-05
0.000415363
7.74031e-05
1.77897e-05
0.000386646
1.78369e-05
2.58651e-05
0.000415348
-5.4946e-05
5.19534e-05
0.000452312
-7.7473e-05
-1.05806e-05
0.000470474
-8.63279e-06
-6.77314e-05
0.000497025
-7.18537e-05
4.11524e-07
0.00052723
-7.4866e-05
0.000100536
0.000533552
-2.08375e-05
4.17868e-05
0.000486248
-2.24726e-05
8.17333e-06
0.000480045
1.50052e-05
-1.40259e-05
0.000525667
-0.000108082
7.91455e-06
0.00052678
-0.00019247
6.3821e-05
0.000453771
-2.9583e-05
4.47198e-05
0.000421256
9.80271e-05
-1.77275e-05
0.00039565
-2.32993e-07
-2.11986e-05
0.000337796
0.00015523
2.26878e-05
0.000353948
0.000250315
1.04249e-05
0.000490471
-0.000154616
-9.129e-06
0.00059494
-0.000310179
1.00439e-05
0.000513942
-0.000112477
4.35836e-05
0.000411299
5.02132e-05
5.11979e-05
0.000393335
6.66476e-05
1.77454e-05
0.000381632
-3.67539e-05
1.72922e-05
0.000348945
8.52601e-05
1.36707e-05
0.000341646
0.000152998
5.27261e-06
0.000374896
-5.63945e-05
6.33069e-05
0.000412326
3.62704e-05
1.9102e-05
0.00043489
4.68837e-05
-7.18141e-06
0.000406968
1.22001e-05
1.5833e-06
0.000364303
9.11742e-05
-1.09295e-05
1.11641e-05
4.64439e-06
0.00052954
-6.13831e-05
2.03884e-05
0.000467358
-3.69428e-05
5.60021e-05
0.000434154
5.2832e-05
2.17863e-05
0.000446209
0.000103836
-4.01301e-05
0.000402782
0.000103902
3.56548e-05
0.000408009
2.18238e-05
0.000101197
0.000544533
-8.04169e-05
-6.72724e-06
0.000669923
-0.000200931
-3.42128e-05
0.00061701
-0.000140739
9.17753e-05
0.000516544
6.92593e-05
5.19728e-05
0.000451673
6.04886e-05
2.43409e-06
0.000450106
-2.04602e-05
4.55383e-05
0.000486082
-0.000109002
2.17062e-05
0.000530019
-4.58584e-05
-5.85593e-05
0.000574414
-0.000105256
-5.90909e-05
0.000607968
-0.000128086
6.95609e-05
0.00065722
-8.83946e-05
4.97765e-05
0.000599677
-3.77139e-05
1.51895e-05
0.000568823
2.58639e-05
-2.52689e-06
0.000650327
-0.000131331
-1.77586e-05
0.000645848
-0.000212168
4.68946e-05
0.000516836
1.57497e-06
5.08571e-05
0.000467382
0.000152599
-1.23252e-06
0.000436393
2.53977e-05
-4.81588e-06
0.000356148
0.000172745
4.05312e-05
0.000388429
0.000267405
4.02659e-05
0.000517364
-0.000197139
1.91881e-05
0.00063163
-0.000399043
7.96878e-06
0.000590237
-0.00015642
2.93152e-05
0.000497335
8.75269e-05
3.77851e-05
0.000510976
8.25364e-05
2.93703e-06
0.000502871
-6.93459e-05
9.89559e-06
0.000428419
0.000104562
1.83544e-05
0.000407444
0.000214528
-2.02804e-06
0.000404148
-1.97046e-05
6.46292e-05
0.000454341
-2.10602e-05
5.46549e-05
0.000562328
-8.91798e-05
3.20505e-05
0.000557791
-6.45794e-05
5.38259e-05
0.000492879
8.07028e-05
8.35277e-06
3.57618e-06
-1.39048e-06
0.000647598
-7.39508e-05
1.80738e-05
0.000569956
-1.50576e-05
7.49541e-05
0.000502347
5.5538e-05
4.44543e-05
0.000533324
6.28814e-05
-4.37858e-05
0.00050328
0.000115776
6.33779e-07
0.000482269
2.83472e-05
8.87412e-05
0.000607449
-0.000152979
1.1118e-05
0.00075448
-0.000279009
-6.2889e-05
0.00068881
-0.000140929
6.1986e-05
0.000569122
8.80321e-05
5.83665e-05
0.00053311
7.76123e-05
-2.75721e-05
0.000549282
-1.23936e-05
1.24209e-06
0.000554339
-0.000109016
2.0546e-05
0.000601135
-6.85721e-05
-2.39435e-05
0.00067283
-0.000162489
-4.82461e-05
0.000670154
-0.000144528
4.57251e-05
0.000725389
-0.000122484
2.76405e-05
0.000683777
-3.80444e-05
-3.45614e-06
0.000633098
4.36736e-05
-1.2556e-05
0.000727095
-0.00016311
-5.19991e-05
0.000704038
-0.000188122
2.31441e-05
0.000542631
6.94891e-05
4.94185e-05
0.000527392
0.00017402
-6.72267e-07
0.000531856
3.6087e-05
-7.64008e-06
0.000429675
0.000194377
2.09665e-05
0.000460097
0.000245814
2.39211e-05
0.000586283
-0.000226593
3.22303e-05
0.000700478
-0.000448477
1.92326e-05
0.00066634
-0.000176277
1.2512e-05
0.000552238
0.000123309
3.56327e-05
0.000589123
8.94008e-05
1.27398e-05
0.000605789
-9.99317e-05
6.87647e-06
0.000503614
0.000111464
2.10844e-05
0.000495546
0.000235079
-1.25608e-06
0.000493474
2.66707e-05
3.68952e-05
0.000511662
-4.53382e-05
6.03751e-05
0.000636452
-0.000219778
2.88266e-05
0.000666415
-0.000162866
6.71064e-05
0.000608947
3.84847e-05
2.61687e-05
-1.06674e-05
-2.34536e-05
0.000740836
-9.93725e-05
-1.92674e-05
0.000680335
9.61411e-06
5.17415e-05
0.000595479
7.67978e-05
5.29207e-05
0.000624313
1.74634e-05
-3.31058e-05
0.000647356
8.02066e-05
-3.84148e-05
0.00064433
1.60614e-05
5.7742e-05
0.000714478
-0.000185942
4.15627e-05
0.000810845
-0.000302425
-4.70232e-05
0.000732225
-9.55538e-05
4.22515e-05
0.000612371
0.000118996
6.26994e-05
0.000595185
7.88193e-05
-2.18527e-05
0.000651823
-3.91406e-05
-1.64742e-05
0.000672684
-0.000128676
-2.25696e-05
0.000698252
-8.54398e-05
-3.53325e-05
0.000763198
-0.000218028
-2.11107e-05
0.000731483
-0.000132071
5.22503e-05
0.000755395
-0.00011304
2.43432e-05
0.000734499
-1.9779e-05
-2.64555e-05
0.000679403
6.99847e-05
-4.10025e-05
0.000772209
-0.00022586
-5.95128e-05
0.00076042
-0.00018241
3.03667e-05
0.000583232
0.000171534
5.12766e-05
0.000596293
0.000140722
9.85961e-07
0.000666965
-4.52702e-05
-3.3487e-05
0.000573441
0.000196799
-3.05642e-05
0.000576297
0.000198141
1.54222e-06
0.000685846
-0.000257206
7.47833e-06
0.000783607
-0.000468493
-1.75196e-05
0.000745395
-0.000163288
-2.39204e-05
0.000636316
0.000139419
3.27668e-05
0.000668341
6.90554e-05
2.69782e-05
0.000651766
-5.18929e-05
-1.33142e-05
0.000521942
0.000155307
1.39995e-05
0.000540088
0.000181566
1.76119e-05
0.000607965
5.21009e-06
2.79346e-05
0.000635618
-5.67976e-05
4.94886e-05
0.000702803
-0.000252199
-2.76401e-06
0.000724632
-0.00020089
2.40911e-05
0.000695691
-1.84757e-05
2.76858e-05
-5.8541e-05
-3.76556e-05
0.000832795
-0.000127509
-2.80213e-05
0.00079106
2.81965e-05
2.27156e-05
0.000727564
8.47738e-05
5.02242e-05
0.000752316
-3.42389e-05
-1.30948e-05
0.000795525
3.33974e-05
-3.97714e-05
0.00080754
7.13634e-06
3.07179e-05
0.000833939
-0.000197384
3.83092e-05
0.000872348
-0.000289596
-3.67829e-05
0.000802032
-3.12779e-05
1.12239e-05
0.000713405
0.000131976
4.36393e-05
0.000710182
5.93193e-05
-8.36142e-06
0.000759263
-6.51465e-05
1.18184e-05
0.000782096
-0.000149133
-2.8261e-05
0.00079796
-0.000104545
-4.81949e-05
0.000827539
-0.000232162
-1.84428e-05
0.000792581
-9.51562e-05
4.34388e-05
0.000785588
-8.22584e-05
2.90177e-05
0.000763832
8.56521e-06
-4.36602e-05
0.000733848
0.000104149
-5.8408e-05
0.000814711
-0.00025547
-4.12173e-05
0.000826042
-0.000193938
5.50678e-05
0.000699119
0.000243703
6.26248e-05
0.000699526
0.000123087
2.3426e-05
0.000773821
-0.000118423
-1.25217e-05
0.000737049
0.000172245
-5.56205e-05
0.000729222
0.000163879
-2.14958e-05
0.000788416
-0.000254975
1.10902e-05
0.000847717
-0.000448829
-2.45038e-05
0.000815652
-0.000135588
-4.21782e-05
0.00073587
0.000156982
1.27029e-05
0.000756158
4.84576e-05
3.45212e-05
0.000736645
9.54663e-06
-2.75091e-06
0.000641505
0.000206067
1.46342e-07
0.000646332
0.000125903
2.34801e-06
0.000713558
-4.20836e-05
-1.27913e-06
0.000768434
-8.64324e-05
3.39863e-05
0.000795785
-0.000229364
1.3345e-05
0.000788474
-0.000179349
1.29613e-05
0.00078282
-6.143e-05
1.36313e-05
-0.000103879
-3.60549e-05
0.000904995
-0.000132654
-3.95907e-05
0.000885999
3.78658e-05
3.52276e-06
0.000857143
8.01099e-05
3.7633e-05
0.000878316
-6.44377e-05
-4.06656e-06
0.000925826
-3.32708e-06
-3.07365e-05
0.000946352
7.72501e-07
1.60663e-06
0.000937678
-0.00017644
3.68972e-06
0.00091992
-0.000231955
-3.71573e-05
0.000867514
1.81101e-05
-1.11819e-06
0.000832038
0.000109018
1.72998e-05
0.00085396
2.59789e-05
-2.68223e-05
0.000883005
-7.2712e-05
3.11323e-06
0.000888547
-0.000136316
-1.45973e-05
0.000900546
-0.000110405
-3.0452e-05
0.00089925
-0.000187477
-1.4157e-05
0.000860526
-2.88339e-05
4.55789e-05
0.000827491
-3.81491e-05
4.40293e-05
0.000802883
2.18403e-05
-1.24222e-05
0.000821866
8.16611e-05
-2.06444e-05
0.000890781
-0.000267488
-2.18489e-05
0.000889302
-0.000185519
5.08891e-05
0.00082466
0.000256652
6.21856e-05
0.000826986
0.000104425
2.65684e-05
0.000865016
-0.000146377
9.47408e-06
0.000869073
0.000136916
-3.73975e-05
0.000882792
0.000142051
-3.73522e-05
0.000901584
-0.000215842
-6.67035e-07
0.000907965
-0.000384229
-8.46115e-06
0.000884965
-0.000101377
-3.27515e-05
0.000850293
0.000159831
-1.28685e-05
0.000843836
6.12416e-05
1.14661e-05
0.000803495
7.4671e-05
1.80408e-05
0.000771718
0.000214834
2.73789e-05
0.000798455
6.06775e-05
1.80095e-05
0.000848288
-8.80831e-05
-1.28044e-05
0.000899115
-0.000114063
-9.80292e-06
0.000905503
-0.000185786
-1.2815e-05
0.000880675
-0.000131936
1.27459e-05
0.000870685
-7.66265e-05
1.19551e-05
-0.0001189
-3.70678e-05
0.000981699
-0.000122598
-4.26743e-05
0.000986781
3.12842e-05
-1.13873e-05
0.000973753
7.2794e-05
2.91676e-05
0.000980432
-6.11437e-05
2.3503e-07
0.00101474
-2.37404e-05
-3.78363e-05
0.00103552
-7.04516e-06
-2.92181e-05
0.00101347
-0.000141254
-1.70639e-05
0.000974308
-0.000166395
-2.63292e-05
0.000949634
2.96812e-05
1.49209e-05
0.000957406
6.54106e-05
1.19766e-05
0.000983013
6.10661e-06
-3.7339e-05
0.00099075
-5.55019e-05
-1.66379e-05
0.000983408
-0.00011224
-7.393e-06
0.000980958
-0.000111662
-8.11919e-06
0.000976007
-0.000145294
-1.01449e-05
0.000964202
1.70491e-05
2.00334e-05
0.000937203
3.10572e-06
2.75689e-05
0.0009216
3.12915e-05
1.79747e-05
0.00094701
5.94215e-05
1.27017e-05
0.000984123
-0.000236927
-1.74603e-05
0.000985021
-0.00015555
7.85562e-06
0.000964469
0.000240361
3.17877e-05
0.000957004
9.29918e-05
1.5829e-05
0.000954176
-0.000138627
7.26692e-06
0.000966688
0.000102851
-1.68612e-05
0.00100287
0.000112961
-4.86113e-05
0.00100833
-0.00016938
-4.41974e-05
0.000970281
-0.000293835
-1.5087e-05
0.000940275
-6.18949e-05
-1.02478e-05
0.00094015
0.000137276
-2.121e-05
0.000946866
6.45368e-05
-3.20007e-05
0.000931474
0.000104925
-5.13469e-06
0.000938398
0.000187539
3.08648e-05
0.000960076
1.54398e-05
2.39967e-05
0.00097848
-0.000113274
4.10902e-06
0.000998578
-0.000117409
-1.93604e-05
0.00099372
-0.000143497
-2.59855e-05
0.000970246
-9.48028e-05
1.79902e-05
0.000955287
-7.24557e-05
2.39216e-05
-0.000110446
-2.26904e-05
0.00107625
-9.38184e-05
-3.80135e-05
0.00109169
1.99434e-05
-8.50607e-06
0.0010862
5.99674e-05
2.76156e-05
0.00107919
-3.88622e-05
-3.07599e-06
0.00109636
-2.63374e-05
-3.87612e-05
0.00111344
-1.81319e-05
-2.46956e-05
0.00109174
-0.000110606
-1.8897e-05
0.00105641
-0.00011772
-2.00394e-05
0.00104966
2.74882e-05
2.55887e-05
0.0010714
3.84589e-05
1.36027e-05
0.00109485
-2.79761e-06
-3.25845e-05
0.00109244
-3.91945e-05
-1.10063e-05
0.00107807
-8.9013e-05
2.37614e-06
0.00106357
-9.59109e-05
7.69761e-07
0.00106093
-0.000106338
-4.75535e-06
0.00107563
3.67155e-05
3.18883e-07
0.00107245
2.20756e-05
3.87118e-06
0.00106782
3.57833e-05
5.27458e-06
0.00107505
6.02785e-05
5.84638e-06
0.00107608
-0.000174305
-1.74963e-05
0.00108094
-0.000121983
-2.00152e-05
0.00109034
0.000199254
-1.47806e-06
0.00107816
8.17208e-05
4.19237e-06
0.00106057
-0.000109687
6.09993e-06
0.00107468
8.40308e-05
-1.66395e-05
0.0011057
9.50004e-05
-5.64646e-05
0.00109743
-0.000126023
-4.29847e-05
0.00104989
-0.000214411
3.01713e-06
0.00102613
-3.64396e-05
1.64133e-05
0.00103794
0.00010286
-1.26921e-05
0.00105604
4.82809e-05
-4.15142e-05
0.0010704
8.89927e-05
-1.56351e-05
0.00109068
0.00014254
2.36773e-05
0.00109252
-4.96875e-06
1.1438e-05
0.00108575
-0.000105552
-9.98204e-06
0.00108888
-9.67532e-05
-2.67256e-05
0.00108618
-0.000108871
-2.36639e-05
0.00107438
-7.17898e-05
1.95247e-05
0.00106472
-5.62798e-05
2.22108e-05
-8.20864e-05
-1.77949e-05
0.0011752
-6.69128e-05
-2.86471e-05
0.00118821
1.05384e-05
-4.11675e-06
0.00118755
4.26677e-05
2.31862e-05
0.00118137
-2.12867e-05
-7.79947e-06
0.0011878
-1.9065e-05
-3.4911e-05
0.00119629
-2.1782e-05
-1.33679e-05
0.0011804
-8.39709e-05
-1.45151e-05
0.00115967
-8.40364e-05
-2.05618e-05
0.00116132
2.30773e-05
2.23041e-05
0.00117677
2.72601e-05
1.4213e-05
0.00119342
-5.45798e-06
-2.25007e-05
0.00118972
-2.7393e-05
-7.38715e-06
0.00117644
-6.78214e-05
-2.98879e-06
0.00116367
-6.87562e-05
-9.08661e-06
0.00116594
-7.19455e-05
-7.49473e-06
0.00118624
3.31985e-05
-1.29966e-06
0.0011878
2.00201e-05
1.67727e-06
0.00118702
2.76991e-05
-4.43808e-06
0.00119135
5.90252e-05
-6.33233e-06
0.00117566
-0.000117523
-1.53591e-05
0.0011734
-9.81353e-05
-1.80096e-05
0.00119301
0.000143543
-4.43496e-06
0.00118388
6.93426e-05
7.63808e-07
0.00116695
-7.56096e-05
4.0124e-06
0.00118304
6.63826e-05
-1.2286e-05
0.00120684
7.66555e-05
-4.3503e-05
0.0011937
-8.92399e-05
-3.05511e-05
0.00115421
-0.000151654
1.28605e-05
0.00114423
-2.89767e-05
2.62344e-05
0.00115874
6.50214e-05
-3.84985e-06
0.00117451
2.93739e-05
-3.2614e-05
0.0011896
6.92404e-05
-1.31942e-05
0.00120032
0.000111752
1.82647e-05
0.00119048
-5.10843e-06
3.9937e-07
0.00118112
-8.4273e-05
-1.6405e-05
0.00118276
-6.66493e-05
-2.05366e-05
0.00117848
-7.71088e-05
-1.49952e-05
0.00117245
-5.31792e-05
1.52365e-05
0.00117012
-3.79432e-05
1.32598e-05
-5.75723e-05
-1.42377e-05
0.00128912
-4.24827e-05
-1.47596e-05
0.00129782
9.61885e-06
-3.25579e-06
0.00129909
2.84984e-05
1.58544e-05
0.00129554
-1.18492e-05
-1.0221e-05
0.00129723
-9.27057e-06
-2.82057e-05
0.00130204
-2.151e-05
-5.6352e-06
0.00129204
-6.28679e-05
-1.14753e-05
0.001281
-6.05709e-05
-2.14276e-05
0.00128539
1.63599e-05
1.21834e-05
0.0012921
2.20332e-05
1.04962e-05
0.00130072
-4.22477e-06
-1.32306e-05
0.00129818
-1.91945e-05
-9.81131e-07
0.00129039
-5.16711e-05
-7.14549e-06
0.00128338
-4.36124e-05
-1.8007e-05
0.00128412
-4.39937e-05
-1.00622e-05
0.00129706
2.27673e-05
3.27921e-06
0.00129696
9.61132e-06
7.73333e-06
0.00129852
1.31329e-05
-8.52623e-06
0.00130374
5.27203e-05
-1.38106e-05
0.00128828
-7.38897e-05
-1.43961e-05
0.00128123
-7.5044e-05
-1.27798e-05
0.00129804
9.81326e-05
2.3363e-06
0.00129579
5.62892e-05
2.10105e-07
0.00128418
-4.84882e-05
-3.74974e-06
0.00129522
5.42202e-05
-8.35628e-06
0.00131278
6.20023e-05
-2.46378e-05
0.00130487
-6.04308e-05
-1.95703e-05
0.00127999
-0.00010711
8.88368e-06
0.00127636
-2.86509e-05
1.70409e-05
0.00128171
4.05485e-05
-4.24813e-06
0.0012886
2.33283e-05
-2.25397e-05
0.00130021
5.76254e-05
-5.21867e-06
0.00130944
8.8465e-05
1.49899e-05
0.00130199
1.30955e-06
-1.06539e-05
0.00129408
-5.77193e-05
-2.106e-05
0.00129617
-3.82176e-05
-1.34356e-05
0.00129366
-5.23624e-05
-7.84036e-06
0.00129221
-3.81175e-05
5.87771e-06
0.00129171
-2.10841e-05
1.71308e-07
-3.85367e-05
-7.51347e-06
0.00141782
-2.50889e-05
-6.91437e-06
0.0014249
1.17268e-05
-3.89236e-06
0.00142586
1.88254e-05
1.24128e-05
0.00142366
-9.45636e-06
-7.10892e-06
0.00142438
-3.26321e-06
-1.99891e-05
0.00142734
-1.75908e-05
6.62343e-07
0.00142015
-4.63374e-05
-6.32215e-06
0.00141337
-4.50248e-05
-1.71634e-05
0.00141805
8.27355e-06
6.84612e-06
0.00142022
1.6994e-05
8.85681e-06
0.00142535
-4.54492e-06
-6.43976e-06
0.00142395
-1.37593e-05
2.96478e-06
0.00141915
-4.02348e-05
-6.50004e-06
0.00141559
-2.79205e-05
-1.60654e-05
0.00141479
-2.61197e-05
-8.26682e-06
0.00142205
1.66854e-05
3.5174e-06
0.00142042
5.48799e-06
8.95935e-06
0.00142155
2.82374e-06
-9.82579e-06
0.00142783
4.30968e-05
-1.48262e-05
0.00141767
-4.58947e-05
-1.28791e-05
0.0014102
-5.21284e-05
-1.19483e-05
0.00142197
6.91084e-05
4.39031e-06
0.00142244
4.36938e-05
1.03452e-06
0.00141391
-3.10794e-05
-6.40472e-06
0.00142209
4.32425e-05
-6.86519e-06
0.0014361
5.13642e-05
-1.53129e-05
0.00143198
-3.80726e-05
-1.25673e-05
0.00141411
-7.52528e-05
6.16358e-06
0.00141081
-2.9687e-05
9.15524e-06
0.00141105
2.45481e-05
-4.02969e-06
0.00141391
2.13097e-05
-1.17382e-05
0.00142329
4.7241e-05
3.28098e-06
0.00143186
6.74603e-05
1.46496e-05
0.0014273
4.49442e-06
-1.07079e-05
0.00142116
-3.71892e-05
-1.64481e-05
0.00142421
-1.79775e-05
-6.68214e-06
0.00142224
-3.31955e-05
-2.46975e-06
0.001422
-2.70458e-05
4.39352e-06
0.00142215
-1.12443e-05
-2.54932e-06
-2.69496e-05
-2.68784e-06
0.00156062
-1.34273e-05
-1.84902e-06
0.0015674
1.15391e-05
-2.73498e-06
0.00156793
1.06584e-05
1.14462e-05
0.00156547
-9.25068e-06
-3.62017e-06
0.00156615
-4.59169e-07
-1.43386e-05
0.00156866
-1.40993e-05
1.71963e-06
0.0015634
-3.53932e-05
-2.911e-06
0.0015576
-3.40664e-05
-1.24241e-05
0.00156158
1.35512e-06
3.99086e-06
0.00156207
1.21452e-05
7.46451e-06
0.001566
-5.66564e-06
-4.02126e-06
0.00156551
-9.63972e-06
4.11267e-06
0.00156116
-3.15482e-05
-4.71949e-06
0.00155892
-1.85682e-05
-1.20325e-05
0.00155772
-1.4242e-05
-6.34888e-06
0.00156376
1.1806e-05
9.05306e-07
0.00156192
4.56166e-06
6.74299e-06
0.00156229
-3.89392e-06
-9.24559e-06
0.00156732
3.4382e-05
-1.31044e-05
0.00156025
-2.64923e-05
-1.04273e-05
0.00155478
-3.41094e-05
-9.72673e-06
0.00156363
4.82812e-05
4.5588e-06
0.00156468
3.23307e-05
7.24193e-07
0.00155685
-1.88684e-05
-6.74419e-06
0.00156317
3.3133e-05
-5.47905e-06
0.00157524
4.15291e-05
-9.83525e-06
0.00157363
-2.34913e-05
-8.10403e-06
0.00155937
-5.135e-05
5.49536e-06
0.00155519
-2.86639e-05
4.77128e-06
0.0015538
1.35542e-05
-3.47784e-06
0.00155595
1.79895e-05
-4.99331e-06
0.00156387
3.65031e-05
5.44302e-06
0.00157094
4.91335e-05
1.29216e-05
0.00156789
5.23129e-06
-7.60736e-06
0.00156282
-2.23684e-05
-1.01783e-05
0.00156663
-5.66781e-06
-1.26677e-06
0.00156503
-2.01165e-05
4.28161e-07
0.00156446
-1.97601e-05
5.1705e-06
0.00156486
-5.17253e-06
-2.57254e-06
-1.84704e-05
-6.50815e-07
0.00171807
-5.79026e-06
5.70792e-07
0.00172417
1.00985e-05
-2.60821e-06
0.00172424
5.21311e-06
9.83015e-06
0.00172183
-8.96314e-06
-1.2812e-06
0.00172248
5.00756e-07
-1.08258e-05
0.00172462
-1.10972e-05
1.81648e-06
0.00172073
-2.71349e-05
-7.02695e-07
0.00171519
-2.53592e-05
-8.39058e-06
0.00171868
-3.99498e-06
2.67748e-06
0.0017184
8.44345e-06
6.44977e-06
0.00172136
-6.78079e-06
-3.02003e-06
0.00172175
-6.93074e-06
4.05596e-06
0.00171733