/*--------------------------------*- C++ -*----------------------------------*\
  =========                 |
  \\      /  F ield         | OpenFOAM: The Open Source CFD Toolbox
   \\    /   O peration     | Website:  https://openfoam.org
    \\  /    A nd           | Version:  10
     \\/     M anipulation  |
\*---------------------------------------------------------------------------*/
FoamFile
{
    format      ascii;
    class       volVectorField;
    location    "7";
    object      UMean;
}
// * * * * * * * * * * * * * * * * * * * * * * * * * * * * * * * * * * * * * //

dimensions      [0 1 -1 0 0 0 0];

internalField   nonuniform List<vector> 
25600
(
(0.111084 1.59035e-05 0.001012)
(0.110068 9.12441e-06 0.00153039)
(0.109722 6.41047e-06 0.000814941)
(0.110232 -4.11277e-06 0.000364091)
(0.110493 2.28317e-05 -0.000163951)
(0.109541 4.55449e-05 0.000314193)
(0.108904 6.56159e-05 0.00101677)
(0.10823 4.66517e-05 0.00167982)
(0.108529 1.58768e-05 0.000873611)
(0.108917 -3.31951e-06 0.000592612)
(0.10918 -7.52439e-08 0.000742767)
(0.10889 7.65462e-06 0.00114207)
(0.108092 3.33738e-06 0.0004374)
(0.107972 -4.33273e-06 -0.000385188)
(0.108483 1.17031e-06 -0.000628684)
(0.107779 3.02303e-05 -0.000195924)
(0.107913 4.75373e-05 0.00066224)
(0.106587 4.91142e-05 0.000744515)
(0.106938 2.18124e-05 -9.55272e-05)
(0.106463 4.79588e-06 -0.000997696)
(0.107127 3.25e-05 -0.000775944)
(0.106264 4.21397e-05 0.000399841)
(0.108249 -1.01838e-05 0.000777632)
(0.108482 -1.6455e-05 0.00063265)
(0.109766 1.49502e-05 -0.000232146)
(0.109871 5.58831e-05 -0.000620322)
(0.109521 5.17965e-05 -6.41073e-05)
(0.109462 2.7555e-05 0.000348097)
(0.109781 3.21513e-05 0.000261919)
(0.109603 3.71801e-05 -0.00014613)
(0.110847 1.33835e-05 -0.000180045)
(0.109744 3.61942e-05 0.000237159)
(0.110707 4.11956e-05 0.000298993)
(0.109215 1.1604e-05 0.000482482)
(0.111557 5.27432e-06 4.0729e-05)
(0.109797 1.89356e-05 0.000605788)
(0.111834 2.76095e-05 0.000944005)
(0.110038 1.13244e-05 0.00111619)
(0.112018 4.12614e-06 -0.000237547)
(0.109926 3.58434e-08 0.000420683)
(0.323536 0.000112158 0.00107689)
(0.320343 0.000284655 0.00274376)
(0.318839 0.000161033 0.00193849)
(0.32119 -1.75479e-06 0.00147383)
(0.321908 0.000237329 -0.000192809)
(0.319382 0.000348928 0.00104391)
(0.317924 0.000540462 0.00208895)
(0.315711 0.000481622 0.00370499)
(0.317145 0.000265493 0.00227479)
(0.318093 6.95876e-05 0.00187278)
(0.318802 0.000107473 0.001829)
(0.317458 0.000274791 0.00306695)
(0.314934 0.000369875 0.00169443)
(0.314481 0.000275981 4.28651e-05)
(0.314885 0.000284027 -0.000727202)
(0.313183 0.000402069 0.000111348)
(0.314134 0.000515846 0.00157678)
(0.310127 0.000654801 0.00184904)
(0.311111 0.000473721 0.000161605)
(0.309422 0.000422994 -0.00157597)
(0.311204 0.000421029 -0.00182152)
(0.309861 0.000409953 0.000523185)
(0.315022 0.000191096 0.00140499)
(0.3142 0.000232111 0.00167692)
(0.317675 0.0002037 -0.000292648)
(0.319271 0.000443872 -0.00157621)
(0.319159 0.000530847 -0.000814205)
(0.31897 0.000470277 0.000700221)
(0.319318 0.000567962 0.00073712)
(0.31957 0.00042725 -0.000378152)
(0.323126 0.000422156 -0.00116482)
(0.318884 0.000500016 -0.000447296)
(0.322345 0.000498423 -0.000198915)
(0.317904 0.000257525 0.000525804)
(0.325151 0.000121356 -0.000626367)
(0.319611 0.000194399 0.000551376)
(0.326577 0.000258208 0.00118418)
(0.321058 0.000277577 0.00220582)
(0.326531 0.000272296 -0.000662039)
(0.319434 7.21743e-05 0.000402984)
(0.516432 0.000481652 -0.00120582)
(0.51315 0.000799264 0.00180395)
(0.514085 0.00064266 0.00109829)
(0.51411 0.000320387 0.00132213)
(0.515523 0.000813021 -0.00130637)
(0.510891 0.000921082 0.000539219)
(0.509654 0.00122469 0.00124829)
(0.507069 0.00116153 0.00342904)
(0.510426 0.000876472 0.00135691)
(0.51111 0.000515191 0.000789515)
(0.513595 0.000632054 0.000704567)
(0.509326 0.00103202 0.00325327)
(0.506783 0.00134786 0.00163935)
(0.504724 0.00129574 -0.000135808)
(0.503702 0.00129178 -0.00161181)
(0.50162 0.00150835 -0.000268651)
(0.50292 0.00154352 0.00121511)
(0.498824 0.00195446 0.00152372)
(0.500284 0.0016739 -0.000855691)
(0.495609 0.00151262 -0.0027278)
(0.500583 0.00140942 -0.00295059)
(0.495556 0.00124376 -0.00052507)
(0.504914 0.000789427 0.000354463)
(0.501622 0.00110089 0.00121569)
(0.506333 0.000958529 -0.00116629)
(0.505878 0.00121058 -0.0027423)
(0.512917 0.00133551 -0.00247328)
(0.508161 0.00146142 -0.000570762)
(0.51206 0.00166257 -0.00129824)
(0.511944 0.001341 -0.00222988)
(0.516264 0.00124867 -0.00353205)
(0.511615 0.00139489 -0.00261095)
(0.516424 0.00150965 -0.00301226)
(0.509987 0.00106396 -0.00187921)
(0.518102 0.000726611 -0.0035102)
(0.511532 0.00067463 -0.00166072)
(0.523451 0.000787354 -0.00127868)
(0.513593 0.000836821 0.000897648)
(0.525442 0.000968431 -0.00306395)
(0.51289 0.000653995 -0.00129699)
(0.67679 0.00181335 -0.00587549)
(0.669503 0.00211729 -0.00278126)
(0.674959 0.00176566 -0.0027681)
(0.669737 0.00134069 -0.00246022)
(0.676487 0.00200482 -0.0062824)
(0.666567 0.00211094 -0.00466733)
(0.667753 0.00239595 -0.0037822)
(0.662865 0.00209961 -0.000760724)
(0.670871 0.00188438 -0.00383625)
(0.670334 0.00165717 -0.00506564)
(0.67603 0.00193776 -0.00553966)
(0.669027 0.0027378 -0.000643383)
(0.666141 0.00323376 -0.000887076)
(0.663172 0.00354564 -0.00245227)
(0.659667 0.00358043 -0.00572876)
(0.658345 0.00377805 -0.00393919)
(0.657663 0.0037388 -0.0019911)
(0.656369 0.00422734 -0.000557494)
(0.657684 0.00384325 -0.00385978)
(0.652881 0.00377221 -0.00542938)
(0.652139 0.00335016 -0.00592507)
(0.650896 0.00311773 -0.00287688)
(0.654899 0.00215823 -0.00184456)
(0.655908 0.0027183 -0.000960276)
(0.654004 0.00262333 -0.00398663)
(0.655406 0.00261755 -0.00446576)
(0.661984 0.00264042 -0.00578421)
(0.659692 0.00282066 -0.00398411)
(0.668705 0.00324476 -0.00618843)
(0.667558 0.00304449 -0.00714192)
(0.671778 0.0030332 -0.00878041)
(0.665142 0.00300396 -0.00724753)
(0.674524 0.00313968 -0.00828235)
(0.66752 0.00251468 -0.00730999)
(0.678161 0.00226694 -0.00999233)
(0.668739 0.0019776 -0.00837736)
(0.683722 0.00198961 -0.00725531)
(0.673845 0.00196931 -0.00401368)
(0.688581 0.00231977 -0.00762651)
(0.672547 0.00227601 -0.00611079)
(0.78999 0.0044965 -0.0127111)
(0.781959 0.00478735 -0.0102809)
(0.789105 0.0045126 -0.00911181)
(0.779483 0.00372963 -0.00939913)
(0.791054 0.00423081 -0.014002)
(0.779943 0.00456691 -0.0140908)
(0.780091 0.00466935 -0.0125608)
(0.773876 0.0042806 -0.00927621)
(0.781507 0.00393879 -0.0120244)
(0.783241 0.00389336 -0.0135523)
(0.793822 0.00445012 -0.0151785)
(0.784435 0.0056325 -0.00959298)
(0.785303 0.00614595 -0.00610622)
(0.777009 0.0069382 -0.00629338)
(0.777349 0.00715736 -0.0106118)
(0.771138 0.00753215 -0.0107029)
(0.771336 0.00707874 -0.00680855)
(0.772908 0.00762258 -0.00382297)
(0.773748 0.00714135 -0.00674331)
(0.769715 0.00725671 -0.00849975)
(0.767572 0.00672832 -0.00939548)
(0.762076 0.00630298 -0.00591285)
(0.768457 0.00503071 -0.00459818)
(0.761247 0.00564599 -0.00305017)
(0.761525 0.00568238 -0.00577912)
(0.752371 0.00520578 -0.00615941)
(0.764333 0.00496642 -0.00764683)
(0.755564 0.00493914 -0.00698122)
(0.771866 0.00564607 -0.00991208)
(0.765328 0.00566899 -0.0119914)
(0.779725 0.00574473 -0.0139145)
(0.769594 0.0059187 -0.0122022)
(0.784191 0.00598753 -0.0143879)
(0.774875 0.00541659 -0.0129139)
(0.787621 0.00505887 -0.0170454)
(0.778947 0.00495889 -0.0157925)
(0.791464 0.00470542 -0.0157858)
(0.783053 0.00459276 -0.011801)
(0.798075 0.00487717 -0.0141848)
(0.787577 0.00527553 -0.0136304)
(0.860533 0.0085659 -0.0180208)
(0.855854 0.00871067 -0.0156097)
(0.863008 0.00864022 -0.0144119)
(0.857378 0.00777033 -0.0139749)
(0.860227 0.00753968 -0.0176464)
(0.859039 0.00812943 -0.0189509)
(0.855348 0.00795499 -0.0173182)
(0.851342 0.00739726 -0.0137785)
(0.856154 0.0067238 -0.0158745)
(0.859473 0.00669018 -0.0169644)
(0.867047 0.00717041 -0.0183374)
(0.870199 0.00902061 -0.0152377)
(0.862358 0.00965733 -0.00981221)
(0.861483 0.0107833 -0.00726533)
(0.852566 0.0109749 -0.0115844)
(0.85303 0.0116764 -0.0133818)
(0.844308 0.0108003 -0.00998491)
(0.844919 0.0111588 -0.00695003)
(0.84601 0.0107556 -0.00793446)
(0.840814 0.0108868 -0.0100613)
(0.840022 0.0103632 -0.0107771)
(0.838167 0.00995052 -0.00768269)
(0.838916 0.00851406 -0.00569266)
(0.832418 0.0091996 -0.0040748)
(0.829713 0.00961939 -0.00515728)
(0.820522 0.00885036 -0.00415612)
(0.827773 0.00809084 -0.00487751)
(0.82054 0.00793898 -0.00399392)
(0.827284 0.00887787 -0.00750153)
(0.829437 0.0089513 -0.0099749)
(0.835385 0.00893603 -0.0137271)
(0.832978 0.00896598 -0.0110074)
(0.846794 0.00914552 -0.0133819)
(0.843413 0.00903092 -0.0121058)
(0.853568 0.0086107 -0.0172146)
(0.849477 0.00867601 -0.0156888)
(0.857704 0.00834397 -0.017579)
(0.853193 0.00832532 -0.0144895)
(0.860592 0.00815229 -0.016733)
(0.862694 0.00904344 -0.0174932)
(0.900503 0.0118733 -0.011597)
(0.901434 0.0121718 -0.0115888)
(0.903888 0.011834 -0.0118122)
(0.906629 0.0117022 -0.0119591)
(0.90174 0.010686 -0.0142359)
(0.908414 0.0112254 -0.0154619)
(0.899834 0.0107736 -0.013956)
(0.90499 0.00986552 -0.00938782)
(0.896351 0.00877327 -0.0109977)
(0.904718 0.00873238 -0.00991761)
(0.901409 0.0087863 -0.0108691)
(0.912398 0.0110378 -0.00960124)
(0.904311 0.0120424 -0.00527365)
(0.911892 0.0136235 -0.00116527)
(0.899739 0.0144116 -0.00317175)
(0.90271 0.0150268 -0.00658151)
(0.897107 0.0143096 -0.00624301)
(0.893644 0.0142364 -0.00476645)
(0.89734 0.0139779 -0.00619388)
(0.891672 0.0140224 -0.0079887)
(0.894349 0.0135002 -0.0105042)
(0.886775 0.0127946 -0.00723512)
(0.895402 0.0114141 -0.00514168)
(0.877243 0.0117819 -0.00155908)
(0.886796 0.0126073 -0.000172652)
(0.871801 0.0114691 0.00255562)
(0.88929 0.0108341 0.00482063)
(0.866363 0.0108127 0.00569646)
(0.874611 0.0118323 0.00425153)
(0.865402 0.0118255 2.60347e-05)
(0.87815 0.0119106 -0.0023805)
(0.867271 0.0115673 -0.00286738)
(0.879635 0.0119146 -0.0031831)
(0.872138 0.0120561 -0.0038838)
(0.887562 0.0120581 -0.00712956)
(0.87537 0.0123718 -0.00707422)
(0.885778 0.011636 -0.00638747)
(0.885573 0.011788 -0.00587478)
(0.88931 0.0112115 -0.00638584)
(0.897848 0.0121593 -0.00993187)
(0.920097 0.0129378 0.00378446)
(0.931777 0.0132737 0.00385302)
(0.926047 0.0126723 0.00233332)
(0.939093 0.0132923 0.00226813)
(0.92849 0.0122208 -0.00035133)
(0.939996 0.0126356 -0.00105905)
(0.930592 0.0118159 -0.0013775)
(0.93942 0.0110187 0.00295062)
(0.926958 0.0100907 0.00162738)
(0.932308 0.00975844 0.0038885)
(0.928758 0.00933406 0.00385374)
(0.936935 0.0107881 0.00473463)
(0.932832 0.0115733 0.00655754)
(0.93435 0.0131145 0.0116502)
(0.930933 0.0141447 0.0117667)
(0.933155 0.0146624 0.00934423)
(0.932281 0.0146965 0.0080546)
(0.923613 0.0146795 0.00752738)
(0.933874 0.0145468 0.00624115)
(0.927307 0.014716 0.00427537)
(0.931814 0.0150701 0.000846284)
(0.919054 0.0141305 0.00186515)
(0.92831 0.013441 0.00402059)
(0.911126 0.0134519 0.00624961)
(0.924443 0.0145124 0.00929042)
(0.910365 0.0128763 0.0124365)
(0.928526 0.0122358 0.0155948)
(0.907443 0.0129569 0.0158772)
(0.907404 0.0136208 0.0156966)
(0.898983 0.0141144 0.012978)
(0.902861 0.0139358 0.0110949)
(0.899594 0.0137853 0.0103375)
(0.899874 0.0138193 0.00975264)
(0.903023 0.0137314 0.00940099)
(0.903044 0.0135603 0.00622424)
(0.906465 0.014038 0.00641845)
(0.905607 0.0126606 0.00857282)
(0.911317 0.0132903 0.00874979)
(0.906679 0.012358 0.0086071)
(0.92413 0.0135312 0.00636036)
(0.948957 0.0126062 0.0214751)
(0.958378 0.0126793 0.0225348)
(0.953831 0.0118875 0.0215458)
(0.965289 0.0120575 0.0224155)
(0.961076 0.0112824 0.0200905)
(0.971469 0.0111268 0.0178446)
(0.969873 0.0104657 0.0154251)
(0.977534 0.00982885 0.0169835)
(0.969253 0.00980997 0.0146034)
(0.96933 0.00934579 0.0157027)
(0.96735 0.00880812 0.018312)
(0.966664 0.00933219 0.0187148)
(0.972264 0.00984342 0.0198196)
(0.965817 0.0108092 0.022213)
(0.971058 0.0114741 0.0267934)
(0.959359 0.0118759 0.0256953)
(0.96373 0.0121441 0.0267392)
(0.947705 0.0120899 0.0262081)
(0.961333 0.0121069 0.0268543)
(0.952731 0.0124475 0.0246353)
(0.964662 0.0136201 0.0209799)
(0.94975 0.0133255 0.0196322)
(0.957155 0.0130177 0.0209619)
(0.94654 0.0125722 0.0204165)
(0.953962 0.0135311 0.0218708)
(0.951387 0.0116283 0.0221194)
(0.961408 0.0104343 0.0221024)
(0.955308 0.0121706 0.0204949)
(0.948844 0.0126828 0.0207388)
(0.946786 0.013505 0.0201102)
(0.942613 0.0134301 0.0197712)
(0.943806 0.0137058 0.0205632)
(0.936516 0.0136961 0.0203546)
(0.945472 0.0138666 0.0213435)
(0.938873 0.0136509 0.0188873)
(0.950022 0.0141511 0.0181655)
(0.941075 0.0125634 0.0208926)
(0.948175 0.0134215 0.0210544)
(0.937758 0.011974 0.0208672)
(0.951993 0.012914 0.0218885)
(0.989037 0.00761365 0.0291544)
(0.988398 0.00805022 0.0294386)
(0.989467 0.00758556 0.0290522)
(0.994687 0.0073932 0.0291577)
(0.996052 0.00652512 0.0288424)
(1.00122 0.00554006 0.0263817)
(1.00609 0.00493663 0.0233588)
(1.01111 0.00448682 0.0226478)
(1.00651 0.00552948 0.0211314)
(1.00286 0.00546159 0.0200513)
(1.00777 0.0054998 0.0234276)
(1.00093 0.00545674 0.0238208)
(1.01385 0.00617158 0.0223005)
(1.00643 0.0070304 0.0211886)
(1.01683 0.00762485 0.025383)
(0.998506 0.007881 0.0258255)
(1.00717 0.00771831 0.025581)
(0.981714 0.00745713 0.0255052)
(0.98922 0.00711741 0.0266853)
(0.977709 0.00700126 0.0262341)
(0.988487 0.00813395 0.0245896)
(0.97816 0.00889348 0.023216)
(0.983105 0.00848047 0.0242773)
(0.978499 0.00824502 0.0224294)
(0.979013 0.00879703 0.0203647)
(0.986811 0.00712227 0.0196622)
(0.99012 0.00574899 0.0175323)
(0.995347 0.00764582 0.0175954)
(0.986094 0.00833804 0.0190358)
(0.987317 0.00885654 0.0223879)
(0.982487 0.00853054 0.0225446)
(0.984881 0.00905129 0.025093)
(0.973931 0.00901152 0.0256161)
(0.984658 0.00870589 0.0291743)
(0.97823 0.00834136 0.0276236)
(0.99005 0.00883276 0.0267796)
(0.988091 0.00744002 0.0280102)
(0.989015 0.00848767 0.0283687)
(0.981769 0.00729434 0.0271551)
(0.986555 0.00734539 0.0289947)
(1.03055 0.000730775 0.0253127)
(1.02781 0.00147855 0.0252652)
(1.02699 0.00129071 0.0247001)
(1.03009 0.00142476 0.0240078)
(1.02889 0.000521631 0.0247814)
(1.03133 -0.000768028 0.0247455)
(1.03336 -0.00132101 0.0238064)
(1.03725 -0.00102972 0.0252191)
(1.03298 0.000878451 0.0255046)
(1.03081 0.00101917 0.0225129)
(1.03656 0.00128777 0.0236778)
(1.03342 0.00110657 0.0229109)
(1.04059 0.0015267 0.020183)
(1.0379 0.00239621 0.0155166)
(1.04719 0.00304276 0.0155556)
(1.0318 0.00368836 0.015569)
(1.03822 0.00351861 0.0146244)
(1.02062 0.00403999 0.0143298)
(1.02041 0.00289908 0.0163334)
(1.01099 0.00238562 0.0189088)
(1.00839 0.00266932 0.0205796)
(1.00563 0.00360164 0.0190354)
(1.00651 0.00299039 0.0207759)
(1.00498 0.00263373 0.0193234)
(0.997744 0.00289743 0.0194265)
(1.00767 0.00133264 0.0216409)
(1.00605 8.51565e-05 0.0227663)
(1.01499 0.00189465 0.0249536)
(1.00618 0.00322057 0.0271394)
(1.00952 0.0038659 0.0297522)
(1.00806 0.00317006 0.0283278)
(1.01453 0.00367312 0.0279225)
(1.00686 0.00374586 0.0273776)
(1.02154 0.00263403 0.0288949)
(1.0189 0.00191918 0.0282996)
(1.02469 0.00163314 0.0258884)
(1.02869 0.000469266 0.0255361)
(1.02802 0.0019252 0.0264316)
(1.02559 0.00152153 0.0252175)
(1.02467 0.00077383 0.0258038)
(1.04847 -0.00325813 0.0222499)
(1.04855 -0.0028205 0.0224445)
(1.049 -0.00317223 0.0230975)
(1.05331 -0.00314908 0.0231496)
(1.05238 -0.00323732 0.0248714)
(1.05386 -0.00407801 0.025386)
(1.05285 -0.00413785 0.0251146)
(1.05395 -0.0040866 0.0256428)
(1.04891 -0.00268555 0.0254143)
(1.04838 -0.00332657 0.0215233)
(1.05158 -0.00365725 0.0203436)
(1.0516 -0.00396073 0.0185098)
(1.05237 -0.00349195 0.016478)
(1.0465 -0.00304622 0.0140042)
(1.05236 -0.00235251 0.0132361)
(1.04072 -0.00101542 0.01328)
(1.04745 -0.00126512 0.0125192)
(1.04014 -0.000152813 0.0128194)
(1.04251 -0.00134082 0.0142554)
(1.04107 -0.00135315 0.016876)
(1.03572 -0.00100556 0.018664)
(1.03272 -0.000490909 0.0168187)
(1.03642 -0.000923261 0.0175208)
(1.03823 -0.000857559 0.0182242)
(1.03057 -0.0015556 0.0215812)
(1.03825 -0.00324109 0.0238331)
(1.03711 -0.00465161 0.0249046)
(1.0416 -0.00312563 0.0252909)
(1.03502 -0.00208058 0.0254225)
(1.03627 -0.00194759 0.026128)
(1.03623 -0.00298805 0.0242964)
(1.03904 -0.00252194 0.0223813)
(1.03421 -0.00244931 0.022177)
(1.04564 -0.00341153 0.0218158)
(1.04633 -0.00361271 0.0224702)
(1.04697 -0.00363212 0.0206455)
(1.04757 -0.00426674 0.0204424)
(1.04732 -0.0027135 0.0213392)
(1.04798 -0.0027344 0.0210347)
(1.04671 -0.00326131 0.0213488)
(1.05578 -0.00701864 0.0131577)
(1.05378 -0.00658709 0.0134124)
(1.05433 -0.00747271 0.0138595)
(1.05761 -0.00740168 0.0130052)
(1.05777 -0.00734461 0.0146677)
(1.05807 -0.00797643 0.0141596)
(1.05612 -0.0079514 0.013266)
(1.05548 -0.00768967 0.0125183)
(1.05098 -0.00682846 0.0126225)
(1.0514 -0.00763592 0.0105101)
(1.05283 -0.00804688 0.00981355)
(1.05453 -0.0080191 0.00864793)
(1.05397 -0.00712191 0.00741995)
(1.05078 -0.00666109 0.00785005)
(1.05364 -0.00625618 0.00794236)
(1.04823 -0.0049069 0.00891718)
(1.05281 -0.0056354 0.00782196)
(1.05192 -0.00452928 0.00811619)
(1.05478 -0.00588663 0.00846526)
(1.05722 -0.00572875 0.00875161)
(1.05466 -0.00488126 0.00893237)
(1.05133 -0.00478568 0.00774746)
(1.05463 -0.00575829 0.00733599)
(1.05833 -0.00478472 0.00682269)
(1.05555 -0.00531004 0.00795202)
(1.05976 -0.00677139 0.00893747)
(1.05868 -0.00780194 0.00889129)
(1.06001 -0.00638513 0.00837905)
(1.05589 -0.00559012 0.00855085)
(1.05617 -0.00610853 0.00970331)
(1.05653 -0.00693721 0.00923805)
(1.05765 -0.00629493 0.00855169)
(1.05548 -0.00685555 0.00875965)
(1.06067 -0.00814036 0.00903576)
(1.06175 -0.00823602 0.0103619)
(1.06233 -0.00791758 0.0103621)
(1.06063 -0.0083329 0.0105111)
(1.05929 -0.0070986 0.0111012)
(1.05951 -0.00729047 0.0109552)
(1.05747 -0.00708147 0.0111199)
(1.05366 -0.00729596 -0.000787905)
(1.05163 -0.00691245 -0.000261119)
(1.05116 -0.00789073 -0.000831619)
(1.05133 -0.00764311 -0.00204754)
(1.05109 -0.00747729 -0.00134392)
(1.04951 -0.00787429 -0.00159377)
(1.04683 -0.0077519 -0.0016507)
(1.04554 -0.00703977 -0.000847681)
(1.04342 -0.00668726 0.000660928)
(1.04433 -0.00778911 0.000351543)
(1.0446 -0.00843729 0.0009861)
(1.04568 -0.00858975 0.00105521)
(1.04447 -0.00798039 0.000817426)
(1.04483 -0.00773576 0.00125401)
(1.04559 -0.00753206 0.00131991)
(1.04531 -0.00646223 0.00127793)
(1.0475 -0.00724297 -0.000497294)
(1.04895 -0.00624703 -0.000888547)
(1.05083 -0.00732278 -0.00113836)
(1.05272 -0.00677662 -0.00184993)
(1.05017 -0.00552361 -0.00175625)
(1.04867 -0.00548333 -0.00232594)
(1.04985 -0.00689364 -0.0028019)
(1.05136 -0.00560002 -0.00384878)
(1.05039 -0.00560798 -0.00369899)
(1.05205 -0.00678288 -0.00305753)
(1.04996 -0.00724754 -0.00300609)
(1.04943 -0.00588154 -0.00320072)
(1.04787 -0.00508704 -0.00290087)
(1.04895 -0.00567918 -0.00189753)
(1.04996 -0.00641327 -0.00145609)
(1.05103 -0.00614849 -0.00147803)
(1.05255 -0.00712304 -0.00192341)
(1.05556 -0.00836664 -0.00226798)
(1.05662 -0.00831387 -0.00161965)
(1.05803 -0.008083 -0.00117996)
(1.05687 -0.00821587 -0.00104839)
(1.05654 -0.00751975 -0.000531615)
(1.0564 -0.00756009 -0.00140771)
(1.0552 -0.00716014 -0.00157949)
(1.03913 -0.00576368 -0.00689355)
(1.03873 -0.00550251 -0.00635962)
(1.038 -0.00637361 -0.00679702)
(1.0373 -0.0062101 -0.00749641)
(1.03707 -0.00592338 -0.00701717)
(1.03561 -0.00614816 -0.00663478)
(1.03373 -0.00612698 -0.00640126)
(1.03274 -0.00556456 -0.00574832)
(1.03246 -0.00567488 -0.00472201)
(1.03338 -0.00664179 -0.00520901)
(1.03306 -0.00703922 -0.00458221)
(1.03335 -0.00714714 -0.0044066)
(1.03249 -0.00656452 -0.00413311)
(1.03347 -0.00630458 -0.00404953)
(1.03358 -0.00604335 -0.00394067)
(1.03435 -0.00533564 -0.00437776)
(1.0348 -0.00610888 -0.00574466)
(1.03593 -0.00544131 -0.0063478)
(1.0368 -0.00616353 -0.00659588)
(1.03744 -0.00556273 -0.00717165)
(1.03574 -0.00436488 -0.00667233)
(1.0353 -0.00451833 -0.0066775)
(1.03532 -0.00606369 -0.00690028)
(1.03511 -0.00474996 -0.00745427)
(1.03516 -0.0044878 -0.00728513)
(1.03571 -0.0054907 -0.00721728)
(1.03406 -0.00578057 -0.00710125)
(1.03324 -0.00483225 -0.00731862)
(1.03294 -0.00427095 -0.00736962)
(1.03434 -0.00491522 -0.00703145)
(1.03522 -0.00578592 -0.0065084)
(1.03565 -0.0057352 -0.0061675)
(1.03685 -0.00674972 -0.00637683)
(1.0381 -0.00762428 -0.00685309)
(1.03822 -0.00747061 -0.00654368)
(1.03914 -0.0070157 -0.00656964)
(1.03866 -0.00691745 -0.00638703)
(1.03898 -0.00644325 -0.00615502)
(1.03914 -0.00633029 -0.00687061)
(1.03943 -0.0058702 -0.00707742)
(1.02721 -0.0041096 -0.00691907)
(1.02752 -0.00386173 -0.00672888)
(1.02694 -0.00459665 -0.00686662)
(1.02642 -0.00455253 -0.00738176)
(1.02648 -0.00439723 -0.00698995)
(1.02586 -0.00444005 -0.00674221)
(1.02497 -0.00446002 -0.00663931)
(1.02459 -0.00395958 -0.00632963)
(1.02506 -0.00404108 -0.00586044)
(1.02577 -0.00456963 -0.00656466)
(1.02559 -0.00467958 -0.00634179)
(1.02542 -0.00472417 -0.00634471)
(1.02491 -0.00432294 -0.00614537)
(1.02543 -0.00414918 -0.00617638)
(1.02553 -0.00402058 -0.00609861)
(1.02621 -0.00369201 -0.00650968)
(1.02598 -0.00442488 -0.0071223)
(1.02617 -0.00402512 -0.00748973)
(1.02643 -0.00462705 -0.00730843)
(1.02635 -0.0043432 -0.0077)
(1.02593 -0.0033977 -0.00723427)
(1.02623 -0.00361815 -0.00704655)
(1.02597 -0.00493758 -0.00690296)
(1.0255 -0.00406031 -0.00730622)
(1.02627 -0.00378567 -0.00749908)
(1.02629 -0.00467019 -0.00738398)
(1.02519 -0.00473596 -0.00716566)
(1.02437 -0.00399076 -0.00738489)
(1.02456 -0.00340757 -0.00774398)
(1.02573 -0.00389155 -0.0077468)
(1.02638 -0.00438747 -0.00732606)
(1.02675 -0.00433208 -0.0069006)
(1.02729 -0.00502667 -0.00690998)
(1.02731 -0.00575126 -0.00716174)
(1.02681 -0.00561647 -0.00667922)
(1.02711 -0.00529693 -0.00669761)
(1.02684 -0.00513644 -0.00647406)
(1.02694 -0.00478629 -0.00638802)
(1.02702 -0.00470953 -0.00673778)
(1.02727 -0.00430568 -0.00707149)
(1.02069 -0.00278158 -0.00404486)
(1.02107 -0.00261069 -0.00398688)
(1.02085 -0.0031328 -0.00400416)
(1.02057 -0.00312958 -0.00436703)
(1.0207 -0.00305158 -0.00400916)
(1.02046 -0.00301271 -0.00389399)
(1.02015 -0.00294497 -0.00389944)
(1.02011 -0.00253717 -0.00371699)
(1.02058 -0.00256684 -0.00346333)
(1.02093 -0.00299771 -0.0040899)
(1.02082 -0.00306339 -0.00407131)
(1.02055 -0.00320586 -0.00410737)
(1.02023 -0.00297864 -0.00401161)
(1.02048 -0.00281864 -0.00402711)
(1.02066 -0.00269637 -0.00403778)
(1.02108 -0.00243511 -0.00434734)
(1.02077 -0.00293307 -0.00454756)
(1.0206 -0.00256019 -0.00466642)
(1.02074 -0.00301509 -0.00428229)
(1.02037 -0.00285591 -0.00443329)
(1.02026 -0.00213919 -0.00412551)
(1.02092 -0.00229861 -0.00398655)
(1.02058 -0.00337165 -0.00374823)
(1.02008 -0.00278014 -0.0039962)
(1.0208 -0.00252166 -0.00424493)
(1.02083 -0.00315086 -0.00404596)
(1.02014 -0.00320883 -0.00385817)
(1.0196 -0.00262704 -0.00401888)
(1.01983 -0.00217522 -0.00450033)
(1.02058 -0.00251027 -0.00461129)
(1.02081 -0.00285349 -0.00434811)
(1.02092 -0.00290224 -0.00403993)
(1.02108 -0.00350148 -0.00407552)
(1.02079 -0.00417539 -0.00417043)
(1.02044 -0.00405177 -0.00372869)
(1.02053 -0.00381818 -0.00381853)
(1.02036 -0.00363837 -0.00373401)
(1.02042 -0.00335053 -0.00374993)
(1.0206 -0.00330388 -0.00391879)
(1.0207 -0.00299574 -0.00419522)
(1.01881 -0.00171329 -0.00169629)
(1.01906 -0.00155287 -0.00166683)
(1.01901 -0.00190471 -0.0016906)
(1.01883 -0.00192481 -0.00195361)
(1.01891 -0.0019311 -0.00165687)
(1.01877 -0.0018749 -0.00162701)
(1.01858 -0.00177193 -0.00167462)
(1.01861 -0.00148162 -0.00158447)
(1.01888 -0.00146516 -0.00139612)
(1.01905 -0.0018156 -0.00183251)
(1.01894 -0.00185374 -0.00184315)
(1.01878 -0.00195302 -0.00191678)
(1.01862 -0.00176516 -0.00190031)
(1.01877 -0.00157566 -0.00185352)
(1.01894 -0.00148307 -0.00184409)
(1.01912 -0.00129351 -0.00198533)
(1.019 -0.00160265 -0.00207275)
(1.0188 -0.00131795 -0.00208637)
(1.01898 -0.00166531 -0.00170573)
(1.0187 -0.00166304 -0.00172146)
(1.01858 -0.0011641 -0.00147866)
(1.0192 -0.00121189 -0.00141434)
(1.01905 -0.00200536 -0.00129341)
(1.01864 -0.00166039 -0.00141944)
(1.01911 -0.00141982 -0.00154833)
(1.01922 -0.00192237 -0.00143126)
(1.01887 -0.00197651 -0.00136606)
(1.01857 -0.00159243 -0.00147037)
(1.01865 -0.00123848 -0.00180589)
(1.01905 -0.00144842 -0.0018512)
(1.01916 -0.00169373 -0.00169496)
(1.01926 -0.00176548 -0.00153877)
(1.01936 -0.00220663 -0.00164986)
(1.01912 -0.00270999 -0.00170844)
(1.01889 -0.00261866 -0.00138281)
(1.01891 -0.00245675 -0.00148752)
(1.0188 -0.00233475 -0.00150203)
(1.01878 -0.00208045 -0.00155327)
(1.01889 -0.00208281 -0.001608)
(1.01883 -0.0018967 -0.00174433)
(1.01873 -0.000956747 -0.000372002)
(1.01891 -0.000817173 -0.000334061)
(1.01888 -0.00111438 -0.000357721)
(1.01877 -0.00112372 -0.000580426)
(1.01882 -0.00118047 -0.000340401)
(1.0187 -0.0011631 -0.000353367)
(1.01853 -0.00105231 -0.000405967)
(1.01857 -0.000840442 -0.000379095)
(1.01871 -0.000781834 -0.000226853)
(1.01882 -0.00104658 -0.000517717)
(1.01872 -0.00107232 -0.000522463)
(1.01862 -0.00111303 -0.000609359)
(1.01852 -0.000995667 -0.000631965)
(1.01862 -0.000804909 -0.000533512)
(1.01875 -0.000790294 -0.000520574)
(1.01881 -0.000646347 -0.000524982)
(1.0188 -0.00091 -0.00061427)
(1.01865 -0.000653736 -0.000615577)
(1.01884 -0.000883716 -0.000338133)
(1.0187 -0.000915664 -0.000316234)
(1.01853 -0.000553304 -0.000111502)
(1.01902 -0.0005775 -7.60995e-05)
(1.01897 -0.00115968 -3.00674e-05)
(1.01867 -0.000949093 -9.86094e-05)
(1.01894 -0.000748515 -0.00013396)
(1.01902 -0.00113818 -3.65299e-05)
(1.01878 -0.00119142 5.15204e-06)
(1.01857 -0.000947705 -4.02112e-05)
(1.01854 -0.000630091 -0.000240883)
(1.0188 -0.000698664 -0.000204705)
(1.0189 -0.000871169 -0.000134446)
(1.01902 -0.000936287 -8.58414e-05)
(1.01912 -0.00127485 -0.000223218)
(1.01897 -0.00161744 -0.000286068)
(1.01883 -0.00157596 -6.40955e-05)
(1.01884 -0.00146202 -0.000170895)
(1.01877 -0.00143367 -0.000217749)
(1.01872 -0.00119061 -0.000289523)
(1.01882 -0.00122644 -0.000306116)
(1.01873 -0.00109379 -0.000364678)
(1.01896 -0.000582206 0.000108043)
(1.01908 -0.000477953 0.000142962)
(1.01904 -0.000679193 0.00012575)
(1.01897 -0.000681607 -6.32096e-05)
(1.019 -0.000743606 0.000110609)
(1.01891 -0.000744012 8.50661e-05)
(1.01876 -0.000613737 5.10293e-05)
(1.01879 -0.000466276 5.09068e-05)
(1.01885 -0.000376199 0.00016539)
(1.01894 -0.000572002 -3.54882e-05)
(1.01887 -0.00058098 -4.80527e-05)
(1.01879 -0.000598627 -0.000109791)
(1.01872 -0.000526773 -0.000149018)
(1.01879 -0.000354328 -3.33017e-05)
(1.01891 -0.000385366 -3.5926e-05)
(1.01893 -0.000271976 1.92692e-05)
(1.01896 -0.000464879 -3.25561e-05)
(1.01882 -0.000254671 -3.29367e-05)
(1.01899 -0.000396237 0.000172097)
(1.01893 -0.000453164 0.000191025)
(1.01877 -0.000195866 0.000347372)
(1.01914 -0.000219262 0.000367481)
(1.01912 -0.000610197 0.000400165)
(1.0189 -0.000519835 0.000363824)
(1.01908 -0.000359788 0.000358817)
(1.01913 -0.00064106 0.000434902)
(1.01897 -0.000680043 0.000470168)
(1.01881 -0.000548065 0.000457575)
(1.01875 -0.000306176 0.000323373)
(1.01893 -0.000279282 0.000393013)
(1.01903 -0.000411528 0.000409768)
(1.01914 -0.000455399 0.000429004)
(1.01921 -0.000725919 0.000316986)
(1.01911 -0.000940375 0.000251651)
(1.01902 -0.000953747 0.000400216)
(1.01904 -0.00087534 0.000293783)
(1.01899 -0.000910317 0.000251393)
(1.01893 -0.000693852 0.000185903)
(1.01901 -0.000744208 0.000164762)
(1.01894 -0.000665343 0.000149044)
(1.01913 -0.000335799 0.000230347)
(1.01922 -0.000275685 0.000258906)
(1.01916 -0.000396729 0.000257975)
(1.01911 -0.000405106 0.000101879)
(1.01915 -0.000443288 0.000224124)
(1.01908 -0.000476011 0.000200128)
(1.01894 -0.000358447 0.000167432)
(1.01896 -0.000270546 0.000152746)
(1.01898 -0.000168411 0.000227118)
(1.01906 -0.000307466 8.84178e-05)
(1.01902 -0.000316019 6.93056e-05)
(1.01894 -0.000294766 3.96501e-05)
(1.0189 -0.000271914 -1.78775e-05)
(1.01895 -0.000108399 9.73348e-05)
(1.01906 -0.000172743 7.05711e-05)
(1.01905 -6.76819e-05 0.000154225)
(1.0191 -0.000233804 0.000133152)
(1.01898 -7.3878e-05 0.000129537)
(1.0191 -0.000140081 0.000289475)
(1.0191 -0.000215251 0.00028984)
(1.01894 -1.4765e-05 0.00041306)
(1.01922 -6.02409e-05 0.000418373)
(1.01921 -0.000309069 0.000451832)
(1.01907 -0.000300378 0.00043516)
(1.0192 -0.000167501 0.000429947)
(1.01922 -0.000378328 0.000494226)
(1.01912 -0.000413902 0.000520067)
(1.019 -0.000336628 0.000530278)
(1.01894 -0.000161828 0.000434708)
(1.01906 -8.10622e-05 0.000515004)
(1.01915 -0.000184254 0.000515907)
(1.01924 -0.000196475 0.000518281)
(1.01929 -0.000411368 0.000445744)
(1.01922 -0.000527864 0.000381414)
(1.01918 -0.000563358 0.000485153)
(1.01918 -0.000493319 0.000391888)
(1.01915 -0.000565082 0.000365711)
(1.01909 -0.000388237 0.000310191)
(1.01915 -0.00042684 0.000271652)
(1.0191 -0.000378536 0.00028591)
(1.01922 -0.000202992 0.00022865)
(1.01929 -0.00019092 0.000244607)
(1.01924 -0.000245859 0.000255759)
(1.01919 -0.000259139 0.000133877)
(1.01922 -0.000278584 0.000208394)
(1.01918 -0.000338497 0.000191225)
(1.01906 -0.000227144 0.000157898)
(1.01908 -0.000176958 0.000148499)
(1.01907 -7.58688e-05 0.000190983)
(1.01912 -0.000159877 0.000100465)
(1.01911 -0.000173466 6.81544e-05)
(1.01903 -0.000116598 6.76404e-05)
(1.01902 -0.000135045 -6.92217e-08)
(1.01905 1.97422e-05 0.000103357)
(1.01914 -6.24551e-05 6.42518e-05)
(1.01913 2.78972e-05 0.000146576)
(1.01918 -0.000103094 0.000149407)
(1.01908 1.147e-05 0.000143689)
(1.01916 -2.1364e-06 0.000277479)
(1.0192 -9.97454e-05 0.000261882)
(1.01905 7.33104e-05 0.00035463)
(1.01927 1.55663e-05 0.000353273)
(1.01926 -0.000118425 0.000382987)
(1.01917 -0.000153271 0.000385065)
(1.01927 -5.87158e-05 0.000373999)
(1.01927 -0.000204742 0.000428073)
(1.01921 -0.000228679 0.000442637)
(1.01912 -0.000173914 0.000468685)
(1.01907 -6.89617e-05 0.000392046)
(1.01915 3.15631e-05 0.000467689)
(1.01923 -5.19247e-05 0.000458515)
(1.0193 -3.99244e-05 0.000455294)
(1.01933 -0.000205311 0.000425021)
(1.01929 -0.000271981 0.000361319)
(1.01926 -0.000309368 0.000437597)
(1.01926 -0.000264489 0.0003558)
(1.01924 -0.000347907 0.000343249)
(1.01919 -0.000229908 0.000304896)
(1.01923 -0.000245998 0.00025786)
(1.0192 -0.000226792 0.000286176)
(1.01927 -0.000115688 0.00019319)