# y+ ()       
# Time        	patch         	min           	max           	average       
94            	bottomWall	2.696391e+00	4.937122e+00	3.583475e+00
94            	topWall	2.794601e+00	4.876868e+00	3.611171e+00
