# y+ ()       
# Time        	patch         	min           	max           	average       
78            	bottomWall	2.702070e+00	5.270067e+00	3.561111e+00
78            	topWall	2.837773e+00	5.323056e+00	3.604209e+00
