/*--------------------------------*- C++ -*----------------------------------*\
  =========                 |
  \\      /  F ield         | OpenFOAM: The Open Source CFD Toolbox
   \\    /   O peration     | Website:  https://openfoam.org
    \\  /    A nd           | Version:  10
     \\/     M anipulation  |
\*---------------------------------------------------------------------------*/
FoamFile
{
    format      ascii;
    class       surfaceScalarField;
    location    "7";
    object      phi_0;
}
// * * * * * * * * * * * * * * * * * * * * * * * * * * * * * * * * * * * * * //

dimensions      [0 3 -1 0 0 0 0];

internalField   nonuniform List<scalar> 
74080
(
0.00522448
7.29789e-05
-3.44867e-05
0.00518278
0.000122469
-0.000149685
0.00518313
0.000154828
-0.000175242
0.00521893
0.000134331
-0.000102729
0.00527611
5.30755e-05
3.90208e-05
0.00534993
-3.6568e-05
0.000134374
0.00544331
-7.37284e-05
9.8457e-05
0.00553147
-4.37068e-05
-4.89464e-05
0.00558103
6.15509e-05
-0.000239486
0.00557966
0.000195517
-0.000380356
0.00555522
0.000225484
-0.000380393
0.00552512
0.000138241
-0.000277088
0.00551418
-6.29739e-06
-0.000138012
0.00552134
-0.000131164
-8.85154e-06
0.00551996
-0.000177598
3.49019e-05
0.00551781
-0.00016505
8.27644e-06
0.00550302
-0.000130934
-2.70231e-05
0.00546519
-7.89548e-05
-4.38637e-05
0.0054152
-3.56044e-05
-3.83871e-05
0.00536234
-1.97679e-06
-3.97684e-05
0.00531264
2.08486e-05
-5.38904e-05
0.0052831
1.51638e-05
-7.23474e-05
0.00526557
2.54012e-05
-2.32197e-05
0.00525598
2.65388e-05
9.41912e-05
0.00526818
2.34016e-05
0.000215777
0.00529262
3.13668e-05
0.00031951
0.00535129
1.57168e-05
0.000341508
0.00544363
-1.7062e-05
0.00026166
0.00552489
-3.8508e-05
0.00014527
0.00556101
-3.51048e-05
7.78866e-05
0.0055161
-1.87409e-05
7.75948e-05
0.00539623
-1.04224e-06
0.000108929
0.00528089
1.62238e-05
0.000139349
0.00524672
2.16469e-05
0.000112797
0.00530201
5.5457e-05
3.79893e-05
0.00541333
0.000107138
-2.07054e-05
0.00551047
0.000123822
-9.83743e-06
0.00552092
0.000111889
7.62668e-05
0.00543482
8.10543e-05
0.000137941
5.61408e-05
9.34895e-05
0.00478427
4.94819e-05
-0.000453466
0.0048153
9.90316e-05
-0.000435701
0.00486298
0.000147594
-0.000303556
0.00490156
0.000127525
-0.000114768
0.00489083
4.18374e-05
0.000117152
0.00483383
-3.94588e-05
0.000297256
0.00479666
-6.59172e-05
0.000322939
0.00481058
-7.62389e-06
0.000204201
0.00487214
0.000134746
-3.01611e-05
0.00495925
0.000250128
-0.000240043
0.00502548
0.000232454
-0.000311574
0.00504484
0.000121407
-0.000305128
0.00503613
-2.13836e-05
-0.000275936
0.00501497
-0.000116646
-0.000206022
0.0049699
-0.000132255
-8.43404e-05
0.00490468
-0.000115952
6.11843e-05
0.00481299
-9.45311e-05
0.000142962
0.00472668
-8.09781e-05
0.000123243
0.00467645
-8.27426e-05
3.76835e-05
0.00468573
-8.94677e-05
-7.38062e-05
0.0047357
-8.03527e-05
-0.000159383
0.00479311
-5.9632e-05
-0.000216728
0.00484376
-1.89026e-05
-0.000186059
0.00485623
1.11654e-05
-5.75855e-05
0.00482597
2.33096e-05
0.000102576
0.00477967
2.52506e-05
0.000249986
0.00476226
-2.65348e-05
0.00031495
0.00479148
-0.000100914
0.000251708
0.00481922
-0.000123463
0.000147135
0.00481512
-8.51552e-05
0.000103305
0.00477416
-9.14357e-06
0.000161273
0.00471707
6.1388e-05
0.000301007
0.00471082
9.56128e-05
0.000382683
0.00477454
8.95258e-05
0.000308987
0.00486347
0.000110119
0.000127766
0.0049385
0.000136141
-7.01645e-05
0.00496201
0.000131826
-0.000201685
0.00492698
0.000110252
-0.000256998
0.00485976
7.22595e-05
-0.000313971
4.06725e-05
-0.000388604
0.00440712
6.40619e-05
-0.000394122
0.00446319
0.000131621
-0.00032977
0.00449621
0.000165319
-0.000226094
0.00450348
0.00011202
-0.000132359
0.00445986
1.4903e-05
-6.17969e-06
0.00437785
-4.70121e-05
0.000127324
0.00430213
-7.60388e-05
0.000220334
0.00426421
-2.80468e-05
0.000225506
0.00431594
9.17991e-05
0.000115471
0.00445076
0.000173264
1.11458e-05
0.00454866
0.000180787
2.99167e-05
0.00451694
0.000130412
0.000108835
0.00434622
4.91979e-05
0.000123142
0.00410238
-1.73946e-05
4.94679e-05
0.00389471
-8.35073e-05
-4.22348e-05
0.00379315
-0.000159485
-0.000113792
0.00378694
-0.000210473
-0.000135155
0.00383178
-0.000223645
-0.000110946
0.00389783
-0.000209047
-5.15743e-05
0.0039666
-0.000185844
1.0687e-05
0.0040153
-0.000142178
4.20718e-05
0.00405345
-8.82722e-05
2.29136e-05
0.00409509
-3.92407e-05
3.61496e-06
0.00412579
-1.0319e-05
2.76822e-05
0.00413548
-8.12405e-07
8.2652e-05
0.00413845
-1.90598e-05
0.000155428
0.00416368
-0.000100493
0.000194985
0.00421687
-0.000195108
0.00017926
0.00429205
-0.000245285
0.000187062
0.00438119
-0.000212772
0.000231716
0.00442369
-9.44661e-05
0.000304164
0.00441236
3.03448e-05
0.000366311
0.00441018
9.28559e-05
0.000304082
0.00442039
0.000118117
0.00012021
0.0044362
0.000151985
-7.70582e-05
0.00442151
0.000158414
-0.000218167
0.00435992
0.000114056
-0.000255244
0.00430791
5.03808e-05
-0.00026866
0.00429707
7.36017e-06
-0.000323857
1.07824e-05
-0.000378349
0.0038449
2.15603e-05
-0.000360517
0.00387491
7.66422e-05
-0.000161955
0.00390396
0.000101024
-2.68545e-05
0.00389964
6.67367e-05
-3.48785e-05
0.0038425
2.72609e-05
-9.83898e-05
0.00377613
2.55399e-06
-0.000148602
0.00376584
-4.087e-05
-0.000112258
0.00381943
-1.48714e-05
7.54565e-06
0.00388892
7.38162e-05
0.000149188
0.00388205
0.000167483
0.000264847
0.00377085
0.000207913
0.000280396
0.00362922
0.0001608
0.000175758
0.00352031
7.35411e-05
2.00555e-05
0.00344639
1.05654e-05
-8.37508e-05
0.00340555
-4.31653e-05
-0.000124638
0.00339288
-0.00011227
-0.000145184
0.00338183
-0.000177663
-0.000131414
0.00337363
-0.000225356
-9.27436e-05
0.00337143
-0.000251354
-1.83283e-05
0.00337578
-0.000259566
7.05987e-05
0.00340927
-0.000223563
0.000100208
0.00347071
-0.000144783
7.707e-05
0.00355007
-7.50881e-05
6.97498e-05
0.00361395
-4.30005e-05
8.2338e-05
0.0036428
-3.6662e-05
9.0345e-05
0.00366748
-7.14578e-05
8.38943e-05
0.00369601
-0.00015331
4.57652e-05
0.0037333
-0.000252014
7.45429e-05
0.00381957
-0.000338052
0.000228108
0.00390883
-0.000297004
0.000393086
0.00394873
-0.000136688
0.000458418
0.00399091
-3.86544e-05
0.000318964
0.00404451
-9.29522e-06
-3.0016e-05
0.00406289
3.48326e-05
-0.000340091
0.00401744
0.000106218
-0.000406651
0.00391587
0.000150115
-0.000290604
0.00383057
0.000114471
-0.000151157
0.00379662
3.81079e-05
-0.000170861
0.00379823
-1.87293e-05
-0.00032433
-2.5392e-05
-0.00042378
0.00348135
-7.58563e-05
-0.000171831
0.00357546
-5.98405e-06
-6.24763e-05
0.00361368
5.4741e-05
-6.06894e-05
0.00355555
4.99471e-05
-0.000130744
0.0034298
1.42557e-05
-0.000146348
0.00332252
-4.01469e-05
-9.39539e-05
0.00328747
-9.43784e-05
1.88863e-05
0.00332082
-6.69603e-05
8.20587e-05
0.00337752
2.44903e-05
1.75646e-05
0.00339983
0.000119683
-6.2908e-05
0.0033596
0.000152154
-4.7239e-05
0.0032848
0.000110758
9.44377e-05
0.00323375
7.28308e-05
0.000280817
0.00323865
0.000103633
0.000327304
0.00329354
0.000116329
0.00018454
0.00334654
4.389e-05
-9.00447e-06
0.00336408
-5.6998e-05
-0.000125279
0.00336111
-0.00014273
-0.000130499
0.00334062
-0.000202764
-7.69074e-05
0.00329063
-0.000213284
-6.90627e-05
0.00321676
-0.000177713
-0.00013037
0.0031495
-0.000130391
-0.000196642
0.00314788
-0.000129587
-0.000211824
0.00322152
-0.000129939
-0.00015077
0.00334042
-0.000102345
-1.03386e-05
0.00345307
-8.93253e-05
0.000132589
0.00346998
-0.000100199
0.000217343
0.00342273
-0.000182492
0.000308288
0.00343097
-0.000309149
0.000394423
0.00350387
-0.000323344
0.000341238
0.00358019
-0.000235431
0.000130508
0.00361108
-9.76653e-05
-0.000206145
0.00356711
1.90483e-05
-0.000491917
0.00351341
8.03409e-05
-0.000531905
0.00348329
0.000119377
-0.000372414
0.00346453
0.000148267
-0.000164375
0.00343684
0.000134116
-3.41232e-05
0.00339501
7.15988e-05
-7.38547e-05
0.00337762
-3.02907e-05
-0.000182226
-9.44645e-05
-0.00023064
0.00321108
1.86846e-05
-1.84099e-05
0.00319176
5.49256e-05
0.000208852
0.0031955
3.73907e-05
0.000170638
0.00321046
-2.62325e-05
-1.71355e-05
0.00320307
-7.7325e-05
-0.000162526
0.00317672
-0.000119491
-0.000169993
0.00315646
-0.00015461
-4.59729e-05
0.00317427
-0.000142362
7.53701e-05
0.00321397
-6.85968e-05
0.000104992
0.00322989
3.38143e-05
0.000122627
0.00318505
9.59188e-05
0.000194201
0.00312863
7.29469e-05
0.000293024
0.00316192
1.76881e-05
0.000371479
0.00327792
3.39929e-05
0.000388311
0.0033782
2.07416e-05
0.000344387
0.00337011
-6.59132e-05
0.000247666
0.00328206
-9.28879e-05
6.82808e-05
0.00317806
-4.73803e-05
-0.000106694
0.00306289
-1.5645e-05
-0.000194623
0.00294067
-3.01453e-05
-0.000263275
0.00284727
-8.61568e-05
-0.000290313
0.00282843
-0.000180002
-0.000236997
0.00292658
-0.000308027
-7.18213e-05
0.00307577
-0.000343891
0.000207084
0.00316613
-0.00019204
0.000374143
0.00311612
4.15813e-05
0.000314895
0.00295852
0.000121624
0.000161297
0.00286244
-8.74521e-05
0.000134915
0.00289689
-0.000338666
0.000226865
0.00299519
-0.000379293
0.00014684
0.0031344
-0.000270011
-0.00015477
0.00320413
-8.01028e-05
-0.000424419
0.00316031
9.84542e-05
-0.00056121
0.00309872
0.000132266
-0.00048223
0.00308511
0.00010093
-0.000288312
0.00309392
8.88705e-05
-8.78538e-05
0.00308238
7.26313e-05
2.37118e-05
0.00308422
1.7097e-05
-4.60101e-05
0.0031405
-6.89257e-05
-0.000207582
-5.93948e-05
-0.000234642
0.00284887
0.000189931
-8.27415e-05
0.00274505
8.79395e-05
0.000102723
0.00272964
-3.70897e-05
2.63741e-05
0.00277761
-7.65964e-05
-6.79971e-05
0.00280082
-7.47189e-05
-4.21097e-05
0.00278007
-9.28078e-05
7.52383e-06
0.002757
-9.23848e-05
3.54269e-06
0.00281821
-5.81934e-05
-5.56782e-05
0.00291563
1.93765e-05
-8.20274e-06
0.00293595
0.000168322
0.000127619
0.00288149
0.000210854
0.000219525
0.00287633
4.24295e-05
0.00026483
0.00299777
-0.000173674
0.000242426
0.00312361
-0.000210472
0.000202643
0.00310966
-0.000206212
0.000197404
0.00298045
-0.000234681
0.000142674
0.00283888
-0.000137825
1.83142e-05
0.00271746
2.49615e-05
-0.000124378
0.00261426
7.96724e-05
-0.000277417
0.00255408
-4.66377e-06
-0.000352346
0.00253316
-0.000141756
-0.000246402
0.00256248
-0.00028477
-8.23792e-05
0.00269784
-0.000450246
6.37363e-05
0.00286498
-0.00039742
0.000209063
0.00291054
-1.7734e-05
0.000262858
0.00279049
0.000373208
0.000237654
0.00262804
0.000385137
0.00018288
0.00257663
-5.12435e-05
0.000138555
0.00260468
-0.000369723
4.07072e-05
0.0026769
-0.000321213
-0.000173919
0.00275442
-0.000191811
-0.00025591
0.00275453
-2.5882e-05
-0.000206099
0.00270832
0.000136881
-0.000209868
0.00270267
0.000146827
-0.000192595
0.00276899
5.17335e-05
-5.91517e-05
0.00282014
-1.05941e-05
0.000193595
0.00282067
-2.99671e-06
0.000319276
0.00284209
1.47328e-06
0.000127392
0.00288269
-1.60528e-06
-0.000204627
0.000112459
-0.000313893
0.00255915
0.000180548
0.000118771
0.00240372
8.6251e-05
0.000162469
0.00230221
-3.39467e-05
-3.23734e-05
0.00224181
-1.85603e-05
-0.000143781
0.0022676
-7.57697e-05
-0.000120997
0.00239917
-0.000207692
-0.000124813
0.00253783
-0.000199238
-0.000187727
0.00255424
-2.01095e-05
-0.000197592
0.00246435
0.000210898
-9.26333e-05
0.00247683
0.000264525
-6.1727e-06
0.00262938
0.000119371
2.36791e-05
0.0027258
-4.56629e-05
6.25242e-06
0.00268249
-0.000158593
-5.60304e-05
0.00256637
-0.00015519
-5.06159e-05
0.00245858
-0.000212056
2.7291e-05
0.0023879
-0.000284785
7.03535e-05
0.00237705
-0.000135605
2.76253e-05
0.00241144
1.35125e-05
-6.69899e-05
0.00239947
5.40998e-05
-0.000260493
0.00232336
2.67453e-05
-0.000326239
0.00222892
-0.000100004
-0.000105162
0.00218488
-0.000221616
9.77132e-05
0.00218792
-0.000336336
0.00017359
0.00220906
-0.000261428
0.000102544
0.00229973
6.66666e-05
-1.18657e-05
0.00239066
0.000443083
-5.824e-05
0.00239338
0.000398098
-0.000117602
0.00235083
-0.000184304
-8.37411e-05
0.00229997
-0.000500885
-7.54505e-06
0.00229044
-0.000360472
-5.34222e-05
0.00232415
-0.000191728
-8.55088e-05
0.00240203
-2.83899e-05
-0.000131979
0.00252934
0.000128686
-0.00019002
0.00262597
0.000144735
-8.85733e-05
0.00265732
6.19932e-05
0.000132271
0.00263673
9.615e-06
0.000301676
0.00259833
-1.91268e-06
0.000258265
0.002613
-0.000107009
8.17212e-05
0.00267132
-0.000163265
-7.76375e-05
2.76507e-05
-7.24253e-05
0.00204838
9.00875e-05
-1.20708e-05
0.00204265
1.22702e-05
8.60853e-05
0.00207949
-0.000140771
-3.76254e-05
0.00206859
-0.000123551
-0.000170875
0.00203334
-0.00016222
-0.000191743
0.00205505
-0.000299819
-0.000192531
0.0021726
-0.000303708
-0.000181966
0.00229439
-4.55016e-05
-0.000160392
0.002398
0.000279291
-5.89985e-05
0.00258833
0.000162478
0.000145178
0.00276843
-5.595e-05
0.00027621
0.0027427
-5.45182e-05
0.000241465
0.0025844
-6.79872e-05
7.20671e-05
0.00245061
-6.80621e-05
-6.14255e-05
0.00236625
-0.000153487
8.37389e-06
0.00225243
-0.000266898
0.000257897
0.00216037
-0.000174055
0.000375012
0.00211313
-0.0001131
0.000227491
0.00200838
-1.4419e-05
-6.07558e-05
0.00188769
1.23675e-05
-0.000168402
0.0018487
-0.000104667
-6.97065e-05
0.00189205
-0.000159485
3.34546e-05
0.00198212
-0.000267209
0.000113195
0.00211111
-0.000372947
7.235e-05
0.00223716
-0.000154452
-7.49625e-05
0.00226463
0.000271213
-0.000216286
0.00226183
0.000164925
-0.000246763
0.00220801
-0.000403329
-2.94027e-05
0.00207929
-0.000596991
0.000189237
0.00200192
-0.000381993
9.39885e-05
0.00204895
-0.000281349
-0.000112706
0.00218834
-0.00021546
-0.000243111
0.00230265
-2.33338e-05
-0.000164764
0.00228211
0.000156176
0.000119344
0.00225531
0.000159866
0.000344117
0.00232706
5.98948e-05
0.000340744
0.00241006
-3.5792e-05
0.000224337
0.00241508
-0.00023043
0.00010413
0.00231414
-0.000316478
-7.76767e-05
-9.71331e-05
-0.000152091
0.00192508
8.0303e-05
2.63809e-05
0.00190769
4.69206e-05
-1.13143e-05
0.00184482
-8.83565e-05
-0.000169621
0.00178494
-0.000121949
-0.000169953
0.00177397
-0.00023386
-3.29306e-05
0.00179692
-0.000418609
3.56164e-05
0.00190879
-0.000453615
9.30654e-05
0.00215113
-0.000235571
0.000249029
0.00239815
9.60504e-05
0.000530494
0.00243966
0.000145279
0.000662654
0.00229527
6.75662e-05
0.000493767
0.00222109
3.88578e-05
0.000212961
0.00222624
7.34646e-07
7.78124e-09
0.00213532
9.62641e-05
-8.2628e-05
0.00203823
-2.844e-05
-5.35666e-05
0.00206688
-0.000322243
0.000142096
0.00211191
-0.000234451
0.000260927
0.00197091
2.19237e-07
0.000113421
0.00173323
7.15622e-05
-8.25495e-05
0.00162727
-0.000112434
-0.000111319
0.00167823
-0.000303117
-2.81128e-05
0.00179176
-0.000247283
0.00011461
0.00193629
-0.000275698
0.000206151
0.00205042
-0.000354742
6.96437e-05
0.00208932
-0.000181052
-0.000132315
0.00209161
0.000157283
-0.000243229
0.00200706
5.33192e-05
-0.000128636
0.00186971
-0.000477997
0.000153055
0.00180057
-0.000608932
0.00028781
0.00179541
-0.000365599
0.00016002
0.00189175
-0.000255618
-7.03329e-05
0.00203173
-0.00018497
-0.000150272
0.0020524
2.43354e-05
2.35421e-05
0.00196119
0.000131917
0.000382014
0.00190992
0.000120019
0.000477836
0.00198748
3.54313e-05
0.000200606
0.00205067
2.61626e-05
-8.10936e-05
0.00200255
-0.000106562
-0.000194548
0.00193581
-0.000244435
-0.000209738
-0.000114364
-0.000101367
0.00160511
0.000195856
-0.000144116
0.00152522
6.71704e-05
-0.00018242
0.00154377
-0.00012162
-0.000193168
0.00167009
-0.000185396
-2.1649e-05
0.00172617
-0.000250773
6.20737e-05
0.00160605
-0.000306323
1.27297e-05
0.00154171
-0.000400531
5.94121e-05
0.00171342
-0.000384686
0.000267491
0.00185968
-1.36144e-05
0.000423433
0.00182201
0.00012195
0.000358266
0.00176746
-6.40748e-05
0.000247179
0.00184673
-0.000102384
4.83151e-05
0.00193321
4.79798e-06
-0.000121819
0.00187833
0.000164168
-7.92058e-05
0.00177904
2.78498e-05
5.3312e-05
0.00179511
-0.000330045
0.000115454
0.00180891
-0.000146366
3.87154e-05
0.00164914
0.000263516
-0.000116451
0.00154147
0.000144589
-0.000119695
0.00159358
-0.000226335
-2.30553e-05
0.00167688
-0.000379757
7.12085e-06
0.00171513
-0.000221794
6.49368e-06
0.00168643
-0.000156836
2.7064e-05
0.00171774
-0.00021432
-0.000120712
0.00189335
-0.000170291
-0.00033869
0.0019416
0.000148915
-0.000298136
0.00164514
0.000152133
3.00959e-05
0.00141131
-0.000424011
0.000218183
0.0014714
-0.000658553
0.000249608
0.00153838
-0.000400214
0.000129656
0.00153074
-0.000242383
-7.80851e-05
0.00157157
-0.0001901
-0.00015506
0.00163867
1.53068e-05
-3.23529e-07
0.00163343
0.000265678
0.000168999
0.0016833
0.000256435
9.29515e-05
0.00183972
-5.61272e-05
-2.75146e-05
0.00186368
-5.15817e-05
-0.000112497
0.00172955
-4.38316e-05
-0.000126349
0.00164613
-0.000137285
-0.000132893
2.37232e-05
-0.000161569
0.00129244
0.00026756
-0.000181461
0.00113747
-4.03094e-05
-0.000207122
0.00121384
-0.00040879
-0.000139227
0.00149925
-0.000487436
6.24746e-05
0.00169275
-0.000326097
3.77941e-05
0.00164839
-0.000161234
-2.18336e-05
0.00154841
-0.00023901
0.000114121
0.00152216
-0.000322956
0.000260653
0.00155138
2.70864e-06
0.000186109
0.00160173
9.2563e-06
0.000106785
0.00157097
-0.000227383
0.000154769
0.0015419
-0.000183571
2.05998e-05
0.00158628
-2.19037e-05
-0.000111742
0.00161644
0.000192785
-5.67802e-05
0.00158844
-1.22014e-05
0.000113608
0.00155085
-0.000355029
0.000162913
0.00148927
-3.04438e-05
2.44356e-05
0.00138779
0.000420118
-4.33156e-05
0.0013497
0.000214683
6.64145e-05
0.00140216
-0.000223119
0.000112509
0.00151835
-0.000467384
-6.20387e-06
0.00156625
-0.000231475
-9.33665e-05
0.00153446
-9.03274e-05
-5.3778e-06
0.00163243
-0.000365746
-4.33957e-05
0.00178282
-0.000334152
-0.000244642
0.00172502
0.000155831
-0.000229
0.00146825
0.000230502
-0.000122603
0.0011965
-0.000333962
2.41277e-05
0.00110062
-0.000629687
0.000238285
0.00115359
-0.000536208
0.000214363
0.00120822
-0.000425061
9.77665e-05
0.00134776
-0.000469182
9.17075e-05
0.00150502
-0.000155957
9.12976e-05
0.00150476
0.000472566
-5.50585e-05
0.00146243
0.000438078
-0.000101384
0.00154085
-0.00012356
3.28841e-07
0.00173585
-0.000236427
2.31397e-05
0.00184374
-9.00541e-05
-2.73871e-05
0.00175866
-5.43558e-05
-7.59368e-05
0.000135252
-0.000157351
0.00116578
-4.95558e-05
-6.78441e-05
0.00107963
-0.000219331
-0.000246226
0.00116694
-0.000523749
-0.000122064
0.0012644
-0.000602874
0.000174362
0.00127663
-0.000343684
0.000207969
0.00123849
-6.19644e-05
0.000194628
0.00119195
-0.000103814
0.000305094
0.00121418
-0.000243782
0.000245107
0.00136525
-0.000105772
5.6117e-05
0.00144114
-4.57074e-05
-6.01571e-06
0.00138216
-0.000188323
-4.58154e-06
0.00139475
-0.000209811
-7.68479e-05
0.0014981
3.16209e-05
-0.000176145
0.00154123
0.000342102
-0.000199964
0.00143803
8.63954e-05
-1.83707e-05
0.00131776
-0.000414203
0.000254717
0.00123001
-6.32702e-05
0.000122732
0.00122461
0.000420692
-5.62922e-05
0.00126031
0.000276089
5.62035e-05
0.00119632
-3.85281e-05
9.62165e-05
0.00117562
-0.000302547
-1.57108e-05
0.0012899
-0.000252068
-7.62775e-05
0.00136664
-0.000238395
-1.08826e-05
0.00138533
-0.000568254
0.000109768
0.00147525
-0.000479248
1.28049e-05
0.00161767
6.13352e-05
-0.000200119
0.0016041
0.000241699
-0.000299834
0.00127868
-1.78489e-05
-0.000110972
0.00100124
-0.00033453
0.000225212
0.00101964
-0.000643601
0.000329831
0.00103313
-0.000652815
0.000253922
0.00100361
-0.000623676
0.000245312
0.00116776
-0.000264133
0.000190262
0.00142141
0.000303063
1.46412e-05
0.00145318
0.000369674
-0.000100272
0.00142856
-4.82146e-05
-6.99288e-05
0.00155018
-0.000235178
6.02738e-05
0.00160665
-0.000144011
0.000142807
0.00153456
-0.000174709
0.000113663
-0.000146603
2.90215e-05
0.00113997
-0.000240173
-0.000217801
0.00111804
-0.000254604
-0.000335972
0.00118578
-0.000492263
-0.000219427
0.00116396
-0.000649891
9.81668e-05
0.00114145
-0.000335282
0.000304256
0.00110765
1.41808e-05
0.000253418
0.00107298
-6.29761e-05
0.000149662
0.00112963
-0.000265815
1.39023e-05
0.00115728
-5.82187e-05
-9.59178e-05
0.00104015
0.000134848
2.01218e-05
0.000944128
-6.21224e-05
3.22299e-05
0.000985751
-0.000204671
-3.95936e-05
0.00119257
-8.92587e-05
-9.59767e-05
0.00132332
0.000217315
-0.000251385
0.00122398
0.000132131
-5.04252e-05
0.00118947
-0.000416709
0.000218958
0.0012027
-0.000144582
8.95898e-05
0.00126892
0.000241801
7.99502e-05
0.00136074
0.000198687
8.3597e-05
0.00116651
0.000171083
-6.35024e-05
0.000946396
-7.90195e-05
-6.64095e-05
0.00106016
-0.000283721
-4.98144e-05
0.00121805
-0.000398133
2.06678e-05
0.0012354
-0.000487393
0.000176456
0.0012481
-0.000312307
0.000102781
0.00134232
1.25844e-05
-7.13337e-05
0.00139162
0.0001948
-0.000219012
0.00121299
0.000270587
-0.000110395
0.00102725
-0.000107304
0.00022889
0.000972573
-0.000654915
0.000267207
0.000896528
-0.000689087
0.000160559
0.000893901
-0.000671599
0.00023518
0.00113546
-0.000481777
0.000243972
0.00131086
0.000163312
-1.09744e-06
0.00116202
0.000499882
-0.000163152
0.00113564
-3.02705e-05
-7.91104e-05
0.00127202
-0.000392
0.000104043
0.00122052
-0.00013971
0.000167524
0.00126245
-0.000200912
-4.87674e-05
-0.000273104
-0.000171504
0.000938631
-0.000335158
-0.000179535
0.000936608
-0.000151378
-0.000249881
0.00091554
-0.000356001
-0.000112908
0.000956033
-0.000691181
0.000123755
0.00107153
-0.000347689
0.000212072
0.00110769
8.49102e-05
0.000136517
0.00107976
-7.34406e-05
0.000114917
0.00106786
-0.00035382
6.48567e-05
0.000909119
9.67888e-05
-5.70339e-05
0.000691094
0.000315115
4.37457e-05
0.000708404
-6.52254e-05
4.93769e-05
0.000879993
-0.000263053
-0.000111312
0.00105137
-0.0002415
-0.000272285
0.00105668
0.000233021
-0.000295753
0.000960825
0.000218671
8.42436e-05
0.00105339
-0.000531979
0.000148531
0.0011456
-0.000208896
-6.43305e-05
0.00111049
0.000342909
-8.09882e-05
0.00109604
0.000256743
-8.29521e-05
0.00102602
0.000183472
-9.82441e-05
0.00101922
-0.000133777
4.26423e-05
0.0011467
-0.00042164
0.000100591
0.00114786
-0.000382804
0.000176248
0.00106133
-0.000170162
0.000143454
0.0010499
-4.87183e-05
1.30528e-05
0.00112492
-2.81529e-05
-0.000122068
0.00123933
7.05508e-05
-0.000266517
0.0012479
0.000143325
4.93332e-05
0.00113656
-8.47925e-05
0.00031581
0.000943815
-0.000345213
3.04863e-06
0.000821943
-0.000525201
-0.000109031
0.000960084
-0.000744694
8.32695e-05
0.00117004
-0.000619045
0.000165711
0.00119309
4.36124e-05
-2.11062e-05
0.0010999
0.000587733
-0.00012046
0.0010658
8.83404e-05
1.88952e-05
0.000989638
-0.000346121
0.000181794
0.000922433
-0.000213016
0.000121253
0.00102669
-0.000468919
-7.87662e-05
-0.000438534
-0.000192494
0.000880797
-0.000502955
-0.000230773
0.000943647
-1.59572e-05
-0.000309944
0.000855202
-0.000227488
-8.77742e-06
0.000891509
-0.000801809
0.000281391
0.00100645
-0.000508844
0.000246883
0.00102566
6.36536e-05
0.000150961
0.00101916
-1.41694e-05
0.00016562
0.000912826
-0.000252828
7.07196e-05
0.000635408
0.000252523
5.05979e-05
0.000525351
0.00037256
6.26999e-05
0.00069352
-0.000261486
0.000170369
0.000888145
-0.000359198
-7.10946e-06
0.000877945
-0.000172648
-0.000185907
0.000844556
0.00038279
-0.000199967
0.000908087
0.000229703
5.59968e-05
0.000929584
-0.000522699
3.12212e-05
0.000893639
-0.00017603
-9.93348e-05
0.000867467
0.00039928
-4.17042e-05
0.000886558
0.000251631
-3.38437e-05
0.000877186
0.000152494
4.4582e-06
0.000981584
-0.000263466
0.000133848
0.00112583
-0.00051451
0.000182846
0.00105405
-0.000188331
4.77583e-05
0.000995106
-5.17783e-06
-3.26057e-06
0.00106113
6.2419e-05
-4.6863e-05
0.0010925
0.000149982
-0.000187265
0.00122569
-8.65362e-05
-0.000129222
0.00132781
-0.000139749
9.32676e-05
0.0011618
-2.63206e-05
0.000144661
0.000914399
-0.000102594
5.6871e-05
0.00072306
-0.000432903
5.93533e-05
0.000697493
-0.000796671
6.58443e-05
0.000886037
-0.000654274
-4.63281e-05
0.001094
-2.95543e-05
-0.000159844
0.00108626
0.000548539
-9.70789e-05
0.00102501
0.000149752
-3.29759e-05
0.00096608
-0.000138757
2.00108e-05
0.000837514
-0.000133825
2.8514e-05
0.000760251
-0.000684332
-1.07002e-06
-0.000707846
-0.000140903
0.000740498
-0.000584798
-0.000248928
0.000896714
7.44172e-05
-0.000282202
0.000971317
-0.000240864
0.000100957
0.00102192
-0.000905118
0.000217054
0.00106373
-0.000620878
0.000168473
0.000992807
6.45875e-05
0.000189429
0.000982568
3.02386e-05
0.000191838
0.000889945
-0.000101699
4.21526e-05
0.000713544
0.000371156
-1.02623e-05
0.000674882
0.000424673
1.79609e-05
0.000667542
-0.000270787
0.000161348
0.000727782
-0.000376372
7.25353e-05
0.000756154
-0.000131133
-8.60134e-05
0.000816644
0.000377843
-0.000194026
0.000908915
0.000232634
-3.66853e-05
0.000837994
-0.000368997
9.17929e-05
0.000751091
-9.5013e-05
-2.28155e-05
0.000771603
0.000328786
2.10603e-05
0.000847246
0.000160851
1.5728e-05
0.000871764
7.86682e-05
-2.24933e-05
0.000951946
-0.000395539
0.000105217
0.00100356
-0.00045862
0.000190102
0.000872472
5.92492e-05
0.000106945
0.000908208
-1.88335e-05
6.29617e-05
0.000995947
0.000109103
-6.83997e-05
0.00100476
0.000316131
-0.000116803
0.00117639
-0.000191888
1.62754e-05
0.00125479
-0.000281391
-2.13592e-05
0.00116358
-3.18048e-05
-1.28166e-05
0.00101257
-4.44202e-05
0.000103115
0.0006856
-0.000256997
0.000169619
0.000568271
-0.000905547
0.000137987
0.000875322
-0.000927752
-0.000103164
0.00109035
-0.000110416
-0.000283637
0.000977174
0.000597219
-0.000207322
0.000816938
0.000224334
-1.40017e-05
0.000801516
-0.000103228
0.000112944
0.000669245
-0.000133038
3.99873e-05
0.000512066
-0.00073455
-7.71378e-05
-0.000875065
-0.000100575
0.000593866
-0.000517389
-0.000272074
0.000850663
-9.56326e-06
-0.00011866
0.000892817
-0.000227436
0.000231041
0.000859518
-0.000771596
9.72346e-05
0.000872092
-0.000579474
8.76517e-05
0.000839
7.27294e-05
0.000135606
0.000928041
-3.56649e-05
5.55078e-05
0.00090455
-0.000128866
8.15886e-05
0.000784125
0.000345328
8.26272e-05
0.000732148
0.000334489
8.44041e-05
0.000657729
-0.000226326
1.23788e-05
0.000661044
-0.000307119
-3.33554e-05
0.000739253
-5.66222e-05
-0.000144815
0.000790813
0.000454522
-0.000160557
0.000755106
0.000383147
-9.59989e-06
0.000658696
-0.00029348
0.000140764
0.000657899
-9.62762e-05
2.92941e-06
0.000705096
0.000275905
-5.19783e-05
0.000813508
0.000124409
-7.85436e-05
0.000863172
8.25538e-05
-2.10101e-05
0.000856527
-0.000517899
0.000201393
0.000958242
-0.000452497
0.00010786
0.000894555
0.000231535
1.22273e-05
0.000836278
5.42975e-05
9.98029e-06
0.000907397
0.00017724
1.76102e-05
0.000959183
0.000391051
-7.01112e-06
0.000996623
-0.000159117
-1.74449e-05
0.000936236
-0.000209929
2.35174e-05
0.000963307
-1.36193e-05
2.15204e-05
0.00103146
-6.73304e-05
3.05968e-05
0.000716959
-0.000110221
0.000205898
0.000445873
-0.000787283
0.000112117
0.000673301
-0.000942619
-0.00032325
0.000982684
-0.00016155
-0.000380884
0.000900235
0.000652572
-0.000133001
0.000680857
0.000326999
4.83242e-05
0.000640568
-0.000136841
0.000222313
0.000650925
-0.00030073
4.74873e-05
0.000557064
-0.000686521
-0.000170115
-0.000847335
-6.24804e-05
0.000533393
-0.000451658
-0.000155491
0.000820355
-8.17505e-05
-2.09124e-05
0.00084299
-0.000126883
0.000202441
0.000716359
-0.000644597
0.000153221
0.000693483
-0.000537431
0.000139799
0.000730963
6.66621e-05
0.000184651
0.000774123
-6.99127e-05
3.50409e-05
0.000729177
-0.000244582
-3.37788e-06
0.000729729
0.000129242
3.22144e-05
0.000770441
0.000106481
9.80585e-05
0.000710483
-0.000230173
7.54807e-05
0.000655188
-0.000202298
1.60319e-05
0.000676391
1.83888e-05
-9.79995e-05
0.000780455
0.000422198
-0.000158257
0.000810078
0.000418331
3.04751e-06
0.00073241
-0.000248294
0.000203749
0.000687081
-3.9888e-05
8.13598e-05
0.000645389
0.000369747
-1.60757e-05
0.000741654
0.00010143
-7.32648e-06
0.000852407
-2.87884e-05
-1.16079e-05
0.000832236
-0.000570642
0.000192743
0.000867737
-0.000407536
0.00011598
0.000819494
0.000329198
-9.53167e-05
0.000747694
0.000154941
6.11733e-06
0.000810175
0.000335344
0.000115089
0.000905454
0.000444046
-7.80127e-06
0.00090248
-6.69299e-05
-0.000107484
0.000785445
-4.67614e-06
3.95847e-05
0.000747416
1.07214e-05
6.44001e-05
0.0008105
-0.000129381
0.00014915
0.000641922
-4.49659e-05
0.00016005
0.000419079
-0.000649252
6.27456e-06
0.000592679
-0.000939867
-0.000253949
0.00084946
-0.000139433
-0.000330147
0.000822653
0.000489621
-6.08374e-05
0.000694536
0.000280416
5.25656e-05
0.000590439
-0.000110472
0.000240481
0.00060135
-0.000363262
4.92762e-05
0.000573237
-0.000577274
-0.000255436
-0.000713971
-0.000171482
0.000519562
-0.000462985
-2.72079e-05
0.000835612
-0.000205528
2.50911e-05
0.000881707
-0.000202008
0.000260947
0.000710907
-0.000638579
0.000293774
0.000604508
-0.000389042
0.000108731
0.000580107
0.000126604
5.6333e-05
0.00061255
-1.21088e-05
-7.82718e-05
0.000597792
-0.000228614
-5.26434e-05
0.000654048
2.29938e-05
-4.91798e-05
0.000726287
-5.12222e-05
-4.91486e-06
0.000659586
-0.000276457
8.20857e-05
0.000587226
-0.000196996
7.06223e-05
0.000622989
1.37444e-05
-5.57392e-06
0.000716373
0.000415883
-0.000123832
0.000703397
0.000329835
0.000148717
0.000632223
-0.000148824
0.000200534
0.000608566
3.07408e-05
6.25824e-05
0.00061183
0.000386925
-1.48982e-05
0.000718823
9.11416e-05
5.8876e-05
0.00081395
-0.000152692
5.05566e-05
0.000761534
-0.00051924
2.53672e-05
0.000687033
-0.000293989
0.0001374
0.000697679
0.00035246
-8.91814e-05
0.000707358
0.00023353
2.25713e-05
0.00071137
0.000486158
7.04573e-05
0.00083498
0.000358652
-6.88401e-05
0.000904165
-0.000114397
-6.62019e-05
0.000780011
8.64066e-05
4.20978e-05
0.000702911
1.6708e-05
1.06857e-05
0.000704692
-0.0001559
4.31689e-05
0.00065888
-6.29234e-05
-2.1785e-05
0.000537526
-0.000596048
-2.44478e-06
0.000562769
-0.000951082
-9.09244e-05
0.000593743
-0.00010678
-0.000190513
0.000596371
0.000323737
-3.98952e-05
0.000604906
0.000111344
0.000134628
0.00056195
-9.51955e-05
0.000123585
0.000540781
-0.00026591
-3.35006e-05
0.000554454
-0.000516206
-0.0002728
-0.000662118
-0.000178094
0.000531496
-0.000526708
0.000103189
0.000768051
-0.000276714
5.97453e-05
0.000773028
-0.000237047
0.000231989
0.000617701
-0.000609939
0.000324623
0.000574994
-0.000253318
9.22258e-05
0.000498166
0.000225032
8.54822e-06
0.000465951
-1.85605e-05
-9.62075e-05
0.000503526
-0.000229328
3.1873e-06
0.000566432
5.79408e-05
5.356e-06
0.000603071
-8.05301e-05
-1.83003e-05
0.000601368
-0.000294239
3.24918e-05
0.000568394
-0.000215867
8.71809e-05
0.000585338
3.5581e-05
-3.49105e-05
0.000619564
0.000464935
-5.67506e-05
0.000606074
0.000298816
9.13634e-05
0.000568705
-7.32684e-05
0.000121924
0.0005659
-3.98382e-06
2.03386e-05
0.000561146
0.000333763
-4.99429e-05
0.000658007
0.000104592
1.71653e-05
0.000751943
-0.000223305