/*--------------------------------*- C++ -*----------------------------------*\
  =========                 |
  \\      /  F ield         | OpenFOAM: The Open Source CFD Toolbox
   \\    /   O peration     | Website:  https://openfoam.org
    \\  /    A nd           | Version:  10
     \\/     M anipulation  |
\*---------------------------------------------------------------------------*/
FoamFile
{
    format      ascii;
    class       volSymmTensorField;
    location    "35";
    object      UPrime2Mean;
}
// * * * * * * * * * * * * * * * * * * * * * * * * * * * * * * * * * * * * * //

dimensions      [0 2 -2 0 0 0 0];

internalField   nonuniform List<symmTensor> 
25600
(
(0.00550361 -5.50115e-05 -0.000926622 2.3163e-06 -1.50003e-06 0.00136514)
(0.00515629 -4.92208e-05 -0.000917027 2.43097e-06 -5.61537e-07 0.00143927)
(0.00516955 -4.64621e-05 -0.000820769 2.13289e-06 1.22718e-06 0.00138386)
(0.00531183 -4.92203e-05 -0.000882405 2.01391e-06 8.4187e-06 0.00122691)
(0.00558992 -5.11443e-05 -0.000939655 2.16e-06 4.40572e-06 0.00117047)
(0.00564072 -5.42028e-05 -0.000969009 2.17183e-06 1.98751e-06 0.00107434)
(0.00564684 -5.12313e-05 -0.000984522 2.11934e-06 4.66925e-06 0.00109916)
(0.00541691 -4.57443e-05 -0.000958721 1.78408e-06 3.18493e-06 0.00109802)
(0.00492587 -4.37951e-05 -0.000888257 2.01217e-06 4.27127e-06 0.00117075)
(0.00523812 -4.49758e-05 -0.000949481 2.50647e-06 8.00059e-06 0.00106758)
(0.00569374 -5.87938e-05 -0.00104504 2.7977e-06 1.11263e-05 0.00112599)
(0.0061984 -6.88301e-05 -0.000790991 3.46893e-06 9.32501e-06 0.00120927)
(0.00526273 -5.67091e-05 -0.000822129 3.04909e-06 7.02449e-06 0.00151731)
(0.00505551 -5.532e-05 -0.000963043 2.7207e-06 1.14622e-05 0.00138892)
(0.00517355 -4.95924e-05 -0.00101011 2.61359e-06 7.75151e-06 0.00132534)
(0.00503958 -4.7453e-05 -0.00101194 2.35717e-06 8.01519e-06 0.00130401)
(0.0048607 -4.6882e-05 -0.00100007 2.08399e-06 4.74119e-06 0.00118118)
(0.0049135 -4.79349e-05 -0.000859642 2.29222e-06 8.5892e-06 0.00118767)
(0.00466874 -5.34542e-05 -0.000973748 2.52411e-06 1.00954e-05 0.00114639)
(0.00488934 -5.88236e-05 -0.0010707 2.74364e-06 1.45345e-05 0.00127237)
(0.00506602 -5.06358e-05 -0.000998835 2.65473e-06 1.05149e-05 0.00125957)
(0.00548435 -5.9717e-05 -0.000803243 2.36617e-06 8.39305e-06 0.00117621)
(0.00572516 -5.97385e-05 -0.000707318 2.63776e-06 5.68385e-06 0.00102774)
(0.00540411 -4.8495e-05 -0.00073168 2.17644e-06 2.98485e-06 0.00118681)
(0.00542292 -4.74219e-05 -0.000697316 2.21103e-06 8.67548e-08 0.0012408)
(0.00530671 -5.2402e-05 -0.000778285 2.1872e-06 -1.0981e-06 0.00116348)
(0.00493802 -5.09809e-05 -0.000754029 2.13712e-06 3.33405e-06 0.00108809)
(0.00488685 -4.93987e-05 -0.000785723 1.98357e-06 3.03818e-06 0.00112965)
(0.00494297 -4.87453e-05 -0.000791811 1.94949e-06 6.50989e-07 0.00109284)
(0.00501363 -5.93402e-05 -0.000703861 2.4394e-06 -1.0873e-07 0.00108575)
(0.00520722 -5.49813e-05 -0.000544328 2.95555e-06 1.35221e-06 0.00113054)
(0.00549976 -5.12155e-05 -0.000559577 2.40262e-06 4.56592e-06 0.00118459)
(0.00542036 -5.11212e-05 -0.000669858 2.05374e-06 5.29867e-06 0.00119056)
(0.00525023 -5.21314e-05 -0.000768662 1.92628e-06 4.04965e-06 0.00117889)
(0.00509185 -5.61373e-05 -0.000576444 2.05308e-06 -2.42828e-06 0.00121121)
(0.00524413 -5.36988e-05 -0.000655138 2.22628e-06 1.84963e-06 0.00120419)
(0.00570324 -5.40321e-05 -0.000790507 2.10038e-06 3.21974e-06 0.00112988)
(0.00558389 -4.92902e-05 -0.000744805 2.01106e-06 6.38441e-07 0.00108019)
(0.00542553 -4.8207e-05 -0.000848231 1.8732e-06 -7.26502e-07 0.00126759)
(0.005645 -4.76594e-05 -0.000812559 2.03259e-06 5.54637e-07 0.0011785)
(0.0286658 0.000371342 -0.00594774 0.00011497 -5.77972e-05 0.00497675)
(0.0266568 0.000432204 -0.00619406 0.000111204 -0.000119977 0.00497455)
(0.0272393 0.000448684 -0.00576783 0.000104605 -0.000127183 0.00496355)
(0.0277499 0.000307111 -0.00574816 0.000105592 -0.000130729 0.00443431)
(0.0284479 0.000548768 -0.00612891 0.00012594 -0.00025507 0.0045332)
(0.0284024 0.00047544 -0.00587728 0.000141882 -0.000278086 0.00423742)
(0.0295251 0.000348617 -0.00636965 0.000130015 -0.000129674 0.00403595)
(0.0291727 0.000392204 -0.00635883 0.00010016 -0.000131764 0.00400526)
(0.027116 0.000417819 -0.00601883 8.13806e-05 -0.000153021 0.00431497)
(0.0289969 0.000450606 -0.00636044 9.42692e-05 -0.000159024 0.00390082)
(0.0306216 0.000592602 -0.00721213 0.000108714 -0.000230912 0.00487677)
(0.0303595 0.000640652 -0.0057354 0.000141367 -0.000237812 0.00498891)
(0.0261719 0.000614379 -0.00622536 0.000143641 -0.000261837 0.00579539)
(0.0284327 0.000372494 -0.0064602 0.000148502 -0.000266404 0.0056039)
(0.0297809 0.000260355 -0.00653956 0.000124496 -0.000119836 0.00538501)
(0.0279131 0.000317894 -0.00672041 0.00010191 -4.76594e-05 0.00498265)
(0.0258397 0.000491511 -0.00673423 7.70954e-05 -0.000106698 0.00427884)
(0.024597 0.000593249 -0.0056577 8.0627e-05 -0.00013783 0.00440057)
(0.0244137 0.000464266 -0.00643725 9.49593e-05 -0.000148333 0.00445638)
(0.025335 0.00041335 -0.00633233 9.5376e-05 -0.000204161 0.00538273)
(0.0267176 0.000372315 -0.00614016 0.000106228 -0.00021744 0.005204)
(0.026921 0.000568676 -0.00587056 0.000118887 -0.000230819 0.00443944)
(0.028459 0.000642827 -0.00552952 0.000160583 -0.00027668 0.00391351)
(0.0284254 0.000423948 -0.0052297 0.000120767 -0.000123493 0.00409074)
(0.0292986 0.000329427 -0.00514746 9.88327e-05 -0.00010106 0.00439371)
(0.0292008 0.000467661 -0.00610176 9.72028e-05 -0.000137686 0.00423144)
(0.0252055 0.00044928 -0.00574346 8.60288e-05 -0.000163549 0.00414876)
(0.0260621 0.000423321 -0.00550727 8.23308e-05 -0.000218293 0.00426875)
(0.0256963 0.000555034 -0.00569812 7.82194e-05 -0.000211073 0.00399776)
(0.0264729 0.00050223 -0.00527355 8.69284e-05 -0.000188779 0.00404937)
(0.0269136 0.000526566 -0.00435506 0.000115582 -0.000183954 0.00420488)
(0.0292291 0.00046054 -0.00465843 0.000111896 -0.000107731 0.00405714)
(0.0288229 0.000586644 -0.00510125 0.000108183 -0.000145168 0.00399233)
(0.0271085 0.000691938 -0.00578408 0.00011505 -0.000183372 0.00414135)
(0.025635 0.000630389 -0.00503456 0.00012319 -0.000177831 0.00451806)
(0.0279206 0.000348703 -0.00450412 0.000125417 -0.000190618 0.00458832)
(0.0308233 0.000440741 -0.00535811 0.000105688 -0.000165878 0.00418411)
(0.0297654 0.000482393 -0.00491719 0.000106138 -0.000101362 0.00356285)
(0.028118 0.000432292 -0.00512059 9.36393e-05 -9.96599e-05 0.00429676)
(0.0308608 0.000410176 -0.00504912 0.000114236 -6.26098e-05 0.00454843)
(0.0378915 0.00093426 -0.00770497 0.000661081 -0.000424313 0.0067257)
(0.0380223 0.000852501 -0.00910652 0.00066789 -0.000528779 0.00677402)
(0.0397929 0.00117176 -0.00818938 0.00062455 -0.000673248 0.00732252)
(0.0392019 0.000703144 -0.00775839 0.000623919 -0.000784231 0.00672309)
(0.0367017 0.00138465 -0.00809437 0.000668322 -0.00091841 0.00671815)
(0.0372442 0.00118917 -0.00759491 0.00069652 -0.000865342 0.0063368)
(0.0414585 0.000714534 -0.00899815 0.000724014 -0.000604154 0.00580037)
(0.0413152 0.000490409 -0.00794784 0.000618667 -0.000586995 0.00587853)
(0.0400173 0.000895188 -0.00809586 0.000495801 -0.000621009 0.00656689)
(0.0411644 0.00119246 -0.00955947 0.000569496 -0.000771931 0.00639663)
(0.0410828 0.00171365 -0.0108101 0.000655985 -0.000888811 0.00741855)
(0.0420598 0.00164739 -0.00909951 0.000766281 -0.000774606 0.00689444)
(0.0372723 0.0014713 -0.00985937 0.000718185 -0.000772591 0.00788504)
(0.0408216 0.00113927 -0.0100507 0.000729511 -0.000771463 0.00772956)
(0.0407473 0.000831784 -0.0101993 0.000699612 -0.000506575 0.00765933)
(0.0389939 0.000847175 -0.0103685 0.000583049 -0.000425448 0.00706705)
(0.0386489 0.00118364 -0.0101183 0.000473944 -0.000610293 0.00605183)
(0.0361536 0.00147504 -0.00841562 0.000509136 -0.000669937 0.00661615)
(0.0356097 0.00126054 -0.00944288 0.00055824 -0.00073502 0.00714884)
(0.0355105 0.000993045 -0.00914038 0.000589016 -0.000891809 0.00846895)
(0.0396533 0.000700867 -0.00907509 0.000604543 -0.000819901 0.00788819)
(0.0359264 0.00128755 -0.00874851 0.000617905 -0.000848901 0.00662161)
(0.0381482 0.00151589 -0.0084372 0.000746887 -0.000895481 0.00599128)
(0.0395099 0.000966514 -0.00829575 0.000620628 -0.000588672 0.00618721)
(0.0418271 0.00082276 -0.00860884 0.000580539 -0.000505975 0.00693636)
(0.0438343 0.00115165 -0.00958302 0.000619493 -0.00065655 0.00685012)
(0.0355283 0.000929455 -0.00868068 0.000555368 -0.000641354 0.00678689)
(0.0365729 0.00103563 -0.00790728 0.000507838 -0.000793495 0.0066833)
(0.0373684 0.00136887 -0.00857593 0.000484177 -0.000806696 0.00640923)
(0.039435 0.0014133 -0.00892646 0.00056559 -0.000897197 0.00719416)
(0.0401843 0.00136928 -0.00666603 0.000679732 -0.000780437 0.00675924)
(0.0426062 0.00117936 -0.00762479 0.000629069 -0.000649848 0.00603865)
(0.0412134 0.00145347 -0.00817128 0.000658605 -0.00071866 0.00572501)
(0.0407024 0.0015841 -0.0090991 0.000648935 -0.000607169 0.00591082)
(0.0340815 0.0015451 -0.00838362 0.000689319 -0.000566993 0.00670198)
(0.0395468 0.000878372 -0.0072571 0.000636401 -0.000663012 0.00661436)
(0.0424728 0.00120115 -0.00734589 0.000599803 -0.000793108 0.00622768)
(0.0391595 0.0011101 -0.00714019 0.000645653 -0.000563255 0.00563127)
(0.0369937 0.000972558 -0.00654568 0.00059064 -0.000390988 0.00626571)
(0.0410101 0.000628176 -0.00710149 0.000637925 -0.0003692 0.00683948)
(0.0394506 0.000327626 -0.00730992 0.00126959 -0.000524332 0.00709224)
(0.0437156 0.000198143 -0.00915691 0.00117768 -0.000703122 0.00742002)
(0.0462247 0.000814815 -0.00825224 0.0011831 -0.00095484 0.00749976)
(0.0427693 0.000291799 -0.00726389 0.00123203 -0.00110257 0.00741821)
(0.0352084 0.00112331 -0.00699832 0.00125169 -0.00120789 0.00715134)
(0.0348441 0.000972824 -0.00677299 0.0012705 -0.00112902 0.00672419)
(0.0425682 0.000123651 -0.00807935 0.00135873 -0.000711874 0.00607991)
(0.0429881 -0.000660783 -0.00639659 0.00121577 -0.000661825 0.00603209)
(0.0410762 0.000563606 -0.00720781 0.0010089 -0.000695807 0.00710882)
(0.0399199 0.00114088 -0.00977143 0.00113439 -0.000965357 0.0075979)
(0.0403427 0.00154272 -0.0100535 0.00127532 -0.00103932 0.00758035)
(0.0451833 0.00132748 -0.0100516 0.00136466 -0.000853472 0.00764137)
(0.0402981 0.00138374 -0.0102932 0.00130678 -0.00102857 0.00806118)
(0.0400638 0.00118191 -0.00935779 0.00137062 -0.00112651 0.00800422)
(0.0397626 0.000825632 -0.00902328 0.00136705 -0.00070421 0.00757239)
(0.0419414 0.000777102 -0.0100672 0.00106265 -0.000506554 0.00712289)
(0.0419161 0.00100963 -0.00976892 0.000901265 -0.000796267 0.00644503)
(0.038642 0.00128193 -0.00825569 0.00106326 -0.000832818 0.00751171)
(0.0363816 0.000955855 -0.00768495 0.00115097 -0.000867012 0.00753481)
(0.0371727 0.000749354 -0.0092856 0.00113102 -0.00111346 0.00938578)
(0.0437472 0.000489678 -0.0103378 0.00111746 -0.00115462 0.00839458)
(0.035256 0.00122436 -0.00867765 0.0012025 -0.00129968 0.00740585)
(0.0358664 0.00101201 -0.00834297 0.00138729 -0.00128941 0.00680366)
(0.0381014 0.000807781 -0.00819101 0.00117731 -0.000842429 0.00674046)
(0.0391965 0.0006759 -0.00874504 0.00111008 -0.00060958 0.00772773)
(0.0435956 0.000814115 -0.0102732 0.00118116 -0.000768778 0.00784691)
(0.03663 0.000352859 -0.00849958 0.00102622 -0.000833752 0.00795723)
(0.0383948 0.000819754 -0.007922 0.000900835 -0.00107689 0.00781735)
(0.041846 0.00114291 -0.00939882 0.000919513 -0.000984559 0.00770713)
(0.0437636 0.00124968 -0.0101532 0.00113367 -0.00136113 0.0085536)
(0.0444053 0.00129758 -0.00684224 0.00121946 -0.00113555 0.00773643)
(0.0435608 0.00127112 -0.00820851 0.00115721 -0.00102346 0.0067629)
(0.043381 0.00120619 -0.00935729 0.00131388 -0.00120061 0.00703376)
(0.0425698 0.00165518 -0.00941992 0.00130095 -0.000901391 0.00676953)
(0.0346039 0.0012637 -0.0086256 0.00130074 -0.000826723 0.00756675)
(0.0383827 0.00085306 -0.00774018 0.00116 -0.000960687 0.00696761)
(0.0406137 0.00101597 -0.00687505 0.00112415 -0.00117969 0.00677582)
(0.037927 0.000685512 -0.00723357 0.00123987 -0.000912159 0.00672249)
(0.0358205 0.000770164 -0.00619698 0.00117397 -0.000477993 0.00708681)
(0.0374215 0.00016306 -0.00712506 0.00126817 -0.000475888 0.00743269)
(0.0377207 -0.000282739 -0.00690214 0.00201375 -0.000854814 0.00774236)
(0.0410215 -0.000154629 -0.00784496 0.00171744 -0.00107747 0.00832915)
(0.0423953 0.000411889 -0.00816142 0.00179823 -0.0013212 0.00805439)
(0.0409791 -0.000165714 -0.00721337 0.00188728 -0.00133861 0.00827908)
(0.034447 0.000768327 -0.00645456 0.00185495 -0.00160209 0.00764995)
(0.0318558 0.0002664 -0.00616558 0.00198289 -0.00152189 0.00720774)
(0.0383758 -0.000647278 -0.00693872 0.00205196 -0.000930641 0.0065784)
(0.0400148 -0.00166016 -0.00584606 0.00183256 -0.000863159 0.00687644)
(0.0402401 6.04406e-05 -0.00666983 0.00162273 -0.000931353 0.00790652)
(0.0340744 0.000849779 -0.00837361 0.00179052 -0.00124183 0.00852649)
(0.0404506 0.00122349 -0.0084988 0.0019405 -0.00134018 0.00774971)
(0.0417049 0.000884985 -0.00991058 0.00192774 -0.00109718 0.00848678)
(0.0385664 0.00123133 -0.0102255 0.00202668 -0.00134989 0.00858455)
(0.0370551 0.000911443 -0.0090663 0.00219291 -0.00154361 0.00835556)
(0.0415347 0.000125451 -0.00858743 0.00214332 -0.001016 0.00800496)
(0.0409532 0.000499808 -0.00919608 0.00164104 -0.00067334 0.00730185)
(0.0418253 0.000522699 -0.00874519 0.00145968 -0.00094414 0.00658246)
(0.0355605 0.000686927 -0.00755369 0.00170003 -0.000947376 0.00774435)
(0.0341887 6.49506e-05 -0.00640789 0.00178245 -0.00109199 0.00763567)
(0.0366771 0.000605019 -0.00911367 0.00168591 -0.00150313 0.0097156)
(0.0396507 0.000450836 -0.00984183 0.00168127 -0.00165825 0.00884423)
(0.0323869 0.00111837 -0.00828317 0.0019119 -0.00174775 0.00888715)
(0.0315651 0.000267318 -0.00744766 0.00206948 -0.00169637 0.00798541)
(0.0312845 0.000826917 -0.00746008 0.00183175 -0.00132158 0.00719771)
(0.0344191 0.000204866 -0.00855618 0.00172554 -0.000907477 0.00796675)
(0.0390988 0.000198941 -0.00947988 0.00170083 -0.00110026 0.00814375)
(0.0376147 -0.000548627 -0.00801949 0.00152244 -0.00120299 0.00801911)
(0.0386296 0.000439802 -0.00839131 0.00129868 -0.00134208 0.00800096)
(0.0393455 0.000641497 -0.00908073 0.00144381 -0.00126056 0.00794437)
(0.045278 0.000623925 -0.00864091 0.00170632 -0.00184332 0.00832518)
(0.044488 0.00101656 -0.00793244 0.00171838 -0.00159045 0.00786288)
(0.0400284 0.00102595 -0.00842111 0.00170899 -0.00150902 0.00745788)
(0.0448171 0.000721202 -0.0102345 0.00200718 -0.00176975 0.00799319)
(0.0391614 0.0014533 -0.00941474 0.00203251 -0.00136181 0.00767775)
(0.035251 0.00080484 -0.00856242 0.00200032 -0.00118961 0.00795415)
(0.0348766 0.000960107 -0.00786235 0.00172673 -0.00117879 0.00773934)
(0.0377913 0.000915547 -0.00698236 0.00162779 -0.00152988 0.00793405)
(0.0351585 0.000498384 -0.00724894 0.00180388 -0.00137936 0.00744202)
(0.0342314 0.000825717 -0.00636936 0.00176508 -0.000628984 0.00757433)
(0.0331304 -0.000161933 -0.00678507 0.00195558 -0.000715117 0.00792304)
(0.0321697 -0.000586574 -0.00591639 0.00257045 -0.00101955 0.00762888)
(0.0351023 -0.000380782 -0.00666395 0.0021943 -0.00114621 0.00781612)
(0.035504 -0.000325035 -0.00793792 0.00233467 -0.00138121 0.00779081)
(0.0372097 -0.000742707 -0.00684334 0.00243526 -0.00127243 0.00762686)
(0.0330699 0.000267142 -0.00547208 0.0023213 -0.00168067 0.00727819)
(0.0335347 -0.000655961 -0.00590535 0.00259041 -0.00159836 0.00703787)
(0.0349128 -0.00160188 -0.00703804 0.00261001 -0.000838408 0.00648787)
(0.0382477 -0.00217618 -0.00617436 0.00239226 -0.000866511 0.00730793)
(0.0403561 -0.000945029 -0.00606881 0.00226003 -0.00101328 0.00789031)
(0.033303 -0.000289797 -0.00746058 0.00248691 -0.00114515 0.00873195)
(0.0394939 0.000598482 -0.00758022 0.00252026 -0.00130676 0.00800742)
(0.0410833 0.000415751 -0.00940621 0.00240654 -0.00114234 0.00874034)
(0.033851 0.00146045 -0.00975155 0.00268296 -0.00144299 0.00883709)
(0.0353465 0.000698767 -0.00911998 0.00293615 -0.0016751 0.00861274)
(0.0389492 -0.000331001 -0.00813476 0.00290442 -0.0012181 0.00825363)
(0.0331904 0.000200355 -0.00756025 0.00227023 -0.000664929 0.00723009)
(0.0361086 4.91657e-05 -0.0074954 0.00203085 -0.00081008 0.00676157)
(0.0331758 8.10722e-05 -0.00657219 0.00225156 -0.000937171 0.00707855)
(0.0307578 -0.000559881 -0.00597678 0.00240239 -0.00121885 0.0072992)
(0.0357871 -4.04775e-05 -0.00840927 0.00221689 -0.00165402 0.00882976)
(0.0359668 1.1323e-05 -0.00750839 0.00224343 -0.00177977 0.00863266)
(0.0313753 0.000549019 -0.00712325 0.00246359 -0.00184091 0.00939159)
(0.0301664 -0.000366904 -0.00625054 0.00250144 -0.00191962 0.00838701)
(0.0288338 0.000516978 -0.00730871 0.00235963 -0.00160523 0.00765533)
(0.031883 -0.000170181 -0.00842451 0.00227559 -0.00106087 0.00785134)
(0.0364621 -0.000355857 -0.0078488 0.00214673 -0.00129518 0.00796141)
(0.0360467 -0.0010714 -0.00743821 0.00194185 -0.00132253 0.00767892)
(0.0355495 -0.000176767 -0.00781551 0.00167522 -0.00130192 0.00723742)
(0.0353397 -0.000248642 -0.00810079 0.00200726 -0.00132075 0.00712226)
(0.0443969 -0.000245045 -0.00686241 0.00213558 -0.00197374 0.00745766)
(0.0444108 0.000230791 -0.00830325 0.0020504 -0.0015364 0.00721518)
(0.040402 0.000229209 -0.00847175 0.00213047 -0.00163294 0.00751953)
(0.0435945 -4.7902e-05 -0.00879731 0.00241765 -0.00198938 0.00794614)
(0.040162 0.000929931 -0.00847671 0.00250809 -0.00164249 0.00753185)
(0.0405067 0.000360599 -0.00842209 0.00242206 -0.00133511 0.00735607)
(0.0363802 0.000755515 -0.00800913 0.0020982 -0.00119226 0.00767565)
(0.0354661 0.000979796 -0.00705152 0.00198951 -0.00162247 0.00810176)
(0.0316767 0.000445362 -0.00692028 0.00222794 -0.00155398 0.00737789)
(0.0318608 0.000809959 -0.0065356 0.00226646 -0.000709275 0.00755237)
(0.0316212 -0.000574123 -0.00626645 0.00251746 -0.00083321 0.0074216)
(0.0306978 -0.000588034 -0.0052852 0.00301358 -0.000987639 0.0067712)
(0.0321182 -0.000636929 -0.0064073 0.00268846 -0.00103708 0.00722763)
(0.0329007 -0.00116162 -0.00743907 0.00281156 -0.00125609 0.00754606)
(0.0331023 -0.000944561 -0.00663942 0.0029099 -0.00109441 0.00735215)
(0.0298588 -9.32331e-06 -0.00552421 0.00272007 -0.00145843 0.00731973)
(0.033916 -0.00105437 -0.00586563 0.00313137 -0.00144422 0.0070249)
(0.0348162 -0.0017788 -0.00734091 0.0030514 -0.000622099 0.00635809)
(0.0394442 -0.00225748 -0.00645716 0.0029154 -0.000876457 0.00702495)
(0.0406434 -0.00193043 -0.00601154 0.00288258 -0.00100588 0.00714549)
(0.03611 -0.00123749 -0.00646183 0.00312565 -0.00111967 0.00825277)
(0.0382957 -0.000570633 -0.00644129 0.00302193 -0.001152 0.00762382)
(0.0406137 -0.0001733 -0.00935799 0.00302044 -0.00108261 0.008071)
(0.0317228 0.00144684 -0.00924513 0.00331879 -0.00151187 0.00788974)
(0.0363899 0.000275457 -0.00919539 0.00366935 -0.0015673 0.00858908)
(0.0366086 -0.000695066 -0.00760144 0.00363825 -0.00130829 0.00851698)
(0.0292874 -0.000166544 -0.00650256 0.00286279 -0.000704583 0.00730332)
(0.0329506 -0.000369494 -0.00695911 0.0025596 -0.000611136 0.00653147)
(0.0331484 -0.000260683 -0.00635566 0.0028092 -0.000851064 0.00621869)
(0.0283131 -0.000672045 -0.0055698 0.00305867 -0.00127802 0.00637415)
(0.0370686 -0.000459549 -0.0072361 0.00277507 -0.001661 0.00748416)
(0.0333222 -0.000613113 -0.00593955 0.00278668 -0.00158563 0.00790649)
(0.0290076 3.81927e-05 -0.00625584 0.00301095 -0.00176111 0.00801058)
(0.0282265 -0.000505141 -0.00588072 0.00295309 -0.00192372 0.0074412)
(0.0318817 -4.62145e-06 -0.00773292 0.0027289 -0.00170421 0.00783384)
(0.0324154 -0.000593176 -0.00823722 0.00268232 -0.00119316 0.00782202)
(0.0344479 -0.000850894 -0.00691871 0.00260656 -0.00138587 0.00758061)
(0.0324251 -0.0012897 -0.00723191 0.00240484 -0.00141664 0.00746777)
(0.0326625 -0.000566616 -0.00759362 0.00210004 -0.00120507 0.00696695)
(0.0364345 -0.0013882 -0.00750992 0.0025132 -0.00122428 0.00683691)
(0.0435224 -0.000891505 -0.0069738 0.0024983 -0.00163547 0.00709744)
(0.0467204 -0.000566103 -0.00814391 0.00235162 -0.00130329 0.00692992)
(0.0409665 -0.000718063 -0.00820457 0.00247704 -0.00156073 0.00764912)
(0.0419562 -0.000624173 -0.00679039 0.00276467 -0.00193815 0.00773281)
(0.0394531 0.000533439 -0.0066667 0.00286278 -0.00157606 0.00665407)
(0.0434234 -0.000279867 -0.00697267 0.00273244 -0.00132988 0.00635715)
(0.0408774 8.25946e-05 -0.00791449 0.00243092 -0.000978726 0.00689276)
(0.034897 0.000856858 -0.00693696 0.0022719 -0.00151743 0.00728534)
(0.0297077 0.000767304 -0.00706656 0.00257816 -0.00157729 0.00708422)
(0.0300653 0.000378216 -0.00616998 0.00279335 -0.000791903 0.00699848)
(0.0292131 -0.000507402 -0.00622313 0.00291837 -0.000861636 0.00645901)
(0.0334513 -0.000286879 -0.00536957 0.00320087 -0.000777322 0.00612843)
(0.0285727 -0.00102344 -0.00520003 0.00298759 -0.000782781 0.00702201)
(0.0329198 -0.00201051 -0.0068853 0.00305644 -0.000822871 0.00732399)
(0.0316656 -0.00102411 -0.00621876 0.00322369 -0.000822582 0.00692306)
(0.0278693 -0.000149868 -0.00615037 0.00302193 -0.00114687 0.00752662)
(0.0325591 -0.0014735 -0.00591583 0.00344065 -0.0011023 0.00673128)
(0.0357595 -0.00194093 -0.00680992 0.00339032 -0.000397335 0.00621052)
(0.0362255 -0.00235936 -0.00612035 0.00327735 -0.000713507 0.00630582)
(0.0382695 -0.00209102 -0.006277 0.00342955 -0.000995069 0.00653096)
(0.034958 -0.00209739 -0.00563961 0.00375362 -0.00104167 0.00707855)
(0.0383079 -0.00181022 -0.00621466 0.00348395 -0.000823113 0.00720782)
(0.0416127 -0.00108163 -0.00919523 0.00352988 -0.000931416 0.00707922)
(0.0333289 0.000894833 -0.00882728 0.00379377 -0.00117232 0.00678602)
(0.0326251 -0.000365311 -0.00883564 0.00416057 -0.00100975 0.00757028)
(0.0345008 -0.000995468 -0.00732084 0.0040451 -0.00116071 0.00796926)
(0.0307526 -0.000222247 -0.00592042 0.00330143 -0.000713337 0.00726598)
(0.0315708 -0.000411367 -0.00610283 0.00299098 -0.000439623 0.00593185)
(0.0331672 -0.000867028 -0.00649954 0.00335994 -0.000468951 0.00575307)
(0.0275658 -0.00120813 -0.00563308 0.00357891 -0.00104929 0.00581376)
(0.0384431 -0.00113473 -0.00702875 0.00321232 -0.00147766 0.00649105)
(0.0336077 -0.00109414 -0.00561862 0.00309998 -0.00120753 0.00648051)
(0.0294421 -0.000266067 -0.00553293 0.00333989 -0.00153501 0.00641333)
(0.0274012 -0.000943239 -0.00534557 0.00320735 -0.0016072 0.00657232)
(0.0314451 -0.000992067 -0.00761765 0.00293284 -0.0015318 0.00763242)
(0.0331261 -0.000971112 -0.00768739 0.0028919 -0.00111153 0.00795075)
(0.0316759 -0.00107989 -0.00682487 0.00297388 -0.0012478 0.00739345)
(0.0307167 -0.00159541 -0.00778813 0.00282766 -0.00128295 0.0074718)
(0.0320383 -0.00106912 -0.00765721 0.00255114 -0.00118113 0.00734136)
(0.037692 -0.00231591 -0.00744022 0.00294104 -0.00107804 0.00720227)
(0.0412831 -0.00134332 -0.00733381 0.00281929 -0.0011555 0.00696719)
(0.0391785 -0.00112386 -0.00787655 0.00275871 -0.000961498 0.00728002)
(0.0374478 -0.00122623 -0.00738339 0.00277494 -0.00130909 0.00760563)
(0.0393809 -0.000586528 -0.0055693 0.00284786 -0.00139727 0.00761685)
(0.0361743 3.72567e-05 -0.00523955 0.00297415 -0.00110502 0.00597192)
(0.0372014 -0.000874983 -0.00546102 0.00290804 -0.000938167 0.00608078)
(0.0385694 -0.000584931 -0.0068191 0.00268897 -0.000808441 0.00653686)
(0.0339808 0.000273104 -0.00676254 0.00247763 -0.00123678 0.00677432)
(0.0296796 0.000673341 -0.00697777 0.0027939 -0.00132031 0.00680712)
(0.0292007 -0.000255908 -0.0058934 0.00318282 -0.000667618 0.00604174)
(0.0312862 -0.000326635 -0.00694534 0.00310149 -0.000736481 0.0056774)
(0.0346017 -0.000184389 -0.00651224 0.00334745 -0.00060354 0.00627961)
(0.0272281 -0.00137385 -0.00499938 0.00330535 -0.000644466 0.00700839)
(0.0316486 -0.00242074 -0.00699768 0.00328436 -0.000395121 0.00693701)
(0.033946 -0.00112938 -0.0064357 0.00329964 -0.000528699 0.00664694)
(0.0302263 -0.000512737 -0.00679685 0.00313256 -0.000693996 0.0075653)
(0.034364 -0.00166834 -0.00686318 0.00350479 -0.000559827 0.00707819)
(0.0386062 -0.00184089 -0.0071281 0.00354957 -0.000232558 0.00609704)
(0.0353569 -0.00214964 -0.006388 0.00342248 -0.000510444 0.00558511)
(0.0354862 -0.00197439 -0.00634978 0.0040023 -0.000863741 0.00638916)
(0.0346612 -0.00303023 -0.00545772 0.0043251 -0.000795887 0.00670837)
(0.0383174 -0.00254968 -0.0063508 0.00392318 -0.000699892 0.00666814)
(0.0398742 -0.00154333 -0.0081514 0.00410537 -0.000816479 0.00643082)
(0.0345468 0.000663081 -0.00827003 0.00417869 -0.000888241 0.00650679)
(0.0331857 -0.000556618 -0.0087202 0.00432607 -0.000574874 0.00717814)
(0.0350798 -0.00117959 -0.00691054 0.00425056 -0.000737275 0.00692637)
(0.0333149 -0.000375685 -0.00542881 0.00360196 -0.000497408 0.00656471)
(0.0340516 -0.000364345 -0.00536075 0.00337126 -0.000113299 0.00569629)
(0.0360369 -0.00123092 -0.00695711 0.00382707 -0.00014595 0.00579165)
(0.0313722 -0.00155786 -0.00658376 0.0040914 -0.000828439 0.00578906)
(0.0359097 -0.00139491 -0.00714764 0.00378884 -0.00153023 0.00624521)
(0.0325015 -0.0015325 -0.0062874 0.00340343 -0.00102609 0.00616668)
(0.0303576 -0.000565723 -0.00598871 0.003621 -0.00129826 0.00628711)
(0.0283202 -0.00149072 -0.00496239 0.00349426 -0.00136462 0.00642192)
(0.0313654 -0.00152683 -0.00752292 0.00317028 -0.00134879 0.0075)
(0.0334057 -0.000708218 -0.0077007 0.00312039 -0.000846378 0.00787645)
(0.0312446 -0.00118601 -0.00704074 0.00346853 -0.000971334 0.0077637)
(0.0315087 -0.00200927 -0.0079536 0.00318726 -0.0008918 0.00770035)
(0.0307724 -0.00163228 -0.00727011 0.00303265 -0.000952853 0.00748391)
(0.0370825 -0.00261331 -0.00714312 0.00341487 -0.000743482 0.00736858)
(0.0379663 -0.00165501 -0.00718302 0.00320243 -0.000776728 0.00654988)
(0.0334452 -0.00121071 -0.00684564 0.0031105 -0.000777207 0.00634589)
(0.0337718 -0.00136606 -0.00713258 0.00312684 -0.000988328 0.00663289)
(0.0386184 -0.00040123 -0.00578132 0.00291497 -0.000900481 0.00696854)
(0.0317839 -7.28403e-05 -0.00489929 0.00303673 -0.000682951 0.00547449)
(0.0355625 -0.00140502 -0.00479462 0.00295275 -0.000541762 0.00576753)
(0.0377327 -0.000724687 -0.00619294 0.00267582 -0.000636758 0.00625625)
(0.0333798 -0.00010253 -0.00627988 0.00258559 -0.00109424 0.00629759)
(0.0304789 0.000441154 -0.006935 0.00298904 -0.000981254 0.00620795)
(0.0307068 -0.000740249 -0.00649821 0.00325624 -0.000406823 0.00565201)
(0.0376284 -0.000373257 -0.00865971 0.00313785 -0.000530964 0.00594244)
(0.0360386 -0.000239916 -0.00923683 0.00335608 -0.00035289 0.00716831)
(0.0297228 -0.00157135 -0.00738959 0.00349719 -0.000328842 0.00789061)
(0.0317646 -0.00210698 -0.00846028 0.00330607 -9.49428e-05 0.00760995)
(0.0349394 -0.000823096 -0.00744436 0.00320143 -0.000288081 0.00683049)
(0.035265 -0.000423086 -0.00752041 0.00310031 -0.000238142 0.0077213)
(0.0361488 -0.00121933 -0.00669327 0.00361354 -0.000147291 0.00769802)
(0.0383233 -0.00143327 -0.00843109 0.00364567 0.000102467 0.00656042)
(0.0367455 -0.00141041 -0.00804814 0.00354622 -0.000472585 0.00611743)
(0.0367653 -0.00217003 -0.00667529 0.00443327 -0.000792548 0.00689921)
(0.0344565 -0.00340793 -0.00547144 0.00460945 -0.000696516 0.00652958)
(0.0360284 -0.00306611 -0.00626322 0.00429831 -0.00059993 0.00627874)
(0.0378849 -0.00206064 -0.00739519 0.00443223 -0.000343195 0.00685686)
(0.0371592 -6.76233e-06 -0.00816999 0.00424425 -0.000389659 0.00726238)
(0.037853 -0.000137925 -0.00942512 0.00420205 -0.000248252 0.00767132)
(0.0358656 -0.000959735 -0.00696982 0.00424333 -0.000437531 0.00670235)
(0.0330496 -0.000933077 -0.00570007 0.00381042 -0.0001965 0.00613661)
(0.0364848 -0.000860661 -0.00605643 0.00368412 0.000205976 0.00556833)
(0.037932 -0.000968405 -0.00748549 0.00402513 8.02228e-05 0.00577449)
(0.0365052 -0.00143193 -0.00809538 0.00431253 -0.000521882 0.0060274)
(0.0339137 -0.000503759 -0.00824684 0.00390568 -0.0014262 0.00638758)
(0.03209 -0.00111262 -0.00718022 0.00354461 -0.000837439 0.00625259)
(0.0280578 -0.000524037 -0.00617316 0.00371787 -0.00106502 0.00644953)
(0.0282394 -0.00143091 -0.00571099 0.00386124 -0.00121009 0.00655693)
(0.0318669 -0.00134605 -0.0077338 0.00330149 -0.00108829 0.00752632)
(0.0333123 -0.000549461 -0.00847861 0.00326036 -0.00035163 0.00822608)
(0.0322311 -0.000917494 -0.007976 0.00374609 -0.000693368 0.00773268)
(0.0343257 -0.00178848 -0.00820834 0.00344949 -0.000788183 0.00728865)
(0.0318077 -0.00155761 -0.00792186 0.00342669 -0.000765406 0.00740848)
(0.0375744 -0.00238783 -0.00757597 0.00361926 -0.000600505 0.00745902)
(0.0328158 -0.00210858 -0.00719302 0.0034656 -0.000521123 0.00669633)
(0.0329983 -0.00122545 -0.00711554 0.00345411 -0.000336428 0.00619797)
(0.0331286 -0.0010345 -0.00813446 0.00343475 -0.000617625 0.00615437)
(0.0389947 2.72112e-05 -0.00719352 0.00301092 -0.000631541 0.00679437)
(0.0341571 -0.000165584 -0.00536087 0.00293779 -0.000454542 0.00562078)
(0.0393757 -0.00174081 -0.00504266 0.00280389 -0.000296223 0.00529193)
(0.0395224 -0.000842313 -0.00578508 0.00269561 -0.000321866 0.00580401)
(0.0341287 -0.000532772 -0.00623082 0.00269871 -0.000682166 0.00564971)
(0.0349658 -0.000476849 -0.00712132 0.00299931 -0.000414417 0.00565369)
(0.0362626 -0.00121669 -0.00867594 0.00305715 -0.000217346 0.00688862)
(0.0399236 -0.000499946 -0.0102596 0.00298118 -0.00029179 0.00686238)
(0.0348601 -0.000665643 -0.0102935 0.00327389 -0.000256148 0.00868402)
(0.0322596 -0.00137593 -0.00942565 0.00340889 -0.000448893 0.00932351)
(0.0309727 -0.00133702 -0.00989977 0.00331272 -0.000211763 0.00912691)
(0.0296459 -1.98449e-05 -0.00745437 0.0032572 -0.000287873 0.00787167)
(0.034146 -0.000129007 -0.00807498 0.0033199 -0.000136527 0.00821506)
(0.0356659 -0.000403429 -0.00718784 0.0036584 -0.000107417 0.00811765)
(0.0367326 -0.000811813 -0.00791842 0.00377376 -5.96023e-05 0.00713148)
(0.0395334 -0.00142345 -0.00848576 0.00387388 -0.000492972 0.0068429)
(0.0374186 -0.00214505 -0.00729142 0.00494228 -0.000862133 0.00729774)
(0.0350138 -0.00295833 -0.00670398 0.00510657 -0.000889285 0.00694944)
(0.0365758 -0.00311227 -0.00719683 0.00451311 -0.000596746 0.00641306)
(0.0371601 -0.00182241 -0.00697983 0.00444525 -0.000164759 0.00692633)
(0.0366669 -0.000320793 -0.00821021 0.00455696 -0.000106493 0.00763856)
(0.0415311 5.55732e-05 -0.00987977 0.0044892 -0.000252488 0.00739504)
(0.0380297 -0.000542872 -0.00796921 0.00435192 -0.000329266 0.00669357)