/*--------------------------------*- C++ -*----------------------------------*\
  =========                 |
  \\      /  F ield         | OpenFOAM: The Open Source CFD Toolbox
   \\    /   O peration     | Website:  https://openfoam.org
    \\  /    A nd           | Version:  10
     \\/     M anipulation  |
\*---------------------------------------------------------------------------*/
FoamFile
{
    format      ascii;
    class       volScalarField;
    location    "13";
    object      pPrime2Mean;
}
// * * * * * * * * * * * * * * * * * * * * * * * * * * * * * * * * * * * * * //

dimensions      [0 4 -4 0 0 0 0];

internalField   nonuniform List<scalar> 
102400
(
5.78249e-05
5.27923e-05
4.41302e-05
7.27194e-05
2.9122e-05
6.88827e-05
0.000100421
5.57956e-05
6.98441e-05
5.24095e-05
8.18329e-05
4.0882e-05
5.55727e-05
3.07496e-05
4.7931e-05
5.56681e-05
4.48577e-05
5.94898e-05
5.63218e-05
5.1667e-05
0.000110076
9.05864e-05
6.64794e-05
2.20719e-05
5.54055e-05
3.68034e-05
5.44728e-05
3.65993e-05
5.82786e-05
5.07458e-05
5.27081e-05
4.44532e-05
3.78006e-05
5.9783e-05
7.81035e-05
7.87758e-05
7.44962e-05
7.05245e-05
7.11744e-05
7.32887e-05
5.71188e-05
7.62362e-05
6.25371e-05
7.53902e-05
2.86561e-05
9.3875e-05
0.000103377
4.63757e-05
0.000112488
5.22462e-05
8.70045e-05
5.55024e-05
5.78332e-05
3.89302e-05
4.07064e-05
6.33106e-05
5.57863e-05
6.47948e-05
4.32078e-05
5.05658e-05
9.97856e-05
0.000122612
6.70944e-05
3.7801e-05
8.55287e-05
3.84046e-05
5.46364e-05
3.30942e-05
7.49799e-05
6.01287e-05
5.73541e-05
4.17845e-05
4.24369e-05
6.64356e-05
6.60397e-05
7.1169e-05
9.29408e-05
6.92877e-05
7.02403e-05
5.6353e-05
8.19388e-05
7.02569e-05
4.88581e-05
9.45488e-05
5.64251e-05
9.73013e-05
0.000102967
5.5548e-05
0.000138558
5.8963e-05
0.000133318
5.64293e-05
5.43323e-05
2.98365e-05
5.70195e-05
5.94983e-05
4.62705e-05
4.85896e-05
8.19478e-05
9.18916e-05
0.000129163
0.000105822
7.24443e-05
4.38791e-05
8.80864e-05
4.11544e-05
6.22559e-05
5.13694e-05
7.83263e-05
9.4268e-05
7.70087e-05
4.92998e-05
5.53175e-05
9.16674e-05
9.08972e-05
8.77398e-05
8.34049e-05
8.37485e-05
7.74476e-05
7.74199e-05
8.04841e-05
6.30597e-05
5.91209e-05
0.000117438
6.86058e-05
7.00171e-05
0.000157007
9.5775e-05
0.000102281
7.49895e-05
0.000156479
5.89294e-05
8.07574e-05
5.38377e-05
9.54943e-05
8.64295e-05
7.24344e-05
7.42549e-05
7.84495e-05
9.92004e-05
0.000164499
0.000106076
8.24637e-05
4.94198e-05
8.27511e-05
6.06013e-05
7.56093e-05
7.66934e-05
6.34266e-05
9.1487e-05
8.25386e-05
8.14582e-05
7.20927e-05
0.00011289
0.000146629
9.22906e-05
0.000115187
0.000132407
8.25104e-05
0.000119305
6.66773e-05
7.41978e-05
6.9956e-05
0.000125071
7.0287e-05
8.98699e-05
0.000135619
8.61262e-05
9.5732e-05
8.28506e-05
0.000131268
5.79517e-05
7.64559e-05
7.2555e-05
6.83271e-05
7.8968e-05
7.64339e-05
0.000108918
7.73637e-05
8.08072e-05
0.000159362
0.000111796
8.30244e-05
4.87482e-05
0.000102258
7.20314e-05
8.70586e-05
8.51652e-05
6.94375e-05
8.79071e-05
8.26741e-05
8.87742e-05
8.21749e-05
0.00010595
0.000132711
0.000128905
0.000106321
0.000109365
0.000113343
0.000126728
6.12566e-05
9.87123e-05
6.76278e-05
0.000105751
7.07449e-05
0.000117979
0.000113549
0.000126415
7.23648e-05
7.34878e-05
9.19743e-05
6.12333e-05
6.48369e-05
6.69477e-05
4.68904e-05
5.42795e-05
5.36756e-05
0.00010003
6.87032e-05
9.26563e-05
0.00013582
0.000130234
8.06498e-05
5.56918e-05
0.00010784
5.86e-05
7.4678e-05
7.83243e-05
8.08951e-05
0.000104959
7.94728e-05
9.17981e-05
7.11314e-05
8.5162e-05
9.65771e-05
0.000129464
9.13535e-05
9.69474e-05
0.000129603
8.46861e-05
8.16833e-05
8.29544e-05
8.54893e-05
0.000120039
0.000106709
9.87093e-05
0.000128306
0.000160832
7.31722e-05
8.89335e-05
7.34866e-05
5.91802e-05
7.48681e-05
4.28548e-05
6.24011e-05
8.05595e-05
6.14604e-05
8.93264e-05
8.64375e-05
7.46656e-05
0.00011771
0.00013321
8.61627e-05
7.05577e-05
0.000127602
7.47592e-05
5.14295e-05
8.03531e-05
8.80709e-05
9.32181e-05
8.71296e-05
7.01599e-05
5.19215e-05
8.31574e-05
9.17211e-05
0.000116876
9.01411e-05
0.000108099
0.00012137
7.69496e-05
6.73831e-05
5.99507e-05
0.000104326
0.000106815
0.000117268
8.40925e-05
0.000128005
0.000123119
6.10366e-05
0.000112486
7.98388e-05
5.27582e-05
0.00010373
3.47005e-05
6.30424e-05
9.52898e-05
9.06784e-05
8.91056e-05
8.72438e-05
6.14275e-05
8.85728e-05
9.74605e-05
6.53948e-05
5.76204e-05
0.000117602
6.5616e-05
4.8706e-05
6.98436e-05
8.72677e-05
6.04659e-05
7.0103e-05
3.94366e-05
6.18579e-05
9.32654e-05
6.54699e-05
0.000103127
7.08718e-05
9.46256e-05
9.19594e-05
6.89176e-05
8.398e-05
5.89099e-05
8.6295e-05
0.000114053
9.78142e-05
0.000114013
8.2828e-05
6.93714e-05
7.57979e-05
8.82095e-05
0.000102744
5.16269e-05
9.94847e-05
4.96571e-05
8.34699e-05
0.000107615
6.70601e-05
6.79048e-05
9.4152e-05
7.23411e-05
7.04713e-05
8.30686e-05
4.83868e-05
5.81681e-05
0.000124136
8.99382e-05
5.99076e-05
0.000101988
8.66614e-05
6.9715e-05
7.31325e-05
4.74472e-05
7.94117e-05
7.34642e-05
6.26946e-05
9.18245e-05
5.43622e-05
7.3237e-05
7.6461e-05
8.01135e-05
0.000106773
7.51622e-05
6.76282e-05
0.000108702
7.42047e-05
0.000104918
9.39954e-05
5.85126e-05
8.63533e-05
6.05658e-05
0.000105693
5.95642e-05
7.47967e-05
5.85766e-05
6.38207e-05
7.44174e-05
8.57785e-05
6.83233e-05
9.51976e-05
7.52912e-05
0.000111259
9.45795e-05
5.3864e-05
3.70948e-05
0.00012286
0.000105298
8.25629e-05
7.9152e-05
6.54072e-05
7.59159e-05
9.2858e-05
5.405e-05
5.56093e-05
5.73897e-05
0.000104913
7.31149e-05
6.20981e-05
7.30593e-05
8.5847e-05
7.25312e-05
7.85481e-05
8.21472e-05
4.34727e-05
0.000109873
8.38705e-05
9.55502e-05
8.11933e-05
4.99193e-05
6.81068e-05
6.70283e-05
0.000104253
8.60984e-05
7.3791e-05
5.83972e-05
4.33672e-05
6.89789e-05
9.58122e-05
4.85662e-05
7.5658e-05
7.67392e-05
8.34617e-05
9.6617e-05
7.48018e-05
5.58681e-05
0.000101257
0.000109556
9.9425e-05
5.33497e-05
6.26758e-05
6.34826e-05
0.000118393
9.32141e-05
6.08647e-05
7.31518e-05
9.32416e-05
9.86443e-05
0.000107332
9.29143e-05
6.82743e-05
7.71426e-05
7.05538e-05
4.18188e-05
3.51865e-05
0.000100079
8.42651e-05
8.25986e-05
6.24748e-05
5.87255e-05
6.97651e-05
6.26094e-05
0.000109373
6.72731e-05
6.69052e-05
6.54645e-05
4.89122e-05
6.81707e-05
6.05845e-05
6.82472e-05
8.05141e-05
9.32099e-05
9.32377e-05
6.97832e-05
7.66431e-05
5.01143e-05
0.000113472
9.41517e-05
9.46858e-05
6.60351e-05
8.5525e-05
6.13499e-05
0.000127057
8.3274e-05
7.1018e-05
7.18361e-05
5.95678e-05
0.000139014
7.89065e-05
0.000105921
5.17738e-05
5.90052e-05
5.83404e-05
3.45556e-05
3.72041e-05
7.7935e-05
8.41766e-05
0.000102237
8.18765e-05
7.59586e-05
6.4796e-05
0.000114478
9.4849e-05
0.000101492
5.89851e-05
6.20468e-05
4.16074e-05
6.24409e-05
7.36752e-05
6.3953e-05
6.28391e-05
8.15142e-05
0.000132
9.6353e-05
9.47439e-05
5.84586e-05
8.46426e-05
5.46133e-05
0.00010426
7.9774e-05
6.33116e-05
7.29412e-05
0.000156126
8.42918e-05
4.75879e-05
9.07105e-05
8.46701e-05
0.000105335
0.00010632
0.000115798
7.3395e-05
9.99533e-05
4.64127e-05
4.44429e-05
2.94223e-05
4.84371e-05
7.07199e-05
8.09139e-05
0.000115618
4.29334e-05
7.95229e-05
0.000113328
8.93935e-05
8.57096e-05
9.39943e-05
5.23701e-05
3.97259e-05
5.51027e-05
5.94241e-05
6.62049e-05
6.06415e-05
8.54948e-05
7.05145e-05
6.46382e-05
7.8238e-05
5.92049e-05
7.44837e-05
5.02967e-05
5.24067e-05
8.09243e-05
6.75495e-05
7.45477e-05
0.000153379
0.000107116
6.11763e-05
4.59188e-05
9.76981e-05
0.000113604
9.33194e-05
5.68725e-05
8.59441e-05
7.0911e-05
1.97097e-05
5.49041e-05
4.97691e-05
7.73437e-05
8.30913e-05
5.61293e-05
5.87492e-05
5.37829e-05
5.02528e-05
5.93422e-05
7.89863e-05
8.47709e-05
6.57767e-05
4.34127e-05
4.62037e-05
4.37471e-05
6.31914e-05
8.9331e-05
5.40728e-05
8.79417e-05
7.31617e-05
7.67081e-05
5.25645e-05
4.68141e-05
6.13095e-05
7.2293e-05
4.50558e-05
6.07403e-05
7.62866e-05
5.88629e-05
9.93394e-05
0.000104214
6.10034e-05
5.53203e-05
8.98291e-05
0.000112277
8.67876e-05
4.60416e-05
7.53623e-05
5.95919e-05
3.44458e-05
7.20047e-05
4.25981e-05
5.63755e-05
5.56051e-05
8.21194e-05
4.64135e-05
5.88239e-05
5.40082e-05
5.12304e-05
9.77938e-05
5.72051e-05
4.59919e-05
6.21437e-05
4.16511e-05
2.8683e-05
6.83313e-05
5.95619e-05
2.89768e-05
7.34225e-05
0.000116873
5.77563e-05
3.98239e-05
5.12813e-05
6.97331e-05
7.88366e-05
0.000100822
3.45618e-05
3.41948e-05
5.8186e-05
5.67648e-05
8.71206e-05
6.65694e-05
3.87749e-05
7.25113e-05
9.55965e-05
7.92545e-05
4.51592e-05
5.50624e-05
5.28476e-05
3.55074e-05
5.09117e-05
4.34261e-05
5.70771e-05
5.4817e-05
8.02787e-05
5.08864e-05
3.59825e-05
6.51492e-05
3.99856e-05
8.67705e-05
5.28566e-05
2.81214e-05
3.99423e-05
5.34158e-05
2.34098e-05
3.30444e-05
3.30179e-05
5.63315e-05
6.39046e-05
7.28443e-05
7.95315e-05
3.63213e-05
2.95498e-05
5.56846e-05
3.42786e-05
7.18458e-05
4.39091e-05
1.36771e-05
6.30774e-05
6.71622e-05
7.51452e-05
6.20048e-05
6.12062e-05
3.9245e-05
6.61488e-05
8.01626e-05
3.79577e-05
4.61188e-05
0.000128973
5.84406e-05
1.30057e-05
1.69806e-05
6.26487e-05
6.98645e-05
5.688e-05
3.71496e-05
3.24402e-05
6.33443e-05
2.81334e-05
5.88659e-05
3.26528e-05
2.1046e-05
3.79425e-05
4.57673e-05
2.75065e-05
2.14552e-05
5.11016e-05
7.37592e-05
3.58561e-05
6.35584e-05
6.5919e-05
3.45661e-05
1.39699e-05
5.51674e-05
3.52609e-05
3.28434e-05
3.42448e-05
2.74545e-05
2.12411e-05
3.32458e-05
6.88913e-05
5.52867e-05
3.02651e-05
5.00669e-05
5.23663e-05
4.45733e-05
3.12865e-05
5.17037e-05
7.73957e-05
2.1606e-05
1.33274e-05
3.12331e-05
3.36595e-05
4.63196e-05
4.16286e-05
1.58053e-05
1.57822e-05
3.18163e-05
1.79697e-05
4.74379e-05
4.65213e-05
2.27337e-05
3.66107e-05
3.57896e-05
1.4921e-05
1.37633e-05
3.39989e-05
5.34652e-05
2.86516e-05
3.40034e-05
5.59492e-05
2.23651e-05
1.65428e-05
3.21179e-05
5.66064e-05
3.1654e-05
2.51595e-05
3.08596e-05
3.16456e-05
2.27254e-05
2.92308e-05
2.29387e-05
3.93493e-05
3.84772e-05
3.37445e-05
3.63866e-05
2.10783e-05
4.08397e-05
2.92086e-05
1.64177e-05
8.22633e-06
1.58425e-05
2.14429e-05
1.4793e-05
1.74976e-05
1.22945e-05
8.00167e-06
1.00922e-05
3.23993e-05
4.53743e-05
2.44814e-05
2.64969e-05
1.52754e-05
2.72939e-05
1.48745e-05
1.1459e-05
1.55332e-05
2.48247e-05
1.48964e-05
1.33015e-05
4.34705e-05
1.7439e-05
5.18871e-06
3.90369e-05
3.02384e-05
2.0748e-05
2.41839e-05
2.53059e-05
3.47867e-05
9.04947e-06
2.07283e-05
1.74537e-05
1.32249e-05
1.95062e-05
3.03267e-05
4.78673e-05
1.18808e-05
3.81511e-05
1.98675e-05
1.3929e-05
2.98532e-06
9.28572e-06
2.23601e-05
1.38301e-05
2.0267e-05
1.13571e-05
4.40568e-06
2.5349e-06
1.72697e-05
2.10464e-05
2.85641e-05
2.5143e-05
1.26261e-05
1.55033e-05
1.38426e-05
1.0031e-05
4.48899e-05
1.25545e-05
1.16951e-05
7.91862e-06
2.95685e-05
1.98839e-05
1.01875e-05
1.00334e-05
2.17713e-05
1.20898e-05
9.3854e-06
9.66473e-06
1.6743e-05
4.0738e-06
4.85773e-06
2.73911e-05
1.07946e-05
1.05322e-05
2.36188e-05
3.51518e-05
1.10157e-05
1.45423e-05
5.56871e-06
1.29039e-05
3.39395e-06
3.73791e-06
7.48566e-06
1.49428e-05
6.13185e-06
4.21006e-06
3.42558e-06
7.26181e-06
9.35097e-06
1.69311e-05
3.91515e-05
2.11496e-05
1.19547e-05
7.88223e-06
1.3716e-05
6.16185e-06
2.85494e-05
9.84086e-06
1.29606e-05
1.9069e-05
2.20515e-05
1.25519e-05
7.48355e-06
1.09412e-05
8.94137e-06
9.66166e-06
4.2256e-06
3.89462e-06
5.95786e-06
3.74525e-06
4.62627e-06
8.95892e-06
1.35468e-05
1.25713e-05
3.46918e-05
2.04639e-05
5.24517e-06
5.88632e-06
8.24347e-06
6.49619e-06
2.24789e-06
2.91846e-06
5.06518e-06
9.39953e-06
8.17297e-06
6.78985e-06
2.43294e-06
4.45499e-06
5.97262e-06
1.31373e-05
2.963e-05
7.17922e-06
2.44411e-06
7.44304e-06
9.10098e-06
7.97101e-06
2.91972e-05
3.08313e-06
7.78578e-06
7.35745e-06
1.28398e-05
1.07615e-05
7.04071e-06
1.24889e-05
7.50801e-06
3.81327e-06
1.14211e-06
5.83943e-06
3.2086e-06
2.73315e-06
2.78924e-06
1.61945e-06
9.92292e-06
9.08173e-06
3.40959e-05
1.62625e-05
1.66401e-05
5.589e-06
3.92802e-06
4.12699e-06
2.34656e-06
1.80741e-06
1.56067e-06
7.45867e-06
7.31069e-06
6.10806e-06
3.0481e-06
2.88142e-06
5.04636e-06
1.52328e-05
2.64839e-05
2.98384e-06
6.76162e-06
9.09484e-06
6.6111e-06
1.02425e-05
1.07249e-05
4.17294e-06
7.54686e-06
3.41374e-06
1.35355e-05
5.00679e-06
4.957e-06
1.12529e-05
1.28491e-05
6.47283e-06
1.99704e-06
2.67335e-06
8.46492e-06
2.27187e-06
2.7374e-06
2.58372e-06
4.94873e-06
1.08441e-05
3.20094e-05
1.5013e-05
6.45052e-06
6.26784e-06
4.28847e-06
1.88413e-06
1.10441e-06
1.99582e-06
2.83283e-06
7.95453e-06
4.99834e-06
2.47157e-06
1.51615e-06
3.92558e-06
7.28161e-06
7.1903e-06
8.72267e-06
1.36667e-06
2.90844e-06
6.21821e-06
7.50599e-06
6.17584e-06
6.24926e-06
8.12721e-06
2.47488e-06
3.19347e-06
4.15729e-06
2.05648e-06
2.95313e-06
3.46891e-06
3.25599e-06
2.46053e-06
2.5044e-06
2.58742e-06
3.67821e-06
1.74706e-06
3.38096e-06
4.31905e-06
7.22403e-06
1.86366e-05
1.26845e-05
5.988e-06
1.18576e-05
9.9856e-06
4.34618e-06
2.51674e-06
1.31524e-11
1.79013e-06
3.10262e-06
8.20098e-06
2.71507e-06
5.33458e-07
7.38029e-07
4.57365e-06
3.6399e-06
1.08936e-05
1.09687e-05
3.34997e-06
4.34944e-06
2.21451e-06
5.22333e-06
8.13485e-06
9.3696e-06
5.01628e-06
3.32711e-06
1.78833e-06
2.92614e-06
3.32756e-06
3.72311e-06
8.25747e-06
4.2583e-06
6.85774e-07
2.70111e-06
2.33568e-06
2.39605e-06
1.49115e-06
2.52012e-06
3.78138e-06
9.24424e-06
3.78962e-06
3.66354e-06
3.38577e-06
1.13001e-05
1.14545e-05
6.19441e-06
4.79191e-06
9.29696e-07
2.05843e-06
3.7079e-06
5.81413e-06
2.29602e-06
1.03734e-06
1.53487e-06
2.96725e-06
3.10302e-06
4.11002e-06
1.20729e-05
1.57679e-06
4.79552e-06
2.65948e-06
3.13581e-06
5.8488e-06
5.29818e-06
6.57827e-06
2.59637e-06
1.79186e-06
2.29237e-06
2.32049e-06
2.37603e-06
2.95465e-06
1.80133e-06
1.002e-06
2.19617e-06
2.50246e-06
2.49828e-06
1.95877e-06
1.85551e-06
2.31274e-06
6.17328e-06
2.37938e-06
7.48263e-07
2.18242e-06
5.16843e-06
6.57196e-06
5.36969e-06
2.3849e-06
1.76542e-06
1.85743e-06
3.01545e-06
4.1531e-06
2.10944e-06
2.04031e-06
2.74713e-06
2.64018e-06
2.48169e-06
2.96129e-06
8.45789e-06
1.82359e-06
2.16296e-06
3.20187e-06
2.43802e-06
2.81382e-06
2.6816e-06
3.42143e-06
2.40062e-06
1.75864e-06
2.08915e-06
2.67622e-06
2.16881e-06
2.68622e-06
2.22632e-06
1.38769e-06
2.07767e-06
1.81247e-06
1.77676e-06
1.85204e-06
1.9033e-06
1.99143e-06
3.27037e-06
2.57108e-06
1.63096e-06
1.53265e-06
3.65045e-06
3.51048e-06
1.93148e-06
1.67957e-06
1.88488e-06
1.90134e-06
2.36847e-06
3.02514e-06
2.69878e-06
3.0062e-06
3.05883e-06
2.94937e-06
2.29128e-06
2.67281e-06
2.37498e-06
2.03409e-06
2.34122e-06
2.27787e-06
1.91717e-06
2.05038e-06
2.10597e-06
2.08569e-06
2.17252e-06
2.14204e-06
2.332e-06
2.37464e-06
2.39573e-06
2.37353e-06
2.07129e-06
1.93601e-06
1.98389e-06
2.00225e-06
2.40748e-06
2.07384e-06
1.86872e-06
2.07242e-06
2.27899e-06
2.35638e-06
1.79778e-06
1.83018e-06
2.14631e-06
2.29879e-06
1.83454e-06
1.71135e-06
1.709e-06
1.76401e-06
1.90061e-06
2.00839e-06
2.20953e-06
2.4812e-06
2.37734e-06
2.37593e-06
2.23047e-06
2.71333e-06
3.05225e-06
1.65457e-06
2.13163e-06
2.17676e-06
1.89148e-06
2.31535e-06
2.14192e-06
2.13292e-06
2.14937e-06
2.04669e-06
2.14552e-06
2.0196e-06
2.06285e-06
2.08252e-06
1.94961e-06
1.85382e-06
1.86156e-06
1.7627e-06
1.86162e-06
1.88671e-06
1.86899e-06
1.91367e-06
1.99405e-06
1.94537e-06
1.91433e-06
1.88509e-06
1.8992e-06
1.98171e-06
1.83321e-06
1.85214e-06
1.79736e-06
1.68228e-06
1.71925e-06
1.75354e-06
1.88017e-06
1.99545e-06
1.94047e-06
1.93409e-06
2.16223e-06
2.84729e-06
2.5228e-06
1.98086e-06
1.92078e-06
1.92321e-06
1.84542e-06
2.19608e-06
2.00216e-06
2.00143e-06
2.11726e-06
1.9371e-06
1.9847e-06
1.91846e-06
1.88961e-06
1.90759e-06
1.88793e-06
1.86388e-06
1.84216e-06
1.81653e-06
1.78475e-06
1.74009e-06
1.778e-06
1.79515e-06
1.82099e-06
1.81582e-06
1.91255e-06
1.92733e-06
1.81249e-06
1.86775e-06
1.81886e-06
1.90065e-06
1.89032e-06
1.94378e-06
2.05393e-06
2.1311e-06
2.1967e-06
2.29298e-06
2.30477e-06
2.23637e-06
2.21469e-06
2.28775e-06
2.28451e-06
2.20336e-06
2.21739e-06
2.26284e-06
2.21905e-06
2.25328e-06
2.27227e-06
2.22912e-06
2.22451e-06
2.23506e-06
2.23343e-06
2.22045e-06
2.18826e-06
2.13713e-06
2.11749e-06
2.06156e-06
2.02517e-06
2.02792e-06
2.01678e-06
1.9974e-06
1.99647e-06
2.03018e-06
2.0163e-06
1.94349e-06
1.96195e-06
2.03539e-06
2.09082e-06
2.12058e-06
2.03249e-06
4.99138e-05
2.35798e-05
8.4125e-05
5.31837e-05
7.94474e-05
5.45226e-05
7.46347e-05
4.62242e-05
9.04338e-05
3.26024e-05
9.40046e-05
7.12414e-05
9.5502e-05
4.56785e-05
4.70624e-05
6.84959e-05
0.000106068
8.13426e-05
5.97115e-05
6.78984e-05
8.60153e-05
3.13888e-05
6.70415e-05
3.72232e-05
6.22358e-05
8.17842e-05
9.24293e-05
7.48939e-05
7.86194e-05
8.70483e-05
4.29306e-05
7.48892e-05
4.00604e-05
0.000112506
6.93217e-05
0.000121205
5.29255e-05
6.26254e-05
3.24814e-05
4.35684e-05
5.59203e-05
5.03901e-05
9.83028e-05
6.38982e-05
8.13047e-05
4.57056e-05
6.64173e-05
4.17152e-05
8.085e-05
4.79139e-05
9.63679e-05
7.12658e-05
0.00010035
4.80575e-05
4.5193e-05
7.44449e-05
8.98938e-05
8.86902e-05
7.84834e-05
6.50227e-05
7.78927e-05
2.91058e-05
7.72389e-05
4.83108e-05
6.42507e-05
6.73221e-05
9.87932e-05
6.04962e-05
7.7716e-05
9.66772e-05
6.66537e-05
6.83214e-05
6.23185e-05
9.65491e-05
8.26246e-05
0.000120167
6.47566e-05
4.62993e-05
2.93009e-05
4.51455e-05
5.5129e-05
4.32186e-05
0.000130065
8.33399e-05
0.000104183
5.71878e-05
6.94188e-05
7.26723e-05
9.57099e-05
4.8002e-05
0.00010172
9.47934e-05
9.80833e-05
6.21165e-05
5.22893e-05
8.2178e-05
0.00014649
0.000103045
5.43867e-05
6.97043e-05
9.81e-05
3.63913e-05
9.03459e-05
4.54067e-05
7.48294e-05
7.97133e-05
0.00011765
6.61924e-05
9.36065e-05
8.162e-05
4.83472e-05
0.000109164
6.20812e-05
0.000112264
7.57595e-05
0.000121521
8.68641e-05
7.8569e-05
3.77299e-05
7.09335e-05
8.13187e-05
3.82798e-05
0.000117425
7.32054e-05
0.000119599
8.27235e-05
0.000107864
8.74561e-05
0.000146389
6.72372e-05
0.000121316
0.000135756
0.000136705
7.13937e-05
7.12176e-05
8.18703e-05
0.000138736
0.000132948
8.36817e-05
0.000105343
0.000109427
6.89924e-05
0.00011968
8.29331e-05
8.57252e-05
0.000126159
0.000125126
0.000105826
0.000121529
0.000129438
5.12881e-05
0.000142446
7.35307e-05
0.000176616
8.00725e-05
0.00015608
0.000102991
0.000128387
5.59025e-05
7.89248e-05
8.6075e-05
4.4303e-05
9.33291e-05
7.23102e-05
9.48924e-05
7.36137e-05
9.08815e-05
4.99603e-05
0.000115486
4.31668e-05
0.000120542
0.000126671
0.000132713
5.92591e-05
6.50848e-05
8.66376e-05
0.000140321
0.000110364
8.90719e-05
0.000102306
0.0001069
5.46679e-05
0.000106597
7.04146e-05
8.82594e-05
0.000107212
0.000121262
0.000109091
0.00012173
0.000113525
8.20685e-05
0.000105464
7.06876e-05
0.000163952
9.37285e-05
0.000185865
8.46718e-05
0.000117594
5.77815e-05
8.03846e-05
8.33944e-05
3.70033e-05
6.87788e-05
6.25677e-05
9.4108e-05
8.45247e-05
7.1141e-05
7.33637e-05
8.16975e-05
6.75245e-05
0.000132166
9.44741e-05
0.000119391
5.21517e-05
6.83801e-05
9.95018e-05
0.000153713
0.000125327
7.82235e-05
7.42662e-05
8.27586e-05
4.20861e-05
8.09555e-05
6.26801e-05
0.000102575
0.000101928
0.000104351
0.000103879
9.9107e-05
0.000104493
7.25525e-05
7.24e-05
5.72745e-05
0.000118156
8.01465e-05
0.000166583
7.81531e-05
7.59997e-05
6.63889e-05
7.22761e-05
6.30467e-05
4.84171e-05
9.19342e-05
8.06199e-05
0.000105421
6.36777e-05
8.61702e-05
9.80964e-05
9.76045e-05
5.65085e-05
0.000163516
6.47407e-05
0.000131071
5.0131e-05
6.05266e-05
0.000135927
9.82149e-05
0.00012204
7.80536e-05
9.88778e-05
7.68974e-05
5.38799e-05
9.96005e-05
7.29582e-05
9.39137e-05
0.000104411
0.000108716
0.000104317
0.000103341
9.67884e-05
6.43821e-05
6.26982e-05
7.49646e-05
9.45404e-05
7.29036e-05
0.000151867
8.1852e-05
8.40569e-05
5.84314e-05
7.32554e-05
5.78381e-05
6.91012e-05
0.000120172
0.000102235
0.000132447
5.55679e-05
8.78518e-05
9.85821e-05
0.000122921
4.65395e-05
0.000154433
7.12013e-05
0.000143842
4.46021e-05
5.81001e-05
0.000126748
6.99232e-05
8.50428e-05
8.02729e-05
0.000115291
0.000101901
4.46248e-05
0.000104232
6.85689e-05
7.698e-05
8.23487e-05
0.00011705
9.73356e-05
8.41298e-05
9.64445e-05
7.18099e-05
5.86114e-05
8.19667e-05
9.03855e-05
7.28003e-05
0.000134853
8.3999e-05
0.000105261
5.99844e-05
6.07657e-05
6.82699e-05
8.17328e-05
0.000107031
8.533e-05
0.000144761
8.86101e-05
6.99435e-05
0.000119707
0.000136346
7.08122e-05
0.000114665
0.000108269
0.000118166
4.25992e-05
6.58659e-05
0.000102587
7.0739e-05
7.67432e-05
7.87748e-05
0.000110747
0.000100587
4.58419e-05
8.75465e-05
6.70492e-05
9.27351e-05
6.82939e-05
0.000102606
0.000112331
8.44483e-05
0.000128406
9.13147e-05
6.59373e-05
5.48842e-05
9.40496e-05
5.10424e-05
7.76776e-05
0.00011113
0.000108547
5.30963e-05
7.41178e-05
7.0972e-05
6.74682e-05
7.27419e-05
7.02728e-05
0.00012947
0.00010046
6.48875e-05
0.000107626
0.000155561
0.000103339
9.5501e-05
0.000107569
0.000120529
6.27163e-05
5.60368e-05
8.27206e-05
7.23372e-05
8.22324e-05
4.46996e-05
0.000113649
9.19954e-05
4.88792e-05
8.82021e-05
5.83957e-05
7.05851e-05
5.04601e-05
8.7229e-05
0.000108747
9.49655e-05
0.000117486
0.000103317
0.000101983
7.6333e-05
0.000114473
8.42263e-05
5.54553e-05
0.000123099
9.30384e-05
7.4605e-05
8.03891e-05
7.18109e-05
8.786e-05
7.84901e-05
6.63409e-05
0.000141788
8.17513e-05
8.53036e-05
7.16731e-05
0.000136625
8.37178e-05
0.000101725
9.23187e-05
0.000111273
4.4268e-05
6.79838e-05
8.92702e-05
7.69324e-05
0.000124917
5.57698e-05
9.60178e-05
8.80465e-05
5.23321e-05
8.37688e-05
5.77478e-05
5.46283e-05
7.8152e-05
0.00010077
9.31114e-05
8.74452e-05
8.67079e-05
0.000114521
0.000118471
8.49874e-05
0.000101829
0.000118821
8.8273e-05
0.000139036
9.42971e-05
6.62993e-05
8.91835e-05
4.85402e-05
8.74229e-05
0.000114579
7.63491e-05
9.98443e-05
9.94713e-05
8.58542e-05
5.93599e-05
0.000153059
9.34115e-05
0.000106046
6.48561e-05
0.000105459
4.59659e-05
7.18438e-05
8.88542e-05
8.27463e-05
8.89908e-05
6.72959e-05
0.000117106
0.000111664
7.5532e-05
0.000129172
6.96401e-05
6.81534e-05
7.08254e-05
9.99183e-05
0.0001058
8.69948e-05
8.04735e-05
0.000135396
8.64422e-05
7.42938e-05
7.02611e-05
9.91893e-05
0.000133657
0.000108349
9.75785e-05
8.74147e-05
7.778e-05
5.71506e-05
7.28797e-05
8.15495e-05
9.27227e-05
0.000113977
8.49576e-05
7.2016e-05
0.000109175
0.000143386
0.000129881
0.000102344
8.53172e-05
0.000116447
3.60742e-05
7.73562e-05
0.000119667
8.57071e-05
0.000104351
8.32909e-05
0.000144038
8.86518e-05
7.19209e-05
0.000151784
7.80733e-05
0.000108619
6.31261e-05
0.000102283
9.80245e-05
0.000121976
8.44346e-05
0.000103022
6.81281e-05
5.27169e-05
8.32584e-05
7.47033e-05
0.000109997
6.00411e-05
8.31268e-05
0.000118948
7.12132e-05
6.45255e-05
9.55792e-05
8.13152e-05
0.000109597
8.46185e-05
5.11351e-05
6.0153e-05
7.85089e-05
0.00011273
0.00012786
0.000132206
9.89056e-05
7.22623e-05
5.52808e-05
6.38545e-05
9.35153e-05
5.32496e-05
8.99305e-05
6.78027e-05
0.000133547
0.000100071
7.28104e-05
9.25218e-05
6.74553e-05
9.20308e-05
4.53978e-05
8.80801e-05
6.19969e-05
0.000109482
0.000108094
9.889e-05
4.67026e-05
4.71762e-05
5.92287e-05
0.000109158
0.000142283
6.94185e-05
7.58737e-05
9.60936e-05
7.45708e-05
5.33917e-05
5.50509e-05
5.65236e-05
9.58859e-05
7.00294e-05
7.10203e-05
4.19376e-05
4.53415e-05
0.00010099
0.00013025
9.63756e-05
9.9867e-05
9.33741e-05
7.75103e-05
6.92535e-05
0.000103738
6.07072e-05
4.72125e-05
5.49446e-05
0.000169874
9.61553e-05
7.3786e-05
0.00010007
6.90978e-05
9.59985e-05
4.56825e-05
4.7548e-05
7.23883e-05
8.89516e-05
0.000114775
8.89046e-05
6.37417e-05
5.89688e-05
3.74828e-05
8.01769e-05
0.000134335
7.59649e-05
6.76776e-05
9.86901e-05
5.97218e-05
4.19025e-05
5.83023e-05
3.81548e-05
6.41455e-05
8.15984e-05
6.41351e-05
3.13454e-05
3.63097e-05
5.53696e-05
0.000130864
7.81286e-05
5.78793e-05
9.47583e-05
5.25866e-05
4.51132e-05
5.39044e-05
7.39026e-05
3.12276e-05
3.72762e-05
0.000151584
0.000113304
0.000110385
4.73408e-05
8.72096e-05
4.59952e-05
4.84751e-05
3.74415e-05
4.34932e-05
9.70869e-05
8.51065e-05
5.91044e-05
7.57502e-05
3.57154e-05
5.11027e-05
7.44378e-05
7.40736e-05
9.07616e-05
8.74724e-05
6.47757e-05
6.61191e-05
2.2441e-05
3.25137e-05
5.89225e-05
8.02609e-05
0.000109876
5.08431e-05
2.017e-05
3.87328e-05
5.07973e-05
8.56058e-05
6.55206e-05
7.19516e-05
7.02372e-05
2.79031e-05
6.78147e-05
5.83183e-05
5.10101e-05
6.49052e-05
3.47377e-05
8.56616e-05
9.58702e-05
6.66496e-05
4.31676e-05
2.98685e-05
2.91865e-05
6.28315e-05
4.0113e-05
4.18163e-05
4.78944e-05
5.49321e-05
8.64335e-05
8.61224e-05
5.2883e-05
3.2076e-05
7.62752e-05
9.26223e-05
8.463e-05
5.32776e-05
4.98396e-05
9.63796e-05
3.06581e-05
1.50036e-05
3.67662e-05
4.50126e-05
7.56777e-05
4.33313e-05
1.44646e-05
2.99953e-05
5.48145e-05
8.50365e-05
4.31849e-05
3.13971e-05
5.28782e-05
2.73402e-05
7.10964e-05
4.79573e-05
4.80511e-05
2.88387e-05
5.70673e-05
3.17058e-05
7.0382e-05
6.66664e-05
4.93169e-05
4.85422e-05
2.52593e-05
3.10305e-05
7.38342e-05
8.6617e-05
4.89948e-05
5.88929e-05
3.61047e-05
3.20517e-05
3.2855e-05
3.03994e-05
4.84097e-05
6.81288e-05
8.5526e-05
4.88805e-05
3.39597e-05
5.73233e-05
4.06816e-05
1.48909e-05
1.57296e-05
2.66351e-05
3.64798e-05
1.46993e-05
2.34553e-05
2.03391e-05
2.99712e-05
5.98085e-05
5.64709e-05
4.50862e-05
2.82561e-05
1.53478e-05
3.23664e-05
3.11939e-05
4.57144e-05
1.82526e-05
7.10012e-05
5.16638e-05
2.99649e-05
9.29241e-05
3.16886e-05
3.74859e-05
6.8238e-05
3.66025e-05
7.77934e-05
5.83666e-05
3.5779e-05
4.67623e-05
2.21382e-05
1.88369e-05
1.60125e-05
5.71193e-05
4.88144e-05
5.212e-05
3.86472e-05
3.05481e-05
2.56192e-05
2.42445e-05
2.4159e-05
2.48561e-05
8.35281e-06
1.12176e-05
4.29428e-05
1.29221e-05
1.37442e-05
1.91926e-05
1.71998e-05
3.36649e-05
6.21978e-05
2.96877e-05
1.01226e-05
2.54802e-05
3.03586e-05
1.31579e-05
9.65398e-06
2.30316e-05
1.8042e-05
2.35195e-05
2.62907e-05
6.56442e-05
2.3074e-05
1.26048e-05
4.96158e-05
2.31302e-05
1.1475e-05
1.99496e-05
1.08707e-05
3.84711e-05
1.73504e-05
7.7861e-06
1.25413e-05
1.98951e-05
4.29399e-05
3.73852e-05
4.11912e-05
2.83211e-05
2.51775e-05
1.0445e-05
1.28036e-05
2.09216e-05
5.04633e-06
4.49643e-06
1.89302e-05
7.67871e-06
9.87032e-06
5.4125e-06
4.94885e-06
1.20608e-05
2.47547e-05
1.55076e-05
1.87542e-05
1.82905e-05
1.78352e-05
1.31376e-05
1.16565e-05
1.88148e-05
8.12436e-06
1.87346e-05
1.31391e-05
3.48974e-05
1.15115e-05
1.71525e-05
2.57889e-05
1.22441e-05
1.54346e-05
1.17388e-05
4.1334e-06
2.58068e-05
1.47102e-05
3.87365e-06
1.782e-05
1.05143e-05
1.877e-05
3.30291e-05
3.20041e-05
2.57605e-05
3.71207e-05
6.66353e-06
8.51391e-06
8.85777e-06
5.45958e-06
4.87675e-06
8.28893e-06
5.9699e-06
2.81856e-06
2.44346e-06
7.07029e-06
5.76824e-06
1.43881e-05
1.35243e-05
8.91524e-06
1.08053e-05
6.42862e-06
9.28899e-06
8.92185e-06
2.45958e-05
3.33272e-06
3.93389e-06
9.16428e-06
2.30954e-05
5.24271e-06
1.25694e-05
7.03822e-06
1.12818e-05
4.58174e-06
7.75519e-06
6.28335e-06
7.95783e-06
3.12568e-06
9.6421e-06
4.03493e-06
7.61231e-06
4.18219e-05
2.66598e-05
1.69789e-05
1.54636e-05
9.04552e-06
5.4132e-06
8.43388e-06
1.98228e-06
3.83947e-06
4.54025e-06
4.33675e-06
6.62756e-06
3.96034e-06
2.41399e-06
8.11708e-06
1.08675e-05
1.03565e-05
9.48837e-06
7.7506e-06
7.84262e-06
4.24124e-06
9.40793e-06
1.69402e-05
7.11878e-06
4.90429e-06
8.25049e-06
4.87194e-06
1.86141e-06
4.6202e-06
6.08819e-06
4.51649e-06
2.34054e-06
3.09391e-06
4.38124e-06
3.94592e-06
7.26052e-06
2.93946e-06
1.24244e-06
1.52631e-06
6.19145e-06
2.22747e-05
1.53529e-05
2.41876e-05
3.71193e-06
3.03906e-06
3.07009e-06
2.8441e-06
1.10083e-06
7.22079e-07
3.17073e-06
2.28069e-06
1.89176e-06
3.61689e-06
3.88715e-06
4.42436e-06
3.44916e-06
6.30601e-06
4.70399e-06
2.22069e-06
1.0538e-05
3.88544e-06
1.32808e-05
1.00418e-05
3.18515e-06
3.86453e-06
2.78766e-06
8.19597e-06
6.3465e-06
2.64128e-06
2.86975e-06
8.5843e-06
2.05668e-06
1.77911e-06
3.24704e-06
5.14968e-06
6.66941e-06
4.04377e-06
3.64109e-06
9.99153e-07
3.2991e-06
8.36861e-06
1.17988e-05
4.57304e-06
4.78124e-06
3.17512e-06
8.0735e-07
8.01121e-07
2.05083e-06
2.07688e-06
2.43534e-06
2.40362e-06
5.6246e-06
1.80337e-06
2.18255e-06
2.73367e-06
3.83553e-06
2.93447e-06
4.54667e-06
6.15996e-06
5.76299e-06
7.0915e-06
6.56675e-06
1.22027e-05
3.00716e-06
3.52699e-06
6.16947e-06
4.50814e-06
4.11268e-06
1.83143e-06
1.48232e-06
1.69001e-06
2.96833e-06
4.06256e-06
2.696e-06
1.84765e-06
4.83124e-06
4.31318e-06
3.00038e-06
2.09587e-06
3.41613e-06
4.40059e-06
4.91151e-06
3.49097e-06
2.87339e-06
3.4119e-06
8.30757e-07
8.78089e-07
2.10297e-06
3.74805e-06
2.64399e-06
3.57764e-06
3.05326e-06
2.61587e-06
2.43501e-06
3.36665e-06
4.58863e-06
4.07516e-06
5.27747e-06
3.93304e-06
7.31177e-06
3.90489e-06
2.55274e-06
6.46208e-06
3.03976e-06
2.25711e-06
2.78108e-06
4.60874e-06
4.45596e-06
2.6671e-06
3.09287e-06
4.07514e-06
2.34036e-06
2.02079e-06
3.57513e-06
2.31985e-06
3.85959e-06
2.33822e-06
2.45837e-06
2.15266e-06
1.98631e-06
6.58229e-06
7.72021e-06
3.93544e-06
4.20374e-06
3.20199e-06
1.6955e-06
1.56616e-06
1.9365e-06
3.9112e-06
2.88421e-06
3.53636e-06
2.71334e-06
2.19529e-06
2.6958e-06
2.66024e-06
3.15436e-06
2.97529e-06
2.83777e-06
3.01116e-06
4.26414e-06
4.02143e-06
3.74374e-06
3.95578e-06
1.60991e-06
1.31531e-06
1.93414e-06
2.94474e-06
2.25283e-06
1.88149e-06
2.15621e-06
2.66458e-06
2.2281e-06
2.08275e-06
1.89826e-06
2.64557e-06
3.16084e-06
2.29929e-06
2.53488e-06
1.80551e-06
1.63406e-06
2.43731e-06
2.46406e-06
2.77428e-06
4.04715e-06
2.35976e-06
1.71921e-06
1.81467e-06
2.28286e-06
2.89794e-06
2.81034e-06
3.15176e-06
2.30051e-06
2.31252e-06
2.37412e-06
2.94751e-06
2.74935e-06
4.43187e-06
5.31611e-06
2.31952e-06
3.86126e-06
2.40165e-06
2.28209e-06
3.3532e-06
1.85885e-06
1.6534e-06
2.97489e-06
2.54413e-06
2.96291e-06
2.62026e-06
2.94279e-06
2.81424e-06
2.27657e-06
1.76187e-06
2.6249e-06
2.23222e-06
3.02166e-06
2.03312e-06
2.41443e-06
1.91006e-06
2.07311e-06
2.37527e-06
2.41303e-06
2.54115e-06
3.78977e-06
2.98419e-06
2.60666e-06
2.14691e-06
1.87681e-06
2.15701e-06
2.04799e-06
2.13181e-06
2.14526e-06
2.23854e-06
2.00863e-06
2.19904e-06
2.23963e-06
2.79905e-06
3.09326e-06
2.26007e-06
2.45992e-06
2.13811e-06
2.12993e-06
2.28135e-06
1.9342e-06
2.06644e-06
2.19519e-06
2.01103e-06
2.07749e-06
2.08313e-06
2.19304e-06
2.03013e-06
1.88853e-06
1.85808e-06
1.96764e-06
2.07358e-06
2.07619e-06
1.92719e-06
1.95773e-06
1.98797e-06
2.20508e-06
1.90642e-06
2.0048e-06
2.40823e-06
2.60966e-06
2.42685e-06
2.14663e-06
2.19547e-06
2.1211e-06
2.47382e-06
2.46054e-06
2.63428e-06
2.80778e-06
2.94022e-06
3.10586e-06
2.52112e-06
3.80313e-06
3.02562e-06
4.48648e-06
2.41661e-06
3.38844e-06
2.62958e-06
2.67972e-06
2.72586e-06
2.57302e-06
2.52067e-06
2.54442e-06
2.5654e-06
2.6091e-06
2.63743e-06
2.61206e-06
2.4187e-06
2.34228e-06