/*--------------------------------*- C++ -*----------------------------------*\
  =========                 |
  \\      /  F ield         | OpenFOAM: The Open Source CFD Toolbox
   \\    /   O peration     | Website:  https://openfoam.org
    \\  /    A nd           | Version:  10
     \\/     M anipulation  |
\*---------------------------------------------------------------------------*/
FoamFile
{
    format      ascii;
    class       volScalarField;
    location    "12.5";
    object      pPrime2Mean;
}
// * * * * * * * * * * * * * * * * * * * * * * * * * * * * * * * * * * * * * //

dimensions      [0 4 -4 0 0 0 0];

internalField   nonuniform List<scalar> 
25600
(
0.000313989
0.000353467
0.000340199
0.000365109
0.000434098
0.000441749
0.000363304
0.000362526
0.000437155
0.00038979
0.000355325
0.000373998
0.000461053
0.000806085
0.000830139
0.000571587
0.000425974
0.000422978
0.000457161
0.000518076
0.000363815
0.000312675
0.000371204
0.000610554
0.000776877
0.000624095
0.000534989
0.00062258
0.000426118
0.000357584
0.000387424
0.000317801
0.000312544
0.000367018
0.000317396
0.000195863
0.000180358
0.000267547
0.000347402
0.000332132
0.000593137
0.000656874
0.000713013
0.000760387
0.000626091
0.000511232
0.000617889
0.000849148
0.000773009
0.000445218
0.000270703
0.000326611
0.000437071
0.00045059
0.000346741
0.00034917
0.000419878
0.00044735
0.000467172
0.000417414
0.000320291
0.0003465
0.000461239
0.000484375
0.000394059
0.000343181
0.000510793
0.000758731
0.000673622
0.000411089
0.000270163
0.000266671
0.000343331
0.000421807
0.000334004
0.000278011
0.000481773
0.000799555
0.000847643
0.000666837
0.000398625
0.000394484
0.000303896
0.000253745
0.000230011
0.000314449
0.000408386
0.000386384
0.000268259
0.000176936
0.000184006
0.000251633
0.000280174
0.000242335
0.000247885
0.000263717
0.000285261
0.000290126
0.000253095
0.000225863
0.000178597
0.000238796
0.000332895
0.000307751
0.000252862
0.000246805
0.000271311
0.000309535
0.000248997
0.000181719
0.000171362
0.000181134
0.000281164
0.000256159
0.000196436
0.000292889
0.00042461
0.000443604
0.000315481
0.000297616
0.000149148
0.000241545
0.000236695
0.000165174
0.000108181
0.000106375
0.000206953
0.000251615
0.000228458
0.000167014
0.000149181
0.000242368
0.000296219
0.000201698
0.000137503
0.000173603
0.000219398
0.000207626
0.000191237
0.000138542
0.00013348
0.000293995
0.000391202
0.000276452
0.000199473
0.00021799
0.00023294
0.000197516
0.000139916
0.000125964
0.000157488
0.000212856
0.000217923
0.0001353
0.000105764
0.000134731
0.000135305
0.00014483
0.000126803
9.78861e-05
0.00027669
0.000390897
0.000294026
0.000185581
0.000202922
0.000270111
0.000308475
0.000249115
0.000186341
0.000167815
0.000253171
0.000316888
0.000202008
0.00013411
0.000216599
0.000266031
0.000228225
0.000165356
0.000170065
0.000210645
0.000295535
0.000330173
0.000202356
0.00015276
0.000287092
0.000328157
0.000232208
0.000168514
0.00014017
0.000177555
0.000261811
0.000258651
0.000207928
0.000227448
0.000232036
0.000181904
0.0001789
0.000215976
0.00022403
0.000173684
0.000203473
0.000184533
0.000136861
0.000139115
0.000104041
0.000108821
0.000121342
0.000133856
0.000134073
0.000132695
0.000168304
0.000155954
0.000166191
0.00023203
0.000196333
0.000120089
0.000101089
0.00012199
0.000134788
0.000140933
0.000138729
0.000124579
0.000106922
0.000147814
0.000149935
8.932e-05
0.000133988
0.000191695
0.000113868
7.9414e-05
0.000109248
8.5635e-05
0.000100409
0.000119646
7.99171e-05
6.63489e-05
0.000136654
0.000198163
0.000136983
0.000127618
0.000154078
0.000223367
0.00019277
8.26565e-05
8.67494e-05
0.000177613
0.000177965
0.000124109
0.000104265
9.82116e-05
0.000108147
0.00011506
0.000167302
0.000166798
0.00012073
0.000164404
0.000168225
0.000118428
9.86283e-05
0.000129202
0.00019279
0.000144666
9.13472e-05
8.70252e-05
7.5214e-05
9.19913e-05
0.000129339
0.00013532
0.000113486
9.38818e-05
8.41817e-05
0.000117872
0.000138881
0.000105127
8.51661e-05
9.00059e-05
0.000132976
0.000153809
0.000111931
7.73013e-05
0.000285516
0.000306005
0.000160617
0.000120364
0.000234686
0.000251247
0.000154594
9.63847e-05
9.85963e-05
0.000152281
8.9833e-05
9.3294e-05
0.000164927
0.000150466
0.000132085
0.000113555
9.88713e-05
0.000114486
0.000116815
9.55144e-05
8.8205e-05
7.69181e-05
9.91734e-05
0.000120877
9.70208e-05
8.63632e-05
9.78984e-05
0.000136997
0.000101763
0.00011022
0.000162324
0.00015426
9.87624e-05
0.000104553
0.00013258
0.000107421
0.000140945
0.000157561
9.51892e-05
0.00013829
0.000197053
0.000144469
8.31562e-05
0.000101928
0.000164234
0.000215864
0.00019884
0.000123098
8.33365e-05
0.000110186
0.000156503
0.00020954
0.000148059
8.14154e-05
0.00010131
0.00011671
0.000121397
7.54421e-05
6.00689e-05
0.000110548
0.0001269
0.000102749
0.000127225
0.000241282
0.00019349
0.000130219
0.000105775
0.000125247
0.000125163
8.97823e-05
0.000150012
0.000197192
0.000109623
0.000114006
0.000134809
0.000126374
0.000140511
0.000103597
8.01574e-05
0.000155087
0.000151484
0.000128687
9.56435e-05
0.000188048
0.000231339
0.000195015
0.000134378
0.000157698
0.000144566
0.000106651
0.000125187
0.000108499
9.09639e-05
0.000127022
0.000149958
0.000114801
9.85858e-05
8.54926e-05
9.03139e-05
0.00014642
0.000143053
8.77169e-05
0.00011668
0.00024652
0.000205329
0.000160408
0.000160033
0.000144759
8.85093e-05
0.00012082
0.000292359
0.000246773
0.000120492
0.000152117
0.000159089
0.000154458
0.000100133
8.67513e-05
0.000125212
0.00013585
0.000109878
0.000122058
0.000114468
0.000143475
0.000188971
0.000181373
0.000153004
0.000154208
0.000119582
0.000105252
0.000110684
0.000100696
0.000149185
0.000128711
7.33978e-05
9.53401e-05
0.000121964
5.82329e-05
5.92383e-05
0.000156238
0.000155947
0.000108067
0.000123022
0.000142108
0.000186897
0.000222754
0.000162762
8.25731e-05
7.34567e-05
0.000181968
0.000228536
0.000148585
0.00010148
0.000124891
0.000177599
0.000182882
0.000106515
0.000106235
0.000155656
0.000135596
0.000158586
0.000121812
0.00010913
0.000184401
0.000219461
0.000155971
0.000120577
0.000135131
0.000122722
0.000125044
0.000118085
0.000163627
0.000135035
9.38627e-05
8.29183e-05
9.88987e-05
0.00010672
7.10291e-05
8.39516e-05
0.000166179
0.000157554
0.000103778
0.000125414
0.000166153
0.000217205
0.000223062
0.000157062
9.06879e-05
0.000130949
0.000180596
0.000176489
0.000141412
0.000130113
0.000115788
0.000159519
0.00015868
0.000123636
0.000118775
0.000146266
0.000168833
0.000148001
0.000130122
0.000110884
0.000175972
0.000220445
0.000154721
0.000165396
0.000197215
0.000150209
0.000109597
0.000121349
0.00013199
0.000117174
0.000103563
0.000106746
0.000128506
0.000109623
8.96668e-05
0.000113099
0.000154536
0.000166596
0.000169672
0.000140002
0.000158842
0.0001784
0.000197161
0.000195
0.000142923
0.000175721
0.000243102
0.00018963
0.000123566
0.000104055
9.59364e-05
0.000148387
0.00015025
0.000168039
0.000164919
0.000177935
0.000163118
0.000150853
0.000142564
0.000130549
0.000191305
0.000230549
0.000145564
0.000187629
0.000205739
0.000149309
0.000114926
0.000114973
0.000105785
0.00011578
0.000108636
0.000115427
0.000149615
0.000110451
8.32389e-05
0.000154898
0.000189782
0.000173901
0.000177189
0.000178949
0.000133035
0.00012886
0.000213797
0.000166263
0.000118506
0.000197762
0.000193384
0.000152243
0.00014048
0.00011134
0.000107924
0.000202174
0.000207814
0.000197503
0.000198827
0.000183915
0.000144487
0.000160076
0.000132992
0.00014899
0.000209317
0.000235293
0.000155959
0.000180601
0.000198323
0.000167356
0.00013037
0.00014305
0.000145613
0.000129386
0.000109616
0.000152054
0.000176709
0.000131407
9.72043e-05
0.00015125
0.000220185
0.000188009
0.000199437
0.000184384
0.000165493
0.000182419
0.000215836
0.0001332
0.000120003
0.000162004
0.000172668
0.000179559
0.000178208
0.000128727
0.000122828
0.000229062
0.000207549
0.000151464
0.000169923
0.000181598
0.000156935
0.000183142
0.000158564
0.000180256
0.000224471
0.000227898
0.000151132
0.000184129
0.000255733
0.000204093
0.000143469
0.000150131
0.000166964
0.000182645
0.000161914
0.000167315
0.000169957
0.000136165
0.000114522
0.000173582
0.000217204
0.000178462
0.000196564
0.000205418
0.000200748
0.000193593
0.000227325
0.000131675
0.00014058
0.000199727
0.000212655
0.000231463
0.000201031
0.000151659
0.000179097
0.000296098
0.000239349
0.000147244
0.000177481
0.000213899
0.000178662
0.000224829
0.000167986
0.000173712
0.000220086
0.000222612
0.000190261
0.000238125
0.000306287
0.000216809
0.000137814
0.000159075
0.000204039
0.000204752
0.000153097
0.000161962
0.000184851
0.000154131
0.000136828
0.000161038
0.000190507
0.000200803
0.000233209
0.000252627
0.000228314
0.000196567
0.000224318
0.000152774
0.000155688
0.000209717
0.000248987
0.000272345
0.00021754
0.000195733
0.00027444
0.000391826
0.000308586
0.000171078
0.000175189
0.000218472
0.000211584
0.000212843
0.000200123
0.000194583
0.000252752
0.000246216
0.000198631
0.000273291
0.000369765
0.000265678
0.000143967
0.000199521
0.000280141
0.000260574
0.000179294
0.000156708
0.000220519
0.000225371
0.00016635
0.000167237
0.000197177
0.000241483
0.000281579
0.000327646
0.000273458
0.00020854
0.000237823
0.000239215
0.000192774
0.000219475
0.000287412
0.000300216
0.000211392
0.000201348
0.000322217
0.000423326
0.000332214
0.000222273
0.00021144
0.000224767
0.000199525
0.000218658
0.000261481
0.000248782
0.000269824
0.000286825
0.00021381
0.000271228
0.000423259
0.000321885
0.000184301
0.000219124
0.000314205
0.000299002
0.000211551
0.000181165
0.000248024
0.000288868
0.000237131
0.000210777
0.000229606
0.000283901
0.000358232
0.000378686
0.000295355
0.000230789
0.000249803
0.000308046
0.000259376
0.000270318
0.000324814
0.000328698
0.000215499
0.00020223
0.0003261
0.000427306
0.000352298
0.000268971
0.000229109
0.000253775
0.000226452
0.000259714
0.000307284
0.000297644
0.000297519
0.000327521
0.000244624
0.000287076
0.000486114
0.00038811
0.000226616
0.000240483
0.000324361
0.000307346
0.000232789
0.000218427
0.000287366
0.000318122
0.000282975
0.000273509
0.000279758
0.000355062
0.000481667
0.00047367
0.00036888
0.000329287
0.000333032
0.000373816
0.000333705
0.00032403
0.000312666
0.000278536
0.000209547
0.000234373
0.000360377
0.000459571
0.000395798
0.000296891
0.000259131
0.000315931
0.000319359
0.000315385
0.000357438
0.000350325
0.000391084
0.000403353
0.000308312
0.000353324
0.000522982
0.000419579
0.00026885
0.000299533
0.000386527
0.000371673
0.000265056
0.000258944
0.00035316
0.000349005
0.000311616
0.000318791
0.000317176
0.000443201
0.000593699
0.00058226
0.000494144
0.000472691
0.000450526
0.000417347
0.000425791
0.000397942
0.000350121
0.000290783
0.000256838
0.000330125
0.000442525
0.000520324
0.000440508
0.000343688
0.000326974
0.000398014
0.000392623
0.000365411
0.000428605
0.000441338
0.000461428
0.000451075
0.000377486
0.00049305
0.000657021
0.000501498
0.000342407
0.000388978
0.000456579
0.000450907
0.000320377
0.000316974
0.000430416
0.000401026
0.000361597
0.000373824
0.000368936
0.000520158
0.000704589
0.000696495
0.000624598
0.000580014
0.000533744
0.000494675
0.000556729
0.000516857
0.000469486
0.000396566
0.000363718
0.000434687
0.000549712
0.000606675
0.000518277
0.000469786
0.000424999
0.000483631
0.000454958
0.000415145
0.000499867
0.000576757
0.000535181
0.000517622
0.000450531
0.000594998
0.000791365
0.000642431
0.000465036
0.000517228
0.000549111
0.000565775
0.000442456
0.000415108
0.00051994
0.000471177
0.000432582
0.000453
0.000433441
0.000610983
0.000802958
0.000802905
0.000753468
0.000667409
0.000631763
0.000643268
0.000694847
0.000639628
0.000604226
0.000546695
0.000478705
0.000527926
0.000661595
0.000735908
0.000657065
0.000592295
0.000570261
0.000587839
0.000515742
0.000487937
0.00058764
0.00071995
0.000663036
0.000640271
0.00056478
0.000702919
0.000918309
0.000787243
0.000603547
0.000701753
0.000681831
0.000711282
0.000564021
0.000523437
0.000613054
0.000552617
0.00051769
0.000568718
0.000563295
0.000713981
0.000900393
0.000938946
0.000861482
0.000808636
0.000780622
0.000790808
0.000813533
0.000762241
0.000724554
0.000704031
0.00060375
0.0006595
0.000782323
0.000890741
0.00082075
0.000676953
0.000706145
0.000712169
0.000602473
0.000620477
0.000699525
0.000880529
0.00085403
0.000784514
0.000711426
0.000860953
0.00108283
0.000914581
0.00071672
0.000855856
0.000838722
0.000873094
0.000729433
0.000679469
0.000761843
0.000664032
0.000640439
0.000746163
0.000737598
0.000840721
0.00100403
0.00108872
0.000977041
0.000959305
0.000964813
0.000952516
0.00095788
0.000911646
0.000860001
0.000821876
0.000727245
0.000806176
0.000960869
0.001089
0.0010045
0.000783656
0.000850167
0.000844645
0.000754086
0.000778371
0.000847789
0.00103808
0.0010663
0.000931107
0.00087521
0.0010372
0.00126803
0.00108582
0.000845338
0.000957549
0.000975417
0.00102072
0.000881842
0.00081072
0.000912234
0.000780499
0.000785028
0.000932679
0.000913921
0.00099717
0.00114031
0.00124353
0.00110995
0.00107368
0.0011362
0.00116007
0.00115702
0.00109092
0.00103939
0.000933027
0.00085785
0.000964936
0.00117575
0.00126758
0.00116357
0.000930822
0.00104078
0.00098108
0.000891906
0.000901065
0.000987412
0.00119234
0.0012379
0.00109215
0.00103759
0.00117991
0.00140243
0.00124943
0.000988874
0.00107403
0.0010881
0.00114286
0.00098158
0.00089717
0.00103172
0.000887727
0.000923753
0.00110067
0.00106922
0.00115374
0.00129282
0.00139216
0.00126947
0.00117198
0.00126969
0.00138848
0.00137723
0.00121455
0.00117618
0.00103951
0.000989344
0.00110377
0.00138092
0.00141985
0.00124664
0.00110013
0.00122467
0.00112282
0.00102786
0.00102682
0.00109793
0.00132557
0.00136236
0.00123039
0.00116594
0.00128356
0.00150392
0.00137513
0.00110984
0.00119579
0.00121271
0.00127182
0.00106928
0.000971442
0.00113397
0.000981463
0.00104903
0.00123891
0.00117481
0.00128103
0.00142169
0.00153315
0.00143606
0.00128207
0.00138782
0.0016342
0.00157632
0.00132753
0.0012841
0.00113037
0.00109681
0.00120985
0.00155694
0.00151079
0.00130084
0.00128214
0.00137676
0.00123752
0.00118356
0.00114726
0.00118015
0.00146848
0.00151195
0.00131893
0.00125041
0.00136629
0.00160392
0.00148984
0.00120405
0.00128214
0.00130227
0.00139466
0.00116722
0.00103488
0.00120714
0.00105776
0.00114789
0.0013646
0.00124934
0.00137667
0.00154315
0.00164431
0.00157822
0.00137211
0.00151128
0.00186708
0.00171643
0.00141532
0.00134222
0.00117795
0.00114014
0.00125253
0.00163795
0.00154707
0.00138133
0.00140947
0.0014661
0.00129514
0.00129651
0.00121065
0.00123686
0.00155736
0.00160375
0.00137455
0.00131364
0.00141251
0.00168932
0.00159383
0.00127526
0.00135086
0.00136697
0.00147521
0.00124563
0.00109305
0.00125408
0.001098
0.00120122
0.00144906
0.00129803
0.00141176
0.00163009
0.00172295
0.00166475
0.001408
0.0016026
0.00200181
0.00179448
0.00147336
0.00137729
0.00120448
0.00115603
0.00126722
0.00166156
0.0015645
0.00147536
0.00147519
0.00151432
0.00132782
0.00136396
0.00122382
0.00125643
0.00157847
0.00161376
0.00139371
0.00133861
0.00142417
0.00173386
0.0016535
0.00131265
0.00137561
0.00138225
0.00150195
0.00127989
0.00112797
0.00127638
0.0011139
0.00122678
0.00148228
0.00132001
0.0014205
0.00167863
0.00175338
0.00168207
0.00141337
0.00164143
0.0020484
0.0018231
0.00149908
0.00139856
0.00121889
0.00116546
0.00127983
0.00166532
0.0015671
0.00151223
0.00150766
0.00154049
0.00133851
0.00138614
0.00120067
0.00123518
0.00155431
0.00159121
0.00137694
0.00132641
0.00141454
0.00172495
0.001647
0.00130831
0.00136708
0.00137007
0.00149489
0.00127492
0.00112214
0.00126693
0.00110741
0.0012207
0.00146862
0.00130465
0.00140719
0.00167346
0.00173662
0.00166031
0.00139417
0.00163644
0.00202883
0.00178997
0.00147449
0.00138844
0.00121017
0.00115717
0.00126973
0.00165198
0.00155264
0.00150499
0.00149865
0.0015249
0.00132256
0.00136781
0.000635624
0.000627593
0.000448638
0.00039976
0.000468267
0.000571831
0.000537882
0.000440115
0.000476168
0.000531998
0.000630146
0.000681212
0.000692138
0.000789757
0.000933459
0.00100422
0.000854215
0.000717343
0.00061781
0.000592099
0.000565352
0.000585341
0.000583093
0.000476512
0.000441254
0.000666393
0.000844237
0.000571554
0.000381223
0.000524842
0.00049317
0.00039018
0.000489814
0.000502059
0.000388079
0.000359613
0.000397795
0.000409103
0.000370388
0.000427411
0.000209277
0.000233157
0.000320782
0.00028179
0.000176457
0.000186275
0.000274995
0.000349278
0.000263802
0.000164007
0.000188234
0.000202843
0.000232165
0.00021086
0.000162293
0.000188289
0.000276092
0.000324389
0.000268512
0.000254646
0.000265392
0.000220935
0.000230027
0.000219219
0.000217736
0.000273468
0.000320733
0.000356809
0.000281322
0.000292564
0.000281704
0.000255216
0.000284227
0.000235123
0.000140827
0.000184854
0.000267499
0.000314044
0.000244176
0.000182514
0.000165005
0.000169896
0.000137251
9.80063e-05
0.000110057
0.000131289
0.000141809
0.0001512
0.000115007
0.000130889
0.000184743
0.000146028
0.00011204
0.000111965
0.000122992
0.000165585
0.000186045
0.000132094
0.000135845
0.000176809
0.00016998
0.000156812
0.000159127
0.000105439
0.000101664
0.000191412
0.000216782
0.000178196
0.000131215
0.000133477
0.000128556
0.000161043
0.000203304
0.000143244
0.000102576
0.000170162
0.000200768
0.00017981
0.000110624
9.63491e-05
0.00012188
0.000141212
0.000151508
0.000101247
9.09604e-05
0.000100668
0.000129784
0.000133732
9.9303e-05
0.000107744
0.000131444
0.000153207
0.000138427
9.80266e-05
0.000115593
0.000157282
0.000151052
0.000125239
0.000128079
0.00015401
0.000140074
0.000146271
0.000165686
0.000135318
0.000120988
0.000172423
0.000161388
0.000110087
0.000109349
0.000148064
0.000171431
0.000168417
0.000122392
8.29195e-05
0.000105851
0.000122251
0.000121252
0.000111432
0.000101141
0.000109931
0.000219204
0.000210642
0.000191868
0.000220771
0.000255519
0.000225027
0.000196382
0.000184835
0.000198545
0.000206651
0.000214746
0.000212419
0.000176826
0.000191399
0.000236982
0.00022344
0.000173184
0.000184376
0.000243803
0.000226434
0.000156813
0.000166247
0.000202971
0.000204841
0.000169727
0.000178694
0.000196393
0.000242729
0.000257987
0.000197908
0.000179795
0.000180188
0.000201482
0.000209734
0.00018294
0.000164092
0.000168411
0.000164003
0.000207339
0.00022164
0.000150362
0.000167413
0.000196885
0.000168344
0.00013749
0.000116756
0.00010224
0.000184678
0.000178327
0.000147197
0.000137649
0.000103411
0.00017297
0.000230859
0.000131149
0.000105939
0.000156849
0.000204542
0.000220044
0.00013682
0.000139341
0.000149074
0.000182661
0.000182246
0.000151718
0.00016493
0.000213914
0.00023209
0.000167594
0.000132553
0.000154019
0.000187375
0.000164154
0.00010143
0.000148405
0.000161559
0.000131452
0.000154145
0.000179038
0.000167841
0.000234905
0.000267882
0.000204487
0.000205687
0.000195981
0.000163946
0.000161875
0.000188544
0.000245566
0.000206572
0.00012223
0.00013426
0.000150666
0.000123707
0.000115849
0.000155587
0.000194435
0.000158053
0.000138205
0.000199792
0.000197599
0.000167231
0.00012518
0.000111555
0.000100202
0.000193304
0.00026003
0.000224292
0.000181259
0.000151991
0.000133679
0.000131812
0.000153924
0.0001821
0.000182674
0.000167793
0.000189418
0.000177624
0.000150006
0.00015454
0.000175286
0.000155486
0.000131923
0.00010869
0.000151268
0.000150654
0.000127954
0.000110887
0.00014654
0.000153486
0.000118588
0.000147403
0.000206937
0.000178623
0.000151553
0.000175934
0.000148812
0.000101544
0.000140332
0.000142925
0.000120777
0.000125753
0.000197714
0.000148751
0.000120922
0.000199925
0.000220702
0.000191621
0.000193855
0.000207127
0.00017028
0.000166455
0.000141268
0.000238175
0.000248203
0.000214595
0.000251979
0.000213485
0.000175506
0.000162914
0.00020355
0.000151766
0.000137047
0.000163987
0.000227563
0.000247293
0.000199009
0.00018345
0.000247372
0.000238128
0.000157805
0.00018726
0.000193671
0.000186129
0.000194524
0.000153692
0.000115088
0.000118672
0.000105162
8.39262e-05
0.000111941
0.000115548
0.000142406
0.000146986
0.000149356
0.000166127
0.000201339
0.000184683
0.000154551
0.000164721
0.00016933
0.000276361
0.000223606
0.000188218
0.000223006
0.000261844
0.000224808
0.000170241
0.000116567
0.000187355
0.000209009
0.000112459
0.000241387
0.000281855
0.000268783
0.000247051
0.000290779
0.000354618
0.000243622
0.00020339
0.000161963
0.000147645
0.000188543
0.000242607
0.000176502
0.000113103
0.000148674
0.00013117
0.000114126
0.000181589
0.000214956
0.00018047
0.000153893
0.000177375
0.000197454
0.00017326
0.000226312
0.00019489
0.000209122
0.000257776
0.000689559
0.00062509
0.000426428
0.00046023
0.000446778
0.000443729
0.000239558
0.000296675
0.000286647
0.000312059
0.000173849
0.0002201
0.000232901
0.000225934
0.000301692
0.000207381
0.000258813
0.000256303
0.000206606
0.000151388
0.000186982
0.000204407
0.000209483
0.000186932
0.000131076
0.000156687
0.000216849
0.000130483
0.000130051
0.000183992
0.000202107
0.000228886
0.000229777
0.000153029
0.000116439
0.000241171
0.000248606
0.000196899
0.000196215
0.000255677
0.000361978
0.000282802
0.000495227
0.000551924
0.000357246
0.000371713
0.000321963
0.000182524
0.0001869
0.000263734
0.000322288
0.000197052
0.000179609
0.000234002
0.000236029
0.000321834
0.000288688
0.000174219
0.000144028
0.000152153
0.00019953
0.000272382
0.000316534
0.000226135
0.000111005
0.000170356
0.000207271
0.000130199
0.000170088
0.000277419
0.000276463
0.000216832
0.000271334
0.000268406
0.000275668
0.000374621
0.000335306
0.000186184
0.000145801
0.000331998
0.000434317
0.000424509
0.000828791
0.000607144
0.000463852
0.00045921
0.000342778
0.000372352
0.0003146
0.000365729
0.00036462
0.000329557
0.000196589
0.000266112
0.000551582
0.000489641
0.000222058
0.000116665
0.000168262
0.000254901
0.000354005
0.000325587
0.000358091
0.000230539
0.000213435
0.000225673
0.000169789
0.000134646
0.000161926
0.000204312
0.000237341
0.000265745
0.000342332
0.000315183
0.000398829
0.000481435
0.000312975
0.000227464
0.000239394
0.000315167
0.000415407
0.000597273
0.00045255
0.000377821
0.000422266
0.000373422
0.000375482
0.000529965
0.000446284
0.000509606
0.000460372
0.000439041
0.000249043
0.000269812
0.000434753
0.000384189
0.000237671
0.000138244
0.000185083
0.000282496
0.000322007
0.000306156
0.000234835
0.000129855
0.000181161
0.000273113
0.000202598
0.000226899
0.000219064
0.000209922
0.000301003
0.000405648
0.000346152
0.000194641
0.000326696
0.000426243
0.000244095
0.000259706
0.000218434
0.000243623
0.000343419
0.000436737
0.000307757
0.000332789
0.000344791
0.000363821
0.000377807
0.000353317
0.000425169
0.000466757
0.00035935
0.000279271
0.000195369
0.000239795
0.000416122
0.00046163
0.000328629
0.000183005
0.000212783
0.000265331
0.000243625
0.000243075
0.000227335
0.000156059
0.000210579
0.000279902
0.000261218
0.000199777
0.000100476
0.000124171
0.000229642
0.000306571
0.000213535
0.000248442
0.00037703
0.000375419
0.00021053
0.000219074
0.000189233
0.000243979
0.00030473
0.000289487
0.000277597
0.000260064
0.0003778
0.000407242
0.000381366
0.000402371
0.000446992
0.000308569
0.000289087
0.000248198
0.000269465
0.000277751
0.000450139
0.000340933
0.000280091
0.000264686
0.000244244
0.000263217
0.000187678
0.000251942
0.000246229
0.000155942
0.000218657
0.000236386
0.00028475
0.000252704
0.000171835
0.000193279
0.00022468
0.000242996
0.000218242
0.000270947
0.00033347
0.000362176
0.000189644
0.000229911
0.000219744
0.000183862
0.000221162
0.000259533
0.000264739
0.000343703
0.000421806
0.000436694
0.000532243
0.000440636
0.000363572
0.000287707
0.000326389
0.000262191
0.000285278
0.000289757
0.000385519
0.000362941
0.000291075
0.00020683
0.000254328
0.000239769
0.000189977
0.000366304
0.00026185
0.000160924
0.000193326
0.000285692
0.000303379
0.000215242
0.000144044
0.000165294
0.000224705
0.000221067
0.000224774
0.00025748
0.000253954
0.000328259
0.000233299
0.000259672
0.000232024
0.000234012
0.000281561
0.00023221
0.000272384
0.000396483
0.000333376
0.000272562
0.000341983
0.00034787
0.000354505
0.000365465
0.00032415
0.00028423
0.000301435
0.000360413
0.000445389
0.000406018
0.000302284
0.000227924
0.00025357
0.00020052
0.000209009
0.000336066
0.000286331
0.000241638
0.000210467
0.000289977
0.000321791
0.00018304
0.000122709
0.00020099
0.000231898
0.000203073
0.000245213
0.000264516
0.000237293
0.000346536
0.000275512
0.000235867
0.000253325
0.000346321
0.000347577
0.000225565
0.000197396
0.000268619
0.000266524
0.000276255
0.000348702
0.000313675
0.000310503
0.000310165
0.000293549
0.000306137
0.000275777
0.000391181
0.000426478
0.000299779
0.000266879
0.000277603
0.000283295
0.000182814
0.000197098
0.000266779
0.000309866
0.000271235
0.000195951
0.00024896
0.000294668
0.000200253
0.000163121
0.000220264
0.000221432
0.000207039
0.000251853
0.000310216
0.000239568
0.000312054
0.000223248
0.000246525
0.000312261
0.000351617
0.00028732
0.000194838
0.000180373
0.00027402
0.000264399
0.000306289
0.000318987
0.000269987
0.000323592
0.000312523
0.00026886
0.000343621
0.000314074
0.000406827
0.000408753
0.00028852
0.000275741
0.000254249
0.000256131
0.000210572
0.00020797
0.000262293
0.000273281
0.000226027
0.000192683
0.000270939
0.000280275
0.000196587
0.000162492
0.000225354
0.000237911
0.000232326
0.000293566
0.000277115
0.000215241
0.000249089
0.00023073
0.000268083
0.000303176
0.000328589
0.000264772
0.000218258
0.000223052
0.000286184
0.000268016
0.000340284
0.000387162
0.000408287
0.000350344
0.000277462
0.000286015
0.000376179
0.000343192
0.000391608
0.000413609
0.000302839
0.000288433
0.000230161
0.000242858
0.000233956
0.000213932
0.000253634
0.00022932
0.000210967
0.000210911
0.000263774
0.000251667
0.000169582
0.000147784
0.000194549
0.00021641
0.000222974
0.000262878
0.000235367
0.000197132
0.000275074
0.000271415
0.000293379
0.000308552
0.000325059
0.00026044
0.000257584
0.000250533
0.000295964
0.000253638
0.000347247
0.000405612
0.000400206
0.000332716
0.000272102
0.00026809
0.000342886
0.000332536
0.000416822
0.000439685
0.000356849
0.000333967
0.000275956
0.000243581
0.000243097
0.000228793
0.000245794
0.000229548
0.000235036
0.000212877
0.000271497
0.000271937
0.000185011
0.000168956
0.000189711
0.00021818
0.000236337
0.000258271
0.000213469
0.000203478
0.000287551
0.000292621
0.000272224
0.000259592
0.000294654
0.000255854
0.000264184
0.000249837
0.000278198
0.000262608
0.000335345
0.000376656
0.000361189
0.000337555
0.00023358
0.000293419
0.00033955
0.000316403
0.000423636
0.00046992
0.000354476
0.000324223
0.000282242
0.00023379
0.000251335
0.00024064
0.000239458
0.000245617
0.000238279
0.000222357
0.000284202
0.000263838
0.000186397
0.000176866
0.000199211
0.000228988
0.00023384
0.000254898
0.000207694
0.00021473
0.000291801
0.000299454
0.000273753
0.000286619
0.000305892
0.000271295
0.00027588
0.000250698
0.000279733
0.000270904
0.000343778
0.000390051
0.000378961
0.000358185
0.000255745
0.000316579
0.000360666
0.000297778
0.0004086
0.000476192
0.000348364
0.000323791
0.000290074
0.000255895
0.00027939
0.000259155
0.000254507
0.000262417
0.000248846
0.000238893
0.000287443
0.000255022
0.000194147
0.000185273
0.000220492
0.000237203
0.000238456
0.000263913
0.00021258
0.000221147
0.000302171
0.000309512
0.000273514
0.00028934
0.000312972
0.000279321
0.000275851
0.000258772
0.000287322
0.000290582
0.000357154
0.00040052
0.000382131
0.000378743
0.000277882
0.000341328
0.000386098
0.000310955
0.000406924
0.0004787
0.000357495
0.000326739
0.000299691
0.00027185
0.000298579
0.000270915
0.000271154
0.000289784
0.000275695
0.00025521
0.000294871
0.000255851
0.000208315
0.000210707
0.000247585
0.000246265
0.000244706
0.000281726
0.000238372
0.000238905
0.000328856
0.000326423
0.00027816
0.000312873
0.000346315
0.00031152
0.00028789
0.000267659
0.000310613
0.00031115
0.000371239
0.000404376
0.000384899
0.000397132
0.000304282
0.000372356
0.000418161
0.000339451
0.000428747
0.000489238
0.000374506
0.00033772
0.000313663
0.000292375
0.000330776
0.00029749
0.000287756
0.000318495
0.000296425
0.000276357
0.000311385
0.000267087
0.000232192
0.00024125
0.000280744
0.000264912
0.000265722
0.000314483
0.000261659
0.000265706
0.000355691
0.000340275
0.000287889
0.000327913
0.000372261
0.000335109
0.000294019
0.000280393
0.000334276
0.000337017
0.00038792
0.000413121
0.000389311
0.000418517
0.000334649
0.000407916
0.00044463
0.000370769
0.000458259
0.000507033
0.000400821
0.000359175
0.000343221
0.000313753
0.000359029
0.000325296
0.000313597
0.000349357
0.000319739
0.000305507
0.000336434
0.000287995
0.000260703
0.00027065
0.000317011
0.000290777
0.000298545
0.000347508
0.000287179
0.000300722
0.000394863
0.000359105
0.0003031
0.000358064
0.00040996
0.000357785
0.000308012
0.000298332
0.000369529
0.000376314
0.00040875
0.000425926
0.000397573
0.000445865
0.000367677
0.000437552
0.000463183
0.000397573
0.000483155
0.000520418
0.000411204
0.000377805
0.000374918
0.000337235
0.000384632
0.000347838
0.000340603
0.000371256
0.000332795
0.0003319
0.000361295
0.00031082
0.000284618
0.000297175
0.000349556
0.000316972
0.000339305
0.00037112
0.000312759
0.000327951
0.000424953
0.000375312
0.000320531
0.000383575
0.000436072
0.000363077
0.000314072
0.000314471
0.000397477
0.00040043
0.000420664
0.000441101
0.000413856
0.000474185
0.000395858
0.000444626
0.000464865
0.00040789
0.000488831
0.000523806
0.000413294
0.000391252
0.000395383
0.000355215
0.000395784
0.000355138
0.000363448
0.000383871
0.000335652
0.000346965
0.000379787
0.000331013
0.000305156
0.000323302
0.000370383
0.000330665
0.000368964
0.000386866
0.00032871
0.000344577
0.000440154
0.000385561
0.000338509
0.000403987
0.000445236
0.000360459
0.000319655
0.000324944
0.000418634
0.000418661
0.000422792
0.000442336
0.000425246
0.000496187
0.000412752
0.000429826
0.000453277
0.000407292
0.000481455
0.000514437
0.000406189
0.000387638
0.000395454
0.000362637
0.000390451
0.000349949
0.000374106
0.000383684
0.000328396
0.000347282
0.000386088
0.000340416
0.000320563
0.00034532
0.00037694
0.000330204
0.000377447
0.000393893
0.000339564
0.00034928
0.000442757
0.000388397
0.000344531
0.000406757
0.000430448
0.000347596
0.000317104
0.000324619
0.000423728
0.000418293
0.000409953
0.000429458
0.00042352
0.000500211
0.000412795
0.000414304
0.000446335
0.000404999
0.000475696
0.000500967
0.000393842
0.00037658