/*--------------------------------*- C++ -*----------------------------------*\
  =========                 |
  \\      /  F ield         | OpenFOAM: The Open Source CFD Toolbox
   \\    /   O peration     | Website:  https://openfoam.org
    \\  /    A nd           | Version:  10
     \\/     M anipulation  |
\*---------------------------------------------------------------------------*/
FoamFile
{
    format      ascii;
    class       volVectorField;
    location    "8";
    object      U_0;
}
// * * * * * * * * * * * * * * * * * * * * * * * * * * * * * * * * * * * * * //

dimensions      [0 1 -1 0 0 0 0];

internalField   nonuniform List<vector> 
25600
(
(0.177746 -0.0751887 0.0465208)
(0.269329 -0.0831574 -0.036338)
(0.236977 -0.0750421 0.0228998)
(0.156822 -0.0705842 0.0984561)
(0.197175 -0.0731437 0.0185776)
(0.251581 -0.0785704 -0.0307049)
(0.253285 -0.0816805 -0.0324225)
(0.30772 -0.0796438 0.0118958)
(0.271263 -0.0708007 0.103222)
(0.223835 -0.0626227 0.139776)
(0.181449 -0.0503146 0.121299)
(0.118369 -0.0716188 0.0756528)
(0.140504 -0.075837 0.028904)
(0.152293 -0.0793057 -0.00146596)
(0.257793 -0.0870598 -0.0588203)
(0.194186 -0.0849698 0.00249327)
(0.12913 -0.0683233 0.124026)
(0.0152522 -0.0707393 0.00472466)
(0.0586581 -0.0742904 -0.022394)
(0.0872152 -0.0420159 0.110951)
(0.0781898 -0.0634653 0.0791673)
(0.118233 -0.0735705 0.0102353)
(0.0971954 -0.0689216 -0.017773)
(0.221267 -0.077454 0.00411517)
(0.144198 -0.0595132 0.121651)
(0.116117 -0.070125 0.0895863)
(0.112365 -0.0684444 0.0733813)
(0.135209 -0.0675907 0.0358515)
(0.235311 -0.080619 -0.0444552)
(0.2771 -0.0812738 -0.041091)
(0.202192 -0.0716593 0.072021)
(0.159156 -0.0727361 0.125516)
(0.144312 -0.084472 0.0630179)
(0.126118 -0.0834608 0.0685906)
(0.131882 -0.073723 0.0130893)
(0.177979 -0.0808246 -0.0545122)
(0.348918 -0.0863658 -0.0930304)
(0.446017 -0.0880842 -0.0672792)
(0.349591 -0.0749069 0.0394824)
(0.157789 -0.0591694 0.115051)
(0.215202 0.0633577 -0.00196134)
(0.54238 0.0665499 -0.207524)
(0.499243 0.0632519 -0.116238)
(0.289337 0.0701929 0.0291439)
(0.392045 0.0668981 -0.111987)
(0.557804 0.0698001 -0.217421)
(0.605607 0.0729504 -0.24698)
(0.63659 0.0632059 -0.177415)
(0.506644 0.0589997 0.0120138)
(0.365429 0.045903 0.106018)
(0.129269 0.0486759 0.103465)
(0.193988 0.0843472 -0.026452)
(0.251732 0.0732655 -0.078415)
(0.286887 0.0697617 -0.115047)
(0.700779 0.0773156 -0.251589)
(0.519845 0.0795442 -0.150013)
(0.204864 0.0669505 0.0356804)
(0.221082 0.0861056 -0.157123)
(0.190314 0.0705957 -0.156337)
(0.0777238 0.0375768 0.0342666)
(0.133344 0.0620709 -0.0281481)
(0.260903 0.0625612 -0.107012)
(0.228776 0.0603575 -0.179351)
(0.428704 0.0602641 -0.154086)
(0.218673 0.0574626 0.0182346)
(0.20209 0.0726293 0.0075042)
(0.169881 0.0671717 0.0185761)
(0.234016 0.0638369 0.0135225)
(0.531542 0.0680044 -0.0927358)
(0.666853 0.0641808 -0.177047)
(0.436013 0.0609847 -0.0169604)
(0.288882 0.0793648 0.0562521)
(0.310396 0.0918999 -0.0629772)
(0.273177 0.0894371 -0.0414114)
(0.305335 0.0684666 -0.109108)
(0.486895 0.0682935 -0.22781)
(0.633132 0.0607428 -0.29936)
(0.844909 0.0663 -0.332959)
(0.778035 0.0596772 -0.0954427)
(0.312625 0.0561546 0.0248305)
(0.263817 -0.0597974 0.0101697)
(0.692428 -0.0728874 -0.13798)
(0.64291 -0.0426363 -0.158267)
(0.38728 -0.0366931 -0.0317758)
(0.55345 -0.0381358 -0.163487)
(0.68674 -0.0501342 -0.248729)
(0.797447 -0.0428531 -0.347886)
(0.784106 -0.058284 -0.293197)
(0.594995 -0.0438582 -0.0716368)
(0.440454 -0.0361771 0.0329833)
(0.173691 -0.0378713 0.0487975)
(0.233188 -0.0226319 -0.0674146)
(0.355026 -0.0355264 -0.101507)
(0.389718 -0.0775259 -0.11115)
(0.877238 -0.0807003 -0.201921)
(0.935222 -0.0354981 -0.236234)
(0.488926 -0.0330548 -0.0456639)
(0.423035 0.00216113 -0.20973)
(0.52543 -0.0277214 -0.300346)
(0.195895 -0.0324443 -0.0675812)
(0.233276 -0.0371066 -0.0523222)
(0.419932 -0.0558633 -0.184065)
(0.375771 -0.0583194 -0.256691)
(0.568674 -0.0611657 -0.25437)
(0.389448 -0.0375535 -0.108862)
(0.313708 -0.0290273 -0.0829072)
(0.226295 -0.0348669 -0.0176225)
(0.315745 -0.0330308 0.105251)
(0.652251 -0.0629849 0.153151)
(0.851975 -0.058837 -0.0875129)
(0.652202 -0.0450138 -0.0774559)
(0.355342 -0.0106224 0.0218073)
(0.421774 -0.0237886 -0.066626)
(0.42923 -0.015766 -0.0678703)
(0.492656 -0.0383609 -0.180211)
(0.727116 -0.04734 -0.282375)
(0.729042 -0.0653179 -0.245648)
(0.969527 -0.0715371 -0.296527)
(0.928279 -0.0418464 -0.21984)
(0.502959 -0.0380444 -0.12345)
(0.482327 0.00956935 -0.0783559)
(0.740461 0.00786166 -0.108783)
(0.672199 0.0411469 -0.155402)
(0.45323 0.0521195 -0.0850282)
(0.620047 0.0451783 -0.119979)
(0.837199 0.0120181 -0.174726)
(0.878377 0.0438776 -0.339026)
(0.745707 0.0319197 -0.351199)
(0.694797 0.0356907 -0.236041)
(0.580716 0.0285713 -0.0752987)
(0.30796 0.0206054 -0.0689542)
(0.229173 0.043187 -0.112388)
(0.415228 0.037172 -0.0676577)
(0.485684 -0.0193379 -0.0100399)
(0.778272 -0.027435 -0.0892249)
(0.962555 0.0417132 -0.276341)
(0.637005 0.0528097 -0.075927)
(0.400273 0.0626664 -0.180377)
(0.782043 0.0653282 -0.391977)
(0.359733 0.0387034 -0.149823)
(0.219003 0.0416919 -0.0122816)
(0.543159 0.0118383 -0.143975)
(0.397365 0.03273 -0.265492)
(0.583453 0.0289895 -0.300962)
(0.410181 0.0425192 -0.178969)
(0.331467 0.071061 -0.111721)
(0.272593 0.0635621 -0.0317717)
(0.405522 0.0303926 0.14591)
(0.702144 0.00194657 0.168774)
(0.797739 0.0194152 -0.0914794)
(0.676433 0.0444178 -0.138916)
(0.362355 0.0555089 -0.00358252)
(0.534057 0.0588053 -0.0330062)
(0.436967 0.0696377 -0.0321864)
(0.578289 0.0451545 -0.129278)
(0.756247 0.0283044 -0.263141)
(0.752439 0.0270393 -0.194149)
(0.950591 0.0253796 -0.183315)
(0.951954 0.0452619 -0.260473)
(0.665772 0.0527084 -0.218149)
(0.675024 -0.0637619 -0.190465)
(0.673805 -0.0433962 -0.156168)
(0.658633 -0.0330445 -0.217433)
(0.607221 -0.0134801 -0.203427)
(0.678522 -0.012786 -0.182308)
(0.805412 -0.0769809 -0.0752264)
(0.925065 -0.0378287 -0.23687)
(0.85973 -0.0457735 -0.291285)
(0.776392 -0.0449035 -0.28428)
(0.742464 -0.022298 -0.22408)
(0.416935 -0.0190632 -0.112996)
(0.405252 -0.00347892 -0.138842)
(0.55836 -0.0506956 -0.0470501)
(0.607503 -0.0819568 0.0145082)
(0.662033 -0.0887237 0.0423972)
(1.02439 -0.0301875 -0.215568)
(0.735748 0.00770583 -0.143364)
(0.336486 0.0275221 -0.125774)
(0.808622 0.0183218 -0.408439)
(0.594291 0.00369845 -0.338388)
(0.373743 -0.0125695 -0.0810595)
(0.541284 -0.0558284 -0.0392523)
(0.488167 -0.0451898 -0.142756)
(0.62661 -0.0597922 -0.259273)
(0.424436 -0.0282296 -0.15462)
(0.347964 0.0234976 -0.112126)
(0.348671 0.0188579 -0.0717637)
(0.370836 -0.0208944 0.108344)
(0.534569 -0.0413503 0.10167)
(0.833856 -0.0575612 -0.0664704)
(0.75117 -0.0203378 -0.102061)
(0.424247 0.00515393 -0.0362852)
(0.533701 0.0081951 -0.0257202)
(0.518954 0.0450707 -0.0830262)
(0.608214 -0.024042 -0.136452)
(0.704142 -0.0500233 -0.201791)
(0.766838 -0.0595023 -0.18807)
(0.827902 -0.0465604 -0.181189)
(0.882664 -0.0223277 -0.183587)
(0.739777 -0.00741988 -0.2108)
(0.72622 -0.0228455 -0.183946)
(0.622376 0.00538145 -0.161965)
(0.745424 0.00145319 -0.232651)
(0.692189 0.0269422 -0.275102)
(0.632198 0.0404556 -0.229541)
(0.620925 -0.0110055 -0.0884614)
(0.832626 0.0143906 -0.23008)
(0.890776 -0.0123802 -0.200886)
(0.725944 -0.0139749 -0.163839)
(0.738762 0.0142946 -0.288928)
(0.57139 0.0125428 -0.196722)
(0.6358 0.0140706 -0.158312)
(0.744484 -0.00354166 -0.0858533)
(0.755343 -0.0565127 -0.0170645)
(0.671844 -0.0716024 0.0753093)
(1.04106 0.00474181 -0.0991618)
(0.730605 0.0595249 -0.177617)
(0.52905 0.0244989 -0.0931386)
(0.783828 0.00489276 -0.321391)
(0.697415 0.0324251 -0.444516)
(0.674417 0.0375042 -0.22139)
(0.561826 -0.00305108 -0.0865487)
(0.571615 0.0223805 -0.10217)
(0.605804 -0.00216906 -0.229835)
(0.427648 0.0271447 -0.121825)
(0.373792 0.0554267 -0.1225)
(0.416235 0.07238 -0.110329)
(0.403465 0.0381632 0.0516976)
(0.555836 -0.0404359 0.141808)
(0.853687 -0.024241 0.0260763)
(0.773913 0.0273737 -0.0839553)
(0.538976 0.0348658 -0.0386502)
(0.372571 0.0544204 -0.00666734)
(0.655258 0.0336681 -0.0306488)
(0.579548 0.0357206 -0.142589)
(0.679944 0.0163973 -0.216921)
(0.790542 -0.00729196 -0.219566)
(0.741944 0.00967682 -0.159566)
(0.727168 0.0343798 -0.2047)
(0.768557 0.00520926 -0.200135)
(0.828144 -0.0623065 -0.100353)
(0.687811 -0.0385722 -0.164628)
(0.775823 -0.0711433 -0.0960499)
(0.726584 -0.00328633 -0.19034)
(0.748853 -0.00374496 -0.122661)
(0.735009 -0.0394856 -0.0720366)
(0.86052 -0.0290544 -0.249819)
(0.694971 -0.0347512 -0.136591)
(0.65003 -0.0347001 -0.0721043)
(0.715046 -0.0256469 -0.240081)
(0.734341 -0.0239874 -0.245827)
(0.762343 -0.00238897 -0.210781)
(0.898383 -0.0347988 -0.18262)
(0.753601 -0.0656268 -0.0795576)
(0.617421 -0.0710366 -0.0608266)
(1.00625 -0.0361221 -0.135245)
(0.752498 0.0494754 -0.169871)
(0.707294 0.0259266 -0.156741)
(0.923983 -0.0229594 -0.253491)
(0.799652 0.00262162 -0.333567)
(0.860785 0.0191495 -0.309958)
(0.733868 -0.0291119 -0.196373)
(0.502716 -0.0121611 -0.189098)
(0.644628 -0.0428724 -0.255938)
(0.510642 -0.00645063 -0.205868)
(0.439061 0.0290346 -0.16)
(0.463862 0.0522736 -0.1595)
(0.484165 0.0110401 -0.000907677)
(0.61958 -0.0688868 0.103432)
(0.802112 -0.0812212 -0.0163306)
(0.7797 -0.00344295 -0.0916733)
(0.588319 0.034351 -0.0552532)
(0.365001 0.0357138 0.011083)
(0.595388 0.0136677 -0.0163587)
(0.530386 0.0166721 -0.082316)
(0.755638 -0.0239551 -0.154857)
(0.864557 -0.0548563 -0.213841)
(0.669896 -0.0336165 -0.17392)
(0.678711 -0.00103368 -0.178614)
(0.821372 -0.0439042 -0.157065)
(0.767183 -0.0572789 -0.0531995)
(0.708695 -0.00721563 -0.0815512)
(0.6256 -0.015239 -0.0619927)
(0.712375 -0.00901698 -0.162711)
(0.742093 0.00979415 -0.0356987)
(0.791422 -0.0108881 0.0461397)
(0.932222 0.0164317 -0.206625)
(0.645685 -0.0218508 -0.12566)
(0.602709 -0.0221754 -0.0664933)
(0.706462 0.00547003 -0.252304)
(0.756796 0.0087562 -0.289993)
(0.821027 0.0048526 -0.235749)
(0.990336 -0.0229516 -0.210374)
(0.782792 -0.0417959 -0.0911254)
(0.654102 -0.0447347 -0.021677)
(0.959289 -0.0207036 -0.141398)
(0.747742 0.0754941 -0.196874)
(0.787467 0.0311072 -0.210302)
(0.962035 -0.0246172 -0.21982)
(0.909418 -0.00049347 -0.254396)
(0.913604 0.0290965 -0.313407)
(0.741583 0.0203334 -0.208801)
(0.357667 0.0364346 -0.0981136)
(0.582288 0.00285571 -0.0759801)
(0.611843 0.0197003 -0.257969)
(0.571658 0.0303093 -0.258565)
(0.542119 0.0756881 -0.218894)
(0.508767 0.0520678 -0.0292395)
(0.662872 -0.0448411 0.128392)
(0.816366 -0.0351113 -0.000156805)
(0.787032 0.00748108 -0.0942388)
(0.626404 0.0538272 -0.0453466)
(0.446974 0.0393131 -0.00456733)
(0.566416 0.0244564 0.000986509)
(0.45258 0.0401023 0.0623504)
(0.726799 -0.0127314 -0.0676372)
(0.836713 -0.0170535 -0.211289)
(0.548234 0.0224449 -0.248633)
(0.541049 0.00556637 -0.14531)
(0.68852 -0.0469121 -0.112164)
(0.608331 -0.0502534 -0.0837934)
(0.688361 -0.0213483 -0.0460332)
(0.647938 -0.0303967 -0.132486)
(0.569049 -0.0117109 -0.172596)
(0.614592 0.0127409 -0.0112571)
(0.726196 -0.0158745 0.0399821)
(0.897647 -0.00693876 -0.156539)
(0.773017 -0.0304145 -0.174484)
(0.58781 -0.00893678 -0.138476)
(0.713628 -0.0075236 -0.212487)
(0.850523 -0.00501122 -0.239229)
(0.897865 -0.0110675 -0.179269)
(1.03416 -0.0489261 -0.213867)
(0.826364 -0.056865 -0.0894441)
(0.718974 -0.0747285 -0.0161919)
(0.974857 -0.0413549 -0.0446134)
(0.818659 0.0981271 -0.175398)
(0.889068 0.0301869 -0.216268)
(1.00946 -0.0454866 -0.217627)
(0.900202 -0.0168803 -0.266899)
(0.929648 0.0282271 -0.261211)
(0.790107 0.0207306 -0.199169)
(0.444899 0.0144742 -0.0634153)
(0.549911 -0.0188392 0.0297449)
(0.659757 -0.0084533 -0.143108)
(0.649131 0.0288212 -0.258365)
(0.566492 0.0936712 -0.240113)
(0.525754 0.0661179 -0.0502218)
(0.72213 -0.0547 0.114892)
(0.884584 -0.0580326 0.0777184)
(0.818854 0.00266635 -0.0665428)
(0.688639 0.0368627 -0.0233847)
(0.448463 0.0230842 0.051668)
(0.650809 -0.00265882 0.0448376)
(0.56554 0.0126282 0.046458)
(0.570276 -0.0138688 -0.0855754)
(0.775499 -0.028279 -0.19778)
(0.635413 -0.0109392 -0.285801)
(0.504652 -0.00808061 -0.143088)
(0.587699 -0.0456728 -0.0652639)
(0.626518 -0.0295684 -0.121403)
(0.753035 -0.00186154 0.00989504)
(0.664488 -0.0167706 -0.122007)
(0.562057 0.0015342 -0.161991)
(0.56559 0.0385424 -0.0359491)
(0.653025 -0.000567573 0.0306581)
(0.837964 0.00609388 -0.0646261)
(0.79451 0.0206066 -0.188875)
(0.616893 0.0067003 -0.170854)
(0.791564 0.016365 -0.187811)
(0.923327 0.0189484 -0.149927)
(0.979832 -0.0142289 -0.161478)
(1.10224 -0.0470626 -0.245716)
(0.877359 -0.0417164 -0.119174)
(0.783833 -0.0361866 -0.0686373)
(0.986217 -0.00932617 -0.0411877)
(0.907328 0.0909582 -0.0975441)
(0.950572 0.0347213 -0.187608)
(1.03825 -0.0685724 -0.22563)
(0.977891 -0.0272068 -0.218636)
(0.943271 0.0418118 -0.242685)
(0.79926 0.0642074 -0.238284)
(0.513418 0.04988 -0.130403)
(0.560552 0.00123987 0.00610549)
(0.663794 0.00630529 -0.0451225)
(0.650932 0.0324731 -0.237246)
(0.576691 0.0800151 -0.218487)
(0.582225 0.0579026 -0.0446437)
(0.720952 -0.0470598 0.0700775)
(0.862604 -0.0633559 0.042869)
(0.844483 0.0184078 -0.0606852)
(0.697695 0.0410467 -0.0247222)
(0.581574 -0.0050377 0.0219377)
(0.656747 0.0209017 0.00147878)
(0.538111 0.0490108 -0.0449163)
(0.569979 -0.00394292 -0.087522)
(0.741939 -0.00559352 -0.122457)
(0.583034 0.0123941 -0.21452)
(0.459248 0.0275876 -0.0931203)
(0.550653 -0.0159075 -0.0372651)
(0.720169 -0.0644287 -0.0182963)
(0.816905 0.0198242 0.0325394)
(0.692871 -0.0215122 -0.0722426)
(0.635407 0.00107032 -0.181285)
(0.59193 0.0207602 -0.0943459)
(0.565188 0.00480207 0.124098)
(0.843722 -0.0184122 0.0646604)
(0.814387 0.0144161 -0.162215)
(0.672498 0.0237268 -0.1116)
(0.849931 -0.0111209 -0.0925155)
(0.895211 0.0248506 -0.0401907)
(0.914063 -0.0326286 -0.132466)
(1.11625 -0.0808799 -0.278846)
(0.857091 -0.0691712 -0.117859)
(0.831181 -0.0883002 -0.060099)
(0.915437 -0.0234264 -0.0512063)
(0.816514 0.0926747 -0.091835)
(0.897474 0.0352697 -0.106945)
(0.9191 -0.105436 -0.141386)
(0.899454 -0.0486008 -0.157164)
(0.924985 0.0485418 -0.213918)
(0.841973 0.0698231 -0.248882)
(0.63362 0.0372713 -0.159559)
(0.678038 -0.0247707 -0.00901738)
(0.663046 -0.00476237 -0.0965431)
(0.64694 0.0490485 -0.230862)
(0.612163 0.108344 -0.189847)
(0.573937 0.0407246 -0.0794059)
(0.69069 -0.0571022 0.0386745)
(0.778282 -0.0672376 -0.0334495)
(0.795823 0.00302199 -0.0973412)
(0.718073 0.0383533 -0.0824354)
(0.687076 -0.0208098 0.00954779)
(0.646136 0.034768 0.0384727)
(0.482316 0.0410024 -0.0633805)
(0.70041 -0.0294012 -0.0829645)
(0.776836 0.00016765 -0.0462442)
(0.646411 -0.0119633 -0.126658)
(0.466234 0.0413897 -0.168998)
(0.480761 -0.0166682 -0.0885298)
(0.680008 -0.0688349 0.0485133)
(0.804025 -0.0116651 0.081645)
(0.656638 -0.00382399 -0.0269312)
(0.617256 0.00433643 -0.104975)
(0.669608 0.033463 -0.0547213)
(0.563736 -0.0024707 0.10911)
(0.843543 -0.0362308 0.177023)
(0.844048 0.0529609 -0.0950146)
(0.757841 0.000655765 -0.113052)
(0.820123 -0.017108 -0.0112826)
(0.812998 0.0807673 -0.0547288)
(0.86021 -0.0212945 -0.119206)
(1.19058 -0.0793413 -0.205419)
(0.846347 -0.0346241 -0.122325)
(0.777329 -0.0967512 -0.00577288)
(0.949211 0.00258635 -0.0727928)
(0.801722 0.139558 -0.0838438)
(0.726945 0.0365401 -0.0154677)
(0.852598 -0.0937936 -0.173623)
(0.765075 -0.032282 -0.176551)
(0.821814 0.0563263 -0.149903)
(0.863039 0.0934754 -0.2186)
(0.742387 0.0382065 -0.157756)
(0.72262 -0.0339605 0.035135)
(0.66542 0.0142109 -0.0997564)
(0.690909 0.0845141 -0.227761)
(0.646549 0.0870961 -0.228436)
(0.602298 0.0539419 -0.135425)
(0.716324 -0.00715528 0.0186908)
(0.676179 -0.0536935 -0.00834732)
(0.714025 0.0269583 -0.102385)
(0.849437 0.0396979 -0.115981)
(0.853131 -0.0625003 -0.0154926)
(0.673005 0.00344077 0.006651)
(0.548607 0.0255574 -0.0388858)
(0.611007 -0.0337032 -0.0255076)
(0.763613 -0.0156262 -0.0555604)
(0.672933 0.0236513 -0.0851071)
(0.462244 0.0516713 -0.155097)
(0.439816 0.000736525 -0.13022)
(0.566559 -0.0671834 -0.0206862)
(0.764779 -0.0309362 -0.0400233)
(0.663709 -0.0271657 -0.0771181)
(0.637128 0.00432517 -0.0512777)
(0.725396 0.0538676 -0.0427414)
(0.755527 -0.00923071 -0.0323669)
(0.848554 -0.0631057 0.123048)
(0.882651 0.0561083 -0.0341628)
(0.811214 0.0335791 -0.144554)
(0.711054 -0.0226081 0.0358326)
(0.75824 0.07103 -0.0531308)
(0.846032 -0.0360028 -0.11729)
(1.18105 -0.116636 -0.0668631)
(0.959105 -0.0662455 -0.144083)
(0.720466 -0.0601759 -0.0289613)
(0.918901 0.0036694 -0.126643)
(0.736912 0.133622 -0.0680895)
(0.586653 0.0373415 -0.071533)
(0.911155 -0.185137 -0.250034)
(0.805014 -0.100372 -0.219813)
(0.691338 0.0646749 -0.0701005)
(0.844071 0.0758782 -0.198388)
(0.888481 0.016037 -0.192936)
(0.81894 -0.041878 0.0335273)
(0.67994 0.00276615 -0.0856896)
(0.699312 0.065167 -0.219783)
(0.640857 0.110639 -0.221476)
(0.784057 0.0650189 -0.246964)
(0.73369 0.00330824 0.00642129)
(0.611149 -0.0228202 0.101962)
(0.819827 0.0150807 -0.0964436)
(1.04481 0.00412061 -0.127142)
(0.951324 -0.0736031 -0.0195397)
(0.748062 0.0154335 -0.038185)
(0.56871 0.0624945 -0.0568573)
(0.539254 -0.0249289 0.0176006)
(0.762969 -0.0425849 -0.0812207)
(0.69496 0.0350923 -0.10269)
(0.555803 0.0591012 -0.126594)
(0.508827 -0.0123029 -0.128251)
(0.583334 -0.0474823 -0.00492655)
(0.694944 -0.0116555 -0.0196319)
(0.674763 0.0177368 0.0294495)
(0.682359 0.0133802 0.00620219)
(0.768138 0.0298022 -0.0433919)
(0.771272 -0.0272586 -0.0513196)
(0.806006 -0.0360078 0.0612972)
(0.782629 0.0977844 -0.031139)
(0.903967 0.0485196 -0.157116)
(0.821308 -6.31767e-05 -0.0991516)
(0.825113 0.0727575 -0.140811)
(0.995836 -0.0410476 -0.124555)
(1.13168 -0.0691538 -0.0735236)
(0.890775 -0.0279851 -0.107129)
(0.638936 -0.0429336 -0.0378619)
(0.840102 0.0222263 -0.0706503)
(0.655416 0.111052 -0.126575)
(0.60635 0.0137033 -0.105022)
(1.02143 -0.199796 -0.0765981)
(0.770639 -0.0747096 -0.151194)
(0.567382 0.0989283 -0.0879075)
(0.942858 0.0111039 -0.161492)
(0.949774 -0.0241063 -0.159548)
(0.853035 -0.0208181 -0.00988152)
(0.797058 0.0134298 -0.0215522)
(0.737012 0.0629573 -0.117722)
(0.684256 0.100956 -0.219088)
(0.900692 0.0650648 -0.353383)
(0.794946 0.0146611 -0.128886)
(0.71523 -0.0303067 0.129696)
(0.801931 -0.00190781 0.0304362)
(1.0255 -0.00508965 -0.207844)
(1.16525 -0.0632135 -0.157508)
(0.869559 0.0166584 0.00411745)
(0.674079 0.0432888 -0.0399806)
(0.752943 -0.0608938 0.0873834)
(0.812424 -0.0380231 0.00858012)
(0.711997 0.032927 -0.0895444)
(0.629469 0.0478182 -0.119715)
(0.609149 -0.0341147 -0.0614455)
(0.719771 -0.0925576 0.04372)
(0.762309 -0.0345379 0.00622356)
(0.731745 0.0242571 0.00515038)
(0.662926 0.0178063 -0.0323178)
(0.747156 0.0368172 -0.047225)
(0.751659 -0.0100545 0.00595238)
(0.740482 0.00843452 0.0253678)
(0.665209 0.112964 -0.113457)
(0.866707 0.0142921 -0.074147)
(0.906341 -0.0456728 -0.0538706)
(0.885609 0.019708 -0.145575)
(1.05948 -0.0418271 -0.0258654)
(1.10812 -0.0650278 -0.0751993)
(0.960016 -0.0220529 -0.107747)
(0.685566 -0.0105861 -0.0300318)
(0.838129 0.00632484 0.0354258)
(0.683438 0.0953081 -0.186934)
(0.631908 -0.00791482 0.0213806)
(0.971294 -0.205281 0.0445971)
(0.758752 -0.0683293 -0.118071)
(0.621118 0.0779221 -0.089893)
(0.901961 -0.0084005 -0.0893933)
(0.928524 -0.0424251 -0.118552)
(0.871612 -0.0240332 -0.0369714)
(0.829935 0.0100819 -0.0192216)
(0.741588 0.0659936 -0.132853)
(0.801748 0.0828161 -0.212432)
(1.01538 -0.0016019 -0.204354)
(1.00537 -0.00875832 -0.195803)
(0.938061 0.012969 -0.038728)
(0.740045 0.0243353 0.068132)
(0.751751 -0.0163043 -0.0594877)
(1.06002 -0.110159 -0.134112)
(1.16912 -0.00913671 -0.106521)
(1.09566 0.0122368 -0.0848406)
(0.979734 -0.0971075 0.0116729)
(0.908652 -0.0694318 0.0832972)
(0.795055 0.0727726 -0.0902558)
(0.680958 0.0917391 -0.180139)
(0.731281 -0.0176825 -0.0107697)
(0.914826 -0.0581962 0.0443135)
(0.829235 0.00197387 0.0400815)
(0.705469 0.0401972 -0.0745229)
(0.673355 0.0164909 -0.0682631)
(0.749308 -0.0118213 -0.0299408)
(0.769363 -0.0478223 0.0184376)
(0.748443 0.000366006 0.0787164)
(0.718645 0.0957696 -0.00449005)
(0.862185 0.0137401 0.0398708)
(0.855066 -0.0119774 0.026367)
(0.834841 0.0286895 -0.0302275)
(0.982163 -0.018695 0.103524)
(1.05199 -0.035366 -0.0204726)
(0.977756 0.014396 -0.149262)
(0.810417 0.000764867 0.0592629)
(0.788375 0.0206343 0.0771442)
(0.725055 0.109654 -0.173049)
(0.625692 -0.0117796 0.00613862)
(0.829935 -0.162609 0.0825089)
(0.802463 -0.0282424 -0.146614)
(0.698198 0.0564895 -0.115216)
(0.804881 0.0110089 -0.0484447)
(0.92238 -0.0172818 -0.149875)
(0.910547 -0.0179919 -0.114169)
(0.78769 0.0302506 -0.0323963)
(0.722281 0.0660989 -0.149938)
(0.855528 0.0604057 -0.212354)
(1.03801 -0.0269663 -0.127865)
(1.03802 -0.0927638 -0.160848)
(1.00977 -0.0130831 -0.0818935)
(0.82248 0.0899644 0.0194809)
(0.757673 0.0232028 -0.0166815)
(0.925293 -0.0876334 0.0462133)
(1.071 -0.00922526 -0.0504315)
(1.12794 -0.00672532 -0.0964793)
(0.962186 -0.0516397 0.0317227)
(0.815577 -0.0243852 0.0599707)
(0.818241 0.0830294 -0.095497)
(0.762813 0.066684 -0.251065)
(0.82223 -0.025004 -0.154181)
(0.926987 -0.0391134 -0.0206948)
(0.853735 0.0277304 0.027249)
(0.785112 0.0466195 0.0253191)
(0.806432 0.00916144 0.0468882)
(0.804433 0.0321155 -0.0270512)
(0.707315 0.00739881 -0.0429072)
(0.580546 0.0674907 -0.00758384)
(0.598128 0.122303 -0.0200146)
(0.824028 0.00908127 0.0281135)
(0.77845 -0.0303063 0.0061491)
(0.728958 -0.000282361 -0.0119828)
(0.951066 -0.0907052 0.0958721)
(1.02062 -0.0319235 -0.030798)
(1.02893 0.028904 -0.0926934)
(0.88743 0.00814481 0.0693648)
(0.729262 0.071593 0.0112455)
(0.712717 0.110529 -0.061501)
(0.703325 -0.0333706 0.0370548)
(0.847557 -0.218413 0.0935512)
(0.850436 -0.0830594 -0.114976)
(0.763157 0.0761885 -0.148899)
(0.840511 0.0302363 -0.0587306)
(0.919964 -0.0151363 -0.124217)
(0.937023 -0.00569165 -0.107633)
(0.850083 0.0128411 -0.0265033)
(0.780236 0.0562378 -0.0897162)
(0.78242 0.0667426 -0.142475)
(0.930006 -0.0385907 -0.131844)
(1.00404 -0.114356 -0.146406)
(0.939858 -0.0140648 -0.0854831)
(0.721632 0.101355 0.0399797)
(0.67919 0.0433053 -0.0366562)
(0.899803 -0.0941801 -0.117635)
(1.07872 -0.0513514 -0.101755)
(1.13884 -0.0400147 -0.0992551)
(1.05924 -0.119614 0.0174379)
(0.920417 -0.0442546 0.10576)
(0.826388 0.0364605 0.00155102)
(0.749985 0.0253345 -0.117536)
(0.790563 -0.0205608 -0.112688)
(0.980772 -0.0200894 -0.0484502)
(0.903783 0.0487521 -0.0167686)
(0.854545 0.0608823 0.018915)
(0.741142 0.0482122 0.00630436)
(0.641442 0.0798714 -0.0986362)
(0.662058 0.0177479 -0.0673607)
(0.572464 0.0189265 -0.0533573)
(0.609605 0.0788808 -0.0504617)
(0.830247 0.0355699 0.043869)
(0.827922 -0.00389587 0.0409225)
(0.781347 -0.0346822 -0.0139174)
(0.928486 -0.0873279 0.0527432)
(0.950037 -0.0421167 0.00797294)
(1.01223 0.00798686 -0.0439196)
(0.925776 0.0504852 0.00348239)
(0.744721 0.0831282 0.0161646)
(0.746546 0.0426015 0.049798)
(0.779605 -0.0283931 0.105299)
(0.820164 -0.1266 0.0919857)
(0.823229 -0.0946361 -0.0714095)
(0.804413 0.0604318 -0.14699)
(0.835285 0.0617428 -0.0784181)
(0.849374 0.00303138 -0.0577214)
(0.923873 0.0187817 -0.0150797)
(0.92919 0.0495386 0.0310813)
(0.833737 0.0622052 -0.0424044)
(0.787667 0.0744389 -0.129118)
(0.961561 -0.0127262 -0.13638)
(1.02462 -0.0858371 -0.117369)
(0.804351 -0.00612635 -0.0413507)
(0.624199 0.104711 0.0477122)
(0.792365 0.00749092 -0.0107701)
(0.885379 -0.100366 -0.158345)
(0.965835 -0.0469866 -0.168456)
(1.16826 -0.068501 -0.0628226)
(0.991158 -0.116042 0.0186552)
(0.745846 -0.0272639 0.0455478)
(0.689924 0.0677105 -0.0153077)
(0.706359 0.0558753 -0.11671)
(0.819305 -0.0194734 -0.119525)
(0.835875 -0.0505161 -0.0122556)
(0.775086 0.0427928 -0.0291783)
(0.798628 0.0602116 -0.00479972)
(0.733061 0.0526368 -0.00831558)
(0.682027 0.023037 -0.0690464)
(0.747139 -0.00725674 -0.0465585)
(0.733213 0.0466854 -0.0146379)
(0.735143 0.100754 -0.00884782)
(0.808846 0.0345181 0.0642186)
(0.845083 -0.00481161 0.0778146)
(0.860578 -0.0593366 0.0169939)
(0.896682 -0.0802891 0.0419731)
(0.941305 -0.0182427 0.10496)
(1.04561 0.0120145 0.0276755)
(0.902707 0.0687235 -0.0615471)
(0.755844 0.137832 -0.0162688)
(0.822716 0.0692709 0.0380086)
(0.805051 -0.047351 0.0568184)
(0.842376 -0.128147 0.0712262)
(0.860152 -0.0856676 0.000939081)
(0.821522 0.0477429 -0.102221)
(0.862208 0.0552417 -0.127381)
(0.900051 -0.0203775 -0.0848399)
(0.906921 -0.0215801 0.00814606)
(0.919306 0.0327676 0.0643117)
(0.929554 0.0757747 -0.008903)
(0.945334 0.0587771 -0.106512)
(1.0143 -0.0441536 -0.0807939)
(1.06114 -0.100448 -0.0422035)
(0.953528 -0.0352096 -0.0658675)
(0.810817 0.0484049 -0.0385466)
(0.920617 0.0245767 0.0427978)
(0.967134 -0.0435913 -0.00559495)
(0.95166 -0.0558548 -0.101801)
(1.18404 -0.0484652 -0.0574484)
(1.0579 -0.0716866 0.0207084)
(0.670455 -0.0225365 0.0047098)
(0.610739 0.0578027 -0.0633937)
(0.676169 -0.00149883 -0.12734)
(0.759217 -0.0824397 -0.10354)
(0.732362 0.00241401 -0.116321)
(0.706288 0.0521286 -0.046751)
(0.786946 0.0493951 0.041661)
(0.851265 0.0475837 0.0367299)
(0.906108 0.0375251 0.0212398)
(0.917516 0.00475735 0.0406991)
(0.833128 0.0161785 0.0398168)
(0.761002 0.0341336 0.0363304)
(0.806522 0.00664527 0.0660903)
(0.912243 -0.00725028 0.0970957)
(0.952973 -0.0312391 0.0681829)
(0.872821 -0.0628619 -0.0130162)
(0.887138 -0.0358974 -0.00397105)
(1.01627 0.0193848 -0.0306578)
(0.897106 0.0885891 -0.118916)
(0.799878 0.102739 -0.0931176)
(0.856846 0.0471246 0.000167426)
(0.895318 -0.0155404 0.0552057)
(0.904202 -0.0874084 0.052499)
(0.867131 -0.0648594 0.021061)
(0.842755 0.0169769 -0.0525876)
(0.898785 0.0448131 -0.107088)
(0.946533 0.0109325 -0.0871574)
(0.973498 -0.00938137 -0.00610254)
(0.94375 0.0303751 0.0530056)
(0.954914 0.0534252 0.0218385)
(1.04158 0.0309555 -0.0486485)
(1.11589 0.00241909 -0.0705725)
(1.099 -0.00890892 -0.024752)
(1.02471 0.0213543 0.00126908)
(0.960572 0.0529096 -0.00201763)
(0.994514 0.00398119 0.0265757)
(1.05122 -0.0595261 -0.0147918)
(1.08524 -0.0814941 -0.0627176)
(1.1925 -0.0862044 -0.0533004)
(1.08689 -0.0460465 -0.0124907)
(0.7806 0.0106836 0.00869693)
(0.677342 0.0214677 -0.0158529)
(0.741557 -0.0307211 -0.0653798)
(0.756237 -0.0460844 -0.12392)
(0.826025 -0.0422864 -0.139704)
(0.843889 0.000920634 -0.0845701)
(0.896925 0.00935857 0.0168707)
(0.938959 0.0216349 0.0425571)
(0.980504 0.0213476 0.0332502)
(0.973812 0.00793059 0.0442256)
(0.892115 0.028861 0.0373667)
(0.851133 0.0523119 0.0286772)
(0.904981 0.0132838 0.0267259)
(0.992054 -0.0108321 0.0460127)
(1.02407 -0.0260646 0.0957125)
(0.924644 -0.0414524 0.0675784)
(0.84169 -0.0363676 0.00623592)
(0.926025 -0.0133836 -0.0169243)
(0.954199 0.068316 -0.00731292)
(0.932564 0.0973309 0.0279106)
(0.935591 0.0468274 0.0221737)
(0.942271 -0.000474408 0.00273454)
(0.936958 -0.0514588 -0.00753117)
(0.908431 -0.0331806 -0.0177548)
(0.942161 0.0405777 -0.053311)
(1.00314 0.0395195 -0.0802255)
(0.976497 -0.0057637 -0.0712058)
(0.930421 -0.00340735 -0.032797)
(0.940561 0.0330526 0.0123579)
(1.00783 0.0517828 0.0266755)
(1.03515 0.040154 0.0211726)
(1.05659 -0.00493014 -0.0233186)
(1.12292 -0.0394715 -0.0610609)
(1.13762 -0.0104113 -0.00599744)
(1.04385 0.0482579 0.0642022)
(0.978259 0.022831 0.0649079)
(1.00539 -0.0317979 -0.0122829)
(1.09278 -0.0522613 -0.0409386)
(1.17924 -0.0437491 -0.0186414)
(1.00569 -0.00288691 -0.0270769)
(0.76574 0.0445201 -0.00270423)
(0.732381 0.035229 0.0333428)
(0.819303 -0.0357339 0.0107448)
(0.843587 -0.0824006 -0.0787189)
(0.951451 -0.0250326 -0.0873197)
(0.930749 -0.0119418 -0.0977701)
(0.936008 -0.0184656 -0.057862)
(0.957668 0.0120676 -0.00602662)
(0.977804 0.0520744 0.0233682)
(1.01057 0.0336041 0.0314078)
(1.03305 0.00509575 0.0578445)
(1.05153 -0.00380022 0.0845504)
(1.08088 -0.0374658 0.0551136)
(1.07881 -0.0394668 0.0217105)
(1.05522 -0.0128182 0.0620099)
(1.00988 -0.0124961 0.116491)
(0.950258 -0.0247088 0.10749)
(0.961172 -0.0256532 0.0493255)
(0.948201 0.0378996 0.0265133)
(0.91151 0.0643434 0.0326372)
(0.916286 0.0250358 0.00232684)
(0.964962 0.00233976 -0.0310024)
(1.03071 -0.0221307 -0.0328555)
(1.01646 -0.0414943 -0.029146)
(1.02164 -0.0299158 -0.0487376)
(1.07396 0.00820709 -0.0615244)
(1.03338 0.0307319 -0.0449803)
(0.948932 0.0189661 -0.0147148)
(0.939353 0.0109804 0.0095879)
(0.991214 0.0181745 0.0241362)
(1.01133 0.0451163 0.0520985)
(1.04429 0.0358806 0.0565062)
(1.10745 -0.0111711 0.00468608)
(1.09673 -0.0130837 -0.00642172)
(0.984512 0.0295023 0.0434169)
(0.935708 0.0315612 0.0682508)
(0.98296 -0.034793 0.0252477)
(1.0545 -0.0901692 -0.0215005)
(1.11578 -0.0617498 -0.0181008)
(0.999048 0.015949 -0.00388861)
(0.848707 0.0576025 0.0062455)
(0.861471 0.0413812 0.0276048)
(0.96653 -0.00498876 0.034934)
(0.99246 -0.0370042 -0.0182643)
(1.01994 -0.00642358 -0.0671298)
(0.998348 -0.0188676 -0.0794884)
(0.985831 -0.0288582 -0.0458477)
(0.972715 0.00190105 -0.0212264)
(0.970039 0.0254991 -0.00548007)
(0.977728 -0.0044868 0.0019663)
(0.972178 -0.030839 0.0128323)
(0.978941 -0.0269016 0.0428528)
(1.01975 -0.0376734 0.0491648)
(1.0501 -0.0422099 0.0161655)
(1.06421 -0.0427246 0.0140099)
(1.07074 -0.0502738 0.0572815)
(1.05139 -0.0476066 0.0831593)
(1.03898 -0.039703 0.04462)
(1.00035 0.0140877 0.00058591)
(0.947014 0.042414 0.0157963)
(0.928013 0.00543183 0.0393083)
(0.94832 -0.0331399 0.0314065)
(1.03 -0.0459427 -0.00205538)
(1.09951 -0.0246673 -0.0438783)
(1.10471 -0.00288131 -0.0666751)
(1.07875 0.00307771 -0.0688746)
(1.03864 0.0171479 -0.0464903)
(1.00476 0.0197845 0.00200865)
(0.993147 0.0187907 0.0356546)
(1.01051 0.0420663 0.0304516)
(0.995615 0.0539706 0.0153689)
(0.965907 0.0143456 0.0145597)
(0.984491 -0.00321836 0.0275132)
(1.03738 0.0258964 0.0311194)
(1.05459 0.0517746 0.0393726)
(1.07085 0.0167945 0.0502874)
(1.09922 -0.0400665 0.0296981)
(1.10443 -0.0572688 -0.00156202)
(1.09064 -0.0297223 -0.00968173)
(1.02167 0.0232446 -0.00341294)
(0.9753 0.0397053 6.04169e-05)
(1.0032 0.00893168 -0.0205571)
(1.05235 -0.0133497 -0.0234109)
(1.05784 -0.00778179 -0.0225902)
(1.0718 -0.0346505 0.00735952)
(1.07255 -0.0315366 -0.0265812)
(1.0424 -0.0518908 -0.0287515)
(1.01812 -0.0299965 -0.00505097)
(1.03587 0.0249221 0.0198804)
(1.08159 0.0298067 0.0321428)
(1.07466 -0.00656941 0.0318858)
(1.01408 -0.0404597 0.0251389)