/*--------------------------------*- C++ -*----------------------------------*\
  =========                 |
  \\      /  F ield         | OpenFOAM: The Open Source CFD Toolbox
   \\    /   O peration     | Website:  https://openfoam.org
    \\  /    A nd           | Version:  10
     \\/     M anipulation  |
\*---------------------------------------------------------------------------*/
FoamFile
{
    format      ascii;
    class       volScalarField;
    location    "8";
    object      nut;
}
// * * * * * * * * * * * * * * * * * * * * * * * * * * * * * * * * * * * * * //

dimensions      [0 2 -1 0 0 0 0];

internalField   nonuniform List<scalar> 
25600
(
0.000106367
9.53949e-05
4.41574e-06
5.52701e-05
0.000103047
3.06035e-05
6.91784e-06
3.64531e-05
6.10534e-05
3.59039e-05
2.35363e-05
3.00882e-05
0.000191276
0.000213809
3.86119e-05
2.08953e-05
7.24499e-05
3.24293e-05
1.13747e-05
2.158e-05
2.20669e-05
1.58837e-05
1.2975e-05
8.3842e-06
3.45172e-05
2.76582e-05
2.49683e-05
1.4373e-05
2.60319e-05
4.95243e-05
3.2906e-05
2.7341e-05
9.52474e-06
1.9445e-06
3.75424e-06
4.40534e-06
2.05624e-05
5.70365e-05
2.65359e-05
1.35531e-05
9.72895e-06
8.59051e-06
7.32061e-06
1.04374e-05
3.11371e-05
3.87922e-05
6.05122e-05
1.76567e-06
1.14299e-05
2.50238e-05
3.22162e-05
4.04852e-05
9.86411e-05
0.000145031
1.98573e-05
3.45485e-05
5.28328e-05
1.68073e-05
3.12078e-05
1.45339e-05
1.53986e-06
6.14528e-07
2.25695e-06
3.8636e-06
6.61318e-05
5.89172e-05
3.95122e-05
3.02162e-05
2.88084e-05
4.87826e-05
3.254e-05
2.567e-05
1.09434e-05
6.23595e-05
0.000115281
9.09296e-05
5.27026e-05
8.64028e-06
6.3576e-06
1.33677e-05
2.35226e-05
3.76353e-05
3.98955e-05
3.3859e-06
8.02496e-06
5.06593e-05
1.34654e-05
5.28706e-06
1.55005e-05
0.000118669
0.000151397
0.000132138
4.43552e-05
5.22328e-05
1.86028e-05
3.84536e-05
4.30713e-05
2.67958e-05
2.46332e-05
4.69009e-05
2.45675e-05
8.54146e-06
9.25977e-06
4.09641e-05
1.86352e-05
1.87909e-05
2.64356e-05
4.76187e-05
0.000100783
6.49843e-05
4.78667e-05
1.67338e-05
1.81559e-05
8.46067e-06
3.94493e-06
9.01937e-06
1.67117e-05
4.82346e-06
1.37656e-05
1.26418e-05
1.93342e-05
2.62404e-05
2.65107e-05
9.81132e-06
3.4764e-05
4.09602e-06
1.67346e-06
5.8369e-06
1.69632e-05
0.000141206
0.000201653
7.45758e-05
1.16137e-05
2.95122e-05
4.01158e-05
3.55543e-05
1.49893e-05
1.45714e-05
3.31837e-05
2.73996e-05
1.246e-05
1.5509e-05
1.32521e-05
2.38444e-05
2.47686e-05
1.53661e-05
4.29337e-05
0.000179054
4.29844e-05
5.23951e-06
1.36071e-05
1.89145e-05
1.41036e-05
7.07448e-06
1.72061e-05
3.346e-05
4.23932e-05
5.69046e-05
5.35494e-05
2.38319e-05
9.22452e-06
8.90535e-06
6.83007e-05
0.000142389
2.65199e-05
6.74318e-06
1.98769e-05
5.90777e-05
9.20249e-06
7.96024e-05
1.53463e-05
5.68071e-05
0.000199452
2.072e-05
4.73994e-05
3.4696e-05
2.88067e-05
0.000170424
0.000273926
0.000224133
0.000148115
7.09946e-05
1.64375e-05
6.8308e-05
0.000111987
0.000189363
0.000137161
6.20179e-05
3.5739e-05
3.43795e-05
2.13753e-05
1.55453e-05
2.57358e-05
4.93858e-05
8.18927e-05
5.86605e-05
2.53691e-05
1.32167e-05
8.23702e-06
1.2043e-05
4.28267e-05
0.000164459
5.38128e-05
8.50089e-05
4.08863e-05
2.71883e-06
3.36621e-06
1.7716e-05
2.20179e-05
2.57092e-05
7.66951e-05
0.000132953
2.55189e-05
1.86543e-05
1.26656e-05
6.10193e-06
1.15221e-05
7.34246e-05
0.000128361
5.23981e-05
6.97297e-05
0.000125141
8.548e-05
0.000127015
0.000209811
8.94943e-05
2.32006e-05
3.19429e-05
2.69058e-05
3.54653e-05
2.97966e-05
1.75793e-05
1.95297e-05
4.16638e-05
4.95551e-05
5.92472e-05
4.71797e-05
7.41918e-06
7.71908e-05
4.97743e-05
1.98831e-05
2.09479e-05
8.54084e-06
3.84798e-05
1.9725e-05
1.67633e-05
4.82526e-05
7.51738e-05
1.19089e-05
3.04205e-05
5.21476e-05
1.57273e-05
9.60576e-05
0.000144537
5.85064e-05
1.21911e-05
7.38826e-05
0.000156446
0.000112155
1.57173e-05
7.19665e-05
7.8619e-05
2.0739e-05
3.85899e-05
0.000124401
4.97857e-05
2.86109e-06
6.01095e-06
3.63323e-06
6.07197e-06
6.44976e-06
3.61285e-05
3.03352e-05
1.09484e-06
5.65473e-05
2.13625e-05
8.88797e-06
5.82745e-05
7.60232e-06
1.4172e-05
2.72697e-05
2.9219e-05
5.14679e-05
1.84815e-05
1.69245e-05
1.42419e-05
1.00176e-05
1.5314e-05
2.65019e-05
1.88293e-05
9.52495e-06
6.70846e-05
0.000170395
3.58479e-05
1.59038e-05
4.97583e-05
0.000133692
0.000154754
3.24376e-05
5.90828e-06
9.89308e-06
1.87075e-05
2.09005e-05
2.74132e-05
6.30908e-05
2.24856e-05
3.6416e-06
7.42877e-06
1.50128e-05
5.21898e-06
2.07857e-05
1.29375e-05
1.60065e-05
1.3625e-05
5.46794e-05
1.12737e-05
1.63227e-05
1.68018e-05
1.29432e-05
2.61781e-05
1.24172e-05
3.67272e-05
4.45119e-05
1.57965e-05
3.64722e-05
4.9091e-05
2.46013e-05
1.48412e-05
1.15235e-05
7.11797e-06
1.27103e-05
1.348e-05
1.29376e-05
3.34383e-05
6.37955e-05
4.08759e-05
0.000138982
1.54029e-05
2.29348e-06
1.90166e-06
6.45994e-06
1.71784e-05
3.76304e-05
6.16057e-05
7.41358e-05
4.76907e-05
3.51034e-05
2.69627e-05
2.55878e-05
6.3402e-05
1.46584e-05
7.99864e-06
2.82161e-05
2.17144e-05
2.48517e-05
3.46627e-05
3.06723e-05
2.45059e-05
3.29171e-05
2.78345e-05
8.30943e-05
0.000180541
0.000110763
3.10319e-05
1.80208e-05
3.15431e-06
1.10542e-05
2.00211e-06
5.36309e-06
1.86573e-05
1.51287e-05
1.43087e-06
2.01958e-05
0.000122857
5.98029e-05
3.37316e-05
4.03068e-05
1.05857e-05
1.28383e-05
2.39412e-06
1.97377e-05
1.34022e-05
2.37836e-05
1.67209e-05
2.26691e-05
1.51717e-05
1.02743e-05
1.89662e-05
4.25811e-05
0.000124389
1.27054e-05
3.22393e-05
2.70588e-05
1.29837e-05
3.4786e-05
2.28386e-05
8.39233e-06
1.33819e-05
2.13228e-05
3.82097e-05
0.000268169
0.000185141
9.32915e-05
1.82559e-05
4.02456e-05
5.5295e-05
1.63839e-05
3.96033e-06
3.38104e-05
0.000115085
7.68821e-05
1.57524e-05
6.54479e-05
0.000114625
7.58246e-05
1.7186e-05
3.07331e-06
9.98836e-06
3.55783e-05
3.75079e-05
5.35254e-06
9.81229e-06
2.99037e-05
5.46526e-05
0.000187991
0.00017621
3.78784e-06
3.56638e-05
0.000196233
9.54649e-05
2.70982e-05
2.83681e-05
1.63542e-05
2.36368e-05
2.32669e-05
2.11948e-06
1.12809e-05
2.10603e-05
2.07319e-05
8.09002e-05
0.000287971
0.000232478
1.31338e-05
1.69711e-05
4.68852e-05
6.4401e-05
0.000105662
8.14201e-06
3.67366e-05
0.000104842
2.36975e-05
2.62992e-05
1.98338e-05
2.88161e-05
1.50004e-05
1.12058e-05
8.6032e-06
1.44995e-05
4.09866e-06
1.27951e-05
8.44198e-06
1.04127e-05
8.6367e-06
4.46474e-05
0.000179565
0.000213709
1.90812e-05
2.70833e-05
7.63147e-05
7.00495e-05
4.08861e-05
1.86562e-05
1.47406e-05
2.26519e-05
1.11654e-05
1.55488e-05
3.58965e-05
2.10296e-05
2.89188e-05
0.000270917
0.00014744
4.9965e-05
2.47574e-05
1.68111e-05
3.64402e-05
6.11696e-05
0.000193354
2.66273e-06
1.65544e-05
1.68936e-05
2.25589e-05
3.45564e-05
1.73956e-05
5.42287e-06
1.98887e-05
3.77428e-05
6.74806e-06
2.31609e-05
1.68168e-05
6.70066e-06
1.48236e-05
2.04374e-05
1.23362e-05
1.67913e-05
5.22645e-05
0.0002298
0.000150392
1.97466e-05
3.88306e-05
0.000103828
7.64853e-05
1.13724e-05
1.92854e-05
2.14944e-05
1.15902e-05
1.69264e-05
2.34988e-05
1.56941e-05
0.000247569
0.000214579
3.09988e-05
3.46366e-05
8.42503e-05
2.35397e-05
1.26355e-05
0.000272267
0.000149945
1.24323e-05
5.47453e-05
3.37508e-05
8.27571e-05
0.000185024
2.06069e-05
1.06045e-06
1.26284e-05
1.6058e-05
5.29458e-06
4.71662e-06
2.55478e-05
4.41e-06
1.82781e-05
1.43147e-05
1.01853e-05
1.19674e-05
1.20897e-05
0.000183016
0.000143546
5.46981e-06
1.57689e-05
6.31287e-05
8.83041e-05
2.79033e-05
1.49846e-05
1.27699e-05
9.41502e-07
2.4791e-05
1.84883e-05
6.50386e-05
0.000184818
8.48377e-06
3.09436e-05
1.96298e-05
3.37068e-05
3.17255e-05
0.000166908
0.000112886
5.01165e-05
4.4177e-05
6.60951e-06
1.84999e-06
0.000140047
0.000216611
8.84601e-05
6.84688e-06
1.18958e-05
1.0657e-05
2.28005e-06
1.18597e-05
0.000112478
1.1802e-05
1.45835e-05
1.4407e-05
1.53157e-05
2.16783e-05
9.19131e-06
2.44774e-05
8.28278e-05
9.13777e-06
6.22478e-06
3.72667e-05
8.71985e-05
8.98434e-05
2.66686e-05
1.5995e-05
3.26154e-05
4.51273e-05
4.56757e-05
0.000227051
3.04554e-05
2.93078e-05
1.02242e-05
0.000216783
2.67327e-05
6.67665e-05
0.000352457
3.07036e-05
1.04668e-06
9.38963e-06
6.77656e-06
1.08748e-05
0.000144724
9.46464e-05
5.10236e-05
2.64288e-05
1.86281e-05
9.08259e-07
2.5339e-06
9.94615e-06
0.000110729
2.64759e-05
9.49572e-06
1.21134e-05
3.51955e-05
1.63777e-05
1.58745e-05
1.92684e-05
4.08709e-05
1.91302e-05
1.86456e-05
6.41136e-05
4.09273e-05
8.72809e-06
2.16851e-05
1.39421e-05
2.47602e-05
3.16028e-05
3.46272e-05
0.000274403
1.55817e-05
7.05815e-06
7.48271e-05
8.95144e-05
4.91177e-05
0.00027682
0.00041144
7.93594e-05
5.71637e-06
3.29062e-06
1.53898e-05
9.82871e-06
5.28207e-05
1.39765e-05
2.8287e-05
1.11468e-05
7.2967e-05
1.56507e-05
3.32107e-06
4.01232e-06
8.91738e-06
8.50446e-06
1.69431e-05
1.60047e-05
4.30748e-05
3.30479e-05
7.94152e-06
2.6343e-05
2.10268e-05
2.42238e-05
2.86793e-05
6.41775e-05
2.6074e-05
1.04769e-05
3.04767e-05
9.07432e-06
3.14225e-05
7.28544e-06
3.42729e-05
0.000321857
8.07116e-06
1.72734e-06
2.72789e-05
6.01399e-05
4.59108e-05
0.00014969
0.000102309
1.19611e-05
1.95637e-05
3.81817e-06
3.08282e-05
5.1241e-05
4.55303e-05
7.16304e-06
3.11875e-05
5.96232e-05
0.0001403
6.21982e-06
6.28063e-05
2.5615e-05
6.25968e-06
7.13712e-06
1.39663e-05
3.77055e-05
6.0188e-05
1.65922e-05
9.50376e-05
2.76753e-05
2.77713e-05
1.68545e-05
1.25222e-05
2.89911e-05
2.86477e-05
3.78067e-05
2.03251e-05
2.21713e-05
9.9901e-06
1.11087e-05
4.72822e-05
0.000292442
4.70352e-06
1.29302e-05
8.17053e-06
4.83827e-05
1.81122e-05
1.46798e-06
6.86651e-05
1.10017e-05
7.33333e-06
3.41993e-06
4.31554e-05
1.87842e-05
4.50085e-05
2.46433e-05
3.59955e-05
7.01671e-05
8.47321e-05
2.92184e-06
3.86598e-05
4.2862e-05
2.48125e-05
5.87448e-06
5.63946e-06
3.99576e-05
2.75946e-05
1.5867e-05
2.0338e-05
2.36356e-05
2.51295e-05
1.47114e-05
1.35929e-05
3.08545e-05
1.61957e-05
2.35327e-05
1.02171e-05
3.64048e-05
1.4386e-05
1.13352e-05
0.00010109
0.000136212
1.16503e-05
1.51007e-05
1.95837e-05
9.64705e-06
2.76004e-06
2.60078e-05
0.000187416
5.73897e-05
5.42008e-06
3.46658e-05
0.000101562
1.01747e-06
1.0903e-05
7.48095e-06
1.36145e-05
0.000236821
4.76398e-06
5.32889e-06
0.000154957
5.81577e-06
1.17181e-05
6.69762e-06
1.17101e-05
1.56256e-05
7.84613e-06
1.31722e-05
1.29311e-05
2.8728e-05
1.71289e-05
5.99534e-06
2.8358e-05
1.22571e-05
1.22398e-05
2.46099e-05
1.19749e-05
3.84564e-05
4.26133e-05
2.27544e-05
0.000101644
1.41168e-05
3.19657e-05
8.35469e-06
4.28399e-05
5.40117e-06
1.42457e-06
0.000217964
0.000301676
5.75427e-05
5.80146e-05
7.92362e-05
0.00013033
2.41192e-06
4.13651e-06
2.47922e-05
7.79546e-06
4.01957e-05
5.99184e-06
7.18244e-06
3.07652e-05
7.75937e-06
4.89208e-06
1.28866e-05
1.55906e-05
2.26218e-05
1.50073e-05
1.47193e-05
1.83142e-05
0.000156632
1.82874e-05
9.3244e-06
2.07115e-05
2.79327e-05
2.30098e-05
3.01856e-05
1.4213e-05
5.74305e-05
1.35825e-05
1.17696e-05
4.06556e-06
6.2626e-06
9.15221e-06
1.36114e-06
6.89015e-06
1.0648e-05
5.17467e-07
0.000160635
9.49212e-06
4.60721e-05
6.96659e-05
8.947e-05
0.000127413
3.88971e-05
3.74254e-05
1.27824e-05
4.72423e-06
5.13304e-06
1.68603e-06
8.08528e-06
2.71508e-07
8.74163e-07
3.69917e-06
4.08425e-05
0.000291819
3.49418e-05
2.83359e-05
2.48738e-05
1.94869e-05
0.00021862
2.77541e-05
1.54531e-05
7.23221e-06
2.49734e-05
4.2874e-05
0.000142871
6.80874e-07
1.15702e-05
2.2251e-06
2.69721e-05
2.47824e-06
2.01326e-06
8.18297e-06
5.29291e-07
7.02059e-06
1.62105e-05
2.12674e-06
1.06586e-05
3.18956e-06
1.71045e-05
8.51528e-07
3.90546e-05
3.21248e-05
1.10321e-06
8.17326e-05
5.60066e-06
3.56947e-06
2.97421e-06
1.71233e-06
1.95801e-05
1.09035e-06
5.7521e-07
3.10563e-05
5.92744e-05
0.000311127
0.00013661
6.67239e-06
3.47696e-05
5.79549e-06
9.45185e-05
0.000170571
3.63516e-05
3.36141e-06
2.73925e-06
3.28048e-06
0.000103971
1.96453e-05
2.57975e-06
3.54093e-07
4.27046e-05
1.31409e-05
3.16967e-06
1.01513e-05
4.03423e-06
5.23054e-06
7.50823e-06
2.19673e-07
5.98392e-06
1.11495e-06
1.00772e-05
1.06808e-06
5.8927e-05
2.74368e-05
2.30843e-06
2.24208e-05
4.36907e-07
7.46069e-06
9.12627e-06
4.3168e-06
5.88042e-05
3.84709e-06
1.11848e-06
6.27673e-06
0.000122098
0.000397698
5.53569e-05
6.08985e-05
3.33546e-06
5.87118e-05
3.13413e-05
2.28691e-05
2.42888e-05
7.6963e-06
1.39651e-05
1.56801e-06
9.78031e-06
2.94505e-06
2.64003e-06
1.7219e-06
9.86244e-06
2.12156e-05
5.781e-06
2.18621e-05
3.07718e-07
4.44986e-06
3.00058e-06
9.35313e-06
1.09086e-05
9.62084e-07
6.09623e-06
1.46582e-05
1.88741e-05
0.000132699
3.76349e-06
1.87847e-07
5.16142e-07
0.000146106
3.09543e-05
5.08705e-06
0.000152253
1.72406e-05
1.97215e-05
2.6309e-06
0.000143246
0.000287646
7.12934e-05
5.26344e-06
9.27641e-07
1.06409e-05
1.16233e-05
6.69624e-06
3.07999e-05
4.81107e-05
2.8721e-05
3.91116e-06
1.34934e-06
3.54444e-06
1.45001e-06
5.39076e-05
0.0001052
1.66575e-05
4.52008e-06
7.70888e-08
4.75578e-07
8.13902e-06
1.06761e-05
1.03516e-05
4.42804e-05
7.62164e-07
1.86256e-06
3.04989e-06
5.97008e-05
1.13534e-05
5.34244e-07
2.03751e-07
9.98362e-06
7.90922e-05
1.7278e-05
1.69873e-06
0.000145092
3.97858e-05
1.96291e-05
3.56876e-06
0.000173622
2.14972e-05
4.71717e-06
1.27813e-06
2.93782e-06
9.90378e-06
3.71336e-05
4.0482e-06
4.05089e-05
7.46547e-05
4.08198e-05
2.12411e-05
2.93387e-05
4.74855e-06
1.59504e-07
1.88296e-05
8.10535e-05
6.99791e-07
2.70694e-06
6.60635e-08
1.36699e-06
3.78869e-06
5.45406e-06
3.28642e-06
6.68355e-05
3.39694e-06
2.15157e-06
9.1352e-06
4.85368e-05
3.27861e-07
3.25858e-07
8.77282e-08
3.91709e-05
0.000117768
1.12817e-06
6.44269e-05
0.000148707
8.76971e-06
1.1941e-05
2.07252e-05
2.11023e-05
6.13844e-06
5.25122e-07
2.18608e-06
5.19201e-05
2.06796e-05
1.07393e-05
5.09608e-07
5.67631e-05
1.80348e-05
4.11547e-05
1.75377e-05
9.01849e-07
2.01614e-06
1.63615e-07
2.34881e-05
2.85602e-05
7.89544e-05
6.05283e-07
3.09613e-07
4.71277e-06
1.2596e-07
1.41629e-06
2.46769e-06
3.80269e-05
2.38361e-06
1.82952e-06
1.02683e-05
5.93661e-06
6.60439e-09
9.13772e-09
9.90964e-06
8.54514e-05
9.27931e-07
8.40203e-07
3.29555e-05
5.78036e-06
2.58706e-07
3.12796e-05
2.95469e-06
1.55292e-07
1.1777e-06
2.34789e-06
2.26022e-05
3.06629e-06
7.25412e-06
4.81781e-06
8.86055e-06
2.40796e-06
1.38977e-05
1.38406e-05
2.63292e-07
6.87453e-08
7.40693e-07
4.44698e-06
4.56733e-05
4.73923e-05
9.81851e-07
4.15341e-07
9.67307e-07
2.63401e-06
7.53491e-08
5.48765e-07
4.41897e-06
1.44039e-05
4.2682e-07
8.6278e-07
3.88959e-06
7.60608e-07
2.2995e-09
1.24555e-06
1.17002e-05
2.64094e-06
1.2954e-07
7.69974e-05
3.95854e-05
4.08818e-08
1.73372e-07
3.00712e-07
5.6314e-08
1.21814e-07
1.45049e-07
3.80986e-06
3.42424e-05
6.70063e-06
5.95572e-07
1.51361e-06
1.0729e-08
1.68035e-05
2.73391e-06
2.50607e-06
1.76286e-06
9.66108e-08
6.06079e-07
8.32669e-07
4.24247e-07
6.79624e-07
3.63684e-08
5.8656e-07
5.21199e-07
9.56963e-08
6.85951e-08
3.97586e-07
3.91635e-06
3.85963e-06
3.65968e-08
3.60444e-07
1.00903e-06
2.11242e-07
2.33416e-07
1.1216e-06
1.13765e-06
5.1999e-07
9.71817e-07
1.06402e-06
1.11328e-07
6.04301e-08
1.97441e-09
2.54353e-08
1.57053e-09
1.33074e-07
6.5934e-08
8.21898e-07
8.34263e-06
1.04701e-06
1.02761e-07
7.00193e-08
2.84314e-06
5.44996e-08
1.61378e-06
2.48517e-07
2.92294e-06
4.09237e-08
7.04291e-07
1.82282e-07
1.96128e-06
1.44355e-07
1.57504e-07
6.77333e-07
2.37912e-08
1.73013e-09
3.08266e-08
2.04328e-07
1.64178e-06
7.40149e-07
2.07498e-09
1.50654e-07
3.63727e-07
2.45829e-07
3.22018e-07
2.72493e-07
2.736e-07
3.11014e-07
3.30925e-08
7.77326e-08
5.32365e-08
7.53057e-10
3.05438e-09
4.44847e-10
1.78939e-08
5.3259e-08
2.31001e-08
1.45441e-07
4.46771e-07
1.84215e-08
2.54574e-08
4.98718e-08
3.59587e-08
1.5939e-07
1.3829e-06
3.7583e-08
1.04781e-06
5.6737e-08
6.86926e-08
4.79606e-07
6.99345e-07
7.9712e-09
3.94959e-07
2.56851e-07
5.51686e-09
1.58381e-09
1.63353e-09
2.78307e-08
1.59866e-07
1.52439e-07
7.34043e-11
9.70924e-09
5.03406e-08
1.00334e-07
4.67437e-08
3.03884e-08
3.72937e-08
1.89652e-08
3.23987e-10
3.3423e-09
2.83971e-09
1.20725e-10
3.90522e-10
1.12223e-11
4.21284e-09
7.89093e-09
9.13113e-10
5.7756e-09
7.66468e-09
6.84377e-11
4.87817e-09
9.20537e-09
2.72089e-09
8.78374e-08
6.08981e-07
1.98672e-09
1.90747e-07
1.65295e-09
1.61759e-09
1.38306e-07
1.60421e-07
1.72774e-09
9.52671e-08
7.28966e-08
1.18866e-09
3.04138e-10
9.58695e-06
1.42528e-05
1.43733e-05
1.83251e-05
1.16727e-05
1.21659e-05
1.99913e-05
3.81323e-05
4.89814e-05
1.87646e-05
2.26044e-05
0.000169743
0.000292914
0.0001756
2.09598e-05
3.99272e-05
0.000115012
1.10005e-05
5.55723e-06
1.84922e-05
3.37325e-05
4.37172e-05
3.41684e-05
1.6014e-05
1.52812e-05
6.0556e-05
2.05339e-05
1.4529e-05
1.59312e-05
1.75316e-05
3.13995e-05
6.92765e-05
3.49035e-06
1.02185e-05
1.03424e-05
9.20643e-06
2.56263e-05
9.57949e-06
1.42173e-05
4.61941e-06
4.05819e-05
2.21326e-05
1.77745e-05
8.91524e-06
1.13627e-05
3.67822e-05
3.75771e-06
8.72121e-06
5.11606e-06
4.81848e-05
7.30045e-05
0.000131957
0.000232468
0.000186571
5.82931e-05
5.37781e-05
7.07145e-05
2.22625e-05
4.24446e-05
4.42616e-05
3.37836e-05
2.87844e-05
1.96089e-05
8.60159e-05
0.00013157
4.4688e-05
1.93376e-05
2.10896e-05
3.83085e-05
1.86425e-05
2.38687e-05
1.95109e-05
9.49483e-06
0.000110855
0.00011996
2.59331e-05
1.42813e-05
1.79176e-05
1.60272e-05
2.33662e-05
4.86136e-05
3.08237e-05
2.5449e-05
3.79577e-06
2.46414e-05
4.75514e-05
8.85843e-06
1.3461e-05
0.000137817
0.000117281
0.000127521
0.000107543
3.32301e-05
2.47659e-05
3.79478e-05
3.10317e-05
2.5066e-05
2.98188e-05
2.00266e-05
1.54725e-05
1.41487e-05
3.98039e-05
7.4631e-05
3.61614e-05
5.55809e-05
6.38475e-05
9.45478e-05
0.000127301
3.76763e-06
2.05145e-05
1.71812e-05
1.84242e-05
7.33751e-05
4.83896e-05
2.72922e-05
5.96199e-05
5.17792e-05
2.51793e-05
1.59121e-05
5.85971e-05
1.62407e-05
2.36806e-05
2.91537e-05
1.15714e-06
2.2821e-05
1.74839e-05
1.28875e-05
0.000102962
2.7359e-05
3.82607e-05
3.48445e-05
8.29724e-06
9.32448e-06
2.63457e-05
3.13783e-05
5.33992e-05
5.10014e-05
2.84759e-05
4.387e-05
3.90835e-05
1.7532e-05
1.24125e-05
2.00331e-05
2.88062e-05
3.42428e-05
2.93791e-05
2.02236e-05
2.71699e-05
2.09169e-05
8.46068e-06
0.000121171
4.19937e-05
1.1484e-05
1.5562e-05
4.15406e-05
2.3572e-05
7.66565e-05
0.000124815
0.000123882
4.00244e-05
6.69613e-06
4.96583e-06
2.9443e-07
9.16559e-05
9.47712e-06
1.96254e-05
4.89706e-05
3.58507e-05
1.65006e-05
3.05356e-05
1.78728e-05
3.38762e-05
2.00405e-05
7.09065e-05
7.12851e-05
5.20405e-05
2.3204e-05
0.000162919
0.000216183
7.54334e-05
9.72034e-05
8.8264e-05
0.000126227
8.38938e-05
3.12221e-05
4.98977e-05
2.0187e-05
9.99408e-06
3.66206e-05
0.000130909
0.000187376
0.000126194
4.9808e-05
1.73385e-05
2.20045e-05
5.98725e-05
2.30842e-05
2.5993e-05
3.71758e-05
1.19674e-05
8.9123e-06
1.59667e-05
5.61182e-05
1.71258e-05
1.19522e-05
1.24106e-05
3.96361e-06
3.23418e-05
4.11847e-05
4.26007e-05
2.38358e-05
2.46295e-05
2.64464e-05
2.66227e-05
2.67636e-05
8.30145e-06
1.60278e-05
0.000168504
6.57961e-05
4.11583e-05
6.02396e-05
4.39078e-05
1.88125e-06
9.37071e-05
8.1727e-05
8.81026e-05
1.21374e-05
1.09269e-05
1.7224e-05
1.88073e-05
8.18537e-06
5.64073e-06
2.10125e-05
1.83519e-05
0.000128855
0.00017115
7.13596e-05
8.23266e-05
3.01102e-05
2.17143e-05
2.02098e-05
7.65533e-06
6.82227e-05
2.40137e-05
1.80982e-05
2.69562e-05
3.42149e-05
7.84331e-05
5.00366e-05
2.61851e-05
3.29608e-05
5.51546e-05
9.32274e-05
1.89203e-05
1.70427e-05
2.61307e-06
2.40918e-05
0.000192947
0.000178577
1.21622e-05
9.54674e-06
5.76487e-05
3.39267e-05
2.90085e-05
2.97099e-05
1.10229e-05
1.83223e-05
1.53259e-05
1.01324e-05
2.47334e-05
1.81416e-05
6.59802e-06
2.48481e-06
1.94715e-05
8.06566e-05
4.35377e-05
8.15618e-06
5.11605e-05
3.47936e-05
1.4348e-05
1.29448e-05
2.91773e-05
0.000184884
6.29346e-05
4.19833e-05
2.17057e-05
2.15912e-05
1.01487e-05
2.87793e-06
1.51676e-05
1.10627e-05
1.48903e-05
2.98852e-05
1.53424e-05
6.34147e-06
1.38804e-05
0.000157719
0.000177241
2.84109e-05
9.91649e-06
1.16864e-05
5.93559e-06
2.94038e-06
1.33872e-05
1.46719e-05
1.81737e-05
6.4044e-06
1.86499e-05
2.96057e-05
1.16099e-05
1.45736e-05
1.92266e-05
3.55865e-05
4.0808e-05
5.17111e-05
4.56422e-05
5.87549e-06
2.39084e-05
2.49581e-05
2.28893e-05
6.7731e-06
4.38321e-06
2.27636e-05
1.51926e-05
2.68355e-05
2.76796e-05
3.01583e-05
1.41974e-05
4.79447e-06
8.54424e-06
7.69557e-06
4.54504e-06
9.22756e-06
1.08666e-05
8.07131e-06
1.89224e-05
2.29108e-05
1.47573e-05
4.53473e-05
1.80082e-05
1.66314e-05
2.32317e-05
8.79228e-06
4.29777e-06
1.50352e-05
2.91248e-06
5.30586e-06
1.734e-05
1.8818e-05
1.16373e-05
1.48561e-05
4.10001e-05
2.08142e-05
4.36249e-05
7.89984e-05
1.41684e-06
2.51581e-05
2.56294e-05
1.11825e-05
3.05322e-05
1.40878e-05
2.42418e-05
1.30791e-05
1.68925e-05
1.87584e-05
3.15978e-05
2.99965e-05
5.98316e-06
9.26778e-05
8.9295e-05
1.28777e-05
1.30253e-05
3.3636e-05
0.00017071
6.645e-05
2.32543e-05
2.59952e-05
1.82678e-05
5.00223e-05
6.80656e-05
7.66471e-06
1.24912e-06
4.4521e-06
1.78098e-05
3.33866e-05
2.04897e-05
2.38032e-05
3.28048e-05
3.38456e-05
2.40923e-05
3.40798e-05
8.34949e-06
7.84199e-05
0.00012185
3.06463e-05
3.02458e-05
8.85505e-06
2.97145e-05
2.7006e-05
8.96439e-06
0.00011024
5.86778e-05
1.53526e-05
1.88889e-05
2.5347e-05
2.72578e-05
4.72451e-05
3.91849e-05
3.86852e-05
3.45338e-05
4.71679e-05
1.77274e-05
8.32637e-05
7.38183e-05
2.17164e-05
5.29675e-06
1.54852e-05
5.7682e-06
7.30484e-06
3.24006e-05
1.29631e-06
2.13961e-05
8.5058e-06
3.82727e-07
4.952e-05
2.82173e-05
1.13466e-05
5.87908e-05
6.46574e-05
2.88085e-05
3.72095e-05
3.1143e-05
0.000211062
2.37865e-05
1.53102e-05
5.12814e-06
1.25695e-05
2.91582e-05
1.7545e-05
1.29928e-05
0.000125534
7.91015e-05
6.77049e-06
2.07361e-05
3.24148e-05
2.58908e-05
1.34812e-05
1.23445e-05
1.80579e-05
1.54781e-05
1.48001e-05
1.01142e-05
2.02448e-05
9.75681e-06
2.84974e-06
1.3669e-05
4.91076e-06
1.22951e-05
3.5606e-05
9.40544e-06
1.3301e-05
1.47095e-05
1.46491e-05
1.81573e-05
0.00013094
0.000270041
3.99743e-05
3.65606e-05
8.84719e-05
0.000104647
3.52461e-05
3.23778e-05
0.000133814
1.39744e-05
1.85702e-06
1.45418e-05
1.71039e-05
1.45589e-05
1.55052e-05
9.0969e-05
5.22695e-05
3.68728e-05
6.44283e-05
2.66791e-05
6.19395e-05
8.90427e-05
3.37322e-05
2.58825e-05
1.50347e-05
1.82151e-05
2.17986e-05
1.65797e-05
1.15828e-05
1.47945e-05
3.55349e-06
7.38713e-06
7.50317e-06
3.2414e-05
9.45223e-05
4.36432e-05
1.02819e-05
1.51748e-05
1.87258e-05
2.64347e-05
0.000166963
0.000101736
2.11707e-05
1.18827e-05
0.000116526
0.000106898
4.06417e-05
1.79541e-05
2.56262e-05
7.84441e-06
1.26075e-06
1.30169e-05
2.01601e-05
9.16831e-06
0.00015777
4.82934e-05
2.48779e-05
4.31419e-05
6.10318e-05
4.51341e-05
7.66619e-05
0.000165064
4.74134e-05
3.89215e-05
1.28571e-05
1.8186e-05
1.62422e-05
1.79237e-05
1.27028e-05
2.58448e-05
3.20884e-05
1.50724e-05
6.15594e-06
1.85495e-05
0.00010315
2.06214e-05
1.48176e-05
1.41384e-05
2.35538e-05
3.54271e-05
0.000128101
4.08748e-05
2.5429e-05
1.11733e-05
5.18068e-05
6.90602e-05
2.0453e-05
3.48959e-05
4.00432e-05
2.40213e-05
1.51971e-05
9.08758e-06
2.41551e-05
2.49924e-05
7.91476e-05
6.09162e-05
2.85378e-05
2.64481e-05
4.30701e-05
4.58828e-05
9.87474e-05
4.71123e-05
4.39512e-05
3.97526e-05
1.5356e-05
2.57295e-05
6.1988e-06
2.05763e-05
1.0017e-05
3.11616e-05
1.45253e-05
6.22105e-06
2.42435e-05
5.06151e-05
5.0776e-05
1.67642e-05
9.18955e-06
1.19595e-05
1.71631e-05
6.7312e-05
0.00010074
7.89454e-05
1.63675e-05
1.9338e-05
1.84433e-05
4.3389e-05
2.02962e-06
0.000110678
5.42981e-05
3.30291e-05
9.44469e-06
2.13517e-05
3.68438e-05
6.75211e-05
0.000148046
5.49999e-06
1.05699e-05
4.65229e-05
3.07955e-05
4.81463e-05
0.000130133
7.59235e-06
3.07715e-05
3.37992e-05
1.04955e-05
2.47824e-05
2.68267e-05
1.59731e-05
1.26241e-05
2.46894e-05
1.01356e-06
2.6726e-07
3.25187e-05
1.60104e-05
2.17292e-05
1.35663e-05
1.36047e-05
1.81079e-05
1.6165e-05
4.66899e-05
6.49979e-05
3.68384e-05
2.23606e-05
2.38313e-05
2.58635e-05
3.01801e-05
1.62346e-05
0.000198319
7.29516e-05
1.96624e-05
2.00779e-05
1.65917e-05
6.21797e-05
0.000219695
0.000141351
5.42036e-05
2.93753e-05
1.45705e-05
5.11951e-05
3.6407e-05
5.07787e-05
2.00471e-05
3.61965e-05
3.47357e-05
3.27669e-05
2.24097e-05
1.75355e-05
7.808e-06
1.97737e-05
1.6463e-05
4.90468e-06
5.0533e-07
2.2883e-05
6.54294e-06
1.38315e-05
1.84559e-05
1.57008e-05
6.85499e-06
1.11588e-05
2.09874e-05
6.02826e-05
9.1421e-06
2.26073e-05
2.38658e-05
2.8864e-05
2.43382e-05
5.79384e-05
0.00015227
8.22881e-06
3.9809e-06
2.5078e-05
1.54004e-05
0.000111147
0.000253402
9.21883e-05
1.38286e-05
6.58982e-06
2.37226e-05
4.96718e-05
2.2937e-05
3.37927e-05
3.61228e-05
1.37774e-05
1.17667e-06
1.17117e-05
1.10223e-05
7.04932e-06
1.1474e-05
2.1285e-05
2.08194e-05
3.0176e-05
7.80271e-06
3.4279e-05
2.48536e-05
2.00079e-05
1.55317e-05
7.99002e-06
4.84575e-06
9.57593e-06
2.12072e-05
0.000101818
1.05277e-05
9.33479e-06
1.66918e-05
2.26168e-05
1.50071e-05
5.74594e-05
5.47384e-05
1.30007e-05
4.37493e-05
1.9418e-05
3.19399e-05
0.00016539
0.000197212
8.90034e-05
5.21196e-05
1.2392e-05
5.35268e-05
1.66431e-05
1.61275e-05
0.000175057
1.23556e-05
2.71459e-05
6.78307e-07
5.85528e-06
5.05615e-06
2.55033e-06
8.1707e-06
5.65024e-05
1.02145e-05
1.67841e-05
4.30346e-06
2.5012e-06
2.23286e-06
4.88419e-06
1.58048e-05
1.09267e-05
1.48839e-06
2.37573e-06
3.23122e-05
0.000127271
3.03233e-05
2.73872e-05
2.16876e-05
1.83884e-05
1.07998e-05
4.52657e-05
1.8556e-05
4.98597e-06
6.08832e-05
2.3789e-06
3.95532e-06
0.000168128
0.000110849
5.57935e-05
5.81342e-05
3.37622e-05
3.12236e-05
7.9131e-05
6.14775e-06
0.00039132
4.88681e-05
2.58652e-05
3.22724e-05
1.5718e-05
3.93791e-06
5.07686e-06
0.000106311
0.00011179
8.17428e-05
9.29685e-06
1.41809e-05
1.34131e-07
1.2248e-06
1.09809e-05
3.25501e-06
1.97006e-05
0.0001159
7.82461e-06
7.37464e-05
0.000191102
4.3703e-06
2.7567e-05
2.40581e-05
9.61745e-06
7.98163e-06
6.21211e-05
3.41624e-05
4.49981e-06
4.18587e-05
1.2985e-05
1.50918e-06
9.02945e-05
1.68885e-05
4.72296e-05
3.04404e-05
1.76013e-05
3.16365e-05
0.000157134
1.23562e-05
0.000367486
2.19399e-05
1.4914e-05
1.53998e-05
3.84901e-05
1.85251e-05
2.25665e-05
4.48766e-05
0.000116995
4.63696e-06
5.4485e-06
8.6294e-06
2.58479e-06
1.03769e-06
1.06606e-05
1.56937e-05
1.37034e-05
5.77382e-05
2.48858e-05
0.000114488
6.74275e-05
8.29081e-06
2.94837e-05
2.14797e-05
1.11174e-05
2.80464e-05
1.77705e-05
4.85298e-05
1.34831e-05
2.67421e-05
1.03097e-05
1.4727e-05
1.00055e-05
1.23896e-05
2.12927e-05
4.10408e-05
9.97405e-06
0.000160948
6.0576e-05
1.25394e-05
0.000127751
3.6612e-06
1.04583e-05
7.48238e-05
1.24044e-06
0.000115713
1.74417e-05
1.31414e-05
1.83427e-06
1.79913e-06
1.17814e-06
4.8662e-06
2.17634e-06
1.17076e-06
9.85752e-05
6.55274e-05
7.8471e-06
1.58522e-05
3.45894e-05
8.44049e-05
1.08028e-05
5.73692e-06
3.56934e-05
8.2676e-05
1.01534e-05
1.40662e-05
1.58189e-05
2.94211e-05
7.6908e-06
4.701e-06
1.81141e-05
9.14639e-06
1.2637e-05
5.59912e-06
2.03823e-06
9.81188e-06
1.30929e-06
0.000204331
2.93893e-05
7.82403e-06
3.54162e-05
4.50163e-06
0.000139354
1.01256e-05
2.23133e-05
3.65448e-05
5.46305e-06
7.66555e-06
6.13513e-08
1.23779e-06
4.6597e-06
9.6786e-06
4.41967e-06
3.56217e-05
0.000125942
2.18564e-05
5.83117e-06
4.99801e-05
2.98256e-05
6.22358e-06
3.53755e-06
1.06473e-05
9.22846e-06
8.25185e-05
6.34645e-06
4.07343e-05
2.18606e-05
6.69211e-06
6.61225e-06
3.09513e-06
3.5197e-05
2.15547e-06
3.44089e-05
8.69753e-06
2.31562e-07
2.18401e-07
1.4981e-07
0.000152772
4.45054e-06
1.24039e-05
2.01133e-05
3.98285e-05
0.000196913
1.20089e-05
9.29472e-06
3.69438e-05
1.44814e-05
8.0171e-06
8.9438e-06
1.59206e-05
1.3958e-05
1.65842e-05
9.24833e-06
6.6213e-05
5.53325e-05
4.91126e-06
8.71122e-06
4.60546e-05
4.58257e-05
3.6617e-06
3.37532e-07
2.06365e-06
1.73757e-05
2.29279e-05
2.27464e-05
6.42986e-05
3.88082e-05
2.52906e-05
1.8102e-05
4.57067e-06
1.05952e-05
1.84771e-05
2.00437e-05
4.59563e-07
5.4531e-08
1.80034e-07
1.4746e-05
3.57812e-05
4.57186e-07
3.23253e-05
4.23064e-05
3.2676e-05
0.00017546
1.66717e-05
1.45787e-05
3.55616e-05
6.09799e-05
6.00913e-05
3.03877e-05
4.79507e-05
1.03354e-05
2.80888e-06
5.8137e-06
7.29013e-05
1.49688e-05
1.27697e-05
1.59243e-05
4.36062e-05
2.45815e-06
1.74005e-07
4.91057e-07
3.69464e-05
7.0287e-06
1.2044e-05
2.01003e-05
7.78378e-06
7.45705e-06
3.62941e-06
2.02034e-05
2.00146e-05
2.88484e-05
4.64008e-06
2.28307e-06
3.79059e-08
2.49242e-08
5.29275e-07
5.8713e-05
1.71321e-05
3.33784e-06
2.11291e-05
2.6137e-05
4.77805e-05
0.000154119
3.45231e-06
8.49026e-06
4.33599e-05
8.38293e-05
2.34528e-05
3.19954e-05
3.02185e-06
1.45758e-05
2.70339e-06
6.43975e-06
2.70428e-05
2.77403e-06
1.9424e-05
1.94933e-05
2.14865e-05
1.59116e-06
8.14393e-06
8.25135e-06
5.31901e-05
6.54119e-06
1.60705e-05
2.89786e-05
8.2712e-06
8.13975e-05
5.16505e-05
2.47557e-06
4.34067e-06
0.000133867
1.65495e-06
5.84238e-07
3.74221e-08
1.86088e-10
9.96304e-08
5.46926e-05
2.19711e-05
1.26804e-05
2.67449e-05
2.64371e-05
0.000120297
3.44712e-06
8.84611e-07
4.39326e-06
7.65124e-05
7.28466e-05
4.32343e-05
1.31645e-05
7.66236e-07
1.71492e-05
1.18291e-05
1.10481e-05
1.18704e-06
9.53436e-06
9.96025e-05
1.88547e-05
3.60249e-06
4.68908e-07
6.04034e-06
0.000143848
3.09615e-05
1.04603e-05
4.04031e-05
0.000143743
2.99581e-06
2.48e-06
2.76817e-06
1.58882e-05
2.44397e-05
2.17491e-06
2.86173e-06
1.34199e-06
3.53733e-07
3.43913e-05
1.84354e-05
2.92653e-05
8.01029e-06
5.01205e-06
1.7901e-05
4.82985e-05
4.57018e-05
1.09281e-07
3.19881e-07
4.00118e-06
9.79674e-05
0.000118165
5.16383e-06
3.15028e-07
2.07814e-06
1.00407e-06
1.58479e-05
1.32753e-06
1.37538e-06
9.55161e-05
5.044e-05
1.39209e-06
7.46555e-07
2.11054e-07
2.73642e-07
0.000102366
3.96876e-06
1.27697e-05
5.56792e-06
0.000256562
1.66627e-06
4.91408e-07
4.89345e-07
4.6402e-06
5.89698e-06
2.21037e-06
1.21833e-05
1.14718e-05
5.1111e-05
5.81168e-05
2.44404e-05
3.65182e-06
9.06149e-07
2.34813e-07
1.25525e-06
1.05438e-05
2.24514e-06
2.68022e-08
1.82379e-07
1.03768e-05
3.06749e-05
1.42782e-07
4.08026e-08
5.07184e-07
1.36171e-06
3.02114e-05
2.56903e-06
2.20551e-07
1.0926e-06
7.86864e-06
1.47726e-06
1.13614e-07
4.89146e-07
3.06106e-08
5.59799e-06
1.30267e-05
3.31386e-09
1.74832e-05
0.00011414
8.65904e-07
2.69318e-07
3.68141e-07
4.93261e-06
5.60047e-05
6.97223e-08
1.57576e-06
6.68042e-06
9.75223e-06
2.93028e-05
7.89492e-06
2.74681e-06
4.35857e-07
8.93424e-08
9.59537e-08
8.88846e-08
1.44917e-06
1.19878e-07
5.58548e-08
1.66678e-08
3.46509e-06
2.36138e-07
6.53179e-10
7.80223e-08
9.76002e-08
3.7818e-07
1.16044e-06
3.12727e-07
5.75044e-08
1.43996e-08
3.12765e-07
1.60997e-08
1.47047e-07
4.51642e-07
4.03324e-09
1.53664e-06
1.54629e-07
2.24407e-07
6.72965e-06
7.22816e-06