/*--------------------------------*- C++ -*----------------------------------*\
  =========                 |
  \\      /  F ield         | OpenFOAM: The Open Source CFD Toolbox
   \\    /   O peration     | Website:  https://openfoam.org
    \\  /    A nd           | Version:  10
     \\/     M anipulation  |
\*---------------------------------------------------------------------------*/
FoamFile
{
    format      ascii;
    class       volTensorField;
    location    "50";
    object      gradientUWrite;
}
// * * * * * * * * * * * * * * * * * * * * * * * * * * * * * * * * * * * * * //

dimensions      [0 0 -1 0 0 0 0];

internalField   nonuniform List<tensor> 
25600
(
(1.16059 -0.0136312 0.0577228 118.242 -2.80257 92.9799 1.34154 0.0953911 3.27461)
(0.236434 -0.0104089 -0.265966 161.844 -1.04919 78.7397 0.0704177 0.0679194 1.57977)
(-0.671165 0.00762374 -0.11723 119.715 0.788239 74.8752 -0.306285 0.0327261 0.378165)
(0.165788 0.0106854 0.0108884 114.441 0.180595 72.9155 -0.0710822 0.068129 0.525162)
(0.10382 0.00574099 -0.0486312 136.129 0.987471 75.5527 -0.0837688 0.051442 -0.0804049)
(-0.248305 -0.00736788 0.0208187 126.241 0.77464 69.4933 0.987514 0.0282883 0.331011)
(0.238757 0.00204844 0.242262 124.176 -0.901872 78.2679 1.44389 0.094375 1.8562)
(-0.13587 0.0109581 -0.0998576 135.805 0.773624 80.5152 0.214647 0.0913636 1.20213)
(-0.203496 -0.00593616 -0.319464 106.148 1.29467 70.5115 0.373581 0.0501721 0.471079)
(0.754974 -0.018665 0.16216 121.434 -1.47221 63.9749 0.910998 0.0816594 1.83585)
(-0.25679 0.010714 0.179389 155.695 0.343114 80.5663 -0.216105 0.0419667 0.411496)
(-0.394334 0.0606346 -0.352113 100.28 1.903 68.7424 -0.00979999 0.0723541 -0.483025)
(0.736883 -0.0115492 -0.174553 153.106 -3.09614 67.463 1.43972 0.0218606 3.18326)
(-0.0758494 -0.0453862 0.0702982 164.545 -0.464271 67.2521 1.01637 0.0265737 1.24464)
(-0.415025 0.00848198 -0.0697252 134.589 0.618078 64.7601 0.76827 0.0559376 0.824594)
(0.0713871 -0.000481288 0.192976 130.695 -0.861038 66.0326 0.814581 0.0625102 1.88947)
(0.0127665 -0.00480737 0.234442 130.622 0.480208 75.6168 0.269584 0.0658964 0.710443)
(-0.112951 0.00283531 -0.145606 132.035 0.913203 72.7395 0.299061 0.0680535 0.299038)
(0.0685768 -0.00332607 -0.00387802 128.513 0.560206 65.793 0.325004 0.0658017 0.567286)
(0.0694029 -0.0115803 0.234822 133.501 0.167174 72.8608 0.282962 0.0796869 0.713521)
(-0.225539 0.00568764 -0.0598884 126.697 0.283142 78.7914 0.0784176 0.0706896 0.793728)
(-0.138636 0.0090837 -0.364395 117.721 1.16955 68.6612 0.146802 0.0432195 -0.0398816)
(0.145025 0.00351914 -0.0410647 124.188 0.733252 57.6313 0.66945 0.0652413 0.0802414)
(-0.116641 -0.0036558 0.217457 128.818 1.81873 66.0972 0.457106 0.0461639 -0.358448)
(-0.0149384 -0.0172391 0.032956 112.65 0.603032 71.5447 0.487018 0.0743242 0.313085)
(0.240085 0.00151139 0.108594 127.544 -0.0636287 69.1015 0.584481 0.0377961 0.204737)
(0.0177074 0.000971372 0.0270658 129.43 0.253959 78.7555 0.78136 0.0807587 1.00438)
(-0.0513827 -0.00967979 -0.276776 128.791 0.0334813 69.768 0.242058 0.0726403 0.722326)
(0.0507647 0.00361735 -0.103401 124.729 0.154425 60.7911 -0.144955 0.0186897 0.180105)
(0.0987505 0.00576434 0.190092 132.006 0.715632 63.8364 0.209764 0.018282 -0.278396)
(-0.329954 0.0122098 0.206642 133.803 1.23456 74.2873 0.37757 0.0228881 -0.389445)
(-0.374267 -0.00564882 0.075015 110.42 1.63683 76.26 0.729604 0.0483987 0.0238121)
(0.3826 -0.0208562 -0.0839529 113.035 -1.09489 74.6963 0.944975 0.105094 1.63901)
(0.408606 0.0131029 -0.0942758 139.104 -0.870006 69.7667 0.393155 0.0829155 1.43299)
(-0.152047 0.0121862 0.0702893 134.216 1.11498 70.8318 0.510857 0.0673736 0.625738)
(-0.0464693 -0.00178555 0.10974 120.454 0.682989 75.8793 0.464959 0.0609085 0.477553)
(0.319893 0.00322383 -0.0254013 131.047 0.493758 78.2986 0.593836 0.0552412 0.234603)
(-0.15196 -0.00129182 -0.131946 146.843 0.982037 75.1264 -0.0901694 0.0320803 0.0294916)
(-0.968429 0.00132074 -0.00358002 118.658 2.02532 68.5678 -0.00790008 0.0230888 -0.425822)
(-0.198762 0.00137577 0.338074 83.0844 -0.411481 79.1032 2.01481 0.0385559 1.4992)
(2.8355 -0.0183018 -0.0824744 12.4015 -8.16785 -4.43753 3.11539 0.370648 6.45332)
(-0.183156 0.198931 -0.652714 19.4559 -2.73542 -5.70731 0.127031 0.143285 3.54647)
(-1.73668 0.055823 -0.175138 -16.9147 1.13922 -7.40539 -1.40245 0.0466742 0.793439)
(0.674661 -0.0013516 0.0233959 -6.51944 -0.704892 -5.81121 -0.25389 1.34916e-05 0.842477)
(0.501888 0.0247009 -0.125186 5.11978 0.881763 -7.86976 -0.978148 -0.0132421 -0.54441)
(-0.35095 -0.0905407 0.118861 5.33288 -0.157124 -7.62978 2.48336 -0.112095 1.18561)
(0.236717 -0.00230635 0.308982 1.07969 -2.94103 -2.57398 3.50647 0.178907 3.79856)
(-0.791812 0.102631 -0.295127 -5.842 -0.151136 -6.29638 0.411042 0.180254 2.58763)
(-0.526506 -0.110729 -0.512182 -19.9512 0.0831866 -4.47838 2.11442 -0.07621 1.76264)
(1.75644 -0.0291505 0.346599 -8.93598 -5.7814 -12.9826 3.61534 0.0439064 4.50902)
(-0.822014 0.164439 0.0515903 5.65852 0.513364 -6.9616 -0.986936 0.16325 0.655208)
(0.298572 -0.246266 -0.296819 -23.5093 1.08486 -9.97281 0.0100556 -0.111856 0.341773)
(2.54483 -0.110895 0.114197 19.2825 -12.3064 -13.4343 3.75952 -0.119135 8.12699)
(-0.883352 0.243849 -0.218452 23.1809 -2.37905 -10.3156 2.25076 -0.0384856 3.0305)
(-1.31084 -0.0300459 0.0130217 12.8413 -0.667867 -10.3536 1.76448 -0.00442977 2.68258)
(-0.285627 -0.00666895 0.354576 2.2008 -4.70292 -3.51793 2.43119 0.0293917 5.24994)
(0.0559181 0.0979237 0.0922956 -9.8088 -1.1426 -6.77321 0.620519 0.1027 2.05632)
(0.0141125 0.00105797 -0.352751 7.47258 0.239432 -8.18466 0.305558 0.0557309 0.62857)
(0.00112547 -0.0352926 0.0105968 3.79798 -0.983205 -10.0348 0.294499 -0.00155338 2.01096)
(-0.171162 -0.00172762 0.42036 -2.78569 -1.23128 -5.84818 0.261694 0.0612313 2.29513)
(-0.575813 0.0460792 -0.153391 -9.16175 -0.208278 -8.30101 -0.0126357 0.0879987 1.63256)
(0.021475 0.0135089 -0.703965 -6.2918 -0.148325 -10.1473 1.16006 -0.0900318 0.670641)
(0.419837 0.0300235 -0.0886963 -1.40555 -0.660301 -11.0721 2.24199 -0.0958315 0.815391)
(-0.474099 -0.00277762 0.487239 -1.2673 1.72968 -14.56 1.01697 0.00602162 -0.502382)
(-0.0500701 -0.0793178 0.120605 -14.6719 -0.666736 -3.9646 1.69475 0.0505027 1.53966)
(0.61203 -0.0198881 0.257035 -3.02291 -1.31685 -7.48943 1.07644 -0.0729647 0.853679)
(0.0456136 0.00400175 0.00502708 -3.36241 -1.4549 -4.13903 2.11269 0.107952 2.6014)
(-0.188916 0.00545087 -0.633498 -1.99276 -0.621591 -7.01675 0.632619 0.0483552 1.407)
(0.112006 0.031637 -0.195954 -8.59616 -0.170507 -14.3626 -0.517036 -0.0963483 0.302664)
(0.365149 0.0500544 0.495556 1.10502 0.502491 -17.4438 0.421778 -0.0694675 -0.56429)
(-0.764056 0.0346664 0.421347 4.22612 1.78192 -8.35705 0.400241 -0.0427133 -0.928231)
(-0.672671 -0.11541 -0.0611603 -9.91004 1.69615 -10.1976 1.27447 0.0248294 0.159423)
(1.07678 -0.107944 -0.246675 -3.43941 -4.66223 -7.56417 2.17122 0.0973913 3.94949)
(0.656465 0.100968 -0.0980694 13.0393 -3.14462 -9.6634 0.604416 0.0576301 3.27312)
(-0.806528 0.0676794 0.241827 4.96786 0.842593 -9.6128 1.46563 0.0824396 1.33411)
(-0.11437 -0.0304711 0.269141 -13.0816 0.58765 -8.1494 2.24902 0.112583 0.564995)
(1.02596 0.0120675 -0.0113687 -3.18746 -0.744196 -5.87785 2.0806 0.0855529 0.698568)
(-0.479709 0.0813862 -0.362922 5.9925 0.520162 -9.08776 -0.451786 0.116246 0.422018)
(-2.26367 -0.0742104 0.211577 -12.5585 2.68621 -11.7773 0.144412 -0.143997 -0.101269)
(0.196917 -0.253584 0.902716 -28.3862 -2.60722 -4.72994 5.33442 -0.0740973 3.85603)
(3.74079 -0.0205268 0.0156085 18.2634 -5.97962 -19.8333 2.32071 1.11863 3.07393)
(-1.4053 0.503184 -0.397745 2.35679 -2.13239 -8.50828 -0.175433 0.448978 3.8546)
(-2.05644 0.119422 -0.117406 -9.93803 1.04203 -5.63977 -2.38038 0.142638 1.08527)
(1.38039 -0.00289738 -0.0170317 0.977666 0.0124863 -3.28668 0.515364 0.0759104 -0.927214)
(0.744721 0.0353046 -0.145421 5.44712 2.08773 -7.30073 -2.14997 -0.0275722 -2.30361)
(-0.470072 -0.218603 0.315163 4.16914 0.155544 -5.84847 3.77527 -0.246755 0.880101)
(-0.402836 0.0028278 0.31217 -7.00884 -1.8552 -2.37896 5.42361 0.395888 3.20075)
(-1.27813 0.175479 -0.189706 -18.9105 -0.339811 -1.67744 1.25186 0.359542 3.03557)
(-0.348892 -0.318816 -0.684199 -6.1609 -2.00736 0.965067 6.05544 -0.197737 3.11086)
(2.12566 0.00708944 0.00110113 4.29485 -6.5796 -12.1998 6.57751 0.255883 4.39342)
(-1.03725 0.389686 0.365028 -4.37737 0.257979 -9.72102 -0.927432 0.479221 0.916905)
(0.318836 -0.644945 -0.729384 -1.67324 0.368872 5.84093 -0.229619 -0.297439 0.229513)
(3.23762 -0.200555 -0.223113 -5.17008 -7.55876 -9.3645 3.95461 -0.19147 5.14809)
(-0.365037 0.594119 0.276102 -0.731183 -2.18496 -7.62569 2.18171 -0.0312333 2.91742)
(-1.53038 -0.121131 0.312406 13.4212 -0.607608 -4.69259 1.60875 -0.0205241 2.94748)
(-1.19376 -0.0271274 0.382448 -1.44825 -3.63065 -4.66228 4.09689 0.200512 5.39718)
(0.311222 0.26877 -0.0193646 -14.8588 -2.05392 -6.5417 1.23401 0.314999 2.71254)
(0.655811 0.0121672 -0.312215 8.93339 0.0626039 -2.82091 -0.146401 0.143006 0.0527792)
(-0.513833 -0.0845961 0.128864 4.80736 -0.74774 -3.97362 -0.427262 0.0110602 2.12676)
(-0.650848 0.0319402 0.315847 -5.234 -2.17203 -0.958678 0.801999 0.132007 3.36018)
(-0.391878 0.0638455 -0.297447 -5.51852 -1.06519 -6.61377 0.711322 0.120707 2.11058)
(0.29081 -0.0173194 -0.489593 0.628839 -0.961864 -4.7869 3.29408 -0.164383 1.26932)
(0.406113 0.108727 -0.289736 -2.13994 -1.16924 0.417243 4.05118 -0.0951199 1.09433)
(-0.842812 -0.00411324 0.598682 -3.64642 2.01342 -9.41472 1.89144 0.0320957 -0.384057)
(-0.112254 -0.186001 0.430273 -10.6321 -2.79562 3.32959 4.13313 0.108963 3.48427)
(0.85242 -0.041615 0.083733 -3.15245 -2.6049 -2.63731 1.20341 -0.132685 1.78897)
(0.0740808 0.0405987 0.0564164 -5.93477 -2.1792 -6.22138 3.61322 0.275171 3.09477)
(-0.338216 0.0625729 -0.828268 -4.00305 -0.831398 2.81336 0.727965 0.132943 1.76087)
(0.222554 0.0653741 -0.692993 -10.0044 -0.227322 -3.38103 -0.661287 -0.18841 0.241636)
(0.808524 0.113468 0.50446 1.35783 -0.00976831 -13.5078 1.10599 -0.140759 -0.48957)
(-0.919166 0.0785187 0.601336 4.48706 2.06815 -9.20386 0.474831 -0.0513861 -1.10781)
(-0.784677 -0.364775 0.134168 0.0085365 2.0476 -10.5905 1.99314 0.0133603 -0.135728)
(1.63122 -0.290164 -0.037001 2.67659 -6.27555 -3.82497 2.83238 0.197002 4.80127)
(0.866669 0.320471 -0.211553 7.55944 -5.15136 -2.54661 0.276338 0.0605171 4.53518)
(-1.58678 0.22099 0.140089 7.91249 0.895098 -4.44427 1.79627 0.0877936 1.59398)
(-0.508057 -0.09005 0.308307 -7.083 1.24593 -6.70798 4.71159 0.316825 -0.312099)
(1.34476 -0.00153646 -0.0806964 -4.80279 -0.612313 -5.8016 4.31664 0.423172 0.0241991)
(-0.657387 0.187456 -0.447668 -5.77584 0.638107 -9.40848 0.13189 0.393938 0.528339)
(-2.81336 -0.170739 0.225185 -4.09436 1.58706 -7.04122 2.30137 -0.353004 1.03059)
(1.19518 -0.596502 0.703153 -8.96193 -1.34307 -10.64 6.01062 0.0432305 0.975997)
(3.46004 -0.0679449 0.0423906 5.41395 -1.46531 -20.7351 1.2659 1.65465 -0.765299)
(-1.84258 0.6121 0.218463 -8.22167 -0.741373 -10.3044 0.53981 0.77899 3.19491)
(-1.79183 0.184966 0.148964 5.00493 1.15293 -4.32157 -3.61107 0.195695 0.91852)
(1.57605 0.0648647 -0.0774926 -0.476402 0.55248 -4.48325 2.25566 0.218646 -1.37865)
(0.679228 0.0326783 -0.285004 3.30945 2.90988 -6.61936 -2.07576 -0.0616458 -3.24948)
(-1.12594 -0.32683 0.410165 -4.98927 1.77586 -6.56342 5.89109 -0.482761 -0.125631)
(-1.15739 -0.0341137 0.572168 -16.9641 0.508469 -3.62636 7.70745 0.642632 1.77581)
(-0.689616 0.0857342 -0.0944091 -18.8548 -0.76386 2.53507 3.1759 0.453381 3.09109)
(0.921728 -0.48412 -1.15973 8.31121 -2.77108 -2.63572 8.97306 -0.241611 2.94841)
(1.8322 0.110338 -0.293946 19.7188 -3.20362 -9.66376 6.15576 0.775406 2.14918)
(-1.17753 0.580886 1.15997 -7.93924 0.24882 -9.63785 -0.0954501 0.901947 1.22373)
(0.246467 -0.700223 -0.231043 11.8195 0.566825 8.01516 0.00928432 -0.274572 0.324856)
(2.53507 -0.263267 -0.702827 1.64997 -2.18647 3.92643 3.64408 -0.334265 1.5099)
(0.239322 0.647963 0.0272439 -8.62373 -2.12022 -3.82346 2.0168 -0.00957603 2.74538)
(-1.33419 -0.11227 0.170299 6.27829 0.367688 -0.306084 0.518923 -0.112708 1.96147)
(-1.98141 -0.0959938 0.234971 -3.35514 -0.40505 -5.15727 5.54387 0.30318 3.54039)
(0.686249 0.314162 0.219789 -6.52879 -1.87058 -4.83768 1.67464 0.583619 2.28184)
(1.19236 0.0824648 -0.194566 2.44152 0.261655 -1.20977 -0.542613 0.314489 -0.619125)
(-0.842407 -0.171535 0.116417 2.09211 0.188305 -3.42273 -1.1861 -0.0216877 1.72812)
(-0.775534 -0.0251489 0.264019 -0.114867 -2.30484 -3.10312 2.46077 0.184894 3.68352)
(-0.22382 0.120755 -0.380834 -0.576435 -1.65868 -4.17723 1.47418 0.0840202 2.43343)
(0.207985 0.0100183 -0.281217 2.00244 -0.925817 -3.84291 5.45121 -0.296668 1.23893)
(0.15112 0.210117 -0.360956 -1.13051 -0.780849 0.759026 6.07434 0.0204344 1.11736)
(-0.973724 -0.105391 0.660083 -5.50983 1.35073 0.0716552 4.14205 -0.0505494 0.829171)
(-0.0126457 -0.360413 0.517802 -2.81092 -3.78122 -0.937325 6.29795 0.348985 4.37437)
(0.884748 0.0212265 -0.329018 -0.72397 -2.33889 -5.28626 1.49635 -0.153378 1.60417)
(-0.0109694 0.112383 0.344234 -2.6843 -1.24011 -10.3745 3.79855 0.420724 2.23939)
(-0.431087 0.123049 -0.434583 -3.71933 -1.02447 3.63333 0.771203 0.315939 2.1011)
(0.439626 0.08017 -1.17734 -5.64116 -0.153333 6.20186 -0.377174 -0.381234 -0.0402535)
(1.23631 0.18873 0.126809 0.155095 -0.421386 -3.49047 2.07542 -0.396274 -0.452479)
(-0.833788 0.160256 0.587647 2.7471 2.27526 -7.49437 0.674528 -0.178707 -1.10089)
(-0.775847 -0.617588 0.259119 1.10552 2.0477 -7.01239 2.82661 -0.119643 -0.199984)
(1.49837 -0.544517 0.240531 4.00287 -4.58665 -4.66562 2.97061 0.363855 3.74924)
(0.966224 0.532024 -0.125846 -4.74318 -5.06012 -0.514352 0.155108 0.0599819 4.59065)
(-1.65354 0.456497 -0.0108945 5.11473 1.01956 -1.09936 1.09843 -0.0318312 1.91536)
(-0.878292 -0.119744 0.179475 1.6509 1.84779 -5.34349 4.70273 0.426885 -0.374969)
(1.07666 -0.0249712 -0.17504 -3.14189 0.368647 -6.76495 5.85394 0.895647 -0.714616)
(-0.417187 0.209725 -0.432762 -8.02813 0.802166 -7.28121 1.42312 0.600184 0.552194)
(-2.40999 -0.189719 0.132413 3.45557 0.201463 -6.08651 5.48072 -0.501906 2.10036)
(1.50955 -0.697319 0.114535 7.07478 1.02702 -13.2575 3.58907 0.398135 -2.3993)
(2.70588 -0.138675 0.218145 -4.2291 -0.816577 -14.62 1.74922 1.99131 -0.867857)
(-1.39 0.67424 0.68125 -4.97802 -0.929091 -7.0319 1.5894 1.17433 2.70306)
(-1.54467 0.20278 0.260483 10.3789 1.04586 -4.01119 -4.44806 0.290203 0.584686)
(1.24301 0.11242 -0.170664 2.24305 -0.57085 -6.82263 2.57748 0.221663 0.319367)
(0.437662 0.120582 -0.276019 -0.854368 1.99136 -5.7133 -0.680593 -0.108993 -1.85992)
(-1.81334 -0.374659 0.513653 -8.06383 2.87126 -4.96605 8.93353 -0.70008 -0.87305)
(-1.29093 -0.169968 0.918444 -9.16435 1.15822 -3.70134 7.37464 1.23004 0.68284)
(0.419453 -0.0434496 -0.130394 -5.64274 -1.05604 0.469708 3.48496 0.75204 2.05472)
(2.20461 -0.47183 -1.48437 13.4032 -1.19594 0.917079 5.39362 -0.172856 0.701557)
(1.02573 0.206624 -0.455988 17.2211 0.730923 -2.87033 2.95139 1.06941 -0.857053)
(-1.57216 0.632584 1.51408 -3.20608 0.114047 -7.83512 1.23233 1.34098 1.89081)
(0.992445 -0.808651 0.163393 8.08431 0.365086 1.28025 -1.70395 -0.0356287 -0.0469608)
(1.88723 -0.381012 -0.997833 10.0282 -2.29428 -1.66731 2.57326 -0.236489 0.239992)
(-0.103838 0.766228 0.00686114 -2.38138 -2.51662 -4.72391 1.91006 0.15437 2.74589)
(-1.18387 -0.00282632 0.233926 -0.922536 0.792238 0.439977 0.151189 -0.166227 1.18498)
(-2.00499 -0.175783 0.0822853 -0.548624 0.153141 -1.85522 7.04282 0.386912 2.49456)
(0.676543 0.310562 0.231042 3.84768 -1.22938 -2.21229 1.35109 0.99703 1.23141)
(1.20124 0.148214 -0.225652 -2.10829 0.0782643 -3.15522 -0.0154471 0.637824 -0.537936)
(-0.658627 -0.254254 -0.00146454 1.45552 0.191875 -3.37823 -1.92446 -0.0952284 1.46375)
(-0.823822 -0.0907015 0.268598 2.75531 -1.04828 -3.73809 2.79344 0.270688 2.59809)
(-0.261547 0.153986 -0.340518 3.91758 -1.4576 -2.66889 1.6614 0.0717915 2.23451)
(0.260588 0.0409488 -0.167399 -0.356853 -1.10284 -3.62232 7.20805 -0.46394 1.50739)
(-0.0904311 0.25679 -0.0105837 -2.02386 -0.48221 -0.750684 6.66797 0.0776764 1.16384)
(-0.946497 -0.202488 0.47466 -8.34125 -0.498777 1.80603 6.637 -0.0259563 2.13285)
(0.210364 -0.424959 0.0491884 5.13892 -2.83275 -2.88424 5.30907 0.832826 2.71206)
(0.857987 0.128688 -0.530802 1.79169 -1.29821 -4.93218 2.75769 -0.0651627 0.558166)
(-0.125568 0.124762 0.647476 5.71187 0.117546 -9.33282 2.53685 0.503759 0.778548)
(-0.534407 0.132048 0.284289 1.4772 -1.50495 -2.36121 1.7161 0.639784 2.54699)
(0.47009 0.105804 -1.13961 2.68064 -0.599327 5.98579 0.44118 -0.426441 0.153635)
(1.34866 0.27471 -0.409555 -1.45713 -0.532021 2.47993 2.70736 -0.59203 -0.539321)
(-0.861656 0.241927 0.35796 2.69406 2.01391 -4.60483 0.913023 -0.349862 -0.985203)
(-0.698294 -0.816343 0.318249 -5.41351 1.75073 -2.2695 2.87324 -0.307195 -0.199816)
(1.23806 -0.758666 0.386809 7.19997 -4.31226 -4.02256 3.47799 0.605119 3.02913)
(0.93398 0.688904 0.0277031 -10.035 -4.54196 0.453826 0.440469 0.193774 3.89653)
(-1.13577 0.677484 -0.1804 2.60035 0.548376 0.975776 -0.086886 -0.129182 1.83)
(-1.04481 -0.132314 -0.0725238 6.9116 1.58715 -4.20872 3.25811 0.286352 0.296022)
(0.69895 -0.0718555 -0.205919 -1.90345 0.534438 -6.20064 5.74173 1.2731 -0.496636)
(-0.222934 0.173612 -0.402012 -0.95393 0.381226 -6.83407 1.67982 0.857766 0.375317)
(-1.80416 -0.153215 -0.180842 5.51429 -0.540354 -3.59753 6.2132 -0.59492 2.60076)
(1.29984 -0.702248 -0.255951 12.0529 1.43583 -11.9622 1.47745 0.648614 -1.82653)
(2.2336 -0.241649 0.40169 -3.09912 -0.719187 -8.78714 1.5043 2.12162 -1.03379)
(-0.771182 0.748252 0.983131 -1.58579 -1.26507 -3.18428 2.27836 1.52416 2.09451)
(-1.26456 0.210569 0.153809 8.52056 1.14906 -2.51053 -3.76371 0.335341 0.506778)
(0.75067 0.132384 -0.198286 10.8528 -0.815051 -2.93112 1.15274 -0.0752209 0.933682)
(-0.0844807 0.287005 -0.143984 -0.974351 0.865261 -5.10086 0.975253 -0.284003 0.122829)
(-1.69243 -0.385733 0.553612 -1.30886 2.76315 -3.76822 9.51765 -0.781278 -1.20714)
(-0.958963 -0.320734 0.953056 6.16355 1.52055 -4.96819 1.38265 2.10899 0.00179233)
(0.924558 -0.0813015 0.262223 5.78548 -0.0674413 -6.1198 2.36982 1.51414 0.580344)
(2.54117 -0.348752 -1.38258 5.80805 0.103922 4.85658 0.203771 0.0391083 -1.35084)
(0.643222 0.200846 -0.946767 5.63419 2.14242 -0.704753 -0.0645096 0.995678 -3.16152)
(-1.83648 0.547752 1.44184 9.14164 0.259921 -5.54222 0.863641 1.63798 1.68893)
(1.18351 -0.873475 0.200987 2.52931 -0.215092 -4.97693 -3.16711 0.401015 -0.00345772)
(1.79985 -0.471773 -1.13229 5.14741 -0.542498 -3.45677 1.89862 -0.0144885 -0.340617)
(-0.563445 0.872073 0.190364 1.60942 -1.65205 -4.20124 1.96795 0.298319 2.28276)
(-1.20912 0.0808646 0.383221 -1.06138 0.999627 -1.75042 1.34371 -0.171952 0.888475)
(-1.61441 -0.242549 0.0474983 1.47126 0.394535 -1.14659 7.24105 0.622745 1.8569)
(0.567998 0.308798 0.119291 5.33513 -0.41581 -2.22128 0.814283 1.51013 0.595485)
(1.00861 0.184532 -0.280583 1.81086 -0.27583 -4.99375 1.43864 0.967719 0.0257567)
(-0.489007 -0.249378 0.0836497 -0.106868 0.276607 -3.22023 -2.02386 -0.0923472 1.26427)
(-0.582504 -0.144681 0.317784 4.3314 -0.00117755 -2.13324 1.98348 0.315566 1.55938)
(-0.457943 0.113261 -0.376016 8.18556 -0.654805 -2.02399 2.33138 -0.0268085 1.80276)
(-0.251442 0.0814851 -0.145969 -0.281849 -0.666135 -1.73526 7.42102 -0.670189 1.71928)
(-0.435058 0.251625 0.0189553 -5.28945 0.0949237 -0.448959 4.40643 0.317795 0.263743)
(-0.42892 -0.275359 0.515534 -1.12097 0.0333736 -2.97457 4.38672 0.108574 0.98832)
(0.739622 -0.415068 0.0495883 6.63051 -1.5111 -0.891218 4.14951 1.09097 1.66278)
(0.93122 0.236004 -0.801775 0.873722 -1.08662 0.137369 4.37274 -0.00614161 0.0718607)
(-0.0235507 0.0953424 0.510438 11.4169 0.891321 -5.8764 2.62429 0.602685 -0.161662)
(-0.652464 0.067351 0.664498 7.17993 -1.20596 -7.16158 3.52551 0.959357 2.23338)
(0.212278 0.151978 -0.811053 6.49878 -0.985796 -0.153681 1.74172 -0.323035 0.573655)
(1.2261 0.379889 -0.629111 1.58136 -0.608689 0.179288 3.16263 -0.588034 -0.532106)
(-1.13343 0.326584 0.247565 3.6828 1.68841 -2.27982 1.12128 -0.489387 -0.690235)
(-0.439168 -1.08129 0.297715 -7.77556 1.65885 -0.159702 2.56892 -0.51356 -0.112132)
(1.17113 -1.00412 0.434078 13.7283 -4.19097 -5.81768 3.58408 0.943606 3.22882)
(0.61785 0.887887 0.240876 -12.8062 -4.10917 0.427417 1.6049 0.598834 3.85723)
(-0.40991 0.902913 -0.350353 -2.55814 -0.169388 1.976 -1.09416 -0.0949873 1.75461)
(-1.20591 -0.119553 -0.343896 7.11676 0.81844 -0.925602 3.07165 0.0341464 0.972198)
(0.513183 -0.112464 -0.372636 -4.30495 0.106793 -3.81347 5.05213 1.49309 0.127227)
(0.130405 0.131178 -0.236853 9.2388 -0.227346 -8.88714 2.13777 1.05325 0.464671)
(-1.47632 -0.112754 -0.22826 12.2621 -0.165146 -0.765657 4.63064 -0.751855 2.10124)
(0.785728 -0.717941 -0.690982 12.2348 1.80253 -6.01912 0.843358 0.668109 -2.20441)
(1.59101 -0.386313 0.438157 4.68904 0.131722 -2.54417 1.32197 2.08329 -1.28379)
(-0.474852 0.823929 1.17883 -3.92218 -1.11726 -3.4332 3.34649 1.8483 1.55391)
(-0.526794 0.23984 0.292437 6.05395 0.879441 2.99111 -2.08821 0.332028 -0.177137)
(0.493866 0.0865611 -0.385708 12.3613 0.398176 4.21144 0.57561 -0.392919 -0.297542)
(-0.532727 0.404811 -0.359608 4.59687 0.0480783 -2.52989 2.82292 -0.565262 1.44778)
(-1.22525 -0.318453 0.520813 3.17491 1.82723 -2.15552 9.03819 -0.71225 -0.570621)
(-0.727605 -0.3929 0.717253 8.78291 1.58075 -5.83557 -2.94172 2.92835 -0.605404)
(0.339054 -0.15878 0.656452 9.47138 1.04753 -9.38037 0.402984 2.30857 -0.509388)
(2.15823 -0.298324 -1.03923 -5.35152 0.35617 0.0392922 -0.785457 0.662897 -1.65518)
(1.34428 0.220319 -1.28129 -2.5663 1.69601 -2.88051 0.238101 1.25952 -3.09038)
(-1.8068 0.442837 1.16208 10.5034 0.429477 -6.40328 0.580315 1.84137 1.23758)
(0.637489 -0.869639 0.334987 7.53729 -0.185964 -7.00699 -2.25002 0.770427 0.239048)
(1.81862 -0.492762 -0.919165 2.40184 0.96508 -2.3193 2.10564 0.064124 -1.27606)
(-0.579941 0.885313 0.131989 0.0138493 -0.294951 -2.03971 2.77446 0.327004 1.33841)
(-1.19297 0.16089 0.475845 3.3932 1.14466 -2.32729 3.15418 -0.188627 0.823282)
(-1.5062 -0.288122 0.0461721 2.88345 1.18903 0.206937 5.5541 0.916056 1.03209)
(0.715952 0.254372 -0.0812685 3.39606 -0.0101531 -2.81482 1.09894 1.85363 0.175388)
(0.762919 0.202804 -0.304156 5.52521 -0.464675 -5.61732 2.55154 1.1468 0.341793)
(-0.46365 -0.231647 0.230548 -3.23608 0.120653 -2.98627 -0.656368 -0.000642447 1.18232)
(-0.150691 -0.163621 0.364265 6.48061 -0.612759 -3.46237 1.59846 0.44065 1.28369)
(-0.629809 0.102146 -0.303505 3.58345 -0.350315 -2.88494 2.45636 -0.0952204 1.52254)
(-0.821246 0.0999357 -0.037107 7.97229 -0.0751715 -1.44538 6.0167 -0.80866 1.75991)
(-0.126528 0.316124 -0.117743 -5.20572 -0.615929 0.336402 6.9438 0.732044 1.29699)
(0.00402709 -0.330242 0.433386 10.6211 1.31522 -2.93712 0.670305 0.288264 -0.293381)
(0.325164 -0.520122 0.310813 3.49854 -0.323818 -3.56524 3.9732 1.27328 1.38376)
(1.25312 0.319962 -0.922881 -2.81534 -1.47277 2.04316 4.88821 -0.0515593 0.18442)
(0.394482 0.11767 0.047455 14.3445 0.739369 -4.74336 4.11186 0.675325 -0.342624)
(-0.936134 -0.0193181 0.72746 12.2037 -0.487215 -8.9677 5.55137 1.25912 1.84613)
(0.0251184 0.151408 -0.555213 5.68852 -1.00477 -2.77991 3.17277 -0.171182 0.8693)
(1.12414 0.489051 -0.566375 6.02507 -0.679274 -1.68853 3.92173 -0.527238 -0.393356)
(-1.62125 0.424126 0.340495 -1.36454 1.73392 -0.0334387 1.08656 -0.649465 -0.43779)
(0.120462 -1.28421 0.0228244 -1.67187 0.513275 -0.994206 3.46274 -0.632696 0.318401)
(0.821758 -1.21912 0.43145 14.1619 -2.20138 -7.25412 1.53937 1.01269 2.04868)
(-0.403838 1.00716 0.661711 -11.5923 -2.49589 0.149148 3.65858 1.02612 3.8003)
(0.466854 1.06928 -0.277173 -10.5001 -0.807584 1.43016 -0.568301 0.0761081 2.14429)
(-1.17558 -0.110368 -0.53219 2.50178 -0.249279 3.94866 4.09019 -0.126131 1.85316)
(0.895954 -0.155729 -0.858686 -3.02835 -0.735247 -3.55955 4.25451 1.6191 0.51461)
(1.13476 0.154989 -0.162255 16.5536 -1.74745 -8.96586 3.85437 1.17835 1.04065)
(-1.58503 0.0134185 0.0650544 15.824 0.402647 -1.81769 2.18176 -0.760438 1.17366)
(0.0596116 -0.747265 -0.88693 13.5864 2.05694 -0.323498 0.815525 0.693702 -2.13789)
(0.678458 -0.52077 0.110421 7.98628 0.89542 -0.21054 2.06581 1.93772 -1.11086)
(-0.67457 0.809843 1.47553 -0.395993 -0.929251 -3.65053 3.30765 2.03406 1.60482)
(0.167755 0.347808 0.847013 1.71865 0.331367 5.46881 -1.34245 0.465602 -0.853713)
(0.64158 0.060072 -0.690193 5.61865 1.27973 3.29558 1.22619 -0.470379 -1.25513)
(-0.889326 0.407401 -0.711314 9.28748 -0.715034 0.526648 5.2039 -0.842532 2.13677)
(-1.35197 -0.250701 0.251144 4.31877 1.16166 -0.471854 6.81946 -0.26262 0.188259)
(-0.399726 -0.385634 0.308396 3.26254 1.54376 -6.13702 0.617864 3.70192 -0.822174)
(-0.324214 -0.186818 0.76618 8.53009 1.84549 -8.3704 1.41567 2.78326 -0.658844)
(1.46608 -0.293816 -0.815735 -3.478 1.27592 -3.81816 -0.401115 1.20182 -1.62167)
(2.03957 0.20568 -1.5092 -8.54838 1.01375 -2.17357 1.91401 1.42044 -2.38088)
(-0.904955 0.384176 1.08814 4.60486 0.0698884 -9.63692 1.94904 1.94735 1.25814)
(0.48878 -0.82432 0.565322 13.6147 0.307883 -7.70176 -1.50414 0.984022 0.122006)
(1.10212 -0.479754 -0.694169 3.55417 0.989858 -4.52417 2.05728 0.0363012 -1.57282)
(-0.470103 0.887359 0.195462 -0.00469066 0.0520837 -1.61194 3.66546 0.378898 0.662415)
(-0.945326 0.210118 0.581756 4.92785 1.16818 -2.41274 2.99736 -0.0918288 0.413063)
(-1.62497 -0.344802 0.00253837 4.03846 1.68044 0.694844 4.92771 1.23268 0.650116)
(0.797544 0.161286 -0.39935 2.11642 0.493731 -3.57816 1.9498 2.14999 -0.51595)
(0.419761 0.194803 -0.294084 2.5296 -0.524897 -5.59036 2.60157 1.19293 0.539187)
(-0.403176 -0.264848 0.268276 -2.18805 0.0592637 -2.04636 0.343793 0.158298 1.01987)
(0.0050673 -0.186348 0.322509 7.09958 -0.690849 -4.01881 1.1978 0.616832 1.06661)
(-0.30279 0.164095 -0.196711 0.108091 -1.09882 -3.98486 2.45533 -0.0259788 1.63786)
(-1.00739 0.0550731 0.141092 12.2913 0.355244 -3.4079 3.69468 -1.00186 1.26205)
(-0.220915 0.373775 -0.105349 0.514989 -1.36639 -1.6604 8.4877 1.08376 1.99549)
(0.332861 -0.242853 0.162878 6.60814 0.744937 -1.72823 -0.141118 0.612197 -0.519686)
(-0.461694 -0.662429 0.484102 3.96925 0.873771 -4.43436 3.71854 1.56482 0.563334)
(1.9022 0.325945 -0.898631 -3.7496 -1.57906 1.17075 3.99514 -0.0436786 -0.332016)
(1.32378 0.184266 -0.461681 13.3749 0.193622 -5.39625 3.74316 0.518833 -0.80419)
(-1.42471 -0.0853013 0.839805 13.3289 0.222843 -8.54746 5.33919 1.38985 1.58757)
(-0.340477 0.134271 -0.163373 4.64353 -0.668537 -1.74585 3.90204 0.0839141 1.12886)
(0.583951 0.622281 -0.381359 4.36259 -0.325247 -0.393056 4.52209 -0.392089 -0.075641)
(-1.79655 0.427132 0.302492 -9.82013 2.15299 1.56342 0.909067 -0.730127 -0.269062)
(0.940941 -1.42498 -0.342651 6.97054 -0.926056 -3.54817 4.18726 -0.682196 0.623036)
(0.288507 -1.26094 0.540091 7.52562 -0.581002 -5.2312 -0.712656 0.831285 1.02114)
(-1.56102 1.00487 1.00202 -2.27992 -0.931282 -0.319072 3.82696 1.17994 3.16517)
(0.806005 1.09407 -0.00624705 -9.85374 -1.6913 -1.67744 0.880177 0.289633 2.37795)
(-0.517871 -0.113781 -0.786574 0.529891 -1.5823 5.82729 5.70638 -0.153779 2.54721)
(1.77459 -0.246707 -1.51852 3.46501 -1.49964 -5.15648 3.42138 1.74064 0.314567)
(1.77366 0.234043 -0.0832056 10.6717 -3.10417 -6.61191 5.7826 1.16786 1.34011)
(-1.7399 0.226504 0.541758 6.98816 0.671765 -4.54726 0.681638 -0.670182 0.732026)
(-0.171556 -0.740067 -0.738582 15.8144 2.01941 3.00561 -0.625292 0.55403 -1.30611)
(0.0330132 -0.672866 -0.206269 3.24233 0.659624 -1.38513 2.93342 1.97171 -0.315134)
(-1.09255 0.767951 1.72698 3.63593 -0.890746 -1.5834 1.44568 2.06776 2.00422)
(0.0156873 0.453786 0.943682 -5.61197 0.564881 2.35866 -1.32283 0.75406 -0.501366)
(1.24915 -0.0172512 -0.858077 0.136921 0.236107 -2.65628 1.94607 -0.533409 -0.573194)
(-0.629319 0.392539 -0.70774 9.09107 -1.45676 -0.630043 6.13238 -1.01241 2.7238)
(-1.82555 -0.0954178 -0.130184 3.57662 0.820187 -0.468033 3.41415 0.257204 0.590673)
(-0.33193 -0.324054 -0.0454642 0.431961 1.47443 -5.67802 1.37235 4.11749 -1.44739)
(-0.280407 -0.183226 0.881402 5.51691 1.13746 -5.89903 0.718332 3.07056 -0.379124)
(0.489878 -0.383396 -0.43111 5.69346 2.11406 -4.54115 -0.202367 1.60284 -1.66364)
(2.0971 0.0990804 -1.8505 -9.87581 0.735576 1.78308 3.29379 1.53059 -2.49697)
(0.357897 0.376888 0.607039 2.57534 -1.00529 -9.23871 1.66452 1.96335 0.484497)
(0.545462 -0.780573 0.832128 11.6049 0.26451 -9.13058 -0.548571 1.22024 -0.489073)
(0.504629 -0.520088 -0.322084 1.9458 2.28926 -2.20555 1.74287 0.207796 -1.77222)
(-0.451165 0.90325 0.340459 0.0438462 0.225269 -0.575522 5.00481 0.58806 0.575917)
(-0.806379 0.321637 0.699947 2.682 0.69796 -2.97091 2.04405 0.183118 0.203363)
(-1.78036 -0.351073 -0.0680339 2.43958 1.8296 -0.0467598 4.2332 1.73937 0.530721)
(0.554282 0.0393081 -0.68892 2.83094 1.81021 -4.52552 2.14286 2.54168 -1.60252)
(0.359296 0.159401 -0.149317 -1.49651 -0.689844 -4.90398 1.87646 1.23206 0.577745)
(-0.00474708 -0.245211 0.386665 2.53417 0.402511 -0.817791 -0.24838 0.330096 0.371326)
(0.0673434 -0.279172 0.171217 6.39695 0.321581 -2.23556 0.566743 0.614094 0.483796)
(-0.134298 0.202381 -0.25203 6.19064 -0.971967 -3.12579 2.58617 0.0912617 1.23949)
(-0.761235 0.0771998 0.181565 9.16387 0.219655 -1.99919 3.00202 -1.36917 1.13811)
(-0.695299 0.350007 0.0519074 5.31363 -0.494998 -2.65717 5.14717 1.35454 1.03893)
(0.322583 -0.111066 0.178212 1.50619 0.0339383 -1.41076 0.20673 0.988803 0.102749)
(-0.649954 -0.742337 0.588428 7.36012 1.96034 -3.52096 2.3322 1.84819 -0.416845)
(2.14515 0.250165 -1.02317 1.9104 -0.858046 0.578992 2.93986 0.135173 -1.1759)
(2.03913 0.294337 -0.890367 8.05791 -0.330658 -5.29856 1.91566 0.384302 -1.1675)
(-1.77561 -0.100437 1.08762 7.37397 0.697185 -5.90221 0.827611 1.49527 0.968048)
(-0.850562 0.0973584 0.235236 3.39275 -0.239188 -0.0421964 3.04062 0.354133 1.2405)
(-0.293379 0.762791 -0.248189 -0.570478 0.285901 1.1185 4.97474 -0.244273 0.131446)
(-1.33839 0.362699 0.0232939 -9.65779 1.82071 0.718333 1.06426 -0.825436 -0.374441)
(1.80318 -1.54829 -0.631916 10.0339 -1.31668 -5.28314 3.19933 -0.786035 0.0761773)