/*--------------------------------*- C++ -*----------------------------------*\
  =========                 |
  \\      /  F ield         | OpenFOAM: The Open Source CFD Toolbox
   \\    /   O peration     | Website:  https://openfoam.org
    \\  /    A nd           | Version:  10
     \\/     M anipulation  |
\*---------------------------------------------------------------------------*/
FoamFile
{
    format      ascii;
    class       volSymmTensorField;
    location    "50";
    object      UPrime2Mean;
}
// * * * * * * * * * * * * * * * * * * * * * * * * * * * * * * * * * * * * * //

dimensions      [0 2 -2 0 0 0 0];

internalField   nonuniform List<symmTensor> 
25600
(
(0.00433208 -4.49585e-05 -0.000675765 2.04361e-06 -7.28039e-07 0.00109952)
(0.00414155 -4.2055e-05 -0.000618876 2.08821e-06 -6.48661e-07 0.00109656)
(0.00408665 -4.05401e-05 -0.000550669 1.85352e-06 8.36045e-07 0.00105381)
(0.00417473 -4.05033e-05 -0.000609497 1.72629e-06 6.95579e-06 0.000999708)
(0.00433362 -3.65849e-05 -0.000609509 1.78608e-06 3.87669e-06 0.000959277)
(0.00426737 -4.08435e-05 -0.000624682 1.90024e-06 2.19662e-06 0.000877225)
(0.00422638 -3.94134e-05 -0.000674186 1.85837e-06 3.71914e-06 0.000890331)
(0.00427367 -3.44098e-05 -0.000605312 1.70315e-06 2.24298e-06 0.000914085)
(0.00406584 -3.9856e-05 -0.000540784 1.94065e-06 2.99234e-06 0.00102472)
(0.00428766 -3.9512e-05 -0.000608092 2.17658e-06 4.79416e-06 0.00093361)
(0.00443187 -4.28723e-05 -0.0006275 2.38681e-06 9.11711e-06 0.000996925)
(0.00486938 -5.41698e-05 -0.000525809 3.16203e-06 8.70743e-06 0.00105013)
(0.00420271 -4.23192e-05 -0.000578556 2.76354e-06 6.76398e-06 0.00125903)
(0.0038956 -4.27472e-05 -0.000635656 2.4778e-06 9.32422e-06 0.00112441)
(0.00394598 -4.04575e-05 -0.000656586 2.33175e-06 4.14353e-06 0.00113501)
(0.00407837 -3.99003e-05 -0.000661117 2.09209e-06 5.30819e-06 0.00118691)
(0.00379596 -3.75123e-05 -0.000687591 1.8957e-06 5.76269e-06 0.00104515)
(0.0038536 -3.63437e-05 -0.000579828 2.02267e-06 7.45122e-06 0.000989155)
(0.00365122 -3.71604e-05 -0.000622946 2.11993e-06 8.60479e-06 0.000972613)
(0.00389779 -4.53576e-05 -0.000682412 2.22815e-06 1.09558e-05 0.00113845)
(0.0041014 -3.84985e-05 -0.000585016 2.18091e-06 5.95331e-06 0.00107328)
(0.00451507 -4.39424e-05 -0.000508363 2.06457e-06 4.23883e-06 0.00104914)
(0.00472093 -4.48736e-05 -0.000426849 2.15034e-06 3.18256e-06 0.000942728)
(0.00437273 -3.86105e-05 -0.000376862 1.84796e-06 -7.6592e-07 0.00109359)
(0.00425558 -3.79846e-05 -0.000363717 1.9105e-06 -4.27984e-07 0.00109046)
(0.00430295 -4.38334e-05 -0.000455568 1.9703e-06 -8.33673e-07 0.00104555)
(0.00426232 -4.3788e-05 -0.000547133 1.94322e-06 2.55561e-06 0.000962029)
(0.00397312 -3.76806e-05 -0.000453657 1.70879e-06 4.5664e-07 0.000978923)
(0.00399604 -4.20209e-05 -0.000468506 1.91553e-06 -1.76064e-07 0.000970287)
(0.00418059 -5.19348e-05 -0.000456385 2.34427e-06 1.36196e-06 0.000976325)
(0.00426269 -4.4947e-05 -0.000447965 2.72579e-06 3.90539e-06 0.00100519)
(0.00440896 -4.42009e-05 -0.000509223 2.18504e-06 7.25864e-06 0.0011062)
(0.00444044 -4.49621e-05 -0.000442278 2.03819e-06 5.50916e-06 0.0010946)
(0.00416399 -4.44171e-05 -0.000518576 1.83602e-06 5.97024e-06 0.00109766)
(0.00399933 -4.84018e-05 -0.000421985 2.02651e-06 9.63241e-07 0.00104011)
(0.00406983 -4.39728e-05 -0.000456541 2.12451e-06 2.20002e-06 0.00102989)
(0.00436702 -4.08922e-05 -0.00053041 1.9006e-06 1.10578e-06 0.000918053)
(0.00434049 -3.91908e-05 -0.00050949 1.92937e-06 2.55146e-06 0.000901947)
(0.00428537 -4.13096e-05 -0.000608006 1.73271e-06 2.83412e-06 0.00107616)
(0.00447236 -3.90943e-05 -0.000617743 1.73941e-06 1.9947e-06 0.00106322)
(0.0230105 0.000318478 -0.00452554 0.000100635 -7.40767e-05 0.00407759)
(0.0225249 0.000343111 -0.00443121 9.34926e-05 -8.24395e-05 0.00385793)
(0.022188 0.000318922 -0.00417742 8.95891e-05 -7.81342e-05 0.00381398)
(0.0221511 0.000260921 -0.00421977 9.03355e-05 -9.76006e-05 0.00375262)
(0.0224862 0.00044284 -0.00415537 0.000106682 -0.000164073 0.00374344)
(0.0216581 0.000386486 -0.00396494 0.000116221 -0.000176441 0.00342085)
(0.0222733 0.00025067 -0.00436823 0.000106495 -8.42401e-05 0.00335701)
(0.0232188 0.000300153 -0.00427605 9.06928e-05 -6.80792e-05 0.00321115)
(0.0226995 0.000357877 -0.00427713 8.18747e-05 -9.08252e-05 0.00364434)
(0.0238339 0.000351569 -0.00438952 9.26779e-05 -0.000104566 0.00329475)
(0.02357 0.000451642 -0.00488543 0.000103051 -0.000132009 0.00411336)
(0.0240964 0.000491198 -0.00404946 0.000133125 -0.000200264 0.00431779)
(0.0216355 0.000407212 -0.00440893 0.000139817 -0.000215034 0.00472842)
(0.0217888 0.000290128 -0.004454 0.00012722 -0.000178383 0.00439264)
(0.0226902 0.000208365 -0.0046573 0.000110188 -5.79521e-05 0.00443487)
(0.0230749 0.00024027 -0.00473614 9.21449e-05 -1.57675e-05 0.00439744)
(0.020358 0.000355665 -0.00471337 7.23497e-05 -7.76045e-05 0.00396679)
(0.0202199 0.000464442 -0.00401462 7.35388e-05 -8.54272e-05 0.00368916)
(0.0198434 0.000333862 -0.00448704 8.47158e-05 -6.30188e-05 0.00377289)
(0.0202577 0.000313678 -0.00460071 8.39739e-05 -0.000117504 0.00471401)
(0.022309 0.000280389 -0.00405432 9.62048e-05 -0.000152623 0.00459321)
(0.0231755 0.000460744 -0.00413479 0.000107809 -0.000152659 0.00405051)
(0.0242075 0.000540861 -0.0039338 0.000141842 -0.000188156 0.00382525)
(0.0238562 0.000338214 -0.00368682 0.000119779 -6.96404e-05 0.0039809)
(0.0232099 0.000237419 -0.00346112 9.76723e-05 -6.63834e-05 0.00406767)
(0.0238987 0.000369849 -0.00421933 9.78159e-05 -7.66935e-05 0.00375074)
(0.0223047 0.000448876 -0.00433808 9.58183e-05 -0.000197671 0.00389281)
(0.0214102 0.000315164 -0.00347145 8.34595e-05 -0.000167145 0.00359035)
(0.0212679 0.000411021 -0.00408064 8.40967e-05 -0.000170342 0.00360386)
(0.023655 0.000369542 -0.00406466 9.54344e-05 -0.000159599 0.0038437)
(0.0236488 0.000331174 -0.00386123 9.79399e-05 -0.000126679 0.0039302)
(0.0244422 0.000331262 -0.00417446 9.17122e-05 -7.12668e-05 0.00373918)
(0.0250963 0.00046819 -0.00407433 0.000100446 -8.37516e-05 0.00372278)
(0.0222615 0.000516414 -0.00424751 0.000102069 -9.76305e-05 0.00380392)
(0.0208524 0.00049655 -0.00386388 0.000105501 -0.000128335 0.00391772)
(0.0223668 0.00028622 -0.00326572 0.000106124 -0.000124026 0.00382293)
(0.0239098 0.000324676 -0.00376289 9.59559e-05 -0.000109603 0.00332755)
(0.0232109 0.000343366 -0.00357557 9.6181e-05 -4.24247e-05 0.00305162)
(0.0226519 0.000316095 -0.00394244 8.46259e-05 -5.59385e-05 0.00382578)
(0.0247286 0.000326464 -0.00420102 9.71875e-05 -6.2432e-05 0.00420365)
(0.0312002 0.000675841 -0.00589661 0.000594349 -0.000436817 0.00563111)
(0.0337572 0.000678692 -0.00672937 0.000569884 -0.000404569 0.00536842)
(0.0336343 0.000824297 -0.00638004 0.000545937 -0.000489018 0.00571034)
(0.0330105 0.000640961 -0.00596584 0.000551063 -0.000618292 0.00563021)
(0.0304775 0.00110992 -0.0056735 0.000580951 -0.000654343 0.00562202)
(0.0295601 0.000951021 -0.00536206 0.000581887 -0.000591899 0.00518469)
(0.0324022 0.000494649 -0.00625503 0.000602079 -0.000459222 0.00497227)
(0.0343202 0.000257226 -0.00552265 0.000561525 -0.000421141 0.00478048)
(0.0354699 0.000811395 -0.0062458 0.000510846 -0.00045745 0.00543615)
(0.0353442 0.000876595 -0.00697717 0.000560459 -0.000557976 0.00528157)
(0.0326011 0.0010909 -0.00793044 0.000630138 -0.000613966 0.00612357)
(0.0339266 0.00128045 -0.00702516 0.000749709 -0.000692874 0.00598141)
(0.0326328 0.000916058 -0.00773326 0.000731354 -0.000657264 0.00663423)
(0.0314652 0.00082543 -0.00736186 0.000643688 -0.000588679 0.00636793)
(0.0326569 0.000569762 -0.00769174 0.000639904 -0.000336218 0.00644381)
(0.0334359 0.000602101 -0.00775625 0.000533748 -0.000277684 0.00621036)
(0.0311272 0.000862665 -0.0073547 0.000427641 -0.000456448 0.00568145)
(0.0321509 0.00118396 -0.00638607 0.000471016 -0.000499418 0.00563995)
(0.0312182 0.00076069 -0.00721081 0.000525457 -0.000448034 0.00610893)
(0.0291191 0.00059873 -0.00704631 0.000525956 -0.00056733 0.00734801)
(0.0341902 0.000509025 -0.00625302 0.00056408 -0.000601129 0.00701454)
(0.0324617 0.00104793 -0.00648021 0.000585145 -0.000599509 0.00626484)
(0.0340001 0.00118638 -0.00649768 0.000700689 -0.00062278 0.00614001)
(0.0352908 0.000728099 -0.00681442 0.000623496 -0.000405232 0.00635227)
(0.0344664 0.000543313 -0.00628707 0.000574913 -0.000445943 0.00669864)
(0.0363659 0.000921864 -0.00706275 0.000609536 -0.000492082 0.00611429)
(0.0324648 0.000872903 -0.00612908 0.000567689 -0.000615468 0.00610057)
(0.0314071 0.000598656 -0.00510158 0.000470265 -0.000592601 0.00552678)
(0.0314508 0.000967981 -0.00671052 0.000488732 -0.000660085 0.00571593)
(0.0380621 0.00105371 -0.00788563 0.000588563 -0.000710526 0.00646623)
(0.0378821 0.000953149 -0.00676982 0.000613292 -0.000664523 0.00658109)
(0.0385817 0.000818112 -0.00718788 0.000541249 -0.000515348 0.00554971)
(0.0391603 0.00129282 -0.00753272 0.000623819 -0.000518469 0.00539208)
(0.0361034 0.00117492 -0.00745325 0.000601707 -0.000422003 0.00535219)
(0.0307625 0.00120056 -0.00677764 0.000615161 -0.000437021 0.00560666)
(0.0342841 0.000771579 -0.00581681 0.000558772 -0.000523639 0.00561628)
(0.0342379 0.000841438 -0.0053909 0.000567929 -0.000611907 0.00495664)
(0.031012 0.000742431 -0.005182 0.000589118 -0.000414361 0.0047019)
(0.0316051 0.000694201 -0.00539399 0.000539312 -0.000282001 0.00549802)
(0.0343188 0.000455908 -0.00619301 0.000561853 -0.000370788 0.00622247)
(0.0322846 -3.98678e-05 -0.00551274 0.00115095 -0.000549614 0.00616634)
(0.0375284 8.97885e-05 -0.00681655 0.0010507 -0.000561321 0.005999)
(0.0392993 0.000415352 -0.00653237 0.00107068 -0.000707226 0.00601653)
(0.0374152 0.000264913 -0.00573877 0.00110692 -0.000841494 0.00614126)
(0.0300351 0.000902733 -0.00505396 0.00111338 -0.000830164 0.00603067)
(0.030272 0.000754245 -0.00484201 0.00105385 -0.000775294 0.00559859)
(0.0351582 -2.52361e-06 -0.00592151 0.0011491 -0.000585546 0.00523324)
(0.036806 -0.000817749 -0.00437893 0.00114831 -0.00055398 0.00513074)
(0.0374093 0.000459489 -0.00606443 0.00107458 -0.000552351 0.00611089)
(0.0350288 0.000740059 -0.00766972 0.00113961 -0.000713165 0.00651293)
(0.0344061 0.000547681 -0.00789087 0.00127183 -0.000770078 0.00635529)
(0.0369248 0.00101361 -0.00814574 0.00135996 -0.000759004 0.00657217)
(0.0364275 0.000853979 -0.00847246 0.00131895 -0.000820726 0.00721613)
(0.0321494 0.000640037 -0.00727755 0.001226 -0.000858744 0.00724368)
(0.0336378 0.000412873 -0.00711812 0.00128781 -0.000470221 0.00672616)
(0.035672 0.000502569 -0.00786219 0.00101118 -0.000330492 0.00648823)
(0.0346734 0.000713595 -0.00740428 0.000839306 -0.000587841 0.00626095)
(0.035888 0.000984933 -0.00644853 0.00105023 -0.000629044 0.0067174)
(0.0345417 0.000228684 -0.00650966 0.00113472 -0.000509775 0.00690268)
(0.0319845 0.000197724 -0.00733411 0.00103126 -0.000676445 0.00814513)
(0.0380273 0.000327212 -0.00720054 0.00107062 -0.000832422 0.00718655)
(0.0312565 0.00102916 -0.00692897 0.00118383 -0.000953003 0.00685709)
(0.0320929 0.000560068 -0.00649227 0.00136818 -0.000841548 0.00654046)
(0.0349531 0.000496455 -0.00662454 0.00119639 -0.000553582 0.00643234)
(0.034028 0.000158175 -0.0060853 0.00111937 -0.000577344 0.00711456)
(0.0356177 0.000609388 -0.0075904 0.00116532 -0.000610857 0.00678982)
(0.033094 0.000333133 -0.00574605 0.00105371 -0.000772279 0.00707941)
(0.0346666 0.00031058 -0.00531337 0.000835763 -0.000777916 0.0065156)
(0.0352328 0.000613646 -0.00737801 0.000949375 -0.000858329 0.0068106)
(0.0408845 0.00083832 -0.00925261 0.0011995 -0.00107477 0.00753878)
(0.0410483 0.000842997 -0.00622846 0.00119578 -0.000971055 0.00721341)
(0.0415621 0.000811394 -0.00778445 0.00105726 -0.000868904 0.00637211)
(0.0416962 0.00123977 -0.0088192 0.00133554 -0.000920216 0.00654264)
(0.040891 0.00109224 -0.00856689 0.00125923 -0.000637328 0.00613419)
(0.0343261 0.000963019 -0.00765232 0.00119778 -0.00067596 0.00642834)
(0.0349119 0.000809562 -0.00645737 0.00105608 -0.000817069 0.0060123)
(0.0346221 0.000491493 -0.00528842 0.00113956 -0.000920063 0.00548848)
(0.0321602 0.000192622 -0.005234 0.00118233 -0.000707469 0.00563958)
(0.0329546 0.000356902 -0.00567732 0.00108497 -0.000306322 0.00624547)
(0.0329311 -4.2256e-05 -0.00620975 0.00112021 -0.000488137 0.0067438)
(0.0313278 -0.000734556 -0.00525505 0.00177585 -0.00079396 0.00688747)
(0.0347218 -0.000295394 -0.00599161 0.00156314 -0.00085154 0.00675957)
(0.0367445 -0.000141507 -0.00636041 0.00167314 -0.000954996 0.00649103)
(0.0358935 -0.000453339 -0.00569651 0.00168489 -0.00103616 0.00680665)
(0.0285922 0.000463782 -0.00472007 0.00167767 -0.00115869 0.0064619)
(0.0293061 0.000231915 -0.00417537 0.00162762 -0.00109316 0.00611067)
(0.0342218 -0.000744601 -0.00525361 0.00174101 -0.000786583 0.00569306)
(0.0347636 -0.00169662 -0.00395707 0.00178216 -0.000800444 0.00605534)
(0.0346158 -5.26715e-05 -0.00555376 0.00172489 -0.000785952 0.0070044)
(0.0296587 0.000387181 -0.00647042 0.00182388 -0.000917709 0.00742578)
(0.035401 3.77744e-05 -0.00669568 0.00190734 -0.00103198 0.00659497)
(0.036099 0.000321574 -0.00789811 0.00191997 -0.000952911 0.00726231)
(0.0352963 0.000598093 -0.00836467 0.00203199 -0.00104632 0.00794835)
(0.0308527 0.000152538 -0.00731135 0.00194491 -0.00113707 0.00785586)
(0.0347715 -0.000262283 -0.00671494 0.0020267 -0.00065294 0.00715937)
(0.034383 0.000268671 -0.00707502 0.00157619 -0.000422141 0.00667071)
(0.0349574 0.000293472 -0.00700621 0.00137378 -0.000657191 0.00650719)
(0.0332704 0.00023486 -0.00646083 0.0017547 -0.000719656 0.00732591)
(0.0335808 -0.000529444 -0.00558822 0.00181505 -0.000708352 0.00717502)
(0.0330457 -2.65244e-05 -0.00694962 0.00155799 -0.000983812 0.00814796)
(0.0354686 8.69647e-05 -0.00694364 0.00161068 -0.00121484 0.00725847)
(0.0288467 0.000687524 -0.00657495 0.00189634 -0.00131925 0.00757517)
(0.0276348 -0.000353106 -0.00565002 0.00209147 -0.00111137 0.00693933)
(0.0292809 0.000406917 -0.0057329 0.00186728 -0.000870341 0.00639755)
(0.0331196 -0.000533829 -0.0055774 0.00171872 -0.000809331 0.00699926)
(0.0322335 4.32035e-05 -0.00689312 0.00168547 -0.000935746 0.00708494)
(0.032981 -0.000548538 -0.00546894 0.00162024 -0.0010631 0.00722978)
(0.0360515 3.33649e-06 -0.00599113 0.00123115 -0.0009396 0.00698137)
(0.034518 -5.76739e-05 -0.00730725 0.00146111 -0.0010863 0.00720174)
(0.0410306 0.000226137 -0.00775294 0.00179981 -0.00146347 0.00739391)
(0.0397426 0.000577718 -0.00649909 0.00172135 -0.00134079 0.00707125)
(0.0380332 0.00053764 -0.00726007 0.0015966 -0.00128287 0.00692862)
(0.041929 0.000656053 -0.00943927 0.0021242 -0.00136433 0.00728674)
(0.0382856 0.000855396 -0.00851763 0.00197628 -0.000978871 0.00691961)
(0.0342706 0.000604507 -0.00756995 0.00187805 -0.00105221 0.00700436)
(0.0311975 0.000826221 -0.00649961 0.00163332 -0.00104145 0.00669952)
(0.0334125 6.78657e-05 -0.00563065 0.00170617 -0.00122503 0.00646516)
(0.0333552 -0.000291713 -0.00559906 0.00178576 -0.00108668 0.00626829)
(0.033222 1.02454e-05 -0.00619278 0.00164661 -0.000407666 0.00677634)
(0.0301861 -0.000418829 -0.00578265 0.00168985 -0.000685272 0.0072369)
(0.0288037 -0.00107237 -0.0047606 0.00224789 -0.000875204 0.00702588)
(0.0304803 -0.000447966 -0.00535037 0.00201491 -0.000916388 0.00662548)
(0.0317499 -0.000863079 -0.00610902 0.00221683 -0.000971983 0.00646192)
(0.0332488 -0.00130293 -0.00551537 0.00216386 -0.000943243 0.00640988)
(0.0269126 -0.000231528 -0.00390386 0.00212927 -0.00129156 0.0063411)
(0.0298825 -0.000478129 -0.00389769 0.00215235 -0.00121314 0.0062366)
(0.0328079 -0.00150272 -0.00529984 0.00221309 -0.000753576 0.00588703)
(0.0332778 -0.00203378 -0.00429015 0.00231981 -0.000891091 0.00659931)
(0.0336062 -0.000902597 -0.0045885 0.00237097 -0.000880294 0.00716026)
(0.0287402 -0.000649983 -0.00564247 0.00252197 -0.000754719 0.00748764)
(0.0354645 -0.000350861 -0.00586022 0.00241692 -0.000945081 0.00684249)
(0.0377595 -0.0002422 -0.00722447 0.00236238 -0.000960055 0.00754249)
(0.0316128 0.000411438 -0.00798129 0.00270267 -0.000998495 0.00835513)
(0.0303228 -0.000111778 -0.00746726 0.00257736 -0.00112291 0.00826749)
(0.0325828 -0.000855707 -0.00641586 0.00271748 -0.000746381 0.00741461)
(0.0288759 -0.000125781 -0.00566976 0.00216691 -0.000350948 0.00672127)
(0.0309044 -0.000109092 -0.00632726 0.00192111 -0.000521927 0.006682)
(0.0314587 -0.00051612 -0.00574386 0.00235845 -0.000747206 0.00696813)
(0.0306064 -0.000835566 -0.00507313 0.00250047 -0.000835329 0.00683244)
(0.0325645 -0.000390905 -0.00622509 0.00206938 -0.0010977 0.00737936)
(0.0334915 -0.000350887 -0.00519827 0.00214465 -0.00130126 0.00699465)
(0.0291634 -2.39406e-05 -0.00495373 0.00246762 -0.00141257 0.00773432)
(0.0283053 -0.00115293 -0.00490487 0.002567 -0.00135552 0.00717259)
(0.0274472 0.000100975 -0.00546393 0.00242034 -0.0010709 0.0066627)
(0.0330589 -0.000986246 -0.00535317 0.00227004 -0.000910695 0.00697643)
(0.031809 -0.000474603 -0.00580244 0.00212522 -0.00113917 0.00715197)
(0.0328765 -0.00129644 -0.00533549 0.00209204 -0.00114997 0.00715754)
(0.0345436 -0.000563329 -0.00573072 0.00161436 -0.00095035 0.00664808)
(0.032387 -0.00100826 -0.00660234 0.00201174 -0.0011788 0.0067671)
(0.0395935 -0.000556363 -0.0060506 0.00228059 -0.00163835 0.00684003)
(0.0375265 -7.3537e-06 -0.00646178 0.00211909 -0.00134732 0.00650763)
(0.0374758 -0.000179759 -0.00644003 0.00203673 -0.00140648 0.00683533)
(0.0393819 -0.00017631 -0.00824347 0.00265524 -0.00153033 0.00709294)
(0.0370919 0.000443941 -0.00759311 0.00246671 -0.001195 0.00703188)
(0.0374584 0.000169185 -0.00725074 0.00233245 -0.00115645 0.00683787)
(0.0326999 0.000528637 -0.00664063 0.00206564 -0.00111735 0.00697115)
(0.0321431 -2.59454e-05 -0.00581252 0.00217723 -0.00138011 0.00675868)
(0.0312271 -0.000477901 -0.00576996 0.00230999 -0.00122448 0.00626148)
(0.0317404 -0.00037162 -0.00641746 0.0021616 -0.000463611 0.00678612)
(0.0289167 -0.000781823 -0.00524347 0.00215152 -0.000758307 0.00699919)
(0.0287105 -0.00110831 -0.00452476 0.0026405 -0.000805055 0.00663532)
(0.0288075 -0.000717575 -0.00527216 0.00251496 -0.000831597 0.00642092)
(0.0299384 -0.00169736 -0.00604713 0.00272262 -0.00084009 0.00641901)
(0.031481 -0.00167658 -0.00560141 0.00258859 -0.000735378 0.00625746)
(0.0257961 -0.000774226 -0.003806 0.00254898 -0.00120719 0.00643119)
(0.0296985 -0.00105824 -0.00401513 0.00265485 -0.00118763 0.00649767)
(0.0315038 -0.00173924 -0.00548242 0.00262668 -0.000595193 0.00600999)
(0.0333828 -0.00219772 -0.00435043 0.00278961 -0.000890749 0.006508)
(0.0330689 -0.00187022 -0.00441484 0.00294806 -0.000857873 0.00666343)
(0.0309832 -0.00153996 -0.00545398 0.00314119 -0.000599727 0.00736723)
(0.0342969 -0.000940283 -0.00524323 0.00286128 -0.0007262 0.00661129)
(0.0372449 -0.00067311 -0.00691499 0.00292045 -0.000880942 0.00690018)
(0.030612 -4.78211e-05 -0.00785892 0.0033357 -0.000942926 0.00755627)
(0.0320798 -0.000513614 -0.00802005 0.00317658 -0.000901068 0.00842581)
(0.0325093 -0.00138435 -0.00649883 0.00331181 -0.00080498 0.00770017)
(0.0270595 -0.000726454 -0.00519357 0.00271051 -0.000305684 0.006983)
(0.0289802 -0.000468905 -0.00608859 0.00242351 -0.000321389 0.00655643)
(0.0310533 -0.00100151 -0.00513444 0.00295321 -0.000698284 0.00620185)
(0.0285226 -0.000949111 -0.00458975 0.00320535 -0.000902088 0.00602122)
(0.0320923 -0.000482081 -0.00567858 0.0025901 -0.00110177 0.00648572)
(0.0320672 -0.000729532 -0.00412156 0.00263894 -0.00115468 0.00650546)
(0.0285173 -0.000548699 -0.0040239 0.00296291 -0.00132702 0.00672121)
(0.0295764 -0.00154706 -0.00471202 0.00295641 -0.0014052 0.00645436)
(0.0295476 -0.000435028 -0.00595526 0.00282515 -0.00112092 0.00671454)
(0.0314558 -0.00143408 -0.00555724 0.00270596 -0.00105274 0.00706055)
(0.0317497 -0.000917853 -0.00516174 0.00257087 -0.00118301 0.00694133)
(0.0315053 -0.00177014 -0.00545967 0.00251643 -0.00113625 0.00690597)
(0.0321051 -0.000885713 -0.00556241 0.00204977 -0.000854556 0.00647037)
(0.0334953 -0.0019489 -0.00586625 0.00250317 -0.00111261 0.00644661)
(0.0375431 -0.00112649 -0.00572861 0.00270548 -0.00144745 0.00653064)
(0.0375528 -0.000632739 -0.00612194 0.00241554 -0.00110615 0.00627665)
(0.0361033 -0.000926414 -0.00603294 0.00235696 -0.00131161 0.00676988)
(0.0364364 -0.00071506 -0.0062429 0.00307202 -0.00151556 0.00699878)
(0.0356487 8.80072e-05 -0.00629748 0.00283743 -0.0011675 0.00678712)
(0.03872 -0.000376197 -0.00629812 0.00262537 -0.00118376 0.00655853)
(0.0359038 -0.000149765 -0.00703381 0.00244343 -0.00101052 0.00676691)
(0.0326139 -0.000137352 -0.00581099 0.00260642 -0.0013667 0.00633727)
(0.0289868 -0.000357551 -0.00595383 0.0027841 -0.00126014 0.00612489)
(0.0308318 -0.000929358 -0.0060084 0.00268508 -0.000557517 0.00648494)
(0.0276702 -0.0007916 -0.00509078 0.00248451 -0.00073463 0.00631327)
(0.0310606 -0.00101471 -0.00474372 0.0028454 -0.000593924 0.0063378)
(0.0265788 -0.00111683 -0.00441341 0.00286456 -0.000568449 0.00639617)
(0.0316301 -0.00246639 -0.00597362 0.00303697 -0.000450034 0.00632588)
(0.0314379 -0.00190297 -0.00548361 0.00289642 -0.000489184 0.00617428)
(0.0264825 -0.00117608 -0.00442366 0.00285989 -0.00098189 0.00680454)
(0.0296771 -0.00164701 -0.00441716 0.00299055 -0.00108092 0.00642316)
(0.0316703 -0.0020205 -0.00538525 0.00294956 -0.000460791 0.00588125)
(0.0311808 -0.00249046 -0.00408661 0.00313928 -0.000736169 0.00607897)
(0.0315021 -0.00228569 -0.00514278 0.00345994 -0.000792966 0.006791)
(0.0316613 -0.00225465 -0.00562949 0.00368059 -0.000378667 0.00734243)
(0.033514 -0.00175296 -0.00514905 0.00325677 -0.000359702 0.0064632)
(0.0371909 -0.00139579 -0.0068647 0.00340298 -0.000599152 0.00624694)
(0.0318881 -0.000697127 -0.00772132 0.00382363 -0.000641394 0.00686566)
(0.0302077 -0.00105128 -0.00819507 0.00364449 -0.000469355 0.00800731)
(0.0322988 -0.001754 -0.00741161 0.00366664 -0.000579634 0.00793559)
(0.029596 -0.00104566 -0.00584396 0.00315557 -0.000297469 0.00745342)
(0.0290421 -0.000582655 -0.00589697 0.00280865 -0.000196259 0.00633873)
(0.0301978 -0.00150812 -0.00537171 0.00348053 -0.000436051 0.00579996)
(0.0280348 -0.00153606 -0.00465748 0.00367363 -0.000777432 0.00547255)
(0.0323387 -0.000792028 -0.00571412 0.00299999 -0.00100722 0.00594356)
(0.0329027 -0.000883143 -0.00419321 0.00291604 -0.000881214 0.0056234)
(0.0286919 -0.000818903 -0.00384859 0.00327935 -0.00104614 0.00548056)
(0.0280777 -0.0018694 -0.00437903 0.00317869 -0.00106442 0.0058923)
(0.028321 -0.00120698 -0.00624423 0.00311444 -0.000899247 0.00662984)
(0.0300325 -0.00167778 -0.00566589 0.00300018 -0.000932348 0.00712654)
(0.0303835 -0.00118255 -0.0052053 0.00292342 -0.00104241 0.00685963)
(0.0300413 -0.00205359 -0.0062619 0.00286808 -0.00091297 0.00682109)
(0.030068 -0.00122258 -0.00599027 0.00247943 -0.000710928 0.00686761)
(0.0331295 -0.00255596 -0.00573695 0.00293385 -0.000926262 0.00664977)
(0.0348748 -0.00153499 -0.0058724 0.0031367 -0.00110407 0.00631683)
(0.0321295 -0.00106009 -0.00607645 0.00280315 -0.000829408 0.00651016)
(0.0330926 -0.00131623 -0.00569939 0.00261544 -0.00109151 0.00667356)
(0.0339093 -0.000878754 -0.00499787 0.0032327 -0.00113536 0.00699441)
(0.0324537 -0.000384993 -0.0052172 0.00300854 -0.000841455 0.00646062)
(0.0329162 -0.000935457 -0.00528155 0.00280755 -0.000928182 0.00661429)
(0.0336655 -0.000746476 -0.00645871 0.00276287 -0.000885238 0.00674839)
(0.0328138 -0.000506028 -0.00586978 0.00290736 -0.00113751 0.00622147)
(0.029289 -0.000634172 -0.00598837 0.00315586 -0.00108142 0.00601261)
(0.0316533 -0.00151377 -0.00578599 0.00308008 -0.000517319 0.00584997)
(0.0288597 -0.000757659 -0.00564239 0.00268546 -0.000576218 0.00565838)
(0.0333044 -0.00103255 -0.0057998 0.00302424 -0.000406034 0.00641421)
(0.0255429 -0.00154505 -0.00458644 0.00320968 -0.000347139 0.0064681)
(0.0317831 -0.00281105 -0.00656916 0.00335863 -5.93849e-05 0.00624752)
(0.0336906 -0.00214612 -0.0058641 0.0030887 -0.000252922 0.006235)
(0.0294806 -0.00148014 -0.00552322 0.00304619 -0.000598082 0.00691725)
(0.0321242 -0.00176242 -0.00521633 0.00315702 -0.000855425 0.00660413)
(0.033191 -0.00198903 -0.00602356 0.00316219 -0.000413711 0.00597162)
(0.0304355 -0.0025006 -0.00468955 0.00336952 -0.000577804 0.00560158)
(0.0306412 -0.00241836 -0.00573733 0.00398508 -0.000614797 0.00726364)
(0.0313119 -0.00285546 -0.00595805 0.0041223 -0.000109247 0.00809525)
(0.0331583 -0.00232306 -0.00530627 0.00360672 -0.000284881 0.00665623)
(0.0354746 -0.00193965 -0.00644005 0.00390239 -0.000375699 0.00614984)
(0.0326847 -0.00100307 -0.00779604 0.00420041 -0.000371513 0.00707841)
(0.0310074 -0.00133426 -0.00849869 0.00393903 -0.000233522 0.00795612)
(0.0329227 -0.00182445 -0.00811345 0.00387902 -0.00010191 0.0079228)
(0.0316654 -0.00123121 -0.00663382 0.0034532 -4.69247e-05 0.00750622)
(0.031497 -0.000607182 -0.00597468 0.00311311 4.63294e-05 0.00663979)
(0.0315486 -0.00160897 -0.00615401 0.00393028 -0.000260501 0.00605541)
(0.0299097 -0.0015241 -0.0055319 0.00407546 -0.000677785 0.0055126)
(0.0315931 -0.000756661 -0.00615484 0.00348673 -0.00113148 0.00608193)
(0.0309799 -0.00099887 -0.00529661 0.00318901 -0.00080211 0.00574575)
(0.0284211 -0.0011633 -0.00503908 0.00351882 -0.000777214 0.00556369)
(0.0291011 -0.00234709 -0.00440859 0.00337928 -0.000745302 0.00593618)
(0.0280007 -0.00184207 -0.00663926 0.00331123 -0.00067866 0.00678927)
(0.0298796 -0.00145379 -0.00629983 0.00325626 -0.000606764 0.00736057)
(0.0297925 -0.00132288 -0.00572878 0.00335961 -0.000824496 0.00737631)
(0.0309663 -0.00230135 -0.00688184 0.00316092 -0.000560658 0.00718122)
(0.0283406 -0.00160192 -0.00637249 0.00291948 -0.000418963 0.0071864)
(0.0319493 -0.00269432 -0.00589348 0.00340456 -0.000630701 0.00695478)
(0.0330702 -0.00191358 -0.00595735 0.00360541 -0.000826441 0.00607913)
(0.0279992 -0.00106832 -0.00584803 0.00317179 -0.000675688 0.00590145)
(0.0304779 -0.0012934 -0.00625552 0.00290472 -0.000860094 0.00598927)
(0.0335744 -0.000887938 -0.0051894 0.00327485 -0.000805635 0.00653507)
(0.0295122 -0.000541209 -0.00518572 0.00309357 -0.000511354 0.00613643)
(0.031005 -0.00136269 -0.00500123 0.00289272 -0.000574931 0.00649902)
(0.0325306 -0.000807619 -0.00612334 0.00291461 -0.000765039 0.00684723)
(0.031421 -0.000691972 -0.00574997 0.00309748 -0.000986503 0.00623479)
(0.0299091 -0.000982986 -0.00643078 0.00344509 -0.000799585 0.00588781)
(0.0318179 -0.00174077 -0.006158 0.00320299 -0.000379937 0.00551927)
(0.0326933 -0.000823097 -0.00703674 0.00279855 -0.000396477 0.00581706)
(0.0347279 -0.000999229 -0.00812618 0.00309991 -0.000134117 0.00699064)
(0.0277016 -0.00196394 -0.00678867 0.00339204 -4.62777e-05 0.00715621)
(0.0321964 -0.00274114 -0.00788065 0.0034756 0.000216222 0.00683223)
(0.0337014 -0.00200456 -0.00672259 0.00316465 -3.91491e-06 0.00647807)
(0.0331902 -0.0014281 -0.00675655 0.00308364 -0.000129554 0.00723033)
(0.0346419 -0.00118171 -0.00604725 0.00333098 -0.000570306 0.00725267)
(0.0335046 -0.00167722 -0.00744221 0.00335358 -0.000242538 0.0065534)
(0.0329194 -0.00210144 -0.00706515 0.00351243 -0.000530798 0.00636824)
(0.033792 -0.00283944 -0.00654164 0.00432716 -0.00046423 0.00790442)
(0.0309194 -0.00319312 -0.00610836 0.0043592 4.04569e-05 0.00835116)
(0.0325755 -0.002812 -0.00588265 0.00379338 -0.000201224 0.00704945)
(0.0344364 -0.00225941 -0.00673279 0.00416609 -1.87465e-05 0.00696457)
(0.0342249 -0.00127588 -0.00836326 0.00426771 1.54037e-06 0.00782943)
(0.0358671 -0.00124233 -0.00979136 0.00402145 -2.45228e-05 0.00857757)
(0.0336393 -0.00157384 -0.00868728 0.00396632 0.000137701 0.00814931)
(0.0310023 -0.00164174 -0.00719241 0.0036004 0.00026734 0.00747269)
(0.032997 -0.00110808 -0.00640428 0.00330703 0.000352663 0.00657102)
(0.0332023 -0.00135333 -0.00684166 0.00414613 -5.91353e-05 0.00616711)
(0.0334975 -0.00129745 -0.00709849 0.00427352 -0.000443126 0.00587719)
(0.0312815 -5.87766e-05 -0.00780997 0.00367964 -0.0012173 0.00674916)
(0.0313263 -0.000488321 -0.00756822 0.00340158 -0.000795678 0.00668516)
(0.0276386 -0.00111156 -0.00624988 0.00356601 -0.000596789 0.00638285)
(0.030313 -0.00237556 -0.00615076 0.00359349 -0.000465895 0.0064368)
(0.0302474 -0.00205797 -0.00767541 0.00343519 -0.000391678 0.00711016)
(0.0316486 -0.00149345 -0.00792474 0.00335947 -0.000156807 0.00793566)
(0.0309379 -0.00109285 -0.00698126 0.00360355 -0.000689076 0.00778688)
(0.0332489 -0.00201989 -0.00765266 0.0033553 -0.000486375 0.00733982)
(0.0295976 -0.00142735 -0.00767037 0.00326923 -0.000237665 0.00731961)
(0.0326159 -0.00252747 -0.00698351 0.00364637 -0.000521709 0.00736671)
(0.0294322 -0.00239215 -0.00631277 0.00393851 -0.000658755 0.00637651)
(0.0282769 -0.00120074 -0.00649252 0.00353869 -0.000316047 0.0058844)
(0.0298252 -0.000869419 -0.00748331 0.00315432 -0.000657195 0.00573257)
(0.0342612 -0.000395236 -0.00632557 0.00327832 -0.000721344 0.00625718)
(0.0319463 -0.000419308 -0.0061071 0.0030066 -0.000411712 0.00624561)
(0.034555 -0.00157256 -0.00568478 0.00281553 -0.000336744 0.00628047)
(0.034693 -0.000830894 -0.00625026 0.00306868 -0.000400676 0.0066877)
(0.0312512 -0.000862149 -0.00595719 0.00325394 -0.000603951 0.00590755)
(0.032229 -0.00165983 -0.00680174 0.00350639 -0.000401947 0.00597052)
(0.0339904 -0.00190174 -0.00767638 0.00309086 -0.000248021 0.00642456)
(0.0350551 -0.000931584 -0.00823757 0.00275674 -0.000153745 0.00650888)
(0.0337431 -0.00126814 -0.00914457 0.00309319 8.78099e-05 0.00810616)
(0.030262 -0.00178247 -0.00858523 0.00328614 -0.000135582 0.00817309)
(0.0303777 -0.00214316 -0.00876661 0.00345917 5.10262e-05 0.00802668)
(0.0304858 -0.00139301 -0.00698841 0.00330513 -6.6262e-05 0.00733136)
(0.0323889 -0.00121391 -0.00763714 0.00327321 -6.21171e-05 0.00817569)
(0.0347873 -0.000436298 -0.00715767 0.00347261 -0.000526977 0.00791733)
(0.0331839 -0.00107379 -0.00758074 0.00350475 -0.00037769 0.00717296)
(0.036821 -0.00192501 -0.00866107 0.00372888 -0.000589455 0.0074436)
(0.0365033 -0.00276041 -0.00789486 0.0046167 -0.000470897 0.00840974)
(0.0322394 -0.00276201 -0.00766893 0.00467377 -9.72785e-05 0.00879045)
(0.0341847 -0.00281069 -0.00733657 0.00385238 -0.000213949 0.0073675)
(0.0352664 -0.00221125 -0.00743419 0.00418823 8.61858e-05 0.00744881)
(0.0352146 -0.00167944 -0.00857321 0.00454551 0.000272761 0.00815545)