/*--------------------------------*- C++ -*----------------------------------*\
  =========                 |
  \\      /  F ield         | OpenFOAM: The Open Source CFD Toolbox
   \\    /   O peration     | Website:  https://openfoam.org
    \\  /    A nd           | Version:  10
     \\/     M anipulation  |
\*---------------------------------------------------------------------------*/
FoamFile
{
    format      ascii;
    class       volTensorField;
    location    "20";
    object      gradientUWrite;
}
// * * * * * * * * * * * * * * * * * * * * * * * * * * * * * * * * * * * * * //

dimensions      [0 0 -1 0 0 0 0];

internalField   nonuniform List<tensor> 
25600
(
(0.905868 -0.0401313 -0.0769354 99.9658 -1.65152 -52.1682 3.25947 0.0668691 -1.09844)
(-0.632977 0.0986916 0.805007 104.853 -2.72664 -16.5946 -0.350286 0.145174 1.39941)
(-0.684863 0.0191361 0.269065 53.2818 -1.44681 4.25148 -0.560278 -0.0551634 0.23528)
(-0.227133 0.00621359 -0.0364605 49.5524 -1.37242 -1.3244 -0.2685 -0.0377545 -0.252489)
(-0.337079 0.0744748 0.347283 35.9884 -1.37072 0.301344 -1.73357 0.0233409 0.389744)
(-0.292438 -0.0647524 0.0729033 27.4547 -0.673145 16.1465 -1.81901 -0.142309 -0.230303)
(-0.0786658 -0.0869339 -0.373094 28.0971 0.033251 2.52373 0.248808 -0.275307 -1.66852)
(-0.0733063 0.160288 0.166924 28.6945 -0.902696 -2.22675 0.493717 -0.0881165 -1.00224)
(-0.240521 0.0507798 -0.27584 16.3807 -0.688385 13.5509 -1.2485 -0.109724 -0.564105)
(0.848447 -0.175553 -0.922246 23.4289 -0.814725 -17.6059 0.94989 -0.0696494 -1.9243)
(1.19638 -0.0941988 -0.165233 80.5702 -1.74893 -45.7923 2.90134 -0.0463684 -1.57957)
(-0.172655 0.00945199 0.41452 105.354 -1.588 -36.5189 3.22548 0.0125885 -0.246327)
(-0.796548 0.0408492 0.240432 64.3982 -1.09172 -13.8413 0.902774 0.0186815 0.0611903)
(-0.364096 0.0687197 0.188187 37.3736 -1.1776 -9.0797 1.01405 -0.131425 -0.354784)
(-0.154807 0.0655925 0.395233 36.3847 -1.45699 -1.23339 0.164092 -0.0483099 -0.161883)
(0.275602 -0.0142105 -0.0685958 26.063 -1.17664 9.8951 -0.216376 -0.0961079 -0.617748)
(0.166176 0.0123235 0.0154076 52.1066 -2.21476 -5.31963 0.419145 0.0934458 0.32035)
(-0.594825 -0.00373199 0.0988804 31.0677 -1.3139 10.4947 -1.38371 -0.0509043 0.134058)
(-0.231819 -0.0682785 -0.501657 17.4711 -0.0301758 -0.676032 -0.259218 -0.0913201 -1.25385)
(0.470517 0.012391 0.00585894 29.3356 -1.31516 -18.2768 0.401066 -0.252463 -0.878415)
(0.016918 0.0346891 0.485548 46.0615 -1.75442 -2.09638 -0.431938 -0.0481443 -0.014199)
(-0.250865 -0.0475113 -0.28237 21.3217 -0.574862 9.18134 -0.339797 -0.0432986 -0.973857)
(0.816114 -0.0379908 -0.523399 33.1611 -1.37469 -15.0251 0.815686 -0.146323 -1.18058)
(0.346937 0.0926973 0.476633 70.4559 -2.1232 -23.403 0.233377 0.258523 0.395758)
(-0.654357 0.0671803 0.65175 44.8233 -1.69528 11.6614 -1.35506 0.116442 0.741105)
(-0.250047 -0.116276 -0.300444 29.2794 -0.68722 13.4851 -1.43925 -0.0711339 -0.645011)
(0.992148 -0.111577 -0.849069 37.7716 -1.04372 -6.23652 0.730089 -0.129214 -1.64692)
(0.502676 0.0447476 0.00769045 81.3161 -3.12534 -28.5013 0.343821 0.221359 0.617161)
(-0.724084 0.122252 0.678316 57.1075 -2.61248 -8.32774 -1.70856 0.280116 1.26764)
(-0.0707226 0.0270708 0.389642 44.7968 -1.95434 3.71844 -1.71734 0.171472 0.727384)
(0.177297 -0.00220178 0.48779 52.138 -1.92444 15.4372 -2.02231 0.162257 0.269178)
(-0.327302 0.0208681 0.237921 46.4253 -0.688853 29.6937 -3.07373 -0.0453143 -0.248545)
(-0.160325 -0.0810197 -0.618498 34.5884 0.261224 25.3757 -2.62483 -0.144364 -1.4728)
(0.498405 -0.0289566 -0.633471 44.7051 -1.0071 -2.88571 -0.538252 0.0542837 -0.919792)
(0.139063 0.0294165 0.264839 66.7984 -2.64987 -7.2578 -1.00994 0.126989 0.650745)
(-0.588357 0.053217 0.516182 49.2255 -0.618929 12.4593 -2.31052 -0.0338824 0.0887976)
(-0.657613 0.0592808 0.0212946 31.0412 -0.332641 18.8499 -2.15155 -0.0561041 -0.12601)
(-0.192831 -0.0363547 -0.224394 19.761 -1.12888 13.7331 -1.01595 0.0547306 -0.432687)
(0.310715 -0.0536432 -0.473231 23.7328 -0.388649 9.89155 -0.242418 -0.213504 -1.62658)
(1.09497 -0.10701 -0.912369 35.9054 -0.156556 -3.66695 1.76797 -0.230992 -2.51383)
(2.6034 -0.0900434 -0.590344 48.6625 4.25863 -29.6263 5.52651 -0.381821 -2.12668)
(-1.74117 -0.0978721 2.06025 51.6201 1.84911 -22.5203 -1.77059 -0.140136 3.46388)
(-2.13397 0.0496561 0.501311 30.4432 3.71273 -8.53191 -2.40921 0.0805494 1.81498)
(-0.653065 -0.00286198 -0.166136 27.0846 4.2939 -15.5117 -0.707393 0.111406 -0.0040819)
(-0.78297 -0.0454117 0.530172 28.4003 3.57782 -22.5883 -2.68897 0.268121 0.0912774)
(-0.0903385 0.14453 0.0358411 17.4193 3.44952 -14.5021 -2.57211 0.424732 -0.754694)
(0.151262 0.0836414 -0.548893 26.5502 7.32021 -18.4328 2.39755 0.28435 -3.46883)
(-0.531093 -0.213993 0.392127 31.5201 5.31587 -18.2705 2.0852 0.0955475 -1.59578)
(-0.0103549 -0.0512643 -0.499547 21.0412 3.0464 -14.8719 -1.00899 0.31581 -0.203711)
(2.41814 0.137735 -2.08393 25.0055 4.35514 -15.757 2.6395 -0.0798425 -2.9254)
(2.9614 0.0632439 -0.805719 40.8808 2.99353 -23.4841 4.87999 -0.242433 -2.11851)
(-0.654444 0.0239167 1.21223 76.0429 4.98429 -34.665 5.91862 -0.207819 -0.489751)
(-2.67314 -0.0235061 1.16817 54.3374 5.85686 -26.011 2.55535 -0.0892671 0.294744)
(-1.06213 -0.0946624 0.451275 37.0051 5.11875 -17.7517 1.79134 0.129224 -0.451068)
(-0.420259 -0.0721008 0.555949 33.827 3.81639 -17.2674 -0.00805256 0.111376 0.250911)
(0.517707 -0.023933 -0.137893 17.5685 3.55278 -11.1336 -0.38965 0.104186 -1.0846)
(0.0785103 -0.0207225 0.0143585 30.0167 2.81108 -18.2391 0.284958 -0.046419 0.568031)
(-1.15407 0.118166 0.133681 16.0683 3.15075 -12.0444 -2.0523 0.258847 0.649441)
(0.164567 0.07504 -0.950384 16.535 5.64081 -14.9701 0.67059 0.0952236 -2.32338)
(0.975185 -0.103655 -0.0806031 28.7359 4.2725 -21.8086 2.48861 0.132586 -2.00734)
(-0.43703 0.00049434 0.89953 28.2449 3.5156 -19.875 -0.269504 0.145857 0.0745418)
(-0.397604 0.0720884 -0.364424 14.8633 4.68878 -10.4035 -0.153392 -0.00447817 -1.25691)
(1.66765 -0.0390515 -1.12554 24.268 3.48794 -15.9787 2.72512 -0.112408 -2.02582)
(0.227274 -0.118705 0.869047 34.1405 3.19251 -27.2157 -0.0389497 -0.377612 0.257339)
(-1.43009 0.00107701 1.20906 20.8383 2.74059 -16.9737 -1.79158 0.0833235 1.55957)
(-0.0931284 0.161921 -0.603988 13.8898 4.03485 -10.6937 -1.91686 0.261854 -0.845074)
(1.62556 -0.00456408 -1.2582 29.2778 5.55854 -21.4699 2.56468 0.0152914 -3.62947)
(0.456613 -0.131129 -0.117645 20.8901 2.41423 -5.08928 0.0255797 -0.486467 1.03829)
(-1.11024 -0.0733365 0.936099 20.1336 2.57583 -13.8779 -1.92866 -0.143179 1.5272)
(-0.18167 0.00614573 0.812197 22.7253 1.69276 -19.8043 -2.69142 -0.0341639 1.12972)
(-0.110001 0.0684946 0.819639 19.4305 3.8504 -12.0454 -3.83165 0.128203 -0.0662211)
(-0.556261 0.0911618 0.257192 10.9992 3.58988 -10.2967 -4.69128 0.529763 -0.760661)
(0.0865416 0.0725047 -1.02067 12.326 5.23498 -12.8791 -3.98663 0.301409 -2.91073)
(1.13349 -0.12014 -1.00703 19.7049 4.36111 -16.4003 -0.934977 -0.20801 -2.43736)
(0.0830519 -0.0120907 0.509864 31.2078 2.50852 -23.3012 -1.26423 -0.0468286 0.757415)
(-1.21975 0.0624473 0.795321 19.2039 4.67433 -13.6119 -4.32828 0.284466 -0.0961792)
(-0.815018 -0.091834 0.0430844 14.2532 4.46773 -10.4499 -4.51031 0.327293 -0.577641)
(-0.169472 0.0370657 -0.220894 22.171 2.98537 -16.4201 -1.09057 -0.00790272 -0.397072)
(0.501143 0.109774 -0.387932 15.246 5.15012 -9.2824 0.370357 0.161809 -1.85679)
(2.77578 0.0517743 -2.23663 8.97474 4.99972 1.80548 4.5535 -0.0113651 -4.18219)
(3.18534 -0.216087 -1.42268 5.57864 -3.54525 15.1683 4.85439 -0.738256 -2.95269)
(-1.56854 0.0869943 1.89099 2.19213 -4.56678 -11.9872 -4.49038 0.121649 2.91863)
(-1.94909 0.156494 0.648364 16.1607 -4.38029 -1.28457 -2.84928 0.22853 3.93306)
(-0.301874 -0.00062718 -0.830782 9.13291 -3.3354 -1.83623 -1.12697 -0.0707771 0.974387)
(-0.847593 0.0379676 0.386977 20.2291 -1.36036 -17.2409 -2.15639 0.397013 -0.0947999)
(-0.418899 0.129255 0.315266 21.2007 -1.04147 -14.5748 -1.14972 0.317818 -1.04079)
(0.708179 0.00319893 -0.57194 14.6562 -2.60832 -5.22789 3.14571 -0.137407 -2.86955)
(-0.343928 -0.0477412 0.348917 24.6664 -2.16014 -4.35188 2.55992 0.10002 -1.44924)
(-0.63768 0.00580646 -0.109116 23.9282 -1.47788 -11.5908 -0.979128 0.205336 -0.0314295)
(1.83092 -0.209916 -1.30071 21.7143 -2.81758 -1.24022 2.91961 -0.0931866 -1.82739)
(3.95108 -0.0738083 -1.18712 1.35733 -6.27271 13.6422 3.54254 -0.63681 -1.81032)
(0.648363 0.172453 0.189633 24.6599 -5.31138 -3.3751 3.35107 -0.612642 1.53401)
(-2.85093 0.0550066 1.11903 37.025 -2.05196 -17.7622 1.27583 -0.0779422 1.06825)
(-1.47226 -0.0321324 0.664042 36.8563 -2.14254 -13.0124 0.470415 -0.0339193 0.0166628)
(-1.24455 -0.0105766 0.759257 33.4794 -2.72805 -11.4036 -1.10281 0.217554 1.49283)
(0.0325583 -0.0709752 -0.117474 17.6272 -1.56458 -8.65425 0.00604664 -0.0360252 -0.849642)
(0.0887847 -0.00746157 -0.0367982 15.5932 -2.65722 -10.3579 -0.45632 0.0483303 0.34005)
(-1.31319 0.146597 0.283146 15.8131 -1.73448 -12.5539 -2.30723 0.224303 0.777613)
(0.456072 -0.0181843 -1.01757 9.13934 -1.87985 -7.00638 0.538081 -0.117774 -1.73415)
(1.09258 -0.098061 -0.26719 13.9876 -0.345227 -6.08642 5.0438 -0.118043 -3.86991)
(-0.734423 0.0620157 1.09917 12.1149 -1.09223 -8.83314 0.908289 0.0652045 -0.96569)
(-0.46459 -0.0610589 -0.050397 16.6191 -1.62208 -7.90964 1.02643 0.102702 -1.42531)
(1.8381 -0.123818 -1.42875 13.1937 -1.15729 -2.86698 4.51782 -0.422828 -3.21519)
(0.161925 0.0709139 0.380254 9.16555 -2.53785 -9.15344 -0.385925 -0.153019 0.0525114)
(-1.73983 0.122167 1.54492 21.517 -1.25388 -20.2434 -1.92069 0.362312 0.460941)
(0.218958 0.0177476 -0.528321 15.8912 -2.92275 -3.90356 -1.57506 0.327516 0.139124)
(1.33086 -0.215353 -0.486286 18.6129 -1.66854 -14.4807 3.98657 -0.111083 -3.28796)
(-0.0178848 -0.108969 0.456248 -4.10647 -3.69096 19.885 0.540298 -0.34833 -0.214075)
(-0.580075 0.100374 -0.192576 7.04744 -2.04496 5.39283 -0.626048 0.245243 -0.592236)
(-0.10001 0.102364 0.452635 9.36893 -2.17671 -8.75194 -2.32267 0.343183 0.218105)
(-0.46743 0.0996852 1.00065 16.2034 -1.62293 -16.2373 -3.79774 0.539899 -0.632405)
(-0.712435 0.0933589 0.188114 14.1127 -1.20215 -13.0755 -3.46486 0.729392 -0.873004)
(0.314978 -0.0520776 -0.928824 9.06601 -0.272117 -8.28401 -1.53155 0.228468 -3.54792)
(1.51932 -0.176426 -1.19468 6.06057 -0.605284 -3.72087 1.40558 -0.350132 -3.7154)
(0.115888 0.0515559 0.400479 11.1438 -1.67218 -13.9175 -1.17468 -0.0363317 -0.629539)
(-1.49896 0.164816 1.22635 15.2555 -0.599548 -8.57951 -4.17588 0.468622 -0.907336)
(-0.471466 -0.0226096 -0.142161 12.0045 -1.25307 -0.650675 -2.85988 0.256888 -1.18718)
(-0.138146 -0.00450488 -0.157692 24.8655 -1.31742 -17.8359 -0.0476028 0.00518708 -1.05273)
(-0.466214 0.0457049 0.564972 13.271 -3.00966 -1.3688 0.391736 -0.463878 -0.07331)
(2.84608 -0.174088 -1.94835 -13.7783 -2.32822 16.2888 6.5444 -0.54162 -3.0238)
(3.55414 -0.218861 -2.29345 -8.24965 4.29885 11.5242 4.83921 -0.546402 -4.93712)
(-1.08992 -0.169111 1.03777 -2.2713 2.4153 -6.9521 -2.98145 -0.0827029 0.875051)
(-1.71398 0.116765 1.1279 7.09737 -0.596707 -10.6041 -1.69534 0.307707 4.24721)
(-0.431161 0.187699 -1.10772 1.84585 0.799264 5.92243 -0.629628 0.244466 1.64924)
(-0.0141297 0.0911698 -0.260271 1.68813 2.15822 -1.54928 -1.74061 0.471964 -0.366429)
(-0.409551 0.0672177 0.766822 18.9921 2.98044 -12.9948 -0.914431 0.612454 -0.236533)
(0.314525 0.0210132 0.0992468 8.85961 4.52287 -4.11478 2.7421 0.140187 -1.421)
(0.0359518 -0.159201 -0.00552783 7.76752 3.67425 2.28398 2.49903 0.180771 -1.29325)
(-0.134126 -0.0985048 -0.342008 13.9339 1.92819 -10.087 -0.818228 0.185243 0.448052)
(1.05094 -0.130416 -0.568151 22.0493 1.64348 -5.67036 2.61801 -0.153211 -0.334239)
(3.04853 -0.0805977 -0.902453 -8.02819 2.6561 3.71295 4.0553 -0.435452 -2.65966)
(1.46859 0.27571 -0.669483 -16.8584 -1.53567 17.2356 2.02102 -0.760855 1.9977)
(-1.88486 0.168834 0.564246 14.1304 2.49856 -6.4468 -1.17544 -0.410278 2.32788)
(-1.24511 -0.143627 0.831705 17.9939 3.98738 -7.6906 -1.50756 0.145541 0.422394)
(-1.55263 -0.0417399 0.810945 14.7972 1.52979 -3.33339 -3.29065 0.276981 2.09184)
(-0.563741 -0.0147544 -0.0738725 19.1836 3.09602 -10.3741 -0.548132 0.239905 -0.379117)
(-0.0371266 -0.0327818 -0.226889 6.51826 2.11341 -3.79966 -1.04318 -0.0602383 -0.338866)
(-1.54588 0.164433 0.330466 16.8064 2.01025 -13.8444 -2.14123 0.336086 0.53512)
(0.0200948 0.172127 -0.535081 1.34758 2.67417 -0.785227 -0.793258 -0.266906 -0.510093)
(1.15143 -0.0544565 -0.177351 1.82961 5.88976 3.00929 4.1683 -0.0106793 -3.61871)
(-0.241047 -0.0863223 0.764386 2.64775 4.10584 0.409014 0.960013 0.352714 -1.52102)
(-0.322751 0.0812915 -0.0189131 14.5631 3.93666 -3.78918 2.29556 0.194982 -1.00631)
(1.17972 -0.0884293 -1.1738 7.91052 5.34402 1.02956 4.38673 -0.18349 -4.01935)
(0.759628 -0.143767 -0.17983 -4.48778 2.28567 7.50652 -1.2593 -0.568592 -0.548627)
(-0.974228 -0.035347 1.50714 15.9499 1.83258 -11.7173 -3.06594 0.00983517 0.454332)
(-0.307798 0.150141 -0.247495 18.3084 1.57138 -8.06608 -1.34641 0.404534 0.697617)
(0.391673 -0.0320184 0.167453 1.85763 3.91685 -4.24593 3.78543 -0.204119 -1.74489)
(-0.22659 -0.157125 1.08048 -5.47146 4.53716 8.16701 0.178013 -0.0339225 -1.68972)
(-0.311945 0.00495651 -0.760181 0.313765 3.75007 4.14936 -0.536084 0.271293 -2.14153)
(0.388593 0.023186 -0.518329 -1.76465 1.5933 3.85299 -2.06591 0.205985 -0.23229)
(0.225423 0.126943 0.528399 3.45436 1.79904 -8.20791 -5.08034 0.427523 -0.180684)
(-0.99155 0.17628 0.766546 15.0325 3.33795 -13.272 -3.61925 0.880726 0.078978)
(-0.44499 0.122669 -0.43888 5.38838 6.85361 -4.62807 -2.32561 0.560837 -3.18178)
(1.22617 -0.202961 -1.34416 2.28407 6.08557 1.65334 1.65396 -0.222427 -4.6352)
(0.660657 -0.0180925 0.213857 -0.187908 2.30076 -0.643415 -0.727973 0.0332877 -2.23353)
(-1.13745 0.0786889 1.59035 13.1783 5.21032 -6.81538 -5.15399 0.679747 -0.816023)
(-0.242257 -0.144108 -0.523161 8.50487 3.4701 1.45205 -2.73137 0.650552 -0.538359)
(-0.0925945 -0.06975 -0.272581 15.6693 2.73867 -9.62458 1.90258 -0.0531497 -1.24638)
(-1.84345 0.0523232 1.67261 11.9037 3.09097 -2.45978 -1.12186 -0.390651 1.38127)
(2.28278 0.040523 -1.22073 -3.04367 2.20969 1.93125 6.18655 -0.0899385 -2.12618)
(3.20214 -0.201521 -1.95293 -13.047 -0.89515 6.21992 5.77092 -1.03501 -3.23215)
(-0.549901 -0.227599 0.438568 2.38058 -2.11567 2.83795 -0.787295 -0.368219 0.247994)
(-1.68649 0.0481651 1.49509 5.15224 -2.48338 -13.5642 -1.07191 0.575701 2.34961)
(-0.664844 0.171987 -0.173854 8.69461 -2.08843 -1.93641 -0.998575 0.233155 1.46806)
(0.26059 0.184222 -0.862894 -4.60727 -1.21426 13.5188 -0.902116 0.327332 -0.522478)
(0.0785255 0.299782 0.0918325 11.3083 -0.855251 -2.71649 -0.130172 0.64373 -0.561261)
(-0.0324729 0.0496316 0.422695 10.2508 -0.273724 -9.37414 1.73309 0.00334064 -1.191)
(-0.0292886 -0.216905 -0.0306604 6.24919 -1.10051 -5.64788 1.66322 0.399135 -1.33125)
(0.304434 -0.124885 -0.63859 6.72585 -0.649079 -8.7947 -0.386113 0.378611 -0.586417)
(0.382726 -0.167282 -0.414973 22.9289 -2.52649 -2.5757 1.21952 -0.348362 1.59324)
(1.33756 -0.294055 0.376193 3.8055 -0.256648 0.649963 5.44754 -0.541301 -2.13719)
(2.10619 0.151181 -0.430483 -25.6542 -3.97456 15.5307 0.918609 -0.895859 0.422758)
(-0.525581 0.427432 -0.557662 -1.60462 -5.55947 3.17994 -2.70261 -0.756785 4.17577)
(-1.44863 -0.0883052 0.863634 2.92211 -2.62429 -2.36761 -3.1125 -0.010356 2.12699)
(-1.13107 -0.0694021 0.567606 6.91771 -3.3501 0.772734 -4.20285 0.206788 3.43505)
(-0.483132 -0.03604 -0.154236 13.7672 -0.70251 -6.85811 -0.0981656 0.207153 -0.045214)
(-0.0638207 -0.0803821 -0.258944 3.82935 -0.60053 -1.60033 -0.899139 -0.120972 -0.417402)
(-1.64924 0.183781 0.487893 14.2672 -0.559726 -12.5049 -1.45294 0.416089 0.468473)
(-0.541098 0.23238 0.10538 6.22883 -1.66087 5.23291 -0.50655 -0.649264 0.253397)
(1.17704 -0.0029315 -0.193183 5.29003 -2.59019 5.05019 3.9141 -0.441247 -1.30462)
(0.10112 -0.0588764 0.66021 7.1186 -1.86254 -3.22079 0.445412 0.337171 -0.592544)
(-0.113053 0.0107508 -0.0104222 9.18438 -2.38643 -2.17065 1.25634 0.174814 0.761436)
(0.580046 -0.242087 -0.669282 5.62133 -1.48522 1.41373 3.7856 -0.316272 -1.66784)
(0.660832 -0.151636 -0.449547 -4.04793 -0.556129 13.9341 -0.59305 -0.667784 -1.03728)
(-0.232235 0.0882802 0.466524 2.80858 -2.51287 -1.88646 -3.21914 0.0126801 1.86282)
(-0.707669 0.149349 -0.037201 8.83579 -1.67528 -10.6997 -3.39004 0.326928 1.09926)
(-0.22774 -0.0275873 0.576414 -6.48978 -1.36384 7.92698 2.90656 -0.490449 -0.421177)
(-0.104302 -0.115744 0.977235 3.60629 -0.00459833 -0.170336 -0.196603 -0.27787 -1.70716)
(-0.349293 -0.0946599 -0.43561 2.68493 -0.069723 -1.8066 0.230046 0.451149 -1.75208)
(0.0693802 -0.0252992 -0.309007 -0.548195 -0.128816 4.086 -0.838564 0.573022 -0.273232)
(0.630555 0.218199 -0.14218 -11.4268 -1.74406 13.2041 -5.368 0.370159 0.674769)
(-0.550127 0.436319 0.379045 0.891921 -3.07866 -3.56549 -4.38498 1.02745 1.18278)
(-0.494943 0.121386 0.0593762 0.421431 0.193417 -6.84774 -1.8155 0.30695 -2.26674)
(1.16113 -0.490158 -0.902835 10.3947 -0.398676 7.9211 1.74723 -0.790329 -3.49661)
(0.818474 -0.00230315 -0.169367 2.73854 0.853106 5.99784 0.928053 -0.132822 -2.95729)
(-0.931035 0.254688 1.33557 12.2588 -0.180916 -8.6392 -4.49796 0.597437 -0.248273)
(-0.321275 -0.18222 -0.29928 8.3558 -0.264228 -3.88086 -4.74166 0.962482 -0.820295)
(0.0934914 -0.0243271 -0.418045 6.97582 -0.279765 3.15342 3.13148 -0.0562037 -2.26445)
(-1.6289 0.00828329 1.25725 13.1759 -1.13884 -7.56804 -2.98086 -0.447214 1.23884)
(1.50191 -0.11161 -1.04933 19.8194 -2.50576 -11.7554 4.03171 -0.171672 -0.630683)
(2.2563 -0.190776 -1.21198 -16.5663 1.85001 12.3262 4.5082 -0.872077 -2.24965)
(0.247244 -0.284668 -0.414628 -3.70752 1.14171 16.3702 0.158399 -0.582735 -0.860582)
(-1.23408 0.125707 0.726226 3.06369 0.956308 -1.17097 0.623717 0.250985 1.05563)
(-1.15382 0.286282 0.869146 6.57427 1.87917 -4.94285 -2.9276 0.642235 0.339192)
(0.158192 0.17613 -0.259643 -3.92095 0.857707 8.53418 -1.99831 0.179795 1.38132)
(0.677401 0.115858 -0.915634 0.0511164 0.498893 9.09202 -0.17966 0.360673 -0.675483)
(-0.0374992 -0.000595789 -0.157173 0.710261 0.0600491 0.0365833 0.83642 -0.115908 -0.89421)
(-0.226971 -0.182123 0.0412775 7.47012 1.17673 -6.83317 0.0478691 0.56518 -0.232586)
(1.09703 -0.20487 -0.0775124 2.49614 0.167961 -1.71996 1.08175 0.019859 -0.389969)
(0.894528 -0.0967318 0.138488 13.1143 -2.50175 8.02113 2.11392 -0.736973 1.66827)
(-0.494111 -0.169944 0.353759 8.5494 2.21441 6.9291 4.61235 -0.253402 -2.03549)
(0.991282 -0.117189 -0.499989 -7.65817 2.11635 -5.81197 0.733358 -0.404575 -1.12114)
(0.163617 0.246191 -0.691732 -18.2058 -2.61725 6.65572 -2.53518 -0.744737 3.65291)
(-0.573306 0.0197268 0.644505 -7.25071 -1.13644 3.83472 -3.68908 0.0431576 2.47596)
(-0.765779 0.107928 0.492021 2.43231 -2.06995 -2.75309 -3.35912 0.237966 3.91916)
(-0.807876 0.197552 -0.247235 4.71683 0.879521 2.49646 0.0762842 0.100493 1.55015)
(0.00376378 -0.0171077 -0.65533 4.72868 1.30609 0.54995 -0.415031 0.229034 -0.536697)
(-1.35213 0.0814455 0.837061 7.91983 2.20803 -4.57962 0.228967 -0.15978 0.581579)
(-0.610011 0.0108931 0.742802 3.59457 1.01294 2.79823 -0.921509 -0.632578 1.76586)
(1.21688 -0.0750243 -0.821974 11.742 1.70332 -2.3627 4.81683 -0.152648 -0.853588)
(0.0224248 -0.0734916 0.222838 10.2214 -0.79588 -10.1381 -0.361168 0.267156 1.78873)
(-0.458171 0.117187 0.334503 2.36571 -3.25563 -2.16115 -2.45848 0.0857238 3.83889)
(0.228202 0.0668447 0.00680422 -4.34037 2.23673 0.206162 0.755528 -0.09532 0.190717)
(0.554498 -0.221534 -0.405129 -2.19903 3.34821 3.86516 -0.00203655 -0.482559 -2.18004)
(-0.0635833 -0.133257 -0.271822 2.45955 -1.82452 3.89326 -2.52504 -0.0994434 2.03442)
(-0.978586 0.238053 0.481622 2.51409 -0.324448 -5.14132 -3.42398 0.217085 1.7081)
(0.0538635 0.0952466 0.931429 -3.6971 2.45879 9.77621 1.26416 -0.325531 -0.573079)
(0.462502 -0.0623397 0.34676 2.19078 1.86045 1.01336 -1.91754 0.373027 -0.976397)
(-0.625782 0.0054221 -0.467279 4.1425 2.81564 -2.74546 0.586503 0.761798 -1.63082)
(-0.658196 -0.0999528 0.608165 2.33846 2.37668 0.283498 0.0475018 0.664542 -1.47082)
(0.294996 -0.107669 0.010568 -6.04694 0.518162 11.8107 -4.77081 1.02315 0.0494231)
(-0.130004 0.298379 -0.727478 -12.8211 0.864311 6.42771 -3.48868 0.974701 0.426151)
(0.286402 0.327656 0.38934 5.51971 1.2116 -6.77996 0.0873217 0.179845 -0.601918)
(1.4098 -0.123817 -0.406365 2.6568 3.97697 9.41725 0.843216 -0.49914 -3.1506)
(0.78737 -0.0030256 -1.0137 0.433947 4.38954 3.93683 2.34648 0.0447069 -4.20873)
(-0.728704 -0.0243192 0.860695 5.49066 2.66595 -4.28705 -4.21173 0.938123 0.55252)
(-0.63819 -0.147853 0.355887 8.96267 1.23687 -7.8916 -5.81093 0.903839 0.153771)
(0.257248 -0.141148 -0.539886 3.7508 2.85807 5.61639 2.29055 0.100701 -2.16696)
(-0.883133 -0.113429 0.574504 11.143 1.10447 -7.21714 -1.98088 -0.209301 0.651723)
(0.356378 0.0743628 -0.183904 12.6687 1.10453 -4.93492 3.14212 -0.236728 -0.0512185)
(1.91974 -0.199469 -0.235603 -14.8688 -1.59146 8.10733 2.5054 -1.34539 -0.662492)
(1.02096 -0.297038 -0.611012 -8.52933 -0.124796 13.2922 1.21297 -0.987828 -1.21721)
(-0.867191 0.10242 -0.220116 1.47701 0.203092 5.07909 2.2084 0.608884 -0.204505)
(-1.20325 0.152267 0.537902 0.548216 0.607304 -1.85286 -3.19568 1.02988 -0.861818)
(-0.277663 0.0689721 0.256893 14.242 -5.4321 -0.507626 -3.59974 0.325445 4.34927)
(0.408053 0.251103 -0.521941 -6.93471 -1.15779 4.17099 -0.791987 0.586176 0.68448)
(0.591849 0.111649 -0.858376 2.1596 -1.33372 10.3866 0.834468 -0.254302 0.180861)
(0.140642 -0.21131 -0.185551 4.79259 -0.754631 -2.64832 0.715409 0.199764 -0.102261)
(0.699766 -0.426189 0.554316 5.63953 -2.34429 4.17513 2.89074 -0.162357 1.66509)
(0.840533 -0.00226248 0.256933 -9.94582 -1.49667 5.15013 2.25201 -0.838391 1.18076)
(-0.225915 0.0818436 -0.784707 -4.29921 0.427136 1.57204 3.80178 -0.120003 -1.12485)
(-0.0320144 -0.22825 -0.44652 6.20098 0.829109 -9.46451 2.60165 -0.477206 -1.42504)
(-0.560234 0.172047 0.266876 -12.5098 -1.20215 3.91791 -0.705943 -0.7472 1.66286)
(0.199175 -0.0530883 0.0944159 -8.1075 -1.6354 3.51614 -3.06196 0.0442655 1.64381)
(-0.161318 0.0823762 0.462638 -1.7831 -2.6713 -7.42236 -4.29076 0.190635 2.92989)
(-0.257572 0.224473 0.132795 3.80988 -2.91876 1.76744 -1.29512 0.14333 2.81712)
(0.198742 0.024997 -0.814293 6.89516 -0.708588 2.62232 0.371871 0.368716 -0.347185)
(-1.77431 0.169365 0.642023 3.5348 0.383934 0.705372 0.359062 0.124604 0.135627)
(-0.212826 0.212089 0.228051 5.43284 -2.2261 -1.77694 -1.41132 -0.662701 1.76591)
(1.73027 -0.147816 -1.21804 13.4751 -1.78646 -3.9843 3.12311 -0.555797 0.379714)
(-0.679405 -0.474383 0.720891 5.73481 -1.12462 -6.45598 -0.390807 0.848266 2.06558)
(-1.30295 0.255102 0.824872 3.15544 -3.45526 3.28416 -3.25006 0.277724 3.79505)
(0.231407 0.282298 -0.23017 -1.59383 -2.65859 1.89183 -0.352924 -0.20263 0.813311)
(1.24323 -0.486133 -0.143962 4.2587 -0.56955 -3.89081 0.323611 -0.949894 -1.51061)
(0.147199 -0.198379 -0.216947 5.23152 -2.89777 6.59209 -2.61367 -0.266582 1.33977)
(-1.19826 0.500638 0.405583 3.4077 -0.456404 -3.24288 -4.07167 0.187792 1.32025)
(-0.283084 0.143845 1.05842 0.755455 -1.26024 5.01733 0.114279 -0.761068 -0.350136)
(0.498207 -0.0910789 -0.012594 1.16947 -1.43928 -3.14807 -2.59079 0.255483 -0.50458)
(-0.309229 -0.0612611 -0.493813 2.87092 -0.249837 1.32006 -0.42566 0.480819 -0.265684)
(-0.714636 -0.211015 0.823226 3.5161 0.901279 0.447151 0.293778 0.713602 -1.43751)
(-0.610571 0.123618 0.359176 5.05234 1.317 -4.15085 -2.48122 1.00684 -1.82405)
(0.380434 0.508419 -1.07349 -9.57615 0.565477 4.80979 -0.32797 1.13664 -1.54592)
(0.728376 0.362486 0.277755 9.97796 0.294331 -2.27129 0.958229 0.132473 -0.800244)
(0.708633 -0.259576 -0.0513678 -7.36277 2.65276 3.715 0.4003 -0.631057 -3.64931)
(1.05987 -0.112467 -1.23725 1.26823 0.811634 3.3792 3.19091 -0.0971019 -3.708)
(-0.234137 0.0174973 0.388472 1.15231 0.307354 0.792019 -3.77664 1.07233 -0.328162)
(-0.435881 -0.169502 0.467929 9.57836 -0.728924 -10.4814 -6.29892 1.39034 0.842228)
(0.260446 -0.0237786 -0.34915 4.96081 -0.602944 1.80265 1.30442 -0.0585395 -0.679436)
(-0.953625 -0.126991 0.438328 6.2462 1.29996 0.547031 -0.627358 -0.279978 0.00192135)
(-0.713456 -0.0675179 0.507413 6.67945 0.84956 -3.96512 1.97152 -0.206685 -0.772975)
(0.883272 -0.280027 0.286544 -8.17233 0.208438 1.854 0.876459 -0.780332 -0.246818)
(1.68173 -0.11745 -0.675079 -8.1189 -1.78231 1.05099 2.04439 -1.34552 0.177367)
(-0.431165 0.195749 -0.579938 -0.0863496 0.763282 2.73438 3.78777 0.541469 -0.878235)
(0.0317778 -0.221526 0.385543 0.333222 1.89896 -0.935474 -1.28829 1.07905 -1.49513)
(-0.490334 0.023589 0.245863 18.4673 -2.96878 0.0396483 -3.6666 0.326411 3.78263)
(-0.413184 0.481401 0.0526284 -2.63341 0.795773 -6.42927 -0.226996 0.157034 0.919158)
(0.984249 0.0254691 -0.717788 9.27555 -0.320259 7.01603 -0.237968 -0.540126 0.241963)
(0.0581355 -0.272674 -0.510555 2.77107 -1.082 2.22502 2.21989 -0.0717641 0.395683)
(-0.226427 -0.251373 0.580602 5.6243 -0.915708 1.35204 2.96321 -0.319155 0.809871)
(-0.0193231 0.150156 -0.114119 -6.65929 0.96515 2.80167 0.452012 -0.665649 0.190322)
(0.972515 0.0199944 -0.884137 -6.16742 -0.927945 1.60797 3.47439 -0.0484448 1.08076)
(0.334187 -0.25678 -0.288362 1.5134 0.576401 2.44426 2.32921 -0.558256 -0.586796)
(-1.08742 0.0256583 0.413017 3.45991 -0.563798 1.4525 0.92373 -0.639081 1.02487)
(0.341588 -0.108876 -0.349372 3.16678 -2.55769 -2.80617 -1.7091 0.24106 1.10281)
(0.276039 -0.0082165 0.333219 3.79788 -2.42039 -2.98777 -2.78146 0.0986796 1.73737)
(-0.0602351 0.376395 0.643814 2.66839 -2.06679 -4.53433 -1.70449 0.0858963 1.89152)
(-0.0411754 0.284154 -0.737668 4.21415 1.15745 2.14306 -0.345632 0.230757 -0.549395)
(-1.44517 -0.0677027 0.449668 0.763686 1.02101 0.927801 0.334001 -0.602482 0.675484)
(0.269668 -0.209968 0.360517 14.3363 -0.403479 -4.73053 -0.27526 -0.477916 0.620427)
(1.19348 0.034132 -1.21514 4.25655 -4.20544 7.96415 1.39291 -0.482149 2.02547)
(-0.861879 -0.187756 0.845308 1.08833 -0.757352 0.793736 -0.909872 0.216955 1.00198)
(-1.05154 -0.0384831 1.05757 5.12252 0.239499 -0.920318 -1.74592 0.292649 1.10588)
(0.329924 0.312205 -0.633125 7.14586 -1.8767 0.172205 0.460093 -0.18036 1.86501)
(1.11692 -0.217199 0.00349228 -0.499004 -0.0609675 -2.33106 -0.535802 -0.367152 -0.557386)
(-0.16337 -0.116281 -0.217381 -3.96909 2.24847 6.93028 -2.58551 -0.0637045 -0.750706)
(-1.37062 0.363255 0.343573 0.474073 -0.0532122 3.40899 -3.76818 -0.449233 1.54595)
(-0.119462 -0.000520856 0.927499 2.53476 -0.381948 -0.401931 -1.48314 -0.314713 0.839208)
(0.654595 0.0339876 0.0407256 5.98766 0.0919085 -6.48863 -2.74963 0.692222 -0.215246)
(-0.440391 0.228572 -0.132098 -0.259652 -0.874729 4.34097 -2.40757 0.496199 1.72077)
(-0.450789 0.0560721 0.0806468 2.65491 2.13849 0.324048 -0.486222 0.738675 0.0436941)
(-0.825379 -0.161855 0.379218 6.6778 4.29847 -7.49123 -2.07644 1.38222 -2.13971)
(0.274536 0.182789 -0.519036 5.80135 0.51427 -1.99477 0.497522 1.04452 -1.38738)
(0.446927 0.51723 0.299239 -6.66782 2.45913 4.96012 1.54803 0.0571572 -1.63776)
(0.674332 -0.0623958 0.0807616 -4.81022 1.79678 0.604003 1.26369 -0.071367 -2.20859)
(1.5477 -0.209012 -1.2617 3.30178 1.85295 3.66435 2.59234 0.0225953 -2.62471)
(-0.00953911 -0.170989 -0.374079 1.46851 0.174718 1.34998 -3.6605 0.924421 -0.156712)
(-0.306165 -0.229883 0.438158 7.27658 -0.141406 -5.39539 -5.26652 0.738462 1.45653)
(-0.0512691 0.0347714 0.461082 4.98742 -0.39665 -0.762009 0.300923 -0.207637 -0.303217)
(-0.717124 0.0222715 0.0546497 3.13784 -0.365176 1.2454 -1.08234 -0.0768052 0.384551)
(-1.48961 -0.178882 0.446235 6.95079 2.04321 -6.61375 0.599141 -0.0255763 -0.246804)
(0.490186 -0.580623 0.491998 5.63842 0.559417 0.330797 1.4412 -1.10633 -1.31421)
(1.77756 -0.258545 -0.515036 -1.63226 -3.52898 0.829586 2.78786 -1.89271 1.92866)
(-0.0508702 0.467621 -0.386239 -1.39453 -0.808756 3.84852 3.10762 0.449394 -0.0957727)
(0.560908 -0.190057 0.278974 2.0688 0.972161 0.934351 1.23778 1.60758 -1.90664)
(-0.558223 -0.0387281 -0.300943 8.43338 -0.028624 -3.83226 -1.9052 0.448401 1.25211)
(-0.444996 0.497536 0.130385 1.44119 -1.18315 -4.28625 1.16356 0.289051 0.602797)
(1.10246 -0.0707788 0.008054 6.74645 -1.06532 -2.23664 -1.05076 -0.266463 -0.121338)
(-0.222588 -0.265755 -0.729309 7.32028 -1.71352 8.19768 1.97649 -0.612203 1.22653)
(-0.167068 -0.235391 0.610357 4.91762 1.48754 -1.96985 3.81235 -0.447235 -0.530468)
(-0.273179 -0.0187481 0.320074 11.4147 -0.978278 2.71673 0.870834 -1.04676 0.470505)
(0.485743 0.0484766 -0.811128 7.47088 -3.53718 7.71762 3.38837 -0.539139 2.0837)
(0.910855 -0.188349 -0.478152 -3.25165 -0.990513 7.69884 1.65966 -0.802854 0.515983)
(-0.339305 -0.132178 -0.281916 13.779 -0.954614 0.0140846 0.902004 -1.07421 1.32974)
(0.21932 -0.2364 -0.312963 7.82615 -1.16668 -4.22207 0.0241539 0.0980374 0.56675)
(-0.255757 0.141378 0.299755 4.76454 0.335052 4.25344 -0.422078 -0.0689105 -0.0361789)
(-0.234954 0.573293 0.603708 3.22489 -0.479295 -4.94106 -1.2441 0.237437 1.25051)
(0.0289471 0.313237 -0.266237 1.54359 -0.358383 -0.538482 -1.44348 0.699411 -1.19416)
(-0.777394 0.0342605 -0.0380626 2.46751 -1.10728 4.07224 0.872505 -0.620747 1.17873)
(0.094293 -0.277448 0.930684 16.1708 -0.346293 -2.4827 -0.894698 -0.610492 0.423483)
(0.436096 -0.202012 -0.656295 0.602983 -0.823486 3.38364 -0.416823 -0.27021 1.08976)
(-0.573056 -0.0508149 -0.195457 -1.76169 -1.88247 2.35371 -1.77546 0.503257 1.57601)
(-0.711799 0.170576 0.738369 4.64096 -0.088143 -6.07801 -1.85803 0.570304 -0.0877908)
(-0.350379 0.248738 -0.333407 6.94167 -1.02148 -3.7283 0.25583 -0.302623 2.064)
(0.125023 -0.09333 0.528861 -7.57723 0.00760077 0.96934 -0.905369 -0.768479 0.195444)
(0.277254 -0.205799 0.36709 -6.11551 1.45233 4.11763 -1.59839 -0.477067 -1.87013)
(-0.519319 0.246756 -0.334196 1.83424 -0.247701 8.20273 -2.50726 -0.708612 0.37764)
(0.261508 0.173045 0.0645313 9.15244 -0.816053 -4.65528 -0.619175 -0.605912 1.21281)
(0.198266 -0.15372 0.464617 5.80136 -0.316554 -4.23046 -2.5768 0.924659 -0.228127)
(-0.635188 0.117977 0.163141 1.44828 -2.90944 0.644763 -3.74318 0.785907 1.96572)
(-0.0352021 0.2886 -0.306331 2.64146 -1.34426 -1.42262 -1.60005 0.731039 0.842453)