/*--------------------------------*- C++ -*----------------------------------*\
  =========                 |
  \\      /  F ield         | OpenFOAM: The Open Source CFD Toolbox
   \\    /   O peration     | Website:  https://openfoam.org
    \\  /    A nd           | Version:  10
     \\/     M anipulation  |
\*---------------------------------------------------------------------------*/
FoamFile
{
    format      ascii;
    class       volTensorField;
    location    "20";
    object      TauNN;
}
// * * * * * * * * * * * * * * * * * * * * * * * * * * * * * * * * * * * * * //

dimensions      [0 2 -2 0 0 0 0];

internalField   nonuniform List<tensor> 
25600
(
(0.00148109 -0.0129796 -0.0151348 -0.0129796 0.000159664 -0.00815204 -0.0151348 -0.00815204 0.000115097)
(0.00149955 -0.01298 -0.0151321 -0.01298 0.000158946 -0.00815229 -0.0151321 -0.00815229 0.000115066)
(0.00148762 -0.0129805 -0.0151351 -0.0129805 0.000159783 -0.00815253 -0.0151351 -0.00815253 0.000115315)
(0.00149235 -0.0129785 -0.0151351 -0.0129785 0.000158987 -0.00815116 -0.0151351 -0.00815116 0.000116645)
(0.00149288 -0.012975 -0.0151333 -0.012975 0.000157457 -0.00814892 -0.0151333 -0.00814892 0.000117594)
(0.00148174 -0.0129749 -0.0151337 -0.0129749 0.000157904 -0.00814909 -0.0151337 -0.00814909 0.000116689)
(0.00148925 -0.0129792 -0.0151337 -0.0129792 0.000159117 -0.00815174 -0.0151337 -0.00815174 0.000115528)
(0.00146323 -0.0129777 -0.0151405 -0.0129777 0.000160555 -0.00815102 -0.0151405 -0.00815102 0.000116042)
(0.0014818 -0.0129789 -0.0151342 -0.0129789 0.000159424 -0.00815172 -0.0151342 -0.00815172 0.000114838)
(0.00148864 -0.012979 -0.0151342 -0.012979 0.000159197 -0.00815162 -0.0151342 -0.00815162 0.000115449)
(0.00143721 -0.0129805 -0.0151438 -0.0129805 0.000162484 -0.0081529 -0.0151438 -0.0081529 0.000114726)
(0.00148682 -0.0129801 -0.0151343 -0.0129801 0.000159597 -0.00815233 -0.0151343 -0.00815233 0.000115044)
(0.00146076 -0.0129796 -0.0151398 -0.0129796 0.00016122 -0.00815234 -0.0151398 -0.00815234 0.00011437)
(0.00148341 -0.0129729 -0.0151364 -0.0129729 0.000157491 -0.00814765 -0.0151364 -0.00814765 0.000118695)
(0.00146819 -0.0129727 -0.0151393 -0.0129727 0.000158547 -0.00814781 -0.0151393 -0.00814781 0.000117802)
(0.00147142 -0.0129808 -0.0151349 -0.0129808 0.000160339 -0.00815297 -0.0151349 -0.00815297 0.00011368)
(0.00148786 -0.012981 -0.0151349 -0.012981 0.000159916 -0.00815284 -0.0151349 -0.00815284 0.00011502)
(0.00146455 -0.0129787 -0.0151388 -0.0129787 0.000160762 -0.00815181 -0.0151388 -0.00815181 0.000114315)
(0.00141971 -0.0129751 -0.0151481 -0.0129751 0.000162673 -0.00815012 -0.0151481 -0.00815012 0.000114782)
(0.00147027 -0.0129784 -0.0151369 -0.0129784 0.000159963 -0.00815143 -0.0151369 -0.00815143 0.000115328)
(0.00147067 -0.0129786 -0.0151372 -0.0129786 0.000160145 -0.00815157 -0.0151372 -0.00815157 0.000114974)
(0.00147378 -0.0129766 -0.0151365 -0.0129766 0.000159242 -0.00815025 -0.0151365 -0.00815025 0.000116077)
(0.00148921 -0.0129783 -0.0151338 -0.0129783 0.000158904 -0.00815119 -0.0151338 -0.00815119 0.000115738)
(0.00147621 -0.012974 -0.0151361 -0.012974 0.000158277 -0.00814864 -0.0151361 -0.00814864 0.000116904)
(0.00147099 -0.0129735 -0.015137 -0.0129735 0.000158151 -0.00814819 -0.015137 -0.00814819 0.000117882)
(0.001491 -0.0129818 -0.0151346 -0.0129818 0.000160013 -0.00815334 -0.0151346 -0.00815334 0.000114959)
(0.00149364 -0.0129783 -0.015135 -0.0129783 0.000158995 -0.00815111 -0.015135 -0.00815111 0.000116203)
(0.0014339 -0.0129711 -0.0151486 -0.0129711 0.000161142 -0.00814743 -0.0151486 -0.00814743 0.000116602)
(0.00147999 -0.0129765 -0.0151347 -0.0129765 0.000158565 -0.00815001 -0.0151347 -0.00815001 0.000116663)
(0.00149801 -0.0129768 -0.0151316 -0.0129768 0.000157575 -0.00815009 -0.0151316 -0.00815009 0.000117188)
(0.00148631 -0.012975 -0.0151353 -0.012975 0.000157928 -0.00814894 -0.0151353 -0.00814894 0.000117864)
(0.00148871 -0.0129735 -0.0151346 -0.0129735 0.000157148 -0.00814796 -0.0151346 -0.00814796 0.000118699)
(0.00148892 -0.012973 -0.0151331 -0.012973 0.000156739 -0.00814765 -0.0151331 -0.00814765 0.000118396)
(0.00147998 -0.012975 -0.0151348 -0.012975 0.000158099 -0.00814907 -0.0151348 -0.00814907 0.000117054)
(0.00147182 -0.0129814 -0.0151368 -0.0129814 0.000160641 -0.00815315 -0.0151368 -0.00815315 0.000114841)
(0.00147624 -0.0129819 -0.0151361 -0.0129819 0.000160682 -0.00815354 -0.0151361 -0.00815354 0.000114178)
(0.00149992 -0.0129806 -0.0151325 -0.0129806 0.000159221 -0.00815267 -0.0151325 -0.00815267 0.000114841)
(0.00150012 -0.0129787 -0.0151319 -0.0129787 0.000158458 -0.00815141 -0.0151319 -0.00815141 0.000115615)
(0.00147744 -0.0129764 -0.0151379 -0.0129764 0.000159318 -0.00815004 -0.0151379 -0.00815004 0.000116567)
(0.00146001 -0.0129769 -0.0151401 -0.0129769 0.000160396 -0.00815058 -0.0151401 -0.00815058 0.000115686)
(7.3343e-05 -0.0127995 -0.0154243 -0.0127995 3.17969e-05 -0.00811501 -0.0154243 -0.00811501 7.59052e-05)
(0.000111711 -0.0128504 -0.0153847 -0.0128504 0.000106161 -0.00811829 -0.0153847 -0.00811829 9.64409e-05)
(-0.000136896 -0.0128357 -0.0154528 -0.0128357 0.000101367 -0.00811212 -0.0154528 -0.00811212 7.63297e-05)
(6.31905e-05 -0.0127968 -0.0154293 -0.0127968 3.13606e-05 -0.00813336 -0.0154293 -0.00813336 4.14966e-05)
(6.64853e-05 -0.0127959 -0.0154258 -0.0127959 3.0117e-05 -0.0081345 -0.0154258 -0.0081345 5.49788e-05)
(6.37824e-05 -0.0127968 -0.0154215 -0.0127968 2.53899e-05 -0.00812014 -0.0154215 -0.00812014 7.64197e-05)
(-4.81208e-05 -0.0128171 -0.0154559 -0.0128171 7.38097e-05 -0.00810919 -0.0154559 -0.00810919 7.33661e-05)
(0.000192093 -0.0128358 -0.0154271 -0.0128358 0.000124726 -0.00814804 -0.0154271 -0.00814804 3.10466e-05)
(8.22072e-05 -0.0128033 -0.0154184 -0.0128033 3.22319e-05 -0.00813517 -0.0154184 -0.00813517 6.36749e-05)
(1.67145e-05 -0.0128046 -0.0154436 -0.0128046 4.0252e-05 -0.00811137 -0.0154436 -0.00811137 7.17794e-05)
(9.58395e-05 -0.0128113 -0.015419 -0.0128113 4.91675e-05 -0.0081393 -0.015419 -0.0081393 6.44099e-05)
(-0.000107817 -0.0128355 -0.0154445 -0.0128355 0.000104831 -0.00810771 -0.0154445 -0.00810771 8.56923e-05)
(8.14922e-05 -0.0128044 -0.0154243 -0.0128044 4.96258e-05 -0.00814149 -0.0154243 -0.00814149 5.20791e-05)
(0.000553312 -0.0128564 -0.0154428 -0.0128564 0.000115098 -0.00814105 -0.0154428 -0.00814105 2.76216e-05)
(7.46214e-05 -0.0127992 -0.0154195 -0.0127992 2.71286e-05 -0.00813222 -0.0154195 -0.00813222 5.67248e-05)
(-9.54557e-05 -0.0128304 -0.01544 -0.0128304 0.000110226 -0.00810445 -0.01544 -0.00810445 8.52254e-05)
(2.02065e-05 -0.0128018 -0.0154419 -0.0128018 3.44089e-05 -0.00811642 -0.0154419 -0.00811642 6.20793e-05)
(-9.54087e-05 -0.0128218 -0.0154622 -0.0128218 8.20678e-05 -0.00809935 -0.0154622 -0.00809935 8.62225e-05)
(-2.56438e-05 -0.0128097 -0.0154511 -0.0128097 6.9366e-05 -0.00809937 -0.0154511 -0.00809937 8.66125e-05)
(-1.8326e-05 -0.0128089 -0.0154498 -0.0128089 6.7776e-05 -0.00810756 -0.0154498 -0.00810756 7.34523e-05)
(7.85647e-05 -0.0128025 -0.0154225 -0.0128025 3.851e-05 -0.00813897 -0.0154225 -0.00813897 5.65798e-05)
(9.44691e-05 -0.0128106 -0.0154204 -0.0128106 4.89975e-05 -0.00814116 -0.0154204 -0.00814116 5.60841e-05)
(-2.2424e-05 -0.0128145 -0.0154551 -0.0128145 6.75744e-05 -0.00810768 -0.0154551 -0.00810768 7.5724e-05)
(7.49718e-05 -0.0127985 -0.0154237 -0.0127985 3.43941e-05 -0.00813759 -0.0154237 -0.00813759 6.12645e-05)
(0.000118981 -0.0128284 -0.015418 -0.0128284 0.000104554 -0.0081529 -0.015418 -0.0081529 4.58259e-05)
(-8.17921e-05 -0.012819 -0.0154567 -0.012819 8.92523e-05 -0.0081106 -0.0154567 -0.0081106 7.56113e-05)
(7.11761e-05 -0.0127895 -0.0154301 -0.0127895 3.51155e-05 -0.00813503 -0.0154301 -0.00813503 4.42999e-05)
(0.000282206 -0.0128415 -0.0154188 -0.0128415 0.000129621 -0.00814544 -0.0154188 -0.00814544 4.09371e-05)
(0.000120644 -0.0128327 -0.015416 -0.0128327 0.000104674 -0.00815201 -0.015416 -0.00815201 4.8998e-05)
(7.25737e-05 -0.0127997 -0.0154266 -0.0127997 3.58708e-05 -0.00813647 -0.0154266 -0.00813647 4.08269e-05)
(0.000212971 -0.0128297 -0.0154261 -0.0128297 0.000122453 -0.00814665 -0.0154261 -0.00814665 3.24594e-05)
(0.000130472 -0.0128219 -0.0154228 -0.0128219 0.000101813 -0.00814729 -0.0154228 -0.00814729 3.90601e-05)
(5.92389e-05 -0.0127948 -0.0154238 -0.0127948 2.35708e-05 -0.00812908 -0.0154238 -0.00812908 6.21688e-05)
(9.49988e-05 -0.0128049 -0.0154161 -0.0128049 4.29808e-05 -0.00814272 -0.0154161 -0.00814272 8.14102e-05)
(6.00689e-05 -0.0128024 -0.0154336 -0.0128024 3.77309e-05 -0.00811259 -0.0154336 -0.00811259 7.38769e-05)
(-1.4352e-05 -0.0128169 -0.0154576 -0.0128169 7.87884e-05 -0.00810481 -0.0154576 -0.00810481 7.9372e-05)
(0.00013964 -0.0128509 -0.0153807 -0.0128509 0.000105591 -0.00811998 -0.0153807 -0.00811998 9.75688e-05)
(-0.000164635 -0.0128368 -0.0154451 -0.0128368 0.000107111 -0.00811234 -0.0154451 -0.00811234 7.98022e-05)
(0.000146077 -0.0128165 -0.0154225 -0.0128165 0.000103305 -0.00814588 -0.0154225 -0.00814588 3.88689e-05)
(4.48558e-05 -0.0127967 -0.0154276 -0.0127967 3.07502e-05 -0.00811532 -0.0154276 -0.00811532 7.21049e-05)
(9.05094e-05 -0.0127996 -0.0154102 -0.0127996 2.9342e-05 -0.00813261 -0.0154102 -0.00813261 8.51949e-05)
(-0.000104488 -0.0128266 -0.0154559 -0.0128266 9.81367e-05 -0.00810781 -0.0154559 -0.00810781 7.98097e-05)
(-0.000181644 -0.0128376 -0.0154471 -0.0128376 0.00010792 -0.00811507 -0.0154471 -0.00811507 7.40385e-05)
(8.83158e-05 -0.0128024 -0.0154269 -0.0128024 6.15248e-05 -0.00814083 -0.0154269 -0.00814083 3.83491e-05)
(4.16868e-05 -0.0127953 -0.0154316 -0.0127953 2.41969e-05 -0.00812106 -0.0154316 -0.00812106 6.41384e-05)
(-6.87082e-05 -0.0128112 -0.015452 -0.0128112 7.71867e-05 -0.00810538 -0.015452 -0.00810538 8.44467e-05)
(-5.29062e-05 -0.0128147 -0.0154527 -0.0128147 6.53253e-05 -0.00811341 -0.0154527 -0.00811341 6.63396e-05)
(7.63074e-05 -0.0128023 -0.015426 -0.0128023 4.72254e-05 -0.00814055 -0.015426 -0.00814055 4.13959e-05)
(0.000486453 -0.0128588 -0.0154292 -0.0128588 0.000127007 -0.00814286 -0.0154292 -0.00814286 3.42026e-05)
(-0.000148291 -0.0128309 -0.015445 -0.0128309 0.00010797 -0.00810349 -0.015445 -0.00810349 8.63509e-05)
(-0.000150976 -0.0128232 -0.0154628 -0.0128232 9.95721e-05 -0.00809733 -0.0154628 -0.00809733 8.56895e-05)
(-0.000152493 -0.0128313 -0.0154496 -0.0128313 0.000104971 -0.00810391 -0.0154496 -0.00810391 8.51054e-05)
(7.79398e-05 -0.0127902 -0.0154279 -0.0127902 4.54445e-05 -0.0081465 -0.0154279 -0.0081465 7.14452e-05)
(0.000544271 -0.0128587 -0.0154434 -0.0128587 0.00011795 -0.00814211 -0.0154434 -0.00814211 3.03664e-05)
(6.7048e-05 -0.0128248 -0.0154383 -0.0128248 0.00010754 -0.00811613 -0.0154383 -0.00811613 8.22643e-05)
(7.71455e-05 -0.0127955 -0.0154122 -0.0127955 2.82085e-05 -0.00813073 -0.0154122 -0.00813073 9.49996e-05)
(4.15716e-05 -0.0127921 -0.0154278 -0.0127921 2.07015e-05 -0.00812506 -0.0154278 -0.00812506 5.84488e-05)
(-0.000160949 -0.0128214 -0.0154632 -0.0128214 9.34807e-05 -0.00809803 -0.0154632 -0.00809803 8.75982e-05)
(-0.000184718 -0.0128264 -0.0154631 -0.0128264 0.000103241 -0.00809665 -0.0154631 -0.00809665 8.54926e-05)
(-7.75422e-05 -0.0128148 -0.0154555 -0.0128148 7.86941e-05 -0.00810453 -0.0154555 -0.00810453 7.74663e-05)
(6.07922e-05 -0.0127937 -0.0154223 -0.0127937 3.05563e-05 -0.00813742 -0.0154223 -0.00813742 6.37346e-05)
(8.95737e-05 -0.0128065 -0.0154174 -0.0128065 4.31905e-05 -0.00814298 -0.0154174 -0.00814298 6.75792e-05)
(-1.98224e-05 -0.012809 -0.0154497 -0.012809 6.01455e-05 -0.00810731 -0.0154497 -0.00810731 7.85078e-05)
(-1.3704e-05 -0.0128061 -0.0154439 -0.0128061 4.5505e-05 -0.008108 -0.0154439 -0.008108 8.07217e-05)
(7.08782e-05 -0.0127942 -0.0154132 -0.0127942 2.49685e-05 -0.00812459 -0.0154132 -0.00812459 7.1156e-05)
(-6.52476e-05 -0.0128104 -0.0154514 -0.0128104 7.48008e-05 -0.00811206 -0.0154514 -0.00811206 7.32147e-05)
(0.000119429 -0.0127975 -0.0154255 -0.0127975 8.51542e-05 -0.00814392 -0.0154255 -0.00814392 4.21762e-05)
(-5.90862e-05 -0.0128104 -0.0154527 -0.0128104 6.54463e-05 -0.00810039 -0.0154527 -0.00810039 9.26597e-05)
(0.000117861 -0.0128226 -0.0154112 -0.0128226 7.9429e-05 -0.00815341 -0.0154112 -0.00815341 7.91678e-05)
(0.000201418 -0.0128334 -0.015431 -0.0128334 0.000125129 -0.00814691 -0.015431 -0.00814691 2.92848e-05)
(0.000134303 -0.0128165 -0.015422 -0.0128165 0.000102644 -0.00814818 -0.015422 -0.00814818 4.09319e-05)
(0.000129762 -0.012827 -0.015422 -0.012827 0.000105296 -0.00814813 -0.015422 -0.00814813 4.00974e-05)
(3.67621e-06 -0.012801 -0.0154405 -0.012801 4.59317e-05 -0.00811066 -0.0154405 -0.00811066 8.01822e-05)
(-5.14025e-05 -0.012811 -0.0154533 -0.012811 6.98418e-05 -0.00809927 -0.0154533 -0.00809927 9.83883e-05)
(-7.7442e-05 -0.0128137 -0.0154568 -0.0128137 8.48755e-05 -0.00810116 -0.0154568 -0.00810116 8.63763e-05)
(2.82387e-05 -0.0128015 -0.0154377 -0.0128015 5.20866e-05 -0.0081061 -0.0154377 -0.0081061 8.47878e-05)
(-0.000102528 -0.0128257 -0.0154568 -0.0128257 9.60421e-05 -0.00811264 -0.0154568 -0.00811264 7.47792e-05)
(-9.23804e-05 -0.0128219 -0.0154576 -0.0128219 7.27708e-05 -0.00811111 -0.0154576 -0.00811111 6.96172e-05)
(5.67237e-05 -0.0127931 -0.0154295 -0.0127931 2.41272e-05 -0.00813061 -0.0154295 -0.00813061 4.5687e-05)
(4.69396e-06 -0.0128348 -0.0154199 -0.0128348 0.000116614 -0.00811178 -0.0154199 -0.00811178 8.66806e-05)
(0.000110642 -0.0128128 -0.0154108 -0.0128128 6.53136e-05 -0.00815271 -0.0154108 -0.00815271 9.33418e-05)
(6.0579e-05 -0.0127976 -0.0154282 -0.0127976 2.72108e-05 -0.00812052 -0.0154282 -0.00812052 6.0116e-05)
(-9.30242e-05 -0.0128204 -0.0154525 -0.0128204 6.91995e-05 -0.00811613 -0.0154525 -0.00811613 6.27989e-05)
(7.43545e-05 -0.0127953 -0.0154268 -0.0127953 4.35256e-05 -0.00814084 -0.0154268 -0.00814084 4.86354e-05)
(5.75669e-05 -0.0127963 -0.0154274 -0.0127963 2.43564e-05 -0.00812202 -0.0154274 -0.00812202 6.62828e-05)
(-7.11224e-05 -0.0128132 -0.0154523 -0.0128132 8.20747e-05 -0.00811235 -0.0154523 -0.00811235 7.80413e-05)
(-0.000156901 -0.0128365 -0.0154492 -0.0128365 0.00010599 -0.00811926 -0.0154492 -0.00811926 6.98421e-05)
(-0.00019209 -0.0128395 -0.0154364 -0.0128395 0.000110873 -0.00810888 -0.0154364 -0.00810888 8.62753e-05)
(0.000577341 -0.0128624 -0.0154283 -0.0128624 0.000125933 -0.0081431 -0.0154283 -0.0081431 4.07267e-05)
(-0.000114942 -0.0128216 -0.0154564 -0.0128216 0.000109824 -0.0081 -0.0154564 -0.0081 8.29726e-05)
(-4.52621e-05 -0.0128315 -0.0154359 -0.0128315 0.000106116 -0.00810246 -0.0154359 -0.00810246 8.50344e-05)
(4.6117e-05 -0.0127967 -0.0154263 -0.0127967 2.6354e-05 -0.00811837 -0.0154263 -0.00811837 8.82295e-05)
(7.703e-05 -0.0127812 -0.015431 -0.0127812 4.45751e-05 -0.00814842 -0.015431 -0.00814842 8.04742e-05)
(9.18408e-05 -0.0128166 -0.0154254 -0.0128166 6.29607e-05 -0.00814055 -0.0154254 -0.00814055 3.18984e-05)
(8.29801e-05 -0.0128252 -0.0154511 -0.0128252 9.89521e-05 -0.0081166 -0.0154511 -0.0081166 8.28657e-05)
(0.000140178 -0.0128207 -0.01541 -0.0128207 0.000103575 -0.00814941 -0.01541 -0.00814941 6.59871e-05)
(3.77399e-05 -0.0127967 -0.0154313 -0.0127967 2.84187e-05 -0.00811741 -0.0154313 -0.00811741 7.15019e-05)
(4.13111e-05 -0.0127925 -0.0154216 -0.0127925 2.62497e-05 -0.00812129 -0.0154216 -0.00812129 9.64418e-05)
(-6.6675e-05 -0.0128079 -0.0154452 -0.0128079 6.30349e-05 -0.00810529 -0.0154452 -0.00810529 9.0489e-05)
(4.21102e-05 -0.0127935 -0.0154238 -0.0127935 2.32955e-05 -0.00812111 -0.0154238 -0.00812111 7.12413e-05)
(3.26719e-05 -0.0127906 -0.0154252 -0.0127906 2.31101e-05 -0.00812266 -0.0154252 -0.00812266 7.76571e-05)
(9.83513e-05 -0.0128074 -0.0154141 -0.0128074 4.88037e-05 -0.00814783 -0.0154141 -0.00814783 8.34109e-05)
(4.00803e-05 -0.0127949 -0.0154251 -0.0127949 2.94751e-05 -0.0081156 -0.0154251 -0.0081156 7.91817e-05)
(-0.000101307 -0.012817 -0.0154556 -0.012817 7.39807e-05 -0.00810487 -0.0154556 -0.00810487 8.16129e-05)
(6.75541e-05 -0.0127943 -0.0154161 -0.0127943 2.49966e-05 -0.00812092 -0.0154161 -0.00812092 7.27124e-05)
(-3.1877e-05 -0.012805 -0.0154463 -0.012805 5.66426e-05 -0.00811323 -0.0154463 -0.00811323 7.13595e-05)
(0.000161331 -0.0128103 -0.0154222 -0.0128103 0.000109501 -0.00814639 -0.0154222 -0.00814639 4.18126e-05)
(0.000162117 -0.0128413 -0.0153833 -0.0128413 0.000105255 -0.00811378 -0.0153833 -0.00811378 9.39997e-05)
(1.2765e-05 -0.0128065 -0.0154426 -0.0128065 5.19648e-05 -0.00810322 -0.0154426 -0.00810322 9.99208e-05)
(0.000233444 -0.012836 -0.0154345 -0.012836 0.000125958 -0.00814576 -0.0154345 -0.00814576 2.84853e-05)
(8.22261e-05 -0.0128003 -0.0154257 -0.0128003 5.395e-05 -0.00814344 -0.0154257 -0.00814344 4.68701e-05)
(0.000174091 -0.012839 -0.0154256 -0.012839 0.000125094 -0.00814862 -0.0154256 -0.00814862 3.32952e-05)
(3.70579e-05 -0.0127951 -0.0154291 -0.0127951 3.46484e-05 -0.00811446 -0.0154291 -0.00811446 8.13107e-05)
(-6.78803e-05 -0.0128127 -0.0154572 -0.0128127 7.65499e-05 -0.00809852 -0.0154572 -0.00809852 9.74572e-05)
(-3.78073e-05 -0.0128261 -0.0154412 -0.0128261 0.000105596 -0.00810493 -0.0154412 -0.00810493 8.47713e-05)
(5.0985e-05 -0.0127948 -0.0154209 -0.0127948 3.13755e-05 -0.00811379 -0.0154209 -0.00811379 9.16357e-05)
(4.31563e-05 -0.0127947 -0.015431 -0.0127947 2.33471e-05 -0.00812486 -0.015431 -0.00812486 4.9718e-05)
(9.54648e-05 -0.0127937 -0.0154269 -0.0127937 6.1917e-05 -0.00814458 -0.0154269 -0.00814458 4.66318e-05)
(1.30075e-05 -0.0127971 -0.0154397 -0.0127971 3.10208e-05 -0.00812319 -0.0154397 -0.00812319 5.44383e-05)
(-1.01795e-05 -0.0128339 -0.0154212 -0.0128339 0.00011392 -0.0081107 -0.0154212 -0.0081107 8.7746e-05)
(0.000117303 -0.0128142 -0.0154099 -0.0128142 7.62218e-05 -0.0081523 -0.0154099 -0.0081523 9.02648e-05)
(7.01931e-05 -0.0127988 -0.0154268 -0.0127988 2.39159e-05 -0.00812974 -0.0154268 -0.00812974 4.38424e-05)
(2.14348e-05 -0.0127863 -0.0154303 -0.0127863 2.08991e-05 -0.0081277 -0.0154303 -0.0081277 4.43701e-05)
(1.44593e-05 -0.0127903 -0.0154289 -0.0127903 2.34106e-05 -0.00812003 -0.0154289 -0.00812003 7.2894e-05)
(5.3188e-05 -0.0127953 -0.0154263 -0.0127953 2.74694e-05 -0.00811964 -0.0154263 -0.00811964 7.05277e-05)
(6.182e-05 -0.0127934 -0.0154258 -0.0127934 2.50478e-05 -0.00813008 -0.0154258 -0.00813008 5.01331e-05)
(-0.000123665 -0.012828 -0.0154539 -0.012828 9.58927e-05 -0.00812229 -0.0154539 -0.00812229 6.4186e-05)
(-0.000128131 -0.0128459 -0.0154039 -0.0128459 0.000113948 -0.00810991 -0.0154039 -0.00810991 9.70343e-05)
(5.27424e-05 -0.0127958 -0.0154233 -0.0127958 3.48492e-05 -0.00811308 -0.0154233 -0.00811308 7.99687e-05)
(0.000126527 -0.0128061 -0.0154009 -0.0128061 4.61598e-05 -0.0081482 -0.0154009 -0.0081482 0.000112789)
(-3.60984e-06 -0.0128326 -0.0154244 -0.0128326 0.00011141 -0.00810633 -0.0154244 -0.00810633 8.67989e-05)
(5.50473e-05 -0.0127922 -0.0154248 -0.0127922 2.65558e-05 -0.00813232 -0.0154248 -0.00813232 8.47909e-05)
(4.11666e-05 -0.0127821 -0.0154291 -0.0127821 2.66506e-05 -0.00813618 -0.0154291 -0.00813618 7.14529e-05)
(-6.07502e-05 -0.0128309 -0.0154541 -0.0128309 0.000100806 -0.00811309 -0.0154541 -0.00811309 7.9347e-05)
(7.92669e-05 -0.0128035 -0.0154444 -0.0128035 4.17311e-05 -0.00811958 -0.0154444 -0.00811958 6.31408e-05)
(7.92604e-05 -0.0128003 -0.0154191 -0.0128003 3.53481e-05 -0.00813758 -0.0154191 -0.00813758 8.00521e-05)
(-4.35699e-05 -0.0128098 -0.0154525 -0.0128098 6.74857e-05 -0.00810646 -0.0154525 -0.00810646 8.11128e-05)
(8.98198e-05 -0.0128016 -0.0154172 -0.0128016 4.97194e-05 -0.00814824 -0.0154172 -0.00814824 9.02246e-05)
(2.78914e-05 -0.0127876 -0.0154189 -0.0127876 2.57224e-05 -0.00812434 -0.0154189 -0.00812434 7.76107e-05)
(4.33815e-05 -0.0127901 -0.0154218 -0.0127901 2.29254e-05 -0.00812953 -0.0154218 -0.00812953 6.44627e-05)
(-3.22131e-05 -0.0128056 -0.0154449 -0.0128056 4.83078e-05 -0.00810602 -0.0154449 -0.00810602 9.21609e-05)
(6.27772e-05 -0.0127945 -0.0154157 -0.0127945 2.90421e-05 -0.00811875 -0.0154157 -0.00811875 9.79994e-05)
(7.28875e-06 -0.0127997 -0.0154357 -0.0127997 4.86777e-05 -0.00810926 -0.0154357 -0.00810926 8.22124e-05)
(-0.000167106 -0.0128247 -0.0154565 -0.0128247 9.29353e-05 -0.00810666 -0.0154565 -0.00810666 7.99571e-05)
(7.74153e-05 -0.0127976 -0.0154142 -0.0127976 2.5561e-05 -0.00812847 -0.0154142 -0.00812847 7.12805e-05)
(7.91934e-06 -0.0127966 -0.0154365 -0.0127966 3.2966e-05 -0.00811758 -0.0154365 -0.00811758 6.30273e-05)
(0.000140083 -0.0128096 -0.0154165 -0.0128096 0.00010351 -0.00814916 -0.0154165 -0.00814916 5.5095e-05)
(7.36619e-05 -0.0128311 -0.0154198 -0.0128311 0.000104956 -0.00810998 -0.0154198 -0.00810998 8.84624e-05)
(-0.000157852 -0.0128209 -0.0154655 -0.0128209 8.85878e-05 -0.00809712 -0.0154655 -0.00809712 8.99702e-05)
(0.000179003 -0.0128231 -0.0154288 -0.0128231 0.000119463 -0.00814658 -0.0154288 -0.00814658 3.04406e-05)
(5.48629e-05 -0.0127922 -0.0154276 -0.0127922 2.65908e-05 -0.00813371 -0.0154276 -0.00813371 4.42678e-05)
(0.00010085 -0.012825 -0.015424 -0.012825 9.43106e-05 -0.00814919 -0.015424 -0.00814919 3.4586e-05)
(8.10186e-05 -0.0127956 -0.0154132 -0.0127956 2.58903e-05 -0.00812939 -0.0154132 -0.00812939 7.57554e-05)
(2.73888e-05 -0.0127999 -0.0154316 -0.0127999 4.76019e-05 -0.00810677 -0.0154316 -0.00810677 0.000102062)
(-2.49383e-05 -0.0128271 -0.0154376 -0.0128271 0.000109451 -0.00810508 -0.0154376 -0.00810508 8.4388e-05)
(-5.13914e-06 -0.0128006 -0.015437 -0.0128006 4.64418e-05 -0.00810623 -0.015437 -0.00810623 9.39322e-05)
(7.20659e-05 -0.0127991 -0.0154252 -0.0127991 4.14404e-05 -0.00814091 -0.0154252 -0.00814091 4.84881e-05)
(0.000170351 -0.0128125 -0.0154221 -0.0128125 0.000113868 -0.00814827 -0.0154221 -0.00814827 4.00515e-05)
(3.63956e-05 -0.0127915 -0.0154323 -0.0127915 2.47622e-05 -0.00812788 -0.0154323 -0.00812788 5.01503e-05)
(2.367e-05 -0.0127985 -0.0154314 -0.0127985 3.7248e-05 -0.00811051 -0.0154314 -0.00811051 8.82475e-05)
(3.0029e-05 -0.0127988 -0.0154313 -0.0127988 4.05e-05 -0.00810814 -0.0154313 -0.00810814 9.61326e-05)
(7.37466e-05 -0.0127984 -0.0154238 -0.0127984 2.64554e-05 -0.00813228 -0.0154238 -0.00813228 4.86089e-05)
(0.000146779 -0.0128097 -0.015425 -0.0128097 0.000110386 -0.00814918 -0.015425 -0.00814918 3.67955e-05)
(5.31492e-05 -0.0127898 -0.0154215 -0.0127898 2.86197e-05 -0.00813647 -0.0154215 -0.00813647 8.21112e-05)
(6.5824e-06 -0.0127965 -0.0154357 -0.0127965 3.96669e-05 -0.00811751 -0.0154357 -0.00811751 6.97402e-05)
(7.4935e-05 -0.0128013 -0.0154271 -0.0128013 3.64443e-05 -0.00813772 -0.0154271 -0.00813772 4.03624e-05)
(2.59761e-05 -0.0127929 -0.0154337 -0.0127929 2.74229e-05 -0.00812629 -0.0154337 -0.00812629 5.02192e-05)
(-4.84724e-05 -0.0128101 -0.0154527 -0.0128101 4.90745e-05 -0.00810493 -0.0154527 -0.00810493 9.06544e-05)
(0.000276457 -0.012855 -0.0153476 -0.012855 0.000104549 -0.00812575 -0.0153476 -0.00812575 0.000103596)
(0.000149097 -0.0128462 -0.0154055 -0.0128462 0.000136583 -0.00814827 -0.0154055 -0.00814827 5.65581e-05)
(-0.000151257 -0.0128174 -0.0154565 -0.0128174 9.74797e-05 -0.00810195 -0.0154565 -0.00810195 8.67528e-05)
(-0.000218824 -0.0128344 -0.0154486 -0.0128344 0.000108263 -0.00810584 -0.0154486 -0.00810584 8.45002e-05)
(-5.10097e-05 -0.012809 -0.0154482 -0.012809 4.8287e-05 -0.00810982 -0.0154482 -0.00810982 7.2272e-05)
(-5.18622e-05 -0.0128177 -0.0154571 -0.0128177 8.8253e-05 -0.00810543 -0.0154571 -0.00810543 8.3402e-05)
(6.27232e-05 -0.0127968 -0.0154318 -0.0127968 2.52191e-05 -0.00812352 -0.0154318 -0.00812352 5.90648e-05)
(8.64756e-05 -0.0128033 -0.0154184 -0.0128033 4.89162e-05 -0.00814652 -0.0154184 -0.00814652 7.28729e-05)
(1.48706e-05 -0.0127951 -0.0154319 -0.0127951 3.24718e-05 -0.00811461 -0.0154319 -0.00811461 7.56429e-05)
(6.38088e-05 -0.0127929 -0.0154208 -0.0127929 3.0363e-05 -0.00813719 -0.0154208 -0.00813719 9.60472e-05)
(0.00012085 -0.0128167 -0.0154114 -0.0128167 9.62787e-05 -0.0081534 -0.0154114 -0.0081534 7.0664e-05)
(1.29526e-05 -0.0127929 -0.0154281 -0.0127929 3.0382e-05 -0.00811569 -0.0154281 -0.00811569 7.36719e-05)
(-7.05218e-05 -0.0128113 -0.0154541 -0.0128113 6.31512e-05 -0.00810129 -0.0154541 -0.00810129 9.67346e-05)
(3.945e-05 -0.0127957 -0.0154245 -0.0127957 3.59927e-05 -0.00811133 -0.0154245 -0.00811133 9.30793e-05)
(-3.84564e-05 -0.0128086 -0.0154505 -0.0128086 7.38776e-05 -0.00810883 -0.0154505 -0.00810883 7.72819e-05)
(-0.000201788 -0.0128323 -0.0154514 -0.0128323 0.000105357 -0.0081078 -0.0154514 -0.0081078 8.10654e-05)
(5.07284e-05 -0.0127954 -0.015422 -0.0127954 2.95463e-05 -0.00811593 -0.015422 -0.00811593 7.85632e-05)
(6.78443e-05 -0.0127993 -0.0154255 -0.0127993 3.76642e-05 -0.00813841 -0.0154255 -0.00813841 4.46758e-05)
(7.36148e-05 -0.0127947 -0.0154202 -0.0127947 4.32268e-05 -0.00814634 -0.0154202 -0.00814634 8.93188e-05)
(-6.05568e-05 -0.0128099 -0.0154522 -0.0128099 8.52867e-05 -0.00810382 -0.0154522 -0.00810382 8.82486e-05)
(-2.47557e-05 -0.0128059 -0.0154475 -0.0128059 4.29688e-05 -0.00810714 -0.0154475 -0.00810714 0.000102264)
(0.000111291 -0.0128067 -0.0154252 -0.0128067 8.57163e-05 -0.00814849 -0.0154252 -0.00814849 3.89798e-05)
(-4.86276e-06 -0.012802 -0.0154426 -0.012802 4.29313e-05 -0.00812201 -0.0154426 -0.00812201 5.52841e-05)
(1.06198e-05 -0.0127989 -0.0154391 -0.0127989 4.61012e-05 -0.00812352 -0.0154391 -0.00812352 5.69125e-05)
(9.8427e-05 -0.0128089 -0.0154141 -0.0128089 4.98376e-05 -0.00814728 -0.0154141 -0.00814728 7.24435e-05)
(7.06743e-05 -0.0127947 -0.0154186 -0.0127947 3.55699e-05 -0.00811318 -0.0154186 -0.00811318 9.53028e-05)
(-0.000154688 -0.0128176 -0.0154627 -0.0128176 9.92298e-05 -0.00809791 -0.0154627 -0.00809791 8.6798e-05)
(-0.000146577 -0.0128167 -0.0154591 -0.0128167 8.50634e-05 -0.00810113 -0.0154591 -0.00810113 8.64789e-05)
(9.38717e-05 -0.0127991 -0.0154196 -0.0127991 5.58164e-05 -0.00814926 -0.0154196 -0.00814926 8.30011e-05)
(2.28109e-05 -0.0127901 -0.0154324 -0.0127901 2.10127e-05 -0.00812304 -0.0154324 -0.00812304 6.05018e-05)
(3.88192e-05 -0.0127904 -0.0154264 -0.0127904 2.38451e-05 -0.00812554 -0.0154264 -0.00812554 5.84828e-05)
(8.47756e-05 -0.012801 -0.0154175 -0.012801 3.87044e-05 -0.00814121 -0.0154175 -0.00814121 8.92203e-05)
(-7.54898e-05 -0.0128258 -0.0154463 -0.0128258 0.000105978 -0.00810223 -0.0154463 -0.00810223 8.41055e-05)
(0.000106485 -0.0128135 -0.0154205 -0.0128135 8.28183e-05 -0.00815061 -0.0154205 -0.00815061 5.35746e-05)
(0.000109142 -0.0127942 -0.0154248 -0.0127942 7.35021e-05 -0.00815028 -0.0154248 -0.00815028 5.56592e-05)
(6.81365e-05 -0.0127949 -0.0154174 -0.0127949 3.43243e-05 -0.00814088 -0.0154174 -0.00814088 8.60265e-05)
(3.27322e-05 -0.0127899 -0.0154272 -0.0127899 2.68364e-05 -0.00812466 -0.0154272 -0.00812466 6.15857e-05)
(6.1254e-05 -0.0127938 -0.0154264 -0.0127938 2.42173e-05 -0.00812824 -0.0154264 -0.00812824 5.39178e-05)
(3.80175e-05 -0.0127912 -0.0154273 -0.0127912 2.15162e-05 -0.00812586 -0.0154273 -0.00812586 5.18958e-05)
(8.71752e-06 -0.0127906 -0.0154295 -0.0127906 2.56456e-05 -0.00811908 -0.0154295 -0.00811908 8.8154e-05)
(1.46118e-05 -0.012847 -0.0154057 -0.012847 0.000109934 -0.00811973 -0.0154057 -0.00811973 9.36771e-05)
(0.000110163 -0.0128315 -0.0154167 -0.0128315 0.00010741 -0.00815423 -0.0154167 -0.00815423 4.83211e-05)
(9.51473e-05 -0.012799 -0.0154062 -0.012799 3.73172e-05 -0.00814209 -0.0154062 -0.00814209 9.84406e-05)
(-0.000188523 -0.0128376 -0.0154351 -0.0128376 0.000113261 -0.00810894 -0.0154351 -0.00810894 8.76032e-05)
(-0.000213206 -0.0128348 -0.0154542 -0.0128348 0.000102399 -0.0081047 -0.0154542 -0.0081047 8.11409e-05)
(3.9697e-05 -0.0127929 -0.0154229 -0.0127929 2.91211e-05 -0.0081155 -0.0154229 -0.0081155 8.61643e-05)
(2.80199e-05 -0.0127935 -0.0154345 -0.0127935 3.16133e-05 -0.0081211 -0.0154345 -0.0081211 6.40756e-05)
(9.21528e-05 -0.0128055 -0.0154175 -0.0128055 6.0618e-05 -0.00815153 -0.0154175 -0.00815153 7.56873e-05)
(9.00754e-05 -0.0128088 -0.0154202 -0.0128088 6.51802e-05 -0.00815066 -0.0154202 -0.00815066 6.03503e-05)
(-2.33415e-05 -0.0128005 -0.0154404 -0.0128005 4.00649e-05 -0.00810957 -0.0154404 -0.00810957 9.019e-05)
(0.000137317 -0.012817 -0.0154056 -0.012817 9.89667e-05 -0.00815163 -0.0154056 -0.00815163 8.10429e-05)
(1.1301e-05 -0.0127972 -0.0154328 -0.0127972 4.33908e-05 -0.00811047 -0.0154328 -0.00811047 8.15425e-05)
(-0.000138426 -0.0128164 -0.0154608 -0.0128164 8.09092e-05 -0.00809957 -0.0154608 -0.00809957 9.03657e-05)
(4.34404e-05 -0.0127933 -0.015423 -0.0127933 3.0099e-05 -0.00811518 -0.015423 -0.00811518 8.66688e-05)
(8.70538e-05 -0.0128063 -0.0154176 -0.0128063 3.55045e-05 -0.00813749 -0.0154176 -0.00813749 5.60771e-05)
(-0.000127383 -0.0128246 -0.0154571 -0.0128246 8.39907e-05 -0.00810987 -0.0154571 -0.00810987 7.24374e-05)
(-0.000123801 -0.0128195 -0.0154548 -0.0128195 8.71932e-05 -0.00810937 -0.0154548 -0.00810937 7.63028e-05)
(0.000174964 -0.0128264 -0.0154217 -0.0128264 0.00012267 -0.00815028 -0.0154217 -0.00815028 3.7792e-05)
(6.8162e-05 -0.012794 -0.0154164 -0.012794 3.22821e-05 -0.00813888 -0.0154164 -0.00813888 0.000104859)
(-5.82676e-05 -0.0128071 -0.0154498 -0.0128071 7.92817e-05 -0.00810294 -0.0154498 -0.00810294 9.11726e-05)
(-3.22286e-05 -0.0128049 -0.0154473 -0.0128049 4.08289e-05 -0.00810798 -0.0154473 -0.00810798 9.32264e-05)
(2.14062e-05 -0.0127947 -0.0154299 -0.0127947 2.69258e-05 -0.00811617 -0.0154299 -0.00811617 7.61621e-05)
(-4.32662e-05 -0.0128087 -0.0154475 -0.0128087 6.70795e-05 -0.00811733 -0.0154475 -0.00811733 6.65377e-05)
(-7.12611e-05 -0.0128139 -0.0154516 -0.0128139 7.60832e-05 -0.00812192 -0.0154516 -0.00812192 6.29439e-05)
(8.86069e-05 -0.0128049 -0.0154145 -0.0128049 4.51804e-05 -0.00814587 -0.0154145 -0.00814587 7.31828e-05)
(8.42165e-05 -0.0127933 -0.0154146 -0.0127933 3.62993e-05 -0.00811372 -0.0154146 -0.00811372 9.6595e-05)
(-6.12232e-06 -0.0128053 -0.0154413 -0.0128053 5.85779e-05 -0.00810318 -0.0154413 -0.00810318 0.00010703)
(-6.30079e-05 -0.0128055 -0.0154466 -0.0128055 5.24249e-05 -0.00810488 -0.0154466 -0.00810488 9.14111e-05)
(7.28354e-05 -0.0127946 -0.0154199 -0.0127946 3.83708e-05 -0.00814474 -0.0154199 -0.00814474 0.000111822)
(-7.55277e-05 -0.0128116 -0.0154529 -0.0128116 6.14363e-05 -0.00811426 -0.0154529 -0.00811426 6.82398e-05)