/*--------------------------------*- C++ -*----------------------------------*\
  =========                 |
  \\      /  F ield         | OpenFOAM: The Open Source CFD Toolbox
   \\    /   O peration     | Website:  https://openfoam.org
    \\  /    A nd           | Version:  10
     \\/     M anipulation  |
\*---------------------------------------------------------------------------*/
FoamFile
{
    format      ascii;
    class       volVectorField;
    location    "20";
    object      UMean;
}
// * * * * * * * * * * * * * * * * * * * * * * * * * * * * * * * * * * * * * //

dimensions      [0 1 -1 0 0 0 0];

internalField   nonuniform List<vector> 
25600
(
(0.605795 0.00266069 0.368064)
(0.60894 0.0025247 0.368996)
(0.605743 0.00245787 0.36635)
(0.610196 0.00259605 0.370821)
(0.610941 0.00258616 0.369829)
(0.607441 0.00256793 0.369696)
(0.604428 0.00250977 0.374506)
(0.60459 0.00250886 0.371358)
(0.60953 0.00252251 0.36937)
(0.610208 0.00279012 0.373292)
(0.60716 0.00272802 0.375224)
(0.60708 0.00274806 0.378622)
(0.606137 0.00261679 0.379532)
(0.606177 0.00276324 0.377416)
(0.606944 0.002868 0.373268)
(0.606095 0.00273988 0.372644)
(0.606541 0.00270562 0.375925)
(0.603528 0.00279822 0.378204)
(0.605317 0.00266144 0.371207)
(0.606278 0.00256226 0.367615)
(0.610929 0.00272632 0.372692)
(0.611535 0.00271984 0.376613)
(0.607379 0.00264213 0.374755)
(0.610368 0.00250843 0.372862)
(0.606961 0.00252067 0.371111)
(0.610052 0.0026531 0.371141)
(0.607126 0.00268374 0.375584)
(0.61058 0.0026724 0.374795)
(0.612867 0.00272285 0.369248)
(0.613128 0.00278047 0.369312)
(0.603801 0.00263173 0.372328)
(0.60753 0.00251792 0.373578)
(0.611357 0.00259223 0.36922)
(0.608829 0.00263031 0.368118)
(0.610315 0.00263873 0.368008)
(0.612831 0.00283438 0.37455)
(0.611885 0.00269276 0.37749)
(0.609685 0.00246156 0.376019)
(0.613391 0.00269776 0.373437)
(0.61176 0.00260652 0.36751)
(0.552427 -0.00229598 0.312811)
(0.562156 -0.00252957 0.314972)
(0.547906 -0.00181497 0.308872)
(0.556441 -0.00128109 0.316064)
(0.562255 -0.00144122 0.317572)
(0.549047 -0.000508192 0.313369)
(0.541469 -0.000735479 0.321598)
(0.540994 -0.00204257 0.321689)
(0.544661 -0.00108636 0.316924)
(0.547028 0.000162589 0.322685)
(0.547993 -0.000609197 0.325738)
(0.546567 -0.00074089 0.331134)
(0.546778 -0.00149658 0.332806)
(0.545898 -0.00183193 0.332213)
(0.552524 -0.00174709 0.325709)
(0.550427 -0.00135195 0.323925)
(0.551496 -0.00109666 0.326459)
(0.546744 -0.00251932 0.336174)
(0.555334 -0.00332506 0.324483)
(0.554116 -0.00215548 0.316541)
(0.567792 -0.00104794 0.31999)
(0.572781 -0.000528078 0.324172)
(0.55394 -0.000668561 0.321516)
(0.56512 -0.000803409 0.320041)
(0.548984 -0.00123526 0.319689)
(0.5615 -0.00128131 0.318702)
(0.55513 -0.00119578 0.32686)
(0.562656 -0.00248962 0.328084)
(0.563071 -0.00189757 0.320565)
(0.561216 -0.000264566 0.319306)
(0.546807 -0.000655247 0.318362)
(0.557506 -0.00198957 0.320648)
(0.568751 -0.00188516 0.31889)
(0.556131 -0.000700554 0.315216)
(0.56335 -0.000639636 0.312455)
(0.56939 0.000532508 0.319977)
(0.574403 -0.000972422 0.327448)
(0.570673 -0.00219388 0.326075)
(0.572773 -0.00266751 0.325346)
(0.56741 -0.0024071 0.316168)
(0.574667 -0.0183608 0.278878)
(0.589202 -0.0187753 0.286163)
(0.562636 -0.0167836 0.277752)
(0.573828 -0.0161374 0.282605)
(0.587575 -0.0170583 0.286326)
(0.56375 -0.0143683 0.277729)
(0.560422 -0.0143015 0.284446)
(0.564081 -0.0175507 0.289559)
(0.557399 -0.0151426 0.284189)
(0.554685 -0.014014 0.28915)
(0.563125 -0.014787 0.287767)
(0.553515 -0.0140113 0.294558)
(0.560414 -0.0160186 0.295614)
(0.565564 -0.0172846 0.2972)
(0.583251 -0.0174288 0.291752)
(0.570654 -0.0160027 0.290911)
(0.57062 -0.0153819 0.295339)
(0.574824 -0.0190343 0.302459)
(0.588059 -0.0201168 0.293536)
(0.585652 -0.0168706 0.282519)
(0.600252 -0.0147624 0.284847)
(0.610676 -0.0126713 0.28725)
(0.580689 -0.0133376 0.289355)
(0.604226 -0.0139019 0.287111)
(0.578142 -0.0152633 0.287147)
(0.596446 -0.0153847 0.28411)
(0.584075 -0.0150161 0.291511)
(0.588214 -0.0182559 0.296366)
(0.580807 -0.0175637 0.290635)
(0.571047 -0.0153467 0.289935)
(0.569385 -0.0159252 0.281614)
(0.588862 -0.0177553 0.282868)
(0.6051 -0.0168375 0.283709)
(0.583807 -0.0135226 0.278508)
(0.596952 -0.0147085 0.280137)
(0.592739 -0.0128193 0.282737)
(0.606563 -0.0154112 0.288769)
(0.606626 -0.0178529 0.289685)
(0.594232 -0.019034 0.291792)
(0.603866 -0.0189001 0.286767)
(0.617467 -0.0252584 0.248415)
(0.640292 -0.0253165 0.256071)
(0.599417 -0.0240889 0.250538)
(0.614047 -0.0236962 0.251032)
(0.632772 -0.0241582 0.251905)
(0.604337 -0.0199811 0.24423)
(0.615651 -0.020429 0.249677)
(0.619093 -0.0241095 0.25333)
(0.602373 -0.0200215 0.248156)
(0.593963 -0.0198792 0.251218)
(0.604167 -0.0199411 0.249341)
(0.594262 -0.0186368 0.257902)
(0.606437 -0.022104 0.256018)
(0.615777 -0.0236147 0.258527)
(0.639139 -0.0233307 0.251845)
(0.615459 -0.0199764 0.252693)
(0.616098 -0.0208745 0.257892)
(0.625404 -0.0248653 0.264548)
(0.634297 -0.0271425 0.259938)
(0.629567 -0.0227542 0.248249)
(0.642075 -0.0200874 0.254989)
(0.647135 -0.0168761 0.257954)
(0.635663 -0.018624 0.262175)
(0.654853 -0.0208037 0.257989)
(0.637825 -0.0220874 0.255306)
(0.642502 -0.0211128 0.254031)
(0.633327 -0.0199797 0.256433)
(0.637391 -0.0238333 0.261166)
(0.627379 -0.0236449 0.257718)
(0.607627 -0.0221101 0.253328)
(0.616445 -0.0229387 0.246303)
(0.642851 -0.0246538 0.247965)
(0.649277 -0.0222357 0.24984)
(0.635269 -0.0193099 0.244372)
(0.647871 -0.020969 0.24702)
(0.628304 -0.0181033 0.248971)
(0.648214 -0.0219944 0.252302)
(0.654409 -0.023763 0.253443)
(0.621162 -0.0261917 0.257716)
(0.656336 -0.027236 0.25246)
(0.655639 -0.029735 0.231228)
(0.698383 -0.0299716 0.237216)
(0.645703 -0.0289985 0.234755)
(0.662626 -0.0290812 0.232263)
(0.668784 -0.0287149 0.231741)
(0.646906 -0.0239255 0.225963)
(0.668464 -0.0253656 0.232414)
(0.662046 -0.0276768 0.233304)
(0.633151 -0.0227381 0.228818)
(0.633278 -0.023386 0.229248)
(0.635859 -0.0232842 0.228473)
(0.638642 -0.0219804 0.233119)
(0.657324 -0.0254705 0.232205)
(0.654358 -0.0274767 0.232382)
(0.670521 -0.026424 0.227706)
(0.656103 -0.0219277 0.230484)
(0.658669 -0.0239362 0.235955)
(0.66664 -0.0280859 0.243044)
(0.667291 -0.0307366 0.238333)
(0.655067 -0.0259988 0.231661)
(0.672282 -0.0237142 0.239418)
(0.65667 -0.0222474 0.243196)
(0.688786 -0.0240576 0.244219)
(0.685071 -0.0258172 0.240215)
(0.684633 -0.0256122 0.236683)
(0.667689 -0.0243489 0.239645)
(0.677407 -0.0236575 0.239091)
(0.680918 -0.0277288 0.241392)
(0.679925 -0.0281211 0.239937)
(0.646662 -0.0256938 0.23205)
(0.6674 -0.0273652 0.229965)
(0.682274 -0.0280475 0.233988)
(0.686708 -0.0249238 0.233373)
(0.676564 -0.0242412 0.2269)
(0.681418 -0.0244791 0.227812)
(0.664385 -0.0216553 0.23155)
(0.682826 -0.0273066 0.234047)
(0.699827 -0.0269505 0.236858)
(0.647832 -0.0309815 0.23883)
(0.702591 -0.0329256 0.23158)
(0.697626 -0.0306004 0.208817)
(0.744559 -0.0316569 0.210395)
(0.69774 -0.0299718 0.214848)
(0.71769 -0.0309583 0.208534)
(0.698128 -0.0292112 0.210513)
(0.693148 -0.0252555 0.20184)
(0.7149 -0.026745 0.210252)
(0.694394 -0.0275228 0.210065)
(0.67772 -0.0229838 0.207543)
(0.679773 -0.0237999 0.209572)
(0.676716 -0.0246855 0.205174)
(0.68703 -0.0230959 0.209687)
(0.701342 -0.0257554 0.209506)
(0.692552 -0.0272936 0.202647)
(0.699342 -0.0261015 0.205482)
(0.699655 -0.0214179 0.209337)
(0.702197 -0.0244773 0.21571)
(0.711775 -0.0278197 0.21839)
(0.707169 -0.0296695 0.217051)
(0.691707 -0.0264131 0.216172)
(0.711108 -0.0247617 0.217755)
(0.685331 -0.024656 0.221203)
(0.739261 -0.0254702 0.224445)
(0.722795 -0.0262557 0.220454)
(0.723907 -0.0251098 0.218272)
(0.703986 -0.0248963 0.220087)
(0.722277 -0.0248395 0.219599)
(0.720485 -0.0285792 0.222748)
(0.719952 -0.0295494 0.220491)
(0.689522 -0.0261165 0.212228)
(0.720892 -0.0286461 0.212272)
(0.718539 -0.0278468 0.216131)
(0.730853 -0.0251651 0.213124)
(0.720618 -0.0250269 0.208176)
(0.718668 -0.0242563 0.209073)
(0.710392 -0.0227509 0.211677)
(0.719401 -0.0294633 0.213728)
(0.739711 -0.0273651 0.215545)
(0.696229 -0.0322986 0.219877)
(0.745527 -0.0340999 0.210068)
(0.740393 -0.0298839 0.185545)
(0.778072 -0.0307341 0.184828)
(0.743801 -0.0288859 0.193452)
(0.758319 -0.0307431 0.183481)
(0.729021 -0.0279504 0.18802)
(0.737066 -0.0255351 0.18027)
(0.753919 -0.0256056 0.188689)
(0.728671 -0.0263819 0.185163)
(0.732908 -0.0213614 0.186501)
(0.722379 -0.0217939 0.191218)
(0.731732 -0.0239223 0.184955)
(0.731391 -0.0222354 0.191592)
(0.741324 -0.0255302 0.190035)
(0.735938 -0.0265536 0.180979)
(0.738627 -0.0249545 0.186675)
(0.73708 -0.020373 0.189322)
(0.744216 -0.0229279 0.194453)
(0.747416 -0.0253105 0.196761)
(0.746615 -0.0277773 0.1939)
(0.738899 -0.025967 0.194685)
(0.746452 -0.0232709 0.193277)
(0.732908 -0.0249251 0.200819)
(0.774984 -0.0261537 0.203076)
(0.758391 -0.0263991 0.200091)
(0.750404 -0.0236047 0.196815)
(0.746172 -0.0237952 0.197522)
(0.756303 -0.0237904 0.199464)
(0.75688 -0.0275311 0.205691)
(0.748042 -0.027956 0.200937)
(0.726917 -0.0250504 0.192476)
(0.758468 -0.0271902 0.195574)
(0.747966 -0.0263611 0.19475)
(0.757725 -0.0246374 0.194109)
(0.758226 -0.0230195 0.190416)
(0.749369 -0.0219356 0.191588)
(0.755189 -0.0205893 0.192576)
(0.749306 -0.0288345 0.192908)
(0.765771 -0.0253934 0.1974)
(0.749043 -0.0308266 0.201416)
(0.775677 -0.0325639 0.188951)
(0.790207 -0.0261555 0.159504)
(0.820798 -0.0254066 0.162321)
(0.785445 -0.0248472 0.170719)
(0.802037 -0.0271193 0.160548)
(0.779207 -0.0236704 0.163668)
(0.783557 -0.0235713 0.159204)
(0.792718 -0.022621 0.164726)
(0.77204 -0.0222961 0.160605)
(0.782896 -0.018203 0.164749)
(0.761159 -0.0191488 0.165943)
(0.782329 -0.0203159 0.160593)
(0.767292 -0.018926 0.166089)
(0.783572 -0.0220976 0.163686)
(0.778049 -0.023272 0.158738)
(0.775411 -0.020874 0.162798)
(0.762302 -0.0182691 0.164439)
(0.788064 -0.019085 0.169633)
(0.776511 -0.0219025 0.167556)
(0.786944 -0.0241167 0.167515)
(0.777964 -0.0220152 0.166574)
(0.777131 -0.0193342 0.169361)
(0.788683 -0.0233218 0.177902)
(0.803099 -0.0242274 0.174784)
(0.793757 -0.0233292 0.177682)
(0.782116 -0.0203392 0.172479)
(0.791725 -0.0209993 0.172951)
(0.789516 -0.0198545 0.17513)
(0.795955 -0.0232867 0.182141)
(0.779259 -0.0220701 0.175295)
(0.760577 -0.0202769 0.168433)
(0.790551 -0.0219458 0.167331)
(0.779797 -0.0212899 0.170258)
(0.788124 -0.0215992 0.170358)
(0.794398 -0.0185232 0.168632)
(0.7848 -0.0184754 0.170056)
(0.791669 -0.0172798 0.16835)
(0.7867 -0.0252416 0.170006)
(0.798736 -0.0218012 0.176383)
(0.797209 -0.0265446 0.175317)
(0.809356 -0.0283817 0.163186)
(0.832319 -0.0201453 0.130586)
(0.846143 -0.0193651 0.137826)
(0.824034 -0.01869 0.143486)
(0.834224 -0.0218302 0.136662)
(0.826891 -0.0174396 0.137073)
(0.814198 -0.018737 0.137442)
(0.826928 -0.0180964 0.139047)
(0.804106 -0.0177597 0.138424)
(0.815785 -0.0156223 0.140034)
(0.792632 -0.016705 0.141711)
(0.818655 -0.0164735 0.134267)
(0.81048 -0.0147908 0.135552)
(0.817426 -0.0181165 0.135346)
(0.806592 -0.0172676 0.132531)
(0.807556 -0.0174034 0.134794)
(0.79505 -0.0138091 0.133354)
(0.819495 -0.0146797 0.139416)
(0.807252 -0.016921 0.134259)
(0.822802 -0.019115 0.137429)
(0.81552 -0.0152747 0.134314)
(0.808996 -0.0139919 0.1429)
(0.831036 -0.0201367 0.146802)
(0.826502 -0.0200134 0.144678)
(0.828088 -0.0184542 0.148729)
(0.819695 -0.0161309 0.147649)
(0.828841 -0.0165045 0.145401)
(0.819382 -0.0126501 0.149028)
(0.830182 -0.0162489 0.152115)
(0.80484 -0.014663 0.149708)
(0.797094 -0.0151353 0.145292)
(0.811515 -0.0159958 0.142483)
(0.804771 -0.015236 0.146892)
(0.81583 -0.0166621 0.145952)
(0.818685 -0.0130161 0.145673)
(0.816537 -0.0133603 0.142693)
(0.814434 -0.0124938 0.141579)
(0.823191 -0.0184236 0.142061)
(0.829057 -0.0167337 0.149719)
(0.829267 -0.0209244 0.141216)
(0.836987 -0.0227039 0.135789)
(0.855685 -0.0118961 0.104729)
(0.872982 -0.0110465 0.113862)
(0.865096 -0.0107158 0.114927)
(0.867727 -0.0144111 0.111528)
(0.861551 -0.00928762 0.111805)
(0.848611 -0.0110769 0.112549)
(0.859688 -0.0104677 0.112378)
(0.835234 -0.00979626 0.111863)
(0.843461 -0.00919825 0.110352)
(0.8348 -0.0092356 0.11082)
(0.849247 -0.00971259 0.104282)
(0.850339 -0.00825469 0.101941)
(0.85269 -0.0108729 0.10696)
(0.838861 -0.009895 0.10719)
(0.842509 -0.0120327 0.108576)
(0.835936 -0.00867926 0.104132)
(0.852779 -0.0108219 0.106493)
(0.839778 -0.0125232 0.104163)
(0.850675 -0.0143246 0.107677)
(0.843453 -0.00941371 0.103838)
(0.842379 -0.00857945 0.112551)
(0.866396 -0.0132086 0.108815)
(0.854163 -0.0138405 0.113427)
(0.86251 -0.0133931 0.114193)
(0.861236 -0.00995453 0.119769)
(0.861177 -0.00917529 0.116006)
(0.846237 -0.00551435 0.118116)
(0.862018 -0.00880884 0.117038)
(0.836234 -0.00710154 0.120315)
(0.842124 -0.00823843 0.117939)
(0.83287 -0.00830084 0.115899)
(0.83119 -0.00930107 0.117374)
(0.838349 -0.0100561 0.120592)
(0.842601 -0.00703918 0.118964)
(0.846842 -0.00682623 0.113225)
(0.845733 -0.00641397 0.113615)
(0.852881 -0.00930271 0.10994)
(0.861165 -0.00884813 0.121291)
(0.860067 -0.0111995 0.110245)
(0.866316 -0.0144036 0.113352)
(0.882042 -0.00520246 0.0834448)
(0.898346 -0.004061 0.0903294)
(0.894923 -0.00286914 0.0882068)
(0.892585 -0.00500788 0.0838791)
(0.885308 -0.00165213 0.0887493)
(0.886888 -0.00435524 0.0866391)
(0.882936 -0.00369521 0.0887086)
(0.881099 -0.00221492 0.0893632)
(0.870427 -0.00249288 0.0872337)
(0.872583 1.55992e-05 0.0829253)
(0.872797 -0.00311113 0.0773237)
(0.873311 -0.00261884 0.076332)
(0.885594 -0.00377632 0.0795189)
(0.870509 -0.00345014 0.0832693)
(0.876173 -0.00418833 0.0848207)
(0.865476 -0.00256068 0.0749234)
(0.887519 -0.00565152 0.0762516)
(0.868707 -0.00431224 0.0795707)
(0.879389 -0.00731535 0.0809746)
(0.868048 -0.00140277 0.0761731)
(0.883764 -0.00377134 0.0747237)
(0.89896 -0.00642942 0.0756389)
(0.887094 -0.00600102 0.0807131)
(0.890902 -0.00554784 0.0817486)
(0.883385 -0.00223147 0.088954)
(0.884816 0.00037392 0.0859956)
(0.871125 0.00302503 0.0857078)
(0.894186 -0.000328316 0.0831896)
(0.880125 0.00156324 0.0902223)
(0.875212 -0.00185935 0.0855774)
(0.865541 -8.47332e-05 0.0855198)
(0.864735 -0.00154856 0.0850358)
(0.863905 -0.000931428 0.0911236)
(0.866969 0.00144567 0.0883922)
(0.876003 -0.000122679 0.0830879)
(0.877576 0.00158711 0.0818367)
(0.884149 -0.000162779 0.0812832)
(0.891161 0.000130746 0.0895271)
(0.896083 -0.00205033 0.0840222)
(0.893425 -0.00596977 0.089137)
(0.918479 0.00777745 0.0608166)
(0.914192 0.00784333 0.0645883)
(0.920451 0.00727823 0.0659749)
(0.914191 0.00583547 0.0644547)
(0.909462 0.00942019 0.067626)
(0.913197 0.00826039 0.0644377)
(0.901121 0.0084097 0.0652329)
(0.903708 0.00822537 0.0662365)
(0.899182 0.00722022 0.0628807)
(0.897307 0.00952065 0.0633829)
(0.909337 0.00616848 0.0547759)
(0.895785 0.00582412 0.0588806)
(0.912267 0.00402483 0.0579531)
(0.899519 0.00371117 0.0624816)
(0.911603 0.00257736 0.0617818)
(0.908683 0.00353836 0.0522067)
(0.921241 0.00169587 0.0507639)
(0.90209 0.00217297 0.0578069)
(0.910852 0.000172778 0.0511173)
(0.898956 0.00619442 0.0539938)
(0.921865 0.00211091 0.0442213)
(0.923015 0.00220301 0.051135)
(0.919264 0.00225074 0.051563)
(0.917094 0.00292355 0.0586961)
(0.905029 0.00582339 0.0620168)
(0.909122 0.00812427 0.0576584)
(0.901742 0.00774586 0.0543398)
(0.920242 0.00584978 0.052674)
(0.914322 0.0107669 0.057123)
(0.912268 0.0087924 0.0537193)
(0.901489 0.00984603 0.0546946)
(0.91112 0.00824888 0.0543497)
(0.904258 0.0100837 0.0590476)
(0.903944 0.0106879 0.0591594)
(0.908 0.00976031 0.0535345)
(0.90163 0.0119544 0.0515228)
(0.904133 0.00973112 0.0572013)
(0.906005 0.00934576 0.0609789)
(0.915904 0.0104543 0.0625017)
(0.911881 0.00762349 0.065669)
(0.936727 0.0132884 0.0434951)
(0.936171 0.0153956 0.0418891)
(0.939589 0.0149958 0.0455102)
(0.929494 0.0149703 0.0506703)
(0.935346 0.0159813 0.052926)
(0.935285 0.0157691 0.0494412)
(0.939926 0.0149872 0.0508813)
(0.923775 0.0162995 0.0476467)
(0.938927 0.0152316 0.0452165)
(0.920425 0.0159669 0.045859)
(0.94198 0.0116756 0.0349622)
(0.932878 0.0128315 0.0406338)
(0.941572 0.0120039 0.0385472)
(0.934473 0.0137341 0.0426208)
(0.940835 0.0122631 0.0361021)
(0.946534 0.0116687 0.0345199)
(0.949485 0.0121844 0.0281305)
(0.941627 0.0115676 0.0294741)
(0.94458 0.0111082 0.0246318)
(0.938358 0.0135096 0.0291135)
(0.950527 0.0102791 0.0225374)
(0.951487 0.013218 0.0330524)
(0.947874 0.0146058 0.0363356)
(0.940178 0.0156673 0.0429678)
(0.939897 0.0182943 0.0426779)
(0.935826 0.0194557 0.0396298)
(0.93455 0.0158568 0.0380231)
(0.934484 0.0167369 0.0330721)
(0.934659 0.0208134 0.0320342)
(0.947963 0.0197656 0.0312852)
(0.918293 0.0193499 0.0310385)
(0.939766 0.0157244 0.032506)
(0.92555 0.0188621 0.0376503)
(0.93093 0.0182578 0.038047)
(0.935035 0.0181332 0.0336372)
(0.927271 0.0216938 0.0343688)
(0.929436 0.0197465 0.0387166)
(0.928135 0.0173284 0.045222)
(0.932818 0.0179596 0.043529)
(0.929729 0.0148668 0.0469709)
(0.950882 0.023784 0.0303663)
(0.959588 0.0252723 0.0262496)
(0.955196 0.0257406 0.0299054)
(0.949978 0.0256564 0.032221)
(0.960308 0.0256734 0.0328115)
(0.96715 0.023334 0.0310782)
(0.977511 0.0241634 0.0319003)
(0.966654 0.0246825 0.0326842)
(0.97745 0.0251818 0.0310251)
(0.958493 0.0250754 0.0299296)
(0.9666 0.0211618 0.0212377)
(0.961659 0.022188 0.028993)
(0.966045 0.0197616 0.026808)
(0.969781 0.0217684 0.0316719)
(0.970557 0.0200159 0.0271424)
(0.980356 0.0192311 0.0277167)
(0.977722 0.0196469 0.0222842)
(0.980431 0.0204836 0.0144291)
(0.977602 0.0205918 0.0154633)
(0.978081 0.020923 0.0143433)
(0.980605 0.0181941 0.0128927)
(0.973903 0.0207974 0.0204936)
(0.972651 0.0232959 0.0251243)
(0.962312 0.0253185 0.0286184)
(0.963065 0.0264914 0.0250322)
(0.964772 0.0269333 0.0199742)
(0.965474 0.0255367 0.0199083)
(0.964293 0.0258621 0.018447)
(0.968944 0.0272223 0.0163651)
(0.973497 0.0307112 0.0154153)
(0.959051 0.0277781 0.0149154)
(0.960589 0.0264606 0.0209537)
(0.951634 0.0295915 0.0230558)
(0.958047 0.0278329 0.0261129)
(0.952722 0.028032 0.027251)
(0.95666 0.0286868 0.0264879)
(0.954286 0.0272435 0.0244103)
(0.95572 0.0269577 0.0285141)
(0.951825 0.0277075 0.0274209)
(0.956345 0.0251715 0.0304139)
(0.997883 0.0269409 0.0201161)
(0.996038 0.0266763 0.0188101)
(0.992261 0.027215 0.0230501)
(0.988986 0.027699 0.0194933)
(0.998589 0.0284878 0.0186398)
(0.994009 0.0259362 0.0181956)
(1.00373 0.0275271 0.0192556)
(0.997315 0.0301859 0.022602)
(1.00867 0.0279499 0.0197597)
(1.00217 0.0267906 0.0211875)
(1.013 0.0238515 0.0163009)
(1.01029 0.0276556 0.0198507)
(1.00877 0.0262639 0.0162174)
(1.00612 0.0289493 0.0175161)
(1.00982 0.026063 0.0204377)
(1.0141 0.0289422 0.0177618)
(1.01701 0.0297252 0.0187384)
(1.01241 0.0321906 0.0129703)
(1.01632 0.031029 0.00996664)
(1.01721 0.0299115 0.00962659)
(1.01754 0.028778 0.00636369)
(1.01141 0.0339232 0.00802652)
(1.00789 0.0344964 0.00953616)
(1.00496 0.0356728 0.0139475)
(0.995716 0.0353908 0.0141416)
(1.00419 0.0350369 0.00817447)
(0.998741 0.0352307 0.00753153)
(1.00004 0.0340534 0.00772534)
(1.00127 0.0348409 0.00689533)
(1.00144 0.037914 0.00799463)
(1.00361 0.038389 0.00686962)
(0.991373 0.0372667 0.0153787)
(0.987917 0.0376922 0.0162413)
(0.986166 0.0369669 0.0216681)
(0.981502 0.0358099 0.0228589)
(0.985425 0.0351547 0.0226347)
(0.99315 0.033624 0.0224729)
(0.993975 0.0324951 0.0209303)
(0.992124 0.0324382 0.0179526)
(0.997893 0.0302959 0.0186639)
(1.03406 0.035067 0.016038)
(1.02806 0.0366735 0.0153698)
(1.02818 0.0372484 0.0207433)
(1.02201 0.0365992 0.0184277)
(1.0349 0.038614 0.0187195)
(1.02043 0.0358409 0.0164614)
(1.02233 0.035456 0.0164325)
(1.01707 0.0360655 0.0165843)
(1.02889 0.0337908 0.0137836)
(1.02607 0.0311299 0.0136168)
(1.03512 0.029096 0.0126671)
(1.03574 0.0340005 0.0138805)
(1.04731 0.033544 0.0137267)
(1.03331 0.0359193 0.012974)
(1.03933 0.0346124 0.0159196)
(1.02741 0.0358497 0.0164907)
(1.03462 0.035546 0.0152449)
(1.03573 0.037498 0.0170286)
(1.03647 0.0363943 0.0167364)
(1.03952 0.03844 0.0165175)
(1.03254 0.040428 0.0100455)
(1.04115 0.0430079 0.00966832)
(1.03875 0.0424543 0.00807829)
(1.03995 0.0439796 0.00897671)
(1.03333 0.0421833 0.00974505)
(1.03645 0.0431251 0.00753801)
(1.03096 0.045311 0.00632192)
(1.02955 0.0425736 0.00862155)
(1.03184 0.0436529 0.00958476)
(1.03077 0.0438332 0.0131244)
(1.02674 0.044355 0.00895951)
(1.0261 0.0456542 0.0123543)
(1.01641 0.0474457 0.0159601)
(1.01091 0.04593 0.0183961)
(1.01841 0.0452988 0.0186739)
(1.01519 0.044004 0.0180208)
(1.02176 0.0414735 0.0198346)
(1.01742 0.038888 0.0200418)
(1.02803 0.0388917 0.0171729)
(1.02671 0.0372122 0.0175751)
(1.06048 0.0419607 0.0122144)
(1.06078 0.0433425 0.00867517)
(1.05971 0.0438369 0.0121287)
(1.0559 0.0427733 0.0062168)
(1.0608 0.0417526 0.00725122)
(1.06208 0.0409477 0.00562969)
(1.06043 0.0404787 0.00857604)
(1.05997 0.0428254 0.00647144)
(1.06132 0.0431395 0.00616258)
(1.0547 0.0429003 0.00467407)
(1.05494 0.0407702 0.00756094)
(1.06047 0.0412882 0.00768021)
(1.06555 0.042706 0.00755524)
(1.06227 0.0454483 0.00792132)
(1.0582 0.0458547 0.00871618)
(1.05504 0.0457073 0.00815316)
(1.053 0.0426721 0.00647861)
(1.06155 0.0468607 0.00850146)
(1.05388 0.0439959 0.010935)
(1.05344 0.0469331 0.0102397)
(1.05213 0.0493096 0.00682653)
(1.05424 0.0474332 0.0104914)
(1.0567 0.0500388 0.0106722)
(1.04913 0.0524786 0.0125923)
(1.03821 0.0517164 0.00759838)
(1.03423 0.0500127 0.0068459)
(1.04011 0.0520982 0.00313243)
(1.04583 0.0503179 0.00526578)
(1.05075 0.0509657 0.00620713)
(1.05702 0.0521689 0.0101752)
(1.05243 0.053168 0.0104184)
(1.05674 0.0545562 0.00834004)
(1.05941 0.0555992 0.0108836)
(1.0566 0.0535332 0.0118125)
(1.05394 0.0508937 0.0153777)
(1.05125 0.047971 0.0153855)
(1.04974 0.0449885 0.0180743)
(1.04925 0.0442089 0.0182712)
(1.05369 0.0454249 0.0171234)
(1.05678 0.0434914 0.0162447)
(1.0915 0.0478619 0.00474701)
(1.09181 0.0505759 0.00485936)
(1.10099 0.0522673 0.00864109)
(1.09652 0.0520432 0.00566616)
(1.10025 0.0488757 0.0051019)
(1.09765 0.0484678 0.00437764)
(1.09691 0.0471302 0.00606322)
(1.09077 0.0469851 0.00550407)
(1.09852 0.0479942 0.00617881)
(1.08743 0.0485578 0.00624788)
(1.0904 0.049278 0.0060779)
(1.08826 0.0491916 0.00588988)
(1.09043 0.050043 0.00852808)
(1.09066 0.0513197 0.0103716)
(1.09349 0.0539347 0.00807777)
(1.09658 0.0532159 0.00591382)
(1.09479 0.0521305 0.00305214)
(1.0949 0.0534016 0.000896284)
(1.09593 0.0515941 -0.000406571)
(1.09149 0.0532621 0.0025954)
(1.09288 0.0544577 0.00269505)
(1.08811 0.053788 0.00751605)
(1.08624 0.056204 0.00873873)
(1.08936 0.0566988 0.0131855)
(1.0872 0.0583735 0.0127898)
(1.08159 0.0571359 0.0131345)
(1.08139 0.0568912 0.0103304)
(1.08347 0.0550652 0.00764876)
(1.08442 0.055906 0.00787237)
(1.08231 0.0591562 0.00754136)
(1.08794 0.0621677 0.00891066)
(1.07548 0.0629344 0.00924671)
(1.08523 0.0622626 0.0075397)
(1.08548 0.0635476 0.00628724)
(1.08616 0.061777 0.00722432)
(1.08519 0.0575982 0.00617063)
(1.08936 0.0535021 0.00914252)
(1.08613 0.0524197 0.00681613)
(1.08602 0.0498252 0.00784628)
(1.08631 0.0501682 0.00610853)
(1.12667 0.0597159 -0.0029716)
(1.12674 0.0600232 -0.0028535)
(1.12602 0.0599021 -0.000283977)
(1.12592 0.0592986 0.000382191)
(1.12578 0.0556023 0.00221668)
(1.12478 0.0567995 0.00334498)
(1.11789 0.0577655 0.003295)
(1.11702 0.0591208 0.00431345)
(1.1211 0.0588982 0.00125796)
(1.11827 0.0596374 0.00112604)
(1.12449 0.0593078 -0.0008045)
(1.12352 0.0583009 0.0018246)
(1.12121 0.0552085 0.00359197)
(1.12026 0.0544042 0.00511605)
(1.11819 0.0550668 0.00382114)
(1.12092 0.056248 0.00432184)
(1.11397 0.0564374 0.00171868)
(1.11392 0.0574918 0.000709252)
(1.12033 0.0571188 0.000627934)
(1.11974 0.0583379 0.00153807)
(1.12121 0.0601064 -0.00157895)
(1.11469 0.0619574 -0.000955877)
(1.11225 0.0639072 -0.00067701)
(1.10983 0.0648216 0.00381547)
(1.11362 0.0655504 0.00521881)
(1.11298 0.0658389 0.00545593)
(1.11393 0.0666158 0.00408357)
(1.1075 0.0657319 0.00287272)
(1.11664 0.0663892 0.00307024)
(1.11227 0.0685225 0.000710738)
(1.12365 0.0674844 0.00108963)
(1.12061 0.0665897 0.00341283)
(1.1194 0.0637399 0.00333258)
(1.12246 0.0638558 0.00125846)
(1.12161 0.0673803 -0.00076839)
(1.12177 0.067714 -0.00307627)
(1.12257 0.0661949 -0.0012883)
(1.11996 0.0663542 -0.00370102)
(1.12154 0.0639458 -0.00123348)
(1.12324 0.0623751 -0.000692242)
(1.12753 0.0693321 -0.00461571)
(1.13079 0.0699923 -0.00503751)
(1.13227 0.0704164 -0.00301665)
(1.13234 0.0700093 -0.000342177)
(1.1313 0.0693318 0.0020116)
(1.12848 0.0686396 0.00323439)
(1.12662 0.0690213 0.00033344)
(1.12699 0.0689854 0.000404104)
(1.12524 0.0693737 -0.000401613)
(1.12206 0.0675095 0.00200962)
(1.12353 0.0663887 0.00315236)
(1.13418 0.0660814 0.00354415)
(1.13376 0.0649969 0.00404056)
(1.13737 0.0657619 0.00593343)
(1.13462 0.0665955 0.00625811)
(1.13759 0.0646842 0.00755561)
(1.1343 0.065701 0.00747503)
(1.13016 0.0652176 0.00626464)
(1.13229 0.0654863 0.0089443)
(1.12842 0.0637074 0.0103169)
(1.12936 0.0641714 0.00793199)
(1.12144 0.0634028 0.00602529)
(1.12188 0.0626495 0.00370077)
(1.11899 0.0627047 0.00427894)
(1.1193 0.0647318 0.00351007)
(1.1176 0.0640846 0.00150698)
(1.12495 0.0651364 0.000775196)
(1.12148 0.0675504 -0.0002312)
(1.12295 0.0699846 -1.4069e-05)
(1.12889 0.0745328 -0.00433084)
(1.12984 0.074808 -0.00358804)
(1.13787 0.0779138 -0.00159401)
(1.13641 0.0765157 -0.00270342)
(1.13945 0.0747334 -0.00501723)
(1.13546 0.0739306 -0.00615877)
(1.13222 0.0723214 -0.0072133)
(1.12444 0.0713344 -0.00435972)
(1.1201 0.070693 -0.00505321)
(1.12285 0.0701119 -0.00427612)
(1.12142 0.0710963 -0.00315938)
(1.18984 0.0698604 0.00472314)
(1.19188 0.0701751 0.00640422)
(1.1954 0.0722894 0.00699136)
(1.19564 0.0743122 0.00739383)
(1.19834 0.0736315 0.00581921)
(1.19932 0.0754696 0.00454398)
(1.20175 0.0751007 0.00208078)
(1.20124 0.0754331 0.00306289)
(1.2021 0.0740144 0.00223471)
(1.20417 0.0729925 0.00283302)
(1.19764 0.0707566 0.00372987)
(1.19869 0.0681939 0.00217444)
(1.19665 0.0665188 0.0016213)
(1.19893 0.0672408 0.00185956)
(1.20166 0.0687324 0.00108772)
(1.20587 0.0678996 -0.000120647)
(1.20858 0.0680261 -0.000222898)
(1.20733 0.0700126 -0.00209984)
(1.20741 0.0678927 -0.000665871)
(1.20249 0.0669014 -0.000374674)
(1.20529 0.06869 -0.000934574)
(1.20278 0.0701701 -0.00242206)
(1.19963 0.0688165 -0.00223812)
(1.20058 0.0685212 -0.00346422)
(1.20103 0.0702506 -0.00143496)
(1.20509 0.0716348 -0.00237106)
(1.21181 0.0716891 -0.00223262)
(1.20933 0.0733615 -0.00176267)
(1.20478 0.073022 -0.00136418)
(1.2007 0.0757602 -0.00287066)
(1.19767 0.075599 -0.00288079)
(1.19406 0.0768769 0.000149437)
(1.19513 0.0775799 0.000958313)
(1.19146 0.0777683 0.00409685)
(1.1938 0.0808668 0.00270768)
(1.19199 0.0821835 0.004768)
(1.19592 0.0803657 0.00533045)
(1.19467 0.0794913 0.00719761)
(1.19462 0.0761779 0.00594154)
(1.18928 0.0747599 0.00555862)
(1.16244 0.0906854 0.0112272)
(1.16263 0.0916142 0.0119946)
(1.16243 0.0916783 0.0117526)
(1.16437 0.0899638 0.0107243)
(1.15311 0.0868626 0.0120346)
(1.15507 0.0853495 0.0132973)
(1.1544 0.0836532 0.0138087)
(1.15495 0.0822667 0.0158352)
(1.16014 0.0820594 0.0172623)
(1.15978 0.0800901 0.0168856)
(1.15968 0.0787312 0.0159186)
(1.15716 0.0771455 0.0142184)
(1.15558 0.0735231 0.0119811)
(1.15398 0.0706117 0.0105259)
(1.16355 0.0715674 0.0102051)
(1.16219 0.0709837 0.0107349)
(1.16801 0.0734117 0.0108316)
(1.17373 0.0766816 0.0101502)
(1.18094 0.0777069 0.0102094)
(1.17814 0.0776588 0.00941312)
(1.18226 0.0761085 0.00788753)
(1.18037 0.0770726 0.00645751)
(1.18161 0.0769659 0.00791449)
(1.17597 0.0757164 0.00983847)
(1.17923 0.0754861 0.00873186)
(1.17501 0.0768828 0.00784234)
(1.17896 0.0786527 0.00753328)
(1.18068 0.0809624 0.0088082)
(1.18928 0.0818683 0.00952867)
(1.18867 0.0848916 0.0105806)
(1.18714 0.0879875 0.00616685)
(1.18035 0.089161 0.00422202)
(1.17317 0.0888415 0.00060662)
(1.16843 0.0873834 -0.00087662)
(1.16084 0.0860245 -0.00133644)
(1.16458 0.0869869 -0.00247617)
(1.16665 0.0866451 -0.00127825)
(1.167 0.0895831 0.00196596)
(1.16196 0.0902273 0.00570093)
(1.16597 0.0919323 0.00926766)
(1.24641 0.0862615 0.00614402)
(1.25176 0.0879076 0.00757703)
(1.25261 0.0870837 0.00436782)
(1.2545 0.0877293 0.00138084)
(1.25433 0.0882238 0.000319737)
(1.25219 0.0848691 -0.000502904)
(1.25312 0.0838581 -0.00171466)
(1.24647 0.0844747 0.000429467)
(1.25089 0.0846164 0.00148454)
(1.24635 0.0858011 0.000970263)
(1.25002 0.0860767 0.000404912)
(1.24322 0.0840179 0.00142004)
(1.24293 0.0835031 0.00337565)
(1.23319 0.0809388 0.00589363)
(1.23472 0.0798421 0.00839944)
(1.23156 0.0798341 0.00939022)
(1.23568 0.0785347 0.0107618)
(1.24024 0.0770638 0.0106175)
(1.24685 0.0783538 0.00834204)
(1.24756 0.0802899 0.00634411)
(1.25007 0.0801278 0.00389194)
(1.24758 0.0815484 0.00145673)
(1.24959 0.0828949 0.00223739)
(1.24707 0.0861654 0.00326489)
(1.24951 0.0862371 0.00279594)
(1.25001 0.0872331 0.00244012)
(1.24643 0.0840917 0.00300298)
(1.24274 0.0840462 0.0030264)
(1.24098 0.082014 0.00278748)
(1.24304 0.0837554 -5.7303e-05)
(1.24897 0.0858073 -0.00288523)
(1.24919 0.0892162 -0.0034967)
(1.25009 0.0912503 -0.00343147)
(1.24616 0.0909893 -0.00231536)
(1.23893 0.0885074 4.52115e-05)
(1.2401 0.0867104 0.000550327)
(1.23627 0.08366 0.0013355)
(1.23888 0.0855132 0.00160773)
(1.2403 0.0857028 0.00386465)
(1.24138 0.0870217 0.0052191)
(1.18332 0.105331 0.000668015)
(1.18976 0.107308 0.000918927)
(1.19282 0.108099 0.00062875)
(1.19459 0.107878 -8.39942e-05)
(1.19761 0.108139 -0.00184079)
(1.20023 0.105185 -0.00495725)
(1.19878 0.106057 -0.00477659)
(1.19157 0.103494 -0.00442766)
(1.18786 0.100116 -0.00378086)
(1.18155 0.0980045 -0.00447912)
(1.18567 0.0984835 -0.00542097)
(1.18571 0.100119 -0.00549519)
(1.18642 0.100841 -0.00475072)
(1.18852 0.103138 -0.00322817)
(1.19207 0.103401 -0.00359073)
(1.19258 0.102545 -0.00339917)
(1.19216 0.104001 -0.00526081)
(1.19217 0.104214 -0.00398981)
(1.19336 0.104347 -0.00377354)
(1.1946 0.104441 -0.00539418)
(1.19489 0.101691 -0.00593544)
(1.19509 0.100733 -0.00568285)
(1.19559 0.0982747 -0.00321099)
(1.19556 0.0981036 -0.000381246)
(1.19056 0.0956399 0.00051885)
(1.18813 0.0962275 -0.000191011)
(1.18553 0.0962571 0.00121485)
(1.18413 0.0977825 0.00115796)
(1.17995 0.0986329 -0.00133562)