/*--------------------------------*- C++ -*----------------------------------*\
  =========                 |
  \\      /  F ield         | OpenFOAM: The Open Source CFD Toolbox
   \\    /   O peration     | Website:  https://openfoam.org
    \\  /    A nd           | Version:  10
     \\/     M anipulation  |
\*---------------------------------------------------------------------------*/
FoamFile
{
    format      ascii;
    class       volSymmTensorField;
    location    "20";
    object      UPrime2Mean;
}
// * * * * * * * * * * * * * * * * * * * * * * * * * * * * * * * * * * * * * //

dimensions      [0 2 -2 0 0 0 0];

internalField   nonuniform List<symmTensor> 
25600
(
(0.00806012 -5.74691e-05 -0.00126459 2.36063e-06 3.38261e-06 0.00135805)
(0.00774424 -6.40856e-05 -0.00140602 2.19187e-06 1.10289e-05 0.00153922)
(0.0071743 -6.25749e-05 -0.00147616 2.32684e-06 1.57697e-05 0.00148994)
(0.00691742 -5.71934e-05 -0.0015442 2.43144e-06 3.31965e-06 0.00143264)
(0.00741957 -7.00686e-05 -0.00160823 2.6647e-06 6.95066e-06 0.00135483)
(0.00732683 -6.85225e-05 -0.00153538 2.42562e-06 7.71283e-06 0.00131878)
(0.00680929 -6.43035e-05 -0.00151475 1.92371e-06 3.88663e-06 0.00137167)
(0.00649478 -6.00344e-05 -0.0014012 2.02907e-06 2.3932e-06 0.00124042)
(0.00658778 -6.26394e-05 -0.00145004 2.06845e-06 7.7028e-06 0.00125382)
(0.00702599 -6.14131e-05 -0.00138002 2.02658e-06 7.43704e-06 0.0013762)
(0.00718903 -6.42939e-05 -0.00131409 2.38089e-06 3.23836e-06 0.00140969)
(0.0072553 -6.32171e-05 -0.00122942 2.49333e-06 2.87164e-06 0.00139212)
(0.00692228 -6.04591e-05 -0.00121033 2.2558e-06 4.7936e-06 0.00153658)
(0.0068254 -6.77277e-05 -0.00131681 2.41453e-06 6.5284e-06 0.00149858)
(0.00699334 -6.89986e-05 -0.0015255 3.00697e-06 4.52316e-06 0.00159317)
(0.0070969 -5.659e-05 -0.00150574 2.32941e-06 5.42119e-06 0.0015689)
(0.00731557 -6.27581e-05 -0.00148085 1.8532e-06 1.08152e-05 0.00144572)
(0.00765934 -6.15127e-05 -0.00153864 2.27593e-06 6.46829e-06 0.00145465)
(0.00797222 -6.35812e-05 -0.00172562 2.36132e-06 6.02795e-06 0.00155795)
(0.0079872 -6.80366e-05 -0.00178004 2.63329e-06 5.07367e-06 0.001475)
(0.00784394 -6.15361e-05 -0.00155339 2.25233e-06 9.28734e-06 0.00143987)
(0.0074231 -6.48414e-05 -0.00137336 2.30014e-06 6.08754e-06 0.0014137)
(0.00690978 -5.99312e-05 -0.00153752 2.12937e-06 6.87875e-06 0.00150254)
(0.0069224 -6.78957e-05 -0.00155566 2.52143e-06 6.76722e-06 0.00147483)
(0.00708462 -7.97238e-05 -0.00156964 2.85893e-06 9.36318e-06 0.00140657)
(0.00760216 -7.05121e-05 -0.00162437 2.82546e-06 1.15008e-05 0.00134829)
(0.00749475 -6.31164e-05 -0.00143982 2.06497e-06 7.00018e-06 0.00127676)
(0.00761719 -5.94184e-05 -0.0012873 1.94616e-06 5.66754e-06 0.00140131)
(0.00736412 -6.43904e-05 -0.00150176 2.60018e-06 1.09914e-05 0.001471)
(0.00763705 -6.40701e-05 -0.00158605 2.66122e-06 9.15182e-06 0.00148675)
(0.00757598 -8.24895e-05 -0.00161711 3.00625e-06 1.10365e-05 0.00144972)
(0.00722723 -8.27744e-05 -0.00153572 2.75949e-06 3.93284e-06 0.0014366)
(0.00782229 -8.65217e-05 -0.00178629 2.79003e-06 1.34406e-05 0.00139184)
(0.00828921 -7.2098e-05 -0.00164936 2.02579e-06 1.1679e-05 0.00131267)
(0.00813108 -5.96259e-05 -0.00169866 2.46287e-06 1.10888e-05 0.00138481)
(0.00809549 -6.3836e-05 -0.00160979 2.75505e-06 1.27051e-05 0.00147517)
(0.00848143 -8.37332e-05 -0.00150139 2.94152e-06 1.07125e-05 0.00155582)
(0.00750553 -7.833e-05 -0.00124267 2.88364e-06 2.62651e-06 0.00153435)
(0.00735731 -7.84869e-05 -0.00122882 3.81819e-06 8.57752e-06 0.00141404)
(0.00808103 -8.33206e-05 -0.0016194 3.67097e-06 5.23366e-06 0.00137694)
(0.0412816 0.000797995 -0.00740492 0.000119375 -0.00019312 0.00553617)
(0.0410109 0.00069605 -0.00855202 0.000101244 -0.000235785 0.00621197)
(0.0384766 0.000642263 -0.00885782 0.000102063 -0.000368995 0.00592133)
(0.0363235 0.000587866 -0.00950359 9.81576e-05 -0.000295369 0.00536609)
(0.0390519 0.00075646 -0.00994671 8.74404e-05 -0.000290228 0.00564802)
(0.0376987 0.000903179 -0.00950128 8.6494e-05 -0.000283665 0.00541689)
(0.0333792 0.000913304 -0.00968453 7.90286e-05 -0.000269322 0.00518806)
(0.0320288 0.000845019 -0.00889663 7.6188e-05 -0.000243761 0.00455664)
(0.0340685 0.000736928 -0.00865411 7.70196e-05 -0.000247423 0.00471916)
(0.0356736 0.00078814 -0.00830774 9.81115e-05 -0.000233816 0.00496089)
(0.0354122 0.00082686 -0.00780786 0.000103701 -0.000271578 0.00517207)
(0.036132 0.000766186 -0.00778114 0.000101738 -0.000249039 0.00460768)
(0.0341448 0.00078311 -0.0079834 9.88747e-05 -0.000232171 0.00449604)
(0.0341284 0.00075616 -0.00836948 0.000108699 -0.000173712 0.00478369)
(0.0349749 0.000602984 -0.00869471 0.000108057 -0.000116587 0.00487236)
(0.0360359 0.000554968 -0.00832622 9.01594e-05 -0.000164434 0.00523197)
(0.0372169 0.000657342 -0.00887396 0.000109691 -0.000257703 0.00516972)
(0.0397354 0.000678541 -0.00909488 0.000125961 -0.000313366 0.00506892)
(0.0412786 0.000643833 -0.00983206 0.000116927 -0.000265933 0.00604376)
(0.0414842 0.000748886 -0.0102962 0.00010346 -0.000289577 0.00591123)
(0.0400941 0.000858466 -0.00962823 0.000113992 -0.000251213 0.00542044)
(0.0387623 0.000677055 -0.00929835 0.000114389 -0.000184424 0.00466206)
(0.0355397 0.0007295 -0.00973027 8.92165e-05 -0.000217913 0.00495024)
(0.0352225 0.000820321 -0.00945923 9.30977e-05 -0.000324544 0.00542033)
(0.0357011 0.000700411 -0.00929238 9.75492e-05 -0.000276328 0.00535597)
(0.0368192 0.000818658 -0.00968536 0.000111169 -0.000283276 0.00539767)
(0.0364866 0.000726497 -0.00907844 0.000102669 -0.000269945 0.0046592)
(0.0397605 0.000624455 -0.007736 9.7662e-05 -0.000269206 0.00477138)
(0.0385476 0.00058518 -0.00807976 9.52645e-05 -0.000308509 0.00551091)
(0.0392169 0.000727971 -0.00904015 0.000103162 -0.000256079 0.00538783)
(0.0382155 0.000784545 -0.0102848 9.99758e-05 -0.000263777 0.0053258)
(0.0349085 0.000767627 -0.00987224 9.77407e-05 -0.000292352 0.00522063)
(0.0372646 0.000846332 -0.0112281 0.00010838 -0.000342504 0.00570727)
(0.0397551 0.000819037 -0.0100556 0.000104929 -0.00028509 0.00511049)
(0.0420439 0.000812268 -0.0094698 9.87627e-05 -0.000178515 0.00559722)
(0.0426088 0.000677003 -0.00983971 0.000113298 -0.000179213 0.00543077)
(0.0451967 0.000844058 -0.0101551 0.000102354 -0.000201721 0.00509847)
(0.0395376 0.000769213 -0.00868779 9.8212e-05 -0.000306438 0.00516866)
(0.0379731 0.000625354 -0.00820765 0.000115614 -0.000331608 0.00539494)
(0.0426291 0.000700124 -0.00977829 0.000109576 -0.000242665 0.00526944)
(0.0535573 0.00201027 -0.0105244 0.000752697 -0.000952111 0.00898438)
(0.0554788 0.00161116 -0.0108769 0.000596258 -0.000966304 0.00869919)
(0.0577157 0.00123016 -0.0122805 0.000576692 -0.00117507 0.00839214)
(0.0490893 0.0013554 -0.0138636 0.000606583 -0.00109071 0.00764627)
(0.0503451 0.00203329 -0.013975 0.000599393 -0.00102476 0.00816149)
(0.0499932 0.00246965 -0.0138195 0.000578916 -0.00107656 0.00845215)
(0.0418616 0.00257923 -0.014194 0.000535607 -0.00116157 0.00798212)
(0.0412067 0.00225351 -0.0133942 0.000542933 -0.00114335 0.00729296)
(0.0466972 0.00208722 -0.0122505 0.000505328 -0.00103003 0.0069533)
(0.0463403 0.00208415 -0.0121025 0.000614413 -0.000954031 0.00729284)
(0.0448333 0.00220076 -0.0110392 0.000652829 -0.000952242 0.00714141)
(0.0476328 0.00191883 -0.0115227 0.000602033 -0.000879447 0.00656147)
(0.0450172 0.00182895 -0.0120815 0.000602352 -0.00096042 0.00688997)
(0.0460212 0.00193801 -0.0125292 0.000705518 -0.000752798 0.00706325)
(0.0477541 0.00159441 -0.0134248 0.000732391 -0.000596033 0.00713107)
(0.0468922 0.00119132 -0.0123145 0.000599882 -0.000619114 0.00737315)
(0.0508332 0.00142027 -0.0132945 0.000602052 -0.000852457 0.00753258)
(0.050359 0.00174159 -0.0139329 0.000732088 -0.00108024 0.00824962)
(0.0536167 0.00153201 -0.0133164 0.000644842 -0.000852709 0.00901705)
(0.0538135 0.00185196 -0.0134875 0.000619697 -0.00100464 0.00824751)
(0.0530837 0.00190037 -0.013152 0.000686916 -0.000824132 0.00750032)
(0.0508239 0.00173679 -0.0135428 0.000642917 -0.00079974 0.00683632)
(0.0476684 0.00203727 -0.0140628 0.000514119 -0.000982718 0.00735245)
(0.0476568 0.00214344 -0.0128527 0.000587977 -0.00123107 0.00785756)
(0.0484605 0.00199804 -0.012712 0.000641128 -0.00112288 0.00820898)
(0.0480447 0.00204747 -0.0125802 0.000689637 -0.001093 0.00880336)
(0.0476619 0.00165818 -0.0130049 0.000645118 -0.00112443 0.00750095)
(0.0520467 0.00154968 -0.0103106 0.00063047 -0.00107013 0.00741752)
(0.0516011 0.00142436 -0.0104266 0.000635396 -0.00114559 0.00800419)
(0.0508933 0.00190269 -0.0122056 0.000662753 -0.00101769 0.00805603)
(0.047944 0.00184552 -0.0139206 0.000637804 -0.000990168 0.00837794)
(0.0427268 0.00199766 -0.0131208 0.000579778 -0.00122318 0.00877651)
(0.0484843 0.00205245 -0.0147624 0.000623694 -0.00130604 0.00850737)
(0.0483389 0.00204542 -0.0142906 0.000618731 -0.00107819 0.00761469)
(0.0576129 0.00209376 -0.0144511 0.00063263 -0.000786498 0.00843621)
(0.0599114 0.00153826 -0.0142612 0.000698221 -0.000865149 0.00814301)
(0.0615395 0.00247052 -0.0152009 0.000662443 -0.000914533 0.00785325)
(0.0560903 0.00224666 -0.0119652 0.000632629 -0.0011135 0.00759807)
(0.0552087 0.00193028 -0.0122697 0.000676471 -0.00099127 0.00836096)
(0.0585207 0.00269352 -0.01472 0.000697935 -0.000943662 0.00825185)
(0.0518441 0.0021577 -0.0108033 0.00142641 -0.001156 0.00914954)
(0.0516659 0.00167033 -0.0100556 0.00109321 -0.00116864 0.00858725)
(0.0587036 0.000710287 -0.0123052 0.000957412 -0.00125531 0.00890945)
(0.0466689 0.00137665 -0.0133297 0.00107 -0.00139253 0.00783964)
(0.0434065 0.00220374 -0.0123616 0.0010907 -0.00123754 0.00802493)
(0.045561 0.00254166 -0.0137546 0.00104391 -0.00122575 0.00871743)
(0.0393166 0.00259846 -0.0126268 0.00102739 -0.00161811 0.00830973)
(0.040583 0.00223613 -0.011562 0.00104699 -0.0017346 0.00766463)
(0.0462974 0.0020432 -0.0112497 0.00098513 -0.00142743 0.00707283)
(0.0443412 0.00196934 -0.0115949 0.00112249 -0.00126259 0.00797176)
(0.0416144 0.00221359 -0.0105837 0.00121281 -0.00123111 0.0079291)
(0.0458767 0.00202316 -0.0118989 0.00111163 -0.00118764 0.00765998)
(0.0437347 0.00162521 -0.0113141 0.00118553 -0.0014398 0.00884234)
(0.047152 0.00170105 -0.012725 0.00135341 -0.00109391 0.00829669)
(0.0442323 0.00181928 -0.0131075 0.00138661 -0.000908906 0.00810972)
(0.0439961 0.00115706 -0.0117134 0.0011954 -0.0007775 0.00776233)
(0.0517808 0.00130044 -0.0131233 0.00103285 -0.0011683 0.00807064)
(0.0448589 0.00175241 -0.013553 0.00130481 -0.00145808 0.00904227)
(0.0480096 0.00114873 -0.01174 0.00118917 -0.0012929 0.00985902)
(0.0493807 0.00151829 -0.0120116 0.00128047 -0.00138963 0.00886016)
(0.0508673 0.0011963 -0.0120648 0.0013142 -0.000949723 0.00814896)
(0.0479883 0.00114438 -0.0122198 0.00109418 -0.000872506 0.0071601)
(0.0454573 0.00199976 -0.0121114 0.000917871 -0.00140866 0.00817312)
(0.0473407 0.00156475 -0.0115213 0.00122922 -0.00165928 0.00862586)
(0.0486827 0.00187003 -0.0120956 0.00129353 -0.0014123 0.0088382)
(0.0503962 0.00148677 -0.0113619 0.00122587 -0.00112999 0.00893881)
(0.0475112 0.00137222 -0.012648 0.00115439 -0.00146465 0.00858702)
(0.0481258 0.00153887 -0.00992058 0.00120164 -0.00142877 0.00819688)
(0.0472711 0.00181425 -0.010773 0.00119733 -0.00141746 0.00828064)
(0.0483384 0.00173979 -0.0121156 0.00121041 -0.00118256 0.00809056)
(0.0470518 0.00125936 -0.0133239 0.00114316 -0.00106419 0.00900386)
(0.0417998 0.00133803 -0.0108649 0.00104387 -0.00156708 0.00952917)
(0.0478271 0.00157619 -0.013374 0.00112284 -0.00161656 0.00824821)
(0.0450523 0.0019893 -0.0134108 0.00120209 -0.00133484 0.00791094)
(0.0586065 0.00203178 -0.014892 0.00125775 -0.000983622 0.00884858)
(0.0647151 0.00118492 -0.0140321 0.00131393 -0.00103427 0.00870541)
(0.0594156 0.00252263 -0.0143251 0.00121422 -0.00121072 0.00840441)
(0.0539794 0.0025388 -0.0110042 0.00127643 -0.00142422 0.00806964)
(0.0608138 0.00182212 -0.0124416 0.00118056 -0.00130318 0.00892205)
(0.0564086 0.00353411 -0.0137995 0.00129607 -0.00130436 0.00879399)
(0.047843 0.00175926 -0.0103902 0.00205871 -0.00154874 0.0091959)
(0.0485781 0.00193928 -0.0100056 0.00159197 -0.0014138 0.00953429)
(0.0501732 0.000941615 -0.0120615 0.00133363 -0.00157779 0.00912577)
(0.0449022 0.00164691 -0.0124833 0.001499 -0.00187008 0.00811795)
(0.039078 0.0017662 -0.0111081 0.00154934 -0.00161839 0.00790051)
(0.0415376 0.00252461 -0.0134139 0.00149729 -0.00167296 0.00884645)
(0.036979 0.00234376 -0.0101689 0.00156394 -0.00212751 0.00878903)
(0.0357497 0.0019207 -0.00973754 0.00155271 -0.00224971 0.00808967)
(0.0459619 0.00170786 -0.0113729 0.00153178 -0.00192887 0.00753794)
(0.0412316 0.00190243 -0.0117381 0.00163151 -0.00185636 0.00883185)
(0.0374407 0.00182565 -0.0107523 0.00180432 -0.00173041 0.00900247)
(0.0403347 0.0018601 -0.0124786 0.00170734 -0.00174321 0.0101229)
(0.0378974 0.00109715 -0.0101177 0.0019197 -0.0020252 0.0114047)
(0.0443116 0.00101696 -0.0119263 0.00200908 -0.00174984 0.00916569)
(0.0420505 0.0011952 -0.0125347 0.00211978 -0.0013817 0.00875956)
(0.0370668 0.00102866 -0.0106346 0.00196068 -0.00130281 0.00878931)
(0.0485924 0.000795248 -0.0124256 0.00167502 -0.00166631 0.00889465)
(0.0388505 0.00146037 -0.0117005 0.00195114 -0.00202028 0.00929416)
(0.0408823 0.000470699 -0.0105606 0.00193841 -0.00176695 0.0101287)
(0.0486115 0.000619193 -0.0118614 0.00203874 -0.00183674 0.00915904)
(0.0464053 0.000780145 -0.0115369 0.00190389 -0.00151626 0.00909176)
(0.047603 0.000397151 -0.0114176 0.00155073 -0.00128887 0.0080083)
(0.0386391 0.00196575 -0.0100421 0.0014786 -0.00200142 0.00873397)
(0.0432817 0.00091034 -0.011204 0.00197465 -0.00201579 0.0088136)
(0.0460036 0.00143127 -0.01184 0.0020563 -0.00183108 0.00912618)
(0.0513705 0.00085458 -0.0119761 0.00179545 -0.00140558 0.00858394)
(0.0463588 0.00100125 -0.0122626 0.00169443 -0.00178468 0.00886951)
(0.042979 0.00144254 -0.0102385 0.00185432 -0.00178569 0.00836627)
(0.0401688 0.00204875 -0.0117152 0.00196352 -0.00177947 0.00854428)
(0.0459614 0.00120358 -0.0123728 0.00179249 -0.00142277 0.00859178)
(0.0470926 0.000719155 -0.0139451 0.00162734 -0.00127585 0.00897419)
(0.0408177 0.000736019 -0.0109967 0.00155119 -0.00178282 0.00941847)
(0.0440226 0.00126351 -0.0131164 0.00164189 -0.00203705 0.00871852)
(0.0423946 0.00139577 -0.0121483 0.00201057 -0.00171381 0.00852548)
(0.0571714 0.00116872 -0.0140082 0.00197453 -0.00136289 0.00937994)
(0.063092 0.000898524 -0.0147074 0.00197044 -0.00142248 0.00923033)
(0.0521895 0.00194868 -0.0142146 0.0019015 -0.00163599 0.00879122)
(0.0501397 0.00251273 -0.011573 0.00193667 -0.00184929 0.00879613)
(0.0631167 0.00137808 -0.012861 0.00175202 -0.0017117 0.00897013)
(0.0516969 0.0032795 -0.0111524 0.00207045 -0.00177633 0.00940042)
(0.0471683 0.00118709 -0.00906796 0.00245001 -0.00176414 0.00889261)
(0.0449168 0.00178212 -0.00850004 0.00192472 -0.00153627 0.0101986)
(0.0417424 0.00117368 -0.0100259 0.00164618 -0.00170279 0.00866277)
(0.0430574 0.00178028 -0.0104038 0.00177896 -0.002093 0.00780375)
(0.0391707 0.000861729 -0.0102959 0.00188915 -0.00166565 0.00763821)
(0.040929 0.00192729 -0.0112604 0.00180929 -0.00196136 0.00831784)
(0.0365109 0.00184829 -0.00809435 0.00193441 -0.00247806 0.00876185)
(0.0347767 0.00133478 -0.00900494 0.00192106 -0.00251705 0.00780932)
(0.0445543 0.00144696 -0.0103228 0.00198635 -0.00219899 0.00706692)
(0.0409844 0.00151381 -0.0113866 0.00207678 -0.00211916 0.00861856)
(0.0381211 0.00139159 -0.0108723 0.00221421 -0.00201184 0.00907608)
(0.0375021 0.00117653 -0.012463 0.00217533 -0.00176492 0.0111482)
(0.0353819 0.000617523 -0.0098899 0.00252465 -0.00226763 0.0130326)
(0.0415307 0.000237163 -0.0101912 0.00253728 -0.00219153 0.0104584)
(0.0398179 0.000235428 -0.0116166 0.00270599 -0.00166038 0.00892769)
(0.0339625 0.000464331 -0.00940592 0.00265168 -0.00165877 0.0087094)
(0.0423766 0.000318159 -0.0108934 0.00219977 -0.00197039 0.00983153)
(0.0332309 0.0010811 -0.00918936 0.00255344 -0.00223206 0.00936047)
(0.0361446 0.000130836 -0.00942662 0.00265765 -0.00183616 0.00889389)
(0.0437746 -0.000288276 -0.0103389 0.00260081 -0.00206727 0.0083467)
(0.0385494 0.000399585 -0.00953181 0.00243184 -0.00183236 0.00843627)
(0.0473609 0.000135655 -0.00986689 0.00191443 -0.00159493 0.00756442)
(0.033073 0.00165522 -0.00791695 0.00194821 -0.00209835 0.00772368)
(0.0381737 0.000138825 -0.0102007 0.00244821 -0.00200965 0.00792917)
(0.0407321 0.000520155 -0.0110727 0.00267854 -0.00190804 0.00841186)
(0.0460748 0.000526123 -0.011199 0.0022929 -0.00147457 0.00803019)
(0.0417594 0.000255099 -0.0105221 0.00221699 -0.00176374 0.00800303)
(0.0391064 0.00107921 -0.00977529 0.00257099 -0.00182707 0.00774634)
(0.0350628 0.0017719 -0.0117128 0.00280225 -0.00194967 0.00849924)
(0.0439347 0.000581924 -0.0121234 0.00233599 -0.00137812 0.00846015)
(0.0424076 0.000615836 -0.0132479 0.00209705 -0.00112123 0.00909279)
(0.0403852 0.000326817 -0.0115439 0.00191712 -0.00179163 0.00878108)
(0.0390732 0.000681411 -0.0119937 0.00214608 -0.00215622 0.00867231)
(0.039524 0.000257489 -0.0109283 0.00282368 -0.00184872 0.00886069)
(0.0523827 0.000258364 -0.0135032 0.0026115 -0.00147612 0.00943581)
(0.0553939 0.000716789 -0.0137694 0.00262741 -0.00140581 0.00927108)
(0.0485198 0.000852085 -0.0124458 0.00250644 -0.00154224 0.00915299)
(0.047242 0.00193279 -0.0120996 0.00256428 -0.00182626 0.00877709)
(0.0571559 0.00143018 -0.0131864 0.00239663 -0.00181714 0.00931103)
(0.0496428 0.00223951 -0.00855826 0.00277679 -0.002002 0.00895045)
(0.0431704 0.000987231 -0.00809445 0.00293204 -0.00160949 0.00818233)
(0.0367695 0.00157267 -0.00770792 0.00226089 -0.00146301 0.00930007)
(0.0358926 0.000938447 -0.00894009 0.00195568 -0.00180216 0.00779321)
(0.038922 0.00199994 -0.00902409 0.00214212 -0.00224113 0.00765975)
(0.0450715 0.000271086 -0.00997634 0.00229318 -0.00178259 0.00768601)
(0.0397002 0.00137983 -0.00992385 0.00219533 -0.00216126 0.00885215)
(0.0366411 0.00148544 -0.00800617 0.00236388 -0.00260485 0.00872419)
(0.0402547 0.000864771 -0.00883422 0.00229676 -0.00261418 0.00794848)
(0.0395911 0.000903235 -0.00885675 0.00244862 -0.00242074 0.00680578)
(0.041725 0.000664814 -0.0115018 0.0025137 -0.002205 0.00837767)
(0.0381154 0.00143944 -0.0113524 0.00263242 -0.00186492 0.0084863)
(0.0361522 0.00051667 -0.0118763 0.00265711 -0.00143825 0.0104088)
(0.0322448 0.00032423 -0.0100925 0.0030095 -0.00206806 0.0119485)
(0.038988 -0.000273958 -0.00859659 0.00305092 -0.00236141 0.0106573)
(0.0374569 -0.000940916 -0.00934136 0.00324256 -0.00201157 0.00894103)
(0.0331205 -0.000360411 -0.00809573 0.00337519 -0.00212609 0.00860734)
(0.0343577 -0.000181002 -0.00776989 0.00292686 -0.00222022 0.00994914)
(0.0302749 -0.000106171 -0.00769321 0.00330461 -0.00212582 0.00895323)
(0.035464 -0.000251936 -0.00875792 0.00335866 -0.00201638 0.00744077)
(0.0379829 -0.000947839 -0.00842302 0.00311412 -0.00211184 0.00765829)
(0.0362642 -0.000278026 -0.00902162 0.00292845 -0.00180899 0.00846986)
(0.0449189 9.63106e-05 -0.00988 0.00244649 -0.0017934 0.00768678)
(0.0341911 0.00112353 -0.00816573 0.00247203 -0.00198855 0.00688706)
(0.036787 -0.000141511 -0.010318 0.00304295 -0.00190092 0.00727104)
(0.0406259 -4.65428e-05 -0.0102502 0.00336173 -0.00199831 0.00797077)
(0.0434852 1.64225e-05 -0.0104067 0.00291024 -0.00155585 0.00795332)
(0.0407752 -0.000857622 -0.00950428 0.00290805 -0.00174897 0.00763273)
(0.0346591 0.000782408 -0.00987277 0.00336907 -0.001905 0.00782449)
(0.0336073 0.00117813 -0.0110115 0.00350427 -0.00203667 0.00790734)
(0.0413126 -0.000177612 -0.0116031 0.00289917 -0.00130316 0.00778511)
(0.0395395 1.52742e-05 -0.0123488 0.00269614 -0.000961396 0.00824342)
(0.042519 -0.000286569 -0.0119775 0.00233709 -0.0017202 0.00832808)
(0.0385609 -0.000148668 -0.0113829 0.00283101 -0.00211193 0.00830971)
(0.0377093 -0.00102727 -0.010402 0.00353822 -0.00194619 0.00916989)
(0.0486914 -0.00063219 -0.0129324 0.00319001 -0.00156891 0.00917168)
(0.0466724 0.000243937 -0.0122393 0.00341362 -0.00119771 0.00950167)
(0.0447193 -7.96487e-05 -0.0111691 0.00316322 -0.0013235 0.0091404)
(0.0448384 0.00103175 -0.012375 0.00333933 -0.00154041 0.00888426)
(0.0447972 0.00114881 -0.0115923 0.00317952 -0.00187575 0.0090657)
(0.0452626 0.000719897 -0.00796792 0.00361654 -0.00187892 0.00838048)
(0.0358763 0.00101784 -0.00691696 0.00334072 -0.00116076 0.00785389)
(0.0279131 0.000923855 -0.00709077 0.00250679 -0.00105865 0.00766644)
(0.0352236 0.000528233 -0.00876433 0.00216469 -0.00161896 0.00704284)
(0.0335799 0.00224809 -0.00765706 0.00241352 -0.00192077 0.00704052)
(0.0430565 0.000284581 -0.00816869 0.0026692 -0.00168947 0.00703606)
(0.0392145 0.000931617 -0.0082822 0.00257987 -0.00192908 0.00776872)
(0.0386139 0.000887926 -0.00739391 0.00265541 -0.00215895 0.00753044)
(0.0408452 -0.000116452 -0.00698027 0.00251806 -0.00219767 0.00768315)
(0.0363798 0.00022696 -0.00743854 0.00258321 -0.00224166 0.00682458)
(0.0446874 -0.000375394 -0.00974128 0.00268837 -0.00220954 0.00797638)
(0.0371063 0.00130775 -0.0102261 0.00296582 -0.00164116 0.00772974)
(0.0375361 -0.000229342 -0.0102529 0.00291549 -0.00120785 0.00878228)
(0.0310248 -0.000467271 -0.00899225 0.0034131 -0.00178016 0.0101383)
(0.0353336 -0.000679015 -0.00728027 0.00335218 -0.00218518 0.00944886)
(0.0382682 -0.00170171 -0.00848442 0.00360589 -0.00231292 0.00973964)
(0.0369022 -0.00111179 -0.00777257 0.00369366 -0.00231578 0.0085243)
(0.032071 -0.00132253 -0.0063052 0.00338731 -0.00221563 0.00919337)
(0.032665 -0.00135251 -0.00667838 0.0037043 -0.00203311 0.00811818)
(0.0358224 -0.00104171 -0.00746164 0.0037276 -0.00188148 0.00664964)
(0.0382035 -0.0018156 -0.00749547 0.00335122 -0.00181821 0.00727174)
(0.0409636 -0.00134864 -0.00900952 0.00325719 -0.00159074 0.00855177)
(0.0362961 0.000180464 -0.00965073 0.00304781 -0.0017376 0.00815486)
(0.0381167 0.000233619 -0.00867514 0.00290977 -0.00168614 0.00634739)
(0.0404608 -0.000536986 -0.0114474 0.00345553 -0.00155273 0.00773823)
(0.0450199 -0.000868944 -0.0108264 0.00370249 -0.00177384 0.00809153)
(0.0437664 -0.00078741 -0.0102393 0.00349636 -0.00148034 0.00792444)
(0.0415857 -0.00156525 -0.0092767 0.00359316 -0.00170552 0.00732154)
(0.0331053 0.000882861 -0.0103373 0.00390071 -0.00186725 0.00738945)
(0.0334506 0.000701778 -0.0103553 0.00381366 -0.00183008 0.00737943)
(0.042275 -0.000723134 -0.0110701 0.0034884 -0.00122466 0.00707885)
(0.0386109 -0.0010415 -0.0112988 0.00339221 -0.00106173 0.00741216)
(0.0434475 -0.00111518 -0.0114745 0.00288252 -0.00143161 0.00759514)
(0.0424424 -0.00101034 -0.0107634 0.00320396 -0.0017885 0.00807779)
(0.0387842 -0.00214534 -0.00963465 0.00371836 -0.00162619 0.00855518)
(0.0429436 -0.00124686 -0.0111925 0.00338791 -0.00130265 0.008526)
(0.0402502 -0.000709768 -0.0109689 0.00372307 -0.000856507 0.00872779)
(0.0432923 -0.000286155 -0.0111579 0.00368194 -0.000943856 0.00861018)
(0.0458168 0.000328786 -0.0113852 0.00383576 -0.0011164 0.00850231)
(0.0375602 0.000550485 -0.00917763 0.00379622 -0.00146108 0.0078161)
(0.0381854 -0.000357106 -0.00709044 0.00438439 -0.00122985 0.00738247)
(0.0330373 0.000331499 -0.00657217 0.00375045 -0.00104184 0.00685667)
(0.0269391 0.000244185 -0.00631049 0.00267048 -0.000981232 0.00663527)
(0.0360235 0.000179834 -0.00725271 0.00231755 -0.00139709 0.00660739)
(0.0356793 0.00155877 -0.00658641 0.00256005 -0.00146262 0.00574644)
(0.0396634 8.70888e-05 -0.00678286 0.00299486 -0.00154387 0.00534768)
(0.0413328 0.000353131 -0.00689746 0.00299224 -0.00163233 0.00587593)
(0.0395282 0.000287223 -0.00622469 0.00297876 -0.00160774 0.00614043)
(0.0384796 -0.00055604 -0.00529163 0.00263781 -0.00163955 0.00651081)
(0.0356782 -0.000429076 -0.00712594 0.00265875 -0.00199662 0.00693374)
(0.0450348 -0.000669529 -0.00800497 0.00293273 -0.00198514 0.00718159)
(0.0361751 0.000912847 -0.00834458 0.00334848 -0.00131945 0.00745831)
(0.0351873 -0.000576977 -0.00898861 0.00312837 -0.000967318 0.00825184)
(0.0312235 -0.000882037 -0.00753943 0.0034146 -0.00125506 0.00846878)
(0.0387942 -0.00131969 -0.00685183 0.00354057 -0.00172055 0.00854575)
(0.0376885 -0.0017084 -0.00716219 0.00372458 -0.00206415 0.0106373)
(0.04136 -0.00151217 -0.00730467 0.00390129 -0.00227774 0.009338)
(0.0377306 -0.00216964 -0.00590589 0.00373879 -0.00183224 0.00807604)
(0.0404052 -0.00169527 -0.00599198 0.00376282 -0.00177326 0.00828275)
(0.0399073 -0.00148663 -0.00692189 0.00391068 -0.00169476 0.00708843)
(0.042282 -0.00198098 -0.00779095 0.00375222 -0.00171226 0.00689036)
(0.0466711 -0.00147845 -0.010079 0.00362585 -0.00131099 0.00816478)
(0.0338834 8.22335e-05 -0.00902821 0.00362255 -0.00165503 0.00801164)
(0.0430046 -0.0003378 -0.00884129 0.00337963 -0.00130138 0.00670948)
(0.0438842 -0.00099441 -0.01115 0.00396221 -0.00121571 0.00799812)
(0.0468148 -0.00128551 -0.0119565 0.00431725 -0.00126502 0.00816645)
(0.0452205 -0.00152819 -0.0109936 0.00407337 -0.00131208 0.0077558)
(0.0429297 -0.00211072 -0.00974826 0.00420893 -0.00142278 0.0068191)
(0.0343924 0.000841244 -0.0106869 0.0043215 -0.00177126 0.00724464)
(0.0365008 0.000919558 -0.0105507 0.00414574 -0.0016176 0.00722874)
(0.0454376 -0.0010388 -0.0119442 0.00390555 -0.00103104 0.00712642)
(0.0437183 -0.00247218 -0.0107339 0.00400662 -0.000825105 0.00684004)
(0.046109 -0.0022695 -0.0107444 0.00357962 -0.00114184 0.00722245)
(0.0467717 -0.00191009 -0.0106446 0.00365444 -0.00141913 0.00792657)
(0.0391449 -0.00289307 -0.00957528 0.00386524 -0.00131981 0.00837646)
(0.0423174 -0.00194375 -0.0100182 0.00371748 -0.000765916 0.00778147)
(0.0397213 -0.00207861 -0.0094293 0.00402223 -0.00022011 0.00785511)
(0.0399363 -0.00126814 -0.0104873 0.00416261 -0.000379584 0.00817659)
(0.0420527 -0.000270247 -0.010049 0.0042507 -0.000654896 0.00764017)
(0.0371107 6.33422e-05 -0.00772605 0.00443612 -0.000802347 0.00653826)
(0.0350294 -0.000766589 -0.00671712 0.00485144 -0.000811711 0.00665354)
(0.0376712 -0.000183134 -0.00767332 0.00376619 -0.000628095 0.00631789)
(0.0308446 -0.000108821 -0.00737785 0.00297605 -0.000692317 0.00642959)
(0.0355115 1.37753e-05 -0.00697546 0.00242844 -0.00087977 0.00574458)
(0.0368245 0.000988491 -0.00689809 0.00269357 -0.00100007 0.00480429)
(0.0403052 -4.86269e-06 -0.00672452 0.00312166 -0.00101641 0.0043088)
(0.0397255 0.000585211 -0.00668824 0.00318918 -0.00122075 0.00480918)
(0.0373636 -0.000160282 -0.00609939 0.00323556 -0.000926642 0.00498138)
(0.040484 -0.00074637 -0.00523689 0.00286365 -0.00106867 0.00527972)
(0.0401255 -0.000680354 -0.00613774 0.00275478 -0.0016972 0.00689817)
(0.0418443 -0.000794784 -0.00693595 0.00317508 -0.00169155 0.0075002)
(0.0372501 0.000146193 -0.00767399 0.00345028 -0.000943428 0.00823239)
(0.0356394 -0.000367558 -0.00928219 0.00332703 -0.000863532 0.00836052)
(0.0330063 -0.000526606 -0.00794737 0.00344243 -0.00101885 0.00787953)
(0.0389539 -0.00182658 -0.00785609 0.00351448 -0.00102291 0.00860694)
(0.0378705 -0.00163772 -0.00625094 0.00364338 -0.00128772 0.00986644)
(0.0440087 -0.00170136 -0.00653401 0.00353245 -0.00173583 0.00986252)
(0.0414461 -0.00186311 -0.00635878 0.00345975 -0.00150561 0.00897923)
(0.0437047 -0.00195537 -0.00629282 0.00345678 -0.00127244 0.00810854)
(0.0451991 -0.00180528 -0.00758511 0.00381957 -0.00115892 0.00736095)
(0.0508074 -0.00164097 -0.01044 0.00385555 -0.00153534 0.00793495)
(0.0493189 -0.00117142 -0.0124167 0.00373467 -0.00116339 0.00860516)
(0.0369474 -0.000720842 -0.00858571 0.00391865 -0.00139306 0.00739866)
(0.0447657 -0.00059817 -0.00897943 0.00344768 -0.000905133 0.00766839)
(0.0445576 -0.00132987 -0.00986554 0.00411876 -0.00101832 0.00773995)
(0.0460377 -0.00142054 -0.0123809 0.00449469 -0.000977439 0.00824367)
(0.0478034 -0.00148269 -0.0120821 0.00421643 -0.00113483 0.00774613)
(0.0488673 -0.00143704 -0.0103888 0.00433599 -0.00121096 0.00675263)
(0.0395675 0.00156499 -0.0104418 0.00432034 -0.00155394 0.00720631)
(0.0439317 0.0016158 -0.0117995 0.00395785 -0.00141424 0.00744554)
(0.0470091 -0.00113986 -0.0129132 0.00418232 -0.000776726 0.00734332)
(0.0513764 -0.00229585 -0.0116814 0.00457698 -0.000437948 0.006692)
(0.049344 -0.0024357 -0.0114359 0.00392467 -0.000745591 0.00704961)
(0.0532125 -0.00229169 -0.0129623 0.00366693 -0.000781862 0.00792896)
(0.0457216 -0.00275201 -0.0115659 0.00367669 -0.000755678 0.00824222)
(0.0462426 -0.00178701 -0.0103014 0.00374 -0.000149677 0.00748251)
(0.0383833 -0.00246825 -0.00951822 0.00400723 0.000436376 0.00753265)
(0.0394095 -0.00179442 -0.00913345 0.00423082 0.000184765 0.00744413)
(0.0364666 -0.000634726 -0.00824865 0.00454952 -8.73591e-05 0.00679858)
(0.0361126 -0.000843493 -0.00785929 0.00490001 -0.000171521 0.00627261)
(0.0353054 -0.00128644 -0.00872232 0.00489868 -0.000109623 0.00637852)
(0.0432193 0.000591578 -0.00901047 0.00364221 -0.000430784 0.00693984)
(0.0343214 -0.000209124 -0.00946411 0.00289982 -0.000314225 0.00660061)
(0.0379942 0.000198469 -0.00893236 0.00258591 -0.000392513 0.00563106)
(0.0402106 0.000853253 -0.00785771 0.00297636 -0.000892439 0.00544117)
(0.0429718 0.00074836 -0.00824783 0.0031592 -0.00090958 0.00542215)
(0.0373113 0.00135994 -0.00718939 0.00328114 -0.00103637 0.00521396)
(0.0378391 0.000155277 -0.0068391 0.00351102 -0.000627246 0.00521294)
(0.0346846 -8.28688e-07 -0.00605976 0.00309378 -0.000858224 0.00555961)
(0.0456426 -0.000764071 -0.00746902 0.00268335 -0.00113823 0.00709956)
(0.0428404 -0.000685237 -0.00766513 0.00331405 -0.00126187 0.0084175)
(0.0430052 0.00040802 -0.00941362 0.0034243 -0.000592992 0.0094268)
(0.0399826 6.23494e-05 -0.0110486 0.00319364 -0.00051763 0.00855374)
(0.0374018 0.000505698 -0.00923367 0.00346587 -0.00107227 0.00757166)
(0.0381962 -0.00126418 -0.0100508 0.0036624 -0.000590462 0.00863602)
(0.0434232 -0.000643469 -0.00911846 0.00386399 -0.000911011 0.00779722)
(0.047082 -0.000411737 -0.00729915 0.00376177 -0.00130964 0.00761406)
(0.0395216 -0.00044234 -0.00788364 0.00352291 -0.00123273 0.00964299)
(0.043707 -0.000958435 -0.00806444 0.00344606 -0.00134494 0.00826601)
(0.0430701 -0.000674461 -0.00865105 0.00385254 -0.00109894 0.00719807)
(0.0511007 -0.00106616 -0.0113263 0.00435292 -0.00128011 0.00811022)
(0.0451103 -0.000640061 -0.0108691 0.00436044 -0.00119785 0.00859637)
(0.0396235 -0.000542009 -0.00829063 0.00436147 -0.000982821 0.00726979)