/*--------------------------------*- C++ -*----------------------------------*\
  =========                 |
  \\      /  F ield         | OpenFOAM: The Open Source CFD Toolbox
   \\    /   O peration     | Website:  https://openfoam.org
    \\  /    A nd           | Version:  10
     \\/     M anipulation  |
\*---------------------------------------------------------------------------*/
FoamFile
{
    format      ascii;
    class       surfaceScalarField;
    location    "100";
    object      phi;
}
// * * * * * * * * * * * * * * * * * * * * * * * * * * * * * * * * * * * * * //

dimensions      [0 3 -1 0 0 0 0];

internalField   nonuniform List<scalar> 
74080
(
0.00507188
3.66251e-05
-6.91561e-06
0.00514831
1.86229e-05
-2.54186e-05
0.00523992
5.27286e-05
2.55215e-05
0.00531215
9.26909e-05
9.86371e-05
0.00530624
0.000109172
0.000158078
0.00524711
7.10911e-05
0.00014074
0.00520159
9.05415e-06
3.15128e-05
0.00517633
-1.85146e-05
-8.40204e-05
0.00518106
-1.07753e-05
-0.000177488
0.00517817
5.01232e-05
-0.000214928
0.00515727
0.000108086
-0.000214765
0.00515219
0.000143152
-0.000222268
0.00517896
0.000143347
-0.000252987
0.00528162
8.13634e-05
-0.000315524
0.00543072
2.14406e-05
-0.000338742
0.00554535
-7.90663e-06
-0.000301439
0.00557501
-6.54614e-06
-0.000224773
0.00548697
2.26071e-05
-0.000141267
0.00534491
3.92448e-05
-0.000100911
0.00522871
3.4222e-05
-8.17469e-05
0.00517921
4.93042e-06
-8.3582e-05
0.00521956
-4.32839e-05
-7.04738e-05
0.00531279
-7.80416e-05
-3.01873e-05
0.00538221
-9.36205e-05
4.6671e-06
0.00538215
-0.000100823
2.73255e-05
0.00531141
-8.55058e-05
-1.29123e-05
0.00520845
-7.16869e-05
-8.21024e-05
0.00514174
-5.62078e-05
-0.000117972
0.00513038
-2.48555e-05
-7.68548e-05
0.00515812
-3.32244e-06
8.44424e-05
0.0052249
1.64303e-05
0.000252101
0.00530292
3.17144e-05
0.000334997
0.00537853
5.0296e-05
0.000324489
0.00545258
6.66074e-05
0.00020603
0.00549481
6.20428e-05
9.92149e-05
0.00546829
8.27097e-05
4.44824e-05
0.00536396
0.000120955
1.86248e-05
0.00522711
0.000143894
3.36812e-05
0.00511069
0.00013989
2.13289e-05
9.64821e-05
8.39691e-06
0.00490376
4.83651e-05
-0.00017127
0.00483943
1.41816e-05
-0.000120154
0.00480953
1.84312e-05
-3.34647e-05
0.00481838
2.92349e-05
-7.89224e-06
0.00482631
5.29141e-05
-4.53847e-05
0.00481979
5.50718e-05
-0.000114828
0.00480141
4.65672e-05
-0.000209015
0.00476767
6.15524e-05
-0.000245231
0.00473596
7.20195e-05
-0.000202547
0.00472374
8.85285e-05
-9.69114e-05
0.00472377
9.70884e-05
7.04374e-05
0.00474019
9.68576e-05
0.000253292
0.00477329
8.53585e-05
0.000389665
0.00483706
2.69956e-05
0.000408546
0.00491712
-2.06226e-06
0.000272614
0.0049659
6.10317e-06
6.08088e-05
0.00496731
2.71232e-05
-0.000116391
0.00492131
6.81486e-05
-0.000190281
0.00486671
7.87114e-05
-0.000161795
0.00484227
6.33547e-05
-7.15921e-05
0.00484701
3.01587e-05
1.46641e-05
0.00485959
-2.62878e-05
8.29922e-05
0.00484345
-6.03998e-05
0.000109387
0.00477307
-6.93625e-05
9.51933e-05
0.00467633
-7.39139e-05
6.50924e-05
0.00460366
-6.59122e-05
-2.55326e-05
0.00457564
-5.59017e-05
-0.000132418
0.004611
-4.68232e-05
-0.000243028
0.00469819
-2.36012e-05
-0.00032385
0.00478907
9.9214e-06
-0.000287098
0.00485775
4.62906e-05
-0.00019177
0.00486347
8.77767e-05
-5.88956e-05
0.00481073
0.000124352
9.7088e-05
0.00475746
0.000135569
0.000178791
0.00472328
0.000129159
0.000203593
0.0047326
0.000138922
0.000171227
0.00479507
0.000163785
8.2685e-05
0.00488468
0.000179744
-1.28274e-05
0.00495265
0.000171077
-0.000127276
0.000121935
-0.00018682
0.00449991
7.67742e-05
-0.000163795
0.00436721
3.86779e-05
-8.89219e-05
0.00431045
1.74305e-05
-0.00010938
0.00432964
2.41678e-05
-0.000250538
0.00438112
7.35211e-05
-0.000381539
0.00440613
0.000120773
-0.000395015
0.00436599
0.000162684
-0.000313342
0.00426803
0.000196826
-0.000179193
0.00416707
0.000163378
-3.44267e-05
0.00413143
5.88907e-05
0.000126638
0.00417343
-6.26552e-05
0.000309197
0.0042633
-0.000125498
0.00047642
0.00434899
-0.000100902
0.000572693
0.00437916
-3.8547e-05
0.000508122
0.00435165
4.28581e-05
0.000314111
0.00430019
8.43915e-05
0.000125384
0.0042697
7.33707e-05
3.56247e-05
0.00428372
4.92545e-05
6.96074e-05
0.00432857
5.52625e-06
0.000150193
0.00436832
-2.61874e-05
0.000215167
0.00437693
-4.9838e-05
0.000231737
0.00435653
-8.34596e-05
0.000189638
0.00430818
-9.02405e-05
0.000111131
0.00423324
-7.39507e-05
4.21918e-05
0.00415045
-5.88385e-05
2.26752e-05
0.00408827
-5.05229e-05
2.99316e-05
0.00406162
-6.14037e-05
6.01852e-05
0.00407118
-8.11256e-05
2.83206e-05
0.00410851
-8.64252e-05
-8.01604e-05
0.00416875
-5.5377e-05
-0.000178533
0.00425659
7.7351e-06
-0.000212573
0.00433532
0.000106746
-0.000120397
0.00437458
0.000206096
5.11836e-05
0.00437862
0.000234575
0.000162429
0.00437272
0.000207788
0.000181494
0.00442561
0.00016006
0.00010369
0.0045498
0.000127238
-4.66326e-05
0.00467369
0.000129253
-0.000195097
0.00471853
0.000141509
-0.000289448
0.000126097
-0.000264528
0.00380289
0.000107771
3.88964e-05
0.00375121
4.9843e-05
-3.24019e-05
0.0037548
-1.50967e-05
-0.00024861
0.00380491
-4.17801e-05
-0.000490958
0.00387549
-4.13413e-06
-0.00059936
0.00392471
7.70107e-05
-0.000529991
0.00392561
0.000183562
-0.000333371
0.00388232
0.000264533
-6.87983e-05
0.00380445
0.000225793
0.000182621
0.00372695
5.11768e-05
0.000341876
0.00367769
-0.000138081
0.000351224
0.00368084
-0.000209555
0.00021562
0.0037258
-0.000133157
1.8214e-05
0.00376116
4.82232e-06
-0.000176549
0.00377652
0.000116356
-0.000282604
0.00377007
0.000139856
-0.00022407
0.00375594
9.02237e-05
-4.44504e-05
0.00376078
1.12112e-05
0.000156004
0.00377604
-7.10104e-05
0.000257209
0.0037808
-0.000117761
0.000243418
0.00376909
-0.000148006
0.000148801
0.00375096
-0.000186081
3.30817e-05
0.00374286
-0.000187909
-6.66509e-05
0.00374321
-0.000150912
-0.00010664
0.00373662
-9.78267e-05
-7.98572e-05
0.00372121
-5.91436e-05
-2.49021e-05
0.0037133
-6.91691e-05
5.21827e-05
0.00372286
-0.000121575
0.000116562
0.0037639
-0.000170783
0.00016559
0.00382618
-0.000155563
0.000239811
0.00387624
-7.837e-05
0.000341306
0.00389085
4.26336e-05
0.000472307
0.0038987
0.000135717
0.000549079
0.00392897
0.00014288
0.000470607
0.003982
0.000112235
0.000282304
0.00405177
6.80016e-05
6.92162e-05
0.00409977
5.39703e-05
-0.000112256
0.00408155
9.58723e-05
-0.000192942
0.00399981
0.000145826
-0.00015441
0.000150607
-3.92777e-05
0.00339911
0.000161494
6.79999e-05
0.00337685
0.00010129
-0.000142898
0.00338789
1.35764e-06
-0.000424382
0.00342471
-7.165e-05
-0.000567315
0.00346298
-7.26566e-05
-0.000508347
0.00347583
6.30899e-06
-0.000326329
0.00346943
0.000135165
-8.35406e-05
0.00345782
0.000241652
0.000175601
0.00343882
0.000237817
0.000346497
0.00341288
8.37746e-05
0.000365979
0.00337385
-9.48064e-05
0.000187344
0.00332642
-0.00015633
-0.000108487
0.00330112
-0.000100735
-0.000334813
0.00331577
-2.79651e-05
-0.00039724
0.00337966
-1.30615e-06
-0.000281835
0.00343905
1.228e-05
-6.74733e-05
0.0034427
1.92787e-05
0.000112438
0.00339873
-2.07378e-05
0.000185735
0.00333157
-0.000100364
0.000132613
0.00328205
-0.000169563
6.57833e-06
0.00326972
-0.000221466
-8.40927e-05
0.0032773
-0.000263682
-0.000106168
0.00328661
-0.000256882
-8.58434e-05
0.00329331
-0.000197015
-5.93015e-05
0.00330602
-0.000105421
-7.24945e-05
0.00332493
-3.27758e-05
-6.87584e-05
0.00332061
-3.10792e-05
1.69405e-05
0.00327801
-0.000106927
0.000132448
0.00324368
-0.000218956
0.000264616
0.00325001
-0.000271917
0.000393384
0.00327652
-0.000230384
0.000492231
0.00331179
-0.000119922
0.000533322
0.00335058
-1.66874e-05
0.000463471
0.00338303
1.51807e-05
0.000310377
0.0034092
1.83339e-05
0.000149758
0.00344249
6.38188e-06
-2.57344e-06
0.00347736
1.38453e-05
-0.000128755
0.0034904
6.6412e-05
-0.000141684
0.00347137
0.000129772
-3.3294e-05
0.00016651
8.27066e-05
0.00319173
0.000219063
0.000128273
0.00319709
0.000135283
-0.00016026
0.0031945
3.3891e-05
-0.00041584
0.00317995
-4.02841e-05
-0.000438327
0.00315977
-6.65492e-05
-0.000278194
0.00313997
-2.27335e-05
-6.29795e-05
0.00313764
8.60465e-05
0.000156992
0.00314948
0.000216989
0.000329515
0.00314334
0.000262491
0.000391204
0.00310676
0.000145292
0.000304379
0.00306627
-1.55417e-05
9.06344e-05
0.00304987
-8.42361e-05
-7.91717e-05
0.0030313
-6.27098e-05
-0.000107406
0.0030077
-5.14537e-05
-8.30547e-05
0.0030255
-9.4895e-05
-5.73492e-05
0.00308128
-0.000107687
-1.24749e-05
0.00311487
-6.8187e-05
6.51448e-05
0.00307869
-7.23947e-05
0.000168982
0.00299243
-0.000134581
0.000195066
0.00292166
-0.000195513
0.000113104
0.00290143
-0.000253206
3.12213e-05
0.00292319
-0.000315315
8.74267e-06
0.00297418
-0.000332607
3.83899e-05
0.00304074
-0.000273433
6.62239e-05
0.00310145
-0.000141446
6.91383e-05
0.00311237
-8.93363e-06
0.000135521
0.00302333
3.87996e-05
0.000253931
0.00287294
-3.0764e-05
0.000306864
0.00277003
-0.000214781
0.00026927
0.00276076
-0.000371031
0.000194737
0.00281629
-0.000389101
0.000178363
0.00289955
-0.000269529
0.000210858
0.00296263
-0.000112373
0.000227212
0.00297752
-3.05425e-05
0.00021354
0.00297184
-1.27186e-05
0.000126823
0.00298869
-2.31782e-05
-4.75168e-05
0.00304394
-1.58691e-05
-0.000205147
0.00311634
4.82101e-05
-0.000193489
0.0031705
0.000144946
2.09295e-07
0.000225499
0.000180345
0.00298455
0.000137488
9.79535e-05
0.00307326
6.14988e-05
-0.000133374
0.00306823
1.35243e-05
-0.000246828
0.00297047
-3.18089e-07
-0.000197183
0.0028604
7.1317e-06
-4.41777e-05
0.00281357
4.95146e-05
0.000163751
0.00284829
0.000153541
0.000346381
0.00290544
0.000280621
0.0004232
0.00290415
0.000284316
0.000420467
0.00282634
0.000126555
0.000280337
0.00277079
-2.17159e-05
-1.76291e-05
0.00279934
-4.15397e-05
-0.000247248
0.00284281
2.00281e-05
-0.000303441
0.00283972
4.69253e-05
-0.000273604
0.00279602
-2.08518e-05
-0.000187769
0.002748
-9.36121e-05
-4.1634e-05
0.00269922
-0.000102159
0.000141086
0.00264355
-0.000121236
0.00023238
0.00259873
-0.000166285
0.000139415
0.0025657
-0.000189306
-2.21049e-05
0.00254923
-0.000242287
-7.2005e-05
0.00256709
-0.000324461
-8.29646e-06
0.0026302
-0.000349771
5.94354e-05
0.00270862
-0.000290852
8.82177e-05
0.00274393
-0.00013186
0.000148454
0.00269824
3.3704e-05
0.000283738
0.00259605
0.000105725
0.000341767
0.00250043
3.31917e-05
0.000237366
0.00244891
-0.000186973
5.41396e-05
0.00244316
-0.000361473
-7.12905e-05
0.00247516
-0.000389395
-4.33561e-05
0.00251776
-0.000292219
6.79476e-05
0.00255249
-0.000161659
0.000143724
0.00259696
-8.90656e-05
0.00013283
0.00265984
-4.41378e-05
7.60558e-05
0.00271314
-8.47092e-08
3.99718e-05
0.0027364
6.05942e-05
3.88927e-05
0.00274968
0.000139032
9.18076e-05
0.00279718
0.000196215
0.000182517
0.000198839
0.000226496
0.00282452
0.000114596
-4.76251e-05
0.0028261
6.3448e-05
-0.000165947
0.00271439
-2.37591e-05
-0.000106487
0.00258095
-5.72083e-05
1.36609e-06
0.00249639
3.34449e-06
7.82268e-05
0.00248471
0.000101797
0.000196966
0.00255643
0.000224996
0.0003096
0.00264224
0.000299066
0.00036284
0.00264421
0.000202802
0.000397005
0.0025508
-5.2414e-06
0.000281776
0.0024908
-0.000120557
-2.96485e-06
0.0025558
-6.05385e-05
-0.000251229
0.00265235
8.77667e-05
-0.000401996
0.00265875
0.000181938
-0.000435057
0.00256581
0.000122742
-0.000318082
0.00247983
-3.40169e-05
-7.9392e-05
0.00245657
-0.000119886
0.000136269
0.00245915
-0.000146168
0.000126474
0.00244436
-0.000160913
-2.98338e-05
0.00239455
-0.000141385
-0.000136081
0.00235032
-0.000173557
-0.000134795
0.0023408
-0.00023944
-6.81899e-05
0.00234625
-0.000247473
-3.73975e-07
0.00235404
-0.000216987
6.72868e-05
0.00236554
-0.000127797
0.000203303
0.00237818
1.17159e-05
0.000289499
0.00236332
0.000135217
0.000199974
0.00231136
0.000107402
4.33693e-05
0.00224423
-0.00012148
-7.87601e-05
0.00219839
-0.000331605
-0.000109043
0.00218274
-0.000403837
-1.41175e-05
0.00218109
-0.000336417
8.58786e-05
0.00219956
-0.000185471
7.4183e-05
0.00226638
-7.25549e-05
1.31545e-05
0.00234754
-1.19011e-05
4.7035e-05
0.00238523
2.16696e-05
0.000137971
0.00239086
6.96514e-05
0.000172099
0.00243883
0.00010322
0.000185396
0.00257121
0.000104445
0.000196181
0.000117487
0.00012653
0.00228251
8.28529e-05
-0.00016444
0.00226707
-3.60326e-05
-0.000136022
0.0022144
-0.000146908
6.41319e-05
0.00219172
-0.000103107
0.000142384
0.00220664
3.44838e-05
0.000123706
0.00225941
0.000124225
0.000205043
0.00234716
0.000223633
0.000295242
0.00239125
0.000279907
0.000292608
0.0023323
0.000174687
0.000224633
0.00223063
-6.24572e-05
0.000105836
0.00224748
-0.000195614
-8.42708e-05
0.00236455
-8.26752e-05
-0.000279312
0.00240781
0.000116354
-0.000388731
0.00234429
0.00022131
-0.000378564
0.00223407
0.000121366
-0.000162373
0.00215165
-6.50026e-05
9.42519e-05
0.0021338
-0.000113121
0.000125276
0.00215749
-0.000131198
-1.59821e-05
0.00218579
-0.000173811
-0.000130316
0.00218867
-0.000159033
-0.00015519
0.0021868
-0.000186311
-6.42967e-05
0.00218563
-0.00018688
6.39757e-05
0.00215649
-0.00011235
0.000121123
0.00212197
-0.000129104
0.000164359
0.00211276
-0.000155525
0.000231183
0.00211255
-2.46542e-05
0.000210312
0.00208249
0.000169668
0.000141635
0.00203183
0.000150689
0.000113487
0.00199843
-0.000128427
3.49371e-05
0.00200109
-0.000393835
-4.84583e-05
0.00202028
-0.000512904
-4.24738e-05
0.00201696
-0.000468946
-2.29624e-05
0.00200544
-0.000288282
-7.41709e-05
0.00202092
-0.000121903
-8.64706e-05
0.00203882
-2.39354e-05
3.4843e-05
0.00207341
1.34981e-05
9.52944e-05
0.00216938
2.27212e-05
6.82357e-05
0.00228147
3.32732e-05
9.72657e-05
0.00232374
8.67038e-05
9.21385e-05
0.00013243
-1.9443e-05
0.00197879
-0.000134871
-0.000103625
0.0019417
-0.00013744
-6.74198e-07
0.00186805
-7.46236e-05
1.93038e-05
0.00187807
6.31855e-05
-8.35253e-05
0.00196272
0.00014943
-7.1403e-05
0.00207558
0.000154764
6.11468e-05
0.00216582
0.000236075
0.000101233
0.00217021
0.000304661
9.04264e-07
0.00208115
0.000168764
-7.23867e-05
0.00197401
-8.04137e-05
-0.000106515
0.00194572
-0.000179387
-0.000199651
0.00195944
-4.56356e-05
-0.000226993
0.00194273
0.000122041
-0.000216791
0.00192977
0.000151532
-0.000197629
0.00193232
1.34813e-06
-4.65136e-05
0.00193575
-0.00011646
7.58726e-05
0.00195697
-6.80925e-05
6.57326e-05
0.00199376
-7.02278e-05
3.86598e-05
0.00201065
-0.000154272
-3.55144e-06
0.00201092
-0.000196485
-6.77007e-06
0.00202365
-0.000213562
9.7381e-05
0.0020202
-0.000132837
0.000180919
0.00199634
-3.57638e-05
0.000173895
0.00197283
-0.000106239
0.000176399
0.00195297
-0.000143979
0.000147189
0.00194694
2.3967e-05
8.55762e-05
0.00194559
0.000215581
0.000120516
0.00194475
0.0001608
0.000183165
0.00190653
-0.000110987
0.000153393
0.00183515
-0.000344301
5.61049e-05
0.00180523
-0.000501144
-2.75283e-05
0.00182684
-0.000564314
-5.27939e-05
0.00188434
-0.000429644
-8.20354e-05
0.00194583
-0.000183378
-9.08369e-05
0.00196731
2.34568e-05
-4.34451e-05
0.00195419
6.78489e-05
-3.46794e-05
0.00189441
2.81628e-05
-1.40186e-05
0.0018093
5.57198e-05
-3.31846e-05
0.00180502
6.22629e-05
-0.000145729
-4.18461e-05
-0.000174811
0.00172371
-0.000134598
-5.6484e-05
0.00165409
-3.96207e-05
-8.33202e-05
0.00164797
3.34748e-05
-0.00014584
0.00174004
9.57764e-05
-0.000185175
0.0018612
9.46458e-05
-0.000108797
0.0019407
8.4017e-05
-2.48914e-05
0.00194291
0.000206728
-6.95332e-05
0.00186311
0.000291542
-0.000132735
0.00175944
0.000122156
-0.000100342
0.00170259
-0.000124908
-0.000105979
0.001716
-0.000194111
-0.000168266
0.00173523
-5.1645e-05
-0.000166393
0.0017342
0.000110052
-0.00018843
0.00174751
9.30515e-05
-0.000168998
0.00175735
-7.51106e-05
-1.77697e-05
0.00175655
-0.000107312
7.89377e-05
0.00177661
-6.01474e-07
9.72511e-05
0.00182489
-4.64262e-05
0.000100539
0.00187992
-0.000201361
3.83002e-05
0.00192127
-0.000278778
5.64008e-05
0.00191253
-0.000205099
0.000212966
0.00185001
-1.22189e-05
0.000248113
0.00182063
4.53304e-05
0.000176426
0.00181914
-7.02725e-05
0.000148229
0.00178999
-6.80245e-05
6.0131e-05
0.00176533
0.000105042
-9.72476e-06
0.00179027
0.000238197
5.62229e-05
0.00185616
0.000134072
0.00013347
0.00186725
-8.99764e-05
0.000114156
0.00181477
-0.000257068
3.0695e-05
0.00179093
-0.000427975
-1.7913e-05
0.00178682
-0.000519983
-3.80962e-05
0.00176648
-0.000380355
-0.00010009
0.00174422
-0.000119464
-0.000129088
0.00172531
8.00294e-05
-6.9003e-05
0.00169484
6.99458e-05
-2.16362e-05
0.00165077
-1.58611e-05
-4.47672e-05
0.00164277
-2.79071e-06
-0.000146589
0.00170488
-5.23208e-05
-0.000200359
-0.000158957
-0.000111592
0.00150551
-3.11297e-05
-0.000150375
0.00150565
1.65563e-05
-0.0001044
0.00158866
9.04721e-06
-8.62598e-05
0.00168464
7.75256e-06
-9.69271e-05
0.00171112
2.71537e-05
-6.19856e-05
0.00169057
6.52901e-05
-5.32659e-05
0.00166151
0.000175946
-0.000107327
0.00160643
0.000237669
-0.000138183
0.00153733
8.10604e-05
-0.000113645
0.00151084
-0.000131417
-0.000120698
0.00153317
-0.000183501
-0.000171484
0.0015587
-7.36546e-05
-0.000213744
0.00159314
6.57484e-05
-0.000235158
0.00161473
5.10464e-05
-0.000109274
0.0015795
-6.96511e-05
5.86299e-05
0.00154521
-1.55208e-05
3.72e-05
0.001573
4.88213e-05
6.96458e-07
0.00164177
-0.000141549
0.000106278
0.00169519
-0.000335317
0.000196244
0.00170448
-0.000324658
0.000240944
0.00168652
-0.000116418
0.000220896
0.00166049
0.000127858
0.000102944
0.00162951
0.000144828
4.93457e-05
0.00157652
2.10014e-05
6.4494e-05
0.00153194
2.17629e-05
2.49345e-06
0.00153572
0.000171516
-5.41713e-05
0.00159174
0.000255244
-1.50307e-05
0.00166805
0.000101971
5.34339e-05
0.00168677
-0.000105461
6.88706e-05
0.00165179
-0.000243884
2.48544e-05
0.00160596
-0.000394473
-1.27631e-05
0.00157052
-0.000457623
-9.41144e-05
0.00156847
-0.000320363
-0.000195209
0.00159739
-0.000105895
-0.000157817
0.00159141
6.96277e-05
-4.017e-05
0.00152317
6.07887e-05
-3.37706e-05
0.00146676
-3.07777e-05
-0.000139492
0.00149914
-6.58957e-05
-0.000241024
0.00156346
-0.0001236
-0.000237818
-0.000123165
-0.000179619
0.00136576
-2.3175e-06
-0.000118766
0.00141267
2.0754e-05
1.72298e-05
0.00149668
-7.48088e-06
1.89851e-05
0.00156686
-3.21224e-05
-5.00171e-05
0.00154763
1.15614e-05
-1.6471e-05
0.00148895
6.57566e-05
1.86392e-05
0.00147773
0.000121347
-4.47542e-05
0.00148376
0.000137462
-9.00584e-05
0.00145629
3.26416e-05
-7.20924e-05
0.00142907
-8.05167e-05
-8.00057e-05
0.00142492
-0.000112141
-0.000146361
0.00144712
-7.28454e-05
-0.000220473
0.00149884
4.69523e-05
-0.00019253
0.00149416
9.3943e-05
-3.18684e-05
0.00143248
-4.26439e-06
5.94445e-05
0.00142097
9.45279e-06
7.37153e-06
0.00145048
3.91918e-06
3.31764e-05
0.00146905
-0.000237911
0.000174536
0.00146918
-0.00039051
0.000244775
0.00146284
-0.000300732
0.000238261
0.00148817
-7.24592e-05
0.000177228
0.00151501
0.000136779
8.05005e-05
0.00147365
0.000173968
4.82598e-05
0.00139588
8.44572e-05
6.41872e-05
0.00135783
8.36025e-05
3.63487e-05
0.00138302
0.000215987
-2.35471e-05
0.00146288
0.00023648
-6.38829e-05
0.00152532
2.34819e-05
-1.86244e-05
0.00151421
-0.000151665
7.67837e-06
0.00144635
-0.000217392
-3.24042e-05
0.00136341
-0.000348243
-5.98052e-05
0.00135424
-0.000450194
-0.000122781
0.00142198
-0.000347567
-0.000151898
0.00146184
-0.000116788
-8.65138e-05
0.00142442
7.27531e-05
-4.8875e-05
0.00136726
4.4001e-05
-0.000102156
0.0013469
-2.98195e-05
-0.000175114
0.00135159
-4.13808e-05
-0.000218835
0.00134776
-9.34481e-05
-0.000224958
-7.89453e-05
-0.000204034
0.00126924
2.8557e-05
-0.000110046
0.00130256
3.28165e-05
9.41539e-06
0.0013495
-1.9236e-05
1.3396e-05
0.00136737
-3.42344e-05
-4.92485e-05
0.00131514
3.03063e-05
-3.13728e-05
0.00128809
2.66293e-05
-6.70209e-06
0.0013466
-1.14625e-05
-2.00396e-06
0.00137883
1.40807e-05
4.03349e-05
0.00132237
4.90281e-05
3.63939e-05
0.0012733
5.4938e-05
-8.31213e-05
0.00129527
-2.5195e-05
-0.000199672
0.00135901
-7.28929e-05
-0.000196974
0.00137768
0.000104192
-8.64641e-05
0.00130953
0.000237705
-1.17289e-05
0.00127795
5.53386e-05
-7.20329e-06
0.00132225
-2.70673e-05
1.18504e-06
0.00133669
-6.14099e-05
0.000104962
0.00132797
-0.000307253
0.000228873
0.00132067
-0.000404538
0.000245462
0.00131449
-0.000254032
0.000195788
0.00134838
-7.51995e-05
0.000124892
0.00137786
8.20566e-05
4.39374e-05
0.00133356
0.000166482
4.08801e-05
0.00126087
0.000122628
6.57484e-05
0.00122933
0.000143501
2.58704e-06
0.00126392
0.000249121
-9.76621e-05
0.00134219
0.000159324
-0.000129425
0.0013811
-0.000121514
-4.97688e-05
0.00137787
-0.000250745
-3.71404e-05
0.00135785
-0.000220853
-9.46726e-05
0.00129118
-0.000279627
-9.05829e-05
0.00121898
-0.000382172
-7.09103e-05
0.00118687
-0.000333206
-2.66151e-05
0.00118865
-0.000139097
2.28319e-06
0.00119628
2.62718e-05
-3.80881e-05
0.00119913
2.01026e-05
-0.000133219
0.00122789
8.27565e-06
-0.000196539
0.00125357
2.65798e-05
-0.000178253
0.00123832
-2.75379e-05
-0.000153716
-2.8851e-05
-0.000163547
0.00116362
6.94003e-05
-0.000119084
0.00114474
9.23829e-05
1.78762e-06
0.00114585
2.35724e-05
-1.76578e-05
0.00116389
3.60611e-06
-0.000103737
0.00115196
4.79633e-05
-6.10591e-05
0.00115641
-1.17295e-05
1.44612e-05
0.00119995
-9.49482e-05
6.30086e-05
0.00121324
-4.45595e-05
0.000102386
0.00117058
8.92528e-05
6.02033e-05
0.00113163
0.000142971
-9.47144e-05
0.0011533
1.02943e-06
-0.000227739
0.00121661
-7.873e-05
-0.000195288
0.00121822
0.000188343
-7.56606e-05
0.00116255
0.000348137
-5.66874e-05
0.00118069
6.39883e-05
-4.11569e-05
0.00122836
-5.50886e-05
4.64527e-05
0.00119987
-8.31789e-05
0.000170847
0.00116457
-0.000349878
0.000249251
0.00115661
-0.000410651
0.000207543
0.00116632
-0.000213573
0.000125581
0.00122358
-9.33472e-05
7.34045e-05
0.00125914
3.32044e-05
1.85009e-05
0.00120929
0.000181833
2.31033e-05
0.00114437
0.000166709
3.32907e-05
0.00112997
0.000176688
-4.53079e-05
0.00117698
0.000233567
-0.000132087
0.0012448
6.0857e-05
-0.000140676
0.00124829
-0.000222486
-8.68878e-05
0.0012309
-0.000309556
-0.000102762
0.00123233
-0.000220474
-0.0001118
0.00118367
-0.000179436
-0.000103805
0.00109849
-0.000259212
-0.000111925
0.00104181
-0.000319167
-1.60408e-05
0.00103472
-0.000180667
1.67473e-05
0.00105408
2.47277e-05
-8.72362e-05
0.00108048
8.56403e-05
-0.000183302
0.00113008
8.63004e-05
-0.000164391
0.00115624
8.87663e-05
-9.9478e-05
0.00113365
1.73494e-05
-9.88684e-05
-4.68726e-06
-0.000159248
0.00107557
0.000122895
-0.000100739
0.00100817
0.000170268
1.21474e-05
0.000984364
7.28796e-05
9.69018e-06
0.00102128
1.21262e-05
-4.10878e-05
0.00106226
-1.86575e-05
2.71652e-05
0.00109228
-0.000108562
0.000129791
0.00109786
-0.000154026
0.000139292
0.00107579
-6.02109e-05
9.34647e-05
0.00103718
0.000111187
4.63253e-05
0.00100769
0.000149555
-5.45529e-05
0.00102357
-1.99215e-05
-0.00018888
0.0010681
-4.13894e-05
-0.000181836
0.00106628
0.000299183
-8.06103e-05
0.00105939
0.000396782
-5.85199e-05
0.00112347
3.20397e-05
-1.41357e-05
0.0011729
-6.86777e-05
7.88446e-05
0.00112644
-8.49908e-05
0.000195114
0.00105363
-0.000354194
0.000243478
0.00102262
-0.0003759
0.000152761
0.00104979
-0.000164553
6.75001e-05
0.00111424
-0.00010209
5.17825e-05
0.00113056
3.25379e-05
1.08456e-05
0.00107381
0.000249185
1.78272e-06
0.00103066
0.000208552
-2.25827e-06
0.00103697
0.000167399
-6.69916e-05
0.00108042
0.000184176
-0.000116683
0.00113613
-1.40015e-05
-0.000128604
0.00115055
-0.00027574
-0.000134784
0.00114559
-0.000336938
-0.000135215
0.00112966
-0.000213589
-7.76763e-05
0.00107406
-8.18494e-05
-0.000121721
0.0010122
-0.000164691
-0.000156103
0.000977253
-0.000347205
5.11415e-06
0.000969502
-0.000221492
4.47121e-05
0.000973552
9.46669e-05
-0.000111416
0.000996015
0.000199687
-0.000176367
0.00104984
0.000148863
-8.7381e-05
0.00106474
0.000137214
-2.71537e-05
0.00104338
5.23189e-05
-6.34859e-05
6.35164e-06
-0.000131497
0.000957576
0.000190916
-4.29263e-05
0.000838003
0.000275009
2.0573e-05
0.00078917
0.00012428
2.64906e-05
0.000850556
-4.81079e-05
8.46126e-06
0.000957996
-0.000201523
8.06277e-05
0.00102447
-0.000273783
0.000179147
0.00101189
-0.000212101
0.000142149
0.000979595
-6.01087e-05
3.19554e-05
0.000954941
0.000131736
3.73802e-06
0.000922962
0.000140565
-5.66646e-06
0.000908059
-3.11286e-05
-9.70142e-05
0.000917718
2.57232e-05
-9.84227e-05
0.000938637
0.000390302
-2.022e-05
0.000992851
0.000384363
-1.9164e-06
0.00106517
1.07063e-05
3.30931e-05
0.00109946
-6.90045e-05
0.00010424
0.00105476
-0.0001043
0.00021308
0.000972063
-0.000328618
0.00022866
0.000939767
-0.000306018
8.71634e-05
0.000971337
-0.000115358
3.02066e-05
0.00100982
-9.21725e-05
4.76985e-05
0.000996061
7.66588e-05
-3.20331e-06
0.000943539
0.000329183
-2.39844e-05
0.00093018
0.000227418
-2.80194e-05
0.000957721
0.000119346
-6.9206e-05
0.000994266
0.000133262
-9.61753e-05
0.00103523
-2.20569e-05
-0.000123449
0.00105878
-0.000272825
-0.000155419
0.00105792
-0.00035151
-0.000108642
0.00103231
-0.000207943
-3.33147e-05
0.00100098
-9.98431e-06
-0.000139777
0.000962167
-0.000104275
-0.000160299
0.000913645
-0.000380169
4.834e-05
0.000906937
-0.000252386
9.78685e-05
0.000921982
0.000171863
-7.3732e-05
0.000941462
0.000287237
-0.000115938
0.000974536
0.000184003
-2.22738e-05
0.000969962
0.000182925
-6.57059e-06
0.000962828
7.85359e-05
-5.66606e-05
4.9175e-06
-7.45545e-05
0.000839313
0.000236243
2.27661e-05
0.000737095
0.000347559
3.21348e-05
0.000709884
0.000166377
-9.3719e-06
0.000765268
-0.000115972
-4.09469e-05
0.000858645
-0.000348917
2.4632e-05
0.00091222
-0.000373964
0.000120678
0.000890374
-0.000225485
7.10244e-05
0.00087627
-3.8254e-05
-4.33637e-05
0.000881209
0.000154804
-4.42043e-05
0.00084959
0.000136152
6.37694e-06
0.000802662
-3.5304e-05
-2.45263e-05
0.000784211
7.62397e-05
-7.17254e-06
0.000837699
0.000417546
3.74607e-05
0.000934331
0.000323544
4.22966e-05
0.000992035
1.14189e-05
7.59472e-05
0.00100657
-5.00187e-05
0.000119314
0.0009583
-0.000115544
0.00020462
0.000877984
-0.000271247
0.000198174
0.000864368
-0.000228451
3.87773e-05
0.000897498
-8.01179e-05
9.80288e-06
0.000905052
-6.81091e-05
4.07395e-05
0.000873918
0.000131494
-1.62452e-05
0.000839307
0.000391062
-3.73044e-05
0.000854298
0.000225258
-2.71797e-05
0.000887548
5.0769e-05
-5.53564e-05
0.000917036
9.40175e-05
-9.13421e-05
0.000963114
1.92427e-05
-0.000130218
0.000983536
-0.000230969
-0.000146444
0.000948834
-0.000334659
-7.04336e-05
0.000907462
-0.000144055
-3.78123e-05
0.000904307
7.47212e-05
-0.000164296
0.000883053
-0.000103281
-0.000116492
0.00081861
-0.000420809
7.06608e-05
0.000805327
-0.000232824
8.18984e-05
0.000837825
0.000244556
-3.8264e-05
0.000869794
0.00032288
-3.0359e-05
0.000889458
0.000213414
1.4388e-05
0.000889071
0.000225214
-1.97894e-05
0.000903745
8.95664e-05
-5.80459e-05
8.55356e-06
-2.39331e-05
0.000760371
0.000258995
5.06715e-05
0.000702212
0.000373544
5.27635e-05
0.000707141
0.000167487
-6.51607e-06
0.000733553
-0.000151892
-5.70883e-05
0.000756873
-0.000386177
1.7614e-06
0.000764703
-0.00039233
8.31796e-05
0.000747035
-0.000231415
2.81445e-05
0.000765625
-2.59209e-05
-7.92928e-05
0.000792793
0.000168032
-6.46624e-05
0.000763461
0.000126527
4.34211e-06
0.00070914
-3.90446e-05
2.84868e-06
0.000692672
0.000108057
2.95992e-05
0.000777211
0.000384137
6.48722e-05
0.0008815
0.000253834
7.49327e-05
0.000901393
5.4748e-05
0.000109958
0.000885882
1.0581e-05
0.000109275
0.000840094
-0.000108521
0.00016635
0.000784239
-0.000216401
0.000163444
0.000796468
-0.000170659
1.498e-05
0.000828592
-5.51414e-05
3.96866e-06
0.000806412
-1.38449e-05
3.35019e-05
0.000765265
0.000214545
-3.5566e-05
0.000770098
0.000425663
-4.23654e-05
0.00081476
0.000179587
7.64082e-06
0.000833891
-1.45081e-05
-2.09842e-05
0.000853998
8.50295e-05
-9.05836e-05
0.000900842
7.38707e-05
-0.000131683
0.000896728
-0.000176763
-0.000124699
0.000833524
-0.000285742
-6.0241e-05
0.000797507
-3.35015e-05
-6.19356e-05
0.000801132
0.000175705
-0.000141632
0.000774849
-0.000129342
-4.4902e-05
0.000722357
-0.000468928
8.3773e-05
0.000714072
-0.000189705
4.82985e-05
0.00074789
0.000286908
-9.58065e-06
0.00078605
0.000304079
2.30616e-05
0.000810701
0.000208113
3.79944e-05
0.000832629
0.000228483
-5.38225e-06
0.000852946
8.53565e-05
-3.6945e-05
2.1905e-05
-7.26193e-07
0.00069315
0.000264111
5.65461e-05
0.000677775
0.000374448
4.97794e-05
0.00068948
0.000167856
-5.52311e-06
0.000676272
-0.00014155
-2.77145e-05
0.000637786
-0.000343489
2.90781e-05
0.000605814
-0.000380228
6.84299e-05
0.000604123
-0.000262472
-6.49413e-08
0.000652937
-4.02355e-05
-8.7777e-05
0.000686145
0.000159616
-5.47514e-05
0.000663159
9.61101e-05
2.50219e-06
0.000635294
-4.67757e-05
-8.12915e-06
0.000653009
0.000120653
2.77639e-05
0.000744181
0.000345041
7.3641e-05
0.000806986
0.000244961
0.000105953
0.000784852
0.0001404
0.000116762
0.000754579
7.57383e-05
6.69976e-05
0.000723152
-0.00011767
0.000121948
0.000698813
-0.000211577
0.000135751
0.000723665
-0.000134791
5.2951e-06
0.000745298
-5.78035e-06
4.35407e-06
0.000712773
8.40267e-05
2.50705e-05
0.000694637
0.00031079
-4.78606e-05
0.000749955
0.00040453
-1.81464e-05
0.000804711
0.0001003
4.97691e-05
0.000801961
-6.21049e-05
1.20687e-05
0.000812678
0.000107342
-8.75153e-05
0.000838647
0.000144423
-0.000126523
0.00079037
-0.00010039
-0.000101992
0.000712232
-0.00021985
-4.67553e-05
0.000708645
6.91061e-05
-7.13166e-05
0.000728337
0.000263622
-0.000108591
0.000672696
-0.000127884
1.35711e-05
0.000602512
-0.000467436
9.02128e-05
0.000607445
-0.0001443
3.01777e-05
0.000661738
0.000270867
1.44295e-05
0.000704781
0.000232204
5.32561e-05
0.000737698
0.000164048
5.24479e-05
0.000779438
0.000202515
8.14267e-06
0.000787887
8.35763e-05
-1.65732e-05
4.25981e-05
1.31351e-05
0.00061796
0.000243491
5.53061e-05
0.000647242
0.000344451
4.72356e-05
0.000658393
0.000184818
-7.37331e-06
0.000624345
-0.000111139
1.52717e-06
0.000565064
-0.000293233
6.37617e-05
0.00051276
-0.000368099
6.59943e-05
0.00050754
-0.000291518
-1.25415e-05
0.000550232
-4.21506e-05
-7.48025e-05
0.000576469
0.000142912
-4.10941e-05
0.000576614
5.598e-05
-2.16313e-05
0.000585445
-4.06918e-05
-3.12094e-05
0.000623006
0.000157321
3.09572e-05
0.000692852
0.000351181
9.11232e-05
0.000722113
0.00026893
0.000114735
0.000696323
0.000188939
9.19911e-05
0.000664443
0.000110819
3.05867e-05
0.000631873
-0.000134529
9.76658e-05
0.000622905
-0.000224364
0.000105
0.000651903
-8.45764e-05
-1.74139e-05
0.000655522
7.43248e-05
-1.79385e-05
0.000626365
0.000165218
-8.02095e-06
0.000652661
0.000320957
-4.49939e-05
0.000734282
0.000308033
1.65535e-05
0.000762477