# y+ ()       
# Time        	patch         	min           	max           	average       
37            	bottomWall	1.282784e+00	3.686310e+00	2.093428e+00
37            	topWall	1.095352e+00	3.437536e+00	2.065728e+00
