/*--------------------------------*- C++ -*----------------------------------*\
  =========                 |
  \\      /  F ield         | OpenFOAM: The Open Source CFD Toolbox
   \\    /   O peration     | Website:  https://openfoam.org
    \\  /    A nd           | Version:  10
     \\/     M anipulation  |
\*---------------------------------------------------------------------------*/
FoamFile
{
    format      ascii;
    class       volVectorField;
    location    "37.5";
    object      U;
}
// * * * * * * * * * * * * * * * * * * * * * * * * * * * * * * * * * * * * * //

dimensions      [0 1 -1 0 0 0 0];

internalField   nonuniform List<vector> 
102400
(
(0.0330735 1.04841e-06 -5.03023e-06)
(0.0331232 4.96838e-07 -1.78051e-05)
(0.0330712 -7.62887e-07 -6.41533e-06)
(0.033137 1.16711e-06 -1.54057e-05)
(0.0330613 -2.49986e-07 -7.76398e-06)
(0.0331367 2.90253e-07 -1.26907e-05)
(0.0330668 2.54585e-07 -9.72976e-06)
(0.0331311 3.12451e-07 -1.13042e-05)
(0.0330649 1.34734e-07 -8.19829e-06)
(0.0331329 1.89862e-07 -1.46009e-05)
(0.0330599 4.43847e-07 -4.84148e-06)
(0.0331318 -1.42119e-07 -1.46731e-05)
(0.0330599 6.1673e-07 -8.49334e-06)
(0.0331243 7.89266e-08 -1.02263e-05)
(0.0330615 1.59553e-08 -1.15146e-05)
(0.0331246 5.27189e-07 -1.14713e-05)
(0.0330515 1.81286e-07 -8.16466e-06)
(0.0331268 -5.53026e-08 -1.52872e-05)
(0.0330545 5.24966e-07 -8.11476e-06)
(0.0331144 3.66181e-07 -1.4413e-05)
(0.0330579 -4.75703e-07 -1.04803e-05)
(0.0331206 9.3667e-07 -1.51685e-05)
(0.0330437 1.05518e-07 -8.78467e-06)
(0.0331255 -2.98612e-07 -1.79856e-05)
(0.0330497 9.20955e-07 -9.08481e-06)
(0.0331149 -1.39561e-07 -1.56851e-05)
(0.0330563 8.72819e-08 -1.41914e-05)
(0.0331162 7.57579e-07 -1.14915e-05)
(0.0330533 -3.23043e-07 -1.65994e-05)
(0.0331213 5.95013e-07 -1.35357e-05)
(0.0330526 1.56006e-07 -1.06699e-05)
(0.033126 -3.79213e-08 -2.09692e-05)
(0.0330547 7.75403e-07 -4.319e-06)
(0.0331219 -1.06735e-07 -2.17314e-05)
(0.0330672 -8.21593e-09 -9.14065e-06)
(0.033121 9.42261e-07 -1.24022e-05)
(0.0330606 -3.81611e-07 -1.63046e-05)
(0.0331396 3.33922e-08 -9.53409e-06)
(0.033054 1.38637e-06 -1.14194e-05)
(0.0331341 -1.22296e-06 -1.64661e-05)
(0.101918 7.19259e-06 -1.97817e-05)
(0.10212 3.61977e-06 -4.49012e-05)
(0.101927 1.06542e-06 -1.87474e-05)
(0.102132 6.62697e-06 -4.20827e-05)
(0.101917 1.83265e-06 -1.99764e-05)
(0.102134 4.01976e-06 -3.79639e-05)
(0.101923 3.53311e-06 -2.32403e-05)
(0.102125 3.97084e-06 -3.45035e-05)
(0.10192 3.09383e-06 -2.25018e-05)
(0.102124 3.56135e-06 -3.86412e-05)
(0.10191 4.11761e-06 -1.69786e-05)
(0.102122 2.41205e-06 -4.07342e-05)
(0.101902 4.80936e-06 -2.11537e-05)
(0.102111 2.86323e-06 -3.45912e-05)
(0.101902 2.97105e-06 -2.77021e-05)
(0.102103 4.54337e-06 -3.44865e-05)
(0.101887 3.11418e-06 -2.48487e-05)
(0.102104 2.76425e-06 -4.08139e-05)
(0.101882 4.635e-06 -2.40276e-05)
(0.102086 3.56342e-06 -4.13187e-05)
(0.101888 1.59174e-06 -2.79016e-05)
(0.102083 6.02201e-06 -4.25358e-05)
(0.101871 2.73494e-06 -2.64187e-05)
(0.102092 2.27026e-06 -4.79277e-05)
(0.101869 5.85334e-06 -2.60722e-05)
(0.102082 2.1764e-06 -4.65524e-05)
(0.101878 3.49645e-06 -3.37729e-05)
(0.10208 5.26707e-06 -3.9252e-05)
(0.101881 1.76966e-06 -4.03119e-05)
(0.102084 5.11163e-06 -3.91762e-05)
(0.101884 3.13257e-06 -3.33647e-05)
(0.102093 3.22196e-06 -5.01036e-05)
(0.101887 5.36322e-06 -2.04968e-05)
(0.102097 2.41816e-06 -5.50908e-05)
(0.101906 3.36457e-06 -2.3022e-05)
(0.102094 5.90949e-06 -4.19613e-05)
(0.101911 1.37565e-06 -3.49157e-05)
(0.10212 3.82117e-06 -3.28406e-05)
(0.1019 7.01402e-06 -3.12646e-05)
(0.102131 -1.33412e-06 -4.07242e-05)
(0.1764 1.85167e-05 -3.36865e-05)
(0.176772 9.87067e-06 -6.88612e-05)
(0.176413 7.64059e-06 -3.10955e-05)
(0.176784 1.61942e-05 -6.57521e-05)
(0.176415 7.62836e-06 -3.16488e-05)
(0.176784 1.21865e-05 -6.108e-05)
(0.176425 1.05705e-05 -3.50917e-05)
(0.176776 1.18921e-05 -5.6719e-05)
(0.176424 9.8063e-06 -3.44527e-05)
(0.176773 1.10978e-05 -6.11921e-05)
(0.176411 1.16599e-05 -2.82022e-05)
(0.176771 8.91519e-06 -6.39916e-05)
(0.176397 1.3115e-05 -3.24735e-05)
(0.17676 9.32147e-06 -5.74306e-05)
(0.17639 1.00928e-05 -4.03525e-05)
(0.176744 1.24733e-05 -5.69776e-05)
(0.176374 9.8624e-06 -3.79516e-05)
(0.176739 9.6487e-06 -6.42077e-05)
(0.176359 1.27826e-05 -3.73352e-05)
(0.176718 1.04937e-05 -6.51892e-05)
(0.176361 7.75922e-06 -4.22691e-05)
(0.176703 1.54355e-05 -6.70862e-05)
(0.176345 8.86749e-06 -4.10367e-05)
(0.176706 9.31496e-06 -7.40391e-05)
(0.176335 1.48595e-05 -4.08573e-05)
(0.176699 8.29347e-06 -7.36703e-05)
(0.176337 1.14261e-05 -4.98601e-05)
(0.176695 1.37754e-05 -6.56514e-05)
(0.176344 7.8817e-06 -5.8499e-05)
(0.176692 1.41437e-05 -6.46501e-05)
(0.176354 9.88348e-06 -5.20758e-05)
(0.176699 1.11122e-05 -7.6573e-05)
(0.176357 1.3998e-05 -3.6622e-05)
(0.176713 9.03885e-06 -8.33994e-05)
(0.176377 1.12112e-05 -3.7694e-05)
(0.176714 1.50766e-05 -6.90002e-05)
(0.176394 7.0437e-06 -5.02752e-05)
(0.176739 1.23573e-05 -5.73497e-05)
(0.176389 1.66565e-05 -4.7012e-05)
(0.176767 2.2615e-06 -6.44226e-05)
(0.256163 3.49459e-05 -4.57742e-05)
(0.25671 2.06037e-05 -9.15329e-05)
(0.25618 1.90938e-05 -4.23217e-05)
(0.256727 3.0429e-05 -8.72874e-05)
(0.256199 1.81191e-05 -4.24953e-05)
(0.25673 2.50045e-05 -8.1462e-05)
(0.256219 2.22915e-05 -4.60208e-05)
(0.256725 2.44872e-05 -7.63282e-05)
(0.256226 2.10543e-05 -4.44612e-05)
(0.256724 2.33192e-05 -8.14153e-05)
(0.256214 2.37432e-05 -3.70185e-05)
(0.256726 2.00117e-05 -8.43784e-05)
(0.256194 2.60044e-05 -4.15041e-05)
(0.256717 2.02956e-05 -7.6715e-05)
(0.256185 2.17723e-05 -5.00129e-05)
(0.256694 2.49899e-05 -7.6446e-05)
(0.256166 2.10744e-05 -4.67057e-05)
(0.256681 2.11053e-05 -8.44809e-05)
(0.256144 2.55038e-05 -4.6309e-05)
(0.256657 2.18999e-05 -8.47074e-05)
(0.256136 1.84747e-05 -5.22521e-05)
(0.25663 2.95182e-05 -8.71961e-05)
(0.256121 1.94464e-05 -5.06866e-05)
(0.25662 2.10276e-05 -9.53838e-05)
(0.2561 2.84791e-05 -5.09781e-05)
(0.256613 1.90232e-05 -9.5469e-05)
(0.256089 2.40598e-05 -6.18343e-05)
(0.256605 2.6964e-05 -8.71372e-05)
(0.256095 1.86841e-05 -7.23962e-05)
(0.25659 2.79102e-05 -8.62916e-05)
(0.256109 2.13453e-05 -6.65122e-05)
(0.256591 2.38708e-05 -0.000100746)
(0.256112 2.73187e-05 -4.89559e-05)
(0.256609 2.05155e-05 -0.000108977)
(0.256128 2.38022e-05 -5.08611e-05)
(0.256614 2.91899e-05 -9.29871e-05)
(0.256156 1.73381e-05 -6.46148e-05)
(0.256637 2.5868e-05 -7.98158e-05)
(0.25616 3.10798e-05 -6.09631e-05)
(0.256682 1.04925e-05 -8.72473e-05)
(0.340506 5.69935e-05 -5.60537e-05)
(0.341218 3.62431e-05 -0.000112514)
(0.340525 3.61343e-05 -5.20532e-05)
(0.341244 4.97761e-05 -0.000106434)
(0.340564 3.39406e-05 -5.24671e-05)
(0.341254 4.30484e-05 -9.87722e-05)
(0.3406 3.9278e-05 -5.5895e-05)
(0.341258 4.23621e-05 -9.30192e-05)
(0.340622 3.74359e-05 -5.24731e-05)
(0.341265 4.08397e-05 -9.89244e-05)
(0.340615 4.08874e-05 -4.28599e-05)
(0.341278 3.64012e-05 -0.000101848)
(0.340597 4.39746e-05 -4.75907e-05)
(0.341273 3.63936e-05 -9.22284e-05)
(0.34059 3.8573e-05 -5.60754e-05)
(0.341247 4.26694e-05 -9.23051e-05)
(0.340573 3.72886e-05 -5.09972e-05)
(0.34123 3.76967e-05 -0.000100348)
(0.340544 4.3345e-05 -5.12184e-05)
(0.341203 3.82113e-05 -9.86138e-05)
(0.340527 3.4325e-05 -5.71608e-05)
(0.341163 4.86731e-05 -0.000101713)
(0.34051 3.49443e-05 -5.46071e-05)
(0.341138 3.78882e-05 -0.000110295)
(0.340476 4.70636e-05 -5.51009e-05)
(0.341128 3.48012e-05 -0.000110504)
(0.340446 4.17732e-05 -6.76662e-05)
(0.34111 4.51608e-05 -0.000101427)
(0.340446 3.46725e-05 -8.16051e-05)
(0.341079 4.66474e-05 -0.000100042)
(0.340457 3.79197e-05 -7.56681e-05)
(0.341066 4.1909e-05 -0.000120422)
(0.340456 4.56182e-05 -5.52029e-05)
(0.341082 3.72921e-05 -0.000130636)
(0.340465 4.1522e-05 -5.97307e-05)
(0.341087 4.86597e-05 -0.000113135)
(0.3405 3.27336e-05 -7.67983e-05)
(0.341103 4.48232e-05 -9.79392e-05)
(0.340511 5.07246e-05 -7.38241e-05)
(0.341162 2.38017e-05 -0.000107113)
(0.428308 8.4867e-05 -6.22349e-05)
(0.429153 5.70705e-05 -0.00012981)
(0.428324 5.93943e-05 -5.96782e-05)
(0.429188 7.43826e-05 -0.000121052)
(0.42838 5.56966e-05 -6.12426e-05)
(0.429209 6.68029e-05 -0.000112421)
(0.428432 6.19878e-05 -6.37674e-05)
(0.429225 6.60927e-05 -0.000107129)
(0.428474 5.94269e-05 -5.76794e-05)
(0.429248 6.44161e-05 -0.000114461)
(0.428478 6.34253e-05 -4.5159e-05)
(0.429277 5.88498e-05 -0.000116839)
(0.428476 6.74818e-05 -5.02857e-05)
(0.429278 5.83009e-05 -0.0001052)
(0.428479 6.09184e-05 -5.78694e-05)
(0.42926 6.60978e-05 -0.000104734)
(0.428469 5.91628e-05 -5.23021e-05)
(0.429242 5.98012e-05 -0.000110092)
(0.428441 6.69537e-05 -5.39358e-05)
(0.429219 5.98355e-05 -0.00010681)
(0.428416 5.58855e-05 -5.75221e-05)
(0.42917 7.31723e-05 -0.000109739)
(0.428399 5.59891e-05 -5.42542e-05)
(0.429131 6.01994e-05 -0.000117684)
(0.428352 7.08106e-05 -5.23937e-05)
(0.429117 5.619e-05 -0.000119097)
(0.4283 6.47226e-05 -6.59676e-05)
(0.429091 6.84472e-05 -0.000105187)
(0.428287 5.63842e-05 -8.70566e-05)
(0.429041 7.03817e-05 -0.000102664)
(0.428292 5.97258e-05 -7.62654e-05)
(0.429004 6.55477e-05 -0.000133469)
(0.428287 6.89013e-05 -5.23808e-05)
(0.429006 5.96458e-05 -0.000145255)
(0.428281 6.44137e-05 -6.08564e-05)
(0.429005 7.36696e-05 -0.000126024)
(0.428315 5.35137e-05 -8.51311e-05)
(0.429005 6.93212e-05 -0.000106854)
(0.428332 7.59033e-05 -8.45736e-05)
(0.429069 4.2535e-05 -0.000121088)
(0.517985 0.000118302 -5.93468e-05)
(0.518898 8.2613e-05 -0.000137931)
(0.517982 8.91071e-05 -6.33336e-05)
(0.518944 0.000104095 -0.000127361)
(0.518037 8.31937e-05 -6.47723e-05)
(0.518973 9.64557e-05 -0.000121892)
(0.518102 9.03851e-05 -6.54489e-05)
(0.518997 9.61018e-05 -0.000119072)
(0.518162 8.67601e-05 -5.74488e-05)
(0.519034 9.46909e-05 -0.000127987)
(0.51819 9.15479e-05 -4.31432e-05)
(0.519072 8.77485e-05 -0.000130334)
(0.518214 9.67105e-05 -4.75707e-05)
(0.519091 8.67126e-05 -0.000117327)
(0.518227 8.91894e-05 -5.71861e-05)
(0.51909 9.52324e-05 -0.000110244)
(0.518237 8.77149e-05 -5.63885e-05)
(0.519078 8.7445e-05 -0.000111138)
(0.518219 9.67865e-05 -5.59185e-05)
(0.519071 8.71679e-05 -0.000110632)
(0.518192 8.39091e-05 -5.65111e-05)
(0.519024 0.00010279 -0.000109766)
(0.518182 8.32257e-05 -5.18841e-05)
(0.518978 8.86596e-05 -0.000121536)
(0.518127 9.91934e-05 -4.01185e-05)
(0.518966 8.38051e-05 -0.000123238)
(0.518052 9.34729e-05 -6.16386e-05)
(0.518942 9.62817e-05 -9.26972e-05)
(0.518018 8.41459e-05 -9.06045e-05)
(0.518872 9.94304e-05 -9.63769e-05)
(0.51803 8.63348e-05 -6.41675e-05)
(0.518788 9.48313e-05 -0.000138417)
(0.51803 9.70584e-05 -3.88549e-05)
(0.518773 8.75116e-05 -0.000149775)
(0.517994 9.20742e-05 -5.10139e-05)
(0.518762 0.000103903 -0.000125338)
(0.518025 7.98183e-05 -8.96398e-05)
(0.518727 9.87369e-05 -9.90191e-05)
(0.518045 0.000106357 -8.87536e-05)
(0.51879 6.67305e-05 -0.000126678)
(0.607461 0.00015667 -4.4871e-05)
(0.608363 0.00011178 -0.000128545)
(0.607408 0.000124093 -5.60191e-05)
(0.608427 0.00013858 -0.000124507)
(0.607439 0.000114813 -5.12662e-05)
(0.608454 0.000132092 -0.000127437)
(0.607512 0.000122546 -5.19822e-05)
(0.608465 0.000132362 -0.000124917)
(0.607601 0.000118993 -4.94063e-05)
(0.608485 0.000130215 -0.000134761)
(0.60766 0.000125114 -3.17841e-05)
(0.608532 0.000123252 -0.000144157)
(0.607693 0.000130747 -3.7076e-05)
(0.608583 0.000121113 -0.000120727)
(0.607719 0.00012483 -6.61393e-05)
(0.608592 0.000128254 -9.66346e-05)
(0.607766 0.000123842 -6.90837e-05)
(0.608588 0.000120764 -0.000105415)
(0.607761 0.000132711 -5.51953e-05)
(0.608615 0.000119754 -0.000109362)
(0.607734 0.000119287 -5.91814e-05)
(0.608589 0.000137938 -0.000105724)
(0.607738 0.000115221 -4.03274e-05)
(0.608548 0.000125039 -0.000133894)
(0.607684 0.000132312 -2.07842e-05)
(0.608557 0.000116262 -0.00011497)
(0.607579 0.00012927 -6.96726e-05)
(0.608554 0.000129161 -6.46165e-05)
(0.607545 0.000116404 -8.73241e-05)
(0.60843 0.000134501 -9.00027e-05)
(0.607611 0.000118215 -4.2307e-05)
(0.608281 0.00012838 -0.00013266)
(0.607609 0.000130037 -1.62292e-05)
(0.608274 0.000121159 -0.000145735)
(0.607527 0.00012356 -3.11007e-05)
(0.608242 0.000138195 -0.000102967)
(0.607569 0.000111948 -9.27116e-05)
(0.608155 0.000132052 -7.21181e-05)
(0.60758 0.00014093 -7.74051e-05)
(0.608225 9.56046e-05 -0.000120623)
(0.69419 0.000198249 -1.73683e-05)
(0.695055 0.000144123 -0.000105308)
(0.694052 0.00016024 -1.95632e-05)
(0.695142 0.000179318 -0.000120937)
(0.69406 0.000145651 -4.3776e-06)
(0.695128 0.000172735 -0.000124072)
(0.694178 0.000158586 -2.37338e-05)
(0.69506 0.00016892 -0.000106111)
(0.694319 0.000156884 -3.07446e-05)
(0.695059 0.000169558 -0.000132678)
(0.694355 0.000159719 2.82748e-06)
(0.695146 0.000164405 -0.000146073)
(0.694378 0.00017035 -3.55477e-05)
(0.695201 0.00015525 -8.03178e-05)
(0.694446 0.00017016 -0.000100614)
(0.695193 0.000163209 -5.96149e-05)
(0.694528 0.000164989 -7.49751e-05)
(0.695214 0.000160327 -0.000103206)
(0.694513 0.000173484 -4.83807e-05)
(0.695302 0.000157577 -0.000102135)
(0.694472 0.000158932 -5.43165e-05)
(0.695313 0.000180981 -0.000118277)
(0.6945 0.000150963 -8.83966e-06)
(0.695286 0.000166388 -0.000146831)
(0.694451 0.000172876 -2.2487e-05)
(0.695344 0.000153753 -7.91871e-05)
(0.694328 0.000168039 -8.97946e-05)
(0.695325 0.000169881 -4.19349e-05)
(0.694386 0.000154244 -7.42792e-05)
(0.695088 0.000170727 -7.97042e-05)
(0.694534 0.000158655 -2.70775e-05)
(0.694921 0.000166597 -0.000123032)
(0.694474 0.000163874 2.1339e-05)
(0.694961 0.000162271 -0.00014227)
(0.694367 0.000159543 -1.30699e-05)
(0.694879 0.000173192 -5.38403e-05)
(0.694433 0.000150257 -9.64472e-05)
(0.694754 0.000168642 -3.36617e-05)
(0.694404 0.000178198 -4.94395e-05)
(0.694859 0.000128055 -9.76887e-05)
(0.775312 0.000236374 3.8405e-05)
(0.776233 0.000185797 -9.92105e-05)
(0.775097 0.00019024 6.43558e-05)
(0.776287 0.000223588 -0.000120928)
(0.775172 0.000180899 5.88226e-05)
(0.776115 0.000204876 -7.49357e-05)
(0.7754 0.000203217 -2.25238e-06)
(0.775973 0.000203214 -5.46884e-05)
(0.775495 0.000190994 2.06561e-05)
(0.776041 0.000213608 -0.000118926)
(0.775464 0.000195058 4.27122e-05)
(0.776116 0.000198471 -7.36973e-05)
(0.775537 0.000220447 -7.90449e-05)
(0.776108 0.000183317 2.28531e-05)
(0.775648 0.000216811 -0.000120521)
(0.776109 0.000203615 -3.47795e-05)
(0.775707 0.000202602 -3.47056e-05)
(0.776207 0.0002057 -0.000105819)
(0.775639 0.000214096 -2.45098e-05)
(0.776378 0.000200688 -0.000102661)
(0.775589 0.000200344 -1.70123e-05)
(0.776404 0.000226099 -0.000138441)
(0.775659 0.000192674 1.04163e-05)
(0.776393 0.000210942 -0.000118659)
(0.775626 0.000213931 -5.64219e-05)
(0.776463 0.000200149 -3.76233e-05)
(0.775604 0.000211088 -0.000101478)
(0.776317 0.000207342 -2.09083e-05)
(0.775822 0.000205666 -7.93765e-05)
(0.776021 0.000207328 -6.15342e-05)
(0.775946 0.000198214 1.27955e-06)
(0.775963 0.000218442 -0.000153824)
(0.775797 0.000196027 7.81942e-05)
(0.77602 0.000203926 -0.000126667)
(0.775721 0.000206685 -3.22788e-05)
(0.775882 0.00020591 2.21367e-05)
(0.775783 0.000192887 -0.000105406)
(0.775773 0.000209345 1.46711e-06)
(0.775662 0.000215014 -1.0182e-05)
(0.77596 0.000166302 -7.49429e-05)
(0.848054 0.000267019 0.000133018)
(0.849103 0.000228917 -0.000124069)
(0.847908 0.000230196 0.000139038)
(0.848951 0.000250614 -6.95059e-05)
(0.848139 0.000231457 6.38321e-05)
(0.848642 0.000229218 2.90079e-05)
(0.848333 0.000242306 3.30578e-05)
(0.848578 0.00024177 -3.66499e-07)
(0.848299 0.000220688 8.76588e-05)
(0.848656 0.000246909 -2.93337e-05)
(0.848312 0.000240017 1.97187e-05)
(0.848617 0.000219597 9.5963e-05)
(0.848434 0.000264579 -0.000101447)
(0.848588 0.000215889 0.000100314)
(0.848482 0.000247825 -3.68687e-05)
(0.848677 0.000249667 -4.40839e-05)
(0.848448 0.000231361 5.75797e-05)
(0.848865 0.000247829 -8.7674e-05)
(0.848332 0.000250696 3.26638e-05)
(0.849062 0.000239675 -9.21118e-05)
(0.848345 0.000243485 2.3e-05)
(0.849072 0.000268414 -0.00010555)
(0.848493 0.000230907 1.98796e-06)
(0.84902 0.000256412 -5.15089e-05)
(0.848576 0.00025633 -8.66774e-05)
(0.848982 0.00023885 1.26445e-05)
(0.848741 0.000266207 -0.00012811)
(0.848777 0.000240151 1.3355e-05)
(0.848954 0.000250907 -5.44271e-05)
(0.848627 0.000258586 -0.000111177)
(0.848952 0.000229344 9.16323e-05)
(0.848699 0.000271805 -0.000201083)
(0.848814 0.000241204 7.45918e-05)
(0.848716 0.000233721 -4.15144e-05)
(0.848782 0.00026143 -0.000106334)
(0.848585 0.000243049 9.00567e-05)
(0.848781 0.000229678 -9.70033e-05)
(0.84857 0.000262262 -9.61896e-06)
(0.848508 0.000240921 5.47917e-05)
(0.848853 0.000217598 -0.000104386)
(0.910283 0.000313823 0.000166053)
(0.91117 0.000253684 -0.000100356)
(0.910303 0.000290134 9.8081e-05)
(0.910862 0.000264211 3.6127e-05)
(0.910504 0.000273274 2.92847e-05)
(0.910579 0.000261177 9.80215e-05)
(0.910566 0.000280583 6.16723e-05)
(0.910562 0.000275955 8.55296e-05)
(0.910512 0.000250923 9.683e-05)
(0.910521 0.000265466 0.000132225)
(0.910561 0.000277133 -5.16836e-08)
(0.910452 0.00025414 0.000199133)
(0.910625 0.000289242 7.97635e-06)
(0.91048 0.000248022 0.000114964)
(0.91051 0.000259161 0.000124696)
(0.910612 0.000287678 -3.01285e-05)
(0.910413 0.000260376 0.000144011)
(0.910807 0.000279523 -1.97167e-05)
(0.910323 0.000276296 0.000110726)
(0.910892 0.000258803 -7.61056e-06)
(0.910427 0.000279753 5.26097e-05)
(0.91083 0.000304869 -1.64732e-05)
(0.910756 0.000269145 -1.04206e-05)
(0.9107 0.000282799 6.46435e-05)
(0.910943 0.000291154 -9.13806e-05)
(0.910636 0.000271317 6.85695e-05)
(0.911103 0.00031158 -9.3582e-05)
(0.910625 0.00028375 -3.45547e-05)
(0.911189 0.000277882 6.92875e-05)
(0.910626 0.000296917 -0.000166207)
(0.911136 0.00026836 0.000127398)
(0.910734 0.000311364 -0.000134614)
(0.911117 0.000294277 -2.29311e-05)
(0.910772 0.00026094 7.16679e-05)
(0.911076 0.000294241 -0.000131947)
(0.910745 0.00029496 7.6184e-05)
(0.910981 0.000252032 -2.2222e-05)
(0.910882 0.000326439 -9.17963e-05)
(0.910658 0.000258073 0.000144548)
(0.911116 0.000255158 -0.000160505)
(0.96049 0.000339258 0.000117696)
(0.960943 0.000256516 -3.51929e-05)
(0.960552 0.000357774 -2.56665e-05)
(0.960726 0.000299091 8.63854e-05)
(0.960684 0.000294863 1.11308e-05)
(0.960432 0.000265032 0.000146962)
(0.960616 0.000306288 2.17212e-05)
(0.960394 0.0003277 0.000115757)
(0.960625 0.000290637 8.01277e-05)
(0.960325 0.00028192 0.000230923)
(0.960565 0.00027032 9.75861e-05)
(0.960223 0.000282458 0.000186239)
(0.960558 0.000325518 0.000113979)
(0.960374 0.000292858 0.000115767)
(0.960398 0.000259677 0.000272099)
(0.960385 0.00028311 7.95197e-05)
(0.960219 0.000275405 0.000193206)
(0.960452 0.000315517 4.9145e-05)
(0.960263 0.000316795 0.000150556)
(0.960386 0.000252186 0.000154202)
(0.960352 0.000280086 0.000120389)
(0.96014 0.000313222 0.000116204)
(0.960715 0.000310944 -1.0539e-05)
(0.960148 0.000320811 0.000149847)
(0.96089 0.000293307 2.96152e-05)
(0.960184 0.00027339 0.000107185)
(0.960873 0.000330561 3.30162e-05)
(0.960334 0.000329165 -9.4636e-05)
(0.960989 0.000322047 0.00012863)
(0.960426 0.00030506 -7.29823e-05)
(0.960925 0.000272516 0.000111927)
(0.960459 0.000334781 -1.88497e-05)
(0.960968 0.000343151 -8.56752e-05)
(0.960659 0.000314126 8.57337e-05)
(0.960955 0.000296165 -2.42593e-05)
(0.96072 0.000316981 4.0185e-05)
(0.960813 0.000260417 7.85985e-05)
(0.960903 0.000385388 -0.000153339)
(0.96073 0.00030413 0.000165341)
(0.96106 0.00025466 -9.94241e-05)
(0.998061 0.000348919 0.000156387)
(0.998088 0.000190173 0.000130727)
(0.997928 0.000352397 -9.51179e-05)
(0.997934 0.000350773 -1.91471e-06)
(0.998195 0.000356613 -5.2833e-05)
(0.997828 0.000265215 0.000220585)
(0.998023 0.00025445 8.10522e-05)
(0.997604 0.000328206 6.02132e-05)
(0.997983 0.000342688 -3.07754e-05)
(0.997701 0.000353804 0.00015651)
(0.998007 0.000262412 0.000239789)
(0.997517 0.000238501 0.000258533)
(0.997776 0.000310217 0.00014881)
(0.997628 0.000351016 3.2338e-05)
(0.997836 0.00032106 0.000259953)
(0.997713 0.00027283 0.000253967)
(0.997625 0.00022522 0.000318939)
(0.997459 0.000290229 0.000118598)
(0.997644 0.000377323 6.1193e-05)
(0.99744 0.000299117 0.00021053)
(0.997764 0.000273578 0.000251267)
(0.99706 0.000255809 0.000303025)
(0.997722 0.000285757 6.19363e-05)
(0.997082 0.000377685 9.99344e-05)
(0.997948 0.000336919 0.000131577)
(0.997332 0.000260993 0.000238433)
(0.997825 0.000277414 0.000240617)
(0.997346 0.000307107 -4.65556e-05)
(0.99792 0.000378338 4.77707e-05)
(0.9976 0.000361587 -3.12868e-06)
(0.998023 0.000259201 0.000202033)
(0.997527 0.000285969 0.000144546)
(0.997868 0.000323433 -4.8282e-05)
(0.997739 0.000379982 -2.82669e-05)
(0.998052 0.000350343 2.35973e-05)
(0.997964 0.000320449 0.000124081)
(0.99792 0.000206964 0.000222308)
(0.997917 0.000371783 -0.000105462)
(0.998009 0.000370646 5.68048e-05)
(0.998231 0.000295256 -1.45445e-05)
(1.0235 0.000422471 9.71699e-05)
(1.02346 0.00016142 0.000382894)
(1.02331 0.000258923 0.000147541)
(1.02312 0.000290506 -2.0193e-05)
(1.02348 0.000392382 -0.00026173)
(1.02331 0.000335326 0.000120114)
(1.02356 0.000227096 0.000268192)
(1.02305 0.000245222 0.000229009)
(1.02327 0.000283041 -8.82126e-05)
(1.02308 0.000404224 -0.000133434)
(1.02351 0.000332005 0.000124532)
(1.02312 0.000226663 0.000410037)
(1.02322 0.000220578 0.000354803)
(1.02291 0.000295203 4.11853e-06)
(1.02323 0.000370953 -3.2839e-06)
(1.0232 0.000340939 0.000177999)
(1.02332 0.000215093 0.000503626)
(1.02289 0.000187627 0.000384303)
(1.02307 0.000326826 2.71883e-05)
(1.0228 0.000339388 3.8034e-08)
(1.0233 0.000343237 0.000175306)
(1.02268 0.000244159 0.00049722)
(1.02298 0.000182604 0.000329036)
(1.02233 0.000331781 7.7823e-05)
(1.02299 0.000376546 -2.03154e-05)
(1.02273 0.00032171 0.000208826)
(1.02307 0.000259096 0.00050338)
(1.02266 0.000203604 0.00026154)
(1.02291 0.000320693 3.89526e-05)
(1.0228 0.000404948 -0.00015809)
(1.02326 0.000321355 0.000148736)
(1.02293 0.000267983 0.000379209)
(1.02298 0.000220363 0.00023077)
(1.0228 0.000327725 -3.87455e-05)
(1.0231 0.000391527 -0.000170947)
(1.02323 0.000394194 6.23817e-05)
(1.02326 0.000190518 0.000412311)
(1.02302 0.00027473 0.000184818)
(1.02313 0.000328451 1.02023e-05)
(1.02324 0.000326508 -0.000129821)
(1.03861 0.000437738 -0.000167194)
(1.03873 0.000185584 0.000322158)
(1.03867 0.000221781 0.000446566)
(1.03841 0.000192793 0.000288447)
(1.03857 0.000313691 -0.000280028)
(1.03855 0.000346263 -0.000171058)
(1.03888 0.000242454 0.000188313)
(1.03855 0.000213082 0.000475952)
(1.03858 0.000179854 0.000188221)
(1.03836 0.000334533 -0.000222827)
(1.03875 0.000340033 -0.000219149)
(1.03861 0.000256687 0.000249245)
(1.03872 0.000189209 0.000564193)
(1.03833 0.00019726 0.000272402)
(1.03848 0.00030533 -0.000100342)
(1.03852 0.00034942 -0.0001678)
(1.03878 0.000256168 0.000344522)
(1.03848 0.000147488 0.000633641)
(1.03852 0.000230501 0.000303641)
(1.03824 0.000268753 -7.83652e-05)
(1.03862 0.000352596 -0.000148697)
(1.03839 0.000286322 0.000353257)
(1.03852 0.000142232 0.000570544)
(1.03793 0.000243354 0.000327321)
(1.0382 0.000313293 -9.23033e-05)
(1.03812 0.000333576 -9.62013e-05)
(1.0384 0.000297215 0.000409913)
(1.03821 0.000163645 0.00057234)
(1.03819 0.000221716 0.000338615)
(1.03805 0.000334075 -0.000182077)
(1.03844 0.000326345 -0.000145321)
(1.03838 0.000301387 0.000301667)
(1.03838 0.000178413 0.000516299)
(1.03811 0.000231077 0.000277922)
(1.03821 0.000316073 -0.000207563)
(1.0384 0.000407687 -0.000225441)
(1.0386 0.000223744 0.000292212)
(1.03836 0.000234427 0.000473565)
(1.03837 0.000244142 0.000268197)
(1.03825 0.000254162 -0.000154629)
(1.04641 0.000375974 -0.000252432)
(1.04656 0.000162534 7.71503e-05)
(1.04658 0.000206353 0.000403085)
(1.04645 0.000143942 0.000516747)
(1.04644 0.000219831 -4.05689e-05)
(1.04641 0.000283481 -0.000241317)
(1.04666 0.000206089 -3.97584e-05)
(1.04656 0.000200433 0.000422547)
(1.04655 0.000121624 0.000420003)
(1.04638 0.000244445 -1.31457e-05)
(1.04657 0.000268389 -0.000307968)
(1.04653 0.000227496 -3.94503e-05)
(1.04669 0.000175182 0.000453073)
(1.04644 0.000142015 0.000460003)
(1.04645 0.000220494 8.13404e-05)
(1.04645 0.000275896 -0.000284889)
(1.04664 0.000240314 2.58397e-05)
(1.04656 0.000131856 0.000519546)
(1.04655 0.000177007 0.00049687)
(1.04638 0.000180536 0.000103653)
(1.04651 0.000277436 -0.000260116)
(1.04649 0.000270931 5.494e-05)
(1.04661 0.000125335 0.00047195)
(1.04625 0.00019294 0.000503502)
(1.04629 0.00023102 7.11292e-05)
(1.04623 0.000268028 -0.000224545)
(1.04637 0.000282648 0.000105963)
(1.04637 0.000151767 0.000502287)
(1.04631 0.000169453 0.000545723)
(1.04616 0.000246709 3.49943e-05)
(1.04637 0.000250707 -0.000243825)
(1.04639 0.000278205 4.38739e-05)
(1.04645 0.000160308 0.000453932)
(1.04627 0.00017897 0.000502143)
(1.04621 0.000222056 1.94853e-05)
(1.04631 0.000339213 -0.000298669)
(1.04651 0.000201953 2.23783e-05)
(1.04639 0.000213188 0.000418574)
(1.04643 0.000199409 0.000467222)
(1.04621 0.000166942 3.68938e-05)
(1.04982 0.000294919 -0.000151255)
(1.04991 0.000104352 -2.05512e-05)
(1.0499 0.000174604 0.000215584)
(1.04991 0.000120572 0.000455355)
(1.04987 0.000148651 0.000108912)
(1.04984 0.000207662 -0.000116961)
(1.04994 0.000135596 -0.000108473)
(1.04993 0.000172956 0.000242094)
(1.04993 8.89715e-05 0.000381071)
(1.04987 0.000176866 0.000130668)
(1.04993 0.000182393 -0.000172424)
(1.04988 0.000159355 -0.000124321)
(1.05002 0.000144322 0.000242796)
(1.0499 0.000106961 0.000379552)
(1.0499 0.000156897 0.000193038)
(1.04989 0.000184834 -0.000177004)
(1.04994 0.000182319 -8.93006e-05)
(1.04995 0.00010193 0.000282608)
(1.04994 0.000146045 0.000408249)
(1.0499 0.000115056 0.000210294)
(1.0499 0.000183627 -0.000160347)
(1.04991 0.000211953 -5.61812e-05)
(1.05 9.25018e-05 0.000256848)
(1.04984 0.000159723 0.000421378)
(1.04984 0.000164409 0.000174323)
(1.04981 0.000181548 -0.000140948)
(1.04981 0.00022314 -3.09127e-05)
(1.04987 0.000124508 0.000276944)
(1.04986 0.000138725 0.00046035)
(1.04975 0.000181655 0.000163129)
(1.04985 0.000159163 -0.000139063)
(1.04983 0.000211835 -5.52396e-05)
(1.04989 0.000126165 0.000256185)
(1.04984 0.00014796 0.000433465)
(1.04976 0.000149498 0.00016028)
(1.04981 0.000250749 -0.000168931)
(1.04989 0.000140147 -6.67585e-05)
(1.04983 0.000173738 0.000229919)
(1.04992 0.000171917 0.000407825)
(1.04975 0.00010011 0.000154855)
(1.05103 0.000226891 -5.08138e-05)
(1.05106 5.00921e-05 6.23664e-06)
(1.05102 0.000133416 8.90795e-05)
(1.05108 9.88268e-05 0.000288237)
(1.05105 9.43298e-05 0.000101309)
(1.05103 0.000149549 -4.38742e-06)
(1.05105 7.23622e-05 -6.02477e-05)
(1.05106 0.000137384 0.000121761)
(1.05106 5.99994e-05 0.000233512)
(1.05106 0.000128004 0.000122496)
(1.05109 0.000117046 -4.46937e-05)
(1.05101 9.67195e-05 -7.13571e-05)
(1.05111 0.000107104 0.000118049)
(1.05105 7.34405e-05 0.000210787)
(1.05107 0.000111027 0.000163624)
(1.05107 0.000112651 -6.70114e-05)
(1.05104 0.000125802 -5.11383e-05)
(1.05108 6.35975e-05 0.000134809)
(1.05105 0.000117415 0.000226443)
(1.05109 6.92716e-05 0.000175924)
(1.05105 0.000110177 -5.93816e-05)
(1.05104 0.000152743 -2.53918e-05)
(1.05111 5.16345e-05 0.000121236)
(1.05104 0.000126325 0.000249934)
(1.05105 0.000111618 0.000148715)
(1.05106 0.000110715 -4.44795e-05)
(1.051 0.000159819 -1.62044e-05)
(1.05105 8.57622e-05 0.000124509)
(1.05107 0.000105985 0.000275277)
(1.051 0.000132467 0.000141628)
(1.05107 8.87882e-05 -3.3939e-05)
(1.05101 0.00014675 -2.37884e-05)
(1.05105 8.409e-05 0.000126031)
(1.05106 0.000115276 0.000260203)
(1.05101 9.47007e-05 0.00014719)
(1.05104 0.000178318 -5.05851e-05)
(1.05105 8.0822e-05 -2.16376e-05)
(1.051 0.000125985 0.000104912)
(1.0511 0.00014175 0.00025187)
(1.051 4.82463e-05 0.000137512)
(1.05135 0.000174048 -8.38997e-06)
(1.05136 1.25884e-05 4.23428e-05)
(1.05131 9.75523e-05 3.08521e-05)
(1.05138 7.97646e-05 0.000162801)
(1.05136 5.09055e-05 4.82762e-05)
(1.05134 0.000109088 4.13974e-05)
(1.05134 2.89757e-05 -1.31024e-05)
(1.05135 0.000108066 6.61727e-05)
(1.05134 3.58306e-05 0.000119479)
(1.05137 9.13475e-05 6.71966e-05)
(1.05138 7.21101e-05 1.17856e-05)
(1.05131 5.29863e-05 -1.85903e-05)
(1.05139 7.89436e-05 6.65255e-05)
(1.05134 4.51959e-05 8.97829e-05)
(1.05136 7.71084e-05 0.000100415)
(1.05137 6.12796e-05 -1.93241e-05)
(1.05133 8.63922e-05 -1.48422e-06)
(1.05138 3.16508e-05 7.15366e-05)
(1.05133 9.38024e-05 9.55672e-05)
(1.05139 3.66488e-05 0.000110649)
(1.05135 5.93898e-05 -1.72713e-05)
(1.05133 0.000109264 1.68576e-05)
(1.05139 1.8959e-05 6.17102e-05)
(1.05135 9.81729e-05 0.000123177)
(1.05135 6.99499e-05 9.12521e-05)
(1.05139 6.01206e-05 -2.61723e-06)
(1.05131 0.000109778 2.10115e-05)
(1.05135 5.28263e-05 5.58606e-05)
(1.05138 7.50284e-05 0.000140289)
(1.05132 9.30181e-05 8.34677e-05)
(1.05139 4.14019e-05 1.07093e-05)
(1.05133 9.7517e-05 1.64891e-05)
(1.05134 5.1533e-05 6.74384e-05)
(1.05138 8.4546e-05 0.000129653)
(1.05133 5.24981e-05 9.25675e-05)
(1.05136 0.000124596 -2.64766e-06)
(1.05135 3.82245e-05 2.78399e-05)
(1.05131 8.66145e-05 4.68409e-05)
(1.05139 0.000113569 0.00013329)
(1.05133 7.22994e-06 8.36012e-05)
(1.05141 0.000135722 -8.56178e-07)
(1.05142 -8.63784e-06 5.34269e-05)
(1.05138 6.91902e-05 2.20412e-06)
(1.05143 6.48862e-05 9.63511e-05)
(1.05142 1.85733e-05 1.09702e-05)
(1.0514 8.3642e-05 4.89971e-05)
(1.05141 3.24786e-06 3.07132e-06)
(1.05142 8.58772e-05 3.7738e-05)
(1.05139 1.72248e-05 5.969e-05)
(1.05143 6.50246e-05 2.66653e-05)
(1.05143 4.34116e-05 2.74008e-05)
(1.05137 2.70366e-05 -9.31872e-07)
(1.05145 5.98733e-05 4.29363e-05)
(1.05139 2.34587e-05 2.86113e-05)
(1.05142 5.4583e-05 5.93281e-05)
(1.05143 2.80467e-05 -7.13967e-06)
(1.05138 6.40144e-05 1.75429e-05)
(1.05144 7.69922e-06 4.37178e-05)
(1.05139 7.60744e-05 2.83651e-05)
(1.05144 1.47285e-05 7.05547e-05)
(1.05142 2.90521e-05 -8.73659e-06)
(1.05138 8.16652e-05 3.1893e-05)
(1.05144 -3.5794e-06 3.40909e-05)
(1.05141 7.66905e-05 5.53782e-05)
(1.0514 3.92425e-05 5.44697e-05)
(1.05145 2.99764e-05 5.20552e-06)
(1.05138 7.45688e-05 3.60622e-05)
(1.05141 3.02238e-05 2.53366e-05)
(1.05145 4.92769e-05 6.98298e-05)
(1.05138 6.27148e-05 4.6539e-05)
(1.05145 1.53028e-05 1.89531e-05)
(1.05139 6.27471e-05 2.9533e-05)
(1.0514 3.11907e-05 3.99461e-05)
(1.05143 5.84105e-05 5.88851e-05)
(1.0514 2.29064e-05 5.66812e-05)
(1.05142 8.87073e-05 4.63059e-06)
(1.05141 1.15989e-05 4.58212e-05)