/*--------------------------------*- C++ -*----------------------------------*\
  =========                 |
  \\      /  F ield         | OpenFOAM: The Open Source CFD Toolbox
   \\    /   O peration     | Website:  https://openfoam.org
    \\  /    A nd           | Version:  10
     \\/     M anipulation  |
\*---------------------------------------------------------------------------*/
FoamFile
{
    format      ascii;
    class       volScalarField;
    location    "45";
    object      p;
}
// * * * * * * * * * * * * * * * * * * * * * * * * * * * * * * * * * * * * * //

dimensions      [0 2 -2 0 0 0 0];

internalField   nonuniform List<scalar> 
25600
(
-3.82221e-06
-1.23278e-05
4.62583e-06
-1.58255e-05
3.01305e-07
-4.43903e-06
-1.3417e-05
5.04804e-06
-1.48619e-05
-1.29723e-06
-3.74398e-06
-1.34472e-05
4.04239e-06
-1.19202e-05
-7.03114e-06
2.58794e-06
-1.61023e-05
4.45647e-07
-3.842e-06
-1.48589e-05
5.88269e-06
-1.46526e-05
-1.93075e-06
-4.35232e-06
-9.6679e-06
8.532e-08
-1.27216e-05
3.20442e-06
-1.31983e-05
-3.19644e-06
4.66421e-08
-1.7577e-05
6.65392e-06
-1.25775e-05
-6.21986e-06
1.21394e-06
-1.49648e-05
3.53385e-06
-1.23308e-05
-2.47474e-06
-3.74415e-06
-1.23776e-05
4.68469e-06
-1.58279e-05
2.81785e-07
-4.35442e-06
-1.34773e-05
5.11075e-06
-1.48626e-05
-1.31735e-06
-3.66342e-06
-1.34996e-05
4.09225e-06
-1.18994e-05
-7.07569e-06
2.67756e-06
-1.6131e-05
4.45059e-07
-3.76687e-06
-1.49162e-05
5.93971e-06
-1.46438e-05
-1.95557e-06
-4.28268e-06
-9.70569e-06
1.47227e-07
-1.27442e-05
3.23582e-06
-1.31765e-05
-3.23424e-06
1.43498e-07
-1.76385e-05
6.69758e-06
-1.25428e-05
-6.27538e-06
1.31049e-06
-1.50093e-05
3.5693e-06
-1.23071e-05
-2.5046e-06
-3.63661e-06
-1.24879e-05
4.81511e-06
-1.58813e-05
2.78013e-07
-4.24325e-06
-1.3606e-05
5.24985e-06
-1.49124e-05
-1.32717e-06
-3.5527e-06
-1.36174e-05
4.20659e-06
-1.19043e-05
-7.14106e-06
2.82277e-06
-1.62218e-05
4.68932e-07
-3.66709e-06
-1.50432e-05
6.07557e-06
-1.46826e-05
-1.96904e-06
-4.1933e-06
-9.78443e-06
2.53427e-07
-1.28197e-05
3.32187e-06
-1.31887e-05
-3.27665e-06
2.92305e-07
-1.77857e-05
6.812e-06
-1.25356e-05
-6.35164e-06
1.46107e-06
-1.51221e-05
3.66126e-06
-1.2312e-05
-2.53421e-06
-3.48825e-06
-1.26677e-05
5.02023e-06
-1.59906e-05
2.84495e-07
-4.09675e-06
-1.38125e-05
5.46947e-06
-1.50188e-05
-1.32955e-06
-3.40366e-06
-1.38082e-05
4.38906e-06
-1.19397e-05
-7.23384e-06
3.03447e-06
-1.63812e-05
5.17539e-07
-3.53823e-06
-1.5245e-05
6.29154e-06
-1.47736e-05
-1.97654e-06
-4.0774e-06
-9.91313e-06
4.1465e-07
-1.29564e-05
3.46506e-06
-1.32353e-05
-3.33215e-06
5.05668e-07
-1.80284e-05
7.02089e-06
-1.25573e-05
-6.4615e-06
1.68103e-06
-1.53132e-05
3.81293e-06
-1.23456e-05
-2.57397e-06
-3.30225e-06
-1.29116e-05
5.29534e-06
-1.61544e-05
3.05943e-07
-3.92181e-06
-1.40878e-05
5.76379e-06
-1.51844e-05
-1.31634e-06
-3.22264e-06
-1.40648e-05
4.63416e-06
-1.20076e-05
-7.34588e-06
3.30552e-06
-1.66041e-05
5.94277e-07
-3.38745e-06
-1.55121e-05
6.58154e-06
-1.49195e-05
-1.96974e-06
-3.94231e-06
-1.0085e-05
6.30965e-07
-1.31566e-05
3.66578e-06
-1.33198e-05
-3.39421e-06
7.78903e-07
-1.83614e-05
7.28758e-06
-1.26118e-05
-6.59861e-06
1.96643e-06
-1.55796e-05
4.01966e-06
-1.24092e-05
-2.61975e-06
-3.08851e-06
-1.32059e-05
5.62728e-06
-1.63656e-05
3.47582e-07
-3.73135e-06
-1.44145e-05
6.11862e-06
-1.54058e-05
-1.28318e-06
-3.02283e-06
-1.43721e-05
4.93022e-06
-1.21069e-05
-7.46532e-06
3.61822e-06
-1.68774e-05
6.96571e-07
-3.22825e-06
-1.58263e-05
6.93318e-06
-1.51194e-05
-1.9365e-06
-3.80163e-06
-1.02885e-05
8.94083e-07
-1.34164e-05
3.92175e-06
-1.34451e-05
-3.45302e-06
1.09752e-06
-1.87685e-05
7.61683e-06
-1.27016e-05
-6.74976e-06
2.30177e-06
-1.5909e-05
4.2745e-06
-1.2501e-05
-2.66796e-06
-2.86009e-06
-1.35304e-05
5.99413e-06
-1.6606e-05
4.04869e-07
-3.54178e-06
-1.47667e-05
6.50773e-06
-1.56707e-05
-1.22686e-06
-2.82215e-06
-1.47053e-05
5.25573e-06
-1.2231e-05
-7.57802e-06
3.94517e-06
-1.71776e-05
8.16822e-07
-3.07716e-06
-1.61597e-05
7.32116e-06
-1.53631e-05
-1.87129e-06
-3.67412e-06
-1.05052e-05
1.18864e-06
-1.37255e-05
4.22344e-06
-1.36088e-05
-3.49982e-06
1.43957e-06
-1.92217e-05
7.98711e-06
-1.28234e-05
-6.90226e-06
2.66472e-06
-1.628e-05
4.56192e-06
-1.26143e-05
-2.71621e-06
-2.62807e-06
-1.38545e-05
6.35941e-06
-1.68456e-05
4.67165e-07
-3.37586e-06
-1.51081e-05
6.8934e-06
-1.59589e-05
-1.14654e-06
-2.64119e-06
-1.50307e-05
5.57848e-06
-1.23715e-05
-7.6675e-06
4.2486e-06
-1.74685e-05
9.40921e-07
-2.95503e-06
-1.64722e-05
7.70807e-06
-1.56333e-05
-1.76727e-06
-3.57885e-06
-1.07138e-05
1.49327e-06
-1.40633e-05
4.54836e-06
-1.37989e-05
-3.52718e-06
1.77553e-06
-1.96816e-05
8.36457e-06
-1.29665e-05
-7.04419e-06
3.02989e-06
-1.66657e-05
4.85809e-06
-1.27327e-05
-2.77003e-06
-2.42217e-06
-1.41318e-05
6.68458e-06
-1.70544e-05
5.27182e-07
-3.25277e-06
-1.54028e-05
7.23154e-06
-1.62376e-05
-1.05052e-06
-2.50119e-06
-1.53075e-05
5.8597e-06
-1.25063e-05
-7.71515e-06
4.49439e-06
-1.77134e-05
1.05337e-06
-2.8763e-06
-1.67271e-05
8.04867e-06
-1.58936e-05
-1.63501e-06
-3.52956e-06
-1.0878e-05
1.76632e-06
-1.43935e-05
4.87148e-06
-1.40024e-05
-3.54218e-06
2.07406e-06
-2.00973e-05
8.69219e-06
-1.31e-05
-7.17283e-06
3.36155e-06
-1.70171e-05
5.11488e-06
-1.28252e-05
-2.83217e-06
-2.26067e-06
-1.43431e-05
6.94722e-06
-1.72009e-05
5.64191e-07
-3.17497e-06
-1.56115e-05
7.46621e-06
-1.64671e-05
-9.51006e-07
-2.41887e-06
-1.55057e-05
6.05092e-06
-1.26021e-05
-7.71367e-06
4.65322e-06
-1.78513e-05
1.1223e-06
-2.85647e-06
-1.68685e-05
8.28681e-06
-1.61232e-05
-1.45315e-06
-3.57252e-06
-1.09695e-05
2.00086e-06
-1.47068e-05
5.17131e-06
-1.41941e-05
-3.53549e-06
2.28792e-06
-2.04093e-05
8.91694e-06
-1.32314e-05
-7.23277e-06
3.60421e-06
-1.72964e-05
5.31672e-06
-1.28882e-05
-2.88299e-06
-2.11643e-06
-1.45004e-05
7.1638e-06
-1.7268e-05
5.35144e-07
-3.11808e-06
-1.57191e-05
7.56849e-06
-1.66154e-05
-8.83766e-07
-2.39327e-06
-1.56009e-05
6.12705e-06
-1.26375e-05
-7.67761e-06
4.74331e-06
-1.78901e-05
1.11878e-06
-2.84216e-06
-1.69509e-05
8.45243e-06
-1.62671e-05
-1.3164e-06
-3.62773e-06
-1.10259e-05
2.17305e-06
-1.4954e-05
5.42115e-06
-1.43614e-05
-3.53952e-06
2.45185e-06
-2.06554e-05
9.07008e-06
-1.3347e-05
-7.30537e-06
3.80068e-06
-1.75242e-05
5.47262e-06
-1.29342e-05
-2.94919e-06
-1.91064e-06
-1.46941e-05
7.15106e-06
-1.7134e-05
3.54772e-07
-2.9419e-06
-1.57477e-05
7.48575e-06
-1.65911e-05
-9.07281e-07
-2.37521e-06
-1.56406e-05
6.02978e-06
-1.24668e-05
-7.85783e-06
4.77793e-06
-1.77282e-05
8.7314e-07
-2.70573e-06
-1.69182e-05
8.36097e-06
-1.61929e-05
-1.2886e-06
-3.6863e-06
-1.10106e-05
2.27003e-06
-1.51442e-05
5.56217e-06
-1.43679e-05
-3.68365e-06
2.63797e-06
-2.08228e-05
9.01534e-06
-1.33223e-05
-7.42833e-06
3.99129e-06
-1.77182e-05
5.57491e-06
-1.29196e-05
-3.09477e-06
-1.49996e-06
-1.49575e-05
7.11246e-06
-1.6798e-05
-8.38183e-08
-2.60758e-06
-1.56799e-05
7.15254e-06
-1.6353e-05
-1.11421e-06
-2.21979e-06
-1.55251e-05
5.64808e-06
-1.2042e-05
-8.19328e-06
4.69535e-06
-1.72759e-05
2.9247e-07
-2.42756e-06
-1.68296e-05
8.05293e-06
-1.57932e-05
-1.4919e-06
-3.66754e-06
-1.10217e-05
2.31122e-06
-1.5139e-05
5.44088e-06
-1.41186e-05
-4.04322e-06
2.90005e-06
-2.08412e-05
8.66863e-06
-1.3106e-05
-7.71361e-06
4.30699e-06
-1.79076e-05
5.60839e-06
-1.28093e-05
-3.41435e-06
-7.74475e-07
-1.54597e-05
7.07045e-06
-1.59507e-05
-9.60074e-07
-2.07657e-06
-1.56328e-05
6.57317e-06
-1.56756e-05
-1.58227e-06
-2.07993e-06
-1.52859e-05
4.92808e-06
-1.11072e-05
-8.73318e-06
4.39559e-06
-1.64024e-05
-7.83646e-07
-1.79444e-06
-1.66255e-05
7.24327e-06
-1.49454e-05
-2.04033e-06
-3.42963e-06
-1.10027e-05
2.1319e-06
-1.49012e-05
4.97739e-06
-1.33861e-05
-4.70529e-06
3.17858e-06
-2.0722e-05
8.41151e-06
-1.24389e-05
-8.3325e-06
4.77388e-06
-1.81808e-05
5.56136e-06
-1.23341e-05
-4.12688e-06
4.96972e-07
-1.60391e-05
6.69675e-06
-1.51052e-05
-2.32809e-06
-1.07484e-06
-1.54592e-05
5.46438e-06
-1.47234e-05
-2.28043e-06
-1.71055e-06
-1.47922e-05
3.66546e-06
-9.87454e-06
-9.36969e-06
4.05607e-06
-1.49489e-05
-2.56084e-06
-9.7866e-07
-1.61604e-05
6.02791e-06
-1.34275e-05
-3.20142e-06
-3.16884e-06
-1.0794e-05
1.8222e-06
-1.42344e-05
3.90966e-06
-1.23308e-05
-5.61385e-06
3.63785e-06
-2.02499e-05
7.42928e-06
-1.14302e-05
-9.27857e-06
5.5717e-06
-1.83332e-05
5.06703e-06
-1.15426e-05
-5.28283e-06
1.92418e-06
-1.65155e-05
6.20825e-06
-1.35452e-05
-4.41169e-06
3.72125e-09
-1.50342e-05
4.36914e-06
-1.32482e-05
-3.45525e-06
-1.48332e-06
-1.39537e-05
2.23183e-06
-8.19321e-06
-1.03154e-05
3.27432e-06
-1.28362e-05
-4.61354e-06
2.64102e-08
-1.5593e-05
4.0318e-06
-1.12093e-05
-4.53704e-06
-2.78909e-06
-1.06059e-05
9.47218e-07
-1.29873e-05
2.60124e-06
-1.08118e-05
-6.9838e-06
3.82285e-06
-1.92579e-05
6.11071e-06
-9.64814e-06
-1.08485e-05
6.29632e-06
-1.8191e-05
4.40972e-06
-1.01617e-05
-7.14327e-06
3.56167e-06
-1.70454e-05
5.21403e-06
-1.13407e-05
-6.77206e-06
1.26215e-06
-1.45907e-05
2.70667e-06
-1.12928e-05
-4.67254e-06
-1.23302e-06
-1.3047e-05
3.11407e-07
-6.09594e-06
-1.1118e-05
2.231e-06
-1.03881e-05
-7.15682e-06
1.17142e-06
-1.44802e-05
1.42555e-06
-8.59195e-06
-6.23957e-06
-2.34749e-06
-9.93693e-06
-3.42955e-07
-1.14688e-05
7.9453e-07
-8.94624e-06
-8.21412e-06
3.85086e-06
-1.80262e-05
4.14788e-06
-7.39412e-06
-1.24775e-05
7.05543e-06
-1.79737e-05
3.19207e-06
-8.18423e-06
-9.26285e-06
5.24887e-06
-1.73199e-05
3.78895e-06
-8.61066e-06
-9.47108e-06
2.55784e-06
-1.38461e-05
6.55064e-07
-9.0491e-06
-6.03564e-06
-1.03203e-06
-1.19144e-05
-1.86783e-06
-3.85356e-06
-1.1893e-05
9.33131e-07
-7.5443e-06
-9.94245e-06
2.22076e-06
-1.29887e-05
-1.72177e-06
-5.51053e-06
-8.12086e-06
-2.09048e-06
-8.92494e-06
-2.05904e-06
-9.50568e-06
-1.26713e-06
-7.00343e-06
-9.3785e-06
3.66843e-06
-1.63898e-05
1.74438e-06
-4.87444e-06
-1.42712e-05
7.73843e-06
-1.74075e-05
1.51309e-06
-5.72266e-06
-1.16978e-05
6.89218e-06
-1.73051e-05
1.89675e-06
-5.54353e-06
-1.23449e-05
3.83715e-06
-1.28365e-05
-1.78288e-06
-6.63541e-06
-7.42488e-06
-8.55831e-07
-1.06174e-05
-4.28864e-06
-1.59021e-06
-1.24911e-05
-5.43979e-07
-4.46596e-06
-1.28697e-05
3.06624e-06
-1.10411e-05
-5.27589e-06
-2.15954e-06
-1.00257e-05
-2.10296e-06
-7.48051e-06
-4.15254e-06
-7.23001e-06
-3.54634e-06
-5.14145e-06
-1.02661e-05
3.21252e-06
-1.4432e-05
-1.03309e-06
-2.24384e-06
-1.60218e-05
8.29878e-06
-1.65077e-05
-6.53198e-07
-2.95138e-06
-1.42762e-05
8.27948e-06
-1.6899e-05
-3.68025e-07
-2.22444e-06
-1.52936e-05
4.91484e-06
-1.1527e-05
-4.44147e-06
-4.15295e-06
-8.82292e-06
-7.83989e-07
-9.24335e-06
-6.71928e-06
6.11088e-07
-1.31082e-05
-2.2223e-06
-1.29531e-06
-1.56959e-05
3.62454e-06
-8.73694e-06
-9.18513e-06
1.36719e-06
-1.17772e-05
-2.41735e-06
-5.66709e-06
-6.67157e-06
-4.69296e-06
-5.8224e-06
-3.49792e-06
-1.08366e-05
2.33487e-06
-1.21704e-05
-3.96055e-06
3.80915e-07
-1.76607e-05
8.54042e-06
-1.52325e-05
-3.16248e-06
4.24413e-08
-1.69095e-05
9.25089e-06
-1.59836e-05
-3.01025e-06
1.19637e-06
-1.80888e-05
5.7025e-06
-9.95014e-06
-7.24077e-06
-1.73851e-06
-1.00857e-05
-7.92932e-07
-7.90502e-06
-8.99268e-06
2.55444e-06
-1.34506e-05
-3.96127e-06
1.78154e-06
-1.8234e-05
3.75323e-06
-6.07566e-06
-1.32337e-05
4.83561e-06
-1.32804e-05
-3.12243e-06
-3.44924e-06
-9.48262e-06
-2.04221e-06
-7.97735e-06
-2.25797e-06
-1.09289e-05
1.06169e-06
-9.72124e-06
-6.89061e-06
2.82533e-06
-1.89995e-05
8.36975e-06
-1.35089e-05
-5.99812e-06
3.09467e-06
-1.92779e-05
9.54062e-06
-1.44749e-05
-5.90217e-06
4.51413e-06
-2.0453e-05
6.05745e-06
-8.14206e-06
-9.97633e-06
5.85303e-07
-1.11417e-05
-8.60221e-07
-6.73668e-06
-1.08821e-05
4.10236e-06
-1.35138e-05
-5.68697e-06
4.49469e-06
-2.02015e-05
3.3646e-06
-3.13721e-06
-1.72021e-05
7.96073e-06
-1.4344e-05
-4.21688e-06
-9.1497e-07
-1.24865e-05
6.74145e-07
-9.79023e-06
-1.59596e-06
-1.03562e-05
-6.68418e-07
-7.19822e-06
-9.54677e-06
4.83018e-06
-1.98094e-05
7.65705e-06
-1.1374e-05
-9.01328e-06
6.03925e-06
-2.11917e-05
8.90262e-06
-1.226e-05
-8.95783e-06
7.43519e-06
-2.21497e-05
5.83239e-06
-6.15719e-06
-1.24401e-05
2.34658e-06
-1.1902e-05
-9.01293e-07
-5.96622e-06
-1.21155e-05
5.02014e-06
-1.3296e-05
-7.17731e-06
6.49542e-06
-2.12777e-05
2.35537e-06
-1.65144e-07
-2.07343e-05
1.04155e-05
-1.47746e-05
-5.7373e-06
1.79718e-06
-1.54454e-05
2.98475e-06
-1.10184e-05
-1.80353e-06
-8.97286e-06
-2.80498e-06
-4.80185e-06
-1.15968e-05
6.03096e-06
-1.98367e-05
6.3244e-06
-8.85248e-06
-1.20623e-05
8.5585e-06
-2.23092e-05
7.03613e-06
-9.31652e-06
-1.19494e-05
9.58305e-06
-2.27666e-05
4.87471e-06
-4.13709e-06
-1.43957e-05
3.39865e-06
-1.22192e-05
-8.47285e-07
-5.83851e-06
-1.23931e-05
5.08693e-06
-1.276e-05
-8.18148e-06
7.34733e-06
-2.11311e-05
6.76588e-07
2.59262e-06
-2.33305e-05
1.17237e-05
-1.43476e-05
-7.60382e-06
4.40468e-06
-1.79971e-05
4.66722e-06
-1.1343e-05
-3.10364e-06
-6.75086e-06
-5.19753e-06
-2.88874e-06
-1.26487e-05
6.05462e-06
-1.87999e-05
4.25079e-06
-6.07387e-06
-1.48251e-05
1.02315e-05
-2.21896e-05
3.73087e-06
-5.71309e-06
-1.45146e-05
1.0504e-05
-2.19634e-05
3.06486e-06
-2.27481e-06
-1.54617e-05
3.52064e-06
-1.2053e-05
-6.05371e-07
-6.58318e-06
-1.14377e-05
4.13854e-06
-1.19674e-05
-8.42285e-06
6.62956e-06
-1.94177e-05
-1.6554e-06
4.7446e-06
-2.44022e-05
1.13817e-05
-1.28756e-05
-9.62521e-06
6.50568e-06
-1.96873e-05
5.33524e-06
-1.04993e-05
-5.57059e-06
-3.71637e-06
-7.61694e-06
-1.82721e-06
-1.22398e-05
4.48191e-06
-1.6549e-05
1.43191e-06
-3.29447e-06
-1.68939e-05
1.0648e-05
-2.04155e-05
-1.00741e-06
-1.69115e-06
-1.63524e-05
9.81832e-06
-1.96e-05
4.93795e-07
-7.75362e-07
-1.53853e-05
2.58686e-06
-1.14295e-05
-6.24243e-08
-8.21892e-06
-9.21157e-06
2.12212e-06
-1.09741e-05
-7.64745e-06
4.0165e-06
-1.59798e-05
-4.45909e-06
5.7266e-06
-2.32444e-05
8.88214e-06
-1.03019e-05
-1.15093e-05
7.56495e-06
-1.99601e-05
4.60658e-06
-8.40057e-06
-9.11846e-06
-1.37349e-07
-9.79094e-06
-1.95869e-06
-1.00661e-05
1.18175e-06
-1.30222e-05
-1.83188e-06
-7.74464e-07
-1.78796e-05
9.36904e-06
-1.68024e-05
-7.09789e-06
2.37021e-06
-1.7158e-05
7.38951e-06
-1.558e-05
-2.71661e-06
1.65448e-07
-1.41499e-05
6.04109e-07
-1.03827e-05
6.64187e-07
-1.05046e-05
-5.9242e-06
-7.83249e-07
-9.92917e-06
-5.78758e-06
-4.29065e-07
-1.09527e-05
-7.38535e-06
4.99585e-06
-1.94146e-05
4.01968e-06
-6.75009e-06
-1.27951e-05
6.9888e-06
-1.82635e-05
2.28294e-06
-5.29675e-06
-1.32384e-05
3.57679e-06
-1.12851e-05
-3.51031e-06
-6.08793e-06
-3.61744e-06
-8.21467e-06
-5.30878e-06
1.0448e-06
-1.73943e-05
6.21999e-06
-1.15434e-05
-1.30572e-05
5.93264e-06
-1.65388e-05
3.23296e-06
-1.03009e-05
-6.4239e-06
2.66052e-07
-1.19253e-05
-2.01559e-06
-9.08817e-06
1.23995e-06
-1.32982e-05
-2.39972e-06
-3.93217e-06
-9.05014e-06
-3.08576e-06
-6.32808e-06
-4.93855e-06
-1.0009e-05
2.33188e-06
-1.28517e-05
-3.0387e-06
-2.57809e-06
-1.29895e-05
4.30208e-06
-1.43401e-05
-1.22883e-06
-7.41873e-08
-1.68723e-05
6.46823e-06
-1.16099e-05
-6.37289e-06
-1.0711e-06
-9.61125e-06
-3.49503e-06
-8.54083e-06
1.81836e-06
-1.53196e-05
1.53519e-06
-5.14725e-06
-1.80413e-05
7.98598e-06
-1.43517e-05
-1.89453e-06
-4.73313e-06
-9.24787e-06
-4.77282e-07
-9.01063e-06
-4.62857e-06
-7.86491e-06
1.54864e-06
-1.45505e-05
4.87639e-08
-6.33967e-06
-8.36729e-06
-2.33969e-07
-1.23223e-05
9.07701e-07
-1.15465e-05
-2.45231e-06
-4.30541e-06
-1.1289e-05
1.55752e-06
-1.16611e-05
-6.3702e-07
-8.74455e-06
-6.36226e-06
2.54724e-06
-1.88408e-05
7.28166e-06
-1.05828e-05
-9.38082e-06
3.51186e-06
-1.42343e-05
4.93984e-07
-1.0682e-05
1.22061e-06
-1.20592e-05
-3.70944e-06
9.7192e-07
-1.99463e-05
7.50441e-06
-1.08645e-05
-6.91821e-06
-2.91206e-07
-1.08411e-05
-2.00099e-06
-6.40742e-06
-6.13065e-06
-7.35017e-06
9.64301e-07
-1.35665e-05
-1.75152e-07
-6.9786e-06
-8.01596e-06
1.49606e-06
-1.65143e-05
4.89706e-06
-1.15782e-05
-8.01574e-06
4.75363e-06
-1.86138e-05
4.18275e-06
-8.57754e-06
-6.83147e-06
-2.47569e-06
-9.63696e-06
2.87177e-06
-1.7261e-05
5.17906e-06
-8.69684e-06
-1.09123e-05
5.07156e-06
-1.56949e-05
1.67344e-06
-1.09666e-05
-4.68627e-07
-8.62147e-06
-7.87868e-06
4.76051e-06
-1.69215e-05
4.54683e-06
-6.04658e-06
-1.05819e-05
1.63838e-06
-1.01277e-05
-4.49159e-06
-4.6047e-06
-6.11661e-06
-7.45193e-06
-1.22977e-06
-9.33949e-06
-3.95877e-06
-5.49194e-06
-7.46244e-06
7.36845e-07
-1.69736e-05
5.54493e-06
-1.02658e-05
-1.23447e-05
9.94399e-06
-2.23166e-05
4.09677e-06
-4.89446e-06
-1.24111e-05
1.49445e-06
-1.02081e-05
-7.37561e-07
-1.01312e-05
-2.61592e-08
-6.77237e-06
-8.71909e-06
7.88533e-07
-1.14658e-05
-1.49417e-06
-9.23501e-06
-2.3823e-06
-6.69811e-06
-8.82077e-06
3.73238e-06
-9.77704e-06
-6.118e-06
-2.31077e-06
-1.19353e-05
-4.56353e-07
-6.06774e-06
-8.33518e-06
-3.49505e-06
-4.52316e-06
-8.41012e-06
-4.09931e-06
-3.23265e-06
-1.01094e-05
-2.65227e-06
-6.20413e-06
-3.23193e-06
-1.26641e-05
2.41585e-06
-7.4252e-06
-1.27333e-05
8.79904e-06
-2.04866e-05
8.41317e-07
-2.77521e-06
-1.38537e-05
1.40852e-06
-7.26656e-06
-8.28041e-06
-9.775e-07
-7.30301e-06
-5.92726e-06
-2.31061e-06
-9.56014e-06
-1.28608e-06
-7.98671e-06
-5.77689e-06
-3.55235e-06
-7.51273e-06
-5.42123e-06
-2.79541e-06
-3.41755e-06
-1.30172e-05
6.43079e-06
-1.63784e-05
6.35812e-07
-3.64115e-06
-1.36718e-05
5.9259e-06
-1.47986e-05
-8.97763e-07
-3.21015e-06
-1.36462e-05
5.14532e-06
-1.17712e-05
-7.13592e-06
3.78847e-06
-1.63291e-05
1.02707e-06
-3.18583e-06
-1.48757e-05
6.4998e-06
-1.43104e-05
-1.386e-06
-4.54853e-06
-8.6026e-06
-1.41888e-07
-1.237e-05
4.18385e-06
-1.37563e-05
-2.34187e-06
1.04062e-07
-1.72743e-05
7.4346e-06
-1.26908e-05
-5.26255e-06
1.00975e-06
-1.46077e-05
4.93173e-06
-1.33103e-05
-1.26383e-06
-3.34855e-06
-1.31287e-05
6.47004e-06
-1.64089e-05
5.67224e-07
-3.57256e-06
-1.37906e-05
5.96602e-06
-1.48293e-05
-9.59209e-07
-3.13981e-06
-1.37515e-05
5.16667e-06
-1.17725e-05
-7.2305e-06
3.84332e-06
-1.63875e-05
9.85423e-07
-3.1262e-06
-1.49854e-05
6.52605e-06
-1.43267e-05
-1.4522e-06
-4.50268e-06
-8.68436e-06
-1.15931e-07
-1.2439e-05
4.19044e-06
-1.37695e-05
-2.41916e-06
1.64267e-07
-1.73997e-05
7.45287e-06
-1.26848e-05
-5.36125e-06
1.07018e-06
-1.47108e-05
4.94771e-06
-1.33225e-05
-1.33621e-06
-3.25212e-06
-1.3309e-05
6.59197e-06
-1.65014e-05
5.09913e-07
-3.47214e-06
-1.39798e-05
6.08575e-06
-1.49187e-05
-1.0145e-06
-3.05022e-06
-1.39222e-05
5.25238e-06
-1.17981e-05
-7.35956e-06
3.97173e-06
-1.65186e-05
9.63044e-07
-3.04001e-06
-1.51646e-05
6.62654e-06
-1.43907e-05
-1.5102e-06
-4.44474e-06
-8.80372e-06
-4.28939e-08
-1.25605e-05
4.25549e-06
-1.38245e-05
-2.50462e-06
2.87614e-07
-1.75976e-05
7.54773e-06
-1.27075e-05
-5.48439e-06
1.19784e-06
-1.4882e-05
5.02949e-06
-1.33764e-05
-1.40916e-06
-3.10028e-06
-1.35729e-05
6.80681e-06
-1.66631e-05
4.61271e-07
-3.31894e-06
-1.42534e-05
6.29613e-06
-1.5064e-05
-1.06422e-06
-2.91161e-06
-1.41717e-05
5.41198e-06
-1.18484e-05
-7.52741e-06
4.17782e-06
-1.67192e-05
9.62694e-07
-2.9101e-06
-1.54259e-05
6.80948e-06
-1.45075e-05
-1.56162e-06
-4.3569e-06
-8.96901e-06
8.58589e-08
-1.2745e-05
4.38515e-06
-1.39167e-05
-2.60328e-06
4.81729e-07
-1.78959e-05
7.72927e-06
-1.2789e-05
-5.63963e-06
1.40179e-06
-1.51382e-05
5.18511e-06
-1.3468e-05
-1.48919e-06
-2.89944e-06
-1.39132e-05
7.10615e-06
-1.68774e-05
4.24051e-07
-3.12597e-06
-1.46027e-05
6.58968e-06
-1.52672e-05
-1.10321e-06
-2.73257e-06
-1.44921e-05
5.63871e-06
-1.19232e-05
-7.72627e-06
4.44844e-06
-1.69806e-05
9.8493e-07
-2.74605e-06
-1.57582e-05
7.06685e-06
-1.46692e-05
-1.59945e-06
-4.24864e-06
-9.17573e-06
2.67024e-07
-1.29922e-05
4.57877e-06
-1.40486e-05
-2.71003e-06
7.3685e-07
-1.8286e-05
7.99356e-06
-1.28718e-05
-5.82127e-06
1.67219e-06
-1.54742e-05
5.40929e-06
-1.35948e-05
-1.57488e-06
-2.66388e-06
-1.43083e-05
7.46893e-06
-1.71366e-05
4.01506e-07
-2.91096e-06
-1.50048e-05
6.94744e-06
-1.55218e-05
-1.12544e-06
-2.52991e-06
-1.4862e-05
5.91575e-06
-1.20203e-05
-7.94154e-06
4.75908e-06
-1.72852e-05
1.02815e-06
-2.56526e-06
-1.61362e-05
7.38003e-06
-1.48757e-05
-1.61435e-06
-4.13531e-06
-9.40944e-06
4.88818e-07
-1.32937e-05
4.82868e-06
-1.42185e-05
-2.81522e-06
1.03296e-06
-1.87447e-05
8.32606e-06
-1.29847e-05
-6.01787e-06
1.99116e-06
-1.58717e-05
5.68672e-06
-1.37505e-05
-1.66327e-06
-2.41273e-06
-1.47256e-05
7.8608e-06
-1.74184e-05
3.92479e-07
-2.69524e-06
-1.54244e-05
7.33667e-06
-1.58116e-05
-1.12639e-06
-2.32562e-06
-1.52489e-05
6.21529e-06
-1.21332e-05
-8.15424e-06
5.07408e-06
-1.76035e-05
1.08565e-06
-2.38867e-06
-1.65217e-05
7.71542e-06
-1.51137e-05
-1.59763e-06
-4.03783e-06
-9.64756e-06
7.31661e-07
-1.36337e-05
5.11862e-06
-1.44183e-05
-2.90965e-06
1.34159e-06
-1.92336e-05
8.69801e-06
-1.31186e-05
-6.21402e-06
2.3303e-06
-1.63003e-05
5.99076e-06
-1.39215e-05
-1.75223e-06
-2.16532e-06
-1.51211e-05
8.22921e-06
-1.7686e-05
3.8973e-07
-2.50337e-06
-1.58133e-05
7.71056e-06
-1.6112e-05
-1.1046e-06
-2.14487e-06
-1.56095e-05
6.49728e-06
-1.22497e-05
-8.34126e-06
5.3447e-06
-1.78924e-05
1.14717e-06
-2.24576e-06
-1.68613e-05
8.02782e-06
-1.53664e-05
-1.53987e-06
-3.9763e-06
-9.86739e-06
9.6901e-07
-1.39837e-05
5.41674e-06
-1.46298e-05
-2.98422e-06
1.62603e-06
-1.97015e-05
9.07027e-06
-1.32606e-05
-6.39708e-06
2.65932e-06
-1.67211e-05
6.28174e-06
-1.40835e-05
-1.84671e-06
-1.95903e-06
-1.54344e-05
8.51451e-06
-1.79044e-05
3.8671e-07
-2.36343e-06
-1.61186e-05
8.01765e-06
-1.63904e-05
-1.06353e-06
-2.0161e-06
-1.5899e-05
6.72521e-06
-1.23587e-05
-8.48487e-06
5.53062e-06
-1.81167e-05
1.20267e-06
-2.1554e-06
-1.71107e-05
8.26505e-06
-1.55901e-05
-1.45025e-06
-3.97291e-06
-1.00247e-05
1.14997e-06
-1.43039e-05
5.69436e-06
-1.48357e-05
-3.03544e-06
1.85077e-06
-2.00831e-05
9.38158e-06
-1.33743e-05
-6.55967e-06
2.93094e-06
-1.70668e-05
6.49989e-06
-1.42034e-05
-1.94706e-06
-1.81945e-06
-1.56447e-05
8.68653e-06
-1.80542e-05
3.79313e-07
-2.27999e-06
-1.63156e-05
8.21134e-06
-1.66053e-05
-1.01665e-06
-1.94368e-06
-1.60907e-05
6.8442e-06
-1.24121e-05
-8.59432e-06
5.59921e-06
-1.82253e-05
1.21599e-06
-2.13458e-06
-1.72064e-05
8.36844e-06
-1.57808e-05
-1.29056e-06
-4.07372e-06
-1.00977e-05
1.27536e-06
-1.45908e-05
5.92634e-06
-1.50026e-05
-3.0528e-06
1.95739e-06
-2.03105e-05
9.59678e-06
-1.34749e-05
-6.63879e-06
3.08915e-06
-1.73061e-05
6.6343e-06
-1.42845e-05
-2.03421e-06
-1.69214e-06
-1.5782e-05
8.75723e-06
-1.81162e-05
2.87733e-07
-2.18061e-06
-1.63945e-05
8.24543e-06
-1.67124e-05
-1.0039e-06
-1.92272e-06
-1.61427e-05
6.82632e-06
-1.23985e-05
-8.70579e-06
5.56819e-06
-1.82054e-05
1.15531e-06
-2.12869e-06
-1.72315e-05
8.37845e-06
-1.59022e-05
-1.15394e-06
-4.18596e-06
-1.0154e-05
1.36748e-06
-1.48051e-05
6.10144e-06
-1.51213e-05
-3.08194e-06
2.00485e-06
-2.04367e-05
9.7565e-06
-1.3549e-05
-6.70356e-06
3.21348e-06
-1.74798e-05
6.70266e-06
-1.43098e-05
-2.16309e-06
-1.50762e-06
-1.592e-05
8.70203e-06
-1.79869e-05
1.13035e-08
-2.1025e-06
-1.6384e-05
8.07721e-06
-1.66062e-05
-1.08983e-06
-1.88758e-06
-1.61193e-05
6.62422e-06
-1.21575e-05
-8.77974e-06
5.44709e-06
-1.797e-05
8.32661e-07
-1.99216e-06
-1.71518e-05
8.14989e-06
-1.57945e-05
-1.18404e-06
-4.23147e-06
-1.01747e-05
1.4051e-06
-1.49604e-05
6.13248e-06
-1.49966e-05
-3.30191e-06
2.08439e-06
-2.04677e-05
9.77687e-06
-1.34294e-05
-6.86631e-06
3.33353e-06
-1.76163e-05
6.6978e-06
-1.41649e-05
-2.4208e-06
-1.09522e-06
-1.60543e-05
8.50747e-06
-1.76857e-05
-5.55537e-07
-1.83406e-06
-1.62135e-05
7.6239e-06
-1.62831e-05
-1.3777e-06
-1.82625e-06
-1.5904e-05
6.1129e-06
-1.16653e-05
-9.04842e-06
5.27541e-06
-1.73763e-05
1.41236e-07
-1.71121e-06
-1.70017e-05
7.67182e-06
-1.5284e-05
-1.49423e-06
-4.21428e-06
-1.01849e-05
1.38184e-06
-1.48615e-05
5.85818e-06
-1.46031e-05
-3.79249e-06
2.25974e-06
-2.02938e-05
9.57287e-06
-1.30941e-05
-7.24639e-06
3.61338e-06
-1.7669e-05
6.57584e-06
-1.38847e-05
-2.9142e-06
-4.66617e-07
-1.6335e-05
8.24114e-06
-1.70008e-05
-1.50213e-06
-1.45327e-06
-1.60151e-05
6.99284e-06
-1.55252e-05
-1.91412e-06
-1.81294e-06
-1.5558e-05
5.31778e-06
-1.06988e-05
-9.54531e-06
4.84049e-06
-1.63783e-05
-9.28056e-07
-1.10376e-06
-1.67515e-05
6.67091e-06
-1.4332e-05
-2.01228e-06
-3.96071e-06
-1.01874e-05
1.06855e-06
-1.45043e-05
5.31325e-06
-1.371e-05
-4.5948e-06
2.35209e-06
-1.99539e-05
8.71027e-06
-1.2268e-05
-7.97332e-06
3.9706e-06
-1.77718e-05
6.32251e-06
-1.31829e-05
-3.80251e-06
6.54568e-07
-1.67349e-05
7.57918e-06
-1.5552e-05
-2.76611e-06
-6.53284e-07
-1.57781e-05
5.87001e-06
-1.44402e-05
-2.53157e-06
-1.57551e-06
-1.51042e-05
3.98301e-06
-9.33757e-06
-1.00695e-05
4.37407e-06
-1.49809e-05
-2.65148e-06
-3.26946e-07
-1.61947e-05
5.32375e-06
-1.29091e-05
-3.00399e-06
-3.63425e-06
-9.93744e-06
6.58385e-07
-1.38561e-05
4.2568e-06
-1.24534e-05
-5.48987e-06
2.61392e-06
-1.9401e-05
7.32315e-06
-1.10106e-05
-8.93308e-06
4.63979e-06
-1.7867e-05
5.64802e-06
-1.20368e-05
-5.00681e-06
2.03428e-06
-1.70063e-05
6.7284e-06
-1.37726e-05
-4.63831e-06
3.45405e-07
-1.52778e-05
4.51364e-06
-1.30646e-05
-3.5324e-06
-1.28226e-06
-1.43148e-05
2.38452e-06
-7.72507e-06
-1.08313e-05
3.7068e-06
-1.29854e-05
-4.7367e-06
5.31242e-07
-1.5478e-05
3.46457e-06
-1.08475e-05
-4.31804e-06
-3.34332e-06
-9.61877e-06
-3.95954e-08
-1.27101e-05
2.7398e-06
-1.09572e-05
-6.6392e-06
2.84807e-06
-1.83978e-05
5.61088e-06
-9.33597e-06
-1.03645e-05
5.41455e-06
-1.76898e-05
4.57963e-06
-1.0504e-05
-6.81779e-06
3.53419e-06
-1.73057e-05
5.55287e-06
-1.14788e-05
-6.85044e-06
1.42512e-06
-1.46813e-05
2.82408e-06
-1.12838e-05
-4.68218e-06
-1.01854e-06
-1.34073e-05
4.75906e-07
-5.75695e-06
-1.16378e-05
2.75364e-06
-1.06445e-05
-7.19771e-06
1.53908e-06
-1.44141e-05
1.03944e-06
-8.40646e-06
-5.86995e-06
-3.03129e-06
-9.01507e-06
-1.1529e-06
-1.12809e-05
9.43685e-07
-9.15226e-06
-7.8214e-06
2.90773e-06
-1.71347e-05
3.50566e-06
-7.19434e-06
-1.19844e-05
6.15373e-06
-1.73899e-05
3.17104e-06
-8.42811e-06
-8.96824e-06
5.12056e-06
-1.74113e-05
4.00925e-06
-8.80322e-06
-9.36975e-06
2.53904e-06
-1.38515e-05
8.27683e-07
-9.25248e-06
-5.96663e-06
-7.84385e-07
-1.22973e-05
-1.67183e-06
-3.61703e-06
-1.24822e-05
1.57534e-06
-7.93913e-06
-9.90967e-06
2.50733e-06
-1.30296e-05
-1.83739e-06
-5.55658e-06
-7.56791e-06
-2.84351e-06
-8.13589e-06
-2.62098e-06
-9.49233e-06
-1.06418e-06
-7.25533e-06
-8.99823e-06
2.77676e-06
-1.55058e-05
1.05524e-06
-4.77087e-06
-1.37623e-05
6.85682e-06
-1.68048e-05
1.39282e-06
-5.95469e-06
-1.14172e-05
6.66632e-06
-1.72723e-05
2.06579e-06
-5.80054e-06
-1.20332e-05
3.60031e-06
-1.28218e-05
-1.47778e-06
-7.02384e-06
-7.2693e-06
-6.16953e-07
-1.10746e-05
-4.00621e-06
-1.38089e-06
-1.32614e-05
1.84409e-07
-5.01203e-06
-1.27518e-05
3.35308e-06
-1.12747e-05
-5.10931e-06
-2.43389e-06
-9.33491e-06
-2.8178e-06
-6.8996e-06
-4.43044e-06
-7.43165e-06
-3.25616e-06
-5.3705e-06
-9.98682e-06
2.37636e-06
-1.35917e-05
-1.69793e-06
-2.15787e-06
-1.55544e-05
7.40452e-06
-1.59178e-05
-7.97281e-07
-3.13316e-06
-1.39919e-05
8.01483e-06
-1.67075e-05
-2.59361e-07
-2.58677e-06
-1.47837e-05
4.52172e-06
-1.14889e-05
-3.99592e-06
-4.73665e-06
-8.55754e-06
-5.32793e-07
-9.74139e-06
-6.36502e-06
7.94561e-07
-1.38252e-05
-1.38198e-06
-1.90382e-06
-1.55313e-05
3.95074e-06
-9.19741e-06
-8.6993e-06
8.54774e-07
-1.10294e-05
-3.06673e-06
-5.32712e-06
-6.58665e-06
-5.10101e-06
-5.49604e-06
-3.65947e-06
-1.06841e-05
1.63899e-06
-1.13841e-05
-4.59927e-06
4.69648e-07
-1.72692e-05
7.72601e-06
-1.46141e-05
-3.36607e-06
-8.77752e-08
-1.65875e-05
8.93638e-06
-1.56945e-05
-2.93823e-06
7.3546e-07
-1.73745e-05
5.18105e-06
-9.93422e-06
-6.64387e-06
-2.46018e-06
-9.71632e-06
-5.44537e-07
-8.42695e-06
-8.61931e-06
2.7797e-06
-1.41683e-05
-3.08903e-06
1.11257e-06
-1.8074e-05
4.18464e-06
-6.74699e-06
-1.2482e-05
4.10328e-06
-1.25145e-05
-3.62205e-06
-3.38132e-06
-9.05488e-06
-2.67775e-06
-7.61341e-06
-2.26529e-06
-1.09178e-05
5.30612e-07
-8.99989e-06
-7.51369e-06
2.97755e-06
-1.86831e-05
7.67719e-06
-1.29392e-05
-6.2607e-06
3.07799e-06
-1.90499e-05
9.21444e-06
-1.4089e-05
-5.86608e-06
3.94362e-06
-1.96073e-05
5.43176e-06
-8.13237e-06
-9.23764e-06
-4.10518e-07
-1.06798e-05
-6.18935e-07
-7.28743e-06
-1.05151e-05
4.34369e-06
-1.42436e-05
-4.82995e-06
3.85332e-06
-2.00595e-05
3.8867e-06
-4.03342e-06
-1.62372e-05
7.08366e-06
-1.35724e-05
-4.56241e-06
-1.15744e-06
-1.17225e-05
-2.42485e-07
-9.38123e-06
-1.46542e-06
-1.05826e-05
-9.85237e-07
-6.53796e-06
-1.01574e-05
5.05226e-06
-1.96342e-05
7.12364e-06
-1.08181e-05
-9.34317e-06
6.10678e-06
-2.10571e-05
8.56414e-06
-1.18397e-05
-8.9421e-06
6.79286e-06
-2.11539e-05
5.11064e-06
-6.17983e-06
-1.16e-05
1.1753e-06
-1.12762e-05
-7.22369e-07
-6.52059e-06
-1.17718e-05
5.24424e-06
-1.39219e-05
-6.41432e-06
5.88173e-06
-2.11836e-05
2.95114e-06
-1.18829e-06
-1.96029e-05
9.3981e-06
-1.40314e-05
-5.90402e-06
1.27736e-06
-1.43523e-05
1.89632e-06
-1.05846e-05
-1.51284e-06
-9.44731e-06
-2.86275e-06
-4.26711e-06
-1.22116e-05
6.35394e-06
-1.97911e-05
5.91914e-06
-8.34582e-06
-1.24445e-05
8.71991e-06
-2.22056e-05
6.6744e-06
-8.85202e-06
-1.18866e-05
8.86548e-06
-2.16814e-05
4.05328e-06
-4.14588e-06
-1.34299e-05
2.10666e-06
-1.14409e-05
-8.15666e-07
-6.30255e-06
-1.20583e-05
5.21425e-06
-1.3186e-05
-7.63449e-06
6.83987e-06
-2.10381e-05
1.25682e-06
1.50513e-06
-2.21031e-05
1.06018e-05
-1.3601e-05
-7.60839e-06
3.60918e-06
-1.66224e-05
3.38288e-06
-1.08888e-05
-2.6376e-06
-7.51044e-06
-5.0053e-06
-2.50466e-06
-1.32273e-05
6.4709e-06
-1.88824e-05
3.9621e-06
-5.62133e-06
-1.52087e-05
1.04572e-05
-2.2098e-05
3.41239e-06
-5.24652e-06
-1.44082e-05
9.72394e-06
-2.07604e-05
2.2067e-06
-2.26029e-06
-1.44542e-05
2.07864e-06
-1.10683e-05
-7.56111e-07
-6.89607e-06
-1.11595e-05
4.09467e-06
-1.20353e-05
-8.21417e-06
6.27711e-06
-1.92912e-05
-1.22682e-06
3.72822e-06
-2.31202e-05
1.01654e-05
-1.21341e-05
-9.51367e-06
5.49591e-06
-1.8053e-05
3.86493e-06
-1.00919e-05
-4.95145e-06
-4.69046e-06
-7.14868e-06
-1.65096e-06
-1.27737e-05
4.99527e-06
-1.66929e-05
1.26624e-06
-2.89677e-06
-1.72588e-05
1.08637e-05
-2.02903e-05
-1.14936e-06
-1.29899e-06
-1.61579e-05
9.03955e-06
-1.84781e-05
-3.9029e-07
-7.34356e-07
-1.4361e-05
1.06588e-06
-1.02525e-05
-5.10851e-07
-8.33925e-06
-8.9632e-06
1.82998e-06
-1.05615e-05
-7.92095e-06
3.85269e-06
-1.57301e-05
-4.34638e-06
4.93602e-06
-2.20089e-05
7.59652e-06
-9.51731e-06
-1.13401e-05
6.42506e-06
-1.81993e-05
3.00723e-06
-7.95854e-06
-8.48238e-06
-1.28985e-06
-9.04773e-06
-2.01383e-06
-1.04948e-05
1.76748e-06
-1.31882e-05
-1.95386e-06
-4.37059e-07
-1.81542e-05
9.50012e-06
-1.66077e-05
-7.63806e-06
2.58554e-06
-1.68662e-05
6.6564e-06
-1.46167e-05
-3.53228e-06
2.36e-07
-1.3209e-05