/*--------------------------------*- C++ -*----------------------------------*\
  =========                 |
  \\      /  F ield         | OpenFOAM: The Open Source CFD Toolbox
   \\    /   O peration     | Website:  https://openfoam.org
    \\  /    A nd           | Version:  10
     \\/     M anipulation  |
\*---------------------------------------------------------------------------*/
FoamFile
{
    format      ascii;
    class       volVectorField;
    location    "45";
    object      UMean;
}
// * * * * * * * * * * * * * * * * * * * * * * * * * * * * * * * * * * * * * //

dimensions      [0 1 -1 0 0 0 0];

internalField   nonuniform List<vector> 
25600
(
(0.0586861 1.25933e-06 -0.000169888)
(0.0581118 2.01371e-06 -0.000109342)
(0.0586019 1.26938e-06 -8.93358e-05)
(0.0580367 1.36407e-06 -9.62811e-05)
(0.0585963 5.25819e-07 -0.000196078)
(0.0580728 4.54952e-07 -0.000166717)
(0.0586044 1.97465e-06 -0.00015176)
(0.0580465 2.01177e-06 -6.98657e-05)
(0.0585474 1.85366e-06 -0.000130828)
(0.0580272 9.29554e-07 -0.00015407)
(0.0585607 1.1552e-06 -0.000202456)
(0.0580439 1.71189e-06 -9.60095e-05)
(0.058558 2.63594e-06 -9.00132e-05)
(0.0580085 9.16683e-07 -7.06617e-05)
(0.0585847 5.55091e-07 -0.000193297)
(0.0580347 1.35106e-06 -0.000153505)
(0.0585859 1.62648e-06 -0.000164135)
(0.0580172 1.48852e-06 -4.20056e-05)
(0.0585969 7.72234e-07 -0.000143989)
(0.0580586 4.51147e-07 -0.00014445)
(0.0586495 1.29359e-06 -0.000215852)
(0.0580814 2.32991e-06 -0.000109424)
(0.058659 1.99426e-06 -9.64272e-05)
(0.0580848 1.05197e-06 -7.97493e-05)
(0.0586806 -1.53498e-06 -0.000169043)
(0.0581984 4.56571e-07 -0.000145261)
(0.0587526 7.78964e-07 -0.000108276)
(0.0581761 9.19068e-07 -5.00413e-05)
(0.0587558 1.76445e-07 -9.55238e-05)
(0.0581496 2.01884e-07 -0.000118145)
(0.0588048 -1.63206e-06 -0.000179954)
(0.0581848 1.65428e-06 -7.1314e-05)
(0.0588094 2.73834e-06 -6.48945e-05)
(0.0581285 1.91766e-06 -6.82677e-05)
(0.0587822 4.07575e-07 -0.000155775)
(0.0581429 1.98392e-06 -0.0001546)
(0.0587707 1.01798e-06 -0.000118347)
(0.0581001 1.55269e-06 -5.44672e-05)
(0.0586977 1.96749e-07 -0.000103231)
(0.0581119 -2.91438e-07 -0.000154745)
(0.170082 2.44055e-05 -0.000502168)
(0.168347 3.45678e-05 -0.000412187)
(0.169915 3.49339e-05 -0.00040856)
(0.168197 3.26872e-05 -0.000395091)
(0.16988 2.67905e-05 -0.000604332)
(0.168211 2.57388e-05 -0.000484699)
(0.169891 2.7661e-05 -0.000508816)
(0.168188 3.59836e-05 -0.000313384)
(0.169795 3.24242e-05 -0.000485886)
(0.168128 3.08807e-05 -0.000459751)
(0.169759 2.64032e-05 -0.000600254)
(0.16815 2.988e-05 -0.0003569)
(0.169771 2.81434e-05 -0.00040964)
(0.168106 3.1128e-05 -0.000330519)
(0.169801 2.87849e-05 -0.00058384)
(0.168105 3.00261e-05 -0.000435313)
(0.169831 2.53925e-05 -0.00052163)
(0.168104 2.87407e-05 -0.000258735)
(0.169862 2.36704e-05 -0.000506383)
(0.168164 2.48367e-05 -0.000416779)
(0.169949 1.92387e-05 -0.000629443)
(0.168239 2.48845e-05 -0.000347438)
(0.170041 2.4157e-05 -0.000438179)
(0.168287 2.65053e-05 -0.000310988)
(0.170069 1.44122e-05 -0.000515635)
(0.168456 1.58184e-05 -0.000419981)
(0.170266 2.10386e-05 -0.000438373)
(0.168508 2.26762e-05 -0.000288467)
(0.170325 2.38458e-05 -0.000397545)
(0.168471 2.1318e-05 -0.000401398)
(0.170423 1.74565e-05 -0.000543677)
(0.168515 2.44852e-05 -0.000346935)
(0.170448 2.21996e-05 -0.000392924)
(0.168437 3.13515e-05 -0.000326672)
(0.170394 2.12943e-05 -0.000524443)
(0.168429 2.93239e-05 -0.000469078)
(0.170365 2.40367e-05 -0.00042942)
(0.168395 3.69233e-05 -0.000310882)
(0.170193 2.64359e-05 -0.000401944)
(0.168341 3.46084e-05 -0.000469849)
(0.278662 8.80379e-05 -0.00110764)
(0.275679 0.000117881 -0.000810712)
(0.278525 0.000102552 -0.000871535)
(0.275569 0.000111975 -0.000779334)
(0.278428 9.58737e-05 -0.00109599)
(0.275536 0.000104212 -0.000901631)
(0.278355 9.49183e-05 -0.000977287)
(0.275471 0.00011522 -0.000672664)
(0.278309 0.000102125 -0.000953491)
(0.275441 0.00011226 -0.0009387)
(0.278271 9.69497e-05 -0.00113175)
(0.275454 0.000106745 -0.000736491)
(0.27824 0.000100475 -0.000870463)
(0.275407 0.000106255 -0.000712107)
(0.278228 9.75047e-05 -0.0011192)
(0.275382 0.000103107 -0.0008634)
(0.278266 8.97931e-05 -0.000982801)
(0.275353 9.66541e-05 -0.000614487)
(0.278344 8.6242e-05 -0.000978818)
(0.27539 9.25883e-05 -0.000900159)
(0.278467 8.60994e-05 -0.0011361)
(0.275425 8.93822e-05 -0.000733673)
(0.278563 8.72941e-05 -0.000913425)
(0.275531 9.17832e-05 -0.000675867)
(0.278662 7.06211e-05 -0.00106769)
(0.275653 7.89207e-05 -0.000882703)
(0.278869 7.72524e-05 -0.000919833)
(0.275774 8.7855e-05 -0.000596476)
(0.278903 8.24372e-05 -0.000943714)
(0.275894 8.82241e-05 -0.000891308)
(0.279008 7.49485e-05 -0.00114022)
(0.275955 9.305e-05 -0.000755603)
(0.279031 8.82115e-05 -0.000885135)
(0.275884 0.000102987 -0.000733973)
(0.278988 8.54114e-05 -0.00111432)
(0.27587 0.000104089 -0.000886864)
(0.279002 8.84638e-05 -0.000961967)
(0.275781 0.000119472 -0.000676061)
(0.278848 9.00488e-05 -0.000982138)
(0.275763 0.000115827 -0.000966183)
(0.382862 0.000214767 -0.00168483)
(0.378734 0.000267194 -0.00131336)
(0.382719 0.000229347 -0.00137391)
(0.378636 0.000266806 -0.00124265)
(0.382652 0.000222314 -0.00161833)
(0.378617 0.0002552 -0.00141292)
(0.382579 0.000225377 -0.00144125)
(0.378528 0.00025923 -0.00104956)
(0.382539 0.000227428 -0.00143774)
(0.378521 0.000254957 -0.00144475)
(0.382508 0.000221545 -0.00166486)
(0.3785 0.000253966 -0.0011931)
(0.382413 0.000232768 -0.00137857)
(0.378449 0.000253692 -0.00117429)
(0.382382 0.000229655 -0.00169086)
(0.378441 0.000243681 -0.00136905)
(0.382385 0.000218426 -0.00153331)
(0.378356 0.000237844 -0.00105566)
(0.382412 0.000210677 -0.00151285)
(0.378356 0.000224085 -0.0013628)
(0.382443 0.000204089 -0.00169171)
(0.378373 0.000221201 -0.00114789)
(0.382501 0.000205768 -0.00135666)
(0.378493 0.000225254 -0.00110729)
(0.382623 0.000196145 -0.00166697)
(0.378618 0.000210201 -0.0013065)
(0.382763 0.000198181 -0.00152462)
(0.378678 0.00021518 -0.00102774)
(0.382899 0.000203284 -0.00155881)
(0.378883 0.000227888 -0.00141763)
(0.382964 0.000203133 -0.00178531)
(0.378887 0.00023143 -0.00126913)
(0.382991 0.000216029 -0.00142875)
(0.378894 0.000240672 -0.00127042)
(0.383033 0.000211727 -0.00178294)
(0.378937 0.00024418 -0.00149867)
(0.383068 0.000212432 -0.00151564)
(0.378871 0.000260383 -0.00118952)
(0.382989 0.000217467 -0.00149953)
(0.378817 0.000266037 -0.00153528)
(0.481815 0.000400702 -0.00184161)
(0.476943 0.000466035 -0.0014246)
(0.481725 0.000407435 -0.0014258)
(0.476871 0.000464886 -0.00137206)
(0.481769 0.000402289 -0.00175683)
(0.476865 0.000454294 -0.00157094)
(0.481703 0.000409275 -0.00150876)
(0.476817 0.0004679 -0.00116228)
(0.481677 0.000410268 -0.00147594)
(0.476802 0.000458892 -0.00154696)
(0.481697 0.00040242 -0.00179701)
(0.476695 0.000455768 -0.00135615)
(0.481598 0.000412561 -0.00152805)
(0.4766 0.000456933 -0.00133044)
(0.481597 0.000411931 -0.00181437)
(0.476644 0.000445242 -0.00163381)
(0.481585 0.000399975 -0.00156554)
(0.47663 0.000433587 -0.00115368)
(0.481529 0.000388577 -0.0015751)
(0.476574 0.000419674 -0.00149097)
(0.481543 0.00038575 -0.00181774)
(0.47651 0.000415797 -0.00126242)
(0.481567 0.000394745 -0.0014854)
(0.476602 0.000416259 -0.00119497)
(0.481619 0.000383062 -0.00176218)
(0.476696 0.00041347 -0.00148732)
(0.481638 0.000388325 -0.00163639)
(0.476719 0.000413627 -0.00115594)
(0.481707 0.000387442 -0.00163594)
(0.476852 0.000434581 -0.00156581)
(0.481867 0.000393778 -0.00189817)
(0.476936 0.000443621 -0.00135576)
(0.481835 0.000399948 -0.00162975)
(0.47694 0.000449879 -0.00131706)
(0.481827 0.000391162 -0.00192255)
(0.477035 0.000453148 -0.00162228)
(0.481879 0.000390394 -0.00171163)
(0.476963 0.000459365 -0.0013171)
(0.481877 0.000396589 -0.00165698)
(0.476974 0.000471078 -0.00168104)
(0.575501 0.000585821 -0.00128438)
(0.570215 0.000650949 -0.000738566)
(0.575556 0.000585967 -0.000800629)
(0.570231 0.000647967 -0.000681818)
(0.575523 0.000572154 -0.00109946)
(0.570209 0.000644609 -0.000892381)
(0.575535 0.000578176 -0.000929085)
(0.570158 0.000651769 -0.000565449)
(0.575657 0.00057738 -0.000933454)
(0.57023 0.000657201 -0.00104841)
(0.575669 0.000577244 -0.00119249)
(0.570162 0.000649487 -0.000830642)
(0.575493 0.000587527 -0.000942056)
(0.570031 0.000652034 -0.000819853)
(0.575481 0.00058468 -0.00130452)
(0.570054 0.000638958 -0.00111529)
(0.575409 0.000577523 -0.00105383)
(0.569933 0.000616733 -0.000788161)
(0.575342 0.000569064 -0.000951483)
(0.569802 0.000606124 -0.00100301)
(0.575348 0.000568406 -0.00115838)
(0.569919 0.00061064 -0.000774229)
(0.575328 0.000575294 -0.000864692)
(0.569985 0.00060968 -0.000813162)
(0.575385 0.000571927 -0.00123989)
(0.57001 0.000615313 -0.00103996)
(0.575347 0.000579135 -0.00108202)
(0.570071 0.0006123 -0.000623084)
(0.575338 0.000582348 -0.00107125)
(0.5702 0.000624679 -0.000974672)
(0.575448 0.000590978 -0.00138552)
(0.57017 0.000636848 -0.000723403)
(0.575537 0.000582143 -0.000943912)
(0.570193 0.000642836 -0.000701864)
(0.575519 0.000569025 -0.00131104)
(0.570286 0.000639665 -0.000981554)
(0.575596 0.000576702 -0.00110414)
(0.570185 0.000659814 -0.000646618)
(0.575564 0.000575479 -0.00109855)
(0.570248 0.000655085 -0.00101923)
(0.663799 0.000666782 3.48306e-05)
(0.658355 0.000741937 0.000325886)
(0.663711 0.000660352 0.000301874)
(0.658348 0.000740647 0.000346664)
(0.663791 0.000650595 -6.47398e-05)
(0.658393 0.000742789 0.000112381)
(0.663816 0.000654933 0.000161209)
(0.658401 0.000726931 0.000509742)
(0.663849 0.000642308 0.000184529)
(0.658442 0.000735372 0.000173482)
(0.663849 0.000651337 -2.69252e-05)
(0.658369 0.000728144 0.000347722)
(0.663788 0.000656414 0.000283724)
(0.658413 0.000725706 0.000348452)
(0.663792 0.000669949 -1.68549e-05)
(0.658349 0.00071978 0.000166008)
(0.663836 0.000670109 0.000148389)
(0.658211 0.000703101 0.000407983)
(0.66372 0.000670612 0.000188662)
(0.658192 0.000692411 0.000103146)
(0.66374 0.000660409 -6.04903e-05)
(0.658223 0.000702698 0.000312964)
(0.663786 0.000658519 0.000246195)
(0.658208 0.000702321 0.00030005)
(0.663813 0.000675284 -8.99882e-05)
(0.658257 0.000708393 4.82452e-05)
(0.66379 0.000677243 9.95952e-05)
(0.658249 0.000705505 0.000464865)
(0.663797 0.000680599 0.000155837)
(0.658319 0.0007116 7.737e-05)
(0.663838 0.000688373 -6.08751e-06)
(0.658237 0.000715466 0.000238296)
(0.66376 0.00066964 0.00031884)
(0.658199 0.000716194 0.000265329)
(0.663858 0.000662846 1.19418e-05)
(0.658204 0.000718453 4.78702e-05)
(0.663783 0.000665707 0.000183456)
(0.658264 0.00074285 0.000483745)
(0.663778 0.000666617 0.000217241)
(0.658325 0.000744474 0.000126935)
(0.745746 0.00060518 0.00135574)
(0.740725 0.000691129 0.0015526)
(0.745686 0.000599924 0.00154866)
(0.7407 0.00068411 0.00153993)
(0.745764 0.00060108 0.00120559)
(0.740745 0.000696125 0.00135972)
(0.745784 0.00060987 0.00133218)
(0.740701 0.000682821 0.00158784)
(0.745771 0.000598615 0.0013788)
(0.74068 0.000673313 0.00140802)
(0.745839 0.000612725 0.0012052)
(0.740694 0.000668772 0.00159751)
(0.745814 0.00061476 0.00139749)
(0.740648 0.000662643 0.00164789)
(0.74583 0.000617039 0.001161)
(0.740751 0.000657437 0.00143709)
(0.745925 0.000625166 0.00133048)
(0.740629 0.000656042 0.00163216)
(0.745877 0.000617659 0.00136501)
(0.740724 0.000646635 0.00129064)
(0.745857 0.000619343 0.00121997)
(0.740656 0.000649193 0.00139161)
(0.745834 0.000610565 0.00148412)
(0.740607 0.000650002 0.00139202)
(0.745889 0.000629447 0.00119462)
(0.740583 0.00067036 0.00128546)
(0.745902 0.000629341 0.00136176)
(0.740565 0.0006776 0.00159241)
(0.745788 0.000629692 0.00141838)
(0.740582 0.000674022 0.00142794)
(0.745722 0.00064427 0.00134312)
(0.740559 0.000680147 0.00154132)
(0.745695 0.000632561 0.00158628)
(0.740619 0.000678213 0.00158366)
(0.745714 0.00062435 0.00137331)
(0.740605 0.000689626 0.0015079)
(0.745773 0.000614927 0.00150907)
(0.740595 0.000689209 0.00172152)
(0.745749 0.000607808 0.00151195)
(0.740688 0.000693465 0.00142491)
(0.819819 0.000463723 0.00199752)
(0.815375 0.000540173 0.00209695)
(0.819758 0.000456608 0.00207285)
(0.81532 0.000531466 0.00208217)
(0.819791 0.000458405 0.00188398)
(0.81534 0.000544248 0.00196579)
(0.819819 0.000475099 0.00195945)
(0.815318 0.000531357 0.0021337)
(0.819853 0.000461271 0.00196414)
(0.815327 0.000511347 0.00194085)
(0.819891 0.000474103 0.00184893)
(0.815322 0.0005171 0.00202698)
(0.819924 0.000478194 0.00206485)
(0.815328 0.000511924 0.0020148)
(0.819958 0.000475181 0.00188722)
(0.815347 0.000510077 0.00187829)
(0.819923 0.000485556 0.00198236)
(0.81534 0.000516944 0.00207913)
(0.819904 0.000471633 0.00202994)
(0.815369 0.000512873 0.00192313)
(0.819874 0.000472532 0.00194853)
(0.815353 0.000511353 0.00198195)
(0.819799 0.000464586 0.0020627)
(0.815308 0.000512646 0.00197627)
(0.819824 0.000488584 0.00186153)
(0.815298 0.00053772 0.00190433)
(0.819809 0.00049124 0.0019446)
(0.815288 0.000548164 0.00206429)
(0.8198 0.000497759 0.00198287)
(0.815311 0.00054524 0.00192612)
(0.819798 0.000515642 0.0019117)
(0.815321 0.000558404 0.00203035)
(0.819784 0.000496202 0.00210332)
(0.815366 0.000550603 0.00205898)
(0.819818 0.000484105 0.00194204)
(0.815394 0.000553112 0.0019715)
(0.819828 0.000469578 0.00206632)
(0.81538 0.000548419 0.0021398)
(0.819816 0.000461062 0.0021035)
(0.815367 0.000541903 0.00202411)
(0.883214 0.000326883 0.00169072)
(0.879564 0.000401177 0.00171415)
(0.883206 0.000316428 0.0017782)
(0.879533 0.000390084 0.00171458)
(0.88322 0.00032175 0.00169101)
(0.879547 0.000393735 0.00164291)
(0.883214 0.000337744 0.00173429)
(0.879532 0.000379799 0.00173622)
(0.88322 0.000321427 0.00174193)
(0.879508 0.000360687 0.00165896)
(0.883245 0.000327922 0.00165886)
(0.879509 0.000366344 0.00167547)
(0.883232 0.000330248 0.00172599)
(0.879499 0.000363213 0.00167929)
(0.88323 0.000333316 0.00164905)
(0.879519 0.000372742 0.00162408)
(0.883232 0.000341232 0.00170195)
(0.879535 0.000378762 0.00174288)
(0.883222 0.000333152 0.00172135)
(0.879557 0.000375611 0.00165357)
(0.883222 0.000334679 0.00166289)
(0.879555 0.000381755 0.00170308)
(0.883162 0.000337534 0.00168893)
(0.879533 0.000386314 0.00171246)
(0.883148 0.000355561 0.00160713)
(0.879551 0.000404931 0.00164157)
(0.883159 0.000356886 0.00164205)
(0.879515 0.000411811 0.00170086)
(0.883167 0.000360308 0.00165564)
(0.87953 0.000417078 0.00161298)
(0.883163 0.000371622 0.00161511)
(0.879533 0.000428736 0.00165784)
(0.883157 0.000360785 0.00170369)
(0.879543 0.000420765 0.00167634)
(0.883163 0.000352406 0.00164468)
(0.879577 0.000423992 0.00161911)
(0.883187 0.000338988 0.0017058)
(0.879582 0.000413864 0.00173319)
(0.883213 0.000328793 0.00173395)
(0.879574 0.000405946 0.00166848)
(0.933927 0.000254968 0.00110514)
(0.931196 0.000323386 0.00107281)
(0.933915 0.00025142 0.00114349)
(0.931186 0.000316273 0.00108604)
(0.933913 0.000246816 0.00111716)
(0.931192 0.000314644 0.00106634)
(0.933916 0.000258585 0.00114604)
(0.931177 0.000307713 0.00109839)
(0.933907 0.000245171 0.00115397)
(0.931163 0.000291571 0.00107497)
(0.933904 0.000242256 0.0011156)
(0.931164 0.000296706 0.0010846)
(0.933884 0.000246208 0.00113932)
(0.93116 0.000297729 0.00108379)
(0.933877 0.00024565 0.00110217)
(0.93117 0.000303835 0.0010606)
(0.933881 0.000249272 0.00112232)
(0.931175 0.000311455 0.0010985)
(0.933877 0.000246088 0.00113262)
(0.931178 0.000303312 0.00106873)
(0.933871 0.000249931 0.00110383)
(0.931173 0.000309563 0.00107455)
(0.933855 0.000259302 0.00113136)
(0.931163 0.000314033 0.00107813)
(0.933864 0.000270945 0.00109152)
(0.931171 0.00032815 0.00104972)
(0.933873 0.000274257 0.00111012)
(0.931175 0.000331389 0.00108878)
(0.933864 0.000275221 0.00111609)
(0.931175 0.000333605 0.00105451)
(0.933872 0.000279876 0.00108337)
(0.931175 0.000345251 0.00105897)
(0.933873 0.000274978 0.00112604)
(0.931183 0.000339136 0.00106362)
(0.933882 0.000270811 0.00109481)
(0.931188 0.00034326 0.00104335)
(0.933903 0.00026654 0.00112011)
(0.931191 0.000335464 0.00108341)
(0.933912 0.000258267 0.00113304)
(0.931195 0.000328422 0.00105132)
(0.971967 0.000227009 0.000695629)
(0.970081 0.000292035 0.000641379)
(0.971964 0.000225662 0.000708001)
(0.970081 0.000284182 0.000648536)
(0.971961 0.000221819 0.000703549)
(0.970079 0.000282986 0.000648016)
(0.97196 0.000229968 0.000713995)
(0.970075 0.000281291 0.000662943)
(0.971955 0.000220791 0.000719897)
(0.970074 0.000268489 0.000652162)
(0.971946 0.000216388 0.000708778)
(0.970071 0.00027125 0.000656802)
(0.971935 0.000217587 0.000717709)
(0.970065 0.000270723 0.000658388)
(0.971931 0.000218902 0.000704889)
(0.970067 0.000275596 0.000646935)
(0.971929 0.000223035 0.000705725)
(0.970066 0.000283027 0.000652908)
(0.971927 0.00022275 0.000706288)
(0.970066 0.000279827 0.000640691)
(0.971925 0.000224939 0.000690628)
(0.970061 0.000285489 0.000640576)
(0.97192 0.000232972 0.000700831)
(0.970056 0.000289197 0.000647856)
(0.971926 0.000240154 0.000694671)
(0.970061 0.000300958 0.000641601)
(0.971939 0.000243634 0.000700761)
(0.970065 0.000300691 0.000654292)
(0.971942 0.000242394 0.000705199)
(0.970066 0.000300672 0.000643658)
(0.971945 0.000243988 0.000694258)
(0.970068 0.000309059 0.000646201)
(0.971946 0.000243652 0.00070718)
(0.970071 0.000305348 0.000651349)
(0.971948 0.000239398 0.000701254)
(0.970075 0.000305601 0.00063958)
(0.97196 0.000234681 0.000704903)
(0.970078 0.000299424 0.000647979)
(0.971965 0.000229132 0.000706783)
(0.97008 0.000294389 0.000639245)
(0.998829 0.00021991 0.000459792)
(0.997629 0.000279429 0.000398112)
(0.998828 0.000218932 0.000460588)
(0.997631 0.000274992 0.000400238)
(0.998828 0.000216836 0.000460403)
(0.997632 0.000273439 0.000400335)
(0.998828 0.00022146 0.00046435)
(0.997632 0.000274353 0.000406386)
(0.998828 0.00021577 0.000468234)
(0.997632 0.000265577 0.000405331)
(0.998824 0.000210784 0.000464776)
(0.997628 0.000266614 0.00040581)
(0.998819 0.000213048 0.000467792)
(0.997626 0.000268299 0.000407387)
(0.998817 0.00021337 0.00046446)
(0.997625 0.000270907 0.000401697)
(0.998816 0.000215886 0.000461428)
(0.997625 0.000274396 0.000401302)
(0.998815 0.000216388 0.000459987)
(0.997623 0.000270335 0.000396326)
(0.998812 0.000216132 0.000453639)
(0.997618 0.000273237 0.000393989)
(0.998809 0.000222035 0.000455191)
(0.997615 0.00027779 0.000398918)
(0.998812 0.000227531 0.000457282)
(0.997616 0.000286591 0.000398694)
(0.998818 0.000230136 0.0004584)
(0.997618 0.00028593 0.000402335)
(0.99882 0.000228297 0.000461932)
(0.997619 0.000286938 0.000401028)
(0.998818 0.000229669 0.000460298)
(0.99762 0.000293124 0.000402083)
(0.998819 0.000230795 0.00046596)
(0.997621 0.0002903 0.000406455)
(0.998823 0.000227336 0.000465292)
(0.997622 0.000289228 0.00040298)
(0.998828 0.000224705 0.000464434)
(0.997623 0.000285569 0.00040286)
(0.99883 0.000221427 0.000464616)
(0.997625 0.00028152 0.000399377)
(1.01654 0.000200524 0.000320915)
(1.01585 0.000253252 0.000260875)
(1.01654 0.000199655 0.000319863)
(1.01585 0.0002498 0.000261475)
(1.01654 0.000197922 0.000320288)
(1.01585 0.00024828 0.000261603)
(1.01654 0.000200347 0.000321785)
(1.01585 0.000250588 0.000264227)
(1.01655 0.00019776 0.000323962)
(1.01585 0.000244744 0.000264623)
(1.01654 0.000193162 0.000322352)
(1.01585 0.000244815 0.000264429)
(1.01654 0.000195453 0.000323029)
(1.01585 0.000245898 0.000265651)
(1.01654 0.000195438 0.000321998)
(1.01585 0.000247574 0.000262467)
(1.01654 0.000196743 0.000318777)
(1.01585 0.000249888 0.000260525)
(1.01654 0.000198077 0.000317268)
(1.01585 0.000247999 0.00025829)
(1.01654 0.000197647 0.00031371)
(1.01585 0.000249793 0.000256223)
(1.01654 0.000202076 0.000313898)
(1.01584 0.00025515 0.000259447)
(1.01654 0.000206051 0.000316736)
(1.01584 0.000261201 0.000260435)
(1.01654 0.000207828 0.000317268)
(1.01585 0.000261056 0.000261295)
(1.01654 0.000205973 0.000319632)
(1.01585 0.000261721 0.000261549)
(1.01654 0.000207067 0.000319762)
(1.01585 0.000264587 0.000261787)
(1.01654 0.000208584 0.000322693)
(1.01585 0.000262818 0.000265346)
(1.01654 0.000206136 0.000324318)
(1.01585 0.000261439 0.000264566)
(1.01655 0.000204679 0.0003233)
(1.01585 0.0002586 0.000263753)
(1.01655 0.000201742 0.000323521)
(1.01585 0.000255474 0.000262863)
(1.02724 0.000165661 0.00023279)
(1.02688 0.000211274 0.000180216)
(1.02724 0.0001651 0.000231828)
(1.02688 0.000208852 0.00018066)
(1.02724 0.000163722 0.000232738)
(1.02688 0.000207976 0.000181074)
(1.02724 0.000165016 0.000233209)
(1.02688 0.000210333 0.000182246)
(1.02724 0.000163798 0.000234535)
(1.02688 0.000206509 0.000183048)
(1.02724 0.000160171 0.000233575)
(1.02688 0.000205634 0.000182175)
(1.02724 0.000161931 0.000233333)
(1.02688 0.000207122 0.000182711)
(1.02724 0.000162314 0.000233044)
(1.02688 0.000208058 0.000180623)
(1.02724 0.000163398 0.000230133)
(1.02688 0.000209927 0.00017847)
(1.02724 0.000164892 0.00022884)
(1.02688 0.000209126 0.000177593)
(1.02724 0.000164498 0.00022685)
(1.02688 0.000210062 0.000175726)
(1.02724 0.000167514 0.000226362)
(1.02688 0.000214558 0.000177603)
(1.02724 0.000170207 0.000228959)
(1.02688 0.000218392 0.000178837)
(1.02724 0.000171571 0.000229383)
(1.02688 0.000218849 0.00017882)
(1.02724 0.000169943 0.000231153)
(1.02688 0.000218363 0.000179564)
(1.02724 0.000170398 0.000231537)
(1.02688 0.000219405 0.000179241)
(1.02724 0.000171965 0.000232746)
(1.02688 0.000218562 0.000181776)
(1.02724 0.000170531 0.000234582)
(1.02688 0.000217258 0.000181977)
(1.02724 0.000169328 0.000233687)
(1.02688 0.00021568 0.000181277)
(1.02724 0.000167083 0.000233857)
(1.02688 0.000213263 0.00018149)
(1.03301 0.000124574 0.000170514)
(1.03284 0.000162359 0.000127699)
(1.03301 0.000124237 0.000169393)
(1.03285 0.000160811 0.000127522)
(1.03301 0.00012332 0.000170359)
(1.03285 0.000160133 0.00012865)
(1.03301 0.00012347 0.000170785)
(1.03284 0.000161702 0.0001288)
(1.03301 0.000122988 0.000171198)
(1.03285 0.000159566 0.000129705)
(1.03301 0.000120322 0.000171318)
(1.03284 0.000158346 0.000128995)
(1.03301 0.000121623 0.000170262)
(1.03284 0.000160019 0.000128556)
(1.03301 0.000122261 0.000170382)
(1.03284 0.000160728 0.00012793)
(1.033 0.000122909 0.000168502)
(1.03284 0.000162147 0.00012573)
(1.033 0.000124275 0.000166989)
(1.03284 0.000161755 0.000125431)
(1.033 0.000124102 0.000166359)
(1.03284 0.000162127 0.000124266)
(1.033 0.00012623 0.000165286)
(1.03284 0.000165839 0.000124832)
(1.03301 0.000128486 0.000167386)
(1.03284 0.000168686 0.000126512)
(1.03301 0.000129251 0.00016815)
(1.03284 0.000169004 0.000126002)
(1.03301 0.000128089 0.000168941)
(1.03284 0.000167907 0.000126894)
(1.03301 0.000128311 0.000170003)
(1.03284 0.000168146 0.000126726)
(1.03301 0.000129925 0.000169852)
(1.03284 0.000168018 0.000127711)
(1.03301 0.000129054 0.000171274)
(1.03284 0.000166813 0.000128814)
(1.03301 0.000127707 0.000170815)
(1.03284 0.000165975 0.000127709)
(1.03301 0.000126067 0.00017028)
(1.03284 0.000164057 0.000128214)
(1.03571 8.37688e-05 0.000121862)
(1.03565 0.000114041 8.99504e-05)
(1.03571 8.34224e-05 0.000121142)
(1.03565 0.000112867 8.91548e-05)
(1.03571 8.27979e-05 0.000121396)
(1.03565 0.00011247 9.04397e-05)
(1.03571 8.23947e-05 0.000122471)
(1.03565 0.000113434 9.0452e-05)
(1.03571 8.22896e-05 0.000122074)
(1.03565 0.000112531 9.07123e-05)
(1.03571 8.07485e-05 0.000122783)
(1.03565 0.000111329 9.07919e-05)
(1.03571 8.15393e-05 0.000121758)
(1.03565 0.000112532 8.95425e-05)
(1.03571 8.2332e-05 0.000121393)
(1.03565 0.00011326 8.96898e-05)
(1.03571 8.26552e-05 0.000120873)
(1.03564 0.000114133 8.81162e-05)
(1.03571 8.3736e-05 0.000119029)
(1.03564 0.000114054 8.74796e-05)
(1.03571 8.40267e-05 0.000119039)
(1.03564 0.000114286 8.73576e-05)
(1.03571 8.53982e-05 0.000118166)
(1.03564 0.000117186 8.69104e-05)
(1.03571 8.72921e-05 0.000119109)
(1.03564 0.000119517 8.85859e-05)
(1.03571 8.74393e-05 0.000120588)
(1.03564 0.000119443 8.83691e-05)
(1.03571 8.65748e-05 0.000120639)
(1.03564 0.000118284 8.87694e-05)
(1.03571 8.67681e-05 0.000121995)
(1.03564 0.00011793 8.94002e-05)
(1.03571 8.80041e-05 0.000121607)
(1.03564 0.000118148 8.91843e-05)
(1.03571 8.74984e-05 0.000121972)
(1.03565 0.000117371 9.04854e-05)
(1.03571 8.6055e-05 0.000122349)
(1.03565 0.000116813 8.96752e-05)
(1.03571 8.47836e-05 0.000121191)
(1.03565 0.000115561 8.95399e-05)
(1.03678 4.83088e-05 8.17959e-05)
(1.03676 7.19965e-05 5.97802e-05)
(1.03678 4.80889e-05 8.16424e-05)
(1.03676 7.09958e-05 5.89951e-05)
(1.03678 4.75665e-05 8.13194e-05)
(1.03676 7.07235e-05 5.97281e-05)
(1.03678 4.6983e-05 8.2511e-05)
(1.03676 7.13927e-05 6.00223e-05)
(1.03678 4.6945e-05 8.2064e-05)
(1.03676 7.11725e-05 5.9701e-05)
(1.03678 4.63351e-05 8.25024e-05)
(1.03676 7.01912e-05 6.01566e-05)
(1.03678 4.67032e-05 8.19826e-05)
(1.03676 7.08679e-05 5.89225e-05)
(1.03678 4.74492e-05 8.11328e-05)
(1.03676 7.1674e-05 5.89481e-05)
(1.03678 4.77579e-05 8.12671e-05)
(1.03676 7.22104e-05 5.8277e-05)
(1.03678 4.8667e-05 7.97636e-05)
(1.03676 7.22097e-05 5.73952e-05)
(1.03678 4.92865e-05 7.967e-05)
(1.03676 7.24172e-05 5.77882e-05)
(1.03678 5.00677e-05 7.93382e-05)
(1.03676 7.45952e-05 5.71534e-05)
(1.03678 5.12604e-05 7.94131e-05)
(1.03676 7.63871e-05 5.81869e-05)
(1.03678 5.11784e-05 8.10349e-05)
(1.03676 7.62414e-05 5.84998e-05)
(1.03678 5.06235e-05 8.10524e-05)
(1.03676 7.514e-05 5.84583e-05)
(1.03678 5.07138e-05 8.20523e-05)
(1.03676 7.44609e-05 5.94464e-05)
(1.03678 5.14744e-05 8.2073e-05)
(1.03676 7.47146e-05 5.90591e-05)
(1.03678 5.12767e-05 8.17484e-05)
(1.03676 7.4516e-05 5.98901e-05)
(1.03678 4.99529e-05 8.24388e-05)
(1.03676 7.41653e-05 5.97208e-05)
(1.03678 4.89494e-05 8.14208e-05)
(1.03676 7.3339e-05 5.90782e-05)
(1.03713 2.24985e-05 5.0302e-05)
(1.03713 4.03568e-05 3.60275e-05)
(1.03713 2.23631e-05 5.03749e-05)
(1.03713 3.94938e-05 3.55886e-05)
(1.03713 2.19125e-05 5.00565e-05)
(1.03713 3.93335e-05 3.58853e-05)
(1.03713 2.13001e-05 5.09287e-05)
(1.03713 3.98635e-05 3.62268e-05)
(1.03713 2.1272e-05 5.07299e-05)
(1.03713 3.98662e-05 3.58406e-05)
(1.03713 2.11562e-05 5.08114e-05)
(1.03713 3.91475e-05 3.617e-05)
(1.03713 2.13403e-05 5.05771e-05)
(1.03712 3.9436e-05 3.53143e-05)
(1.03713 2.1954e-05 4.97708e-05)
(1.03712 4.02261e-05 3.51139e-05)
(1.03713 2.23011e-05 4.98879e-05)
(1.03712 4.0643e-05 3.49185e-05)
(1.03713 2.30994e-05 4.89134e-05)
(1.03712 4.05753e-05 3.42073e-05)
(1.03713 2.38004e-05 4.86337e-05)
(1.03712 4.08403e-05 3.45309e-05)
(1.03713 2.42331e-05 4.85507e-05)
(1.03712 4.24393e-05 3.41062e-05)
(1.03713 2.47537e-05 4.8401e-05)
(1.03712 4.37871e-05 3.45217e-05)
(1.03713 2.46537e-05 4.95814e-05)
(1.03712 4.37107e-05 3.49942e-05)
(1.03713 2.4374e-05 4.9829e-05)
(1.03712 4.27128e-05 3.49329e-05)
(1.03713 2.43435e-05 5.04491e-05)
(1.03712 4.19555e-05 3.57437e-05)
(1.03713 2.47788e-05 5.07071e-05)
(1.03712 4.22294e-05 3.56275e-05)
(1.03713 2.47149e-05 5.03159e-05)
(1.03712 4.24308e-05 3.6062e-05)
(1.03713 2.36451e-05 5.08385e-05)
(1.03712 4.22076e-05 3.62009e-05)
(1.03713 2.28517e-05 5.02712e-05)
(1.03712 4.15278e-05 3.55837e-05)
(1.03722 6.40388e-06 2.80909e-05)
(1.03722 1.92458e-05 1.93499e-05)
(1.03722 6.35937e-06 2.81502e-05)
(1.03722 1.851e-05 1.91605e-05)
(1.03722 5.9429e-06 2.80141e-05)
(1.03722 1.84669e-05 1.92669e-05)
(1.03722 5.34905e-06 2.85183e-05)
(1.03722 1.89037e-05 1.94349e-05)
(1.03722 5.20352e-06 2.84855e-05)
(1.03722 1.88612e-05 1.91919e-05)
(1.03722 5.24008e-06 2.84207e-05)
(1.03722 1.83579e-05 1.93191e-05)
(1.03722 5.4491e-06 2.82266e-05)
(1.03722 1.84717e-05 1.87829e-05)
(1.03722 5.8948e-06 2.76658e-05)
(1.03722 1.91204e-05 1.85294e-05)
(1.03722 6.28072e-06 2.76173e-05)
(1.03722 1.94417e-05 1.84558e-05)
(1.03722 7.0172e-06 2.70135e-05)
(1.03722 1.9345e-05 1.80414e-05)
(1.03722 7.66762e-06 2.66923e-05)
(1.03722 1.96724e-05 1.81603e-05)
(1.03722 7.87199e-06 2.66267e-05)
(1.03722 2.08816e-05 1.78985e-05)
(1.03722 7.94745e-06 2.6534e-05)
(1.03722 2.19255e-05 1.80066e-05)
(1.03722 7.89222e-06 2.72566e-05)
(1.03722 2.189e-05 1.83577e-05)
(1.03722 7.79861e-06 2.76306e-05)
(1.03722 2.09959e-05 1.84525e-05)
(1.03722 7.74403e-06 2.80749e-05)
(1.03722 2.02765e-05 1.89961e-05)
(1.03722 7.98738e-06 2.83222e-05)
(1.03722 2.05596e-05 1.90917e-05)
(1.03722 7.89971e-06 2.81211e-05)
(1.03722 2.09372e-05 1.9377e-05)
(1.03722 7.12162e-06 2.84193e-05)
(1.03722 2.08584e-05 1.95699e-05)
(1.03722 6.53411e-06 2.81819e-05)
(1.03722 2.02574e-05 1.91811e-05)
(1.03724 -1.9512e-06 1.38478e-05)
(1.03725 6.78065e-06 8.80642e-06)
(1.03724 -1.9193e-06 1.38549e-05)
(1.03725 6.22875e-06 8.73144e-06)
(1.03724 -2.30956e-06 1.38388e-05)
(1.03724 6.28637e-06 8.75967e-06)
(1.03725 -2.91298e-06 1.41329e-05)
(1.03724 6.60425e-06 8.788e-06)
(1.03725 -3.16326e-06 1.41507e-05)
(1.03724 6.5032e-06 8.66471e-06)
(1.03724 -3.06353e-06 1.4059e-05)
(1.03724 6.16151e-06 8.69888e-06)
(1.03724 -2.8096e-06 1.38759e-05)
(1.03724 6.1973e-06 8.37128e-06)
(1.03724 -2.50245e-06 1.3535e-05)
(1.03724 6.65998e-06 8.15363e-06)
(1.03724 -2.08821e-06 1.33681e-05)
(1.03724 6.90301e-06 8.06459e-06)
(1.03724 -1.41458e-06 1.29509e-05)
(1.03724 6.82411e-06 7.86667e-06)
(1.03724 -8.83054e-07 1.26797e-05)
(1.03724 7.17305e-06 7.86029e-06)
(1.03724 -8.27283e-07 1.25989e-05)
(1.03724 8.14133e-06 7.66205e-06)
(1.03724 -9.69951e-07 1.2596e-05)
(1.03724 8.93173e-06 7.62942e-06)
(1.03724 -9.78084e-07 1.30062e-05)
(1.03724 8.86135e-06 7.80035e-06)
(1.03724 -9.57711e-07 1.33314e-05)
(1.03724 8.06664e-06 7.97897e-06)
(1.03724 -9.8138e-07 1.36864e-05)
(1.03724 7.48198e-06 8.34641e-06)
(1.03724 -8.98267e-07 1.38973e-05)
(1.03724 7.71498e-06 8.53082e-06)
(1.03724 -1.0797e-06 1.38397e-05)
(1.03724 8.18766e-06 8.76952e-06)
(1.03725 -1.58647e-06 1.39994e-05)
(1.03724 8.26263e-06 8.94157e-06)
(1.03725 -1.93379e-06 1.39196e-05)
(1.03724 7.67311e-06 8.77093e-06)
(1.03725 -5.13036e-06 5.57305e-06)
(1.03725 3.73038e-07 2.85386e-06)
(1.03725 -5.07097e-06 5.57945e-06)
(1.03725 4.23041e-08 2.84168e-06)
(1.03725 -5.42617e-06 5.62091e-06)
(1.03725 1.81209e-07 2.83604e-06)
(1.03725 -6.03149e-06 5.81862e-06)
(1.03725 4.02927e-07 2.7931e-06)
(1.03725 -6.3106e-06 5.8703e-06)
(1.03725 2.74475e-07 2.73771e-06)
(1.03725 -6.21527e-06 5.77555e-06)
(1.03725 1.49251e-08 2.7414e-06)
(1.03725 -5.97459e-06 5.60248e-06)