/*--------------------------------*- C++ -*----------------------------------*\
  =========                 |
  \\      /  F ield         | OpenFOAM: The Open Source CFD Toolbox
   \\    /   O peration     | Website:  https://openfoam.org
    \\  /    A nd           | Version:  10
     \\/     M anipulation  |
\*---------------------------------------------------------------------------*/
FoamFile
{
    format      ascii;
    class       volVectorField;
    location    "3";
    object      UMean;
}
// * * * * * * * * * * * * * * * * * * * * * * * * * * * * * * * * * * * * * //

dimensions      [0 1 -1 0 0 0 0];

internalField   nonuniform List<vector> 
25600
(
(1.10858 -0.0056563 -0.015557)
(1.11171 -0.00688938 -0.0335748)
(1.11261 -2.95345e-05 -0.04386)
(1.11968 0.00907775 -0.0407849)
(1.12794 0.014083 -0.0282566)
(1.13929 0.0159687 -0.0085067)
(1.1468 0.014256 0.00941515)
(1.14827 0.0105288 0.019191)
(1.15139 0.00632859 0.0186408)
(1.15095 0.000870745 0.00672326)
(1.14883 -0.00748038 -0.00615452)
(1.14416 -0.0156334 -0.0132314)
(1.13243 -0.0213997 -0.0128649)
(1.11846 -0.0258962 -0.00420655)
(1.10742 -0.0269181 0.00358135)
(1.09686 -0.0258278 0.00503243)
(1.08717 -0.0222122 -0.00251007)
(1.08099 -0.0142269 -0.0159228)
(1.08079 0.000542362 -0.0260056)
(1.09259 0.0209697 -0.0297629)
(1.11572 0.0386453 -0.0250971)
(1.14564 0.0457267 -0.0158158)
(1.16774 0.0402176 -0.00858696)
(1.16786 0.0267081 -0.00351901)
(1.14928 0.01243 -0.00173081)
(1.12091 0.0031273 -0.00190038)
(1.09991 -0.00268661 -0.00216554)
(1.09503 -0.00519464 -0.00437763)
(1.10068 -0.00512341 -0.0103862)
(1.1128 -0.00753669 -0.0219906)
(1.11984 -0.0124359 -0.0365182)
(1.11574 -0.0199649 -0.0476192)
(1.10465 -0.0246477 -0.0512312)
(1.09088 -0.0177186 -0.0458853)
(1.08408 -0.00223082 -0.0323606)
(1.08791 0.016109 -0.0148985)
(1.09351 0.0282946 -0.000375431)
(1.09771 0.0298519 0.00976948)
(1.10114 0.0209177 0.0106039)
(1.10395 0.00485441 6.08069e-05)
(1.11535 -0.011396 -0.0155387)
(1.10769 -0.00549091 -0.0344221)
(1.10689 0.0151026 -0.0341705)
(1.11522 0.030774 -0.0212391)
(1.12589 0.0286188 -0.00615513)
(1.13687 0.0142385 0.0117836)
(1.13814 -0.00490943 0.0290291)
(1.13059 -0.0178636 0.0359198)
(1.1283 -0.0199063 0.0286006)
(1.12997 -0.0158262 0.00768594)
(1.13145 -0.011739 -0.0117849)
(1.12494 -0.0103299 -0.0174313)
(1.10651 -0.0140247 -0.011891)
(1.08464 -0.023684 0.00426371)
(1.07363 -0.0322694 0.0217227)
(1.07668 -0.0318245 0.0322912)
(1.09219 -0.0197745 0.0293951)
(1.11234 -0.00671253 0.0105042)
(1.12385 0.00293584 -0.0117175)
(1.13041 0.0110313 -0.024276)
(1.13562 0.0159526 -0.0234223)
(1.14299 0.0204907 -0.0183896)
(1.15288 0.0281507 -0.0163314)
(1.15836 0.0387305 -0.0119974)
(1.16205 0.0489441 0.00123034)
(1.16104 0.0524331 0.0185683)
(1.15777 0.0444554 0.0260454)
(1.16103 0.0324018 0.0152601)
(1.1644 0.0198122 -0.0108637)
(1.16379 0.0063499 -0.0367552)
(1.15305 -0.00270474 -0.0482931)
(1.12978 -0.00954287 -0.0451248)
(1.10465 -0.0166803 -0.0328757)
(1.08425 -0.020341 -0.0196827)
(1.07701 -0.0167656 -0.00494483)
(1.08754 -0.00433656 0.0156848)
(1.10608 0.0123392 0.0368878)
(1.12316 0.023882 0.0501962)
(1.13028 0.0188865 0.0431368)
(1.1247 0.000632454 0.0152149)
(1.11281 0.0410065 -0.0301385)
(1.11253 0.0377696 -0.0209912)
(1.10845 0.0281016 0.00194508)
(1.10168 0.00683201 0.016661)
(1.09907 -0.015555 0.0182584)
(1.10593 -0.0272555 0.0189863)
(1.10485 -0.0293357 0.021852)
(1.09466 -0.0255795 0.0213438)
(1.08358 -0.0193859 0.0117204)
(1.07171 -0.0100505 -0.00384239)
(1.06976 -0.0020293 -0.010242)
(1.07571 -0.000612092 -0.000525892)
(1.08016 -0.00601492 0.0151687)
(1.07502 -0.0230717 0.0245799)
(1.06367 -0.0492142 0.0174697)
(1.05493 -0.0671998 -0.000873735)
(1.05411 -0.0629369 -0.0205251)
(1.06113 -0.04053 -0.0373836)
(1.07382 -0.00753195 -0.044566)
(1.09055 0.0256245 -0.0443345)
(1.10176 0.0465474 -0.0406728)
(1.10716 0.0525362 -0.031393)
(1.10896 0.0460827 -0.00950988)
(1.1108 0.0331851 0.0239498)
(1.12236 0.0233522 0.0517288)
(1.13361 0.0190342 0.0557128)
(1.13703 0.0144037 0.0339506)
(1.13741 0.0098246 0.000632403)
(1.13492 0.00848873 -0.0299222)
(1.13302 0.00784757 -0.0454671)
(1.12663 0.00417221 -0.0391193)
(1.11107 -0.00752231 -0.018695)
(1.09167 -0.0251817 0.000752963)
(1.07676 -0.0356912 0.00938695)
(1.07642 -0.0314091 0.00794841)
(1.08818 -0.0178015 0.00733296)
(1.10181 0.000237542 0.0139131)
(1.11086 0.018711 0.0172986)
(1.11286 0.0329579 0.00446189)
(1.11184 0.0406053 -0.0177005)
(1.10256 0.0212296 -0.0254654)
(1.10776 0.0169353 0.0159723)
(1.09972 0.016828 0.0473261)
(1.08004 0.00647265 0.0396938)
(1.06409 -0.0116381 0.0106187)
(1.06106 -0.0258293 -0.0102964)
(1.05822 -0.0303579 -0.016397)
(1.05367 -0.0213625 -0.0132178)
(1.04734 -0.00684814 -0.00693163)
(1.04704 -0.000899317 0.000681009)
(1.06246 -0.00705841 0.00999072)
(1.08726 -0.010318 0.0164289)
(1.10563 0.00279154 0.0133523)
(1.08995 0.00686732 -6.47664e-05)
(1.05302 -0.0169772 -0.0235157)
(1.02768 -0.0413168 -0.0448288)
(1.02268 -0.04386 -0.0561312)
(1.03007 -0.0281905 -0.0610696)
(1.03653 -0.0018832 -0.0591779)
(1.03457 0.0204828 -0.0552966)
(1.03174 0.0316917 -0.0459714)
(1.04256 0.0351644 -0.0201885)
(1.07168 0.0329504 0.0151901)
(1.10981 0.0324053 0.0381111)
(1.133 0.0329789 0.0308055)
(1.11555 0.0243023 -0.00114111)
(1.07106 0.00402049 -0.0317864)
(1.03797 -0.015244 -0.0390752)
(1.02809 -0.0199894 -0.0253891)
(1.03565 -0.0232365 -0.00764989)
(1.04951 -0.0329213 0.00134346)
(1.05183 -0.0459911 -0.00155552)
(1.04358 -0.060529 -0.00606783)
(1.03985 -0.0616537 0.00192323)
(1.0424 -0.0420557 0.0214233)
(1.05306 -0.0135053 0.0375031)
(1.0701 0.0168208 0.0344203)
(1.08421 0.0407083 0.0101906)
(1.09202 0.0482349 -0.0236706)
(1.09588 0.0373194 -0.0416925)
(1.09067 0.0312541 0.0257324)
(1.09494 0.0115817 0.0517072)
(1.09903 0.00384835 0.0531482)
(1.09678 0.00183472 0.0330752)
(1.08815 -1.75434e-05 0.016264)
(1.07977 0.000117467 0.00957292)
(1.07022 -0.00568655 0.00930699)
(1.06675 -0.0147718 0.0126243)
(1.07986 -0.0203179 0.0157667)
(1.10488 -0.0198117 0.0180921)
(1.12703 -0.00884329 0.0151599)
(1.1228 0.0153565 0.00608408)
(1.08677 0.0402143 -0.00649147)
(1.03921 0.0297576 -0.0273481)
(0.998629 -0.0157513 -0.05633)
(0.979854 -0.0585892 -0.0719542)
(0.985874 -0.0746514 -0.0671027)
(1.00639 -0.063211 -0.0517849)
(1.02497 -0.0367409 -0.0332712)
(1.03029 -0.0144736 -0.0217744)
(1.0357 -0.00551051 -0.0133082)
(1.06146 -0.00425681 -3.06542e-05)
(1.09412 -0.00486407 0.0101804)
(1.10011 -0.00127544 0.00953279)
(1.07833 0.0075136 -0.00550546)
(1.04622 0.0134661 -0.0267804)
(1.03155 0.00509158 -0.0308963)
(1.03969 -0.0233152 -0.00639689)
(1.04103 -0.0581025 0.030826)
(1.03245 -0.0793823 0.0429942)
(1.0272 -0.0709092 0.019437)
(1.02158 -0.047453 -0.0185679)
(1.02176 -0.0399672 -0.0446717)
(1.02738 -0.0467733 -0.0405914)
(1.03435 -0.0486554 -0.0144041)
(1.04874 -0.0360316 0.0107726)
(1.06914 -0.00758022 0.0160713)
(1.08585 0.0271889 0.00181578)
(1.09088 0.0536403 -0.0107498)
(1.08973 0.0534264 -0.00224132)
(1.09499 0.0164375 -0.000694018)
(1.11053 0.00903629 0.0170376)
(1.10909 0.0222081 0.0281363)
(1.09715 0.0314098 0.0325931)
(1.09322 0.0301766 0.0342784)
(1.10436 0.0232631 0.028865)
(1.11462 0.00629282 0.0222558)
(1.10791 -0.00926783 0.0240362)
(1.0883 -0.016935 0.0345239)
(1.07544 -0.0151469 0.0396873)
(1.08056 -0.00420883 0.0200228)
(1.08497 0.0127759 -0.0113235)
(1.07474 0.0274971 -0.0274675)
(1.04624 0.0193982 -0.0256714)
(1.00525 -0.0114535 -0.0232754)
(0.977416 -0.0481574 -0.026166)
(0.971402 -0.0735151 -0.0260899)
(0.990965 -0.0742311 -0.0121221)
(1.02776 -0.0512772 0.0107683)
(1.05391 -0.0243874 0.0252993)
(1.06689 -0.00996538 0.0309634)
(1.09046 -0.000848831 0.0280425)
(1.12926 0.00962911 0.0190406)
(1.14807 0.0183341 0.00894422)
(1.12623 0.0182973 -0.00464906)
(1.08509 0.00505972 -0.0104414)
(1.06305 -0.0169132 0.00614413)
(1.07113 -0.0366544 0.0351373)
(1.08625 -0.0379453 0.0455073)
(1.0893 -0.0259186 0.0192159)
(1.07658 -0.0225277 -0.00924778)
(1.04795 -0.0334127 -0.0148902)
(1.02429 -0.0530836 -0.0146949)
(1.02328 -0.062595 -0.0294866)
(1.04162 -0.0475455 -0.0537844)
(1.06482 -0.0162408 -0.0657701)
(1.07505 0.0196336 -0.0595144)
(1.07084 0.0477894 -0.0454016)
(1.06603 0.0558994 -0.0322831)
(1.0754 0.0405363 -0.0185138)
(1.09648 0.0281889 -0.0269039)
(1.09769 0.00813359 -0.0178058)
(1.09556 0.00975656 -0.0110395)
(1.09508 0.0167325 0.00605639)
(1.10947 0.0232974 0.0282899)
(1.14341 0.0257956 0.0350392)
(1.16654 0.0111051 0.0271972)
(1.14222 -0.0144331 0.0155698)
(1.08801 -0.0442937 0.0125869)
(1.04992 -0.060916 0.00832077)
(1.04937 -0.0450119 -0.0147701)
(1.06614 -0.0050604 -0.0405835)
(1.06653 0.0200437 -0.0438571)
(1.03222 -0.00181734 -0.0251766)
(0.98874 -0.0404199 -0.000669282)
(0.968585 -0.0553884 0.012294)
(0.972144 -0.048972 0.00338913)
(0.997861 -0.0408661 -0.0036361)
(1.03 -0.0301077 0.00975132)
(1.0442 -0.0170263 0.0371892)
(1.04798 -0.00844547 0.0661689)
(1.07357 0.000850133 0.0701349)
(1.11829 0.00712595 0.0490136)
(1.13611 0.0143998 0.025348)
(1.10757 0.0158706 0.0133615)
(1.05642 -5.90195e-05 0.0189994)
(1.02355 -0.015668 0.0253931)
(1.01401 -0.0211492 0.00483218)
(1.01795 -0.00793525 -0.0367)
(1.04431 0.0163403 -0.0587059)
(1.07554 0.0231033 -0.0343549)
(1.06521 0.00744969 0.0132795)
(1.01521 -0.0251538 0.0421835)
(0.971296 -0.0556383 0.0227836)
(0.969071 -0.0599895 -0.0307068)
(1.00044 -0.0360672 -0.0699947)
(1.03921 0.00236174 -0.0682991)
(1.06779 0.0355324 -0.0481809)
(1.08495 0.0551726 -0.0401733)
(1.09457 0.0526302 -0.03707)
(1.08584 0.0188481 -0.00400145)
(1.07993 -0.0122725 0.00510021)
(1.06547 -0.00672458 0.0141293)
(1.05572 0.0152288 0.0285033)
(1.0795 0.0285779 0.0333677)
(1.14164 0.0191396 0.0287157)
(1.16667 0.00928147 0.0210296)
(1.1062 0.0057923 0.00745545)
(1.02357 -0.0117701 -0.0118533)
(0.970849 -0.0286669 -0.038864)
(0.959188 -0.0276632 -0.0610509)
(0.971877 -0.0125609 -0.0531357)
(0.980362 -0.0128194 -0.0136576)
(0.969747 -0.0406101 0.0241365)
(0.95329 -0.0628962 0.0300257)
(0.94897 -0.0511349 0.00535995)
(0.953944 -0.0241137 -0.0243973)
(0.967744 -0.0144553 -0.0329282)
(0.980196 -0.0159701 -0.0182447)
(0.986031 -0.0198471 0.00444414)
(1.00685 -0.0164531 0.0283082)
(1.06612 0.00713629 0.0452534)
(1.12926 0.0291463 0.0417589)
(1.14237 0.0367478 0.0250682)
(1.09665 0.0186008 0.00475198)
(1.02831 -0.014723 -0.0125263)
(0.997877 -0.015053 -0.0139297)
(0.993735 0.0123381 -0.0101624)
(0.996403 0.0421367 -0.014059)
(1.01728 0.0518577 -0.0238547)
(1.0381 0.0287343 -0.0340519)
(1.04363 0.000696912 -0.0285955)
(1.02972 -0.0185022 -0.000953504)
(1.00347 -0.0332672 0.030041)
(1.00165 -0.0335544 0.0417538)
(1.03483 -0.0202967 0.0376441)
(1.07789 -3.15612e-07 0.0300395)
(1.09799 0.0328184 0.00734638)
(1.09558 0.0647948 -0.020738)
(1.09028 0.060806 -0.0211451)
(1.10754 0.025091 0.00662547)
(1.06534 0.012978 0.0102285)
(1.02247 0.0262516 0.0230418)
(1.03772 0.0421323 0.0391225)
(1.1033 0.0389448 0.0376694)
(1.15703 0.0224401 0.031597)
(1.13336 0.0271102 0.0253199)
(1.06917 0.0308953 0.0128627)
(1.02788 0.00138875 -0.00761831)
(0.996987 -0.0360599 -0.0486698)
(0.972351 -0.0567675 -0.0797189)
(0.97088 -0.0552817 -0.057764)
(0.98346 -0.0497635 0.00186048)
(0.988463 -0.0496896 0.0471424)
(0.981552 -0.0446855 0.0468592)
(0.965926 -0.0259478 0.0112887)
(0.950332 -0.00428576 -0.0252162)
(0.949923 0.00687399 -0.0379807)
(0.958519 0.0132267 -0.0278335)
(0.968552 0.0116029 -0.00779548)
(0.991507 0.00688934 0.0107347)
(1.04693 0.011805 0.0185398)
(1.10893 0.0221367 0.00769765)
(1.13124 0.0380006 -0.011856)
(1.09769 0.0350317 -0.0258556)
(1.03514 0.0107669 -0.024497)
(0.993323 0.0107271 -0.00313565)
(0.97463 0.0338553 0.014885)
(0.972448 0.0491216 0.00314703)
(0.984803 0.035291 -0.0374989)
(1.00019 0.00318749 -0.0720199)
(1.01645 -0.011928 -0.0693047)
(1.02686 -0.0118913 -0.0296038)
(1.02846 -0.0230233 0.0245506)
(1.03987 -0.0360395 0.058391)
(1.06468 -0.0297476 0.0583884)
(1.08227 0.000926159 0.0359709)
(1.08093 0.0479905 -6.79643e-05)
(1.08343 0.0762681 -0.0198728)
(1.10404 0.0598709 -0.00774864)
(1.06895 0.0213754 0.00545998)
(1.05183 0.0328084 0.0107737)
(1.03264 0.0434698 0.0368395)
(1.04637 0.0403273 0.0594023)
(1.08988 0.028011 0.0427746)
(1.12923 0.0194383 0.0177292)
(1.12545 0.0267695 0.0124142)
(1.10647 0.0177891 0.0184477)
(1.0964 -0.0101739 0.00601681)
(1.06741 -0.0271575 -0.0444522)
(1.02024 -0.0420935 -0.0787708)
(0.999602 -0.0568912 -0.0474604)
(1.0117 -0.0671264 0.016309)
(1.01962 -0.0657024 0.0554135)
(0.998221 -0.0448037 0.0544097)
(0.959396 -0.0161896 0.0288978)
(0.940202 0.00216333 0.00590577)
(0.951873 0.00931631 -0.00483697)
(0.971782 0.0130175 -0.00995386)
(0.985427 0.00944661 -0.0106944)
(0.999238 0.00635275 -0.0103501)
(1.03451 0.0129422 -0.0119931)
(1.07721 0.0269577 -0.0189381)
(1.0893 0.0467094 -0.0242124)
(1.05774 0.0423326 -0.021107)
(1.00624 0.0202733 -0.0150104)
(0.974929 0.0213779 -0.00317091)
(0.973158 0.0348175 0.00729311)
(0.982469 0.0397699 -0.0110687)
(0.984754 0.0286663 -0.0557685)
(0.982581 0.00525234 -0.0874074)
(0.992862 -0.00642939 -0.0804784)
(1.02063 -0.00823904 -0.0315054)
(1.04841 -0.0204433 0.0392653)
(1.05767 -0.0313483 0.0723928)
(1.04767 -0.024749 0.0552935)
(1.03505 -0.000180288 0.0226266)
(1.03047 0.034603 -0.00546887)
(1.03907 0.048247 -0.00961986)
(1.05766 0.0318911 0.000798005)
(1.03607 0.0286918 0.0109115)
(1.04402 0.0516438 0.0327551)
(1.03541 0.0647535 0.0678636)
(1.0425 0.0577883 0.0740321)
(1.07605 0.0338849 0.032217)
(1.1074 0.0161921 0.000974276)
(1.12347 0.0207697 0.00468415)
(1.12502 0.00905701 0.0122587)
(1.09489 -0.0149004 -0.00716599)
(1.02579 -0.0291931 -0.0514472)
(0.945938 -0.0539735 -0.0701965)
(0.92343 -0.0809419 -0.0277086)
(0.965705 -0.089024 0.0402442)
(1.00569 -0.0679299 0.0731263)
(0.993475 -0.029604 0.0590455)
(0.95224 -0.00166064 0.0291092)
(0.939046 0.00232536 0.0192467)
(0.960935 0.000884465 0.0224693)
(0.988062 0.0105548 0.021248)
(0.998416 0.0196996 0.017661)
(0.997697 0.0213982 0.00668648)
(1.01551 0.0231667 -0.0133454)
(1.05445 0.0343724 -0.0297875)
(1.07987 0.0521156 -0.0256076)
(1.05871 0.0477951 -0.00642063)
(1.00641 0.0283175 -0.000238411)
(0.976527 0.0242067 -0.00347894)
(0.983115 0.0274084 0.000305793)
(0.999836 0.0277789 -0.00921175)
(1.00873 0.0206094 -0.0436866)
(1.01313 0.00136805 -0.0700253)
(1.02466 -0.0134293 -0.0631673)
(1.04076 -0.0202217 -0.0157795)
(1.04895 -0.0273015 0.0543883)
(1.05457 -0.0266764 0.0931893)
(1.05761 -0.0214796 0.090663)
(1.04945 -0.015084 0.0649912)
(1.03436 0.00579873 0.0296928)
(1.02416 0.0227739 0.00859278)
(1.02224 0.0211696 0.00362094)
(1.02704 0.0336572 0.0374966)
(1.04087 0.0680293 0.0596816)
(1.03832 0.0844398 0.0834983)
(1.05961 0.0653845 0.0663923)
(1.08544 0.0299008 0.017079)
(1.08736 0.00954161 -0.000353347)
(1.08866 0.00936374 0.00219343)
(1.07829 -0.000445431 -0.0152382)
(1.0215 -0.00661335 -0.0416081)
(0.941812 -0.0095608 -0.0543022)
(0.879434 -0.049835 -0.0455362)
(0.872628 -0.102845 -0.00641208)
(0.920076 -0.117215 0.0465665)
(0.972142 -0.0794746 0.0698783)
(0.980843 -0.019333 0.0512704)
(0.962672 0.0131213 0.0220086)
(0.95466 0.00242345 0.0177932)
(0.955817 -0.0135239 0.0311262)
(0.962115 -0.00616449 0.0436549)
(0.970569 0.00900015 0.0456802)
(0.99324 0.0167027 0.0269283)
(1.04136 0.0196796 -0.00591967)
(1.08303 0.0298552 -0.027619)
(1.08074 0.0515592 -0.0126462)
(1.02961 0.0578585 0.0185088)
(0.973823 0.0422958 0.0209655)
(0.964969 0.0276388 0.00110067)
(0.983614 0.0220679 -0.0101885)
(0.997104 0.0237257 -0.0216414)
(1.01056 0.0217253 -0.0474263)
(1.03402 0.00614419 -0.0624163)
(1.06005 -0.00439562 -0.039861)
(1.05847 -0.00627513 0.0192077)
(1.03594 -0.0187787 0.0773723)
(1.04456 -0.0311535 0.094978)
(1.07779 -0.0360951 0.0930748)
(1.07535 -0.0296479 0.0803205)
(1.04233 -0.00161857 0.0523684)
(1.02038 0.0212836 0.0312966)
(1.01025 0.0211738 0.026266)
(1.02153 0.036965 0.0399706)
(1.03996 0.0809022 0.0705228)
(1.07285 0.0919856 0.0992251)
(1.10583 0.0697849 0.0671951)
(1.08826 0.0396021 0.0125781)
(1.05158 0.0120222 -8.70079e-05)
(1.05287 -0.00102813 -0.00902005)
(1.04259 -0.00174326 -0.0386528)
(0.975604 0.00939428 -0.0506187)
(0.910321 -0.00392635 -0.0370016)
(0.8614 -0.0689481 -0.0172571)
(0.844008 -0.124045 0.0117141)
(0.875958 -0.12371 0.0385192)
(0.935532 -0.0726111 0.0435378)
(0.974873 -0.00500433 0.0262847)
(0.985541 0.0251734 0.0144406)
(0.9738 0.00857663 0.0281681)
(0.943251 -0.0125347 0.0454128)
(0.928645 -0.0121467 0.0480017)
(0.936749 0.000993898 0.0282886)
(0.967326 0.0134611 -0.0101538)
(1.0135 0.0226201 -0.0428327)
(1.0404 0.0360206 -0.0429393)
(1.03577 0.0595514 -0.00300343)
(0.998785 0.068688 0.0362679)
(0.96646 0.0489785 0.0300403)
(0.978704 0.0245303 0.000904716)
(0.993187 0.016492 -0.0132141)
(0.98592 0.0155378 -0.0250654)
(0.985689 0.00777778 -0.053794)
(1.01107 -0.0107632 -0.0661683)
(1.04676 -0.0134625 -0.0266115)
(1.06114 -0.00329588 0.0542061)
(1.06793 -0.0149949 0.108104)
(1.07805 -0.0374847 0.0937357)
(1.0742 -0.0425203 0.0582609)
(1.04083 -0.0186074 0.0302831)
(1.01469 0.0206008 0.0164272)
(1.0137 0.0369909 0.0197818)
(1.01041 0.0229539 0.0268395)
(1.02018 0.0338933 0.0207535)
(1.07182 0.0692265 0.0690462)
(1.12217 0.0833683 0.110172)
(1.10999 0.0789658 0.0680762)
(1.05833 0.046545 0.00516762)
(1.04257 -0.000548373 -0.0113129)
(1.05996 -0.0148924 -0.0226187)
(1.03308 0.00463604 -0.0488689)
(0.977903 0.0221004 -0.0426527)
(0.944821 -0.00319153 -0.0130822)
(0.869195 -0.0689101 0.000823286)
(0.813812 -0.111264 0.0107805)
(0.824451 -0.104478 0.016518)
(0.868911 -0.0574363 0.00906028)
(0.918953 0.00393204 -0.00842895)
(0.976688 0.0319166 -0.00338142)
(0.99548 0.0194998 0.0373116)
(0.943084 -0.0100565 0.0649977)
(0.90811 -0.0277204 0.0510113)
(0.918642 -0.0177261 0.00396036)
(0.947764 0.00198386 -0.0451183)
(0.989359 0.0133842 -0.0693012)
(1.01991 0.0237862 -0.0563077)
(1.02152 0.0512182 -0.00649772)
(0.984239 0.072027 0.0325464)
(0.967061 0.0500432 0.0242166)
(0.994692 0.0176032 -0.00076558)
(0.997989 0.00927636 -0.0101329)
(0.962146 0.00799763 -0.0214662)
(0.944177 -0.00283506 -0.0463722)
(0.967122 -0.0268041 -0.0486856)
(1.00637 -0.0304586 5.03446e-05)
(1.0504 -0.021971 0.0844242)
(1.09856 -0.032189 0.125003)
(1.10435 -0.032616 0.0868738)
(1.05034 -0.0122096 0.0294024)
(0.99376 0.0125891 -0.00550889)
(0.991086 0.0357409 0.00332328)
(1.00989 0.0386816 0.0309771)
(1.00433 0.0210733 0.0222731)
(0.948709 0.000646231 -0.0208434)
(1.0591 0.0417173 0.0428218)
(1.12452 0.083903 0.0883939)
(1.09879 0.0856144 0.048766)
(1.06204 0.040047 -0.0005933)
(1.03644 -0.0105094 -0.0152888)
(1.01326 -0.0193831 -0.0374303)
(0.985223 0.00083653 -0.0625042)
(0.995892 0.0127236 -0.0335247)
(0.990099 -0.00518252 0.00368552)
(0.878488 -0.0558514 0.00822676)
(0.786249 -0.0910328 0.0136205)
(0.761586 -0.0855376 0.00834467)
(0.788056 -0.0496516 -0.0150095)
(0.889388 0.00147383 -0.0301778)
(1.01006 0.0339273 -0.00162418)
(1.00441 0.0342134 0.0440168)
(0.893478 -0.00333058 0.048998)
(0.852958 -0.0377279 0.0191109)
(0.892803 -0.0310936 -0.0307796)
(0.933729 -0.0151942 -0.0770133)
(0.974902 -0.00847918 -0.0960742)
(1.00792 0.00972865 -0.0683473)
(0.999578 0.0502672 -0.00806067)
(0.969529 0.0732722 0.0243448)
(0.985334 0.0450152 0.0164241)
(1.02173 0.0202244 0.00599584)
(1.00026 0.0238185 0.00391322)
(0.935936 0.0194755 -0.0158332)
(0.941683 0.000252575 -0.0365835)
(0.97898 -0.0322792 -0.0194314)
(0.991403 -0.0482808 0.0436061)
(1.03903 -0.0471147 0.10421)
(1.06064 -0.0403465 0.0931515)
(1.02508 -0.0160765 0.0455137)
(0.985046 0.00903467 0.00938593)
(0.964204 0.0251666 1.04947e-05)
(0.979428 0.045634 0.0373927)
(0.984106 0.0493831 0.0459694)
(0.934363 0.0131358 -0.00688588)
(0.873445 -0.045255 -0.0038628)
(0.982527 0.00953668 0.0495085)
(1.08113 0.0744498 0.0734548)
(1.09785 0.0789557 0.040922)
(1.07209 0.0350239 0.000520924)
(1.00188 -0.0109539 -0.0269884)
(0.950068 -0.0273203 -0.0517488)
(0.968559 -0.0207237 -0.0565662)
(1.02668 -0.0085323 -0.013874)
(1.02701 -0.00260472 0.00888576)
(0.912821 -0.0281106 0.0163446)
(0.777163 -0.0620574 0.0399353)
(0.715206 -0.0780698 0.0185069)
(0.768336 -0.0602571 -0.0268112)
(0.910391 -0.00839961 -0.0281859)
(1.00711 0.0406951 0.0131918)
(0.982661 0.0536785 0.0385856)
(0.920685 0.0043069 0.040451)
(0.879842 -0.0465464 0.0152262)
(0.893239 -0.0417076 -0.0517641)
(0.900898 -0.0246997 -0.107913)
(0.918961 -0.012821 -0.109549)
(0.939702 0.0122685 -0.066264)
(0.943332 0.0521552 -0.0163691)
(0.962268 0.0722729 0.0125093)
(1.00736 0.0490908 0.0248878)
(1.03326 0.0334851 0.0263785)
(0.990758 0.0404738 0.0163127)
(0.927441 0.032637 -0.0120811)
(0.988607 0.00585371 -0.0219209)
(1.04006 -0.0373795 0.00387089)
(1.02868 -0.0591348 0.0524465)
(1.01817 -0.0455113 0.0716395)
(0.940459 -0.0280845 0.0363314)
(0.91435 -0.00622071 -0.000502062)
(0.937983 0.0213973 -0.00934251)
(0.946119 0.0430924 0.0266056)
(0.957304 0.060735 0.0651981)
(0.954709 0.0514177 0.0227701)
(0.896784 -0.0127652 -0.0219654)
(0.904218 -0.0681478 0.0302096)
(0.951457 -0.0157059 0.076395)
(1.0266 0.0617016 0.0778703)
(1.10137 0.0707128 0.0489039)
(1.10635 0.0352569 0.00260562)
(0.992259 -0.00127664 -0.0450746)
(0.914843 -0.0296549 -0.0589349)
(0.976855 -0.0399127 -0.0273829)
(1.05036 -0.0181612 0.0181878)
(1.02489 0.0138127 0.0121482)
(0.919994 -0.00199802 0.0149312)
(0.833416 -0.0466955 0.0730166)
(0.778814 -0.085253 0.0615467)
(0.798227 -0.0756124 -0.0131416)
(0.898493 -0.00611288 -0.0295105)
(0.950767 0.055345 -0.00102938)
(1.0032 0.0590926 0.0181652)
(1.05784 0.00098739 0.0452836)
(0.98813 -0.0553188 0.043143)
(0.917011 -0.0541063 -0.0259977)
(0.877011 -0.0317332 -0.076085)
(0.881886 -0.0139826 -0.0630377)
(0.881953 0.00459655 -0.0362766)
(0.877374 0.0371819 -0.0156212)
(0.930519 0.0649119 0.0221091)
(1.01846 0.0524225 0.0533406)
(1.04484 0.0478533 0.0520232)
(0.977572 0.0652254 0.0269159)
(0.958102 0.0452244 0.00836346)
(1.07365 -0.000524404 0.0138696)
(1.09853 -0.0413872 0.0216345)
(1.01361 -0.0410011 0.0260608)
(0.92074 -0.0168432 0.0285028)
(0.843307 -0.0247614 0.0149316)
(0.875132 -0.015435 -0.0130725)
(0.93981 0.0257382 -0.0124448)
(0.96749 0.0485636 0.0445913)
(0.940488 0.0534655 0.0552572)
(0.929327 0.0404872 -0.0160315)
(0.923969 -0.0225934 -0.0292994)
(0.881327 -0.0758233 0.0331291)
(0.897294 -0.0194309 0.0868887)
(0.99367 0.0537313 0.0895556)
(1.09773 0.064681 0.0573752)
(1.09922 0.0397359 0.00539453)
(0.983368 0.00555291 -0.0472511)
(0.902473 -0.0317256 -0.059046)
(0.963739 -0.0454531 -0.00655126)
(1.0226 -0.012634 0.0465552)
(1.0155 0.0278638 0.0179148)
(0.964341 0.00726082 0.00653302)
(0.90052 -0.0399392 0.0770399)
(0.821265 -0.0779035 0.0776515)
(0.8023 -0.0712353 0.00146117)
(0.865485 0.00252276 -0.0337006)
(0.902959 0.0567256 -0.0220395)
(1.03397 0.0459842 0.0139925)
(1.1442 -0.00277687 0.043323)
(1.06615 -0.0431689 0.0263477)
(0.963524 -0.0388975 -0.0313768)
(0.892423 -0.0216487 -0.0526427)
(0.87168 -0.0138463 -0.0168238)
(0.830397 -0.00384935 0.00126213)
(0.805251 0.0270156 0.0143294)
(0.916909 0.0530599 0.0499368)
(1.03219 0.0413808 0.0681879)
(0.993129 0.0545909 0.0491073)
(0.943547 0.0755642 0.0268072)
(1.03616 0.0350942 0.0331013)
(1.1266 -0.00987744 0.0300411)
(1.02199 -0.031007 0.00778263)
(0.89002 -0.0205972 0.00571596)
(0.865912 -0.00381667 0.0271596)
(0.864565 -0.0272696 0.0389209)
(0.89632 -0.023582 0.0216488)
(0.95144 0.0170592 0.0167068)
(0.967741 0.0366545 0.0597335)
(0.905587 0.0384381 0.0445404)
(0.905611 0.0220475 -0.0319335)
(0.914438 -0.0385096 -0.0353806)
(0.816746 -0.076354 0.036023)
(0.864763 -0.0264576 0.0883111)
(0.96491 0.0416659 0.0867824)
(1.04643 0.0554491 0.0460776)
(1.06385 0.0366581 -0.00652641)
(0.976017 0.0105713 -0.05129)
(0.881886 -0.0242742 -0.0599819)
(0.925187 -0.0414694 0.00422283)
(1.01083 -0.00946619 0.0653851)
(1.06023 0.0310831 0.0307972)
(1.02494 0.00921123 0.0115629)
(0.943598 -0.0346592 0.0572884)
(0.856559 -0.0707165 0.044459)
(0.814534 -0.0629025 -0.0163712)
(0.845515 0.0110552 -0.0483202)
(0.887951 0.0501309 -0.0232221)
(1.03695 0.0252255 0.0477625)
(1.11915 -0.0160421 0.0585279)
(1.05674 -0.0390837 -0.00521536)
(0.999801 -0.0251854 -0.0568987)
(0.91159 -0.0125361 -0.0364119)
(0.821875 -0.0190408 0.003913)
(0.75331 -0.0131405 0.00170583)
(0.782814 0.0156284 0.0251651)
(0.963222 0.0370477 0.0687472)
(1.02411 0.0343641 0.0704283)
(0.92717 0.0566498 0.0439323)
(0.975064 0.0616972 0.0459006)
(1.12056 0.0150911 0.0463979)
(1.12228 -0.00397924 0.0176639)
(0.940039 -0.008676 0.0033203)
(0.828746 -0.0151181 0.0256808)
(0.874315 -0.0156885 0.0371897)
(0.878001 -0.0316011 0.0303812)
(0.885731 -0.0199107 0.0334457)
(0.922306 0.0127175 0.0564322)
(0.899504 0.0222382 0.0927809)
(0.844977 0.0191784 0.047337)
(0.864006 0.00538068 -0.0361202)
(0.843196 -0.0434869 -0.0320518)
(0.798817 -0.0758746 0.0363438)
(0.869935 -0.0287315 0.0834618)
(0.950998 0.0331156 0.0773021)
(1.00504 0.0427949 0.0217264)
(1.00303 0.0281206 -0.0330452)
(0.933417 0.014494 -0.0577169)
(0.868474 -0.014033 -0.056781)
(0.91927 -0.0383891 0.00172678)
(1.00083 -0.0112253 0.066859)
(1.05301 0.0289028 0.0422787)
(1.0415 0.0098639 0.0237087)
(1.00587 -0.0268251 0.0419112)
(0.951327 -0.060846 0.00440731)
(0.877578 -0.0533059 -0.0425945)
(0.882293 0.0163034 -0.0513841)
(0.937359 0.0450121 0.0234864)
(1.02215 0.00857169 0.0996995)
(1.04235 -0.0264374 0.045966)
(1.02263 -0.0360966 -0.0570864)
(1.00453 -0.00877682 -0.0767313)
(0.891475 0.00417704 -0.0261637)
(0.764853 -0.0156437 -0.0166936)
(0.72186 -0.0210042 -0.0276886)
(0.824164 -0.00479718 0.0259909)
(1.01119 0.0123734 0.0820952)
(1.00014 0.0226135 0.0704481)
(0.903384 0.0443846 0.0490242)
(1.02409 0.0375156 0.0545678)
(1.14573 0.00142758 0.0309285)
(1.09671 0.00409595 0.013533)
(0.941745 0.000611226 0.0241352)
(0.862147 -0.0278356 0.03587)
(0.877483 -0.0326633 0.0185027)
(0.841466 -0.0298471 -0.00210008)
(0.861441 -0.012328 0.0302415)
(0.89662 0.00922185 0.0899503)
(0.834795 0.00730503 0.105466)
(0.77468 0.00215998 0.0301789)
(0.787243 -0.00592954 -0.0344313)
(0.78008 -0.0464488 -0.0200417)
(0.788029 -0.0703766 0.0278259)
(0.86124 -0.0238113 0.0749736)
(0.944238 0.0284041 0.0586483)
(0.988453 0.0350966 -0.0130041)
(0.956699 0.0238132 -0.0528845)
(0.891878 0.0170318 -0.0532438)
(0.863923 -0.00730173 -0.0475503)
(0.913728 -0.0328439 -0.00561117)
(0.978795 -0.00262306 0.0427855)
(1.03847 0.0308992 0.0334404)
(0.997355 0.00030814 0.053762)
(0.976114 -0.0310343 0.0627399)
(1.00762 -0.0491009 -0.0217944)
(0.96345 -0.0334752 -0.065508)
(0.955519 0.0299948 -0.000882715)
(0.967565 0.0371638 0.102693)
(0.955526 -0.00589008 0.0896206)
(0.946113 -0.0383638 -0.0331188)
(0.964259 -0.0408079 -0.126711)
(0.965887 -6.77241e-05 -0.0976493)
(0.880897 0.0134839 -0.0377614)
(0.786804 -0.0179351 -0.0443297)
(0.776953 -0.0341389 -0.0277263)
(0.896909 -0.0230881 0.0543205)
(1.01246 0.000189929 0.0915559)
(0.928947 0.0220086 0.0544867)
(0.886847 0.0399667 0.0386055)
(1.06176 0.026012 0.0422227)
(1.10412 -0.00280587 0.0171045)
(1.03558 0.000736317 0.0173155)
(0.971704 -0.00731528 0.0217523)
(0.898549 -0.0337564 0.00951759)
(0.84605 -0.030614 -0.0113246)
(0.796701 -0.0222746 -0.0120075)
(0.84662 -0.00858477 0.047257)
(0.886758 0.0100658 0.109732)
(0.79202 0.00792392 0.0821553)
(0.718883 -0.00339796 -0.00343327)
(0.734907 -0.0159409 -0.03669)
(0.753571 -0.0516445 -0.0168819)
(0.77972 -0.0647438 0.0184288)
(0.841089 -0.0230257 0.0541499)
(0.92715 0.0201176 0.0135499)
(0.962317 0.0275675 -0.0564298)
(0.919667 0.0203016 -0.0668866)
(0.860947 0.0202838 -0.0500444)
(0.853828 0.00152676 -0.0398162)
(0.88919 -0.0257925 -0.00471701)
(0.96986 0.00342891 0.0198255)
(1.05863 0.0322209 0.0164181)
(0.938348 -0.0104355 0.0541281)
(0.880959 -0.0447314 0.0591508)
(0.973317 -0.048275 -0.0226553)
(0.963917 -0.0218961 -0.0338234)
(0.948575 0.0270891 0.0589798)
(0.952463 0.0235586 0.0836132)
(0.944174 -0.014122 0.0110096)
(0.925635 -0.0511646 -0.090618)
(0.905253 -0.0498803 -0.151694)
(0.904332 -0.00286114 -0.106214)
(0.87555 0.0156088 -0.0490875)
(0.83012 -0.0155346 -0.049911)
(0.841778 -0.043877 -0.0135663)
(0.957767 -0.0353377 0.0804995)
(1.00823 -0.00142892 0.098997)
(0.900902 0.0235476 0.0484028)
(0.957158 0.0308812 0.0511404)
(1.10753 0.016864 0.0553625)
(1.02462 -0.00567844 0.0130099)
(0.966925 -0.00766057 -0.00601275)
(0.973277 -0.0151154 -0.00777593)
(0.881853 -0.0302883 -0.00483176)
(0.787195 -0.0218692 -0.010431)
(0.772649 -0.0188882 -0.00660026)
(0.861675 -0.009607 0.0504526)
(0.877607 0.014325 0.0900904)
(0.752382 0.0110754 0.0418084)
(0.696018 -0.00867618 -0.0334249)
(0.737835 -0.0232114 -0.0588687)
(0.767632 -0.0529092 -0.0313292)
(0.767698 -0.0530568 0.00690127)
(0.810676 -0.0246626 0.0133597)
(0.872449 0.00939762 -0.0419536)
(0.897887 0.0204209 -0.0867414)
(0.873135 0.0164277 -0.0727446)
(0.842498 0.0229557 -0.0489379)
(0.848517 0.0121086 -0.0394156)
(0.859496 -0.0199652 -0.0101071)
(0.951654 0.00392158 0.012437)
(1.0817 0.0315513 0.0127749)
(0.941002 -0.0141817 0.0381279)
(0.835838 -0.0484801 0.0246152)
(0.942073 -0.0428101 -0.036736)
(0.940006 -0.0120678 -0.00983529)
(0.928491 0.0266605 0.0630808)
(0.961121 0.02109 0.0217278)
(0.954481 -0.0169819 -0.0577363)
(0.88977 -0.0544305 -0.117401)
(0.831595 -0.0502276 -0.147602)
(0.839776 -0.00870347 -0.112031)
(0.860611 0.00826173 -0.0541495)
(0.88991 -0.0127535 -0.0285537)
(0.870148 -0.0423836 0.000968895)
(0.908683 -0.0431448 0.0782878)
(0.944156 -0.00710067 0.0960125)
(0.928304 0.0143293 0.0596357)
(1.04175 0.0176929 0.0836809)
(1.09302 0.0147173 0.0624629)
(0.954401 -0.0037016 -0.0181265)
(0.937722 -0.0109746 -0.046513)
(0.94378 -0.0138238 -0.0196906)
(0.829285 -0.0233111 0.0163839)
(0.75315 -0.0182319 -0.000188917)
(0.788954 -0.0191929 -0.0258703)
(0.889679 -0.00704155 0.00794974)
(0.879978 0.0176496 0.0389492)
(0.728938 0.00577738 0.0181727)
(0.676229 -0.0178597 -0.0388873)
(0.736991 -0.0269613 -0.0735484)
(0.773052 -0.0451158 -0.0428576)
(0.743591 -0.0398056 0.00404047)
(0.769356 -0.0227566 -0.0167397)
(0.801011 0.00486227 -0.0697747)
(0.835756 0.017261 -0.0944037)
(0.842884 0.0135742 -0.0714213)
(0.829663 0.02559 -0.0466524)
(0.847585 0.0230385 -0.0468539)
(0.848617 -0.0128837 -0.0189382)
(0.925768 -0.00107598 0.0164977)
(1.08322 0.0268317 0.0221096)