# y+ ()       
# Time        	patch         	min           	max           	average       
93            	bottomWall	1.207028e+00	4.054902e+00	2.104375e+00
93            	topWall	1.289643e+00	3.496235e+00	2.104831e+00
