/*--------------------------------*- C++ -*----------------------------------*\
  =========                 |
  \\      /  F ield         | OpenFOAM: The Open Source CFD Toolbox
   \\    /   O peration     | Website:  https://openfoam.org
    \\  /    A nd           | Version:  10
     \\/     M anipulation  |
\*---------------------------------------------------------------------------*/
FoamFile
{
    format      ascii;
    class       volScalarField;
    location    "17";
    object      nut;
}
// * * * * * * * * * * * * * * * * * * * * * * * * * * * * * * * * * * * * * //

dimensions      [0 2 -1 0 0 0 0];

internalField   nonuniform List<scalar> 
25600
(
1.9076e-07
4.25943e-09
6.19797e-07
2.25426e-08
3.9754e-07
6.98922e-08
4.3956e-08
8.34851e-07
1.01487e-08
1.73762e-07
4.14374e-08
3.79773e-07
1.2244e-07
8.72849e-09
1.06295e-06
4.32379e-09
3.07065e-08
4.7298e-07
2.92204e-08
7.63346e-08
1.97767e-07
1.69217e-07
2.805e-08
5.65757e-07
3.80554e-08
2.25577e-08
2.80476e-07
1.72986e-07
3.44827e-08
2.24398e-08
5.44722e-07
1.09618e-08
1.79698e-07
2.85186e-08
6.3788e-08
2.00812e-07
2.38056e-08
7.82873e-07
8.77333e-09
1.02413e-07
3.63748e-07
1.68279e-08
2.56013e-07
2.11251e-08
7.82821e-07
1.09691e-08
1.62032e-08
1.05606e-06
8.33456e-09
1.63658e-07
4.39024e-08
4.25889e-07
2.16245e-08
1.08642e-08
1.0704e-06
5.67257e-09
2.00975e-07
4.50185e-07
1.68468e-08
2.8449e-07
9.54109e-08
2.44776e-07
2.32731e-08
1.23795e-07
4.51827e-07
1.26443e-08
2.91295e-07
3.60776e-07
1.2869e-08
2.8143e-07
3.28203e-07
1.95351e-08
3.56775e-07
2.46875e-08
1.53461e-07
2.56788e-08
1.18793e-08
9.74094e-07
5.71572e-09
8.51017e-09
5.63618e-07
3.85149e-08
7.0617e-09
2.56764e-08
6.93337e-07
1.22682e-08
5.3137e-08
8.62734e-07
1.35782e-08
2.08963e-07
4.98834e-08
3.24441e-07
1.59799e-08
2.74193e-08
8.51282e-07
6.18925e-09
3.9373e-07
3.70235e-07
1.21795e-08
5.01526e-07
7.33836e-08
1.21602e-07
3.18653e-08
1.18558e-08
6.14665e-07
7.08672e-09
3.86702e-07
2.5991e-07
9.20512e-09
8.79715e-07
2.93775e-08
1.87508e-08
6.25995e-07
1.54913e-08
1.63848e-07
2.75296e-08
6.58556e-09
8.80819e-07
9.39405e-09
2.20924e-09
6.45927e-07
2.77855e-08
8.97906e-09
2.64401e-07
3.13711e-07
1.66388e-08
2.95542e-07
3.8353e-07
2.14407e-08
2.6982e-07
4.49139e-08
1.79018e-07
1.94338e-08
1.07639e-07
4.96785e-07
6.8628e-09
4.42028e-07
2.31996e-07
1.17689e-08
6.16721e-07
5.50795e-08
5.04715e-08
1.83162e-07
2.05987e-08
4.8357e-07
7.59396e-09
4.30122e-07
4.6922e-08
6.78378e-09
1.11527e-06
1.13645e-08
1.38384e-08
7.02044e-07
1.11906e-08
2.51577e-07
3.47912e-08
7.35034e-09
6.87032e-07
3.39753e-08
8.77991e-09
5.31452e-07
3.38946e-08
2.29292e-08
3.67285e-07
3.50228e-08
2.54348e-08
3.81689e-07
1.55938e-08
4.72487e-08
3.09066e-07
4.21305e-08
9.72494e-08
5.04636e-08
1.39976e-07
1.86639e-07
1.96629e-08
2.96183e-07
1.91052e-07
1.74562e-08
5.87798e-07
4.91359e-08
4.62683e-08
4.18727e-07
2.79881e-08
2.52936e-07
2.70579e-08
3.14661e-07
3.13716e-08
2.0494e-08
8.7237e-07
1.21453e-08
1.67019e-07
4.85337e-07
1.31268e-08
2.76733e-07
4.18794e-08
3.10665e-08
4.08026e-07
6.16359e-08
2.96722e-08
2.99519e-07
5.35662e-08
9.07703e-08
2.27562e-07
1.09176e-08
7.65789e-08
3.50815e-07
1.65844e-08
1.26396e-07
3.86348e-07
4.32401e-08
1.10434e-07
1.88623e-07
7.65759e-08
1.26801e-07
7.76241e-08
8.77285e-08
2.39165e-07
3.81159e-08
5.39398e-07
5.41751e-08
6.47716e-08
6.17229e-07
3.43964e-08
1.15779e-07
1.03439e-07
1.56511e-07
3.26399e-08
8.19738e-08
4.58555e-07
1.28638e-08
3.0513e-07
2.59357e-07
3.09117e-08
1.0505e-07
7.21633e-08
1.49314e-07
1.16349e-07
7.9243e-08
1.12173e-07
7.44466e-08
8.11652e-08
2.39762e-07
1.00044e-07
2.51035e-08
1.5076e-07
3.85274e-07
3.6811e-08
2.45329e-07
4.90095e-07
5.1321e-08
2.05724e-07
2.35173e-07
6.44222e-08
2.44079e-07
1.03716e-07
1.34913e-07
2.85944e-07
7.53395e-08
5.46813e-07
4.97069e-08
9.61583e-08
7.02614e-07
4.495e-08
1.11587e-07
1.63861e-07
1.0904e-07
4.88634e-08
1.07073e-07
2.76284e-07
1.73271e-08
1.76714e-07
2.64309e-07
5.11372e-08
4.20811e-08
2.00004e-07
1.29138e-07
4.31107e-08
9.50859e-08
3.18557e-07
3.58061e-08
1.19591e-07
3.80023e-07
6.61851e-08
1.04271e-07
2.5772e-07
5.09311e-07
7.51338e-08
4.22587e-07
5.21775e-07
6.70973e-08
3.63262e-07
2.05935e-07
1.25301e-07
2.99394e-07
1.32792e-07
3.82046e-07
2.74507e-07
1.37805e-07
6.05843e-07
5.04129e-08
1.534e-07
7.18222e-07
7.28609e-08
1.03686e-07
2.18687e-07
1.66665e-07
6.80551e-08
1.27035e-07
3.01454e-07
2.1214e-08
1.20496e-07
4.01862e-07
4.66482e-08
9.95623e-08
3.2133e-07
7.97193e-08
4.51468e-08
1.05897e-07
5.4395e-07
4.87853e-08
1.83491e-07
4.89177e-07
5.92055e-08
2.62253e-07
4.98657e-07
6.59606e-07
1.78211e-07
6.71211e-07
4.97477e-07
7.31268e-08
4.63651e-07
2.33452e-07
2.7758e-07
2.67541e-07
2.94534e-07
6.92095e-07
2.57075e-07
2.49001e-07
6.57173e-07
6.63045e-08
2.52119e-07
6.93198e-07
1.01741e-07
1.00945e-07
3.14343e-07
2.08309e-07
7.81793e-08
2.30676e-07
2.7843e-07
2.67696e-08
2.13714e-07
4.72939e-07
5.16674e-08
3.0839e-07
2.62289e-07
6.87315e-08
8.11873e-08
1.19901e-07
7.86195e-07
8.46205e-08
2.887e-07
5.76112e-07
7.88851e-08
4.83303e-07
8.45794e-07
9.31681e-07
4.6192e-07
9.96317e-07
5.5904e-07
5.73341e-08
5.3713e-07
3.67994e-07
4.48218e-07
3.12526e-07
6.91854e-07
8.86534e-07
2.74751e-07
4.39351e-07
6.30293e-07
8.37698e-08
4.89404e-07
6.99704e-07
1.16587e-07
1.43165e-07
4.53586e-07
1.5666e-07
1.01881e-07
4.34492e-07
1.91016e-07
4.2207e-08
3.45471e-07
4.13496e-07
6.786e-08
5.48578e-07
1.56389e-07
6.35409e-08
1.34236e-07
1.27469e-07
1.05605e-06
1.50555e-07
4.36186e-07
6.8363e-07
1.67455e-07
6.96092e-07
1.04373e-06
1.03568e-06
6.37062e-07
1.23241e-06
6.81648e-07
1.21175e-07
6.87257e-07
6.63831e-07
5.82657e-07
5.61961e-07
1.38316e-06
1.02282e-06
2.70063e-07
7.02199e-07
5.38726e-07
9.67758e-08
8.51656e-07
6.0912e-07
1.53365e-07
2.94816e-07
5.34715e-07
1.37731e-07
1.53944e-07
5.67229e-07
1.71681e-07
9.63195e-08
4.80616e-07
3.43598e-07
1.24917e-07
5.82418e-07
8.78152e-08
7.58891e-08
2.26307e-07
2.11908e-07
1.30208e-06
2.46553e-07
5.1362e-07
8.14599e-07
3.04957e-07
7.68404e-07
1.11647e-06
1.25304e-06
6.29595e-07
1.04254e-06
5.57255e-07
1.67578e-07
7.99987e-07
8.68456e-07
6.16091e-07
9.71055e-07
2.17118e-06
1.18405e-06
3.11259e-07
9.36274e-07
3.23231e-07
1.29811e-07
1.17712e-06
5.42495e-07
2.55667e-07
4.93388e-07
4.95696e-07
1.16567e-07
3.20893e-07
6.04791e-07
1.66971e-07
2.19153e-07
6.24007e-07
3.48637e-07
3.28642e-07
6.11631e-07
1.79041e-07
2.3422e-07
2.53634e-07
3.92214e-07
1.57252e-06
4.00166e-07
7.22821e-07
9.91782e-07
4.14865e-07
1.10149e-06
1.63622e-06
1.61975e-06
9.08135e-07
1.00418e-06
3.66997e-07
2.2636e-07
9.82989e-07
8.14286e-07
5.83883e-07
1.36252e-06
2.75558e-06
1.38171e-06
5.00403e-07
1.35217e-06
3.0429e-07
2.3982e-07
1.28669e-06
5.10832e-07
4.22248e-07
8.1893e-07
6.43454e-07
3.14976e-07
5.15796e-07
5.34769e-07
1.26451e-07
3.13145e-07
7.67451e-07
6.88978e-07
7.33129e-07
6.00027e-07
1.7768e-07
6.44192e-07
5.59166e-07
6.97161e-07
1.55729e-06
8.16843e-07
1.30673e-06
1.38607e-06
5.71701e-07
2.4527e-06
3.43604e-06
2.04934e-06
1.22037e-06
1.73097e-06
6.24912e-07
3.08374e-07
1.36401e-06
1.15186e-06
1.07208e-06
1.22912e-06
2.62618e-06
2.19309e-06
1.39326e-06
1.5618e-06
4.73181e-07
5.49629e-07
1.27672e-06
6.06449e-07
5.95649e-07
1.53206e-06
1.26376e-06
8.86657e-07
7.97358e-07
4.90131e-07
2.0361e-07
2.59985e-07
1.01105e-06
1.39564e-06
1.37196e-06
1.30846e-06
3.84381e-07
3.45309e-07
5.92824e-07
1.54542e-06
1.73789e-06
1.5819e-06
2.04672e-06
1.87106e-06
8.15602e-07
3.45185e-06
5.52822e-06
4.13632e-06
2.24133e-06
2.20583e-06
1.29148e-06
1.57858e-06
3.00568e-06
2.47775e-06
1.95901e-06
1.59976e-06
2.23828e-06
4.2186e-06
5.09501e-06
4.85021e-06
2.597e-06
1.97909e-06
1.90596e-06
7.25191e-07
1.17897e-06
2.26619e-06
1.87812e-06
1.04804e-06
1.19497e-06
9.71823e-07
3.63072e-07
6.97274e-07
1.60584e-06
2.00064e-06
1.66936e-06
1.73616e-06
1.91439e-06
2.06923e-06
2.2766e-06
2.69238e-06
2.58091e-06
3.99705e-06
2.84875e-06
1.76532e-06
9.92703e-07
4.5611e-06
5.61724e-06
4.24122e-06
2.08961e-06
2.73641e-06
2.3273e-06
3.47445e-06
5.68292e-06
4.42553e-06
3.00634e-06
3.0655e-06
4.01588e-06
5.92641e-06
7.77977e-06
7.7013e-06
5.30728e-06
4.54442e-06
3.69957e-06
2.9592e-06
2.60038e-06
1.76048e-06
2.98167e-06
2.39011e-06
1.61616e-06
1.35943e-06
5.10623e-07
1.52347e-06
2.52977e-06
2.75856e-06
2.06301e-06
1.36287e-06
2.79995e-06
4.33863e-06
3.98248e-06
4.16239e-06
5.00515e-06
5.41845e-06
2.13393e-06
1.17384e-06
1.83456e-06
5.66428e-06
4.23656e-06
2.8928e-06
2.6691e-06
3.28873e-06
3.36606e-06
5.31617e-06
6.74565e-06
4.52791e-06
5.02809e-06
5.54432e-06
4.59372e-06
3.54516e-06
4.08411e-06
5.26738e-06
4.46382e-06
5.34185e-06
6.07844e-06
5.80188e-06
3.59919e-06
2.15548e-06
4.18018e-06
3.51671e-06
2.75369e-06
1.54484e-06
7.86216e-07
2.27039e-06
3.1592e-06
2.79722e-06
1.60821e-06
1.73566e-06
3.03409e-06
5.02396e-06
3.88218e-06
8.71446e-06
8.946e-06
2.87505e-06
3.4391e-06
2.34262e-06
4.20227e-06
5.71091e-06
4.85491e-06
3.08105e-06
3.52889e-06
3.39706e-06
2.37073e-06
2.0318e-06
3.35049e-06
5.13692e-06
5.47398e-06
5.69492e-06
4.10978e-06
2.86676e-06
2.74146e-06
2.75143e-06
2.20668e-06
4.31403e-06
6.79186e-06
4.72785e-06
3.16814e-06
3.80688e-06
3.75913e-06
7.00151e-06
4.75334e-06
2.22961e-06
1.57697e-06
3.08644e-06
4.22412e-06
2.64685e-06
1.4533e-06
3.03824e-06
3.02883e-06
3.48259e-06
5.14151e-06
9.11061e-06
5.62868e-06
3.15541e-06
3.96831e-06
5.82978e-06
2.14435e-06
6.70313e-06
4.39121e-06
3.90289e-06
7.44276e-06
5.36404e-06
3.27431e-06
2.79862e-06
4.31331e-06
5.95355e-06
6.65342e-06
6.84276e-06
6.62966e-06
4.776e-06
4.31277e-06
3.67269e-06
3.83645e-06
4.4687e-06
5.3306e-06
1.88916e-06
4.04264e-06
4.76114e-06
6.41602e-06
1.01366e-05
4.94724e-06
2.12244e-06
3.65987e-06
5.35024e-06
7.63468e-06
6.57549e-06
4.32588e-06
4.06871e-06
4.70936e-06
3.9273e-06
4.7871e-06
4.31673e-06
1.60802e-06
2.75058e-06
5.42522e-06
3.18076e-06
4.71722e-06
5.55905e-06
5.13981e-06
8.36064e-06
7.91165e-06
6.50788e-06
5.2705e-06
3.28066e-06
4.16081e-06
7.81939e-06
7.50321e-06
6.63142e-06
7.26578e-06
3.19666e-06
5.92012e-06
5.16362e-06
3.88586e-06
4.70001e-06
4.39181e-06
5.35241e-06
4.63904e-06
5.09787e-06
8.79386e-06
8.20565e-06
3.90359e-06
2.22603e-06
4.69743e-06
5.31671e-06
7.81018e-06
9.9686e-06
6.61581e-06
5.65947e-06
4.24492e-06
3.92909e-06
3.65792e-06
2.47678e-06
6.19686e-06
5.48296e-06
4.94456e-06
3.23295e-06
4.38838e-06
9.42452e-06
1.07498e-05
1.02324e-05
7.4791e-06
6.39233e-06
3.52095e-06
3.70579e-06
6.18128e-06
6.5267e-06
4.93124e-06
5.37712e-06
4.92985e-06
3.39121e-06
5.75894e-06
4.7506e-06
3.19447e-06
3.60847e-06
5.71924e-06
5.5636e-06
3.43638e-06
7.5807e-06
9.67984e-06
7.06548e-06
3.86494e-06
3.9e-06
3.92676e-06
3.59808e-06
5.62812e-06
7.67879e-06
8.19669e-06
4.96043e-06
1.75984e-06
3.60194e-06
7.42271e-06
6.71121e-06
7.96527e-06
9.58137e-06
4.28685e-06
4.51976e-06
8.37979e-06
1.40217e-05
1.4327e-05
7.15625e-06
6.44145e-06
5.53993e-06
6.42406e-06
9.10213e-06
8.13761e-06
6.07815e-06
4.53464e-06
6.50942e-06
3.84433e-06
4.57097e-06
4.39378e-06
6.17195e-06
1.7589e-06
4.406e-06
4.86904e-06
3.02727e-06
5.70947e-06
1.0089e-05
1.04922e-05
6.76575e-06
3.77734e-06
4.46315e-06
2.25919e-06
4.0449e-06
7.46273e-06
7.99092e-06
7.1251e-06
2.10235e-06
2.30824e-06
7.49823e-06
4.9188e-06
4.61443e-06
6.58756e-06
1.00718e-05
5.93937e-06
6.78127e-06
8.17051e-06
1.20093e-05
1.22759e-05
3.75547e-06
7.45836e-06
6.68379e-06
8.24558e-06
7.18881e-06
6.46866e-06
6.26024e-06
5.93713e-06
6.74462e-06
6.18198e-06
3.32403e-06
6.48357e-06
7.94196e-06
2.90639e-06
5.84681e-06
8.24099e-06
7.80865e-06
9.77241e-06
1.07783e-05
8.43644e-06
4.46275e-06
3.66088e-06
4.39695e-06
2.47444e-06
5.55304e-06
9.58195e-06
8.69531e-06
4.81192e-06
3.38784e-06
4.94581e-06
5.43111e-06
3.8003e-06
5.54602e-06
1.23148e-05
8.54279e-06
5.46549e-06
3.3057e-06
6.49167e-06
1.03548e-05
5.80254e-06
8.05128e-06
5.40421e-06
9.7309e-06
6.91852e-06
3.30678e-06
3.95643e-06
5.12177e-06
6.08325e-06
5.08105e-06
6.9074e-06
3.29653e-06
8.6812e-06
7.82898e-06
3.83433e-06
4.96324e-06
6.59338e-06
7.5258e-06
9.87876e-06
8.88049e-06
7.04522e-06
5.51389e-06
4.00398e-06
5.56081e-06
3.36398e-06
5.30725e-06
8.73547e-06
7.72784e-06
5.00605e-06
4.46546e-06
4.79629e-06
4.34387e-06
4.48273e-06
8.90177e-06
1.19047e-05
7.57441e-06
3.28951e-06
2.12847e-06
5.6357e-06
5.62517e-06
6.2586e-06
8.66919e-06
7.34097e-06
1.26909e-05
7.25557e-06
4.35514e-06
5.8191e-06
6.07024e-06
4.10437e-06
5.55784e-06
6.31743e-06
6.82829e-06
8.9912e-06
4.02935e-06
3.20386e-06
4.19623e-06
4.33974e-06
4.19667e-06
8.01365e-06
7.00362e-06
7.97789e-06
5.98827e-06
4.62642e-06
6.88679e-06
3.09222e-06
6.79951e-06
8.78278e-06
8.24403e-06
5.44228e-06
2.52979e-06
4.25705e-06
4.76016e-06
4.97948e-06
8.06096e-06
9.43206e-06
7.74707e-06
7.38582e-06
2.73567e-06
4.58259e-06
4.28724e-06
5.08895e-06
5.16391e-06
1.28016e-05
1.35943e-05
8.95484e-06
9.13783e-06
1.0598e-05
5.3855e-06
3.89439e-06
6.87756e-06
9.79488e-06
1.19194e-05
7.29837e-06
2.96951e-06
4.26939e-06
3.38703e-06
2.13327e-06
2.13087e-06
7.56655e-06
5.8565e-06
6.15771e-06
3.97765e-06
3.90445e-06
2.50501e-06
8.2386e-06
8.8351e-06
1.03738e-05
7.72881e-06
3.64792e-06
1.63735e-06
3.36179e-06
4.26725e-06
4.40488e-06
6.34943e-06
9.75678e-06
6.74207e-06
1.08159e-05
4.09514e-06
5.251e-06
4.02386e-06
6.82399e-06
1.22433e-05
1.75222e-05
1.4367e-05
1.28404e-05
1.42742e-05
1.06583e-05
5.96947e-06
9.83192e-06
1.31488e-05
1.5025e-05
1.34338e-05
6.21847e-06
4.89947e-06
4.50045e-06
5.57704e-06
4.33658e-06
3.89778e-06
6.62913e-06
5.46776e-06
5.34516e-06
3.67375e-06
1.63935e-06
6.65651e-06
1.01837e-05
1.58209e-05
1.40307e-05
7.95575e-06
2.64213e-06
1.65227e-06
2.90285e-06
4.12282e-06
4.68477e-06
7.7312e-06
1.18225e-05
1.07949e-05
7.42623e-06
8.21809e-06
8.68914e-06
1.58177e-05
1.70047e-05
1.86012e-05
2.01371e-05
1.6306e-05
1.58225e-05
1.49197e-05
1.02417e-05
1.25711e-05
1.8746e-05
1.75536e-05
1.59965e-05
1.32375e-05
7.27269e-06
4.18806e-06
9.989e-06
1.57243e-05
1.22815e-05
6.06893e-06
9.25662e-06
1.13483e-05
3.69138e-06
5.13109e-06
9.10407e-06
1.25701e-05
2.08172e-05
2.38181e-05
1.70026e-05
8.28038e-06
2.40368e-06
4.13534e-06
6.64432e-06
9.09725e-06
1.04643e-05
1.45338e-05
1.02865e-05
1.21323e-05
1.98571e-05
2.23597e-05
2.73173e-05
2.84552e-05
2.16874e-05
2.12708e-05
2.08146e-05
1.62286e-05
1.62791e-05
1.59361e-05
1.43298e-05
2.04653e-05
2.20159e-05
1.69946e-05
1.51215e-05
1.40822e-05
9.73309e-06
1.04651e-05
2.23571e-05
2.58444e-05
1.98743e-05
1.86944e-05
2.33084e-05
1.50643e-05
6.13844e-06
1.33238e-05
2.46565e-05
2.43139e-05
2.73566e-05
2.50289e-05
1.76092e-05
8.62287e-06
5.85008e-06
1.6721e-05
1.96979e-05
1.91447e-05
1.9735e-05
1.94956e-05
1.19697e-05
2.41852e-05
3.26702e-05
3.69902e-05
3.86166e-05
3.05667e-05
2.1274e-05
2.11199e-05
1.88916e-05
1.57218e-05
1.75553e-05
1.85291e-05
1.87782e-05
2.35477e-05
2.06379e-05
1.55753e-05
1.69844e-05
1.76683e-05
1.71915e-05
2.35835e-05
3.10435e-05
3.01246e-05
2.61543e-05
3.0771e-05
3.3031e-05
2.25927e-05
2.00338e-05
2.90492e-05
3.23628e-05
2.68969e-05
2.6838e-05
2.44609e-05
2.00271e-05
1.58941e-05
2.19987e-05
3.15899e-05
2.96956e-05
2.69742e-05
2.68358e-05
2.33894e-05
1.88384e-05
3.1467e-05
3.8593e-05
4.1324e-05
3.69e-05
2.62124e-05
1.98166e-05
1.91492e-05
1.72808e-05
1.70474e-05
1.90398e-05
1.98625e-05
2.04242e-05
2.2847e-05
1.87339e-05
1.67558e-05
2.1166e-05
2.21883e-05
2.48459e-05
3.0377e-05
3.21312e-05
3.13254e-05
3.23518e-05
3.7302e-05
3.71465e-05
3.14042e-05
3.10715e-05
3.3779e-05
3.08622e-05
2.55016e-05
2.55615e-05
2.55231e-05
2.51278e-05
2.69687e-05
3.37138e-05
3.67873e-05
3.29471e-05
3.11077e-05
3.07217e-05
2.71227e-05
2.64477e-05
3.45219e-05
3.90254e-05
3.7331e-05
3.01586e-05
2.2545e-05
1.98068e-05
1.78017e-05
1.68136e-05
1.82305e-05
1.93878e-05
1.96695e-05
1.97704e-05
2.09812e-05
1.77885e-05
1.84369e-05
2.34855e-05
2.46313e-05
2.81532e-05
3.14653e-05
3.03132e-05
3.1783e-05
3.53512e-05
3.74952e-05
3.69006e-05
3.48559e-05
3.33285e-05
3.09947e-05
2.70065e-05
2.4779e-05
2.53163e-05
2.6019e-05
2.81363e-05
3.27034e-05
3.66212e-05
3.57173e-05
3.2418e-05
3.1772e-05
3.06593e-05
2.8446e-05
3.04966e-05
9.49086e-08
6.93523e-09
5.95595e-07
2.33291e-08
5.65754e-07
4.94267e-08
3.45507e-08
9.00055e-07
1.07238e-08
6.14818e-08
3.20039e-08
5.12685e-07
6.07429e-08
7.73749e-09
1.16096e-06
3.72378e-09
4.25678e-08
5.45821e-07
2.08033e-08
2.37697e-07
1.89009e-07
8.05394e-08
4.87702e-08
4.93707e-07
4.15133e-08
2.71798e-08
2.61837e-07
2.08836e-07
2.69734e-08
2.67324e-08
5.55843e-07
1.32811e-08
1.60677e-07
4.03454e-08
1.66031e-07
1.62147e-07
3.07699e-08
7.44688e-07
1.03195e-08
1.83214e-07
2.39319e-07
5.32656e-08
1.38893e-07
2.4113e-08
9.44548e-07
8.92671e-09
1.94111e-08
9.34785e-07
1.30096e-08
1.35976e-07
1.74014e-08
6.15533e-07
1.22739e-08
7.20958e-09
1.13139e-06
6.00707e-09
2.92495e-07
5.0969e-07
1.66679e-08
4.52492e-07
8.27206e-08
1.79545e-07
3.7827e-08
6.88816e-08
5.12918e-07
1.19857e-08
2.27856e-07
5.09018e-07
1.10296e-08
3.10764e-07
4.74646e-07
1.93975e-08
3.73554e-07
4.69515e-08
2.20087e-07
3.35956e-08
1.58894e-08
9.38401e-07
8.34672e-09
1.67255e-08
5.13639e-07
1.00887e-07
6.31482e-09
1.001e-07
7.58977e-07
1.74759e-08
1.4842e-07
5.89557e-07
1.9731e-08
2.16132e-07
1.14348e-08
5.70947e-07
1.04679e-08
1.89945e-08
8.60396e-07
6.85372e-09
5.29703e-07
3.85632e-07
1.44244e-08
6.49432e-07
5.04847e-08
1.26202e-07
4.93129e-08
6.40667e-09
6.8623e-07
7.56022e-09
3.29383e-07
4.61922e-07
1.0359e-08
9.77954e-07
1.01284e-07
1.9735e-08
7.69334e-07
2.78372e-08
2.14868e-07
5.91301e-08
8.37434e-09
9.33344e-07
1.21254e-08
3.23244e-09
7.28806e-07
1.64414e-08
6.23262e-09
5.5588e-07
2.63785e-07
2.72746e-08
3.93404e-07
9.12787e-08
2.7339e-08
2.41633e-07
1.64425e-08
4.58438e-07
1.39538e-08
8.86261e-08
4.65496e-07
6.07452e-09
6.17696e-07
1.91191e-07
1.46209e-08
7.49335e-07
2.96006e-08
7.07612e-08
2.27495e-07
1.89785e-08
4.94909e-07
1.01592e-08
4.55097e-07
1.40385e-07
8.04189e-09
1.36997e-06
1.44137e-08
1.86868e-08
9.56216e-07
2.02324e-08
3.32067e-07
6.91957e-08
6.9812e-09
8.98612e-07
4.1694e-08
8.70258e-09
7.44557e-07
1.56623e-08
2.30273e-08
6.51889e-07
8.52336e-09
6.67521e-08
3.30716e-07
1.76844e-08
7.01052e-08
2.27665e-07
3.20816e-08
3.23958e-07
2.63195e-08
1.27151e-07
1.30065e-07
7.29154e-09
5.07418e-07
1.14271e-07
1.93148e-08
7.33532e-07
2.275e-08
6.37442e-08
5.14783e-07
2.57086e-08
2.45812e-07
3.02591e-08
3.87863e-07
5.37383e-08
1.78583e-08
1.27996e-06
1.5395e-08
2.48484e-07
7.53523e-07
2.6442e-08
4.04604e-07
6.96796e-08
2.03932e-08
7.68655e-07
7.06577e-08
2.8664e-08
5.3713e-07
2.58182e-08
2.0328e-07
4.30888e-07
2.43179e-09
1.74831e-07
1.38005e-07
1.8626e-08
1.30144e-07
2.87658e-07
3.78192e-08
2.34457e-07
8.17147e-08
7.21432e-08
4.6296e-08
2.20963e-08
3.01339e-07
1.15786e-07
3.55018e-08
6.94447e-07
2.11742e-08
9.34773e-08
7.35722e-07
2.48269e-08
1.61809e-07
1.39131e-07
2.01133e-07
6.12962e-08
1.81706e-07
8.53178e-07
2.2198e-08
5.54682e-07
4.34089e-07
5.65959e-08
2.533e-07
8.38165e-08
2.0569e-07
5.45138e-07
9.17565e-08
1.36773e-07
2.03384e-07
3.65991e-08
4.7417e-07
1.94531e-07
3.30768e-08
1.78646e-07
1.158e-07
2.74049e-08
1.27402e-07
4.1399e-07
3.26906e-08
2.64127e-07
1.22108e-07
5.38945e-08
5.34611e-08
4.64287e-08
2.62047e-07
1.09053e-07
7.29492e-08
6.5891e-07
2.49811e-08
1.85048e-07
7.47842e-07
2.7388e-08
2.52322e-07
1.9181e-07
1.49001e-07
1.07898e-07
3.49016e-07
5.40124e-07
5.0376e-08
5.68978e-07
3.46035e-07
9.34529e-08
1.22413e-07
1.11728e-07
4.1684e-07
3.52613e-07
1.14034e-07
4.36302e-07
6.55427e-08
5.20153e-08
6.53981e-07
1.3674e-07
1.09231e-07
1.7078e-07
1.83915e-07
3.93546e-08
2.03239e-07
5.13489e-07
4.40698e-08
3.4529e-07
1.07232e-07
1.1271e-07
6.2956e-08
1.0198e-07
3.76206e-07
1.04727e-07
1.59646e-07
5.8376e-07
3.67899e-08
3.84268e-07
5.42204e-07
4.29592e-08
3.3229e-07
1.80505e-07
2.30449e-07
1.78302e-07
4.3429e-07
4.96346e-07
1.14139e-07
5.45794e-07
4.05409e-07
8.96548e-08
1.29156e-07
1.50209e-07
5.50234e-07
2.54813e-07
1.41574e-07
7.20653e-07
7.5388e-08
8.92243e-08
8.33313e-07
1.50095e-07
1.8088e-07
2.30167e-07
2.12215e-07
6.33773e-08
3.56593e-07
5.93025e-07
1.0093e-07
3.04726e-07
1.32323e-07
2.56059e-07
8.29491e-08
2.33487e-07
5.03595e-07
1.23181e-07
3.35489e-07
4.30693e-07
5.92036e-08
5.68789e-07
2.74863e-07
8.15138e-08
2.6933e-07
2.05708e-07
3.54669e-07
2.43867e-07
5.93345e-07
5.42672e-07
1.95159e-07
6.27465e-07
3.53015e-07
7.94508e-08
1.97112e-07
1.76331e-07
6.67647e-07
2.90699e-07
1.76272e-07
9.29756e-07
1.17577e-07
1.58088e-07
1.04386e-06
1.77652e-07
2.74579e-07
3.58199e-07
2.40724e-07
1.13701e-07
4.88875e-07
7.45628e-07
2.46982e-07
1.849e-07
2.3227e-07
3.63023e-07
1.33406e-07
4.85353e-07
5.69455e-07
1.79124e-07
6.08998e-07
3.25734e-07
9.18524e-08
6.69601e-07
2.15432e-07
1.38295e-07
1.51749e-07
2.6699e-07
4.05011e-07
3.23959e-07
8.24648e-07
6.15251e-07
3.5154e-07
7.78749e-07
2.33421e-07
8.92449e-08
3.09163e-07
1.94336e-07
8.4398e-07
3.47686e-07
2.15873e-07
1.13648e-06
1.94687e-07
3.31241e-07
1.27293e-06
2.50292e-07
4.29525e-07
4.49994e-07
2.96116e-07
2.79603e-07
6.73341e-07
1.07299e-06
4.83369e-07
1.4405e-07
4.68539e-07
3.50494e-07
2.1433e-07
8.66247e-07
6.71841e-07
2.67201e-07
7.40622e-07
2.91647e-07
1.44822e-07
6.78234e-07
2.50562e-07
2.37564e-07
1.45718e-07
3.03346e-07
4.14569e-07
4.54031e-07
9.89285e-07
6.94603e-07
6.37621e-07
8.43853e-07
1.57606e-07
1.30282e-07
4.55475e-07
2.37808e-07
1.11216e-06
3.73803e-07
2.79172e-07
1.39373e-06
3.39375e-07
6.43381e-07
1.57358e-06
4.79264e-07
6.17413e-07
4.88557e-07
3.18918e-07
3.23882e-07
8.1415e-07
1.57232e-06
6.9036e-07
2.09451e-07
8.1936e-07
3.41782e-07
3.85337e-07
1.26446e-06
8.33131e-07
5.40391e-07
9.63758e-07
2.54877e-07
2.11018e-07
7.57193e-07
3.60832e-07
3.70762e-07
1.77665e-07
4.0028e-07
4.84687e-07
7.13184e-07
1.05541e-06
8.75575e-07
1.04181e-06
7.21788e-07
1.98455e-07
2.21763e-07
6.16056e-07
3.57442e-07
1.44223e-06
4.1107e-07
3.61584e-07
1.64788e-06
5.24097e-07
1.02147e-06
1.92703e-06
7.70602e-07
6.69417e-07
5.13265e-07
6.76368e-07
4.13339e-07
7.87426e-07
1.9529e-06
7.94463e-07
3.98734e-07
1.04413e-06
3.64379e-07
6.46124e-07
1.72697e-06
1.14445e-06
9.50416e-07
1.29866e-06
2.86665e-07
3.7022e-07
6.51804e-07
5.47255e-07
6.10697e-07
3.87539e-07
4.65308e-07
5.408e-07
1.03021e-06
1.0503e-06
1.03137e-06
1.36931e-06
5.94906e-07
4.0411e-07
4.52607e-07
8.64065e-07
4.58534e-07
1.68091e-06
5.72482e-07
4.17956e-07
1.79972e-06
7.82697e-07
1.44183e-06
2.51646e-06
1.68511e-06
8.45515e-07
7.0974e-07
9.67306e-07
7.20976e-07
9.39813e-07
1.99142e-06
1.06181e-06
5.39793e-07
1.42699e-06
3.19937e-07
8.83279e-07
2.20059e-06
2.00782e-06
1.41312e-06
1.3599e-06
3.27859e-07
8.83294e-07
7.40093e-07
1.21858e-06
1.42272e-06
5.8669e-07
3.18776e-07
6.30627e-07
1.16184e-06
9.62942e-07
9.75303e-07
1.04856e-06
6.8721e-07
8.46411e-07
1.01001e-06
1.6882e-06
9.10982e-07
2.00409e-06
6.54671e-07
2.36442e-07
1.96741e-06
1.41235e-06
1.87736e-06
3.85426e-06
3.96569e-06
1.73508e-06
1.50996e-06
9.69672e-07
8.67436e-07
1.36806e-06
3.14616e-06
1.42254e-06
1.15938e-06
1.68672e-06
2.35758e-07
1.47515e-06
2.67382e-06
4.20852e-06
4.12792e-06
2.19964e-06
2.18083e-07
1.89251e-06
2.75565e-06
4.0508e-06
4.003e-06
1.66623e-06
4.44153e-07
9.13619e-07
1.81327e-06
1.05252e-06
1.05102e-06
8.96212e-07
5.73068e-07
1.38337e-06
1.47917e-06
2.83589e-06
2.1427e-06
3.16486e-06
1.14088e-06
3.26324e-07
2.03248e-06
2.57085e-06
3.452e-06
6.16813e-06
6.52819e-06
4.4112e-06
4.13288e-06
4.18753e-06
2.02754e-06
2.30979e-06
4.19677e-06
3.38835e-06
3.21841e-06
2.51685e-06
9.58799e-07
1.36906e-06
5.73675e-06
6.81748e-06
6.47077e-06
3.95573e-06
4.49706e-06
8.6484e-06
7.41355e-06
7.29354e-06
6.1364e-06
3.11343e-06
1.09044e-06
1.378e-06
2.7677e-06
1.88432e-06
1.15951e-06
1.10233e-06
8.63122e-07
1.3327e-06
1.7163e-06
3.88282e-06
3.14383e-06
4.03629e-06
1.38781e-06
7.39147e-07
2.91755e-06
3.2646e-06
4.81908e-06
8.17195e-06
7.70372e-06
6.20375e-06
7.78835e-06
5.91477e-06
2.0682e-06
4.19412e-06
8.60104e-06
7.87457e-06
2.8231e-06
5.22626e-06
7.90297e-07
5.5213e-06
9.04111e-06
5.61383e-06
5.64968e-06
5.46027e-06
9.34972e-06
1.07552e-05
6.32703e-06
5.37379e-06
4.70803e-06
4.49231e-06
2.23695e-06
3.47005e-06
3.22826e-06
1.6999e-06
2.29716e-06
2.57618e-06
7.02174e-07
1.5631e-06
2.24176e-06
4.2745e-06
3.91981e-06
3.64372e-06
3.00247e-07
2.51491e-06
7.87127e-06
1.39154e-06
5.79869e-06
1.2361e-05
7.19158e-06
5.47224e-06
6.89282e-06
2.59262e-06
3.36289e-06
1.11754e-05
1.37833e-05
5.31518e-06
5.37746e-06
3.73651e-06
5.37869e-06
9.50982e-06
7.61477e-06
6.32927e-06
4.5259e-06
5.74642e-06
9.84184e-06
7.79756e-06
4.03806e-06
3.7359e-06
3.60139e-06
6.49473e-06
4.38032e-06
5.43208e-06
4.00301e-06
2.3966e-06
4.18923e-06
4.80484e-06
2.164e-06
1.37685e-06
5.19425e-06
4.76222e-06
3.50539e-06
3.9795e-06
2.10125e-06
6.04232e-06
5.51291e-06
1.76096e-06
1.0103e-05
1.06074e-05
5.56871e-06
6.31617e-06
3.12577e-06
6.95217e-06
1.17603e-05
1.82706e-05
9.40971e-06
3.27712e-06
3.63149e-06
5.42594e-06
1.06066e-05
8.12245e-06
9.68169e-06
8.53013e-06
5.90562e-06
7.7092e-06
8.59925e-06
5.83973e-06
4.52035e-06
4.82446e-06
4.57854e-06
6.45215e-06
5.46912e-06
6.37739e-06
4.57987e-06
3.58621e-06
5.9033e-06
7.83182e-06
5.19952e-06
6.22694e-06
4.54473e-06
4.69417e-06
4.5635e-06
5.18791e-06
3.0091e-06
4.99323e-06
4.21917e-06
1.07152e-05
1.27439e-05
5.36127e-06
4.70802e-06
4.10685e-06
4.66739e-06
7.14789e-06
2.20043e-05
1.26941e-05
7.01656e-06
8.14069e-06
1.18086e-05
1.81591e-05
1.35821e-05
7.2866e-06
9.86001e-06
8.77706e-06
6.3625e-06
5.03376e-06
5.99957e-06
5.77553e-06
3.98638e-06
2.33012e-06
5.60277e-06
4.0077e-06
4.46682e-06
8.51121e-06
4.30711e-06
1.3484e-06
6.06124e-06
1.07248e-05
1.09569e-05
6.81368e-06
4.49938e-06
4.668e-06
8.68741e-06
4.82746e-06
2.71291e-06
4.46388e-06
5.53032e-06
1.8005e-05
1.32712e-05
4.34768e-06
3.87925e-06
7.88457e-06
6.82642e-06
1.54621e-05
1.17529e-05
5.69934e-06
1.09497e-05
1.68711e-05
1.81925e-05
2.04855e-05
8.9523e-06
6.14274e-06
9.62837e-06
5.16394e-06
3.01631e-06
5.19393e-06
4.95179e-06
3.38857e-06
5.03872e-06
6.2377e-06
6.31694e-06
3.50594e-06
6.80599e-06
9.03767e-06
4.4187e-06
2.04999e-06
7.42592e-06
1.22503e-05
1.10697e-05
8.79726e-06
6.9517e-06
5.406e-06
6.52192e-06
6.69779e-06
1.09827e-05
1.21716e-05
1.61017e-05
1.67241e-05
1.19561e-05
6.6293e-06
8.05965e-06
9.176e-06
9.2285e-06
1.43662e-05
5.78261e-06
2.95043e-06
1.3458e-05
1.05927e-05
1.26196e-05
1.17018e-05
5.16231e-06
8.59379e-06
7.86111e-06
1.82646e-06
4.69696e-06
5.00274e-06
3.11157e-06
4.21265e-06
1.25984e-05
1.16519e-05
8.26308e-06
7.33586e-06
1.11902e-05
7.38578e-06
3.63321e-06
3.20207e-06
1.01818e-05
9.07856e-06
8.22373e-06
1.1569e-05
6.85632e-06
2.98427e-06
7.77883e-06
1.86166e-05
1.96586e-05
1.09173e-05
1.82883e-05
1.26017e-05
7.69078e-06
4.82411e-06
5.71854e-06
7.58259e-06
1.2537e-05
1.09917e-05
3.81134e-06
3.2775e-06
7.66681e-06
3.30446e-06
5.37423e-06
4.52658e-06
5.21916e-06
1.005e-05
3.02808e-06
1.77881e-06
6.01752e-06
3.47128e-06
2.0697e-06
1.17829e-05
1.3898e-05
1.17937e-05
9.69421e-06
8.56808e-06
1.09558e-05
6.90956e-06
4.15766e-06
1.03745e-05
1.04397e-05
5.93255e-06
4.60954e-06
7.16682e-06
4.25141e-06
4.75716e-06
1.2935e-05
2.6499e-05
1.56634e-05
9.58996e-06
1.88949e-05
5.8627e-06
2.96615e-06
4.02497e-06
7.1905e-06
5.30238e-06
5.99152e-06
7.41394e-06
5.13807e-06
4.40706e-06
4.31441e-06
2.73515e-06
3.06855e-06
4.45055e-06
6.54267e-06
5.61682e-06
1.02477e-06
3.58918e-06
5.63994e-06
4.3262e-06
8.19477e-06
1.00076e-05
4.79475e-06
6.49086e-06
8.28934e-06
7.73517e-06
9.66465e-06
7.11046e-06
8.09909e-06
1.32185e-05
9.88437e-06
5.88631e-06
4.56492e-06
6.0472e-06
5.44725e-06
9.51611e-06
1.73924e-05
2.06262e-05
1.01118e-05
9.15721e-06
9.52248e-06
4.97162e-06
1.62971e-06
5.5287e-06
7.49529e-06
1.35237e-06
2.81817e-06
4.50071e-06
5.11312e-06
3.28793e-06
3.73209e-06
4.04291e-06
5.35534e-06
9.18596e-06
7.24846e-06
3.42344e-06
3.34998e-06
5.45845e-06
6.07637e-06
5.43696e-06
8.9092e-06
7.16391e-06
9.97997e-06
4.64063e-06
7.51589e-06
7.75821e-06
5.04329e-06
3.58969e-06
9.03279e-06
1.29516e-05
1.07266e-05
6.95273e-06
5.81076e-06
6.73692e-06
8.62095e-06
1.52025e-05
1.59711e-05
1.08002e-05
6.19156e-06
5.19264e-06
4.18523e-06
3.3724e-06
1.50447e-06
7.09134e-06
7.23381e-06
2.37956e-06
2.71338e-06
3.31756e-06
4.01964e-06
6.08445e-06
8.17027e-06
6.31279e-06
8.90846e-06
1.1151e-05
6.38345e-06
3.71343e-06
6.69255e-06
7.36506e-06
8.29847e-06
1.02169e-05
7.53071e-06
7.80967e-06
6.22123e-06
5.50598e-06
7.12395e-06
7.63665e-06
4.52225e-06
5.78494e-06
7.96244e-06
1.15629e-05
1.02202e-05
7.58077e-06
6.77009e-06
6.80214e-06
9.95431e-06
1.58743e-05
1.25068e-05
6.19226e-06
3.88916e-06
2.78351e-06
3.8313e-06
6.41704e-06
3.99074e-06
7.6142e-06
7.86266e-06
5.87822e-06
6.95884e-06
6.42831e-06
7.46597e-06
1.27773e-05
1.22954e-05
8.08091e-06
9.64232e-06
9.1377e-06
4.95382e-06
5.85688e-06
9.04588e-06
9.88621e-06
1.19785e-05
1.0586e-05
6.17475e-06
6.36238e-06
7.83867e-06
8.12351e-06
7.59274e-06
1.12541e-05
1.37429e-05
9.69987e-06
1.15939e-05
1.24556e-05
1.17959e-05
9.81573e-06
8.0737e-06
7.96711e-06
1.19448e-05
1.6137e-05
1.05175e-05
5.59125e-06
3.20145e-06
2.35199e-06
3.82768e-06
9.48534e-06
7.94767e-06
9.3628e-06
1.14416e-05
1.07011e-05
1.16535e-05
1.03234e-05
1.23071e-05
1.62756e-05
1.25764e-05
9.62855e-06
9.97751e-06
8.08617e-06
6.50958e-06
9.11463e-06
1.37761e-05
1.42055e-05
1.23903e-05
8.37412e-06
8.64398e-06
1.19312e-05
1.37659e-05
9.62701e-06
6.266e-06
1.04582e-05
1.14458e-05
1.56477e-05
1.99985e-05
1.5624e-05
1.3804e-05
1.0997e-05
8.94614e-06
9.54908e-06
1.43618e-05
1.65089e-05
1.01878e-05
5.16481e-06
4.31264e-06
6.58555e-06
9.60885e-06
1.16232e-05
1.32459e-05
1.58281e-05
1.58217e-05
1.30838e-05
1.41476e-05
1.37557e-05
1.41366e-05
1.52824e-05
1.19425e-05
1.09164e-05
9.92855e-06
8.65641e-06
9.80888e-06
1.52694e-05
1.88888e-05
1.61139e-05
1.14565e-05
1.15368e-05
1.61694e-05
1.7771e-05
1.59514e-05
1.20755e-05
7.49646e-06
6.00876e-06
1.61339e-05
2.83783e-05
2.54795e-05
1.62819e-05
1.35865e-05
1.04318e-05
9.07275e-06
1.12604e-05
1.70794e-05
1.63959e-05
9.6255e-06
6.57729e-06
9.62615e-06
1.28543e-05
1.29391e-05
1.29545e-05
1.7809e-05
2.14002e-05
1.70784e-05
1.37801e-05
1.5802e-05
1.48545e-05
1.32912e-05
1.34018e-05
1.21431e-05
1.15388e-05
1.04681e-05
1.09461e-05
1.34188e-05
1.88373e-05
1.93772e-05
1.61141e-05
1.43555e-05
1.83494e-05
2.22245e-05
1.95455e-05
1.76959e-05
1.6678e-05
1.68972e-05
2.03711e-05
2.88501e-05
3.24801e-05
2.29674e-05
1.44933e-05
1.20903e-05