/*--------------------------------*- C++ -*----------------------------------*\
  =========                 |
  \\      /  F ield         | OpenFOAM: The Open Source CFD Toolbox
   \\    /   O peration     | Website:  https://openfoam.org
    \\  /    A nd           | Version:  10
     \\/     M anipulation  |
\*---------------------------------------------------------------------------*/
FoamFile
{
    format      ascii;
    class       volScalarField;
    location    "17";
    object      p;
}
// * * * * * * * * * * * * * * * * * * * * * * * * * * * * * * * * * * * * * //

dimensions      [0 2 -2 0 0 0 0];

internalField   nonuniform List<scalar> 
25600
(
0.000229661
-6.85163e-07
0.000212274
0.00031614
0.000260671
0.000452886
-0.000270455
0.000443349
0.000567902
-0.000123124
-8.72115e-05
0.000146423
0.000617753
-0.000429102
-0.000150729
0.000502959
-0.000322553
9.84688e-05
0.00021676
-0.000111742
0.000311115
0.000597316
7.78646e-05
0.0002836
0.000829226
0.000383133
0.000426289
0.000826677
0.000686811
0.000257233
0.000608085
0.000617772
0.000386052
0.000386248
0.000133909
0.000445719
-0.000165585
8.34834e-05
0.000417639
-0.000140571
5.26326e-05
0.000264562
0.000262712
-4.35841e-06
0.000465228
0.000686663
-0.000462003
0.000501867
0.00066602
-0.000172974
-7.46817e-05
0.000258091
0.000524101
-0.000488718
0.000118424
0.000330511
-0.000473437
0.000398552
0.000104122
-0.000173442
0.000359596
0.000548348
0.000324151
0.000101647
0.000772271
0.000565024
0.000228018
0.000965507
0.000514932
0.000179566
0.000881879
0.000419996
0.000234263
0.000421749
0.000273613
0.00043931
-0.00044558
8.56284e-05
0.000645371
-0.000284961
-9.74328e-05
0.000555477
0.000176158
-0.000116411
0.000746551
0.000638328
-0.000413373
0.000595055
0.000548781
-0.000132738
1.64508e-05
0.000288889
0.000365281
-0.00043567
0.000276964
0.00012875
-0.000497881
0.000565895
-4.60695e-05
-0.000210884
0.000507614
0.00042494
0.000426408
0.000142937
0.000680276
0.000592993
0.000285141
0.00112802
0.000227557
0.000326257
0.0011373
3.23916e-05
0.00026796
0.000554602
0.000240444
0.000355779
-0.000561579
1.58905e-05
0.000712333
-0.000405419
-0.000111937
0.000670273
2.57714e-05
-2.51917e-06
0.0008673
0.000431159
-0.000135499
0.000600776
0.000308656
3.04632e-05
0.000143198
0.000204501
0.000213431
-0.000271783
0.00028116
-4.53082e-05
-0.00037028
0.000551335
-0.000202444
-0.000154343
0.000643228
0.000256668
0.000457051
0.000334985
0.000558323
0.000550329
0.000473127
0.00106399
1.60466e-05
0.000658832
0.00104816
-0.000309493
0.00049457
0.000606357
0.000119065
0.000240905
-0.00059504
-3.29988e-06
0.000591714
-0.000508732
8.10293e-07
0.000576399
-3.72058e-05
0.000235539
0.000837263
0.000296123
0.000239648
0.000486945
6.9461e-05
0.00025697
0.000248637
2.4862e-05
0.000148494
-6.68347e-05
0.000147179
-0.00013102
-0.000224642
0.00037539
-0.00028481
-3.4748e-05
0.000697107
9.06086e-05
0.000485871
0.000576672
0.000418762
0.000511593
0.000660138
0.000859277
2.4267e-05
0.000989671
0.000848293
-0.000395749
0.000698895
0.000560312
2.01827e-05
4.41251e-05
-0.000559145
3.19884e-05
0.000316596
-0.000546603
0.000157787
0.000350684
1.59964e-05
0.000462618
0.000728818
0.000349712
0.000466812
0.000352003
-0.000100537
0.000470845
0.000287327
-0.000184951
0.000177475
6.76953e-05
1.82672e-05
-0.000101571
-0.000144315
0.00015465
-0.000308336
9.70302e-05
0.000694225
-4.3257e-05
0.000571011
0.000782921
0.000309309
0.000483106
0.00071371
0.000643195
0.000181211
0.0011049
0.000636858
-0.000294242
0.000760318
0.000549476
-9.13422e-05
-0.000199675
-0.000488811
1.70143e-05
-7.855e-05
-0.000516907
0.000295715
7.72991e-05
0.000148963
0.000643477
0.000663749
0.000466936
0.000662499
0.000248505
-0.00023164
0.000647138
0.00022274
-0.00032951
0.000254736
0.000109856
-7.66259e-06
-7.42445e-05
-9.27415e-05
2.60067e-05
-0.000364849
0.000222421
0.000649132
-0.000146816
0.00070125
0.000906243
0.000248958
0.000444055
0.000638044
0.000482696
0.000321608
0.00110268
0.000546957
-0.000220994
0.000796219
0.000588118
-0.000231608
-0.000365588
-0.000476242
-9.02507e-05
-0.000458105
-0.000451464
0.000416589
-0.000196924
0.000329823
0.000780472
0.000656933
0.000637127
0.000848272
0.000149419
-0.000316633
0.000749705
5.44152e-05
-0.000383436
0.000307344
0.000140312
5.58361e-05
-7.05034e-05
5.70925e-05
-1.28874e-05
-0.000494722
0.000372177
0.000563294
-0.000198425
0.000866218
0.000979396
0.000213138
0.000341418
0.000596249
0.00047018
0.000397115
0.00118742
0.000500805
-0.000242315
0.000934731
0.000589821
-0.000382114
-0.000444354
-0.000579476
-0.000244242
-0.000775066
-0.000384453
0.000526094
-0.000459864
0.000548443
0.000913242
0.000662048
0.000903566
0.000996109
3.05066e-05
-0.000356051
0.000756044
-0.000174835
-0.000403964
0.000348937
0.000248164
9.77687e-05
-5.50269e-05
0.00033707
-0.000179991
-0.000699621
0.000562557
0.000446215
-0.000219038
0.00105562
0.0010292
0.000167858
0.000193591
0.000570624
0.000383374
0.000498664
0.00131295
0.000387583
-0.000296471
0.00115838
0.000540499
-0.000436092
-0.00051311
-0.000868214
-0.000367668
-0.00102361
-0.000301726
0.000602713
-0.000708819
0.000803728
0.000986711
0.00071592
0.00125759
0.00110206
-7.47432e-05
-0.000381738
0.0006652
-0.000427161
-0.000454624
0.000421311
0.000392638
8.9556e-05
0.000156383
0.000707037
-0.000568101
-0.000913304
0.000777453
0.000276258
-0.000202087
0.00127092
0.00103018
0.000116413
0.000127063
0.000409738
0.000216233
0.00069992
0.00139403
0.000216289
-0.000183664
0.00134262
0.000484488
-0.000398152
-0.000641634
-0.00125636
-0.000462273
-0.00122913
-0.000188693
0.000598875
-0.000938969
0.0010883
0.00100774
0.000861033
0.00171951
0.00115699
-0.00019908
-0.000420073
0.000508988
-0.000760457
-0.00058362
0.000563343
0.000669491
4.17368e-05
0.000595163
0.00107999
-0.00120881
-0.00109986
0.000970539
6.302e-05
-0.000117014
0.00144998
0.000949012
0.000112682
7.71953e-05
9.99021e-05
7.60225e-05
0.000976075
0.00138612
6.36183e-05
-2.08361e-06
0.00150989
0.0005269
-0.000316891
-0.000888661
-0.00166833
-0.000615587
-0.00139268
-1.43656e-05
0.000514393
-0.00117315
0.00136004
0.000859007
0.00109766
0.00230619
0.00117905
-0.000379578
-0.000488961
0.000335071
-0.00112189
-0.000718841
0.000737201
0.000698634
1.63318e-05
0.00122603
0.00125923
-0.00207662
-0.00122434
0.00107888
-0.000182915
1.71282e-05
0.00152932
0.000814863
0.000183611
-5.30074e-05
-0.000331805
1.70568e-05
0.00126441
0.00116048
-5.25438e-05
0.000164581
0.0016727
0.000677672
-0.000263516
-0.00123672
-0.00199148
-0.000862262
-0.00153212
0.000224942
0.000312872
-0.00130998
0.00158278
0.000443423
0.00148098
0.00307015
0.00114574
-0.000657954
-0.000465041
0.000208557
-0.00154606
-0.00082775
0.000932975
0.000620348
1.66139e-05
0.00193942
0.00128649
-0.00303763
-0.0013482
0.00106797
-0.00039606
0.000151702
0.00144715
0.000739156
0.000341066
-0.000244041
-0.000788791
2.17523e-05
0.00146257
0.00109171
-0.00012038
0.000293795
0.00173839
0.000941465
-0.000320713
-0.00167391
-0.00199523
-0.0011712
-0.0015961
0.000504262
-8.31724e-07
-0.00143494
0.00161794
-2.15987e-05
0.00201651
0.00400126
0.000966897
-0.00113818
-0.000371496
0.000228175
-0.00198749
-0.000939505
0.0010227
0.000545396
0.000155023
0.00261653
0.00108113
-0.00385622
-0.0015531
0.00087508
-0.000601564
0.000230057
0.00130565
0.00085839
0.000535157
-0.000509635
-0.00119723
2.83034e-05
0.00154139
0.000976616
-0.000193607
0.000346558
0.00211508
0.00122798
-0.000505678
-0.00213335
-0.00188154
-0.00155136
-0.00154504
0.000872626
-0.000548318
-0.00159962
0.00120382
-0.000335361
0.00276514
0.00481093
0.00043909
-0.00182413
-0.000383857
0.000316019
-0.00225889
-0.000980112
0.0011481
0.000429732
0.000531183
0.00349896
0.000721509
-0.0045811
-0.0017822
0.000591172
-0.000756114
0.000265404
0.00111877
0.00106058
0.000776678
-0.000792016
-0.00162045
-8.64601e-05
0.00160218
0.0010447
-0.000214303
0.000465923
0.0026711
0.00137088
-0.000824496
-0.00268414
-0.00159711
-0.00191572
-0.00146209
0.00110962
-0.00124426
-0.00182139
8.29356e-05
-0.000564931
0.00377
0.00552738
-0.000216055
-0.00245798
-0.000272456
0.000209585
-0.0022798
-0.000956705
0.00121252
0.000334739
0.00117366
0.00438023
0.000550734
-0.0050069
-0.00214552
0.000150849
-0.000970534
0.000188661
0.000912867
0.00134949
0.00107698
-0.00103492
-0.00208358
-0.000303089
0.00163552
0.00102899
-0.00027715
0.000649676
0.0033869
0.00137881
-0.00116489
-0.00353252
-0.00143969
-0.00211188
-0.00111436
0.00106423
-0.00175193
-0.00218907
-0.00126412
-0.00106123
0.00431232
0.00601358
-0.000389272
-0.00250534
4.81984e-05
0.000191439
-0.00222313
-0.000867537
0.00110456
0.000315279
0.00204997
0.00479592
0.000554547
-0.00464281
-0.00212211
-4.08e-05
-0.00131031
-1.33986e-05
0.000751957
0.00145649
0.00143452
-0.000841474
-0.00252863
-0.000673063
0.00184982
0.000902743
-0.000336613
0.000946072
0.00405157
0.0013154
-0.0016577
-0.00351643
-0.00144355
-0.00245789
-0.000656171
0.000535225
-0.00182591
-0.00242494
-0.00250608
-0.00194553
0.00445048
0.00627041
-0.000502645
-0.00267061
0.000334015
0.000376728
-0.00192745
-0.001193
0.00114584
0.000613662
0.00210722
0.00450662
0.000883708
-0.00348262
-0.001648
-0.000122454
-0.00164535
0.000359874
0.000370009
0.00131238
0.00190087
-0.000807566
-0.00313458
-0.00126145
0.00228995
0.000578719
-0.000489727
0.00106776
0.00513883
0.00136795
-0.00208546
-0.00337664
-0.0015184
-0.00227655
-0.00128463
-0.00118745
-0.000863333
-0.00297417
-0.00412218
-0.00279211
0.00479255
0.00592262
-0.000830589
-0.0031686
0.00105047
0.0010605
-0.00154255
-0.000920265
0.00193186
0.0010429
0.00110866
0.00434541
0.0016837
-0.00257834
-0.00162512
-0.000746567
-0.00211902
0.000632499
9.99934e-05
0.00122314
0.00250642
-0.0008069
-0.00407299
-0.00186274
0.00280269
0.000441486
-0.000751285
0.00123606
0.0058749
0.00106338
-0.00240336
-0.00308668
-0.0012893
-0.00198763
-0.00264789
-0.00164015
0.000418516
-0.00370319
-0.00640947
-0.00267536
0.00649418
0.00629411
-0.000920991
-0.00422918
0.00202931
0.00167654
-0.00140864
-0.000404233
0.00270079
0.00107927
0.000280081
0.00444635
0.00186656
-0.00236474
-0.00206013
-0.0020261
-0.00251165
0.00105843
0.000288414
0.00164159
0.00366392
-0.00103421
-0.00492592
-0.00178034
0.00351834
0.00102902
-0.00191996
0.00153538
0.00572566
0.000266889
-0.00282785
-0.00256379
-0.00138768
-0.00223132
-0.00271589
0.000184305
0.00158154
-0.00481661
-0.00786732
-0.00052439
0.00933933
0.00842744
-0.000896945
-0.00414867
0.00351626
0.00185253
-0.00157342
-0.000314525
0.0028882
0.000744036
0.000259725
0.00420887
0.0018376
-0.00249714
-0.00248332
-0.00298684
-0.00217357
0.0016692
0.000412242
0.00252302
0.00534381
-0.00129331
-0.00562144
-0.00105427
0.00420621
0.000981417
-0.00299151
0.00185166
0.00519737
-0.000407125
-0.00310939
-0.00241042
-0.00152825
-0.00221357
-0.00195758
0.0020184
0.00162633
-0.00609579
-0.0078562
0.00217704
0.0118346
0.0105218
-0.000492423
-0.00314529
0.00521171
0.00184257
-0.00174709
-0.000650092
0.00277547
0.000848935
0.000723261
0.00435561
0.00257097
-0.0023009
-0.00269404
-0.00362816
-0.000456247
0.00220218
-5.40168e-05
0.00349223
0.00703642
-0.00108769
-0.0060873
-0.000872594
0.004504
0.000453455
-0.00374563
0.00254877
0.00594888
-0.000272817
-0.00328294
-0.00189398
-0.000754384
-0.00154909
-0.0013253
0.00346489
0.00159833
-0.00681397
-0.00832758
0.00298831
0.0131622
0.0119129
0.000182779
-0.00141648
0.00665894
0.0017311
-0.00218392
-0.00126495
0.00253131
0.00111677
0.00132601
0.00494365
0.0033902
-0.00143393
-0.00252568
-0.00390541
0.00102231
0.00228084
-0.000562642
0.00427719
0.00829069
-0.000277675
-0.0061837
-0.000654786
0.00471163
-4.60154e-05
-0.00404079
0.00327746
0.00683651
0.000225032
-0.0029907
-0.00134327
-7.18501e-05
-0.000786438
4.76601e-05
0.00559431
0.00165172
-0.00747527
-0.00941482
0.00289672
0.0140263
0.0125692
0.00064081
-0.000539552
0.00722108
0.00133922
-0.00275321
-0.00196919
0.00209454
0.00132907
0.00181854
0.00571349
0.00399892
-0.000157523
-0.00226687
-0.00400303
0.000601034
0.00181649
-0.000893248
0.00455027
0.00864496
0.000703108
-0.00462961
-0.000180316
0.00499904
-0.000460323
-0.00397834
0.0039193
0.00719858
0.000571679
-0.00323314
-0.0012128
0.000419286
-8.31995e-05
0.00216223
0.00788994
0.000928298
-0.00826837
-0.0101312
0.00301684
0.0147498
0.0127863
0.000878626
3.71981e-06
0.00676426
0.00080786
-0.00320403
-0.00223344
0.00174504
0.00146206
0.00213993
0.00626321
0.00442961
0.000814163
-0.00217616
-0.00394551
-0.000177899
0.0013117
-0.00100468
0.00444827
0.00849028
0.00163845
-0.00457329
3.02246e-05
0.00522741
-0.000801285
-0.00367678
0.00431321
0.00725723
0.000287567
-0.00396297
-0.000899199
0.00121344
0.000591537
0.0040511
0.00927391
0.000313267
-0.00867707
-0.00992691
0.00370605
0.0155793
0.012954
0.00115919
0.000234426
0.00604724
0.000530065
-0.00328686
-0.00220908
0.00156076
0.00156778
0.0024245
0.00655301
0.0047422
0.00132105
-0.00195958
-0.00366994
-0.000614348
0.00124667
-0.00100021
0.0040994
0.0080907
0.00194598
-0.00505264
0.000194305
0.00545064
-0.000834662
-0.00325826
0.00446375
0.00713824
-0.000344451
-0.00428571
-0.000323413
0.00183722
0.00106881
0.00514986
0.00990444
-0.000207645
-0.00886162
-0.00909358
0.00465542
0.0162509
0.0131682
0.00150705
0.000217085
0.00530319
0.000697937
-0.00306775
-0.00205584
0.00155869
0.00187479
0.00265093
0.00658686
0.00486935
0.00154676
-0.00160806
-0.00347178
-0.000872543
0.00141113
-0.00101354
0.00379528
0.00768358
0.00177803
-0.00516218
0.00073594
0.00583272
-0.000596431
-0.00283713
0.00441742
0.00669988
-0.000727548
-0.00411869
0.000266091
0.0022789
0.00129182
0.00561626
0.0096958
-0.000548218
-0.00877567
-0.00806711
0.00552292
0.0167481
0.013274
0.00175468
0.000145092
0.00482004
0.000687448
-0.00293741
-0.00188677
0.00164366
0.00205944
0.00275526
0.00642076
0.00491818
0.0016649
-0.00140832
-0.00351663
-0.00101191
0.00153315
-0.00101818
0.00360135
0.00750997
0.00163563
-0.00474195
0.0016068
0.00631215
-0.00032872
-0.00272395
0.00412951
0.00629896
-0.000710151
-0.00374259
0.000780672
0.00246653
0.00125155
0.0056779
0.00928946
-0.000669259
-0.00858459
-0.00728146
0.00601264
0.0168819
0.0131713
0.00191551
0.000122765
0.00446789
0.000614005
-0.00283363
-0.00174901
0.00168019
0.00211405
0.0027521
0.00628683
0.00493924
0.00168871
-0.00134375
-0.00353906
-0.00101257
0.00160805
-0.00108448
0.00345344
0.00758404
0.00185798
-0.00407946
0.00220115
0.00642047
-0.000293812
-0.00274206
0.00390633
0.00607065
-0.000498975
-0.00333418
0.00111557
0.00246772
0.00114868
0.00556023
0.00894504
-0.000639683
-0.00841204
-0.00693692
0.00612669
0.0167747
0.0129967
0.00203715
0.000175478
0.00422794
0.000513035
-0.00274931
-0.00165701
0.0016865
0.00204828
0.00268648
0.00620196
0.00493541
0.00169459
-0.00132044
-0.00349868
-0.0009814
0.00158911
-0.00114647
0.00347741
0.007825
0.00207902
-0.00380604
0.00233206
0.00641028
-0.000247845
-0.00270744
0.0038043
0.00601678
-0.00034487
-0.00308774
0.00122838
0.00238539
0.00109919
0.00549637
0.00875672
-0.00059782
-0.00831282
-0.00685977
0.00616445
0.0166759
0.01286
0.00211106
0.000254745
0.00406584
0.000463222
-0.00270003
-0.00159762
0.00169365
0.00201254
0.0026451
0.0061537
0.00492289
0.00169181
-0.00132001
-0.00345169
-0.000906756
0.00156892
-0.00110687
0.00359793
0.00794985
0.00209202
-0.00375775
0.00237354
0.00637511
-0.000212776
-0.0026355
0.00380478
0.00601847
-0.000275142
-0.0030066
0.00124818
0.00233847
0.00112837
0.00550655
0.00864809
-0.000596652
-0.00826453
-0.00674579
0.00620747
0.016637
0.0127769
0.00213006
0.000308711
0.00399844
0.000437502
-0.00268655
-0.00156972
0.00170287
0.00199716
0.00263322
0.00613097
0.00490935
0.00168737
-0.00131867
-0.00340063
-0.000845833
0.00157929
-0.00104023
0.00369334
0.00798522
0.00208949
-0.00371577
0.00239239
0.00632786
-0.00018983
-0.00256421
0.00382811
0.00601857
-0.000246275
-0.00295531
0.00127066
0.00234031
0.00118427
0.00553113
0.00857673
0.000204001
-2.16601e-05
0.000294111
0.000236825
0.000248962
0.000568639
-0.000334035
0.000371071
0.000674286
-9.0883e-05
-0.000203566
0.000194173
0.000676373
-0.000502953
-9.14951e-05
0.000491721
-0.000390237
0.000235876
0.000155618
-0.000182236
0.000432692
0.000495522
3.94131e-05
0.000364437
0.000782687
0.000377664
0.000416728
0.000831078
0.000705343
0.000252312
0.000589798
0.000645892
0.000452033
0.000344476
0.000134861
0.000458917
-0.000143741
8.30551e-05
0.000398226
-7.56131e-05
4.20927e-06
0.000263636
0.000337552
-7.72668e-05
0.000511499
0.00071982
-0.000493976
0.000481847
0.000683158
-0.000101282
-0.000177089
0.000257925
0.000607008
-0.000548398
0.000166559
0.000302824
-0.000534207
0.0005205
3.56938e-05
-0.000238498
0.000463201
0.000472583
0.000297874
0.000126598
0.000748495
0.000571019
0.000158653
0.000967837
0.000575116
0.000126287
0.000956846
0.000477527
0.000256751
0.000399454
0.000273469
0.000460269
-0.000406294
7.71181e-05
0.000653634
-0.000202311
-0.000143628
0.000588124
0.000189347
-0.000140211
0.000851871
0.000594464
-0.000395844
0.000592813
0.000509993
-3.4086e-05
-7.97658e-05
0.000272602
0.000466262
-0.000478736
0.000308248
8.1562e-05
-0.000534722
0.000672514
-0.000134775
-0.000252438
0.000584221
0.000350928
0.000417573
0.000132284
0.000684282
0.000639098
0.000193256
0.00119803
0.000295807
0.000258457
0.00122123
0.000125477
0.000277611
0.000570612
0.000230174
0.000394763
-0.000531089
8.48486e-06
0.000786225
-0.000351065
-0.000121243
0.000730689
-1.74554e-05
6.33319e-05
0.00101819
0.000371041
-6.78191e-05
0.000584067
0.000260775
0.000132549
3.87392e-05
0.000213755
0.000329211
-0.000309915
0.000292918
-0.000105562
-0.000363965
0.000643955
-0.000324626
-0.000160001
0.000699477
0.000153464
0.000457759
0.000331425
0.000564596
0.00056995
0.000393873
0.00114763
3.7989e-05
0.000629613
0.00128331
-0.000265629
0.000519288
0.000650771
0.000118055
0.00029459
-0.000621525
1.9404e-05
0.000722902
-0.000511318
5.22862e-05
0.000650514
-7.98144e-05
0.000397396
0.000925403
0.000300378
0.000313466
0.000442297
4.0899e-05
0.00033071
0.000152959
0.000104691
0.000255072
-0.000110636
0.000144917
-0.000202288
-0.000174035
0.000458508
-0.000448287
8.7143e-06
0.000735475
-7.38013e-05
0.000514514
0.000591819
0.000396335
0.000531812
0.000641077
0.000947423
-2.06995e-06
0.00105949
0.00108719
-0.000374144
0.000782244
0.000622343
5.41407e-05
9.50843e-05
-0.000631013
0.000120882
0.000452491
-0.00060677
0.000273996
0.000411811
3.46997e-05
0.000714438
0.000818744
0.000316683
0.000528038
0.000278538
-0.000122518
0.00049616
0.00026315
-3.12323e-05
0.000245321
2.93067e-05
-1.35971e-05
-0.00019214
-4.80249e-05
0.00021877
-0.000514756
0.0002031
0.000681459
-0.000278136
0.000664699
0.000782268
0.000231526
0.000536367
0.000760297
0.000714506
0.000175801
0.00129973
0.00081341
-0.00027471
0.000970687
0.000619853
1.32074e-06
-0.000183358
-0.000507616
0.000212798
4.22172e-05
-0.000610518
0.000434777
0.000124845
0.00034227
0.000991196
0.000761494
0.000407447
0.000580315
0.000147104
-0.000280386
0.000626423
0.000368115
-0.000142404
0.000275565
8.49951e-05
-0.000104762
-0.00019867
3.55115e-05
3.38938e-05
-0.000595033
0.000384175
0.00052938
-0.000408803
0.000880475
0.000843988
0.000148074
0.000579594
0.000712056
0.000648482
0.000433771
0.00141214
0.00065486
-0.000153151
0.00110638
0.000669469
-0.000144695
-0.000447066
-0.000391624
0.000224542
-0.000441546
-0.00054892
0.00053197
-0.000143672
0.000664689
0.0012533
0.000741135
0.000495711
0.000678516
2.32076e-05
-0.000431205
0.000726346
0.000482209
-0.000214149
0.000240847
0.000148318
-0.000167682
-0.000290724
0.0001882
-0.000125091
-0.000707484
0.000542695
0.000300097
-0.000431741
0.00106711
0.000825705
0.000153566
0.000528086
0.000618122
0.000577935
0.000658949
0.00156311
0.000596111
-6.16839e-05
0.00117704
0.000687069
-0.000316167
-0.000640936
-0.000293376
0.000160178
-0.000940561
-0.000484529
0.000590884
-0.000369515
0.00100878
0.00151633
0.000728385
0.000595151
0.000637437
-0.000177678
-0.000563648
0.000779497
0.000695034
-0.000278723
0.000157812
0.000272457
-0.000321437
-0.000401853
0.000431594
-0.000368125
-0.000832619
0.000671265
4.57096e-05
-0.000366207
0.00117487
0.000806574
0.000186698
0.000277523
0.000510814
0.000507682
0.000890231
0.0018393
0.000551823
4.53175e-05
0.00130833
0.000635748
-0.00045432
-0.000785043
-0.000204956
3.36914e-05
-0.00145926
-0.000441938
0.00062274
-0.000533511
0.00147975
0.00176936
0.000655765
0.000695394
0.000531478
-0.00039967
-0.000709347
0.000801609
0.00107667
-0.000355023
9.94094e-05
0.000446466
-0.000646475
-0.000416395
0.000713487
-0.000727128
-0.000935905
0.000757843
-0.000210154
-0.000274848
0.00125047
0.000843697
0.000213939
0.000109355
0.000321081
0.000398686
0.00120261
0.00210071
0.000513704
0.000137027
0.0013691
0.000540651
-0.000510236
-0.000950589
-0.000110877
-0.000131179
-0.00205023
-0.000415153
0.000606668
-0.000559806
0.00212833
0.00197087
0.000603593
0.000780156
0.000295424
-0.000624629
-0.00091898
0.000827438
0.00157759
-0.000543923
0.000146454
0.000633744
-0.0011783
-0.000309602
0.000981978
-0.00120629
-0.0010109
0.000772706
-0.000450643
-0.000193542
0.00130082
0.000950811
0.000260575
-9.27456e-05
-1.99064e-05
0.000324743
0.00163213
0.00225328
0.000508127
0.00015361
0.00129205
0.000460779
-0.000483355
-0.00117464
4.69544e-05
-0.000315836
-0.00275742
-0.000383556
0.000514862
-0.000436596
0.00287476
0.00204162
0.00052784
0.000809827
4.73672e-05
-0.000884372
-0.00127683
0.000892098
0.00206894
-0.000859214
0.000335345
0.00069849
-0.00184963
-4.48269e-05
0.00116515
-0.00163868
-0.00104193
0.00075508
-0.000674459
-0.000148341
0.00138952
0.00116415
0.000316069
-0.000426247
-0.000497455
0.000323808
0.00212325
0.00245237
0.000597566
4.75201e-06
0.00105525
0.000439509
-0.000425578
-0.00142271
0.000241866
-0.000581166
-0.00357535
-0.000370919
0.000330918
-0.000211052
0.00368564
0.00198722
0.000375061
0.000730379
-0.000126101
-0.00114214
-0.00177678
0.00103131
0.00243338
-0.00124801
0.000669869
0.000580791
-0.00263299
0.000360653
0.00129965
-0.00217159
-0.00115845
0.000671933
-0.00078083
-0.000163366
0.00146422
0.00158807
0.000392309
-0.000978
-0.00108134
0.000403319
0.00258979
0.00258353
0.000785657
-0.000365151
0.000729812
0.000488156
-0.000405962
-0.00165022
0.000378007
-0.00101513
-0.00446181
-0.000385533
8.39151e-05
0.000188202
0.00448179
0.00180963
9.4593e-05
0.000556463
-0.000243537
-0.00149378
-0.00242404
0.00133579
0.00259696
-0.00172668
0.0011111
0.000308482
-0.00345575
0.000833758
0.0013495
-0.00280318
-0.00139106
0.000487219
-0.000845163
-0.000296904
0.00161981
0.0020356
0.000397048
-0.00170479
-0.00172219
0.000551352
0.00297969
0.00280504
0.000932605
-0.000957026
0.00036224
0.000658854
-0.000446155
-0.00175257
0.000328616
-0.00162867
-0.00544919
-0.000466981
-0.000204087
0.000748345
0.00516053
0.0014908
-0.000449753
0.000179423
-0.000298947
-0.00189103
-0.00319365
0.00170819
0.00254459
-0.00227166
0.00149132
-0.000193633
-0.00426123
0.00149192
0.00131878
-0.0036064
-0.0016905
0.000555886
-0.00082166
-0.000696166
0.00188858
0.00268609
0.000303891
-0.00277711
-0.00247177
0.000712886
0.00319528
0.00334976
0.00108322
-0.00182987
-5.82792e-05
0.000988571
-0.000512654
-0.00168443
1.5294e-05
-0.00229847
-0.00642541
-0.000640324
-0.000450471
0.00137761
0.0055477
0.000898051
-0.0011042
-0.000514824
-0.000581349
-0.0025466
-0.00402222
0.00224714
0.00260194
-0.00289262
0.00171811
-0.000885303
-0.00514086
0.00253512
0.00143625
-0.00450236
-0.00208607
0.000941732
-0.000571949
-0.0012725
0.00207069
0.00332382
0.000112817
-0.0038977
-0.00323899
0.000857816
0.003559
0.00423996
0.00124272
-0.00286529
-0.000786794
0.00137438
-0.000547065
-0.000994375
-0.000483175
-0.00304238
-0.00731104
-0.000767373
-0.000545702
0.00197078
0.00545137
2.56917e-06
-0.00188166
-0.00157273
-0.000665003
-0.0033232
-0.00508493
0.00242446
0.00298159
-0.00335297
0.0018379
-0.00181852
-0.00594161
0.00331201
0.00144236
-0.00491077
-0.00207061
0.0015578
-0.000197147
-0.00204182
0.00185495
0.00368966
-0.000397689
-0.00503775
-0.00384731
0.00109541
0.00401912
0.00538884
0.00132323
-0.00407227
-0.00175657
0.00176484
-0.000538979
-0.000278929
-0.000867624
-0.00375957
-0.00827714
-0.000986305
-0.00174188
0.00225393
0.00468409
-0.000737795
-0.00184455
-0.0023973
-0.000557599
-0.00397969
-0.00616236
0.00226798
0.00288511
-0.00368333
0.00177918
-0.00193305
-0.0062695
0.00234951
0.00153742
-0.00420763
-0.00142099
0.00199745
-0.000358726
-0.00283723
0.00185748
0.00390213
-0.00135906
-0.00613958
-0.0043553
0.00131327
0.00460005
0.00671928
0.00130813
-0.00541891
-0.00325659
0.0021303
-0.000347531
-0.00058775
-0.00130255
-0.00431142
-0.00850466
-0.00177993
-0.00234351
0.00253429
0.00330228
-0.00137682
-0.00150787
-0.00334949
0.000259657
-0.00438952
-0.00710233
0.00206046
0.00223806
-0.00413815
0.00210616
-0.00170625
-0.00695904
0.0028599
0.00199754
-0.0032523
-0.000890071
0.00205853
-0.00105298
-0.00327465
0.0023298
0.00401322
-0.00226887
-0.00702869
-0.00482258
0.00160947
0.00502196
0.00744567
0.00131158
-0.00673352
-0.0043664
0.00214071
-0.000318589
-0.00120884
-0.00193858
-0.00489424
-0.00771337
-0.00273111
-0.0032096
0.00238841
0.00220037
-0.00165954
-0.00201348
-0.00433877
0.00104782
-0.00454188
-0.008051
0.00223809
0.00181526
-0.00432764
0.0026668
-0.00178517
-0.00728665
0.00319451
0.00210821
-0.00262483
-0.000750618
0.0017881
-0.00136254
-0.002737
0.00286929
0.00390446
-0.00280623
-0.00757603
-0.00498815
0.00230455
0.0053842
0.00771628
0.00131524
-0.00791224
-0.00545461
0.00187489
-0.000604245
-0.0011092
-0.00246352
-0.00526692
-0.00799508
-0.00376081
-0.00461661
0.00185545
0.00132194
-0.0013089
-0.00214507
-0.00452085
0.00168947
-0.00462618
-0.0101571
0.00214191
0.0017244
-0.00426149
0.00273437
-0.00221087
-0.00725435
0.00307309
0.00185408
-0.00247781
-0.000839477
0.00185341
-0.00136169
-0.0023891
0.00314726
0.00388371
-0.00311864
-0.00786801
-0.00528807
0.00289716
0.00587608
0.00809744
0.0012671
-0.00833738
-0.00699508
0.00110763
-0.000632438
-0.00148781
-0.00392859
-0.00534292
-0.00795481
-0.00510993
-0.00508227
0.0005732
8.68464e-05
-0.00024707
-0.00096048
-0.0031038
0.00206981
-0.00486534
-0.0112983
0.00211809
0.0015442
-0.00373152
0.00264378
-0.00266396
-0.00663848
0.0025216
0.00156744
-0.00234972
-0.000888017
0.00177878
-0.00111637
-0.00223407
0.00337927
0.00401289
-0.00322202
-0.00810751
-0.0057222
0.0032536
0.00642455
0.00801002
0.000588625
-0.00893898
-0.00846021
0.000211799
-0.000462611
-0.0022036
-0.00437275
-0.00497802
-0.00815823
-0.00679941
-0.00511466
-0.00145646
-0.00137348
0.000878434
1.69247e-05
-0.00169361
0.0025168
-0.00573584
-0.0113861
0.00226573
0.00133021
-0.00299868
0.00252335
-0.00293136
-0.00628819
0.00106739
0.00169058
-0.00194435
-0.000929137
0.00165418
2.7932e-05
-0.00108391
0.00381285
0.0038358
-0.00280026
-0.00820146
-0.00581239
0.00369208
0.00697047
0.00769252
-0.000709091
-0.0095294
-0.00771632
-0.00031171
0.000284721
-0.00238857
-0.00471579
-0.0060347
-0.00835053
-0.00672692
-0.005703
-0.00342449
-0.00228307
0.00194131
0.000408996
-0.000914405
0.00254385
-0.00660217
-0.0106606
0.00246537
0.00122719
-0.00271196
0.00229668
-0.00296427
-0.00730983
-4.6376e-05
0.00249032
-0.00159164
-0.00108686
0.00173458
0.00145366
0.000420266
0.00406387
0.00330035
-0.002264
-0.00754812
-0.00548212
0.00422631
0.00745424
0.00713268
-0.00224659
-0.00955553
-0.00659844
-0.000450802
0.000966625
-0.00168848
-0.00476278
-0.00704654
-0.00800591
-0.00619409
-0.00694428
-0.00471788
-0.00246286
0.00265829
0.000297461
-0.000480667
0.00254046
-0.00700232
-0.009674
0.00257541
0.00130423
-0.00235574
0.00227727
-0.00293234
-0.00790145
0.000352204
0.00357138
-0.0014285
-0.00159072
0.00163416
0.00230291
0.0014943
0.00402475
0.0027781
-0.00179265
-0.00763995
-0.00541157
0.00466098
0.00784034
0.00637231
-0.0034889
-0.0089428
-0.00557183
-0.000517044
0.00180085
-0.000766489
-0.00491585
-0.00805296
-0.00715183
-0.00626458
-0.00770718
-0.00536745
-0.002329
0.00308031
-4.4984e-05
-0.000146749
0.00266619
-0.00672521
-0.00873908
0.00270274
0.00153438
-0.00182526
0.00230718
-0.00304608
-0.00798244
0.00147897
0.00445978
-0.00143559
-0.00205977
0.00157673
0.00277558
0.00217675
0.00381137
0.00231778
-0.00146801
-0.00757223
-0.00535232
0.00511591
0.00794747
0.00477165
-0.00414339
-0.00810956
-0.00474233
-0.000660861
0.00248051
-9.74003e-05
-0.005209
-0.00878033
-0.00691835
-0.00783589
-0.00780508
-0.00543649
-0.00205369
0.00321342
-0.000228156
0.000405462
0.00315854
-0.00613628
-0.00804848
0.00282196
0.00174436
-0.00134997
0.00227019
-0.00319121
-0.00762386
0.00242768
0.00489889
-0.00150859
-0.00229907
0.00156142
0.0029345
0.00270745
0.00341717
0.00189777
-0.00117263
-0.00724795
-0.00523808
0.00536706
0.00776148
0.00413659
-0.0040464
-0.00721526
-0.00422922
-0.000589056
0.00309415
0.000276229
-0.00566211
-0.00913108
-0.00706339
-0.00848705
-0.00738705
-0.00508179
-0.00170766
0.00318799
-0.000205489
0.000989744
0.00368763
-0.00556301
-0.00757835
0.00281458
0.00178952
-0.000997371
0.00229476
-0.0031839
-0.00721984
0.00296473
0.00506092
-0.00153633
-0.00233378
0.00158219
0.00308831
0.00288627
0.0031257
0.00164514
-0.000829035
-0.00692756
-0.00507527
0.00548273
0.00755433
0.0037855
-0.00366642
-0.00661443
-0.00391442
-0.000311505
0.00356822
0.000381669
-0.00594647
-0.00913425
-0.00706714
-0.00841296
-0.00673927
-0.00460633
-0.00142817
0.00309824
-0.000268945
0.00136018
0.00403423
-0.00516615
-0.00731315
0.00274583
0.0017927
-0.000816483
0.00229889
-0.003113
-0.00693793
0.00324481
0.00510544
-0.00147378
-0.00227348
0.00159176
0.00307691
0.0028288
0.0030248
0.00174734
-0.000437517
-0.00665536
-0.0048694
0.00553262
0.00740606
0.0036835
-0.00337653
-0.00634805
-0.00367672
4.05967e-05
0.00379255
0.000226316
-0.00610249
-0.0088968
-0.00691663
-0.00808868
-0.00628664
-0.0042811
-0.00126169
0.00299658
-0.00026571
0.00155289
0.00418038
-0.00496029
-0.00715757
0.00271022
0.00175968
-0.000777652
0.00230268
-0.00304315
-0.00677135
0.00340798
0.00514131
-0.00135375
-0.00219431
0.00154908
0.00302151
0.00277251
0.0030391
0.00191717
-0.000152268
-0.006463
-0.00472354
0.00552106
0.00729046
0.00362671
-0.00327322
-0.0062568
-0.00344674
0.000318248
0.00388216
2.54798e-05
-0.00614433
-0.00870586
-0.00684328
-0.00783002
-0.00607734
-0.00412749
-0.00115132
0.00294016
-0.000269479
0.00163112
0.00419585
-0.00489841
-0.00705406