/*--------------------------------*- C++ -*----------------------------------*\
  =========                 |
  \\      /  F ield         | OpenFOAM: The Open Source CFD Toolbox
   \\    /   O peration     | Website:  https://openfoam.org
    \\  /    A nd           | Version:  10
     \\/     M anipulation  |
\*---------------------------------------------------------------------------*/
FoamFile
{
    format      ascii;
    class       volVectorField;
    location    "17";
    object      UMean;
}
// * * * * * * * * * * * * * * * * * * * * * * * * * * * * * * * * * * * * * //

dimensions      [0 1 -1 0 0 0 0];

internalField   nonuniform List<vector> 
25600
(
(1.0307 2.21501e-07 1.04032e-05)
(1.0307 2.34152e-06 1.23527e-05)
(1.03067 -1.87386e-05 -9.88916e-07)
(1.0307 -8.44295e-06 1.06168e-05)
(1.03067 -2.16625e-05 2.36225e-06)
(1.03069 -4.5924e-05 -5.00345e-06)
(1.03069 -1.08223e-05 2.53032e-06)
(1.03066 -4.37795e-05 -2.33397e-06)
(1.03071 -2.53002e-05 -7.08335e-06)
(1.03067 -2.85536e-05 -9.18658e-06)
(1.03068 -3.26981e-05 4.39976e-06)
(1.03066 -2.1004e-05 -4.10947e-06)
(1.03066 -3.92692e-05 -5.95292e-06)
(1.03068 -1.70406e-05 8.95211e-06)
(1.03062 -3.82574e-05 -1.81331e-06)
(1.03065 -2.18758e-05 3.93755e-06)
(1.03064 -1.07459e-05 1.29482e-05)
(1.03062 -3.39967e-05 1.82344e-06)
(1.03064 -2.68798e-06 1.23586e-05)
(1.03062 -1.53615e-05 2.09307e-05)
(1.03062 -1.44676e-05 2.24225e-06)
(1.03063 1.0007e-06 2.61779e-05)
(1.03064 -2.42975e-05 1.35507e-05)
(1.03063 1.41726e-05 8.37611e-06)
(1.03065 1.53205e-06 2.10647e-05)
(1.03066 -3.77094e-06 1.38638e-06)
(1.03066 2.94598e-05 1.74428e-05)
(1.03067 2.28514e-06 1.12774e-06)
(1.03069 2.90787e-05 5.89306e-06)
(1.0307 2.6441e-05 8.35238e-06)
(1.0307 2.0089e-05 1.00918e-06)
(1.03073 4.23461e-05 8.47064e-06)
(1.03071 3.43134e-05 -2.29373e-06)
(1.03074 4.07588e-05 9.28706e-06)
(1.03073 3.35902e-05 4.05799e-06)
(1.03072 3.18203e-05 5.64565e-06)
(1.03074 4.61426e-05 1.00107e-05)
(1.0307 2.83051e-05 7.05077e-06)
(1.03073 1.34785e-05 1.43081e-05)
(1.03071 2.38843e-05 6.00984e-06)
(1.03068 1.66055e-05 1.21783e-05)
(1.03069 -7.20922e-06 1.22478e-05)
(1.03067 -7.36768e-06 -3.34511e-06)
(1.03069 -4.52673e-06 1.5517e-05)
(1.03066 -2.75962e-05 -5.14724e-06)
(1.0307 -2.28526e-05 2.32019e-06)
(1.03069 -1.57951e-05 1.96163e-06)
(1.03066 -2.9715e-05 -7.35073e-06)
(1.03071 -1.14019e-05 2.03189e-06)
(1.03067 -2.48196e-05 -1.40969e-05)
(1.03068 -1.6682e-05 8.32908e-06)
(1.03065 -2.22284e-05 -7.90492e-07)
(1.03066 -2.0626e-05 -6.85696e-06)
(1.03068 -1.6001e-05 1.27822e-05)
(1.03062 -3.04828e-05 -1.79097e-06)
(1.03067 -9.07979e-06 6.42877e-06)
(1.03063 -1.11635e-05 1.44963e-05)
(1.03062 -1.73283e-05 2.59368e-06)
(1.03065 -4.0244e-06 1.63187e-05)
(1.03061 -3.78539e-06 2.38765e-05)
(1.03063 -2.09775e-05 7.09381e-06)
(1.03062 3.97698e-06 2.87734e-05)
(1.03064 -2.21231e-05 1.39315e-05)
(1.03064 -1.68318e-07 1.43497e-05)
(1.03064 6.47254e-06 1.92625e-05)
(1.03067 -1.47686e-05 -1.58515e-06)
(1.03066 2.78197e-05 2.06514e-05)
(1.03067 -9.97479e-06 -7.16725e-07)
(1.03071 3.32445e-05 2.59285e-06)
(1.03069 1.61617e-05 1.22351e-05)
(1.03071 1.02328e-05 -1.36336e-06)
(1.03073 4.9011e-05 6.58357e-06)
(1.03071 1.94153e-05 2.1518e-06)
(1.03074 4.24427e-05 5.8316e-06)
(1.03072 2.76616e-05 7.93793e-06)
(1.03073 4.20906e-05 4.14052e-06)
(1.03074 4.20046e-05 1.21134e-05)
(1.03068 3.37165e-05 8.1036e-06)
(1.03072 2.49353e-05 1.64168e-05)
(1.0307 1.79159e-05 5.12267e-06)
(1.03067 2.42679e-05 1.71174e-05)
(1.03068 -6.98197e-06 1.35602e-05)
(1.03067 7.27159e-07 3.64553e-06)
(1.03068 -6.50892e-06 1.96363e-05)
(1.03066 -3.02302e-05 -4.90613e-06)
(1.0307 -5.71535e-06 1.29515e-05)
(1.03068 -2.73871e-05 2.7726e-06)
(1.03066 -1.97251e-05 -4.40817e-06)
(1.03071 -2.36408e-06 1.10562e-05)
(1.03067 -2.61494e-05 -1.27961e-05)
(1.03068 -4.48253e-06 1.28568e-05)
(1.03065 -1.85415e-05 2.34938e-06)
(1.03066 -2.13194e-06 -5.55476e-06)
(1.03067 -1.55494e-05 1.60206e-05)
(1.03062 -1.63525e-05 5.90798e-07)
(1.03067 -9.54649e-07 1.05573e-05)
(1.03063 -1.54786e-05 1.78747e-05)
(1.03062 -5.5526e-06 5.2654e-06)
(1.03065 -9.09387e-06 2.54677e-05)
(1.0306 -6.04972e-06 2.83815e-05)
(1.03063 -2.67128e-05 1.64283e-05)
(1.03063 -2.86446e-06 3.62545e-05)
(1.03064 -2.08083e-05 1.84923e-05)
(1.03065 -1.53851e-05 2.42407e-05)
(1.03063 3.33779e-06 1.98254e-05)
(1.03067 -1.72818e-05 2.4627e-06)
(1.03066 1.50281e-05 2.43084e-05)
(1.03068 -1.47152e-05 2.90384e-07)
(1.03071 2.71282e-05 4.3621e-06)
(1.03068 -2.87437e-06 1.65242e-05)
(1.03072 9.08609e-06 -3.99937e-06)
(1.03073 4.1843e-05 7.88578e-06)
(1.03071 7.52229e-06 6.90621e-06)
(1.03074 4.19842e-05 4.69448e-06)
(1.03072 2.69339e-05 1.55619e-05)
(1.03073 4.82944e-05 5.27695e-06)
(1.03073 3.97228e-05 1.81038e-05)
(1.03068 3.5411e-05 1.2944e-05)
(1.03071 3.64549e-05 1.91223e-05)
(1.0307 1.67339e-05 1.06627e-05)
(1.03066 2.19918e-05 2.1042e-05)
(1.03067 3.4003e-06 1.70533e-05)
(1.03067 -3.37097e-07 1.45462e-05)
(1.03067 -1.00306e-05 2.27068e-05)
(1.03066 -2.76704e-05 2.54206e-06)
(1.0307 -2.51055e-07 2.30631e-05)
(1.03068 -3.61652e-05 6.15356e-06)
(1.03067 -9.97214e-06 4.10591e-06)
(1.0307 3.08325e-06 1.75029e-05)
(1.03066 -2.30962e-05 -7.1202e-06)
(1.03068 7.2155e-06 1.63726e-05)
(1.03065 -7.98837e-06 6.6209e-06)
(1.03066 1.10019e-05 -3.79546e-06)
(1.03066 -1.25182e-05 2.16117e-05)
(1.03063 -1.4591e-06 3.87067e-06)
(1.03067 5.01277e-06 1.87103e-05)
(1.03062 -1.62653e-05 2.38888e-05)
(1.03062 6.07551e-06 1.42498e-05)
(1.03064 -1.46252e-05 4.05971e-05)
(1.03059 -1.36611e-05 3.85204e-05)
(1.03063 -3.0545e-05 3.02894e-05)
(1.03063 -1.45751e-05 5.12741e-05)
(1.03063 -2.50874e-05 2.82417e-05)
(1.03066 -2.93065e-05 3.67793e-05)
(1.03063 -5.56931e-06 2.40847e-05)
(1.03068 -1.85033e-05 1.27549e-05)
(1.03066 -3.31599e-06 2.65279e-05)
(1.03068 -1.31553e-05 3.03264e-06)
(1.03071 8.1431e-06 1.03582e-05)
(1.03067 -1.92846e-05 1.72397e-05)
(1.03074 1.01778e-05 -5.37194e-06)
(1.03073 2.25627e-05 1.23882e-05)
(1.03071 2.53132e-06 8.10552e-06)
(1.03075 4.13263e-05 7.07295e-06)
(1.03072 2.86643e-05 2.01004e-05)
(1.03073 5.39149e-05 8.47157e-06)
(1.03072 4.10419e-05 2.63422e-05)
(1.03068 3.56662e-05 2.0178e-05)
(1.03071 4.78545e-05 2.25849e-05)
(1.03069 1.85859e-05 2.04491e-05)
(1.03066 1.53415e-05 2.78821e-05)
(1.03066 1.67693e-05 2.64771e-05)
(1.03066 -1.22522e-05 2.90522e-05)
(1.03066 -1.27253e-05 2.97507e-05)
(1.03066 -2.72631e-05 1.91709e-05)
(1.03069 -6.20199e-06 3.48492e-05)
(1.03067 -3.67697e-05 1.84146e-05)
(1.03069 -4.87964e-06 1.6947e-05)
(1.03069 5.16549e-06 2.83118e-05)
(1.03066 -1.71951e-05 3.92856e-06)
(1.03069 1.36802e-05 2.52428e-05)
(1.03065 2.29935e-06 1.48335e-05)
(1.03065 9.75737e-06 4.44577e-06)
(1.03066 -9.39224e-06 3.10099e-05)
(1.03063 2.67127e-06 1.27346e-05)
(1.03066 3.7426e-06 3.04827e-05)
(1.03062 -1.55694e-05 3.46241e-05)
(1.03062 1.08993e-05 2.76941e-05)
(1.03063 -2.34421e-05 6.10744e-05)
(1.03059 -2.5439e-05 5.38482e-05)
(1.03062 -3.98338e-05 4.87389e-05)
(1.03063 -3.178e-05 7.36581e-05)
(1.03062 -4.09465e-05 4.12571e-05)
(1.03066 -4.43909e-05 5.20688e-05)
(1.03064 -2.277e-05 3.28146e-05)
(1.03067 -2.61653e-05 2.61532e-05)
(1.03066 -2.44034e-05 2.72999e-05)
(1.03068 -1.87288e-05 9.63399e-06)
(1.03071 -2.29749e-05 1.75717e-05)
(1.03068 -3.29084e-05 1.38532e-05)
(1.03075 -1.19954e-06 -2.0083e-06)
(1.03072 -7.24169e-06 1.87696e-05)
(1.03071 -3.65225e-07 1.10889e-05)
(1.03076 2.85723e-05 1.4142e-05)
(1.03073 2.79962e-05 2.57801e-05)
(1.03074 5.55543e-05 1.79804e-05)
(1.03072 4.0589e-05 3.94769e-05)
(1.03068 3.85425e-05 3.08622e-05)
(1.0307 5.62537e-05 3.14513e-05)
(1.03067 2.16643e-05 3.51861e-05)
(1.03065 1.0351e-05 3.71025e-05)
(1.03065 2.47215e-05 4.1949e-05)
(1.03064 -2.81578e-05 4.42159e-05)
(1.03065 -1.55551e-05 4.38207e-05)
(1.03065 -3.17704e-05 4.10174e-05)
(1.03069 -1.78626e-05 5.23664e-05)
(1.03067 -3.1553e-05 3.83984e-05)
(1.03069 -7.47806e-06 3.44841e-05)
(1.03069 9.15913e-06 4.4809e-05)
(1.03066 -1.37133e-05 1.9282e-05)
(1.03069 2.18106e-05 3.60419e-05)
(1.03064 6.87865e-06 2.60239e-05)
(1.03065 2.20122e-06 1.57428e-05)
(1.03065 -5.45992e-06 4.22689e-05)
(1.03063 -4.10682e-06 2.58155e-05)
(1.03065 1.33641e-09 4.36923e-05)
(1.03062 -1.41321e-05 4.81427e-05)
(1.03061 5.92225e-06 4.34737e-05)
(1.03061 -3.01168e-05 8.44625e-05)
(1.03058 -4.29791e-05 7.06935e-05)
(1.03062 -5.35171e-05 7.10401e-05)
(1.03062 -5.41605e-05 9.99696e-05)
(1.03061 -6.32951e-05 5.4455e-05)
(1.03066 -5.83653e-05 7.00653e-05)
(1.03064 -4.46653e-05 4.45465e-05)
(1.03067 -3.88957e-05 3.79869e-05)
(1.03066 -4.48385e-05 2.70095e-05)
(1.03068 -3.54995e-05 1.86887e-05)
(1.0307 -5.34793e-05 2.08369e-05)
(1.03068 -4.73066e-05 1.0039e-05)
(1.03075 -2.50603e-05 2.7273e-06)
(1.03072 -3.26431e-05 2.35732e-05)
(1.03072 -3.78585e-06 1.28021e-05)
(1.03076 7.33247e-06 2.18453e-05)
(1.03073 3.22051e-05 3.02328e-05)
(1.03074 4.78411e-05 3.14438e-05)
(1.03071 4.55796e-05 5.4162e-05)
(1.03068 4.10238e-05 4.27279e-05)
(1.03069 6.37626e-05 4.42276e-05)
(1.03066 2.26872e-05 5.10996e-05)
(1.03065 -3.90176e-06 5.19825e-05)
(1.03063 1.20346e-05 6.34187e-05)
(1.03062 -5.18651e-05 6.19751e-05)
(1.03064 -3.4938e-05 6.68804e-05)
(1.03064 -5.24062e-05 6.80967e-05)
(1.03068 -4.35017e-05 7.73253e-05)
(1.03067 -4.11983e-05 6.48262e-05)
(1.0307 -2.24457e-05 5.87298e-05)
(1.03068 3.87706e-06 6.97288e-05)
(1.03066 -2.05189e-05 3.94398e-05)
(1.03069 2.80293e-05 5.07785e-05)
(1.03063 -3.79117e-06 4.39198e-05)
(1.03063 -8.12138e-06 2.97095e-05)
(1.03064 -1.74286e-05 5.71364e-05)
(1.03062 -2.59927e-05 4.41438e-05)
(1.03064 -1.56847e-05 5.97188e-05)
(1.03061 -2.97206e-05 6.50213e-05)
(1.0306 -1.7755e-05 6.29446e-05)
(1.03059 -4.60528e-05 0.000112022)
(1.03056 -7.92287e-05 9.14695e-05)
(1.0306 -8.01266e-05 0.000103351)
(1.03061 -9.29685e-05 0.000128706)
(1.03061 -9.89435e-05 7.10206e-05)
(1.03066 -8.49028e-05 9.3153e-05)
(1.03064 -8.19607e-05 5.86364e-05)
(1.03066 -6.5634e-05 4.65556e-05)
(1.03065 -8.2566e-05 3.12477e-05)
(1.03066 -6.95954e-05 2.72079e-05)
(1.03069 -9.26003e-05 2.24317e-05)
(1.03068 -8.12418e-05 8.68544e-06)
(1.03075 -6.5977e-05 9.30906e-06)
(1.03072 -6.01114e-05 2.90373e-05)
(1.03073 -2.8349e-05 1.77989e-05)
(1.03077 -2.12178e-05 3.21136e-05)
(1.03074 2.36361e-05 3.9333e-05)
(1.03073 2.28637e-05 5.22799e-05)
(1.0307 4.71195e-05 7.35501e-05)
(1.03068 2.98135e-05 6.03132e-05)
(1.03068 6.15867e-05 6.52269e-05)
(1.03063 7.68957e-06 6.98374e-05)
(1.03063 -3.149e-05 7.00159e-05)
(1.0306 -1.17448e-05 8.48254e-05)
(1.03059 -8.78445e-05 8.00764e-05)
(1.03063 -7.0008e-05 9.46501e-05)
(1.03063 -9.28797e-05 9.7e-05)
(1.03067 -8.16854e-05 0.00010552)
(1.03066 -6.86463e-05 9.20132e-05)
(1.0307 -4.00071e-05 8.36455e-05)
(1.03066 -1.6931e-05 9.73223e-05)
(1.03065 -2.56195e-05 5.52522e-05)
(1.03068 2.54379e-05 6.58739e-05)
(1.0306 -1.99641e-05 5.95093e-05)
(1.03061 -2.43079e-05 4.05364e-05)
(1.03062 -4.54097e-05 7.06511e-05)
(1.03061 -5.57826e-05 6.25761e-05)
(1.03062 -4.25875e-05 7.19241e-05)
(1.0306 -6.50532e-05 7.9614e-05)
(1.03058 -4.44509e-05 8.17082e-05)
(1.03056 -7.37069e-05 0.000135539)
(1.03053 -0.000124522 0.000111398)
(1.03058 -0.000118239 0.000137032)
(1.03058 -0.000140983 0.000151924)
(1.03059 -0.000143866 8.70343e-05)
(1.03065 -0.000124343 0.000113864)
(1.03062 -0.000131431 6.5579e-05)
(1.03064 -0.000106784 4.97145e-05)
(1.03063 -0.000139748 3.36208e-05)
(1.03065 -0.000110915 2.8008e-05)
(1.03067 -0.000148472 1.90489e-05)
(1.03067 -0.000131993 5.06445e-06)
(1.03074 -0.000116461 8.63914e-06)
(1.03072 -9.65813e-05 2.96623e-05)
(1.03072 -7.39522e-05 1.82657e-05)
(1.03077 -5.12799e-05 3.70486e-05)
(1.03073 -8.00453e-06 5.00456e-05)
(1.03073 -4.92023e-06 7.46365e-05)
(1.03069 3.65779e-05 9.37987e-05)
(1.03067 8.72477e-06 8.0428e-05)
(1.03065 4.27089e-05 8.89485e-05)
(1.0306 -2.07923e-05 8.72899e-05)
(1.03059 -8.8485e-05 9.04548e-05)
(1.03054 -6.38249e-05 0.000102637)
(1.03053 -0.000160718 9.79848e-05)
(1.03058 -0.000144827 0.000125444)
(1.03058 -0.000178219 0.000126515)
(1.03063 -0.000160729 0.000136661)
(1.03063 -0.000134159 0.000118209)
(1.03067 -8.98299e-05 0.000111152)
(1.03063 -7.24859e-05 0.000124852)
(1.03063 -5.36415e-05 6.74503e-05)
(1.03064 -1.08568e-05 7.96492e-05)
(1.03056 -6.01332e-05 6.88305e-05)
(1.03057 -7.37493e-05 4.3925e-05)
(1.03057 -0.000111896 7.96922e-05)
(1.03057 -0.000116962 7.84139e-05)
(1.03058 -0.000115663 7.78905e-05)
(1.03056 -0.000135203 9.00195e-05)
(1.03054 -9.21144e-05 9.61265e-05)
(1.0305 -0.000133179 0.000153839)
(1.03048 -0.000193586 0.000130631)
(1.03054 -0.000183845 0.00016971)
(1.03054 -0.000216484 0.000167082)
(1.03056 -0.000216839 0.000105057)
(1.03061 -0.000195684 0.000130218)
(1.03059 -0.000207506 6.89561e-05)
(1.0306 -0.000188098 5.04576e-05)
(1.0306 -0.000224497 3.14105e-05)
(1.03061 -0.00018396 2.00207e-05)
(1.03062 -0.000245553 1.16276e-05)
(1.03064 -0.000213986 -4.6628e-06)
(1.03071 -0.000193672 -1.14991e-06)
(1.03069 -0.000169216 2.66239e-05)
(1.03069 -0.000151016 1.38548e-05)
(1.03074 -0.00011365 3.96428e-05)
(1.03071 -8.05264e-05 6.64772e-05)
(1.0307 -5.64131e-05 9.74481e-05)
(1.03065 -9.55552e-06 0.000119147)
(1.03063 -4.3136e-05 0.000106601)
(1.03061 -1.16169e-05 0.000115227)
(1.03054 -8.34442e-05 0.000105371)
(1.03046 -0.000169541 0.000103411)
(1.03038 -0.000152187 0.000108388)
(1.03036 -0.000269924 0.000111312)
(1.03041 -0.000262892 0.000150832)
(1.03041 -0.000307081 0.000149697)
(1.03048 -0.000281493 0.000159934)
(1.03049 -0.000230729 0.000131294)
(1.03054 -0.000172397 0.000130068)
(1.03052 -0.000154071 0.000137361)
(1.03054 -0.000107986 6.40996e-05)
(1.03054 -7.04662e-05 7.45191e-05)
(1.03045 -0.000118227 5.79112e-05)
(1.03047 -0.000149998 2.73134e-05)
(1.03048 -0.000206049 7.40251e-05)
(1.03049 -0.000203517 7.49154e-05)
(1.03049 -0.000230439 6.38098e-05)
(1.03048 -0.000218771 8.3038e-05)
(1.03046 -0.000153008 9.33794e-05)
(1.03039 -0.000208119 0.000151349)
(1.03038 -0.000277136 0.000136264)
(1.03044 -0.000263588 0.000185382)
(1.03043 -0.000313613 0.000165012)
(1.03046 -0.00030846 0.000110732)
(1.03051 -0.000295129 0.000125824)
(1.03049 -0.000311909 5.66988e-05)
(1.03049 -0.000303569 3.00644e-05)
(1.03049 -0.00032428 5.62561e-06)
(1.03049 -0.000291898 -5.76927e-06)
(1.0305 -0.000369279 -1.18741e-05)
(1.03054 -0.000314759 -3.31115e-05)
(1.03061 -0.000295511 -2.84036e-05)
(1.03058 -0.000272183 9.28569e-06)
(1.03059 -0.00025153 -6.31457e-06)
(1.03063 -0.000213598 3.35476e-05)
(1.03059 -0.000180654 7.57291e-05)
(1.03058 -0.000131024 0.000112074)
(1.03052 -8.61544e-05 0.000141292)
(1.03049 -0.000128498 0.000127958)
(1.03046 -9.67765e-05 0.000133806)
(1.03038 -0.000182136 0.000119472)
(1.03007 -0.000308647 9.68388e-05)
(1.02995 -0.000310699 9.61453e-05)
(1.0299 -0.000444804 0.000113694)
(1.02995 -0.000458964 0.000165628)
(1.02994 -0.000524008 0.000160219)
(1.03003 -0.000490528 0.000165501)
(1.03007 -0.000409618 0.000121836)
(1.03014 -0.000338346 0.000129468)
(1.03016 -0.000310225 0.000123933)
(1.03021 -0.000239169 3.3826e-05)
(1.03023 -0.000196648 3.6829e-05)
(1.03014 -0.000243025 1.125e-05)
(1.03017 -0.000296486 -2.64808e-05)
(1.03019 -0.000366622 3.22941e-05)
(1.0302 -0.000362611 2.99901e-05)
(1.03022 -0.000416388 9.46353e-06)
(1.03023 -0.000343257 3.93928e-05)
(1.03019 -0.000260676 5.48935e-05)
(1.03009 -0.000328365 0.000112359)
(1.03009 -0.00040042 0.000113748)
(1.03014 -0.00038671 0.000163372)
(1.03013 -0.000466365 0.000136015)
(1.03016 -0.000443379 8.664e-05)
(1.0302 -0.000454094 8.90632e-05)
(1.03017 -0.000473681 1.33103e-05)
(1.03018 -0.000472095 -2.51595e-05)
(1.03017 -0.000475302 -5.20425e-05)
(1.03015 -0.000464365 -6.01702e-05)
(1.03016 -0.00053767 -6.74532e-05)
(1.03022 -0.00046153 -9.05022e-05)
(1.03027 -0.000450942 -8.36892e-05)
(1.03025 -0.000424461 -3.28751e-05)
(1.03025 -0.00040152 -4.75092e-05)
(1.03028 -0.000374409 1.19408e-05)
(1.03023 -0.000329684 6.75479e-05)
(1.03021 -0.000261222 0.000114054)
(1.03012 -0.000221742 0.000152893)
(1.03009 -0.000270882 0.00014236)
(1.03006 -0.000239144 0.000143774)
(1.02998 -0.00034276 0.000126632)
(1.02932 -0.000459616 4.27228e-06)
(1.02915 -0.000482887 6.92664e-06)
(1.0291 -0.000622605 3.99632e-05)
(1.02913 -0.00067499 0.000102492)
(1.0291 -0.000770357 8.98953e-05)
(1.02921 -0.000732903 8.45133e-05)
(1.02925 -0.000623181 2.03091e-05)
(1.02931 -0.000546961 3.89983e-05)
(1.02934 -0.000506228 1.46715e-05)
(1.02944 -0.00040782 -9.22316e-05)
(1.02948 -0.000350426 -0.000104488)
(1.0294 -0.000405089 -0.000137926)
(1.02945 -0.000476585 -0.000185706)
(1.02949 -0.000558006 -0.000111837)
(1.02951 -0.000563456 -0.000135129)
(1.02956 -0.00062497 -0.000158927)
(1.02962 -0.000469483 -0.000113256)
(1.02956 -0.00036687 -9.24831e-05)
(1.02944 -0.000438932 -3.57879e-05)
(1.02945 -0.000510658 -1.00524e-05)
(1.02949 -0.000512374 3.37618e-05)
(1.02947 -0.000616675 7.55299e-06)
(1.02952 -0.000572469 -4.84338e-05)
(1.02955 -0.000627958 -5.7447e-05)
(1.02952 -0.000644036 -0.000141479)
(1.02953 -0.000643635 -0.000188781)
(1.0295 -0.00063724 -0.000215817)
(1.02945 -0.000643616 -0.0002258)
(1.02947 -0.0007039 -0.000235746)
(1.02955 -0.000619759 -0.000254196)
(1.0296 -0.000621452 -0.000244748)
(1.02959 -0.000581657 -0.000178313)
(1.02956 -0.000563523 -0.000187491)
(1.02958 -0.000544448 -0.000111501)
(1.02951 -0.000476378 -3.92707e-05)
(1.02947 -0.000406889 2.82037e-05)
(1.02935 -0.000380452 7.8813e-05)
(1.02932 -0.000439237 7.75927e-05)
(1.02928 -0.000405848 7.53425e-05)
(1.02921 -0.000518131 5.89412e-05)
(1.02846 -0.000637156 -0.000322148)
(1.02828 -0.00067615 -0.000302229)
(1.02824 -0.000823517 -0.000259726)
(1.02828 -0.000932431 -0.000190368)
(1.02825 -0.00105058 -0.000218363)
(1.02834 -0.00100772 -0.000242714)
(1.02831 -0.000866762 -0.00032926)
(1.02828 -0.000790096 -0.000289794)
(1.02827 -0.000748532 -0.000329325)
(1.02839 -0.000613067 -0.000450323)
(1.02843 -0.000549182 -0.000487612)
(1.02836 -0.000613782 -0.000532954)
(1.02845 -0.000703647 -0.000595032)
(1.02851 -0.00079932 -0.000513495)
(1.02855 -0.000830069 -0.000572299)
(1.02868 -0.000866237 -0.000592877)
(1.02884 -0.000621975 -0.000530574)
(1.02879 -0.000483147 -0.000504635)
(1.02866 -0.00054877 -0.000441615)
(1.02866 -0.000611459 -0.000386841)
(1.02869 -0.000648173 -0.000355687)
(1.02869 -0.000756379 -0.000371653)
(1.02875 -0.000712461 -0.000443376)
(1.02877 -0.000814083 -0.000458141)
(1.02874 -0.000819468 -0.000545528)
(1.02875 -0.000814277 -0.000591521)
(1.02871 -0.00081394 -0.00062649)
(1.02864 -0.000820528 -0.000645031)
(1.02866 -0.000877644 -0.000647548)
(1.02875 -0.000787131 -0.000660264)
(1.02881 -0.000808181 -0.000653179)
(1.0288 -0.000739393 -0.00056528)
(1.02877 -0.000735106 -0.000571455)
(1.02878 -0.000705552 -0.000491218)
(1.02872 -0.000613913 -0.000390244)
(1.02865 -0.000549878 -0.000292571)
(1.02848 -0.000553856 -0.000229604)
(1.02843 -0.000631136 -0.000221258)
(1.02837 -0.000606363 -0.000223886)
(1.02833 -0.000720099 -0.000240923)
(1.02783 -0.000658766 -0.00112081)
(1.02767 -0.00069742 -0.00106144)
(1.02765 -0.000875598 -0.000998633)
(1.02771 -0.00107351 -0.000919259)
(1.02767 -0.00119818 -0.000971921)
(1.02773 -0.00112944 -0.00103354)
(1.02768 -0.000946116 -0.00114845)
(1.0276 -0.000878411 -0.00110073)
(1.02761 -0.000840703 -0.00113497)
(1.02776 -0.000672734 -0.00127224)
(1.02781 -0.000621798 -0.00134004)
(1.02774 -0.000690578 -0.0013958)
(1.02783 -0.000792473 -0.00147107)
(1.02786 -0.000903804 -0.00140585)
(1.02789 -0.000969809 -0.00152507)
(1.02806 -0.000969794 -0.00152974)
(1.02826 -0.000647409 -0.00143366)
(1.02822 -0.000461208 -0.00137533)
(1.02807 -0.000503538 -0.00128042)
(1.02803 -0.000552544 -0.00118501)
(1.02804 -0.000620945 -0.00116583)
(1.02803 -0.00072459 -0.00116659)
(1.02805 -0.000701243 -0.00124691)
(1.02801 -0.000852171 -0.00125224)
(1.02797 -0.000829569 -0.00132739)
(1.028 -0.000817509 -0.00136848)
(1.02794 -0.000817957 -0.00143583)
(1.02789 -0.000813239 -0.00148509)
(1.02787 -0.000879488 -0.00148017)
(1.02797 -0.000795171 -0.00148981)
(1.02802 -0.000839496 -0.00149233)
(1.02804 -0.000732184 -0.00137922)
(1.02802 -0.000731092 -0.00140367)
(1.02806 -0.000660295 -0.00135157)
(1.02807 -0.000538028 -0.00121182)
(1.02803 -0.000478208 -0.00109013)
(1.02782 -0.00052046 -0.00102291)
(1.02771 -0.000621056 -0.00101474)
(1.02764 -0.000617407 -0.00101147)
(1.02764 -0.000750715 -0.00103388)
(1.02765 -0.000559931 -0.00247046)
(1.02748 -0.00056525 -0.00231324)
(1.02736 -0.000818446 -0.00217323)
(1.02733 -0.00116163 -0.00206341)
(1.02715 -0.00126055 -0.00213264)
(1.02714 -0.0011409 -0.00224616)
(1.02713 -0.000885896 -0.00241213)
(1.0271 -0.000857098 -0.00237283)
(1.0271 -0.000822111 -0.00238332)
(1.02723 -0.000623722 -0.00255448)
(1.02721 -0.000595394 -0.00262172)
(1.0271 -0.00062381 -0.00265794)
(1.02708 -0.000720248 -0.00275563)
(1.02696 -0.000839801 -0.00276127)
(1.02683 -0.000897364 -0.00294679)
(1.02679 -0.000858998 -0.00290871)
(1.02689 -0.000490089 -0.00273799)
(1.02695 -0.000237799 -0.00258618)
(1.02689 -0.000258702 -0.00239878)
(1.02687 -0.000291634 -0.00225454)
(1.0269 -0.000406761 -0.00221655)
(1.02687 -0.000488214 -0.00218952)
(1.02682 -0.000535677 -0.00226222)
(1.02674 -0.000725241 -0.00226719)
(1.02674 -0.000685752 -0.00234261)
(1.02689 -0.000670515 -0.00239642)
(1.02684 -0.000697917 -0.0025324)
(1.02689 -0.000674237 -0.0026236)
(1.02687 -0.000754169 -0.00263386)
(1.02707 -0.000694684 -0.00267359)
(1.02712 -0.000779704 -0.0026989)
(1.02719 -0.000632369 -0.00254097)
(1.02723 -0.00064184 -0.00261036)
(1.02733 -0.000528132 -0.00262225)
(1.0275 -0.000372078 -0.0024281)
(1.02757 -0.000289535 -0.00230801)
(1.02743 -0.000348782 -0.00230748)
(1.02736 -0.00045029 -0.00234663)
(1.02738 -0.000483168 -0.0023558)
(1.02746 -0.00064165 -0.00240172)
(1.02706 -6.30345e-05 -0.00421076)
(1.02678 -2.27215e-05 -0.00392177)
(1.02634 -0.000431666 -0.00365088)
(1.02583 -0.000926655 -0.00344905)
(1.02526 -0.000996199 -0.00346716)
(1.025 -0.000848001 -0.00356183)
(1.02497 -0.0005332 -0.00377144)
(1.02484 -0.000527786 -0.00374447)
(1.02453 -0.000515779 -0.00373033)
(1.02445 -0.000342035 -0.00398919)
(1.0242 -0.000341861 -0.00396639)
(1.02403 -0.00025399 -0.00397394)
(1.02392 -0.000353209 -0.0041566)
(1.02372 -0.000490437 -0.00431221)
(1.02343 -0.00046722 -0.00453534)
(1.0231 -0.000427873 -0.00439503)
(1.02323 -0.000127487 -0.00418885)
(1.02383 0.000187853 -0.00398376)
(1.02431 0.000235819 -0.0037293)
(1.02482 0.000263152 -0.00357887)
(1.02517 0.000139394 -0.0034833)
(1.02534 0.000121804 -0.00336543)
(1.02537 -1.68488e-05 -0.00338152)
(1.02553 -0.000219431 -0.00342885)
(1.02571 -0.000191452 -0.00354219)
(1.02603 -0.000165715 -0.00361702)
(1.0259 -0.000222636 -0.00381075)
(1.02607 -0.000193976 -0.00388028)
(1.02617 -0.000261284 -0.00391043)
(1.02654 -0.000227654 -0.00398716)
(1.02658 -0.000285998 -0.00403706)
(1.02665 -0.000132927 -0.00378242)
(1.02667 -0.000178101 -0.00390979)
(1.02667 -4.95517e-05 -0.00396787)
(1.02695 0.00010831 -0.00367436)
(1.02699 0.00015529 -0.00364127)
(1.02694 0.000110731 -0.00379804)
(1.02698 3.2493e-05 -0.00396019)
(1.0271 -2.45253e-05 -0.00405765)
(1.02704 -0.000176569 -0.00416214)
(1.02462 0.000694896 -0.00557375)
(1.02432 0.000848014 -0.00522825)
(1.02341 0.000355388 -0.00484604)
(1.02216 -0.000159789 -0.00449795)
(1.02133 -0.000187934 -0.00447986)
(1.02077 -9.96193e-05 -0.0045601)
(1.02066 0.000240205 -0.00475435)
(1.02027 0.000302697 -0.00463801)
(1.01969 0.00029004 -0.00451832)
(1.01943 0.000432514 -0.00473896)
(1.01918 0.000466515 -0.00460923)
(1.01933 0.00063155 -0.00480927)
(1.01972 0.000430606 -0.00522649)
(1.01992 0.000264942 -0.00552581)
(1.02 0.000395571 -0.00566369)
(1.01996 0.000363622 -0.00548943)
(1.02052 0.000517008 -0.00549302)
(1.02196 0.000817429 -0.00538727)
(1.02322 0.000958405 -0.00513024)
(1.02445 0.00105411 -0.00494604)
(1.02533 0.000952689 -0.00471937)
(1.02591 0.000969764 -0.00441923)
(1.02617 0.000765272 -0.00439197)
(1.02665 0.000547844 -0.00451599)
(1.02688 0.000553557 -0.00463739)
(1.02722 0.000573057 -0.00471858)
(1.02663 0.00046002 -0.00492086)
(1.02679 0.00047736 -0.00491005)
(1.02684 0.000393831 -0.00493031)
(1.02713 0.000399068 -0.00501202)
(1.02686 0.000389228 -0.00499595)
(1.0267 0.000543603 -0.00454443)
(1.02635 0.000509597 -0.00471616)
(1.0258 0.000638483 -0.004665)
(1.02588 0.000786751 -0.00428042)
(1.02541 0.000666657 -0.00446485)
(1.02524 0.000620491 -0.00481463)
(1.0251 0.000632123 -0.0051844)
(1.025 0.000566241 -0.00540377)
(1.02459 0.000493744 -0.00552838)
(1.02055 0.00197886 -0.00469092)
(1.02063 0.00229991 -0.00451103)
(1.01976 0.00177725 -0.00418042)
(1.01846 0.00134998 -0.00392761)
(1.01823 0.00125064 -0.0043268)
(1.01779 0.00112904 -0.00466691)
(1.01782 0.00147114 -0.00482673)
(1.0176 0.00168562 -0.00456492)
(1.01759 0.00166074 -0.00411468)
(1.01786 0.00177418 -0.00428689)
(1.0186 0.00190534 -0.00437838)
(1.0197 0.00205771 -0.00507444)
(1.02087 0.00176593 -0.00557069)
(1.02161 0.00165614 -0.00572252)
(1.02236 0.0019005 -0.00571378)
(1.02254 0.00182023 -0.00581655)
(1.02329 0.0018217 -0.00610224)
(1.02498 0.00203102 -0.0059417)
(1.02644 0.00218485 -0.00543862)
(1.02785 0.00232986 -0.00506804)
(1.02884 0.00217349 -0.00466365)
(1.02937 0.00217577 -0.00427858)
(1.02951 0.00189919 -0.00431647)
(1.02979 0.0016897 -0.0045058)
(1.02974 0.0017557 -0.00460144)
(1.02983 0.00186672 -0.00485594)
(1.02833 0.00177478 -0.00525533)
(1.02823 0.00186228 -0.00520801)
(1.02754 0.00168024 -0.00517766)
(1.02709 0.00164292 -0.00523649)
(1.02587 0.00162091 -0.00495622)
(1.02525 0.00174898 -0.00421562)
(1.02402 0.00177825 -0.00441462)
(1.0227 0.00185924 -0.00411606)
(1.0223 0.00183219 -0.00375006)
(1.02099 0.00151807 -0.00407238)
(1.02059 0.00153539 -0.00446939)
(1.02009 0.00149159 -0.00490254)
(1.01997 0.00129734 -0.00483007)
(1.01992 0.00148674 -0.00466392)
(1.0177 0.00324919 -0.00251487)
(1.01813 0.00370155 -0.00242294)
(1.01796 0.00320336 -0.0021805)
(1.01744 0.00277813 -0.00240078)
(1.018 0.00253305 -0.0032476)
(1.0176 0.00244853 -0.00364369)
(1.01821 0.0029141 -0.00377682)
(1.01836 0.00323032 -0.00335195)
(1.01967 0.00304445 -0.00284874)
(1.02069 0.00316572 -0.00332621)
(1.02243 0.00336081 -0.00360095)
(1.02373 0.0035446 -0.00437984)
(1.02498 0.00323918 -0.00454002)
(1.02529 0.00323344 -0.0043671)
(1.02602 0.00341143 -0.00434297)
(1.02555 0.00322397 -0.00455063)
(1.02623 0.00304234 -0.00457632)
(1.02762 0.00324776 -0.00406016)
(1.02881 0.00345492 -0.00338221)
(1.02967 0.00364634 -0.00295728)
(1.03035 0.00342816 -0.00266335)
(1.03057 0.00342945 -0.00228184)
(1.03057 0.0029911 -0.00244329)
(1.03042 0.00278256 -0.00246253)
(1.03032 0.00281295 -0.00255355)
(1.03019 0.00300793 -0.00297832)
(1.02861 0.00296409 -0.00359177)
(1.02864 0.00318614 -0.00335376)
(1.02701 0.00300871 -0.00344448)
(1.02548 0.00309266 -0.00350331)
(1.02334 0.003089 -0.00301452)
(1.02218 0.0032344 -0.00215364)
(1.02028 0.00334588 -0.00262984)
(1.01865 0.00352157 -0.00236731)
(1.01793 0.00328061 -0.00235972)
(1.01638 0.00281845 -0.00254431)
(1.01621 0.00280619 -0.00304414)
(1.01578 0.00253038 -0.00311939)
(1.01611 0.00224454 -0.0025266)
(1.01669 0.00254765 -0.00224955)
(1.01758 0.00446127 -0.000984224)
(1.01779 0.00467986 -0.000723527)
(1.01818 0.00398507 -0.000278592)
(1.01767 0.00337745 -0.000564525)
(1.01766 0.00289208 -0.00118472)
(1.01654 0.00296898 -0.00134673)
(1.01771 0.00361463 -0.00161363)
(1.01784 0.00374334 -0.000845542)
(1.01974 0.00340809 -0.00028253)
(1.01978 0.0037532 -0.00085487)
(1.02153 0.00382088 -0.000830613)
(1.02152 0.00393344 -0.00128959)
(1.02199 0.00373975 -0.00130481)
(1.02096 0.00388763 -0.00112909)
(1.02191 0.00405421 -0.00143507)
(1.02079 0.00381986 -0.0015989)
(1.02231 0.00341671 -0.00101721)
(1.02339 0.00341897 -0.000249087)
(1.02424 0.00364115 0.000374545)
(1.02348 0.00398448 0.00068653)
(1.02413 0.00374798 0.000815234)
(1.02351 0.00400715 0.00153034)
(1.02306 0.00380647 0.00145945)
(1.0218 0.00372992 0.00173388)
(1.02169 0.00370299 0.00153502)
(1.02092 0.00401543 0.0012501)
(1.02015 0.00403823 0.000933585)
(1.0204 0.00428757 0.00133652)
(1.01908 0.0042194 0.000856645)
(1.01762 0.00452048 0.000816719)
(1.01662 0.00449889 0.00117)
(1.0157 0.00472137 0.00175359)
(1.01516 0.0049566 0.000913995)
(1.01479 0.00535128 0.000845117)
(1.01544 0.00494453 0.000197241)
(1.01464 0.00440967 -0.000170944)
(1.01567 0.00436263 -0.000983161)
(1.01532 0.00397651 -0.000962341)
(1.01596 0.00355561 -0.00057592)
(1.01655 0.00392992 -0.000350707)
(1.01351 0.00515691 0.00319447)
(1.01239 0.00522339 0.00320146)
(1.01165 0.00440629 0.00321993)
(1.00947 0.00362868 0.00269543)
(1.00797 0.00298595 0.00199778)
(1.00548 0.00313324 0.00198694)
(1.00729 0.00377829 0.00180205)
(1.00746 0.00359489 0.00313618)
(1.00887 0.00311287 0.00369009)
(1.00626 0.00351429 0.00301884)
(1.00853 0.00341949 0.00336213)
(1.00643 0.00360584 0.00328334)
(1.00755 0.00351955 0.00319161)
(1.00632 0.00390091 0.0028098)
(1.0091 0.00415322 0.00218733)
(1.00806 0.0039004 0.0018291)
(1.01145 0.00314992 0.00263992)
(1.01107 0.00293401 0.00319484)
(1.01196 0.00312525 0.00372207)
(1.01036 0.00313293 0.00383287)
(1.01347 0.00262549 0.00420918)
(1.01284 0.00282719 0.00521853)
(1.01315 0.00282947 0.00566809)
(1.01092 0.00278803 0.00605771)
(1.01133 0.00275775 0.00605259)
(1.00903 0.00324045 0.00601491)
(1.00895 0.00343298 0.00625581)
(1.00841 0.0037951 0.00664525)
(1.00792 0.00382492 0.00608817)
(1.00645 0.00420391 0.00624066)
(1.00709 0.00430102 0.00638869)
(1.00695 0.00470693 0.00684238)
(1.00847 0.00523062 0.00594042)
(1.00994 0.005795 0.0055114)
(1.01262 0.00537767 0.00477863)
(1.01261 0.00524353 0.00456045)
(1.01455 0.00528582 0.00386673)
(1.01321 0.00485475 0.00384485)
(1.01342 0.0042425 0.00390727)
(1.01265 0.004749 0.00402293)
(0.998148 0.00458917 0.00856208)
(0.996187 0.0042858 0.00822692)
(0.994809 0.00351655 0.0073551)
(0.992539 0.00287251 0.00629624)
(0.990603 0.00223735 0.00501384)
(0.98792 0.00212271 0.00487025)
(0.989999 0.00251986 0.0048937)
(0.990249 0.00217541 0.00663869)
(0.990908 0.00170549 0.00608989)
(0.988049 0.00210031 0.00505943)
(0.990496 0.00242613 0.00582629)
(0.986675 0.00306428 0.00613884)
(0.988316 0.00312364 0.00663946)
(0.98647 0.00345908 0.00672798)
(0.991415 0.00350748 0.00666291)
(0.990573 0.00282434 0.00673033)
(0.994703 0.00212036 0.00737632)
(0.991399 0.00236983 0.00699208)