/*--------------------------------*- C++ -*----------------------------------*\
  =========                 |
  \\      /  F ield         | OpenFOAM: The Open Source CFD Toolbox
   \\    /   O peration     | Website:  https://openfoam.org
    \\  /    A nd           | Version:  10
     \\/     M anipulation  |
\*---------------------------------------------------------------------------*/
FoamFile
{
    format      ascii;
    class       volVectorField;
    location    "17";
    object      UMean;
}
// * * * * * * * * * * * * * * * * * * * * * * * * * * * * * * * * * * * * * //

dimensions      [0 1 -1 0 0 0 0];

internalField   nonuniform List<vector> 
25600
(
(0.134845 2.59998e-06 -8.88041e-09)
(0.134845 3.45792e-06 -1.47252e-07)
(0.134845 4.15722e-06 2.36463e-08)
(0.134844 5.08529e-06 5.56582e-08)
(0.134844 5.73725e-06 1.03799e-07)
(0.134843 6.54467e-06 8.15323e-08)
(0.134843 7.13781e-06 1.1975e-07)
(0.134842 7.68265e-06 9.91511e-08)
(0.134842 8.2609e-06 1.23707e-07)
(0.134841 8.38868e-06 9.53808e-08)
(0.134842 8.69894e-06 5.76055e-08)
(0.134841 8.57306e-06 -3.18762e-08)
(0.134841 8.2391e-06 -1.81468e-08)
(0.134841 7.78907e-06 -9.80133e-08)
(0.134842 6.91148e-06 -1.20194e-07)
(0.134841 6.04911e-06 -1.5435e-07)
(0.134842 4.72988e-06 -1.55035e-07)
(0.134842 3.6743e-06 -1.79892e-07)
(0.134842 2.06624e-06 -8.19672e-08)
(0.134843 1.06618e-06 -3.0531e-08)
(0.134843 -3.78491e-07 5.70457e-08)
(0.134844 -1.57268e-06 2.0077e-07)
(0.134843 -2.47612e-06 2.54627e-07)
(0.134846 -3.51207e-06 3.78785e-07)
(0.134844 -4.47755e-06 4.49461e-07)
(0.134847 -4.79854e-06 4.41044e-07)
(0.134846 -5.53101e-06 5.01071e-07)
(0.134848 -5.50555e-06 4.0168e-07)
(0.134848 -5.68264e-06 3.60603e-07)
(0.134849 -5.22495e-06 2.65728e-07)
(0.134848 -5.19871e-06 1.89663e-07)
(0.13485 -4.17094e-06 2.16153e-08)
(0.134848 -4.06772e-06 -8.83211e-08)
(0.13485 -2.98824e-06 -2.18621e-07)
(0.134847 -2.41346e-06 -2.60026e-07)
(0.134849 -1.55486e-06 -3.66118e-07)
(0.134846 -7.00298e-07 -2.73221e-07)
(0.134848 1.64172e-07 -3.14703e-07)
(0.134844 8.69795e-07 -2.81688e-07)
(0.134848 1.89994e-06 -2.14023e-07)
(0.136142 4.12854e-06 3.98692e-07)
(0.136142 4.87531e-06 1.38312e-07)
(0.136142 5.32035e-06 3.07479e-07)
(0.13614 6.35693e-06 3.87767e-07)
(0.136141 6.47548e-06 3.88509e-07)
(0.13614 7.60584e-06 3.88698e-07)
(0.136139 7.76663e-06 4.035e-07)
(0.136139 8.25538e-06 3.9319e-07)
(0.136139 8.84296e-06 4.87842e-07)
(0.136138 8.60818e-06 4.4095e-07)
(0.136138 9.08843e-06 3.95327e-07)
(0.136137 8.75671e-06 2.64826e-07)
(0.136138 8.35242e-06 2.96454e-07)
(0.136137 7.88676e-06 1.34983e-07)
(0.136138 6.68872e-06 1.43678e-07)
(0.136137 6.11207e-06 -3.50805e-08)
(0.136138 4.39978e-06 -7.41817e-08)
(0.136137 3.62487e-06 -2.85706e-07)
(0.136138 1.63876e-06 -2.1865e-07)
(0.136138 8.62677e-07 -3.48519e-07)
(0.136139 -9.41545e-07 -2.66997e-07)
(0.13614 -2.01991e-06 -2.66763e-07)
(0.136141 -3.06235e-06 -2.14389e-07)
(0.136141 -4.13821e-06 -1.97427e-07)
(0.136142 -5.44632e-06 -4.34369e-08)
(0.136144 -5.29769e-06 -1.4268e-07)
(0.136144 -6.45726e-06 1.10254e-07)
(0.136145 -5.91382e-06 -5.19834e-08)
(0.136146 -6.10437e-06 1.08739e-07)
(0.136146 -5.35999e-06 4.17486e-08)
(0.136147 -5.09103e-06 1.58538e-07)
(0.136147 -3.44467e-06 -6.24152e-08)
(0.136147 -3.65232e-06 -1.42276e-08)
(0.136147 -1.57484e-06 -1.39235e-07)
(0.136146 -1.45119e-06 -8.86012e-08)
(0.136146 -3.83335e-08 -2.30382e-07)
(0.136145 8.28099e-07 2.10851e-08)
(0.136145 1.73278e-06 -7.54221e-08)
(0.136144 2.48604e-06 -1.03953e-08)
(0.136144 3.11534e-06 3.63292e-07)
(0.13637 6.08874e-06 9.54671e-07)
(0.13637 6.77591e-06 5.75941e-07)
(0.13637 6.84181e-06 7.42384e-07)
(0.136369 8.12022e-06 8.15922e-07)
(0.136369 7.43215e-06 7.1798e-07)
(0.136368 9.16929e-06 7.5345e-07)
(0.136368 8.55331e-06 7.41923e-07)
(0.136368 9.39575e-06 7.07269e-07)
(0.136367 9.80681e-06 8.67415e-07)
(0.136366 9.16387e-06 7.67408e-07)
(0.136366 1.00323e-05 7.17858e-07)
(0.136365 9.18536e-06 5.3985e-07)
(0.136366 8.98791e-06 6.14493e-07)
(0.136364 8.3571e-06 3.17878e-07)
(0.136365 6.87225e-06 3.59634e-07)
(0.136364 6.65495e-06 1.02007e-08)
(0.136365 4.28628e-06 -6.4283e-08)
(0.136364 3.93185e-06 -4.19691e-07)
(0.136365 1.2596e-06 -3.39379e-07)
(0.136365 7.91199e-07 -6.08553e-07)
(0.136366 -1.50848e-06 -5.02296e-07)
(0.136367 -2.49696e-06 -6.59303e-07)
(0.136368 -3.6009e-06 -5.34089e-07)
(0.136368 -4.98546e-06 -6.75541e-07)
(0.13637 -6.62007e-06 -3.3781e-07)
(0.136371 -5.8257e-06 -5.80108e-07)
(0.136372 -7.84e-06 -8.70307e-08)
(0.136373 -6.30308e-06 -3.53731e-07)
(0.136374 -6.80748e-06 9.31973e-08)
(0.136374 -5.55811e-06 -2.53949e-08)
(0.136376 -5.01733e-06 3.85052e-07)
(0.136375 -2.55269e-06 -1.64097e-08)
(0.136376 -3.2274e-06 2.33704e-07)
(0.136376 2.84556e-07 6.68464e-08)
(0.136375 -4.98115e-07 2.58279e-07)
(0.136375 2.02298e-06 2.1504e-09)
(0.136373 2.63489e-06 5.19467e-07)
(0.136374 3.72739e-06 2.84637e-07)
(0.136372 4.59544e-06 5.14238e-07)
(0.136373 5.09349e-06 7.68435e-07)
(0.136528 8.58398e-06 1.86727e-06)
(0.136527 8.90119e-06 1.25664e-06)
(0.136527 8.83175e-06 1.44969e-06)
(0.136525 1.0307e-05 1.44794e-06)
(0.136526 8.64776e-06 1.18017e-06)
(0.136525 1.14614e-05 1.24875e-06)
(0.136524 9.5013e-06 1.13804e-06)
(0.136525 1.1353e-05 1.10455e-06)
(0.136523 1.10408e-05 1.32105e-06)
(0.136523 1.02056e-05 1.12099e-06)
(0.136523 1.16888e-05 1.03469e-06)
(0.136521 9.92887e-06 8.01057e-07)
(0.136522 1.0408e-05 9.36717e-07)
(0.13652 9.15023e-06 4.5952e-07)
(0.136521 7.58113e-06 5.87926e-07)
(0.13652 7.78043e-06 -1.7662e-08)
(0.13652 4.3918e-06 -8.62258e-08)
(0.136519 4.95358e-06 -6.28307e-07)
(0.136521 9.087e-07 -4.43788e-07)
(0.136521 1.28929e-06 -8.96827e-07)
(0.136521 -2.0458e-06 -7.08877e-07)
(0.136523 -2.65012e-06 -1.07104e-06)
(0.136523 -4.01693e-06 -7.60661e-07)
(0.136524 -6.01783e-06 -1.144e-06)
(0.136526 -7.85125e-06 -4.70929e-07)
(0.136527 -6.48055e-06 -9.80551e-07)
(0.136529 -9.85748e-06 -1.10479e-07)
(0.13653 -6.53798e-06 -6.04646e-07)
(0.136531 -8.20251e-06 3.14353e-07)
(0.136532 -5.76548e-06 1.38912e-08)
(0.136534 -5.08146e-06 8.83314e-07)
(0.136533 -1.58089e-06 1.30081e-07)
(0.136534 -2.86001e-06 7.81251e-07)
(0.136534 2.7153e-06 4.65376e-07)
(0.136532 1.87028e-07 8.76548e-07)
(0.136533 4.89533e-06 4.28232e-07)
(0.136531 4.55335e-06 1.3725e-06)
(0.136531 6.34131e-06 8.49433e-07)
(0.136529 6.96577e-06 1.41447e-06)
(0.13653 7.26404e-06 1.45174e-06)
(0.136673 1.17666e-05 3.28198e-06)
(0.136672 1.14339e-05 2.23023e-06)
(0.136673 1.15936e-05 2.56539e-06)
(0.13667 1.29601e-05 2.33777e-06)
(0.136672 1.03251e-05 1.83907e-06)
(0.13667 1.45944e-05 1.94533e-06)
(0.136669 1.05816e-05 1.61572e-06)
(0.13667 1.43481e-05 1.62475e-06)
(0.136668 1.23017e-05 1.8427e-06)
(0.136668 1.19827e-05 1.48271e-06)
(0.136668 1.39792e-05 1.31978e-06)
(0.136666 1.09595e-05 1.02566e-06)
(0.136667 1.27686e-05 1.24665e-06)
(0.136664 1.01201e-05 5.43823e-07)
(0.136666 9.0769e-06 8.20997e-07)
(0.136663 9.39904e-06 -1.24323e-07)
(0.136664 4.7774e-06 -1.16769e-07)
(0.136663 6.7316e-06 -8.72673e-07)
(0.136664 3.71049e-07 -5.00541e-07)
(0.136665 2.49739e-06 -1.2174e-06)
(0.136665 -2.68164e-06 -8.89821e-07)
(0.136667 -2.38871e-06 -1.48665e-06)
(0.136667 -4.45745e-06 -8.49597e-07)
(0.136668 -7.26161e-06 -1.60881e-06)
(0.136671 -9.11911e-06 -3.85766e-07)
(0.136672 -7.45923e-06 -1.3759e-06)
(0.136674 -1.25023e-05 9.07876e-08)
(0.136676 -6.60239e-06 -7.95729e-07)
(0.136677 -1.05296e-05 8.75217e-07)
(0.136678 -5.66706e-06 1.52826e-07)
(0.136681 -5.35574e-06 1.77381e-06)
(0.136679 -3.49398e-07 4.11468e-07)
(0.136681 -2.32546e-06 1.78907e-06)
(0.13668 5.82212e-06 1.1017e-06)
(0.136678 7.32423e-07 1.87565e-06)
(0.13668 9.03234e-06 1.12401e-06)
(0.136676 6.57269e-06 2.73134e-06)
(0.136677 9.94089e-06 1.67518e-06)
(0.136674 9.67193e-06 2.84071e-06)
(0.136675 1.01553e-05 2.4319e-06)
(0.13681 1.54457e-05 5.45405e-06)
(0.136808 1.44343e-05 3.6563e-06)
(0.13681 1.51671e-05 4.33606e-06)
(0.136806 1.58977e-05 3.60315e-06)
(0.136809 1.26571e-05 2.82445e-06)
(0.136807 1.84774e-05 2.91938e-06)
(0.136806 1.18304e-05 2.21553e-06)
(0.136807 1.8485e-05 2.35932e-06)
(0.136803 1.3373e-05 2.43696e-06)
(0.136805 1.48945e-05 1.89397e-06)
(0.136804 1.67656e-05 1.5325e-06)
(0.136802 1.25186e-05 1.22296e-06)
(0.136803 1.62808e-05 1.52974e-06)
(0.136799 1.12272e-05 6.06786e-07)
(0.136802 1.17913e-05 1.02986e-06)
(0.136798 1.12965e-05 -3.31523e-07)
(0.1368 5.71399e-06 -1.25749e-07)
(0.136798 9.34622e-06 -1.13248e-06)
(0.136799 -3.33201e-07 -4.73191e-07)
(0.1368 4.89316e-06 -1.56758e-06)
(0.1368 -3.48735e-06 -1.04264e-06)
(0.136804 -1.34308e-06 -1.86586e-06)
(0.136802 -4.99481e-06 -7.57638e-07)
(0.136803 -8.50843e-06 -2.01843e-06)
(0.136808 -1.03686e-05 1.6215e-08)
(0.136807 -9.01156e-06 -1.75367e-06)
(0.136811 -1.56739e-05 6.3753e-07)
(0.136813 -6.65965e-06 -9.21857e-07)
(0.136814 -1.40808e-05 1.9069e-06)
(0.136817 -4.95109e-06 4.08029e-07)
(0.136819 -6.24265e-06 3.27022e-06)
(0.136817 1.41329e-06 8.96683e-07)
(0.136819 -1.68439e-06 3.44955e-06)
(0.136817 9.56037e-06 2.00679e-06)
(0.136816 1.19689e-06 3.42667e-06)
(0.136819 1.45815e-05 2.19392e-06)
(0.136813 8.52118e-06 4.79449e-06)
(0.136815 1.48477e-05 2.90433e-06)
(0.136811 1.24695e-05 5.08019e-06)
(0.136813 1.40184e-05 3.89274e-06)
(0.136938 1.92275e-05 8.73223e-06)
(0.136937 1.81878e-05 5.80842e-06)
(0.136938 1.94132e-05 7.10144e-06)
(0.136934 1.91563e-05 5.39894e-06)
(0.136938 1.58626e-05 4.33063e-06)
(0.136935 2.29997e-05 4.29642e-06)
(0.136934 1.34353e-05 3.05812e-06)
(0.136936 2.3733e-05 3.42292e-06)
(0.136931 1.42014e-05 3.09474e-06)
(0.136935 1.93907e-05 2.38971e-06)
(0.136931 1.97485e-05 1.5877e-06)
(0.136931 1.50857e-05 1.3652e-06)
(0.136931 2.09315e-05 1.75918e-06)
(0.136927 1.25777e-05 6.96223e-07)
(0.136931 1.60163e-05 1.29674e-06)
(0.136925 1.31903e-05 -5.65807e-07)
(0.136928 7.56797e-06 -6.44952e-08)
(0.136925 1.26787e-05 -1.33631e-06)
(0.136927 -9.5962e-07 -3.54629e-07)
(0.136928 8.79622e-06 -1.87579e-06)
(0.136927 -4.61625e-06 -1.10129e-06)
(0.136932 8.43397e-07 -2.07572e-06)
(0.136928 -5.8311e-06 -3.65996e-07)
(0.13693 -9.39996e-06 -2.26713e-06)
(0.136936 -1.18418e-05 8.32579e-07)
(0.136934 -1.1381e-05 -2.05313e-06)
(0.13694 -1.92891e-05 1.69603e-06)
(0.136942 -7.17189e-06 -8.85749e-07)
(0.136943 -1.88464e-05 3.59715e-06)
(0.136949 -3.53821e-06 8.21176e-07)
(0.13695 -8.26578e-06 5.57081e-06)
(0.136947 4.20169e-06 1.68567e-06)
(0.136951 -1.21919e-06 5.98598e-06)
(0.136947 1.40641e-05 3.21234e-06)
(0.136946 1.71271e-06 5.77236e-06)
(0.136949 2.15086e-05 3.82701e-06)
(0.136941 1.03637e-05 7.80105e-06)
(0.136944 2.12493e-05 4.77695e-06)
(0.136939 1.51539e-05 8.45937e-06)
(0.136942 1.92414e-05 6.06389e-06)
(0.137058 2.24555e-05 1.36073e-05)
(0.137058 2.29835e-05 9.20578e-06)
(0.137059 2.37702e-05 1.13748e-05)
(0.137053 2.29634e-05 8.08593e-06)
(0.13706 1.98307e-05 6.73688e-06)
(0.137055 2.79726e-05 6.29194e-06)
(0.137056 1.55375e-05 4.42131e-06)
(0.137057 2.97299e-05 5.054e-06)
(0.137051 1.48504e-05 3.92494e-06)
(0.137058 2.55449e-05 3.14488e-06)
(0.137051 2.25744e-05 1.4869e-06)
(0.137052 1.91979e-05 1.62977e-06)
(0.137051 2.63469e-05 2.01103e-06)
(0.137046 1.44771e-05 1.07692e-06)
(0.137052 2.16901e-05 1.71753e-06)
(0.137044 1.48377e-05 -5.96982e-07)
(0.13705 1.07307e-05 1.77456e-07)
(0.137043 1.63468e-05 -1.26603e-06)
(0.137047 -9.07362e-07 -1.56598e-08)
(0.137048 1.42788e-05 -1.87338e-06)
(0.137045 -6.04814e-06 -9.22703e-07)
(0.137053 4.54039e-06 -1.74146e-06)
(0.137046 -7.15446e-06 6.09427e-07)
(0.137049 -9.47219e-06 -1.99296e-06)
(0.137057 -1.40707e-05 2.23101e-06)
(0.137053 -1.46622e-05 -1.98712e-06)
(0.137063 -2.35893e-05 3.57378e-06)
(0.137064 -8.79045e-06 -3.72321e-07)
(0.137066 -2.45759e-05 6.25627e-06)
(0.137073 -1.78753e-06 1.63211e-06)
(0.137073 -1.18424e-05 9.01318e-06)
(0.13707 8.39903e-06 3.0007e-06)
(0.137075 -1.67772e-06 9.79992e-06)
(0.137068 1.95883e-05 4.92567e-06)
(0.137069 2.1031e-06 9.29511e-06)
(0.137073 2.94798e-05 6.34074e-06)
(0.137062 1.20755e-05 1.21497e-05)
(0.137067 2.8969e-05 7.74287e-06)
(0.137059 1.7524e-05 1.34015e-05)
(0.137064 2.58892e-05 9.35078e-06)
(0.13717 2.43076e-05 2.07818e-05)
(0.137172 2.88577e-05 1.47834e-05)
(0.137173 2.7367e-05 1.79308e-05)
(0.137166 2.76411e-05 1.24353e-05)
(0.137175 2.3957e-05 1.05812e-05)
(0.137167 3.31555e-05 9.43183e-06)
(0.13717 1.80194e-05 6.81166e-06)
(0.13717 3.60124e-05 7.78689e-06)
(0.137164 1.55282e-05 5.25008e-06)
(0.137174 3.29558e-05 4.55766e-06)
(0.137163 2.50188e-05 1.39353e-06)
(0.137167 2.51449e-05 2.41348e-06)
(0.137163 3.20205e-05 2.57286e-06)
(0.137159 1.74025e-05 2.16741e-06)
(0.137166 2.8273e-05 2.60084e-06)
(0.137155 1.61463e-05 -1.54388e-07)
(0.137164 1.5169e-05 9.00533e-07)
(0.137154 1.99665e-05 -4.67436e-07)
(0.137161 4.35299e-07 8.74234e-07)
(0.137161 2.10523e-05 -1.0918e-06)
(0.137157 -7.63698e-06 -1.88404e-07)
(0.137167 9.82591e-06 -2.70048e-07)
(0.137157 -9.08055e-06 2.68394e-06)
(0.137162 -8.3309e-06 -6.29094e-07)
(0.137169 -1.79143e-05 4.5355e-06)
(0.137165 -1.86767e-05 -1.06174e-06)
(0.137179 -2.94084e-05 6.83806e-06)
(0.137178 -1.19615e-05 1.18755e-06)
(0.137182 -3.1249e-05 1.03737e-05)
(0.13719 -6.62192e-07 3.16124e-06)
(0.13719 -1.72368e-05 1.40202e-05)
(0.137187 1.39302e-05 5.26077e-06)
(0.137191 -4.09724e-06 1.54322e-05)
(0.137184 2.64849e-05 7.57191e-06)
(0.137186 1.50652e-06 1.44559e-05)
(0.137189 3.81358e-05 1.01258e-05)
(0.137176 1.35384e-05 1.84983e-05)
(0.137182 3.74658e-05 1.25871e-05)
(0.137172 1.93294e-05 2.05723e-05)
(0.137179 3.34765e-05 1.44832e-05)
(0.137276 2.36724e-05 3.14012e-05)
(0.137279 3.52402e-05 2.40764e-05)
(0.137279 2.91423e-05 2.81033e-05)
(0.137272 3.33171e-05 1.98744e-05)
(0.137283 2.69678e-05 1.67912e-05)
(0.137273 3.82868e-05 1.46284e-05)
(0.137277 2.00625e-05 1.11764e-05)
(0.137276 4.20429e-05 1.26241e-05)
(0.13727 1.61637e-05 7.74515e-06)
(0.137282 4.04174e-05 7.28216e-06)
(0.137268 2.68925e-05 1.77582e-06)
(0.137276 3.25303e-05 4.50021e-06)
(0.137269 3.74303e-05 4.03797e-06)
(0.137265 2.15644e-05 4.88246e-06)
(0.137272 3.45686e-05 4.39816e-06)
(0.137259 1.7126e-05 1.45235e-06)
(0.137272 2.01225e-05 2.6634e-06)
(0.137258 2.3378e-05 1.95902e-06)
(0.137269 3.25028e-06 2.95974e-06)
(0.137266 2.82371e-05 1.30433e-06)
(0.137262 -9.18314e-06 1.68588e-06)
(0.137274 1.61957e-05 3.45096e-06)
(0.13726 -1.15179e-05 6.81566e-06)
(0.137267 -6.05173e-06 2.87519e-06)
(0.137273 -2.44443e-05 8.24467e-06)
(0.13727 -2.34125e-05 1.73024e-06)
(0.137287 -3.83876e-05 1.24254e-05)
(0.137284 -1.66319e-05 5.03727e-06)
(0.137292 -3.96334e-05 1.67741e-05)
(0.137301 -1.53171e-06 6.14838e-06)
(0.137301 -2.47882e-05 2.13056e-05)
(0.137298 1.9816e-05 9.48185e-06)
(0.137301 -9.54153e-06 2.39091e-05)
(0.137292 3.47503e-05 1.2127e-05)
(0.137296 -1.85723e-06 2.20867e-05)
(0.137299 4.69873e-05 1.60802e-05)
(0.137283 1.39267e-05 2.79545e-05)
(0.13729 4.58298e-05 2.06295e-05)
(0.137277 1.98765e-05 3.10407e-05)
(0.137287 4.07051e-05 2.27308e-05)
(0.137374 1.89542e-05 4.70781e-05)
(0.137381 4.06657e-05 3.96059e-05)
(0.137378 2.78651e-05 4.40641e-05)
(0.137372 3.94868e-05 3.28233e-05)
(0.137384 2.68957e-05 2.6782e-05)
(0.137371 4.27577e-05 2.36641e-05)
(0.137378 1.99388e-05 1.9165e-05)
(0.137376 4.72312e-05 2.16544e-05)
(0.13737 1.5675e-05 1.27356e-05)
(0.137385 4.62358e-05 1.26637e-05)
(0.137367 2.7613e-05 3.62579e-06)
(0.137378 4.01461e-05 9.33488e-06)
(0.137367 4.18527e-05 7.89513e-06)
(0.137365 2.6335e-05 1.07373e-05)
(0.137372 3.86197e-05 8.08443e-06)
(0.137356 1.7382e-05 5.32664e-06)
(0.137374 2.38762e-05 6.68473e-06)
(0.137355 2.65368e-05 7.58464e-06)
(0.137371 6.61141e-06 7.37384e-06)
(0.137364 3.4276e-05 6.56173e-06)
(0.13736 -1.07949e-05 5.77544e-06)
(0.137374 2.26178e-05 1.10746e-05)
(0.137355 -1.41633e-05 1.46008e-05)
(0.137365 -3.50259e-06 1.00954e-05)
(0.13737 -3.47434e-05 1.4198e-05)
(0.137367 -2.96049e-05 7.85055e-06)
(0.137389 -5.2691e-05 2.17892e-05)
(0.137385 -2.27229e-05 1.30439e-05)
(0.137396 -5.17147e-05 2.68343e-05)
(0.137404 -5.9232e-06 1.16753e-05)
(0.137406 -3.55514e-05 3.19338e-05)
(0.137401 2.40432e-05 1.71634e-05)
(0.137405 -1.91805e-05 3.69045e-05)
(0.137394 4.32466e-05 2.01307e-05)
(0.137398 -1.05998e-05 3.33185e-05)
(0.137403 5.51786e-05 2.5593e-05)
(0.137383 1.14963e-05 4.23014e-05)
(0.137391 5.29046e-05 3.39669e-05)
(0.137376 1.77814e-05 4.64971e-05)
(0.137388 4.53743e-05 3.59868e-05)
(0.137466 7.4269e-06 7.02133e-05)
(0.137475 4.29641e-05 6.51454e-05)
(0.137471 2.2004e-05 6.91916e-05)
(0.137464 4.4592e-05 5.48215e-05)
(0.137477 2.08276e-05 4.25537e-05)
(0.137463 4.50467e-05 3.9267e-05)
(0.137472 1.48938e-05 3.33126e-05)
(0.137468 5.0771e-05 3.79703e-05)
(0.137463 1.15226e-05 2.22267e-05)
(0.13748 4.86325e-05 2.26477e-05)
(0.13746 2.56538e-05 8.65776e-06)
(0.137475 4.6128e-05 1.91223e-05)
(0.137458 4.42245e-05 1.64336e-05)
(0.137458 3.01658e-05 2.21055e-05)
(0.137463 3.77835e-05 1.49417e-05)
(0.137447 1.53498e-05 1.31925e-05)
(0.13747 2.39341e-05 1.47274e-05)
(0.137446 2.91711e-05 1.8928e-05)
(0.137466 8.36772e-06 1.58071e-05)
(0.137455 3.73947e-05 1.63384e-05)
(0.137453 -1.3949e-05 1.37238e-05)
(0.137467 2.74518e-05 2.52757e-05)
(0.137445 -1.70404e-05 2.84658e-05)
(0.137454 -2.60767e-06 2.34543e-05)
(0.137458 -4.98912e-05 2.35935e-05)
(0.137458 -3.96742e-05 1.9717e-05)
(0.137484 -7.43792e-05 3.71263e-05)
(0.13748 -3.10203e-05 2.84297e-05)
(0.137492 -7.14316e-05 4.2583e-05)
(0.137501 -1.57121e-05 2.15035e-05)
(0.137506 -5.28281e-05 4.74554e-05)
(0.137498 2.35281e-05 3.10168e-05)
(0.137503 -3.46903e-05 5.69262e-05)
(0.137489 4.92588e-05 3.42708e-05)
(0.137494 -2.77008e-05 4.96792e-05)
(0.137501 6.06399e-05 4.10339e-05)
(0.137476 3.36325e-06 6.39796e-05)
(0.137485 5.6871e-05 5.6021e-05)
(0.137467 1.04783e-05 6.95441e-05)
(0.13748 4.43725e-05 5.70336e-05)
(0.137552 -1.5592e-05 0.000103449)
(0.137564 3.88948e-05 0.000105114)
(0.137558 9.13653e-06 0.000107929)
(0.13755 4.57113e-05 9.03714e-05)
(0.137563 4.96371e-06 6.6304e-05)
(0.137548 4.16606e-05 6.49564e-05)
(0.13756 1.46077e-06 5.64716e-05)
(0.137554 5.05306e-05 6.60119e-05)
(0.137549 -3.57466e-07 3.87974e-05)
(0.137568 4.47913e-05 3.93693e-05)
(0.137546 1.7605e-05 1.85201e-05)
(0.137564 4.78211e-05 3.68554e-05)
(0.137542 4.28745e-05 3.27809e-05)
(0.137543 2.98596e-05 4.21604e-05)
(0.137547 2.87926e-05 2.63842e-05)
(0.137532 7.31311e-06 2.70856e-05)
(0.13756 1.72588e-05 2.91804e-05)
(0.137531 2.98137e-05 3.91639e-05)
(0.137555 4.8563e-06 3.03641e-05)
(0.137538 3.53961e-05 3.21559e-05)
(0.137539 -2.19769e-05 2.71018e-05)
(0.137553 2.89174e-05 4.86445e-05)
(0.137527 -2.1028e-05 5.13305e-05)
(0.137535 -6.3477e-06 4.53695e-05)
(0.137539 -7.18964e-05 3.73676e-05)
(0.13754 -5.79969e-05 3.94528e-05)
(0.137573 -0.000105651 6.06555e-05)
(0.137567 -4.395e-05 5.48752e-05)
(0.137582 -0.000103425 6.62026e-05)
(0.137591 -3.35042e-05 3.70877e-05)
(0.137601 -8.29678e-05 6.91494e-05)
(0.137588 1.52813e-05 5.38275e-05)
(0.137594 -5.94505e-05 8.71249e-05)
(0.137577 4.83946e-05 5.72046e-05)
(0.137583 -5.7313e-05 7.25925e-05)
(0.137593 5.8807e-05 6.47306e-05)
(0.137562 -1.44925e-05 9.58516e-05)
(0.137573 5.44503e-05 9.09501e-05)
(0.137551 -6.14537e-06 0.000103234)
(0.137566 3.35558e-05 8.86499e-05)
(0.137634 -5.64328e-05 0.000147597)
(0.137649 2.5571e-05 0.000163043)
(0.137639 -1.37143e-05 0.000164562)
(0.13763 3.91591e-05 0.000143447)
(0.137643 -2.5693e-05 9.85089e-05)
(0.137628 2.72503e-05 0.000102579)
(0.137642 -2.46095e-05 9.03512e-05)
(0.137634 4.33428e-05 0.00011027)
(0.137629 -2.51445e-05 6.39884e-05)
(0.137652 3.06879e-05 6.34707e-05)
(0.137628 -2.78481e-06 3.29782e-05)
(0.137649 4.22896e-05 6.43549e-05)
(0.13762 3.4548e-05 6.02982e-05)
(0.137621 2.18591e-05 7.32631e-05)
(0.137625 6.465e-06 4.25551e-05)
(0.137612 -1.18677e-05 4.73993e-05)
(0.137646 -1.07351e-07 5.12321e-05)
(0.13761 2.55809e-05 7.1419e-05)
(0.137639 -8.69186e-06 5.20754e-05)
(0.137615 2.48612e-05 5.37663e-05)
(0.13762 -4.07742e-05 4.57495e-05)
(0.137635 2.54842e-05 8.27257e-05)
(0.137602 -2.83158e-05 8.60898e-05)
(0.137607 -1.79488e-05 7.78937e-05)
(0.137612 -0.000104673 5.47249e-05)
(0.137616 -9.11795e-05 6.82312e-05)
(0.137658 -0.000148827 9.35836e-05)
(0.137649 -6.67491e-05 9.66844e-05)
(0.137666 -0.000151928 9.93383e-05)
(0.137676 -6.47297e-05 5.87489e-05)
(0.13769 -0.000134723 9.65419e-05)
(0.137673 -3.42106e-06 8.80555e-05)
(0.137681 -9.9113e-05 0.000130461)
(0.137658 3.60633e-05 9.19498e-05)
(0.137666 -0.000105247 0.000101754)
(0.137681 4.29449e-05 9.8189e-05)
(0.137643 -4.66709e-05 0.000139957)
(0.137655 4.10892e-05 0.00014385)
(0.137629 -3.67734e-05 0.000150175)
(0.137644 7.08291e-06 0.000132317)
(0.13772 -0.000124261 0.000195239)
(0.137738 -1.35539e-06 0.000236013)
(0.137726 -5.20703e-05 0.000240323)
(0.137714 2.12864e-05 0.000213552)
(0.137726 -7.77476e-05 0.000132841)
(0.137709 -5.35634e-06 0.000146293)
(0.137729 -6.72672e-05 0.000131022)
(0.137716 2.44352e-05 0.000173278)
(0.137714 -6.66238e-05 9.62114e-05)
(0.13774 1.13495e-06 8.95282e-05)
(0.137713 -4.29147e-05 4.49792e-05)
(0.137738 2.68632e-05 9.88458e-05)
(0.1377 1.45659e-05 0.000100158)
(0.137704 2.56307e-06 0.000115785)
(0.137706 -3.53648e-05 5.70534e-05)
(0.137694 -4.91292e-05 6.84887e-05)
(0.137738 -3.18236e-05 7.63608e-05)
(0.137692 1.04461e-05 0.0001172)
(0.137729 -3.57024e-05 7.82325e-05)
(0.137693 8.79638e-08 7.42627e-05)
(0.137704 -7.79173e-05 6.24379e-05)
(0.137719 1.56931e-05 0.000122472)
(0.137679 -4.3077e-05 0.000132939)
(0.137681 -4.00702e-05 0.000119276)
(0.137686 -0.000154134 6.89337e-05)
(0.137691 -0.000146272 9.97087e-05)
(0.137747 -0.000207624 0.000132063)
(0.137731 -0.00010679 0.000156682)
(0.137756 -0.000221773 0.000140618)
(0.137764 -0.000118063 8.04815e-05)
(0.137785 -0.000218365 0.000122202)
(0.137763 -3.7222e-05 0.000130995)
(0.137773 -0.000162726 0.000187635)
(0.137745 8.21842e-06 0.000137993)
(0.137755 -0.000180551 0.000129938)
(0.137774 3.63107e-06 0.000135798)
(0.13773 -9.93973e-05 0.000193141)
(0.137741 1.01101e-05 0.000218438)
(0.137714 -8.63965e-05 0.000209176)
(0.137726 -4.29484e-05 0.000181927)
(0.137832 -0.000226027 0.000223382)
(0.137848 -4.52262e-05 0.000310956)
(0.137841 -0.00011105 0.000333369)
(0.137825 -1.10583e-05 0.000291859)
(0.137834 -0.000159696 0.000150168)
(0.137809 -6.40759e-05 0.000177554)
(0.137839 -0.000130785 0.000167832)
(0.137824 -1.25002e-05 0.000257034)
(0.137828 -0.00012878 0.00012905)
(0.137852 -5.09751e-05 0.000100151)
(0.137821 -0.000111118 3.66672e-05)
(0.137852 -3.02651e-07 0.000130628)
(0.13781 -2.3757e-05 0.000153742)
(0.137817 -3.09246e-05 0.000165709)
(0.137813 -0.000105797 5.42867e-05)
(0.137802 -0.000112515 7.3836e-05)
(0.137855 -8.30817e-05 9.38071e-05)
(0.137805 -2.24043e-05 0.00017732)
(0.137847 -8.05157e-05 0.000101015)
(0.137796 -4.69845e-05 7.58218e-05)
(0.137812 -0.000142806 6.15887e-05)
(0.137827 -1.9492e-06 0.000156799)
(0.137785 -7.20781e-05 0.000194343)
(0.13778 -7.44539e-05 0.000165388)
(0.13779 -0.000228176 6.71535e-05)
(0.137786 -0.000230301 0.00012084)
(0.137864 -0.000285607 0.000169085)
(0.137842 -0.000170691 0.000242622)
(0.137881 -0.000317425 0.00018594)
(0.137876 -0.000204272 8.77567e-05)
(0.137905 -0.000344119 0.000128889)
(0.137878 -9.12155e-05 0.000175862)
(0.137899 -0.000258968 0.000262055)
(0.137864 -3.86804e-05 0.000192052)
(0.137873 -0.000293349 0.000139)
(0.137894 -6.8844e-05 0.000162434)
(0.13785 -0.000178729 0.000245175)
(0.137858 -4.69826e-05 0.000318206)
(0.137832 -0.000158208 0.000270307)
(0.137829 -0.000126216 0.000214103)
(0.137931 -0.000374855 0.000215087)
(0.137942 -0.000114049 0.000389752)
(0.13797 -0.000193929 0.000457341)
(0.13794 -6.08079e-05 0.00036493)
(0.13795 -0.000281673 0.000136382)
(0.137893 -0.000158329 0.000187227)
(0.137946 -0.000221721 0.000213336)
(0.137941 -7.02735e-05 0.000378862)
(0.137957 -0.000214036 0.000157248)
(0.137976 -0.000136297 7.46158e-05)
(0.137942 -0.000218383 -6.26434e-07)
(0.137979 -4.59243e-05 0.00016246)
(0.137958 -8.57621e-05 0.000234631)
(0.137957 -8.26195e-05 0.0002166)
(0.137943 -0.000217839 1.44985e-05)
(0.137923 -0.000214594 5.32419e-05)
(0.137978 -0.000163543 0.000104599)
(0.137961 -7.95179e-05 0.00026621)
(0.137971 -0.00014821 0.000107335)
(0.137939 -0.000129274 3.95845e-05)
(0.137919 -0.000245122 3.56117e-05)
(0.137969 -3.48632e-05 0.000191596)
(0.137923 -0.000120821 0.000292592)
(0.137916 -0.000125674 0.000215073)
(0.137929 -0.000336323 4.71426e-05)
(0.137892 -0.000356666 0.000126347)
(0.138006 -0.000392928 0.000219108)
(0.137982 -0.000264665 0.000373007)
(0.138039 -0.000445339 0.000228739)
(0.138013 -0.000336621 6.56176e-05)
(0.138033 -0.00052631 0.000110538)
(0.13801 -0.000177449 0.000234903)
(0.138051 -0.000395734 0.000371099)
(0.138007 -0.000111651 0.000243326)
(0.138002 -0.000460309 0.000107816)
(0.138021 -0.000188632 0.000164772)
(0.137974 -0.000296588 0.000293856)
(0.137986 -0.000136409 0.00044836)
(0.137955 -0.00025888 0.000305882)
(0.137925 -0.000256802 0.000195357)
(0.137738 -0.000583426 0.000239439)
(0.137768 -0.000227873 0.000553597)
(0.137867 -0.000318918 0.000658471)
(0.137822 -0.000146968 0.000446875)
(0.137828 -0.000463915 0.000136558)
(0.1377 -0.000302183 0.000244073)
(0.137817 -0.000356631 0.000350259)
(0.137856 -0.000167392 0.000576097)
(0.137911 -0.000338834 0.000187937)
(0.137927 -0.000281526 2.78747e-05)
(0.137887 -0.00038431 -1.26194e-05)
(0.137931 -0.000131538 0.000243993)
(0.137966 -0.000195093 0.000379667)
(0.137919 -0.000170827 0.000265499)
(0.137901 -0.000398576 -3.5123e-05)
(0.137824 -0.000373878 5.93343e-05)
(0.137901 -0.000295086 0.000176009)
(0.137968 -0.00017909 0.000424318)
(0.137894 -0.000256387 0.000101922)
(0.137958 -0.000272341 1.1605e-05)
(0.137797 -0.000398922 5.21106e-05)
(0.138011 -0.000101075 0.000314604)
(0.137885 -0.000205796 0.00049008)
(0.137957 -0.000208246 0.000293404)
(0.137887 -0.000498178 5.82909e-05)
(0.13782 -0.000538735 0.000171586)
(0.137961 -0.000545111 0.000359631)
(0.137958 -0.000410662 0.000582967)
(0.138035 -0.000626254 0.000281739)
(0.137961 -0.000541064 5.0561e-05)
(0.137939 -0.000783296 0.000141817)
(0.137935 -0.000317631 0.000385677)
(0.137989 -0.000595484 0.000550215)
(0.13795 -0.00022883 0.000284365)
(0.137888 -0.000706157 5.49746e-05)
(0.1379 -0.000376608 0.000175703)
(0.13783 -0.000473944 0.000377587)
(0.137868 -0.000279239 0.000612666)
(0.137815 -0.000407129 0.000291116)
(0.137756 -0.000464911 0.000150711)
(0.136689 -0.000875632 0.000435665)
(0.136788 -0.00041148 0.000894615)
(0.136968 -0.00050318 0.000949257)
(0.136915 -0.000304574 0.000575484)
(0.136864 -0.000729578 0.000236311)
(0.136743 -0.000514833 0.000459377)
(0.136969 -0.000562837 0.000643211)
(0.137107 -0.000344297 0.00084521)
(0.137223 -0.000555573 0.000227373)
(0.137185 -0.000537033 2.5668e-05)
(0.137188 -0.000636134 0.000112549)
(0.137193 -0.000298805 0.000429468)
(0.137289 -0.000383579 0.000611665)
(0.137132 -0.000341152 0.000321921)
(0.137105 -0.000682362 5.65377e-06)
(0.136966 -0.000608401 0.000207079)
(0.137146 -0.000507734 0.000405811)
(0.137273 -0.000352633 0.00068237)
(0.137143 -0.000451575 0.000132082)
(0.137262 -0.00051415 0.000119501)
(0.13699 -0.000630531 0.000237465)
(0.137469 -0.000232512 0.000645608)
(0.137121 -0.000349177 0.000797976)
(0.137422 -0.000364531 0.000452341)
(0.136997 -0.000738453 0.000165325)
(0.137121 -0.000807472 0.000354675)
(0.137148 -0.000768685 0.000659405)
(0.137282 -0.000649535 0.000871233)
(0.137286 -0.000905418 0.000388854)
(0.137104 -0.000861793 0.000124306)
(0.137092 -0.0011364 0.00034895)
(0.137069 -0.00054367 0.000666067)
(0.137141 -0.00089191 0.000766117)
(0.137099 -0.000442538 0.000301852)
(0.136896 -0.00106726 3.89761e-05)
(0.136978 -0.000656291 0.000264435)
(0.136803 -0.000743248 0.000541588)
(0.136913 -0.000508545 0.000794335)
(0.136783 -0.000651479 0.000252582)
(0.136681 -0.000788524 0.00019692)
(0.134298 -0.00123112 0.000751881)
(0.134465 -0.000685109 0.00126043)
(0.134758 -0.000771162 0.00119305)
(0.13449 -0.000547463 0.000676412)
(0.13448 -0.00109351 0.000383346)
(0.134586 -0.000819454 0.000756011)
(0.134893 -0.000850313 0.00091486)
(0.135206 -0.000631986 0.00107339)
(0.135125 -0.000871963 0.000208714)
(0.135071 -0.000927912 0.000115363)
(0.135222 -0.000980318 0.00035766)
(0.135075 -0.000547222 0.000643838)
(0.135284 -0.000654332 0.00085125)
(0.134788 -0.000586836 0.000360519)
(0.134871 -0.00107144 0.000206875)
(0.134796 -0.00092524 0.000480654)
(0.135137 -0.000794816 0.000751312)
(0.135268 -0.000613106 0.000953487)
(0.135008 -0.000734753 0.000236498)
(0.135073 -0.00086989 0.000388924)
(0.135033 -0.000957416 0.000566784)
(0.135564 -0.000436343 0.00107271)
(0.135092 -0.000569565 0.00108076)
(0.135408 -0.000594348 0.000653673)
(0.134543 -0.00107418 0.000319268)
(0.13524 -0.00117694 0.000666363)
(0.134901 -0.0010572 0.000981238)
(0.135444 -0.000990736 0.00113784)
(0.134874 -0.00124843 0.000484475)
(0.134774 -0.00130751 0.000267046)
(0.134877 -0.00158323 0.000657315)
(0.13481 -0.000855175 0.000897461)
(0.13499 -0.00128508 0.000912812)
(0.134619 -0.000740423 0.000242954)
(0.134372 -0.00154188 8.3534e-05)
(0.134639 -0.00103095 0.000387141)
(0.134283 -0.00108357 0.000720465)
(0.134565 -0.000826547 0.000910715)
(0.134073 -0.000963389 0.000199177)
(0.134088 -0.00122665 0.000361526)
(0.130461 -0.00161101 0.000808405)
(0.130635 -0.00097377 0.00133007)
(0.130783 -0.00100339 0.00121093)
(0.130089 -0.00082359 0.000581778)
(0.1307 -0.00152298 0.000332931)
(0.131013 -0.0011994 0.000738152)
(0.131381 -0.00116172 0.000919436)
(0.131506 -0.000932052 0.00120015)
(0.130979 -0.00120188 0.000124129)
(0.131421 -0.00139727 0.000191681)
(0.131596 -0.001354 0.00039754)
(0.131264 -0.000834554 0.000719684)
(0.131418 -0.00089868 0.000984138)
(0.13035 -0.000831758 0.000372415)
(0.131071 -0.00151261 0.000396909)
(0.131053 -0.0012855 0.000528385)
(0.131554 -0.00110148 0.000990574)
(0.131367 -0.000866471 0.00112242)
(0.130922 -0.00103346 0.000381142)
(0.131285 -0.00130914 0.000531305)
(0.131665 -0.00135588 0.000677672)
(0.131843 -0.000667388 0.00127653)
(0.131349 -0.000794656 0.00122796)
(0.131109 -0.000807463 0.000753641)
(0.130543 -0.00146664 0.000277439)
(0.131808 -0.00161183 0.000767339)
(0.131045 -0.00136466 0.00102758)
(0.131823 -0.00132065 0.00127551)
(0.130253 -0.00155549 0.000406134)
(0.131011 -0.00182098 0.000226818)