/*--------------------------------*- C++ -*----------------------------------*\
  =========                 |
  \\      /  F ield         | OpenFOAM: The Open Source CFD Toolbox
   \\    /   O peration     | Website:  https://openfoam.org
    \\  /    A nd           | Version:  10
     \\/     M anipulation  |
\*---------------------------------------------------------------------------*/
FoamFile
{
    format      ascii;
    class       surfaceScalarField;
    location    "19";
    object      phi;
}
// * * * * * * * * * * * * * * * * * * * * * * * * * * * * * * * * * * * * * //

dimensions      [0 3 -1 0 0 0 0];

internalField   nonuniform List<scalar> 
74080
(
1.36358e-05
-4.40192e-06
2.17309e-06
1.45251e-05
1.58814e-06
2.8011e-06
1.404e-05
7.53958e-06
2.16862e-06
1.25736e-05
2.16748e-07
5.0264e-06
1.31439e-05
-7.92583e-06
2.09652e-06
1.25596e-05
7.5432e-07
-7.34432e-06
9.85549e-06
9.65001e-06
-9.61796e-06
9.00668e-06
2.65298e-06
-3.13606e-06
1.14511e-05
-8.66526e-06
3.98866e-06
1.40581e-05
-7.66525e-06
5.89801e-06
1.38562e-05
2.01549e-06
5.16537e-07
1.31802e-05
3.11036e-06
-1.63396e-06
1.36083e-05
4.91472e-06
-3.15294e-06
1.61656e-05
4.15911e-06
-6.70025e-06
1.90818e-05
-2.79124e-06
-5.1026e-06
1.77045e-05
1.63057e-06
-2.40641e-06
1.56028e-05
1.08153e-05
-6.22132e-06
1.81091e-05
1.05798e-05
-1.25595e-05
1.9974e-05
7.88136e-06
-1.25363e-05
1.71046e-05
4.4274e-06
-2.18698e-06
1.41144e-05
-3.93375e-06
1.01852e-05
1.28943e-05
-5.66663e-06
8.72169e-06
1.22925e-05
-2.49056e-06
1.47606e-06
1.06226e-05
2.92661e-06
-6.12375e-06
9.73866e-06
5.00649e-06
-1.92543e-06
1.22604e-05
-5.24441e-06
8.01958e-06
1.35085e-05
-9.68602e-06
4.75852e-06
1.05428e-05
8.11294e-06
-3.83716e-06
1.04389e-05
9.29627e-06
-1.96269e-06
1.23e-05
-2.33854e-06
3.77262e-06
1.27904e-05
3.11152e-06
1.78705e-06
1.60678e-05
5.77295e-06
-2.96473e-06
1.77678e-05
-1.05043e-06
-1.46685e-06
1.56058e-05
-6.33031e-06
1.22115e-06
1.50636e-05
-4.87083e-06
-5.20699e-07
1.71873e-05
-7.91633e-06
-2.22832e-06
1.85829e-05
-1.04478e-05
-6.30118e-07
1.81483e-05
-7.35489e-06
1.77089e-06
1.66531e-05
-3.18889e-06
-2.37421e-07
-3.30388e-06
-1.5317e-06
4.44341e-05
-1.09885e-05
6.70768e-06
4.66897e-05
5.9515e-06
7.37532e-06
4.88468e-05
1.80094e-05
3.29374e-06
4.6586e-05
-4.21623e-06
9.90958e-06
4.38664e-05
-1.93659e-05
2.51855e-06
3.94645e-05
8.14348e-06
-1.76027e-05
3.46903e-05
2.68052e-05
-1.93251e-05
3.44256e-05
4.66658e-06
-5.32194e-06
3.85763e-05
-2.22871e-05
7.31507e-06
4.26031e-05
-1.54093e-05
8.79737e-06
4.32594e-05
1.07681e-05
-3.75294e-06
4.18765e-05
1.27992e-05
-7.33821e-06
4.44756e-05
1.65742e-05
-1.05461e-05
5.47064e-05
1.28143e-05
-1.94328e-05
6.2335e-05
-4.31289e-06
-1.65712e-05
5.69272e-05
7.83884e-06
-7.87172e-06
5.12567e-05
2.98111e-05
-1.49409e-05
6.0167e-05
3.00007e-05
-3.38143e-05
6.88543e-05
1.87136e-05
-3.16689e-05
6.2341e-05
8.99997e-06
-3.23409e-06
5.0127e-05
-9.89176e-06
2.3421e-05
4.23359e-05
-1.24938e-05
1.79951e-05
3.87203e-05
-6.40256e-06
2.74676e-06
3.64852e-05
3.83542e-06
-1.07562e-05
3.79041e-05
1.24747e-05
-8.47624e-07
4.13849e-05
-8.82105e-06
1.5444e-05
3.89481e-05
-1.80364e-05
7.01924e-06
3.42345e-05
2.72329e-05
-7.88474e-06
3.76479e-05
2.57711e-05
-6.37338e-06
4.06493e-05
-4.57723e-06
4.07358e-06
4.25799e-05
1.13995e-05
1.6663e-06
5.4605e-05
1.25508e-05
-7.28281e-06
6.02012e-05
-7.43024e-06
-4.08429e-06
5.33919e-05
-1.7989e-05
2.9131e-06
5.36581e-05
-1.73531e-05
3.20913e-07
6.21412e-05
-2.92575e-05
-4.86211e-06
6.38912e-05
-3.27377e-05
-2.80406e-06
5.86717e-05
-1.98708e-05
1.74263e-06
5.41435e-05
-9.71329e-06
-3.32923e-06
-9.3042e-06
-5.66073e-06
8.00498e-05
-1.64105e-05
5.29038e-06
8.4025e-05
1.03847e-05
1.06985e-05
9.43751e-05
2.76254e-05
8.73871e-07
9.31696e-05
-9.96773e-06
1.06789e-05
8.43876e-05
-3.23846e-05
7.50555e-06
7.49311e-05
1.99147e-05
-2.18107e-05
6.82578e-05
4.96175e-05
-2.70469e-05
6.71284e-05
7.66786e-06
-7.96234e-06
6.93869e-05
-3.55111e-05
8.56755e-06
7.32915e-05
-2.15324e-05
1.13094e-05
7.69815e-05
2.46962e-05
-9.09152e-06
7.52466e-05
3.0153e-05
-1.51989e-05
7.73063e-05
3.44828e-05
-1.64263e-05
9.42641e-05
2.7017e-05
-3.09266e-05
0.000110641
1.32527e-06
-3.34817e-05
0.000105759
1.87879e-05
-1.70806e-05
9.45468e-05
4.75062e-05
-1.39677e-05
0.000105794
5.20155e-05
-4.78968e-05
0.000126491
2.98288e-05
-5.73696e-05
0.000123757
1.09229e-05
-1.53788e-05
0.00010028
-1.47701e-05
3.14304e-05
8.12163e-05
-1.64108e-05
2.98083e-05
7.18113e-05
-8.47311e-06
8.1964e-06
6.78e-05
-2.88473e-06
-1.12347e-05
7.30746e-05
1.19231e-05
-3.34701e-06
7.69325e-05
-7.15409e-06
1.78654e-05
6.8517e-05
-1.89167e-05
9.30067e-06
6.23337e-05
5.17533e-05
-9.00768e-06
7.04149e-05
4.78801e-05
-1.30942e-05
7.45174e-05
-3.14175e-06
-2.76485e-06
7.72698e-05
2.42735e-05
-1.03165e-06
9.9801e-05
1.60172e-05
-1.062e-05
0.000114689
-1.81872e-05
-9.84963e-06
0.000104251
-2.64934e-05
6.4904e-07
0.000100501
-3.14014e-05
4.43682e-06
0.000115421
-5.94744e-05
-3.42323e-06
0.000121124
-6.41881e-05
-4.66149e-06
0.000109567
-3.57092e-05
1.54799e-06
9.88626e-05
-1.72574e-05
-5.71114e-06
-1.49332e-05
-1.40971e-05
0.000118633
-1.60302e-05
-3.34326e-06
0.000122854
1.15769e-05
1.63098e-05
0.000147379
3.51732e-05
-5.2075e-06
0.000151387
-1.47073e-05
5.53964e-06
0.000136345
-4.98676e-05
1.68775e-05
0.000123119
2.90158e-05
-1.86054e-05
0.000115647
7.75209e-05
-3.51632e-05
0.000111343
1.20513e-05
-1.05586e-05
0.000106434
-4.93994e-05
1.18614e-05
0.000106402
-2.94245e-05
1.90167e-05
0.000114185
4.00693e-05
-1.09006e-05
0.000114151
5.56558e-05
-2.55233e-05
0.000111711
5.99004e-05
-2.21122e-05
0.000126425
4.88791e-05
-3.54855e-05
0.000151925
1.69735e-05
-4.80914e-05
0.000160135
3.86552e-05
-3.59382e-05
0.000148707
5.50997e-05
-6.75412e-06
0.000153384
6.71374e-05
-4.30443e-05
0.000181247
4.58455e-05
-8.62877e-05
0.000191597
1.58608e-05
-4.79761e-05
0.000163788
-1.91485e-05
2.84493e-05
0.000132755
-1.77129e-05
4.46493e-05
0.000115711
7.91863e-07
1.74271e-05
0.000104543
-1.09972e-05
-6.85796e-06
0.000110135
-2.58552e-06
-6.90001e-06
0.000115381
-4.49088e-06
1.6459e-05
0.000102395
-1.73097e-05
9.3946e-06
9.47142e-05
7.42801e-05
-7.65462e-06
0.000106519
7.25349e-05
-1.46061e-05
0.000112625
2.98801e-06
-1.39501e-05
0.000116387
4.27283e-05
-9.73622e-06
0.000147411
1.68749e-05
-1.45423e-05
0.000175479
-3.44523e-05
-1.93808e-05
0.000169174
-2.97004e-05
-9.51656e-06
0.000155981
-3.14776e-05
1.87464e-06
0.000166331
-8.22448e-05
1.93337e-06
0.000179949
-9.79132e-05
-3.14426e-06
0.000168872
-5.69731e-05
3.11518e-06
0.000149875
-2.47048e-05
-3.11237e-06
-1.75899e-05
-2.28645e-05
0.000161924
-5.84609e-06
-1.21936e-05
0.00015744
1.12376e-05
3.02268e-05
0.000198233
3.49717e-05
-3.13923e-06
0.000214257
-1.61109e-05
-9.08767e-06
0.000193738
-7.14562e-05
2.30888e-05
0.000183126
1.93212e-05
-4.87032e-06
0.000185306
9.83735e-05
-4.28599e-05
0.000180198
1.76993e-05
-1.82953e-05
0.000159502
-6.37242e-05
1.81887e-05
0.000144571
-4.06735e-05
3.37098e-05
0.000152633
5.21047e-05
-3.9931e-06
0.000157604
8.56034e-05
-3.38168e-05
0.000151743
9.33225e-05
-3.07798e-05
0.000153973
8.02037e-05
-3.52396e-05
0.000175233
4.35488e-05
-4.70848e-05
0.000204096
6.30835e-05
-4.61671e-05
0.00021047
4.51508e-05
1.84328e-06
0.000208506
5.52143e-05
-8.82389e-06
0.000229579
6.3682e-05
-9.76515e-05
0.00025181
3.23316e-05
-9.64938e-05
0.000231155
-2.15457e-05
2.08306e-06
0.000194051
-2.33006e-05
5.4909e-05
0.000174802
2.47631e-05
2.66626e-05
0.000155706
-3.34051e-06
-3.03249e-06
0.000152146
-1.6649e-05
-7.42976e-06
0.000152617
9.14151e-06
1.51536e-05
0.000136728
-1.47973e-05
4.29766e-06
0.00013134
8.25618e-05
-8.59551e-06
0.000145445
9.20157e-05
-3.96883e-06
0.000152835
7.66869e-06
-1.51311e-05
0.000159554
6.14269e-05
-2.19392e-05
0.000193945
2.25184e-05
-2.1176e-05
0.000231186
-5.63559e-05
-2.95305e-05
0.000241348
-4.18404e-05
-2.83962e-05
0.000228283
-2.33001e-05
-1.20042e-05
0.000217964
-7.60925e-05
2.90327e-06
0.000227428
-0.000112107
1.74524e-06
0.000225643
-8.00168e-05
3.91273e-06
0.000204604
-3.48836e-05
3.47288e-06
-1.74559e-05
-2.50424e-05
0.000220043
9.15735e-06
-2.21686e-05
0.000191995
2.68563e-05
4.28028e-05
0.000234808
3.86713e-05
1.41361e-05
0.00026987
-1.00385e-05
-2.76304e-05
0.00024207
-7.23031e-05
5.04854e-06
0.000236013
-8.62095e-06
7.0633e-06
0.000268947
8.29645e-05
-4.59171e-05
0.00028119
1.08222e-05
-3.64865e-05
0.000243581
-7.38904e-05
1.89466e-05
0.000195997
-4.5116e-05
5.05267e-05
0.000189605
6.31536e-05
1.22432e-05
0.000197705
0.000113025
-3.08403e-05
0.000193671
0.000127647
-3.40324e-05
0.000185763
0.000116207
-3.56674e-05
0.000188291
8.27264e-05
-3.76081e-05
0.00022355
8.79296e-05
-2.93318e-05
0.000259581
1.69225e-05
2.2638e-05
0.000266872
4.41028e-06
3.94247e-05
0.000278506
6.25933e-05
-7.04446e-05
0.00030894
4.56197e-05
-0.000137743
0.000301968
-3.31236e-05
-4.45963e-05
0.000259091
-4.12434e-05
5.026e-05
0.000241422
5.24497e-05
3.24243e-05
0.000224878
1.9015e-05
-7.295e-06
0.000211065
-2.1521e-05
-1.01384e-05
0.000197942
4.38207e-05
2.19968e-05
0.000172403
7.71552e-06
2.07739e-06
0.000171977
7.25403e-05
-1.44638e-05
0.000190568
0.000102111
8.53691e-06
0.00019555
7.5053e-06
3.58111e-06
0.000206287
6.70616e-05
-2.45119e-05
0.00023961
3.93068e-05
-2.31297e-05
0.00027069
-6.38733e-05
-3.20033e-05
0.000301354
-7.52191e-05
-4.65772e-05
0.000315281
-5.18525e-05
-3.12576e-05
0.000288814
-5.60613e-05
-5.59499e-06
0.000273926
-8.91019e-05
8.40054e-06
0.00027495
-8.57379e-05
2.66894e-06
0.000257691
-4.46119e-05
6.17714e-06
-1.77253e-05
-2.39336e-05
0.000293725
-3.84223e-06
-3.43257e-05
0.000245231
6.14856e-05
3.82402e-05
0.00026614
7.52318e-05
3.43471e-05
0.000316732
2.12217e-06
-3.13707e-05
0.000279539
-3.94426e-05
-2.74592e-05
0.000249856
-1.63635e-06
-4.92498e-07
0.000309901
3.67068e-05
-4.26808e-05
0.00037413
-4.46436e-05
-5.68036e-05
0.000351941
-0.000105267
7.7632e-06
0.000273029
-4.05903e-05
5.93893e-05
0.000233338
8.73757e-05
2.97065e-05
0.000230768
0.000145307
-1.92431e-05
0.00022794
0.000157504
-2.2482e-05
0.000221023
0.00014048
-2.86395e-05
0.000208045
0.000125397
-2.91976e-05
0.000226846
0.000123383
-4.57737e-06
0.000278724
-2.05217e-05
5.55447e-05
0.000310788
-7.73089e-05
8.34073e-05
0.000323141
3.31875e-05
-2.23155e-05
0.000361214
4.40583e-05
-0.000148969
0.000375318
-6.43097e-05
-9.28977e-05
0.000327686
-8.84145e-05
3.1595e-05
0.000305354
7.2806e-05
3.35373e-05
0.000299245
4.40841e-05
-1.77926e-05
0.000286372
-3.53429e-05
-2.49762e-05
0.000264267
7.36897e-05
3.45515e-05
0.000218851
5.47659e-05
1.82224e-05
0.00021396
4.77869e-05
-1.67883e-05
0.000241263
9.35027e-05
1.76905e-05
0.000242453
1.11093e-05
2.78759e-05
0.000254243
5.88799e-05
-1.97725e-05
0.000290776
5.68534e-05
-1.80591e-05
0.000303775
-3.12861e-05
-1.44063e-05
0.000333002
-8.56471e-05
-5.32203e-05
0.000389995
-0.000126484
-4.82509e-05
0.00037928
-8.10698e-05
-1.45124e-05
0.000336433
-4.03954e-05
1.23642e-05
0.00032888
-6.3265e-05
6.33327e-06
0.000312949
-3.73919e-05
2.01592e-06
-1.6017e-05
-3.00196e-05
0.000362958
-4.98831e-05
-4.37902e-05
0.000304731
8.23072e-05
2.35105e-05
0.000304958
0.000135465
4.51886e-05
0.000362558
1.18591e-05
-1.34876e-05
0.000323737
8.30624e-06
-4.42423e-05
0.000245571
7.14913e-05
-4.99071e-06
0.000285879
1.21977e-05
-1.83972e-05
0.000400395
-0.00013578
-6.61812e-05
0.00043182
-0.000182187
-1.71665e-05
0.000358654
-5.13615e-05
5.45753e-05
0.000291897
0.00011287
4.47026e-05
0.000266559
0.000181485
-2.784e-06
0.000259118
0.000181513
1.15505e-06
0.000260972
0.00013488
-3.50766e-06
0.000250204
0.000135119
-1.75174e-05
0.00025523
0.000153792
1.01123e-05
0.000295014
-4.99972e-05
9.02325e-05
0.000336556
-0.000166963
0.000119375
0.000361114
-1.72443e-05
1.36996e-05
0.000406916
3.38744e-05
-0.00013545
0.000439925
-9.57098e-05
-0.000126066
0.000394397
-0.000147374
-2.80008e-06
0.000366835
7.7553e-05
3.30044e-05
0.000371563
7.49056e-05
-2.04834e-05
0.000368501
-5.8582e-05
-4.91784e-05
0.000353891
7.41272e-05
3.51524e-05
0.000290458
0.000116934
4.42684e-05
0.00026442
2.40096e-05
-1.09702e-05
0.000295703
5.6145e-05
2.52324e-05
0.000291481
1.75527e-05
5.90154e-05
0.000294942
5.21605e-05
-1.17315e-05
0.000342363
5.92007e-05
-2.47251e-05
0.000356677
1.68269e-05
1.5544e-05
0.000361126
-3.18948e-05
-3.63346e-05
0.000435465
-0.000177543
-7.09774e-05
0.000468269
-0.000164579
-3.07297e-05
0.000414608
-1.22896e-05
1.34076e-05
0.000393561
-1.30818e-05
8.77889e-06
0.000379593
-4.38742e-06
-5.07248e-06
8.11536e-06
-3.877e-05
0.000430336
-7.26172e-05
-4.44814e-05
0.000362873
6.26525e-05
1.11539e-05
0.00035052
0.000198046
3.68093e-05
0.000409546
1.67307e-05
1.04807e-05
0.000389254
3.28566e-05
-3.60418e-05
0.000285385
0.000176125
-2.26544e-06
0.000272259
5.92583e-05
2.91157e-05
0.000403093
-0.000188354
-4.09046e-05
0.000484081
-0.00027126
-4.31089e-05
0.000415791
-5.27691e-05
3.30087e-05
0.000328021
0.000152925
5.97117e-05
0.000287232
0.000215823
1.92748e-05
0.000292515
0.000198808
1.31173e-05
0.000339661
8.39722e-05
2.29969e-05
0.000358411
5.85794e-05
1.51548e-05
0.000365757
0.000125756
1.436e-05
0.000376728
-6.90722e-05
9.73892e-05
0.000380599
-0.00022849
0.000147127
0.00040054
-8.03767e-05
4.5316e-05
0.000453332
1.12292e-05
-0.000102601
0.000496235
-0.00010656
-0.000129619
0.000450335
-0.000188799
-3.74423e-05
0.000420411
6.49319e-05
2.68055e-05
0.000437794
0.000109218
4.93537e-06
0.000450111
-6.61571e-05
-5.60254e-05
0.000461285
4.22694e-05
2.35783e-05
0.000398154
0.000163935
7.42215e-05
0.000343571
2.96526e-05
-5.48161e-07
0.000367517
-3.31692e-06
2.81521e-05
0.000343445
2.10585e-05
9.90997e-05
0.000314172
6.67777e-05
1.52021e-05
0.000377166
4.07355e-05
-5.2406e-05
0.000427315
1.70837e-05
2.24166e-05
0.000414591
3.62668e-05
-3.55463e-06
0.000465998
-0.000165616
-7.88214e-05
0.000537348
-0.000269774
-5.70832e-05
0.00049878
-4.80378e-05
1.02878e-05
0.000460381
4.46723e-05
1.37179e-05
0.000451201
6.10731e-05
-1.71976e-05
7.29952e-05
-3.90876e-05
0.000524104
-3.08391e-05
-4.81946e-05
0.000433044
5.36826e-05
-3.80502e-06
0.000409041
0.000243193
3.23519e-05
0.00046305
4.10132e-05
5.08718e-05
0.000460613
2.29777e-05
-1.06607e-05
0.000388819
0.000211993
-1.67225e-05
0.000343134
0.000132605
4.57445e-05
0.000433808
-0.000153616
1.59962e-05
0.00053867
-0.000307959
-3.89789e-05
0.00048921
-4.74676e-05
-4.69107e-06
0.000395721
0.000173609
7.38618e-05
0.000339918
0.000197479
7.5034e-05
0.000320325
0.000212758
3.06958e-05
0.00039127
8.26185e-05
-3.3785e-06
0.000480026
-5.87547e-05
1.44857e-07
0.000535244
8.46657e-06
-1.1433e-05
0.000542826
-9.7185e-05
4.56878e-05
0.000487926
-0.00023587
0.000136015
0.000456158
-0.000132089
7.91969e-05
0.000497762
-3.34759e-05
-5.69212e-05
0.000546898
-0.000101954
-0.000115981
0.000497052
-0.000182635
-6.28365e-05
0.000459805
5.11719e-05
1.38391e-05
0.000487597
0.000135965
3.02546e-05
0.000515237
-5.41085e-05
-4.42865e-05
0.000564407
-1.31652e-05
7.39622e-06
0.000522931
0.000159766
0.000101018
0.000442413
6.9077e-05
2.22946e-05
0.000456254
-4.58516e-05
1.74397e-05
0.00041409
1.82447e-05
0.000126634
0.00033287
0.000114707
6.73831e-05
0.000393666
2.5861e-05
-7.22434e-05
0.000493386
-4.27296e-05
-8.60348e-06
0.00050279
4.52928e-05
1.69608e-05
0.000524237
-0.00011947
-5.15777e-05
0.000592573
-0.000344184
-5.41708e-05
0.000575084
-0.000132859
-7.81039e-06
0.000527039
6.72839e-05
3.32127e-05
0.000528429
0.000119835
-2.23335e-06
0.000121364
-4.15433e-05
0.000635273
1.68204e-05
-5.21177e-05
0.000509583
0.000100977
-1.81387e-05
0.000463481
0.000251131
4.28261e-05
0.000536945
2.07972e-05
0.000123506
0.000530698
-8.75927e-06
5.60168e-05
0.000465824
0.000200206
-1.17132e-05
0.000425852
0.000171738
2.34275e-05
0.00049137
-0.000103155
8.15894e-06
0.000598107
-0.000314397
-2.8045e-05
0.000569861
-4.83032e-05
-2.47391e-05
0.000489377
0.000202137
4.97394e-05
0.000432577
0.000164109
0.000121301
0.00038258
0.000162909
8.70542e-05
0.000430991
8.42874e-05
-1.71201e-05
0.000527843
-0.000104828
-4.53237e-05
0.000602107
-0.000104021
-5.63173e-05
0.000651833
-0.000156125
-2.144e-05
0.000604836
-0.000214555
7.81018e-05
0.000522008
-0.000136528
8.13081e-05
0.000535344
-8.24828e-05
-1.31746e-05
0.000595021
-0.00010804
-9.76411e-05
0.000544969
-0.000123788
-7.68864e-05
0.000487545
6.71332e-05
4.4704e-06
0.000525913
0.000140859
2.66093e-05
0.00056785
-3.15321e-05
-4.87511e-05
0.000628748
-5.41278e-05
-1.83286e-05
0.000609909
0.000127328
9.96336e-05
0.000517255
0.000122611
3.6468e-05
0.000518389
-3.00004e-05
-2.29824e-05
0.000503568
1.17842e-07
0.000102174
0.000417608
0.000137091
0.000127863
0.000443117
4.93022e-05
-3.51925e-05
0.000543242
-8.20507e-05
-1.73418e-05
0.000584218
1.11287e-05
3.78507e-05
0.00062086
-9.35345e-05
-6.57938e-06
0.00066991
-0.000361214
-8.98268e-06
0.000648017
-0.000188796
-2.21197e-05
0.000595852
5.15246e-05
3.67463e-05
0.000592014
0.000138468
6.72665e-05
0.000134678
-2.31022e-05
0.000750645
1.38355e-05
-4.79547e-05
0.000610667
0.00017957
-3.20393e-05
0.00053916
0.000239897
5.65064e-05
0.000633276
-6.69293e-05
0.000159593
0.000617743
-8.96692e-05
0.000155291
0.000531179
0.000155273
4.87307e-05
0.000515417
0.000166686
9.84063e-06
0.000575493
-8.80874e-05
-1.94256e-05
0.000662526
-0.000303654
-4.02339e-05
0.000643134
-5.68101e-05
-1.478e-05
0.000576661
0.000225605
2.55342e-05
0.000545631
0.00019768
6.06475e-05
0.000494729
0.000161316
7.58734e-05
0.000515032
6.69322e-05
-1.41001e-05
0.000600816
-0.000110933
-7.67589e-05
0.000652784
-0.000138161
-8.64598e-05
0.000702892
-0.00019319
-6.02318e-05
0.000690258
-0.000195489
3.86292e-05
0.000601945
-8.9212e-05
5.81635e-05
0.000588045
-0.000100075
8.05716e-06
0.000650395
-0.000146254
-5.38097e-05
0.000609711
-4.76581e-05
-6.56849e-05
0.000526025
0.000134216
-4.76559e-06
0.000568412
0.000126314
-2.41283e-06
0.000624745
-2.67257e-05
-6.51982e-05
0.000667832
-6.55232e-05
-2.96374e-05
0.000667598
0.000100316
6.97427e-05
0.000590379
0.000166507
2.02966e-05
0.000579042
4.28148e-05
-7.44538e-05
0.000601375
5.32045e-07
8.95815e-06
0.000559076
9.6058e-05
0.000115443
0.000559931
7.15907e-05
1.49256e-05
0.0006176
-4.885e-05
-1.46545e-05
0.000642749
1.20798e-05
4.92126e-05
0.000703098
-9.25327e-05
1.06915e-05
0.000766067
-0.000352252
5.17011e-06
0.000728497
-0.000180882
-1.02249e-05
0.000653652
6.17891e-05
1.69405e-05
0.000632317
0.000141807
9.46094e-05
0.000100771
3.03598e-05
0.000825962
-1.84705e-05
-3.63752e-05
0.000763735
0.000190328
-3.49525e-05
0.000714385
0.000216077
8.13112e-06
0.000766938
-9.04508e-05
7.44341e-05
0.000737679
-0.000143399
0.000164507
0.000650907
6.52067e-05
0.000107125
0.000640257
0.000116645
1.91877e-05
0.000683211
-9.81996e-05
-1.2504e-05
0.000737334
-0.000281723
-3.36262e-05
0.000723408
-3.86919e-05
5.22172e-07
0.000674538
0.000213181
2.49423e-05
0.000674595
0.000177546
-1.01671e-05
0.000648242
0.000135544
1.58494e-05
0.000628886
2.57837e-05
8.90694e-06
0.000686157
-0.00012297
-5.94387e-05
0.000732343
-0.000135663
-8.42387e-05
0.000759894
-0.000191254
-6.99851e-05
0.000764911
-0.000181874
2.12909e-05
0.000715548
-4.42466e-05
4.6343e-05
0.000688242
-9.65112e-05
1.05973e-05
0.000716045
-0.000200619
-9.59056e-06
0.000689143
-1.78887e-05
-2.13397e-05
0.00061297
0.000216198
-1.85637e-05
0.000640862
0.000126479
-1.93695e-05
0.000700805
-5.32961e-05
-4.90415e-05
0.000727073
-6.023e-05
-2.80538e-05
0.000732969
0.000111448
3.59226e-05
0.000677119
0.000202456
3.18639e-09
0.000657037
0.000119442
-8.00719e-05
0.000711052
2.63e-05
-4.71515e-05
0.00072628
2.06409e-05
6.06926e-05
0.000719346
3.7213e-05
1.69947e-05
0.000733109
8.27114e-06
-1.95418e-05
0.0007309
6.0417e-05
3.29425e-05
0.000778579
-8.73762e-05
-1.58665e-05
0.000846258
-0.000328778
-4.42801e-05
0.00081275
-0.0001493
-5.22692e-06
0.000731616
8.01728e-05
1.99951e-05
0.000692368
0.000158319
5.03672e-05
7.82461e-05
2.57788e-05
0.000836896
7.85531e-06
-2.87327e-05
0.000833276
0.000181359
-1.83554e-05
0.000870158
0.000152081
-6.09357e-05
0.000917408
-8.4929e-05
-4.52915e-06
0.000909024
-0.000147118
0.00013384
0.000864869
-3.42196e-05
0.000101526
0.000812282
7.26327e-05
1.2782e-05
0.00077425
-4.2828e-05
1.99285e-07
0.000776984
-0.000218057
-5.36572e-06
0.000757676
-1.15963e-05
1.67294e-05
0.000723535
0.000179167
3.21743e-05
0.000750569
0.000102283
-1.92608e-05
0.00077049
6.2092e-05
-2.05795e-05
0.000750832
-3.06276e-05
8.9482e-06
0.00076853
-0.000121239
-3.49034e-05
0.000803947
-0.000104528
-7.0979e-05
0.000816004
-0.000164653
-5.45233e-05
0.000828223
-0.000166029
1.85899e-05
0.000843069
-3.88189e-05
3.8597e-05
0.000837221
-0.000104003
4.40294e-06
0.000812276
-0.000237739
6.39216e-06
0.000770342
-2.71795e-05
2.834e-05
0.000725743
0.00026115
-1.46855e-05
0.000745369
0.000141644
-2.90908e-05
0.000789485
-8.98487e-05
-2.40129e-05
0.000806903
-6.56739e-05
-2.153e-05
0.000818044
0.000136718
2.32175e-05
0.000784282
0.000228564
2.42306e-06
0.000751309
0.000164211
-5.64347e-05
0.000797267
6.22478e-05
-4.89598e-05
0.000853539
-3.46162e-05
2.89832e-05
0.000869192
-4.45167e-05
9.24842e-06
0.000864739
1.63663e-05
-7.89299e-06
0.000842665
0.000104386
3.67105e-05
0.000857933
-6.93675e-05
-2.1385e-05
0.000913228
-0.000300907
-6.25971e-05
0.00090085
-0.000120927
-1.94934e-05
0.000826981
8.75676e-05
3.0152e-05
0.000793954
0.000145991
3.18621e-05
7.60205e-05
-8.7225e-06
0.000898326
5.53179e-05
-1.18726e-05
0.000891822
0.000164052
5.90086e-06
0.000947498
9.43565e-05
-7.98125e-05
0.00102269
-8.10315e-05
-3.65354e-05
0.0010654
-0.000150419
0.000109577
0.00103306
-8.01762e-05
7.46635e-05
0.000936117
8.47477e-05
-7.04783e-06
0.000852856
5.91226e-05
3.58897e-06
0.000823204
-0.000108359
2.19801e-05
0.00080364
2.29729e-05
3.40268e-05
0.000798679
0.000144574
5.84687e-05
0.000846656
3.57168e-05
3.45704e-05
0.0008897
6.24216e-06
5.23881e-06
0.000886202
-6.70882e-05
1.57691e-05
0.000881011
-0.000111274
-1.8316e-05
0.000892068
-4.84449e-05
-6.71313e-05
0.000884772
-0.000100159
-4.20006e-05
0.00088382
-0.000120797
3.23057e-05
0.000937398
-4.81562e-05
3.79495e-05
0.000978765
-0.000125791
-8.73537e-06
0.000937221
-0.000249971
-8.2786e-06
0.000866603
-5.01986e-05
5.71579e-05
0.00083409
0.000268309
1.19349e-05
0.000858868
0.000160634
-5.62557e-05
0.000889124
-0.000107125
-3.61732e-05
0.000890704
-7.47092e-05
-6.11949e-06
0.000901352
0.000135114
3.71307e-05
0.000899946
0.000218921
1.71438e-05
0.00088465
0.000163521
-3.10564e-05
0.000905579
7.99181e-05
-4.13923e-05
0.000946475
-4.32862e-05
1.05832e-05
0.000971357
-0.000105598
2.26769e-06
0.0009795
-2.47118e-05
-5.01618e-06
0.000966725
9.88868e-05
3.93598e-05
0.000948868
-4.50217e-05
-1.18594e-05
0.000972126
-0.000253535
-5.20747e-05
0.000997231
-0.000104743
-4.43773e-05
0.000959766
6.88811e-05
1.46747e-05
0.00093051
0.000104895
5.16225e-05
7.94885e-05
-2.28898e-06
0.00102135
9.10241e-05
1.16379e-06
0.00099715
0.000147533
1.36944e-05
0.00102585
4.81878e-05
-6.57279e-05
0.00110483
-8.86187e-05
-5.96166e-05
0.00116725
-0.0001509
4.97776e-05
0.00112279
-8.13737e-05
5.27975e-05
0.00102629
9.96727e-05
6.9093e-06
0.000967839
0.0001108
-1.21129e-05
0.000938009
-9.99792e-06
-9.83676e-07
0.000922176
8.39991e-05
1.73194e-05
0.000938846
0.000143896
6.1074e-05
0.000989788
4.76815e-06
7.66902e-05
0.00103127
-2.32475e-05
4.85251e-05
0.00103568
-8.09989e-05
3.10522e-05
0.00102233
-0.000108182
-4.13744e-06
0.00101033
-1.42622e-06
-5.91488e-05
0.000987609
-1.8363e-05
-3.693e-05
0.000971543
-5.08934e-05
5.27321e-05
0.00101585
-3.40988e-05
5.656e-05
0.00107565
-0.00012324
-1.20746e-05
0.00105171
-0.000233667
-3.00313e-05
0.000979764
-7.73279e-05
5.37578e-05
0.000950709
0.000233264
5.12225e-05
0.000975415
0.000168986
-6.08294e-05
0.00100052
-9.39494e-05
-7.79126e-05
0.000996513
-7.12114e-05
-6.93819e-06
0.000994721
0.000119779
5.36318e-05
0.00100211
0.000184812
2.15734e-05
0.00101721
0.000119195
-1.63436e-05
0.00104541
5.55838e-05
-1.98361e-05
0.00106704
-3.22485e-05
6.3621e-06
0.0010667
-0.000113719
5.38057e-07
0.00107069
-5.78882e-05
-6.56558e-06
0.00108561
6.12638e-05
2.62032e-05
0.00106965
-3.97053e-05
-5.99696e-06
0.0010502
-0.000194314
-2.53561e-05
0.00107926
-8.77661e-05
-4.81223e-05
0.00109982
2.82263e-05
-3.07227e-05
0.00109131
5.17212e-05
4.09647e-05
6.88388e-05
2.75068e-05
0.0011643
0.000103345
-4.91318e-08
0.00114248
0.000134283
1.42018e-05
0.00114452
1.80124e-05
-3.91434e-05
0.00119158
-9.95601e-05
-6.1946e-05
0.00124937
-0.000142171
6.4049e-06
0.00122603
-6.44306e-05
3.58126e-05
0.00115827
9.26066e-05
2.36505e-05
0.00112173
9.33926e-05
-8.92185e-06
0.0011049
1.37034e-05
-2.63212e-05
0.00110272
9.7774e-05
-1.75182e-05
0.00111643
0.000134053
2.30394e-05
0.00114262
1.09279e-06
6.09776e-05
0.00116678
-2.9343e-05
6.08247e-05
0.00117094
-8.36241e-05
3.78131e-05
0.00116081
-0.000109666
-3.76771e-06
0.00114637
1.71983e-05
-5.1915e-05
0.00112127
3.75092e-05
-4.03749e-05
0.0010998
1.6857e-05
5.06459e-05
0.00112343
-3.1486e-07
6.60509e-05
0.00117332
-9.39967e-05
-6.23455e-06
0.00116539
-0.000184742
-4.21229e-05
0.00111271
-7.7847e-05
2.3591e-05
0.00109355
0.000177921
6.6773e-05
0.00111209
0.000150925
-2.37386e-05
0.00112741
-6.6329e-05
-8.79728e-05
0.0011277
-5.23936e-05
-2.56789e-05
0.00112678
0.000104138
5.21087e-05
0.00113241
0.000148443
2.66805e-05
0.00114971
7.21837e-05
-1.11406e-05
0.00117427
1.69811e-05
-9.15196e-08
0.00119527
-3.05551e-05
1.35911e-05
0.00119192
-0.00010887
-6.14793e-07
0.00118377
-7.44467e-05
-2.20872e-06
0.00119758
2.56372e-05
2.32026e-05
0.00119264
-4.48295e-05
-7.47289e-06
0.00116847
-0.000149485
-7.30335e-06
0.00118422
-6.86476e-05
-2.57503e-05
0.00121532
1.64769e-07
-5.07121e-05
0.00122181
8.63655e-06
1.00755e-05
5.01456e-05
2.78337e-05
0.00130071
9.26221e-05
2.61507e-06
0.0012958
0.000112739
8.7454e-06
0.00129038
8.13974e-06
-2.39155e-05
0.00130286
-9.47203e-05
-4.47286e-05
0.00133927
-0.000131526
-1.17026e-06
0.00134368
-4.86904e-05
2.12695e-05
0.00131705
8.39271e-05
1.6411e-05
0.00129191
7.3868e-05
-2.64094e-06
0.00127099
1.61192e-05
-1.03582e-05
0.001271
7.46017e-05
-1.18473e-05
0.0012809
9.08671e-05
8.76738e-06
0.00129009
-1.34296e-05
3.95363e-05
0.00130188
-2.71096e-05
5.06506e-05
0.00129928
-7.0888e-05
3.83071e-05
0.00128496
-9.29681e-05
9.06022e-07
0.00127584
2.58366e-05
-3.85525e-05
0.00126615
5.70538e-05
-4.11056e-05
0.00125612
5.07156e-05
3.44451e-05
0.00127117
2.82935e-05
6.0307e-05
0.00130292
-5.83743e-05
-2.05888e-06
0.001296
-0.000128127
-4.19578e-05
0.00126451
-5.75758e-05
-5.3298e-06
0.00125923
0.000127808
5.56574e-05
0.00126802
0.000119105
1.02208e-05
0.00127057
-4.15691e-05
-6.80944e-05
0.00127467
-2.95982e-05
-3.62828e-05
0.00128213
9.08219e-05
3.86571e-05
0.00128825
0.000115487
3.17263e-05
0.00129789
3.8208e-05
-2.93108e-06
0.00131009
-6.00747e-06
4.57524e-06
0.0013251
-2.71116e-05
1.85498e-05
0.00132399
-9.48872e-05
-3.84434e-06
0.00131334
-7.91744e-05
-1.998e-06
0.00131645
-3.52427e-06
3.05112e-05
0.00131314
-4.88791e-05
-4.26679e-06
0.00130082
-0.000120823
-2.67615e-06
0.00131192
-5.773e-05
-1.40386e-06
0.0013281
-8.83795e-06
-4.41607e-05
0.00133055
-1.24396e-05
-8.83996e-06
2.90938e-05
2.39103e-05
0.00143777
7.41266e-05
6.05709e-06
0.00144608
8.64619e-05
3.22625e-06
0.00144392
1.32155e-06
-2.24446e-05
0.00143892
-8.00966e-05
-3.17943e-05
0.00145387
-0.000111587
2.94594e-06
0.00146488
-3.30958e-05
1.73417e-05
0.00146306
7.55547e-05
9.92271e-06
0.00145193
6.26057e-05
-4.62504e-06
0.00143084
2.21188e-05
-4.06989e-06
0.00142705
5.83818e-05
-4.63517e-06
0.00143114
5.88599e-05
9.75156e-06
0.00143052
-2.26005e-05
3.11039e-05
0.00143908
-2.30925e-05
3.85413e-05
0.00143686
-5.53572e-05
3.29656e-05
0.00142184
-6.8023e-05
5.25144e-06
0.00141603
3.88368e-05
-2.32295e-05
0.00141974
6.01408e-05
-3.58036e-05
0.00142234
5.0916e-05
2.14252e-05
0.00143339
3.58058e-05
5.56239e-05
0.00144884
-3.21e-05
7.45024e-06
0.00143789
-8.3233e-05
-3.03516e-05
0.00141875
-4.14819e-05
-1.17676e-05
0.0014247
8.60489e-05
3.65046e-05
0.00143065
8.92201e-05
1.90467e-05
0.00142424
-2.372e-05
-4.05417e-05
0.00142785
-1.13033e-05
-3.35594e-05
0.00144156
7.59206e-05
2.20174e-05
0.00144827
8.63512e-05
2.74362e-05
0.0014507
1.56309e-05
1.62532e-06
0.00145354
-1.65847e-05
3.99717e-06
0.0014615
-2.06526e-05
1.99329e-05
0.0014599
-7.41196e-05
-4.35637e-06
0.00145022
-7.22571e-05
-6.66405e-06
0.00144877
-2.38455e-05
2.88701e-05
0.00144552
-4.95082e-05
-1.005e-06
0.00143796
-9.49919e-05
-3.75447e-06
0.00144743
-4.85235e-05
2.36743e-06
0.00145412
-9.87574e-06
-3.3029e-05
0.00144868
-1.65417e-05
-9.72184e-06
1.67565e-05
1.91192e-05
0.0015878
5.80114e-05
4.14348e-06
0.00160265
6.08673e-05
-1.48188e-06
0.00160272
-6.52332e-06
-2.35371e-05
0.00158983
-6.45632e-05
-2.36923e-05
0.00159132
-8.5522e-05
7.06907e-06
0.0015977
-1.36084e-05
1.85862e-05
0.00160281
7.1957e-05
6.5312e-06
0.00160206
5.23237e-05
-8.08527e-06
0.00158733
2.0396e-05
-7.27736e-06
0.00158437
3.95266e-05
-8.08045e-06
0.00158739
3.23271e-05
6.66771e-06
0.00158303
-2.26437e-05
2.56742e-05
0.00159044
-1.27223e-05
3.03639e-05
0.0015897
-3.93858e-05
2.69621e-05
0.00157784
-4.76495e-05
5.61848e-06
0.00157661
4.20288e-05
-1.42767e-05
0.001586
5.08148e-05
-2.93942e-05
0.00159084
3.49867e-05
1.04678e-05
0.00159639
2.81588e-05
4.79351e-05
0.0016025
-2.06779e-05
1.70518e-05
0.00159111
-5.57147e-05
-1.55546e-05
0.00157673
-3.39135e-05
-9.44492e-06
0.00158583
5.33978e-05
1.90846e-05
0.00159285
6.22792e-05
1.53332e-05
0.00158397
-1.51908e-05
-2.25974e-05
0.0015858
9.2296e-07
-2.59995e-05
0.00160111
6.09235e-05
1.02748e-05
0.00160717
6.41281e-05
1.90205e-05
0.00160658
2.54876e-06
1.18122e-06
0.00160475
-2.03784e-05
1.36953e-06
0.00160736
-1.39872e-05
1.93351e-05
0.00160566
-5.75542e-05
-7.24909e-07
0.00159808
-6.2173e-05
-7.84772e-06
0.00159622
-3.3292e-05
2.11399e-05
0.00159349
-4.81376e-05
-2.36345e-06
0.00158561
-7.03033e-05
-5.94776e-06
0.00159268
-3.75075e-05
-1.30141e-06
0.00159638
-1.16147e-05
-2.48192e-05
0.0015881
-1.44477e-05
-8.10156e-06
1.18527e-05
1.09896e-05
0.00175277
4.53029e-05
4.33778e-07
0.00176846
4.03959e-05
-5.06885e-06
0.00176757
-1.04416e-05
-2.23648e-05
0.00175025
-4.79426e-05
-1.62645e-05
0.0017455
-5.97525e-05
6.03532e-06
0.00175027
3.19769e-06
1.61809e-05
0.00175873
6.61429e-05
6.28693e-06
0.00176473
3.8253e-05
-9.57304e-06
0.00175694
1.39629e-05
-1.26476e-05
0.00175421
2.18984e-05
-1.54392e-05
0.00175564
1.08559e-05
5.13432e-07
0.00175005
-1.69226e-05