/*--------------------------------*- C++ -*----------------------------------*\
  =========                 |
  \\      /  F ield         | OpenFOAM: The Open Source CFD Toolbox
   \\    /   O peration     | Website:  https://openfoam.org
    \\  /    A nd           | Version:  10
     \\/     M anipulation  |
\*---------------------------------------------------------------------------*/
FoamFile
{
    format      ascii;
    class       volVectorField;
    location    "2";
    object      U_0;
}
// * * * * * * * * * * * * * * * * * * * * * * * * * * * * * * * * * * * * * //

dimensions      [0 1 -1 0 0 0 0];

internalField   nonuniform List<vector> 
25600
(
(0.134862 -0.000556499 0.0269327)
(0.130393 1.18012e-05 0.00937267)
(0.112013 0.00029321 -0.0119729)
(0.0942374 0.000719042 -0.016857)
(0.115638 0.000233844 0.0135607)
(0.12891 -0.000665483 0.0228724)
(0.140869 -0.000383561 0.0106865)
(0.111405 0.000100337 -0.00975557)
(0.109206 0.000528261 -0.0129173)
(0.106063 0.000198779 0.0147545)
(0.131085 -0.000424677 0.0172283)
(0.143625 -0.000113215 0.0105376)
(0.122337 0.000131983 -0.00140037)
(0.105858 1.09967e-05 -0.00328836)
(0.115623 -0.000157214 0.0177167)
(0.125761 -0.000276047 0.0143111)
(0.125529 -0.000353472 0.0055584)
(0.105375 0.000233228 -0.00754044)
(0.093338 0.000626907 -0.0035213)
(0.122968 0.000212371 0.0158343)
(0.144921 -0.000496492 0.02065)
(0.138943 -0.00025916 0.0135319)
(0.121749 3.42897e-05 -0.0105492)
(0.104688 0.000376558 -0.0104438)
(0.109158 3.30381e-05 0.0114326)
(0.143449 -0.000478917 0.0130566)
(0.145097 -0.00032152 0.00998441)
(0.118636 9.26173e-05 0.00525489)
(0.105355 0.000334474 -0.00484997)
(0.116213 -8.34505e-05 0.0145548)
(0.128531 -0.000402924 0.0259704)
(0.126582 -0.000285 -0.00198523)
(0.111019 0.00021099 -0.0212072)
(0.10465 0.000491534 -0.00940554)
(0.121424 -5.46756e-05 0.0214368)
(0.128297 -0.000436286 0.0239267)
(0.132263 -0.000323771 -0.00185716)
(0.113922 -0.000205123 -0.0130304)
(0.105888 0.000365753 -0.0115921)
(0.125524 -0.000128241 0.0139505)
(0.394307 -0.00182884 0.0659591)
(0.385972 0.000917073 0.03571)
(0.350503 0.000952788 -0.0177194)
(0.292136 0.00168256 -0.0431044)
(0.357097 -0.000491154 0.0217748)
(0.380868 -0.00253235 0.0599035)
(0.417506 -0.000909873 0.0415287)
(0.338257 0.000471052 -0.0156293)
(0.334363 0.00082785 -0.036568)
(0.32829 -0.000492412 0.0267868)
(0.380077 -0.00194675 0.0502875)
(0.421914 -0.000378082 0.0374361)
(0.385785 0.000298935 0.00204771)
(0.33455 -0.00113449 -0.0141334)
(0.344767 -0.00131965 0.0318149)
(0.367631 -0.000371397 0.0424747)
(0.375844 -0.00042778 0.0253956)
(0.323404 0.0013007 -0.0167153)
(0.279286 0.00161264 -0.0194043)
(0.358328 -0.00120581 0.0293313)
(0.420737 -0.00244105 0.055382)
(0.415042 -0.00070878 0.0442541)
(0.382623 -0.000244179 -0.0137329)
(0.330524 0.00100118 -0.0263092)
(0.327783 -0.000567869 0.0222712)
(0.413081 -0.00236738 0.0369132)
(0.429467 -0.000894951 0.0284536)
(0.373493 0.000468257 0.0119491)
(0.330522 -0.000153012 -0.0160153)
(0.350873 -0.000783917 0.0271589)
(0.377914 -0.000264541 0.0721365)
(0.376711 -0.000221343 0.0146817)
(0.3382 0.00017581 -0.0411724)
(0.318202 0.000458727 -0.0320922)
(0.368439 -0.00126286 0.0404982)
(0.37743 -0.00124978 0.0689087)
(0.399477 -0.00086623 0.0141779)
(0.353994 -0.000800618 -0.0239853)
(0.320238 0.000190838 -0.0333256)
(0.374593 -0.00268827 0.0192696)
(0.612404 -0.00493645 0.0699492)
(0.621281 0.0019367 0.0762094)
(0.624226 0.00237279 0.0180179)
(0.510482 0.00262257 -0.056348)
(0.583067 -0.00286958 -0.0146165)
(0.591373 -0.00594537 0.0624553)
(0.671278 -0.0015834 0.0874884)
(0.588001 0.00202213 0.0207166)
(0.571308 0.000846074 -0.0525951)
(0.540809 -0.00259318 -0.00506482)
(0.580943 -0.00514397 0.0566315)
(0.663856 -0.0019433 0.0771425)
(0.676388 0.000989542 0.0381395)
(0.591003 -0.00140564 -0.0179495)
(0.548064 -0.00305799 0.0109613)
(0.568494 0.000404378 0.0520313)
(0.608327 0.00150849 0.0602164)
(0.567463 0.00446634 0.00321313)
(0.469617 0.00404463 -0.042913)
(0.545145 -0.00411203 -0.00376772)
(0.636295 -0.00698735 0.0603461)
(0.653957 -0.00175214 0.0871516)
(0.6681 -0.00070098 0.0227626)
(0.589116 0.00255636 -0.0332225)
(0.528951 -0.000902173 0.00290497)
(0.619645 -0.0053938 0.043862)
(0.68473 -0.00223483 0.0534301)
(0.659631 0.00215545 0.0392427)
(0.574894 -3.06681e-05 -0.0220067)
(0.562099 -0.00254073 -0.00542257)
(0.596472 -0.000543973 0.0958907)
(0.611461 0.00119992 0.0668282)
(0.593625 0.000717036 -0.0147184)
(0.533469 -0.000147253 -0.059772)
(0.591497 -0.00408647 0.00248148)
(0.589539 -0.00281849 0.0942823)
(0.639775 -0.00113797 0.0613854)
(0.616824 -0.000656981 0.000619729)
(0.546343 0.0010978 -0.0495265)
(0.585337 -0.00703914 -0.0205304)
(0.74665 -0.0086968 0.0180764)
(0.767302 0.00153692 0.0861844)
(0.872513 0.00510881 0.0772446)
(0.772786 0.00494201 -0.013426)
(0.802098 -0.00548121 -0.0440402)
(0.735841 -0.0088046 0.00514331)
(0.838084 -0.00377765 0.0962307)
(0.806158 0.00602627 0.0851188)
(0.822559 0.00296641 -0.0151667)
(0.753293 -0.00409307 -0.0358935)
(0.714235 -0.00924619 0.00539988)
(0.798431 -0.00645767 0.0795582)
(0.91417 0.00194793 0.0933752)
(0.88032 0.00180073 0.0207247)
(0.735904 -0.00359184 -0.0128513)
(0.701355 0.00132225 0.0178422)
(0.762672 0.00540676 0.0746536)
(0.79682 0.0110903 0.04967)
(0.696281 0.00955061 -0.0268112)
(0.693104 -0.00530207 -0.0530878)
(0.763754 -0.010184 0.00556339)
(0.776565 -0.00420454 0.0972849)
(0.888281 -0.0010944 0.08271)
(0.878554 0.00558769 0.00337554)
(0.743702 0.000409162 -0.0164672)
(0.74641 -0.00745716 0.00956813)
(0.832297 -0.00462639 0.0530204)
(0.908661 0.00571214 0.0805508)
(0.848719 0.00344493 0.0149081)
(0.744691 -0.00449456 -0.0492689)
(0.758023 -0.0013586 0.0565759)
(0.766176 0.0036429 0.100202)
(0.838411 0.00345116 0.0544652)
(0.771443 0.000883499 -0.0289585)
(0.772184 -0.00721335 -0.052479)
(0.744144 -0.00404104 0.0560813)
(0.787977 -0.000163478 0.0914387)
(0.83681 0.00134113 0.0552139)
(0.796102 0.00547373 -0.0208528)
(0.76409 -0.00882325 -0.0615417)
(0.823995 -0.00810711 -0.0358212)
(0.809404 0.000481972 0.0370884)
(0.988364 0.00698977 0.097507)
(1.00605 0.00875239 0.0534231)
(1.04186 -0.00432097 -0.00240071)
(0.83884 -0.00858331 -0.0421947)
(0.903701 -0.0060157 0.0414877)
(0.919253 0.0108587 0.110588)
(1.01557 0.00878249 0.0538016)
(0.979223 0.000130792 -0.00527227)
(0.815081 -0.00908244 -0.040641)
(0.826294 -0.012368 0.0168006)
(1.00231 -0.00109555 0.104679)
(1.10891 0.00868591 0.0776287)
(0.94631 0.00495982 0.00502845)
(0.791199 0.00236963 -0.0241366)
(0.820134 0.00800422 0.0445446)
(0.924336 0.0192662 0.0811353)
(0.925442 0.0190956 0.0290719)
(0.860151 -0.0019476 -0.0417278)
(0.849388 -0.00882948 -0.0503213)
(0.820956 -0.00436088 0.0475853)
(0.948924 -0.00207471 0.105566)
(1.09816 0.00908791 0.0594383)
(0.983994 0.00682999 0.0108491)
(0.846755 -0.00460559 -0.0227135)
(0.868978 -0.00719616 0.00546686)
(1.02791 0.00805229 0.0892339)
(1.09375 0.0127413 0.074792)
(0.920155 -0.00244509 -0.0395618)
(0.853192 -0.00067822 -0.00583278)
(0.825239 0.00693657 0.0615493)
(0.971977 0.0077027 0.0932342)
(0.99571 0.00635834 0.0445226)
(0.932871 -0.00735571 -0.0399214)
(0.841377 -0.00204452 -0.00135478)
(0.852554 0.00345594 0.060155)
(0.931651 0.00467484 0.083573)
(0.992464 0.0135759 0.0386314)
(0.956165 -0.00194418 -0.0429744)
(0.909628 0.00175728 -0.0418314)
(0.824233 0.00112708 -0.0154001)
(0.99676 0.00613785 0.0703637)
(1.1133 0.00948194 0.0815705)
(1.22859 0.0027316 0.0524959)
(0.943775 -0.000840149 -0.033539)
(0.89591 -0.00734971 -0.00750552)
(0.954847 0.0132946 0.0867188)
(1.09641 0.015117 0.0899041)
(1.14289 0.0117035 0.0457398)
(0.920262 0.000812566 -0.0332491)
(0.828662 -0.0134808 -0.0355696)
(0.985883 -0.0101913 0.0674984)
(1.19147 0.0136855 0.101517)
(1.12186 0.0227502 0.0409376)
(0.903966 0.00874358 -0.0332924)
(0.848226 0.00772144 0.0096569)
(0.95167 0.0232951 0.0863458)
(1.06168 0.0280093 0.0774108)
(1.03192 0.00832583 0.0086462)
(0.940586 -0.00204536 -0.0490083)
(0.862787 -0.000299472 0.00455431)
(0.942803 -0.00368673 0.0863045)
(1.18254 0.0102761 0.0831991)
(1.16808 0.0173338 0.0499473)
(0.960426 0.00581084 -0.010934)
(0.872139 -0.00750558 -0.0318593)
(1.04241 0.00375773 0.0628282)
(1.24435 0.0224672 0.108105)
(1.0711 0.0096064 -0.00228255)
(0.892884 0.00531256 -0.0293112)
(0.821973 0.0103772 0.00238954)
(1.00246 0.0108447 0.0739888)
(1.11911 0.0142764 0.0805272)
(1.055 -0.000342841 0.00215323)
(0.909056 0.00342165 -0.0141929)
(0.887615 0.00744363 0.0224647)
(0.945108 0.0072663 0.0722771)
(1.06675 0.0205593 0.0731394)
(1.11996 0.0122644 0.00737126)
(1.02565 0.0172429 -0.0144693)
(0.88251 0.00408227 -0.0202275)
(0.993557 0.0024831 0.0533561)
(1.14863 0.00501053 0.0885747)
(1.30733 0.0105011 0.0773658)
(1.05368 0.0151053 -0.0101201)
(0.880265 -0.00570032 -0.0113349)
(0.956454 0.0105535 0.0704231)
(1.12524 0.0179026 0.0973418)
(1.24072 0.0241378 0.0728397)
(1.02902 0.0159029 0.00123396)
(0.862912 -0.00856474 -0.0299339)
(0.966326 -0.0193447 0.0500343)
(1.18485 0.0130779 0.105634)
(1.22497 0.0396641 0.0696572)
(1.02961 0.0208397 -0.0200254)
(0.889468 0.00725419 -0.00674625)
(0.957415 0.0204065 0.0851669)
(1.11876 0.0311032 0.102861)
(1.15413 0.019663 0.046961)
(1.02972 0.00929266 -0.0212984)
(0.911315 0.00656912 0.00428548)
(0.953354 -0.00601757 0.0816095)
(1.22146 0.00883226 0.0891025)
(1.27642 0.0267323 0.0702597)
(1.05643 0.0201659 0.0193278)
(0.900042 -0.0035238 -0.0195947)
(1.02886 -0.00763363 0.058277)
(1.32442 0.0249071 0.123371)
(1.18088 0.0275854 0.027042)
(0.931172 0.0175868 -0.0209926)
(0.807673 0.0111855 -0.0154985)
(0.994543 0.00947526 0.0510812)
(1.16502 0.0211468 0.0810195)
(1.13654 0.0108301 0.0286976)
(0.976543 0.00959714 -0.000612389)
(0.936066 0.00901105 0.0183566)
(0.949511 0.00748578 0.0690463)
(1.06978 0.0221204 0.0824546)
(1.23058 0.0249059 0.0444367)
(1.14556 0.032006 0.018897)
(0.962286 0.00861402 0.0117468)
(1.00691 -0.00147904 0.0699688)
(1.17677 -0.00245984 0.105868)
(1.34698 0.0153062 0.0911393)
(1.15537 0.0333936 0.0181302)
(0.891069 0.000844827 0.0176099)
(0.947494 0.0029212 0.0806235)
(1.14142 0.0144984 0.107587)
(1.33063 0.0324344 0.0919595)
(1.14178 0.030885 0.0357563)
(0.917272 -0.000387072 0.00735602)
(0.974741 -0.0266284 0.0676622)
(1.16273 0.00775195 0.12547)
(1.29201 0.0518222 0.0991839)
(1.13886 0.0356263 0.00346029)
(0.930066 0.00859819 -0.00397318)
(0.968491 0.0108675 0.0946315)
(1.15271 0.0273811 0.12812)
(1.25848 0.027163 0.0804372)
(1.10735 0.0208839 0.0132124)
(0.965731 0.013707 0.0307053)
(0.984322 -0.0106955 0.0988565)
(1.26076 0.00365914 0.103654)
(1.35018 0.0335508 0.0830282)
(1.11288 0.0336454 0.0478844)
(0.933875 0.00151425 0.0145181)
(1.02309 -0.0227013 0.0827923)
(1.35113 0.0194047 0.141663)
(1.26154 0.0436297 0.0520979)
(0.995442 0.0334484 0.00551738)
(0.829745 0.0113087 0.0109556)
(0.976566 0.002257 0.0595575)
(1.19433 0.0231409 0.090089)
(1.22562 0.0208647 0.0584294)
(1.04926 0.0162974 0.0245201)
(0.992076 0.00880866 0.0374193)
(0.965653 0.00572041 0.08789)
(1.06887 0.0149929 0.106588)
(1.3248 0.029047 0.0781858)
(1.23723 0.045388 0.0464822)
(0.988731 0.0132729 0.0398395)
(1.01515 -0.0107631 0.0858865)
(1.21135 -0.0169895 0.109173)
(1.36615 0.0151537 0.0922791)
(1.23199 0.0516777 0.0596964)
(0.906087 0.00945449 0.0409665)
(0.936223 -0.0137698 0.0766479)
(1.15577 -0.0064138 0.11084)
(1.41155 0.0277009 0.111423)
(1.22458 0.0434026 0.0580227)
(0.959649 0.00897439 0.0266855)
(0.988284 -0.0345236 0.0701662)
(1.1387 -0.00822918 0.137007)
(1.33975 0.0498804 0.125701)
(1.24439 0.0492415 0.037678)
(0.983823 0.0164982 0.0192412)
(0.977241 -0.00181724 0.0991635)
(1.1856 0.00988633 0.143194)
(1.35959 0.0252329 0.111246)
(1.18194 0.032197 0.0541548)
(1.00854 0.0187276 0.0614138)
(1.01758 -0.0216492 0.0975222)
(1.27745 -0.00793806 0.106851)
(1.39796 0.0381185 0.0940682)
(1.13444 0.046734 0.0595222)
(0.960592 0.00403612 0.0325567)
(1.00318 -0.0402334 0.0864967)
(1.31914 0.0068453 0.140846)
(1.32895 0.0545529 0.0752082)
(1.04932 0.0473718 0.0366675)
(0.884068 0.0110863 0.0428056)
(0.962337 -0.0108353 0.0721639)
(1.22911 0.0125227 0.112958)
(1.31763 0.0251679 0.0907582)
(1.127 0.0239727 0.0550674)
(1.04493 0.00962013 0.0653185)
(0.99281 0.000930791 0.106673)
(1.1022 -0.00807584 0.128253)
(1.40984 0.0181494 0.0991476)
(1.24027 0.0609931 0.0477732)
(0.970434 0.0188963 0.0368652)
(1.0078 -0.0316938 0.0644474)
(1.21117 -0.0400237 0.0755761)
(1.32821 0.00885663 0.0721264)
(1.25334 0.0659409 0.0827033)
(0.95632 0.0200956 0.0374657)
(0.96658 -0.0371201 0.0464892)
(1.16596 -0.0408948 0.0806515)
(1.40103 0.0131198 0.0961238)
(1.23277 0.054736 0.0479302)
(0.981682 0.020329 0.0195279)
(1.01222 -0.0422836 0.0513345)
(1.12328 -0.0350301 0.0945159)
(1.34512 0.0315011 0.100777)
(1.29076 0.0571832 0.0498398)
(1.02476 0.0270873 0.0396317)
(0.995189 -0.0199126 0.0769063)
(1.19687 -0.0199544 0.0983434)
(1.38921 0.0137558 0.0858128)
(1.20747 0.0422654 0.0656257)
(1.01503 0.0222582 0.0715607)
(1.00794 -0.0389148 0.061984)
(1.2391 -0.0293326 0.0740404)
(1.40071 0.0351663 0.090689)
(1.16063 0.0618018 0.0536731)
(0.998479 0.00890434 0.0261442)
(0.982577 -0.0594409 0.0529379)
(1.25844 -0.0162276 0.10847)
(1.36291 0.057536 0.0827991)
(1.10283 0.0599152 0.0539663)
(0.958997 0.00944072 0.0461821)
(0.972785 -0.0341696 0.0529088)
(1.25126 -0.0173385 0.106545)
(1.35624 0.0200529 0.0904876)
(1.18108 0.0320776 0.064237)
(1.0816 0.0087538 0.0662445)
(1.01973 -0.0133838 0.0901727)
(1.1408 -0.0409518 0.0892666)
(1.39922 0.00343472 0.0653423)
(1.16916 0.0795365 0.0230851)
(0.995368 0.0250384 0.0204569)
(1.0201 -0.0472902 0.036227)
(1.15289 -0.0579888 0.0343924)
(1.24195 0.00230059 0.0392094)
(1.22315 0.0750855 0.0596252)
(1.03926 0.0337347 0.027303)
(1.02257 -0.0464101 0.0343212)
(1.13503 -0.06402 0.0437217)
(1.30977 0.0047762 0.050991)
(1.19181 0.0673961 0.0137224)
(1.00928 0.0330603 0.00861174)
(1.04171 -0.0449183 0.0391582)
(1.10533 -0.0586878 0.0370448)
(1.29133 0.0163344 0.0489117)
(1.24994 0.0669649 0.029396)
(1.05584 0.0334281 0.0296909)
(1.03384 -0.0380164 0.0449998)
(1.17676 -0.0448605 0.0369401)
(1.30566 0.0114538 0.0315577)
(1.14714 0.0557006 0.0395405)
(1.01523 0.0249747 0.053043)
(1.0014 -0.0547681 0.0316753)
(1.16878 -0.0553517 0.0312214)
(1.33327 0.0256542 0.0564674)
(1.16591 0.0747752 0.028942)
(1.03851 0.0198348 0.00876593)
(0.986583 -0.0730386 0.0182759)
(1.1957 -0.0441121 0.0689228)
(1.34333 0.0512116 0.0755092)
(1.17184 0.071315 0.0486124)
(1.05936 0.013586 0.0293393)
(1.02238 -0.0549949 0.0249554)
(1.2185 -0.050372 0.0653502)
(1.30719 0.0141599 0.0584755)
(1.17966 0.0404651 0.0398725)
(1.10158 0.0114845 0.0356568)
(1.04966 -0.023493 0.0526998)
(1.13077 -0.0628702 0.0345988)
(1.2824 0.000509093 0.0134406)
(1.09425 0.0874901 -0.0137149)
(1.03431 0.0285264 0.0100138)
(1.04073 -0.0467241 0.0296153)
(1.08947 -0.0639291 0.0105567)
(1.14147 -0.00525255 0.000475009)
(1.15793 0.0754066 0.0116104)
(1.07217 0.0435991 0.0157055)
(1.04742 -0.04056 0.0390245)
(1.08332 -0.0711027 0.0231508)
(1.18011 -0.000773278 0.00101224)
(1.12053 0.0719217 -0.0231098)
(1.03358 0.0401012 0.00186051)
(1.05904 -0.0403496 0.0375351)
(1.06341 -0.0700547 0.0137037)
(1.17358 0.009488 0.00287647)
(1.16809 0.0742863 -0.0134982)
(1.08106 0.0364468 0.00366028)
(1.05968 -0.0425073 0.0309595)
(1.10968 -0.0560435 0.00763937)
(1.16028 0.0158647 -0.0106018)
(1.07462 0.0646479 -0.000796294)
(1.04537 0.0260774 0.0247844)
(1.03295 -0.0574834 0.0254258)
(1.0981 -0.0727166 0.00575844)
(1.20606 0.0150353 0.00283487)
(1.1174 0.0793181 -0.00788935)
(1.06029 0.031908 -0.00150867)
(1.00877 -0.0717387 0.0133662)
(1.12936 -0.0650129 0.0403768)
(1.28027 0.0412058 0.0414529)
(1.19887 0.0770296 0.012279)
(1.12487 0.0213343 0.0108144)
(1.06853 -0.0558936 0.0195441)
(1.13662 -0.0652582 0.0294769)
(1.18894 0.0124292 0.0110374)
(1.13202 0.0462617 0.00105183)
(1.09064 0.017114 0.0124895)
(1.06319 -0.0220676 0.0346757)
(1.0841 -0.0691666 0.0155059)
(1.14129 0.000789543 -0.0231908)
(1.04022 0.0776016 -0.0344816)
(1.04252 0.0280926 0.00484034)
(1.04369 -0.0390103 0.0253651)
(1.04635 -0.059024 -0.00133548)
(1.05135 -0.0146895 -0.0245504)
(1.07142 0.0625465 -0.018211)
(1.05669 0.0463599 0.00605186)
(1.05312 -0.0303367 0.0352937)
(1.04615 -0.0672106 0.0101028)
(1.06726 -0.00990825 -0.0290731)
(1.04565 0.0606235 -0.0381594)
(1.03204 0.0413647 -0.000847448)
(1.06314 -0.0291509 0.0321601)
(1.03326 -0.0686438 0.00666146)
(1.06039 -0.00303344 -0.0278772)
(1.08141 0.0637444 -0.0424931)
(1.06361 0.0357997 -0.00769529)
(1.05625 -0.0359043 0.0257556)
(1.04874 -0.0545862 -0.00551762)
(1.04642 0.0128165 -0.0350562)
(1.0271 0.0586389 -0.024934)
(1.05142 0.0247941 0.0087587)
(1.0506 -0.0486008 0.0252332)
(1.04602 -0.0738557 -0.00412761)
(1.07356 0.00223703 -0.0311906)
(1.04212 0.070057 -0.0256712)
(1.05154 0.0372554 -0.00260797)
(1.03298 -0.0591581 0.0215804)
(1.06286 -0.0720618 0.0198297)
(1.16244 0.0255127 -0.0126875)
(1.13963 0.06972 -0.0292741)
(1.10254 0.0268378 -0.000476275)
(1.06994 -0.0453085 0.0210434)
(1.06359 -0.0654399 0.00939482)
(1.07442 0.00607741 -0.0264876)
(1.06441 0.0422813 -0.0228372)
(1.05625 0.0197972 0.00324686)
(1.05445 -0.015642 0.0232394)
(1.04419 -0.0642283 0.00876259)
(1.04067 -0.00436629 -0.0408769)
(1.00772 0.0594207 -0.0311252)
(1.03595 0.026321 0.00330236)
(1.04255 -0.0268165 0.0185042)
(1.03134 -0.049948 -0.00440998)
(1.00368 -0.0225245 -0.0248366)
(1.00753 0.0448994 -0.0196654)
(1.03472 0.0432124 0.00214125)
(1.05296 -0.0182762 0.0268036)
(1.03198 -0.056385 0.00476937)
(1.00934 -0.0177312 -0.0291532)
(1.00013 0.0425664 -0.0304924)
(1.02114 0.0382288 -0.0014738)
(1.05878 -0.0184399 0.0239203)
(1.02698 -0.0605868 0.00513407)
(0.999674 -0.0134496 -0.0296652)
(1.02018 0.0469963 -0.0398875)
(1.03858 0.0341166 -0.0074917)
(1.04942 -0.0250418 0.0195499)
(1.02732 -0.0488153 -0.00825511)
(0.997225 0.00367262 -0.0335345)
(1.00323 0.0464743 -0.0243895)
(1.04102 0.0241581 0.00302246)
(1.05151 -0.0367966 0.0202088)
(1.02544 -0.0660123 -0.00439932)
(1.00122 -0.0085182 -0.0306647)
(0.995414 0.0555763 -0.0210156)
(1.03869 0.038036 -0.0024659)
(1.05041 -0.043711 0.0206622)
(1.02593 -0.0685159 0.00833835)
(1.04758 0.00743717 -0.0382235)
(1.05441 0.0556781 -0.0397924)
(1.05944 0.0311289 -0.0028276)
(1.05851 -0.0309794 0.0176219)
(1.03145 -0.0565467 0.00224007)
(1.0099 -0.00209438 -0.0348236)
(1.01706 0.0325471 -0.0251206)
(1.03183 0.0194508 0.000260825)
(1.04518 -0.00778097 0.0143857)
(1.03116 -0.0538839 0.00617044)
(0.996843 -0.0113319 -0.0361379)
(0.996213 0.0437479 -0.0200792)
(1.02976 0.0230326 0.00348629)
(1.03912 -0.0169795 0.01244)
(1.02858 -0.0399594 -0.00445089)
(0.994204 -0.0241909 -0.0167522)
(0.985386 0.0311143 -0.0116991)
(1.02299 0.0367169 0.00155016)
(1.04826 -0.00960081 0.0186795)
(1.0285 -0.0445917 0.00233155)
(0.996284 -0.0203384 -0.0194803)
(0.987647 0.0277053 -0.0176845)
(1.015 0.0334683 -0.00118596)
(1.05226 -0.00976731 0.015918)
(1.02868 -0.0499593 0.00366308)
(0.985853 -0.0165555 -0.0194885)
(0.997298 0.0326381 -0.0252924)
(1.02524 0.0300004 -0.00399502)
(1.04264 -0.0148154 0.0133387)
(1.02345 -0.0406716 -0.0072202)
(0.986891 -0.0026659 -0.0218522)
(0.995648 0.0356538 -0.0152693)
(1.03372 0.0223461 0.00181033)
(1.04748 -0.0248589 0.0147612)
(1.02157 -0.0538783 -0.00290747)
(0.984326 -0.0132426 -0.0195855)
(0.983363 0.0418082 -0.0113789)
(1.0306 0.0347229 -0.00221248)
(1.05419 -0.0297705 0.0145427)
(1.01797 -0.0566605 0.00563351)
(0.994197 -0.00290147 -0.0313301)
(1.00719 0.0419904 -0.0289724)
(1.0344 0.0304022 -0.000556659)
(1.04923 -0.0185734 0.0128271)
(1.02447 -0.0460854 0.000768866)
(0.991973 -0.00793511 -0.0266415)
(1 0.02327 -0.0173585)
(1.0215 0.0170053 0.000899246)
(1.03778 -0.00248594 0.00863913)
(1.0282 -0.042491 0.00415082)
(0.98915 -0.0134741 -0.0244141)
(0.996614 0.0318545 -0.012027)
(1.02578 0.0193479 0.00348346)
(1.03473 -0.00952761 0.00793962)
(1.02772 -0.030825 -0.00433295)
(0.998579 -0.0230498 -0.0108739)
(0.985411 0.0213527 -0.00574485)
(1.01856 0.0303052 0.00138062)
(1.04244 -0.00388506 0.0124322)
(1.02717 -0.0336247 0.000790183)
(0.999697 -0.019434 -0.0124373)
(0.99003 0.0175632 -0.00915694)
(1.01239 0.0281032 -0.000961504)
(1.04525 -0.00463414 0.0100818)
(1.02893 -0.0398186 0.00216883)
(0.989855 -0.0156042 -0.0118082)
(0.995503 0.0224172 -0.0141539)
(1.02004 0.0245835 -0.00146726)
(1.03701 -0.00775882 0.00849718)
(1.02406 -0.0329149 -0.00629842)
(0.990944 -0.00556783 -0.0129044)
(0.996388 0.0270264 -0.00791489)
(1.0294 0.0195527 0.00137224)
(1.04221 -0.0164269 0.010432)
(1.02148 -0.0423568 -0.00205409)
(0.988535 -0.0144953 -0.0116759)
(0.986154 0.0310979 -0.00506629)
(1.02569 0.0303757 -0.00187866)
(1.04973 -0.019765 0.00881916)
(1.01919 -0.0450829 0.00392388)
(0.986721 -0.00716927 -0.0191926)
(0.995845 0.0304785 -0.0167141)
(1.02457 0.0270211 0.00193349)
(1.04219 -0.0101794 0.00888311)
(1.02418 -0.0362398 -9.40523e-06)
(0.993874 -0.00986088 -0.0178069)
(0.998469 0.0164908 -0.0104398)
(1.01837 0.0138826 0.00176809)
(1.03266 0.000749401 0.00491367)
(1.02683 -0.0322478 0.00241694)
(0.994145 -0.0134418 -0.0157415)
(0.999857 0.0232297 -0.00756236)
(1.02272 0.0155181 0.00302019)
(1.03065 -0.00499746 0.00484477)
(1.02665 -0.0227602 -0.00408144)
(1.00402 -0.020269 -0.00743335)
(0.990403 0.0144136 -0.00265476)
(1.01661 0.0243789 0.00103828)
(1.03705 -0.000457668 0.00792552)
(1.02559 -0.0244839 -1.84721e-05)
(1.00467 -0.0175843 -0.00829339)
(0.995128 0.0102475 -0.00445712)
(1.01125 0.0231919 -0.000844055)
(1.03916 -0.000580887 0.0058201)
(1.02793 -0.0305131 0.00129877)
(0.995921 -0.013472 -0.00737331)
(0.999047 0.0147147 -0.00799553)
(1.01784 0.019233 -0.000328634)
(1.03205 -0.00267136 0.00504846)
(1.02432 -0.0254619 -0.00545931)
(0.997045 -0.0069172 -0.00784618)
(0.999145 0.0200583 -0.00365007)
(1.02611 0.016402 0.00103317)
(1.03704 -0.0101716 0.00726002)
(1.02157 -0.0316622 -0.00147677)
(0.995688 -0.0141511 -0.00741404)
(0.991244 0.0224708 -0.0018681)
(1.02185 0.0257702 -0.00164934)
(1.04352 -0.0123519 0.00482523)
(1.02058 -0.033988 0.00259745)
(0.992322 -0.008139 -0.0113286)
(0.997282 0.0214936 -0.00925577)
(1.02064 0.0224724 0.00289101)
(1.03655 -0.00475792 0.00587565)
(1.02419 -0.0277401 -0.000567037)
(0.999122 -0.0102667 -0.0119878)
(1.00092 0.0118318 -0.00631903)
(1.0173 0.0111517 0.0021199)
(1.02861 0.0024304 0.00245618)
(1.02537 -0.0234268 0.00134488)
(1.00049 -0.012193 -0.010088)
(1.00312 0.0165586 -0.00496654)
(1.02044 0.012292 0.00235243)
(1.02716 -0.00204619 0.00274584)
(1.0251 -0.016098 -0.0037205)
(1.00815 -0.017245 -0.00515797)
(0.995521 0.00961759 -0.0010104)
(1.01551 0.0193644 0.000715067)
(1.03236 0.00137306 0.00473212)
(1.02378 -0.0173328 -0.000210263)
(1.00852 -0.0148751 -0.00558355)
(0.999944 0.00575436 -0.00193101)
(1.01065 0.0187305 -0.000658147)
(1.03377 0.00150665 0.00294129)
(1.02657 -0.0232903 0.000875004)
(1.00103 -0.0109321 -0.00464519)
(1.00283 0.00966264 -0.00460261)
(1.01661 0.0146473 7.95202e-05)
(1.02772 0.000333865 0.00263221)
(1.02387 -0.0192827 -0.00452907)
(1.00231 -0.00703363 -0.00478627)
(1.00202 0.0150715 -0.00131714)
(1.02343 0.0134738 0.000626134)
(1.03237 -0.00611935 0.00484898)
(1.02109 -0.023264 -0.00100196)
(1.00166 -0.0130475 -0.00494074)
(0.996073 0.0158153 -0.000250912)
(1.01889 0.0215758 -0.00140883)
(1.03764 -0.00715335 0.0022107)
(1.02096 -0.0253794 0.00166412)
(0.998527 -0.00823791 -0.00678627)
(1.00095 0.014778 -0.00519219)
(1.01848 0.0182061 0.00293691)
(1.03167 -0.00145449 0.00363436)
(1.02367 -0.0208058 -0.000909092)
(1.00379 -0.00951257 -0.00805859)
(1.00362 0.0087237 -0.00401328)
(1.01673 0.00878985 0.00200362)
(1.02539 0.00311952 0.000904731)
(1.02376 -0.0162841 0.000658725)
(1.00555 -0.0107789 -0.00624689)
(1.00603 0.0116908 -0.0033975)
(1.0187 0.00966106 0.00162569)
(1.02425 -0.000570306 0.00143118)
(1.02341 -0.0109177 -0.00320999)
(1.01117 -0.0140323 -0.00361357)
(1 0.00633099 -0.00015411)
(1.01484 0.015092 0.000453728)
(1.02846 0.00201329 0.00261664)
(1.02192 -0.0119091 -0.000125965)
(1.01116 -0.0119354 -0.00374805)
(1.00411 0.00271596 -0.000537994)
(1.01058 0.0147199 -0.00030579)
(1.02919 0.00278162 0.0010809)
(1.02513 -0.0172526 0.000648842)
(1.00495 -0.00838233 -0.00279774)
(1.00592 0.00632036 -0.00274675)
(1.01597 0.0106294 0.000163208)
(1.02415 0.00212584 0.00117799)
(1.02296 -0.0139832 -0.00359073)
(1.00649 -0.00646559 -0.00289278)
(1.00462 0.0112125 -0.000133688)
(1.02128 0.01071 0.000331797)
(1.02845 -0.00364847 0.00315472)
(1.02028 -0.0165214 -0.000584316)
(1.00624 -0.0111368 -0.00344108)
(1.00039 0.010638 0.000445798)
(1.01668 0.017459 -0.00112208)
(1.03254 -0.00378662 0.000605044)
(1.02082 -0.0185935 0.00101676)
(1.00341 -0.00724145 -0.00402649)
(1.00439 0.00985245 -0.00295563)
(1.01707 0.0142413 0.00250343)
(1.02751 0.000495058 0.0021146)
(1.02274 -0.0151089 -0.00100557)
(1.00742 -0.00832193 -0.00532697)
(1.00605 0.00643814 -0.00267333)
(1.01636 0.00686802 0.00174002)
(1.02279 0.00305413 6.03068e-05)
(1.02212 -0.0108444 0.000244319)
(1.00936 -0.00909139 -0.00360324)
(1.00855 0.00796537 -0.00231717)
(1.01743 0.00749629 0.000991498)
(1.02193 9.31604e-05 0.000719292)
(1.02173 -0.00698941 -0.0026328)
(1.01325 -0.0110022 -0.00256946)
(1.00384 0.00393433 0.000293286)
(1.0145 0.0115605 0.000292463)
(1.02528 0.00195896 0.00127364)
(1.02021 -0.00795663 9.27909e-05)
(1.01292 -0.00906478 -0.00241126)
(1.00762 0.000773255 0.000114241)
(1.01087 0.011285 4.30334e-05)
(1.02532 0.00325122 1.62781e-05)
(1.02368 -0.0127453 0.000516744)
(1.00799 -0.00635146 -0.00153428)
(1.00838 0.00427948 -0.00170028)
(1.01573 0.00730034 0.000159106)
(1.02132 0.00290034 0.000386235)
(1.02177 -0.00972748 -0.00272811)
(1.00972 -0.00575793 -0.00169532)
(1.00697 0.00825266 0.000425849)
(1.01961 0.00834438 0.000163582)
(1.02525 -0.00217775 0.00194382)
(1.01931 -0.0113487 -0.000221755)
(1.00956 -0.00900756 -0.00242336)
(1.0042 0.00657042 0.000662848)
(1.01523 0.0137588 -0.000800315)
(1.02822 -0.00152266 -0.000258649)
(1.0203 -0.0133929 0.000621636)
(1.00705 -0.00589894 -0.00232185)
(1.00734 0.00640378 -0.00172506)
(1.01622 0.0107748 0.00196019)
(1.02406 0.00153449 0.00120488)
(1.02159 -0.0106428 -0.000962227)
(1.01025 -0.00691952 -0.00337716)
(1.00814 0.00481944 -0.00179599)
(1.01608 0.0052633 0.00139648)
(1.02082 0.00261603 -0.000276169)
(1.02057 -0.00676585 1.00714e-05)
(1.01211 -0.0073041 -0.00180208)
(1.01068 0.0051575 -0.00155602)
(1.01652 0.00571782 0.000453541)
(1.02013 0.000242451 0.000373274)
(1.02024 -0.00426379 -0.0020402)
(1.01464 -0.00824883 -0.00185981)
(1.00702 0.00220692 0.000477744)
(1.01435 0.00864367 0.000206858)
(1.02277 0.00154076 0.000501546)
(1.01875 -0.00515482 0.000291514)
(1.01399 -0.00644459 -0.00148186)
(1.01047 -0.00046861 0.00031146)
(1.01145 0.0083048 0.000316555)
(1.02214 0.00335115 -0.000485593)
(1.02233 -0.00919645 0.000345591)
(1.01036 -0.00475549 -0.000670221)
(1.01024 0.0030706 -0.00109543)
(1.01572 0.00469207 9.17755e-05)
(1.01923 0.00296638 3.24894e-05)
(1.02048 -0.00635296 -0.00199881)
(1.01218 -0.00492651 -0.000989612)
(1.00903 0.00597766 0.000629428)
(1.01829 0.00633713 7.20623e-05)
(1.02272 -0.00137886 0.00112944)
(1.01836 -0.00756357 5.95625e-05)
(1.01187 -0.00686502 -0.00169445)
(1.00744 0.00362942 0.00057457)
(1.01439 0.0104496 -0.000502009)
(1.02464 -0.000164822 -0.00061724)
(1.01965 -0.00947115 0.00034325)
(1.00976 -0.00444565 -0.00124916)
(1.00973 0.00405461 -0.0010145)
(1.01578 0.00778752 0.00142446)
(1.02133 0.00191354 0.000704464)
(1.02038 -0.00715926 -0.000813771)
(1.01239 -0.00552619 -0.0020571)
(1.00994 0.00352044 -0.0012348)
(1.01587 0.00404853 0.00104339)
(1.01935 0.00198777 -0.000307813)
(1.01923 -0.00390376 -0.000140615)
(1.01401 -0.00557784 -0.000698388)
(1.01241 0.00302434 -0.000981741)
(1.01591 0.00425264 5.54882e-05)
(1.01877 0.000187715 0.000200606)
(1.01901 -0.0025033 -0.0014773)
(1.01548 -0.00593602 -0.00138424)
(1.00958 0.000950602 0.000491253)
(1.01434 0.00630735 0.000194365)
(1.02082 0.00101754 6.39067e-05)
(1.01766 -0.00329166 0.000384143)
(1.01458 -0.00421639 -0.000826965)
(1.01265 -0.0011126 0.000268255)
(1.01222 0.00574837 0.000471848)
(1.01963 0.00322751 -0.000614916)
(1.02104 -0.00643631 0.00019693)
(1.01221 -0.00363088 -0.000152546)
(1.01164 0.00237551 -0.00076055)
(1.0158 0.00283798 -7.48763e-06)
(1.01779 0.00257927 -6.24823e-05)
(1.01922 -0.00374556 -0.00140426)
(1.01396 -0.00406261 -0.000594789)
(1.01081 0.00410198 0.000639754)
(1.01725 0.00472135 4.73039e-05)
(1.02077 -0.00096406 0.000594513)
(1.01757 -0.00493725 0.000218855)
(1.01338 -0.00489263 -0.00113877)
(1.01007 0.00163619 0.000375273)
(1.01406 0.00755384 -0.000274888)
(1.02179 0.000670071 -0.000707784)
(1.01897 -0.00649729 0.000152994)
(1.01173 -0.00317055 -0.000599449)
(1.01158 0.00250582 -0.00063186)
(1.01561 0.0053349 0.000945428)
(1.01927 0.00190089 0.000458628)
(1.01923 -0.00454372 -0.000652067)
(1.01396 -0.00425322 -0.00120469)
(1.01146 0.00248107 -0.000809799)
(1.01568 0.00311194 0.000717683)
(1.01829 0.0013384 -0.000211768)
(1.01814 -0.00199598 -0.000239107)
(1.01521 -0.00402605 -0.00010438)
(1.01377 0.00149129 -0.000557095)
(1.01555 0.00306284 -0.000202422)
(1.01775 0.000104079 6.92843e-05)
(1.01806 -0.00147067 -0.000993224)
(1.01594 -0.00406542 -0.00103529)
(1.01157 0.000138042 0.000402134)
(1.01442 0.00447031 0.000205729)
(1.01934 0.000568061 -0.000136363)
(1.01691 -0.00214576 0.000377322)
(1.01484 -0.0024937 -0.000378726)
(1.01419 -0.00132511 0.000152805)
(1.01308 0.00360848 0.000502596)
(1.01776 0.00290015 -0.000521618)
(1.01985 -0.00429916 4.88668e-05)
(1.01366 -0.00279588 0.000127245)
(1.01267 0.00193662 -0.000528685)
(1.01585 0.00163833 -0.000101747)
(1.01691 0.0019046 -4.37931e-05)
(1.0181 -0.00186817 -0.000945932)
(1.01512 -0.00317584 -0.000402532)
(1.0123 0.00257943 0.000550494)
(1.01649 0.00345178 5.8162e-05)
(1.01927 -0.000715402 0.000263376)
(1.01698 -0.00319676 0.000260471)
(1.01432 -0.00324956 -0.000715829)
(1.01206 0.000485295 0.000147232)
(1.01409 0.00513176 -0.000144656)
(1.01962 0.00107486 -0.000616848)
(1.0183 -0.00433017 2.22122e-05)
(1.01315 -0.00217863 -0.000239341)
(1.01294 0.0015691 -0.000387501)
(1.01561 0.00344399 0.000568569)
(1.01781 0.0016599 0.000337793)
(1.0182 -0.00263072 -0.000463562)