/*--------------------------------*- C++ -*----------------------------------*\
  =========                 |
  \\      /  F ield         | OpenFOAM: The Open Source CFD Toolbox
   \\    /   O peration     | Website:  https://openfoam.org
    \\  /    A nd           | Version:  10
     \\/     M anipulation  |
\*---------------------------------------------------------------------------*/
FoamFile
{
    format      ascii;
    class       volSymmTensorField;
    location    "2";
    object      UPrime2Mean;
}
// * * * * * * * * * * * * * * * * * * * * * * * * * * * * * * * * * * * * * //

dimensions      [0 2 -2 0 0 0 0];

internalField   nonuniform List<symmTensor> 
25600
(
(0.0118944 1.05559e-05 3.14758e-05 2.11511e-07 -2.70963e-08 0.00017782)
(0.0124266 7.24317e-06 0.000482176 2.17463e-07 9.53914e-07 0.000179195)
(0.0122163 -7.40727e-06 0.000306225 1.83519e-07 1.47502e-06 0.000202395)
(0.0118775 -9.96153e-06 -0.000127123 1.75193e-07 2.20972e-06 0.000208011)
(0.0120499 9.20916e-06 -0.000439997 1.62853e-07 2.98654e-08 0.000269272)
(0.0123568 7.47558e-06 0.000133494 1.65735e-07 -8.87209e-07 0.000235169)
(0.0117473 5.0706e-07 0.000300194 1.29277e-07 3.22249e-07 0.000232174)
(0.0123931 -6.35159e-06 0.000188979 1.54158e-07 1.08141e-06 0.000254711)
(0.0119904 -8.24948e-06 -0.00051906 1.99491e-07 2.97957e-06 0.000286375)
(0.0121962 -3.5884e-07 -0.000626007 1.88055e-07 2.41645e-06 0.00033561)
(0.0113272 8.54867e-06 -1.51746e-05 2.03738e-07 1.22371e-06 0.000245391)
(0.0122159 9.30461e-06 0.00031809 1.89044e-07 1.56581e-06 0.000187984)
(0.011682 3.36539e-06 0.000161648 1.3678e-07 1.08333e-06 0.000149029)
(0.0119711 -6.70653e-07 -0.000370895 1.46869e-07 1.07382e-06 0.000155517)
(0.0120047 -2.05256e-06 -0.000407748 1.57951e-07 6.71145e-07 0.000187248)
(0.0124216 1.35698e-05 0.000131438 1.94691e-07 1.20396e-06 0.00014141)
(0.0123466 7.64495e-06 0.000334797 2.02664e-07 1.87212e-06 0.000151347)
(0.0119942 -1.97746e-05 0.000145414 2.03569e-07 1.07343e-06 0.000167494)
(0.0123062 -1.41676e-05 -0.000605222 2.17747e-07 2.11644e-06 0.000205369)
(0.0115789 1.85141e-06 -0.000475421 1.45719e-07 2.72369e-07 0.000225762)
(0.0121468 1.21309e-05 0.000141871 1.77954e-07 3.40148e-07 0.000158227)
(0.0112707 4.2468e-06 0.000472922 1.64486e-07 1.20212e-06 0.000146617)
(0.0120868 3.3918e-06 0.000292626 1.25775e-07 8.79225e-07 0.000151766)
(0.0120073 -4.18301e-06 -0.000422327 1.42019e-07 1.39387e-06 0.000153874)
(0.012047 3.32729e-06 -0.000510516 1.37319e-07 9.11733e-07 0.000199121)
(0.0120104 7.30234e-06 -0.000138661 1.68521e-07 1.21041e-06 0.000187816)
(0.011828 1.08812e-05 0.000183117 1.70142e-07 1.89448e-06 0.000181101)
(0.0121233 4.45755e-06 3.4506e-05 1.1896e-07 1.21273e-06 0.000154571)
(0.0122757 -8.2858e-06 -0.000451094 1.3619e-07 1.65748e-06 0.000196537)
(0.0119135 -7.03855e-06 -0.000363312 1.57056e-07 1.10749e-06 0.000277867)
(0.0120361 1.32812e-05 0.000124282 2.11703e-07 4.94386e-07 0.000312651)
(0.0124759 2.14368e-06 0.000578063 1.86384e-07 3.10123e-07 0.000341681)
(0.0119525 -1.50388e-05 0.00010856 1.68332e-07 -2.79639e-07 0.000292309)
(0.0118375 -1.08616e-05 -0.000464387 1.29215e-07 3.17405e-07 0.000242673)
(0.0120344 4.35864e-06 -0.00044913 1.21955e-07 -5.20769e-07 0.000260915)
(0.0121355 1.39462e-05 0.000169253 1.53695e-07 4.35127e-08 0.000206442)
(0.0117268 3.6696e-06 0.00039808 1.23902e-07 7.0403e-07 0.000200066)
(0.0123324 -4.68788e-06 0.00017788 9.90236e-08 5.72156e-07 0.000181737)
(0.0125735 -9.63209e-06 -0.000406055 1.30011e-07 4.67799e-07 0.000175626)
(0.0127688 -1.05631e-06 -0.000586232 1.55081e-07 -5.52215e-07 0.000214829)
(0.0356611 4.29133e-05 -0.000986756 2.80587e-06 -2.29017e-06 0.000972302)
(0.0369103 6.07561e-05 0.00156345 2.69702e-06 7.37052e-06 0.000794211)
(0.0391318 1.79637e-05 0.00172805 2.09907e-06 1.10158e-05 0.000935368)
(0.0359985 -8.82472e-05 0.000268466 2.09152e-06 9.54649e-06 0.00101831)
(0.0360602 -9.74924e-05 -0.00244864 2.73003e-06 -2.5619e-06 0.00131345)
(0.0400496 6.44304e-05 -0.000542995 2.46159e-06 -1.0189e-05 0.00114634)
(0.03538 0.0001076 0.000910156 1.9281e-06 7.71072e-06 0.00100717)
(0.0396469 -3.98594e-06 0.00161631 1.90583e-06 1.37677e-05 0.00120054)
(0.0349838 -7.57892e-05 -0.00129965 2.51382e-06 2.14223e-05 0.00135618)
(0.0397219 -5.16346e-05 -0.0034379 2.96676e-06 1.44479e-05 0.00162359)
(0.0308743 8.07651e-05 -0.00159926 2.97226e-06 3.67759e-06 0.00121523)
(0.0367853 0.000100594 0.000525916 2.90416e-06 8.37362e-06 0.000834625)
(0.0340691 4.07529e-05 0.00123777 2.4643e-06 7.73578e-06 0.000721423)
(0.0365787 -6.88723e-05 -0.000877912 2.51847e-06 6.89644e-06 0.000745202)
(0.0367941 -0.000107134 -0.00266795 2.96519e-06 9.45705e-06 0.000967248)
(0.0382878 -9.11997e-06 -0.000663089 3.31484e-06 8.73231e-06 0.000715176)
(0.0439716 6.73384e-05 0.00126336 3.73971e-06 1.03983e-05 0.000727855)
(0.036653 -3.0995e-05 0.00158056 3.08765e-06 5.24787e-06 0.000904664)
(0.0400392 -0.000138348 -0.00176538 3.7405e-06 1.77179e-06 0.00100612)
(0.0319142 -5.3259e-05 -0.00289091 3.428e-06 -7.98937e-06 0.00117425)
(0.0363485 0.000106904 -0.000954174 3.49771e-06 -2.33295e-06 0.00083693)
(0.0297769 0.000159055 0.00109371 3.47379e-06 1.50125e-05 0.000640636)
(0.0336364 -4.40308e-08 0.00215156 2.02378e-06 1.50089e-05 0.000726171)
(0.0380807 -0.000109569 -0.00118768 2.33556e-06 1.5583e-05 0.000755415)
(0.0367211 -0.000114088 -0.0026936 2.68423e-06 1.52436e-05 0.00100276)
(0.038368 4.17625e-05 -0.00172199 3.1471e-06 1.17966e-05 0.000880163)
(0.0332155 0.000177669 -0.000157261 4.08196e-06 2.01145e-05 0.000770249)
(0.0348892 -2.56097e-06 0.000823812 2.84551e-06 1.45565e-05 0.000716444)
(0.039119 -0.000103373 -0.0016611 2.433e-06 1.55923e-05 0.000919464)
(0.0368444 -9.38516e-05 -0.00231255 2.34792e-06 1.64937e-05 0.00139671)
(0.0353749 -3.73696e-05 -0.000714203 2.10035e-06 1.3829e-05 0.00152643)
(0.0423427 8.61574e-05 0.00254008 2.37185e-06 9.73659e-06 0.00147288)
(0.0367178 5.90514e-05 0.00140812 2.31923e-06 3.70365e-06 0.00138904)
(0.0342063 -6.15907e-05 -0.00137104 2.01076e-06 9.79345e-07 0.00114583)
(0.0337202 -7.64131e-05 -0.00264006 1.8242e-06 8.3299e-08 0.00129502)
(0.0356177 3.51386e-05 -0.000607787 1.7565e-06 3.04389e-06 0.00102877)
(0.0364879 0.000148546 0.00160954 2.23472e-06 1.13227e-05 0.000876341)
(0.0373727 2.25073e-05 0.00157183 1.60646e-06 5.63866e-06 0.000890176)
(0.0408649 -0.000125638 -0.000791543 2.5876e-06 6.83106e-08 0.00085769)
(0.0388448 -3.55894e-05 -0.00261865 3.26878e-06 -1.34431e-05 0.00102847)
(0.0464409 7.29096e-05 -0.00245754 1.5936e-05 -8.77312e-06 0.00193024)
(0.0480322 0.000149508 0.000977298 1.31744e-05 3.20043e-05 0.00144059)
(0.049672 0.000104599 0.00226778 1.10796e-05 2.46179e-05 0.00143242)
(0.0498256 -8.13859e-05 0.0020512 1.06497e-05 1.66906e-06 0.00186336)
(0.0415896 -0.000190776 -0.00235065 1.35125e-05 -2.1237e-05 0.00216539)
(0.0446519 1.79831e-06 -0.00216915 1.04307e-05 -2.95772e-05 0.00204117)
(0.0425684 0.00017519 0.000244128 7.95728e-06 2.37838e-05 0.00168961)
(0.0517035 0.000111883 0.00261709 8.89703e-06 3.52018e-05 0.00179517)
(0.0445152 -8.27623e-05 0.000351823 1.13519e-05 2.46254e-05 0.00237444)
(0.0526232 -0.000144231 -0.0040003 1.38024e-05 -1.27744e-05 0.00271782)
(0.0399109 5.87265e-05 -0.00314873 1.40417e-05 -3.20217e-05 0.00217705)
(0.0524012 0.000150645 -0.000163274 1.21038e-05 7.77824e-06 0.00152613)
(0.044639 0.000162593 0.00144498 1.16802e-05 2.15227e-05 0.00122103)
(0.048475 -9.16059e-05 0.000329776 1.05449e-05 2.29092e-05 0.00136851)
(0.0479958 -0.000314099 -0.00382074 1.29657e-05 3.64967e-05 0.00179077)
(0.049894 -0.000266769 -0.00198878 1.62652e-05 3.89802e-05 0.00145651)
(0.0576082 9.31055e-05 -0.000220961 2.14745e-05 2.30438e-05 0.00129934)
(0.0452115 -9.59742e-05 0.00228543 2.0049e-05 -1.23321e-05 0.00162491)
(0.0616804 -0.000136728 -0.000505822 1.99411e-05 -5.35734e-05 0.00196145)
(0.036745 2.31098e-05 -0.00342756 2.30611e-05 -8.27874e-05 0.00212042)
(0.0492461 4.9106e-05 -0.00232194 1.73203e-05 -3.51979e-05 0.00170134)
(0.038449 0.00027434 0.000103753 1.36693e-05 2.44593e-05 0.00137079)
(0.0454215 -6.11825e-06 0.00327615 9.3232e-06 2.69247e-05 0.00119736)
(0.049446 -0.000192109 -0.00010783 9.93412e-06 1.74543e-05 0.00139263)
(0.0489896 -0.000212906 -0.00290497 1.30648e-05 -2.94645e-06 0.00180784)
(0.0471734 -0.000147635 -0.00285117 1.51956e-05 -6.45501e-06 0.00161539)
(0.0441927 0.000258799 -0.000685588 1.77005e-05 4.27645e-05 0.00138307)
(0.0497719 8.98025e-05 0.00120212 1.28254e-05 2.79968e-05 0.0011828)
(0.0434582 -0.00014971 -0.000334836 1.02558e-05 2.76655e-05 0.00152465)
(0.0505776 -0.000174757 -0.00287783 9.65295e-06 2.89316e-05 0.00237043)
(0.0408783 -0.000216886 -0.00244999 8.90575e-06 4.42807e-05 0.00281669)
(0.0523608 9.43285e-05 0.00205813 9.69634e-06 2.62315e-05 0.00210051)
(0.0460633 0.000354536 0.00252869 1.23383e-05 1.55775e-05 0.00206094)
(0.0452967 6.48972e-05 -0.000212678 1.07573e-05 -5.6689e-06 0.00207541)
(0.0413255 -0.000142969 -0.00321145 9.76673e-06 -1.46288e-05 0.00219025)
(0.0410029 -0.000139233 -0.00266388 7.60973e-06 8.69056e-06 0.00213477)
(0.0441522 0.000109956 0.00160498 8.77171e-06 1.37263e-05 0.00151275)
(0.0560878 -5.18683e-05 0.00280278 9.45779e-06 -9.08747e-08 0.00146796)
(0.0553716 -0.000123342 0.00123396 1.25488e-05 -2.00846e-05 0.0016041)
(0.0508548 4.11625e-05 -0.00246515 2.00229e-05 -5.05246e-05 0.00177489)
(0.0416707 -3.84111e-05 -0.00259158 5.72036e-05 0.00010812 0.00267141)
(0.0492402 9.58652e-05 0.000114446 5.69359e-05 0.000150103 0.00241659)
(0.0451263 0.000131695 0.00167268 5.60182e-05 0.000108616 0.00196634)
(0.0517753 0.000154238 0.0028987 4.46137e-05 3.12734e-05 0.00227456)
(0.0348603 0.000137022 -0.000501414 4.50764e-05 2.64869e-05 0.00269818)
(0.0401084 8.50025e-05 -0.00275729 3.75432e-05 4.25486e-05 0.00252234)
(0.0302321 8.19202e-05 -0.00108724 3.54461e-05 0.000104598 0.00247439)
(0.047825 6.3196e-05 0.00185306 4.74134e-05 0.000110762 0.00217362)
(0.0401952 -1.81332e-06 0.00244637 5.32549e-05 6.10855e-05 0.00276151)
(0.046194 -5.02375e-05 -0.00174223 5.4887e-05 1.09043e-05 0.00333026)
(0.0390919 8.55262e-05 -0.0028413 5.91828e-05 -1.74168e-05 0.00276914)
(0.0435335 -0.0001053 -0.000864143 5.92552e-05 5.81526e-05 0.00238533)
(0.0461684 7.36608e-06 0.000609753 6.15201e-05 0.000109939 0.00189174)
(0.0490343 -0.000209912 0.000959612 4.95207e-05 9.60892e-05 0.00176289)
(0.0532736 -0.000373936 -0.00245757 5.09301e-05 0.000128504 0.00218736)
(0.0390008 -0.000531778 -0.00267684 5.98529e-05 0.000148097 0.00208117)
(0.0519026 -0.000262421 -0.00139112 8.06861e-05 0.000128728 0.00207692)
(0.040185 -0.000398159 0.00168728 7.97364e-05 1.53326e-05 0.00214919)
(0.0647304 -9.71798e-05 0.00224699 6.85964e-05 -7.54567e-05 0.00262336)
(0.0378899 0.000422962 -0.00117246 7.41244e-05 -6.28195e-05 0.00303255)
(0.0523813 0.000151984 -0.00209144 6.17696e-05 1.40621e-05 0.00236532)
(0.0334653 0.000271031 -0.00173467 4.54525e-05 7.52258e-05 0.00232901)
(0.0391376 -8.70896e-05 0.00202375 3.6787e-05 8.84471e-05 0.00174671)
(0.0418628 -0.000170373 -4.2613e-05 3.9281e-05 8.59623e-05 0.00192721)
(0.0498471 -0.000192694 -0.002397 4.56671e-05 3.43951e-05 0.00266571)
(0.0449825 -4.65111e-05 -0.0023382 5.30415e-05 2.28034e-05 0.00246086)
(0.0341116 5.21698e-05 -0.000524964 5.3656e-05 0.000107848 0.00219032)
(0.0493465 0.000142471 0.00075911 4.33792e-05 0.000108832 0.00188379)
(0.0390313 -9.16707e-06 0.00108087 3.46893e-05 8.98506e-05 0.00207752)
(0.0480317 -0.000132408 -0.00117764 3.72683e-05 0.000129177 0.00316012)
(0.0369591 -0.00017006 -0.00295116 4.19847e-05 0.000152546 0.0036637)
(0.0424209 -3.55524e-05 0.000432265 4.75539e-05 0.000137327 0.00273626)
(0.0437155 0.000499036 0.00224165 5.43206e-05 0.00010116 0.00215533)
(0.0504968 0.000291287 0.00163134 4.60805e-05 5.11631e-05 0.00259909)
(0.0404768 7.45854e-05 -0.00163839 4.12499e-05 4.00766e-05 0.00294735)
(0.0403601 -0.000148929 -0.00372225 3.89393e-05 8.72881e-05 0.00292891)
(0.034376 -1.42063e-05 -0.000371661 4.37998e-05 9.18754e-05 0.00206341)
(0.0422049 -9.4091e-05 0.00112125 4.6718e-05 8.69489e-05 0.00168349)
(0.0403561 0.000114459 0.00235771 4.47071e-05 4.50192e-05 0.00207136)
(0.0433774 0.000243697 -0.000747634 5.73231e-05 7.27238e-05 0.00268468)
(0.0367822 0.000161755 -0.000647316 0.000170771 0.000305856 0.00270495)
(0.033983 0.000126832 -0.000521257 0.000187923 0.00032907 0.00275372)
(0.0297426 0.000250062 0.00149076 0.000195001 0.000306777 0.00270926)
(0.0364652 0.000305897 0.00188525 0.000154633 0.000194619 0.0025936)
(0.031983 0.000359887 -0.000453832 0.000120189 0.00019006 0.00299913)
(0.0381692 0.00048012 -0.00166263 9.3385e-05 0.00021077 0.00289545)
(0.0274836 0.000273767 -0.000254963 0.000112471 0.000261658 0.00309408)
(0.0385919 7.96782e-05 0.00200665 0.000154539 0.000291601 0.0030735)
(0.0330809 0.000226311 0.00361724 0.000160371 0.00018625 0.00278936)
(0.0404421 0.000226747 -0.00011046 0.00016034 0.000142455 0.00328492)
(0.0392765 0.00031589 -0.000971738 0.000174905 0.000126194 0.00279874)
(0.0360402 -0.000256324 -0.00120563 0.00020109 0.000173136 0.00268032)
(0.0335573 -0.000491251 -7.48973e-05 0.000206832 0.000254708 0.00265957)
(0.0408601 -0.000665782 0.000824897 0.000185055 0.000253552 0.00219164)
(0.0505949 -0.000592005 -0.00119769 0.000154616 0.000254836 0.00264981)
(0.0415241 -0.000543385 -0.0019107 0.000148588 0.000243293 0.00260479)
(0.0402283 -0.000718831 -0.00120691 0.000180625 0.000208458 0.00271912)
(0.0383507 -0.000896685 0.00223333 0.000190745 9.98999e-05 0.00249249)
(0.0512358 -0.000141574 0.00297107 0.000167963 9.53575e-06 0.002458)
(0.0420691 0.00089161 0.00129414 0.000167311 8.49526e-05 0.00310224)
(0.0466096 0.000363012 -0.000201439 0.000163204 0.000227114 0.00261856)
(0.0310518 0.000445571 -0.000628882 0.000129864 0.000226857 0.00272014)
(0.0312998 -0.000141658 0.00158499 0.000117529 0.000242456 0.00237301)
(0.0282995 2.22356e-05 0.00201715 0.000114211 0.000233563 0.00202283)
(0.038606 -0.000125468 0.00122096 0.000121063 0.000168863 0.00258329)
(0.0345124 0.000194365 0.00183812 0.000135736 0.000147734 0.0025261)
(0.0279556 5.75855e-05 0.00147733 0.000132988 0.000209975 0.00270039)
(0.029253 -3.48969e-05 0.00222268 0.000126529 0.000245556 0.00293479)
(0.0352767 0.000121903 0.00256164 0.000112996 0.000187274 0.00281095)
(0.0389506 0.000154086 0.00253987 0.000124856 0.000255355 0.00356558)
(0.0337803 2.16956e-05 -0.000300105 0.000144466 0.000305407 0.00356927)
(0.0344415 1.36724e-05 0.0007674 0.000162574 0.000298729 0.00310244)
(0.0330487 0.000457225 0.00261115 0.000166007 0.000251457 0.00259602)
(0.0429681 0.000341943 0.00267254 0.000144888 0.000166669 0.0025906)
(0.0350214 0.000193889 0.000306617 0.000124286 0.000203862 0.00314383)
(0.0371645 -0.00012349 -0.0029277 0.000117023 0.000275812 0.00288452)
(0.0268022 0.000275997 -0.000968171 0.000120085 0.000274401 0.00245525)
(0.0324478 4.49305e-05 0.00133908 0.000135591 0.000246125 0.00220103)
(0.0352977 0.000168767 0.00258011 0.000130048 0.000176237 0.00231051)
(0.0381705 0.00047385 0.00145924 0.000143607 0.0002253 0.0029087)
(0.0368747 0.000261419 0.00220421 0.00028 0.000367076 0.00264226)
(0.030816 0.000637066 0.00192292 0.000303584 0.000334749 0.00258512)
(0.0272533 0.000699742 0.00329276 0.000326424 0.000306683 0.00266712)
(0.0340923 0.000910405 0.0041258 0.000282372 0.000209576 0.00248602)
(0.0258476 0.00081265 0.00307136 0.000207843 0.000233423 0.00246332)
(0.0411316 0.000849513 0.00226118 0.000158052 0.000329803 0.00247184)
(0.0300009 0.000771593 0.00229519 0.0002277 0.000415015 0.00275161)
(0.0344839 0.000436815 0.00310769 0.000326793 0.000457861 0.00309112)
(0.0298476 0.000725255 0.00384141 0.000356681 0.000321891 0.00266054)
(0.0360811 0.000655882 0.000967788 0.000343306 0.000239816 0.00271619)
(0.0372416 0.000571573 0.00147846 0.000343712 0.000220673 0.00227179)
(0.0337917 -0.000360502 2.4364e-05 0.000394458 0.000253827 0.00236038)
(0.0235872 -0.000844084 0.00025084 0.000383368 0.000267206 0.00245712)
(0.0323071 -0.00072786 0.00128952 0.000363154 0.000287383 0.00230727)
(0.0403508 -0.000104048 0.00150843 0.000277322 0.000223549 0.00247082)
(0.0413031 -6.24961e-05 0.00199085 0.000245489 0.000224703 0.00260425)
(0.0381547 -0.000656329 0.00163026 0.000281936 0.000231608 0.00278869)
(0.0309727 -0.000794068 0.00206413 0.000316128 0.000256521 0.00238325)
(0.0267598 0.000139118 0.00252379 0.000320592 0.000163078 0.00189328)
(0.0356967 0.00112885 0.00206609 0.000308256 0.000125464 0.00213001)
(0.0329967 0.000801319 0.00271953 0.000298572 0.000224381 0.00224444)
(0.0279306 0.000619532 0.0019771 0.00023595 0.000247446 0.00235686)
(0.0220922 0.000324634 0.00245456 0.00022978 0.000280481 0.00226116)
(0.0217481 0.000567772 0.00349307 0.000236608 0.000315996 0.001995)
(0.0314248 0.000469357 0.00338564 0.000275409 0.000276454 0.00234341)
(0.0294062 0.000562116 0.00474898 0.000279617 0.000249695 0.00245067)
(0.0268139 0.000267275 0.00443201 0.00028084 0.000305102 0.00280502)
(0.020867 0.000130188 0.00415501 0.000288877 0.000282337 0.0031684)
(0.0318817 0.000493995 0.00416906 0.00030047 0.000237438 0.00315515)
(0.0388034 0.000772947 0.00435164 0.000316627 0.000248473 0.00319333)
(0.0312546 0.000443905 0.00255973 0.00035983 0.00038495 0.00275935)
(0.0300998 0.000242699 0.00142354 0.000384913 0.000398972 0.00241499)
(0.0183279 0.000443904 0.00228645 0.000391202 0.000372592 0.00242343)
(0.0342232 0.000204191 0.00185381 0.000330809 0.000293171 0.00248359)
(0.0274978 0.000188419 0.00124252 0.00023318 0.000275214 0.00279774)
(0.0309793 -6.6347e-05 -0.000962678 0.000195376 0.000306648 0.00250615)
(0.0264359 0.000591192 0.000581253 0.00020631 0.000254717 0.00215146)
(0.0306145 0.000255422 0.00214091 0.000282385 0.000286701 0.00200078)
(0.0279436 0.000234078 0.00377635 0.000298665 0.000275095 0.0020395)
(0.0303308 0.000296945 0.00324896 0.000269104 0.000276262 0.00264267)
(0.0303474 0.000568375 0.00341479 0.000417632 0.00043114 0.002763)
(0.0297473 0.000893562 0.00402163 0.000432797 0.000363584 0.00282175)
(0.0237198 0.000728986 0.00403567 0.000484633 0.000262667 0.00263968)
(0.0212766 0.00112768 0.00352072 0.000459991 0.00017689 0.00240972)
(0.025407 0.00103346 0.00230391 0.00035938 0.000183659 0.00237253)
(0.0315279 0.00108254 0.00229291 0.000275032 0.000279907 0.0023995)
(0.033873 0.00138825 0.00272862 0.000360138 0.000342144 0.00251362)
(0.0283149 0.00124885 0.00268836 0.000486976 0.00045482 0.00251342)
(0.0298247 0.00147638 0.00385239 0.000537719 0.0003628 0.00211326)
(0.0246229 0.00111328 0.00317838 0.000547418 0.000269827 0.002341)
(0.0331504 0.000604063 0.00275227 0.00052745 0.000197597 0.0019427)
(0.0247484 3.6552e-05 0.00217201 0.000544922 0.000202364 0.0020511)
(0.0186802 -0.000427805 0.00108833 0.000473076 0.000138925 0.00194459)
(0.0163091 -9.14035e-05 0.00228994 0.000444482 0.000172396 0.00208338)
(0.0262985 0.000426189 0.00201193 0.000408759 0.000100029 0.00226729)
(0.0295337 0.000538593 0.00362919 0.000411055 0.000138121 0.00272511)
(0.0297703 1.44341e-05 0.00265587 0.000480127 0.000227324 0.00306263)
(0.0223228 0.000215999 0.00256708 0.000498727 0.000303884 0.00271998)
(0.0234542 0.000929021 0.0025253 0.000491491 0.000201337 0.00231321)
(0.0244825 0.00133834 0.00247888 0.00048098 9.70182e-05 0.00223269)
(0.0257052 0.00105229 0.00271708 0.00047355 0.0001023 0.00219647)
(0.021842 0.000667062 0.00223374 0.000409592 0.000133285 0.00218288)
(0.0204103 0.000504243 0.0026553 0.000374038 0.000168877 0.00202034)
(0.0216377 0.000815091 0.00312127 0.000383529 0.000291941 0.00187478)
(0.0269909 0.0010808 0.00328005 0.000448589 0.000302551 0.00231322)
(0.0278446 0.00112492 0.00422889 0.000435413 0.000263594 0.00255753)
(0.026719 0.000659024 0.00496567 0.000433421 0.000282362 0.00273302)
(0.0229434 0.000218146 0.00487219 0.000465666 0.000187358 0.0027916)
(0.0290446 0.000596953 0.00472221 0.000512399 0.000207617 0.00285151)
(0.0360051 0.00112964 0.00408075 0.000489178 0.000150502 0.00270268)
(0.0348433 0.00115871 0.00248717 0.000516029 0.000331284 0.0024009)
(0.0280572 0.000977945 0.00235683 0.000533294 0.00033598 0.00189132)
(0.0190693 0.000697199 0.0019261 0.000562176 0.000338919 0.00173798)
(0.0225882 0.000427635 0.00226227 0.000486007 0.000275176 0.00177857)
(0.0208631 0.000474901 0.00136923 0.000312669 0.000201663 0.0021029)
(0.0231203 0.00013488 0.000354853 0.000262626 0.000212296 0.00193251)
(0.017419 0.000524363 0.00019573 0.000329064 0.000131353 0.00174319)
(0.0179082 0.000434574 0.000418787 0.000497218 0.0001722 0.00163934)
(0.0146533 0.000729788 0.0015943 0.000533522 0.000234009 0.00180162)
(0.0229088 0.000711745 0.0017315 0.000464345 0.000345251 0.00245306)
(0.0240538 0.00111707 0.00283255 0.000567563 0.000270801 0.00263606)
(0.0255847 0.00133797 0.00355799 0.000615513 0.000241028 0.00272198)
(0.0200989 0.00139291 0.00340185 0.000674402 0.000123572 0.00259729)
(0.0155619 0.00150021 0.00266748 0.000624821 3.28382e-05 0.00225211)
(0.0169103 0.00119469 0.00171269 0.00053536 4.45696e-05 0.00232274)
(0.0230906 0.000917857 0.00137093 0.000450317 4.34136e-05 0.00221991)
(0.026119 0.00153671 0.00156168 0.000493876 0.000127168 0.00253127)
(0.0215501 0.00179094 0.00161493 0.000610429 0.00028471 0.00241752)
(0.0198865 0.00218309 0.00238683 0.000673669 0.000295256 0.00226655)
(0.0196025 0.00182766 0.0015276 0.000752883 0.000231895 0.00253216)
(0.0222566 0.00118505 0.00162628 0.000733518 0.000110455 0.00251777)
(0.0214859 0.000797725 0.00210126 0.000695814 8.93157e-05 0.00254093)
(0.0157437 0.000479555 0.00186734 0.000588003 3.55473e-05 0.00246106)
(0.0140791 0.00057487 0.0028245 0.000577777 0.000166973 0.00252576)
(0.0158129 0.000913821 0.00265024 0.000649875 7.17831e-05 0.00284884)
(0.0216198 0.000527424 0.00304011 0.000642131 -6.07948e-06 0.00312512)
(0.0235036 0.000253089 0.00305032 0.000685378 6.48104e-05 0.00332465)
(0.0194289 0.000625968 0.0022676 0.000678949 0.000132749 0.00299031)
(0.0186612 0.00151212 0.00298119 0.000705058 9.43266e-05 0.00244712)
(0.0223238 0.00192667 0.00217496 0.000740062 -3.00282e-05 0.00231798)
(0.0212967 0.00153595 0.00316262 0.000751356 2.67634e-05 0.00232202)
(0.0196903 0.000807571 0.00241714 0.000678563 0.000101393 0.00239098)
(0.015773 0.000739828 0.00264442 0.000591005 0.00012742 0.00226741)
(0.0167158 0.000992546 0.00310403 0.000580008 0.000213679 0.00204375)
(0.0184411 0.00130607 0.00275736 0.000661802 0.000181728 0.00244551)
(0.020357 0.00101345 0.00309677 0.000690566 9.08615e-05 0.00254024)
(0.020421 0.000794506 0.00389884 0.000678313 0.000147256 0.00262359)
(0.0155218 0.000498893 0.00395555 0.000711154 0.000106381 0.00281556)
(0.0187623 0.000940859 0.00410194 0.000697852 0.000148761 0.0028408)
(0.0240033 0.00111563 0.00196332 0.000621943 2.12069e-05 0.00265358)
(0.0256885 0.00115042 0.00127573 0.000608321 0.000143752 0.00252364)
(0.0243844 0.0013077 0.00179743 0.000593793 0.000210064 0.00217776)
(0.0174983 0.00114955 0.0016446 0.000638017 0.000286921 0.00203141)
(0.0177683 0.00122897 0.00182001 0.000599659 0.000243628 0.00206499)
(0.0173373 0.00105282 0.000855548 0.000460344 0.000169187 0.00249658)
(0.0176669 0.000380654 0.000552739 0.000421892 0.000173481 0.00240175)
(0.0128549 0.000380821 0.00016769 0.000466363 8.82182e-05 0.00234853)
(0.0127714 0.000476234 -0.000601289 0.000590811 9.33019e-05 0.00198147)
(0.0111295 0.00105892 0.000462241 0.000585405 0.000186403 0.00192662)
(0.0192798 0.00119586 0.000859038 0.00058787 0.000239704 0.00216196)
(0.0205921 0.00111936 0.00230212 0.000727078 -2.77088e-05 0.00224876)
(0.0214396 0.00130873 0.00324556 0.000758165 -0.000101711 0.00250767)
(0.0168136 0.00150295 0.00246795 0.000808167 -0.000159925 0.00247183)
(0.0134004 0.00170735 0.00182816 0.00074017 -0.000144045 0.00218489)
(0.0141486 0.00152656 0.000343336 0.000669161 -5.87727e-05 0.00203335)
(0.0169564 0.00146058 0.000590081 0.000631249 -0.000144415 0.00217754)
(0.0238886 0.00216929 0.0015429 0.00059948 -0.000143145 0.00239756)
(0.0215728 0.0025386 0.00251678 0.00063438 -2.19689e-05 0.00264516)
(0.0203743 0.00259378 0.00270713 0.000663828 4.59346e-05 0.00260793)
(0.0191355 0.00229311 0.00226707 0.000747824 3.85663e-05 0.00279211)
(0.0185032 0.00150629 0.00116921 0.000742745 -0.000185381 0.00278273)
(0.018482 0.00128872 0.0018366 0.000711457 -0.000197175 0.00288418)
(0.0141784 0.000984084 0.00182687 0.000664106 -0.000243713 0.00281422)
(0.0118689 0.000990034 0.00234159 0.000690941 -4.75502e-05 0.0028052)
(0.0121087 0.00147285 0.00231015 0.000902978 -8.18829e-05 0.00264477)
(0.0149493 0.00112584 0.00190941 0.000901337 -0.000253851 0.00275917)
(0.0175209 0.00121337 0.00227685 0.000870431 -0.000209539 0.0028918)
(0.0167376 0.00157909 0.00222503 0.000826068 -0.000177995 0.00291932)
(0.0164599 0.00201731 0.00314243 0.000910074 -5.19972e-05 0.0023974)
(0.0161528 0.00215106 0.00244759 0.00105449 -7.89596e-05 0.00233215)
(0.0150064 0.00164311 0.00243477 0.00108765 -2.44698e-05 0.00220394)
(0.0148474 0.001205 0.00243071 0.000956973 1.42087e-05 0.00249115)
(0.0140861 0.00127913 0.00290669 0.000809305 5.28447e-07 0.00229956)
(0.0148742 0.00162737 0.00291351 0.000764193 0.000137775 0.00219894)
(0.0160944 0.00211713 0.00228934 0.00086067 0.000120613 0.00241869)
(0.0169171 0.00162524 0.00224247 0.000892423 -2.61383e-05 0.0026489)
(0.0168661 0.00160575 0.00345874 0.000869874 -2.78368e-05 0.00287023)
(0.014505 0.00127249 0.00330185 0.000906408 -1.74826e-05 0.00293201)
(0.014789 0.00159323 0.00347553 0.000880406 9.41977e-05 0.00276211)
(0.0170748 0.00145667 0.00167675 0.000801045 -3.87832e-05 0.0023965)
(0.0198839 0.00118769 0.00187294 0.00066592 -1.62125e-05 0.0026538)
(0.019792 0.00152269 0.00206263 0.000573804 -6.43294e-06 0.00254256)
(0.0151733 0.00156848 0.00238538 0.000588782 9.3031e-05 0.00253713)
(0.0134954 0.00159806 0.0021615 0.000597968 5.97505e-05 0.0026047)
(0.0129442 0.00122721 0.00103328 0.000541063 -7.80733e-05 0.00280252)
(0.0120925 0.000648843 0.000376253 0.000513426 -0.000126042 0.00294382)
(0.011443 0.000764515 0.000273091 0.00054159 -0.000191003 0.00268861)
(0.0119427 0.00107995 0.000120108 0.000600844 -0.000102147 0.00245544)
(0.0133463 0.00139588 0.00136892 0.00061907 -4.4259e-05 0.00194283)
(0.0179445 0.00145278 0.00195522 0.000691649 5.32909e-05 0.0019592)
(0.015584 0.00095548 0.00185089 0.000928256 -0.00028031 0.0016361)
(0.0156353 0.00111905 0.00237162 0.000927369 -0.000378148 0.0015699)
(0.0114426 0.00106545 0.00223004 0.00092862 -0.000374674 0.00176455)
(0.00928706 0.000925826 0.00159204 0.000792199 -0.0003402 0.00142058)
(0.00839431 0.00100216 0.000828944 0.000734429 -0.000186629 0.00133918)
(0.00909022 0.00112045 0.000551964 0.000815036 -0.00025218 0.00134554)
(0.0149019 0.00176883 0.00129976 0.000809352 -0.000397872 0.00130768)
(0.0163308 0.00206613 0.00267275 0.000881579 -0.000396615 0.00191814)
(0.0162464 0.00187877 0.00280811 0.000827065 -0.000371643 0.00200369)
(0.0156207 0.0018392 0.00258321 0.000831076 -0.000300586 0.00215112)
(0.0127671 0.0011885 0.00109687 0.000802604 -0.000454098 0.00185003)
(0.013309 0.00104253 0.0013457 0.000706312 -0.000462554 0.00192033)
(0.0112251 0.00078815 0.00120193 0.00072984 -0.000488177 0.00193551)
(0.0101087 0.000753308 0.00154129 0.000729286 -0.000340404 0.0018045)
(0.0102505 0.00131946 0.00160406 0.00097531 -0.000250939 0.00180605)
(0.0103933 0.00117587 0.000883722 0.00103298 -0.000431307 0.00157589)
(0.0130063 0.00130605 0.00106295 0.000969028 -0.000465204 0.00175297)
(0.0149497 0.00160258 0.00161588 0.000965866 -0.000505783 0.00176)
(0.0144568 0.0017853 0.00203954 0.0010495 -0.00028231 0.00159591)
(0.0146007 0.00202176 0.00202842 0.00120367 -0.000190718 0.00163611)
(0.0120495 0.00165631 0.00150687 0.00121782 -0.000115163 0.00160923)
(0.0125788 0.00140658 0.00188229 0.00106161 -0.00019487 0.00171655)
(0.0121148 0.00148889 0.00228937 0.000995492 -0.000180068 0.00154761)
(0.0123411 0.00165077 0.00260249 0.000925286 -4.9873e-05 0.00159087)
(0.0129285 0.00217752 0.00229441 0.00102734 -1.11867e-05 0.0018234)
(0.0128077 0.00174897 0.00221968 0.00102932 -0.000142383 0.00194522)
(0.0130581 0.00189064 0.00291875 0.000985437 -0.000197979 0.00233766)
(0.0122448 0.0018699 0.00287531 0.0010795 -0.000158677 0.00235214)
(0.0126613 0.00185084 0.00305589 0.00103636 -7.0624e-05 0.00228758)
(0.012994 0.00176553 0.00198709 0.00104229 -0.000225259 0.00189032)
(0.0143883 0.00115418 0.0020731 0.000833748 -0.000316112 0.00209278)
(0.0138201 0.00140664 0.00235279 0.000704868 -0.000353637 0.00199487)
(0.0116411 0.00144197 0.00249685 0.000659963 -0.00022582 0.00205076)
(0.0116543 0.00131329 0.0026651 0.000596818 -0.000186617 0.00207556)
(0.0101607 0.00120399 0.00139854 0.000572712 -0.000253638 0.00185698)
(0.00886975 0.000772328 0.000980189 0.000535866 -0.000358627 0.00204701)
(0.00985081 0.000922553 0.000890424 0.000547262 -0.000424443 0.00177918)
(0.0108592 0.00117685 0.000870679 0.000582283 -0.000346076 0.00167376)
(0.0129593 0.00107812 0.00132922 0.000660072 -0.000328914 0.00127681)
(0.0163907 0.0012406 0.00161109 0.000783968 -0.000191263 0.0013245)
(0.00740348 0.000638252 0.000548916 0.00114167 -0.000349365 0.000662993)
(0.00748928 0.00091999 0.000656786 0.00106805 -0.000456522 0.000578817)
(0.00633187 0.000871957 0.000889373 0.00105623 -0.000446355 0.000703925)
(0.00502713 0.000640237 0.000476792 0.00083823 -0.00039668 0.00059748)
(0.00450956 0.000783804 0.00030121 0.00076831 -0.000264681 0.000588521)
(0.00433633 0.000842778 0.000211396 0.000934767 -0.000239966 0.000618096)
(0.00654549 0.001005 0.000299202 0.000916564 -0.000448083 0.000507405)
(0.0087842 0.00116366 0.00109889 0.00106583 -0.000526202 0.000808979)
(0.0089232 0.00109841 0.00115089 0.000951308 -0.000493052 0.000879339)
(0.00862736 0.00126981 0.00105968 0.00087758 -0.000420378 0.000964812)
(0.00631901 0.000742506 0.00034287 0.000853834 -0.00049554 0.00082918)
(0.00724286 0.000515322 0.000426362 0.000686682 -0.000503389 0.000820235)
(0.00663158 0.00031319 0.000399906 0.000774286 -0.000515021 0.00081684)
(0.0064752 0.000435901 0.000465566 0.000767737 -0.00037571 0.000656021)
(0.00644939 0.00103241 0.000692732 0.000968949 -0.000281282 0.000718923)
(0.00530682 0.000882357 0.000230091 0.00107039 -0.000413977 0.000627204)