/*--------------------------------*- C++ -*----------------------------------*\
  =========                 |
  \\      /  F ield         | OpenFOAM: The Open Source CFD Toolbox
   \\    /   O peration     | Website:  https://openfoam.org
    \\  /    A nd           | Version:  10
     \\/     M anipulation  |
\*---------------------------------------------------------------------------*/
FoamFile
{
    format      ascii;
    class       volSymmTensorField;
    location    "10";
    object      UPrime2Mean;
}
// * * * * * * * * * * * * * * * * * * * * * * * * * * * * * * * * * * * * * //

dimensions      [0 2 -2 0 0 0 0];

internalField   nonuniform List<symmTensor> 
25600
(
(0.0113096 -0.00010621 -0.00360328 2.56665e-06 1.59873e-05 0.00208163)
(0.0111833 -0.000106567 -0.00338293 2.4136e-06 1.8508e-05 0.00188213)
(0.0109803 -9.81292e-05 -0.0032735 2.11357e-06 1.6592e-05 0.00187265)
(0.0109287 -9.89755e-05 -0.00328704 2.19424e-06 1.50309e-05 0.00194481)
(0.0112136 -0.000102525 -0.00349938 2.49692e-06 1.40907e-05 0.00208755)
(0.0113572 -0.000103914 -0.00351138 2.56616e-06 1.49169e-05 0.00202684)
(0.0111068 -0.000100706 -0.00334364 2.27034e-06 1.59745e-05 0.0019366)
(0.0109526 -9.49763e-05 -0.00324112 1.987e-06 1.58011e-05 0.00187226)
(0.0108477 -9.80877e-05 -0.00336192 2.20867e-06 1.49709e-05 0.00200676)
(0.0111641 -9.80678e-05 -0.00349662 2.37366e-06 1.42153e-05 0.00207442)
(0.0113009 -9.93436e-05 -0.00351776 2.44293e-06 1.49118e-05 0.00203162)
(0.0111657 -0.000100816 -0.00335216 2.19995e-06 1.63473e-05 0.00188295)
(0.0110143 -9.8097e-05 -0.00328196 2.05941e-06 1.65244e-05 0.00185088)
(0.0108814 -9.8201e-05 -0.00333897 2.15353e-06 1.64993e-05 0.00194733)
(0.0111945 -9.48304e-05 -0.00355761 2.3838e-06 1.44178e-05 0.00210776)
(0.0112981 -9.56621e-05 -0.0035119 2.40827e-06 1.44986e-05 0.00202578)
(0.0111331 -9.36924e-05 -0.00335867 2.16468e-06 1.32248e-05 0.00192681)
(0.0109872 -9.57022e-05 -0.00325044 2.13211e-06 1.74112e-05 0.00186594)
(0.0109679 -9.14331e-05 -0.00335325 2.17772e-06 1.50746e-05 0.00197369)
(0.0112961 -9.59669e-05 -0.00354133 2.52083e-06 1.57444e-05 0.00207495)
(0.0112481 -9.74266e-05 -0.00353964 2.55155e-06 1.43886e-05 0.00202195)
(0.0110168 -9.82648e-05 -0.00336703 2.2445e-06 1.64876e-05 0.00189283)
(0.0108693 -9.43964e-05 -0.00323472 2.0367e-06 1.60464e-05 0.00184944)
(0.0109463 -9.6656e-05 -0.00330719 2.16396e-06 1.59919e-05 0.00195705)
(0.0111613 -9.73899e-05 -0.00350642 2.50853e-06 1.28786e-05 0.00208724)
(0.0112602 -0.000101707 -0.00351442 2.62054e-06 1.39896e-05 0.00202452)
(0.0110088 -9.83324e-05 -0.00335393 2.33661e-06 1.29588e-05 0.00192999)
(0.010902 -9.3005e-05 -0.00323706 2.00846e-06 1.4723e-05 0.00186349)
(0.0109698 -9.70422e-05 -0.00337333 2.31577e-06 1.50515e-05 0.00199418)
(0.0111438 -9.95413e-05 -0.00350636 2.7603e-06 1.28778e-05 0.00209113)
(0.0111789 -0.000100436 -0.00347392 2.90162e-06 1.33374e-05 0.00201594)
(0.0110873 -0.000100065 -0.00331454 2.56167e-06 1.53021e-05 0.00188768)
(0.0109114 -9.64675e-05 -0.00319612 2.27714e-06 1.59814e-05 0.00186964)
(0.0108579 -0.000103229 -0.00329176 2.46379e-06 1.63637e-05 0.00196881)
(0.0110205 -0.000102056 -0.00345521 2.43579e-06 1.47266e-05 0.0020938)
(0.0111544 -9.75295e-05 -0.00343307 2.36585e-06 1.28657e-05 0.00199823)
(0.01103 -9.7601e-05 -0.00331045 2.27825e-06 1.47384e-05 0.00192132)
(0.0107748 -9.69363e-05 -0.00320297 2.13416e-06 1.57981e-05 0.00184887)
(0.0107391 -0.000103096 -0.00335317 2.34601e-06 1.55344e-05 0.00200875)
(0.0110735 -0.000104986 -0.00356861 2.49557e-06 1.55931e-05 0.00214439)
(0.0524361 0.00119964 -0.0186473 7.53271e-05 -0.000472164 0.00797185)
(0.051217 0.0012642 -0.0179203 7.30417e-05 -0.000485025 0.00732657)
(0.0509794 0.00119363 -0.0174604 6.80705e-05 -0.000450401 0.00699214)
(0.0517546 0.00110658 -0.0173093 6.60564e-05 -0.000419158 0.00700406)
(0.052395 0.00111562 -0.0180061 6.79613e-05 -0.000428983 0.00763387)
(0.0519315 0.00122596 -0.0181352 7.81853e-05 -0.000485413 0.00772008)
(0.0505394 0.00125789 -0.0177495 8.22458e-05 -0.00050153 0.00747753)
(0.0510542 0.00121189 -0.0171902 7.06243e-05 -0.000434171 0.00691077)
(0.0508618 0.00114462 -0.0174607 6.60502e-05 -0.000421079 0.00730838)
(0.0530733 0.00112096 -0.0181526 7.13728e-05 -0.000437385 0.0077139)
(0.0537414 0.00119445 -0.0185544 7.96128e-05 -0.000482129 0.00785622)
(0.0516389 0.00126008 -0.0177326 7.59502e-05 -0.000492216 0.00732053)
(0.0506653 0.00123013 -0.0173237 6.77294e-05 -0.00044862 0.00699499)
(0.0503841 0.00114538 -0.0172308 6.6222e-05 -0.000436698 0.00719877)
(0.0520673 0.00111108 -0.0179286 7.44942e-05 -0.00046393 0.00782855)
(0.0528148 0.00114328 -0.0180725 8.38859e-05 -0.000484534 0.00772774)
(0.0516976 0.00125449 -0.0176914 7.74471e-05 -0.000486266 0.00723292)
(0.05093 0.0012246 -0.017184 7.0534e-05 -0.000444768 0.00684682)
(0.0522345 0.00110577 -0.0174456 6.495e-05 -0.000421677 0.00712513)
(0.0534237 0.00111615 -0.0181409 6.93127e-05 -0.000457187 0.00772771)
(0.0532833 0.00116595 -0.0182613 7.69124e-05 -0.000489765 0.00772236)
(0.0511327 0.00121771 -0.0176896 7.47736e-05 -0.000492289 0.00738215)
(0.0508113 0.00115171 -0.0170723 7.0289e-05 -0.000455424 0.00688925)
(0.0526075 0.00106592 -0.0173221 6.75326e-05 -0.000433217 0.00715111)
(0.0534221 0.00105257 -0.0179679 7.10312e-05 -0.000448081 0.00772409)
(0.0526333 0.00117102 -0.0181762 7.51644e-05 -0.000501311 0.00788629)
(0.0505905 0.00125628 -0.0179429 7.73139e-05 -0.000523985 0.00769613)
(0.051328 0.00118461 -0.0172907 6.83137e-05 -0.000462041 0.00696865)
(0.0514583 0.00112974 -0.0174734 6.26636e-05 -0.000443355 0.00733912)
(0.052492 0.00109494 -0.01791 7.0568e-05 -0.000455661 0.00768902)
(0.0521897 0.00112645 -0.0181003 7.39513e-05 -0.00047159 0.00781604)
(0.051684 0.00120332 -0.0175587 7.3474e-05 -0.000485345 0.00723834)
(0.0518319 0.0011877 -0.0170752 6.76294e-05 -0.000449172 0.00683449)
(0.0520531 0.00111268 -0.017134 6.57647e-05 -0.000422493 0.0070972)
(0.0522723 0.00108889 -0.0176781 7.30361e-05 -0.000440356 0.00754253)
(0.0527194 0.00107681 -0.01781 7.76269e-05 -0.0004468 0.00744248)
(0.051974 0.0011956 -0.0176072 7.6424e-05 -0.000474347 0.00714859)
(0.0518313 0.00113151 -0.0168469 6.69091e-05 -0.000430752 0.00660115)
(0.0523047 0.0010711 -0.0174434 6.58036e-05 -0.00041016 0.00718601)
(0.0530324 0.00107453 -0.0181475 6.73621e-05 -0.000406855 0.00768722)
(0.0621321 0.00361497 -0.023926 0.000491695 -0.00167356 0.0114138)
(0.063302 0.00359611 -0.0235617 0.000483973 -0.00168663 0.0106008)
(0.0654441 0.0034142 -0.0236282 0.000461162 -0.00157276 0.0102748)
(0.065996 0.00340764 -0.0237901 0.000451485 -0.00152517 0.0104724)
(0.0641578 0.0034907 -0.0238438 0.000465882 -0.00163277 0.011092)
(0.0617608 0.00353815 -0.0230839 0.000515932 -0.00175531 0.0110572)
(0.0624261 0.00347957 -0.023048 0.000518053 -0.00172608 0.010752)
(0.0643356 0.00352179 -0.0228535 0.000453309 -0.00158297 0.0102382)
(0.063908 0.00348167 -0.0232172 0.000436876 -0.00153618 0.01091)
(0.0643296 0.0034342 -0.0237995 0.000467188 -0.00160274 0.0115709)
(0.0649901 0.00361692 -0.0243717 0.000506506 -0.00181731 0.0119145)
(0.0648359 0.00359648 -0.0230683 0.000494074 -0.00177704 0.0107807)
(0.0653067 0.00351198 -0.0229855 0.000449656 -0.00161287 0.0103796)
(0.0639004 0.00344615 -0.0230126 0.000441644 -0.00155344 0.0106968)
(0.0643727 0.00321754 -0.0233465 0.000494828 -0.00162667 0.011498)
(0.0637607 0.00333001 -0.0231749 0.000515693 -0.00179379 0.0115142)
(0.063809 0.00351184 -0.0227422 0.000497328 -0.00178236 0.010781)
(0.064775 0.00345402 -0.022364 0.000459833 -0.0016172 0.0102779)
(0.065972 0.00340373 -0.0233021 0.000446273 -0.00157115 0.0108438)
(0.0655122 0.00335294 -0.0239813 0.000474842 -0.00169842 0.0117734)
(0.0664937 0.00347907 -0.0240484 0.000492953 -0.00181605 0.0116918)
(0.06436 0.0035124 -0.0230549 0.000474732 -0.00176129 0.0108284)
(0.0653225 0.0033747 -0.0228778 0.000445624 -0.0016013 0.0101404)
(0.066677 0.00335277 -0.0240211 0.000444858 -0.00154047 0.0108087)
(0.0671224 0.00339311 -0.0243401 0.000460397 -0.00166655 0.0115986)
(0.065115 0.00350344 -0.023656 0.00049845 -0.00181319 0.0119934)
(0.0629174 0.00355338 -0.0232396 0.000487632 -0.00176559 0.0113435)
(0.0660699 0.00348454 -0.0230664 0.000440151 -0.00165424 0.0103756)
(0.0644792 0.00340768 -0.0229775 0.000441026 -0.0016074 0.0105651)
(0.0662216 0.0033021 -0.0241614 0.000469519 -0.00157558 0.0111748)
(0.0643893 0.00347267 -0.023739 0.00046382 -0.00169707 0.0114854)
(0.0634563 0.00351899 -0.0230475 0.000467526 -0.00166741 0.0106968)
(0.0652521 0.00349184 -0.0227524 0.000456633 -0.00157444 0.0100418)
(0.0654106 0.00342269 -0.023074 0.000451902 -0.00149581 0.0103334)
(0.0645898 0.00328785 -0.0237289 0.000490466 -0.00150676 0.0108277)
(0.0646412 0.00329674 -0.0238209 0.000485232 -0.00161357 0.0110609)
(0.0643453 0.00346134 -0.0232004 0.000496372 -0.0016853 0.0103694)
(0.0662828 0.00337627 -0.0227948 0.000457048 -0.00151776 0.00965548)
(0.0671717 0.00336978 -0.0234576 0.000461625 -0.00147747 0.0101817)
(0.0653221 0.00347022 -0.0239494 0.000466988 -0.00150549 0.0109974)
(0.0551553 0.0044927 -0.0220172 0.000799059 -0.00218444 0.010979)
(0.0594337 0.0043696 -0.0222801 0.000804589 -0.0021001 0.0104885)
(0.0609655 0.00441185 -0.022402 0.000788682 -0.00205809 0.0103646)
(0.0588705 0.00461159 -0.0222097 0.00078536 -0.0020923 0.010435)
(0.0559474 0.00466104 -0.0215179 0.000793186 -0.00218762 0.0107102)
(0.0567625 0.00441936 -0.0211309 0.000831649 -0.00222127 0.0107785)
(0.0590372 0.00415369 -0.0211046 0.000827261 -0.00218235 0.0103889)
(0.0581647 0.00441479 -0.0212535 0.000768532 -0.00212598 0.0102852)
(0.0570964 0.00451868 -0.0213645 0.000724175 -0.00205619 0.0105681)
(0.0571204 0.00445383 -0.0212606 0.000742951 -0.00212957 0.0111163)
(0.0593946 0.00438019 -0.0209787 0.00078934 -0.00228573 0.0116285)
(0.060036 0.00432249 -0.0206935 0.000792429 -0.00226733 0.0108685)
(0.0611962 0.00448227 -0.0211638 0.000737726 -0.00212596 0.0104147)
(0.0578633 0.00462257 -0.0213646 0.000713315 -0.00206565 0.0106844)
(0.0599139 0.00435801 -0.0212418 0.000752163 -0.00208513 0.010924)
(0.0595375 0.00419239 -0.0202068 0.00080014 -0.00226095 0.0113123)
(0.0595149 0.00419437 -0.0200109 0.000778846 -0.00222339 0.0106896)
(0.0605053 0.00420992 -0.0200894 0.000728348 -0.00215644 0.0107213)
(0.0597741 0.0043515 -0.0211197 0.000697681 -0.00208014 0.011187)
(0.0612316 0.00433372 -0.0218442 0.000740873 -0.00221261 0.0124692)
(0.0623811 0.00437544 -0.0214937 0.000777018 -0.0023179 0.011858)
(0.0604922 0.00438768 -0.0213732 0.000769973 -0.00231826 0.0111136)
(0.0601201 0.00438961 -0.0212157 0.000718341 -0.00216566 0.0103957)
(0.0582459 0.0046773 -0.0221384 0.000715833 -0.00218846 0.0113512)
(0.0579558 0.00474923 -0.0217625 0.00075675 -0.00227919 0.0120998)
(0.0592625 0.00458994 -0.0216796 0.000802556 -0.00231972 0.0126607)
(0.0580187 0.00434015 -0.0209507 0.000778356 -0.00226373 0.0114866)
(0.0606686 0.00439921 -0.0217861 0.000750608 -0.00221621 0.0107583)
(0.057453 0.00453733 -0.0216014 0.000737635 -0.00216612 0.0107351)
(0.0578284 0.00467185 -0.0225964 0.000747214 -0.00218612 0.0114761)
(0.0576572 0.0046368 -0.0215889 0.000783164 -0.00225849 0.0117281)
(0.058919 0.00427438 -0.0207995 0.000760674 -0.00217686 0.0110818)
(0.0587813 0.0043413 -0.0208481 0.00074449 -0.00213664 0.0104408)
(0.057342 0.00441813 -0.0213881 0.000718123 -0.00205797 0.0105644)
(0.0570977 0.0043849 -0.0225065 0.000739646 -0.00209074 0.0110755)
(0.0590622 0.00426324 -0.02201 0.000753146 -0.00217682 0.0109499)
(0.0611365 0.00411864 -0.0216931 0.000800511 -0.00217359 0.0105075)
(0.0604617 0.0042223 -0.0215501 0.00077499 -0.00201435 0.0100055)
(0.0590804 0.00437655 -0.0218708 0.000761529 -0.00198142 0.0102104)
(0.0563162 0.00449816 -0.0222179 0.00077709 -0.00209926 0.0110588)
(0.0468049 0.00519395 -0.01979 0.0012053 -0.00275347 0.011406)
(0.0490693 0.00506872 -0.0204336 0.00121535 -0.00270186 0.0110944)
(0.0493841 0.00518044 -0.0204156 0.00118243 -0.00263092 0.0106067)
(0.048698 0.00527093 -0.0202943 0.00120161 -0.00272254 0.0109352)
(0.0482113 0.0052702 -0.019741 0.00119354 -0.00284902 0.0114269)
(0.0489164 0.00506033 -0.0197991 0.00124835 -0.00292197 0.0115227)
(0.0496591 0.00484687 -0.0195608 0.00121089 -0.00279081 0.0108312)
(0.0476703 0.00509181 -0.0196639 0.00114944 -0.00274292 0.0108737)
(0.0495192 0.00507131 -0.0194959 0.00110011 -0.00266345 0.0108622)
(0.0503009 0.00513316 -0.0192722 0.0011271 -0.00280682 0.0116861)
(0.054536 0.00492429 -0.0189923 0.00115649 -0.00287035 0.0115854)
(0.0499921 0.00486271 -0.0191709 0.00116989 -0.00288515 0.0112248)
(0.0496871 0.00510884 -0.0194165 0.00110421 -0.00270553 0.0108185)
(0.0490034 0.0053203 -0.0196683 0.00110465 -0.00269283 0.0111918)
(0.051679 0.00512624 -0.0194634 0.00114138 -0.00274223 0.0114041)
(0.0541067 0.00489446 -0.0194437 0.00118743 -0.00290109 0.0116444)
(0.050328 0.00479079 -0.0187779 0.00112975 -0.00280687 0.0109691)
(0.0504959 0.00493385 -0.0190151 0.00107951 -0.0027617 0.0111571)
(0.0517761 0.00493282 -0.0195804 0.00104543 -0.00261791 0.0116337)
(0.054604 0.00496164 -0.0205528 0.00110704 -0.00278655 0.0126037)
(0.0554096 0.00494962 -0.0207807 0.00112771 -0.00288703 0.0121204)
(0.0524379 0.00503638 -0.0207241 0.00114205 -0.0029213 0.011467)
(0.0503433 0.00517188 -0.0203909 0.0010771 -0.00281375 0.0110714)
(0.0496432 0.00554304 -0.0198838 0.00108088 -0.00287142 0.0114741)
(0.0508635 0.0054558 -0.0199157 0.00110207 -0.002909 0.0120198)
(0.0520612 0.00525827 -0.0205239 0.00115142 -0.00296232 0.0120261)
(0.0495846 0.00501202 -0.0203204 0.00112125 -0.00286988 0.0114673)
(0.0493573 0.00517348 -0.0206647 0.00110694 -0.00284847 0.0112017)
(0.0485378 0.0054357 -0.0205416 0.00109649 -0.00288039 0.0115279)
(0.048283 0.00552833 -0.0202122 0.00111804 -0.00289299 0.0119227)
(0.0488346 0.00533299 -0.0196408 0.00114121 -0.0029086 0.0118069)
(0.0509327 0.00485965 -0.019176 0.00110637 -0.00279759 0.0111661)
(0.0485896 0.00499448 -0.019074 0.00110042 -0.00277722 0.010745)
(0.0481469 0.00515144 -0.0194958 0.00108915 -0.00272731 0.0110847)
(0.0485493 0.00529187 -0.0198487 0.00110557 -0.00275528 0.0116058)
(0.0499825 0.0049972 -0.0194339 0.00112627 -0.00277511 0.0117229)
(0.0520677 0.00463482 -0.0196213 0.00116538 -0.00275056 0.0111494)
(0.0502276 0.00489471 -0.0199823 0.00114231 -0.00260832 0.0105038)
(0.0492703 0.00509773 -0.0201267 0.00114389 -0.00257073 0.010601)
(0.0474013 0.00525364 -0.0200538 0.00117843 -0.00274639 0.0112872)
(0.0395364 0.00518127 -0.0161258 0.00150281 -0.00303842 0.0103784)
(0.0397768 0.00502259 -0.0167112 0.00152252 -0.00298845 0.00978922)
(0.0395142 0.00509042 -0.0170271 0.00149168 -0.00289486 0.0096879)
(0.0412334 0.00521241 -0.0166967 0.0015681 -0.00303599 0.00965775)
(0.041315 0.00521913 -0.0163095 0.00153286 -0.00316547 0.0102885)
(0.0416386 0.00518276 -0.0164616 0.00156277 -0.00318916 0.0101555)
(0.0406569 0.00491539 -0.0162468 0.00149137 -0.00303506 0.00964295)
(0.0403854 0.00505261 -0.0166986 0.00145771 -0.00300398 0.00988037)
(0.04382 0.00499307 -0.0166632 0.0014116 -0.00291422 0.00982165)
(0.0441205 0.00518509 -0.0171325 0.00144812 -0.00310108 0.0106611)
(0.0475147 0.00513285 -0.0168258 0.00144127 -0.00310848 0.010292)
(0.0417822 0.00501832 -0.0164368 0.00143738 -0.0031488 0.0102972)
(0.0398511 0.0051808 -0.0167372 0.00141484 -0.00298194 0.00988221)
(0.0416225 0.00533544 -0.0173747 0.0014583 -0.00305251 0.0103276)
(0.0436184 0.00522819 -0.0172659 0.00150258 -0.00309669 0.0105716)
(0.0462303 0.00528168 -0.017341 0.00150929 -0.00317027 0.0106629)
(0.0420846 0.00496933 -0.0164361 0.00140874 -0.00307786 0.0102947)
(0.0410035 0.0050961 -0.0169025 0.00137574 -0.00301107 0.0102779)
(0.0427367 0.00485481 -0.0177498 0.00138818 -0.00289196 0.010808)
(0.0450066 0.00512707 -0.01827 0.00146557 -0.00299434 0.0111269)
(0.0459977 0.00530568 -0.0180081 0.00143057 -0.00312905 0.0112488)
(0.044298 0.00539396 -0.0180003 0.0014177 -0.00321577 0.0108018)
(0.0406242 0.00549468 -0.0177786 0.00137645 -0.00313968 0.0104241)
(0.0416545 0.00577735 -0.0176151 0.00140589 -0.00321059 0.010626)
(0.0443214 0.00571494 -0.0177776 0.00141607 -0.00321536 0.0108985)
(0.0453097 0.00562672 -0.0174877 0.00146341 -0.00321515 0.010981)
(0.0410265 0.00530034 -0.0171416 0.0013897 -0.00314765 0.0107448)
(0.0388915 0.00543221 -0.017446 0.0013972 -0.00321061 0.0104651)
(0.0398244 0.00562599 -0.0172999 0.00142719 -0.00322 0.0105209)
(0.0414563 0.00571735 -0.0172374 0.0014347 -0.00321773 0.0108782)
(0.0412049 0.00562734 -0.0163151 0.00143548 -0.00315709 0.0105627)
(0.0419457 0.00516602 -0.0161905 0.00136673 -0.00308655 0.0104293)
(0.0393189 0.0051086 -0.0160508 0.00135648 -0.00304472 0.0099114)
(0.0397027 0.0053373 -0.0169351 0.00139138 -0.00303972 0.010514)
(0.0413231 0.00548323 -0.0169405 0.00139579 -0.00299087 0.010679)
(0.0425649 0.00514713 -0.0164592 0.00141848 -0.00303769 0.0107948)
(0.0426308 0.00469696 -0.0161584 0.0014205 -0.00300684 0.0100497)
(0.0405358 0.00493349 -0.0167139 0.0014014 -0.00293794 0.00984808)
(0.0397936 0.00515797 -0.016728 0.00143106 -0.00284062 0.00970401)
(0.0397173 0.00532479 -0.0165174 0.00148379 -0.00303186 0.0103676)
(0.0349006 0.0050714 -0.012983 0.0018091 -0.00309972 0.00905089)
(0.0325922 0.00484424 -0.0137144 0.00184775 -0.00307124 0.00855679)
(0.031716 0.00477803 -0.0138045 0.00189255 -0.00290371 0.00834178)
(0.0329386 0.00499368 -0.0139166 0.00202934 -0.00315113 0.00877887)
(0.0347893 0.00512494 -0.0135361 0.00194903 -0.00334428 0.00901405)
(0.035422 0.00523189 -0.0140163 0.0019062 -0.00335464 0.0092997)
(0.0334896 0.00501805 -0.0138554 0.00184562 -0.00316698 0.00849662)
(0.0332437 0.00491917 -0.0142834 0.00187241 -0.00313361 0.00888585)
(0.0363848 0.00483506 -0.0143381 0.00182796 -0.00298917 0.0085912)
(0.0369929 0.00494694 -0.0146826 0.00183535 -0.00321036 0.00933524)
(0.0413532 0.00516831 -0.01464 0.00176899 -0.00319828 0.0088139)
(0.0346001 0.0051411 -0.0140321 0.00175649 -0.00323137 0.00880166)
(0.0319448 0.00514007 -0.0144266 0.00179402 -0.00311716 0.00876072)
(0.0340295 0.00506915 -0.0145011 0.00190091 -0.00319094 0.00900791)
(0.0374061 0.00507232 -0.0144602 0.00192415 -0.00329208 0.00936548)
(0.039947 0.00524467 -0.0147448 0.00188343 -0.0033002 0.00941944)
(0.0362112 0.00507278 -0.0143507 0.00174712 -0.00319779 0.00924013)
(0.033009 0.00496534 -0.0145365 0.00176022 -0.00310694 0.00918423)
(0.035297 0.00464518 -0.0152278 0.00184754 -0.00301626 0.00972016)
(0.0387667 0.00473546 -0.0153885 0.00188741 -0.00308854 0.00984317)
(0.0401282 0.00511011 -0.0153794 0.00179202 -0.00320052 0.00968093)
(0.0377675 0.00549763 -0.0154783 0.0017543 -0.00334595 0.00945546)
(0.0341767 0.00545366 -0.01513 0.00173996 -0.00324731 0.00908794)
(0.0347262 0.005621 -0.0150255 0.00181376 -0.0033467 0.00942175)
(0.036621 0.00548903 -0.0147929 0.00181595 -0.00332753 0.00958845)
(0.0383716 0.00542788 -0.015053 0.00181168 -0.00328679 0.00969712)
(0.0345207 0.00522231 -0.0144 0.00171474 -0.0032166 0.00920883)
(0.0319673 0.00528213 -0.0144323 0.00174604 -0.00328181 0.00897048)
(0.0329013 0.00539591 -0.0142853 0.00180363 -0.00326536 0.00891502)
(0.034798 0.00554737 -0.0141518 0.00178446 -0.00329984 0.00925682)
(0.0358722 0.00564275 -0.0136271 0.00174788 -0.00323007 0.00910188)
(0.0343138 0.00528708 -0.0135142 0.00168151 -0.00315577 0.00870681)
(0.0329003 0.00509631 -0.0135938 0.00165491 -0.0031034 0.00849583)
(0.0332283 0.00518385 -0.0141443 0.00175146 -0.00313232 0.00887545)
(0.0353532 0.00538936 -0.0144811 0.00171185 -0.00306224 0.0090774)
(0.0381055 0.00523889 -0.0138068 0.00171207 -0.0030651 0.00901547)
(0.0348681 0.00477194 -0.0132736 0.00169292 -0.00301818 0.00837496)
(0.0324305 0.00479896 -0.0136361 0.00173799 -0.00298801 0.00832406)
(0.0317995 0.00495631 -0.0138488 0.00180817 -0.00295919 0.00853849)
(0.0334844 0.0052383 -0.0138243 0.00184658 -0.00320492 0.00926037)
(0.0306438 0.00470769 -0.0105086 0.00199881 -0.00285513 0.00754445)
(0.0257756 0.00427304 -0.0108976 0.00200202 -0.00275548 0.00715307)
(0.0241492 0.00395338 -0.0107215 0.00207513 -0.00261016 0.00716799)
(0.0257174 0.00416212 -0.0107344 0.00222349 -0.00282477 0.00722306)
(0.028466 0.00443108 -0.010761 0.0022551 -0.00311272 0.00758811)
(0.0301821 0.0049674 -0.0112845 0.00213566 -0.00308883 0.00765079)
(0.0262402 0.00453095 -0.0115118 0.00204676 -0.0029637 0.00753659)
(0.0263138 0.00418874 -0.0116588 0.00208409 -0.00286589 0.00746193)
(0.0285976 0.00404505 -0.0120463 0.00206223 -0.00277222 0.00757063)
(0.0311254 0.0041434 -0.0122791 0.00212637 -0.00287819 0.00770267)
(0.0359488 0.0047459 -0.0127017 0.00199126 -0.00297769 0.00766742)
(0.0295833 0.00487184 -0.0120356 0.00193436 -0.00293227 0.00731625)
(0.0269616 0.00454876 -0.0124036 0.00197973 -0.00283624 0.00767158)
(0.0289213 0.00439151 -0.0117948 0.00213219 -0.00286922 0.00745427)
(0.0314887 0.00431661 -0.0117064 0.00224499 -0.00300515 0.00784223)
(0.0356639 0.00458666 -0.0123038 0.00213975 -0.00294934 0.00768877)
(0.0305946 0.0044931 -0.0121152 0.00195464 -0.00283181 0.00760574)
(0.0278572 0.00413067 -0.0123191 0.00196463 -0.00274658 0.00774649)
(0.0284507 0.00372954 -0.0123169 0.00211569 -0.00265832 0.00792035)
(0.0343439 0.00384421 -0.0128496 0.00217798 -0.00273392 0.00794929)
(0.0356965 0.00458573 -0.01264 0.00201761 -0.00288954 0.00779114)
(0.0316254 0.00516704 -0.0127165 0.00196825 -0.00302568 0.00763762)
(0.0288443 0.00478491 -0.0126066 0.0019397 -0.00292361 0.00759449)
(0.0282743 0.00468985 -0.011997 0.00206936 -0.00298649 0.00769577)
(0.0297936 0.00457242 -0.0116944 0.00212332 -0.00300853 0.00780991)
(0.0312164 0.00480884 -0.0118031 0.0020476 -0.00291244 0.00763864)
(0.0276445 0.00469234 -0.0115393 0.00190864 -0.00287656 0.00743283)
(0.026208 0.00442668 -0.0116495 0.00191795 -0.00290817 0.00730791)
(0.0260954 0.00447936 -0.0112615 0.00203234 -0.00289282 0.00721217)
(0.0283235 0.00461736 -0.0111657 0.0020168 -0.00293192 0.0074366)
(0.0301358 0.00495531 -0.010869 0.00193697 -0.00289587 0.00731225)
(0.0275543 0.00480508 -0.0110587 0.00186456 -0.00280551 0.00700735)
(0.026951 0.00436215 -0.0112396 0.00181349 -0.00272353 0.00690198)
(0.0277955 0.00439551 -0.0113954 0.0019655 -0.00276184 0.00708813)
(0.0297955 0.00468758 -0.0117593 0.00191452 -0.0027717 0.00744282)
(0.033315 0.00493054 -0.0113057 0.00188909 -0.00276141 0.00720924)
(0.0282331 0.00451668 -0.0109478 0.00185419 -0.00267415 0.00697945)
(0.0259084 0.00413836 -0.011139 0.00191093 -0.00261079 0.00695644)
(0.0257816 0.00421813 -0.0111043 0.00203914 -0.00263289 0.00718743)
(0.0288609 0.00461871 -0.010998 0.00208954 -0.00294078 0.00755608)
(0.0268173 0.00412804 -0.00843016 0.00212325 -0.00242529 0.00632682)
(0.0222169 0.00360083 -0.00873941 0.00205728 -0.00229404 0.00599593)
(0.0235011 0.00323308 -0.00877773 0.00211013 -0.00225659 0.00580591)
(0.0240859 0.00332965 -0.00879775 0.00227603 -0.00236122 0.00616506)
(0.0254217 0.00361707 -0.00862331 0.00248418 -0.00261478 0.00638262)
(0.0256418 0.00435419 -0.00895251 0.0023027 -0.00259207 0.00656431)
(0.0239746 0.00394756 -0.00928635 0.00214231 -0.00244717 0.00645391)
(0.0253849 0.0034301 -0.00952038 0.00217478 -0.00236565 0.00623459)
(0.0257645 0.00323787 -0.00976845 0.0021795 -0.00229682 0.00634376)
(0.0275053 0.00329445 -0.0100687 0.0023161 -0.00232195 0.00629997)
(0.0318086 0.00422132 -0.0107249 0.00216513 -0.00246486 0.00631895)
(0.0276508 0.00448444 -0.0104168 0.00206547 -0.00243056 0.00608096)
(0.0254173 0.00399338 -0.0108362 0.00211641 -0.00232923 0.00648782)
(0.0259017 0.00361856 -0.0100065 0.00226878 -0.00226005 0.00617244)
(0.0276452 0.00340834 -0.00949399 0.00244181 -0.00236322 0.0060597)
(0.0325307 0.00378791 -0.0100799 0.00226411 -0.00233047 0.00615175)
(0.0279286 0.00371126 -0.0100937 0.0020374 -0.00217928 0.00612326)
(0.0248054 0.00328906 -0.0104 0.00208557 -0.00214161 0.00641239)
(0.0241407 0.00285558 -0.00993484 0.00227809 -0.00201688 0.00615764)
(0.0295306 0.00310112 -0.0103557 0.00239972 -0.00219494 0.00612107)
(0.0306802 0.00376745 -0.00972227 0.00216817 -0.00230761 0.0059268)
(0.0271503 0.00450523 -0.0100331 0.00206931 -0.00246512 0.00609414)
(0.0245574 0.00406219 -0.0102659 0.00204153 -0.00237553 0.00620595)
(0.0228059 0.00376791 -0.00941371 0.00222788 -0.00235456 0.00615786)
(0.0240085 0.00369039 -0.00889485 0.00234578 -0.00240711 0.00597297)
(0.0244393 0.0040131 -0.00859725 0.00217084 -0.002276 0.00584943)
(0.0225488 0.00395503 -0.0089208 0.00197929 -0.0022685 0.00580617)
(0.0217151 0.00366207 -0.00915385 0.00201659 -0.0022999 0.0056456)
(0.0215643 0.00367362 -0.00875935 0.00216172 -0.00224269 0.00549205)
(0.0239035 0.00389096 -0.00877501 0.00216934 -0.00227891 0.00556103)
(0.0254155 0.00428327 -0.00825551 0.00204398 -0.00229712 0.00559439)
(0.023371 0.00429978 -0.00857193 0.00195565 -0.00220615 0.00541599)
(0.0225783 0.00362776 -0.00894409 0.00189474 -0.00212192 0.00535836)
(0.0235292 0.00366991 -0.00904169 0.00208802 -0.00215529 0.00552355)
(0.025517 0.00394047 -0.00912575 0.00206406 -0.00221968 0.00578218)
(0.027613 0.0043239 -0.00879759 0.00199945 -0.00223475 0.00573728)
(0.0239877 0.00400213 -0.00860688 0.00193312 -0.00209021 0.00566223)
(0.0216252 0.00344777 -0.00921472 0.00197326 -0.00205404 0.00609846)
(0.0230883 0.00343761 -0.00903595 0.0021333 -0.00209504 0.0059342)
(0.0258986 0.00379292 -0.00877217 0.00225248 -0.00245545 0.00627309)
(0.0236314 0.00302959 -0.00696025 0.00200158 -0.001765 0.00599028)
(0.0227472 0.00286094 -0.00773199 0.00188463 -0.0015122 0.00528898)
(0.0283436 0.00277814 -0.00877719 0.00189132 -0.00150828 0.00534307)
(0.0237795 0.00244572 -0.0075879 0.00199962 -0.00150691 0.00544151)
(0.0230763 0.00242547 -0.00670019 0.00233494 -0.00187092 0.00562759)
(0.0233801 0.0033946 -0.00729573 0.00222408 -0.00186375 0.00586407)
(0.0257787 0.00343424 -0.00816933 0.00201764 -0.00164568 0.00562888)
(0.0261802 0.00286295 -0.00896535 0.00200559 -0.00160363 0.00564316)
(0.0235464 0.00238337 -0.00806256 0.00200776 -0.00153621 0.00532246)
(0.0249227 0.00229634 -0.00833269 0.00228353 -0.00166376 0.00534521)
(0.0291202 0.00327619 -0.00917086 0.00215355 -0.00178732 0.00539222)
(0.0272954 0.00387801 -0.00944003 0.00201438 -0.00174636 0.00528511)
(0.024779 0.00350939 -0.00967008 0.00204443 -0.00165453 0.00552642)
(0.0226326 0.00278063 -0.00861286 0.00214794 -0.00143862 0.00512651)
(0.0235542 0.00235818 -0.00801905 0.00243643 -0.00153012 0.00496765)
(0.0288476 0.00282961 -0.00853653 0.00220323 -0.00157967 0.00510309)
(0.0275759 0.00303802 -0.00912889 0.00191568 -0.00142665 0.00520176)
(0.0231494 0.00247161 -0.00900694 0.00195687 -0.00133679 0.00532182)
(0.0206685 0.001879 -0.00830201 0.0021568 -0.00116775 0.00511948)
(0.0243947 0.00205762 -0.00842211 0.0023564 -0.00135379 0.0049458)
(0.0272719 0.0026634 -0.00787984 0.00210327 -0.00152036 0.00483092)
(0.0246305 0.0036105 -0.00814568 0.00194922 -0.00164638 0.00492565)
(0.0217032 0.00321815 -0.008572 0.00190083 -0.00159065 0.00519389)
(0.0187518 0.00265292 -0.00751652 0.00204076 -0.00141808 0.00505152)
(0.0190887 0.00264493 -0.00676567 0.00221575 -0.00150873 0.00471714)
(0.0200311 0.00309105 -0.00636286 0.00201375 -0.00143504 0.00459975)
(0.0199501 0.00307812 -0.00718627 0.00183522 -0.00143674 0.00454881)
(0.0183159 0.00277743 -0.007378 0.00189079 -0.00142495 0.00443117)
(0.0179487 0.0027267 -0.00698308 0.00203204 -0.00134468 0.00434441)
(0.0196039 0.00307126 -0.00691146 0.00214073 -0.00145847 0.00437886)
(0.0218638 0.00350955 -0.00645101 0.00198101 -0.00150004 0.00441068)
(0.0211849 0.00367382 -0.00674491 0.00189235 -0.00139773 0.00435867)
(0.0194247 0.00285834 -0.0074816 0.00179909 -0.0013258 0.00451869)
(0.0194909 0.00280525 -0.0074018 0.00194562 -0.00134622 0.00471697)
(0.0210575 0.00292071 -0.00728467 0.00199856 -0.00141884 0.00481498)
(0.0227026 0.00333198 -0.00693562 0.00191839 -0.00143793 0.00477254)
(0.0210602 0.00310724 -0.00676103 0.0018197 -0.00125257 0.0047701)
(0.0189933 0.00259671 -0.00778693 0.00182557 -0.00123085 0.00544856)
(0.0215138 0.00247134 -0.00802894 0.00191723 -0.00129307 0.00567673)
(0.0230027 0.00263308 -0.00710056 0.00208438 -0.00165192 0.0056322)
(0.0236827 0.00234649 -0.00615498 0.0018013 -0.00116108 0.00557855)
(0.024894 0.0024976 -0.00750379 0.00166166 -0.000923408 0.00507491)
(0.0283268 0.00282871 -0.00900457 0.0016924 -0.000975837 0.00548077)
(0.0229966 0.00220654 -0.00715429 0.00174347 -0.000879387 0.00522257)
(0.0222711 0.00193168 -0.00581316 0.00214102 -0.00117808 0.00501725)
(0.0236802 0.0029775 -0.00642118 0.00206758 -0.00121124 0.00531826)
(0.0277819 0.00325849 -0.00768522 0.00189358 -0.00105818 0.00520777)
(0.024912 0.00274302 -0.00861265 0.00186572 -0.00104962 0.00544151)
(0.0210151 0.00192904 -0.00709813 0.00183378 -0.000912545 0.0047696)
(0.0228278 0.00178356 -0.00715655 0.00216699 -0.0010585 0.00463258)
(0.0278477 0.0026364 -0.0080759 0.00204911 -0.00123519 0.00472258)
(0.0286787 0.00354705 -0.00886658 0.00193715 -0.00126217 0.00477083)
(0.0246739 0.00335566 -0.00873331 0.00199841 -0.00122352 0.00491141)
(0.0201713 0.0021432 -0.00732252 0.00199197 -0.00087167 0.00450645)
(0.0208596 0.0016824 -0.00680164 0.00228097 -0.000893225 0.00422742)
(0.0261842 0.00239792 -0.00738379 0.00205214 -0.0010497 0.00424633)
(0.0266498 0.00292389 -0.00851965 0.00183933 -0.000989381 0.00459459)
(0.0230949 0.00238044 -0.00829265 0.00189848 -0.000865334 0.0047307)
(0.0184029 0.00140318 -0.00716392 0.00205672 -0.000582645 0.00452144)
(0.0216475 0.0016187 -0.00704403 0.0023084 -0.000744737 0.00404683)
(0.0260485 0.00231347 -0.00649206 0.0020188 -0.000921891 0.00369668)
(0.0237675 0.00315517 -0.00665543 0.00181918 -0.000990043 0.00391866)
(0.0204934 0.00285008 -0.00717568 0.00175418 -0.000985044 0.00440853)
(0.0171326 0.00201906 -0.00649229 0.00180548 -0.00072506 0.00450443)
(0.0165131 0.0021507 -0.0054049 0.00198186 -0.000802572 0.00387152)
(0.0185902 0.002727 -0.00494018 0.00181004 -0.000795604 0.00375084)
(0.0188426 0.00265656 -0.00602129 0.00166669 -0.000781938 0.00371307)
(0.0172694 0.00247612 -0.00659065 0.00173949 -0.000824985 0.00394852)
(0.0162056 0.00225285 -0.00600197 0.00182864 -0.000710756 0.00387036)
(0.0175002 0.00269826 -0.00578901 0.00201606 -0.000849225 0.00369524)
(0.0207587 0.00315923 -0.0055412 0.00188991 -0.000862098 0.00367062)