/*--------------------------------*- C++ -*----------------------------------*\
  =========                 |
  \\      /  F ield         | OpenFOAM: The Open Source CFD Toolbox
   \\    /   O peration     | Website:  https://openfoam.org
    \\  /    A nd           | Version:  10
     \\/     M anipulation  |
\*---------------------------------------------------------------------------*/
FoamFile
{
    format      ascii;
    class       volScalarField;
    location    "18";
    object      p;
}
// * * * * * * * * * * * * * * * * * * * * * * * * * * * * * * * * * * * * * //

dimensions      [0 2 -2 0 0 0 0];

internalField   nonuniform List<scalar> 
25600
(
-7.90518e-07
-8.17079e-07
-8.18373e-07
-7.61848e-07
-7.5519e-07
-6.26115e-07
-6.83992e-07
-5.8529e-07
-4.64969e-07
-5.61891e-07
-4.21433e-07
-3.9639e-07
-4.37909e-07
-4.0113e-07
-4.63928e-07
-4.37074e-07
-5.07736e-07
-5.08424e-07
-4.45653e-07
-5.44285e-07
-4.71662e-07
-4.38846e-07
-4.03298e-07
-4.60196e-07
-4.82664e-07
-3.44035e-07
-5.21374e-07
-4.90371e-07
-4.74427e-07
-6.46514e-07
-5.33914e-07
-6.7252e-07
-7.22403e-07
-6.27045e-07
-8.46577e-07
-7.96621e-07
-7.54811e-07
-8.40775e-07
-8.31991e-07
-8.85761e-07
-8.17851e-07
-9.00169e-07
-8.72765e-07
-8.0419e-07
-7.90757e-07
-6.40913e-07
-7.16809e-07
-5.5024e-07
-4.9175e-07
-5.77394e-07
-3.69521e-07
-4.45671e-07
-4.36872e-07
-4.18521e-07
-5.22302e-07
-4.616e-07
-5.59293e-07
-5.30026e-07
-4.52895e-07
-5.61293e-07
-4.73615e-07
-3.42132e-07
-3.48524e-07
-4.79613e-07
-3.39891e-07
-2.69358e-07
-5.00956e-07
-3.41553e-07
-4.3288e-07
-5.95935e-07
-4.01669e-07
-6.76767e-07
-6.79098e-07
-5.47675e-07
-9.07244e-07
-7.85585e-07
-7.35328e-07
-8.94104e-07
-9.01466e-07
-9.36279e-07
-8.42064e-07
-1.02881e-06
-9.05395e-07
-8.76447e-07
-8.20757e-07
-6.45975e-07
-7.70462e-07
-4.59667e-07
-5.5006e-07
-5.69783e-07
-2.70477e-07
-5.04501e-07
-3.88669e-07
-4.47952e-07
-5.61123e-07
-4.753e-07
-6.39385e-07
-5.32047e-07
-4.9167e-07
-6.01979e-07
-4.48748e-07
-2.16296e-07
-3.15658e-07
-5.08668e-07
-1.32203e-07
-2.21529e-07
-4.81942e-07
-1.43039e-07
-4.6461e-07
-5.17644e-07
-2.35278e-07
-7.37174e-07
-5.60495e-07
-5.03837e-07
-1.01622e-06
-6.89706e-07
-7.48653e-07
-9.63014e-07
-9.91408e-07
-9.93592e-07
-8.83053e-07
-1.1932e-06
-9.09022e-07
-1.01711e-06
-8.17233e-07
-6.45638e-07
-8.1e-07
-3.19308e-07
-6.68203e-07
-4.7627e-07
-1.45789e-07
-5.62333e-07
-2.79115e-07
-5.18717e-07
-5.62996e-07
-4.97508e-07
-7.29704e-07
-5.15302e-07
-5.84374e-07
-6.43041e-07
-3.9095e-07
-6.71179e-08
-3.54336e-07
-5.15009e-07
1.34563e-07
-2.7495e-07
-3.99483e-07
7.71883e-08
-6.11284e-07
-3.44181e-07
-9.34182e-08
-8.3735e-07
-3.39078e-07
-5.71875e-07
-1.12873e-06
-5.22721e-07
-8.32596e-07
-1.02496e-06
-1.09226e-06
-1.03998e-06
-9.82836e-07
-1.35905e-06
-8.93603e-07
-1.24205e-06
-7.58517e-07
-6.77441e-07
-7.98448e-07
-1.85017e-07
-8.5615e-07
-2.58722e-07
-7.2556e-08
-5.83345e-07
-1.26148e-07
-6.41364e-07
-4.97618e-07
-5.71906e-07
-7.94216e-07
-5.09654e-07
-7.40548e-07
-6.64996e-07
-3.09635e-07
9.57702e-08
-4.74684e-07
-4.36076e-07
4.41739e-07
-4.29609e-07
-1.61643e-07
2.4322e-07
-8.16372e-07
-1.54057e-08
-6.73582e-08
-9.09585e-07
-3.49899e-08
-8.11459e-07
-1.17266e-06
-3.21547e-07
-9.91409e-07
-1.05612e-06
-1.24805e-06
-1.05379e-06
-1.18056e-06
-1.4672e-06
-9.04122e-07
-1.53588e-06
-6.37302e-07
-7.67071e-07
-6.81554e-07
-8.7238e-08
-1.06633e-06
8.19327e-08
-1.07261e-07
-5.0049e-07
1.49507e-08
-7.94318e-07
-3.68839e-07
-7.11837e-07
-7.87087e-07
-5.73676e-07
-9.27193e-07
-6.52175e-07
-2.25934e-07
2.70443e-07
-6.8387e-07
-2.31002e-07
6.98629e-07
-6.35493e-07
2.81836e-07
2.4195e-07
-9.67278e-07
4.46994e-07
-1.96158e-07
-8.25267e-07
2.51535e-07
-1.19645e-06
-1.00341e-06
-1.83324e-07
-1.18371e-06
-1.05588e-06
-1.4675e-06
-1.02935e-06
-1.47003e-06
-1.47137e-06
-1.02916e-06
-1.83386e-06
-4.56966e-07
-9.12376e-07
-4.4169e-07
-1.19195e-07
-1.20302e-06
4.76263e-07
-2.48389e-07
-2.56878e-07
5.99701e-08
-9.21836e-07
-2.24286e-07
-9.01344e-07
-6.85096e-07
-8.08912e-07
-1.08906e-06
-6.27954e-07
-1.39861e-07
4.65643e-07
-9.64783e-07
9.82495e-08
8.20424e-07
-7.53999e-07
8.82559e-07
5.22846e-09
-9.18701e-07
9.26928e-07
-4.46747e-07
-5.20574e-07
3.53328e-07
-1.64919e-06
-6.60782e-07
-1.99935e-07
-1.36703e-06
-1.08969e-06
-1.74239e-06
-9.78649e-07
-1.78305e-06
-1.35881e-06
-1.33079e-06
-2.05884e-06
-2.63928e-07
-1.05288e-06
-9.34194e-08
-3.36248e-07
-1.1938e-06
8.3133e-07
-4.13802e-07
1.46399e-07
-5.48883e-08
-9.66299e-07
-1.36257e-07
-1.02909e-06
-5.17295e-07
-1.23854e-06
-1.16748e-06
-6.685e-07
-1.0006e-08
6.83874e-07
-1.27378e-06
5.01914e-07
7.57715e-07
-6.34603e-07
1.47717e-06
-4.4496e-07
-6.41044e-07
1.25415e-06
-6.82478e-07
-4.37539e-08
1.71055e-07
-2.0428e-06
-2.23387e-07
-3.70752e-07
-1.36824e-06
-1.18849e-06
-2.02361e-06
-9.46075e-07
-2.06755e-06
-1.17754e-06
-1.85241e-06
-2.18359e-06
-1.32672e-07
-1.07388e-06
3.23225e-07
-7.20908e-07
-1.05482e-06
1.04026e-06
-4.58023e-07
6.62525e-07
-3.33204e-07
-9.03635e-07
-1.60092e-07
-9.76283e-07
-3.74124e-07
-1.83638e-06
-1.16059e-06
-8.56457e-07
2.27511e-07
8.75695e-07
-1.56659e-06
8.82623e-07
5.38146e-07
-2.05377e-07
1.98166e-06
-9.57104e-07
-1.99345e-07
1.33014e-06
-6.76601e-07
4.77299e-07
-2.82273e-07
-2.25596e-06
1.58342e-07
-6.05085e-07
-1.20973e-06
-1.41989e-06
-2.24805e-06
-9.77493e-07
-2.18464e-06
-9.94433e-07
-2.55169e-06
-2.25841e-06
-1.04401e-07
-8.89822e-07
7.40443e-07
-1.19214e-06
-8.4623e-07
1.05814e-06
-2.84945e-07
1.17518e-06
-7.47514e-07
-7.85069e-07
-2.96915e-07
-6.76831e-07
-3.43176e-07
-2.5062e-06
-1.0979e-06
-1.18141e-06
6.20501e-07
9.541e-07
-1.82596e-06
1.18547e-06
3.01586e-07
5.23467e-07
2.26784e-06
-1.34703e-06
2.69547e-07
1.21951e-06
-3.21743e-07
8.70199e-07
-8.87438e-07
-2.40132e-06
4.14476e-07
-7.39732e-07
-9.54973e-07
-1.77929e-06
-2.37923e-06
-1.10831e-06
-2.14785e-06
-8.72972e-07
-3.36639e-06
-2.39814e-06
-1.74235e-07
-4.67854e-07
1.07947e-06
-1.67672e-06
-6.77753e-07
9.3949e-07
1.15607e-07
1.53807e-06
-1.16412e-06
-6.71034e-07
-4.61176e-07
-1.27235e-07
-4.84513e-07
-3.12829e-06
-9.76531e-07
-1.54607e-06
1.16079e-06
8.1898e-07
-2.0676e-06
1.33375e-06
1.93207e-07
1.43549e-06
2.32669e-06
-1.60195e-06
5.6044e-07
1.12374e-06
3.22728e-07
1.07802e-06
-1.51056e-06
-2.46376e-06
5.16626e-07
-6.64462e-07
-6.97814e-07
-2.21977e-06
-2.52948e-06
-1.33758e-06
-1.9439e-06
-8.36089e-07
-4.27972e-06
-2.77864e-06
-2.69263e-07
1.82893e-07
1.33504e-06
-2.1365e-06
-6.38978e-07
8.56469e-07
6.96277e-07
1.73659e-06
-1.54729e-06
-6.21899e-07
-5.5042e-07
6.35241e-07
-7.57974e-07
-3.70821e-06
-1.08676e-06
-1.84274e-06
1.81049e-06
7.21384e-07
-2.33073e-06
1.33072e-06
3.0752e-07
2.46224e-06
2.29194e-06
-1.77665e-06
6.2418e-07
1.18182e-06
1.10118e-06
1.1737e-06
-2.12792e-06
-2.653e-06
6.46591e-07
-3.78373e-07
-4.85009e-07
-2.69535e-06
-2.74221e-06
-1.63462e-06
-1.60849e-06
-8.4681e-07
-5.3611e-06
-3.59997e-06
-3.36256e-07
1.03671e-06
1.57756e-06
-2.66539e-06
-7.40639e-07
7.96765e-07
1.37149e-06
1.85738e-06
-1.96176e-06
-6.19932e-07
-5.02927e-07
1.56398e-06
-1.07617e-06
-4.29485e-06
-1.35327e-06
-2.02649e-06
2.5222e-06
5.06625e-07
-2.68255e-06
1.23943e-06
6.55357e-07
3.56889e-06
2.31148e-06
-2.02153e-06
4.64127e-07
1.42522e-06
1.72895e-06
1.24306e-06
-2.79236e-06
-2.99814e-06
8.09826e-07
3.38003e-08
-3.08223e-07
-3.1822e-06
-2.95844e-06
-1.96227e-06
-1.16118e-06
-8.94756e-07
-6.71355e-06
-5.01649e-06
-3.3752e-07
2.09978e-06
1.87344e-06
-3.34395e-06
-7.66905e-07
7.65553e-07
2.07387e-06
1.95032e-06
-2.45373e-06
-5.57631e-07
-2.97523e-07
2.61775e-06
-1.38242e-06
-4.99375e-06
-1.83127e-06
-2.10772e-06
3.28951e-06
4.48948e-07
-3.26838e-06
1.12185e-06
1.20659e-06
4.80862e-06
2.53122e-06
-2.40835e-06
8.88074e-08
1.83917e-06
2.80804e-06
1.39416e-06
-3.62833e-06
-3.59953e-06
1.02646e-06
3.74809e-07
-1.47666e-07
-3.68149e-06
-3.47949e-06
-2.31754e-06
-6.19296e-07
-8.89447e-07
-8.39799e-06
-7.10257e-06
-2.91971e-07
3.37243e-06
2.23596e-06
-4.23753e-06
-1.44896e-06
6.82605e-07
2.76245e-06
2.04129e-06
-3.10528e-06
-2.26681e-07
3.05989e-08
3.80977e-06
-1.646e-06
-5.84879e-06
-2.88669e-06
-2.1381e-06
4.14596e-06
4.83697e-07
-4.22995e-06
9.90694e-07
1.9066e-06
6.22925e-06
2.95475e-06
-3.04945e-06
-5.09949e-07
2.32806e-06
3.96838e-06
1.66295e-06
-4.73863e-06
-4.76611e-06
1.26861e-06
8.62133e-07
-9.16292e-08
-4.24417e-06
-4.22861e-06
-2.72011e-06
1.73315e-07
-8.88208e-07
-1.04793e-05
-9.4212e-06
-3.15943e-07
4.91558e-06
2.72696e-06
-5.37896e-06
-2.05289e-06
4.15764e-07
3.39241e-06
2.09272e-06
-4.01758e-06
-5.59484e-07
3.66146e-07
5.14814e-06
-1.97887e-06
-6.94347e-06
-3.97835e-06
-2.19084e-06
5.15272e-06
4.95738e-07
-5.60203e-06
4.09212e-07
2.66447e-06
7.84904e-06
3.47081e-06
-4.03778e-06
-1.38644e-06
2.78116e-06
5.32942e-06
1.98664e-06
-6.16514e-06
-5.79009e-06
1.43653e-06
1.56016e-06
-3.4976e-07
-4.93769e-06
-5.37344e-06
-3.24472e-06
1.0234e-06
-1.15889e-06
-1.31075e-05
-1.28399e-05
-6.96265e-07
6.67229e-06
3.07862e-06
-6.95634e-06
-3.31869e-06
-3.77336e-07
3.80999e-06
1.88331e-06
-5.15377e-06
-9.95371e-07
4.53749e-07
6.51045e-06
-2.60504e-06
-8.32688e-06
-6.04947e-06
-2.48254e-06
6.3086e-06
1.67868e-07
-7.48675e-06
-4.80599e-07
3.31233e-06
9.59005e-06
3.94036e-06
-5.49317e-06
-2.57149e-06
2.85639e-06
6.90001e-06
2.2371e-06
-8.05478e-06
-8.26115e-06
1.27369e-06
2.44461e-06
3.18963e-07
-5.90609e-06
-7.14252e-06
-4.29016e-06
1.62674e-06
-1.87235e-06
-1.62452e-05
-1.19741e-05
-2.08741e-06
8.40041e-06
3.0705e-06
-8.92674e-06
-5.12004e-06
-2.46976e-06
3.65726e-06
1.46179e-06
-6.3988e-06
-1.23719e-06
-3.51693e-07
7.49736e-06
-3.36713e-06
-9.8252e-06
-2.78311e-06
-3.52805e-06
7.35941e-06
-5.08749e-07
-9.78238e-06
-1.64105e-06
3.2968e-06
1.11597e-05
4.12551e-06
-7.3684e-06
-2.90183e-06
1.85119e-06
8.54083e-06
2.08991e-06
-1.02964e-05
-7.38274e-06
1.42778e-07
3.29581e-06
4.73701e-07
-7.23812e-06
-8.33352e-06
-6.6357e-06
2.06254e-06
-3.42999e-06
-1.90752e-05
-1.21917e-05
-4.7264e-06
1.0321e-05
2.44501e-06
-1.05488e-05
-6.01466e-06
-5.88609e-06
3.12995e-06
9.85918e-07
-7.15507e-06
-1.22815e-06
-2.30886e-06
8.07392e-06
-4.33756e-06
-1.09113e-05
-3.96103e-06
-5.64514e-06
8.2907e-06
-1.7159e-06
-1.17856e-05
-1.19534e-06
2.30678e-06
1.24377e-05
3.80005e-06
-9.04665e-06
-3.52994e-06
-4.69516e-07
1.00279e-05
1.23113e-06
-1.21587e-05
-7.75793e-06
-2.13931e-06
3.81964e-06
4.22278e-08
-8.36055e-06
-9.60418e-06
-1.03897e-05
1.54033e-06
-5.13303e-06
-2.03374e-05
-1.81991e-05
-7.58886e-06
1.01254e-05
1.97367e-06
-1.11114e-05
-7.52827e-06
-9.27951e-06
3.13514e-06
1.00291e-06
-7.28873e-06
-2.55668e-06
-4.56455e-06
8.47188e-06
-4.87149e-06
-1.11502e-05
-5.9482e-06
-7.89058e-06
7.27714e-06
-2.78104e-06
-1.28106e-05
-1.67366e-06
7.97706e-07
1.39411e-05
3.50722e-06
-9.82441e-06
-6.55598e-06
-2.92357e-06
9.70225e-06
4.61371e-07
-1.28165e-05
-9.37141e-06
-4.63994e-06
3.46143e-06
-3.94658e-07
-8.58588e-06
-1.19353e-05
-1.39302e-05
1.62089e-06
-5.95837e-06
-2.18574e-05
-1.98631e-05
-9.00948e-06
9.72923e-06
2.16883e-06
-1.17967e-05
-9.46252e-06
-1.08981e-05
3.64352e-06
1.56854e-06
-7.77609e-06
-5.09122e-06
-5.5482e-06
9.00588e-06
-4.69381e-06
-1.16163e-05
-8.15737e-06
-8.81284e-06
6.74058e-06
-3.16271e-06
-1.34479e-05
-2.91125e-06
1.52013e-07
1.38567e-05
3.73147e-06
-1.05509e-05
-8.91703e-06
-3.80154e-06
9.94194e-06
4.50499e-07
-1.38852e-05
-1.12738e-05
-5.70306e-06
3.83366e-06
-4.01704e-07
-9.00928e-06
-1.48837e-05
-1.53229e-05
2.1785e-06
-5.92567e-06
-2.21866e-05
-2.10294e-05
-8.66363e-06
9.88954e-06
2.71521e-06
-1.16944e-05
-1.06693e-05
-1.0569e-05
4.68178e-06
2.15452e-06
-7.56209e-06
-6.58953e-06
-5.01143e-06
9.79973e-06
-4.13735e-06
-1.16617e-05
-9.53255e-06
-8.23636e-06
6.73135e-06
-2.9328e-06
-1.31659e-05
-3.82155e-06
1.46946e-06
1.39788e-05
4.37152e-06
-1.05819e-05
-1.04608e-05
-2.86285e-06
1.07338e-05
9.20794e-07
-1.40527e-05
-1.24754e-05
-5.23402e-06
4.63767e-06
-1.42482e-07
-9.04775e-06
-1.67901e-05
-1.46807e-05
2.90884e-06
-5.90816e-06
-2.23011e-05
-2.11677e-05
-7.88709e-06
1.02063e-05
2.84664e-06
-1.15841e-05
-1.07229e-05
-9.53909e-06
5.65542e-06
2.28464e-06
-7.6357e-06
-7.06021e-06
-4.00271e-06
1.0561e-05
-3.84427e-06
-1.17823e-05
-9.75931e-06
-7.27413e-06
6.96335e-06
-2.75354e-06
-1.29614e-05
-4.02544e-06
1.70099e-06
1.42599e-05
4.73324e-06
-1.06168e-05
-1.08033e-05
-1.64283e-06
1.16429e-05
1.02765e-06
-1.4075e-05
-1.26081e-05
-4.30385e-06
5.40935e-06
-2.99397e-07
-9.25886e-06
-1.74163e-05
-1.33162e-05
3.31752e-06
-5.92902e-06
-2.22195e-05
-2.06322e-05
-6.86503e-06
1.02906e-05
2.34735e-06
-1.13504e-05
-1.00142e-05
-8.25236e-06
6.23975e-06
1.88255e-06
-7.72649e-06
-6.80172e-06
-2.8466e-06
1.09976e-05
-4.06088e-06
-1.17921e-05
-9.31101e-06
-6.1876e-06
7.1043e-06
-2.94383e-06
-1.27741e-05
-3.73042e-06
2.22688e-06
1.44164e-05
4.43103e-06
-1.04821e-05
-1.03929e-05
-3.54604e-07
1.22247e-05
9.04615e-07
-1.38755e-05
-1.2085e-05
-3.25277e-06
5.841e-06
-9.51652e-08
-9.37704e-06
-1.73441e-05
-1.17552e-05
3.24873e-06
-6.17893e-06
-2.20208e-05
-1.99492e-05
-5.9286e-06
1.0052e-05
1.84681e-06
-1.09978e-05
-9.30216e-06
-7.09356e-06
6.43068e-06
1.3938e-06
-7.73313e-06
-6.12776e-06
-1.82295e-06
1.10539e-05
-4.34395e-06
-1.16986e-05
-8.609e-06
-5.27243e-06
7.00964e-06
-3.21079e-06
-1.2556e-05
-3.32003e-06
2.78023e-06
1.43033e-05
3.9232e-06
-1.01878e-05
-9.53439e-06
7.06358e-07
1.23604e-05
5.29155e-07
-1.35118e-05
-1.14544e-05
-2.38475e-06
5.90517e-06
-2.4038e-07
-9.37591e-06
-1.62545e-05
-1.04234e-05
3.13494e-06
-6.54672e-06
-2.15415e-05
-1.91564e-05
-5.20071e-06
9.60166e-06
1.25142e-06
-1.07208e-05
-8.61091e-06
-6.19802e-06
6.40572e-06
8.55227e-07
-7.71935e-06
-5.49376e-06
-1.05038e-06
1.08697e-05
-4.75111e-06
-1.15019e-05
-7.98868e-06
-4.63102e-06
6.86254e-06
-3.58213e-06
-1.22838e-05
-2.87408e-06
3.23127e-06
1.39692e-05
3.32919e-06
-1.00716e-05
-8.74491e-06
1.44942e-06
1.22188e-05
4.54918e-08
-1.32828e-05
-1.0811e-05
-1.7776e-06
5.73885e-06
-5.76056e-07
-9.40848e-06
-1.53141e-05
-9.4894e-06
2.76255e-06
-7.02724e-06
-2.12928e-05
-1.84955e-05
-4.67338e-06
9.07797e-06
5.99087e-07
-1.06567e-05
-8.1074e-06
-5.55183e-06
6.30536e-06
3.00678e-07
-7.72929e-06
-5.00864e-06
-5.22427e-07
1.06557e-05
-5.24366e-06
-1.14387e-05
-7.55756e-06
-4.226e-06
6.53458e-06
-4.02366e-06
-1.21509e-05
-2.50817e-06
3.55716e-06
1.35219e-05
2.71928e-06
-1.00421e-05
-8.14486e-06
1.92228e-06
1.17687e-05
-5.08051e-07
-1.31886e-05
-1.03191e-05
-1.38539e-06
5.55535e-06
-1.01709e-06
-9.54457e-06
-1.46489e-05
-8.92509e-06
2.28956e-06
-7.64214e-06
-2.12956e-05
-1.80268e-05
-4.30066e-06
8.56094e-06
-1.02152e-07
-1.07417e-05
-7.82969e-06
-5.09593e-06
6.10899e-06
-2.71232e-07
-7.83426e-06
-4.70119e-06
-1.84343e-07
1.02975e-05
-5.80494e-06
-1.15526e-05
-7.33773e-06
-3.98028e-06
6.14606e-06
-4.52954e-06
-1.21876e-05
-2.26052e-06
3.78091e-06
1.30835e-05
2.08452e-06
-1.02873e-05
-7.76157e-06
2.22283e-06
1.12568e-05
-1.11599e-06
-1.32695e-05
-1.0011e-05
-1.13149e-06
5.26618e-06
-1.54965e-06
-9.80686e-06
-1.42748e-05
-8.62299e-06
1.79565e-06
-8.3529e-06
-2.15094e-05
-1.77634e-05
-4.05415e-06
8.0911e-06
-8.2644e-07
-1.10019e-05
-7.7654e-06
-4.79235e-06
5.90342e-06
-8.28485e-07
-8.02836e-06
-4.56763e-06
1.80399e-08
9.91766e-06
-6.40163e-06
-1.17417e-05
-7.31e-06
-3.88061e-06
5.75171e-06
-5.0747e-06
-1.2306e-05
-2.14474e-06
3.9258e-06
1.27685e-05
1.44638e-06
-1.05865e-05
-7.58474e-06
2.41352e-06
1.07782e-05
-1.76443e-06
-1.34966e-05
-9.88209e-06
-9.70172e-07
4.95984e-06
-2.1309e-06
-1.01654e-05
-1.41662e-05
-8.4954e-06
1.32406e-06
-9.1088e-06
-2.19004e-05
-1.76884e-05
-3.91939e-06
7.69487e-06
-1.53913e-06
-1.14125e-05
-7.87894e-06
-4.62531e-06
5.72495e-06
-1.35182e-06
-8.29892e-06
-4.59219e-06
1.17581e-07
9.58462e-06
-6.99771e-06
-1.2041e-05
-7.44057e-06
-3.87186e-06
5.37967e-06
-5.63233e-06
-1.25232e-05
-2.16026e-06
4.00377e-06
1.24899e-05
8.33816e-07
-1.09567e-05
-7.59385e-06
2.52102e-06
1.03784e-05
-2.41357e-06
-1.38444e-05
-9.91918e-06
-8.82752e-07
4.61085e-06
-2.71631e-06
-1.05953e-05
-1.42825e-05
-8.49377e-06
9.01381e-07
-9.87358e-06
-2.2441e-05
-1.78249e-05
-3.87989e-06
7.38589e-06
-2.22278e-06
-1.19403e-05
-8.15339e-06
-4.5811e-06
5.58832e-06
-1.83327e-06
-8.63573e-06
-4.74952e-06
1.38827e-07
9.33339e-06
-7.5751e-06
-1.24309e-05
-7.68886e-06
-3.9336e-06
5.049e-06
-6.18742e-06
-1.28341e-05
-2.29313e-06
4.02539e-06
1.2267e-05
2.63187e-07
-1.13845e-05
-7.75916e-06
2.56214e-06
1.00655e-05
-3.03964e-06
-1.42944e-05
-1.01012e-05
-8.55571e-07
4.33637e-06
-3.27942e-06
-1.10791e-05
-1.45719e-05
-8.58715e-06
5.61483e-07
-1.05803e-05
-2.30394e-05
-1.80878e-05
-3.89514e-06
7.17222e-06
-2.83363e-06
-1.24948e-05
-8.50969e-06
-4.61983e-06
5.49929e-06
-2.25163e-06
-8.9877e-06
-4.96778e-06
1.23547e-07
9.17895e-06
-8.09484e-06
-1.28418e-05
-7.99115e-06
-4.03154e-06
4.77682e-06
-6.7021e-06
-1.31832e-05
-2.48359e-06
4.01709e-06
1.21151e-05
-2.32239e-07
-1.18201e-05
-7.99761e-06
2.56771e-06
9.80659e-06
-3.60172e-06
-1.4776e-05
-1.03571e-05
-8.549e-07
4.1484e-06
-3.77546e-06
-1.15478e-05
-1.49051e-05
-8.71889e-06
-7.83603e-07
-8.3215e-07
-8.22702e-07
-7.55835e-07
-7.53741e-07
-6.27981e-07
-6.94291e-07
-5.92783e-07
-4.70371e-07
-5.66537e-07
-4.24035e-07
-4.0396e-07
-4.43441e-07
-4.02073e-07
-4.56359e-07
-4.33483e-07
-5.10567e-07
-4.97809e-07
-4.3327e-07
-5.33659e-07
-4.5865e-07
-4.49349e-07
-4.064e-07
-4.45732e-07
-4.75821e-07
-3.43263e-07
-5.23884e-07
-4.96004e-07
-4.68598e-07
-6.27256e-07
-5.4083e-07
-6.9161e-07
-7.2597e-07
-6.17437e-07
-8.44541e-07
-7.94358e-07
-7.47884e-07
-8.4515e-07
-8.26893e-07
-8.64512e-07
-8.23103e-07
-9.18891e-07
-8.71113e-07
-7.93681e-07
-7.80393e-07
-6.37721e-07
-7.29712e-07
-5.50642e-07
-4.91938e-07
-5.80229e-07
-3.76896e-07
-4.73627e-07
-4.46327e-07
-4.10411e-07
-5.14467e-07
-4.66517e-07
-5.63455e-07
-5.12046e-07
-4.3187e-07
-5.42296e-07
-4.64413e-07
-3.69306e-07
-3.47974e-07
-4.48272e-07
-3.31059e-07
-2.68309e-07
-4.98905e-07
-3.44374e-07
-4.18592e-07
-5.86042e-07
-4.40653e-07
-7.1594e-07
-6.78723e-07
-5.44745e-07
-9.19081e-07
-7.87906e-07
-7.36493e-07
-9.0459e-07
-8.90178e-07
-9.1733e-07
-8.76561e-07
-1.05516e-06
-8.89364e-07
-8.49253e-07
-7.96501e-07
-6.56956e-07
-7.96604e-07
-4.49482e-07
-5.4362e-07
-5.65077e-07
-2.95427e-07
-5.6477e-07
-3.91374e-07
-4.22209e-07
-5.51728e-07
-4.93791e-07
-6.47298e-07
-4.989e-07
-4.45171e-07
-5.76183e-07
-4.5996e-07
-2.79572e-07
-3.05259e-07
-4.48465e-07
-1.19478e-07
-2.24734e-07
-4.77694e-07
-1.31653e-07
-4.14812e-07
-5.10067e-07
-3.24938e-07
-8.10883e-07
-5.50755e-07
-4.98051e-07
-1.04408e-06
-7.19842e-07
-7.71509e-07
-9.7818e-07
-9.48688e-07
-9.74117e-07
-9.72708e-07
-1.22345e-06
-8.69428e-07
-9.47526e-07
-7.77768e-07
-6.8273e-07
-8.53479e-07
-2.94576e-07
-6.41998e-07
-4.62341e-07
-2.10686e-07
-6.4601e-07
-2.50934e-07
-4.65305e-07
-5.46567e-07
-5.41347e-07
-7.38244e-07
-4.51642e-07
-4.93548e-07
-6.21755e-07
-4.60655e-07
-1.67636e-07
-3.13745e-07
-4.16397e-07
1.51797e-07
-2.88292e-07
-3.92076e-07
1.16578e-07
-4.72691e-07
-3.45429e-07
-2.78158e-07
-9.52748e-07
-3.12481e-07
-5.56191e-07
-1.17199e-06
-5.76218e-07
-8.84333e-07
-1.03e-06
-1.00338e-06
-1.02221e-06
-1.16341e-06
-1.39396e-06
-8.24257e-07
-1.10475e-06
-7.13333e-07
-8.07721e-07
-8.51191e-07
-1.08064e-07
-7.7876e-07
-2.44013e-07
-2.21654e-07
-6.73059e-07
-5.51553e-08
-5.35618e-07
-4.70457e-07
-6.64552e-07
-7.98266e-07
-3.9269e-07
-5.80711e-07
-6.42007e-07
-4.8475e-07
-3.24162e-08
-3.8064e-07
-2.82038e-07
4.60943e-07
-4.70166e-07
-1.70257e-07
3.36293e-07
-5.62515e-07
-5.86322e-08
-3.82785e-07
-1.07196e-06
2.50388e-08
-7.62195e-07
-1.20798e-06
-4.15635e-07
-1.08158e-06
-1.0094e-06
-1.06913e-06
-1.05486e-06
-1.46628e-06
-1.5047e-06
-7.93711e-07
-1.30994e-06
-5.87503e-07
-1.04512e-06
-7.38768e-07
3.09354e-08
-8.70443e-07
1.08894e-07
-3.72997e-07
-5.60676e-07
1.37328e-07
-5.97129e-07
-3.26422e-07
-8.88579e-07
-7.81442e-07
-3.87444e-07
-6.69079e-07
-6.33763e-07
-5.38096e-07
1.09572e-07
-5.1277e-07
1.72014e-08
7.24433e-07
-7.26477e-07
2.03166e-07
4.07284e-07
-6.20164e-07
3.22219e-07
-6.66462e-07
-1.07143e-06
3.74928e-07
-1.08451e-06
-1.04991e-06
-3.44982e-07
-1.33636e-06
-8.97288e-07
-1.16303e-06
-1.06915e-06
-1.91759e-06
-1.51354e-06
-8.37463e-07
-1.51281e-06
-4.29682e-07
-1.41504e-06
-5.03855e-07
5.99715e-08
-8.01403e-07
5.03445e-07
-6.70048e-07
-2.88404e-07
2.46137e-07
-5.39702e-07
-1.62021e-07
-1.19153e-06
-6.71448e-07
-5.02968e-07
-6.69848e-07
-6.36826e-07
-6.3702e-07
2.27193e-07
-6.88345e-07
5.08433e-07
8.51334e-07
-9.39209e-07
7.04959e-07
2.69541e-07
-4.88943e-07
6.85347e-07
-1.11124e-06
-7.7842e-07
5.95294e-07
-1.44709e-06
-7.10965e-07
-4.90349e-07
-1.48921e-06
-7.0853e-07
-1.27831e-06
-1.07792e-06
-2.58985e-06
-1.42325e-06
-1.00801e-06
-1.63429e-06
-2.9938e-07
-1.83239e-06
-1.70277e-07
-3.22641e-08
-4.77666e-07
8.48267e-07
-1.02079e-06
1.16424e-07
2.18892e-07
-2.64567e-07
-5.6772e-08
-1.5019e-06
-4.86822e-07
-7.3882e-07
-4.89476e-07
-7.36377e-07
-7.69172e-07
2.8828e-07
-8.39317e-07
1.17257e-06
7.83752e-07
-9.81447e-07
1.27637e-06
-1.05679e-08
-8.66421e-08
8.67874e-07
-1.59398e-06
-2.82767e-07
6.15618e-07
-1.65421e-06
-2.86019e-07
-8.69244e-07
-1.49573e-06
-5.08623e-07
-1.36149e-06
-1.12047e-06
-3.30116e-06
-1.26446e-06
-1.36475e-06
-1.63028e-06
-2.77869e-07
-2.24225e-06
2.00515e-07
-2.09197e-07
1.08463e-07
1.01678e-06
-1.30637e-06
5.97458e-07
1.12888e-07
2.22784e-07
-1.07113e-07
-1.71582e-06
-3.34412e-07
-1.02715e-06
-1.05233e-07
-9.81696e-07
-8.93044e-07
3.27476e-07
-8.76811e-07
1.96412e-06
5.50865e-07
-8.29899e-07
1.67432e-06
-2.77862e-07
5.58858e-07
7.85994e-07
-1.97891e-06
2.78626e-07
4.58769e-07
-1.53997e-06
5.14842e-08
-1.42316e-06
-1.32251e-06
-3.69189e-07
-1.34412e-06
-1.25786e-06
-4.03232e-06
-1.10177e-06
-1.83641e-06
-1.50484e-06
-4.43475e-07
-2.58357e-06
5.7449e-07
-3.05105e-07
9.21107e-07
9.61857e-07
-1.46317e-06
1.02076e-06
5.74645e-08
8.8362e-07
-3.31298e-07
-1.79976e-06
-2.96737e-07
-1.20995e-06
4.68903e-07
-1.40895e-06
-9.98585e-07
3.00317e-07
-7.42896e-07
2.75641e-06
2.63609e-07
-5.41834e-07
1.83748e-06
-3.492e-07
1.31833e-06
4.81504e-07
-2.20882e-06
7.15308e-07
2.71603e-07
-1.04574e-06
1.94832e-07
-2.02698e-06
-1.01825e-06
-3.0642e-07
-1.22064e-06
-1.56168e-06
-4.69027e-06
-9.90271e-07
-2.29087e-06
-1.29737e-06
-8.14702e-07
-2.84165e-06
8.89325e-07
-1.99245e-07
1.87931e-06
6.94034e-07
-1.48627e-06
1.33956e-06
1.81357e-07
1.62041e-06
-6.49325e-07
-1.77658e-06
-4.34569e-07
-1.1745e-06
1.12097e-06
-1.97222e-06
-1.10204e-06
2.72194e-07
-4.32049e-07
3.50566e-06
3.30215e-08
-2.07314e-07
1.76803e-06
-1.38162e-07
2.01396e-06
8.00597e-08
-2.32464e-06
9.56499e-07
2.43654e-07
-4.43164e-07
1.38938e-07
-2.57171e-06
-6.64923e-07
-2.69605e-07
-9.08537e-07
-2.06213e-06
-5.32322e-06
-9.47921e-07
-2.63687e-06
-1.07841e-06
-1.3165e-06
-3.03418e-06
1.14269e-06
1.66986e-07
2.88235e-06
2.9308e-07
-1.51466e-06
1.53481e-06
5.19113e-07
2.354e-06
-9.90859e-07
-1.73054e-06
-7.21285e-07
-9.24073e-07
1.72605e-06
-2.58259e-06
-1.25619e-06
1.47473e-07
1.97508e-08
4.18168e-06
-6.64815e-08
7.21135e-08
1.71903e-06
3.07396e-07
2.55462e-06
-3.00682e-07
-2.41506e-06
1.06258e-06
4.35409e-07
1.54595e-07
-3.87949e-08
-3.0293e-06
-2.91173e-07
-9.50541e-08
-5.39181e-07
-2.73819e-06
-5.89951e-06
-9.38351e-07
-2.8247e-06
-8.98306e-07
-1.87242e-06
-3.17839e-06
1.38337e-06
7.89663e-07
3.83662e-06
-1.3108e-07
-1.59749e-06
1.62471e-06
1.03275e-06
3.00765e-06
-1.19146e-06
-1.70249e-06
-1.06704e-06
-5.12097e-07
2.19149e-06
-3.17059e-06
-1.4882e-06
1.18154e-07
5.58916e-07
4.7645e-06
-4.34008e-08
2.70461e-07
1.77263e-06
9.33798e-07
2.92078e-06
-6.09604e-07
-2.50433e-06
1.17931e-06
8.33739e-07
8.60592e-07
-2.50303e-07
-3.40079e-06
2.99129e-08
1.96122e-07
-1.68421e-07
-3.5413e-06
-6.39532e-06
-8.9648e-07
-2.82918e-06
-7.89203e-07
-2.43047e-06
-3.17895e-06
1.67811e-06
1.64753e-06
4.6265e-06
-5.97773e-07
-1.76466e-06
1.68151e-06
1.68626e-06
3.5304e-06
-1.25992e-06
-1.67777e-06
-1.40502e-06
-3.4643e-08
2.54847e-06
-3.75055e-06
-1.79064e-06
1.18354e-07
1.15136e-06
5.24966e-06
7.34182e-08
3.62862e-07
1.9508e-06
1.63732e-06
3.15205e-06
-8.37968e-07
-2.5352e-06
1.40283e-06
1.32428e-06
1.40516e-06
-5.05306e-07
-3.70875e-06
4.29086e-07
5.94409e-07
1.29277e-07
-4.43315e-06
-6.7687e-06
-7.52879e-07
-2.70658e-06
-7.19605e-07
-3.00468e-06
-2.97523e-06
2.09144e-06
2.7336e-06
5.1434e-06
-1.14651e-06
-2.03467e-06
1.73811e-06
2.50729e-06
3.89138e-06
-1.21061e-06
-1.62698e-06
-1.70141e-06
4.64443e-07
2.82605e-06
-4.34026e-06
-2.12209e-06
2.07891e-07
1.83047e-06
5.76624e-06
2.39709e-07
4.16849e-07
2.20097e-06
2.37828e-06
3.25092e-06
-1.0185e-06
-2.52142e-06
1.80912e-06
1.87505e-06
1.83561e-06
-7.99002e-07
-3.92972e-06
1.05751e-06
1.12254e-06
3.38902e-07
-5.38809e-06
-6.80594e-06
-3.28163e-07
-2.45265e-06
-8.96938e-07
-3.70988e-06
-2.66872e-06
2.74036e-06
4.07173e-06
4.78132e-06
-1.86269e-06
-2.26761e-06
1.84291e-06
3.41772e-06
4.44279e-06
-1.06654e-06
-1.4903e-06
-1.84025e-06
1.04415e-06
3.02071e-06
-4.98365e-06
-2.40241e-06
4.41391e-07
2.41832e-06
6.30746e-06
3.92514e-07
5.14972e-07
2.65288e-06
3.1854e-06
3.22104e-06
-1.22141e-06
-2.30922e-06
2.49171e-06
2.5279e-06
1.50948e-06
-1.22861e-06
-3.96003e-06
2.2628e-06
1.84594e-06
4.81234e-07
-6.4442e-06
-6.64742e-06
9.98618e-07
-2.047e-06
-1.98605e-06
-4.90061e-06
-2.33431e-06
3.84794e-06
5.85124e-06
4.99391e-06
-2.69368e-06
-2.60535e-06
2.17416e-06
4.54957e-06
5.10988e-06
-1.03809e-06
-1.19216e-06
-1.4575e-06
1.89269e-06
4.06549e-06
-5.84032e-06
-2.49375e-06
1.03878e-06
3.14706e-06
6.93396e-06
3.54152e-07
8.38566e-07
3.51048e-06
4.0697e-06
3.14493e-06
-1.63965e-06
-1.79811e-06
3.63034e-06
3.44186e-06
1.91294e-06
-1.78325e-06
-3.80105e-06
2.73116e-06
2.71826e-06
6.55953e-07
-7.94197e-06
-6.11079e-06
3.00858e-06
-1.26991e-06
-4.08213e-06
-6.50606e-06
-1.95897e-06
5.71821e-06
8.29409e-06
5.39396e-06
-3.86643e-06
-3.02259e-06
2.89205e-06
6.30448e-06
5.8749e-06
-1.07239e-06
-7.15903e-07
-6.381e-07
3.18563e-06
2.9599e-06
-6.86061e-06
-2.34838e-06
2.07457e-06
4.19254e-06
7.6095e-06
2.33497e-07
1.426e-06
4.97344e-06
5.44076e-06
3.08145e-06
-2.2035e-06
-8.76725e-07
5.51083e-06
4.91491e-06
9.01554e-07
-2.62267e-06
-3.37276e-06
4.15696e-06
4.26196e-06
-6.93723e-07
-9.85339e-06
-4.45469e-06
6.22653e-06
-1.21054e-07
-6.90747e-06
-8.50048e-06
-1.0426e-06
8.85816e-06
1.12675e-05
4.58544e-06
-5.34643e-06
-3.08723e-06
4.61956e-06
9.06028e-06
5.69514e-06
-1.18512e-06
3.65897e-07
1.32763e-06
5.26451e-06
1.41949e-06
-7.89147e-06
-1.56853e-06
4.03302e-06
6.00332e-06
7.02376e-06
9.09233e-08
2.58049e-06
7.42287e-06
7.13103e-06
1.95775e-06
-2.79968e-06
8.05961e-07
8.50809e-06
6.95221e-06
-6.55912e-07
-3.66434e-06
-2.2524e-06
6.87716e-06
6.31598e-06
-2.88802e-06
-1.19634e-05
-1.26938e-06
1.06633e-05
7.03217e-07
-1.08818e-05
-9.93086e-06
9.83254e-07
1.31147e-05
1.38255e-05
2.47092e-06
-6.27846e-06
-2.04207e-06
7.52386e-06
1.14842e-05
4.37434e-06
-8.19511e-07
2.41147e-06
4.34761e-06
7.02507e-06
-1.00168e-06
-8.31525e-06
1.11793e-07
6.87012e-06
7.71582e-06
5.78528e-06
2.18923e-07
4.38031e-06
1.07136e-05
8.18089e-06
-3.78704e-07
-2.94878e-06
3.39406e-06
1.23402e-05
8.73905e-06
-3.11052e-06
-4.19504e-06
-9.82497e-08
1.06341e-05
7.87831e-06
-6.5436e-06
-1.29762e-05
2.60331e-06
1.36284e-05
-3.03829e-07
-1.42421e-05
-1.01929e-05
4.20663e-06
1.6596e-05
1.41236e-05
3.19745e-07
-6.16945e-06
3.19735e-07
9.84711e-06
1.22565e-05
2.87969e-06
3.80185e-07
5.70042e-06
6.60851e-06
6.9953e-06
-3.05525e-06
-7.88851e-06
2.42774e-06
8.97827e-06
7.87727e-06
4.58376e-06
7.58659e-07
7.60163e-06
1.32812e-05
7.29302e-06
-2.64893e-06
-2.40112e-06
6.70989e-06
1.52145e-05
8.04188e-06
-5.29828e-06
-3.78213e-06
2.79492e-06
1.36242e-05
6.84426e-06
-9.80819e-06
-1.2344e-05
5.20501e-06
1.43675e-05
-3.09104e-06
-1.62432e-05
-9.69458e-06
6.50026e-06
1.80463e-05
1.24935e-05
-7.74948e-07
-5.27031e-06
2.17082e-06
1.0531e-05
1.08847e-05
2.24476e-06
1.97965e-06
7.92404e-06
7.26861e-06
4.33251e-06
-4.10209e-06
-7.05365e-06
3.84429e-06
9.60591e-06
6.44003e-06
4.02387e-06
1.36272e-06
9.72755e-06
1.41008e-05
5.17746e-06
-3.97581e-06
-1.46423e-06
9.01236e-06
1.62266e-05
5.28288e-06
-6.43423e-06
-2.65431e-06
4.99843e-06
1.48944e-05
4.1086e-06
-1.1599e-05
-1.08059e-05
6.20293e-06
1.39187e-05
-5.19769e-06
-1.69136e-05
-8.94582e-06
7.4856e-06
1.80574e-05
1.09766e-05
-7.52671e-07
-4.2408e-06
2.9547e-06
1.01322e-05
9.50023e-06
2.43197e-06
3.30548e-06
8.82274e-06
7.05496e-06
2.49006e-06
-4.3383e-06
-6.24983e-06
4.23145e-06
9.31874e-06
5.07058e-06
4.05999e-06
2.48056e-06
1.06272e-05
1.37949e-05
3.48204e-06
-4.36453e-06
-5.95479e-07
9.87258e-06
1.60049e-05
3.12022e-06
-6.55925e-06
-1.41576e-06
5.99047e-06
1.51055e-05
2.01124e-06
-1.20468e-05
-9.39604e-06
6.20328e-06
1.29012e-05
-6.22723e-06
-1.68865e-05
-8.36495e-06
7.52139e-06
1.74694e-05
1.02146e-05
-2.94095e-07
-3.382e-06
2.98686e-06
9.84156e-06
8.79215e-06
2.79842e-06
4.2187e-06
8.89556e-06
6.59134e-06
1.59901e-06
-4.24939e-06
-5.65189e-06
4.05393e-06
9.01866e-06
4.37351e-06
4.26759e-06
3.00115e-06
1.07208e-05
1.31644e-05
2.59856e-06
-4.34706e-06
-2.14112e-08
9.81017e-06
1.52741e-05
1.94693e-06
-6.302e-06
-5.11657e-07
6.15918e-06
1.41993e-05
8.59045e-07
-1.19783e-05
-8.32353e-06
5.98659e-06
1.21749e-05
-6.43937e-06
-1.65305e-05
-8.02299e-06
7.40364e-06
1.68836e-05
9.9719e-06
2.82608e-07
-2.79981e-06
2.97017e-06
9.66838e-06
8.5536e-06
3.08664e-06
4.70587e-06
8.84756e-06
6.22131e-06
1.33472e-06
-3.95408e-06
-5.28572e-06
3.95322e-06
8.72551e-06
4.17969e-06
4.45363e-06
3.32504e-06
1.06773e-05
1.27426e-05
2.28146e-06
-4.12691e-06
2.72752e-07
9.59895e-06
1.48298e-05
1.47889e-06
-5.89579e-06
1.94294e-08
6.16304e-06
1.35983e-05
3.70284e-07
-1.16833e-05
-7.62309e-06
5.91158e-06
1.17458e-05
-6.62633e-06
-1.60627e-05
-7.64525e-06
7.47137e-06
1.66176e-05
9.94545e-06
8.27591e-07
-2.27597e-06
3.14088e-06
9.72798e-06
8.50461e-06
3.39128e-06
5.22557e-06
8.92273e-06
6.11016e-06
1.22468e-06
-3.59928e-06
-4.80617e-06
4.05239e-06
8.62174e-06
4.09571e-06
4.66951e-06
3.66195e-06
1.07838e-05
1.25636e-05
2.35493e-06
-3.85725e-06
7.13648e-07
9.58753e-06
1.46902e-05
1.4486e-06
-5.49432e-06
5.8681e-07
6.31243e-06
1.3278e-05
1.67154e-07
-1.1322e-05
-6.95789e-06
5.96729e-06
1.15188e-05
-6.63091e-06
-1.55244e-05
-7.06102e-06
7.74969e-06
1.65642e-05
1.00295e-05
1.3458e-06
-1.59315e-06
3.50519e-06
9.93478e-06
8.57824e-06
3.74651e-06
5.7642e-06
9.15276e-06
6.15765e-06
1.2669e-06
-3.19758e-06