/*--------------------------------*- C++ -*----------------------------------*\
  =========                 |
  \\      /  F ield         | OpenFOAM: The Open Source CFD Toolbox
   \\    /   O peration     | Website:  https://openfoam.org
    \\  /    A nd           | Version:  10
     \\/     M anipulation  |
\*---------------------------------------------------------------------------*/
FoamFile
{
    format      ascii;
    class       volScalarField;
    location    "18";
    object      pPrime2Mean;
}
// * * * * * * * * * * * * * * * * * * * * * * * * * * * * * * * * * * * * * //

dimensions      [0 4 -4 0 0 0 0];

internalField   nonuniform List<scalar> 
25600
(
1.37705e-09
8.89313e-10
8.92054e-10
8.60718e-10
6.98944e-10
6.79749e-10
6.75725e-10
7.24934e-10
8.08054e-10
9.0884e-10
1.00406e-09
1.07252e-09
1.1083e-09
1.12621e-09
1.1536e-09
1.21397e-09
1.309e-09
1.41822e-09
1.50824e-09
1.54974e-09
1.52831e-09
1.44552e-09
1.31634e-09
1.16229e-09
1.00696e-09
8.71994e-10
7.72385e-10
7.14259e-10
6.94824e-10
7.03569e-10
7.25729e-10
7.45322e-10
7.51461e-10
7.41731e-10
7.34665e-10
6.93692e-10
7.40869e-10
5.961e-10
4.56516e-10
1.05165e-09
1.43201e-09
1.0877e-09
1.15445e-09
1.13929e-09
9.49561e-10
9.19798e-10
9.18839e-10
9.89027e-10
1.10337e-09
1.22906e-09
1.32154e-09
1.34169e-09
1.28621e-09
1.19356e-09
1.12741e-09
1.1385e-09
1.22952e-09
1.3601e-09
1.46914e-09
1.51332e-09
1.48337e-09
1.39443e-09
1.27255e-09
1.13862e-09
1.00916e-09
8.97663e-10
8.09653e-10
7.45516e-10
7.01803e-10
6.75035e-10
6.63505e-10
6.61812e-10
6.64293e-10
6.68308e-10
6.87594e-10
6.84634e-10
7.63261e-10
6.80476e-10
6.24834e-10
1.19253e-09
1.581e-09
1.31447e-09
1.4393e-09
1.42628e-09
1.19851e-09
1.15795e-09
1.1746e-09
1.29854e-09
1.49243e-09
1.69449e-09
1.82111e-09
1.79449e-09
1.61142e-09
1.34892e-09
1.13488e-09
1.06924e-09
1.15765e-09
1.32587e-09
1.46443e-09
1.50894e-09
1.46195e-09
1.36055e-09
1.24867e-09
1.14577e-09
1.06077e-09
1.00037e-09
9.56055e-10
9.15213e-10
8.65369e-10
8.07482e-10
7.58941e-10
7.28397e-10
7.15408e-10
7.15786e-10
7.37346e-10
7.43777e-10
8.23069e-10
7.7426e-10
7.82916e-10
1.35812e-09
1.86326e-09
1.6292e-09
1.76661e-09
1.71251e-09
1.4196e-09
1.36031e-09
1.40417e-09
1.61607e-09
1.94972e-09
2.30267e-09
2.52837e-09
2.47298e-09
2.1245e-09
1.61543e-09
1.17982e-09
1.00283e-09
1.09288e-09
1.32142e-09
1.49728e-09
1.5283e-09
1.44397e-09
1.31717e-09
1.2195e-09
1.16384e-09
1.1482e-09
1.17431e-09
1.21139e-09
1.22429e-09
1.17869e-09
1.07808e-09
9.75531e-10
9.02256e-10
8.64058e-10
8.51968e-10
8.60632e-10
8.57021e-10
9.14312e-10
8.77316e-10
9.34234e-10
1.56787e-09
2.27773e-09
2.06079e-09
2.15077e-09
1.98974e-09
1.59224e-09
1.50344e-09
1.57946e-09
1.91282e-09
2.45755e-09
3.06245e-09
3.48742e-09
3.44097e-09
2.88483e-09
2.02731e-09
1.27072e-09
9.38357e-10
1.03996e-09
1.3626e-09
1.57962e-09
1.56882e-09
1.41373e-09
1.24168e-09
1.16393e-09
1.17646e-09
1.26135e-09
1.4203e-09
1.58694e-09
1.69158e-09
1.65605e-09
1.48243e-09
1.29269e-09
1.15636e-09
1.08514e-09
1.05865e-09
1.04512e-09
1.01977e-09
1.04275e-09
9.96683e-10
1.0973e-09
1.84066e-09
2.85616e-09
2.64397e-09
2.60149e-09
2.24895e-09
1.70448e-09
1.58013e-09
1.68744e-09
2.17e-09
3.00449e-09
3.99205e-09
4.76111e-09
4.78568e-09
3.97261e-09
2.63018e-09
1.4184e-09
8.76647e-10
1.0118e-09
1.48013e-09
1.73695e-09
1.63277e-09
1.36021e-09
1.11794e-09
1.06676e-09
1.17123e-09
1.3931e-09
1.74278e-09
2.10266e-09
2.34995e-09
2.32793e-09
2.02661e-09
1.69753e-09
1.47126e-09
1.36276e-09
1.32808e-09
1.28478e-09
1.2281e-09
1.21692e-09
1.14418e-09
1.28473e-09
2.19815e-09
3.64861e-09
3.42101e-09
3.12654e-09
2.48278e-09
1.75692e-09
1.60375e-09
1.73255e-09
2.37911e-09
3.58367e-09
5.11724e-09
6.43157e-09
6.62149e-09
5.49197e-09
3.48478e-09
1.63914e-09
8.20882e-10
1.02224e-09
1.70744e-09
1.99208e-09
1.72728e-09
1.27944e-09
9.412e-10
9.22119e-10
1.14056e-09
1.53991e-09
2.1524e-09
2.78502e-09
3.24413e-09
3.23877e-09
2.72436e-09
2.18262e-09
1.83581e-09
1.68966e-09
1.66227e-09
1.57786e-09
1.4738e-09
1.44498e-09
1.33243e-09
1.50199e-09
2.6632e-09
4.71111e-09
4.44081e-09
3.73396e-09
2.68934e-09
1.76671e-09
1.60989e-09
1.73599e-09
2.54096e-09
4.19109e-09
6.46905e-09
8.59777e-09
9.08958e-09
7.57063e-09
4.66438e-09
1.94933e-09
7.77746e-10
1.10246e-09
2.10952e-09
2.39492e-09
1.86125e-09
1.17758e-09
7.27698e-10
7.37936e-10
1.08249e-09
1.70294e-09
2.66443e-09
3.66679e-09
4.42866e-09
4.44472e-09
3.59528e-09
2.74263e-09
2.24387e-09
2.06624e-09
2.07391e-09
1.9283e-09
1.74241e-09
1.73357e-09
1.57953e-09
1.75122e-09
3.25452e-09
6.0939e-09
5.75809e-09
4.4373e-09
2.87531e-09
1.77063e-09
1.65409e-09
1.73164e-09
2.66339e-09
4.82406e-09
8.08124e-09
1.1384e-08
1.23603e-08
1.03636e-08
6.25883e-09
2.36314e-09
7.57602e-10
1.29499e-09
2.77471e-09
3.00134e-09
2.05364e-09
1.07752e-09
5.22356e-10
5.40551e-10
1.00147e-09
1.88803e-09
3.29504e-09
4.78739e-09
5.96484e-09
6.01021e-09
4.66877e-09
3.37518e-09
2.69741e-09
2.50022e-09
2.58417e-09
2.34851e-09
2.01267e-09
2.08484e-09
1.91429e-09
2.03288e-09
3.97431e-09
7.83109e-09
7.43314e-09
5.25999e-09
3.05697e-09
1.82827e-09
1.80545e-09
1.75577e-09
2.75014e-09
5.48129e-09
9.98489e-09
1.49245e-08
1.66314e-08
1.40572e-08
8.37806e-09
2.89968e-09
7.77541e-10
1.6677e-09
3.83086e-09
3.89982e-09
2.33478e-09
1.02105e-09
4.07725e-10
3.7746e-10
9.1036e-10
2.10895e-09
4.06393e-09
6.19763e-09
7.91835e-09
8.00434e-09
5.99178e-09
4.08223e-09
3.20879e-09
3.00747e-09
3.22301e-09
2.86533e-09
2.25861e-09
2.49483e-09
2.37874e-09
2.34427e-09
4.8035e-09
9.93187e-09
9.53114e-09
6.24065e-09
3.25905e-09
2.02755e-09
2.13863e-09
1.8553e-09
2.82434e-09
6.16282e-09
1.21742e-08
1.93671e-08
2.21241e-08
1.88771e-08
1.11519e-08
3.57598e-09
8.62e-10
2.32253e-09
5.45706e-09
5.20827e-09
2.74109e-09
1.07694e-09
5.07738e-10
3.20577e-10
8.34891e-10
2.38892e-09
4.9958e-09
7.96513e-09
1.0355e-08
1.04903e-08
7.63566e-09
4.8714e-09
3.80305e-09
3.61039e-09
4.02629e-09
3.52653e-09
2.45148e-09
2.95614e-09
3.03296e-09
2.68359e-09
5.68523e-09
1.2375e-08
1.21227e-08
7.44003e-09
3.5111e-09
2.49121e-09
2.72725e-09
2.05953e-09
2.88756e-09
6.87242e-09
1.46795e-08
2.48616e-08
2.90778e-08
2.51012e-08
1.47329e-08
4.41256e-09
1.03912e-09
3.40512e-09
7.89336e-09
7.06811e-09
3.31844e-09
1.34826e-09
9.91519e-10
4.65406e-10
8.21323e-10
2.76103e-09
6.1251e-09
1.01863e-08
1.33367e-08
1.35204e-08
9.71269e-09
5.76028e-09
4.51875e-09
4.33335e-09
5.02733e-09
4.39964e-09
2.60303e-09
3.47138e-09
3.95685e-09
3.06062e-09
6.52359e-09
1.51009e-08
1.52816e-08
8.94898e-09
3.84529e-09
3.38612e-09
3.63964e-09
2.39013e-09
2.94549e-09
7.6208e-09
1.74548e-08
3.15303e-08
3.77463e-08
3.30679e-08
1.92894e-08
5.4403e-09
1.33112e-09
5.12107e-09
1.14422e-08
9.67586e-09
4.11818e-09
1.99401e-09
2.06892e-09
9.26474e-10
9.47918e-10
3.26543e-09
7.51488e-09
1.29919e-08
1.69161e-08
1.71329e-08
1.23907e-08
6.78317e-09
5.40731e-09
5.19367e-09
6.22418e-09
5.57358e-09
2.75138e-09
4.07285e-09
5.2545e-09
3.51464e-09
7.19116e-09
1.80023e-08
1.90864e-08
1.08963e-08
4.29083e-09
4.9285e-09
4.97492e-09
2.85113e-09
3.00023e-09
8.43748e-09
2.04676e-08
3.94282e-08
4.83976e-08
4.32503e-08
2.5008e-08
6.71186e-09
1.73375e-09
7.75272e-09
1.64805e-08
1.32694e-08
5.20417e-09
3.24669e-09
3.96407e-09
1.82507e-09
1.34263e-09
3.94123e-09
9.30114e-09
1.65408e-08
2.10972e-08
2.1338e-08
1.59047e-08
8.00648e-09
6.53387e-09
6.19315e-09
7.67587e-09
7.14642e-09
2.97312e-09
4.86033e-09
7.12004e-09
4.14507e-09
7.5514e-09
2.0884e-08
2.36438e-08
1.34303e-08
4.87846e-09
7.40617e-09
6.89323e-09
3.48541e-09
3.06226e-09
9.38066e-09
2.36896e-08
4.8485e-08
6.12857e-08
5.61933e-08
3.20947e-08
8.31811e-09
2.26723e-09
1.16694e-08
2.34692e-08
1.82082e-08
6.64696e-09
5.42052e-09
6.91157e-09
3.27678e-09
2.21079e-09
4.812e-09
1.17283e-08
2.10216e-08
2.5869e-08
2.61934e-08
2.05486e-08
9.55571e-09
7.97229e-09
7.29667e-09
9.34234e-09
9.22814e-09
3.44801e-09
6.05782e-09
9.83249e-09
5.15287e-09
7.50128e-09
2.35461e-08
2.90886e-08
1.67656e-08
5.61224e-09
1.12046e-08
9.73657e-09
4.3128e-09
3.16845e-09
1.05761e-08
2.71444e-08
5.84442e-08
7.67278e-08
7.26411e-08
4.07173e-08
1.03971e-08
2.91985e-09
1.73337e-08
3.29031e-08
2.49138e-08
8.54192e-09
8.93248e-09
1.11296e-08
5.38948e-09
3.87768e-09
5.86789e-09
1.52358e-08
2.66439e-08
3.11728e-08
3.1755e-08
2.67188e-08
1.16821e-08
9.81309e-09
8.43035e-09
1.12081e-08
1.19222e-08
4.45281e-09
8.0795e-09
1.37602e-08
6.92132e-09
6.99217e-09
2.56106e-08
3.56081e-08
2.11679e-08
6.62236e-09
1.67769e-08
1.42121e-08
5.42073e-09
3.4207e-09
1.22568e-08
3.09984e-08
6.86509e-08
9.51886e-08
9.35548e-08
5.10755e-08
1.31442e-08
3.75876e-09
2.52813e-08
4.51541e-08
3.4096e-08
1.1084e-08
1.42519e-08
1.68221e-08
8.28922e-09
6.8658e-09
7.05319e-09
2.04643e-08
3.35558e-08
3.68562e-08
3.79812e-08
3.49425e-08
1.48852e-08
1.21664e-08
9.53933e-09
1.32706e-08
1.53297e-08
6.43493e-09
1.15438e-08
1.95596e-08
1.01474e-08
6.19632e-09
2.66757e-08
4.34607e-08
2.68671e-08
8.0519e-09
2.46806e-08
2.16602e-08
6.98378e-09
4.08394e-09
1.48466e-08
3.57675e-08
7.85795e-08
1.17272e-07
1.20151e-07
6.34198e-08
1.69684e-08
5.07591e-09
3.61439e-08
6.0463e-08
4.64578e-08
1.46711e-08
2.19591e-08
2.42056e-08
1.20723e-08
1.20056e-08
8.28096e-09
2.8438e-08
4.22107e-08
4.2397e-08
4.49029e-08
4.59004e-08
2.02109e-08
1.5152e-08
1.05668e-08
1.55866e-08
1.94226e-08
1.01079e-08
1.7248e-08
2.83927e-08
1.58918e-08
5.45874e-09
2.64992e-08
5.28077e-08
3.48104e-08
1.02201e-08
3.5795e-08
3.46629e-08
9.33005e-09
5.76808e-09
1.89851e-08
4.22008e-08
8.71025e-08
1.43523e-07
1.54017e-07
7.81481e-08
2.26649e-08
7.67153e-09
5.07926e-08
7.85746e-08
6.29755e-08
2.00849e-08
3.26684e-08
3.3583e-08
1.70136e-08
2.06825e-08
9.52837e-09
4.0702e-08
5.31571e-08
4.76816e-08
5.26916e-08
6.0471e-08
2.96039e-08
1.88707e-08
1.19982e-08
1.83209e-08
2.39568e-08
1.66928e-08
2.61295e-08
4.23292e-08
2.59098e-08
5.38803e-09
2.52923e-08
6.29362e-08
4.60369e-08
1.37461e-08
5.16907e-08
5.79995e-08
1.31603e-08
9.7161e-09
2.55814e-08
5.16997e-08
9.338e-08
1.75164e-07
1.96919e-07
9.5954e-08
3.15731e-08
1.28656e-08
7.03469e-08
9.99465e-08
8.47795e-08
2.87956e-08
4.72953e-08
4.54565e-08
2.3679e-08
3.4765e-08
1.10593e-08
5.93622e-08
6.75023e-08
5.20555e-08
6.16302e-08
8.00807e-08
4.67434e-08
2.33307e-08
1.44256e-08
2.16813e-08
2.8314e-08
2.8435e-08
3.91492e-08
6.46834e-08
4.28304e-08
7.07235e-09
2.47594e-08
7.37036e-08
6.25215e-08
1.96023e-08
7.51357e-08
9.91579e-08
1.98559e-08
1.79977e-08
3.54725e-08
6.65589e-08
9.76698e-08
2.15173e-07
2.51813e-07
1.18377e-07
4.65654e-08
2.26754e-08
9.5615e-08
1.23707e-07
1.14357e-07
4.36773e-08
6.70772e-08
6.03632e-08
3.28323e-08
5.75656e-08
1.42035e-08
8.83706e-08
8.75068e-08
5.47272e-08
7.13546e-08
1.06211e-07
7.84836e-08
2.86487e-08
1.88213e-08
2.62097e-08
3.2395e-08
4.92224e-08
5.7109e-08
9.93541e-08
7.07356e-08
1.22756e-08
2.7676e-08
8.5571e-08
8.49935e-08
2.89102e-08
1.10433e-07
1.71013e-07
3.04322e-08
3.38733e-08
4.89834e-08
8.77825e-08
9.97745e-08
2.70285e-07
3.16604e-07
1.41937e-07
7.19723e-08
3.83213e-08
1.26644e-07
1.51957e-07
1.49854e-07
6.72359e-08
9.18669e-08
7.77639e-08
4.41372e-08
9.36577e-08
2.07257e-08
1.35037e-07
1.1361e-07
5.4909e-08
8.18323e-08
1.38952e-07
1.3161e-07
3.60736e-08
2.69474e-08
3.15126e-08
3.75947e-08
8.33477e-08
8.20511e-08
1.47406e-07
1.14562e-07
2.17599e-08
3.7679e-08
9.51007e-08
1.1471e-07
4.47528e-08
1.60039e-07
2.80638e-07
4.78382e-08
5.95873e-08
6.32193e-08
1.25764e-07
1.00681e-07
3.44334e-07
3.90884e-07
1.78962e-07
1.08654e-07
6.40524e-08
1.68486e-07
1.85514e-07
1.92173e-07
1.04352e-07
1.22769e-07
9.77202e-08
5.82735e-08
1.49448e-07
3.56346e-08
2.0403e-07
1.52559e-07
5.14589e-08
8.7745e-08
1.76951e-07
2.2399e-07
4.65498e-08
4.16121e-08
3.75667e-08
4.40354e-08
1.41213e-07
1.16919e-07
2.15638e-07
1.72284e-07
3.70846e-08
6.11913e-08
9.31995e-08
1.51677e-07
5.79277e-08
2.33129e-07
4.47478e-07
7.45966e-08
1.10027e-07
8.035e-08
1.9282e-07
1.02096e-07
4.2444e-07
4.61917e-07
1.99297e-07
1.65393e-07
9.87973e-08
2.0413e-07
2.34682e-07
2.3691e-07
1.49042e-07
1.54447e-07
1.27707e-07
8.43552e-08
2.27188e-07
6.13119e-08
2.91009e-07
2.05179e-07
5.09108e-08
9.2867e-08
2.18464e-07
3.47058e-07
6.21603e-08
6.8411e-08
4.60834e-08
6.22188e-08
2.00199e-07
1.59979e-07
2.78e-07
2.43542e-07
5.37376e-08
1.04532e-07
8.46403e-08
1.93847e-07
8.48235e-08
2.91185e-07
6.28215e-07
1.14421e-07
1.82361e-07
1.00616e-07
2.74913e-07
9.96035e-08
4.60727e-07
5.53196e-07
2.49576e-07
2.43038e-07
1.53281e-07
2.48143e-07
2.84069e-07
3.02703e-07
1.99999e-07
1.91419e-07
1.68446e-07
1.22126e-07
3.04012e-07
9.0291e-08
3.85703e-07
2.31527e-07
6.85694e-08
9.62499e-08
3.1824e-07
5.44785e-07
5.54224e-08
1.2091e-07
5.91754e-08
7.14169e-08
2.78655e-07
2.25949e-07
3.39897e-07
2.71512e-07
6.65726e-08
1.57168e-07
8.23469e-08
2.32843e-07
1.02121e-07
3.2765e-07
7.55078e-07
1.30028e-07
2.7579e-07
1.09016e-07
3.45048e-07
9.39538e-08
4.83582e-07
6.65481e-07
3.00939e-07
3.2985e-07
2.21929e-07
2.96101e-07
3.27599e-07
4.03179e-07
2.36065e-07
2.38193e-07
2.10934e-07
1.74452e-07
3.6076e-07
1.1967e-07
4.43328e-07
2.75586e-07
8.95912e-08
1.05189e-07
3.88226e-07
7.69128e-07
3.96538e-08
1.95901e-07
8.71892e-08
9.04938e-08
3.56862e-07
2.95084e-07
3.93862e-07
2.73344e-07
8.87712e-08
2.05933e-07
1.06755e-07
2.42262e-07
1.1005e-07
3.45272e-07
8.02251e-07
1.16556e-07
3.21932e-07
1.03018e-07
3.95334e-07
9.26574e-08
4.73684e-07
7.79875e-07
3.36989e-07
3.82066e-07
2.75722e-07
3.46738e-07
3.50188e-07
5.08744e-07
2.55701e-07
2.81834e-07
2.0287e-07
2.58246e-07
3.48818e-07
9.83163e-08
4.77717e-07
2.83773e-07
1.04674e-07
9.83311e-08
4.367e-07
1.01417e-06
3.21408e-08
2.42899e-07
1.28725e-07
8.55878e-08
4.01275e-07
3.2387e-07
4.03817e-07
2.95509e-07
1.05917e-07
2.30306e-07
1.14448e-07
2.37473e-07
1.17826e-07
3.42435e-07
8.29755e-07
1.03109e-07
3.52519e-07
1.03663e-07
4.06476e-07
8.63671e-08
4.28049e-07
7.81893e-07
4.09786e-07
4.31906e-07
3.14211e-07
3.73167e-07
3.56594e-07
5.67238e-07
2.56727e-07
2.99873e-07
2.07437e-07
3.21161e-07
3.43329e-07
8.26227e-08
5.3112e-07
2.83795e-07
1.11735e-07
1.03095e-07
5.04767e-07
1.15859e-06
2.48634e-08
2.79534e-07
1.42012e-07
7.58613e-08
3.93513e-07
3.13993e-07
3.83905e-07
2.89029e-07
1.17514e-07
2.40464e-07
1.36389e-07
2.48843e-07
1.02663e-07
3.32101e-07
8.37601e-07
7.96427e-08
3.81365e-07
1.01598e-07
3.86799e-07
8.66757e-08
4.21286e-07
7.79363e-07
4.15816e-07
4.38342e-07
3.33614e-07
3.90631e-07
3.3659e-07
5.57909e-07
2.45563e-07
2.83125e-07
2.45961e-07
3.49002e-07
3.03079e-07
7.59019e-08
5.74022e-07
2.88783e-07
1.09998e-07
1.08663e-07
5.03966e-07
1.20261e-06
2.34406e-08
3.08096e-07
1.38313e-07
6.41913e-08
3.69039e-07
3.04525e-07
3.74026e-07
2.71986e-07
1.14053e-07
2.46322e-07
1.55553e-07
2.63258e-07
9.47971e-08
3.16303e-07
8.16932e-07
6.78555e-08
3.87585e-07
9.60181e-08
3.5826e-07
8.20227e-08
4.29524e-07
8.04162e-07
4.21106e-07
4.21954e-07
3.41308e-07
3.94043e-07
3.25173e-07
5.46956e-07
2.37177e-07
2.55177e-07
2.88837e-07
3.4664e-07
2.9722e-07
7.20744e-08
6.19816e-07
2.68148e-07
1.07792e-07
1.13793e-07
4.92459e-07
1.20989e-06
2.55659e-08
3.25048e-07
1.20491e-07
6.20433e-08
3.45386e-07
2.93568e-07
3.68225e-07
2.66674e-07
1.09758e-07
2.49871e-07
1.58327e-07
2.73283e-07
8.76796e-08
3.18589e-07
7.95175e-07
6.44284e-08
3.778e-07
9.27136e-08
3.39557e-07
7.88789e-08
4.37852e-07
8.09691e-07
4.12702e-07
4.01589e-07
3.37861e-07
3.85189e-07
3.27289e-07
5.47252e-07
2.31101e-07
2.45546e-07
3.04806e-07
3.31584e-07
2.922e-07
6.87384e-08
6.37684e-07
2.51524e-07
1.05977e-07
1.16154e-07
4.86667e-07
1.17608e-06
2.93749e-08
3.23204e-07
1.07962e-07
5.90376e-08
3.25629e-07
2.87141e-07
3.64283e-07
2.64181e-07
1.0793e-07
2.52722e-07
1.5751e-07
2.78893e-07
8.52505e-08
3.2105e-07
7.82437e-07
6.41728e-08
3.70069e-07
9.10488e-08
3.30581e-07
7.87218e-08
4.40862e-07
8.09243e-07
4.0799e-07
3.91985e-07
3.35128e-07
3.78946e-07
3.30622e-07
5.48688e-07
2.27882e-07
2.45708e-07
3.09498e-07
3.21797e-07
2.89659e-07
6.75347e-08
6.43421e-07
2.42005e-07
1.06311e-07
1.18379e-07
4.82008e-07
1.15413e-06
3.22329e-08
3.19989e-07
1.0324e-07
5.74781e-08
3.19673e-07
2.84851e-07
3.6171e-07
2.63444e-07
1.0609e-07
1.41633e-09
8.89777e-10
8.69569e-10
8.43131e-10
6.83397e-10
6.67271e-10
6.66829e-10
7.19759e-10
8.05873e-10
9.08018e-10
1.00185e-09
1.06585e-09
1.09545e-09
1.10772e-09
1.13188e-09
1.19041e-09
1.28214e-09
1.38395e-09
1.46241e-09
1.49109e-09
1.45991e-09
1.37422e-09
1.25066e-09
1.10973e-09
9.71545e-10
8.52977e-10
7.6465e-10
7.10292e-10
6.87623e-10
6.88779e-10
7.02484e-10
7.15872e-10
7.19889e-10
7.12099e-10
7.09569e-10
6.7377e-10
7.23065e-10
5.80487e-10
4.23933e-10
1.02945e-09
1.45424e-09
1.08038e-09
1.12675e-09
1.11791e-09
9.29705e-10
9.03396e-10
9.07281e-10
9.83869e-10
1.10543e-09
1.23676e-09
1.32967e-09
1.34301e-09
1.27553e-09
1.17085e-09
1.09741e-09
1.10573e-09
1.19451e-09
1.31907e-09
1.4175e-09
1.44938e-09
1.40957e-09
1.31682e-09
1.199e-09
1.07694e-09
9.65402e-10
8.7427e-10
8.04287e-10
7.51704e-10
7.11859e-10
6.82963e-10
6.66553e-10
6.60488e-10
6.61027e-10
6.65303e-10
6.85677e-10
6.82819e-10
7.56111e-10
6.73787e-10
6.14757e-10
1.1698e-09
1.59216e-09
1.29938e-09
1.40216e-09
1.3969e-09
1.17177e-09
1.13681e-09
1.1616e-09
1.29783e-09
1.50771e-09
1.72478e-09
1.85663e-09
1.81957e-09
1.61299e-09
1.32532e-09
1.09578e-09
1.02631e-09
1.1142e-09
1.27734e-09
1.40441e-09
1.43507e-09
1.37651e-09
1.26968e-09
1.16008e-09
1.06815e-09
1.00369e-09
9.7154e-10
9.57116e-10
9.3955e-10
9.0191e-10
8.46113e-10
7.94212e-10
7.59765e-10
7.44933e-10
7.44686e-10
7.63915e-10
7.64281e-10
8.29401e-10
7.76682e-10
7.84554e-10
1.33902e-09
1.87283e-09
1.60414e-09
1.71226e-09
1.66811e-09
1.38182e-09
1.33237e-09
1.38984e-09
1.62432e-09
1.99041e-09
2.37729e-09
2.61928e-09
2.54844e-09
2.15525e-09
1.59602e-09
1.13048e-09
9.48022e-10
1.0412e-09
1.26532e-09
1.4264e-09
1.43993e-09
1.34134e-09
1.20749e-09
1.10972e-09
1.06287e-09
1.0713e-09
1.13903e-09
1.22695e-09
1.28233e-09
1.25951e-09
1.16231e-09
1.05312e-09
9.73044e-10
9.32219e-10
9.19257e-10
9.22802e-10
9.06131e-10
9.38258e-10
8.88876e-10
9.44409e-10
1.55356e-09
2.28465e-09
2.01768e-09
2.06618e-09
1.92076e-09
1.53875e-09
1.46637e-09
1.56338e-09
1.9353e-09
2.54062e-09
3.21413e-09
3.67746e-09
3.60957e-09
2.97185e-09
2.01898e-09
1.207e-09
8.69357e-10
9.82328e-10
1.30061e-09
1.49599e-09
1.46128e-09
1.28926e-09
1.11044e-09
1.02948e-09
1.0448e-09
1.15643e-09
1.37804e-09
1.63188e-09
1.81079e-09
1.81113e-09
1.63496e-09
1.42527e-09
1.27231e-09
1.1956e-09
1.16928e-09
1.14917e-09
1.10397e-09
1.08836e-09
1.01999e-09
1.11872e-09
1.83406e-09
2.85782e-09
2.56519e-09
2.46642e-09
2.14358e-09
1.63171e-09
1.53238e-09
1.66877e-09
2.21299e-09
3.1535e-09
4.26881e-09
5.11573e-09
5.11164e-09
4.15698e-09
2.64218e-09
1.33344e-09
7.90815e-10
9.54648e-10
1.41956e-09
1.63707e-09
1.50069e-09
1.21081e-09
9.67978e-10
9.10001e-10
1.00305e-09
1.25008e-09
1.69474e-09
2.20202e-09
2.57593e-09
2.60514e-09
2.27992e-09
1.89904e-09
1.63442e-09
1.51389e-09
1.48194e-09
1.43469e-09
1.35427e-09
1.2901e-09
1.18039e-09
1.3195e-09
2.20378e-09
3.63657e-09
3.27703e-09
2.91159e-09
2.32807e-09
1.66481e-09
1.5457e-09
1.70969e-09
2.44973e-09
3.83094e-09
5.58747e-09
7.04437e-09
7.20025e-09
5.8334e-09
3.52687e-09
1.51786e-09
7.15535e-10
9.80741e-10
1.66235e-09
1.87823e-09
1.56314e-09
1.10475e-09
7.85304e-10
7.55697e-10
9.33553e-10
1.3465e-09
2.09841e-09
2.97826e-09
3.6489e-09
3.71203e-09
3.12338e-09
2.46578e-09
2.0404e-09
1.87e-09
1.85069e-09
1.77128e-09
1.64641e-09
1.55127e-09
1.38254e-09
1.55538e-09
2.68889e-09
4.6703e-09
4.18743e-09
3.39974e-09
2.47333e-09
1.66225e-09
1.54524e-09
1.70565e-09
2.64611e-09
4.58039e-09
7.22769e-09
9.60043e-09
1.00519e-08
8.1531e-09
4.74843e-09
1.76751e-09
6.51963e-10
1.10866e-09
2.10887e-09
2.26692e-09
1.66001e-09
9.82613e-10
5.94998e-10
5.90626e-10
8.40903e-10
1.44409e-09
2.60635e-09
4.01194e-09
5.1204e-09
5.22461e-09
4.20336e-09
3.12118e-09
2.47645e-09
2.25328e-09
2.27534e-09
2.15305e-09
1.96235e-09
1.8787e-09
1.64386e-09
1.82907e-09
3.31296e-09
6.00332e-09
5.33218e-09
3.93243e-09
2.5903e-09
1.67293e-09
1.59163e-09
1.68703e-09
2.80791e-09
5.41318e-09
9.25534e-09
1.29452e-08
1.38774e-08
1.13009e-08
6.39941e-09
2.08745e-09
6.13509e-10
1.40458e-09
2.87331e-09
2.86413e-09
1.80265e-09
8.74408e-10
4.66542e-10
4.62983e-10
7.39423e-10
1.54576e-09
3.23184e-09
5.36343e-09
7.09854e-09
7.25628e-09
5.56833e-09
3.8622e-09
2.93487e-09
2.65624e-09
2.75921e-09
2.57937e-09
2.27503e-09
2.27521e-09
1.98856e-09
2.13927e-09
4.08751e-09
7.67136e-09
6.7489e-09
4.51957e-09
2.70393e-09
1.77579e-09
1.76139e-09
1.6886e-09
2.93912e-09
6.34769e-09
1.17375e-08
1.72601e-08
1.89154e-08
1.54989e-08
8.59393e-09
2.47694e-09
6.25518e-10
1.98047e-09
4.12429e-09
3.76053e-09
2.01601e-09
8.35331e-10
5.15701e-10
4.45568e-10
6.55938e-10
1.66103e-09
3.99021e-09
7.1037e-09
9.70481e-09
9.9386e-09
7.29885e-09
4.69332e-09
3.41977e-09
3.07791e-09
3.30862e-09
3.06084e-09
2.55249e-09
2.73824e-09
2.44983e-09
2.47884e-09
5.00476e-09
9.68877e-09
8.47689e-09
5.18446e-09
2.8529e-09
2.0874e-09
2.13963e-09
1.74701e-09
3.05257e-09
7.4072e-09
1.47301e-08
2.27399e-08
2.5421e-08
2.10131e-08
1.14728e-08
2.94118e-09
7.26247e-10
3.00371e-09
6.10354e-09
5.0732e-09
2.32946e-09
9.57815e-10
9.06993e-10
6.3747e-10
6.35096e-10
1.8067e-09
4.89715e-09
9.31425e-09
1.30662e-08
1.34076e-08
9.50609e-09
5.629e-09
3.95091e-09
3.52188e-09
3.92757e-09
3.6225e-09
2.76814e-09
3.26254e-09
3.07095e-09
2.83354e-09
6.02532e-09
1.20504e-08
1.05578e-08
5.96836e-09
3.08667e-09
2.77082e-09
2.81306e-09
1.8825e-09
3.15003e-09
8.62026e-09
1.82766e-08
2.95791e-08
3.36511e-08
2.81631e-08
1.51989e-08
3.48264e-09
9.66055e-10
4.71866e-09
9.146e-09
6.97713e-09
2.78519e-09
1.38917e-09
1.86002e-09
1.15644e-09
7.48643e-10
2.00616e-09
5.97449e-09
1.20865e-08
1.7303e-08
1.77923e-08
1.23579e-08
6.7002e-09
4.56627e-09
3.99098e-09
4.59918e-09
4.31459e-09
2.91781e-09
3.84871e-09
3.90613e-09
3.18593e-09
7.07564e-09
1.47235e-08
1.30382e-08
6.93367e-09
3.46184e-09
4.04657e-09
3.87408e-09
2.10028e-09
3.23756e-09
1.00318e-08
2.23252e-08
3.79432e-08
4.38474e-08
3.73307e-08
1.99577e-08
4.11472e-09
1.39574e-09
7.46823e-09
1.36859e-08
9.70891e-09
3.44048e-09
2.35274e-09
3.6235e-09
2.12906e-09
1.10761e-09
2.28536e-09
7.26517e-09
1.55143e-08
2.2511e-08
2.31977e-08
1.60935e-08
7.96331e-09
5.32219e-09
4.48413e-09
5.31275e-09
5.20678e-09
3.02707e-09
4.51841e-09
5.024e-09
3.52296e-09
8.04735e-09
1.76426e-08
1.59885e-08
8.16138e-09
4.03987e-09
6.19403e-09
5.42121e-09
2.41504e-09
3.33105e-09
1.16991e-08
2.69205e-08
4.78984e-08
5.62247e-08
4.89434e-08
2.59364e-08
4.86974e-09
2.09921e-09
1.1711e-08
2.02601e-08
1.35366e-08
4.37142e-09
4.17039e-09
6.44703e-09
3.67518e-09
1.87819e-09
2.66641e-09
8.86354e-09
1.97125e-08
2.87364e-08
2.96883e-08
2.10423e-08
9.51583e-09
6.2904e-09
4.99296e-09
6.02322e-09
6.38096e-09
3.17109e-09
5.34042e-09
6.52204e-09
3.85427e-09
8.82038e-09
2.06592e-08
1.94839e-08
9.75068e-09
4.88799e-09
9.53058e-09
7.59991e-09
2.83253e-09
3.48903e-09
1.36664e-08
3.19695e-08
5.94058e-08
7.0978e-08
6.35819e-08
3.32954e-08
5.81873e-09
3.15308e-09
1.80106e-08
2.94957e-08
1.89054e-08
5.70427e-09
7.26526e-09
1.05397e-08
5.89256e-09
3.29509e-09
3.1583e-09
1.09545e-08
2.4729e-08
3.59495e-08
3.73092e-08
2.76365e-08
1.15238e-08
7.5586e-09
5.50903e-09
6.65907e-09
7.87944e-09
3.49683e-09
6.45987e-09
8.54812e-09
4.24198e-09
9.29482e-09
2.36462e-08
2.36267e-08
1.18307e-08
6.0912e-09
1.43481e-08
1.06658e-08
3.34969e-09
3.8566e-09
1.60179e-08
3.74496e-08
7.23921e-08
8.82973e-08
8.1983e-08
4.21167e-08
7.10033e-09
4.68038e-09
2.69993e-08
4.20342e-08
2.64585e-08
7.69279e-09
1.21158e-08
1.60472e-08
8.84656e-09
5.67184e-09
3.76806e-09
1.38767e-08
3.05581e-08
4.40004e-08
4.6131e-08
3.63922e-08
1.42613e-08
9.21188e-09
5.98055e-09
7.1726e-09
9.67301e-09
4.22834e-09
8.12105e-09
1.1357e-08
4.83187e-09
9.48653e-09
2.62666e-08
2.86017e-08
1.44838e-08
7.78703e-09
2.0902e-08
1.50392e-08
4.03984e-09
4.72862e-09
1.88382e-08
4.34759e-08
8.63942e-08
1.08345e-07
1.04887e-07
5.23575e-08
8.96994e-09
6.90993e-09
3.92755e-08
5.84907e-08
3.70926e-08
1.07632e-08
1.92198e-08
2.30286e-08
1.25637e-08
9.40098e-09
4.51242e-09
1.81913e-08
3.71114e-08
5.26019e-08
5.62074e-08
4.78469e-08
1.82724e-08
1.13463e-08
6.4116e-09
7.64532e-09
1.15143e-08
5.70086e-09
1.06671e-08
1.5448e-08
5.90326e-09
9.61699e-09
2.83667e-08
3.47383e-08
1.7945e-08
1.02053e-08
2.93817e-08
2.14201e-08
5.10051e-09
6.75144e-09
2.23146e-08
5.04956e-08
1.00843e-07
1.31791e-07
1.32714e-07
6.38005e-08
1.19143e-08
1.02861e-08
5.54897e-08
7.99522e-08
5.20372e-08
1.57369e-08
2.89721e-08
3.14834e-08
1.72228e-08
1.49577e-08
5.51723e-09
2.48246e-08
4.42437e-08
6.13714e-08
6.77016e-08
6.26011e-08
2.46243e-08
1.4072e-08
6.96493e-09
8.46674e-09
1.33197e-08
8.46114e-09
1.45166e-08
2.18005e-08
7.88503e-09
1.01839e-08
3.00671e-08
4.27712e-08
2.24107e-08
1.3742e-08
3.98381e-08
3.08907e-08
7.03112e-09
1.108e-08
2.68215e-08
5.95565e-08
1.15152e-07
1.59552e-07
1.65921e-07
7.62525e-08
1.67658e-08
1.56012e-08
7.61491e-08
1.07467e-07
7.29117e-08
2.40811e-08
4.15141e-08
4.14249e-08
2.31035e-08
2.28459e-08
7.01519e-09
3.51782e-08
5.17324e-08
7.03141e-08
8.08838e-08
8.13857e-08
3.52322e-08
1.76258e-08
8.24284e-09
1.0573e-08
1.49688e-08
1.34618e-08
2.01816e-08
3.22366e-08
1.1337e-08
1.22039e-08
3.16189e-08
5.42903e-08
2.8283e-08
1.90804e-08
5.24637e-08
4.50409e-08
1.06432e-08
1.97617e-08
3.29774e-08
7.24392e-08
1.29192e-07
1.92616e-07
2.04638e-07
8.9682e-08
2.49821e-08
2.40675e-08
1.02264e-07
1.43274e-07
1.01414e-07
3.84028e-08
5.66028e-08
5.30177e-08
3.07763e-08
3.43092e-08
9.78574e-09
5.11995e-08
5.95332e-08
7.96032e-08
9.6245e-08
1.0497e-07
5.31225e-08
2.23633e-08
1.13508e-08
1.55952e-08
1.65208e-08
2.2404e-08
2.81957e-08
4.99326e-08
1.68514e-08
1.79075e-08
3.40873e-08
6.98142e-08
3.62163e-08
2.70026e-08
6.74527e-08
6.54958e-08
1.75703e-08
3.57011e-08
4.17565e-08
9.18812e-08
1.43192e-07
2.31278e-07
2.48608e-07
1.03802e-07
3.87635e-08
3.73001e-08
1.3403e-07
1.90647e-07
1.37882e-07
6.21619e-08
7.38359e-08
6.73912e-08
4.14905e-08
5.00758e-08
1.46123e-08
7.48022e-08
6.71018e-08
8.97467e-08
1.13203e-07
1.34874e-07
8.33075e-08
2.91837e-08
1.80984e-08
2.61183e-08
1.80272e-08
3.75511e-08
3.89157e-08
7.96783e-08
2.42749e-08
3.08339e-08
3.9736e-08
9.14181e-08
4.6578e-08
3.79736e-08
8.48958e-08
9.14885e-08
3.12484e-08
6.2206e-08
5.1384e-08
1.22265e-07
1.5889e-07
2.77804e-07
2.98804e-07
1.22992e-07
6.06505e-08
5.75892e-08
1.75081e-07
2.54731e-07
1.85239e-07
9.81401e-08
8.90839e-08
8.74792e-08
5.60081e-08
6.98064e-08
2.11856e-08
1.07856e-07
7.55448e-08
9.87021e-08
1.33319e-07
1.72963e-07
1.28404e-07
3.88365e-08
2.96264e-08
4.42465e-08
1.93044e-08
5.81734e-08
5.20315e-08
1.29952e-07
3.19607e-08
5.53181e-08
5.18284e-08
1.14175e-07
5.98766e-08
4.84409e-08
1.07125e-07
1.24126e-07
4.97075e-08
1.0421e-07
6.6535e-08
1.65499e-07
1.93359e-07
3.19158e-07
3.44767e-07
1.60657e-07
9.4925e-08
9.39084e-08
2.42507e-07
3.29328e-07
2.39238e-07
1.52567e-07
1.07702e-07
1.03873e-07
6.74899e-08
9.55793e-08
3.50686e-08
1.44675e-07
8.65e-08
1.06827e-07
1.58966e-07
2.26749e-07
1.86805e-07
5.17111e-08
4.61822e-08
7.54972e-08
2.00749e-08
9.23251e-08
6.82161e-08
2.1198e-07
3.8303e-08
9.96586e-08
7.12973e-08
1.19184e-07
7.40224e-08
5.0784e-08
1.36971e-07
1.86475e-07
8.38557e-08
1.84777e-07
8.6479e-08
2.14728e-07
2.40284e-07
3.83288e-07
3.9633e-07
1.96581e-07
1.47743e-07
1.4171e-07
3.1115e-07
4.15482e-07
3.24767e-07
2.21811e-07
1.31122e-07
1.07707e-07
8.06934e-08
1.21464e-07
4.59598e-08
1.91049e-07
9.89003e-08
1.10159e-07
1.8139e-07
2.91708e-07
3.03262e-07
6.48183e-08
6.91247e-08
1.48618e-07
2.1768e-08
1.4072e-07
8.65091e-08
3.25168e-07
4.42991e-08
1.65347e-07
9.87671e-08
1.12336e-07
9.71943e-08
5.38749e-08
1.76766e-07
2.48193e-07
1.22114e-07
2.76567e-07
1.01364e-07
2.58903e-07
2.86838e-07
4.29312e-07
4.54026e-07
2.13164e-07
1.95259e-07
1.86517e-07
3.62384e-07
5.24402e-07
4.17303e-07
3.28858e-07
1.6183e-07
8.46699e-08
9.16315e-08
1.63278e-07
6.06551e-08
2.65223e-07
1.16572e-07
1.09537e-07
1.89421e-07
3.28992e-07
4.63482e-07
7.07424e-08
9.58277e-08
2.12298e-07
2.45648e-08
2.28016e-07
9.1136e-08
4.38607e-07
5.08862e-08
2.3062e-07
1.26579e-07
1.01053e-07
1.3181e-07
5.65722e-08
2.1707e-07
2.99719e-07
1.47947e-07
3.3734e-07
1.41042e-07
3.06517e-07
3.14461e-07
4.13184e-07
4.9702e-07
2.52313e-07
2.27036e-07
2.16924e-07
3.67924e-07
6.42232e-07
5.71177e-07
4.14377e-07
2.09668e-07
6.21351e-08
1.07417e-07
1.88259e-07
7.18009e-08
3.45633e-07
1.3116e-07
1.27529e-07
1.92365e-07
3.55901e-07
6.58276e-07
7.38754e-08
1.37879e-07
3.06931e-07
3.00254e-08
3.67505e-07
9.85859e-08
5.52487e-07
5.86329e-08
3.15013e-07
1.60942e-07
9.76473e-08
1.6992e-07
6.0381e-08
2.50135e-07
3.55344e-07
1.4889e-07
3.75914e-07
1.6849e-07
3.91618e-07
3.54839e-07
3.9731e-07
5.09593e-07
2.93215e-07
2.70458e-07
2.34759e-07
4.03525e-07
7.48151e-07
6.60547e-07
4.85427e-07
2.48769e-07
6.16319e-08
1.02848e-07
2.4773e-07
9.92631e-08
4.45193e-07
1.48401e-07
1.44136e-07
2.14597e-07
3.36447e-07
7.48946e-07
6.21479e-08
1.58399e-07
2.65906e-07
3.18264e-08
4.44488e-07
9.30648e-08
6.78005e-07
6.15721e-08
3.80875e-07
1.86087e-07
1.0568e-07
1.58936e-07
7.00129e-08
2.4527e-07
3.75498e-07
1.38058e-07
3.11539e-07
1.96764e-07
4.23397e-07
3.67543e-07
4.11315e-07
5.00512e-07
2.81466e-07
3.09049e-07
2.45959e-07
4.00347e-07
7.98984e-07
7.8496e-07
4.70527e-07
2.82696e-07
5.51349e-08
1.11451e-07
2.31889e-07
1.14949e-07
5.33463e-07
1.34466e-07
1.49563e-07
2.84944e-07
3.17827e-07
8.01803e-07
6.98935e-08
1.8035e-07
2.27477e-07
2.97457e-08
4.2796e-07
8.08384e-08
6.70345e-07
7.01532e-08
3.8184e-07
1.93093e-07
1.19956e-07
1.46248e-07
9.34542e-08
2.35885e-07
3.85167e-07
1.22168e-07
2.52715e-07
2.18817e-07
4.42029e-07
3.59873e-07
4.04299e-07
4.85275e-07
2.64888e-07
3.46304e-07
2.61928e-07
4.13634e-07
7.98262e-07
8.93386e-07
4.08826e-07
2.99623e-07
7.24976e-08
1.05901e-07
2.4713e-07
1.40876e-07
6.29949e-07
1.35563e-07
1.61878e-07
3.26904e-07
2.9406e-07
7.44232e-07
6.92065e-08
1.81887e-07
2.23656e-07
2.74659e-08
4.57769e-07
8.11709e-08
6.16233e-07
6.46594e-08
3.67029e-07
1.97514e-07
1.31016e-07
1.35987e-07
1.16525e-07
2.15517e-07
3.85239e-07
1.04286e-07
2.29497e-07
2.07478e-07
4.4186e-07
3.43269e-07
4.25306e-07
5.12723e-07
2.2807e-07
3.65207e-07
2.76755e-07
4.29005e-07
7.42273e-07
9.52225e-07
3.66639e-07
2.94887e-07
8.92938e-08
9.69628e-08
2.6081e-07
1.62612e-07
6.54613e-07