/*--------------------------------*- C++ -*----------------------------------*\
  =========                 |
  \\      /  F ield         | OpenFOAM: The Open Source CFD Toolbox
   \\    /   O peration     | Website:  https://openfoam.org
    \\  /    A nd           | Version:  10
     \\/     M anipulation  |
\*---------------------------------------------------------------------------*/
FoamFile
{
    format      ascii;
    class       volVectorField;
    location    "18";
    object      U_0;
}
// * * * * * * * * * * * * * * * * * * * * * * * * * * * * * * * * * * * * * //

dimensions      [0 1 -1 0 0 0 0];

internalField   nonuniform List<vector> 
25600
(
(1.05013 -0.000411066 -5.98741e-05)
(1.05076 0.000393719 0.000462996)
(1.04937 -0.00120677 -0.000664936)
(1.05291 0.00110292 0.000221739)
(1.04935 0.000620386 0.000155027)
(1.05137 -0.000840923 -0.000308899)
(1.05225 0.00169759 7.25963e-05)
(1.04952 0.000263297 0.000364723)
(1.0523 0.000369308 -0.00013588)
(1.05043 0.000656875 -0.000269843)
(1.05119 0.000336259 0.000514627)
(1.05025 0.000754235 0.00022667)
(1.0502 -0.000245275 -0.000746329)
(1.05247 0.00123267 0.000529157)
(1.04948 -0.000467853 0.000411523)
(1.04985 -5.31992e-05 -0.000858071)
(1.05244 0.00161212 0.00108698)
(1.05 -0.00177196 -0.000655646)
(1.04987 0.00077547 -9.15564e-05)
(1.05248 0.000456946 0.00104275)
(1.04956 -0.000804315 -0.00143973)
(1.05063 0.000997783 0.00060298)
(1.05175 -0.0009472 5.4668e-05)
(1.04996 0.000431508 -0.000770315)
(1.05004 -0.000230346 0.000293961)
(1.05102 -0.00122367 -0.000372192)
(1.05104 0.000652791 -1.18503e-05)
(1.04789 -0.000740837 -0.000242937)
(1.05137 -0.000593715 -0.000196173)
(1.04957 0.000391656 0.000318182)
(1.0474 -0.0012224 -3.53918e-05)
(1.05157 1.45526e-05 5.98376e-05)
(1.04798 -0.000515806 0.000309892)
(1.04968 -0.000790322 0.000321496)
(1.04976 0.000297848 -7.35045e-06)
(1.04868 -0.000948745 0.0003233)
(1.05088 0.000916512 0.000152261)
(1.04844 -0.00072813 -0.000225637)
(1.05062 -0.000502398 0.000624025)
(1.0495 0.000601093 -0.000456822)
(1.0499 0.000287741 0.000319222)
(1.05028 -0.000837365 0.000124222)
(1.05004 -0.000485253 -0.000729748)
(1.05335 0.000972737 0.000577644)
(1.04867 -0.000328191 -0.000367577)
(1.05199 0.000332754 -1.89976e-05)
(1.05255 0.00104057 0.000124401)
(1.04908 0.000534214 -3.78277e-05)
(1.05247 0.000625024 0.000236171)
(1.05042 0.000866663 -0.000408695)
(1.05107 0.00036411 0.000311281)
(1.05012 0.000559557 0.000442167)
(1.05042 0.000430432 -0.00095154)
(1.05222 0.000628666 0.000615492)
(1.04894 -0.00012819 0.000526418)
(1.05094 -0.00019478 -0.000991417)
(1.05153 0.00185569 0.00124107)
(1.04944 -0.00215276 -0.000644002)
(1.05125 0.000651609 -2.0985e-05)
(1.05148 0.000971555 0.00109039)
(1.0499 -0.00156926 -0.00149536)
(1.05072 0.00175597 0.000624258)
(1.05125 -0.00118725 3.7661e-05)
(1.05042 0.000342745 -0.000720024)
(1.04933 -0.000294299 0.000324998)
(1.0515 -0.000688556 -0.000637566)
(1.05102 0.000579933 0.000373513)
(1.04758 -0.00111904 -0.000436202)
(1.05187 0.000765552 -0.000425887)
(1.04897 -0.000422626 0.000750778)
(1.04751 -0.000898062 -0.000240711)
(1.0518 0.000299817 0.000305218)
(1.04749 -0.000867298 0.000435531)
(1.05007 -0.000863608 0.000385801)
(1.0499 0.000135161 7.9747e-05)
(1.04877 -0.000371083 0.000393169)
(1.05095 5.8345e-05 0.000182669)
(1.04801 -0.000132228 -0.000127758)
(1.05091 -0.000540157 0.000664812)
(1.0498 6.05995e-05 -0.000692342)
(1.04937 0.000251002 0.000345796)
(1.05007 -0.00141481 -0.000176095)
(1.05092 0.000138552 -0.000604503)
(1.05308 0.000365192 0.000584739)
(1.04875 -0.000704653 -0.000690399)
(1.05256 0.00129406 0.000197697)
(1.05243 0.000417268 0.000253484)
(1.04913 0.000872746 -0.000369076)
(1.05258 0.00101575 0.000458686)
(1.0502 0.000971686 -0.000315172)
(1.05092 0.000389466 5.56792e-05)
(1.05029 0.000655552 0.000523378)
(1.05027 0.000895381 -0.000943916)
(1.05198 7.21308e-05 0.000685942)
(1.04874 0.000384406 0.0004736)
(1.05159 -0.000158431 -0.000879422)
(1.05073 0.00139784 0.00126345)
(1.04894 -0.00194615 -0.000597949)
(1.05258 0.00033595 0.000190416)
(1.05054 0.00113558 0.000899165)
(1.05024 -0.00148063 -0.0014525)
(1.05096 0.00183527 0.000711042)
(1.05053 -0.000925304 -8.48246e-05)
(1.05074 -0.000129754 -0.000680953)
(1.04912 -0.0002702 0.000427039)
(1.05179 -8.58372e-05 -0.000779094)
(1.05068 -4.85607e-06 0.000526778)
(1.04802 -0.000768664 -0.00066511)
(1.052 0.00158308 -0.000447205)
(1.04815 -0.000994432 0.000976114)
(1.04801 -0.000376419 -0.000393131)
(1.05162 0.000246026 0.000766435)
(1.04698 -0.00144432 0.000540291)
(1.05055 -0.000658052 0.000406316)
(1.05019 -0.00012017 0.000334075)
(1.04863 -0.000170188 0.000430878)
(1.05109 -0.000118464 0.000314961)
(1.04791 7.15026e-05 -3.3165e-06)
(1.05081 -0.000314765 0.000540566)
(1.05021 -0.000181092 -0.000634984)
(1.04893 -0.000292503 6.15456e-05)
(1.05018 -0.0012751 -0.000244391)
(1.05146 9.35805e-05 -0.000617534)
(1.05269 -0.00019412 0.000431602)
(1.04937 -0.000660958 -0.00080767)
(1.05289 0.00176919 0.000276259)
(1.05221 0.000198084 0.000498607)
(1.04953 0.00125285 -0.000660631)
(1.05254 0.00139617 0.000590404)
(1.04992 0.00110353 -3.17349e-05)
(1.05081 0.000636236 -0.000315323)
(1.0505 0.000623781 0.000526373)
(1.04996 0.00115489 -0.000757833)
(1.0518 -4.9167e-05 0.000682467)
(1.04873 0.000518123 0.000371594)
(1.05175 0.000113031 -0.000559242)
(1.05009 0.000705594 0.00122632)
(1.04858 -0.00176781 -0.000524263)
(1.05367 -1.32316e-05 0.000544177)
(1.05001 0.00112427 0.000530275)
(1.05044 -0.000889893 -0.00134514)
(1.05115 0.00156167 0.00083922)
(1.04969 -0.000545345 -0.000349552)
(1.05093 -0.000763835 -0.000642669)
(1.04933 -0.000148114 0.000611093)
(1.05172 8.68531e-05 -0.000792994)
(1.05048 -0.000485218 0.000401765)
(1.04882 5.99333e-05 -0.000743069)
(1.05171 0.00177 -0.000367471)
(1.04743 -0.000993582 0.000864241)
(1.04849 2.1389e-05 -0.000297637)
(1.05099 -1.46629e-05 0.0012853)
(1.04677 -0.00214485 0.000605314)
(1.05111 -0.000238563 0.000527938)
(1.0503 -0.000500995 0.00067605)
(1.04877 -0.000173588 0.000488574)
(1.05115 0.000480188 0.000537399)
(1.04786 -0.000295107 4.88512e-05)
(1.05072 0.000230414 0.000480477)
(1.05027 -0.000301427 -0.000485352)
(1.04867 -0.000868413 -0.000261677)
(1.05035 -0.000953859 -0.000215687)
(1.05171 -0.000468379 -0.000837687)
(1.05254 -0.000391565 0.000300879)
(1.05015 -0.000632237 -0.000892695)
(1.05318 0.00188552 0.000348932)
(1.05206 0.000387867 0.00087943)
(1.04999 0.00140442 -0.000977773)
(1.05248 0.00170575 0.00075188)
(1.04966 0.00142601 0.00032858)
(1.05058 0.000968811 -0.000788863)
(1.05066 0.000265835 0.000634725)
(1.04978 0.00151533 -0.000539748)
(1.05151 0.000127817 0.000612942)
(1.04884 5.80356e-05 0.000380395)
(1.05172 0.000785434 -0.00020069)
(1.04936 -0.000210339 0.00114216)
(1.0484 -0.00210522 -0.000355881)
(1.05464 -0.000144198 0.000919709)
(1.04987 0.000991005 5.11098e-05)
(1.05054 2.30648e-05 -0.00114417)
(1.05119 0.001154 0.000938494)
(1.04884 -0.000290462 -0.000701986)
(1.05101 -0.00133801 -0.000468392)
(1.04971 -0.000341523 0.000925101)
(1.05153 -0.000182255 -0.000851267)
(1.05063 -0.000611257 0.000165364)
(1.04962 0.000882103 -0.000701144)
(1.05123 0.00175225 -0.000416722)
(1.04687 -0.000483587 0.000622894)
(1.04871 0.000108156 6.11706e-05)
(1.05007 -0.000243771 0.00180154)
(1.04681 -0.00294966 0.000728344)
(1.05172 0.000152634 0.000765498)
(1.05024 -0.000826735 0.00107709)
(1.04931 -0.000154892 0.000636633)
(1.05101 0.00155518 0.000765924)
(1.04774 -0.000842165 0.000127922)
(1.05081 0.000939904 0.000573963)
(1.04986 -0.00043716 -0.000506172)
(1.04858 -0.00121555 -0.000477799)
(1.05043 -0.000937851 -0.000331758)
(1.05183 -0.00119213 -0.00122488)
(1.05258 -0.000409485 0.000147039)
(1.05086 -0.000663164 -0.00100879)
(1.05355 0.00207465 0.000554121)
(1.0519 0.000759363 0.00132324)
(1.0504 0.00141117 -0.00131889)
(1.05256 0.00191328 0.00105229)
(1.04945 0.00213679 0.000587716)
(1.05008 0.00124557 -0.00129895)
(1.05087 -0.0003406 0.000918026)
(1.04987 0.0022305 -0.000431476)
(1.05086 -2.51075e-05 0.00053207)
(1.04915 -0.00062419 0.000528399)
(1.05157 0.00172139 0.000111288)
(1.04821 -0.0017049 0.00108472)
(1.04859 -0.00274905 8.02739e-06)
(1.05567 -0.000225482 0.00116729)
(1.05009 0.000737416 -0.000417407)
(1.05054 0.00120274 -0.000823981)
(1.05094 0.000719339 0.00085496)
(1.04804 -0.000232369 -0.00109945)
(1.05088 -0.00204137 -7.88931e-05)
(1.05006 -0.00105038 0.00123201)
(1.0515 -0.000667825 -0.000902591)
(1.05113 -0.000411924 0.000128282)
(1.05033 0.00149879 -0.000749203)
(1.05078 0.00197183 -0.000641905)
(1.04632 0.000117262 0.000465381)
(1.04863 0.00019675 0.000623208)
(1.04897 -0.000385125 0.00231862)
(1.047 -0.00388381 0.000962554)
(1.05245 0.00067063 0.00109675)
(1.05008 -0.00113127 0.00152052)
(1.05028 9.85321e-05 0.000879349)
(1.05068 0.00284045 0.000935057)
(1.04745 -0.0013485 0.000377397)
(1.05097 0.00159769 0.000641788)
(1.04909 -0.000504304 -0.000824)
(1.04838 -0.00131522 -0.000577992)
(1.05032 -0.00125779 -0.000615721)
(1.052 -0.00181415 -0.00166542)
(1.05281 -0.000477095 -0.000120296)
(1.05159 -0.000639028 -0.0011595)
(1.05399 0.00214984 0.00102879)
(1.05164 0.00108261 0.00185271)
(1.05066 0.00126411 -0.00152538)
(1.05289 0.00197353 0.00147741)
(1.04926 0.00329347 0.000697652)
(1.04914 0.00114933 -0.00160442)
(1.05124 -0.000606829 0.00135709)
(1.04997 0.00312286 -0.000377763)
(1.04982 -0.000835173 0.000579735)
(1.04984 -0.00102092 0.000810163)
(1.05107 0.00227808 0.000214351)
(1.04671 -0.00386131 0.00108568)
(1.04922 -0.00362477 0.000553515)
(1.05668 -0.000838069 0.00127569)
(1.05069 0.000644094 -0.000722093)
(1.05052 0.00265963 -0.000475681)
(1.05034 0.000280651 0.000586099)
(1.04717 -0.000429902 -0.00137912)
(1.05051 -0.00317298 0.000586665)
(1.05048 -0.00228962 0.00154623)
(1.05185 -0.0014278 -0.000792611)
(1.05188 -0.000206962 0.000240307)
(1.05099 0.00205082 -0.0009899)
(1.05037 0.0024791 -0.000948062)
(1.04578 0.00075025 0.000406891)
(1.04837 0.000598959 0.00120714)
(1.04761 -0.000932842 0.00289496)
(1.04737 -0.00474981 0.00136651)
(1.05329 0.00124232 0.0015219)
(1.04986 -0.00145873 0.00204757)
(1.05159 0.000916245 0.00111346)
(1.0501 0.00411046 0.0011747)
(1.04695 -0.00156359 0.000945785)
(1.05124 0.00200096 0.000578723)
(1.04815 -0.000466575 -0.0013194)
(1.04808 -0.00133493 -0.000703607)
(1.05008 -0.00203107 -0.00109817)
(1.0522 -0.00228585 -0.00216976)
(1.05314 -0.000418486 -0.000570892)
(1.05219 -0.000512935 -0.00119523)
(1.05439 0.00198381 0.00178694)
(1.05132 0.00135637 0.00245301)
(1.0508 0.000600417 -0.0015334)
(1.05357 0.00203483 0.00187871)
(1.04897 0.00474907 0.000699213)
(1.04797 0.000764825 -0.00167162)
(1.0519 -0.000281061 0.00194429)
(1.04975 0.00349927 -0.000226439)
(1.04857 -0.00202653 0.000733691)
(1.05069 -0.00127269 0.00116272)
(1.04991 0.00160665 0.000246658)
(1.04486 -0.0065238 0.00128912)
(1.05001 -0.0049371 0.00118435)
(1.05782 -0.00241739 0.00118096)
(1.05186 0.000931439 -0.000784241)
(1.05032 0.00435562 -0.000160991)
(1.04924 -0.000111727 9.55472e-05)
(1.04611 -0.00114495 -0.0014189)
(1.04983 -0.0050673 0.00155965)
(1.05093 -0.00419693 0.00197333)
(1.05256 -0.00248542 -0.000470705)
(1.05296 -6.15258e-05 0.000453486)
(1.05173 0.00258271 -0.00143562)
(1.05004 0.00315195 -0.00139897)
(1.04527 0.00183468 0.000379815)
(1.04768 0.00114865 0.00190527)
(1.04603 -0.00174258 0.00359035)
(1.04807 -0.004979 0.00186928)
(1.05415 0.00159054 0.00208064)
(1.04985 -0.00142251 0.0026907)
(1.05318 0.00235285 0.00129653)
(1.04926 0.00513352 0.00160059)
(1.04623 -0.00137972 0.00167617)
(1.05146 0.00219865 0.000285178)
(1.04722 -0.000221677 -0.00186337)
(1.04742 -0.00104535 -0.000913258)
(1.04977 -0.00305751 -0.00161945)
(1.05274 -0.00241962 -0.00272968)
(1.0536 -0.000115579 -0.00132891)
(1.05259 -0.000545895 -0.00117171)
(1.05473 0.00158344 0.00289767)
(1.05071 0.00121436 0.00343751)
(1.05073 -0.000697455 -0.00120497)
(1.05464 0.00207476 0.00224878)
(1.04853 0.00601944 0.000770828)
(1.04667 0.000688161 -0.00135204)
(1.05266 0.000669443 0.0027963)
(1.04929 0.00328827 0.00020335)
(1.04734 -0.00335875 0.00118108)
(1.05106 -0.00190587 0.00165342)
(1.04765 -0.000329789 8.85878e-05)
(1.04226 -0.00960231 0.00161804)
(1.04998 -0.00743075 0.00189486)
(1.05857 -0.00505821 0.0011497)
(1.05334 0.00189905 -0.000476206)
(1.04969 0.00625509 0.000118436)
(1.04734 -0.000543878 -0.000356296)
(1.04444 -0.00257279 -0.0012936)
(1.04872 -0.00808715 0.00273007)
(1.05146 -0.00703437 0.00269274)
(1.05367 -0.00408168 7.54335e-05)
(1.05424 -0.000226213 0.000811088)
(1.05249 0.0028491 -0.00189049)
(1.04994 0.00437162 -0.00199175)
(1.04479 0.00346394 0.000344146)
(1.04655 0.00139039 0.00269791)
(1.04451 -0.00235101 0.00443609)
(1.04882 -0.00470328 0.0024713)
(1.0549 0.00159932 0.00281883)
(1.05019 -0.000526987 0.00325837)
(1.0547 0.00420682 0.00139868)
(1.04818 0.00607135 0.00228218)
(1.04535 -0.000697118 0.00246511)
(1.0516 0.00190184 -0.000213444)
(1.04626 0.000108618 -0.00236693)
(1.04655 -0.000750688 -0.00126779)
(1.04948 -0.00444082 -0.00202711)
(1.05376 -0.00184357 -0.0034455)
(1.05412 0.000429786 -0.00240278)
(1.05276 -0.000604885 -0.00102449)
(1.05488 0.000920042 0.00436019)
(1.04956 0.000300063 0.00481933)
(1.05021 -0.00260432 -0.000710451)
(1.05558 0.00209061 0.00256095)
(1.04791 0.00714401 0.000914495)
(1.04579 0.00110328 -0.000558307)
(1.05389 0.00185578 0.00426279)
(1.04912 0.00293893 0.00113139)
(1.04636 -0.00460927 0.00181085)
(1.05036 -0.00348044 0.00237952)
(1.04315 -0.00357974 8.20767e-05)
(1.03654 -0.0132251 0.00231907)
(1.04647 -0.0115985 0.00280888)
(1.05719 -0.00894727 0.00139495)
(1.0536 0.00351454 0.000216395)
(1.04737 0.00855551 0.000471318)
(1.04364 -0.0011145 -0.000686013)
(1.04118 -0.00532891 -0.000937595)
(1.04622 -0.0129612 0.00442641)
(1.05133 -0.0110671 0.00370093)
(1.0546 -0.00628266 0.000804866)
(1.05546 -0.0011206 0.00135515)
(1.0534 0.00284941 -0.00247717)
(1.05011 0.00623028 -0.00290792)
(1.04405 0.0052783 0.000460793)
(1.04494 0.00166705 0.00356135)
(1.04306 -0.00209538 0.00509512)
(1.04935 -0.00409474 0.00311059)
(1.05566 0.0016387 0.00371856)
(1.05107 0.00134072 0.00382893)
(1.05606 0.00600331 0.00139231)
(1.04698 0.00704542 0.00296311)
(1.04402 0.000269811 0.00314632)
(1.05123 0.000929964 -0.000839648)
(1.04545 0.000880685 -0.00297045)
(1.04463 -0.000568272 -0.00157551)
(1.04947 -0.00574322 -0.00232949)
(1.05592 -0.000332221 -0.00438026)
(1.05514 0.00106817 -0.00393906)
(1.05298 -0.000469458 -0.0011191)
(1.05457 -0.000198094 0.00612849)
(1.04695 -0.00170787 0.00700571)
(1.04854 -0.00518054 0.000223743)
(1.05588 0.00161122 0.00294339)
(1.04664 0.00827863 0.0012201)
(1.04527 0.00223656 0.000620892)
(1.056 0.00333743 0.00654607)
(1.04975 0.00288659 0.00263322)
(1.04638 -0.00566906 0.00279821)
(1.04967 -0.00558859 0.0032541)
(1.03803 -0.00740755 -0.000113462)
(1.02876 -0.0172188 0.00334403)
(1.03893 -0.0175517 0.00423354)
(1.05196 -0.0141946 0.00220776)
(1.05073 0.00554828 0.00151015)
(1.04181 0.0113091 0.00134631)
(1.03628 -0.00178104 -0.000857162)
(1.03406 -0.00994581 -0.000367836)
(1.04013 -0.0202959 0.00668095)
(1.04853 -0.0166606 0.00500862)
(1.05347 -0.00981805 0.0014584)
(1.05523 -0.00321459 0.00202286)
(1.05387 0.0029906 -0.00300444)
(1.05031 0.00889927 -0.0040464)
(1.04329 0.00723905 0.000384243)
(1.04317 0.00223545 0.00423001)
(1.04106 -0.000873895 0.00548293)
(1.049 -0.00324908 0.00350631)
(1.0563 0.00204603 0.00444888)
(1.05233 0.00414742 0.00417128)
(1.05742 0.00772762 0.00117769)
(1.04577 0.00836554 0.00349451)
(1.04189 0.000736381 0.00370413)
(1.05016 -0.000863001 -0.00139755)
(1.04415 0.00247539 -0.00349847)
(1.0406 -0.00129357 -0.000910685)
(1.04879 -0.00713781 -0.00205648)
(1.0585 0.00183436 -0.00572475)
(1.05673 0.00215098 -0.00609616)
(1.05368 0.000426969 -0.00141906)
(1.05414 -0.0018455 0.00780028)
(1.04353 -0.00472615 0.00914686)
(1.04656 -0.0082653 0.000658657)
(1.05686 0.000420784 0.00275095)
(1.04537 0.00918698 0.00126284)
(1.04352 0.00408191 0.0019063)
(1.05589 0.00524998 0.00993177)
(1.04908 0.00311505 0.00492832)
(1.04881 -0.00748804 0.00389202)
(1.05517 -0.00912255 0.00390693)
(1.04167 -0.0116416 -0.000865393)
(1.02926 -0.0207255 0.0041216)
(1.03662 -0.023936 0.0054738)
(1.04938 -0.0195542 0.00286666)
(1.0482 0.00866869 0.00305885)
(1.03523 0.0151638 0.00313048)
(1.02701 -0.00257223 -0.000556657)
(1.02301 -0.0168873 0.000477656)
(1.02828 -0.0299876 0.00881739)
(1.0396 -0.0236697 0.0055174)
(1.04716 -0.0153687 0.00118)
(1.05168 -0.00666848 0.00218321)
(1.05319 0.00276925 -0.0037512)
(1.0499 0.011368 -0.00530121)
(1.0418 0.00933177 0.000205379)
(1.04107 0.00347402 0.00412652)
(1.03764 0.00118698 0.00483014)
(1.0474 -0.00214252 0.00323918)
(1.05692 0.0028377 0.00505509)
(1.05377 0.0069898 0.00450018)
(1.05901 0.00923581 0.00044925)
(1.04409 0.0102683 0.00309041)
(1.03836 0.000410937 0.00324827)
(1.0486 -0.00300193 -0.00225086)
(1.04202 0.00487112 -0.00343443)
(1.0342 -0.00313528 0.00114757)
(1.04461 -0.00830339 -0.000991185)
(1.05825 0.00416405 -0.00723277)
(1.05636 0.0028929 -0.00868031)
(1.0546 0.00188343 -0.00164866)
(1.05643 -0.00462999 0.00914161)
(1.04362 -0.0094982 0.0107191)
(1.04731 -0.0127048 -0.000343025)
(1.0604 -0.00122224 0.000795546)
(1.04466 0.0126876 -0.000143335)
(1.03759 0.00896801 0.00209419)
(1.04989 0.00718753 0.0145739)
(1.04571 0.00201536 0.00907949)
(1.05099 -0.0117472 0.00631862)
(1.06259 -0.0154809 0.00516482)
(1.04987 -0.0168395 -0.00227437)
(1.03488 -0.023422 0.00405146)
(1.0396 -0.0296488 0.0053108)
(1.0515 -0.0238951 0.00154716)
(1.04924 0.0136479 0.00393947)
(1.03315 0.0211356 0.005474)
(1.02329 -0.00295973 9.60271e-05)
(1.01331 -0.0254946 0.00124551)
(1.01095 -0.0411117 0.00893822)
(1.02221 -0.0320842 0.00222308)
(1.03314 -0.0232045 -0.0034466)
(1.04333 -0.0118443 -0.000208435)
(1.05029 0.00243802 -0.0047633)
(1.04764 0.0145184 -0.00663848)
(1.03885 0.0119529 -0.000688879)
(1.03951 0.00525047 0.00267274)
(1.03444 0.00426026 0.00205928)
(1.0444 -0.000667604 0.00120911)
(1.05592 0.00359804 0.00566769)
(1.05397 0.00971312 0.00552524)
(1.06008 0.0105688 -0.000561106)
(1.04167 0.0122639 0.00135254)
(1.03411 -0.00103936 0.0018047)
(1.04768 -0.00473779 -0.00266619)
(1.04017 0.00856262 -0.00186261)
(1.02901 -0.00569097 0.00412728)
(1.03536 -0.00919302 0.000498752)
(1.05214 0.00590772 -0.00971365)
(1.04862 0.0036499 -0.011144)
(1.05393 0.00235949 0.000383372)
(1.05708 -0.0101192 0.0121113)
(1.03952 -0.0149671 0.0120616)
(1.045 -0.0171482 -0.0027399)
(1.05829 -0.00283132 -0.0022087)
(1.04056 0.0204905 -0.00485429)
(1.03247 0.0190318 -0.000605263)
(1.0435 0.00869497 0.0187804)
(1.0424 -0.00413036 0.013014)
(1.04437 -0.0225629 0.0108946)
(1.04381 -0.0274701 0.0106705)
(1.02802 -0.0239422 0.00124273)
(1.01629 -0.0257727 0.0070514)
(1.02618 -0.0356952 0.00494901)
(1.03589 -0.0282889 -0.00299423)
(1.03724 0.0189789 0.00256578)
(1.03322 0.0267184 0.00871068)
(1.03124 -0.00457186 0.00406282)
(1.01165 -0.0341057 0.00520012)
(0.986534 -0.0513626 0.00656539)
(0.988377 -0.0418668 -0.00832269)
(0.999534 -0.0339814 -0.0166911)
(1.02036 -0.0192344 -0.0087287)
(1.03851 0.000535767 -0.00748167)
(1.03894 0.0166846 -0.00816888)
(1.03309 0.0135638 -0.00266919)
(1.03999 0.00574609 -0.000650113)
(1.03545 0.00871154 -0.00357656)
(1.03917 0.00163481 -0.00194938)
(1.04949 0.00351086 0.00837929)
(1.05194 0.0107627 0.00840234)
(1.05834 0.0113691 -0.00193317)
(1.03658 0.0147676 -0.00154545)
(1.0289 -0.00447306 8.26053e-05)
(1.04928 -0.00649239 -0.00126905)
(1.04518 0.0134046 0.00187698)
(1.02869 -0.0071905 0.00314036)
(1.02945 -0.00830327 -0.00136476)
(1.04784 0.00612607 -0.0161683)
(1.03254 0.00232347 -0.01332)
(1.04774 0.002163 0.00686886)
(1.03512 -0.0180859 0.0250165)
(0.999163 -0.0249194 0.0224293)
(1.0113 -0.0236714 -0.0039127)
(1.0243 -0.00273038 -0.00867672)
(1.02512 0.0325253 -0.0132482)
(1.03566 0.0330142 -0.00287598)
(1.03962 0.0102 0.0168236)
(1.0373 -0.0116743 0.00467604)
(1.02636 -0.0331896 0.0109815)
(0.997674 -0.0431603 0.0163323)
(0.985348 -0.0365364 0.00538336)
(0.989359 -0.0292119 0.00782445)
(0.999366 -0.0415278 0.00344577)
(0.981901 -0.0342003 -0.00658456)
(0.986659 0.0203019 0.00432024)
(1.02156 0.0261147 0.0164528)
(1.04129 -0.00967222 0.0103262)
(1.01462 -0.0385752 0.012462)
(0.955302 -0.0532405 0.00464226)
(0.926874 -0.0486897 -0.021665)
(0.917445 -0.0480216 -0.0359214)
(0.9494 -0.0296622 -0.0215715)
(0.996748 -0.00148408 -0.0127053)
(1.0178 0.0198348 -0.01633)
(1.02309 0.0138065 -0.0112791)
(1.03735 0.00446647 -0.00651829)
(1.03632 0.015611 -0.0120847)
(1.03306 0.00602937 -0.00661245)
(1.04099 0.00293935 0.0132114)
(1.05207 0.0115866 0.0122691)
(1.05204 0.0115789 -0.00435084)
(1.02407 0.0167774 -0.00453739)
(1.02028 -0.00891936 0.0003382)
(1.04957 -0.010061 0.00178298)
(1.05855 0.0177234 0.00246118)
(1.03879 -0.00905828 -0.0057811)
(1.02763 -0.0115157 -0.00671212)
(1.03574 0.00797169 -0.020309)
(1.01714 0.00614658 -0.00829621)
(1.04332 0.000261608 0.0200007)
(0.981335 -0.0264333 0.0493743)
(0.907171 -0.0337681 0.0362765)
(0.929098 -0.0284419 -0.012939)
(0.957437 -0.00342261 -0.018777)
(1.0022 0.0398554 -0.0150369)
(1.0404 0.0474343 -0.00411783)
(1.03138 0.0185781 0.00186312)
(1.02072 -0.0074168 -0.0087593)
(1.01267 -0.0301987 0.00813554)
(0.984537 -0.0513497 0.0065768)
(0.985226 -0.0462782 -0.00982953)
(0.981681 -0.0295641 -0.00603642)
(0.966174 -0.0412409 0.000924341)
(0.913779 -0.0350872 0.00313429)
(0.916753 0.0103488 0.0267795)
(0.989121 0.00770958 0.0315364)
(1.01691 -0.0229297 0.0108815)
(0.995685 -0.0399375 0.0160089)
(0.924888 -0.0468158 0.00217988)
(0.86652 -0.0489654 -0.0350601)
(0.823408 -0.0603453 -0.0531869)
(0.861297 -0.0467021 -0.0306276)
(0.942576 -0.0149195 -0.0230457)
(0.978094 0.0134133 -0.0407952)
(0.986988 0.00866701 -0.0303967)
(1.00493 0.0021862 -0.0163959)
(1.01292 0.0210151 -0.0254241)
(1.02552 0.0091865 -0.0134153)
(1.05028 0.000986056 0.0137781)
(1.07024 0.0100213 0.00797222)
(1.04652 0.0143502 -0.0108907)
(1.01494 0.0208733 -0.00839919)
(1.01131 -0.0161729 7.80873e-05)
(1.03613 -0.0160606 0.00176351)
(1.07658 0.0223184 -0.00778323)
(1.03489 -0.0126344 -0.0249074)
(0.997726 -0.01173 -0.0110616)
(1.02299 0.00603829 -0.00867686)
(1.03184 -0.000500176 0.0033845)
(1.00995 -0.00536276 0.0301169)
(0.905686 -0.0301757 0.0723341)
(0.830923 -0.0438999 0.0430767)
(0.861734 -0.0401467 -0.0344462)
(0.905366 -0.00512374 -0.0291929)
(0.973487 0.0477914 -0.0115589)
(1.03283 0.0541179 -0.0206506)
(1.0296 0.0226154 -0.0136273)
(1.01867 -0.00127279 -0.00153014)
(1.03076 -0.0318199 0.00221684)
(1.02088 -0.0586273 -0.0281281)
(1.01082 -0.0423945 -0.0415619)
(0.956515 -0.0202935 -0.0171148)
(0.93647 -0.0377224 0.00428244)
(0.89271 -0.0414348 0.0206817)
(0.900421 -0.00772545 0.0467688)
(0.973822 -0.00481861 0.0190599)
(0.960661 -0.0279139 -0.011959)
(0.958688 -0.0412851 0.0184001)
(0.918342 -0.0444583 0.00857311)
(0.869417 -0.0463114 -0.0533458)
(0.809726 -0.0635412 -0.0779714)
(0.852357 -0.0566611 -0.0468423)
(0.92457 -0.0262612 -0.0526179)
(0.909423 0.00628708 -0.0761332)
(0.912132 0.00553469 -0.0392359)
(0.92953 0.0032774 -0.0165123)
(0.958447 0.0252625 -0.0328229)
(1.01451 0.00528592 -0.0167677)
(1.05946 -0.00901382 0.0126114)
(1.09181 0.00562599 -8.41157e-05)
(1.0536 0.0160832 -0.0200937)
(1.01622 0.0274738 -0.00868086)
(0.987575 -0.0176042 0.00627359)
(1.02487 -0.0241874 -0.00124601)
(1.10536 0.0183536 -0.0288112)
(0.959566 -0.0122752 -0.0337583)
(0.973809 -0.0258976 0.00761844)
(1.05344 -0.0049627 0.00985782)
(1.00527 0.002837 -0.00129489)
(0.90877 -0.00656223 0.0144973)
(0.871659 -0.0458886 0.062281)
(0.856072 -0.0601908 0.0346403)
(0.861913 -0.049899 -0.0531086)
(0.88039 -0.00116745 -0.0305451)
(0.945399 0.0584537 -0.0123653)
(1.0202 0.0515591 -0.0273254)
(1.06202 0.0169824 0.00452874)
(1.07334 -0.00607377 0.00566763)
(1.06154 -0.0443048 -0.032425)
(1.01867 -0.0631183 -0.0749008)
(0.982886 -0.033492 -0.0567413)
(0.942953 -0.0143708 -0.0162305)
(0.95926 -0.0387902 -0.00748617)
(0.921892 -0.0534121 0.0160471)
(0.968834 -0.017075 0.0227994)
(1.0119 -0.00274454 -0.0354085)
(0.933557 -0.0245211 -0.0436634)
(0.939196 -0.0450528 0.0336933)
(0.900128 -0.0462388 0.0129455)
(0.847755 -0.0420589 -0.0794597)
(0.797974 -0.0646402 -0.0722301)
(0.873669 -0.0544309 -0.0306192)
(0.909372 -0.0191232 -0.069149)
(0.83125 0.00965061 -0.0925297)
(0.848801 0.0132828 -0.0280115)
(0.867741 0.00471474 -0.0115824)
(0.967729 0.018359 -0.0397311)
(1.04042 -0.00682237 -0.0160896)
(1.01376 -0.0309872 0.0246092)
(1.05395 -0.0070414 0.00305841)
(1.03787 0.025702 -0.0299389)
(0.979328 0.0340017 -0.00727445)
(0.944172 -0.0331482 0.0266504)
(1.02521 -0.0386302 0.00112415)
(1.07415 0.0236511 -0.0517865)
(0.873855 -0.0250472 0.0113597)
(0.949428 -0.0358717 0.0349965)
(1.01663 0.00160262 -0.00172338)
(0.915076 0.0172629 -0.0122869)
(0.854506 -0.0152086 -0.02889)
(0.808265 -0.0801158 0.0184801)
(0.83296 -0.0771202 0.0129503)
(0.848634 -0.0429658 -0.0646216)
(0.84729 0.0160493 -0.0315071)
(0.919473 0.0636682 -0.0248411)
(1.00914 0.0344097 -0.0114773)
(1.09208 -0.00424619 0.0352293)
(1.06311 -0.0217046 -0.00302838)
(0.977709 -0.0538438 -0.0651325)
(0.901737 -0.0706272 -0.0849225)
(0.893568 -0.0415867 -0.0337738)
(0.940384 -0.0127478 -0.017535)
(0.961395 -0.0309736 -0.0324429)
(0.891527 -0.0528201 0.00664969)
(1.01071 -0.0136902 -0.000129065)
(0.998535 0.0112518 -0.0865632)
(0.897849 -0.016931 -0.0589765)
(0.903561 -0.050981 0.0515606)
(0.80281 -0.0411982 0.0027828)
(0.770627 -0.0339658 -0.0692505)
(0.809311 -0.0707164 -0.00180447)
(0.921989 -0.0623661 0.0248953)
(0.885251 -0.0163134 -0.0511537)
(0.775121 0.0168748 -0.0666974)
(0.835582 0.0154748 -0.00938563)
(0.877966 -0.0107117 -0.00859969)
(1.03854 -0.00422913 -0.046163)
(1.04575 -0.0203397 -0.00326436)
(0.930251 -0.0401488 0.0655962)
(0.991668 -0.00626888 0.0249168)
(0.982377 0.0392414 -0.0285704)
(0.934342 0.0312355 0.00146221)
(0.922347 -0.0431688 0.0399411)
(0.970312 -0.028792 -0.0150602)
(0.96649 0.0286983 -0.0595191)
(0.830329 -0.0274094 0.0544258)
(0.895202 -0.0248166 0.0127201)
(0.913336 0.00987146 -0.0171983)
(0.875732 0.017719 -0.0269729)
(0.844761 -0.0325071 -0.0736633)
(0.683859 -0.111538 -0.00453785)
(0.716669 -0.0943862 0.00160673)
(0.804314 -0.0386451 -0.0650146)
(0.844478 0.028182 -0.0226737)
(0.927529 0.0595351 -0.0150112)
(1.01474 0.0198239 0.0219563)
(1.0326 -0.0129096 0.042427)
(0.918119 -0.0191987 -0.0291148)
(0.876196 -0.0520181 -0.0688839)
(0.79264 -0.0823383 -0.0522233)
(0.775208 -0.0513644 -0.0234333)
(0.880784 -0.0016307 -0.0498849)
(0.92067 -0.0187659 -0.0446647)
(0.843486 -0.0481739 0.0231458)
(0.928611 -0.00283827 -0.00924987)
(0.851939 0.0248937 -0.112238)
(0.830549 -0.0200156 -0.0399224)
(0.841918 -0.0632964 0.0658584)
(0.748358 -0.0355853 0.010778)
(0.795158 -0.0325093 -0.0252476)
(0.840993 -0.077958 0.0422956)
(0.915371 -0.0589632 0.0405414)
(0.798226 0.00356695 -0.0419919)
(0.753348 0.0238625 -0.0538806)
(0.889191 -0.00410432 -0.000587172)
(0.902164 -0.0304723 -0.00785648)
(0.999917 -0.0168939 -0.0311899)
(0.969929 -0.0376341 0.0372514)
(0.888427 -0.0509619 0.111092)
(0.961649 -0.00242262 0.0492133)
(0.934697 0.0522829 -0.0118306)
(0.93979 0.0265687 -0.00406281)
(0.917116 -0.0523106 0.0207125)
(0.899835 -0.024659 -0.0415914)
(0.898008 0.021432 -0.0383269)
(0.817433 -0.0259022 0.0538659)
(0.823051 -0.0246587 0.00451003)
(0.843263 0.0028062 -0.0157761)
(0.881464 0.0126961 -0.0513313)
(0.845322 -0.0459268 -0.0456648)
(0.660706 -0.127315 -0.00163876)
(0.673733 -0.104883 -0.0396224)
(0.757215 -0.0373428 -0.0709853)
(0.828167 0.0372101 -0.00464746)
(0.958655 0.0636042 0.0129587)
(1.00559 0.0207965 0.0374704)
(0.903332 -0.00856795 0.0163572)
(0.838208 -0.0189 -0.0427548)
(0.874692 -0.052289 -0.0409054)
(0.732097 -0.0757915 -0.0409281)
(0.679556 -0.039321 -0.0585005)
(0.834392 0.0103549 -0.0734407)
(0.874483 -0.0113316 -0.0355242)
(0.77587 -0.0364852 0.0111426)
(0.803012 0.00444044 -0.0369308)
(0.764247 0.0238535 -0.0979033)
(0.81988 -0.0251833 0.00680235)
(0.806694 -0.0666746 0.0643615)
(0.756866 -0.0406077 -0.00725913)
(0.817942 -0.0425229 -0.0204777)
(0.809318 -0.0748639 0.0295906)
(0.823711 -0.0412516 0.0123809)
(0.707064 0.0192964 -0.0653044)
(0.784081 0.0167899 -0.0496873)
(0.917101 -0.0133722 0.0184091)
(0.878529 -0.016587 -0.00544188)
(0.911014 -0.0147515 -0.00453594)
(0.878306 -0.0648761 0.0765444)
(0.835297 -0.0654381 0.127808)
(0.881976 0.0111941 0.0602417)
(0.909368 0.0657217 -0.022258)
(0.993097 0.0072612 -0.0176861)
(0.908257 -0.0543017 0.00221959)
(0.844125 -0.0131906 -0.061795)
(0.870522 0.0185515 -0.0201766)
(0.794591 -0.0259936 0.0694152)
(0.800261 -0.0199119 0.0210527)
(0.842963 0.000413113 -0.0481378)
(0.901218 0.00716314 -0.0603674)
(0.86909 -0.0595267 0.0147953)
(0.661106 -0.132793 -0.0290304)
(0.629175 -0.103378 -0.125426)
(0.68628 -0.0285305 -0.101182)
(0.817891 0.0489139 -0.00381871)
(0.98888 0.0658569 0.0196686)
(0.97961 0.020364 0.0205348)
(0.842073 -0.0119972 -0.0010716)
(0.863024 -0.0312953 -0.0199746)
(0.894375 -0.0537371 -0.0131706)
(0.696648 -0.0529292 -0.0449593)
(0.633515 -0.0221084 -0.0922264)
(0.797844 0.00253677 -0.0794472)
(0.798574 -0.00878054 -0.0307927)
(0.692348 -0.0204262 -0.0144698)
(0.733135 0.00372741 -0.0549755)
(0.777682 0.0127074 -0.0610207)
(0.838799 -0.0289391 0.0497854)
(0.786529 -0.0621034 0.0573033)
(0.768267 -0.0381043 -0.0223475)
(0.818092 -0.0339225 -0.00977551)
(0.775599 -0.0540839 0.0294028)
(0.748944 -0.0200962 -0.0140229)
(0.677211 0.0244591 -0.0820318)
(0.811423 0.0164627 -0.0298718)
(0.912553 -0.000323032 0.0327543)
(0.853728 0.000472171 -0.0132599)
(0.849233 -0.0188906 0.0157512)
(0.807998 -0.0752905 0.116798)
(0.788643 -0.061604 0.111013)
(0.792288 0.0286341 0.0105716)
(0.903655 0.057464 -0.0509623)
(0.991506 -0.0126117 0.0166283)
(0.849289 -0.0331348 -0.0122995)
(0.767296 0.00558105 -0.0981165)
(0.82696 0.00729592 -0.0232633)
(0.779002 -0.0178055 0.0708957)
(0.814011 -0.00861279 0.0100211)
(0.850373 -0.000153326 -0.0695024)
(0.912286 -0.00932731 -0.050784)
(0.835827 -0.0636147 0.0464012)
(0.602255 -0.112629 -0.051052)
(0.579256 -0.0839294 -0.200804)
(0.673208 -0.0182232 -0.122103)
(0.818085 0.0461432 0.00619328)
(0.977489 0.0559094 0.00507638)
(0.98472 0.0161123 0.00411979)