/*--------------------------------*- C++ -*----------------------------------*\
  =========                 |
  \\      /  F ield         | OpenFOAM: The Open Source CFD Toolbox
   \\    /   O peration     | Website:  https://openfoam.org
    \\  /    A nd           | Version:  10
     \\/     M anipulation  |
\*---------------------------------------------------------------------------*/
FoamFile
{
    format      ascii;
    class       volVectorField;
    location    "18";
    object      UMean;
}
// * * * * * * * * * * * * * * * * * * * * * * * * * * * * * * * * * * * * * //

dimensions      [0 1 -1 0 0 0 0];

internalField   nonuniform List<vector> 
25600
(
(1.03178 2.38734e-05 1.70246e-05)
(1.03175 1.21935e-05 4.53296e-06)
(1.03177 1.72235e-05 7.44589e-06)
(1.03176 2.85652e-05 1.18419e-05)
(1.03173 -4.81891e-06 1.44862e-06)
(1.03177 1.38273e-05 4.12942e-06)
(1.03173 4.58347e-06 3.47747e-06)
(1.03175 -1.16892e-05 -1.55792e-07)
(1.03174 -3.33828e-06 -6.73946e-06)
(1.03172 -1.33533e-05 2.68652e-06)
(1.03173 -1.06143e-05 5.08691e-07)
(1.03171 -1.96483e-05 -6.45534e-06)
(1.03173 -1.87274e-05 -1.26361e-06)
(1.0317 -1.78383e-05 9.75406e-06)
(1.03169 -3.36526e-05 -7.91652e-06)
(1.03171 -4.73399e-06 3.56124e-06)
(1.0317 -2.96849e-05 5.66943e-06)
(1.03167 -2.722e-05 -9.31609e-06)
(1.0317 -2.28495e-06 1.75948e-05)
(1.03168 -3.49568e-05 -5.92957e-06)
(1.03166 -1.32353e-05 3.28421e-06)
(1.03169 -2.56734e-05 1.76784e-05)
(1.03166 -2.63051e-05 -9.69328e-07)
(1.03166 -1.6271e-05 1.39111e-05)
(1.03166 -3.36479e-05 1.09006e-05)
(1.03167 -9.73914e-06 1.15343e-05)
(1.03165 -1.16395e-05 1.22429e-05)
(1.03167 -1.62596e-05 1.06204e-05)
(1.0317 1.33894e-06 1.50952e-05)
(1.03166 -9.33663e-07 1.26772e-05)
(1.03171 1.76271e-06 8.49454e-06)
(1.03171 2.05157e-05 1.12022e-05)
(1.0317 8.99692e-06 9.74916e-06)
(1.03174 3.25299e-05 5.54218e-06)
(1.03172 2.43942e-05 4.0343e-06)
(1.03176 3.01558e-05 8.67665e-06)
(1.03175 3.27776e-05 2.93885e-06)
(1.03175 1.45722e-05 1.00131e-05)
(1.03177 4.23723e-05 9.2935e-06)
(1.03175 2.06047e-05 3.29449e-06)
(1.03177 2.19233e-05 1.63557e-05)
(1.03175 1.46508e-05 -1.09367e-06)
(1.03178 3.48274e-05 1.2288e-05)
(1.03175 2.16353e-05 6.51314e-06)
(1.03173 1.64499e-05 4.05687e-07)
(1.03177 2.53427e-05 6.45049e-06)
(1.03172 1.1142e-05 -1.3641e-06)
(1.03174 8.53336e-06 2.48226e-06)
(1.03174 3.0403e-06 -5.69786e-06)
(1.03172 5.98266e-07 -1.05598e-07)
(1.03172 -9.67488e-06 4.23716e-06)
(1.0317 -5.46641e-06 -4.65931e-06)
(1.03173 -1.83955e-05 4.42442e-07)
(1.03169 -1.50508e-05 1.47992e-05)
(1.0317 -2.3213e-05 -7.66817e-06)
(1.03171 -4.23301e-06 5.73814e-06)
(1.03168 -1.79189e-05 8.71508e-06)
(1.03169 -2.91323e-05 -7.32931e-06)
(1.03169 1.51832e-05 2.05914e-05)
(1.03167 -3.59195e-05 -3.80453e-06)
(1.03167 -5.02539e-06 6.12056e-06)
(1.03167 -1.79155e-05 2.10062e-05)
(1.03166 -3.13692e-05 2.35083e-06)
(1.03166 -8.63126e-06 1.59803e-05)
(1.03167 -3.58193e-05 1.25745e-05)
(1.03168 -4.31528e-06 1.48358e-05)
(1.03165 -2.55502e-05 1.71357e-05)
(1.03167 -7.554e-06 6.34608e-06)
(1.0317 -4.52572e-06 2.42703e-05)
(1.03166 -1.22037e-05 1.38371e-05)
(1.03172 7.45417e-06 1.06678e-05)
(1.03171 6.92469e-06 1.57776e-05)
(1.0317 6.14442e-06 9.42128e-06)
(1.03175 2.2356e-05 8.13188e-06)
(1.03172 2.63514e-05 4.30096e-06)
(1.03176 2.13724e-05 1.06613e-05)
(1.03174 2.86008e-05 2.0241e-06)
(1.03175 2.3311e-05 1.15211e-05)
(1.03177 3.04808e-05 5.59232e-06)
(1.03174 2.91217e-05 5.49878e-06)
(1.03176 2.28525e-05 1.62046e-05)
(1.03176 2.45472e-05 2.70939e-06)
(1.03178 4.54583e-05 1.73499e-05)
(1.03174 2.07265e-05 6.89931e-06)
(1.03173 3.88835e-05 5.43791e-06)
(1.03176 3.16712e-05 1.17129e-05)
(1.03171 1.89888e-05 1.47594e-07)
(1.03174 2.3221e-05 6.6307e-06)
(1.03173 6.5228e-06 1.45976e-06)
(1.03171 7.14955e-06 1.45079e-06)
(1.03172 -5.16349e-06 8.03905e-06)
(1.0317 5.26216e-06 -6.27799e-07)
(1.03172 -1.57702e-05 4.58835e-06)
(1.03169 -7.2323e-06 1.80487e-05)
(1.0317 -9.46641e-06 -4.64361e-06)
(1.03171 -7.4959e-06 1.07166e-05)
(1.03167 -9.42495e-06 1.14356e-05)
(1.0317 -2.92325e-05 -7.01049e-07)
(1.03169 1.58978e-05 2.38064e-05)
(1.03166 -3.351e-05 1.16647e-06)
(1.03167 -6.12971e-06 1.42283e-05)
(1.03166 -1.79856e-05 2.73644e-05)
(1.03166 -3.48575e-05 9.00289e-06)
(1.03165 -1.16381e-05 2.40405e-05)
(1.03167 -3.08724e-05 1.95958e-05)
(1.03168 -1.17068e-05 2.09158e-05)
(1.03165 -3.35982e-05 2.44965e-05)
(1.03168 -5.44773e-06 1.05352e-05)
(1.03169 -1.69137e-05 3.58956e-05)
(1.03167 -2.27956e-05 1.73161e-05)
(1.03173 4.15536e-06 1.8558e-05)
(1.03171 -8.6435e-06 2.22874e-05)
(1.03171 3.81388e-06 1.07635e-05)
(1.03175 1.6162e-05 1.40796e-05)
(1.03172 2.35735e-05 8.85963e-06)
(1.03176 1.97387e-05 1.45679e-05)
(1.03174 2.67518e-05 5.80943e-06)
(1.03175 2.73082e-05 1.2421e-05)
(1.03177 2.43385e-05 7.6904e-06)
(1.03174 3.02973e-05 9.84638e-06)
(1.03176 2.75813e-05 1.75375e-05)
(1.03177 3.33274e-05 1.04464e-05)
(1.03177 4.875e-05 2.01616e-05)
(1.03174 2.98048e-05 1.37146e-05)
(1.03174 5.51109e-05 1.15123e-05)
(1.03175 4.02065e-05 2.0444e-05)
(1.03171 2.86206e-05 5.16437e-06)
(1.03173 3.56739e-05 1.2288e-05)
(1.03172 1.12248e-05 1.08411e-05)
(1.0317 1.46303e-05 5.64686e-06)
(1.03172 2.14188e-06 1.02005e-05)
(1.03169 1.11402e-05 8.04996e-06)
(1.03171 -7.99921e-06 9.86059e-06)
(1.0317 1.03157e-06 2.22289e-05)
(1.03169 6.41441e-07 9.81392e-07)
(1.03171 -4.99013e-06 1.99217e-05)
(1.03166 -5.60725e-06 1.56405e-05)
(1.0317 -2.36056e-05 1.31896e-05)
(1.03169 1.13293e-05 2.97161e-05)
(1.03165 -2.68615e-05 1.07258e-05)
(1.03168 -1.30683e-05 2.82176e-05)
(1.03165 -2.20728e-05 3.66751e-05)
(1.03166 -3.94093e-05 1.91791e-05)
(1.03166 -1.98962e-05 3.84753e-05)
(1.03166 -2.85825e-05 3.13873e-05)
(1.03168 -2.66793e-05 2.93124e-05)
(1.03165 -3.5165e-05 3.41575e-05)
(1.03168 -1.16015e-05 2.22572e-05)
(1.03168 -2.9682e-05 4.45027e-05)
(1.03168 -3.13255e-05 2.54284e-05)
(1.03173 -8.17158e-06 3.04986e-05)
(1.03171 -2.01915e-05 2.96651e-05)
(1.03172 -2.49118e-07 1.37027e-05)
(1.03176 1.77701e-05 2.19949e-05)
(1.03172 1.73235e-05 1.28675e-05)
(1.03176 2.82943e-05 1.83684e-05)
(1.03175 2.45474e-05 9.03778e-06)
(1.03175 2.79209e-05 1.33451e-05)
(1.03177 2.4606e-05 1.32419e-05)
(1.03174 2.33417e-05 1.193e-05)
(1.03177 3.39757e-05 2.62938e-05)
(1.03177 3.65582e-05 2.00299e-05)
(1.03177 5.01978e-05 2.8705e-05)
(1.03174 4.19127e-05 2.73674e-05)
(1.03174 6.28032e-05 2.34252e-05)
(1.03174 5.14951e-05 3.59602e-05)
(1.0317 3.48696e-05 1.66814e-05)
(1.03172 4.51951e-05 2.14878e-05)
(1.03171 1.48197e-05 2.71643e-05)
(1.0317 2.00368e-05 1.25158e-05)
(1.03171 1.82726e-06 1.82298e-05)
(1.03169 7.94253e-06 2.39263e-05)
(1.03171 -2.081e-06 1.93995e-05)
(1.0317 -2.90487e-06 3.19443e-05)
(1.03169 1.08266e-06 1.28199e-05)
(1.0317 -1.58956e-06 3.30884e-05)
(1.03166 -1.73372e-05 2.44046e-05)
(1.03171 -1.58387e-05 3.21979e-05)
(1.03168 1.35548e-06 3.85053e-05)
(1.03164 -2.52406e-05 2.57444e-05)
(1.03167 -2.74794e-05 4.78915e-05)
(1.03164 -3.53341e-05 4.91901e-05)
(1.03166 -4.98346e-05 3.5202e-05)
(1.03166 -3.77294e-05 5.92937e-05)
(1.03166 -3.81898e-05 4.55139e-05)
(1.03167 -4.65153e-05 4.00866e-05)
(1.03166 -4.03034e-05 4.89602e-05)
(1.03168 -2.86431e-05 3.77577e-05)
(1.03167 -4.42945e-05 5.37664e-05)
(1.03168 -4.62381e-05 3.97844e-05)
(1.03173 -2.70267e-05 4.56249e-05)
(1.03171 -3.19628e-05 3.96359e-05)
(1.03173 -1.25605e-05 2.27458e-05)
(1.03176 2.28639e-05 3.39261e-05)
(1.03172 4.98285e-06 2.13186e-05)
(1.03176 4.06998e-05 2.50773e-05)
(1.03174 1.94046e-05 1.50673e-05)
(1.03175 2.62473e-05 1.92989e-05)
(1.03177 2.59333e-05 2.23967e-05)
(1.03174 1.28307e-05 1.49051e-05)
(1.03177 3.98011e-05 3.84973e-05)
(1.03177 3.42429e-05 3.08614e-05)
(1.03177 5.56949e-05 4.26826e-05)
(1.03174 5.26684e-05 4.55195e-05)
(1.03174 7.18566e-05 4.13389e-05)
(1.03173 6.15659e-05 5.83105e-05)
(1.0317 3.91447e-05 3.32628e-05)
(1.03171 4.89364e-05 3.71409e-05)
(1.0317 1.62882e-05 4.87904e-05)
(1.03169 2.04658e-05 2.18192e-05)
(1.0317 -1.07534e-05 3.30027e-05)
(1.03168 -1.07105e-06 4.28594e-05)
(1.0317 -2.46399e-06 3.15546e-05)
(1.03169 -2.27928e-05 4.74806e-05)
(1.03169 1.09442e-06 2.84774e-05)
(1.03169 -8.62791e-06 4.84294e-05)
(1.03165 -3.91512e-05 3.81432e-05)
(1.03171 -8.89272e-06 5.37074e-05)
(1.03167 -1.59158e-05 4.76492e-05)
(1.03162 -3.09012e-05 4.59488e-05)
(1.03166 -4.64863e-05 6.81645e-05)
(1.03163 -5.82842e-05 6.35355e-05)
(1.03165 -6.46274e-05 5.59628e-05)
(1.03166 -6.41194e-05 8.31622e-05)
(1.03165 -5.282e-05 5.93646e-05)
(1.03167 -6.6524e-05 5.52859e-05)
(1.03166 -4.72868e-05 6.43599e-05)
(1.03168 -5.05208e-05 5.21595e-05)
(1.03166 -5.68286e-05 6.58771e-05)
(1.03168 -6.61367e-05 5.80234e-05)
(1.03173 -3.94065e-05 6.15986e-05)
(1.03171 -4.88171e-05 5.04364e-05)
(1.03175 -1.94994e-05 3.34864e-05)
(1.03177 2.85008e-05 4.47644e-05)
(1.03173 -5.79992e-06 2.926e-05)
(1.03176 5.64509e-05 2.99328e-05)
(1.03173 1.33461e-05 2.04564e-05)
(1.03175 2.16498e-05 2.81383e-05)
(1.03176 2.76942e-05 2.76137e-05)
(1.03174 2.30555e-06 2.06143e-05)
(1.03177 2.90652e-05 5.51999e-05)
(1.03177 1.53846e-05 4.72516e-05)
(1.03177 5.0869e-05 6.53126e-05)
(1.03174 4.76306e-05 7.00741e-05)
(1.03173 7.10613e-05 6.90892e-05)
(1.03171 5.19707e-05 8.89908e-05)
(1.03168 3.24123e-05 5.70287e-05)
(1.03169 3.17601e-05 6.21526e-05)
(1.03168 7.60062e-06 7.57652e-05)
(1.03167 1.68049e-06 3.80928e-05)
(1.03169 -4.20239e-05 5.6744e-05)
(1.03168 -2.11896e-05 6.56869e-05)
(1.03168 -2.77388e-05 5.03524e-05)
(1.03168 -6.23458e-05 6.9391e-05)
(1.03168 -1.27351e-05 4.76318e-05)
(1.03167 -4.75971e-05 6.70931e-05)
(1.03164 -7.69591e-05 6.04884e-05)
(1.03171 -2.5772e-05 7.68337e-05)
(1.03165 -5.55972e-05 6.3167e-05)
(1.03161 -5.34097e-05 7.35489e-05)
(1.03164 -8.53616e-05 9.26168e-05)
(1.03161 -0.000101696 8.37279e-05)
(1.03164 -9.98927e-05 8.48507e-05)
(1.03165 -0.000109395 0.000110686)
(1.03164 -8.57608e-05 7.71014e-05)
(1.03166 -9.91169e-05 7.56831e-05)
(1.03165 -6.86816e-05 8.09391e-05)
(1.03166 -8.36024e-05 6.89713e-05)
(1.03165 -8.05697e-05 8.3937e-05)
(1.03168 -9.37762e-05 7.96387e-05)
(1.03173 -6.13718e-05 8.18656e-05)
(1.03171 -8.06132e-05 6.71968e-05)
(1.03177 -2.38427e-05 4.98097e-05)
(1.03176 1.90336e-05 5.90736e-05)
(1.03173 -1.50594e-05 4.11625e-05)
(1.03176 6.12499e-05 3.82896e-05)
(1.03171 -4.17386e-06 3.3512e-05)
(1.03175 4.52769e-06 4.09323e-05)
(1.03174 1.74076e-05 3.35029e-05)
(1.03173 -1.91966e-05 3.37676e-05)
(1.03177 -2.98254e-06 7.15614e-05)
(1.03176 -1.22096e-05 6.6993e-05)
(1.03176 3.09563e-05 9.11631e-05)
(1.03173 3.13785e-05 9.82544e-05)
(1.03171 4.86019e-05 0.000104511)
(1.03168 2.42527e-05 0.00012245)
(1.03166 5.89742e-06 8.49992e-05)
(1.03167 -5.03565e-06 8.9788e-05)
(1.03165 -1.63617e-05 0.000103151)
(1.03164 -3.98202e-05 5.72563e-05)
(1.03167 -9.30241e-05 8.39248e-05)
(1.03166 -5.96866e-05 8.81418e-05)
(1.03165 -8.87121e-05 7.19221e-05)
(1.03167 -0.000115032 9.15617e-05)
(1.03167 -5.92746e-05 6.68967e-05)
(1.03163 -0.000114968 8.64384e-05)
(1.03163 -0.000133435 8.63576e-05)
(1.03169 -7.05017e-05 9.55378e-05)
(1.03163 -0.000114533 8.14193e-05)
(1.03158 -8.56304e-05 0.000102139)
(1.03161 -0.000147036 0.000114197)
(1.03159 -0.000160158 0.000106388)
(1.03162 -0.000158848 0.000115765)
(1.03164 -0.000168563 0.000137077)
(1.03163 -0.000136432 9.28927e-05)
(1.03165 -0.000135938 9.52592e-05)
(1.03164 -0.000102861 9.26592e-05)
(1.03164 -0.00011961 8.33865e-05)
(1.03163 -0.000109342 0.000100499)
(1.03166 -0.000120641 9.97834e-05)
(1.03171 -9.87837e-05 0.000100606)
(1.0317 -0.000110211 8.08329e-05)
(1.03178 -3.22845e-05 6.29113e-05)
(1.03174 3.08166e-07 6.98737e-05)
(1.03172 -2.10283e-05 5.02484e-05)
(1.03174 5.40674e-05 4.70079e-05)
(1.03167 -3.46989e-05 4.97567e-05)
(1.03173 -1.86761e-05 5.03428e-05)
(1.03172 -1.21729e-05 3.90286e-05)
(1.03172 -4.98518e-05 4.91569e-05)
(1.03173 -7.01822e-05 9.21766e-05)
(1.03172 -6.90902e-05 9.26682e-05)
(1.03173 -2.35193e-05 0.000119694)
(1.03168 -2.27831e-05 0.000133852)
(1.03166 -2.14856e-05 0.000150683)
(1.03162 -4.6134e-05 0.000165431)
(1.0316 -6.81201e-05 0.000122001)
(1.03161 -8.363e-05 0.000123275)
(1.0316 -8.32069e-05 0.000135164)
(1.03156 -0.000129972 8.38259e-05)
(1.03161 -0.000186247 0.00011432)
(1.03161 -0.000154643 0.000110685)
(1.03158 -0.000207594 9.37901e-05)
(1.03162 -0.000216769 0.000111385)
(1.03161 -0.000173649 8.50827e-05)
(1.03155 -0.000237893 0.000106579)
(1.03159 -0.000241345 0.000113527)
(1.03165 -0.000171314 0.00011066)
(1.03158 -0.000206944 0.000104988)
(1.03153 -0.000153872 0.000128952)
(1.03155 -0.000254276 0.000135819)
(1.03155 -0.000259525 0.000130695)
(1.03158 -0.000264548 0.000149348)
(1.0316 -0.000268414 0.000165375)
(1.0316 -0.000221804 0.000110716)
(1.03162 -0.000199654 0.000114266)
(1.0316 -0.000165786 0.000101854)
(1.0316 -0.00017443 9.22513e-05)
(1.03159 -0.000154522 0.000114079)
(1.03162 -0.00017476 0.000118168)
(1.03167 -0.000161196 0.000116777)
(1.03168 -0.000153227 9.14913e-05)
(1.03176 -6.99138e-05 7.36942e-05)
(1.03171 -4.20174e-05 7.83186e-05)
(1.03169 -4.62328e-05 5.85935e-05)
(1.03169 9.98766e-06 6.06808e-05)
(1.03161 -9.25163e-05 6.98933e-05)
(1.0317 -7.13444e-05 5.9763e-05)
(1.03167 -8.4012e-05 4.83617e-05)
(1.03168 -0.000106985 6.84416e-05)
(1.0316 -0.000173143 0.000109994)
(1.03159 -0.000160758 0.000113458)
(1.03159 -0.000112994 0.000141621)
(1.03152 -0.000124479 0.000170045)
(1.0315 -0.000135475 0.000198308)
(1.03145 -0.00016537 0.000209946)
(1.03142 -0.000187422 0.000158179)
(1.03144 -0.000203814 0.000156158)
(1.03141 -0.000192861 0.000166374)
(1.03137 -0.000268742 0.000112587)
(1.03143 -0.000322743 0.000141454)
(1.03142 -0.000310536 0.00012985)
(1.03137 -0.000375756 0.000108759)
(1.03142 -0.000381714 0.000124853)
(1.03139 -0.000352631 9.92933e-05)
(1.03134 -0.000416717 0.000122208)
(1.03141 -0.000398538 0.000132612)
(1.03149 -0.000325973 0.000118027)
(1.03144 -0.000325471 0.000122146)
(1.03138 -0.000261556 0.000143511)
(1.03139 -0.000403208 0.000148823)
(1.03142 -0.000403325 0.000145951)
(1.03146 -0.000418068 0.000174863)
(1.0315 -0.000409113 0.000181791)
(1.03151 -0.000329942 0.000113266)
(1.03152 -0.000285117 0.000115239)
(1.0315 -0.000242265 8.90071e-05)
(1.0315 -0.000235635 8.09068e-05)
(1.03148 -0.000208053 0.000112564)
(1.03151 -0.000247349 0.000122126)
(1.03156 -0.000227929 0.000113968)
(1.03158 -0.00020825 8.697e-05)
(1.03166 -0.000130939 7.13851e-05)
(1.03159 -0.00010422 7.46499e-05)
(1.03158 -9.30489e-05 5.58916e-05)
(1.03155 -7.14386e-05 6.67781e-05)
(1.03146 -0.000166305 8.2056e-05)
(1.03156 -0.000162059 6.27007e-05)
(1.03152 -0.000188189 5.3299e-05)
(1.03154 -0.000190867 8.30837e-05)
(1.0312 -0.000341399 0.000117086)
(1.03119 -0.000316029 0.000121705)
(1.03117 -0.000273536 0.000151964)
(1.03108 -0.000307492 0.000203247)
(1.03104 -0.000330885 0.000245456)
(1.03097 -0.000376528 0.000255182)
(1.03095 -0.000391615 0.000190525)
(1.03098 -0.000407368 0.000183942)
(1.03094 -0.000385935 0.000192554)
(1.03088 -0.000487698 0.000136699)
(1.03095 -0.000545227 0.000160274)
(1.03092 -0.000563075 0.000140698)
(1.03085 -0.00063482 0.000106761)
(1.03091 -0.000648182 0.000123319)
(1.03085 -0.000630596 9.43758e-05)
(1.0308 -0.000690945 0.000120354)
(1.03091 -0.00064589 0.000131895)
(1.03101 -0.000571853 0.000109335)
(1.03099 -0.000516772 0.000117413)
(1.03094 -0.000453052 0.000136844)
(1.03096 -0.000633341 0.000138238)
(1.03102 -0.000639107 0.000139046)
(1.03107 -0.000662675 0.00018022)
(1.03115 -0.000623722 0.000171833)
(1.03118 -0.00049316 8.16005e-05)
(1.0312 -0.000423433 7.91278e-05)
(1.03118 -0.000353715 4.02783e-05)
(1.03118 -0.000325057 3.44733e-05)
(1.03115 -0.000296209 7.46767e-05)
(1.03116 -0.000354847 9.14707e-05)
(1.03122 -0.000321985 7.72479e-05)
(1.03125 -0.000301832 5.3212e-05)
(1.03133 -0.000236425 4.37485e-05)
(1.03124 -0.000208197 5.04563e-05)
(1.03121 -0.000192493 3.24719e-05)
(1.03115 -0.000207927 5.9032e-05)
(1.03106 -0.000282569 7.8714e-05)
(1.03116 -0.000319528 5.8968e-05)
(1.03112 -0.00033723 5.10608e-05)
(1.03114 -0.000323764 9.27525e-05)
(1.03045 -0.000534725 3.37184e-05)
(1.03045 -0.000485212 3.51973e-05)
(1.03041 -0.000455553 6.47407e-05)
(1.03028 -0.000513385 0.000148507)
(1.03023 -0.000552168 0.000205456)
(1.03016 -0.000625258 0.000215115)
(1.03014 -0.000629506 0.0001354)
(1.0302 -0.000648429 0.00013005)
(1.03014 -0.00061402 0.000134579)
(1.03008 -0.000738261 7.99068e-05)
(1.03016 -0.000807188 9.46464e-05)
(1.03013 -0.000863894 6.99488e-05)
(1.03006 -0.000949259 8.17934e-06)
(1.03012 -0.000976956 3.11982e-05)
(1.03001 -0.000962892 -1.06834e-05)
(1.02993 -0.00100383 1.8186e-05)
(1.03002 -0.000928599 3.14378e-05)
(1.03011 -0.000852781 4.83256e-06)
(1.0301 -0.000734188 1.28838e-05)
(1.03004 -0.000686262 3.48539e-05)
(1.03005 -0.000910014 2.56357e-05)
(1.03015 -0.00093469 2.51421e-05)
(1.03022 -0.000960978 7.18481e-05)
(1.03036 -0.000868667 3.71766e-05)
(1.03044 -0.000678487 -7.84836e-05)
(1.03049 -0.000578134 -8.22622e-05)
(1.0305 -0.000463133 -0.000126868)
(1.0305 -0.000414977 -0.000131863)
(1.03045 -0.000383603 -8.48764e-05)
(1.03047 -0.000459385 -6.29476e-05)
(1.03053 -0.000414953 -8.19089e-05)
(1.03056 -0.000403794 -9.33102e-05)
(1.03064 -0.000349562 -9.0954e-05)
(1.03053 -0.000320847 -7.23035e-05)
(1.03049 -0.000310422 -8.88462e-05)
(1.0304 -0.000353181 -4.31607e-05)
(1.03028 -0.000413443 -1.5659e-05)
(1.03039 -0.000509977 -2.36027e-05)
(1.03037 -0.000491729 -2.86425e-05)
(1.03038 -0.000473016 2.70878e-05)
(1.0296 -0.000772202 -0.000303443)
(1.02965 -0.000684844 -0.000310095)
(1.02962 -0.000686265 -0.000292985)
(1.02948 -0.000760792 -0.000172258)
(1.02943 -0.000816298 -0.000106851)
(1.02936 -0.000921217 -9.69068e-05)
(1.02933 -0.000906439 -0.000182823)
(1.02939 -0.000914287 -0.000177195)
(1.02931 -0.000856025 -0.000172533)
(1.02922 -0.000996836 -0.000224953)
(1.02933 -0.00111452 -0.0002134)
(1.02932 -0.00121519 -0.00024285)
(1.02927 -0.00132254 -0.000349277)
(1.02932 -0.00136001 -0.00032274)
(1.02916 -0.00134534 -0.000394928)
(1.02903 -0.00133481 -0.000368519)
(1.02907 -0.00123108 -0.000358513)
(1.02912 -0.00114689 -0.000393274)
(1.02908 -0.000974863 -0.000381516)
(1.02897 -0.0009467 -0.000339907)
(1.02896 -0.00123292 -0.000370761)
(1.02906 -0.00127911 -0.000376669)
(1.02912 -0.00131187 -0.000341289)
(1.02929 -0.00113837 -0.000416001)
(1.02945 -0.000890648 -0.000551492)
(1.02957 -0.000737888 -0.000536134)
(1.02963 -0.000567845 -0.000563471)
(1.02965 -0.000497075 -0.000557777)
(1.02959 -0.000474732 -0.000506705)
(1.02962 -0.000567163 -0.000479902)
(1.02969 -0.000523129 -0.000499234)
(1.0297 -0.000512822 -0.000485379)
(1.02979 -0.000476278 -0.000455673)
(1.02968 -0.00043577 -0.000415427)
(1.02963 -0.000438694 -0.000432915)
(1.02951 -0.000497279 -0.0003746)
(1.02939 -0.000567222 -0.000334039)
(1.02951 -0.000727955 -0.00032073)
(1.02952 -0.000656947 -0.000326079)
(1.02952 -0.000661247 -0.000268447)
(1.02886 -0.000870679 -0.00112353)
(1.02899 -0.000732691 -0.001146)
(1.02899 -0.000782671 -0.00113975)
(1.02887 -0.000874527 -0.000969006)
(1.02886 -0.000970367 -0.000903081)
(1.02871 -0.00109578 -0.00089564)
(1.02863 -0.00106311 -0.000969356)
(1.02864 -0.00106283 -0.000931602)
(1.02853 -0.000975417 -0.000913791)
(1.02842 -0.00113902 -0.000964631)
(1.02847 -0.00136504 -0.000932169)
(1.02843 -0.00153575 -0.000970352)
(1.02832 -0.00165509 -0.00111248)
(1.02827 -0.0016736 -0.00107837)
(1.02806 -0.0016409 -0.00120539)
(1.02799 -0.00155086 -0.0012093)
(1.02807 -0.00143502 -0.00124997)
(1.02815 -0.00134944 -0.00130929)
(1.02808 -0.00113362 -0.00129263)
(1.02801 -0.00112372 -0.00120422)
(1.02794 -0.00146854 -0.00125026)
(1.02793 -0.00153443 -0.00126681)
(1.02783 -0.00156935 -0.00127911)
(1.02796 -0.00131547 -0.00140964)
(1.0282 -0.00101437 -0.00154141)
(1.02842 -0.000780439 -0.00147088)
(1.02862 -0.000543161 -0.00143285)
(1.02871 -0.000447514 -0.00139504)
(1.02869 -0.00043195 -0.00134311)
(1.02876 -0.000544911 -0.00131781)
(1.02884 -0.000503028 -0.00132622)
(1.02882 -0.00047162 -0.00127294)
(1.0289 -0.000463239 -0.00119605)
(1.02884 -0.000389457 -0.00114589)
(1.02881 -0.000400897 -0.00119136)
(1.02871 -0.000453362 -0.00113467)
(1.02859 -0.000568377 -0.00107452)
(1.02876 -0.000787954 -0.00104952)
(1.02881 -0.00064401 -0.00105809)
(1.02878 -0.000713503 -0.00103376)
(1.02808 -0.000901541 -0.00241061)
(1.02827 -0.000724758 -0.00242601)
(1.02808 -0.000850386 -0.0023806)
(1.0279 -0.000965735 -0.00212309)
(1.02781 -0.00109646 -0.00204377)
(1.02737 -0.00123386 -0.00203599)
(1.02722 -0.00116142 -0.00214463)
(1.02722 -0.0011423 -0.00211322)
(1.02709 -0.00103688 -0.00207176)
(1.02703 -0.0012468 -0.00211799)
(1.02679 -0.00161836 -0.00205709)
(1.02657 -0.00187309 -0.00215724)
(1.02627 -0.0019741 -0.00227942)
(1.02602 -0.0019703 -0.00220918)
(1.02573 -0.00191756 -0.00239821)
(1.02582 -0.00168597 -0.00243518)
(1.02583 -0.001548 -0.00251819)
(1.02583 -0.00145396 -0.00255977)
(1.02566 -0.00120215 -0.00252297)
(1.02585 -0.00116786 -0.00238173)
(1.02576 -0.00152482 -0.00246917)
(1.02559 -0.00155965 -0.00251306)
(1.0252 -0.00160585 -0.00260025)
(1.02522 -0.00131209 -0.00282589)
(1.0256 -0.0010051 -0.00296216)
(1.02611 -0.000689428 -0.0028408)
(1.02681 -0.000396392 -0.00270071)
(1.02727 -0.000275726 -0.00263859)
(1.02745 -0.000289948 -0.00258293)
(1.02765 -0.000441522 -0.00252564)
(1.0278 -0.000401024 -0.00252051)
(1.02783 -0.000334869 -0.00244325)
(1.02795 -0.000395279 -0.00232472)
(1.028 -0.000284324 -0.00229133)
(1.02801 -0.000280717 -0.00240863)
(1.02789 -0.00032073 -0.00234522)
(1.02784 -0.000481544 -0.00226265)
(1.02809 -0.000732733 -0.00224378)
(1.02823 -0.00052316 -0.00227405)
(1.02816 -0.000679799 -0.00229821)
(1.02633 -0.000591923 -0.00385087)
(1.02622 -0.000378679 -0.00384573)
(1.02544 -0.000595224 -0.00371)
(1.02499 -0.000776608 -0.0033941)
(1.02438 -0.000942961 -0.00330588)
(1.02337 -0.00102648 -0.00331764)
(1.0232 -0.000872056 -0.00359579)
(1.02336 -0.000801639 -0.00359754)
(1.02333 -0.000731897 -0.00349726)
(1.02337 -0.000984133 -0.00356777)
(1.02276 -0.00147076 -0.00353008)
(1.02231 -0.0017791 -0.00363039)
(1.02181 -0.00190659 -0.00365851)
(1.0215 -0.00199669 -0.00363421)
(1.02113 -0.00194732 -0.0038687)
(1.02117 -0.00157259 -0.00379198)
(1.02072 -0.00146449 -0.00377462)
(1.02068 -0.00141379 -0.00373313)
(1.0205 -0.00118302 -0.00368135)
(1.02119 -0.00114529 -0.0036079)
(1.02132 -0.0014192 -0.00390411)
(1.02129 -0.00133354 -0.00398641)
(1.02105 -0.00137786 -0.0041656)
(1.02127 -0.00106043 -0.00454058)
(1.02199 -0.000801767 -0.00473423)
(1.02308 -0.000450231 -0.00461008)
(1.02462 -0.000125789 -0.00441359)
(1.02559 7.11008e-05 -0.00437732)
(1.02609 0.000106487 -0.00425298)
(1.02656 -4.2237e-05 -0.00405808)
(1.02694 5.94444e-05 -0.0040481)
(1.02719 0.000121095 -0.00394427)
(1.02743 -2.92348e-05 -0.00379182)
(1.02742 9.14161e-05 -0.0038019)
(1.02726 0.000116868 -0.00392242)
(1.0269 6.15185e-05 -0.00378235)
(1.02692 -0.000157218 -0.00368699)
(1.02704 -0.00038922 -0.00367596)
(1.02724 -7.93679e-05 -0.0037453)
(1.02693 -0.000322918 -0.00381006)
(1.02206 -0.000147569 -0.00486103)
(1.02144 0.000165403 -0.00473867)
(1.02027 -0.000127293 -0.0045497)
(1.0191 -0.000217283 -0.00432042)
(1.01781 -0.000311486 -0.00420549)
(1.01695 -0.000374793 -0.00437297)
(1.01718 -0.0001746 -0.00497485)
(1.01771 8.05614e-05 -0.00492328)
(1.01795 0.000193247 -0.00456778)
(1.01806 -0.00015332 -0.00464548)
(1.01745 -0.000751301 -0.00463133)
(1.01701 -0.00105649 -0.00460547)
(1.0167 -0.00131071 -0.00465372)
(1.01674 -0.00150907 -0.00486058)
(1.01647 -0.00131968 -0.0050823)
(1.0165 -0.00084559 -0.00482342)
(1.0161 -0.000906315 -0.00488121)
(1.01682 -0.000963154 -0.00497853)
(1.01703 -0.000805767 -0.00504298)
(1.01841 -0.000738842 -0.00519898)
(1.01874 -0.00092942 -0.00564149)
(1.01922 -0.000851147 -0.00554726)
(1.01961 -0.000916929 -0.00576635)
(1.02005 -0.000558028 -0.00632582)
(1.02094 -0.000305755 -0.00666063)
(1.02218 1.59709e-05 -0.00639541)
(1.02404 0.000275949 -0.00608774)
(1.0248 0.000508735 -0.0059762)
(1.02539 0.00058065 -0.00553142)
(1.02621 0.00043857 -0.00513446)
(1.02673 0.000607421 -0.00516643)
(1.02725 0.000630942 -0.00503405)
(1.0273 0.000404903 -0.00487641)
(1.02684 0.00056103 -0.00489984)
(1.02617 0.000609521 -0.00496836)
(1.02517 0.000430645 -0.00478182)
(1.02472 0.00015977 -0.00471718)
(1.0243 -5.71221e-05 -0.00479017)
(1.02444 0.00027436 -0.00497297)
(1.02334 3.57591e-05 -0.0050451)
(1.0157 0.000593333 -0.00390905)
(1.01561 0.00102522 -0.0036719)
(1.01477 0.000833377 -0.00365732)
(1.01327 0.000947793 -0.00366729)
(1.0133 0.000784618 -0.00381851)
(1.01387 0.000681851 -0.00441752)
(1.01456 0.000969648 -0.00528698)
(1.0155 0.00141479 -0.00524715)
(1.01647 0.00160513 -0.00459564)
(1.01721 0.00116003 -0.00480652)
(1.01741 0.000541517 -0.00488936)
(1.01769 0.00026904 -0.00511459)
(1.01784 -0.000140786 -0.00544716)
(1.01817 -0.000311702 -0.00577664)
(1.01813 4.70616e-05 -0.00583744)
(1.01858 0.000491069 -0.00568765)
(1.01878 0.000296335 -0.0061803)
(1.01983 0.000257243 -0.0064086)
(1.02023 0.000399212 -0.0063955)
(1.02174 0.000614113 -0.00658894)
(1.02128 0.000466805 -0.00669832)
(1.02183 0.000398376 -0.00612649)
(1.02174 0.0002294 -0.00621195)
(1.02155 0.000713521 -0.00697063)
(1.02218 0.000954448 -0.00716485)
(1.02339 0.00122142 -0.00654854)
(1.02481 0.00146735 -0.00654119)
(1.02445 0.0016494 -0.00646073)
(1.0247 0.00158673 -0.00566986)
(1.02508 0.00133345 -0.00515772)
(1.02513 0.00139942 -0.00513133)
(1.02548 0.00138208 -0.00483698)
(1.02412 0.00122537 -0.0046667)
(1.02286 0.00149092 -0.00470788)
(1.02174 0.00156432 -0.00481378)
(1.02004 0.00119255 -0.00458723)
(1.0188 0.000756101 -0.00440782)
(1.0181 0.00046545 -0.00449275)
(1.0181 0.000759949 -0.00474089)
(1.01652 0.000609455 -0.00455153)
(1.01095 0.0014762 -0.00167294)
(1.01208 0.00197702 -0.00191661)
(1.01198 0.00178552 -0.00214835)
(1.01151 0.00191236 -0.00267076)
(1.01313 0.00150911 -0.00339235)
(1.01385 0.00158569 -0.0038402)
(1.01534 0.00214118 -0.00459716)
(1.01641 0.00270828 -0.0045793)
(1.01844 0.00278815 -0.00395342)
(1.01977 0.00227609 -0.00438111)
(1.02088 0.00181729 -0.00439629)
(1.0213 0.00170909 -0.00506561)
(1.02108 0.001272 -0.00551548)
(1.02109 0.0012021 -0.00565318)
(1.02095 0.00142587 -0.00545244)
(1.02116 0.00176087 -0.00547729)
(1.0211 0.00154654 -0.00604799)
(1.02116 0.00162603 -0.0056906)
(1.02148 0.00177974 -0.0051783)
(1.02241 0.00215747 -0.00512395)
(1.02115 0.00203481 -0.00479323)
(1.0217 0.00177203 -0.00362632)
(1.02065 0.00151599 -0.00371058)
(1.02042 0.00207098 -0.00435363)
(1.02207 0.00194901 -0.00413202)
(1.02378 0.00211657 -0.00354563)
(1.02454 0.00239349 -0.00436877)
(1.02316 0.00264077 -0.004274)
(1.02319 0.00250302 -0.00354889)
(1.02228 0.00222546 -0.00307571)
(1.02158 0.00229048 -0.00295559)
(1.02072 0.00240694 -0.00246575)
(1.01785 0.00251237 -0.00248364)
(1.01642 0.00299867 -0.00270144)
(1.01525 0.00299789 -0.00317812)
(1.01343 0.00245896 -0.0028877)
(1.01227 0.00191963 -0.0028122)
(1.01172 0.00151168 -0.00286177)
(1.01172 0.00160884 -0.00298987)
(1.0108 0.00131361 -0.0022532)
(1.00921 0.00249852 -0.000540397)
(1.01072 0.00263577 -0.00103983)
(1.01073 0.00225867 -0.00103763)
(1.01095 0.00212112 -0.00189107)
(1.01132 0.00143097 -0.00196122)
(1.01114 0.00166941 -0.00154284)
(1.0139 0.00252373 -0.00236631)
(1.01452 0.00320171 -0.00224873)
(1.0167 0.00305727 -0.00176952)
(1.01645 0.00261892 -0.00219122)
(1.01746 0.002288 -0.00207943)
(1.01622 0.00215158 -0.00293329)
(1.01551 0.00176148 -0.00332073)
(1.01478 0.00173507 -0.00322643)
(1.01423 0.00193772 -0.00311603)
(1.01373 0.0024267 -0.0034266)
(1.01397 0.00220455 -0.00331638)
(1.01359 0.00205436 -0.00197571)
(1.0139 0.00203762 -0.000976625)
(1.0137 0.00260407 -0.000593005)
(1.01331 0.0025324 0.00015664)
(1.01392 0.00232086 0.00174261)
(1.01251 0.00244015 0.00149932)
(1.01276 0.00306143 0.000968564)
(1.01465 0.00261585 0.00102643)
(1.01521 0.00289138 0.00116511)
(1.01545 0.00321943 0.000213721)
(1.01395 0.00340135 0.000700918)
(1.01507 0.00309364 0.00129624)
(1.01332 0.00303609 0.00180403)
(1.0133 0.00331865 0.00161115)
(1.01186 0.00364924 0.00205268)
(1.01058 0.00386685 0.00158225)
(1.01033 0.00454831 0.00100348)
(1.01049 0.00445224 -0.000124378)
(1.00953 0.00388536 -0.000313584)
(1.00947 0.0032113 -0.000863849)
(1.00885 0.00275637 -0.00109975)
(1.00889 0.0027573 -0.00132836)
(1.00838 0.00248082 -0.000239849)
(1.00453 0.00289833 0.00312755)
(1.00431 0.00285444 0.00247124)
(1.00337 0.00260286 0.00177408)
(1.00187 0.00237126 0.00123521)
(1.00018 0.00152841 0.00173757)
(0.998783 0.00178875 0.00184485)
(1.00142 0.00296184 0.000990959)
(1.00146 0.00360829 0.00147361)
(1.00306 0.00308614 0.00188147)
(1.00009 0.00259879 0.00145475)
(1.00182 0.0020653 0.00152392)
(0.998903 0.00179588 0.0010126)
(0.999743 0.00146776 0.00096984)
(0.99814 0.00176477 0.000723842)
(0.99865 0.00223826 0.000382236)
(0.998517 0.00281406 -0.000200234)
(1.00071 0.00232202 0.000605955)
(0.999634 0.00173596 0.00208901)
(1.0003 0.00133134 0.00315263)
(0.999508 0.00165741 0.00371854)
(1.00229 0.00136882 0.00458183)
(1.00325 0.000908015 0.00618419)
(1.00293 0.0012335 0.00603801)
(1.00327 0.00184999 0.00573417)
(1.00466 0.00160427 0.00586201)
(1.00316 0.00210893 0.00580412)
(1.00307 0.00253399 0.00550635)
(1.00127 0.00278181 0.00649181)
(1.00315 0.00249944 0.00738247)
(1.0005 0.00275791 0.00760946)
(1.00192 0.00326198 0.00696171)
(1.00103 0.00364598 0.00741004)
(1.00253 0.00398067 0.00678894)
(1.00363 0.00498263 0.00589651)
(1.00623 0.0049676 0.004458)
(1.00643 0.00454633 0.00405405)
(1.00705 0.00384593 0.00363916)
(1.00481 0.00354082 0.00335708)
(1.00427 0.00338816 0.00315192)
(1.00322 0.00310766 0.00415049)
(0.989551 0.00223938 0.00790379)
(0.987714 0.00199507 0.00659948)
(0.985883 0.00184555 0.00501713)
(0.984324 0.00164539 0.00494909)
(0.98226 0.000730714 0.00448075)
(0.979641 0.000905959 0.00358144)
(0.981636 0.00222649 0.0030544)
(0.982046 0.00267416 0.00426083)
(0.983696 0.0018474 0.0039228)
(0.981189 0.00119288 0.00303189)
(0.983022 0.000888807 0.00338862)
(0.978221 0.00107517 0.0037415)
(0.979391 0.00115717 0.00453766)
(0.976101 0.00179233 0.00456422)
(0.978776 0.00222695 0.00455966)
(0.97898 0.00217105 0.00447147)
(0.982452 0.00157514 0.00552661)
(0.979411 0.00123648 0.00611859)
(0.98138 0.00116313 0.0068507)
(0.979813 0.00153827 0.00651063)