/*--------------------------------*- C++ -*----------------------------------*\
  =========                 |
  \\      /  F ield         | OpenFOAM: The Open Source CFD Toolbox
   \\    /   O peration     | Website:  https://openfoam.org
    \\  /    A nd           | Version:  10
     \\/     M anipulation  |
\*---------------------------------------------------------------------------*/
FoamFile
{
    format      ascii;
    class       volScalarField;
    location    "4";
    object      nut;
}
// * * * * * * * * * * * * * * * * * * * * * * * * * * * * * * * * * * * * * //

dimensions      [0 2 -1 0 0 0 0];

internalField   nonuniform List<scalar> 
25600
(
7.46615e-10
1.0663e-09
8.55824e-11
1.10448e-09
3.57556e-09
3.21353e-08
7.12313e-09
1.08334e-10
3.39901e-09
4.93642e-11
4.41607e-09
5.52969e-11
2.66404e-11
3.30442e-09
1.49585e-10
3.87521e-09
9.9199e-10
1.27807e-09
2.87664e-10
1.16624e-11
5.97892e-11
1.05799e-09
2.75322e-09
4.98257e-09
8.66758e-09
5.77859e-09
2.27746e-09
5.48197e-09
1.20998e-08
2.27456e-09
1.39211e-10
1.89048e-09
1.11235e-10
9.60802e-09
2.66966e-09
2.24054e-10
1.1662e-10
2.40958e-11
1.28942e-08
2.85928e-08
2.70918e-07
2.13397e-09
3.81695e-09
5.30551e-09
6.00632e-09
2.19597e-07
3.09411e-07
2.1414e-08
3.01651e-08
2.80586e-08
3.02092e-08
3.05764e-09
3.9506e-10
1.86131e-08
5.23004e-09
5.14072e-09
2.05524e-09
1.00904e-08
3.19739e-09
4.75663e-10
1.43782e-09
2.4424e-08
4.03355e-08
1.55391e-07
1.57405e-07
8.2751e-08
3.40248e-08
4.73467e-08
9.91529e-08
2.14449e-08
5.33198e-10
1.08328e-08
5.2539e-10
1.2073e-07
3.01033e-08
1.89501e-09
8.54096e-10
7.4413e-09
5.15283e-07
1.35271e-06
1.80429e-05
6.11945e-06
9.65901e-10
1.8236e-08
2.68091e-08
1.44963e-07
1.46567e-06
9.07779e-07
6.42718e-08
1.74898e-06
4.28642e-08
1.67362e-08
1.24352e-09
4.02885e-08
1.69162e-08
1.01657e-07
3.80969e-10
6.70394e-09
6.77153e-09
7.51316e-09
2.91824e-09
8.60034e-07
1.16688e-05
9.62326e-07
4.93755e-07
3.0702e-07
1.47863e-07
1.18667e-07
2.02528e-07
1.16184e-07
6.44393e-09
6.64516e-08
8.5157e-09
6.34536e-07
5.08462e-07
2.02579e-09
2.61167e-08
3.17658e-09
2.27383e-06
1.23012e-05
3.33073e-06
6.62341e-05
1.65445e-05
3.10864e-06
1.87899e-05
1.40741e-07
2.68214e-07
4.44572e-06
9.77411e-07
6.6994e-05
3.63529e-06
3.16946e-07
2.56666e-07
1.77108e-07
1.40004e-08
1.86403e-06
7.93061e-08
1.10141e-08
7.60942e-09
1.22251e-08
1.64732e-07
4.61093e-08
1.14746e-05
1.819e-05
3.26738e-06
1.86368e-07
1.80567e-07
3.68148e-07
3.31152e-07
2.76787e-07
6.3929e-08
2.00632e-07
3.41989e-07
2.88992e-07
4.84637e-06
2.53623e-07
2.5613e-08
2.57412e-08
6.1493e-07
3.39207e-06
2.80316e-08
3.63187e-06
0.00012632
4.24628e-05
2.65807e-05
3.09996e-05
5.20562e-07
1.05828e-06
1.74499e-06
8.92905e-05
2.8275e-05
1.09831e-06
3.01142e-06
3.2948e-06
8.16517e-07
8.93682e-07
1.53604e-06
3.00656e-07
1.55538e-07
1.50003e-08
3.00718e-07
1.44593e-08
3.47094e-06
2.9965e-05
1.4843e-05
5.04366e-07
1.12461e-07
2.92035e-06
1.36522e-06
2.89364e-07
1.38247e-07
1.73395e-07
1.46685e-06
9.52102e-08
1.85825e-06
2.43843e-06
8.96019e-08
3.22144e-08
1.92454e-07
1.04009e-07
4.89319e-07
4.40082e-07
1.15153e-05
7.45474e-06
4.18063e-05
5.6667e-05
1.94642e-05
2.69791e-06
1.82642e-06
2.27842e-05
2.31217e-05
1.88636e-06
2.08393e-05
8.30225e-07
2.14599e-05
2.80564e-09
1.09703e-06
2.33241e-08
1.57271e-06
1.17803e-06
6.43132e-07
4.40704e-07
9.4597e-07
1.69854e-05
1.85857e-05
4.20849e-06
4.40935e-06
7.57666e-06
2.48783e-06
5.71131e-08
1.51983e-07
6.4369e-08
1.02874e-06
2.75489e-06
1.06198e-05
3.57102e-05
1.86792e-06
3.15078e-07
1.35247e-06
4.08509e-07
4.82164e-07
1.07561e-06
1.34785e-07
1.56817e-06
4.254e-06
3.10542e-05
0.00026526
1.60727e-05
3.88721e-06
1.17398e-05
4.56501e-05
3.43434e-06
5.14272e-06
8.36444e-06
7.52641e-05
5.25063e-08
9.44199e-06
1.47781e-06
3.04222e-07
1.18053e-05
2.59401e-06
4.02676e-06
4.88103e-08
1.29239e-05
1.60237e-05
1.42734e-05
1.74927e-05
2.79032e-05
8.90089e-07
2.29688e-05
9.25878e-08
1.56364e-07
2.81195e-07
1.77799e-06
4.67352e-05
3.62766e-05
2.84022e-05
1.5805e-06
6.03143e-06
1.51704e-05
6.19296e-05
1.0752e-06
1.18912e-07
1.23881e-06
1.92527e-06
5.14558e-05
0.000162764
4.84999e-05
1.45573e-06
1.57664e-05
4.90816e-05
5.19681e-06
8.79973e-06
4.20464e-07
7.34611e-05
3.81547e-06
2.36683e-05
1.86629e-05
1.80544e-07
1.5196e-07
3.5146e-05
1.55632e-05
3.88213e-06
1.85042e-06
1.64187e-05
3.10257e-05
7.06508e-05
8.52955e-05
1.78257e-05
8.04601e-06
4.76272e-06
2.07312e-06
1.06158e-06
7.53588e-06
1.28054e-05
1.80414e-06
6.8409e-06
1.425e-05
1.66952e-06
3.45018e-05
7.1332e-05
8.41107e-05
1.61884e-06
1.89271e-06
1.13269e-05
1.41327e-05
0.000137824
0.000111913
7.81385e-07
7.70873e-06
4.58191e-05
1.33777e-05
2.04134e-05
1.032e-06
9.40308e-06
6.49127e-06
2.10111e-05
2.41744e-05
5.27088e-07
2.74052e-07
4.47221e-06
4.57188e-05
1.50005e-05
9.15535e-08
1.67991e-05
1.93762e-05
4.37788e-05
5.76646e-05
1.62566e-06
2.15189e-06
2.16703e-05
1.02903e-05
6.10359e-06
1.33373e-05
1.27172e-05
3.13982e-06
3.47071e-06
1.26415e-05
2.27822e-06
2.13035e-06
2.31046e-05
9.89579e-05
6.35482e-05
9.5989e-06
4.81333e-05
7.1186e-06
8.71512e-05
0.000149806
2.39242e-06
7.15066e-06
1.06799e-05
6.07814e-06
4.25827e-05
1.85293e-06
4.51842e-05
7.04574e-06
4.22185e-05
6.50921e-05
9.3992e-06
2.31079e-05
4.336e-06
1.32591e-05
1.99255e-05
1.74009e-06
8.97232e-06
3.80308e-05
1.11467e-05
2.25128e-05
2.31104e-05
5.81784e-06
1.28712e-05
2.32277e-05
1.28196e-05
9.59447e-07
8.71699e-07
5.91795e-08
5.23114e-07
2.87733e-06
5.30642e-06
3.88537e-06
3.36884e-06
5.14366e-05
2.73859e-05
6.49006e-06
4.07713e-05
9.00165e-06
2.62451e-05
0.000146167
9.31448e-05
8.6413e-06
1.55223e-05
5.41329e-06
5.05144e-05
5.14751e-06
3.51178e-05
5.57331e-06
8.86945e-05
6.24468e-05
4.17636e-05
3.40975e-05
5.31354e-06
7.05389e-06
3.8264e-05
5.40753e-06
2.43129e-05
5.54902e-05
1.18137e-05
6.05522e-05
7.80772e-05
3.12201e-05
1.49103e-05
2.0468e-05
2.62742e-05
2.42092e-07
1.83817e-06
2.66325e-08
2.47465e-07
1.64398e-06
9.91467e-06
2.82089e-05
3.42951e-07
2.40849e-05
2.21206e-05
3.314e-05
6.09933e-05
1.6696e-05
2.94883e-05
7.23321e-05
0.000108701
4.37153e-06
1.76441e-05
9.53329e-06
2.25707e-05
7.78831e-06
2.13617e-05
6.13281e-06
1.9667e-05
3.30947e-05
1.41123e-05
3.71934e-05
7.16495e-06
1.15017e-05
5.23373e-05
2.87348e-05
9.96552e-06
5.41064e-05
2.80553e-05
1.86294e-05
4.50507e-05
2.40678e-05
6.59453e-06
5.02407e-05
1.58547e-05
6.39622e-07
1.18925e-05
9.6496e-06
9.71217e-07
4.16481e-06
3.24776e-05
1.33136e-05
1.07671e-05
3.06043e-05
1.37761e-05
1.17266e-05
3.58267e-05
2.49012e-05
2.23257e-05
3.32471e-05
0.00012096
0.000125225
2.60185e-05
1.57466e-05
1.2528e-05
1.38376e-05
2.55209e-05
4.74182e-07
1.9411e-06
2.33962e-05
1.49207e-05
2.74693e-05
7.15403e-06
2.48671e-05
4.49403e-05
3.05372e-05
1.44516e-05
4.93931e-05
2.40742e-05
1.9329e-05
3.41771e-05
5.03944e-05
1.25274e-05
4.0016e-05
2.11401e-05
4.01494e-06
8.54689e-05
4.32999e-05
1.32099e-05
2.68462e-05
6.53159e-05
1.33887e-05
1.34995e-05
6.7333e-06
2.90158e-05
1.85427e-06
1.17011e-05
1.81522e-05
2.10594e-05
1.90128e-05
0.000142808
0.000232268
8.35474e-05
5.06268e-05
0.000115031
1.8051e-05
3.55253e-05
4.38429e-07
3.55134e-07
2.48694e-05
2.74919e-05
2.78346e-05
1.73598e-05
2.05756e-05
7.58048e-05
3.71212e-05
2.87767e-05
6.54025e-05
2.86204e-05
2.27868e-05
2.33859e-05
4.18586e-05
1.49446e-05
4.87125e-05
3.31258e-05
4.5424e-05
0.000145294
3.15498e-05
2.14308e-05
5.0612e-05
2.09035e-05
1.35506e-05
1.01515e-05
4.80905e-06
2.19265e-05
3.01996e-06
1.49668e-05
1.87553e-05
1.23788e-05
2.59859e-05
1.63045e-05
0.000120641
0.000109074
2.74261e-05
4.80716e-05
2.35488e-05
3.01497e-05
3.2031e-06
1.91197e-07
1.28299e-05
3.12568e-05
2.7787e-05
1.93298e-05
4.50523e-05
0.000160201
9.53261e-05
3.37268e-05
9.40482e-05
5.0383e-05
1.81874e-05
1.35325e-05
1.38429e-05
1.52439e-05
0.000116028
2.68404e-05
9.02846e-05
0.000177378
3.95038e-05
3.14205e-05
3.6024e-05
2.80551e-05
4.97118e-05
8.82779e-06
9.35158e-06
3.38971e-05
5.55049e-05
1.35682e-05
1.01284e-05
1.27512e-05
2.39704e-05
9.35785e-06
0.000106757
0.000165087
2.74406e-05
1.91513e-05
1.78361e-05
3.91692e-05
1.75492e-05
1.09829e-05
6.23885e-06
1.50702e-05
1.73591e-05
9.39215e-06
4.04335e-05
0.000129453
1.33864e-05
9.84206e-06
8.73453e-05
5.20989e-05
1.81483e-05
1.85648e-05
1.83928e-05
1.21017e-05
0.000100188
1.34018e-05
5.58259e-05
0.000287892
1.44015e-05
6.39492e-05
5.33233e-05
7.86215e-06
3.82905e-05
5.81419e-05
5.36198e-05
2.13682e-05
2.52468e-05
3.74592e-05
1.13641e-05
3.40262e-06
6.74501e-06
7.74993e-06
0.000106857
5.17356e-05
9.2437e-06
7.1185e-05
1.6086e-05
2.98331e-05
2.66714e-05
1.30314e-05
4.6705e-05
9.83421e-06
8.45621e-06
4.69213e-06
2.02313e-05
6.24935e-05
1.37192e-05
1.65883e-05
8.86681e-05
0.000182403
1.43182e-05
2.32747e-05
3.06863e-05
1.36858e-05
5.41883e-06
6.54382e-06
2.51643e-05
0.000214734
3.87445e-05
8.14456e-05
0.000211747
2.72108e-05
1.90922e-05
0.000139227
8.98628e-05
9.28592e-05
3.98749e-05
3.03627e-06
7.97519e-06
1.88589e-06
1.44159e-05
3.00739e-05
3.56459e-05
9.37652e-06
1.12391e-05
0.000112928
4.53635e-05
1.95334e-05
0.00010725
2.08582e-05
6.28771e-05
2.1843e-05
1.93891e-05
2.82616e-06
9.10307e-06
3.00528e-05
1.711e-05
2.1687e-05
3.15732e-05
0.000121276
1.5122e-05
2.55543e-05
2.82187e-05
2.2892e-05
1.28463e-05
9.80729e-06
3.77573e-05
4.42529e-05
0.000157262
3.39358e-05
4.20563e-05
3.45917e-05
1.74003e-05
3.28937e-05
9.02506e-05
0.000151531
0.000128889
8.30708e-06
1.72606e-05
1.24187e-05
8.39272e-07
1.72613e-06
5.0121e-06
3.11883e-06
2.12115e-05
9.19333e-05
0.000202162
9.25797e-06
9.8292e-05
3.12069e-05
4.63114e-05
1.37468e-05
2.36527e-05
9.69693e-06
1.18689e-05
2.59511e-05
7.93104e-06
4.37543e-05
3.7775e-05
1.08237e-05
3.24464e-06
2.32908e-05
2.42463e-05
1.77105e-05
2.91832e-05
1.37254e-05
2.33128e-05
2.54189e-05
0.000232923
1.31527e-05
1.74025e-05
3.5557e-05
1.27251e-05
2.41827e-05
3.48003e-05
0.000139165
9.38841e-05
3.28503e-05
2.04449e-05
6.80908e-06
5.7685e-06
5.16751e-06
9.66284e-06
2.25498e-06
9.59772e-06
0.000134889
0.000241075
1.4705e-05
4.21144e-05
2.36357e-06
2.96653e-05
4.07828e-05
1.61253e-05
1.58565e-05
1.31448e-05
1.06668e-05
4.30308e-07
5.61614e-06
6.59667e-06
1.1142e-05
5.41867e-06
1.1891e-05
2.34473e-05
2.1627e-05
7.5307e-05
5.47526e-05
2.46325e-05
2.78251e-05
0.000192816
0.000137921
1.7613e-05
2.83784e-05
5.86749e-05
4.26205e-05
1.62327e-05
3.43586e-05
0.000115757
0.000146045
2.08734e-05
1.66561e-05
1.18228e-05
7.6687e-06
5.32481e-06
9.98237e-06
1.26718e-05
5.16281e-06
0.000181026
2.98908e-05
4.3702e-05
3.39553e-05
5.69818e-06
1.17583e-05
1.16398e-05
1.60636e-05
1.1988e-05
1.69083e-06
2.45732e-07
2.33301e-06
2.63779e-05
4.0113e-05
1.72387e-05
6.59174e-06
1.28392e-05
5.87676e-05
0.000244646
0.000206041
1.77599e-05
0.000118937
0.00033458
0.000287162
2.18614e-05
4.09916e-05
7.79681e-05
2.22645e-05
3.08295e-05
5.23072e-05
5.84823e-05
5.08755e-05
4.98934e-05
4.76513e-05
2.67348e-05
1.54583e-05
8.20487e-06
5.36214e-06
1.01827e-05
3.06751e-06
6.01958e-05
0.000121383
6.60158e-05
6.91488e-05
7.65222e-06
2.62761e-05
4.38151e-05
0.000156503
8.22491e-06
9.66731e-07
1.76846e-06
2.27562e-05
9.16298e-05
5.15305e-05
2.14829e-05
1.7149e-05
3.25656e-06
4.08119e-05
0.00016229
0.000203221
0.000125995
1.6844e-05
2.09894e-05
1.88043e-05
3.08074e-05
2.25939e-05
1.64692e-05
2.02571e-05
1.6075e-05
1.35016e-06
3.34783e-06
2.48892e-05
1.36405e-05
2.47004e-07
1.59605e-05
2.534e-05
1.42338e-05
5.03189e-06
1.62955e-05
1.13673e-05
8.76997e-06
6.47214e-06
2.88364e-05
9.31704e-05
1.23352e-05
1.68893e-05
4.77344e-05
4.38278e-06
5.64845e-05
2.10308e-06
8.52958e-06
6.27008e-06
4.67934e-05
0.000114818
5.97149e-05
3.37418e-05
1.12718e-05
2.97919e-05
4.47803e-05
9.17856e-05
2.14479e-05
1.47192e-05
4.17672e-05
3.23187e-05
3.90306e-05
5.14718e-05
2.12312e-05
1.28468e-06
1.17693e-05
1.4683e-05
3.16472e-06
6.11283e-05
2.14176e-05
3.9143e-05
0.000139801
3.89113e-06
1.349e-05
1.11274e-05
4.23836e-05
2.4422e-05
1.63482e-05
2.05439e-05
2.80628e-05
2.61268e-05
2.82381e-05
2.84528e-05
2.88259e-05
1.69931e-05
2.2794e-06
3.1723e-05
3.17392e-05
3.23531e-05
1.43143e-05
0.000136119
0.000190324
0.000156812
3.15233e-05
1.72746e-05
8.64771e-06
2.34593e-05
3.10622e-05
3.72343e-05
4.05782e-05
2.73995e-05
5.10613e-05
0.000125242
2.475e-05
3.66508e-05
9.34386e-06
1.02228e-05
4.84826e-05
0.000114076
2.20224e-05
1.23448e-05
6.13601e-05
9.90648e-05
1.75482e-05
2.70365e-05
8.40699e-05
9.14773e-05
2.90285e-05
9.4558e-06
2.18147e-05
2.15193e-05
2.64064e-05
2.99628e-05
3.71963e-05
6.7055e-05
1.79632e-05
1.40681e-06
1.3115e-05
2.27749e-05
3.07687e-05
4.14542e-05
7.11266e-05
0.000146965
0.000150403
7.52663e-05
3.56163e-05
4.30481e-05
5.83648e-05
3.50151e-05
2.94915e-05
2.01579e-05
0.000131867
0.000235453
0.000124176
7.10412e-06
7.37269e-06
4.2842e-05
0.00016669
0.000124062
1.44738e-05
8.36458e-06
1.28862e-05
2.0239e-05
1.3944e-05
4.95003e-06
3.43604e-05
3.02815e-05
1.44271e-05
8.75542e-06
1.64691e-05
1.55117e-05
4.62215e-06
5.6872e-05
0.000159855
0.00022535
0.000181919
6.66853e-05
1.75197e-05
2.28093e-06
1.74689e-05
2.17234e-05
2.91217e-05
5.1314e-05
2.00879e-05
1.7016e-05
1.53256e-05
3.91517e-05
0.000150174
0.000165947
0.000146802
2.51798e-05
2.55894e-05
8.24888e-05
3.7382e-05
5.42144e-05
6.00845e-05
7.01464e-05
0.000120369
0.000180913
0.000110855
1.9289e-05
3.04904e-05
3.7414e-05
1.06089e-05
1.67076e-05
9.89932e-06
1.66831e-05
4.7204e-05
0.000100411
0.000120985
0.000128963
0.000190546
0.000147981
1.8178e-05
1.15064e-05
9.41164e-06
8.56905e-06
1.31488e-05
8.2887e-05
6.55104e-05
8.31844e-07
6.61912e-06
2.84565e-06
2.29745e-05
6.77221e-06
1.46702e-06
1.24837e-05
1.60321e-05
1.47673e-05
3.21861e-05
4.07221e-05
1.09452e-05
0.000156011
0.000116661
3.4271e-05
8.88942e-05
0.000129334
8.50453e-05
2.72366e-05
2.25405e-05
1.22727e-05
1.34847e-05
2.07159e-05
7.51346e-06
8.16719e-06
3.24215e-05
2.51272e-05
1.20853e-05
1.16642e-05
1.23412e-05
2.42123e-05
7.3131e-05
5.64142e-06
1.22748e-05
1.99794e-05
3.94253e-05
6.24207e-05
1.32093e-05
7.08247e-06
1.37285e-05
7.42652e-05
4.97892e-05
1.59751e-05
3.82964e-06
1.23802e-05
2.11884e-05
2.21934e-05
1.59764e-05
8.95682e-06
3.40505e-05
0.000178273
0.000136464
7.61038e-05
2.5785e-05
0.000328168
0.000169076
4.24012e-05
1.02359e-05
5.00407e-05
1.79919e-05
1.19578e-05
7.12628e-06
1.86461e-05
2.34936e-05
2.27977e-05
2.93895e-05
2.22036e-05
9.28564e-07
1.39303e-05
1.63639e-05
4.60754e-06
6.85483e-06
3.92811e-06
1.51763e-05
1.87781e-05
1.86872e-05
3.55473e-05
1.35286e-05
2.09614e-06
8.35083e-06
1.68492e-05
1.67389e-05
0.000164061
0.000110005
2.11689e-05
2.62319e-05
2.25898e-05
1.46999e-05
1.90905e-05
5.3342e-06
1.02636e-05
3.73631e-05
8.13942e-06
0.000130444
0.000138275
0.000120055
2.09294e-05
1.63588e-05
4.96927e-05
3.74546e-05
1.2049e-05
3.2727e-05
8.71802e-06
1.74982e-05
5.93589e-05
1.20118e-06
2.37948e-05
4.71463e-05
3.01427e-06
3.81921e-05
3.90083e-05
2.30327e-05
2.27162e-05
3.30467e-05
5.26623e-05
3.9896e-05
1.78399e-05
1.45503e-05
5.3176e-06
3.05393e-06
1.13985e-05
1.89963e-05
6.39673e-06
4.8002e-06
8.79051e-06
1.04872e-05
8.72563e-06
0.000140439
0.000169541
1.92472e-05
4.55345e-06
4.45518e-05
3.86679e-05
5.20405e-05
2.66665e-05
7.40557e-05
0.000151583
9.7455e-05
5.13875e-06
2.27429e-05
2.53841e-05
1.57489e-05
6.57523e-06
1.62368e-05
2.18582e-05
2.66187e-05
9.00874e-06
3.13004e-05
4.16547e-05
2.50762e-05
1.01054e-05
2.27118e-06
7.13649e-06
1.38707e-05
2.04236e-05
8.80055e-05
3.53903e-05
1.69566e-05
8.39767e-05
8.97265e-05
1.21159e-05
1.08883e-05
1.16189e-05
9.43851e-06
1.08884e-05
1.35897e-05
1.33499e-05
3.40891e-05
0.000172946
0.000128728
1.27636e-05
6.18493e-06
7.35741e-05
3.92784e-05
0.000161519
6.46869e-05
7.90614e-06
5.99922e-05
5.06194e-05
2.37111e-05
6.49224e-06
1.04032e-05
2.33132e-05
4.00591e-05
5.05326e-05
4.28088e-05
7.81283e-06
1.50276e-05
1.13092e-05
1.46217e-05
2.22797e-05
2.12499e-05
4.42816e-06
2.06453e-06
1.61678e-06
1.62425e-05
9.95061e-05
0.000122641
4.59663e-05
9.55749e-06
5.80796e-05
4.36121e-05
1.6003e-05
1.10184e-05
8.59295e-06
4.33908e-06
1.59839e-05
1.92679e-05
2.24093e-05
1.27963e-05
3.00763e-06
1.16604e-05
4.25393e-05
0.000150269
9.49255e-10
1.12431e-09
4.91494e-11
2.95143e-10
6.50047e-09
7.29993e-09
5.34063e-09
3.27354e-09
1.73554e-09
3.66152e-09
5.09563e-09
2.12277e-09
3.95863e-10
3.90241e-11
2.24066e-10
3.4016e-11
5.83368e-12
3.93801e-09
1.64901e-08
1.73967e-10
1.57137e-08
1.99546e-09
2.47287e-10
2.40252e-10
1.79328e-09
2.71563e-09
4.88048e-10
3.90275e-10
2.5551e-10
2.53046e-11
4.49892e-11
2.48839e-10
5.06083e-10
6.95756e-10
4.36541e-10
1.31316e-10
1.25775e-09
8.55687e-10
1.20332e-09
1.46758e-09
3.32002e-08
2.91795e-08
4.19819e-09
9.15664e-11
2.58525e-08
1.51801e-07
1.35359e-07
5.66601e-08
7.11299e-08
6.69666e-08
6.58135e-08
2.2471e-08
7.47096e-09
2.29917e-09
4.65389e-09
3.06885e-09
4.27102e-10
2.64781e-09
1.01948e-07
5.56006e-10
9.24769e-08
8.76299e-08
1.18526e-07
4.00042e-09
5.74594e-08
4.76039e-08
1.06187e-08
1.1846e-08
5.51689e-09
3.3329e-10
1.37298e-09
2.9629e-09
3.14456e-10
1.76723e-09
1.20023e-08
1.18235e-09
1.0258e-08
9.08868e-09
5.13449e-09
4.40198e-09
1.08266e-06
1.6322e-07
5.37302e-08
6.41272e-10
1.36266e-07
3.37507e-07
7.25571e-07
1.97628e-07
2.05456e-07
6.90213e-07
1.62806e-07
5.58333e-08
1.59055e-08
2.15275e-08
2.25353e-09
3.23611e-08
8.70426e-09
6.43434e-09
3.24263e-08
3.1922e-08
1.51161e-08
9.57916e-08
2.7896e-06
1.0838e-05
3.32958e-07
1.13272e-07
4.82463e-08
5.92575e-08
7.21075e-08
5.57779e-10
1.68491e-09
6.07185e-09
2.49253e-09
5.26411e-10
6.65598e-08
4.46827e-08
4.4207e-08
4.16972e-08
1.86259e-08
2.69135e-08
1.32018e-05
9.44152e-08
2.71326e-06
4.6268e-09
1.44752e-06
5.30275e-06
1.58265e-06
4.10435e-07
3.45924e-07
2.55453e-06
4.68783e-07
6.42605e-07
4.0952e-08
3.90024e-08
2.81683e-09
5.49114e-08
1.11441e-07
9.9358e-08
8.9727e-09
1.1084e-08
5.01117e-08
9.44085e-09
4.64997e-07
1.05842e-05
1.25682e-05
2.23062e-06
1.60034e-09
5.52695e-09
6.53229e-08
4.36134e-08
1.13648e-08
9.16088e-09
5.13837e-08
1.30453e-08
1.32619e-08
3.4457e-07
9.12312e-08
1.27982e-07
4.90863e-08
3.58752e-06
4.59513e-06
6.83062e-06
1.23575e-07
4.40586e-06
4.01923e-06
7.35049e-05
4.23143e-05
3.10098e-07
1.22737e-05
9.81073e-07
2.79784e-06
1.16681e-05
2.3659e-06
1.74083e-05
2.02541e-08
1.71754e-07
3.95612e-05
2.86386e-05
1.10016e-07
6.77223e-08
6.12172e-08
1.8006e-08
5.79833e-07
2.57906e-06
6.82135e-06
2.50215e-06
4.23612e-07
7.77739e-08
1.87232e-08
6.8303e-08
9.94058e-08
1.11018e-06
7.92833e-07
4.45855e-07
3.26501e-08
2.12157e-07
1.10763e-07
1.79611e-07
9.78288e-06
1.05751e-05
1.7365e-06
3.85736e-06
2.38396e-06
2.74658e-06
3.07875e-05
9.47156e-05
0.000124683
3.68916e-06
1.2167e-05
4.71983e-06
3.39809e-07
6.62996e-05
1.53222e-05
4.36737e-06
1.81425e-06
1.10916e-06
5.41208e-06
2.31711e-06
1.86112e-05
2.40533e-07
1.29229e-08
1.14135e-07
7.1086e-07
3.4504e-06
1.19324e-06
7.76513e-07
1.18248e-06
6.14084e-06
2.16726e-07
1.74266e-07
8.36951e-09
1.73203e-07
4.97009e-05
3.20008e-06
7.02764e-08
4.04195e-07
2.07359e-07
7.4217e-07
2.19902e-05
2.65032e-06
3.29755e-06
2.42206e-06
1.5126e-06
2.53832e-05
1.65835e-05
5.52631e-05
0.000126403
2.30678e-05
5.40841e-05
7.32674e-06
4.29103e-06
0.000102614
3.05566e-05
8.00607e-06
1.76721e-06
1.87409e-06
4.97656e-07
9.1818e-06
1.15945e-05
1.14812e-05
7.3649e-08
1.4111e-06
1.66699e-07
4.52771e-06
1.19499e-06
3.81092e-07
3.92741e-06
2.4157e-05
2.68958e-06
1.44085e-06
4.19546e-07
8.11166e-07
9.16719e-06
4.25459e-05
3.84591e-07
1.81445e-06
6.13858e-07
1.21865e-05
3.43824e-05
2.52261e-06
1.71469e-05
7.04849e-06
9.27951e-07
5.52836e-06
1.55136e-05
7.09975e-06
2.95662e-05
6.51802e-05
6.024e-05
3.53667e-05
1.48016e-05
8.83427e-05
3.80569e-05
1.17062e-05
2.59582e-06
4.75476e-05
1.13453e-06
5.68102e-07
5.84151e-06
8.11206e-05
5.96208e-06
5.15278e-06
3.65595e-06
3.62684e-06
2.92348e-06
4.58771e-06
1.71864e-05
5.66766e-05
6.68556e-05
1.29835e-05
8.08382e-06
4.63872e-06
1.76401e-05
5.14541e-05
2.31415e-05
8.27406e-06
9.09066e-06
1.39158e-05
7.99341e-05
9.40643e-06
2.05174e-06
6.81818e-05
1.73544e-05
5.83404e-06
1.29651e-05
1.63327e-05
1.93136e-06
1.37027e-05
3.55035e-06
2.70284e-05
4.09728e-05
7.44072e-05
2.91037e-05
8.01526e-06
1.12315e-06
7.19604e-05
1.54875e-05
9.57463e-07
1.91106e-06
6.41009e-05
1.05377e-05
2.15281e-05
1.95496e-05
7.88151e-07
7.80591e-06
4.3315e-05
6.16507e-05
1.09043e-05
6.07144e-05
6.64611e-06
9.80753e-06
5.09205e-07
1.60459e-05
3.22031e-05
2.95332e-05
4.2109e-06
3.07669e-05
1.90423e-05
1.5203e-05
1.88487e-05
8.5622e-06
5.72891e-06
1.46232e-05
3.13479e-05
1.31187e-05
5.61945e-05
1.35521e-06
1.14268e-05
6.56564e-06
3.33536e-05
2.20358e-05
0.000105982
2.52083e-05
2.38817e-05
4.05986e-07
2.15318e-05
6.38172e-05
6.23444e-06
5.3103e-06
2.17544e-05
3.95316e-05
6.24418e-05
7.69087e-06
1.81226e-06
1.17263e-05
6.522e-05
0.000152415
3.90235e-05
7.23428e-06
4.1948e-06
2.38211e-05
9.61592e-07
2.14133e-06
1.9622e-05
1.12007e-05
1.15353e-06
2.17376e-05
1.31645e-05
1.66054e-06
6.43281e-07
2.61707e-06
1.31798e-05
4.28812e-07
1.76975e-05
1.58694e-05
0.000124556
1.99377e-06
5.09333e-05
9.57935e-06
1.55485e-05
4.09438e-05
9.23084e-06
2.59346e-05
2.50346e-05
2.40119e-05
3.31656e-05
3.13749e-05
6.40171e-06
7.62862e-06
2.55841e-06
3.81329e-05
3.21493e-05
4.85099e-06
1.39966e-05
1.31423e-05
4.095e-05
0.000105703
5.88477e-05
7.62221e-06
4.69564e-06
4.21532e-05
2.24575e-05
9.91512e-07
9.86279e-05
9.79736e-06
2.67488e-05
1.43197e-05
3.81686e-06
1.3728e-06
4.61116e-07
1.58921e-05
5.54055e-05
1.53142e-06
1.46449e-05
5.14326e-06
2.38396e-05
3.35611e-05
5.32576e-05
2.81579e-05
4.49992e-05
1.25994e-05
3.02973e-05
1.06886e-05
1.514e-05
8.65025e-06
3.69765e-05
8.64867e-07
3.42042e-06
1.1191e-05
4.3379e-07
2.60101e-05
1.0182e-05
2.73161e-05
7.19471e-06
1.1949e-05
5.80807e-06
3.79291e-05
4.48007e-05
2.07774e-05
6.93615e-06
4.73122e-05
7.16884e-05
3.73045e-06
5.51584e-05
1.74366e-05
1.22685e-05
1.87112e-05
4.15014e-06
1.45846e-06
6.45575e-07
7.71209e-06
1.22618e-05
7.50918e-07
2.33104e-05
4.8267e-06
3.91514e-06
2.29494e-05
1.06088e-05
1.6642e-05
1.44879e-05
1.95019e-06
1.20082e-05
1.68992e-05
1.48897e-05
2.43275e-06
2.33185e-05
1.76325e-05
9.59642e-06
7.5689e-06
2.52658e-05
4.37486e-05
2.27039e-05
3.56529e-05
5.8222e-05
2.556e-05
2.73942e-06
4.27318e-05
6.68991e-05
6.3423e-05
4.50848e-06
5.11167e-05
2.58027e-05
1.59168e-05
0.000107497
1.36186e-05
2.41802e-05
6.42168e-06
7.36032e-06
2.99378e-07
2.58385e-06
1.05283e-06
4.92942e-06
1.38497e-07
3.00447e-05
1.41775e-05
2.83762e-05
3.46492e-05
1.48008e-05
1.32666e-05
1.49285e-06
3.3923e-05
2.88705e-05
1.39022e-05
2.87297e-05
3.08551e-06
4.32046e-05
2.08436e-05
1.71666e-05
1.04978e-05
2.73516e-05
4.77386e-05
1.52396e-05
1.29867e-05
2.96195e-05
3.4399e-05
8.11172e-06
3.84057e-05
4.34661e-05
9.98467e-05
7.4242e-06
2.07921e-05
3.0402e-05
3.85917e-06
0.000143784
2.92818e-05
2.61426e-05
3.01203e-05
5.68624e-05
1.17712e-06
5.81393e-06
3.33646e-06
1.00078e-05
5.93007e-07
2.31253e-05
1.95877e-05
3.62152e-05
1.76528e-05
2.2487e-05
2.61606e-05
2.23686e-06
3.9351e-05
4.32856e-05
3.05983e-05
3.35394e-05
2.27791e-06
3.19438e-05
1.45182e-05
1.5466e-05
1.38147e-05
1.30807e-05
1.88467e-05
6.68604e-06
1.93701e-05
1.89785e-05
3.5881e-05
1.9558e-05
2.93456e-05
6.84001e-06
4.27947e-06
1.12005e-05
1.10403e-05
1.49546e-05
4.17264e-06
5.78462e-05
2.4435e-05
4.48094e-05
2.98671e-05
2.46886e-05
1.33822e-05
1.26327e-05
2.11268e-05
5.48194e-05
1.51536e-06
7.15021e-06
2.03149e-05
3.10341e-05
1.79108e-05
2.60842e-05
3.1576e-05
2.26375e-06
1.00779e-05
2.86703e-05
1.98055e-05
2.18212e-05
5.9235e-06
1.31918e-05
2.07267e-05
1.73758e-05
1.04709e-05
4.8926e-06
9.23494e-06
1.18021e-05
1.89367e-05
5.17781e-06
0.000113177
6.48829e-05
2.6898e-05
9.07737e-06
1.08673e-05
1.02762e-05
2.37655e-05
1.66564e-05
1.10457e-05
1.41837e-05
3.17572e-06
1.33775e-05
5.67073e-05
2.33276e-05
9.17095e-06
4.20055e-05
3.28185e-06
3.40546e-06
1.87209e-07
2.39628e-05
2.27459e-05
2.5624e-05
2.39067e-05
3.50065e-05
1.62219e-05
3.05538e-06
0.00011872
6.80551e-06
3.79534e-06
6.49178e-06
1.162e-05
1.88827e-05
3.84005e-05
1.57285e-05
1.73921e-05
1.47596e-05
2.86048e-05
4.66646e-05
1.51766e-05
3.80254e-06
0.000143396
0.000177412
2.21848e-05
7.95718e-06
1.54567e-05
2.5902e-05
7.73118e-05
7.17071e-06
1.4759e-05
8.49049e-06
7.3064e-06
6.52322e-06
1.39288e-05
4.33575e-05
7.86147e-05
0.000134015
1.29431e-05
1.73657e-05
3.30315e-06
8.2294e-06
6.29466e-06
7.60711e-06
0.000133097
5.67801e-05
4.73269e-05
2.7826e-05
0.000216463
0.000186259
1.4321e-05
4.2102e-05
1.20043e-05
5.0398e-05
0.000197021
0.000100968
3.38783e-05
1.63944e-05
9.5823e-07
3.19617e-05
2.31112e-05
2.188e-06
8.4799e-05
0.000215881
9.13269e-05
1.62147e-05
2.1242e-05
2.8934e-05
3.27774e-05
1.85138e-05
3.32271e-06
7.30334e-06
3.67462e-05
7.89808e-06
2.17438e-05
6.71809e-06
3.54025e-06
6.4308e-06
1.76917e-05
9.24244e-06
2.33022e-05
2.81954e-05
3.30242e-05
2.37736e-05
0.000237818
0.000197495
9.23814e-05
4.29341e-05
9.2793e-05
5.05778e-05
3.81846e-05
3.06601e-05
1.17041e-05
4.42716e-05
1.91647e-05
5.52694e-05
2.47736e-05
1.52353e-05
4.03144e-06
1.54145e-05
1.27328e-05
6.56325e-06
3.73519e-07
0.000147143
8.86727e-05
2.7462e-05
4.15491e-05
3.34849e-05
3.73715e-05
9.26083e-06
9.41035e-06
9.55387e-06
3.93038e-05
3.95989e-05
4.67758e-05
3.55598e-05
2.16506e-05
1.05315e-05
4.33257e-05
3.91584e-06
0.000110383
0.000187713
0.000205821
7.07841e-05
3.57052e-05
5.33415e-05
0.000154414
1.63973e-05
1.30357e-05
5.92134e-06
3.93446e-05
1.55895e-05
3.17731e-05
7.06752e-06
1.28035e-05
1.06144e-05
1.0595e-05
5.14979e-05
7.72309e-06
1.00242e-05
1.42273e-06
1.00229e-05
2.01252e-05
2.65557e-05
8.09069e-05
3.20813e-05
6.05891e-05
2.96436e-05
2.01805e-05
1.24932e-05
5.45817e-05
1.98215e-05
2.71312e-05
6.06578e-05
2.552e-05
1.57531e-05
9.17455e-05
2.96805e-05
5.95293e-06
7.54947e-05
0.000229193
0.000224744
0.000290898
0.000137178
3.48212e-05
1.19843e-05
5.77932e-05
2.62475e-05
7.84678e-06
1.7211e-05
4.49632e-05
5.1751e-05
5.37436e-06
0.000112553
2.657e-05
2.95152e-05
1.22347e-05
4.46935e-05
0.000146545
3.41291e-06
1.07898e-06
4.26519e-06
2.22087e-05
2.45369e-05
7.70614e-05
3.95873e-05
5.30278e-05
1.4727e-05
2.66079e-05
1.32039e-05
2.906e-05
0.000146804
6.4163e-05
3.0336e-05
4.41746e-05
8.01974e-05
0.000124257
3.83521e-05
2.00322e-05
8.8749e-05
3.59418e-05
1.26725e-05
6.96157e-06
1.68353e-05
8.35343e-06
2.36375e-05
2.61454e-05
8.87677e-06
2.04018e-06
7.71164e-06
1.14493e-05
2.89288e-05
3.81933e-05
0.000162131
0.000126603
1.41368e-05
8.63558e-05
2.6014e-05
0.000188356
0.000118089
7.56796e-05
6.78882e-06
2.09042e-06
0.000118574
7.19472e-05
4.7575e-05
4.76594e-05
2.89476e-05
1.69796e-05
7.168e-06
4.88773e-05
8.76045e-05
4.80969e-05
3.28749e-05
3.00322e-05
7.6517e-05
8.6368e-05
1.63755e-05
6.48763e-05
0.000118491
6.20944e-05
3.97085e-05
2.19378e-05
1.377e-05
1.31321e-05
5.06312e-06
1.81154e-05
2.0024e-05
1.32916e-05
8.32366e-06
1.04851e-05
2.50373e-05
2.39926e-05
9.20715e-06
1.44528e-05
1.16093e-05
1.54804e-05
2.31083e-05
2.53912e-05
0.000101891
8.95421e-05
8.25479e-06
6.93437e-05
0.000149499
4.63426e-05
0.000109523
4.23236e-05
1.49954e-05
1.6554e-05
7.0205e-05
0.000140744
0.000110746
6.91899e-05
1.38046e-05
8.11013e-05
5.61616e-05
1.42438e-05
1.12863e-05
4.34105e-05
4.66114e-05
1.11747e-05
4.52968e-05
5.17979e-05
3.24927e-05
0.000162012
0.00014831
1.48598e-05
2.17071e-06
1.98064e-05
9.30785e-05
4.48851e-05
4.39424e-06
2.28104e-05
1.98062e-05
1.55572e-05
1.79083e-05
4.0727e-05
1.40297e-05
3.48201e-05
0.000130477
0.000115687
9.53814e-05
2.59968e-05
4.86144e-05
8.83498e-05
2.70996e-05
1.31405e-05
2.73698e-05
2.45925e-05
5.42909e-06
4.39798e-05
4.99923e-05
1.88481e-05
2.16346e-05
2.23671e-05
2.51046e-05
4.55401e-05
4.34675e-05
9.35152e-05
9.22891e-05
7.38685e-05
4.0925e-05
1.74865e-05
2.02537e-05
2.38756e-05
0.000107082
1.60558e-05
1.26588e-06
3.91762e-05
0.000137119
0.000162916
5.3086e-05
1.06619e-05
0.000112612
2.38423e-05
1.4853e-05
4.41138e-05
3.90767e-05
0.000157898
0.000134169
4.13438e-05
6.47858e-05
7.10256e-05
3.66638e-05
1.80901e-05
2.53541e-05
2.01179e-05
1.38159e-05
1.87699e-05
1.92883e-06
0.000138844
0.000278154
0.000279158
0.000155596
6.24374e-05
2.87467e-05
2.09022e-05
0.000104858
5.89111e-05
5.35007e-05
5.56243e-05
5.45447e-05
2.91891e-05
1.01593e-05
2.7455e-05
1.4797e-05
1.90741e-05
1.53524e-05
4.42644e-06
8.47565e-05
1.23785e-05
1.18217e-05
7.01583e-05
0.000220544
0.000192708
4.24565e-05
2.9818e-05
0.000156314
0.000167339
5.66109e-05
8.30789e-06
7.58512e-06
3.29175e-07
6.25935e-06
1.58853e-05
2.44047e-05
1.56766e-05
1.50493e-05
1.46477e-05
6.89745e-06
4.53273e-05
0.000171276
9.53116e-05
6.33434e-05
8.44614e-05
7.07364e-06
4.58026e-05
8.89512e-05
4.05895e-05
7.24067e-05
6.38851e-05
0.000175511
0.00019824
1.85078e-05
7.81668e-06
7.0915e-05
1.10939e-05
5.84093e-06
8.68015e-06
1.47886e-05
1.77855e-05
1.25176e-05
4.23115e-05
0.000151581
0.000163132
0.000120899
0.000165167
4.3369e-05
2.22159e-05
1.66712e-05
8.10479e-06
1.89093e-05
2.1219e-05
1.72008e-05
1.28112e-05
4.79333e-06
5.68772e-06
2.34966e-05
3.41884e-05
8.76803e-06
1.2447e-05
8.53506e-06
1.03184e-05
0.000123827
0.000142695
8.26935e-06
1.08732e-05
9.18639e-05
9.60274e-05
0.000202208
9.76777e-05
5.61948e-05
3.74513e-05
2.36633e-05
2.70745e-05
4.55081e-05
5.97416e-05
1.22713e-05
1.98062e-05
1.52748e-05
5.04387e-07
9.94816e-05
8.68205e-05
1.34377e-05
4.58126e-05
0.000110458
0.000177862
4.57448e-05
6.98119e-06
4.19264e-05
9.40139e-05
6.86243e-05
2.49658e-05
0.000173655
1.14721e-05
1.30939e-05
2.95548e-06
9.28031e-07
2.76966e-07
2.27135e-05
1.28088e-05
8.12141e-06
8.03093e-07
7.89536e-06
0.0001267
0.000126198
4.52349e-05
5.43288e-05
0.000289766
0.000319797
8.1294e-05
4.75306e-05
0.000108181
1.42216e-05
3.57407e-05
6.98778e-05
1.62141e-05
3.92797e-05
5.79674e-05
6.88675e-06
1.37236e-05
1.5531e-05
3.75062e-05
3.46702e-05
1.77377e-05
7.84485e-06
1.32092e-06
1.46313e-05
1.89333e-05
2.43169e-05
0.000167324
6.81287e-05
9.84679e-06
1.36347e-05
1.21293e-05
1.74041e-05
2.74163e-05
4.52409e-05
7.62954e-05
4.97191e-05
4.14109e-05
1.79054e-05
1.09413e-05
1.39275e-05
5.17433e-05
1.82466e-05
1.55203e-05
1.47332e-05
0.000198485
0.000252908
0.000166456
1.18267e-05
0.00014
0.000107683
3.23984e-05
4.83348e-05
1.04591e-05
7.80699e-05
0.000147363
4.63731e-05
7.13937e-05
2.52505e-05
1.13609e-05
1.56493e-05
4.50093e-05
4.57547e-05
3.49339e-06
3.48158e-06
6.48457e-06
1.40979e-05
3.84627e-05
9.19532e-05
0.000134295
1.99368e-05
1.69226e-05