/*--------------------------------*- C++ -*----------------------------------*\
  =========                 |
  \\      /  F ield         | OpenFOAM: The Open Source CFD Toolbox
   \\    /   O peration     | Website:  https://openfoam.org
    \\  /    A nd           | Version:  10
     \\/     M anipulation  |
\*---------------------------------------------------------------------------*/
FoamFile
{
    format      ascii;
    class       volScalarField;
    location    "2.5";
    object      nut;
}
// * * * * * * * * * * * * * * * * * * * * * * * * * * * * * * * * * * * * * //

dimensions      [0 2 -1 0 0 0 0];

internalField   nonuniform List<scalar> 
102400
(
2.42557e-11
2.56742e-11
2.57156e-11
2.34058e-11
2.26859e-11
2.39031e-11
2.52259e-11
2.59727e-11
2.33467e-11
2.27165e-11
2.40735e-11
2.50191e-11
2.59025e-11
2.36055e-11
2.21279e-11
2.38632e-11
2.61402e-11
2.60372e-11
2.32064e-11
2.26012e-11
2.34647e-11
2.56111e-11
2.62737e-11
2.33548e-11
2.26164e-11
2.35855e-11
2.59076e-11
2.60528e-11
2.28185e-11
2.28437e-11
2.42296e-11
2.59409e-11
2.52982e-11
2.3012e-11
2.28138e-11
2.41384e-11
2.59473e-11
2.60293e-11
2.31978e-11
2.32019e-11
2.46443e-13
2.53434e-13
2.16184e-13
1.61037e-13
1.758e-13
2.41212e-13
2.66998e-13
2.12502e-13
1.60181e-13
1.79912e-13
2.4273e-13
2.55526e-13
2.11736e-13
1.62446e-13
1.76982e-13
2.46042e-13
2.62233e-13
2.10711e-13
1.61043e-13
1.8513e-13
2.47978e-13
2.62649e-13
2.16756e-13
1.56017e-13
1.882e-13
2.4731e-13
2.6501e-13
2.11141e-13
1.60054e-13
1.85302e-13
2.52535e-13
2.57239e-13
2.09944e-13
1.53495e-13
1.80146e-13
2.36516e-13
2.71011e-13
2.10064e-13
1.68146e-13
1.8468e-13
1.90056e-13
2.23067e-13
1.08007e-13
7.69304e-14
8.51834e-14
1.77367e-13
2.35702e-13
1.09357e-13
7.98239e-14
9.0091e-14
1.95331e-13
2.2874e-13
1.08066e-13
7.69851e-14
8.63274e-14
2.003e-13
2.04299e-13
1.03117e-13
8.47884e-14
9.20951e-14
1.87487e-13
2.16335e-13
1.03134e-13
9.20324e-14
9.51757e-14
1.99614e-13
1.89503e-13
8.99344e-14
9.34416e-14
9.58171e-14
1.96009e-13
1.96657e-13
9.66796e-14
9.21897e-14
9.01297e-14
1.7068e-13
2.33203e-13
9.94863e-14
9.07517e-14
9.64703e-14
2.39371e-13
3.6171e-13
1.86196e-13
5.65036e-14
7.6346e-14
2.23704e-13
4.02906e-13
1.97016e-13
5.54973e-14
8.234e-14
2.44588e-13
3.738e-13
1.8482e-13
5.67544e-14
7.90801e-14
2.7536e-13
3.43478e-13
1.63648e-13
5.76381e-14
9.21354e-14
2.67298e-13
3.78923e-13
1.77343e-13
5.15664e-14
8.98614e-14
2.881e-13
3.3331e-13
1.2112e-13
5.16588e-14
9.04045e-14
2.71295e-13
3.27411e-13
1.71533e-13
5.19561e-14
8.53816e-14
2.19152e-13
3.85524e-13
1.6927e-13
5.32503e-14
8.99846e-14
2.70884e-13
4.15298e-13
3.26596e-13
1.90187e-13
1.71811e-13
2.62271e-13
4.43224e-13
3.53614e-13
1.94212e-13
1.93267e-13
2.72674e-13
4.05968e-13
3.38298e-13
1.9819e-13
1.79846e-13
3.2471e-13
4.01377e-13
3.09826e-13
2.08882e-13
2.17663e-13
3.15069e-13
4.40768e-13
3.32211e-13
1.74251e-13
1.90126e-13
3.12645e-13
4.44292e-13
2.76757e-13
1.80307e-13
1.95743e-13
3.22842e-13
4.06936e-13
3.22197e-13
2.03266e-13
1.9905e-13
2.66288e-13
4.70533e-13
3.19933e-13
1.9231e-13
1.82257e-13
2.56732e-13
4.00847e-13
4.16744e-13
3.10805e-13
2.53455e-13
2.49725e-13
3.82194e-13
4.39404e-13
3.19345e-13
2.9215e-13
2.59456e-13
3.78599e-13
4.30391e-13
3.05342e-13
2.54096e-13
2.79916e-13
3.91803e-13
3.96013e-13
3.258e-13
2.94222e-13
2.7071e-13
4.03925e-13
4.36151e-13
3.38954e-13
2.83727e-13
2.57253e-13
4.45305e-13
3.91958e-13
3.18159e-13
2.90083e-13
2.89896e-13
4.11129e-13
4.07838e-13
3.52892e-13
2.98847e-13
2.56023e-13
4.45681e-13
4.08495e-13
3.40781e-13
2.70499e-13
2.77784e-13
2.98513e-13
6.08568e-13
3.87914e-13
3.07094e-13
2.8437e-13
2.78664e-13
6.34933e-13
3.62634e-13
3.34072e-13
2.94024e-13
2.82473e-13
6.09293e-13
3.68715e-13
2.82698e-13
2.88553e-13
3.04981e-13
5.97973e-13
3.79926e-13
3.31223e-13
2.7414e-13
3.06331e-13
6.59314e-13
4.03724e-13
3.4239e-13
2.73586e-13
3.30822e-13
5.54844e-13
3.69354e-13
3.38522e-13
3.1929e-13
3.04044e-13
5.83031e-13
3.98143e-13
3.37522e-13
2.83138e-13
3.3236e-13
5.88432e-13
3.91715e-13
3.14084e-13
3.06799e-13
2.5804e-13
4.6964e-13
4.73946e-13
3.60009e-13
3.36955e-13
2.39492e-13
4.8117e-13
4.30622e-13
3.79415e-13
3.50207e-13
2.22897e-13
4.97225e-13
4.46594e-13
3.28642e-13
3.26544e-13
2.34209e-13
4.91041e-13
4.33281e-13
3.75106e-13
2.95341e-13
2.62867e-13
4.76073e-13
4.5939e-13
3.81399e-13
2.94334e-13
2.70235e-13
4.68928e-13
4.0903e-13
3.77072e-13
3.66571e-13
2.51296e-13
4.48348e-13
4.43073e-13
3.74312e-13
3.22418e-13
2.85627e-13
4.7713e-13
4.55332e-13
3.577e-13
2.72171e-13
2.67955e-13
3.01995e-13
4.51327e-13
3.41443e-13
3.01308e-13
2.46163e-13
3.16388e-13
4.01749e-13
3.49672e-13
3.18109e-13
2.43001e-13
3.30487e-13
4.43169e-13
3.26456e-13
2.84975e-13
2.3179e-13
3.17531e-13
4.0764e-13
3.40007e-13
2.56243e-13
2.73805e-13
2.70454e-13
4.28421e-13
3.44934e-13
2.57448e-13
2.76644e-13
3.61288e-13
3.86775e-13
3.38929e-13
2.82463e-13
2.48137e-13
3.0155e-13
4.03271e-13
3.43185e-13
2.86892e-13
2.8945e-13
3.17685e-13
4.29682e-13
3.40785e-13
3.42209e-13
2.98689e-13
2.37125e-13
3.4833e-13
3.66599e-13
3.86367e-13
2.82995e-13
2.66697e-13
3.25856e-13
3.70581e-13
4.01301e-13
2.98892e-13
2.70439e-13
3.66819e-13
3.61376e-13
3.83623e-13
3.06972e-13
2.66745e-13
3.34964e-13
3.78843e-13
3.19652e-13
3.20056e-13
2.32192e-13
3.35039e-13
3.59287e-13
3.28054e-13
3.78429e-13
3.21391e-13
3.43803e-13
3.77159e-13
3.58796e-13
2.82079e-13
2.40361e-13
3.2682e-13
3.81699e-13
3.64686e-13
3.27857e-13
2.70425e-13
3.40313e-13
3.74337e-13
4.68949e-13
4.35131e-13
2.83256e-13
2.79304e-13
3.80176e-13
4.87292e-13
4.04223e-13
3.12309e-13
2.70184e-13
3.80109e-13
5.07276e-13
3.63322e-13
2.862e-13
2.70531e-13
3.64705e-13
5.11566e-13
4.50195e-13
3.09896e-13
2.67451e-13
4.03456e-13
4.05479e-13
4.26916e-13
2.89189e-13
2.66944e-13
3.80442e-13
4.44603e-13
5.74167e-13
3.33768e-13
2.87309e-13
3.9869e-13
4.97355e-13
4.23522e-13
2.72913e-13
2.64333e-13
4.0039e-13
4.51156e-13
4.5124e-13
2.9726e-13
2.75158e-13
4.03287e-13
5.92972e-13
7.37092e-13
5.03489e-13
3.01956e-13
3.69202e-13
6.26762e-13
6.61592e-13
5.37966e-13
2.84751e-13
3.4074e-13
6.04582e-13
5.45235e-13
4.54335e-13
2.7502e-13
3.29366e-13
6.86321e-13
7.27126e-13
4.89047e-13
2.66632e-13
3.73228e-13
5.23826e-13
8.32582e-13
5.13397e-13
2.72923e-13
3.71754e-13
5.9142e-13
7.42242e-13
4.44201e-13
2.60028e-13
3.75078e-13
6.88657e-13
7.35321e-13
4.07862e-13
2.68735e-13
3.54901e-13
5.80245e-13
7.56766e-13
4.72376e-13
2.79759e-13
3.76923e-13
1.11072e-12
3.86275e-12
8.68244e-13
3.89774e-13
3.86366e-13
1.06338e-12
1.48371e-12
9.02114e-13
3.55328e-13
3.65112e-13
1.03505e-12
1.62593e-12
9.09909e-13
3.76542e-13
3.32166e-13
1.23416e-12
1.64403e-12
8.69507e-13
3.32324e-13
3.86709e-13
1.05603e-12
3.52566e-12
9.47608e-13
3.40762e-13
3.64107e-13
1.10406e-12
1.58684e-12
7.85505e-13
3.01526e-13
3.79472e-13
1.29893e-12
2.62906e-12
7.55409e-13
3.47165e-13
3.85654e-13
1.06929e-12
4.21543e-12
8.98757e-13
3.52665e-13
3.91329e-13
1.36106e-12
1.45162e-11
1.18608e-12
5.47556e-13
4.72339e-13
9.83021e-13
2.19991e-12
1.16019e-12
4.39228e-13
4.5571e-13
1.29601e-12
3.92359e-12
1.15186e-12
4.91603e-13
3.87118e-13
1.33433e-12
3.05031e-12
1.05906e-12
4.44978e-13
4.49838e-13
1.12489e-12
5.74012e-12
1.03737e-12
4.03098e-13
3.99315e-13
2.10998e-12
9.93154e-12
1.26074e-12
4.10799e-13
4.49032e-13
1.81846e-12
8.65927e-12
1.14972e-12
4.74929e-13
4.60193e-13
1.03455e-12
1.08997e-11
1.21516e-12
5.40221e-13
4.89725e-13
1.39776e-12
2.20681e-12
9.02821e-13
6.91834e-13
7.25151e-13
1.10524e-12
1.54538e-12
9.12728e-13
6.05972e-13
6.9117e-13
1.51127e-12
1.76203e-12
7.36112e-13
6.16263e-13
5.79835e-13
1.43908e-12
1.78655e-12
8.03792e-13
5.6818e-13
6.72994e-13
1.10347e-12
1.45746e-12
8.61727e-13
5.27781e-13
5.9082e-13
2.31474e-12
1.87621e-12
9.20402e-13
5.34015e-13
6.68952e-13
2.68858e-12
2.50479e-12
8.26429e-13
5.5764e-13
6.25045e-13
1.22958e-12
2.4489e-12
1.00829e-12
6.3908e-13
6.70848e-13
8.38706e-13
7.76319e-13
7.51384e-13
8.78854e-13
9.41362e-13
7.97985e-13
7.99069e-13
8.29923e-13
1.00538e-12
9.07233e-13
1.02313e-12
8.131e-13
7.65478e-13
9.62043e-13
8.41547e-13
9.65628e-13
8.8889e-13
7.38698e-13
8.70345e-13
9.61858e-13
8.45117e-13
8.75666e-13
9.93247e-13
8.74715e-13
8.78489e-13
1.06754e-12
7.42788e-13
9.19527e-13
7.61557e-13
9.23398e-13
1.16885e-12
7.49269e-13
6.98835e-13
8.32286e-13
9.56637e-13
9.66038e-13
9.00951e-13
8.76821e-13
7.76215e-13
8.61326e-13
6.74292e-13
8.53917e-13
9.21116e-13
1.24085e-12
8.69059e-13
6.28188e-13
7.96987e-13
1.06377e-12
1.34774e-12
8.36029e-13
7.45153e-13
7.55846e-13
1.07344e-12
1.42814e-12
8.94395e-13
7.07835e-13
8.35555e-13
9.69492e-13
1.37315e-12
9.14771e-13
6.86752e-13
8.79932e-13
1.05373e-12
1.09814e-12
9.25237e-13
7.2914e-13
8.58511e-13
1.11981e-12
1.05895e-12
8.88684e-13
7.29796e-13
7.046e-13
9.51177e-13
1.28687e-12
9.82138e-13
7.08978e-13
7.97644e-13
9.80587e-13
1.14469e-12
9.28311e-13
7.47745e-13
9.64158e-13
1.03386e-12
1.27057e-12
8.99088e-13
6.94924e-13
8.67527e-13
1.03717e-12
1.1023e-12
7.84488e-13
7.52205e-13
9.27034e-13
9.9752e-13
1.19089e-12
8.17434e-13
7.20261e-13
8.48024e-13
1.07002e-12
1.0756e-12
8.66702e-13
7.28502e-13
9.4325e-13
9.77991e-13
9.37712e-13
8.38668e-13
6.45274e-13
8.65575e-13
1.04767e-12
1.03247e-12
8.86281e-13
6.40555e-13
8.71516e-13
1.11622e-12
1.06101e-12
9.36859e-13
6.89208e-13
9.68333e-13
1.14705e-12
1.2451e-12
8.41381e-13
7.35418e-13
1.03551e-12
1.15908e-12
1.1924e-12
9.86336e-13
7.78649e-13
1.04767e-12
1.36285e-12
1.2241e-12
9.26669e-13
8.64728e-13
9.85874e-13
1.25764e-12
1.19579e-12
8.95244e-13
7.15555e-13
1.1031e-12
1.32288e-12
1.17361e-12
1.01303e-12
7.62724e-13
9.80212e-13
1.49792e-12
1.21719e-12
1.01378e-12
8.89878e-13
1.00152e-12
1.39794e-12
1.05738e-12
8.76526e-13
8.29736e-13
1.08751e-12
1.15574e-12
1.05635e-12
1.02683e-12
7.52821e-13
9.46906e-13
1.34497e-12
1.07295e-12
9.98517e-13
1.11311e-12
1.29828e-12
1.37037e-12
1.42137e-12
1.1774e-12
1.02178e-12
1.22485e-12
1.39953e-12
1.32796e-12
1.02668e-12
1.06333e-12
1.28991e-12
1.37772e-12
1.33547e-12
1.20333e-12
1.13972e-12
1.26672e-12
1.33671e-12
1.18024e-12
1.08158e-12
1.0104e-12
1.31006e-12
1.39642e-12
1.14119e-12
1.22284e-12
8.97812e-13
1.22138e-12
1.51467e-12
1.26723e-12
1.18054e-12
1.00825e-12
1.33056e-12
1.47702e-12
1.28111e-12
1.15014e-12
1.01944e-12
1.39832e-12
1.54151e-12
1.51023e-12
1.16986e-12
1.26609e-12
1.39314e-12
1.40318e-12
1.58469e-12
1.54919e-12
1.36088e-12
1.34557e-12
1.45942e-12
1.63108e-12
1.42194e-12
1.43611e-12
1.38817e-12
1.36359e-12
1.58297e-12
1.48695e-12
1.24987e-12
1.34312e-12
1.44601e-12
1.56271e-12
1.62856e-12
1.31406e-12
1.37298e-12
1.56561e-12
1.4419e-12
1.5109e-12
1.42876e-12
1.30405e-12
1.50263e-12
1.48333e-12
1.54085e-12
1.38619e-12
1.38072e-12
1.31902e-12
1.41371e-12
1.68254e-12
1.33035e-12
1.3412e-12
1.42424e-12
1.42918e-12
1.46889e-12
1.86694e-12
1.73712e-12
1.67182e-12
1.92207e-12
2.02264e-12
1.81528e-12
1.66921e-12
1.73096e-12
2.01056e-12
1.90117e-12
1.86097e-12
1.72114e-12
1.68952e-12
1.98194e-12
2.0303e-12
1.8102e-12
1.68323e-12
1.74115e-12
1.89404e-12
1.90226e-12
1.79792e-12
1.73163e-12
1.73455e-12
1.7581e-12
2.17575e-12
1.81643e-12
1.57429e-12
1.84176e-12
1.9745e-12
2.0482e-12
1.73027e-12
1.65116e-12
1.8015e-12
1.92613e-12
2.06928e-12
1.84548e-12
1.68475e-12
1.74409e-12
1.97951e-12
2.04781e-12
2.22402e-12
2.07808e-12
1.96435e-12
2.11905e-12
2.46894e-12
2.28763e-12
2.06412e-12
1.98649e-12
2.20914e-12
2.35592e-12
2.26657e-12
2.08651e-12
1.97457e-12
2.14067e-12
2.34171e-12
2.21563e-12
2.06488e-12
2.03332e-12
2.07466e-12
2.41462e-12
2.28246e-12
2.00428e-12
2.07577e-12
2.06607e-12
2.41794e-12
2.35857e-12
1.90052e-12
2.07606e-12
2.14653e-12
2.38584e-12
2.20929e-12
2.04938e-12
2.04606e-12
2.05058e-12
2.49015e-12
2.25714e-12
1.98412e-12
2.01244e-12
2.11664e-12
2.42651e-12
3.23352e-12
2.90734e-12
2.64985e-12
2.76029e-12
3.35447e-12
3.31194e-12
2.89864e-12
2.61774e-12
2.84451e-12
3.23217e-12
3.2232e-12
2.9165e-12
2.64003e-12
2.80802e-12
3.24557e-12
3.26941e-12
2.87124e-12
2.6331e-12
2.73692e-12
3.23665e-12
3.26896e-12
2.82037e-12
2.76271e-12
2.74189e-12
3.21072e-12
3.47009e-12
2.67781e-12
2.69596e-12
2.84536e-12
3.30929e-12
3.30703e-12
2.83217e-12
2.71885e-12
2.72066e-12
3.246e-12
3.32432e-12
2.83174e-12
2.70029e-12
2.79846e-12
3.31212e-12
3.23208e-12
2.98994e-12
2.82402e-12
2.75853e-12
3.17726e-12
3.28907e-12
3.0201e-12
2.77568e-12
2.80731e-12
3.16922e-12
3.25203e-12
2.99767e-12
2.79837e-12
2.82865e-12
3.11537e-12
3.22831e-12
2.95214e-12
2.80615e-12
2.78869e-12
3.0887e-12
3.29673e-12
2.95617e-12
2.84498e-12
2.79896e-12
3.04355e-12
3.47204e-12
2.88545e-12
2.77839e-12
2.85183e-12
3.20593e-12
3.31137e-12
2.88712e-12
2.81354e-12
2.77028e-12
3.11342e-12
3.32139e-12
2.95253e-12
2.8056e-12
2.75849e-12
3.15343e-12
8.38183e-12
7.7344e-12
6.91555e-12
6.44667e-12
7.77305e-12
8.4055e-12
7.81145e-12
6.77007e-12
6.44169e-12
7.69134e-12
8.36614e-12
7.59153e-12
6.65908e-12
6.62434e-12
7.49477e-12
8.05392e-12
7.44761e-12
6.83227e-12
6.54067e-12
7.24584e-12
8.44655e-12
7.60729e-12
6.74462e-12
6.7205e-12
7.17518e-12
8.91866e-12
7.34809e-12
6.50717e-12
6.78142e-12
7.66692e-12
8.49064e-12
7.30907e-12
6.78459e-12
6.66183e-12
7.38978e-12
8.56187e-12
7.59867e-12
6.7489e-12
6.51292e-12
7.71116e-12
2.41275e-12
2.39115e-12
2.3103e-12
2.20399e-12
2.32597e-12
2.43409e-12
2.39771e-12
2.31741e-12
2.22107e-12
2.30524e-12
2.43255e-12
2.39623e-12
2.29217e-12
2.23603e-12
2.303e-12
2.41464e-12
2.38373e-12
2.29856e-12
2.23828e-12
2.28192e-12
2.42439e-12
2.40421e-12
2.28056e-12
2.25797e-12
2.28117e-12
2.44931e-12
2.40426e-12
2.26443e-12
2.23515e-12
2.31637e-12
2.45269e-12
2.38438e-12
2.28549e-12
2.23605e-12
2.28589e-12
2.42215e-12
2.39104e-12
2.29568e-12
2.21507e-12
2.30302e-12
1.3085e-10
1.31757e-10
1.28621e-10
1.2353e-10
1.26447e-10
1.30607e-10
1.31828e-10
1.28419e-10
1.2318e-10
1.26207e-10
1.31023e-10
1.31627e-10
1.27022e-10
1.23541e-10
1.25968e-10
1.29419e-10
1.30476e-10
1.27159e-10
1.23696e-10
1.25031e-10
1.30084e-10
1.32349e-10
1.26588e-10
1.24677e-10
1.25759e-10
1.30939e-10
1.31788e-10
1.25965e-10
1.24053e-10
1.26625e-10
1.31668e-10
1.31629e-10
1.26719e-10
1.24397e-10
1.25838e-10
1.30773e-10
1.32195e-10
1.28146e-10
1.2393e-10
1.26478e-10
1.22613e-12
1.22998e-12
1.23282e-12
1.22269e-12
1.22331e-12
1.23007e-12
1.23082e-12
1.23246e-12
1.22484e-12
1.21961e-12
1.22564e-12
1.23361e-12
1.22705e-12
1.22158e-12
1.22577e-12
1.2282e-12
1.22881e-12
1.22842e-12
1.22842e-12
1.22213e-12
1.22181e-12
1.23537e-12
1.22702e-12
1.2235e-12
1.22146e-12
1.22654e-12
1.23343e-12
1.22609e-12
1.22339e-12
1.22193e-12
1.22866e-12
1.23332e-12
1.22623e-12
1.22424e-12
1.22247e-12
1.22556e-12
1.2295e-12
1.22899e-12
1.22211e-12
1.22126e-12
1.8734e-10
1.89113e-10
1.89187e-10
1.85924e-10
1.85378e-10
1.87461e-10
1.88931e-10
1.88938e-10
1.86153e-10
1.85232e-10
1.87312e-10
1.89489e-10
1.88532e-10
1.85662e-10
1.85492e-10
1.86955e-10
1.88489e-10
1.88187e-10
1.85782e-10
1.85081e-10
1.86517e-10
1.89492e-10
1.88247e-10
1.85887e-10
1.85696e-10
1.87125e-10
1.89439e-10
1.88165e-10
1.85593e-10
1.85396e-10
1.87559e-10
1.89605e-10
1.88101e-10
1.85733e-10
1.85393e-10
1.8714e-10
1.8919e-10
1.88813e-10
1.86213e-10
1.85674e-10
2.34763e-13
2.35096e-13
2.3513e-13
2.34503e-13
2.34569e-13
2.35151e-13
2.353e-13
2.35145e-13
2.3473e-13
2.34643e-13
2.34861e-13
2.35309e-13
2.35169e-13
2.34385e-13
2.34534e-13
2.35037e-13
2.35166e-13
2.34935e-13
2.3467e-13
2.34872e-13
2.34898e-13
2.35433e-13
2.35283e-13
2.34758e-13
2.34924e-13
2.35187e-13
2.35534e-13
2.3516e-13
2.3475e-13
2.34889e-13
2.35183e-13
2.35612e-13
2.35198e-13
2.34598e-13
2.34759e-13
2.35118e-13
2.3524e-13
2.34982e-13
2.34557e-13
2.34515e-13
9.97488e-10
9.98114e-10
9.99057e-10
9.98619e-10
9.97453e-10
9.97596e-10
9.98336e-10
9.99148e-10
9.98698e-10
9.97504e-10
9.97496e-10
9.983e-10
9.99057e-10
9.98601e-10
9.97779e-10
9.97849e-10
9.9856e-10
9.99275e-10
9.98729e-10
9.97969e-10
9.97707e-10
9.98841e-10
9.99644e-10
9.98782e-10
9.98064e-10
9.98059e-10
9.98957e-10
9.99335e-10
9.98541e-10
9.97751e-10
9.97645e-10
9.9857e-10
9.99162e-10
9.98354e-10
9.9734e-10
9.97297e-10
9.98189e-10
9.98988e-10
9.98458e-10
9.97528e-10
3.79357e-10
3.74417e-10
4.118e-10
4.64055e-10
4.31015e-10
3.84834e-10
3.80097e-10
4.08681e-10
4.58854e-10
4.27108e-10
3.81018e-10
3.85774e-10
4.05944e-10
4.56638e-10
4.33251e-10
3.86527e-10
3.75554e-10
4.05318e-10
4.55056e-10
4.3605e-10
3.86872e-10
3.78995e-10
4.07857e-10
4.55015e-10
4.31936e-10
3.89233e-10
3.77029e-10
4.05072e-10
4.54833e-10
4.30968e-10
3.81001e-10
3.78135e-10
4.11268e-10
4.66064e-10
4.29198e-10
3.83375e-10
3.71835e-10
4.0993e-10
4.53272e-10
4.31943e-10
2.66308e-10
2.55216e-10
2.9845e-10
3.60059e-10
3.25544e-10
2.72758e-10
2.60635e-10
2.96092e-10
3.57285e-10
3.19955e-10
2.6806e-10
2.62964e-10
2.91901e-10
3.57365e-10
3.2375e-10
2.75664e-10
2.55034e-10
2.90683e-10
3.5293e-10
3.27626e-10
2.7636e-10
2.60217e-10
2.9668e-10
3.59143e-10
3.23671e-10
2.75168e-10
2.54368e-10
2.98163e-10
3.56674e-10
3.22123e-10
2.66368e-10
2.56678e-10
3.03649e-10
3.71052e-10
3.18672e-10
2.70003e-10
2.5005e-10
2.98029e-10
3.5021e-10
3.23591e-10
3.56755e-10
3.47231e-10
4.12765e-10
5.02158e-10
4.48194e-10
3.60824e-10
3.51938e-10
4.14621e-10
5.03373e-10
4.44637e-10
3.58773e-10
3.60256e-10
4.10191e-10
4.97223e-10
4.4554e-10
3.67191e-10
3.51412e-10
4.07162e-10
4.9767e-10
4.4858e-10
3.65123e-10
3.53884e-10
4.18142e-10
5.07146e-10
4.44515e-10
3.7137e-10
3.53192e-10
4.17487e-10
4.96388e-10
4.44436e-10
3.62321e-10
3.50032e-10
4.18025e-10
5.16936e-10
4.47381e-10
3.64104e-10
3.42131e-10
4.16671e-10
4.92992e-10
4.50815e-10
2.52426e-10
2.23934e-10
2.76139e-10
3.71144e-10
3.37445e-10
2.5158e-10
2.24841e-10
2.75508e-10
3.73017e-10
3.32507e-10
2.50776e-10
2.32969e-10
2.75842e-10
3.66223e-10
3.33918e-10
2.59837e-10
2.27677e-10
2.7399e-10
3.6805e-10
3.40882e-10
2.62018e-10
2.27059e-10
2.79488e-10
3.77251e-10
3.38431e-10
2.6407e-10
2.28974e-10
2.83979e-10
3.64004e-10
3.34924e-10
2.55387e-10
2.23933e-10
2.83407e-10
3.80086e-10
3.33802e-10
2.56392e-10
2.19584e-10
2.83305e-10
3.588e-10
3.41552e-10
2.65877e-10
2.23073e-10
2.58803e-10
3.71717e-10
3.587e-10
2.67665e-10
2.25398e-10
2.55422e-10
3.74266e-10
3.51763e-10
2.67757e-10
2.28737e-10
2.55795e-10
3.72048e-10
3.52668e-10
2.82663e-10
2.33948e-10
2.58984e-10
3.65276e-10
3.54439e-10
2.81615e-10
2.3321e-10
2.60918e-10
3.76831e-10
3.53107e-10
2.81112e-10
2.32404e-10
2.67795e-10
3.6534e-10
3.54504e-10
2.72254e-10
2.25134e-10
2.62363e-10
3.87021e-10
3.50969e-10
2.6911e-10
2.20591e-10
2.6576e-10
3.56919e-10
3.61252e-10
2.17525e-10
1.45212e-10
1.84949e-10
3.4008e-10
3.58674e-10
2.17702e-10
1.52662e-10
1.83236e-10
3.43503e-10
3.53325e-10
2.24428e-10
1.61137e-10
1.86195e-10
3.43432e-10
3.53033e-10
2.3373e-10
1.64074e-10
1.91438e-10
3.41044e-10
3.49284e-10
2.30379e-10
1.55766e-10
1.88162e-10
3.4848e-10
3.50392e-10
2.35266e-10
1.72172e-10
2.05217e-10
3.35288e-10
3.57904e-10
2.25058e-10
1.54548e-10
1.90065e-10
3.59214e-10
3.56879e-10
2.23533e-10
1.42847e-10
1.94549e-10
3.27551e-10
3.60278e-10
2.3108e-10
1.13753e-10
1.41459e-10
2.63374e-10
3.58936e-10
2.32536e-10
1.13563e-10
1.39325e-10
2.69282e-10
3.51146e-10
2.37153e-10
1.19748e-10
1.4276e-10
2.74117e-10
3.54956e-10
2.38233e-10
1.24831e-10
1.41955e-10
2.71433e-10
3.51351e-10
2.42102e-10
1.19945e-10
1.31958e-10
2.69423e-10
3.5105e-10
2.43032e-10
1.39091e-10
1.66886e-10
2.69513e-10
3.58693e-10
2.46393e-10
1.19915e-10
1.45048e-10
2.81966e-10
3.55461e-10
2.42828e-10
1.06093e-10
1.48456e-10
2.54091e-10
3.58064e-10
2.50848e-10
1.24325e-10
1.4702e-10
1.98075e-10
3.3627e-10
2.66367e-10
1.13216e-10
1.4138e-10
2.08232e-10
3.25752e-10
2.61736e-10
1.05054e-10
1.35404e-10
2.13585e-10
3.28151e-10
2.57871e-10
1.29374e-10
1.32381e-10
1.97147e-10
3.33018e-10
2.60771e-10
1.25323e-10
1.31536e-10
2.00269e-10
3.24454e-10
2.62245e-10
1.25529e-10
1.4482e-10
2.00054e-10
3.2227e-10
2.65454e-10
1.20307e-10
1.411e-10
2.12483e-10
3.25068e-10
2.63452e-10
1.07241e-10
1.42702e-10
1.83466e-10
3.35198e-10
2.42043e-10
1.21125e-10
1.63182e-10
1.6151e-10
2.86272e-10
2.61361e-10
1.14718e-10
1.45467e-10
1.68282e-10
2.70263e-10
2.63246e-10
1.12683e-10
1.49154e-10
1.77511e-10
2.70058e-10
2.57541e-10
1.26155e-10
1.45086e-10
1.5755e-10
2.8316e-10
2.51124e-10
1.14031e-10
1.46578e-10
1.49502e-10
2.67818e-10
2.56202e-10
1.19525e-10
1.37274e-10
1.50177e-10
2.54416e-10
2.40866e-10
1.12565e-10
1.60765e-10
1.68317e-10
2.64561e-10
2.53645e-10
9.66534e-11
1.45401e-10
1.38123e-10
2.81934e-10
1.82128e-10
8.33656e-11
1.50482e-10
1.31186e-10
1.73365e-10
1.91393e-10
9.05578e-11
1.22275e-10
1.30617e-10
1.5162e-10
2.09699e-10
1.00942e-10
1.4619e-10
1.4028e-10
1.57846e-10
2.05935e-10
9.815e-11
1.35535e-10
1.30648e-10
1.69689e-10
1.97974e-10
7.47496e-11
1.32989e-10
1.22028e-10
1.64323e-10
1.98389e-10
1.02072e-10
1.32373e-10
1.25282e-10
1.41262e-10
1.87108e-10
8.62851e-11
1.61909e-10
1.45345e-10
1.54945e-10
2.03007e-10
6.93971e-11
1.35994e-10
1.20052e-10
1.68975e-10
1.04841e-10
5.9642e-11
1.09769e-10
1.60913e-10
6.90937e-11
1.11528e-10
7.63733e-11
9.80465e-11
1.61912e-10
6.04532e-11
1.27805e-10
6.08863e-11
1.15279e-10
1.56918e-10
6.90543e-11
1.23708e-10
7.71655e-11
1.07468e-10
1.62796e-10
6.85558e-11
1.14728e-10
5.55963e-11
1.08748e-10
1.62381e-10
8.17266e-11
1.22251e-10
7.16839e-11
1.11332e-10
1.63519e-10
6.84545e-11
1.21218e-10
5.80566e-11
1.19421e-10
1.75442e-10
6.75128e-11
1.32335e-10
5.16486e-11
1.21463e-10
1.58454e-10
8.57587e-11
7.71213e-11
7.19802e-11
7.65828e-11
1.85112e-10
8.3337e-11
7.87113e-11
8.52109e-11
7.60696e-11
1.97341e-10
7.81337e-11
8.78778e-11
6.37615e-11
7.67115e-11
1.82909e-10
9.10496e-11
8.63878e-11
7.68049e-11
7.82098e-11
1.93099e-10
8.7278e-11
8.70324e-11
7.27233e-11
8.61008e-11
1.93514e-10
8.39247e-11
8.47222e-11
6.50606e-11
7.25106e-11
2.01112e-10
9.41333e-11
9.06392e-11
5.54435e-11
8.28638e-11
2.03429e-10
7.96588e-11
9.14652e-11
6.03211e-11
1.01027e-10
1.87138e-10
1.10011e-10
8.17584e-11
9.3741e-11
6.99689e-11
1.48927e-10
1.35919e-10
8.11788e-11
9.25771e-11
6.60726e-11
1.67679e-10
1.29761e-10
9.70704e-11
9.20717e-11
7.04765e-11
1.60772e-10
1.42545e-10
9.4315e-11
8.91897e-11
7.29819e-11
1.55823e-10
1.43694e-10
9.64915e-11
8.49969e-11
7.59725e-11
1.58042e-10
1.28864e-10
8.61455e-11
8.15997e-11
5.9216e-11
1.78829e-10
1.41166e-10
1.05866e-10
8.58136e-11
7.75257e-11
1.77217e-10
1.34617e-10
9.47165e-11
6.52417e-11
8.35436e-11
1.38968e-10
1.49655e-10
7.76569e-11
9.29344e-11
1.04873e-10
1.34503e-10
1.37937e-10
7.78516e-11
8.9523e-11
1.01749e-10
1.54326e-10
1.31811e-10
8.88362e-11
9.30444e-11
1.17522e-10
1.56163e-10
1.45555e-10
8.95547e-11
8.72877e-11
1.11114e-10
1.37599e-10
1.51434e-10
8.70128e-11
7.76493e-11
1.07878e-10
1.44031e-10
1.4732e-10
7.52392e-11
8.29e-11
9.83404e-11
1.61691e-10
1.46467e-10
9.6576e-11
8.9742e-11
1.09136e-10
1.63932e-10
1.45504e-10
8.81189e-11
6.30782e-11
1.05057e-10
1.09914e-10
1.51634e-10
9.63137e-11
1.19685e-10
1.57056e-10
1.37053e-10
1.18836e-10
9.61304e-11
1.21441e-10
1.52383e-10
1.56572e-10
1.13874e-10
1.04539e-10
1.13519e-10
1.65384e-10
1.57953e-10
1.2334e-10
1.07041e-10
1.08384e-10
1.64403e-10
1.45998e-10
1.3858e-10
1.06609e-10
1.18267e-10
1.56832e-10
1.49371e-10
1.38302e-10
9.1474e-11
1.23836e-10
1.49616e-10
1.59861e-10
1.29463e-10
9.9599e-11
1.12144e-10
1.59637e-10
1.61653e-10
1.16743e-10
1.01906e-10
1.01751e-10
1.53985e-10
1.19318e-10
1.34724e-10
1.30871e-10
1.6131e-10
1.70533e-10
1.18134e-10
9.79678e-11
1.25639e-10
1.68377e-10
1.66314e-10
1.28583e-10
9.32792e-11
1.31465e-10
1.55795e-10
1.66714e-10
1.37628e-10
9.23427e-11
1.38057e-10
1.48009e-10
1.78016e-10
1.25175e-10
1.0806e-10
1.37983e-10
1.60598e-10
1.65564e-10
1.26229e-10
1.12133e-10
1.28216e-10
1.74099e-10
1.57429e-10
1.33874e-10
1.06895e-10
1.32698e-10
1.61849e-10
1.65219e-10
1.32566e-10
8.66553e-11
1.31803e-10
1.45668e-10
1.67724e-10
1.06167e-10
1.1049e-10
1.38555e-10
1.6554e-10
1.49431e-10
9.1056e-11
8.39121e-11
1.31142e-10
1.78335e-10
1.41631e-10
9.81462e-11
8.13047e-11
1.34373e-10
1.67936e-10
1.40691e-10
1.13724e-10
7.30502e-11
1.49293e-10
1.59608e-10
1.55123e-10
9.45261e-11
8.58329e-11
1.43994e-10
1.62784e-10
1.43022e-10
9.57395e-11
9.45988e-11
1.39996e-10
1.77428e-10
1.39723e-10
1.02474e-10
9.23644e-11
1.41429e-10
1.74012e-10
1.42644e-10
1.06611e-10
7.30453e-11
1.37767e-10
1.52141e-10
1.49413e-10
8.10765e-11
9.38799e-11
1.34219e-10
1.57955e-10
1.34801e-10
8.08644e-11
8.33654e-11
1.30279e-10
1.71886e-10
1.24143e-10
9.00745e-11
7.77199e-11
1.30684e-10
1.65709e-10
1.25782e-10
1.03349e-10
6.75646e-11
1.49036e-10
1.55683e-10
1.35969e-10
8.63419e-11
8.23938e-11
1.41971e-10
1.55917e-10
1.30065e-10
8.6203e-11
8.91301e-11
1.39004e-10
1.67384e-10
1.29561e-10
8.38612e-11
8.776e-11
1.38886e-10
1.67711e-10
1.28471e-10
9.51633e-11
7.12839e-11
1.33134e-10
1.49533e-10
1.3735e-10
7.38552e-11
8.77158e-11
1.35472e-10
1.48623e-10
1.2704e-10
8.13551e-11
9.1899e-11
1.29753e-10
1.58835e-10
1.16114e-10
9.06229e-11
8.41999e-11
1.333e-10
1.57174e-10
1.15758e-10
1.00791e-10
7.54169e-11
1.48172e-10
1.45559e-10
1.26707e-10
9.02005e-11
8.75883e-11
1.43311e-10
1.45755e-10
1.24691e-10
8.51968e-11
9.40678e-11
1.40359e-10
1.51752e-10
1.24648e-10
7.95352e-11
9.50721e-11
1.40394e-10
1.52582e-10
1.20689e-10
8.96449e-11
8.04361e-11
1.35615e-10
1.45347e-10
1.30505e-10
7.5524e-11
9.35514e-11
1.30514e-10
1.35856e-10
1.2052e-10
8.19965e-11
9.59452e-11
1.24714e-10
1.43666e-10
1.10649e-10
9.1135e-11
9.03627e-11
1.29213e-10
1.42197e-10
1.0961e-10
9.94852e-11
8.206e-11
1.40468e-10
1.32967e-10
1.19838e-10
9.15739e-11
9.04138e-11
1.38097e-10
1.32758e-10
1.19356e-10
8.53667e-11
9.81158e-11
1.3453e-10
1.33997e-10
1.21624e-10
8.07439e-11
9.98063e-11
1.33123e-10
1.34634e-10
1.17313e-10
8.67917e-11
9.07895e-11
1.31416e-10
1.33291e-10
1.24609e-10
7.94774e-11
9.8017e-11
1.16395e-10
1.18254e-10
1.11212e-10
8.2077e-11
9.32148e-11
1.12172e-10
1.23622e-10
1.03004e-10
9.0572e-11
8.85171e-11
1.14492e-10
1.23308e-10
1.02881e-10
9.60807e-11
8.23724e-11
1.24073e-10
1.17829e-10
1.09684e-10
8.96912e-11
8.82749e-11
1.23017e-10
1.15041e-10
1.11593e-10
8.3968e-11
9.32203e-11
1.21176e-10
1.15219e-10
1.14142e-10
8.09629e-11
9.51687e-11
1.18696e-10
1.16215e-10
1.11568e-10
8.36653e-11
9.086e-11
1.15897e-10
1.16067e-10
1.17099e-10
8.06247e-11
9.40421e-11
1.03964e-10
1.05229e-10
1.06426e-10
8.74799e-11
9.08804e-11
1.00966e-10
1.084e-10
9.93545e-11
9.41371e-11
8.79833e-11
1.02285e-10
1.09368e-10
9.97702e-11
9.76795e-11
8.36416e-11
1.09398e-10
1.0637e-10
1.02895e-10
9.37377e-11
8.77581e-11
1.08115e-10
1.03333e-10
1.06751e-10
8.74408e-11
9.06651e-11
1.09363e-10
1.01518e-10
1.08253e-10
8.66259e-11
9.22906e-11
1.05656e-10
1.0254e-10
1.07781e-10
8.65724e-11
9.00539e-11
1.03928e-10
1.0378e-10
1.11579e-10
8.5452e-11
9.09317e-11
8.76372e-11
8.81311e-11
9.54113e-11
8.58726e-11
8.20488e-11
8.52526e-11
9.06678e-11
8.99728e-11
9.05908e-11
8.15524e-11
8.55452e-11
9.10204e-11
9.03442e-11
9.34086e-11
7.87299e-11
9.03728e-11
9.06752e-11
9.2379e-11
9.05795e-11
8.08128e-11
9.0507e-11
8.76543e-11
9.56357e-11
8.59623e-11
8.15556e-11
9.24833e-11
8.60519e-11
9.66005e-11
8.57742e-11
8.33944e-11
8.85145e-11
8.52654e-11
9.78877e-11
8.50714e-11
8.24892e-11
8.85101e-11
8.67173e-11
9.92755e-11
8.43596e-11
8.24074e-11
8.61152e-11
8.72338e-11
9.71439e-11
9.47647e-11
8.63271e-11
8.43972e-11
8.94308e-11
9.33402e-11
9.70355e-11
8.74373e-11
8.47739e-11
8.91079e-11
9.3877e-11
9.99364e-11
8.49507e-11
8.68637e-11
9.05461e-11
9.50167e-11
9.73415e-11
8.62065e-11
8.83991e-11
8.7572e-11
9.72769e-11
9.50242e-11
8.50779e-11
9.02861e-11
8.66287e-11
9.72113e-11
9.47247e-11
8.7055e-11
8.68885e-11
8.45599e-11
1.00108e-10
9.48222e-11
8.62024e-11
8.75552e-11
8.60263e-11
9.98215e-11
9.41341e-11
8.61977e-11
6.72675e-11
6.90939e-11
7.89832e-11
7.84726e-11
6.82463e-11
6.55344e-11
7.07678e-11
7.63231e-11
7.9149e-11
7.01157e-11
6.62457e-11
7.01757e-11
7.66356e-11
8.20802e-11
6.88651e-11
6.69407e-11
7.23366e-11
7.77763e-11
7.9993e-11
6.91621e-11
6.84644e-11
7.00275e-11
7.88442e-11
7.88761e-11
6.73937e-11
6.99131e-11
7.00314e-11
7.86425e-11
7.84416e-11
6.97333e-11
6.78886e-11
6.68343e-11
8.1203e-11
7.93109e-11
6.81526e-11
6.80025e-11
6.84206e-11
8.04858e-11
7.79697e-11
6.8592e-11
6.38626e-11
6.43189e-11
7.29447e-11
7.5172e-11
6.71867e-11
6.24858e-11
6.54336e-11
7.16538e-11
7.44831e-11
6.84201e-11
6.41261e-11
6.49074e-11
7.15077e-11
7.78743e-11
6.83237e-11
6.3259e-11
6.65914e-11
7.29059e-11
7.58641e-11
6.74771e-11
6.50348e-11
6.54407e-11
7.27719e-11
7.5883e-11
6.59685e-11
6.54593e-11
6.58746e-11
7.29245e-11
7.50915e-11
6.75173e-11
6.49661e-11
6.2498e-11
7.40118e-11
7.71286e-11
6.65565e-11
6.43079e-11
6.41884e-11
7.36416e-11
7.52525e-11
6.70637e-11
9.03062e-11
8.77587e-11
9.14183e-11
9.47827e-11
9.16156e-11
8.95179e-11
8.91653e-11
9.09806e-11
9.37771e-11
9.2273e-11
9.04081e-11
8.8344e-11
9.02743e-11
9.59151e-11
9.23201e-11
8.88833e-11
8.91946e-11
9.22554e-11
9.48671e-11
9.14939e-11
9.07481e-11
8.90231e-11
9.12443e-11
9.52436e-11
9.06387e-11
9.00821e-11
8.89942e-11
9.15776e-11
9.45962e-11
9.14136e-11
9.09909e-11
8.6758e-11
9.15604e-11
9.64614e-11
9.12552e-11
9.03917e-11
8.77961e-11
9.1764e-11
9.48607e-11
9.11401e-11
2.91609e-11
2.94154e-11
2.77873e-11
2.76756e-11
2.74557e-11
2.90053e-11
3.00943e-11
2.75261e-11
2.69267e-11
2.82892e-11
2.93113e-11
2.94054e-11
2.66159e-11
2.73579e-11
2.81499e-11
2.80318e-11
2.9917e-11
2.75671e-11
2.68083e-11
2.7478e-11
2.91381e-11
3.01077e-11
2.64286e-11
2.6914e-11
2.8124e-11
2.88033e-11
2.9545e-11
2.65346e-11
2.66772e-11
2.78052e-11
2.97549e-11
2.90114e-11
2.6304e-11
2.78921e-11
2.77432e-11
2.89048e-11
2.9653e-11
2.73656e-11
2.74035e-11
2.78454e-11
2.13593e-10
2.13141e-10
2.15367e-10
2.18031e-10
2.1617e-10
2.12891e-10
2.12841e-10
2.15365e-10
2.17705e-10
2.16469e-10
2.14337e-10
2.14107e-10
2.15022e-10
2.18649e-10
2.18539e-10
2.14117e-10
2.13881e-10
2.16705e-10
2.18861e-10
2.16959e-10
2.14329e-10
2.14408e-10
2.15575e-10
2.18532e-10
2.17244e-10
2.13891e-10
2.14307e-10
2.16481e-10
2.18394e-10
2.16696e-10
2.14533e-10
2.13164e-10
2.14477e-10
2.19037e-10
2.17388e-10
2.13142e-10
2.12904e-10
2.15591e-10
2.18374e-10
2.16699e-10
4.43863e-12
4.43398e-12
4.41051e-12
4.41027e-12
4.41198e-12
4.42809e-12
4.45457e-12
4.42691e-12
4.38027e-12
4.39975e-12
4.43646e-12
4.43101e-12
4.38696e-12
4.36415e-12
4.40637e-12
4.40829e-12
4.39529e-12
4.41026e-12
4.37648e-12
4.36914e-12
4.40616e-12
4.43673e-12
4.39739e-12
4.35392e-12
4.38761e-12