/*--------------------------------*- C++ -*----------------------------------*\
  =========                 |
  \\      /  F ield         | OpenFOAM: The Open Source CFD Toolbox
   \\    /   O peration     | Website:  https://openfoam.org
    \\  /    A nd           | Version:  10
     \\/     M anipulation  |
\*---------------------------------------------------------------------------*/
FoamFile
{
    format      ascii;
    class       volVectorField;
    location    "12.5";
    object      U;
}
// * * * * * * * * * * * * * * * * * * * * * * * * * * * * * * * * * * * * * //

dimensions      [0 1 -1 0 0 0 0];

internalField   nonuniform List<vector> 
25600
(
(0.051316 3.658e-06 -0.00032398)
(0.0504218 8.22998e-06 -0.000184585)
(0.0513093 3.90902e-06 -0.000231303)
(0.0505011 -6.36505e-07 -0.000129972)
(0.0514149 -1.56399e-06 -0.000209525)
(0.0505474 3.97545e-06 -0.000163112)
(0.0514312 5.29865e-06 -0.000174914)
(0.0505329 4.17492e-06 -0.000120854)
(0.0514944 -3.09704e-06 -0.000165895)
(0.0505165 2.17875e-06 -0.000121418)
(0.051487 2.39525e-06 -0.000185162)
(0.0504356 7.24661e-06 -0.000130633)
(0.0514244 4.05891e-06 -0.000160555)
(0.0503816 -6.76339e-06 -0.000179436)
(0.0514488 -2.21449e-06 -0.000229415)
(0.0502914 2.86472e-06 -0.000231768)
(0.0513406 5.8018e-06 -0.000216314)
(0.0502666 3.47571e-06 -0.000178178)
(0.0513579 -3.78231e-06 -0.000238744)
(0.0503268 -2.91757e-06 -0.000226591)
(0.0513885 2.67722e-06 -0.000283647)
(0.050356 9.25958e-06 -0.000211292)
(0.0514271 2.13467e-06 -0.000266223)
(0.0505536 -2.79587e-06 -0.000238635)
(0.0516148 -1.79708e-06 -0.000344643)
(0.0506608 5.7367e-06 -0.000332156)
(0.0516484 8.64035e-06 -0.00033242)
(0.0507588 6.50471e-06 -0.00031881)
(0.0517491 -2.22671e-06 -0.000347686)
(0.0508672 -1.61481e-06 -0.000392801)
(0.0517621 3.49331e-06 -0.000431348)
(0.0508087 1.13413e-05 -0.00038696)
(0.0516719 5.83877e-06 -0.000443807)
(0.0507709 -3.8412e-06 -0.000411162)
(0.0516149 -1.0571e-06 -0.000453795)
(0.050641 4.31074e-06 -0.000425495)
(0.0514254 1.0493e-05 -0.000410546)
(0.0504941 3.80096e-06 -0.000327308)
(0.0513522 -9.25941e-07 -0.000360032)
(0.0504892 -3.91893e-06 -0.000287393)
(0.157363 5.22404e-05 -0.000869231)
(0.154684 6.59405e-05 -0.000551197)
(0.15744 4.68381e-05 -0.000663905)
(0.154812 2.80867e-05 -0.000408258)
(0.157605 2.74673e-05 -0.000585822)
(0.154901 4.69092e-05 -0.000399834)
(0.157764 4.72439e-05 -0.000492889)
(0.15499 4.09214e-05 -0.000344315)
(0.157932 1.20012e-05 -0.000484171)
(0.154875 3.77547e-05 -0.000364552)
(0.15797 3.15429e-05 -0.000547166)
(0.154681 5.13191e-05 -0.00042169)
(0.157911 3.19926e-05 -0.000592516)
(0.154516 -7.43005e-08 -0.000573279)
(0.157739 2.39104e-05 -0.000721095)
(0.154243 4.21149e-05 -0.000676486)
(0.157507 5.5711e-05 -0.000706744)
(0.154225 4.16203e-05 -0.000632433)
(0.157472 1.54542e-05 -0.000773573)
(0.154233 2.53447e-05 -0.000713663)
(0.157421 4.7438e-05 -0.000827285)
(0.154378 6.93308e-05 -0.00067713)
(0.157644 3.97021e-05 -0.000829335)
(0.154862 2.91088e-05 -0.000749328)
(0.157995 3.17968e-05 -0.000976956)
(0.155186 6.48353e-05 -0.000885027)
(0.15826 6.96683e-05 -0.000965684)
(0.155633 5.93764e-05 -0.000923999)
(0.158607 2.57457e-05 -0.00105356)
(0.155882 3.78527e-05 -0.00109752)
(0.158659 5.34701e-05 -0.00120014)
(0.15587 8.80977e-05 -0.00114)
(0.158672 5.42686e-05 -0.00126525)
(0.155791 2.79745e-05 -0.00119475)
(0.158367 3.8573e-05 -0.00129423)
(0.155396 6.21204e-05 -0.00117638)
(0.15794 7.66603e-05 -0.00116944)
(0.155062 4.95192e-05 -0.000988457)
(0.157638 3.18313e-05 -0.00103754)
(0.154845 2.52504e-05 -0.0008196)
(0.269687 0.00015565 -0.00144813)
(0.264966 0.000177571 -0.000978826)
(0.269732 0.00014025 -0.00111952)
(0.264975 9.90709e-05 -0.000699091)
(0.269796 9.89771e-05 -0.000932811)
(0.265017 0.000135819 -0.000590162)
(0.270131 0.000131854 -0.00074911)
(0.265274 0.00012089 -0.00048543)
(0.27045 5.96716e-05 -0.000696482)
(0.265103 0.000112138 -0.000498154)
(0.270645 9.53209e-05 -0.000794283)
(0.264841 0.000131957 -0.00058693)
(0.27064 8.74924e-05 -0.000921653)
(0.264571 3.71271e-05 -0.00084614)
(0.270125 8.75149e-05 -0.00112255)
(0.264198 0.000125654 -0.00104216)
(0.269695 0.000152908 -0.00114499)
(0.264187 0.000125406 -0.00103954)
(0.269483 7.32296e-05 -0.0012407)
(0.264017 0.000100292 -0.00115845)
(0.269151 0.000141779 -0.00132017)
(0.264147 0.000181306 -0.00110592)
(0.269387 0.000120951 -0.00130948)
(0.264708 0.00011021 -0.00116622)
(0.269788 0.000112379 -0.00146675)
(0.2652 0.000178615 -0.0013074)
(0.270319 0.000181923 -0.00144522)
(0.266043 0.000160888 -0.00136224)
(0.271011 9.26548e-05 -0.00157989)
(0.266515 0.00013006 -0.00161855)
(0.271317 0.000149661 -0.00177883)
(0.266758 0.000225426 -0.00174171)
(0.271786 0.000146642 -0.00191623)
(0.266869 0.000108733 -0.00184132)
(0.271446 0.000127374 -0.00202703)
(0.266374 0.000182332 -0.0018665)
(0.270986 0.000199841 -0.00188921)
(0.265928 0.000144754 -0.00165436)
(0.270349 0.00011045 -0.00173044)
(0.265362 0.000105041 -0.00139783)
(0.385565 0.000306147 -0.0020432)
(0.378535 0.000334905 -0.00143562)
(0.385468 0.000286533 -0.00162557)
(0.378338 0.000217516 -0.00102141)
(0.385175 0.000212463 -0.00129156)
(0.378034 0.000264639 -0.000754479)
(0.385477 0.000251378 -0.000917612)
(0.378424 0.000246063 -0.000523065)
(0.385989 0.000149306 -0.0007358)
(0.378255 0.00022596 -0.000399342)
(0.386405 0.000196001 -0.000798061)
(0.377972 0.000240229 -0.00043135)
(0.386444 0.000167571 -0.00092553)
(0.37774 0.000104765 -0.000817615)
(0.385431 0.000173107 -0.00120144)
(0.377323 0.000243609 -0.00115197)
(0.384697 0.000274338 -0.00130339)
(0.377359 0.000247028 -0.00123745)
(0.384295 0.00016874 -0.0014666)
(0.377 0.000221039 -0.00140802)
(0.383511 0.000278268 -0.00162163)
(0.376888 0.000334107 -0.0013815)
(0.383511 0.000236897 -0.00160749)
(0.377197 0.00023433 -0.00141092)
(0.383743 0.000238478 -0.00173828)
(0.377575 0.000341057 -0.00151771)
(0.384345 0.000332909 -0.00164423)
(0.378635 0.000301436 -0.00150662)
(0.385397 0.000190334 -0.00175239)
(0.379295 0.000270656 -0.00182561)
(0.386098 0.000275172 -0.00195783)
(0.379826 0.000395356 -0.0019943)
(0.387358 0.000271835 -0.00221998)
(0.380493 0.0002262 -0.00213411)
(0.387506 0.000251699 -0.00244182)
(0.380301 0.000353669 -0.0023269)
(0.387447 0.00037031 -0.00239452)
(0.380153 0.000283721 -0.00217625)
(0.386633 0.000227542 -0.00234024)
(0.379287 0.000231601 -0.001964)
(0.501183 0.000491574 -0.00243975)
(0.491841 0.000497976 -0.00169484)
(0.500937 0.000439907 -0.00205576)
(0.491748 0.000367184 -0.00131147)
(0.500504 0.000373204 -0.00166443)
(0.490928 0.000430618 -0.000943108)
(0.500192 0.00037594 -0.00102077)
(0.49108 0.000373145 -0.000502966)
(0.500749 0.000268756 -0.000695613)
(0.491079 0.000385823 -7.56668e-05)
(0.501529 0.000346243 -0.000564562)
(0.490827 0.000366223 6.4209e-05)
(0.501293 0.000231715 -0.000440352)
(0.490805 0.000194131 -0.000382084)
(0.499796 0.000273596 -0.00071859)
(0.490385 0.000395381 -0.000816254)
(0.498575 0.000382657 -0.000901658)
(0.490198 0.000344823 -0.00100638)
(0.497965 0.000263168 -0.00125599)
(0.489895 0.000379412 -0.00125018)
(0.496985 0.00046083 -0.00150263)
(0.489422 0.000508248 -0.00131187)
(0.496551 0.000346675 -0.00158755)
(0.489108 0.000360107 -0.00140366)
(0.496483 0.000399119 -0.00173575)
(0.489096 0.000559614 -0.00146767)
(0.496795 0.000507529 -0.0015182)
(0.489705 0.000449905 -0.00131977)
(0.497928 0.000281561 -0.00146799)
(0.490312 0.000451452 -0.00167321)
(0.499026 0.000442873 -0.00163691)
(0.4907 0.000565207 -0.00169564)
(0.500783 0.000383129 -0.00202435)
(0.491841 0.000338739 -0.00189158)
(0.501816 0.00037862 -0.00224044)
(0.492561 0.0005525 -0.00225602)
(0.502646 0.000561513 -0.00237202)
(0.493429 0.000429574 -0.00222441)
(0.502293 0.000351781 -0.00256404)
(0.492791 0.000382369 -0.00222778)
(0.611874 0.000714132 -0.00228297)
(0.60096 0.000672111 -0.00131902)
(0.611327 0.00050889 -0.00194753)
(0.600897 0.000413432 -0.00121001)
(0.611636 0.000529112 -0.0017773)
(0.601118 0.000671108 -0.00108961)
(0.61091 0.000527651 -0.00103465)
(0.600319 0.000423158 -0.000347294)
(0.610497 0.000288216 -0.000684875)
(0.600303 0.000535193 0.00028578)
(0.61248 0.000576038 -0.000214579)
(0.601096 0.000588938 0.000557674)
(0.611585 0.000214939 0.000453586)
(0.600494 0.000183365 0.000312815)
(0.609463 0.000332503 0.000334521)
(0.600571 0.000622688 -7.43931e-07)
(0.608334 0.00055409 0.000165616)
(0.599522 0.00035716 -8.75397e-05)
(0.606402 0.000200796 -0.00044543)
(0.598814 0.000468995 -0.000530627)
(0.606126 0.000706331 -0.000767566)
(0.598726 0.000754196 -0.000621137)
(0.605385 0.000421351 -0.000979509)
(0.596972 0.000360819 -0.000929279)
(0.604789 0.000491968 -0.00136867)
(0.596921 0.000848248 -0.00110549)
(0.605455 0.000762674 -0.00103253)
(0.596403 0.000594554 -0.000858505)
(0.605569 0.000259736 -0.000692369)
(0.596143 0.000565033 -0.00113782)
(0.607339 0.000686243 -0.000969033)
(0.59647 0.000809146 -0.000834746)
(0.608706 0.000461391 -0.00123922)
(0.596789 0.00035899 -0.00115297)
(0.609531 0.000419467 -0.00135136)
(0.598683 0.00074995 -0.00144132)
(0.611559 0.000784177 -0.00157745)
(0.600843 0.000530941 -0.00141491)
(0.611951 0.000390826 -0.00204245)
(0.601253 0.000484642 -0.00176025)
(0.712811 0.00083272 -0.00139897)
(0.703143 0.000980259 -0.000207801)
(0.713361 0.000637128 -0.000856134)
(0.702037 0.000164943 -0.000201743)
(0.712164 0.000301941 -0.000953395)
(0.704721 0.000843846 -0.000708049)
(0.714657 0.000852701 -0.000840542)
(0.704972 0.000544039 0.000151212)
(0.712273 1.79095e-05 -0.000334635)
(0.701826 0.000304561 0.000647693)
(0.714668 0.000673995 0.000406432)
(0.706617 0.0010443 0.000673229)
(0.716415 0.000378121 0.00133562)
(0.705163 -3.94307e-05 0.000874903)
(0.711288 4.05946e-05 0.00147629)
(0.704316 0.000710634 0.00107151)
(0.712364 0.000983471 0.00146288)
(0.704916 0.000564593 0.0014231)
(0.708477 -7.72787e-05 0.000997059)
(0.700259 0.000119168 0.000760447)
(0.707353 0.000769278 0.000503066)
(0.701987 0.00116526 0.000711225)
(0.708958 0.000676748 0.000334203)
(0.698516 0.000190408 0.000340123)
(0.705632 0.000169214 -0.000369996)
(0.697183 0.000964678 -0.000367865)
(0.708714 0.00117629 -9.38561e-05)
(0.698097 0.000933841 -0.000182878)
(0.707622 0.000106265 0.000458418)
(0.694287 0.000286827 -6.88967e-05)
(0.708483 0.000743186 -3.32051e-05)
(0.69621 0.00122574 0.000280629)
(0.710904 0.000717083 5.65239e-05)
(0.695425 0.000290193 -1.48411e-05)
(0.70825 0.00014269 -0.000125978)
(0.696219 0.000737962 -4.84297e-05)
(0.711385 0.00109982 -0.000250079)
(0.700416 0.000720204 0.000305108)
(0.711664 0.000248882 -0.000618527)
(0.700496 0.000261241 -0.000318659)
(0.800148 0.000263253 0.00032349)
(0.795265 0.00113632 0.00106444)
(0.805962 0.00126272 0.000667043)
(0.79771 0.000239688 0.0014246)
(0.800221 -0.000445533 0.0010135)
(0.795563 0.00025075 0.000937962)
(0.805503 0.00101211 6.01403e-05)
(0.802616 0.00116678 0.000688911)
(0.80783 7.36227e-05 0.000659203)
(0.794856 -0.000390567 0.00124391)
(0.802957 -7.69011e-05 0.00184965)
(0.799594 0.0011982 0.00102108)
(0.812482 0.00106789 0.00193447)
(0.804795 0.000167331 0.00122116)
(0.80574 -0.000556072 0.00201086)
(0.797403 1.17486e-05 0.00198978)
(0.805353 0.0011635 0.00232315)
(0.803943 0.00134376 0.00264791)
(0.806914 0.000191558 0.00249453)
(0.795182 -0.000561001 0.00239969)
(0.798496 6.5094e-05 0.00198767)
(0.79402 0.00127803 0.00231528)
(0.805697 0.00138463 0.00183044)
(0.794899 0.000502664 0.00204738)
(0.799648 -0.00047304 0.00150269)
(0.786273 0.000326464 0.000854326)
(0.80129 0.00130524 0.00127943)
(0.792616 0.00167573 0.000662041)
(0.805502 0.00041914 0.00158565)
(0.786416 -0.000241129 0.00139174)
(0.799394 6.9941e-05 0.00132594)
(0.786839 0.00133914 0.00152705)
(0.805487 0.00135075 0.00135921)
(0.790985 0.00059046 0.00156055)
(0.800355 -0.000325155 0.00112873)
(0.785658 8.36677e-05 0.00153622)
(0.800125 0.00118191 0.000937472)
(0.793158 0.00130966 0.00208831)
(0.803078 0.000418003 0.00133629)
(0.791015 -0.000353054 0.00194802)
(0.876003 -0.000830903 0.00291221)
(0.872527 8.96436e-05 0.00252481)
(0.882314 0.00159754 0.00156229)
(0.886284 0.0013336 0.00200657)
(0.882933 -0.000365972 0.00267161)
(0.875062 -0.000894846 0.00317412)
(0.878436 -5.05587e-05 0.00228883)
(0.882005 0.00142427 0.00111816)
(0.893445 0.00108607 0.00129378)
(0.882754 -0.000196833 0.00156254)
(0.881415 -0.00122754 0.00349323)
(0.874072 -3.69888e-06 0.00245095)
(0.88849 0.00122239 0.00249585)
(0.890788 0.00118098 0.00161637)
(0.892327 -0.000217337 0.00204198)
(0.880059 -0.00100748 0.00259429)
(0.881414 5.87666e-05 0.00263192)
(0.884449 0.00162572 0.00278332)
(0.89545 0.00143014 0.00268266)
(0.884491 -0.000203138 0.00344955)
(0.881649 -0.000940009 0.0032154)
(0.870696 0.00026012 0.00364241)
(0.886102 0.00162461 0.00285794)
(0.881516 0.00169102 0.00277621)
(0.888275 -0.000152913 0.00332038)
(0.86686 -0.000621716 0.00248187)
(0.877878 0.000304191 0.00284553)
(0.871108 0.00200307 0.00145458)
(0.891992 0.00151173 0.0019353)
(0.874693 0.000147949 0.00249054)
(0.880774 -0.000861201 0.00261253)
(0.865052 0.000350811 0.00305617)
(0.883595 0.001597 0.00185962)
(0.878181 0.00156314 0.00269395)
(0.886192 1.30614e-05 0.00234435)
(0.869459 -0.000890638 0.00318521)
(0.875284 0.000162855 0.00195659)
(0.874302 0.00162454 0.00253127)
(0.885815 0.00144574 0.00228215)
(0.877435 -0.000209794 0.00381831)
(0.94505 -0.000624982 0.00481246)
(0.937328 -0.00120912 0.00462908)
(0.936869 0.000434621 0.00215158)
(0.949956 0.00181371 0.000371348)
(0.953513 0.000879067 0.00192713)
(0.946624 -0.000727778 0.00404446)
(0.940542 -0.00126674 0.00480836)
(0.937991 0.000276813 0.00176743)
(0.952802 0.0014531 0.000422007)
(0.953807 0.000981783 0.000579868)
(0.952828 -0.000948827 0.0039057)
(0.938174 -0.00127529 0.00424842)
(0.942495 2.08155e-05 0.00269576)
(0.949368 0.00145633 0.00107876)
(0.958812 0.00100914 0.00144231)
(0.950465 -0.000697561 0.00337482)
(0.944118 -0.0011464 0.00332542)
(0.940028 0.000456487 0.00207123)
(0.9562 0.00189789 0.000691669)
(0.95546 0.00121687 0.00250756)
(0.954377 -0.000582764 0.00383836)
(0.935902 -0.00081586 0.00447498)
(0.943834 0.000533425 0.0029859)
(0.943582 0.0022261 0.00138161)
(0.95926 0.00120487 0.00310652)
(0.939989 -0.000246605 0.00386063)
(0.941534 -0.000856283 0.00440988)
(0.929826 0.00102817 0.00186983)
(0.951334 0.00197826 0.000467206)
(0.947117 0.00143623 0.00207405)
(0.951039 -0.000463507 0.00302542)
(0.93281 -0.000769878 0.00473228)
(0.940379 0.000585296 0.00176846)
(0.942605 0.00198196 0.0012852)
(0.954431 0.00124901 0.00200298)
(0.944489 -0.000576619 0.00440837)
(0.938355 -0.00110937 0.00387124)
(0.93567 0.000574881 0.00196518)
(0.94716 0.00191227 0.000466083)
(0.951176 0.00105144 0.00277539)
(0.99423 0.000497808 0.00309535)
(0.988738 -0.00099451 0.00664092)
(0.978723 -0.000515527 0.00442666)
(0.986017 0.0011283 -0.00149926)
(0.994782 0.00146846 -0.00189407)
(0.995549 0.000285597 0.00207772)
(0.990223 -0.00106439 0.00658453)
(0.98082 -0.00056763 0.00379478)
(0.987385 0.000874113 -0.00105303)
(0.993317 0.00145505 -0.00265284)
(0.9999 7.77129e-05 0.00202239)
(0.989572 -0.0011083 0.00600071)
(0.984322 -0.000856053 0.00399978)
(0.985002 0.000830199 -0.000426922)
(0.995919 0.00155385 -0.00167947)
(0.996223 0.000343014 0.00261713)
(0.992012 -0.000989404 0.00553522)
(0.980919 -0.000490645 0.00336614)
(0.989716 0.00119151 -0.00180721)
(0.995014 0.00188336 -0.00152555)
(1.00131 0.000534268 0.00263099)
(0.986905 -0.000544143 0.00585967)
(0.985717 -0.00035813 0.0041961)
(0.981376 0.00167 -0.000925604)
(0.998476 0.00187429 -0.000635446)
(0.991103 0.00092114 0.00304044)
(0.990231 -0.000647255 0.00646591)
(0.975843 0.000147449 0.00374541)
(0.98574 0.00143789 -0.0017504)
(0.989583 0.00199735 -0.00128362)
(0.996929 0.000672483 0.00148425)
(0.985491 -0.000498141 0.00625738)
(0.982487 -0.000276756 0.00365497)
(0.982476 0.00141446 -0.00106045)
(0.993457 0.00178803 -0.0017158)
(0.994863 0.00059063 0.00277202)
(0.987827 -0.00092167 0.00646514)
(0.980555 -0.000330121 0.00374318)
(0.983897 0.00125746 -0.00179735)
(0.99425 0.00167578 -0.00204573)
(1.0169 0.000950399 -0.000921054)
(1.0174 -0.000262971 0.00590791)
(1.00858 -0.000253815 0.00708752)
(1.00815 0.000756042 -0.000182336)
(1.01343 0.00128049 -0.00434046)
(1.01757 0.000657517 -0.00145493)
(1.01751 -0.000427451 0.00586929)
(1.01027 -0.000340336 0.0063399)
(1.00944 0.000660574 6.1817e-05)
(1.01179 0.00126665 -0.00478234)
(1.01957 0.000416901 -0.00134595)
(1.0177 -0.000497206 0.0056532)
(1.01269 -0.000635958 0.00624007)
(1.00831 0.000569393 0.00045056)
(1.01352 0.00148203 -0.00409394)
(1.017 0.000775719 -0.000482506)
(1.01837 -0.000371133 0.00592843)
(1.00969 -0.000347376 0.00628423)
(1.00998 0.000703531 -0.000729772)
(1.01298 0.00170948 -0.00448372)
(1.02095 0.000905841 -0.000542702)
(1.01578 0.000143137 0.00567885)
(1.0132 -0.000194831 0.00662806)
(1.0059 0.00130711 -0.000161349)
(1.0153 0.00171018 -0.00365517)
(1.0156 0.00132203 -0.000208886)
(1.01729 5.76153e-05 0.00648294)
(1.00789 0.000278943 0.0066576)
(1.0079 0.00112662 -0.000716155)
(1.01027 0.00180592 -0.00388778)
(1.01745 0.00103537 -0.00150036)
(1.0148 0.000190643 0.00556032)
(1.01096 -9.56822e-05 0.0064654)
(1.00742 0.00114091 -8.64612e-05)
(1.01216 0.00159816 -0.00426648)
(1.01726 0.00101974 -0.00101484)
(1.01599 -0.000225126 0.00627549)
(1.01043 -8.90665e-05 0.00670701)
(1.00719 0.000912446 -0.000363886)
(1.01335 0.00150895 -0.00504229)
(1.02484 0.000655227 -0.00257877)
(1.02759 -0.000142589 0.00368261)
(1.0242 0.000281321 0.00705699)
(1.02222 0.00102654 0.00179127)
(1.02274 0.00103963 -0.00341219)
(1.02521 0.000320466 -0.00275341)
(1.02718 -0.00036244 0.0037718)
(1.02505 9.5879e-05 0.0064989)
(1.02305 0.00101881 0.00191698)
(1.02189 0.0010784 -0.00382352)
(1.02582 2.5161e-05 -0.00270331)
(1.02758 -0.000452483 0.00371328)
(1.02643 -0.000159953 0.00640328)
(1.02268 0.000877728 0.00211536)
(1.02292 0.00138731 -0.00336709)
(1.02465 0.000476983 -0.0021797)
(1.02785 -0.000330564 0.00411)
(1.02507 0.000119566 0.00675123)
(1.02302 0.000875014 0.00158138)
(1.02249 0.00144431 -0.00377347)
(1.02669 0.000489773 -0.00208477)
(1.02684 0.000193634 0.00387122)
(1.0267 0.00024924 0.00691472)
(1.02151 0.00151525 0.00180314)
(1.02357 0.00146027 -0.00313169)
(1.0246 0.000871855 -0.00189377)
(1.02742 0.000129969 0.00457224)
(1.0245 0.000681648 0.00707204)
(1.02228 0.00138211 0.00152749)
(1.02141 0.00154838 -0.00321958)
(1.02491 0.000625172 -0.00254203)
(1.02605 0.000226965 0.00356352)
(1.02555 0.000287052 0.00672046)
(1.02241 0.00144113 0.00187561)
(1.02242 0.00141011 -0.00338004)
(1.02487 0.000672061 -0.00255891)
(1.0267 -0.000157445 0.00412329)
(1.02548 0.000385938 0.00696254)
(1.02205 0.00119368 0.00189192)
(1.02285 0.00130888 -0.00404444)
(1.02785 0.000265415 -0.00195195)
(1.02958 -0.000404575 0.00214738)
(1.02958 0.000394411 0.00496341)
(1.02917 0.00123496 0.00171712)
(1.02788 0.000905563 -0.00193836)
(1.02801 -6.79066e-05 -0.00198136)
(1.02917 -0.000624952 0.00227944)
(1.02984 0.000145588 0.00463711)
(1.02943 0.0012616 0.00189672)
(1.0277 0.00100517 -0.00231848)
(1.02812 -0.000358245 -0.00201277)
(1.02947 -0.000722658 0.00218291)
(1.03048 -6.33515e-05 0.00455341)
(1.02932 0.00107948 0.00198425)
(1.0282 0.00132598 -0.00199842)
(1.02781 0.000111225 -0.00183741)
(1.02961 -0.000632524 0.00239288)
(1.03031 0.000221548 0.00476867)
(1.02948 0.00103947 0.00186922)
(1.028 0.00128242 -0.00219629)
(1.0284 3.81773e-05 -0.0015994)
(1.02938 -0.000130439 0.00234756)
(1.03075 0.000309603 0.00500848)
(1.0291 0.00164704 0.00192416)
(1.02832 0.00130261 -0.00171061)
(1.02786 0.000357687 -0.00149278)
(1.02958 -0.000198504 0.00291048)
(1.03014 0.000705221 0.00511862)
(1.02936 0.00155383 0.00183426)
(1.02764 0.00138331 -0.00184709)
(1.0279 0.000145445 -0.00172564)
(1.02896 -0.000107978 0.00218157)
(1.03037 0.000283975 0.00479777)
(1.02935 0.00162131 0.00191943)
(1.02823 0.00130125 -0.0019562)
(1.02769 0.00025117 -0.0018644)
(1.02918 -0.000460617 0.00242466)
(1.03032 0.000436826 0.00491404)
(1.0293 0.00139196 0.00194174)
(1.02815 0.00118063 -0.0023611)
(1.02895 9.64735e-05 -0.00099453)
(1.02944 -0.000484978 0.0013768)
(1.0302 0.000263077 0.00267803)
(1.03078 0.00103807 0.000455006)
(1.02969 0.00069648 -0.00127472)
(1.02901 -0.000198256 -0.000942663)
(1.02919 -0.000672527 0.00151647)
(1.0302 1.75433e-05 0.00252573)
(1.03075 0.00109295 0.000685648)
(1.02978 0.000823301 -0.00160091)
(1.02903 -0.000440992 -0.000999965)
(1.02932 -0.000764474 0.00137082)
(1.03048 -0.000121539 0.002414)
(1.03066 0.00088491 0.000722971)
(1.02994 0.00110566 -0.00141641)
(1.02907 -2.75336e-05 -0.0010372)
(1.02938 -0.000716136 0.0014202)
(1.03065 8.84417e-05 0.0024344)
(1.03081 0.000841355 0.000762281)
(1.02987 0.00104606 -0.00143927)
(1.02901 -0.00010811 -0.00072065)
(1.02938 -0.00026732 0.00147874)
(1.03067 0.000157812 0.00277378)
(1.03081 0.00136892 0.000734064)
(1.02995 0.00105917 -0.00103434)
(1.02899 0.000133124 -0.000676584)
(1.02943 -0.000347601 0.00192922)
(1.03062 0.000486254 0.00279466)
(1.03092 0.00131712 0.000746123)
(1.02984 0.00110496 -0.0012486)
(1.029 -4.91141e-05 -0.000741999)
(1.02928 -0.000256638 0.00146429)
(1.03062 9.45492e-05 0.00260491)
(1.03078 0.00135513 0.000725011)
(1.03016 0.00105362 -0.00139169)
(1.0288 8.80516e-05 -0.000861795)
(1.02928 -0.000560747 0.00148313)
(1.03055 0.000252199 0.00259543)
(1.03089 0.00115553 0.000662426)
(1.02992 0.000923667 -0.00158419)
(1.0291 7.98827e-05 -0.000418807)
(1.02919 -0.000337249 0.000890793)
(1.02967 0.000165456 0.00120891)
(1.03022 0.000661388 -0.000350413)
(1.02964 0.000421649 -0.000898025)
(1.02915 -0.000165763 -0.000316758)
(1.02907 -0.00047094 0.00102276)
(1.02961 -4.72076e-05 0.00116375)
(1.03011 0.000729182 -0.0001496)
(1.02977 0.000537572 -0.0011644)
(1.02919 -0.000353649 -0.000383695)
(1.02908 -0.000537821 0.000885421)
(1.02975 -0.000128753 0.00102206)
(1.03003 0.000519988 -0.00012014)
(1.02974 0.0007551 -0.00109448)
(1.02931 -2.90896e-05 -0.000493683)
(1.02911 -0.000524943 0.000852584)
(1.02988 1.13564e-05 0.000960942)
(1.03012 0.000485412 -4.87515e-05)
(1.02969 0.000718575 -0.00103378)
(1.0291 -9.03067e-05 -0.000182161)
(1.0291 -0.000141958 0.000917687)
(1.02985 7.10815e-05 0.00131196)
(1.03017 0.000917457 -0.000129072)
(1.02977 0.000723858 -0.000680938)
(1.02919 0.000101903 -0.000196764)
(1.02911 -0.000228751 0.00128427)
(1.02988 0.000324788 0.00126439)
(1.03023 0.000891179 -6.62165e-05)
(1.02982 0.000744168 -0.00092707)
(1.02916 -5.59809e-05 -0.000190202)
(1.02916 -0.000144179 0.000974571)
(1.02987 -6.81012e-06 0.00118005)
(1.03008 0.000920313 -0.000111343)
(1.02999 0.000701904 -0.00108469)
(1.02905 6.24366e-05 -0.000271654)
(1.02911 -0.000396852 0.000895619)
(1.0298 0.000133628 0.00111843)
(1.03023 0.000749736 -0.000211553)
(1.02976 0.000580788 -0.00115576)
(1.02903 7.98718e-05 -0.000172364)
(1.02911 -0.000158064 0.000533163)
(1.02931 0.000139654 0.000562103)
(1.02962 0.000350001 -0.000427348)
(1.02932 0.000190958 -0.000536966)
(1.02909 -0.000116556 -5.37483e-05)
(1.02905 -0.000241523 0.0006454)
(1.02926 -3.48444e-05 0.000568892)
(1.02951 0.000423575 -0.000293452)
(1.02941 0.000283934 -0.000723722)
(1.02914 -0.000249162 -0.000132723)
(1.02903 -0.000285982 0.000549026)
(1.02936 -7.06176e-05 0.000415873)
(1.02945 0.000236082 -0.000254489)
(1.02931 0.000440502 -0.00071945)
(1.02925 -1.52837e-05 -0.000221771)
(1.02904 -0.000296878 0.000482354)
(1.02941 7.65802e-06 0.000357647)
(1.0295 0.000202248 -0.000203319)
(1.02925 0.000419758 -0.000650545)
(1.02907 -5.66229e-05 2.32683e-05)
(1.029 2.0391e-05 0.000521936)
(1.0294 5.82731e-05 0.000658353)
(1.02952 0.000543731 -0.00030153)
(1.02935 0.000428711 -0.000353729)
(1.02916 8.9433e-05 -3.07377e-05)
(1.02899 -6.49136e-05 0.000828431)
(1.02942 0.000243738 0.000574867)
(1.02956 0.000524509 -0.000211395)
(1.02943 0.000433837 -0.000578052)
(1.0291 -3.44844e-05 1.46036e-05)
(1.02909 1.17893e-05 0.00060248)
(1.02943 -1.5728e-05 0.000544403)
(1.02944 0.000566871 -0.000258949)
(1.02955 0.000381184 -0.00072556)
(1.02905 5.26449e-05 -3.4905e-05)
(1.02906 -0.000193038 0.000500087)
(1.02937 0.000100779 0.000489)
(1.02958 0.000425796 -0.000354615)
(1.02936 0.000281613 -0.000738869)
(1.029 6.99331e-05 -8.24317e-05)
(1.02912 -4.63338e-05 0.000298559)
(1.02922 0.000131987 0.000314698)
(1.0294 0.000162141 -0.000259953)
(1.02917 4.39258e-05 -0.000269925)
(1.02906 -9.21484e-05 3.28121e-05)
(1.02908 -9.27009e-05 0.000385017)
(1.02919 -8.42711e-06 0.000345543)
(1.02932 0.000229431 -0.00018516)
(1.02923 0.000115773 -0.000381466)
(1.02911 -0.000186279 -5.68005e-05)
(1.02905 -0.00012201 0.000332228)
(1.02926 -1.18889e-05 0.000196449)
(1.02928 7.25387e-05 -0.00013679)
(1.02913 0.000223347 -0.000405935)
(1.02919 -2.82928e-05 -9.94702e-05)
(1.02905 -0.000148462 0.000254483)
(1.02929 2.77133e-05 0.000162268)
(1.02931 4.06917e-05 -0.000116886)
(1.02908 0.000210362 -0.000356996)
(1.02906 -5.26843e-05 7.08849e-05)
(1.02901 0.000110695 0.00026602)
(1.02929 6.78435e-05 0.000400522)
(1.0293 0.000308266 -0.000214533)
(1.02918 0.000215814 -0.00011443)
(1.02913 5.6553e-05 -6.81063e-06)
(1.029 3.67313e-05 0.0005259)
(1.0293 0.000199512 0.000301923)
(1.02933 0.00029233 -0.000111553)
(1.02925 0.0002212 -0.000302272)
(1.02907 -3.53442e-05 5.77114e-05)
(1.02908 0.000107434 0.000353223)
(1.02932 -2.50613e-06 0.000291691)
(1.02923 0.000339582 -0.000155913)
(1.02936 0.000156945 -0.0004291)
(1.02903 3.37014e-05 3.80494e-05)
(1.02908 -6.397e-05 0.00025171)
(1.02927 9.44477e-05 0.000264842)
(1.02935 0.000227204 -0.000236415)
(1.0292 7.75952e-05 -0.000416571)
(1.02901 5.79431e-05 -4.71693e-05)
(1.02914 6.09666e-06 0.00015663)
(1.02922 0.000118121 0.000192883)
(1.02935 5.57203e-05 -0.000126418)
(1.02914 -3.35449e-05 -0.000123081)
(1.02907 -7.68494e-05 5.69675e-05)
(1.02911 -1.01777e-05 0.000222542)
(1.0292 5.87706e-06 0.000235617)
(1.02929 0.00011221 -9.47495e-05)
(1.02918 2.03105e-05 -0.000177577)
(1.02911 -0.000141084 -3.77128e-05)
(1.02909 -3.19948e-05 0.000204377)
(1.02926 2.16802e-05 9.93008e-05)
(1.02927 -1.52907e-05 -3.89961e-05)
(1.02911 9.08197e-05 -0.000215326)
(1.02918 -3.35166e-05 -4.48852e-05)
(1.02907 -6.22514e-05 0.000126837)
(1.02928 3.62696e-05 8.42911e-05)
(1.02929 -4.48545e-05 -4.45508e-05)
(1.02906 7.97081e-05 -0.000192422)
(1.02908 -5.08603e-05 7.1062e-05)
(1.02903 0.000142156 0.000112169)
(1.02928 6.89298e-05 0.000269445)
(1.02927 0.000159401 -0.00013805)
(1.02914 8.91762e-05 7.09685e-06)
(1.02914 2.8937e-05 -2.32942e-05)
(1.02903 8.45032e-05 0.000334588)
(1.02929 0.000156569 0.000163159)
(1.02928 0.000149629 -3.08545e-05)
(1.0292 9.19674e-05 -0.00014557)
(1.02908 -3.89488e-05 5.04092e-05)
(1.0291 0.00014961 0.000198348)
(1.02932 -3.35555e-06 0.000164112)
(1.0292 0.000203063 -6.77387e-05)
(1.02931 2.21538e-05 -0.000256577)
(1.02904 1.77297e-05 5.47426e-05)
(1.0291 2.49081e-06 0.000105401)
(1.02927 8.00314e-05 0.000163902)
(1.02931 0.000111624 -0.000136311)
(1.02917 -3.90051e-05 -0.000224451)
(1.02903 4.79828e-05 -3.37663e-05)
(1.02916 2.13924e-05 7.24777e-05)
(1.02923 9.84608e-05 0.000116746)
(1.02933 -2.7213e-07 -5.37713e-05)
(1.02913 -6.34915e-05 -5.38738e-05)
(1.02909 -6.75731e-05 5.59813e-05)
(1.02913 2.93219e-05 0.000123501)
(1.02921 8.87918e-06 0.000164572)
(1.02929 4.6157e-05 -5.15127e-05)
(1.02916 -2.4375e-05 -6.82671e-05)
(1.02912 -0.000103851 -3.54244e-05)
(1.02912 6.93707e-06 0.000128166)
(1.02926 3.54886e-05 4.33119e-05)
(1.02927 -5.45524e-05 5.6803e-06)
(1.02912 2.01006e-05 -0.000112939)
(1.02918 -3.55159e-05 -2.42319e-05)
(1.0291 -2.11543e-05 5.82982e-05)
(1.02928 3.39161e-05 3.91397e-05)
(1.02929 -7.54817e-05 -1.22076e-05)
(1.02907 8.83825e-06 -0.000110109)
(1.02911 -4.86924e-05 5.9404e-05)
(1.02906 0.000132995 2.3178e-05)
(1.02928 5.98852e-05 0.000186539)
(1.02927 7.50993e-05 -0.00010395)
(1.02913 2.5574e-05 5.58352e-05)
(1.02916 9.27647e-06 -4.59319e-05)
(1.02906 9.40332e-05 0.000214266)
(1.0293 0.000114618 7.80252e-05)
(1.02928 7.01743e-05 2.57707e-06)
(1.02919 2.56317e-05 -6.96191e-05)
(1.02911 -4.54942e-05 2.95111e-05)
(1.02912 0.000157184 0.000105661)
(1.02933 -1.44206e-05 8.2994e-05)
(1.0292 0.000128806 -2.54495e-05)
(1.02929 -5.22816e-05 -0.000170229)
(1.02905 9.28251e-06 5.61903e-05)
(1.02912 2.72931e-05 1.94439e-05)
(1.02928 5.83226e-05 0.000104488)
(1.02929 5.29986e-05 -8.44931e-05)
(1.02917 -9.68098e-05 -0.000124055)
(1.02906 4.6409e-05 -2.37237e-05)
(1.02917 1.85071e-05 2.61609e-05)
(1.02923 8.03879e-05 6.70077e-05)
(1.02931 -3.03063e-05 -1.99689e-05)
(1.02913 -6.41462e-05 -2.41998e-05)
(1.02912 -6.01508e-05 5.06222e-05)
(1.02915 4.89514e-05 6.74166e-05)
(1.02922 7.22262e-06 0.000115021)
(1.02929 9.91787e-06 -3.47173e-05)
(1.02914 -4.05557e-05 -1.29683e-05)
(1.02914 -7.13896e-05 -3.42402e-05)
(1.02915 2.14548e-05 8.50457e-05)
(1.02925 3.81727e-05 1.10861e-05)
(1.02927 -6.77525e-05 1.78503e-05)
(1.02913 -1.66469e-05 -5.71696e-05)
(1.02918 -2.9086e-05 -1.58364e-05)
(1.02911 2.98566e-07 2.70592e-05)
(1.02928 2.69944e-05 1.05397e-05)
(1.02929 -7.97947e-05 -2.39952e-06)
(1.02908 -2.82955e-05 -7.24394e-05)
(1.02914 -4.0218e-05 4.99373e-05)
(1.02908 0.000114553 -2.57228e-05)
(1.02927 4.85575e-05 0.000132115)
(1.02927 3.11411e-05 -9.25178e-05)
(1.02913 -7.71083e-06 7.09284e-05)
(1.02918 2.43939e-06 -6.09818e-05)
(1.02908 8.84606e-05 0.000140198)
(1.0293 8.43814e-05 2.36677e-05)
(1.02927 2.53758e-05 9.3544e-06)
(1.02918 -2.34489e-06 -3.40794e-05)
(1.02914 -4.9335e-05 1.09855e-05)
(1.02913 0.000153191 5.32097e-05)
(1.02932 -3.10111e-05 2.93622e-05)
(1.0292 9.00378e-05 -6.54209e-06)
(1.02928 -8.7068e-05 -0.000128636)
(1.02908 6.87711e-06 5.66297e-05)
(1.02913 3.6749e-05 -2.93529e-05)
(1.02929 3.53742e-05 6.81023e-05)
(1.02927 2.63098e-05 -6.20612e-05)
(1.02918 -0.00012042 -7.07653e-05)
(1.02909 4.99798e-05 -1.74987e-05)
(1.02918 3.27239e-06 1.10174e-08)
(1.02922 6.57805e-05 3.73582e-05)
(1.02929 -4.40803e-05 -1.83057e-06)
(1.02913 -4.98648e-05 -1.04952e-05)
(1.02914 -5.28676e-05 4.20766e-05)
(1.02916 5.27031e-05 3.58804e-05)
(1.02921 5.7659e-06 8.11389e-05)
(1.02928 -8.55229e-06 -2.60392e-05)
(1.02914 -4.07844e-05 1.42547e-05)
(1.02915 -4.45168e-05 -3.13603e-05)
(1.02917 2.22766e-05 5.80675e-05)
(1.02924 3.38205e-05 -3.53805e-06)