/*--------------------------------*- C++ -*----------------------------------*\
  =========                 |
  \\      /  F ield         | OpenFOAM: The Open Source CFD Toolbox
   \\    /   O peration     | Website:  https://openfoam.org
    \\  /    A nd           | Version:  10
     \\/     M anipulation  |
\*---------------------------------------------------------------------------*/
FoamFile
{
    format      ascii;
    class       surfaceScalarField;
    location    "5";
    object      phi;
}
// * * * * * * * * * * * * * * * * * * * * * * * * * * * * * * * * * * * * * //

dimensions      [0 3 -1 0 0 0 0];

internalField   nonuniform List<scalar> 
74080
(
0.00487517
0.000794963
0.00122767
0.00486711
0.000804984
0.00124239
0.00485484
0.000802349
0.00123979
0.00485455
0.000790871
0.00122314
0.0048655
0.000783404
0.00121669
0.00487493
0.000793883
0.00122657
0.00486932
0.000805438
0.00123916
0.00485748
0.000801105
0.00123928
0.00485702
0.000788362
0.00122384
0.00487006
0.000786159
0.00121631
0.00487843
0.000796385
0.00122516
0.00487303
0.000806629
0.00124148
0.0048564
0.000805554
0.00124379
0.00485074
0.000789684
0.00122508
0.00486209
0.000785245
0.00121607
0.00486824
0.000792702
0.00122768
0.00486315
0.000802798
0.00124159
0.00485011
0.000799718
0.00124084
0.00485053
0.000784936
0.00122498
0.00486533
0.000783738
0.00121481
0.00487488
0.000795684
0.00122726
0.00486823
0.000806124
0.00124401
0.00485356
0.00080244
0.00123834
0.00485397
0.000791529
0.00122301
0.00486322
0.00078334
0.00121755
0.00487059
0.000792677
0.00122676
0.00486381
0.000802556
0.00124221
0.0048509
0.000799213
0.00123947
0.00485071
0.000786952
0.0012242
0.00486314
0.000782364
0.00121717
0.00487429
0.000794783
0.00122817
0.00486589
0.000807478
0.00124166
0.0048541
0.000800699
0.00123878
0.00485409
0.000790316
0.00122399
0.00486499
0.000784976
0.00121667
0.00487763
0.000794544
0.00122675
0.00487225
0.000809564
0.00123925
0.00485962
0.000804211
0.00123926
0.00485734
0.000791763
0.00122472
0.000785544
0.0012157
0.00586514
0.000613398
-0.000255649
0.00586525
0.000613697
-0.000244946
0.00586693
0.000612709
-0.000260105
0.00586573
0.000615494
-0.000285062
0.00586433
0.000612467
-0.000282211
0.00586381
0.000612196
-0.000258619
0.00586644
0.000613222
-0.00024768
0.00586784
0.000613071
-0.000261918
0.0058672
0.000613042
-0.000283206
0.00586715
0.00061153
-0.00027953
0.00586677
0.000613858
-0.000258749
0.0058676
0.000614498
-0.000242329
0.0058669
0.000615339
-0.000256799
0.00586588
0.000614608
-0.000285432
0.00586501
0.000613107
-0.000281435
0.0058627
0.000612701
-0.0002579
0.00586375
0.000612157
-0.000245872
0.00586432
0.000612618
-0.000262264
0.00586427
0.000609957
-0.000284481
0.0058642
0.000610764
-0.000280278
0.00586433
0.000612405
-0.000254762
0.00586464
0.000613255
-0.000243957
0.00586602
0.00061351
-0.000263799
0.00586589
0.000615653
-0.000286262
0.00586291
0.000614369
-0.000282697
0.0058621
0.000612365
-0.000257884
0.00586379
0.000610571
-0.000245815
0.00586547
0.000610847
-0.000260106
0.00586527
0.000611112
-0.000283077
0.00586432
0.000610676
-0.000279173
0.0058656
0.00060885
-0.000252896
0.00586747
0.000612256
-0.000245138
0.00586955
0.00061289
-0.000264372
0.00586988
0.000612613
-0.000283087
0.00586732
0.000613712
-0.000277661
0.00586775
0.000608727
-0.000252799
0.00586845
0.00061583
-0.000245537
0.00586984
0.000615594
-0.000262212
0.00586789
0.000615439
-0.00028383
0.000614801
-0.000281439
0.00469624
0.000518906
0.000362093
0.00469577
0.000501383
0.000366931
0.00471166
0.000486384
0.000348891
0.00472371
0.000494277
0.00033444
0.00471359
0.000514153
0.000343
0.00469694
0.000519856
0.000359526
0.00469469
0.000504726
0.000363974
0.00470983
0.000487317
0.000350152
0.00471937
0.00049463
0.00033703
0.00471102
0.000513091
0.000342827
0.0046957
0.00052089
0.000360301
0.00469328
0.000503674
0.000369033
0.0047107
0.000485197
0.000352169
0.00472206
0.000494212
0.000334685
0.00471119
0.000516556
0.000341679
0.00469638
0.000519301
0.000360524
0.00469537
0.000500498
0.000366368
0.00470904
0.000487777
0.000348445
0.00471793
0.000493518
0.000335365
0.00470716
0.000514687
0.000343633
0.00469353
0.00051761
0.000361886
0.00469495
0.000499454
0.000366288
0.00471073
0.000488063
0.00034568
0.00472151
0.000497297
0.000331387
0.00471151
0.00051648
0.000343549
0.0046941
0.000520041
0.000361085
0.00469086
0.000504
0.00036449
0.00470569
0.000485434
0.00035218
0.00471408
0.000493952
0.000335496
0.00470399
0.000513689
0.000345071
0.00468744
0.000515147
0.000364359
0.00468999
0.000500064
0.000362868
0.00470549
0.000487459
0.000348048
0.00471421
0.000497166
0.000335817
0.00470537
0.000514656
0.0003466
0.00469139
0.000514315
0.000362428
0.0046967
0.000500451
0.000364197
0.00471214
0.000488035
0.000349118
0.00472274
0.00049609
0.000334531
0.000518174
0.000343372
0.00423662
0.000673121
-0.000213979
0.00422507
0.000669868
-0.00018328
0.00421462
0.00066084
-0.000179253
0.00421869
0.000660133
-0.000209842
0.00423476
0.000664236
-0.000229413
0.00424037
0.00067035
-0.000214404
0.00423111
0.00066952
-0.000186575
0.00422059
0.000662667
-0.000180792
0.00422357
0.000661212
-0.00020618
0.00423504
0.000665706
-0.000225763
0.00423708
0.000672919
-0.000216065
0.00422424
0.00067218
-0.000186438
0.00421278
0.000662547
-0.000176649
0.00421763
0.000659338
-0.000208009
0.00423437
0.000664543
-0.000231682
0.00423537
0.000672783
-0.000213397
0.00422547
0.000667636
-0.00018438
0.00421913
0.000660061
-0.00018154
0.00422289
0.00066037
-0.000209189
0.00423741
0.000665185
-0.000230426
0.00423699
0.000672575
-0.000212876
0.00422688
0.000666066
-0.000179586
0.00421975
0.000659648
-0.000181219
0.00422437
0.000662732
-0.000213786
0.00423705
0.000668327
-0.000229697
0.00424252
0.000670801
-0.000215398
0.00423209
0.000669174
-0.000183565
0.0042197
0.000661845
-0.000177445
0.0042258
0.000659052
-0.00021074
0.00423757
0.000667333
-0.000230864
0.00424197
0.000668009
-0.000210506
0.00423226
0.000665075
-0.000180389
0.00422475
0.00066033
-0.000182595
0.00422834
0.000661482
-0.000210031
0.00423791
0.000668524
-0.000228652
0.0042363
0.000671526
-0.000209028
0.0042228
0.000669237
-0.000181913
0.00421614
0.000660516
-0.000182959
0.00422089
0.000660983
-0.000209419
0.000666845
-0.000231141
0.0040666
0.000816915
-0.000134954
0.00406249
0.000806196
-0.000105256
0.00406878
0.000780323
-8.68509e-05
0.00407544
0.000777316
-0.00010247
0.00407132
0.000799066
-0.0001299
0.00406321
0.000815841
-0.000134417
0.00406126
0.000805142
-0.000110777
0.00406664
0.000781497
-8.77736e-05
0.00407077
0.000779706
-0.00010061
0.00407012
0.000798323
-0.000128944
0.00406682
0.000815339
-0.000137012
0.00406432
0.000808085
-0.000111182
0.0040678
0.000782505
-8.21919e-05
0.00407221
0.000778288
-0.000100783
0.00406979
0.000799065
-0.000134078
0.00406676
0.000814033
-0.000134876
0.00406319
0.000804214
-0.000106045
0.0040657
0.000782061
-8.72698e-05
0.00407198
0.000776971
-0.000102586
0.00407049
0.000797509
-0.000132987
0.00406554
0.000815885
-0.000135014
0.00406039
0.000805178
-0.000101482
0.00406468
0.00078039
-8.70141e-05
0.00407302
0.000777339
-0.00010737
0.00407106
0.000800655
-0.000132176
0.00406124
0.000818732
-0.00013607
0.00405872
0.00080627
-0.000108115
0.00406532
0.00078074
-8.44911e-05
0.00407145
0.000775473
-0.000103121
0.00406984
0.000799636
-0.000133413
0.00405987
0.000814478
-0.000129522
0.00405609
0.000802156
-0.000102883
0.00406013
0.000780436
-8.72759e-05
0.00406879
0.000777273
-0.000106092
0.00406807
0.000801359
-0.000133199
0.00406237
0.000813946
-0.000130012
0.00406323
0.000802729
-0.000104779
0.00406839
0.000779612
-8.72035e-05
0.00407407
0.000778411
-0.000104055
0.000800131
-0.00013434
0.00379804
0.000908533
-0.000119778
0.00377185
0.000930176
-0.000112148
0.00375481
0.000914695
-0.000105806
0.00377272
0.00088337
-0.000109708
0.00380027
0.000881916
-0.000119585
0.00380042
0.00090658
-0.000119735
0.00377226
0.000929955
-0.000115366
0.00375534
0.000916354
-0.000107524
0.0037711
0.000888597
-0.000110297
0.00380102
0.000880121
-0.000116625
0.00380288
0.000903418
-0.000119777
0.00377514
0.000931435
-0.000116721
0.00375848
0.000916596
-0.000103528
0.00377523
0.000885538
-0.000108741
0.00380261
0.00088214
-0.000123051
0.00380165
0.000905405
-0.000117686
0.00377287
0.000928202
-0.000110874
0.00375738
0.000915432
-0.000107049
0.00377355
0.000885929
-0.000110477
0.0037999
0.000882335
-0.000123133
0.00379991
0.000905566
-0.000119412
0.0037719
0.000927589
-0.000104119
0.00375433
0.000915684
-0.000105416
0.00377155
0.000887358
-0.000116868
0.00380336
0.000879951
-0.000123183
0.00380469
0.000906451
-0.000120091
0.00377458
0.000931671
-0.00011104
0.00375638
0.000915566
-0.000103067
0.00377067
0.000887674
-0.000112688
0.00380046
0.000881134
-0.000124042
0.00379703
0.000907515
-0.000116425
0.00376783
0.000928578
-0.0001069
0.0037529
0.000914861
-0.00010661
0.00377016
0.00088546
-0.000112284
0.00379886
0.000881806
-0.000121941
0.0037972
0.000907965
-0.000117617
0.00377228
0.000925103
-0.000107996
0.00375542
0.000913769
-0.000105852
0.00377397
0.000884941
-0.000111419
0.000882713
-0.000122128
0.00361397
0.000957818
-0.000107545
0.0036516
0.00096873
-0.00010993
0.00363817
0.000995583
-9.28335e-05
0.00359149
0.00100189
-8.2344e-05
0.00357617
0.000979425
-9.20906e-05
0.00361235
0.000955663
-0.000106604
0.00365308
0.0009652
-0.00011172
0.00363853
0.000998089
-9.41698e-05
0.00359093
0.00100712
-8.35349e-05
0.003575
0.000978717
-9.04802e-05
0.00360848
0.000954559
-0.000106214
0.00364901
0.000967172
-0.000114523
0.00363306
0.0009989
-9.00378e-05
0.00358435
0.00100658
-8.19839e-05
0.00357441
0.000975489
-9.56569e-05
0.00360776
0.000955693
-0.000104884
0.00364711
0.000967183
-0.000111006
0.00363838
0.000992726
-9.25942e-05
0.00359091
0.00100338
-8.08147e-05
0.00357608
0.000979564
-9.68473e-05
0.00360935
0.000958054
-0.000109937
0.00365107
0.000963805
-0.000104638
0.00364235
0.000991851
-8.94955e-05
0.00359327
0.00100625
-8.5342e-05
0.00357342
0.000982127
-9.56221e-05
0.00360862
0.000956773
-0.000108435
0.0036532
0.000963932
-0.000107999
0.00364132
0.000994623
-8.99182e-05
0.00359261
0.00100642
-8.2803e-05
0.00357507
0.000980559
-9.72476e-05
0.00361199
0.000956807
-0.000106014
0.00365338
0.000964335
-0.000103904
0.00364038
0.000995259
-9.10953e-05
0.00359506
0.00100226
-8.27719e-05
0.00358121
0.000977224
-9.61097e-05
0.00361203
0.000958933
-0.000105536
0.00364862
0.000964649
-0.000106505
0.00363574
0.000995172
-9.21588e-05
0.00358971
0.00100281
-8.24679e-05
0.000975691
-9.53825e-05
0.00333793
0.00107611
-8.31104e-05
0.00331461
0.00107752
-0.000112954
0.00334273
0.00105583
-0.000111993
0.00339484
0.00102621
-8.11801e-05
0.00339088
0.00105045
-6.51938e-05
0.00334338
0.00107365
-8.2445e-05
0.00331752
0.00107646
-0.000115077
0.00334894
0.00105575
-0.000112357
0.00340377
0.00102726
-8.30133e-05
0.00339743
0.00105219
-6.44457e-05
0.00334468
0.00107797
-8.00331e-05
0.00331872
0.0010794
-0.000118834
0.00334783
0.00105896
-0.000108544
0.00339717
0.00103304
-8.063e-05
0.00339154
0.00104908
-6.82818e-05
0.00334388
0.00107389
-7.782e-05
0.00331538
0.001081
-0.000113683
0.00334118
0.00105678
-0.000110118
0.00339586
0.00102643
-8.07661e-05
0.00339833
0.00104502
-6.94204e-05
0.00334677
0.00107689
-8.13251e-05
0.00330986
0.00108543
-0.00010715
0.00333654
0.00105637
-0.000109058
0.0033978
0.00102256
-8.4611e-05
0.00339926
0.00104821
-6.77318e-05
0.00334648
0.00107685
-8.07215e-05
0.00331335
0.00108128
-0.000109647
0.00333921
0.00105952
-0.000109298
0.00339971
0.00102371
-8.33202e-05
0.00340027
0.00104731
-6.99224e-05
0.00334724
0.00107653
-7.71494e-05
0.00331537
0.0010808
-0.000107587
0.00334642
0.00105522
-0.000110719
0.0033957
0.00102879
-8.01042e-05
0.00338974
0.00105145
-6.85926e-05
0.00334635
0.00107328
-8.2194e-05
0.00331687
0.00107937
-0.000110873
0.00334438
0.00105702
-0.000109269
0.00339386
0.00102969
-7.89726e-05
0.00105146
-6.61416e-05
0.00319507
0.00109665
-7.0802e-05
0.00317134
0.00115289
-8.56479e-05
0.00313749
0.00114306
-9.09503e-05
0.00311886
0.00110683
-7.93462e-05
0.00315012
0.00108254
-6.87907e-05
0.00319021
0.00109203
-7.16051e-05
0.00316836
0.00114988
-8.61775e-05
0.00313481
0.00114257
-9.03835e-05
0.00311744
0.00110553
-8.30227e-05
0.00315301
0.00107909
-6.9097e-05
0.00319402
0.00109329
-6.78701e-05
0.00317121
0.00115321
-8.81141e-05
0.00313227
0.0011498
-8.62765e-05
0.00311983
0.00110706
-8.18921e-05
0.00315344
0.00107828
-7.17021e-05
0.00318909
0.00109589
-6.6398e-05
0.00317455
0.00114839
-8.73506e-05
0.00313975
0.00114356
-8.7042e-05
0.0031196
0.00110889
-8.06933e-05
0.0031524
0.00107731
-7.51537e-05
0.00319709
0.00108829
-6.98082e-05
0.00318147
0.0011519
-7.95525e-05
0.00313966
0.00115229
-8.5967e-05
0.00311446
0.00111135
-8.2368e-05
0.00314918
0.00107789
-7.2594e-05
0.00319736
0.00108469
-6.93026e-05
0.0031813
0.00114908
-8.03046e-05
0.00314052
0.00115311
-8.56178e-05
0.0031152
0.00111189
-8.22881e-05
0.00314963
0.00107744
-7.4755e-05
0.00319854
0.00108543
-6.68815e-05
0.00317724
0.0011548
-7.96321e-05
0.00313621
0.00114959
-8.91616e-05
0.0031206
0.00110716
-8.16253e-05
0.00315344
0.00108125
-7.10485e-05
0.00319081
0.00109258
-7.05857e-05
0.00316989
0.00115386
-8.51232e-05
0.00313721
0.00114393
-8.93449e-05
0.0031235
0.00110525
-7.87791e-05
0.00108057
-6.78502e-05
0.0028351
0.00116935
-7.51709e-05
0.00289861
0.00116481
-0.000102499
0.0029195
0.00117731
-9.96946e-05
0.00287609
0.00119037
-7.22377e-05
0.00284071
0.00117073
-6.07249e-05
0.00283538
0.00117028
-7.67829e-05
0.00289442
0.00116662
-0.000103556
0.0029159
0.00117683
-9.88229e-05
0.00287147
0.00118929
-7.51725e-05
0.0028316
0.00116896
-5.92234e-05
0.00282839
0.00116741
-7.12005e-05
0.00289552
0.00116297
-0.000106056
0.00292024
0.00117992
-9.25569e-05
0.00287593
0.00118707
-7.09911e-05
0.00283321
0.00116787
-6.18795e-05
0.00282908
0.00117118
-7.03243e-05
0.00289369
0.00116106
-0.000104801
0.00292138
0.00117289
-9.66338e-05
0.00288013
0.00118895
-7.06392e-05
0.00283432
0.00117251
-6.39344e-05
0.00282883
0.00116579
-7.58073e-05
0.00289659
0.00116311
-9.88986e-05
0.00292504
0.00118146
-9.34976e-05
0.00288008
0.00119468
-7.31816e-05
0.00283626
0.00117135
-6.23707e-05
0.00282727
0.00116382
-7.59249e-05
0.00289167
0.00116246
-9.98949e-05
0.00292204
0.00118044
-9.18399e-05
0.0028777
0.00119587
-7.3387e-05
0.00283423
0.00117022
-6.36991e-05
0.00282387
0.00116714
-7.10727e-05
0.00289089
0.00116516
-9.76769e-05
0.00291798
0.00117958
-9.59836e-05
0.00287099
0.0011937
-7.23448e-05
0.00283402
0.00116953
-6.0672e-05
0.00282937
0.00116957
-7.50459e-05
0.00289509
0.00116484
-0.000102879
0.0029193
0.00117665
-9.75825e-05
0.00287249
0.00119056
-6.77504e-05
0.00116815
-5.86019e-05
0.00269606
0.00126792
-6.75059e-05
0.00263678
0.00126913
-8.19472e-05
0.00266111
0.00120062
-9.80451e-05
0.00275412
0.00114895
-9.10398e-05
0.0027593
0.00120696
-6.58219e-05
0.00270225
0.00126918
-6.81329e-05
0.00263994
0.00127609
-8.16979e-05
0.00266087
0.00120539
-9.8879e-05
0.00275474
0.00114899
-9.51517e-05
0.00276326
0.00120185
-6.82028e-05
0.00270404
0.00126762
-6.38878e-05
0.00263901
0.00127531
-8.20658e-05
0.00266151
0.00120419
-9.33643e-05
0.00275474
0.00114444
-9.5728e-05
0.00276342
0.00119798
-6.97596e-05
0.00270429
0.00126893
-6.3233e-05
0.00263069
0.00127848
-8.27694e-05
0.00264669
0.00120254
-9.56977e-05
0.00274447
0.00114342
-9.32195e-05
0.00275877
0.00119787
-7.27796e-05
0.00269585
0.00126744
-6.57255e-05
0.00262473
0.00128104
-7.39277e-05
0.00265076
0.00120595
-9.1613e-05
0.00274575
0.00115337
-9.51937e-05
0.00275746
0.00120052
-7.24617e-05
0.00269932
0.00126116
-6.8516e-05
0.00263094
0.00127723
-7.3889e-05
0.00265115
0.00120786
-8.79025e-05
0.00274536
0.00115429
-9.34375e-05
0.00275766
0.00119852
-7.0256e-05
0.00270041
0.00126494
-6.11297e-05
0.00263444
0.00127716
-7.23209e-05
0.00265428
0.00120692
-9.43515e-05
0.00274617
0.00115284
-9.37009e-05
0.0027518
0.00120531
-6.70445e-05
0.00269952
0.00126563
-6.99207e-05
0.00264017
0.00127165
-8.13616e-05
0.00265837
0.00120488
-9.72852e-05
0.0027511
0.0011482
-9.1909e-05
0.00120641
-6.55312e-05
0.00250562
0.00130741
-7.39859e-05
0.00251177
0.00131331
-7.9687e-05
0.00249044
0.00126293
-9.12328e-05
0.00246031
0.00121587
-9.41757e-05
0.00247841
0.0012416
-9.38023e-05
0.00250172
0.00130512
-7.2538e-05
0.00251279
0.00131517
-7.73003e-05
0.00249346
0.00126652
-8.87704e-05
0.00246723
0.00121777
-9.9185e-05
0.00248366
0.00123979
-9.71786e-05
0.00250707
0.00130425
-6.77123e-05
0.00251829
0.00131771
-7.75453e-05
0.00249345
0.00126948
-8.15989e-05
0.00246833
0.00121251
-0.000106868
0.00248193
0.00123813
-0.000104933
0.00250777
0.00130265
-6.96293e-05
0.00252985
0.00130792
-7.90523e-05
0.00250285
0.00126773
-8.46126e-05
0.00246948
0.00121605
-9.90987e-05
0.00248258
0.00123322
-0.000103014
0.00251271
0.00129812
-7.50511e-05
0.00252625
0.00132043
-6.93145e-05
0.00249622
0.00127508
-7.72219e-05
0.00246606
0.00122412
-0.00010239
0.00248319
0.00123438
-0.00010399
0.00251309
0.00129284
-7.73428e-05
0.00252926
0.00131624
-7.41901e-05
0.00250295
0.0012732
-7.31793e-05
0.00247414
0.00122156
-9.61311e-05
0.00248934
0.00123162
-0.000101088
0.00251493
0.00129699
-6.71572e-05
0.0025244
0.00131974
-6.75752e-05
0.00250218
0.00127021
-8.3468e-05
0.00247222
0.00122233
-0.000100925
0.00248007
0.00124631
-9.62181e-05
0.00250146
0.00130341
-7.05494e-05
0.00251355
0.00131132
-7.63002e-05
0.00250043
0.00125945
-9.15236e-05
0.00247128
0.00121628
-9.90671e-05
0.00124387
-9.8173e-05
0.00223782
0.00136712
-7.79661e-05
0.00220352
0.00139799
-6.49221e-05
0.00220481
0.0013283
-0.000109447
0.00225147
0.00124525
-0.0001506
0.00225116
0.00130681
-0.000116428
0.0022386
0.0013632
-7.54541e-05
0.00220998
0.00139197
-5.89141e-05
0.00220573
0.00133554
-0.0001077
0.00224456
0.00125564
-0.000152318
0.00225173
0.00129891
-0.000119259
0.00224159
0.00136285
-7.05595e-05
0.00220358
0.00140257
-5.36868e-05
0.00220557
0.001334
-0.000103142
0.00224774
0.00125544
-0.000167892
0.0022494
0.00130818
-0.000131171
0.00223827
0.00136402
-7.94058e-05
0.00220869
0.00138704
-6.18169e-05
0.00221445
0.00132539
-0.000107937
0.00225878
0.00125277
-0.000161512
0.00225541
0.00129915
-0.000128046
0.00224031
0.00136191
-8.12607e-05
0.00220129
0.00140412
-4.7744e-05
0.00220132
0.00134074
-9.57284e-05
0.00224264
0.00126195
-0.000161386
0.00224486
0.00129593
-0.000130724
0.0022314
0.00135678
-8.69294e-05
0.00219843
0.00139572
-5.12524e-05
0.00220077
0.00133475
-9.31695e-05
0.00224222
0.00125805
-0.000157267
0.00224821
0.00128591
-0.000125304
0.00223861
0.0013523
-7.36804e-05
0.00220525
0.00139696
-4.57606e-05
0.00220606
0.00133394
-0.000102167
0.00225308
0.00125514
-0.000160468
0.00225695
0.00130469
-0.000117723
0.00224227
0.00136407
-7.68584e-05
0.00220208
0.00139679
-5.46988e-05
0.0022018
0.00132525
-0.000111103
0.00224909
0.001249
-0.000162206
0.00130683
-0.000120894
0.00208493
0.00135742
-5.65457e-05
0.00207535
0.0014548
-4.82665e-05
0.00203967
0.00142893
-9.78314e-05
0.00199636
0.00136751
-0.000137497
0.00203165
0.00135357
-0.000121272
0.00208328
0.00135571
-5.82987e-05
0.0020709
0.00144941
-4.69163e-05
0.00202525
0.0014434
-9.45748e-05
0.00198754
0.00137333
-0.000138163
0.00202212
0.00134765
-0.000122237
0.00207689
0.00135232
-4.8085e-05
0.0020742
0.0014452
-3.73864e-05
0.00202922
0.00144139
-8.57458e-05
0.00198631
0.00138467
-0.000151685
0.0020187
0.00136509
-0.000129153
0.00207052
0.00135907
-5.19981e-05
0.00206954
0.00143658
-4.8326e-05
0.00201948
0.00143656
-8.92858e-05
0.00198768
0.00136894
-0.000145717
0.00203074
0.00133965
-0.000132805
0.00208317
0.00135769
-5.72418e-05
0.00208245
0.0014469
-3.19324e-05
0.00203357
0.00144913
-7.88551e-05
0.00198736
0.00138704
-0.000145483
0.00202925
0.00133671
-0.000136148
0.00208158
0.00135434
-6.30193e-05
0.00208394
0.00143792
-3.50173e-05
0.00203789
0.00144282
-7.68624e-05
0.00199731
0.00137963
-0.000148967
0.00202931
0.00133406
-0.000135628
0.00207413
0.00135102
-5.05488e-05
0.0020786
0.00143689
-3.31554e-05
0.00203504
0.00143984
-9.06294e-05
0.00199316
0.00138079
-0.000149812
0.002028
0.00135023
-0.000125875
0.00208188
0.00135309
-5.39373e-05
0.00207658
0.0014449
-4.27354e-05
0.00203139
0.00143387
-9.60298e-05
0.00198808
0.0013737
-0.000148423
0.00134696
-0.000130828
0.00183172
0.00143652
-2.45109e-05
0.00184372
0.00149893
-2.81289e-05
0.00191411
0.00142153
-6.33407e-05
0.00195085
0.00140838
-0.000119835
0.00189724
0.00146347
-7.64605e-05
0.00184053
0.00143887
-2.5584e-05
0.00185147
0.00149818
-2.84891e-05
0.00193052
0.00142499
-6.80368e-05
0.00196008
0.00141886
-0.000123832
0.00188625
0.00147604
-7.25264e-05
0.00183843
0.00143308
-1.93558e-05
0.00184576
0.0014879
-2.08541e-05
0.00190917
0.00143783
-5.92379e-05
0.00192985
0.00143484
-0.000118658
0.00188158
0.00146962
-7.16098e-05
0.00183318
0.00144065
-1.82485e-05
0.00184236
0.00148378
-2.40564e-05
0.00192044
0.00141649
-6.23583e-05
0.00194482
0.00141542
-0.000118515
0.00187932
0.00145745
-7.94672e-05
0.00183199
0.0014392
-2.29594e-05
0.00184858
0.00147451
-3.02171e-06
0.00192395
0.00142963
-4.62838e-05
0.0019431
0.00143221
-0.000118696
0.00187744
0.00145348
-8.47343e-05
0.00182948
0.00143037
-2.70655e-05
0.00184328
0.00147427
-1.12165e-05
0.00191272
0.00143472
-4.90775e-05
0.00194629
0.00141859
-0.000126678
0.001889
0.00144629
-8.85026e-05
0.00184083
0.00142762
-1.70758e-05
0.00185309
0.00147484
-9.41038e-06
0.00190987
0.00144171
-6.06285e-05
0.00193891
0.00142931
-0.000125295
0.00189302
0.00145313
-7.90312e-05
0.0018452
0.00142786
-2.34268e-05
0.00185051
0.00149065
-1.97145e-05
0.00191068
0.001431
-6.2344e-05
0.0019416
0.0014196
-0.00012802
0.00145838
-8.05267e-05
0.0017728
0.00143365
3.70042e-06
0.00172739
0.00159037
6.50302e-06
0.00169619
0.00148806
-2.69242e-05
0.00169126
0.00146223
-5.93587e-05
0.00175775
0.00142028
-1.85397e-05
0.00178508
0.00142623
-7.82647e-06
0.00172927
0.00160625
2.81623e-06
0.00168942
0.00150587
-3.50378e-05
0.00170305
0.00145654
-6.52135e-05
0.00176389
0.00143871
-1.13387e-05
0.00178691
0.00143024
2.54635e-06
0.00173875
0.00158579
-1.59736e-06
0.00170897
0.00150176
-2.45152e-05
0.00169374
0.00148641
-5.38065e-05
0.00174117
0.0014497
-8.0859e-06
0.00176956
0.00143078
5.74461e-06
0.00172651
0.00157659
2.70031e-06
0.00169014
0.00148643
-2.29999e-05
0.00170314
0.001437
-5.04198e-05
0.00175826
0.00142072
-1.40827e-05
0.00177501
0.0014407
3.53951e-06
0.00173109
0.00156517
1.07943e-05
0.00170571
0.00148577
-1.47623e-05
0.00171241
0.00145557
-5.74943e-05
0.00175899
0.00142257
-2.05095e-05
0.00177054
0.00142947
2.99245e-06
0.00172924
0.00156418
9.89625e-06
0.00169754
0.00150484
-1.79179e-05
0.00170047
0.00145813
-6.84933e-05
0.00175871
0.0014106
-2.51915e-05
0.00178164
0.00142253
7.18895e-06
0.00174442
0.00156405
6.39764e-06
0.0017083
0.0015123
-2.17327e-05
0.00169723
0.0014842
-5.88589e-05
0.00175217
0.00142451
-1.95815e-05
0.00177866
0.00141938
-3.6235e-06
0.00173856
0.00157879
4.30762e-06
0.00170326
0.00149893
-2.20016e-05
0.00170203
0.00146612
-6.54505e-05
0.00142201
-1.88371e-05
0.00158145
0.00141976
2.31823e-05
0.00158823
0.00159562
4.10428e-05
0.00159716
0.00147214
2.87988e-05
0.00157347
0.00150514
-5.80367e-06
0.00156277
0.0014305
1.16972e-05
0.00157059
0.00141694
1.61958e-05
0.00159866
0.00159101
4.26435e-05
0.00161147
0.00149292
1.66856e-05
0.00157389
0.00151772
-1.48921e-05
0.00154995
0.00145289
2.75302e-05
0.00157127
0.00141164
2.32503e-05
0.0016008
0.00157325
3.5561e-05
0.0016237
0.00147885
2.02478e-05
0.00158605
0.00153877
-5.48516e-06
0.00155957
0.00147013
3.51438e-05
0.00156918
0.00142133
2.37154e-05
0.00160287
0.0015636
3.03496e-05
0.00162146
0.00147244
1.35096e-05
0.00158445
0.00148494
-5.11023e-06
0.00156325
0.00142946
2.5473e-05
0.00158232
0.00142462
2.46207e-05
0.00159622
0.00157803
3.40992e-05
0.00160812
0.00147586
2.29485e-05
0.00158593
0.00148681
-5.61996e-06
0.00157513
0.00142543
1.3885e-05
0.00158992
0.00141387
1.88829e-05
0.00159202
0.00158627
3.42137e-05
0.00159742
0.00150247
2.32259e-05
0.00157541
0.00149797
-1.60212e-05
0.00155935
0.00142668
1.18366e-05
0.00158561
0.00140401
2.03491e-05
0.00160044
0.00157711
2.97478e-05
0.00159978
0.00151098
2.14529e-05
0.00157992
0.001521
-7.09912e-06
0.00156488
0.00143401
2.30077e-05
0.00157517
0.00141195
1.84958e-05
0.00159463
0.00157895
3.22342e-05
0.00160449
0.00148819
2.03571e-05
0.0015801
0.00150826
-1.20682e-05
0.00142472
1.87926e-05
0.00144629
0.00142304
3.47568e-05
0.0014371
0.00154208
0.000114132
0.00149906
0.00135533
7.88069e-05
0.00149449
0.0014965
3.72808e-05
0.00148165
0.00143389
2.16052e-05
0.00143965
0.00142798
3.36255e-05
0.00142134
0.00154086
0.000127642
0.00150023
0.0013561
7.77411e-05
0.00151304
0.00149523
2.74947e-05
0.00148256
0.00145401
4.69696e-05
0.00143334
0.00143455
3.78678e-05
0.00141528
0.001525
0.000118539
0.00150127
0.00134294
6.78234e-05
0.00150257
0.00152751
2.17163e-05
0.00147441
0.00147306
4.46699e-05
0.00142608
0.00144252
3.91014e-05
0.00141373
0.00151776
0.00011045
0.00150476
0.00134924
4.96242e-05
0.00150882
0.00147652
1.95414e-05
0.00147314
0.0014473
2.52847e-05
0.00143686
0.00143336
4.11405e-05
0.00143734
0.00152599
0.000110355
0.00150679
0.00136716
6.33406e-05
0.00149552
0.00149196
1.54352e-05
0.00146846
0.00144342
1.13335e-05
0.00144252
0.00141689
3.37093e-05
0.00144159
0.00153178
0.000118563
0.00149679
0.00139385
8.45305e-05
0.0014866
0.00150509
1.24338e-05
0.00145978
0.00144745
1.61103e-05
0.00143471
0.00141655
3.59409e-05
0.00144545
0.00151887
0.000108725
0.00150841
0.00139333
8.28252e-05
0.00149258
0.00152771
2.70609e-05
0.00146996
0.00144252
2.75559e-05
0.00144446
0.00142079
3.33149e-05
0.00144229
0.00152869
0.000112552
0.00150589
0.00137276
7.56806e-05
0.00150003
0.00150757
2.23065e-05
0.00144096
2.08056e-05
0.0013525
0.00137127
5.79663e-05
0.00132081
0.00146927
0.000128242
0.00131137
0.00126858
0.000121599
0.0013164
0.00143005
9.47951e-05
0.00135942
0.0013626
2.32754e-05
0.00136413
0.00135517
6.1466e-05
0.00133704
0.00147063
0.000122188
0.00130318
0.00129345
0.000117807
0.00130959
0.00142491
9.14806e-05
0.00135765
0.00136625
3.48909e-05
0.00136032
0.0013703
6.81632e-05
0.00132925
0.00145616
0.000124686
0.00131438
0.00125874
0.000124713
0.00132166
0.0014389
0.000104367
0.00136292
0.00138368
4.16689e-05
0.00134909
0.00139047
6.10351e-05
0.00130854
0.00144927
0.00013061
0.00130022
0.00127266
0.000112699
0.00132131
0.00139469
8.31989e-05
0.00135983
0.00137318
2.46013e-05
0.00134349
0.00137737
7.56415e-05
0.00131026
0.00144533
0.000151641
0.00131478
0.00127609
0.000121442
0.00133199
0.0014148
8.10109e-05
0.00136402
0.00137571
1.43901e-05
0.00134863
0.00136678
5.62767e-05
0.00131495
0.00145079
0.000148861
0.00131981
0.00129008
0.000130761
0.00132631
0.00143436
8.29113e-05
0.0013535
0.00139135
1.93538e-05
0.00133582
0.00137605
5.81421e-05
0.00130754
0.00144737
0.000133008
0.00131712
0.00128677
0.000125796
0.00132999
0.00144117
0.000100989
0.00135502
0.00137911
3.46413e-05
0.00133084
0.00139249
4.69097e-05
0.00130839
0.00145389
0.000128207
0.00131625
0.0012628
0.000129305
0.00133066
0.0014309
8.89965e-05
0.00137762
2.74729e-05
0.00127312
0.00125857
4.08234e-05
0.00133511
0.00132345
6.02759e-05
0.00132457
0.00115538
0.000121677
0.00125104
0.00141515
0.00011727
0.00122888
0.0013029
8.37728e-05
0.00125876
0.00124995
4.08053e-05
0.00133475
0.00132681
5.26704e-05
0.00133665
0.00118173
0.0001094
0.0012689
0.00138972
0.00012666
0.00122766
0.00131448
9.53638e-05
0.00125339
0.00127105
4.46937e-05
0.0013314
0.00131008
5.05599e-05
0.00133754
0.00113483
0.000116734
0.00125781
0.00141908
0.000120745
0.00122236
0.00132369
9.57409e-05
0.00126316
0.00126571
4.79033e-05
0.00133158
0.00129272
6.04632e-05
0.001325
0.00116274
0.000117966
0.00126082
0.00136528
0.000117144
0.00123969
0.00130589
8.23621e-05
0.00127748
0.00126442
3.88507e-05
0.00132636
0.00130337
7.71772e-05
0.00130831
0.0011686
0.000136086
0.00124898
0.00140245
9.99518e-05
0.0012366
0.00131102
6.38282e-05
0.00128508
0.00124705
3.15595e-05
0.0013336
0.00131589
7.32785e-05
0.00131259
0.00118467
0.000132417
0.0012449
0.00142291
9.65889e-05
0.0012322
0.00133415
6.00501e-05
0.00127665
0.00125749
4.56744e-05
0.00132724
0.00131386
7.33403e-05
0.0013107
0.00117879
0.000130832
0.00124782
0.00140878
0.000122146
0.00123475
0.0013164
7.09701e-05
0.00127485
0.00127412
4.66377e-05
0.00133376
0.00131748
6.68397e-05
0.00131809
0.0011577
0.000125192
0.00125333
0.00139646
0.000125572
0.00130872
8.90524e-05
0.00113656
0.00120408
3.68183e-05
0.00116544
0.00121027
2.97378e-05
0.00123308
0.000970707
1.94863e-05
0.001207
0.00135372
6.55164e-05
0.00117352
0.00124801
6.64192e-05
0.00114013
0.00119544
4.22695e-05
0.00116102
0.00121131
5.32543e-05
0.00122024
0.00101762
1.50984e-05
0.00120974
0.00132928
4.07114e-05
0.00117394
0.00125829
7.86343e-05
0.00114082
0.00120958
5.85607e-05
0.0011562
0.00121506
4.52899e-05
0.00122405
0.000969757
1.22473e-05
0.00122057
0.00134569
4.21401e-05
0.00117676
0.00127239
6.6687e-05
0.00113294
0.00122262
4.23732e-05
0.00114716
0.00120075
2.57844e-05
0.0012055
0.000994459
2.09398e-05
0.0012004
0.00131524
3.20429e-05
0.00116242
0.00124567
7.46639e-05
0.00113973
0.00120699
3.59335e-05
0.0011812
0.00118109
3.02929e-05
0.00123254
0.000988058
4.88139e-05
0.00121115
0.00133944
6.54548e-05
0.00116432
0.00126714
5.72919e-05
0.00114379
0.00119412
2.32828e-05
0.00118755
0.00118843
3.96543e-05
0.00123908
0.00101151
4.00409e-05
0.0012059
0.00134282
7.92462e-05
0.00115966
0.00128336
6.4987e-05
0.0011366
0.00121151
2.24565e-05
0.00116908
0.00119395
4.85773e-05
0.00123375
0.00100488
2.75027e-05
0.00120564
0.00133128
8.1784e-05
0.0011572
0.00128006
5.54982e-05
0.00112619
0.00122677
2.83396e-05
0.00116325
0.00120594
3.62964e-05
0.00123082
0.00099208
1.78795e-05
0.00120495
0.001331
7.23567e-05
0.00126431
6.87235e-05
0.00112483
0.00107374
5.56433e-05
0.00113069
0.00104848
9.49602e-05
0.00112382
0.000887751
-3.88502e-05
0.00107069
0.00123075
0.000101694
0.00111141
0.00106289
6.68009e-05
0.00112402
0.00106235
5.27828e-05
0.00113822
0.00103003
0.000118918
0.00112712
0.000927122
-1.5994e-05
0.00108737
0.00119722
8.44404e-05
0.00112457
0.00105864
8.29272e-05
0.00113024
0.00108127
6.31761e-05
0.00113418
0.00105629
0.000114187
0.00112225
0.000893643
-2.16056e-05
0.00107854
0.00122502
8.12151e-05