/*--------------------------------*- C++ -*----------------------------------*\
  =========                 |
  \\      /  F ield         | OpenFOAM: The Open Source CFD Toolbox
   \\    /   O peration     | Website:  https://openfoam.org
    \\  /    A nd           | Version:  10
     \\/     M anipulation  |
\*---------------------------------------------------------------------------*/
FoamFile
{
    format      ascii;
    class       volScalarField;
    location    "5";
    object      pPrime2Mean;
}
// * * * * * * * * * * * * * * * * * * * * * * * * * * * * * * * * * * * * * //

dimensions      [0 4 -4 0 0 0 0];

internalField   nonuniform List<scalar> 
25600
(
7.37863e-07
4.0446e-07
8.33657e-07
6.90097e-06
1.39418e-06
5.21751e-07
2.97659e-06
1.03092e-06
1.66161e-06
1.52824e-06
6.61767e-07
1.75469e-06
8.02344e-07
2.69118e-07
4.82431e-07
1.55243e-07
2.7777e-06
1.71555e-07
2.80246e-07
2.18094e-06
1.63811e-07
4.63015e-07
3.64479e-06
5.67734e-07
7.73502e-07
2.86045e-06
1.0707e-07
5.34728e-07
4.53982e-07
3.47795e-06
8.55668e-07
2.95589e-06
1.35862e-07
1.41838e-06
2.18264e-06
1.26185e-06
1.27793e-06
1.90656e-06
1.09796e-06
6.86491e-07
9.5884e-07
1.43272e-07
2.23388e-07
4.95727e-06
2.14079e-07
7.40967e-07
1.8139e-06
2.07268e-07
1.70056e-07
1.75136e-07
6.05097e-07
1.93739e-07
3.34157e-07
9.34239e-07
8.59866e-07
2.35656e-07
6.29377e-07
1.03987e-06
1.77432e-07
3.9572e-06
5.62361e-07
7.40642e-07
3.33059e-06
2.75726e-07
2.47885e-07
1.03865e-06
6.95771e-08
1.79514e-07
2.54795e-07
2.26645e-06
2.43376e-06
3.77172e-06
4.52949e-07
7.78203e-06
1.81035e-06
1.78756e-07
1.3367e-06
1.32168e-07
9.5632e-07
7.61018e-07
7.2894e-06
1.2031e-06
8.61012e-07
1.93171e-06
2.08689e-07
6.15954e-07
5.40067e-06
3.29721e-06
2.56178e-06
2.70316e-06
3.96461e-07
6.05832e-07
6.702e-07
1.85999e-07
1.76312e-07
5.32124e-07
1.93434e-06
3.89321e-07
1.58645e-06
4.28408e-06
8.96583e-07
1.04719e-06
3.87529e-06
1.97535e-06
2.89193e-07
3.10602e-06
1.43776e-06
8.63714e-08
4.80792e-07
3.09528e-06
1.70492e-07
3.64589e-07
3.04696e-07
9.69252e-06
1.04742e-06
3.95314e-07
4.19812e-06
1.97231e-07
1.78515e-06
1.53451e-06
5.20983e-06
2.49789e-07
1.46998e-07
4.80431e-07
1.76573e-06
6.43678e-07
6.68038e-07
2.45558e-06
4.98217e-06
6.23944e-06
2.0091e-06
3.50626e-06
2.92994e-06
9.10813e-07
3.79199e-07
6.18428e-07
5.65944e-07
1.44416e-06
3.96634e-06
5.07643e-06
1.76534e-06
2.13859e-07
1.48846e-07
1.4775e-07
7.42944e-07
1.27449e-06
2.487e-06
1.07591e-07
3.22054e-07
5.15626e-07
5.00898e-07
3.97613e-07
2.01031e-06
7.34918e-06
3.41629e-07
3.68365e-07
3.57588e-06
2.22707e-07
1.67896e-07
6.05847e-06
4.32129e-06
2.02225e-07
1.58644e-06
2.96417e-06
2.57841e-06
1.28481e-06
3.16996e-07
4.59084e-06
9.71693e-06
4.30202e-06
7.20506e-07
2.61486e-07
3.72207e-07
2.87008e-06
3.88173e-07
3.23812e-06
2.16788e-06
4.24946e-06
3.1442e-06
1.21064e-06
2.95291e-07
1.69632e-07
3.63207e-07
1.98798e-06
3.74555e-07
2.74827e-06
2.05653e-06
1.40375e-06
2.13499e-06
9.19937e-07
6.6676e-07
1.75576e-06
4.77243e-07
2.26801e-06
4.23883e-07
9.55387e-07
1.07599e-06
1.45066e-06
2.18328e-07
5.91259e-06
1.32664e-06
2.04175e-06
4.40064e-06
3.87461e-06
2.21268e-06
5.65926e-07
1.92704e-06
1.04561e-05
8.17404e-06
8.684e-07
4.12772e-07
1.59817e-06
9.7906e-07
1.14093e-06
9.20299e-07
2.16023e-06
1.34157e-06
4.56626e-06
2.80271e-06
3.97222e-07
4.65321e-07
1.60512e-06
3.38487e-07
4.55077e-07
1.5421e-06
2.54275e-07
2.52716e-06
2.75813e-07
2.74993e-07
3.35449e-07
5.93973e-07
8.95049e-07
1.1803e-06
1.71776e-06
4.419e-07
1.96796e-06
5.9173e-07
1.22077e-06
7.92155e-07
6.4647e-06
1.7101e-06
1.91079e-06
5.90912e-06
3.22726e-06
1.21189e-06
6.20358e-07
8.52061e-07
4.14881e-06
1.18692e-06
2.84495e-06
3.58131e-06
8.10552e-07
7.76909e-07
4.40656e-07
1.40196e-06
1.1631e-06
1.01806e-06
2.59392e-06
4.96075e-07
2.66519e-06
3.1049e-06
1.45198e-06
6.24233e-07
4.4521e-07
3.82257e-06
6.0754e-07
2.89415e-06
1.32149e-06
3.5914e-06
4.6173e-07
4.74043e-07
4.48272e-07
6.14234e-07
5.19907e-07
5.47558e-07
1.81654e-06
3.03126e-07
3.95413e-07
8.76857e-06
1.30766e-05
1.69035e-06
6.11642e-07
3.06018e-06
1.48864e-06
1.28706e-06
5.70216e-07
2.40776e-06
8.54879e-06
3.54727e-06
1.49195e-06
5.58015e-07
4.84513e-06
1.95468e-06
5.9312e-07
1.21515e-06
1.65288e-06
1.43999e-06
2.34515e-06
7.03835e-07
1.22465e-06
3.83343e-07
1.9235e-06
7.68142e-06
2.25739e-06
4.8074e-07
2.62126e-06
1.45546e-06
1.05192e-06
4.69051e-07
1.29743e-06
5.89789e-07
3.11719e-06
1.97984e-06
4.73734e-07
1.54972e-06
5.32396e-06
2.93488e-06
4.41998e-06
1.57225e-05
9.81205e-06
4.2581e-06
2.99132e-06
7.32109e-06
7.75516e-07
3.81189e-07
8.50649e-07
3.52543e-06
9.64963e-06
4.9031e-06
1.5536e-06
9.37434e-07
1.39376e-06
8.57165e-07
1.40054e-06
6.82216e-07
5.82168e-07
1.446e-06
7.83605e-06
2.4222e-06
2.86261e-06
1.66333e-06
1.37722e-06
8.35611e-06
3.74735e-06
1.01312e-06
5.14428e-06
8.91925e-07
1.83105e-06
1.02095e-06
7.51484e-07
2.59504e-07
4.63592e-06
1.52004e-06
3.22453e-07
1.94884e-06
4.17851e-06
1.33662e-07
1.62633e-07
1.14678e-05
2.04963e-05
9.02732e-07
2.70866e-06
2.21744e-07
4.26376e-06
4.53647e-07
6.40181e-07
4.8938e-07
3.0704e-06
2.62148e-06
7.01138e-07
8.07205e-07
2.63093e-06
7.43108e-07
1.42193e-06
5.24214e-07
8.05876e-07
3.00978e-06
1.07202e-05
1.46708e-06
4.88029e-06
5.88506e-07
5.25348e-06
5.55578e-06
1.54611e-06
1.17923e-06
4.1472e-06
3.59598e-07
6.54773e-06
7.10698e-06
3.0848e-07
6.29521e-07
1.95213e-06
5.09379e-07
1.83576e-06
5.5384e-06
8.92422e-06
7.19597e-07
3.10121e-07
1.10294e-06
2.23776e-06
4.57969e-06
1.26573e-06
1.05939e-06
7.55519e-06
6.17613e-07
1.03316e-06
5.98714e-07
7.0941e-06
7.39522e-06
6.90099e-07
2.33483e-06
4.87123e-06
2.45799e-06
1.17401e-06
1.61058e-06
8.53269e-07
3.03669e-06
2.20589e-05
3.92606e-06
6.49919e-06
5.70064e-07
6.77993e-06
6.12286e-06
1.81439e-06
1.16284e-06
1.46481e-06
1.70553e-06
6.44511e-06
5.6168e-06
1.74836e-06
2.72392e-06
3.05284e-06
1.15137e-06
5.11467e-07
2.68608e-06
8.39691e-06
1.7166e-06
1.15819e-06
6.56853e-07
3.72813e-06
3.45328e-06
1.59961e-06
3.11196e-06
1.28341e-05
1.21521e-06
6.32421e-07
5.47526e-07
4.22948e-06
3.06666e-06
4.11073e-07
1.91976e-06
2.90844e-06
8.78178e-07
6.62736e-07
8.74459e-07
1.49227e-06
1.18787e-06
2.00178e-05
4.2433e-06
3.00959e-06
1.391e-06
8.38092e-06
4.83059e-06
1.16523e-06
1.33646e-06
2.02826e-06
1.0392e-06
3.22969e-06
6.87969e-07
5.09098e-06
1.26194e-06
7.06252e-06
2.51129e-06
5.52252e-07
5.97859e-06
1.44575e-05
1.90754e-06
4.748e-07
2.60843e-07
4.44841e-06
2.79096e-06
1.08775e-06
6.49377e-06
1.48307e-05
6.20665e-07
1.44961e-06
9.49711e-07
2.53267e-06
9.73982e-07
4.56121e-07
3.94726e-06
1.64417e-06
5.96266e-07
2.53699e-06
1.59326e-06
2.72324e-06
1.13282e-06
2.24655e-05
3.98506e-06
4.08062e-06
3.62214e-07
2.48617e-06
1.4381e-06
9.41377e-07
3.00285e-06
1.2353e-06
5.96164e-06
7.95794e-06
1.74033e-06
3.54918e-06
8.85025e-07
5.48502e-06
3.71457e-06
1.8518e-06
8.24077e-06
1.66031e-05
1.92484e-06
6.56123e-07
3.98556e-07
2.57152e-06
4.06956e-06
9.66567e-07
6.74621e-06
1.54074e-05
7.30641e-07
1.85528e-06
1.34134e-06
2.92874e-06
1.74275e-06
1.42958e-06
3.67508e-06
9.65411e-07
2.49119e-06
8.61382e-06
2.48255e-06
4.64831e-06
2.89161e-06
2.57175e-05
4.2603e-06
4.14097e-06
6.95549e-07
4.80125e-06
2.49885e-06
1.79359e-06
3.25349e-06
6.11051e-07
1.13597e-05
9.61624e-06
1.09725e-06
6.04217e-06
2.19936e-06
2.67246e-06
3.32368e-06
1.7238e-06
1.21347e-05
1.76011e-05
1.68216e-06
7.95482e-07
5.95339e-07
3.50217e-06
3.59047e-06
1.25738e-06
4.07873e-06
1.29827e-05
4.65267e-07
3.67736e-06
1.78802e-06
5.71159e-06
1.42227e-06
7.49041e-07
1.48978e-06
1.24124e-06
2.21588e-06
4.47315e-06
1.485e-06
9.34776e-06
2.59343e-06
2.24502e-05
3.58493e-06
3.16869e-06
1.56858e-06
5.92665e-06
2.35669e-06
1.87627e-06
2.86599e-06
7.70271e-07
1.07597e-05
8.34767e-06
1.54949e-06
1.67672e-05
7.21521e-06
1.25803e-06
1.607e-06
9.77199e-07
2.26289e-05
1.6168e-05
1.13912e-06
1.71285e-06
9.82504e-07
3.26347e-06
3.86928e-06
1.6002e-06
2.30765e-06
1.2271e-05
6.54996e-07
3.00761e-06
1.50589e-06
7.54224e-06
2.52812e-06
1.07767e-06
1.33369e-06
2.11671e-06
1.95235e-06
2.22286e-06
2.80835e-06
1.00376e-05
1.78681e-06
1.81363e-05
3.69942e-06
1.22716e-06
4.67537e-06
7.4647e-06
2.22188e-06
2.45829e-06
5.61952e-06
1.32529e-06
9.58528e-06
6.41292e-06
6.2025e-06
2.57578e-05
1.27704e-05
1.35443e-06
2.98799e-06
1.06332e-06
2.62443e-05
8.69855e-06
7.77057e-07
2.29744e-06
7.16083e-07
2.66351e-06
5.02974e-06
1.16948e-06
3.91425e-06
1.54039e-05
2.27252e-06
1.77631e-06
1.48765e-06
5.13732e-06
2.56156e-06
1.60063e-06
2.17478e-06
3.1764e-06
3.01444e-06
3.20635e-06
4.72605e-06
1.01147e-05
2.44903e-06
2.81601e-05
7.81015e-06
1.12977e-06
9.3461e-06
9.76145e-06
2.5095e-06
3.30795e-06
1.07124e-05
3.46359e-06
1.14244e-05
6.93917e-06
9.98146e-06
2.45725e-05
1.67167e-05
3.90624e-06
3.40088e-06
1.43128e-06
2.37863e-05
5.46133e-06
1.97213e-06
4.05796e-06
9.8996e-07
2.77636e-06
4.60337e-06
3.68126e-06
1.42824e-06
9.01403e-06
2.79467e-06
4.54299e-06
5.5371e-06
1.89448e-06
1.28488e-06
2.03819e-06
2.23621e-06
2.98203e-06
2.40341e-06
6.46359e-06
4.73454e-06
1.03044e-05
5.82985e-06
4.45441e-05
1.21311e-05
1.65639e-06
1.24023e-05
8.56706e-06
2.42206e-06
3.21583e-06
1.79393e-05
4.7921e-06
2.13134e-05
9.14372e-06
1.28395e-05
2.86599e-05
2.44386e-05
7.13489e-06
4.63951e-06
1.80901e-06
1.71053e-05
5.43192e-06
2.90977e-06
4.71449e-06
1.61407e-06
5.00887e-06
4.5443e-06
4.87028e-06
1.31299e-06
5.22288e-06
2.75766e-06
1.05855e-05
1.25066e-05
2.18676e-06
2.34111e-06
2.62721e-06
1.3611e-06
2.78751e-06
2.42763e-06
1.03843e-05
3.45371e-06
1.09309e-05
9.52434e-06
5.87758e-05
1.44949e-05
2.04628e-06
1.52741e-05
1.04637e-05
3.7997e-06
4.02073e-06
3.0363e-05
6.08567e-06
3.44033e-05
7.29217e-06
1.65085e-05
3.71392e-05
2.74398e-05
3.85157e-06
1.02918e-05
4.30267e-06
1.02811e-05
4.20535e-06
2.72667e-06
5.14291e-06
1.71924e-06
5.75377e-06
5.85449e-06
3.53317e-06
1.98958e-06
7.84457e-06
5.24138e-06
7.81932e-06
1.21445e-05
2.31557e-06
7.01459e-06
3.62813e-06
1.19365e-06
3.9751e-06
2.72147e-06
1.76505e-05
2.83761e-06
1.18329e-05
9.24387e-06
5.44269e-05
1.2543e-05
2.01779e-06
1.21077e-05
1.08263e-05
7.72569e-06
4.37487e-06
4.4171e-05
5.86529e-06
5.6171e-05
7.15648e-06
1.9582e-05
4.50726e-05
2.72029e-05
2.94234e-06
9.29871e-06
4.88341e-06
7.86584e-06
2.50434e-06
1.73127e-06
6.21595e-06
8.58726e-07
3.33025e-06
1.15759e-05
2.38914e-06
1.38613e-06
1.50048e-05
1.11581e-05
3.0582e-06
7.11029e-06
1.65283e-06
9.47734e-06
2.33841e-06
1.82414e-06
7.66362e-06
2.34849e-06
1.72187e-05
2.97788e-06
1.15628e-05
1.05599e-05
4.32817e-05
8.75814e-06
2.998e-06
6.85961e-06
7.01567e-06
9.89263e-06
3.36217e-06
5.35516e-05
3.74266e-06
8.05615e-05
6.60683e-06
2.90446e-05
5.58166e-05
3.06385e-05
5.03438e-06
4.15467e-06
2.19587e-06
1.11816e-05
4.38979e-06
2.13395e-06
7.68187e-06
1.21443e-06
2.32062e-06
1.89044e-05
2.91487e-06
1.53733e-06
1.76068e-05
1.43136e-05
4.04452e-06
5.0404e-06
1.59483e-06
9.84995e-06
1.57045e-06
2.64671e-06
1.94077e-05
1.39428e-06
1.44267e-05
3.37465e-06
1.27874e-05
1.25828e-05
4.31984e-05
6.72494e-06
4.66146e-06
6.36048e-06
7.97779e-06
7.44892e-06
4.3726e-06
5.59461e-05
2.58665e-06
0.000105409
8.4781e-06
3.52784e-05
5.5088e-05
3.04902e-05
9.56789e-06
3.69224e-06
2.41504e-06
1.20986e-05
4.34758e-06
2.37295e-06
6.56976e-06
1.80335e-06
2.92013e-06
3.04358e-05
4.46365e-06
2.03477e-06
2.33355e-05
1.6074e-05
5.65989e-06
4.93265e-06
1.73704e-06
9.49044e-06
1.67939e-06
1.92818e-06
3.57011e-05
2.03877e-06
2.04558e-05
3.98108e-06
1.24076e-05
1.53833e-05
5.22379e-05
7.38486e-06
5.42263e-06
7.53766e-06
9.16219e-06
8.47768e-06
6.05892e-06
6.35017e-05
2.65907e-06
0.000130594
1.17317e-05
3.88627e-05
4.54865e-05
3.0158e-05
1.94864e-05
3.97988e-06
3.72901e-06
1.0494e-05
3.60411e-06
2.63355e-06
8.01956e-06
2.11837e-06
5.57867e-06
3.25277e-05
4.6981e-06
2.02084e-06
3.50497e-05
1.59274e-05
6.07354e-06
5.30175e-06
2.25659e-06
1.30588e-05
1.40329e-06
1.87386e-06
5.53255e-05
2.20502e-06
2.41981e-05
4.78923e-06
1.26952e-05
1.58296e-05
5.71461e-05
8.58399e-06
6.56087e-06
7.23971e-06
6.53193e-06
1.14799e-05
5.78136e-06
7.31182e-05
3.57796e-06
0.000149708
1.26553e-05
3.20645e-05
3.61141e-05
3.97578e-05
2.35369e-05
5.10351e-06
5.95931e-06
9.95554e-06
3.88553e-06
3.20605e-06
8.46773e-06
3.1038e-06
7.01313e-06
3.03686e-05
2.57636e-06
2.0839e-06
4.62995e-05
1.7023e-05
5.84491e-06
5.20198e-06
3.71045e-06
1.6197e-05
1.78924e-06
3.82497e-06
5.73263e-05
1.45035e-06
2.61091e-05
5.02851e-06
1.34779e-05
1.65165e-05
6.22083e-05
9.72649e-06
6.46619e-06
6.4703e-06
5.14978e-06
9.69878e-06
4.26123e-06
8.5149e-05
4.47092e-06
0.000160527
1.06466e-05
3.0343e-05
4.20595e-05
6.56802e-05
2.50315e-05
6.25633e-06
6.09231e-06
1.21193e-05
4.22944e-06
3.97548e-06
9.00696e-06
2.89425e-06
8.05169e-06
2.95023e-05
2.76677e-06
2.51786e-06
4.47372e-05
1.3007e-05
7.92765e-06
7.43119e-06
8.19901e-06
2.54397e-05
5.84325e-06
7.04479e-06
5.10694e-05
2.33774e-06
2.12804e-05
7.50213e-06
2.0359e-05
1.16409e-05
6.1968e-05
8.16977e-06
8.50477e-06
3.63571e-06
4.73605e-06
1.3112e-05
2.83159e-06
7.77668e-05
6.00671e-06
0.000189878
1.81341e-05
3.08229e-05
4.3828e-05
7.73191e-05
2.4295e-05
8.40821e-06
7.39921e-06
1.03655e-05
3.3614e-06
2.88733e-06
7.07538e-06
3.43865e-06
5.38931e-06
3.76325e-05
2.40889e-06
2.78289e-06
4.92602e-05
1.44678e-05
5.90573e-06
6.10233e-06
8.80147e-06
2.52964e-05
5.16749e-06
3.69786e-06
3.40673e-05
3.5072e-06
2.35683e-05
6.95663e-06
1.89327e-05
9.50713e-06
6.30753e-05
1.02834e-05
8.31559e-06
3.7673e-06
5.53454e-06
1.25595e-05
2.84693e-06
7.56299e-05
3.11316e-06
0.000190039
1.99188e-05
4.43818e-05
5.52092e-05
8.78279e-05
3.12523e-05
7.76811e-06
6.98538e-06
1.10836e-05
3.93235e-06
3.12125e-06
8.85341e-06
2.6476e-06
6.03199e-06
3.0679e-05
3.47883e-06
2.18004e-06
4.11399e-05
1.08069e-05
8.15815e-06
8.27865e-06
1.16047e-05
3.17063e-05
4.84304e-06
4.38466e-06
4.19908e-05
2.82052e-06
2.07455e-05
8.52643e-06
2.33319e-05
6.65625e-06
4.52435e-05
6.6974e-06
1.29862e-05
3.33537e-06
3.36365e-06
1.6052e-05
3.32654e-06
6.15769e-05
3.53105e-06
0.000202363
2.53395e-05
4.03974e-05
5.40425e-05
8.81432e-05
2.96339e-05
9.6972e-06
8.64396e-06
8.83721e-06
3.54829e-06
2.99678e-06
5.59341e-06
4.83379e-06
3.77047e-06
3.90489e-05
1.95996e-06
3.60811e-06
5.33791e-05
1.8099e-05
4.92719e-06
4.09541e-06
5.89481e-06
2.24484e-05
1.65125e-06
2.40171e-06
3.47129e-05
4.51178e-06
3.15428e-05
5.16134e-06
1.73232e-05
8.71012e-06
5.31067e-05
1.02738e-05
7.99591e-06
4.41638e-06
5.45772e-06
1.05458e-05
3.45744e-06
7.84327e-05
2.07238e-06
0.000172997
1.60523e-05
4.59534e-05
6.51054e-05
0.000103278
3.5127e-05
6.11757e-06
4.61482e-06
1.45133e-05
4.70378e-06
3.16504e-06
9.85104e-06
2.61823e-06
7.14762e-06
2.40399e-05
4.56719e-06
1.51128e-06
3.79446e-05
9.23972e-06
9.05392e-06
7.9838e-06
1.11952e-05
3.18577e-05
4.06523e-06
5.50595e-06
5.16323e-05
2.81276e-06
2.1508e-05
7.22089e-06
2.53537e-05
5.0311e-06
3.60871e-05
5.29209e-06
1.39108e-05
3.26133e-06
2.53759e-06
1.84742e-05
2.69217e-06
5.62634e-05
3.75462e-06
0.000205218
2.72464e-05
2.91059e-05
4.67092e-05
7.93155e-05
2.36583e-05
1.10479e-05
9.39988e-06
8.65298e-06
3.47477e-06
3.33291e-06
3.69555e-06
6.96814e-06
2.49959e-06
4.64377e-05
1.64682e-06
5.57443e-06
6.2922e-05
2.2917e-05
2.94967e-06
2.30607e-06
2.5731e-06
1.33819e-05
1.59123e-06
1.90647e-06
2.8317e-05
6.89804e-06
4.05271e-05
3.57199e-06
1.22767e-05
1.06478e-05
6.11792e-05
1.42232e-05
5.65608e-06
5.49809e-06
7.48438e-06
7.31592e-06
5.30145e-06
8.52981e-05
2.74836e-06
0.000149845
1.14154e-05
5.03941e-05
7.14262e-05
0.000108987
4.11771e-05
5.37068e-06
3.93124e-06
2.11981e-05
6.55676e-06
3.75743e-06
1.30297e-05
1.73304e-06
1.05761e-05
2.6488e-05
4.04232e-06
1.71211e-06
4.04715e-05
1.08711e-05
7.58617e-06
6.40968e-06
8.47925e-06
2.64295e-05
3.31345e-06
4.25547e-06
4.68813e-05
2.56681e-06
2.26844e-05
6.01595e-06
2.35671e-05
5.32754e-06
3.83582e-05
5.85959e-06
1.29152e-05
3.18234e-06
2.80905e-06
1.73916e-05
2.80413e-06
5.81711e-05
2.76538e-06
0.000188503
2.24674e-05
3.08363e-05
4.64141e-05
7.80429e-05
2.43507e-05
9.40623e-06
7.29961e-06
1.00268e-05
3.12863e-06
2.79071e-06
4.33284e-06
5.76357e-06
2.85928e-06
1.68484e-06
3.14609e-07
9.52231e-07
3.81378e-06
1.49799e-07
2.10798e-06
2.40023e-06
1.72552e-06
3.36394e-06
3.24009e-06
1.60579e-06
2.46356e-06
1.62967e-07
1.51417e-06
1.1487e-06
1.88791e-07
2.12538e-06
2.68123e-07
1.61926e-07
1.93498e-06
1.58886e-07
6.23779e-07
3.97242e-06
8.31173e-07
1.47886e-06
3.81446e-06
2.3233e-07
1.98828e-06
8.27435e-07
2.10605e-06
1.43078e-06
2.2543e-06
1.23043e-07
1.67534e-06
2.20968e-06
1.34289e-06
1.30671e-06
3.01075e-06
1.70119e-06
2.49707e-07
9.80756e-07
3.35084e-07
3.45939e-07
2.83086e-06
6.78132e-07
1.81395e-06
9.62774e-07
1.87639e-07
3.14851e-07
3.50484e-07
3.19268e-07
2.47486e-07
1.96818e-07
1.73031e-06
1.5689e-06
3.01896e-07
1.27324e-06
4.81635e-07
1.86237e-07
4.06932e-06
1.10504e-06
1.59174e-06
4.34253e-06
4.29198e-07
1.72872e-07
1.92517e-07
1.5999e-07
1.76517e-07
1.05228e-07
1.91049e-06
3.08557e-06
2.53932e-06
3.07936e-07
7.99883e-06
2.51404e-06
7.11729e-07
2.45454e-06
5.16024e-07
2.60248e-07
2.36736e-07
2.5012e-06
1.96679e-07
5.06365e-07
1.14595e-06
3.14845e-07
1.55265e-07
2.34646e-06
1.80353e-06
2.53608e-06
3.25603e-06
7.42423e-07
1.7952e-06
3.07375e-06
1.69071e-06
1.60453e-06
2.03895e-06
2.1298e-06
2.45652e-07
1.22708e-06
5.41272e-06
2.56051e-06
2.56873e-06
5.41164e-06
3.00897e-06
6.16239e-07
2.37621e-06
1.41649e-06
6.80102e-08
1.1089e-06
2.65839e-06
2.15729e-07
1.03601e-06
8.7995e-07
6.51067e-06
7.05388e-07
8.47345e-07
7.7678e-06
7.96109e-07
1.75224e-07
1.52911e-06
1.37582e-06
1.66663e-07
1.63474e-07
3.41782e-07
1.82569e-06
9.35108e-07
2.82535e-07
1.25276e-06
2.05469e-06
1.38458e-06
2.81546e-07
1.18701e-06
1.82395e-06
1.09246e-06
3.02164e-07
1.16639e-06
5.76438e-07
5.83917e-07
1.48557e-06
2.26004e-06
8.87613e-07
2.37925e-07
1.77905e-07
2.92625e-07
1.58517e-07
1.78393e-06
4.02642e-06
1.77206e-07
6.15821e-07
1.03362e-06
2.59722e-07
5.1781e-07
1.6882e-06
9.99561e-06
5.74214e-07
2.15611e-06
6.10561e-06
4.91997e-07
3.35416e-07
2.6619e-06
8.75878e-07
1.64239e-07
4.50387e-07
1.2188e-06
2.50734e-06
1.87975e-06
3.68207e-07
8.04885e-07
1.11327e-06
4.31321e-07
4.22459e-06
3.59774e-07
2.43494e-06
3.91608e-07
2.84978e-06
4.77816e-06
1.0266e-06
1.43429e-06
1.55756e-06
1.76746e-06
2.60929e-06
1.77367e-06
3.00115e-06
7.45944e-06
3.35189e-06
4.70215e-06
1.99029e-06
2.33495e-06
2.97545e-06
7.1637e-07
7.23215e-07
2.36829e-06
5.48597e-07
2.48728e-06
3.6497e-07
3.35486e-06
4.10788e-06
2.04682e-07
8.12229e-07
2.99339e-06
2.00809e-06
2.3094e-07
4.71741e-07
8.74266e-07
1.97332e-06
8.79801e-07
3.20019e-07
1.60464e-06
3.22716e-07
2.0571e-06
2.44963e-06
1.02686e-06
5.62409e-07
1.65637e-06
1.84221e-06
3.03676e-06
8.14539e-07
1.86493e-06
9.30085e-07
3.25248e-07
3.88748e-07
9.62181e-07
2.545e-07
1.56552e-06
4.0318e-07
7.84142e-07
3.09421e-06
1.50523e-07
5.72142e-07
9.14331e-07
2.65347e-06
2.14963e-06
2.5703e-06
5.14685e-06
2.44687e-06
7.0951e-06
1.3688e-06
5.08883e-07
9.88861e-07
3.47307e-06
2.08869e-06
7.1743e-07
3.89577e-06
2.29613e-06
1.54161e-06
3.41249e-07
4.03769e-06
3.89279e-06
2.83833e-07
6.30772e-06
3.92885e-06
5.48943e-07
7.62578e-07
5.49808e-07
2.66838e-06
1.5576e-06
7.95387e-07
9.21182e-07
7.54323e-07
2.86847e-06
1.50743e-06
8.68074e-07
1.37265e-06
2.23414e-06
4.30998e-07
2.68304e-06
3.52833e-06
9.04601e-07
2.66493e-06
8.51115e-07
6.80118e-07
7.15857e-07
1.41811e-06
1.17144e-06
1.66304e-06
6.0386e-06
6.61046e-07
2.31513e-07
3.69158e-06
4.10807e-06
2.95264e-06
3.21712e-06
2.71532e-06
6.55398e-07
5.14431e-07
3.35596e-06
1.67715e-05
1.65295e-05
3.45646e-06
1.40358e-06
7.44617e-07
2.225e-06
5.01587e-07
8.96903e-07
5.37225e-07
1.65835e-06
1.04769e-06
2.02879e-06
9.6003e-07
4.44904e-07
1.07165e-06
4.14865e-06
1.57103e-05
8.5897e-06
6.37508e-07
4.58335e-06
2.42801e-06
6.94532e-07
5.88314e-07
6.9284e-07
3.87516e-07
1.71777e-06
4.25583e-07
2.04225e-06
7.35981e-06
1.26276e-05
7.43297e-07
1.52998e-07
2.40101e-06
5.55398e-06
1.05468e-06
6.56722e-06
1.01515e-06
4.05152e-06
1.3784e-06
6.36134e-06
2.16748e-05
2.04329e-05
3.18049e-06
4.15537e-06
4.71983e-06
4.46458e-07
6.37745e-07
1.0736e-06
3.48542e-06
6.82848e-07
5.04064e-07
4.4549e-06
7.77366e-07
1.86195e-06
9.55072e-07
1.01763e-05
1.77264e-05
3.17069e-06
6.434e-07
2.47537e-06
1.16258e-06
3.17918e-07
2.54319e-07
9.6857e-07
2.23269e-07
3.03602e-06
2.80129e-07
1.17632e-06
5.06045e-06
9.74827e-06
4.11045e-07
1.40693e-06
1.11106e-05
1.07494e-05
4.51783e-06
9.7729e-07
2.70613e-06
7.72995e-06
6.32e-07
7.7341e-07
4.54194e-06
4.2461e-06
2.55224e-07
7.54661e-06
1.60602e-06
6.22472e-07
1.79846e-06
1.20078e-06
7.3617e-07
6.12521e-07
1.61779e-06
9.32992e-06
2.1696e-06
5.11398e-07
4.53425e-06
1.41546e-05
1.00886e-05
8.47491e-07
7.35947e-07
6.22439e-06
3.43802e-06
3.93509e-07
1.09396e-06
1.49168e-06
2.14626e-06
3.89876e-07
1.81241e-06
4.04968e-06
1.1292e-05
1.56247e-05
9.99623e-07
8.6143e-07
2.70965e-06
5.98808e-06
1.77501e-05
5.45116e-07
7.10773e-06
1.22048e-05
4.6709e-07
1.31308e-06
7.65356e-06
1.4552e-05
2.72645e-06
5.62701e-06
3.12959e-06
1.6925e-06
2.09966e-06
4.81671e-07
4.08692e-06
2.32538e-06
2.8537e-06
1.5569e-05
5.86823e-06
7.75494e-07
3.71208e-06
2.00845e-05
1.09328e-05
9.31365e-07
9.69339e-07
4.00154e-06
4.92069e-07
2.12851e-06
3.25684e-06
1.70562e-06
1.19691e-06
2.22706e-06
1.4193e-06
2.63508e-06
1.00514e-05
1.12144e-05
1.71539e-07
1.92515e-07
2.10464e-06
1.69138e-05
9.86649e-06
2.77403e-06
2.62414e-06
7.01408e-06
4.24951e-07
9.52303e-07
4.81172e-06
1.2417e-05
1.69147e-06
4.65992e-06
1.34435e-06
9.74193e-07
1.82575e-06
7.77824e-07
3.47777e-06
9.13748e-07
1.65951e-06
1.56837e-05
8.69326e-06
6.75956e-07
6.40803e-06
2.00557e-05
3.25918e-06
1.91344e-06
8.05732e-07
6.69355e-06
1.08947e-06
2.67922e-06
2.60158e-06
4.91509e-06
1.93467e-06
1.63708e-06
1.54041e-06
1.32693e-06
9.83355e-06
1.17102e-05
3.76572e-07
4.64908e-07
2.82325e-06
1.81931e-05
1.40534e-05
1.50193e-06
4.36172e-06
9.23114e-06
5.88218e-07
6.88365e-07
2.06134e-06
9.9277e-06
2.74106e-06
8.6645e-07
1.03186e-06
8.70798e-07
1.46511e-06
1.12233e-06
4.77848e-06
5.94764e-07
9.88329e-07
2.76982e-05
1.30025e-05
1.0118e-06
3.95506e-06
1.61558e-05
1.47487e-06
1.54084e-06
3.04417e-06
1.19567e-05
1.23332e-06
7.61346e-06
4.04012e-06
9.63475e-06
5.23057e-06
9.69886e-07
1.15984e-06
2.463e-06
5.42804e-06
7.6636e-06
8.56033e-07
9.95187e-07
1.96481e-06
1.68363e-05
2.80107e-05
1.65048e-06
2.76494e-06
1.25884e-05
2.42681e-06
7.07526e-07
8.86305e-07
1.02558e-05
5.39134e-06
1.16115e-06
1.81053e-06
1.36422e-06
1.18875e-06
8.169e-06
7.72737e-06
8.97251e-07
1.02868e-06
2.27124e-05
6.73352e-06
2.22598e-06
5.35604e-06
1.56717e-05
8.05397e-07
1.38776e-06
5.01087e-06
1.30548e-05
8.50126e-07
1.36095e-05
7.07532e-06
9.57762e-06
6.27116e-06
1.53066e-06
1.16823e-06
2.21174e-06
3.54961e-06
4.36384e-06
8.82783e-07
1.41642e-06
2.09188e-06
2.61533e-05
1.8462e-05
4.48239e-06
2.05737e-06
1.60608e-05
2.61357e-06
1.04344e-06
1.28281e-06
1.38841e-05
4.34954e-06
1.34636e-06
3.84392e-06
4.05236e-06
3.59061e-06
1.27693e-05
6.37468e-06
2.28483e-06
2.01155e-06
1.74064e-05
4.39513e-06
3.05565e-06
6.30721e-06
1.30343e-05
1.58874e-06
2.72245e-06
7.57445e-06
1.66325e-05
1.03089e-06
2.06084e-05
4.03181e-06
1.46495e-05
7.04479e-06
1.9528e-06
1.12695e-06
7.52388e-07
8.5007e-06
6.65085e-06
1.00944e-06
1.56519e-06
1.86572e-06
2.17839e-05
1.10109e-05
1.05867e-05
8.774e-07
1.58477e-05
3.39499e-06
2.19367e-06
1.21777e-06
1.14125e-05
2.97731e-06
1.58124e-06
6.39394e-06
8.47425e-06
3.96118e-06
1.01227e-05
6.39601e-06
1.91651e-06
2.998e-06
1.26629e-05
2.41508e-06
2.46555e-06
4.78919e-06
7.87036e-06
3.1466e-06
2.44908e-06
1.25337e-05
2.20005e-05
1.80577e-06
2.6371e-05
2.35586e-06
1.34136e-05
7.49706e-06
2.26303e-06
1.30107e-06
7.55647e-07
1.37643e-05
7.89967e-06
9.58772e-07
1.20641e-06
1.34742e-06
1.66325e-05
1.5559e-05
4.42337e-06
2.00941e-06
2.5458e-05
9.07783e-06
2.52141e-06
1.43831e-06
1.00623e-05
4.93142e-06
1.79161e-06
1.30417e-05
1.31204e-05
4.09641e-06
1.30416e-05
1.25699e-05
2.02506e-06
5.94371e-06
1.28106e-05
2.99582e-06
2.53764e-06
5.64551e-06
9.00969e-06
2.81089e-06
1.54078e-06
2.39625e-05
2.98121e-05
3.28539e-06
2.74511e-05
1.3729e-06
1.34499e-05
8.80389e-06
1.51326e-06
2.06935e-06
1.0958e-06
2.7308e-05
1.19578e-05
1.26842e-06
1.79459e-06
1.75835e-06
1.7782e-05
1.49095e-05
3.99685e-06
2.08133e-06
2.79751e-05
7.36673e-06
5.26731e-06
2.20172e-06
6.51264e-06
4.93411e-06
1.4896e-06
1.15724e-05
7.07835e-06
3.16141e-06
1.6515e-05
1.64369e-05
3.22977e-06
1.35937e-05
7.89272e-06
2.97904e-06
2.72827e-06
7.92918e-06
6.9886e-06
4.01403e-06
2.35466e-06
3.79631e-05
3.49777e-05
6.68686e-06
3.35486e-05
2.02129e-06
1.52994e-05
1.7464e-05
2.61049e-06
5.09533e-06
1.13292e-06
3.09149e-05
1.04736e-05
1.27733e-06
1.68717e-06
1.54742e-06
1.20468e-05
1.85387e-05
5.44114e-06
1.7262e-06
3.43614e-05
6.90652e-06
8.46619e-06
1.49066e-06
1.20264e-05
4.86755e-06
1.72597e-06
8.81718e-06
6.19844e-06
6.42421e-06
2.72601e-05
2.70873e-05
2.26401e-06
2.11754e-05
8.0986e-06
6.16233e-06
2.22219e-06
8.74107e-06
4.2116e-06
5.06503e-06
6.38593e-06
6.46397e-05
4.76192e-05
9.8134e-06
3.74024e-05
3.18442e-06
1.37601e-05
2.40361e-05
3.05419e-06
1.04874e-05
1.31859e-06
3.55447e-05
1.29724e-05
1.03563e-06
1.99353e-06
2.29506e-06
1.14487e-05
2.06913e-05
5.06451e-06
1.36839e-06
3.70325e-05
6.52468e-06
1.32676e-05
1.70401e-06
1.52756e-05
3.58886e-06
1.86958e-06
7.26083e-06
5.96447e-06
8.16103e-06
3.61608e-05
3.38765e-05
2.4917e-06
3.09403e-05
6.21257e-06
7.2017e-06
2.79162e-06
7.40233e-06
1.76338e-06
6.49308e-06
1.12639e-05
9.08437e-05
5.90052e-05
1.49516e-05
5.18223e-05
6.71972e-06
1.20693e-05
2.63339e-05
3.15157e-06
1.43444e-05
1.67076e-06
3.82658e-05
1.32613e-05
1.05811e-06
2.26005e-06
2.31173e-06
1.04535e-05
1.84508e-05
4.77277e-06
9.25913e-07
3.82227e-05
6.68033e-06
1.56247e-05
1.5582e-06
1.87588e-05
4.30599e-06
2.09593e-06
6.25347e-06
5.38747e-06
8.31459e-06
4.16925e-05
3.9713e-05
4.08879e-06
4.24773e-05
3.04947e-06
5.39319e-06
3.24847e-06
5.83452e-06
1.82259e-06
5.39135e-06
1.38736e-05
0.000101647
8.00732e-05
1.91713e-05
7.02964e-05
1.45603e-05
1.72729e-05
4.17237e-05
3.91399e-06
1.45589e-05
2.09886e-06
4.61352e-05
1.41223e-05
1.55009e-06
1.87309e-06
2.09152e-06
8.97541e-06
1.76413e-05
5.5133e-06
7.99846e-07
3.44034e-05
4.96441e-06
2.20547e-05
1.98582e-06
1.63175e-05
4.96706e-06
3.66144e-06
1.01332e-05
5.94103e-06
9.49669e-06
5.20219e-05
5.05701e-05
4.57229e-06
3.77056e-05
3.18112e-06
5.11666e-06
3.96293e-06
6.47386e-06
3.10298e-06
6.25658e-06
1.17585e-05
0.000113438
9.7679e-05
2.55325e-05
8.52921e-05
2.39556e-05
1.81767e-05
5.39153e-05
5.42921e-06
1.85375e-05
2.00677e-06
5.14717e-05
1.43722e-05
3.4947e-06
1.8216e-06
2.26582e-06
7.45784e-06
2.35141e-05
6.46696e-06
2.19968e-06
3.01092e-05
3.24875e-06
2.32898e-05
1.6538e-06
1.05511e-05
5.118e-06
5.18321e-06
1.43097e-05
7.10638e-06
1.10729e-05
6.10373e-05
5.375e-05
5.00739e-06
2.7718e-05
5.9826e-06
8.69438e-06
4.17897e-06
7.74933e-06
3.25452e-06
7.21858e-06
1.42245e-05
0.000149309
0.000109181
3.70027e-05
9.27993e-05
2.7141e-05
1.31888e-05
5.9318e-05
5.64634e-06
2.46876e-05
1.57232e-06
4.50496e-05
1.20076e-05
4.08506e-06
1.9622e-06
2.75244e-06
6.03468e-06
2.35059e-05
1.01543e-05
5.59674e-06
2.56066e-05
2.42453e-06
2.00488e-05
1.09273e-06
5.67327e-06
3.8605e-06
5.75558e-06
1.54483e-05
8.66033e-06
8.40435e-06
6.11439e-05
5.29734e-05
8.71862e-06
2.83913e-05
8.54076e-06
9.47151e-06
5.90532e-06
9.75589e-06
2.89872e-06
1.14612e-05
1.37422e-05
0.000160931
0.000103959
4.70189e-05
0.00010784
3.62702e-05
1.12097e-05
6.52924e-05
5.59342e-06
3.82437e-05
2.79019e-06
4.34792e-05
9.46399e-06
2.54981e-06
1.86048e-06
3.70099e-06
4.01626e-06
2.33285e-05
9.15887e-06
5.26913e-06
3.06387e-05
4.01215e-06
1.27568e-05
7.44321e-07
5.30475e-06
3.50119e-06
6.20981e-06
2.01084e-05
8.91886e-06
5.90477e-06
6.45451e-05
5.76252e-05
1.11246e-05
2.90245e-05
1.17162e-05
7.66053e-06
6.07832e-06
1.19399e-05
3.20457e-06
1.20668e-05
1.91833e-05
0.000169637
9.27612e-05
4.25417e-05
0.000102937
3.71159e-05
1.33248e-05
7.43359e-05
6.9264e-06
3.77612e-05
2.62355e-06
5.49029e-05
8.36597e-06
1.80205e-06
3.55986e-06
3.88075e-06
2.86954e-06
2.2354e-05
1.03853e-05
7.02983e-06
2.54569e-05
2.90022e-06
1.19198e-05
7.89561e-07
2.99435e-06
2.16319e-06
5.12677e-06
1.93159e-05
4.41418e-06
3.52049e-06
5.71191e-05
4.82428e-05
1.50747e-05
3.21986e-05
1.03577e-05
4.497e-06
6.81255e-06
8.54375e-06
7.51859e-06
1.46917e-05
2.27965e-05
0.000183401
8.14285e-05
4.58771e-05
0.000101546
3.46391e-05
1.49603e-05
7.99428e-05
8.22068e-06
3.72728e-05
4.11922e-06
5.1393e-05
5.99258e-06
2.64734e-06
3.83071e-06
5.37442e-06
1.82095e-06
2.95701e-05
7.83261e-06
5.74043e-06
2.64907e-05
4.10175e-06
7.79402e-06
8.42318e-07
3.41837e-06
3.88824e-06
9.36423e-06
2.26329e-05
5.60419e-06
4.42477e-06
5.87325e-05
4.94487e-05
1.33608e-05
2.61495e-05
1.23507e-05
5.06869e-06
6.00766e-06
6.81707e-06
8.22665e-06
1.41702e-05
2.50572e-05
0.000192097
8.10537e-05
4.41852e-05
9.01832e-05
2.62787e-05
1.92571e-05
9.14546e-05
9.00156e-06
3.41623e-05
3.99566e-06
5.11055e-05
6.6978e-06
2.21232e-06
5.01235e-06
4.56912e-06
2.35715e-06
2.52587e-05
1.08208e-05
9.86698e-06
1.89193e-05
2.34386e-06
9.06812e-06
1.06137e-06
1.25878e-06
2.18727e-06
6.52386e-06
1.47045e-05
3.77638e-06
3.29461e-06
4.96708e-05
4.11921e-05
1.64481e-05
2.99274e-05
1.08182e-05
4.08404e-06
9.45891e-06
5.02878e-06
1.00364e-05
1.62075e-05
2.11401e-05
0.000163078
7.20072e-05
5.30863e-05
0.000102112
3.55182e-05
1.6527e-05
8.19417e-05
7.54711e-06
4.04097e-05
3.31528e-06
4.4848e-05
4.7418e-06
3.1902e-06
3.25885e-06
6.03103e-06
1.21177e-06
3.32717e-05
6.66206e-06
6.18156e-06
2.55276e-05
6.37442e-06
4.26747e-06
8.93681e-07
3.38466e-06
5.84901e-06
1.22387e-05
2.2693e-05
6.02677e-06
4.83218e-06
6.05226e-05
4.94077e-05
1.16753e-05
1.99607e-05
1.9731e-05
7.55175e-06
5.88205e-06
6.49703e-06
5.54638e-06
1.0744e-05
2.85759e-05
0.000178898
8.46939e-05
3.98719e-05
8.38094e-05
2.74844e-05
2.02722e-05
9.37045e-05
9.25144e-06
3.09907e-05
4.00398e-06
5.48861e-05
8.38907e-06
1.90922e-06
6.86048e-06
3.46117e-06
2.46336e-06
2.2615e-05
1.335e-05
1.27834e-05
1.57883e-05
2.15658e-06
9.48006e-06
1.91312e-06
6.64828e-07
1.60556e-06
4.85521e-06
1.21209e-05
2.63626e-06
2.62944e-06
4.06903e-05
3.1977e-05
2.21222e-05
3.20008e-05
1.1192e-05
3.68984e-06
1.07411e-05
5.13716e-06
1.18051e-05
2.2018e-05
1.80332e-05
0.000156672