/*--------------------------------*- C++ -*----------------------------------*\
  =========                 |
  \\      /  F ield         | OpenFOAM: The Open Source CFD Toolbox
   \\    /   O peration     | Website:  https://openfoam.org
    \\  /    A nd           | Version:  10
     \\/     M anipulation  |
\*---------------------------------------------------------------------------*/
FoamFile
{
    format      ascii;
    class       volTensorField;
    location    "5";
    object      strainTensor;
}
// * * * * * * * * * * * * * * * * * * * * * * * * * * * * * * * * * * * * * //

dimensions      [0 0 -1 0 0 0 0];

internalField   nonuniform List<tensor> 
25600
(
(-0.114037 -0 -0 -0 -0.0762362 -0 -0 -0 0.19625)
(-0.0429882 -0 -0 -0 -0.144808 -0 -0 -0 0.181562)
(0.0523021 -0 -0 -0 -0.196207 -0 -0 -0 0.120758)
(0.13247 -0 0 -0 -0.216949 -0 0 -0 0.0531678)
(0.143227 -0 0 -0 -0.210028 0 0 0 0.0146251)
(0.110948 -0 0 -0 -0.196599 0 0 0 0.0444876)
(0.0626562 -0 -0 -0 -0.201804 0 -0 0 0.0920485)
(0.0262766 -0 -0 -0 -0.186971 0 -0 0 0.1235)
(0.00605166 -0 0 -0 -0.139811 0 0 0 0.145575)
(-0.0533692 -0 0 -0 -0.0776887 -0 0 -0 0.148105)
(-0.128252 -0 0 -0 -0.0111299 -0 0 -0 0.144554)
(-0.144671 -0 0 -0 0.0301229 -0 0 -0 0.104004)
(-0.116858 -0 -0 -0 0.0950105 0 -0 0 -0.0134492)
(-0.0282458 -0 -0 -0 0.175996 0 -0 0 -0.201906)
(0.121938 -0 -0 -0 0.237717 0 -0 0 -0.407903)
(0.192529 0 -0 0 0.272762 0 -0 0 -0.480904)
(0.114949 0 -0 0 0.242317 -0 -0 -0 -0.36335)
(-0.0305747 0 -0 0 0.177383 -0 -0 -0 -0.158106)
(-0.171238 0 -0 0 0.129766 -0 -0 -0 0.0218052)
(-0.21707 0 -0 0 0.0985342 0 -0 0 0.0734609)
(-0.127089 0 -0 0 0.0758158 0 -0 0 0.0279856)
(0.00182522 0 -0 0 0.0269411 0 -0 0 -0.0247135)
(0.103082 0 0 0 -0.0384477 -0 0 -0 -0.05709)
(0.172403 0 0 0 -0.0775132 -0 0 -0 -0.0708115)
(0.160415 0 0 0 -0.0862846 0 0 0 -0.0689038)
(0.109415 0 0 0 -0.0280408 0 0 0 -0.0635078)
(0.0538057 0 0 0 0.0641963 0 0 0 -0.0628822)
(0.0161405 0 0 0 0.105848 0 0 0 -0.101229)
(0.0279108 0 0 0 0.112375 0 0 0 -0.144415)
(0.0375104 0 0 0 0.126267 0 0 0 -0.152161)
(0.00397835 0 0 0 0.120479 0 0 0 -0.143827)
(-0.0572913 0 0 0 0.142019 0 0 0 -0.0811157)
(-0.104529 0 0 0 0.152676 0 0 0 -0.00556953)
(-0.119767 0 -0 0 0.108578 0 -0 0 0.0108959)
(-0.0414136 0 -0 0 0.0630322 -0 -0 -0 -0.0255417)
(0.0454117 0 -0 0 0.0200969 -0 -0 -0 -0.0792144)
(0.0385575 0 -0 0 0.0134002 -0 -0 -0 -0.0940546)
(-0.00828024 0 -0 0 0.0389515 -0 -0 -0 -0.0430106)
(-0.0854584 -0 -0 -0 0.0293245 -0 -0 -0 0.0433485)
(-0.142672 -0 -0 -0 -0.014278 -0 -0 -0 0.132436)
(0.019605 -0 0 -0 -0.173128 -0 0 -0 0.134117)
(0.115871 -0 -0 -0 -0.139458 0 -0 0 0.00884958)
(0.147542 -0 -0 -0 -0.0849168 0 -0 0 -0.0694589)
(0.0391979 -0 -0 -0 0.00665275 0 -0 0 -0.052231)
(-0.12316 -0 -0 -0 0.0789953 0 -0 0 0.00872231)
(-0.170289 -0 -0 -0 0.0924842 -0 -0 -0 0.0496702)
(-0.0910425 -0 -0 -0 0.0668016 -0 -0 -0 0.0101933)
(0.0437603 -0 0 -0 0.0313254 -0 0 -0 -0.0880907)
(0.138343 -0 0 -0 0.0368441 0 0 0 -0.146121)
(0.10186 0 0 0 0.0794353 0 0 0 -0.135005)
(-0.0189543 0 0 0 0.104318 0 0 0 -0.0680789)
(-0.0743211 0 0 0 0.109705 0 0 0 -0.0241978)
(-0.0122046 0 0 0 0.103266 0 0 0 -0.0715403)
(0.132951 0 0 0 0.0509252 -0 0 -0 -0.166613)
(0.268026 0 0 0 -0.00429951 -0 0 -0 -0.233296)
(0.239223 -0 0 -0 -0.0430665 -0 0 -0 -0.18117)
(0.0721372 -0 0 -0 -0.060459 -0 0 -0 -0.0484663)
(-0.0698729 -0 -0 -0 -0.036337 0 -0 0 0.0565747)
(-0.159154 0 -0 0 -0.0052409 0 -0 0 0.132286)
(-0.180119 0 -0 0 0.0100324 0 -0 0 0.146236)
(-0.109098 0 -0 0 0.0229241 0 -0 0 0.0851151)
(-0.0132224 0 0 0 0.0487046 -0 0 -0 -0.0226258)
(0.0682489 0 0 0 0.0940666 -0 0 -0 -0.151265)
(0.100324 0 0 0 0.102987 -0 0 -0 -0.214056)
(0.0404227 -0 0 -0 0.0803628 0 0 0 -0.160401)
(-0.0383576 -0 0 -0 0.0770701 0 0 0 -0.0585126)
(-0.0973631 -0 -0 -0 0.0813665 0 -0 0 0.00701947)
(-0.0738727 -0 -0 -0 0.0856448 0 -0 0 -0.031253)
(0.0560384 -0 -0 -0 0.0786055 0 -0 0 -0.143574)
(0.185137 -0 0 -0 0.051627 0 0 0 -0.233538)
(0.230898 -0 0 -0 0.00670238 -0 0 -0 -0.246614)
(0.144749 -0 0 -0 -0.00745656 -0 0 -0 -0.148722)
(-0.0341342 -0 -0 -0 0.0289278 -0 -0 -0 0.0121485)
(-0.200018 -0 -0 -0 0.0693864 -0 -0 -0 0.136801)
(-0.226668 -0 -0 -0 0.0927256 -0 -0 -0 0.183588)
(-0.158008 -0 -0 -0 0.0504688 -0 -0 -0 0.143127)
(-0.0848103 -0 -0 -0 -0.0245852 -0 -0 -0 0.0974868)
(-0.0481131 -0 -0 -0 -0.086552 -0 -0 -0 0.136525)
(-0.0846721 -0 -0 -0 -0.151599 -0 -0 -0 0.19734)
(-0.076881 -0 -0 -0 -0.18755 -0 -0 -0 0.207685)
(0.13964 -0 0 -0 -0.16087 0 0 0 0.0196358)
(0.0436952 -0 0 -0 -0.0478657 0 0 0 0.00845758)
(-0.0190701 -0 0 -0 0.025367 0 0 0 0.00735868)
(-0.0311612 -0 0 -0 0.0489835 0 0 0 -0.0237125)
(0.0201077 -0 0 -0 0.0083661 0 0 0 -0.0730391)
(0.0978511 -0 0 -0 -0.0259654 0 0 0 -0.105732)
(0.166141 0 0 0 -0.0347061 0 0 0 -0.151502)
(0.180447 0 0 0 -0.0274932 0 0 0 -0.203934)
(0.123474 0 0 0 0.0378752 0 0 0 -0.197701)
(0.0214698 0 0 0 0.0714646 0 0 0 -0.116897)
(-0.0752443 0 -0 0 -0.0179317 0 -0 0 0.031706)
(-0.0443443 0 -0 0 -0.124255 -0 -0 -0 0.123048)
(0.0570021 0 -0 0 -0.166484 -0 -0 -0 0.0843416)
(0.0641432 0 -0 0 -0.118534 -0 -0 -0 0.00221778)
(0.036536 -0 -0 -0 0.00228607 -0 -0 -0 -0.0904581)
(0.0344549 -0 -0 -0 0.0992453 -0 -0 -0 -0.191965)
(0.0286802 -0 -0 -0 0.152572 0 -0 0 -0.248946)
(-0.000462769 -0 -0 -0 0.142377 0 -0 0 -0.190834)
(-0.0674873 -0 -0 -0 0.0461662 0 -0 0 -0.00609649)
(-0.0991405 -0 -0 -0 -0.0476893 0 -0 0 0.131135)
(-0.0363425 -0 -0 -0 -0.0613798 0 -0 0 0.091713)
(0.0486548 -0 -0 -0 -0.000960785 -0 -0 -0 -0.047775)
(0.0701547 -0 0 -0 0.0547505 -0 0 -0 -0.122271)
(-0.0187066 -0 0 -0 0.00303657 -0 0 -0 -0.0105117)
(-0.129068 -0 0 -0 -0.10056 -0 0 -0 0.208951)
(-0.162715 -0 0 -0 -0.197854 0 0 0 0.373612)
(-0.110419 -0 0 -0 -0.287126 0 0 0 0.405633)
(0.00673105 -0 0 -0 -0.302394 -0 0 -0 0.310406)
(0.097282 -0 0 -0 -0.192819 -0 0 -0 0.124609)
(0.0872468 -0 0 -0 -0.0456937 0 0 0 -0.0095171)
(0.0531139 -0 -0 -0 0.0209321 0 -0 0 -0.029966)
(0.0465715 -0 -0 -0 -0.0280177 0 -0 0 0.00269447)
(-0.0249373 -0 -0 -0 -0.0533943 0 -0 0 0.0494026)
(-0.153257 -0 -0 -0 -0.0398593 -0 -0 -0 0.118236)
(-0.295094 -0 -0 -0 -0.0109188 -0 -0 -0 0.259023)
(-0.340055 -0 -0 -0 -0.0686349 -0 -0 -0 0.371103)
(-0.201588 -0 -0 -0 -0.206851 -0 -0 -0 0.392764)
(0.00610589 -0 -0 -0 -0.337631 -0 -0 -0 0.322644)
(0.167118 -0 -0 -0 -0.402928 0 -0 0 0.193713)
(0.21247 -0 0 -0 -0.322623 0 0 0 0.0772478)
(0.125096 -0 0 -0 -0.417287 0 0 0 0.264348)
(0.101143 -0 0 -0 -0.393015 0 0 0 0.268)
(0.151233 -0 0 -0 -0.284798 0 0 0 0.126391)
(0.245994 -0 0 -0 -0.171635 0 0 0 -0.0960265)
(0.321411 -0 0 -0 -0.103398 0 0 0 -0.258877)
(0.334214 -0 0 -0 -0.05196 0 0 0 -0.291584)
(0.260595 -0 0 -0 -0.0905797 0 0 0 -0.191539)
(0.157175 -0 0 -0 -0.177719 0 0 0 -0.0554698)
(0.111788 -0 0 -0 -0.201086 0 0 0 0.0384147)
(0.083465 -0 0 -0 -0.197218 0 0 0 0.104591)
(0.059326 -0 0 -0 -0.212931 0 0 0 0.122668)
(0.0483481 -0 0 -0 -0.204047 -0 0 -0 0.129066)
(-0.065538 -0 -0 -0 -0.200256 -0 -0 -0 0.205893)
(-0.170783 -0 -0 -0 -0.151341 -0 -0 -0 0.290752)
(-0.0931066 -0 -0 -0 -0.0244589 -0 -0 -0 0.161172)
(0.0520042 -0 -0 -0 0.121423 0 -0 0 -0.107408)
(0.0567188 -0 -0 -0 0.196502 0 -0 0 -0.20133)
(-0.123282 -0 -0 -0 0.113527 0 -0 0 0.0110118)
(-0.253097 -0 -0 -0 -0.0417451 0 -0 0 0.264157)
(-0.170749 -0 -0 -0 -0.1333 0 -0 0 0.266283)
(0.0483973 -0 -0 -0 -0.123446 -0 -0 -0 0.0437705)
(0.220762 -0 -0 -0 -0.0720833 -0 -0 -0 -0.154354)
(0.134946 -0 -0 -0 -0.0710572 -0 -0 -0 -0.074348)
(-0.141126 -0 -0 -0 -0.0959916 -0 -0 -0 0.200669)
(-0.298171 -0 -0 -0 -0.0380085 -0 -0 -0 0.341271)
(-0.251263 -0 0 -0 0.060802 -0 0 -0 0.233004)
(-0.0831783 -0 0 -0 0.0109145 -0 0 -0 0.0818433)
(0.0862789 -0 0 -0 -0.10085 -0 0 -0 0.0176057)
(0.0726119 -0 0 -0 -0.138517 0 0 0 0.057949)
(-0.0820329 -0 -0 -0 -0.0875309 0 -0 0 0.152643)
(-0.131029 -0 -0 -0 -0.0260936 0 -0 0 0.162112)
(-0.0792133 -0 -0 -0 -0.0070199 -0 -0 -0 0.0880983)
(-0.0794641 -0 -0 -0 0.000765138 -0 -0 -0 0.0823167)
(-0.165123 -0 -0 -0 0.0240009 -0 -0 -0 0.162538)
(-0.284467 -0 -0 -0 0.0292497 -0 -0 -0 0.235636)
(-0.294295 -0 -0 -0 -0.0160651 -0 -0 -0 0.233526)
(-0.173951 -0 0 -0 -0.103449 -0 0 -0 0.195079)
(-0.00382205 -0 0 -0 -0.227899 -0 0 -0 0.156988)
(0.119879 -0 0 -0 -0.357424 -0 0 -0 0.15513)
(0.152304 -0 0 -0 -0.410879 -0 0 -0 0.204392)
(0.0701585 0 0 0 -0.363012 0 0 0 0.338493)
(0.0380447 0 -0 0 -0.358452 0 -0 0 0.336494)
(0.0778178 0 -0 0 -0.206867 0 -0 0 0.173209)
(0.139964 0 0 0 -0.0407167 0 0 0 -0.0808011)
(0.193653 0 0 0 0.0819286 0 0 0 -0.27193)
(0.233448 -0 0 -0 0.0698361 0 0 0 -0.289677)
(0.255082 -0 0 -0 -0.123281 0 0 0 -0.161558)
(0.266954 -0 0 -0 -0.254056 0 0 0 -0.0322398)
(0.17831 -0 0 -0 -0.160406 0 0 0 0.0695094)
(-0.0541325 -0 0 -0 -0.0169389 0 0 0 0.160642)
(-0.196474 -0 0 -0 0.0372433 -0 0 -0 0.195804)
(-0.15606 -0 -0 -0 0.0555244 -0 -0 -0 0.141938)
(-0.0434082 -0 -0 -0 0.00392909 -0 -0 -0 0.0419762)
(0.124498 -0 -0 -0 -0.00922384 0 -0 0 -0.0996392)
(0.157269 0 -0 0 0.0812957 0 -0 0 -0.213707)
(-0.043902 0 -0 0 0.145708 0 -0 0 -0.113848)
(-0.258948 -0 -0 -0 0.0890454 0 -0 0 0.141346)
(-0.250598 -0 -0 -0 -0.0931296 0 -0 0 0.294548)
(0.0124703 -0 -0 -0 -0.243629 0 -0 0 0.226603)
(0.219383 -0 -0 -0 -0.267159 0 -0 0 0.0862482)
(0.230549 0 -0 0 -0.203517 -0 -0 -0 0.013115)
(0.126632 0 0 0 -0.0949786 -0 0 -0 0.0401759)
(-0.0774475 -0 0 -0 -0.0368923 -0 0 -0 0.153246)
(-0.207245 -0 0 -0 -0.0325573 -0 0 -0 0.222106)
(-0.219094 -0 0 -0 0.02163 -0 0 -0 0.213292)
(-0.252499 -0 0 -0 0.048714 -0 0 -0 0.224813)
(-0.262607 -0 0 -0 -0.0508422 -0 0 -0 0.257213)
(-0.158526 0 -0 0 -0.192123 0 -0 0 0.310589)
(-0.000180346 0 -0 0 -0.339739 0 -0 0 0.360003)
(0.175289 0 -0 0 -0.420144 0 -0 0 0.271732)
(0.30682 0 -0 0 -0.291306 0 -0 0 0.0448995)
(0.248677 0 -0 0 -0.0448748 0 -0 0 -0.137637)
(0.0393619 0 -0 0 0.151277 0 -0 0 -0.134612)
(-0.21097 0 0 0 0.300403 0 0 0 -0.0187506)
(-0.394862 0 0 0 0.410615 0 0 0 0.0122934)
(-0.369277 0 0 0 0.472532 0 0 0 -0.0608574)
(-0.170795 0 0 0 0.341438 0 0 0 -0.121919)
(0.0174366 0 0 0 0.059977 0 0 0 -0.0664144)
(0.102324 0 0 0 -0.173513 -0 0 -0 0.0886683)
(0.112883 0 0 0 -0.286242 -0 0 -0 0.242074)
(-0.112849 -0 0 -0 0.343964 0 0 0 -0.315932)
(0.0952256 0 -0 0 0.267086 0 -0 0 -0.447854)
(0.172936 0 -0 0 0.208196 0 -0 0 -0.427491)
(0.0734936 0 -0 0 0.128358 0 -0 0 -0.259403)
(-0.0225399 0 -0 0 0.0270978 0 -0 0 -0.0265423)
(0.0384319 -0 0 -0 -0.0553969 0 0 0 0.0482101)
(0.150483 -0 0 -0 -0.0210942 0 0 0 -0.0686969)
(0.152677 -0 0 -0 0.193881 0 0 0 -0.191793)
(-0.123978 -0 -0 -0 0.457867 -0 -0 -0 -0.15917)
(-0.412677 -0 -0 -0 0.447347 -0 -0 -0 0.0118888)
(-0.301738 -0 -0 -0 0.17988 -0 -0 -0 0.106149)
(0.0738 -0 0 -0 -0.138846 -0 0 -0 0.0377439)
(0.442298 -0 0 -0 -0.322127 -0 0 -0 -0.193366)
(0.542379 0 0 0 -0.0899815 0 0 0 -0.466097)
(0.206804 0 -0 0 0.226059 0 -0 0 -0.443749)
(-0.209364 0 -0 0 0.231559 0 -0 0 -0.0699972)
(-0.286508 -0 -0 -0 -0.0518398 0 -0 0 0.298892)
(-0.0709254 -0 -0 -0 -0.305415 -0 -0 -0 0.308812)
(0.214079 0 -0 0 -0.254729 -0 -0 -0 -0.00894665)
(0.317264 0 -0 0 -0.0351357 -0 -0 -0 -0.345432)
(0.13966 0 -0 0 0.250965 0 -0 0 -0.491722)
(-0.155307 0 -0 0 0.473146 0 -0 0 -0.37662)
(-0.31306 -0 -0 -0 0.382887 0 -0 0 -0.137033)
(-0.186748 -0 0 -0 0.0736147 -0 0 -0 0.0419845)
(-0.0349848 -0 0 -0 -0.151902 -0 0 -0 0.228273)
(-0.0124225 0 0 0 -0.200855 -0 0 -0 0.31841)
(0.0425774 0 -0 0 -0.0935542 0 -0 0 0.179617)
(0.0824696 0 -0 0 0.0519588 0 -0 0 -0.0327629)
(-0.0272166 0 -0 0 0.118977 -0 -0 -0 -0.0764613)
(-0.112555 0 -0 0 0.068145 -0 -0 -0 0.000792853)
(-0.0106825 0 -0 0 0.0183753 -0 -0 -0 0.0197997)
(0.188594 0 0 0 0.0558241 -0 0 -0 -0.15545)
(0.354142 0 -0 0 0.117609 -0 -0 -0 -0.422321)
(0.352366 0 -0 0 0.214765 -0 -0 -0 -0.513665)
(0.102312 0 -0 0 0.317259 0 -0 0 -0.418156)
(-0.193042 0 0 0 0.412959 0 0 0 -0.275537)
(-0.276081 0 0 0 0.401217 0 0 0 -0.157734)
(-0.270618 0 0 0 0.315449 -0 0 -0 -0.0718406)
(-0.315654 0 0 0 0.289474 -0 0 -0 -0.0216861)
(-0.293042 0 0 0 0.349756 -0 0 -0 -0.10613)
(-0.0759077 -0 -0 -0 0.498526 0 -0 0 -0.387889)
(0.155249 -0 -0 -0 0.167856 0 -0 0 -0.27359)
(0.320075 -0 -0 -0 -0.146269 0 -0 0 -0.118423)
(0.195681 -0 0 -0 -0.309611 0 0 0 0.175342)
(-0.0588015 -0 0 -0 -0.208274 0 0 0 0.455736)
(-0.252743 -0 0 -0 0.0350953 0 0 0 0.38434)
(-0.339105 -0 -0 -0 0.362188 0 -0 0 0.0172463)
(-0.257412 -0 -0 -0 0.678305 -0 -0 -0 -0.359135)
(-0.188484 -0 -0 -0 0.597974 -0 -0 -0 -0.391433)
(-0.0408925 -0 -0 -0 0.121496 -0 -0 -0 -0.229975)
(0.233417 -0 0 -0 -0.264724 -0 0 -0 -0.121821)
(0.452466 0 0 0 -0.580692 0 0 0 -0.0392683)
(0.632215 0 0 0 -0.800527 0 0 0 0.0159338)
(0.504638 0 0 0 -0.579731 0 0 0 0.0551055)
(0.044355 0 -0 0 -0.0636472 0 -0 0 0.0341771)
(-0.237656 0 -0 0 0.185784 0 -0 0 0.103776)
(-0.210202 0 0 0 -0.0157844 0 0 0 0.30127)
(-0.00868299 0 0 0 -0.23788 0 0 0 0.266114)
(0.209203 0 0 0 -0.115305 -0 0 -0 -0.0952023)
(0.203588 -0 -0 -0 0.162065 -0 -0 -0 -0.389347)
(-0.0480492 -0 -0 -0 0.273838 0 -0 0 -0.148446)
(-0.330823 -0 -0 -0 0.256965 -0 -0 -0 0.210273)
(-0.282552 -0 -0 -0 0.146503 -0 -0 -0 0.121487)
(0.056572 -0 0 -0 -0.106321 -0 0 -0 -0.0103993)
(0.214593 -0 0 -0 -0.422057 -0 0 -0 0.211884)
(0.150236 -0 0 -0 -0.688146 0 0 0 0.488354)
(0.0154684 0 -0 0 -0.547735 0 -0 0 0.40691)
(-0.0581182 0 -0 0 0.0301163 0 -0 0 -0.0197098)
(-0.0271203 0 -0 0 0.351068 -0 -0 -0 -0.279633)
(-0.0520547 0 -0 0 0.0314328 -0 -0 -0 0.0379309)
(-0.0580659 0 -0 0 -0.455657 -0 -0 -0 0.459388)
(0.0661865 0 0 0 -0.505569 -0 0 -0 0.353176)
(0.172495 0 -0 0 -0.235135 -0 -0 -0 0.00299946)
(0.119177 -0 -0 -0 -0.0916424 -0 -0 -0 -0.0271344)
(-0.0148847 -0 -0 -0 -0.322559 -0 -0 -0 0.240436)
(-0.0844343 -0 -0 -0 -0.59172 -0 -0 -0 0.543544)
(-0.153233 -0 0 -0 -0.466331 -0 0 -0 0.637789)
(-0.305387 -0 0 -0 0.0345021 -0 0 -0 0.380374)
(-0.385415 -0 0 -0 0.573022 0 0 0 -0.0245105)
(-0.27559 -0 -0 -0 0.741311 0 -0 0 -0.317998)
(-0.143503 -0 -0 -0 0.0802169 0 -0 0 -0.0936601)
(0.0920966 -0 -0 -0 0.157712 0 -0 0 -0.231746)
(0.262383 -0 0 -0 0.128049 0 0 0 -0.315156)
(0.0232886 -0 0 -0 0.144197 -0 0 -0 -0.0458371)
(-0.246443 -0 0 -0 0.132895 -0 0 -0 0.261186)
(-0.194054 -0 -0 -0 -0.0326946 -0 -0 -0 0.227554)
(-0.0164039 -0 -0 -0 -0.148345 -0 -0 -0 0.0946648)
(0.154325 0 0 0 -0.105931 -0 0 -0 0.0335382)
(0.141023 0 0 0 -0.153415 -0 0 -0 0.0571376)
(0.191907 0 0 0 -0.294113 0 0 0 0.0510884)
(0.384374 0 0 0 -0.425704 0 0 0 0.0135905)
(0.350287 0 0 0 -0.599287 0 0 0 0.141312)
(0.295327 -0 0 -0 -0.532695 0 0 0 0.233592)
(0.301883 -0 -0 -0 -0.33134 0 -0 0 0.0760735)
(0.343273 -0 -0 -0 -0.372886 0 -0 0 -0.120893)
(0.360175 0 -0 0 -0.393922 -0 -0 -0 -0.141689)
(0.000270147 0 0 0 -0.177662 -0 0 -0 0.0179818)
(-0.435252 0 -0 0 0.0155862 -0 -0 -0 0.287934)
(-0.530635 -0 -0 -0 0.0637692 0 -0 0 0.490475)
(-0.276146 -0 -0 -0 -0.117855 -0 -0 -0 0.404826)
(0.0881332 -0 -0 -0 -0.197159 -0 -0 -0 0.171179)
(0.0937231 -0 -0 -0 -0.000694252 -0 -0 -0 -0.0310543)
(-0.127092 -0 -0 -0 0.0578504 -0 -0 -0 -0.0688352)
(-0.191985 -0 -0 -0 0.0273588 -0 -0 -0 0.150826)
(-0.0098482 -0 0 -0 -0.0814425 -0 0 -0 0.323594)
(0.280809 -0 -0 -0 -0.296124 0 -0 0 0.154298)
(0.276522 -0 -0 -0 -0.34837 0 -0 0 0.0467947)
(0.195132 -0 -0 -0 -0.362322 0 -0 0 0.169858)
(0.254458 0 -0 0 -0.452243 0 -0 0 0.23092)
(0.207738 0 0 0 -0.339957 -0 0 -0 0.174596)
(0.0580427 0 0 0 -0.0652968 -0 0 -0 0.0212817)
(-0.117964 0 0 0 0.0483902 -0 0 -0 0.0207868)
(-0.275283 0 0 0 -0.00243111 0 0 0 0.188653)
(-0.260913 -0 0 -0 -0.187775 0 0 0 0.362122)
(-0.0172774 -0 0 -0 -0.437876 -0 0 -0 0.470003)
(-0.0284068 -0 0 -0 -0.458305 -0 0 -0 0.644543)
(-0.375584 -0 0 -0 -0.238756 -0 0 -0 0.727725)
(-0.480252 -0 0 -0 -0.121502 0 0 0 0.525722)
(-0.361736 -0 0 -0 -0.011603 0 0 0 0.261497)
(-0.266392 -0 -0 -0 0.0518483 0 -0 0 0.0372906)
(-0.134861 0 0 0 0.294727 0 0 0 -0.144041)
(-0.12951 0 0 0 0.20113 0 0 0 -0.0852508)
(-0.13989 0 0 0 -0.0383286 -0 0 -0 0.0534113)
(-0.356067 -0 0 -0 -0.0971096 -0 0 -0 0.311622)
(-0.254637 -0 -0 -0 -0.256137 -0 -0 -0 0.433936)
(0.217273 -0 -0 -0 -0.623083 -0 -0 -0 0.267865)
(0.59076 0 -0 0 -0.641965 -0 -0 -0 -0.0197241)
(0.7033 0 0 0 -0.295681 -0 0 -0 -0.259224)
(0.263224 0 0 0 -0.0415124 -0 0 -0 -0.199229)
(-0.00188341 0 0 0 -0.227828 -0 0 -0 0.078378)
(0.10405 -0 0 -0 -0.265153 0 0 0 0.164744)
(-0.227577 -0 -0 -0 0.0298975 0 -0 0 0.3495)
(-0.391607 -0 -0 -0 0.121322 0 -0 0 0.538505)
(0.157736 -0 -0 -0 -0.0266389 0 -0 0 0.0804697)
(0.698802 -0 0 -0 -0.253265 -0 0 -0 -0.502644)
(0.588249 -0 0 -0 -0.229426 -0 0 -0 -0.551943)
(0.119078 -0 0 -0 -0.0250578 -0 0 -0 -0.258438)
(-0.336193 -0 -0 -0 0.390213 0 -0 0 -0.040138)
(-0.756035 -0 -0 -0 0.632957 0 -0 0 0.180916)
(-0.709342 -0 -0 -0 0.176596 -0 -0 -0 0.475492)
(-0.186768 -0 0 -0 -0.21705 -0 0 -0 0.361351)
(0.142304 -0 0 -0 -0.100393 -0 0 -0 -0.134955)
(0.0468621 -0 0 -0 -0.0154525 -0 0 -0 -0.214651)
(-0.119821 -0 0 -0 -0.0479705 -0 0 -0 0.141939)
(-0.109226 -0 0 -0 0.0198406 -0 0 -0 0.187213)
(0.146076 -0 0 -0 0.358481 0 0 0 -0.416314)
(0.568841 -0 -0 -0 0.431159 0 -0 0 -1.00643)
(0.906455 -0 -0 -0 -0.0879602 0 -0 0 -0.922059)
(0.67444 -0 -0 -0 -0.193327 -0 -0 -0 -0.470309)
(-0.127905 -0 -0 -0 0.389951 -0 -0 -0 -0.244635)
(-0.44181 -0 -0 -0 0.726865 -0 -0 -0 -0.385751)
(-0.134824 -0 -0 -0 0.577042 0 -0 0 -0.500761)
(-0.103604 -0 -0 -0 0.507495 0 -0 0 -0.444358)
(-0.281779 -0 -0 -0 0.403559 -0 -0 -0 -0.168417)
(-0.34371 -0 -0 -0 0.166748 -0 -0 -0 0.135042)
(-0.433014 -0 0 -0 -0.016336 -0 0 -0 0.321826)
(-0.251062 -0 0 -0 -0.213871 0 0 0 0.29593)
(0.109376 0 0 0 -0.440484 0 0 0 0.243139)
(0.0471513 0 0 0 -0.274368 0 0 0 0.230121)
(-0.112856 0 0 0 0.115866 0 0 0 0.01154)
(-0.280766 -0 0 -0 -0.026999 -0 0 -0 0.365169)
(-0.267804 -0 0 -0 0.163546 0 0 0 0.339111)
(-0.439675 -0 0 -0 0.153117 0 0 0 0.428717)
(-0.370926 -0 0 -0 0.142073 0 0 0 0.264302)
(0.0753582 0 0 0 0.017527 0 0 0 -0.0425575)
(0.545675 0 0 0 -0.375521 0 0 0 -0.133285)
(0.733331 0 0 0 -0.393 -0 0 -0 -0.232526)
(0.539086 0 0 0 0.0320902 -0 0 -0 -0.443468)
(0.0355339 -0 0 -0 0.139132 -0 0 -0 -0.292772)
(-0.456885 -0 -0 -0 0.289556 0 -0 0 0.144839)
(-0.628909 -0 -0 -0 0.576109 0 -0 0 0.376754)
(-0.353024 -0 -0 -0 0.0556079 0 -0 0 0.196404)
(0.192199 -0 -0 -0 -0.552171 -0 -0 -0 0.0131788)
(0.524622 0 0 0 -0.608252 -0 0 -0 -0.0471615)
(0.330905 0 0 0 -0.385774 -0 0 -0 0.0959226)
(0.0178855 -0 0 -0 -0.385429 -0 0 -0 0.545477)
(0.034945 -0 0 -0 -0.520767 -0 0 -0 0.622457)
(-0.0902671 -0 -0 -0 -0.061033 -0 -0 -0 0.192294)
(-0.356331 -0 -0 -0 0.399482 -0 -0 -0 -0.150576)
(-0.218673 0 -0 0 0.377564 0 -0 0 -0.195341)
(0.166242 0 0 0 -0.0283001 0 0 0 -0.00298423)
(0.240546 0 0 0 -0.47166 0 0 0 0.0820791)
(-0.137646 -0 0 -0 -0.74634 -0 0 -0 0.469341)
(-0.37925 -0 0 -0 -0.97761 0 0 0 1.18633)
(-0.407559 -0 0 -0 -0.879847 0 0 0 1.18839)
(-0.211173 -0 0 -0 -0.303716 0 0 0 0.247311)
(0.441782 -0 0 -0 0.338351 0 0 0 -0.932715)
(0.817819 -0 0 -0 0.744313 -0 0 -0 -1.56596)
(0.378608 -0 0 -0 0.886195 -0 0 -0 -1.28115)
(-0.0934281 -0 0 -0 0.573997 -0 0 -0 -0.599417)
(0.0654548 -0 0 -0 0.127671 -0 0 -0 -0.216979)
(0.0817223 -0 -0 -0 0.238059 -0 -0 -0 -0.293539)
(-0.211528 -0 -0 -0 0.388041 -0 -0 -0 -0.247832)
(-0.106308 -0 -0 -0 -0.0586292 -0 -0 -0 0.0877866)
(0.0220513 -0 -0 -0 -0.150094 0 -0 0 0.189999)
(0.0162412 0 -0 0 0.0745312 0 -0 0 -0.0358581)
(0.233576 0 0 0 0.141237 0 0 0 -0.313076)
(0.193406 0 0 0 0.123381 0 0 0 -0.261881)
(-0.247573 0 0 0 -0.0289235 0 0 0 0.329831)
(-0.429268 0 0 0 -0.118368 0 0 0 0.570867)
(-0.253443 -0 0 -0 0.648183 0 0 0 -0.425231)
(-0.460656 -0 0 -0 0.6783 -0 0 -0 -0.236257)
(-0.243897 -0 0 -0 -0.16657 0 0 0 0.283947)
(0.231107 0 0 0 -0.607964 0 0 0 0.305625)
(0.243461 0 0 0 -0.131614 0 0 0 -0.135242)
(0.0263131 -0 0 -0 0.325712 -0 0 -0 -0.578637)
(0.265112 -0 0 -0 0.106205 -0 0 -0 -0.520537)
(0.64345 -0 0 -0 -0.334952 0 0 0 -0.221087)
(0.477471 0 -0 0 -0.803227 0 -0 0 0.301564)
(-0.372074 -0 -0 -0 -0.25003 0 -0 0 0.699861)
(-0.775289 -0 -0 -0 0.272305 -0 -0 -0 0.318547)
(0.0337506 -0 -0 -0 -0.24473 -0 -0 -0 -0.116759)
(0.73257 -0 -0 -0 -0.766893 -0 -0 -0 0.0802278)
(0.158643 0 -0 0 -0.367366 0 -0 0 0.313135)
(-0.65511 -0 0 -0 -0.0636304 0 0 0 0.549686)
(-0.404252 -0 0 -0 -0.609307 -0 0 -0 0.694458)
(0.210409 -0 0 -0 -0.479308 -0 0 -0 0.157065)
(0.349225 0 0 0 0.408257 -0 0 -0 -0.520938)
(0.354627 0 0 0 0.507204 -0 0 -0 -0.688587)
(0.346816 0 0 0 -0.00286927 0 0 0 -0.324026)
(0.00349367 0 0 0 -0.266932 0 0 0 0.386657)
(-0.655703 0 0 0 -0.430869 0 0 0 1.05646)
(-0.714189 -0 0 -0 -0.823817 -0 0 -0 1.52806)
(-0.105292 -0 -0 -0 -1.15222 -0 -0 -0 1.45294)
(0.0105123 0 -0 0 -0.413732 0 -0 0 0.550489)
(-0.204769 0 0 0 0.454294 0 0 0 -0.122339)
(0.0684193 0 0 0 0.306532 0 0 0 -0.354851)
(0.393899 -0 0 -0 0.05593 0 0 0 -0.446215)
(0.230421 -0 0 -0 -0.14793 0 0 0 -0.0944815)
(0.148419 -0 0 -0 -0.415707 -0 0 -0 0.0433962)
(0.345502 -0 0 -0 -0.237197 -0 0 -0 -0.332543)
(0.229393 -0 -0 -0 -0.17385 -0 -0 -0 -0.195815)
(0.0871768 -0 0 -0 -0.789158 -0 0 -0 0.515885)
(0.2225 -0 0 -0 -1.03552 -0 0 -0 0.820615)
(0.176571 -0 0 -0 -0.394674 0 0 0 0.429075)
(-0.0204827 -0 0 -0 0.269515 0 0 0 -0.0940831)
(-0.329172 -0 0 -0 0.554162 -0 0 -0 -0.297728)
(-0.519957 -0 0 -0 0.576628 -0 0 -0 -0.0308567)
(-0.234645 -0 0 -0 -0.00276776 0 0 0 0.395778)
(-0.0403315 -0 0 -0 -0.109428 0 0 0 0.095561)
(0.0923871 -0 0 -0 0.626958 0 0 0 -0.434558)
(-0.215117 -0 0 -0 0.385751 0 0 0 0.021484)
(-0.253958 -0 0 -0 -0.192424 0 0 0 0.499675)
(-0.0261466 -0 -0 -0 -0.411662 0 -0 0 0.383705)
(0.0392026 -0 -0 -0 0.081642 0 -0 0 -0.169439)
(0.135418 0 -0 0 0.451826 -0 -0 -0 -0.59717)
(0.530385 0 0 0 -0.0916275 -0 0 -0 -0.385462)
(0.735294 0 0 0 -0.948865 -0 0 -0 0.230319)
(0.132048 -0 -0 -0 -0.982518 0 -0 0 0.73367)
(-0.622039 -0 -0 -0 -0.357016 0 -0 0 1.01522)
(-0.636492 0 -0 0 0.21321 0 -0 0 0.710415)
(-0.181521 0 -0 0 0.363626 -0 -0 -0 0.0244115)
(0.275053 -0 -0 -0 0.884458 -0 -0 -0 -0.755972)
(0.242449 -0 0 -0 0.837024 0 0 0 -0.93678)
(-0.178279 -0 0 -0 0.551895 0 0 0 -0.445222)
(0.141797 0 0 0 0.105463 0 0 0 -0.335542)
(0.868078 0 0 0 -0.287964 0 0 0 -0.498232)
(0.851294 0 0 0 -0.345833 0 0 0 -0.444295)
(0.14959 0 0 0 -0.231967 -0 0 -0 -0.0811611)
(-0.48704 0 -0 0 0.274413 -0 -0 -0 -0.072433)
(-0.628786 -0 -0 -0 0.537369 0 -0 0 0.0122667)
(-0.71576 -0 -0 -0 0.310208 -0 -0 -0 0.317061)
(-0.266376 -0 -0 -0 -0.351677 -0 -0 -0 0.536219)
(0.439957 -0 -0 -0 -0.257232 -0 -0 -0 0.11319)
(-0.00310093 -0 -0 -0 0.762113 0 -0 0 -0.623883)
(-0.433081 -0 -0 -0 0.819104 0 -0 0 -0.693118)
(0.0253536 -0 -0 -0 0.176362 0 -0 0 -0.349146)
(0.228087 0 0 0 -0.23458 0 0 0 0.002634)
(0.0655887 0 -0 0 -0.0828995 0 -0 0 -0.0595697)
(0.1684 0 -0 0 0.352914 -0 -0 -0 -0.652571)
(0.244334 0 -0 0 0.659579 -0 -0 -0 -0.856172)
(0.0400333 -0 0 -0 0.0412552 -0 0 -0 -0.0519915)
(-0.0543943 -0 0 -0 -1.00563 -0 0 -0 0.862785)
(-0.0618063 -0 0 -0 -0.710558 0 0 0 0.582278)
(-0.126372 -0 0 -0 0.260035 0 0 0 -0.304434)
(-0.105417 -0 -0 -0 0.34316 0 -0 0 -0.314382)
(-0.0407266 -0 0 -0 -0.267387 0 0 0 0.192875)
(-0.160706 -0 0 -0 -0.127784 0 0 0 0.33026)
(-0.233536 -0 0 -0 0.380127 0 0 0 0.00852168)
(0.025904 -0 0 -0 0.598552 0 0 0 -0.503456)
(0.50627 -0 -0 -0 -0.637782 0 -0 0 0.15505)
(-0.345502 -0 -0 -0 -0.0349174 0 -0 0 0.168613)
(-0.622729 -0 -0 -0 0.243129 -0 -0 -0 -0.0364795)
(0.0759852 -0 0 -0 0.0337593 -0 0 -0 -0.358489)
(0.687303 0 0 0 -0.0103111 -0 0 -0 -0.605374)
(0.777455 0 0 0 0.192831 -0 0 -0 -0.867523)
(0.45774 0 -0 0 0.39888 -0 -0 -0 -0.716268)
(0.022705 0 -0 0 0.101599 -0 -0 -0 -0.108563)
(-0.0705346 -0 -0 -0 0.292417 0 -0 0 -0.150042)
(0.063232 -0 -0 -0 -0.0904582 0 -0 0 0.140728)
(-0.259342 0 -0 0 0.12148 0 -0 0 0.143679)
(-0.69966 0 -0 0 0.526426 0 -0 0 0.053762)
(-0.256791 -0 -0 -0 0.744327 -0 -0 -0 -0.445711)
(0.239842 -0 0 -0 1.61415 -0 0 -0 -1.9063)
(0.0228635 -0 0 -0 1.43498 -0 0 -0 -1.89352)
(0.102796 0 0 0 0.740623 0 0 0 -1.08848)
(0.938127 -0 0 -0 -0.216575 0 0 0 -0.785886)
(1.24248 -0 -0 -0 -1.22578 0 -0 0 0.0885728)
(0.0621676 -0 -0 -0 -0.853527 -0 -0 -0 0.647884)
(-1.00266 -0 -0 -0 0.727868 -0 -0 -0 0.132352)
(-0.836896 -0 -0 -0 1.18158 -0 -0 -0 -0.131974)
(-0.70881 -0 0 -0 0.405219 -0 0 -0 0.136186)
(-0.772401 -0 0 -0 -0.0029809 -0 0 -0 0.206143)
(-0.521315 -0 0 -0 0.456179 0 0 0 -0.35656)
(-0.0961277 -0 0 -0 0.29975 0 0 0 -0.469687)
(0.511023 -0 0 -0 -0.657522 -0 0 -0 -0.109276)
(0.80708 -0 0 -0 -1.05861 0 0 0 0.132414)
(0.45285 0 -0 0 -0.301427 0 -0 0 -0.0611471)
(0.110661 0 -0 0 0.624592 0 -0 0 -0.67676)
(0.204514 0 -0 0 0.390115 0 -0 0 -0.708894)
(0.0396447 0 -0 0 -0.0916873 -0 -0 -0 -0.0778559)
(-0.491679 -0 -0 -0 0.090557 -0 -0 -0 0.243212)
(-0.490178 -0 -0 -0 0.363435 -0 -0 -0 0.327184)
(0.272571 -0 -0 -0 0.197507 -0 -0 -0 0.110968)
(0.729279 -0 -0 -0 0.290924 -0 -0 -0 -0.659329)
(0.250071 -0 0 -0 0.411254 -0 0 -0 -0.903078)
(-0.417658 -0 0 -0 0.282455 0 0 0 0.00624642)
(-0.783299 -0 -0 -0 0.737336 0 -0 0 0.334788)
(-0.538475 -0 -0 -0 0.448224 0 -0 0 0.0580442)
(0.337396 0 -0 0 -0.663964 0 -0 0 0.144707)
(0.185117 0 -0 0 -0.135313 0 -0 0 -0.0548208)
(-0.178948 0 0 0 0.554897 0 0 0 -0.12062)
(-0.467284 0 0 0 0.612753 0 0 0 -0.106876)
(0.0548912 0 0 0 -0.171697 -0 0 -0 -0.0344179)
(0.512707 0 0 0 -0.756719 -0 0 -0 0.0554702)
(0.543857 -0 -0 -0 -0.620064 -0 -0 -0 -0.330107)
(0.3581 -0 0 -0 0.244963 -0 0 -0 -0.997936)
(-0.144542 -0 0 -0 0.604993 0 0 0 -0.655339)
(-0.392388 0 -0 0 0.29564 -0 -0 -0 -0.0641555)
(0.182731 -0 0 -0 -0.0906909 -0 0 -0 -0.220175)
(0.281332 -0 0 -0 0.20244 -0 0 -0 -0.671171)
(-0.612823 0 -0 0 0.242627 -0 -0 -0 -0.153827)
(-0.792201 0 -0 0 0.158181 0 -0 0 0.0605197)
(0.126584 0 0 0 0.704986 -0 0 -0 -0.602924)
(0.623338 0 0 0 0.540335 -0 0 -0 -0.96634)
(0.0999462 -0 0 -0 0.535691 0 0 0 -0.652531)
(0.118728 0 0 0 1.09595 0 0 0 -1.13229)
(0.5931 -0 0 -0 -0.118451 -0 0 -0 -0.691134)
(0.08747 -0 0 -0 -0.625605 -0 0 -0 0.442003)
(-0.511596 -0 -0 -0 -0.0751412 -0 -0 -0 0.624012)
(-0.46828 -0 -0 -0 0.312753 0 -0 0 0.0482176)
(-0.328893 -0 -0 -0 -0.295752 0 -0 0 0.52097)
(-0.398983 -0 0 -0 0.38661 0 0 0 0.339161)
(-0.381586 -0 0 -0 0.336777 0 0 0 0.194787)
(0.0628109 0 0 0 -0.693455 0 0 0 0.557354)
(0.454062 0 0 0 -1.08942 0 0 0 0.299555)
(0.533271 0 0 0 -0.518323 -0 0 -0 -0.141876)
(0.377111 -0 0 -0 -0.121352 0 0 0 -0.396569)
(0.168305 -0 -0 -0 0.199655 0 -0 0 -0.868108)
(0.221509 0 -0 0 0.399305 0 -0 0 -0.681345)
(-0.0741173 0 -0 0 -0.145726 0 -0 0 0.225769)
(-1.10063 -0 -0 -0 0.356748 0 -0 0 0.442654)
(-1.66909 -0 -0 -0 1.11015 -0 -0 -0 0.377717)
(-0.297721 -0 -0 -0 -0.243132 -0 -0 -0 0.486663)
(1.31037 -0 -0 -0 -1.02947 -0 -0 -0 0.213909)
(0.965242 -0 -0 -0 -0.280133 -0 -0 -0 -0.444931)
(0.0598849 -0 -0 -0 -0.21661 -0 -0 -0 -0.0894563)
(-0.196451 -0 -0 -0 0.0524411 -0 -0 -0 0.00432827)
(-0.0390814 0 -0 0 0.0535964 -0 -0 -0 -0.076541)
(0.134159 0 -0 0 -0.497297 -0 -0 -0 0.162448)
(0.54717 -0 -0 -0 -0.306056 -0 -0 -0 -0.42498)
(0.44824 0 0 0 -0.566245 0 0 0 0.113969)
(-0.79912 0 0 0 0.902276 0 0 0 0.00651731)
(-0.771142 0 0 0 1.25724 -0 0 -0 -0.097479)
(0.225599 -0 0 -0 -0.0163235 -0 0 -0 -0.01389)
(0.252022 0 0 0 -0.587932 -0 0 -0 0.303695)
(0.293772 -0 0 -0 -0.0502062 0 0 0 -0.185947)
(0.591105 -0 0 -0 0.614515 0 0 0 -1.19049)
(-0.331887 0 -0 0 0.364668 0 -0 0 -0.216482)
(-0.27447 -0 0 -0 -0.304904 0 0 0 0.397677)
(0.546974 0 0 0 0.0251361 -0 0 -0 -0.672519)
(-0.535558 0 0 0 1.11998 -0 0 -0 -0.533275)
(-0.40447 0 0 0 0.64481 -0 0 -0 0.219527)
(0.546888 0 0 0 -1.04922 0 0 0 0.758861)
(-0.0391534 0 0 0 -1.95859 0 0 0 1.8918)
(0.0646537 -0 0 -0 -0.751619 0 0 0 0.56642)
(0.106422 -0 0 -0 0.532218 0 0 0 -0.95473)
(-0.596576 -0 0 -0 -0.168222 0 0 0 0.523708)
(-0.340621 -0 0 -0 -0.244114 -0 0 -0 0.489564)
(0.0320937 -0 0 -0 0.847336 0 0 0 -0.391006)
(0.00892694 -0 -0 -0 0.508858 -0 -0 -0 -0.182522)
(-0.0441075 -0 -0 -0 -1.02906 -0 -0 -0 0.533714)
(-0.676232 -0 0 -0 -0.113657 -0 0 -0 0.257176)
(-0.309632 -0 0 -0 0.0307178 0 0 0 0.707646)
(0.530013 -0 0 -0 -1.47845 0 0 0 0.846039)
(0.338984 0 0 0 -0.626439 0 0 0 0.0392901)
(-0.0178458 0 0 0 0.786835 0 0 0 -0.426778)
(0.0572389 -0 0 -0 1.2198 -0 0 -0 -0.620467)
(0.64566 -0 0 -0 0.704476 -0 0 -0 -1.04525)
(0.915169 -0 0 -0 0.428173 -0 0 -0 -1.623)
(-0.196922 0 -0 0 1.15051 -0 -0 -0 -1.01739)
(-1.70562 0 -0 0 1.62071 -0 -0 -0 0.513469)
(-1.67278 -0 -0 -0 0.484591 0 -0 0 1.29485)
(-0.29766 0 0 0 -0.899129 0 0 0 1.16561)
(0.631743 0 0 0 -1.82227 0 0 0 1.02656)
(0.418377 -0 0 -0 -0.673588 -0 0 -0 0.165404)
(0.678528 -0 -0 -0 -0.750099 -0 -0 -0 0.0883012)
(1.01913 -0 0 -0 -1.89288 0 0 0 0.89126)
(0.264221 -0 0 -0 -0.85647 -0 0 -0 0.491784)
(-0.149136 -0 -0 -0 0.553911 -0 -0 -0 -0.522381)
(1.14643 -0 -0 -0 -0.68215 0 -0 0 -0.321875)
(0.856887 -0 0 -0 -1.57011 0 0 0 0.245105)
(-0.742538 -0 0 -0 -0.559002 -0 0 -0 0.941841)
(-0.90951 -0 0 -0 0.226506 0 0 0 0.569877)
(0.523136 -0 0 -0 -1.01748 0 0 0 0.305401)
(0.470696 0 0 0 -1.11328 0 0 0 0.345747)
(0.0776592 0 0 0 -0.407811 0 0 0 0.387472)
(0.429102 0 0 0 0.445896 0 0 0 -0.683389)
(-0.637921 0 0 0 1.08897 0 0 0 -0.543843)
(0.275025 -0 0 -0 -0.219391 0 0 0 0.121367)
(1.38807 0 0 0 -0.423711 0 0 0 -0.912653)
(-0.869261 -0 0 -0 0.977167 0 0 0 -0.731242)
(-0.0499274 -0 0 -0 -0.591312 0 0 0 0.336172)
(0.98878 0 0 0 -1.07638 0 0 0 0.0870209)
(-1.28064 0 0 0 -0.388828 0 0 0 1.28833)
(-0.870044 -0 0 -0 -0.039076 -0 0 -0 0.57345)
(0.385585 -0 0 -0 -0.136396 -0 0 -0 -0.283194)
(-0.34937 -0 0 -0 0.0847907 0 0 0 0.41722)
(-0.910542 0 0 0 0.578122 0 0 0 -0.202971)
(-1.07979 -0 0 -0 1.72995 -0 0 -0 -1.29949)
(-0.0804341 -0 0 -0 0.0641624 -0 0 -0 0.0855585)
(1.13829 -0 0 -0 -2.63828 -0 0 -0 1.07367)
(-0.096727 -0 -0 -0 -1.43433 -0 -0 -0 1.23727)
(-0.580583 0 0 0 0.139972 -0 0 -0 0.558134)
(0.500955 -0 0 -0 -0.308931 -0 0 -0 -0.388316)
(0.592958 -0 0 -0 -0.282622 -0 0 -0 -0.280939)
(-0.00638382 -0 0 -0 -0.476159 0 0 0 0.246829)
(-0.895119 0 0 0 0.458086 0 0 0 0.0675914)
(0.297056 -0 0 -0 -0.0470666 -0 0 -0 -0.551012)
(2.17193 -0 0 -0 -1.27098 0 0 0 -1.32055)
(0.315044 0 -0 0 0.150963 -0 -0 -0 -0.816477)
(-1.92092 -0 -0 -0 0.338933 -0 -0 -0 1.16285)
(-1.05115 0 -0 0 -0.644719 0 -0 0 1.42597)
(0.217366 0 -0 0 -0.916124 0 -0 0 1.23323)
(0.425656 0 0 0 -1.40516 0 0 0 1.30931)