/*--------------------------------*- C++ -*----------------------------------*\
  =========                 |
  \\      /  F ield         | OpenFOAM: The Open Source CFD Toolbox
   \\    /   O peration     | Website:  https://openfoam.org
    \\  /    A nd           | Version:  10
     \\/     M anipulation  |
\*---------------------------------------------------------------------------*/
FoamFile
{
    format      ascii;
    class       volVectorField;
    location    "5";
    object      U;
}
// * * * * * * * * * * * * * * * * * * * * * * * * * * * * * * * * * * * * * //

dimensions      [0 1 -1 0 0 0 0];

internalField   nonuniform List<vector> 
25600
(
(1.10313 0.0137309 -0.00381826)
(1.09435 0.0153778 0.00609525)
(1.09273 0.0131883 0.0174432)
(1.10274 0.00829382 0.0272288)
(1.11801 0.00330433 0.0324212)
(1.13155 0.00415469 0.0317459)
(1.14114 0.0107218 0.0262197)
(1.14505 0.0188999 0.0154154)
(1.14709 0.0195306 -0.00242507)
(1.14723 0.0118541 -0.0179468)
(1.13789 0.00268404 -0.0194851)
(1.12258 -0.00608438 -0.00519843)
(1.10895 -0.00822344 0.0160999)
(1.098 -0.00336606 0.0279369)
(1.10056 0.0048318 0.0262382)
(1.11975 0.0151858 0.0168911)
(1.13901 0.0210317 0.00853477)
(1.14528 0.0206096 0.00995831)
(1.13625 0.0134947 0.0159526)
(1.11312 0.00378346 0.0171113)
(1.09224 -0.00180594 0.00827121)
(1.08527 -0.00163784 -0.00888955)
(1.09014 0.00250505 -0.0229532)
(1.10403 0.00477009 -0.0257739)
(1.12389 -0.000799736 -0.0172595)
(1.13678 -0.0145319 -0.00676557)
(1.14712 -0.0262061 -0.00782452)
(1.14866 -0.0307229 -0.0227269)
(1.1506 -0.0231017 -0.0420006)
(1.15402 -0.0087145 -0.0522416)
(1.15828 0.00301416 -0.0441665)
(1.15573 0.00592086 -0.0212691)
(1.14806 -0.00622278 0.00426189)
(1.13565 -0.0286192 0.0175029)
(1.12354 -0.0489523 0.0143596)
(1.12555 -0.0511956 -5.5564e-05)
(1.13157 -0.0381808 -0.0166442)
(1.13373 -0.0202318 -0.0244998)
(1.13124 -0.00182269 -0.0209211)
(1.11809 0.0086049 -0.0127986)
(1.07908 0.00660975 -0.0197283)
(1.08544 -0.00585379 -0.0166508)
(1.10073 -0.0117161 -0.00663225)
(1.11564 -0.00712503 0.0077814)
(1.11162 0.00169189 0.021527)
(1.09361 0.00357767 0.0300263)
(1.07735 -0.00459072 0.0307102)
(1.07285 -0.0128743 0.0233947)
(1.08337 -0.0161489 0.0121709)
(1.09981 -0.0110715 0.00297429)
(1.10542 0.000294082 0.00032773)
(1.09802 0.00834718 0.00747549)
(1.09069 0.0186035 0.0185827)
(1.09335 0.0260477 0.0203154)
(1.11399 0.0252864 0.00672939)
(1.1456 0.0220482 -0.0210722)
(1.16396 0.012238 -0.0480539)
(1.16345 0.0026498 -0.0579733)
(1.15253 0.000166561 -0.0513324)
(1.13284 0.0059685 -0.0337573)
(1.11603 0.0190452 -0.018751)
(1.10928 0.0286064 -0.0107617)
(1.1115 0.0328512 -0.00297591)
(1.12164 0.034046 0.00686699)
(1.13174 0.0296645 0.0229856)
(1.13128 0.0262109 0.0360447)
(1.12576 0.0254118 0.0348725)
(1.11225 0.0231267 0.0191709)
(1.1093 0.0261332 -0.00726228)
(1.12069 0.0387323 -0.0308108)
(1.14433 0.0472257 -0.0397888)
(1.16704 0.0459856 -0.034553)
(1.17603 0.024038 -0.0198207)
(1.16414 -0.0117763 -0.00469521)
(1.13849 -0.0394154 0.0067979)
(1.11847 -0.0436312 0.0130942)
(1.10512 -0.0252004 0.0109443)
(1.10017 0.000585755 0.00311012)
(1.09547 0.0180194 -0.00646399)
(1.08354 0.0180199 -0.0156898)
(1.06173 -0.0160431 -0.00883353)
(1.071 -0.0105241 0.00489532)
(1.07219 -0.00452678 0.0143043)
(1.06812 0.00641508 0.0199218)
(1.06568 0.0153837 0.0226031)
(1.07087 0.0195564 0.022112)
(1.08372 0.0209973 0.0215631)
(1.10303 0.0214074 0.0217424)
(1.12014 0.0218219 0.0225053)
(1.12953 0.022163 0.0229408)
(1.1267 0.0194184 0.0214379)
(1.11538 0.0135085 0.0206477)
(1.11651 0.0119839 0.0156102)
(1.12543 0.00883221 -0.00384322)
(1.12937 0.00695047 -0.0337946)
(1.13289 0.00931439 -0.0649806)
(1.13603 0.0102059 -0.0803659)
(1.13885 0.0123347 -0.0712893)
(1.13719 0.0108293 -0.0486916)
(1.12672 0.00528715 -0.0262275)
(1.11722 0.00353972 -0.0137821)
(1.11795 0.00853837 -0.0114563)
(1.12576 0.0203133 -0.0102177)
(1.13261 0.0245067 -0.00344357)
(1.12428 0.0154768 0.0097555)
(1.10858 0.00194202 0.0221306)
(1.09153 -0.00817125 0.0296392)
(1.08446 -0.0117066 0.0300527)
(1.09058 -0.0052304 0.0181778)
(1.10314 0.00489637 -0.000179301)
(1.10854 0.00873 -0.00993453)
(1.11416 0.00818612 -0.00388752)
(1.11855 0.000608771 0.00764166)
(1.11111 -0.016263 0.0121664)
(1.09061 -0.0326332 0.00885586)
(1.05389 -0.0411573 0.000828322)
(1.02151 -0.0397667 -0.00960667)
(1.01001 -0.0314081 -0.0199728)
(1.01889 -0.0242271 -0.0253321)
(1.04121 -0.0214285 -0.0211201)
(0.944082 -0.0219286 0.00635302)
(0.954189 -0.0151559 0.0179079)
(0.964191 -0.00809552 0.0248709)
(0.983038 0.00155946 0.025298)
(1.0115 0.00471129 0.0211281)
(1.04623 0.00143013 0.0157006)
(1.07874 -0.00757373 0.01475)
(1.09986 -0.014671 0.0203872)
(1.11164 -0.00797916 0.0311193)
(1.12308 0.00294282 0.0413022)
(1.12894 0.000842483 0.0381054)
(1.13547 -0.00862542 0.0188134)
(1.14017 -0.00702053 -0.0137327)
(1.12484 0.00532155 -0.0557512)
(1.10633 0.0222641 -0.0926906)
(1.10354 0.0344931 -0.103003)
(1.11471 0.0342804 -0.0724265)
(1.1169 0.025417 -0.0223504)
(1.09374 0.00945234 0.00500226)
(1.0669 -0.000376738 -0.00640367)
(1.05647 0.00806404 -0.037433)
(1.07234 0.0257657 -0.0557476)
(1.09937 0.0398821 -0.0436326)
(1.10314 0.0348376 -0.0119094)
(1.07613 0.0148945 0.0109315)
(1.04492 -0.00413573 0.00885301)
(1.02352 -0.0198365 -0.00928989)
(1.02462 -0.0261396 -0.0213525)
(1.03907 -0.00783382 -0.0176311)
(1.04089 0.0269399 -0.00151036)
(1.02498 0.0467858 0.0164617)
(1.01475 0.0389996 0.0195073)
(1.00835 0.0140128 0.000332284)
(0.999485 -0.0184431 -0.0250486)
(0.977233 -0.0401845 -0.0376572)
(0.943672 -0.0521495 -0.0378158)
(0.917255 -0.0554161 -0.0302121)
(0.90617 -0.0515053 -0.0199544)
(0.913633 -0.0465969 -0.0116212)
(0.928573 -0.0360617 -0.00392547)
(0.9666 -0.0738354 -0.0215114)
(0.970194 -0.0656173 -0.0150841)
(0.974043 -0.0451858 -0.0118304)
(0.984606 -0.0187325 -0.0124185)
(1.00067 -0.000600126 -0.0105833)
(1.02233 0.0107355 -0.00327616)
(1.04662 0.00684837 0.0125974)
(1.0727 -0.00547067 0.0331943)
(1.10056 -0.00828434 0.0435421)
(1.1118 -0.00669454 0.0302729)
(1.09399 -0.0115715 -0.00516463)
(1.07385 -0.0164244 -0.043177)
(1.06131 -0.0174036 -0.0709693)
(1.06213 -0.0134464 -0.0827502)
(1.08364 0.00291794 -0.0743415)
(1.09491 0.0262371 -0.0486985)
(1.07951 0.0389793 -0.0120317)
(1.046 0.0307831 0.0194316)
(1.0268 0.00686895 0.0231089)
(1.04336 -0.0127256 -0.00261847)
(1.06815 -0.0134725 -0.0333803)
(1.0902 -0.000277427 -0.0452052)
(1.09659 0.0123602 -0.0279694)
(1.07842 0.0119441 -0.00453722)
(1.05691 0.00904694 -0.00596351)
(1.03521 0.00925575 -0.0284818)
(1.00678 -0.00659451 -0.0451519)
(0.981576 -0.0255541 -0.0370379)
(0.972489 -0.0243873 -0.015085)
(0.978292 -0.00586126 0.00504661)
(1.00431 0.00808136 0.0215974)
(1.03855 0.00994423 0.0208986)
(1.05644 0.00182534 -0.00223517)
(1.0512 -0.0132625 -0.0211823)
(1.01903 -0.0289835 -0.0164108)
(0.974128 -0.043368 -0.000694509)
(0.943293 -0.053818 0.00824303)
(0.93651 -0.0626932 0.000541406)
(0.944211 -0.0739256 -0.0155472)
(0.955793 -0.0785867 -0.0237733)
(0.983054 -0.0711034 -0.0385876)
(0.98219 -0.0649384 -0.0209249)
(0.999185 -0.0389028 -0.00948359)
(1.01691 -0.00710315 0.00421428)
(1.01584 0.0137142 0.00973955)
(1.01287 0.0122763 0.00725649)
(1.02169 -0.0194915 0.0144435)
(1.04156 -0.044907 0.0240367)
(1.0552 -0.0292335 0.0241777)
(1.02284 -0.00116561 0.00168357)
(0.974366 0.00389538 -0.0365672)
(0.957689 -0.002197 -0.0623713)
(0.981886 -0.00715659 -0.0637017)
(1.041 0.0021014 -0.0532837)
(1.09192 0.0296026 -0.0451007)
(1.08984 0.0516287 -0.033592)
(1.05566 0.0473004 -0.0116799)
(1.03172 0.0165445 0.0192732)
(1.03661 -0.0198221 0.0314784)
(1.07013 -0.0348395 0.00762046)
(1.10012 -0.0201637 -0.0219905)
(1.10294 0.0104324 -0.0224349)
(1.07428 0.0322299 0.00522633)
(1.04093 0.0281747 0.0239025)
(1.03421 0.0164026 0.00457582)
(1.03247 0.00344124 -0.0389842)
(1.03092 -0.0235422 -0.0702937)
(1.0395 -0.0480768 -0.0635363)
(1.04804 -0.0499491 -0.0260224)
(1.03669 -0.0283167 0.0272859)
(1.02562 0.0048224 0.0827487)
(1.03069 0.0278386 0.0963694)
(1.0588 0.0293906 0.0560713)
(1.09964 0.0176885 0.00752234)
(1.13202 0.0107494 -0.00399174)
(1.12635 0.00809424 0.0121844)
(1.09801 -0.00968263 0.0125858)
(1.07229 -0.041284 -0.0137115)
(1.04425 -0.0681344 -0.0390701)
(1.00896 -0.0741101 -0.0489298)
(0.956849 -0.0340454 -0.0157628)
(0.956983 -0.0342742 -0.00188072)
(0.98412 -0.0202125 0.000624465)
(1.02032 -0.002248 0.0139112)
(1.02697 0.00480987 0.0262589)
(1.01342 0.00491917 0.0397755)
(0.979511 0.000757769 0.0513387)
(0.94592 0.010557 0.0423686)
(0.926831 0.0404426 0.01272)
(0.906104 0.0462404 -0.0350678)
(0.914568 0.0137954 -0.0768994)
(0.948199 -0.0280204 -0.0916047)
(1.00081 -0.0533472 -0.0793169)
(1.07312 -0.0253908 -0.046792)
(1.10727 0.0290598 -0.00998943)
(1.08976 0.0563417 0.0115736)
(1.06223 0.0371517 0.0182041)
(1.04549 -0.00393075 0.0162122)
(1.05647 -0.0257824 0.00786237)
(1.08485 -0.0215852 -0.000274942)
(1.09966 0.0114747 -0.00184621)
(1.08097 0.0535284 -0.0035486)
(1.03602 0.0598216 -0.0107824)
(1.02061 0.0247771 -0.00684559)
(1.0424 -0.00583413 0.00354473)
(1.06233 -0.0144731 -0.00856896)
(1.07417 -0.0205426 -0.0312943)
(1.06769 -0.0230844 -0.0463492)
(1.06309 -0.0135001 -0.0438159)
(1.06237 0.000519152 -0.000859351)
(1.05319 0.00987524 0.057688)
(1.04902 0.0169219 0.0648739)
(1.06384 0.0165103 0.0314021)
(1.08358 0.0125074 0.0315369)
(1.09033 0.00934825 0.0672463)
(1.08266 0.00748328 0.0705296)
(1.0742 -0.00407822 0.0154777)
(1.05456 -0.0243466 -0.0525047)
(1.01562 -0.0405588 -0.0732519)
(0.976169 -0.0387328 -0.0497122)
(0.893592 -0.0138417 -0.0227591)
(0.884443 -0.0417105 -0.027544)
(0.908111 -0.0498525 -0.000837759)
(0.936809 -0.0381131 0.0474095)
(0.917369 -0.0101673 0.0604528)
(0.890156 0.0122702 0.0504047)
(0.876753 0.0161507 0.0326873)
(0.883784 0.0285439 0.00914474)
(0.906201 0.0413738 -0.0317928)
(0.911955 0.0203816 -0.0897259)
(0.942687 -0.0181876 -0.120266)
(0.987136 -0.0615592 -0.0897626)
(1.01262 -0.0937282 -0.0199399)
(1.04563 -0.0636936 0.0321734)
(1.0728 0.0188845 0.041578)
(1.11363 0.0710074 0.0380668)
(1.14773 0.0473465 0.047777)
(1.1228 -0.00888049 0.0517725)
(1.06712 -0.034313 0.0288769)
(1.01456 -0.0191319 -0.00100162)
(1.00539 0.0105758 -0.00865836)
(1.02899 0.041805 -0.0217284)
(1.02593 0.0515723 -0.041059)
(1.00614 0.0195175 -0.00898272)
(0.986799 -0.0259029 0.0430988)
(0.998666 -0.0682222 0.0410635)
(1.03883 -0.0835999 5.20724e-05)
(1.05493 -0.0479354 -0.0322709)
(1.07902 -0.0107937 -0.018574)
(1.10611 -0.017714 0.0452749)
(1.12172 -0.0382011 0.0707219)
(1.12044 -0.0261902 0.0184169)
(1.10221 0.00149066 -0.0120899)
(1.06776 0.00786075 0.0177386)
(1.04761 -0.0200247 0.0415162)
(1.06101 -0.0521435 0.0215842)
(1.04524 -0.0608487 -0.034085)
(0.991567 -0.04221 -0.0658965)
(0.949336 -0.010551 -0.0483004)
(0.916193 0.0056361 -0.0266498)
(0.92676 -0.0253172 0.0419168)
(0.910399 -0.0204075 -0.00659524)
(0.901081 -0.0109438 -0.0377775)
(0.883967 0.00830928 -0.0340673)
(0.830963 0.016873 -0.0263615)
(0.828406 0.00362688 -0.0135091)
(0.867198 -0.011487 -0.0201352)
(0.941979 0.00240278 -0.0399086)
(1.00987 0.0270518 -0.0669639)
(1.00123 0.017579 -0.0952431)
(1.01147 -0.027714 -0.080741)
(1.02329 -0.0865588 -0.00875689)
(0.969706 -0.107777 0.0564443)
(0.941504 -0.0605755 0.067037)
(0.991047 -0.00585193 0.0342907)
(1.07668 0.0201382 0.0192269)
(1.1152 0.0192708 0.0579233)
(1.11115 -0.00423964 0.082037)
(1.0568 -0.0201387 0.0315546)
(0.963034 -0.0308883 -0.063005)
(0.909713 -0.00723323 -0.137778)
(0.91748 0.0516053 -0.151056)
(0.934651 0.0638055 -0.110918)
(0.929122 0.0271432 -0.033373)
(0.912889 -0.0135469 0.0214774)
(0.904387 -0.0451899 0.0203801)
(0.934446 -0.057585 0.00942283)
(1.01004 -0.0586414 0.00449803)
(1.11469 -0.0557655 0.0314463)
(1.15661 -0.0350584 0.0718867)
(1.10211 -0.00264683 0.0613992)
(1.06861 0.0171763 0.0433166)
(1.0713 0.0158345 0.0590705)
(1.04885 -0.00343105 0.0435695)
(1.01656 -0.0329364 -0.00457176)
(0.981066 -0.0417651 -0.0383148)
(0.929179 -0.0334167 -0.0498887)
(0.926372 -0.038788 -0.0209994)
(0.948304 -0.0396734 0.0306917)
(0.936939 -0.0300995 0.0562626)
(0.954169 0.00965415 0.023826)
(0.935763 -0.0216256 0.0139106)
(0.901582 -0.0484091 -0.0153607)
(0.848287 -0.0409508 -0.0368085)
(0.823239 -0.02701 -0.0219433)
(0.855514 -0.0398121 0.00817697)
(0.925992 -0.0420052 0.0150959)
(1.00184 -0.00125075 -0.00123686)
(1.04039 0.0359789 -0.0573473)
(1.01856 0.00178779 -0.0963215)
(0.954929 -0.0431111 -0.0391618)
(0.891385 -0.0627973 0.0512855)
(0.87726 -0.0845889 0.0680375)
(0.922563 -0.0641595 0.02837)
(0.980158 -0.00366057 -0.00597782)
(0.992594 0.0455782 -0.00106481)
(0.987031 0.0397133 0.04088)
(1.00108 0.0217614 0.0603627)
(0.972934 0.0216648 0.0166219)
(0.9309 -0.0014481 -0.038014)
(0.924441 -0.00890234 -0.078531)
(0.959785 0.0322292 -0.106494)
(0.975158 0.0502615 -0.0983646)
(0.937755 0.0168118 -0.042817)
(0.901527 -0.0247336 0.0260128)
(0.854353 -0.0374859 0.0574331)
(0.85062 -0.0423236 0.044083)
(0.932861 -0.0529111 0.00356671)
(1.01468 -0.0332573 0.0213177)
(1.01741 0.00922686 0.0751309)
(0.999264 0.0255277 0.0582916)
(1.02921 0.0277884 0.032504)
(1.01913 0.046711 0.0250822)
(0.988956 0.0426125 -0.0104341)
(0.995454 -0.0053513 -0.0202998)
(0.992471 -0.0508772 0.00166952)
(0.997125 -0.0747018 0.0162675)
(1.03715 -0.0788305 0.0324824)
(1.03928 -0.0387165 0.0340941)
(0.992943 0.00987644 0.0224867)
(0.925463 -0.0250485 -0.00704014)
(0.88608 -0.00878784 -0.0236966)
(0.833476 -0.00235993 0.00682316)
(0.830963 0.0153196 0.0598589)
(0.875118 0.0163947 0.0785555)
(0.881729 -0.0273894 0.0443939)
(0.880607 -0.0458048 0.0065637)
(0.929016 0.00233778 -0.00361204)
(1.00696 0.0375588 -0.0499791)
(1.03346 0.0367795 -0.0941204)
(0.944578 0.0166397 -0.0450274)
(0.875627 -0.0757432 0.0450935)
(0.936533 -0.146488 0.0705145)
(1.0201 -0.108183 0.000234831)
(0.981043 -0.0362983 -0.0497072)
(0.893695 -0.00635815 -0.0158879)
(0.892772 -0.0198726 0.0196699)
(0.930048 -0.00966035 0.00538294)
(0.961071 0.0129953 -0.0179843)
(1.00004 0.00212539 -0.00734752)
(1.0338 -0.00642856 -0.00472809)
(1.01104 0.0158338 -0.0214616)
(0.908811 0.00716772 -0.0168403)
(0.862337 -0.0486608 0.0226)
(0.883201 -0.0850068 0.0718042)
(0.865457 -0.0725063 0.0559417)
(0.840108 -0.034335 0.00124245)
(0.87401 -0.00288257 -0.0100246)
(0.916968 0.0154546 0.0409445)
(0.921427 0.0161704 0.069088)
(0.945656 0.0111626 0.0365923)
(0.990378 0.0355056 0.0175077)
(0.994576 0.049689 -0.00173923)
(1.0081 -0.00200994 -0.0326367)
(1.03766 -0.0425746 -0.007972)
(1.04516 -0.0379303 0.0218523)
(1.03878 -0.0262247 0.00127502)
(0.984702 -0.0317762 -0.0159805)
(0.933644 -0.0409148 -0.00579396)
(0.932656 -0.0358867 0.00176911)
(0.909 0.0492743 0.00423618)
(0.907917 0.0298397 -0.0212671)
(0.868808 -0.0520154 0.00502057)
(0.855029 -0.0788342 0.0477615)
(0.861068 -0.0355996 0.038224)
(0.862001 -0.0164732 -0.0117581)
(0.884731 -0.0325755 -0.0244767)
(0.962104 -0.0217076 -0.00624809)
(1.03368 -0.0207364 -0.0260076)
(1.00122 -0.0163503 -0.0646392)
(0.916815 -0.0183585 -0.0593458)
(0.871182 -0.0781028 0.0107603)
(0.872276 -0.14208 0.08513)
(0.91918 -0.0950689 0.0548134)
(0.924485 -0.0102579 -0.0234237)
(0.886035 -0.000636544 -0.0361196)
(0.943918 -0.00292666 -0.00711799)
(1.05332 0.0442981 -0.04111)
(1.11951 0.0585496 -0.0785682)
(1.09545 0.0013102 -0.0231998)
(1.03049 -0.0258828 0.0230277)
(0.972118 0.00244739 -0.0125307)
(0.884042 -0.00849015 -0.0527318)
(0.907132 -0.0730365 -0.0103008)
(0.969809 -0.0656408 0.0672974)
(0.915771 -0.0112314 0.0509663)
(0.882539 -0.0189829 0.00670072)
(0.914612 -0.0432893 0.022806)
(0.927869 -0.037736 0.0570292)
(0.927804 -0.0195409 0.0324149)
(0.959495 0.00600245 0.0068259)
(0.978224 0.0175301 0.0074767)
(0.970947 -0.00551865 -0.0119375)
(0.967701 -0.0353737 -0.0132226)
(0.958614 -0.0401736 0.0363659)
(0.942797 -0.0341167 0.0428153)
(0.937177 -0.0327531 -0.0199161)
(0.935911 -0.031799 -0.0314848)
(0.906413 -0.0357257 0.0179749)
(0.886916 -0.00405595 0.0310964)
(0.885672 0.0222607 -0.0021488)
(0.908939 0.0219238 -0.0397348)
(0.826222 -0.0166493 -0.0190994)
(0.780704 -0.0202946 0.030472)
(0.830243 0.0136509 0.00734914)
(0.912756 0.0023767 -0.0412233)
(0.987898 -0.0458303 -0.0321803)
(1.01053 -0.0572976 -0.0200274)
(0.996404 -0.0319785 -0.0550568)
(0.996133 0.00520053 -0.0438487)
(1.01159 0.0242335 0.0163006)
(0.953208 -0.0545822 0.0197727)
(0.871833 -0.0903143 0.0311728)
(0.890049 -0.0514018 0.0278177)
(0.915437 0.00309025 -0.0181269)
(0.895971 0.00236691 0.0286976)
(0.928344 -0.0355185 0.0603219)
(1.07339 -0.0268806 0.00787449)
(1.18325 0.000622344 -0.0457297)
(1.10879 0.0173563 -0.00871422)
(0.994293 0.0256147 0.0221279)
(0.937534 0.0369227 -0.0543862)
(0.851129 -0.0146962 -0.109317)
(0.77957 -0.0704042 -0.0273482)
(0.738655 -0.038386 0.0232655)
(0.752378 -0.0136477 0.0307021)
(0.834168 -0.0188962 0.0496197)
(0.914428 -0.0201666 0.0479412)
(0.931111 0.00327532 0.0207238)
(0.938447 0.0329569 0.00803287)
(0.972507 0.0532887 0.000271546)
(0.953084 0.0414038 -0.00651362)
(0.87866 -0.0172776 -0.0325609)
(0.845984 -0.0536567 -0.0522972)
(0.922003 -0.0287506 -0.016441)
(0.993361 -0.0140953 0.0035592)
(0.983173 -0.0428719 -0.0131159)
(0.920158 -0.0417313 0.0196081)
(0.828092 -0.0184865 0.0516471)
(0.802683 0.00418628 0.0254227)
(0.890989 0.00844548 0.0308575)
(0.913328 0.0242406 -0.0294419)
(0.861083 -0.0347762 -0.0374568)
(0.819056 -0.070288 0.0105279)
(0.862807 -0.0315662 -0.0301998)
(0.916469 -0.00496402 -0.105317)
(0.972958 -0.0101853 -0.0960657)
(0.994322 -0.017938 -0.0695943)
(0.950914 -0.00377694 -0.0627621)
(0.913452 -0.0194942 -0.0339096)
(0.979993 -0.0103545 0.05893)
(0.976643 -0.0465389 0.101906)
(0.868539 -0.097304 0.0424827)
(0.81231 0.000703192 -0.0869907)
(0.880119 0.0754861 -0.0919247)
(0.935029 0.0469775 0.0474183)
(0.905108 -0.0133966 0.0164147)
(0.957093 -0.030253 -0.0740506)
(1.02392 -0.00180317 -0.0811989)
(0.983929 0.039577 -0.042822)
(0.928069 0.0486771 -0.00762315)
(0.887005 0.0320332 -0.0946968)
(0.860555 -0.00971111 -0.0995706)
(0.807149 -0.0465011 0.00378666)
(0.779703 -0.0426737 0.0148898)
(0.81351 -0.0461807 0.0125602)
(0.865685 -0.0807886 0.046104)
(0.918991 -0.0628461 0.0489309)
(0.945282 0.000127935 0.0323807)
(0.956081 0.0100214 0.0283494)
(0.991832 0.00582447 0.0197342)
(0.951571 0.0246383 -0.00992622)
(0.783486 0.0151975 -0.0761142)
(0.609516 -0.0251493 -0.123424)
(0.69983 -0.0237282 -0.0653523)
(0.86205 -0.00840877 -0.00610034)
(0.902635 -0.0183514 -0.0222341)
(0.886108 0.0093631 -0.00715725)
(0.866299 -0.00507282 0.0144308)
(0.874943 -0.0390578 0.0273769)
(0.908164 0.0116277 0.00943466)
(1.0196 0.0498156 0.0105182)
(1.0092 0.0160702 0.0343028)
(0.872232 -0.0304294 -0.0227459)
(0.847609 -0.0290572 -0.152964)
(0.909056 -0.0338205 -0.173982)
(0.896874 -0.0333796 -0.0847302)
(0.962679 -0.0219115 -0.0400107)
(1.01943 -0.0121103 -0.0662641)
(0.904914 -0.0012969 -0.0900981)
(0.956131 0.0308293 -0.0451494)
(1.0171 -0.0413943 0.00846203)
(0.85901 -0.083455 0.0881379)
(0.926864 -0.0114524 0.00994428)
(0.963831 0.0390127 -0.0503304)
(0.920906 0.0325228 0.0765985)
(0.974534 0.0245576 0.0488748)
(0.954622 -0.028335 -0.198163)
(0.864914 -0.0319749 -0.217841)
(0.876943 0.0135843 -0.0133412)
(0.86674 0.0450711 0.0948952)
(0.876488 0.0204232 -0.0448758)
(0.860787 0.00468339 -0.0903051)
(0.742915 -0.0481843 0.0591467)
(0.786448 -0.0738951 0.0911076)
(0.843846 -0.0740113 0.0556657)
(0.85907 -0.0525675 0.0384462)
(0.842706 -0.0324639 -0.000246443)
(0.867219 0.0119457 -0.0127294)
(0.96437 0.0528565 0.00381606)
(1.05516 0.0423957 0.0466985)
(0.948232 0.0553857 0.0151222)
(0.726252 0.0456931 -0.0856611)
(0.602417 -0.0595745 -0.0990864)
(0.652373 -0.0832787 -0.0925059)
(0.723576 -0.0307646 -0.0963114)
(0.731406 -0.0525503 -0.0989288)
(0.853043 -0.0354512 -0.0844691)
(0.940023 -0.0128761 -0.0941476)
(0.915632 -0.0248442 -0.0330918)
(0.841295 -0.00393499 -0.0434697)
(1.00631 -0.00256537 -0.0045369)
(1.03052 0.00920424 0.0534586)
(0.872751 -0.00548868 -0.0113162)
(0.839218 -0.0305904 -0.131285)
(0.968715 -0.0373577 -0.149272)
(0.93808 -0.0181738 -0.0655158)
(0.981 0.00932013 -0.0302385)
(1.02728 0.0151999 -0.0757407)
(0.856001 -0.0317535 -0.0415228)
(1.06263 -0.00707206 -0.0316512)
(1.14445 0.00617043 -0.0816951)
(0.901446 -0.0628281 0.0461383)
(1.1132 -0.0461786 0.153363)
(1.11305 -0.0217484 0.0163934)
(0.877873 0.0034658 0.0378713)
(0.920474 0.0135531 0.109709)
(0.949059 -0.0379571 -0.0460531)
(0.866952 -0.0181994 -0.147076)
(0.774231 0.0770551 -0.0377575)
(0.644391 0.0774331 -0.0396563)
(0.736917 -0.0165846 -0.174512)
(0.867626 -0.014336 -0.113998)
(0.733574 -0.0416388 0.0571518)
(0.74428 -0.116135 0.101136)
(0.819994 -0.083174 0.0574376)
(0.868775 -0.0449936 0.0552477)
(0.834977 -0.000872346 -0.022976)
(0.689986 0.0357238 -0.0695126)
(0.866464 0.0331788 0.00638209)
(1.12139 0.0624101 0.0304417)
(0.967081 0.106745 -0.0594181)
(0.750457 0.0463918 -0.0794755)
(0.741104 -0.0664681 0.0248833)
(0.784429 -0.118108 -0.00761209)
(0.829745 -0.0450994 -0.16503)
(0.718819 -0.0549697 -0.116666)
(0.749475 -0.0846629 -0.017893)
(0.83122 -0.0531212 -0.0766498)
(0.782469 -0.0125652 -0.0888553)
(0.823184 -0.0175918 0.033566)
(0.962692 -0.023806 0.0356824)
(0.951644 -0.0125445 0.00303957)
(0.797009 -0.0182959 0.024653)
(0.833684 -0.0732647 -0.0624479)
(0.959443 -0.0857257 -0.105239)
(1.02574 -0.0532415 -0.0527869)
(1.10689 -0.0028903 -0.0342836)
(1.04966 0.0382168 -0.0665487)
(0.889796 -0.011035 -0.0338979)
(1.07735 0.00714107 -0.0130345)
(0.934865 0.00719249 0.0799591)
(0.731594 -0.101682 0.144951)
(1.11039 -0.0625282 0.0574492)
(1.02298 0.0130641 0.00507806)
(0.718953 0.0291799 -0.0455221)
(0.816672 0.0186322 -0.0938405)
(0.869474 -0.0273939 -0.0316371)
(0.856969 -0.00985531 -0.031105)
(0.763199 0.0961352 -0.0312871)
(0.645034 0.0609483 -0.17798)
(0.577325 -0.0964925 -0.243441)
(0.783678 -0.0641114 -0.097194)
(0.790806 -0.0442475 0.0544284)
(0.71372 -0.0887281 0.00441897)
(0.735295 -0.0859592 0.0300539)
(0.829371 -0.074943 0.0699227)
(0.864042 -0.0110547 -0.0374804)
(0.7672 0.0154576 -0.0607679)
(0.931189 -0.00354971 0.0175583)
(1.09926 0.0469604 -0.0529002)
(0.924918 0.0772567 -0.100482)
(0.802362 0.0199381 -0.0163133)
(0.78958 -0.097714 0.0752918)
(0.773246 -0.148305 0.0268484)
(0.858801 -0.0636518 -0.17036)
(0.650642 -0.0526417 -0.110353)
(0.478613 -0.0644335 0.0694262)
(0.593084 -0.0533502 0.0921511)
(0.758538 -0.0488605 0.0189996)
(0.704736 0.00671499 0.137026)
(0.798456 -0.0113613 0.118893)
(0.841711 0.0236389 0.0359171)
(0.812471 0.00630153 -0.0673432)
(0.738093 -0.0783546 -0.137974)
(0.732513 -0.10728 -0.049851)
(0.78364 -0.0916391 0.0193184)
(0.970895 -0.0203043 -0.0222371)
(1.02634 0.0411078 -0.123698)
(0.884237 -0.0193967 -0.0415599)
(1.01843 0.00473617 0.0457315)
(0.908745 0.0813884 0.159464)
(0.663426 -0.0571998 0.129298)
(0.887295 -0.0462197 -0.110667)
(0.802542 0.0815753 -0.0902535)
(0.605531 0.0259686 -0.0994259)
(0.773253 -0.0811144 -0.0255769)
(0.883949 -0.0500324 -0.0361008)
(0.808998 0.0315757 -0.00364819)
(0.777983 0.145691 -0.0750582)
(0.822809 0.0569208 -0.203303)
(0.619569 -0.134795 -0.100789)
(0.67453 -0.0780425 -0.0198356)
(0.777708 -0.00746901 0.0213457)
(0.565381 -0.0350941 -0.00819484)
(0.723462 -0.0795418 -0.0258406)
(0.839261 -0.0276101 -0.0988461)
(0.773687 0.00457274 -0.129663)
(0.87441 -0.0169073 0.0212687)
(1.05436 -0.00721129 0.0621403)
(1.04072 0.0803172 -0.0483752)
(0.930428 0.0905993 -0.0762204)
(0.895907 0.0174625 -0.0675298)
(0.799388 -0.0820534 -0.0451825)
(0.635772 -0.135303 -0.0516135)
(0.797966 -0.0617104 -0.172672)
(0.838629 -0.0236903 -0.149803)
(0.637095 -0.0702702 -0.0155052)
(0.501135 -0.0601782 0.0520316)
(0.587035 -0.00788014 0.116355)
(0.787457 -0.053986 0.0900974)
(0.748761 -0.035559 0.0961633)
(0.739537 -0.00880863 -0.0387564)
(0.662869 -0.0127304 -0.199489)
(0.600687 -0.0559028 -0.0689124)
(0.598273 -0.0575453 0.00658504)
(0.601801 -0.0594322 -0.0104477)
(0.806101 -0.0304621 -0.0320731)
(0.925614 0.0556455 -0.0822418)
(0.833578 -0.0210994 -0.0623213)
(0.969518 0.00205947 0.0165402)
(0.884482 0.0583573 0.0800919)
(0.747511 -0.0878932 0.135004)
(0.839371 -0.0978217 0.0456735)
(0.675124 0.0809017 -0.137128)
(0.639516 0.0203624 -0.0811673)
(0.865356 -0.0853273 0.0843301)
(0.848462 -0.033071 -0.0758835)
(0.783891 0.0349496 -0.00836603)
(0.836454 0.147348 -0.00710483)
(0.989239 0.0324729 -0.137661)
(0.866711 -0.148388 -0.0488355)
(0.758307 -0.0816125 -0.0445475)
(0.654402 0.0173631 -0.0711035)
(0.495705 -0.0825788 0.105259)
(0.608027 -0.167753 0.0812037)
(0.826149 -0.0932817 -0.0254715)
(0.940554 -0.0180424 -0.129264)
(0.996755 0.000742979 -0.100095)
(1.03739 -0.0050808 0.0301726)
(1.02708 0.0287561 -0.0205424)
(1.02809 0.0690262 -0.16679)
(0.999727 0.00444117 -0.185897)
(0.861474 -0.0374434 -0.0749139)
(0.620715 -0.0700155 0.0101781)
(0.774237 -0.0785489 -0.188497)
(0.844063 -0.0175678 -0.232967)
(0.683621 -0.00989874 -0.0292429)
(0.573156 -0.0268667 -0.061825)
(0.653742 -0.0627014 0.00651802)
(0.742027 -0.0249182 -0.0114382)
(0.75263 0.00233445 -0.00555485)
(0.552824 0.00219902 -0.0451263)
(0.466722 -0.0105528 -0.0744907)
(0.723539 -0.0546975 0.00777665)
(0.788599 -0.101196 0.0149171)
(0.699112 -0.0941261 -0.0407552)
(0.767695 -0.0324605 0.00983352)
(0.795926 0.0710311 0.0253452)
(0.805671 -0.0145763 -0.148659)
(0.884354 -0.0160083 -0.0414414)
(0.900416 0.0541255 0.0585838)
(0.842481 -0.0656655 0.113237)
(0.830104 -0.0579874 0.104764)
(0.598781 0.136032 -0.149274)
(0.723174 0.0033861 0.0184643)
(0.82925 -0.0664247 -0.0346753)
(0.777103 0.0288944 -0.151275)
(0.780148 0.1035 -0.00991412)
(0.955123 0.141166 0.0690105)
(1.00506 0.018199 -0.148509)
(0.799166 -0.130824 -0.133479)
(0.75988 -0.0598365 -0.0570656)
(0.619496 0.0436325 0.0147949)
(0.688861 -0.0508703 0.101734)
(0.634733 -0.15967 -0.00429829)
(0.708634 -0.150406 -0.0410928)
(0.85605 -0.0554561 -0.0617959)
(0.89537 0.000515478 -0.0318186)
(0.902898 -0.00187219 0.114915)
(0.983175 0.0595252 0.0362591)
(1.05363 0.0789299 -0.185781)
(1.01541 -0.0104069 -0.131694)
(0.879161 -0.0137779 0.00155053)
(0.642906 -0.0426342 0.0733825)
(0.730856 -0.0692151 -0.0950842)
(0.802913 -0.0516037 -0.161137)
(0.711902 -0.00147418 0.0184015)
(0.75819 -0.0197355 0.0349194)
(0.727785 -0.0571126 -0.0102796)
(0.624181 -0.039683 -0.0206952)
(0.804046 -0.0186357 -0.0906644)
(0.488379 0.0309851 -0.107241)
(0.371775 0.000161367 0.000628982)
(0.759036 -0.0587533 0.0894978)
(0.706685 -0.0590552 0.0760458)
(0.5899 -0.0583486 -0.000531291)
(0.727366 -0.00328744 0.022941)
(0.840803 0.0513263 -0.00166208)
(0.84585 -0.0330015 -0.108469)
(0.973957 -0.0551427 -0.0338894)
(0.983531 0.0608301 0.0885326)
(0.850132 -0.0531412 0.0996957)
(0.737608 -0.020145 0.0903881)
(0.642105 0.106436 -0.00584147)
(0.78234 -0.0250157 0.0221162)
(0.807112 -0.0334681 -0.0735507)
(0.850041 0.00218138 -0.0513256)
(0.752283 0.105375 -0.0310214)
(0.813405 0.0939743 -0.0060265)
(0.974595 -0.00679184 -0.220874)
(0.749783 -0.0952317 -0.167031)
(0.75342 -0.0415376 0.0123739)
(0.698474 0.0180344 0.266504)
(0.885716 -0.0199842 0.134499)
(0.705338 -0.123257 -0.034372)
(0.542261 -0.13331 0.0037039)
(0.744993 -0.0399049 -0.0296243)
(0.832861 0.0253169 -0.0736109)
(0.769942 0.0224346 0.0724354)
(0.916094 0.0645659 0.0729676)
(1.04589 0.0399214 -0.159275)
(1.02226 -0.026296 -0.166148)
(0.899369 -0.00432216 0.0183351)
(0.660944 -0.0222416 0.0890173)
(0.803429 -0.0845747 -0.0265808)
(0.78586 -0.0441543 -0.0790849)
(0.724508 -0.0127227 0.0147398)
(0.800529 -0.0452602 0.110731)
(0.662933 -0.0421005 0.056598)
(0.480052 -0.032581 -0.0633595)
(0.486499 0.015979 -0.145607)
(0.343784 0.0500492 -0.096455)
(0.433816 -0.0383636 -0.0419468)
(0.731467 -0.0713891 0.0820696)
(0.634284 -0.0365689 0.0619189)
(0.42892 -0.062015 0.0111257)
(0.700954 -0.029169 0.0371705)
(0.987884 0.0510069 -0.0214165)
(0.705707 -0.012114 -0.0463492)
(0.830929 -0.048642 0.0842227)
(1.01604 0.0567484 0.0991259)
(0.881581 -0.0291841 0.088365)
(0.774817 -0.0169578 0.0762127)
(0.690781 0.0994709 0.0890592)
(0.784607 -0.0451596 -0.0182229)
(0.809829 -0.0709181 -0.0264307)
(0.846652 0.0254012 -0.00888793)
(0.76895 0.146882 -0.0798809)
(0.773939 0.0819581 -0.0445526)
(1.00068 -0.0710226 -0.164338)
(0.797801 -0.117985 -0.22606)
(0.812825 -0.0387717 0.0361208)
(0.777696 -0.032743 0.30527)
(0.815576 -0.0716767 0.156149)
(0.74214 -0.129142 -0.0242046)
(0.396204 -0.106776 0.187263)
(0.594205 -0.0292071 0.054579)
(0.696566 0.0315369 -0.0863473)
(0.582136 0.028517 0.089734)
(0.881652 0.0422829 0.0479929)
(1.0674 0.0281237 -0.163156)
(0.905585 -0.0126838 -0.152188)
(0.740438 0.0446492 0.0411528)
(0.687883 0.0154445 0.0643251)
(0.77483 -0.0904298 -0.048516)
(0.628042 -0.0305908 -0.0678828)
(0.755405 -0.0016548 0.0955647)
(0.862218 -0.00705929 0.151876)
(0.664705 -0.0563794 0.0734886)
(0.450207 -0.032881 -0.110027)
(0.384133 0.000512529 -0.167533)
(0.381131 0.0102502 -0.0936879)
(0.543497 -0.0421218 -0.0900803)
(0.666053 -0.0480644 0.0819205)
(0.717069 -0.06634 0.0299069)
(0.521847 -0.0681864 -0.0227729)
(0.734524 -0.0580774 0.0479617)
(0.983546 0.0308415 0.0353534)
(0.705403 -0.0110762 0.00598634)
(0.64277 -0.0797313 0.150037)
(0.896569 0.0357772 0.227295)
(0.900712 0.000790861 0.0782752)
(0.747264 0.0117955 0.00110421)
(0.72039 0.0980809 0.0346108)
(0.763895 -0.0497801 0.022603)
(0.752782 -0.0604492 -0.114136)
(0.806127 0.0463343 -0.143022)
(0.834728 0.116345 -0.0437074)
(0.927565 0.0461077 -0.141196)
(0.852242 -0.0961342 -0.146833)
(0.781754 -0.107439 -0.12167)
(0.835769 -0.0371203 0.102848)
(0.712322 -0.0294413 0.244334)
(0.599419 -0.0735365 0.0359202)
(0.711277 -0.0798049 -0.107338)
(0.318678 -0.0742768 0.122343)
(0.372964 -0.0117528 -0.0559574)
(0.627169 0.0215374 -0.17474)
(0.694 -0.0133239 0.0546239)
(0.81648 0.0264727 -0.00496544)
(0.92176 0.00799429 -0.164331)
(0.773539 -0.0040187 -0.125671)
(0.630624 0.0479824 0.0584031)
(0.745043 0.00154459 0.0989438)
(0.704325 -0.0522487 0.0295982)
(0.660926 -0.0314662 -0.0322442)
(0.906528 -0.0412203 0.138908)
(0.977745 -0.0400642 0.178119)
(0.652468 -0.0260671 0.00330385)
(0.384971 -0.0254923 -0.0676465)
(0.479425 -0.0201074 -0.0486629)
(0.455681 -0.0131068 -0.0356201)
(0.624391 -0.0627372 -0.0451613)