/*--------------------------------*- C++ -*----------------------------------*\
  =========                 |
  \\      /  F ield         | OpenFOAM: The Open Source CFD Toolbox
   \\    /   O peration     | Website:  https://openfoam.org
    \\  /    A nd           | Version:  10
     \\/     M anipulation  |
\*---------------------------------------------------------------------------*/
FoamFile
{
    format      ascii;
    class       surfaceScalarField;
    location    "5";
    object      phi_0;
}
// * * * * * * * * * * * * * * * * * * * * * * * * * * * * * * * * * * * * * //

dimensions      [0 3 -1 0 0 0 0];

internalField   nonuniform List<scalar> 
74080
(
0.00504521
-1.60031e-08
-5.01023e-08
0.00504518
2.24011e-09
2.62654e-08
0.00504518
2.98678e-08
4.87422e-08
0.0050452
-8.74028e-08
-5.50711e-08
0.00504523
-5.10682e-08
-2.85993e-08
0.0050452
3.5578e-08
6.65764e-08
0.00504521
-6.52762e-08
-2.00176e-08
0.00504522
-3.78808e-08
-3.76266e-08
0.00504525
2.97449e-08
1.62589e-08
0.00504522
-1.11545e-08
1.74467e-08
0.00504518
6.83054e-08
2.02267e-08
0.00504526
-2.01942e-08
-4.11878e-08
0.00504521
-5.67321e-08
-2.98823e-09
0.00504518
8.24751e-08
7.20787e-08
0.00504526
2.93143e-08
-1.98013e-08
0.00504519
-1.5772e-08
-2.70454e-08
0.00504519
2.48251e-09
5.08266e-08
0.00504526
-6.91998e-08
2.46991e-08
0.00504519
4.4735e-08
-2.42533e-08
0.0050452
8.07885e-08
3.22797e-08
0.00504523
-7.12249e-08
4.01762e-08
0.00504518
-8.59996e-10
-1.48419e-08
0.00504524
-9.28813e-09
3.72835e-08
0.00504521
-2.00605e-08
-8.87744e-09
0.00504519
2.43675e-08
2.92249e-08
0.00504522
3.37318e-08
6.29787e-08
0.00504517
3.71395e-08
-7.29471e-08
0.00504522
-5.85525e-08
5.16875e-08
0.00504522
-4.3996e-08
3.35169e-08
0.00504518
5.35524e-08
-4.09192e-08
0.00504523
-4.78569e-08
6.1938e-08
0.0050452
9.68857e-08
-2.91831e-08
0.00504518
2.02507e-08
5.10605e-09
0.00504518
-2.91907e-08
4.79903e-08
0.00504521
7.02831e-08
-5.4661e-08
0.00504522
-2.11363e-07
2.48929e-08
0.00504518
1.20157e-07
2.35933e-08
0.00504523
3.95754e-08
-5.11878e-08
0.00504519
-9.12069e-08
4.46584e-08
1.52326e-07
1.83547e-08
0.00458633
-5.06138e-08
-4.37314e-08
0.00458628
3.79608e-08
4.151e-08
0.00458632
3.8046e-09
5.57096e-08
0.00458628
-2.57225e-10
-1.11228e-07
0.00458631
-6.65127e-08
-2.66423e-09
0.00458628
5.20022e-08
8.58954e-08
0.00458628
-2.01974e-08
-7.1694e-08
0.00458627
-1.52135e-08
-1.28695e-08
0.00458629
8.30573e-09
1.65051e-08
0.00458629
-1.38929e-08
1.53315e-08
0.00458627
4.94923e-08
3.22674e-08
0.00458634
-4.92278e-08
-4.55086e-08
0.00458626
1.09243e-08
5.30595e-09
0.00458627
3.31387e-08
7.51373e-08
0.00458636
-3.96401e-08
-8.61921e-09
0.00458628
2.52235e-08
-3.82689e-08
0.00458629
6.23276e-09
6.90242e-08
0.00458631
-6.71187e-08
2.00366e-08
0.00458625
7.25096e-08
-4.32178e-08
0.00458634
-1.22666e-08
7.4e-08
0.00458632
-5.65099e-08
1.20246e-08
0.00458625
7.00942e-08
-6.81409e-09
0.00458634
-6.27192e-08
4.6171e-08
0.00458627
1.58519e-08
-4.67132e-08
0.00458627
2.69946e-08
8.39164e-08
0.00458634
-3.06647e-08
3.39395e-08
0.00458628
5.46627e-08
-8.87741e-08
0.00458632
-5.75826e-08
1.02521e-07
0.00458627
4.62116e-08
-1.74473e-08
0.00458627
1.53711e-08
-4.22267e-08
0.00458629
-7.22778e-08
7.90954e-08
0.00458629
1.28177e-07
-2.8738e-08
0.00458632
-6.60647e-08
1.22154e-08
0.00458627
3.64459e-08
2.09444e-08
0.00458634
2.96956e-08
-2.68964e-08
0.00458624
-9.44347e-08
2.72964e-09
0.00458624
1.24271e-07
-2.84947e-09
0.00458635
-7.59217e-08
-1.26799e-08
0.00458621
3.9657e-08
3.53735e-08
4.41172e-08
7.59178e-09
0.0041691
1.69769e-08
-1.31675e-08
0.0041691
4.79108e-08
3.15782e-08
0.00416915
-3.72057e-08
4.62732e-08
0.00416914
2.09038e-08
-1.08612e-07
0.00416914
-6.60374e-08
4.24896e-08
0.00416909
8.07697e-08
7.45069e-08
0.00416916
-5.58574e-08
-8.97512e-08
0.00416912
1.45997e-08
4.06107e-08
0.00416914
-1.85791e-08
4.08988e-09
0.00416912
1.68102e-08
7.04005e-09
0.00416911
3.94429e-08
2.75374e-08
0.00416917
-7.68839e-08
-3.92006e-08
0.0041691
5.56196e-08
2.30662e-08
0.00416913
5.85909e-09
4.60611e-08
0.00416916
-4.97749e-08
-1.85216e-08
0.0041691
4.67905e-08
-2.28663e-08
0.00416915
-2.95014e-09
7.66234e-08
0.00416914
-7.44818e-08
6.97646e-11
0.00416911
8.98751e-08
-3.00337e-08
0.00416919
-5.39852e-08
7.83067e-08
0.0041691
-1.63385e-08
-2.07439e-08
0.00416912
6.03818e-08
3.34147e-08
0.00416919
-9.9206e-08
4.07365e-08
0.00416909
6.82725e-08
-5.62074e-08
0.00416915
-9.76246e-09
1.20521e-07
0.00416915
-1.69204e-08
-3.57573e-08
0.0041691
6.38804e-08
-5.08165e-08
0.00416916
-8.04367e-08
1.29717e-07
0.00416913
8.53394e-08
-6.16779e-08
0.00416913
-2.01899e-08
-2.33414e-09
0.00416911
-3.16565e-08
5.79798e-08
0.00416914
1.06244e-07
-3.64794e-08
0.00416914
-8.64857e-08
1.69518e-08
0.00416908
1.14627e-07
-5.74755e-09
0.0041692
-7.26447e-08
-6.02128e-09
0.00416906
1.14934e-08
2.05404e-08
0.00416913
8.89456e-08
-3.65211e-08
0.00416917
-1.23616e-07
1.79117e-08
0.00416904
1.60083e-07
1.89941e-08
-7.99207e-08
-3.14662e-08
0.00378983
1.43105e-07
2.19891e-08
0.00378996
-4.58814e-08
6.28819e-09
0.00378991
4.59695e-10
3.37649e-08
0.00378994
1.47272e-08
-1.08206e-07
0.00378991
-4.46044e-08
8.87162e-08
0.00378987
1.05225e-07
2.30843e-08
0.00378997
-1.07393e-07
-8.52802e-08
0.00378988
7.11352e-08
8.68526e-08
0.00378993
-4.31189e-08
-4.02384e-08
0.00378991
4.44764e-08
2.95067e-08
0.00378991
8.63886e-10
2.28974e-08
0.00378993
-4.78756e-08
-3.89653e-08
0.0037899
4.8729e-08
4.37784e-08
0.00378994
-1.72466e-08
2.78195e-08
0.00378992
-2.66677e-08
-2.31925e-08
0.00378989
3.38584e-08
1.01666e-08
0.00378995
-5.094e-09
6.58319e-08
0.0037899
-6.65695e-08
-2.65154e-08
0.00378991
9.46781e-08
1.30385e-08
0.00378997
-9.46357e-08
7.24351e-08
0.00378986
4.27171e-08
-3.5739e-08
0.00378995
1.01932e-08
6.69602e-08
0.00378995
-8.93235e-08
2.05493e-08
0.00378988
9.96623e-08
-3.4987e-08
0.00378996
-5.37645e-08
1.18867e-07
0.00378992
1.33029e-08
-6.80293e-08
0.0037899
4.73638e-08
1.53233e-08
0.00378994
-7.3825e-08
9.28805e-08
0.00378992
9.94029e-08
-8.15632e-08
0.00378991
-3.92081e-08
4.67097e-08
0.00378988
2.29751e-08
1.35987e-08
0.00378995
4.55561e-08
-2.9576e-08
0.0037899
-6.49498e-08
3.70265e-08
0.0037899
1.51161e-07
-3.3272e-08
0.00378998
-1.49955e-07
6.91032e-09
0.00378981
1.5236e-07
1.97395e-08
0.00378998
-2.19866e-08
-5.24507e-08
0.00378989
-7.65365e-08
5.26745e-08
0.00378988
1.94261e-07
-2.05528e-08
-1.83362e-07
-2.92147e-08
0.00344511
2.19382e-07
2.95691e-08
0.00344529
-1.73908e-07
-2.40467e-08
0.00344515
1.0772e-07
4.60471e-08
0.00344525
-5.87417e-08
-1.08009e-07
0.00344515
3.3979e-08
1.25301e-07
0.00344519
6.83699e-08
-3.90784e-08
0.00344526
-1.3031e-07
-4.14721e-08
0.00344515
1.27065e-07
9.58417e-08
0.00344523
-8.11207e-08
-7.4647e-08
0.00344518
8.28169e-08
7.36973e-08
0.0034452
-3.86102e-08
-7.48628e-09
0.0034452
-1.2717e-09
-2.17559e-08
0.00344521
-2.92566e-10
5.1854e-08
0.00344522
1.51074e-08
4.99675e-09
0.00344519
-2.32431e-08
-1.67941e-08
0.00344519
2.52006e-08
3.69176e-08
0.00344525
-9.49159e-09
3.63649e-08
0.00344517
-5.73675e-08
-2.6838e-08
0.00344522
9.83779e-08
5.19987e-08
0.00344524
-1.1755e-07
4.23427e-08
0.00344514
9.76577e-08
-2.30433e-08
0.00344527
-7.5017e-08
8.16532e-08
0.0034452
-3.1995e-08
4.04901e-09
0.00344519
8.29428e-08
-3.72121e-09
0.00344524
-6.75346e-08
9.26675e-08
0.00344518
4.31969e-08
-6.28388e-08
0.00344519
2.8555e-08
5.32159e-08
0.00344524
-5.85669e-08
3.87995e-08
0.00344521
9.26476e-08
-5.27571e-08
0.00344518
-2.08124e-08
6.38795e-08
0.00344519
4.32031e-08
-1.93022e-08
0.00344524
-7.8581e-09
-8.30426e-09
0.00344516
-5.9018e-09
3.88891e-08
0.00344523
1.29545e-07
-5.40906e-08
0.00344521
-1.55044e-07
1.83263e-08
0.00344512
2.35384e-07
1.89574e-08
0.0034453
-1.52453e-07
-6.40873e-08
0.00344511
6.0475e-08
7.64632e-08
0.00344524
1.15994e-07
-6.98343e-08
-1.67242e-07
7.30088e-10
0.00313183
1.77508e-07
-2.73672e-09
0.00313191
-2.23859e-07
-2.92388e-08
0.00313178
2.03983e-07
5.64415e-08
0.00313192
-1.4742e-07
-1.20156e-07
0.00313176
1.46275e-07
1.56032e-07
0.00313189
-3.86166e-08
-9.67848e-08
0.00313186
-6.81747e-08
2.62552e-08
0.00313182
1.196e-07
6.46989e-08
0.00313188
-8.83462e-08
-7.18803e-08
0.0031318
1.17094e-07
1.0729e-07
0.00313185
-8.04387e-08
-4.83198e-08
0.00313185
3.74825e-08
1.73373e-08
0.00313186
-5.20355e-08
3.76606e-08
0.00313185
7.95118e-08
-6.01353e-09
0.00313183
-5.77261e-08
-2.43442e-09
0.00313183
5.77812e-08
4.75509e-08
0.0031319
-5.02257e-08
9.62788e-09
0.0031318
-1.57411e-08
-4.46155e-09
0.00313189
8.07701e-08
6.03908e-08
0.00313184
-1.20848e-07
1.96529e-08
0.0031318
1.27234e-07
7.51794e-09
0.00313192
-1.5671e-07
7.23514e-08
0.00313181
5.53213e-08
1.07663e-08
0.00313187
2.17394e-08
1.17516e-08
0.00313186
-2.76303e-08
6.74106e-08
0.00313183
3.28561e-08
-3.10429e-08
0.00313184
3.16075e-08
4.99323e-08
0.0031319
-6.05059e-08
1.63733e-08
0.00313183
1.08674e-07
-1.39401e-08
0.00313182
4.59472e-09
4.21633e-08
0.00313186
2.25954e-08
-2.08581e-08
0.00313186
-1.36299e-08
7.42909e-10
0.00313182
3.02622e-08
3.77149e-08
0.0031319
9.18273e-08
-7.039e-08
0.0031318
-9.75766e-08
3.69888e-08
0.00313181
2.42053e-07
1.03035e-08
0.00313192
-2.29404e-07
-6.67091e-08
0.00313174
1.98469e-07
9.25045e-08
0.00313194
-2.01224e-08
-1.2169e-07
-5.36499e-08
6.95946e-08
0.00284705
5.18456e-08
-8.22213e-08
0.002847
-1.66824e-07
6.01293e-09
0.00284697
2.06269e-07
5.0215e-08
0.00284705
-1.76933e-07
-1.1711e-07
0.00284691
2.26728e-07
1.7677e-07
0.00284707
-1.56023e-07
-1.36825e-07
0.00284697
4.49209e-08
9.26917e-08
0.00284702
3.91037e-08
6.98166e-09
0.002847
-2.53447e-08
-2.88474e-08
0.00284696
1.05066e-07
1.02159e-07
0.00284701
-1.01201e-07
-6.66522e-08
0.00284701
5.56415e-08
5.21639e-08
0.002847
-7.18693e-08
8.70889e-09
0.00284701
1.32898e-07
4.55934e-09
0.00284698
-8.97024e-08
-3.63307e-10
0.00284699
1.06157e-07
4.47172e-08
0.00284706
-1.21807e-07
-6.50486e-09
0.00284694
6.88784e-08
2.66348e-08
0.00284707
1.72927e-08
4.44942e-08
0.00284695
-7.11534e-08
2.59744e-08
0.002847
9.96821e-08
3.03298e-08
0.00284705
-1.9394e-07
5.58536e-08
0.00284697
1.27225e-07
2.66068e-08
0.00284704
-5.49307e-08
1.15605e-08
0.00284699
5.13946e-08
6.88489e-08
0.002847
-2.34129e-08
-7.10901e-09
0.002847
6.84087e-08
3.14095e-08
0.00284706
-9.34755e-08
2.83422e-08
0.00284695
1.7362e-07
-4.26487e-09
0.00284701
-1.6432e-08
2.36074e-08
0.002847
1.39319e-08
-1.42891e-09
0.002847
2.18253e-09
-8.97145e-09
0.002847
3.13738e-08
4.03734e-08
0.00284705
8.81799e-08
-8.8739e-08
0.00284693
-3.33448e-08
6.65808e-08
0.00284701
1.96847e-07
-1.72757e-08
0.00284703
-2.3983e-07
-5.76708e-08
0.00284692
2.8851e-07
9.38791e-08
0.0028471
-1.34259e-07
-1.53456e-07
9.23456e-08
1.39684e-07
0.00258815
-8.33639e-08
-1.58373e-07
0.00258801
-4.78522e-08
8.1941e-08
0.0025881
1.22895e-07
4.47881e-09
0.00258808
-1.22021e-07
-9.41737e-08
0.00258801
2.26748e-07
1.75842e-07
0.00258812
-2.11472e-07
-1.52564e-07
0.00258803
1.26081e-07
1.37883e-07
0.00258811
-5.23098e-08
-4.90502e-08
0.00258803
8.26838e-08
3.99538e-08
0.00258805
4.08044e-08
6.0093e-08
0.00258806
-7.86717e-08
-4.58742e-08
0.00258809
4.01828e-08
6.07191e-08
0.00258806
-4.70155e-08
-1.94865e-08
0.00258808
1.51016e-07
2.32849e-08
0.00258803
-8.87554e-08
-5.82103e-09
0.00258808
1.24065e-07
4.63969e-08
0.0025881
-1.72281e-07
-1.34587e-08
0.00258802
1.66645e-07
4.90196e-08
0.00258814
-7.31438e-08
1.93224e-08
0.00258798
2.60539e-08
5.68619e-08
0.00258812
-4.24962e-10
3.01073e-08
0.00258807
-1.5356e-07
5.11159e-08
0.00258807
1.34637e-07
4.56671e-08
0.00258809
-8.76307e-08
7.77037e-09
0.00258805
1.23247e-07
8.0894e-08
0.00258808
-9.93311e-08
-6.67236e-09
0.00258807
1.33381e-07
2.26602e-08
0.00258812
-1.42912e-07
4.58994e-08
0.00258799
2.75e-07
-1.65343e-08
0.00258811
-9.41103e-08
3.18519e-08
0.00258803
5.99332e-08
8.74358e-09
0.00258809
-2.26564e-08
-2.25663e-08
0.00258806
4.90329e-08
4.8405e-08
0.0025881
9.96228e-08
-1.01462e-07
0.002588
1.21047e-08
9.80471e-08
0.0025881
1.52823e-07
-5.91481e-08
0.00258806
-2.13654e-07
-2.35978e-08
0.00258803
3.2605e-07
7.04994e-08
0.00258813
-1.94984e-07
-1.57768e-07
1.98145e-07
1.84263e-07
0.00235276
-1.73448e-07
-2.04814e-07
0.00235262
6.46651e-08
1.46203e-07
0.00235276
7.55428e-09
-6.9631e-08
0.00235266
-8.2528e-09
-3.76048e-08
0.00235267
1.59134e-07
1.49317e-07
0.00235271
-1.98126e-07
-1.37771e-07
0.00235269
1.28945e-07
1.53128e-07
0.00235272
-8.62818e-08
-7.47623e-08
0.00235265
1.64657e-07
9.63416e-08
0.00235268
-3.96633e-08
4.54262e-09
0.00235268
-3.32948e-08
5.04233e-09
0.00235273
-4.17582e-09
3.68238e-08
0.00235267
1.34263e-08
-2.04692e-08
0.00235271
1.40162e-07
3.34297e-08
0.00235264
-5.49077e-08
-1.35569e-08
0.00235273
9.9192e-08
4.62647e-08
0.00235269
-1.67523e-07
-1.77853e-08
0.00235268
2.11883e-07
6.55389e-08
0.00235274
-1.26821e-07
2.44558e-09
0.0023526
1.20479e-07
8.92246e-08
0.00235277
-1.4039e-07
1.54063e-08
0.00235265
-5.81704e-08
6.58234e-08
0.00235275
6.48681e-08
5.07664e-08
0.00235267
-4.09926e-08
1.35064e-08
0.0023527
1.33497e-07
9.06743e-08
0.00235268
-1.3977e-07
-6.12595e-09
0.00235272
1.8499e-07
3.08284e-08
0.00235272
-1.82941e-07
4.73365e-08
0.00235263
3.75192e-07
-2.41391e-08
0.00235274
-1.88818e-07
5.14101e-08
0.00235263
1.42019e-07
-9.50134e-11
0.00235276
-1.08365e-07
-2.33633e-08
0.00235266
1.28178e-07
4.92242e-08
0.00235273
7.31584e-08
-1.03784e-07
0.00235261
7.27676e-08
1.15524e-07
0.00235274
9.22874e-08
-9.53597e-08
0.00235266
-1.70258e-07
2.09827e-08
0.00235269
3.28398e-07
2.90565e-08
0.00235272
-2.09846e-07
-1.2494e-07
2.56401e-07
1.87587e-07
0.00213876
-2.12549e-07
-2.05069e-07
0.00213867
1.25904e-07
1.83872e-07
0.00213881
-9.45302e-08
-1.19806e-07
0.00213867
1.13414e-07
2.88662e-08
0.00213874
6.14271e-08
1.01025e-07
0.00213871
-1.4668e-07
-9.2623e-08
0.00213876
6.95981e-08
1.42605e-07
0.00213873
-5.77565e-08
-7.05189e-08
0.0021387
1.83136e-07
1.28012e-07
0.00213871
-8.2247e-08
-2.05529e-08
0.00213872
-9.03262e-09
4.73605e-08
0.00213876
-5.1035e-08
4.98607e-09
0.00213871
7.93598e-08
2.28844e-09
0.00213875
1.21856e-07
1.89094e-08
0.00213867
-6.54097e-09
-9.21763e-09
0.00213878
5.77094e-08
4.11829e-08
0.0021387
-1.21263e-07
-1.36934e-08
0.00213876
1.96948e-07
6.92169e-08
0.00213872
-1.09936e-07
-5.73336e-09
0.00213867
1.51115e-07
1.16278e-07
0.00213879
-2.49732e-07
-1.16515e-09
0.00213868
3.42125e-08
9.07364e-08
0.00213882
-3.99375e-08
4.6568e-08
0.00213867
6.49283e-08
3.23296e-08
0.00213878
7.20649e-08
9.09597e-08
0.00213869
-1.1313e-07
1.6282e-09
0.00213879
1.81499e-07
3.68399e-08
0.00213873
-1.77839e-07
4.28639e-08
0.0021387
4.36109e-07
-1.75021e-08
0.00213874
-2.46409e-07
6.23824e-08
0.00213868
1.97796e-07
-9.31096e-09
0.00213881
-2.10686e-07
-1.31289e-08
0.00213868
2.40392e-07
4.66603e-08
0.0021388
-1.70882e-09
-9.56118e-08
0.00213862
1.88101e-07
1.17393e-07
0.00213879
-5.41787e-09
-1.09636e-07
0.00213867
-9.49464e-08
5.51025e-08
0.00213877
2.85973e-07
-1.93772e-08
0.00213871
-1.70436e-07
-7.59463e-08
2.67909e-07
1.5932e-07
0.00194422
-1.96136e-07
-1.77588e-07
0.00194422
1.18614e-07
1.85537e-07
0.0019443
-1.43452e-07
-1.36876e-07
0.00194418
1.95163e-07
8.17068e-08
0.00194424
-2.11976e-08
5.89953e-08
0.00194421
-1.04578e-07
-3.82469e-08
0.00194428
-1.20925e-08
1.13442e-07
0.00194422
4.63044e-10
-3.89976e-08
0.00194422
1.5729e-07
1.33965e-07
0.00194419
-7.82272e-08
-2.32308e-08
0.00194425
-3.39756e-08
7.15183e-08
0.00194426
-5.74388e-08
-2.37818e-08
0.00194423
1.22709e-07
2.21868e-08
0.00194424
1.29181e-07
-5.21419e-09
0.00194419
3.39513e-08
6.84579e-09
0.00194427
2.78747e-08
2.1255e-08
0.0019442
-7.71503e-08
1.48506e-09
0.00194429
1.51103e-07
6.52536e-08
0.00194418
-4.08123e-08
2.95998e-10
0.00194422
1.14018e-07
1.31395e-07
0.00194425
-2.95037e-07
-1.17423e-08
0.00194422
5.69147e-08
1.2209e-07
0.00194432
-1.17502e-07
3.68505e-08
0.00194417
1.67105e-07
5.95944e-08
0.0019443
-1.41941e-08
8.21521e-08
0.00194416
-4.22378e-08
2.32639e-08
0.00194433
1.15811e-07
3.67724e-08
0.0019442
-1.15877e-07
4.0069e-08
0.00194424
4.44625e-07
-1.07085e-09
0.00194419
-2.49767e-07
6.76397e-08
0.00194422
1.81595e-07
-7.69371e-09
0.00194429
-2.75544e-07
-4.56638e-09
0.00194419
3.25191e-07
4.58583e-08
0.00194431
-7.77382e-08
-8.12448e-08
0.00194411
3.2732e-07
1.10522e-07
0.00194431
-1.40427e-07
-1.04945e-07
0.00194416
1.52374e-08
7.15413e-08
0.00194431
2.01341e-07
-4.12664e-08
0.00194417
-6.98365e-08
-2.86362e-08
2.25974e-07
1.21436e-07
0.00176738
-1.20265e-07
-1.44354e-07
0.00176746
4.28187e-08
1.67551e-07
0.00176746
-1.3235e-07
-1.20678e-07
0.0017674
2.12435e-07
1.04581e-07
0.00176743
-5.61915e-08
3.90686e-08
0.00176741
-9.63028e-08
6.67595e-09
0.00176748
-8.80656e-08
8.78327e-08
0.00176743
4.45602e-08
2.65075e-09
0.00176742
1.28965e-07
1.22608e-07
0.00176738
-6.28882e-08
-5.39882e-09
0.00176746
-9.55244e-08
8.06595e-08
0.00176744
-3.18247e-08
-3.00398e-08
0.00176745
1.28329e-07
2.83246e-08
0.00176742
1.70324e-07
-1.83131e-08
0.00176739
4.28149e-08
2.91503e-08
0.00176745
2.72099e-08
2.49885e-09
0.00176742
-6.66607e-08
1.99166e-08
0.00176748
1.20189e-07
4.95898e-08
0.00176737
3.67296e-08
1.92334e-08
0.00176743
3.7378e-08
1.39078e-07
0.00176742
-3.02706e-07
-8.83261e-09
0.00176746
8.92224e-09
1.46057e-07
0.00176749
-1.45488e-07
3.70723e-08
0.00176739
2.18261e-07
9.06692e-08
0.00176749
-7.19439e-08
7.64607e-08
0.00176736
1.38727e-08
4.83144e-08
0.00176755
2.74991e-08
3.08595e-08
0.00176738
-2.82954e-08
5.4098e-08
0.00176747
4.07894e-07
2.17023e-08
0.00176735
-2.06917e-07
6.60903e-08
0.00176747
8.44223e-08
6.04733e-09
0.00176745
-2.80397e-07
1.68114e-09
0.00176744
3.35847e-07
5.39559e-08
0.00176747
-1.00647e-07
-6.88767e-08
0.00176732
4.39167e-07
1.04153e-07
0.0017675
-2.65507e-07
-8.49086e-08
0.00176736
1.1553e-07
7.34466e-08
0.00176753
1.01805e-07
-4.16668e-08
0.00176733
7.19742e-08
4.04104e-09
1.33414e-07
1.00693e-07
0.00160664
-1.35047e-08
-1.18587e-07
0.00160679
-8.45292e-08
1.56358e-07
0.00160671
-7.10269e-08
-8.65128e-08
0.00160671
1.60285e-07
1.10581e-07
0.00160668
-3.45224e-08
4.8931e-08
0.00160671
-1.48448e-07
3.20645e-08
0.00160676
-1.43817e-07
7.85272e-08
0.00160673
5.02942e-08
4.92926e-08
0.00160669
1.18947e-07
1.13534e-07
0.00160667
-8.08552e-08
3.54044e-08
0.00160675
-1.54154e-07
7.37546e-08
0.00160673
-2.03803e-08
-1.53666e-08
0.00160675
1.14851e-07
2.30312e-08
0.00160669
2.39436e-07
-1.66979e-08
0.00160668
2.44925e-08
3.78981e-08
0.00160672
5.06469e-08
-9.69429e-09
0.00160672
-9.42814e-08
3.69067e-08
0.00160675
1.071e-07
4.03789e-08
0.00160665
9.53091e-08
4.44703e-08
0.00160671
-3.98804e-08
1.3859e-07
0.00160669
-3.24411e-07
1.09478e-08
0.00160677
-8.5085e-08
1.66199e-07
0.00160675
-1.45571e-07
4.26498e-08
0.0016067
2.1617e-07
1.24546e-07
0.00160674
-8.04737e-08
7.39404e-08
0.00160667
1.70869e-08
7.85638e-08
0.00160683
-4.7653e-08
2.92707e-08
0.00160666
4.70323e-08
7.23613e-08
0.00160675
3.61669e-07
4.34782e-08
0.00160661
-1.60903e-07
7.4405e-08
0.00160679
-7.09925e-08
3.26867e-08
0.00160671
-2.4481e-07
3.1439e-09
0.00160677
2.75074e-07
7.21692e-08
0.00160671
-5.50628e-08
-5.70834e-08
0.00160664
4.84058e-07
1.04279e-07
0.00160676
-3.44285e-07
-6.04626e-08
0.00160668
1.68726e-07
7.48201e-08
0.0016068
3.1421e-08
-1.82748e-08
0.00160661
2.07804e-07
2.78884e-08
2.95351e-08
9.71132e-08
0.00146054
8.70279e-08
-1.0084e-07
0.0014607
-2.28528e-07
1.59401e-07
0.0014606
4.7125e-09
-5.63597e-08
0.00146064
5.79678e-08
1.1576e-07
0.00146056
3.05288e-08
8.16604e-08
0.00146064
-2.58321e-07
4.59046e-08
0.00146065
-1.85974e-07
8.75394e-08
0.00146065
3.42621e-09
8.48736e-08
0.00146057
1.29691e-07
1.15734e-07
0.00146059
-1.50564e-07
7.57607e-08
0.00146063
-1.8902e-07
6.9503e-08
0.00146066
-6.52348e-08
1.0449e-08
0.00146065
1.09579e-07
9.86276e-09
0.0014606
3.02352e-07
-2.62556e-09
0.00146059
-4.72954e-09
3.84801e-08
0.00146062
7.76279e-08
-3.50342e-09
0.00146064
-1.51506e-07
4.70244e-08
0.00146065
1.00617e-07
3.94325e-08
0.00146056
1.24848e-07
6.93201e-08
0.0014606
-1.17391e-07
1.46696e-07
0.0014606
-3.80846e-07
3.48767e-08
0.00146069
-1.99845e-07
1.84211e-07
0.00146065
-1.61817e-07
6.45782e-08
0.00146062
1.82616e-07
1.59991e-07
0.00146062
-6.67595e-08
8.59569e-08
0.0014606
-3.2193e-08
1.09701e-07
0.00146071
-1.00697e-07
3.65943e-08
0.00146059
6.82345e-08
1.03154e-07
0.00146064
3.29097e-07
6.82384e-08
0.00146051
-1.42533e-07
8.96428e-08
0.0014607
-2.56133e-07
6.44563e-08
0.0014606
-2.15176e-07
8.28915e-09
0.0014607
1.59428e-07
1.02422e-07
0.00146058
3.47094e-08
-4.65366e-08
0.00146057
4.75376e-07
1.12003e-07
0.00146063
-3.71646e-07
-2.57181e-08
0.00146062
1.47962e-07
8.13649e-08
0.00146067
1.13885e-08
1.34128e-08
0.00146053
2.94752e-07
4.57152e-08
-4.24791e-08
1.16396e-07
0.00132776
1.48527e-07
-8.44334e-08
0.00132788
-3.56005e-07
1.81059e-07
0.0013278
4.89513e-08
-2.54704e-08
0.00132784
-6.55345e-08
1.33967e-07
0.00132774
1.11268e-07
1.19159e-07
0.00132784
-4.10701e-07
5.62072e-08
0.00132784
-2.27837e-07
1.14529e-07
0.00132785
-8.7367e-08
1.15355e-07
0.00132775
1.37901e-07
1.34842e-07
0.0013278
-2.70913e-07
1.20592e-07
0.00132781
-2.03879e-07
7.22845e-08
0.00132788
-1.78288e-07
3.39745e-08
0.00132783
1.28374e-07
3.7278e-09
0.0013278
3.26632e-07
2.64174e-08
0.00132777
-3.01326e-08
3.69186e-08
0.00132782
8.33144e-08
1.64141e-08
0.00132783
-2.28068e-07
5.0286e-08
0.00132784
6.37116e-08
5.62651e-08
0.00132775
1.43358e-07
8.71348e-08
0.00132778
-2.15277e-07
1.6607e-07
0.00132781
-4.8168e-07
6.65985e-08
0.00132788
-3.43927e-07
2.12919e-07
0.00132785
-2.19757e-07
9.53478e-08
0.00132781
1.30448e-07
1.97085e-07
0.0013278
-5.70043e-08
1.08368e-07
0.00132781
-1.10263e-07
1.4712e-07
0.00132789
-1.56944e-07
5.50544e-08
0.0013278
4.00004e-08
1.34022e-07
0.00132781
3.04946e-07
1.08739e-07
0.00132771
-1.67855e-07
1.1879e-07
0.00132788
-4.49527e-07
1.08985e-07
0.00132781
-2.2893e-07
1.63851e-08
0.0013279
1.50405e-08
1.42173e-07
0.00132776
1.28331e-07
-3.28402e-08
0.00132779
4.37939e-07
1.31619e-07
0.00132779
-3.62166e-07
1.25334e-08
0.00132785
6.65471e-08
1.03104e-07
0.00132783
3.95937e-08
5.64886e-08
0.00132776
3.08471e-07
6.86483e-08
-5.28752e-08
1.4992e-07
0.001207
1.62602e-07
-4.43716e-08
0.00120708
-4.60031e-07
2.10325e-07
0.00120705
2.91704e-08
-1.03274e-08
0.00120704
-1.92345e-07
1.66612e-07
0.00120696
1.69244e-07
1.79964e-07
0.00120706
-5.76416e-07
8.86194e-08
0.00120707
-3.13478e-07
1.44512e-07
0.00120708
-2.19559e-07
1.34239e-07
0.00120696
1.15344e-07
1.69493e-07
0.00120702
-4.3073e-07
1.84475e-07
0.00120703
-2.23223e-07
1.04047e-07
0.00120712
-3.56074e-07
6.16364e-08
0.00120703
1.52514e-07
-1.39393e-08
0.00120703
2.94056e-07
5.93831e-08
0.00120696
-5.17195e-08
6.52527e-08
0.00120705
4.92353e-08
6.46725e-08
0.00120704
-3.13949e-07
5.23273e-08
0.00120706
-3.7073e-08
7.36004e-08
0.00120696
1.52388e-07
1.05076e-07
0.00120699
-3.68719e-07
2.25241e-07
0.00120703
-6.0699e-07
1.14851e-07
0.0012071
-5.44946e-07
2.54485e-07
0.00120707
-3.33449e-07
1.27544e-07
0.00120703
4.49168e-08
2.45274e-07
0.00120701
-7.00555e-08
1.64399e-07
0.00120703
-2.11039e-07
2.05506e-07
0.0012071
-2.53026e-07
8.9345e-08
0.00120703
-4.05911e-08
1.65587e-07
0.00120701
2.59859e-07
1.63085e-07
0.00120694
-2.4618e-07
1.7318e-07
0.00120709
-6.59653e-07
1.82943e-07
0.00120705
-3.13228e-07
3.04267e-08
0.00120712
-1.62478e-07
1.79206e-07
0.00120697
1.91976e-07
-1.41959e-08
0.00120701
4.01452e-07
1.80732e-07
0.001207
-3.46287e-07
7.11678e-08
0.00120709
-6.9854e-08
1.36555e-07
0.00120703
7.37418e-08
9.38728e-08
0.00120701
2.64416e-07
1.00724e-07
-1.05538e-08
2.16192e-07
0.00109627
1.16291e-07
1.12856e-07
0.00109631
-5.79052e-07
1.85128e-07
0.0010963
-6.51312e-08
-1.19368e-07
0.00109621
-3.36709e-07
2.37495e-07
0.00109619
1.47151e-07
3.94032e-07
0.00109628
-7.48348e-07
2.14611e-07
0.00109629
-4.70637e-07
1.1401e-07
0.00109624
-3.90753e-07
6.20403e-08
0.0010961
4.15916e-09
2.59521e-07
0.00109614
-6.31526e-07
4.19821e-07
0.0010962
-2.87991e-07
2.49728e-07
0.00109627
-5.85814e-07
3.98928e-08
0.00109617
1.12405e-07
-1.46163e-07
0.00109617
1.8456e-07
1.13223e-07
0.00109609
-1.2786e-07
2.79242e-07
0.00109623
-5.57066e-08
2.36476e-07
0.00109619
-4.38708e-07
1.87407e-08
0.0010962
-2.37086e-07
3.24495e-09
0.00109609
1.02698e-07
1.61096e-07
0.00109615
-6.12147e-07
4.57253e-07
0.0010962
-7.63613e-07
2.68024e-07
0.00109627
-8.47329e-07
2.51597e-07
0.00109621
-5.1288e-07
4.8979e-08
0.00109616
-1.27103e-07
3.34258e-07
0.00109616
-1.40419e-07
3.92078e-07
0.00109622
-3.50297e-07
3.83869e-07
0.00109628
-4.28952e-07
9.35322e-08
0.00109622
-1.97198e-07
1.12784e-07
0.00109617
1.28598e-07
2.76441e-07
0.00109612
-3.95422e-07
3.99376e-07
0.00109623
-8.90559e-07
3.85125e-07
0.00109622
-4.78881e-07
-3.16029e-08
0.00109621
-3.89822e-07
9.93351e-08
0.00109609
1.63481e-07
5.49882e-08
0.00109614
3.24703e-07
3.9828e-07
0.00109617
-3.68757e-07
2.30842e-07
0.00109627
-2.6923e-07
1.40782e-07
0.00109619
5.86318e-08
3.83966e-08
0.00109618
1.47721e-07
1.82944e-07
6.56476e-09
4.57539e-07
0.000988128
-3.17921e-08
2.79607e-07
0.000988116
-7.2091e-07
-3.22232e-07
0.000988021
-2.26007e-07
-5.13627e-07
0.000987799
-5.56763e-07
6.09111e-07
0.000987966
-2.3376e-08
1.01078e-06
0.000988058
-9.24812e-07
3.12642e-07
0.000987885
-6.00815e-07
-3.62074e-07
0.000987631
-6.01362e-07
-1.95934e-07
0.000987422
-2.59817e-07
7.02036e-07
0.000987508
-8.53178e-07
1.11973e-06
0.000987686
-4.58425e-07
4.27038e-07
0.000987585
-7.77906e-07
-4.74398e-07
0.000987491
-7.55957e-08
-5.60954e-07
0.000987518
-9.65262e-08
4.80773e-07
0.000987494
-3.18828e-07
1.02779e-06
0.000987738
-2.87642e-07
4.73545e-07
0.000987598
-5.89478e-07
-4.1422e-07
0.000987515
-5.33466e-07
-3.34263e-07
0.000987531
-1.67442e-07
5.65449e-07
0.00098767
-9.2847e-07
1.14203e-06
0.000987755
-9.60407e-07
4.36003e-07
0.000987701
-1.12193e-06
-1.89906e-07
0.000987527
-7.42208e-07
-2.97502e-07
0.000987528
-4.37667e-07
7.37772e-07
0.000987678
-3.39466e-07
1.10317e-06
0.000987805
-5.72558e-07
6.27067e-07
0.000987804
-6.23371e-07
-2.9067e-07
0.000987688
-4.5036e-07
-1.37117e-07
0.000987638
-1.69072e-07
6.8638e-07
0.000987647
-6.19912e-07
1.07975e-06
0.000987631
-1.13369e-06
6.02166e-07
0.000987535
-6.63455e-07
-6.60569e-07
0.000987364
-6.50051e-07
-2.73638e-07
0.000987289
-7.84608e-08
4.48634e-07
0.000987558
8.58218e-08
1.06631e-06
0.000987688
-5.17357e-07
4.07929e-07
0.000987722
-4.81912e-07
-2.1465e-07
0.000987636
-7.23107e-08
-2.82898e-07
0.00098767
-1.02578e-07
6.11686e-07
-1.36582e-07
1.16133e-06
0.000871873
-1.74771e-07
-5.48627e-07
0.000871708
-8.56364e-07
-1.07881e-06
0.000871485
-4.27654e-07
-2.96952e-07
0.000871348
-7.68295e-07
1.33298e-06
0.000871686
-1.51322e-07
1.04122e-06
0.000871497
-9.86756e-07
-4.3369e-07
0.000871029
-7.62273e-07
-8.88808e-07
0.000870726
-8.64523e-07
2.12015e-07
0.000870604
-5.33519e-07
1.53271e-06
0.00087081
-9.84344e-07
1.30449e-06
0.000870915
-5.6569e-07
-3.37685e-07
0.000870598
-9.80987e-07
-1.21112e-06
0.000870652
-3.56863e-07
-3.28663e-07
0.000870768
-4.08187e-07
1.3676e-06
0.000870857
-5.13857e-07
1.34814e-06
0.000871083
-4.66406e-07
-2.14922e-07
0.000870768
-7.8007e-07
-1.05262e-06
0.000870765
-8.48912e-07
-1.4741e-07
0.000871024
-4.58936e-07
1.37826e-06
0.000871136
-1.0947e-06
1.27628e-06
0.00087112
-1.03357e-06
-2.53786e-07
0.000870855
-1.295e-06
-8.3907e-07
0.000870721
-9.82729e-07
-1.06764e-08
0.000870922
-7.09076e-07
1.57409e-06
0.000871213
-4.93893e-07
1.33605e-06
0.000871227
-7.42186e-07
5.90224e-08
0.000871067
-7.99296e-07
-8.77881e-07
0.000870934
-7.26858e-07
1.76284e-07
0.000870941
-4.7799e-07
1.38982e-06
0.000870932
-7.93668e-07
1.24068e-06
0.000870683
-1.24747e-06
-2.80413e-07
0.000870472
-8.64228e-07
-1.54176e-06
0.000870268
-9.27582e-07
3.48454e-08
0.000870493
-3.97936e-07
1.16744e-06
0.000870995
-1.49091e-07
1.24651e-06
0.000871055
-6.34671e-07
-1.99969e-07
0.000870991
-6.65728e-07
-7.29579e-07
0.000871027
-2.69835e-07
-1.00883e-07
0.000871285
-3.4242e-07
1.4783e-06
-2.76775e-07
1.23952e-06
0.000751495
-3.3071e-07
-1.27729e-06
0.000751265
-9.55309e-07
-6.68653e-07
0.000751096
-5.72506e-07
4.40501e-07
0.000751154
-8.00949e-07
1.12267e-06
0.000751301
-1.75324e-07
-1.27991e-08
0.000750727
-1.09569e-06
-9.20754e-07
0.000750324
-9.73253e-07
-2.5542e-07
0.000750229
-1.01666e-06
9.70102e-07
0.000750258
-6.31891e-07
1.36046e-06
0.000750423
-9.7052e-07
1.77062e-07
0.000750294
-6.80355e-07
-1.07261e-06
0.000750051
-1.15841e-06
-7.78742e-07
0.000750347
-5.28703e-07
5.52433e-07
0.000750483
-5.62107e-07
1.33388e-06
0.000750593
-5.74705e-07
2.47516e-07
0.00075065
-5.7396e-07
-9.97776e-07
0.000750363
-9.35316e-07
-7.20008e-07
0.000750625
-9.53253e-07
5.55381e-07
0.00075089
-5.41737e-07
1.28284e-06
0.000750787
-1.08531e-06
2.33075e-07
0.00075062
-1.05086e-06
-7.74536e-07
0.000750354
-1.40694e-06
-3.20484e-07
0.000750468
-1.0567e-06
8.2422e-07
0.000750781
-7.62131e-07
1.48279e-06
0.000750921
-5.3167e-07
3.53812e-07
0.000750691
-8.47981e-07
-5.76221e-07
0.00075051
-9.37343e-07
-5.23908e-07
0.000750463
-8.91628e-07
8.27011e-07
0.000750473
-6.31648e-07
1.09533e-06
0.000750315
-8.56985e-07
8.9937e-08
0.000749935
-1.3224e-06
-1.25291e-06
0.00074984
-1.03234e-06
-1.06176e-06
0.000749892
-1.06502e-06
8.66575e-07
0.000750403
-5.1687e-07
9.11491e-07
0.000750782
-2.31276e-07
3.70628e-07
0.000750661
-7.21701e-07
-7.11594e-07
0.000750695
-7.7971e-07
-3.3589e-07
0.000750972
-3.58003e-07
5.20491e-07
0.000751367
-3.94057e-07
1.3391e-06
-2.96006e-07
-1.2075e-07
0.000635197
-4.62848e-07
-8.67818e-07
0.000635052
-9.31788e-07
-1.2048e-08
0.000634966
-5.74332e-07
4.24445e-07
0.000635027
-7.04424e-07
2.85643e-07
0.000634861
-2.84694e-07
-5.4996e-07
0.000634243
-1.20904e-06
-4.44402e-07
0.000634127
-9.67051e-07
4.09233e-07
0.000634156
-9.71742e-07
8.41809e-07
0.000634203
-6.06735e-07
4.23592e-07
0.000634234
-9.27709e-07
-5.95617e-07
0.000634045
-7.87071e-07
-7.73325e-07
0.000634045
-1.18135e-06
-4.13752e-08
0.000634426
-5.17405e-07
5.82044e-07
0.000634493
-5.6953e-07
3.71597e-07
0.000634572
-5.68849e-07
-6.10315e-07
0.000634539
-6.233e-07
-8.34959e-07
0.00063444
-9.42398e-07
-8.55051e-08
0.000634789
-8.34396e-07
6.29204e-07
0.000634843
-5.26935e-07
5.27807e-07
0.000634601
-1.04985e-06
-3.24425e-07
0.000634435
-1.04099e-06
-3.16338e-07
0.000634322
-1.31877e-06
3.26044e-07
0.000634575
-9.4461e-07
8.42562e-07
0.000634762
-7.04986e-07
5.97179e-07
0.00063467
-5.72524e-07
-3.32908e-07
0.000634365
-9.26525e-07
-4.09906e-07