/*--------------------------------*- C++ -*----------------------------------*\
  =========                 |
  \\      /  F ield         | OpenFOAM: The Open Source CFD Toolbox
   \\    /   O peration     | Website:  https://openfoam.org
    \\  /    A nd           | Version:  10
     \\/     M anipulation  |
\*---------------------------------------------------------------------------*/
FoamFile
{
    format      ascii;
    class       volScalarField;
    location    "5";
    object      pMean;
}
// * * * * * * * * * * * * * * * * * * * * * * * * * * * * * * * * * * * * * //

dimensions      [0 2 -2 0 0 0 0];

internalField   nonuniform List<scalar> 
25600
(
-1.3382e-06
-1.61065e-06
-1.5861e-06
-1.23467e-06
-1.15108e-06
-1.37952e-06
-1.21601e-06
-7.87372e-07
-6.82785e-07
-9.48405e-07
-7.18728e-07
-3.16291e-07
-5.24225e-07
-2.03223e-07
7.17116e-08
-3.12063e-07
-6.60261e-08
1.75175e-08
-3.74794e-07
-1.71741e-07
-3.26852e-07
-6.6492e-07
-5.33114e-07
-7.69834e-07
-8.80603e-07
-8.70736e-07
-9.61551e-07
-1.02832e-06
-1.38602e-06
-1.15034e-06
-9.61328e-07
-1.4759e-06
-1.50664e-06
-1.23041e-06
-1.24881e-06
-1.58406e-06
-1.56783e-06
-1.39816e-06
-1.61933e-06
-1.45602e-06
-1.60987e-06
-1.97801e-06
-1.41123e-06
-1.23702e-06
-1.48e-06
-1.47969e-06
-1.14022e-06
-8.5954e-07
-7.47138e-07
-1.09271e-06
-7.43793e-07
-1.93033e-07
-5.68621e-07
-8.5216e-08
2.95993e-07
-2.62146e-07
-1.29715e-08
1.15236e-07
-1.54841e-07
-7.09669e-08
-5.27586e-07
-5.83225e-07
-3.76085e-07
-8.49591e-07
-8.61659e-07
-8.76601e-07
-9.65249e-07
-9.00572e-07
-1.29504e-06
-1.18378e-06
-1.04605e-06
-1.23321e-06
-1.36382e-06
-1.22255e-06
-1.05207e-06
-1.70876e-06
-1.43689e-06
-1.3415e-06
-2.00547e-06
-1.4727e-06
-1.94402e-06
-1.94664e-06
-1.34003e-06
-1.46169e-06
-1.83674e-06
-1.58113e-06
-1.03498e-06
-1.06594e-06
-9.88201e-07
-1.17491e-06
-7.03348e-07
-2.60178e-07
-4.67498e-07
1.25138e-07
2.50186e-07
-1.15822e-07
1.93229e-07
1.22071e-07
5.84696e-08
-5.59538e-08
-7.36957e-07
-4.16847e-07
-4.14092e-07
-9.61816e-07
-7.72512e-07
-9.83053e-07
-9.935e-07
-8.44119e-07
-1.18496e-06
-1.21077e-06
-1.15503e-06
-9.58656e-07
-1.24223e-06
-1.13527e-06
-9.69269e-07
-1.80174e-06
-1.16599e-06
-1.36037e-06
-1.95084e-06
-1.30844e-06
-2.31547e-06
-1.73973e-06
-1.60963e-06
-1.72257e-06
-2.06661e-06
-1.50728e-06
-1.0085e-06
-1.40448e-06
-1.16677e-06
-1.18929e-06
-7.06636e-07
-3.43723e-07
-2.13359e-07
2.47832e-07
1.66591e-07
1.84761e-07
4.16523e-07
1.12296e-07
2.39977e-07
-1.41518e-07
-8.34425e-07
-2.41019e-07
-6.21347e-07
-9.71108e-07
-7.09391e-07
-1.1045e-06
-9.3567e-07
-7.80673e-07
-1.08993e-06
-1.25558e-06
-1.11804e-06
-7.08457e-07
-1.15833e-06
-9.08022e-07
-1.01668e-06
-1.72803e-06
-8.71216e-07
-1.61424e-06
-1.77167e-06
-1.55742e-06
-2.2741e-06
-1.62599e-06
-2.02106e-06
-1.81807e-06
-2.2015e-06
-1.3323e-06
-1.25943e-06
-1.7222e-06
-1.25142e-06
-1.31756e-06
-7.27137e-07
-2.90095e-07
1.49468e-08
2.69998e-07
2.51931e-07
5.29557e-07
6.09385e-07
1.20149e-07
3.43956e-07
-2.94777e-07
-8.03509e-07
-2.04537e-07
-9.39432e-07
-9.03877e-07
-7.81541e-07
-1.17853e-06
-8.33564e-07
-7.67596e-07
-1.09937e-06
-1.25031e-06
-9.1205e-07
-5.97334e-07
-1.02687e-06
-6.28679e-07
-1.15416e-06
-1.40263e-06
-7.40185e-07
-1.8554e-06
-1.51617e-06
-2.01042e-06
-1.99387e-06
-1.9398e-06
-2.31317e-06
-1.84491e-06
-2.25961e-06
-1.22514e-06
-1.76286e-06
-1.85054e-06
-1.41303e-06
-1.47253e-06
-6.45373e-07
-2.13276e-07
8.88794e-08
3.65213e-07
5.12906e-07
8.3529e-07
7.82807e-07
1.16736e-07
4.19512e-07
-4.88504e-07
-7.16426e-07
-3.97815e-07
-1.22654e-06
-8.27674e-07
-9.66585e-07
-1.1458e-06
-7.55849e-07
-8.14527e-07
-1.19618e-06
-1.05048e-06
-6.87418e-07
-5.88294e-07
-7.44835e-07
-4.10316e-07
-1.1827e-06
-9.2333e-07
-8.49181e-07
-1.91921e-06
-1.40886e-06
-2.46514e-06
-1.80032e-06
-2.4848e-06
-2.24788e-06
-1.90663e-06
-2.2e-06
-1.34241e-06
-2.25347e-06
-1.88464e-06
-1.74915e-06
-1.50694e-06
-5.76735e-07
-1.87036e-07
1.49549e-07
6.54451e-07
8.22579e-07
1.17246e-06
8.74066e-07
1.05185e-07
4.85922e-07
-7.30445e-07
-6.26165e-07
-8.178e-07
-1.38424e-06
-8.66685e-07
-1.1775e-06
-1.05151e-06
-7.63074e-07
-9.28867e-07
-1.23046e-06
-6.83508e-07
-6.7327e-07
-4.9564e-07
-3.68657e-07
-2.32469e-07
-9.52747e-07
-5.14736e-07
-1.11076e-06
-1.81061e-06
-1.53405e-06
-2.71156e-06
-1.92198e-06
-2.91416e-06
-1.96853e-06
-2.05255e-06
-2.10201e-06
-1.71129e-06
-2.54763e-06
-2.04251e-06
-2.06344e-06
-1.40302e-06
-6.32534e-07
-1.39163e-07
3.03945e-07
1.08672e-06
1.15804e-06
1.52927e-06
8.23867e-07
2.23192e-07
4.51122e-07
-9.89107e-07
-6.54218e-07
-1.40173e-06
-1.39723e-06
-1.09352e-06
-1.28018e-06
-1.04691e-06
-8.5794e-07
-1.04143e-06
-1.06884e-06
-3.59716e-07
-7.63141e-07
-1.53709e-07
-1.23528e-07
5.277e-08
-5.62133e-07
-3.14251e-07
-1.34484e-06
-1.60739e-06
-1.79592e-06
-2.7822e-06
-2.25973e-06
-3.01698e-06
-1.69919e-06
-2.20024e-06
-2.0566e-06
-2.21674e-06
-2.71883e-06
-2.37466e-06
-2.18097e-06
-1.37787e-06
-7.6583e-07
-3.65243e-08
5.96248e-07
1.62384e-06
1.5452e-06
1.80072e-06
6.86369e-07
4.43937e-07
1.6187e-07
-1.1735e-06
-9.31666e-07
-1.92887e-06
-1.3314e-06
-1.44556e-06
-1.26283e-06
-1.25736e-06
-8.82309e-07
-1.10019e-06
-7.78139e-07
-3.05295e-07
-7.29861e-07
3.40214e-07
1.27374e-07
6.17187e-07
-3.06631e-07
-2.38317e-07
-1.47362e-06
-1.37065e-06
-2.10942e-06
-2.82434e-06
-2.62102e-06
-2.86437e-06
-1.62476e-06
-2.27868e-06
-2.10755e-06
-2.70053e-06
-2.88383e-06
-2.72017e-06
-2.16775e-06
-1.5213e-06
-7.78976e-07
9.6296e-08
1.03046e-06
2.21731e-06
1.98028e-06
1.97868e-06
6.50654e-07
6.38428e-07
-3.58309e-07
-1.32519e-06
-1.52925e-06
-2.22222e-06
-1.40739e-06
-1.83294e-06
-1.31241e-06
-1.64426e-06
-7.42179e-07
-1.14781e-06
-4.23397e-07
-4.5721e-07
-4.54076e-07
7.41159e-07
5.99775e-07
1.28253e-06
-1.86463e-07
-1.18956e-07
-1.5806e-06
-1.15139e-06
-2.53108e-06
-2.86416e-06
-2.96535e-06
-2.64429e-06
-1.78792e-06
-2.22015e-06
-2.29104e-06
-3.11234e-06
-3.11095e-06
-2.91865e-06
-2.17789e-06
-1.72448e-06
-7.18601e-07
2.62178e-07
1.7079e-06
2.87996e-06
2.45352e-06
2.09638e-06
7.42086e-07
6.13296e-07
-9.27645e-07
-1.56103e-06
-2.28821e-06
-2.30816e-06
-1.74672e-06
-2.08317e-06
-1.55487e-06
-1.9861e-06
-5.07727e-07
-1.17933e-06
-1.11022e-07
-6.92372e-07
1.42472e-08
1.06831e-06
1.43348e-06
1.84875e-06
2.13643e-08
9.55392e-10
-1.68871e-06
-1.06172e-06
-2.98022e-06
-2.79985e-06
-3.34676e-06
-2.48277e-06
-2.02689e-06
-1.95514e-06
-2.58126e-06
-3.44496e-06
-3.45268e-06
-3.02979e-06
-2.27907e-06
-1.76297e-06
-6.10132e-07
5.50675e-07
2.56287e-06
3.57456e-06
2.90829e-06
2.1948e-06
8.71479e-07
3.94952e-07
-1.42548e-06
-2.00837e-06
-3.0194e-06
-2.37345e-06
-2.26862e-06
-2.30416e-06
-2.10893e-06
-2.10052e-06
-3.12196e-07
-1.10752e-06
8.36685e-08
-8.77103e-07
5.72922e-07
1.49051e-06
2.56874e-06
2.24735e-06
4.32262e-07
-7.36166e-08
-1.71148e-06
-1.11643e-06
-3.27114e-06
-2.72353e-06
-3.73199e-06
-2.47166e-06
-2.18748e-06
-1.61645e-06
-3.02042e-06
-3.77006e-06
-3.89696e-06
-3.10632e-06
-2.377e-06
-1.61023e-06
-5.37655e-07
1.05006e-06
3.50517e-06
4.37786e-06
3.39606e-06
2.33039e-06
8.8781e-07
8.98985e-08
-1.86785e-06
-2.62778e-06
-3.61009e-06
-2.51462e-06
-2.83293e-06
-2.56323e-06
-2.80553e-06
-2.02283e-06
-2.47783e-07
-9.10918e-07
2.59474e-08
-9.40516e-07
1.12931e-06
2.23302e-06
3.87538e-06
2.62431e-06
9.20163e-07
-3.81451e-07
-1.59946e-06
-1.29217e-06
-3.29817e-06
-2.82147e-06
-4.06416e-06
-2.6334e-06
-2.10339e-06
-1.35328e-06
-3.5131e-06
-4.14552e-06
-4.3471e-06
-3.04969e-06
-2.31336e-06
-1.36804e-06
-4.33827e-07
1.75769e-06
4.43835e-06
5.33254e-06
3.84094e-06
2.50988e-06
7.6417e-07
-1.87004e-07
-2.35188e-06
-3.22847e-06
-4.09775e-06
-2.75221e-06
-3.39567e-06
-2.97796e-06
-3.57885e-06
-1.92015e-06
-1.58865e-07
-5.73803e-07
-3.14995e-07
-8.77481e-07
1.71731e-06
3.4656e-06
5.26348e-06
3.0779e-06
1.33242e-06
-8.05843e-07
-1.39698e-06
-1.47857e-06
-3.01319e-06
-3.19368e-06
-4.39207e-06
-2.96064e-06
-1.8128e-06
-1.33827e-06
-3.95933e-06
-4.63108e-06
-4.73264e-06
-2.8599e-06
-1.99002e-06
-1.11669e-06
-2.29998e-07
2.52351e-06
5.4615e-06
6.4163e-06
4.25524e-06
2.77052e-06
6.0863e-07
-3.78719e-07
-2.8799e-06
-3.71897e-06
-4.57678e-06
-2.97246e-06
-4.00683e-06
-3.5048e-06
-4.3634e-06
-1.71613e-06
9.39215e-08
-2.50306e-07
-9.63851e-07
-7.24026e-07
2.4335e-06
5.23342e-06
6.51063e-06
3.60783e-06
1.4804e-06
-1.19255e-06
-1.10979e-06
-1.57325e-06
-2.70282e-06
-3.87274e-06
-4.68329e-06
-3.33259e-06
-1.42192e-06
-1.5452e-06
-4.30247e-06
-5.255e-06
-4.89251e-06
-2.46826e-06
-1.43843e-06
-1.03714e-06
1.11224e-07
3.1693e-06
6.75591e-06
7.54563e-06
4.62078e-06
2.96719e-06
4.26817e-07
-5.68391e-07
-3.43392e-06
-4.03815e-06
-4.98021e-06
-3.03318e-06
-4.79032e-06
-3.99617e-06
-5.02867e-06
-1.18133e-06
5.79964e-07
-1.69386e-07
-1.93798e-06
-3.67147e-07
3.47153e-06
7.49694e-06
7.63271e-06
4.09035e-06
1.49369e-06
-1.2379e-06
-7.01144e-07
-1.51697e-06
-2.57808e-06
-4.6979e-06
-5.02065e-06
-3.70427e-06
-1.19282e-06
-1.95143e-06
-4.64178e-06
-5.9434e-06
-4.90756e-06
-1.83237e-06
-7.1011e-07
-1.10562e-06
6.71627e-07
3.71897e-06
8.61157e-06
8.59805e-06
5.12468e-06
3.03397e-06
2.22779e-07
-9.2654e-07
-3.90923e-06
-4.18511e-06
-5.12548e-06
-3.20619e-06
-6.01029e-06
-4.47497e-06
-5.56851e-06
-3.71518e-08
9.72294e-07
-5.89603e-07
-3.3276e-06
2.15112e-07
4.92324e-06
1.01218e-05
8.28176e-06
4.47198e-06
1.59438e-06
-8.89436e-07
-2.5915e-07
-1.49176e-06
-2.85296e-06
-5.47541e-06
-5.29417e-06
-4.10201e-06
-1.34726e-06
-2.53173e-06
-4.99213e-06
-6.53729e-06
-4.87758e-06
-1.09621e-06
1.47915e-08
-1.37848e-06
1.43014e-06
3.99461e-06
1.07519e-05
9.31144e-06
5.81213e-06
3.00737e-06
-3.50914e-08
-1.83511e-06
-4.10661e-06
-3.91056e-06
-4.67251e-06
-3.59347e-06
-7.62144e-06
-4.64573e-06
-5.37362e-06
1.79333e-06
1.09275e-06
-1.75119e-06
-5.02563e-06
1.30416e-06
6.79033e-06
1.28488e-05
8.14902e-06
4.80294e-06
2.09501e-06
-8.4781e-08
1.29934e-07
-1.71545e-06
-3.52113e-06
-6.06836e-06
-5.73264e-06
-4.89322e-06
-2.23464e-06
-3.38244e-06
-5.33179e-06
-7.01114e-06
-5.08606e-06
1.46216e-07
2.98984e-07
-1.67386e-06
2.18691e-06
4.12383e-06
1.29683e-05
9.68975e-06
6.60013e-06
2.65307e-06
-5.77497e-07
-3.71968e-06
-4.13109e-06
-3.68559e-06
-3.71669e-06
-4.84161e-06
-9.65889e-06
-4.80046e-06
-4.53332e-06
4.05396e-06
3.80871e-08
-4.01503e-06
-7.14809e-06
2.80767e-06
8.95814e-06
1.52845e-05
6.69262e-06
5.44077e-06
3.2963e-06
1.25022e-06
1.29136e-07
-2.66027e-06
-4.79889e-06
-6.52134e-06
-6.24922e-06
-6.32696e-06
-3.48808e-06
-4.76734e-06
-5.86845e-06
-7.75865e-06
-5.70029e-06
2.13104e-06
3.78547e-08
-1.58948e-06
3.02496e-06
3.68145e-06
1.52247e-05
9.78031e-06
8.57747e-06
2.45522e-06
-1.52914e-06
-5.90851e-06
-3.6025e-06
-2.33801e-06
-2.06366e-06
-7.24237e-06
-1.15861e-05
-4.33708e-06
-1.96223e-06
6.94425e-06
-1.79477e-06
-7.32835e-06
-9.01307e-06
4.92685e-06
1.13512e-05
1.69126e-05
3.81816e-06
6.74161e-06
5.27843e-06
2.87797e-06
-2.76257e-07
-4.24653e-06
-6.31036e-06
-6.93794e-06
-7.02911e-06
-7.76912e-06
-4.89023e-06
-4.99352e-06
-4.64204e-06
-7.96327e-06
-5.82883e-06
4.93786e-06
-4.02773e-07
3.9684e-09
3.92711e-06
3.46649e-06
1.67715e-05
1.02648e-05
9.43318e-06
2.42501e-06
-3.35855e-06
-8.63882e-06
-2.35592e-06
-2.78409e-07
8.22167e-07
-1.08931e-05
-1.277e-05
-3.53948e-06
1.48997e-06
9.79612e-06
-4.72736e-06
-1.12307e-05
-9.91943e-06
7.98947e-06
1.43746e-05
1.74793e-05
6.03495e-08
1.01756e-05
8.00834e-06
5.33781e-06
-7.00833e-07
-5.92452e-06
-7.21311e-06
-5.66883e-06
-5.33729e-06
-8.37484e-06
-3.74473e-06
-4.61837e-06
-2.42521e-06
-8.55583e-06
-4.29315e-06
8.64398e-06
-8.04179e-07
4.71998e-06
5.98651e-06
4.96237e-06
1.99367e-05
1.1268e-05
1.68168e-05
3.16191e-06
-4.2049e-06
-7.91568e-06
2.39292e-06
5.87294e-06
3.86816e-06
-1.32538e-05
-1.14767e-05
1.26475e-06
1.00433e-05
1.3206e-05
-8.02437e-06
-1.45426e-05
-7.72267e-06
1.38373e-05
2.03234e-05
1.81546e-05
-2.36594e-06
1.72567e-05
1.31106e-05
8.95501e-06
-2.48767e-07
-7.14396e-06
-6.32818e-06
-1.28563e-06
-5.2474e-06
-7.67447e-06
-1.96428e-06
2.99222e-06
5.29619e-06
-6.96108e-06
-5.4612e-07
1.47771e-05
1.28595e-06
1.07142e-05
9.66642e-06
8.79718e-06
2.67742e-05
1.60196e-05
1.94715e-05
6.78329e-06
-6.63054e-06
-8.61692e-06
6.61269e-06
1.42442e-05
8.79352e-06
-1.80928e-05
-8.53461e-06
6.31578e-06
2.12073e-05
2.093e-05
-9.30327e-06
-1.47742e-05
-4.54419e-06
2.07109e-05
2.87699e-05
1.95036e-05
-1.59912e-06
2.71802e-05
1.98357e-05
1.61421e-05
8.36947e-07
-7.13262e-06
-2.51328e-06
4.10485e-06
-3.96239e-06
-5.22845e-06
3.39151e-06
6.24873e-06
1.21443e-05
-2.78163e-06
8.55821e-06
1.79153e-05
3.70772e-06
2.05257e-05
1.4855e-05
1.39409e-05
3.14858e-05
2.16144e-05
3.33433e-05
6.9827e-06
-6.24262e-06
-3.7508e-06
1.66592e-05
2.36312e-05
1.37279e-05
-1.86329e-05
-3.86594e-06
1.50528e-05
3.37652e-05
2.60953e-05
-9.26918e-06
-1.43613e-05
5.08093e-06
3.18095e-05
3.97198e-05
2.03383e-05
-7.04794e-07
4.1647e-05
2.69629e-05
2.12171e-05
5.14144e-06
-8.19391e-06
4.2636e-06
1.15803e-05
-8.23729e-06
-3.98026e-06
3.08273e-06
2.48846e-05
2.86735e-05
-6.36255e-06
1.38713e-05
2.35109e-05
1.08194e-05
2.85397e-05
1.70521e-05
1.55256e-05
3.78219e-05
2.56765e-05
3.93088e-05
5.14813e-06
-1.18613e-05
-4.95058e-06
2.09779e-05
3.90383e-05
1.74276e-05
-2.16119e-05
-1.18883e-06
2.23932e-05
4.592e-05
3.19009e-05
-1.58091e-05
-1.38568e-05
5.41482e-06
4.11244e-05
4.75711e-05
1.32574e-05
6.20037e-07
5.35848e-05
3.54937e-05
2.34149e-05
-8.68749e-07
-1.12026e-05
1.92845e-06
1.69408e-05
-1.49528e-05
-9.00057e-06
6.77124e-06
2.55338e-05
2.89239e-05
-2.13039e-06
1.2351e-05
2.40274e-05
1.48334e-05
3.41559e-05
1.32073e-05
1.97262e-05
4.33672e-05
3.03359e-05
4.85574e-05
4.37037e-06
-2.21134e-05
-6.04812e-06
3.2701e-05
4.99227e-05
9.92276e-06
-3.46575e-05
-2.29901e-07
2.28172e-05
5.58225e-05
3.36549e-05
-1.41571e-05
-1.51483e-05
7.97334e-06
5.20573e-05
5.037e-05
9.24188e-06
2.77264e-06
6.69194e-05
3.41224e-05
2.33365e-05
-3.86103e-06
-1.30932e-05
1.54334e-05
1.8235e-05
-2.30586e-05
-6.02992e-06
4.82682e-06
3.0183e-05
3.88288e-05
-5.54732e-06
1.44792e-05
2.74887e-05
1.62641e-05
3.77066e-05
1.17091e-05
1.28735e-05
4.30692e-05
2.69913e-05
4.86755e-05
-1.41111e-06
-2.12374e-05
-7.3526e-06
3.14876e-05
5.8819e-05
1.19261e-05
-3.87501e-05
-6.64838e-08
2.36791e-05
6.01921e-05
3.54787e-05
-2.14267e-05
-1.79589e-05
7.77799e-06
5.28767e-05
5.11295e-05
5.12917e-06
4.12873e-06
7.39445e-05
2.97532e-05
2.0875e-05
2.13451e-06
-1.26863e-05
1.07222e-05
1.86199e-05
-2.87724e-05
-7.22406e-06
3.30639e-06
3.00448e-05
3.48036e-05
-1.24449e-05
1.18162e-05
2.65075e-05
1.69619e-05
4.03914e-05
4.08367e-06
1.091e-05
4.43444e-05
2.51089e-05
5.03631e-05
-1.05879e-06
-3.24854e-05
-1.11132e-05
3.16328e-05
6.31439e-05
5.09108e-06
-4.53148e-05
-1.6658e-06
2.42817e-05
6.04832e-05
3.4747e-05
-1.99244e-05
-1.8047e-05
3.63714e-06
5.40876e-05
4.62538e-05
7.83172e-07
4.89143e-06
7.9343e-05
2.60766e-05
1.76613e-05
-1.95937e-06
-1.33067e-05
1.69619e-05
1.86752e-05
-3.19918e-05
-7.07387e-06
3.68552e-06
2.67552e-05
3.28357e-05
-1.14747e-05
1.34182e-05
2.72906e-05
1.68305e-05
3.76086e-05
2.31886e-06
9.86223e-06
4.49208e-05
2.41531e-05
4.78321e-05
-5.01795e-06
-3.409e-05
-1.23139e-05
2.96098e-05
6.3176e-05
6.93346e-06
-4.82237e-05
-1.84971e-06
1.82529e-05
5.87279e-05
3.49882e-05
-1.90221e-05
-1.97529e-05
-1.05091e-06
5.21631e-05
5.00091e-05
-9.26003e-07
4.97077e-06
8.17168e-05
2.24216e-05
1.46378e-05
2.7147e-06
-1.24281e-05
1.43925e-05
1.77213e-05
-3.34849e-05
-4.38496e-06
3.03109e-06
2.50315e-05
3.16079e-05
-1.4546e-05
1.43108e-05
2.75341e-05
1.23488e-05
3.58852e-05
2.71649e-06
1.00079e-05
4.50043e-05
2.09851e-05
4.66214e-05
-5.82451e-06
-3.44984e-05
-1.25909e-05
2.76819e-05
6.21918e-05
5.82513e-06
-4.99944e-05
-1.67553e-06
1.60648e-05
5.7849e-05
3.55741e-05
-1.75364e-05
-1.96318e-05
-3.29671e-06
5.12483e-05
4.90436e-05
-1.34184e-06
5.87998e-06
8.20805e-05
2.01747e-05
1.27256e-05
2.38169e-06
-1.23679e-05
1.36825e-05
1.62583e-05
-3.46292e-05
-4.30515e-06
3.62016e-06
2.30974e-05
3.11092e-05
-1.41469e-05
1.54846e-05
2.8364e-05
1.23468e-05
3.49481e-05
1.82768e-06
1.08372e-05
4.49437e-05
1.96313e-05
4.51725e-05
-6.50405e-06
-3.25847e-05
-1.36936e-05
2.64665e-05
6.24648e-05
5.51024e-06
-4.85029e-05
-7.39902e-07
1.46413e-05
5.73383e-05
3.6196e-05
-1.66664e-05
-2.1306e-05
-3.79405e-06
5.16058e-05
4.97399e-05
-1.27282e-06
6.53338e-06
8.12973e-05
1.9108e-05
1.23693e-05
2.17617e-06
-1.32015e-05
1.38676e-05
1.4237e-05
-3.52531e-05
-4.24565e-06
3.09388e-06
2.22886e-05
3.12561e-05
-1.42567e-05
1.62216e-05
2.88196e-05
1.26232e-05
3.43211e-05
1.4351e-06
1.13086e-05
4.50968e-05
1.94233e-05
4.52371e-05
-7.43492e-06
-3.21326e-05
-1.37753e-05
2.70849e-05
6.30133e-05
5.17211e-06
-4.75211e-05
-9.82729e-08
1.41845e-05
5.80093e-05
3.73127e-05
-1.64752e-05
-2.23318e-05
-3.68295e-06
5.16459e-05
5.05144e-05
-1.1591e-06
6.56894e-06
8.04607e-05
1.93803e-05
1.23497e-05
1.51555e-06
-1.40428e-05
1.42941e-05
1.26406e-05
-1.39866e-06
-1.60942e-06
-1.54444e-06
-1.30463e-06
-1.20648e-06
-1.30961e-06
-1.20244e-06
-8.52852e-07
-6.77809e-07
-9.15383e-07
-7.27468e-07
-3.68156e-07
-5.31479e-07
-1.1355e-07
8.6953e-08
-3.57601e-07
-6.88199e-09
8.44066e-08
-3.77803e-07
-1.40601e-07
-2.65586e-07
-6.45112e-07
-5.27827e-07
-7.39219e-07
-8.14591e-07
-8.44308e-07
-1.03481e-06
-1.03477e-06
-1.35543e-06
-1.21143e-06
-9.98306e-07
-1.54962e-06
-1.57739e-06
-1.24153e-06
-1.3219e-06
-1.61685e-06
-1.56971e-06
-1.44532e-06
-1.59422e-06
-1.4304e-06
-1.63802e-06
-1.90408e-06
-1.35763e-06
-1.36813e-06
-1.53784e-06
-1.36604e-06
-1.17862e-06
-9.30651e-07
-7.0586e-07
-1.07908e-06
-7.54709e-07
-2.40007e-07
-5.72295e-07
2.52411e-08
3.05375e-07
-3.17064e-07
8.08048e-08
1.79098e-07
-1.92335e-07
-2.94076e-08
-4.85459e-07
-5.76441e-07
-3.72415e-07
-8.43842e-07
-7.86959e-07
-9.04019e-07
-1.07367e-06
-8.60279e-07
-1.30648e-06
-1.30367e-06
-1.05335e-06
-1.30767e-06
-1.45597e-06
-1.24438e-06
-1.11652e-06
-1.74483e-06
-1.48113e-06
-1.32942e-06
-1.89978e-06
-1.44071e-06
-1.95507e-06
-1.83014e-06
-1.30778e-06
-1.59008e-06
-1.82954e-06
-1.46247e-06
-1.12599e-06
-1.07208e-06
-9.10534e-07
-1.17924e-06
-6.81185e-07
-2.91702e-07
-4.35466e-07
2.57091e-07
2.46672e-07
-1.16173e-07
3.26533e-07
1.35439e-07
2.97961e-08
2.57764e-09
-7.38353e-07
-4.02144e-07
-3.9807e-07
-9.54935e-07
-7.13876e-07
-1.0512e-06
-1.0531e-06
-7.60944e-07
-1.25984e-06
-1.32363e-06
-1.16081e-06
-1.06364e-06
-1.31044e-06
-1.18798e-06
-1.05173e-06
-1.83961e-06
-1.24137e-06
-1.34613e-06
-1.93384e-06
-1.42473e-06
-2.21177e-06
-1.63475e-06
-1.61984e-06
-1.81728e-06
-2.00723e-06
-1.44945e-06
-1.12311e-06
-1.31732e-06
-1.12338e-06
-1.201e-06
-6.38995e-07
-3.78509e-07
-1.25729e-07
3.73466e-07
1.44229e-07
2.71592e-07
5.38514e-07
4.91096e-08
2.42444e-07
-1.31514e-07
-8.8797e-07
-2.0369e-07
-6.03784e-07
-9.51121e-07
-6.90017e-07
-1.17937e-06
-9.40205e-07
-7.56948e-07
-1.22618e-06
-1.32859e-06
-1.17247e-06
-8.28078e-07
-1.17367e-06
-1.00743e-06
-1.12161e-06
-1.76047e-06
-9.71445e-07
-1.57626e-06
-1.83031e-06
-1.70398e-06
-2.09716e-06
-1.6142e-06
-2.02265e-06
-1.86283e-06
-2.1123e-06
-1.33638e-06
-1.32974e-06
-1.58257e-06
-1.28824e-06
-1.26202e-06
-6.40855e-07
-3.16169e-07
1.70103e-07
3.54073e-07
2.44961e-07
6.82032e-07
6.45088e-07
-3.99337e-09
3.65029e-07
-4.0182e-07
-8.53287e-07
-1.28048e-07
-9.04464e-07
-8.60337e-07
-7.95486e-07
-1.18667e-06
-8.22608e-07
-8.04363e-07
-1.2293e-06
-1.31111e-06
-1.02205e-06
-6.88113e-07
-1.00561e-06
-8.02473e-07
-1.25781e-06
-1.42807e-06
-8.74289e-07
-1.82578e-06
-1.69843e-06
-2.13157e-06
-1.83489e-06
-1.99706e-06
-2.21419e-06
-1.88502e-06
-2.13695e-06
-1.2666e-06
-1.74834e-06
-1.73439e-06
-1.5076e-06
-1.29657e-06
-5.95184e-07
-1.56157e-07
2.95232e-07
3.99102e-07
5.58024e-07
9.73493e-07
6.93586e-07
-5.77756e-08
3.63484e-07
-7.21198e-07
-6.904e-07
-3.09813e-07
-1.16437e-06
-7.65611e-07
-9.59542e-07
-1.05463e-06
-7.81872e-07
-8.43902e-07
-1.29958e-06
-1.15172e-06
-7.80404e-07
-6.2512e-07
-7.37608e-07
-6.83364e-07
-1.27082e-06
-9.9905e-07
-1.05701e-06
-1.90661e-06
-1.71583e-06
-2.47043e-06
-1.78341e-06
-2.54239e-06
-2.08599e-06
-1.99038e-06
-2.00821e-06
-1.42848e-06
-2.14498e-06
-1.82618e-06
-1.82387e-06
-1.25393e-06
-5.52436e-07
2.60748e-08
3.46989e-07
7.04706e-07
9.02533e-07
1.20094e-06
6.66757e-07
-1.32268e-07
2.72558e-07
-1.0224e-06
-5.05114e-07
-7.43622e-07
-1.25847e-06
-7.81256e-07
-1.05815e-06
-8.87531e-07
-7.98137e-07
-8.71737e-07
-1.38142e-06
-8.14034e-07
-6.73521e-07
-5.05535e-07
-4.22064e-07
-6.08869e-07
-1.01522e-06
-7.2555e-07
-1.36293e-06
-1.81276e-06
-1.92835e-06
-2.53685e-06
-2.13282e-06
-2.85804e-06
-1.84183e-06
-2.14178e-06
-1.81241e-06
-1.83587e-06
-2.36587e-06
-2.09545e-06
-2.09175e-06
-1.15997e-06
-5.3018e-07
2.07301e-07
4.53114e-07
1.20408e-06
1.16803e-06
1.45872e-06
5.0687e-07
-1.1583e-07
3.60497e-08
-1.28163e-06
-4.61443e-07
-1.34425e-06
-1.1508e-06
-9.74413e-07
-9.86698e-07
-8.1178e-07
-7.70035e-07
-9.06735e-07
-1.31762e-06
-4.05116e-07
-7.47549e-07
-2.03573e-07
-2.5511e-07
-4.1647e-07
-6.07964e-07
-7.32446e-07
-1.55375e-06
-1.708e-06
-2.22503e-06
-2.45423e-06
-2.63797e-06
-2.74671e-06
-1.74768e-06
-2.19651e-06
-1.73563e-06
-2.33311e-06
-2.52963e-06
-2.57423e-06
-2.12429e-06
-1.18862e-06
-4.50306e-07
3.91096e-07
7.43583e-07
1.76925e-06
1.3761e-06
1.69854e-06
2.19579e-07
2.61864e-08
-4.02476e-07
-1.40644e-06
-7.20054e-07
-1.87833e-06
-9.69315e-07
-1.31825e-06
-7.71879e-07
-9.03531e-07
-5.93589e-07
-9.80851e-07
-1.05972e-06
-1.87018e-07
-7.60413e-07
2.42636e-07
-1.24686e-07
8.98499e-08
-3.84872e-07
-8.80401e-07
-1.59586e-06
-1.73466e-06
-2.48129e-06
-2.44451e-06
-2.96814e-06
-2.38703e-06
-1.81781e-06
-2.06159e-06
-1.91515e-06
-2.73483e-06
-2.85588e-06
-3.09539e-06
-2.03072e-06
-1.3212e-06
-1.80479e-07
5.92807e-07
1.30023e-06
2.27763e-06
1.58465e-06
1.79931e-06
-6.03033e-08
1.5714e-07
-1.0057e-06
-1.45726e-06
-1.36487e-06
-2.12268e-06
-9.44545e-07
-1.63294e-06
-5.5242e-07
-1.09539e-06
-2.41156e-07
-1.06668e-06
-6.39346e-07
-2.72519e-07
-5.86564e-07
6.25376e-07
1.9988e-07
6.84509e-07
-4.47568e-07
-9.29791e-07
-1.67756e-06
-1.90091e-06
-2.78425e-06
-2.62481e-06
-3.04058e-06
-2.09688e-06
-1.93617e-06
-1.80636e-06
-2.29075e-06
-3.03339e-06
-3.45709e-06
-3.46075e-06
-2.03235e-06
-1.46386e-06
1.8361e-07
8.55946e-07
2.0829e-06
2.66493e-06
1.90951e-06
1.70169e-06
-2.13501e-07
5.64387e-08
-1.66097e-06
-1.58556e-06
-2.23627e-06
-2.08597e-06
-1.27704e-06
-1.69376e-06
-5.00328e-07
-1.18724e-06
2.06649e-07
-1.09758e-06
-1.87981e-07
-5.9065e-07
-2.21198e-07
9.01483e-07
8.65304e-07
1.13847e-06
-4.96261e-07
-9.39366e-07
-1.92201e-06
-2.13289e-06
-3.12839e-06
-2.81002e-06
-2.99705e-06
-1.97809e-06
-1.93259e-06
-1.56699e-06
-2.78397e-06
-3.4036e-06
-4.26561e-06
-3.63882e-06
-2.27286e-06
-1.40024e-06
4.95981e-07
1.30146e-06
2.9738e-06
3.01772e-06
2.35484e-06
1.52023e-06
-2.52918e-07
-3.62281e-07
-2.23128e-06
-1.97011e-06
-3.05783e-06
-1.9577e-06
-1.88574e-06
-1.53986e-06
-7.20749e-07
-9.35981e-07
5.7073e-07
-9.90858e-07
4.45971e-08
-1.02997e-06
2.23705e-07
1.17504e-06
1.78161e-06
1.32645e-06
-3.69317e-07
-1.14322e-06
-2.24458e-06
-2.47119e-06
-3.47511e-06
-2.91432e-06
-2.95855e-06
-1.9669e-06
-1.75503e-06
-1.47008e-06
-3.28326e-06
-4.01298e-06
-5.1006e-06
-3.83114e-06
-2.67454e-06
-1.13549e-06
6.57379e-07
2.01931e-06
3.80709e-06
3.54011e-06
2.79584e-06
1.30289e-06
-3.13807e-07
-1.05255e-06
-2.82719e-06
-2.71811e-06
-3.63542e-06
-1.98887e-06
-2.57622e-06
-1.32874e-06
-1.08621e-06
-3.58477e-07
7.73863e-07
-7.41697e-07
-1.12557e-07
-1.37991e-06
6.62805e-07
1.63683e-06
2.78018e-06
1.37099e-06
-1.04857e-07
-1.63683e-06
-2.56797e-06
-2.94762e-06
-3.70967e-06
-2.99625e-06
-2.94673e-06
-2.01841e-06
-1.56115e-06
-1.58508e-06
-3.80438e-06
-4.95872e-06
-5.80684e-06
-4.14193e-06
-2.97953e-06
-7.93429e-07
8.66726e-07
2.94769e-06
4.5998e-06
4.35786e-06
3.13474e-06
1.14223e-06
-5.66599e-07
-1.92517e-06
-3.62058e-06
-3.70095e-06
-4.05737e-06
-2.33419e-06
-3.15209e-06
-1.24408e-06
-1.42743e-06
4.312e-07
8.45268e-07
-4.74928e-07
-7.47962e-07
-1.53235e-06
1.04159e-06
2.45461e-06
3.69841e-06
1.41408e-06
7.55115e-08
-2.3191e-06
-2.86473e-06
-3.52492e-06
-3.82589e-06
-3.19021e-06
-2.90673e-06
-2.13221e-06
-1.42299e-06
-1.83198e-06
-4.42646e-06
-6.26289e-06
-6.47537e-06
-4.68167e-06
-3.20374e-06
-5.72947e-07
1.2637e-06
3.83003e-06
5.53753e-06
5.38918e-06
3.37867e-06
1.06577e-06
-1.02041e-06
-2.93395e-06
-4.68313e-06
-4.64658e-06
-4.49602e-06
-2.91439e-06
-3.75813e-06
-1.43874e-06
-1.65384e-06
1.24548e-06
8.21025e-07
-5.28754e-07
-1.83999e-06
-1.5007e-06
1.52243e-06
3.63141e-06
4.38272e-06
1.50965e-06
1.17336e-08
-2.99378e-06
-3.2258e-06
-4.20903e-06
-4.00835e-06
-3.47459e-06
-2.8785e-06
-2.41279e-06
-1.52111e-06
-2.17803e-06
-5.23095e-06
-7.82482e-06
-7.17708e-06
-5.39776e-06
-3.2015e-06
-3.21429e-07
1.98141e-06
4.59823e-06
6.77522e-06
6.3495e-06
3.60052e-06
8.08327e-07
-1.64719e-06
-4.35557e-06
-6.11528e-06
-5.49976e-06
-4.89987e-06
-3.5287e-06
-4.57807e-06
-1.70055e-06
-1.6839e-06
2.12431e-06
6.14835e-07
-1.09415e-06
-3.27416e-06
-1.2464e-06
2.26739e-06
5.03681e-06
4.64739e-06
1.53302e-06
-2.3973e-07
-3.46068e-06
-3.78687e-06
-5.00984e-06
-4.34689e-06
-3.67311e-06
-3.14267e-06
-2.98211e-06
-2.02882e-06
-2.51623e-06
-6.30473e-06
-9.56203e-06
-8.08664e-06
-6.3339e-06
-3.25296e-06
9.28864e-08
2.83729e-06
5.20396e-06
8.36466e-06
7.20287e-06
4.07743e-06
4.76797e-07
-2.24818e-06
-6.56036e-06
-7.78219e-06
-6.41229e-06
-5.20624e-06
-4.66531e-06
-6.03852e-06
-2.00143e-06
-1.56717e-06
3.08963e-06
-2.94034e-07
-2.47057e-06
-4.92602e-06
-4.37426e-07
3.47881e-06
6.30645e-06
4.40958e-06
1.38711e-06
-3.37246e-07
-3.7418e-06
-4.79443e-06
-6.09793e-06
-4.87477e-06
-3.67132e-06
-3.83519e-06
-4.08449e-06
-3.0803e-06
-2.6256e-06
-7.60907e-06
-1.14097e-05
-9.28591e-06
-7.48253e-06
-3.26874e-06
1.14017e-06
3.81792e-06
5.58883e-06
9.92444e-06
7.90172e-06
4.80582e-06
3.79512e-08
-2.86375e-06
-1.00661e-05
-9.07728e-06
-6.83817e-06
-4.94428e-06
-6.66991e-06
-7.9153e-06
-2.11682e-06
-1.01427e-06
4.26913e-06
-2.25338e-06
-4.54188e-06
-6.70773e-06
1.41539e-06
4.96139e-06
7.13471e-06
3.5012e-06
1.31984e-06
2.10922e-07
-3.92679e-06
-6.43418e-06
-7.51231e-06
-5.21108e-06
-3.24843e-06
-5.09914e-06
-5.84902e-06
-4.61677e-06
-2.33228e-06
-9.35482e-06
-1.3412e-05
-1.10111e-05
-8.77116e-06
-2.84593e-06
3.02752e-06
4.56189e-06
6.07083e-06
1.12639e-05
9.02491e-06
5.9247e-06
-2.54283e-08
-4.1793e-06
-1.53776e-05
-1.01482e-05
-6.99185e-06
-4.33872e-06
-1.06278e-05
-9.9521e-06
-2.4608e-06
3.81636e-07
5.28592e-06
-5.83845e-06
-7.31451e-06
-8.55802e-06
4.73411e-06
6.3401e-06
6.91076e-06
1.68654e-06
1.38062e-06
1.72037e-06
-4.58833e-06
-8.83359e-06
-9.45456e-06
-4.996e-06
-2.6203e-06
-7.16689e-06
-8.98332e-06
-6.847e-06
-1.47106e-06
-1.15418e-05
-1.55635e-05
-1.3455e-05
-1.05132e-05
-2.31258e-06
5.28713e-06
4.82171e-06
6.03e-06
1.20367e-05
1.02262e-05
7.05584e-06
5.84107e-07
-7.09977e-06
-2.29958e-05
-9.78619e-06
-6.04283e-06
-3.77112e-06
-1.72672e-05
-1.16365e-05
-3.04726e-06
3.31703e-06
5.2707e-06
-1.10022e-05
-1.06292e-05
-9.73718e-06
9.94266e-06
6.78475e-06
6.3564e-06
-1.68597e-06
2.62185e-06
3.92038e-06
-6.09018e-06
-1.28202e-05
-1.19626e-05
-4.11738e-06
-2.296e-06
-1.0293e-05
-1.42618e-05
-1.0332e-05
-1.51643e-06
-1.50854e-05
-1.90021e-05
-1.84262e-05
-1.44144e-05
-5.7979e-07
7.82064e-06
3.86037e-06
4.92638e-06
1.12248e-05
1.19549e-05
6.99543e-06
1.41539e-06
-1.29834e-05
-3.2509e-05
-1.17495e-05
-6.01088e-06
-4.97206e-06
-2.67476e-05
-1.41156e-05
-5.88436e-06
6.07765e-06
1.6713e-06
-1.90333e-05
-1.59011e-05
-1.14174e-05
1.50233e-05
4.57699e-06
2.90794e-06
-7.03796e-06
3.54652e-06
5.87427e-06
-1.00168e-05
-1.89218e-05
-1.62777e-05
-3.23337e-06
-3.53871e-06
-1.61198e-05
-2.18995e-05
-1.51472e-05
-3.97948e-06
-2.14831e-05
-2.53649e-05
-2.70538e-05
-2.01206e-05
-2.88282e-06
7.58706e-06
4.37075e-07
3.67963e-07
8.30321e-06
1.09133e-05
7.19022e-06
-1.19812e-06
-2.5822e-05
-4.49189e-05
-1.11012e-05
-6.55357e-06
-1.15961e-05
-4.00586e-05
-1.61461e-05
-8.36969e-06
1.03347e-05
-6.78965e-06
-2.99508e-05
-2.41566e-05
-1.10482e-05
2.03706e-05
-2.1241e-08
-2.40718e-06
-1.59883e-05
6.42558e-06
6.20455e-06
-1.7218e-05
-2.79395e-05
-2.02628e-05
-4.44142e-06
-6.34446e-06
-2.22091e-05
-3.34068e-05
-2.0914e-05
-7.35799e-06
-2.87541e-05
-3.36852e-05
-3.78584e-05
-2.88484e-05
4.99316e-07
6.7672e-06
-4.72469e-06
-5.00844e-06
4.77592e-06
1.19484e-05
6.35187e-06
1.42564e-06
-4.10811e-05
-5.80919e-05
-1.56766e-05
-8.74653e-06
-2.02239e-05
-5.81605e-05
-2.48543e-05
-1.31646e-05
1.43219e-05
-1.67495e-05
-4.22398e-05
-3.26112e-05
-1.3073e-05
2.3166e-05
-7.03964e-06
-1.03728e-05
-2.46817e-05
8.15073e-06
6.01369e-06
-2.63174e-05
-4.0172e-05
-2.65811e-05
-5.22043e-06
-1.22365e-05
-3.14982e-05
-3.91714e-05
-2.1849e-05
-9.69046e-06
-3.66533e-05
-4.19256e-05
-5.33678e-05
-3.49609e-05
-2.76481e-06
2.92827e-06
-1.26786e-05
-1.46614e-05
3.47413e-07
1.17414e-05
5.89864e-06
-7.7181e-06
-5.5946e-05
-6.7953e-05
-8.40844e-06
-6.69714e-06
-3.07344e-05
-6.77531e-05
-2.41487e-05
-1.70134e-05
1.68415e-05
-2.91266e-05
-5.29167e-05
-4.07408e-05
-8.10255e-06
2.79453e-05
-1.55171e-05
-1.66095e-05
-3.22805e-05
1.6992e-05
8.21964e-06
-3.48872e-05
-5.07371e-05
-3.00447e-05
-4.97804e-06
-1.71107e-05
-3.84428e-05
-5.30529e-05
-2.19302e-05
-3.14987e-06
-4.08578e-05
-5.11394e-05
-6.157e-05
-3.89599e-05
8.37065e-06
7.21546e-06
-1.23934e-05
-1.90022e-05
-1.41246e-06
1.53335e-05
1.40499e-05
-1.19583e-06
-6.97764e-05
-7.5402e-05
-4.32011e-06
-3.15366e-06
-3.98677e-05
-8.10445e-05
-2.97227e-05
-8.04862e-06
2.96274e-05
-4.09437e-05
-6.12675e-05
-4.28886e-05
-3.87471e-06
3.4458e-05
-2.1982e-05
-2.51097e-05
-3.70216e-05
2.53264e-05
1.22151e-05
-4.54295e-05
-6.00225e-05
-3.10284e-05
-9.77113e-06
-2.25277e-05
-4.53134e-05
-5.38845e-05
-1.6843e-05
6.41728e-07
-4.42742e-05
-5.31802e-05
-7.26521e-05
-3.89148e-05
7.66721e-06
5.05219e-06
-1.82549e-05
-2.52663e-05
3.30256e-06
1.97434e-05
1.24158e-05
-1.2133e-05
-7.538e-05
-7.60553e-05
8.17371e-06
5.00828e-06
-5.0811e-05
-8.84596e-05
-2.7357e-05
-3.6181e-06
3.31671e-05
-5.24139e-05
-7.06352e-05
-4.65638e-05
3.69378e-06
4.08908e-05
-2.85597e-05
-2.85051e-05
-3.84399e-05
4.09679e-05
1.5651e-05
-4.82413e-05
-5.90829e-05
-3.01214e-05
-3.29381e-06
-2.43571e-05
-5.01312e-05
-6.21126e-05
-1.48561e-05
1.45278e-05
-4.5718e-05
-5.78195e-05
-7.47465e-05
-3.84108e-05
1.06921e-05
5.917e-06
-2.03177e-05
-3.39701e-05
-1.15408e-06
2.6449e-05
2.0391e-05