/*--------------------------------*- C++ -*----------------------------------*\
  =========                 |
  \\      /  F ield         | OpenFOAM: The Open Source CFD Toolbox
   \\    /   O peration     | Website:  https://openfoam.org
    \\  /    A nd           | Version:  10
     \\/     M anipulation  |
\*---------------------------------------------------------------------------*/
FoamFile
{
    format      ascii;
    class       volScalarField;
    location    "5";
    object      pPrime2Mean;
}
// * * * * * * * * * * * * * * * * * * * * * * * * * * * * * * * * * * * * * //

dimensions      [0 4 -4 0 0 0 0];

internalField   nonuniform List<scalar> 
25600
(
7.72731e-08
8.50227e-08
8.54681e-08
7.32921e-08
7.32538e-08
7.33486e-08
6.25418e-08
5.35412e-08
4.72427e-08
4.01576e-08
3.86964e-08
3.33074e-08
2.61904e-08
3.01019e-08
2.97105e-08
2.39759e-08
2.8943e-08
2.92129e-08
2.35969e-08
3.21631e-08
3.84289e-08
3.45536e-08
4.23545e-08
5.59051e-08
6.04619e-08
6.34512e-08
7.5078e-08
8.40118e-08
7.81187e-08
7.98274e-08
9.31295e-08
8.73699e-08
7.68034e-08
8.87868e-08
9.34901e-08
8.33189e-08
8.33408e-08
8.88878e-08
9.11271e-08
8.28956e-08
8.97145e-08
9.14077e-08
9.0571e-08
8.43138e-08
8.07032e-08
7.95673e-08
7.06342e-08
5.54175e-08
4.78314e-08
4.46528e-08
3.59409e-08
2.70333e-08
2.73839e-08
2.68871e-08
2.32255e-08
2.72486e-08
2.68556e-08
1.98319e-08
2.91966e-08
3.43451e-08
2.66315e-08
3.86195e-08
5.14342e-08
5.12037e-08
6.66694e-08
7.8125e-08
7.75963e-08
8.54056e-08
8.256e-08
8.05397e-08
9.04795e-08
8.15843e-08
7.23339e-08
8.85785e-08
9.26188e-08
8.03746e-08
8.66682e-08
9.59806e-08
9.25071e-08
8.85804e-08
1.01277e-07
9.9578e-08
9.84772e-08
9.73095e-08
9.30211e-08
8.83639e-08
7.80671e-08
5.8417e-08
5.03451e-08
4.87944e-08
3.27588e-08
2.27518e-08
2.88641e-08
2.49794e-08
2.25305e-08
3.48488e-08
2.49228e-08
1.56211e-08
4.15659e-08
3.8012e-08
2.0818e-08
5.09868e-08
6.2331e-08
5.38059e-08
8.20388e-08
9.49757e-08
8.4692e-08
9.12621e-08
8.68808e-08
8.46694e-08
8.90185e-08
7.2214e-08
6.99608e-08
9.03707e-08
8.84578e-08
7.87014e-08
9.21658e-08
1.01349e-07
9.61589e-08
9.74842e-08
1.11267e-07
1.08395e-07
1.08604e-07
1.1321e-07
1.09834e-07
1.00038e-07
8.57152e-08
6.29167e-08
5.59786e-08
5.13521e-08
2.86553e-08
2.07254e-08
2.87592e-08
2.44269e-08
2.94323e-08
4.20297e-08
2.02014e-08
1.88565e-08
5.54216e-08
3.82176e-08
2.13191e-08
6.48654e-08
6.60327e-08
6.15001e-08
1.0136e-07
1.07001e-07
9.39963e-08
9.95858e-08
9.14506e-08
9.22017e-08
8.72447e-08
6.17145e-08
7.10026e-08
9.31731e-08
8.37826e-08
8.09866e-08
9.85665e-08
1.05493e-07
1.03968e-07
1.08789e-07
1.20601e-07
1.17297e-07
1.20379e-07
1.34205e-07
1.31229e-07
1.14581e-07
9.4476e-08
7.06527e-08
6.51287e-08
5.26895e-08
2.58021e-08
2.06674e-08
2.71078e-08
2.94298e-08
4.47687e-08
4.59085e-08
1.50678e-08
3.05827e-08
6.86612e-08
3.45132e-08
2.81821e-08
7.45206e-08
6.20253e-08
7.42098e-08
1.22232e-07
1.16761e-07
1.07907e-07
1.11742e-07
1.0067e-07
1.03742e-07
8.26083e-08
5.19206e-08
7.52722e-08
9.58549e-08
8.19476e-08
8.74317e-08
1.04648e-07
1.11807e-07
1.18085e-07
1.21702e-07
1.31318e-07
1.26255e-07
1.36256e-07
1.64362e-07
1.59744e-07
1.3386e-07
1.06207e-07
8.3685e-08
7.80498e-08
5.54401e-08
2.80788e-08
2.26521e-08
2.77001e-08
4.63458e-08
6.88522e-08
4.82603e-08
1.44766e-08
4.98165e-08
8.33583e-08
3.22552e-08
3.96294e-08
7.92069e-08
5.7843e-08
9.51097e-08
1.46575e-07
1.321e-07
1.30656e-07
1.31139e-07
1.19313e-07
1.18396e-07
7.36982e-08
4.42445e-08
8.22646e-08
9.9637e-08
8.6566e-08
9.72805e-08
1.12628e-07
1.26378e-07
1.40622e-07
1.37319e-07
1.45803e-07
1.37818e-07
1.63763e-07
2.11403e-07
2.02197e-07
1.62343e-07
1.24829e-07
1.04737e-07
9.70169e-08
6.51333e-08
4.00616e-08
2.87174e-08
3.91451e-08
8.21619e-08
1.04881e-07
5.70569e-08
2.38683e-08
7.72049e-08
1.03631e-07
3.85363e-08
5.619e-08
8.10697e-08
6.17357e-08
1.27343e-07
1.77733e-07
1.59345e-07
1.66989e-07
1.63704e-07
1.50451e-07
1.34379e-07
6.40534e-08
4.2284e-08
9.44303e-08
1.10619e-07
1.01908e-07
1.13387e-07
1.29955e-07
1.56798e-07
1.76477e-07
1.59978e-07
1.693e-07
1.60523e-07
2.16903e-07
2.87692e-07
2.68473e-07
2.06994e-07
1.57427e-07
1.38813e-07
1.28167e-07
9.22836e-08
6.95079e-08
4.68117e-08
7.4754e-08
1.48476e-07
1.61712e-07
8.38146e-08
5.11533e-08
1.19447e-07
1.37683e-07
6.16218e-08
8.26336e-08
8.96332e-08
8.38602e-08
1.76054e-07
2.2357e-07
2.06068e-07
2.24021e-07
2.18669e-07
1.97336e-07
1.55312e-07
6.11854e-08
5.30414e-08
1.19424e-07
1.40942e-07
1.36006e-07
1.47209e-07
1.68289e-07
2.14589e-07
2.33363e-07
1.96714e-07
2.15503e-07
2.12593e-07
3.19104e-07
4.13543e-07
3.74102e-07
2.81513e-07
2.1615e-07
1.94931e-07
1.85332e-07
1.52828e-07
1.30006e-07
9.3747e-08
1.54674e-07
2.6639e-07
2.58591e-07
1.47302e-07
1.11682e-07
1.90688e-07
1.99096e-07
1.15826e-07
1.29859e-07
1.22745e-07
1.40547e-07
2.51592e-07
2.99871e-07
2.84311e-07
3.16944e-07
3.11739e-07
2.68143e-07
1.91322e-07
7.81562e-08
8.76884e-08
1.69624e-07
2.04996e-07
2.04333e-07
2.19003e-07
2.44866e-07
3.16953e-07
3.2437e-07
2.593e-07
3.1157e-07
3.26891e-07
5.02367e-07
6.21607e-07
5.47114e-07
4.12359e-07
3.20327e-07
2.91649e-07
2.92263e-07
2.72712e-07
2.44729e-07
2.00824e-07
3.14176e-07
4.67956e-07
4.30192e-07
2.78599e-07
2.35538e-07
3.16894e-07
3.14284e-07
2.26892e-07
2.21887e-07
2.10492e-07
2.55346e-07
3.76628e-07
4.28203e-07
4.13001e-07
4.70697e-07
4.66056e-07
3.78816e-07
2.59897e-07
1.35171e-07
1.63626e-07
2.65762e-07
3.24568e-07
3.34004e-07
3.56364e-07
3.8857e-07
4.91481e-07
4.738e-07
3.69412e-07
4.99972e-07
5.51834e-07
8.13918e-07
9.59631e-07
8.3092e-07
6.40551e-07
5.03928e-07
4.62798e-07
4.85557e-07
4.92049e-07
4.53534e-07
4.16033e-07
6.10325e-07
8.07161e-07
7.35996e-07
5.32013e-07
4.73975e-07
5.41693e-07
5.30918e-07
4.38917e-07
3.99434e-07
3.95877e-07
4.62119e-07
5.89596e-07
6.37954e-07
6.22135e-07
7.27289e-07
7.15903e-07
5.55809e-07
3.93041e-07
2.61818e-07
3.06419e-07
4.39154e-07
5.32716e-07
5.69741e-07
5.95332e-07
6.47785e-07
7.82415e-07
7.18448e-07
5.66089e-07
8.47215e-07
9.59467e-07
1.32812e-06
1.49774e-06
1.29777e-06
1.02577e-06
8.15636e-07
7.6154e-07
8.20147e-07
8.68447e-07
8.18905e-07
8.18125e-07
1.12815e-06
1.3745e-06
1.27189e-06
9.91238e-07
9.06555e-07
9.37289e-07
9.26039e-07
8.20501e-07
7.27534e-07
7.35173e-07
8.11587e-07
9.50417e-07
9.70862e-07
9.58662e-07
1.14925e-06
1.11184e-06
8.4202e-07
6.34534e-07
4.98976e-07
5.53607e-07
7.34037e-07
8.78282e-07
9.71432e-07
9.88625e-07
1.09e-06
1.24921e-06
1.1135e-06
9.15387e-07
1.44313e-06
1.64058e-06
2.14446e-06
2.34176e-06
2.04288e-06
1.65441e-06
1.33015e-06
1.2665e-06
1.38067e-06
1.48288e-06
1.42896e-06
1.51756e-06
1.98661e-06
2.30352e-06
2.16897e-06
1.77353e-06
1.64411e-06
1.6122e-06
1.61232e-06
1.47005e-06
1.29717e-06
1.30852e-06
1.37539e-06
1.53289e-06
1.48077e-06
1.49487e-06
1.82419e-06
1.73064e-06
1.30592e-06
1.04784e-06
9.04747e-07
9.67741e-07
1.21481e-06
1.43748e-06
1.61735e-06
1.61943e-06
1.81382e-06
1.97907e-06
1.73617e-06
1.51173e-06
2.41914e-06
2.73367e-06
3.39745e-06
3.64343e-06
3.19624e-06
2.6414e-06
2.15347e-06
2.0885e-06
2.29788e-06
2.45229e-06
2.42677e-06
2.68934e-06
3.37575e-06
3.81085e-06
3.63556e-06
3.07491e-06
2.86947e-06
2.75785e-06
2.76311e-06
2.52528e-06
2.22978e-06
2.22763e-06
2.25562e-06
2.44426e-06
2.26687e-06
2.34123e-06
2.87176e-06
2.66582e-06
2.04082e-06
1.72333e-06
1.55921e-06
1.62851e-06
1.96153e-06
2.303e-06
2.60335e-06
2.60297e-06
2.95855e-06
3.09645e-06
2.69991e-06
2.49681e-06
3.93438e-06
4.40191e-06
5.26577e-06
5.59699e-06
4.92262e-06
4.14102e-06
3.434e-06
3.37002e-06
3.73813e-06
3.92742e-06
3.98518e-06
4.56346e-06
5.57609e-06
6.16966e-06
5.90913e-06
5.13077e-06
4.79211e-06
4.59782e-06
4.55889e-06
4.14288e-06
3.67458e-06
3.61974e-06
3.57496e-06
3.78483e-06
3.44335e-06
3.63116e-06
4.45988e-06
4.07592e-06
3.18599e-06
2.79525e-06
2.58377e-06
2.65299e-06
3.07396e-06
3.58873e-06
4.05452e-06
4.09897e-06
4.70166e-06
4.75163e-06
4.16212e-06
4.02411e-06
6.24679e-06
6.91217e-06
8.03765e-06
8.503e-06
7.47362e-06
6.39026e-06
5.40462e-06
5.35743e-06
5.93482e-06
6.17368e-06
6.41459e-06
7.50703e-06
9.0343e-06
9.85053e-06
9.44578e-06
8.36823e-06
7.8448e-06
7.56032e-06
7.34971e-06
6.5977e-06
5.8857e-06
5.68737e-06
5.53753e-06
5.73885e-06
5.20742e-06
5.58249e-06
6.84413e-06
6.14298e-06
4.95255e-06
4.45973e-06
4.12841e-06
4.18489e-06
4.67641e-06
5.44742e-06
6.15289e-06
6.33095e-06
7.2908e-06
7.17002e-06
6.36433e-06
6.33053e-06
9.62654e-06
1.05519e-05
1.19932e-05
1.25755e-05
1.10548e-05
9.57917e-06
8.26941e-06
8.24454e-06
9.08895e-06
9.43589e-06
9.99945e-06
1.19447e-05
1.4274e-05
1.53362e-05
1.4672e-05
1.31915e-05
1.23414e-05
1.1981e-05
1.12727e-05
1.00109e-05
9.00238e-06
8.56965e-06
8.28261e-06
8.45519e-06
7.72115e-06
8.40274e-06
1.02971e-05
9.15322e-06
7.55865e-06
6.89246e-06
6.35955e-06
6.34917e-06
6.87018e-06
8.05126e-06
9.10398e-06
9.5781e-06
1.102e-05
1.06126e-05
9.59101e-06
9.62668e-06
1.45098e-05
1.5618e-05
1.74546e-05
1.82123e-05
1.59735e-05
1.39295e-05
1.22692e-05
1.21906e-05
1.33663e-05
1.39795e-05
1.52311e-05
1.84083e-05
2.17776e-05
2.33215e-05
2.22188e-05
2.02047e-05
1.86445e-05
1.80766e-05
1.65225e-05
1.45963e-05
1.32714e-05
1.25892e-05
1.20476e-05
1.2135e-05
1.11974e-05
1.23293e-05
1.51145e-05
1.33534e-05
1.12327e-05
1.02723e-05
9.44278e-06
9.26697e-06
9.78817e-06
1.16402e-05
1.31922e-05
1.41122e-05
1.61602e-05
1.5319e-05
1.41299e-05
1.43141e-05
2.04696e-05
2.14899e-05
2.37562e-05
2.48379e-05
2.17882e-05
1.91739e-05
1.71531e-05
1.69266e-05
1.80849e-05
1.93551e-05
2.19568e-05
2.68526e-05
3.12322e-05
3.36119e-05
3.18285e-05
2.92901e-05
2.68953e-05
2.54524e-05
2.2695e-05
1.98713e-05
1.81811e-05
1.72932e-05
1.65171e-05
1.65741e-05
1.54268e-05
1.71074e-05
2.11962e-05
1.869e-05
1.58863e-05
1.44726e-05
1.34459e-05
1.30525e-05
1.35028e-05
1.62265e-05
1.8559e-05
2.0093e-05
2.2721e-05
2.12472e-05
1.98659e-05
1.99932e-05
2.70971e-05
2.7824e-05
3.08451e-05
3.23577e-05
2.8296e-05
2.50151e-05
2.25934e-05
2.22542e-05
2.31295e-05
2.56345e-05
3.03999e-05
3.76853e-05
4.32191e-05
4.69996e-05
4.45559e-05
4.1418e-05
3.72807e-05
3.41323e-05
2.97157e-05
2.58177e-05
2.37218e-05
2.24574e-05
2.12286e-05
2.10089e-05
2.00973e-05
2.2651e-05
2.80098e-05
2.47398e-05
2.10434e-05
1.92912e-05
1.86268e-05
1.77607e-05
1.80082e-05
2.17608e-05
2.49722e-05
2.711e-05
3.04103e-05
2.80844e-05
2.60814e-05
2.60918e-05
3.29663e-05
3.36553e-05
3.79709e-05
4.04635e-05
3.53446e-05
3.13673e-05
2.86555e-05
2.80089e-05
2.87066e-05
3.20818e-05
3.93005e-05
4.9808e-05
5.69958e-05
6.15688e-05
5.8346e-05
5.49567e-05
4.82521e-05
4.36097e-05
3.73258e-05
3.28837e-05
3.01594e-05
2.83928e-05
2.61702e-05
2.51904e-05
2.44595e-05
2.74809e-05
3.46761e-05
3.07607e-05
2.54458e-05
2.36351e-05
2.33982e-05
2.18135e-05
2.27485e-05
2.71903e-05
3.15098e-05
3.41381e-05
3.91164e-05
3.52225e-05
3.25651e-05
3.21341e-05
3.8122e-05
3.91374e-05
4.45189e-05
4.74901e-05
4.23114e-05
3.77018e-05
3.41957e-05
3.24168e-05
3.32656e-05
3.70652e-05
4.61132e-05
5.94151e-05
6.71052e-05
7.15631e-05
6.93631e-05
6.61195e-05
5.81235e-05
5.17787e-05
4.40968e-05
3.99844e-05
3.65189e-05
3.37186e-05
2.92225e-05
2.79416e-05
2.86472e-05
3.23468e-05
4.1993e-05
3.59191e-05
2.88359e-05
2.77924e-05
2.78448e-05
2.59263e-05
2.71707e-05
3.22693e-05
3.79102e-05
4.19185e-05
4.91359e-05
4.33863e-05
3.93949e-05
3.77837e-05
4.17576e-05
4.29428e-05
4.85721e-05
5.25546e-05
4.78221e-05
4.32731e-05
3.85728e-05
3.53411e-05
3.61895e-05
3.96319e-05
4.94948e-05
6.57595e-05
7.19559e-05
7.55496e-05
7.40185e-05
7.10067e-05
6.20939e-05
5.52273e-05
4.78243e-05
4.43342e-05
4.02322e-05
3.68041e-05
3.07818e-05
3.04503e-05
3.21279e-05
3.56049e-05
4.86636e-05
4.11185e-05
3.29122e-05
3.23957e-05
3.20199e-05
2.90114e-05
2.93407e-05
3.44468e-05
4.04382e-05
4.62989e-05
5.44805e-05
4.82278e-05
4.34515e-05
4.10889e-05
4.43307e-05
4.51235e-05
5.03959e-05
5.53802e-05
5.09336e-05
4.6911e-05
4.09673e-05
3.68663e-05
3.7588e-05
4.05903e-05
5.03829e-05
6.92912e-05
7.2646e-05
7.63234e-05
7.48152e-05
7.13949e-05
6.13517e-05
5.53164e-05
4.87535e-05
4.60628e-05
4.2038e-05
3.91759e-05
3.12107e-05
3.07721e-05
3.21999e-05
3.49034e-05
5.07692e-05
4.18951e-05
3.28785e-05
3.49184e-05
3.42374e-05
2.92326e-05
2.93895e-05
3.47109e-05
4.01451e-05
4.66114e-05
5.49111e-05
5.01667e-05
4.5279e-05
4.33528e-05
4.53448e-05
4.58782e-05
5.15299e-05
5.72942e-05
5.28935e-05
4.89568e-05
4.27096e-05
3.94259e-05
4.00866e-05
4.25589e-05
5.11703e-05
7.34711e-05
7.2828e-05
7.58543e-05
7.39003e-05
7.00069e-05
5.97101e-05
5.45831e-05
4.98511e-05
4.7202e-05
4.34407e-05
4.25044e-05
3.20007e-05
3.1363e-05
3.18006e-05
3.39009e-05
5.19357e-05
4.36176e-05
3.29954e-05
3.88096e-05
3.68368e-05
2.9422e-05
2.98155e-05
3.53842e-05
3.96905e-05
4.61377e-05
5.46283e-05
5.08629e-05
4.60467e-05
4.43461e-05
4.62811e-05
4.64663e-05
5.28137e-05
5.92466e-05
5.44293e-05
4.97878e-05
4.46037e-05
4.17979e-05
4.25395e-05
4.37186e-05
5.14967e-05
7.50454e-05
7.18552e-05
7.45024e-05
7.21287e-05
6.78455e-05
5.81891e-05
5.44702e-05
5.08482e-05
4.82609e-05
4.50116e-05
4.71324e-05
3.34088e-05
3.20628e-05
3.25421e-05
3.33734e-05
5.27433e-05
4.64277e-05
3.34815e-05
4.36072e-05
3.85978e-05
2.94797e-05
2.99755e-05
3.61514e-05
3.90819e-05
4.57728e-05
5.40719e-05
4.94324e-05
4.64563e-05
4.51165e-05
4.62578e-05
4.67901e-05
5.34684e-05
6.07557e-05
5.53001e-05
5.09603e-05
4.642e-05
4.39238e-05
4.46005e-05
4.39024e-05
5.13677e-05
7.27175e-05
6.90427e-05
7.32422e-05
7.06094e-05
6.63212e-05
5.73106e-05
5.48477e-05
5.14894e-05
4.91478e-05
4.57334e-05
4.95332e-05
3.38271e-05
3.21828e-05
3.24428e-05
3.36124e-05
5.26857e-05
4.75858e-05
3.38091e-05
4.64423e-05
3.93908e-05
2.98215e-05
3.01968e-05
3.69196e-05
3.84757e-05
4.6428e-05
5.43562e-05
4.78983e-05
4.61232e-05
4.50879e-05
4.53364e-05
4.62492e-05
5.27815e-05
6.07589e-05
5.50651e-05
5.18348e-05
4.72787e-05
4.4958e-05
4.57497e-05
4.40361e-05
5.14586e-05
6.97965e-05
6.71966e-05
7.20811e-05
6.90435e-05
6.45664e-05
5.67138e-05
5.50351e-05
5.19571e-05
4.90746e-05
4.687e-05
4.98834e-05
3.39278e-05
3.19751e-05
3.16024e-05
3.29199e-05
5.1275e-05
4.81304e-05
3.31026e-05
4.67621e-05
3.827e-05
2.9757e-05
3.02936e-05
3.79687e-05
3.80292e-05
4.73253e-05
5.52838e-05
4.57626e-05
4.47867e-05
4.42761e-05
4.41835e-05
4.52604e-05
5.15398e-05
6.00425e-05
5.42209e-05
5.14199e-05
4.73393e-05
4.51617e-05
4.58526e-05
4.37651e-05
5.04293e-05
6.60408e-05
6.58449e-05
7.09774e-05
6.77779e-05
6.35219e-05
5.59376e-05
5.48399e-05
5.1618e-05
4.89793e-05
4.62983e-05
4.99387e-05
3.36393e-05
3.15902e-05
3.05479e-05
3.19572e-05
5.00446e-05
4.99489e-05
3.27339e-05
4.61834e-05
3.74926e-05
2.95039e-05
3.01437e-05
3.86245e-05
3.77273e-05
4.74094e-05
5.48433e-05
4.46829e-05
4.37402e-05
4.32717e-05
4.34493e-05
4.45393e-05
5.04797e-05
5.92061e-05
5.36039e-05
5.10071e-05
4.69168e-05
4.46682e-05
4.53715e-05
4.35625e-05
4.96541e-05
6.42384e-05
6.46514e-05
6.97346e-05
6.64904e-05
6.20417e-05
5.51152e-05
5.37613e-05
5.11509e-05
4.83517e-05
4.59778e-05
4.91839e-05
3.34568e-05
3.1278e-05
2.99547e-05
3.11947e-05
4.86467e-05
4.98806e-05
3.24893e-05
4.4622e-05
3.73578e-05
2.92175e-05
2.99034e-05
3.8508e-05
3.74602e-05
4.73484e-05
5.40929e-05
4.37949e-05
4.31717e-05
4.25534e-05
4.29653e-05
4.40624e-05
4.99156e-05
5.85772e-05
5.30394e-05
5.05606e-05
4.65528e-05
4.41224e-05
4.48058e-05
4.31169e-05
4.8992e-05
6.33717e-05
6.38457e-05
6.89651e-05
6.57726e-05
6.12726e-05
5.45471e-05
5.2922e-05
5.04355e-05
4.76518e-05
4.50904e-05
4.82393e-05
3.30923e-05
3.08942e-05
2.94504e-05
3.07884e-05
4.77025e-05
4.89108e-05
3.20325e-05
4.35757e-05
3.69935e-05
2.87991e-05
2.95085e-05
3.79031e-05
3.70924e-05
4.68318e-05
5.37163e-05
4.31027e-05
4.25534e-05
4.19829e-05
4.26498e-05
4.38155e-05
4.96601e-05
5.82833e-05
5.28806e-05
5.03362e-05
4.63624e-05
4.39035e-05
4.44874e-05
4.28396e-05
4.86122e-05
6.29552e-05
6.34652e-05
6.85804e-05
6.54022e-05
6.08788e-05
5.42453e-05
5.25821e-05
5.01808e-05
4.73376e-05
4.4792e-05
4.79051e-05
3.29238e-05
3.06728e-05
2.91886e-05
3.0506e-05
4.73035e-05
4.83808e-05
3.17991e-05
4.30477e-05
3.67465e-05
2.85979e-05
2.93023e-05
3.75906e-05
3.68803e-05
4.65658e-05
5.35146e-05
4.29034e-05
4.2225e-05
4.17565e-05
7.58595e-08
8.23668e-08
8.57936e-08
7.38892e-08
7.05005e-08
7.20647e-08
6.43389e-08
5.46995e-08
4.76778e-08
4.09584e-08
3.87308e-08
3.41645e-08
2.82512e-08
3.01672e-08
2.88789e-08
2.37427e-08
2.97612e-08
3.07448e-08
2.38551e-08
3.29665e-08
3.86022e-08
3.38291e-08
4.52875e-08
5.7587e-08
5.76116e-08
6.30359e-08
7.67026e-08
8.41063e-08
7.78493e-08
7.92653e-08
9.28671e-08
8.8506e-08
7.82536e-08
8.98974e-08
9.21464e-08
8.14881e-08
8.44531e-08
8.84409e-08
8.75437e-08
8.21489e-08
8.70353e-08
8.8401e-08
9.21022e-08
8.44768e-08
7.68964e-08
7.94215e-08
7.3513e-08
5.76599e-08
4.91261e-08
4.48209e-08
3.6009e-08
3.00135e-08
3.05385e-08
2.59783e-08
2.09982e-08
2.68374e-08
2.81239e-08
2.12137e-08
2.91837e-08
3.47979e-08
2.5695e-08
3.96454e-08
5.73756e-08
5.16887e-08
6.33281e-08
8.00377e-08
7.94004e-08
8.54968e-08
8.32617e-08
7.85765e-08
8.97317e-08
8.38947e-08
7.35015e-08
8.95395e-08
8.99776e-08
7.76993e-08
8.97103e-08
9.53848e-08
8.71504e-08
8.72114e-08
9.65165e-08
9.8541e-08
1.01081e-07
9.46043e-08
8.70501e-08
8.94929e-08
8.31676e-08
6.28962e-08
5.18477e-08
4.68067e-08
3.30257e-08
2.93868e-08
3.33246e-08
2.14964e-08
1.76329e-08
3.44783e-08
2.77123e-08
1.73561e-08
4.13964e-08
3.72524e-08
1.96873e-08
5.78756e-08
7.38205e-08
5.33921e-08
8.02349e-08
1.01751e-07
8.82178e-08
9.38777e-08
8.81544e-08
8.0267e-08
8.88732e-08
7.63187e-08
7.15796e-08
9.02194e-08
8.2624e-08
7.71429e-08
9.88191e-08
9.96177e-08
8.901e-08
9.34941e-08
1.04763e-07
1.12575e-07
1.11243e-07
1.04493e-07
1.00608e-07
1.02976e-07
9.59607e-08
7.07448e-08
5.57574e-08
4.62393e-08
3.06102e-08
3.32065e-08
3.43663e-08
1.594e-08
2.11647e-08
4.40635e-08
2.68909e-08
2.22472e-08
5.51846e-08
3.3985e-08
2.21139e-08
8.2636e-08
8.36068e-08
5.84026e-08
9.98974e-08
1.17184e-07
9.97912e-08
1.04524e-07
8.87558e-08
8.40243e-08
8.96421e-08
6.76713e-08
7.38147e-08
8.98107e-08
7.30511e-08
8.35624e-08
1.09835e-07
1.01216e-07
9.33476e-08
9.89494e-08
1.15785e-07
1.30368e-07
1.21701e-07
1.16028e-07
1.16728e-07
1.21224e-07
1.15094e-07
8.13209e-08
6.01845e-08
4.40107e-08
3.17539e-08
4.19312e-08
3.2771e-08
1.21068e-08
3.30682e-08
5.32782e-08
2.91419e-08
3.82634e-08
6.53723e-08
2.5006e-08
3.46991e-08
1.0688e-07
8.45016e-08
6.49415e-08
1.18276e-07
1.27672e-07
1.18171e-07
1.16807e-07
8.85912e-08
9.25349e-08
9.07405e-08
6.09846e-08
7.95051e-08
8.61082e-08
6.62269e-08
9.65801e-08
1.20355e-07
1.03472e-07
1.00532e-07
1.02684e-07
1.33921e-07
1.5055e-07
1.32768e-07
1.3049e-07
1.34357e-07
1.4751e-07
1.42651e-07
9.52022e-08
6.57501e-08
4.23655e-08
4.06543e-08
5.6217e-08
3.076e-08
1.60239e-08
5.30792e-08
6.34253e-08
4.12931e-08
6.44558e-08
6.87812e-08
1.7181e-08
5.86837e-08
1.3229e-07
8.38081e-08
7.41917e-08
1.36219e-07
1.452e-07
1.48014e-07
1.33467e-07
9.44714e-08
1.0529e-07
8.94045e-08
5.93669e-08
8.64764e-08
7.94656e-08
6.54173e-08
1.13534e-07
1.29652e-07
1.1145e-07
1.09719e-07
1.06413e-07
1.60741e-07
1.72056e-07
1.46964e-07
1.48515e-07
1.55384e-07
1.88223e-07
1.81151e-07
1.1574e-07
7.55572e-08
4.68977e-08
6.32423e-08
7.78796e-08
3.38374e-08
3.40896e-08
7.97926e-08
8.0044e-08
7.14279e-08
9.88008e-08
6.83024e-08
1.91884e-08
9.57498e-08
1.61851e-07
9.02603e-08
8.88621e-08
1.59563e-07
1.80275e-07
1.94774e-07
1.59317e-07
1.10276e-07
1.19287e-07
8.74265e-08
6.62743e-08
9.5787e-08
7.4022e-08
7.30768e-08
1.33903e-07
1.43786e-07
1.30475e-07
1.21493e-07
1.14514e-07
1.98519e-07
1.98625e-07
1.69288e-07
1.73322e-07
1.8798e-07
2.51749e-07
2.36183e-07
1.49709e-07
9.56722e-08
6.77551e-08
1.0738e-07
1.11118e-07
5.1844e-08
7.03519e-08
1.13381e-07
1.12179e-07
1.2606e-07
1.41022e-07
7.24798e-08
3.97871e-08
1.51801e-07
2.07246e-07
1.12828e-07
1.1434e-07
1.98991e-07
2.43743e-07
2.66296e-07
2.04628e-07
1.37868e-07
1.35084e-07
9.43643e-08
8.7761e-08
1.14615e-07
7.68779e-08
9.19868e-08
1.61604e-07
1.75069e-07
1.67122e-07
1.40054e-07
1.32757e-07
2.54142e-07
2.42155e-07
2.10981e-07
2.14463e-07
2.45959e-07
3.4936e-07
3.21089e-07
2.11333e-07
1.39907e-07
1.22269e-07
1.8422e-07
1.6702e-07
9.93249e-08
1.28593e-07
1.61035e-07
1.73397e-07
2.15457e-07
2.00471e-07
9.56578e-08
9.05207e-08
2.43052e-07
2.8712e-07
1.67374e-07
1.63283e-07
2.75316e-07
3.51709e-07
3.7936e-07
2.85587e-07
1.84407e-07
1.63688e-07
1.26736e-07
1.36999e-07
1.56433e-07
9.98144e-08
1.30557e-07
2.09875e-07
2.40708e-07
2.31769e-07
1.7575e-07
1.70136e-07
3.42222e-07
3.24071e-07
2.89137e-07
2.90477e-07
3.50098e-07
4.97542e-07
4.58079e-07
3.24475e-07
2.34692e-07
2.38431e-07
3.1223e-07
2.69159e-07
1.97054e-07
2.18005e-07
2.41025e-07
2.84949e-07
3.59177e-07
3.01142e-07
1.59875e-07
1.93823e-07
3.97724e-07
4.31393e-07
2.79395e-07
2.60393e-07
4.16851e-07
5.28559e-07
5.66465e-07
4.27289e-07
2.64779e-07
2.28073e-07
2.0897e-07
2.39348e-07
2.46703e-07
1.64493e-07
2.09656e-07
3.03468e-07
3.62451e-07
3.45043e-07
2.45429e-07
2.41315e-07
4.93405e-07
4.79583e-07
4.3218e-07
4.33461e-07
5.32158e-07
7.29229e-07
6.85157e-07
5.30579e-07
4.25049e-07
4.59359e-07
5.2478e-07
4.53684e-07
3.68304e-07
3.60342e-07
3.85067e-07
4.80512e-07
5.92325e-07
4.78954e-07
2.99935e-07
3.9371e-07
6.62809e-07
6.9285e-07
4.9273e-07
4.49212e-07
6.65928e-07
8.15842e-07
8.83606e-07
6.72578e-07
4.12577e-07
3.66434e-07
3.81215e-07
4.37267e-07
4.27035e-07
3.10942e-07
3.64661e-07
4.78594e-07
5.7474e-07
5.43717e-07
3.78395e-07
3.74736e-07
7.59904e-07
7.58864e-07
6.85577e-07
6.93942e-07
8.38311e-07
1.09849e-06
1.0609e-06
8.92915e-07
7.82019e-07
8.47342e-07
8.77616e-07
7.73576e-07
6.46931e-07
5.98766e-07
6.38354e-07
8.11641e-07
9.76334e-07
7.86043e-07
5.71911e-07
7.58174e-07
1.09813e-06
1.14123e-06
8.62717e-07
8.02077e-07
1.08125e-06
1.28571e-06
1.41562e-06
1.08434e-06
6.80676e-07
6.36309e-07
7.06901e-07
7.99803e-07
7.61973e-07
6.07258e-07
6.53419e-07
7.84192e-07
9.34723e-07
8.81991e-07
6.2052e-07
6.1921e-07
1.23445e-06
1.24063e-06
1.1161e-06
1.14763e-06
1.33721e-06
1.68633e-06
1.67117e-06
1.50507e-06
1.40897e-06
1.49124e-06
1.45462e-06
1.29539e-06
1.08528e-06
1.00225e-06
1.07441e-06
1.3507e-06
1.60275e-06
1.29442e-06
1.0661e-06
1.38889e-06
1.81784e-06
1.88954e-06
1.48095e-06
1.42997e-06
1.74689e-06
2.05853e-06
2.29032e-06
1.7622e-06
1.15533e-06
1.12292e-06
1.28161e-06
1.42506e-06
1.34694e-06
1.14679e-06
1.15718e-06
1.29024e-06
1.53204e-06
1.4385e-06
1.05021e-06
1.055e-06
2.04757e-06
2.02684e-06
1.82075e-06
1.89819e-06
2.13021e-06
2.61378e-06
2.63551e-06
2.50149e-06
2.45425e-06
2.52115e-06
2.37948e-06
2.11193e-06
1.76163e-06
1.65877e-06
1.78251e-06
2.20233e-06
2.57349e-06
2.10318e-06
1.89872e-06
2.41104e-06
2.95873e-06
3.07645e-06
2.46774e-06
2.47067e-06
2.81162e-06
3.31252e-06
3.68576e-06
2.84814e-06
1.96895e-06
1.95667e-06
2.24856e-06
2.45974e-06
2.32294e-06
2.06733e-06
1.98659e-06
2.10183e-06
2.48205e-06
2.32294e-06
1.77985e-06
1.79256e-06
3.37028e-06
3.2499e-06
2.92585e-06
3.08996e-06
3.35918e-06
4.01906e-06
4.11349e-06
4.04684e-06
4.08885e-06
4.10256e-06
3.79315e-06
3.32266e-06
2.75867e-06
2.66851e-06
2.86325e-06
3.49664e-06
4.02512e-06
3.34195e-06
3.21092e-06
3.98017e-06
4.70592e-06
4.87815e-06
3.98806e-06
4.09402e-06
4.45496e-06
5.25879e-06
5.81778e-06
4.50849e-06
3.28333e-06
3.30392e-06
3.78173e-06
4.08518e-06
3.86234e-06
3.53226e-06
3.28734e-06
3.36407e-06
3.94008e-06
3.6712e-06
2.97415e-06
3.00802e-06
5.4259e-06
5.07056e-06
4.60138e-06
4.8993e-06
5.20851e-06
6.08327e-06
6.30896e-06
6.37205e-06
6.51746e-06
6.43935e-06
5.84959e-06
5.05409e-06
4.18239e-06
4.14331e-06
4.45887e-06
5.42151e-06
6.0997e-06
5.16067e-06
5.22349e-06
6.32389e-06
7.31414e-06
7.51368e-06
6.27512e-06
6.51888e-06
6.9768e-06
8.2001e-06
9.00118e-06
7.01613e-06
5.34611e-06
5.39949e-06
6.09159e-06
6.51714e-06
6.17931e-06
5.75647e-06
5.24264e-06
5.24308e-06
6.1007e-06
5.68047e-06
4.87691e-06
4.94046e-06
8.47258e-06
7.65787e-06
7.06394e-06
7.54156e-06
7.90373e-06
9.00541e-06
9.41417e-06
9.71169e-06
9.97094e-06
9.77761e-06
8.70289e-06
7.40717e-06
6.07569e-06
6.16888e-06
6.68779e-06
8.12249e-06
8.92306e-06
7.70836e-06
8.09904e-06
9.6178e-06
1.09218e-05
1.10769e-05
9.50455e-06
9.98398e-06
1.06723e-05
1.23994e-05
1.3503e-05
1.06497e-05
8.45531e-06
8.53505e-06
9.47438e-06
1.00068e-05
9.45908e-06
8.95355e-06
8.02861e-06
7.89433e-06
9.12388e-06
8.5292e-06
7.72468e-06
7.86383e-06
1.27103e-05
1.11723e-05
1.04689e-05
1.11951e-05
1.16485e-05
1.29297e-05
1.35344e-05
1.42087e-05
1.45421e-05
1.41817e-05
1.23867e-05
1.04587e-05
8.5945e-06
8.89692e-06
9.80507e-06
1.19268e-05
1.27528e-05
1.13613e-05
1.2292e-05
1.43578e-05
1.59527e-05
1.59644e-05
1.40668e-05
1.48676e-05
1.59631e-05
1.81641e-05
1.96589e-05
1.57013e-05
1.29176e-05
1.29698e-05
1.41522e-05
1.47522e-05
1.39294e-05
1.33367e-05
1.18344e-05
1.15532e-05
1.32387e-05
1.25242e-05
1.18258e-05
1.21284e-05
1.84347e-05
1.58155e-05
1.49657e-05
1.60673e-05
1.66153e-05
1.79318e-05
1.88737e-05
2.00255e-05
2.04464e-05
1.97963e-05
1.69247e-05
1.42743e-05
1.17936e-05
1.2302e-05
1.36848e-05
1.66602e-05
1.74184e-05
1.61738e-05
1.78777e-05
2.0582e-05
2.23443e-05
2.2342e-05
2.02632e-05
2.15823e-05
2.32598e-05
2.58193e-05
2.7935e-05
2.28495e-05
1.93817e-05
1.90386e-05
2.02579e-05
2.08076e-05
1.96926e-05
1.91798e-05
1.68253e-05
1.62524e-05
1.85558e-05
1.78549e-05
1.75309e-05
1.81952e-05
2.58159e-05
2.17272e-05
2.07102e-05
2.22489e-05
2.26817e-05
2.38174e-05
2.52185e-05
2.6665e-05
2.74979e-05
2.62674e-05
2.19761e-05
1.85745e-05
1.55196e-05
1.59742e-05
1.79815e-05
2.16119e-05
2.24008e-05
2.21118e-05
2.48897e-05
2.82884e-05
3.04599e-05
3.09251e-05
2.87265e-05
3.06565e-05
3.26766e-05
3.56234e-05
3.87313e-05
3.24859e-05
2.84086e-05
2.71687e-05
2.81497e-05
2.84693e-05
2.7331e-05
2.68649e-05
2.31274e-05
2.20629e-05
2.49002e-05
2.44762e-05
2.49229e-05
2.62437e-05
3.43048e-05
2.81796e-05
2.65167e-05
2.86689e-05
2.8461e-05
2.9427e-05
3.15076e-05
3.34147e-05
3.50579e-05
3.26293e-05
2.69199e-05
2.29088e-05
1.94662e-05
1.9474e-05
2.26448e-05
2.66693e-05
2.74875e-05
2.88534e-05
3.31767e-05
3.75409e-05
4.08011e-05
4.20574e-05
3.97798e-05
4.24947e-05
4.46086e-05
4.83254e-05
5.2936e-05
4.54704e-05
4.00814e-05
3.77041e-05
3.85e-05
3.85611e-05
3.74934e-05
3.60687e-05
3.01047e-05
2.83064e-05
3.20514e-05
3.25999e-05
3.40521e-05
3.5811e-05
4.24084e-05
3.41887e-05
3.13792e-05
3.44177e-05
3.28004e-05
3.41608e-05
3.69915e-05
3.99473e-05
4.25048e-05
3.86842e-05
3.19683e-05
2.72214e-05
2.33739e-05
2.26492e-05
2.69417e-05
3.15566e-05
3.27972e-05
3.58838e-05
4.1913e-05
4.73211e-05
5.25636e-05
5.51085e-05
5.36522e-05
5.74957e-05
5.91063e-05
6.35369e-05
6.98144e-05
6.18134e-05
5.39431e-05
4.98958e-05
5.06607e-05
5.13838e-05
4.98731e-05
4.59832e-05
3.73016e-05
3.47482e-05
4.01629e-05
4.17036e-05
4.34807e-05
4.53424e-05
4.99906e-05
3.9772e-05
3.53779e-05
3.98714e-05
3.62972e-05
3.90959e-05
4.2925e-05
4.75963e-05
5.05389e-05
4.48643e-05
3.66893e-05
3.1417e-05
2.7646e-05
2.58614e-05
3.05978e-05
3.55779e-05
3.80993e-05
4.24572e-05
4.97337e-05
5.55738e-05
6.34667e-05
6.77449e-05
6.77972e-05
7.34806e-05
7.52582e-05
8.10421e-05
8.83538e-05
7.90847e-05
6.82192e-05
6.28831e-05
6.40835e-05
6.60997e-05
6.38774e-05
5.72504e-05
4.5592e-05
4.24006e-05
5.00778e-05
5.14084e-05
5.31746e-05
5.43324e-05
5.71343e-05
4.56552e-05
3.91668e-05
4.58672e-05
3.99479e-05
4.44817e-05
4.94058e-05
5.58151e-05
5.87305e-05
5.07835e-05
4.11845e-05
3.57104e-05
3.17284e-05
2.93366e-05
3.38937e-05
3.93178e-05
4.3577e-05
4.89609e-05
5.73356e-05
6.25895e-05
7.27463e-05
7.75604e-05
7.86559e-05
8.74827e-05
8.95441e-05
9.7123e-05
0.000103594
9.32786e-05
8.02607e-05
7.42482e-05
7.58981e-05
7.87972e-05
7.70665e-05
6.97411e-05
5.54379e-05
5.11141e-05
6.0512e-05
6.07208e-05
6.22602e-05
6.27299e-05
6.21754e-05
5.04664e-05
4.26956e-05
5.12391e-05
4.39527e-05
4.89005e-05
5.42656e-05
6.12177e-05
6.43222e-05
5.49041e-05
4.46254e-05
3.96227e-05
3.51672e-05
3.21953e-05
3.63789e-05
4.20433e-05
4.81427e-05
5.35777e-05
6.31294e-05
6.68342e-05
7.82272e-05
8.46285e-05
8.35781e-05
9.66986e-05
9.75995e-05
0.000108543
0.000114036
0.000102276
8.71454e-05
8.12778e-05
8.33071e-05
8.69435e-05
8.55658e-05
7.86357e-05
6.19922e-05
5.73568e-05
6.8105e-05
6.70589e-05
6.7931e-05
6.87116e-05
6.5291e-05
5.35932e-05
4.43644e-05
5.3132e-05
4.60314e-05
5.12098e-05
5.66701e-05
6.34091e-05
6.62695e-05
5.67817e-05
4.70734e-05
4.18893e-05
3.85121e-05
3.45165e-05
3.81663e-05
4.34813e-05
5.00431e-05
5.49056e-05
6.56996e-05
6.82251e-05
8.03058e-05
8.69237e-05
8.36437e-05
9.90342e-05
9.93085e-05
0.00011398
0.000119345
0.000106511
9.05452e-05
8.53082e-05
8.73082e-05
9.14044e-05
8.99263e-05
8.42674e-05
6.51127e-05
6.09248e-05
7.14838e-05
6.91711e-05
7.01614e-05
7.23104e-05
6.70482e-05
5.44595e-05
4.50624e-05
5.29909e-05
4.72266e-05
5.29037e-05
5.77787e-05
6.38885e-05
6.65952e-05
5.71784e-05
4.82798e-05
4.24609e-05
3.78956e-05
3.57727e-05
3.9129e-05
4.40601e-05
5.01601e-05
5.46196e-05
6.64853e-05
6.90526e-05
8.15774e-05
8.72113e-05
8.18959e-05
9.58644e-05
9.83184e-05
0.000114015
0.000120684
0.000108119
9.20692e-05
8.85286e-05
9.04651e-05
9.47154e-05
9.23729e-05
8.83634e-05
6.69263e-05
6.48541e-05
7.34603e-05
6.94432e-05
7.0205e-05
7.37629e-05
6.78576e-05
5.4773e-05
4.48785e-05
5.30352e-05
4.66441e-05
5.2553e-05
5.83422e-05
6.38844e-05
6.68313e-05
5.78108e-05
4.97756e-05
4.3536e-05
3.87015e-05
3.66955e-05
4.02095e-05
4.47996e-05
4.98787e-05
5.51978e-05
6.69896e-05
6.99831e-05
8.30601e-05
8.77395e-05
8.18202e-05
9.4233e-05
9.81971e-05
0.000113146
0.000122484
0.000108985
9.22695e-05
9.06491e-05
9.23407e-05
9.64318e-05
9.3319e-05
8.98016e-05
6.72483e-05
6.75357e-05
7.58067e-05
6.90646e-05
6.95505e-05
7.42171e-05
6.79189e-05
5.51679e-05
4.47986e-05
5.36259e-05
4.63289e-05
5.23588e-05
5.79384e-05
6.36146e-05
6.61047e-05
5.76729e-05
4.97806e-05
4.37298e-05
3.88286e-05
3.73246e-05
4.02917e-05
4.45579e-05
4.9357e-05
5.53978e-05
6.61552e-05
6.98879e-05
8.3051e-05
8.8332e-05
8.18449e-05
9.363e-05
9.803e-05
0.000112205
0.000122583
0.000109294
9.162e-05
9.0993e-05
9.26929e-05
9.63749e-05
9.29857e-05
8.97523e-05
6.6885e-05
6.9551e-05
7.7905e-05
6.87558e-05
6.93016e-05
7.40136e-05
6.70197e-05
5.47513e-05
4.44568e-05
5.33252e-05
4.58905e-05
5.15631e-05
5.71915e-05
6.26535e-05
6.52853e-05
5.71698e-05
4.93423e-05
4.35225e-05
3.83836e-05
3.70765e-05
3.97312e-05
4.37337e-05
4.84352e-05
5.47612e-05
6.51109e-05
6.89498e-05
8.17057e-05
8.77006e-05
8.10733e-05