/*--------------------------------*- C++ -*----------------------------------*\
  =========                 |
  \\      /  F ield         | OpenFOAM: The Open Source CFD Toolbox
   \\    /   O peration     | Website:  https://openfoam.org
    \\  /    A nd           | Version:  10
     \\/     M anipulation  |
\*---------------------------------------------------------------------------*/
FoamFile
{
    format      ascii;
    class       volVectorField;
    location    "5";
    object      U_0;
}
// * * * * * * * * * * * * * * * * * * * * * * * * * * * * * * * * * * * * * //

dimensions      [0 1 -1 0 0 0 0];

internalField   nonuniform List<vector> 
25600
(
(1.05754 6.87726e-06 -5.09621e-06)
(1.05753 2.37408e-06 2.54514e-06)
(1.05755 2.95217e-06 4.69254e-06)
(1.05755 -3.55494e-05 -4.04292e-06)
(1.05754 -6.28882e-06 -2.56238e-06)
(1.05754 4.19563e-06 6.04642e-06)
(1.05755 -2.71003e-05 -9.84325e-07)
(1.05756 -1.07583e-05 -3.12228e-06)
(1.05754 6.60454e-06 1.76972e-06)
(1.05754 3.52588e-06 1.25604e-06)
(1.05756 2.00057e-05 1.42252e-06)
(1.05754 -5.35847e-06 -3.25354e-06)
(1.05755 -1.76775e-05 -9.61124e-07)
(1.05756 2.65196e-05 6.8176e-06)
(1.05753 1.61319e-05 -1.03631e-06)
(1.05755 -5.81628e-06 -4.53742e-06)
(1.05756 -4.53617e-07 5.63758e-06)
(1.05753 -1.82112e-05 4.10261e-06)
(1.05755 6.63491e-06 -4.14594e-06)
(1.05755 3.40509e-05 3.37855e-06)
(1.05753 -1.42712e-05 4.59276e-06)
(1.05755 -1.46685e-05 -2.18722e-06)
(1.05755 2.73338e-06 4.63814e-06)
(1.05755 -5.21824e-06 -1.53499e-06)
(1.05755 1.14614e-06 3.05663e-06)
(1.05754 2.26592e-05 6.84909e-06)
(1.05755 6.59803e-06 -8.99598e-06)
(1.05753 -1.77677e-05 6.08932e-06)
(1.05754 -2.41874e-05 4.93013e-06)
(1.05757 1.69171e-05 -5.70851e-06)
(1.05753 -1.0006e-06 6.74537e-06)
(1.05754 1.27282e-05 -2.16065e-06)
(1.05755 1.96927e-05 -9.63919e-07)
(1.05755 -1.20201e-05 5.67168e-06)
(1.05753 1.2387e-05 -4.50144e-06)
(1.05754 -6.11487e-05 2.64313e-06)
(1.05756 2.32873e-05 2.14439e-06)
(1.05753 2.35168e-05 -4.84285e-06)
(1.05754 -3.10294e-05 4.93306e-06)
(1.05756 4.28197e-05 1.19217e-06)
(1.05753 -1.09533e-05 -5.92402e-06)
(1.05755 -1.36734e-06 4.2542e-06)
(1.05757 7.83817e-06 7.43949e-06)
(1.05753 1.09182e-06 -9.561e-06)
(1.05754 -1.35457e-05 -1.47512e-07)
(1.05756 9.21717e-06 9.84989e-06)
(1.05754 -6.92907e-07 -5.3265e-06)
(1.05755 -4.65773e-06 -8.07464e-07)
(1.05753 6.01349e-06 2.57746e-06)
(1.05753 -7.31052e-06 1.01977e-06)
(1.05757 7.22801e-06 1.75384e-06)
(1.05753 -1.90011e-06 -2.68673e-06)
(1.05753 -5.03634e-06 -5.93482e-07)
(1.05757 6.09607e-06 7.0782e-06)
(1.05753 -3.28734e-06 2.3185e-07)
(1.05754 -2.68622e-07 -7.4062e-06)
(1.05756 1.29633e-06 9.59597e-06)
(1.05753 -9.96847e-06 3.79623e-06)
(1.05755 1.02402e-05 -7.27523e-06)
(1.05754 5.69844e-07 8.84891e-06)
(1.05754 -1.38115e-05 4.63027e-07)
(1.05756 1.28035e-05 -4.2433e-07)
(1.05753 -5.74299e-06 7.18715e-06)
(1.05755 -2.58824e-06 -7.42012e-06)
(1.05754 7.58626e-06 1.01322e-05)
(1.05754 -7.06718e-06 3.69839e-06)
(1.05757 8.16158e-06 -1.25171e-05)
(1.05753 -6.46315e-06 1.36279e-05)
(1.05754 5.11893e-06 7.41658e-07)
(1.05755 5.68184e-06 -7.19413e-06)
(1.05754 -1.70126e-05 9.06507e-06)
(1.05754 2.39309e-05 -1.78729e-06)
(1.05754 -9.99253e-06 -2.05313e-06)
(1.05757 -7.84458e-07 3.9165e-06)
(1.05753 1.53399e-05 -1.5788e-06)
(1.05754 -2.35925e-05 1.30405e-06)
(1.05756 2.22633e-05 -7.56125e-08)
(1.05752 -5.60595e-06 -2.09875e-06)
(1.05754 -6.41033e-06 4.27239e-06)
(1.05756 1.68655e-05 -2.54105e-07)
(1.05752 -8.21545e-06 -2.69398e-06)
(1.05755 1.38369e-05 5.06687e-06)
(1.05756 -5.39876e-06 6.54646e-06)
(1.05753 -8.10747e-07 -1.26802e-05)
(1.05754 -1.3039e-05 5.09768e-06)
(1.05756 1.04191e-05 9.23395e-06)
(1.05753 -7.58669e-06 -9.09023e-06)
(1.05756 -9.76212e-07 4.62086e-06)
(1.05753 -2.40135e-06 9.77955e-07)
(1.05754 6.19109e-07 1.48653e-06)
(1.05757 1.32392e-05 2.49026e-06)
(1.05753 -1.6747e-05 -2.73066e-06)
(1.05754 7.52438e-06 1.14482e-06)
(1.05756 7.33324e-06 7.13373e-06)
(1.05753 -1.13357e-05 -1.32051e-06)
(1.05755 8.58999e-06 -6.06712e-06)
(1.05755 1.18791e-06 1.34086e-05)
(1.05754 -1.64847e-05 -1.5307e-06)
(1.05756 1.74102e-05 -4.82183e-06)
(1.05753 -4.15834e-06 1.27692e-05)
(1.05755 -9.49471e-06 -5.80697e-06)
(1.05756 1.46594e-05 4.94027e-06)
(1.05753 -1.71044e-05 6.75633e-06)
(1.05756 7.55401e-06 -1.00121e-05)
(1.05754 3.10325e-06 1.65781e-05)
(1.05754 -4.56062e-06 -3.7194e-06)
(1.05756 1.31052e-05 -9.16757e-06)
(1.05753 -1.65762e-05 1.83624e-05)
(1.05755 1.2845e-05 -6.6436e-06)
(1.05754 1.01046e-06 -2.70565e-06)
(1.05755 -1.22845e-05 8.6156e-06)
(1.05754 2.59675e-05 -3.38166e-06)
(1.05753 -1.45147e-05 1.34042e-07)
(1.05757 1.35503e-05 1.53136e-06)
(1.05752 -2.41982e-06 -1.07016e-07)
(1.05754 -1.43747e-05 1.01231e-06)
(1.05757 2.61803e-05 -2.56057e-06)
(1.05751 -2.22243e-05 1.72934e-06)
(1.05756 1.90519e-05 2.74249e-06)
(1.05755 2.28362e-06 -3.05861e-06)
(1.05754 1.26046e-05 2.25283e-06)
(1.05755 4.83197e-06 2.78988e-06)
(1.05756 -7.61681e-06 5.28291e-06)
(1.05753 7.88644e-06 -1.31966e-05)
(1.05755 -1.26563e-05 1.1496e-05)
(1.05756 1.98189e-05 4.09042e-06)
(1.05753 -1.33764e-05 -8.70824e-06)
(1.05756 7.41487e-06 1.07883e-05)
(1.05753 -5.89872e-06 -3.58678e-06)
(1.05754 6.24372e-06 4.46446e-06)
(1.05756 4.29534e-06 1.78195e-06)
(1.05753 -1.55094e-05 -2.36251e-06)
(1.05755 1.40295e-05 3.61718e-06)
(1.05755 -4.03812e-06 6.36999e-06)
(1.05753 -9.47344e-06 -3.79096e-06)
(1.05755 9.33811e-06 -1.11537e-06)
(1.05754 -1.45656e-06 1.43957e-05)
(1.05755 -1.41257e-05 -8.27092e-06)
(1.05756 1.89704e-05 3.64443e-06)
(1.05752 -1.6587e-05 1.16086e-05)
(1.05756 1.86984e-06 -9.52334e-06)
(1.05755 9.96587e-06 1.23317e-05)
(1.05753 -2.13798e-05 2.84221e-06)
(1.05756 1.75663e-05 -7.64782e-06)
(1.05753 -5.90922e-06 1.88999e-05)
(1.05755 -2.13072e-06 -1.01878e-05)
(1.05756 1.18441e-05 -1.99531e-07)
(1.05753 -1.64786e-05 1.60713e-05)
(1.05756 2.1651e-05 -1.11299e-05)
(1.05753 -7.88942e-06 4.01679e-06)
(1.05756 -1.60383e-06 4.49132e-06)
(1.05754 1.78724e-05 -3.55647e-06)
(1.05753 -1.98074e-05 3.14126e-06)
(1.05758 3.0559e-05 -5.94921e-07)
(1.05751 -2.37526e-05 -2.61921e-08)
(1.05756 1.61125e-05 2.37608e-06)
(1.05755 1.11416e-05 -4.55092e-06)
(1.05752 -2.74023e-05 5.22362e-06)
(1.05756 4.21153e-05 -9.72108e-07)
(1.05754 -2.93813e-05 -4.36817e-06)
(1.05755 3.91725e-05 5.67332e-06)
(1.05754 -1.97291e-05 -1.62701e-06)
(1.05756 7.36331e-06 7.40037e-06)
(1.05752 -2.00465e-06 -1.36836e-05)
(1.05755 -5.00446e-06 1.75054e-05)
(1.05756 2.09782e-05 -3.45747e-06)
(1.05752 -2.62845e-05 -3.48731e-06)
(1.05756 1.8741e-05 1.30994e-05)
(1.05753 -1.20005e-05 -8.03531e-06)
(1.05754 1.27635e-05 1.02727e-05)
(1.05755 -3.86606e-06 -1.56864e-06)
(1.05753 -5.66121e-06 1.39347e-07)
(1.05755 7.01055e-06 5.20247e-06)
(1.05754 -3.06051e-06 5.34022e-06)
(1.05754 -2.75641e-06 -5.56057e-06)
(1.05756 5.08484e-06 5.67745e-06)
(1.05753 -9.29044e-07 1.04973e-05)
(1.05755 -1.29367e-05 -1.13154e-05)
(1.05756 1.98351e-05 1.38806e-05)
(1.05752 -2.18503e-05 4.5851e-06)
(1.05757 1.42642e-05 -7.00977e-06)
(1.05754 -5.01434e-06 1.65707e-05)
(1.05754 -1.50028e-05 -1.82051e-06)
(1.05757 2.10314e-05 -2.07241e-06)
(1.05753 -1.37095e-05 1.6635e-05)
(1.05756 6.35523e-06 -1.1283e-05)
(1.05755 7.12438e-06 6.94847e-06)
(1.05754 -1.33077e-05 9.66849e-06)
(1.05756 2.00574e-05 -9.01699e-06)
(1.05752 -8.69846e-06 7.99403e-06)
(1.05757 9.89115e-06 7.007e-07)
(1.05753 2.29559e-06 -2.03896e-06)
(1.05754 -7.88673e-06 5.44079e-06)
(1.05757 3.18354e-05 -3.20844e-06)
(1.05751 -3.57832e-05 -5.41824e-07)
(1.05757 4.12838e-05 4.63306e-06)
(1.05754 -1.6584e-05 -7.74316e-06)
(1.05753 -5.4816e-06 9.77498e-06)
(1.05756 3.75379e-05 -6.97839e-06)
(1.05753 -4.17119e-05 -1.5569e-06)
(1.05755 4.74052e-05 3.71977e-06)
(1.05753 -4.42744e-05 -3.62517e-06)
(1.05757 3.15892e-05 1.14544e-05)
(1.05752 -1.95396e-05 -1.6709e-05)
(1.05756 1.61204e-05 2.36879e-05)
(1.05755 7.35108e-06 -1.22755e-05)
(1.05753 -2.44619e-05 6.63783e-06)
(1.05757 2.85381e-05 1.00783e-05)
(1.05753 -1.78645e-05 -7.7966e-06)
(1.05755 1.94645e-05 1.53076e-05)
(1.05755 -1.26351e-05 -6.71459e-06)
(1.05754 4.75769e-06 6.04061e-06)
(1.05755 -6.35462e-06 3.31452e-06)
(1.05754 7.92337e-06 5.19168e-06)
(1.05754 -5.78525e-06 -5.90036e-06)
(1.05756 5.38297e-06 1.20583e-05)
(1.05753 -3.35997e-06 3.52794e-06)
(1.05756 -9.39103e-06 -7.71711e-06)
(1.05755 1.9094e-05 1.89752e-05)
(1.05752 -2.5517e-05 -3.2788e-06)
(1.05757 2.42736e-05 1.68096e-06)
(1.05753 -2.27706e-05 1.49003e-05)
(1.05755 8.5098e-07 -1.65837e-06)
(1.05756 1.29022e-05 2.47729e-06)
(1.05752 -1.22496e-05 1.28343e-05)
(1.05756 9.47289e-06 -7.31181e-06)
(1.05754 4.52666e-06 8.52142e-06)
(1.05754 -9.66335e-06 6.5988e-06)
(1.05756 1.75896e-05 -4.24435e-06)
(1.05752 -1.28852e-06 7.14328e-06)
(1.05757 8.99187e-06 3.68832e-07)
(1.05753 -5.04255e-06 -1.50022e-06)
(1.05755 4.57491e-06 7.76058e-06)
(1.05756 2.28904e-05 -6.9162e-06)
(1.05752 -2.92612e-05 1.25269e-06)
(1.05757 5.33531e-05 7.02165e-06)
(1.05752 -4.13213e-05 -1.15918e-05)
(1.05755 2.57205e-05 1.54022e-05)
(1.05754 1.21647e-05 -1.62977e-05)
(1.05754 -2.83638e-05 7.32815e-06)
(1.05754 2.74e-05 -7.22329e-06)
(1.05753 -4.57824e-05 8.33208e-07)
(1.05757 4.59195e-05 1.33921e-05)
(1.05752 -3.63952e-05 -1.87128e-05)
(1.05757 3.97541e-05 3.04416e-05)
(1.05753 -1.90909e-05 -2.00048e-05)
(1.05754 -4.79592e-06 1.95916e-05)
(1.05757 1.95063e-05 9.47106e-07)
(1.05753 -1.53236e-05 -5.53593e-07)
(1.05755 2.41674e-05 1.49215e-05)
(1.05754 -1.81362e-05 -8.79491e-06)
(1.05754 1.10567e-05 1.21848e-05)
(1.05755 -1.50824e-05 -1.23481e-06)
(1.05755 2.26756e-05 7.92154e-06)
(1.05754 -1.54893e-05 -7.2138e-06)
(1.05756 1.59077e-05 1.65552e-05)
(1.05752 -1.4974e-05 -3.91354e-06)
(1.05757 2.50115e-06 1.53055e-06)
(1.05755 1.23579e-05 1.72128e-05)
(1.05752 -2.25183e-05 -5.42354e-06)
(1.05757 2.67243e-05 1.12266e-05)
(1.05753 -3.71509e-05 8.90045e-06)
(1.05756 1.86697e-05 3.59624e-06)
(1.05756 -2.96477e-06 2.85159e-06)
(1.05752 9.70447e-08 1.27474e-05)
(1.05757 3.16791e-06 -3.30829e-06)
(1.05754 8.59303e-06 7.31826e-06)
(1.05754 -1.34865e-05 8.00077e-06)
(1.05756 2.36883e-05 -2.60565e-06)
(1.05752 2.70443e-06 5.88498e-06)
(1.05756 1.85301e-06 2.74899e-06)
(1.05753 -1.50334e-06 -3.02296e-06)
(1.05756 8.61407e-06 1.08715e-05)
(1.05755 1.55362e-05 -1.24348e-05)
(1.05753 -1.28616e-05 7.29785e-06)
(1.05756 4.73375e-05 5.06771e-06)
(1.05752 -5.17246e-05 -1.4292e-05)
(1.05756 5.25444e-05 2.12997e-05)
(1.05753 -1.75971e-05 -2.61728e-05)
(1.05755 3.73366e-06 2.18117e-05)
(1.05752 -3.85755e-06 -2.32308e-05)
(1.05754 -2.4119e-05 1.62134e-05)
(1.05757 3.79558e-05 7.719e-06)
(1.05752 -3.4445e-05 -1.70872e-05)
(1.05757 5.07643e-05 3.42575e-05)
(1.05752 -4.08015e-05 -2.49486e-05)
(1.05755 1.9425e-05 3.07633e-05)
(1.05756 -1.45753e-06 -8.73191e-06)
(1.05753 3.76063e-06 1.31907e-05)
(1.05754 1.72963e-05 8.43693e-06)
(1.05754 -1.98338e-05 -4.34976e-06)
(1.05754 1.06886e-05 1.43065e-05)
(1.05756 -1.46342e-05 -5.36381e-06)
(1.05754 3.08108e-05 1.14427e-05)
(1.05754 -2.10299e-05 -9.4511e-06)
(1.05756 2.59265e-05 2.06929e-05)
(1.05752 -3.07944e-05 -1.0608e-05)
(1.05757 2.23895e-05 1.16481e-05)
(1.05754 -4.4713e-06 9.7499e-06)
(1.05753 -7.132e-06 -4.74957e-07)
(1.05756 1.42154e-05 1.52802e-05)
(1.05753 -3.97838e-05 4.02329e-06)
(1.05756 2.97736e-05 1.15042e-05)
(1.05755 -1.6352e-05 1.16636e-08)
(1.05753 1.79747e-05 1.62649e-05)
(1.05757 -1.15147e-05 -3.36843e-06)
(1.05753 1.89916e-05 8.08441e-06)
(1.05755 -2.35707e-05 1.00832e-05)
(1.05757 4.23595e-05 -3.44942e-06)
(1.05751 -7.42451e-06 8.18962e-06)
(1.05756 3.52023e-06 4.18135e-06)
(1.05753 1.85049e-06 -4.18953e-06)
(1.05756 6.11403e-06 1.43719e-05)
(1.05755 1.7892e-05 -1.78946e-05)
(1.05753 -1.64946e-06 1.72552e-05)
(1.05755 3.5079e-05 -2.33907e-06)
(1.05752 -4.74482e-05 -1.00022e-05)
(1.05757 6.49352e-05 2.30559e-05)
(1.05751 -3.69827e-05 -3.33869e-05)
(1.05756 3.18569e-05 3.71185e-05)
(1.05751 -2.83607e-05 -3.84151e-05)
(1.05755 2.74039e-06 3.44527e-05)
(1.05757 1.39273e-05 -5.77359e-06)
(1.05752 -1.54277e-05 -6.73295e-06)
(1.05757 4.22815e-05 3.32011e-05)
(1.05752 -4.54583e-05 -2.42404e-05)
(1.05756 3.04876e-05 3.76956e-05)
(1.05756 -1.70354e-05 -1.39589e-05)
(1.05754 2.58386e-05 2.54646e-05)
(1.05754 6.41251e-07 -1.44883e-06)
(1.05754 -1.24015e-05 6.76934e-06)
(1.05754 4.83488e-06 8.78206e-06)
(1.05756 -4.52751e-06 -3.76926e-06)
(1.05754 2.96855e-05 1.37933e-05)
(1.05753 -1.60761e-05 -1.10018e-05)
(1.05755 2.55421e-05 2.26223e-05)
(1.05752 -3.83283e-05 -1.58212e-05)
(1.05758 4.11957e-05 2.16738e-05)
(1.05753 -2.21912e-05 2.87534e-07)
(1.05753 1.50948e-05 1.04007e-05)
(1.05755 -1.22135e-05 1.16619e-05)
(1.05754 -2.40426e-05 5.23254e-06)
(1.05757 2.49004e-05 1.74116e-05)
(1.05755 -1.74681e-05 -1.72997e-06)
(1.05753 2.89089e-05 2.15792e-05)
(1.05757 -2.53462e-05 -4.49897e-06)
(1.05753 3.24528e-05 1.30497e-05)
(1.05756 -3.43072e-05 8.5676e-06)
(1.05757 6.59408e-05 -1.66362e-06)
(1.0575 -2.68721e-05 1.11485e-05)
(1.05757 1.77551e-05 3.716e-06)
(1.05753 -9.57942e-06 -3.89008e-06)
(1.05756 1.28045e-05 1.63258e-05)
(1.05754 1.95337e-05 -2.05962e-05)
(1.05754 7.33614e-06 2.61583e-05)
(1.05754 2.51824e-05 -1.2377e-05)
(1.05753 -3.98092e-05 5.37709e-07)
(1.05757 6.68549e-05 1.85157e-05)
(1.05751 -4.30638e-05 -3.2641e-05)
(1.05757 4.91804e-05 4.85287e-05)
(1.0575 -4.26802e-05 -4.56327e-05)
(1.05756 2.16853e-05 5.03874e-05)
(1.05757 -9.3414e-06 -1.87643e-05)
(1.05753 1.08121e-05 8.46686e-06)
(1.05756 2.27428e-05 2.59412e-05)
(1.05752 -3.62643e-05 -1.498e-05)
(1.05756 2.40618e-05 3.80557e-05)
(1.05756 -1.81988e-05 -1.29142e-05)
(1.05754 3.81502e-05 3.42664e-05)
(1.05753 -1.42896e-05 -7.4657e-06)
(1.05754 -2.25335e-06 1.95589e-05)
(1.05754 -6.06938e-06 -1.46286e-06)
(1.05757 8.73015e-06 2.78308e-06)
(1.05754 2.558e-05 1.00643e-05)
(1.05753 -6.17134e-06 -8.92811e-06)
(1.05755 1.62936e-05 2.17912e-05)
(1.05753 -3.20338e-05 -1.69616e-05)
(1.05758 4.53427e-05 2.90778e-05)
(1.05753 -2.85371e-05 -8.09033e-06)
(1.05753 3.08484e-05 2.34689e-05)
(1.05754 -4.05438e-05 4.33929e-06)
(1.05755 -1.39228e-06 1.28385e-05)
(1.05757 4.10593e-06 1.94179e-05)
(1.05756 -7.20658e-07 6.58738e-08)
(1.05752 2.47467e-05 2.61973e-05)
(1.05757 -2.84134e-05 -3.91918e-06)
(1.05753 3.88974e-05 1.7838e-05)
(1.05756 -3.83627e-05 4.86017e-06)
(1.05757 8.45954e-05 4.86671e-06)
(1.05749 -4.61678e-05 1.10043e-05)
(1.05757 3.56102e-05 5.22991e-06)
(1.05753 -3.03242e-05 -3.2989e-06)
(1.05757 3.44437e-05 1.81585e-05)
(1.05754 9.32584e-06 -2.04797e-05)
(1.05754 2.20209e-05 3.20819e-05)
(1.05753 1.13285e-05 -1.80463e-05)
(1.05754 -2.81056e-05 1.28252e-05)
(1.05757 6.33925e-05 1.03149e-05)
(1.05751 -3.98139e-05 -2.44596e-05)
(1.05757 5.47421e-05 5.25415e-05)
(1.0575 -4.39775e-05 -4.2546e-05)
(1.05756 2.85914e-05 5.91005e-05)
(1.05756 -2.65093e-05 -2.56201e-05)
(1.05753 3.21776e-05 2.28502e-05)
(1.05755 3.10846e-06 1.95803e-05)
(1.05752 -2.36855e-05 -1.13321e-06)
(1.05756 5.99375e-06 3.27385e-05)
(1.05756 -6.98036e-06 -1.74464e-06)
(1.05754 3.70458e-05 3.64823e-05)
(1.05752 -1.91621e-05 -6.04955e-06)
(1.05754 -1.59601e-06 2.79293e-05)
(1.05754 -1.27942e-05 -9.3191e-06)
(1.05758 2.09226e-05 1.09984e-05)
(1.05754 2.41941e-05 3.48034e-06)
(1.05753 3.78307e-06 -3.70111e-06)
(1.05754 6.8679e-06 1.53967e-05)
(1.05753 -1.90847e-05 -1.39438e-05)
(1.05758 3.70694e-05 3.13388e-05)
(1.05753 -1.86911e-05 -1.18022e-05)
(1.05753 3.07265e-05 3.54492e-05)
(1.05754 -5.81333e-05 -4.07204e-06)
(1.05755 1.30847e-05 2.6316e-05)
(1.05757 -1.77927e-05 1.59845e-05)
(1.05756 2.35073e-05 7.78049e-06)
(1.05752 6.42732e-06 2.78706e-05)
(1.05757 -1.78164e-05 1.21236e-06)
(1.05753 3.31421e-05 2.1607e-05)
(1.05757 -3.1982e-05 1.39921e-06)
(1.05757 9.12703e-05 1.66682e-05)
(1.05748 -5.37509e-05 7.95765e-06)
(1.05757 4.27473e-05 1.14601e-05)
(1.05753 -5.09103e-05 -5.05463e-06)
(1.05758 5.71226e-05 2.20929e-05)
(1.05754 -8.56724e-06 -1.83158e-05)
(1.05754 4.97755e-05 3.48291e-05)
(1.05752 -1.23561e-05 -1.80492e-05)
(1.05755 -1.06341e-05 2.29081e-05)
(1.05757 5.15005e-05 6.22701e-06)
(1.05751 -2.68435e-05 -1.19905e-05)
(1.05756 5.12816e-05 5.19402e-05)
(1.05749 -3.50867e-05 -3.27234e-05)
(1.05756 2.07245e-05 6.12642e-05)
(1.05757 -3.0694e-05 -2.2796e-05)
(1.05754 4.29992e-05 3.16838e-05)
(1.05754 -9.48254e-06 2.04729e-05)
(1.05752 -1.8386e-05 1.39642e-05)
(1.05757 -9.90697e-06 2.68716e-05)
(1.05757 6.38331e-06 1.4081e-05)
(1.05754 2.78443e-05 3.35036e-05)
(1.05751 -1.4406e-05 4.15038e-06)
(1.05754 -1.10751e-05 3.11708e-05)
(1.05755 -9.63454e-06 -1.01955e-05)
(1.05758 2.68124e-05 1.40617e-05)
(1.05753 2.83251e-05 -1.63551e-06)
(1.05753 9.22637e-06 2.75431e-06)
(1.05754 4.09199e-06 8.23028e-06)
(1.05754 -1.22903e-05 -6.59972e-06)
(1.05758 2.55249e-05 2.97338e-05)
(1.05753 -2.80938e-07 -1.04971e-05)
(1.05752 1.69763e-05 4.39667e-05)
(1.05754 -6.35221e-05 -8.49495e-06)
(1.05756 1.07832e-05 4.07006e-05)
(1.05757 -2.83944e-05 1.23479e-05)
(1.05757 4.14153e-05 2.0715e-05)
(1.05751 -9.95608e-06 2.84665e-05)
(1.05758 -1.06307e-06 1.0738e-05)
(1.05752 1.55834e-05 2.1463e-05)
(1.05759 -1.50372e-05 3.07644e-06)
(1.05756 8.71079e-05 2.88712e-05)
(1.05747 -4.88134e-05 3.20296e-06)
(1.05757 3.28267e-05 2.23932e-05)
(1.05753 -5.90971e-05 -9.43033e-06)
(1.05759 7.09465e-05 3.02055e-05)
(1.05754 -2.05512e-05 -1.7381e-05)
(1.05753 7.65956e-05 3.90519e-05)
(1.05751 -3.97014e-05 -1.14633e-05)
(1.05757 1.37969e-05 2.99907e-05)
(1.05756 3.14361e-05 7.87299e-06)
(1.05751 -2.95646e-06 -8.99173e-07)
(1.05756 3.7964e-05 5.46537e-05)
(1.05749 -1.4848e-05 -2.0726e-05)
(1.05756 -1.31789e-06 6.41492e-05)
(1.05757 -2.30112e-05 -9.66186e-06)
(1.05754 4.074e-05 3.55694e-05)
(1.05753 -1.1467e-05 3.18094e-05)
(1.05752 -2.10489e-05 2.3446e-05)
(1.05757 -2.47699e-05 2.76887e-05)
(1.05758 1.15643e-05 3.26162e-05)
(1.05753 2.38793e-05 2.98538e-05)
(1.05751 -1.10966e-05 2.31771e-05)
(1.05754 -2.5227e-05 2.73337e-05)
(1.05756 -3.76626e-06 -3.78175e-06)
(1.05759 2.62961e-05 1.18369e-05)
(1.05753 3.96446e-05 4.16499e-07)
(1.05752 7.6298e-06 6.34665e-06)
(1.05753 6.40643e-06 3.33638e-06)
(1.05754 -1.3593e-05 -1.25863e-06)
(1.05759 2.19364e-05 2.5689e-05)
(1.05752 1.44076e-05 -4.31077e-06)
(1.05751 -4.56369e-07 4.82044e-05)
(1.05754 -6.08498e-05 -5.62251e-06)
(1.05757 -4.95848e-06 5.5696e-05)
(1.05758 -3.09592e-05 8.96553e-06)
(1.05757 4.68037e-05 3.8056e-05)
(1.0575 -1.82176e-05 2.70874e-05)
(1.05758 5.67424e-06 2.69978e-05)
(1.05752 -2.47569e-06 1.98114e-05)
(1.0576 2.31267e-06 8.73972e-06)
(1.05756 7.77332e-05 4.22371e-05)
(1.05746 -3.72183e-05 2.72069e-06)
(1.05757 4.40334e-06 4.04266e-05)
(1.05754 -5.50937e-05 -1.58597e-05)
(1.05759 6.67423e-05 4.40653e-05)
(1.05754 -1.88979e-05 -1.61604e-05)
(1.05753 9.54657e-05 4.84697e-05)
(1.0575 -6.31324e-05 -1.25947e-06)
(1.05758 3.07023e-05 3.86628e-05)
(1.05756 1.14658e-05 1.94106e-05)
(1.05751 2.81022e-05 9.5856e-06)
(1.05755 1.69254e-05 6.52103e-05)
(1.05749 7.53469e-06 -8.01673e-06)
(1.05756 -3.00028e-05 7.11346e-05)
(1.05758 -6.93741e-06 6.54425e-06)
(1.05754 2.48152e-05 3.87408e-05)
(1.05752 -2.72821e-06 5.55463e-05)
(1.05751 -3.77164e-05 3.07224e-05)
(1.05758 -3.22322e-05 3.49451e-05)
(1.05758 8.73735e-06 4.71213e-05)
(1.05753 2.38038e-05 3.13222e-05)
(1.0575 -2.02368e-05 4.50498e-05)
(1.05754 -3.59161e-05 2.42496e-05)
(1.05756 -4.76564e-06 8.68972e-06)
(1.0576 2.20146e-05 2.86966e-06)
(1.05753 5.42156e-05 8.98225e-06)
(1.05752 2.6785e-06 7.59384e-06)
(1.05753 1.31653e-05 5.74937e-06)
(1.05754 -2.33156e-05 9.74415e-07)
(1.05759 1.99491e-05 2.45504e-05)
(1.05752 2.3108e-05 2.12585e-06)
(1.05749 -1.58496e-05 5.46262e-05)
(1.05754 -6.80914e-05 3.52167e-06)
(1.05757 -2.71948e-05 6.73293e-05)
(1.05759 -2.91267e-05 1.13519e-05)
(1.05757 4.23247e-05 5.80243e-05)
(1.0575 -1.62066e-05 3.13012e-05)
(1.05758 1.81919e-06 4.7092e-05)
(1.05752 -1.58809e-05 1.84883e-05)
(1.05761 1.41779e-05 2.12485e-05)
(1.05755 6.85377e-05 5.67301e-05)
(1.05745 -2.84384e-05 7.1961e-06)
(1.05757 -3.03387e-05 6.12543e-05)
(1.05755 -4.49938e-05 -2.0672e-05)
(1.0576 4.78645e-05 6.16789e-05)
(1.05755 -5.08355e-06 -1.5771e-05)
(1.05752 9.88813e-05 6.44575e-05)
(1.05749 -7.38492e-05 1.50092e-05)
(1.05759 3.78883e-05 5.07333e-05)
(1.05756 1.88967e-06 3.64343e-05)
(1.05751 5.1566e-05 2.04476e-05)
(1.05755 -3.66025e-06 8.74988e-05)
(1.05748 2.58103e-05 8.46496e-06)
(1.05756 -5.80179e-05 8.70447e-05)
(1.05759 7.16058e-06 2.65553e-05)
(1.05754 6.94364e-07 4.57563e-05)
(1.05751 1.37388e-05 8.80208e-05)
(1.05751 -6.28601e-05 3.58092e-05)
(1.05758 -4.05825e-05 5.2835e-05)
(1.05759 -6.70679e-06 6.13054e-05)
(1.05752 2.77579e-05 3.86611e-05)
(1.05749 -3.83661e-05 7.24184e-05)
(1.05755 -4.05411e-05 2.505e-05)
(1.05757 -1.98423e-05 2.3108e-05)
(1.0576 2.31485e-05 -6.42091e-06)
(1.05752 6.43893e-05 2.30848e-05)
(1.05751 -3.55762e-06 8.47144e-06)
(1.05752 1.71416e-05 1.60125e-05)
(1.05754 -3.59646e-05 -4.03795e-06)
(1.0576 1.95047e-05 2.73767e-05)
(1.05751 2.68575e-05 6.74457e-06)
(1.05748 -3.24534e-05 6.53887e-05)
(1.05753 -8.30911e-05 1.74551e-05)
(1.05757 -5.17932e-05 8.09185e-05)
(1.0576 -3.52585e-05 1.71505e-05)
(1.05757 3.23851e-05 7.96869e-05)
(1.05749 -1.23953e-05 3.86316e-05)
(1.05758 -1.33274e-05 7.59763e-05)
(1.05752 -2.51168e-05 1.9935e-05)
(1.05762 1.38179e-05 3.6555e-05)
(1.05754 6.34341e-05 7.84423e-05)
(1.05743 -2.77918e-05 2.19867e-05)
(1.05756 -6.958e-05 9.15564e-05)
(1.05756 -4.15953e-05 -2.37539e-05)
(1.0576 1.98156e-05 8.40878e-05)
(1.05755 1.66646e-05 -1.22856e-05)
(1.05751 9.25582e-05 8.82113e-05)
(1.05748 -7.6383e-05 3.79676e-05)
(1.0576 2.48646e-05 7.28155e-05)
(1.05756 2.33361e-06 6.50454e-05)
(1.0575 6.46808e-05 3.65129e-05)
(1.05754 -1.23905e-05 0.000123005)
(1.05743 3.26758e-05 3.99633e-05)
(1.0575 -8.2305e-05 0.000109659)
(1.05755 1.18234e-05 4.05833e-05)
(1.05749 -2.42412e-05 5.7617e-05)
(1.05745 2.94076e-05 0.000139146)
(1.05745 -9.68662e-05 5.3489e-05)
(1.05754 -5.05693e-05 7.04736e-05)
(1.05755 -2.75896e-05 6.80359e-05)
(1.05747 2.79936e-05 5.23062e-05)
(1.05742 -6.70951e-05 0.000111588)
(1.05749 -4.1983e-05 4.12594e-05)
(1.05752 -4.91243e-05 3.81798e-05)
(1.05756 2.73943e-05 -2.20766e-05)
(1.05746 6.59515e-05 3.82747e-05)
(1.05745 -7.02459e-06 2.21181e-05)
(1.05746 1.55847e-05 4.17794e-05)
(1.05749 -5.28832e-05 -1.25417e-05)
(1.05755 5.96587e-06 2.96218e-05)
(1.05745 3.09718e-05 7.23538e-06)
(1.05741 -5.30519e-05 9.64639e-05)
(1.05747 -0.000105934 4.33155e-05)
(1.05753 -8.40497e-05 9.87609e-05)
(1.05755 -5.10934e-05 2.21618e-05)
(1.05752 2.0374e-05 0.000105336)
(1.05742 -1.06197e-05 6.59831e-05)
(1.05752 -3.01608e-05 0.000117461)
(1.05747 -3.78675e-05 2.65096e-05)
(1.05758 3.59901e-06 5.31911e-05)
(1.05749 5.82865e-05 0.000107187)
(1.05736 -3.75693e-05 5.31024e-05)
(1.05751 -0.000107902 0.00013836)
(1.05752 -4.93146e-05 -2.56386e-05)
(1.05756 -1.16936e-05 0.000103066)
(1.0575 3.50162e-05 -4.68921e-06)
(1.05744 8.33878e-05 0.000128091)
(1.05741 -7.1392e-05 7.9396e-05)
(1.05755 4.23933e-06 0.000102667)
(1.05751 1.18375e-05 9.46822e-05)
(1.05745 6.16518e-05 5.8391e-05)
(1.05748 -9.79302e-06 0.000184438)
(1.05645 3.16787e-05 0.000146267)
(1.05646 -0.000102895 0.000113578)
(1.05658 -2.49955e-07 -8.87622e-06)
(1.05643 -5.05055e-05 7.63097e-05)
(1.05639 3.79625e-05 0.000276002)
(1.05642 -0.000129216 0.000123072)
(1.05655 -7.53503e-05 5.59603e-05)
(1.05647 -5.71984e-05 1.7797e-05)
(1.05639 1.9839e-05 7.8429e-05)
(1.05625 -0.000101573 0.000245279)
(1.05642 -4.6191e-05 0.000127355)
(1.05644 -9.07417e-05 2.25713e-05)
(1.05645 3.14567e-05 -0.00010373)
(1.05636 5.51006e-05 5.31184e-05)
(1.05633 -1.41926e-05 0.0001294)
(1.05636 5.82539e-06 0.000135927)
(1.05644 -7.20311e-05 -4.67105e-05)
(1.05643 -1.92148e-05 -2.38665e-05)
(1.05634 3.21256e-05 1.92225e-05)
(1.05629 -9.16723e-05 0.000222066)
(1.0564 -0.000133001 0.000134495)
(1.05647 -0.000132856 9.54655e-05)
(1.05646 -7.89189e-05 -3.15301e-05)
(1.0564 -9.89958e-07 0.000140926)
(1.05631 -1.60734e-05 0.000181576)
(1.05645 -5.20366e-05 0.000236425)
(1.05642 -6.21652e-05 1.91039e-05)
(1.05651 -1.78627e-05 2.6571e-05)
(1.05641 4.71684e-05 0.000159743)
(1.05626 -5.82358e-05 0.000179907)
(1.05644 -0.000152598 0.000263348)
(1.05641 -7.38068e-05 -6.79325e-05)
(1.05647 -5.1792e-05 5.46838e-05)
(1.05633 4.37199e-05 1.43512e-05)
(1.05632 7.8151e-05 0.000255447)
(1.05631 -6.64124e-05 0.000189695)
(1.05651 -3.01572e-05 0.00012767)
(1.05642 1.8258e-05 8.46763e-05)
(1.05637 4.76525e-05 9.68434e-05)
(1.05637 4.04232e-06 0.000357974)
(1.04758 1.4859e-05 0.000274235)
(1.04723 -0.00012994 -0.000154473)
(1.04763 -2.54591e-05 -0.000289999)
(1.04698 -8.62283e-05 0.00023694)
(1.04719 2.14322e-05 0.000674945)
(1.0473 -0.000169946 0.000178333)
(1.04742 -0.000110217 -0.000235819)
(1.04691 -9.60301e-05 -0.000194262)
(1.04689 -1.77562e-05 0.000287327)
(1.04647 -0.000148048 0.000683883)
(1.04705 -7.11618e-05 0.000263515)
(1.0469 -0.000139988 -0.000270555)
(1.04678 1.17034e-05 -0.000387474)
(1.04677 1.93374e-05 0.000218366)
(1.04673 -3.72647e-05 0.000575291)
(1.04685 -2.78889e-05 0.000287464)
(1.0471 -0.000102597 -0.000285205)
(1.0467 -7.36716e-05 -0.000243296)
(1.0468 8.04559e-06 0.000233123)
(1.04681 -0.000151045 0.000659783)
(1.04704 -0.000174831 0.000279008)
(1.04707 -0.00020284 -0.000145146)
(1.04685 -0.000125427 -0.000245271)
(1.04676 -4.93345e-05 0.000342891)
(1.04679 -3.9615e-05 0.0006215)
(1.04712 -8.9009e-05 0.000438524)
(1.04706 -0.000104814 -0.000193225)
(1.04706 -5.90539e-05 -0.000111176)
(1.04693 6.06777e-06 0.000366011)
(1.04681 -9.66307e-05 0.000608398)
(1.04704 -0.000207126 0.000406379)
(1.04676 -0.00011516 -0.000443467)
(1.04685 -0.000103095 -0.000203057)
(1.04636 1.97755e-05 0.000189395)
(1.04676 5.35597e-05 0.000692015)
(1.04682 -8.29275e-05 0.000355148)
(1.04714 -7.49226e-05 -2.00142e-05)
(1.04685 6.74585e-06 -0.00010101)
(1.04695 1.26066e-05 0.000315904)
(1.04692 -1.52055e-06 0.000877777)
(1.01709 -2.32993e-05 -0.000301935)
(1.01603 -0.000159615 -0.000717577)
(1.01675 -6.42159e-05 -0.000317747)
(1.01549 -0.000136362 0.000743904)
(1.01645 -2.49756e-05 0.000807199)
(1.01623 -0.000199849 -0.00036132)
(1.01607 -0.000134711 -0.000697643)
(1.01511 -0.00014622 -5.05743e-05)
(1.01537 -8.45013e-05 0.000881674)
(1.01481 -0.000194878 0.000915407)
(1.01585 -0.000107261 -0.000199445)
(1.01509 -0.000176901 -0.000838037)
(1.01508 -4.03682e-05 -0.000307057)
(1.01525 -5.46555e-05 0.000820345)
(1.01528 -8.93226e-05 0.000882643)
(1.01556 -8.21336e-05 -0.000117903)
(1.01568 -0.000137154 -0.000732127)
(1.01494 -0.000138971 -0.000153411)
(1.0156 -6.7481e-05 0.000849337)
(1.01557 -0.000217335 0.000894244)
(1.01584 -0.000208182 -9.17178e-05)
(1.01558 -0.000248768 -0.00059341)
(1.01519 -0.000175268 -9.90573e-05)
(1.0153 -0.000120493 0.00095719)
(1.01562 -9.05869e-05 0.00095623)
(1.016 -0.000138245 0.000141488)
(1.01567 -0.000145307 -0.000617545)
(1.01556 -0.000119408 8.7205e-05)
(1.01548 -7.02242e-05 0.000855894)
(1.01545 -0.000151063 0.000836044)
(1.01551 -0.000247793 -0.000168075)
(1.01488 -0.000154056 -0.00112338)
(1.015 -0.000158609 -7.25813e-05)
(1.0144 -4.9945e-05 0.000729319)
(1.01557 -1.41711e-05 0.00101189)
(1.01548 -0.000120711 5.62752e-05)
(1.01579 -0.000118165 -0.000340939)
(1.01532 -3.31136e-05 -4.93763e-05)
(1.01584 -4.99906e-05 0.000965752)
(1.01594 -4.79637e-05 0.00114003)
(0.964609 -4.96997e-05 -0.0010969)
(0.963106 -0.000183519 -0.000580355)
(0.96406 -0.000105523 0.000153419)
(0.96266 -0.000166492 0.000817297)
(0.964214 -3.59638e-05 5.55575e-05)
(0.963 -0.000204644 -0.000940237)
(0.962793 -0.000173418 -0.000372324)
(0.961945 -0.000198222 0.000557503)
(0.962557 -0.000126129 0.000987363)
(0.962002 -0.00020113 0.000200679)
(0.962976 -0.000123185 -0.000847698)
(0.961702 -0.000216012 -0.000642887)
(0.962329 -9.76092e-05 0.000379351)
(0.962488 -0.000106833 0.000985031)
(0.962616 -0.000114347 0.000232752)
(0.962861 -0.000106094 -0.000740485)
(0.962664 -0.00017304 -0.000565167)
(0.962213 -0.000191536 0.000432338)
(0.963288 -0.000112505 0.00100032)
(0.962888 -0.000225083 0.000265178)
(0.963036 -0.000209057 -0.000552216)
(0.96247 -0.00027398 -0.000338934)
(0.962342 -0.000212141 0.000590408)
(0.962776 -0.00015851 0.00115441)
(0.963128 -0.000108294 0.00041982)
(0.963135 -0.000159673 -0.000401026)
(0.962569 -0.000175749 -0.000458943)
(0.962598 -0.000170488 0.000642867)
(0.962561 -0.000120165 0.000788992)
(0.962515 -0.000169407 9.8748e-05)
(0.962186 -0.000257186 -0.00101836)
(0.961581 -0.000191802 -0.000896891)
(0.961905 -0.000208518 0.000651411)
(0.961724 -0.000103315 0.000837735)
(0.963245 -4.51285e-05 0.000577655)
(0.962623 -0.00013624 -0.000389112)
(0.962997 -0.000149356 -0.000150219)
(0.962716 -7.05703e-05 0.000423309)
(0.963654 -8.32876e-05 0.0011302)
(0.963755 -6.14893e-05 0.000228748)
(0.896953 -8.07013e-05 -0.00103084)
(0.895482 -0.000194598 -6.47302e-05)
(0.896583 -0.000120352 0.00022903)
(0.89523 -0.00015324 0.000293486)
(0.896757 -4.1302e-05 -0.00058943)
(0.89473 -0.000231051 -0.000717927)
(0.89506 -0.000203095 0.000271533)
(0.89438 -0.000207439 0.000637799)
(0.89515 -0.000126681 0.000404762)
(0.894497 -0.000188889 -0.000492668)
(0.895233 -0.000147156 -0.000736806)
(0.893995 -0.000242752 -3.23401e-05)
(0.89521 -0.000111708 0.000563605)
(0.895096 -0.000116652 0.000379671)
(0.895342 -0.000115611 -0.000468002)
(0.895398 -0.000121378 -0.000715939)
(0.895167 -0.000195591 -3.30087e-05)
(0.895184 -0.000188245 0.000639547)
(0.896128 -0.000108858 0.000519844)
(0.895316 -0.000213025 -0.00024983)
(0.895465 -0.000211163 -0.000323997)
(0.89485 -0.000279884 0.000244491)
(0.89514 -0.000208313 0.000813918)
(0.895571 -0.000150653 0.000630429)
(0.895659 -0.000109473 -0.000188033)
(0.895308 -0.000178842 -0.000419564)
(0.894829 -0.00019896 -4.22624e-05)
(0.895028 -0.000185643 0.000640117)
(0.894885 -0.00013318 4.42508e-05)
(0.89475 -0.000175323 -0.000622672)
(0.894217 -0.000266999 -0.00102745)
(0.894025 -0.000216478 -7.98715e-05)
(0.894574 -0.00021453 0.000865709)
(0.89476 -0.000102398 0.000381404)
(0.896049 -5.1337e-05 0.000166553)
(0.895077 -0.000149666 -0.000367787)
(0.895803 -0.000154427 0.000216691)
(0.895723 -7.00551e-05 0.000432562)
(0.896765 -7.40038e-05 0.000467018)
(0.896548 -6.21316e-05 -0.000751385)
(0.819465 -0.000101514 -0.000516688)
(0.818273 -0.000177522 0.000100885)
(0.819326 -0.000110558 -5.5825e-05)