/*--------------------------------*- C++ -*----------------------------------*\
  =========                 |
  \\      /  F ield         | OpenFOAM: The Open Source CFD Toolbox
   \\    /   O peration     | Website:  https://openfoam.org
    \\  /    A nd           | Version:  10
     \\/     M anipulation  |
\*---------------------------------------------------------------------------*/
FoamFile
{
    format      ascii;
    class       volVectorField;
    location    "5";
    object      UMean;
}
// * * * * * * * * * * * * * * * * * * * * * * * * * * * * * * * * * * * * * //

dimensions      [0 1 -1 0 0 0 0];

internalField   nonuniform List<vector> 
25600
(
(1.01644 2.65678e-05 2.95919e-06)
(1.01645 4.15468e-05 -2.23225e-06)
(1.01646 2.1787e-05 -1.40123e-05)
(1.01644 1.89132e-05 -8.69806e-06)
(1.01644 3.11064e-05 -4.69482e-07)
(1.01646 1.93545e-05 -1.04142e-05)
(1.01645 1.56517e-05 -1.28179e-05)
(1.01643 2.57402e-05 2.55614e-06)
(1.01645 2.09462e-05 -6.11817e-06)
(1.01645 1.54416e-05 -7.01656e-06)
(1.01644 2.51839e-05 6.6252e-06)
(1.01644 2.61292e-05 -2.19804e-06)
(1.01643 1.18821e-05 3.44763e-06)
(1.01643 2.1115e-05 6.19636e-06)
(1.01645 2.08946e-05 -1.0667e-06)
(1.01643 -1.33934e-05 1.12643e-05)
(1.01642 1.47181e-06 4.65224e-06)
(1.01644 3.23107e-06 -3.44303e-07)
(1.01643 -4.17648e-05 1.33692e-05)
(1.01644 -2.69437e-05 1.51529e-06)
(1.01645 -2.65427e-05 2.56564e-06)
(1.01644 -6.83218e-05 9.60007e-06)
(1.01644 -4.55616e-05 -4.58129e-06)
(1.01645 -4.39012e-05 6.40053e-06)
(1.01646 -7.58904e-05 4.69817e-06)
(1.01646 -4.60984e-05 -1.3903e-05)
(1.01645 -3.37855e-05 3.38168e-06)
(1.01647 -4.76341e-05 5.44914e-06)
(1.01646 -2.98106e-05 -8.92917e-06)
(1.01644 -5.96392e-06 7.5894e-07)
(1.01646 -3.04744e-06 -1.45402e-06)
(1.01646 4.04989e-06 -5.22948e-07)
(1.01643 1.85022e-05 4.96888e-06)
(1.01645 2.68494e-05 -3.80171e-06)
(1.01646 3.0894e-05 1.01523e-06)
(1.01644 4.42528e-05 9.49247e-07)
(1.01644 4.17348e-05 -4.47252e-06)
(1.01646 3.63452e-05 4.11588e-06)
(1.01645 5.12982e-05 -4.14233e-06)
(1.01645 3.20915e-05 -9.51941e-06)
(1.01645 2.93949e-05 1.21633e-05)
(1.01645 3.8293e-05 -4.64037e-06)
(1.01645 2.40806e-05 -2.12044e-05)
(1.01644 1.47874e-05 -2.31032e-06)
(1.01644 3.05983e-05 3.79357e-08)
(1.01645 2.51922e-05 -1.47557e-05)
(1.01645 1.27177e-05 -8.27497e-06)
(1.01644 2.39414e-05 1.9937e-06)
(1.01644 2.63415e-05 -6.21404e-06)
(1.01645 2.36895e-05 1.88677e-06)
(1.01644 2.52177e-05 5.6137e-06)
(1.01643 2.8575e-05 -8.37665e-07)
(1.01643 1.1981e-05 1.33987e-05)
(1.01644 2.41328e-05 5.87113e-06)
(1.01643 2.49033e-05 1.39175e-06)
(1.01642 -1.78099e-05 2.01872e-05)
(1.01643 4.54526e-06 4.27212e-06)
(1.01642 2.1781e-07 4.33619e-06)
(1.01642 -4.55808e-05 2.15065e-05)
(1.01645 -2.24888e-05 1.87138e-06)
(1.01643 -3.57293e-05 1.11193e-05)
(1.01643 -7.65629e-05 1.40388e-05)
(1.01646 -4.66851e-05 -1.48835e-06)
(1.01644 -6.0415e-05 1.88872e-05)
(1.01646 -7.9851e-05 3.17083e-06)
(1.01648 -4.87931e-05 -9.80145e-06)
(1.01645 -4.84468e-05 2.10649e-05)
(1.01647 -4.56434e-05 4.94641e-07)
(1.01648 -3.07107e-05 -7.56393e-06)
(1.01646 -1.468e-05 1.55422e-05)
(1.01647 4.20185e-06 -4.05498e-06)
(1.01647 4.36031e-06 1.50326e-06)
(1.01644 1.12717e-05 1.21182e-05)
(1.01646 3.28792e-05 -6.43357e-06)
(1.01646 3.36616e-05 6.18766e-06)
(1.01644 3.29269e-05 2.92813e-06)
(1.01644 4.4275e-05 -7.10901e-06)
(1.01646 4.21197e-05 1.07494e-05)
(1.01645 4.2698e-05 -6.77651e-06)
(1.01644 3.3838e-05 -1.28848e-05)
(1.01645 3.15353e-05 1.65903e-05)
(1.01645 3.19396e-05 -1.39428e-05)
(1.01644 2.34358e-05 -2.09156e-05)
(1.01645 1.63721e-05 3.14844e-06)
(1.01645 3.10533e-05 -4.34043e-06)
(1.01645 2.39834e-05 -1.6209e-05)
(1.01645 1.60222e-05 -2.27462e-06)
(1.01644 2.43524e-05 7.69687e-07)
(1.01645 3.30333e-05 -4.04566e-06)
(1.01645 3.40056e-05 1.42157e-05)
(1.01644 2.62189e-05 3.80062e-06)
(1.01643 3.40701e-05 6.34407e-06)
(1.01642 1.58541e-05 2.60297e-05)
(1.01644 3.21884e-05 4.29739e-06)
(1.01641 2.12006e-05 1.23649e-05)
(1.01641 -1.52144e-05 3.02453e-05)
(1.01644 1.2715e-05 1.89692e-06)
(1.0164 -1.30445e-05 1.77666e-05)
(1.01641 -3.981e-05 2.87019e-05)
(1.01645 -2.03214e-05 2.97229e-06)
(1.0164 -5.65181e-05 2.67517e-05)
(1.01643 -7.63127e-05 1.59415e-05)
(1.01646 -5.31119e-05 6.4867e-06)
(1.01642 -8.95747e-05 3.11517e-05)
(1.01647 -7.42075e-05 -1.58136e-06)
(1.01649 -5.85921e-05 3.12932e-06)
(1.01645 -6.94307e-05 3.35467e-05)
(1.01648 -3.67666e-05 -8.60998e-06)
(1.01649 -3.3391e-05 2.7453e-06)
(1.01647 -2.10986e-05 2.34823e-05)
(1.01648 9.19125e-06 -8.52644e-06)
(1.01647 3.75794e-06 1.03073e-05)
(1.01646 9.23437e-06 1.35494e-05)
(1.01647 3.79515e-05 -7.43608e-06)
(1.01646 3.41419e-05 1.33214e-05)
(1.01645 3.01628e-05 -7.61307e-07)
(1.01645 5.08697e-05 -5.87883e-06)
(1.01645 4.52773e-05 1.34279e-05)
(1.01644 3.78957e-05 -1.43226e-05)
(1.01644 3.53692e-05 -7.05793e-06)
(1.01644 3.10972e-05 1.21601e-05)
(1.01644 2.78687e-05 -2.25321e-05)
(1.01644 2.35035e-05 -1.25963e-05)
(1.01645 2.2834e-05 4.50074e-06)
(1.01645 3.26549e-05 -8.23133e-06)
(1.01644 1.95991e-05 -1.2833e-05)
(1.01645 2.64087e-05 4.74582e-06)
(1.01645 2.57023e-05 1.93286e-06)
(1.01645 4.58151e-05 4.97185e-06)
(1.01645 4.20343e-05 2.66707e-05)
(1.01644 3.25969e-05 4.78144e-06)
(1.01642 4.39284e-05 2.1911e-05)
(1.01642 2.22619e-05 3.69661e-05)
(1.01644 4.35247e-05 5.42601e-06)
(1.01639 1.14455e-05 3.26696e-05)
(1.01641 -2.53366e-06 3.676e-05)
(1.01644 1.59442e-05 3.81961e-06)
(1.01638 -2.68973e-05 3.93016e-05)
(1.01641 -2.74997e-05 3.31223e-05)
(1.01643 -2.91137e-05 1.15247e-05)
(1.01638 -7.60936e-05 4.52004e-05)
(1.01643 -7.22311e-05 1.67095e-05)
(1.01644 -7.37811e-05 2.11477e-05)
(1.01642 -0.00011549 3.98805e-05)
(1.01648 -6.70307e-05 -2.88918e-06)
(1.01648 -8.47892e-05 2.28554e-05)
(1.01647 -8.04734e-05 3.55932e-05)
(1.0165 -2.92257e-05 -1.34454e-05)
(1.01649 -4.5301e-05 1.87043e-05)
(1.01649 -1.96506e-05 2.20703e-05)
(1.01649 8.95724e-06 -7.42419e-06)
(1.01647 2.2816e-06 2.17493e-05)
(1.01647 1.40592e-05 8.61937e-06)
(1.01648 4.10419e-05 -4.45253e-06)
(1.01646 3.3519e-05 1.8017e-05)
(1.01645 3.57557e-05 -8.75325e-06)
(1.01646 5.62975e-05 -8.32514e-07)
(1.01645 4.66105e-05 1.0223e-05)
(1.01644 3.87627e-05 -1.96446e-05)
(1.01643 3.69799e-05 5.5646e-06)
(1.01644 2.99023e-05 1.84573e-06)
(1.01644 2.80468e-05 -2.17929e-05)
(1.01644 2.68282e-05 -1.90382e-06)
(1.01645 3.59479e-05 3.73483e-06)
(1.01645 3.46922e-05 -5.58467e-06)
(1.01644 2.1311e-05 -6.21124e-06)
(1.01645 4.22534e-05 1.39982e-05)
(1.01646 3.18538e-05 8.41561e-06)
(1.01646 6.84239e-05 2.10928e-05)
(1.01644 4.56257e-05 3.86369e-05)
(1.01644 5.23391e-05 1.38031e-05)
(1.01642 5.45527e-05 4.40045e-05)
(1.01642 3.58126e-05 4.56195e-05)
(1.01643 5.68067e-05 1.4788e-05)
(1.01638 3.77991e-06 5.77563e-05)
(1.01642 1.94502e-05 3.86461e-05)
(1.01642 7.85583e-06 1.58877e-05)
(1.01637 -2.65311e-05 6.35925e-05)
(1.01641 -2.01104e-05 3.75777e-05)
(1.01641 -4.60118e-05 3.04056e-05)
(1.01637 -8.74318e-05 5.98658e-05)
(1.01643 -7.66187e-05 2.30051e-05)
(1.01643 -0.000104962 3.99684e-05)
(1.01643 -0.000129593 4.47192e-05)
(1.01649 -7.53771e-05 4.87787e-06)
(1.01648 -0.000121335 4.20175e-05)
(1.01649 -7.58832e-05 2.96499e-05)
(1.01651 -3.80143e-05 -6.61464e-06)
(1.01649 -6.03661e-05 2.90696e-05)
(1.01651 -1.00863e-05 1.63024e-05)
(1.01649 -1.22056e-06 -1.61575e-06)
(1.01647 5.64226e-06 2.67521e-05)
(1.01648 2.18197e-05 1.01772e-06)
(1.01648 4.45094e-05 6.29183e-07)
(1.01646 3.61605e-05 1.76738e-05)
(1.01646 4.52337e-05 -1.72865e-05)
(1.01646 5.93618e-05 5.69261e-06)
(1.01644 5.19822e-05 2.92747e-06)
(1.01643 4.2349e-05 -1.82641e-05)
(1.01643 3.67511e-05 1.75725e-05)
(1.01644 2.92477e-05 -6.18107e-06)
(1.01644 3.3966e-05 -1.14936e-05)
(1.01644 3.92537e-05 8.3716e-06)
(1.01645 5.61624e-05 8.31214e-06)
(1.01644 3.94895e-05 6.25538e-06)
(1.01645 3.68407e-05 4.3344e-06)
(1.01645 5.81366e-05 3.0047e-05)
(1.01646 5.37209e-05 2.24747e-05)
(1.01646 9.72642e-05 4.31579e-05)
(1.01643 5.39169e-05 5.406e-05)
(1.01645 9.12108e-05 3.25484e-05)
(1.01641 6.11252e-05 6.88979e-05)
(1.01642 6.62187e-05 5.62032e-05)
(1.01642 6.67929e-05 3.53977e-05)
(1.01637 7.83207e-06 8.118e-05)
(1.01641 4.04757e-05 4.03858e-05)
(1.0164 -8.09187e-06 3.75476e-05)
(1.01636 -7.42205e-06 8.37642e-05)
(1.0164 -2.68818e-05 4.77118e-05)
(1.01639 -5.70407e-05 5.43694e-05)
(1.01636 -9.76231e-05 7.04917e-05)
(1.01642 -9.29921e-05 3.70294e-05)
(1.01641 -0.000133382 5.64097e-05)
(1.01644 -0.000137989 5.05964e-05)
(1.01649 -0.000103841 2.01841e-05)
(1.01648 -0.000154357 5.13892e-05)
(1.01652 -6.41431e-05 2.37209e-05)
(1.01651 -6.62982e-05 3.19309e-06)
(1.01651 -6.11925e-05 2.86188e-05)
(1.01653 -3.31852e-06 1.46092e-05)
(1.0165 -1.46317e-05 2.25565e-06)
(1.01648 1.77834e-05 2.41101e-05)
(1.01649 3.01623e-05 -5.87139e-06)
(1.01649 5.45448e-05 2.75096e-06)
(1.01646 4.31945e-05 1.2871e-05)
(1.01647 5.42415e-05 -2.50115e-05)
(1.01646 6.54668e-05 1.04801e-05)
(1.01644 6.42884e-05 -5.35137e-06)
(1.01643 4.38806e-05 -1.10216e-05)
(1.01642 4.05892e-05 2.64812e-05)
(1.01643 2.99446e-05 -5.76977e-06)
(1.01644 5.3793e-05 5.10261e-06)
(1.01645 6.61382e-05 2.16585e-05)
(1.01645 8.521e-05 2.37824e-05)
(1.01643 5.49066e-05 2.45847e-05)
(1.01645 6.6324e-05 1.97856e-05)
(1.01646 7.90646e-05 5.42339e-05)
(1.01648 0.000102433 4.67018e-05)
(1.01645 0.000128204 7.09544e-05)
(1.01643 8.48446e-05 7.60758e-05)
(1.01644 0.000142109 5.87609e-05)
(1.0164 7.07526e-05 9.39015e-05)
(1.01642 0.000116445 7.20226e-05)
(1.01639 6.86699e-05 6.22415e-05)
(1.01636 3.17708e-05 9.93332e-05)
(1.0164 4.53754e-05 4.62271e-05)
(1.01639 -2.08954e-05 6.29364e-05)
(1.01635 1.7371e-05 9.92479e-05)
(1.01638 -4.82441e-05 6.68325e-05)
(1.01637 -5.93726e-05 7.25356e-05)
(1.01634 -0.000119477 8.13009e-05)
(1.01641 -0.000111384 5.52545e-05)
(1.0164 -0.000156579 6.71197e-05)
(1.01644 -0.000148813 5.9551e-05)
(1.01648 -0.000143869 3.4946e-05)
(1.01649 -0.000179019 5.21484e-05)
(1.01654 -5.76783e-05 2.25872e-05)
(1.0165 -0.000103574 5.44398e-06)
(1.01653 -4.24766e-05 2.08729e-05)
(1.01654 -1.33947e-05 1.54468e-05)
(1.0165 -1.56779e-05 -5.1113e-06)
(1.01649 3.32218e-05 1.81629e-05)
(1.0165 4.30584e-05 -1.40887e-05)
(1.01649 7.27665e-05 5.04626e-07)
(1.01645 5.31169e-05 5.97735e-06)
(1.01647 6.16295e-05 -3.44374e-05)
(1.01646 8.3481e-05 1.37893e-05)
(1.01643 7.89523e-05 -1.35393e-05)
(1.01642 4.91576e-05 2.47465e-06)
(1.01642 5.52012e-05 3.32168e-05)
(1.01643 3.46814e-05 2.52794e-06)
(1.01645 0.000102445 2.83844e-05)
(1.01645 0.000104287 4.17191e-05)
(1.01644 0.000129777 5.09971e-05)
(1.01642 8.64968e-05 5.04238e-05)
(1.01645 0.000110186 4.49235e-05)
(1.01647 0.00012333 8.97296e-05)
(1.01648 0.000179701 8.31708e-05)
(1.01644 0.000164196 0.000104789)
(1.01643 0.000149398 0.000106169)
(1.01643 0.000190025 8.63804e-05)
(1.01639 0.000103406 0.000119187)
(1.01642 0.000176811 9.21319e-05)
(1.01636 6.89004e-05 8.8571e-05)
(1.01635 7.3742e-05 0.000109129)
(1.01638 2.59661e-05 5.4581e-05)
(1.01638 -1.47336e-05 8.13009e-05)
(1.01634 3.84091e-05 0.000112497)
(1.01635 -6.65806e-05 8.84949e-05)
(1.01634 -6.09943e-05 7.76405e-05)
(1.01632 -0.000150203 9.30983e-05)
(1.01639 -0.000119858 6.72954e-05)
(1.01638 -0.000180546 6.97582e-05)
(1.01643 -0.000155562 6.42608e-05)
(1.01646 -0.000190498 3.95758e-05)
(1.01652 -0.000189614 4.23153e-05)
(1.01655 -5.90818e-05 1.8719e-05)
(1.0165 -0.000127482 -5.56771e-06)
(1.01655 -1.11718e-05 9.54324e-06)
(1.01654 -3.43929e-05 1.00078e-05)
(1.01651 6.61965e-06 -2.66357e-05)
(1.0165 4.86336e-05 1.10362e-05)
(1.01651 7.21045e-05 -3.04642e-05)
(1.01648 9.68565e-05 -4.97548e-06)
(1.01644 6.53802e-05 -3.62323e-06)
(1.01648 6.97042e-05 -4.62568e-05)
(1.01646 0.000118223 1.75848e-05)
(1.01641 9.57206e-05 -1.88512e-05)
(1.01641 7.28315e-05 2.14188e-05)
(1.01641 8.01689e-05 4.21884e-05)
(1.01643 5.97012e-05 1.84443e-05)
(1.01646 0.000188509 6.12478e-05)
(1.01645 0.000159809 7.64441e-05)
(1.01643 0.000205428 9.29218e-05)
(1.01641 0.000145054 8.79671e-05)
(1.01645 0.000177863 7.96948e-05)
(1.01648 0.00020908 0.000135119)
(1.01648 0.000283541 0.000130451)
(1.01643 0.000223613 0.000144611)
(1.01643 0.000247712 0.0001443)
(1.01641 0.000238699 0.000114077)
(1.01638 0.000171317 0.000145206)
(1.01639 0.000240731 0.000110087)
(1.01633 8.48737e-05 0.000106598)
(1.01632 0.000123229 0.000105971)
(1.01634 -1.43128e-05 5.56368e-05)
(1.01638 2.05371e-05 8.31642e-05)
(1.01631 5.47663e-05 0.000122042)
(1.01631 -6.0767e-05 0.000100693)
(1.01631 -7.19997e-05 6.62045e-05)
(1.0163 -0.000170338 0.000100177)
(1.01637 -0.000124923 5.9776e-05)
(1.01636 -0.000201544 5.72855e-05)
(1.01642 -0.000152011 5.30783e-05)
(1.01644 -0.000241496 3.14526e-05)
(1.01654 -0.000180367 1.81809e-05)
(1.01655 -6.45291e-05 4.51727e-06)
(1.01651 -0.000119187 -3.24565e-05)
(1.01656 2.56019e-05 -6.29278e-06)
(1.01653 -4.27875e-05 -9.60161e-06)
(1.01653 4.95992e-05 -5.94398e-05)
(1.01651 7.20673e-05 7.91353e-07)
(1.01651 0.000128315 -5.65325e-05)
(1.01647 0.00012927 -1.12361e-05)
(1.01642 9.26262e-05 -1.852e-05)
(1.01648 8.42775e-05 -6.20978e-05)
(1.01646 0.000179655 1.9368e-05)
(1.01639 0.000121691 -2.20446e-05)
(1.01639 0.000133028 4.4826e-05)
(1.01638 0.000113759 5.49855e-05)
(1.01643 0.000131346 4.26524e-05)
(1.01647 0.000309434 0.000102882)
(1.01643 0.000252304 0.000126603)
(1.01641 0.00032958 0.000149465)
(1.01638 0.000240618 0.000134982)
(1.01645 0.000287237 0.000121876)
(1.01648 0.000346106 0.000186936)
(1.01646 0.000421198 0.00018109)
(1.0164 0.00032465 0.000184704)
(1.01641 0.000377878 0.000175999)
(1.01637 0.000308598 0.000130974)
(1.01636 0.000276684 0.000162883)
(1.01635 0.000310957 0.000119231)
(1.01628 0.00012891 0.000105706)
(1.01627 0.000164623 8.30652e-05)
(1.0163 -5.89979e-05 3.35969e-05)
(1.01638 7.92916e-05 6.01567e-05)
(1.01627 8.03384e-05 0.000116045)
(1.01626 -3.34449e-05 8.27336e-05)
(1.01626 -0.000100581 2.74217e-05)
(1.01626 -0.000166898 8.53742e-05)
(1.01634 -0.000130893 2.08923e-05)
(1.01633 -0.000195188 1.58261e-05)
(1.01638 -0.000141987 1.0119e-05)
(1.01641 -0.000287285 6.16504e-07)
(1.01656 -0.000149392 -3.575e-05)
(1.01654 -6.0172e-05 -3.04225e-05)
(1.01651 -6.55952e-05 -8.27226e-05)
(1.01654 6.30577e-05 -3.85106e-05)
(1.01651 -1.90192e-05 -4.8981e-05)
(1.01653 0.000105174 -0.000108525)
(1.0165 0.000121993 -1.84433e-05)
(1.0165 0.000208349 -9.95337e-05)
(1.01643 0.000181743 -2.11281e-05)
(1.01639 0.000134908 -4.28196e-05)
(1.01648 0.000113215 -8.46164e-05)
(1.01645 0.00027425 1.68818e-05)
(1.01636 0.000168538 -2.75275e-05)
(1.01637 0.000243921 7.22256e-05)
(1.01635 0.00015268 7.00227e-05)
(1.01644 0.000271965 7.03549e-05)
(1.01646 0.000465643 0.00014567)
(1.01641 0.000407098 0.000187826)
(1.01637 0.000515048 0.000216285)
(1.01634 0.00038908 0.000184902)
(1.01645 0.000450923 0.000160894)
(1.01648 0.000537394 0.000237078)
(1.01642 0.000605198 0.000231331)
(1.01636 0.000483672 0.000220385)
(1.01637 0.000546363 0.000193099)
(1.01631 0.000416718 0.000127265)
(1.01632 0.000414989 0.000157986)
(1.01627 0.000407432 0.00010147)
(1.01621 0.000206168 6.72967e-05)
(1.01619 0.000197722 1.76583e-05)
(1.01624 -9.45911e-05 -3.21352e-05)
(1.01637 0.000151487 -4.57215e-06)
(1.0162 0.000134634 7.70056e-05)
(1.01617 1.08454e-05 1.46799e-05)
(1.01618 -0.00013249 -5.24456e-05)
(1.01621 -0.000146987 2.79183e-05)
(1.01629 -0.000123278 -6.67619e-05)
(1.01628 -0.000128768 -8.14764e-05)
(1.0163 -0.000114958 -8.02223e-05)
(1.01636 -0.000293685 -7.04662e-05)
(1.01655 -9.38002e-05 -0.000132796)
(1.01651 -1.30713e-05 -9.3392e-05)
(1.01648 5.07012e-05 -0.000168056)
(1.0165 0.0001349 -0.000101277)
(1.01647 5.64051e-05 -0.000121994)
(1.01651 0.000183199 -0.000186227)
(1.01648 0.000220462 -6.20337e-05)
(1.01647 0.000316396 -0.000171052)
(1.01637 0.000282152 -4.62332e-05)
(1.01633 0.000191433 -8.88982e-05)
(1.01647 0.000180444 -0.000124308)
(1.01642 0.000405456 2.27568e-06)
(1.01632 0.00026332 -4.33888e-05)
(1.01633 0.000419551 0.000100149)
(1.01628 0.000214436 8.34976e-05)
(1.01643 0.000504629 7.04442e-05)
(1.01643 0.000686718 0.000169609)
(1.01637 0.000673347 0.000240665)
(1.01632 0.000783108 0.000278144)
(1.01628 0.0006239 0.000215072)
(1.01642 0.000700748 0.00016865)
(1.01645 0.000815861 0.000257931)
(1.01636 0.000864642 0.00025454)
(1.01629 0.000720723 0.000224974)
(1.01629 0.000782686 0.00016608)
(1.01622 0.000587785 8.40642e-05)
(1.01626 0.000604833 0.000111539)
(1.01616 0.000553497 3.84474e-05)
(1.01609 0.000321767 -3.5933e-05)
(1.01605 0.0002367 -0.000118381)
(1.01616 -9.97354e-05 -0.000175541)
(1.01634 0.000245946 -0.000140151)
(1.01609 0.000230711 -3.63356e-05)
(1.01603 5.30648e-05 -0.000141167)
(1.01606 -0.000140014 -0.000218287)
(1.01613 -0.000112866 -0.000114114)
(1.01621 -6.61197e-05 -0.000233117)
(1.01619 -1.89538e-06 -0.000273137)
(1.01618 -5.7802e-05 -0.00026055)
(1.01627 -0.000233728 -0.000225108)
(1.01652 9.96184e-07 -0.000311689)
(1.01646 0.000104875 -0.000220327)
(1.01642 0.000234574 -0.000323093)
(1.01641 0.000271486 -0.000219164)
(1.01639 0.000197232 -0.000255134)
(1.01646 0.000311911 -0.000316762)
(1.01643 0.000400932 -0.000158)
(1.0164 0.000488448 -0.000298665)
(1.01627 0.000462221 -0.000112003)
(1.01623 0.00027169 -0.000185703)
(1.01644 0.000316547 -0.00021267)
(1.01637 0.00059098 -5.28092e-05)
(1.01626 0.000453398 -9.86578e-05)
(1.01626 0.000686983 9.71725e-05)
(1.01619 0.000338526 6.96286e-05)
(1.01639 0.000831714 -3.37241e-05)
(1.01636 0.00101108 0.000101157)
(1.01629 0.00110527 0.000226678)
(1.01622 0.00117805 0.000280092)
(1.01617 0.000974356 0.000170222)
(1.01636 0.00105503 8.93843e-05)
(1.01638 0.00121162 0.00019556)
(1.01623 0.00124185 0.000210559)
(1.01616 0.0010717 0.000150392)
(1.01615 0.00111064 4.72088e-05)
(1.01607 0.000827399 -4.83959e-05)
(1.01612 0.000869638 -3.3335e-05)
(1.01598 0.000772405 -0.000124238)
(1.01589 0.000497769 -0.000263786)
(1.01583 0.000298984 -0.000382986)
(1.01602 -6.29123e-05 -0.000460622)
(1.01625 0.000389912 -0.000403242)
(1.0159 0.000411707 -0.000289436)
(1.01581 0.000147168 -0.000451254)
(1.01588 -9.61554e-05 -0.000545574)
(1.01599 -1.04529e-05 -0.000425146)
(1.01607 0.000118319 -0.000563235)
(1.01602 0.000235505 -0.000645204)
(1.01597 9.97947e-05 -0.000607905)
(1.01612 -7.79646e-05 -0.000544082)
(1.01641 0.000173982 -0.00064394)
(1.01634 0.00035046 -0.000480852)
(1.01629 0.000529616 -0.0006276)
(1.01624 0.000519873 -0.000466322)
(1.01624 0.000423574 -0.000531309)
(1.01634 0.00052398 -0.000579565)
(1.01631 0.000687965 -0.000383498)
(1.01626 0.000762569 -0.000551766)
(1.01608 0.000755653 -0.000288036)
(1.01606 0.000411191 -0.000407498)
(1.01637 0.000543885 -0.000423972)
(1.01627 0.000846204 -0.000214533)
(1.01616 0.000777268 -0.000248819)
(1.01611 0.00105806 1.52752e-05)
(1.01604 0.000551478 -3.44859e-05)
(1.01627 0.00130039 -0.000412977)
(1.01624 0.00152261 -0.00020246)
(1.01616 0.00177568 8.26638e-06)
(1.01603 0.0017683 7.34484e-05)
(1.01597 0.00153032 -0.000109331)
(1.01622 0.00160526 -0.00023303)
(1.01623 0.00182691 -9.56993e-05)
(1.01603 0.00183359 -3.03321e-05)
(1.01594 0.00164435 -0.000146504)
(1.01591 0.00165237 -0.000301839)
(1.01583 0.00123469 -0.000406246)
(1.0159 0.00129977 -0.000407756)
(1.01569 0.00115942 -0.000539127)
(1.01557 0.000806734 -0.000787072)
(1.01549 0.000478101 -0.000949139)
(1.0158 7.25607e-05 -0.00105862)
(1.01608 0.000645139 -0.000966721)
(1.0156 0.000689407 -0.000863678)
(1.01545 0.000342261 -0.00110415)
(1.01557 3.37213e-05 -0.00122755)
(1.01576 0.0002091 -0.00108007)
(1.01585 0.000468705 -0.00123461)
(1.01576 0.00059674 -0.00139933)
(1.01567 0.000403954 -0.00134282)
(1.01589 0.00021153 -0.00123567)
(1.01624 0.000466729 -0.00133872)
(1.01616 0.000748988 -0.0010663)
(1.01607 0.000972212 -0.00126516)
(1.01597 0.000920072 -0.001036)
(1.01598 0.000770301 -0.0011486)
(1.01615 0.000869296 -0.00117085)
(1.01612 0.00113633 -0.00092556)
(1.01604 0.00120022 -0.00111972)
(1.01579 0.00117569 -0.000777904)
(1.01581 0.000663041 -0.000977114)
(1.01623 0.000897716 -0.000953473)
(1.0161 0.00125481 -0.000645757)
(1.016 0.00131375 -0.000671127)
(1.01587 0.00159421 -0.000318712)
(1.01581 0.000924717 -0.000419264)
(1.01614 0.00196024 -0.00142198)
(1.01609 0.002377 -0.00105268)
(1.01598 0.00282737 -0.000697081)
(1.01577 0.00266786 -0.000621603)
(1.01571 0.00235622 -0.000908541)
(1.016 0.00240847 -0.00105384)
(1.01601 0.00274551 -0.000836845)
(1.01575 0.00276984 -0.000661805)
(1.01565 0.00252394 -0.000878809)
(1.01556 0.00245624 -0.00108186)
(1.01549 0.00184083 -0.00120951)
(1.01561 0.00192946 -0.00122864)
(1.01536 0.00179285 -0.00143161)
(1.01523 0.00134958 -0.001841)
(1.01513 0.000830004 -0.00207574)
(1.01556 0.000385153 -0.0022481)
(1.01592 0.0011172 -0.00212178)
(1.01532 0.00121024 -0.00206649)
(1.0151 0.000734689 -0.00242952)
(1.01528 0.00031635 -0.00259917)
(1.01557 0.000660347 -0.00242225)
(1.01571 0.0011053 -0.00256135)
(1.01562 0.00125977 -0.00284415)
(1.01556 0.000958712 -0.00277591)
(1.01587 0.000743071 -0.00260878)
(1.01624 0.00104262 -0.00270559)
(1.01609 0.00148277 -0.00229079)
(1.01591 0.00173791 -0.00253912)
(1.01577 0.00161753 -0.00224515)
(1.01583 0.00136212 -0.00244138)
(1.01604 0.00146049 -0.0024089)
(1.01599 0.00181861 -0.00207603)
(1.01586 0.0018789 -0.00229758)
(1.01556 0.00181308 -0.0018816)
(1.01567 0.00108577 -0.00219548)
(1.01617 0.00140887 -0.002104)
(1.01597 0.00185665 -0.00163503)
(1.01583 0.00211977 -0.00162706)
(1.01558 0.00234594 -0.00118758)
(1.01556 0.00150949 -0.00144206)
(1.01641 0.00298445 -0.0033224)
(1.01634 0.00365409 -0.00281413)
(1.01616 0.00433347 -0.00234404)
(1.01584 0.00398329 -0.0023287)
(1.01577 0.00366491 -0.00274796)
(1.01609 0.00366688 -0.00285776)
(1.01614 0.00414764 -0.00246232)
(1.01578 0.00414901 -0.00212958)
(1.01575 0.00388551 -0.00244148)
(1.01563 0.00374676 -0.00264605)
(1.01573 0.00291676 -0.00272901)
(1.01596 0.00299281 -0.00273119)
(1.01587 0.00286454 -0.00301335)
(1.01579 0.00231775 -0.00363223)
(1.0157 0.00157176 -0.00395817)
(1.01631 0.00107594 -0.00419429)
(1.01678 0.00198281 -0.00401031)
(1.0161 0.0021316 -0.00401501)
(1.01577 0.00148534 -0.00455601)
(1.01596 0.000884616 -0.00476312)
(1.01637 0.00137962 -0.0045434)
(1.01663 0.00198278 -0.00462515)
(1.0167 0.00219973 -0.00509091)
(1.01684 0.00182368 -0.00501423)
(1.01725 0.0016024 -0.00474123)
(1.01752 0.00192558 -0.00484497)
(1.01713 0.00260523 -0.00427769)
(1.01677 0.00287089 -0.00465004)
(1.01665 0.00265964 -0.0043192)
(1.01682 0.00226971 -0.00458031)
(1.01695 0.00245774 -0.00448596)
(1.01672 0.00296178 -0.0040468)
(1.01653 0.00295374 -0.0042904)
(1.01627 0.00277672 -0.0038014)
(1.01651 0.00185777 -0.00413108)
(1.01693 0.00232609 -0.00394366)
(1.01644 0.00295075 -0.0034206)
(1.01612 0.00342843 -0.00344668)
(1.01568 0.00356529 -0.00297403)
(1.01577 0.00247556 -0.00337312)
(1.01852 0.00409257 -0.00529104)
(1.01867 0.00517906 -0.0050262)
(1.01855 0.00601266 -0.00465134)
(1.01831 0.00541738 -0.00476399)
(1.01828 0.00505528 -0.00532902)
(1.01866 0.00501586 -0.0054038)
(1.01878 0.00572821 -0.00484926)
(1.01827 0.00567127 -0.00438392)
(1.01859 0.00540397 -0.00462727)
(1.01868 0.00522187 -0.0046879)
(1.01922 0.00416006 -0.0045412)
(1.01974 0.00433062 -0.0043538)
(1.02032 0.00423874 -0.0043833)
(1.02051 0.00365168 -0.00510919)
(1.02041 0.00256531 -0.00555098)
(1.02124 0.00211378 -0.00580724)
(1.02206 0.00331374 -0.00547194)
(1.02147 0.00362126 -0.00546062)
(1.02095 0.0028356 -0.00616691)
(1.02093 0.00202873 -0.00639664)
(1.02115 0.00270745 -0.00618819)
(1.02149 0.00334976 -0.00606293)
(1.02186 0.00351834 -0.00666301)
(1.02218 0.00307904 -0.00658426)
(1.02251 0.00297155 -0.00632715)
(1.02255 0.00336746 -0.00664346)
(1.02164 0.00439047 -0.00613232)
(1.02107 0.00448211 -0.00663313)
(1.02124 0.00412438 -0.00617293)
(1.02168 0.00351063 -0.00638658)
(1.02145 0.00381062 -0.00629531)
(1.02068 0.00444321 -0.0058144)
(1.02026 0.00433558 -0.00596365)
(1.02014 0.00394286 -0.00529927)
(1.0202 0.00279899 -0.00548851)
(1.02023 0.00338356 -0.00544992)
(1.01912 0.00426367 -0.00515716)
(1.01838 0.00486083 -0.0052865)
(1.01767 0.00472538 -0.0048185)
(1.01783 0.00334114 -0.0051152)
(1.02369 0.00492643 -0.00450787)
(1.02462 0.00613935 -0.00466006)
(1.02504 0.00724376 -0.00470866)
(1.02562 0.00658785 -0.0049986)
(1.02552 0.00629537 -0.00584288)
(1.02651 0.00604038 -0.00589703)
(1.02689 0.00708133 -0.0054672)
(1.0266 0.00695616 -0.0050071)
(1.02791 0.00669853 -0.00497384)
(1.02868 0.00662392 -0.00478872)
(1.02944 0.00543367 -0.0043247)
(1.03059 0.00574403 -0.00375342)
(1.03209 0.00587199 -0.00307729)
(1.03265 0.00534808 -0.00360639)
(1.03226 0.00391903 -0.00413108)
(1.03331 0.00312949 -0.00412917)
(1.03513 0.00464357 -0.00330541)
(1.03561 0.00525013 -0.00292736)
(1.03536 0.00454803 -0.00376711)
(1.035 0.00344472 -0.0040646)
(1.03477 0.00439905 -0.00405486)
(1.03545 0.00502209 -0.00368984)
(1.03611 0.00509919 -0.00422972)
(1.03593 0.00453168 -0.00433731)
(1.03578 0.00463729 -0.00452353)
(1.03567 0.00517275 -0.00546691)
(1.03444 0.00662337 -0.00552474)
(1.03329 0.00648533 -0.00620158)
(1.0333 0.00588947 -0.00554105)
(1.0332 0.00526017 -0.00548039)
(1.03157 0.00584079 -0.00556332)
(1.02949 0.00657485 -0.00526365)
(1.02786 0.00627222 -0.00523171)
(1.02756 0.00562903 -0.0043851)
(1.02622 0.00440859 -0.00443445)
(1.02592 0.00498273 -0.00469245)
(1.02435 0.00605788 -0.00485304)
(1.02348 0.00663669 -0.00490987)
(1.02266 0.00603562 -0.00406196)
(1.02279 0.00411361 -0.00395631)
(1.0335 0.00454997 -0.000227131)
(1.03406 0.00581473 0.000292595)
(1.03573 0.0070649 0.000211612)
(1.03834 0.00658791 0.000524031)
(1.03884 0.00644013 -0.000556574)
(1.04078 0.00600138 -0.000514806)
(1.04247 0.0074113 -0.000599885)
(1.04421 0.00722837 -0.000417337)
(1.04706 0.00705247 0.000290115)
(1.04828 0.00710082 -2.77903e-05)
(1.04798 0.00558683 0.000916798)
(1.05012 0.00582014 0.00169828)
(1.05212 0.0061454 0.00234845)
(1.05266 0.00622493 0.00137329)
(1.05095 0.00465346 0.000836203)
(1.05048 0.00365372 0.0025767)
(1.05299 0.00542605 0.00381836)
(1.05603 0.0066122 0.0049719)
(1.0575 0.0062637 0.00430767)
(1.05676 0.00492297 0.00453326)
(1.05606 0.00594097 0.00388629)
(1.05676 0.00643412 0.00427845)
(1.0578 0.0066678 0.003995)
(1.05774 0.00610924 0.00356477)
(1.05674 0.00596206 0.00256772)
(1.05694 0.00641511 0.00136494)
(1.05602 0.00811554 0.000424157)
(1.05457 0.00777645 -0.000362966)
(1.05302 0.00675142 0.000482553)
(1.05118 0.00599512 0.000697051)
(1.04792 0.00692086 -0.000468988)
(1.04452 0.00748749 -0.000994269)
(1.04144 0.00691594 -0.000812494)
(1.04008 0.0059365 9.73545e-07)
(1.03717 0.00423749 -0.000185357)
(1.03717 0.00456783 -0.000112625)
(1.03483 0.00587716 -0.000933162)
(1.03356 0.00669724 -0.00100644)
(1.03252 0.0059194 0.000180787)
(1.03351 0.00363167 0.000490801)
(1.05894 0.00338428 0.0113111)
(1.05698 0.00412593 0.013252)
(1.05703 0.00535583 0.0136979)
(1.05778 0.00518933 0.0153546)
(1.05737 0.00526472 0.0143758)
(1.05669 0.00436451 0.0147763)
(1.05711 0.00630252 0.0146317)
(1.06136 0.00619525 0.0150804)
(1.06303 0.00620874 0.015935)
(1.06823 0.00642063 0.014353)
(1.06559 0.00413719 0.0146203)
(1.06749 0.00383658 0.0150483)
(1.06703 0.00414051 0.0151645)
(1.06932 0.0051201 0.0134543)
(1.0677 0.00393636 0.0121426)
(1.0624 0.00254312 0.0147249)
(1.06385 0.00430508 0.0159558)
(1.06996 0.0061194 0.0177375)
(1.07529 0.00628239 0.017045)
(1.07482 0.00500235 0.0172666)
(1.0748 0.00635815 0.0160044)
(1.07513 0.00618413 0.0168308)
(1.07584 0.00647876 0.0171301)
(1.0768 0.00591992 0.0173664)
(1.07367 0.00539671 0.016623)
(1.07158 0.00547902 0.0168112)
(1.0707 0.00733367 0.0164416)
(1.07135 0.0071739 0.0159683)
(1.06877 0.00617196 0.0161334)
(1.06535 0.0054699 0.0151425)
(1.06411 0.00718332 0.0127772)
(1.06562 0.00783658 0.0119463)
(1.06423 0.00703984 0.0123278)
(1.06545 0.00545137 0.0135105)
(1.06341 0.00294436 0.0133939)
(1.06276 0.00284569 0.0143108)
(1.06008 0.00494033 0.0125842)
(1.0592 0.00603847 0.0116751)
(1.05888 0.00517633 0.0119201)
(1.06028 0.00247773 0.0122528)
(1.07589 0.000831271 0.027326)
(1.07133 0.000972879 0.0288478)
(1.06867 0.00195592 0.0293632)
(1.06567 0.00118032 0.0302066)
(1.06477 0.00118785 0.0297829)
(1.06153 -9.47781e-05 0.0298227)
(1.06094 0.00143519 0.0295984)
(1.06729 0.000450753 0.0301358)
(1.06274 0.000257976 0.0283909)
(1.0732 0.00088947 0.0281575)
(1.06595 -0.00068942 0.0253467)
(1.06742 -0.000654968 0.0254907)
(1.06494 0.000199923 0.0258154)
(1.07052 0.00121458 0.0254142)
(1.07249 0.000918598 0.0252446)
(1.06532 -0.000777567 0.0260275)
(1.06811 0.000162453 0.0278482)
(1.07384 0.00136421 0.0305367)
(1.08359 0.00167207 0.029755)
(1.08242 0.000721067 0.0278647)
(1.08672 0.00238343 0.0281934)
(1.08732 0.00160991 0.0297407)
(1.08797 0.00148392 0.0304699)
(1.08849 0.000766749 0.0316993)
(1.08498 0.000527077 0.0304288)
(1.08123 -0.000155834 0.0304707)
(1.08189 0.00113647 0.0317401)
(1.0832 0.000999966 0.0312839)
(1.07981 0.000574005 0.0309259)
(1.07628 7.4354e-05 0.0285176)
(1.07819 0.00157794 0.0281701)
(1.08522 0.00268068 0.029592)
(1.0845 0.00233294 0.02967)
(1.08609 0.000905492 0.0306728)
(1.08325 -0.000922847 0.0294879)
(1.0769 -0.00069096 0.028617)
(1.07511 0.00240824 0.026842)
(1.075 0.00347923 0.026025)
(1.07768 0.00270065 0.0275192)
(1.07647 -0.000269714 0.0279499)
(1.07649 -0.00314066 0.029716)
(1.07233 -0.00269644 0.0294732)
(1.06766 -0.00198633 0.0304235)
(1.06296 -0.00265921 0.0298716)
(1.06058 -0.00297833 0.0308465)
(1.05673 -0.00444894 0.0285118)
(1.05611 -0.00332266 0.028598)
(1.06085 -0.0040654 0.0286907)
(1.05171 -0.0041145 0.0265322)
(1.05937 -0.00361391 0.028756)
(1.04928 -0.00400163 0.0230295)
(1.05115 -0.00336908 0.0235918)
(1.04889 -0.00232113 0.0241174)
(1.05874 -0.00178741 0.0252639)
(1.06055 -0.00151569 0.027652)
(1.05881 -0.00273504 0.0277681)
(1.05878 -0.00269826 0.0300358)
(1.06366 -0.00220873 0.0330253)
(1.07318 -0.0022746 0.0329776)
(1.07023 -0.0035709 0.030618)
(1.07765 -0.002742 0.0346062)
(1.077 -0.00392157 0.0349417)
(1.08063 -0.00438925 0.0350822)
(1.07972 -0.00510627 0.0348732)
(1.08078 -0.00467921 0.0319447)
(1.07783 -0.00535238 0.0309718)
(1.08146 -0.00391684 0.0327986)
(1.08145 -0.00382045 0.0316496)
(1.07872 -0.00388198 0.0322306)
(1.07571 -0.00477039 0.0289401)
(1.07827 -0.00395038 0.0309808)
(1.08325 -0.00246749 0.0331129)
(1.08417 -0.00189843 0.0333107)
(1.08265 -0.0029327 0.0343184)