# y+ ()       
# Time        	patch         	min           	max           	average       
57            	bottomWall	1.235219e+00	3.690060e+00	2.063477e+00
57            	topWall	1.257670e+00	3.915804e+00	2.105300e+00
