/*--------------------------------*- C++ -*----------------------------------*\
  =========                 |
  \\      /  F ield         | OpenFOAM: The Open Source CFD Toolbox
   \\    /   O peration     | Website:  https://openfoam.org
    \\  /    A nd           | Version:  10
     \\/     M anipulation  |
\*---------------------------------------------------------------------------*/
FoamFile
{
    format      ascii;
    class       surfaceScalarField;
    location    "22.5";
    object      phi;
}
// * * * * * * * * * * * * * * * * * * * * * * * * * * * * * * * * * * * * * //

dimensions      [0 3 -1 0 0 0 0];

internalField   nonuniform List<scalar> 
74080
(
1.01357e-05
6.4756e-11
-1.45882e-08
1.0134e-05
8.97189e-09
-9.82219e-09
1.01347e-05
3.66508e-09
-1.37437e-08
1.01358e-05
9.80636e-09
-1.28349e-08
1.01372e-05
1.37353e-08
-2.20436e-08
1.01409e-05
1.28823e-08
-1.92731e-08
1.01417e-05
1.11349e-08
-2.12963e-08
1.01472e-05
6.36558e-09
-1.57943e-08
1.01518e-05
1.07157e-08
-2.87232e-08
1.01507e-05
2.22018e-08
-2.2681e-08
1.01577e-05
1.47809e-08
-3.11678e-08
1.01607e-05
1.46017e-08
-2.58028e-08
1.01632e-05
1.14806e-08
-2.47287e-08
1.01664e-05
1.57402e-08
-3.0409e-08
1.01691e-05
1.81813e-08
-3.1734e-08
1.0168e-05
2.51246e-08
-3.11984e-08
1.01707e-05
1.34772e-08
-3.05965e-08
1.01743e-05
1.10056e-08
-2.58047e-08
1.01684e-05
1.8857e-08
-3.02047e-08
1.01699e-05
1.88503e-08
-3.21821e-08
1.01753e-05
1.37064e-08
-3.41993e-08
1.0162e-05
2.70548e-08
-2.23355e-08
1.01673e-05
5.0062e-09
-2.77921e-08
1.01745e-05
3.80778e-09
-2.21277e-08
1.01515e-05
3.65213e-08
-2.55082e-08
1.01667e-05
-1.47858e-09
-2.49574e-08
1.0163e-05
1.73816e-08
-2.01798e-08
1.01505e-05
2.20348e-08
-1.7067e-08
1.01603e-05
-2.08565e-09
-1.32158e-08
1.01496e-05
2.35655e-08
-1.45636e-08
1.01562e-05
1.69019e-09
-1.69285e-08
1.01432e-05
2.21272e-08
-4.76297e-09
1.01487e-05
7.19952e-10
-1.48444e-08
1.01516e-05
7.40147e-09
-6.91887e-09
1.01294e-05
3.00706e-08
-8.39597e-09
1.01513e-05
-1.41639e-08
-1.19959e-08
1.01357e-05
1.9868e-08
-6.09329e-09
1.01327e-05
7.94348e-09
-6.74988e-09
1.01432e-05
-3.39337e-09
-1.26972e-08
2.68594e-08
-9.48716e-09
3.43194e-05
1.08963e-08
-3.98235e-08
3.43122e-05
3.98288e-08
-3.08744e-08
3.43146e-05
2.01606e-08
-4.42022e-08
3.43146e-05
4.42503e-08
-4.07412e-08
3.43209e-05
4.87107e-08
-6.4357e-08
3.43283e-05
5.20211e-08
-5.52575e-08
3.43349e-05
4.33995e-08
-6.72733e-08
3.43472e-05
3.71218e-08
-5.65699e-08
3.4359e-05
5.10953e-08
-8.8369e-08
3.43659e-05
7.84982e-08
-7.21198e-08
3.43845e-05
5.91531e-08
-9.76913e-08
3.43939e-05
6.16822e-08
-7.971e-08
3.44055e-05
5.14621e-08
-9.11622e-08
3.44158e-05
6.93576e-08
-9.62283e-08
3.44257e-05
7.18785e-08
-1.02828e-07
3.44296e-05
9.01143e-08
-9.78167e-08
3.44385e-05
5.5835e-08
-1.01644e-07
3.44433e-05
5.82942e-08
-9.07688e-08
3.44373e-05
7.19996e-08
-1.03494e-07
3.44428e-05
7.55395e-08
-1.01152e-07
3.4446e-05
6.25273e-08
-1.0417e-07
3.4428e-05
9.02836e-08
-7.96575e-08
3.44365e-05
3.35144e-08
-9.32084e-08
3.44356e-05
4.5479e-08
-7.44373e-08
3.44052e-05
1.0971e-07
-8.51705e-08
3.44262e-05
2.05226e-08
-7.27497e-08
3.44089e-05
7.33534e-08
-6.55373e-08
3.43943e-05
6.956e-08
-5.42108e-08
3.44008e-05
1.99706e-08
-4.77323e-08
3.43824e-05
8.01556e-08
-4.62763e-08
3.43873e-05
2.32336e-08
-4.53825e-08
3.43641e-05
7.54315e-08
-2.29697e-08
3.43716e-05
1.38888e-08
-4.17534e-08
3.43631e-05
4.58059e-08
-2.00588e-08
3.43353e-05
7.86141e-08
-2.88547e-08
3.43603e-05
-1.57799e-08
-2.85554e-08
3.43273e-05
6.62258e-08
-2.09043e-08
3.43279e-05
2.54589e-08
-2.31036e-08
3.43314e-05
1.24588e-08
-3.33469e-08
7.55876e-08
-2.82863e-08
6.51622e-05
4.06089e-08
-5.99048e-08
6.51452e-05
9.36254e-08
-4.65435e-08
6.51417e-05
5.51009e-08
-6.95928e-08
6.51353e-05
1.02724e-07
-6.05993e-08
6.51408e-05
1.05403e-07
-9.94129e-08
6.51474e-05
1.16643e-07
-8.35588e-08
6.51567e-05
9.7549e-08
-1.09313e-07
6.5172e-05
9.35156e-08
-9.15746e-08
6.51915e-05
1.18883e-07
-1.44893e-07
6.52078e-05
1.64347e-07
-1.17333e-07
6.52393e-05
1.32669e-07
-1.65326e-07
6.52583e-05
1.39921e-07
-1.33491e-07
6.52834e-05
1.19289e-07
-1.6253e-07
6.53063e-05
1.60139e-07
-1.66002e-07
6.533e-05
1.58426e-07
-1.82121e-07
6.53463e-05
1.9344e-07
-1.71789e-07
6.5366e-05
1.28793e-07
-1.84351e-07
6.53794e-05
1.44718e-07
-1.6881e-07
6.53801e-05
1.59429e-07
-1.90529e-07
6.53939e-05
1.74421e-07
-1.8431e-07
6.54005e-05
1.47122e-07
-1.91284e-07
6.53844e-05
1.92769e-07
-1.55495e-07
6.53942e-05
9.70623e-08
-1.78718e-07
6.53894e-05
1.29697e-07
-1.46045e-07
6.53579e-05
2.21096e-07
-1.65358e-07
6.5378e-05
8.20198e-08
-1.39835e-07
6.53531e-05
1.6873e-07
-1.3193e-07
6.53359e-05
1.52287e-07
-1.09361e-07
6.53353e-05
7.78125e-08
-1.01977e-07
6.53107e-05
1.76461e-07
-9.35568e-08
6.53105e-05
7.49236e-08
-8.7668e-08
6.52803e-05
1.65121e-07
-5.54686e-08
6.52818e-05
5.32885e-08
-7.63198e-08
6.52648e-05
1.19379e-07
-4.39277e-08
6.52303e-05
1.49789e-07
-5.32041e-08
6.52482e-05
1.08977e-08
-4.84751e-08
6.5203e-05
1.36257e-07
-3.8192e-08
6.51974e-05
6.49388e-08
-3.83159e-08
6.519e-05
5.13865e-08
-5.18488e-08
1.46804e-07
-4.34188e-08
0.000103629
9.94836e-08
-7.47863e-08
0.000103591
1.76105e-07
-4.96056e-08
0.00010357
1.1443e-07
-8.375e-08
0.000103545
1.87083e-07
-6.13424e-08
0.000103537
1.84783e-07
-1.16633e-07
0.00010353
2.03525e-07
-8.8578e-08
0.000103532
1.72576e-07
-1.32287e-07
0.000103539
1.70879e-07
-1.00456e-07
0.00010356
2.08615e-07
-1.82343e-07
0.00010358
2.69985e-07
-1.35898e-07
0.000103623
2.27008e-07
-2.15224e-07
0.000103651
2.44461e-07
-1.70584e-07
0.000103691
2.02738e-07
-2.13347e-07
0.000103732
2.80005e-07
-2.24645e-07
0.000103776
2.67161e-07
-2.51137e-07
0.000103815
3.283e-07
-2.40059e-07
0.000103854
2.25163e-07
-2.63468e-07
0.00010389
2.64469e-07
-2.47839e-07
0.000103907
2.76104e-07
-2.82249e-07
0.000103941
3.1104e-07
-2.75593e-07
0.000103964
2.64103e-07
-2.91605e-07
0.000103959
3.33277e-07
-2.46044e-07
0.00010398
1.98157e-07
-2.86882e-07
0.000103981
2.57817e-07
-2.40356e-07
0.000103955
3.72755e-07
-2.71475e-07
0.00010398
1.904e-07
-2.38376e-07
0.000103954
3.09731e-07
-2.30008e-07
0.000103937
2.80062e-07
-1.9739e-07
0.000103932
1.80416e-07
-1.8741e-07
0.000103902
3.26932e-07
-1.77211e-07
0.000103897
1.67008e-07
-1.58305e-07
0.00010386
3.04514e-07
-1.1772e-07
0.000103854
1.33612e-07
-1.35624e-07
0.000103829
2.42027e-07
-9.20841e-08
0.000103785
2.57971e-07
-9.36959e-08
0.000103791
7.99708e-08
-8.29393e-08
0.000103732
2.42812e-07
-6.55153e-08
0.000103713
1.39384e-07
-5.78102e-08
0.000103689
1.25055e-07
-7.23063e-08
2.49692e-07
-5.39362e-08
0.000150563
2.07449e-07
-1.00928e-07
0.000150492
3.02621e-07
-4.79983e-08
0.000150441
2.1336e-07
-9.44307e-08
0.000150381
3.07359e-07
-4.41806e-08
0.000150341
2.99192e-07
-1.19517e-07
0.0001503
3.17647e-07
-6.27418e-08
0.000150273
2.73876e-07
-1.28491e-07
0.000150251
2.69826e-07
-6.90715e-08
0.000150253
3.1787e-07
-1.86794e-07
0.000150257
3.93569e-07
-1.09225e-07
0.000150297
3.2801e-07
-2.1816e-07
0.000150322
3.74415e-07
-1.75756e-07
0.000150364
2.86925e-07
-2.11959e-07
0.000150421
4.14791e-07
-2.44539e-07
0.000150482
3.80683e-07
-2.78083e-07
0.00015055
4.77947e-07
-2.7478e-07
0.00015061
3.31495e-07
-3.10761e-07
0.000150681
3.98677e-07
-2.97666e-07
0.000150727
4.06053e-07
-3.52447e-07
0.000150796
4.70907e-07
-3.51898e-07
0.000150855
4.00042e-07
-3.82097e-07
0.000150878
4.95398e-07
-3.28439e-07
0.000150927
3.26764e-07
-4.00286e-07
0.000150953
4.20108e-07
-3.4489e-07
0.000150949
5.54199e-07
-3.90552e-07
0.000150995
3.41414e-07
-3.62691e-07
0.000150984
4.92297e-07
-3.56584e-07
0.00015098
4.58165e-07
-3.27108e-07
0.000150982
3.23556e-07
-3.00892e-07
0.000150956
5.42382e-07
-3.16141e-07
0.000150952
3.09049e-07
-2.71364e-07
0.000150918
5.02003e-07
-2.26345e-07
0.000150903
2.73718e-07
-2.44124e-07
0.000150878
4.26581e-07
-1.8269e-07
0.000150827
4.25476e-07
-1.77944e-07
0.000150817
2.08302e-07
-1.51199e-07
0.000150749
4.05979e-07
-1.2676e-07
0.00015071
2.67853e-07
-1.03164e-07
0.000150668
2.56059e-07
-1.15594e-07
4.01827e-07
-7.42414e-08
0.000206539
3.90162e-07
-1.75589e-07
0.000206434
4.9761e-07
-7.55601e-08
0.000206347
3.829e-07
-1.38603e-07
0.000206247
4.85014e-07
-3.36123e-08
0.000206162
4.76562e-07
-1.38423e-07
0.000206068
4.86584e-07
-3.12731e-08
0.000205991
4.22414e-07
-1.13982e-07
0.000205908
4.12622e-07
-1.49132e-08
0.000205862
4.53111e-07
-1.57488e-07
0.000205816
5.62092e-07
-5.35924e-08
0.000205814
4.3447e-07
-1.53365e-07
0.000205812
5.36637e-07
-1.45634e-07
0.000205814
3.80379e-07
-1.47117e-07
0.000205864
5.60421e-07
-2.02632e-07
0.000205909
4.9583e-07
-2.37633e-07
0.000205993
6.21645e-07
-2.38829e-07
0.000206053
4.40294e-07
-2.9538e-07
0.000206149
5.30812e-07
-2.78895e-07
0.000206229
5.20934e-07
-3.52419e-07
0.000206328
6.32131e-07
-3.73681e-07
0.000206437
5.40643e-07
-4.23877e-07
0.000206502
6.50884e-07
-3.5704e-07
0.000206591
4.56452e-07
-4.70167e-07
0.00020667
5.91357e-07
-4.19599e-07
0.000206712
7.3527e-07
-4.78054e-07
0.000206798
5.1684e-07
-4.78133e-07
0.000206834
6.84167e-07
-4.66458e-07
0.000206865
6.81391e-07
-4.88198e-07
0.000206902
4.8225e-07
-4.06638e-07
0.000206908
8.00173e-07
-4.88335e-07
0.000206923
5.05141e-07
-4.30922e-07
0.000206919
7.39419e-07
-3.6725e-07
0.000206909
4.87815e-07
-4.22349e-07
0.000206899
6.67321e-07
-3.18552e-07
0.000206865
6.63199e-07
-3.30644e-07
0.00020684
4.08479e-07
-2.77498e-07
0.000206784
6.35688e-07
-2.48411e-07
0.000206729
4.71234e-07
-2.09008e-07
0.000206682
4.70305e-07
-2.2245e-07
6.24967e-07
-1.3759e-07
0.00027163
6.58972e-07
-3.35129e-07
0.000271525
7.69694e-07
-1.70698e-07
0.000271416
6.5339e-07
-2.77349e-07
0.000271297
7.54828e-07
-9.12043e-08
0.000271187
7.33093e-07
-2.09939e-07
0.000271042
7.51768e-07
-6.72508e-08
0.000270918
6.42322e-07
-1.31487e-07
0.000270766
6.53403e-07
-4.9009e-09
0.000270644
6.3883e-07
-1.21091e-07
0.00027054
8.13617e-07
-2.97678e-08
0.000270435
5.90973e-07
-5.86915e-08
0.000270383
7.48478e-07
-9.70013e-08
0.000270292
5.32973e-07
-6.00125e-08
0.000270288
7.37859e-07
-1.09507e-07
0.000270261
6.47107e-07
-1.4879e-07
0.000270305
7.8782e-07
-1.31286e-07
0.000270319
5.65164e-07
-2.04942e-07
0.000270372
6.90023e-07
-1.94261e-07
0.000270454
6.1751e-07
-2.44996e-07
0.000270545
7.65742e-07
-2.90115e-07
0.000270667
6.89488e-07
-3.82773e-07
0.000270772
7.96382e-07
-2.94438e-07
0.000270874
5.69243e-07
-4.41265e-07
0.000271002
7.56554e-07
-4.13164e-07
0.00027111
8.63727e-07
-4.52372e-07
0.000271236
6.97521e-07
-5.32771e-07
0.000271347
8.39476e-07
-4.70272e-07
0.000271435
9.20293e-07
-6.26682e-07
0.000271529
6.51703e-07
-4.66664e-07
0.000271608
1.01925e-06
-5.84518e-07
0.000271667
7.41836e-07
-6.06591e-07
0.000271743
9.59027e-07
-4.62939e-07
0.000271781
7.60538e-07
-6.45877e-07
0.000271807
9.48398e-07
-4.76919e-07
0.000271849
9.26167e-07
-5.14807e-07
0.000271819
6.734e-07
-4.62655e-07
0.00027182
9.10269e-07
-4.24495e-07
0.000271777
7.4752e-07
-3.83066e-07
0.000271757
7.73575e-07
-4.26042e-07
9.31999e-07
-2.74425e-07
0.000345144
9.78391e-07
-5.63337e-07
0.000345105
1.07734e-06
-3.23314e-07
0.00034503
9.87822e-07
-4.9967e-07
0.000344938
1.1614e-06
-3.10718e-07
0.000344865
1.06442e-06
-3.53076e-07
0.000344724
1.10852e-06
-2.26512e-07
0.000344584
9.2436e-07
-2.1502e-07
0.000344439
9.97867e-07
-1.08979e-07
0.000344242
9.39899e-07
-1.66507e-07
0.00034414
1.15764e-06
-9.52553e-08
0.00034393
8.48285e-07
-2.79705e-08
0.000343813
1.03927e-06
-7.58214e-08
0.000343621
7.91612e-07
-3.42694e-08
0.000343528
1.01473e-06
-4.7479e-08
0.000343408
8.70743e-07
-6.3571e-08
0.000343349
1.0281e-06
-1.70221e-08
0.000343277
7.46827e-07
-6.73406e-08
0.000343196
9.39986e-07
-1.1662e-07
0.000343183
8.13022e-07
-1.20664e-07
0.000343205
8.93946e-07
-1.0028e-07
0.000343236
8.38826e-07
-2.33642e-07
0.000343321
9.64073e-07
-1.39408e-07
0.000343377
6.89769e-07
-3.00169e-07
0.000343448
9.96928e-07
-3.59439e-07
0.000343591
9.43602e-07
-2.67193e-07
0.000343706
8.41346e-07
-4.57975e-07
0.00034387
9.54092e-07
-3.00229e-07
0.000344009
1.10754e-06
-6.14612e-07
0.000344132
9.13582e-07
-5.17326e-07
0.000344287
1.15966e-06
-4.89513e-07
0.00034439
9.68704e-07
-7.08026e-07
0.000344555
1.10907e-06
-4.0203e-07
0.00034472
9.98656e-07
-7.73422e-07
0.00034478
1.30295e-06
-6.41808e-07
0.000344971
1.15978e-06
-6.32264e-07
0.000344968
9.3448e-07
-6.15755e-07
0.000345058
1.16397e-06
-5.791e-07
0.000345097
1.04166e-06
-5.46373e-07
0.000345146
1.14844e-06
-7.01587e-07
1.29416e-06
-4.73832e-07
0.000425578
1.3239e-06
-7.8194e-07
0.000425641
1.343e-06
-4.65503e-07
0.000425669
1.221e-06
-5.99403e-07
0.000425685
1.65757e-06
-6.60767e-07
0.000425704
1.54126e-06
-6.14726e-07
0.000425693
1.53377e-06
-4.97329e-07
0.000425552
1.21012e-06
-3.4808e-07
0.000425527
1.31936e-06
-2.60792e-07
0.000425329
1.37659e-06
-3.81325e-07
0.000425306
1.67026e-06
-3.25607e-07
0.00042513
1.19676e-06
-1.33793e-07
0.000425001
1.35227e-06
-9.15637e-08
0.000424792
1.07785e-06
-6.11393e-08
0.000424629
1.47675e-06
-1.67191e-07
0.00042447
1.29483e-06
-1.29028e-07
0.000424339
1.36524e-06
-3.2627e-09
0.000424212
9.43407e-07
1.04978e-07
0.000424032
1.20463e-06
-2.06317e-08
0.000423855
1.23661e-06
-1.73423e-07
0.00042374
1.28626e-06
-6.23159e-08
0.000423607
1.0546e-06
-6.19259e-08
0.000423551
1.12969e-06
9.88659e-08
0.000423543
7.78428e-07
-1.1149e-09
0.000423422
1.38471e-06
-3.41133e-07
0.000423474
1.24869e-06
-1.44058e-07
0.000423446
1.01621e-06
-2.92392e-07
0.000423542
1.04083e-06
1.229e-08
0.000423684
1.10547e-06
-2.41789e-07
0.00042377
1.29094e-06
-5.61891e-07
0.000423902
1.44455e-06
-3.29232e-07
0.000423987
1.21219e-06
-6.94547e-07
0.000424105
1.21477e-06
-1.66882e-07
0.000424416
1.0247e-06
-5.40832e-07
0.000424506
1.71398e-06
-7.2778e-07
0.000424819
1.50974e-06
-7.14533e-07
0.000424879
1.20871e-06
-6.52962e-07
0.000425015
1.29546e-06
-5.61518e-07
0.000425187
1.18678e-06
-4.85317e-07
0.000425334
1.52949e-06
-8.97313e-07
1.75191e-06
-7.16134e-07
0.000511059
1.95562e-06
-1.02441e-06
0.00051121
1.70013e-06
-6.27706e-07
0.000511293
1.15387e-06
-3.24044e-07
0.000511484
1.8341e-06
-7.03823e-07
0.000511596
2.17657e-06
-9.64575e-07
0.000511816
2.24798e-06
-9.39831e-07
0.000511734
1.59409e-06
-5.77358e-07
0.00051183
1.37959e-06
-1.88554e-07
0.000511748
1.56788e-06
-4.72097e-07
0.000511812
2.40452e-06
-7.74844e-07
0.000511785
1.9104e-06
-5.57357e-07
0.000511735
1.77842e-06
-2.30774e-07
0.000511643
1.08773e-06
1.29972e-07
0.000511551
1.71511e-06
-2.20206e-07
0.000511451
2.01427e-06
-4.89608e-07
0.000511337
2.14434e-06
-4.04857e-07
0.000511235
1.28489e-06
1.14678e-07
0.000511101
1.16829e-06
3.5735e-07
0.000510957
1.41941e-06
-9.18626e-08
0.000510775
2.03543e-06
-4.10413e-07
0.00051055
1.8145e-06
-3.44351e-07
0.000510258
1.50884e-06
1.34437e-07
0.000510195
6.49499e-07
5.37391e-07
0.000509925
1.5008e-06
-4.75701e-08
0.000509868
1.87098e-06
-2.80472e-07
0.00050962
1.68539e-06
-4.36825e-07
0.00050945
1.41197e-06
8.98752e-08
0.000509441
8.50879e-07
5.13605e-07
0.000509458
1.31415e-06
-2.09927e-07
0.000509492
1.97917e-06
-2.50413e-07
0.000509478
1.84199e-06
-8.03219e-07
0.000509342
1.60728e-06
-9.27928e-08
0.000509564
7.73933e-07
1.27562e-07
0.000509662
1.77218e-06
-3.3882e-07
0.000509998
2.04306e-06
-7.61023e-07
0.000510104
1.91908e-06
-8.23922e-07
0.000510134
1.58219e-06
-4.92837e-07
0.000510342
1.01765e-06
-1.19747e-08
0.00051053
1.53822e-06
-5.84458e-07
2.28263e-06
-8.88716e-07
0.000600025
2.8326e-06
-1.27263e-06
0.000600242
2.83e-06
-1.14537e-06
0.000600205
1.3369e-06
3.59211e-08
0.000600456
1.23524e-06
1.28911e-07
0.000600659
2.13693e-06
-7.8739e-07
0.000601089
3.21774e-06
-1.49979e-06
0.000601136
2.73529e-06
-1.26593e-06
0.000601209
1.7048e-06
-9.43292e-08
0.000601232
9.91313e-07
2.03852e-07
0.000601437
2.47503e-06
-7.95952e-07
0.000601633
2.91527e-06
-1.30314e-06
0.000601664
3.00457e-06
-1.01416e-06
0.000601601
1.35537e-06
3.00745e-07
0.000601565
1.18564e-06
4.66906e-07
0.000601697
2.04896e-06
-4.23966e-07
0.000601761
3.24943e-06
-1.20849e-06
0.000601778
2.53636e-06
-6.91006e-07
0.000601619
1.40529e-06
6.07415e-07
0.000601613
8.15659e-07
7.57267e-07
0.000601605
2.06431e-06
-3.03181e-07
0.000601658
2.92344e-06
-1.09888e-06
0.000601313
2.79572e-06
-6.83119e-07
0.000601152
9.01218e-07
7.10326e-07
0.000600765
9.60572e-07
8.50473e-07
0.00060073
1.82737e-06
-2.15502e-08
0.000600537
2.69737e-06
-9.22696e-07
0.000600194
2.73192e-06
-6.84905e-07
0.000599899
1.08181e-06
8.90979e-07
0.000599695
6.42582e-07
8.19151e-07
0.000599665
1.85595e-06
2.5516e-07
0.000599647
2.71016e-06
-1.03102e-06
0.000599329
2.91037e-06
-7.1722e-07
0.000599167
9.79902e-07
5.44876e-07
0.000599059
1.11813e-06
7.48158e-07
0.000599306
1.89066e-06
-2.17218e-07
0.000599508
2.992e-06
-1.19095e-06
0.000599363
2.85717e-06
-9.70108e-07
0.000599363
1.1923e-06
3.90304e-07
0.000599351
8.3947e-07
5.34772e-07
2.12187e-06
-4.34252e-07
0.000691365
2.66797e-06
-9.45624e-07
0.000691787
4.24748e-06
-2.10189e-06
0.000691621
2.75695e-06
-4.06468e-07
0.000691564
9.84011e-07
1.40209e-06
0.000691609
9.60753e-07
6.91553e-07
0.000692155
3.1367e-06
-1.41184e-06
0.000692532
4.09002e-06
-2.40246e-06
0.000692581
3.209e-06
-7.84886e-07
0.000692403
8.08683e-07
1.26173e-06
0.000692492
1.39463e-06
5.09495e-07
0.000692972
2.82575e-06
-1.40422e-06
0.000693311
4.43769e-06
-2.39986e-06
0.000693344
2.85297e-06
-5.24841e-07
0.000693032
1.06592e-06
1.40785e-06
0.000693117
9.67566e-07
9.42513e-07
0.000693396
3.23125e-06
-1.31663e-06
0.000693786
4.07441e-06
-2.1615e-06
0.000693666
2.96889e-06
-2.42643e-07
0.000693521
6.16314e-07
1.8085e-06
0.000693478
9.43191e-07
1.11481e-06
0.000693944
2.86892e-06
-1.17225e-06
0.000694033
4.29996e-06
-2.08977e-06
0.000694006
2.37281e-06
-2.43313e-07
0.000693505
8.48521e-07
1.73454e-06
0.000693321
7.16772e-07
1.26657e-06
0.000693384
2.60473e-06
-8.78442e-07
0.000693297
4.29146e-06
-2.09033e-06
0.000693017
2.66974e-06
9.65262e-09
0.000692483
4.8348e-07
1.84853e-06
0.000692265
7.21343e-07
1.62978e-06
0.000692342
2.44676e-06
-6.92544e-07
0.000692285
4.37403e-06
-1.90355e-06
0.000691947
2.53503e-06
-1.44619e-07
0.000691401
9.54426e-07
1.81829e-06
0.000691284
6.49988e-07
1.34397e-06
0.000691645
2.91259e-06
-1.03091e-06
0.000691659
4.4941e-06
-2.07649e-06
0.000691491
2.75812e-06
-1.98663e-07
0.000690985
6.42893e-07
1.77958e-06
9.33793e-07
1.12484e-06
0.000784154
1.59711e-06
7.3441e-07
0.000784797
4.31897e-06
-2.58596e-06
0.000784992
4.13334e-06
-1.95288e-06
0.000784729
1.93749e-06
1.60046e-06
0.000784249
3.00948e-07
2.84215e-06
0.000784394
2.0774e-06
2.68857e-07
0.000785065
4.08295e-06
-2.89777e-06
0.000785499
4.57553e-06
-2.44287e-06
0.000785257
1.77236e-06
1.29523e-06
0.000784779
8.23468e-07
2.53434e-06
0.000785028
1.75722e-06
1.84489e-07
0.000785682
4.43467e-06
-3.07186e-06
0.000786263
4.18625e-06
-2.32363e-06
0.000785897
2.05893e-06
1.22303e-06
0.000785493
4.42411e-07
2.89659e-06
0.000785505
2.20825e-06
3.16389e-07
0.000786215
4.16551e-06
-2.93815e-06
0.000786559
4.44391e-06
-2.16065e-06
0.000786354
1.59947e-06
1.70341e-06
0.000785845
4.18434e-07
3.10683e-06
0.000786138
1.81359e-06
4.53116e-07
0.000786703
4.37178e-06
-2.75288e-06
0.000787208
3.68829e-06
-2.09121e-06
0.0007869
1.79794e-06
1.50819e-06
0.000786345
1.1592e-07
3.05417e-06
0.000786315
1.47337e-06
6.66936e-07
0.00078659
4.34235e-06
-2.82138e-06
0.000786863
4.1347e-06
-2.0351e-06
0.000786337
1.54489e-06
1.64723e-06
0.000785717
2.26812e-07
3.39814e-06
0.000785561
1.25252e-06
1.00858e-06
0.000785908
4.3174e-06
-2.47593e-06
0.000786116
3.90632e-06
-1.94514e-06
0.000785501
2.00109e-06
1.68862e-06
0.000784716
3.42935e-08
3.34521e-06
0.000784805
1.75387e-06
5.4656e-07
0.000785234
4.6161e-06
-2.79467e-06
0.000785527
4.25162e-06
-1.9685e-06
0.000784863
1.64789e-06
1.85053e-06
3.56105e-07
3.15325e-06
0.000878712
1.12005e-06
2.86302e-06
0.000879017
3.57229e-06
-1.41692e-06
0.000879562
4.03473e-06
-3.00436e-06
0.00087963
2.52074e-06
3.46709e-07
0.000879053
5.02758e-07
3.69654e-06
0.000878588
1.54318e-06
2.51237e-06
0.00087894
3.30047e-06
-1.62352e-06
0.000879647
4.41109e-06
-3.38858e-06
0.00087983
2.33286e-06
3.34872e-08
0.000879181
1.08535e-06
3.32308e-06
0.000878842
1.24399e-06
2.42209e-06
0.000879205
3.59296e-06
-1.86177e-06
0.000880129
3.97155e-06
-3.30544e-06
0.000880255
2.5531e-06
-1.62532e-07
0.000879747
7.16917e-07
3.4984e-06
0.000879239
1.75207e-06
2.53259e-06
0.000879625
3.41064e-06
-1.75748e-06
0.000880323
4.37291e-06
-3.35127e-06
0.000880518
2.15688e-06
2.60904e-07
0.000879889
7.57413e-07
3.76905e-06
0.000879607
1.36846e-06
2.64465e-06
0.000879975
3.62202e-06
-1.5384e-06
0.000880776
3.54747e-06
-3.12429e-06
0.000881009
2.27877e-06
1.31883e-07
0.00088046
3.22328e-07
3.62427e-06
0.000880091
8.81664e-07
2.76641e-06
0.000880201
3.53015e-06
-1.65717e-06
0.000880878
3.96611e-06
-3.25326e-06
0.000880884
2.13872e-06
1.41041e-07
0.000880268
6.02953e-07
3.81502e-06
0.000879692
7.23641e-07
3.0861e-06
0.000879833
3.45158e-06
-1.27407e-06
0.000880534
3.67868e-06
-3.06064e-06
0.000880536
2.53005e-06
2.23165e-07
0.000879656
3.34274e-07
3.98718e-06
0.000879161
1.18224e-06
2.7277e-06
0.000879429
3.76694e-06
-1.71008e-06
0.000880196
4.13679e-06
-3.22449e-06
0.000880085
2.22934e-06
4.46861e-07
6.05233e-07
3.82934e-06
0.000976166
1.13209e-06
3.55253e-06
0.000976045
2.93814e-06
2.92154e-07
0.00097639
3.12092e-06
-2.38846e-06
0.000976664
2.1221e-06
-6.76515e-07
0.000976468
5.73222e-07
2.88226e-06
0.000975989
1.46718e-06
3.36316e-06
0.000975896
2.65084e-06
2.00275e-07
0.000976313
3.44262e-06
-2.60702e-06
0.000976709
1.88134e-06
-8.49573e-07
0.000976434
1.14959e-06
2.56164e-06
0.000975998
1.22373e-06
3.3019e-06
0.000975913
2.88672e-06
-5.24089e-08
0.000976504
2.96499e-06
-2.51315e-06
0.000976888
2.02022e-06
-1.04125e-06
0.000976758
7.49747e-07
2.63322e-06
0.000976255
1.72626e-06
3.37059e-06
0.000976163
2.78359e-06
8.28655e-08
0.000976595
3.44459e-06
-2.67522e-06
0.000977006
1.69521e-06
-8.00164e-07
0.000976761
8.44501e-07
2.90618e-06
0.00097638
1.39668e-06
3.42898e-06
0.000976316
3.01255e-06
2.48165e-07
0.000976788
2.63997e-06
-2.40963e-06
0.000977221
1.82535e-06
-8.04512e-07
0.000977041
3.8501e-07
2.73391e-06
0.000976729
7.73608e-07
3.50095e-06
0.000976534
2.85462e-06
1.35483e-07
0.000976975
2.96263e-06
-2.59718e-06
0.000977274
1.70051e-06
-9.19437e-07
0.000977073
7.68928e-07
2.77483e-06
0.000976581
7.27812e-07
3.68165e-06
0.000976357
2.78592e-06
4.19523e-07
0.000976831
2.66479e-06
-2.39305e-06
0.000977205
2.02122e-06
-8.9471e-07
0.000976843
4.47403e-07
3.02494e-06
0.000976329
1.1477e-06
3.48851e-06
0.000976198
3.03739e-06
9.16542e-08
0.00097675
3.12143e-06
-2.66544e-06
0.000977001
1.79679e-06
-6.92143e-07
6.47882e-07
2.9028e-06
0.00107822
1.04342e-06
2.80145e-06
0.00107805
2.31709e-06
1.07204e-06
0.00107805
2.122e-06
-1.11548e-06
0.00107819
1.40859e-06
-6.88513e-07
0.00107826
3.81837e-07
1.7042e-06
0.00107814
1.31311e-06
2.69908e-06
0.00107796
2.03747e-06
1.05407e-06
0.00107799
2.41175e-06
-1.21219e-06
0.00107819
1.15213e-06
-7.17496e-07
0.00107824
9.15708e-07
1.48165e-06
0.0010781
1.12241e-06
2.71053e-06
0.00107791
2.25066e-06
8.1884e-07
0.00107803
1.93579e-06
-1.1288e-06
0.00107823
1.20801e-06
-8.56705e-07
0.00107836
4.92197e-07
1.54182e-06
0.00107822
1.53788e-06
2.73053e-06
0.00107803
2.19977e-06
9.67389e-07
0.00107804
2.42223e-06
-1.28517e-06
0.00107827
9.35182e-07
-7.99393e-07
0.00107833
6.0859e-07
1.75463e-06
0.00107824
1.27418e-06
2.7429e-06
0.00107807
2.42426e-06
1.07811e-06
0.0010781
1.67924e-06
-1.08232e-06
0.00107832
1.09851e-06
-7.03683e-07
0.00107837
2.27089e-07
1.61059e-06
0.00107836
6.12259e-07
2.78026e-06
0.00107815
2.26338e-06
9.97429e-07
0.0010782
1.89993e-06
-1.19935e-06
0.00107837
9.62645e-07
-8.14838e-07
0.00107844
6.21584e-07
1.56165e-06
0.00107832
6.60267e-07
2.83071e-06
0.00107808
2.20867e-06
1.10506e-06
0.00107814
1.62761e-06
-1.0726e-06
0.00107837
1.2424e-06
-8.94693e-07
0.00107839
2.73349e-07
1.77703e-06
0.00107826
1.01573e-06
2.74027e-06
0.00107805
2.39739e-06
9.74416e-07
0.00107817
2.02959e-06
-1.34086e-06
0.0010783
1.10602e-06
-7.56867e-07
4.07015e-07
1.68552e-06
0.00118743
8.23328e-07
1.65425e-06
0.00118736
1.632e-06
9.11982e-07
0.00118724
1.26286e-06
-2.70184e-07
0.00118721
8.58234e-07
-2.76241e-07
0.00118731
2.12738e-07
9.05597e-07
0.00118741
1.05641e-06
1.60146e-06
0.00118734
1.3702e-06
9.47951e-07
0.00118721
1.53438e-06
-2.99105e-07
0.00118721
6.06995e-07
-2.00233e-07
0.00118732
6.88738e-07
7.75316e-07
0.0011874
8.79368e-07
1.67721e-06
0.00118732
1.56729e-06
7.54882e-07
0.00118722
1.0959e-06
-2.29394e-07
0.00118719
6.11022e-07
-3.26604e-07
0.00118734
2.94111e-07
8.52293e-07
0.00118743
1.18919e-06
1.66008e-06
0.00118736
1.53158e-06
8.6997e-07
0.0011872
1.53641e-06
-3.33979e-07
0.0011872
3.87394e-07
-3.83136e-07
0.00118732
3.97558e-07
9.9362e-07
0.00118744
9.64733e-07
1.63848e-06
0.00118736
1.75705e-06
9.53869e-07
0.00118721
8.79669e-07
-2.22564e-07
0.00118722
5.73729e-07
-2.4364e-07
0.00118728
1.33169e-07
8.82984e-07
0.00118743
3.65291e-07
1.67042e-06
0.00118735
1.64478e-06
8.99951e-07
0.00118725
1.04281e-06
-2.54856e-07
0.00118722
4.44637e-07
-3.05424e-07
0.00118734
4.79463e-07
8.05255e-07
0.00118744
4.70235e-07
1.64052e-06
0.00118733
1.59765e-06
8.59287e-07
0.00118721
7.80098e-07
-2.05179e-07
0.00118723
6.91833e-07
-4.50989e-07
0.00118732
1.43999e-07
9.57816e-07
0.00118745
7.25693e-07
1.56912e-06
0.00118734
1.73188e-06
8.78795e-07
0.00118727
1.09803e-06
-4.15271e-07
0.00118721
6.32267e-07
-3.50277e-07
2.1131e-07
8.88229e-07
0.00130635
6.04767e-07
8.29856e-07
0.00130635
1.03053e-06
5.13326e-07
0.00130625
6.16795e-07
2.97785e-08
0.00130617
5.10161e-07
4.13005e-09
0.00130622
1.143e-07
4.76307e-07
0.00130636
8.14288e-07
7.95697e-07
0.00130634
7.92605e-07
5.64454e-07
0.00130624
8.82073e-07
2.23823e-08
0.00130616
2.80944e-07
1.1089e-07
0.00130624
5.37749e-07
3.9666e-07
0.00130638
6.29723e-07
8.9928e-07
0.00130636
9.7789e-07
4.09918e-07
0.00130625
4.99194e-07
1.01851e-07
0.00130614
2.47864e-07
-1.03603e-08
0.00130623
2.04466e-07
4.9448e-07
0.00130635
8.48518e-07
8.57011e-07
0.00130637
9.31374e-07
4.83899e-07
0.00130624
8.74956e-07
3.13127e-08
0.00130616
8.36941e-08
-1.16347e-07
0.00130622
2.97038e-07
5.88251e-07
0.00130637
6.56064e-07
8.06912e-07
0.00130638
1.15687e-06
5.70821e-07
0.00130623
3.06063e-07
6.78277e-08
0.00130618
2.52903e-07
5.33205e-08
0.00130618
1.294e-07
4.93927e-07
0.00130634
1.44974e-07
8.60511e-07
0.00130633
1.12074e-06
5.30469e-07
0.00130624
4.29708e-07
9.50772e-08
0.00130615
1.57196e-07
2.58716e-08
0.00130623
4.05139e-07
4.1982e-07
0.00130636
2.7331e-07
8.02761e-07
0.00130634
1.07953e-06
4.10263e-07
0.00130622
1.77656e-07
1.00132e-07
0.00130616
3.85535e-07
-1.58932e-07
0.00130621
1.13336e-07
5.29906e-07
0.00130638
4.41134e-07
7.24348e-07
0.00130634
1.17002e-06
4.88163e-07
0.00130626
3.98995e-07
-5.42933e-08
0.00130615
3.80932e-07
-7.05125e-08
1.13421e-07
4.70824e-07
0.00143693
4.24935e-07
4.03165e-07
0.00143694
6.09198e-07
2.44275e-07
0.00143688
1.88882e-07
6.88161e-08
0.0014368
3.01695e-07
8.37634e-08
0.00143682
4.10978e-08
2.395e-07
0.00143694
6.19881e-07
3.81326e-07
0.00143693
3.9097e-07
2.89277e-07
0.00143688
4.43263e-07
7.64238e-08
0.00143679
9.21835e-08
1.89096e-07
0.00143685
4.16214e-07
1.86069e-07
0.00143697
4.27518e-07
4.89352e-07
0.00143697
5.66565e-07
1.57987e-07
0.00143689
1.30057e-07
1.67786e-07
0.00143678
3.70829e-08
5.55038e-08
0.00143683
1.54775e-07
3.00869e-07
0.00143692
5.83434e-07
4.26845e-07
0.00143697
4.98925e-07
2.04703e-07
0.00143688
4.4023e-07
1.13177e-07
0.0014368
-7.39995e-08
-4.61405e-08
0.00143682
2.42508e-07
3.72604e-07
0.00143695
4.08422e-07
3.58927e-07
0.00143698
7.23529e-07
3.03018e-07
0.00143687
-3.78401e-08
8.9104e-08
0.00143683
5.72925e-08
1.30616e-07
0.0014368
1.52793e-07
2.75288e-07
0.00143693
-2.32494e-08
4.38712e-07
0.00143693
7.59472e-07
2.6894e-07
0.00143688
4.2607e-08
1.47263e-07
0.00143679
5.76053e-09
1.1042e-07
0.00143684
3.49736e-07
2.13526e-07
0.00143695
1.12558e-07
3.77037e-07
0.00143695
7.28217e-07
1.24954e-07
0.00143686
-1.94375e-07
1.46453e-07
0.00143681
2.15616e-07
-6.97939e-08
0.00143681
1.07696e-07
3.04655e-07
0.00143696
2.15476e-07
2.96162e-07
0.00143694
7.88351e-07
2.12807e-07
0.00143689
-5.5006e-08
1.76643e-08
0.00143679
2.47978e-07
1.28122e-08
4.85091e-08
2.51655e-07
0.00158059
2.79086e-07
2.051e-07
0.00158058
3.63418e-07
1.08765e-07
0.00158055
-5.73281e-08
2.82469e-08
0.00158048
1.83594e-07
7.43241e-08
0.00158049
-2.42128e-08
9.38449e-08
0.0015806
4.64439e-07
1.956e-07
0.00158057
1.62646e-07
1.35086e-07
0.00158055
1.7866e-07
4.30739e-08
0.00158047
-1.73266e-09
1.58272e-07
0.00158051
3.02379e-07
5.82365e-08
0.00158062
2.75714e-07
2.97003e-07
0.00158061
3.18411e-07
2.30518e-08
0.00158056
-5.87402e-08
1.53872e-07
0.00158046
-7.05525e-08
1.99774e-09
0.0015805
1.07148e-07
1.90179e-07
0.00158057
3.88367e-07
2.1774e-07
0.00158062
2.28765e-07
6.01093e-08
0.00158055
1.95746e-07
1.06864e-07
0.00158048
-1.52523e-07
-6.71087e-08
0.0015805
1.97696e-07
2.48355e-07
0.0015806
2.24795e-07
1.43034e-07
0.00158063
4.50586e-07
1.72486e-07
0.00158053
-1.95787e-07
3.41374e-08
0.00158052
-6.13113e-08
1.11623e-07
0.00158048
1.71226e-07
1.39127e-07
0.00158058
-1.47482e-07
2.41975e-07
0.00158059
5.43237e-07
1.33344e-07
0.00158055
-1.66274e-07
1.00244e-07
0.00158048
-6.64535e-08
8.47708e-08
0.00158051
2.92903e-07
8.99582e-08
0.00158061
-1.41866e-08
1.89656e-07
0.00158061
5.24279e-07
-6.57043e-09
0.00158053
-3.81659e-07
1.12123e-07
0.0015805
1.24508e-07
-7.43922e-08
0.00158049
9.50708e-08
1.69896e-07
0.00158061
4.41764e-08
1.16277e-07
0.00158059
5.65521e-07
7.10855e-08
0.00158055
-3.07844e-07
1.05073e-08
0.00158048
1.85409e-07
-5.88676e-09
-7.69744e-09
1.25907e-07
0.00173864
1.61775e-07
1.08402e-07
0.00173861
2.37088e-07
4.2885e-08
0.00173859
-1.86765e-07
-1.70064e-08
0.00173854
1.29688e-07
5.33132e-08
0.00173853
-6.7424e-08
-1.35762e-09
0.00173865
3.35455e-07
1.14306e-07
0.00173859
5.78932e-08
4.69557e-08
0.0017386
2.53207e-08
-4.40339e-11
0.00173852
-2.6697e-08
1.09077e-07
0.00173856
2.05896e-07
-2.30546e-08
0.00173866
1.67002e-07
2.03309e-07
0.00173864
1.89993e-07
-6.2669e-08
0.00173861
-1.41574e-07
1.35559e-07
0.00173851
-1.10072e-07
-6.47676e-08
0.00173856
6.59652e-08
1.29259e-07
0.0017386
2.54514e-07
1.07779e-07
0.00173865
7.13401e-08
-1.6252e-08
0.00173859
7.67317e-08
8.87307e-08
0.00173853
-1.82682e-07