/*--------------------------------*- C++ -*----------------------------------*\
  =========                 |
  \\      /  F ield         | OpenFOAM: The Open Source CFD Toolbox
   \\    /   O peration     | Website:  https://openfoam.org
    \\  /    A nd           | Version:  10
     \\/     M anipulation  |
\*---------------------------------------------------------------------------*/
FoamFile
{
    format      ascii;
    class       volScalarField;
    location    "22.5";
    object      pMean;
}
// * * * * * * * * * * * * * * * * * * * * * * * * * * * * * * * * * * * * * //

dimensions      [0 2 -2 0 0 0 0];

internalField   nonuniform List<scalar> 
25600
(
-4.56844e-06
-1.95247e-06
-5.18369e-06
1.4205e-06
-1.17027e-07
8.63055e-06
-1.61062e-06
-4.20574e-06
-8.32581e-06
-3.08104e-07
-1.59175e-06
3.67058e-06
1.66678e-07
3.94843e-06
2.03432e-06
2.71275e-06
6.47175e-07
2.56165e-07
-1.0963e-06
2.10518e-06
2.37453e-06
2.85958e-06
3.84339e-06
1.04171e-05
1.47039e-05
8.71708e-06
5.2185e-06
6.49863e-06
9.71376e-06
1.00259e-05
1.30901e-05
7.96314e-07
3.89977e-06
-4.07707e-07
4.22127e-06
-3.35699e-06
-1.68184e-06
-1.45435e-06
-5.4224e-07
2.58408e-06
-4.19967e-06
-1.40057e-06
-4.50391e-06
2.02335e-06
5.33278e-07
9.06067e-06
-1.23276e-06
-3.58343e-06
-7.70061e-06
3.27948e-07
-1.13323e-06
4.00942e-06
5.22403e-07
4.69477e-06
2.67763e-06
3.17461e-06
1.00244e-06
7.85947e-07
-5.71678e-07
2.60167e-06
2.49035e-06
3.10037e-06
4.21954e-06
1.10072e-05
1.52019e-05
8.93217e-06
5.57484e-06
6.90209e-06
1.02891e-05
1.05542e-05
1.36305e-05
9.23635e-07
3.99128e-06
2.68089e-07
4.60208e-06
-2.86176e-06
-1.27101e-06
-7.26886e-07
1.54205e-07
3.4208e-06
-3.53992e-06
-1.48226e-06
-4.09214e-06
3.56667e-06
1.66995e-06
9.8681e-06
-1.37551e-06
-3.20244e-06
-6.55038e-06
1.66815e-06
-4.25545e-07
4.74185e-06
1.44973e-06
5.17191e-06
3.27993e-06
4.03003e-06
1.71496e-06
1.45e-06
3.64068e-07
3.66475e-06
3.53852e-06
3.36977e-06
4.81621e-06
1.22862e-05
1.64718e-05
9.22274e-06
5.46627e-06
7.61895e-06
1.10473e-05
1.18497e-05
1.36885e-05
1.65987e-06
4.72145e-06
1.0743e-06
5.68157e-06
-2.30729e-06
-1.33029e-06
-2.15587e-07
7.55677e-07
4.17955e-06
-3.40503e-06
-1.62526e-06
-2.74123e-06
4.49362e-06
2.36995e-06
1.05423e-05
-1.27328e-06
-3.12931e-06
-6.26457e-06
1.94131e-06
-1.6703e-10
4.66723e-06
1.54091e-06
6.65396e-06
4.28865e-06
4.84871e-06
2.49232e-06
2.38908e-06
8.7561e-07
3.62628e-06
3.0795e-06
3.90067e-06
4.78877e-06
1.38659e-05
1.77076e-05
9.33054e-06
5.56085e-06
7.52256e-06
1.17893e-05
1.28036e-05
1.44728e-05
7.41709e-07
4.02635e-06
2.02822e-06
5.86186e-06
-1.93114e-06
-2.0215e-06
1.77004e-07
1.90706e-06
5.23719e-06
-5.89197e-06
-5.48568e-06
-6.3096e-06
2.69274e-06
1.40047e-06
7.71992e-06
-3.81319e-06
-5.1752e-06
-8.234e-06
2.92292e-07
-2.91267e-06
1.09634e-06
-7.90578e-07
3.81426e-06
2.48105e-06
3.67426e-06
-2.05415e-08
2.61021e-07
-2.33279e-07
3.21673e-06
2.3137e-06
1.50163e-06
3.14052e-06
1.11651e-05
1.6293e-05
7.62929e-06
2.98179e-06
5.26944e-06
7.91571e-06
9.97151e-06
1.10982e-05
-1.20973e-06
1.20667e-06
-3.85531e-07
3.19267e-06
-3.63663e-06
-5.54274e-06
-2.81372e-06
-2.16916e-06
2.50832e-06
-1.2485e-05
-1.19245e-05
-1.12965e-05
-3.41341e-06
-5.14175e-06
1.22413e-06
-1.26075e-05
-1.32641e-05
-1.51282e-05
-6.73097e-06
-9.36431e-06
-5.72555e-06
-7.49164e-06
-1.68614e-06
-3.1298e-06
-2.70433e-06
-5.98933e-06
-5.93824e-06
-6.75773e-06
-4.6213e-06
-4.50636e-06
-4.96876e-06
-3.76052e-06
6.19787e-06
8.1157e-06
-1.32324e-06
-5.26322e-06
-2.74569e-06
-3.68331e-07
1.2183e-06
3.41206e-06
-1.13059e-05
-7.65104e-06
-7.76346e-06
-4.59712e-06
-1.1777e-05
-1.15909e-05
-9.9313e-06
-9.25312e-06
-5.86599e-06
-2.32027e-05
-2.11057e-05
-2.18476e-05
-1.06365e-05
-1.35476e-05
-8.42939e-06
-2.09835e-05
-2.20559e-05
-2.58935e-05
-1.77694e-05
-1.96212e-05
-1.70528e-05
-1.71883e-05
-1.13848e-05
-1.11134e-05
-1.23673e-05
-1.38834e-05
-1.55816e-05
-1.52983e-05
-1.19142e-05
-1.22387e-05
-1.35998e-05
-1.16256e-05
-5.41089e-06
-2.56857e-06
-1.29949e-05
-1.65049e-05
-1.48118e-05
-1.29516e-05
-1.04215e-05
-9.55261e-06
-1.89794e-05
-1.82341e-05
-1.84928e-05
-1.43056e-05
-2.14928e-05
-2.51244e-05
-2.04296e-05
-1.92399e-05
-1.67633e-05
-3.06542e-05
-2.7879e-05
-2.75531e-05
-2.00947e-05
-2.31759e-05
-1.78008e-05
-2.86658e-05
-3.06133e-05
-3.52035e-05
-2.80532e-05
-2.72706e-05
-2.40839e-05
-2.40738e-05
-2.03085e-05
-2.02753e-05
-2.06215e-05
-2.17368e-05
-2.36388e-05
-2.41983e-05
-1.96446e-05
-2.07115e-05
-1.95963e-05
-1.96571e-05
-1.50792e-05
-1.43558e-05
-2.36035e-05
-2.75664e-05
-2.53813e-05
-2.41843e-05
-2.14838e-05
-1.84759e-05
-2.84882e-05
-2.81017e-05
-2.72536e-05
-2.49503e-05
-2.95332e-05
-3.31568e-05
-2.87467e-05
-2.96516e-05
-2.53972e-05
-3.31859e-05
-3.03612e-05
-3.09452e-05
-2.28782e-05
-2.77607e-05
-2.24505e-05
-3.06483e-05
-3.27549e-05
-3.64812e-05
-3.16912e-05
-2.98714e-05
-2.77705e-05
-2.7161e-05
-2.3253e-05
-2.20959e-05
-2.4377e-05
-2.50516e-05
-2.59019e-05
-2.58566e-05
-2.33433e-05
-2.21116e-05
-2.08439e-05
-2.12945e-05
-1.96496e-05
-1.96267e-05
-2.75195e-05
-3.20472e-05
-3.05466e-05
-2.82182e-05
-2.73122e-05
-2.48413e-05
-3.03348e-05
-3.1344e-05
-3.06551e-05
-2.92384e-05
-3.25876e-05
-3.68776e-05
-3.24315e-05
-3.29177e-05
-2.91444e-05
-2.79783e-05
-2.44968e-05
-2.44827e-05
-2.031e-05
-2.39119e-05
-1.8987e-05
-2.37946e-05
-2.58411e-05
-2.96443e-05
-2.74671e-05
-2.47625e-05
-2.14049e-05
-2.0587e-05
-1.89213e-05
-1.91298e-05
-2.0251e-05
-2.08207e-05
-1.99675e-05
-2.27429e-05
-1.89967e-05
-1.87328e-05
-1.60384e-05
-1.68418e-05
-1.62025e-05
-1.64229e-05
-2.20242e-05
-2.6934e-05
-2.57875e-05
-2.39415e-05
-2.36564e-05
-2.07325e-05
-2.44591e-05
-2.6343e-05
-2.55083e-05
-2.50283e-05
-2.60467e-05
-3.0695e-05
-2.71207e-05
-2.78436e-05
-2.48742e-05
-2.04269e-05
-1.77015e-05
-1.82691e-05
-1.45019e-05
-1.69926e-05
-1.36893e-05
-1.57387e-05
-1.74172e-05
-2.09968e-05
-2.03302e-05
-1.78328e-05
-1.53081e-05
-1.45053e-05
-1.28736e-05
-1.30356e-05
-1.37183e-05
-1.37702e-05
-1.29443e-05
-1.44303e-05
-1.31177e-05
-1.26482e-05
-1.04031e-05
-1.03792e-05
-1.03168e-05
-1.0359e-05
-1.43357e-05
-1.91107e-05
-1.80703e-05
-1.65718e-05
-1.63717e-05
-1.43189e-05
-1.58231e-05
-1.75776e-05
-1.76664e-05
-1.80914e-05
-1.83749e-05
-2.22648e-05
-1.92647e-05
-2.01176e-05
-1.80335e-05
-1.46152e-05
-1.25029e-05
-1.22626e-05
-9.63406e-06
-1.18849e-05
-9.74488e-06
-1.02425e-05
-1.11733e-05
-1.41845e-05
-1.45448e-05
-1.28365e-05
-9.94937e-06
-8.93748e-06
-8.23365e-06
-8.91517e-06
-8.86758e-06
-9.46073e-06
-7.8677e-06
-9.64236e-06
-9.10873e-06
-8.90769e-06
-6.78457e-06
-5.91434e-06
-5.84431e-06
-6.23685e-06
-8.82067e-06
-1.26937e-05
-1.21472e-05
-1.09542e-05
-1.09463e-05
-9.65192e-06
-1.00402e-05
-1.14234e-05
-1.14974e-05
-1.24877e-05
-1.20527e-05
-1.51877e-05
-1.28088e-05
-1.38965e-05
-1.25413e-05
-1.00625e-05
-8.44094e-06
-7.97169e-06
-6.14436e-06
-7.94331e-06
-6.70228e-06
-6.3328e-06
-6.57995e-06
-9.04759e-06
-1.0018e-05
-8.80009e-06
-6.19059e-06
-5.39948e-06
-4.86713e-06
-5.44267e-06
-5.38885e-06
-5.68734e-06
-4.08881e-06
-5.28824e-06
-5.50968e-06
-5.64129e-06
-3.86699e-06
-2.4423e-06
-2.44761e-06
-3.06962e-06
-4.652e-06
-7.71221e-06
-7.61325e-06
-7.06079e-06
-7.00356e-06
-6.53833e-06
-6.01035e-06
-6.79881e-06
-6.87975e-06
-8.10908e-06
-7.42966e-06
-1.0047e-05
-8.317e-06
-9.14132e-06
-8.35907e-06
-6.39183e-06
-5.2047e-06
-4.58516e-06
-3.33734e-06
-4.60097e-06
-4.00151e-06
-3.51968e-06
-3.25941e-06
-5.08883e-06
-6.10722e-06
-5.61509e-06
-3.41484e-06
-2.48954e-06
-1.96418e-06
-2.66663e-06
-2.4536e-06
-2.64352e-06
-1.32534e-06
-2.04232e-06
-2.57303e-06
-2.96438e-06
-1.63081e-06
-2.28546e-07
2.62476e-08
-7.42574e-07
-1.63278e-06
-3.99201e-06
-4.23323e-06
-4.26637e-06
-4.1634e-06
-3.9914e-06
-3.13284e-06
-3.35411e-06
-3.40098e-06
-4.69656e-06
-4.16696e-06
-6.05469e-06
-4.76964e-06
-5.39724e-06
-5.09459e-06
-3.81362e-06
-3.0209e-06
-2.36164e-06
-1.49236e-06
-2.44064e-06
-2.24018e-06
-1.88644e-06
-1.29175e-06
-2.45159e-06
-3.37339e-06
-3.30872e-06
-1.66385e-06
-7.10694e-07
-2.22683e-07
-7.66752e-07
-5.87737e-07
-7.21995e-07
3.10674e-07
-1.34092e-07
-5.99069e-07
-1.16336e-06
-1.98358e-07
9.84073e-07
1.50765e-06
7.8248e-07
1.94951e-07
-1.73145e-06
-1.98426e-06
-2.39191e-06
-2.21748e-06
-2.14096e-06
-1.31311e-06
-1.2356e-06
-1.23784e-06
-2.38846e-06
-2.04098e-06
-3.37798e-06
-2.43667e-06
-2.94008e-06
-2.93666e-06
-2.39455e-06
-1.91638e-06
-1.28926e-06
-6.72649e-07
-1.34858e-06
-1.34013e-06
-1.14091e-06
-3.86926e-07
-1.08912e-06
-1.78241e-06
-1.9614e-06
-8.63102e-07
-9.12376e-08
4.60671e-07
1.23925e-07
2.27831e-07
1.58814e-07
9.22403e-07
6.87222e-07
3.73536e-07
-2.07982e-07
3.99276e-07
1.29293e-06
1.93675e-06
1.33595e-06
8.81671e-07
-6.62956e-07
-8.5854e-07
-1.3797e-06
-1.25973e-06
-1.24609e-06
-5.56069e-07
-2.57706e-07
-2.37766e-07
-1.13878e-06
-9.4635e-07
-1.94215e-06
-1.23381e-06
-1.60146e-06
-1.71217e-06
-1.68643e-06
-1.37597e-06
-8.76363e-07
-4.49103e-07
-9.45227e-07
-9.66153e-07
-8.82557e-07
-1.98916e-07
-5.8088e-07
-1.00814e-06
-1.28385e-06
-6.25438e-07
-3.67559e-08
5.11799e-07
3.77243e-07
4.78191e-07
4.33725e-07
1.0225e-06
8.62799e-07
6.89093e-07
1.36402e-07
4.65487e-07
1.12222e-06
1.68963e-06
1.25316e-06
1.00595e-06
-1.83755e-07
-3.59905e-07
-9.20829e-07
-9.18384e-07
-9.21553e-07
-4.15864e-07
2.56675e-10
1.19079e-07
-5.35852e-07
-4.43684e-07
-1.21684e-06
-7.05479e-07
-9.74845e-07
-1.16964e-06
-1.30956e-06
-1.13195e-06
-7.16667e-07
-4.29703e-07
-8.05471e-07
-8.41754e-07
-8.41073e-07
-2.45568e-07
-4.74393e-07
-6.86363e-07
-9.24603e-07
-5.75508e-07
-1.43943e-07
3.31604e-07
3.52107e-07
4.50561e-07
4.80854e-07
9.10081e-07
7.60361e-07
6.73964e-07
2.21234e-07
3.80779e-07
8.27564e-07
1.26477e-06
9.69425e-07
9.12012e-07
2.25674e-08
-1.50908e-07
-6.9391e-07
-8.07072e-07
-7.72337e-07
-4.46757e-07
-3.76297e-10
1.82651e-07
-2.70271e-07
-2.00515e-07
-8.35982e-07
-4.76133e-07
-7.20043e-07
-9.41754e-07
-1.0579e-06
-9.80859e-07
-6.49416e-07
-4.63194e-07
-7.48633e-07
-7.85569e-07
-8.49826e-07
-3.97545e-07
-5.5613e-07
-6.12123e-07
-7.38736e-07
-5.38952e-07
-2.44958e-07
9.17762e-08
2.11271e-07
3.27803e-07
4.22011e-07
7.4453e-07
5.93022e-07
5.43953e-07
2.15308e-07
2.60142e-07
5.66739e-07
8.93815e-07
7.08277e-07
7.59248e-07
1.11709e-07
-6.7796e-08
-5.53493e-07
-7.1494e-07
-6.76144e-07
-4.91254e-07
-8.75223e-08
1.0062e-07
-2.00865e-07
-6.98504e-08
-5.92858e-07
-3.75775e-07
-5.88047e-07
-8.16557e-07
-8.76245e-07
-8.5795e-07
-5.95143e-07
-4.97995e-07
-7.13317e-07
-7.5923e-07
-8.75813e-07
-5.22524e-07
-6.42824e-07
-5.98325e-07
-6.33581e-07
-5.19757e-07
-3.12291e-07
-1.20134e-07
5.99972e-08
1.7792e-07
3.15516e-07
5.72996e-07
4.3394e-07
4.01923e-07
1.74025e-07
1.654e-07
3.90788e-07
6.28616e-07
4.93786e-07
5.97727e-07
1.34462e-07
-3.82469e-08
-4.47362e-07
-6.00335e-07
-5.75548e-07
-5.04103e-07
-1.91578e-07
-6.07613e-09
-1.90776e-07
-8.8687e-09
-4.05807e-07
-3.07814e-07
-4.9862e-07
-7.45585e-07
-7.20917e-07
-7.50143e-07
-5.37421e-07
-4.99052e-07
-6.8134e-07
-7.19729e-07
-8.74546e-07
-5.80713e-07
-6.90614e-07
-5.99183e-07
-5.83073e-07
-5.20022e-07
-3.64495e-07
-2.69411e-07
-6.01737e-08
3.24793e-08
2.13401e-07
4.26269e-07
2.92529e-07
2.74505e-07
1.275e-07
8.91785e-08
2.75227e-07
4.59512e-07
3.40977e-07
4.552e-07
1.47894e-07
-3.80358e-09
-3.36316e-07
-4.72964e-07
-4.72737e-07
-4.94542e-07
-2.73353e-07
-9.49302e-08
-2.09015e-07
-2.73409e-09
-2.89541e-07
-2.66598e-07
-4.17498e-07
-6.72981e-07
-5.86165e-07
-6.65361e-07
-5.05795e-07
-4.97996e-07
-6.45226e-07
-6.65709e-07
-8.42886e-07
-5.92921e-07
-7.01161e-07
-6.05546e-07
-5.57808e-07
-5.28726e-07
-3.97797e-07
-3.70122e-07
-1.45453e-07
-1.03304e-07
9.07224e-08
2.87799e-07
1.66901e-07
1.76761e-07
9.18889e-08
3.22261e-08
1.94856e-07
3.3648e-07
2.35172e-07
3.34232e-07
1.54759e-07
2.63188e-08
-2.37848e-07
-3.48839e-07
-3.82138e-07
-4.465e-07
-3.02195e-07
-1.39207e-07
-2.45625e-07
-4.35013e-08
-2.38044e-07
-2.52032e-07
-3.25943e-07
-5.79828e-07
-4.68542e-07
-5.93924e-07
-4.91222e-07
-4.9327e-07
-6.09542e-07
-6.01596e-07
-7.8899e-07
-5.84019e-07
-6.81181e-07
-6.01809e-07
-5.37345e-07
-5.26746e-07
-4.08639e-07
-4.37575e-07
-2.08807e-07
-2.03749e-07
-1.63158e-08
1.73104e-07
7.35996e-08
1.13516e-07
6.515e-08
5.97082e-10
1.25172e-07
2.4047e-07
1.59101e-07
2.36471e-07
1.3802e-07
3.53844e-08
-1.69999e-07
-2.34451e-07
-2.86813e-07
-3.71193e-07
-3.13803e-07
-1.55643e-07
-2.72415e-07
-8.90218e-08
-2.24068e-07
-2.60685e-07
-2.52484e-07
-5.02731e-07
-3.92349e-07
-5.35032e-07
-4.77144e-07
-4.84231e-07
-5.7844e-07
-5.44722e-07
-7.19453e-07
-5.49154e-07
-6.19019e-07
-5.75541e-07
-5.15125e-07
-5.13296e-07
-4.178e-07
-4.75071e-07
-2.42633e-07
-2.69372e-07
-1.11021e-07
7.84309e-08
-1.79846e-08
6.06942e-08
3.6962e-08
-2.25873e-08
5.70847e-08
1.41305e-07
7.28783e-08
1.33086e-07
1.08283e-07
2.93787e-08
-1.2775e-07
-1.48753e-07
-2.14929e-07
-2.85556e-07
-2.96561e-07
-1.3762e-07
-2.70904e-07
-1.32275e-07
-2.21676e-07
-2.92359e-07
-2.16182e-07
-4.64286e-07
-3.43765e-07
-4.68742e-07
-4.52237e-07
-4.55942e-07
-5.46842e-07
-4.95551e-07
-6.48097e-07
-5.15517e-07
-5.54006e-07
-5.41416e-07
-4.98032e-07
-4.81156e-07
-4.20069e-07
-4.9064e-07
-2.63896e-07
-3.12023e-07
-1.83904e-07
5.69377e-09
-9.64456e-08
1.26823e-08
3.12725e-09
-3.62059e-08
5.06822e-09
5.46793e-08
3.10395e-09
3.91803e-08
7.4559e-08
5.96246e-09
-9.75759e-08
-9.43553e-08
-1.66939e-07
-2.05025e-07
-2.76324e-07
-1.17326e-07
-2.57911e-07
-1.70982e-07
-2.21909e-07
-3.4108e-07
-2.08317e-07
-4.46199e-07
-3.32154e-07
-4.00984e-07
-4.39367e-07
-4.17468e-07
-5.15803e-07
-4.65471e-07
-5.77776e-07
-4.97089e-07
-4.8933e-07
-4.99861e-07
-4.78111e-07
-4.309e-07
-4.09254e-07
-4.83728e-07
-2.60908e-07
-3.33083e-07
-2.31373e-07
-5.34341e-08
-1.55657e-07
-3.30631e-08
-3.73356e-08
-4.89293e-08
-3.57616e-08
-2.54875e-08
-6.02107e-08
-5.2504e-08
3.37051e-08
-3.43418e-08
-8.58763e-08
-7.17514e-08
-1.53076e-07
-1.52354e-07
-2.73364e-07
-1.11002e-07
-2.43104e-07
-2.00433e-07
-2.12758e-07
-3.72195e-07
-2.14767e-07
-4.37794e-07
-3.32852e-07
-3.40242e-07
-4.31958e-07
-3.75915e-07
-4.65436e-07
-4.49487e-07
-4.91522e-07
-4.93509e-07
-4.24679e-07
-4.62059e-07
-4.64142e-07
-3.71702e-07
-3.89974e-07
-4.63099e-07
-2.48002e-07
-3.49543e-07
-2.67826e-07
-1.07544e-07
-2.06617e-07
-7.08149e-08
-8.846e-08
-6.28852e-08
-7.3324e-08
-7.65525e-08
-9.65145e-08
-1.10219e-07
-2.46896e-09
-7.88705e-08
-9.0999e-08
-6.59711e-08
-1.66488e-07
-1.17307e-07
-2.78063e-07
-1.30182e-07
-2.37229e-07
-2.38452e-07
-2.08739e-07
-3.85504e-07
-2.19612e-07
-4.16039e-07
-3.5399e-07
-2.99679e-07
-4.36989e-07
-3.54071e-07
-4.14087e-07
-4.50583e-07
-3.96633e-07
-4.8829e-07
-3.75747e-07
-4.1529e-07
-4.69268e-07
-3.17603e-07
-3.83459e-07
-4.34683e-07
-2.29908e-07
-3.44114e-07
-2.77688e-07
-1.35401e-07
-2.39409e-07
-8.38136e-08
-1.40334e-07
-6.23396e-08
-1.0433e-07
-1.04653e-07
-1.17689e-07
-1.49628e-07
-3.31998e-08
-1.35639e-07
-1.08671e-07
-8.5319e-08
-1.95237e-07
-1.08408e-07
-2.7599e-07
-1.81055e-07
-2.28199e-07
-2.82969e-07
-2.07414e-07
-3.88534e-07
-2.33031e-07
-3.97777e-07
-3.78429e-07
-2.60879e-07
-4.33336e-07
-3.2485e-07
-3.60958e-07
-4.5086e-07
-3.21082e-07
-4.69957e-07
-3.58589e-07
-3.47856e-07
-4.77133e-07
-2.56771e-07
-3.74457e-07
-4.06765e-07
-2.18072e-07
-3.3584e-07
-2.67175e-07
-1.5349e-07
-2.4871e-07
-8.66383e-08
-1.79705e-07
-6.26714e-08
-1.3225e-07
-1.30511e-07
-1.28442e-07
-1.87436e-07
-4.37945e-08
-1.94045e-07
-1.20712e-07
-1.19669e-07
-2.30276e-07
-1.30525e-07
-2.60433e-07
-2.54147e-07
-2.19955e-07
-3.24999e-07
-2.19985e-07
-3.75352e-07
-2.62273e-07
-3.72095e-07
-4.20733e-07
-2.56484e-07
-4.44942e-07
-3.14658e-07
-3.36599e-07
-4.44577e-07
-2.74669e-07
-4.28e-07
-3.72528e-07
-2.7882e-07
-4.76005e-07
-2.25927e-07
-3.51234e-07
-4.00751e-07
-1.99201e-07
-3.36165e-07
-2.25927e-07
-1.73128e-07
-2.30881e-07
-9.47961e-08
-1.97603e-07
-6.2288e-08
-1.54534e-07
-1.42005e-07
-1.3053e-07
-2.09459e-07
-3.87734e-08
-2.33681e-07
-1.3395e-07
-1.51805e-07
-2.65774e-07
-1.69097e-07
-2.35793e-07
-3.20647e-07
-2.161e-07
-3.40173e-07
-2.50848e-07
-3.37336e-07
-3.12969e-07
-3.5577e-07
-4.11688e-07
-2.67285e-07
-4.29545e-07
-3.18061e-07
-3.42492e-07
-4.37848e-07
-2.70395e-07
-3.86204e-07
-4.04754e-07
-2.51691e-07
-4.38754e-07
-2.44281e-07
-2.99318e-07
-4.02943e-07
-1.79187e-07
-3.2997e-07
-1.82579e-07
-1.80786e-07
-2.07843e-07
-9.93389e-08
-2.04568e-07
-5.44023e-08
-1.77693e-07
-1.34479e-07
-1.42577e-07
-2.22297e-07
-4.10136e-08
-2.51503e-07
-1.55571e-07
-1.79036e-07
-2.93276e-07
-2.19597e-07
-2.301e-07
-3.8695e-07
-2.50377e-07
-3.30327e-07
-2.90248e-07
-2.57252e-07
-3.16231e-07
-3.13792e-07
-4.36645e-07
-2.44644e-07
-2.68774e-07
-2.32241e-07
-2.99769e-07
-3.83773e-07
-2.75738e-07
-3.49544e-07
-4.22222e-07
-2.6707e-07
-3.78728e-07
-2.7471e-07
-2.5126e-07
-3.73254e-07
-1.80468e-07
-2.73212e-07
-1.59718e-07
-1.49037e-07
-1.82362e-07
-9.9567e-08
-1.83316e-07
-5.08351e-08
-1.82748e-07
-1.16504e-07
-1.54863e-07
-2.31034e-07
-5.82091e-08
-2.55933e-07
-1.74252e-07
-1.8919e-07
-2.89682e-07
-2.46384e-07
-2.3795e-07
-4.20765e-07
-3.30369e-07
-3.50043e-07
-4.26303e-07
-3.26444e-07
-3.95589e-07
-4.51501e-07
-8.78721e-06
-1.59732e-05
-1.14445e-05
-7.17172e-06
-1.0071e-05
-1.30991e-05
-1.63471e-05
-1.05696e-05
-4.28168e-06
-1.1027e-06
-7.26386e-06
-1.15802e-05
-1.03879e-05
3.69898e-07
2.93741e-07
-3.73549e-06
-1.07516e-05
-7.72099e-06
-4.76427e-06
-2.76613e-07
-4.54636e-06
-4.51704e-06
-9.02126e-06
1.43718e-06
-1.97081e-06
-6.56586e-06
-2.1701e-05
-1.65752e-05
-1.16239e-05
-8.99655e-06
-1.36795e-05
-2.13157e-05
-1.89251e-05
-1.22973e-05
-1.17555e-05
-1.02234e-05
-1.903e-05
-1.55337e-05
-8.16413e-06
-1.22809e-05
-9.50837e-06
-1.69974e-05
-1.21383e-05
-7.77036e-06
-1.08981e-05
-1.38945e-05
-1.71548e-05
-1.10446e-05
-4.95814e-06
-1.79088e-06
-8.12715e-06
-1.24521e-05
-1.10396e-05
-7.37329e-09
-3.87439e-07
-4.43817e-06
-1.19491e-05
-8.4135e-06
-5.19119e-06
-8.12391e-07
-5.46115e-06
-5.16857e-06
-9.54871e-06
1.18222e-06
-2.49337e-06
-7.29943e-06
-2.25626e-05
-1.72325e-05
-1.20094e-05
-9.47551e-06
-1.45186e-05
-2.21078e-05
-1.95483e-05
-1.28588e-05
-1.25487e-05
-1.10988e-05
-1.99038e-05
-1.62034e-05
-8.42394e-06
-1.28786e-05
-1.10147e-05
-1.78727e-05
-1.31945e-05
-8.45099e-06
-1.21359e-05
-1.53975e-05
-1.90155e-05
-1.2555e-05
-5.48663e-06
-2.5747e-06
-9.6781e-06
-1.42142e-05
-1.24195e-05
-4.65913e-07
-1.32298e-06
-5.94621e-06
-1.28203e-05
-9.11197e-06
-6.4381e-06
-1.9071e-06
-6.6168e-06
-7.32025e-06
-1.13546e-05
2.89989e-07
-3.47009e-06
-9.27027e-06
-2.40607e-05
-1.80687e-05
-1.3056e-05
-1.02246e-05
-1.59802e-05
-2.35055e-05
-2.08747e-05
-1.34277e-05
-1.30667e-05
-1.23244e-05
-2.15048e-05
-1.71037e-05
-9.7992e-06
-1.39002e-05
-1.32042e-05
-1.98011e-05
-1.50091e-05
-9.73295e-06
-1.36906e-05
-1.67187e-05
-2.1354e-05
-1.42607e-05
-7.67317e-06
-5.13513e-06
-1.1755e-05
-1.63839e-05
-1.44721e-05
-1.39042e-06
-3.22219e-06
-7.55669e-06
-1.65261e-05
-1.13564e-05
-7.68565e-06
-3.43459e-06
-9.30339e-06
-9.12605e-06
-1.2854e-05
-1.50615e-06
-5.54554e-06
-1.13904e-05
-2.73155e-05
-1.999e-05
-1.49667e-05
-1.13567e-05
-1.85418e-05
-2.51026e-05
-2.18333e-05
-1.53613e-05
-1.52711e-05
-1.4383e-05
-2.46305e-05
-1.96359e-05
-1.04545e-05
-1.53553e-05
-1.40584e-05
-2.20447e-05
-1.74223e-05
-1.1719e-05
-1.64841e-05
-2.00476e-05
-2.39077e-05
-1.69159e-05
-9.00627e-06
-5.92227e-06
-1.52944e-05
-1.86025e-05
-1.70434e-05
-2.78314e-06
-6.35186e-06
-1.04704e-05
-1.71643e-05
-1.25627e-05
-1.01983e-05
-6.34232e-06
-1.18991e-05
-1.29848e-05
-1.71476e-05
-4.47004e-06
-7.78934e-06
-1.47954e-05
-2.88055e-05
-2.24134e-05
-1.68442e-05
-1.31866e-05
-2.01698e-05
-2.80778e-05
-2.48073e-05
-1.59186e-05
-1.59261e-05
-1.60456e-05
-2.47602e-05
-2.10984e-05
-1.30008e-05
-1.73395e-05
-1.81282e-05
-2.24234e-05
-1.90376e-05
-1.24896e-05
-1.6976e-05
-2.0205e-05
-2.59276e-05
-1.86304e-05
-1.34387e-05
-9.27841e-06
-1.70633e-05
-2.09863e-05
-1.96991e-05
-4.76528e-06
-9.40401e-06
-1.31831e-05
-2.19741e-05
-1.51837e-05
-1.19192e-05
-7.58191e-06
-1.26643e-05
-1.45654e-05
-1.91168e-05
-7.38419e-06
-1.04184e-05
-1.76403e-05
-3.3716e-05
-2.43964e-05
-1.89502e-05
-1.41282e-05
-2.33155e-05
-2.79335e-05
-2.43796e-05
-1.70144e-05
-1.75592e-05
-1.63416e-05
-2.79424e-05
-2.26036e-05
-1.43233e-05
-1.83867e-05
-1.61615e-05
-2.44096e-05
-2.08048e-05
-1.45098e-05
-2.11938e-05
-2.37822e-05
-2.63887e-05
-1.96699e-05
-1.46258e-05
-9.56773e-06
-1.86712e-05
-2.12703e-05
-2.12151e-05
-7.09489e-06
-1.10622e-05
-1.42763e-05
-2.43011e-05
-1.57316e-05
-1.26746e-05
-9.30648e-06
-1.38342e-05
-1.59251e-05
-2.22599e-05
-1.10617e-05
-1.3691e-05
-2.02656e-05
-3.27084e-05
-2.59376e-05
-2.02831e-05
-1.56221e-05
-2.18578e-05
-2.85873e-05
-2.43083e-05
-1.69113e-05
-1.56154e-05
-1.8534e-05
-2.3861e-05
-2.13773e-05
-1.47623e-05
-1.88244e-05
-2.06227e-05
-2.36365e-05
-2.26196e-05
-1.62827e-05
-2.23745e-05
-2.43961e-05
-2.97977e-05
-2.33735e-05
-1.76856e-05
-1.40469e-05
-2.04234e-05
-2.07293e-05
-2.21645e-05
-9.99281e-06
-1.52632e-05
-1.64482e-05
-2.50841e-05
-1.67504e-05
-1.54137e-05
-9.42365e-06
-1.45492e-05
-1.64519e-05
-2.29458e-05
-1.53751e-05
-1.7426e-05
-2.14238e-05
-3.23457e-05
-2.6984e-05
-2.18131e-05
-1.61907e-05
-2.36987e-05
-2.6052e-05
-2.32477e-05
-1.6346e-05
-1.69598e-05
-1.57071e-05
-2.49804e-05
-2.24663e-05
-1.59127e-05
-1.85225e-05
-2.0457e-05
-2.49879e-05
-2.49207e-05
-2.03994e-05
-2.59369e-05
-2.76533e-05
-2.95654e-05
-2.44133e-05
-2.23577e-05
-1.82584e-05
-2.22259e-05
-2.16967e-05
-2.41939e-05
-1.50207e-05
-1.78643e-05
-2.00988e-05
-2.64238e-05
-1.96522e-05
-1.58122e-05
-1.2701e-05
-1.71412e-05
-1.91309e-05
-2.51199e-05
-2.06581e-05
-2.10382e-05
-2.34093e-05
-3.44356e-05
-2.99782e-05
-2.49287e-05
-2.07974e-05
-2.46456e-05
-2.7924e-05
-2.50854e-05
-2.0112e-05
-2.00329e-05
-2.04121e-05
-2.43851e-05
-2.34834e-05
-1.68523e-05
-2.01263e-05
-2.24648e-05
-2.40385e-05
-2.53052e-05
-2.14007e-05
-2.68585e-05
-2.84068e-05
-3.08536e-05
-2.67719e-05
-2.37806e-05
-1.97056e-05
-2.28499e-05
-2.16706e-05
-2.4494e-05
-1.73463e-05
-1.98988e-05
-2.03921e-05
-2.5614e-05
-2.01494e-05
-1.85967e-05
-1.55718e-05
-1.91543e-05
-2.12346e-05
-2.67901e-05
-2.25427e-05
-2.26763e-05
-2.29137e-05
-3.15002e-05
-2.91963e-05
-2.63882e-05
-2.21103e-05
-2.43366e-05
-2.7767e-05
-2.61483e-05
-2.18602e-05
-2.17414e-05
-2.08444e-05
-2.39959e-05
-2.38712e-05
-1.91527e-05
-2.09832e-05
-1.97722e-05
-2.03833e-05
-2.17523e-05
-2.0032e-05
-2.44148e-05
-2.57635e-05
-2.6855e-05
-2.29157e-05
-2.10732e-05
-1.82952e-05
-1.98157e-05
-1.81681e-05
-2.07541e-05
-1.60992e-05
-1.74765e-05
-1.75326e-05
-2.11202e-05
-1.78057e-05
-1.59519e-05
-1.47921e-05
-1.79231e-05
-1.89301e-05
-2.28102e-05
-2.07407e-05
-2.07782e-05
-2.06473e-05
-2.64672e-05
-2.54432e-05
-2.31064e-05
-1.99723e-05
-2.08717e-05
-2.37193e-05
-2.3016e-05
-2.05172e-05
-1.96902e-05
-1.90727e-05
-2.06997e-05
-2.12216e-05
-1.78028e-05
-1.91089e-05
-1.60445e-05
-1.53962e-05
-1.68967e-05
-1.5789e-05
-1.9741e-05
-2.056e-05
-2.10864e-05
-1.77409e-05
-1.70427e-05
-1.44248e-05
-1.56501e-05
-1.37096e-05
-1.56978e-05
-1.26437e-05
-1.34302e-05
-1.27796e-05
-1.53307e-05
-1.27972e-05
-1.26885e-05
-1.21612e-05
-1.44113e-05
-1.47251e-05
-1.75953e-05
-1.64157e-05
-1.6591e-05
-1.57534e-05
-1.97014e-05
-1.94071e-05
-1.80241e-05
-1.59178e-05
-1.57977e-05
-1.80652e-05
-1.78765e-05
-1.60253e-05
-1.51088e-05
-1.47539e-05
-1.58471e-05
-1.62495e-05
-1.43339e-05
-1.47086e-05
-1.21099e-05
-1.10338e-05
-1.20799e-05
-1.15302e-05
-1.49252e-05
-1.53538e-05
-1.55347e-05
-1.24612e-05
-1.21101e-05
-1.05113e-05
-1.15038e-05
-9.82167e-06
-1.10303e-05
-9.0057e-06
-9.35339e-06
-8.73413e-06
-1.01145e-05
-8.83835e-06
-9.00358e-06
-8.87074e-06
-1.06059e-05
-1.04513e-05
-1.21127e-05
-1.18993e-05
-1.22841e-05
-1.17577e-05
-1.40911e-05
-1.40193e-05
-1.31865e-05
-1.17539e-05
-1.13262e-05
-1.25176e-05
-1.26161e-05
-1.16593e-05
-1.08015e-05
-1.04924e-05
-1.12142e-05
-1.13287e-05
-1.0618e-05
-1.09295e-05
-8.68075e-06
-7.54153e-06
-8.0976e-06
-7.81581e-06
-1.06805e-05
-1.08252e-05
-1.09035e-05
-8.31498e-06
-8.22905e-06
-7.36181e-06
-8.20138e-06
-6.76874e-06
-7.27417e-06
-5.85692e-06
-6.13714e-06
-5.60867e-06
-6.40282e-06
-5.52259e-06
-5.97198e-06
-6.07606e-06
-7.37275e-06
-7.06572e-06
-8.00507e-06
-8.08427e-06
-8.6215e-06
-8.19009e-06
-9.66721e-06
-9.5926e-06
-9.13155e-06
-8.21377e-06
-7.68769e-06
-8.20929e-06
-8.2964e-06
-7.74222e-06
-7.26838e-06
-6.75688e-06
-7.52886e-06
-7.16513e-06
-7.43211e-06
-7.47423e-06
-6.03129e-06
-5.01407e-06
-5.1917e-06
-4.99305e-06
-7.25059e-06
-7.39014e-06
-7.41822e-06
-5.41798e-06
-5.37816e-06
-4.97338e-06
-5.56174e-06
-4.50202e-06
-4.47573e-06
-3.44708e-06
-3.66489e-06
-3.32489e-06
-3.70016e-06
-3.08419e-06
-3.65958e-06
-3.91114e-06
-4.8527e-06
-4.67232e-06
-4.95775e-06
-5.07173e-06
-5.6475e-06
-5.41576e-06
-6.48647e-06
-6.40387e-06
-6.22375e-06
-5.59702e-06
-5.05601e-06
-5.08047e-06
-5.022e-06
-4.71192e-06
-4.55678e-06
-3.99501e-06
-4.80314e-06
-4.17598e-06
-4.83684e-06
-4.99891e-06
-4.14375e-06
-3.37531e-06
-3.2866e-06
-3.07749e-06
-4.81195e-06
-5.01413e-06
-5.08135e-06
-3.6104e-06
-3.53764e-06
-3.31652e-06
-3.71635e-06
-2.94215e-06
-2.73179e-06
-1.98387e-06
-2.1042e-06
-1.91967e-06
-2.05074e-06
-1.60658e-06
-2.17586e-06
-2.45144e-06
-3.22674e-06
-3.09018e-06
-3.09843e-06
-3.07436e-06
-3.58466e-06
-3.46699e-06
-4.34313e-06
-4.26703e-06
-4.25749e-06
-3.73473e-06
-3.27753e-06
-3.06259e-06
-2.89479e-06
-2.69447e-06
-2.81265e-06
-2.28091e-06
-3.02416e-06
-2.32438e-06
-3.0654e-06
-3.30612e-06
-2.87839e-06
-2.40819e-06
-2.21947e-06
-2.03025e-06
-3.28144e-06
-3.50475e-06
-3.58783e-06
-2.55218e-06
-2.49844e-06
-2.32363e-06
-2.53474e-06
-2.02505e-06
-1.7701e-06
-1.2214e-06
-1.23676e-06
-1.1196e-06
-1.15537e-06
-7.95914e-07
-1.30646e-06
-1.58689e-06
-2.18952e-06
-2.12943e-06
-2.00147e-06
-1.84506e-06
-2.3021e-06
-2.21621e-06
-2.97422e-06
-2.92268e-06
-2.99498e-06
-2.57638e-06
-2.2033e-06
-1.90338e-06
-1.66492e-06
-1.5083e-06
-1.7347e-06
-1.2913e-06
-1.93295e-06
-1.34895e-06
-1.98316e-06
-2.25683e-06
-2.04574e-06
-1.79931e-06
-1.60853e-06
-1.46583e-06
-2.30218e-06
-2.49585e-06
-2.61897e-06
-1.89366e-06
-1.85192e-06
-1.70706e-06
-1.81969e-06
-1.48743e-06
-1.23571e-06
-8.25455e-07
-7.64113e-07
-6.74361e-07
-6.8207e-07
-4.24053e-07
-8.70808e-07
-1.0757e-06
-1.54801e-06
-1.53731e-06
-1.35158e-06
-1.14079e-06
-1.51504e-06
-1.44676e-06
-2.06516e-06
-2.03999e-06
-2.14141e-06
-1.81746e-06
-1.55517e-06
-1.2637e-06
-9.89306e-07
-8.54973e-07
-1.05519e-06
-6.99311e-07
-1.2774e-06
-8.3896e-07
-1.33062e-06
-1.59832e-06
-1.4778e-06
-1.39504e-06
-1.25066e-06
-1.1851e-06
-1.72086e-06
-1.8399e-06
-1.96565e-06
-1.44941e-06
-1.45731e-06
-1.32498e-06
-1.36754e-06
-1.16552e-06
-9.3268e-07
-6.49824e-07
-5.04402e-07
-4.30828e-07
-4.34866e-07
-2.30129e-07
-6.11681e-07
-7.71022e-07
-1.10643e-06
-1.13429e-06
-9.60179e-07
-7.57362e-07
-1.05026e-06
-9.56992e-07
-1.43069e-06
-1.41436e-06
-1.51451e-06
-1.29322e-06
-1.11582e-06
-9.12108e-07
-6.11012e-07
-4.688e-07
-6.57216e-07
-3.80843e-07
-8.74501e-07
-5.7125e-07
-9.52811e-07
-1.18766e-06
-1.09289e-06
-1.13256e-06
-1.02126e-06
-1.01243e-06
-1.35657e-06
-1.38573e-06
-1.507e-06
-1.12231e-06
-1.18042e-06
-1.08058e-06
-1.08283e-06
-9.59461e-07
-7.41588e-07
-5.72194e-07
-3.73032e-07
-3.25837e-07
-2.93105e-07
-1.23586e-07
-4.46103e-07
-5.70727e-07
-8.03858e-07
-8.59411e-07
-7.13403e-07
-5.32323e-07
-7.68623e-07
-6.59224e-07
-9.95322e-07
-1.00403e-06
-1.08977e-06
-9.32249e-07
-8.15882e-07
-6.83401e-07
-4.09822e-07
-2.71617e-07
-4.32889e-07
-2.18354e-07
-6.40933e-07
-4.32939e-07
-7.11124e-07
-9.29513e-07
-8.45192e-07
-9.55941e-07
-8.72028e-07
-9.04312e-07
-1.12265e-06
-1.07942e-06
-1.19536e-06
-8.7994e-07
-9.85779e-07
-9.27333e-07
-9.1077e-07
-8.3964e-07
-6.18234e-07
-5.5393e-07
-3.05562e-07
-2.66789e-07
-2.04169e-07
-6.5819e-08
-3.44776e-07
-4.37676e-07
-5.92977e-07
-6.66713e-07
-5.57179e-07
-4.10829e-07
-5.93591e-07
-4.67643e-07
-6.82296e-07
-7.06515e-07
-7.98384e-07
-6.8436e-07
-6.05722e-07
-5.40365e-07
-3.11128e-07
-1.55774e-07
-3.02653e-07
-1.24201e-07
-4.78628e-07
-3.69428e-07
-5.80778e-07
-7.88409e-07
-6.89267e-07
-8.4178e-07
-7.68216e-07
-8.18924e-07
-9.66392e-07
-8.77593e-07
-1.00453e-06
-7.35157e-07
-8.545e-07
-8.15339e-07
-7.80462e-07
-7.54048e-07
-5.2811e-07
-5.31845e-07
-2.59049e-07
-2.59873e-07
-1.74784e-07
-3.50067e-08
-2.74306e-07
-3.34552e-07
-4.35228e-07
-5.15458e-07
-4.57462e-07
-3.45469e-07
-4.90978e-07
-3.6838e-07
-4.75229e-07
-5.046e-07
-5.82235e-07
-5.02516e-07
-4.61264e-07
-4.41623e-07
-2.91755e-07
-1.29049e-07
-2.65631e-07
-9.34103e-08
-3.71577e-07
-3.42773e-07
-4.80103e-07
-6.95604e-07
-5.79294e-07
-7.4311e-07
-6.90536e-07
-7.44425e-07
-8.60327e-07
-7.46341e-07
-8.80019e-07
-6.47028e-07
-7.44456e-07
-7.28356e-07
-6.78508e-07
-6.79288e-07
-4.6432e-07
-5.28236e-07
-2.36891e-07
-2.77383e-07
-1.82927e-07
-3.78152e-08
-2.34975e-07
-2.5337e-07
-3.20015e-07
-3.93339e-07
-3.73717e-07
-2.92113e-07
-4.20934e-07
-3.14295e-07
-3.41243e-07
-3.75571e-07
-4.33341e-07
-3.77596e-07
-3.70356e-07
-3.7745e-07
-3.15475e-07
-1.39089e-07
-2.86375e-07
-1.09596e-07
-2.99651e-07
-3.25238e-07
-3.93121e-07
-6.28894e-07
-5.02845e-07
-6.61916e-07
-6.17782e-07
-6.73582e-07
-7.78067e-07
-6.6621e-07
-7.99936e-07
-6.05007e-07
-6.64173e-07
-6.5613e-07
-5.93758e-07
-6.08777e-07
-4.26931e-07
-5.22235e-07
-2.17036e-07
-2.87703e-07
-1.96212e-07
-4.48232e-08
-2.27174e-07
-2.11624e-07
-2.57142e-07
-3.01233e-07
-3.04985e-07
-2.34889e-07
-3.59871e-07
-2.77379e-07
-2.61638e-07
-3.0879e-07
-3.45343e-07
-2.94219e-07
-3.14251e-07
-3.23556e-07
-3.47774e-07
-1.58167e-07
-3.17561e-07
-1.60338e-07
-2.57617e-07
-3.31392e-07
-3.2857e-07
-5.86646e-07
-4.37552e-07
-5.87405e-07
-5.74212e-07
-6.05539e-07
-7.12455e-07
-6.11322e-07
-7.29475e-07
-5.825e-07
-6.00475e-07
-6.08992e-07
-5.4964e-07
-5.33412e-07
-3.9857e-07
-4.98901e-07
-2.11255e-07
-3.08932e-07
-2.37517e-07
-7.29046e-08
-2.44297e-07
-1.84112e-07
-2.19821e-07
-2.20248e-07
-2.35079e-07
-1.73405e-07
-2.92312e-07
-2.53081e-07
-2.09686e-07
-2.76048e-07
-2.87391e-07
-2.37962e-07
-2.77645e-07
-2.73624e-07
-3.65492e-07
-1.79469e-07
-3.39558e-07
-2.29777e-07
-2.484e-07
-3.61814e-07
-2.75704e-07
-5.44878e-07
-4.0447e-07
-5.12382e-07
-5.48239e-07
-5.37123e-07
-6.47769e-07
-5.59981e-07
-6.50593e-07
-5.67883e-07
-5.40775e-07
-5.70757e-07
-5.33972e-07
-4.63948e-07
-3.87142e-07
-4.7389e-07
-2.09254e-07
-3.28219e-07