/*--------------------------------*- C++ -*----------------------------------*\
  =========                 |
  \\      /  F ield         | OpenFOAM: The Open Source CFD Toolbox
   \\    /   O peration     | Website:  https://openfoam.org
    \\  /    A nd           | Version:  10
     \\/     M anipulation  |
\*---------------------------------------------------------------------------*/
FoamFile
{
    format      ascii;
    class       volScalarField;
    location    "22.5";
    object      pPrime2Mean;
}
// * * * * * * * * * * * * * * * * * * * * * * * * * * * * * * * * * * * * * //

dimensions      [0 4 -4 0 0 0 0];

internalField   nonuniform List<scalar> 
25600
(
1.21715e-07
1.24008e-07
2.10327e-07
4.31005e-07
1.04347e-07
2.03807e-07
1.28966e-07
2.1589e-07
1.97479e-07
1.24357e-07
1.44456e-07
2.26256e-07
9.88843e-08
1.32332e-07
1.4368e-07
1.64315e-07
1.30041e-07
1.27276e-07
2.5928e-07
1.07696e-07
1.51951e-07
1.99755e-07
1.4036e-07
2.04016e-07
1.26785e-07
1.3687e-07
1.34514e-07
1.37311e-07
1.78278e-07
1.52934e-07
1.58711e-07
1.33777e-07
1.35254e-07
2.53844e-07
1.21486e-07
1.27212e-07
1.88343e-07
1.54139e-07
2.18345e-07
1.5844e-07
1.23157e-07
1.26393e-07
2.12811e-07
4.34171e-07
1.05444e-07
2.07276e-07
1.31743e-07
2.19382e-07
2.01225e-07
1.26598e-07
1.46992e-07
2.29191e-07
9.9987e-08
1.34832e-07
1.46201e-07
1.67857e-07
1.31794e-07
1.28864e-07
2.6171e-07
1.09249e-07
1.55358e-07
1.99502e-07
1.41265e-07
2.08375e-07
1.28111e-07
1.38647e-07
1.3664e-07
1.39617e-07
1.81616e-07
1.56817e-07
1.61112e-07
1.35417e-07
1.36581e-07
2.58594e-07
1.22924e-07
1.28667e-07
1.93429e-07
1.56975e-07
2.20059e-07
1.61563e-07
1.26025e-07
1.2545e-07
2.13387e-07
4.36228e-07
1.07717e-07
2.12811e-07
1.37159e-07
2.24724e-07
2.05615e-07
1.30933e-07
1.52975e-07
2.35911e-07
1.03149e-07
1.40058e-07
1.51545e-07
1.80489e-07
1.36995e-07
1.31654e-07
2.68123e-07
1.11533e-07
1.61751e-07
2.01111e-07
1.416e-07
2.20358e-07
1.3018e-07
1.41467e-07
1.38945e-07
1.4457e-07
1.8643e-07
1.67398e-07
1.65354e-07
1.40871e-07
1.40395e-07
2.65943e-07
1.2465e-07
1.31412e-07
1.92021e-07
1.63311e-07
2.22473e-07
1.66241e-07
1.30642e-07
1.25483e-07
2.16948e-07
4.54805e-07
1.09942e-07
2.14657e-07
1.4193e-07
2.26628e-07
2.09445e-07
1.37765e-07
1.61128e-07
2.30952e-07
1.06069e-07
1.43439e-07
1.54056e-07
1.98131e-07
1.46648e-07
1.34218e-07
2.74489e-07
1.16896e-07
1.71278e-07
2.07087e-07
1.40911e-07
2.37111e-07
1.32186e-07
1.4463e-07
1.42261e-07
1.49333e-07
1.93383e-07
1.78543e-07
1.71558e-07
1.44289e-07
1.4295e-07
2.60927e-07
1.28213e-07
1.35375e-07
1.88449e-07
1.6849e-07
2.26806e-07
1.69246e-07
1.34817e-07
1.23715e-07
2.17363e-07
4.63601e-07
1.10497e-07
2.02447e-07
1.47488e-07
2.24144e-07
2.04589e-07
1.46513e-07
1.63417e-07
2.13726e-07
1.08502e-07
1.50107e-07
1.48854e-07
2.15664e-07
1.52087e-07
1.33337e-07
2.56543e-07
1.17023e-07
1.80869e-07
1.96592e-07
1.38576e-07
2.4583e-07
1.32159e-07
1.44205e-07
1.46255e-07
1.48417e-07
2.0947e-07
1.81771e-07
1.80706e-07
1.48745e-07
1.43517e-07
2.52524e-07
1.29559e-07
1.37474e-07
1.92844e-07
1.71129e-07
2.37675e-07
1.70588e-07
1.3605e-07
1.20932e-07
2.16164e-07
4.346e-07
1.07577e-07
1.88909e-07
1.5036e-07
2.16236e-07
2.06038e-07
1.47834e-07
1.69208e-07
1.85906e-07
1.07139e-07
1.52221e-07
1.4044e-07
2.20194e-07
1.65778e-07
1.33292e-07
2.35461e-07
1.1967e-07
1.81192e-07
1.75617e-07
1.30671e-07
2.46624e-07
1.27329e-07
1.40006e-07
1.50944e-07
1.41055e-07
2.11482e-07
1.74593e-07
1.67783e-07
1.44949e-07
1.38363e-07
2.2818e-07
1.2504e-07
1.3435e-07
1.98582e-07
1.66202e-07
2.22658e-07
1.70103e-07
1.21646e-07
1.08197e-07
2.13638e-07
3.48323e-07
9.73668e-08
1.64765e-07
1.39662e-07
1.90419e-07
2.2616e-07
1.29224e-07
1.62387e-07
1.46006e-07
9.5821e-08
1.4597e-07
1.17172e-07
1.87834e-07
1.72505e-07
1.27356e-07
1.86163e-07
1.04386e-07
1.48587e-07
1.47371e-07
1.14957e-07
2.05477e-07
1.10192e-07
1.22721e-07
1.45229e-07
1.23811e-07
1.84185e-07
1.60585e-07
1.47394e-07
1.26259e-07
1.25754e-07
1.86122e-07
1.09954e-07
1.21674e-07
1.52813e-07
1.45383e-07
1.87695e-07
1.56411e-07
9.99994e-08
8.91118e-08
1.96008e-07
2.98546e-07
7.92883e-08
1.32707e-07
1.12567e-07
1.57613e-07
2.17469e-07
1.00886e-07
1.52262e-07
1.18766e-07
8.07665e-08
1.3387e-07
9.40455e-08
1.49452e-07
1.60808e-07
1.11427e-07
1.39824e-07
8.45839e-08
1.15495e-07
1.28906e-07
8.93749e-08
1.54732e-07
8.74044e-08
9.88924e-08
1.20804e-07
1.00963e-07
1.40446e-07
1.34527e-07
1.22637e-07
9.8829e-08
1.02248e-07
1.37105e-07
9.24835e-08
1.03767e-07
1.13751e-07
1.20668e-07
1.63803e-07
1.19064e-07
7.62699e-08
6.57221e-08
1.57409e-07
2.39908e-07
6.18375e-08
9.51352e-08
8.23668e-08
1.2085e-07
1.56382e-07
7.02042e-08
1.16118e-07
8.2718e-08
6.02258e-08
9.45854e-08
6.60016e-08
9.95713e-08
1.2517e-07
8.10311e-08
9.99941e-08
6.43269e-08
9.35357e-08
1.13648e-07
6.43855e-08
1.01832e-07
6.31274e-08
7.21919e-08
7.89169e-08
7.61661e-08
8.96908e-08
9.41326e-08
9.53331e-08
7.25314e-08
7.637e-08
9.22283e-08
6.98859e-08
7.86319e-08
8.03975e-08
8.89192e-08
1.28988e-07
8.68531e-08
5.34649e-08
4.71049e-08
1.17557e-07
1.96737e-07
4.43724e-08
6.41032e-08
5.44264e-08
8.39925e-08
1.02459e-07
4.61745e-08
8.00776e-08
5.86271e-08
4.32768e-08
6.34818e-08
4.55106e-08
6.77475e-08
8.6493e-08
5.53655e-08
7.36426e-08
4.53848e-08
7.30127e-08
9.83217e-08
4.48269e-08
6.53818e-08
4.2811e-08
4.88153e-08
4.75052e-08
5.3989e-08
6.05291e-08
5.94744e-08
6.54917e-08
4.88393e-08
5.20013e-08
5.83358e-08
4.80621e-08
5.27488e-08
5.46256e-08
6.23085e-08
9.12562e-08
6.2874e-08
3.45857e-08
3.02503e-08
8.33202e-08
1.45524e-07
3.11276e-08
4.04065e-08
3.32115e-08
5.70137e-08
6.40525e-08
2.93343e-08
4.92749e-08
3.59839e-08
2.84184e-08
3.7755e-08
2.98423e-08
4.50448e-08
5.75915e-08
3.59994e-08
4.90952e-08
3.04504e-08
5.43783e-08
7.4616e-08
3.17323e-08
3.97191e-08
2.76323e-08
3.12051e-08
2.93965e-08
3.47105e-08
4.17056e-08
3.61916e-08
4.27614e-08
3.14008e-08
3.34121e-08
3.73502e-08
3.16366e-08
3.43558e-08
3.52129e-08
4.2547e-08
6.47805e-08
4.27926e-08
2.17657e-08
1.94387e-08
5.79679e-08
9.8269e-08
2.13952e-08
2.45107e-08
2.00794e-08
3.81767e-08
4.09412e-08
1.83277e-08
2.95886e-08
2.24191e-08
1.83601e-08
2.30505e-08
1.8974e-08
2.85343e-08
3.45015e-08
2.28058e-08
3.0483e-08
1.98131e-08
3.8976e-08
5.25523e-08
2.29848e-08
2.44213e-08
1.74733e-08
1.93773e-08
1.82034e-08
2.16064e-08
2.5873e-08
2.1182e-08
2.60672e-08
1.93519e-08
2.07962e-08
2.35553e-08
2.00644e-08
2.14032e-08
2.10358e-08
2.84716e-08
4.52992e-08
2.78374e-08
1.29186e-08
1.2206e-08
3.9872e-08
6.46836e-08
1.45566e-08
1.44481e-08
1.21546e-08
2.47815e-08
2.62349e-08
1.11682e-08
1.70279e-08
1.34742e-08
1.15247e-08
1.39653e-08
1.18317e-08
1.74662e-08
1.98479e-08
1.40247e-08
1.85888e-08
1.26357e-08
2.7061e-08
3.61499e-08
1.64703e-08
1.48237e-08
1.0809e-08
1.17979e-08
1.1341e-08
1.33643e-08
1.56592e-08
1.23544e-08
1.54719e-08
1.1758e-08
1.26031e-08
1.45643e-08
1.23069e-08
1.31306e-08
1.23033e-08
1.91797e-08
3.07369e-08
1.78942e-08
7.6348e-09
7.89268e-09
2.74728e-08
4.22489e-08
1.0087e-08
8.36328e-09
7.53076e-09
1.60388e-08
1.69398e-08
6.89672e-09
9.78546e-09
8.12364e-09
7.23685e-09
8.56526e-09
7.50456e-09
1.06904e-08
1.15071e-08
8.71761e-09
1.10731e-08
8.1978e-09
1.88607e-08
2.4778e-08
1.18201e-08
9.00701e-09
6.75574e-09
7.23339e-09
7.22886e-09
8.30885e-09
9.60369e-09
7.31144e-09
9.10987e-09
7.08657e-09
7.63414e-09
9.00443e-09
7.65705e-09
8.09945e-09
7.40515e-09
1.31509e-08
2.07734e-08
1.18001e-08
4.61941e-09
5.36799e-09
1.90047e-08
2.75631e-08
7.22912e-09
4.93011e-09
4.85095e-09
1.04851e-08
1.1079e-08
4.40499e-09
5.63338e-09
4.99643e-09
4.69623e-09
5.50214e-09
4.91739e-09
6.62544e-09
6.75871e-09
5.53489e-09
6.67983e-09
5.57821e-09
1.31935e-08
1.69001e-08
8.47436e-09
5.57575e-09
4.34194e-09
4.58131e-09
4.75311e-09
5.30808e-09
6.01204e-09
4.48751e-09
5.43665e-09
4.32508e-09
4.74646e-09
5.71219e-09
4.90515e-09
5.1719e-09
4.73693e-09
9.27474e-09
1.41479e-08
8.01352e-09
2.96451e-09
3.87105e-09
1.31557e-08
1.79498e-08
5.28285e-09
2.98752e-09
3.23532e-09
6.93269e-09
7.35731e-09
2.93717e-09
3.29727e-09
3.12331e-09
3.10809e-09
3.66363e-09
3.30206e-09
4.13097e-09
4.00066e-09
3.55504e-09
4.11007e-09
3.89067e-09
9.17217e-09
1.14266e-08
6.0202e-09
3.52788e-09
2.87677e-09
2.97951e-09
3.19686e-09
3.48048e-09
3.83169e-09
2.83592e-09
3.29145e-09
2.68057e-09
3.03306e-09
3.73515e-09
3.25223e-09
3.41872e-09
3.24179e-09
6.66642e-09
9.7179e-09
5.59986e-09
2.05276e-09
2.92635e-09
9.08667e-09
1.16845e-08
3.90535e-09
1.90727e-09
2.22275e-09
4.60562e-09
4.91848e-09
2.02155e-09
1.96272e-09
1.96491e-09
2.06694e-09
2.50215e-09
2.24088e-09
2.56545e-09
2.38593e-09
2.27771e-09
2.57974e-09
2.72739e-09
6.25733e-09
7.6126e-09
4.17602e-09
2.25321e-09
1.91648e-09
1.98123e-09
2.14813e-09
2.29878e-09
2.4657e-09
1.82024e-09
1.99727e-09
1.66722e-09
1.9716e-09
2.49835e-09
2.22397e-09
2.36611e-09
2.37223e-09
4.83988e-09
6.70696e-09
3.99346e-09
1.55307e-09
2.29072e-09
6.26457e-09
7.62325e-09
2.90475e-09
1.30672e-09
1.57285e-09
3.09431e-09
3.33195e-09
1.44774e-09
1.20593e-09
1.24592e-09
1.36342e-09
1.72099e-09
1.51178e-09
1.57409e-09
1.40785e-09
1.42345e-09
1.6245e-09
1.88396e-09
4.1421e-09
4.95816e-09
2.80746e-09
1.44084e-09
1.27233e-09
1.32877e-09
1.44383e-09
1.5152e-09
1.59456e-09
1.18391e-09
1.21673e-09
1.03826e-09
1.31414e-09
1.71372e-09
1.57612e-09
1.71211e-09
1.81729e-09
3.53406e-09
4.66047e-09
2.91506e-09
1.27941e-09
1.83299e-09
4.32645e-09
5.01102e-09
2.17235e-09
9.80778e-10
1.15826e-09
2.10927e-09
2.29217e-09
1.07635e-09
7.83523e-10
8.07023e-10
8.9274e-10
1.18179e-09
1.01641e-09
9.58894e-10
8.25302e-10
8.77293e-10
1.03456e-09
1.27184e-09
2.64741e-09
3.13311e-09
1.8273e-09
9.18996e-10
8.41024e-10
8.97544e-10
9.7634e-10
1.00297e-09
1.03785e-09
7.79474e-10
7.43369e-10
6.49604e-10
8.98575e-10
1.21615e-09
1.1741e-09
1.31395e-09
1.45756e-09
2.61944e-09
3.28444e-09
2.17514e-09
1.11052e-09
1.49665e-09
3.01141e-09
3.339e-09
1.63891e-09
8.05398e-10
9.00066e-10
1.46913e-09
1.61088e-09
8.36507e-10
5.60615e-10
5.52726e-10
5.91837e-10
8.17441e-10
6.9493e-10
5.96457e-10
4.90836e-10
5.41254e-10
6.6824e-10
8.32686e-10
1.62258e-09
1.90936e-09
1.14967e-09
5.85011e-10
5.57832e-10
6.16746e-10
6.7006e-10
6.76019e-10
6.90802e-10
5.28686e-10
4.70869e-10
4.26542e-10
6.44114e-10
9.08258e-10
9.29145e-10
1.07731e-09
1.21139e-09
1.97275e-09
2.35911e-09
1.664e-09
9.87448e-10
1.22928e-09
2.11907e-09
2.2748e-09
1.25197e-09
7.04456e-10
7.37423e-10
1.05384e-09
1.16193e-09
6.71983e-10
4.41343e-10
4.10426e-10
4.04366e-10
5.70552e-10
4.88131e-10
3.94356e-10
3.09586e-10
3.40965e-10
4.41647e-10
5.2762e-10
9.50653e-10
1.11715e-09
7.00104e-10
3.77752e-10
3.75452e-10
4.37852e-10
4.73922e-10
4.76373e-10
4.83785e-10
3.78927e-10
3.21461e-10
3.10191e-10
4.96253e-10
7.20043e-10
7.75878e-10
9.30266e-10
1.03399e-09
1.51255e-09
1.74368e-09
1.30476e-09
8.83277e-10
1.01639e-09
1.51263e-09
1.59233e-09
9.70094e-10
6.37285e-10
6.33486e-10
7.86475e-10
8.68184e-10
5.55954e-10
3.75594e-10
3.34569e-10
2.95007e-10
4.07758e-10
3.61291e-10
2.91485e-10
2.21244e-10
2.30682e-10
3.10144e-10
3.26916e-10
5.31861e-10
6.27427e-10
4.15424e-10
2.55534e-10
2.61593e-10
3.27437e-10
3.55772e-10
3.54801e-10
3.66792e-10
2.95217e-10
2.52032e-10
2.60727e-10
4.15946e-10
6.08974e-10
6.77527e-10
8.31565e-10
9.00993e-10
1.17995e-09
1.33032e-09
1.0453e-09
7.79612e-10
8.46457e-10
1.1001e-09
1.15434e-09
7.64098e-10
5.8269e-10
5.6377e-10
6.12862e-10
6.7153e-10
4.7174e-10
3.36237e-10
2.92128e-10
2.3577e-10
3.01722e-10
2.81114e-10
2.41596e-10
1.8283e-10
1.72864e-10
2.3711e-10
2.03178e-10
2.8703e-10
3.40169e-10
2.44042e-10
1.87996e-10
1.96101e-10
2.63287e-10
2.89345e-10
2.83541e-10
3.075e-10
2.56985e-10
2.30765e-10
2.5167e-10
3.7716e-10
5.45794e-10
6.11139e-10
7.53448e-10
7.98698e-10
9.39447e-10
1.05136e-09
8.56324e-10
6.82969e-10
7.12111e-10
8.20505e-10
8.72394e-10
6.13459e-10
5.25742e-10
5.13636e-10
4.96599e-10
5.37856e-10
4.10048e-10
3.08179e-10
2.63965e-10
2.05633e-10
2.33547e-10
2.29042e-10
2.18504e-10
1.67675e-10
1.48871e-10
2.02775e-10
1.38507e-10
1.58697e-10
1.8519e-10
1.4925e-10
1.53264e-10
1.62431e-10
2.30692e-10
2.54409e-10
2.43424e-10
2.82466e-10
2.48511e-10
2.37146e-10
2.63976e-10
3.62198e-10
5.11964e-10
5.62822e-10
6.85065e-10
7.1882e-10
7.65829e-10
8.57931e-10
7.18899e-10
5.98555e-10
6.09466e-10
6.33111e-10
6.89717e-10
5.06321e-10
4.67387e-10
4.72863e-10
4.15238e-10
4.43118e-10
3.63829e-10
2.85959e-10
2.42779e-10
1.9163e-10
1.92746e-10
1.93494e-10
2.0561e-10
1.59029e-10
1.41744e-10
1.86731e-10
1.13387e-10
1.05503e-10
1.12909e-10
1.04686e-10
1.38785e-10
1.47706e-10
2.19726e-10
2.39741e-10
2.256e-10
2.75602e-10
2.58099e-10
2.59166e-10
2.85744e-10
3.6181e-10
4.9564e-10
5.27827e-10
6.2695e-10
6.54043e-10
6.43845e-10
7.22841e-10
6.19357e-10
5.29037e-10
5.3297e-10
5.10658e-10
5.70754e-10
4.32958e-10
4.10589e-10
4.35197e-10
3.57737e-10
3.71353e-10
3.28047e-10
2.67373e-10
2.27659e-10
1.88643e-10
1.73185e-10
1.7263e-10
1.96932e-10
1.51859e-10
1.39598e-10
1.78181e-10
1.09867e-10
9.73585e-11
9.11338e-11
9.26131e-11
1.3979e-10
1.43798e-10
2.21659e-10
2.39012e-10
2.22729e-10
2.78417e-10
2.76552e-10
2.90213e-10
3.08962e-10
3.68135e-10
4.87492e-10
5.02574e-10
5.77512e-10
5.98842e-10
5.60165e-10
6.28457e-10
5.48671e-10
4.76285e-10
4.77522e-10
4.3281e-10
4.91131e-10
3.85054e-10
3.59546e-10
3.98829e-10
3.19601e-10
3.15239e-10
3.00026e-10
2.53354e-10
2.14914e-10
1.92199e-10
1.68243e-10
1.63976e-10
1.89257e-10
1.44492e-10
1.39413e-10
1.70223e-10
1.13271e-10
1.0908e-10
9.54922e-11
1.0029e-10
1.53614e-10
1.47383e-10
2.26962e-10
2.49187e-10
2.31416e-10
2.87686e-10
2.99093e-10
3.25689e-10
3.30494e-10
3.77109e-10
4.85425e-10
4.86395e-10
5.39928e-10
5.56387e-10
5.04184e-10
5.62619e-10
5.00532e-10
4.4057e-10
4.37054e-10
3.86122e-10
4.37473e-10
3.56699e-10
3.18686e-10
3.65576e-10
2.97864e-10
2.74061e-10
2.77506e-10
2.44522e-10
2.03394e-10
1.95083e-10
1.71127e-10
1.62632e-10
1.81835e-10
1.38064e-10
1.40797e-10
1.62831e-10
1.21832e-10
1.29532e-10
1.11962e-10
1.20561e-10
1.76565e-10
1.59591e-10
2.28097e-10
2.65264e-10
2.46555e-10
2.96775e-10
3.22675e-10
3.59065e-10
3.50557e-10
3.85572e-10
4.8646e-10
4.75307e-10
5.13179e-10
5.27161e-10
4.69202e-10
5.15266e-10
4.68751e-10
4.18979e-10
4.07968e-10
3.61992e-10
4.00893e-10
3.4442e-10
2.93358e-10
3.363e-10
2.9067e-10
2.48939e-10
2.58293e-10
2.38614e-10
1.92921e-10
1.90875e-10
1.74071e-10
1.59774e-10
1.69549e-10
1.32772e-10
1.43631e-10
1.5537e-10
1.34726e-10
1.53829e-10
1.33158e-10
1.46632e-10
2.05661e-10
1.84279e-10
2.27041e-10
2.82452e-10
2.67537e-10
3.01325e-10
3.44208e-10
3.87283e-10
3.70158e-10
3.93962e-10
4.88823e-10
4.6683e-10
4.9245e-10
5.12262e-10
4.53794e-10
4.80445e-10
4.47853e-10
4.02718e-10
3.87096e-10
3.55616e-10
3.7581e-10
3.41482e-10
2.87164e-10
3.09999e-10
2.87963e-10
2.36288e-10
2.35855e-10
2.2691e-10
1.82071e-10
1.76649e-10
1.70019e-10
1.55544e-10
1.51953e-10
1.28206e-10
1.47753e-10
1.45744e-10
1.47217e-10
1.76038e-10
1.53527e-10
1.72361e-10
2.36032e-10
2.23439e-10
2.34139e-10
3.04986e-10
2.96661e-10
3.06986e-10
3.6378e-10
4.06409e-10
3.89287e-10
4.03228e-10
4.92406e-10
4.62219e-10
4.72165e-10
5.09169e-10
4.61075e-10
4.66675e-10
4.36071e-10
3.51372e-10
3.63952e-10
3.627e-10
3.63404e-10
3.44731e-10
2.98816e-10
2.88346e-10
2.81168e-10
2.3042e-10
2.08822e-10
2.00453e-10
1.68483e-10
1.56844e-10
1.49691e-10
1.48616e-10
1.33213e-10
1.17603e-10
1.48049e-10
1.31475e-10
1.49199e-10
1.84465e-10
1.63886e-10
1.85441e-10
2.55745e-10
2.62025e-10
2.49573e-10
3.29988e-10
3.28355e-10
3.23765e-10
3.80305e-10
4.10938e-10
4.02126e-10
4.0653e-10
4.8887e-10
4.59584e-10
4.49425e-10
5.04975e-10
4.89984e-10
5.17995e-10
4.35348e-10
3.31192e-10
3.772e-10
3.91349e-10
3.73727e-10
3.62225e-10
3.24334e-10
2.77156e-10
2.72233e-10
2.30362e-10
1.8994e-10
1.70954e-10
1.56411e-10
1.43143e-10
1.17646e-10
1.34379e-10
1.15908e-10
1.02569e-10
1.40313e-10
1.13394e-10
1.39379e-10
1.74442e-10
1.60016e-10
1.83616e-10
2.5487e-10
2.74598e-10
2.61634e-10
3.42126e-10
3.4586e-10
3.48012e-10
3.89552e-10
4.0189e-10
4.06057e-10
4.0322e-10
4.7148e-10
4.5669e-10
4.40011e-10
5.00511e-10
5.27082e-10
8.35818e-10
4.7326e-10
1.89122e-07
1.3523e-07
2.17621e-07
5.80173e-07
1.89437e-07
1.44319e-07
1.35787e-07
1.68273e-07
2.28661e-07
1.28703e-07
1.3197e-07
1.38289e-07
1.30112e-07
1.43153e-07
1.30841e-07
1.59106e-07
1.38523e-07
1.34421e-07
2.77784e-07
1.17397e-07
1.79928e-07
1.76403e-07
1.46659e-07
3.63857e-07
1.44495e-07
1.61819e-07
1.58601e-07
1.49184e-07
2.47557e-07
1.47159e-07
1.51235e-07
1.50432e-07
1.40255e-07
1.88e-07
1.24385e-07
1.77143e-07
1.63811e-07
1.5807e-07
4.26988e-07
1.35292e-07
1.92078e-07
1.36732e-07
2.17906e-07
5.86886e-07
1.93573e-07
1.46411e-07
1.37599e-07
1.70068e-07
2.32986e-07
1.29833e-07
1.33527e-07
1.39736e-07
1.31347e-07
1.44588e-07
1.32157e-07
1.60583e-07
1.40431e-07
1.35097e-07
2.79213e-07
1.18888e-07
1.82421e-07
1.773e-07
1.47219e-07
3.71312e-07
1.46713e-07
1.62588e-07
1.60705e-07
1.50039e-07
2.52632e-07
1.48885e-07
1.52866e-07
1.51855e-07
1.41295e-07
1.9086e-07
1.25921e-07
1.79149e-07
1.66152e-07
1.58567e-07
4.33844e-07
1.36645e-07
1.98584e-07
1.4109e-07
2.19723e-07
5.92167e-07
1.98811e-07
1.51147e-07
1.4041e-07
1.72719e-07
2.37574e-07
1.328e-07
1.36596e-07
1.42105e-07
1.33497e-07
1.46329e-07
1.35977e-07
1.64107e-07
1.4452e-07
1.37132e-07
2.85632e-07
1.21477e-07
1.83445e-07
1.76512e-07
1.48688e-07
3.86338e-07
1.50944e-07
1.63859e-07
1.64724e-07
1.5259e-07
2.66448e-07
1.51856e-07
1.55808e-07
1.54737e-07
1.42552e-07
1.95705e-07
1.27966e-07
1.82008e-07
1.71384e-07
1.61343e-07
4.45692e-07
1.39652e-07
2.09823e-07
1.44665e-07
2.21143e-07
5.97987e-07
2.00293e-07
1.54292e-07
1.43375e-07
1.76013e-07
2.41337e-07
1.35444e-07
1.38669e-07
1.43638e-07
1.35246e-07
1.47528e-07
1.40177e-07
1.65285e-07
1.46657e-07
1.36786e-07
2.91481e-07
1.22881e-07
1.82326e-07
1.79184e-07
1.50062e-07
3.99936e-07
1.56124e-07
1.6244e-07
1.69155e-07
1.54571e-07
2.72969e-07
1.54041e-07
1.59929e-07
1.58242e-07
1.43906e-07
1.99432e-07
1.31383e-07
1.82275e-07
1.79805e-07
1.63517e-07
4.43897e-07
1.44927e-07
2.17066e-07
1.45095e-07
2.202e-07
6.06715e-07
1.99598e-07
1.59888e-07
1.45561e-07
1.76526e-07
2.42867e-07
1.35155e-07
1.39233e-07
1.43149e-07
1.34619e-07
1.47319e-07
1.48208e-07
1.65486e-07
1.49716e-07
1.35785e-07
3.07439e-07
1.23746e-07
1.8929e-07
1.74219e-07
1.46672e-07
4.2181e-07
1.63624e-07
1.5543e-07
1.69164e-07
1.53635e-07
2.60025e-07
1.54131e-07
1.5788e-07
1.58804e-07
1.41271e-07
1.88873e-07
1.3217e-07
1.79787e-07
1.80036e-07
1.63889e-07
4.4476e-07
1.47574e-07
2.13295e-07
1.38412e-07
2.05359e-07
5.97103e-07
1.88305e-07
1.51276e-07
1.42662e-07
1.71816e-07
2.49781e-07
1.30123e-07
1.31847e-07
1.3898e-07
1.28907e-07
1.41277e-07
1.43512e-07
1.549e-07
1.39302e-07
1.24359e-07
3.10307e-07
1.16124e-07
1.98042e-07
1.64623e-07
1.39207e-07
4.14736e-07
1.64273e-07
1.40881e-07
1.6414e-07
1.45337e-07
2.29102e-07
1.49369e-07
1.57617e-07
1.5242e-07
1.35682e-07
1.76659e-07
1.28077e-07
1.65284e-07
1.70885e-07
1.53086e-07
4.29822e-07
1.45435e-07
1.87675e-07
1.20446e-07
1.79895e-07
5.64022e-07
1.84321e-07
1.39581e-07
1.30346e-07
1.57155e-07
2.21342e-07
1.12007e-07
1.16115e-07
1.20399e-07
1.12434e-07
1.23236e-07
1.21499e-07
1.36718e-07
1.28214e-07
1.09024e-07
3.21549e-07
1.05336e-07
1.76982e-07
1.4604e-07
1.23059e-07
3.48614e-07
1.45595e-07
1.22759e-07
1.41655e-07
1.27234e-07
1.78882e-07
1.35736e-07
1.35904e-07
1.30348e-07
1.14731e-07
1.45644e-07
1.14726e-07
1.44107e-07
1.44622e-07
1.38642e-07
3.83453e-07
1.2658e-07
1.47573e-07
9.87872e-08
1.54315e-07
4.77746e-07
1.52637e-07
1.0797e-07
1.02527e-07
1.31995e-07
1.78147e-07
9.36853e-08
9.5215e-08
9.62897e-08
9.1651e-08
9.88836e-08
9.86853e-08
1.12887e-07
1.08666e-07
8.88396e-08
3.19015e-07
8.19627e-08
1.28402e-07
1.21308e-07
1.04375e-07
2.25909e-07
1.17523e-07
9.99023e-08
1.15126e-07
1.03805e-07
1.28493e-07
1.14654e-07
1.20958e-07
1.05862e-07
9.18636e-08
1.11517e-07
9.60081e-08
1.17292e-07
1.13072e-07
1.14799e-07
2.921e-07
1.0365e-07
1.09768e-07
7.45734e-08
1.27554e-07
3.80047e-07
1.12176e-07
8.23285e-08
7.97018e-08
1.03353e-07
1.48919e-07
7.29005e-08
7.37751e-08
7.49725e-08
7.04063e-08
7.42029e-08
7.11149e-08
8.17885e-08
8.03524e-08
6.82823e-08
2.41382e-07
6.13489e-08
9.16633e-08
9.17936e-08
8.52409e-08
1.3682e-07
9.05248e-08
7.58043e-08
8.98375e-08
8.11307e-08
9.44288e-08
8.71625e-08
9.42749e-08
8.02744e-08
6.93443e-08
8.28533e-08
7.27045e-08
8.93268e-08
8.43776e-08
9.0328e-08
1.94757e-07
7.72619e-08
7.9777e-08
5.14695e-08
1.00844e-07
2.62801e-07
7.83188e-08
5.78485e-08
5.5697e-08
7.31982e-08
1.0639e-07
4.99942e-08
5.27419e-08
5.24728e-08
5.00382e-08
5.22962e-08
4.86555e-08
5.7342e-08
5.50728e-08
5.11365e-08
1.57808e-07
4.25981e-08
6.58993e-08
6.40952e-08
6.52773e-08
9.11767e-08
6.36073e-08
5.45339e-08
6.4929e-08
6.00844e-08
6.85755e-08
6.14882e-08
6.59354e-08
5.66212e-08
4.96622e-08
5.8025e-08
5.06819e-08
5.99796e-08
5.97403e-08
6.7302e-08
1.30259e-07
5.50767e-08
5.14906e-08
3.38567e-08
7.80626e-08
1.81026e-07
4.9737e-08
3.88315e-08
3.63986e-08
5.08503e-08
6.91999e-08
3.37169e-08
3.65851e-08
3.53152e-08
3.39179e-08
3.51881e-08
3.23826e-08
3.92971e-08
3.56828e-08
3.65982e-08
9.20175e-08
2.9393e-08
4.91318e-08
4.81423e-08
4.77205e-08
5.57003e-08
4.03028e-08
3.69857e-08
4.30235e-08
4.24421e-08
4.74152e-08
4.10926e-08
4.37539e-08
3.8557e-08
3.43107e-08
3.91459e-08
3.42421e-08
4.05098e-08
4.05468e-08
4.8439e-08
9.22069e-08
3.89134e-08
3.14154e-08
2.17083e-08
5.89286e-08
1.21376e-07
3.17179e-08
2.52501e-08
2.33402e-08
3.47136e-08
4.56755e-08
2.16998e-08
2.40708e-08
2.32144e-08
2.24354e-08
2.31164e-08
2.11943e-08
2.64315e-08
2.31433e-08
2.53917e-08
5.24681e-08
1.99375e-08
3.70464e-08
3.79381e-08
3.39343e-08
3.43927e-08
2.46661e-08
2.39611e-08
2.74734e-08
2.91522e-08
3.24525e-08
2.69041e-08
2.83394e-08
2.51319e-08
2.29035e-08
2.54009e-08
2.25682e-08
2.63025e-08
2.65704e-08
3.44209e-08
6.24063e-08
2.66322e-08
1.89527e-08
1.4123e-08
4.33966e-08
8.11061e-08
2.08283e-08
1.63008e-08
1.50685e-08
2.38622e-08
3.00464e-08
1.42337e-08
1.56841e-08
1.52066e-08
1.47743e-08
1.49278e-08
1.3739e-08
1.76436e-08
1.47867e-08
1.72393e-08
2.95137e-08
1.36241e-08
2.81447e-08
2.97027e-08
2.40659e-08
2.12716e-08
1.51206e-08
1.5659e-08
1.78226e-08
1.98448e-08
2.23026e-08
1.76611e-08
1.86154e-08
1.62246e-08
1.52924e-08
1.64198e-08
1.47755e-08
1.7147e-08
1.73593e-08
2.46555e-08
4.22394e-08
1.83435e-08
1.11989e-08
9.33868e-09
3.12629e-08
5.36615e-08
1.40048e-08
1.03527e-08
9.82391e-09
1.6195e-08
1.9569e-08
9.27673e-09
1.0058e-08
9.80659e-09
9.62058e-09
9.50739e-09
8.87595e-09
1.15385e-08
9.57197e-09
1.14391e-08
1.63968e-08
9.4e-09
2.1073e-08
2.31643e-08
1.71538e-08
1.31735e-08
9.31271e-09
1.02458e-08
1.1724e-08
1.35083e-08
1.54308e-08
1.16981e-08
1.21091e-08
1.03882e-08
1.0078e-08
1.054e-08
9.73541e-09
1.11581e-08
1.13049e-08
1.74833e-08
2.82023e-08
1.25918e-08
6.67944e-09
6.47206e-09
2.2218e-08
3.51775e-08
9.70665e-09
6.56491e-09
6.562e-09
1.10338e-08
1.28637e-08
6.2271e-09
6.48681e-09
6.39821e-09
6.3007e-09
6.04346e-09
5.71575e-09
7.31778e-09
6.15312e-09
7.41971e-09
9.03655e-09
6.5519e-09
1.54711e-08
1.75663e-08
1.21824e-08
8.17782e-09
5.81748e-09
6.75626e-09
7.88233e-09
9.19082e-09
1.05504e-08
7.86e-09
7.94895e-09
6.68949e-09
6.65226e-09
6.82756e-09
6.47112e-09
7.42058e-09
7.5576e-09
1.24802e-08
1.88052e-08
8.76385e-09
4.06804e-09
4.64145e-09
1.55384e-08
2.28312e-08
6.85358e-09
4.16249e-09
4.42184e-09
7.4567e-09
8.41655e-09
4.19619e-09
4.13361e-09
4.1484e-09
4.05611e-09
3.7831e-09
3.61653e-09
4.52863e-09
3.93383e-09
4.71707e-09
5.00847e-09
4.56948e-09
1.10885e-08
1.28336e-08
8.52406e-09
5.03656e-09
3.62265e-09
4.4497e-09
5.35519e-09
6.24451e-09
7.10687e-09
5.26635e-09
5.19021e-09
4.25413e-09
4.32055e-09
4.41227e-09
4.30782e-09
4.99762e-09
5.16384e-09
8.85984e-09
1.24673e-08
6.10804e-09
2.65083e-09
3.48143e-09
1.07714e-08
1.473e-08
4.92413e-09
2.71156e-09
3.02198e-09
5.04551e-09
5.53491e-09
2.87708e-09
2.66766e-09
2.71437e-09
2.62166e-09
2.38128e-09
2.26282e-09
2.76732e-09
2.49638e-09
2.92041e-09
2.7866e-09
3.11462e-09
7.69341e-09
9.01461e-09
5.84557e-09
3.07447e-09
2.25388e-09
2.93193e-09
3.63752e-09
4.19331e-09
4.68078e-09
3.49253e-09
3.3676e-09
2.69614e-09
2.81118e-09
2.8898e-09
2.91882e-09
3.4605e-09
3.66973e-09
6.30805e-09
8.2734e-09
4.30863e-09
1.89502e-09
2.7014e-09
7.41044e-09
9.46918e-09
3.5755e-09
1.85175e-09
2.10136e-09
3.41854e-09
3.66571e-09
2.00649e-09
1.74899e-09
1.78477e-09
1.68314e-09
1.49175e-09
1.39723e-09
1.67185e-09
1.55765e-09
1.75419e-09
1.56833e-09
2.08043e-09
5.16538e-09
6.08989e-09
3.8921e-09
1.85724e-09
1.37874e-09
1.91991e-09
2.46127e-09
2.7959e-09
3.03416e-09
2.31132e-09
2.18706e-09
1.709e-09
1.83612e-09
1.92542e-09
2.01897e-09
2.47373e-09
2.71057e-09
4.49549e-09
5.52078e-09
3.09353e-09
1.48574e-09
2.14562e-09
5.0882e-09
6.10735e-09
2.62163e-09
1.35993e-09
1.51314e-09
2.33386e-09
2.46379e-09
1.43288e-09
1.18449e-09
1.18948e-09
1.09238e-09
9.46161e-10
8.73515e-10
1.02546e-09
9.77791e-10
1.03836e-09
8.99687e-10
1.35206e-09
3.33887e-09
3.95613e-09
2.50591e-09
1.11163e-09
8.30766e-10
1.2594e-09
1.6634e-09
1.85443e-09
1.93875e-09
1.51889e-09
1.42418e-09
1.10137e-09
1.2217e-09
1.32993e-09
1.46192e-09
1.84181e-09
2.08073e-09
3.22857e-09
3.72671e-09
2.26619e-09
1.25787e-09
1.73719e-09
3.51075e-09
3.98569e-09
1.94701e-09
1.08033e-09
1.14634e-09
1.63142e-09
1.70348e-09
1.06839e-09
8.53538e-10
8.24229e-10
7.32239e-10
6.20823e-10
5.66338e-10
6.5919e-10
6.29724e-10
6.20542e-10
5.36422e-10
8.57486e-10
2.08103e-09
2.47356e-09
1.55923e-09
6.63343e-10
4.98437e-10
8.3205e-10
1.13334e-09
1.24062e-09
1.24923e-09
1.01752e-09
9.54348e-10
7.55271e-10
8.5843e-10
9.75983e-10
1.12807e-09
1.44451e-09
1.65822e-09
2.36132e-09
2.57456e-09
1.71075e-09
1.09911e-09
1.41628e-09
2.44063e-09
2.65491e-09
1.46386e-09
9.07801e-10
9.17941e-10
1.17411e-09
1.22102e-09
8.28472e-10
6.56384e-10
6.01506e-10
5.14655e-10
4.28016e-10
3.87925e-10
4.57384e-10
4.30307e-10
3.92368e-10
3.46314e-10
5.33954e-10
1.24673e-09
1.48494e-09
9.33585e-10
3.97052e-10
3.04678e-10
5.65406e-10
7.90219e-10
8.47977e-10
8.31557e-10
7.09612e-10
6.70474e-10
5.65685e-10
6.52505e-10
7.70465e-10
9.26178e-10
1.1886e-09
1.35918e-09
1.7656e-09
1.83683e-09
1.32603e-09
9.71763e-10
1.16209e-09
1.72525e-09
1.82882e-09
1.11585e-09
7.91582e-10
7.77641e-10
8.74892e-10
9.14426e-10
6.66882e-10
5.36944e-10
4.72225e-10
3.87084e-10
3.207e-10
2.87634e-10
3.53131e-10
3.17644e-10
2.71676e-10
2.51558e-10
3.29864e-10
7.17851e-10
8.58752e-10
5.39905e-10
2.45868e-10
2.0017e-10
4.04824e-10
5.72756e-10
6.02652e-10
5.90596e-10
5.29019e-10
5.10109e-10
4.68805e-10
5.47053e-10
6.58595e-10
8.00206e-10
1.01829e-09
1.13383e-09
1.35416e-09
1.36686e-09
1.05611e-09
8.53891e-10
9.56934e-10
1.24669e-09
1.31325e-09
8.64075e-10
6.98039e-10
6.79842e-10
6.76357e-10
7.13262e-10
5.52902e-10
4.56773e-10
3.92799e-10
3.09244e-10
2.59144e-10
2.27797e-10
2.95016e-10
2.52559e-10
2.08594e-10
2.08951e-10
2.09736e-10
3.99903e-10
4.81178e-10
3.03644e-10
1.6507e-10
1.48811e-10
3.10864e-10
4.39418e-10
4.51142e-10
4.58774e-10
4.29749e-10
4.24138e-10
4.20523e-10
4.93947e-10
5.96167e-10
7.13448e-10
8.94073e-10
9.62316e-10
1.06602e-09
1.06536e-09
8.62204e-10
7.43958e-10
7.94429e-10
9.25666e-10
9.87182e-10
6.84249e-10
6.14758e-10
6.05652e-10
5.42102e-10
5.75503e-10
4.69016e-10
3.96776e-10
3.41106e-10
2.61688e-10
2.25077e-10
1.92046e-10
2.58146e-10
2.15469e-10
1.73098e-10
1.9098e-10
1.47933e-10
2.23621e-10
2.68458e-10
1.74522e-10
1.29083e-10
1.30057e-10
2.59414e-10
3.59858e-10
3.59111e-10
3.87771e-10
3.81423e-10
3.85621e-10
4.00785e-10
4.68672e-10
5.61418e-10
6.48214e-10
7.95778e-10
8.32217e-10
8.6199e-10
8.69442e-10
7.23573e-10
6.47189e-10
6.6948e-10
7.08685e-10
7.76258e-10
5.57396e-10
5.36855e-10
5.44115e-10
4.49055e-10
4.7656e-10
4.05376e-10
3.48333e-10
3.02624e-10
2.32476e-10
2.02332e-10
1.70422e-10
2.29481e-10
1.90932e-10
1.50353e-10
1.80413e-10
1.22362e-10
1.38841e-10
1.60533e-10
1.13632e-10
1.18589e-10
1.29797e-10
2.35585e-10
3.1487e-10
3.06168e-10
3.50517e-10
3.61408e-10
3.7418e-10
3.94611e-10
4.54683e-10
5.40733e-10
5.9717e-10
7.15242e-10
7.33464e-10
7.18522e-10
7.40271e-10
6.24972e-10
5.68802e-10
5.77351e-10
5.6365e-10
6.36877e-10
4.70898e-10
4.62898e-10
4.90951e-10
3.84103e-10
4.01887e-10
3.56849e-10
3.10342e-10
2.71841e-10
2.15762e-10
1.88378e-10
1.59817e-10
2.0515e-10
1.73655e-10
1.36736e-10
1.71131e-10
1.15831e-10
1.10249e-10
1.16443e-10
9.40493e-11
1.23777e-10
1.37015e-10
2.29573e-10
2.94106e-10
2.80075e-10
3.32823e-10
3.56229e-10
3.78053e-10
3.95078e-10
4.46044e-10
5.29377e-10
5.57621e-10
6.48538e-10
6.57618e-10
6.18048e-10
6.52255e-10
5.56391e-10
5.07794e-10
5.11314e-10
4.70133e-10
5.42346e-10
4.15107e-10
3.96317e-10
4.44094e-10
3.4109e-10
3.42651e-10
3.2125e-10
2.82021e-10
2.4562e-10
2.0842e-10
1.82671e-10
1.5714e-10
1.88205e-10
1.59817e-10
1.31325e-10
1.60144e-10
1.17954e-10
1.10735e-10
1.07143e-10
9.9444e-11
1.39657e-10
1.46254e-10
2.31325e-10
2.90458e-10
2.729e-10
3.25814e-10
3.60225e-10
3.89951e-10
3.98439e-10
4.40212e-10
5.23725e-10
5.28441e-10
5.94787e-10
5.99676e-10
5.47974e-10
5.88586e-10
5.08999e-10
4.62385e-10
4.64116e-10
4.12738e-10
4.76825e-10
3.83311e-10
3.43374e-10
4.01934e-10
3.17767e-10
2.96507e-10
2.9484e-10
2.63554e-10
2.24394e-10
2.05788e-10
1.84892e-10
1.59659e-10
1.78623e-10
1.48999e-10
1.31869e-10
1.51752e-10
1.2441e-10
1.26757e-10
1.15379e-10
1.18334e-10
1.64889e-10
1.58154e-10
2.31243e-10
2.97126e-10
2.79286e-10
3.24518e-10
3.70425e-10
4.06255e-10
4.04668e-10
4.36132e-10
5.20356e-10
5.07158e-10
5.52431e-10
5.58703e-10
5.02595e-10
5.40308e-10
4.76645e-10
4.31985e-10
4.2863e-10
3.81012e-10
4.29378e-10
3.6968e-10
3.10258e-10
3.62974e-10
3.11628e-10
2.65981e-10
2.7443e-10
2.53107e-10
2.07719e-10
2.00167e-10
1.8865e-10
1.60964e-10
1.6913e-10
1.41324e-10
1.35005e-10
1.46581e-10
1.34644e-10
1.50623e-10
1.33535e-10
1.42981e-10
1.98495e-10
1.79693e-10
2.25846e-10
3.08182e-10
2.94501e-10
3.23771e-10
3.82016e-10
4.2323e-10
4.1329e-10
4.34339e-10
5.18961e-10
4.92386e-10
5.1772e-10
5.34253e-10
4.78435e-10
5.03353e-10
4.57077e-10
4.10049e-10
4.01201e-10
3.70392e-10
3.9433e-10
3.65487e-10
3.01997e-10
3.29284e-10
3.11555e-10
2.51227e-10
2.52829e-10
2.43279e-10
1.9378e-10
1.87183e-10
1.84499e-10
1.58806e-10
1.54716e-10
1.35563e-10
1.39784e-10
1.41562e-10
1.4579e-10
1.7264e-10
1.54572e-10
1.67167e-10
2.3434e-10
2.18157e-10
2.2841e-10
3.23931e-10